/*--------------------------------*- C++ -*----------------------------------*\
| =========                 |                                                 |
| \\      /  F ield         | OpenFOAM: The Open Source CFD Toolbox           |
|  \\    /   O peration     | Version:  2.3.1                                 |
|   \\  /    A nd           | Web:      www.OpenFOAM.org                      |
|    \\/     M anipulation  |                                                 |
\*---------------------------------------------------------------------------*/
FoamFile
{
    version     2.0;
    format      ascii;
    class       volScalarField;
    location    "20";
    object      epsilon_0;
}
// * * * * * * * * * * * * * * * * * * * * * * * * * * * * * * * * * * * * * //

dimensions      [0 2 -3 0 0 0 0];

internalField   nonuniform List<scalar> 
37530
(
4.33572e-07
4.38262e-07
4.42162e-07
4.44348e-07
4.43016e-07
4.37682e-07
4.97801e-07
3.05565e-06
4.32325e-05
8.4425e-05
8.47984e-05
7.76332e-05
7.85314e-05
8.07754e-05
7.75574e-05
7.20767e-05
7.09125e-05
6.94267e-05
6.1196e-05
5.79967e-05
5.74699e-05
5.62391e-05
5.1068e-05
4.90123e-05
4.71928e-05
4.31395e-05
4.18074e-05
4.13692e-05
4.13369e-05
4.2723e-05
4.6713e-05
4.99887e-05
4.98372e-05
5.22346e-05
5.25575e-05
4.81134e-05
3.89217e-05
7.60583e-07
7.6646e-07
7.70675e-07
7.71793e-07
7.67547e-07
7.55272e-07
7.3666e-07
8.50621e-07
4.56727e-06
1.88235e-05
2.54931e-05
3.16967e-05
3.73016e-05
3.9329e-05
3.98655e-05
4.02544e-05
4.03128e-05
4.25561e-05
4.98529e-05
5.34771e-05
5.00744e-05
4.58909e-05
5.12916e-05
6.02808e-05
6.20335e-05
6.01365e-05
5.63003e-05
5.42846e-05
5.34739e-05
5.22381e-05
5.03298e-05
6.93234e-05
7.94254e-05
8.3819e-05
8.51314e-05
7.62539e-05
6.49571e-05
9.42093e-07
9.49366e-07
9.55393e-07
9.59438e-07
9.60211e-07
9.56599e-07
9.49554e-07
9.39924e-07
1.08122e-06
2.04932e-06
3.27441e-06
4.22297e-06
5.46987e-06
6.39167e-06
5.76983e-06
4.58754e-06
3.67913e-06
4.01062e-06
6.80042e-06
1.07991e-05
1.13392e-05
1.08537e-05
1.3471e-05
1.85695e-05
2.32693e-05
2.67625e-05
2.81753e-05
2.99937e-05
3.33913e-05
3.66564e-05
4.04245e-05
5.09185e-05
6.5199e-05
7.17554e-05
6.67372e-05
5.69437e-05
5.24296e-05
1.04645e-06
1.05538e-06
1.06393e-06
1.07189e-06
1.0795e-06
1.08744e-06
1.09796e-06
1.1162e-06
1.1452e-06
1.24489e-06
1.39976e-06
1.52961e-06
1.6569e-06
1.78446e-06
1.82384e-06
1.83438e-06
1.83653e-06
1.85007e-06
1.9319e-06
2.20708e-06
2.47172e-06
2.63614e-06
2.99163e-06
3.70202e-06
4.40424e-06
4.84486e-06
5.02661e-06
5.42213e-06
6.75209e-06
1.09755e-05
2.05432e-05
2.9988e-05
3.76832e-05
4.54497e-05
4.32644e-05
3.81866e-05
3.42291e-05
1.10116e-06
1.11145e-06
1.1218e-06
1.13203e-06
1.14226e-06
1.15288e-06
1.16469e-06
1.17945e-06
1.19988e-06
1.22992e-06
1.27378e-06
1.32712e-06
1.3875e-06
1.45603e-06
1.52831e-06
1.59918e-06
1.65547e-06
1.69473e-06
1.72666e-06
1.77365e-06
1.84401e-06
1.93065e-06
2.02958e-06
2.15939e-06
2.32087e-06
2.48975e-06
2.66163e-06
2.85176e-06
3.08082e-06
3.49342e-06
4.62003e-06
7.85762e-06
1.31485e-05
2.10618e-05
2.12433e-05
1.96146e-05
2.00851e-05
1.12498e-06
1.13651e-06
1.14874e-06
1.16184e-06
1.17618e-06
1.1925e-06
1.21226e-06
1.23758e-06
1.27102e-06
1.31457e-06
1.36901e-06
1.43031e-06
1.49228e-06
1.5554e-06
1.62041e-06
1.68646e-06
1.74776e-06
1.80655e-06
1.86602e-06
1.9337e-06
2.01566e-06
2.10521e-06
2.20365e-06
2.31444e-06
2.44387e-06
2.59044e-06
2.74559e-06
2.91257e-06
3.08973e-06
3.31131e-06
3.53751e-06
3.99716e-06
4.8978e-06
7.12475e-06
9.83516e-06
1.03393e-05
1.18003e-05
1.12701e-06
1.13941e-06
1.15276e-06
1.16721e-06
1.18298e-06
1.2004e-06
1.22006e-06
1.24291e-06
1.26994e-06
1.30204e-06
1.33957e-06
1.38228e-06
1.42987e-06
1.48239e-06
1.5398e-06
1.60041e-06
1.66152e-06
1.72209e-06
1.78514e-06
1.85413e-06
1.93365e-06
2.02413e-06
2.12586e-06
2.2395e-06
2.36663e-06
2.50799e-06
2.66335e-06
2.83364e-06
3.02655e-06
3.21691e-06
3.47607e-06
3.65083e-06
4.018e-06
4.48696e-06
5.0917e-06
6.3023e-06
6.70769e-06
1.10774e-06
1.12085e-06
1.13521e-06
1.15108e-06
1.16882e-06
1.18896e-06
1.21223e-06
1.23954e-06
1.27184e-06
1.30999e-06
1.35407e-06
1.40306e-06
1.45559e-06
1.51109e-06
1.56919e-06
1.62966e-06
1.69238e-06
1.75807e-06
1.82862e-06
1.90553e-06
1.99092e-06
2.08511e-06
2.18962e-06
2.30585e-06
2.43515e-06
2.579e-06
2.73337e-06
2.91167e-06
3.08539e-06
3.32135e-06
3.51356e-06
3.82344e-06
4.0509e-06
4.52866e-06
4.8363e-06
5.4306e-06
6.30048e-06
1.05697e-06
1.07038e-06
1.08517e-06
1.10158e-06
1.11987e-06
1.14037e-06
1.16349e-06
1.1897e-06
1.21941e-06
1.25285e-06
1.29013e-06
1.33121e-06
1.37606e-06
1.42461e-06
1.4767e-06
1.53222e-06
1.59112e-06
1.65391e-06
1.7216e-06
1.79563e-06
1.87744e-06
1.9682e-06
2.06925e-06
2.18123e-06
2.30606e-06
2.44339e-06
2.5968e-06
2.7636e-06
2.95671e-06
3.14713e-06
3.42362e-06
3.59944e-06
4.00236e-06
4.24036e-06
4.79775e-06
5.10023e-06
5.87338e-06
9.55615e-07
9.68843e-07
9.83518e-07
9.99872e-07
1.0182e-06
1.03888e-06
1.06234e-06
1.08903e-06
1.11937e-06
1.15361e-06
1.19184e-06
1.23384e-06
1.27932e-06
1.32805e-06
1.37994e-06
1.43509e-06
1.49379e-06
1.55671e-06
1.62478e-06
1.69911e-06
1.78075e-06
1.87054e-06
1.96993e-06
2.07951e-06
2.20131e-06
2.33532e-06
2.48312e-06
2.64572e-06
2.83292e-06
3.00653e-06
3.28853e-06
3.44898e-06
3.80864e-06
4.1394e-06
4.37853e-06
5.04891e-06
5.41721e-06
7.74952e-07
7.8729e-07
8.00996e-07
8.16275e-07
8.33361e-07
8.52518e-07
8.74033e-07
8.98183e-07
9.25212e-07
9.55324e-07
9.88612e-07
1.0251e-06
1.06478e-06
1.10768e-06
1.15384e-06
1.20342e-06
1.2567e-06
1.31417e-06
1.37655e-06
1.44468e-06
1.5195e-06
1.60176e-06
1.69304e-06
1.7928e-06
1.90612e-06
2.02322e-06
2.17488e-06
2.28954e-06
2.52011e-06
2.63093e-06
2.92558e-06
3.04631e-06
3.31848e-06
3.73243e-06
3.81372e-06
4.32012e-06
4.86069e-06
4.41791e-07
4.49945e-07
4.5897e-07
4.69002e-07
4.80193e-07
4.92719e-07
5.06772e-07
5.22544e-07
5.40209e-07
5.59906e-07
5.81731e-07
6.05736e-07
6.31957e-07
6.60441e-07
6.91265e-07
7.24579e-07
7.60604e-07
7.99689e-07
8.42274e-07
8.88865e-07
9.40092e-07
9.96297e-07
1.05897e-06
1.12637e-06
1.20607e-06
1.28048e-06
1.39511e-06
1.46075e-06
1.63728e-06
1.68447e-06
1.96933e-06
1.96917e-06
2.25284e-06
2.45697e-06
2.49532e-06
2.77945e-06
3.34678e-06
3.89129e-07
3.91715e-07
3.93861e-07
3.94992e-07
3.93845e-07
3.88071e-07
3.89902e-07
1.25044e-06
2.00397e-05
5.2033e-05
5.60349e-05
5.27636e-05
5.2096e-05
5.3361e-05
5.35243e-05
5.13863e-05
4.93795e-05
4.74171e-05
4.44808e-05
4.32679e-05
4.27235e-05
4.14462e-05
3.85062e-05
3.5856e-05
3.26125e-05
2.91987e-05
2.83208e-05
2.82692e-05
3.03505e-05
3.49445e-05
3.73172e-05
3.75893e-05
2.83004e-05
3.80632e-05
4.19084e-05
4.19494e-05
3.7982e-05
4.12306e-07
4.14498e-07
4.17042e-07
4.20252e-07
4.24933e-07
4.33937e-07
4.6009e-07
6.13268e-07
3.58324e-06
1.99319e-05
3.89017e-05
4.9598e-05
5.62178e-05
6.20354e-05
6.18862e-05
5.59741e-05
5.31099e-05
5.37703e-05
5.72532e-05
5.81006e-05
5.55662e-05
5.73709e-05
6.57937e-05
7.08942e-05
6.71081e-05
6.02575e-05
5.16253e-05
4.50691e-05
4.16232e-05
4.31788e-05
5.32615e-05
9.18952e-05
8.57902e-05
6.58417e-05
7.1963e-05
7.36146e-05
6.56506e-05
4.73067e-07
4.75372e-07
4.77915e-07
4.81148e-07
4.85855e-07
4.93878e-07
5.09726e-07
5.48336e-07
7.36454e-07
2.11487e-06
4.19654e-06
5.27125e-06
6.35836e-06
7.18203e-06
6.29689e-06
5.44918e-06
4.92164e-06
4.93515e-06
5.7728e-06
7.42109e-06
8.01308e-06
8.74067e-06
1.10134e-05
1.5721e-05
2.14289e-05
2.66495e-05
2.84252e-05
2.76716e-05
2.74064e-05
2.80605e-05
3.15315e-05
4.16889e-05
5.54663e-05
5.17345e-05
4.89504e-05
4.09355e-05
3.62887e-05
5.08133e-07
5.10686e-07
5.13445e-07
5.16595e-07
5.20704e-07
5.26698e-07
5.36675e-07
5.55153e-07
5.92277e-07
6.76155e-07
7.94141e-07
8.60828e-07
9.26898e-07
9.99001e-07
1.03745e-06
1.03709e-06
1.03603e-06
1.05816e-06
1.12472e-06
1.27288e-06
1.40434e-06
1.51436e-06
1.73332e-06
2.18656e-06
2.68768e-06
3.18885e-06
3.89637e-06
4.67394e-06
5.90776e-06
8.68312e-06
1.47498e-05
2.1896e-05
2.90151e-05
2.97868e-05
2.74208e-05
2.27477e-05
1.85808e-05
5.25356e-07
5.28085e-07
5.31055e-07
5.34336e-07
5.38303e-07
5.43526e-07
5.50808e-07
5.61528e-07
5.78117e-07
6.04246e-07
6.37972e-07
6.65073e-07
6.85346e-07
7.02801e-07
7.14485e-07
7.218e-07
7.26516e-07
7.30294e-07
7.34286e-07
7.44032e-07
7.63757e-07
7.89156e-07
8.21522e-07
8.67867e-07
9.24484e-07
9.81321e-07
1.04808e-06
1.1618e-06
1.36937e-06
1.78395e-06
2.53446e-06
4.29185e-06
7.51528e-06
1.22456e-05
1.38871e-05
1.35176e-05
1.27265e-05
5.32222e-07
5.35064e-07
5.38167e-07
5.41592e-07
5.45447e-07
5.49925e-07
5.55468e-07
5.62488e-07
5.71068e-07
5.80348e-07
5.88891e-07
5.98011e-07
6.09011e-07
6.21871e-07
6.36333e-07
6.51209e-07
6.64266e-07
6.75597e-07
6.86873e-07
7.00814e-07
7.19111e-07
7.40922e-07
7.65615e-07
7.92768e-07
8.22985e-07
8.57397e-07
8.9516e-07
9.50959e-07
1.01605e-06
1.13675e-06
1.27506e-06
1.62361e-06
2.13059e-06
3.34316e-06
4.60234e-06
5.47703e-06
6.86607e-06
5.32352e-07
5.35244e-07
5.38406e-07
5.41883e-07
5.45745e-07
5.5009e-07
5.55071e-07
5.61068e-07
5.68345e-07
5.77021e-07
5.86731e-07
5.96533e-07
6.05906e-07
6.15098e-07
6.25297e-07
6.3608e-07
6.46967e-07
6.58102e-07
6.6978e-07
6.83039e-07
6.98928e-07
7.17434e-07
7.38484e-07
7.62079e-07
7.88572e-07
8.18911e-07
8.51781e-07
8.93283e-07
9.36406e-07
1.00066e-06
1.05374e-06
1.15962e-06
1.25933e-06
1.45886e-06
1.84867e-06
2.02275e-06
2.71573e-06
5.25916e-07
5.2885e-07
5.32071e-07
5.35622e-07
5.3956e-07
5.43959e-07
5.48905e-07
5.54464e-07
5.6065e-07
5.6738e-07
5.74496e-07
5.82085e-07
5.90413e-07
5.99596e-07
6.0972e-07
6.20732e-07
6.324e-07
6.4489e-07
6.58425e-07
6.73388e-07
6.90141e-07
7.08976e-07
7.30094e-07
7.53781e-07
7.79786e-07
8.09592e-07
8.41201e-07
8.79701e-07
9.2174e-07
9.71623e-07
1.0295e-06
1.09855e-06
1.16601e-06
1.27585e-06
1.4042e-06
1.50485e-06
1.79036e-06
5.09088e-07
5.1199e-07
5.15185e-07
5.1871e-07
5.22614e-07
5.26955e-07
5.31799e-07
5.37211e-07
5.43244e-07
5.49924e-07
5.57254e-07
5.65169e-07
5.73621e-07
5.82608e-07
5.92154e-07
6.02333e-07
6.13185e-07
6.24922e-07
6.37748e-07
6.51936e-07
6.67715e-07
6.85345e-07
7.04909e-07
7.26988e-07
7.50961e-07
7.78993e-07
8.08343e-07
8.43048e-07
8.83385e-07
9.22474e-07
9.76253e-07
1.04054e-06
1.08357e-06
1.19587e-06
1.26006e-06
1.35759e-06
1.47907e-06
4.74348e-07
4.77131e-07
4.80199e-07
4.83589e-07
4.87339e-07
4.91497e-07
4.9611e-07
5.01217e-07
5.06833e-07
5.12946e-07
5.19536e-07
5.26608e-07
5.34219e-07
5.42432e-07
5.51304e-07
5.60898e-07
5.71276e-07
5.82585e-07
5.9497e-07
6.08611e-07
6.23618e-07
6.4028e-07
6.58566e-07
6.7939e-07
7.01094e-07
7.28261e-07
7.5269e-07
7.88068e-07
8.21245e-07
8.55661e-07
9.12977e-07
9.52526e-07
1.01246e-06
1.09052e-06
1.15218e-06
1.24306e-06
1.32965e-06
4.13446e-07
4.16025e-07
4.1886e-07
4.21978e-07
4.25411e-07
4.29199e-07
4.33384e-07
4.3801e-07
4.43119e-07
4.48752e-07
4.54918e-07
4.61621e-07
4.68869e-07
4.76678e-07
4.85077e-07
4.94121e-07
5.0387e-07
5.14435e-07
5.25947e-07
5.38558e-07
5.52346e-07
5.67586e-07
5.84023e-07
6.03054e-07
6.21618e-07
6.47423e-07
6.66556e-07
7.00938e-07
7.25656e-07
7.64451e-07
8.03726e-07
8.44658e-07
8.97065e-07
9.71488e-07
1.05814e-06
1.09697e-06
1.18249e-06
3.9281e-07
3.97003e-07
4.01622e-07
4.06724e-07
4.12368e-07
4.18627e-07
4.25577e-07
4.33292e-07
4.4184e-07
4.51276e-07
4.61648e-07
4.72996e-07
4.85364e-07
4.98802e-07
5.13379e-07
5.29193e-07
5.46362e-07
5.65058e-07
5.85472e-07
6.07821e-07
6.32347e-07
6.59265e-07
6.88978e-07
7.2154e-07
7.57677e-07
7.97544e-07
8.4016e-07
8.92722e-07
9.38622e-07
1.00659e-06
1.07918e-06
1.12604e-06
1.24094e-06
1.3476e-06
1.38173e-06
1.6054e-06
1.68725e-06
4.95363e-07
4.98242e-07
5.00733e-07
5.0235e-07
5.02091e-07
4.98328e-07
4.92294e-07
7.0343e-07
9.78132e-06
4.34557e-05
4.73326e-05
4.42451e-05
4.52835e-05
4.62257e-05
4.30103e-05
4.13439e-05
4.12825e-05
3.98622e-05
3.62667e-05
3.49388e-05
3.44302e-05
3.35605e-05
3.24356e-05
3.11173e-05
2.83153e-05
2.40625e-05
2.04214e-05
1.91188e-05
2.06665e-05
2.57538e-05
2.83281e-05
2.79851e-05
1.20358e-05
2.43973e-05
3.83144e-05
4.04165e-05
3.88761e-05
3.88713e-07
3.9011e-07
3.91834e-07
3.94244e-07
3.98319e-07
4.07266e-07
4.33036e-07
5.46106e-07
1.76938e-06
1.23518e-05
2.33684e-05
2.91767e-05
3.83776e-05
4.75467e-05
4.97166e-05
4.47786e-05
3.78199e-05
3.37271e-05
3.30316e-05
3.26715e-05
3.22958e-05
3.42135e-05
4.07639e-05
4.70937e-05
4.74025e-05
4.55014e-05
4.21095e-05
3.81083e-05
3.28051e-05
3.09885e-05
3.20407e-05
4.4928e-05
4.46244e-05
3.83239e-05
5.61425e-05
7.18249e-05
6.60764e-05
4.05744e-07
4.06795e-07
4.08031e-07
4.09686e-07
4.12349e-07
4.17598e-07
4.29695e-07
4.61715e-07
5.78313e-07
1.3418e-06
2.73447e-06
3.29366e-06
3.76306e-06
4.42525e-06
4.70499e-06
4.61396e-06
4.39919e-06
4.25344e-06
4.39028e-06
4.75565e-06
4.93348e-06
5.2733e-06
6.24359e-06
8.2841e-06
1.10252e-05
1.38692e-05
1.58716e-05
1.69385e-05
1.71655e-05
1.71749e-05
1.72782e-05
1.89527e-05
2.40307e-05
2.33373e-05
2.69761e-05
2.70066e-05
2.63488e-05
4.19402e-07
4.20498e-07
4.21769e-07
4.23353e-07
4.25609e-07
4.29386e-07
4.36662e-07
4.52307e-07
4.86716e-07
5.57975e-07
6.55969e-07
7.16252e-07
7.75643e-07
8.4735e-07
9.12386e-07
9.40037e-07
9.39421e-07
9.49214e-07
9.79926e-07
1.04139e-06
1.09871e-06
1.15796e-06
1.26e-06
1.43154e-06
1.65107e-06
1.90843e-06
2.23769e-06
2.68857e-06
3.37706e-06
4.50369e-06
6.02892e-06
8.58439e-06
1.01209e-05
1.06702e-05
1.08039e-05
1.01979e-05
8.87355e-06
4.26115e-07
4.27256e-07
4.28563e-07
4.30119e-07
4.32105e-07
4.34875e-07
4.39076e-07
4.45903e-07
4.57626e-07
4.77604e-07
5.04586e-07
5.27084e-07
5.43878e-07
5.60842e-07
5.76479e-07
5.88148e-07
5.91309e-07
5.90806e-07
5.89154e-07
5.92771e-07
6.03487e-07
6.22408e-07
6.44797e-07
6.73553e-07
7.08316e-07
7.48194e-07
7.98019e-07
8.80047e-07
9.96875e-07
1.24203e-06
1.53212e-06
2.15833e-06
3.0258e-06
4.25339e-06
4.5855e-06
4.77954e-06
4.74092e-06
4.28675e-07
4.29842e-07
4.31168e-07
4.32717e-07
4.34599e-07
4.37012e-07
4.40285e-07
4.44859e-07
4.51106e-07
4.58471e-07
4.65042e-07
4.71295e-07
4.78443e-07
4.86951e-07
4.96525e-07
5.05298e-07
5.10878e-07
5.14071e-07
5.17356e-07
5.22521e-07
5.31181e-07
5.435e-07
5.58366e-07
5.75396e-07
5.94606e-07
6.16588e-07
6.41814e-07
6.79293e-07
7.27714e-07
8.14862e-07
8.99977e-07
1.08974e-06
1.28721e-06
1.74457e-06
2.05062e-06
2.42782e-06
2.80212e-06
4.28699e-07
4.29867e-07
4.31179e-07
4.32674e-07
4.34415e-07
4.36492e-07
4.3904e-07
4.42246e-07
4.46298e-07
4.51404e-07
4.57312e-07
4.63186e-07
4.68642e-07
4.73861e-07
4.79042e-07
4.84141e-07
4.8875e-07
4.93093e-07
4.97677e-07
5.03468e-07
5.11295e-07
5.21128e-07
5.32834e-07
5.46375e-07
5.62078e-07
5.80218e-07
6.0095e-07
6.26639e-07
6.58155e-07
7.02013e-07
7.42803e-07
8.2488e-07
8.87745e-07
1.01998e-06
1.17777e-06
1.28802e-06
1.55931e-06
4.26254e-07
4.27424e-07
4.28735e-07
4.30222e-07
4.31927e-07
4.33911e-07
4.36241e-07
4.38974e-07
4.42116e-07
4.4553e-07
4.48997e-07
4.52507e-07
4.56275e-07
4.60413e-07
4.64921e-07
4.69716e-07
4.74614e-07
4.7984e-07
4.85657e-07
4.92472e-07
5.00549e-07
5.1012e-07
5.21331e-07
5.34341e-07
5.49005e-07
5.65981e-07
5.8487e-07
6.07359e-07
6.35159e-07
6.67403e-07
7.03893e-07
7.59992e-07
7.98639e-07
8.78161e-07
9.75519e-07
1.03121e-06
1.18494e-06
4.19659e-07
4.20814e-07
4.22103e-07
4.23551e-07
4.25188e-07
4.2705e-07
4.29181e-07
4.3162e-07
4.34401e-07
4.37538e-07
4.40996e-07
4.44683e-07
4.48531e-07
4.52534e-07
4.56716e-07
4.61139e-07
4.65853e-07
4.7104e-07
4.76891e-07
4.83627e-07
4.91422e-07
5.00459e-07
5.10811e-07
5.2283e-07
5.36252e-07
5.52043e-07
5.69666e-07
5.89115e-07
6.15837e-07
6.38292e-07
6.73615e-07
7.17484e-07
7.45009e-07
8.14621e-07
8.72207e-07
9.1591e-07
1.01393e-06
4.06108e-07
4.07252e-07
4.08525e-07
4.09946e-07
4.11541e-07
4.13337e-07
4.15363e-07
4.17639e-07
4.20167e-07
4.22924e-07
4.25873e-07
4.29003e-07
4.3235e-07
4.35961e-07
4.39878e-07
4.44146e-07
4.48813e-07
4.53997e-07
4.59825e-07
4.66438e-07
4.73929e-07
4.82508e-07
4.92158e-07
5.03484e-07
5.15513e-07
5.30719e-07
5.45501e-07
5.64487e-07
5.87766e-07
6.05416e-07
6.41715e-07
6.73176e-07
6.99346e-07
7.59561e-07
8.05648e-07
8.41798e-07
9.14862e-07
3.88855e-07
3.9019e-07
3.9166e-07
3.93285e-07
3.95083e-07
3.97079e-07
3.99304e-07
4.01786e-07
4.04552e-07
4.0762e-07
4.10998e-07
4.14687e-07
4.18689e-07
4.23019e-07
4.27705e-07
4.32791e-07
4.3833e-07
4.44408e-07
4.51122e-07
4.58606e-07
4.66934e-07
4.7633e-07
4.8659e-07
4.98771e-07
5.10695e-07
5.27621e-07
5.40416e-07
5.62407e-07
5.82506e-07
6.00887e-07
6.37813e-07
6.60827e-07
6.89286e-07
7.51005e-07
7.96225e-07
8.30688e-07
9.35545e-07
4.99615e-07
5.04261e-07
5.09397e-07
5.15085e-07
5.21395e-07
5.28409e-07
5.3621e-07
5.44877e-07
5.54475e-07
5.65056e-07
5.76651e-07
5.8929e-07
6.03009e-07
6.17854e-07
6.33896e-07
6.51246e-07
6.7004e-07
6.90484e-07
7.128e-07
7.37249e-07
7.64098e-07
7.93625e-07
8.26196e-07
8.6217e-07
9.01463e-07
9.46949e-07
9.90118e-07
1.05675e-06
1.09532e-06
1.19034e-06
1.23726e-06
1.32852e-06
1.4428e-06
1.5261e-06
1.58972e-06
1.87142e-06
1.91173e-06
5.69386e-07
5.72448e-07
5.75146e-07
5.77043e-07
5.77321e-07
5.74756e-07
5.6894e-07
5.82464e-07
1.76137e-06
1.98036e-05
3.12986e-05
2.87964e-05
2.91042e-05
2.98873e-05
2.61116e-05
2.38088e-05
2.45656e-05
2.54259e-05
2.37697e-05
2.12431e-05
2.01599e-05
1.93176e-05
1.87018e-05
1.8401e-05
1.6807e-05
1.44978e-05
1.27763e-05
1.15439e-05
1.03145e-05
1.10215e-05
1.38223e-05
1.30562e-05
6.48089e-06
8.22095e-06
2.61649e-05
3.20149e-05
3.02927e-05
3.97337e-07
3.98611e-07
4.00238e-07
4.02576e-07
4.06574e-07
4.15057e-07
4.37079e-07
5.12201e-07
8.74404e-07
4.0359e-06
9.73289e-06
1.25287e-05
1.88382e-05
2.7175e-05
2.93878e-05
2.59453e-05
2.16475e-05
1.77118e-05
1.58832e-05
1.49448e-05
1.42956e-05
1.48357e-05
1.70852e-05
2.03247e-05
2.07496e-05
1.99855e-05
1.82547e-05
1.67149e-05
1.44016e-05
1.3515e-05
1.32371e-05
1.6077e-05
1.59477e-05
1.38406e-05
2.08498e-05
4.38978e-05
4.66393e-05
3.8884e-07
3.89535e-07
3.90415e-07
3.917e-07
3.93937e-07
3.98537e-07
4.08963e-07
4.34736e-07
5.06676e-07
7.54504e-07
1.32537e-06
1.78501e-06
2.1867e-06
2.66078e-06
3.05757e-06
3.09873e-06
3.02422e-06
2.91169e-06
2.88646e-06
2.88908e-06
2.88131e-06
2.93794e-06
3.19169e-06
3.76955e-06
4.51852e-06
5.22013e-06
5.73015e-06
6.26577e-06
6.83315e-06
7.37479e-06
7.68986e-06
7.79093e-06
8.53067e-06
8.51058e-06
9.20367e-06
1.12928e-05
1.37858e-05
3.90019e-07
3.90645e-07
3.91427e-07
3.92505e-07
3.94211e-07
3.97328e-07
4.03694e-07
4.1734e-07
4.46724e-07
5.0139e-07
5.67313e-07
6.1499e-07
6.62329e-07
7.35376e-07
8.11591e-07
8.47376e-07
8.40877e-07
8.25997e-07
8.25869e-07
8.3861e-07
8.6444e-07
9.03147e-07
9.63727e-07
1.04634e-06
1.14322e-06
1.25228e-06
1.38152e-06
1.56738e-06
1.87212e-06
2.4029e-06
2.92756e-06
3.65865e-06
3.87289e-06
4.10473e-06
4.44641e-06
4.44924e-06
4.39597e-06
3.90727e-07
3.91345e-07
3.92097e-07
3.93068e-07
3.94423e-07
3.96478e-07
3.99816e-07
4.05469e-07
4.15236e-07
4.31375e-07
4.52562e-07
4.72861e-07
4.89991e-07
5.07961e-07
5.26278e-07
5.41211e-07
5.4475e-07
5.43095e-07
5.37026e-07
5.37116e-07
5.42242e-07
5.5641e-07
5.76126e-07
5.98954e-07
6.26305e-07
6.58818e-07
6.98726e-07
7.57533e-07
8.45047e-07
9.9891e-07
1.16714e-06
1.50266e-06
1.84509e-06
2.22938e-06
2.39416e-06
2.50008e-06
2.54106e-06
3.90864e-07
3.91484e-07
3.92226e-07
3.93155e-07
3.94386e-07
3.96118e-07
3.98676e-07
4.02502e-07
4.07992e-07
4.14881e-07
4.21428e-07
4.27315e-07
4.33759e-07
4.41614e-07
4.5046e-07
4.58073e-07
4.6182e-07
4.62966e-07
4.64127e-07
4.66817e-07
4.72467e-07
4.82485e-07
4.95294e-07
5.10287e-07
5.27419e-07
5.47065e-07
5.70417e-07
6.02234e-07
6.46717e-07
7.14818e-07
7.84946e-07
9.17706e-07
1.03696e-06
1.29195e-06
1.45196e-06
1.64555e-06
1.82967e-06
3.90875e-07
3.91489e-07
3.92206e-07
3.93067e-07
3.94131e-07
3.95485e-07
3.97258e-07
3.99621e-07
4.02768e-07
4.06844e-07
4.1163e-07
4.16477e-07
4.21057e-07
4.25506e-07
4.29889e-07
4.34067e-07
4.37543e-07
4.40511e-07
4.4362e-07
4.4784e-07
4.53926e-07
4.62057e-07
4.72117e-07
4.8407e-07
4.98164e-07
5.14448e-07
5.33605e-07
5.56657e-07
5.87165e-07
6.26485e-07
6.67444e-07
7.43036e-07
7.96652e-07
9.14389e-07
1.02122e-06
1.11381e-06
1.30085e-06
3.90772e-07
3.91383e-07
3.92091e-07
3.92928e-07
3.93939e-07
3.95185e-07
3.96741e-07
3.98673e-07
4.00993e-07
4.03603e-07
4.06298e-07
4.09013e-07
4.11902e-07
4.15063e-07
4.18476e-07
4.22024e-07
4.25534e-07
4.2923e-07
4.33418e-07
4.38534e-07
4.44862e-07
4.52638e-07
4.6202e-07
4.73143e-07
4.85981e-07
5.00837e-07
5.18025e-07
5.37965e-07
5.6392e-07
5.9361e-07
6.27526e-07
6.81349e-07
7.1767e-07
7.92227e-07
8.81206e-07
9.3174e-07
1.0601e-06
3.90104e-07
3.90722e-07
3.91427e-07
3.92242e-07
3.93195e-07
3.94318e-07
3.95654e-07
3.97247e-07
3.99133e-07
4.01327e-07
4.03796e-07
4.06461e-07
4.09263e-07
4.12192e-07
4.1527e-07
4.18539e-07
4.22041e-07
4.25933e-07
4.30412e-07
4.35704e-07
4.42005e-07
4.49494e-07
4.58289e-07
4.68655e-07
4.80545e-07
4.94418e-07
5.10578e-07
5.27984e-07
5.52639e-07
5.742e-07
6.06738e-07
6.4825e-07
6.75823e-07
7.38978e-07
7.99268e-07
8.38787e-07
9.32572e-07
3.88927e-07
3.89603e-07
3.90365e-07
3.91231e-07
3.92223e-07
3.93368e-07
3.94695e-07
3.9623e-07
3.9798e-07
3.99931e-07
4.02058e-07
4.04349e-07
4.06832e-07
4.09546e-07
4.12527e-07
4.15812e-07
4.19445e-07
4.23534e-07
4.28211e-07
4.33619e-07
4.39875e-07
4.47171e-07
4.55558e-07
4.65475e-07
4.76432e-07
4.8976e-07
5.04228e-07
5.20449e-07
5.43635e-07
5.59886e-07
5.92763e-07
6.25449e-07
6.48197e-07
7.03934e-07
7.549e-07
7.85414e-07
8.6144e-07
3.97039e-07
3.98082e-07
3.99231e-07
4.00501e-07
4.01911e-07
4.03487e-07
4.05257e-07
4.07254e-07
4.09508e-07
4.12047e-07
4.14888e-07
4.18039e-07
4.2151e-07
4.25318e-07
4.29492e-07
4.34075e-07
4.39117e-07
4.44697e-07
4.50924e-07
4.57912e-07
4.65753e-07
4.7465e-07
4.84506e-07
4.96084e-07
5.08056e-07
5.236e-07
5.38022e-07
5.56533e-07
5.80301e-07
5.9559e-07
6.3229e-07
6.56848e-07
6.8355e-07
7.41622e-07
8.10548e-07
8.46536e-07
1.02242e-06
5.73844e-07
5.7878e-07
5.8425e-07
5.90325e-07
5.9708e-07
6.04606e-07
6.12993e-07
6.2232e-07
6.32657e-07
6.44048e-07
6.56521e-07
6.70088e-07
6.84782e-07
7.00644e-07
7.17741e-07
7.36189e-07
7.56134e-07
7.77804e-07
8.01446e-07
8.27349e-07
8.55806e-07
8.87135e-07
9.21722e-07
9.59973e-07
1.00193e-06
1.05001e-06
1.09754e-06
1.1662e-06
1.20957e-06
1.31116e-06
1.36046e-06
1.47645e-06
1.55235e-06
1.69083e-06
1.75434e-06
2.05524e-06
2.06834e-06
6.20959e-07
6.24129e-07
6.26996e-07
6.29202e-07
6.30136e-07
6.28935e-07
6.25425e-07
6.20142e-07
7.18065e-07
3.36725e-06
1.13214e-05
1.62782e-05
1.77535e-05
1.69181e-05
1.2737e-05
1.03754e-05
9.9731e-06
1.18432e-05
1.24454e-05
1.1946e-05
1.08804e-05
1.00326e-05
9.57164e-06
9.52824e-06
8.93105e-06
7.85154e-06
7.07142e-06
6.5924e-06
6.23838e-06
6.322e-06
6.80415e-06
5.95392e-06
3.75873e-06
3.78248e-06
1.48883e-05
2.55782e-05
2.1197e-05
4.0856e-07
4.09853e-07
4.11525e-07
4.13933e-07
4.17938e-07
4.25823e-07
4.43958e-07
4.93664e-07
6.53602e-07
1.27834e-06
2.89861e-06
4.89614e-06
7.80444e-06
1.18632e-05
1.35305e-05
1.17445e-05
9.80308e-06
8.98962e-06
8.03301e-06
6.8533e-06
6.28242e-06
6.15368e-06
6.50957e-06
7.36517e-06
7.56337e-06
7.26174e-06
6.49291e-06
5.90633e-06
5.20151e-06
5.04093e-06
4.67795e-06
4.86242e-06
5.30768e-06
5.13712e-06
7.74201e-06
1.80272e-05
2.42169e-05
3.83528e-07
3.8411e-07
3.8488e-07
3.86045e-07
3.88105e-07
3.92272e-07
4.01345e-07
4.2188e-07
4.7106e-07
5.73824e-07
7.46029e-07
9.81204e-07
1.3289e-06
1.72102e-06
1.98213e-06
2.00773e-06
1.95684e-06
1.88828e-06
1.87093e-06
1.84394e-06
1.82142e-06
1.82274e-06
1.86786e-06
1.98531e-06
2.15007e-06
2.30874e-06
2.42322e-06
2.55334e-06
2.83284e-06
3.06751e-06
3.41008e-06
3.42147e-06
3.56804e-06
3.61406e-06
3.84594e-06
4.67448e-06
7.109e-06
3.76362e-07
3.76817e-07
3.77418e-07
3.78302e-07
3.79773e-07
3.82522e-07
3.88091e-07
3.99627e-07
4.2326e-07
4.65296e-07
5.12333e-07
5.47866e-07
5.85184e-07
6.43528e-07
7.13615e-07
7.45211e-07
7.35982e-07
7.12527e-07
6.86901e-07
6.81864e-07
6.89767e-07
7.1435e-07
7.57454e-07
8.0716e-07
8.59689e-07
9.17417e-07
9.86871e-07
1.08019e-06
1.24941e-06
1.48091e-06
1.78152e-06
2.08714e-06
2.18524e-06
2.35429e-06
2.55583e-06
2.59839e-06
2.68248e-06
3.72925e-07
3.73341e-07
3.73877e-07
3.74614e-07
3.75711e-07
3.77459e-07
3.80379e-07
3.85335e-07
3.93651e-07
4.06726e-07
4.23141e-07
4.40118e-07
4.57183e-07
4.76155e-07
4.9532e-07
5.105e-07
5.13187e-07
5.10345e-07
5.01611e-07
4.99183e-07
5.0192e-07
5.11941e-07
5.29578e-07
5.49836e-07
5.73773e-07
6.01554e-07
6.35431e-07
6.80193e-07
7.50578e-07
8.48784e-07
9.7592e-07
1.1711e-06
1.37042e-06
1.58937e-06
1.72859e-06
1.80058e-06
1.85129e-06
3.7135e-07
3.71755e-07
3.72267e-07
3.72948e-07
3.7391e-07
3.75343e-07
3.77554e-07
3.80956e-07
3.85929e-07
3.92363e-07
3.98865e-07
4.04664e-07
4.10721e-07
4.18085e-07
4.26434e-07
4.33518e-07
4.36714e-07
4.37449e-07
4.37915e-07
4.3981e-07
4.44419e-07
4.53552e-07
4.65777e-07
4.80324e-07
4.97081e-07
5.16231e-07
5.39201e-07
5.68557e-07
6.10554e-07
6.66654e-07
7.31223e-07
8.33832e-07
9.20582e-07
1.09669e-06
1.22913e-06
1.3577e-06
1.49658e-06
3.71356e-07
3.71754e-07
3.7224e-07
3.72852e-07
3.73649e-07
3.74717e-07
3.7618e-07
3.78195e-07
3.80933e-07
3.84501e-07
3.88719e-07
3.93113e-07
3.9745e-07
4.01804e-07
4.06154e-07
4.10259e-07
4.13585e-07
4.16331e-07
4.19188e-07
4.23127e-07
4.28828e-07
4.36649e-07
4.46525e-07
4.58429e-07
4.72548e-07
4.88877e-07
5.08196e-07
5.31103e-07
5.61594e-07
5.99289e-07
6.41448e-07
7.11833e-07
7.62725e-07
8.69024e-07
9.64781e-07
1.04836e-06
1.20097e-06
3.72925e-07
3.73319e-07
3.73793e-07
3.74376e-07
3.75115e-07
3.7607e-07
3.77318e-07
3.78935e-07
3.80953e-07
3.83297e-07
3.85786e-07
3.88325e-07
3.91018e-07
3.93956e-07
3.97122e-07
4.00397e-07
4.03629e-07
4.07028e-07
4.10911e-07
4.15719e-07
4.21762e-07
4.29309e-07
4.38539e-07
4.49578e-07
4.62451e-07
4.77339e-07
4.94824e-07
5.14965e-07
5.4119e-07
5.71127e-07
6.06083e-07
6.58646e-07
6.97161e-07
7.71176e-07
8.55046e-07
9.07945e-07
1.02825e-06
3.76358e-07
3.76772e-07
3.77255e-07
3.77829e-07
3.7852e-07
3.79362e-07
3.80399e-07
3.81675e-07
3.83228e-07
3.85082e-07
3.87215e-07
3.89564e-07
3.9208e-07
3.9476e-07
3.97616e-07
4.00674e-07
4.03971e-07
4.0766e-07
4.11942e-07
4.17053e-07
4.23197e-07
4.30562e-07
4.39306e-07
4.49661e-07
4.61699e-07
4.75674e-07
4.92206e-07
5.10124e-07
5.34873e-07
5.58049e-07
5.90893e-07
6.32704e-07
6.6255e-07
7.26003e-07
7.874e-07
8.29042e-07
9.23366e-07
3.83458e-07
3.83966e-07
3.84542e-07
3.85205e-07
3.85975e-07
3.86881e-07
3.87953e-07
3.89219e-07
3.90696e-07
3.92381e-07
3.94261e-07
3.96331e-07
3.98615e-07
4.01151e-07
4.03972e-07
4.07113e-07
4.10619e-07
4.14592e-07
4.19167e-07
4.24491e-07
4.30702e-07
4.37995e-07
4.46481e-07
4.56499e-07
4.67853e-07
4.81252e-07
4.96631e-07
5.12806e-07
5.36828e-07
5.53838e-07
5.87027e-07
6.20432e-07
6.44492e-07
7.00443e-07
7.54337e-07
7.85765e-07
8.6719e-07
4.07939e-07
4.08902e-07
4.09959e-07
4.11128e-07
4.12429e-07
4.13886e-07
4.15531e-07
4.17401e-07
4.19533e-07
4.2196e-07
4.2471e-07
4.278e-07
4.31248e-07
4.35075e-07
4.3931e-07
4.43994e-07
4.4918e-07
4.54956e-07
4.61392e-07
4.68577e-07
4.76677e-07
4.85874e-07
4.96171e-07
5.08101e-07
5.20986e-07
5.36454e-07
5.53145e-07
5.70258e-07
5.97596e-07
6.12785e-07
6.50945e-07
6.75217e-07
7.08232e-07
7.67648e-07
8.49131e-07
8.91195e-07
1.11367e-06
6.2537e-07
6.30426e-07
6.36041e-07
6.42288e-07
6.49249e-07
6.57019e-07
6.65689e-07
6.75342e-07
6.86044e-07
6.97839e-07
7.10747e-07
7.24773e-07
7.39938e-07
7.56284e-07
7.73873e-07
7.92822e-07
8.13289e-07
8.35538e-07
8.59786e-07
8.86301e-07
9.1547e-07
9.47627e-07
9.83175e-07
1.02251e-06
1.06593e-06
1.11489e-06
1.16618e-06
1.23233e-06
1.28415e-06
1.38403e-06
1.43644e-06
1.5632e-06
1.63193e-06
1.79806e-06
1.86453e-06
2.15156e-06
2.16823e-06
6.57017e-07
6.60255e-07
6.63269e-07
6.65779e-07
6.67359e-07
6.67459e-07
6.66038e-07
6.64522e-07
6.70288e-07
9.44603e-07
2.35601e-06
4.43221e-06
8.35121e-06
1.00291e-05
7.4064e-06
4.51467e-06
3.57881e-06
3.26426e-06
3.35014e-06
3.93219e-06
4.53839e-06
4.79837e-06
5.04215e-06
5.31158e-06
5.12424e-06
4.66939e-06
4.34174e-06
4.1278e-06
4.01846e-06
3.8384e-06
3.97034e-06
3.36838e-06
2.31499e-06
2.51823e-06
1.03724e-05
2.13233e-05
1.42043e-05
4.17472e-07
4.18794e-07
4.20498e-07
4.22911e-07
4.2677e-07
4.33818e-07
4.4842e-07
4.8207e-07
5.68734e-07
7.66426e-07
1.09844e-06
1.57987e-06
2.72737e-06
4.10633e-06
4.5192e-06
4.32274e-06
3.83997e-06
3.35614e-06
2.97789e-06
2.79697e-06
2.73406e-06
2.60666e-06
2.65445e-06
2.93268e-06
2.98403e-06
2.87801e-06
2.63132e-06
2.47004e-06
2.28195e-06
2.29444e-06
2.1636e-06
2.11689e-06
2.43494e-06
2.61882e-06
4.62348e-06
1.08057e-05
1.53614e-05
3.81497e-07
3.82054e-07
3.82798e-07
3.8392e-07
3.85856e-07
3.89604e-07
3.97342e-07
4.13541e-07
4.47502e-07
5.09636e-07
5.79188e-07
6.57811e-07
8.10232e-07
1.08178e-06
1.31572e-06
1.36854e-06
1.3204e-06
1.21746e-06
1.11929e-06
1.08222e-06
1.08293e-06
1.10533e-06
1.15837e-06
1.22205e-06
1.27949e-06
1.33815e-06
1.39119e-06
1.45514e-06
1.5973e-06
1.6989e-06
1.91114e-06
1.89519e-06
2.03909e-06
2.08356e-06
2.33131e-06
3.11626e-06
4.71875e-06
3.68524e-07
3.68921e-07
3.69459e-07
3.70267e-07
3.71614e-07
3.74083e-07
3.78897e-07
3.88402e-07
4.06703e-07
4.37898e-07
4.73224e-07
5.0085e-07
5.29023e-07
5.69725e-07
6.18975e-07
6.4586e-07
6.39503e-07
6.18262e-07
5.8675e-07
5.71286e-07
5.72553e-07
5.84845e-07
6.15277e-07
6.52716e-07
6.90957e-07
7.31735e-07
7.79698e-07
8.4007e-07
9.46478e-07
1.06383e-06
1.25792e-06
1.38874e-06
1.47962e-06
1.62245e-06
1.80965e-06
1.9109e-06
2.01066e-06
3.62068e-07
3.62409e-07
3.62864e-07
3.6351e-07
3.64495e-07
3.66081e-07
3.68721e-07
3.73117e-07
3.80213e-07
3.90827e-07
4.03722e-07
4.17267e-07
4.32053e-07
4.50005e-07
4.68499e-07
4.82317e-07
4.84135e-07
4.80881e-07
4.71956e-07
4.68633e-07
4.70493e-07
4.78059e-07
4.93512e-07
5.12031e-07
5.33933e-07
5.58827e-07
5.88324e-07
6.2499e-07
6.81252e-07
7.49316e-07
8.4746e-07
9.69485e-07
1.09819e-06
1.24311e-06
1.37818e-06
1.46718e-06
1.53085e-06
3.59206e-07
3.59528e-07
3.5995e-07
3.60531e-07
3.61377e-07
3.62663e-07
3.64665e-07
3.67746e-07
3.72243e-07
3.78122e-07
3.84338e-07
3.9e-07
3.95708e-07
4.02384e-07
4.0988e-07
4.16319e-07
4.19397e-07
4.20322e-07
4.20871e-07
4.22751e-07
4.27217e-07
4.35834e-07
4.47677e-07
4.62042e-07
4.78739e-07
4.97782e-07
5.20396e-07
5.48273e-07
5.87192e-07
6.3558e-07
6.95007e-07
7.77453e-07
8.4964e-07
9.81864e-07
1.10154e-06
1.20809e-06
1.3241e-06
3.59208e-07
3.59521e-07
3.59917e-07
3.60433e-07
3.61124e-07
3.62074e-07
3.63401e-07
3.65247e-07