/*--------------------------------*- C++ -*----------------------------------*\
| =========                 |                                                 |
| \\      /  F ield         | OpenFOAM: The Open Source CFD Toolbox           |
|  \\    /   O peration     | Version:  2.3.1                                 |
|   \\  /    A nd           | Web:      www.OpenFOAM.org                      |
|    \\/     M anipulation  |                                                 |
\*---------------------------------------------------------------------------*/
FoamFile
{
    version     2.0;
    format      ascii;
    class       volScalarField;
    location    "20";
    object      epsilon;
}
// * * * * * * * * * * * * * * * * * * * * * * * * * * * * * * * * * * * * * //

dimensions      [0 2 -3 0 0 0 0];

internalField   nonuniform List<scalar> 
37530
(
4.33522e-07
4.38208e-07
4.42101e-07
4.44278e-07
4.42929e-07
4.376e-07
4.98522e-07
3.08222e-06
4.34341e-05
8.44035e-05
8.47252e-05
7.7583e-05
7.85047e-05
8.07386e-05
7.74989e-05
7.20248e-05
7.08646e-05
6.93695e-05
6.11445e-05
5.79592e-05
5.74359e-05
5.61989e-05
5.103e-05
4.89789e-05
4.71566e-05
4.31081e-05
4.17786e-05
4.13412e-05
4.13093e-05
4.26969e-05
4.66863e-05
4.99549e-05
4.97992e-05
5.21969e-05
5.25189e-05
4.80691e-05
3.88916e-05
7.60501e-07
7.66371e-07
7.70575e-07
7.71677e-07
7.67407e-07
7.55101e-07
7.36498e-07
8.52074e-07
4.59799e-06
1.88534e-05
2.55003e-05
3.17038e-05
3.73028e-05
3.93264e-05
3.9866e-05
4.02443e-05
4.02917e-05
4.25346e-05
4.98315e-05
5.34494e-05
5.00421e-05
4.58628e-05
5.1263e-05
6.02406e-05
6.19898e-05
6.00947e-05
5.62637e-05
5.42503e-05
5.34397e-05
5.2202e-05
5.03054e-05
6.93009e-05
7.93771e-05
8.37575e-05
8.50649e-05
7.61895e-05
6.49014e-05
9.42002e-07
9.49267e-07
9.55286e-07
9.59319e-07
9.60076e-07
9.56446e-07
9.49394e-07
9.39802e-07
1.08241e-06
2.05334e-06
3.27656e-06
4.22477e-06
5.47227e-06
6.39203e-06
5.76814e-06
4.58609e-06
3.67834e-06
4.01057e-06
6.80186e-06
1.07996e-05
1.13371e-05
1.08508e-05
1.34684e-05
1.85638e-05
2.32616e-05
2.67522e-05
2.81629e-05
2.99785e-05
3.33724e-05
3.66354e-05
4.04035e-05
5.08976e-05
6.51671e-05
7.17121e-05
6.67003e-05
5.69167e-05
5.24062e-05
1.04635e-06
1.05529e-06
1.06382e-06
1.07178e-06
1.07939e-06
1.08733e-06
1.09786e-06
1.11614e-06
1.14523e-06
1.24519e-06
1.40005e-06
1.52975e-06
1.65705e-06
1.78451e-06
1.82375e-06
1.83426e-06
1.8364e-06
1.84994e-06
1.93184e-06
2.2071e-06
2.47172e-06
2.6361e-06
2.9916e-06
3.70183e-06
4.40356e-06
4.84377e-06
5.02541e-06
5.42086e-06
6.7505e-06
1.09732e-05
2.05368e-05
2.99758e-05
3.76688e-05
4.54312e-05
4.32471e-05
3.81726e-05
3.42167e-05
1.10108e-06
1.11136e-06
1.12171e-06
1.13193e-06
1.14216e-06
1.15277e-06
1.16459e-06
1.17935e-06
1.1998e-06
1.22988e-06
1.27376e-06
1.32711e-06
1.38749e-06
1.45602e-06
1.52829e-06
1.59914e-06
1.65542e-06
1.69466e-06
1.72659e-06
1.77357e-06
1.84393e-06
1.93056e-06
2.0295e-06
2.15932e-06
2.3208e-06
2.48966e-06
2.66149e-06
2.85159e-06
3.0806e-06
3.49317e-06
4.6196e-06
7.85627e-06
1.31445e-05
2.10544e-05
2.1236e-05
1.96077e-05
2.00782e-05
1.12489e-06
1.13642e-06
1.14866e-06
1.16175e-06
1.17609e-06
1.19241e-06
1.21219e-06
1.23752e-06
1.27099e-06
1.31456e-06
1.36902e-06
1.43033e-06
1.49227e-06
1.55537e-06
1.62037e-06
1.6864e-06
1.74769e-06
1.80646e-06
1.86593e-06
1.93361e-06
2.01555e-06
2.10511e-06
2.20354e-06
2.31434e-06
2.44377e-06
2.59034e-06
2.74548e-06
2.91244e-06
3.08958e-06
3.31116e-06
3.53736e-06
3.99699e-06
4.8974e-06
7.12341e-06
9.8333e-06
1.03368e-05
1.17967e-05
1.12693e-06
1.13932e-06
1.15268e-06
1.16713e-06
1.18289e-06
1.20032e-06
1.21997e-06
1.24283e-06
1.26987e-06
1.30198e-06
1.33951e-06
1.38223e-06
1.42982e-06
1.48234e-06
1.53975e-06
1.60036e-06
1.66145e-06
1.72202e-06
1.78507e-06
1.85406e-06
1.93357e-06
2.02405e-06
2.12579e-06
2.23944e-06
2.36657e-06
2.50793e-06
2.66329e-06
2.83357e-06
3.02648e-06
3.21682e-06
3.47602e-06
3.65075e-06
4.01786e-06
4.487e-06
5.09121e-06
6.30202e-06
6.70737e-06
1.10766e-06
1.12077e-06
1.13513e-06
1.15099e-06
1.16874e-06
1.18888e-06
1.21216e-06
1.23947e-06
1.27179e-06
1.30995e-06
1.35403e-06
1.40303e-06
1.45556e-06
1.51105e-06
1.56913e-06
1.6296e-06
1.6923e-06
1.75799e-06
1.82853e-06
1.90544e-06
1.99083e-06
2.08501e-06
2.18953e-06
2.30576e-06
2.43506e-06
2.57891e-06
2.73327e-06
2.91158e-06
3.08529e-06
3.32126e-06
3.51347e-06
3.82335e-06
4.05078e-06
4.52857e-06
4.83624e-06
5.43022e-06
6.30046e-06
1.05689e-06
1.07029e-06
1.08509e-06
1.1015e-06
1.11979e-06
1.14029e-06
1.16342e-06
1.18963e-06
1.21934e-06
1.25279e-06
1.29007e-06
1.33115e-06
1.37599e-06
1.42454e-06
1.47663e-06
1.53215e-06
1.59104e-06
1.65382e-06
1.72151e-06
1.79555e-06
1.87736e-06
1.96812e-06
2.06916e-06
2.18115e-06
2.30598e-06
2.44331e-06
2.59673e-06
2.76352e-06
2.95663e-06
3.14703e-06
3.42356e-06
3.59936e-06
4.00225e-06
4.24026e-06
4.79767e-06
5.10012e-06
5.87323e-06
9.55538e-07
9.68766e-07
9.83442e-07
9.99797e-07
1.01813e-06
1.03881e-06
1.06227e-06
1.08897e-06
1.11931e-06
1.15356e-06
1.19178e-06
1.23379e-06
1.27927e-06
1.32799e-06
1.37987e-06
1.43502e-06
1.49372e-06
1.55663e-06
1.6247e-06
1.69902e-06
1.78066e-06
1.87045e-06
1.96984e-06
2.07942e-06
2.20122e-06
2.33522e-06
2.48303e-06
2.64562e-06
2.83284e-06
3.00642e-06
3.28845e-06
3.44889e-06
3.80848e-06
4.13941e-06
4.37845e-06
5.04858e-06
5.41702e-06
7.74885e-07
7.87224e-07
8.0093e-07
8.16211e-07
8.33298e-07
8.52456e-07
8.73973e-07
8.98125e-07
9.25156e-07
9.55269e-07
9.88558e-07
1.02504e-06
1.06473e-06
1.10762e-06
1.15378e-06
1.20336e-06
1.25663e-06
1.3141e-06
1.37647e-06
1.4446e-06
1.51942e-06
1.60168e-06
1.69296e-06
1.79272e-06
1.90604e-06
2.02314e-06
2.17481e-06
2.28944e-06
2.52004e-06
2.63085e-06
2.92549e-06
3.04623e-06
3.31822e-06
3.73252e-06
3.81376e-06
4.31967e-06
4.86055e-06
4.41749e-07
4.49903e-07
4.58928e-07
4.6896e-07
4.80152e-07
4.92679e-07
5.06733e-07
5.22506e-07
5.40172e-07
5.59871e-07
5.81697e-07
6.05702e-07
6.31922e-07
6.60405e-07
6.91227e-07
7.2454e-07
7.60563e-07
7.99646e-07
8.4223e-07
8.8882e-07
9.40047e-07
9.96251e-07
1.05892e-06
1.12632e-06
1.20603e-06
1.28042e-06
1.39507e-06
1.4607e-06
1.63725e-06
1.6844e-06
1.96932e-06
1.96915e-06
2.25261e-06
2.4571e-06
2.49534e-06
2.77883e-06
3.34707e-06
3.89081e-07
3.91664e-07
3.93808e-07
3.94932e-07
3.93774e-07
3.87981e-07
3.9002e-07
1.26099e-06
2.01629e-05
5.20496e-05
5.60006e-05
5.27298e-05
5.20702e-05
5.33386e-05
5.34943e-05
5.13517e-05
4.9346e-05
4.73834e-05
4.44497e-05
4.324e-05
4.26962e-05
4.14167e-05
3.84783e-05
3.58317e-05
3.25892e-05
2.91789e-05
2.83024e-05
2.82509e-05
3.03319e-05
3.49238e-05
3.72938e-05
3.75643e-05
2.82758e-05
3.80358e-05
4.1877e-05
4.19153e-05
3.79468e-05
4.1226e-07
4.14452e-07
4.16997e-07
4.20209e-07
4.24897e-07
4.33926e-07
4.60203e-07
6.14724e-07
3.61465e-06
2.00001e-05
3.89447e-05
4.96013e-05
5.62134e-05
6.20231e-05
6.18549e-05
5.59356e-05
5.30746e-05
5.37361e-05
5.72189e-05
5.80617e-05
5.55256e-05
5.73298e-05
6.57449e-05
7.08353e-05
6.70515e-05
6.02093e-05
5.15844e-05
4.50356e-05
4.15955e-05
4.31573e-05
5.32464e-05
9.18747e-05
8.56997e-05
6.5754e-05
7.18927e-05
7.35603e-05
6.56058e-05
4.7302e-07
4.75325e-07
4.77869e-07
4.81105e-07
4.85819e-07
4.93858e-07
5.09747e-07
5.485e-07
7.38195e-07
2.12259e-06
4.20085e-06
5.27196e-06
6.36054e-06
7.17922e-06
6.29489e-06
5.44739e-06
4.92013e-06
4.93386e-06
5.77182e-06
7.41988e-06
8.01118e-06
8.73865e-06
1.10114e-05
1.57179e-05
2.14238e-05
2.66409e-05
2.84123e-05
2.76573e-05
2.73915e-05
2.80462e-05
3.15184e-05
4.16754e-05
5.54393e-05
5.16924e-05
4.89131e-05
4.09131e-05
3.62701e-05
5.08088e-07
5.10641e-07
5.134e-07
5.16552e-07
5.20664e-07
5.26667e-07
5.36663e-07
5.55182e-07
5.92398e-07
6.76505e-07
7.94353e-07
8.60886e-07
9.26957e-07
9.99019e-07
1.03739e-06
1.03702e-06
1.03599e-06
1.05813e-06
1.12471e-06
1.27285e-06
1.40428e-06
1.51431e-06
1.73338e-06
2.18668e-06
2.68757e-06
3.18867e-06
3.89593e-06
4.67313e-06
5.90671e-06
8.6819e-06
1.47469e-05
2.1888e-05
2.90055e-05
2.97725e-05
2.74077e-05
2.27388e-05
1.85747e-05
5.25312e-07
5.28041e-07
5.31011e-07
5.34294e-07
5.38263e-07
5.43491e-07
5.50782e-07
5.61515e-07
5.78129e-07
6.04294e-07
6.38017e-07
6.65069e-07
6.85319e-07
7.02752e-07
7.14418e-07
7.21736e-07
7.26462e-07
7.30247e-07
7.34241e-07
7.43983e-07
7.63702e-07
7.89105e-07
8.21483e-07
8.6784e-07
9.24449e-07
9.81273e-07
1.04802e-06
1.1617e-06
1.36923e-06
1.78385e-06
2.53438e-06
4.29159e-06
7.51439e-06
1.2242e-05
1.38834e-05
1.35142e-05
1.27229e-05
5.32179e-07
5.35021e-07
5.38125e-07
5.41551e-07
5.45406e-07
5.49886e-07
5.55433e-07
5.62457e-07
5.71039e-07
5.80316e-07
5.88854e-07
5.97977e-07
6.0898e-07
6.21842e-07
6.36304e-07
6.5118e-07
6.64238e-07
6.75571e-07
6.86848e-07
7.00787e-07
7.19082e-07
7.40894e-07
7.65588e-07
7.92742e-07
8.22957e-07
8.57367e-07
8.95124e-07
9.50918e-07
1.01599e-06
1.13671e-06
1.27502e-06
1.62359e-06
2.13053e-06
3.34284e-06
4.6019e-06
5.47611e-06
6.86529e-06
5.3231e-07
5.35202e-07
5.38364e-07
5.41842e-07
5.45704e-07
5.5005e-07
5.55032e-07
5.61033e-07
5.68314e-07
5.76993e-07
5.86703e-07
5.96501e-07
6.05871e-07
6.15061e-07
6.25259e-07
6.36043e-07
6.46931e-07
6.58069e-07
6.69747e-07
6.83006e-07
6.98896e-07
7.17403e-07
7.38455e-07
7.62052e-07
7.88546e-07
8.18887e-07
8.51757e-07
8.9326e-07
9.36382e-07
1.00064e-06
1.05373e-06
1.15963e-06
1.25934e-06
1.45884e-06
1.84877e-06
2.0228e-06
2.7159e-06
5.25873e-07
5.28807e-07
5.32028e-07
5.3558e-07
5.39518e-07
5.43919e-07
5.48866e-07
5.54425e-07
5.60612e-07
5.67342e-07
5.74457e-07
5.82046e-07
5.90374e-07
5.99559e-07
6.09684e-07
6.20697e-07
6.32366e-07
6.44857e-07
6.58393e-07
6.73357e-07
6.90111e-07
7.08947e-07
7.30066e-07
7.53755e-07
7.79761e-07
8.09569e-07
8.41179e-07
8.7968e-07
9.21723e-07
9.71606e-07
1.02949e-06
1.09855e-06
1.16599e-06
1.27584e-06
1.40428e-06
1.50487e-06
1.7904e-06
5.09043e-07
5.11946e-07
5.15141e-07
5.18667e-07
5.22571e-07
5.26912e-07
5.31757e-07
5.37171e-07
5.43204e-07
5.49885e-07
5.57216e-07
5.65131e-07
5.73582e-07
5.82568e-07
5.92115e-07
6.02294e-07
6.13146e-07
6.24884e-07
6.37711e-07
6.519e-07
6.6768e-07
6.85311e-07
7.04877e-07
7.26957e-07
7.50931e-07
7.78966e-07
8.08319e-07
8.43023e-07
8.83367e-07
9.22456e-07
9.76228e-07
1.04055e-06
1.08357e-06
1.19585e-06
1.26009e-06
1.35761e-06
1.47905e-06
4.74302e-07
4.77086e-07
4.80154e-07
4.83544e-07
4.87295e-07
4.91453e-07
4.96067e-07
5.01174e-07
5.06791e-07
5.12904e-07
5.19494e-07
5.26566e-07
5.34177e-07
5.42391e-07
5.51262e-07
5.60857e-07
5.71235e-07
5.82545e-07
5.94931e-07
6.08573e-07
6.23581e-07
6.40244e-07
6.58531e-07
6.79357e-07
7.01061e-07
7.28231e-07
7.52661e-07
7.88039e-07
8.21226e-07
8.55631e-07
9.12957e-07
9.52529e-07
1.01244e-06
1.0905e-06
1.15218e-06
1.24308e-06
1.32961e-06
4.13401e-07
4.1598e-07
4.18815e-07
4.21933e-07
4.25367e-07
4.29155e-07
4.33341e-07
4.37967e-07
4.43076e-07
4.4871e-07
4.54876e-07
4.6158e-07
4.68827e-07
4.76636e-07
4.85036e-07
4.9408e-07
5.03829e-07
5.14394e-07
5.25907e-07
5.38519e-07
5.52307e-07
5.67548e-07
5.83985e-07
6.03019e-07
6.21582e-07
6.4739e-07
6.66523e-07
7.00905e-07
7.2563e-07
7.64417e-07
8.03706e-07
8.44645e-07
8.97059e-07
9.71419e-07
1.05814e-06
1.09698e-06
1.18235e-06
3.92765e-07
3.96958e-07
4.01578e-07
4.06679e-07
4.12324e-07
4.18583e-07
4.25534e-07
4.33249e-07
4.41797e-07
4.51233e-07
4.61605e-07
4.72954e-07
4.85321e-07
4.98759e-07
5.13335e-07
5.29148e-07
5.46318e-07
5.65013e-07
5.85426e-07
6.07776e-07
6.32301e-07
6.59219e-07
6.88932e-07
7.21494e-07
7.5763e-07
7.97498e-07
8.40112e-07
8.92679e-07
9.38574e-07
1.00654e-06
1.07916e-06
1.126e-06
1.24085e-06
1.34762e-06
1.38169e-06
1.60528e-06
1.68731e-06
4.95304e-07
4.98181e-07
5.00669e-07
5.02281e-07
5.02012e-07
4.98235e-07
4.9223e-07
7.0656e-07
9.8784e-06
4.34951e-05
4.73056e-05
4.42215e-05
4.52719e-05
4.62044e-05
4.29805e-05
4.13228e-05
4.12619e-05
3.98361e-05
3.62446e-05
3.49189e-05
3.44097e-05
3.3539e-05
3.24154e-05
3.10982e-05
2.82977e-05
2.40478e-05
2.04096e-05
1.91081e-05
2.06551e-05
2.5739e-05
2.83117e-05
2.79707e-05
1.20261e-05
2.43761e-05
3.82879e-05
4.03898e-05
3.88496e-05
3.88669e-07
3.90067e-07
3.91793e-07
3.94206e-07
3.98289e-07
4.07265e-07
4.33151e-07
5.46955e-07
1.78451e-06
1.24053e-05
2.33909e-05
2.91928e-05
3.83952e-05
4.75439e-05
4.97009e-05
4.47562e-05
3.77979e-05
3.37088e-05
3.30148e-05
3.2655e-05
3.22773e-05
3.41932e-05
4.07374e-05
4.70578e-05
4.73648e-05
4.54672e-05
4.20777e-05
3.80792e-05
3.27812e-05
3.09698e-05
3.2026e-05
4.49133e-05
4.45922e-05
3.82821e-05
5.60779e-05
7.17731e-05
6.60375e-05
4.05705e-07
4.06755e-07
4.07993e-07
4.09649e-07
4.12317e-07
4.1758e-07
4.29716e-07
4.6186e-07
5.79198e-07
1.34705e-06
2.73815e-06
3.29421e-06
3.76374e-06
4.42546e-06
4.70445e-06
4.61345e-06
4.39843e-06
4.25259e-06
4.38935e-06
4.75475e-06
4.93247e-06
5.27219e-06
6.24231e-06
8.28255e-06
1.10226e-05
1.3865e-05
1.58654e-05
1.69307e-05
1.71567e-05
1.71661e-05
1.72702e-05
1.8945e-05
2.40216e-05
2.3324e-05
2.69572e-05
2.69941e-05
2.63426e-05
4.19365e-07
4.20462e-07
4.21733e-07
4.23318e-07
4.25578e-07
4.29363e-07
4.36655e-07
4.52344e-07
4.86846e-07
5.58281e-07
6.56202e-07
7.16346e-07
7.75725e-07
8.47388e-07
9.12361e-07
9.39987e-07
9.39394e-07
9.49203e-07
9.79915e-07
1.04135e-06
1.09865e-06
1.1579e-06
1.25997e-06
1.43153e-06
1.65102e-06
1.90829e-06
2.23746e-06
2.68818e-06
3.37644e-06
4.50289e-06
6.02793e-06
8.58192e-06
1.01187e-05
1.06666e-05
1.08004e-05
1.01955e-05
8.87279e-06
4.26081e-07
4.27222e-07
4.28529e-07
4.30086e-07
4.32073e-07
4.34847e-07
4.39054e-07
4.45892e-07
4.57637e-07
4.77647e-07
5.04632e-07
5.27084e-07
5.43856e-07
5.60806e-07
5.76433e-07
5.88105e-07
5.91275e-07
5.90777e-07
5.89129e-07
5.92745e-07
6.03454e-07
6.22372e-07
6.44769e-07
6.73532e-07
7.08293e-07
7.48161e-07
7.97972e-07
8.79973e-07
9.96772e-07
1.24189e-06
1.532e-06
2.15816e-06
3.02561e-06
4.25267e-06
4.58482e-06
4.77908e-06
4.74053e-06
4.28641e-07
4.29809e-07
4.31135e-07
4.32684e-07
4.34567e-07
4.36982e-07
4.40258e-07
4.44838e-07
4.51089e-07
4.58452e-07
4.65016e-07
4.71268e-07
4.78417e-07
4.86924e-07
4.96497e-07
5.05268e-07
5.1085e-07
5.14046e-07
5.17333e-07
5.22498e-07
5.31156e-07
5.43476e-07
5.58343e-07
5.75374e-07
5.94584e-07
6.16563e-07
6.41784e-07
6.79257e-07
7.27666e-07
8.14814e-07
8.99926e-07
1.08969e-06
1.28715e-06
1.74443e-06
2.05055e-06
2.42755e-06
2.80194e-06
4.28666e-07
4.29833e-07
4.31145e-07
4.32641e-07
4.34383e-07
4.3646e-07
4.3901e-07
4.42218e-07
4.46272e-07
4.51382e-07
4.57289e-07
4.6316e-07
4.68612e-07
4.73829e-07
4.79009e-07
4.84108e-07
4.88719e-07
4.93063e-07
4.97649e-07
5.03441e-07
5.11268e-07
5.21102e-07
5.3281e-07
5.46352e-07
5.62056e-07
5.80196e-07
6.00928e-07
6.26616e-07
6.5813e-07
7.01991e-07
7.42777e-07
8.24867e-07
8.87728e-07
1.01993e-06
1.17777e-06
1.288e-06
1.55929e-06
4.26219e-07
4.27389e-07
4.28701e-07
4.30188e-07
4.31894e-07
4.33879e-07
4.36209e-07
4.38943e-07
4.42085e-07
4.455e-07
4.48965e-07
4.52474e-07
4.56242e-07
4.60381e-07
4.64889e-07
4.69685e-07
4.74583e-07
4.7981e-07
4.85628e-07
4.92444e-07
5.00523e-07
5.10095e-07
5.21307e-07
5.34318e-07
5.48982e-07
5.6596e-07
5.8485e-07
6.07338e-07
6.35141e-07
6.67387e-07
7.0387e-07
7.59985e-07
7.98626e-07
8.78122e-07
9.75523e-07
1.03121e-06
1.18492e-06
4.19623e-07
4.20777e-07
4.22067e-07
4.23515e-07
4.25152e-07
4.27015e-07
4.29147e-07
4.31587e-07
4.34367e-07
4.37505e-07
4.40963e-07
4.4465e-07
4.48498e-07
4.525e-07
4.56682e-07
4.61105e-07
4.65819e-07
4.71007e-07
4.76859e-07
4.83596e-07
4.91392e-07
5.0043e-07
5.10783e-07
5.22803e-07
5.36227e-07
5.52018e-07
5.69643e-07
5.89091e-07
6.15817e-07
6.38274e-07
6.73587e-07
7.17482e-07
7.44999e-07
8.14585e-07
8.72217e-07
9.15908e-07
1.01388e-06
4.06068e-07
4.07213e-07
4.08486e-07
4.09907e-07
4.11503e-07
4.13299e-07
4.15325e-07
4.17602e-07
4.2013e-07
4.22887e-07
4.25836e-07
4.28965e-07
4.32312e-07
4.35923e-07
4.3984e-07
4.44109e-07
4.48777e-07
4.53961e-07
4.59789e-07
4.66403e-07
4.73895e-07
4.82475e-07
4.92126e-07
5.03454e-07
5.15483e-07
5.3069e-07
5.45475e-07
5.64459e-07
5.87745e-07
6.05391e-07
6.41684e-07
6.7317e-07
6.99328e-07
7.59519e-07
8.05648e-07
8.41797e-07
9.14815e-07
3.88812e-07
3.90146e-07
3.91617e-07
3.93241e-07
3.9504e-07
3.97037e-07
3.99262e-07
4.01744e-07
4.0451e-07
4.07578e-07
4.10957e-07
4.14646e-07
4.18648e-07
4.22978e-07
4.27664e-07
4.32751e-07
4.3829e-07
4.44368e-07
4.51082e-07
4.58567e-07
4.66895e-07
4.76292e-07
4.86553e-07
4.98735e-07
5.10659e-07
5.27587e-07
5.40383e-07
5.62372e-07
5.8248e-07
6.00853e-07
6.3778e-07
6.60809e-07
6.89256e-07
7.50956e-07
7.96241e-07
8.30703e-07
9.35525e-07
4.9956e-07
5.04206e-07
5.09342e-07
5.15031e-07
5.21342e-07
5.28356e-07
5.36158e-07
5.44825e-07
5.54423e-07
5.65004e-07
5.766e-07
5.89238e-07
6.02956e-07
6.17801e-07
6.33842e-07
6.51191e-07
6.69985e-07
6.90428e-07
7.12744e-07
7.37193e-07
7.64042e-07
7.93569e-07
8.26139e-07
8.62114e-07
9.01405e-07
9.46895e-07
9.90057e-07
1.0567e-06
1.09526e-06
1.19028e-06
1.23721e-06
1.32844e-06
1.44274e-06
1.52612e-06
1.58964e-06
1.87132e-06
1.91173e-06
5.69323e-07
5.72382e-07
5.75077e-07
5.7697e-07
5.77239e-07
5.74662e-07
5.68839e-07
5.82719e-07
1.77721e-06
1.98975e-05
3.12894e-05
2.87817e-05
2.91007e-05
2.98801e-05
2.60931e-05
2.37977e-05
2.45582e-05
2.54146e-05
2.37561e-05
2.12328e-05
2.01501e-05
1.93076e-05
1.8693e-05
1.83925e-05
1.67987e-05
1.44913e-05
1.27713e-05
1.15396e-05
1.03107e-05
1.1017e-05
1.38157e-05
1.30514e-05
6.4811e-06
8.21399e-06
2.6142e-05
3.19955e-05
3.02798e-05
3.97295e-07
3.9857e-07
4.00197e-07
4.02539e-07
4.06545e-07
4.15055e-07
4.3716e-07
5.12663e-07
8.77611e-07
4.06063e-06
9.74571e-06
1.2538e-05
1.88565e-05
2.71816e-05
2.93791e-05
2.59392e-05
2.16427e-05
1.77057e-05
1.58781e-05
1.49397e-05
1.429e-05
1.48298e-05
1.70778e-05
2.03133e-05
2.07365e-05
1.99735e-05
1.82439e-05
1.67045e-05
1.43924e-05
1.35077e-05
1.32317e-05
1.60703e-05
1.59398e-05
1.38293e-05
2.08297e-05
4.38662e-05
4.66227e-05
3.88804e-07
3.89499e-07
3.9038e-07
3.91666e-07
3.93909e-07
3.98521e-07
4.08979e-07
4.34841e-07
5.07071e-07
7.56194e-07
1.32753e-06
1.7859e-06
2.18717e-06
2.66105e-06
3.05753e-06
3.09865e-06
3.02426e-06
2.91158e-06
2.88622e-06
2.88878e-06
2.88094e-06
2.93753e-06
3.19127e-06
3.76907e-06
4.51763e-06
5.21878e-06
5.72845e-06
6.26362e-06
6.83049e-06
7.37162e-06
7.68664e-06
7.78794e-06
8.52814e-06
8.50744e-06
9.19894e-06
1.12892e-05
1.37838e-05
3.89986e-07
3.90613e-07
3.91396e-07
3.92475e-07
3.94184e-07
3.97308e-07
4.0369e-07
4.17373e-07
4.46833e-07
5.01587e-07
5.67475e-07
6.15044e-07
6.62377e-07
7.35406e-07
8.11565e-07
8.47313e-07
8.40843e-07
8.25996e-07
8.25889e-07
8.38619e-07
8.64427e-07
9.03121e-07
9.63708e-07
1.04633e-06
1.14318e-06
1.25219e-06
1.38139e-06
1.56717e-06
1.87182e-06
2.40249e-06
2.92704e-06
3.65785e-06
3.87214e-06
4.1038e-06
4.44544e-06
4.44858e-06
4.39598e-06
3.90696e-07
3.91315e-07
3.92067e-07
3.93039e-07
3.94396e-07
3.96454e-07
3.99798e-07
4.0546e-07
4.15245e-07
4.31406e-07
4.52598e-07
4.72868e-07
4.89977e-07
5.07934e-07
5.26243e-07
5.41178e-07
5.44724e-07
5.43074e-07
5.37011e-07
5.37099e-07
5.42221e-07
5.56383e-07
5.76103e-07
5.98937e-07
6.26285e-07
6.5879e-07
6.98686e-07
7.57471e-07
8.44959e-07
9.98809e-07
1.16703e-06
1.50252e-06
1.84492e-06
2.22908e-06
2.3939e-06
2.49985e-06
2.5409e-06
3.90835e-07
3.91455e-07
3.92198e-07
3.93127e-07
3.94359e-07
3.96093e-07
3.98654e-07
4.02485e-07
4.07979e-07
4.14869e-07
4.21409e-07
4.27293e-07
4.33737e-07
4.41591e-07
4.50435e-07
4.58045e-07
4.61794e-07
4.62943e-07
4.64106e-07
4.66798e-07
4.72447e-07
4.82464e-07
4.95275e-07
5.10269e-07
5.274e-07
5.47044e-07
5.70393e-07
6.02204e-07
6.46679e-07
7.14778e-07
7.84899e-07
9.17662e-07
1.0369e-06
1.29184e-06
1.45189e-06
1.64538e-06
1.82953e-06
3.90846e-07
3.9146e-07
3.92178e-07
3.93039e-07
3.94103e-07
3.95458e-07
3.97233e-07
3.99597e-07
4.02747e-07
4.06825e-07
4.11611e-07
4.16455e-07
4.21032e-07
4.25479e-07
4.29861e-07
4.34039e-07
4.37517e-07
4.40486e-07
4.43596e-07
4.47817e-07
4.53903e-07
4.62034e-07
4.72096e-07
4.8405e-07
4.98145e-07
5.1443e-07
5.33587e-07
5.56637e-07
5.87143e-07
6.26465e-07
6.67417e-07
7.43021e-07
7.9663e-07
9.14336e-07
1.02121e-06
1.11374e-06
1.30079e-06
3.90742e-07
3.91353e-07
3.92061e-07
3.92899e-07
3.9391e-07
3.95157e-07
3.96714e-07
3.98647e-07
4.00968e-07
4.03577e-07
4.06271e-07
4.08984e-07
4.11874e-07
4.15035e-07
4.18448e-07
4.21996e-07
4.25507e-07
4.29204e-07
4.33392e-07
4.3851e-07
4.44839e-07
4.52616e-07
4.61998e-07
4.73122e-07
4.85961e-07
5.00819e-07
5.18008e-07
5.37947e-07
5.63903e-07
5.93597e-07
6.27505e-07
6.8134e-07
7.17656e-07
7.92186e-07
8.81199e-07
9.31727e-07
1.06006e-06
3.90072e-07
3.90689e-07
3.91395e-07
3.92211e-07
3.93163e-07
3.94287e-07
3.95624e-07
3.97217e-07
3.99104e-07
4.01298e-07
4.03767e-07
4.06432e-07
4.09233e-07
4.12162e-07
4.1524e-07
4.18509e-07
4.22011e-07
4.25904e-07
4.30383e-07
4.35677e-07
4.41978e-07
4.49468e-07
4.58264e-07
4.68631e-07
4.80522e-07
4.94397e-07
5.10558e-07
5.27963e-07
5.52622e-07
5.74185e-07
6.06713e-07
6.48245e-07
6.75811e-07
7.38939e-07
7.99271e-07
8.3878e-07
9.32516e-07
3.8889e-07
3.89567e-07
3.90329e-07
3.91195e-07
3.92187e-07
3.93332e-07
3.94661e-07
3.96195e-07
3.97945e-07
3.99897e-07
4.02024e-07
4.04315e-07
4.06797e-07
4.09512e-07
4.12493e-07
4.15778e-07
4.19412e-07
4.23502e-07
4.28179e-07
4.33588e-07
4.39844e-07
4.47141e-07
4.55529e-07
4.65447e-07
4.76405e-07
4.89734e-07
5.04204e-07
5.20423e-07
5.43615e-07
5.59865e-07
5.92734e-07
6.25442e-07
6.4818e-07
7.0389e-07
7.54901e-07
7.85414e-07
8.61383e-07
3.96996e-07
3.98039e-07
3.99188e-07
4.00458e-07
4.01869e-07
4.03445e-07
4.05215e-07
4.07212e-07
4.09467e-07
4.12006e-07
4.14847e-07
4.17999e-07
4.2147e-07
4.25278e-07
4.29453e-07
4.34036e-07
4.39078e-07
4.44659e-07
4.50885e-07
4.57874e-07
4.65716e-07
4.74613e-07
4.8447e-07
4.96049e-07
5.08022e-07
5.23567e-07
5.3799e-07
5.56498e-07
5.80275e-07
5.9556e-07
6.32254e-07
6.5683e-07
6.83523e-07
7.41574e-07
8.10607e-07
8.4659e-07
1.02245e-06
5.73785e-07
5.78721e-07
5.84192e-07
5.90266e-07
5.97022e-07
6.04549e-07
6.12936e-07
6.22264e-07
6.32601e-07
6.43993e-07
6.56466e-07
6.70033e-07
6.84726e-07
7.00587e-07
7.17683e-07
7.3613e-07
7.56075e-07
7.77745e-07
8.01386e-07
8.27289e-07
8.55745e-07
8.87074e-07
9.21661e-07
9.59913e-07
1.00187e-06
1.04996e-06
1.09748e-06
1.16615e-06
1.20951e-06
1.3111e-06
1.3604e-06
1.47638e-06
1.55228e-06
1.69084e-06
1.75427e-06
2.05519e-06
2.06832e-06
6.20893e-07
6.24061e-07
6.26926e-07
6.29127e-07
6.30055e-07
6.28844e-07
6.25328e-07
6.20042e-07
7.19415e-07
3.39049e-06
1.13436e-05
1.62788e-05
1.77491e-05
1.69109e-05
1.27295e-05
1.03713e-05
9.97143e-06
1.18409e-05
1.2441e-05
1.19407e-05
1.08753e-05
1.00277e-05
9.56787e-06
9.52491e-06
8.92768e-06
7.84877e-06
7.06922e-06
6.59044e-06
6.23669e-06
6.32038e-06
6.80259e-06
5.95296e-06
3.75895e-06
3.78109e-06
1.48697e-05
2.55598e-05
2.11866e-05
4.08519e-07
4.09813e-07
4.11486e-07
4.13898e-07
4.17911e-07
4.25816e-07
4.4401e-07
4.93919e-07
6.54576e-07
1.28296e-06
2.90561e-06
4.90109e-06
7.81091e-06
1.18677e-05
1.35272e-05
1.17416e-05
9.80256e-06
8.98945e-06
8.03135e-06
6.85169e-06
6.28083e-06
6.15203e-06
6.50781e-06
7.36281e-06
7.56014e-06
7.25873e-06
6.49027e-06
5.90381e-06
5.19909e-06
5.03886e-06
4.67649e-06
4.86068e-06
5.30635e-06
5.13465e-06
7.73681e-06
1.80151e-05
2.42112e-05
3.83494e-07
3.84077e-07
3.84848e-07
3.86014e-07
3.88079e-07
3.92257e-07
4.01355e-07
4.21951e-07
4.71291e-07
5.74297e-07
7.46738e-07
9.81888e-07
1.32945e-06
1.72124e-06
1.98205e-06
2.00761e-06
1.95683e-06
1.88841e-06
1.87102e-06
1.8439e-06
1.82126e-06
1.82253e-06
1.86763e-06
1.98512e-06
2.14979e-06
2.30833e-06
2.4227e-06
2.5527e-06
2.83202e-06
3.06647e-06
3.40895e-06
3.42042e-06
3.56716e-06
3.61307e-06
3.84465e-06
4.67278e-06
7.10733e-06
3.76333e-07
3.76788e-07
3.77389e-07
3.78274e-07
3.79748e-07
3.82504e-07
3.88087e-07
3.99652e-07
4.23341e-07
4.65433e-07
5.1243e-07
5.47889e-07
5.85182e-07
6.43532e-07
7.13584e-07
7.45148e-07
7.35946e-07
7.12528e-07
6.86927e-07
6.81886e-07
6.89776e-07
7.14337e-07
7.57435e-07
8.07138e-07
8.59649e-07
9.17351e-07
9.86776e-07
1.08005e-06
1.24922e-06
1.48069e-06
1.78121e-06
2.08676e-06
2.18485e-06
2.35373e-06
2.55528e-06
2.59795e-06
2.68234e-06
3.72898e-07
3.73314e-07
3.7385e-07
3.74589e-07
3.75687e-07
3.77437e-07
3.80363e-07
3.85328e-07
3.93657e-07
4.06746e-07
4.23162e-07
4.40125e-07
4.57176e-07
4.76136e-07
4.95293e-07
5.10473e-07
5.13165e-07
5.10328e-07
5.016e-07
4.9917e-07
5.01904e-07
5.11919e-07
5.29556e-07
5.49818e-07
5.73753e-07
6.01528e-07
6.35396e-07
6.80141e-07
7.50509e-07
8.48705e-07
9.7583e-07
1.17101e-06
1.37029e-06
1.58916e-06
1.72837e-06
1.80037e-06
1.85115e-06
3.71324e-07
3.71729e-07
3.72241e-07
3.72923e-07
3.73886e-07
3.75321e-07
3.77536e-07
3.80942e-07
3.85919e-07
3.92355e-07
3.98851e-07
4.04645e-07
4.107e-07
4.18064e-07
4.26411e-07
4.33494e-07
4.36691e-07
4.37429e-07
4.37898e-07
4.39793e-07
4.44402e-07
4.53535e-07
4.6576e-07
4.80308e-07
4.97065e-07
5.16213e-07
5.39182e-07
5.68533e-07
6.10525e-07
6.66622e-07
7.31184e-07
8.33795e-07
9.20533e-07
1.0966e-06
1.22905e-06
1.35756e-06
1.49647e-06
3.7133e-07
3.71728e-07
3.72214e-07
3.72827e-07
3.73624e-07
3.74693e-07
3.76158e-07
3.78175e-07
3.80914e-07
3.84484e-07
3.88702e-07
3.93094e-07
3.97429e-07
4.01781e-07
4.06129e-07
4.10234e-07
4.13561e-07
4.16309e-07
4.19168e-07
4.23107e-07
4.28809e-07
4.36629e-07
4.46507e-07
4.58413e-07
4.72532e-07
4.88862e-07
5.08182e-07
5.31087e-07
5.61576e-07
5.99273e-07
6.41426e-07
7.1182e-07
7.62704e-07
8.68974e-07
9.64759e-07
1.04829e-06
1.20091e-06
3.72898e-07
3.73292e-07
3.73766e-07
3.7435e-07
3.75089e-07
3.76044e-07
3.77294e-07
3.78912e-07
3.8093e-07
3.83275e-07
3.85763e-07
3.88301e-07
3.90993e-07
3.93931e-07
3.97097e-07
4.00372e-07
4.03605e-07
4.07005e-07
4.10889e-07
4.15698e-07
4.21741e-07
4.29289e-07
4.3852e-07
4.4956e-07
4.62434e-07
4.77323e-07
4.9481e-07
5.1495e-07
5.41177e-07
5.71117e-07
6.06066e-07
6.58638e-07
6.97149e-07
7.71139e-07
8.55037e-07
9.07927e-07
1.02821e-06
3.76329e-07
3.76742e-07
3.77226e-07
3.778e-07
3.78491e-07
3.79334e-07
3.80371e-07
3.81647e-07
3.83202e-07
3.85055e-07
3.87189e-07
3.89537e-07
3.92054e-07
3.94733e-07
3.97588e-07
4.00647e-07
4.03944e-07
4.07633e-07
4.11917e-07
4.17028e-07
4.23173e-07
4.30539e-07
4.39284e-07
4.4964e-07
4.6168e-07
4.75655e-07
4.92189e-07
5.10107e-07
5.34858e-07
5.58036e-07
5.90873e-07
6.32698e-07
6.62537e-07
7.25968e-07
7.874e-07
8.29032e-07
9.23312e-07
3.83424e-07
3.83932e-07
3.84509e-07
3.85171e-07
3.85942e-07
3.86848e-07
3.8792e-07
3.89187e-07
3.90664e-07
3.92349e-07
3.94229e-07
3.96299e-07
3.98583e-07
4.01119e-07
4.0394e-07
4.07082e-07
4.10588e-07
4.14561e-07
4.19137e-07
4.24462e-07
4.30674e-07
4.37968e-07
4.46455e-07
4.56473e-07
4.67829e-07
4.81228e-07
4.9661e-07
5.12783e-07
5.3681e-07
5.5382e-07
5.87001e-07
6.20425e-07
6.44476e-07
7.00403e-07
7.54339e-07
7.85767e-07
8.6713e-07
4.07897e-07
4.0886e-07
4.09917e-07
4.11087e-07
4.12387e-07
4.13845e-07
4.1549e-07
4.17361e-07
4.19493e-07
4.2192e-07
4.2467e-07
4.27761e-07
4.31209e-07
4.35036e-07
4.39272e-07
4.43956e-07
4.49142e-07
4.54919e-07
4.61356e-07
4.68541e-07
4.76641e-07
4.8584e-07
4.96137e-07
5.08067e-07
5.20954e-07
5.36422e-07
5.53116e-07
5.70225e-07
5.97571e-07
6.12758e-07
6.50913e-07
6.75201e-07
7.08204e-07
7.67611e-07
8.49194e-07
8.91249e-07
1.11364e-06
6.25309e-07
6.30365e-07
6.3598e-07
6.42228e-07
6.4919e-07
6.5696e-07
6.6563e-07
6.75284e-07
6.85987e-07
6.97782e-07
7.1069e-07
7.24716e-07
7.3988e-07
7.56225e-07
7.73814e-07
7.92762e-07
8.13229e-07
8.35477e-07
8.59724e-07
8.86239e-07
9.15408e-07
9.47565e-07
9.83114e-07
1.02245e-06
1.06587e-06
1.11483e-06
1.16611e-06
1.23227e-06
1.28408e-06
1.38398e-06
1.43639e-06
1.56314e-06
1.63187e-06
1.79803e-06
1.86446e-06
2.15154e-06
2.16821e-06
6.56951e-07
6.60188e-07
6.63199e-07
6.65706e-07
6.6728e-07
6.67373e-07
6.65948e-07
6.64434e-07
6.70343e-07
9.47262e-07
2.36238e-06
4.43685e-06
8.35534e-06
1.00251e-05
7.39885e-06
4.51242e-06
3.57792e-06
3.26381e-06
3.34996e-06
3.93178e-06
4.53687e-06
4.79603e-06
5.03985e-06
5.30944e-06
5.12223e-06
4.66767e-06
4.34031e-06
4.12649e-06
4.01739e-06
3.83745e-06
3.96962e-06
3.36858e-06
2.31503e-06
2.51752e-06
1.03575e-05
2.1309e-05
1.41979e-05
4.17432e-07
4.18755e-07
4.2046e-07
4.22876e-07
4.26743e-07
4.33807e-07
4.48448e-07
4.82206e-07
5.6917e-07
7.67418e-07
1.09973e-06
1.5813e-06
2.72976e-06
4.10684e-06
4.51895e-06
4.32241e-06
3.83978e-06
3.35629e-06
2.97805e-06
2.79687e-06
2.7336e-06
2.60598e-06
2.65381e-06
2.93191e-06
2.98308e-06
2.87714e-06
2.63055e-06
2.4693e-06
2.28121e-06
2.29376e-06
2.16309e-06
2.11629e-06
2.43439e-06
2.61789e-06
4.61991e-06
1.07952e-05
1.53558e-05
3.81465e-07
3.82023e-07
3.82768e-07
3.83891e-07
3.85832e-07
3.89589e-07
3.97347e-07
4.13587e-07
4.47635e-07
5.09848e-07
5.79373e-07
6.57995e-07
8.10522e-07
1.08204e-06
1.31573e-06
1.36842e-06
1.32033e-06
1.21748e-06
1.11939e-06
1.08229e-06
1.08294e-06
1.10525e-06
1.15825e-06
1.22192e-06
1.27932e-06
1.33794e-06
1.39092e-06
1.4548e-06
1.59686e-06
1.69839e-06
1.91059e-06
1.89466e-06
2.03861e-06
2.08306e-06
2.3304e-06
3.11456e-06
4.71784e-06
3.68497e-07
3.68894e-07
3.69433e-07
3.70242e-07
3.71591e-07
3.74066e-07
3.78891e-07
3.88417e-07
4.06757e-07
4.37991e-07
4.73287e-07
5.00856e-07
5.29005e-07
5.69692e-07
6.18938e-07
6.45811e-07
6.39472e-07
6.18258e-07
5.86764e-07
5.71297e-07
5.72558e-07
5.84838e-07
6.15257e-07
6.52692e-07
6.90919e-07
7.3168e-07
7.79625e-07
8.39968e-07
9.46349e-07
1.06367e-06
1.25773e-06
1.38853e-06
1.47936e-06
1.6221e-06
1.80923e-06
1.91054e-06
2.01055e-06
3.62043e-07
3.62385e-07
3.6284e-07
3.63487e-07
3.64473e-07
3.66062e-07
3.68707e-07
3.73109e-07
3.80215e-07
3.90839e-07
4.03732e-07
4.17269e-07
4.32047e-07
4.49992e-07
4.68478e-07
4.82293e-07
4.84115e-07
4.80864e-07
4.71945e-07
4.68621e-07
4.70479e-07
4.78039e-07
4.93492e-07
5.12013e-07
5.33913e-07
5.58804e-07
5.88294e-07
6.24949e-07
6.81201e-07
7.49257e-07
8.47395e-07
9.69421e-07
1.09811e-06
1.24296e-06
1.378e-06
1.467e-06
1.53075e-06
3.59182e-07
3.59504e-07
3.59927e-07
3.60509e-07
3.61356e-07
3.62644e-07
3.64648e-07
3.67733e-07
3.72234e-07
3.78115e-07
3.84327e-07
3.89983e-07
3.95688e-07
4.02364e-07
4.09858e-07
4.16297e-07
4.19377e-07
4.20304e-07
4.20856e-07
4.22737e-07
4.27203e-07
4.35819e-07
4.47662e-07
4.62029e-07
4.78725e-07
4.97767e-07
5.2038e-07
5.48254e-07
5.8717e-07
6.35556e-07
6.94977e-07
7.77424e-07
8.49603e-07
9.81788e-07
1.10147e-06
1.20798e-06
1.32401e-06
3.59184e-07
3.59498e-07
3.59894e-07
3.6041e-07
3.61102e-07