/*--------------------------------*- C++ -*----------------------------------*\
| =========                 |                                                 |
| \\      /  F ield         | OpenFOAM: The Open Source CFD Toolbox           |
|  \\    /   O peration     | Version:  2.3.1                                 |
|   \\  /    A nd           | Web:      www.OpenFOAM.org                      |
|    \\/     M anipulation  |                                                 |
\*---------------------------------------------------------------------------*/
FoamFile
{
    version     2.0;
    format      ascii;
    class       volScalarField;
    location    "20";
    object      k;
}
// * * * * * * * * * * * * * * * * * * * * * * * * * * * * * * * * * * * * * //

dimensions      [0 2 -2 0 0 0 0];

internalField   nonuniform List<scalar> 
37530
(
3.33262e-06
3.35657e-06
3.3764e-06
3.38741e-06
3.38045e-06
3.35331e-06
3.66223e-06
1.2403e-05
7.2144e-05
0.000111937
0.000112171
0.000105792
0.000106652
0.000108657
0.000105707
0.000100671
9.95902e-05
9.81738e-05
9.02505e-05
8.71008e-05
8.65793e-05
8.53239e-05
8.00066e-05
7.78517e-05
7.59038e-05
7.14967e-05
7.00212e-05
6.95322e-05
6.9497e-05
7.10477e-05
7.54092e-05
7.88829e-05
7.8714e-05
8.12231e-05
8.15559e-05
7.6871e-05
6.67529e-05
4.84747e-06
4.87235e-06
4.8901e-06
4.89469e-06
4.8765e-06
4.82406e-06
4.74453e-06
5.23632e-06
1.61694e-05
4.12653e-05
5.04204e-05
5.82947e-05
6.49612e-05
6.7285e-05
6.7903e-05
6.83184e-05
6.83583e-05
7.0873e-05
7.87674e-05
8.25296e-05
7.89765e-05
7.45175e-05
8.0261e-05
8.93704e-05
9.10895e-05
8.92241e-05
8.53935e-05
8.33449e-05
8.25124e-05
8.12302e-05
7.92628e-05
9.81455e-05
0.00010742
0.000111325
0.000112477
0.000104506
9.39093e-05
5.59095e-06
5.61964e-06
5.64334e-06
5.65916e-06
5.66206e-06
5.6477e-06
5.61987e-06
5.58212e-06
6.13904e-06
9.41357e-06
1.28422e-05
1.52109e-05
1.80746e-05
2.00413e-05
1.87102e-05
1.60574e-05
1.38627e-05
1.46876e-05
2.08915e-05
2.84296e-05
2.93599e-05
2.85126e-05
3.29331e-05
4.07844e-05
4.74028e-05
5.20314e-05
5.38426e-05
5.61296e-05
6.02872e-05
6.41551e-05
6.84849e-05
7.98881e-05
9.41912e-05
0.000100388
9.56584e-05
8.60642e-05
8.14568e-05
5.99663e-06
6.03069e-06
6.06315e-06
6.09334e-06
6.12213e-06
6.15211e-06
6.19182e-06
6.26051e-06
6.36922e-06
6.73571e-06
7.28303e-06
7.72552e-06
8.14837e-06
8.56065e-06
8.68515e-06
8.71837e-06
8.72512e-06
8.76796e-06
9.02511e-06
9.86356e-06
1.06369e-05
1.11033e-05
1.20804e-05
1.39233e-05
1.56303e-05
1.66545e-05
1.70681e-05
1.79523e-05
2.07793e-05
2.87279e-05
4.36254e-05
5.61306e-05
6.53653e-05
7.40606e-05
7.16679e-05
6.59476e-05
6.1309e-05
6.20395e-06
6.2425e-06
6.28119e-06
6.31928e-06
6.35727e-06
6.39659e-06
6.44024e-06
6.49458e-06
6.56952e-06
6.67903e-06
6.83709e-06
7.02671e-06
7.23827e-06
7.47467e-06
7.71996e-06
7.95672e-06
8.14226e-06
8.27039e-06
8.37392e-06
8.52511e-06
8.74911e-06
9.02106e-06
9.32676e-06
9.72043e-06
1.01992e-05
1.0688e-05
1.11742e-05
1.17001e-05
1.23183e-05
1.33949e-05
1.61382e-05
2.29917e-05
3.24003e-05
4.43536e-05
4.46086e-05
4.22981e-05
4.29723e-05
6.29311e-06
6.33605e-06
6.38143e-06
6.42984e-06
6.48264e-06
6.5425e-06
6.61468e-06
6.70659e-06
6.82708e-06
6.98235e-06
7.17399e-06
7.38656e-06
7.59823e-06
7.8109e-06
8.02694e-06
8.24349e-06
8.44199e-06
8.63019e-06
8.81854e-06
9.03051e-06
9.28387e-06
9.55689e-06
9.85255e-06
1.01801e-05
1.05563e-05
1.09742e-05
1.14081e-05
1.18661e-05
1.23424e-05
1.29257e-05
1.35079e-05
1.4654e-05
1.67791e-05
2.15384e-05
2.67027e-05
2.76056e-05
3.01456e-05
6.30073e-06
6.34683e-06
6.39633e-06
6.44968e-06
6.50762e-06
6.57139e-06
6.64295e-06
6.7257e-06
6.82292e-06
6.93752e-06
7.07024e-06
7.21979e-06
7.3846e-06
7.56435e-06
7.7584e-06
7.96066e-06
8.16199e-06
8.35914e-06
8.56196e-06
8.78117e-06
9.03048e-06
9.31006e-06
9.61949e-06
9.95938e-06
1.03328e-05
1.07403e-05
1.11795e-05
1.1651e-05
1.21741e-05
1.26792e-05
1.33516e-05
1.37953e-05
1.47051e-05
1.58291e-05
1.72186e-05
1.98513e-05
2.06936e-05
6.2287e-06
6.27773e-06
6.33125e-06
6.39012e-06
6.45563e-06
6.52963e-06
6.61461e-06
6.71364e-06
6.82989e-06
6.96587e-06
7.12133e-06
7.29209e-06
7.47298e-06
7.66169e-06
7.85679e-06
8.05731e-06
8.26268e-06
8.47511e-06
8.70034e-06
8.94263e-06
9.20785e-06
9.49601e-06
9.81078e-06
1.0155e-05
1.05312e-05
1.0942e-05
1.13744e-05
1.18639e-05
1.23311e-05
1.29522e-05
1.34472e-05
1.42267e-05
1.47854e-05
1.59264e-05
1.66399e-05
1.79751e-05
1.98486e-05
6.03686e-06
6.08781e-06
6.1438e-06
6.20559e-06
6.27409e-06
6.35045e-06
6.43606e-06
6.53237e-06
6.64073e-06
6.76163e-06
6.89513e-06
7.04075e-06
7.198e-06
7.36634e-06
7.54481e-06
7.73278e-06
7.92967e-06
8.13692e-06
8.35746e-06
8.5954e-06
8.85455e-06
9.1377e-06
9.44785e-06
9.78575e-06
1.01557e-05
1.0555e-05
1.09924e-05
1.14582e-05
1.1986e-05
1.24951e-05
1.32169e-05
1.36655e-05
1.46671e-05
1.5243e-05
1.65513e-05
1.72397e-05
1.89405e-05
5.64446e-06
5.69644e-06
5.75383e-06
5.81746e-06
5.88836e-06
5.96784e-06
6.05739e-06
6.15849e-06
6.27239e-06
6.39971e-06
6.54033e-06
6.69313e-06
6.85661e-06
7.02963e-06
7.21152e-06
7.4024e-06
7.60289e-06
7.8149e-06
8.04109e-06
8.28449e-06
8.54781e-06
8.83278e-06
9.143e-06
9.47902e-06
9.84567e-06
1.02413e-05
1.0669e-05
1.11299e-05
1.1649e-05
1.212e-05
1.28667e-05
1.32819e-05
1.41896e-05
1.50006e-05
1.55725e-05
1.71228e-05
1.79465e-05
4.90848e-06
4.96045e-06
5.01787e-06
5.0815e-06
5.15219e-06
5.23087e-06
5.31854e-06
5.4161e-06
5.52425e-06
5.6435e-06
5.77387e-06
5.91508e-06
6.06678e-06
6.22866e-06
6.40052e-06
6.58258e-06
6.77543e-06
6.98047e-06
7.19965e-06
7.43529e-06
7.68988e-06
7.96498e-06
8.26482e-06
8.58638e-06
8.94453e-06
9.30722e-06
9.76683e-06
1.0107e-05
1.07749e-05
1.10884e-05
1.19016e-05
1.22269e-05
1.29438e-05
1.4001e-05
1.42033e-05
1.54318e-05
1.66954e-05
3.3747e-06
3.41611e-06
3.46165e-06
3.51192e-06
3.56758e-06
3.62938e-06
3.69809e-06
3.77445e-06
3.85907e-06
3.95234e-06
4.05441e-06
4.16521e-06
4.28457e-06
4.41237e-06
4.54861e-06
4.69361e-06
4.84792e-06
5.01262e-06
5.18904e-06
5.37868e-06
5.58342e-06
5.80382e-06
6.04476e-06
6.29861e-06
6.5924e-06
6.86075e-06
7.2645e-06
7.49052e-06
8.08267e-06
8.23697e-06
9.14165e-06
9.14115e-06
9.99788e-06
1.05953e-05
1.07046e-05
1.14988e-05
1.30203e-05
4.92216e-06
4.94391e-06
4.9619e-06
4.97129e-06
4.96146e-06
4.91249e-06
4.93167e-06
1.08484e-05
6.87347e-05
0.00012879
0.000135134
0.000129817
0.000128747
0.000130836
0.000131077
0.000127542
0.000124199
0.000120881
0.000115839
0.000113732
0.000112777
0.000110507
0.000105215
0.000100337
9.41864e-05
8.74975e-05
8.57382e-05
8.56345e-05
8.97919e-05
9.86414e-05
0.000103052
0.000103547
8.56704e-05
0.000104408
0.000111321
0.000111383
0.000104228
7.59231e-06
7.60246e-06
7.60563e-06
7.59645e-06
7.56867e-06
7.52141e-06
7.53622e-06
8.48225e-06
2.01491e-05
6.05452e-05
0.000100164
0.000121533
0.00013652
0.000151819
0.000156332
0.000149798
0.000145886
0.000147096
0.000153636
0.000155391
0.000150931
0.000153563
0.000166303
0.000174661
0.000169086
0.000159785
0.000147167
0.00013742
0.000132955
0.000137977
0.000155128
0.000206676
0.000196617
0.000167431
0.000181803
0.000193785
0.000184323
9.29576e-06
9.31238e-06
9.32534e-06
9.33097e-06
9.32573e-06
9.30885e-06
9.28879e-06
9.34148e-06
1.01365e-05
1.40014e-05
1.90227e-05
2.15167e-05
2.42004e-05
2.67979e-05
2.56653e-05
2.4634e-05
2.39165e-05
2.38637e-05
2.60422e-05
3.04269e-05
3.2745e-05
3.49932e-05
4.03288e-05
4.99352e-05
6.23684e-05
7.73745e-05
8.6841e-05
8.71525e-05
8.71694e-05
9.12659e-05
0.000102928
0.000126212
0.000149966
0.000145761
0.000142899
0.000130669
0.000123485
1.02376e-05
1.02596e-05
1.02801e-05
1.02977e-05
1.0311e-05
1.03229e-05
1.03474e-05
1.04283e-05
1.06207e-05
1.10587e-05
1.15328e-05
1.20399e-05
1.25045e-05
1.2873e-05
1.31942e-05
1.35361e-05
1.37162e-05
1.3915e-05
1.41007e-05
1.43246e-05
1.4644e-05
1.51368e-05
1.5797e-05
1.70506e-05
1.84811e-05
2.03872e-05
2.30153e-05
2.54395e-05
2.88131e-05
3.4041e-05
4.47382e-05
6.11923e-05
8.41584e-05
9.48768e-05
9.21375e-05
8.47941e-05
7.6776e-05
1.07243e-05
1.07506e-05
1.07767e-05
1.0802e-05
1.08248e-05
1.08435e-05
1.08592e-05
1.08781e-05
1.09235e-05
1.10438e-05
1.1244e-05
1.1381e-05
1.14791e-05
1.16127e-05
1.17918e-05
1.19923e-05
1.2109e-05
1.21339e-05
1.21267e-05
1.21607e-05
1.22814e-05
1.25685e-05
1.28917e-05
1.32205e-05
1.35537e-05
1.39567e-05
1.44506e-05
1.51788e-05
1.60068e-05
1.75921e-05
1.91083e-05
2.22872e-05
2.79329e-05
3.90189e-05
4.80333e-05
4.94015e-05
5.07855e-05
1.09297e-05
1.09593e-05
1.09901e-05
1.10223e-05
1.10563e-05
1.10936e-05
1.11365e-05
1.11904e-05
1.12619e-05
1.13471e-05
1.14387e-05
1.15632e-05
1.1714e-05
1.18887e-05
1.20931e-05
1.23079e-05
1.24873e-05
1.26194e-05
1.27204e-05
1.28423e-05
1.30311e-05
1.3275e-05
1.355e-05
1.38423e-05
1.41758e-05
1.45546e-05
1.49697e-05
1.55217e-05
1.60425e-05
1.69571e-05
1.76687e-05
1.92167e-05
2.10173e-05
2.25241e-05
2.57417e-05
2.75035e-05
3.15241e-05
1.09329e-05
1.09643e-05
1.09976e-05
1.10329e-05
1.10702e-05
1.11101e-05
1.11533e-05
1.12009e-05
1.12563e-05
1.13259e-05
1.14115e-05
1.15066e-05
1.16084e-05
1.17208e-05
1.1843e-05
1.19746e-05
1.21099e-05
1.22448e-05
1.23881e-05
1.25519e-05
1.27565e-05
1.30001e-05
1.32754e-05
1.35822e-05
1.3922e-05
1.43118e-05
1.47217e-05
1.52322e-05
1.57334e-05
1.63482e-05
1.70395e-05
1.75377e-05
1.88407e-05
1.93162e-05
2.10799e-05
2.16868e-05
2.3883e-05
1.07383e-05
1.07715e-05
1.08075e-05
1.08466e-05
1.08895e-05
1.0937e-05
1.09902e-05
1.10504e-05
1.11186e-05
1.11948e-05
1.12794e-05
1.13742e-05
1.14814e-05
1.16015e-05
1.17343e-05
1.18777e-05
1.2029e-05
1.21874e-05
1.23573e-05
1.25425e-05
1.27533e-05
1.29932e-05
1.32624e-05
1.35648e-05
1.38941e-05
1.42726e-05
1.46663e-05
1.51358e-05
1.56677e-05
1.61532e-05
1.7003e-05
1.74688e-05
1.84312e-05
1.95063e-05
2.01278e-05
2.1812e-05
2.26544e-05
1.02609e-05
1.02941e-05
1.03305e-05
1.03704e-05
1.04144e-05
1.04631e-05
1.0517e-05
1.05769e-05
1.06435e-05
1.07172e-05
1.07978e-05
1.08844e-05
1.09769e-05
1.10758e-05
1.11822e-05
1.12972e-05
1.14222e-05
1.15602e-05
1.17139e-05
1.18866e-05
1.20809e-05
1.23009e-05
1.25455e-05
1.2826e-05
1.31223e-05
1.34871e-05
1.38254e-05
1.42991e-05
1.47315e-05
1.52303e-05
1.59325e-05
1.64627e-05
1.71479e-05
1.83848e-05
1.88598e-05
2.02683e-05
2.09811e-05
9.32674e-06
9.35808e-06
9.39281e-06
9.43126e-06
9.47393e-06
9.52142e-06
9.57443e-06
9.63352e-06
9.69902e-06
9.77091e-06
9.84893e-06
9.93307e-06
1.00238e-05
1.01216e-05
1.02271e-05
1.0341e-05
1.04642e-05
1.05987e-05
1.07464e-05
1.09096e-05
1.109e-05
1.12917e-05
1.15114e-05
1.17659e-05
1.20188e-05
1.23612e-05
1.26155e-05
1.30879e-05
1.34036e-05
1.38345e-05
1.45595e-05
1.48377e-05
1.58201e-05
1.62244e-05
1.698e-05
1.82973e-05
1.88241e-05
7.62692e-06
7.65446e-06
7.68508e-06
7.71909e-06
7.75684e-06
7.79876e-06
7.84528e-06
7.89669e-06
7.9531e-06
8.01444e-06
8.0804e-06
8.15061e-06
8.22489e-06
8.30336e-06
8.38645e-06
8.475e-06
8.56995e-06
8.67303e-06
8.78591e-06
8.91046e-06
9.04688e-06
9.19913e-06
9.36069e-06
9.55627e-06
9.72511e-06
1.00104e-05
1.0163e-05
1.05479e-05
1.07245e-05
1.11446e-05
1.15801e-05
1.17479e-05
1.27758e-05
1.29066e-05
1.35201e-05
1.47592e-05
1.48608e-05
4.95323e-06
4.98842e-06
5.02705e-06
5.06954e-06
5.11635e-06
5.16801e-06
5.22507e-06
5.28805e-06
5.35739e-06
5.43342e-06
5.51638e-06
5.60643e-06
5.70375e-06
5.80856e-06
5.9212e-06
6.04219e-06
6.1722e-06
6.31223e-06
6.46338e-06
6.62686e-06
6.80397e-06
6.99574e-06
7.20442e-06
7.42969e-06
7.67576e-06
7.94275e-06
8.22323e-06
8.56284e-06
8.85385e-06
9.27624e-06
9.71741e-06
9.99656e-06
1.06649e-05
1.12691e-05
1.14578e-05
1.26623e-05
1.30911e-05
5.78157e-06
5.80392e-06
5.82321e-06
5.83565e-06
5.83349e-06
5.80405e-06
5.75758e-06
7.35168e-06
4.28361e-05
0.00011431
0.000120761
0.000115457
0.000117302
0.000118889
0.000113273
0.000110356
0.000110249
0.000107682
0.000101112
9.86338e-05
9.76709e-05
9.60129e-05
9.38576e-05
9.12981e-05
8.57303e-05
7.69169e-05
6.89509e-05
6.59883e-05
6.95041e-05
8.04845e-05
8.57617e-05
8.50758e-05
4.84535e-05
7.76006e-05
0.00010487
0.000108677
0.000105895
9.46538e-06
9.47097e-06
9.46943e-06
9.457e-06
9.42962e-06
9.39705e-06
9.46351e-06
1.03538e-05
1.70708e-05
4.65319e-05
7.38512e-05
9.08054e-05
0.000113993
0.000135865
0.000145079
0.000140694
0.00013056
0.000123534
0.000121905
0.000120733
0.000119382
0.000121499
0.000131719
0.000143028
0.000144259
0.000141747
0.000137157
0.00013075
0.000120255
0.00011907
0.000122876
0.00014993
0.000147824
0.000132273
0.000163567
0.000198768
0.000194623
1.15541e-05
1.15676e-05
1.15781e-05
1.15844e-05
1.15882e-05
1.16004e-05
1.16582e-05
1.19092e-05
1.2888e-05
1.57326e-05
1.92109e-05
2.04153e-05
2.15895e-05
2.36296e-05
2.54769e-05
2.68244e-05
2.74394e-05
2.73202e-05
2.77487e-05
2.91832e-05
3.04246e-05
3.1772e-05
3.48035e-05
4.0319e-05
4.7232e-05
5.51978e-05
6.27858e-05
6.86133e-05
7.13651e-05
7.34369e-05
7.57155e-05
8.27732e-05
9.86826e-05
9.87803e-05
0.000106683
0.000105739
0.000106434
1.27153e-05
1.27349e-05
1.27534e-05
1.27707e-05
1.27893e-05
1.28188e-05
1.28892e-05
1.30764e-05
1.35153e-05
1.43042e-05
1.49604e-05
1.55599e-05
1.61453e-05
1.66956e-05
1.72398e-05
1.76276e-05
1.76956e-05
1.77613e-05
1.78625e-05
1.80237e-05
1.82785e-05
1.87096e-05
1.92674e-05
1.99689e-05
2.08106e-05
2.1883e-05
2.32929e-05
2.52546e-05
2.80349e-05
3.16616e-05
3.59258e-05
4.26594e-05
4.7969e-05
5.29472e-05
5.72056e-05
5.63887e-05
5.42183e-05
1.33283e-05
1.33527e-05
1.33774e-05
1.34021e-05
1.34274e-05
1.34558e-05
1.34939e-05
1.3558e-05
1.3686e-05
1.39431e-05
1.42936e-05
1.45621e-05
1.47547e-05
1.49773e-05
1.52388e-05
1.54869e-05
1.56107e-05
1.56179e-05
1.55715e-05
1.56022e-05
1.57393e-05
1.60645e-05
1.64374e-05
1.68248e-05
1.72479e-05
1.77373e-05
1.83603e-05
1.91831e-05
2.03252e-05
2.17721e-05
2.38269e-05
2.53389e-05
2.78895e-05
3.08025e-05
3.25765e-05
3.6155e-05
3.77679e-05
1.35921e-05
1.36203e-05
1.36501e-05
1.36821e-05
1.37175e-05
1.37595e-05
1.38139e-05
1.38894e-05
1.39955e-05
1.41242e-05
1.42618e-05
1.44225e-05
1.46099e-05
1.48272e-05
1.50722e-05
1.53047e-05
1.54711e-05
1.55793e-05
1.56661e-05
1.57906e-05
1.59954e-05
1.62768e-05
1.66113e-05
1.6983e-05
1.74006e-05
1.78633e-05
1.83956e-05
1.90457e-05
1.98741e-05
2.08724e-05
2.20697e-05
2.36628e-05
2.57203e-05
2.74991e-05
2.92431e-05
3.1002e-05
3.28942e-05
1.35959e-05
1.3626e-05
1.36584e-05
1.36932e-05
1.37312e-05
1.37732e-05
1.38214e-05
1.3879e-05
1.39517e-05
1.40461e-05
1.41602e-05
1.42797e-05
1.44007e-05
1.45293e-05
1.46694e-05
1.4818e-05
1.49645e-05
1.51072e-05
1.52584e-05
1.54388e-05
1.56712e-05
1.59537e-05
1.62812e-05
1.66523e-05
1.70715e-05
1.75434e-05
1.80732e-05
1.86771e-05
1.94069e-05
2.01757e-05
2.11657e-05
2.21706e-05
2.35117e-05
2.49931e-05
2.67131e-05
2.80816e-05
3.04283e-05
1.33445e-05
1.33764e-05
1.34115e-05
1.34504e-05
1.34939e-05
1.35433e-05
1.36003e-05
1.36668e-05
1.37433e-05
1.38292e-05
1.39228e-05
1.40255e-05
1.41405e-05
1.42685e-05
1.44088e-05
1.45581e-05
1.47125e-05
1.48745e-05
1.50513e-05
1.52515e-05
1.54854e-05
1.57578e-05
1.60709e-05
1.64281e-05
1.68257e-05
1.72774e-05
1.77726e-05
1.83403e-05
1.90232e-05
1.97207e-05
2.0663e-05
2.16169e-05
2.26545e-05
2.41418e-05
2.55662e-05
2.68583e-05
2.90635e-05
1.27418e-05
1.27735e-05
1.28086e-05
1.28478e-05
1.28915e-05
1.29407e-05
1.29963e-05
1.30592e-05
1.31302e-05
1.32095e-05
1.32962e-05
1.33889e-05
1.34871e-05
1.35916e-05
1.37037e-05
1.3825e-05
1.39575e-05
1.41047e-05
1.42713e-05
1.44622e-05
1.46812e-05
1.49332e-05
1.52192e-05
1.5548e-05
1.59094e-05
1.63331e-05
1.67807e-05
1.731e-05
1.79219e-05
1.85181e-05
1.93883e-05
2.01897e-05
2.10641e-05
2.24347e-05
2.35189e-05
2.47078e-05
2.64201e-05
1.15891e-05
1.16188e-05
1.16519e-05
1.16891e-05
1.1731e-05
1.17783e-05
1.18318e-05
1.18922e-05
1.19597e-05
1.20339e-05
1.21142e-05
1.22001e-05
1.22921e-05
1.2391e-05
1.24975e-05
1.26125e-05
1.27375e-05
1.28753e-05
1.30291e-05
1.32023e-05
1.33973e-05
1.36189e-05
1.3866e-05
1.41524e-05
1.44533e-05
1.48312e-05
1.51796e-05
1.56684e-05
1.61484e-05
1.66293e-05
1.74687e-05
1.79472e-05
1.89555e-05
1.97351e-05
2.083e-05
2.18724e-05
2.29694e-05
9.5082e-06
9.53432e-06
9.56371e-06
9.59673e-06
9.63384e-06
9.67553e-06
9.7223e-06
9.77447e-06
9.83213e-06
9.89507e-06
9.96276e-06
1.00346e-05
1.01104e-05
1.01903e-05
1.02748e-05
1.03652e-05
1.04629e-05
1.05702e-05
1.06894e-05
1.08232e-05
1.09725e-05
1.11417e-05
1.1326e-05
1.15469e-05
1.17557e-05
1.20706e-05
1.2274e-05
1.27106e-05
1.29729e-05
1.3404e-05
1.40122e-05
1.42804e-05
1.51656e-05
1.5515e-05
1.65001e-05
1.7327e-05
1.8123e-05
5.81469e-06
5.85069e-06
5.89036e-06
5.93414e-06
5.98253e-06
6.03608e-06
6.09536e-06
6.16088e-06
6.23304e-06
6.31211e-06
6.39819e-06
6.49135e-06
6.59172e-06
6.69948e-06
6.81496e-06
6.93876e-06
7.07164e-06
7.21477e-06
7.36942e-06
7.53701e-06
7.71893e-06
7.91656e-06
8.13173e-06
8.36613e-06
8.61845e-06
8.90606e-06
9.17465e-06
9.58202e-06
9.81368e-06
1.03734e-05
1.06443e-05
1.11612e-05
1.17927e-05
1.22434e-05
1.25802e-05
1.40255e-05
1.42272e-05
6.34414e-06
6.36683e-06
6.38678e-06
6.40074e-06
6.40267e-06
6.38349e-06
6.34023e-06
6.44594e-06
1.3643e-05
6.80589e-05
9.16931e-05
8.67127e-05
8.73777e-05
8.89226e-05
8.12128e-05
7.63913e-05
7.80196e-05
7.98144e-05
7.62961e-05
7.07972e-05
6.83698e-05
6.64491e-05
6.50335e-05
6.4335e-05
6.05612e-05
5.48822e-05
5.04507e-05
4.71532e-05
4.37433e-05
4.57175e-05
5.31614e-05
5.11863e-05
3.2108e-05
3.75778e-05
8.13042e-05
9.30463e-05
8.97019e-05
1.07465e-05
1.07498e-05
1.07458e-05
1.07314e-05
1.07031e-05
1.067e-05
1.07106e-05
1.12789e-05
1.42319e-05
2.64905e-05
4.28251e-05
5.30608e-05
7.32642e-05
9.6861e-05
0.000104709
0.000100633
9.42807e-05
8.56594e-05
8.02562e-05
7.68461e-05
7.47964e-05
7.57072e-05
8.05277e-05
8.62176e-05
8.63748e-05
8.45746e-05
8.05343e-05
7.75165e-05
7.2408e-05
7.12507e-05
7.12384e-05
7.97027e-05
7.80648e-05
6.82622e-05
8.48636e-05
0.000140538
0.000152837
1.30691e-05
1.30809e-05
1.309e-05
1.30964e-05
1.31036e-05
1.31269e-05
1.32099e-05
1.34863e-05
1.43261e-05
1.60411e-05
1.80971e-05
1.98916e-05
2.13539e-05
2.28937e-05
2.46415e-05
2.59333e-05
2.65879e-05
2.68411e-05
2.68485e-05
2.67529e-05
2.69395e-05
2.74561e-05
2.85741e-05
3.03693e-05
3.24961e-05
3.48828e-05
3.71478e-05
4.01403e-05
4.35994e-05
4.67059e-05
4.92525e-05
5.03959e-05
5.44954e-05
5.51035e-05
5.84701e-05
6.29245e-05
6.97318e-05
1.43587e-05
1.43766e-05
1.43939e-05
1.44112e-05
1.44323e-05
1.44702e-05
1.45596e-05
1.47818e-05
1.52989e-05
1.61872e-05
1.70015e-05
1.75046e-05
1.80506e-05
1.88487e-05
1.96621e-05
2.00377e-05
1.99544e-05
1.97319e-05
1.95856e-05
1.96273e-05
1.97983e-05
2.02109e-05
2.08042e-05
2.14316e-05
2.20568e-05
2.27712e-05
2.36903e-05
2.49655e-05
2.71712e-05
2.96302e-05
3.25913e-05
3.47756e-05
3.60435e-05
3.8794e-05
4.24653e-05
4.31756e-05
4.3256e-05
1.50495e-05
1.50724e-05
1.5096e-05
1.51205e-05
1.51477e-05
1.51817e-05
1.52324e-05
1.53198e-05
1.54833e-05
1.57821e-05
1.61744e-05
1.65369e-05
1.68337e-05
1.71498e-05
1.74981e-05
1.78112e-05
1.79513e-05
1.79491e-05
1.78682e-05
1.78834e-05
1.80056e-05
1.83218e-05
1.87349e-05
1.91825e-05
1.96875e-05
2.02615e-05
2.09754e-05
2.18487e-05
2.31792e-05
2.46166e-05
2.67975e-05
2.91639e-05
3.14046e-05
3.38318e-05
3.51177e-05
3.67988e-05
3.77937e-05
1.53513e-05
1.53782e-05
1.54071e-05
1.54389e-05
1.54756e-05
1.55214e-05
1.55838e-05
1.56739e-05
1.58031e-05
1.59658e-05
1.61395e-05
1.63227e-05
1.65303e-05
1.67762e-05
1.7048e-05
1.72896e-05
1.74451e-05
1.75385e-05
1.76213e-05
1.77504e-05
1.79671e-05
1.82767e-05
1.86591e-05
1.90948e-05
1.95829e-05
2.01233e-05
2.07562e-05
2.15025e-05
2.25212e-05
2.36398e-05
2.51179e-05
2.68549e-05
2.87982e-05
3.1523e-05
3.34503e-05
3.5464e-05
3.73288e-05
1.53558e-05
1.53847e-05
1.54161e-05
1.54507e-05
1.54893e-05
1.55337e-05
1.55867e-05
1.56527e-05
1.57384e-05
1.58496e-05
1.59833e-05
1.61232e-05
1.62656e-05
1.64162e-05
1.65779e-05
1.67454e-05
1.69044e-05
1.70553e-05
1.7215e-05
1.74091e-05
1.76615e-05
1.7973e-05
1.83418e-05
1.87665e-05
1.92502e-05
1.97928e-05
2.04127e-05
2.11126e-05
2.19969e-05
2.29412e-05
2.41256e-05
2.55788e-05
2.69345e-05
2.91322e-05
3.10364e-05
3.28623e-05
3.55351e-05
1.50674e-05
1.50982e-05
1.51324e-05
1.51709e-05
1.52148e-05
1.52658e-05
1.5326e-05
1.53977e-05
1.54816e-05
1.55765e-05
1.56797e-05
1.57915e-05
1.59147e-05
1.60505e-05
1.61979e-05
1.63528e-05
1.65112e-05
1.66777e-05
1.6862e-05
1.70757e-05
1.73293e-05
1.7629e-05
1.79783e-05
1.83807e-05
1.88344e-05
1.93478e-05
1.99256e-05
2.05796e-05
2.13818e-05
2.2239e-05
2.32975e-05
2.45709e-05
2.57378e-05
2.75169e-05
2.94488e-05
3.07633e-05
3.34702e-05
1.43875e-05
1.44179e-05
1.4452e-05
1.44905e-05
1.45341e-05
1.45839e-05
1.46411e-05
1.47068e-05
1.47821e-05
1.48669e-05
1.49601e-05
1.50599e-05
1.51656e-05
1.52781e-05
1.53986e-05
1.55287e-05
1.56702e-05
1.58274e-05
1.6006e-05
1.62124e-05
1.64518e-05
1.67295e-05
1.70485e-05
1.74162e-05
1.78283e-05
1.83024e-05
1.88279e-05
1.94204e-05
2.0143e-05
2.0857e-05
2.18299e-05
2.28668e-05
2.38742e-05
2.54112e-05
2.69547e-05
2.80916e-05
3.03463e-05
1.31071e-05
1.31355e-05
1.31677e-05
1.32041e-05
1.32457e-05
1.32932e-05
1.33475e-05
1.34095e-05
1.34793e-05
1.35565e-05
1.36401e-05
1.37293e-05
1.38245e-05
1.39265e-05
1.40362e-05
1.41545e-05
1.42833e-05
1.4426e-05
1.45865e-05
1.4769e-05
1.4977e-05
1.52155e-05
1.54854e-05
1.57979e-05
1.61379e-05
1.65463e-05
1.69658e-05
1.74809e-05
1.80693e-05
1.86226e-05
1.95125e-05
2.02224e-05
2.11816e-05
2.22465e-05
2.36874e-05
2.45267e-05
2.62264e-05
1.07957e-05
1.08213e-05
1.08503e-05
1.08833e-05
1.09206e-05
1.0963e-05
1.10109e-05
1.10647e-05
1.11246e-05
1.11904e-05
1.12613e-05
1.13367e-05
1.14163e-05
1.15003e-05
1.15892e-05
1.16844e-05
1.17875e-05
1.19012e-05
1.20282e-05
1.21718e-05
1.23335e-05
1.25177e-05
1.27215e-05
1.29623e-05
1.32056e-05
1.35359e-05
1.38014e-05
1.42434e-05
1.4618e-05
1.50153e-05
1.57559e-05
1.61197e-05
1.70348e-05
1.74783e-05
1.90722e-05
1.97155e-05
2.21267e-05
6.37728e-06
6.41381e-06
6.45418e-06
6.49885e-06
6.54835e-06
6.60328e-06
6.66423e-06
6.73168e-06
6.80604e-06
6.88751e-06
6.97617e-06
7.07196e-06
7.17498e-06
7.28537e-06
7.40342e-06
7.52975e-06
7.66515e-06
7.81093e-06
7.96844e-06
8.13925e-06
8.32485e-06
8.52683e-06
8.74707e-06
8.98747e-06
9.24752e-06
9.54112e-06
9.82684e-06
1.02327e-05
1.04848e-05
1.1064e-05
1.13397e-05
1.19754e-05
1.23823e-05
1.31091e-05
1.34344e-05
1.49302e-05
1.49938e-05
6.72171e-06
6.74455e-06
6.76515e-06
6.78095e-06
6.78755e-06
6.77878e-06
6.75343e-06
6.71529e-06
7.42628e-06
2.09524e-05
4.66983e-05
5.93284e-05
6.28357e-05
6.08336e-05
5.03329e-05
4.39136e-05
4.27845e-05
4.79766e-05
4.95781e-05
4.82371e-05
4.53225e-05
4.29355e-05
4.16153e-05
4.14919e-05
3.97381e-05
3.64689e-05
3.40134e-05
3.24601e-05
3.12885e-05
3.15682e-05
3.31547e-05
3.03346e-05
2.23306e-05
2.24111e-05
5.57999e-05
8.01017e-05
7.06945e-05
1.16565e-05
1.16584e-05
1.16536e-05
1.16392e-05
1.16122e-05
1.15789e-05
1.15907e-05
1.18938e-05
1.33382e-05
1.73715e-05
2.39067e-05
3.07349e-05
4.28728e-05
5.96333e-05
6.66463e-05
6.27477e-05
5.89545e-05
5.79331e-05
5.42063e-05
4.9403e-05
4.60598e-05
4.46307e-05
4.58284e-05
4.85461e-05
4.82692e-05
4.68613e-05
4.39109e-05
4.21195e-05
4.00124e-05
3.98154e-05
3.8924e-05
3.97118e-05
4.26256e-05
4.02524e-05
4.74918e-05
7.59362e-05
9.34299e-05
1.41553e-05
1.4166e-05
1.41745e-05
1.41813e-05
1.41911e-05
1.42197e-05
1.43085e-05
1.45616e-05
1.52226e-05
1.63956e-05
1.74061e-05
1.86572e-05
2.06242e-05
2.26906e-05
2.42011e-05
2.50677e-05
2.53186e-05
2.54366e-05
2.52795e-05
2.50399e-05
2.49528e-05
2.50046e-05
2.52953e-05
2.58689e-05
2.65526e-05
2.7449e-05
2.83758e-05
2.95818e-05
3.1883e-05
3.34316e-05
3.59349e-05
3.6361e-05
3.82875e-05
3.91222e-05
4.01273e-05
4.26796e-05
4.85729e-05
1.5538e-05
1.55547e-05
1.55712e-05
1.55886e-05
1.56115e-05
1.56532e-05
1.57473e-05
1.59657e-05
1.64462e-05
1.72808e-05
1.80938e-05
1.8599e-05
1.90654e-05
1.98662e-05
2.08165e-05
2.11881e-05
2.10328e-05
2.06619e-05
2.02342e-05
2.00982e-05
2.01923e-05
2.05285e-05
2.11274e-05
2.17599e-05
2.23781e-05
2.30592e-05
2.39375e-05
2.50685e-05
2.70203e-05
2.88563e-05
3.18579e-05
3.35331e-05
3.46379e-05
3.72426e-05
3.93346e-05
3.94149e-05
3.94898e-05
1.62858e-05
1.63075e-05
1.63302e-05
1.63547e-05
1.63834e-05
1.64214e-05
1.648e-05
1.65793e-05
1.67531e-05
1.7043e-05
1.74186e-05
1.78037e-05
1.81747e-05
1.85847e-05
1.90036e-05
1.93512e-05
1.94783e-05
1.94523e-05
1.93282e-05
1.93257e-05
1.94249e-05
1.97132e-05
2.0147e-05
2.06391e-05
2.12035e-05
2.1837e-05
2.2604e-05
2.35109e-05
2.48642e-05
2.62673e-05
2.84467e-05
3.0738e-05
3.32166e-05
3.58839e-05
3.75813e-05
3.86838e-05
3.9662e-05
1.6616e-05
1.66416e-05
1.66696e-05
1.67011e-05
1.67386e-05
1.67868e-05
1.6854e-05
1.69519e-05
1.70926e-05
1.72734e-05
1.74679e-05
1.76636e-05
1.78779e-05
1.81335e-05
1.84159e-05
1.86613e-05
1.88123e-05
1.89012e-05
1.89812e-05
1.9114e-05
1.93379e-05
1.96662e-05
2.00825e-05
2.0566e-05
2.11102e-05
2.17146e-05
2.2422e-05
2.32497e-05
2.43663e-05
2.5586e-05
2.71895e-05
2.90433e-05
3.09216e-05
3.38685e-05
3.61827e-05
3.82164e-05
4.03655e-05
1.66209e-05
1.66486e-05
1.66791e-05
1.67133e-05
1.67523e-05
1.67984e-05
1.6855e-05
1.69269e-05
1.70208e-05
1.71416e-05
1.72857e-05
1.74392e-05
1.7598e-05
1.77669e-05
1.79462e-05
1.81278e-05
1.82957e-05
1.8453e-05
1.86198e-05
1.88245e-05
1.90909e-05
1.94239e-05
1.9824e-05
2.02905e-05
2.08248e-05
2.1425e-05
2.21129e-05
2.28929e-05
2.38743e-05
2.49556e-05
2.62769e-05
2.79664e-05
2.94567e-05
3.19006e-05
3.40886e-05
3.60828e-05
3.8963e-05
1.63047e-05
1.63343e-05
1.63676e-05
1.64054e-05
1.64493e-05
1.65011e-05
1.65633e-05
1.66383e-05
1.67271e-05
1.68285e-05
1.69392e-05
1.70579e-05
1.71872e-05
1.73286e-05
1.74812e-05
1.76408e-05
1.78035e-05
1.79756e-05
1.81678e-05
1.83934e-05
1.86638e-05
1.89859e-05
1.93647e-05
1.98038e-05
2.03032e-05
2.08683e-05
2.15116e-05
2.2239e-05
2.31289e-05
2.41055e-05
2.5274e-05
2.67328e-05
2.80604e-05
3.00307e-05
3.2209e-05
3.37384e-05
3.66163e-05
1.55679e-05
1.55971e-05
1.56301e-05
1.56678e-05
1.57109e-05
1.57609e-05
1.58189e-05
1.58865e-05
1.59644e-05
1.60529e-05
1.61508e-05
1.6256e-05
1.6368e-05
1.64875e-05
1.66154e-05
1.6753e-05
1.69021e-05
1.70674e-05
1.72557e-05
1.74742e-05
1.77293e-05
1.80269e-05
1.83713e-05
1.87695e-05
1.9221e-05
1.97367e-05
2.03199e-05
2.097e-05
2.1769e-05
2.25834e-05
2.36391e-05
2.48321e-05
2.59744e-05
2.76376e-05
2.94358e-05
3.0712e-05
3.31924e-05
1.41946e-05
1.4222e-05
1.42531e-05
1.42887e-05
1.43296e-05
1.43768e-05
1.44314e-05
1.4494e-05
1.45651e-05
1.4644e-05
1.47297e-05
1.48213e-05
1.4919e-05
1.50235e-05
1.51358e-05
1.5257e-05
1.5389e-05
1.55359e-05
1.5702e-05
1.58923e-05
1.61107e-05
1.63627e-05
1.66507e-05
1.69841e-05
1.73546e-05
1.77893e-05
1.82613e-05
1.88055e-05
1.94687e-05
2.00833e-05
2.10277e-05
2.18787e-05
2.28838e-05
2.40807e-05
2.57357e-05
2.66224e-05
2.85858e-05
1.17094e-05
1.17342e-05
1.17626e-05
1.1795e-05
1.1832e-05
1.18743e-05
1.19224e-05
1.19768e-05
1.20376e-05
1.21047e-05
1.21772e-05
1.22546e-05
1.23363e-05
1.24227e-05
1.25144e-05
1.26126e-05
1.2719e-05
1.28364e-05
1.29681e-05
1.31177e-05
1.32872e-05
1.34808e-05
1.36973e-05
1.39504e-05
1.42171e-05
1.45549e-05
1.48722e-05
1.5298e-05
1.57715e-05
1.61393e-05
1.697e-05
1.7381e-05
1.83934e-05
1.88995e-05
2.08226e-05
2.14273e-05
2.46716e-05
6.75359e-06
6.78995e-06
6.83022e-06
6.87488e-06
6.92449e-06
6.97964e-06
7.04093e-06
7.10886e-06
7.18379e-06
7.26591e-06
7.35525e-06
7.45171e-06
7.55531e-06
7.66618e-06
7.78459e-06
7.91116e-06
8.04675e-06
8.19286e-06
8.35063e-06
8.52147e-06
8.70745e-06
8.91021e-06
9.13171e-06
9.37369e-06
9.63725e-06
9.93021e-06
1.02324e-05
1.0616e-05
1.09114e-05
1.14704e-05
1.17581e-05
1.244e-05
1.28021e-05
1.36573e-05
1.39914e-05
1.53934e-05
1.54728e-05
6.97952e-06
7.00242e-06
7.02368e-06
7.04134e-06
7.05239e-06
7.053e-06
7.04292e-06
7.03226e-06
7.07504e-06
8.92751e-06
1.64162e-05
2.49588e-05
3.80457e-05
4.29306e-05
3.50442e-05
2.52124e-05
2.16028e-05
2.03209e-05
2.06781e-05
2.30071e-05
2.53065e-05
2.62583e-05
2.71415e-05
2.81021e-05
2.74378e-05
2.579e-05
2.45703e-05
2.37568e-05
2.33371e-05
2.26353e-05
2.31532e-05
2.07565e-05
1.61639e-05
1.70894e-05
4.38403e-05
7.09569e-05
5.41388e-05
1.23086e-05
1.23098e-05
1.23051e-05
1.22919e-05
1.22678e-05
1.22365e-05
1.22298e-05
1.23731e-05
1.30733e-05
1.47295e-05
1.67193e-05
1.89007e-05
2.39822e-05
3.04312e-05
3.46219e-05
3.52781e-05
3.42516e-05
3.27297e-05
3.02407e-05
2.80786e-05
2.69405e-05
2.62379e-05
2.66968e-05
2.83092e-05
2.90444e-05
2.86979e-05
2.78036e-05
2.73507e-05
2.67565e-05
2.71024e-05
2.64052e-05
2.63013e-05
3.07127e-05
2.97551e-05
3.46488e-05
5.24358e-05
6.60935e-05
1.49503e-05
1.49602e-05
1.49685e-05
1.49761e-05
1.49877e-05
1.50179e-05
1.51026e-05
1.53189e-05
1.58212e-05
1.66774e-05
1.73277e-05
1.78917e-05
1.90463e-05
2.12962e-05
2.35276e-05
2.45574e-05
2.43535e-05
2.3713e-05
2.259e-05
2.19106e-05
2.18146e-05
2.19911e-05
2.2529e-05
2.30186e-05
2.35232e-05
2.42064e-05
2.50531e-05
2.60347e-05
2.77424e-05
2.86892e-05
3.0865e-05
3.09256e-05
3.32899e-05
3.39079e-05
3.43866e-05
3.58069e-05
3.96914e-05
1.64085e-05
1.64243e-05
1.64403e-05
1.6458e-05
1.6482e-05
1.65246e-05
1.66152e-05
1.68116e-05
1.72161e-05
1.79147e-05
1.86537e-05
1.91435e-05
1.95904e-05
2.0233e-05
2.10405e-05
2.14713e-05
2.13594e-05
2.09991e-05
2.04783e-05
2.01956e-05
2.02132e-05
2.04334e-05
2.09668e-05
2.16006e-05
2.22513e-05
2.29596e-05
2.38277e-05
2.49013e-05
2.65623e-05
2.81387e-05
3.07938e-05
3.20245e-05
3.3431e-05
3.65988e-05
3.79616e-05
3.79009e-05
3.81198e-05
1.72022e-05
1.72229e-05
1.7245e-05
1.72696e-05
1.72994e-05
1.73402e-05
1.74031e-05
1.75066e-05
1.76774e-05
1.79411e-05
1.82729e-05
1.86248e-05
1.90076e-05
1.94625e-05
1.99246e-05
2.02818e-05
2.0392e-05
2.03521e-05
2.02148e-05
2.02017e-05
2.02928e-05
2.05617e-05
2.09995e-05
2.15174e-05
2.21172e-05
2.27867e-05
2.35722e-05
2.44931e-05
2.57743e-05
2.71282e-05
2.91569e-05
3.11804e-05
3.34603e-05
3.62416e-05
3.82008e-05
3.94441e-05
4.05539e-05
1.75552e-05
1.75797e-05
1.7607e-05
1.76382e-05
1.7676e-05
1.77255e-05
1.77948e-05
1.78955e-05
1.80387e-05
1.82251e-05
1.8426e-05
1.86255e-05
1.88391e-05
1.90887e-05
1.93636e-05
1.96046e-05
1.97565e-05
1.98509e-05
1.99359e-05
2.00763e-05
2.03063e-05
2.06446e-05
2.10805e-05
2.15953e-05
2.21792e-05
2.28305e-05
2.3586e-05
2.44689e-05
2.56191e-05
2.69013e-05
2.85437e-05
3.04078e-05
3.22906e-05
3.51889e-05
3.76948e-05
3.977e-05
4.20191e-05
1.75603e-05
1.75869e-05
1.76166e-05
1.76503e-05
1.76896e-05
1.77368e-05