/*--------------------------------*- C++ -*----------------------------------*\
| =========                 |                                                 |
| \\      /  F ield         | OpenFOAM: The Open Source CFD Toolbox           |
|  \\    /   O peration     | Version:  2.3.1                                 |
|   \\  /    A nd           | Web:      www.OpenFOAM.org                      |
|    \\/     M anipulation  |                                                 |
\*---------------------------------------------------------------------------*/
FoamFile
{
    version     2.0;
    format      ascii;
    class       volScalarField;
    location    "20";
    object      k_0;
}
// * * * * * * * * * * * * * * * * * * * * * * * * * * * * * * * * * * * * * //

dimensions      [0 2 -2 0 0 0 0];

internalField   nonuniform List<scalar> 
37530
(
3.33291e-06
3.35688e-06
3.37674e-06
3.38781e-06
3.38095e-06
3.35378e-06
3.65824e-06
1.23233e-05
7.18958e-05
0.000111958
0.000112243
0.000105843
0.000106679
0.000108694
0.000105766
0.000100725
9.96405e-05
9.82341e-05
9.0307e-05
8.71428e-05
8.66174e-05
8.53693e-05
8.0051e-05
7.78913e-05
7.59471e-05
7.15356e-05
7.00571e-05
6.95673e-05
6.95315e-05
7.108e-05
7.54414e-05
7.89226e-05
7.87586e-05
8.12668e-05
8.16006e-05
7.69237e-05
6.67914e-05
4.84786e-06
4.87277e-06
4.89057e-06
4.89523e-06
4.87716e-06
4.82488e-06
4.7453e-06
5.22959e-06
1.6089e-05
4.1217e-05
5.04096e-05
5.8285e-05
6.49597e-05
6.72882e-05
6.79024e-05
6.83312e-05
6.83849e-05
7.08997e-05
7.87926e-05
8.25616e-05
7.90145e-05
7.45515e-05
8.02944e-05
8.94148e-05
9.11374e-05
8.92703e-05
8.54349e-05
8.33843e-05
8.25516e-05
8.1272e-05
7.92914e-05
9.81693e-05
0.000107468
0.000111386
0.000112543
0.000104571
9.39693e-05
5.59136e-06
5.62007e-06
5.64381e-06
5.65968e-06
5.66266e-06
5.64837e-06
5.62058e-06
5.58265e-06
6.13399e-06
9.3999e-06
1.2836e-05
1.52061e-05
1.80687e-05
2.00405e-05
1.87143e-05
1.60612e-05
1.38649e-05
1.46877e-05
2.08882e-05
2.84286e-05
2.93641e-05
2.85183e-05
3.29378e-05
4.07938e-05
4.74144e-05
5.20463e-05
5.38602e-05
5.61508e-05
6.03126e-05
6.41825e-05
6.85114e-05
7.99125e-05
9.42255e-05
0.000100433
9.56977e-05
8.60946e-05
8.14839e-05
5.99702e-06
6.0311e-06
6.06358e-06
6.0938e-06
6.1226e-06
6.15257e-06
6.19224e-06
6.26078e-06
6.3691e-06
6.73451e-06
7.28191e-06
7.72498e-06
8.1478e-06
8.56044e-06
8.68547e-06
8.7188e-06
8.72558e-06
8.76843e-06
9.02533e-06
9.86349e-06
1.06369e-05
1.11035e-05
1.20805e-05
1.39239e-05
1.56322e-05
1.66573e-05
1.70712e-05
1.79554e-05
2.07829e-05
2.87324e-05
4.36354e-05
5.61475e-05
6.53839e-05
7.40831e-05
7.16893e-05
6.59656e-05
6.13256e-05
6.20432e-06
6.24288e-06
6.28159e-06
6.3197e-06
6.35771e-06
6.39704e-06
6.44068e-06
6.49499e-06
6.56984e-06
6.6792e-06
6.83716e-06
7.02674e-06
7.2383e-06
7.47471e-06
7.72004e-06
7.95685e-06
8.14245e-06
8.27063e-06
8.37418e-06
8.5254e-06
8.74942e-06
9.02136e-06
9.32702e-06
9.72064e-06
1.01994e-05
1.06883e-05
1.11746e-05
1.17006e-05
1.23189e-05
1.33956e-05
1.61393e-05
2.29947e-05
3.24076e-05
4.43654e-05
4.46201e-05
4.23091e-05
4.29833e-05
6.29347e-06
6.33641e-06
6.38179e-06
6.43021e-06
6.48301e-06
6.54285e-06
6.61499e-06
6.70682e-06
6.82722e-06
6.98238e-06
7.17392e-06
7.38651e-06
7.59826e-06
7.81099e-06
8.0271e-06
8.24371e-06
8.44226e-06
8.63049e-06
8.81886e-06
9.03085e-06
9.28423e-06
9.55725e-06
9.8529e-06
1.01805e-05
1.05566e-05
1.09746e-05
1.14085e-05
1.18665e-05
1.23429e-05
1.29262e-05
1.35084e-05
1.46545e-05
1.67801e-05
2.15415e-05
2.67064e-05
2.76105e-05
3.01524e-05
6.30107e-06
6.34718e-06
6.39668e-06
6.45003e-06
6.50797e-06
6.57174e-06
6.64329e-06
6.72602e-06
6.8232e-06
6.93776e-06
7.07046e-06
7.21999e-06
7.38479e-06
7.56453e-06
7.75859e-06
7.96087e-06
8.16222e-06
8.35939e-06
8.56222e-06
8.78144e-06
9.03074e-06
9.31032e-06
9.61973e-06
9.9596e-06
1.03331e-05
1.07405e-05
1.11797e-05
1.16513e-05
1.21742e-05
1.26795e-05
1.33517e-05
1.37955e-05
1.47055e-05
1.5829e-05
1.72199e-05
1.98519e-05
2.06943e-05
6.22904e-06
6.27807e-06
6.33159e-06
6.39046e-06
6.45596e-06
6.52994e-06
6.6149e-06
6.71389e-06
6.8301e-06
6.96603e-06
7.12147e-06
7.29222e-06
7.47313e-06
7.66187e-06
7.85699e-06
8.05755e-06
8.26295e-06
8.4754e-06
8.70064e-06
8.94294e-06
9.20816e-06
9.49633e-06
9.81108e-06
1.01553e-05
1.05315e-05
1.09423e-05
1.13747e-05
1.18641e-05
1.23314e-05
1.29524e-05
1.34475e-05
1.4227e-05
1.47857e-05
1.59266e-05
1.66401e-05
1.79761e-05
1.98487e-05
6.0372e-06
6.08815e-06
6.14414e-06
6.20593e-06
6.27442e-06
6.35077e-06
6.43636e-06
6.53267e-06
6.641e-06
6.76189e-06
6.89538e-06
7.041e-06
7.19825e-06
7.36659e-06
7.54508e-06
7.73305e-06
7.92996e-06
8.13722e-06
8.35776e-06
8.5957e-06
8.85485e-06
9.13799e-06
9.44814e-06
9.78602e-06
1.01559e-05
1.05552e-05
1.09926e-05
1.14584e-05
1.19862e-05
1.24954e-05
1.32171e-05
1.36657e-05
1.46674e-05
1.52433e-05
1.65515e-05
1.724e-05
1.89409e-05
5.6448e-06
5.69677e-06
5.75416e-06
5.81778e-06
5.88867e-06
5.96814e-06
6.05768e-06
6.15876e-06
6.27264e-06
6.39994e-06
6.54055e-06
6.69335e-06
6.85683e-06
7.02987e-06
7.21177e-06
7.40268e-06
7.60318e-06
7.8152e-06
8.0414e-06
8.2848e-06
8.54812e-06
8.8331e-06
9.14331e-06
9.47933e-06
9.84598e-06
1.02416e-05
1.06693e-05
1.11302e-05
1.16492e-05
1.21204e-05
1.2867e-05
1.32822e-05
1.419e-05
1.50006e-05
1.55727e-05
1.71236e-05
1.79469e-05
4.90879e-06
4.96076e-06
5.01818e-06
5.0818e-06
5.15248e-06
5.23116e-06
5.31882e-06
5.41636e-06
5.5245e-06
5.64374e-06
5.7741e-06
5.91532e-06
6.06701e-06
6.2289e-06
6.40077e-06
6.58284e-06
6.7757e-06
6.98075e-06
7.19993e-06
7.43558e-06
7.69016e-06
7.96526e-06
8.2651e-06
8.58667e-06
8.9448e-06
9.30751e-06
9.76707e-06
1.01073e-05
1.07751e-05
1.10887e-05
1.19019e-05
1.22271e-05
1.29445e-05
1.40008e-05
1.42032e-05
1.5433e-05
1.66958e-05
3.37494e-06
3.41635e-06
3.46189e-06
3.51215e-06
3.56781e-06
3.6296e-06
3.6983e-06
3.77465e-06
3.85926e-06
3.95253e-06
4.05459e-06
4.16539e-06
4.28475e-06
4.41255e-06
4.5488e-06
4.6938e-06
4.84812e-06
5.01282e-06
5.18924e-06
5.37889e-06
5.58362e-06
5.80402e-06
6.04496e-06
6.29881e-06
6.59257e-06
6.86096e-06
7.26464e-06
7.49071e-06
8.08277e-06
8.23721e-06
9.1417e-06
9.14119e-06
9.99863e-06
1.05949e-05
1.07046e-05
1.15007e-05
1.30194e-05
4.92262e-06
4.94438e-06
4.96241e-06
4.97185e-06
4.96212e-06
4.91334e-06
4.93053e-06
1.07806e-05
6.84234e-05
0.00012876
0.000135196
0.000129879
0.000128794
0.000130877
0.000131132
0.000127606
0.000124262
0.000120945
0.0001159
0.000113787
0.000112831
0.000110566
0.000105272
0.000100388
9.42365e-05
8.75418e-05
8.57797e-05
8.56758e-05
8.9833e-05
9.86849e-05
0.000103101
0.000103598
8.5726e-05
0.000104464
0.000111383
0.000111451
0.0001043
7.59294e-06
7.60311e-06
7.60632e-06
7.5972e-06
7.56951e-06
7.52229e-06
7.53635e-06
8.47308e-06
2.00531e-05
6.03878e-05
0.000100072
0.00012151
0.000136508
0.000151818
0.000156375
0.00014986
0.000145947
0.000147155
0.000153694
0.000155457
0.000151001
0.000153634
0.000166383
0.000174755
0.000169178
0.000159867
0.000147242
0.000137485
0.000133012
0.000138025
0.00015517
0.000206712
0.000196748
0.000167564
0.000181914
0.000193877
0.000184404
9.29644e-06
9.31308e-06
9.32607e-06
9.33174e-06
9.32655e-06
9.30971e-06
9.28962e-06
9.34178e-06
1.01306e-05
1.39819e-05
1.90107e-05
2.15145e-05
2.41937e-05
2.68013e-05
2.56677e-05
2.46362e-05
2.39191e-05
2.38662e-05
2.60445e-05
3.04292e-05
3.27484e-05
3.49966e-05
4.03317e-05
4.99385e-05
6.23722e-05
7.73827e-05
8.68621e-05
8.71787e-05
8.7196e-05
9.12923e-05
0.000102954
0.000126241
0.000150012
0.000145833
0.000142962
0.000130709
0.000123519
1.02383e-05
1.02603e-05
1.02808e-05
1.02984e-05
1.03118e-05
1.03236e-05
1.0348e-05
1.04286e-05
1.06204e-05
1.10578e-05
1.15321e-05
1.2039e-05
1.25041e-05
1.2873e-05
1.31944e-05
1.35363e-05
1.37162e-05
1.39149e-05
1.41008e-05
1.4325e-05
1.46448e-05
1.51377e-05
1.57975e-05
1.70509e-05
1.84816e-05
2.03874e-05
2.30158e-05
2.5441e-05
2.88158e-05
3.40434e-05
4.47424e-05
6.12033e-05
8.4174e-05
9.4901e-05
9.21613e-05
8.48116e-05
7.67893e-05
1.0725e-05
1.07512e-05
1.07774e-05
1.08027e-05
1.08255e-05
1.08442e-05
1.08599e-05
1.08789e-05
1.09241e-05
1.1044e-05
1.12443e-05
1.13817e-05
1.14799e-05
1.16135e-05
1.17925e-05
1.19927e-05
1.21093e-05
1.21341e-05
1.21269e-05
1.21608e-05
1.22817e-05
1.25688e-05
1.28919e-05
1.32207e-05
1.35539e-05
1.39569e-05
1.44508e-05
1.51788e-05
1.60069e-05
1.75921e-05
1.91082e-05
2.22873e-05
2.79341e-05
3.90244e-05
4.80382e-05
4.94058e-05
5.07924e-05
1.09304e-05
1.09599e-05
1.09908e-05
1.1023e-05
1.1057e-05
1.10942e-05
1.11371e-05
1.1191e-05
1.12625e-05
1.13477e-05
1.14392e-05
1.15636e-05
1.17144e-05
1.1889e-05
1.20934e-05
1.23082e-05
1.24876e-05
1.26197e-05
1.27207e-05
1.28426e-05
1.30315e-05
1.32754e-05
1.35504e-05
1.38426e-05
1.41762e-05
1.45549e-05
1.497e-05
1.55221e-05
1.6043e-05
1.69575e-05
1.76691e-05
1.92171e-05
2.10176e-05
2.25246e-05
2.57426e-05
2.75043e-05
3.15257e-05
1.09336e-05
1.09649e-05
1.09982e-05
1.10335e-05
1.10709e-05
1.11107e-05
1.11539e-05
1.12015e-05
1.12569e-05
1.13264e-05
1.1412e-05
1.15072e-05
1.1609e-05
1.17214e-05
1.18435e-05
1.19751e-05
1.21104e-05
1.22452e-05
1.23885e-05
1.25522e-05
1.27569e-05
1.30004e-05
1.32757e-05
1.35824e-05
1.39222e-05
1.4312e-05
1.47219e-05
1.52324e-05
1.57336e-05
1.63484e-05
1.70394e-05
1.75377e-05
1.88407e-05
1.93162e-05
2.10797e-05
2.16866e-05
2.38836e-05
1.0739e-05
1.07721e-05
1.08081e-05
1.08473e-05
1.08902e-05
1.09376e-05
1.09908e-05
1.1051e-05
1.11192e-05
1.11954e-05
1.12799e-05
1.13747e-05
1.14819e-05
1.1602e-05
1.17348e-05
1.18781e-05
1.20295e-05
1.21879e-05
1.23577e-05
1.25429e-05
1.27537e-05
1.29936e-05
1.32628e-05
1.35651e-05
1.38944e-05
1.42729e-05
1.46665e-05
1.5136e-05
1.56679e-05
1.61536e-05
1.70031e-05
1.74688e-05
1.84316e-05
1.95062e-05
2.01278e-05
2.18126e-05
2.26546e-05
1.02616e-05
1.02947e-05
1.03311e-05
1.03711e-05
1.04151e-05
1.04637e-05
1.05176e-05
1.05775e-05
1.06441e-05
1.07178e-05
1.07984e-05
1.0885e-05
1.09775e-05
1.10764e-05
1.11828e-05
1.12978e-05
1.14228e-05
1.15607e-05
1.17144e-05
1.18871e-05
1.20814e-05
1.23013e-05
1.25459e-05
1.28264e-05
1.31226e-05
1.34874e-05
1.38257e-05
1.42994e-05
1.47317e-05
1.52306e-05
1.59326e-05
1.64626e-05
1.71484e-05
1.83846e-05
1.88597e-05
2.02683e-05
2.0981e-05
9.32739e-06
9.35872e-06
9.39344e-06
9.43189e-06
9.47455e-06
9.52204e-06
9.57503e-06
9.63411e-06
9.69961e-06
9.77149e-06
9.84951e-06
9.93365e-06
1.00244e-05
1.01222e-05
1.02277e-05
1.03416e-05
1.04647e-05
1.05992e-05
1.07469e-05
1.09101e-05
1.10905e-05
1.12921e-05
1.15119e-05
1.17664e-05
1.20192e-05
1.23616e-05
1.26159e-05
1.30883e-05
1.34039e-05
1.3835e-05
1.45597e-05
1.48379e-05
1.58205e-05
1.62246e-05
1.69807e-05
1.82973e-05
1.88236e-05
7.62751e-06
7.65504e-06
7.68565e-06
7.71966e-06
7.7574e-06
7.79932e-06
7.84583e-06
7.89723e-06
7.95364e-06
8.01498e-06
8.08093e-06
8.15115e-06
8.22543e-06
8.3039e-06
8.38699e-06
8.47554e-06
8.57049e-06
8.67356e-06
8.78644e-06
8.91098e-06
9.04738e-06
9.19962e-06
9.36117e-06
9.55672e-06
9.72559e-06
1.00108e-05
1.01634e-05
1.05483e-05
1.07249e-05
1.11451e-05
1.15802e-05
1.17481e-05
1.27761e-05
1.29067e-05
1.35213e-05
1.4759e-05
1.48604e-05
4.95365e-06
4.98884e-06
5.02747e-06
5.06996e-06
5.11676e-06
5.16842e-06
5.22547e-06
5.28845e-06
5.35778e-06
5.4338e-06
5.51675e-06
5.60681e-06
5.70412e-06
5.80894e-06
5.92157e-06
6.04257e-06
6.17258e-06
6.31261e-06
6.46375e-06
6.62723e-06
6.80434e-06
6.9961e-06
7.20478e-06
7.43004e-06
7.67611e-06
7.94309e-06
8.22358e-06
8.56315e-06
8.85419e-06
9.2766e-06
9.7176e-06
9.99683e-06
1.06655e-05
1.12689e-05
1.1458e-05
1.2663e-05
1.30908e-05
5.78208e-06
5.80445e-06
5.82376e-06
5.83625e-06
5.83417e-06
5.80487e-06
5.75813e-06
7.32716e-06
4.25233e-05
0.000114234
0.000120812
0.000115503
0.000117324
0.00011893
0.000113331
0.000110398
0.00011029
0.000107734
0.000101158
9.86757e-05
9.77141e-05
9.60587e-05
9.39011e-05
9.13398e-05
8.57702e-05
7.6952e-05
6.89805e-05
6.60158e-05
6.95326e-05
8.05189e-05
8.57987e-05
8.51083e-05
4.84826e-05
7.76508e-05
0.000104925
0.00010873
0.000105948
9.46614e-06
9.47176e-06
9.47026e-06
9.45787e-06
9.43056e-06
9.39794e-06
9.46346e-06
1.03471e-05
1.70104e-05
4.64003e-05
7.37861e-05
9.07509e-05
0.000113941
0.000135855
0.000145098
0.000140734
0.000130606
0.000123577
0.000121946
0.000120772
0.000119426
0.000121545
0.000131773
0.000143096
0.000144331
0.000141814
0.000137223
0.000130814
0.000120309
0.000119114
0.000122913
0.000149968
0.000147888
0.000132366
0.000163685
0.000198859
0.000194696
1.15549e-05
1.15685e-05
1.15789e-05
1.15853e-05
1.15891e-05
1.16013e-05
1.16587e-05
1.19084e-05
1.28826e-05
1.57186e-05
1.92033e-05
2.04151e-05
2.15885e-05
2.36284e-05
2.54763e-05
2.68237e-05
2.74399e-05
2.73216e-05
2.77504e-05
2.91852e-05
3.04268e-05
3.17744e-05
3.48058e-05
4.03216e-05
4.72368e-05
5.5205e-05
6.27968e-05
6.863e-05
7.1386e-05
7.34581e-05
7.57352e-05
8.27933e-05
9.87055e-05
9.88125e-05
0.000106725
0.000105762
0.000106449
1.27162e-05
1.27358e-05
1.27543e-05
1.27716e-05
1.27901e-05
1.28196e-05
1.28898e-05
1.30763e-05
1.35141e-05
1.43024e-05
1.49595e-05
1.55588e-05
1.61448e-05
1.66957e-05
1.72404e-05
1.76284e-05
1.7696e-05
1.77614e-05
1.78626e-05
1.80242e-05
1.82793e-05
1.87106e-05
1.92681e-05
1.99696e-05
2.08115e-05
2.1884e-05
2.3294e-05
2.52562e-05
2.80373e-05
3.16645e-05
3.59281e-05
4.26642e-05
4.79732e-05
5.29556e-05
5.72128e-05
5.63929e-05
5.42177e-05
1.33291e-05
1.33535e-05
1.33782e-05
1.34029e-05
1.34283e-05
1.34566e-05
1.34946e-05
1.35586e-05
1.36864e-05
1.39429e-05
1.42935e-05
1.45627e-05
1.47555e-05
1.49782e-05
1.52396e-05
1.54876e-05
1.56112e-05
1.56182e-05
1.55717e-05
1.56024e-05
1.57397e-05
1.6065e-05
1.64378e-05
1.68252e-05
1.72483e-05
1.77377e-05
1.83608e-05
1.91837e-05
2.03258e-05
2.17727e-05
2.38273e-05
2.53393e-05
2.78903e-05
3.08034e-05
3.25769e-05
3.61553e-05
3.77686e-05
1.35929e-05
1.3621e-05
1.36509e-05
1.36828e-05
1.37183e-05
1.37603e-05
1.38146e-05
1.38901e-05
1.3996e-05
1.41247e-05
1.42623e-05
1.4423e-05
1.46103e-05
1.48277e-05
1.50727e-05
1.53052e-05
1.54716e-05
1.55797e-05
1.56665e-05
1.5791e-05
1.59959e-05
1.62773e-05
1.66118e-05
1.69834e-05
1.7401e-05
1.78638e-05
1.83961e-05
1.90463e-05
1.98747e-05
2.0873e-05
2.20703e-05
2.36632e-05
2.57211e-05
2.74997e-05
2.92442e-05
3.1003e-05
3.28958e-05
1.35967e-05
1.36268e-05
1.36591e-05
1.3694e-05
1.37319e-05
1.3774e-05
1.38222e-05
1.38797e-05
1.39524e-05
1.40467e-05
1.41608e-05
1.42804e-05
1.44014e-05
1.453e-05
1.46701e-05
1.48187e-05
1.49651e-05
1.51077e-05
1.52589e-05
1.54393e-05
1.56717e-05
1.59541e-05
1.62816e-05
1.66527e-05
1.70718e-05
1.75437e-05
1.80735e-05
1.86774e-05
1.94071e-05
2.0176e-05
2.11659e-05
2.21707e-05
2.3512e-05
2.49935e-05
2.67134e-05
2.80823e-05
3.04292e-05
1.33452e-05
1.33772e-05
1.34123e-05
1.34511e-05
1.34946e-05
1.3544e-05
1.36011e-05
1.36675e-05
1.3744e-05
1.38298e-05
1.39235e-05
1.40262e-05
1.41412e-05
1.42692e-05
1.44095e-05
1.45587e-05
1.47131e-05
1.4875e-05
1.50519e-05
1.5252e-05
1.54859e-05
1.57583e-05
1.60714e-05
1.64286e-05
1.68261e-05
1.72778e-05
1.77729e-05
1.83407e-05
1.90235e-05
1.9721e-05
2.06633e-05
2.1617e-05
2.26549e-05
2.41422e-05
2.55663e-05
2.6859e-05
2.9064e-05
1.27426e-05
1.27742e-05
1.28094e-05
1.28485e-05
1.28923e-05
1.29415e-05
1.2997e-05
1.30599e-05
1.31309e-05
1.32102e-05
1.3297e-05
1.33896e-05
1.34878e-05
1.35923e-05
1.37044e-05
1.38257e-05
1.39582e-05
1.41054e-05
1.4272e-05
1.44628e-05
1.46818e-05
1.49338e-05
1.52197e-05
1.55485e-05
1.59098e-05
1.63335e-05
1.67811e-05
1.73104e-05
1.79222e-05
1.85184e-05
1.93886e-05
2.01897e-05
2.10645e-05
2.24351e-05
2.35189e-05
2.47082e-05
2.64206e-05
1.15899e-05
1.16195e-05
1.16527e-05
1.16899e-05
1.17317e-05
1.1779e-05
1.18325e-05
1.18929e-05
1.19604e-05
1.20346e-05
1.21149e-05
1.22008e-05
1.22928e-05
1.23917e-05
1.24982e-05
1.26132e-05
1.27382e-05
1.2876e-05
1.30298e-05
1.3203e-05
1.3398e-05
1.36195e-05
1.38666e-05
1.41529e-05
1.44539e-05
1.48317e-05
1.51801e-05
1.56689e-05
1.61488e-05
1.66298e-05
1.7469e-05
1.79474e-05
1.8956e-05
1.97355e-05
2.08305e-05
2.18724e-05
2.29697e-05
9.5089e-06
9.53503e-06
9.56441e-06
9.59743e-06
9.63452e-06
9.67621e-06
9.72297e-06
9.77513e-06
9.83279e-06
9.89572e-06
9.96342e-06
1.00353e-05
1.01111e-05
1.01909e-05
1.02755e-05
1.03659e-05
1.04635e-05
1.05708e-05
1.069e-05
1.08238e-05
1.09731e-05
1.11423e-05
1.13266e-05
1.15475e-05
1.17563e-05
1.20711e-05
1.22745e-05
1.27111e-05
1.29733e-05
1.34047e-05
1.40125e-05
1.42807e-05
1.5166e-05
1.55154e-05
1.65008e-05
1.73266e-05
1.81231e-05
5.81516e-06
5.85116e-06
5.89083e-06
5.9346e-06
5.98298e-06
6.03653e-06
6.09581e-06
6.16133e-06
6.23348e-06
6.31254e-06
6.39861e-06
6.49178e-06
6.59215e-06
6.69991e-06
6.81539e-06
6.93919e-06
7.07207e-06
7.21521e-06
7.36985e-06
7.53744e-06
7.71936e-06
7.91698e-06
8.13215e-06
8.36654e-06
8.61886e-06
8.90644e-06
9.17508e-06
9.58235e-06
9.81406e-06
1.03738e-05
1.06446e-05
1.11617e-05
1.17931e-05
1.22432e-05
1.25806e-05
1.40261e-05
1.42272e-05
6.34467e-06
6.36737e-06
6.38734e-06
6.40135e-06
6.40335e-06
6.38427e-06
6.34107e-06
6.4438e-06
1.35518e-05
6.78216e-05
9.17137e-05
8.67457e-05
8.73853e-05
8.89387e-05
8.12556e-05
7.64176e-05
7.80371e-05
7.98409e-05
7.63285e-05
7.08229e-05
6.83946e-05
6.64746e-05
6.50563e-05
6.43571e-05
6.05835e-05
5.49004e-05
5.04653e-05
4.71662e-05
4.37551e-05
4.57312e-05
5.31803e-05
5.12005e-05
3.21072e-05
3.76015e-05
8.13572e-05
9.30884e-05
8.97302e-05
1.07473e-05
1.07506e-05
1.07467e-05
1.07324e-05
1.07041e-05
1.0671e-05
1.07109e-05
1.12752e-05
1.42111e-05
2.64153e-05
4.27844e-05
5.30215e-05
7.32002e-05
9.6834e-05
0.00010472
0.000100642
9.42901e-05
8.56717e-05
8.02666e-05
7.68586e-05
7.48124e-05
7.57245e-05
8.05496e-05
8.62458e-05
8.64062e-05
8.46037e-05
8.05614e-05
7.75441e-05
7.24345e-05
7.12722e-05
7.12537e-05
7.97233e-05
7.8086e-05
6.82948e-05
8.49127e-05
0.000140605
0.000152868
1.307e-05
1.30818e-05
1.30909e-05
1.30973e-05
1.31046e-05
1.31277e-05
1.32104e-05
1.34855e-05
1.43222e-05
1.60345e-05
1.80905e-05
1.98884e-05
2.13533e-05
2.28934e-05
2.46412e-05
2.59325e-05
2.65865e-05
2.68403e-05
2.68487e-05
2.67535e-05
2.69407e-05
2.74576e-05
2.85755e-05
3.03708e-05
3.24986e-05
3.48864e-05
3.71519e-05
4.01458e-05
4.36072e-05
4.67155e-05
4.92621e-05
5.04048e-05
5.45034e-05
5.51133e-05
5.84838e-05
6.29315e-05
6.97331e-05
1.43596e-05
1.43775e-05
1.43948e-05
1.44121e-05
1.44332e-05
1.4471e-05
1.45602e-05
1.47816e-05
1.52975e-05
1.61848e-05
1.70006e-05
1.75046e-05
1.80505e-05
1.88489e-05
1.96632e-05
2.0039e-05
1.99552e-05
1.97321e-05
1.95856e-05
1.96275e-05
1.97988e-05
2.02117e-05
2.0805e-05
2.14323e-05
2.20577e-05
2.27725e-05
2.36917e-05
2.49672e-05
2.71731e-05
2.96326e-05
3.25939e-05
3.47781e-05
3.60459e-05
3.87976e-05
4.24687e-05
4.31774e-05
4.32559e-05
1.50503e-05
1.50733e-05
1.50969e-05
1.51214e-05
1.51486e-05
1.51825e-05
1.52331e-05
1.53204e-05
1.54836e-05
1.57819e-05
1.61742e-05
1.65372e-05
1.68345e-05
1.71507e-05
1.7499e-05
1.78119e-05
1.79518e-05
1.79495e-05
1.78685e-05
1.78837e-05
1.8006e-05
1.83223e-05
1.87355e-05
1.9183e-05
1.9688e-05
2.02621e-05
2.09761e-05
2.18495e-05
2.31802e-05
2.46176e-05
2.67985e-05
2.91647e-05
3.14063e-05
3.38338e-05
3.51192e-05
3.68003e-05
3.77953e-05
1.53521e-05
1.5379e-05
1.54079e-05
1.54397e-05
1.54764e-05
1.55222e-05
1.55845e-05
1.56745e-05
1.58036e-05
1.59663e-05
1.61401e-05
1.63232e-05
1.65308e-05
1.67767e-05
1.70486e-05
1.72902e-05
1.74457e-05
1.7539e-05
1.76217e-05
1.77509e-05
1.79676e-05
1.82773e-05
1.86595e-05
1.90952e-05
1.95833e-05
2.01238e-05
2.07567e-05
2.15031e-05
2.25218e-05
2.36404e-05
2.51186e-05
2.68554e-05
2.87991e-05
3.15244e-05
3.34517e-05
3.54661e-05
3.7331e-05
1.53566e-05
1.53855e-05
1.5417e-05
1.54515e-05
1.54901e-05
1.55345e-05
1.55875e-05
1.56535e-05
1.57391e-05
1.58503e-05
1.59839e-05
1.61239e-05
1.62663e-05
1.6417e-05
1.65786e-05
1.67461e-05
1.6905e-05
1.70559e-05
1.72156e-05
1.74096e-05
1.7662e-05
1.79735e-05
1.83422e-05
1.87669e-05
1.92506e-05
1.97932e-05
2.04131e-05
2.1113e-05
2.19973e-05
2.29416e-05
2.4126e-05
2.5579e-05
2.6935e-05
2.91331e-05
3.1037e-05
3.28636e-05
3.55364e-05
1.50682e-05
1.5099e-05
1.51333e-05
1.51717e-05
1.52156e-05
1.52666e-05
1.53268e-05
1.53984e-05
1.54823e-05
1.55772e-05
1.56805e-05
1.57922e-05
1.59154e-05
1.60512e-05
1.61986e-05
1.63535e-05
1.65118e-05
1.66784e-05
1.68627e-05
1.70763e-05
1.73299e-05
1.76296e-05
1.79789e-05
1.83811e-05
1.88348e-05
1.93482e-05
1.9926e-05
2.058e-05
2.13822e-05
2.22393e-05
2.32979e-05
2.45711e-05
2.57382e-05
2.75176e-05
2.94492e-05
3.0764e-05
3.34712e-05
1.43883e-05
1.44187e-05
1.44528e-05
1.44913e-05
1.45349e-05
1.45847e-05
1.46419e-05
1.47076e-05
1.47828e-05
1.48676e-05
1.49609e-05
1.50606e-05
1.51664e-05
1.52789e-05
1.53994e-05
1.55295e-05
1.56709e-05
1.58281e-05
1.60067e-05
1.62131e-05
1.64525e-05
1.67302e-05
1.70491e-05
1.74167e-05
1.78288e-05
1.83029e-05
1.88284e-05
1.94208e-05
2.01433e-05
2.08573e-05
2.18303e-05
2.28669e-05
2.38746e-05
2.54118e-05
2.69548e-05
2.8092e-05
3.03473e-05
1.31079e-05
1.31364e-05
1.31685e-05
1.3205e-05
1.32465e-05
1.3294e-05
1.33483e-05
1.34103e-05
1.34801e-05
1.35573e-05
1.36408e-05
1.37301e-05
1.38253e-05
1.39273e-05
1.4037e-05
1.41553e-05
1.4284e-05
1.44267e-05
1.45872e-05
1.47698e-05
1.49777e-05
1.52162e-05
1.5486e-05
1.57985e-05
1.61385e-05
1.65469e-05
1.69663e-05
1.74814e-05
1.80697e-05
1.86231e-05
1.95129e-05
2.02226e-05
2.1182e-05
2.22471e-05
2.36876e-05
2.45268e-05
2.62273e-05
1.07965e-05
1.08221e-05
1.08511e-05
1.0884e-05
1.09213e-05
1.09637e-05
1.10116e-05
1.10654e-05
1.11253e-05
1.11911e-05
1.1262e-05
1.13374e-05
1.1417e-05
1.1501e-05
1.15899e-05
1.16851e-05
1.17882e-05
1.19019e-05
1.20289e-05
1.21725e-05
1.23341e-05
1.25184e-05
1.27222e-05
1.29629e-05
1.32062e-05
1.35364e-05
1.38019e-05
1.42439e-05
1.46184e-05
1.50159e-05
1.57563e-05
1.61201e-05
1.70351e-05
1.74787e-05
1.90721e-05
1.97146e-05
2.21264e-05
6.37777e-06
6.4143e-06
6.45466e-06
6.49933e-06
6.54883e-06
6.60375e-06
6.66469e-06
6.73214e-06
6.80649e-06
6.88796e-06
6.97661e-06
7.0724e-06
7.17542e-06
7.28581e-06
7.40386e-06
7.53019e-06
7.6656e-06
7.81138e-06
7.96889e-06
8.13969e-06
8.32529e-06
8.52726e-06
8.7475e-06
8.98789e-06
9.24793e-06
9.54151e-06
9.82727e-06
1.02331e-05
1.04852e-05
1.10644e-05
1.134e-05
1.19757e-05
1.23827e-05
1.3109e-05
1.34349e-05
1.49304e-05
1.49939e-05
6.72224e-06
6.74509e-06
6.76572e-06
6.78155e-06
6.78821e-06
6.77951e-06
6.75421e-06
6.7161e-06
7.41576e-06
2.08455e-05
4.66305e-05
5.93269e-05
6.28474e-05
6.08529e-05
5.03551e-05
4.39265e-05
4.27899e-05
4.79835e-05
4.95913e-05
4.82529e-05
4.53383e-05
4.29509e-05
4.16275e-05
4.15027e-05
3.97492e-05
3.64785e-05
3.40213e-05
3.24673e-05
3.12948e-05
3.15742e-05
3.31604e-05
3.03383e-05
2.23296e-05
2.24172e-05
5.58518e-05
8.01447e-05
7.07203e-05
1.16574e-05
1.16593e-05
1.16545e-05
1.16402e-05
1.16132e-05
1.15799e-05
1.15914e-05
1.18923e-05
1.33299e-05
1.73491e-05
2.38834e-05
3.07156e-05
4.28406e-05
5.9608e-05
6.66516e-05
6.27533e-05
5.89515e-05
5.79308e-05
5.42091e-05
4.94069e-05
4.60647e-05
4.46357e-05
4.58346e-05
4.85553e-05
4.82803e-05
4.68722e-05
4.39209e-05
4.21296e-05
4.00223e-05
3.9824e-05
3.89301e-05
3.97191e-05
4.2631e-05
4.0262e-05
4.75073e-05
7.59647e-05
9.34382e-05
1.41562e-05
1.41669e-05
1.41754e-05
1.41823e-05
1.41921e-05
1.42205e-05
1.4309e-05
1.45612e-05
1.52201e-05
1.63922e-05
1.74037e-05
1.86541e-05
2.06214e-05
2.269e-05
2.42018e-05
2.50681e-05
2.53183e-05
2.54356e-05
2.52786e-05
2.50399e-05
2.49537e-05
2.5006e-05
2.52967e-05
2.58702e-05
2.65543e-05
2.74514e-05
2.83787e-05
2.95854e-05
3.18871e-05
3.34366e-05
3.59397e-05
3.63654e-05
3.82915e-05
3.91266e-05
4.01323e-05
4.26839e-05
4.85756e-05
1.55389e-05
1.55556e-05
1.55721e-05
1.55895e-05
1.56124e-05
1.5654e-05
1.57478e-05
1.59656e-05
1.6445e-05
1.72787e-05
1.80929e-05
1.85996e-05
1.90662e-05
1.98668e-05
2.08177e-05
2.11898e-05
2.10339e-05
2.06623e-05
2.02342e-05
2.00983e-05
2.01926e-05
2.0529e-05
2.11281e-05
2.17606e-05
2.2379e-05
2.30604e-05
2.39389e-05
2.50703e-05
2.70222e-05
2.88584e-05
3.18604e-05
3.35355e-05
3.46405e-05
3.72467e-05
3.93379e-05
3.94174e-05
3.94909e-05
1.62867e-05
1.63084e-05
1.63311e-05
1.63556e-05
1.63843e-05
1.64223e-05
1.64808e-05
1.658e-05
1.67534e-05
1.70429e-05
1.74185e-05
1.78039e-05
1.81753e-05
1.85855e-05
1.90045e-05
1.9352e-05
1.94789e-05
1.94529e-05
1.93285e-05
1.93261e-05
1.94253e-05
1.97138e-05
2.01476e-05
2.06397e-05
2.1204e-05
2.18376e-05
2.26047e-05
2.35118e-05
2.48652e-05
2.62684e-05
2.84478e-05
3.07389e-05
3.32183e-05
3.58863e-05
3.75836e-05
3.86863e-05
3.96641e-05
1.66169e-05
1.66425e-05
1.66705e-05
1.6702e-05
1.67395e-05
1.67876e-05
1.68547e-05
1.69526e-05
1.70932e-05
1.72738e-05
1.74684e-05
1.76642e-05
1.78785e-05
1.81341e-05
1.84166e-05
1.8662e-05
1.8813e-05
1.89018e-05
1.89817e-05
1.91145e-05
1.93384e-05
1.96667e-05
2.0083e-05
2.05665e-05
2.11106e-05
2.17151e-05
2.24225e-05
2.32502e-05
2.43669e-05
2.55866e-05
2.71902e-05
2.90439e-05
3.09226e-05
3.38701e-05
3.61843e-05
3.82187e-05
4.03678e-05
1.66218e-05
1.66495e-05
1.668e-05
1.67142e-05
1.67532e-05
1.67993e-05
1.68558e-05
1.69277e-05
1.70215e-05
1.71423e-05
1.72864e-05
1.74399e-05
1.75987e-05
1.77676e-05
1.7947e-05
1.81285e-05
1.82964e-05
1.84536e-05
1.86203e-05
1.8825e-05
1.90914e-05
1.94244e-05
1.98245e-05
2.0291e-05
2.08252e-05
2.14253e-05
2.21133e-05
2.28932e-05
2.38747e-05
2.4956e-05
2.62774e-05
2.79667e-05
2.94573e-05
3.19016e-05
3.40894e-05
3.60842e-05
3.89644e-05
1.63056e-05
1.63352e-05
1.63684e-05
1.64063e-05
1.64501e-05
1.65019e-05
1.65641e-05
1.6639e-05
1.67278e-05
1.68292e-05
1.69399e-05
1.70587e-05
1.7188e-05
1.73294e-05
1.74819e-05
1.76415e-05
1.78042e-05
1.79763e-05
1.81684e-05
1.83941e-05
1.86644e-05
1.89865e-05
1.93652e-05
1.98043e-05
2.03036e-05
2.08687e-05
2.15119e-05
2.22393e-05
2.31292e-05
2.41058e-05
2.52744e-05
2.6733e-05
2.80608e-05
3.00315e-05
3.22094e-05
3.37392e-05
3.66173e-05
1.55688e-05
1.5598e-05
1.5631e-05
1.56686e-05
1.57118e-05
1.57617e-05
1.58198e-05
1.58873e-05
1.59652e-05
1.60537e-05
1.61516e-05
1.62568e-05
1.63688e-05
1.64883e-05
1.66162e-05
1.67538e-05
1.69029e-05
1.70682e-05
1.72564e-05
1.74749e-05
1.773e-05
1.80275e-05
1.83719e-05
1.87701e-05
1.92215e-05
1.97372e-05
2.03203e-05
2.09704e-05
2.17694e-05
2.25837e-05
2.36395e-05
2.48323e-05
2.59748e-05
2.76383e-05
2.94359e-05
3.07124e-05
3.31935e-05
1.41955e-05
1.42228e-05
1.42539e-05
1.42895e-05
1.43304e-05
1.43776e-05
1.44322e-05
1.44948e-05
1.45659e-05
1.46448e-05
1.47305e-05
1.48221e-05
1.49198e-05
1.50243e-05
1.51366e-05
1.52578e-05
1.53898e-05
1.55367e-05
1.57027e-05
1.5893e-05
1.61114e-05
1.63634e-05
1.66513e-05
1.69847e-05
1.73552e-05
1.77899e-05
1.82618e-05
1.8806e-05
1.94692e-05
2.00838e-05
2.10282e-05
2.1879e-05
2.28842e-05
2.40814e-05
2.57359e-05
2.66224e-05
2.8587e-05
1.17102e-05
1.1735e-05
1.17634e-05
1.17958e-05
1.18327e-05
1.1875e-05
1.19231e-05
1.19775e-05
1.20384e-05
1.21054e-05
1.21779e-05
1.22553e-05
1.23371e-05
1.24235e-05
1.25151e-05
1.26133e-05
1.27197e-05
1.28371e-05
1.29688e-05
1.31184e-05
1.32879e-05
1.34815e-05
1.36979e-05
1.3951e-05
1.42177e-05
1.45554e-05
1.48727e-05
1.52986e-05
1.57719e-05
1.61398e-05
1.69704e-05
1.73814e-05
1.83935e-05
1.88998e-05
2.08223e-05
2.14261e-05
2.46723e-05
6.75408e-06
6.79044e-06
6.8307e-06
6.87536e-06
6.92496e-06
6.98011e-06
7.04139e-06
7.10931e-06
7.18423e-06
7.26635e-06
7.35569e-06
7.45215e-06
7.55575e-06
7.66662e-06
7.78504e-06
7.91161e-06
8.0472e-06
8.19331e-06
8.35108e-06
8.52191e-06
8.70789e-06
8.91064e-06
9.13213e-06
9.37411e-06
9.63766e-06
9.9306e-06
1.02329e-05
1.06163e-05
1.09118e-05
1.14707e-05
1.17585e-05
1.24404e-05
1.28025e-05
1.36574e-05
1.39917e-05
1.53935e-05
1.54729e-05
6.98005e-06
7.00295e-06
7.02423e-06
7.04192e-06
7.05302e-06
7.05367e-06
7.04363e-06
7.03295e-06
7.07459e-06
8.90874e-06
1.63833e-05
2.49394e-05
3.80317e-05
4.29434e-05
3.50708e-05
2.52218e-05
2.16068e-05
2.03229e-05
2.0679e-05
2.30089e-05
2.53128e-05
2.62678e-05
2.71507e-05
2.81105e-05
2.74458e-05
2.5797e-05
2.45763e-05
2.37624e-05
2.33417e-05
2.26394e-05
2.31563e-05
2.07556e-05
1.61637e-05
1.7093e-05
4.38873e-05
7.09924e-05
5.41568e-05
1.23095e-05
1.23107e-05
1.2306e-05
1.22929e-05
1.22688e-05
1.22375e-05
1.22306e-05
1.23728e-05
1.30698e-05
1.47226e-05
1.67135e-05
1.88954e-05
2.39727e-05
3.04256e-05
3.46188e-05
3.52779e-05
3.42508e-05
3.27274e-05
3.02387e-05
2.80778e-05
2.69417e-05
2.62403e-05
2.66996e-05
2.83133e-05
2.90496e-05
2.87028e-05
2.78083e-05
2.73555e-05
2.67611e-05
2.71066e-05
2.64085e-05
2.63052e-05
3.0716e-05
2.97585e-05
3.46578e-05
5.24615e-05
6.6105e-05
1.49512e-05
1.49611e-05
1.49695e-05
1.49771e-05
1.49886e-05
1.50188e-05
1.51031e-05
1.53188e-05
1.58197e-05
1.66754e-05
1.73273e-05
1.78914e-05
1.90451e-05
2.12943e-05
2.35277e-05
2.45586e-05
2.43544e-05
2.37132e-05
2.25894e-05
2.19101e-05
2.18147e-05
2.19918e-05
2.25302e-05
2.30198e-05
2.35246e-05
2.42083e-05
2.50555e-05
2.60378e-05
2.7746e-05
2.8693e-05
3.08686e-05
3.09291e-05
3.32934e-05
3.39107e-05
3.43903e-05
3.58114e-05
3.96943e-05
1.64095e-05
1.64252e-05
1.64413e-05
1.6459e-05
1.64829e-05
1.65254e-05
1.66158e-05
1.68117e-05
1.72153e-05
1.79131e-05
1.86529e-05
1.91441e-05
1.95915e-05
2.02342e-05
2.10417e-05
2.14728e-05
2.13605e-05
2.09996e-05
2.04784e-05
2.01957e-05
2.02135e-05
2.04339e-05
2.09675e-05
2.16013e-05
2.22521e-05
2.29606e-05
2.38289e-05
2.49029e-05
2.6564e-05
2.81405e-05
3.07958e-05
3.20266e-05
3.34337e-05
3.66028e-05
3.79647e-05
3.79035e-05
3.81213e-05
1.72031e-05
1.72238e-05
1.72459e-05
1.72705e-05
1.73003e-05
1.73411e-05
1.74039e-05
1.75072e-05
1.76778e-05
1.79412e-05
1.8273e-05
1.86251e-05
1.90081e-05
1.94631e-05
1.99254e-05
2.02826e-05
2.03927e-05
2.03527e-05
2.02153e-05
2.02021e-05
2.02933e-05
2.05623e-05
2.10001e-05
2.1518e-05
2.21178e-05
2.27873e-05
2.35729e-05
2.44939e-05
2.57752e-05
2.71292e-05
2.91579e-05
3.11812e-05
3.34618e-05
3.62439e-05
3.82031e-05
3.94466e-05
4.05559e-05
1.75561e-05
1.75806e-05
1.76079e-05
1.76391e-05
1.76769e-05
1.77263e-05
1.77956e-05
1.78961e-05
1.80392e-05
1.82255e-05
1.84266e-05
1.86262e-05
1.88398e-05
1.90894e-05
1.93643e-05
1.96054e-05
1.97572e-05
1.98515e-05
1.99364e-05
2.00768e-05
2.03068e-05
2.06452e-05
2.10809e-05
2.15957e-05
2.21796e-05
2.28309e-05
2.35865e-05
2.44694e-05
2.56196e-05
2.69019e-05
2.85443e-05
3.04084e-05
3.22916e-05
3.51905e-05
3.76964e-05
3.97722e-05
4.20211e-05
1.75612e-05
1.75878e-05
1.76175e-05
1.76512e-05
1.76905e-05
1.77377e-05
1.77965e-05
1.7872e-05