/*--------------------------------*- C++ -*----------------------------------*\
| =========                 |                                                 |
| \\      /  F ield         | OpenFOAM: The Open Source CFD Toolbox           |
|  \\    /   O peration     | Version:  2.3.1                                 |
|   \\  /    A nd           | Web:      www.OpenFOAM.org                      |
|    \\/     M anipulation  |                                                 |
\*---------------------------------------------------------------------------*/
FoamFile
{
    version     2.0;
    format      ascii;
    class       volScalarField;
    location    "20";
    object      nut;
}
// * * * * * * * * * * * * * * * * * * * * * * * * * * * * * * * * * * * * * //

dimensions      [0 2 -1 0 0 0 0];

internalField   nonuniform List<scalar> 
37530
(
2.3057e-06
2.31396e-06
2.32075e-06
2.32447e-06
2.32198e-06
2.31267e-06
2.42131e-06
4.49189e-06
1.07848e-05
1.33606e-05
1.33656e-05
1.29831e-05
1.30403e-05
1.31605e-05
1.29763e-05
1.2664e-05
1.25964e-05
1.25045e-05
1.1989e-05
1.17805e-05
1.17459e-05
1.16588e-05
1.12894e-05
1.1137e-05
1.09958e-05
1.06723e-05
1.0562e-05
1.05252e-05
1.05227e-05
1.06401e-05
1.09623e-05
1.12106e-05
1.11976e-05
1.13751e-05
1.13982e-05
1.10637e-05
1.03116e-05
2.78082e-06
2.78792e-06
2.79295e-06
2.79419e-06
2.7889e-06
2.77372e-06
2.75079e-06
2.89613e-06
5.11753e-06
8.12874e-06
8.9724e-06
9.64695e-06
1.01815e-05
1.03608e-05
1.04092e-05
1.04379e-05
1.04378e-05
1.06283e-05
1.12055e-05
1.14689e-05
1.12177e-05
1.08968e-05
1.13096e-05
1.19327e-05
1.20464e-05
1.19226e-05
1.16644e-05
1.15239e-05
1.14661e-05
1.1376e-05
1.124e-05
1.25096e-05
1.30832e-05
1.3317e-05
1.3385e-05
1.29011e-05
1.22294e-05
2.9865e-06
2.99413e-06
3.00041e-06
3.00457e-06
3.00529e-06
3.00141e-06
2.99398e-06
2.98404e-06
3.13367e-06
3.88411e-06
4.53005e-06
4.92891e-06
5.37297e-06
5.65532e-06
5.46215e-06
5.06e-06
4.70205e-06
4.84101e-06
5.77504e-06
6.73556e-06
6.84307e-06
6.74301e-06
7.24753e-06
8.06426e-06
8.6938e-06
9.10779e-06
9.26438e-06
9.45839e-06
9.8018e-06
1.01112e-05
1.04475e-05
1.12852e-05
1.22528e-05
1.26478e-05
1.2347e-05
1.17124e-05
1.1395e-05
3.09299e-06
3.10175e-06
3.11007e-06
3.11779e-06
3.12513e-06
3.13278e-06
3.14291e-06
3.16041e-06
3.18804e-06
3.27925e-06
3.40976e-06
3.51137e-06
3.60619e-06
3.69603e-06
3.72247e-06
3.72952e-06
3.73094e-06
3.74008e-06
3.7947e-06
3.96724e-06
4.11979e-06
4.20907e-06
4.3904e-06
4.71317e-06
4.99316e-06
5.15376e-06
5.21727e-06
5.35073e-06
5.75663e-06
6.76889e-06
8.3404e-06
9.45955e-06
1.02083e-05
1.08658e-05
1.06889e-05
1.02539e-05
9.88674e-06
3.14603e-06
3.15578e-06
3.16553e-06
3.1751e-06
3.18462e-06
3.19445e-06
3.20534e-06
3.21886e-06
3.23744e-06
3.26443e-06
3.30291e-06
3.34842e-06
3.39846e-06
3.4535e-06
3.50968e-06
3.56306e-06
3.60432e-06
3.63255e-06
3.65519e-06
3.68803e-06
3.73617e-06
3.7938e-06
3.85758e-06
3.93818e-06
4.03399e-06
4.12949e-06
4.22232e-06
4.32047e-06
4.43311e-06
4.62275e-06
5.074e-06
6.05577e-06
7.1878e-06
8.40928e-06
8.43351e-06
8.21216e-06
8.27743e-06
3.16857e-06
3.17936e-06
3.19072e-06
3.2028e-06
3.21593e-06
3.23075e-06
3.24856e-06
3.27111e-06
3.30044e-06
3.33783e-06
3.3834e-06
3.43314e-06
3.48193e-06
3.53029e-06
3.57873e-06
3.62665e-06
3.67002e-06
3.71069e-06
3.75095e-06
3.79576e-06
3.84864e-06
3.90482e-06
3.96477e-06
4.03016e-06
4.10395e-06
4.18442e-06
4.26634e-06
4.35111e-06
4.43756e-06
4.54121e-06
4.64239e-06
4.83531e-06
5.17383e-06
5.86116e-06
6.52608e-06
6.63515e-06
6.93314e-06
3.17049e-06
3.18207e-06
3.19446e-06
3.20775e-06
3.22213e-06
3.23788e-06
3.25547e-06
3.27571e-06
3.29932e-06
3.32695e-06
3.35865e-06
3.394e-06
3.43252e-06
3.47405e-06
3.51833e-06
3.56389e-06
3.60866e-06
3.65198e-06
3.69602e-06
3.74303e-06
3.7958e-06
3.85412e-06
3.91766e-06
3.98628e-06
4.06035e-06
4.13965e-06
4.22344e-06
4.31159e-06
4.40732e-06
4.49779e-06
4.61557e-06
4.69162e-06
4.84378e-06
5.02574e-06
5.24107e-06
5.62781e-06
5.74594e-06
3.15232e-06
3.1647e-06
3.17817e-06
3.19291e-06
3.20925e-06
3.2276e-06
3.24856e-06
3.27281e-06
3.30106e-06
3.3338e-06
3.37082e-06
3.411e-06
3.45304e-06
3.49635e-06
3.54056e-06
3.58544e-06
3.63083e-06
3.6772e-06
3.72574e-06
3.77726e-06
3.83287e-06
3.89239e-06
3.95638e-06
4.0252e-06
4.09909e-06
4.17829e-06
4.26005e-06
4.35076e-06
4.43561e-06
4.54595e-06
4.63202e-06
4.7644e-06
4.85702e-06
5.041e-06
5.15272e-06
5.35511e-06
5.62769e-06
3.10338e-06
3.11646e-06
3.13076e-06
3.14647e-06
3.16379e-06
3.183e-06
3.20439e-06
3.2283e-06
3.25498e-06
3.28449e-06
3.31676e-06
3.35161e-06
3.38883e-06
3.42823e-06
3.46951e-06
3.51246e-06
3.5569e-06
3.60308e-06
3.65158e-06
3.7032e-06
3.75862e-06
3.81825e-06
3.88252e-06
3.95135e-06
4.02536e-06
4.10374e-06
4.18791e-06
4.27573e-06
4.37312e-06
4.46502e-06
4.59222e-06
4.66948e-06
4.83756e-06
4.93163e-06
5.13896e-06
5.24471e-06
5.49731e-06
3.00081e-06
3.0146e-06
3.02976e-06
3.04647e-06
3.06499e-06
3.08562e-06
3.1087e-06
3.13455e-06
3.16343e-06
3.19539e-06
3.23032e-06
3.26784e-06
3.3075e-06
3.34897e-06
3.39201e-06
3.4366e-06
3.48283e-06
3.53105e-06
3.58178e-06
3.63559e-06
3.69292e-06
3.75398e-06
3.81935e-06
3.88891e-06
3.96341e-06
4.04228e-06
4.12583e-06
4.214e-06
4.31118e-06
4.39745e-06
4.53095e-06
4.60347e-06
4.75807e-06
4.89242e-06
4.98467e-06
5.22664e-06
5.35106e-06
2.79833e-06
2.81311e-06
2.82935e-06
2.84724e-06
2.86699e-06
2.88881e-06
2.91293e-06
2.93954e-06
2.96875e-06
3.00064e-06
3.03511e-06
3.072e-06
3.11115e-06
3.15238e-06
3.19558e-06
3.2407e-06
3.28783e-06
3.33721e-06
3.3892e-06
3.44422e-06
3.50269e-06
3.5648e-06
3.63129e-06
3.70127e-06
3.77769e-06
3.85351e-06
3.94755e-06
4.01566e-06
4.14629e-06
4.20617e-06
4.35767e-06
4.41684e-06
4.54421e-06
4.7267e-06
4.76065e-06
4.96164e-06
5.16121e-06
2.32027e-06
2.33446e-06
2.34998e-06
2.36699e-06
2.38568e-06
2.40627e-06
2.42895e-06
2.45391e-06
2.48128e-06
2.5111e-06
2.54333e-06
2.57785e-06
2.61453e-06
2.65324e-06
2.69389e-06
2.73649e-06
2.78111e-06
2.82796e-06
2.8773e-06
2.92941e-06
2.98465e-06
3.043e-06
3.10553e-06
3.17007e-06
3.24318e-06
3.30851e-06
3.40453e-06
3.45706e-06
3.59117e-06
3.6252e-06
3.81923e-06
3.81913e-06
3.99367e-06
4.11196e-06
4.13293e-06
4.28239e-06
4.55846e-06
5.60421e-06
5.61655e-06
5.62671e-06
5.63194e-06
5.62618e-06
5.59803e-06
5.61234e-06
8.39972e-06
2.10884e-05
2.86807e-05
2.93482e-05
2.87642e-05
2.86501e-05
2.8884e-05
2.8906e-05
2.851e-05
2.81338e-05
2.77543e-05
2.71697e-05
2.69231e-05
2.68101e-05
2.65367e-05
2.58931e-05
2.52871e-05
2.44988e-05
2.36138e-05
2.33759e-05
2.33618e-05
2.39231e-05
2.50749e-05
2.56284e-05
2.56887e-05
2.33609e-05
2.57937e-05
2.66331e-05
2.66386e-05
2.57655e-05
1.2584e-05
1.25509e-05
1.24847e-05
1.23594e-05
1.21338e-05
1.17334e-05
1.11071e-05
1.05338e-05
1.01085e-05
1.64957e-05
2.31854e-05
2.68004e-05
2.98397e-05
3.34458e-05
3.55604e-05
3.61048e-05
3.60898e-05
3.62392e-05
3.71271e-05
3.74287e-05
3.69236e-05
3.70201e-05
3.78601e-05
3.876e-05
3.83751e-05
3.81639e-05
3.77871e-05
3.77385e-05
3.82477e-05
3.97009e-05
4.06756e-05
4.18434e-05
4.05979e-05
3.83698e-05
4.1377e-05
4.5945e-05
4.66077e-05
1.64411e-05
1.642e-05
1.63781e-05
1.62876e-05
1.61114e-05
1.57918e-05
1.52337e-05
1.43185e-05
1.25271e-05
8.3122e-06
7.75261e-06
7.9035e-06
8.28693e-06
9.00258e-06
9.41775e-06
1.00259e-05
1.04631e-05
1.03879e-05
1.05751e-05
1.12295e-05
1.20458e-05
1.26115e-05
1.32932e-05
1.42778e-05
1.63408e-05
2.0225e-05
2.38884e-05
2.47168e-05
2.49663e-05
2.67292e-05
3.02516e-05
3.44002e-05
3.65097e-05
3.69911e-05
3.7573e-05
3.75602e-05
3.78377e-05
1.85653e-05
1.85518e-05
1.85258e-05
1.84761e-05
1.83777e-05
1.82099e-05
1.79556e-05
1.76292e-05
1.7137e-05
1.62697e-05
1.50696e-05
1.51544e-05
1.51815e-05
1.49289e-05
1.5103e-05
1.59016e-05
1.63439e-05
1.64691e-05
1.59105e-05
1.45087e-05
1.37438e-05
1.36174e-05
1.29568e-05
1.19656e-05
1.14377e-05
1.17314e-05
1.22367e-05
1.24639e-05
1.26496e-05
1.20125e-05
1.22152e-05
1.53968e-05
2.19764e-05
2.72112e-05
2.78767e-05
2.84581e-05
2.85609e-05
1.97044e-05
1.96987e-05
1.96839e-05
1.96549e-05
1.95922e-05
1.94711e-05
1.92688e-05
1.89666e-05
1.85755e-05
1.81647e-05
1.78343e-05
1.75282e-05
1.73049e-05
1.72706e-05
1.75167e-05
1.79336e-05
1.81655e-05
1.81458e-05
1.80257e-05
1.78893e-05
1.77753e-05
1.80167e-05
1.8208e-05
1.81259e-05
1.78843e-05
1.78656e-05
1.79328e-05
1.78494e-05
1.68412e-05
1.56142e-05
1.29662e-05
1.04168e-05
9.34503e-06
1.11929e-05
1.49566e-05
1.62529e-05
1.82448e-05
2.02024e-05
2.0204e-05
2.02007e-05
2.01906e-05
2.01718e-05
2.01424e-05
2.0096e-05
2.00374e-05
1.99895e-05
1.99688e-05
1.99982e-05
2.0124e-05
2.02792e-05
2.04564e-05
2.06847e-05
2.09369e-05
2.1128e-05
2.12153e-05
2.12023e-05
2.11808e-05
2.12534e-05
2.1407e-05
2.15838e-05
2.17534e-05
2.19767e-05
2.22369e-05
2.25311e-05
2.28023e-05
2.2798e-05
2.27667e-05
2.20361e-05
2.04703e-05
1.86599e-05
1.36591e-05
1.29592e-05
1.24322e-05
1.30278e-05
2.02093e-05
2.02156e-05
2.02192e-05
2.02185e-05
2.02115e-05
2.01965e-05
2.01711e-05
2.0126e-05
2.00652e-05
2.00085e-05
1.9976e-05
1.99767e-05
2.00175e-05
2.0102e-05
2.01885e-05
2.02897e-05
2.04016e-05
2.05058e-05
2.06225e-05
2.07604e-05
2.09554e-05
2.12017e-05
2.14789e-05
2.17869e-05
2.21217e-05
2.25117e-05
2.29003e-05
2.3377e-05
2.37922e-05
2.40383e-05
2.47986e-05
2.38707e-05
2.53685e-05
2.30186e-05
2.1632e-05
2.09258e-05
1.8902e-05
1.97349e-05
1.97467e-05
1.97586e-05
1.97701e-05
1.97813e-05
1.97927e-05
1.98055e-05
1.98223e-05
1.98464e-05
1.98808e-05
1.99321e-05
2.00045e-05
2.00957e-05
2.02042e-05
2.03261e-05
2.04563e-05
2.05937e-05
2.07302e-05
2.08739e-05
2.10265e-05
2.12115e-05
2.14319e-05
2.16832e-05
2.19704e-05
2.22813e-05
2.26461e-05
2.30141e-05
2.34383e-05
2.39693e-05
2.41697e-05
2.5274e-05
2.50003e-05
2.62212e-05
2.68409e-05
2.59647e-05
2.84534e-05
2.57987e-05
1.8615e-05
1.86291e-05
1.86447e-05
1.86616e-05
1.86797e-05
1.86991e-05
1.87201e-05
1.87432e-05
1.87693e-05
1.87991e-05
1.88318e-05
1.88671e-05
1.89063e-05
1.89517e-05
1.9006e-05
1.90711e-05
1.91505e-05
1.92473e-05
1.9365e-05
1.95063e-05
1.96731e-05
1.98714e-05
2.00958e-05
2.03666e-05
2.06376e-05
2.10166e-05
2.1282e-05
2.18284e-05
2.21103e-05
2.26316e-05
2.34023e-05
2.34411e-05
2.44236e-05
2.5438e-05
2.54048e-05
2.72335e-05
2.67864e-05
1.65062e-05
1.65204e-05
1.65368e-05
1.65557e-05
1.65772e-05
1.66021e-05
1.66314e-05
1.66657e-05
1.67059e-05
1.67524e-05
1.68051e-05
1.68638e-05
1.69286e-05
1.69993e-05
1.70762e-05
1.71599e-05
1.72519e-05
1.73546e-05
1.74702e-05
1.76015e-05
1.77506e-05
1.79231e-05
1.81103e-05
1.83399e-05
1.85443e-05
1.8884e-05
1.90305e-05
1.95631e-05
1.9689e-05
2.01318e-05
2.08972e-05
2.08018e-05
2.22481e-05
2.17248e-05
2.25215e-05
2.42392e-05
2.39855e-05
1.2664e-05
1.26765e-05
1.26916e-05
1.27096e-05
1.27306e-05
1.2755e-05
1.27829e-05
1.28142e-05
1.2848e-05
1.28832e-05
1.29186e-05
1.29532e-05
1.29864e-05
1.30186e-05
1.30504e-05
1.30835e-05
1.31195e-05
1.3161e-05
1.32101e-05
1.32691e-05
1.3337e-05
1.34194e-05
1.35038e-05
1.36298e-05
1.36941e-05
1.39309e-05
1.39467e-05
1.42862e-05
1.42653e-05
1.4623e-05
1.50166e-05
1.47057e-05
1.63757e-05
1.54334e-05
1.55474e-05
1.78719e-05
1.68105e-05
5.62194e-06
5.64188e-06
5.66369e-06
5.68759e-06
5.7138e-06
5.74259e-06
5.77422e-06
5.80894e-06
5.84691e-06
5.88827e-06
5.93307e-06
5.98131e-06
6.03302e-06
6.08821e-06
6.14696e-06
6.20946e-06
6.27592e-06
6.34673e-06
6.42228e-06
6.50301e-06
6.58935e-06
6.68159e-06
6.78053e-06
6.88575e-06
6.99887e-06
7.11959e-06
7.2442e-06
7.39235e-06
7.51689e-06
7.69409e-06
7.87515e-06
7.98739e-06
8.2497e-06
8.48105e-06
8.55133e-06
8.98912e-06
9.14117e-06
6.07383e-06
6.08554e-06
6.0956e-06
6.10204e-06
6.10078e-06
6.08515e-06
6.06114e-06
6.88441e-06
1.67176e-05
2.70378e-05
2.77449e-05
2.71298e-05
2.73543e-05
2.75324e-05
2.68672e-05
2.65245e-05
2.65119e-05
2.61969e-05
2.53865e-05
2.50746e-05
2.49512e-05
2.47373e-05
2.44585e-05
2.41229e-05
2.33755e-05
2.21417e-05
2.09646e-05
2.05097e-05
2.10491e-05
2.26503e-05
2.3381e-05
2.3289e-05
1.75698e-05
2.22335e-05
2.58516e-05
2.63176e-05
2.59779e-05
2.07462e-05
2.06963e-05
2.05984e-05
2.04186e-05
2.00924e-05
1.95141e-05
1.86083e-05
1.76398e-05
1.46971e-05
1.57086e-05
2.09851e-05
2.54209e-05
3.04596e-05
3.49432e-05
3.81144e-05
3.98054e-05
4.05876e-05
4.0745e-05
4.05116e-05
4.0174e-05
3.97395e-05
3.88553e-05
3.83306e-05
3.91248e-05
3.95433e-05
3.97718e-05
4.02374e-05
4.04055e-05
3.97027e-05
4.12011e-05
4.24297e-05
4.50447e-05
4.41035e-05
4.11327e-05
4.29382e-05
4.95422e-05
5.16225e-05
2.96143e-05
2.96072e-05
2.95708e-05
2.94836e-05
2.9312e-05
2.90036e-05
2.84657e-05
2.76374e-05
2.58099e-05
1.65371e-05
1.21306e-05
1.13868e-05
1.11457e-05
1.13553e-05
1.24173e-05
1.40371e-05
1.54061e-05
1.57963e-05
1.5788e-05
1.61206e-05
1.689e-05
1.72322e-05
1.7464e-05
1.76644e-05
1.8215e-05
1.97773e-05
2.23622e-05
2.50256e-05
2.67167e-05
2.82748e-05
2.98755e-05
3.25483e-05
3.64856e-05
3.76513e-05
3.79977e-05
3.72769e-05
3.87031e-05
3.46982e-05
3.47144e-05
3.47103e-05
3.46744e-05
3.45903e-05
3.4444e-05
3.42418e-05
3.40212e-05
3.3768e-05
3.2985e-05
3.06967e-05
3.04181e-05
3.02432e-05
2.96049e-05
2.93183e-05
2.97514e-05
3.00003e-05
2.99112e-05
2.93047e-05
2.80758e-05
2.73693e-05
2.72083e-05
2.65171e-05
2.50698e-05
2.3608e-05
2.25845e-05
2.18241e-05
2.13533e-05
2.09499e-05
2.00363e-05
1.92702e-05
1.90848e-05
2.04663e-05
2.36538e-05
2.72697e-05
2.80683e-05
2.98177e-05
3.7523e-05
3.75602e-05
3.7584e-05
3.75865e-05
3.75553e-05
3.74734e-05
3.73248e-05
3.71024e-05
3.68362e-05
3.66312e-05
3.64377e-05
3.62085e-05
3.6026e-05
3.59996e-05
3.62571e-05
3.67045e-05
3.70937e-05
3.71588e-05
3.70418e-05
3.69611e-05
3.69464e-05
3.73189e-05
3.7714e-05
3.78256e-05
3.78011e-05
3.78463e-05
3.80202e-05
3.76366e-05
3.73006e-05
3.43524e-05
3.3352e-05
2.67754e-05
2.31372e-05
2.00795e-05
2.08318e-05
2.4617e-05
2.70809e-05
3.87901e-05
3.88453e-05
3.88955e-05
3.89381e-05
3.89707e-05
3.8993e-05
3.90091e-05
3.9031e-05
3.90803e-05
3.91629e-05
3.93662e-05
3.97245e-05
4.0154e-05
4.0635e-05
4.11796e-05
4.17224e-05
4.2169e-05
4.24949e-05
4.26966e-05
4.29492e-05
4.33524e-05
4.38736e-05
4.44785e-05
4.51149e-05
4.58307e-05
4.6579e-05
4.74549e-05
4.80623e-05
4.88525e-05
4.81205e-05
4.87113e-05
4.62457e-05
4.62556e-05
3.90145e-05
3.75335e-05
3.56331e-05
3.47554e-05
3.88098e-05
3.8876e-05
3.89419e-05
3.90055e-05
3.90647e-05
3.91174e-05
3.91627e-05
3.92032e-05
3.92554e-05
3.93375e-05
3.94631e-05
3.96235e-05
3.98285e-05
4.0097e-05
4.04319e-05
4.08208e-05
4.1239e-05
4.16587e-05
4.21056e-05
4.26111e-05
4.32315e-05
4.39586e-05
4.47759e-05
4.56794e-05
4.66666e-05
4.77416e-05
4.89202e-05
5.01023e-05
5.15041e-05
5.21879e-05
5.4281e-05
5.36307e-05
5.60441e-05
5.51203e-05
5.45294e-05
5.51024e-05
5.34404e-05
3.76021e-05
3.76789e-05
3.77611e-05
3.7849e-05
3.79435e-05
3.80471e-05
3.81634e-05
3.82973e-05
3.84521e-05
3.86355e-05
3.88582e-05
3.9128e-05
3.94436e-05
3.98001e-05
4.0193e-05
4.06112e-05
4.10491e-05
4.15007e-05
4.19843e-05
4.25117e-05
4.31184e-05
4.38112e-05
4.45892e-05
4.54588e-05
4.64118e-05
4.74694e-05
4.8607e-05
4.98456e-05
5.12792e-05
5.24457e-05
5.45929e-05
5.53379e-05
5.78373e-05
5.97349e-05
6.03026e-05
6.29587e-05
6.41577e-05
3.48214e-05
3.48986e-05
3.49837e-05
3.50775e-05
3.51808e-05
3.52951e-05
3.54221e-05
3.55636e-05
3.57213e-05
3.58948e-05
3.60826e-05
3.6284e-05
3.65022e-05
3.67421e-05
3.70085e-05
3.73057e-05
3.76391e-05
3.80142e-05
3.84398e-05
3.89247e-05
3.94767e-05
4.01058e-05
4.08122e-05
4.16154e-05
4.24816e-05
4.34938e-05
4.44898e-05
4.57776e-05
4.69416e-05
4.83535e-05
5.02258e-05
5.11317e-05
5.36011e-05
5.56094e-05
5.70759e-05
5.99873e-05
6.19617e-05
2.97678e-05
2.9836e-05
2.99131e-05
3e-05
3.00981e-05
3.02094e-05
3.03359e-05
3.04792e-05
3.06406e-05
3.08199e-05
3.10161e-05
3.12281e-05
3.14556e-05
3.1699e-05
3.19589e-05
3.22371e-05
3.25371e-05
3.28656e-05
3.32289e-05
3.36343e-05
3.40877e-05
3.45982e-05
3.51615e-05
3.58049e-05
3.64724e-05
3.7304e-05
3.80181e-05
3.91436e-05
3.99313e-05
4.11106e-05
4.27997e-05
4.30634e-05
4.62417e-05
4.61513e-05
4.84704e-05
5.11478e-05
5.19047e-05
2.09266e-05
2.09698e-05
2.102e-05
2.1078e-05
2.11446e-05
2.12208e-05
2.1307e-05
2.14032e-05
2.15084e-05
2.16207e-05
2.17373e-05
2.18559e-05
2.19751e-05
2.20951e-05
2.22171e-05
2.2344e-05
2.24793e-05
2.2629e-05
2.27978e-05
2.29905e-05
2.32078e-05
2.34572e-05
2.37281e-05
2.40606e-05
2.43563e-05
2.48545e-05
2.50906e-05
2.58555e-05
2.60037e-05
2.69119e-05
2.77067e-05
2.77744e-05
3.00318e-05
2.88489e-05
3.07731e-05
3.25271e-05
3.15972e-05
6.09126e-06
6.1101e-06
6.13079e-06
6.15354e-06
6.17859e-06
6.2062e-06
6.23661e-06
6.27006e-06
6.30669e-06
6.34658e-06
6.38972e-06
6.43608e-06
6.48566e-06
6.53847e-06
6.59459e-06
6.65422e-06
6.71765e-06
6.78531e-06
6.85766e-06
6.93521e-06
7.01843e-06
7.10772e-06
7.20369e-06
7.30681e-06
7.41619e-06
7.53897e-06
7.65177e-06
7.81993e-06
7.91386e-06
8.13641e-06
8.24205e-06
8.43966e-06
8.67526e-06
8.84007e-06
8.96016e-06
9.46084e-06
9.52921e-06
6.36252e-06
6.37387e-06
6.38381e-06
6.39073e-06
6.39158e-06
6.38185e-06
6.36008e-06
6.41736e-06
9.42587e-06
2.09515e-05
2.41835e-05
2.35121e-05
2.36124e-05
2.38169e-05
2.27492e-05
2.20696e-05
2.23076e-05
2.25591e-05
2.20532e-05
2.12455e-05
2.08782e-05
2.05822e-05
2.03628e-05
2.02533e-05
1.96496e-05
1.87067e-05
1.79367e-05
1.7341e-05
1.67023e-05
1.70743e-05
1.84104e-05
1.80673e-05
1.43159e-05
1.54722e-05
2.27577e-05
2.4353e-05
2.39162e-05
2.61616e-05
2.60937e-05
2.59685e-05
2.57484e-05
2.536e-05
2.4687e-05
2.36173e-05
2.2333e-05
2.07715e-05
1.55536e-05
1.69366e-05
2.02097e-05
2.56191e-05
3.10645e-05
3.3587e-05
3.51374e-05
3.69639e-05
3.72975e-05
3.65092e-05
3.55749e-05
3.52348e-05
3.47842e-05
3.41746e-05
3.29347e-05
3.23803e-05
3.22306e-05
3.19954e-05
3.2374e-05
3.27855e-05
3.3825e-05
3.45189e-05
3.55765e-05
3.44089e-05
3.03251e-05
3.11173e-05
4.05227e-05
4.50922e-05
3.9537e-05
3.95378e-05
3.95036e-05
3.94121e-05
3.92311e-05
3.8915e-05
3.84011e-05
3.7644e-05
3.64274e-05
3.06251e-05
2.22034e-05
1.994e-05
1.87636e-05
1.77264e-05
1.78733e-05
1.95337e-05
2.10374e-05
2.22697e-05
2.24777e-05
2.22982e-05
2.26719e-05
2.3096e-05
2.30263e-05
2.20232e-05
2.10375e-05
2.09843e-05
2.16806e-05
2.31514e-05
2.50468e-05
2.66332e-05
2.84029e-05
2.93502e-05
3.13406e-05
3.2122e-05
3.34481e-05
3.15658e-05
3.17493e-05
4.758e-05
4.76223e-05
4.76413e-05
4.76245e-05
4.75573e-05
4.74312e-05
4.72603e-05
4.71163e-05
4.71433e-05
4.70153e-05
4.58428e-05
4.48374e-05
4.42711e-05
4.34787e-05
4.28727e-05
4.26474e-05
4.2619e-05
4.24229e-05
4.18019e-05
4.13428e-05
4.08102e-05
4.07069e-05
4.04204e-05
3.95079e-05
3.83013e-05
3.72687e-05
3.65652e-05
3.57936e-05
3.54974e-05
3.28889e-05
3.26601e-05
2.97554e-05
3.01957e-05
3.30054e-05
3.65086e-05
3.77136e-05
3.83072e-05
5.2173e-05
5.22495e-05
5.23124e-05
5.2353e-05
5.23604e-05
5.23226e-05
5.2232e-05
5.20957e-05
5.19594e-05
5.19623e-05
5.20221e-05
5.20485e-05
5.20509e-05
5.21142e-05
5.23648e-05
5.27579e-05
5.32424e-05
5.33912e-05
5.35082e-05
5.35906e-05
5.38122e-05
5.43006e-05
5.48336e-05
5.52933e-05
5.56996e-05
5.6084e-05
5.66739e-05
5.67188e-05
5.72276e-05
5.4603e-05
5.53795e-05
5.09463e-05
4.8112e-05
4.62133e-05
4.63649e-05
4.87522e-05
5.05934e-05
5.42674e-05
5.43713e-05
5.44724e-05
5.45682e-05
5.46569e-05
5.47402e-05
5.48267e-05
5.49344e-05
5.50923e-05
5.52984e-05
5.56314e-05
5.61175e-05
5.66992e-05
5.736e-05
5.80706e-05
5.87358e-05
5.93117e-05
5.97999e-05
6.02142e-05
6.07477e-05
6.14959e-05
6.23125e-05
6.32667e-05
6.43091e-05
6.54418e-05
6.66222e-05
6.7977e-05
6.90999e-05
7.05887e-05
7.03653e-05
7.23427e-05
7.07303e-05
7.19837e-05
6.92293e-05
6.93601e-05
6.87945e-05
6.85476e-05
5.42975e-05
5.44167e-05
5.45393e-05
5.46639e-05
5.47892e-05
5.49151e-05
5.50433e-05
5.51822e-05
5.53516e-05
5.55742e-05
5.58583e-05
5.61797e-05
5.65546e-05
5.70049e-05
5.75405e-05
5.81439e-05
5.87824e-05
5.94334e-05
6.01272e-05
6.09108e-05
6.18491e-05
6.29231e-05
6.4135e-05
6.54812e-05
6.69512e-05
6.85382e-05
7.02814e-05
7.20699e-05
7.4169e-05
7.561e-05
7.84876e-05
7.92503e-05
8.19605e-05
8.3538e-05
8.48926e-05
8.72677e-05
8.73679e-05
5.22912e-05
5.24232e-05
5.25661e-05
5.27211e-05
5.28903e-05
5.30774e-05
5.32874e-05
5.35261e-05
5.37976e-05
5.41072e-05
5.44633e-05
5.48759e-05
5.53443e-05
5.58644e-05
5.64312e-05
5.70322e-05
5.76621e-05
5.83246e-05
5.90447e-05
5.98442e-05
6.07581e-05
6.17974e-05
6.29653e-05
6.42675e-05
6.56967e-05
6.72704e-05
6.89808e-05
7.08562e-05
7.29673e-05
7.4986e-05
7.78474e-05
7.97483e-05
8.30745e-05
8.60231e-05
8.85736e-05
9.14155e-05
9.51102e-05
4.77603e-05
4.78866e-05
4.80267e-05
4.81823e-05
4.83554e-05
4.85486e-05
4.87648e-05
4.90065e-05
4.92751e-05
4.95695e-05
4.98861e-05
5.02224e-05
5.05815e-05
5.09696e-05
5.1393e-05
5.18571e-05
5.2368e-05
5.29357e-05
5.35739e-05
5.42965e-05
5.51149e-05
5.60418e-05
5.70819e-05
5.82527e-05
5.95321e-05
6.09796e-05
6.24889e-05
6.42916e-05
6.6079e-05
6.81859e-05
7.06907e-05
7.25962e-05
7.59059e-05
7.86475e-05
8.18123e-05
8.46736e-05
8.88788e-05
3.97582e-05
3.98616e-05
3.99788e-05
4.01115e-05
4.02622e-05
4.04333e-05
4.06276e-05
4.0847e-05
4.10919e-05
4.13609e-05
4.16508e-05
4.19583e-05
4.22829e-05
4.26249e-05
4.29856e-05
4.33683e-05
4.37781e-05
4.42259e-05
4.47215e-05
4.52762e-05
4.58981e-05
4.65985e-05
4.73772e-05
4.82581e-05
4.91995e-05
5.03136e-05
5.13789e-05
5.28462e-05
5.40549e-05
5.57493e-05
5.78106e-05
5.88465e-05
6.22965e-05
6.3279e-05
6.68938e-05
6.89321e-05
7.18661e-05
2.64217e-05
2.64775e-05
2.65431e-05
2.66197e-05
2.67086e-05
2.6811e-05
2.69277e-05
2.70584e-05
2.72017e-05
2.73544e-05
2.75125e-05
2.76721e-05
2.78309e-05
2.79888e-05
2.81471e-05
2.83094e-05
2.84803e-05
2.86679e-05
2.88787e-05
2.91209e-05
2.93962e-05
2.97134e-05
3.00645e-05
3.04848e-05
3.08942e-05
3.14952e-05
3.18648e-05
3.28098e-05
3.31426e-05
3.4071e-05
3.53375e-05
3.56045e-05
3.8209e-05
3.70756e-05
4.03861e-05
4.13225e-05
4.30958e-05
6.37918e-06
6.39743e-06
6.41754e-06
6.43972e-06
6.46422e-06
6.49129e-06
6.52119e-06
6.55413e-06
6.59025e-06
6.62959e-06
6.67213e-06
6.71779e-06
6.76656e-06
6.81841e-06
6.87344e-06
6.93184e-06
6.9939e-06
7.06011e-06
7.13095e-06
7.20699e-06
7.28871e-06
7.37662e-06
7.47131e-06
7.5733e-06
7.68211e-06
7.80315e-06
7.9191e-06
8.08112e-06
8.18e-06
8.40294e-06
8.50701e-06
8.7422e-06
8.88948e-06
9.14715e-06
9.25947e-06
9.76155e-06
9.78243e-06
6.54916e-06
6.56026e-06
6.57024e-06
6.57786e-06
6.58099e-06
6.57662e-06
6.56423e-06
6.54563e-06
6.89931e-06
1.16532e-05
1.73019e-05
1.94601e-05
2.00207e-05
1.96953e-05
1.79117e-05
1.67342e-05
1.65219e-05
1.74951e-05
1.77815e-05
1.75378e-05
1.69992e-05
1.65452e-05
1.62904e-05
1.62671e-05
1.59191e-05
1.52506e-05
1.47289e-05
1.43889e-05
1.41273e-05
1.41905e-05
1.45432e-05
1.39119e-05
1.19392e-05
1.1955e-05
1.88455e-05
2.25927e-05
2.12301e-05
2.99342e-05
2.98494e-05
2.97036e-05
2.94577e-05
2.90395e-05
2.83372e-05
2.72316e-05
2.5777e-05
2.44611e-05
2.11693e-05
1.7703e-05
1.73466e-05
2.1179e-05
2.69684e-05
2.95521e-05
3.01794e-05
3.19107e-05
3.36018e-05
3.29271e-05
3.20591e-05
3.03997e-05
2.91401e-05
2.90454e-05
2.88077e-05
2.77366e-05
2.72276e-05
2.67377e-05
2.70444e-05
2.77143e-05
2.83147e-05
2.9158e-05
2.92001e-05
3.08168e-05
2.83998e-05
2.62372e-05
2.88073e-05
3.24487e-05
4.70243e-05
4.70236e-05
4.69858e-05
4.68894e-05
4.67044e-05
4.63928e-05
4.59092e-05
4.5227e-05
4.4252e-05
4.2127e-05
3.65154e-05
3.1906e-05
2.87954e-05
2.69212e-05
2.65949e-05
2.81703e-05
2.94827e-05
3.08364e-05
3.07398e-05
3.06033e-05
3.07687e-05
3.08751e-05
3.0834e-05
3.03398e-05
2.95163e-05
2.93762e-05
2.99115e-05
3.08526e-05
3.23046e-05
3.28034e-05
3.40922e-05
3.47884e-05
3.69857e-05
3.81252e-05
3.76934e-05
3.50839e-05
2.98761e-05
5.77378e-05
5.77919e-05
5.78222e-05
5.78162e-05
5.77611e-05
5.76515e-05
5.75076e-05
5.74033e-05
5.75023e-05
5.7745e-05
5.74998e-05
5.68238e-05
5.5904e-05
5.51955e-05
5.46526e-05
5.42233e-05
5.40993e-05
5.39238e-05
5.36421e-05
5.33144e-05
5.31994e-05
5.30948e-05
5.30384e-05
5.27969e-05
5.24284e-05
5.21668e-05
5.22613e-05
5.23667e-05
5.25995e-05
5.0613e-05
5.12817e-05
4.84972e-05
4.94223e-05
5.30352e-05
5.44946e-05
5.38186e-05
5.23237e-05
6.40132e-05
6.41122e-05
6.41987e-05
6.42649e-05
6.43018e-05
6.43014e-05
6.42629e-05
6.42018e-05
6.41673e-05
6.42703e-05
6.453e-05
6.48164e-05
6.50272e-05
6.52864e-05
6.56226e-05
6.60216e-05
6.65406e-05
6.67324e-05
6.70295e-05
6.73388e-05
6.76609e-05
6.8321e-05
6.89844e-05
6.97279e-05
7.05233e-05
7.13466e-05
7.23718e-05
7.31446e-05
7.41368e-05
7.31674e-05
7.46332e-05
7.26161e-05
7.24669e-05
7.29247e-05
7.35444e-05
7.48068e-05
7.64806e-05
6.69178e-05
6.70514e-05
6.71846e-05
6.73156e-05
6.7444e-05
6.75735e-05
6.77158e-05
6.78925e-05
6.81342e-05
6.84413e-05
6.88514e-05
6.93944e-05
7.00407e-05
7.07882e-05
7.15817e-05
7.23007e-05
7.29379e-05
7.35047e-05
7.40483e-05
7.47649e-05
7.5733e-05
7.67487e-05
7.79317e-05
7.92542e-05
8.06888e-05
8.22085e-05
8.39179e-05
8.55697e-05
8.75222e-05
8.83828e-05
9.09952e-05
9.10491e-05
9.34819e-05
9.41428e-05
9.58684e-05
9.68237e-05
9.79932e-05
6.69561e-05
6.71078e-05
6.72663e-05
6.74309e-05
6.76017e-05
6.77805e-05
6.79718e-05
6.81877e-05
6.84501e-05
6.8781e-05
6.91831e-05
6.96306e-05
7.01309e-05
7.07092e-05
7.13712e-05
7.20939e-05
7.28452e-05
7.3614e-05
7.44394e-05
7.53768e-05
7.64944e-05
7.77681e-05
7.92133e-05
8.08299e-05
8.25987e-05
8.45077e-05
8.65995e-05
8.88131e-05
9.13475e-05
9.35309e-05
9.68823e-05
9.88883e-05
0.000102389
0.000105398
0.000108403
0.000111779
0.000113772
6.41618e-05
6.4327e-05
6.45075e-05
6.47052e-05
6.49234e-05
6.51669e-05
6.54419e-05
6.57538e-05
6.61054e-05
6.65003e-05
6.69431e-05
6.74415e-05
6.7996e-05
6.86039e-05
6.92608e-05
6.99543e-05
7.06801e-05
7.14509e-05
7.22971e-05
7.32471e-05
7.43353e-05
7.5571e-05
7.69617e-05
7.85151e-05
8.02271e-05
8.21114e-05
8.41682e-05
8.64385e-05
8.89638e-05
9.15696e-05
9.48571e-05
9.76526e-05
0.000101649
0.000105255
0.000109197
0.000112834
0.000117357
5.79612e-05
5.81149e-05
5.82864e-05
5.84783e-05
5.86937e-05
5.89361e-05
5.92092e-05
5.95161e-05
5.9858e-05
6.02322e-05
6.06327e-05
6.10553e-05
6.1502e-05
6.19794e-05
6.24927e-05
6.30473e-05
6.36503e-05
6.43145e-05
6.50577e-05
6.58982e-05
6.68509e-05
6.79314e-05
6.91477e-05
7.05155e-05
7.20202e-05
7.37054e-05
7.55012e-05
7.75853e-05
7.97411e-05
8.22543e-05
8.51157e-05
8.77148e-05
9.16484e-05
9.4695e-05
9.90369e-05
0.000102397
0.000107392
4.72947e-05
4.7414e-05
4.75503e-05
4.77059e-05
4.78837e-05
4.8087e-05
4.83187e-05
4.85806e-05
4.88726e-05
4.91915e-05
4.95317e-05
4.98878e-05
5.02579e-05
5.06423e-05
5.10428e-05
5.14634e-05
5.19109e-05
5.23992e-05
5.29413e-05
5.3552e-05
5.42404e-05
5.5019e-05
5.58892e-05
5.68737e-05
5.7941e-05
5.91846e-05
6.04351e-05
6.20693e-05
6.35474e-05
6.55457e-05
6.77933e-05
6.9438e-05
7.31294e-05
7.4513e-05
7.90223e-05
8.11786e-05
8.48124e-05
3.02524e-05
3.03093e-05
3.03774e-05
3.04581e-05
3.05529e-05
3.06632e-05
3.07898e-05
3.09323e-05
3.10886e-05
3.12548e-05
3.14258e-05
3.15963e-05
3.17634e-05
3.19265e-05
3.20869e-05
3.22485e-05
3.24162e-05
3.25982e-05
3.28063e-05
3.30532e-05
3.33363e-05
3.36652e-05
3.40336e-05
3.4474e-05
3.49195e-05
3.55428e-05
3.59897e-05
3.69373e-05
3.74627e-05
3.82582e-05
3.98182e-05
4.02681e-05
4.29939e-05
4.18795e-05
4.5952e-05
4.63636e-05
4.91918e-05
6.56473e-06
6.58239e-06
6.60189e-06
6.62345e-06
6.64732e-06
6.67375e-06
6.70301e-06
6.73528e-06
6.7707e-06
6.8093e-06
6.85105e-06
6.89583e-06
6.94361e-06
6.99438e-06
7.04819e-06
7.10527e-06
7.16591e-06
7.23068e-06
7.29998e-06
7.37429e-06
7.45435e-06
7.54066e-06
7.63383e-06
7.73434e-06
7.84234e-06
7.96069e-06
8.08092e-06
8.23107e-06
8.34472e-06
8.55596e-06
8.6626e-06
8.91024e-06
9.039e-06
9.33624e-06
9.44952e-06
9.912e-06
9.93749e-06
6.67361e-06
6.68454e-06
6.69465e-06
6.70302e-06
6.70823e-06
6.70844e-06
6.70359e-06
6.69855e-06
6.72052e-06
7.57239e-06
1.02669e-05
1.26362e-05
1.55915e-05
1.65457e-05
1.49386e-05
1.26783e-05
1.1739e-05
1.13868e-05
1.14875e-05
1.21165e-05
1.27043e-05
1.29388e-05
1.31551e-05
1.33866e-05
1.32276e-05
1.28246e-05
1.25182e-05
1.23094e-05
1.22009e-05
1.20163e-05
1.21539e-05
1.15108e-05
1.01573e-05
1.04406e-05
1.67007e-05
2.12652e-05
1.85796e-05
3.26645e-05
3.25678e-05
3.24107e-05
3.21565e-05
3.174e-05
3.10644e-05
3.00169e-05
2.85736e-05
2.70252e-05
2.54441e-05
2.28766e-05
2.03322e-05
1.89625e-05
2.02943e-05
2.3873e-05
2.59135e-05
2.74978e-05
2.87255e-05
2.76372e-05
2.537e-05
2.38957e-05
2.37756e-05
2.41708e-05
2.46007e-05
2.54508e-05
2.57622e-05
2.64483e-05
2.7265e-05
2.82446e-05
2.8821e-05
2.901e-05
2.94185e-05
3.48728e-05
3.04378e-05
2.33877e-05
2.29227e-05
2.56028e-05
5.27334e-05
5.27263e-05
5.26823e-05
5.25816e-05
5.23981e-05
5.21023e-05
5.16624e-05
5.10661e-05
5.03265e-05
4.90976e-05
4.66406e-05
4.37847e-05
4.0281e-05
3.77228e-05
3.78646e-05
3.96633e-05
4.0428e-05
4.15675e-05
4.10293e-05
3.99215e-05
3.95486e-05
3.93799e-05
3.94387e-05
3.90263e-05
3.89273e-05
3.94155e-05
4.06129e-05
4.19319e-05
4.33772e-05
4.36156e-05
4.48754e-05
4.54306e-05
4.89252e-05
4.96757e-05
4.56657e-05
3.70494e-05
3.00534e-05
6.57578e-05
6.58134e-05
6.58457e-05
6.58435e-05
6.57956e-05
6.56988e-05
6.55755e-05
6.54881e-05
6.5581e-05
6.59474e-05
6.61681e-05
6.58523e-05
6.52937e-05
6.4673e-05
6.43735e-05
6.42474e-05
6.42097e-05
6.41908e-05
6.43229e-05
6.42529e-05
6.42235e-05
6.42526e-05
6.43061e-05
6.43377e-05
6.4495e-05
6.48409e-05
6.55419e-05
6.64394e-05
6.71001e-05
6.69949e-05
6.7855e-05
6.6474e-05
6.79935e-05
7.4319e-05
7.16867e-05
6.76683e-05
6.50474e-05
7.35612e-05
7.36686e-05
7.37652e-05
7.38444e-05
7.38994e-05
7.39262e-05
7.39292e-05
7.39284e-05
7.39695e-05
7.41211e-05
7.44326e-05
7.48189e-05
7.52604e-05
7.57587e-05
7.62662e-05
7.67618e-05
7.73062e-05
7.75244e-05
7.79275e-05
7.83783e-05
7.87747e-05
7.95974e-05
8.04231e-05
8.13847e-05
8.2458e-05
8.36272e-05
8.50058e-05
8.63941e-05
8.77689e-05
8.84004e-05
9.02901e-05
9.02597e-05
9.17607e-05
9.51043e-05
9.531e-05
9.545e-05
9.6695e-05
7.72214e-05
7.73684e-05
7.75171e-05
7.76665e-05
7.78176e-05
7.79759e-05
7.81552e-05
7.83784e-05
7.86752e-05
7.90601e-05
7.9507e-05
8.00599e-05
8.07257e-05
8.15033e-05
8.23341e-05
8.30916e-05
8.37643e-05
8.43797e-05
8.49922e-05
8.58101e-05
8.68702e-05
8.80139e-05
8.93413e-05
9.08429e-05
9.24799e-05
9.42422e-05
9.62126e-05
9.82858e-05
0.000100602
0.000102479
0.00010551
0.000107042
0.000110454
0.00011351
0.0001161
0.00011784
0.000120017
7.7266e-05
7.7433e-05
7.76092e-05
7.7795e-05
7.79917e-05
7.82028e-05
7.84351e-05
7.87022e-05
7.90262e-05
7.94279e-05