/*--------------------------------*- C++ -*----------------------------------*\
| =========                 |                                                 |
| \\      /  F ield         | OpenFOAM: The Open Source CFD Toolbox           |
|  \\    /   O peration     | Version:  2.3.1                                 |
|   \\  /    A nd           | Web:      www.OpenFOAM.org                      |
|    \\/     M anipulation  |                                                 |
\*---------------------------------------------------------------------------*/
FoamFile
{
    version     2.0;
    format      ascii;
    class       surfaceScalarField;
    location    "20";
    object      phi;
}
// * * * * * * * * * * * * * * * * * * * * * * * * * * * * * * * * * * * * * //

dimensions      [0 3 -1 0 0 0 0];

internalField   nonuniform List<scalar> 
107940
(
8.99974e-07
1.18662e-08
1.00723e-08
8.51657e-07
2.63213e-08
2.19953e-08
7.53305e-07
5.39028e-08
4.44491e-08
5.544e-07
1.09344e-07
8.95613e-08
1.36406e-07
2.28387e-07
1.89608e-07
-7.80976e-07
4.9549e-07
4.21892e-07
-3.02269e-06
1.16587e-06
1.07585e-06
-8.63968e-06
2.89703e-06
2.71995e-06
-1.75331e-05
4.84635e-06
4.04704e-06
-2.21169e-05
2.24929e-06
2.33449e-06
-1.93545e-05
-2.1258e-06
-6.36533e-07
-1.74083e-05
-1.74789e-06
-1.98324e-07
-1.93798e-05
5.69446e-07
1.40204e-06
-1.97957e-05
3.67833e-07
4.8054e-08
-1.73688e-05
-1.00684e-06
-1.42002e-06
-1.59594e-05
-1.03657e-06
-3.72899e-07
-1.58e-05
-3.12666e-07
1.53325e-07
-1.47061e-05
3.09024e-08
-1.12478e-06
-1.35692e-05
1.28256e-07
-1.2652e-06
-1.3729e-05
1.82954e-07
-2.31294e-08
-1.37382e-05
9.65001e-08
-8.73077e-08
-1.27581e-05
-7.30293e-09
-9.7285e-07
-1.20901e-05
-6.62944e-08
-6.0168e-07
-1.16852e-05
-1.58874e-07
-2.46013e-07
-1.0603e-05
-3.8798e-08
-1.04342e-06
-9.61695e-06
3.63663e-07
-1.34969e-06
-9.1141e-06
4.24832e-07
-9.27686e-07
-8.4408e-06
1.66507e-07
-8.39806e-07
-7.81888e-06
7.60647e-08
-6.97985e-07
-7.61085e-06
1.13061e-07
-3.21091e-07
-7.52182e-06
4.07243e-07
-4.96269e-07
-7.31537e-06
1.53436e-06
-1.74081e-06
-7.36643e-06
3.52947e-06
-3.47841e-06
-7.0755e-06
1.24486e-06
-1.53579e-06
-5.64923e-06
-1.81561e-06
3.89342e-07
-5.1758e-06
-2.20192e-06
1.72849e-06
-1.41026e-06
2.20876e-06
1.01817e-06
2.70232e-08
-3.23452e-09
9.90487e-07
4.85203e-08
5.485e-09
9.38e-07
8.52353e-08
2.11547e-08
8.47395e-07
1.50349e-07
4.96006e-08
7.02084e-07
2.71213e-07
1.02485e-07
4.92955e-07
5.0291e-07
2.01709e-07
2.90419e-07
9.76087e-07
3.92316e-07
4.90994e-07
1.92929e-06
7.67169e-07
9.62544e-07
3.37634e-06
9.98463e-07
7.24786e-07
3.27618e-06
-7.89126e-07
-4.42906e-07
1.71481e-06
-2.67292e-06
-1.87416e-06
1.46625e-06
-1.78289e-06
-2.72883e-06
1.7428e-06
-3.18683e-07
-3.08548e-06
1.10475e-06
-3.80267e-07
-2.94679e-06
7.9534e-08
-1.22506e-06
-2.44272e-06
-3.31243e-07
-1.20939e-06
-2.13944e-06
-1.03257e-07
-5.12691e-07
-2.28891e-06
4.29275e-07
-2.48899e-07
-2.42681e-06
9.8309e-07
-7.16929e-07
-2.28058e-06
1.17772e-06
-1.141e-06
-2.35866e-06
1.01126e-06
-8.3668e-07
-3.05211e-06
8.46054e-07
-1.59901e-07
-3.88067e-06
7.25129e-07
3.71362e-08
-4.27275e-06
5.10695e-07
-2.7749e-07
-4.21976e-06
4.99339e-07
-5.91125e-07
-3.70465e-06
7.75703e-07
-9.27156e-07
-2.87603e-06
9.32714e-07
-1.3365e-06
-2.14012e-06
1.09209e-06
-1.6615e-06
-1.85881e-06
1.60863e-06
-1.81387e-06
-2.69258e-06
2.19402e-06
-1.2472e-06
-5.13559e-06
2.27416e-06
5.76102e-07
-6.559e-06
2.03015e-06
9.27619e-07
-4.59232e-06
2.83231e-06
-1.26952e-06
-2.01074e-06
2.1533e-06
-3.49002e-06
-1.4386e-06
2.83941e-07
-2.67169e-06
-1.59315e-06
-8.14429e-07
-1.23295e-06
-9.5354e-07
-7.35571e-07
1.05678e-06
4.29777e-08
-1.01631e-08
1.03825e-06
7.00648e-08
-3.01463e-09
9.99716e-07
1.13735e-07
1.00354e-08
9.31e-07
1.8531e-07
3.37541e-08
8.21059e-07
3.04164e-07
7.69897e-08
6.66279e-07
5.0162e-07
1.5607e-07
5.14999e-07
8.28193e-07
2.99175e-07
5.75057e-07
1.32912e-06
5.40106e-07
1.09457e-06
1.98711e-06
8.69713e-07
1.63126e-06
1.76359e-06
9.75893e-07
1.75505e-06
5.37859e-07
1.05317e-06
1.70233e-06
2.08338e-07
1.31063e-06
1.76233e-06
4.37518e-07
1.24529e-06
1.79465e-06
2.57717e-07
8.14705e-07
1.69799e-06
-2.22371e-07
3.98569e-07
1.47185e-06
-4.81831e-07
3.76726e-07
1.1182e-06
-4.01747e-07
6.5214e-07
6.91192e-07
-1.2778e-07
9.84064e-07
3.04665e-07
2.62176e-07
1.10744e-06
8.51099e-08
4.98858e-07
8.98416e-07
-6.88245e-08
5.20086e-07
6.45107e-07
-5.20249e-07
6.13378e-07
6.84101e-07
-1.56171e-06
8.21989e-07
9.44603e-07
-2.9559e-06
8.02397e-07
1.10249e-06
-3.86212e-06
5.29944e-07
8.75615e-07
-3.80624e-06
3.20998e-07
3.98822e-07
-3.30805e-06
2.64483e-07
1.70049e-07
-2.82521e-06
4.02371e-07
2.0687e-07
-2.13348e-06
7.95445e-07
1.2146e-07
-1.18263e-06
1.46159e-06
-2.18409e-07
-7.54266e-07
2.51258e-06
-6.6679e-07
-1.40182e-06
3.36882e-06
-6.91121e-07
-1.11026e-06
3.48132e-06
-9.40577e-07
5.27671e-07
3.23536e-06
-2.72e-06
1.84662e-06
2.00733e-06
-3.04233e-06
2.67514e-06
1.19197e-06
-2.83493e-06
1.18735e-06
-2.41295e-06
1.09055e-06
5.27452e-08
-1.47189e-08
1.09155e-06
7.93087e-08
-1.02436e-08
1.08857e-06
1.1933e-07
-2.61956e-09
1.084e-06
1.79899e-07
9.98597e-09
1.08663e-06
2.71677e-07
2.98541e-08
1.1185e-06
4.09468e-07
6.02822e-08
1.23164e-06
6.10415e-07
1.04637e-07
1.53126e-06
8.74888e-07
1.54619e-07
2.17483e-06
1.16567e-06
1.7787e-07
2.7193e-06
1.20081e-06
1.83098e-08
2.66055e-06
8.44554e-07
-2.4794e-07
2.46391e-06
5.93896e-07
-1.88919e-07
2.43264e-06
4.84789e-07
-1.6007e-08
2.41719e-06
2.69266e-07
3.9061e-09
2.32126e-06
-1.55676e-08
-1.10871e-07
2.22678e-06
-1.87137e-07
-2.0022e-07
2.1988e-06
-1.86245e-07
-1.8752e-07
2.24268e-06
-9.30399e-08
-7.86182e-08
2.34547e-06
2.87281e-08
1.30655e-07
2.45263e-06
1.17459e-07
2.7424e-07
2.51273e-06
1.41062e-07
3.18925e-07
2.56416e-06
1.97622e-07
3.64323e-07
2.62849e-06
3.17751e-07
4.39914e-07
2.60554e-06
4.06793e-07
4.18556e-07
2.47574e-06
3.68142e-07
2.91594e-07
2.31237e-06
2.75379e-07
2.08987e-07
2.02973e-06
2.35625e-07
3.11499e-07
1.42601e-06
3.52112e-07
6.5398e-07
3.23729e-07
5.44352e-07
1.35338e-06
-9.55445e-07
8.23033e-07
1.91773e-06
-1.23424e-06
1.32945e-06
1.46192e-06
-5.53087e-07
2.11705e-06
5.70629e-07
5.4234e-07
2.66876e-06
-2.82861e-07
2.06247e-06
3.19107e-06
-1.47584e-06
3.24307e-06
2.72348e-06
-1.89675e-06
3.99267e-06
2.21168e-06
-1.76931e-06
2.34668e-06
-1.46887e-06
1.11472e-06
5.88885e-08
-1.74293e-08
1.12361e-06
8.46453e-08
-1.42234e-08
1.12958e-06
1.21803e-07
-8.44429e-09
1.13322e-06
1.74925e-07
1.33919e-09
1.13808e-06
2.49476e-07
1.73384e-08
1.15468e-06
3.50944e-07
4.19274e-08
1.20527e-06
4.81658e-07
7.81583e-08
1.32539e-06
6.28665e-07
1.26108e-07
1.56021e-06
7.51152e-07
1.79693e-07
1.83124e-06
7.17067e-07
2.12714e-07
2.02294e-06
4.29047e-07
2.23813e-07
2.17884e-06
2.09457e-07
2.28529e-07
2.34199e-06
1.21374e-07
2.00272e-07
2.468e-06
5.79497e-09
1.37461e-07
2.50582e-06
-1.21489e-07
6.81012e-08
2.49825e-06
-2.04473e-07
2.4906e-08
2.50559e-06
-2.10748e-07
1.716e-08
2.55745e-06
-1.60743e-07
1.58471e-08
2.65803e-06
-8.12366e-08
9.38389e-09
2.78939e-06
-1.4661e-08
7.55598e-10
2.92896e-06
2.14105e-08
-1.99131e-08
3.08757e-06
7.10851e-08
-3.20763e-08
3.28689e-06
1.38449e-07
-2.00168e-08
3.52027e-06
1.77243e-07
-3.83548e-09
3.74484e-06
1.5542e-07
-1.18404e-08
3.93817e-06
1.30371e-07
-4.83218e-08
4.08287e-06
1.3871e-07
-4.7786e-08
4.18191e-06
2.54104e-07
-1.03621e-09
4.126e-06
4.37181e-07
1.6308e-07
3.75368e-06
7.47532e-07
4.4782e-07
3.0277e-06
8.93053e-07
1.16238e-06
1.85408e-06
1.31162e-06
1.97906e-06
1.075e-06
1.59068e-06
1.85715e-06
1.44119e-06
2.2206e-06
6.04269e-07
2.13784e-06
2.25896e-06
-2.32131e-07
2.9021e-06
1.88656e-06
-4.39139e-07
2.39824e-06
-7.39817e-07
1.13816e-06
6.00067e-08
-1.96429e-08
1.15878e-06
8.20924e-08
-1.80687e-08
1.18375e-06
1.12239e-07
-1.54016e-08
1.21717e-06
1.52868e-07
-1.13679e-08
1.26607e-06
2.06332e-07
-5.76051e-09
1.34179e-06
2.73983e-07
1.25035e-09
1.46098e-06
3.5398e-07
8.48542e-09
1.64144e-06
4.36351e-07
1.18501e-08
1.89138e-06
4.98355e-07
2.85798e-09
2.14324e-06
4.979e-07
-3.2691e-08
2.26324e-06
4.0531e-07
-9.62661e-08
2.30777e-06
2.97627e-07
-1.32695e-07
2.35517e-06
2.10824e-07
-1.36851e-07
2.38835e-06
1.19555e-07
-1.4694e-07
2.40818e-06
2.61424e-08
-1.67462e-07
2.4363e-06
-4.29576e-08
-1.89636e-07
2.49166e-06
-6.75614e-08
-1.98543e-07
2.5821e-06
-5.5098e-08
-1.96086e-07
2.7131e-06
-2.92428e-08
-1.82991e-07
2.86762e-06
2.69182e-09
-1.7188e-07
3.03216e-06
2.654e-08
-1.69666e-07
3.21616e-06
5.68034e-08
-1.69718e-07
3.43566e-06
9.08102e-08
-1.7186e-07
3.67421e-06
1.19564e-07
-1.80873e-07
3.90598e-06
1.25576e-07
-2.01918e-07
4.12814e-06
1.31543e-07
-2.23335e-07
4.34569e-06
1.41843e-07
-2.20681e-07
4.58851e-06
2.12725e-07
-2.01445e-07
4.8526e-06
2.88508e-07
-1.15421e-07
5.18337e-06
4.68304e-07
-5.15413e-08
5.38427e-06
6.06817e-07
8.5337e-08
5.44212e-06
9.23677e-07
3.30094e-07
5.15709e-06
1.12294e-06
7.52774e-07
4.81776e-06
1.19099e-06
1.36894e-06
4.63125e-06
1.55542e-06
8.90057e-07
4.27967e-06
1.26164e-06
9.76491e-07
1.81508e-06
5.56028e-07
1.15618e-06
5.8187e-08
-2.14019e-08
1.18194e-06
7.71444e-08
-2.08137e-08
1.21121e-06
1.02312e-07
-1.93411e-08
1.24578e-06
1.34891e-07
-1.65915e-08
1.28868e-06
1.75589e-07
-1.21565e-08
1.34458e-06
2.23796e-07
-5.70963e-09
1.41982e-06
2.75982e-07
2.75674e-09
1.52041e-06
3.23273e-07
1.24889e-08
1.64817e-06
3.49368e-07
2.12268e-08
1.78839e-06
3.32034e-07
2.56373e-08
1.91528e-06
2.54397e-07
2.40282e-08
2.03235e-06
1.62445e-07
1.81119e-08
2.14648e-06
9.07873e-08
5.90929e-09
2.25253e-06
2.58509e-08
-1.23543e-08
2.34183e-06
-2.80538e-08
-3.51034e-08
2.41657e-06
-6.35828e-08
-5.41105e-08
2.4975e-06
-7.75026e-08
-7.09934e-08
2.59634e-06
-6.92466e-08
-8.46888e-08
2.71763e-06
-5.03014e-08
-1.0023e-07
2.86151e-06
-2.55254e-08
-1.15659e-07
3.02541e-06
-4.60659e-09
-1.32756e-07
3.21025e-06
2.1108e-08
-1.4915e-07
3.41841e-06
4.66924e-08
-1.64037e-07
3.64793e-06
7.04208e-08
-1.80378e-07
3.8905e-06
8.05992e-08
-1.97598e-07
4.14154e-06
1.00504e-07
-2.19994e-07
4.39972e-06
1.14424e-07
-2.3077e-07
4.68192e-06
1.79581e-07
-2.4905e-07
4.97326e-06
2.29754e-07
-2.32583e-07
5.3021e-06
3.46348e-07
-2.06884e-07
5.65225e-06
4.61933e-07
-2.05267e-07
6.03801e-06
5.0253e-07
3.53811e-08
6.52838e-06
7.91798e-07
-1.59234e-07
6.6731e-06
7.66253e-07
2.80029e-07
7.07411e-06
9.68714e-07
1.85692e-07
7.13333e-06
1.00356e-06
1.98854e-07
1.26077e-06
6.75932e-07
1.17082e-06
5.37494e-08
-2.28e-08
1.20227e-06
6.87717e-08
-2.30774e-08
1.23992e-06
8.77432e-08
-2.30811e-08
1.28652e-06
1.11188e-07
-2.2893e-08
1.34572e-06
1.39109e-07
-2.27156e-08
1.42197e-06
1.70539e-07
-2.29954e-08
1.51974e-06
2.0281e-07
-2.46008e-08
1.64129e-06
2.30752e-07
-2.90246e-08
1.78248e-06
2.4661e-07
-3.84383e-08
1.92674e-06
2.42118e-07
-5.43392e-08
2.04498e-06
2.13284e-07
-7.71298e-08
2.13499e-06
1.72236e-07
-9.9801e-08
2.21412e-06
1.29977e-07
-1.18319e-07
2.28596e-06
8.87719e-08
-1.34763e-07
2.35567e-06
5.1404e-08
-1.49164e-07
2.43189e-06
2.37925e-08
-1.63599e-07
2.52171e-06
9.58017e-09
-1.769e-07
2.6303e-06
9.85245e-09
-1.87692e-07
2.75947e-06
1.85785e-08
-1.98042e-07
2.90864e-06
3.33137e-08
-2.08009e-07
3.07467e-06
4.98351e-08
-2.20479e-07
3.26064e-06
6.9022e-08
-2.33877e-07
3.4679e-06
8.80203e-08
-2.48593e-07
3.69502e-06
1.084e-07
-2.65097e-07
3.9365e-06
1.21534e-07
-2.82414e-07
4.18953e-06
1.48533e-07
-3.01058e-07
4.46482e-06
1.54539e-07
-3.15407e-07
4.74895e-06
2.22452e-07
-3.26999e-07
5.08813e-06
2.28392e-07
-3.3782e-07
5.42429e-06
3.17783e-07
-3.07593e-07
5.81455e-06
4.44404e-07
-3.72731e-07
6.24769e-06
3.01877e-07
-2.32486e-07
6.60579e-06
7.55392e-07
-3.21702e-07
7.18195e-06
4.94495e-07
-3.04395e-07
7.52974e-06
5.62274e-07
5.86476e-08
8.11376e-06
9.47715e-07
-5.28175e-07
7.11905e-07
1.71231e-07
1.18018e-06
4.72366e-08
-2.34299e-08
1.21448e-06
5.87298e-08
-2.42625e-08
1.25414e-06
7.30476e-08
-2.4967e-08
1.30031e-06
9.04813e-08
-2.54562e-08
1.35447e-06
1.10604e-07
-2.5656e-08
1.41831e-06
1.32294e-07
-2.55951e-08
1.4933e-06
1.53263e-07
-2.54429e-08
1.57996e-06
1.69665e-07
-2.55754e-08
1.67687e-06
1.76287e-07
-2.65859e-08
1.77969e-06
1.68287e-07
-2.89962e-08
1.88257e-06
1.43612e-07
-3.32007e-08
1.98429e-06
1.09744e-07
-3.92268e-08
2.08542e-06
7.61325e-08
-4.729e-08
2.18573e-06
4.58256e-08
-5.73658e-08
2.28523e-06
2.099e-08
-6.908e-08
2.38614e-06
4.45995e-09
-8.15783e-08
2.49324e-06
-2.59629e-09
-9.49216e-08
2.61195e-06
-8.41728e-10
-1.08019e-07
2.74529e-06
7.13998e-09
-1.21905e-07
2.89543e-06
1.92663e-08
-1.36093e-07
3.06338e-06
3.25687e-08
-1.50676e-07
3.25024e-06
4.82886e-08
-1.6613e-07
3.45626e-06
6.39984e-08
-1.82e-07
3.68201e-06
8.28234e-08
-2.00172e-07
3.92533e-06
9.44187e-08
-2.162e-07
4.18827e-06
1.24821e-07
-2.39234e-07
4.46873e-06
1.22198e-07
-2.48119e-07
4.77304e-06
1.97144e-07
-2.78995e-07
5.1008e-06
1.77118e-07
-2.76495e-07
5.46738e-06
2.4305e-07
-2.91838e-07
5.81451e-06
4.34368e-07
-3.37099e-07
6.32042e-06
3.4181e-08
-2.38209e-07
6.62198e-06
8.3716e-07
-3.83338e-07
7.23949e-06
1.73912e-07
-2.96924e-07
7.60092e-06
4.13543e-07
-2.12694e-07
8.12399e-06
8.97686e-07
-4.73043e-07
3.22977e-07
-2.56225e-07
1.18218e-06
3.80011e-08
-2.25868e-08
1.21873e-06
4.5889e-08
-2.37099e-08
1.2613e-06
5.53585e-08
-2.48736e-08
1.31156e-06
6.63659e-08
-2.61468e-08
1.37127e-06
7.86371e-08
-2.77441e-08
1.44205e-06
9.14995e-08
-2.9983e-08
1.52491e-06
1.03694e-07
-3.32943e-08
1.6195e-06
1.13338e-07
-3.82607e-08
1.72307e-06
1.18217e-07
-4.55058e-08
1.83011e-06
1.16558e-07
-5.53117e-08
1.9334e-06
1.07998e-07
-6.76763e-08
2.02992e-06
9.48778e-08
-8.165e-08
2.12177e-06
8.03108e-08
-9.60233e-08
2.21162e-06
6.63272e-08
-1.10361e-07
2.30267e-06
5.45021e-08
-1.24559e-07
2.3992e-06
4.6612e-08
-1.38678e-07
2.50551e-06
4.36417e-08
-1.52551e-07
2.62512e-06
4.60986e-08
-1.66546e-07
2.76013e-06
5.27636e-08
-1.80636e-07
2.91193e-06
6.26749e-08
-1.95207e-07
3.08083e-06
7.43586e-08
-2.10696e-07
3.26829e-06
8.79747e-08
-2.27138e-07
3.47468e-06
1.01349e-07
-2.4375e-07
3.70127e-06
1.18717e-07
-2.62482e-07
3.94631e-06
1.27778e-07
-2.78394e-07
4.21218e-06
1.60856e-07
-3.0191e-07
4.49819e-06
1.46294e-07
-3.10098e-07
4.80632e-06
2.30134e-07
-3.4112e-07
5.1413e-06
1.87916e-07
-3.45783e-07
5.50668e-06
2.12742e-07
-3.35074e-07
5.8854e-06
5.12282e-07
-4.56632e-07
6.32313e-06
-1.73706e-07
-2.29844e-07
6.77706e-06
9.7161e-07
-5.88374e-07
7.23319e-06
3.61251e-08
-3.18351e-07
7.69349e-06
2.75124e-07
-3.21875e-07
8.2855e-06
8.77872e-07
-5.72198e-07
2.20573e-07
-5.18274e-07
1.16706e-06
2.36205e-08
-1.84576e-08
1.20466e-06
2.77981e-08
-1.9515e-08
1.24795e-06
3.27561e-08
-2.06873e-08
1.29781e-06
3.8532e-08
-2.20204e-08
1.35498e-06
4.49965e-08
-2.35299e-08
1.42019e-06
5.16029e-08
-2.53186e-08
1.49375e-06
5.76703e-08
-2.7536e-08
1.57525e-06
6.2193e-08
-3.03509e-08
1.6634e-06
6.39923e-08
-3.39286e-08
1.75617e-06
6.21474e-08
-3.83571e-08
1.85135e-06
5.64912e-08
-4.36791e-08
1.94779e-06
4.82852e-08
-4.98454e-08
2.04539e-06
3.95122e-08
-5.68025e-08
2.1447e-06
3.15016e-08
-6.44823e-08
2.24686e-06
2.51214e-08
-7.27828e-08
2.35387e-06
2.11682e-08
-8.15614e-08
2.46837e-06
1.99162e-08
-9.07774e-08
2.5934e-06
2.14202e-08
-1.00352e-07
2.73147e-06
2.49849e-08
-1.10289e-07
2.88466e-06
3.01793e-08
-1.20694e-07
3.05431e-06
3.62049e-08
-1.31501e-07
3.24206e-06
4.34308e-08
-1.43204e-07
3.44772e-06
5.04051e-08
-1.54712e-07
3.67511e-06
6.05629e-08
-1.6924e-07
3.91647e-06
6.41465e-08
-1.77729e-07
4.19302e-06
8.64088e-08
-2.02105e-07
4.45954e-06
6.97798e-08
-1.90006e-07
4.80774e-06
1.28554e-07
-2.46617e-07
5.09956e-06
9.53402e-08
-1.99245e-07
5.46787e-06
7.90363e-08
-2.346e-07
5.94608e-06
3.87528e-07
-3.53462e-07
6.0964e-06
-3.35459e-07
1.14367e-08
6.82785e-06
8.74072e-07
-6.33908e-07
7.23982e-06
-2.6714e-07
-1.08704e-07
7.356e-06
2.71039e-07
-1.12101e-07
8.45202e-06
5.83443e-07
-8.01592e-07
8.38372e-08
-3.46385e-07
1.06924e-06
-8.34286e-09
1.1059e-06
-8.86247e-09
1.14818e-06
-9.51987e-09
1.19708e-06
-1.0369e-08
1.25364e-06
-1.15679e-08
1.31852e-06
-1.3277e-08
1.39189e-06
-1.56991e-08
1.47316e-06
-1.90747e-08
1.56076e-06
-2.36067e-08
1.6523e-06
-2.93936e-08
1.7452e-06
-3.64092e-08
1.8379e-06
-4.442e-08
1.93049e-06
-5.30776e-08
2.02409e-06
-6.20989e-08
2.12052e-06
-7.13046e-08
2.2223e-06
-8.0607e-08
2.33222e-06
-9.00045e-08
2.45314e-06
-9.95014e-08
2.58728e-06
-1.09154e-07
2.73654e-06
-1.19081e-07
2.90209e-06
-1.29346e-07
3.0857e-06
-1.40184e-07
3.28676e-06
-1.50649e-07
3.51106e-06
-1.63742e-07
3.74364e-06
-1.68427e-07
4.0307e-06
-2.00657e-07
4.24772e-06
-1.47241e-07
4.69549e-06
-3.19217e-07
4.75702e-06
3.38096e-08
5.43444e-06
-5.98379e-07
5.59628e-06
2.25691e-07
5.74948e-06
-4.88664e-07
6.94461e-06
-3.21056e-07
6.7753e-06
-9.78293e-08
6.66649e-06
3.79848e-07
8.91863e-06
-1.6687e-06
5.89625e-07
1.061e-06
1.64331e-08
1.18213e-08
1.01795e-06
3.09445e-08
3.41026e-08
9.28392e-07
5.80485e-08
7.59601e-08
7.47184e-07
1.11493e-07
1.59276e-07
3.73681e-07
2.23771e-07
3.3934e-07
-4.29832e-07
4.70679e-07
7.54726e-07
-2.27773e-06
1.06533e-06
1.85842e-06
-7.10531e-06
2.61689e-06
4.93064e-06
-1.62353e-05
4.7971e-06
8.37993e-06
-2.25077e-05
3.02299e-06
5.58391e-06
-2.02768e-05
-1.43113e-06
-1.4363e-06
-1.61417e-05
-2.21972e-06
-2.11367e-06
-1.55642e-05
-6.71612e-07
1.49611e-06
-1.59742e-05
-3.37532e-07
7.95595e-07
-1.45488e-05
-1.06443e-06
-1.78095e-06
-1.23188e-05
-1.48955e-06
-1.11344e-06
-1.12305e-05
-1.48135e-06
5.46407e-07
-1.12396e-05
-1.03894e-06
-7.66921e-08
-1.11416e-05
-3.90598e-07
-9.72669e-07
-1.04668e-05
-2.11497e-07
-4.8638e-07
-9.8323e-06
-5.01401e-07
-2.20429e-07
-9.38603e-06
-5.49469e-07
-8.69644e-07
-8.76504e-06
-2.78723e-07
-9.43947e-07
-8.06334e-06
-2.5066e-07
-6.97058e-07
-7.4603e-06
-3.32523e-07
-1.31394e-06
-7.0197e-06
3.36692e-08
-1.82396e-06
-6.63185e-06
3.82689e-07
-1.69822e-06
-6.05401e-06
2.72258e-07
-1.68991e-06
-5.25052e-06
-3.28316e-08
-1.46864e-06
-4.35633e-06
-5.04135e-07
-7.11147e-07
-3.78328e-06
-9.06786e-07
-1.62539e-07
-3.34016e-06
-9.24658e-07
-1.25927e-06
-3.64954e-06
1.24626e-06
-4.41529e-06
-5.43462e-06
2.75187e-06
-2.50257e-06
-5.94408e-06
1.33962e-06
-4.40814e-07
-4.92546e-06
-6.43915e-07
1.35378e-06
-6.64004e-07
2.28917e-06
1.1528e-06
3.19249e-08
-9.86637e-09
1.12897e-06
5.3493e-08
6.77154e-09
1.08175e-06
8.98175e-08
3.6601e-08
9.99079e-07
1.53344e-07
9.04246e-08
8.66621e-07
2.69334e-07
1.8938e-07
6.77212e-07
4.87998e-07
3.73799e-07
4.84161e-07
9.23584e-07
7.27109e-07
6.90529e-07
1.7841e-06
1.39359e-06
1.14596e-06
3.16571e-06
2.17443e-06
7.14218e-07
3.15851e-06
-4.92901e-07
-3.99608e-07
1.28916e-06
-4.27938e-06
-1.28801e-06
3.2687e-07
-3.44107e-06
-1.68564e-06
3.95431e-07
-9.88092e-07
-2.03962e-06
6.17301e-08
-4.25549e-07
-2.14004e-06
-5.9741e-07
-1.59168e-06
-1.56844e-06
-9.70027e-07
-2.30051e-06
-7.52177e-07
-9.32237e-07
-1.87807e-06
-2.81069e-07
-6.45998e-07
-1.11294e-06
-1.78271e-07
-2.60341e-07
-9.49984e-07
-1.42371e-07
-7.64029e-08
-1.312e-06
-1.5405e-07
-1.58472e-07
-1.16793e-06
-4.34669e-07
-1.96282e-07
-2.32468e-07
-9.05227e-07
-1.10371e-07
3.39342e-07
-1.30096e-06
-1.83754e-07
5.13414e-08
-1.511e-06
-3.21058e-07
-3.9255e-07
-1.42594e-06
-2.12831e-07
-7.65722e-07
-1.01084e-06
-8.87765e-08
-1.28014e-06
-4.38568e-07
-1.40649e-07
-1.82086e-06
1.25879e-07
-1.20051e-07
-2.2911e-06
5.18805e-07
1.51492e-07
-2.29575e-06
3.83542e-07
7.14597e-07
-9.10019e-07
-4.64138e-07
8.34846e-07
1.5795e-08
-3.36921e-07
1.57312e-06
-1.72359e-06
3.15229e-07
2.69659e-06
-4.08689e-06
1.18371e-07
1.89647e-06
-3.03169e-06
-1.56667e-07
3.59686e-07
-1.96151e-06
-9.15634e-08
-1.44648e-06
1.18257e-06
4.64477e-08
-2.17843e-08
1.16767e-06
7.352e-08
-8.13885e-09
1.13414e-06
1.16796e-07
1.65868e-08
1.073e-06
1.87078e-07
6.1162e-08
9.75203e-07
3.02615e-07
1.41504e-07
8.39953e-07
4.92463e-07
2.86855e-07
7.14756e-07
8.02514e-07
5.45442e-07
7.93999e-07
1.26996e-06
9.75006e-07
1.35021e-06
1.90555e-06
1.57366e-06
1.94972e-06
1.76605e-06
1.76884e-06
2.11931e-06
5.29693e-07
1.64304e-06
2.11772e-06
-6.06868e-08
1.69977e-06
2.25998e-06
-3.57752e-08
1.53423e-06
2.35663e-06
-1.87436e-07
9.67225e-07
2.28264e-06
-5.10901e-07
3.86046e-07
2.08769e-06
-6.85916e-07
2.87568e-07
1.82895e-06
-6.4951e-07
6.28153e-07
1.59265e-06
-4.85795e-07
1.06017e-06
1.48081e-06
-2.68947e-07
1.22788e-06
1.48084e-06
-1.72058e-07
9.94045e-07
1.48975e-06
-1.89173e-07
6.66894e-07
1.41357e-06
-9.4927e-08
6.58921e-07
1.16038e-06
1.10736e-07
9.76687e-07
6.55296e-07
1.81011e-07
1.24281e-06
9.51375e-09
4.65842e-08
1.15376e-06
-3.80457e-07
-1.08667e-07
6.8463e-07
-3.09414e-07
-2.37979e-07
2.48208e-07
5.5352e-08
-3.72501e-07
7.39565e-08
5.37861e-07
-4.51275e-07
-2.98262e-08
1.09644e-06
-3.30444e-07
-2.95053e-07
1.70867e-06
9.85584e-08
-6.62985e-07
1.87385e-06
7.4946e-07
-7.70907e-07
2.33078e-06
1.11268e-06
-9.37076e-07
3.33848e-06
1.9179e-06
-2.94901e-06
4.1373e-06
1.71402e-06
-3.65869e-06
4.55188e-06
8.67196e-07
-3.75701e-06
5.7575e-07
-3.22869e-06
1.21141e-06
5.47169e-08
-3.0386e-08
1.21514e-06
8.1277e-08
-2.17284e-08
1.21521e-06
1.21064e-07
-6.95193e-09
1.21408e-06
1.80908e-07
1.72834e-08
1.22011e-06
2.70928e-07
5.55054e-08
1.2543e-06
4.04907e-07
1.13651e-07
1.36567e-06
5.9825e-07
1.9753e-07
1.6486e-06
8.4971e-07
2.9194e-07
2.26136e-06
1.12468e-06
3.45976e-07
2.81178e-06
1.15954e-06
7.44034e-08
2.79646e-06
7.80851e-07
-4.83778e-07
2.62917e-06
4.68265e-07
-5.50586e-07
2.59345e-06
3.27388e-07
-3.4345e-07
2.5679e-06
1.35816e-07
-2.93793e-07
2.48208e-06
-1.08032e-07
-4.27921e-07
2.41126e-06
-2.62307e-07
-5.5301e-07
2.40809e-06
-2.77041e-07
-5.56817e-07
2.48416e-06
-2.1235e-07
-4.28138e-07
2.65222e-06
-1.2057e-07
-1.85777e-07
2.84111e-06
-6.52662e-08
-2.14479e-08
2.97899e-06
-4.50508e-08
3.69231e-08
3.12055e-06
5.68297e-09
1.22155e-07
3.3301e-06
9.70706e-08
2.44031e-07
3.53169e-06
1.54349e-07
2.4363e-07
3.6506e-06
1.14074e-07
1.05189e-07
3.71067e-06
3.59992e-08
4.25645e-09
3.72409e-06
-1.56113e-08
7.57072e-08
3.63588e-06
2.44627e-08
3.4523e-07
3.44014e-06
1.14318e-07
9.83521e-07
3.0971e-06
2.28287e-07
1.70204e-06
2.81323e-06
1.23456e-07
1.72089e-06
2.86476e-06
2.4834e-07
1.02021e-06
3.33148e-06
2.51646e-07
1.11465e-07
4.37563e-06
6.51266e-07
-1.25337e-06
5.32716e-06
8.68917e-07
-2.00319e-06
5.95133e-06
5.57486e-07
-2.08377e-06
5.02017e-07
-1.75683e-06
1.23338e-06
5.95805e-08
-3.59781e-08
1.24502e-06
8.53188e-08
-2.99077e-08
1.25427e-06
1.22319e-07
-1.89531e-08
1.26197e-06
1.7502e-07
-4.68607e-10
1.27215e-06
2.48695e-07
2.9394e-08
1.29532e-06
3.48539e-07
7.5121e-08
1.3536e-06
4.76527e-07
1.41606e-07
1.48119e-06
6.20184e-07
2.28044e-07
1.72216e-06
7.41379e-07
3.22024e-07
2.00424e-06
7.19372e-07
3.70803e-07
2.2046e-06
4.47956e-07
3.56348e-07
2.36059e-06
2.16867e-07
3.23934e-07
2.52153e-06
1.10936e-07
2.55792e-07
2.65148e-06
-4.79739e-09
1.48115e-07
2.69893e-06
-1.18826e-07
3.14495e-08
2.70298e-06
-1.93365e-07
-4.809e-08
2.72329e-06
-2.0453e-07
-7.56594e-08
2.7884e-06
-1.69367e-07
-9.22442e-08
2.90277e-06
-1.08826e-07
-1.16724e-07
3.04695e-06
-5.84096e-08
-1.50285e-07
3.20292e-06
-2.89453e-08
-1.91986e-07
3.38064e-06
1.29073e-08
-2.17027e-07
3.60127e-06
7.00342e-08
-2.13603e-07
3.85984e-06
1.03578e-07
-2.11643e-07
4.11954e-06
8.83508e-08
-2.45808e-07
4.35401e-06
7.01364e-08
-3.16935e-07
4.56363e-06
7.25232e-08
-3.45539e-07
4.76702e-06
1.40928e-07
-3.20896e-07
4.94168e-06
2.51511e-07
-1.4877e-07
5.0321e-06
4.71529e-07
1.14162e-07
5.11452e-06
4.97605e-07
7.05809e-07
5.19519e-06
6.15205e-07
1.53153e-06
5.14936e-06
4.17694e-07
1.73693e-06
5.25532e-06
3.29129e-07
8.20446e-07
5.60558e-06
4.74933e-07
-1.88408e-07
6.07934e-06
3.24488e-07
-6.79896e-07
3.27225e-07
-9.13816e-07
1.25581e-06
5.97034e-08
-4.0566e-08
1.27887e-06
8.18046e-08
-3.76173e-08
1.30637e-06
1.11901e-07
-3.24832e-08
1.34227e-06
1.52359e-07
-2.46037e-08
1.39333e-06
2.05453e-07
-1.35798e-08
1.47046e-06
2.72424e-07
2.33332e-10
1.58945e-06
3.513e-07
1.47285e-08
1.76688e-06
4.32291e-07
2.23117e-08
2.01024e-06
4.93327e-07
7.54768e-09
2.25893e-06
4.94003e-07
-5.60159e-08
2.38498e-06
4.0284e-07
-1.77193e-07
2.43553e-06
2.92142e-07
-2.58521e-07
2.48779e-06
2.02199e-07
-2.80378e-07
2.52755e-06
1.11402e-07
-3.02893e-07
2.55802e-06
2.03075e-08
-3.37071e-07
2.59866e-06
-4.94992e-08
-3.74142e-07
2.66505e-06
-7.63816e-08
-3.93083e-07
2.76285e-06
-6.88394e-08
-3.94413e-07
2.8977e-06
-4.51008e-08
-3.81565e-07
3.05698e-06
-1.66242e-08
-3.72942e-07
3.22889e-06
7.33816e-09
-3.77865e-07
3.42203e-06
3.50217e-08
-3.84977e-07
3.64865e-06
6.68765e-08
-3.95314e-07
3.89468e-06
9.40211e-08
-4.1735e-07
4.13712e-06
1.01794e-07
-4.57796e-07
4.37488e-06
1.0665e-07
-4.9761e-07
4.61798e-06
1.17499e-07
-5.08765e-07
4.88318e-06
1.70516e-07
-4.9623e-07
5.18793e-06
2.39037e-07
-4.07692e-07
5.57089e-06
3.64871e-07
-3.27843e-07
5.92203e-06
4.71671e-07
-2.39875e-07
6.2704e-06
6.27717e-07
-3.07876e-08
6.55247e-06
7.57389e-07
1.3101e-07
6.85204e-06
6.49794e-07
7.48706e-07
7.18562e-06
6.46479e-07
3.84931e-07
7.47123e-06
6.49444e-07
3.65928e-07
5.94181e-07
2.15995e-07
1.27389e-06
5.69093e-08
-4.40998e-08
1.30214e-06
7.58304e-08
-4.30891e-08
1.33416e-06
1.00944e-07
-4.04076e-08
1.37182e-06
1.33453e-07
-3.53453e-08
1.41824e-06
1.74061e-07
-2.71859e-08
1.47819e-06
2.22184e-07
-1.54201e-08
1.55812e-06
2.74394e-07
-2.61758e-10
1.66414e-06
3.22126e-07
1.66312e-08
1.79811e-06
3.49765e-07
3.08172e-08
1.94606e-06
3.36163e-07
3.55253e-08
2.08173e-06
2.64561e-07
2.66371e-08
2.20683e-06
1.76751e-07
8.40842e-09
2.32815e-06
1.06742e-07
-1.99528e-08
2.44128e-06
4.39844e-08
-5.80723e-08
2.53942e-06
-1.0084e-08
-1.02845e-07
2.62285e-06
-4.39978e-08
-1.43047e-07
2.7125e-06
-5.81259e-08
-1.78898e-07
2.82037e-06
-5.24603e-08
-2.08939e-07
2.95095e-06
-3.58733e-08
-2.40039e-07
3.10384e-06
-1.41004e-08
-2.71075e-07
3.27677e-06
6.21027e-09
-3.0455e-07
3.46955e-06
3.03487e-08
-3.37256e-07
3.68602e-06
5.45839e-08
-3.6822e-07
3.92413e-06
7.69255e-08
-4.01396e-07
4.1776e-06
8.85724e-08
-4.37844e-07
4.43879e-06
1.06093e-07
-4.80627e-07
4.7129e-06
1.2356e-07
-5.10942e-07
5.00024e-06
1.75102e-07
-5.40971e-07
5.31514e-06
2.26159e-07
-5.34604e-07
5.65785e-06
3.17237e-07
-5.01961e-07
6.01682e-06
4.1382e-07
-5.06388e-07
6.4848e-06
4.47171e-07
-2.52051e-07
6.92345e-06
6.23477e-07
-4.63972e-07
7.36392e-06
6.16255e-07
-1.26907e-07
7.78969e-06
6.53478e-07
-2.47074e-07
8.18731e-06
7.72537e-07
-3.2186e-07
7.84826e-07
1.66281e-07
1.28941e-06
5.13361e-08
-4.67268e-08
1.32326e-06
6.62825e-08
-4.73788e-08
1.3634e-06
8.51993e-08
-4.74768e-08
1.41252e-06
1.08591e-07
-4.71561e-08
1.47419e-06
1.36464e-07
-4.67881e-08
1.55271e-06
1.67863e-07
-4.71969e-08
1.65235e-06
2.00151e-07
-4.99966e-08
1.77517e-06
2.28248e-07
-5.79654e-08
1.91702e-06
2.44521e-07
-7.50485e-08
2.0624e-06
2.40797e-07
-1.04346e-07
2.18367e-06
2.12824e-07
-1.46663e-07
2.27843e-06
1.71939e-07
-1.89749e-07
2.36306e-06
1.29296e-07
-2.25502e-07
2.44166e-06
8.75367e-08
-2.56918e-07
2.51818e-06
4.94423e-08
-2.85207e-07
2.6023e-06
2.05185e-08
-3.12235e-07
2.70007e-06
4.87597e-09
-3.37673e-07
2.81616e-06
3.04266e-09
-3.5929e-07
2.95239e-06
9.39735e-09
-3.79536e-07
3.10855e-06
2.1704e-08
-3.99976e-07
3.28265e-06
3.59192e-08
-4.24295e-07
3.47733e-06
5.26079e-08
-4.50813e-07
3.69341e-06
6.96018e-08
-4.79689e-07
3.92923e-06
8.77469e-08
-5.11735e-07
4.18056e-06
1.00491e-07
-5.45671e-07
4.44532e-06
1.21984e-07
-5.81703e-07
4.73159e-06
1.32979e-07
-6.11097e-07
5.0346e-06
1.81859e-07
-6.36766e-07
5.37448e-06
2.04706e-07
-6.56248e-07
5.74701e-06
2.72122e-07
-6.35007e-07
6.12514e-06
3.68053e-07
-7.05094e-07
6.59781e-06
3.19373e-07
-5.77355e-07
6.98751e-06
5.95191e-07
-6.83118e-07
7.51542e-06
4.24975e-07
-6.41028e-07
8.02825e-06
5.97721e-07
-3.98427e-07
8.49457e-06
6.51633e-07
-8.73592e-07
7.0422e-07
-3.32459e-07
1.3009e-06
4.35075e-08
-4.78391e-08
1.33766e-06
5.48253e-08
-4.95646e-08
1.37996e-06
6.89785e-08
-5.10449e-08
1.42899e-06
8.62539e-08
-5.21493e-08
1.4863e-06
1.06278e-07
-5.27867e-08
1.55366e-06
1.27966e-07
-5.30578e-08
1.63263e-06
1.49091e-07
-5.33466e-08
1.72382e-06
1.65917e-07
-5.44422e-08
1.8259e-06
1.73398e-07
-5.75355e-08
1.93468e-06
1.66803e-07
-6.37885e-08
2.04432e-06
1.44057e-07
-7.40647e-08
2.1532e-06
1.12096e-07
-8.82677e-08
2.26172e-06
7.9965e-08
-1.06478e-07
2.36964e-06
5.0776e-08
-1.28523e-07
2.47708e-06
2.6598e-08
-1.53681e-07
2.5862e-06
1.03785e-08
-1.80554e-07
2.70171e-06
2.58073e-09
-2.08142e-07
2.82878e-06
3.74065e-09
-2.35782e-07
2.9707e-06
1.05686e-08
-2.64999e-07
3.12952e-06
2.14251e-08
-2.94636e-07
3.30621e-06
3.37165e-08
-3.2516e-07
3.50174e-06
4.81982e-08
-3.57253e-07
3.71701e-06
6.27851e-08
-3.9045e-07
3.95177e-06
7.97086e-08
-4.26897e-07
4.20628e-06
9.15145e-08
-4.61727e-07
4.47719e-06
1.15924e-07
-5.04085e-07
4.77283e-06
1.21753e-07
-5.3254e-07
5.08097e-06
1.73697e-07
-5.78965e-07
5.42756e-06
1.79368e-07
-5.97747e-07
5.79562e-06
2.28852e-07
-6.16635e-07
6.16735e-06
3.47425e-07
-6.88202e-07
6.65882e-06
1.72217e-07
-5.82514e-07
7.02053e-06
6.03816e-07
-7.53677e-07
7.58937e-06
2.27669e-07
-6.68455e-07
8.0504e-06
5.31357e-07
-6.07367e-07
8.53285e-06
5.79949e-07
-8.83807e-07
4.3261e-07
-6.29214e-07
1.30718e-06
3.31432e-08
-4.64077e-08
1.34625e-06
4.07707e-08
-4.87234e-08
1.39147e-06
5.00011e-08
-5.11179e-08
1.44452e-06
6.07979e-08
-5.37389e-08
1.50714e-06
7.28998e-08
-5.69833e-08
1.58092e-06
8.56324e-08
-6.1437e-08
1.66688e-06
9.77552e-08
-6.79121e-08
1.76463e-06
1.07395e-07
-7.74912e-08
1.87149e-06
1.12339e-07
-9.13044e-08
1.98219e-06
1.10756e-07
-1.09972e-07
2.08986e-06
1.02166e-07
-1.33456e-07
2.19154e-06
8.87395e-08
-1.59971e-07
2.28925e-06
7.35086e-08
-1.87278e-07
2.38567e-06
5.84975e-08
-2.14499e-07
2.48387e-06
4.52755e-08
-2.41435e-07
2.58801e-06
3.55845e-08
-2.6803e-07
2.70206e-06
3.04216e-08
-2.94433e-07
2.8296e-06
3.03344e-08
-3.20686e-07
2.97264e-06
3.41407e-08
-3.47246e-07
3.13262e-06
4.09582e-08
-3.74719e-07
3.31013e-06
4.93256e-08
-4.03815e-07
3.50644e-06
5.93945e-08
-4.34646e-07
3.72234e-06
6.92651e-08
-4.6613e-07
3.95801e-06
8.23599e-08
-5.00805e-07
4.21421e-06
8.91222e-08
-5.32201e-07
4.4883e-06
1.12956e-07
-5.73027e-07
4.78978e-06
1.05643e-07
-5.95469e-07
5.10276e-06
1.62928e-07
-6.43335e-07
5.45852e-06
1.38874e-07
-6.61047e-07
5.8297e-06
1.85843e-07
-6.63245e-07
6.21389e-06
3.07158e-07
-8.00556e-07
6.69883e-06
4.20784e-08
-5.84641e-07
7.07555e-06
5.77975e-07
-9.39254e-07
7.63732e-06
6.23994e-08
-7.14848e-07
8.11298e-06
4.11157e-07
-6.77337e-07
8.62615e-06
5.32071e-07
-1.03749e-06
8.58786e-08
-8.33846e-07
1.30064e-06