/*--------------------------------*- C++ -*----------------------------------*\
| =========                 |                                                 |
| \\      /  F ield         | OpenFOAM: The Open Source CFD Toolbox           |
|  \\    /   O peration     | Version:  2.3.1                                 |
|   \\  /    A nd           | Web:      www.OpenFOAM.org                      |
|    \\/     M anipulation  |                                                 |
\*---------------------------------------------------------------------------*/
FoamFile
{
    version     2.0;
    format      ascii;
    class       surfaceScalarField;
    location    "20";
    object      phi_0;
}
// * * * * * * * * * * * * * * * * * * * * * * * * * * * * * * * * * * * * * //

dimensions      [0 3 -1 0 0 0 0];

internalField   nonuniform List<scalar> 
107940
(
9.0028e-07
1.18285e-08
1.00324e-08
8.52098e-07
2.62525e-08
2.19302e-08
7.53996e-07
5.37697e-08
4.43321e-08
5.55588e-07
1.09074e-07
8.93343e-08
1.38698e-07
2.27789e-07
1.89101e-07
-7.76064e-07
4.94083e-07
4.20679e-07
-3.01094e-06
1.1623e-06
1.07258e-06
-8.6138e-06
2.88869e-06
2.71417e-06
-1.75091e-05
4.84561e-06
4.04967e-06
-2.21236e-05
2.26797e-06
2.34652e-06
-1.93735e-05
-2.11772e-06
-6.32312e-07
-1.74093e-05
-1.75714e-06
-2.0706e-07
-1.93755e-05
5.64197e-07
1.40194e-06
-1.98042e-05
3.71558e-07
5.71772e-08
-1.73814e-05
-1.00481e-06
-1.41799e-06
-1.59658e-05
-1.0389e-06
-3.76725e-07
-1.5806e-05
-3.14137e-07
1.54315e-07
-1.47139e-05
3.10967e-08
-1.12319e-06
-1.35738e-05
1.27998e-07
-1.26807e-06
-1.37315e-05
1.82618e-07
-2.48759e-08
-1.37431e-05
9.66724e-08
-8.51155e-08
-1.27638e-05
-7.14975e-09
-9.72172e-07
-1.20945e-05
-6.64069e-08
-6.02896e-07
-1.16901e-05
-1.58892e-07
-2.4547e-07
-1.06081e-05
-3.91807e-08
-1.0428e-06
-9.62057e-06
3.63113e-07
-1.35067e-06
-9.11708e-06
4.24966e-07
-9.28465e-07
-8.44385e-06
1.6677e-07
-8.39999e-07
-7.82143e-06
7.59702e-08
-6.98387e-07
-7.61299e-06
1.12693e-07
-3.21138e-07
-7.52376e-06
4.0635e-07
-4.95573e-07
-7.31648e-06
1.53283e-06
-1.74011e-06
-7.36724e-06
3.52961e-06
-3.47885e-06
-7.07759e-06
1.24728e-06
-1.53693e-06
-5.6496e-06
-1.81652e-06
3.88532e-07
-5.17079e-06
-2.20509e-06
1.72628e-06
-1.41393e-06
2.20557e-06
1.01843e-06
2.69658e-08
-3.26861e-09
9.90822e-07
4.84251e-08
5.4326e-09
9.3845e-07
8.50709e-08
2.10704e-08
8.48013e-07
1.50053e-07
4.9458e-08
7.02928e-07
2.70647e-07
1.02228e-07
4.93979e-07
5.01799e-07
2.01232e-07
2.90905e-07
9.73851e-07
3.91519e-07
4.89299e-07
1.92473e-06
7.65567e-07
9.6109e-07
3.37289e-06
1.00094e-06
7.27949e-07
3.28189e-06
-7.80774e-07
-4.37126e-07
1.71962e-06
-2.67226e-06
-1.86989e-06
1.46517e-06
-1.78955e-06
-2.72679e-06
1.74296e-06
-3.21868e-07
-3.0845e-06
1.10724e-06
-3.77963e-07
-2.94698e-06
8.10438e-08
-1.22338e-06
-2.44335e-06
-3.31675e-07
-1.21086e-06
-2.13954e-06
-1.03855e-07
-5.14092e-07
-2.28878e-06
4.28989e-07
-2.48653e-07
-2.42708e-06
9.82872e-07
-7.16571e-07
-2.28079e-06
1.17781e-06
-1.14148e-06
-2.35846e-06
1.01172e-06
-8.37373e-07
-3.05204e-06
8.46512e-07
-1.60081e-07
-3.88133e-06
7.25526e-07
3.73566e-08
-4.27381e-06
5.11002e-07
-2.77422e-07
-4.22098e-06
4.99333e-07
-5.91341e-07
-3.70601e-06
7.75495e-07
-9.2735e-07
-2.87713e-06
9.32763e-07
-1.33667e-06
-2.1407e-06
1.09221e-06
-1.66188e-06
-1.85861e-06
1.60872e-06
-1.81484e-06
-2.69092e-06
2.19435e-06
-1.24935e-06
-5.1339e-06
2.27502e-06
5.74314e-07
-6.56058e-06
2.03046e-06
9.29051e-07
-4.59542e-06
2.83155e-06
-1.2671e-06
-2.01219e-06
2.15267e-06
-3.48861e-06
-1.43798e-06
2.82032e-07
-2.67277e-06
-1.59043e-06
-8.17168e-07
-1.23547e-06
-9.57095e-07
-7.38468e-07
1.05701e-06
4.29052e-08
-1.01943e-08
1.03855e-06
6.99496e-08
-3.0613e-09
1.00011e-06
1.13548e-07
9.96102e-09
9.31529e-07
1.85002e-07
3.3631e-08
8.21752e-07
3.03647e-07
7.67765e-08
6.67087e-07
5.00765e-07
1.55699e-07
5.15574e-07
8.26814e-07
2.98551e-07
5.74141e-07
1.32704e-06
5.3912e-07
1.0924e-06
1.98565e-06
8.68971e-07
1.63033e-06
1.76767e-06
9.76288e-07
1.75567e-06
5.41812e-07
1.05247e-06
1.70309e-06
2.08054e-07
1.30969e-06
1.76325e-06
4.36943e-07
1.24586e-06
1.79603e-06
2.5862e-07
8.15836e-07
1.69936e-06
-2.21605e-07
3.99317e-07
1.47288e-06
-4.82105e-07
3.76909e-07
1.119e-06
-4.02234e-07
6.52266e-07
6.91901e-07
-1.28143e-07
9.84227e-07
3.05298e-07
2.61827e-07
1.10765e-06
8.57122e-08
4.9864e-07
8.98756e-07
-6.80692e-08
5.20026e-07
6.45472e-07
-5.19212e-07
6.13331e-07
6.84324e-07
-1.56048e-06
8.22005e-07
9.44792e-07
-2.95497e-06
8.02671e-07
1.10282e-06
-3.86214e-06
5.30264e-07
8.76244e-07
-3.8071e-06
3.21089e-07
3.99358e-07
-3.30905e-06
2.64513e-07
1.70205e-07
-2.82618e-06
4.02394e-07
2.0695e-07
-2.13443e-06
7.95387e-07
1.21577e-07
-1.18298e-06
1.46132e-06
-2.18421e-07
-7.53276e-07
2.51245e-06
-6.67128e-07
-1.40022e-06
3.36941e-06
-6.92003e-07
-1.10922e-06
3.48184e-06
-9.41291e-07
5.28654e-07
3.23517e-06
-2.72037e-06
1.84836e-06
2.006e-06
-3.04368e-06
2.67809e-06
1.18961e-06
-2.83651e-06
1.18406e-06
-2.41435e-06
1.09073e-06
5.26739e-08
-1.47438e-08
1.09175e-06
7.92016e-08
-1.02777e-08
1.0888e-06
1.19168e-07
-2.66759e-09
1.08424e-06
1.79652e-07
9.9167e-09
1.08682e-06
2.71304e-07
2.97544e-08
1.11853e-06
4.0892e-07
6.01426e-08
1.23123e-06
6.0965e-07
1.04462e-07
1.52985e-06
8.73967e-07
1.54459e-07
2.1725e-06
1.165e-06
1.78003e-07
2.71885e-06
1.20187e-06
1.94556e-08
2.66197e-06
8.46166e-07
-2.47477e-07
2.46512e-06
5.94554e-07
-1.89651e-07
2.43337e-06
4.85318e-07
-1.66284e-08
2.41804e-06
2.70095e-07
3.85401e-09
2.3222e-06
-1.49231e-08
-1.10838e-07
2.2275e-06
-1.87023e-07
-2.00386e-07
2.19934e-06
-1.8633e-07
-1.87743e-07
2.24318e-06
-9.31765e-08
-7.88081e-08
2.34594e-06
2.85794e-08
1.30487e-07
2.45311e-06
1.17359e-07
2.74112e-07
2.51325e-06
1.41039e-07
3.18849e-07
2.56471e-06
1.97595e-07
3.64276e-07
2.62911e-06
3.17698e-07
4.39913e-07
2.60628e-06
4.06803e-07
4.1869e-07
2.47655e-06
3.68245e-07
2.91755e-07
2.31312e-06
2.75477e-07
2.09038e-07
2.03049e-06
2.35695e-07
3.11448e-07
1.42687e-06
3.52161e-07
6.53852e-07
3.24684e-07
5.44334e-07
1.35324e-06
-9.54867e-07
8.22856e-07
1.91802e-06
-1.23415e-06
1.32916e-06
1.46257e-06
-5.5253e-07
2.11686e-06
5.70924e-07
5.43604e-07
2.66867e-06
-2.8297e-07
2.06403e-06
3.19076e-06
-1.47602e-06
3.24492e-06
2.72233e-06
-1.89722e-06
3.9948e-06
2.20974e-06
-1.77e-06
2.34407e-06
-1.46981e-06
1.11488e-06
5.88188e-08
-1.74508e-08
1.12379e-06
8.45445e-08
-1.42529e-08
1.12979e-06
1.21658e-07
-8.48554e-09
1.13344e-06
1.74721e-07
1.27978e-09
1.13829e-06
2.49194e-07
1.72542e-08
1.15483e-06
3.50575e-07
4.18107e-08
1.20527e-06
4.81208e-07
7.80022e-08
1.32508e-06
6.2823e-07
1.25921e-07
1.55957e-06
7.5099e-07
1.79521e-07
1.83085e-06
7.17925e-07
2.12662e-07
2.02288e-06
4.30379e-07
2.23756e-07
2.17892e-06
2.10006e-07
2.28512e-07
2.34216e-06
1.2169e-07
2.00389e-07
2.4684e-06
6.24317e-09
1.37605e-07
2.50641e-06
-1.21203e-07
6.82766e-08
2.49879e-06
-2.04408e-07
2.49987e-08
2.50606e-06
-2.10819e-07
1.7218e-08
2.55785e-06
-1.60859e-07
1.58951e-08
2.65838e-06
-8.13684e-08
9.41707e-09
2.78974e-06
-1.47732e-08
7.78332e-10
2.92934e-06
2.13267e-08
-1.98882e-08
3.08798e-06
7.1016e-08
-3.2062e-08
3.2873e-06
1.38387e-07
-2.00154e-08
3.52071e-06
1.77224e-07
-3.82432e-09
3.74533e-06
1.55426e-07
-1.1799e-08
3.93871e-06
1.30356e-07
-4.82628e-08
4.08347e-06
1.38671e-07
-4.77367e-08
4.18261e-06
2.54037e-07
-1.01796e-09
4.12686e-06
4.37071e-07
1.63014e-07
3.75473e-06
7.47348e-07
4.47636e-07
3.0288e-06
8.92878e-07
1.16221e-06
1.85517e-06
1.31133e-06
1.97916e-06
1.07612e-06
1.5903e-06
1.85743e-06
1.44229e-06
2.22016e-06
6.04429e-07
2.139e-06
2.25787e-06
-2.32247e-07
2.90329e-06
1.88498e-06
-4.39534e-07
2.39613e-06
-7.40448e-07
1.13828e-06
5.99467e-08
-1.96604e-08
1.15891e-06
8.2011e-08
-1.80903e-08
1.18387e-06
1.12128e-07
-1.54277e-08
1.21726e-06
1.52721e-07
-1.13994e-08
1.26611e-06
2.06143e-07
-5.79759e-09
1.34172e-06
2.73754e-07
1.20956e-09
1.46075e-06
3.53732e-07
8.44872e-09
1.641e-06
4.36147e-07
1.18391e-08
1.89075e-06
4.98318e-07
2.92002e-09
2.14297e-06
4.98199e-07
-3.24958e-08
2.2636e-06
4.05828e-07
-9.60777e-08
2.30822e-06
2.98061e-07
-1.32676e-07
2.35562e-06
2.11174e-07
-1.36887e-07
2.38889e-06
1.19881e-07
-1.46905e-07
2.40876e-06
2.63921e-08
-1.67469e-07
2.43684e-06
-4.28255e-08
-1.89662e-07
2.49215e-06
-6.75364e-08
-1.98586e-07
2.58255e-06
-5.5125e-08
-1.96135e-07
2.71351e-06
-2.92945e-08
-1.83042e-07
2.86803e-06
2.64628e-09
-1.7193e-07
3.03256e-06
2.64993e-08
-1.69711e-07
3.21657e-06
5.67642e-08
-1.69756e-07
3.43608e-06
9.07686e-08
-1.71892e-07
3.67468e-06
1.19526e-07
-1.80896e-07
3.90649e-06
1.25548e-07
-2.01938e-07
4.1287e-06
1.31506e-07
-2.23358e-07
4.3463e-06
1.41791e-07
-2.20716e-07
4.58917e-06
2.12642e-07
-2.01475e-07
4.85332e-06
2.88387e-07
-1.15472e-07
5.18415e-06
4.6812e-07
-5.15986e-08
5.38521e-06
6.06542e-07
8.52783e-08
5.4432e-06
9.23393e-07
3.29948e-07
5.15832e-06
1.12242e-06
7.52765e-07
4.81911e-06
1.19042e-06
1.36895e-06
4.63251e-06
1.5544e-06
8.90068e-07
4.28082e-06
1.26019e-06
9.76492e-07
1.81318e-06
5.55635e-07
1.15629e-06
5.8136e-08
-2.14167e-08
1.18206e-06
7.70762e-08
-2.08319e-08
1.21133e-06
1.02223e-07
-1.93641e-08
1.24589e-06
1.34778e-07
-1.66207e-08
1.28878e-06
1.75454e-07
-1.21931e-08
1.34464e-06
2.23647e-07
-5.75388e-09
1.41982e-06
2.75842e-07
2.70647e-09
1.52034e-06
3.23187e-07
1.24383e-08
1.64806e-06
3.49411e-07
2.11868e-08
1.78836e-06
3.32282e-07
2.56158e-08
1.91536e-06
2.54816e-07
2.40191e-08
2.0325e-06
1.62803e-07
1.81157e-08
2.14669e-06
9.1054e-08
5.93206e-09
2.25281e-06
2.60772e-08
-1.23212e-08
2.34217e-06
-2.79077e-08
-3.5064e-08
2.41694e-06
-6.35054e-08
-5.40861e-08
2.49787e-06
-7.74882e-08
-7.09814e-08
2.5967e-06
-6.92705e-08
-8.46828e-08
2.71798e-06
-5.03465e-08
-1.00227e-07
2.86186e-06
-2.55778e-08
-1.15655e-07
3.02578e-06
-4.65839e-09
-1.32759e-07
3.21064e-06
2.10536e-08
-1.49154e-07
3.41881e-06
4.66394e-08
-1.64043e-07
3.64836e-06
7.03689e-08
-1.80385e-07
3.89096e-06
8.05489e-08
-1.97608e-07
4.14203e-06
1.00438e-07
-2.20004e-07
4.40027e-06
1.14346e-07
-2.30789e-07
4.68251e-06
1.79472e-07
-2.49076e-07
4.97391e-06
2.29603e-07
-2.32614e-07
5.30282e-06
3.46186e-07
-2.06977e-07
5.65302e-06
4.61623e-07
-2.05275e-07
6.03895e-06
5.02249e-07
3.52107e-08
6.52932e-06
7.91364e-07
-1.59321e-07
6.6742e-06
7.65533e-07
2.80011e-07
7.07533e-06
9.67911e-07
1.85355e-07
7.13416e-06
1.00251e-06
1.98847e-07
1.25893e-06
6.75299e-07
1.17092e-06
5.37095e-08
-2.28127e-08
1.20237e-06
6.87213e-08
-2.3092e-08
1.24001e-06
8.76806e-08
-2.30973e-08
1.28658e-06
1.11113e-07
-2.291e-08
1.34575e-06
1.39023e-07
-2.27324e-08
1.42195e-06
1.70451e-07
-2.30096e-08
1.51967e-06
2.02733e-07
-2.46087e-08
1.64117e-06
2.3071e-07
-2.90198e-08
1.78236e-06
2.46636e-07
-3.84137e-08
1.9267e-06
2.42234e-07
-5.42922e-08
2.04511e-06
2.13473e-07
-7.70699e-08
2.13524e-06
1.72432e-07
-9.97603e-08
2.21443e-06
1.30155e-07
-1.18296e-07
2.28634e-06
8.89237e-08
-1.34749e-07
2.35607e-06
5.15208e-08
-1.49163e-07
2.4323e-06
2.38667e-08
-1.63605e-07
2.52212e-06
9.61177e-09
-1.76912e-07
2.6307e-06
9.85466e-09
-1.87711e-07
2.75986e-06
1.85624e-08
-1.98067e-07
2.90903e-06
3.32882e-08
-2.08036e-07
3.07507e-06
4.98052e-08
-2.20507e-07
3.26104e-06
6.89889e-08
-2.33908e-07
3.46833e-06
8.79848e-08
-2.48626e-07
3.69547e-06
1.08359e-07
-2.65132e-07
3.93697e-06
1.21493e-07
-2.82452e-07
4.19004e-06
1.48475e-07
-3.011e-07
4.46536e-06
1.54479e-07
-3.15454e-07
4.74953e-06
2.22357e-07
-3.27059e-07
5.08875e-06
2.28254e-07
-3.37868e-07
5.42494e-06
3.17694e-07
-3.07702e-07
5.8153e-06
4.44048e-07
-3.72781e-07
6.24843e-06
3.01705e-07
-2.32584e-07
6.60666e-06
7.55075e-07
-3.21942e-07
7.18285e-06
4.93627e-07
-3.04284e-07
7.53061e-06
5.61848e-07
5.83015e-08
8.11471e-06
9.46854e-07
-5.28442e-07
7.10488e-07
1.71172e-07
1.18026e-06
4.72072e-08
-2.34411e-08
1.21457e-06
5.86929e-08
-2.42751e-08
1.25423e-06
7.30018e-08
-2.49812e-08
1.30039e-06
9.04276e-08
-2.54725e-08
1.35454e-06
1.10546e-07
-2.56746e-08
1.41837e-06
1.32238e-07
-2.56157e-08
1.49334e-06
1.53221e-07
-2.54646e-08
1.57999e-06
1.69655e-07
-2.55965e-08
1.67691e-06
1.76326e-07
-2.66039e-08
1.77977e-06
1.68386e-07
-2.90103e-08
1.88269e-06
1.43762e-07
-3.32111e-08
1.98445e-06
1.09901e-07
-3.92341e-08
2.08563e-06
7.62716e-08
-4.72936e-08
2.18598e-06
4.594e-08
-5.73671e-08
2.28551e-06
2.10726e-08
-6.90805e-08
2.38645e-06
4.51089e-09
-8.15799e-08
2.49356e-06
-2.57911e-09
-9.49255e-08
2.61229e-06
-8.43684e-10
-1.08026e-07
2.74564e-06
7.12263e-09
-1.21914e-07
2.89579e-06
1.92401e-08
-1.36103e-07
3.06375e-06
3.2537e-08
-1.50688e-07
3.25063e-06
4.82525e-08
-1.66143e-07
3.45667e-06
6.39599e-08
-1.82016e-07
3.68244e-06
8.27786e-08
-2.00188e-07
3.92578e-06
9.43741e-08
-2.16222e-07
4.18875e-06
1.24755e-07
-2.39256e-07
4.46924e-06
1.22138e-07
-2.4815e-07
4.77358e-06
1.9705e-07
-2.79032e-07
5.10139e-06
1.76969e-07
-2.76523e-07
5.46798e-06
2.43035e-07
-2.91928e-07
5.81521e-06
4.33922e-07
-3.37107e-07
6.32105e-06
3.41833e-08
-2.38323e-07
6.62271e-06
8.36921e-07
-3.83502e-07
7.24024e-06
1.72937e-07
-2.96844e-07
7.60152e-06
4.13591e-07
-2.13016e-07
8.12481e-06
8.96845e-07
-4.73281e-07
3.22138e-07
-2.56067e-07
1.18227e-06
3.79821e-08
-2.2597e-08
1.21881e-06
4.58658e-08
-2.3721e-08
1.26137e-06
5.53315e-08
-2.48856e-08
1.31162e-06
6.63357e-08
-2.61589e-08
1.37132e-06
7.86058e-08
-2.77554e-08
1.44208e-06
9.14705e-08
-2.99921e-08
1.52492e-06
1.03674e-07
-3.32995e-08
1.61951e-06
1.13333e-07
-3.826e-08
1.72309e-06
1.18235e-07
-4.54981e-08
1.83018e-06
1.16602e-07
-5.52972e-08
1.93353e-06
1.08064e-07
-6.76566e-08
2.03011e-06
9.49509e-08
-8.16306e-08
2.12201e-06
8.038e-08
-9.60075e-08
2.21191e-06
6.63861e-08
-1.10349e-07
2.30299e-06
5.45469e-08
-1.24553e-07
2.39954e-06
4.66406e-08
-1.38677e-07
2.50586e-06
4.36543e-08
-1.52556e-07
2.62548e-06
4.60976e-08
-1.66555e-07
2.7605e-06
5.27528e-08
-1.8065e-07
2.9123e-06
6.26577e-08
-1.95224e-07
3.08122e-06
7.43374e-08
-2.10717e-07
3.26868e-06
8.79501e-08
-2.27162e-07
3.4751e-06
1.01323e-07
-2.43778e-07
3.70171e-06
1.18685e-07
-2.62513e-07
3.94676e-06
1.2775e-07
-2.78432e-07
4.21266e-06
1.60804e-07
-3.0195e-07
4.49869e-06
1.46261e-07
-3.1015e-07
4.80685e-06
2.30073e-07
-3.41182e-07
5.14186e-06
1.87779e-07
-3.4582e-07
5.50726e-06
2.12855e-07
-3.35223e-07
5.88601e-06
5.11786e-07
-4.56614e-07
6.32375e-06
-1.7356e-07
-2.2999e-07
6.77768e-06
9.71565e-07
-5.88579e-07
7.23374e-06
3.50408e-08
-3.18166e-07
7.69414e-06
2.75495e-07
-3.22298e-07
8.28626e-06
8.77333e-07
-5.72612e-07
2.20103e-07
-5.17751e-07
1.16714e-06
2.36112e-08
-1.84671e-08
1.20474e-06
2.7787e-08
-1.95251e-08
1.24803e-06
3.27431e-08
-2.06978e-08
1.29788e-06
3.85168e-08
-2.20313e-08
1.35504e-06
4.49811e-08
-2.35414e-08
1.42026e-06
5.15896e-08
-2.53301e-08
1.49381e-06
5.76623e-08
-2.75472e-08
1.57531e-06
6.21943e-08
-3.03615e-08
1.66348e-06
6.40067e-08
-3.39383e-08
1.75627e-06
6.21765e-08
-3.83661e-08
1.85149e-06
5.65324e-08
-4.36877e-08
1.94797e-06
4.83305e-08
-4.98543e-08
2.0456e-06
3.95547e-08
-5.6812e-08
2.14495e-06
3.15376e-08
-6.44929e-08
2.24714e-06
2.51486e-08
-7.27948e-08
2.35417e-06
2.11856e-08
-8.15751e-08
2.46869e-06
1.99242e-08
-9.07933e-08
2.59374e-06
2.14209e-08
-1.0037e-07
2.73182e-06
2.49803e-08
-1.10309e-07
2.88502e-06
3.01708e-08
-1.20716e-07
3.05469e-06
3.61935e-08
-1.31525e-07
3.24245e-06
4.34165e-08
-1.43229e-07
3.44813e-06
5.03895e-08
-1.5474e-07
3.67554e-06
6.05422e-08
-1.69268e-07
3.91692e-06
6.41293e-08
-1.77766e-07
4.19349e-06
8.63741e-08
-2.02134e-07
4.46005e-06
6.97611e-08
-1.90058e-07
4.80826e-06
1.28518e-07
-2.46656e-07
5.10008e-06
9.52326e-08
-1.99272e-07
5.46853e-06
7.91761e-08
-2.34778e-07
5.94656e-06
3.87085e-07
-3.53327e-07
6.09703e-06
-3.35211e-07
1.11794e-08
6.82869e-06
8.74006e-07
-6.34096e-07
7.23987e-06
-2.67994e-07
-1.08148e-07
7.35664e-06
2.71675e-07
-1.12944e-07
8.45308e-06
5.82995e-07
-8.0211e-07
8.33559e-08
-3.44648e-07
1.06933e-06
-8.35169e-09
1.10599e-06
-8.87166e-09
1.14826e-06
-9.52928e-09
1.19715e-06
-1.03785e-08
1.25371e-06
-1.15766e-08
1.31859e-06
-1.32846e-08
1.39195e-06
-1.57049e-08
1.47323e-06
-1.90781e-08
1.56084e-06
-2.36073e-08
1.65241e-06
-2.93918e-08
1.74535e-06
-3.64057e-08
1.83809e-06
-4.44164e-08
1.93072e-06
-5.30753e-08
2.02436e-06
-6.20989e-08
2.12082e-06
-7.13078e-08
2.22261e-06
-8.06136e-08
2.33255e-06
-9.00147e-08
2.45349e-06
-9.95152e-08
2.58764e-06
-1.09171e-07
2.73691e-06
-1.19102e-07
2.90248e-06
-1.29371e-07
3.08611e-06
-1.40212e-07
3.28718e-06
-1.50682e-07
3.5115e-06
-1.63777e-07
3.7441e-06
-1.68477e-07
4.03116e-06
-2.0068e-07
4.24828e-06
-1.4736e-07
4.69595e-06
-3.1915e-07
4.75763e-06
3.35478e-08
5.43514e-06
-5.98331e-07
5.59646e-06
2.25758e-07
5.75054e-06
-4.89292e-07
6.94532e-06
-3.20773e-07
6.77458e-06
-9.72457e-08
6.66828e-06
3.77967e-07
8.92002e-06
-1.66874e-06
5.93435e-07
1.0613e-06
1.63959e-08
1.1744e-08
1.01837e-06
3.08773e-08
3.39776e-08
9.29045e-07
5.79202e-08
7.57392e-08
7.48291e-07
1.11236e-07
1.58852e-07
3.75765e-07
2.23212e-07
3.38414e-07
-4.25445e-07
4.69389e-07
7.52501e-07
-2.26756e-06
1.06216e-06
1.85253e-06
-7.07863e-06
2.60869e-06
4.91655e-06
-1.62026e-05
4.79399e-06
8.37964e-06
-2.25068e-05
3.04045e-06
5.61032e-06
-2.03003e-05
-1.41964e-06
-1.4192e-06
-1.61556e-05
-2.22407e-06
-2.12773e-06
-1.55661e-05
-6.7655e-07
1.48906e-06
-1.59789e-05
-3.3626e-07
8.06234e-07
-1.45584e-05
-1.06286e-06
-1.77567e-06
-1.23267e-05
-1.49013e-06
-1.11826e-06
-1.12348e-05
-1.4827e-06
5.45038e-07
-1.12433e-05
-1.04043e-06
-7.42589e-08
-1.11465e-05
-3.91595e-07
-9.73288e-07
-1.04719e-05
-2.11456e-07
-4.87971e-07
-9.83672e-06
-5.01069e-07
-2.19227e-07
-9.39045e-06
-5.49712e-07
-8.68737e-07
-8.76944e-06
-2.79074e-07
-9.44829e-07
-8.06734e-06
-2.50558e-07
-6.97012e-07
-7.46397e-06
-3.32665e-07
-1.3135e-06
-7.02298e-06
3.31071e-08
-1.82477e-06
-6.63495e-06
3.82669e-07
-1.69917e-06
-6.05703e-06
2.72662e-07
-1.69057e-06
-5.25335e-06
-3.24943e-08
-1.46958e-06
-4.3588e-06
-5.03939e-07
-7.11743e-07
-3.78496e-06
-9.07173e-07
-1.62241e-07
-3.34092e-06
-9.2555e-07
-1.25861e-06
-3.64849e-06
1.24474e-06
-4.41602e-06
-5.43327e-06
2.75107e-06
-2.50322e-06
-5.94343e-06
1.34034e-06
-4.41646e-07
-4.92195e-06
-6.45181e-07
1.34999e-06
-6.66831e-07
2.28298e-06
1.15305e-06
3.18681e-08
-9.93325e-09
1.12929e-06
5.33993e-08
6.66981e-09
1.08219e-06
8.96571e-08
3.64387e-08
9.9967e-07
1.53058e-07
9.01525e-08
8.67417e-07
2.68797e-07
1.88896e-07
6.78171e-07
4.86956e-07
3.72911e-07
4.84746e-07
9.21525e-07
7.25577e-07
6.88937e-07
1.77982e-06
1.39024e-06
1.14564e-06
3.16189e-06
2.17633e-06
7.18127e-07
3.16392e-06
-4.76741e-07
-3.94829e-07
1.29611e-06
-4.27505e-06
-1.28608e-06
3.27745e-07
-3.45011e-06
-1.68544e-06
3.95442e-07
-9.94502e-07
-2.03965e-06
6.33911e-08
-4.23399e-07
-2.14092e-06
-5.96307e-07
-1.58865e-06
-1.56997e-06
-9.704e-07
-2.30154e-06
-7.53237e-07
-9.32924e-07
-1.88061e-06
-2.81332e-07
-6.46567e-07
-1.11442e-06
-1.78288e-07
-2.60856e-07
-9.50354e-07
-1.42423e-07
-7.66583e-08
-1.31214e-06
-1.53945e-07
-1.5846e-07
-1.16846e-06
-4.34492e-07
-1.96377e-07
-2.3287e-07
-9.05317e-07
-1.1049e-07
3.39598e-07
-1.30132e-06
-1.83684e-07
5.17072e-08
-1.51158e-06
-3.21134e-07
-3.92608e-07
-1.42676e-06
-2.13136e-07
-7.65928e-07
-1.01167e-06
-8.88793e-08
-1.28021e-06
-4.39184e-07
-1.40605e-07
-1.8211e-06
1.25574e-07
-1.20121e-07
-2.29197e-06
5.18905e-07
1.51201e-07
-2.29782e-06
3.84189e-07
7.14375e-07
-9.12518e-07
-4.63763e-07
8.354e-07
1.60528e-08
-3.36602e-07
1.5732e-06
-1.72272e-06
3.15868e-07
2.69572e-06
-4.08573e-06
1.19708e-07
1.89509e-06
-3.03136e-06
-1.53491e-07
3.57085e-07
-1.96454e-06
-9.51411e-08
-1.4511e-06
1.1828e-06
4.63756e-08
-2.18452e-08
1.16796e-06
7.34061e-08
-8.22938e-09
1.13452e-06
1.16613e-07
1.64445e-08
1.0735e-06
1.86778e-07
6.09293e-08
9.7585e-07
3.02117e-07
1.41106e-07
8.40691e-07
4.91646e-07
2.86168e-07
7.15268e-07
8.01205e-07
5.44294e-07
7.93063e-07
1.268e-06
9.73145e-07
1.34795e-06
1.90391e-06
1.57206e-06
1.94867e-06
1.76977e-06
1.76972e-06
2.11986e-06
5.3423e-07
1.64316e-06
2.11834e-06
-6.00588e-08
1.69902e-06
2.26055e-06
-3.5834e-08
1.53492e-06
2.35764e-06
-1.86675e-07
9.68808e-07
2.28378e-06
-5.10269e-07
3.87147e-07
2.08853e-06
-6.86042e-07
2.87793e-07
1.82955e-06
-6.49898e-07
6.28227e-07
1.59309e-06
-4.86192e-07
1.06031e-06
1.48117e-06
-2.69322e-07
1.22804e-06
1.48123e-06
-1.72276e-07
9.94318e-07
1.4903e-06
-1.89293e-07
6.67234e-07
1.41423e-06
-9.51098e-08
6.59122e-07
1.16112e-06
1.10571e-07
9.76843e-07
6.56119e-07
1.81011e-07
1.24312e-06
1.01389e-08
4.66568e-08
1.15443e-06
-3.80324e-07
-1.0866e-07
6.85344e-07
-3.09635e-07
-2.37965e-07
2.48602e-07
5.50656e-08
-3.72493e-07
7.41373e-08
5.37644e-07
-4.51393e-07
-2.97295e-08
1.09643e-06
-3.30844e-07
-2.95166e-07
1.70909e-06
9.79904e-08
-6.634e-07
1.87485e-06
7.49362e-07
-7.71726e-07
2.33233e-06
1.11267e-06
-9.38238e-07
3.34044e-06
1.91729e-06
-2.95006e-06
4.13975e-06
1.7126e-06
-3.6605e-06
4.55533e-06
8.64556e-07
-3.75956e-06
5.72201e-07
-3.23153e-06
1.21159e-06
5.46458e-08
-3.04352e-08
1.21534e-06
8.11707e-08
-2.17956e-08
1.21543e-06
1.20904e-07
-7.04617e-09
1.21431e-06
1.80667e-07
1.71484e-08
1.22031e-06
2.70564e-07
5.53119e-08
1.25434e-06
4.04377e-07
1.13382e-07
1.3653e-06
5.97515e-07
1.97187e-07
1.6473e-06
8.48837e-07
2.91623e-07
2.25906e-06
1.12403e-06
3.46125e-07
2.81122e-06
1.16058e-06
7.64879e-08
2.79776e-06
7.82631e-07
-4.8241e-07
2.63033e-06
4.69131e-07
-5.51419e-07
2.59421e-06
3.27977e-07
-3.44314e-07
2.56873e-06
1.36584e-07
-2.93922e-07
2.48297e-06
-1.0748e-07
-4.27872e-07
2.41194e-06
-2.622e-07
-5.53201e-07
2.4086e-06
-2.77133e-07
-5.57165e-07
2.48461e-06
-2.12504e-07
-4.28507e-07
2.6526e-06
-1.20734e-07
-1.86095e-07
2.84149e-06
-6.53779e-08
-2.16736e-08
2.9794e-06
-4.51035e-08
3.67508e-08
3.12096e-06
5.62004e-09
1.21988e-07
3.33053e-06
9.69862e-08
2.43926e-07
3.53223e-06
1.54304e-07
2.43692e-07
3.65126e-06
1.14093e-07
1.05289e-07
3.71136e-06
3.60043e-08
4.27422e-09
3.72484e-06
-1.56425e-08
7.56525e-08
3.63668e-06
2.4409e-08
3.45106e-07
3.44102e-06
1.14237e-07
9.83271e-07
3.09803e-06
2.28144e-07
1.70202e-06
2.81402e-06
1.23239e-07
1.72134e-06
2.86569e-06
2.47997e-07
1.02062e-06
3.33294e-06
2.51081e-07
1.11365e-07
4.37758e-06
6.50477e-07
-1.25385e-06
5.32947e-06
8.67465e-07
-2.00397e-06
5.95394e-06
5.55008e-07
-2.08493e-06
4.98967e-07
-1.75861e-06
1.23353e-06
5.95109e-08
-3.60206e-08
1.2452e-06
8.52184e-08
-2.99653e-08
1.25447e-06
1.22176e-07
-1.90334e-08
1.26218e-06
1.74817e-07
-5.81059e-10
1.27235e-06
2.48418e-07
2.92343e-08
1.29546e-06
3.48176e-07
7.49019e-08
1.35357e-06
4.76088e-07
1.41317e-07
1.48087e-06
6.19759e-07
2.27705e-07
1.72149e-06
7.41201e-07
3.21727e-07
2.00381e-06
7.2015e-07
3.70769e-07
2.20454e-06
4.49269e-07
3.56387e-07
2.36067e-06
2.17486e-07
3.24025e-07
2.52169e-06
1.11311e-07
2.56038e-07
2.6519e-06
-4.46649e-09
1.48448e-07
2.69951e-06
-1.18548e-07
3.17343e-08
2.70353e-06
-1.93286e-07
-4.7935e-08
2.72377e-06
-2.04581e-07
-7.55759e-08
2.78881e-06
-1.69469e-07
-9.21814e-08
2.90313e-06
-1.08947e-07
-1.16684e-07
3.0473e-06
-5.85138e-08
-1.50257e-07
3.20329e-06
-2.90236e-08
-1.91964e-07
3.38105e-06
1.28313e-08
-2.17027e-07
3.60168e-06
6.9965e-08
-2.13625e-07
3.86027e-06
1.0354e-07
-2.11655e-07
4.12002e-06
8.83294e-08
-2.45783e-07
4.35455e-06
7.00987e-08
-3.16891e-07
4.56424e-06
7.24587e-08
-3.45521e-07
4.76772e-06
1.40828e-07
-3.20919e-07
4.94249e-06
2.51365e-07
-1.4888e-07
5.03303e-06
4.71305e-07
1.13934e-07
5.11557e-06
4.97389e-07
7.05515e-07
5.19639e-06
6.14926e-07
1.53141e-06
5.15074e-06
4.17148e-07
1.73701e-06
5.25685e-06
3.28421e-07
8.20375e-07
5.60728e-06
4.7371e-07
-1.8892e-07
6.08106e-06
3.22427e-07
-6.80729e-07
3.24716e-07
-9.15045e-07
1.25593e-06
5.96434e-08
-4.06007e-08
1.279e-06
8.17233e-08
-3.76601e-08
1.30649e-06
1.11791e-07
-3.25355e-08
1.34236e-06
1.52213e-07
-2.46671e-08
1.39337e-06
2.05265e-07
-1.36543e-08
1.47041e-06
2.72198e-07
1.5134e-10
1.58924e-06
3.51056e-07
1.46524e-08
1.76646e-06
4.3209e-07
2.22821e-08
2.00965e-06
4.93289e-07
7.64975e-09
2.25867e-06
4.94291e-07
-5.5664e-08
2.38532e-06
4.03361e-07
-1.76813e-07
2.43597e-06
2.92595e-07
-2.58436e-07
2.48825e-06
2.02561e-07
-2.80422e-07
2.52806e-06
1.11731e-07
-3.02906e-07
2.55857e-06
2.05592e-08
-3.37095e-07
2.59917e-06
-4.93575e-08
-3.74189e-07
2.66551e-06
-7.63455e-08
-3.93162e-07
2.76327e-06
-6.8857e-08
-3.94508e-07
2.89809e-06
-4.51457e-08
-3.81662e-07
3.05736e-06
-1.66725e-08
-3.73034e-07
3.22927e-06
7.29896e-09
-3.77951e-07
3.42242e-06
3.4981e-08
-3.85055e-07
3.64905e-06
6.68323e-08
-3.95383e-07
3.89512e-06
9.39792e-08
-4.17406e-07
4.1376e-06
1.01757e-07
-4.57849e-07
4.37541e-06
1.06604e-07
-4.97668e-07
4.61856e-06
1.17432e-07
-5.08843e-07
4.88381e-06
1.70419e-07
-4.96317e-07
5.18862e-06
2.38894e-07
-4.07808e-07
5.57163e-06
3.64693e-07
-3.27996e-07
5.92291e-06
4.71378e-07
-2.39997e-07
6.27144e-06
6.27398e-07
-3.10483e-08
6.55367e-06
7.56887e-07
1.3079e-07
6.85347e-06
6.4905e-07
7.48524e-07
7.18724e-06
6.45472e-07
3.84538e-07
7.47268e-06
6.47882e-07
3.65597e-07
5.92138e-07
2.15159e-07
1.274e-06
5.68583e-08
-4.41293e-08
1.30225e-06
7.57622e-08
-4.31251e-08
1.33428e-06
1.00854e-07
-4.04526e-08
1.37193e-06
1.3334e-07
-3.5402e-08
1.41833e-06
1.73926e-07
-2.72561e-08
1.47825e-06
2.22034e-07
-1.55041e-08
1.55811e-06
2.74252e-07
-3.53979e-10
1.66406e-06
3.22036e-07
1.65394e-08
1.79799e-06
3.49798e-07
3.07491e-08
1.94601e-06
3.36392e-07
3.5499e-08
2.08179e-06
2.64959e-07
2.66427e-08
2.20696e-06
1.771e-07
8.43692e-09
2.32834e-06
1.07005e-07
-1.98951e-08
2.44155e-06
4.42013e-08
-5.79975e-08
2.53975e-06
-9.94584e-09
-1.02757e-07
2.62322e-06
-4.39192e-08
-1.42995e-07
2.71287e-06
-5.81061e-08
-1.78872e-07
2.82073e-06
-5.24774e-08
-2.08927e-07
2.95131e-06
-3.59114e-08
-2.40035e-07
3.1042e-06
-1.41457e-08
-2.71076e-07
3.27714e-06
6.1596e-09
-3.04556e-07
3.46994e-06
3.03004e-08
-3.3727e-07
3.68643e-06
5.45357e-08
-3.6824e-07
3.92457e-06
7.68778e-08
-4.01421e-07
4.17807e-06
8.85237e-08
-4.37875e-07
4.4393e-06
1.06031e-07
-4.80662e-07
4.71345e-06
1.23481e-07
-5.10992e-07
5.00084e-06
1.74997e-07
-5.4104e-07
5.31579e-06
2.2601e-07
-5.34686e-07
5.65856e-06
3.17065e-07
-5.02116e-07
6.01762e-06
4.13531e-07
-5.06486e-07
6.48567e-06
4.46863e-07
-2.52311e-07
6.9244e-06
6.23048e-07
-4.64206e-07
7.365e-06
6.15525e-07
-1.27066e-07
7.79081e-06
6.5267e-07
-2.47651e-07
8.18834e-06
7.7136e-07
-3.22161e-07
7.83083e-07
1.65409e-07
1.2895e-06
5.12961e-08
-4.67521e-08
1.32335e-06
6.62319e-08
-4.74078e-08
1.36348e-06
8.51364e-08
-4.75091e-08
1.41258e-06
1.08515e-07
-4.71907e-08
1.47422e-06
1.36378e-07
-4.68225e-08
1.5527e-06
1.67774e-07
-4.72272e-08
1.65228e-06
2.00073e-07
-5.00156e-08
1.77506e-06
2.28204e-07
-5.79614e-08
1.91691e-06
2.44544e-07
-7.50084e-08
2.06236e-06
2.40909e-07
-1.04263e-07
2.18379e-06
2.13011e-07
-1.46555e-07
2.27867e-06
1.72137e-07
-1.89674e-07
2.36336e-06
1.29477e-07
-2.25462e-07
2.44202e-06
8.76932e-08
-2.56899e-07
2.51856e-06
4.9565e-08
-2.85214e-07
2.60269e-06
2.05998e-08
-3.12253e-07
2.70046e-06
4.9146e-09
-3.37698e-07
2.81654e-06
3.05259e-09
-3.59329e-07
2.95276e-06
9.38888e-09
-3.79585e-07
3.10893e-06
2.16849e-08
-4.0003e-07
3.28304e-06
3.58947e-08
-4.24352e-07
3.47772e-06
5.25794e-08
-4.50874e-07
3.69382e-06
6.95697e-08
-4.79754e-07
3.92966e-06
8.77094e-08
-5.11803e-07
4.18102e-06
1.0045e-07
-5.45745e-07
4.44581e-06
1.21929e-07
-5.81785e-07
4.73211e-06
1.32913e-07
-6.1119e-07
5.03516e-06
1.81768e-07
-6.3688e-07
5.37509e-06
2.04571e-07
-6.56359e-07
5.74765e-06
2.71998e-07
-6.3519e-07
6.12587e-06
3.67758e-07
-7.0523e-07
6.59856e-06
3.19146e-07
-5.77559e-07
6.98832e-06
5.9481e-07
-6.83455e-07
7.51636e-06
4.24303e-07
-6.41107e-07
8.02911e-06
5.97152e-07
-3.98926e-07
8.49541e-06
6.5066e-07
-8.74045e-07
7.03021e-07
-3.32829e-07
1.30098e-06
4.34779e-08
-4.78614e-08
1.33774e-06
5.47882e-08
-4.95896e-08
1.38004e-06
6.89325e-08
-5.10731e-08
1.42906e-06
8.61997e-08
-5.21812e-08
1.48637e-06
1.06219e-07
-5.28227e-08
1.55372e-06
1.27909e-07
-5.30973e-08
1.63266e-06
1.49047e-07
-5.33875e-08
1.72385e-06
1.65903e-07
-5.44807e-08
1.82593e-06
1.73431e-07
-5.75672e-08
1.93474e-06
1.66894e-07
-6.38105e-08
2.04442e-06
1.44198e-07
-7.40776e-08
2.15335e-06
1.12246e-07
-8.82737e-08
2.26191e-06
8.00986e-08
-1.06478e-07
2.36987e-06
5.08863e-08
-1.28519e-07
2.47735e-06
2.66781e-08
-1.53675e-07
2.5865e-06
1.04279e-08
-1.80551e-07
2.70203e-06
2.60309e-09
-2.08149e-07
2.82911e-06
3.74105e-09
-2.35792e-07
2.97104e-06
1.05549e-08
-2.65012e-07
3.12988e-06
2.1403e-08
-2.94654e-07
3.30658e-06
3.3689e-08
-3.25183e-07
3.50213e-06
4.8167e-08
-3.5728e-07
3.71741e-06
6.27515e-08
-3.90482e-07
3.9522e-06
7.96699e-08
-4.26933e-07
4.20672e-06
9.14739e-08
-4.61773e-07
4.47767e-06
1.15869e-07
-5.04136e-07
4.77334e-06
1.21694e-07
-5.32605e-07
5.08151e-06
1.73615e-07
-5.79046e-07
5.42814e-06
1.7924e-07
-5.97824e-07
5.79622e-06
2.28782e-07
-6.16791e-07
6.16804e-06
3.47115e-07
-6.88284e-07
6.65947e-06
1.72108e-07
-5.82713e-07
7.02122e-06
6.03501e-07
-7.53948e-07
7.59013e-06
2.27054e-07
-6.68501e-07
8.05099e-06
5.31112e-07
-6.07836e-07
8.53351e-06
5.7904e-07
-8.84181e-07
4.31969e-07
-6.29301e-07
1.30726e-06
3.31239e-08
-4.64279e-08
1.34633e-06
4.07471e-08
-4.87454e-08
1.39154e-06
4.99735e-08
-5.11415e-08
1.44458e-06
6.07671e-08
-5.3763e-08
1.50718e-06
7.28675e-08
-5.7006e-08
1.58095e-06
8.56022e-08
-6.14558e-08
1.66689e-06
9.77329e-08
-6.7924e-08
1.76463e-06
1.07389e-07
-7.74924e-08
1.8715e-06
1.12355e-07
-9.12927e-08
1.98225e-06
1.10798e-07
-1.09948e-07
2.08998e-06
1.02231e-07
-1.33422e-07
2.19172e-06
8.88131e-08
-1.59938e-07
2.28949e-06
7.35798e-08
-1.87252e-07
2.38595e-06
5.85598e-08
-2.14483e-07
2.48418e-06
4.53249e-08
-2.41429e-07
2.58834e-06
3.56186e-08
-2.68034e-07
2.7024e-06
3.04405e-08
-2.94447e-07
2.82995e-06
3.03403e-08
-3.20709e-07
2.97299e-06
3.41371e-08
-3.47276e-07
3.13298e-06
4.09481e-08
-3.74757e-07
3.3105e-06
4.93114e-08
-4.03859e-07
3.50683e-06
5.93767e-08
-4.34697e-07
3.72274e-06
6.92453e-08
-4.66188e-07
3.95843e-06
8.23344e-08
-5.00869e-07
4.21465e-06
8.90979e-08
-5.32277e-07
4.48877e-06
1.12914e-07
-5.73108e-07
4.79027e-06
1.05607e-07
-5.95567e-07
5.10328e-06
1.62871e-07
-6.43451e-07
5.45907e-06
1.38773e-07
-6.61143e-07
5.83026e-06
1.85844e-07
-6.63466e-07
6.21452e-06
3.06854e-07
-8.00619e-07
6.69942e-06
4.2097e-08
-5.84875e-07
7.07616e-06
5.77758e-07
-9.39584e-07
7.63797e-06
6.18544e-08
-7.1477e-07
8.11349e-06
4.1121e-07