/*--------------------------------*- C++ -*----------------------------------*\
| =========                 |                                                 |
| \\      /  F ield         | OpenFOAM: The Open Source CFD Toolbox           |
|  \\    /   O peration     | Version:  2.3.1                                 |
|   \\  /    A nd           | Web:      www.OpenFOAM.org                      |
|    \\/     M anipulation  |                                                 |
\*---------------------------------------------------------------------------*/
FoamFile
{
    version     2.0;
    format      ascii;
    class       volScalarField;
    location    "20";
    object      Sed;
}
// * * * * * * * * * * * * * * * * * * * * * * * * * * * * * * * * * * * * * //

dimensions      [0 0 0 0 0 0 0];

internalField   nonuniform List<scalar> 
37530
(
2.61309e-101
1.62514e-102
9.87143e-104
5.73044e-105
3.03014e-106
1.2776e-107
3.4874e-109
1.05144e-110
5.14096e-112
4.49746e-113
2.12736e-113
3.76818e-114
1.1285e-115
6.78353e-117
1.47602e-117
2.28644e-118
1.93282e-119
1.80249e-120
1.44685e-121
8.60827e-123
6.72179e-124
6.50761e-125
4.87794e-126
3.89872e-127
4.54922e-128
5.00239e-129
4.7816e-130
5.15057e-131
6.2841e-132
8.44582e-133
1.22251e-133
2.30219e-134
3.76672e-135
3.68517e-136
8.85683e-137
2.04172e-137
2.82092e-138
2.1618e-99
1.35652e-100
8.35649e-102
4.98726e-103
2.81689e-104
1.44165e-105
6.14942e-107
1.94269e-108
5.98149e-110
4.93682e-111
1.05167e-111
1.27409e-112
7.28152e-114
4.49321e-115
5.85012e-116
9.04555e-117
9.22075e-118
7.32478e-119
6.24721e-120
5.55965e-121
4.29436e-122
2.73253e-123
1.85004e-124
1.65069e-125
1.67565e-126
1.84145e-127
2.22616e-128
2.90005e-129
3.87325e-130
4.68783e-131
3.79034e-132
3.8637e-133
7.50355e-134
1.81353e-134
3.06814e-135
5.85926e-136
1.0103e-136
4.70211e-98
2.98398e-99
1.86707e-100
1.14077e-101
6.69747e-103
3.67723e-104
1.80696e-105
7.53781e-107
2.74177e-108
1.21094e-109
7.79646e-111
5.91408e-112
4.65913e-113
4.04383e-114
5.23994e-115
6.79063e-116
5.76034e-117
3.44368e-118
1.93259e-119
1.30063e-120
1.12553e-121
8.99308e-123
6.50688e-124
5.24326e-125
4.73068e-126
6.21382e-127
9.00243e-128
1.08579e-128
1.30218e-129
1.83729e-130
2.93019e-131
4.58125e-132
7.48589e-133
1.9711e-133
4.62576e-134
9.98639e-135
1.85193e-135
4.00156e-97
2.57164e-98
1.64014e-99
1.03452e-100
6.42592e-102
3.91417e-103
2.33564e-104
1.38281e-105
8.46376e-107
6.08403e-108
5.40623e-109
4.8525e-110
3.96907e-111
3.20592e-112
2.72313e-113
2.36666e-114
1.97569e-115
1.55592e-116
1.14618e-117
8.32118e-119
6.35407e-120
5.03493e-121
3.97924e-122
3.28091e-123
2.96328e-124
2.84892e-125
2.65954e-126
2.15658e-127
1.57501e-128
1.09182e-129
9.38976e-131
1.21138e-131
2.85992e-132
8.66605e-133
2.20614e-133
4.91659e-134
9.61408e-135
1.59262e-96
1.03528e-97
6.70186e-99
4.31116e-100
2.74858e-101
1.73166e-102
1.07652e-103
6.63337e-105
4.12969e-106
2.71431e-107
1.96082e-108
1.50943e-109
1.21641e-110
1.03468e-111
9.31052e-113
8.51192e-114
7.59412e-115
6.58904e-116
5.6522e-117
4.89319e-118
4.35136e-119
3.99696e-120
3.76189e-121
3.6417e-122
3.67802e-123
3.90129e-124
4.24858e-125
4.61031e-126
4.77572e-127
4.52123e-128
3.58693e-129
2.58364e-130
1.85772e-131
2.12211e-132
4.92654e-133
1.04616e-133
2.32622e-134
3.16909e-96
2.08182e-97
1.36788e-98
8.99544e-100
5.9305e-101
3.93251e-102
2.63828e-103
1.80861e-104
1.28544e-105
9.65728e-107
7.74113e-108
6.40421e-109
5.30914e-110
4.42931e-111
3.722e-112
3.14138e-113
2.65465e-114
2.25252e-115
1.92906e-116
1.68579e-117
1.51559e-118
1.40344e-119
1.34205e-120
1.3334e-121
1.38232e-122
1.48712e-123
1.64495e-124
1.85891e-125
2.12243e-126
2.46544e-127
2.89827e-128
3.28128e-129
3.46742e-130
3.30185e-131
3.43957e-132
4.05773e-133
6.09044e-134
3.21606e-96
2.12541e-97
1.40771e-98
9.35005e-100
6.23549e-101
4.18325e-102
2.8318e-103
1.94321e-104
1.36056e-105
9.79596e-107
7.29248e-108
5.59825e-109
4.41628e-110
3.57677e-111
2.96445e-112
2.50037e-113
2.13719e-114
1.85073e-115
1.63139e-116
1.47077e-117
1.36366e-118
1.30409e-119
1.28875e-120
1.31962e-121
1.4022e-122
1.54766e-123
1.76665e-124
2.08951e-125
2.54318e-126
3.17793e-127
4.14806e-128
5.29552e-129
7.55104e-130
1.00805e-130
1.4061e-131
2.07446e-132
2.78494e-133
1.68029e-96
1.11644e-97
7.45374e-99
5.00846e-100
3.39529e-101
2.32957e-102
1.62417e-103
1.15605e-104
8.44119e-106
6.34445e-107
4.90467e-108
3.87538e-109
3.11015e-110
2.52924e-111
2.08229e-112
1.73535e-113
1.46675e-114
1.26074e-115
1.10653e-116
9.95346e-118
9.21268e-119
8.79728e-120
8.69053e-121
8.90371e-122
9.46824e-123
1.04599e-123
1.19785e-124
1.42653e-125
1.76469e-126
2.25825e-127
3.06985e-128
4.18216e-129
6.19217e-130
9.34396e-131
1.3938e-131
2.44022e-132
3.83949e-133
4.35353e-97
2.89637e-98
1.93874e-99
1.30767e-100
8.90481e-102
6.13563e-103
4.28805e-104
3.04747e-105
2.20768e-106
1.63293e-107
1.23362e-108
9.51172e-110
7.48111e-111
6.00027e-112
4.90605e-113
4.0888e-114
3.47587e-115
3.01897e-116
2.68574e-117
2.45371e-118
2.30805e-119
2.24133e-120
2.25153e-121
2.34582e-122
2.53402e-123
2.85151e-124
3.31955e-125
4.05569e-126
5.10915e-127
6.75255e-128
9.43529e-129
1.31809e-129
2.07493e-130
3.20886e-131
5.21422e-132
9.42425e-133
1.62375e-133
5.2845e-98
3.52033e-99
2.36307e-100
1.60127e-101
1.09784e-102
7.6347e-104
5.39905e-105
3.89138e-106
2.8632e-107
2.15163e-108
1.64986e-109
1.28861e-110
1.02366e-111
8.26602e-113
6.78661e-114
5.67217e-115
4.83632e-116
4.21775e-117
3.77329e-118
3.47267e-119
3.29568e-120
3.23305e-121
3.28369e-122
3.46293e-123
3.78658e-124
4.32507e-125
5.09941e-126
6.35698e-127
8.13395e-128
1.09287e-128
1.59341e-129
2.18125e-130
3.74522e-131
5.62445e-132
9.3696e-133
1.7791e-133
3.16019e-134
2.52481e-99
1.68507e-100
1.13503e-101
7.73029e-103
5.33437e-104
3.7371e-105
2.66266e-106
1.93194e-107
1.42833e-108
1.07583e-109
8.24868e-111
6.4331e-112
5.10244e-113
4.1172e-114
3.38249e-115
2.83365e-116
2.42584e-117
2.12811e-118
1.91824e-119
1.78132e-120
1.70777e-121
1.69454e-122
1.74197e-123
1.86303e-124
2.06219e-125
2.40265e-126
2.8573e-127
3.67911e-128
4.73097e-129
6.51711e-130
1.01581e-130
1.29193e-131
2.68391e-132
3.68798e-133
6.1618e-134
1.37928e-134
2.31483e-135
3.22065e-101
2.16144e-102
1.46692e-103
1.00884e-104
7.04604e-106
5.00653e-107
3.62306e-108
2.67105e-109
2.00458e-110
1.52891e-111
1.18281e-112
9.27167e-114
7.36905e-115
5.94893e-116
4.88948e-117
4.10427e-118
3.53038e-119
3.1233e-120
2.84977e-121
2.68816e-122
2.62533e-123
2.66061e-124
2.79798e-125
3.07003e-126
3.47823e-127
4.19588e-128
5.03059e-129
6.95817e-130
8.5873e-131
1.33148e-131
2.09495e-132
2.82832e-133
7.3974e-134
9.43622e-135
1.48987e-135
4.39182e-136
6.01695e-137
6.15666e-100
3.85898e-101
2.36896e-102
1.39951e-103
7.67123e-105
3.56483e-106
1.24965e-107
3.90484e-109
1.52701e-110
1.03546e-111
2.59954e-112
5.51495e-113
3.06324e-114
1.81191e-115
2.67637e-116
4.08257e-117
4.57608e-118
4.0201e-119
2.92394e-120
1.9832e-121
1.67953e-122
1.48349e-123
1.12447e-124
9.19773e-126
9.89334e-127
1.00898e-127
9.82446e-129
1.03263e-129
1.23496e-130
1.82778e-131
2.7504e-132
4.39483e-133
5.7819e-134
5.81777e-135
6.53697e-136
1.34165e-136
2.37295e-137
4.32268e-98
2.7325e-99
1.69983e-100
1.02921e-101
5.95168e-103
3.17783e-104
1.47449e-105
5.75633e-107
2.06068e-108
1.16467e-109
1.66654e-110
1.83161e-111
1.23896e-112
8.40531e-114
9.99278e-115
1.38563e-115
1.5013e-116
1.27462e-117
1.01349e-118
8.311e-120
6.74155e-121
4.94137e-122
3.56627e-123
3.03609e-124
2.95964e-125
3.10921e-126
3.5174e-127
4.30453e-128
5.55951e-129
7.27112e-130
8.36556e-131
9.67492e-132
1.39607e-132
2.32071e-133
3.45964e-134
5.76994e-135
9.61834e-136
8.46646e-97
5.41095e-98
3.41723e-99
2.11634e-100
1.26966e-101
7.23589e-103
3.8051e-104
1.80569e-105
8.31101e-107
4.02716e-108
2.50213e-109
1.8484e-110
1.44679e-111
1.29995e-112
1.46314e-113
1.58682e-114
1.3998e-115
1.02777e-116
6.84158e-118
4.84182e-119
4.07406e-120
3.40576e-121
2.60522e-122
2.04431e-123
1.74988e-124
1.88836e-125
2.43879e-126
2.9472e-127
3.45908e-128
4.34446e-129
6.00375e-130
8.76605e-131
1.33842e-131
2.62085e-132
5.23066e-133
1.04082e-133
1.8665e-134
6.78896e-96
4.38914e-97
2.81923e-98
1.79406e-99
1.12739e-100
6.97538e-102
4.25002e-103
2.5799e-104
1.61419e-105
1.14884e-106
9.75624e-108
8.54992e-109
7.04736e-110
5.69603e-111
4.70128e-112
3.93856e-113
3.24449e-114
2.60283e-115
2.0337e-116
1.59445e-117
1.29582e-118
1.08223e-119
9.11794e-121
7.92741e-122
7.3229e-123
7.09847e-124
6.9725e-125
6.67673e-126
5.92715e-127
5.07937e-128
4.51623e-129
4.64836e-130
7.26037e-131
1.52074e-131
3.22e-132
6.55071e-133
1.24596e-133
2.61545e-95
1.70867e-96
1.1124e-97
7.20509e-99
4.63438e-100
2.9552e-101
1.86814e-102
1.17652e-103
7.50597e-105
5.03629e-106
3.67612e-107
2.84601e-108
2.28974e-109
1.91961e-110
1.67773e-111
1.48543e-112
1.29846e-113
1.11694e-114
9.56494e-116
8.29287e-117
7.35505e-118
6.70755e-119
6.28621e-120
6.07826e-121
6.11755e-122
6.42345e-123
6.95196e-124
7.61926e-125
8.31279e-126
8.77779e-127
8.83294e-128
8.20012e-129
7.93217e-130
8.69509e-131
1.35956e-131
2.4888e-132
4.7351e-133
5.12524e-95
3.37974e-96
2.22919e-97
1.47148e-98
9.73534e-100
6.47453e-101
4.35111e-102
2.98091e-103
2.10826e-104
1.5637e-105
1.22658e-106
9.91541e-108
8.06866e-109
6.62268e-110
5.47869e-111
4.56054e-112
3.81416e-113
3.21254e-114
2.73628e-115
2.37715e-116
2.12114e-117
1.94787e-118
1.84566e-119
1.8131e-120
1.852e-121
1.95953e-122
2.1375e-123
2.39333e-124
2.74277e-125
3.20872e-126
3.89613e-127
4.73964e-128
5.95757e-129
6.95805e-130
9.03775e-131
1.24535e-131
1.86508e-132
5.1929e-95
3.44257e-96
2.28668e-97
1.52285e-98
1.01799e-99
6.84389e-101
4.64103e-102
3.18857e-103
2.23313e-104
1.6057e-105
1.19106e-106
9.09637e-108
7.1285e-109
5.72426e-110
4.69756e-111
3.92265e-112
3.31996e-113
2.84772e-114
2.48472e-115
2.21503e-116
2.02701e-117
1.90994e-118
1.85688e-119
1.86778e-120
1.94717e-121
2.10527e-122
2.35539e-123
2.72671e-124
3.25926e-125
4.00771e-126
5.14823e-127
6.65156e-128
9.30883e-129
1.29944e-129
1.90473e-130
2.92459e-131
4.4418e-132
2.74196e-95
1.82601e-96
1.2212e-97
8.21384e-99
5.56824e-100
3.81562e-101
2.65252e-102
1.87863e-103
1.36143e-104
1.01269e-105
7.73043e-107
6.02446e-108
4.76902e-109
3.82822e-110
3.11421e-111
2.56681e-112
2.14714e-113
1.82704e-114
1.58681e-115
1.4114e-116
1.29021e-117
1.21557e-118
1.1834e-119
1.19313e-120
1.24708e-121
1.3525e-122
1.52063e-123
1.77599e-124
2.15529e-125
2.71098e-126
3.59286e-127
4.85798e-128
7.0215e-129
1.04215e-129
1.58475e-130
2.62624e-131
4.27518e-132
7.31641e-96
4.87682e-97
3.26848e-98
2.20564e-99
1.50137e-100
1.03311e-101
7.2038e-103
5.10325e-104
3.68179e-105
2.71008e-106
2.03645e-107
1.5614e-108
1.22079e-109
9.7289e-111
7.89965e-112
6.53414e-113
5.50847e-114
4.73987e-115
4.17228e-116
3.76676e-117
3.49675e-118
3.34656e-119
3.309e-120
3.38849e-121
3.5955e-122
3.9657e-123
4.53183e-124
5.40796e-125
6.68481e-126
8.62967e-127
1.17146e-127
1.61987e-128
2.42871e-129
3.69174e-130
5.90316e-131
1.0069e-131
1.72968e-132
9.38617e-97
6.26103e-98
4.20507e-99
2.84831e-100
1.94987e-101
1.35226e-102
9.52373e-104
6.8268e-105
4.98907e-106
3.71977e-107
2.82795e-108
2.18928e-109
1.72384e-110
1.37996e-111
1.12335e-112
9.30861e-114
7.86572e-115
6.79389e-116
6.0137e-117
5.46938e-118
5.12318e-119
4.95433e-120
4.95506e-121
5.13869e-122
5.5238e-123
6.18678e-124
7.17077e-125
8.73043e-126
1.0977e-126
1.44659e-127
2.02802e-128
2.82108e-129
4.48119e-130
6.78389e-131
1.12176e-131
1.98607e-132
3.47653e-133
4.94708e-98
3.30294e-99
2.22351e-100
1.51185e-101
1.04035e-102
7.2598e-104
5.14699e-105
3.71292e-106
2.72774e-107
2.04121e-108
1.5551e-109
1.20542e-110
9.50419e-112
7.62324e-113
6.22379e-114
5.17833e-115
4.39886e-116
3.82453e-117
3.41192e-118
3.13133e-119
2.96297e-120
2.8979e-121
2.93345e-122
3.08459e-123
3.35854e-124
3.83247e-125
4.4923e-126
5.62529e-127
7.13476e-128
9.69833e-129
1.4087e-129
1.924e-130
3.39378e-131
4.9445e-132
8.47698e-133
1.64879e-133
2.75333e-134
7.31781e-100
4.90206e-101
3.31669e-102
2.27082e-103
1.57665e-104
1.11219e-105
7.98136e-107
5.83098e-108
4.33605e-109
3.27874e-110
2.5176e-111
1.96141e-112
1.55106e-113
1.2465e-114
1.01976e-115
8.51302e-117
7.27155e-118
6.37505e-119
5.75144e-120
5.35268e-121
5.14775e-122
5.12811e-123
5.29389e-124
5.6919e-125
6.32249e-126
7.4349e-127
8.79725e-128
1.16796e-128
1.43856e-129
2.18434e-130
3.06414e-131
4.32219e-132
8.70258e-133
1.21602e-133
2.10883e-134
5.077e-135
7.37918e-136
6.40911e-99
4.04386e-100
2.50585e-101
1.50393e-102
8.50758e-104
4.2802e-105
1.72258e-106
5.85605e-108
2.04686e-109
1.16309e-110
1.32694e-111
3.5877e-112
3.28248e-113
2.25742e-114
2.2457e-115
2.59769e-116
3.12409e-117
3.42629e-118
2.78839e-119
1.89842e-120
1.52954e-121
1.43301e-122
1.20947e-123
1.01811e-124
1.06747e-125
1.13142e-126
1.03596e-127
9.86012e-129
1.05963e-129
1.21618e-130
1.93102e-131
3.88818e-132
5.00922e-133
4.57853e-134
4.55255e-135
6.2043e-136
9.28415e-137
3.99052e-97
2.5393e-98
1.59398e-99
9.78518e-101
5.79122e-102
3.22652e-103
1.63076e-104
7.40705e-106
3.09876e-107
1.61233e-108
1.5902e-109
1.62838e-110
1.22892e-111
8.92272e-113
9.14968e-114
1.08418e-114
1.15137e-115
1.04614e-116
8.79521e-118
7.16816e-119
5.91775e-120
4.82006e-121
3.87913e-122
3.3189e-123
3.17273e-124
3.25063e-125
3.48235e-126
3.98439e-127
4.86656e-128
6.15355e-129
7.58256e-130
9.80247e-131
1.33063e-131
1.87064e-132
2.51985e-133
3.64934e-134
5.33664e-135
7.10687e-96
4.56969e-97
2.90921e-98
1.82314e-99
1.11476e-100
6.56488e-102
3.66192e-103
1.93502e-104
1.00253e-105
5.55875e-107
3.65175e-108
2.74889e-109
2.19974e-110
1.88224e-111
1.79642e-112
1.7124e-113
1.48203e-114
1.16701e-115
8.76608e-117
6.95015e-118
6.02096e-119
5.30181e-120
4.46281e-121
3.71606e-122
3.32135e-123
3.29466e-124
3.50949e-125
3.93759e-126
4.65009e-127
5.67101e-128
7.33486e-129
9.76601e-130
1.37922e-130
2.20864e-131
3.74353e-132
6.53499e-133
1.07308e-133
5.37987e-95
3.49574e-96
2.25905e-97
1.44879e-98
9.20014e-100
5.77603e-101
3.59092e-102
2.23543e-103
1.43381e-104
1.0175e-105
8.38672e-107
7.18231e-108
5.91209e-109
4.78793e-110
3.89289e-111
3.17261e-112
2.57561e-113
2.08186e-114
1.67608e-115
1.37179e-116
1.15394e-117
9.93519e-119
8.7136e-120
7.90391e-121
7.49588e-122
7.36731e-123
7.3998e-124
7.49472e-125
7.55979e-126
7.42458e-127
7.79881e-128
8.86403e-129
1.17717e-129
1.83513e-130
3.13076e-131
5.54381e-132
9.64683e-133
2.00631e-94
1.31613e-95
8.60913e-97
5.60894e-98
3.63555e-99
2.34307e-100
1.50339e-101
9.65944e-103
6.30315e-104
4.30647e-105
3.16586e-106
2.45352e-107
1.96423e-108
1.6241e-109
1.38499e-110
1.19266e-111
1.02087e-112
8.67146e-114
7.37513e-115
6.3609e-116
5.60575e-117
5.06411e-118
4.70113e-119
4.5093e-120
4.49578e-121
4.65703e-122
4.97917e-123
5.44224e-124
6.05981e-125
6.73008e-126
7.63131e-127
8.43852e-128
9.79839e-129
1.26946e-129
1.83665e-130
2.93432e-131
4.89572e-132
3.87182e-94
2.56114e-95
1.69453e-96
1.1221e-97
7.44688e-99
4.96656e-100
3.34451e-101
2.2917e-102
1.61562e-103
1.18635e-104
9.13748e-106
7.23974e-107
5.79222e-108
4.6813e-109
3.81523e-110
3.13161e-111
2.58846e-112
2.15992e-113
1.82622e-114
1.57465e-115
1.39234e-116
1.26528e-117
1.18509e-118
1.14847e-119
1.15415e-120
1.19998e-121
1.28762e-122
1.4225e-123
1.61916e-124
1.89224e-125
2.30756e-126
2.88075e-127
3.77437e-128
4.99377e-129
7.05128e-130
1.04526e-130
1.62076e-131
3.91761e-94
2.60361e-95
1.73335e-96
1.15682e-97
7.74842e-99
5.21868e-100
3.5446e-101
2.4382e-102
1.70821e-103
1.22669e-104
9.06651e-106
6.88541e-107
5.35536e-108
4.25926e-109
3.45651e-110
2.85241e-111
2.38526e-112
2.02163e-113
1.74205e-114
1.53232e-115
1.38146e-116
1.28023e-117
1.22243e-118
1.20584e-119
1.23109e-120
1.30166e-121
1.42396e-122
1.61109e-123
1.88538e-124
2.27668e-125
2.86593e-126
3.69876e-127
5.05825e-128
7.11988e-129
1.05181e-129
1.62149e-130
2.54403e-131
2.09225e-94
1.39583e-95
9.34707e-97
6.29131e-98
4.26455e-99
2.91896e-100
2.02417e-101
1.42758e-102
1.02796e-103
7.57895e-105
5.72205e-106
4.40568e-107
3.44527e-108
2.73252e-109
2.19691e-110
1.79041e-111
1.48119e-112
1.24643e-113
1.07012e-114
9.40115e-116
8.47805e-117
7.86995e-118
7.53844e-119
7.46729e-120
7.65865e-121
8.14021e-122
8.96561e-123
1.02479e-123
1.21641e-124
1.499e-125
1.93345e-126
2.57361e-127
3.61559e-128
5.25415e-129
7.94474e-130
1.26753e-130
2.06471e-131
5.75205e-95
3.83987e-96
2.57589e-97
1.73876e-98
1.18302e-99
8.13001e-101
5.65682e-102
3.9951e-103
2.87081e-104
2.10279e-105
1.5712e-106
1.19715e-107
9.29556e-109
7.35182e-110
5.91989e-111
4.85222e-112
4.05013e-113
3.44724e-114
2.99788e-115
2.67064e-116
2.44326e-117
2.30127e-118
2.23651e-119
2.24778e-120
2.33891e-121
2.52507e-122
2.82589e-123
3.29162e-124
3.97964e-125
5.01369e-126
6.61257e-127
8.98908e-128
1.30024e-128
1.92924e-129
3.01185e-130
4.9208e-131
8.28339e-132
7.79253e-96
5.20411e-97
3.49694e-98
2.36797e-99
1.61905e-100
1.12026e-101
7.86271e-103
5.60997e-104
4.07588e-105
3.01798e-106
2.27686e-107
1.74836e-108
1.36519e-109
1.08359e-110
8.74475e-112
7.18156e-113
6.01084e-114
5.13835e-115
4.49667e-116
4.0384e-117
3.73072e-118
3.55354e-119
3.49668e-120
3.56267e-121
3.76064e-122
4.12658e-123
4.69349e-124
5.57973e-125
6.87622e-126
8.86343e-127
1.20248e-127
1.66156e-128
2.50763e-129
3.76882e-130
6.09313e-131
1.02958e-131
1.774e-132
4.49879e-97
3.00603e-98
2.02369e-99
1.37483e-100
9.4436e-102
6.57173e-103
4.64187e-104
3.33327e-105
2.436e-106
1.81253e-107
1.37274e-108
1.05771e-109
8.28878e-111
6.60664e-112
5.35821e-113
4.42641e-114
3.73058e-115
3.21483e-116
2.83942e-117
2.57677e-118
2.40814e-119
2.32335e-120
2.31791e-121
2.39844e-122
2.57106e-123
2.8771e-124
3.32329e-125
4.06001e-126
5.07739e-127
6.75744e-128
9.43075e-129
1.31832e-129
2.12737e-130
3.15451e-131
5.36315e-132
9.57747e-133
1.63337e-133
7.44558e-99
4.98738e-100
3.37124e-101
2.30368e-102
1.59464e-103
1.1203e-104
7.99949e-106
5.81087e-107
4.29481e-108
3.22787e-109
2.46445e-110
1.91012e-111
1.50329e-112
1.20245e-113
9.78837e-115
8.12512e-116
6.89351e-117
5.99451e-118
5.35596e-119
4.92874e-120
4.68028e-121
4.59721e-122
4.67496e-123
4.9428e-124
5.40541e-125
6.22329e-126
7.28299e-127
9.35196e-128
1.1534e-128
1.68263e-129
2.27521e-130
3.36623e-131
5.86033e-132
8.45979e-133
1.5446e-133
3.04061e-134
4.7786e-135
3.862e-98
2.44909e-99
1.52907e-100
9.29591e-102
5.39322e-103
2.87358e-104
1.31547e-105
4.89292e-107
1.7557e-108
9.1744e-110
7.98824e-111
9.17341e-112
1.7039e-112
1.92968e-113
1.73367e-114
1.3023e-115
1.06181e-116
1.32139e-117
1.33839e-118
1.02821e-119
7.9893e-121
7.34665e-122
6.95102e-123
6.46678e-124
6.7674e-125
7.4099e-126
7.69713e-127
8.3891e-128
8.45521e-129
6.81991e-130
7.05216e-131
1.98183e-131
3.55278e-132
3.04799e-133
2.41692e-134
2.81138e-135
3.80406e-136
2.18483e-96
1.39718e-97
8.8312e-99
5.47954e-100
3.30181e-101
1.90035e-102
1.02216e-103
5.11202e-105
2.45215e-106
1.37913e-107
1.10065e-108
9.99577e-110
8.3426e-111
7.0031e-112
6.52768e-113
6.4616e-114
6.2404e-115
5.73824e-116
4.80888e-117
3.84697e-118
3.12974e-119
2.63341e-120
2.31166e-121
2.15411e-122
2.15906e-123
2.26691e-124
2.4454e-125
2.74375e-126
3.20028e-127
3.72582e-128
4.51011e-129
6.05341e-130
8.55781e-131
1.04877e-131
1.38135e-132
1.86148e-133
2.45793e-134
3.64003e-95
2.35108e-96
1.50584e-97
9.52122e-99
5.90474e-100
3.56088e-101
2.0692e-102
1.16329e-103
6.50503e-105
3.97754e-106
2.81027e-107
2.16241e-108
1.70537e-109
1.43365e-110
1.27899e-111
1.14046e-112
9.61553e-114
7.78861e-115
6.19271e-116
5.06013e-117
4.33687e-118
3.81925e-119
3.37312e-120
3.03277e-121
2.86118e-122
2.85801e-123
2.99227e-124
3.26927e-125
3.74529e-126
4.40905e-127
5.52111e-128
7.23549e-129
1.00259e-129
1.41316e-130
2.13231e-131
3.34469e-132
4.97502e-133
2.64065e-94
1.72224e-95
1.11801e-96
7.21257e-98
4.6171e-99
2.93119e-100
1.85007e-101
1.17295e-102
7.65159e-104
5.40281e-105
4.3158e-106
3.60428e-107
2.95932e-108
2.40693e-109
1.95117e-110
1.57353e-111
1.26775e-112
1.02681e-113
8.37815e-115
6.95949e-116
5.91817e-117
5.14372e-118
4.57784e-119
4.21935e-120
4.05069e-121
4.02611e-122
4.1156e-123
4.30198e-124
4.59024e-125
4.94623e-126
5.68483e-127
6.89562e-128
9.12546e-129
1.30441e-129
1.99352e-130
3.18523e-131
5.08393e-132
9.60558e-94
6.32009e-95
4.14833e-96
2.71437e-97
1.76944e-98
1.14931e-99
7.45307e-101
4.85433e-102
3.21596e-103
2.21709e-104
1.62717e-105
1.25275e-106
9.93974e-108
8.11189e-109
6.78863e-110
5.72916e-111
4.82104e-112
4.04389e-113
3.4083e-114
2.91547e-115
2.54613e-116
2.27723e-117
2.09171e-118
1.98447e-119
1.95368e-120
1.99475e-121
2.10404e-122
2.28251e-123
2.54274e-124
2.88522e-125
3.38167e-126
4.05652e-127
5.1332e-128
6.96361e-129
1.00584e-129
1.53539e-130
2.42398e-131
1.83176e-93
1.21432e-94
8.05143e-96
5.34317e-97
3.5537e-98
2.37475e-99
1.60136e-100
1.0971e-101
7.70893e-103
5.6136e-104
4.258e-105
3.31703e-106
2.61517e-107
2.08494e-108
1.67678e-109
1.35879e-110
1.11017e-111
9.16905e-113
7.68161e-114
6.56095e-115
5.74019e-116
5.15588e-117
4.76754e-118
4.55399e-119
4.50268e-120
4.60282e-121
4.85832e-122
5.29129e-123
5.95154e-124
6.91213e-125
8.36996e-126
1.04958e-126
1.37806e-127
1.87598e-128
2.69482e-129
4.04982e-130
6.30542e-131
1.85138e-93
1.23246e-94
8.21694e-96
5.49103e-97
3.68217e-98
2.48244e-99
1.68734e-100
1.16093e-101
8.12716e-103
5.8214e-104
4.28202e-105
3.22995e-106
2.49135e-107
1.96185e-108
1.57409e-109
1.28319e-110
1.05964e-111
8.86791e-113
7.54203e-114
6.54276e-115
5.81084e-116
5.29825e-117
4.97172e-118
4.81369e-119
4.8181e-120
4.98921e-121
5.34335e-122
5.91929e-123
6.78619e-124
8.04977e-125
9.93726e-126
1.26903e-126
1.70232e-127
2.37157e-128
3.46375e-129
5.27136e-130
8.25378e-131
9.97501e-94
6.66204e-95
4.46404e-96
3.00507e-97
2.03593e-98
1.39161e-99
9.62613e-101
6.76228e-102
4.84143e-103
3.54169e-104
2.64809e-105
2.01732e-106
1.56041e-107
1.22398e-108
9.73151e-110
7.84311e-111
6.41568e-112
5.33704e-113
4.52709e-114
3.9265e-115
3.49209e-116
3.19322e-117
3.00943e-118
2.92936e-119
2.94913e-120
3.07386e-121
3.31814e-122
3.71477e-123
4.31671e-124
5.21055e-125
6.56429e-126
8.57505e-127
1.17583e-127
1.67267e-128
2.48656e-129
3.86634e-130
6.19393e-131
2.80544e-94
1.87438e-95
1.25776e-96
8.48784e-98
5.76968e-99
3.95853e-100
2.74752e-101
1.9339e-102
1.38365e-103
1.00809e-104
7.48537e-106
5.66317e-107
4.36291e-108
3.4209e-109
2.72877e-110
2.21399e-111
1.82795e-112
1.5376e-113
1.32023e-114
1.15996e-115
1.04551e-116
9.69087e-118
9.25798e-119
9.13567e-120
9.32505e-121
9.86366e-122
1.08125e-122
1.23172e-123
1.45687e-124
1.79403e-125
2.30731e-126
3.07431e-127
4.32331e-128
6.27177e-129
9.57076e-130
1.51959e-130
2.49891e-131
3.95679e-95
2.64389e-96
1.77644e-97
1.20202e-98
8.20571e-100
5.66369e-101
3.96127e-102
2.81343e-103
2.03252e-104
1.49496e-105
1.11942e-106
8.5268e-108
6.60174e-109
5.19374e-110
4.1528e-111
3.37735e-112
2.79758e-113
2.36494e-114
2.04441e-115
1.81175e-116
1.64973e-117
1.54712e-118
1.49729e-119
1.49869e-120
1.55301e-121
1.67058e-122
1.86315e-123
2.16665e-124
2.6151e-125
3.29759e-126
4.35545e-127
5.9255e-128
8.63753e-129
1.27649e-129
2.0167e-130
3.29949e-131
5.57586e-132
2.43574e-96
1.62789e-97
1.09542e-98
7.43306e-100
5.09539e-101
3.53556e-102
2.48784e-103
1.77816e-104
1.29242e-105
9.55762e-107
7.19069e-108
5.50163e-109
4.27953e-110
3.38441e-111
2.72214e-112
2.22881e-113
1.86041e-114
1.58644e-115
1.38509e-116
1.24116e-117
1.14412e-118
1.0876e-119
1.06812e-120
1.08668e-121
1.14511e-122
1.25683e-123
1.42692e-124
1.70395e-125
2.09525e-126
2.72338e-127
3.7002e-128
5.1363e-129
7.91292e-130
1.16725e-130
1.94726e-131
3.3101e-132
5.6877e-133
4.41658e-98
2.95746e-99
1.99699e-100
1.36203e-101
9.40173e-103
6.58059e-104
4.67735e-105
3.37956e-106
2.48315e-107
1.85475e-108
1.40724e-109
1.08392e-110
8.47678e-112
6.73557e-113
5.44401e-114
4.48336e-115
3.77009e-116
3.24578e-117
2.86746e-118
2.6055e-119
2.4401e-120
2.36102e-121
2.36311e-122
2.45603e-123
2.64155e-124
2.97953e-125
3.43839e-126
4.28786e-127
5.27135e-128
7.34777e-129
9.89931e-130
1.43679e-130
2.37695e-131
3.45477e-132
6.32051e-133
1.10494e-133
1.82288e-134
1.59671e-97
1.01694e-98
6.39136e-100
3.93018e-101
2.33045e-102
1.29917e-103
6.54437e-105
2.83301e-106
1.10123e-107
5.70305e-109
4.37614e-110
3.75279e-111
3.20598e-112
8.05326e-113
1.01845e-113
7.9473e-115
4.34502e-116
2.82975e-117
2.51059e-118
2.51102e-119
2.12308e-120
1.93038e-121
1.93905e-122
2.00434e-123
2.18747e-124
2.46194e-125
2.77764e-126
3.19902e-127
3.65561e-128
4.07025e-129
4.36651e-130
6.68108e-131
1.51501e-131
1.4481e-132
1.19735e-133
9.85718e-135
1.13332e-135
8.45293e-96
5.4277e-97
3.45078e-98
2.16076e-99
1.32208e-100
7.81756e-102
4.41174e-103
2.37589e-104
1.25621e-105
7.58405e-107
5.82058e-108
4.79453e-109
3.83826e-110
3.4753e-111
3.42447e-112
3.25133e-113
2.851e-114
2.34209e-115
1.84272e-116
1.42894e-117
1.1246e-118
9.29293e-120
8.21017e-121
7.84086e-122
8.0896e-123
8.72156e-124
9.65159e-125
1.09996e-125
1.29341e-126
1.53179e-127
1.88462e-128
2.4468e-129
3.59076e-130
4.3458e-131
5.67564e-132
7.42766e-133
9.08214e-134
1.34295e-94
8.70567e-96
5.60349e-97
3.56919e-98
2.23943e-99
1.37658e-100
8.25565e-102
4.85545e-103
2.86941e-104
1.83528e-105
1.34875e-106
1.05556e-107
8.29759e-109
6.93057e-110
6.08895e-111
5.30933e-112
4.40625e-113
3.52476e-114
2.80334e-115
2.28901e-116
1.93771e-117
1.68554e-118
1.49621e-119
1.37483e-120
1.32812e-121
1.34547e-122
1.42079e-123
1.55905e-124
1.77794e-125
2.09061e-126
2.58326e-127
3.32155e-128
4.54586e-129
6.18523e-130
8.75425e-131
1.27334e-131
1.78067e-132
9.44473e-94
6.17815e-95
4.02521e-96
2.60934e-97
1.6815e-98
1.07741e-99
6.88513e-101
4.42964e-102
2.92666e-103
2.05876e-104
1.59519e-105
1.29275e-106
1.04926e-107
8.54519e-109
6.93446e-110
5.57943e-111
4.4745e-112
3.61157e-113
2.95559e-114
2.46455e-115
2.09897e-116
1.82685e-117
1.62976e-118
1.50502e-119
1.44517e-120
1.43619e-121
1.47225e-122
1.55465e-123
1.68985e-124
1.88895e-125
2.2237e-126
2.74632e-127
3.62388e-128
5.03776e-129
7.37198e-130
1.11833e-130
1.71105e-131
3.37296e-93
2.22449e-94
1.46404e-95
9.61254e-97
6.29499e-98
4.11436e-99
2.69042e-100
1.77048e-101
1.18562e-102
8.22332e-104
6.00774e-105
4.57907e-106
3.59193e-107
2.89343e-108
2.38301e-109
1.97853e-110
1.64118e-111
1.36047e-112
1.13535e-113
9.62275e-115
8.32118e-116
7.3674e-117
6.69858e-118
6.28467e-119
6.10815e-120
6.14916e-121
6.39719e-122
6.86492e-123
7.59123e-124
8.64081e-125
1.01907e-125
1.24481e-126
1.59967e-127
2.17205e-128
3.10386e-129
4.63483e-130
7.14731e-131
6.37528e-93
4.23342e-94
2.81151e-95
1.86892e-96
1.24511e-97
8.33348e-99
5.62574e-100
3.8537e-101
2.70038e-102
1.95213e-103
1.46202e-104
1.12263e-105
8.73781e-107
6.88363e-108
5.47428e-109
4.3879e-110
3.54835e-111
2.90241e-112
2.40924e-113
2.03819e-114
1.76446e-115
1.56691e-116
1.43106e-117
1.34851e-118
1.31364e-119
1.32236e-120
1.37481e-121
1.47667e-122
1.64008e-123
1.88655e-124
2.25949e-125
2.81402e-126
3.66558e-127
4.97677e-128
7.0981e-129
1.05676e-129
1.62759e-130
6.4376e-93
4.29086e-94
2.86374e-95
1.91548e-96
1.28551e-97
8.67213e-99
5.89677e-100
4.05656e-101
2.83655e-102
2.02597e-103
1.48274e-104
1.1108e-105
8.49768e-107
6.62792e-108
5.2612e-109
4.24e-110
3.46066e-111
2.86212e-112
2.40477e-113
2.05968e-114
1.80447e-115
1.62148e-116
1.49814e-117
1.42681e-118
1.40346e-119
1.42711e-120
1.50039e-121
1.6318e-122
1.83734e-123
2.14366e-124
2.60121e-125
3.27659e-126
4.32135e-127
5.93214e-128
8.52463e-129
1.27588e-129
1.97385e-130
3.49065e-93
2.33311e-94
1.56393e-95
1.05274e-96
7.12809e-98
4.86588e-99
3.35835e-100
2.35109e-101
1.67489e-102
1.21702e-103
9.02362e-105
6.8111e-106
5.21847e-107
4.05377e-108
3.19133e-109
2.5464e-110
2.06162e-111
1.69689e-112
1.42337e-113
1.21993e-114
1.07116e-115
9.6608e-117
8.97103e-118
8.59532e-119
8.50998e-120
8.71633e-121
9.24176e-122
1.01577e-122
1.15847e-123
1.3726e-124
1.69506e-125
2.17499e-126
2.9223e-127
4.0795e-128
5.95492e-129
9.06837e-130
1.42758e-130
9.98151e-94
6.6724e-95
4.47765e-96
3.02044e-97
2.05118e-98
1.40502e-99
9.729e-101
6.82623e-102
4.86396e-103
3.52579e-104
2.60226e-105
1.95531e-106
1.49491e-107
1.16236e-108
9.18796e-110
7.38232e-111
6.0321e-112
5.01791e-113
4.25757e-114
3.69329e-115
3.28376e-116
2.99966e-117
2.82159e-118
2.73894e-119
2.74805e-120
2.85476e-121
3.07223e-122
3.43278e-123
3.98257e-124
4.80811e-125
6.0555e-126
7.91871e-127
1.08885e-127
1.54877e-128
2.31473e-129
3.59678e-130
5.79816e-131
1.44945e-94
9.6877e-96
6.50754e-97
4.39962e-98
2.99889e-99
2.06509e-100
1.43975e-101
1.01833e-102
7.31914e-104
5.35086e-105
3.97941e-106
3.00874e-107
2.31117e-108
1.80321e-109
1.42926e-110
1.15166e-111
9.4463e-113
7.90136e-114
6.75271e-115
5.91023e-116
5.31026e-117
4.90925e-118
4.67956e-119
4.60918e-120
4.69706e-121
4.96408e-122
5.439e-123
6.20501e-124
7.35146e-125
9.0908e-126
1.17513e-126
1.57198e-127
2.23511e-128
3.24479e-129
5.01835e-130
8.02043e-131
1.33071e-131
9.33897e-96
6.24155e-97
4.1976e-98
2.84488e-99
1.94642e-100
1.34692e-101
9.44441e-103
6.72105e-104
4.86006e-105
3.57318e-106
2.6711e-107
2.02962e-108
1.56721e-109
1.22977e-110
9.80956e-112
7.96102e-113
6.58233e-114
5.55663e-115
4.79823e-116
4.24757e-117
3.86473e-118
3.62296e-119
3.50608e-120
3.51158e-121
3.64168e-122
3.92793e-123
4.38741e-124
5.13634e-125
6.21598e-126
7.91211e-127
1.05331e-127
1.44152e-128
2.15636e-129
3.14367e-130
5.13733e-131
8.44597e-132
1.4431e-132
1.80467e-97
1.20795e-98
8.14798e-100
5.54748e-101
3.8195e-102
2.66438e-103
1.88588e-104
1.35592e-105
9.90751e-107
7.35595e-108
5.54623e-109
4.24443e-110
3.29709e-111
2.60126e-112
2.08645e-113
1.704e-114
1.42037e-115
1.21158e-116
1.05882e-117
9.49838e-119
8.77622e-120
8.37118e-121
8.25454e-122
8.44361e-123
8.93993e-124
9.90135e-125
1.12679e-125
1.37097e-126
1.67605e-127
2.24738e-128
3.03654e-129
4.26187e-130
6.90519e-131
9.97773e-132
1.79226e-132
2.96368e-133
5.10961e-134
4.98959e-97
3.1905e-98
2.01756e-99
1.25368e-100
7.57794e-102
4.38529e-103
2.37429e-104
1.18174e-105
5.51598e-107
3.06356e-108
2.37147e-109
1.85864e-110
1.20129e-111
9.79086e-113
2.16076e-113
2.64533e-114
1.99304e-115
1.10461e-116
6.45074e-118
4.54437e-119
3.43022e-120
2.86071e-121
3.10378e-122
3.66876e-123
4.37802e-124
5.02018e-125
5.74555e-126
6.57579e-127
7.69029e-128
8.48924e-129
1.04959e-129
1.35734e-130
2.88506e-131
3.3033e-132
3.04297e-133
2.39324e-134
2.47247e-135
2.52235e-95
1.62547e-96
1.03882e-97
6.55783e-99
4.06667e-100
2.46038e-101
1.4434e-102
8.23755e-104
4.69282e-105
2.94289e-106
2.2354e-107
1.80312e-108
1.40053e-109
1.13614e-110
1.11888e-111
1.07923e-112
9.4437e-114
7.72862e-115
5.90647e-116