/*--------------------------------*- C++ -*----------------------------------*\
| =========                 |                                                 |
| \\      /  F ield         | OpenFOAM: The Open Source CFD Toolbox           |
|  \\    /   O peration     | Version:  2.3.1                                 |
|   \\  /    A nd           | Web:      www.OpenFOAM.org                      |
|    \\/     M anipulation  |                                                 |
\*---------------------------------------------------------------------------*/
FoamFile
{
    version     2.0;
    format      ascii;
    class       volScalarField;
    location    "20";
    object      Sed_0;
}
// * * * * * * * * * * * * * * * * * * * * * * * * * * * * * * * * * * * * * //

dimensions      [0 0 0 0 0 0 0];

internalField   nonuniform List<scalar> 
37530
(
2.58957e-101
1.61052e-102
9.78319e-104
5.6802e-105
3.00491e-106
1.26856e-107
3.4656e-109
1.04365e-110
5.09254e-112
4.43918e-113
2.08771e-113
3.73457e-114
1.11929e-115
6.70092e-117
1.45592e-117
2.26167e-118
1.91302e-119
1.78289e-120
1.43221e-121
8.52071e-123
6.64593e-124
6.43429e-125
4.82573e-126
3.85503e-127
4.49745e-128
4.94681e-129
4.72806e-130
5.09116e-131
6.21075e-132
8.34573e-133
1.20794e-133
2.2739e-134
3.71944e-135
3.63976e-136
8.74876e-137
2.01936e-137
2.79234e-138
2.14247e-99
1.34438e-100
8.28193e-102
4.94322e-103
2.79261e-104
1.42983e-105
6.10398e-107
1.93062e-108
5.93457e-110
4.87291e-111
1.03741e-111
1.26092e-112
7.21627e-114
4.4438e-115
5.77728e-116
8.94296e-117
9.12421e-118
7.24753e-119
6.18037e-120
5.50036e-121
4.24876e-122
2.70329e-123
1.82991e-124
1.6325e-125
1.65708e-126
1.82085e-127
2.20082e-128
2.86654e-129
3.82851e-130
4.63477e-131
3.74841e-132
3.81757e-133
7.40855e-134
1.79067e-134
3.03061e-135
5.79266e-136
9.99323e-137
4.6603e-98
2.95739e-99
1.85045e-100
1.13067e-101
6.63908e-103
3.64612e-104
1.79249e-105
7.48197e-107
2.72141e-108
1.20043e-109
7.71907e-111
5.85349e-112
4.61113e-113
4.00038e-114
5.17801e-115
6.71576e-116
5.69969e-117
3.40837e-118
1.91253e-119
1.28698e-120
1.11334e-121
8.89498e-123
6.43581e-124
5.18534e-125
4.67727e-126
6.14069e-127
8.89676e-128
1.07301e-128
1.2867e-129
1.81542e-130
2.89539e-131
4.52731e-132
7.39723e-133
1.94748e-133
4.57092e-134
9.86869e-135
1.83023e-135
3.96611e-97
2.54876e-98
1.6255e-99
1.02528e-100
6.36854e-102
3.87929e-103
2.31486e-104
1.37039e-105
8.38475e-107
6.02156e-108
5.34779e-109
4.8013e-110
3.92827e-111
3.1728e-112
2.69481e-113
2.34213e-114
1.95525e-115
1.53977e-116
1.13426e-117
8.23412e-119
6.28708e-120
4.98142e-121
3.93658e-122
3.2452e-123
2.9305e-124
2.81705e-125
2.62952e-126
2.1321e-127
1.55698e-128
1.07921e-129
9.27881e-131
1.1967e-131
2.82536e-132
8.56164e-133
2.17973e-133
4.8582e-134
9.50126e-135
1.57853e-96
1.02608e-97
6.64198e-99
4.27251e-100
2.72389e-101
1.7161e-102
1.06685e-103
6.57349e-105
4.09181e-106
2.68846e-107
1.94147e-108
1.49424e-109
1.20396e-110
1.02392e-111
9.21232e-113
8.42178e-114
7.51352e-115
6.51884e-116
5.59163e-117
4.84037e-118
4.304e-119
3.95315e-120
3.72038e-121
3.6012e-122
3.63672e-123
3.85703e-124
4.19993e-125
4.55702e-126
4.72013e-127
4.46847e-128
3.54491e-129
2.55326e-130
1.83577e-131
2.09655e-132
4.86702e-133
1.03361e-133
2.29856e-134
3.14104e-96
2.06327e-97
1.35561e-98
8.91413e-100
5.87647e-101
3.89635e-102
2.61372e-103
1.7915e-104
1.27301e-105
9.56115e-107
7.66219e-108
6.33846e-109
5.25459e-110
4.38367e-111
3.68361e-112
3.10891e-113
2.62712e-114
2.22905e-115
1.90884e-116
1.66798e-117
1.49946e-118
1.38837e-119
1.3275e-120
1.31881e-121
1.36706e-122
1.47054e-123
1.62645e-124
1.83782e-125
2.09814e-126
2.437e-127
2.86455e-128
3.24288e-129
3.42654e-130
3.26268e-131
3.39863e-132
4.00903e-133
6.01793e-134
3.18754e-96
2.10642e-97
1.39503e-98
9.26521e-100
6.17847e-101
4.14467e-102
2.80545e-103
1.92492e-104
1.34758e-105
9.70111e-107
7.22076e-108
5.5425e-109
4.37182e-110
3.54039e-111
2.93403e-112
2.47452e-113
2.11495e-114
1.83133e-115
1.61415e-116
1.4551e-117
1.34901e-118
1.28995e-119
1.27466e-120
1.30507e-121
1.38659e-122
1.53028e-123
1.74663e-124
2.06563e-125
2.51387e-126
3.14105e-127
4.09947e-128
5.23316e-129
7.46144e-130
9.95976e-131
1.38924e-131
2.04937e-132
2.75136e-133
1.66532e-96
1.10641e-97
7.3862e-99
4.96265e-100
3.36393e-101
2.30782e-102
1.60881e-103
1.14497e-104
8.35909e-106
6.28184e-107
4.85566e-108
3.83631e-109
3.07859e-110
2.50343e-111
2.06094e-112
1.71746e-113
1.45154e-114
1.24758e-115
1.0949e-116
9.84802e-118
9.11427e-119
8.70248e-120
8.59602e-121
8.80598e-122
9.36334e-123
1.0343e-123
1.18433e-124
1.41029e-125
1.7444e-126
2.23209e-127
3.03392e-128
4.13285e-129
6.1187e-130
9.23178e-131
1.37702e-131
2.41068e-132
3.79264e-133
4.31453e-97
2.8702e-98
1.92106e-99
1.29563e-100
8.82203e-102
6.07801e-103
4.24736e-104
3.01823e-105
2.18625e-106
1.61691e-107
1.22139e-108
9.41653e-110
7.40558e-111
5.93918e-112
4.8557e-113
4.04652e-114
3.43964e-115
2.98726e-116
2.6573e-117
2.4275e-118
2.28318e-119
2.21697e-120
2.22684e-121
2.31986e-122
2.50573e-123
2.81938e-124
3.2818e-125
4.00915e-126
5.04996e-127
6.67374e-128
9.32391e-129
1.30243e-129
2.0501e-130
3.1699e-131
5.15074e-132
9.3084e-133
1.60351e-133
5.23678e-98
3.48825e-99
2.34133e-100
1.58639e-101
1.08754e-102
7.56223e-104
5.34721e-105
3.85358e-106
2.83507e-107
2.13026e-108
1.63332e-109
1.27559e-110
1.01324e-111
8.18126e-113
6.71655e-114
5.61321e-115
4.78568e-116
4.17324e-117
3.73315e-118
3.43542e-119
3.26001e-120
3.19775e-121
3.24751e-122
3.42442e-123
3.74409e-124
4.27607e-125
5.04112e-126
6.28363e-127
8.03915e-128
1.08006e-128
1.57445e-129
2.15519e-130
3.70008e-131
5.55542e-132
9.25501e-133
1.7571e-133
3.12029e-134
2.50179e-99
1.66956e-100
1.12448e-101
7.65769e-103
5.28375e-104
3.70126e-105
2.63685e-106
1.91301e-107
1.4142e-108
1.06508e-109
8.16558e-111
6.36778e-112
5.05024e-113
4.07477e-114
3.34738e-115
2.80402e-116
2.40027e-117
2.10549e-118
1.89768e-119
1.76206e-120
1.68914e-121
1.67589e-122
1.72262e-123
1.84215e-124
2.03886e-125
2.3752e-126
2.82437e-127
3.63628e-128
4.67529e-129
6.44024e-130
1.00354e-130
1.27634e-131
2.65122e-132
3.64188e-133
6.08657e-134
1.36205e-134
2.28481e-135
3.19097e-101
2.14132e-102
1.45312e-103
9.99253e-105
6.97834e-106
4.9579e-107
3.58749e-108
2.64457e-109
1.98452e-110
1.51349e-111
1.1708e-112
9.17699e-114
7.29332e-115
5.88738e-116
4.83852e-117
4.06115e-118
3.49296e-119
3.0899e-120
2.81901e-121
2.65887e-122
2.59645e-123
2.63106e-124
2.76661e-125
3.03527e-126
3.43849e-127
4.1474e-128
4.97208e-129
6.87612e-130
8.48519e-131
1.31564e-131
2.06906e-132
2.79384e-133
7.3055e-134
9.31705e-135
1.47211e-135
4.3358e-136
5.93613e-137
6.10167e-100
3.8245e-101
2.34789e-102
1.38725e-103
7.60656e-105
3.53787e-106
1.24102e-107
3.87802e-109
1.51395e-110
1.0233e-111
2.55443e-112
5.45298e-113
3.03666e-114
1.79179e-115
2.64231e-116
4.03629e-117
4.52759e-118
3.97799e-119
2.89398e-120
1.9624e-121
1.66095e-122
1.46714e-123
1.11234e-124
9.09578e-126
9.78177e-127
9.97739e-128
9.71421e-129
1.02076e-129
1.22048e-130
1.80603e-131
2.71818e-132
4.34203e-133
5.71016e-134
5.74665e-135
6.45778e-136
1.32627e-136
2.34829e-137
4.28433e-98
2.70821e-99
1.68475e-100
1.02015e-101
5.90024e-103
3.15139e-104
1.46311e-105
5.71485e-107
2.04526e-108
1.15162e-109
1.64567e-110
1.81202e-111
1.22697e-112
8.31328e-114
9.87287e-115
1.37004e-115
1.48534e-116
1.26123e-117
1.00279e-118
8.22242e-120
6.66929e-121
4.88828e-122
3.52763e-123
3.00272e-124
2.92681e-125
3.07445e-126
3.4775e-127
4.25496e-128
5.49509e-129
7.18698e-130
8.26948e-131
9.55984e-132
1.37901e-132
2.2924e-133
3.41764e-134
5.70214e-135
9.51219e-136
8.39178e-97
5.36307e-98
3.38697e-99
2.09767e-100
1.25857e-101
7.17399e-103
3.7737e-104
1.79124e-105
8.24385e-107
3.99247e-108
2.47799e-109
1.82939e-110
1.43199e-111
1.28584e-112
1.44679e-113
1.56964e-114
1.38501e-115
1.01704e-116
6.77059e-118
4.79124e-119
4.03068e-120
3.36922e-121
2.57701e-122
2.0219e-123
1.73033e-124
1.86666e-125
2.41058e-126
2.91292e-127
3.41854e-128
4.29336e-129
5.93286e-130
8.66232e-131
1.32258e-131
2.58977e-132
5.16888e-133
1.02862e-133
1.84484e-134
6.72933e-96
4.3504e-97
2.79425e-98
1.77812e-99
1.11737e-100
6.91339e-102
4.21221e-103
2.55672e-104
1.5992e-105
1.13731e-106
9.65339e-108
8.46083e-109
6.97513e-110
5.63759e-111
4.65286e-112
3.89806e-113
3.21112e-114
2.57596e-115
2.0126e-116
1.57779e-117
1.28217e-118
1.07073e-119
9.02025e-121
7.84146e-122
7.2425e-123
7.01968e-124
6.89431e-125
6.60114e-126
5.85948e-127
5.02086e-128
4.46355e-129
4.59326e-130
7.17367e-131
1.50265e-131
3.18183e-132
6.47371e-133
1.23148e-133
2.59252e-95
1.6936e-96
1.10254e-97
7.14095e-99
4.59299e-100
2.92875e-101
1.85137e-102
1.1659e-103
7.43706e-105
4.98846e-106
3.64003e-107
2.81754e-108
2.2665e-109
1.89986e-110
1.66029e-111
1.46993e-112
1.28487e-113
1.1052e-114
9.46382e-116
8.20456e-117
7.27611e-118
6.63504e-119
6.21777e-120
6.01156e-121
6.04981e-122
6.35167e-123
6.87357e-124
7.53257e-125
8.21742e-126
8.67645e-127
8.73039e-128
8.10426e-129
7.83889e-130
8.59196e-131
1.34339e-131
2.45929e-132
4.67927e-133
5.08031e-95
3.34989e-96
2.20936e-97
1.4583e-98
9.64742e-100
6.41552e-101
4.311e-102
2.953e-103
2.08812e-104
1.54838e-105
1.21429e-106
9.81527e-108
7.98692e-109
6.55534e-110
5.42284e-111
4.51392e-112
3.77499e-113
3.17937e-114
2.70783e-115
2.35225e-116
2.09875e-117
1.92713e-118
1.82584e-119
1.79345e-120
1.83174e-121
1.93789e-122
2.11368e-123
2.36643e-124
2.71167e-125
3.17204e-126
3.8512e-127
4.68461e-128
5.88795e-129
6.8762e-130
8.93122e-131
1.2306e-131
1.84301e-132
5.14729e-95
3.4121e-96
2.26628e-97
1.50916e-98
1.00877e-99
6.78133e-101
4.59821e-102
3.15882e-103
2.21202e-104
1.59029e-105
1.17946e-106
9.00662e-108
7.0574e-109
5.6666e-110
4.64983e-111
3.8825e-112
3.28574e-113
2.81816e-114
2.45873e-115
2.19168e-116
2.00546e-117
1.88946e-118
1.8368e-119
1.84741e-120
1.92575e-121
2.08191e-122
2.32902e-123
2.69592e-124
3.22215e-125
3.96174e-126
5.08866e-127
6.5741e-128
9.19965e-129
1.28407e-129
1.88212e-130
2.88966e-131
4.3886e-132
2.71777e-95
1.80976e-96
1.21024e-97
8.13945e-99
5.51731e-100
3.78034e-101
2.62771e-102
1.86083e-103
1.34835e-104
1.00283e-105
7.65419e-107
5.9645e-108
4.72123e-109
3.78962e-110
3.08263e-111
2.54062e-112
2.1251e-113
1.80815e-114
1.57029e-115
1.39658e-116
1.27655e-117
1.20259e-118
1.17065e-119
1.18015e-120
1.23339e-121
1.33752e-122
1.50364e-123
1.75596e-124
2.13075e-125
2.67987e-126
3.55124e-127
4.80128e-128
6.93897e-129
1.02978e-129
1.56585e-130
2.59473e-131
4.22351e-132
7.25149e-96
4.83317e-97
3.23896e-98
2.18553e-99
1.48755e-100
1.0235e-101
7.1361e-103
5.05476e-104
3.64641e-105
2.68374e-106
2.01645e-107
1.54591e-108
1.20857e-109
9.63072e-111
7.81929e-112
6.46716e-113
5.45157e-114
4.69053e-115
4.1285e-116
3.72691e-117
3.45945e-118
3.31055e-119
3.27307e-120
3.35137e-121
3.55576e-122
3.92147e-123
4.48083e-124
5.34655e-125
6.6082e-126
8.52997e-127
1.15779e-127
1.60083e-128
2.39994e-129
3.64753e-130
5.83204e-131
9.94651e-132
1.70841e-132
9.30222e-97
6.20452e-98
4.16676e-99
2.82211e-100
1.93174e-101
1.33955e-102
9.43325e-104
6.7612e-105
4.94058e-106
3.68323e-107
2.7999e-108
2.16737e-109
1.70646e-110
1.36594e-111
1.11186e-112
9.21272e-114
7.78409e-115
6.72283e-116
5.95028e-117
5.41122e-118
5.06823e-119
4.90072e-120
4.90096e-121
5.08207e-122
5.46238e-123
6.11735e-124
7.08957e-125
8.63065e-126
1.08503e-126
1.42978e-127
2.00416e-128
2.78768e-129
4.42766e-130
6.7018e-131
1.10814e-131
1.96168e-132
3.43328e-133
4.90241e-98
3.27284e-99
2.20305e-100
1.4978e-101
1.03058e-102
7.19089e-104
5.09761e-105
3.67691e-106
2.70101e-107
2.02101e-108
1.53957e-109
1.19329e-110
9.40778e-112
7.54534e-113
6.15971e-114
5.12462e-115
4.35288e-116
3.78424e-117
3.37568e-118
3.09778e-119
2.93094e-120
2.8663e-121
2.90117e-122
3.05033e-123
3.3209e-124
3.78909e-125
4.441e-126
5.56042e-127
7.05167e-128
9.5847e-129
1.39192e-129
1.90102e-130
3.35278e-131
4.88364e-132
8.37354e-133
1.62824e-133
2.71839e-134
7.25106e-100
4.85692e-101
3.28584e-102
2.24947e-103
1.56167e-104
1.1015e-105
7.90388e-107
5.77379e-108
4.29312e-109
3.246e-110
2.49228e-111
1.94154e-112
1.53524e-113
1.23369e-114
1.00921e-115
8.42422e-117
7.19507e-118
6.30741e-119
5.68988e-120
5.29486e-121
5.09163e-122
5.07168e-123
5.2351e-124
5.62808e-125
6.25097e-126
7.34989e-127
8.69591e-128
1.15434e-128
1.42165e-129
2.15849e-130
3.02703e-131
4.27021e-132
8.5957e-133
1.20087e-133
2.08334e-134
5.0122e-135
7.2818e-136
6.35219e-99
4.0079e-100
2.48363e-101
1.49074e-102
8.43502e-104
4.24594e-105
1.71053e-106
5.81647e-108
2.03065e-109
1.15156e-110
1.31049e-111
3.54184e-112
3.24939e-113
2.233e-114
2.21936e-115
2.5687e-116
3.08969e-117
3.38956e-118
2.7595e-119
1.87859e-120
1.51277e-121
1.41723e-122
1.19639e-123
1.00692e-124
1.0555e-125
1.11884e-126
1.0244e-127
9.74735e-129
1.04739e-129
1.20161e-130
1.90807e-131
3.84142e-132
4.94714e-133
4.52268e-134
4.49779e-135
6.13147e-136
9.17885e-137
3.95532e-97
2.51685e-98
1.57988e-99
9.69908e-101
5.74092e-102
3.19922e-103
1.61753e-104
7.34979e-106
3.07466e-107
1.59734e-108
1.57167e-109
1.61048e-110
1.2165e-111
8.8251e-113
9.0447e-114
1.07221e-114
1.1391e-115
1.03503e-116
8.70206e-118
7.09182e-119
5.85415e-120
4.76804e-121
3.83712e-122
3.28255e-123
3.13758e-124
3.21436e-125
3.44303e-126
3.93881e-127
4.81037e-128
6.08218e-129
7.49432e-130
9.68621e-131
1.31455e-131
1.84815e-132
2.48963e-133
3.60636e-134
5.27544e-135
7.04458e-96
4.52948e-97
2.88356e-98
1.80708e-99
1.105e-100
6.50812e-102
3.63089e-103
1.91881e-104
9.9401e-106
5.50908e-107
3.6164e-108
2.72073e-109
2.17707e-110
1.86228e-111
1.77709e-112
1.69425e-113
1.46651e-114
1.15484e-115
8.67477e-117
6.8773e-118
5.95713e-119
5.24512e-120
4.41474e-121
3.67556e-122
3.28457e-123
3.25771e-124
3.46967e-125
3.89243e-126
4.59631e-127
5.60504e-128
7.24914e-129
9.65115e-130
1.36293e-130
2.18253e-131
3.69942e-132
6.45851e-133
1.06067e-133
5.33293e-95
3.46508e-96
2.23914e-97
1.43598e-98
9.11859e-100
5.72473e-101
3.55892e-102
2.21529e-103
1.42052e-104
1.00745e-105
8.29993e-107
7.10833e-108
5.85178e-109
4.73912e-110
3.85317e-111
3.14027e-112
2.54931e-113
2.0605e-114
1.65879e-115
1.35753e-116
1.14184e-117
9.83002e-119
8.62048e-120
7.81851e-121
7.41404e-122
7.2861e-123
7.31746e-124
7.41053e-125
7.47408e-126
7.33963e-127
7.70859e-128
8.76026e-129
1.16331e-129
1.81356e-130
3.09403e-131
5.47924e-132
9.53577e-133
1.98884e-94
1.30461e-95
8.5333e-97
5.55928e-98
3.60322e-99
2.32215e-100
1.4899e-101
9.57202e-103
6.24516e-104
4.26564e-105
3.13492e-106
2.42911e-107
1.94445e-108
1.60757e-109
1.37077e-110
1.18037e-111
1.01032e-112
8.58146e-114
7.29813e-115
6.29401e-116
5.54634e-117
5.01003e-118
4.65054e-119
4.46038e-120
4.44658e-121
4.60562e-122
4.92373e-123
5.38113e-124
5.9912e-125
6.6533e-126
7.54361e-127
8.34084e-128
9.68431e-129
1.25459e-129
1.81509e-130
2.89991e-131
4.83848e-132
3.83813e-94
2.53869e-95
1.67956e-96
1.11211e-97
7.38009e-99
4.9216e-100
3.31389e-101
2.27041e-102
1.60033e-103
1.17486e-104
9.04725e-106
7.1676e-107
5.73424e-108
4.63424e-109
3.77674e-110
3.0999e-111
2.56212e-112
2.13781e-113
1.80739e-114
1.55829e-115
1.37776e-116
1.25191e-117
1.17246e-118
1.13612e-119
1.14163e-120
1.18684e-121
1.2734e-122
1.40665e-123
1.60096e-124
1.8708e-125
2.28119e-126
2.84758e-127
3.73063e-128
4.93557e-129
6.96883e-130
1.03299e-130
1.60169e-131
3.88348e-94
2.58074e-95
1.71801e-96
1.14649e-97
7.6787e-99
5.1713e-100
3.51211e-101
2.4156e-102
1.69217e-103
1.215e-104
8.97884e-106
6.81801e-107
5.30237e-108
4.21672e-109
3.4217e-110
2.82347e-111
2.36089e-112
2.00084e-113
1.724e-114
1.51631e-115
1.36692e-116
1.26664e-117
1.20934e-118
1.19282e-119
1.21769e-120
1.28736e-121
1.40818e-122
1.59309e-123
1.86413e-124
2.25082e-125
2.83312e-126
3.6561e-127
4.99951e-128
7.03661e-129
1.03945e-129
1.60232e-130
2.51379e-131
2.07394e-94
1.38351e-95
9.26385e-97
6.23478e-98
4.22586e-99
2.89219e-100
2.00539e-101
1.41417e-102
1.01818e-103
7.50586e-105
5.66621e-106
4.36229e-107
3.41109e-108
2.70523e-109
2.17483e-110
1.7723e-111
1.46611e-112
1.23365e-113
1.05906e-114
9.30322e-116
8.38899e-117
7.78656e-118
7.45785e-119
7.38674e-120
7.57529e-121
8.0508e-122
8.86625e-123
1.01333e-123
1.20268e-124
1.48195e-125
1.91126e-126
2.54384e-127
3.57345e-128
5.1924e-129
7.85078e-130
1.25244e-130
2.03994e-131
5.70141e-95
3.80577e-96
2.5528e-97
1.72303e-98
1.17221e-99
8.055e-101
5.60407e-102
3.95744e-103
2.84344e-104
2.08252e-105
1.55589e-106
1.18537e-107
9.20325e-109
7.27819e-110
5.86013e-111
4.80286e-112
4.00861e-113
3.41163e-114
2.96668e-115
2.64262e-116
2.41741e-117
2.27671e-118
2.21244e-119
2.22337e-120
2.31329e-121
2.49717e-122
2.79438e-123
3.25458e-124
3.93446e-125
4.95629e-126
6.53616e-127
8.88438e-128
1.28497e-128
1.90638e-129
2.9759e-130
4.86155e-131
8.18271e-132
7.72337e-96
5.15751e-97
3.46533e-98
2.34635e-99
1.60411e-100
1.10982e-101
7.78863e-103
5.55652e-104
4.03661e-105
2.98859e-106
2.25446e-107
1.73102e-108
1.35153e-109
1.07267e-110
8.656e-112
7.10813e-113
5.94892e-114
5.085e-115
4.44961e-116
3.99578e-117
3.69101e-118
3.51538e-119
3.45881e-120
3.52373e-121
3.71917e-122
4.08065e-123
4.64078e-124
5.5165e-125
6.79757e-126
8.76121e-127
1.18847e-127
1.64205e-128
2.47792e-129
3.72369e-130
6.01972e-131
1.01704e-131
1.75217e-132
4.45848e-97
2.97885e-98
2.00521e-99
1.36215e-100
9.3556e-102
6.50984e-103
4.59769e-104
3.3012e-105
2.41232e-106
1.79474e-107
1.35914e-108
1.04714e-109
8.2053e-111
6.5396e-112
5.30342e-113
4.38082e-114
3.69186e-115
3.1812e-116
2.80947e-117
2.54936e-118
2.3823e-119
2.2982e-120
2.29259e-121
2.37201e-122
2.54247e-123
2.8448e-124
3.28564e-125
4.01357e-126
5.01876e-127
6.67881e-128
9.31959e-129
1.3027e-129
2.10186e-130
3.11619e-131
5.29796e-132
9.459e-133
1.61296e-133
7.3782e-99
4.94181e-100
3.34012e-101
2.2822e-102
1.57961e-103
1.10963e-104
7.92246e-106
5.75434e-107
4.25262e-108
3.19588e-109
2.43984e-110
1.89089e-111
1.48805e-112
1.19017e-113
9.68766e-115
8.04088e-116
6.82145e-117
5.93132e-118
5.29901e-119
4.87588e-120
4.62963e-121
4.547e-122
4.62343e-123
4.8878e-124
5.34472e-125
6.15271e-126
7.19972e-127
9.24378e-128
1.13995e-128
1.66284e-129
2.24801e-130
3.32613e-131
5.78888e-132
8.35562e-133
1.52579e-133
3.00216e-134
4.71705e-135
3.82786e-98
2.42741e-99
1.51555e-100
9.21431e-102
5.3468e-103
2.84986e-104
1.30557e-105
4.85795e-107
1.74249e-108
9.08504e-110
7.89905e-111
9.03743e-112
1.68331e-112
1.90796e-113
1.71508e-114
1.28899e-115
1.05017e-116
1.30656e-117
1.32405e-118
1.01737e-119
7.90298e-121
7.26628e-122
6.87568e-123
6.39619e-124
6.69241e-125
7.32778e-126
7.61142e-127
8.29405e-128
8.3583e-129
6.74033e-130
6.96835e-131
1.95826e-131
3.50865e-132
3.01026e-133
2.3877e-134
2.77836e-135
3.76011e-136
2.16566e-96
1.38488e-97
8.75334e-99
5.43136e-100
3.27302e-101
1.88406e-102
1.01363e-103
5.07044e-105
2.43186e-106
1.36615e-107
1.08878e-108
9.88868e-110
8.25448e-111
6.92683e-112
6.45602e-113
6.39231e-114
6.17428e-115
5.67745e-116
4.75799e-117
3.80601e-118
3.09609e-119
2.60492e-120
2.28657e-121
2.13056e-122
2.13526e-123
2.24176e-124
2.41803e-125
2.71271e-126
3.16374e-127
3.68291e-128
4.45758e-129
5.98203e-130
8.45517e-131
1.03621e-131
1.36486e-132
1.83956e-133
2.4295e-134
3.60828e-95
2.33049e-96
1.49261e-97
9.43751e-99
5.85298e-100
3.52988e-101
2.05138e-102
1.15331e-103
6.44816e-105
3.94056e-106
2.78262e-107
2.14062e-108
1.68779e-109
1.41862e-110
1.26554e-111
1.12859e-112
9.51619e-114
7.70811e-115
6.12855e-116
5.00733e-117
4.29115e-118
3.77862e-119
3.33696e-120
2.99991e-121
2.8298e-122
2.82634e-123
2.95877e-124
3.2323e-125
3.70251e-126
4.35829e-127
5.45706e-128
7.15101e-129
9.90805e-130
1.39652e-130
2.10723e-131
3.30551e-132
4.91723e-133
2.61773e-94
1.70721e-95
1.1082e-96
7.14903e-98
4.57627e-99
2.90518e-100
1.83357e-101
1.16236e-102
7.58073e-104
5.35016e-105
4.27193e-106
3.56752e-107
2.92929e-108
2.38252e-109
1.9314e-110
1.5576e-111
1.25489e-112
1.01634e-113
8.29219e-115
6.88754e-116
5.85641e-117
5.08954e-118
4.52916e-119
4.174e-120
4.00671e-121
3.98199e-122
4.07009e-123
4.25397e-124
4.53854e-125
4.88999e-126
5.61956e-127
6.81574e-128
9.01909e-129
1.2892e-129
1.97028e-130
3.14821e-131
5.02526e-132
9.52248e-94
6.26505e-95
4.11198e-96
2.69044e-97
1.75376e-98
1.13907e-99
7.38625e-101
4.81038e-102
3.18637e-103
2.19614e-104
1.61137e-105
1.24037e-106
9.84041e-108
8.03003e-109
6.71963e-110
5.67071e-111
4.7717e-112
4.00232e-113
3.37306e-114
2.88511e-115
2.5194e-116
2.25315e-117
2.06941e-118
1.96313e-119
1.93249e-120
1.97292e-121
2.08083e-122
2.25712e-123
2.51422e-124
2.8526e-125
3.34315e-126
4.00997e-127
5.07394e-128
6.88284e-129
9.94146e-130
1.51753e-130
2.3958e-131
1.81592e-93
1.20374e-94
7.98076e-96
5.2959e-97
3.522e-98
2.35337e-99
1.58679e-100
1.08698e-101
7.63652e-103
5.55981e-104
4.21643e-105
3.28434e-106
2.58925e-107
2.06417e-108
1.66001e-109
1.34514e-110
1.09896e-111
9.07584e-113
7.60296e-114
6.49325e-115
5.68047e-116
5.10178e-117
4.71708e-118
4.50535e-119
4.45417e-120
4.55279e-121
4.80504e-122
5.23277e-123
5.88516e-124
6.83439e-125
8.27504e-126
1.03758e-126
1.36221e-127
1.85428e-128
2.66351e-129
4.00258e-130
6.23162e-131
1.83535e-93
1.2217e-94
8.14464e-96
5.44232e-97
3.64923e-98
2.46003e-99
1.67196e-100
1.15023e-101
8.05128e-103
5.76627e-104
4.24089e-105
3.19855e-106
2.46688e-107
1.9424e-108
1.55836e-109
1.27027e-110
1.0489e-111
8.77741e-113
7.4645e-114
6.47497e-115
5.75015e-116
5.24246e-117
4.91893e-118
4.76214e-119
4.76606e-120
4.93486e-121
5.28465e-122
5.8537e-123
6.71037e-124
7.95911e-125
9.82443e-126
1.25452e-126
1.6827e-127
2.34406e-128
3.42334e-129
5.20946e-130
8.1563e-131
9.88828e-94
6.60362e-95
4.42455e-96
2.97824e-97
2.01757e-98
1.37893e-99
9.53745e-101
6.69924e-102
4.79571e-103
3.50782e-104
2.62246e-105
1.99762e-106
1.54505e-107
1.21185e-108
9.63443e-110
7.76436e-111
6.35081e-112
5.28268e-113
4.48063e-114
3.88587e-115
3.45565e-116
3.15962e-117
2.97749e-118
2.89798e-119
2.91726e-120
3.04035e-121
3.28163e-122
3.67354e-123
4.26838e-124
5.15171e-125
6.48953e-126
8.47659e-127
1.16222e-127
1.65316e-128
2.45735e-129
3.82058e-130
6.12007e-131
2.7809e-94
1.85784e-95
1.24656e-96
8.41155e-98
5.71732e-99
3.92224e-100
2.72207e-101
1.91579e-102
1.37055e-103
9.98439e-105
7.41292e-106
5.60781e-107
4.31988e-108
3.38687e-109
2.70141e-110
2.19162e-111
1.80934e-112
1.52183e-113
1.30658e-114
1.14787e-115
1.03453e-116
9.58822e-118
9.15908e-119
9.03722e-120
9.22367e-121
9.75547e-122
1.06928e-122
1.21797e-123
1.44046e-124
1.77364e-125
2.28085e-126
3.03877e-127
4.27292e-128
6.19803e-129
9.45736e-130
1.50142e-130
2.46877e-131
3.9219e-95
2.62036e-96
1.76048e-97
1.19112e-98
8.13053e-100
5.61126e-101
3.9242e-102
2.78681e-103
2.01307e-104
1.4805e-105
1.10849e-106
8.4428e-108
6.53617e-109
5.14176e-110
4.11093e-111
3.34304e-112
2.76894e-113
2.34055e-114
2.02315e-115
1.79275e-116
1.63229e-117
1.53062e-118
1.48118e-119
1.48242e-120
1.53601e-121
1.65212e-122
1.84237e-123
2.14227e-124
2.58541e-125
3.25983e-126
4.30508e-127
5.85642e-128
8.53592e-129
1.26133e-129
1.99256e-130
3.25959e-131
5.50781e-132
2.41406e-96
1.61326e-97
1.08548e-98
7.36495e-100
5.04822e-101
3.50249e-102
2.46432e-103
1.76117e-104
1.27994e-105
9.46442e-107
7.11991e-108
5.44702e-109
4.2367e-110
3.35027e-111
2.69448e-112
2.20599e-113
1.84122e-114
1.56994e-115
1.37057e-116
1.22804e-117
1.13192e-118
1.07591e-119
1.05654e-120
1.07479e-121
1.13247e-122
1.24282e-123
1.41086e-124
1.6846e-125
2.07123e-126
2.6919e-127
3.65694e-128
5.07585e-129
7.8187e-130
1.1532e-130
1.92371e-131
3.26946e-132
5.61728e-133
4.37686e-98
2.93061e-99
1.97867e-100
1.34941e-101
9.3137e-103
6.51831e-104
4.63261e-105
3.3469e-106
2.45892e-107
1.83648e-108
1.39327e-109
1.07308e-110
8.39133e-112
6.66717e-113
5.38831e-114
4.43714e-115
3.73091e-116
3.21177e-117
2.83715e-118
2.57773e-119
2.41386e-120
2.33541e-121
2.33724e-122
2.42889e-123
2.61209e-124
2.94597e-125
3.39935e-126
4.23863e-127
5.21032e-128
7.26195e-129
9.78201e-130
1.41977e-130
2.34818e-131
3.41263e-132
6.2436e-133
1.09118e-133
1.79994e-134
1.58265e-97
1.00796e-98
6.3349e-100
3.89562e-101
2.31022e-102
1.2882e-103
6.49186e-105
2.81199e-106
1.09284e-107
5.64947e-109
4.32908e-110
3.71351e-111
3.17129e-112
7.955e-113
1.00749e-113
7.86859e-115
4.30293e-116
2.79999e-117
2.48217e-118
2.48373e-119
2.10017e-120
1.90935e-121
1.91798e-122
1.98247e-123
2.16336e-124
2.43471e-125
2.74675e-126
3.16314e-127
3.61416e-128
4.02357e-129
4.31555e-130
6.60368e-131
1.49678e-131
1.43045e-132
1.18256e-133
9.74048e-135
1.11999e-135
8.37901e-96
5.38004e-97
3.42042e-98
2.14176e-99
1.31051e-100
7.74985e-102
4.37412e-103
2.35585e-104
1.24543e-105
7.51173e-107
5.76028e-108
4.74492e-109
3.79856e-110
3.43779e-111
3.38783e-112
3.21728e-113
2.82147e-114
2.31775e-115
1.82344e-116
1.41386e-117
1.11259e-118
9.19264e-120
8.12101e-121
7.75508e-122
8.00042e-123
8.62492e-124
9.5439e-125
1.08758e-125
1.27873e-126
1.51428e-127
1.86285e-128
2.41828e-129
3.54832e-130
4.29402e-131
5.60814e-132
7.33972e-133
8.97582e-134
1.33129e-94
8.62966e-96
5.55438e-97
3.53784e-98
2.21977e-99
1.36453e-100
8.18366e-102
4.81303e-103
2.84387e-104
1.81794e-105
1.33535e-106
1.04491e-107
8.21325e-109
6.85853e-110
6.0257e-111
5.25467e-112
4.36118e-113
3.48866e-114
2.77445e-115
2.26521e-116
1.91736e-117
1.66767e-118
1.48022e-119
1.35998e-120
1.31363e-121
1.33064e-122
1.405e-123
1.54156e-124
1.75781e-125
2.06674e-126
2.55352e-127
3.28307e-128
4.49284e-129
6.11269e-130
8.65147e-131
1.2584e-131
1.75991e-132
9.36312e-94
6.12444e-95
3.99002e-96
2.58641e-97
1.66665e-98
1.06785e-99
6.82362e-101
4.38957e-102
2.89959e-103
2.03895e-104
1.57925e-105
1.27973e-106
1.03867e-107
8.45896e-109
6.86458e-110
5.52324e-111
4.42932e-112
3.5749e-113
2.92538e-114
2.43916e-115
2.07715e-116
1.80768e-117
1.6125e-118
1.48891e-119
1.42955e-120
1.42052e-121
1.45605e-122
1.53739e-123
1.67092e-124
1.86759e-125
2.19832e-126
2.71473e-127
3.58194e-128
4.97927e-129
7.28635e-130
1.10536e-130
1.69128e-131
3.34392e-93
2.2052e-94
1.45126e-95
9.5281e-97
6.23935e-98
4.07777e-99
2.66631e-100
1.75445e-101
1.17471e-102
8.14592e-104
5.94979e-105
4.53416e-106
3.5563e-107
2.86446e-108
2.35899e-109
1.95851e-110
1.62452e-111
1.34659e-112
1.1237e-113
9.52327e-115
8.23448e-116
7.29001e-117
6.62763e-118
6.21755e-119
6.04235e-120
6.08234e-121
6.3271e-122
6.78908e-123
7.50667e-124
8.54379e-125
1.00753e-125
1.23062e-126
1.58132e-127
2.14701e-128
3.06795e-129
4.58109e-130
7.06438e-131
6.32042e-93
4.19672e-94
2.78694e-95
1.85246e-96
1.23405e-97
8.25876e-99
5.57474e-100
3.8183e-101
2.67517e-102
1.93357e-103
1.44788e-104
1.11166e-105
8.65188e-107
6.81556e-108
5.4199e-109
4.34409e-110
3.51272e-111
2.87308e-112
2.38471e-113
2.01728e-114
1.74621e-115
1.55056e-116
1.416e-117
1.33419e-118
1.29956e-119
1.30807e-120
1.35982e-121
1.46044e-122
1.6219e-123
1.86546e-124
2.23402e-125
2.78206e-126
3.62365e-127
4.91951e-128
7.01604e-129
1.04449e-129
1.60861e-130
6.38214e-93
4.2536e-94
2.83867e-95
1.89856e-96
1.27406e-97
8.59419e-99
5.84324e-100
4.01932e-101
2.81018e-102
2.00688e-103
1.46858e-104
1.10007e-105
8.41472e-107
6.56262e-108
5.20895e-109
4.19759e-110
3.42581e-111
2.8331e-112
2.3802e-113
2.03848e-114
1.78575e-115
1.60452e-116
1.48233e-117
1.41164e-118
1.3884e-119
1.41166e-120
1.48402e-121
1.61384e-122
1.81695e-123
2.11967e-124
2.57186e-125
3.23934e-126
4.27186e-127
5.86372e-128
8.4257e-129
1.26097e-129
1.95065e-130
3.46045e-93
2.31276e-94
1.55016e-95
1.04339e-96
7.06415e-98
4.82178e-99
3.32757e-100
2.3293e-101
1.65917e-102
1.20546e-103
8.93689e-105
6.74502e-106
5.16744e-107
4.01384e-108
3.15969e-109
2.52097e-110
2.0409e-111
1.67971e-112
1.40885e-113
1.20738e-114
1.06005e-115
9.55971e-117
8.87634e-118
8.5038e-119
8.41855e-120
8.62186e-121
9.1407e-122
1.00456e-122
1.14557e-123
1.3572e-124
1.67587e-125
2.15016e-126
2.88867e-127
4.03219e-128
5.88535e-129
8.96159e-130
1.41064e-130
9.89463e-94
6.61381e-95
4.43798e-96
2.99343e-97
2.03265e-98
1.3922e-99
9.63933e-101
6.76263e-102
4.81814e-103
3.4922e-104
2.57721e-105
1.9363e-106
1.48025e-107
1.15086e-108
9.09634e-110
7.30815e-111
5.97103e-112
4.96673e-113
4.21381e-114
3.65503e-115
3.24946e-116
2.96807e-117
2.79162e-118
2.7096e-119
2.71835e-120
2.82364e-121
3.03844e-122
3.39469e-123
3.93798e-124
4.75381e-125
5.9865e-126
7.82773e-127
1.07623e-127
1.53067e-128
2.28746e-129
3.55402e-130
5.72862e-131
1.43673e-94
9.60193e-96
6.44938e-97
4.35992e-98
2.97155e-99
2.04607e-100
1.42635e-101
1.00875e-102
7.24951e-104
5.29941e-105
3.94077e-106
2.97927e-107
2.28835e-108
1.78526e-109
1.41492e-110
1.14003e-111
9.35012e-113
7.82029e-114
6.68287e-115
5.84861e-116
5.25442e-117
4.85719e-118
4.62951e-119
4.55945e-120
4.64593e-121
4.90955e-122
5.37871e-123
6.1356e-124
7.26848e-125
8.98729e-126
1.16162e-126
1.55376e-127
2.20897e-128
3.20647e-129
4.95862e-130
7.92396e-131
1.31456e-131
9.25623e-96
6.18574e-97
4.1597e-98
2.81894e-99
1.92849e-100
1.33438e-101
9.35559e-103
6.65717e-104
4.81338e-105
3.53852e-106
2.64494e-107
2.00958e-108
1.55161e-109
1.21743e-110
9.71038e-112
7.87993e-113
6.51477e-114
5.49914e-115
4.74819e-116
4.20292e-117
3.82375e-118
3.58422e-119
3.46826e-120
3.47336e-121
3.60169e-122
3.88439e-123
4.33833e-124
5.07835e-125
6.14513e-126
7.82115e-127
1.04107e-127
1.42465e-128
2.13083e-129
3.10607e-130
5.0755e-131
8.34285e-132
1.42535e-132
1.78852e-97
1.19704e-98
8.07364e-100
5.49634e-101
3.78392e-102
2.6393e-103
1.86794e-104
1.34288e-105
9.81133e-107
7.28388e-108
5.49144e-109
4.20217e-110
3.26402e-111
2.57497e-112
2.06521e-113
1.68651e-114
1.40567e-115
1.19894e-116
1.04768e-117
9.39765e-119
8.68234e-120
8.28084e-121
8.16466e-122
8.35083e-123
8.84079e-124
9.79049e-125
1.11407e-125
1.35533e-126
1.65675e-127
2.22128e-128
3.0008e-129
4.2116e-130
6.82216e-131
9.85694e-132
1.77049e-132
2.92731e-133
5.04639e-134
4.94574e-97
3.16236e-98
1.99974e-99
1.24263e-100
7.51165e-102
4.34755e-103
2.35442e-104
1.17218e-105
5.47098e-107
3.03438e-108
2.34645e-109
1.83991e-110
1.18912e-111
9.68745e-113
2.13519e-113
2.61747e-114
1.97297e-115
1.09369e-116
6.38309e-118
4.49606e-119
3.3932e-120
2.82942e-121
3.07012e-122
3.6289e-123
4.33003e-124
4.96495e-125
5.68188e-126
6.50238e-127
7.6033e-128
8.392e-129
1.03737e-129
1.34138e-130
2.85021e-131
3.26268e-132
3.00492e-133
2.3646e-134
2.44316e-135
2.50034e-95
1.61123e-96
1.02969e-97
6.50011e-99
4.03094e-100
2.43887e-101
1.43088e-102
8.16616e-104
4.65143e-105
2.91479e-106
2.21257e-107
1.78461e-108
1.38629e-109
1.12427e-110
1.10709e-111
1.06802e-112
9.34645e-114
7.64911e-115
5.84566e-116
4.30548e-117