/*--------------------------------*- C++ -*----------------------------------*\
| =========                 |                                                 |
| \\      /  F ield         | OpenFOAM: The Open Source CFD Toolbox           |
|  \\    /   O peration     | Version:  2.3.1                                 |
|   \\  /    A nd           | Web:      www.OpenFOAM.org                      |
|    \\/     M anipulation  |                                                 |
\*---------------------------------------------------------------------------*/
FoamFile
{
    version     2.0;
    format      ascii;
    class       volVectorField;
    location    "20";
    object      U;
}
// * * * * * * * * * * * * * * * * * * * * * * * * * * * * * * * * * * * * * //

dimensions      [0 1 -1 0 0 0 0];

internalField   nonuniform List<vector> 
37530
(
(0.00360915 1.5612e-05 1.26262e-05)
(0.00348245 4.85692e-05 2.38695e-05)
(0.00321956 0.000117922 4.49098e-05)
(0.00269282 0.00027015 8.71787e-05)
(0.00164245 0.000622926 0.000181519)
(-0.000599449 0.00147434 0.000401609)
(-0.00566598 0.00384037 0.00102431)
(-0.0176696 0.0106939 0.00235332)
(-0.0497342 0.0159742 0.00325051)
(-0.0906958 -0.00486965 0.00260233)
(-0.0859201 -0.0317224 0.000453145)
(-0.0647782 -0.0269505 0.000804687)
(-0.0718981 -0.00968173 0.00150502)
(-0.0828193 -0.0068107 -0.000819906)
(-0.0736859 -0.0111937 -0.00214599)
(-0.0625244 -0.00925395 -0.000471963)
(-0.0634823 -0.00523258 -0.000666016)
(-0.061938 -0.00505875 -0.00264429)
(-0.0541587 -0.005943 -0.00143038)
(-0.0528552 -0.00542594 0.000890342)
(-0.0560313 -0.00460089 -0.000166938)
(-0.0527086 -0.00374165 -0.00160654)
(-0.0476874 -0.00266416 -0.000335192)
(-0.0478842 -0.00263343 -0.00010908)
(-0.0447348 -0.00340343 -0.00170236)
(-0.0387031 -0.0032409 -0.00157769)
(-0.0372221 -0.00394625 -0.000488244)
(-0.0350092 -0.00606422 -0.000518397)
(-0.0314837 -0.00766129 -0.000579977)
(-0.0302161 -0.00731222 -0.000451768)
(-0.0298461 -0.00178204 -0.00142297)
(-0.0301422 0.00855158 -0.00393784)
(-0.0270303 0.0149847 -0.00535468)
(-0.0310228 0.00258104 -0.000754908)
(-0.0254747 -0.0116427 0.00151453)
(-0.0189318 -0.0108574 0.00255904)
(-0.022023 -0.0041681 0.00305013)
(0.00405191 6.71195e-05 -1.64905e-06)
(0.00397906 0.000134415 6.57852e-06)
(0.00382964 0.00025552 2.12195e-05)
(0.00356097 0.000484914 4.79304e-05)
(0.00311603 0.000949029 9.78615e-05)
(0.00241539 0.00192842 0.000191941)
(0.00153007 0.00416436 0.000372762)
(0.000887459 0.00921572 0.000726078)
(0.00319093 0.0173568 0.00070039)
(0.00384584 0.0198322 -0.000999135)
(0.00198039 0.0158459 -0.00279828)
(-0.00513281 0.0147553 -0.00197305)
(-0.010014 0.0139367 -0.000446999)
(-0.0120806 0.00958362 -0.000671877)
(-0.0122826 0.00419562 -0.00156305)
(-0.0106135 0.00203447 -0.00115382)
(-0.00869193 0.00308563 2.39742e-05)
(-0.00840158 0.00529359 -7.65694e-05)
(-0.00966441 0.00683287 -0.00132218)
(-0.00949623 0.00671271 -0.00204786)
(-0.00855506 0.00532851 -0.00133811)
(-0.00998492 0.00370074 -0.000407608)
(-0.0140955 0.00219322 -0.000377036)
(-0.0167465 0.00145534 -0.000882401)
(-0.0170488 0.00310804 -0.00137222)
(-0.0161282 0.00577293 -0.00187138)
(-0.0131746 0.00690001 -0.00235062)
(-0.00965859 0.00720622 -0.00269186)
(-0.00729931 0.00818713 -0.0027914)
(-0.00725088 0.00817504 -0.00140286)
(-0.013847 0.00482716 0.002166)
(-0.0270678 0.00258011 0.00203794)
(-0.0250944 0.00972226 -0.00232851)
(-0.0107764 0.006055 -0.0056783)
(-0.0053987 -0.00159452 -0.0044096)
(-0.00583424 -0.00510835 -0.00141677)
(-0.00673549 -0.00610598 -0.00067263)
(0.00419051 0.000127589 -8.98264e-06)
(0.00414667 0.000216864 -2.19586e-06)
(0.00404087 0.000364219 1.00674e-05)
(0.00383949 0.000612579 3.23317e-05)
(0.00349894 0.00103821 7.32736e-05)
(0.00297787 0.00176866 0.000148866)
(0.00232748 0.00303004 0.000286738)
(0.00181767 0.00504225 0.000520991)
(0.00283344 0.00767136 0.000822989)
(0.00558534 0.00493371 0.000863222)
(0.00718211 -0.00276795 0.00102038)
(0.00691255 -0.00412372 0.00140278)
(0.00664649 -0.0018302 0.00138697)
(0.0070644 -0.0018916 0.000935726)
(0.0070957 -0.0036735 0.000502173)
(0.00649383 -0.00451401 0.000545677)
(0.00518796 -0.00388012 0.000883996)
(0.00359558 -0.00230146 0.00127367)
(0.00184683 0.000124229 0.00137533)
(0.000526004 0.00160364 0.00101879)
(0.000128781 0.00175431 0.000711244)
(-0.00065889 0.00221987 0.000844899)
(-0.00340807 0.00300388 0.00120447)
(-0.0089099 0.00227946 0.00129301)
(-0.0145774 0.000502961 0.000721691)
(-0.0160079 -0.000301 6.42069e-05)
(-0.0139477 -0.000294777 0.000137042)
(-0.012133 0.000529317 0.000418839)
(-0.0102173 0.00312875 4.94054e-05)
(-0.00666752 0.00716 -0.000875883)
(-0.00275059 0.0110374 -0.00157183)
(-0.00316063 0.0117685 -0.00128029)
(-0.00792361 0.010891 -0.00169769)
(-0.000926612 0.00957609 -0.0044599)
(0.0051237 0.00374188 -0.00451332)
(0.00936419 -0.000521356 -0.00388896)
(0.0118512 -0.000502796 -0.00324381)
(0.00429944 0.000175438 -1.32299e-05)
(0.00431201 0.000275434 -9.01366e-06)
(0.00430893 0.000432126 -1.83539e-06)
(0.00429432 0.000680641 9.91493e-06)
(0.00428551 0.00107855 2.85601e-05)
(0.00433028 0.00171448 5.72512e-05)
(0.00456461 0.00271013 9.93474e-05)
(0.00524819 0.0041479 0.000146964)
(0.0069833 0.00597228 0.000165801)
(0.00991258 0.00687853 8.44326e-06)
(0.0112823 0.00619497 -0.000220922)
(0.0101477 0.00548804 -8.20379e-05)
(0.00942412 0.00493991 0.000161787)
(0.009588 0.00374047 0.000195169)
(0.00945541 0.00213554 5.73277e-05)
(0.00900186 0.00117698 -5.561e-05)
(0.00865126 0.00109078 -2.97836e-05)
(0.00868871 0.00141267 0.000113637)
(0.00901295 0.00177539 0.000408854)
(0.00946584 0.00201396 0.00061326)
(0.00986091 0.00202654 0.000675014)
(0.0100491 0.00221772 0.000726601)
(0.0102717 0.00280871 0.000812358)
(0.0104004 0.00334194 0.000782878)
(0.0101102 0.00323921 0.000605697)
(0.00950275 0.00265233 0.000479158)
(0.00882545 0.00224723 0.000635177)
(0.00724801 0.00243608 0.00123891)
(0.00411081 0.00271004 0.00244025)
(-0.00155216 0.00348982 0.00292325)
(-0.00608246 0.00705727 0.00118779)
(-0.00367156 0.0119501 -0.000561374)
(-0.000774615 0.0135195 -0.00163875)
(0.00513325 0.0132294 -0.00321062)
(0.0111186 0.0103084 -0.00332261)
(0.0144266 0.00882809 -0.00286645)
(0.017224 0.00875373 -0.00232562)
(0.00438122 0.000202442 -1.55072e-05)
(0.00442156 0.000295973 -1.24515e-05)
(0.00445145 0.000431635 -6.95002e-06)
(0.00447086 0.000627126 2.40178e-06)
(0.00448687 0.000903833 1.74307e-05)
(0.0045219 0.0012833 4.08422e-05)
(0.00463406 0.00177295 7.58402e-05)
(0.00492929 0.002303 0.000122839)
(0.00558644 0.0026618 0.000176421)
(0.00667426 0.00211602 0.000213079)
(0.00770333 0.000214928 0.000235126)
(0.00835095 -0.00102442 0.000259547)
(0.00892866 -0.00134372 0.000249199)
(0.00953554 -0.00174512 0.000195775)
(0.00990871 -0.00223682 0.00012747)
(0.00994493 -0.00248784 8.47832e-05)
(0.00986913 -0.0023961 8.26756e-05)
(0.00994749 -0.00206078 8.95281e-05)
(0.0102448 -0.00156697 9.38759e-05)
(0.0107207 -0.00118954 0.000103672)
(0.011284 -0.00103955 9.31097e-05)
(0.0118713 -0.000825035 8.65351e-05)
(0.01256 -0.00051262 0.000113944)
(0.0134091 -0.000379016 0.000151991)
(0.0143547 -0.000564713 0.000164097)
(0.0151839 -0.000716029 0.000137209)
(0.0159422 -0.000617751 0.000160148)
(0.0163265 -5.84007e-06 0.000254017)
(0.0167 0.00105853 0.000489467)
(0.0158498 0.00230301 0.000949159)
(0.0139719 0.00262856 0.00218845)
(0.0100358 0.00347468 0.00335234)
(0.004465 0.0058316 0.00230742)
(0.00394213 0.00961391 -0.000344948)
(0.00753521 0.00918739 -0.00122399)
(0.00942834 0.00704151 -0.00125486)
(0.0135629 0.00813175 -0.00172945)
(0.00445858 0.000215208 -1.73634e-05)
(0.00453581 0.000302528 -1.58261e-05)
(0.00462518 0.000426155 -1.32766e-05)
(0.0047382 0.000599878 -9.4789e-06)
(0.00489532 0.000839814 -4.25175e-06)
(0.00513124 0.00116145 2.23239e-06)
(0.0055007 0.00157148 8.87122e-06)
(0.00607539 0.00204427 1.17194e-05)
(0.00691252 0.00249907 2.25481e-06)
(0.00797983 0.00274108 -3.19766e-05)
(0.0088256 0.00262565 -9.26009e-05)
(0.00911452 0.0023955 -0.000122869)
(0.00922129 0.00213599 -0.00012033)
(0.00938228 0.00177221 -0.000127324)
(0.00949384 0.00132136 -0.000149179)
(0.00957703 0.00098078 -0.000174333)
(0.00971127 0.000850373 -0.000183173)
(0.0099892 0.000881305 -0.000178138)
(0.0104224 0.000967755 -0.00015929)
(0.0109992 0.00107774 -0.000141102)
(0.0116469 0.00118481 -0.000132634)
(0.0123228 0.00131915 -0.00012751)
(0.0131016 0.00147812 -0.000125079)
(0.0140154 0.00161028 -0.000128964)
(0.0149711 0.00164405 -0.000146278)
(0.015876 0.00163341 -0.000167399)
(0.0167736 0.00162851 -0.000155801)
(0.0175958 0.00185888 -0.000122566)
(0.0187182 0.00211305 1.10387e-05)
(0.0196296 0.00296505 9.30694e-05)
(0.0212471 0.00357785 0.000369744)
(0.0212389 0.00567264 0.000768231)
(0.02187 0.00543985 0.00183828)
(0.0189752 0.00643908 0.00257551)
(0.0188828 0.00706161 0.00174602)
(0.0178681 0.00637226 0.00190724)
(0.0158434 0.00883016 0.000724006)
(0.00452019 0.000212859 -1.89514e-05)
(0.00461675 0.00028614 -1.83424e-05)
(0.00472507 0.000382795 -1.68964e-05)
(0.00485028 0.000507054 -1.42265e-05)
(0.0050014 0.000660772 -9.9251e-06)
(0.00519301 0.000839302 -3.63513e-06)
(0.00544665 0.00102373 4.69787e-06)
(0.00578793 0.00116837 1.43139e-05)
(0.00623444 0.00118908 2.34766e-05)
(0.00677173 0.000970024 2.92e-05)
(0.0073161 0.000426171 3.02345e-05)
(0.00780472 -0.000144588 2.81015e-05)
(0.00826061 -0.000539433 1.97033e-05)
(0.00869782 -0.000858807 4.96834e-06)
(0.00908816 -0.00111106 -1.48531e-05)
(0.00941735 -0.00126212 -3.05359e-05)
(0.00971219 -0.00130443 -4.48041e-05)
(0.0100511 -0.00125175 -5.54485e-05)
(0.0104788 -0.00116176 -6.90337e-05)
(0.0110009 -0.00105476 -8.21895e-05)
(0.0116111 -0.000984957 -9.78514e-05)
(0.0122997 -0.000899678 -0.000111897)
(0.0130764 -0.000812201 -0.000124162)
(0.0139364 -0.00073592 -0.000138388)
(0.0148792 -0.000728113 -0.000152248)
(0.0158423 -0.000681476 -0.000173471)
(0.0168941 -0.000624491 -0.000176666)
(0.0178769 -0.000361073 -0.00019887)
(0.0191358 -7.82819e-05 -0.000165315)
(0.0201835 0.000403153 -0.000138058)
(0.0216834 0.000827496 -0.000129361)
(0.0231127 0.00101189 0.000229697)
(0.0244082 0.00247361 -4.63461e-05)
(0.0273533 0.00193699 0.000763294)
(0.0251803 0.00402271 0.000660248)
(0.0308876 0.00273214 0.000844857)
(0.0254822 0.00428879 0.00148726)
(0.00456972 0.000201248 -2.03572e-05)
(0.00468513 0.000262166 -2.0563e-05)
(0.00482062 0.000341616 -2.05133e-05)
(0.00498525 0.000443668 -2.02908e-05)
(0.00519144 0.00057114 -2.00919e-05)
(0.00545525 0.00072377 -2.03475e-05)
(0.0057949 0.000895102 -2.18952e-05)
(0.00622493 0.00106811 -2.61765e-05)
(0.00674283 0.00121308 -3.53353e-05)
(0.00731679 0.00129299 -5.08372e-05)
(0.00785599 0.00128508 -7.30141e-05)
(0.00827818 0.0012233 -9.49852e-05)
(0.0086101 0.00113257 -0.00011273)
(0.00890532 0.00101684 -0.000128694)
(0.00917974 0.000887506 -0.000142503)
(0.00946114 0.000778547 -0.000156935)
(0.00977916 0.00072281 -0.000170201)
(0.0101644 0.00073368 -0.000180467)
(0.0106314 0.000784732 -0.000190647)
(0.0111813 0.000861189 -0.000199849)
(0.0118064 0.000947713 -0.000211745)
(0.0124977 0.00104199 -0.000224593)
(0.0132725 0.00113365 -0.000238693)
(0.0141264 0.00122418 -0.00025449)
(0.01506 0.00128875 -0.000270827)
(0.0160364 0.00138562 -0.000288625)
(0.0170813 0.00143252 -0.000301672)
(0.01822 0.00165063 -0.000310998)
(0.0193083 0.0017302 -0.000323891)
(0.020955 0.00207433 -0.0002695)
(0.0218173 0.0024333 -0.000376231)
(0.0242299 0.0025243 -0.000141443)
(0.0250155 0.00320625 -0.000265685)
(0.0273008 0.00350037 -0.000299805)
(0.0293681 0.00284632 0.000474883)
(0.0300014 0.00432891 -0.000669878)
(0.0343352 0.00459535 0.000723854)
(0.00460103 0.000181967 -2.11226e-05)
(0.00472743 0.000229318 -2.18653e-05)
(0.00487285 0.000288059 -2.24917e-05)
(0.00504151 0.000357965 -2.29037e-05)
(0.00523855 0.000436616 -2.30119e-05)
(0.00547026 0.000517556 -2.28252e-05)
(0.00574303 0.000588067 -2.24793e-05)
(0.00606108 0.000627446 -2.22977e-05)
(0.00642283 0.000608162 -2.28025e-05)
(0.00681809 0.000505382 -2.44216e-05)
(0.00722718 0.000310258 -2.7434e-05)
(0.0076339 7.24799e-05 -3.1892e-05)
(0.00803592 -0.000149858 -3.81358e-05)
(0.00843513 -0.000341286 -4.62147e-05)
(0.00883089 -0.000492235 -5.57824e-05)
(0.00922791 -0.000591874 -6.59553e-05)
(0.00963732 -0.000645108 -7.70554e-05)
(0.0100792 -0.00065507 -8.80689e-05)
(0.0105731 -0.000642148 -9.96415e-05)
(0.0111303 -0.000611717 -0.000111605)
(0.0117579 -0.000579458 -0.00012381)
(0.012456 -0.000536318 -0.000136825)
(0.0132357 -0.000492015 -0.000150027)
(0.0140785 -0.000436827 -0.000166024)
(0.015026 -0.000408307 -0.000178384)
(0.0159837 -0.000313977 -0.000201429)
(0.0171293 -0.000321194 -0.000201016)
(0.0181756 -6.07032e-05 -0.000241293)
(0.0195474 -0.000101741 -0.000217036)
(0.0208051 0.000185881 -0.000247374)
(0.0223064 0.000759444 -0.000291034)
(0.0237686 -0.000345913 -0.00014642)
(0.0260144 0.00219669 -0.000357324)
(0.0264681 4.1222e-05 -0.000216208)
(0.0305953 0.00114481 -5.80638e-05)
(0.0295562 0.00249489 -0.000482006)
(0.0347476 0.000527677 -0.000153648)
(0.00460505 0.000154621 -2.03538e-05)
(0.00473955 0.000189301 -2.13689e-05)
(0.00489504 0.000231802 -2.24256e-05)
(0.00507732 0.00028284 -2.35718e-05)
(0.00529321 0.000342597 -2.50098e-05)
(0.0055495 0.00040968 -2.70489e-05)
(0.00585167 0.000480596 -3.01018e-05)
(0.00620121 0.000549241 -3.47305e-05)
(0.00659224 0.000607354 -4.15596e-05)
(0.00700984 0.00064721 -5.08546e-05)
(0.00742944 0.000665253 -6.26185e-05)
(0.0078279 0.000666617 -7.59881e-05)
(0.00820144 0.000657671 -8.98049e-05)
(0.00856094 0.000642564 -0.000103661)
(0.00891823 0.000626306 -0.000117455)
(0.00928774 0.000617328 -0.000131303)
(0.00968532 0.000622479 -0.000144995)
(0.0101278 0.000647034 -0.000158847)
(0.0106279 0.000687989 -0.00017278)
(0.0111924 0.000741892 -0.000187184)
(0.0118261 0.000803556 -0.000202586)
(0.012526 0.000872013 -0.000218977)
(0.0133087 0.000939507 -0.000235449)
(0.0141499 0.0010183 -0.000254329)
(0.0151093 0.00107283 -0.000269497)
(0.0160641 0.00119576 -0.000294911)
(0.017241 0.00118648 -0.000298679)
(0.0182944 0.00146451 -0.000337388)
(0.0196774 0.00136762 -0.000334666)
(0.0210239 0.00155747 -0.000311145)
(0.0223649 0.00232352 -0.000499317)
(0.0243014 0.000585285 -0.000103156)
(0.0254633 0.00375143 -0.000722748)
(0.0282972 0.00120924 -0.000203035)
(0.0286839 0.00182346 -0.000292047)
(0.0322055 0.00387173 -0.000566158)
(0.033402 0.00176247 -0.000678068)
(0.0045432 0.000116189 -1.57031e-05)
(0.00468179 0.000138024 -1.66019e-05)
(0.00484092 0.00016403 -1.7604e-05)
(0.00502416 0.000193609 -1.87483e-05)
(0.00523478 0.000224712 -2.00377e-05)
(0.00547575 0.000253734 -2.15585e-05)
(0.00574919 0.000274926 -2.34601e-05)
(0.0060549 0.000280556 -2.58802e-05)
(0.00638965 0.000262324 -2.89602e-05)
(0.00674717 0.000214416 -3.27503e-05)
(0.00711924 0.000136983 -3.7257e-05)
(0.00749879 4.10343e-05 -4.242e-05)
(0.00788286 -5.69466e-05 -4.82068e-05)
(0.00827231 -0.000145566 -5.45615e-05)
(0.00867057 -0.000217833 -6.13821e-05)
(0.00908394 -0.000268783 -6.8534e-05)
(0.00952108 -0.000297918 -7.60041e-05)
(0.00999271 -0.000306651 -8.375e-05)
(0.0105105 -0.000301197 -9.17139e-05)
(0.0110834 -0.000285278 -9.99788e-05)
(0.011721 -0.000264469 -0.000108466)
(0.0124219 -0.00023671 -0.000117658)
(0.0132078 -0.000209811 -0.000126481)
(0.0140378 -0.000165812 -0.000138353)
(0.0150198 -0.000157373 -0.000143106)
(0.0159114 -4.75193e-05 -0.000167025)
(0.0172488 -0.000147869 -0.000144264)
(0.0179687 0.000167355 -0.000212089)
(0.0200199 -3.58394e-05 -0.000141592)
(0.020347 -5.30055e-05 -0.000173132)
(0.0227349 0.00133006 -0.000362857)
(0.0244238 -0.00183406 0.000230347)
(0.0235362 0.00314333 -0.000826323)
(0.0306441 -0.000958459 0.000127344)
(0.0263495 0.000114459 -7.41919e-05)
(0.0319373 0.00236274 -0.000933447)
(0.0349249 -0.00020414 -0.000352392)
(0.00415857 5.21033e-05 -4.445e-06)
(0.00429356 6.022e-05 -4.71595e-06)
(0.00444881 6.97782e-05 -5.11384e-06)
(0.00462815 8.08289e-05 -5.68049e-06)
(0.00483564 9.36908e-05 -6.56478e-06)
(0.00507473 0.000109366 -7.9243e-06)
(0.00534716 0.000128769 -9.92569e-06)
(0.0056521 0.000152561 -1.27929e-05)
(0.00598537 0.000181018 -1.67107e-05)
(0.00633951 0.000213867 -2.17583e-05)
(0.0067049 0.000250209 -2.79137e-05)
(0.00707281 0.000288287 -3.49629e-05)
(0.00743968 0.000325359 -4.25779e-05)
(0.00780784 0.000358935 -5.05025e-05)
(0.00818333 0.000387799 -5.85717e-05)
(0.00857479 0.000412327 -6.67173e-05)
(0.00899222 0.000433849 -7.4944e-05)
(0.00944653 0.000454121 -8.32628e-05)
(0.00994858 0.000474633 -9.17205e-05)
(0.010506 0.000496166 -0.000100408)
(0.0111282 0.00051872 -0.000109444)
(0.0118118 0.00054288 -0.00011886)
(0.0125834 0.000566182 -0.000128242)
(0.0133884 0.00059499 -0.000139292)
(0.0143758 0.000612869 -0.000143649)
(0.0151829 0.000662255 -0.000173703)
(0.016697 0.000646918 -0.000112776)
(0.0168472 0.000754635 -0.000314623)
(0.0202385 0.00071944 0.000143496)
(0.0174476 0.000623469 -0.000729081)
(0.0253393 0.00142525 0.000523211)
(0.0190678 -0.000542944 -0.000767577)
(0.0261601 0.00313472 -9.61357e-05)
(0.0289494 -0.000923983 -0.000135059)
(0.0243424 0.0018366 0.000674055)
(0.0285403 0.00183742 -0.00237436)
(0.0420119 0.000817951 0.0013341)
(0.00423681 2.82711e-05 2.30526e-05)
(0.00412673 6.13386e-05 5.41926e-05)
(0.00388846 0.00012913 0.000112904)
(0.00340627 0.000274954 0.000230845)
(0.00244792 0.00060556 0.000490641)
(0.00045201 0.00138634 0.00110144)
(-0.00392638 0.0034487 0.00280693)
(-0.0136018 0.00959621 0.00751652)
(-0.0417418 0.0171254 0.0113245)
(-0.0883376 0.00200114 0.00580899)
(-0.0913845 -0.022763 -0.00275593)
(-0.0666418 -0.0230718 -0.00151389)
(-0.0599648 -0.0112121 0.00347764)
(-0.0643855 -0.00657312 0.00101318)
(-0.0619484 -0.00775606 -0.00290171)
(-0.0521527 -0.00844031 -0.000901745)
(-0.0451278 -0.00823781 0.00118164)
(-0.044015 -0.00623814 -0.00138958)
(-0.0446733 -0.00327839 -0.00302326)
(-0.0431725 -0.00278222 -0.000962565)
(-0.039937 -0.00420959 -0.000151843)
(-0.0378655 -0.00371555 -0.00186912)
(-0.0359273 -0.00148703 -0.00179113)
(-0.0334726 -0.000715491 -0.000801666)
(-0.0304998 -0.00103959 -0.00210206)
(-0.0281334 0.000340223 -0.00330675)
(-0.0272559 0.00141267 -0.00286055)
(-0.0253458 0.000146823 -0.00252384)
(-0.0223177 -0.00262953 -0.0019422)
(-0.0190517 -0.00681586 -0.000697126)
(-0.015372 -0.0101965 -0.000407168)
(-0.0149472 -0.00815038 -0.00242424)
(-0.0110162 0.00240991 -0.0071022)
(-0.0175368 0.00851922 -0.00459881)
(-0.025989 0.00232217 -0.000185977)
(-0.0208695 -0.00521213 0.00348139)
(-0.0179108 -0.00388146 0.00473017)
(0.0045775 8.67686e-05 -1.01114e-05)
(0.00451787 0.000154397 1.28052e-05)
(0.00438563 0.000273843 5.40229e-05)
(0.00414151 0.000496033 0.000128968)
(0.00373449 0.000936195 0.000268136)
(0.0030961 0.0018478 0.000530176)
(0.002313 0.0038676 0.00103933)
(0.00164843 0.00837597 0.00204987)
(0.00407148 0.0159599 0.00296207)
(0.00438264 0.0183947 -0.0018873)
(0.00118858 0.0119889 -0.00693707)
(-0.00402437 0.00727596 -0.00455258)
(-0.00636448 0.00660486 -0.000736458)
(-0.00733332 0.00430214 -0.00064951)
(-0.00879926 0.000363435 -0.00281216)
(-0.00785631 -0.00203246 -0.00328228)
(-0.00450292 -0.00218769 -0.00189146)
(-0.00150495 -0.00106443 -0.000770297)
(-0.000717181 0.000462638 -0.00120276)
(-0.000729839 0.00122351 -0.0021165)
(-0.000410842 0.000692265 -0.0017149)
(-0.000765877 -0.000103371 -0.000141192)
(-0.0026517 -0.000478598 0.000516638)
(-0.00460208 -0.00112471 -0.000140476)
(-0.00568408 -0.00137776 -0.000784088)
(-0.00615119 -0.00011727 -0.00148363)
(-0.00512446 0.00124343 -0.00248714)
(-0.00292849 0.00172821 -0.00335293)
(-0.00056296 0.00237428 -0.00383121)
(0.00157964 0.00328428 -0.00317695)
(0.0026252 0.00392346 -0.000136994)
(0.000305938 0.00169046 0.00115762)
(-0.00409068 0.00617216 -0.00235891)
(0.00157727 0.0107331 -0.0068088)
(0.000773091 0.00694801 -0.00538388)
(0.00019209 0.000440458 -0.00316665)
(-0.00139033 -0.00101486 -0.00204443)
(0.00468174 0.000142901 -2.77329e-05)
(0.00465039 0.000232342 -8.8192e-06)
(0.00456084 0.000378462 2.54529e-05)
(0.00438277 0.000622239 8.77334e-05)
(0.00407876 0.00103562 0.000201137)
(0.00361789 0.00173739 0.000408669)
(0.00306275 0.00293491 0.000783536)
(0.00266779 0.00481003 0.00141778)
(0.00373689 0.00745131 0.00230433)
(0.00668553 0.00542653 0.00257345)
(0.00853812 -0.00206737 0.00263954)
(0.00845342 -0.0048209 0.00316079)
(0.00844578 -0.0038985 0.00298061)
(0.00917661 -0.00390711 0.00194169)
(0.00939174 -0.00474931 0.000914905)
(0.00882466 -0.00503846 0.000776424)
(0.00774948 -0.0046014 0.0014193)
(0.00664407 -0.00364155 0.00220042)
(0.00590218 -0.0023557 0.00252717)
(0.00572812 -0.00175391 0.0021407)
(0.00591666 -0.00185752 0.00156218)
(0.00590176 -0.00135198 0.00157759)
(0.0053397 -0.000313674 0.00215035)
(0.00383828 -0.000133243 0.002604)
(0.00127783 -0.000872716 0.00235642)
(-0.0012035 -0.00142767 0.00132505)
(-0.0017696 -0.00188563 0.000444181)
(-0.000659897 -0.00272137 0.000285247)
(0.00108906 -0.00326225 0.000352295)
(0.00312995 -0.00226924 5.57552e-05)
(0.00557169 0.0010003 -0.000833646)
(0.00796579 0.00424783 -0.00122669)
(0.00675164 0.00538655 -0.00174077)
(0.0116565 0.00877338 -0.00539596)
(0.0146002 0.00690799 -0.00656919)
(0.0179782 0.00225391 -0.00644401)
(0.018089 0.000422058 -0.00554227)
(0.0047724 0.000184884 -3.98471e-05)
(0.00479521 0.000284681 -2.79785e-05)
(0.00480353 0.000439927 -7.71814e-06)
(0.00480149 0.000684187 2.55917e-05)
(0.0048061 0.00107155 7.83173e-05)
(0.00486389 0.00168374 0.000159016)
(0.00510349 0.00262992 0.000276628)
(0.00576423 0.003975 0.000409621)
(0.00739557 0.00566034 0.000480999)
(0.0102118 0.00644268 5.39043e-05)
(0.0116984 0.00544803 -0.000688821)
(0.0107937 0.00431899 -0.000614723)
(0.0101062 0.00362074 -0.000224602)
(0.0101919 0.0025577 -0.000181009)
(0.0100424 0.00116931 -0.0004547)
(0.00966448 0.000233025 -0.000674597)
(0.00943949 3.32068e-05 -0.000655222)
(0.00957457 0.000213561 -0.000401519)
(0.0100636 0.000466325 4.99171e-05)
(0.0108427 0.000552037 0.000357529)
(0.0115482 0.000540021 0.000459095)
(0.0120416 0.000698738 0.000588073)
(0.0126742 0.00108919 0.000779935)
(0.0135495 0.00138109 0.000738763)
(0.0142761 0.00119737 0.000458515)
(0.0146058 0.000686576 0.000279428)
(0.0147702 0.000247461 0.000459831)
(0.0146775 0.000150664 0.00105864)
(0.0141918 0.000164435 0.00234893)
(0.0130719 1.60988e-05 0.00386102)
(0.0112346 -0.000278962 0.00391241)
(0.0109118 0.000925872 0.00250554)
(0.0115799 0.0023035 0.000573153)
(0.0149299 0.00474128 -0.00216019)
(0.0195172 0.00509972 -0.00357404)
(0.0224632 0.00377766 -0.00356636)
(0.0247208 0.00355403 -0.00300271)
(0.00484547 0.000206907 -4.7333e-05)
(0.00489595 0.000300536 -3.88849e-05)
(0.00493763 0.000435835 -2.36235e-05)
(0.00497122 0.000630112 2.30218e-06)
(0.00500495 0.000904228 4.41326e-05)
(0.00506282 0.00127905 0.000108747)
(0.00520341 0.00176156 0.000203857)
(0.00553089 0.00228711 0.00032932)
(0.00621584 0.00266435 0.000468925)
(0.00733282 0.00223175 0.000549729)
(0.00840487 0.0004821 0.000557598)
(0.00907533 -0.000775874 0.000549926)
(0.00964573 -0.00116338 0.000467276)
(0.010248 -0.00153123 0.000300408)
(0.0106449 -0.00190728 0.000119738)
(0.0107265 -0.00206407 6.26383e-06)
(0.0107039 -0.00196718 -1.96408e-05)
(0.0108349 -0.00169375 -3.14433e-05)
(0.0111851 -0.0013079 -5.95833e-05)
(0.0117152 -0.00101471 -0.000100922)
(0.0123302 -0.000867883 -0.000162888)
(0.0129851 -0.000660017 -0.000199542)
(0.0137548 -0.000382197 -0.000184167)
(0.0146993 -0.000248905 -0.000164948)
(0.0157571 -0.000363467 -0.000204799)
(0.0167467 -0.000440669 -0.000307126)
(0.0176655 -0.000370964 -0.000331562)
(0.0183988 4.0552e-06 -0.000258186)
(0.0193008 0.000599563 8.27157e-05)
(0.0196794 0.00155996 0.000616151)
(0.0202279 0.00121848 0.00189436)
(0.0203394 0.000960167 0.00363779)
(0.0204729 -0.000411862 0.00420044)
(0.0200127 -0.000111831 0.00241254)
(0.0216842 0.00105383 0.000346185)
(0.0226907 0.000197415 -0.000376331)
(0.0254451 6.56898e-05 -0.000985904)
(0.00491886 0.000215789 -5.34306e-05)
(0.00500527 0.000302996 -4.93074e-05)
(0.00510428 0.000426036 -4.22475e-05)
(0.00522711 0.000598204 -3.15095e-05)
(0.00539358 0.000834853 -1.65315e-05)
(0.00563714 0.00115015 2.32673e-06)
(0.00600992 0.00154886 2.1718e-05)
(0.00657933 0.00200387 3.11872e-05)
(0.00739849 0.00243412 8.48186e-06)
(0.00843904 0.00264966 -8.38494e-05)
(0.00928233 0.00249206 -0.000254993)
(0.00960365 0.00219596 -0.000358796)
(0.00973982 0.00188181 -0.000376004)
(0.00991987 0.00148474 -0.000403553)
(0.0100624 0.00100937 -0.000455338)
(0.0101897 0.000633862 -0.000510454)
(0.010376 0.000461652 -0.00053413)
(0.0106905 0.000447342 -0.000530121)
(0.0111471 0.00050505 -0.000501479)
(0.0117381 0.000581194 -0.000479433)
(0.0124031 0.00065077 -0.000479622)
(0.0131157 0.000745826 -0.000484226)
(0.0139318 0.000865753 -0.000493872)
(0.0148736 0.000963807 -0.00052175)
(0.0158616 0.000972681 -0.000579812)
(0.0168162 0.000930607 -0.000636396)
(0.0177769 0.000900293 -0.000639833)
(0.0187342 0.00102716 -0.000605191)
(0.0199003 0.00123264 -0.000429563)
(0.0211173 0.00177836 -0.000281261)
(0.0228422 0.0022213 -7.48077e-05)
(0.0238767 0.0032833 0.000378238)
(0.0257389 0.00333791 0.000800106)
(0.0261501 0.00254336 0.00225242)
(0.0277965 0.00241335 0.00144757)
(0.0291139 0.00215612 0.00154978)
(0.0297732 0.0022312 0.0012185)
(0.00498036 0.000210131 -5.81682e-05)
(0.00508619 0.00028341 -5.66727e-05)
(0.00520466 0.000380103 -5.2844e-05)
(0.00534119 0.000504485 -4.56503e-05)
(0.00550513 0.000658574 -3.4022e-05)
(0.00571151 0.000838172 -1.71151e-05)
(0.00598225 0.0010254 5.01477e-06)
(0.00634337 0.00117716 2.99408e-05)
(0.00681293 0.00121447 5.21371e-05)
(0.0073781 0.00102934 6.23081e-05)
(0.00795659 0.000538819 5.52732e-05)
(0.00847986 1.42401e-05 3.65187e-05)
(0.00896585 -0.000347771 1.87789e-06)
(0.00943053 -0.000631 -4.83835e-05)
(0.00985205 -0.00084297 -0.000109638)
(0.0102138 -0.000959205 -0.000162644)
(0.0105425 -0.000975759 -0.000209876)
(0.0109168 -0.000911954 -0.000248562)
(0.0113808 -0.000807611 -0.000290839)
(0.0119395 -0.000689498 -0.000333026)
(0.0125852 -0.000592445 -0.000379235)
(0.0133068 -0.000483943 -0.000423895)
(0.0141144 -0.00037227 -0.000465111)
(0.0150103 -0.000273356 -0.000509529)
(0.0159889 -0.000227482 -0.000557545)
(0.017005 -0.000155699 -0.000616904)
(0.0180758 -5.8346e-05 -0.000652654)
(0.0191665 0.000174793 -0.000696267)
(0.0203555 0.000453067 -0.000671087)
(0.0216656 0.000833494 -0.000607251)
(0.0229857 0.00120257 -0.000611896)
(0.0246912 0.00127954 -0.000104771)
(0.0263659 0.00200851 -0.000528932)
(0.0285009 0.00200811 0.0002264)
(0.0295123 0.00214502 6.68743e-06)
(0.0321827 0.00253256 -0.000126134)
(0.0325946 0.00209673 0.00093429)
(0.00503321 0.000194926 -6.17859e-05)
(0.00515773 0.000255657 -6.25831e-05)
(0.00530281 0.000334871 -6.26416e-05)
(0.00547734 0.000436497 -6.21719e-05)
(0.00569347 0.000563178 -6.17063e-05)
(0.00596679 0.000714396 -6.2412e-05)
(0.00631475 0.000883357 -6.6563e-05)
(0.00675109 0.00105272 -7.80675e-05)
(0.0072732 0.00119231 -0.00010254)
(0.00785047 0.0012646 -0.000144196)
(0.00839678 0.0012445 -0.000204166)
(0.00883382 0.00116353 -0.000264429)
(0.00918594 0.00105001 -0.000313639)
(0.00950506 0.00091031 -0.000356854)
(0.00980657 0.000756887 -0.000394959)
(0.010117 0.000620025 -0.000432504)
(0.0104667 0.000535696 -0.000467262)
(0.0108827 0.000516172 -0.000495856)
(0.0113783 0.000535766 -0.000522804)
(0.0119555 0.000579961 -0.000549426)
(0.0126091 0.000631529 -0.000582158)
(0.0133344 0.000689929 -0.000617688)
(0.0141443 0.000748354 -0.000656525)
(0.0150344 0.000806679 -0.00070009)
(0.016004 0.000843561 -0.000746065)
(0.017022 0.000898177 -0.000795409)
(0.0181134 0.00092887 -0.00083399)
(0.0192883 0.00107198 -0.000866629)
(0.0204916 0.00116816 -0.000892666)
(0.0220284 0.00142714 -0.000838512)
(0.0232986 0.00171626 -0.000967333)
(0.0251975 0.00185882 -0.000698558)
(0.0268233 0.00241855 -0.000895154)
(0.0284785 0.00234784 -0.000802371)
(0.0309203 0.002491 -0.000261399)
(0.0323338 0.00289279 -0.0012393)
(0.0350428 0.00341912 -0.000103314)
(0.00507286 0.000171091 -6.32741e-05)
(0.00520857 0.000217988 -6.55336e-05)
(0.00536396 0.000276384 -6.74522e-05)
(0.00554337 0.00034616 -6.8819e-05)
(0.00575217 0.000425067 -6.94589e-05)
(0.00599693 0.000506984 -6.94573e-05)
(0.00628434 0.000579777 -6.92835e-05)
(0.00661906 0.000623692 -6.99616e-05)
(0.00700012 0.000612604 -7.30913e-05)
(0.00741792 0.000522934 -8.01606e-05)
(0.00785286 0.000346371 -9.22859e-05)
(0.00828766 0.000129409 -0.000109476)
(0.0087187 -7.25652e-05 -0.000132164)
(0.00914754 -0.000243913 -0.000160274)
(0.00957389 -0.000376054 -0.000192817)
(0.0100021 -0.000457791 -0.000227644)
(0.0104433 -0.000494128 -0.000264213)
(0.0109178 -0.000489747 -0.000300509)
(0.0114451 -0.000461408 -0.000339038)
(0.0120364 -0.000415304 -0.000378117)
(0.0126983 -0.000364131 -0.000418379)
(0.013431 -0.000302531 -0.000460952)
(0.0142444 -0.00023901 -0.000504837)
(0.0151269 -0.00016731 -0.000554179)
(0.0161054 -0.000113544 -0.000599481)
(0.0171229 -1.57821e-05 -0.000659305)
(0.0182693 2.9819e-05 -0.000691665)
(0.019436 0.000232447 -0.000762612)
(0.0207188 0.000299054 -0.000777554)
(0.0222069 0.000518533 -0.00080273)
(0.0235042 0.00093121 -0.000921788)
(0.0253546 0.000445692 -0.00071025)
(0.0271061 0.00184637 -0.00102206)
(0.0285193 0.000706269 -0.00085086)
(0.0313289 0.00175135 -0.000705399)
(0.0323266 0.00181032 -0.00122396)
(0.0352545 0.00164443 -0.000757929)
(0.00509364 0.000138902 -6.09907e-05)
(0.00523774 0.000172761 -6.40217e-05)
(0.0054034 0.000214489 -6.71572e-05)
(0.0055964 0.000264782 -7.05906e-05)
(0.00582351 0.000323807 -7.48867e-05)
(0.00609148 0.000390097 -8.08778e-05)
(0.00640568 0.000460031 -8.96984e-05)
(0.00676758 0.000527322 -0.000102874)
(0.00717158 0.000583432 -0.000122027)
(0.00760327 0.000620096 -0.00014796)
(0.00803887 0.000632984 -0.000180631)
(0.00845618 0.000626517 -0.000217542)
(0.0088516 0.000607147 -0.000255481)
(0.0092356 0.000579319 -0.000293248)
(0.00961963 0.00054822 -0.000330573)
(0.0100178 0.000522157 -0.000367509)
(0.0104454 0.000508365 -0.000403987)
(0.0109187 0.000512114 -0.000440374)
(0.0114503 0.000530513 -0.000477122)
(0.0120467 0.000560341 -0.000515145)