/*--------------------------------*- C++ -*----------------------------------*\
| =========                 |                                                 |
| \\      /  F ield         | OpenFOAM: The Open Source CFD Toolbox           |
|  \\    /   O peration     | Version:  2.3.1                                 |
|   \\  /    A nd           | Web:      www.OpenFOAM.org                      |
|    \\/     M anipulation  |                                                 |
\*---------------------------------------------------------------------------*/
FoamFile
{
    version     2.0;
    format      ascii;
    class       volVectorField;
    location    "20";
    object      U_0;
}
// * * * * * * * * * * * * * * * * * * * * * * * * * * * * * * * * * * * * * //

dimensions      [0 1 -1 0 0 0 0];

internalField   nonuniform List<vector> 
37530
(
(0.00361018 1.55277e-05 1.25894e-05)
(0.00348386 4.84006e-05 2.38093e-05)
(0.00322165 0.000117565 4.48014e-05)
(0.00269623 0.000269367 8.69677e-05)
(0.00164851 0.000621071 0.000181041)
(-0.000587664 0.00146967 0.000400482)
(-0.0056391 0.00382689 0.00102141)
(-0.017606 0.0106607 0.00235058)
(-0.0495911 0.0159939 0.00325158)
(-0.0906433 -0.00475428 0.00260859)
(-0.0860339 -0.0316807 0.000456743)
(-0.0648174 -0.027019 0.000799085)
(-0.0718555 -0.00972774 0.00150949)
(-0.0828298 -0.00679928 -0.000807534)
(-0.073751 -0.0111879 -0.00214599)
(-0.0625572 -0.00927037 -0.000477167)
(-0.0634959 -0.00524196 -0.000663338)
(-0.0619727 -0.00505754 -0.00264418)
(-0.0541874 -0.0059454 -0.00143725)
(-0.0528615 -0.00543076 0.000889242)
(-0.0560442 -0.00460382 -0.000161805)
(-0.0527358 -0.00374452 -0.00160629)
(-0.047705 -0.00266715 -0.00033741)
(-0.0478995 -0.00263414 -0.000107268)
(-0.0447588 -0.00340492 -0.00170157)
(-0.03872 -0.00324359 -0.00158005)
(-0.0372328 -0.00394631 -0.0004894)
(-0.0350224 -0.00606396 -0.000518121)
(-0.031495 -0.00766363 -0.000580045)
(-0.0302246 -0.00731859 -0.000451086)
(-0.0298544 -0.00179363 -0.00142095)
(-0.0301491 0.00854412 -0.00393645)
(-0.027032 0.0149945 -0.00535688)
(-0.0310272 0.00260176 -0.000757651)
(-0.0254871 -0.0116406 0.00151407)
(-0.0189218 -0.0108705 0.00255686)
(-0.0219908 -0.00418118 0.00304744)
(0.00405281 6.69411e-05 -1.68104e-06)
(0.0039802 0.000134107 6.53019e-06)
(0.00383115 0.000254957 2.1141e-05)
(0.00356303 0.000483832 4.77964e-05)
(0.00311883 0.000946766 9.76183e-05)
(0.00241907 0.00192348 0.000191491)
(0.00153432 0.00415342 0.000372032)
(0.000885759 0.00919123 0.000724823)
(0.00318073 0.017334 0.000704089)
(0.00384669 0.0198467 -0.000992115)
(0.00199478 0.0158609 -0.00279762)
(-0.00510493 0.0147565 -0.00197999)
(-0.0100035 0.0139443 -0.000450754)
(-0.0120764 0.00959934 -0.000669199)
(-0.0122828 0.00420429 -0.00156115)
(-0.0106144 0.0020345 -0.00115623)
(-0.00869358 0.00308479 2.26018e-05)
(-0.00840123 0.00529384 -7.50643e-05)
(-0.00966457 0.00683353 -0.00132121)
(-0.00949759 0.00671506 -0.0020491)
(-0.0085551 0.00533262 -0.00133956)
(-0.00998363 0.00370452 -0.000407675)
(-0.0140963 0.00219552 -0.000376745)
(-0.0167508 0.00145592 -0.000882622)
(-0.0170533 0.00310676 -0.00137273)
(-0.0161331 0.00577176 -0.00187179)
(-0.0131798 0.00690098 -0.00235103)
(-0.00966226 0.00720783 -0.00269262)
(-0.00730027 0.00818881 -0.0027932)
(-0.00724845 0.00817858 -0.00140694)
(-0.0138361 0.00483215 0.00216374)
(-0.0270654 0.00257698 0.00204183)
(-0.0251094 0.00971354 -0.0023235)
(-0.0107858 0.0060513 -0.00567633)
(-0.00540102 -0.00160331 -0.00441267)
(-0.00582677 -0.00511777 -0.0014207)
(-0.00672107 -0.00611839 -0.000675713)
(0.00419132 0.00012735 -9.01188e-06)
(0.00414769 0.000216476 -2.24003e-06)
(0.00404221 0.000363575 9.99833e-06)
(0.00384128 0.000611487 3.2216e-05)
(0.00350131 0.00103633 7.3071e-05)
(0.00298091 0.00176544 0.00014851)
(0.00233079 0.00302464 0.000286135)
(0.00181859 0.00503362 0.000520055)
(0.00282577 0.00766722 0.000822501)
(0.00557686 0.00496002 0.000863685)
(0.00718212 -0.0027463 0.00101922)
(0.00691681 -0.00412929 0.00140157)
(0.00664968 -0.00183752 0.00138748)
(0.0070682 -0.00189029 0.000936917)
(0.00710154 -0.00367181 0.00050298)
(0.00649908 -0.00451712 0.000545811)
(0.00519134 -0.00388362 0.000884125)
(0.00359834 -0.00230387 0.00127384)
(0.00184955 0.000121903 0.00137569)
(0.000528292 0.00160194 0.00101933)
(0.00013119 0.0017534 0.00071172)
(-0.000655449 0.00221921 0.000845143)
(-0.00340334 0.00300402 0.00120469)
(-0.00890474 0.00228111 0.0012935)
(-0.0145752 0.000504267 0.000722557)
(-0.0160106 -0.000301375 6.46832e-05)
(-0.0139518 -0.000295467 0.000136979)
(-0.0121367 0.000528656 0.000418939)
(-0.0102213 0.0031278 4.96575e-05)
(-0.00667093 0.00715874 -0.000876107)
(-0.00274985 0.0110382 -0.00157277)
(-0.0031538 0.0117731 -0.00128171)
(-0.00791722 0.0108942 -0.00169824)
(-0.000924772 0.00957537 -0.00445983)
(0.00512937 0.00373666 -0.00451511)
(0.00937289 -0.000531128 -0.00389069)
(0.011866 -0.0005157 -0.00324454)
(0.0043001 0.00017517 -1.3253e-05)
(0.00431276 0.000275018 -9.04535e-06)
(0.00430978 0.000431474 -1.8803e-06)
(0.00429524 0.000679602 9.85085e-06)
(0.0042864 0.00107688 2.84666e-05)
(0.00433086 0.00171184 5.71198e-05)
(0.00456416 0.00270606 9.91819e-05)
(0.0052453 0.00414225 0.000146811)
(0.00697491 0.00596693 0.000165977)
(0.00990407 0.00688034 9.45585e-06)
(0.0112854 0.00619953 -0.000220691)
(0.0101559 0.00549094 -8.2945e-05)
(0.00942739 0.00494318 0.000160981)
(0.00959029 0.00374535 0.000195086)
(0.00945915 0.00213915 5.7355e-05)
(0.00900544 0.00117812 -5.5844e-05)
(0.00865374 0.00109096 -3.00553e-05)
(0.00869069 0.00141257 0.000113453)
(0.00901484 0.00177523 0.000408679)
(0.00946773 0.0020141 0.00061312)
(0.00986286 0.00202705 0.000674938)
(0.0100512 0.00221809 0.000726612)
(0.010274 0.00280879 0.000812441)
(0.0104031 0.00334221 0.000783149)
(0.0101134 0.00324011 0.000606039)
(0.00950587 0.00265337 0.000479331)
(0.00882833 0.00224814 0.000635129)
(0.0072511 0.00243692 0.00123871)
(0.00411453 0.00271058 0.00244015)
(-0.00154824 0.00348926 0.00292413)
(-0.00608179 0.00705579 0.00118885)
(-0.00367155 0.0119498 -0.000561503)
(-0.000770178 0.01352 -0.00163926)
(0.00513883 0.0132288 -0.00321074)
(0.0111253 0.0103042 -0.00332323)
(0.0144344 0.00882123 -0.00286733)
(0.0172329 0.00874373 -0.00232653)
(0.0043818 0.000202188 -1.55272e-05)
(0.00442223 0.000295606 -1.2479e-05)
(0.00445221 0.000431103 -6.98871e-06)
(0.0044717 0.000626364 2.34762e-06)
(0.00448774 0.000902765 1.73516e-05)
(0.00452268 0.00128188 4.07304e-05)
(0.00463446 0.00177124 7.56882e-05)
(0.00492883 0.00230153 0.000122654)
(0.00558456 0.00266196 0.000176249)
(0.00667178 0.00212203 0.000213007)
(0.00770229 0.000222858 0.000235018)
(0.00835122 -0.00102203 0.000259468)
(0.00892924 -0.00134291 0.000249261)
(0.00953661 -0.00174382 0.000195898)
(0.00991067 -0.00223601 0.000127636)
(0.00994731 -0.00248808 8.48778e-05)
(0.00987124 -0.00239685 8.2743e-05)
(0.00994922 -0.00206164 8.95854e-05)
(0.0102463 -0.00156789 9.3917e-05)
(0.0107221 -0.00119037 0.000103697)
(0.0112854 -0.00104021 9.31446e-05)
(0.0118728 -0.000825619 8.65637e-05)
(0.0125616 -0.000513117 0.000113964)
(0.0134108 -0.00037923 0.000152026)
(0.0143565 -0.000564851 0.00016417)
(0.0151859 -0.000716357 0.000137308)
(0.0159444 -0.000618216 0.000160249)
(0.0163291 -6.37017e-06 0.000254075)
(0.016703 0.0010578 0.000489379)
(0.0158535 0.00230228 0.000948911)
(0.0139765 0.00262797 0.00218831)
(0.0100399 0.00347365 0.00335276)
(0.00446948 0.00583049 0.00230789)
(0.00394643 0.00961232 -0.000344641)
(0.00753954 0.00918349 -0.00122406)
(0.00943314 0.0070348 -0.00125557)
(0.0135674 0.00812312 -0.00173031)
(0.00445906 0.000214972 -1.73796e-05)
(0.00453631 0.000302193 -1.58461e-05)
(0.00462568 0.000425681 -1.33008e-05)
(0.00473864 0.000599218 -9.50777e-06)
(0.00489561 0.000838923 -4.28562e-06)
(0.00513124 0.00116029 2.19622e-06)
(0.00550019 0.0015701 8.83826e-06)
(0.0060741 0.00204286 1.17115e-05)
(0.00691036 0.00249809 2.32173e-06)
(0.00797766 0.00274134 -3.17914e-05)
(0.00882545 0.00262681 -9.2426e-05)
(0.00911636 0.00239673 -0.000122871)
(0.00922329 0.00213729 -0.000120381)
(0.00938424 0.00177363 -0.000127295)
(0.00949609 0.00132257 -0.000149185)
(0.00957931 0.000981422 -0.000174357)
(0.00971332 0.000850573 -0.000183215)
(0.00999104 0.000881314 -0.000178185)
(0.0104241 0.000967702 -0.000159337)
(0.0110008 0.00107773 -0.00014115)
(0.0116485 0.00118489 -0.000132678)
(0.0123244 0.00131924 -0.000127544)
(0.0131032 0.00147819 -0.000125106)
(0.0140171 0.00161037 -0.00012898)
(0.014973 0.00164422 -0.00014629)
(0.0158782 0.0016336 -0.000167413)
(0.0167759 0.0016287 -0.000155826)
(0.0175984 0.00185895 -0.000122576)
(0.0187209 0.00211301 1.09925e-05)
(0.0196326 0.00296453 9.30425e-05)
(0.0212502 0.00357719 0.000369669)
(0.0212431 0.00567165 0.000768087)
(0.0218744 0.00543835 0.00183845)
(0.0189804 0.00643751 0.00257565)
(0.0188883 0.0070576 0.00174648)
(0.0178727 0.00636736 0.00190733)
(0.0158477 0.00882354 0.000723716)
(0.00452062 0.00021266 -1.89651e-05)
(0.0046172 0.000285877 -1.83592e-05)
(0.00472553 0.000382455 -1.69177e-05)
(0.00485074 0.00050663 -1.42538e-05)
(0.00500182 0.000660271 -9.9596e-06)
(0.00519333 0.000838766 -3.67732e-06)
(0.0054468 0.00102327 4.65097e-06)
(0.00578783 0.00116822 1.42644e-05)
(0.00623411 0.00118965 2.34351e-05)
(0.0067714 0.000971765 2.91727e-05)
(0.00731613 0.000428771 3.02151e-05)
(0.00780516 -0.000142567 2.80922e-05)
(0.00826132 -0.000538092 1.97167e-05)
(0.00869879 -0.000857769 4.99251e-06)
(0.00908938 -0.00111037 -1.48216e-05)
(0.00941877 -0.00126184 -3.05166e-05)
(0.00971369 -0.00130445 -4.47961e-05)
(0.0100525 -0.00125194 -5.54452e-05)
(0.0104802 -0.00116207 -6.90316e-05)
(0.0110022 -0.00105511 -8.2185e-05)
(0.0116125 -0.000985327 -9.78531e-05)
(0.0123012 -0.000900048 -0.000111896)
(0.013078 -0.000812569 -0.000124163)
(0.0139381 -0.000736277 -0.000138389)
(0.0148809 -0.000728473 -0.000152252)
(0.0158441 -0.000681916 -0.000173471)
(0.0168962 -0.000625023 -0.000176679)
(0.0178792 -0.000361717 -0.000198883)
(0.0191383 -7.90981e-05 -0.000165332)
(0.0201862 0.000402276 -0.00013816)
(0.0216865 0.000826151 -0.00012931)
(0.0231156 0.00101079 0.000229476)
(0.0244127 0.00247138 -4.63675e-05)
(0.0273562 0.00193449 0.000763349)
(0.0251859 0.00401958 0.000659949)
(0.0308917 0.00272674 0.000845114)
(0.025484 0.00428184 0.00148649)
(0.00457011 0.000201086 -2.03689e-05)
(0.00468551 0.000261952 -2.05764e-05)
(0.00482097 0.000341338 -2.05282e-05)
(0.00498554 0.000443316 -2.03065e-05)
(0.00519163 0.000570713 -2.01071e-05)
(0.00545529 0.000723283 -2.03601e-05)
(0.00579473 0.000894604 -2.19014e-05)
(0.00622455 0.0010677 -2.61703e-05)
(0.00674233 0.00121287 -3.53093e-05)
(0.00731638 0.00129309 -5.07894e-05)
(0.00785608 0.00128544 -7.29535e-05)
(0.00827892 0.00122374 -9.49439e-05)
(0.00861123 0.00113303 -0.000112706)
(0.0089067 0.00101729 -0.000128676)
(0.0091813 0.000887897 -0.000142498)
(0.00946277 0.000778814 -0.000156937)
(0.00978079 0.000722919 -0.00017021)
(0.010166 0.000733687 -0.000180483)
(0.010633 0.000784693 -0.000190667)
(0.0111829 0.000861148 -0.000199872)
(0.0118079 0.000947688 -0.000211767)
(0.0124993 0.00104197 -0.000224621)
(0.0132741 0.00113364 -0.000238723)
(0.0141281 0.00122417 -0.000254522)
(0.0150618 0.00128875 -0.000270862)
(0.0160384 0.0013856 -0.000288664)
(0.0170834 0.00143249 -0.000301715)
(0.0182222 0.0016505 -0.000311057)
(0.0193108 0.00172995 -0.000323923)
(0.0209574 0.00207409 -0.000269624)
(0.0218202 0.00243248 -0.000376249)
(0.0242329 0.00252344 -0.000141521)
(0.0250182 0.00320536 -0.000266026)
(0.0273049 0.00349772 -0.000299464)
(0.0293709 0.0028437 0.000474421)
(0.0300056 0.00432675 -0.00067017)
(0.0343383 0.00458923 0.000724044)
(0.00460138 0.000181844 -2.11329e-05)
(0.00472778 0.000229163 -2.18769e-05)
(0.0048732 0.000287873 -2.25048e-05)
(0.00504184 0.000357756 -2.29187e-05)
(0.00523885 0.000436402 -2.30293e-05)
(0.00547052 0.000517375 -2.28447e-05)
(0.00574324 0.00058798 -2.25002e-05)
(0.00606124 0.00062754 -2.23184e-05)
(0.00642298 0.000608536 -2.28209e-05)
(0.00681831 0.000506094 -2.44372e-05)
(0.00722755 0.000311256 -2.74473e-05)
(0.00763446 7.34807e-05 -3.1903e-05)
(0.00803666 -0.000148997 -3.81436e-05)
(0.00843603 -0.000340594 -4.62201e-05)
(0.00883194 -0.000491745 -5.57869e-05)
(0.00922908 -0.000591579 -6.59609e-05)
(0.00963858 -0.000644974 -7.70603e-05)
(0.0100805 -0.000655059 -8.80775e-05)
(0.0105744 -0.000642225 -9.96512e-05)
(0.0111317 -0.000611856 -0.000111616)
(0.0117593 -0.000579642 -0.000123822)
(0.0124575 -0.000536537 -0.000136838)
(0.0132372 -0.000492258 -0.000150041)
(0.0140801 -0.000437105 -0.000166038)
(0.0150277 -0.000408602 -0.000178404)
(0.0159856 -0.000314363 -0.000201445)
(0.0171312 -0.00032159 -0.000201045)
(0.0181776 -6.12412e-05 -0.000241321)
(0.0195497 -0.000102468 -0.000217052)
(0.0208073 0.0001855 -0.000247475)
(0.0223089 0.000757711 -0.000290991)
(0.0237716 -0.000346283 -0.000146553)
(0.0260165 0.00219534 -0.000357514)
(0.0264718 3.76506e-05 -0.000215978)
(0.0305975 0.00114441 -5.84927e-05)
(0.029559 0.00249089 -0.000482294)
(0.0347506 0.00052363 -0.000153154)
(0.00460538 0.000154535 -2.03632e-05)
(0.00473988 0.000189194 -2.13792e-05)
(0.00489535 0.000231672 -2.24366e-05)
(0.0050776 0.000282686 -2.3583e-05)
(0.00529343 0.000342421 -2.50202e-05)
(0.00554965 0.000409491 -2.70572e-05)
(0.00585176 0.000480411 -3.01064e-05)
(0.00620125 0.000549089 -3.47293e-05)
(0.00659229 0.000607265 -4.15514e-05)
(0.00700999 0.000647202 -5.08396e-05)
(0.00742979 0.000665313 -6.25982e-05)
(0.00782851 0.000666707 -7.59676e-05)
(0.0082023 0.000657764 -8.97875e-05)
(0.008562 0.000642648 -0.000103648)
(0.00891943 0.000626369 -0.000117446)
(0.00928906 0.000617361 -0.000131298)
(0.0096867 0.000622479 -0.000144998)
(0.0101292 0.000647005 -0.000158852)
(0.0106294 0.000687945 -0.000172789)
(0.0111939 0.000741844 -0.000187197)
(0.0118276 0.000803512 -0.000202602)
(0.0125276 0.000871972 -0.000218997)
(0.0133103 0.000939471 -0.000235473)
(0.0141516 0.00101825 -0.000254356)
(0.0151111 0.0010728 -0.000269531)
(0.0160659 0.00119568 -0.000294945)
(0.0172429 0.00118645 -0.000298729)
(0.0182964 0.00146437 -0.000337445)
(0.0196797 0.00136728 -0.000334685)
(0.0210259 0.00155774 -0.000311335)
(0.0223676 0.00232208 -0.000499219)
(0.0243036 0.000585668 -0.000103366)
(0.0254659 0.00375104 -0.000722981)
(0.0282995 0.00120584 -0.000202637)
(0.0286857 0.00182417 -0.000292629)
(0.0322092 0.00386969 -0.000566778)
(0.0334037 0.00176048 -0.000677003)
(0.00454352 0.000116139 -1.57119e-05)
(0.00468212 0.000137964 -1.66112e-05)
(0.00484123 0.00016396 -1.76138e-05)
(0.00502445 0.000193536 -1.87584e-05)
(0.00523506 0.000224648 -2.00485e-05)
(0.00547602 0.000253697 -2.15693e-05)
(0.00574944 0.000274943 -2.34707e-05)
(0.00605516 0.000280658 -2.58903e-05)
(0.00638994 0.000262535 -2.89698e-05)
(0.00674754 0.000214742 -3.27597e-05)
(0.00711971 0.000137403 -3.72664e-05)
(0.0074994 4.14828e-05 -4.243e-05)
(0.00788361 -5.65276e-05 -4.82179e-05)
(0.00827321 -0.00014521 -5.45739e-05)
(0.00867159 -0.00021756 -6.1396e-05)
(0.00908507 -0.000268601 -6.85497e-05)
(0.00952231 -0.000297823 -7.60217e-05)
(0.00999401 -0.000306625 -8.37697e-05)
(0.0105118 -0.000301225 -9.17355e-05)
(0.0110848 -0.000285347 -0.000100002)
(0.0117225 -0.000264567 -0.00010849)
(0.0124234 -0.000236835 -0.000117684)
(0.0132093 -0.000209952 -0.000126509)
(0.0140395 -0.000165987 -0.00013838)
(0.0150215 -0.000157535 -0.000143143)
(0.0159133 -4.77831e-05 -0.000167049)
(0.0172506 -0.000148055 -0.000144319)
(0.0179708 0.000167063 -0.000212121)
(0.0200219 -3.6481e-05 -0.000141602)
(0.0203489 -5.2475e-05 -0.000173367)
(0.0227384 0.00132794 -0.000362589)
(0.0244241 -0.00183339 0.000229971)
(0.0235409 0.00314345 -0.000826471)
(0.0306461 -0.000962664 0.000128181)
(0.0263479 0.000116366 -7.54255e-05)
(0.0319442 0.00236097 -0.00093407)
(0.0349254 -0.000205471 -0.000349611)
(0.00415892 5.20869e-05 -4.4532e-06)
(0.00429391 6.02003e-05 -4.72444e-06)
(0.00444915 6.97551e-05 -5.12249e-06)
(0.00462847 8.08018e-05 -5.68923e-06)
(0.00483594 9.36561e-05 -6.57258e-06)
(0.005075 0.000109318 -7.93119e-06)
(0.00534741 0.000128704 -9.93093e-06)
(0.00565236 0.000152476 -1.27959e-05)
(0.00598566 0.000180914 -1.67113e-05)
(0.00633989 0.000213747 -2.17567e-05)
(0.0067054 0.000250077 -2.79106e-05)
(0.00707346 0.000288153 -3.49596e-05)
(0.0074405 0.000325234 -4.25759e-05)
(0.00780881 0.000358826 -5.05028e-05)
(0.00818443 0.000387713 -5.85749e-05)
(0.00857601 0.000412265 -6.67236e-05)
(0.00899352 0.000433809 -7.49536e-05)
(0.0094479 0.000454099 -8.32757e-05)
(0.00995 0.000474625 -9.17366e-05)
(0.0105075 0.000496168 -0.000100427)
(0.0111298 0.000518731 -0.000109466)
(0.0118133 0.000542897 -0.000118886)
(0.012585 0.000566206 -0.000128273)
(0.0133901 0.000595013 -0.000139325)
(0.0143776 0.000612905 -0.000143697)
(0.0151849 0.000662268 -0.00017372)
(0.0166987 0.000646964 -0.000112908)
(0.0168499 0.000754661 -0.000314503)
(0.0202395 0.000719313 0.000143143)
(0.0174513 0.000623941 -0.000728881)
(0.0253412 0.00142421 0.000523193)
(0.0190674 -0.000541877 -0.00076828)
(0.0261689 0.00313409 -9.55881e-05)
(0.0289463 -0.000925804 -0.000134504)
(0.0243396 0.00183925 0.000671651)
(0.0285576 0.00183596 -0.00237386)
(0.0420044 0.000815776 0.00133896)
(0.0042378 2.81883e-05 2.29476e-05)
(0.00412808 6.11751e-05 5.40211e-05)
(0.00389046 0.000128788 0.000112596)
(0.00340948 0.000274211 0.000230248)
(0.00245354 0.000603834 0.000489308)
(0.000462646 0.00138209 0.00109821)
(-0.00390233 0.00343698 0.00279785)
(-0.0135481 0.00956243 0.007498)
(-0.0415824 0.0171289 0.0113334)
(-0.0882331 0.00210756 0.00584488)
(-0.091489 -0.022708 -0.00274388)
(-0.0667283 -0.0231131 -0.00154007)
(-0.0599757 -0.0112505 0.00347385)
(-0.0643927 -0.00657483 0.00103445)
(-0.0619848 -0.00775149 -0.00289428)
(-0.0521909 -0.0084438 -0.000910416)
(-0.045149 -0.00824535 0.00118244)
(-0.0440288 -0.00624689 -0.00138418)
(-0.04469 -0.00328357 -0.00302662)
(-0.0431934 -0.00278161 -0.000967394)
(-0.039956 -0.0042086 -0.000149028)
(-0.0378831 -0.00371792 -0.00186701)
(-0.0359441 -0.00148947 -0.0017932)
(-0.0334888 -0.000715232 -0.000801468)
(-0.0305158 -0.00104003 -0.00210066)
(-0.0281465 0.000338306 -0.00330796)
(-0.0272679 0.00141316 -0.00286221)
(-0.0253584 0.000149163 -0.0025248)
(-0.0223292 -0.00262742 -0.00194356)
(-0.0190621 -0.00681517 -0.000697781)
(-0.0153807 -0.0102003 -0.000406641)
(-0.0149519 -0.00815827 -0.00242311)
(-0.0110172 0.00240056 -0.0071018)
(-0.0175273 0.00851806 -0.00460005)
(-0.025988 0.00233243 -0.000188385)
(-0.0208654 -0.00521248 0.00347568)
(-0.017886 -0.00388999 0.00472178)
(0.00457837 8.65921e-05 -1.02021e-05)
(0.00451898 0.000154095 1.26672e-05)
(0.00438709 0.000273298 5.38001e-05)
(0.00414348 0.000494998 0.00012859)
(0.00373715 0.000934069 0.000267456)
(0.00309961 0.00184323 0.000528914)
(0.002317 0.00385768 0.00103717)
(0.00164768 0.00835304 0.00204498)
(0.00406103 0.0159361 0.00296784)
(0.00439233 0.0184099 -0.0018646)
(0.00120428 0.0120166 -0.00693632)
(-0.00400538 0.00728323 -0.00456956)
(-0.00636301 0.0066089 -0.000744366)
(-0.00733418 0.00431261 -0.000644157)
(-0.00880101 0.000370274 -0.00280741)
(-0.00786123 -0.00203302 -0.00328526)
(-0.00450903 -0.00218978 -0.00189545)
(-0.00150746 -0.00106607 -0.000770951)
(-0.000716947 0.000461156 -0.00120222)
(-0.000730144 0.00122322 -0.00211694)
(-0.000411037 0.000693527 -0.00171606)
(-0.000764903 -0.00010264 -0.000141757)
(-0.00265112 -0.000478538 0.000517152)
(-0.00460337 -0.00112424 -0.000140031)
(-0.00568601 -0.00137836 -0.000784371)
(-0.00615375 -0.000119148 -0.00148395)
(-0.00512798 0.00124278 -0.00248734)
(-0.00293166 0.00172872 -0.00335355)
(-0.000564701 0.00237478 -0.00383294)
(0.00157888 0.00328486 -0.00318075)
(0.00262692 0.00392464 -0.000141158)
(0.000309318 0.00169239 0.00115881)
(-0.00409119 0.00617096 -0.0023553)
(0.0015802 0.0107285 -0.00680539)
(0.000775201 0.00694284 -0.00538465)
(0.000200635 0.000431668 -0.00317198)
(-0.00137395 -0.00102622 -0.00205166)
(0.00468252 0.000142664 -2.78159e-05)
(0.00465138 0.000231959 -8.94333e-06)
(0.00456212 0.00037783 2.52571e-05)
(0.00438447 0.000621176 8.74094e-05)
(0.004081 0.00103381 0.000200576)
(0.00362071 0.00173433 0.000407689)
(0.00306572 0.00292978 0.000781882)
(0.00266852 0.00480189 0.00141509)
(0.00372914 0.0074456 0.00230215)
(0.00667651 0.00545008 0.00257477)
(0.0085378 -0.00204309 0.00263829)
(0.00845736 -0.00482057 0.00315863)
(0.00844791 -0.00390257 0.00298196)
(0.00917885 -0.00390621 0.00194443)
(0.00939644 -0.00474828 0.000916807)
(0.00882907 -0.00504056 0.000776924)
(0.00775223 -0.00460431 0.0014196)
(0.00664595 -0.00364415 0.00220083)
(0.0059037 -0.00235806 0.00252754)
(0.00572953 -0.00175545 0.00214133)
(0.00591838 -0.00185866 0.00156298)
(0.00590413 -0.00135341 0.00157813)
(0.00534255 -0.000314715 0.0021508)
(0.00384147 -0.000133235 0.0026047)
(0.00128109 -0.000872618 0.00235778)
(-0.00120188 -0.00142802 0.00132646)
(-0.00177013 -0.00188575 0.000444788)
(-0.000661101 -0.00272153 0.000285414)
(0.00108801 -0.00326326 0.000352462)
(0.00312928 -0.00227177 5.59108e-05)
(0.00557237 0.000997443 -0.000833966)
(0.00796832 0.00424891 -0.00122832)
(0.00675711 0.00538846 -0.00174278)
(0.0116633 0.00877177 -0.00539733)
(0.0146088 0.00690332 -0.0065723)
(0.0179897 0.00224379 -0.0064481)
(0.0181052 0.000408676 -0.00554662)
(0.00477304 0.000184617 -3.99136e-05)
(0.00479595 0.000284269 -2.80694e-05)
(0.00480437 0.000439285 -7.84647e-06)
(0.00480239 0.000683174 2.54078e-05)
(0.00480697 0.00106993 7.80517e-05)
(0.00486447 0.00168121 0.000158644)
(0.0051031 0.00262608 0.000276154)
(0.00576161 0.00396974 0.000409179)
(0.00738778 0.00565534 0.000481277)
(0.0102035 0.00644491 5.70411e-05)
(0.0117009 0.00545406 -0.000687345)
(0.0108013 0.00432315 -0.000616471)
(0.0101096 0.00362421 -0.000226091)
(0.0101943 0.00256226 -0.000181116)
(0.0100459 0.00117264 -0.000454563)
(0.00966779 0.000234144 -0.00067496)
(0.00944186 3.33484e-05 -0.000655781)
(0.00957641 0.000213379 -0.00040203)
(0.0100652 0.000466086 4.95004e-05)
(0.0108442 0.000552071 0.000357241)
(0.0115497 0.00054031 0.000458883)
(0.0120433 0.000698908 0.000587874)
(0.0126758 0.0010891 0.000779844)
(0.0135514 0.00138108 0.000738977)
(0.0142785 0.00119776 0.000458765)
(0.0146086 0.000686951 0.000279464)
(0.014773 0.000247707 0.000459705)
(0.0146806 0.000150917 0.00105838)
(0.014195 0.000164631 0.00234853)
(0.0130757 1.58342e-05 0.00386119)
(0.0112382 -0.00028011 0.00391361)
(0.0109144 0.000924132 0.00250664)
(0.0115846 0.00230139 0.000573228)
(0.0149368 0.00473865 -0.00216074)
(0.0195257 0.0050945 -0.00357511)
(0.0224728 0.00376915 -0.003568)
(0.0247318 0.0035427 -0.00300519)
(0.00484603 0.000206653 -4.73905e-05)
(0.0048966 0.00030017 -3.89634e-05)
(0.00493836 0.000435307 -2.37335e-05)
(0.00497203 0.000629357 2.14548e-06)
(0.00500578 0.000903172 4.39104e-05)
(0.00506353 0.00127765 0.000108439)
(0.00520372 0.00175986 0.000203445)
(0.00553035 0.00228562 0.000328829)
(0.0062139 0.0026643 0.000468483)
(0.00733021 0.00223712 0.000549636)
(0.00840368 0.00048972 0.000557521)
(0.00907559 -0.000773264 0.000549941)
(0.00964635 -0.00116239 0.000467612)
(0.0102491 -0.00153006 0.000300873)
(0.0106468 -0.00190667 0.000120185)
(0.0107288 -0.00206435 6.50145e-06)
(0.010706 -0.00196793 -1.95001e-05)
(0.0108366 -0.00169463 -3.13269e-05)
(0.0111866 -0.00130882 -5.95037e-05)
(0.0117165 -0.00101552 -0.000100867)
(0.0123316 -0.00086854 -0.000162835)
(0.0129866 -0.000660621 -0.000199521)
(0.0137564 -0.000382726 -0.000184184)
(0.014701 -0.00024921 -0.000164947)
(0.0157589 -0.000363708 -0.000204729)
(0.0167487 -0.000441021 -0.000307015)
(0.0176677 -0.000371434 -0.000331486)
(0.0184014 3.4691e-06 -0.000258169)
(0.0193037 0.000598827 8.25618e-05)
(0.0196828 0.00155914 0.000615752)
(0.0202319 0.00121792 0.00189391)
(0.0203438 0.000959256 0.00363779)
(0.0204781 -0.000413922 0.00420095)
(0.0200184 -0.000114591 0.00241273)
(0.0216906 0.0010489 0.000345815)
(0.0226977 0.000188563 -0.000377091)
(0.0254517 5.51786e-05 -0.000987373)
(0.00491933 0.000215553 -5.34774e-05)
(0.00500576 0.000302662 -4.93651e-05)
(0.00510476 0.000425566 -4.23177e-05)
(0.00522754 0.000597552 -3.15942e-05)
(0.00539387 0.000833978 -1.66314e-05)
(0.00563715 0.00114903 2.21714e-06)
(0.00600945 0.00154753 2.16179e-05)
(0.00657813 0.00200254 3.11539e-05)
(0.00739647 0.00243323 8.64041e-06)
(0.00843698 0.00265002 -8.33369e-05)
(0.00928216 0.00249344 -0.000254478)
(0.00960541 0.00219747 -0.000358725)
(0.0097418 0.00188332 -0.0003761)
(0.00992179 0.00148635 -0.000403535)
(0.0100645 0.00101074 -0.000455367)
(0.0101918 0.000634667 -0.000510522)
(0.0103779 0.000461999 -0.000534243)
(0.0106922 0.000447467 -0.000530253)
(0.0111487 0.000505077 -0.000501614)
(0.0117396 0.000581237 -0.000479562)
(0.0124046 0.000650851 -0.00047974)
(0.0131172 0.000745905 -0.000484328)
(0.0139334 0.000865797 -0.000493961)
(0.0148753 0.000963849 -0.000521816)
(0.0158634 0.000972766 -0.000579873)
(0.0168182 0.000930679 -0.000636465)
(0.0177791 0.000900301 -0.000639934)
(0.0187366 0.00102704 -0.000605291)
(0.0199029 0.00123235 -0.000429704)
(0.0211202 0.00177775 -0.000281444)
(0.0228453 0.00222034 -7.49373e-05)
(0.0238806 0.00328221 0.000377867)
(0.0257433 0.00333608 0.000799902)
(0.0261552 0.00254094 0.00225233)
(0.0278027 0.00240948 0.00144718)
(0.0291204 0.00215007 0.00154969)
(0.029778 0.00222383 0.00121742)
(0.00498078 0.000209932 -5.82079e-05)
(0.00508662 0.000283146 -5.67213e-05)
(0.00520511 0.000379762 -5.29053e-05)
(0.00534163 0.000504059 -4.57279e-05)
(0.00550553 0.000658069 -3.41192e-05)
(0.0057118 0.000837627 -1.72327e-05)
(0.00598236 0.00102492 4.88104e-06)
(0.00634322 0.00117696 2.98089e-05)
(0.00681254 0.00121494 5.20343e-05)
(0.00737768 0.0010309 6.22582e-05)
(0.00795651 0.000541207 5.52605e-05)
(0.00848021 1.61084e-05 3.6538e-05)
(0.0089665 -0.00034656 1.94779e-06)
(0.00943144 -0.000630122 -4.82861e-05)
(0.00985323 -0.000842403 -0.000109522)
(0.0102152 -0.000959019 -0.000162572)
(0.010544 -0.000975846 -0.000209841)
(0.0109183 -0.000912199 -0.000248543)
(0.0113822 -0.000807948 -0.00029083)
(0.0119409 -0.00068987 -0.000333019)
(0.0125866 -0.000592821 -0.00037924)
(0.0133083 -0.000484315 -0.000423907)
(0.014116 -0.000372632 -0.000465131)
(0.015012 -0.000273699 -0.000509554)
(0.0159906 -0.000227823 -0.000557576)
(0.0170069 -0.000156092 -0.000616937)
(0.0180779 -5.88183e-05 -0.000652709)
(0.0191687 0.000174234 -0.000696345)
(0.020358 0.000452346 -0.00067118)
(0.0216682 0.000832709 -0.000607476)
(0.0229888 0.00120142 -0.000611974)
(0.0246944 0.00127833 -0.000105161)
(0.0263696 0.00200675 -0.000529222)
(0.0285047 0.00200523 0.000226294)
(0.0295168 0.00214177 5.79753e-06)
(0.032187 0.0025275 -0.000126389)
(0.0325977 0.0020894 0.000932853)
(0.00503357 0.000194763 -6.18199e-05)
(0.0051581 0.000255444 -6.26221e-05)
(0.00530315 0.000334594 -6.26849e-05)
(0.00547762 0.000436147 -6.22178e-05)
(0.00569366 0.000562754 -6.17516e-05)
(0.00596682 0.000713915 -6.24509e-05)
(0.0063146 0.000882867 -6.65853e-05)
(0.00675073 0.00105232 -7.80569e-05)
(0.00727273 0.00119212 -0.000102478)
(0.00785009 0.00126474 -0.000144075)
(0.00839687 0.00124493 -0.00020401)
(0.00883453 0.00116407 -0.000264322)
(0.00918703 0.00105058 -0.000313581)
(0.0095064 0.000910879 -0.000356822)
(0.00980807 0.000757393 -0.000394963)
(0.0101185 0.000620408 -0.000432525)
(0.0104683 0.000535918 -0.000467296)
(0.0108843 0.000516282 -0.000495909)
(0.0113798 0.000535816 -0.000522871)
(0.011957 0.000579991 -0.000549499)
(0.0126106 0.000631561 -0.000582233)
(0.0133359 0.000689959 -0.000617772)
(0.0141458 0.000748374 -0.000656613)
(0.0150361 0.000806684 -0.000700184)
(0.0160057 0.000843555 -0.000746167)
(0.0170239 0.00089813 -0.00079552)
(0.0181155 0.000928778 -0.000834116)
(0.0192904 0.00107179 -0.000866786)
(0.020494 0.00116782 -0.000892807)
(0.0220308 0.00142674 -0.000838778)
(0.0233013 0.00171541 -0.000967494)
(0.0252005 0.00185788 -0.000698829)
(0.0268262 0.00241724 -0.000895679)
(0.0284821 0.0023455 -0.000802317)
(0.0309238 0.00248846 -0.000262182)
(0.0323371 0.00288943 -0.00123996)
(0.035046 0.00341405 -0.000103709)
(0.00507319 0.000170967 -6.3304e-05)
(0.0052089 0.000217832 -6.55671e-05)
(0.00536428 0.000276197 -6.749e-05)
(0.00554368 0.000345948 -6.88623e-05)
(0.00575246 0.000424848 -6.95081e-05)
(0.00599717 0.000506793 -6.95118e-05)
(0.00628452 0.000579672 -6.93408e-05)
(0.00661919 0.000623758 -7.00167e-05)
(0.00700022 0.000612932 -7.31379e-05)
(0.00741808 0.000523579 -8.01957e-05)
(0.00785316 0.000347285 -9.23102e-05)
(0.00828816 0.000130324 -0.000109491)
(0.00871938 -7.17877e-05 -0.00013217)
(0.00914839 -0.000243302 -0.000160273)
(0.00957489 -0.000375637 -0.000192813)
(0.0100032 -0.000457559 -0.000227644)
(0.0104445 -0.00049405 -0.000264222)
(0.0109191 -0.00048978 -0.000300525)
(0.0114464 -0.000461521 -0.000339057)
(0.0120378 -0.00041547 -0.000378141)
(0.0126997 -0.000364336 -0.000418408)
(0.0134325 -0.00030276 -0.000460986)
(0.0142459 -0.000239256 -0.000504878)
(0.0151286 -0.000167579 -0.000554224)
(0.0161071 -0.000113827 -0.000599538)
(0.0171248 -1.61244e-05 -0.000659367)
(0.0182712 2.94452e-05 -0.000691747)
(0.019438 0.000231987 -0.000762715)
(0.0207211 0.000298427 -0.000777639)
(0.0222091 0.000518051 -0.000802954)
(0.0235068 0.000929953 -0.000921856)
(0.0253574 0.000444997 -0.000710526)
(0.0271084 0.00184497 -0.00102246)
(0.0285225 0.000703791 -0.000850796)
(0.0313315 0.00174985 -0.000706128)
(0.0323289 0.00180671 -0.00122452)
(0.035257 0.00164091 -0.000757836)
(0.00509396 0.000138815 -6.10178e-05)
(0.00523805 0.000172653 -6.40512e-05)
(0.00540369 0.000214358 -6.7189e-05)
(0.00559666 0.000264626 -7.06229e-05)
(0.00582372 0.000323629 -7.49168e-05)
(0.00609162 0.000389907 -8.09023e-05)
(0.00640575 0.000459847 -8.97128e-05)
(0.00676761 0.000527172 -0.000102873)
(0.00717162 0.000583349 -0.000122008)
(0.0076034 0.0006201 -0.000147922)
(0.0080392 0.000633067 -0.00018058)
(0.00845677 0.000626642 -0.000217492)
(0.00885242 0.000607286 -0.000255441)
(0.00923661 0.000579457 -0.000293221)
(0.00962079 0.000548343 -0.00033056)
(0.010019 0.000522253 -0.000367509)
(0.0104467 0.000508428 -0.000404004)
(0.0109201 0.000512148 -0.000440401)
(0.0114517 0.000530529 -0.000477161)