/*--------------------------------*- C++ -*----------------------------------*\
| =========                 |                                                 |
| \\      /  F ield         | OpenFOAM: The Open Source CFD Toolbox           |
|  \\    /   O peration     | Version:  2.3.1                                 |
|   \\  /    A nd           | Web:      www.OpenFOAM.org                      |
|    \\/     M anipulation  |                                                 |
\*---------------------------------------------------------------------------*/
FoamFile
{
    version     2.0;
    format      ascii;
    class       volScalarField;
    location    "20";
    object      epsilon;
}
// * * * * * * * * * * * * * * * * * * * * * * * * * * * * * * * * * * * * * //

dimensions      [0 2 -3 0 0 0 0];

internalField   nonuniform List<scalar> 
37758
(
1.22784e-05
1.32762e-05
1.5183e-05
1.59651e-05
1.74321e-05
1.86968e-05
1.9291e-05
2.08338e-05
2.15416e-05
2.27126e-05
2.42055e-05
2.477e-05
1.27414e-05
1.47758e-05
1.8307e-05
2.00162e-05
2.31489e-05
2.60198e-05
2.75998e-05
3.11844e-05
3.31644e-05
3.57053e-05
3.92624e-05
4.08015e-05
1.2772e-05
1.47615e-05
1.82916e-05
2.00802e-05
2.30895e-05
2.60878e-05
2.77428e-05
3.13451e-05
3.3405e-05
3.60023e-05
3.97467e-05
4.16325e-05
1.283e-05
1.46644e-05
1.8279e-05
2.0183e-05
2.30008e-05
2.6225e-05
2.7811e-05
3.12717e-05
3.34988e-05
3.5845e-05
3.99048e-05
4.18648e-05
1.28594e-05
1.46184e-05
1.82681e-05
2.02233e-05
2.29679e-05
2.63027e-05
2.78605e-05
3.12366e-05
3.35552e-05
3.57939e-05
4.00843e-05
4.20774e-05
1.28668e-05
1.46047e-05
1.82684e-05
2.02314e-05
2.29619e-05
2.63238e-05
2.78716e-05
3.1226e-05
3.35601e-05
3.57817e-05
4.01725e-05
4.21802e-05
1.28668e-05
1.46047e-05
1.82683e-05
2.02315e-05
2.29618e-05
2.63238e-05
2.78717e-05
3.12259e-05
3.35602e-05
3.57817e-05
4.01727e-05
4.21805e-05
1.28596e-05
1.46183e-05
1.82679e-05
2.02236e-05
2.29676e-05
2.63028e-05
2.78607e-05
3.12365e-05
3.35555e-05
3.5794e-05
4.00848e-05
4.20784e-05
1.28303e-05
1.46641e-05
1.82786e-05
2.01833e-05
2.30003e-05
2.62253e-05
2.78112e-05
3.12714e-05
3.34991e-05
3.58451e-05
3.99056e-05
4.18663e-05
1.27723e-05
1.4761e-05
1.82914e-05
2.00805e-05
2.30889e-05
2.60882e-05
2.7743e-05
3.13447e-05
3.34054e-05
3.60025e-05
3.97478e-05
4.16341e-05
1.27419e-05
1.47751e-05
1.83068e-05
2.00166e-05
2.31481e-05
2.60206e-05
2.76002e-05
3.11837e-05
3.31654e-05
3.5705e-05
3.92635e-05
4.08032e-05
1.22788e-05
1.32757e-05
1.51828e-05
1.59653e-05
1.74317e-05
1.86974e-05
1.92912e-05
2.08333e-05
2.15418e-05
2.27121e-05
2.42059e-05
2.47705e-05
6.06768e-06
6.43172e-06
7.13011e-06
7.47697e-06
8.12156e-06
8.69674e-06
9.1112e-06
9.91396e-06
1.03352e-05
1.12137e-05
1.19602e-05
1.26414e-05
1.13853e-06
1.82146e-06
2.93966e-06
3.69062e-06
4.92228e-06
6.15038e-06
7.04184e-06
8.38957e-06
9.14329e-06
1.07408e-05
1.19311e-05
1.30523e-05
1.09378e-06
1.79028e-06
2.80655e-06
3.55447e-06
4.77777e-06
5.96831e-06
7.00297e-06
8.41749e-06
9.31614e-06
1.12858e-05
1.29347e-05
1.44449e-05
1.10566e-06
1.78069e-06
2.84239e-06
3.63602e-06
4.83273e-06
6.13675e-06
7.1276e-06
8.56219e-06
9.49715e-06
1.14761e-05
1.33587e-05
1.48091e-05
1.11318e-06
1.77167e-06
2.86064e-06
3.67633e-06
4.85688e-06
6.24276e-06
7.21112e-06
8.68452e-06
9.65875e-06
1.1667e-05
1.37033e-05
1.50874e-05
1.11615e-06
1.76749e-06
2.86919e-06
3.69139e-06
4.86221e-06
6.2806e-06
7.24516e-06
8.73981e-06
9.73658e-06
1.1773e-05
1.38797e-05
1.52455e-05
1.11616e-06
1.7675e-06
2.86914e-06
3.69138e-06
4.86216e-06
6.28055e-06
7.24521e-06
8.7399e-06
9.73676e-06
1.17733e-05
1.38805e-05
1.52464e-05
1.1132e-06
1.77169e-06
2.86051e-06
3.67628e-06
4.85674e-06
6.24258e-06
7.21123e-06
8.68477e-06
9.65923e-06
1.1668e-05
1.37055e-05
1.50899e-05
1.10567e-06
1.78073e-06
2.8422e-06
3.63593e-06
4.83247e-06
6.13645e-06
7.12764e-06
8.56257e-06
9.49786e-06
1.14775e-05
1.33619e-05
1.48125e-05
1.0938e-06
1.79031e-06
2.80635e-06
3.55436e-06
4.77743e-06
5.96795e-06
7.00292e-06
8.41789e-06
9.317e-06
1.12875e-05
1.29384e-05
1.44485e-05
1.13861e-06
1.82137e-06
2.93941e-06
3.69057e-06
4.92186e-06
6.15016e-06
7.04193e-06
8.38997e-06
9.14413e-06
1.07423e-05
1.19342e-05
1.30548e-05
6.06779e-06
6.4316e-06
7.13004e-06
7.47702e-06
8.12141e-06
8.69694e-06
9.11108e-06
9.91403e-06
1.03354e-05
1.12138e-05
1.19608e-05
1.26416e-05
6.02351e-06
6.60712e-06
7.2477e-06
7.7169e-06
8.86074e-06
9.52388e-06
1.0599e-05
1.20215e-05
1.28346e-05
1.49286e-05
1.61058e-05
1.77407e-05
1.25391e-06
4.26716e-06
8.15173e-06
1.31888e-05
1.98886e-05
2.3313e-05
2.75559e-05
3.05668e-05
3.24191e-05
3.56867e-05
3.71402e-05
3.88177e-05
1.21467e-06
4.40237e-06
7.95544e-06
1.2911e-05
1.99852e-05
2.3764e-05
2.84509e-05
3.23443e-05
3.47808e-05
3.90512e-05
4.10867e-05
4.3189e-05
1.22388e-06
4.61568e-06
8.52948e-06
1.34733e-05
2.05922e-05
2.43648e-05
2.87995e-05
3.26868e-05
3.51027e-05
3.93822e-05
4.16734e-05
4.35798e-05
1.23044e-06
4.67498e-06
8.80177e-06
1.37678e-05
2.08696e-05
2.48001e-05
2.9149e-05
3.30652e-05
3.55513e-05
3.9715e-05
4.21084e-05
4.37037e-05
1.23256e-06
4.68966e-06
8.8902e-06
1.38583e-05
2.09188e-05
2.49569e-05
2.93079e-05
3.32608e-05
3.58176e-05
3.99492e-05
4.23792e-05
4.38035e-05
1.23256e-06
4.68971e-06
8.89025e-06
1.38581e-05
2.09187e-05
2.49573e-05
2.93085e-05
3.32621e-05
3.58194e-05
3.99512e-05
4.23817e-05
4.38059e-05
1.23043e-06
4.67514e-06
8.80194e-06
1.37672e-05
2.08692e-05
2.48012e-05
2.91506e-05
3.30689e-05
3.55562e-05
3.97209e-05
4.21156e-05
4.37106e-05
1.22387e-06
4.6159e-06
8.52966e-06
1.3472e-05
2.05913e-05
2.43661e-05
2.88012e-05
3.26922e-05
3.51098e-05
3.93908e-05
4.16841e-05
4.35897e-05
1.21467e-06
4.40266e-06
7.95564e-06
1.29091e-05
1.99838e-05
2.37651e-05
2.84527e-05
3.23508e-05
3.47888e-05
3.90611e-05
4.10987e-05
4.31996e-05
1.25395e-06
4.26714e-06
8.15206e-06
1.31862e-05
1.98874e-05
2.3314e-05
2.75573e-05
3.0573e-05
3.24261e-05
3.56948e-05
3.71501e-05
3.88254e-05
6.02357e-06
6.60692e-06
7.24782e-06
7.71686e-06
8.86051e-06
9.52415e-06
1.05985e-05
1.20226e-05
1.28358e-05
1.49298e-05
1.61086e-05
1.77424e-05
6.12211e-06
7.46433e-06
8.89035e-06
1.06107e-05
1.38615e-05
1.52997e-05
1.8263e-05
2.04479e-05
2.21114e-05
2.55325e-05
2.6668e-05
2.84647e-05
1.73939e-05
5.84452e-05
8.40458e-05
0.000102231
0.000109484
0.000108197
0.000104703
9.82771e-05
9.23125e-05
8.64347e-05
8.06789e-05
7.57564e-05
1.74711e-05
6.43308e-05
8.79932e-05
0.000105086
0.000111836
0.000110426
0.000106734
0.000100446
9.47563e-05
8.92712e-05
8.34792e-05
7.84775e-05
1.7263e-05
6.83286e-05
9.19665e-05
0.000107689
0.000112706
0.000110692
0.000105994
9.9523e-05
9.37104e-05
8.8177e-05
8.25626e-05
7.74593e-05
1.72747e-05
6.9693e-05
9.37719e-05
0.000109072
0.000113446
0.000111225
0.000106078
9.94453e-05
9.34176e-05
8.76238e-05
8.19893e-05
7.66398e-05
1.72851e-05
7.01524e-05
9.44356e-05
0.000109554
0.00011377
0.000111518
0.000106259
9.95944e-05
9.34515e-05
8.74942e-05
8.1796e-05
7.62798e-05
1.7285e-05
7.01533e-05
9.44363e-05
0.000109555
0.000113771
0.00011152
0.00010626
9.95969e-05
9.34541e-05
8.74968e-05
8.17982e-05
7.62819e-05
1.72746e-05
6.96955e-05
9.37737e-05
0.000109072
0.000113449
0.000111228
0.000106083
9.94523e-05
9.3425e-05
8.76313e-05
8.19958e-05
7.66458e-05
1.72628e-05
6.83319e-05
9.19687e-05
0.000107687
0.000112709
0.000110697
0.000106002
9.95335e-05
9.37211e-05
8.81879e-05
8.25719e-05
7.74677e-05
1.74711e-05
6.43347e-05
8.79951e-05
0.000105082
0.000111839
0.000110431
0.000106743
0.000100458
9.4768e-05
8.92831e-05
8.3489e-05
7.8486e-05
1.73948e-05
5.84473e-05
8.4046e-05
0.000102224
0.000109484
0.000108201
0.00010471
9.82879e-05
9.23228e-05
8.64436e-05
8.06873e-05
7.57631e-05
6.12212e-06
7.46379e-06
8.89116e-06
1.06093e-05
1.38627e-05
1.5301e-05
1.82632e-05
2.04517e-05
2.21141e-05
2.55388e-05
2.66745e-05
2.84719e-05
6.04379e-06
7.97832e-06
1.27889e-05
1.61905e-05
1.94199e-05
2.22434e-05
2.4032e-05
2.58088e-05
2.91484e-05
3.03717e-05
3.03618e-05
3.02131e-05
0.000195709
0.000218657
0.00023065
0.000218582
0.000193486
0.000169426
0.000147812
0.000129705
0.000115474
0.000101782
9.07993e-05
8.0813e-05
0.000249981
0.000283838
0.000272749
0.000242651
0.000206158
0.000176603
0.000152499
0.000132709
0.000117958
0.000104394
9.30889e-05
8.31986e-05
0.000255365
0.000297776
0.000282852
0.000247146
0.000207682
0.000176726
0.000151891
0.000131828
0.000116737
0.000103383
9.22964e-05
8.26562e-05
0.000257216
0.000302234
0.000286514
0.000249155
0.000208602
0.000176992
0.000151597
0.00013134
0.000115926
0.000102555
9.1594e-05
8.20674e-05
0.000258286
0.000304021
0.000288165
0.00025027
0.00020929
0.000177343
0.000151636
0.000131243
0.00011561
0.00010217
9.12454e-05
8.17641e-05
0.000258286
0.000304022
0.000288166
0.000250272
0.000209291
0.000177344
0.000151638
0.000131245
0.000115611
0.000102171
9.1246e-05
8.17648e-05
0.000257218
0.000302238
0.000286518
0.000249158
0.000208606
0.000176996
0.000151601
0.000131344
0.000115929
0.000102558
9.15957e-05
8.20694e-05
0.000255368
0.00029778
0.000282857
0.000247151
0.000207687
0.00017673
0.000151897
0.000131833
0.000116741
0.000103387
9.22986e-05
8.26591e-05
0.00024998
0.000283841
0.000272753
0.000242656
0.000206164
0.000176608
0.000152505
0.000132715
0.000117963
0.000104397
9.30908e-05
8.32019e-05
0.000195706
0.00021866
0.000230655
0.000218588
0.000193495
0.000169434
0.000147822
0.000129711
0.000115477
0.000101784
9.08013e-05
8.08185e-05
6.04366e-06
7.97815e-06
1.27896e-05
1.61914e-05
1.94221e-05
2.22464e-05
2.40349e-05
2.58143e-05
2.91588e-05
3.03851e-05
3.0374e-05
3.02237e-05
3.33726e-06
3.89488e-06
6.0078e-06
8.81621e-06
1.21335e-05
1.52586e-05
1.78445e-05
2.06688e-05
2.20479e-05
2.22331e-05
2.22226e-05
2.17647e-05
2.56109e-05
3.93042e-05
7.00288e-05
8.96587e-05
9.94771e-05
0.000100644
9.68109e-05
8.98167e-05
8.22138e-05
7.3108e-05
6.51012e-05
5.59565e-05
3.60936e-05
6.73886e-05
9.90576e-05
0.000116649
0.000119748
0.000116909
0.000108844
9.91959e-05
8.98852e-05
7.99026e-05
7.14444e-05
6.32265e-05
3.90073e-05
7.81418e-05
0.000110002
0.000126916
0.000127318
0.000123016
0.000113017
0.000102256
9.209e-05
8.18412e-05
7.33562e-05
6.57003e-05
4.02571e-05
8.19184e-05
0.000114269
0.000130909
0.000130547
0.00012546
0.000114466
0.000103224
9.26509e-05
8.23383e-05
7.39578e-05
6.66673e-05
4.07949e-05
8.31477e-05
0.000115808
0.000132407
0.00013184
0.000126415
0.000114968
0.000103504
9.27363e-05
8.24114e-05
7.41107e-05
6.70135e-05
4.0795e-05
8.31472e-05
0.000115807
0.000132406
0.00013184
0.000126415
0.000114967
0.000103503
9.27355e-05
8.24107e-05
7.411e-05
6.70131e-05
4.02572e-05
8.19166e-05
0.000114266
0.000130907
0.000130545
0.000125458
0.000114464
0.000103222
9.26487e-05
8.23364e-05
7.39558e-05
6.66662e-05
3.90071e-05
7.81381e-05
0.000109998
0.000126914
0.000127315
0.000123013
0.000113015
0.000102252
9.20868e-05
8.18386e-05
7.33535e-05
6.5699e-05
3.60928e-05
6.7384e-05
9.90541e-05
0.000116648
0.000119746
0.000116907
0.000108843
9.91925e-05
8.98823e-05
7.99007e-05
7.14424e-05
6.32268e-05
2.56098e-05
3.93031e-05
7.00326e-05
8.9668e-05
9.94861e-05
0.000100652
9.68169e-05
8.98176e-05
8.22143e-05
7.31105e-05
6.51044e-05
5.59626e-05
3.33707e-06
3.89484e-06
6.00888e-06
8.8186e-06
1.21368e-05
1.5263e-05
1.78542e-05
2.06819e-05
2.20621e-05
2.22422e-05
2.22308e-05
2.17722e-05
2.8634e-06
2.83822e-06
3.37082e-06
4.37444e-06
5.83925e-06
7.6229e-06
9.61217e-06
1.14317e-05
1.24601e-05
1.31804e-05
1.37475e-05
1.39542e-05
5.42677e-06
7.26306e-06
1.42223e-05
2.27389e-05
3.16409e-05
3.85453e-05
4.19023e-05
4.28596e-05
4.1845e-05
3.90179e-05
3.58345e-05
3.23875e-05
7.74102e-06
1.39574e-05
2.5162e-05
3.64404e-05
4.62611e-05
5.20762e-05
5.3937e-05
5.34776e-05
5.14754e-05
4.78159e-05
4.44948e-05
4.13764e-05
8.7546e-06
1.77569e-05
3.10521e-05
4.37843e-05
5.37327e-05
5.89187e-05
5.97424e-05
5.86458e-05
5.58351e-05
5.18872e-05
4.85181e-05
4.57394e-05
9.19965e-06
1.94356e-05
3.37371e-05
4.71787e-05
5.70558e-05
6.19369e-05
6.22336e-05
6.0852e-05
5.76648e-05
5.36638e-05
5.03764e-05
4.78421e-05
9.3765e-06
2.0045e-05
3.47354e-05
4.84563e-05
5.82903e-05
6.30449e-05
6.31356e-05
6.1628e-05
5.82909e-05
5.43122e-05
5.10998e-05
4.86993e-05
9.37647e-06
2.00446e-05
3.47346e-05
4.84553e-05
5.8289e-05
6.30435e-05
6.31341e-05
6.16265e-05
5.82895e-05
5.43109e-05
5.10987e-05
4.86984e-05
9.19953e-06
1.94344e-05
3.37349e-05
4.71758e-05
5.7052e-05
6.19328e-05
6.22296e-05
6.08478e-05
5.76609e-05
5.36604e-05
5.03733e-05
4.78395e-05
8.75432e-06
1.7755e-05
3.10491e-05
4.37805e-05
5.37278e-05
5.89136e-05
5.97372e-05
5.86403e-05
5.583e-05
5.18829e-05
4.85143e-05
4.57363e-05
7.74058e-06
1.39557e-05
2.51599e-05
3.64383e-05
4.62582e-05
5.20732e-05
5.39336e-05
5.34737e-05
5.14719e-05
4.78132e-05
4.44924e-05
4.13745e-05
5.4264e-06
7.26261e-06
1.42237e-05
2.27432e-05
3.16466e-05
3.8552e-05
4.19064e-05
4.28623e-05
4.1848e-05
3.9021e-05
3.5837e-05
3.23885e-05
2.86316e-06
2.838e-06
3.3713e-06
4.37585e-06
5.84146e-06
7.62663e-06
9.61862e-06
1.14388e-05
1.24658e-05
1.3185e-05
1.37509e-05
1.39559e-05
2.86298e-06
2.65818e-06
2.81124e-06
3.22444e-06
3.86924e-06
4.73017e-06
5.751e-06
6.86057e-06
7.81636e-06
8.79902e-06
9.7911e-06
1.07339e-05
2.63894e-06
2.97884e-06
4.12811e-06
6.36788e-06
9.51781e-06
1.30392e-05
1.59663e-05
1.81278e-05
1.91829e-05
1.96781e-05
2.00491e-05
2.07085e-05
3.12933e-06
4.50739e-06
7.02805e-06
1.0847e-05
1.55871e-05
1.98352e-05
2.3049e-05
2.51715e-05
2.61445e-05
2.64781e-05
2.68486e-05
2.76498e-05
3.49012e-06
5.68908e-06
9.16259e-06
1.40403e-05
1.96084e-05
2.41637e-05
2.73849e-05
2.93771e-05
3.02278e-05
3.05122e-05
3.08929e-05
3.17831e-05
3.68236e-06
6.33152e-06
1.03451e-05
1.5807e-05
2.17171e-05
2.64136e-05
2.96066e-05
3.15213e-05
3.23323e-05
3.25976e-05
3.3027e-05
3.39994e-05
3.76664e-06
6.59989e-06
1.08392e-05
1.65403e-05
2.25731e-05
2.73221e-05
3.05003e-05
3.23934e-05
3.31855e-05
3.34648e-05
3.39326e-05
3.49542e-05
3.76662e-06
6.59974e-06
1.08389e-05
1.65397e-05
2.25722e-05
2.7321e-05
3.04992e-05
3.23922e-05
3.31843e-05
3.34637e-05
3.39315e-05
3.49531e-05
3.6823e-06
6.33108e-06
1.03441e-05
1.58054e-05
2.17148e-05
2.64108e-05
2.96035e-05
3.15181e-05
3.23293e-05
3.25948e-05
3.30242e-05
3.39966e-05
3.49001e-06
5.68846e-06
9.16143e-06
1.40384e-05
1.96057e-05
2.41604e-05
2.73813e-05
2.93733e-05
3.02242e-05
3.05088e-05
3.08895e-05
3.17794e-05
3.1292e-06
4.50683e-06
7.02735e-06
1.08461e-05
1.55858e-05
1.98337e-05
2.30472e-05
2.51694e-05
2.61426e-05
2.6476e-05
2.68461e-05
2.76465e-05
2.63884e-06
2.97855e-06
4.12832e-06
6.36914e-06
9.52016e-06
1.30424e-05
1.5969e-05
1.81303e-05
1.9185e-05
1.96791e-05
2.00486e-05
2.0706e-05
2.86268e-06
2.65781e-06
2.81142e-06
3.22536e-06
3.87074e-06
4.7322e-06
5.75341e-06
6.86319e-06
7.81861e-06
8.80034e-06
9.79119e-06
1.07324e-05
2.75854e-06
2.59897e-06
2.64624e-06
2.88255e-06
3.24769e-06
3.75544e-06
4.40265e-06
5.17563e-06
6.03037e-06
7.056e-06
8.14096e-06
9.34863e-06
2.1691e-06
2.16476e-06
2.41153e-06
3.10341e-06
4.19285e-06
5.62678e-06
7.20437e-06
8.76959e-06
1.01581e-05
1.15924e-05
1.31847e-05
1.52868e-05
2.20302e-06
2.63629e-06
3.33389e-06
4.60548e-06
6.43427e-06
8.51437e-06
1.06346e-05
1.2598e-05
1.42859e-05
1.59146e-05
1.77515e-05
2.01361e-05
2.36151e-06
3.11789e-06
4.19599e-06
5.93084e-06
8.26431e-06
1.0746e-05
1.31643e-05
1.53118e-05
1.71372e-05
1.88826e-05
2.08469e-05
2.33324e-05
2.47459e-06
3.42257e-06
4.7452e-06
6.77284e-06
9.38287e-06
1.20842e-05
1.46479e-05
1.68806e-05
1.87738e-05
2.06045e-05
2.26341e-05
2.51664e-05
2.52945e-06
3.562e-06
4.99719e-06
7.15708e-06
9.88461e-06
1.26793e-05
1.53019e-05
1.75741e-05
1.95075e-05
2.13732e-05
2.3433e-05
2.59852e-05
2.52944e-06
3.56192e-06
4.99704e-06
7.15681e-06
9.88419e-06
1.26788e-05
1.53012e-05
1.75734e-05
1.95068e-05
2.13724e-05
2.34322e-05
2.59843e-05
2.47455e-06
3.42236e-06
4.74481e-06
6.77214e-06
9.3818e-06
1.20828e-05
1.46462e-05
1.68789e-05
1.8772e-05
2.06026e-05
2.2632e-05
2.51638e-05
2.36145e-06
3.11761e-06
4.19554e-06
5.9301e-06
8.26319e-06
1.07446e-05
1.31626e-05
1.53099e-05
1.71352e-05
1.88803e-05
2.08442e-05
2.33289e-05
2.20296e-06
2.63604e-06
3.33363e-06
4.60524e-06
6.43398e-06
8.51401e-06
1.0634e-05
1.25972e-05
1.42848e-05
1.5913e-05
1.77491e-05
2.01325e-05
2.16906e-06
2.16457e-06
2.41155e-06
3.10389e-06
4.19388e-06
5.62827e-06
7.20591e-06
8.77098e-06
1.01589e-05
1.1592e-05
1.3183e-05
1.52835e-05
2.7582e-06
2.59856e-06
2.64634e-06
2.88334e-06
3.24896e-06
3.75701e-06
4.4043e-06
5.17717e-06
6.0314e-06
7.05602e-06
8.1399e-06
9.3461e-06
2.828e-06
2.54941e-06
2.51394e-06
2.66023e-06
2.94027e-06
3.32677e-06
3.8259e-06
4.45537e-06
5.22728e-06
6.15804e-06
7.1401e-06
8.26223e-06
1.86638e-06
1.89854e-06
1.9158e-06
2.20759e-06
2.71684e-06
3.43882e-06
4.35446e-06
5.43911e-06
6.67301e-06
8.14544e-06
9.97993e-06
1.21407e-05
1.75406e-06
2.05574e-06
2.29567e-06
2.82635e-06
3.65733e-06
4.74335e-06
6.04275e-06
7.49502e-06
9.06627e-06
1.08696e-05
1.30441e-05
1.56532e-05
1.80083e-06
2.28802e-06
2.72096e-06
3.46464e-06
4.55191e-06
5.90422e-06
7.46368e-06
9.1397e-06
1.0908e-05
1.29024e-05
1.52368e-05
1.80332e-05
1.85489e-06
2.45488e-06
3.0179e-06
3.90869e-06
5.15721e-06
6.67089e-06
8.37767e-06
1.01729e-05
1.20617e-05
1.41522e-05
1.65664e-05
1.94485e-05
1.88527e-06
2.53664e-06
3.16267e-06
4.12489e-06
5.44845e-06
7.03579e-06
8.80739e-06
1.06563e-05
1.26012e-05
1.47321e-05
1.71782e-05
2.00921e-05
1.88526e-06
2.5366e-06
3.1626e-06
4.12477e-06
5.44826e-06
7.03553e-06
8.80706e-06
1.0656e-05
1.26008e-05
1.47316e-05
1.71776e-05
2.00914e-05
1.85487e-06
2.45477e-06
3.01771e-06
3.90838e-06
5.15674e-06
6.67025e-06
8.37688e-06
1.0172e-05
1.20607e-05
1.41509e-05
1.65647e-05
1.94464e-05
1.80081e-06
2.28786e-06
2.72075e-06
3.46434e-06
4.55149e-06
5.90365e-06
7.46294e-06
9.13878e-06
1.09068e-05
1.29009e-05
1.52346e-05
1.80303e-05
1.75405e-06
2.05559e-06
2.29554e-06
2.82631e-06
3.65736e-06
4.7434e-06
6.04271e-06
7.49477e-06
9.06563e-06
1.08683e-05
1.3042e-05
1.56501e-05
1.86634e-06
1.89836e-06
1.9158e-06
2.20789e-06
2.71746e-06
3.43969e-06
4.35539e-06
5.43986e-06
6.67322e-06
8.14471e-06
9.97802e-06
1.21378e-05
2.82759e-06
2.5489e-06
2.51388e-06
2.66092e-06
2.9415e-06
3.32823e-06
3.82734e-06
4.45654e-06
5.2279e-06
6.15776e-06
7.13881e-06
8.25988e-06
2.74695e-06
2.44339e-06
2.35456e-06
2.47121e-06
2.70343e-06
3.02958e-06
3.45828e-06
4.01076e-06
4.69814e-06
5.52594e-06
6.42112e-06
7.3904e-06
1.74538e-06
1.7807e-06
1.69198e-06
1.84124e-06
2.1562e-06
2.62739e-06
3.26048e-06
4.07957e-06
5.12952e-06
6.47244e-06
8.13013e-06
9.966e-06
1.57e-06
1.82437e-06
1.87997e-06
2.1456e-06
2.62342e-06
3.29883e-06
4.17593e-06
5.26395e-06
6.60646e-06
8.26383e-06
1.02905e-05
1.26119e-05
1.56541e-06
1.94938e-06
2.12756e-06
2.50805e-06
3.12213e-06
3.95854e-06
5.01558e-06
6.29162e-06
7.81307e-06
9.64077e-06
1.18476e-05
1.44126e-05
1.59068e-06
2.05128e-06
2.31167e-06
2.77422e-06
3.4803e-06
4.41959e-06
5.58593e-06
6.97289e-06
8.59416e-06
1.05121e-05
1.28084e-05
1.5499e-05
1.6089e-06
2.10407e-06
2.40475e-06
2.90873e-06
3.65985e-06
4.64805e-06
5.86616e-06
7.30313e-06
8.96874e-06
1.09243e-05
1.32554e-05
1.59952e-05
1.6089e-06
2.10404e-06
2.4047e-06
2.90866e-06
3.65975e-06
4.64792e-06
5.866e-06
7.30293e-06
8.96848e-06
1.0924e-05
1.3255e-05
1.59946e-05
1.59068e-06
2.05121e-06
2.31156e-06
2.77406e-06
3.48009e-06
4.4193e-06
5.58555e-06
6.9724e-06
8.59352e-06
1.05112e-05
1.28072e-05
1.54973e-05
1.56541e-06
1.94929e-06
2.12744e-06
2.50792e-06
3.12197e-06
3.95833e-06
5.01529e-06
6.29118e-06
7.81236e-06
9.63965e-06
1.18459e-05
1.44103e-05
1.57e-06
1.82426e-06
1.8799e-06
2.14563e-06
2.62355e-06
3.29902e-06
4.17607e-06
5.26392e-06
6.60604e-06
8.2628e-06
1.02887e-05
1.26094e-05
1.74533e-06
1.78054e-06
1.69198e-06
1.8415e-06
2.1567e-06
2.62804e-06
3.26115e-06
4.08004e-06
5.12952e-06
6.47166e-06
8.12849e-06
9.96366e-06
2.74646e-06
2.44274e-06
2.35448e-06
2.47188e-06
2.70464e-06
3.03102e-06
3.45966e-06
4.01179e-06
4.69859e-06
5.52551e-06
6.4198e-06
7.38862e-06
2.80564e-06
2.40071e-06
2.24424e-06
2.30511e-06
2.50581e-06
2.80065e-06
3.19162e-06
3.69952e-06
4.33442e-06
5.07839e-06
5.89242e-06
6.7703e-06
1.68575e-06
1.68833e-06
1.55046e-06
1.6358e-06
1.87672e-06
2.24258e-06
2.74442e-06
3.41973e-06
4.31583e-06
5.47746e-06
6.90264e-06
8.46032e-06
1.46005e-06
1.68232e-06
1.66478e-06
1.81603e-06
2.14251e-06
2.63229e-06
3.29707e-06
4.16845e-06
5.29463e-06
6.72976e-06
8.49201e-06
1.04572e-05
1.42509e-06
1.75741e-06
1.83335e-06
2.05208e-06
2.45683e-06
3.04706e-06
3.83427e-06
4.84141e-06
6.10762e-06
7.68959e-06
9.6261e-06
1.18276e-05
1.4321e-06
1.82542e-06
1.96129e-06
2.23054e-06
2.69046e-06
3.34644e-06
4.2095e-06
5.29633e-06
6.63988e-06
8.29858e-06
1.03236e-05
1.26603e-05
1.44166e-06
1.86203e-06
2.02701e-06
2.32256e-06
2.81029e-06
3.49817e-06
4.39709e-06
5.52023e-06
6.8977e-06
8.58786e-06
1.06477e-05
1.30408e-05
1.44166e-06
1.86202e-06
2.02699e-06
2.32253e-06
2.81024e-06
3.4981e-06
4.39701e-06
5.52012e-06
6.89755e-06
8.58763e-06
1.06474e-05
1.30404e-05
1.4321e-06
1.82538e-06
1.96122e-06
2.23046e-06
2.69036e-06
3.34631e-06
4.20932e-06
5.29607e-06
6.63949e-06
8.29796e-06
1.03227e-05
1.26591e-05
1.4251e-06
1.75734e-06
1.83328e-06
2.05203e-06
2.45679e-06
3.04702e-06
3.83418e-06
4.84121e-06
6.10718e-06
7.68876e-06
9.62478e-06
1.18258e-05
1.46004e-06
1.68222e-06
1.66474e-06
1.8161e-06
2.14268e-06
2.63252e-06
3.29728e-06
4.1685e-06
5.29434e-06
6.72894e-06
8.49056e-06
1.04552e-05
1.68567e-06
1.68814e-06
1.55046e-06
1.63605e-06
1.87717e-06
2.24315e-06
2.74496e-06
3.42007e-06
4.31575e-06
5.47675e-06
6.90126e-06
8.45849e-06
2.80512e-06
2.39993e-06
2.24405e-06
2.30571e-06
2.50701e-06
2.80207e-06
3.19295e-06
3.70045e-06
4.33476e-06
5.07794e-06
5.8913e-06
6.76908e-06
2.7608e-06
2.26481e-06
2.08867e-06
2.15209e-06
2.34136e-06
2.6173e-06
2.98327e-06
3.45821e-06
4.05032e-06
4.73513e-06
5.48036e-06
6.33494e-06
1.61425e-06
1.59844e-06
1.42076e-06
1.47657e-06
1.68145e-06
1.99674e-06
2.42826e-06
3.01165e-06
3.792e-06
4.8084e-06
6.05502e-06
7.43244e-06
1.38773e-06
1.58404e-06
1.51189e-06
1.60348e-06
1.85712e-06
2.25341e-06
2.79968e-06
3.5295e-06
4.49101e-06
5.73342e-06
7.26301e-06
8.96758e-06
1.34021e-06
1.63571e-06
1.64209e-06
1.77714e-06
2.07869e-06
2.54053e-06
3.17158e-06
3.99991e-06
5.06879e-06
6.43111e-06
8.10914e-06
1.0009e-05
1.33807e-06
1.68519e-06
1.74015e-06
1.90849e-06
2.24463e-06
2.74913e-06
3.43212e-06
4.31723e-06
5.4438e-06
6.86703e-06
8.622e-06
1.06397e-05
1.34302e-06
1.71244e-06
1.79044e-06
1.97643e-06
2.33014e-06
2.8554e-06
3.56276e-06
4.47353e-06
5.62488e-06
7.07261e-06
8.85828e-06
1.09273e-05
1.34302e-06
1.71242e-06
1.79043e-06
1.97641e-06
2.33011e-06
2.85538e-06
3.56272e-06
4.47347e-06
5.62478e-06
7.07245e-06
8.85804e-06
1.0927e-05
1.33808e-06
1.68515e-06
1.74011e-06
1.90845e-06
2.24459e-06
2.74908e-06
3.43205e-06
4.3171e-06
5.44355e-06
6.86657e-06
8.62127e-06
1.06388e-05
1.34021e-06
1.63565e-06
1.64204e-06
1.77713e-06
2.07872e-06
2.54056e-06
3.17159e-06
3.99982e-06
5.06849e-06
6.43048e-06
8.10809e-06
1.00076e-05
1.3877e-06
1.58395e-06
1.51186e-06
1.60356e-06
1.85731e-06
2.25366e-06
2.79991e-06
3.52958e-06
4.49079e-06
5.73273e-06
7.26181e-06
8.96601e-06
1.61414e-06
1.59822e-06
1.42075e-06
1.47682e-06
1.68188e-06
1.99725e-06
2.42874e-06
3.01192e-06
3.7919e-06
4.80776e-06
6.05387e-06
7.43101e-06
2.76021e-06
2.26395e-06
2.08848e-06
2.15271e-06
2.34255e-06
2.6187e-06
2.98456e-06
3.45909e-06
4.05057e-06
4.73475e-06
5.47941e-06
6.33399e-06
2.77929e-06
2.19278e-06
1.9722e-06
2.01041e-06
2.18801e-06
2.45141e-06
2.79661e-06
3.24197e-06
3.79594e-06
4.43029e-06
5.12197e-06
5.9526e-06
1.58181e-06
1.51298e-06
1.31145e-06
1.34619e-06
1.52638e-06
1.80765e-06
2.19204e-06
2.71052e-06
3.40394e-06
4.30831e-06
5.42581e-06
6.69113e-06
1.33467e-06
1.48956e-06
1.38498e-06
1.44258e-06
1.65392e-06
1.99371e-06
2.46477e-06
3.09782e-06
3.93772e-06
5.03112e-06
6.38866e-06
7.93099e-06
1.27899e-06
1.53052e-06
1.49399e-06
1.58136e-06
1.82431e-06
2.21053e-06
2.74404e-06
3.45169e-06
4.37545e-06
5.56515e-06
7.04332e-06
8.74276e-06
1.27159e-06
1.57038e-06
1.57494e-06
1.68558e-06
1.95145e-06
2.36719e-06
2.93791e-06
3.68711e-06
4.65397e-06
5.89055e-06
7.4303e-06
9.22361e-06
1.27378e-06
1.59246e-06
1.61613e-06
1.73917e-06
2.01679e-06
2.44668e-06
3.03453e-06
3.80206e-06
4.78686e-06
6.0418e-06
7.60596e-06
9.44023e-06
1.27378e-06
1.59244e-06
1.61612e-06
1.73916e-06
2.01678e-06
2.44667e-06
3.03451e-06
3.80203e-06
4.78679e-06
6.04168e-06
7.60576e-06
9.43997e-06
1.27159e-06
1.57035e-06
1.57491e-06
1.68556e-06
1.95144e-06
2.36719e-06
2.9379e-06
3.68704e-06
4.65379e-06
5.89019e-06
7.42971e-06
9.22282e-06
1.27898e-06
1.53047e-06
1.49396e-06
1.58137e-06
1.82437e-06
2.21061e-06
2.7441e-06
3.45166e-06
4.37523e-06
5.56462e-06
7.04244e-06
8.7416e-06
1.33463e-06
1.48946e-06
1.38496e-06
1.44268e-06
1.65412e-06
1.99397e-06
2.46501e-06
3.09792e-06
3.93754e-06
5.03053e-06
6.38763e-06
7.92967e-06
1.58165e-06
1.51277e-06
1.31145e-06
1.34644e-06
1.52679e-06
1.80812e-06
2.19246e-06
2.71076e-06
3.40383e-06
4.30776e-06
5.42484e-06
6.68997e-06
2.77865e-06
2.192e-06
1.97202e-06
2.01099e-06
2.18919e-06
2.45279e-06
2.79787e-06
3.24281e-06
3.79616e-06
4.42996e-06
5.12121e-06
5.95184e-06
2.71529e-06
2.04398e-06
1.82126e-06
1.87164e-06
2.04535e-06
2.29419e-06
2.61804e-06
3.03319e-06
3.54712e-06
4.14899e-06
4.79609e-06
5.57717e-06
1.5285e-06
1.41737e-06
1.20521e-06
1.23149e-06
1.39391e-06
1.64746e-06
1.99325e-06
2.45868e-06
3.08026e-06
3.8936e-06
4.90954e-06
6.0974e-06
1.28944e-06
1.39937e-06
1.27206e-06
1.30986e-06
1.49293e-06
1.79185e-06
2.20727e-06
2.7666e-06
3.51096e-06
4.48573e-06
5.7126e-06
7.14751e-06
1.23147e-06
1.43559e-06
1.36773e-06
1.42664e-06
1.63228e-06
1.9671e-06
2.43198e-06
3.05124e-06
3.86407e-06
4.91842e-06
6.24492e-06
7.81013e-06
1.22133e-06
1.47012e-06
1.43782e-06
1.5138e-06
1.7358e-06
2.09294e-06
2.58648e-06
3.238e-06
4.08444e-06
5.17557e-06
6.55067e-06
8.19026e-06
1.22193e-06
1.48913e-06
1.47322e-06
1.55832e-06
1.78871e-06
2.15636e-06
2.66283e-06
3.32817e-06
4.18809e-06
5.29308e-06
6.68682e-06
8.35801e-06
1.22193e-06
1.48912e-06
1.47322e-06
1.55831e-06
1.78871e-06
2.15636e-06
2.66283e-06
3.32815e-06
4.18804e-06
5.29298e-06
6.68665e-06
8.35778e-06
1.22132e-06
1.47009e-06
1.43779e-06
1.5138e-06
1.73581e-06
2.09296e-06
2.5865e-06
3.23797e-06
4.08431e-06
5.17526e-06
6.55015e-06
8.18958e-06
1.23145e-06
1.43554e-06
1.3677e-06
1.42667e-06
1.63235e-06
1.9672e-06
2.43207e-06
3.05125e-06
3.86389e-06
4.91797e-06
6.24415e-06
7.80912e-06
1.28938e-06
1.39927e-06
1.27205e-06
1.30996e-06
1.49313e-06
1.79211e-06
2.2075e-06
2.7667e-06
3.5108e-06
4.4852e-06
5.71169e-06
7.14635e-06
1.52828e-06
1.41713e-06
1.20521e-06
1.23174e-06
1.39429e-06
1.64789e-06
1.99364e-06
2.45889e-06
3.08016e-06
3.89312e-06
4.90869e-06
6.0964e-06
2.71445e-06
2.04305e-06
1.82104e-06
1.87226e-06
2.04649e-06
2.29554e-06
2.61927e-06
3.03399e-06
3.54732e-06
4.14868e-06
4.79555e-06
5.57654e-06
2.68196e-06
1.90881e-06
1.68623e-06
1.73984e-06
1.90676e-06
2.14097e-06
2.44293e-06
2.82745e-06
3.30315e-06
3.85844e-06
4.47154e-06
5.19117e-06
1.49134e-06
1.32146e-06
1.10739e-06
1.13002e-06
1.27663e-06
1.50421e-06
1.8145e-06
2.23164e-06
2.78855e-06
3.51976e-06
4.44624e-06
5.56629e-06
1.25249e-06
1.30967e-06
1.16871e-06
1.19525e-06
1.35662e-06
1.62126e-06
1.98964e-06
2.48623e-06
3.14847e-06
4.02046e-06
5.13486e-06
6.48224e-06
1.1942e-06
1.34465e-06
1.25492e-06
1.29651e-06
1.47515e-06
1.7695e-06
2.17937e-06
2.72667e-06
3.44742e-06
4.38786e-06
5.5871e-06
7.04456e-06
1.18267e-06
1.37636e-06
1.31732e-06
1.37186e-06
1.56309e-06
1.87573e-06
2.30932e-06
2.88336e-06
3.63204e-06
4.60278e-06
5.84122e-06
7.35794e-06
1.18229e-06
1.39351e-06
1.3486e-06
1.41018e-06
1.60788e-06
1.92903e-06
2.37315e-06
2.95842e-06
3.71794e-06
4.69969e-06
5.95251e-06
7.4933e-06
1.18229e-06
1.3935e-06
1.3486e-06
1.41018e-06
1.60789e-06
1.92904e-06
2.37315e-06
2.95841e-06
3.7179e-06
4.6996e-06
5.95235e-06
7.49309e-06
1.18266e-06
1.37633e-06
1.3173e-06
1.37186e-06
1.56312e-06
1.87578e-06
2.30935e-06
2.88335e-06
3.63193e-06
4.60251e-06
5.84077e-06
7.35732e-06
1.19417e-06
1.34459e-06
1.2549e-06
1.29655e-06
1.47523e-06
1.76962e-06
2.17948e-06
2.72669e-06
3.44728e-06
4.38746e-06
5.58642e-06
7.04364e-06
1.2524e-06
1.30957e-06
1.16871e-06
1.19536e-06
1.35682e-06
1.62151e-06
1.98987e-06
2.48633e-06
3.14833e-06
4.02e-06
5.13404e-06
6.48118e-06
1.49111e-06
1.32124e-06
1.1074e-06
1.13027e-06
1.27699e-06
1.5046e-06
1.81484e-06
2.23182e-06
2.78847e-06
3.51934e-06
4.44551e-06
5.56538e-06
2.6812e-06
1.90801e-06
1.68606e-06
1.74043e-06
1.90785e-06
2.14227e-06
2.44411e-06
2.82821e-06
3.30334e-06
3.85813e-06
4.47105e-06
5.19072e-06
2.58772e-06
1.72699e-06
1.53785e-06
1.61254e-06
1.77476e-06
1.99318e-06
2.27092e-06
2.62266e-06
3.05719e-06
3.56985e-06
4.14311e-06
4.80492e-06
1.4436e-06
1.21908e-06
1.01431e-06
1.03872e-06
1.17084e-06
1.37343e-06
1.64932e-06
2.02012e-06
2.51536e-06
3.1682e-06
4.00707e-06
5.05253e-06
1.22055e-06
1.22179e-06
1.07326e-06
1.09405e-06
1.23687e-06
1.47029e-06
1.79564e-06
2.23476e-06
2.82137e-06
3.59739e-06
4.60285e-06
5.85938e-06
1.16512e-06
1.25778e-06
1.15239e-06
1.18324e-06
1.33984e-06
1.59877e-06
1.96013e-06
2.44364e-06
3.08192e-06
3.9185e-06
4.99785e-06
6.34709e-06
1.15326e-06
1.28799e-06
1.20889e-06
1.24958e-06
1.41643e-06
1.69114e-06
2.07309e-06
2.57995e-06
3.24274e-06
4.10563e-06
5.21752e-06
6.61337e-06
1.15228e-06
1.30392e-06
1.237e-06
1.28326e-06
1.4554e-06
1.73744e-06
2.1285e-06
2.64508e-06
3.31725e-06
4.18945e-06
5.31278e-06
6.72643e-06
1.15228e-06
1.30391e-06
1.237e-06
1.28326e-06
1.45541e-06
1.73745e-06
2.12851e-06
2.64508e-06
3.31722e-06
4.18937e-06
5.31265e-06
6.72623e-06
1.15324e-06
1.28796e-06
1.20888e-06
1.24959e-06
1.41647e-06
1.69119e-06
2.07314e-06
2.57996e-06
3.24266e-06
4.1054e-06
5.21712e-06
6.6128e-06
1.16508e-06
1.25772e-06
1.15238e-06
1.18329e-06
1.33993e-06
1.5989e-06
1.96024e-06
2.44367e-06
3.08181e-06
3.91815e-06
4.99724e-06
6.34624e-06
1.22045e-06
1.2217e-06
1.07326e-06
1.09416e-06
1.23706e-06
1.47053e-06
1.79585e-06
2.23487e-06
2.82126e-06
3.59698e-06
4.60211e-06
5.8584e-06
1.44335e-06
1.21888e-06
1.01433e-06
1.03895e-06
1.17117e-06
1.37379e-06
1.64963e-06
2.02029e-06
2.51529e-06
3.16784e-06
4.00643e-06
5.05169e-06
2.58694e-06
1.72626e-06
1.5377e-06
1.61313e-06
1.77577e-06
1.9944e-06
2.27203e-06
2.62337e-06
3.05736e-06
3.56956e-06
4.14258e-06
4.8045e-06
2.45686e-06
1.54266e-06
1.39899e-06
1.49e-06
1.64743e-06