/*--------------------------------*- C++ -*----------------------------------*\
| =========                 |                                                 |
| \\      /  F ield         | OpenFOAM: The Open Source CFD Toolbox           |
|  \\    /   O peration     | Version:  2.3.1                                 |
|   \\  /    A nd           | Web:      www.OpenFOAM.org                      |
|    \\/     M anipulation  |                                                 |
\*---------------------------------------------------------------------------*/
FoamFile
{
    version     2.0;
    format      ascii;
    class       volScalarField;
    location    "20";
    object      epsilon_0;
}
// * * * * * * * * * * * * * * * * * * * * * * * * * * * * * * * * * * * * * //

dimensions      [0 2 -3 0 0 0 0];

internalField   nonuniform List<scalar> 
37758
(
1.22775e-05
1.32775e-05
1.51834e-05
1.59647e-05
1.74329e-05
1.86955e-05
1.92902e-05
2.08346e-05
2.15413e-05
2.27143e-05
2.4205e-05
2.47699e-05
1.274e-05
1.47779e-05
1.83076e-05
2.00152e-05
2.31508e-05
2.60173e-05
2.75986e-05
3.11862e-05
3.31631e-05
3.57086e-05
3.92624e-05
4.08013e-05
1.27707e-05
1.47634e-05
1.82924e-05
2.00789e-05
2.30913e-05
2.60858e-05
2.7742e-05
3.13465e-05
3.34033e-05
3.60054e-05
3.97473e-05
4.16329e-05
1.28285e-05
1.46661e-05
1.82803e-05
2.01815e-05
2.30027e-05
2.62233e-05
2.78096e-05
3.12732e-05
3.34968e-05
3.58482e-05
3.9906e-05
4.18654e-05
1.28579e-05
1.462e-05
1.82696e-05
2.02218e-05
2.29699e-05
2.63011e-05
2.78589e-05
3.12379e-05
3.35531e-05
3.57974e-05
4.00859e-05
4.20779e-05
1.28653e-05
1.46063e-05
1.827e-05
2.02299e-05
2.29639e-05
2.63223e-05
2.787e-05
3.12272e-05
3.3558e-05
3.57853e-05
4.01742e-05
4.21807e-05
1.28653e-05
1.46062e-05
1.82699e-05
2.023e-05
2.29637e-05
2.63223e-05
2.78701e-05
3.12271e-05
3.35581e-05
3.57853e-05
4.01744e-05
4.2181e-05
1.28581e-05
1.46198e-05
1.82694e-05
2.0222e-05
2.29695e-05
2.63013e-05
2.78591e-05
3.12378e-05
3.35534e-05
3.57975e-05
4.00864e-05
4.20789e-05
1.28288e-05
1.46658e-05
1.82799e-05
2.01818e-05
2.30021e-05
2.62236e-05
2.78098e-05
3.12728e-05
3.34972e-05
3.58483e-05
3.99068e-05
4.18669e-05
1.2771e-05
1.47629e-05
1.82922e-05
2.00793e-05
2.30907e-05
2.60861e-05
2.77421e-05
3.13461e-05
3.34037e-05
3.60056e-05
3.97484e-05
4.16345e-05
1.27405e-05
1.47771e-05
1.83073e-05
2.00156e-05
2.315e-05
2.60181e-05
2.7599e-05
3.11855e-05
3.31641e-05
3.57083e-05
3.92635e-05
4.0803e-05
1.22779e-05
1.3277e-05
1.51832e-05
1.59649e-05
1.74325e-05
1.8696e-05
1.92905e-05
2.08341e-05
2.15416e-05
2.27137e-05
2.42055e-05
2.47703e-05
6.06738e-06
6.43208e-06
7.13026e-06
7.47684e-06
8.12194e-06
8.69624e-06
9.11131e-06
9.91381e-06
1.0335e-05
1.12144e-05
1.19598e-05
1.26422e-05
1.13827e-06
1.8218e-06
2.94007e-06
3.69065e-06
4.92347e-06
6.15005e-06
7.042e-06
8.38935e-06
9.14304e-06
1.07422e-05
1.19302e-05
1.30539e-05
1.09358e-06
1.79051e-06
2.80679e-06
3.55453e-06
4.77893e-06
5.96803e-06
7.00328e-06
8.41722e-06
9.31593e-06
1.12879e-05
1.2934e-05
1.44473e-05
1.10546e-06
1.78085e-06
2.84274e-06
3.63595e-06
4.83396e-06
6.13654e-06
7.12767e-06
8.56201e-06
9.497e-06
1.14785e-05
1.33582e-05
1.48109e-05
1.11299e-06
1.7718e-06
2.86105e-06
3.67617e-06
4.85817e-06
6.24261e-06
7.21109e-06
8.68448e-06
9.65876e-06
1.16698e-05
1.3703e-05
1.50888e-05
1.11596e-06
1.76761e-06
2.86963e-06
3.69119e-06
4.86352e-06
6.28049e-06
7.24512e-06
8.73985e-06
9.73667e-06
1.1776e-05
1.38795e-05
1.52467e-05
1.11596e-06
1.76762e-06
2.86958e-06
3.69117e-06
4.86348e-06
6.28044e-06
7.24517e-06
8.73995e-06
9.73685e-06
1.17763e-05
1.38803e-05
1.52476e-05
1.113e-06
1.77183e-06
2.86092e-06
3.67612e-06
4.85803e-06
6.24243e-06
7.2112e-06
8.68473e-06
9.65924e-06
1.16707e-05
1.37052e-05
1.50912e-05
1.10548e-06
1.78089e-06
2.84255e-06
3.63586e-06
4.8337e-06
6.13625e-06
7.12772e-06
8.56239e-06
9.49772e-06
1.14799e-05
1.33615e-05
1.48143e-05
1.0936e-06
1.79053e-06
2.8066e-06
3.55443e-06
4.77859e-06
5.96767e-06
7.00323e-06
8.41762e-06
9.31679e-06
1.12896e-05
1.29378e-05
1.44509e-05
1.13835e-06
1.82171e-06
2.93982e-06
3.69059e-06
4.92304e-06
6.14983e-06
7.04209e-06
8.38976e-06
9.14388e-06
1.07437e-05
1.19333e-05
1.30564e-05
6.06749e-06
6.43196e-06
7.1302e-06
7.47689e-06
8.12179e-06
8.69644e-06
9.11119e-06
9.91389e-06
1.03352e-05
1.12145e-05
1.19604e-05
1.26424e-05
6.02336e-06
6.6076e-06
7.24736e-06
7.71694e-06
8.86136e-06
9.5235e-06
1.06002e-05
1.20209e-05
1.28346e-05
1.49303e-05
1.61051e-05
1.77429e-05
1.25379e-06
4.2672e-06
8.15015e-06
1.31954e-05
1.98934e-05
2.33144e-05
2.75604e-05
3.05669e-05
3.24224e-05
3.56898e-05
3.71399e-05
3.88211e-05
1.21462e-06
4.40223e-06
7.95299e-06
1.29177e-05
1.999e-05
2.37644e-05
2.8456e-05
3.23448e-05
3.47852e-05
3.9056e-05
4.1087e-05
4.3193e-05
1.22383e-06
4.61558e-06
8.52666e-06
1.34793e-05
2.05968e-05
2.43649e-05
2.88043e-05
3.26876e-05
3.51075e-05
3.93881e-05
4.16745e-05
4.35834e-05
1.2304e-06
4.67492e-06
8.79891e-06
1.37734e-05
2.08742e-05
2.48005e-05
2.91538e-05
3.30667e-05
3.55565e-05
3.97218e-05
4.21099e-05
4.37066e-05
1.23253e-06
4.68962e-06
8.88734e-06
1.38635e-05
2.09234e-05
2.49575e-05
2.93128e-05
3.32628e-05
3.58232e-05
3.99564e-05
4.2381e-05
4.38061e-05
1.23252e-06
4.68967e-06
8.88739e-06
1.38633e-05
2.09234e-05
2.49579e-05
2.93133e-05
3.3264e-05
3.5825e-05
3.99584e-05
4.23835e-05
4.38085e-05
1.23039e-06
4.67508e-06
8.79907e-06
1.37727e-05
2.08739e-05
2.48015e-05
2.91553e-05
3.30704e-05
3.55615e-05
3.97277e-05
4.21171e-05
4.37136e-05
1.22382e-06
4.6158e-06
8.52684e-06
1.34781e-05
2.05959e-05
2.43662e-05
2.88061e-05
3.26931e-05
3.51145e-05
3.93968e-05
4.16852e-05
4.35933e-05
1.21462e-06
4.40252e-06
7.95318e-06
1.29158e-05
1.99886e-05
2.37655e-05
2.84578e-05
3.23513e-05
3.47932e-05
3.90659e-05
4.1099e-05
4.32036e-05
1.25382e-06
4.26718e-06
8.15048e-06
1.31928e-05
1.98922e-05
2.33154e-05
2.75618e-05
3.05731e-05
3.24295e-05
3.56979e-05
3.71497e-05
3.88288e-05
6.02342e-06
6.6074e-06
7.24749e-06
7.71691e-06
8.86113e-06
9.52377e-06
1.05997e-05
1.2022e-05
1.28358e-05
1.49316e-05
1.6108e-05
1.77446e-05
6.12206e-06
7.46514e-06
8.88898e-06
1.06133e-05
1.38617e-05
1.52996e-05
1.82656e-05
2.04472e-05
2.21142e-05
2.55337e-05
2.66676e-05
2.84662e-05
1.73919e-05
5.84381e-05
8.40456e-05
0.000102249
0.000109494
0.000108205
0.000104708
9.82797e-05
9.23165e-05
8.64364e-05
8.06809e-05
7.57567e-05
1.74711e-05
6.43212e-05
8.79891e-05
0.000105102
0.000111845
0.000110433
0.00010674
0.00010045
9.47619e-05
8.92736e-05
8.34817e-05
7.84779e-05
1.72632e-05
6.83191e-05
9.19603e-05
0.000107703
0.000112714
0.000110698
0.000106
9.95271e-05
9.37164e-05
8.81801e-05
8.25653e-05
7.74594e-05
1.72751e-05
6.96839e-05
9.37652e-05
0.000109085
0.000113454
0.000111231
0.000106083
9.94501e-05
9.34239e-05
8.76273e-05
8.1992e-05
7.66396e-05
1.72854e-05
7.01436e-05
9.44286e-05
0.000109566
0.000113778
0.000111525
0.000106264
9.95997e-05
9.34579e-05
8.74979e-05
8.17986e-05
7.62793e-05
1.72853e-05
7.01444e-05
9.44293e-05
0.000109567
0.000113779
0.000111526
0.000106266
9.96021e-05
9.34605e-05
8.75004e-05
8.18008e-05
7.62814e-05
1.72749e-05
6.96864e-05
9.3767e-05
0.000109085
0.000113457
0.000111234
0.000106089
9.94572e-05
9.34313e-05
8.76348e-05
8.19985e-05
7.66455e-05
1.7263e-05
6.83224e-05
9.19626e-05
0.000107702
0.000112717
0.000110703
0.000106008
9.95376e-05
9.37272e-05
8.8191e-05
8.25746e-05
7.74678e-05
1.74711e-05
6.43252e-05
8.79909e-05
0.000105099
0.000111847
0.000110438
0.000106748
0.000100462
9.47736e-05
8.92856e-05
8.34915e-05
7.84864e-05
1.73928e-05
5.84403e-05
8.40458e-05
0.000102243
0.000109494
0.000108208
0.000104715
9.82905e-05
9.23268e-05
8.64453e-05
8.06892e-05
7.57634e-05
6.12207e-06
7.46459e-06
8.88979e-06
1.0612e-05
1.38629e-05
1.53009e-05
1.82658e-05
2.0451e-05
2.21169e-05
2.55401e-05
2.66741e-05
2.84734e-05
6.04406e-06
7.97906e-06
1.27899e-05
1.61916e-05
1.94205e-05
2.22438e-05
2.40315e-05
2.58113e-05
2.91521e-05
3.03714e-05
3.03612e-05
3.02119e-05
0.000195721
0.000218658
0.000230651
0.000218583
0.000193485
0.000169425
0.000147809
0.000129706
0.000115474
0.00010178
9.07993e-05
8.0806e-05
0.000249993
0.000283835
0.000272747
0.00024265
0.000206156
0.000176604
0.000152497
0.00013271
0.000117959
0.000104391
9.30883e-05
8.31935e-05
0.000255378
0.000297774
0.00028285
0.000247146
0.00020768
0.000176727
0.00015189
0.000131829
0.000116737
0.000103381
9.22958e-05
8.26519e-05
0.000257229
0.000302232
0.000286513
0.000249154
0.000208601
0.000176994
0.000151597
0.000131342
0.000115926
0.000102553
9.15934e-05
8.20637e-05
0.000258299
0.000304019
0.000288164
0.00025027
0.000209289
0.000177344
0.000151636
0.000131245
0.00011561
0.000102169
9.12447e-05
8.17606e-05
0.0002583
0.000304021
0.000288165
0.000250271
0.00020929
0.000177345
0.000151637
0.000131246
0.000115611
0.00010217
9.12453e-05
8.17614e-05
0.000257231
0.000302236
0.000286517
0.000249158
0.000208605
0.000176997
0.000151601
0.000131345
0.00011593
0.000102556
9.15951e-05
8.20657e-05
0.000255381
0.000297778
0.000282855
0.000247151
0.000207686
0.000176732
0.000151896
0.000131834
0.000116742
0.000103385
9.2298e-05
8.26548e-05
0.000249993
0.000283838
0.000272752
0.000242655
0.000206162
0.000176609
0.000152504
0.000132716
0.000117964
0.000104395
9.30901e-05
8.31968e-05
0.000195718
0.00021866
0.000230657
0.000218589
0.000193493
0.000169433
0.000147819
0.000129712
0.000115476
0.000101782
9.08012e-05
8.08116e-05
6.04394e-06
7.97889e-06
1.27905e-05
1.61925e-05
1.94228e-05
2.22469e-05
2.40345e-05
2.58168e-05
2.91625e-05
3.03847e-05
3.03733e-05
3.02225e-05
3.33756e-06
3.89549e-06
6.00849e-06
8.81683e-06
1.21342e-05
1.52588e-05
1.78455e-05
2.06699e-05
2.20474e-05
2.22326e-05
2.2222e-05
2.17633e-05
2.5613e-05
3.93094e-05
7.00336e-05
8.96569e-05
9.94753e-05
0.000100639
9.68047e-05
8.98139e-05
8.22087e-05
7.31029e-05
6.50962e-05
5.59465e-05
3.60961e-05
6.73956e-05
9.90635e-05
0.000116648
0.000119747
0.000116907
0.000108839
9.9193e-05
8.98801e-05
7.98975e-05
7.14407e-05
6.32203e-05
3.90098e-05
7.81488e-05
0.000110008
0.000126916
0.000127317
0.000123014
0.000113012
0.000102253
9.20848e-05
8.18363e-05
7.33532e-05
6.56959e-05
4.02598e-05
8.19254e-05
0.000114276
0.000130909
0.000130546
0.000125459
0.000114461
0.000103221
9.26456e-05
8.23336e-05
7.39553e-05
6.66641e-05
4.07976e-05
8.31548e-05
0.000115816
0.000132407
0.00013184
0.000126413
0.000114962
0.0001035
9.27308e-05
8.24068e-05
7.41085e-05
6.70108e-05
4.07977e-05
8.31543e-05
0.000115815
0.000132407
0.000131839
0.000126413
0.000114962
0.000103499
9.273e-05
8.24061e-05
7.41078e-05
6.70104e-05
4.02599e-05
8.19236e-05
0.000114273
0.000130907
0.000130544
0.000125456
0.000114459
0.000103218
9.26434e-05
8.23317e-05
7.39533e-05
6.66629e-05
3.90096e-05
7.81451e-05
0.000110004
0.000126914
0.000127315
0.000123012
0.00011301
0.000102249
9.20817e-05
8.18338e-05
7.33505e-05
6.56947e-05
3.60952e-05
6.73911e-05
9.90601e-05
0.000116647
0.000119745
0.000116905
0.000108837
9.91897e-05
8.98772e-05
7.98956e-05
7.14388e-05
6.32206e-05
2.56119e-05
3.93084e-05
7.00375e-05
8.96662e-05
9.94843e-05
0.000100648
9.68106e-05
8.98147e-05
8.22093e-05
7.31053e-05
6.50994e-05
5.59526e-05
3.33738e-06
3.89545e-06
6.00957e-06
8.81921e-06
1.21375e-05
1.52632e-05
1.78552e-05
2.06829e-05
2.20616e-05
2.22417e-05
2.22302e-05
2.17708e-05
2.86367e-06
2.83866e-06
3.37137e-06
4.3751e-06
5.84003e-06
7.62357e-06
9.61291e-06
1.14321e-05
1.24603e-05
1.31808e-05
1.37476e-05
1.39544e-05
5.42727e-06
7.26445e-06
1.4224e-05
2.27396e-05
3.16412e-05
3.85434e-05
4.18998e-05
4.28571e-05
4.18416e-05
3.90144e-05
3.58314e-05
3.23848e-05
7.74174e-06
1.39599e-05
2.51646e-05
3.64415e-05
4.62615e-05
5.20744e-05
5.39339e-05
5.34747e-05
5.14715e-05
4.7813e-05
4.4493e-05
4.13752e-05
8.75541e-06
1.77597e-05
3.10552e-05
4.37855e-05
5.3733e-05
5.89167e-05
5.97389e-05
5.86425e-05
5.58311e-05
5.18845e-05
4.85171e-05
4.57393e-05
9.20051e-06
1.94386e-05
3.37404e-05
4.718e-05
5.70558e-05
6.19347e-05
6.22297e-05
6.08484e-05
5.76608e-05
5.36613e-05
5.0376e-05
4.78427e-05
9.37738e-06
2.00481e-05
3.47387e-05
4.84576e-05
5.82902e-05
6.30425e-05
6.31316e-05
6.16243e-05
5.82869e-05
5.43098e-05
5.10997e-05
4.87003e-05
9.37735e-06
2.00477e-05
3.4738e-05
4.84565e-05
5.82889e-05
6.3041e-05
6.31301e-05
6.16227e-05
5.82855e-05
5.43085e-05
5.10986e-05
4.86993e-05
9.20039e-06
1.94374e-05
3.37381e-05
4.7177e-05
5.7052e-05
6.19306e-05
6.22257e-05
6.08442e-05
5.76569e-05
5.36579e-05
5.03729e-05
4.78401e-05
8.75513e-06
1.77579e-05
3.10521e-05
4.37817e-05
5.37281e-05
5.89116e-05
5.97336e-05
5.8637e-05
5.58261e-05
5.18802e-05
4.85133e-05
4.57362e-05
7.7413e-06
1.39582e-05
2.51625e-05
3.64394e-05
4.62587e-05
5.20714e-05
5.39304e-05
5.34708e-05
5.1468e-05
4.78102e-05
4.44907e-05
4.13733e-05
5.4269e-06
7.26399e-06
1.42254e-05
2.27439e-05
3.1647e-05
3.85501e-05
4.19039e-05
4.28598e-05
4.18446e-05
3.90175e-05
3.58339e-05
3.23858e-05
2.86343e-06
2.83844e-06
3.37186e-06
4.37651e-06
5.84224e-06
7.6273e-06
9.61936e-06
1.14392e-05
1.2466e-05
1.31855e-05
1.3751e-05
1.39561e-05
2.86322e-06
2.65856e-06
2.81171e-06
3.22502e-06
3.86995e-06
4.73095e-06
5.75186e-06
6.86141e-06
7.8172e-06
8.79999e-06
9.79202e-06
1.07349e-05
2.63922e-06
2.97939e-06
4.12885e-06
6.36872e-06
9.51874e-06
1.30396e-05
1.59665e-05
1.81277e-05
1.91826e-05
1.96785e-05
2.00501e-05
2.07106e-05
3.12968e-06
4.50826e-06
7.0292e-06
1.08482e-05
1.55882e-05
1.98355e-05
2.30488e-05
2.51712e-05
2.6144e-05
2.64786e-05
2.68501e-05
2.76527e-05
3.49051e-06
5.69014e-06
9.164e-06
1.40417e-05
1.96095e-05
2.41637e-05
2.73844e-05
2.93766e-05
3.02272e-05
3.05128e-05
3.08948e-05
3.17865e-05
3.68277e-06
6.33266e-06
1.03466e-05
1.58083e-05
2.17181e-05
2.64135e-05
2.96059e-05
3.15207e-05
3.23318e-05
3.25983e-05
3.30291e-05
3.4003e-05
3.76705e-06
6.60106e-06
1.08408e-05
1.65417e-05
2.25739e-05
2.73219e-05
3.04995e-05
3.23927e-05
3.31849e-05
3.34656e-05
3.39349e-05
3.49579e-05
3.76704e-06
6.6009e-06
1.08404e-05
1.65411e-05
2.25731e-05
2.73208e-05
3.04983e-05
3.23915e-05
3.31838e-05
3.34646e-05
3.39339e-05
3.49569e-05
3.68271e-06
6.33222e-06
1.03457e-05
1.58067e-05
2.17157e-05
2.64107e-05
2.96028e-05
3.15175e-05
3.23288e-05
3.25955e-05
3.30264e-05
3.40002e-05
3.4904e-06
5.68952e-06
9.16284e-06
1.40398e-05
1.96067e-05
2.41605e-05
2.73808e-05
2.93728e-05
3.02237e-05
3.05094e-05
3.08914e-05
3.17829e-05
3.12955e-06
4.5077e-06
7.0285e-06
1.08473e-05
1.55869e-05
1.9834e-05
2.3047e-05
2.51691e-05
2.61421e-05
2.64765e-05
2.68476e-05
2.76494e-05
2.63912e-06
2.97911e-06
4.12905e-06
6.36999e-06
9.5211e-06
1.30428e-05
1.59693e-05
1.81303e-05
1.91846e-05
1.96795e-05
2.00497e-05
2.07082e-05
2.86292e-06
2.65819e-06
2.81189e-06
3.22594e-06
3.87145e-06
4.73298e-06
5.75428e-06
6.86404e-06
7.81945e-06
8.8013e-06
9.79211e-06
1.07334e-05
2.75878e-06
2.59933e-06
2.64667e-06
2.88306e-06
3.24831e-06
3.75613e-06
4.40343e-06
5.17648e-06
6.0313e-06
7.05708e-06
8.14208e-06
9.34992e-06
2.16936e-06
2.16514e-06
2.412e-06
3.10401e-06
4.1936e-06
5.62758e-06
7.20528e-06
8.77057e-06
1.01593e-05
1.15941e-05
1.31872e-05
1.52903e-05
2.2033e-06
2.63679e-06
3.33455e-06
4.6063e-06
6.43522e-06
8.51529e-06
1.06355e-05
1.2599e-05
1.42872e-05
1.59167e-05
1.77546e-05
2.01402e-05
2.36181e-06
3.11847e-06
4.19678e-06
5.9318e-06
8.26537e-06
1.0747e-05
1.31653e-05
1.53129e-05
1.71386e-05
1.88849e-05
2.08502e-05
2.33368e-05
2.4749e-06
3.42319e-06
4.74606e-06
6.77386e-06
9.38396e-06
1.20851e-05
1.46488e-05
1.68817e-05
1.87753e-05
2.06069e-05
2.26376e-05
2.51708e-05
2.52976e-06
3.56264e-06
4.99807e-06
7.15813e-06
9.8857e-06
1.26803e-05
1.53027e-05
1.75752e-05
1.9509e-05
2.13756e-05
2.34365e-05
2.59897e-05
2.52975e-06
3.56256e-06
4.99793e-06
7.15786e-06
9.88528e-06
1.26797e-05
1.53021e-05
1.75745e-05
1.95083e-05
2.13748e-05
2.34357e-05
2.59888e-05
2.47485e-06
3.42299e-06
4.74567e-06
6.77316e-06
9.38289e-06
1.20837e-05
1.46471e-05
1.68799e-05
1.87734e-05
2.06049e-05
2.26354e-05
2.51683e-05
2.36175e-06
3.1182e-06
4.19633e-06
5.93106e-06
8.26425e-06
1.07455e-05
1.31635e-05
1.5311e-05
1.71366e-05
1.88826e-05
2.08475e-05
2.33333e-05
2.20324e-06
2.63653e-06
3.33428e-06
4.60605e-06
6.43493e-06
8.51492e-06
1.0635e-05
1.25983e-05
1.42861e-05
1.59151e-05
1.77522e-05
2.01367e-05
2.16932e-06
2.16495e-06
2.41202e-06
3.10448e-06
4.19463e-06
5.62907e-06
7.20682e-06
8.77197e-06
1.01601e-05
1.15938e-05
1.31855e-05
1.52869e-05
2.75844e-06
2.59892e-06
2.64676e-06
2.88385e-06
3.24958e-06
3.75771e-06
4.40508e-06
5.17801e-06
6.03233e-06
7.0571e-06
8.14103e-06
9.3474e-06
2.82823e-06
2.54974e-06
2.51431e-06
2.66067e-06
2.94079e-06
3.32737e-06
3.82659e-06
4.45614e-06
5.22815e-06
6.15903e-06
7.14121e-06
8.26352e-06
1.86664e-06
1.89887e-06
1.91617e-06
2.20804e-06
2.71742e-06
3.43953e-06
4.35534e-06
5.44021e-06
6.67442e-06
8.14741e-06
9.98264e-06
1.21438e-05
1.75431e-06
2.05612e-06
2.29613e-06
2.82693e-06
3.65806e-06
4.74422e-06
6.04383e-06
7.49635e-06
9.06797e-06
1.0872e-05
1.30474e-05
1.5657e-05
1.80108e-06
2.28845e-06
2.72151e-06
3.46532e-06
4.55275e-06
5.9052e-06
7.46486e-06
9.14114e-06
1.09099e-05
1.2905e-05
1.52402e-05
1.80373e-05
1.85514e-06
2.45534e-06
3.01849e-06
3.90943e-06
5.15811e-06
6.67192e-06
8.3789e-06
1.01744e-05
1.20637e-05
1.41549e-05
1.65699e-05
1.94527e-05
1.88553e-06
2.53711e-06
3.16329e-06
4.12566e-06
5.44937e-06
7.03684e-06
8.80862e-06
1.06579e-05
1.26032e-05
1.47348e-05
1.71817e-05
2.00964e-05
1.88552e-06
2.53707e-06
3.16321e-06
4.12553e-06
5.44918e-06
7.03658e-06
8.8083e-06
1.06575e-05
1.26028e-05
1.47344e-05
1.71811e-05
2.00957e-05
1.85513e-06
2.45523e-06
3.0183e-06
3.90912e-06
5.15764e-06
6.67128e-06
8.37811e-06
1.01735e-05
1.20626e-05
1.41536e-05
1.65683e-05
1.94506e-05
1.80107e-06
2.2883e-06
2.72129e-06
3.46502e-06
4.55232e-06
5.90463e-06
7.46412e-06
9.14022e-06
1.09087e-05
1.29034e-05
1.5238e-05
1.80344e-05
1.7543e-06
2.05597e-06
2.296e-06
2.82689e-06
3.65809e-06
4.74428e-06
6.04378e-06
7.4961e-06
9.06733e-06
1.08707e-05
1.30452e-05
1.56539e-05
1.8666e-06
1.89869e-06
1.91617e-06
2.20834e-06
2.71803e-06
3.4404e-06
4.35627e-06
5.44096e-06
6.67463e-06
8.14668e-06
9.98073e-06
1.21408e-05
2.82782e-06
2.54923e-06
2.51425e-06
2.66136e-06
2.94202e-06
3.32884e-06
3.82803e-06
4.45732e-06
5.22877e-06
6.15875e-06
7.13993e-06
8.26117e-06
2.74718e-06
2.44368e-06
2.35489e-06
2.47159e-06
2.70388e-06
3.03011e-06
3.4589e-06
4.01147e-06
4.69897e-06
5.52693e-06
6.42226e-06
7.39169e-06
1.74564e-06
1.781e-06
1.69229e-06
1.84161e-06
2.15668e-06
2.62798e-06
3.26125e-06
4.08056e-06
5.13086e-06
6.47427e-06
8.1325e-06
9.96848e-06
1.57025e-06
1.82471e-06
1.88035e-06
2.14605e-06
2.624e-06
3.29956e-06
4.17687e-06
5.26518e-06
6.6081e-06
8.26603e-06
1.02933e-05
1.2615e-05
1.56566e-06
1.94975e-06
2.12799e-06
2.50858e-06
3.12279e-06
3.95937e-06
5.01664e-06
6.29299e-06
7.81486e-06
9.64315e-06
1.18507e-05
1.4416e-05
1.59093e-06
2.05167e-06
2.31213e-06
2.77479e-06
3.48102e-06
4.42048e-06
5.58705e-06
6.97433e-06
8.59602e-06
1.05145e-05
1.28116e-05
1.55025e-05
1.60914e-06
2.10447e-06
2.40523e-06
2.90932e-06
3.66058e-06
4.64896e-06
5.86732e-06
7.3046e-06
8.97062e-06
1.09268e-05
1.32586e-05
1.59988e-05
1.60914e-06
2.10444e-06
2.40519e-06
2.90925e-06
3.66049e-06
4.64883e-06
5.86716e-06
7.3044e-06
8.97037e-06
1.09264e-05
1.32581e-05
1.59982e-05
1.59092e-06
2.0516e-06
2.31203e-06
2.77463e-06
3.4808e-06
4.42019e-06
5.58668e-06
6.97385e-06
8.59538e-06
1.05136e-05
1.28103e-05
1.55009e-05
1.56565e-06
1.94966e-06
2.12788e-06
2.50845e-06
3.12264e-06
3.95917e-06
5.01635e-06
6.29255e-06
7.81415e-06
9.64202e-06
1.18489e-05
1.44137e-05
1.57024e-06
1.8246e-06
1.88028e-06
2.14608e-06
2.62413e-06
3.29975e-06
4.17702e-06
5.26514e-06
6.60767e-06
8.26501e-06
1.02916e-05
1.26125e-05
1.74559e-06
1.78084e-06
1.6923e-06
1.84187e-06
2.15717e-06
2.62864e-06
3.26191e-06
4.08103e-06
5.13086e-06
6.47349e-06
8.13085e-06
9.96614e-06
2.74669e-06
2.44304e-06
2.35482e-06
2.47227e-06
2.7051e-06
3.03155e-06
3.46028e-06
4.0125e-06
4.69942e-06
5.52649e-06
6.42094e-06
7.38992e-06
2.80587e-06
2.40099e-06
2.24454e-06
2.30546e-06
2.50622e-06
2.80113e-06
3.19219e-06
3.70019e-06
4.33522e-06
5.07935e-06
5.89353e-06
6.77158e-06
1.68601e-06
1.68861e-06
1.55073e-06
1.63613e-06
1.87713e-06
2.24311e-06
2.74509e-06
3.42063e-06
4.31703e-06
5.47908e-06
6.90469e-06
8.46246e-06
1.46029e-06
1.68262e-06
1.6651e-06
1.81642e-06
2.143e-06
2.63292e-06
3.2979e-06
4.16953e-06
5.29608e-06
6.73169e-06
8.49445e-06
1.04598e-05
1.42533e-06
1.75774e-06
1.83372e-06
2.05252e-06
2.45738e-06
3.04778e-06
3.83519e-06
4.84262e-06
6.10919e-06
7.69166e-06
9.62871e-06
1.18304e-05
1.43233e-06
1.82577e-06
1.96168e-06
2.23101e-06
2.69105e-06
3.3472e-06
4.21048e-06
5.29759e-06
6.64152e-06
8.30071e-06
1.03263e-05
1.26632e-05
1.44189e-06
1.86239e-06
2.02742e-06
2.32305e-06
2.8109e-06
3.49894e-06
4.39809e-06
5.52151e-06
6.89935e-06
8.59001e-06
1.06504e-05
1.30438e-05
1.44189e-06
1.86237e-06
2.02739e-06
2.32301e-06
2.81085e-06
3.49888e-06
4.39801e-06
5.5214e-06
6.8992e-06
8.58978e-06
1.06501e-05
1.30434e-05
1.43234e-06
1.82572e-06
1.96162e-06
2.23093e-06
2.69095e-06
3.34707e-06
4.2103e-06
5.29733e-06
6.64112e-06
8.30008e-06
1.03254e-05
1.2662e-05
1.42533e-06
1.75768e-06
1.83365e-06
2.05246e-06
2.45735e-06
3.04774e-06
3.8351e-06
4.84241e-06
6.10875e-06
7.69083e-06
9.62739e-06
1.18286e-05
1.46028e-06
1.68253e-06
1.66506e-06
1.81648e-06
2.14317e-06
2.63315e-06
3.29811e-06
4.16959e-06
5.29579e-06
6.73087e-06
8.493e-06
1.04578e-05
1.68594e-06
1.68841e-06
1.55073e-06
1.63638e-06
1.87758e-06
2.24367e-06
2.74564e-06
3.42097e-06
4.31696e-06
5.47837e-06
6.90331e-06
8.46064e-06
2.80535e-06
2.4002e-06
2.24435e-06
2.30606e-06
2.50742e-06
2.80255e-06
3.19352e-06
3.70113e-06
4.33556e-06
5.0789e-06
5.89241e-06
6.77036e-06
2.76102e-06
2.26506e-06
2.08894e-06
2.15241e-06
2.34174e-06
2.61774e-06
2.98379e-06
3.45884e-06
4.05109e-06
4.73605e-06
5.48144e-06
6.3362e-06
1.6145e-06
1.59868e-06
1.42099e-06
1.47686e-06
1.68181e-06
1.99721e-06
2.42887e-06
3.01246e-06
3.79309e-06
4.80986e-06
6.05686e-06
7.4344e-06
1.38795e-06
1.58432e-06
1.51217e-06
1.60381e-06
1.85754e-06
2.25397e-06
2.80041e-06
3.53046e-06
4.4923e-06
5.73513e-06
7.26515e-06
8.96985e-06
1.34043e-06
1.63601e-06
1.64241e-06
1.77752e-06
2.07917e-06
2.54114e-06
3.17239e-06
4.00096e-06
5.07017e-06
6.43293e-06
8.1114e-06
1.00114e-05
1.33829e-06
1.6855e-06
1.74049e-06
1.90889e-06
2.24514e-06
2.74978e-06
3.43297e-06
4.31833e-06
5.44523e-06
6.86888e-06
8.6243e-06
1.06422e-05
1.34324e-06
1.71276e-06
1.79079e-06
1.97684e-06
2.33066e-06
2.85607e-06
3.56363e-06
4.47464e-06
5.62632e-06
7.07447e-06
8.8606e-06
1.09298e-05
1.34324e-06
1.71274e-06
1.79077e-06
1.97682e-06
2.33063e-06
2.85605e-06
3.56359e-06
4.47459e-06
5.62622e-06
7.07431e-06
8.86035e-06
1.09295e-05
1.3383e-06
1.68547e-06
1.74045e-06
1.90885e-06
2.24509e-06
2.74973e-06
3.4329e-06
4.3182e-06
5.44498e-06
6.86842e-06
8.62358e-06
1.06413e-05
1.34043e-06
1.63595e-06
1.64236e-06
1.77751e-06
2.07919e-06
2.54118e-06
3.1724e-06
4.00087e-06
5.06988e-06
6.43229e-06
8.11035e-06
1.001e-05
1.38793e-06
1.58422e-06
1.51215e-06
1.6039e-06
1.85773e-06
2.25422e-06
2.80064e-06
3.53055e-06
4.49208e-06
5.73444e-06
7.26395e-06
8.96827e-06
1.61439e-06
1.59847e-06
1.42099e-06
1.47711e-06
1.68224e-06
1.99772e-06
2.42935e-06
3.01273e-06
3.79299e-06
4.80923e-06
6.05571e-06
7.43297e-06
2.76044e-06
2.2642e-06
2.08875e-06
2.15303e-06
2.34293e-06
2.61914e-06
2.98508e-06
3.45972e-06
4.05134e-06
4.73567e-06
5.48049e-06
6.33525e-06
2.77951e-06
2.19301e-06
1.97245e-06
2.01069e-06
2.18835e-06
2.45181e-06
2.79709e-06
3.24256e-06
3.79666e-06
4.43114e-06
5.12298e-06
5.95383e-06
1.58205e-06
1.5132e-06
1.31166e-06
1.34645e-06
1.52671e-06
1.80808e-06
2.19259e-06
2.71125e-06
3.40492e-06
4.30964e-06
5.42749e-06
6.69297e-06
1.33488e-06
1.4898e-06
1.38523e-06
1.44287e-06
1.65429e-06
1.99421e-06
2.46543e-06
3.09869e-06
3.93888e-06
5.03266e-06
6.39059e-06
7.93309e-06
1.2792e-06
1.53079e-06
1.49426e-06
1.58169e-06
1.82473e-06
2.21108e-06
2.74476e-06
3.45263e-06
4.37669e-06
5.56677e-06
7.04534e-06
8.74497e-06
1.2718e-06
1.57066e-06
1.57524e-06
1.68593e-06
1.95189e-06
2.36777e-06
2.93866e-06
3.68808e-06
4.65524e-06
5.8922e-06
7.43235e-06
9.22588e-06
1.27399e-06
1.59274e-06
1.61643e-06
1.73953e-06
2.01724e-06
2.44727e-06
3.03529e-06
3.80305e-06
4.78814e-06
6.04346e-06
7.60801e-06
9.44252e-06
1.27399e-06
1.59273e-06
1.61642e-06
1.73951e-06
2.01723e-06
2.44726e-06
3.03528e-06
3.80302e-06
4.78807e-06
6.04333e-06
7.60781e-06
9.44226e-06
1.2718e-06
1.57063e-06
1.5752e-06
1.68591e-06
1.95189e-06
2.36777e-06
2.93865e-06
3.68802e-06
4.65506e-06
5.89184e-06
7.43176e-06
9.2251e-06
1.27919e-06
1.53073e-06
1.49423e-06
1.5817e-06
1.82479e-06
2.21116e-06
2.74482e-06
3.4526e-06
4.37647e-06
5.56624e-06
7.04446e-06
8.74382e-06
1.33484e-06
1.48971e-06
1.38521e-06
1.44297e-06
1.6545e-06
1.99447e-06
2.46566e-06
3.09879e-06
3.9387e-06
5.03207e-06
6.38956e-06
7.93178e-06
1.58189e-06
1.51299e-06
1.31166e-06
1.34669e-06
1.52712e-06
1.80854e-06
2.19301e-06
2.71149e-06
3.40482e-06
4.30909e-06
5.42651e-06
6.69181e-06
2.77886e-06
2.19222e-06
1.97226e-06
2.01127e-06
2.18953e-06
2.45319e-06
2.79835e-06
3.2434e-06
3.79688e-06
4.43081e-06
5.12222e-06
5.95306e-06
2.71549e-06
2.04418e-06
1.82148e-06
1.8719e-06
2.04566e-06
2.29456e-06
2.61848e-06
3.03373e-06
3.54778e-06
4.14978e-06
4.797e-06
5.57832e-06
1.52873e-06
1.41756e-06
1.20539e-06
1.23171e-06
1.3942e-06
1.64783e-06
1.99375e-06
2.45934e-06
3.08115e-06
3.8948e-06
4.91107e-06
6.09915e-06
1.28964e-06
1.39959e-06
1.27227e-06
1.31012e-06
1.49327e-06
1.79229e-06
2.20785e-06
2.76737e-06
3.512e-06
4.48711e-06
5.71436e-06
7.1495e-06
1.23166e-06
1.43583e-06
1.36796e-06
1.42693e-06
1.63265e-06
1.96759e-06
2.43262e-06
3.05209e-06
3.86518e-06
4.91988e-06
6.24676e-06
7.81223e-06
1.22152e-06
1.47037e-06
1.43807e-06
1.51411e-06
1.73619e-06
2.09345e-06
2.58715e-06
3.23887e-06
4.08558e-06
5.17705e-06
6.55253e-06
8.19239e-06
1.22212e-06
1.48938e-06
1.47349e-06
1.55863e-06
1.78912e-06
2.15688e-06
2.66351e-06
3.32905e-06
4.18924e-06
5.29456e-06
6.68868e-06
8.36016e-06
1.22212e-06
1.48937e-06
1.47348e-06
1.55862e-06
1.78911e-06
2.15688e-06
2.66351e-06
3.32904e-06
4.18919e-06
5.29446e-06
6.68851e-06
8.35993e-06
1.22151e-06
1.47033e-06
1.43805e-06
1.5141e-06
1.73621e-06
2.09348e-06
2.58717e-06
3.23884e-06
4.08545e-06
5.17674e-06
6.55201e-06
8.19171e-06
1.23164e-06
1.43577e-06
1.36794e-06
1.42696e-06
1.63272e-06
1.96769e-06
2.43271e-06
3.05209e-06
3.865e-06
4.91943e-06
6.24599e-06
7.81121e-06
1.28958e-06
1.39949e-06
1.27226e-06
1.31022e-06
1.49347e-06
1.79255e-06
2.20808e-06
2.76748e-06
3.51184e-06
4.48658e-06
5.71345e-06
7.14834e-06
1.52851e-06
1.41732e-06
1.20539e-06
1.23196e-06
1.39458e-06
1.64827e-06
1.99413e-06
2.45954e-06
3.08105e-06
3.89432e-06
4.91022e-06
6.09815e-06
2.71465e-06
2.04325e-06
1.82126e-06
1.87252e-06
2.04679e-06
2.29591e-06
2.61971e-06
3.03453e-06
3.54798e-06
4.14947e-06
4.79647e-06
5.57768e-06
2.68215e-06
1.90899e-06
1.68643e-06
1.74006e-06
1.90703e-06
2.14129e-06
2.44332e-06
2.82793e-06
3.30374e-06
3.85916e-06
4.47237e-06
5.19218e-06
1.49155e-06
1.32163e-06
1.10755e-06
1.13022e-06
1.27689e-06
1.50454e-06
1.81493e-06
2.23222e-06
2.78934e-06
3.52082e-06
4.44762e-06
5.56794e-06
1.25267e-06
1.30985e-06
1.16889e-06
1.19548e-06
1.35691e-06
1.62165e-06
1.99015e-06
2.48691e-06
3.14939e-06
4.0217e-06
5.13646e-06
6.48413e-06
1.19438e-06
1.34485e-06
1.25512e-06
1.29676e-06
1.47547e-06
1.76994e-06
2.17994e-06
2.72742e-06
3.44841e-06
4.38916e-06
5.58877e-06
7.04654e-06
1.18285e-06
1.37658e-06
1.31753e-06
1.37212e-06
1.56344e-06
1.87619e-06
2.30991e-06
2.88413e-06
3.63306e-06
4.6041e-06
5.84291e-06
7.35995e-06
1.18247e-06
1.39373e-06
1.34883e-06
1.41045e-06
1.60824e-06
1.9295e-06
2.37375e-06
2.9592e-06
3.71897e-06
4.70101e-06
5.95419e-06
7.49531e-06
1.18247e-06
1.39372e-06
1.34882e-06
1.41045e-06
1.60824e-06
1.92951e-06
2.37376e-06
2.9592e-06
3.71893e-06
4.70092e-06
5.95404e-06
7.49511e-06
1.18284e-06
1.37654e-06
1.31752e-06
1.37212e-06
1.56347e-06
1.87623e-06
2.30995e-06
2.88412e-06
3.63295e-06
4.60384e-06
5.84245e-06
7.35933e-06
1.19435e-06
1.34479e-06
1.2551e-06
1.2968e-06
1.47556e-06
1.77005e-06
2.18004e-06
2.72744e-06
3.44827e-06
4.38876e-06
5.58809e-06
7.04561e-06
1.25259e-06
1.30975e-06
1.16889e-06
1.19559e-06
1.35711e-06
1.6219e-06
1.99038e-06
2.48702e-06
3.14926e-06
4.02123e-06
5.13563e-06
6.48307e-06
1.49131e-06
1.3214e-06
1.10756e-06
1.13046e-06
1.27724e-06
1.50494e-06
1.81528e-06
2.23241e-06
2.78925e-06
3.5204e-06
4.44689e-06
5.56702e-06
2.68139e-06
1.90819e-06
1.68626e-06
1.74066e-06
1.90812e-06
2.14259e-06
2.4445e-06
2.82869e-06
3.30393e-06
3.85885e-06
4.47188e-06
5.19173e-06
2.58789e-06
1.72715e-06
1.53803e-06
1.61274e-06
1.775e-06
1.99346e-06
2.27126e-06
2.62308e-06
3.05771e-06
3.57048e-06
4.14385e-06
4.80579e-06
1.44379e-06
1.21922e-06
1.01445e-06
1.03889e-06
1.17107e-06
1.37372e-06
1.6497e-06
2.02062e-06
2.51605e-06
3.16913e-06
4.00829e-06
5.05404e-06
1.22072e-06
1.22195e-06
1.07342e-06
1.09425e-06
1.23713e-06
1.47063e-06
1.79608e-06
2.23536e-06
2.82218e-06
3.59848e-06
4.60427e-06
5.86113e-06
1.16528e-06
1.25795e-06
1.15257e-06
1.18346e-06
1.34013e-06
1.59915e-06
1.96062e-06
2.44429e-06
3.08279e-06
3.91965e-06
4.99934e-06
6.34892e-06
1.15342e-06
1.28817e-06
1.20908e-06
1.24981e-06
1.41674e-06
1.69154e-06
2.07362e-06
2.58063e-06
3.24364e-06
4.1068e-06
5.21903e-06
6.61522e-06
1.15244e-06
1.30411e-06
1.2372e-06
1.28349e-06
1.45572e-06
1.73785e-06
2.12903e-06
2.64577e-06
3.31815e-06
4.19062e-06
5.31429e-06
6.72828e-06
1.15244e-06
1.3041e-06
1.23719e-06
1.28349e-06
1.45572e-06
1.73786e-06
2.12905e-06
2.64577e-06
3.31812e-06
4.19054e-06
5.31415e-06
6.72809e-06
1.1534e-06
1.28814e-06
1.20907e-06
1.24982e-06
1.41678e-06
1.69159e-06
2.07366e-06
2.58064e-06
3.24355e-06
4.10657e-06
5.21862e-06
6.61465e-06
1.16524e-06
1.2579e-06
1.15256e-06
1.18351e-06
1.34022e-06
1.59927e-06
1.96074e-06
2.44433e-06
3.08267e-06
3.9193e-06
4.99872e-06
6.34806e-06
1.22062e-06
1.22186e-06
1.07342e-06
1.09436e-06
1.23732e-06
1.47087e-06
1.7963e-06
2.23547e-06
2.82207e-06
3.59807e-06
4.60354e-06
5.86014e-06
1.44353e-06
1.21902e-06
1.01447e-06
1.03912e-06
1.17139e-06
1.37408e-06
1.65001e-06
2.02079e-06
2.51598e-06
3.16877e-06
4.00766e-06
5.0532e-06
2.58711e-06
1.72642e-06
1.53789e-06
1.61334e-06
1.77601e-06
1.99469e-06
2.27237e-06
2.62379e-06
3.05787e-06
3.57019e-06
4.14333e-06
4.80538e-06
2.45701e-06