/*--------------------------------*- C++ -*----------------------------------*\
| =========                 |                                                 |
| \\      /  F ield         | OpenFOAM: The Open Source CFD Toolbox           |
|  \\    /   O peration     | Version:  2.3.1                                 |
|   \\  /    A nd           | Web:      www.OpenFOAM.org                      |
|    \\/     M anipulation  |                                                 |
\*---------------------------------------------------------------------------*/
FoamFile
{
    version     2.0;
    format      ascii;
    class       volScalarField;
    location    "20";
    object      k;
}
// * * * * * * * * * * * * * * * * * * * * * * * * * * * * * * * * * * * * * //

dimensions      [0 2 -2 0 0 0 0];

internalField   nonuniform List<scalar> 
37758
(
3.09697e-05
3.26212e-05
3.56763e-05
3.68927e-05
3.91172e-05
4.09907e-05
4.18536e-05
4.40537e-05
4.50476e-05
4.66628e-05
4.86891e-05
4.94428e-05
3.17441e-05
3.50326e-05
4.04159e-05
4.28964e-05
4.72582e-05
5.10955e-05
5.31415e-05
5.76443e-05
6.00634e-05
6.30872e-05
6.72151e-05
6.89607e-05
3.17948e-05
3.50102e-05
4.03928e-05
4.29881e-05
4.71775e-05
5.1184e-05
5.33245e-05
5.78426e-05
6.03541e-05
6.34369e-05
6.77661e-05
6.98931e-05
3.18911e-05
3.48569e-05
4.03733e-05
4.3135e-05
4.70565e-05
5.13627e-05
5.34125e-05
5.77524e-05
6.04674e-05
6.32518e-05
6.79448e-05
7.01526e-05
3.194e-05
3.47842e-05
4.0357e-05
4.31926e-05
4.70115e-05
5.14638e-05
5.34762e-05
5.77093e-05
6.05355e-05
6.31914e-05
6.8148e-05
7.03901e-05
3.19522e-05
3.47624e-05
4.03573e-05
4.32042e-05
4.70031e-05
5.14913e-05
5.34905e-05
5.76963e-05
6.05414e-05
6.31767e-05
6.82478e-05
7.05047e-05
3.19523e-05
3.47623e-05
4.03572e-05
4.32043e-05
4.7003e-05
5.14914e-05
5.34906e-05
5.76962e-05
6.05416e-05
6.31767e-05
6.8248e-05
7.05051e-05
3.19403e-05
3.47839e-05
4.03566e-05
4.3193e-05
4.7011e-05
5.1464e-05
5.34764e-05
5.77091e-05
6.05358e-05
6.31915e-05
6.81486e-05
7.03913e-05
3.18916e-05
3.48564e-05
4.03728e-05
4.31355e-05
4.70558e-05
5.1363e-05
5.34128e-05
5.7752e-05
6.04678e-05
6.3252e-05
6.79458e-05
7.01543e-05
3.17953e-05
3.50096e-05
4.03924e-05
4.29886e-05
4.71767e-05
5.11844e-05
5.33247e-05
5.78422e-05
6.03546e-05
6.34371e-05
6.77673e-05
6.9895e-05
3.17449e-05
3.50314e-05
4.04155e-05
4.2897e-05
4.72571e-05
5.10966e-05
5.3142e-05
5.76434e-05
6.00647e-05
6.30869e-05
6.72164e-05
6.89627e-05
3.09703e-05
3.26204e-05
3.56761e-05
3.6893e-05
3.91166e-05
4.09915e-05
4.18539e-05
4.4053e-05
4.50479e-05
4.6662e-05
4.86897e-05
4.94434e-05
3.0728e-05
3.19426e-05
3.42158e-05
3.53177e-05
3.73176e-05
3.90624e-05
4.02918e-05
4.26258e-05
4.38248e-05
4.6272e-05
4.83066e-05
5.01202e-05
3.01903e-05
3.11007e-05
3.22349e-05
3.34961e-05
3.66038e-05
3.85161e-05
4.14214e-05
4.48514e-05
4.70521e-05
5.22714e-05
5.6124e-05
6.04462e-05
3.01929e-05
3.11555e-05
3.21571e-05
3.33092e-05
3.61784e-05
3.82221e-05
4.12809e-05
4.5438e-05
4.83613e-05
5.53489e-05
6.0805e-05
6.7215e-05
3.02033e-05
3.12428e-05
3.23755e-05
3.35395e-05
3.64804e-05
3.86341e-05
4.15668e-05
4.60091e-05
4.90975e-05
5.63355e-05
6.27593e-05
6.89702e-05
3.02101e-05
3.12846e-05
3.24866e-05
3.36535e-05
3.66081e-05
3.88649e-05
4.18406e-05
4.65125e-05
4.97601e-05
5.71904e-05
6.42832e-05
7.01121e-05
3.02129e-05
3.1302e-05
3.25237e-05
3.36849e-05
3.66207e-05
3.89113e-05
4.19552e-05
4.6731e-05
5.00685e-05
5.76332e-05
6.50436e-05
7.07532e-05
3.02129e-05
3.1302e-05
3.25237e-05
3.36848e-05
3.66204e-05
3.89114e-05
4.19553e-05
4.67317e-05
5.00696e-05
5.76348e-05
6.50466e-05
7.07564e-05
3.021e-05
3.12845e-05
3.24866e-05
3.36533e-05
3.66074e-05
3.88651e-05
4.18407e-05
4.65144e-05
4.97631e-05
5.71952e-05
6.42919e-05
7.01214e-05
3.02032e-05
3.12427e-05
3.23754e-05
3.35392e-05
3.64791e-05
3.8634e-05
4.15667e-05
4.60117e-05
4.91018e-05
5.63426e-05
6.27722e-05
6.89833e-05
3.01928e-05
3.11554e-05
3.2157e-05
3.33087e-05
3.61767e-05
3.82218e-05
4.12805e-05
4.54412e-05
4.83663e-05
5.53573e-05
6.08195e-05
6.72291e-05
3.01903e-05
3.11004e-05
3.2235e-05
3.34954e-05
3.66021e-05
3.85162e-05
4.14214e-05
4.48549e-05
4.70571e-05
5.22786e-05
5.61362e-05
6.04565e-05
3.07283e-05
3.19422e-05
3.42156e-05
3.53178e-05
3.73172e-05
3.9063e-05
4.02914e-05
4.2626e-05
4.38253e-05
4.62723e-05
4.83083e-05
5.01205e-05
3.05781e-05
3.25202e-05
3.45927e-05
3.60686e-05
3.95482e-05
4.1501e-05
4.45634e-05
4.84719e-05
5.06318e-05
5.59943e-05
5.89077e-05
6.28218e-05
3.38787e-05
4.35195e-05
5.43692e-05
6.65652e-05
8.44996e-05
9.29468e-05
0.00010506
0.000114339
0.000121124
0.000133213
0.000138956
0.000146815
3.35734e-05
4.36446e-05
5.22634e-05
6.42497e-05
8.35473e-05
9.4034e-05
0.000108128
0.000121263
0.000130777
0.000147057
0.000155147
0.000166013
3.36934e-05
4.48135e-05
5.42186e-05
6.57658e-05
8.55886e-05
9.59413e-05
0.000109631
0.000123207
0.000132851
0.000149961
0.000159206
0.000169571
3.38005e-05
4.51938e-05
5.51234e-05
6.65951e-05
8.65905e-05
9.73737e-05
0.000111031
0.000124823
0.000134814
0.000151875
0.000161705
0.000170856
3.38415e-05
4.52879e-05
5.53689e-05
6.68169e-05
8.67436e-05
9.78641e-05
0.000111652
0.000125579
0.000135872
0.00015293
0.000163001
0.000171486
3.38413e-05
4.52881e-05
5.53688e-05
6.68164e-05
8.67431e-05
9.78653e-05
0.000111653
0.000125582
0.000135877
0.000152935
0.000163008
0.000171493
3.38002e-05
4.51943e-05
5.51232e-05
6.65932e-05
8.65885e-05
9.7377e-05
0.000111035
0.000124834
0.000134829
0.000151892
0.000161726
0.000170876
3.36929e-05
4.48143e-05
5.42178e-05
6.57619e-05
8.5584e-05
9.5945e-05
0.000109636
0.000123223
0.000132872
0.000149986
0.000159237
0.0001696
3.3573e-05
4.36457e-05
5.22622e-05
6.42438e-05
8.3541e-05
9.40373e-05
0.000108133
0.000121282
0.000130801
0.000147087
0.000155182
0.000166044
3.38795e-05
4.35182e-05
5.43683e-05
6.65569e-05
8.44957e-05
9.29501e-05
0.000105064
0.000114358
0.000121145
0.000133238
0.000138986
0.00014684
3.05783e-05
3.25196e-05
3.45931e-05
3.60685e-05
3.95475e-05
4.15018e-05
4.45621e-05
4.84749e-05
5.0635e-05
5.59974e-05
5.89146e-05
6.28257e-05
3.09105e-05
3.52746e-05
3.96429e-05
4.45913e-05
5.3297e-05
5.69238e-05
6.4048e-05
6.90684e-05
7.27565e-05
8.00845e-05
8.24455e-05
8.61039e-05
9.92638e-05
0.000172019
0.000219629
0.00024896
0.000266441
0.000266725
0.000265109
0.000260395
0.000255617
0.000251106
0.000244626
0.000241226
9.59665e-05
0.000172229
0.000214401
0.00024863
0.000271005
0.000276303
0.000276156
0.000274879
0.000272211
0.000270282
0.000265516
0.000263456
9.86571e-05
0.000181844
0.000223008
0.000254256
0.000276025
0.000279074
0.000278601
0.000277111
0.000274472
0.000273005
0.000268972
0.000267349
9.96357e-05
0.000185163
0.000227316
0.000257622
0.00027928
0.000281597
0.000280882
0.000278988
0.000276031
0.000274334
0.00027009
0.000267974
9.98455e-05
0.000186106
0.000228693
0.000258736
0.000280393
0.000282819
0.000282067
0.000280105
0.000277006
0.000275111
0.000270623
0.000268101
9.98458e-05
0.000186108
0.000228693
0.000258736
0.000280394
0.000282822
0.000282071
0.00028011
0.000277012
0.000275118
0.00027063
0.000268107
9.96368e-05
0.000185168
0.000227316
0.000257621
0.00027928
0.000281606
0.000280893
0.000279003
0.000276048
0.000274352
0.000270109
0.000267992
9.86585e-05
0.00018185
0.000223006
0.000254251
0.000276023
0.000279086
0.000278616
0.000277133
0.000274497
0.000273032
0.000269001
0.000267375
9.59693e-05
0.000172236
0.000214396
0.00024862
0.000271
0.000276316
0.000276172
0.000274905
0.000272239
0.000270313
0.000265547
0.000263484
9.92689e-05
0.000172018
0.000219622
0.000248944
0.000266441
0.000266735
0.000265123
0.000260422
0.000255644
0.000251133
0.000244654
0.000241251
3.09105e-05
3.52729e-05
3.96453e-05
4.45874e-05
5.33001e-05
5.6927e-05
6.40485e-05
6.90771e-05
7.27625e-05
8.00978e-05
8.24589e-05
8.61184e-05
3.06451e-05
3.68763e-05
5.05089e-05
5.91091e-05
6.67303e-05
7.30517e-05
7.69194e-05
8.06586e-05
8.74726e-05
8.99125e-05
8.98937e-05
8.9601e-05
0.000260537
0.000315504
0.000375649
0.000375131
0.000369728
0.000357002
0.000339483
0.000322736
0.000309669
0.000293126
0.000278831
0.000266167
0.000319949
0.000419844
0.000434919
0.000425828
0.000406431
0.000385369
0.000365075
0.000346867
0.000333114
0.000318097
0.000304306
0.000293531
0.000328324
0.000451409
0.000453539
0.000441864
0.000418108
0.000393393
0.000371711
0.000352715
0.000338097
0.000323806
0.000310675
0.000301372
0.000332329
0.000462217
0.000461867
0.00044915
0.000423843
0.000397743
0.000375122
0.000355446
0.000340068
0.000325737
0.000312806
0.000304173
0.000334465
0.000465978
0.000465482
0.000452296
0.000426383
0.000399858
0.00037679
0.000356771
0.000340958
0.000326458
0.000313546
0.000305203
0.000334465
0.000465979
0.000465483
0.000452297
0.000426385
0.00039986
0.000376793
0.000356775
0.000340961
0.000326462
0.000313549
0.000305207
0.000332331
0.00046222
0.00046187
0.000449154
0.000423847
0.000397749
0.000375131
0.000355456
0.000340078
0.000325747
0.000312816
0.000304183
0.000328325
0.000451409
0.000453542
0.000441868
0.000418114
0.000393402
0.000371725
0.000352729
0.000338112
0.000323822
0.000310688
0.000301386
0.000319947
0.000419842
0.000434923
0.000425834
0.000406439
0.000385382
0.000365092
0.000346885
0.000333132
0.000318115
0.000304321
0.000293548
0.000260531
0.000315502
0.000375657
0.000375142
0.000369744
0.000357027
0.000339511
0.000322759
0.000309686
0.000293143
0.000278848
0.000266191
3.06447e-05
3.68758e-05
5.05106e-05
5.91113e-05
6.67354e-05
7.30584e-05
7.69257e-05
8.067e-05
8.74934e-05
8.99389e-05
8.99176e-05
8.96219e-05
2.06253e-05
2.2862e-05
3.05218e-05
3.94156e-05
4.87687e-05
5.68211e-05
6.30698e-05
6.95606e-05
7.26256e-05
7.30316e-05
7.30089e-05
7.20043e-05
7.61758e-05
0.000105016
0.000175945
0.000222926
0.000253483
0.000271187
0.000271218
0.000268775
0.000263139
0.000250981
0.000239861
0.000225081
0.000100776
0.000169437
0.000240674
0.000283781
0.000307058
0.000313756
0.00031162
0.000306024
0.000298077
0.000286535
0.000277028
0.00026846
0.000109739
0.000197416
0.000266861
0.00030883
0.000329209
0.000330756
0.000327517
0.000319856
0.000310705
0.000299748
0.000291326
0.000286065
0.000113879
0.000208293
0.000278077
0.000319981
0.000338764
0.000338658
0.000334677
0.000325693
0.000315898
0.000305211
0.000297484
0.000294108
0.000115632
0.000212048
0.000282356
0.000324439
0.000342476
0.000342019
0.000337529
0.00032793
0.000317843
0.000307249
0.000299841
0.00029749
0.000115632
0.000212047
0.000282354
0.000324439
0.000342475
0.000342018
0.000337529
0.00032793
0.000317843
0.000307249
0.000299841
0.00029749
0.000113879
0.000208289
0.000278073
0.000319979
0.000338762
0.000338657
0.000334677
0.000325694
0.000315899
0.000305213
0.000297485
0.000294111
0.000109738
0.000197408
0.000266854
0.000308827
0.000329207
0.000330756
0.000327519
0.000319857
0.000310707
0.000299751
0.000291328
0.000286069
0.000100773
0.000169427
0.000240669
0.000283782
0.00030706
0.000313762
0.000311626
0.00030603
0.000298082
0.000286542
0.000277032
0.000268468
7.61723e-05
0.000105014
0.000175956
0.000222949
0.000253509
0.000271219
0.00027124
0.000268792
0.000263153
0.000250998
0.000239878
0.000225101
2.06245e-05
2.28619e-05
3.05254e-05
3.94228e-05
4.87775e-05
5.6832e-05
6.30926e-05
6.95898e-05
7.26568e-05
7.30514e-05
7.30267e-05
7.20208e-05
1.86235e-05
1.85133e-05
2.07622e-05
2.47022e-05
2.99478e-05
3.5773e-05
4.17535e-05
4.68704e-05
4.96414e-05
5.15359e-05
5.30048e-05
5.35348e-05
4.26646e-05
4.73899e-05
7.04005e-05
9.87607e-05
0.000128935
0.000155487
0.00017059
0.000180753
0.000183006
0.000181596
0.000179387
0.000176029
5.53025e-05
7.47199e-05
0.000109489
0.00014467
0.000179096
0.000201497
0.000214972
0.000223071
0.00022536
0.000225262
0.000226079
0.000228192
6.10188e-05
9.02959e-05
0.000130562
0.000169421
0.000204463
0.000224048
0.00023644
0.000242855
0.000245035
0.000245786
0.000248196
0.000253432
6.37225e-05
9.78362e-05
0.000140834
0.000181748
0.000216157
0.000234719
0.000246599
0.000252112
0.000254273
0.000255549
0.000258967
0.000265986
6.4861e-05
0.000100829
0.000144933
0.000186673
0.000220715
0.000239002
0.000250621
0.000255784
0.00025796
0.000259501
0.000263425
0.000271294
6.4861e-05
0.000100828
0.000144931
0.00018667
0.000220712
0.000239
0.000250619
0.000255782
0.000257958
0.0002595
0.000263423
0.000271293
6.37223e-05
9.78328e-05
0.000140828
0.000181742
0.00021615
0.000234712
0.000246593
0.000252106
0.000254268
0.000255545
0.000258963
0.000265982
6.1018e-05
9.02906e-05
0.000130555
0.000169413
0.000204454
0.000224041
0.000236434
0.000242848
0.00024503
0.000245782
0.000248192
0.000253426
5.53009e-05
7.47147e-05
0.000109485
0.000144668
0.000179094
0.000201498
0.000214973
0.000223072
0.000225361
0.000225263
0.000226078
0.000228188
4.26623e-05
4.73875e-05
7.04063e-05
9.87776e-05
0.000128958
0.000155516
0.00017061
0.000180771
0.000183024
0.000181611
0.000179396
0.000176025
1.86225e-05
1.85123e-05
2.07642e-05
2.47075e-05
2.99553e-05
3.57846e-05
4.17721e-05
4.68898e-05
4.96565e-05
5.1548e-05
5.30135e-05
5.35392e-05
1.86218e-05
1.7722e-05
1.83956e-05
2.01564e-05
2.27612e-05
2.60236e-05
2.96449e-05
3.33454e-05
3.63751e-05
3.93632e-05
4.22695e-05
4.4941e-05
3.67613e-05
3.73502e-05
4.32489e-05
5.46538e-05
7.00182e-05
8.72935e-05
0.000102181
0.000114808
0.000123211
0.000130644
0.000137961
0.000146372
4.42622e-05
5.16341e-05
6.34711e-05
8.09091e-05
0.000102489
0.000122298
0.000139604
0.000153676
0.000164121
0.000173821
0.000184328
0.000196076
4.81884e-05
6.0485e-05
7.65108e-05
9.79195e-05
0.000122434
0.000143171
0.000161076
0.000175154
0.000186431
0.000197206
0.000209298
0.000223101
5.02201e-05
6.54351e-05
8.38817e-05
0.000107497
0.000133071
0.000154294
0.00017233
0.000186325
0.000197996
0.000209413
0.00022245
0.000237447
5.11297e-05
6.76217e-05
8.71152e-05
0.000111645
0.000137578
0.000158982
0.000177067
0.00019104
0.000202918
0.000214645
0.000228132
0.000243687
5.11298e-05
6.76212e-05
8.71142e-05
0.000111643
0.000137575
0.000158979
0.000177065
0.000191037
0.000202915
0.000214643
0.000228129
0.000243684
5.02201e-05
6.54336e-05
8.38788e-05
0.000107492
0.000133065
0.000154287
0.000172324
0.000186319
0.000197991
0.000209407
0.000222443
0.000237439
4.81882e-05
6.04828e-05
7.65073e-05
9.79145e-05
0.000122427
0.000143164
0.00016107
0.000175148
0.000186425
0.000197199
0.000209289
0.000223089
4.42616e-05
5.16314e-05
6.34692e-05
8.09087e-05
0.000102489
0.000122299
0.000139605
0.000153677
0.000164121
0.000173818
0.00018432
0.000196062
3.67597e-05
3.73471e-05
4.32503e-05
5.46631e-05
7.00345e-05
8.7314e-05
0.0001022
0.000114825
0.000123224
0.000130648
0.000137956
0.000146353
1.86205e-05
1.77204e-05
1.83964e-05
2.01603e-05
2.2767e-05
2.6031e-05
2.96532e-05
3.3354e-05
3.63821e-05
3.93671e-05
4.22698e-05
4.49369e-05
1.8166e-05
1.74579e-05
1.76687e-05
1.87052e-05
2.02531e-05
2.23126e-05
2.48078e-05
2.76329e-05
3.05973e-05
3.3975e-05
3.73745e-05
4.09849e-05
3.64736e-05
3.52381e-05
3.72834e-05
4.25142e-05
5.01353e-05
5.98555e-05
7.05009e-05
8.13944e-05
9.18529e-05
0.00010314
0.00011502
0.000127999
4.27927e-05
4.58625e-05
5.11617e-05
5.9756e-05
7.14343e-05
8.4666e-05
9.87732e-05
0.000112931
0.000126539
0.000140656
0.000155608
0.000171356
4.61494e-05
5.2433e-05
6.04093e-05
7.16352e-05
8.58915e-05
0.000101108
0.00011708
0.000132565
0.000147588
0.000163033
0.000179518
0.00019687
4.79614e-05
5.62814e-05
6.60086e-05
7.88707e-05
9.44718e-05
0.00011077
0.000127587
0.000143644
0.000159333
0.000175492
0.000192838
0.000211102
4.87882e-05
5.80491e-05
6.86003e-05
8.22077e-05
9.83766e-05
0.000115156
0.000132286
0.000148575
0.000164556
0.000181038
0.000198768
0.000217443
4.87882e-05
5.80488e-05
6.85998e-05
8.22068e-05
9.83753e-05
0.000115154
0.000132285
0.000148573
0.000164554
0.000181036
0.000198765
0.000217439
4.79615e-05
5.62805e-05
6.60072e-05
7.88685e-05
9.44686e-05
0.000110766
0.000127583
0.00014364
0.000159328
0.000175486
0.000192829
0.000211091
4.61493e-05
5.24317e-05
6.04077e-05
7.16334e-05
8.58892e-05
0.000101106
0.000117076
0.000132561
0.000147583
0.000163026
0.000179507
0.000196854
4.27923e-05
4.58605e-05
5.11609e-05
5.97573e-05
7.14371e-05
8.46699e-05
9.87767e-05
0.000112934
0.000126538
0.00014065
0.000155596
0.000171337
3.6472e-05
3.52346e-05
3.72835e-05
4.25206e-05
5.01478e-05
5.98717e-05
7.05169e-05
8.1408e-05
9.186e-05
0.000103138
0.000115008
0.000127976
1.81646e-05
1.74561e-05
1.76691e-05
1.87087e-05
2.02584e-05
2.23188e-05
2.4814e-05
2.76383e-05
3.06007e-05
3.39751e-05
3.73713e-05
4.09775e-05
1.84698e-05
1.72354e-05
1.70749e-05
1.77308e-05
1.89542e-05
2.05806e-05
2.25909e-05
2.50055e-05
2.78163e-05
3.10274e-05
3.42443e-05
3.77442e-05
3.54404e-05
3.45006e-05
3.49982e-05
3.78278e-05
4.22651e-05
4.84957e-05
5.62997e-05
6.53812e-05
7.55373e-05
8.69884e-05
9.9168e-05
0.000111367
4.03467e-05
4.34564e-05
4.64127e-05
5.13846e-05
5.84843e-05
6.76417e-05
7.86155e-05
9.09285e-05
0.000104263
0.000118713
0.000134008
0.000149284
4.28713e-05
4.88891e-05
5.39413e-05
6.07441e-05
6.97728e-05
8.08273e-05
9.36914e-05
0.000107727
0.000122691
0.000138652
0.000155541
0.000172482
4.42842e-05
5.21283e-05
5.85986e-05
6.66403e-05
7.68341e-05
8.8971e-05
0.000102814
0.000117702
0.000133464
0.00015022
0.000167968
0.000185832
4.49473e-05
5.36427e-05
6.08053e-05
6.94503e-05
8.01796e-05
9.27987e-05
0.000107056
0.000122298
0.000138398
0.000155496
0.000173609
0.00019187
4.49474e-05
5.36426e-05
6.0805e-05
6.94499e-05
8.0179e-05
9.27979e-05
0.000107055
0.000122297
0.000138396
0.000155494
0.000173606
0.000191866
4.42844e-05
5.21277e-05
5.85979e-05
6.66394e-05
7.68328e-05
8.89694e-05
0.000102812
0.000117699
0.00013346
0.000150214
0.000167959
0.000185821
4.28715e-05
4.88882e-05
5.39406e-05
6.0744e-05
6.97729e-05
8.08275e-05
9.36911e-05
0.000107725
0.000122688
0.000138645
0.000155529
0.000172466
4.03465e-05
4.34546e-05
4.64122e-05
5.13865e-05
5.84885e-05
6.76472e-05
7.86207e-05
9.09319e-05
0.000104262
0.000118707
0.000133995
0.000149265
3.54384e-05
3.44966e-05
3.49975e-05
3.7833e-05
4.22761e-05
4.85103e-05
5.63144e-05
6.53927e-05
7.55421e-05
8.69841e-05
9.91547e-05
0.000111347
1.8468e-05
1.72331e-05
1.70746e-05
1.77339e-05
1.89594e-05
2.05867e-05
2.25966e-05
2.50099e-05
2.78185e-05
3.10265e-05
3.42402e-05
3.77371e-05
1.81152e-05
1.67543e-05
1.63454e-05
1.68807e-05
1.79222e-05
1.9336e-05
2.11196e-05
2.33129e-05
2.59058e-05
2.88657e-05
3.19046e-05
3.50395e-05
3.51439e-05
3.42789e-05
3.35733e-05
3.51495e-05
3.82704e-05
4.28168e-05
4.88385e-05
5.63279e-05
6.52579e-05
7.54916e-05
8.62351e-05
9.61702e-05
3.93863e-05
4.23346e-05
4.3644e-05
4.68029e-05
5.17996e-05
5.86303e-05
6.72835e-05
7.75974e-05
8.93894e-05
0.000102448
0.000116161
0.000129079
4.14808e-05
4.70958e-05
5.02069e-05
5.47677e-05
6.11966e-05
6.95716e-05
7.9872e-05
9.18305e-05
0.000105209
0.000119789
0.000135093
0.000149718
4.2676e-05
4.99175e-05
5.42674e-05
5.9818e-05
6.71715e-05
7.64664e-05
8.76799e-05
0.000100507
0.0001147
0.000130085
0.000146245
0.00016185
4.32462e-05
5.12428e-05
5.6204e-05
6.22526e-05
7.00508e-05
7.97677e-05
9.13832e-05
0.000104584
0.000119124
0.000134848
0.000151366
0.000167386
4.32463e-05
5.12427e-05
5.62038e-05
6.22524e-05
7.00506e-05
7.97674e-05
9.13828e-05
0.000104584
0.000119123
0.000134846
0.000151363
0.000167382
4.26763e-05
4.99172e-05
5.4267e-05
5.98179e-05
6.71714e-05
7.64663e-05
8.76795e-05
0.000100506
0.000114698
0.00013008
0.000146237
0.000161839
4.14811e-05
4.7095e-05
5.02065e-05
5.47684e-05
6.11982e-05
6.95736e-05
7.98737e-05
9.1831e-05
0.000105207
0.000119783
0.000135082
0.000149703
3.9386e-05
4.2333e-05
4.36437e-05
4.68053e-05
5.18048e-05
5.86371e-05
6.72901e-05
7.7602e-05
8.93899e-05
0.000102443
0.000116149
0.000129062
3.51416e-05
3.42746e-05
3.35724e-05
3.51545e-05
3.82812e-05
4.28312e-05
4.88531e-05
5.63391e-05
6.52625e-05
7.54877e-05
8.62237e-05
9.61537e-05
1.8113e-05
1.67513e-05
1.63451e-05
1.68838e-05
1.79276e-05
1.93422e-05
2.11252e-05
2.33169e-05
2.59075e-05
2.88642e-05
3.19002e-05
3.50339e-05
1.83723e-05
1.65587e-05
1.58309e-05
1.61157e-05
1.70379e-05
1.83493e-05
2.00195e-05
2.20906e-05
2.45507e-05
2.72851e-05
3.0128e-05
3.30507e-05
3.50573e-05
3.37681e-05
3.22416e-05
3.30626e-05
3.54273e-05
3.91048e-05
4.40637e-05
5.03891e-05
5.81148e-05
6.70131e-05
7.62111e-05
8.43873e-05
3.86946e-05
4.12526e-05
4.15381e-05
4.35236e-05
4.72897e-05
5.27258e-05
5.98046e-05
6.84791e-05
7.86345e-05
8.99796e-05
0.000101743
0.000112338
4.04248e-05
4.55621e-05
4.74722e-05
5.05743e-05
5.54331e-05
6.2083e-05
7.05143e-05
8.05995e-05
9.21486e-05
0.000104865
0.000118066
0.000130181
4.14168e-05
4.80882e-05
5.11126e-05
5.50303e-05
6.06183e-05
6.80108e-05
7.72161e-05
8.80712e-05
0.000100358
0.000113804
0.000127795
0.000140837
4.18945e-05
4.92722e-05
5.28468e-05
5.71834e-05
6.31311e-05
7.08716e-05
8.04249e-05
9.1617e-05
0.00010422
0.000117973
0.000132291
0.000145735
4.18946e-05
4.92721e-05
5.28467e-05
5.71834e-05
6.31312e-05
7.08718e-05
8.0425e-05
9.16169e-05
0.000104219
0.000117971
0.000132289
0.000145732
4.1417e-05
4.8088e-05
5.11125e-05
5.50306e-05
6.06191e-05
6.80118e-05
7.72169e-05
8.80714e-05
0.000100356
0.0001138
0.000127788
0.000140829
4.04249e-05
4.55614e-05
4.7472e-05
5.05755e-05
5.54356e-05
6.20863e-05
7.05175e-05
8.06015e-05
9.2148e-05
0.00010486
0.000118058
0.000130169
3.86942e-05
4.12509e-05
4.15378e-05
4.35264e-05
4.72955e-05
5.27335e-05
5.98123e-05
6.84847e-05
7.8636e-05
8.99755e-05
0.000101734
0.000112325
3.50546e-05
3.37635e-05
3.22404e-05
3.30675e-05
3.54382e-05
3.91192e-05
4.40784e-05
5.04004e-05
5.81194e-05
6.70097e-05
7.62013e-05
8.43744e-05
1.83701e-05
1.65551e-05
1.583e-05
1.61185e-05
1.70433e-05
1.83555e-05
2.0025e-05
2.20943e-05
2.4552e-05
2.72835e-05
3.01242e-05
3.30467e-05
1.81761e-05
1.59278e-05
1.50907e-05
1.53944e-05
1.62841e-05
1.75395e-05
1.91385e-05
2.11192e-05
2.34658e-05
2.60412e-05
2.87064e-05
3.1618e-05
3.49019e-05
3.33157e-05
3.10912e-05
3.14034e-05
3.33555e-05
3.65304e-05
4.08438e-05
4.63815e-05
5.31849e-05
6.10329e-05
6.91096e-05
7.62415e-05
3.82424e-05
4.03945e-05
3.97383e-05
4.09263e-05
4.39434e-05
4.85203e-05
5.45612e-05
6.2047e-05
7.08974e-05
8.0823e-05
9.10505e-05
0.000100143
3.9756e-05
4.43808e-05
4.52074e-05
4.72928e-05
5.11534e-05
5.66798e-05
6.38085e-05
7.24531e-05
8.24638e-05
9.35455e-05
0.000104985
0.000115327
4.0619e-05
4.66904e-05
4.8535e-05
5.12972e-05
5.57309e-05
6.18441e-05
6.96001e-05
7.88807e-05
8.95054e-05
0.000101196
0.000113308
0.00012444
4.10363e-05
4.77677e-05
5.01147e-05
5.323e-05
5.79508e-05
6.43422e-05
7.23829e-05
8.19432e-05
9.28306e-05
0.000104775
0.000117166
0.000128644
4.10364e-05
4.77677e-05
5.01146e-05
5.32302e-05
5.79511e-05
6.43427e-05
7.23834e-05
8.19435e-05
9.28304e-05
0.000104774
0.000117164
0.000128642
4.06192e-05
4.66901e-05
4.8535e-05
5.12978e-05
5.57322e-05
6.18458e-05
6.96018e-05
7.88818e-05
8.95051e-05
0.000101194
0.000113303
0.000124434
3.97561e-05
4.43801e-05
4.52074e-05
4.72943e-05
5.11566e-05
5.6684e-05
6.38128e-05
7.24561e-05
8.24643e-05
9.35423e-05
0.000104978
0.000115318
3.82418e-05
4.03927e-05
3.97382e-05
4.09294e-05
4.39498e-05
4.85287e-05
5.45695e-05
6.20532e-05
7.08995e-05
8.08198e-05
9.10423e-05
0.000100132
3.4899e-05
3.33114e-05
3.10903e-05
3.14084e-05
3.33665e-05
3.65448e-05
4.08582e-05
4.63924e-05
5.31892e-05
6.10296e-05
6.91011e-05
7.62314e-05
1.81735e-05
1.59238e-05
1.50897e-05
1.53974e-05
1.62896e-05
1.75458e-05
1.9144e-05
2.11228e-05
2.34667e-05
2.60398e-05
2.87031e-05
3.16148e-05
1.82572e-05
1.55884e-05
1.45244e-05
1.47112e-05
1.55651e-05
1.67904e-05
1.83316e-05
2.02294e-05
2.24726e-05
2.49113e-05
2.74408e-05
3.03325e-05
3.485e-05
3.2571e-05
2.98249e-05
2.99168e-05
3.16813e-05
3.45994e-05
3.85272e-05
4.354e-05
4.96648e-05
5.67178e-05
6.40447e-05
7.06309e-05
3.78844e-05
3.9371e-05
3.80483e-05
3.87652e-05
4.13603e-05
4.54266e-05
5.08071e-05
5.74887e-05
6.54104e-05
7.43185e-05
8.353e-05
9.18394e-05
3.92319e-05
4.31424e-05
4.31756e-05
4.46106e-05
4.78659e-05
5.26882e-05
5.89537e-05
6.65907e-05
7.54835e-05
8.53764e-05
9.56306e-05
0.000105011
3.9998e-05
4.53024e-05
4.62668e-05
4.82641e-05
5.19741e-05
5.72602e-05
6.40298e-05
7.21816e-05
8.15738e-05
9.19685e-05
0.000102791
0.000112843
4.03692e-05
4.63038e-05
4.77276e-05
5.00234e-05
5.39625e-05
5.94694e-05
6.64671e-05
7.48431e-05
8.44454e-05
9.50452e-05
0.000106102
0.000116447
4.03692e-05
4.63038e-05
4.77276e-05
5.00236e-05
5.39629e-05
5.947e-05
6.64678e-05
7.48436e-05
8.44454e-05
9.50446e-05
0.000106101
0.000116445
3.99981e-05
4.53021e-05
4.62668e-05
4.82649e-05
5.19758e-05
5.72625e-05
6.40322e-05
7.21834e-05
8.15742e-05
9.19667e-05
0.000102787
0.000112837
3.92318e-05
4.31416e-05
4.31757e-05
4.46124e-05
4.78696e-05
5.26931e-05
5.89586e-05
6.65944e-05
7.54845e-05
8.53739e-05
9.56246e-05
0.000105003
3.78835e-05
3.93692e-05
3.80483e-05
3.87685e-05
4.1367e-05
4.54353e-05
5.08158e-05
5.74951e-05
6.54127e-05
7.43157e-05
8.35228e-05
9.18301e-05
3.48469e-05
3.25664e-05
2.9824e-05
2.99217e-05
3.16922e-05
3.46137e-05
3.85413e-05
4.35505e-05
4.96689e-05
5.67147e-05
6.40369e-05
7.06225e-05
1.82544e-05
1.55846e-05
1.45234e-05
1.4714e-05
1.55707e-05
1.67967e-05
1.83372e-05
2.02329e-05
2.24735e-05
2.491e-05
2.74381e-05
3.03299e-05
1.79759e-05
1.48749e-05
1.37735e-05
1.40262e-05
1.48811e-05
1.60647e-05
1.75428e-05
1.93514e-05
2.14797e-05
2.38453e-05
2.62643e-05
2.90433e-05
3.46363e-05
3.16129e-05
2.85463e-05
2.85708e-05
3.02674e-05
3.30179e-05
3.66745e-05
4.12949e-05
4.68984e-05
5.33389e-05
6.01214e-05
6.64642e-05
3.75321e-05
3.8224e-05
3.63869e-05
3.6876e-05
3.92672e-05
4.30261e-05
4.79704e-05
5.40922e-05
6.13462e-05
6.95246e-05
7.8068e-05
8.60044e-05
3.87703e-05
4.18353e-05
4.12431e-05
4.23202e-05
4.52493e-05
4.96428e-05
5.53405e-05
6.22863e-05
7.0395e-05
7.94613e-05
8.89596e-05
9.78813e-05
3.94685e-05
4.3886e-05
4.41532e-05
4.57009e-05
4.90035e-05
5.37782e-05
5.98954e-05
6.72726e-05
7.58061e-05
8.531e-05
9.53166e-05
0.000104843
3.98064e-05
4.48314e-05
4.55218e-05
4.73249e-05
5.08154e-05
5.57702e-05
6.20747e-05
6.96363e-05
7.83443e-05
8.80242e-05
9.82384e-05
0.000108027
3.98065e-05
4.48313e-05
4.55219e-05
4.73252e-05
5.0816e-05
5.57709e-05
6.20756e-05
6.9637e-05
7.83445e-05
8.80238e-05
9.82373e-05
0.000108025
3.94685e-05
4.38856e-05
4.41533e-05
4.57018e-05
4.90054e-05
5.37808e-05
5.98981e-05
6.72747e-05
7.58067e-05
8.53086e-05
9.5313e-05
0.000104838
3.877e-05
4.18344e-05
4.12432e-05
4.23221e-05
4.52533e-05
4.9648e-05
5.53458e-05
6.22902e-05
7.03963e-05
7.94593e-05
8.89542e-05
9.78739e-05
3.75311e-05
3.82221e-05
3.6387e-05
3.68794e-05
3.9274e-05
4.30348e-05
4.79791e-05
5.40986e-05
6.13485e-05
6.95221e-05
7.80615e-05
8.5996e-05
3.46334e-05
3.16089e-05
2.85459e-05
2.85758e-05
3.02782e-05
3.30319e-05
3.66883e-05
4.13049e-05
4.69022e-05
5.33361e-05
6.01139e-05
6.64565e-05
1.79721e-05
1.48704e-05
1.37724e-05
1.40293e-05
1.48866e-05
1.6071e-05
1.75483e-05
1.93548e-05
2.14805e-05
2.38441e-05
2.62624e-05
2.90411e-05
1.78285e-05
1.42117e-05
1.30841e-05
1.33598e-05
1.42011e-05
1.53413e-05
1.67517e-05
1.84663e-05
2.04832e-05
2.27188e-05
2.50658e-05
2.76875e-05
3.44231e-05
3.04334e-05
2.71639e-05
2.72537e-05
2.89551e-05
3.1589e-05
3.50264e-05
3.93246e-05
4.44972e-05
5.04322e-05
5.67793e-05
6.30079e-05
3.71607e-05
3.68642e-05
3.46843e-05
3.51387e-05
3.7456e-05
4.1008e-05
4.56248e-05
5.13117e-05
5.80404e-05
6.56507e-05
7.37104e-05
8.14697e-05
3.83207e-05
4.03565e-05
3.93215e-05
4.02715e-05
4.30532e-05
4.71696e-05
5.24616e-05
5.88958e-05
6.64155e-05
7.48641e-05
8.38329e-05
9.25351e-05
3.89696e-05
4.23305e-05
4.20891e-05
4.34413e-05
4.65447e-05
5.09953e-05
5.66573e-05
6.34761e-05
7.13825e-05
8.02385e-05
8.96838e-05
9.89534e-05
3.92828e-05
4.3236e-05
4.33865e-05
4.49589e-05
4.82251e-05
5.28317e-05
5.86573e-05
6.5638e-05
7.37009e-05
8.27203e-05
9.23604e-05
0.000101874
3.92828e-05
4.32359e-05
4.33865e-05
4.49592e-05
4.82257e-05
5.28326e-05
5.86582e-05
6.56387e-05
7.37012e-05
8.27199e-05
9.23594e-05
0.000101873
3.89696e-05
4.23301e-05
4.20891e-05
4.34424e-05
4.65468e-05
5.09981e-05
5.66602e-05
6.34783e-05
7.13833e-05
8.02373e-05
8.96805e-05
9.89486e-05
3.83202e-05
4.03556e-05
3.93216e-05
4.02735e-05
4.30572e-05
4.71749e-05
5.2467e-05
5.88999e-05
6.64169e-05
7.48623e-05
8.3828e-05
9.25281e-05
3.71595e-05
3.68622e-05
3.46845e-05
3.51421e-05
3.74629e-05
4.10167e-05
4.56334e-05
5.1318e-05
5.80426e-05
6.56483e-05
7.37042e-05
8.14618e-05
3.442e-05
3.04296e-05
2.71636e-05
2.72587e-05
2.89658e-05
3.16028e-05
3.50397e-05
3.93342e-05
4.45009e-05
5.04295e-05
5.67722e-05
6.3e-05
1.78251e-05
1.42078e-05
1.30832e-05
1.33628e-05
1.42065e-05
1.53475e-05
1.67571e-05
1.84696e-05
2.0484e-05
2.27175e-05
2.5064e-05
2.76859e-05
1.74084e-05
1.32943e-05
1.23048e-05
1.26999e-05
1.35379e-05
1.4627e-05
1.59559e-05
1.75636e-05
1.94534e-05
2.15715e-05
2.3823e-05
2.62967e-05
3.39896e-05
2.8988e-05
2.57182e-05
2.59764e-05
2.77107e-05
3.02327e-05
3.34642e-05
3.74664e-05
4.22573e-05
4.77601e-05
5.37307e-05
5.98288e-05
3.66986e-05
3.52771e-05
3.29205e-05
3.34925e-05
3.58024e-05
3.91845e-05
4.35148e-05
4.88198e-05
5.50902e-05
6.22109e-05
6.98637e-05
7.75035e-05
3.78199e-05
3.86699e-05
3.73691e-05
3.83701e-05
4.11035e-05
4.50098e-05
4.99673e-05
5.59725e-05
6.29956e-05
7.0924e-05
7.94523e-05
8.80056e-05
3.8437e-05
4.05855e-05
4.00181e-05
4.13729e-05
4.43971e-05
4.86127e-05
5.39131e-05
6.02785e-05
6.76708e-05
7.59926e-05
8.49759e-05
9.40659e-05
3.87325e-05
4.14616e-05
4.12577e-05
4.28064e-05
4.59785e-05
5.03382e-05
5.57898e-05
6.23066e-05
6.98482e-05
7.83282e-05
8.74993e-05
9.68186e-05
3.87324e-05
4.14615e-05
4.12577e-05
4.28068e-05
4.59791e-05
5.03391e-05
5.57907e-05
6.23073e-05
6.98485e-05
7.83279e-05
8.74983e-05
9.68172e-05
3.84368e-05
4.05851e-05
4.00182e-05
4.1374e-05
4.43992e-05
4.86156e-05
5.39161e-05
6.02808e-05
6.76717e-05
7.59915e-05
8.49729e-05
9.40613e-05
3.78193e-05
3.86689e-05
3.73693e-05
3.83722e-05
4.11076e-05
4.50152e-05
4.99726e-05
5.59764e-05
6.29971e-05
7.09223e-05
7.94477e-05
8.79989e-05
3.66971e-05
3.52752e-05
3.29207e-05
3.3496e-05
3.58091e-05
3.9193e-05
4.35232e-05
4.88258e-05
5.50924e-05
6.22087e-05
6.98579e-05
7.74957e-05
3.39864e-05
2.89844e-05
2.57181e-05
2.59813e-05
2.77211e-05
3.0246e-05
3.34769e-05
3.74755e-05
4.22607e-05
4.77576e-05
5.3724e-05
5.98207e-05
1.7405e-05
1.32905e-05
1.2304e-05
1.27031e-05
1.35431e-05
1.4633e-05
1.59611e-05
1.75668e-05
1.94542e-05
2.15703e-05
2.3821e-05
2.62952e-05
1.68166e-05