/*--------------------------------*- C++ -*----------------------------------*\
| =========                 |                                                 |
| \\      /  F ield         | OpenFOAM: The Open Source CFD Toolbox           |
|  \\    /   O peration     | Version:  2.3.1                                 |
|   \\  /    A nd           | Web:      www.OpenFOAM.org                      |
|    \\/     M anipulation  |                                                 |
\*---------------------------------------------------------------------------*/
FoamFile
{
    version     2.0;
    format      ascii;
    class       volScalarField;
    location    "20";
    object      k_0;
}
// * * * * * * * * * * * * * * * * * * * * * * * * * * * * * * * * * * * * * //

dimensions      [0 2 -2 0 0 0 0];

internalField   nonuniform List<scalar> 
37758
(
3.09679e-05
3.26236e-05
3.5677e-05
3.68919e-05
3.91185e-05
4.09885e-05
4.18523e-05
4.4055e-05
4.50472e-05
4.66653e-05
4.86884e-05
4.94425e-05
3.17415e-05
3.50362e-05
4.04168e-05
4.28948e-05
4.72611e-05
5.10919e-05
5.31398e-05
5.76467e-05
6.00617e-05
6.30916e-05
6.72152e-05
6.89605e-05
3.17923e-05
3.50136e-05
4.03941e-05
4.29861e-05
4.71802e-05
5.1181e-05
5.33233e-05
5.78445e-05
6.03518e-05
6.34409e-05
6.77669e-05
6.98936e-05
3.18885e-05
3.48599e-05
4.03755e-05
4.31327e-05
4.70593e-05
5.13602e-05
5.34106e-05
5.77543e-05
6.04647e-05
6.3256e-05
6.79464e-05
7.01534e-05
3.19372e-05
3.4787e-05
4.03595e-05
4.31902e-05
4.70144e-05
5.14616e-05
5.34739e-05
5.77111e-05
6.05327e-05
6.3196e-05
6.815e-05
7.03908e-05
3.19494e-05
3.47652e-05
4.03599e-05
4.32017e-05
4.70062e-05
5.14891e-05
5.34882e-05
5.76979e-05
6.05386e-05
6.31815e-05
6.82499e-05
7.05053e-05
3.19495e-05
3.47651e-05
4.03597e-05
4.32018e-05
4.7006e-05
5.14892e-05
5.34883e-05
5.76979e-05
6.05387e-05
6.31815e-05
6.82501e-05
7.05057e-05
3.19376e-05
3.47867e-05
4.03591e-05
4.31905e-05
4.70139e-05
5.14618e-05
5.34742e-05
5.77109e-05
6.0533e-05
6.31961e-05
6.81506e-05
7.03919e-05
3.1889e-05
3.48594e-05
4.0375e-05
4.31332e-05
4.70586e-05
5.13606e-05
5.34109e-05
5.77539e-05
6.04652e-05
6.32562e-05
6.79473e-05
7.01551e-05
3.17929e-05
3.50129e-05
4.03937e-05
4.29866e-05
4.71794e-05
5.11814e-05
5.33235e-05
5.78441e-05
6.03523e-05
6.34412e-05
6.77681e-05
6.98955e-05
3.17424e-05
3.5035e-05
4.04164e-05
4.28954e-05
4.726e-05
5.1093e-05
5.31403e-05
5.76458e-05
6.00629e-05
6.30912e-05
6.72165e-05
6.89624e-05
3.09686e-05
3.26227e-05
3.56767e-05
3.68922e-05
3.91179e-05
4.09892e-05
4.18527e-05
4.40543e-05
4.50475e-05
4.66646e-05
4.8689e-05
4.94431e-05
3.07269e-05
3.19439e-05
3.42164e-05
3.53172e-05
3.73189e-05
3.90608e-05
4.02921e-05
4.26253e-05
4.38243e-05
4.62739e-05
4.83053e-05
5.01226e-05
3.01903e-05
3.11015e-05
3.22343e-05
3.34977e-05
3.6608e-05
3.85166e-05
4.14244e-05
4.48502e-05
4.70517e-05
5.22766e-05
5.61217e-05
6.04533e-05
3.01929e-05
3.11562e-05
3.21565e-05
3.33104e-05
3.61822e-05
3.82223e-05
4.12844e-05
4.54371e-05
4.83615e-05
5.53567e-05
6.08036e-05
6.72244e-05
3.02033e-05
3.12437e-05
3.23747e-05
3.35405e-05
3.64842e-05
3.86337e-05
4.15702e-05
4.60088e-05
4.90981e-05
5.63449e-05
6.27579e-05
6.89798e-05
3.02101e-05
3.12856e-05
3.24857e-05
3.36542e-05
3.66119e-05
3.88645e-05
4.18443e-05
4.65128e-05
4.97613e-05
5.72015e-05
6.42817e-05
7.01208e-05
3.0213e-05
3.13031e-05
3.25228e-05
3.36855e-05
3.66243e-05
3.8911e-05
4.19592e-05
4.67316e-05
5.007e-05
5.76451e-05
6.50424e-05
7.07615e-05
3.0213e-05
3.1303e-05
3.25228e-05
3.36854e-05
3.66241e-05
3.89111e-05
4.19592e-05
4.67322e-05
5.00711e-05
5.76468e-05
6.50454e-05
7.07647e-05
3.02101e-05
3.12855e-05
3.24856e-05
3.3654e-05
3.66112e-05
3.88647e-05
4.18444e-05
4.65146e-05
4.97643e-05
5.72063e-05
6.42905e-05
7.01301e-05
3.02033e-05
3.12435e-05
3.23746e-05
3.35401e-05
3.64829e-05
3.86337e-05
4.15701e-05
4.60114e-05
4.91024e-05
5.6352e-05
6.27707e-05
6.89929e-05
3.01929e-05
3.11561e-05
3.21565e-05
3.33099e-05
3.61805e-05
3.8222e-05
4.12841e-05
4.54402e-05
4.83665e-05
5.53652e-05
6.0818e-05
6.72384e-05
3.01903e-05
3.11012e-05
3.22344e-05
3.3497e-05
3.66063e-05
3.85167e-05
4.14244e-05
4.48537e-05
4.70567e-05
5.22838e-05
5.61338e-05
6.04636e-05
3.07272e-05
3.19435e-05
3.42161e-05
3.53174e-05
3.73185e-05
3.90614e-05
4.02918e-05
4.26255e-05
4.38248e-05
4.62742e-05
4.83071e-05
5.0123e-05
3.05776e-05
3.2522e-05
3.45915e-05
3.60688e-05
3.95503e-05
4.14998e-05
4.4567e-05
4.84702e-05
5.06319e-05
5.59992e-05
5.89058e-05
6.28276e-05
3.3876e-05
4.35226e-05
5.43671e-05
6.65864e-05
8.45142e-05
9.29506e-05
0.000105073
0.000114339
0.000121135
0.000133222
0.000138954
0.000146828
3.35726e-05
4.3645e-05
5.2258e-05
6.4271e-05
8.35623e-05
9.4035e-05
0.000108144
0.000121265
0.000130791
0.000147071
0.000155146
0.000166027
3.36925e-05
4.48139e-05
5.42112e-05
6.57856e-05
8.56027e-05
9.5941e-05
0.000109647
0.00012321
0.000132866
0.000149979
0.000159206
0.000169584
3.37998e-05
4.51943e-05
5.51154e-05
6.66135e-05
8.66047e-05
9.73743e-05
0.000111047
0.000124828
0.000134831
0.000151896
0.000161706
0.000170867
3.38409e-05
4.52884e-05
5.53606e-05
6.68345e-05
8.67578e-05
9.78657e-05
0.000111669
0.000125584
0.00013589
0.000152952
0.000163002
0.000171495
3.38407e-05
4.52886e-05
5.53606e-05
6.6834e-05
8.67573e-05
9.78669e-05
0.00011167
0.000125588
0.000135896
0.000152958
0.00016301
0.000171502
3.37995e-05
4.51949e-05
5.51152e-05
6.66116e-05
8.66026e-05
9.73775e-05
0.00011105
0.000124839
0.000134846
0.000151913
0.000161727
0.000170887
3.3692e-05
4.48147e-05
5.42104e-05
6.57817e-05
8.55982e-05
9.59447e-05
0.000109651
0.000123226
0.000132887
0.000150004
0.000159238
0.000169613
3.35722e-05
4.36461e-05
5.22568e-05
6.42651e-05
8.3556e-05
9.40383e-05
0.000108149
0.000121284
0.000130815
0.0001471
0.000155181
0.000166058
3.38768e-05
4.35213e-05
5.43663e-05
6.65781e-05
8.45103e-05
9.29539e-05
0.000105078
0.000114358
0.000121156
0.000133247
0.000138984
0.000146852
3.05778e-05
3.25214e-05
3.45919e-05
3.60687e-05
3.95496e-05
4.15005e-05
4.45657e-05
4.84732e-05
5.06351e-05
5.60023e-05
5.89127e-05
6.28315e-05
3.09103e-05
3.52774e-05
3.96384e-05
4.45996e-05
5.32978e-05
5.69235e-05
6.40548e-05
6.90666e-05
7.27634e-05
8.00875e-05
8.24447e-05
8.61074e-05
9.92426e-05
0.000172011
0.000219641
0.000249003
0.000266464
0.00026674
0.000265121
0.000260399
0.000255628
0.000251109
0.00024463
0.000241227
9.59511e-05
0.000172209
0.000214402
0.000248673
0.000271029
0.000276316
0.000276169
0.000274889
0.000272225
0.000270291
0.000265519
0.000263461
9.86415e-05
0.000181823
0.000223002
0.000254295
0.000276047
0.000279086
0.000278614
0.000277122
0.000274488
0.000273016
0.000268975
0.000267355
9.96206e-05
0.000185142
0.000227308
0.000257657
0.000279301
0.00028161
0.000280896
0.000279
0.000276047
0.000274346
0.000270092
0.00026798
9.98304e-05
0.000186086
0.000228684
0.00025877
0.000280415
0.000282832
0.000282082
0.000280118
0.000277023
0.000275123
0.000270625
0.000268106
9.98307e-05
0.000186087
0.000228684
0.00025877
0.000280415
0.000282836
0.000282086
0.000280123
0.000277029
0.00027513
0.000270632
0.000268113
9.96217e-05
0.000185147
0.000227308
0.000257656
0.000279301
0.000281619
0.000280907
0.000279015
0.000276064
0.000274364
0.000270112
0.000267998
9.86429e-05
0.000181828
0.000223
0.00025429
0.000276044
0.000279098
0.000278629
0.000277145
0.000274512
0.000273043
0.000269004
0.000267381
9.59538e-05
0.000172216
0.000214397
0.000248664
0.000271024
0.000276329
0.000276186
0.000274915
0.000272253
0.000270321
0.00026555
0.000263489
9.92477e-05
0.000172011
0.000219634
0.000248987
0.000266464
0.00026675
0.000265136
0.000260426
0.000255654
0.000251136
0.000244657
0.000241253
3.09104e-05
3.52757e-05
3.96408e-05
4.45958e-05
5.33008e-05
5.69267e-05
6.40553e-05
6.90753e-05
7.27694e-05
8.01007e-05
8.24581e-05
8.61219e-05
3.06461e-05
3.68789e-05
5.05118e-05
5.91121e-05
6.6732e-05
7.30528e-05
7.69182e-05
8.06644e-05
8.74808e-05
8.99117e-05
8.98921e-05
8.95984e-05
0.000260552
0.000315514
0.000375662
0.000375144
0.000369735
0.000357003
0.000339481
0.00032274
0.000309673
0.000293121
0.000278834
0.000266154
0.000319965
0.000419848
0.000434927
0.000425837
0.000406435
0.000385374
0.000365077
0.000346872
0.00033312
0.000318094
0.000304308
0.000293526
0.00032834
0.000451412
0.000453546
0.000441872
0.000418112
0.000393398
0.000371715
0.00035272
0.000338103
0.000323805
0.000310677
0.000301372
0.000332346
0.000462221
0.000461873
0.000449159
0.000423848
0.000397749
0.000375127
0.000355452
0.000340074
0.000325736
0.000312808
0.000304175
0.000334482
0.000465982
0.000465488
0.000452304
0.000426389
0.000399865
0.000376794
0.000356778
0.000340963
0.000326457
0.000313548
0.000305207
0.000334483
0.000465983
0.000465489
0.000452306
0.00042639
0.000399867
0.000376797
0.000356781
0.000340967
0.000326461
0.000313551
0.00030521
0.000332348
0.000462224
0.000461875
0.000449162
0.000423852
0.000397755
0.000375136
0.000355462
0.000340084
0.000325746
0.000312817
0.000304185
0.000328342
0.000451413
0.000453549
0.000441876
0.000418118
0.000393408
0.000371729
0.000352735
0.000338118
0.00032382
0.00031069
0.000301386
0.000319963
0.000419847
0.00043493
0.000425842
0.000406443
0.000385387
0.000365094
0.000346891
0.000333137
0.000318112
0.000304322
0.000293543
0.000260546
0.000315512
0.000375669
0.000375154
0.000369751
0.000357028
0.000339509
0.000322764
0.000309689
0.000293138
0.00027885
0.000266177
3.06457e-05
3.68783e-05
5.05134e-05
5.91143e-05
6.67371e-05
7.30595e-05
7.69246e-05
8.06757e-05
8.75016e-05
8.99381e-05
8.99161e-05
8.96192e-05
2.06267e-05
2.28647e-05
3.05244e-05
3.94177e-05
4.87708e-05
5.68216e-05
6.30724e-05
6.95633e-05
7.26242e-05
7.30303e-05
7.30073e-05
7.20009e-05
7.61817e-05
0.000105029
0.000175959
0.000222929
0.000253485
0.000271183
0.000271213
0.000268772
0.000263134
0.000250972
0.000239855
0.000225061
0.000100783
0.000169455
0.000240689
0.000283785
0.000307062
0.000313756
0.000311617
0.000306024
0.000298072
0.000286529
0.000277028
0.000268457
0.000109746
0.000197434
0.000266876
0.000308835
0.000329213
0.000330757
0.000327516
0.000319855
0.000310701
0.000299744
0.000291329
0.00028607
0.000113887
0.00020831
0.000278092
0.000319987
0.000338767
0.00033866
0.000334676
0.000325692
0.000315895
0.000305208
0.000297489
0.000294118
0.000115639
0.000212066
0.000282371
0.000324447
0.000342479
0.00034202
0.000337527
0.000327928
0.000317839
0.000307245
0.000299847
0.000297501
0.00011564
0.000212065
0.00028237
0.000324446
0.000342478
0.00034202
0.000337527
0.000327928
0.000317839
0.000307246
0.000299847
0.000297502
0.000113886
0.000208306
0.000278088
0.000319986
0.000338765
0.000338659
0.000334676
0.000325692
0.000315895
0.000305209
0.00029749
0.00029412
0.000109745
0.000197425
0.000266869
0.000308833
0.00032921
0.000330757
0.000327517
0.000319856
0.000310703
0.000299747
0.000291331
0.000286074
0.00010078
0.000169445
0.000240684
0.000283786
0.000307064
0.000313761
0.000311624
0.000306029
0.000298078
0.000286536
0.000277033
0.000268464
7.61782e-05
0.000105027
0.00017597
0.000222952
0.000253512
0.000271215
0.000271235
0.000268789
0.000263148
0.000250989
0.000239872
0.000225081
2.06259e-05
2.28646e-05
3.0528e-05
3.94248e-05
4.87797e-05
5.68324e-05
6.30953e-05
6.95925e-05
7.26554e-05
7.30502e-05
7.30252e-05
7.20174e-05
1.86248e-05
1.85154e-05
2.07647e-05
2.4705e-05
2.99507e-05
3.57753e-05
4.17559e-05
4.68717e-05
4.96421e-05
5.15373e-05
5.30052e-05
5.35353e-05
4.26672e-05
4.73967e-05
7.04092e-05
9.87672e-05
0.000128941
0.000155488
0.00017059
0.000180752
0.000183002
0.000181592
0.000179386
0.000176031
5.53062e-05
7.47304e-05
0.000109501
0.000144679
0.000179103
0.000201499
0.000214972
0.000223072
0.000225358
0.000225263
0.000226087
0.000228203
6.10229e-05
9.03076e-05
0.000130575
0.00016943
0.000204469
0.00022405
0.00023644
0.000242855
0.000245034
0.000245789
0.000248208
0.000253449
6.37268e-05
9.78484e-05
0.000140847
0.000181757
0.000216163
0.000234721
0.000246598
0.000252113
0.000254273
0.000255554
0.000258982
0.000266006
6.48654e-05
0.000100841
0.000144946
0.000186682
0.00022072
0.000239005
0.00025062
0.000255785
0.00025796
0.000259507
0.000263441
0.000271316
6.48654e-05
0.00010084
0.000144944
0.000186679
0.000220718
0.000239002
0.000250618
0.000255783
0.000257958
0.000259505
0.00026344
0.000271315
6.37266e-05
9.78451e-05
0.000140842
0.000181751
0.000216155
0.000234715
0.000246592
0.000252107
0.000254269
0.00025555
0.000258978
0.000266002
6.10221e-05
9.03024e-05
0.000130568
0.000169421
0.000204461
0.000224044
0.000236434
0.000242849
0.00024503
0.000245785
0.000248204
0.000253444
5.53046e-05
7.47251e-05
0.000109496
0.000144676
0.000179101
0.000201499
0.000214973
0.000223072
0.000225359
0.000225264
0.000226085
0.000228199
4.26649e-05
4.73943e-05
7.04149e-05
9.87841e-05
0.000128964
0.000155517
0.00017061
0.00018077
0.00018302
0.000181608
0.000179395
0.000176027
1.86237e-05
1.85145e-05
2.07667e-05
2.47103e-05
2.99583e-05
3.5787e-05
4.17745e-05
4.68911e-05
4.96573e-05
5.15494e-05
5.3014e-05
5.35397e-05
1.86229e-05
1.77239e-05
1.83979e-05
2.01592e-05
2.27643e-05
2.60268e-05
2.96482e-05
3.33485e-05
3.6378e-05
3.93664e-05
4.22724e-05
4.49442e-05
3.67632e-05
3.73547e-05
4.3255e-05
5.46608e-05
7.00261e-05
8.72998e-05
0.000102187
0.000114813
0.000123216
0.000130652
0.000137973
0.000146388
4.42648e-05
5.16406e-05
6.34799e-05
8.09185e-05
0.000102498
0.000122306
0.000139611
0.000153683
0.000164129
0.000173834
0.000184345
0.000196098
4.81913e-05
6.04926e-05
7.65209e-05
9.793e-05
0.000122444
0.000143179
0.000161083
0.000175162
0.00018644
0.00019722
0.000209319
0.000223126
5.02232e-05
6.54432e-05
8.38924e-05
0.000107507
0.000133081
0.000154302
0.000172337
0.000186334
0.000198007
0.000209429
0.000222473
0.000237474
5.11329e-05
6.763e-05
8.71262e-05
0.000111656
0.000137588
0.00015899
0.000177074
0.000191048
0.000202929
0.000214662
0.000228156
0.000243714
5.11329e-05
6.76295e-05
8.71251e-05
0.000111654
0.000137585
0.000158987
0.000177071
0.000191046
0.000202926
0.00021466
0.000228154
0.000243711
5.02232e-05
6.54417e-05
8.38895e-05
0.000107503
0.000133075
0.000154296
0.000172331
0.000186328
0.000198001
0.000209423
0.000222467
0.000237465
4.81912e-05
6.04904e-05
7.65174e-05
9.7925e-05
0.000122437
0.000143172
0.000161077
0.000175156
0.000186435
0.000197214
0.00020931
0.000223113
4.42642e-05
5.1638e-05
6.3478e-05
8.09181e-05
0.000102499
0.000122307
0.000139612
0.000153684
0.000164129
0.000173831
0.000184337
0.000196083
3.67616e-05
3.73516e-05
4.32565e-05
5.46701e-05
7.00423e-05
8.73203e-05
0.000102206
0.000114831
0.000123229
0.000130657
0.000137968
0.00014637
1.86216e-05
1.77223e-05
1.83987e-05
2.0163e-05
2.27701e-05
2.60342e-05
2.96565e-05
3.3357e-05
3.6385e-05
3.93703e-05
4.22727e-05
4.49401e-05
1.81672e-05
1.74597e-05
1.76708e-05
1.87077e-05
2.0256e-05
2.23157e-05
2.48111e-05
2.76362e-05
3.06008e-05
3.39789e-05
3.73783e-05
4.09891e-05
3.64756e-05
3.5242e-05
3.72885e-05
4.25201e-05
5.01423e-05
5.98629e-05
7.0509e-05
8.14033e-05
9.18634e-05
0.000103154
0.000115037
0.000128017
4.27951e-05
4.58678e-05
5.11687e-05
5.97644e-05
7.14437e-05
8.46758e-05
9.8784e-05
0.000112943
0.000126553
0.000140674
0.00015563
0.000171379
4.61521e-05
5.24391e-05
6.04175e-05
7.16448e-05
8.59022e-05
0.000101119
0.000117092
0.000132578
0.000147604
0.000163053
0.000179542
0.000196895
4.79642e-05
5.62879e-05
6.60175e-05
7.8881e-05
9.44831e-05
0.000110782
0.000127599
0.000143658
0.00015935
0.000175513
0.000192863
0.000211128
4.8791e-05
5.80558e-05
6.86094e-05
8.22183e-05
9.83881e-05
0.000115168
0.000132299
0.00014859
0.000164573
0.00018106
0.000198794
0.00021747
4.87911e-05
5.80555e-05
6.86089e-05
8.22173e-05
9.83868e-05
0.000115166
0.000132297
0.000148588
0.000164571
0.000181057
0.000198791
0.000217466
4.79643e-05
5.62871e-05
6.60161e-05
7.88788e-05
9.44799e-05
0.000110778
0.000127595
0.000143654
0.000159345
0.000175507
0.000192855
0.000211117
4.6152e-05
5.24378e-05
6.0416e-05
7.1643e-05
8.58999e-05
0.000101117
0.000117088
0.000132575
0.000147599
0.000163046
0.000179531
0.000196879
4.27947e-05
4.58658e-05
5.11679e-05
5.97656e-05
7.14466e-05
8.46797e-05
9.87875e-05
0.000112946
0.000126552
0.000140668
0.000155618
0.00017136
3.64739e-05
3.52385e-05
3.72885e-05
4.25265e-05
5.01548e-05
5.98791e-05
7.0525e-05
8.14169e-05
9.18705e-05
0.000103152
0.000115024
0.000127994
1.81658e-05
1.74579e-05
1.76712e-05
1.87111e-05
2.02613e-05
2.23219e-05
2.48173e-05
2.76417e-05
3.06042e-05
3.39789e-05
3.73751e-05
4.09817e-05
1.84709e-05
1.7237e-05
1.70768e-05
1.7733e-05
1.89566e-05
2.05834e-05
2.25939e-05
2.50087e-05
2.78198e-05
3.10312e-05
3.42483e-05
3.77486e-05
3.54425e-05
3.45043e-05
3.50026e-05
3.78328e-05
4.2271e-05
4.85025e-05
5.63076e-05
6.53905e-05
7.55484e-05
8.7002e-05
9.91834e-05
0.000111381
4.03491e-05
4.34612e-05
4.64188e-05
5.13917e-05
5.84927e-05
6.76512e-05
7.86266e-05
9.09413e-05
0.000104278
0.000118731
0.000134027
0.000149302
4.28739e-05
4.88946e-05
5.39485e-05
6.07526e-05
6.97826e-05
8.08384e-05
9.37041e-05
0.000107741
0.000122708
0.000138672
0.000155563
0.000172502
4.42869e-05
5.21341e-05
5.86063e-05
6.66494e-05
7.68447e-05
8.8983e-05
0.000102828
0.000117717
0.000133482
0.00015024
0.00016799
0.000185853
4.495e-05
5.36488e-05
6.08132e-05
6.94597e-05
8.01905e-05
9.28109e-05
0.00010707
0.000122314
0.000138416
0.000155517
0.000173632
0.000191891
4.49501e-05
5.36486e-05
6.0813e-05
6.94593e-05
8.01899e-05
9.28101e-05
0.000107069
0.000122312
0.000138414
0.000155514
0.000173629
0.000191887
4.42871e-05
5.21336e-05
5.86056e-05
6.66486e-05
7.68434e-05
8.89813e-05
0.000102826
0.000117715
0.000133478
0.000150235
0.000167982
0.000185842
4.28741e-05
4.88937e-05
5.39477e-05
6.07524e-05
6.97828e-05
8.08386e-05
9.37038e-05
0.00010774
0.000122704
0.000138665
0.000155551
0.000172486
4.03489e-05
4.34595e-05
4.64183e-05
5.13937e-05
5.84969e-05
6.76568e-05
7.86318e-05
9.09447e-05
0.000104277
0.000118725
0.000134014
0.000149283
3.54404e-05
3.45002e-05
3.50019e-05
3.78381e-05
4.22821e-05
4.85171e-05
5.63224e-05
6.5402e-05
7.55532e-05
8.69977e-05
9.917e-05
0.000111361
1.84691e-05
1.72347e-05
1.70765e-05
1.77361e-05
1.89619e-05
2.05895e-05
2.25996e-05
2.50131e-05
2.7822e-05
3.10302e-05
3.42442e-05
3.77415e-05
1.81163e-05
1.67558e-05
1.63472e-05
1.68827e-05
1.79245e-05
1.93386e-05
2.11224e-05
2.3316e-05
2.59092e-05
2.88696e-05
3.19088e-05
3.50441e-05
3.51461e-05
3.42824e-05
3.35773e-05
3.51539e-05
3.82754e-05
4.28227e-05
4.88454e-05
5.6336e-05
6.52678e-05
7.55034e-05
8.62476e-05
9.61803e-05
3.93888e-05
4.23392e-05
4.36494e-05
4.68091e-05
5.18068e-05
5.86386e-05
6.72932e-05
7.76087e-05
8.94025e-05
0.000102463
0.000116176
0.000129092
4.14835e-05
4.71009e-05
5.02132e-05
5.4775e-05
6.12051e-05
6.95814e-05
7.98833e-05
9.18436e-05
0.000105223
0.000119806
0.00013511
0.000149732
4.26787e-05
4.9923e-05
5.42742e-05
5.9826e-05
6.71807e-05
7.6477e-05
8.76921e-05
0.000100521
0.000114716
0.000130102
0.000146263
0.000161865
4.3249e-05
5.12484e-05
5.6211e-05
6.22609e-05
7.00604e-05
7.97786e-05
9.13957e-05
0.000104598
0.00011914
0.000134866
0.000151384
0.000167401
4.32491e-05
5.12483e-05
5.62109e-05
6.22607e-05
7.00602e-05
7.97783e-05
9.13953e-05
0.000104598
0.000119139
0.000134864
0.000151381
0.000167397
4.2679e-05
4.99226e-05
5.42739e-05
5.98258e-05
6.71806e-05
7.64769e-05
8.76917e-05
0.00010052
0.000114713
0.000130097
0.000146255
0.000161854
4.14837e-05
4.71002e-05
5.02129e-05
5.47757e-05
6.12067e-05
6.95834e-05
7.9885e-05
9.1844e-05
0.000105221
0.0001198
0.0001351
0.000149717
3.93885e-05
4.23375e-05
4.36491e-05
4.68115e-05
5.18119e-05
5.86454e-05
6.72998e-05
7.76133e-05
8.9403e-05
0.000102458
0.000116165
0.000129075
3.51438e-05
3.42782e-05
3.35764e-05
3.5159e-05
3.82863e-05
4.2837e-05
4.886e-05
5.63473e-05
6.52723e-05
7.54994e-05
8.62362e-05
9.61638e-05
1.81142e-05
1.67528e-05
1.63468e-05
1.68858e-05
1.79298e-05
1.93447e-05
2.1128e-05
2.332e-05
2.59108e-05
2.88681e-05
3.19044e-05
3.50385e-05
1.83735e-05
1.65601e-05
1.58325e-05
1.61175e-05
1.70399e-05
1.83517e-05
2.00222e-05
2.20936e-05
2.45541e-05
2.72889e-05
3.01323e-05
3.30553e-05
3.50596e-05
3.37715e-05
3.22452e-05
3.30665e-05
3.54318e-05
3.91099e-05
4.40698e-05
5.03964e-05
5.81236e-05
6.70235e-05
7.62219e-05
8.43959e-05
3.86972e-05
4.12569e-05
4.1543e-05
4.3529e-05
4.72959e-05
5.2733e-05
5.9813e-05
6.84889e-05
7.86458e-05
8.99922e-05
0.000101756
0.000112348
4.04274e-05
4.55669e-05
4.74779e-05
5.05808e-05
5.54404e-05
6.20914e-05
7.0524e-05
8.06107e-05
9.21612e-05
0.000104879
0.00011808
0.000130191
4.14195e-05
4.80934e-05
5.11188e-05
5.50373e-05
6.06263e-05
6.802e-05
7.72266e-05
8.80831e-05
0.000100371
0.000113818
0.000127808
0.000140847
4.18973e-05
4.92775e-05
5.28532e-05
5.71906e-05
6.31394e-05
7.08811e-05
8.04357e-05
9.16292e-05
0.000104233
0.000117987
0.000132305
0.000145745
4.18974e-05
4.92774e-05
5.28531e-05
5.71906e-05
6.31395e-05
7.08812e-05
8.04358e-05
9.16291e-05
0.000104232
0.000117986
0.000132303
0.000145742
4.14198e-05
4.80931e-05
5.11186e-05
5.50376e-05
6.0627e-05
6.8021e-05
7.72274e-05
8.80832e-05
0.00010037
0.000113814
0.000127802
0.000140839
4.04276e-05
4.55663e-05
4.74777e-05
5.0582e-05
5.5443e-05
6.20948e-05
7.05273e-05
8.06126e-05
9.21606e-05
0.000104874
0.000118071
0.000130179
3.86967e-05
4.12552e-05
4.15427e-05
4.35318e-05
4.73018e-05
5.27408e-05
5.98207e-05
6.84945e-05
7.86472e-05
8.99881e-05
0.000101746
0.000112334
3.50569e-05
3.37669e-05
3.22441e-05
3.30714e-05
3.54427e-05
3.91244e-05
4.40844e-05
5.04076e-05
5.81282e-05
6.70201e-05
7.62121e-05
8.4383e-05
1.83712e-05
1.65565e-05
1.58316e-05
1.61203e-05
1.70454e-05
1.83579e-05
2.00277e-05
2.20973e-05
2.45554e-05
2.72873e-05
3.01285e-05
3.30514e-05
1.81772e-05
1.59291e-05
1.50921e-05
1.53961e-05
1.6286e-05
1.75417e-05
1.9141e-05
2.11221e-05
2.34691e-05
2.6045e-05
2.87106e-05
3.16226e-05
3.49043e-05
3.33189e-05
3.10945e-05
3.14071e-05
3.33596e-05
3.65352e-05
4.08494e-05
4.63883e-05
5.31932e-05
6.10427e-05
6.91198e-05
7.62498e-05
3.8245e-05
4.03986e-05
3.97428e-05
4.09313e-05
4.3949e-05
4.85268e-05
5.45687e-05
6.20558e-05
7.09076e-05
8.08343e-05
9.10618e-05
0.000100151
3.97588e-05
4.43854e-05
4.52126e-05
4.72986e-05
5.116e-05
5.66873e-05
6.38171e-05
7.24629e-05
8.24748e-05
9.35574e-05
0.000104997
0.000115336
4.06218e-05
4.66953e-05
4.85407e-05
5.13035e-05
5.5738e-05
6.18521e-05
6.96092e-05
7.8891e-05
8.95167e-05
0.000101208
0.000113319
0.000124449
4.10391e-05
4.77727e-05
5.01205e-05
5.32365e-05
5.79581e-05
6.43506e-05
7.23924e-05
8.19537e-05
9.2842e-05
0.000104787
0.000117177
0.000128652
4.10392e-05
4.77727e-05
5.01205e-05
5.32366e-05
5.79584e-05
6.4351e-05
7.23928e-05
8.1954e-05
9.28418e-05
0.000104786
0.000117175
0.00012865
4.0622e-05
4.6695e-05
4.85406e-05
5.13041e-05
5.57393e-05
6.18539e-05
6.9611e-05
7.88921e-05
8.95164e-05
0.000101206
0.000113314
0.000124442
3.97588e-05
4.43847e-05
4.52126e-05
4.73001e-05
5.11632e-05
5.66915e-05
6.38214e-05
7.24659e-05
8.24752e-05
9.35541e-05
0.000104989
0.000115326
3.82444e-05
4.03968e-05
3.97427e-05
4.09344e-05
4.39554e-05
4.85352e-05
5.45771e-05
6.2062e-05
7.09097e-05
8.08311e-05
9.10536e-05
0.00010014
3.49014e-05
3.33146e-05
3.10937e-05
3.14121e-05
3.33706e-05
3.65496e-05
4.08639e-05
4.63992e-05
5.31975e-05
6.10394e-05
6.91113e-05
7.62396e-05
1.81746e-05
1.59251e-05
1.50912e-05
1.5399e-05
1.62916e-05
1.7548e-05
1.91465e-05
2.11257e-05
2.347e-05
2.60436e-05
2.87073e-05
3.16195e-05
1.82582e-05
1.55895e-05
1.45257e-05
1.47127e-05
1.55669e-05
1.67924e-05
1.8334e-05
2.02322e-05
2.24758e-05
2.49148e-05
2.74449e-05
3.03371e-05
3.48525e-05
3.2574e-05
2.9828e-05
2.99202e-05
3.16852e-05
3.4604e-05
3.85326e-05
4.35465e-05
4.96727e-05
5.67271e-05
6.40545e-05
7.06391e-05
3.78869e-05
3.93749e-05
3.80525e-05
3.87698e-05
4.13656e-05
4.54326e-05
5.08142e-05
5.74969e-05
6.54199e-05
7.43292e-05
8.35408e-05
9.1848e-05
3.92346e-05
4.31467e-05
4.31804e-05
4.46159e-05
4.7872e-05
5.26951e-05
5.89616e-05
6.65997e-05
7.54936e-05
8.53874e-05
9.56415e-05
0.000105019
4.00008e-05
4.5307e-05
4.62719e-05
4.82698e-05
5.19806e-05
5.72675e-05
6.40382e-05
7.2191e-05
8.15842e-05
9.19795e-05
0.000102802
0.000112851
4.0372e-05
4.63086e-05
4.7733e-05
5.00293e-05
5.39691e-05
5.94769e-05
6.64757e-05
7.48526e-05
8.44557e-05
9.50561e-05
0.000106112
0.000116455
4.0372e-05
4.63085e-05
4.7733e-05
5.00295e-05
5.39696e-05
5.94776e-05
6.64763e-05
7.48531e-05
8.44558e-05
9.50555e-05
0.000106111
0.000116453
4.00009e-05
4.53067e-05
4.62719e-05
4.82706e-05
5.19823e-05
5.72698e-05
6.40405e-05
7.21927e-05
8.15845e-05
9.19777e-05
0.000102798
0.000112845
3.92345e-05
4.3146e-05
4.31805e-05
4.46177e-05
4.78756e-05
5.27e-05
5.89665e-05
6.66034e-05
7.54947e-05
8.53849e-05
9.56354e-05
0.000105011
3.78861e-05
3.9373e-05
3.80524e-05
3.87731e-05
4.13722e-05
4.54413e-05
5.08228e-05
5.75034e-05
6.54222e-05
7.43264e-05
8.35336e-05
9.18387e-05
3.48494e-05
3.25694e-05
2.98271e-05
2.99251e-05
3.16962e-05
3.46182e-05
3.85467e-05
4.3557e-05
4.96768e-05
5.6724e-05
6.40468e-05
7.06307e-05
1.82554e-05
1.55858e-05
1.45248e-05
1.47155e-05
1.55725e-05
1.67987e-05
1.83395e-05
2.02357e-05
2.24767e-05
2.49136e-05
2.74421e-05
3.03345e-05
1.79769e-05
1.4876e-05
1.37748e-05
1.40277e-05
1.48827e-05
1.60666e-05
1.7545e-05
1.93539e-05
2.14826e-05
2.38487e-05
2.6268e-05
2.90477e-05
3.46386e-05
3.16156e-05
2.85492e-05
2.85741e-05
3.02711e-05
3.30222e-05
3.66796e-05
4.13011e-05
4.69059e-05
5.33478e-05
6.01309e-05
6.64726e-05
3.75346e-05
3.82275e-05
3.63908e-05
3.68803e-05
3.92721e-05
4.30318e-05
4.79771e-05
5.41e-05
6.13553e-05
6.95349e-05
7.80786e-05
8.60134e-05
3.87729e-05
4.18393e-05
4.12475e-05
4.23251e-05
4.5255e-05
4.96493e-05
5.5348e-05
6.22948e-05
7.04047e-05
7.94719e-05
8.89703e-05
9.78902e-05
3.94712e-05
4.38902e-05
4.4158e-05
4.57062e-05
4.90095e-05
5.37851e-05
5.99032e-05
6.72814e-05
7.58159e-05
8.53205e-05
9.53271e-05
0.000104852
3.98092e-05
4.48358e-05
4.55267e-05
4.73304e-05
5.08216e-05
5.57772e-05
6.20827e-05
6.96453e-05
7.83541e-05
8.80347e-05
9.82488e-05
0.000108035
3.98092e-05
4.48357e-05
4.55268e-05
4.73307e-05
5.08222e-05
5.5778e-05
6.20835e-05
6.96459e-05
7.83543e-05
8.80342e-05
9.82477e-05
0.000108034
3.94712e-05
4.38899e-05
4.4158e-05
4.57071e-05
4.90114e-05
5.37877e-05
5.99059e-05
6.72835e-05
7.58165e-05
8.53191e-05
9.53235e-05
0.000104847
3.87727e-05
4.18385e-05
4.12476e-05
4.23271e-05
4.52589e-05
4.96545e-05
5.53532e-05
6.22988e-05
7.0406e-05
7.94699e-05
8.89649e-05
9.78828e-05
3.75336e-05
3.82256e-05
3.63908e-05
3.68836e-05
3.92789e-05
4.30406e-05
4.79858e-05
5.41064e-05
6.13576e-05
6.95323e-05
7.80721e-05
8.6005e-05
3.46357e-05
3.16117e-05
2.85488e-05
2.85791e-05
3.0282e-05
3.30362e-05
3.66934e-05
4.13111e-05
4.69097e-05
5.33449e-05
6.01235e-05
6.64649e-05
1.79731e-05
1.48715e-05
1.37737e-05
1.40308e-05
1.48882e-05
1.60729e-05
1.75505e-05
1.93574e-05
2.14834e-05
2.38475e-05
2.62661e-05
2.90455e-05
1.78295e-05
1.42127e-05
1.30852e-05
1.33611e-05
1.42026e-05
1.5343e-05
1.67537e-05
1.84686e-05
2.04859e-05
2.27219e-05
2.50693e-05
2.76915e-05
3.44254e-05
3.04359e-05
2.71665e-05
2.72568e-05
2.89586e-05
3.15931e-05
3.50312e-05
3.93304e-05
4.45042e-05
5.04404e-05
5.67884e-05
6.30165e-05
3.71632e-05
3.68674e-05
3.46879e-05
3.51427e-05
3.74607e-05
4.10133e-05
4.56311e-05
5.13191e-05
5.8049e-05
6.56605e-05
7.37207e-05
8.14791e-05
3.83232e-05
4.03602e-05
3.93255e-05
4.02761e-05
4.30585e-05
4.71757e-05
5.24687e-05
5.8904e-05
6.64247e-05
7.48744e-05
8.38435e-05
9.25446e-05
3.89723e-05
4.23344e-05
4.20934e-05
4.34463e-05
4.65504e-05
5.10018e-05
5.66647e-05
6.34845e-05
7.13919e-05
8.02488e-05
8.96943e-05
9.89628e-05
3.92855e-05
4.32401e-05
4.3391e-05
4.4964e-05
4.82309e-05
5.28384e-05
5.86648e-05
6.56465e-05
7.37104e-05
8.27305e-05
9.23708e-05
0.000101884
3.92855e-05
4.324e-05
4.3391e-05
4.49643e-05
4.82316e-05
5.28393e-05
5.86657e-05
6.56472e-05
7.37106e-05
8.27301e-05
9.23698e-05
0.000101882
3.89722e-05
4.2334e-05
4.20935e-05
4.34473e-05
4.65525e-05
5.10046e-05
5.66676e-05
6.34867e-05
7.13927e-05
8.02476e-05
8.9691e-05
9.8958e-05
3.83228e-05
4.03593e-05
3.93257e-05
4.02781e-05
4.30625e-05
4.7181e-05
5.2474e-05
5.8908e-05
6.64261e-05
7.48725e-05
8.38386e-05
9.25376e-05
3.71619e-05
3.68655e-05
3.4688e-05
3.51461e-05
3.74675e-05
4.10221e-05
4.56397e-05
5.13254e-05
5.80513e-05
6.56581e-05
7.37146e-05
8.14712e-05
3.44223e-05
3.04321e-05
2.71662e-05
2.72617e-05
2.89693e-05
3.16068e-05
3.50445e-05
3.934e-05
4.45079e-05
5.04378e-05
5.67813e-05
6.30086e-05
1.78261e-05
1.42088e-05
1.30843e-05
1.33641e-05
1.4208e-05
1.53492e-05
1.67591e-05
1.84719e-05
2.04867e-05
2.27207e-05
2.50674e-05
2.76899e-05
1.74093e-05
1.32953e-05
1.23059e-05
1.27011e-05
1.35393e-05
1.46285e-05
1.59577e-05
1.75657e-05
1.94559e-05
2.15743e-05
2.38262e-05
2.63003e-05
3.39918e-05
2.89902e-05
2.57207e-05
2.59792e-05
2.77139e-05
3.02365e-05
3.34686e-05
3.74718e-05
4.22638e-05
4.77678e-05
5.37393e-05
5.98374e-05
3.67009e-05
3.528e-05
3.29238e-05
3.34963e-05
3.58067e-05
3.91895e-05
4.35207e-05
4.88268e-05
5.50983e-05
6.22201e-05
6.98737e-05
7.75131e-05
3.78223e-05
3.86733e-05
3.73729e-05
3.83744e-05
4.11084e-05
4.50156e-05
4.99739e-05
5.59801e-05
6.30044e-05
7.09337e-05
7.94626e-05
8.80154e-05
3.84395e-05
4.05891e-05
4.00222e-05
4.13776e-05
4.44024e-05
4.86188e-05
5.39201e-05
6.02864e-05
6.76798e-05
7.60024e-05
8.49862e-05
9.40757e-05
3.8735e-05
4.14653e-05
4.12619e-05
4.28112e-05
4.59839e-05
5.03445e-05
5.57969e-05
6.23146e-05
6.98572e-05
7.8338e-05
8.75095e-05
9.68284e-05
3.8735e-05
4.14652e-05
4.12619e-05
4.28115e-05
4.59846e-05
5.03454e-05
5.57979e-05
6.23153e-05
6.98575e-05
7.83377e-05
8.75086e-05
9.6827e-05
3.84393e-05
4.05887e-05
4.00223e-05
4.13786e-05
4.44046e-05
4.86217e-05
5.39231e-05
6.02887e-05
6.76806e-05
7.60014e-05
8.49832e-05
9.40712e-05
3.78217e-05
3.86723e-05
3.7373e-05
3.83765e-05
4.11126e-05
4.50209e-05
4.99792e-05
5.59841e-05
6.30058e-05
7.09321e-05
7.9458e-05
8.80087e-05
3.66994e-05
3.52781e-05
3.2924e-05
3.34997e-05
3.58135e-05
3.91981e-05
4.3529e-05
4.88328e-05
5.51005e-05
6.22179e-05
6.98679e-05
7.75053e-05
3.39886e-05
2.89866e-05
2.57206e-05
2.59842e-05
2.77243e-05
3.02498e-05
3.34814e-05
3.74809e-05
4.22672e-05
4.77653e-05
5.37326e-05
5.98293e-05
1.74058e-05
1.32915e-05
1.23051e-05
1.27043e-05
1.35444e-05
1.46345e-05
1.59629e-05
1.75688e-05
1.94566e-05
2.15731e-05
2.38241e-05
2.62988e-05
1.68173e-05
1.23315e-05
1.15535e-05