/*--------------------------------*- C++ -*----------------------------------*\
| =========                 |                                                 |
| \\      /  F ield         | OpenFOAM: The Open Source CFD Toolbox           |
|  \\    /   O peration     | Version:  2.3.1                                 |
|   \\  /    A nd           | Web:      www.OpenFOAM.org                      |
|    \\/     M anipulation  |                                                 |
\*---------------------------------------------------------------------------*/
FoamFile
{
    version     2.0;
    format      ascii;
    class       volScalarField;
    location    "20";
    object      nut;
}
// * * * * * * * * * * * * * * * * * * * * * * * * * * * * * * * * * * * * * //

dimensions      [0 2 -1 0 0 0 0];

internalField   nonuniform List<scalar> 
37758
(
7.03029e-06
7.21389e-06
7.54476e-06
7.67274e-06
7.90003e-06
8.08808e-06
8.17246e-06
8.38378e-06
8.47829e-06
8.62813e-06
8.8144e-06
8.88223e-06
7.11788e-06
7.47541e-06
8.03025e-06
8.27374e-06
8.68292e-06
9.03035e-06
9.20883e-06
9.58997e-06
9.79019e-06
1.00321e-05
1.03562e-05
1.04899e-05
7.12353e-06
7.47314e-06
8.02783e-06
8.2827e-06
8.67555e-06
9.03799e-06
9.22456e-06
9.60659e-06
9.81397e-06
1.006e-05
1.03984e-05
1.05604e-05
7.13438e-06
7.45686e-06
8.02564e-06
8.29693e-06
8.66439e-06
9.05362e-06
9.23235e-06
9.59909e-06
9.82327e-06
1.00452e-05
1.04119e-05
1.05799e-05
7.13987e-06
7.44912e-06
8.02391e-06
8.3025e-06
8.6602e-06
9.06246e-06
9.23792e-06
9.59556e-06
9.82884e-06
1.00404e-05
1.04274e-05
1.05978e-05
7.14125e-06
7.4468e-06
8.02392e-06
8.30362e-06
8.65941e-06
9.06487e-06
9.23917e-06
9.5945e-06
9.82934e-06
1.00391e-05
1.0435e-05
1.06065e-05
7.14127e-06
7.44679e-06
8.02391e-06
8.30363e-06
8.6594e-06
9.06488e-06
9.23918e-06
9.59449e-06
9.82935e-06
1.00391e-05
1.0435e-05
1.06065e-05
7.13991e-06
7.4491e-06
8.02387e-06
8.30254e-06
8.66015e-06
9.06248e-06
9.23794e-06
9.59554e-06
9.82887e-06
1.00404e-05
1.04274e-05
1.05979e-05
7.13443e-06
7.45681e-06
8.02559e-06
8.29698e-06
8.66433e-06
9.05365e-06
9.23238e-06
9.59905e-06
9.82331e-06
1.00453e-05
1.0412e-05
1.058e-05
7.12359e-06
7.47306e-06
8.02779e-06
8.28275e-06
8.67548e-06
9.03803e-06
9.22458e-06
9.60655e-06
9.81401e-06
1.006e-05
1.03985e-05
1.05605e-05
7.11798e-06
7.47528e-06
8.03021e-06
8.27381e-06
8.68282e-06
9.03045e-06
9.20887e-06
9.5899e-06
9.7903e-06
1.00321e-05
1.03563e-05
1.049e-05
7.03036e-06
7.2138e-06
7.54473e-06
7.67277e-06
7.89996e-06
8.08815e-06
8.17249e-06
8.38371e-06
8.47832e-06
8.62806e-06
8.81445e-06
8.88229e-06
1.40052e-05
1.42776e-05
1.47775e-05
1.50142e-05
1.54323e-05
1.57908e-05
1.60361e-05
1.64945e-05
1.67249e-05
1.71842e-05
1.75597e-05
1.78843e-05
7.20497e-05
4.77927e-05
3.18125e-05
2.7361e-05
2.44978e-05
2.17083e-05
2.19283e-05
2.15802e-05
2.1792e-05
2.28946e-05
2.37608e-05
2.51938e-05
7.50107e-05
4.87967e-05
3.31607e-05
2.80928e-05
2.46556e-05
2.20303e-05
2.19007e-05
2.20748e-05
2.25944e-05
2.44304e-05
2.57257e-05
2.81488e-05
7.42558e-05
4.93349e-05
3.31888e-05
2.78439e-05
2.47839e-05
2.18899e-05
2.18169e-05
2.22508e-05
2.28438e-05
2.48892e-05
2.65361e-05
2.89093e-05
7.37869e-05
4.97189e-05
3.32038e-05
2.77261e-05
2.48337e-05
2.17762e-05
2.18492e-05
2.24201e-05
2.3072e-05
2.52307e-05
2.71401e-05
2.93233e-05
7.36045e-05
4.9892e-05
3.31806e-05
2.76645e-05
2.48234e-05
2.16967e-05
2.18658e-05
2.2488e-05
2.31721e-05
2.53922e-05
2.74329e-05
2.95524e-05
7.36042e-05
4.98916e-05
3.31811e-05
2.76645e-05
2.48234e-05
2.16969e-05
2.18658e-05
2.24884e-05
2.31727e-05
2.53929e-05
2.74339e-05
2.95535e-05
7.3786e-05
4.97178e-05
3.32052e-05
2.77261e-05
2.48334e-05
2.1777e-05
2.1849e-05
2.24212e-05
2.30736e-05
2.52329e-05
2.71431e-05
2.93263e-05
7.42547e-05
4.93332e-05
3.31908e-05
2.7844e-05
2.47834e-05
2.1891e-05
2.18166e-05
2.22523e-05
2.28461e-05
2.48924e-05
2.65404e-05
2.89136e-05
7.5009e-05
4.87956e-05
3.31629e-05
2.80928e-05
2.46551e-05
2.20312e-05
2.19005e-05
2.20769e-05
2.25971e-05
2.4434e-05
2.57305e-05
2.81536e-05
7.2045e-05
4.77942e-05
3.18153e-05
2.73603e-05
2.44977e-05
2.17091e-05
2.19281e-05
2.15825e-05
2.17946e-05
2.28978e-05
2.37649e-05
2.51975e-05
1.40052e-05
1.42775e-05
1.47774e-05
1.50142e-05
1.54322e-05
1.57909e-05
1.60361e-05
1.64946e-05
1.6725e-05
1.71842e-05
1.756e-05
1.78843e-05
1.39706e-05
1.44058e-05
1.48598e-05
1.51726e-05
1.58864e-05
1.62759e-05
1.6863e-05
1.759e-05
1.79766e-05
1.89022e-05
1.93912e-05
2.00213e-05
8.23815e-05
3.99457e-05
3.26361e-05
3.02366e-05
3.23108e-05
3.33513e-05
3.60495e-05
3.84932e-05
4.07287e-05
4.47541e-05
4.67902e-05
4.99752e-05
8.35174e-05
3.89419e-05
3.09011e-05
2.87756e-05
3.1434e-05
3.34883e-05
3.69848e-05
4.09166e-05
4.4255e-05
4.98404e-05
5.27263e-05
5.7432e-05
8.34823e-05
3.91583e-05
3.10182e-05
2.88914e-05
3.20163e-05
3.40009e-05
3.756e-05
4.17969e-05
4.52513e-05
5.13922e-05
5.47396e-05
5.93828e-05
8.3566e-05
3.93205e-05
3.10703e-05
2.89909e-05
3.23348e-05
3.44091e-05
3.80631e-05
4.24092e-05
4.60106e-05
5.2271e-05
5.58883e-05
6.01153e-05
8.36242e-05
3.93609e-05
3.10358e-05
2.89939e-05
3.23729e-05
3.45382e-05
3.82817e-05
4.26718e-05
4.63881e-05
5.26887e-05
5.64249e-05
6.04213e-05
8.36237e-05
3.93608e-05
3.10355e-05
2.89938e-05
3.23726e-05
3.45385e-05
3.8282e-05
4.26727e-05
4.63894e-05
5.26901e-05
5.64266e-05
6.04229e-05
8.35647e-05
3.93202e-05
3.10695e-05
2.89905e-05
3.23337e-05
3.44099e-05
3.80638e-05
4.24119e-05
4.60143e-05
5.22751e-05
5.58933e-05
6.01201e-05
8.34804e-05
3.91579e-05
3.10167e-05
2.88907e-05
3.20144e-05
3.40018e-05
3.75607e-05
4.18008e-05
4.52566e-05
5.13984e-05
5.47472e-05
5.93896e-05
8.35153e-05
3.89413e-05
3.08989e-05
2.87746e-05
3.14315e-05
3.3489e-05
3.69856e-05
4.09212e-05
4.42611e-05
4.98477e-05
5.2735e-05
5.74394e-05
8.23828e-05
3.99437e-05
3.26338e-05
3.02349e-05
3.23097e-05
3.33522e-05
3.60506e-05
3.8498e-05
4.07344e-05
4.47607e-05
4.6798e-05
4.99819e-05
1.39706e-05
1.44057e-05
1.48598e-05
1.51725e-05
1.58863e-05
1.62761e-05
1.68627e-05
1.75905e-05
1.79772e-05
1.89027e-05
1.93923e-05
2.00219e-05
1.4046e-05
1.50029e-05
1.59094e-05
1.68655e-05
1.84433e-05
1.90611e-05
2.02154e-05
2.09968e-05
2.15462e-05
2.26072e-05
2.29396e-05
2.34413e-05
5.09831e-05
4.55664e-05
5.16544e-05
5.45656e-05
5.83572e-05
5.91772e-05
6.04134e-05
6.20946e-05
6.37034e-05
6.56553e-05
6.67558e-05
6.91307e-05
4.74419e-05
4.14989e-05
4.7016e-05
5.29426e-05
5.91038e-05
6.22217e-05
6.43053e-05
6.77004e-05
7.03794e-05
7.36489e-05
7.60058e-05
7.96003e-05
5.07438e-05
4.3555e-05
4.86692e-05
5.40274e-05
6.08407e-05
6.33236e-05
6.59061e-05
6.94428e-05
7.23521e-05
7.60728e-05
7.88633e-05
8.30472e-05
5.17203e-05
4.42754e-05
4.9594e-05
5.47639e-05
6.18774e-05
6.41651e-05
6.69373e-05
7.04416e-05
7.34055e-05
7.73001e-05
8.0076e-05
8.43282e-05
5.19073e-05
4.44346e-05
4.98439e-05
5.49954e-05
6.21945e-05
6.45524e-05
6.73882e-05
7.09004e-05
7.38982e-05
7.78539e-05
8.05826e-05
8.48067e-05
5.19079e-05
4.44348e-05
4.98436e-05
5.49953e-05
6.2194e-05
6.4553e-05
6.73888e-05
7.09013e-05
7.38993e-05
7.78552e-05
8.05844e-05
8.48084e-05
5.17219e-05
4.4276e-05
4.95929e-05
5.47634e-05
6.1876e-05
6.41669e-05
6.69388e-05
7.04442e-05
7.34086e-05
7.73037e-05
8.00812e-05
8.43331e-05
5.07458e-05
4.35557e-05
4.86671e-05
5.40261e-05
6.08379e-05
6.33262e-05
6.59083e-05
6.94466e-05
7.23569e-05
7.60781e-05
7.8871e-05
8.30544e-05
4.74447e-05
4.14997e-05
4.70129e-05
5.29403e-05
5.91002e-05
6.22247e-05
6.43079e-05
6.7705e-05
7.03855e-05
7.36556e-05
7.60144e-05
7.96086e-05
5.09858e-05
4.55645e-05
5.1651e-05
5.45621e-05
5.83568e-05
5.91795e-05
6.04159e-05
6.21007e-05
6.37096e-05
6.56623e-05
6.67637e-05
6.91392e-05
1.4046e-05
1.50026e-05
1.59099e-05
1.68648e-05
1.84439e-05
1.90616e-05
2.02154e-05
2.09981e-05
2.15471e-05
2.26091e-05
2.29415e-05
2.34433e-05
1.39848e-05
1.534e-05
1.79533e-05
1.94219e-05
2.06368e-05
2.15925e-05
2.21577e-05
2.26869e-05
2.3625e-05
2.39559e-05
2.39537e-05
2.39151e-05
3.12155e-05
4.0972e-05
5.50624e-05
5.79423e-05
6.35851e-05
6.77023e-05
7.01727e-05
7.22736e-05
7.47401e-05
7.59766e-05
7.70624e-05
7.88987e-05
3.68551e-05
5.58917e-05
6.2416e-05
6.72559e-05
7.21136e-05
7.56829e-05
7.86574e-05
8.15956e-05
8.46644e-05
8.72344e-05
8.95296e-05
9.3204e-05
3.79914e-05
6.15875e-05
6.54504e-05
7.10993e-05
7.57567e-05
7.88126e-05
8.18696e-05
8.4934e-05
8.8129e-05
9.12777e-05
9.41177e-05
9.88946e-05
3.8644e-05
6.36198e-05
6.70085e-05
7.28713e-05
7.75056e-05
8.04437e-05
8.35407e-05
8.65748e-05
8.97832e-05
9.3115e-05
9.6145e-05
0.000101464
3.89801e-05
6.42791e-05
6.76717e-05
7.35662e-05
7.81799e-05
8.11409e-05
8.42631e-05
8.72861e-05
9.04999e-05
9.38801e-05
9.69694e-05
0.000102532
3.89802e-05
6.42791e-05
6.76717e-05
7.35662e-05
7.818e-05
8.11413e-05
8.42637e-05
8.72869e-05
9.05008e-05
9.38813e-05
9.69708e-05
0.000102533
3.8644e-05
6.36196e-05
6.70084e-05
7.28714e-05
7.75058e-05
8.04447e-05
8.35424e-05
8.65772e-05
8.9786e-05
9.31184e-05
9.61488e-05
0.000101469
3.79914e-05
6.15868e-05
6.54502e-05
7.10992e-05
7.5757e-05
7.88144e-05
8.18723e-05
8.49377e-05
8.81333e-05
9.12829e-05
9.41234e-05
9.89006e-05
3.68547e-05
5.58907e-05
6.24161e-05
6.7256e-05
7.21144e-05
7.56859e-05
7.86616e-05
8.16009e-05
8.467e-05
8.72411e-05
8.95362e-05
9.3211e-05
3.12145e-05
4.09712e-05
5.50633e-05
5.79438e-05
6.3588e-05
6.77084e-05
7.01795e-05
7.22808e-05
7.47465e-05
7.59841e-05
7.70701e-05
7.89073e-05
1.39847e-05
1.53399e-05
1.79536e-05
1.94222e-05
2.06376e-05
2.15935e-05
2.21586e-05
2.26885e-05
2.36278e-05
2.39594e-05
2.39569e-05
2.39179e-05
1.14724e-05
1.20775e-05
1.39555e-05
1.58598e-05
1.76416e-05
1.90435e-05
2.00623e-05
2.10695e-05
2.15305e-05
2.15905e-05
2.15873e-05
2.14391e-05
2.03916e-05
2.5253e-05
3.97852e-05
4.98852e-05
5.81323e-05
6.57648e-05
6.83839e-05
7.23876e-05
7.57997e-05
7.75461e-05
7.95376e-05
8.14835e-05
2.53236e-05
3.8342e-05
5.26276e-05
6.21337e-05
7.08621e-05
7.57845e-05
8.02947e-05
8.4969e-05
8.89633e-05
9.24778e-05
9.66763e-05
0.000102589
2.77856e-05
4.48874e-05
5.82656e-05
6.76337e-05
7.66118e-05
8.00381e-05
8.54215e-05
9.00457e-05
9.43465e-05
9.88061e-05
0.000104127
0.0001121
2.89926e-05
4.76662e-05
6.09039e-05
7.03916e-05
7.91172e-05
8.22734e-05
8.8068e-05
9.24865e-05
9.69363e-05
0.000101822
0.000107693
0.000116773
2.94979e-05
4.867e-05
6.19577e-05
7.15482e-05
8.00672e-05
8.32803e-05
8.91841e-05
9.35073e-05
9.80431e-05
0.000103095
0.00010918
0.000118857
2.94978e-05
4.86697e-05
6.19576e-05
7.15482e-05
8.00672e-05
8.32804e-05
8.91845e-05
9.35081e-05
9.8044e-05
0.000103096
0.000109181
0.000118858
2.89925e-05
4.76652e-05
6.09034e-05
7.03917e-05
7.91173e-05
8.2274e-05
8.80694e-05
9.24888e-05
9.69392e-05
0.000101825
0.000107696
0.000116777
2.77852e-05
4.48856e-05
5.82648e-05
6.7634e-05
7.66124e-05
8.00399e-05
8.54237e-05
9.00494e-05
9.4351e-05
9.88112e-05
0.000104132
0.000112105
2.53229e-05
3.83401e-05
5.26273e-05
6.21349e-05
7.08642e-05
7.57884e-05
8.02989e-05
8.49748e-05
8.89694e-05
9.24844e-05
9.66824e-05
0.000102595
2.03906e-05
2.52527e-05
3.97879e-05
4.98904e-05
5.81391e-05
6.57746e-05
6.83909e-05
7.23959e-05
7.58074e-05
7.75542e-05
7.9545e-05
8.14893e-05
1.14722e-05
1.20775e-05
1.39564e-05
1.58612e-05
1.76432e-05
1.90453e-05
2.00659e-05
2.10739e-05
2.15351e-05
2.15935e-05
2.159e-05
2.14416e-05
1.09014e-05
1.08684e-05
1.15094e-05
1.25543e-05
1.38234e-05
1.51089e-05
1.63232e-05
1.72953e-05
1.77995e-05
1.81357e-05
1.83929e-05
1.84846e-05
3.01882e-05
2.78288e-05
3.13635e-05
3.86048e-05
4.72862e-05
5.64497e-05
6.25049e-05
6.86062e-05
7.20329e-05
7.6066e-05
8.08206e-05
8.6106e-05
3.55577e-05
3.60006e-05
4.28786e-05
5.16915e-05
6.2402e-05
7.01681e-05
7.71118e-05
8.37448e-05
8.87963e-05
9.55092e-05
0.000103384
0.000113264
3.82767e-05
4.13249e-05
4.94068e-05
5.90009e-05
7.00218e-05
7.66783e-05
8.42174e-05
9.05104e-05
9.67811e-05
0.000104784
0.000114269
0.000126379
3.97244e-05
4.43245e-05
5.29115e-05
6.30141e-05
7.37024e-05
8.00549e-05
8.79427e-05
9.4006e-05
0.00010091
0.000109524
0.000119813
0.000133091
4.03802e-05
4.56464e-05
5.44256e-05
6.47224e-05
7.52158e-05
8.15448e-05
8.9537e-05
9.55461e-05
0.000102741
0.00011159
0.000122218
0.000136019
4.03803e-05
4.56463e-05
5.44253e-05
6.47221e-05
7.52157e-05
8.15451e-05
8.95375e-05
9.55467e-05
0.000102742
0.000111591
0.00012222
0.00013602
3.97246e-05
4.43242e-05
5.29108e-05
6.30133e-05
7.37022e-05
8.00557e-05
8.79443e-05
9.40082e-05
0.000100913
0.000109528
0.000119817
0.000133094
3.82769e-05
4.13244e-05
4.9406e-05
5.90001e-05
7.00222e-05
7.66804e-05
8.42204e-05
9.05142e-05
9.67863e-05
0.00010479
0.000114274
0.000126382
3.55577e-05
3.6e-05
4.28785e-05
5.16927e-05
6.24046e-05
7.01726e-05
7.71173e-05
8.37511e-05
8.88034e-05
9.55154e-05
0.000103389
0.000113265
3.0187e-05
2.78278e-05
3.13655e-05
3.86107e-05
4.72949e-05
5.64606e-05
6.25134e-05
6.86156e-05
7.20417e-05
7.60728e-05
8.08236e-05
8.60998e-05
1.09011e-05
1.08681e-05
1.151e-05
1.25556e-05
1.38251e-05
1.51113e-05
1.63269e-05
1.72989e-05
1.78023e-05
1.81378e-05
1.83944e-05
1.84853e-05
1.0901e-05
1.06337e-05
1.08336e-05
1.13401e-05
1.20505e-05
1.28855e-05
1.37531e-05
1.45867e-05
1.52352e-05
1.58485e-05
1.64235e-05
1.69345e-05
4.60887e-05
4.21485e-05
4.07794e-05
4.2217e-05
4.63584e-05
5.25963e-05
5.88545e-05
6.54395e-05
7.12243e-05
7.8061e-05
8.54402e-05
9.31125e-05
5.63452e-05
5.32342e-05
5.15894e-05
5.4316e-05
6.065e-05
6.78649e-05
7.61003e-05
8.444e-05
9.27237e-05
0.000102698
0.000113894
0.000125141
5.98808e-05
5.78757e-05
5.75002e-05
6.14616e-05
6.8802e-05
7.63465e-05
8.52693e-05
9.39885e-05
0.000103484
0.000114712
0.000127618
0.000140945
6.16412e-05
6.08634e-05
6.1213e-05
6.57936e-05
7.33852e-05
8.11173e-05
9.02769e-05
9.91247e-05
0.000109124
0.000121078
0.000134846
0.000149247
6.24648e-05
6.23559e-05
6.30133e-05
6.78231e-05
7.54655e-05
8.32577e-05
9.25153e-05
0.000101399
0.000111669
0.000123907
0.000138037
0.0001529
6.24652e-05
6.23564e-05
6.30137e-05
6.78234e-05
7.54659e-05
8.32583e-05
9.25162e-05
0.0001014
0.000111671
0.000123909
0.000138039
0.000152901
6.16423e-05
6.08649e-05
6.12143e-05
6.57946e-05
7.33864e-05
8.11191e-05
9.02795e-05
9.91282e-05
0.000109128
0.000121081
0.000134849
0.000149248
5.98822e-05
5.78777e-05
5.75022e-05
6.14636e-05
6.88046e-05
7.63498e-05
8.52739e-05
9.39941e-05
0.00010349
0.000114717
0.000127621
0.000140945
5.6346e-05
5.32353e-05
5.15914e-05
5.43197e-05
6.06552e-05
6.78714e-05
7.61076e-05
8.44479e-05
9.27307e-05
0.000102702
0.000113895
0.000125138
4.60864e-05
4.21454e-05
4.07801e-05
4.22231e-05
4.63684e-05
5.26082e-05
5.88659e-05
6.54505e-05
7.12316e-05
7.8063e-05
8.54356e-05
9.31004e-05
1.09006e-05
1.06332e-05
1.08338e-05
1.13412e-05
1.20521e-05
1.28873e-05
1.3755e-05
1.45885e-05
1.52366e-05
1.58493e-05
1.64235e-05
1.69337e-05
1.07667e-05
1.05542e-05
1.06175e-05
1.09243e-05
1.13671e-05
1.19311e-05
1.25807e-05
1.32779e-05
1.39722e-05
1.47232e-05
1.54425e-05
1.61712e-05
5.51979e-05
5.16248e-05
5.18778e-05
5.24168e-05
5.39536e-05
5.73048e-05
6.2092e-05
6.79912e-05
7.47505e-05
8.259e-05
9.03066e-05
9.64574e-05
7.48107e-05
7.18066e-05
7.06611e-05
6.97801e-05
7.13767e-05
7.57719e-05
8.25659e-05
9.1111e-05
0.000100875
0.000111882
0.000122764
0.00013124
8.1168e-05
7.93581e-05
7.82736e-05
7.78716e-05
8.03408e-05
8.56185e-05
9.37143e-05
0.000103293
0.000114394
0.000126688
0.000139129
0.000149501
8.36609e-05
8.32951e-05
8.26398e-05
8.26616e-05
8.56073e-05
9.13838e-05
0.000100019
0.000110009
0.000121703
0.000134522
0.000147864
0.00015937
8.46924e-05
8.51413e-05
8.47558e-05
8.49829e-05
8.81184e-05
9.41277e-05
0.000102927
0.000113047
0.00012493
0.000138011
0.000151743
0.00016376
8.4693e-05
8.51422e-05
8.4757e-05
8.49842e-05
8.81197e-05
9.41291e-05
0.000102928
0.000113049
0.000124932
0.000138012
0.000151744
0.00016376
8.36626e-05
8.32977e-05
8.26431e-05
8.26655e-05
8.56114e-05
9.13879e-05
0.000100023
0.000110014
0.000121708
0.000134525
0.000147865
0.00015937
8.11698e-05
7.93611e-05
7.82781e-05
7.78775e-05
8.03474e-05
8.56256e-05
9.37216e-05
0.000103301
0.0001144
0.000126691
0.00013913
0.000149499
7.48112e-05
7.18074e-05
7.06644e-05
6.97866e-05
7.13857e-05
7.5782e-05
8.25761e-05
9.11202e-05
0.000100881
0.000111884
0.000122762
0.000131234
5.51938e-05
5.16191e-05
5.18775e-05
5.24246e-05
5.39672e-05
5.73206e-05
6.21069e-05
6.80031e-05
7.47563e-05
8.25887e-05
9.02983e-05
9.64446e-05
1.07663e-05
1.05537e-05
1.06176e-05
1.09253e-05
1.13686e-05
1.19328e-05
1.25823e-05
1.32793e-05
1.39729e-05
1.47232e-05
1.54418e-05
1.61697e-05
1.08565e-05
1.04868e-05
1.04377e-05
1.06361e-05
1.09967e-05
1.14588e-05
1.20054e-05
1.26308e-05
1.33219e-05
1.40699e-05
1.47814e-05
1.55184e-05
6.05676e-05
5.64257e-05
5.75419e-05
5.83371e-05
5.91754e-05
6.15515e-05
6.55119e-05
7.07327e-05
7.69562e-05
8.36085e-05
8.86867e-05
9.19411e-05
8.35246e-05
8.26765e-05
8.44515e-05
8.40779e-05
8.41698e-05
8.68132e-05
9.20501e-05
9.92818e-05
0.000107913
0.000116689
0.000123905
0.000128135
9.18553e-05
9.40175e-05
9.62417e-05
9.58503e-05
9.62544e-05
9.95855e-05
0.000105849
0.000114277
0.000124201
0.000134099
0.000142902
0.000148477
9.51531e-05
9.96227e-05
0.000102403
0.000102255
0.000103023
0.000106796
0.000113561
0.000122564
0.000132911
0.000143506
0.000153273
0.000159808
9.64442e-05
0.000102095
0.000105213
0.000105239
0.000106193
0.000110157
0.000117116
0.00012632
0.000136801
0.000147711
0.000157911
0.000164903
9.64449e-05
0.000102096
0.000105215
0.000105241
0.000106195
0.000110159
0.000117118
0.000126322
0.000136803
0.000147712
0.000157911
0.000164903
9.51547e-05
9.96253e-05
0.000102407
0.000102261
0.000103029
0.000106803
0.000113567
0.00012257
0.000132916
0.000143509
0.000153273
0.000159805
9.1857e-05
9.402e-05
9.62466e-05
9.58581e-05
9.62639e-05
9.95956e-05
0.000105859
0.000114286
0.000124207
0.000134102
0.000142902
0.000148473
8.35242e-05
8.2676e-05
8.44543e-05
8.40857e-05
8.41814e-05
8.68264e-05
9.2063e-05
9.92926e-05
0.000107919
0.00011669
0.000123901
0.000128128
6.05618e-05
5.64176e-05
5.75394e-05
5.83454e-05
5.91929e-05
6.1573e-05
6.55322e-05
7.07478e-05
7.69636e-05
8.36078e-05
8.86797e-05
9.19302e-05
1.08559e-05
1.04861e-05
1.04376e-05
1.0637e-05
1.09983e-05
1.14605e-05
1.20069e-05
1.26319e-05
1.33224e-05
1.40697e-05
1.47805e-05
1.55169e-05
1.07517e-05
1.03395e-05
1.02124e-05
1.03781e-05
1.06933e-05
1.1107e-05
1.16079e-05
1.21958e-05
1.28561e-05
1.35707e-05
1.42672e-05
1.49517e-05
6.36872e-05
5.93888e-05
5.99565e-05
6.03908e-05
6.11333e-05
6.27982e-05
6.58392e-05
6.99963e-05
7.47192e-05
7.92451e-05
8.23215e-05
8.35223e-05
8.89267e-05
8.84142e-05
9.11886e-05
9.18839e-05
9.20507e-05
9.37836e-05
9.75677e-05
0.00010295
0.000108854
0.000114307
0.000118012
0.000118898
9.89255e-05
0.000102402
0.000106632
0.000107635
0.000107956
0.000110045
0.000114475
0.00012063
0.000127504
0.000133957
0.000138636
0.000139973
0.000103045
0.000109326
0.000114656
0.000116082
0.00011668
0.00011907
0.000123865
0.000130385
0.000137774
0.000144879
0.000150283
0.000152112
0.000104619
0.000112318
0.000118224
0.00011991
0.000120672
0.000123204
0.000128121
0.000134793
0.000142399
0.000149809
0.000155562
0.000157649
0.000104619
0.000112319
0.000118226
0.000119912
0.000120674
0.000123207
0.000128124
0.000134795
0.000142401
0.00014981
0.000155562
0.000157648
0.000103046
0.000109328
0.000114659
0.000116088
0.000116687
0.000119077
0.000123872
0.000130391
0.000137778
0.000144881
0.000150282
0.000152109
9.89267e-05
0.000102404
0.000106636
0.000107644
0.000107967
0.000110057
0.000114486
0.000120639
0.000127511
0.00013396
0.000138635
0.000139968
8.89256e-05
8.84125e-05
9.11906e-05
9.18922e-05
9.20645e-05
9.37999e-05
9.75835e-05
0.000102962
0.000108862
0.000114309
0.000118009
0.000118891
6.36807e-05
5.93795e-05
5.9953e-05
6.03997e-05
6.1154e-05
6.28247e-05
6.58652e-05
7.00161e-05
7.47297e-05
7.92463e-05
8.23164e-05
8.35132e-05
1.07511e-05
1.03386e-05
1.02123e-05
1.0379e-05
1.06949e-05
1.11087e-05
1.16094e-05
1.21968e-05
1.28566e-05
1.35703e-05
1.42662e-05
1.49505e-05
1.08278e-05
1.02791e-05
1.00504e-05
1.01402e-05
1.04262e-05
1.08199e-05
1.13015e-05
1.18717e-05
1.25152e-05
1.31937e-05
1.38641e-05
1.4521e-05
6.56153e-05
6.0785e-05
6.03412e-05
6.0143e-05
6.01893e-05
6.13696e-05
6.36729e-05
6.68228e-05
7.0429e-05
7.37876e-05
7.57292e-05
7.57548e-05
9.22943e-05
9.1041e-05
9.32777e-05
9.38788e-05
9.39405e-05
9.50509e-05
9.763e-05
0.000101247
0.000105107
0.000108276
0.00010971
0.000108613
0.000103203
0.00010631
0.000110631
0.000112178
0.000112566
0.000113843
0.000116712
0.000120763
0.000125126
0.000128706
0.00013033
0.000128956
0.000107801
0.000114014
0.000119883
0.000122191
0.00012292
0.000124399
0.000127476
0.000131806
0.000136516
0.00014046
0.000142375
0.000141005
0.000109571
0.000117343
0.000124
0.000126711
0.000127638
0.000129225
0.000132391
0.000136848
0.000141722
0.000145854
0.000147928
0.000146576
0.000109571
0.000117344
0.000124002
0.000126713
0.00012764
0.000129228
0.000132394
0.00013685
0.000141724
0.000145855
0.000147928
0.000146575
0.000107802
0.000114015
0.000119886
0.000122196
0.000122928
0.000124407
0.000127484
0.000131813
0.000136521
0.000140462
0.000142374
0.000141002
0.000103204
0.000106311
0.000110634
0.000112186
0.000112578
0.000113857
0.000116725
0.000120774
0.000125134
0.000128709
0.000130329
0.000128951
9.22928e-05
9.10386e-05
9.32791e-05
9.38875e-05
9.39563e-05
9.50703e-05
9.76489e-05
0.000101263
0.000105117
0.000108279
0.000109707
0.000108607
6.56082e-05
6.07755e-05
6.03371e-05
6.01517e-05
6.02119e-05
6.13995e-05
6.37026e-05
6.68459e-05
7.04413e-05
7.37896e-05
7.57248e-05
7.57479e-05
1.08271e-05
1.0278e-05
1.00502e-05
1.01411e-05
1.04279e-05
1.08217e-05
1.13031e-05
1.18727e-05
1.25156e-05
1.31934e-05
1.38632e-05
1.45201e-05
1.07698e-05
1.00814e-05
9.81269e-06
9.91076e-06
1.0193e-05
1.05785e-05
1.10501e-05
1.16077e-05
1.22355e-05
1.28894e-05
1.35329e-05
1.42026e-05
6.79157e-05
6.2495e-05
6.12348e-05
6.01094e-05
5.95517e-05
6.01492e-05
6.18299e-05
6.42877e-05
6.71352e-05
6.9722e-05
7.09911e-05
7.03873e-05
9.48483e-05
9.27087e-05
9.40027e-05
9.40125e-05
9.35816e-05
9.40263e-05
9.56977e-05
9.81683e-05
0.00010073
0.000102541
0.000102728
0.000100648
0.000106139
0.000108374
0.000112012
0.000113269
0.000113293
0.000113809
0.000115538
0.000118115
0.000120744
0.000122462
0.000122327
0.000119596
0.000110974
0.000116426
0.000121833
0.000124091
0.000124535
0.000125211
0.000127028
0.000129712
0.000132446
0.000134216
0.000134015
0.000130989
0.000112849
0.000119921
0.000126244
0.000129025
0.000129712
0.000130487
0.000132351
0.000135089
0.000137883
0.000139695
0.000139474
0.000136305
0.000112849
0.000119922
0.000126245
0.000129027
0.000129715
0.00013049
0.000132354
0.000135091
0.000137885
0.000139696
0.000139474
0.000136305
0.000110975
0.000116427
0.000121836
0.000124097
0.000124543
0.000125221
0.000127037
0.000129719
0.000132451
0.000134218
0.000134014
0.000130986
0.00010614
0.000108375
0.000112015
0.000113277
0.000113306
0.000113824
0.000115553
0.000118128
0.000120752
0.000122466
0.000122326
0.000119592
9.48468e-05
9.27061e-05
9.40038e-05
9.40216e-05
9.35991e-05
9.40482e-05
9.57192e-05
9.81856e-05
0.000100741
0.000102545
0.000102727
0.000100644
6.79091e-05
6.24873e-05
6.12315e-05
6.01182e-05
5.95756e-05
6.01812e-05
6.18616e-05
6.4312e-05
6.7148e-05
6.97238e-05
7.09871e-05
7.03821e-05
1.0769e-05
1.00801e-05
9.81239e-06
9.91171e-06
1.01947e-05
1.05804e-05
1.10517e-05
1.16087e-05
1.22358e-05
1.28891e-05
1.35321e-05
1.42019e-05
1.07938e-05
9.9735e-06
9.62688e-06
9.6884e-06
9.96549e-06
1.03502e-05
1.08147e-05
1.13606e-05
1.19738e-05
1.26067e-05
1.32312e-05
1.39108e-05
6.91027e-05
6.31061e-05
6.10449e-05
5.98362e-05
5.91813e-05
5.96027e-05
6.09438e-05
6.29458e-05
6.52167e-05
6.72007e-05
6.80369e-05
6.71014e-05
9.67807e-05
9.36568e-05
9.40741e-05
9.37537e-05
9.30887e-05
9.31537e-05
9.42572e-05
9.60177e-05
9.77892e-05
9.88032e-05
9.8292e-05
9.57135e-05
0.000108306
0.000109449
0.000112298
0.000113263
0.000113031
0.000113025
0.000113992
0.000115621
0.000117199
0.00011788
0.000116858
0.000113518
0.000113232
0.00011762
0.000122325
0.000124377
0.000124583
0.000124656
0.000125594
0.000127177
0.000128683
0.00012923
0.000127982
0.000124248
0.000115145
0.000121174
0.000126855
0.000129493
0.000129947
0.000130092
0.000131028
0.000132595
0.000134074
0.000134566
0.00013321
0.000129275
0.000115146
0.000121174
0.000126856
0.000129495
0.00012995
0.000130096
0.000131032
0.000132598
0.000134076
0.000134567
0.00013321
0.000129275
0.000113233
0.000117621
0.000122328
0.000124383
0.000124592
0.000124666
0.000125604
0.000127186
0.000128689
0.000129233
0.000127982
0.000124246
0.000108307
0.000109449
0.000112301
0.000113271
0.000113045
0.000113042
0.000114008
0.000115635
0.000117208
0.000117885
0.000116858
0.000113515
9.67795e-05
9.36539e-05
9.4075e-05
9.37631e-05
9.31074e-05
9.31773e-05
9.42802e-05
9.60361e-05
9.78006e-05
9.88075e-05
9.82908e-05
9.57101e-05
6.90973e-05
6.3097e-05
6.10408e-05
5.9845e-05
5.92064e-05
5.96362e-05
6.09767e-05
6.29706e-05
6.52295e-05
6.72021e-05
6.80326e-05
6.70971e-05
1.0793e-05
9.97231e-06
9.62657e-06
9.68933e-06
9.96727e-06
1.03521e-05
1.08163e-05
1.13616e-05
1.1974e-05
1.26064e-05
1.32306e-05
1.39102e-05
1.07104e-05
9.74263e-06
9.37476e-06
9.46022e-06
9.7441e-06
1.01241e-05
1.05795e-05
1.11114e-05
1.17063e-05
1.23341e-05
1.29446e-05
1.36119e-05
7.0638e-05
6.34581e-05
6.08527e-05
5.96565e-05
5.91506e-05
5.95561e-05
6.07308e-05
6.24214e-05
6.42645e-05
6.57627e-05
6.62614e-05
6.52039e-05
9.83209e-05
9.39683e-05
9.36757e-05
9.34341e-05
9.29527e-05
9.29832e-05
9.38286e-05
9.51843e-05
9.64699e-05
9.6981e-05
9.60186e-05
9.31384e-05
0.000109854
0.000109723
0.00011193
0.000112985
0.000112895
0.000112753
0.000113336
0.000114433
0.00011542
0.000115539
0.000114052
0.000110404
0.000114792
0.000117907
0.000122029
0.000124172
0.000124508
0.000124365
0.00012483
0.000125789
0.000126625
0.000126556
0.000124823
0.000120788
0.000116708
0.000121472
0.000126594
0.00012935
0.000129925
0.000129815
0.000130235
0.000131132
0.000131899
0.000131746
0.000129893
0.000125662
0.000116708
0.000121472
0.000126595
0.000129352
0.000129928
0.000129819
0.000130239
0.000131135
0.000131901
0.000131748
0.000129893
0.000125662
0.000114793
0.000117908
0.000122031
0.000124177
0.000124517
0.000124376
0.00012484
0.000125798
0.000126631
0.00012656
0.000124823
0.000120786
0.000109854
0.000109723
0.000111932
0.000112994
0.000112909
0.000112771
0.000113354
0.000114447
0.00011543
0.000115543
0.000114052
0.000110401
9.83203e-05
9.39656e-05
9.36766e-05
9.34437e-05
9.29722e-05
9.30078e-05
9.38526e-05
9.52032e-05
9.64815e-05
9.69854e-05
9.60177e-05
9.31354e-05
7.06363e-05
6.34528e-05
6.08509e-05
5.96652e-05
5.91767e-05
5.95911e-05
6.07646e-05
6.24465e-05
6.42771e-05
6.57638e-05
6.62563e-05
6.51995e-05
1.07093e-05
9.74116e-06
9.37438e-06
9.46127e-06
9.7459e-06
1.01261e-05
1.05812e-05
1.11124e-05
1.17066e-05
1.23338e-05
1.29441e-05
1.36114e-05
1.06665e-05
9.52301e-06
9.13715e-06
9.23279e-06
9.51894e-06
9.89361e-06
1.03383e-05
1.08544e-05
1.14317e-05
1.20393e-05
1.26459e-05
1.32906e-05
7.15095e-05
6.30795e-05
5.99688e-05
5.9157e-05
5.91054e-05
5.97046e-05
6.08523e-05
6.2366e-05
6.39043e-05
6.50346e-05
6.52573e-05
6.41898e-05
9.92287e-05
9.33878e-05
9.26409e-05
9.29723e-05
9.30742e-05
9.33523e-05
9.41609e-05
9.53093e-05
9.62951e-05
9.64816e-05
9.52294e-05
9.21531e-05
0.00011067
0.000109009
0.000110889
0.00011258
0.000113088
0.000113166
0.000113657
0.000114493
0.000115156
0.000114958
0.00011321
0.000109396
0.000115566
0.00011717
0.000121029
0.000123806
0.000124738
0.000124776
0.000125104
0.000125766
0.000126263
0.000125889
0.000123927
0.00011977
0.000117469
0.000120732
0.000125622
0.000129003
0.000130177
0.000130224
0.000130485
0.000131067
0.000131488
0.000131038
0.000128978
0.000124652
0.000117469
0.000120733
0.000125623
0.000129005
0.00013018
0.000130228
0.000130489
0.00013107
0.00013149
0.00013104
0.000128978
0.000124652
0.000115567
0.00011717
0.000121032
0.000123811
0.000124747
0.000124787
0.000125115
0.000125775
0.000126269
0.000125893
0.000123928
0.000119768
0.000110671
0.000109009
0.000110891
0.000112588
0.000113103
0.000113184
0.000113674
0.000114508
0.000115166
0.000114962
0.000113211
0.000109394
9.92285e-05
9.3385e-05
9.26418e-05
9.29822e-05
9.30943e-05
9.33778e-05
9.41854e-05
9.53284e-05
9.63066e-05
9.6486e-05
9.52288e-05
9.21502e-05
7.1508e-05
6.30744e-05
5.99671e-05
5.9166e-05
5.91325e-05
5.97407e-05
6.08869e-05
6.23912e-05
6.39167e-05
6.50355e-05
6.52518e-05
6.41842e-05
1.06655e-05
9.52168e-06
9.13683e-06
9.23384e-06
9.52075e-06
9.89561e-06
1.034e-05
1.08553e-05
1.14319e-05
1.20389e-05
1.26454e-05
1.32902e-05
1.05401e-05
9.21053e-06
8.86087e-06
9.00193e-06
9.29411e-06
9.66063e-06
1.00899e-05
1.05859e-05
1.11407e-05
1.17314e-05
1.23284e-05
1.29527e-05
7.20256e-05
6.20364e-05
5.86884e-05
5.84657e-05
5.90253e-05
5.9895e-05
6.11079e-05
6.25389e-05
6.38919e-05
6.47978e-05
6.48426e-05
6.37608e-05
9.93079e-05
9.16706e-05
9.08802e-05
9.22781e-05
9.32703e-05
9.39869e-05
9.49071e-05
9.59852e-05
9.68126e-05
9.68249e-05
9.54375e-05
9.22641e-05
0.000110487
0.000107
0.00010906
0.000111983
0.000113487
0.000114044
0.000114638
0.000115386
0.000115889
0.000115534
0.000113677
0.000109822
0.000115296
0.000115099
0.000119225
0.000123285
0.000125243
0.000125766
0.000126186
0.000126752
0.000127096
0.000126592
0.000124557
0.000120416
0.000117174
0.000118654
0.000123846
0.000128513
0.000130728
0.000131259
0.000131607
0.00013209
0.000132366
0.000131802
0.000129697
0.000125423
0.000117175
0.000118654
0.000123847
0.000128515
0.000130731
0.000131262
0.00013161
0.000132094
0.000132368
0.000131803
0.000129697
0.000125423
0.000115297
0.000115099
0.000119227
0.000123291
0.000125252
0.000125777
0.000126197
0.000126762
0.000127103
0.000126595
0.000124558
0.000120415
0.000110488
0.000107
0.000109063
0.000111992
0.000113502
0.000114062
0.000114656
0.000115401
0.000115899
0.000115538
0.000113678
0.00010982
9.93079e-05
9.16677e-05
9.08811e-05
9.22882e-05
9.3291e-05
9.40129e-05
9.4932e-05
9.60042e-05
9.6824e-05
9.68292e-05
9.5437e-05
9.22613e-05
7.20249e-05
6.20314e-05
5.86869e-05
5.84751e-05
5.90533e-05
5.99319e-05
6.11429e-05
6.2564e-05
6.39039e-05
6.47983e-05
6.48367e-05
6.37542e-05
1.05391e-05
9.20922e-06
8.8606e-06
9.00304e-06
9.29588e-06
9.66261e-06
1.00915e-05
1.05868e-05
1.11409e-05
1.17311e-05
1.23279e-05
1.29523e-05
1.03594e-05
8.87043e-06