/*--------------------------------*- C++ -*----------------------------------*\
| =========                 |                                                 |
| \\      /  F ield         | OpenFOAM: The Open Source CFD Toolbox           |
|  \\    /   O peration     | Version:  2.3.1                                 |
|   \\  /    A nd           | Web:      www.OpenFOAM.org                      |
|    \\/     M anipulation  |                                                 |
\*---------------------------------------------------------------------------*/
FoamFile
{
    version     2.0;
    format      ascii;
    class       surfaceScalarField;
    location    "20";
    object      phi;
}
// * * * * * * * * * * * * * * * * * * * * * * * * * * * * * * * * * * * * * //

dimensions      [0 3 -1 0 0 0 0];

internalField   nonuniform List<scalar> 
108641
(
2.06648e-05
7.18e-08
9.55727e-08
2.06302e-05
-7.55125e-10
3.5384e-08
2.04402e-05
-7.10638e-08
2.61044e-07
2.0157e-05
5.54871e-08
2.27669e-07
2.0113e-05
-1.29915e-07
1.73966e-07
1.97699e-05
2.61372e-08
3.16961e-07
1.96482e-05
4.13952e-08
8.03292e-08
1.96151e-05
-1.25811e-07
1.58878e-07
1.94564e-05
6.2238e-08
9.65067e-08
1.97117e-05
-1.43202e-07
-1.12146e-07
1.97086e-05
-8.90631e-08
9.21392e-08
4.6125e-08
-2.65099e-07
1.99276e-05
2.07605e-05
5.45426e-08
8.89323e-08
2.06752e-05
1.75422e-08
6.70121e-08
2.04598e-05
-6.02856e-08
2.04634e-07
2.02664e-05
4.8305e-08
2.00526e-07
2.01378e-05
-9.83516e-08
9.71163e-08
1.99214e-05
1.90016e-08
2.2354e-07
1.98583e-05
4.17824e-08
6.26936e-08
1.98022e-05
-1.20089e-07
5.03557e-08
1.97518e-05
4.07255e-08
7.18836e-08
1.98973e-05
-1.28852e-07
-1.59839e-07
1.99716e-05
-9.53253e-08
-6.80327e-08
5.12386e-08
-2.4201e-07
2.02085e-05
2.07542e-05
2.50781e-08
1.07407e-07
2.06645e-05
2.55981e-08
8.16782e-08
2.04456e-05
-1.54825e-08
1.74117e-07
2.0258e-05
2.58533e-08
2.09998e-07
2.01205e-05
-3.26959e-08
7.19212e-08
1.99133e-05
2.27395e-08
2.03442e-07
1.98434e-05
2.21902e-08
8.94621e-08
1.97849e-05
-6.0656e-08
-9.05799e-10
1.9754e-05
1.2688e-08
5.89148e-08
1.9885e-05
-7.27579e-08
-1.87083e-07
1.99805e-05
-4.22977e-08
-1.48512e-07
3.12817e-08
-2.22859e-07
2.02233e-05
2.07286e-05
7.35598e-09
1.21273e-07
2.06497e-05
2.14566e-08
8.31064e-08
2.0447e-05
5.5912e-09
1.81574e-07
2.0229e-05
9.92666e-09
2.33923e-07
2.01177e-05
1.15157e-09
7.74434e-08
1.98932e-05
1.80307e-08
2.29211e-07
1.97971e-05
6.52126e-09
1.11758e-07
1.97651e-05
-2.23782e-08
-6.22942e-09
1.97044e-05
-3.56125e-09
7.69918e-08
1.98609e-05
-3.23407e-08
-1.97005e-07
1.99867e-05
-9.33559e-09
-1.58741e-07
1.29872e-08
-1.94419e-07
2.01994e-05
2.07109e-05
1.40614e-09
1.27208e-07
2.06389e-05
1.22462e-08
8.12602e-08
2.04519e-05
6.55586e-09
1.86033e-07
2.0214e-05
3.28126e-09
2.4455e-07
2.01221e-05
7.19377e-09
8.58082e-08
1.98854e-05
9.52568e-09
2.45253e-07
1.97694e-05
1.96378e-09
1.20495e-07
1.97582e-05
-6.38981e-09
-4.78661e-09
1.96734e-05
-4.26424e-09
8.55193e-08
1.98504e-05
-1.07791e-08
-1.98509e-07
1.99961e-05
5.40932e-10
-1.5559e-07
5.06595e-09
-1.80353e-07
2.01844e-05
2.07038e-05
4.79334e-11
1.29792e-07
2.06353e-05
-1.54616e-10
8.08581e-08
2.04522e-05
-2.52574e-10
1.89855e-07
2.02057e-05
2.59855e-11
2.49844e-07
2.01211e-05
-3.19239e-10
9.2078e-08
1.98765e-05
-9.82944e-11
2.54178e-07
1.97546e-05
-7.36824e-11
1.23962e-07
1.97512e-05
-3.98121e-10
-2.62264e-09
1.96566e-05
-4.88601e-11
9.03895e-08
1.98445e-05
-3.56519e-10
-1.98321e-07
1.99972e-05
-3.7434e-10
-1.5173e-07
-6.28798e-11
-1.74297e-07
2.01766e-05
2.07038e-05
-1.3097e-09
1.29792e-07
2.06353e-05
-1.25411e-08
8.08595e-08
2.04522e-05
-7.03933e-09
1.89818e-07
2.02057e-05
-3.22724e-09
2.49842e-07
2.01211e-05
-7.79252e-09
9.20566e-08
1.98766e-05
-9.70245e-09
2.5413e-07
1.97546e-05
-2.09679e-09
1.23966e-07
1.97513e-05
5.62961e-09
-2.67291e-09
1.96567e-05
4.18185e-09
9.03459e-08
1.98446e-05
1.01007e-08
-1.98331e-07
1.99972e-05
-1.22537e-09
-1.51817e-07
-5.17032e-09
-1.74311e-07
2.01766e-05
2.07109e-05
-7.26507e-09
1.27208e-07
2.06388e-05
-2.17141e-08
8.12621e-08
2.04519e-05
-5.99981e-09
1.85923e-07
2.0214e-05
-9.85979e-09
2.44549e-07
2.01221e-05
-1.67183e-09
8.5757e-08
1.98854e-05
-1.81436e-08
2.45116e-07
1.97694e-05
-6.62724e-09
1.20497e-07
1.97583e-05
2.17644e-08
-4.95088e-09
1.96735e-05
3.53637e-09
8.53836e-08
1.98504e-05
3.17848e-08
-1.98559e-07
1.99962e-05
8.81001e-09
-1.55826e-07
-1.30319e-08
-1.80386e-07
2.01844e-05
2.07286e-05
-2.49768e-08
1.21272e-07
2.06496e-05
-2.58427e-08
8.31129e-08
2.0447e-05
1.51934e-08
1.81415e-07
2.0229e-05
-2.57727e-08
2.33926e-07
2.01177e-05
3.23073e-08
7.73584e-08
1.98933e-05
-2.27236e-08
2.29006e-07
1.97971e-05
-2.22689e-08
1.11761e-07
1.97651e-05
6.02363e-08
-6.47151e-09
1.97045e-05
-1.26168e-08
7.68023e-08
1.9861e-05
7.23094e-08
-1.97064e-07
1.99869e-05
4.20286e-08
-1.59081e-07
-3.12568e-08
-1.94446e-07
2.01996e-05
2.07542e-05
-5.44194e-08
1.07413e-07
2.06645e-05
-1.78173e-08
8.16702e-08
2.04456e-05
6.01526e-08
1.73938e-07
2.0258e-05
-4.82052e-08
2.10022e-07
2.01204e-05
9.80814e-08
7.18231e-08
1.99133e-05
-1.87927e-08
2.03228e-07
1.98434e-05
-4.18713e-08
8.94622e-08
1.9785e-05
1.19872e-07
-1.16611e-09
1.97542e-05
-4.05471e-08
5.8727e-08
1.98852e-05
1.28469e-07
-1.87162e-07
1.99807e-05
9.53576e-08
-1.48873e-07
-5.1202e-08
-2.22822e-07
2.02235e-05
2.07605e-05
-7.16917e-08
8.89832e-08
2.06752e-05
5.05834e-10
6.6954e-08
2.04598e-05
7.1087e-08
2.04425e-07
2.02664e-05
-5.54141e-08
2.00618e-07
2.01377e-05
1.29796e-07
9.69871e-08
1.99214e-05
-2.58385e-08
2.23405e-07
1.98582e-05
-4.1483e-08
6.27325e-08
1.98023e-05
1.25823e-07
4.99882e-08
1.9752e-05
-6.20535e-08
7.18095e-08
1.98975e-05
1.4293e-07
-1.59943e-07
1.99719e-05
8.92835e-08
-6.83576e-08
-4.61483e-08
-2.41825e-07
2.02087e-05
2.06648e-05
9.5681e-08
2.063e-05
3.52949e-08
2.04403e-05
2.60821e-07
2.0157e-05
2.27906e-07
2.01129e-05
1.73862e-07
1.977e-05
3.17026e-07
1.96481e-05
8.05021e-08
1.96153e-05
1.58557e-07
1.94565e-05
9.67234e-08
1.97118e-05
-1.12286e-07
1.97091e-05
9.19245e-08
-2.64639e-07
1.99276e-05
2.08844e-05
4.3317e-08
1.60562e-12
2.08685e-05
1.2781e-09
5.0069e-08
2.08207e-05
-7.72462e-08
3.86064e-07
2.06708e-05
4.44542e-08
3.33164e-07
2.06434e-05
-8.83019e-08
2.89625e-07
2.04919e-05
1.42826e-08
4.54212e-07
2.03534e-05
5.46039e-08
1.6424e-07
2.03788e-05
-8.6762e-08
2.20188e-07
2.03008e-05
5.80866e-08
1.16431e-07
2.04508e-05
-1.04535e-07
-1.57607e-07
2.06172e-05
-8.40454e-08
9.77836e-09
5.88201e-08
-4.73563e-07
2.07668e-05
2.09547e-05
2.89712e-08
-1.92508e-08
2.09283e-05
-6.53119e-09
1.01241e-07
2.08442e-05
-6.1528e-08
2.73062e-07
2.07705e-05
3.61634e-08
2.82464e-07
2.06676e-05
-6.59286e-08
1.77628e-07
2.05804e-05
1.55543e-08
3.09474e-07
2.04967e-05
4.02763e-08
1.60685e-07
2.04446e-05
-7.77601e-08
9.35482e-08
2.0446e-05
3.59821e-08
9.25265e-08
2.04658e-05
-9.79694e-08
-1.86189e-07
2.05706e-05
-7.34224e-08
-1.83502e-07
4.36503e-08
-4.05599e-07
2.07494e-05
2.09602e-05
1.23541e-08
-4.01863e-09
2.09382e-05
-1.87826e-09
9.90985e-08
2.08372e-05
-2.57109e-08
2.39252e-07
2.07739e-05
2.08536e-08
2.88592e-07
2.06571e-05
-2.28025e-08
1.45568e-07
2.05739e-05
1.90568e-08
2.83192e-07
2.04961e-05
2.35117e-08
1.83987e-07
2.04099e-05
-3.62454e-08
4.38133e-08
2.04145e-05
1.7134e-08
7.31974e-08
2.04013e-05
-5.49273e-08
-2.16985e-07
2.04713e-05
-2.74438e-08
-2.64433e-07
3.10109e-08
-3.8727e-07
2.06483e-05
2.09549e-05
3.4355e-09
7.47363e-09
2.09407e-05
3.21001e-09
9.21946e-08
2.08429e-05
-3.74203e-09
2.57399e-07
2.07623e-05
1.12847e-08
3.2416e-07
2.06493e-05
2.23445e-09
1.65343e-07
2.05614e-05
1.72157e-08
3.1899e-07
2.04657e-05
1.24535e-08
2.18463e-07
2.03805e-05
-9.39658e-09
5.21186e-08
2.03722e-05
6.08448e-09
9.64335e-08
2.03605e-05
-2.30461e-08
-2.17181e-07
2.04402e-05
-1.7519e-09
-2.64161e-07
1.99855e-08
-3.50175e-07
2.0607e-05
2.09472e-05
8.78187e-10
1.47341e-08
2.09395e-05
3.47134e-09
8.8745e-08
2.08509e-05
1.44447e-09
2.69377e-07
2.07566e-05
4.81753e-09
3.45369e-07
2.06513e-05
6.02901e-09
1.87321e-07
2.05577e-05
9.14609e-09
3.46898e-07
2.04446e-05
5.5342e-09
2.40533e-07
2.03644e-05
-8.40827e-10
6.6871e-08
2.03414e-05
1.37469e-09
1.13169e-07
2.03357e-05
-7.45293e-09
-2.08375e-07
2.0426e-05
3.47575e-09
-2.51145e-07
1.00609e-08
-3.2658e-07
2.05822e-05
2.09433e-05
1.49636e-11
1.95365e-08
2.09391e-05
-1.02745e-10
8.85995e-08
2.08538e-05
-1.50403e-10
2.76756e-07
2.07526e-05
1.65889e-11
3.55896e-07
2.06508e-05
-2.02994e-10
2.00049e-07
2.0553e-05
-6.90838e-11
3.61272e-07
2.04323e-05
-8.04107e-11
2.50224e-07
2.03539e-05
-2.78844e-10
7.52195e-08
2.0324e-05
-6.50095e-11
1.21698e-07
2.03222e-05
-2.7599e-10
-2.03617e-07
2.04168e-05
-2.56328e-10
-2.42649e-07
-6.44435e-11
-3.1569e-07
2.05683e-05
2.09433e-05
-8.45e-10
1.95303e-08
2.09391e-05
-3.66929e-09
8.85918e-08
2.08538e-05
-1.73182e-09
2.76711e-07
2.07526e-05
-4.78095e-09
3.55885e-07
2.06508e-05
-6.40868e-09
2.00019e-07
2.05529e-05
-9.26527e-09
3.61206e-07
2.04323e-05
-5.6777e-09
2.50204e-07
2.03539e-05
3.03438e-10
7.51526e-08
2.0324e-05
-1.4818e-09
1.21627e-07
2.03221e-05
6.93082e-09
-2.03648e-07
2.04168e-05
-3.93836e-09
-2.42757e-07
-1.01629e-08
-3.15731e-07
2.05683e-05
2.09472e-05
-3.3978e-09
1.47213e-08
2.09395e-05
-3.38356e-09
8.87143e-08
2.08509e-05
3.50416e-09
2.6924e-07
2.07566e-05
-1.1231e-08
3.45342e-07
2.06513e-05
-2.55589e-09
1.87244e-07
2.05577e-05
-1.72756e-08
3.46703e-07
2.04446e-05
-1.25628e-08
2.40462e-07
2.03643e-05
8.98565e-09
6.66339e-08
2.03414e-05
-6.12782e-09
1.12949e-07
2.03357e-05
2.26274e-08
-2.08498e-07
2.04259e-05
1.43691e-09
-2.51453e-07
-2.00113e-08
-3.26688e-07
2.05821e-05
2.09549e-05
-1.23028e-08
7.45926e-09
2.09408e-05
1.71236e-09
9.21538e-08
2.08429e-05
2.55501e-08
2.57201e-07
2.07623e-05
-2.07751e-08
3.24129e-07
2.06493e-05
2.25654e-08
1.65222e-07
2.05613e-05
-1.90097e-08
3.18703e-07
2.04657e-05
-2.35755e-08
2.18366e-07
2.03805e-05
3.59646e-08
5.17943e-08
2.03721e-05
-1.70727e-08
9.61258e-08
2.03604e-05
5.46093e-08
-2.17332e-07
2.044e-05
2.73322e-08
-2.64581e-07
-3.09407e-08
-3.50296e-07
2.06068e-05
2.09602e-05
-2.88967e-08
-4.02827e-09
2.09382e-05
6.33657e-09
9.9033e-08
2.08372e-05
6.14635e-08
2.39031e-07
2.07739e-05
-3.60427e-08
2.88581e-07
2.06571e-05
6.57729e-08
1.45428e-07
2.05738e-05
-1.53526e-08
2.82878e-07
2.04961e-05
-4.03078e-08
1.83876e-07
2.04098e-05
7.76582e-08
4.3428e-08
2.04144e-05
-3.58012e-08
7.28789e-08
2.04013e-05
9.77182e-08
-2.17151e-07
2.04711e-05
7.35355e-08
-2.64864e-07
-4.35232e-08
-3.87307e-07
2.06482e-05
2.09547e-05
-4.32207e-08
-1.92174e-08
2.09284e-05
-1.45276e-09
1.01088e-07
2.08442e-05
7.72641e-08
2.72818e-07
2.07705e-05
-4.43258e-08
2.82551e-07
2.06676e-05
8.82309e-08
1.77479e-07
2.05804e-05
-1.39949e-08
3.09268e-07
2.04968e-05
-5.46167e-08
1.60637e-07
2.04445e-05
8.67781e-08
9.31263e-08
2.0446e-05
-5.78709e-08
9.23342e-08
2.04658e-05
1.0433e-07
-1.86336e-07
2.05706e-05
8.42828e-08
-1.83857e-07
-5.87322e-08
-4.0542e-07
2.07494e-05
2.08845e-05
1.54995e-10
2.08685e-05
4.98506e-08
2.08207e-05
3.85838e-07
2.06707e-05
3.33573e-07
2.06433e-05
2.89578e-07
2.04919e-05
4.54372e-07
2.03533e-05
1.64461e-07
2.03789e-05
2.19818e-07
2.0301e-05
1.16664e-07
2.04509e-05
-1.57771e-07
2.06175e-05
9.5907e-09
-4.72925e-07
2.0767e-05
2.06594e-05
9.42246e-08
7.85998e-08
2.05129e-05
4.48728e-08
1.51621e-07
2.04367e-05
-2.39628e-09
4.64675e-07
2.02584e-05
5.82921e-08
4.53223e-07
2.01933e-05
-7.60595e-08
4.30759e-07
2.00642e-05
2.22365e-08
5.61112e-07
1.98864e-05
-2.79515e-09
3.44754e-07
1.98663e-05
-1.00986e-07
3.41273e-07
1.97456e-05
9.29165e-09
2.27921e-07
1.98033e-05
-1.51123e-07
-6.42101e-08
1.99088e-05
-6.34815e-08
-3.22949e-08
1.32349e-08
-5.11237e-07
1.99333e-05
2.06369e-05
7.02408e-08
2.00007e-07
2.04634e-05
3.86467e-08
2.80972e-07
2.02614e-05
2.27357e-08
4.49901e-07
2.00475e-05
6.29188e-08
4.9181e-07
1.97751e-05
-2.54219e-08
3.99392e-07
1.95599e-05
4.62428e-08
5.00673e-07
1.932e-05
9.4126e-09
3.88375e-07
1.90998e-05
-5.4348e-08
2.67108e-07
1.89672e-05
8.65952e-09
2.25722e-07
1.88252e-05
-1.09886e-07
-8.54679e-08
1.88212e-05
-3.50171e-08
-2.07965e-07
3.61874e-09
-4.83136e-07
1.89084e-05
2.061e-05
4.38715e-08
2.44552e-07
2.04399e-05
3.5792e-08
2.71997e-07
2.02168e-05
3.5361e-08
4.49744e-07
2.00063e-05
6.12489e-08
5.00775e-07
1.97141e-05
2.41568e-08
3.88151e-07
1.94869e-05
6.01691e-08
4.96529e-07
1.92297e-05
3.80124e-08
4.12534e-07
1.89655e-05
3.96891e-09
2.49757e-07
1.88094e-05
2.64996e-08
2.11394e-07
1.86239e-05
-3.67731e-08
-1.04539e-07
1.85784e-05
1.11694e-08
-2.65097e-07
2.9831e-08
-4.96366e-07
1.86612e-05
2.05844e-05
2.17145e-08
2.7737e-07
2.04036e-05
2.66527e-08
2.82192e-07
2.01658e-05
3.04014e-08
5.00174e-07
1.99474e-05
4.18835e-08
5.61924e-07
1.96598e-05
3.14097e-08
4.45645e-07
1.943e-05
4.40508e-08
5.64939e-07
1.91758e-05
3.12603e-08
4.79422e-07
1.8914e-05
1.77127e-08
3.00147e-07
1.87547e-05
2.0855e-08
2.61409e-07
1.85781e-05
-4.74114e-09
-7.26484e-08
1.85359e-05
2.4342e-08
-2.35099e-07
3.31359e-08
-4.45923e-07
1.86283e-05
2.05686e-05
8.68515e-09
2.91401e-07
2.03853e-05
1.40622e-08
2.84563e-07
2.01458e-05
1.59028e-08
5.23434e-07
1.99192e-05
2.07358e-08
5.93106e-07
1.96358e-05
1.95779e-08
4.82559e-07
1.9399e-05
2.20521e-08
6.05708e-07
1.91379e-05
1.71749e-08
5.15723e-07
1.88786e-05
1.22038e-08
3.31659e-07
1.87134e-05
1.06675e-08
2.88578e-07
1.8549e-05
3.36954e-09
-5.21493e-08
1.85173e-05
1.66624e-08
-2.11757e-07
2.12026e-08
-4.15217e-07
1.86179e-05
2.05622e-05
-5.01796e-13
2.98258e-07
2.0378e-05
-1.02437e-10
2.86893e-07
2.01369e-05
-8.25297e-11
5.33913e-07
1.99061e-05
-2.04202e-11
6.07354e-07
1.96248e-05
-1.42537e-10
5.01134e-07
1.93829e-05
-5.85545e-11
6.25225e-07
1.91178e-05
-1.32209e-10
5.32705e-07
1.88583e-05
-2.0635e-10
3.47134e-07
1.86891e-05
-1.07707e-10
3.01595e-07
1.85314e-05
-2.31912e-10
-4.23135e-08
1.85052e-05
-1.29394e-10
-1.99596e-07
-5.5507e-11
-4.00378e-07
1.86111e-05
2.05622e-05
-8.68449e-09
2.98251e-07
2.0378e-05
-1.42584e-08
2.86867e-07
2.01368e-05
-1.60556e-08
5.33867e-07
1.99061e-05
-2.07687e-08
6.07334e-07
1.96248e-05
-1.98407e-08
5.01101e-07
1.93829e-05
-2.21502e-08
6.25159e-07
1.91177e-05
-1.74155e-08
5.32664e-07
1.88582e-05
-1.25767e-08
3.47051e-07
1.86891e-05
-1.08512e-08
3.01504e-07
1.85313e-05
-3.78799e-09
-4.23734e-08
1.8505e-05
-1.68761e-08
-1.99713e-07
-2.12824e-08
-4.00446e-07
1.8611e-05
2.05686e-05
-2.17102e-08
2.91384e-07
2.03854e-05
-2.68248e-08
2.84481e-07
2.01458e-05
-3.05173e-08
5.23297e-07
1.99192e-05
-4.18922e-08
5.93052e-07
1.96357e-05
-3.16122e-08
4.82469e-07
1.93988e-05
-4.40888e-08
6.0551e-07
1.91377e-05
-3.14431e-08
5.15598e-07
1.88784e-05
-1.79876e-08
3.31398e-07
1.87131e-05
-2.09537e-08
2.88306e-07
1.85487e-05
4.43527e-09
-5.23357e-08
1.85169e-05
-2.44266e-08
-2.12087e-07
-3.31311e-08
-4.15399e-07
1.86175e-05
2.05844e-05
-4.38537e-08
2.77345e-07
2.04037e-05
-3.59504e-08
2.82072e-07
2.01658e-05
-3.54111e-08
4.99972e-07
1.99474e-05
-6.12235e-08
5.61852e-07
1.96598e-05
-2.42788e-08
4.45514e-07
1.94298e-05
-6.01055e-08
5.6465e-07
1.91756e-05
-3.81166e-08
4.79245e-07
1.89137e-05
-4.0852e-09
2.99776e-07
1.87544e-05
-2.64691e-08
2.61025e-07
1.85777e-05
3.65965e-08
-7.28832e-08
1.85353e-05
-1.10619e-08
-2.35549e-07
-2.9726e-08
-4.46141e-07
1.86278e-05
2.061e-05
-7.02088e-08
2.44527e-07
2.044e-05
-3.88005e-08
2.71835e-07
2.02168e-05
-2.27006e-08
4.49516e-07
2.00063e-05
-6.28511e-08
5.00714e-07
1.97141e-05
2.53919e-08
3.88e-07
1.94867e-05
-4.60343e-08
4.962e-07
1.92296e-05
-9.44471e-09
4.12343e-07
1.89652e-05
5.44033e-08
2.49329e-07
1.88091e-05
-8.49334e-09
2.10995e-07
1.86235e-05
1.09805e-07
-1.04768e-07
1.85778e-05
3.53146e-08
-2.65536e-07
-3.45848e-09
-4.96488e-07
1.86607e-05
2.06369e-05
-9.41708e-08
2.00001e-07
2.04635e-05
-4.50432e-08
2.80751e-07
2.02615e-05
2.49298e-09
4.49675e-07
2.00475e-05
-5.82048e-08
4.91863e-07
1.9775e-05
7.60753e-08
3.99298e-07
1.95597e-05
-2.19412e-08
5.00469e-07
1.93198e-05
2.77888e-09
3.88297e-07
1.90995e-05
1.01133e-07
2.66721e-07
1.8967e-05
-9.09095e-09
2.25476e-07
1.8825e-05
1.51028e-07
-8.55724e-08
1.88208e-05
6.38424e-08
-2.08257e-07
-1.31563e-08
-4.8296e-07
1.89081e-05
2.06595e-05
7.86743e-08
2.05129e-05
1.51357e-07
2.04367e-05
4.64594e-07
2.02584e-05
4.53679e-07
2.01931e-05
4.30897e-07
2.00642e-05
5.61341e-07
1.98865e-05
3.44984e-07
1.98664e-05
3.41034e-07
1.97458e-05
2.28136e-07
1.98033e-05
-6.42305e-08
1.99091e-05
-3.23373e-08
-5.10522e-07
1.99335e-05
2.05848e-05
-6.00644e-09
3.31967e-07
2.02429e-05
-7.72048e-08
5.70789e-07
2.00093e-05
-4.10484e-08
7.39295e-07
1.95877e-05
8.18407e-09
8.6666e-07
1.92109e-05
-5.31378e-08
8.60659e-07
1.87784e-05
4.02669e-08
9.5337e-07
1.83423e-05
-1.82625e-08
7.9908e-07
1.80038e-05
-2.20152e-08
7.01796e-07
1.76663e-05
1.73874e-08
5.48034e-07
1.7497e-05
-1.05263e-07
2.10367e-07
1.73484e-05
2.69846e-08
8.92874e-08
-2.06904e-08
-4.51571e-07
1.73095e-05
2.02262e-05
9.57103e-09
7.90465e-07
1.93823e-05
-2.80364e-08
1.07563e-06
1.85925e-05
5.3772e-08
1.14495e-06
1.78398e-05
1.00042e-07
1.15263e-06
1.71637e-05
7.47107e-08
9.476e-07
1.66718e-05
1.24817e-07
9.08038e-07
1.62612e-05
6.73089e-08
7.13449e-07
1.59604e-05
4.43722e-08
5.01454e-07
1.58021e-05
4.00184e-08
3.61461e-07
1.56867e-05
-4.77954e-08
-2.76184e-08
1.57419e-05
3.9668e-08
-2.75813e-07
2.07668e-08
-6.9462e-07
1.59119e-05
2.02129e-05
9.48033e-09
8.6389e-07
1.93186e-05
-6.00383e-10
1.13892e-06
1.84969e-05
7.45346e-08
1.25068e-06
1.77358e-05
1.19708e-07
1.24221e-06
1.70339e-05
1.19987e-07
1.04479e-06
1.65309e-05
1.43126e-07
9.81207e-07
1.61243e-05
1.03248e-07
7.83136e-07
1.5808e-05
7.71968e-08
5.33246e-07
1.56435e-05
5.95243e-08
3.56409e-07
1.55145e-05
1.47549e-08
-3.80783e-08
1.55608e-05
6.35406e-08
-3.35303e-07
6.15529e-08
-7.2654e-07
1.57502e-05
2.01839e-05
4.47362e-09
9.30659e-07
1.92551e-05
8.70047e-09
1.20171e-06
1.84245e-05
5.34605e-08
1.35185e-06
1.76714e-05
8.62298e-08
1.34849e-06
1.69845e-05
9.65801e-08
1.15599e-06
1.64988e-05
1.04927e-07
1.08877e-06
1.61123e-05
8.27665e-08
8.86397e-07
1.58069e-05
6.62885e-08
6.16489e-07
1.56522e-05
5.11607e-08
4.24436e-07
1.55389e-05
3.3921e-08
2.15528e-08
1.55934e-05
6.14653e-08
-2.87512e-07
6.59016e-08
-6.61249e-07
1.58043e-05
2.01692e-05
2.98543e-09
9.55895e-07
1.92294e-05
7.85726e-09
1.2252e-06
1.83911e-05
2.74321e-08
1.38777e-06
1.76348e-05
4.39357e-08
1.3917e-06
1.69533e-05
5.08812e-08
1.2097e-06
1.64695e-05
5.26663e-08
1.14184e-06
1.6089e-05
4.32659e-08
9.35668e-07
1.57926e-05
3.51428e-08
6.5926e-07
1.56454e-05
2.78308e-08
4.59118e-07
1.55504e-05
2.37932e-08
5.29494e-08
1.56179e-05
3.65103e-08
-2.54275e-07
4.0867e-08
-6.18607e-07
1.58463e-05
2.01653e-05
-4.07033e-11
9.68155e-07
1.92235e-05
-1.1841e-10
1.2367e-06
1.83812e-05
-6.73955e-11
1.40368e-06
1.76215e-05
-6.07165e-11
1.41107e-06
1.69395e-05
-1.14876e-10
1.23408e-06
1.64524e-05
-8.39701e-11
1.16513e-06
1.60717e-05
-1.53843e-10
9.56833e-07
1.57771e-05
-1.49893e-10
6.77005e-07
1.56332e-05
-9.76461e-11
4.7347e-07
1.55484e-05
-1.32972e-10
6.63573e-08
1.56241e-05
-1.69867e-11
-2.38721e-07
-1.40002e-11
-5.98522e-07
1.58631e-05
2.01653e-05
-3.06194e-09
9.68152e-07
1.92235e-05
-8.08195e-09
1.23666e-06
1.83812e-05
-2.75531e-08
1.40363e-06
1.76215e-05
-4.40402e-08
1.41104e-06
1.69395e-05
-5.10842e-08
1.23404e-06
1.64523e-05
-5.28057e-08
1.16506e-06
1.60716e-05
-4.35368e-08
9.56773e-07
1.5777e-05
-3.53969e-08
6.76907e-07
1.5633e-05
-2.7985e-08
4.73358e-07
1.55483e-05
-2.40107e-08
6.62643e-08
1.56239e-05
-3.65001e-08
-2.38855e-07
-4.086e-08
-5.98619e-07
1.58629e-05
2.01692e-05
-4.53586e-09
9.55889e-07
1.92294e-05
-8.89346e-09
1.22508e-06
1.8391e-05
-5.35403e-08
1.38761e-06
1.76347e-05
-8.62862e-08
1.39162e-06
1.69532e-05
-9.6705e-08
1.2096e-06
1.64693e-05
-1.04985e-07
1.14165e-06
1.60888e-05
-8.29424e-08
9.35493e-07
1.57922e-05
-6.64204e-08
6.5897e-07
1.5645e-05
-5.12047e-08
4.58796e-07
1.55499e-05
-3.40087e-08
5.26793e-08
1.56173e-05
-6.13269e-08
-2.54655e-07
-6.58005e-08
-6.18873e-07
1.58457e-05
2.01839e-05
-9.51883e-09
9.30647e-07
1.92551e-05
4.50107e-10
1.20151e-06
1.84245e-05
-7.45481e-08
1.35161e-06
1.76713e-05
-1.19695e-07
1.34837e-06
1.69843e-05
-1.19997e-07
1.15585e-06
1.64985e-05
-1.43057e-07
1.0885e-06
1.6112e-05
-1.03292e-07
8.86155e-07
1.58064e-05
-7.7145e-08
6.16071e-07
1.56516e-05
-5.94196e-08
4.23984e-07
1.55382e-05
-1.4682e-08
2.12065e-08
1.55926e-05
-6.32271e-08
-2.88023e-07
-6.13446e-08
-6.61572e-07
1.58036e-05
2.02129e-05
-9.58556e-09
8.63884e-07
1.93186e-05
2.79159e-08
1.13866e-06
1.84969e-05
-5.36803e-08
1.25038e-06
1.77357e-05
-9.99362e-08
1.24208e-06
1.70337e-05
-7.45827e-08
1.04463e-06
1.65305e-05
-1.24594e-07
9.80903e-07
1.61239e-05
-6.72308e-08
7.82887e-07
1.58075e-05
-4.41349e-08
5.32791e-07
1.56429e-05
-3.97973e-08
3.55963e-07
1.55138e-05
4.7989e-08
-3.84125e-08
1.556e-05
-3.91911e-08
-3.35781e-07
-2.05161e-08
-7.26739e-07
1.57495e-05
2.02261e-05
6.02743e-09
7.90442e-07
1.93824e-05
7.70729e-08
1.07534e-06
1.85925e-05
4.12205e-08
1.14469e-06
1.78398e-05
-8.05888e-09
1.15266e-06
1.71636e-05
5.33376e-08
9.47581e-07
1.66715e-05
-3.996e-08
9.07891e-07
1.62609e-05
1.83437e-08
7.13405e-07
1.596e-05
2.23232e-08
5.01129e-07
1.58016e-05
-1.72068e-08
3.6124e-07
1.56863e-05
1.05422e-07
-2.76964e-08
1.57414e-05
-2.6496e-08
-2.76053e-07
2.08136e-08
-6.94412e-07
1.59115e-05
2.05849e-05
3.32003e-07
2.02428e-05
5.70542e-07
2.00093e-05
7.39304e-07
1.95878e-05
8.67063e-07
1.92111e-05
8.61005e-07
1.87787e-05
9.53713e-07
1.83426e-05
7.99457e-07
1.80041e-05
7.01865e-07
1.76667e-05
5.48382e-07
1.74972e-05
2.10611e-07
1.73489e-05
8.9499e-08
-4.50734e-07
1.73099e-05
2.35663e-06
1.59349e-06
-3.61815e-06
4.03912e-06
9.2609e-07
-2.03779e-06
5.56832e-06
6.54277e-07
-1.44418e-06
6.91204e-06
3.8708e-07
-8.64142e-07
7.99598e-06
2.09769e-07
-4.33048e-07
8.87798e-06
1.28695e-07
-5.73273e-08
9.59505e-06
4.29229e-08
3.90908e-08
1.01746e-05
8.3714e-09
1.13881e-07
1.07317e-05
-6.68599e-08
5.77669e-08
1.11976e-05
-6.09035e-08
-1.94569e-07
1.1627e-05
1.86866e-08
-3.58885e-07
9.78058e-09
-9.13248e-07
1.20789e-05
4.9858e-06
1.20653e-06
-3.80837e-06
7.23682e-06
8.69964e-07
-1.11927e-06
8.79816e-06
6.84604e-07
-4.46716e-07
9.81542e-06
4.77212e-07
4.52384e-08
1.04304e-05
3.18337e-07
2.24089e-07
1.08428e-05
2.29461e-07
3.94849e-07
1.11342e-05
1.1785e-07
3.47097e-07
1.13623e-05
6.0454e-08
2.21259e-07
1.15935e-05
4.09625e-09
5.93357e-08
1.1824e-05
-8.35644e-09
-3.10672e-07
1.21461e-05
7.43006e-08
-6.53475e-07
1.10351e-07
-1.21217e-06
1.2563e-05
5.18319e-06
7.39319e-07
-3.85208e-06
7.54446e-06
6.02227e-07
-9.54622e-07
9.15017e-06
5.1833e-07
-1.88749e-07
1.02057e-05
4.02746e-07
2.61146e-07
1.08269e-05
3.04601e-07
4.37351e-07
1.12349e-05
2.31943e-07
5.70706e-07
1.14911e-05
1.44656e-07
5.00102e-07
1.16683e-05
9.1898e-08
3.24568e-07
1.18551e-05
5.05569e-08
1.23149e-07
1.20396e-05
4.42878e-08
-2.75139e-07
1.23441e-05
9.69246e-08
-6.62446e-07
1.33128e-07
-1.19237e-06
1.27871e-05
5.23366e-06
4.20442e-07
-3.98412e-06
7.62364e-06
3.68536e-07
-9.54578e-07
9.24338e-06
3.3238e-07
-8.19388e-08
1.03251e-05
2.73851e-07
3.95623e-07
1.09709e-05
2.18747e-07
5.96067e-07
1.13899e-05
1.6929e-07
7.32478e-07
1.16548e-05
1.15452e-07
6.50669e-07
1.18309e-05
8.14275e-08
4.5088e-07
1.20189e-05
5.74994e-08
2.29454e-07
1.22116e-05
5.70649e-08
-1.83866e-07
1.25206e-05
8.79772e-08
-5.87584e-07
1.1298e-07
-1.10378e-06
1.29832e-05
5.23047e-06
1.87011e-07
-4.04114e-06
7.63024e-06
1.71851e-07
-9.77882e-07
9.25768e-06
1.59005e-07
-6.6301e-08
1.03513e-05
1.35596e-07
4.36371e-07
1.10103e-05
1.11106e-07
6.58326e-07
1.14343e-05
8.64155e-08
8.00646e-07
1.17056e-05
6.14823e-08
7.18407e-07
1.1889e-05
4.53987e-08
5.11898e-07
1.20867e-05
3.55839e-08
2.83288e-07
1.22933e-05
3.73922e-08
-1.34003e-07
1.26143e-05
5.15048e-08
-5.38766e-07
6.38831e-08
-1.04686e-06
1.30916e-05
5.21938e-06
-1.96992e-10
-4.06402e-06
7.62163e-06
-1.6481e-10
-9.93527e-07
9.25257e-06
-1.00299e-10
-6.81585e-08
1.03507e-05
-1.10763e-10
4.48598e-07
1.10148e-05
-1.17826e-10
6.81258e-07
1.14396e-05
-1.00763e-10
8.26833e-07
1.17133e-05
-1.22552e-10
7.44778e-07
1.19004e-05
-7.21525e-11
5.35352e-07
1.21047e-05
-2.28902e-11
3.04725e-07
1.23214e-05
4.17837e-12
-1.12868e-07
1.26505e-05
8.28e-11
-5.16464e-07
4.09819e-11
-1.02091e-06
1.31368e-05
5.21936e-06
-1.87383e-07
-4.06402e-06
7.62159e-06
-1.72154e-07
-9.93581e-07
9.25252e-06
-1.59174e-07
-6.82341e-08
1.03507e-05
-1.3578e-07
4.48545e-07
1.10147e-05
-1.11298e-07
6.81196e-07
1.14395e-05
-8.65704e-08
8.26746e-07
1.17131e-05
-6.16754e-08
7.44687e-07
1.19002e-05
-4.54909e-08
5.35229e-07
1.21046e-05
-3.55839e-08
3.0459e-07
1.23212e-05
-3.73381e-08
-1.12992e-07
1.26503e-05
-5.13008e-08
-5.16613e-07
-6.37691e-08
-1.02104e-06
1.31365e-05
5.23038e-06
-4.20749e-07
-4.04113e-06
7.63011e-06
-3.68762e-07
-9.78047e-07
9.25754e-06
-3.32459e-07
-6.65306e-08
1.03511e-05
-2.73926e-07
4.36216e-07
1.10101e-05
-2.18811e-07
6.58148e-07
1.14341e-05
-1.69317e-07
8.00394e-07
1.17052e-05
-1.15504e-07
7.18152e-07
1.18885e-05
-8.13763e-08
5.11546e-07
1.20862e-05
-5.7373e-08
2.82902e-07
1.22928e-05
-5.68834e-08
-1.34357e-07
1.26137e-05
-8.76687e-08
-5.39186e-07
-1.12782e-07
-1.0472e-06
1.3091e-05
5.23352e-06
-7.39528e-07
-3.9841e-06
7.62344e-06
-6.02325e-07
-9.54849e-07
9.24316e-06
-5.18256e-07
-8.23078e-08
1.03249e-05
-4.02666e-07
3.95393e-07
1.09706e-05
-3.04483e-07
5.95813e-07
1.13894e-05
-2.31786e-07
7.32125e-07
1.16543e-05
-1.44511e-07
6.50311e-07
1.18303e-05
-9.16495e-08
4.50375e-07
1.20182e-05
-5.02704e-08
2.28922e-07
1.22108e-05
-4.3941e-08
-1.8433e-07
1.25197e-05
-9.64845e-08
-5.88137e-07
-1.32822e-07
-1.10419e-06
1.29824e-05
5.18301e-06
-1.2066e-06
-3.85206e-06
7.54423e-06
-8.69891e-07
-9.54994e-07
9.14992e-06
-6.84357e-07
-1.89207e-07
1.02054e-05
-4.76973e-07
2.60886e-07
1.08265e-05
-3.18029e-07
4.37074e-07
1.12345e-05
-2.2913e-07
5.70329e-07
1.14906e-05
-1.1753e-07
4.99749e-07
1.16677e-05
-6.00265e-08
3.24045e-07
1.18545e-05
-3.6929e-09
1.22645e-07
1.20388e-05
8.8141e-09
-2.75546e-07
1.23433e-05
-7.37705e-08
-6.62929e-07
-1.09974e-07
-1.19264e-06
1.27863e-05
4.98565e-06
-1.59343e-06
-3.80838e-06
7.23669e-06
-9.25883e-07
-1.11971e-06
8.79808e-06
-6.5396e-07
-4.47096e-07
9.81537e-06
-3.86781e-07
4.51783e-08
1.04303e-05
-2.09389e-07
2.24028e-07
1.08426e-05
-1.28317e-07
3.94718e-07
1.1134e-05
-4.25491e-08
3.4703e-07
1.13621e-05
-7.9682e-09
2.20998e-07
1.15933e-05
6.72084e-08
5.91728e-08
1.18238e-05
6.13861e-08
-3.10767e-07
1.21458e-05
-1.82462e-08
-6.53606e-07
-9.3835e-09
-1.212e-06
1.25628e-05
2.35669e-06
-3.61812e-06
4.03939e-06
-2.03804e-06
5.56879e-06
-1.44405e-06
6.91267e-06
-8.63602e-07
7.99676e-06
-4.32469e-07
8.87883e-06
-5.66801e-08
9.59599e-06
3.97467e-08
1.01756e-05
1.14303e-07
1.07327e-05
5.84273e-08
1.11988e-05
-1.94011e-07
1.16283e-05
-3.58322e-07
-9.12152e-07
1.20804e-05
-1.15023e-06
4.38883e-07
-2.90681e-06
-5.77424e-07
7.19035e-07
-3.32963e-06
2.71673e-07
4.72169e-07
-2.76545e-06
1.30633e-06
2.55771e-07
-2.15457e-06
2.35533e-06
1.52274e-07
-1.63432e-06
3.3778e-06
7.0624e-08
-1.15042e-06
4.3347e-06
-1.23292e-08
-9.05481e-07
5.20219e-06
-5.51917e-08
-6.98414e-07
6.0103e-06
-4.34634e-08
-7.06886e-07
6.77384e-06
2.1267e-08
-9.79368e-07
7.55915e-06
9.19112e-08
-1.23611e-06
2.94862e-07
-2.0131e-06
8.36414e-06
-2.00327e-07
6.13331e-07
-3.78249e-06
1.50001e-06
8.32777e-07
-2.93335e-06
3.00005e-06
6.07045e-07
-2.08163e-06
4.26226e-06
4.12095e-07
-1.37329e-06
5.28215e-06
2.71327e-07
-9.14849e-07
6.12586e-06
1.64708e-07
-5.42945e-07
6.81426e-06
6.54606e-08
-4.19091e-07
7.38643e-06
1.3122e-08
-4.19233e-07
7.93153e-06
4.46451e-09
-5.33686e-07
8.46442e-06
6.08018e-08
-8.83097e-07
9.07652e-06
1.54413e-07
-1.32807e-06
2.94445e-07
-1.97602e-06
9.84078e-06
2.76911e-07
5.04095e-07
-4.01976e-06
2.18039e-06
6.55721e-07
-2.68105e-06
3.748e-06
5.24083e-07
-1.67339e-06
5.03079e-06
3.95462e-07
-1.00502e-06
6.03217e-06
2.79948e-07
-5.7265e-07
6.83887e-06
1.83821e-07
-2.55108e-07
7.47797e-06
1.02907e-07
-1.76445e-07
7.99675e-06
5.78869e-08
-2.38971e-07
8.48466e-06
4.79712e-08
-4.08274e-07
8.97723e-06
8.56432e-08
-7.92549e-07
9.58255e-06
1.5211e-07
-1.26546e-06
2.37559e-07
-1.90342e-06
1.03505e-05
4.0973e-07
3.32339e-07
-4.2221e-06
2.37018e-06
4.28297e-07
-2.68761e-06
3.97618e-06
3.68831e-07
-1.53268e-06
5.29334e-06
2.9227e-07
-8.18345e-07
6.31609e-06
2.16619e-07
-3.6335e-07
7.13255e-06
1.50387e-07
-5.05531e-08
7.77474e-06
9.65545e-08
1.48375e-08
8.29109e-06
6.63511e-08
-7.39402e-08
8.77832e-06
5.84857e-08
-2.68293e-07
9.27095e-06
8.06228e-08
-6.71474e-07
9.87882e-06
1.19873e-07
-1.16322e-06
1.64203e-07
-1.79806e-06
1.06465e-05
4.45017e-07
1.60904e-07
-4.31473e-06
2.41255e-06
2.06027e-07
-2.72314e-06
4.0358e-06
1.85343e-07
-1.50606e-06
5.37027e-06
1.50618e-07
-7.56446e-07
6.41059e-06
1.14415e-07
-2.79794e-07
7.23955e-06
8.18434e-08
4.02303e-08
7.89234e-06
5.58274e-08
1.06344e-07
8.4184e-06
4.14277e-08
1.07651e-08
8.91514e-06
3.83064e-08
-1.93277e-07
9.4165e-06
4.85973e-08
-6.03338e-07
1.00317e-05
6.59547e-08
-1.1e-06
8.43857e-08
-1.73461e-06
1.07992e-05
4.51605e-07
-1.97202e-10
-4.35453e-06
2.4146e-06
-1.57823e-10
-2.75033e-06
4.04283e-06
-1.06148e-10
-1.51094e-06
5.38385e-06
-1.02157e-10
-7.41702e-07
6.43222e-06
-7.21747e-11
-2.52625e-07
7.26758e-06
-4.21687e-11
7.33602e-08
7.92685e-06
-1.23714e-11
1.41338e-07
8.46013e-06
5.31656e-11
4.34522e-08
8.96491e-06
9.72332e-11
-1.61846e-07
9.47391e-06
1.25578e-10
-5.73396e-07
1.00947e-05
1.39749e-10
-1.0714e-06
5.93497e-11
-1.7056e-06
1.08637e-05
4.51584e-07
-1.61267e-07
-4.35453e-06
2.41456e-06
-2.06304e-07
-2.75041e-06
4.04276e-06
-1.85509e-07
-1.51104e-06
5.38377e-06
-1.50769e-07
-7.41795e-07
6.43212e-06
-1.14504e-07
-2.52725e-07
7.26746e-06
-8.18729e-08
7.32404e-08
7.92672e-06
-5.57996e-08
1.41216e-07
8.45997e-06
-4.12736e-08
4.33065e-08
8.96473e-06
-3.80709e-08
-1.62002e-07
9.47371e-06
-4.83096e-08
-5.73544e-07
1.00944e-05
-6.56486e-08
-1.07156e-06
-8.42473e-08
-1.70573e-06
1.08634e-05
4.44956e-07
-3.3261e-07
-4.31474e-06
2.41242e-06
-4.28458e-07
-2.72336e-06
4.03562e-06
-3.68867e-07
-1.50637e-06
5.37005e-06
-2.92273e-07
-7.56715e-07
6.41033e-06
-2.16553e-07
-2.8008e-07
7.23923e-06
-1.50266e-07
3.98886e-08
7.89197e-06
-9.63832e-08
1.06e-07
8.41795e-06
-6.60714e-08
1.03618e-08
8.91463e-06
-5.81405e-08
-1.93714e-07
9.41596e-06
-8.02397e-08
-6.03753e-07
1.00311e-05
-1.19501e-07
-1.10043e-06
-1.64015e-07
-1.73498e-06
1.07986e-05
4.09644e-07
-5.04234e-07