/*--------------------------------*- C++ -*----------------------------------*\
| =========                 |                                                 |
| \\      /  F ield         | OpenFOAM: The Open Source CFD Toolbox           |
|  \\    /   O peration     | Version:  2.3.1                                 |
|   \\  /    A nd           | Web:      www.OpenFOAM.org                      |
|    \\/     M anipulation  |                                                 |
\*---------------------------------------------------------------------------*/
FoamFile
{
    version     2.0;
    format      ascii;
    class       surfaceScalarField;
    location    "20";
    object      phi_0;
}
// * * * * * * * * * * * * * * * * * * * * * * * * * * * * * * * * * * * * * //

dimensions      [0 3 -1 0 0 0 0];

internalField   nonuniform List<scalar> 
108641
(
2.06649e-05
7.19415e-08
9.53133e-08
2.06307e-05
-1.23485e-09
3.55168e-08
2.04399e-05
-7.08118e-08
2.61576e-07
2.01572e-05
5.54082e-08
2.27326e-07
2.0113e-05
-1.29952e-07
1.74137e-07
1.97695e-05
2.67686e-08
3.16717e-07
1.96486e-05
4.09859e-08
7.99087e-08
1.96152e-05
-1.2572e-07
1.59153e-07
1.94569e-05
6.22391e-08
9.59882e-08
1.97124e-05
-1.43683e-07
-1.1181e-07
1.97087e-05
-8.84553e-08
9.22213e-08
4.57281e-08
-2.65837e-07
1.99288e-05
2.07607e-05
5.46922e-08
8.87674e-08
2.06752e-05
1.71677e-08
6.70472e-08
2.04595e-05
-6.01482e-08
2.05056e-07
2.02664e-05
4.82653e-08
2.00232e-07
2.01377e-05
-9.83813e-08
9.71683e-08
1.99214e-05
1.95571e-08
2.23529e-07
1.98587e-05
4.14122e-08
6.22682e-08
1.98024e-05
-1.20061e-07
5.06174e-08
1.97523e-05
4.07536e-08
7.1571e-08
1.98978e-05
-1.29276e-07
-1.59931e-07
1.99719e-05
-9.47528e-08
-6.77697e-08
5.08995e-08
-2.42557e-07
2.02093e-05
2.07544e-05
2.51582e-08
1.07333e-07
2.06645e-05
2.54512e-08
8.16043e-08
2.04453e-05
-1.54765e-08
1.74496e-07
2.0258e-05
2.58293e-08
2.09768e-07
2.01204e-05
-3.26537e-08
7.19227e-08
1.99133e-05
2.298e-08
2.03626e-07
1.98437e-05
2.19871e-08
8.89822e-08
1.97851e-05
-6.06395e-08
-7.80408e-10
1.97545e-05
1.26887e-08
5.86928e-08
1.98855e-05
-7.29202e-08
-1.87384e-07
1.99808e-05
-4.19725e-08
-1.48124e-07
3.10708e-08
-2.23316e-07
2.0224e-05
2.07288e-05
7.38745e-09
1.21203e-07
2.06498e-05
2.1435e-08
8.29921e-08
2.04468e-05
5.54808e-09
1.81992e-07
2.0229e-05
9.91876e-09
2.33681e-07
2.01177e-05
1.21207e-09
7.74595e-08
1.98931e-05
1.80894e-08
2.29459e-07
1.97975e-05
6.42767e-09
1.11202e-07
1.97653e-05
-2.23795e-08
-6.08831e-09
1.97048e-05
-3.57312e-09
7.67758e-08
1.98616e-05
-3.23509e-08
-1.97392e-07
1.99871e-05
-9.20107e-09
-1.58245e-07
1.28724e-08
-1.94888e-07
2.02002e-05
2.0711e-05
1.41922e-09
1.27129e-07
2.06391e-05
1.22542e-08
8.11391e-08
2.04516e-05
6.52187e-09
1.86472e-07
2.0214e-05
3.28275e-09
2.44307e-07
2.01221e-05
7.22801e-09
8.58452e-08
1.98851e-05
9.52651e-09
2.45506e-07
1.97697e-05
1.9308e-09
1.19897e-07
1.97584e-05
-6.39517e-09
-4.64797e-09
1.96738e-05
-4.27027e-09
8.52977e-08
1.98511e-05
-1.07604e-08
-1.9892e-07
1.99964e-05
5.83545e-10
-1.55057e-07
5.02064e-09
-1.80838e-07
2.01851e-05
2.07038e-05
4.82634e-11
1.29714e-07
2.06355e-05
-1.55409e-10
8.07376e-08
2.0452e-05
-2.5179e-10
1.90304e-07
2.02056e-05
2.60485e-11
2.49602e-07
2.01211e-05
-3.19444e-10
9.21242e-08
1.98763e-05
-9.72716e-11
2.54424e-07
1.97549e-05
-7.44362e-11
1.23347e-07
1.97514e-05
-3.97951e-10
-2.48201e-09
1.9657e-05
-4.86722e-11
9.01636e-08
1.98454e-05
-3.57642e-10
-1.98739e-07
1.99975e-05
-3.73535e-10
-1.51187e-07
-6.31314e-11
-1.7479e-07
2.01774e-05
2.07038e-05
-1.32218e-09
1.29713e-07
2.06355e-05
-1.25507e-08
8.07389e-08
2.0452e-05
-7.00384e-09
1.90266e-07
2.02056e-05
-3.2286e-09
2.496e-07
2.0121e-05
-7.82713e-09
9.21027e-08
1.98763e-05
-9.70138e-09
2.54375e-07
1.97549e-05
-2.06529e-09
1.2335e-07
1.97514e-05
5.63511e-09
-2.53217e-09
1.96571e-05
4.18821e-09
9.01202e-08
1.98454e-05
1.008e-08
-1.98749e-07
1.99975e-05
-1.26664e-09
-1.51273e-07
-5.12549e-09
-1.74804e-07
2.01774e-05
2.0711e-05
-7.29582e-09
1.2713e-07
2.0639e-05
-2.16938e-08
8.11408e-08
2.04516e-05
-5.95536e-09
1.86362e-07
2.02139e-05
-9.85182e-09
2.44307e-07
2.01221e-05
-1.73227e-09
8.57936e-08
1.98852e-05
-1.82006e-08
2.4537e-07
1.97698e-05
-6.53505e-09
1.19898e-07
1.97584e-05
2.1766e-08
-4.81258e-09
1.96739e-05
3.54847e-09
8.51623e-08
1.98512e-05
3.17932e-08
-1.98971e-07
1.99965e-05
8.67682e-09
-1.55293e-07
-1.29178e-08
-1.80871e-07
2.01852e-05
2.07287e-05
-2.50564e-08
1.21203e-07
2.06498e-05
-2.56968e-08
8.29984e-08
2.04468e-05
1.51887e-08
1.81833e-07
2.0229e-05
-2.57488e-08
2.33684e-07
2.01176e-05
3.2265e-08
7.73743e-08
1.98931e-05
-2.29629e-08
2.29254e-07
1.97974e-05
-2.20671e-08
1.11206e-07
1.97653e-05
6.02207e-08
-6.33109e-09
1.97049e-05
-1.26175e-08
7.65866e-08
1.98617e-05
7.24705e-08
-1.97452e-07
1.99872e-05
4.17048e-08
-1.58586e-07
-3.10467e-08
-1.94915e-07
2.02003e-05
2.07544e-05
-5.45689e-08
1.0734e-07
2.06645e-05
-1.74435e-08
8.15961e-08
2.04454e-05
6.00165e-08
1.74317e-07
2.0258e-05
-4.81659e-08
2.09792e-07
2.01203e-05
9.81114e-08
7.1824e-08
1.99133e-05
-1.93475e-08
2.03413e-07
1.98437e-05
-4.15024e-08
8.8982e-08
1.97852e-05
1.19844e-07
-1.03983e-09
1.97546e-05
-4.05758e-08
5.85054e-08
1.98857e-05
1.28892e-07
-1.87463e-07
1.99811e-05
9.47864e-08
-1.48484e-07
-5.08642e-08
-2.23278e-07
2.02242e-05
2.07606e-05
-7.18337e-08
8.88184e-08
2.06752e-05
9.87298e-10
6.69876e-08
2.04595e-05
7.08356e-08
2.04847e-07
2.02664e-05
-5.53358e-08
2.00324e-07
2.01376e-05
1.29833e-07
9.70386e-08
1.99214e-05
-2.64697e-08
2.23395e-07
1.98586e-05
-4.10748e-08
6.23066e-08
1.98025e-05
1.25733e-07
5.0249e-08
1.97525e-05
-6.20554e-08
7.14976e-08
1.9898e-05
1.43411e-07
-1.60035e-07
1.99722e-05
8.86765e-08
-6.80941e-08
-4.57525e-08
-2.42371e-07
2.02095e-05
2.06649e-05
9.54221e-08
2.06305e-05
3.54277e-08
2.044e-05
2.61354e-07
2.01571e-05
2.27563e-07
2.01129e-05
1.74031e-07
1.97696e-05
3.16782e-07
1.96485e-05
8.00806e-08
1.96154e-05
1.58833e-07
1.94571e-05
9.62055e-08
1.97125e-05
-1.11952e-07
1.97091e-05
9.20082e-08
-2.65377e-07
1.99288e-05
2.08844e-05
4.34656e-08
-3.68134e-10
2.08686e-05
8.80602e-10
5.04754e-08
2.08206e-05
-7.71008e-08
3.86684e-07
2.06708e-05
4.44873e-08
3.32595e-07
2.06435e-05
-8.83653e-08
2.89764e-07
2.04916e-05
1.4794e-08
4.53842e-07
2.03535e-05
5.43417e-08
1.63646e-07
2.0379e-05
-8.67345e-08
2.20411e-07
2.03011e-05
5.80986e-08
1.15835e-07
2.04515e-05
-1.04966e-07
-1.57293e-07
2.06175e-05
-8.35123e-08
9.80121e-09
5.85307e-08
-4.74417e-07
2.07675e-05
2.09548e-05
2.90697e-08
-1.94117e-08
2.09281e-05
-6.83306e-09
1.01413e-07
2.0844e-05
-6.14207e-08
2.73497e-07
2.07704e-05
3.61975e-08
2.82071e-07
2.06676e-05
-6.5962e-08
1.77619e-07
2.05805e-05
1.59586e-08
3.09471e-07
2.04969e-05
4.003e-08
1.60176e-07
2.04448e-05
-7.77422e-08
9.36646e-08
2.04463e-05
3.59791e-08
9.2212e-08
2.04662e-05
-9.82965e-08
-1.86441e-07
2.05711e-05
-7.29754e-08
-1.8327e-07
4.33815e-08
-4.06209e-07
2.07499e-05
2.09603e-05
1.24072e-08
-4.09816e-09
2.09379e-05
-2.00564e-09
9.9129e-08
2.0837e-05
-2.56847e-08
2.39644e-07
2.07738e-05
2.0872e-08
2.88293e-07
2.06571e-05
-2.27883e-08
1.45512e-07
2.0574e-05
1.92392e-08
2.83393e-07
2.04962e-05
2.3373e-08
1.83435e-07
2.04102e-05
-3.62445e-08
4.38069e-08
2.04148e-05
1.71072e-08
7.29414e-08
2.04016e-05
-5.50656e-08
-2.17444e-07
2.04718e-05
-2.71888e-08
-2.641e-07
3.08455e-08
-3.87809e-07
2.06488e-05
2.09549e-05
3.44914e-09
7.40616e-09
2.09406e-05
3.17379e-09
9.21933e-08
2.08428e-05
-3.75242e-09
2.57829e-07
2.07622e-05
1.12963e-08
3.23871e-07
2.06493e-05
2.26262e-09
1.65291e-07
2.05615e-05
1.72689e-08
3.19247e-07
2.04658e-05
1.23899e-08
2.17855e-07
2.03808e-05
-9.39686e-09
5.21012e-08
2.03724e-05
6.05486e-09
9.61666e-08
2.03608e-05
-2.30734e-08
-2.17727e-07
2.04407e-05
-1.6381e-09
-2.63742e-07
1.9903e-08
-3.50734e-07
2.06075e-05
2.09472e-05
8.86267e-10
1.46316e-08
2.09394e-05
3.46673e-09
8.87373e-08
2.08508e-05
1.43145e-09
2.69832e-07
2.07565e-05
4.82447e-09
3.45098e-07
2.06513e-05
6.04577e-09
1.87286e-07
2.05577e-05
9.15241e-09
3.47158e-07
2.04446e-05
5.51201e-09
2.3989e-07
2.03646e-05
-8.43644e-10
6.68429e-08
2.03417e-05
1.35905e-09
1.12885e-07
2.03361e-05
-7.44974e-09
-2.0895e-07
2.04266e-05
3.51764e-09
-2.50706e-07
1.00321e-08
-3.27155e-07
2.05828e-05
2.09433e-05
1.51541e-11
1.94369e-08
2.0939e-05
-1.03206e-10
8.85944e-08
2.08537e-05
-1.49883e-10
2.77226e-07
2.07525e-05
1.66205e-11
3.55632e-07
2.06508e-05
-2.03126e-10
2.00022e-07
2.0553e-05
-6.85077e-11
3.61523e-07
2.04323e-05
-8.09492e-11
2.49565e-07
2.03541e-05
-2.78695e-10
7.51899e-08
2.03243e-05
-6.49509e-11
1.21403e-07
2.03226e-05
-2.76658e-10
-2.042e-07
2.04174e-05
-2.55743e-10
-2.42201e-07
-6.46352e-11
-3.16268e-07
2.05689e-05
2.09433e-05
-8.52719e-10
1.94308e-08
2.09391e-05
-3.66558e-09
8.85866e-08
2.08537e-05
-1.71781e-09
2.77181e-07
2.07525e-05
-4.78781e-09
3.55621e-07
2.06508e-05
-6.42568e-09
1.99991e-07
2.05529e-05
-9.27053e-09
3.61457e-07
2.04323e-05
-5.65658e-09
2.49546e-07
2.03541e-05
3.07052e-10
7.51228e-08
2.03243e-05
-1.46609e-09
1.21333e-07
2.03226e-05
6.92636e-09
-2.04232e-07
2.04173e-05
-3.97901e-09
-2.42309e-07
-1.01345e-08
-3.16309e-07
2.05689e-05
2.09473e-05
-3.41121e-09
1.46188e-08
2.09394e-05
-3.34815e-09
8.87065e-08
2.08508e-05
3.51547e-09
2.69696e-07
2.07565e-05
-1.12426e-08
3.45071e-07
2.06512e-05
-2.58424e-09
1.87209e-07
2.05577e-05
-1.73278e-08
3.46964e-07
2.04446e-05
-1.25001e-08
2.3982e-07
2.03645e-05
8.98648e-09
6.66055e-08
2.03417e-05
-6.09815e-09
1.12665e-07
2.0336e-05
2.26537e-08
-2.09073e-07
2.04264e-05
1.32471e-09
-2.51014e-07
-1.99294e-08
-3.27262e-07
2.05826e-05
2.09549e-05
-1.23557e-08
7.39195e-09
2.09406e-05
1.83889e-09
9.21523e-08
2.08428e-05
2.55248e-08
2.57631e-07
2.07622e-05
-2.07936e-08
3.2384e-07
2.06493e-05
2.25511e-08
1.6517e-07
2.05614e-05
-1.91914e-08
3.1896e-07
2.04658e-05
-2.34378e-08
2.17758e-07
2.03807e-05
3.5964e-08
5.17765e-08
2.03724e-05
-1.7046e-08
9.58591e-08
2.03607e-05
5.47469e-08
-2.17878e-07
2.04405e-05
2.70782e-08
-2.64163e-07
-3.07759e-08
-3.50855e-07
2.06073e-05
2.09603e-05
-2.89953e-08
-4.10769e-09
2.0938e-05
6.63814e-09
9.90632e-08
2.08371e-05
6.13572e-08
2.39423e-07
2.07739e-05
-3.60771e-08
2.88282e-07
2.06571e-05
6.58065e-08
1.45371e-07
2.0574e-05
-1.57565e-08
2.83079e-07
2.04962e-05
-4.00626e-08
1.83324e-07
2.04101e-05
7.76408e-08
4.34232e-08
2.04147e-05
-3.57987e-08
7.26232e-08
2.04016e-05
9.80449e-08
-2.17611e-07
2.04716e-05
7.30897e-08
-2.6453e-07
-4.32555e-08
-3.87845e-07
2.06487e-05
2.09548e-05
-4.33695e-08
-1.93782e-08
2.09282e-05
-1.05536e-09
1.01258e-07
2.0844e-05
7.71194e-08
2.73254e-07
2.07705e-05
-4.43593e-08
2.82158e-07
2.06675e-05
8.82947e-08
1.7747e-07
2.05804e-05
-1.45061e-08
3.09265e-07
2.04969e-05
-5.43556e-08
1.60127e-07
2.04448e-05
8.67512e-08
9.3242e-08
2.04464e-05
-5.78837e-08
9.20201e-08
2.04662e-05
1.04762e-07
-1.86589e-07
2.05711e-05
8.37507e-08
-1.83624e-07
-5.84439e-08
-4.0603e-07
2.07499e-05
2.08845e-05
-2.14383e-10
2.08686e-05
5.0257e-08
2.08206e-05
3.86459e-07
2.06708e-05
3.33005e-07
2.06434e-05
2.89716e-07
2.04917e-05
4.54003e-07
2.03535e-05
1.63866e-07
2.03791e-05
2.2004e-07
2.03013e-05
1.16068e-07
2.04516e-05
-1.57459e-07
2.06177e-05
9.61545e-09
-4.73779e-07
2.07677e-05
2.06591e-05
9.42947e-08
7.83825e-08
2.0513e-05
4.45416e-08
1.52113e-07
2.04367e-05
-2.18078e-09
4.65091e-07
2.02584e-05
5.82771e-08
4.52658e-07
2.01935e-05
-7.60263e-08
4.30706e-07
2.00639e-05
2.26092e-08
5.60771e-07
1.98865e-05
-3.09565e-09
3.44176e-07
1.98665e-05
-1.009e-07
3.41336e-07
1.97457e-05
9.20577e-09
2.27388e-07
1.98039e-05
-1.51383e-07
-6.4129e-08
1.99091e-05
-6.30203e-08
-3.22892e-08
1.28386e-08
-5.12005e-07
1.99338e-05
2.06369e-05
7.02806e-08
1.99924e-07
2.04632e-05
3.84521e-08
2.81217e-07
2.02613e-05
2.28949e-08
4.50255e-07
2.00473e-05
6.29066e-08
4.91488e-07
1.9775e-05
-2.5363e-08
3.99272e-07
1.95599e-05
4.64817e-08
5.00649e-07
1.932e-05
9.18177e-09
3.8785e-07
1.90999e-05
-5.42885e-08
2.67062e-07
1.89674e-05
8.55753e-09
2.25396e-07
1.88255e-05
-1.10044e-07
-8.5849e-08
1.88217e-05
-3.47056e-08
-2.0783e-07
3.30116e-09
-4.83772e-07
1.89088e-05
2.06099e-05
4.38951e-08
2.44535e-07
2.04397e-05
3.57036e-08
2.72153e-07
2.02167e-05
3.5441e-08
4.50054e-07
2.00061e-05
6.12563e-08
5.00541e-07
1.9714e-05
2.41956e-08
3.88032e-07
1.9487e-05
6.02713e-08
4.96638e-07
1.92297e-05
3.78904e-08
4.12013e-07
1.89656e-05
3.98216e-09
2.49621e-07
1.88096e-05
2.6424e-08
2.1107e-07
1.8624e-05
-3.68344e-08
-1.05043e-07
1.85788e-05
1.13374e-08
-2.64964e-07
2.96857e-08
-4.96982e-07
1.86616e-05
2.05844e-05
2.17321e-08
2.77351e-07
2.04033e-05
2.66306e-08
2.82332e-07
2.01657e-05
3.04314e-08
5.00515e-07
1.99472e-05
4.18935e-08
5.61711e-07
1.96597e-05
3.14309e-08
4.45527e-07
1.94301e-05
4.40763e-08
5.65078e-07
1.91757e-05
3.12072e-08
4.78883e-07
1.89141e-05
1.77081e-08
2.99987e-07
1.87548e-05
2.08057e-08
2.61061e-07
1.85782e-05
-4.74551e-09
-7.32126e-08
1.85364e-05
2.44245e-08
-2.34944e-07
3.30866e-08
-4.46539e-07
1.86288e-05
2.05685e-05
8.68892e-09
2.91364e-07
2.03851e-05
1.40586e-08
2.84702e-07
2.01457e-05
1.59107e-08
5.23803e-07
1.9919e-05
2.07441e-08
5.92915e-07
1.96357e-05
1.9585e-08
4.82455e-07
1.9399e-05
2.20533e-08
6.05847e-07
1.91378e-05
1.71561e-08
5.15168e-07
1.88786e-05
1.21952e-08
3.3148e-07
1.87135e-05
1.06454e-08
2.88201e-07
1.85492e-05
3.37675e-09
-5.27392e-08
1.85178e-05
1.66956e-08
-2.11602e-07
2.11945e-08
-4.15837e-07
1.86184e-05
2.05621e-05
-4.81612e-13
2.98217e-07
2.03778e-05
-1.02623e-10
2.87035e-07
2.01367e-05
-8.21298e-11
5.34295e-07
1.9906e-05
-2.04757e-11
6.07172e-07
1.96247e-05
-1.42539e-10
5.01035e-07
1.9383e-05
-5.83869e-11
6.25358e-07
1.91177e-05
-1.32622e-10
5.3214e-07
1.88583e-05
-2.06296e-10
3.46946e-07
1.86893e-05
-1.07838e-10
3.01202e-07
1.85316e-05
-2.32137e-10
-4.29134e-08
1.85057e-05
-1.28942e-10
-1.99443e-07
-5.57145e-11
-4.00997e-07
1.86116e-05
2.05621e-05
-8.68821e-09
2.9821e-07
2.03778e-05
-1.42552e-08
2.87009e-07
2.01367e-05
-1.60626e-08
5.34249e-07
1.9906e-05
-2.07772e-08
6.07153e-07
1.96247e-05
-1.98478e-08
5.01002e-07
1.93829e-05
-2.21511e-08
6.25291e-07
1.91176e-05
-1.73976e-08
5.32099e-07
1.88582e-05
-1.2568e-08
3.46863e-07
1.86892e-05
-1.08294e-08
3.01111e-07
1.85315e-05
-3.7956e-09
-4.29734e-08
1.85055e-05
-1.69084e-08
-1.99559e-07
-2.12747e-08
-4.01065e-07
1.86115e-05
2.05685e-05
-2.17277e-08
2.91347e-07
2.03851e-05
-2.6803e-08
2.8462e-07
2.01456e-05
-3.05467e-08
5.23665e-07
1.9919e-05
-4.19023e-08
5.92861e-07
1.96356e-05
-3.16334e-08
4.82365e-07
1.93989e-05
-4.41141e-08
6.0565e-07
1.91377e-05
-3.13908e-08
5.15043e-07
1.88785e-05
-1.79829e-08
3.31219e-07
1.87133e-05
-2.09047e-08
2.87929e-07
1.85489e-05
4.43938e-09
-5.29261e-08
1.85174e-05
-2.45084e-08
-2.11932e-07
-3.30822e-08
-4.16019e-07
1.8618e-05
2.05844e-05
-4.38772e-08
2.77326e-07
2.04034e-05
-3.58622e-08
2.82212e-07
2.01657e-05
-3.54904e-08
5.00314e-07
1.99472e-05
-6.12311e-08
5.6164e-07
1.96597e-05
-2.43175e-08
4.45396e-07
1.94299e-05
-6.02076e-08
5.64789e-07
1.91756e-05
-3.79953e-08
4.78706e-07
1.89138e-05
-4.09851e-09
2.99616e-07
1.87545e-05
-2.63939e-08
2.60677e-07
1.85779e-05
3.66577e-08
-7.34479e-08
1.85358e-05
-1.12291e-08
-2.35393e-07
-2.95811e-08
-4.46757e-07
1.86282e-05
2.06099e-05
-7.02487e-08
2.44509e-07
2.04398e-05
-3.86061e-08
2.71991e-07
2.02167e-05
-2.28591e-08
4.49826e-07
2.00061e-05
-6.28392e-08
5.00481e-07
1.9714e-05
2.53333e-08
3.8788e-07
1.94868e-05
-4.62733e-08
4.9631e-07
1.92295e-05
-9.2145e-09
4.11822e-07
1.89653e-05
5.43448e-08
2.49192e-07
1.88093e-05
-8.39177e-09
2.1067e-07
1.86236e-05
1.09963e-07
-1.05272e-07
1.85783e-05
3.50038e-08
-2.65403e-07
-3.14102e-09
-4.97103e-07
1.86611e-05
2.06369e-05
-9.42413e-08
1.99917e-07
2.04633e-05
-4.47125e-08
2.80996e-07
2.02613e-05
2.27851e-09
4.50029e-07
2.00473e-05
-5.81903e-08
4.91541e-07
1.97749e-05
7.60425e-08
3.99178e-07
1.95598e-05
-2.2314e-08
5.00446e-07
1.93198e-05
3.07873e-09
3.87771e-07
1.90997e-05
1.01048e-07
2.66675e-07
1.89672e-05
-9.00576e-09
2.2515e-07
1.88252e-05
1.51289e-07
-8.59542e-08
1.88213e-05
6.33819e-08
-2.08122e-07
-1.2761e-08
-4.83595e-07
1.89085e-05
2.06593e-05
7.8457e-08
2.0513e-05
1.51849e-07
2.04367e-05
4.65013e-07
2.02584e-05
4.53115e-07
2.01933e-05
4.30843e-07
2.0064e-05
5.61e-07
1.98865e-05
3.44405e-07
1.98665e-05
3.41096e-07
1.9746e-05
2.27603e-07
1.9804e-05
-6.41507e-08
1.99093e-05
-3.233e-08
-5.11289e-07
1.9934e-05
2.05848e-05
-5.99342e-09
3.31771e-07
2.02431e-05
-7.74459e-08
5.71249e-07
2.00094e-05
-4.08685e-08
7.3962e-07
1.95876e-05
8.1519e-09
8.66351e-07
1.92108e-05
-5.29983e-08
8.6053e-07
1.87779e-05
4.0447e-08
9.53149e-07
1.83421e-05
-1.84591e-08
7.98519e-07
1.80036e-05
-2.18677e-08
7.01637e-07
1.76663e-05
1.71847e-08
5.47499e-07
1.74973e-05
-1.05315e-07
2.1024e-07
1.73486e-05
2.72034e-08
8.9194e-08
-2.10871e-08
-4.52375e-07
1.731e-05
2.02263e-05
9.5489e-09
7.90265e-07
1.93821e-05
-2.81506e-08
1.0761e-06
1.85923e-05
5.38962e-08
1.14536e-06
1.78394e-05
1.00052e-07
1.15241e-06
1.71635e-05
7.48227e-08
9.4743e-07
1.66717e-05
1.24902e-07
9.07959e-07
1.6261e-05
6.71674e-08
7.129e-07
1.59605e-05
4.44333e-08
5.01281e-07
1.58022e-05
3.9856e-08
3.61058e-07
1.56869e-05
-4.78228e-08
-2.8096e-08
1.57423e-05
3.98305e-08
-2.75848e-07
2.05789e-08
-6.95447e-07
1.59123e-05
2.02131e-05
9.46535e-09
8.63676e-07
1.93184e-05
-6.51042e-10
1.13934e-06
1.84967e-05
7.46075e-08
1.25109e-06
1.77355e-05
1.19731e-07
1.24207e-06
1.70337e-05
1.20048e-07
1.04465e-06
1.65309e-05
1.4315e-07
9.8119e-07
1.61242e-05
1.03156e-07
7.82649e-07
1.58081e-05
7.71974e-08
5.33e-07
1.56436e-05
5.94343e-08
3.55989e-07
1.55146e-05
1.47732e-08
-3.86485e-08
1.55612e-05
6.36465e-08
-3.35402e-07
6.15111e-08
-7.27285e-07
1.57506e-05
2.01841e-05
4.46028e-09
9.30435e-07
1.9255e-05
8.68554e-09
1.20211e-06
1.84243e-05
5.34976e-08
1.35229e-06
1.76712e-05
8.62495e-08
1.34837e-06
1.69843e-05
9.66044e-08
1.15586e-06
1.64988e-05
1.0492e-07
1.08878e-06
1.61122e-05
8.27156e-08
8.8591e-07
1.58069e-05
6.62725e-08
6.16204e-07
1.56523e-05
5.11171e-08
4.23986e-07
1.5539e-05
3.39478e-08
2.0969e-08
1.55937e-05
6.15308e-08
-2.87625e-07
6.59177e-08
-6.61966e-07
1.58048e-05
2.01694e-05
2.9771e-09
9.55651e-07
1.92293e-05
7.85288e-09
1.2256e-06
1.8391e-05
2.7448e-08
1.38821e-06
1.76346e-05
4.39473e-08
1.39161e-06
1.69531e-05
5.08869e-08
1.20959e-06
1.64694e-05
5.26562e-08
1.14185e-06
1.60889e-05
4.32416e-08
9.35171e-07
1.57926e-05
3.51286e-08
6.58945e-07
1.56454e-05
2.78155e-08
4.58638e-07
1.55505e-05
2.38136e-08
5.23295e-08
1.56183e-05
3.65435e-08
-2.54396e-07
4.08877e-08
-6.19312e-07
1.58468e-05
2.01655e-05
-4.06444e-11
9.679e-07
1.92234e-05
-1.18364e-10
1.2371e-06
1.83811e-05
-6.71425e-11
1.40414e-06
1.76213e-05
-6.08143e-11
1.411e-06
1.69393e-05
-1.14915e-10
1.23398e-06
1.64523e-05
-8.40724e-11
1.16514e-06
1.60715e-05
-1.54113e-10
9.56326e-07
1.57771e-05
-1.49813e-10
6.76672e-07
1.56332e-05
-9.77292e-11
4.72974e-07
1.55485e-05
-1.32914e-10
6.57242e-08
1.56245e-05
-1.67146e-11
-2.38844e-07
-1.41922e-11
-5.9922e-07
1.58636e-05
2.01655e-05
-3.05344e-09
9.67897e-07
1.92234e-05
-8.07748e-09
1.23706e-06
1.83811e-05
-2.75685e-08
1.40408e-06
1.76213e-05
-4.4052e-08
1.41097e-06
1.69393e-05
-5.109e-08
1.23395e-06
1.64522e-05
-5.27959e-08
1.16507e-06
1.60714e-05
-4.3513e-08
9.56265e-07
1.57769e-05
-3.53826e-08
6.76573e-07
1.56331e-05
-2.79699e-08
4.72863e-07
1.55484e-05
-2.4031e-08
6.56311e-08
1.56243e-05
-3.65327e-08
-2.38977e-07
-4.0881e-08
-5.99317e-07
1.58634e-05
2.01694e-05
-4.52253e-09
9.55645e-07
1.92293e-05
-8.87849e-09
1.22548e-06
1.83909e-05
-5.35771e-08
1.38806e-06
1.76345e-05
-8.63062e-08
1.39153e-06
1.6953e-05
-9.67294e-08
1.20949e-06
1.64692e-05
-1.04979e-07
1.14166e-06
1.60886e-05
-8.2892e-08
9.34996e-07
1.57922e-05
-6.64043e-08
6.58654e-07
1.5645e-05
-5.11613e-08
4.58316e-07
1.555e-05
-3.40353e-08
5.2059e-08
1.56177e-05
-6.1392e-08
-2.54776e-07
-6.58169e-08
-6.19578e-07
1.58462e-05
2.01841e-05
-9.50382e-09
9.30423e-07
1.9255e-05
5.00562e-10
1.20191e-06
1.84243e-05
-7.46206e-08
1.35204e-06
1.76711e-05
-1.19718e-07
1.34826e-06
1.69841e-05
-1.20058e-07
1.15572e-06
1.64985e-05
-1.43082e-07
1.08851e-06
1.61118e-05
-1.032e-07
8.85667e-07
1.58064e-05
-7.71454e-08
6.15785e-07
1.56517e-05
-5.93298e-08
4.23534e-07
1.55383e-05
-1.47001e-08
2.06224e-08
1.5593e-05
-6.33326e-08
-2.88136e-07
-6.13032e-08
-6.62288e-07
1.5804e-05
2.02131e-05
-9.56358e-09
8.63669e-07
1.93185e-05
2.80301e-08
1.13908e-06
1.84967e-05
-5.38041e-08
1.25079e-06
1.77355e-05
-9.99471e-08
1.24194e-06
1.70335e-05
-7.46947e-08
1.0445e-06
1.65305e-05
-1.24679e-07
9.80887e-07
1.61238e-05
-6.70894e-08
7.824e-07
1.58075e-05
-4.41958e-08
5.32544e-07
1.56429e-05
-3.96352e-08
3.55543e-07
1.55139e-05
4.80169e-08
-3.89832e-08
1.55604e-05
-3.93534e-08
-3.35881e-07
-2.03286e-08
-7.27484e-07
1.57498e-05
2.02263e-05
6.01395e-09
7.90242e-07
1.93822e-05
7.7314e-08
1.0758e-06
1.85923e-05
4.10409e-08
1.14511e-06
1.78395e-05
-8.02712e-09
1.15244e-06
1.71633e-05
5.31984e-08
9.4741e-07
1.66714e-05
-4.01407e-08
9.07812e-07
1.62607e-05
1.854e-08
7.12855e-07
1.59601e-05
2.21761e-08
5.00955e-07
1.58017e-05
-1.70046e-08
3.60836e-07
1.56865e-05
1.05475e-07
-2.81748e-08
1.57418e-05
-2.67148e-08
-2.76089e-07
2.12101e-08
-6.95238e-07
1.59119e-05
2.05849e-05
3.31808e-07
2.0243e-05
5.71002e-07
2.00094e-05
7.3963e-07
1.95878e-05
8.66754e-07
1.92109e-05
8.60876e-07
1.87783e-05
9.53492e-07
1.83424e-05
7.98895e-07
1.80039e-05
7.01705e-07
1.76667e-05
5.47848e-07
1.74975e-05
2.10484e-07
1.73491e-05
8.94068e-08
-4.51537e-07
1.73105e-05
2.35659e-06
1.59359e-06
-3.61841e-06
4.0391e-06
9.26189e-07
-2.03745e-06
5.56829e-06
6.5431e-07
-1.44388e-06
6.91189e-06
3.87023e-07
-8.64268e-07
7.9957e-06
2.09819e-07
-4.331e-07
8.87776e-06
1.28663e-07
-5.75775e-08
9.59486e-06
4.28856e-08
3.85372e-08
1.01746e-05
8.32193e-09
1.13562e-07
1.0732e-05
-6.70637e-08
5.71924e-08
1.11978e-05
-6.08001e-08
-1.94798e-07
1.16275e-05
1.86753e-08
-3.59143e-07
9.93359e-09
-9.14104e-07
1.20793e-05
4.98589e-06
1.20654e-06
-3.80857e-06
7.23707e-06
8.70037e-07
-1.11893e-06
8.79831e-06
6.84696e-07
-4.46268e-07
9.81539e-06
4.77194e-07
4.5154e-08
1.04303e-05
3.18381e-07
2.24e-07
1.08427e-05
2.29421e-07
3.94718e-07
1.11342e-05
1.17764e-07
3.46589e-07
1.13624e-05
6.04187e-08
2.20958e-07
1.15936e-05
3.95801e-09
5.88108e-08
1.18242e-05
-8.27528e-09
-3.11177e-07
1.21464e-05
7.44048e-08
-6.53825e-07
1.10492e-07
-1.21309e-06
1.25635e-05
5.18317e-06
7.39303e-07
-3.85226e-06
7.54464e-06
6.02274e-07
-9.54368e-07
9.15034e-06
5.18394e-07
-1.88305e-07
1.02057e-05
4.0275e-07
2.6113e-07
1.08268e-05
3.04616e-07
4.37301e-07
1.12349e-05
2.31896e-07
5.70644e-07
1.14911e-05
1.44583e-07
4.99647e-07
1.16684e-05
9.1864e-08
3.24236e-07
1.18552e-05
5.05017e-08
1.22619e-07
1.20397e-05
4.43589e-08
-2.7574e-07
1.23445e-05
9.70229e-08
-6.62821e-07
1.33257e-07
-1.19325e-06
1.27877e-05
5.23357e-06
4.20442e-07
-3.98428e-06
7.62377e-06
3.68565e-07
-9.54373e-07
9.24352e-06
3.32411e-07
-8.14832e-08
1.03252e-05
2.73852e-07
3.9563e-07
1.09709e-05
2.1874e-07
5.96024e-07
1.13899e-05
1.69246e-07
7.32435e-07
1.16547e-05
1.15403e-07
6.50213e-07
1.18309e-05
8.14074e-08
4.50511e-07
1.2019e-05
5.74872e-08
2.28913e-07
1.22117e-05
5.71275e-08
-1.845e-07
1.2521e-05
8.80507e-08
-5.87974e-07
1.13071e-07
-1.10464e-06
1.29839e-05
5.23037e-06
1.87016e-07
-4.04129e-06
7.63037e-06
1.71866e-07
-9.77695e-07
9.25781e-06
1.59017e-07
-6.58381e-08
1.03513e-05
1.35595e-07
4.36401e-07
1.10102e-05
1.11096e-07
6.583e-07
1.14343e-05
8.63895e-08
8.00607e-07
1.17055e-05
6.14575e-08
7.17942e-07
1.1889e-05
4.53883e-08
5.11503e-07
1.20868e-05
3.55865e-08
2.82723e-07
1.22935e-05
3.74274e-08
-1.34662e-07
1.26147e-05
5.15438e-08
-5.39166e-07
6.39293e-08
-1.04772e-06
1.30923e-05
5.21928e-06
-1.96973e-10
-4.06417e-06
7.62176e-06
-1.64629e-10
-9.93347e-07
9.2527e-06
-1.00272e-10
-6.76893e-08
1.03508e-05
-1.10939e-10
4.4864e-07
1.10147e-05
-1.17925e-10
6.81237e-07
1.14396e-05
-1.00928e-10
8.2679e-07
1.17132e-05
-1.2267e-10
7.44303e-07
1.19004e-05
-7.20675e-11
5.34936e-07
1.21048e-05
-2.2885e-11
3.04146e-07
1.23215e-05
4.30309e-12
-1.13537e-07
1.2651e-05
8.28925e-11
-5.16868e-07
4.08065e-11
-1.02176e-06
1.31374e-05
5.21926e-06
-1.87388e-07
-4.06417e-06
7.62172e-06
-1.7217e-07
-9.93401e-07
9.25266e-06
-1.59186e-07
-6.77648e-08
1.03507e-05
-1.35779e-07
4.48587e-07
1.10146e-05
-1.11287e-07
6.81175e-07
1.14395e-05
-8.65447e-08
8.26703e-07
1.1713e-05
-6.16508e-08
7.44212e-07
1.19002e-05
-4.54804e-08
5.34812e-07
1.21046e-05
-3.55864e-08
3.04011e-07
1.23213e-05
-3.7373e-08
-1.13661e-07
1.26508e-05
-5.13396e-08
-5.17018e-07
-6.38157e-08
-1.02189e-06
1.31372e-05
5.23029e-06
-4.2075e-07
-4.04128e-06
7.63024e-06
-3.68791e-07
-9.77861e-07
9.25767e-06
-3.32489e-07
-6.60674e-08
1.03511e-05
-2.73927e-07
4.36246e-07
1.101e-05
-2.18804e-07
6.58122e-07
1.1434e-05
-1.69273e-07
8.00355e-07
1.17051e-05
-1.15456e-07
7.17688e-07
1.18885e-05
-8.13562e-08
5.11151e-07
1.20863e-05
-5.73608e-08
2.82337e-07
1.22929e-05
-5.69457e-08
-1.35016e-07
1.26141e-05
-8.7742e-08
-5.39587e-07
-1.12873e-07
-1.04805e-06
1.30917e-05
5.23344e-06
-7.39512e-07
-3.98425e-06
7.62357e-06
-6.02372e-07
-9.54644e-07
9.2433e-06
-5.1832e-07
-8.18516e-08
1.03249e-05
-4.0267e-07
3.95401e-07
1.09705e-05
-3.04498e-07
5.95771e-07
1.13894e-05
-2.31739e-07
7.32082e-07
1.16542e-05
-1.44438e-07
6.49855e-07
1.18303e-05
-9.16154e-08
4.50005e-07
1.20183e-05
-5.02152e-08
2.2838e-07
1.22109e-05
-4.40117e-08
-1.84964e-07
1.25202e-05
-9.65827e-08
-5.88527e-07
-1.32951e-07
-1.10505e-06
1.2983e-05
5.183e-06
-1.20661e-06
-3.85223e-06
7.54441e-06
-8.69964e-07
-9.54741e-07
9.15009e-06
-6.84449e-07
-1.88761e-07
1.02054e-05
-4.76955e-07
2.60871e-07
1.08265e-05
-3.18073e-07
4.37024e-07
1.12345e-05
-2.2909e-07
5.70267e-07
1.14906e-05
-1.17444e-07
4.99295e-07
1.16678e-05
-5.99911e-08
3.23713e-07
1.18546e-05
-3.55452e-09
1.22114e-07
1.2039e-05
8.73336e-09
-2.76147e-07
1.23437e-05
-7.38748e-08
-6.63305e-07
-1.10115e-07
-1.19352e-06
1.27869e-05
4.98574e-06
-1.59352e-06
-3.80858e-06
7.23693e-06
-9.25981e-07
-1.11937e-06
8.79823e-06
-6.53992e-07
-4.46647e-07
9.81534e-06
-3.86725e-07
4.50947e-08
1.04302e-05
-2.09439e-07
2.23938e-07
1.08426e-05
-1.28285e-07
3.94588e-07
1.1134e-05
-4.25116e-08
3.46522e-07
1.13622e-05
-7.9188e-09
2.20697e-07
1.15934e-05
6.74124e-08
5.86479e-08
1.1824e-05
6.12832e-08
-3.11273e-07
1.21462e-05
-1.8235e-08
-6.53956e-07
-9.53596e-09
-1.21292e-06
1.25633e-05
2.35665e-06
-3.61837e-06
4.03937e-06
-2.0377e-06
5.56876e-06
-1.44375e-06
6.91252e-06
-8.63727e-07
7.99647e-06
-4.32521e-07
8.87861e-06
-5.69304e-08
9.5958e-06
3.91925e-08
1.01756e-05
1.13984e-07
1.0733e-05
5.7853e-08
1.1199e-05
-1.94241e-07
1.16288e-05
-3.58579e-07
-9.13008e-07
1.20807e-05
-1.15026e-06
4.38932e-07
-2.90708e-06
-5.77353e-07
7.19069e-07
-3.32942e-06
2.71856e-07
4.72143e-07
-2.76524e-06
1.30648e-06
2.55733e-07
-2.15463e-06
2.35547e-06
1.52269e-07
-1.63435e-06
3.37802e-06
7.05701e-08
-1.1507e-06
4.33491e-06
-1.23903e-08
-9.05963e-07
5.2025e-06
-5.52414e-08
-6.98785e-07
6.01067e-06
-4.34498e-08
-7.07535e-07
6.77432e-06
2.13848e-08
-9.79829e-07
7.55978e-06
9.20765e-08
-1.23668e-06
2.95361e-07
-2.01464e-06
8.36495e-06
-2.00287e-07
6.13373e-07
-3.78272e-06
1.50013e-06
8.3283e-07
-2.93311e-06
3.00025e-06
6.07036e-07
-2.08128e-06
4.26236e-06
4.12059e-07
-1.37329e-06
5.28221e-06
2.7131e-07
-9.14885e-07
6.12597e-06
1.64638e-07
-5.43118e-07
6.81434e-06
6.53925e-08
-4.19559e-07
7.38659e-06
1.30825e-08
-4.19616e-07
7.93175e-06
4.46826e-09
-5.34264e-07
8.46474e-06
6.09533e-08
-8.83735e-07
9.07709e-06
1.54589e-07
-1.3287e-06
2.94785e-07
-1.97712e-06
9.84169e-06
2.76939e-07
5.04116e-07
-4.01994e-06
2.18048e-06
6.55762e-07
-2.68084e-06
3.74817e-06
5.24081e-07
-1.67304e-06
5.03089e-06
3.95434e-07
-1.00497e-06
6.03224e-06
2.79918e-07
-5.72649e-07
6.83898e-06
1.83759e-07
-2.55224e-07
7.47804e-06
1.02855e-07
-1.76873e-07
7.99686e-06
5.78726e-08
-2.39377e-07
8.48483e-06
4.79999e-08
-4.0888e-07
8.97753e-06
8.57629e-08
-7.93255e-07
9.58318e-06
1.5225e-07
-1.26612e-06
2.37768e-07
-1.90448e-06
1.03514e-05
4.09746e-07
3.3235e-07
-4.22226e-06
2.37025e-06
4.28319e-07
-2.68743e-06
3.97635e-06
3.68826e-07
-1.53232e-06
5.29344e-06
2.92247e-07
-8.18274e-07
6.31614e-06
2.16588e-07
-3.63344e-07
7.13264e-06
1.50343e-07
-5.06542e-08
7.77478e-06
9.65263e-08
1.44055e-08
8.29118e-06
6.63542e-08
-7.4376e-08
8.77849e-06
5.85178e-08
-2.6891e-07
9.27126e-06
8.07066e-08
-6.72215e-07
9.87947e-06
1.19964e-07
-1.16389e-06
1.64317e-07
-1.79911e-06
1.06474e-05
4.4503e-07
1.60908e-07
-4.31488e-06
2.4126e-06
2.06037e-07
-2.72298e-06
4.03595e-06
1.8534e-07
-1.5057e-06
5.37035e-06
1.50604e-07
-7.56359e-07
6.41062e-06
1.14395e-07
-2.79777e-07
7.23962e-06
8.18211e-08
4.01322e-08
7.89237e-06
5.58151e-08
1.05905e-07
8.41848e-06
4.14316e-08
1.03192e-08
8.91531e-06
3.83277e-08
-1.93915e-07
9.41681e-06
4.86396e-08
-6.04103e-07
1.00323e-05
6.59986e-08
-1.10069e-06
8.44356e-08
-1.73567e-06
1.08001e-05
4.51619e-07
-1.97123e-10
-4.35468e-06
2.41465e-06
-1.57752e-10
-2.75018e-06
4.04298e-06
-1.06223e-10
-1.51057e-06
5.38393e-06
-1.02288e-10
-7.41608e-07
6.43224e-06
-7.22573e-11
-2.52606e-07
7.26763e-06
-4.22584e-11
7.32621e-08
7.92687e-06
-1.23653e-11
1.40889e-07
8.4602e-06
5.3245e-11
4.2985e-08
8.96507e-06
9.7266e-11
-1.62496e-07
9.47422e-06
1.25648e-10
-5.74172e-07
1.00953e-05
1.39699e-10
-1.0721e-06
5.91621e-11
-1.70666e-06
1.08646e-05
4.51597e-07
-1.61271e-07
-4.35469e-06
2.4146e-06
-2.06314e-07
-2.75025e-06
4.04291e-06
-1.85506e-07
-1.51067e-06
5.38385e-06
-1.50755e-07
-7.41701e-07
6.43215e-06
-1.14484e-07
-2.52705e-07
7.26752e-06
-8.18507e-08
7.31423e-08
7.92674e-06
-5.57873e-08
1.40766e-07
8.46004e-06
-4.12772e-08
4.28392e-08
8.96489e-06
-3.80922e-08
-1.62651e-07
9.47403e-06
-4.83518e-08
-5.74321e-07
1.00951e-05
-6.56926e-08
-1.07226e-06
-8.42976e-08
-1.7068e-06
1.08644e-05
4.4497e-07
-3.32621e-07
-4.3149e-06
2.41247e-06
-4.2848e-07
-2.7232e-06
4.03577e-06
-3.68863e-07
-1.50601e-06
5.37014e-06
-2.9225e-07
-7.56628e-07
6.41036e-06
-2.16523e-07
-2.80063e-07
7.2393e-06
-1.50222e-07
3.97907e-08
7.89199e-06
-9.63551e-08
1.05561e-07
8.41803e-06
-6.60744e-08
9.91598e-09
8.9148e-06
-5.81726e-08
-1.94352e-07
9.41627e-06
-8.03233e-08
-6.04518e-07
1.00317e-05
-1.19592e-07
-1.10113e-06
-1.64129e-07
-1.73604e-06
1.07995e-05
4.0966e-07
-5.04255e-07
-4.22228e-06
2.37007e-06
-6.55746e-07