/*--------------------------------*- C++ -*----------------------------------*\
| =========                 |                                                 |
| \\      /  F ield         | OpenFOAM: The Open Source CFD Toolbox           |
|  \\    /   O peration     | Version:  2.3.1                                 |
|   \\  /    A nd           | Web:      www.OpenFOAM.org                      |
|    \\/     M anipulation  |                                                 |
\*---------------------------------------------------------------------------*/
FoamFile
{
    version     2.0;
    format      ascii;
    class       volVectorField;
    location    "20";
    object      U;
}
// * * * * * * * * * * * * * * * * * * * * * * * * * * * * * * * * * * * * * //

dimensions      [0 1 -1 0 0 0 0];

internalField   nonuniform List<vector> 
37758
(
(0.0818742 0.000264357 -0.000479834)
(0.0810217 -4.65596e-05 -0.00115273)
(0.0822087 -0.00020194 -0.000932664)
(0.0795027 0.000230809 -0.00103731)
(0.0797188 -0.000444391 -0.00103774)
(0.0793926 0.000172978 -0.000760395)
(0.0767415 0.000159025 -0.000968404)
(0.0785037 -0.000358738 -0.000668357)
(0.0767316 0.000301144 -0.000644418)
(0.0768176 -0.000459691 -0.000802248)
(0.0791121 -0.000190061 -0.000336775)
(0.076733 0.000160065 -0.000773015)
(0.0819453 0.000290583 -0.000515311)
(0.0817863 4.19536e-05 -0.00103447)
(0.0817945 -0.000345764 -0.000845422)
(0.0800312 0.000221547 -0.000776352)
(0.0799842 -0.000562643 -0.000772824)
(0.0793331 4.25005e-05 -0.000427111)
(0.0780081 0.000176756 -0.000524945)
(0.0788534 -0.00062311 -0.000322525)
(0.077887 0.000199449 -0.000164405)
(0.0779902 -0.000658605 -0.0004387)
(0.0793789 -0.000507724 -0.00013877)
(0.0785876 0.000208728 -0.000376369)
(0.0819487 0.000146031 -0.000553821)
(0.0817945 9.7775e-05 -0.00113624)
(0.081655 -0.000138101 -0.00100993)
(0.0800618 0.000150962 -0.000849649)
(0.0799227 -0.000225969 -0.000887706)
(0.0792337 0.000101431 -0.000487462)
(0.0780633 0.000147141 -0.000507296)
(0.0786766 -0.000333189 -0.000399635)
(0.0779137 0.000116238 -0.00014855)
(0.078011 -0.000369006 -0.000454144)
(0.079225 -0.000251429 -0.000233746)
(0.0788386 0.00019126 -0.000307425)
(0.0819975 4.88193e-05 -0.000597413)
(0.0815734 0.00010051 -0.00124356)
(0.0817439 1.37682e-05 -0.00109756)
(0.0800008 5.66281e-05 -0.000899734)
(0.0797655 -2.7278e-05 -0.000936475)
(0.0793582 8.35007e-05 -0.00047897)
(0.0777928 3.22672e-05 -0.000495953)
(0.0785629 -0.000139988 -0.000415499)
(0.0778739 -1.27867e-05 -0.000105104)
(0.0776641 -0.000198842 -0.00045859)
(0.0793582 -7.92889e-05 -0.000231734)
(0.0787752 5.82997e-05 -0.000242443)
(0.082037 1.04072e-05 -0.000622043)
(0.0814175 7.08553e-05 -0.00130254)
(0.0818036 3.05464e-05 -0.00114189)
(0.0799802 1.9927e-05 -0.000933229)
(0.0796825 3.54768e-05 -0.000962444)
(0.0794708 5.56347e-05 -0.000481121)
(0.0776213 1.75516e-05 -0.000505923)
(0.078514 -4.00288e-05 -0.00042835)
(0.0778648 -1.672e-05 -9.6939e-05)
(0.0774356 -6.07497e-05 -0.000466723)
(0.0794886 3.8228e-06 -0.000227291)
(0.0787286 4.24853e-05 -0.000222715)
(0.0820492 3.40505e-07 -0.00063146)
(0.081357 2.44178e-05 -0.00132822)
(0.0818317 2.03161e-05 -0.00116097)
(0.079958 6.11292e-06 -0.000950047)
(0.0796463 2.23687e-05 -0.000972819)
(0.079497 2.10269e-05 -0.000481364)
(0.0775274 -1.44014e-06 -0.000511072)
(0.0784875 -9.25589e-06 -0.000430187)
(0.0778353 -1.59972e-05 -9.0734e-05)
(0.0773334 -2.3129e-05 -0.000467721)
(0.0795393 7.51404e-07 -0.000220947)
(0.0786898 -1.98072e-06 -0.000214091)
(0.0820492 4.06631e-08 -0.000631465)
(0.081357 -2.56287e-05 -0.00132823)
(0.0818316 -2.23024e-05 -0.00116103)
(0.0799582 -5.90514e-06 -0.000950044)
(0.0796462 -2.48833e-05 -0.000972855)
(0.079497 -2.1799e-05 -0.000481426)
(0.0775275 8.5932e-07 -0.000511043)
(0.0784873 6.12359e-06 -0.000430282)
(0.0778355 1.56142e-05 -9.07617e-05)
(0.0773335 2.03169e-05 -0.000467714)
(0.0795392 -3.72495e-06 -0.000221086)
(0.0786902 1.48343e-06 -0.000214087)
(0.0820372 -1.00381e-05 -0.000622048)
(0.0814174 -7.19543e-05 -0.00130256)
(0.0818033 -3.23436e-05 -0.00114207)
(0.0799806 -1.96926e-05 -0.000933212)
(0.0796821 -3.77189e-05 -0.000962536)
(0.0794708 -5.62677e-05 -0.000481287)
(0.0776217 -1.80484e-05 -0.000505848)
(0.0785135 3.72349e-05 -0.000428609)
(0.0778655 1.64602e-05 -9.70233e-05)
(0.0774358 5.82484e-05 -0.000466715)
(0.0794885 -6.37772e-06 -0.000227658)
(0.0787297 -4.282e-05 -0.000222687)
(0.0819976 -4.8465e-05 -0.000597416)
(0.0815732 -0.000101455 -0.00124357)
(0.0817437 -1.51858e-05 -0.00109782)
(0.0800013 -5.63414e-05 -0.000899705)
(0.0797649 2.55724e-05 -0.000936626)
(0.0793583 -8.3749e-05 -0.000479229)
(0.0777931 -3.25835e-05 -0.000495849)
(0.0785623 0.000137913 -0.000415893)
(0.0778748 1.28493e-05 -0.000105217)
(0.0776644 0.000196918 -0.000458567)
(0.0793584 7.76398e-05 -0.000232266)
(0.0787766 -5.83106e-05 -0.00024238)
(0.0819488 -0.000145588 -0.000553811)
(0.0817942 -9.8747e-05 -0.00113629)
(0.0816551 0.000137213 -0.00101026)
(0.0800622 -0.000150612 -0.000849589)
(0.0799223 0.000224635 -0.000887886)
(0.0792338 -0.000101058 -0.000487725)
(0.0780634 -0.000147469 -0.000507184)
(0.0786762 0.000331895 -0.000400105)
(0.0779146 -0.00011574 -0.000148624)
(0.0780113 0.000367402 -0.000454152)
(0.0792255 0.000250953 -0.000234316)
(0.0788401 -0.000191063 -0.000307255)
(0.0819455 -0.000290051 -0.000515215)
(0.0817859 -4.30392e-05 -0.00103463)
(0.0817946 0.000345602 -0.000845791)
(0.0800319 -0.00022111 -0.000776218)
(0.0799835 0.000561842 -0.000773047)
(0.0793335 -4.12481e-05 -0.000427251)
(0.0780081 -0.000177107 -0.000524828)
(0.0788528 0.000622767 -0.000323001)
(0.0778885 -0.000198536 -0.000164325)
(0.0779903 0.000657181 -0.000438803)
(0.0793797 0.000508463 -0.000139283)
(0.0785897 -0.000208632 -0.000376008)
(0.0818753 -0.000264045 -0.000479612)
(0.0810207 4.57877e-05 -0.00115302)
(0.0822083 0.00020227 -0.000933053)
(0.0795042 -0.000230669 -0.00103694)
(0.0797167 0.000444235 -0.0010379)
(0.0793939 -0.000171832 -0.000760262)
(0.0767415 -0.000159387 -0.000968203)
(0.0785023 0.000359143 -0.000668809)
(0.0767348 -0.000300593 -0.000644053)
(0.076816 0.000458972 -0.000802505)
(0.0791136 0.000191051 -0.00033707)
(0.0767359 -0.000160346 -0.000772329)
(0.0823321 0.000174474 0.000933836)
(0.0821372 3.33567e-05 0.00132607)
(0.0830112 -0.000286707 0.00202178)
(0.0817641 0.000188416 0.00197169)
(0.0814745 -0.0003203 0.00174359)
(0.081857 7.53485e-05 0.00199817)
(0.0799883 0.000256676 0.0012745)
(0.0808183 -0.000267693 0.00127775)
(0.0804503 0.000295946 0.00101162)
(0.0797651 -0.000314489 0.000343648)
(0.0820228 -0.000245654 0.000688592)
(0.0809868 0.000294383 -0.000295014)
(0.0822997 0.000161413 0.000946808)
(0.0827915 -2.3435e-05 0.00134577)
(0.0828092 -0.000313348 0.00169837)
(0.0821391 0.000172486 0.00158267)
(0.0818583 -0.000364527 0.00114321)
(0.0816436 4.28267e-05 0.00128086)
(0.0809195 0.000182608 0.000755811)
(0.0809826 -0.000409604 0.000506598)
(0.080831 0.00017188 0.000434254)
(0.0805317 -0.000498374 -0.000211579)
(0.0813288 -0.000410402 -0.000138079)
(0.0813764 0.000178093 -0.000588836)
(0.0822817 7.39216e-05 0.00107149)
(0.0828715 -2.46465e-05 0.00151292)
(0.0827461 -0.000176032 0.00173877)
(0.0821903 0.000107227 0.00168955)
(0.0818788 -0.000163184 0.00115821)
(0.0815069 7.54098e-05 0.00126014)
(0.0810293 0.000130217 0.000838799)
(0.0808544 -0.000211295 0.000394019)
(0.0806834 0.000106625 0.000367988)
(0.0804561 -0.000284482 -0.000305422)
(0.0808557 -0.000176077 -0.000364162)
(0.0810894 0.000160971 -0.000573872)
(0.0823098 2.2091e-05 0.00117989)
(0.0827964 8.3348e-06 0.00162805)
(0.0828096 -3.10666e-05 0.0018552)
(0.0822076 5.96858e-05 0.00182437)
(0.0817803 -1.37678e-05 0.0012255)
(0.0815324 7.94117e-05 0.00134836)
(0.0809162 5.9727e-05 0.000911073)
(0.0807143 -6.96487e-05 0.000384984)
(0.0805946 3.23225e-05 0.000393131)
(0.080214 -0.000144059 -0.000342278)
(0.0807527 -3.80492e-05 -0.000407328)
(0.0809655 8.66676e-05 -0.000522867)
(0.0823343 5.27408e-06 0.00123243)
(0.0827135 1.78614e-05 0.00168013)
(0.0828604 2.30142e-06 0.00191729)
(0.0822302 2.77558e-05 0.00189539)
(0.0817265 3.04014e-05 0.00128271)
(0.0815972 5.37805e-05 0.00141153)
(0.0808263 3.64072e-05 0.000953893)
(0.0806358 -6.6951e-06 0.000404168)
(0.0805421 1.4079e-05 0.000417492)
(0.0800297 -4.13421e-05 -0.000340384)
(0.0807278 2.356e-05 -0.000399207)
(0.0808865 6.87768e-05 -0.000486554)
(0.0823433 1.07845e-06 0.00125388)
(0.0826754 8.64729e-06 0.00170452)
(0.0828866 8.71938e-06 0.00195182)
(0.0822316 1.03427e-05 0.00193118)
(0.0816997 1.80072e-05 0.00131666)
(0.0816194 1.975e-05 0.00144568)
(0.0807688 8.31404e-06 0.000971939)
(0.0805944 4.63518e-07 0.000415925)
(0.0805003 -2.71635e-06 0.000429809)
(0.0799343 -1.65331e-05 -0.000338924)
(0.0807115 4.61062e-06 -0.000390037)
(0.0808324 1.1521e-05 -0.000471009)
(0.0823433 -9.59521e-07 0.00125389)
(0.0826754 -9.45e-06 0.00170453)
(0.0828865 -9.89944e-06 0.00195174)
(0.0822316 -1.02091e-05 0.00193117)
(0.0816996 -1.96036e-05 0.00131661)
(0.0816193 -2.02902e-05 0.00144555)
(0.0807688 -8.93866e-06 0.000971924)
(0.0805943 -2.64307e-06 0.000415783)
(0.0805003 2.20686e-06 0.000429671)
(0.0799343 1.43591e-05 -0.000338968)
(0.0807113 -6.64272e-06 -0.000390242)
(0.0808323 -1.20298e-05 -0.000471067)
(0.0823343 -5.13984e-06 0.00123244)
(0.0827137 -1.85944e-05 0.00168015)
(0.0828603 -3.35264e-06 0.00191702)
(0.0822303 -2.7587e-05 0.00189536)
(0.0817265 -3.18205e-05 0.0012826)
(0.0815969 -5.41887e-05 0.00141117)
(0.0808265 -3.69375e-05 0.000953824)
(0.0806356 4.7731e-06 0.000403684)
(0.080542 -1.44374e-05 0.000417056)
(0.0800297 3.94278e-05 -0.000340588)
(0.0807272 -2.52286e-05 -0.000399791)
(0.0808863 -6.90791e-05 -0.000486705)
(0.0823097 -2.19319e-05 0.00117989)
(0.0827965 -8.99934e-06 0.00162808)
(0.0828096 3.0262e-05 0.00185481)
(0.0822077 -5.94336e-05 0.00182436)
(0.0817803 1.27133e-05 0.00122533)
(0.081532 -7.94677e-05 0.00134782)
(0.0809163 -6.00393e-05 0.000910988)
(0.080714 6.82733e-05 0.000384304)
(0.0805944 -3.22986e-05 0.000392519)
(0.0802141 0.000142638 -0.000342529)
(0.080752 3.71437e-05 -0.000408143)
(0.0809651 -8.65626e-05 -0.000523029)
(0.0822816 -7.36723e-05 0.00107151)
(0.0828717 2.39438e-05 0.00151294)
(0.0827464 0.000175553 0.00173836)
(0.0821904 -0.000106864 0.00168958)
(0.0818788 0.000162377 0.00115802)
(0.0815065 -7.49815e-05 0.00125957)
(0.0810293 -0.000130421 0.000838701)
(0.0808542 0.00021053 0.00039317)
(0.0806832 -0.000106155 0.000367361)
(0.0804562 0.0002834 -0.000305712)
(0.080855 0.000176088 -0.000365029)
(0.081089 -0.00016053 -0.000573887)
(0.0822996 -0.000161066 0.000946936)
(0.0827916 2.26406e-05 0.00134567)
(0.0828094 0.000313333 0.0016979)
(0.0821394 -0.000171897 0.00158291)
(0.0818582 0.000364118 0.00114293)
(0.0816432 -4.16805e-05 0.00128048)
(0.0809197 -0.000182642 0.000755845)
(0.0809821 0.000409503 0.000505687)
(0.0808312 -0.000170935 0.000433895)
(0.080532 0.00049747 -0.000211883)
(0.0813282 0.000411297 -0.000138869)
(0.0813769 -0.000177535 -0.000588464)
(0.0823324 -0.000174077 0.000934086)
(0.0821373 -3.40995e-05 0.00132597)
(0.0830108 0.000286841 0.00202125)
(0.0817652 -0.000187989 0.00197227)
(0.0814733 0.000320131 0.00174333)
(0.0818569 -7.41822e-05 0.00199829)
(0.0799891 -0.000256754 0.00127498)
(0.0808169 0.000267931 0.00127696)
(0.0804523 -0.000295172 0.00101209)
(0.0797653 0.000313786 0.000343338)
(0.0820227 0.000246616 0.000688043)
(0.0809899 -0.000294241 -0.000293864)
(0.0824165 0.000360684 -0.000968659)
(0.0810434 0.000184948 -0.00118516)
(0.0811859 -6.35449e-05 -0.000599216)
(0.0802387 0.000282372 -0.000718536)
(0.0796666 -0.000305363 -0.000638346)
(0.0801269 0.000105381 -0.000204279)
(0.0783022 8.1476e-05 -0.000608778)
(0.0787976 -0.000371834 -0.000384558)
(0.0784445 0.000136198 -0.000532999)
(0.0773478 -0.000518684 -0.000943732)
(0.0793398 -0.000210716 -0.000645151)
(0.0780764 0.000189597 -0.00154138)
(0.0821045 0.000351013 -0.00108144)
(0.0813363 0.000165648 -0.00103093)
(0.0804349 4.77286e-05 -0.00070263)
(0.0795982 0.000198592 -0.000505881)
(0.0785782 -0.000273462 -0.000428949)
(0.0778557 8.13815e-05 -1.80094e-05)
(0.0766638 -9.9484e-05 -8.54653e-05)
(0.0758861 -0.000407936 -0.000110183)
(0.0752942 -5.78486e-05 -4.46614e-05)
(0.0743845 -0.00065667 -0.000492658)
(0.0744886 -0.000285558 -0.000564877)
(0.0744145 -8.34562e-05 -0.000981892)
(0.0820984 0.000218473 -0.00113758)
(0.0812208 0.000143104 -0.00120971)
(0.0802131 0.000124732 -0.000870642)
(0.0794701 0.000283691 -0.00058715)
(0.0783996 6.40965e-05 -0.000565771)
(0.0775107 0.000272762 -9.78736e-05)
(0.0764655 0.000169281 -7.07117e-05)
(0.0753814 -2.94638e-05 -0.000200552)
(0.0746964 0.000122609 -5.59493e-05)
(0.073787 -0.000223131 -0.000516526)
(0.0734464 4.47759e-06 -0.000653258)
(0.0735456 0.000110614 -0.000930138)
(0.0821089 0.000121295 -0.00120487)
(0.0810554 0.000133375 -0.00135197)
(0.080039 0.000151323 -0.000916712)
(0.079256 0.000206459 -0.000576909)
(0.0781411 0.000131469 -0.000546741)
(0.0773184 0.000210795 -3.68292e-05)
(0.0762372 0.000137858 7.58724e-07)
(0.0751658 6.2666e-05 -0.000155289)
(0.0745004 9.19051e-05 1.57683e-05)
(0.0735635 -6.16609e-05 -0.000477906)
(0.0732787 8.63488e-05 -0.000607659)
(0.0733941 0.000129014 -0.000835376)
(0.0821153 5.41657e-05 -0.00123132)
(0.0809473 8.0461e-05 -0.00141761)
(0.0799748 8.87902e-05 -0.000933082)
(0.0791594 0.000119957 -0.000562507)
(0.0780194 0.000112038 -0.000513257)
(0.0772422 0.000131977 1.42918e-05)
(0.0760755 0.000104362 4.87258e-05)
(0.0750256 7.37695e-05 -0.000112547)
(0.0743554 6.93128e-05 6.03569e-05)
(0.0733879 2.23773e-05 -0.000445309)
(0.0732116 0.000102645 -0.000565193)
(0.0733189 0.000129635 -0.000779553)
(0.082118 1.55384e-05 -0.00124295)
(0.0809022 2.91975e-05 -0.00144322)
(0.0799531 3.52258e-05 -0.00093968)
(0.0791111 4.29648e-05 -0.000555995)
(0.0779675 4.38355e-05 -0.000494768)
(0.077205 4.42638e-05 3.91885e-05)
(0.0759887 3.32767e-05 7.08127e-05)
(0.0749518 2.42842e-05 -8.93474e-05)
(0.0742671 1.64496e-05 8.32529e-05)
(0.073286 5.04823e-06 -0.000427894)
(0.0731686 3.0347e-05 -0.000541356)
(0.0732687 3.91562e-05 -0.000752572)
(0.082118 -1.55417e-05 -0.00124296)
(0.0809022 -2.99988e-05 -0.00144326)
(0.079953 -3.58714e-05 -0.000939765)
(0.0791111 -4.31225e-05 -0.000556027)
(0.0779675 -4.49536e-05 -0.000494845)
(0.0772049 -4.47211e-05 3.90492e-05)
(0.0759886 -3.43126e-05 7.0747e-05)
(0.0749515 -2.59021e-05 -8.94868e-05)
(0.0742668 -1.72926e-05 8.31034e-05)
(0.0732858 -6.87275e-06 -0.000427975)
(0.0731681 -3.13649e-05 -0.000541573)
(0.0732682 -3.95918e-05 -0.000752676)
(0.0821153 -5.41582e-05 -0.00123136)
(0.0809474 -8.11983e-05 -0.00141774)
(0.0799749 -8.93409e-05 -0.00093334)
(0.0791594 -0.000120052 -0.000562595)
(0.0780194 -0.000112998 -0.000513458)
(0.0772418 -0.000132298 1.38752e-05)
(0.0760752 -0.000105242 4.85096e-05)
(0.0750249 -7.51253e-05 -0.000113042)
(0.0743545 -6.99374e-05 5.98916e-05)
(0.0733871 -2.39066e-05 -0.000445588)
(0.0732101 -0.000103324 -0.000565804)
(0.0733175 -0.000129833 -0.000779828)
(0.0821088 -0.000121262 -0.00120493)
(0.0810555 -0.000134004 -0.00135215)
(0.0800391 -0.000151661 -0.000917088)
(0.0792561 -0.000206429 -0.000577022)
(0.0781411 -0.000132093 -0.000547053)
(0.0773178 -0.000210766 -3.74458e-05)
(0.0762368 -0.000138404 4.47155e-07)
(0.0751648 -6.34517e-05 -0.000155971)
(0.0744991 -9.20462e-05 1.51162e-05)
(0.0735624 6.0717e-05 -0.000478241)
(0.0732766 -8.63269e-05 -0.000608494)
(0.0733921 -0.000128773 -0.0008357)
(0.0820983 -0.000218365 -0.00113764)
(0.0812211 -0.000143714 -0.00120996)
(0.0802133 -0.000124789 -0.000871079)
(0.0794702 -0.000283526 -0.000587228)
(0.0783997 -6.44536e-05 -0.00056613)
(0.07751 -0.000272289 -9.85643e-05)
(0.076465 -0.000169569 -7.10706e-05)
(0.0753803 2.92977e-05 -0.000201355)
(0.074695 -0.000122228 -5.66449e-05)
(0.0737858 0.000222682 -0.000516891)
(0.0734442 -3.64405e-06 -0.000654079)
(0.0735436 -0.00011003 -0.000930283)
(0.0821044 -0.000350871 -0.00108138)
(0.0813367 -0.000166257 -0.00103137)
(0.0804351 -4.74089e-05 -0.000703094)
(0.0795986 -0.000198226 -0.000505774)
(0.0785781 0.000273585 -0.000429259)
(0.0778551 -8.02253e-05 -1.84513e-05)
(0.0766636 9.95298e-05 -8.56907e-05)
(0.0758848 0.000408549 -0.000111006)
(0.0752933 5.87454e-05 -4.50923e-05)
(0.0743837 0.000656487 -0.000492929)
(0.0744867 0.000287097 -0.000565472)
(0.0744138 8.40787e-05 -0.000981565)
(0.0824167 -0.000360404 -0.000968303)
(0.0810441 -0.000185706 -0.0011858)
(0.0811851 6.39185e-05 -0.000599537)
(0.0802397 -0.000282039 -0.000717515)
(0.0796655 0.00030535 -0.000638277)
(0.0801265 -0.00010414 -0.000203799)
(0.0783034 -8.16406e-05 -0.000608365)
(0.0787961 0.000372355 -0.000385248)
(0.0784465 -0.000135456 -0.000532543)
(0.0773482 0.000518129 -0.000944054)
(0.0793391 0.000212015 -0.000645385)
(0.0780798 -0.000189543 -0.00154003)
(0.0812809 -4.0481e-05 0.00141245)
(0.0804576 -0.0003895 0.00190196)
(0.0800709 -0.000398292 0.00257705)
(0.0780761 -0.000180277 0.00260471)
(0.076511 -0.000488519 0.0024038)
(0.0755634 -8.93098e-06 0.00246006)
(0.0727362 -0.000228242 0.00199104)
(0.0721714 -0.000210391 0.00174183)
(0.070335 7.11279e-05 0.00142786)
(0.0690196 -0.000450663 0.00068055)
(0.0694738 0.000140186 0.000515093)
(0.0676805 -0.000123627 -0.000492621)
(0.0800702 5.11718e-06 0.0021252)
(0.0787287 -0.000195774 0.00231414)
(0.0750627 9.33827e-05 0.00262814)
(0.071902 0.000252212 0.00253927)
(0.0689349 8.59551e-05 0.00205005)
(0.0668671 0.00033972 0.00197046)
(0.0648417 8.96449e-05 0.00157486)
(0.0635827 3.93336e-05 0.00112519)
(0.0627407 6.53808e-05 0.000903304)
(0.0619738 -0.000377645 0.000134497)
(0.0621118 6.74761e-05 -0.000274431)
(0.0624021 -4.75951e-05 -0.000954712)
(0.0803265 6.13241e-05 0.00240009)
(0.0783492 -3.30901e-05 0.0024635)
(0.0748852 0.000315379 0.00279523)
(0.071554 0.000522676 0.00265954)
(0.0684537 0.000492096 0.00214256)
(0.0662686 0.000631176 0.00202532)
(0.0643842 0.000434889 0.00164941)
(0.062947 0.000309076 0.00114345)
(0.062136 0.000246303 0.000853929)
(0.061386 -3.25025e-06 7.92515e-05)
(0.0612828 0.000243 -0.000417936)
(0.0618267 0.000214102 -0.00105524)
(0.0803771 1.69786e-05 0.00262951)
(0.0780445 2.77193e-05 0.00265656)
(0.0746595 0.000266799 0.00304743)
(0.07129 0.000418926 0.00289218)
(0.0682014 0.000457758 0.00234462)
(0.0661155 0.000508974 0.00222232)
(0.0643038 0.000389584 0.00183137)
(0.0629221 0.000307747 0.00128879)
(0.0621472 0.000231094 0.00097199)
(0.0614521 0.000122956 0.000169008)
(0.0613901 0.000264218 -0.00034577)
(0.0619871 0.00027624 -0.000949831)
(0.0803785 1.61346e-05 0.00272549)
(0.0779216 4.10254e-05 0.00273619)
(0.0745614 0.000158993 0.00315962)
(0.0711477 0.000257076 0.00300194)
(0.06806 0.000298983 0.00245455)
(0.0660063 0.000313939 0.00232727)
(0.0641869 0.000258527 0.00192254)
(0.0628528 0.000210907 0.00136662)
(0.0620983 0.000168908 0.00103145)
(0.0614504 0.000141446 0.000220204)
(0.0614756 0.000217751 -0.000294929)
(0.0620972 0.00024135 -0.000882746)
(0.0803782 6.14082e-06 0.00277064)
(0.0778896 1.95505e-05 0.00277352)
(0.0745399 5.73205e-05 0.00320975)
(0.0710987 8.8999e-05 0.00305222)
(0.0680077 0.000103882 0.00250776)
(0.0659491 0.000104457 0.00237676)
(0.0641107 8.56851e-05 0.00196516)
(0.0627906 6.89029e-05 0.00140235)
(0.0620369 5.2999e-05 0.00105821)
(0.061415 4.78445e-05 0.00024312)
(0.0614925 7.24805e-05 -0.000270213)
(0.0621303 8.33123e-05 -0.000850402)
(0.0803782 -6.45786e-06 0.00277062)
(0.0778895 -2.04771e-05 0.00277345)
(0.0745399 -5.78466e-05 0.00320965)
(0.0710986 -8.94727e-05 0.00305218)
(0.0680075 -0.000104782 0.00250771)
(0.0659489 -0.000105113 0.00237664)
(0.0641104 -8.689e-05 0.00196507)
(0.0627901 -7.00758e-05 0.00140218)
(0.0620364 -5.37625e-05 0.00105801)
(0.0614145 -4.88863e-05 0.000242953)
(0.0614918 -7.26126e-05 -0.000270461)
(0.0621296 -8.34211e-05 -0.000850565)
(0.0803784 -1.64044e-05 0.00272546)
(0.0779215 -4.18516e-05 0.00273597)
(0.0745613 -0.00015941 0.00315931)
(0.0711476 -0.000257419 0.00300182)
(0.0680597 -0.00029968 0.0024544)
(0.0660056 -0.000314388 0.00232691)
(0.0641861 -0.000259474 0.00192227)
(0.0628515 -0.000211758 0.00136611)
(0.0620967 -0.000169374 0.00103087)
(0.0614488 -0.000142128 0.000219718)
(0.0614735 -0.000217539 -0.000295636)
(0.0620951 -0.000241187 -0.000883192)
(0.0803769 -1.71858e-05 0.00262945)
(0.0780444 -2.84008e-05 0.00265622)
(0.0746595 -0.000267003 0.00304698)
(0.07129 -0.000419018 0.00289201)
(0.068201 -0.000458034 0.00234441)
(0.0661144 -0.000508969 0.00222181)
(0.0643026 -0.000390007 0.00183099)
(0.0629202 -0.000307917 0.00128804)
(0.0621449 -0.000230964 0.000971158)
(0.0614498 -0.000122972 0.000168383)
(0.0613871 -0.000263334 -0.000346727)
(0.0619842 -0.000275602 -0.000950369)
(0.0803263 -6.14266e-05 0.00240003)
(0.0783491 3.25129e-05 0.00246306)
(0.0748853 -0.000315288 0.00279472)
(0.0715541 -0.000522494 0.00265938)
(0.0684534 -0.000491944 0.00214232)
(0.0662674 -0.00063065 0.00202472)
(0.0643829 -0.000434821 0.00164901)
(0.0629449 -0.000308508 0.00114264)
(0.0621336 -0.000245607 0.000853085)
(0.0613836 3.85088e-06 7.86959e-05)
(0.0612797 -0.000241401 -0.00041886)
(0.0618239 -0.000213099 -0.00105557)
(0.08007 -5.12236e-06 0.00212512)
(0.0787289 0.000195386 0.00231364)
(0.0750628 -9.27561e-05 0.00262768)
(0.0719025 -0.000251556 0.00253937)
(0.0689346 -8.50915e-05 0.00204999)
(0.0668662 -0.000338481 0.00197011)
(0.0648409 -8.90886e-05 0.00157478)
(0.0635808 -3.802e-05 0.0011245)
(0.0627391 -6.43391e-05 0.000902781)
(0.0619723 0.00037858 0.000134349)
(0.0621097 -6.53198e-05 -0.000275002)
(0.0624009 4.85938e-05 -0.000954327)
(0.0812816 4.06304e-05 0.00141245)
(0.0804574 0.000388855 0.00190147)
(0.0800699 0.00039897 0.00257702)
(0.0780779 0.00018066 0.00260552)
(0.0765107 0.000489188 0.00240429)
(0.0755648 1.01534e-05 0.0024605)
(0.0727381 0.000228311 0.00199155)
(0.0721712 0.000211486 0.00174159)
(0.0703376 -7.07067e-05 0.00142827)
(0.0690198 0.000450994 0.000680791)
(0.0694748 -0.000138535 0.000515127)
(0.067684 0.000123622 -0.000491125)
(0.00667129 0.00622633 -0.000406528)
(0.0122747 0.00337137 0.000109432)
(0.0193762 0.00226417 0.000141915)
(0.0246747 0.00123421 0.000673164)
(0.0297486 0.000584851 0.000895563)
(0.0336097 0.000282678 0.00124986)
(0.0364557 5.12368e-05 0.00113812)
(0.039322 -2.82549e-05 0.00104592)
(0.0412684 -0.000386665 0.00076052)
(0.0433824 -0.000276565 0.000173972)
(0.0452644 -6.60549e-05 -0.000147907)
(0.0467311 -0.000273052 -0.00125617)
(0.0160873 0.00609028 0.000423175)
(0.0240212 0.00400348 0.00159149)
(0.0325842 0.00295514 0.00163275)
(0.0371373 0.00187856 0.00185942)
(0.0402339 0.00111581 0.00162115)
(0.0422487 0.000759774 0.00162666)
(0.0434185 0.000300434 0.00129201)
(0.0445072 9.93718e-05 0.000907169)
(0.0454066 -0.000136235 0.000560874)
(0.0461526 -0.000198592 -0.000232075)
(0.0473496 0.000207723 -0.000790801)
(0.0487456 0.000343306 -0.00176178)
(0.0165948 0.0035771 0.000377132)
(0.0251436 0.0028293 0.00166442)
(0.0338313 0.00241264 0.00186329)
(0.0387088 0.00184779 0.00207555)
(0.0417444 0.00136178 0.00189533)
(0.0438422 0.00102934 0.00185376)
(0.0449494 0.000615886 0.00149615)
(0.0457887 0.000368639 0.00101707)
(0.0465348 0.000167542 0.000597354)
(0.0470945 0.000130282 -0.000215274)
(0.0480933 0.000383721 -0.00087583)
(0.049574 0.000540265 -0.00177752)
(0.0167766 0.00222753 0.000359513)
(0.0253997 0.00190181 0.00169467)
(0.0341699 0.00168452 0.00199774)
(0.0391282 0.00135211 0.00226003)
(0.042257 0.00106147 0.00213543)
(0.0444487 0.000816908 0.00210404)
(0.0455921 0.000539401 0.00173373)
(0.046429 0.000367093 0.00120999)
(0.047173 0.00023829 0.000756202)
(0.047763 0.000225399 -7.30169e-05)
(0.0487629 0.000387234 -0.00075978)
(0.050303 0.000513987 -0.00162696)
(0.0167844 0.00112427 0.000341417)
(0.025382 0.00102118 0.00169556)
(0.0342268 0.000942391 0.00202088)
(0.0391915 0.000801256 0.00231926)
(0.042397 0.000656766 0.00223774)
(0.0446187 0.000513011 0.00221462)
(0.0457762 0.000365273 0.00184129)
(0.0466436 0.000269871 0.00130459)
(0.0474141 0.00021077 0.00083686)
(0.0480597 0.000220099 6.57004e-06)
(0.0491082 0.00030403 -0.000680525)
(0.0506956 0.000377215 -0.00152725)
(0.0167584 0.000359043 0.000334904)
(0.0253262 0.000332788 0.00169789)
(0.0342093 0.000310444 0.00203023)
(0.0391718 0.000267317 0.00234457)
(0.0424118 0.000220706 0.00228109)
(0.0446393 0.000171679 0.00226001)
(0.0457989 0.000122956 0.00188443)
(0.0466803 9.10972e-05 0.00134061)
(0.0474663 7.2508e-05 0.000868312)
(0.0481503 7.75927e-05 3.91898e-05)
(0.0492367 0.000105086 -0.000644268)
(0.0508523 0.000129887 -0.00148104)
(0.0167583 -0.000360592 0.000334905)
(0.025326 -0.00033408 0.00169781)
(0.0342091 -0.000311229 0.00203014)
(0.0391716 -0.000268185 0.00234451)
(0.0424115 -0.000221629 0.002281)
(0.0446389 -0.000172467 0.00225987)
(0.0457984 -0.000123915 0.00188428)
(0.0466797 -9.16597e-05 0.00134039)
(0.0474657 -7.26852e-05 0.000868068)
(0.0481496 -7.75583e-05 3.89724e-05)
(0.0492359 -0.000104427 -0.000644543)
(0.0508515 -0.000129561 -0.00148126)
(0.0167842 -0.00112566 0.000341421)
(0.0253815 -0.00102227 0.0016953)
(0.0342262 -0.000942927 0.00202059)
(0.039191 -0.000801826 0.00231907)
(0.0423962 -0.000657347 0.0022375)
(0.0446177 -0.000513449 0.00221421)
(0.045775 -0.000365848 0.00184087)
(0.046642 -0.000270047 0.00130395)
(0.0474123 -0.000210599 0.000836156)
(0.0480576 -0.000219711 5.93985e-06)
(0.0491059 -0.000303077 -0.000681304)
(0.0506933 -0.000376641 -0.00152785)
(0.0167762 -0.00222856 0.00035952)
(0.025399 -0.00190249 0.00169425)
(0.034169 -0.00168456 0.00199727)
(0.0391274 -0.00135212 0.00225976)
(0.0422558 -0.00106137 0.00213509)
(0.0444472 -0.000816662 0.00210347)
(0.0455903 -0.000539225 0.00173314)
(0.0464266 -0.000366499 0.00120906)
(0.0471704 -0.000237454 0.000755223)
(0.0477602 -0.000224343 -7.38521e-05)
(0.0487596 -0.000385744 -0.000760821)
(0.0502998 -0.000512985 -0.0016277)
(0.0165943 -0.00357772 0.000377164)
(0.0251427 -0.0028294 0.00166387)
(0.0338303 -0.00241201 0.00186265)
(0.038708 -0.00184714 0.00207522)
(0.0417431 -0.00136095 0.00189495)
(0.0438407 -0.00102836 0.00185312)
(0.0449477 -0.000614918 0.00149556)
(0.0457863 -0.000367269 0.00101607)
(0.0465322 -0.00016611 0.00059641)
(0.0470918 -0.00012859 -0.000215985)
(0.0480901 -0.000381732 -0.00087678)
(0.049571 -0.00053884 -0.00177799)
(0.016087 -0.00609022 0.000423177)
(0.0240203 -0.00400276 0.00159088)
(0.0325838 -0.00295382 0.00163221)
(0.0371373 -0.00187732 0.00185943)
(0.0402336 -0.0011142 0.00162111)
(0.0422483 -0.000758151 0.00162639)
(0.043418 -0.000298896 0.00129191)
(0.0445061 -9.73891e-05 0.000906568)
(0.0454059 0.000137931 0.000560517)
(0.0461517 0.00020058 -0.000232227)
(0.0473485 -0.00020551 -0.000791175)
(0.0487449 -0.000341753 -0.0017614)
(0.00667165 -0.00622588 -0.000406396)
(0.0122749 -0.00337055 0.000108993)
(0.019378 -0.00226303 0.000141975)
(0.0246772 -0.0012331 0.000673924)
(0.0297511 -0.000583425 0.0008964)
(0.0336134 -0.000281288 0.00125076)
(0.0364591 -4.9766e-05 0.00113908)
(0.0393255 2.95771e-05 0.0010464)
(0.0412727 0.000387697 0.000761464)
(0.0433864 0.000278385 0.000174696)
(0.0452696 6.72486e-05 -0.000147085)
(0.0467367 0.0002745 -0.00125441)
(-0.00565019 0.000873216 -0.0129405)
(-0.0036004 0.00193124 -0.00773578)
(-0.000888031 0.00113196 -0.00557865)
(0.00302357 0.000455849 -0.00395975)
(0.00729461 0.000241381 -0.00254324)
(0.0114034 2.98246e-05 -0.00146554)
(0.0152477 -0.000213098 -0.000988053)
(0.0190085 -0.000344586 -0.000606728)
(0.0222323 -0.000221227 -0.000540542)
(0.0251771 3.72346e-05 -0.000958623)
(0.028472 0.000155596 -0.00128642)
(0.0314345 0.00108805 -0.00236528)
(-0.00455797 0.0025704 -0.0143023)
(0.00288934 0.00366928 -0.00571979)
(0.0091285 0.00255669 -0.00324987)
(0.0145327 0.00158257 -0.00165487)
(0.0190823 0.00097897 -0.000711845)
(0.0227489 0.000539342 -8.41808e-05)
(0.0256493 0.000120758 4.99291e-05)
(0.0281564 -8.3482e-05 -6.17084e-05)
(0.030329 -0.000117388 -0.000337269)
(0.032315 0.000135516 -0.00101674)
(0.0346259 0.000559643 -0.00179363)
(0.0372526 0.00121683 -0.0029767)
(-0.00347256 0.00229274 -0.0143528)
(0.00555439 0.00297126 -0.00515286)
(0.011898 0.00228887 -0.00250417)
(0.0176228 0.00169085 -0.000973097)
(0.0220896 0.00117249 -0.000118779)
(0.025656 0.000757376 0.000412601)
(0.028396 0.000390821 0.000450537)
(0.0306634 0.000186096 0.000235514)
(0.0326223 0.000151162 -0.000128246)
(0.0344162 0.000336821 -0.000893928)
(0.0365788 0.00065347 -0.00175376)
(0.0392508 0.00109012 -0.00291863)
(-0.00318319 0.00168284 -0.014782)
(0.00628493 0.00217781 -0.00517491)
(0.0126917 0.00182325 -0.00225089)
(0.0186194 0.00141756 -0.000611979)
(0.0231783 0.00103312 0.000271786)
(0.0268088 0.000702035 0.000792727)
(0.0295702 0.000429725 0.000800234)
(0.031829 0.000276621 0.00053363)
(0.0337791 0.00023363 0.000124707)
(0.0355798 0.000346675 -0.000674017)
(0.0377278 0.000554142 -0.00157805)
(0.0404328 0.000797386 -0.00273457)
(-0.00305683 0.000950488 -0.0149548)
(0.00642941 0.00122255 -0.0052583)
(0.0128878 0.00109089 -0.00221842)
(0.0188915 0.000885462 -0.000506143)
(0.0235235 0.000671436 0.000417192)
(0.027211 0.000479928 0.000949264)
(0.0300141 0.000327183 0.000957656)
(0.0323127 0.000242472 0.000677424)
(0.0342985 0.00022387 0.000253666)
(0.0361404 0.000285574 -0.000554296)
(0.0383146 0.000390008 -0.0014656)
(0.0410478 0.00050278 -0.00261584)
(-0.00300573 0.000316996 -0.015024)
(0.00642849 0.000403381 -0.00531707)
(0.0129056 0.000368156 -0.0022338)
(0.0189304 0.00030155 -0.000481945)
(0.0235952 0.000230932 0.000464782)
(0.0273104 0.000166764 0.0010041)
(0.0301371 0.000115676 0.00101745)
(0.032462 8.70847e-05 0.000733354)
(0.034477 8.07948e-05 0.000305626)
(0.0363539 0.000100533 -0.000502538)
(0.038553 0.000133436 -0.00141449)
(0.0413054 0.000166947 -0.00256112)
(-0.00300575 -0.000318545 -0.015024)
(0.00642835 -0.000404618 -0.00531719)
(0.0129054 -0.000368988 -0.00223397)
(0.0189302 -0.00030235 -0.000482095)
(0.0235949 -0.000231495 0.000464619)
(0.0273099 -0.000167092 0.0010039)
(0.0301366 -0.000115771 0.00101724)
(0.0324614 -8.66575e-05 0.000733087)
(0.0344763 -8.00189e-05 0.000305341)
(0.0363532 -9.95337e-05 -0.000502816)
(0.0385522 -0.000132326 -0.00141481)
(0.0413045 -0.000166476 -0.00256139)
(-0.00305688 -0.000951793 -0.0149548)