/*--------------------------------*- C++ -*----------------------------------*\
| =========                 |                                                 |
| \\      /  F ield         | OpenFOAM: The Open Source CFD Toolbox           |
|  \\    /   O peration     | Version:  2.3.1                                 |
|   \\  /    A nd           | Web:      www.OpenFOAM.org                      |
|    \\/     M anipulation  |                                                 |
\*---------------------------------------------------------------------------*/
FoamFile
{
    version     2.0;
    format      ascii;
    class       volVectorField;
    location    "20";
    object      U_0;
}
// * * * * * * * * * * * * * * * * * * * * * * * * * * * * * * * * * * * * * //

dimensions      [0 1 -1 0 0 0 0];

internalField   nonuniform List<vector> 
37758
(
(0.0818713 0.000264762 -0.000480396)
(0.0810255 -4.81854e-05 -0.00115226)
(0.0822088 -0.000200852 -0.000931867)
(0.0794993 0.000230359 -0.00103791)
(0.0797234 -0.000444427 -0.00103751)
(0.079388 0.000175223 -0.00076082)
(0.0767421 0.000157496 -0.000968841)
(0.0785072 -0.000358246 -0.000667902)
(0.0767281 0.000300996 -0.000645208)
(0.0768253 -0.000461255 -0.00080163)
(0.079111 -0.000188057 -0.000336642)
(0.0767329 0.000158515 -0.000774117)
(0.0819445 0.000291293 -0.000515547)
(0.0817883 3.99509e-05 -0.00103431)
(0.0817931 -0.000344872 -0.000844798)
(0.0800295 0.000221361 -0.000776869)
(0.0799861 -0.000562905 -0.000772671)
(0.0793308 4.53299e-05 -0.000427181)
(0.0780095 0.000174999 -0.000525443)
(0.0788558 -0.000622907 -0.000321955)
(0.0778858 0.000199607 -0.000164941)
(0.0779946 -0.000660829 -0.000438723)
(0.0793794 -0.000504949 -0.000138285)
(0.0785879 0.000207122 -0.000377281)
(0.0819481 0.000146489 -0.000553876)
(0.0817962 9.68116e-05 -0.00113629)
(0.0816536 -0.000137902 -0.00100938)
(0.0800604 0.000150834 -0.000850106)
(0.0799241 -0.000225923 -0.000887619)
(0.0792317 0.000102921 -0.000487215)
(0.0780645 0.000146019 -0.000507947)
(0.0786788 -0.000333123 -0.000399134)
(0.0779131 0.000116308 -0.000148895)
(0.0780147 -0.000370128 -0.000454507)
(0.0792262 -0.000249664 -0.000232997)
(0.0788391 0.000190207 -0.000308241)
(0.0819964 4.89955e-05 -0.000597451)
(0.0815754 0.00010032 -0.00124369)
(0.0817432 1.36136e-05 -0.00109701)
(0.0799987 5.65606e-05 -0.000900166)
(0.0797676 -2.70053e-05 -0.000936343)
(0.079356 8.39256e-05 -0.000478629)
(0.0777932 3.17547e-05 -0.000496748)
(0.0785657 -0.000139963 -0.000414956)
(0.0778725 -1.28565e-05 -0.000105412)
(0.0776682 -0.000199 -0.0004591)
(0.0793603 -7.84999e-05 -0.000230769)
(0.0787748 5.76728e-05 -0.000243303)
(0.0820357 1.04873e-05 -0.000622104)
(0.0814195 7.08751e-05 -0.00130267)
(0.0818034 3.03544e-05 -0.00114133)
(0.0799776 1.99351e-05 -0.000933645)
(0.079685 3.56648e-05 -0.000962272)
(0.0794684 5.5672e-05 -0.000480771)
(0.0776211 1.73397e-05 -0.000506792)
(0.0785174 -4.0057e-05 -0.00042778)
(0.0778628 -1.67458e-05 -9.7241e-05)
(0.0774401 -6.06721e-05 -0.000467261)
(0.0794912 4.10897e-06 -0.000226252)
(0.0787276 4.22152e-05 -0.000223607)
(0.0820477 3.5514e-07 -0.000631555)
(0.0813591 2.44578e-05 -0.00132836)
(0.0818317 2.02412e-05 -0.00116041)
(0.0799553 6.11663e-06 -0.000950462)
(0.0796491 2.24531e-05 -0.00097263)
(0.0794944 2.0996e-05 -0.000481023)
(0.077527 -1.49397e-06 -0.000511967)
(0.0784911 -9.26104e-06 -0.000429589)
(0.077833 -1.60172e-05 -9.1039e-05)
(0.0773381 -2.30615e-05 -0.000468269)
(0.0795421 8.1112e-07 -0.000219884)
(0.0786885 -2.07206e-06 -0.000214999)
(0.0820477 2.85419e-08 -0.00063156)
(0.0813591 -2.5675e-05 -0.00132837)
(0.0818316 -2.22213e-05 -0.00116047)
(0.0799555 -5.90829e-06 -0.000950459)
(0.0796489 -2.49691e-05 -0.000972666)
(0.0794944 -2.17601e-05 -0.000481085)
(0.0775271 9.06846e-07 -0.000511938)
(0.0784909 6.1298e-06 -0.000429683)
(0.0778332 1.56356e-05 -9.10664e-05)
(0.0773381 2.02406e-05 -0.000468262)
(0.0795421 -3.77789e-06 -0.000220023)
(0.0786889 1.57281e-06 -0.000214994)
(0.0820358 -1.01156e-05 -0.000622109)
(0.0814194 -7.19798e-05 -0.00130269)
(0.0818032 -3.21461e-05 -0.00114151)
(0.079978 -1.97003e-05 -0.000933628)
(0.0796846 -3.79087e-05 -0.000962365)
(0.0794684 -5.62979e-05 -0.000480937)
(0.0776215 -1.78423e-05 -0.000506716)
(0.0785168 3.72643e-05 -0.00042804)
(0.0778635 1.64874e-05 -9.73245e-05)
(0.0774402 5.8163e-05 -0.000467254)
(0.0794911 -6.65772e-06 -0.00022662)
(0.0787287 -4.25519e-05 -0.000223579)
(0.0819966 -4.86388e-05 -0.000597454)
(0.0815752 -0.00010127 -0.0012437)
(0.081743 -1.50263e-05 -0.00109727)
(0.0799992 -5.62736e-05 -0.000900135)
(0.079767 2.52984e-05 -0.000936495)
(0.0793561 -8.41685e-05 -0.000478887)
(0.0777935 -3.2076e-05 -0.000496643)
(0.0785651 0.00013789 -0.000415351)
(0.0778734 1.29197e-05 -0.000105523)
(0.0776685 0.00019707 -0.000459077)
(0.0793604 7.68558e-05 -0.000231301)
(0.0787763 -5.76863e-05 -0.000243239)
(0.0819482 -0.000146044 -0.000553865)
(0.0817959 -9.77863e-05 -0.00113634)
(0.0816537 0.000137019 -0.0010097)
(0.0800608 -0.000150485 -0.000850044)
(0.0799237 0.000224589 -0.0008878)
(0.0792319 -0.000102544 -0.000487477)
(0.0780646 -0.000146351 -0.000507835)
(0.0786784 0.000331831 -0.000399604)
(0.077914 -0.00011581 -0.000148966)
(0.0780151 0.00036852 -0.000454517)
(0.0792267 0.000249193 -0.000233568)
(0.0788406 -0.000190014 -0.00030807)
(0.0819447 -0.000290762 -0.000515452)
(0.0817879 -4.1041e-05 -0.00103447)
(0.0817932 0.000344715 -0.000845167)
(0.0800301 -0.000220927 -0.000776734)
(0.0799853 0.000562106 -0.000772894)
(0.0793312 -4.40759e-05 -0.00042732)
(0.0780095 -0.000175356 -0.000525327)
(0.0788552 0.000622568 -0.000322431)
(0.0778873 -0.000198697 -0.000164859)
(0.0779946 0.000659405 -0.000438828)
(0.0793802 0.000505693 -0.000138797)
(0.07859 -0.000207032 -0.000376919)
(0.0818723 -0.000264452 -0.000480173)
(0.0810245 4.74104e-05 -0.00115255)
(0.0822084 0.000201184 -0.000932255)
(0.0795008 -0.000230222 -0.00103754)
(0.0797213 0.000444275 -0.00103767)
(0.0793893 -0.000174078 -0.000760686)
(0.0767421 -0.000157862 -0.000968641)
(0.0785058 0.000358653 -0.000668353)
(0.0767313 -0.000300448 -0.000644843)
(0.0768237 0.000460537 -0.000801889)
(0.0791125 0.000189048 -0.000336934)
(0.0767357 -0.000158799 -0.000773432)
(0.0823308 0.000175132 0.000933415)
(0.082138 3.17546e-05 0.00132625)
(0.0830117 -0.000286203 0.00202312)
(0.0817617 0.000188516 0.00197089)
(0.0814776 -0.000320581 0.00174402)
(0.0818554 7.73962e-05 0.00199763)
(0.0799871 0.000255727 0.0012733)
(0.0808218 -0.000267555 0.00127836)
(0.0804481 0.000296 0.00101038)
(0.0797694 -0.000316165 0.000344381)
(0.0820252 -0.000243662 0.000688782)
(0.080985 0.000293345 -0.000296863)
(0.0822997 0.00016191 0.000946542)
(0.0827917 -2.49449e-05 0.00134586)
(0.0828082 -0.000312724 0.00169941)
(0.0821381 0.000172651 0.00158195)
(0.081859 -0.000364744 0.00114326)
(0.0816431 4.48868e-05 0.00128088)
(0.0809197 0.000181454 0.000754679)
(0.0809844 -0.00040952 0.000507013)
(0.0808312 0.000171926 0.000433569)
(0.0805335 -0.000500086 -0.00021192)
(0.0813309 -0.000408206 -0.000137508)
(0.0813767 0.000176828 -0.000590098)
(0.0822819 7.42244e-05 0.00107148)
(0.0828716 -2.54463e-05 0.00151281)
(0.0827449 -0.00017581 0.00173972)
(0.0821898 0.000107322 0.00168902)
(0.0818789 -0.000163214 0.00115813)
(0.0815068 7.64987e-05 0.0012606)
(0.0810297 0.000129454 0.000837593)
(0.0808556 -0.00021127 0.000394156)
(0.0806841 0.000106553 0.000367455)
(0.0804574 -0.000285355 -0.000306256)
(0.0808576 -0.000174726 -0.000363343)
(0.0810905 0.000160128 -0.000574897)
(0.0823098 2.21962e-05 0.00117991)
(0.0827965 8.0916e-06 0.00162786)
(0.0828088 -3.10778e-05 0.00185627)
(0.0822068 5.97322e-05 0.00182389)
(0.0817805 -1.3639e-05 0.00122542)
(0.0815323 7.97741e-05 0.00134896)
(0.0809161 5.93767e-05 0.00090972)
(0.0807156 -6.96321e-05 0.000385071)
(0.080595 3.21819e-05 0.000392589)
(0.0802152 -0.000144278 -0.000343324)
(0.0807551 -3.73957e-05 -0.000406291)
(0.0809664 8.61978e-05 -0.000523912)
(0.0823342 5.3046e-06 0.00123247)
(0.0827137 1.78184e-05 0.00167991)
(0.0828601 2.23304e-06 0.00191843)
(0.0822291 2.78008e-05 0.00189495)
(0.081727 3.04935e-05 0.00128267)
(0.081597 5.3838e-05 0.00141215)
(0.0808258 3.62624e-05 0.000952447)
(0.0806373 -6.71936e-06 0.000404229)
(0.0805422 1.39889e-05 0.000416923)
(0.0800309 -4.13393e-05 -0.000341495)
(0.0807306 2.38321e-05 -0.000398106)
(0.0808872 6.85989e-05 -0.000487625)
(0.0823432 1.07945e-06 0.00125393)
(0.0826756 8.64874e-06 0.00170431)
(0.0828864 8.68732e-06 0.001953)
(0.0822304 1.03561e-05 0.00193077)
(0.0817003 1.8049e-05 0.00131664)
(0.0816192 1.97428e-05 0.00144627)
(0.0807681 8.28031e-06 0.000970451)
(0.0805959 4.60524e-07 0.000415992)
(0.0805003 -2.75368e-06 0.000429223)
(0.0799356 -1.65113e-05 -0.000340048)
(0.0807144 4.67662e-06 -0.000388912)
(0.0808329 1.147e-05 -0.000472092)
(0.0823432 -9.58922e-07 0.00125393)
(0.0826756 -9.45502e-06 0.00170432)
(0.0828863 -9.86323e-06 0.00195291)
(0.0822304 -1.02222e-05 0.00193076)
(0.0817002 -1.96463e-05 0.0013166)
(0.0816191 -2.02785e-05 0.00144615)
(0.0807681 -8.90936e-06 0.000970436)
(0.0805958 -2.6397e-06 0.00041585)
(0.0805002 2.24447e-06 0.000429085)
(0.0799356 1.4332e-05 -0.000340092)
(0.0807142 -6.70396e-06 -0.000389117)
(0.0808328 -1.19803e-05 -0.00047215)
(0.0823342 -5.16904e-06 0.00123248)
(0.0827138 -1.85549e-05 0.00167993)
(0.08286 -3.28055e-06 0.00191817)
(0.0822292 -2.76319e-05 0.00189493)
(0.081727 -3.19137e-05 0.00128256)
(0.0815968 -5.42422e-05 0.00141179)
(0.080826 -3.67969e-05 0.000952379)
(0.080637 4.79782e-06 0.000403743)
(0.0805421 -1.43471e-05 0.000416488)
(0.080031 3.94203e-05 -0.000341699)
(0.0807299 -2.54964e-05 -0.00039869)
(0.0808869 -6.89028e-05 -0.000487776)
(0.0823097 -2.20362e-05 0.00117991)
(0.0827966 -8.75891e-06 0.00162789)
(0.0828088 3.02765e-05 0.00185589)
(0.0822069 -5.94802e-05 0.00182387)
(0.0817805 1.25837e-05 0.00122525)
(0.0815319 -7.98271e-05 0.00134843)
(0.0809162 -5.96926e-05 0.000909634)
(0.0807153 6.8259e-05 0.000384388)
(0.0805948 -3.21579e-05 0.000391978)
(0.0802153 0.000142854 -0.000343576)
(0.0807544 3.64941e-05 -0.000407107)
(0.080966 -8.60949e-05 -0.000524072)
(0.0822818 -7.39747e-05 0.0010715)
(0.0828717 2.47411e-05 0.00151282)
(0.0827451 0.000175334 0.00173932)
(0.0821899 -0.000106959 0.00168906)
(0.081879 0.000162407 0.00115793)
(0.0815064 -7.60681e-05 0.00126003)
(0.0810297 -0.000129662 0.000837495)
(0.0808554 0.000210507 0.000393301)
(0.0806839 -0.000106084 0.000366829)
(0.0804575 0.000284271 -0.000306547)
(0.080857 0.000174742 -0.000364211)
(0.0810901 -0.00015969 -0.000574911)
(0.0822996 -0.000161564 0.000946671)
(0.0827918 2.41476e-05 0.00134576)
(0.0828084 0.000312712 0.00169894)
(0.0821385 -0.000172063 0.00158219)
(0.0818588 0.000364335 0.00114298)
(0.0816428 -4.37394e-05 0.00128049)
(0.0809199 -0.000181493 0.000754712)
(0.0809839 0.000409421 0.000506101)
(0.0808314 -0.000170985 0.000433212)
(0.0805337 0.000499181 -0.000212227)
(0.0813303 0.000409106 -0.000138297)
(0.0813773 -0.000176274 -0.000589725)
(0.0823311 -0.000174737 0.000933666)
(0.0821381 -3.24994e-05 0.00132615)
(0.0830112 0.00028634 0.0020226)
(0.0817628 -0.000188091 0.00197146)
(0.0814764 0.000320415 0.00174376)
(0.0818553 -7.62299e-05 0.00199776)
(0.079988 -0.000255809 0.00127377)
(0.0808204 0.000267796 0.00127757)
(0.08045 -0.00029523 0.00101086)
(0.0797696 0.000315462 0.000344068)
(0.0820251 0.000244627 0.000688238)
(0.080988 -0.000293207 -0.000295713)
(0.0824155 0.000361065 -0.000969775)
(0.0810428 0.000183403 -0.00118403)
(0.081187 -6.27754e-05 -0.000598223)
(0.0802369 0.00028237 -0.00071993)
(0.0796693 -0.000305419 -0.000638233)
(0.080126 0.00010715 -0.000205189)
(0.0783006 8.03417e-05 -0.000609955)
(0.0788007 -0.000371546 -0.000384274)
(0.0784421 0.000135929 -0.000534172)
(0.0773513 -0.000519895 -0.000943267)
(0.0793424 -0.000208656 -0.000645264)
(0.0780737 0.000188043 -0.00154287)
(0.0821047 0.000351142 -0.00108213)
(0.0813356 0.000164626 -0.00103054)
(0.0804342 4.84777e-05 -0.000702039)
(0.0795972 0.000198455 -0.000506664)
(0.078578 -0.000273171 -0.000429048)
(0.0778556 8.26183e-05 -1.80365e-05)
(0.0766633 -0.000100567 -8.6421e-05)
(0.0758873 -0.000407553 -0.000110135)
(0.0752944 -5.82873e-05 -4.52771e-05)
(0.0743853 -0.000657509 -0.000493316)
(0.0744907 -0.000283991 -0.000564551)
(0.074415 -8.5053e-05 -0.000983003)
(0.0820987 0.00021863 -0.00113807)
(0.0812201 0.000142563 -0.00120963)
(0.0802122 0.000125192 -0.000870152)
(0.0794693 0.000283718 -0.000587755)
(0.078399 6.42791e-05 -0.00056592)
(0.077511 0.000273384 -9.75311e-05)
(0.0764653 0.000168601 -7.17579e-05)
(0.0753821 -2.93699e-05 -0.000200716)
(0.074697 0.000122263 -5.64829e-05)
(0.0737873 -0.000223538 -0.000517491)
(0.0734482 5.38195e-06 -0.000652792)
(0.0735467 0.000109799 -0.000931237)
(0.0821092 0.000121357 -0.00120535)
(0.0810547 0.000133228 -0.00135194)
(0.0800383 0.000151502 -0.000916184)
(0.0792551 0.000206485 -0.000577488)
(0.0781406 0.000131595 -0.000546884)
(0.0773187 0.000210981 -3.64088e-05)
(0.0762368 0.000137562 -3.65523e-07)
(0.0751664 6.26773e-05 -0.000155476)
(0.0745008 9.16492e-05 1.51994e-05)
(0.0735637 -6.17316e-05 -0.000478983)
(0.0732805 8.67902e-05 -0.000607083)
(0.0733952 0.000128685 -0.000836521)
(0.0821155 5.42106e-05 -0.00123181)
(0.0809467 8.04313e-05 -0.00141758)
(0.0799743 8.88408e-05 -0.000932512)
(0.0791584 0.000120008 -0.000563055)
(0.078019 0.00011208 -0.00051337)
(0.0772424 0.000131994 1.47165e-05)
(0.0760748 0.000104241 4.75535e-05)
(0.0750261 7.37205e-05 -0.000112757)
(0.0743555 6.91806e-05 5.97467e-05)
(0.0733881 2.24117e-05 -0.000446441)
(0.0732136 0.00010285 -0.000564596)
(0.07332 0.000129574 -0.000780727)
(0.0821181 1.55492e-05 -0.00124345)
(0.0809016 2.92026e-05 -0.00144319)
(0.0799526 3.5236e-05 -0.000939086)
(0.0791101 4.29826e-05 -0.00055653)
(0.0779672 4.38493e-05 -0.000494872)
(0.0772051 4.42564e-05 3.95977e-05)
(0.0759878 3.32487e-05 6.96212e-05)
(0.0749523 2.42654e-05 -8.95671e-05)
(0.0742671 1.64053e-05 8.26204e-05)
(0.0732863 5.07188e-06 -0.000429049)
(0.0731706 3.04052e-05 -0.000540754)
(0.0732697 3.91539e-05 -0.000753751)
(0.0821181 -1.55521e-05 -0.00124347)
(0.0809016 -3.00054e-05 -0.00144323)
(0.0799526 -3.58784e-05 -0.000939171)
(0.0791101 -4.31407e-05 -0.000556562)
(0.0779672 -4.49674e-05 -0.000494949)
(0.0772049 -4.47124e-05 3.94586e-05)
(0.0759877 -3.42881e-05 6.95556e-05)
(0.0749521 -2.5883e-05 -8.9707e-05)
(0.0742668 -1.72493e-05 8.2471e-05)
(0.073286 -6.89814e-06 -0.00042913)
(0.0731701 -3.14194e-05 -0.000540971)
(0.0732692 -3.95911e-05 -0.000753855)
(0.0821154 -5.42026e-05 -0.00123185)
(0.0809468 -8.117e-05 -0.00141771)
(0.0799743 -8.93887e-05 -0.00093277)
(0.0791585 -0.000120103 -0.000563142)
(0.078019 -0.00011304 -0.000513572)
(0.0772419 -0.000132314 1.43002e-05)
(0.0760745 -0.000105124 4.73375e-05)
(0.0750254 -7.5076e-05 -0.000113253)
(0.0743547 -6.98062e-05 5.92818e-05)
(0.0733873 -2.39424e-05 -0.00044672)
(0.0732121 -0.000103526 -0.000565208)
(0.0733186 -0.000129773 -0.000781001)
(0.0821091 -0.000121324 -0.00120541)
(0.0810549 -0.000133858 -0.00135211)
(0.0800384 -0.000151838 -0.000916559)
(0.0792552 -0.000206456 -0.000577599)
(0.0781406 -0.000132218 -0.000547196)
(0.077318 -0.000210951 -3.70249e-05)
(0.0762363 -0.000138111 -6.77101e-07)
(0.0751654 -6.34631e-05 -0.00015616)
(0.0744995 -9.17916e-05 1.45477e-05)
(0.0735626 6.07869e-05 -0.000479319)
(0.0732785 -8.67655e-05 -0.000607919)
(0.0733932 -0.000128446 -0.000836844)
(0.0820986 -0.000218523 -0.00113813)
(0.0812203 -0.000143174 -0.00120989)
(0.0802125 -0.000125247 -0.000870588)
(0.0794694 -0.000283555 -0.000587833)
(0.0783991 -6.46356e-05 -0.000566281)
(0.0775103 -0.000272911 -9.82213e-05)
(0.0764648 -0.000168892 -7.21174e-05)
(0.0753809 2.92056e-05 -0.000201523)
(0.0746955 -0.000121883 -5.71786e-05)
(0.0737861 0.000223089 -0.000517858)
(0.073446 -4.54578e-06 -0.000653613)
(0.0735447 -0.000109218 -0.000931381)
(0.0821046 -0.000351002 -0.00108208)
(0.081336 -0.000165236 -0.00103098)
(0.0804343 -4.8156e-05 -0.000702501)
(0.0795975 -0.00019809 -0.000506556)
(0.0785779 0.000273295 -0.000429359)
(0.0778549 -8.14628e-05 -1.84779e-05)
(0.0766632 0.000100611 -8.66475e-05)
(0.075886 0.00040817 -0.00011096)
(0.0752935 5.91819e-05 -4.57075e-05)
(0.0743846 0.000657327 -0.000493589)
(0.0744888 0.000285533 -0.000565145)
(0.0744142 8.5672e-05 -0.000982675)
(0.0824158 -0.000360787 -0.000969419)
(0.0810435 -0.000184162 -0.00118467)
(0.0811862 6.3152e-05 -0.00059854)
(0.0802378 -0.000282039 -0.000718908)
(0.0796682 0.000305408 -0.000638166)
(0.0801256 -0.00010591 -0.000204708)
(0.0783017 -8.05091e-05 -0.000609545)
(0.0787993 0.000372071 -0.000384964)
(0.078444 -0.00013519 -0.000533716)
(0.0773516 0.000519342 -0.000943592)
(0.0793417 0.000209957 -0.000645495)
(0.0780771 -0.000187993 -0.00154153)
(0.0812794 -4.03414e-05 0.00141234)
(0.0804583 -0.000390749 0.00190303)
(0.0800728 -0.000397539 0.0025778)
(0.078074 -0.000180556 0.00260383)
(0.0765129 -0.000488034 0.00240347)
(0.075561 -7.99554e-06 0.00245962)
(0.0727342 -0.00022916 0.00198993)
(0.0721723 -0.000209655 0.00174179)
(0.0703321 7.03733e-05 0.00142691)
(0.0690225 -0.000450833 0.000680394)
(0.0694739 0.000141137 0.000515237)
(0.0676799 -0.000125656 -0.000494223)
(0.080071 4.99033e-06 0.00212511)
(0.0787286 -0.000196388 0.00231487)
(0.075062 9.39558e-05 0.002629)
(0.0719 0.000252173 0.00253873)
(0.0689341 8.65205e-05 0.00204968)
(0.0668664 0.000340212 0.00197041)
(0.0648407 8.90299e-05 0.00157376)
(0.0635832 3.97617e-05 0.00112495)
(0.0627406 6.45711e-05 0.000902641)
(0.0619744 -0.000377858 0.00013361)
(0.0621134 6.82321e-05 -0.000274219)
(0.0624027 -4.87469e-05 -0.000956172)
(0.0803273 6.12857e-05 0.00240004)
(0.0783494 -3.34046e-05 0.00246416)
(0.0748846 0.000315761 0.00279602)
(0.0715525 0.000522771 0.00265916)
(0.0684528 0.000492402 0.00214224)
(0.0662683 0.000631354 0.00202542)
(0.0643835 0.000434402 0.00164841)
(0.0629473 0.000309127 0.00114305)
(0.0621362 0.000245834 0.000853197)
(0.061386 -3.23815e-06 7.81814e-05)
(0.0612842 0.000243518 -0.000417871)
(0.0618277 0.000213759 -0.00105657)
(0.0803779 1.69128e-05 0.00262945)
(0.0780448 2.76291e-05 0.00265721)
(0.0746591 0.000266991 0.00304832)
(0.0712887 0.000419011 0.00289186)
(0.0682006 0.000457914 0.00234431)
(0.0661153 0.000508979 0.00222245)
(0.064303 0.000389331 0.00183038)
(0.0629222 0.0003077 0.00128832)
(0.0621473 0.000230844 0.000971192)
(0.0614521 0.000123077 0.000167779)
(0.0613915 0.00026454 -0.000345726)
(0.0619882 0.000276252 -0.000951125)
(0.0803792 1.60908e-05 0.00272537)
(0.0779219 4.09969e-05 0.00273685)
(0.0745611 0.000159095 0.00316058)
(0.0711465 0.000257148 0.00300168)
(0.0680593 0.000299021 0.00245427)
(0.066006 0.000313884 0.00232739)
(0.064186 0.000258379 0.00192153)
(0.0628528 0.000210827 0.0013661)
(0.0620982 0.000168814 0.00103059)
(0.0614504 0.000141558 0.000218916)
(0.061477 0.000217949 -0.000294906)
(0.0620984 0.000241462 -0.000884025)
(0.0803789 6.11951e-06 0.00277049)
(0.07789 1.95443e-05 0.00277417)
(0.0745398 5.73499e-05 0.00321074)
(0.0710975 8.90222e-05 0.00305199)
(0.068007 0.000103889 0.0025075)
(0.0659487 0.000104432 0.00237687)
(0.0641097 8.56405e-05 0.00196413)
(0.0627905 6.88721e-05 0.0014018)
(0.0620368 5.29731e-05 0.00105731)
(0.0614151 4.78884e-05 0.000241802)
(0.061494 7.25469e-05 -0.000270198)
(0.0621316 8.33642e-05 -0.00085167)
(0.0803789 -6.43598e-06 0.00277048)
(0.07789 -2.04706e-05 0.0027741)
(0.0745397 -5.7874e-05 0.00321063)
(0.0710975 -8.94965e-05 0.00305195)
(0.0680069 -0.000104789 0.00250744)
(0.0659484 -0.000105089 0.00237675)
(0.0641094 -8.68475e-05 0.00196404)
(0.06279 -7.00445e-05 0.00140162)
(0.0620362 -5.37374e-05 0.0010571)
(0.0614145 -4.89297e-05 0.000241635)
(0.0614932 -7.26767e-05 -0.000270447)
(0.0621309 -8.34744e-05 -0.000851833)
(0.0803791 -1.63602e-05 0.00272534)
(0.0779219 -4.18228e-05 0.00273663)
(0.074561 -0.00015951 0.00316027)
(0.0711464 -0.000257492 0.00300156)
(0.068059 -0.000299719 0.00245412)
(0.0660052 -0.000314334 0.00232704)
(0.0641852 -0.000259328 0.00192126)
(0.0628515 -0.000211677 0.00136559)
(0.0620967 -0.00016928 0.00103)
(0.0614488 -0.00014224 0.000218428)
(0.0614749 -0.000217735 -0.000295614)
(0.0620964 -0.0002413 -0.00088447)
(0.0803777 -1.71198e-05 0.0026294)
(0.0780447 -2.83102e-05 0.00265687)
(0.0746591 -0.000267194 0.00304787)
(0.0712887 -0.000419104 0.00289169)
(0.0682003 -0.00045819 0.0023441)
(0.0661142 -0.000508974 0.00222193)
(0.0643018 -0.000389756 0.00183)
(0.0629203 -0.00030787 0.00128758)
(0.062145 -0.000230715 0.000970361)
(0.0614498 -0.000123092 0.000167153)
(0.0613885 -0.000263655 -0.000346684)
(0.0619853 -0.000275616 -0.000951662)
(0.0803271 -6.13883e-05 0.00239999)
(0.0783493 3.28278e-05 0.00246373)
(0.0748847 -0.000315669 0.00279552)
(0.0715526 -0.000522591 0.002659)
(0.0684525 -0.000492249 0.00214199)
(0.0662671 -0.000630829 0.00202482)
(0.0643822 -0.000434335 0.00164802)
(0.0629451 -0.000308558 0.00114224)
(0.0621338 -0.000245139 0.000852354)
(0.0613836 3.84039e-06 7.76246e-05)
(0.0612811 -0.000241918 -0.000418795)
(0.0618249 -0.000212757 -0.0010569)
(0.0800708 -4.99644e-06 0.00212503)
(0.0787287 0.000196 0.00231438)
(0.0750621 -9.33282e-05 0.00262854)
(0.0719006 -0.000251519 0.00253883)
(0.0689338 -8.56563e-05 0.00204962)
(0.0668654 -0.000338974 0.00197006)
(0.0648399 -8.84743e-05 0.00157367)
(0.0635812 -3.84466e-05 0.00112426)
(0.0627391 -6.35309e-05 0.000902119)
(0.0619729 0.000378796 0.000133461)
(0.0621113 -6.60752e-05 -0.000274789)
(0.0624015 4.97444e-05 -0.000955785)
(0.0812801 4.04888e-05 0.00141234)
(0.0804582 0.000390105 0.00190254)
(0.0800719 0.000398219 0.00257778)
(0.0780757 0.000180938 0.00260464)
(0.0765126 0.000488705 0.00240396)
(0.0755624 9.21559e-06 0.00246006)
(0.0727361 0.000229228 0.00199044)
(0.0721721 0.000210752 0.00174154)
(0.0703347 -6.99545e-05 0.00142732)
(0.0690227 0.000451167 0.000680633)
(0.069475 -0.000139487 0.000515273)
(0.0676834 0.00012565 -0.000492726)
(0.00667057 0.0062268 -0.000406686)
(0.0122753 0.00337164 0.000110068)
(0.0193758 0.00226414 0.000142449)
(0.0246738 0.00123398 0.000672862)
(0.0297484 0.000585006 0.00089541)
(0.033608 0.000282528 0.00124944)
(0.0364551 5.12603e-05 0.00113702)
(0.0393218 -2.85661e-05 0.00104533)
(0.0412684 -0.000387496 0.000759359)
(0.0433844 -0.000276073 0.000173623)
(0.0452651 -6.65493e-05 -0.000148441)
(0.0467328 -0.000272383 -0.00125766)
(0.016087 0.00609041 0.000423358)
(0.0240226 0.00400391 0.00159233)
(0.0325849 0.00295547 0.00163355)
(0.0371371 0.00187837 0.0018591)
(0.0402338 0.00111605 0.00162086)
(0.0422483 0.000759654 0.00162644)
(0.043418 0.000300106 0.00129093)
(0.0445076 9.92668e-05 0.000906705)
(0.0454068 -0.000136988 0.000559909)
(0.0461532 -0.000198264 -0.000233007)
(0.047351 0.00020813 -0.000791164)
(0.0487467 0.000343824 -0.00176351)
(0.0165944 0.00357701 0.000377354)
(0.0251444 0.00282951 0.00166515)
(0.0338322 0.002413 0.00186412)
(0.0387089 0.00184781 0.00207541)
(0.0417444 0.00136188 0.00189511)
(0.0438422 0.00102916 0.00185366)
(0.0449491 0.000615537 0.00149519)
(0.0457891 0.000368469 0.00101649)
(0.0465349 0.000167218 0.00059639)
(0.0470947 0.000130603 -0.000216385)
(0.0480946 0.000384151 -0.000876286)
(0.0495754 0.00054086 -0.00177911)
(0.016776 0.00222752 0.00035977)
(0.0254001 0.00190197 0.00169534)
(0.0341706 0.00168468 0.00199856)
(0.0391283 0.00135211 0.00225994)
(0.042257 0.00106147 0.00213523)
(0.0444487 0.000816715 0.00210396)
(0.0455917 0.000539167 0.00173277)
(0.0464292 0.000366993 0.00120932)
(0.047173 0.00023818 0.000755197)
(0.0477631 0.000225664 -7.42559e-05)
(0.0487643 0.000387584 -0.000760266)
(0.0503046 0.000514431 -0.00162848)
(0.0167837 0.00112428 0.000341677)
(0.0253824 0.00102126 0.00169621)
(0.0342275 0.000942471 0.00202171)
(0.0391916 0.000801254 0.00231922)
(0.042397 0.000656709 0.00223758)
(0.0446186 0.000512859 0.00221454)
(0.0457757 0.000365125 0.00184031)
(0.0466437 0.000269811 0.00130387)
(0.0474141 0.000210778 0.000835803)
(0.0480598 0.000220304 5.28961e-06)
(0.0491096 0.000304259 -0.000681026)
(0.0506974 0.000377489 -0.00152874)
(0.0167577 0.000359057 0.000335177)
(0.0253266 0.000332819 0.00169853)
(0.03421 0.000310465 0.00203108)
(0.0391719 0.000267313 0.00234457)
(0.0424118 0.00022068 0.00228095)
(0.0446391 0.000171625 0.00225993)
(0.0457983 0.000122909 0.00188343)
(0.0466803 9.10786e-05 0.00133985)
(0.0474662 7.25202e-05 0.000867225)
(0.0481505 7.76681e-05 3.78927e-05)
(0.0492381 0.000105166 -0.000644773)
(0.0508542 0.000129979 -0.00148252)
(0.0167576 -0.000360606 0.000335178)
(0.0253265 -0.00033411 0.00169845)
(0.0342098 -0.00031125 0.00203098)
(0.0391717 -0.000268181 0.00234451)
(0.0424115 -0.000221603 0.00228086)
(0.0446387 -0.000172414 0.00225978)
(0.0457978 -0.000123869 0.00188328)
(0.0466797 -9.16404e-05 0.00133963)
(0.0474656 -7.26975e-05 0.000866982)
(0.0481498 -7.76327e-05 3.76751e-05)
(0.0492373 -0.000104507 -0.000645047)
(0.0508533 -0.000129655 -0.00148274)
(0.0167835 -0.00112568 0.00034168)
(0.025382 -0.00102236 0.00169595)
(0.0342269 -0.000943007 0.00202142)
(0.0391911 -0.000801825 0.00231904)
(0.0423962 -0.000657291 0.00223734)
(0.0446176 -0.000513299 0.00221413)
(0.0457745 -0.000365701 0.00183989)
(0.0466421 -0.000269987 0.00130323)
(0.0474123 -0.000210607 0.000835099)
(0.0480578 -0.000219915 4.65858e-06)
(0.0491072 -0.000303305 -0.000681806)
(0.050695 -0.000376916 -0.00152934)
(0.0167756 -0.00222855 0.000359776)
(0.0253994 -0.00190264 0.00169493)
(0.0341697 -0.00168473 0.00199809)
(0.0391275 -0.00135212 0.00225967)
(0.0422558 -0.00106138 0.00213489)
(0.0444472 -0.00081647 0.00210339)
(0.0455899 -0.000538992 0.00173219)
(0.0464268 -0.000366399 0.00120839)
(0.0471704 -0.000237345 0.000754218)
(0.0477603 -0.000224607 -7.50922e-05)
(0.048761 -0.000386093 -0.000761307)
(0.0503014 -0.000513429 -0.00162922)
(0.016594 -0.00357763 0.000377386)
(0.0251435 -0.00282961 0.0016646)
(0.0338311 -0.00241238 0.00186347)
(0.0387081 -0.00184717 0.00207509)
(0.0417431 -0.00136105 0.00189474)
(0.0438407 -0.00102817 0.00185302)
(0.0449474 -0.000614569 0.00149461)
(0.0457867 -0.000367098 0.00101549)
(0.0465323 -0.000165786 0.000595446)
(0.047092 -0.000128909 -0.000217097)
(0.0480914 -0.000382163 -0.000877237)
(0.0495724 -0.000539435 -0.00177958)
(0.0160866 -0.00609036 0.00042336)
(0.0240218 -0.0040032 0.00159171)
(0.0325846 -0.00295415 0.00163301)
(0.0371371 -0.00187714 0.00185911)
(0.0402335 -0.00111445 0.00162082)
(0.0422478 -0.000758032 0.00162617)
(0.0434176 -0.000298567 0.00129083)
(0.0445066 -9.72836e-05 0.000906103)
(0.045406 0.000138684 0.000559553)
(0.0461523 0.000200254 -0.00023316)
(0.0473499 -0.000205918 -0.000791538)
(0.0487461 -0.000342271 -0.00176313)
(0.00667093 -0.00622635 -0.000406553)
(0.0122755 -0.00337082 0.000109629)
(0.0193776 -0.00226299 0.000142511)
(0.0246764 -0.00123286 0.000673624)
(0.0297509 -0.000583579 0.000896246)
(0.0336116 -0.000281139 0.00125034)
(0.0364585 -4.97888e-05 0.00113798)
(0.0393253 2.98876e-05 0.00104581)
(0.0412728 0.000388529 0.000760303)
(0.0433883 0.000277895 0.000174345)
(0.0452703 6.77416e-05 -0.000147617)
(0.0467384 0.000273835 -0.0012559)
(-0.00565053 0.000873293 -0.012941)
(-0.00360032 0.00193128 -0.00773496)
(-0.000887422 0.00113185 -0.00557811)
(0.00302421 0.000455749 -0.00395993)
(0.00729533 0.000241365 -0.00254329)
(0.011404 2.9667e-05 -0.00146609)
(0.0152485 -0.000213311 -0.000989095)
(0.0190096 -0.000344768 -0.000607378)
(0.0222334 -0.000221014 -0.000541606)
(0.025179 3.754e-05 -0.00095918)
(0.0284744 0.000156137 -0.00128692)
(0.0314367 0.00109038 -0.00236726)
(-0.00455837 0.00257064 -0.0143031)
(0.00288979 0.00366947 -0.00571904)
(0.00912914 0.00255659 -0.00324894)
(0.0145331 0.00158238 -0.00165488)
(0.0190827 0.000978949 -0.00071192)
(0.0227491 0.000539075 -8.4482e-05)
(0.0256496 0.00012049 4.90077e-05)
(0.028157 -8.36882e-05 -6.24037e-05)
(0.0303296 -0.000117473 -0.000338323)
(0.032316 0.000136155 -0.00101781)
(0.0346278 0.000560377 -0.00179456)
(0.037255 0.00121843 -0.00297858)
(-0.00347291 0.00229285 -0.0143535)
(0.00555466 0.00297147 -0.0051523)
(0.0118986 0.00228889 -0.00250333)
(0.0176233 0.00169074 -0.000973018)
(0.0220901 0.00117239 -0.000118765)
(0.0256563 0.000757101 0.00041243)
(0.0283962 0.000390557 0.000449702)
(0.0306639 0.000185999 0.000234802)
(0.0326227 0.00015127 -0.000129335)
(0.034417 0.000337368 -0.000895192)
(0.0365808 0.000654125 -0.00175478)
(0.0392535 0.00109117 -0.00292052)
(-0.0031835 0.0016829 -0.0147826)
(0.00628504 0.00217793 -0.00517445)
(0.0126922 0.00182323 -0.00225007)
(0.0186199 0.00141746 -0.000611859)
(0.0231787 0.00103299 0.000271809)
(0.0268091 0.000701823 0.000792588)
(0.0295703 0.000429578 0.0007994)
(0.0318294 0.000276608 0.00053286)
(0.0337795 0.000233754 0.000123601)
(0.0355805 0.000347078 -0.000675333)
(0.0377298 0.000554597 -0.0015791)
(0.0404356 0.00079799 -0.00273644)
(-0.00305712 0.000950518 -0.0149554)
(0.00642948 0.00122261 -0.00525787)
(0.0128883 0.00109088 -0.0022176)
(0.0188919 0.00088538 -0.000505993)
(0.0235238 0.000671322 0.000417238)
(0.0272112 0.000479792 0.00094914)
(0.0300141 0.000327105 0.000956807)
(0.0323131 0.000242498 0.000676596)
(0.0342988 0.000223993 0.000252525)
(0.0361412 0.000285826 -0.000555662)
(0.0383166 0.000390271 -0.00146668)
(0.0410507 0.000503083 -0.00261772)
(-0.00300602 0.000317006 -0.0150246)
(0.00642854 0.000403398 -0.00531666)
(0.0129061 0.000368147 -0.00223297)
(0.0189309 0.000301519 -0.000481778)
(0.0235955 0.00023089 0.000464834)
(0.0273105 0.00016672 0.00100398)
(0.0301371 0.000115655 0.00101658)
(0.0324623 8.70985e-05 0.000732495)
(0.0344773 8.08421e-05 0.000304462)
(0.0363547 0.000100619 -0.000503931)
(0.0385551 0.000133522 -0.00141559)
(0.0413083 0.00016704 -0.002563)
(-0.00300604 -0.000318554 -0.0150246)
(0.0064284 -0.000404635 -0.00531678)
(0.0129059 -0.000368979 -0.00223314)
(0.0189306 -0.00030232 -0.000481928)
(0.0235951 -0.000231455 0.000464671)
(0.0273101 -0.000167049 0.00100378)
(0.0301366 -0.00011575 0.00101637)
(0.0324617 -8.66707e-05 0.000732228)
(0.0344766 -8.00661e-05 0.000304177)
(0.036354 -9.96187e-05 -0.00050421)
(0.0385543 -0.000132413 -0.0014159)
(0.0413074 -0.00016657 -0.00256327)
(-0.00305718 -0.000951823 -0.0149554)
(0.00642906 -0.00122355 -0.00525825)