/*--------------------------------*- C++ -*----------------------------------*\
| =========                 |                                                 |
| \\      /  F ield         | OpenFOAM: The Open Source CFD Toolbox           |
|  \\    /   O peration     | Version:  2.3.1                                 |
|   \\  /    A nd           | Web:      www.OpenFOAM.org                      |
|    \\/     M anipulation  |                                                 |
\*---------------------------------------------------------------------------*/
FoamFile
{
    version     2.0;
    format      ascii;
    class       volScalarField;
    location    "15";
    object      epsilon_0;
}
// * * * * * * * * * * * * * * * * * * * * * * * * * * * * * * * * * * * * * //

dimensions      [0 2 -3 0 0 0 0];

internalField   nonuniform List<scalar> 
37784
(
1.02786e-06
9.90744e-07
9.65047e-07
9.4594e-07
9.28174e-07
9.01621e-07
8.40194e-07
6.98307e-07
4.10138e-07
9.51223e-07
9.10875e-07
8.81368e-07
8.59994e-07
8.43986e-07
8.29246e-07
8.06781e-07
7.5377e-07
6.25652e-07
3.8935e-07
7.34279e-07
7.01956e-07
6.77723e-07
6.6012e-07
6.47259e-07
6.368e-07
6.23799e-07
5.93979e-07
5.1942e-07
3.72895e-07
3.71586e-07
3.55938e-07
3.44409e-07
3.36234e-07
3.30483e-07
3.26401e-07
3.23095e-07
3.19129e-07
3.1496e-07
3.33871e-07
6.36359e-07
6.10648e-07
5.95624e-07
5.86241e-07
5.79301e-07
5.7124e-07
5.54553e-07
5.17363e-07
4.98022e-07
6.08156e-07
5.86624e-07
5.72399e-07
5.63044e-07
5.56703e-07
5.51591e-07
5.44699e-07
5.28666e-07
4.8872e-07
4.31228e-07
5.2565e-07
5.14289e-07
5.06101e-07
5.00437e-07
4.96491e-07
4.93234e-07
4.88683e-07
4.77076e-07
4.45808e-07
3.98921e-07
4.46881e-07
4.36153e-07
4.28019e-07
4.22136e-07
4.17906e-07
4.14597e-07
4.1078e-07
4.0247e-07
3.82175e-07
3.49251e-07
5.60882e-07
5.371e-07
5.24231e-07
5.17021e-07
5.12888e-07
5.10345e-07
5.08121e-07
5.10839e-07
6.60918e-07
5.52192e-07
5.3316e-07
5.21396e-07
5.14258e-07
5.09939e-07
5.07169e-07
5.04792e-07
5.0066e-07
4.92891e-07
5.37639e-07
5.20368e-07
5.1114e-07
5.04817e-07
5.00691e-07
4.97984e-07
4.95913e-07
4.93143e-07
4.8621e-07
4.69104e-07
4.80874e-07
6.00579e-07
5.84875e-07
5.72451e-07
5.63041e-07
5.55946e-07
5.49966e-07
5.42342e-07
5.25358e-07
4.83602e-07
4.04187e-07
5.27572e-07
5.04884e-07
4.92744e-07
4.86252e-07
4.83385e-07
4.83969e-07
4.90148e-07
5.1669e-07
7.74428e-07
5.30406e-07
5.12508e-07
5.01516e-07
4.94998e-07
4.91447e-07
4.89864e-07
4.90049e-07
4.92722e-07
5.03195e-07
6.04684e-07
5.27362e-07
5.18408e-07
5.12584e-07
5.09031e-07
5.06839e-07
5.05308e-07
5.03479e-07
4.99117e-07
4.89363e-07
5.25537e-07
7.00529e-07
6.81232e-07
6.65735e-07
6.53785e-07
6.44525e-07
6.3625e-07
6.24805e-07
5.99022e-07
5.3737e-07
4.24541e-07
5.04147e-07
4.83382e-07
4.72025e-07
4.66163e-07
4.64393e-07
4.67334e-07
4.79289e-07
5.21525e-07
8.49647e-07
5.15428e-07
4.98816e-07
4.88449e-07
4.82632e-07
4.79764e-07
4.79032e-07
4.81084e-07
4.88358e-07
5.10471e-07
6.47166e-07
5.31474e-07
5.23339e-07
5.182e-07
5.15013e-07
5.13082e-07
5.11841e-07
5.10561e-07
5.0764e-07
5.01869e-07
5.50544e-07
7.66806e-07
7.45421e-07
7.28062e-07
7.14491e-07
7.03711e-07
6.93547e-07
6.78605e-07
6.44989e-07
5.67317e-07
4.32281e-07
4.849e-07
4.66528e-07
4.56232e-07
4.51253e-07
4.5053e-07
4.55405e-07
4.71562e-07
5.24038e-07
8.9466e-07
5.02361e-07
4.87419e-07
4.78238e-07
4.73262e-07
4.7095e-07
4.70948e-07
4.7446e-07
4.8499e-07
5.14623e-07
6.73423e-07
5.32838e-07
5.25751e-07
5.21128e-07
5.18229e-07
5.16499e-07
5.15475e-07
5.14578e-07
5.12543e-07
5.08969e-07
5.64716e-07
8.10085e-07
7.87877e-07
7.69664e-07
7.55222e-07
7.43463e-07
7.31817e-07
7.13892e-07
6.73859e-07
5.84362e-07
4.35629e-07
4.68568e-07
4.52772e-07
4.43845e-07
4.3984e-07
4.40118e-07
4.46646e-07
4.65934e-07
5.24731e-07
9.14477e-07
4.90627e-07
4.77773e-07
4.70021e-07
4.6586e-07
4.6407e-07
4.64724e-07
4.69411e-07
4.82274e-07
5.16657e-07
6.8846e-07
5.32531e-07
5.26418e-07
5.22279e-07
5.19658e-07
5.18111e-07
5.17266e-07
5.16646e-07
5.15164e-07
5.12797e-07
5.72603e-07
8.36932e-07
8.14885e-07
7.96601e-07
7.81884e-07
7.69599e-07
7.56865e-07
7.36556e-07
6.91598e-07
5.93938e-07
4.37354e-07
4.54842e-07
4.41575e-07
4.34187e-07
4.31159e-07
4.32382e-07
4.40347e-07
4.62004e-07
5.24193e-07
9.11838e-07
4.80338e-07
4.69842e-07
4.63515e-07
4.60086e-07
4.58792e-07
4.60036e-07
4.65678e-07
4.80208e-07
5.1737e-07
6.95495e-07
5.31391e-07
5.26106e-07
5.22436e-07
5.20093e-07
5.18725e-07
5.18036e-07
5.17624e-07
5.16483e-07
5.14736e-07
5.76735e-07
8.52083e-07
8.30895e-07
8.13114e-07
7.98578e-07
7.86133e-07
7.72676e-07
7.50576e-07
7.02041e-07
5.99076e-07
4.38383e-07
4.43557e-07
4.32714e-07
4.26806e-07
4.24689e-07
4.26794e-07
4.3601e-07
4.5949e-07
5.22838e-07
8.88319e-07
4.71851e-07
4.63548e-07
4.58473e-07
4.55716e-07
4.54883e-07
4.56647e-07
4.63063e-07
4.78763e-07
5.17285e-07
6.96597e-07
5.29865e-07
5.25322e-07
5.22127e-07
5.20055e-07
5.18857e-07
5.18304e-07
5.18051e-07
5.17112e-07
5.15608e-07
5.78602e-07
8.59156e-07
8.39271e-07
8.22378e-07
8.08349e-07
7.96026e-07
7.82162e-07
7.58796e-07
7.07797e-07
6.01582e-07
4.39058e-07
4.34482e-07
4.25893e-07
4.21317e-07
4.20006e-07
4.22909e-07
4.33201e-07
4.58099e-07
5.21128e-07
8.41228e-07
4.65182e-07
4.58756e-07
4.54691e-07
4.5253e-07
4.5211e-07
4.5432e-07
4.61356e-07
4.7785e-07
5.1675e-07
6.9373e-07
5.28305e-07
5.24423e-07
5.21647e-07
5.19836e-07
5.18799e-07
5.18364e-07
5.18229e-07
5.17395e-07
5.15896e-07
5.79131e-07
8.60866e-07
8.42549e-07
8.26773e-07
8.13461e-07
8.01466e-07
7.87447e-07
7.63247e-07
7.10634e-07
6.02552e-07
4.39525e-07
8.61471e-07
8.324e-07
8.12881e-07
7.98782e-07
7.84859e-07
7.61993e-07
7.12081e-07
6.05864e-07
4.43853e-07
6.8396e-07
6.14179e-07
5.73545e-07
5.50528e-07
5.37543e-07
5.29889e-07
5.24011e-07
5.18006e-07
5.86558e-07
5.87273e-07
5.2878e-07
4.9484e-07
4.76152e-07
4.67793e-07
4.68386e-07
4.80552e-07
5.15498e-07
6.99656e-07
5.31795e-07
4.80339e-07
4.51606e-07
4.36546e-07
4.31609e-07
4.37175e-07
4.59295e-07
5.179e-07
7.88489e-07
4.90972e-07
4.47617e-07
4.24369e-07
4.13003e-07
4.10978e-07
4.19775e-07
4.46703e-07
5.18491e-07
4.55462e-07
4.24555e-07
4.07855e-07
4.00227e-07
4.00633e-07
4.11575e-07
4.41174e-07
5.22412e-07
4.31094e-07
4.11484e-07
4.00697e-07
3.96268e-07
3.98495e-07
4.10627e-07
4.41118e-07
5.24748e-07
4.21461e-07
4.09659e-07
4.02985e-07
4.00763e-07
4.04067e-07
4.16404e-07
4.45869e-07
5.22855e-07
4.27455e-07
4.20788e-07
4.17333e-07
4.16726e-07
4.20327e-07
4.31507e-07
4.57458e-07
5.19523e-07
7.8185e-07
4.60147e-07
4.55188e-07
4.51955e-07
4.50294e-07
4.50236e-07
4.52817e-07
4.60333e-07
4.7734e-07
5.16019e-07
6.88456e-07
5.26895e-07
5.23575e-07
5.21175e-07
5.19594e-07
5.18697e-07
5.18362e-07
5.18311e-07
5.17514e-07
5.1589e-07
5.78971e-07
8.59296e-07
8.42539e-07
8.28022e-07
8.15553e-07
8.0402e-07
7.90039e-07
7.65339e-07
7.11733e-07
6.02646e-07
4.3986e-07
8.48492e-07
8.26469e-07
8.10759e-07
7.98374e-07
7.85282e-07
7.62449e-07
7.11945e-07
6.05391e-07
4.43984e-07
6.38669e-07
5.91599e-07
5.62484e-07
5.4505e-07
5.34783e-07
5.28487e-07
5.23293e-07
5.17557e-07
5.85272e-07
5.51978e-07
5.1015e-07
4.8491e-07
4.707e-07
4.64723e-07
4.66727e-07
4.79847e-07
5.1481e-07
6.95277e-07
5.00737e-07
4.63927e-07
4.42438e-07
4.31127e-07
4.28306e-07
4.35383e-07
4.58583e-07
5.15902e-07
7.6358e-07
4.64208e-07
4.33496e-07
4.16197e-07
4.0789e-07
4.0772e-07
4.18169e-07
4.46926e-07
5.18284e-07
8.40701e-07
4.35792e-07
4.13495e-07
4.01009e-07
3.95658e-07
3.97624e-07
4.10215e-07
4.41957e-07
5.21371e-07
8.82494e-07
4.17981e-07
4.03393e-07
3.95259e-07
3.92377e-07
3.95843e-07
4.0944e-07
4.41933e-07
5.22387e-07
8.77764e-07
4.12954e-07
4.03844e-07
3.98802e-07
3.97627e-07
4.01863e-07
4.15344e-07
4.46336e-07
5.2068e-07
8.32938e-07
4.22181e-07
4.17078e-07
4.14512e-07
4.14511e-07
4.18696e-07
4.30564e-07
4.57123e-07
5.17233e-07
7.54053e-07
4.56491e-07
4.52597e-07
4.50047e-07
4.4879e-07
4.49039e-07
4.51915e-07
4.59789e-07
4.77096e-07
5.15337e-07
6.84746e-07
5.2571e-07
5.22855e-07
5.20774e-07
5.19392e-07
5.18615e-07
5.1836e-07
5.18366e-07
5.17565e-07
5.15784e-07
5.78614e-07
8.55893e-07
8.40724e-07
8.27349e-07
8.15752e-07
8.04772e-07
7.90969e-07
7.66015e-07
7.11849e-07
6.0231e-07
4.40109e-07
8.3775e-07
8.20691e-07
8.07887e-07
7.97254e-07
7.84845e-07
7.62139e-07
7.11348e-07
6.0467e-07
4.44016e-07
6.07265e-07
5.74878e-07
5.53758e-07
5.40499e-07
5.32389e-07
5.27228e-07
5.22623e-07
5.17122e-07
5.83936e-07
5.2565e-07
4.95777e-07
4.77068e-07
4.66377e-07
4.62337e-07
4.65529e-07
4.79385e-07
5.14302e-07
6.91747e-07
4.77692e-07
4.51278e-07
4.35276e-07
4.26955e-07
4.25878e-07
4.3421e-07
4.58171e-07
5.14407e-07
7.51281e-07
4.44699e-07
4.2273e-07
4.09914e-07
4.04056e-07
4.05425e-07
4.17175e-07
4.46889e-07
5.15621e-07
7.91647e-07
4.21276e-07
4.05073e-07
3.95825e-07
3.92312e-07
3.95583e-07
4.09414e-07
4.42117e-07
5.17084e-07
8.0948e-07
4.08112e-07
3.97249e-07
3.91208e-07
3.89601e-07
3.941e-07
4.08777e-07
4.42096e-07
5.17446e-07
8.05986e-07
4.06482e-07
3.99485e-07
3.95776e-07
3.95475e-07
4.00476e-07
4.14791e-07
4.46411e-07
5.1681e-07
7.84495e-07
4.18314e-07
4.14438e-07
4.12565e-07
4.13075e-07
4.17727e-07
4.30101e-07
4.56978e-07
5.15516e-07
7.41979e-07
4.5385e-07
4.50768e-07
4.48758e-07
4.47827e-07
4.48324e-07
4.5143e-07
4.59556e-07
4.77026e-07
5.14877e-07
6.8246e-07
5.24744e-07
5.22277e-07
5.20463e-07
5.19246e-07
5.18567e-07
5.18375e-07
5.18418e-07
5.17593e-07
5.15666e-07
5.78264e-07
8.51445e-07
8.37766e-07
8.2563e-07
8.1489e-07
8.04448e-07
7.90904e-07
7.65879e-07
7.1148e-07
6.01756e-07
4.40298e-07
8.28854e-07
8.15443e-07
8.04929e-07
7.95655e-07
7.83978e-07
7.61462e-07
7.10471e-07
6.0389e-07
4.43963e-07
5.85131e-07
5.62411e-07
5.46902e-07
5.36761e-07
5.30355e-07
5.2613e-07
5.22027e-07
5.16744e-07
5.82627e-07
5.06231e-07
4.84814e-07
4.70939e-07
4.62976e-07
4.60488e-07
4.64662e-07
4.79093e-07
5.1398e-07
6.88877e-07
4.60672e-07
4.41613e-07
4.29731e-07
4.23765e-07
4.24101e-07
4.33452e-07
4.5797e-07
5.13509e-07
7.446e-07
4.30427e-07
4.14568e-07
4.05126e-07
4.01197e-07
4.03825e-07
4.16576e-07
4.4684e-07
5.13541e-07
7.73231e-07
4.10567e-07
3.9871e-07
3.91933e-07
3.89885e-07
3.94219e-07
4.08972e-07
4.42134e-07
5.13942e-07
7.83534e-07
4.00743e-07
3.92628e-07
3.88216e-07
3.87647e-07
3.92983e-07
4.08445e-07
4.42123e-07
5.14245e-07
7.80963e-07
4.01596e-07
3.96285e-07
3.93613e-07
3.94033e-07
3.99642e-07
4.14552e-07
4.46449e-07
5.14453e-07
7.67116e-07
4.15539e-07
4.12581e-07
4.11257e-07
4.12181e-07
4.17195e-07
4.2993e-07
4.56979e-07
5.14567e-07
7.36527e-07
4.51968e-07
4.49507e-07
4.47917e-07
4.47245e-07
4.47933e-07
4.51212e-07
4.59511e-07
4.77061e-07
5.14649e-07
6.81007e-07
5.23975e-07
5.21825e-07
5.20232e-07
5.1915e-07
5.18553e-07
5.18412e-07
5.18475e-07
5.17616e-07
5.15576e-07
5.77958e-07
8.46643e-07
8.34315e-07
8.23276e-07
8.13387e-07
8.03545e-07
7.90315e-07
7.65333e-07
7.10849e-07
6.01135e-07
4.40432e-07
8.21563e-07
8.10859e-07
8.0213e-07
7.93973e-07
7.82892e-07
7.60582e-07
7.09521e-07
6.03097e-07
4.43836e-07
5.69281e-07
5.53049e-07
5.41516e-07
5.33712e-07
5.28642e-07
5.25184e-07
5.21508e-07
5.16428e-07
5.81364e-07
4.91963e-07
4.76488e-07
4.6617e-07
4.6031e-07
4.59051e-07
4.64026e-07
4.78913e-07
5.13801e-07
6.86453e-07
4.48116e-07
4.34259e-07
4.25462e-07
4.21323e-07
4.22799e-07
4.32959e-07
4.5791e-07
5.13066e-07
7.40367e-07
4.1995e-07
4.08398e-07
4.0149e-07
3.99065e-07
4.02711e-07
4.16228e-07
4.4687e-07
5.12465e-07
7.65007e-07
4.02657e-07
3.93922e-07
3.89019e-07
3.88128e-07
3.93314e-07
4.08756e-07
4.42205e-07
5.12389e-07
7.73099e-07
3.95252e-07
3.89175e-07
3.8601e-07
3.86282e-07
3.92281e-07
4.08317e-07
4.42208e-07
5.12713e-07
7.712e-07
3.97957e-07
3.93955e-07
3.92084e-07
3.93083e-07
3.99165e-07
4.14502e-07
4.46556e-07
5.13369e-07
7.60121e-07
4.13554e-07
4.11292e-07
4.10398e-07
4.11647e-07
4.16938e-07
4.29927e-07
4.57079e-07
5.14168e-07
7.33691e-07
4.50643e-07
4.48652e-07
4.47387e-07
4.46915e-07
4.47751e-07
4.51156e-07
4.59567e-07
4.7716e-07
5.14581e-07
6.80033e-07
5.23368e-07
5.21477e-07
5.20061e-07
5.19093e-07
5.18566e-07
5.18463e-07
5.18534e-07
5.17641e-07
5.15514e-07
5.77679e-07
8.41825e-07
8.30706e-07
8.20676e-07
8.11572e-07
8.02286e-07
7.894e-07
7.6454e-07
7.1011e-07
6.00487e-07
4.40513e-07
8.15616e-07
8.0693e-07
7.99594e-07
7.92342e-07
7.81772e-07
7.59652e-07
7.0856e-07
6.02302e-07
4.43637e-07
5.5776e-07
5.45957e-07
5.37278e-07
5.31228e-07
5.27207e-07
5.24376e-07
5.21063e-07
5.16167e-07
5.80151e-07
4.8146e-07
4.70162e-07
4.62463e-07
4.58212e-07
4.57927e-07
4.63548e-07
4.78807e-07
5.13718e-07
6.84331e-07
4.38831e-07
4.28664e-07
4.22175e-07
4.19442e-07
4.21836e-07
4.3263e-07
4.57934e-07
5.12899e-07
7.37284e-07
4.12222e-07
4.03731e-07
3.98722e-07
3.97467e-07
4.01925e-07
4.16035e-07
4.46976e-07
5.12058e-07
7.6056e-07
3.96794e-07
3.90321e-07
3.86826e-07
3.86852e-07
3.92712e-07
4.08675e-07
4.42351e-07
5.11825e-07
7.682e-07
3.91149e-07
3.86597e-07
3.84379e-07
3.85326e-07
3.91845e-07
4.08306e-07
4.42365e-07
5.12159e-07
7.66685e-07
3.95271e-07
3.92259e-07
3.91006e-07
3.92463e-07
3.9891e-07
4.14552e-07
4.46725e-07
5.13002e-07
7.56765e-07
4.12135e-07
4.10402e-07
4.09846e-07
4.11346e-07
4.16843e-07
4.30011e-07
4.57236e-07
5.14082e-07
7.32004e-07
4.49715e-07
4.48082e-07
4.47066e-07
4.46746e-07
4.47696e-07
4.5119e-07
4.59676e-07
4.77286e-07
5.14607e-07
6.79294e-07
5.22887e-07
5.21207e-07
5.19934e-07
5.19064e-07
5.18594e-07
5.18519e-07
5.18593e-07
5.17668e-07
5.15472e-07
5.77401e-07
8.37179e-07
8.27132e-07
8.18012e-07
8.09629e-07
8.00873e-07
7.88333e-07
7.6364e-07
7.09323e-07
5.99825e-07
4.40537e-07
8.1076e-07
8.03589e-07
7.97341e-07
7.90819e-07
7.80675e-07
7.58718e-07
7.07612e-07
6.01503e-07
4.43376e-07
5.49264e-07
5.40535e-07
5.33928e-07
5.29203e-07
5.26007e-07
5.23687e-07
5.20681e-07
5.15951e-07
5.78982e-07
4.73683e-07
4.6534e-07
4.59579e-07
4.56549e-07
4.57042e-07
4.63179e-07
4.78746e-07
5.13702e-07
6.82437e-07
4.31927e-07
4.24397e-07
4.19632e-07
4.17982e-07
4.21108e-07
4.32407e-07
4.58005e-07
5.12934e-07
7.35015e-07
4.06482e-07
4.0019e-07
3.96599e-07
3.96256e-07
4.01358e-07
4.15933e-07
4.47126e-07
5.12059e-07
7.57935e-07
3.9242e-07
3.87606e-07
3.8516e-07
3.85914e-07
3.92304e-07
4.08668e-07
4.42541e-07
5.11758e-07
7.65441e-07
3.88072e-07
3.8466e-07
3.83168e-07
3.84648e-07
3.91573e-07
4.08355e-07
4.42562e-07
5.12086e-07
7.64175e-07
3.93285e-07
3.91019e-07
3.90244e-07
3.92058e-07
3.98785e-07
4.14654e-07
4.46925e-07
5.12985e-07
7.5483e-07
4.1112e-07
4.0979e-07
4.09493e-07
4.11187e-07
4.1684e-07
4.30135e-07
4.57413e-07
5.1415e-07
7.30868e-07
4.49064e-07
4.47707e-07
4.46877e-07
4.46679e-07
4.47713e-07
4.51272e-07
4.59806e-07
4.77422e-07
5.14684e-07
6.78674e-07
5.22499e-07
5.2099e-07
5.19841e-07
5.19053e-07
5.1863e-07
5.18577e-07
5.1865e-07
5.17696e-07
5.15444e-07
5.77103e-07
8.32797e-07
8.23694e-07
8.15387e-07
8.07661e-07
7.99399e-07
7.87196e-07
7.62688e-07
7.0851e-07
5.99151e-07
4.40506e-07
8.06776e-07
8.00751e-07
7.95354e-07
7.89417e-07
7.79622e-07
7.57796e-07
7.06684e-07
6.00657e-07
4.43098e-07
5.42913e-07
5.36351e-07
5.31262e-07
5.27546e-07
5.25001e-07
5.23097e-07
5.20352e-07
5.15801e-07
5.78056e-07
4.67878e-07
4.61641e-07
4.57322e-07
4.55221e-07
4.56335e-07
4.62889e-07
4.78717e-07
5.13788e-07
6.81021e-07
4.26757e-07
4.21126e-07
4.1765e-07
4.16837e-07
4.20547e-07
4.32252e-07
4.581e-07
5.13104e-07
7.33394e-07
4.02182e-07
3.97491e-07
3.94949e-07
3.95328e-07
4.00939e-07
4.15882e-07
4.47293e-07
5.1223e-07
7.56141e-07
3.89129e-07
3.85541e-07
3.83885e-07
3.85213e-07
3.9202e-07
4.08697e-07
4.42743e-07
5.11901e-07
7.63626e-07
3.85749e-07
3.83191e-07
3.82257e-07
3.84158e-07
3.91402e-07
4.08431e-07
4.42769e-07
5.12216e-07
7.62543e-07
3.9181e-07
3.90103e-07
3.89699e-07
3.91793e-07
3.98735e-07
4.14772e-07
4.47128e-07
5.13116e-07
7.53533e-07
4.10391e-07
4.09363e-07
4.09271e-07
4.11115e-07
4.16884e-07
4.30271e-07
4.57591e-07
5.1429e-07
7.29998e-07
4.48605e-07
4.47461e-07
4.46773e-07
4.46672e-07
4.47771e-07
4.51375e-07
4.59939e-07
4.77556e-07
5.14779e-07
6.78101e-07
5.22177e-07
5.20812e-07
5.19769e-07
5.19051e-07
5.18666e-07
5.18631e-07
5.18702e-07
5.17723e-07
5.1542e-07
5.76773e-07
8.28716e-07
8.20441e-07
8.12857e-07
8.05724e-07
7.97915e-07
7.8603e-07
7.61712e-07
7.0768e-07
5.98463e-07
4.40422e-07
8.03483e-07
7.98334e-07
7.93603e-07
7.88132e-07
7.78618e-07
7.56892e-07
7.05771e-07
5.99776e-07
4.42789e-07
5.38101e-07
5.33091e-07
5.29126e-07
5.26184e-07
5.24154e-07
5.22589e-07
5.20067e-07
5.15698e-07
5.77338e-07
4.63505e-07
4.58785e-07
4.55545e-07
4.54155e-07
4.55764e-07
4.62657e-07
4.78709e-07
5.13931e-07
6.79902e-07
4.22849e-07
4.18603e-07
4.16089e-07
4.1593e-07
4.20105e-07
4.3214e-07
4.58204e-07
5.13337e-07
7.32096e-07
3.98927e-07
3.95415e-07
3.93657e-07
3.94604e-07
4.00621e-07
4.1586e-07
4.47461e-07
5.12484e-07
7.54755e-07
3.86631e-07
3.83953e-07
3.82899e-07
3.84678e-07
3.91816e-07
4.08741e-07
4.42941e-07
5.12141e-07
7.62269e-07
3.83978e-07
3.82062e-07
3.81562e-07
3.83795e-07
3.9129e-07
4.08512e-07
4.42968e-07
5.12435e-07
7.61339e-07
3.90703e-07
3.89416e-07
3.89303e-07
3.91616e-07
3.98726e-07
4.14891e-07
4.47321e-07
5.13308e-07
7.52536e-07
4.09864e-07
4.0906e-07
4.09133e-07
4.11093e-07
4.16951e-07
4.30405e-07
4.57759e-07
5.14447e-07
7.29246e-07
4.48278e-07
4.47299e-07
4.46724e-07
4.46699e-07
4.47848e-07
4.51485e-07
4.60068e-07
4.77683e-07
5.14873e-07
6.77536e-07
5.21899e-07
5.20661e-07
5.1971e-07
5.19051e-07
5.187e-07
5.1868e-07
5.18747e-07
5.17746e-07
5.15396e-07
5.76406e-07
8.24942e-07
8.1739e-07
8.10447e-07
8.03846e-07
7.96449e-07
7.84858e-07
7.60726e-07
7.06837e-07
5.97762e-07
4.40285e-07
8.00733e-07
7.96261e-07
7.92053e-07
7.86952e-07
7.77661e-07
7.56008e-07
7.04867e-07
5.98875e-07
4.4244e-07
5.34411e-07
5.30526e-07
5.27401e-07
5.25056e-07
5.23436e-07
5.2215e-07
5.19819e-07
5.15618e-07
5.76706e-07
4.60176e-07
4.56561e-07
4.54132e-07
4.53292e-07
4.55297e-07
4.62469e-07
4.78715e-07
5.14092e-07
6.78932e-07
4.19867e-07
4.16646e-07
4.14845e-07
4.15206e-07
4.19751e-07
4.32057e-07
4.58309e-07
5.13583e-07
7.30974e-07
3.96437e-07
3.93802e-07
3.92637e-07
3.94031e-07
4.00372e-07
4.15854e-07
4.4762e-07
5.12754e-07
7.53588e-07
3.84714e-07
3.82715e-07
3.82127e-07
3.84261e-07
3.91663e-07
4.08789e-07
4.43125e-07
5.124e-07
7.61158e-07
3.82616e-07
3.81182e-07
3.81024e-07
3.83519e-07
3.91213e-07
4.0859e-07
4.4315e-07
5.1267e-07
7.60348e-07
3.89865e-07
3.88889e-07
3.89012e-07
3.91496e-07
3.98736e-07
4.15003e-07
4.47497e-07
5.13504e-07
7.51672e-07
4.09476e-07
4.08843e-07
4.09047e-07
4.11097e-07
4.17025e-07
4.30531e-07
4.57913e-07
5.14598e-07
7.28535e-07
4.48038e-07
4.47193e-07
4.46707e-07
4.46745e-07
4.47931e-07
4.51592e-07
4.60189e-07
4.778e-07
5.14958e-07
6.7696e-07
5.21656e-07
5.20528e-07
5.19656e-07
5.19049e-07
5.18727e-07
5.1872e-07
5.18785e-07
5.17765e-07
5.15366e-07
5.76004e-07
8.21465e-07
8.14544e-07
8.08167e-07
8.0204e-07
7.95015e-07
7.83694e-07
7.59738e-07
7.05984e-07
5.97049e-07
4.40095e-07
7.98413e-07
7.94466e-07
7.9067e-07
7.85863e-07
7.76745e-07
7.55142e-07
7.03972e-07
5.97958e-07
4.42028e-07
5.31545e-07
5.28488e-07
5.25997e-07
5.24116e-07
5.22822e-07
5.21766e-07
5.19598e-07
5.15547e-07
5.76114e-07
4.57614e-07
4.54817e-07
4.52998e-07
4.52588e-07
4.54911e-07
4.62314e-07
4.78727e-07
5.14253e-07
6.78052e-07
4.17567e-07
4.15111e-07
4.13849e-07
4.14619e-07
4.19464e-07
4.31993e-07
4.5841e-07
5.13824e-07
7.29966e-07
3.94514e-07
3.92534e-07
3.91824e-07
3.93571e-07
4.00174e-07
4.15854e-07
4.47767e-07
5.13016e-07
7.52559e-07
3.8323e-07
3.81739e-07
3.81514e-07
3.8393e-07
3.91544e-07
4.08835e-07
4.4329e-07
5.1265e-07
7.60174e-07
3.81559e-07
3.80483e-07
3.80601e-07
3.83303e-07
3.91158e-07
4.08661e-07
4.43312e-07
5.1289e-07
7.59449e-07
3.89221e-07
3.88481e-07
3.88792e-07
3.91412e-07
3.98756e-07
4.15103e-07
4.47654e-07
5.13683e-07
7.50858e-07
4.09183e-07
4.08685e-07
4.08994e-07
4.11117e-07
4.17099e-07
4.30645e-07
4.58051e-07
5.14729e-07
7.27832e-07
4.47858e-07
4.47122e-07
4.46708e-07
4.46797e-07
4.48014e-07
4.51693e-07
4.60299e-07
4.77904e-07
5.15026e-07
6.76366e-07
5.21439e-07
5.20407e-07
5.19603e-07
5.19042e-07
5.18747e-07
5.18752e-07
5.18815e-07
5.17776e-07
5.15326e-07
5.75562e-07
8.1827e-07
8.11898e-07
8.06017e-07
8.00312e-07
7.93621e-07
7.82546e-07
7.58753e-07
7.05125e-07
5.96323e-07
4.39829e-07
7.96434e-07
7.92898e-07
7.89427e-07
7.84852e-07
7.75868e-07
7.54293e-07
7.03084e-07
5.97013e-07
4.41424e-07
5.29292e-07
5.26851e-07
5.24843e-07
5.23326e-07
5.22294e-07
5.21427e-07
5.19397e-07
5.15471e-07
5.75532e-07
4.55622e-07
4.53437e-07
4.5208e-07
4.5201e-07
4.54589e-07
4.62183e-07
4.78742e-07
5.14402e-07
6.77242e-07
4.15774e-07
4.13897e-07
4.13046e-07
4.1414e-07
4.19226e-07
4.31942e-07
4.58503e-07
5.14046e-07
7.29041e-07
3.93013e-07
3.91526e-07
3.9117e-07
3.93197e-07
4.00011e-07
4.15858e-07
4.47899e-07
5.13255e-07
7.51605e-07
3.82069e-07
3.80957e-07
3.81023e-07
3.83662e-07
3.91449e-07
4.08876e-07
4.43436e-07
5.12872e-07
7.59246e-07
3.80726e-07
3.79923e-07
3.80263e-07
3.8313e-07
3.91115e-07
4.08723e-07
4.43454e-07
5.13082e-07
7.58585e-07
3.88717e-07
3.88162e-07
3.88622e-07
3.9135e-07
3.98779e-07
4.15192e-07
4.4779e-07
5.13834e-07
7.50062e-07
4.08958e-07
4.08568e-07
4.08961e-07
4.11143e-07
4.17168e-07
4.30746e-07
4.58171e-07
5.14835e-07
7.27127e-07
4.47719e-07
4.47074e-07
4.46719e-07
4.4685e-07
4.48092e-07
4.51786e-07
4.60397e-07
4.77996e-07
5.15075e-07
6.75751e-07
5.21238e-07
5.20291e-07
5.19548e-07
5.19028e-07
5.18757e-07
5.18774e-07
5.18836e-07
5.17778e-07
5.15268e-07
5.75063e-07
8.15336e-07
8.09443e-07
8.03997e-07
7.98666e-07
7.92273e-07
7.8142e-07
7.57778e-07
7.04265e-07
5.9557e-07
4.3935e-07
7.94727e-07
7.91516e-07
7.88302e-07
7.83909e-07
7.75025e-07
7.53462e-07
7.02202e-07
5.95985e-07
4.40062e-07
5.275e-07
5.25524e-07
5.23887e-07
5.22657e-07
5.21835e-07
5.21125e-07
5.19209e-07
5.15367e-07
5.74857e-07
4.54056e-07
4.52337e-07
4.51326e-07
4.51532e-07
4.54317e-07
4.6207e-07
4.78754e-07
5.14526e-07
6.76462e-07
4.14364e-07
4.12925e-07
4.12392e-07
4.13745e-07
4.19027e-07
4.31899e-07
4.58585e-07
5.14239e-07
7.28156e-07
3.91831e-07
3.90714e-07
3.90639e-07
3.92888e-07
3.99875e-07
4.15861e-07
4.48013e-07
5.13458e-07
7.50682e-07
3.81151e-07
3.80324e-07
3.80624e-07
3.83441e-07
3.91369e-07
4.0891e-07
4.43561e-07
5.13058e-07
7.5834e-07
3.80063e-07
3.7947e-07
3.79987e-07
3.82988e-07
3.9108e-07
4.08775e-07
4.43574e-07
5.13237e-07
7.57736e-07
3.88318e-07
3.87908e-07
3.88488e-07
3.91303e-07
3.988e-07
4.15268e-07
4.47906e-07
5.13953e-07
7.49274e-07
4.08781e-07
4.08479e-07
4.08941e-07
4.1117e-07
4.1723e-07
4.30835e-07
4.58274e-07
5.14914e-07
7.26416e-07
4.47607e-07
4.47039e-07
4.46734e-07
4.469e-07
4.48162e-07
4.51868e-07
4.60483e-07
4.78073e-07
5.15098e-07
6.75111e-07
5.21051e-07
5.20178e-07
5.1949e-07
5.19008e-07
5.18759e-07
5.18787e-07
5.18847e-07
5.17768e-07
5.15173e-07
5.74427e-07
8.12643e-07
8.07168e-07
8.02104e-07
7.97101e-07
7.90974e-07
7.80321e-07
7.56818e-07
7.03402e-07
5.94717e-07
4.38056e-07
7.93239e-07
7.90288e-07
7.87278e-07
7.83028e-07
7.74218e-07
7.52652e-07
7.01317e-07
5.94677e-07
4.35698e-07
5.26057e-07
5.24435e-07
5.23088e-07
5.22085e-07
5.21434e-07
5.20852e-07
5.19026e-07
5.15199e-07
5.73838e-07
4.52811e-07
4.51449e-07
4.50706e-07
4.51131e-07
4.54084e-07
4.6197e-07
4.78758e-07
5.14614e-07
6.75662e-07
4.13244e-07
4.12139e-07
4.11856e-07
4.13415e-07
4.18857e-07
4.31859e-07
4.58652e-07
5.14394e-07
7.27284e-07
3.90893e-07
3.90051e-07
3.90204e-07
3.9263e-07
3.99758e-07
4.1586e-07
4.48107e-07
5.13621e-07
7.49775e-07
3.80417e-07
3.79809e-07
3.80296e-07
3.83256e-07
3.91299e-07
4.08936e-07
4.43664e-07
5.13202e-07
7.57449e-07
3.79527e-07
3.79101e-07
3.7976e-07
3.82869e-07
3.91048e-07
4.08815e-07
4.43672e-07
5.13355e-07
7.569e-07
3.87996e-07
3.87702e-07
3.88378e-07
3.91265e-07
3.98818e-07
4.15331e-07
4.48002e-07
5.14039e-07
7.48493e-07
4.08638e-07
4.08408e-07
4.08926e-07
4.11195e-07
4.17284e-07
4.3091e-07
4.5836e-07
5.14965e-07
7.25701e-07
4.47514e-07
4.47009e-07
4.46748e-07
4.46944e-07
4.48224e-07
4.51939e-07
4.60557e-07
4.78136e-07
5.15094e-07
6.74432e-07
5.20872e-07
5.20066e-07
5.19428e-07
5.18979e-07
5.18751e-07
5.1879e-07
5.18849e-07
5.17742e-07
5.1501e-07
5.73441e-07
8.10172e-07
8.05062e-07
8.00333e-07
7.9562e-07
7.89729e-07
7.79256e-07
7.55879e-07
7.02529e-07
5.93549e-07
4.33609e-07
7.91889e-07
7.89154e-07
7.86311e-07
7.82176e-07
7.7342e-07
7.51841e-07
7.00393e-07
5.92684e-07
4.40284e-07
5.24845e-07
5.23505e-07
5.22392e-07
5.21575e-07
5.21068e-07
5.20596e-07
5.1884e-07
5.14942e-07
5.72098e-07
4.51778e-07
4.50701e-07
4.50174e-07
4.5078e-07
4.53875e-07
4.61875e-07
4.78753e-07
5.14666e-07
6.74792e-07
4.12316e-07
4.11475e-07
4.11398e-07
4.13126e-07
4.18704e-07
4.31819e-07
4.58705e-07
5.14513e-07
7.26392e-07
3.90112e-07
3.8949e-07
3.8983e-07
3.92404e-07
3.99652e-07
4.15854e-07
4.48185e-07
5.13746e-07
7.48854e-07
3.79802e-07
3.79372e-07
3.80013e-07
3.83093e-07
3.91234e-07
4.08954e-07
4.43748e-07
5.1331e-07
7.56547e-07
3.79074e-07
3.78785e-07
3.79562e-07
3.82762e-07
3.91016e-07
4.08846e-07
4.43752e-07
5.13438e-07
7.5605e-07
3.87722e-07
3.87527e-07
3.88284e-07
3.91231e-07
3.98832e-07
4.15383e-07
4.48081e-07
5.14095e-07
7.47694e-07
4.08515e-07
4.08347e-07
4.08915e-07
4.11217e-07
4.17331e-07
4.30974e-07
4.5843e-07
5.14989e-07
7.24962e-07
4.47429e-07
4.46982e-07
4.46759e-07
4.46983e-07
4.48278e-07
4.52002e-07
4.60621e-07
4.78185e-07
5.15062e-07
6.73684e-07
5.20694e-07
5.19951e-07
5.19359e-07
5.18943e-07
5.18735e-07
5.18784e-07
5.18841e-07
5.17701e-07
5.14762e-07
5.71811e-07
8.07824e-07
8.03046e-07
7.98621e-07
7.94173e-07
7.885e-07
7.78195e-07
7.54936e-07
7.01611e-07
5.91673e-07
4.38e-07
7.90658e-07
7.88102e-07
7.85397e-07
7.81354e-07
7.72638e-07
7.51038e-07
6.99494e-07
5.9113e-07
4.33012e-07
5.23829e-07
5.22713e-07
5.21788e-07
5.21122e-07
5.20734e-07
5.20355e-07
5.18661e-07
5.14718e-07
5.70761e-07
4.50923e-07
4.50074e-07
4.4972e-07
4.50474e-07
4.53686e-07
4.61783e-07
4.78739e-07
5.14691e-07
6.73932e-07
4.11552e-07
4.10913e-07
4.11008e-07
4.12874e-07
4.18565e-07
4.31775e-07
4.58741e-07
5.14592e-07
7.25492e-07
3.89465e-07
3.89017e-07
3.8951e-07
3.92205e-07
3.99553e-07
4.15841e-07
4.48242e-07
5.13828e-07
7.47928e-07
3.79287e-07
3.79001e-07
3.79768e-07
3.82948e-07
3.91171e-07
4.08961e-07
4.43811e-07
5.13377e-07
7.5564e-07
3.78691e-07
3.78515e-07
3.79389e-07
3.82666e-07
3.90982e-07
4.08865e-07
4.43812e-07
5.13484e-07
7.55193e-07
3.87489e-07
3.87376e-07
3.88201e-07
3.91199e-07
3.98839e-07
4.15423e-07
4.48141e-07
5.14119e-07
7.46886e-07
4.08407e-07
4.08294e-07
4.08903e-07
4.11234e-07
4.17368e-07
4.31026e-07
4.58485e-07
5.14988e-07
7.24207e-07
4.47349e-07
4.46954e-07
4.46766e-07
4.47014e-07
4.48324e-07
4.52055e-07
4.60674e-07
4.78223e-07
5.15016e-07
6.7294e-07
5.20515e-07
5.1983e-07
5.19282e-07
5.18897e-07
5.18709e-07
5.18769e-07
5.18825e-07
5.17656e-07
5.14551e-07
5.70573e-07
8.05605e-07
8.01128e-07
7.96978e-07
7.9277e-07
7.87297e-07
7.7715e-07
7.54002e-07
7.0072e-07
5.90296e-07
4.31362e-07
7.89564e-07
7.87155e-07
7.84561e-07
7.8059e-07
7.71901e-07
7.50278e-07
6.98665e-07
5.90059e-07
4.30712e-07
5.22996e-07
5.22052e-07
5.21275e-07
5.20729e-07
5.20437e-07
5.20135e-07
5.185e-07
5.14562e-07
5.69907e-07
4.50233e-07
4.49558e-07
4.4934e-07
4.50212e-07
4.53518e-07
4.61695e-07
4.78717e-07
5.14697e-07
6.73127e-07
4.10936e-07
4.10452e-07
4.10682e-07
4.12658e-07
4.1844e-07
4.31728e-07
4.5876e-07
5.14633e-07
7.24622e-07
3.8894e-07
3.88628e-07
3.89242e-07
3.92033e-07
3.99462e-07
4.15819e-07
4.48277e-07
5.13868e-07
7.47033e-07
3.78866e-07
3.78694e-07
3.79561e-07
3.8282e-07
3.9111e-07
4.08956e-07
4.43851e-07
5.13404e-07
7.54763e-07
3.78373e-07
3.78288e-07
3.79241e-07
3.82579e-07
3.90946e-07
4.08871e-07
4.43849e-07
5.13494e-07
7.54363e-07
3.87293e-07
3.87248e-07
3.88128e-07
3.91167e-07
3.98839e-07
4.15447e-07
4.4818e-07
5.1411e-07
7.46099e-07
4.08313e-07
4.08246e-07
4.08891e-07
4.11245e-07
4.17396e-07
4.31064e-07
4.58522e-07
5.14962e-07
7.23471e-07
4.47274e-07
4.46925e-07
4.46767e-07
4.47037e-07
4.48359e-07
4.52096e-07
4.60715e-07
4.78249e-07
5.14963e-07
6.72241e-07
5.20343e-07
5.1971e-07
5.19201e-07
5.18844e-07
5.18674e-07
5.18745e-07
5.18803e-07
5.17615e-07
5.14408e-07
5.6977e-07
8.03576e-07
7.99364e-07
7.95454e-07
7.91458e-07
7.86164e-07
7.76158e-07
7.53114e-07
6.99897e-07
5.89386e-07
4.29352e-07
7.88585e-07
7.86299e-07
7.83795e-07
7.79883e-07
7.71213e-07
7.49565e-07
6.97895e-07
5.89205e-07
4.29782e-07
5.22308e-07
5.21498e-07
5.20837e-07
5.20386e-07
5.20172e-07
5.19934e-07
5.18355e-07
5.14444e-07
5.69249e-07
4.4967e-07
4.4913e-07
4.4902e-07
4.49985e-07
4.53368e-07
4.6161e-07
4.78688e-07
5.14684e-07
6.72362e-07
4.10433e-07
4.10069e-07
4.10407e-07
4.1247e-07
4.18325e-07
4.31677e-07
4.58762e-07
5.14639e-07
7.23784e-07
3.88509e-07
3.88304e-07
3.89013e-07
3.91882e-07
3.99375e-07
4.15789e-07
4.48292e-07
5.13871e-07
7.46174e-07
3.78516e-07
3.78436e-07
3.79383e-07
3.82706e-07
3.91048e-07
4.0894e-07
4.4387e-07
5.13395e-07
7.53923e-07
3.78104e-07
3.78096e-07
3.79112e-07
3.82499e-07
3.90905e-07
4.08865e-07
4.43866e-07
5.1347e-07
7.53566e-07
3.87124e-07
3.87138e-07
3.88063e-07
3.91134e-07
3.98831e-07
4.15459e-07
4.482e-07
5.14074e-07
7.45342e-07
4.08229e-07
4.08202e-07
4.08875e-07
4.11249e-07
4.17412e-07
4.31088e-07
4.58542e-07
5.14913e-07
7.22758e-07
4.47202e-07
4.46892e-07
4.46762e-07
4.47051e-07
4.48384e-07
4.52125e-07
4.60743e-07
4.78265e-07
5.14903e-07
6.71574e-07
5.20175e-07
5.19589e-07
5.19117e-07
5.18786e-07
5.18633e-07
5.18715e-07
5.18775e-07
5.17577e-07
5.14303e-07
5.69144e-07
8.01718e-07
7.9774e-07
7.94043e-07
7.90235e-07
7.85102e-07
7.75226e-07
7.52279e-07
6.99135e-07
5.88677e-07
4.28583e-07
7.87703e-07
7.85522e-07
7.83096e-07
7.79231e-07
7.70576e-07
7.48905e-07
6.97183e-07
5.8845e-07
4.2916e-07
5.21735e-07
5.21029e-07
5.20461e-07
5.20085e-07
5.19934e-07
5.1975e-07
5.18221e-07
5.14342e-07
5.68652e-07
4.49207e-07
4.48771e-07
4.48749e-07
4.49787e-07
4.53231e-07
4.61527e-07
4.78651e-07
5.14652e-07
6.71628e-07
4.10018e-07
4.09749e-07
4.10173e-07
4.12305e-07
4.18219e-07
4.31622e-07
4.58748e-07
5.14615e-07
7.22983e-07
3.8815e-07
3.88031e-07
3.88817e-07
3.91747e-07
3.99292e-07
4.1575e-07
4.48288e-07
5.13841e-07
7.45357e-07
3.78221e-07
3.78217e-07
3.79228e-07
3.82601e-07
3.90986e-07
4.08914e-07
4.43869e-07
5.13354e-07
7.53124e-07
3.77875e-07
3.77931e-07
3.78997e-07
3.82423e-07
3.90862e-07
4.08847e-07
4.43864e-07
5.13417e-07
7.52808e-07
3.86977e-07
3.8704e-07
3.88001e-07