/*--------------------------------*- C++ -*----------------------------------*\
| =========                 |                                                 |
| \\      /  F ield         | OpenFOAM: The Open Source CFD Toolbox           |
|  \\    /   O peration     | Version:  2.3.1                                 |
|   \\  /    A nd           | Web:      www.OpenFOAM.org                      |
|    \\/     M anipulation  |                                                 |
\*---------------------------------------------------------------------------*/
FoamFile
{
    version     2.0;
    format      ascii;
    class       volScalarField;
    location    "15";
    object      epsilon;
}
// * * * * * * * * * * * * * * * * * * * * * * * * * * * * * * * * * * * * * //

dimensions      [0 2 -3 0 0 0 0];

internalField   nonuniform List<scalar> 
37784
(
1.02783e-06
9.90686e-07
9.64976e-07
9.45858e-07
9.28085e-07
9.01526e-07
8.40097e-07
6.98219e-07
4.10068e-07
9.51194e-07
9.10826e-07
8.81305e-07
8.5992e-07
8.43903e-07
8.29156e-07
8.06685e-07
7.53671e-07
6.2556e-07
3.89277e-07
7.34248e-07
7.01911e-07
6.77666e-07
6.60054e-07
6.47184e-07
6.36719e-07
6.23713e-07
5.9389e-07
5.19333e-07
3.72821e-07
3.71553e-07
3.55898e-07
3.44363e-07
3.36184e-07
3.30429e-07
3.26344e-07
3.23035e-07
3.19068e-07
3.14897e-07
3.33801e-07
6.36339e-07
6.10606e-07
5.9557e-07
5.8618e-07
5.79236e-07
5.7117e-07
5.54479e-07
5.17284e-07
4.97946e-07
6.08124e-07
5.86577e-07
5.72342e-07
5.6298e-07
5.56635e-07
5.5152e-07
5.44625e-07
5.28588e-07
4.88638e-07
4.31151e-07
5.25593e-07
5.14226e-07
5.06032e-07
5.00365e-07
4.96416e-07
4.93157e-07
4.88604e-07
4.76994e-07
4.45724e-07
3.98844e-07
4.46826e-07
4.36095e-07
4.27957e-07
4.22071e-07
4.17838e-07
4.14527e-07
4.10708e-07
4.02397e-07
3.82101e-07
3.49179e-07
5.60877e-07
5.3707e-07
5.24189e-07
5.16973e-07
5.12835e-07
5.10289e-07
5.08059e-07
5.10767e-07
6.6083e-07
5.52169e-07
5.33122e-07
5.21348e-07
5.14205e-07
5.09881e-07
5.07109e-07
5.04729e-07
5.00592e-07
4.92816e-07
5.37551e-07
5.20314e-07
5.1108e-07
5.04753e-07
5.00623e-07
4.97913e-07
4.95841e-07
4.93068e-07
4.86133e-07
4.69022e-07
4.80788e-07
6.00517e-07
5.84809e-07
5.7238e-07
5.62966e-07
5.55867e-07
5.49884e-07
5.42258e-07
5.25272e-07
4.83516e-07
4.04108e-07
5.27575e-07
5.04863e-07
4.92711e-07
4.86213e-07
4.83342e-07
4.83922e-07
4.90095e-07
5.16625e-07
7.74334e-07
5.30391e-07
5.12478e-07
5.01476e-07
4.94952e-07
4.91398e-07
4.89812e-07
4.89994e-07
4.92662e-07
5.03125e-07
6.04592e-07
5.27314e-07
5.18353e-07
5.12524e-07
5.08967e-07
5.06773e-07
5.0524e-07
5.0341e-07
4.99044e-07
4.89283e-07
5.25448e-07
7.00468e-07
6.81166e-07
6.65663e-07
6.53708e-07
6.44444e-07
6.36165e-07
6.24717e-07
5.98931e-07
5.3728e-07
4.24461e-07
5.04153e-07
4.83368e-07
4.72e-07
4.66131e-07
4.64357e-07
4.67294e-07
4.79243e-07
5.21464e-07
8.49552e-07
5.15417e-07
4.98791e-07
4.88416e-07
4.82592e-07
4.7972e-07
4.78986e-07
4.81035e-07
4.88303e-07
5.10404e-07
6.47073e-07
5.3143e-07
5.23288e-07
5.18143e-07
5.14954e-07
5.13021e-07
5.11778e-07
5.10495e-07
5.07571e-07
5.01792e-07
5.50454e-07
7.66748e-07
7.45357e-07
7.27991e-07
7.14415e-07
7.0363e-07
6.93462e-07
6.78516e-07
6.44897e-07
5.67227e-07
4.32201e-07
4.84907e-07
4.66517e-07
4.56211e-07
4.51225e-07
4.50499e-07
4.55369e-07
4.7152e-07
5.2398e-07
8.94565e-07
5.02352e-07
4.87398e-07
4.78207e-07
4.73225e-07
4.70911e-07
4.70906e-07
4.74415e-07
4.84939e-07
5.14559e-07
6.73331e-07
5.32795e-07
5.25702e-07
5.21074e-07
5.18172e-07
5.1644e-07
5.15415e-07
5.14515e-07
5.12476e-07
5.08894e-07
5.64627e-07
8.10029e-07
7.87815e-07
7.69596e-07
7.55148e-07
7.43384e-07
7.31733e-07
7.13804e-07
6.73768e-07
5.84272e-07
4.35549e-07
4.68573e-07
4.52763e-07
4.43827e-07
4.39815e-07
4.40089e-07
4.46614e-07
4.65895e-07
5.24677e-07
9.14383e-07
4.90618e-07
4.77753e-07
4.69992e-07
4.65826e-07
4.64033e-07
4.64685e-07
4.69369e-07
4.82226e-07
5.16595e-07
6.88368e-07
5.32489e-07
5.26371e-07
5.22228e-07
5.19603e-07
5.18055e-07
5.17208e-07
5.16585e-07
5.15099e-07
5.12723e-07
5.72514e-07
8.36878e-07
8.14825e-07
7.96535e-07
7.81812e-07
7.69521e-07
7.56782e-07
7.36469e-07
6.91507e-07
5.93848e-07
4.37274e-07
4.54843e-07
4.41565e-07
4.34169e-07
4.31136e-07
4.32355e-07
4.40316e-07
4.61967e-07
5.2414e-07
9.11746e-07
4.80327e-07
4.69821e-07
4.63487e-07
4.60053e-07
4.58757e-07
4.59998e-07
4.65637e-07
4.80162e-07
5.1731e-07
6.95404e-07
5.31349e-07
5.26059e-07
5.22386e-07
5.2004e-07
5.1867e-07
5.17979e-07
5.17565e-07
5.1642e-07
5.14663e-07
5.76647e-07
8.5203e-07
8.30836e-07
8.13049e-07
7.98507e-07
7.86056e-07
7.72595e-07
7.50489e-07
7.01951e-07
5.98987e-07
4.38303e-07
4.43555e-07
4.32702e-07
4.26788e-07
4.24667e-07
4.26769e-07
4.35981e-07
4.59453e-07
5.22786e-07
8.8823e-07
4.71836e-07
4.63525e-07
4.58445e-07
4.55685e-07
4.54849e-07
4.56611e-07
4.63024e-07
4.78717e-07
5.17225e-07
6.96507e-07
5.29822e-07
5.25276e-07
5.22077e-07
5.20003e-07
5.18803e-07
5.18249e-07
5.17993e-07
5.17049e-07
5.15535e-07
5.78514e-07
8.59102e-07
8.39212e-07
8.22314e-07
8.08279e-07
7.95951e-07
7.82082e-07
7.58711e-07
7.07707e-07
6.01493e-07
4.38978e-07
4.34477e-07
4.2588e-07
4.21298e-07
4.19983e-07
4.22884e-07
4.33172e-07
4.58063e-07
5.21076e-07
8.4114e-07
4.65163e-07
4.58731e-07
4.54662e-07
4.52498e-07
4.52076e-07
4.54285e-07
4.61317e-07
4.77805e-07
5.1669e-07
6.9364e-07
5.28261e-07
5.24376e-07
5.21598e-07
5.19784e-07
5.18745e-07
5.18309e-07
5.18171e-07
5.17332e-07
5.15823e-07
5.79043e-07
8.60811e-07
8.42489e-07
8.26708e-07
8.13391e-07
8.01391e-07
7.87367e-07
7.63162e-07
7.10545e-07
6.02463e-07
4.39446e-07
8.6146e-07
8.32355e-07
8.12819e-07
7.98709e-07
7.84779e-07
7.61909e-07
7.11994e-07
6.05778e-07
4.43775e-07
6.84159e-07
6.1427e-07
5.73568e-07
5.50514e-07
5.37509e-07
5.29843e-07
5.23954e-07
5.17935e-07
5.86472e-07
5.87425e-07
5.28856e-07
4.94867e-07
4.76149e-07
4.67774e-07
4.68356e-07
4.80511e-07
5.15437e-07
6.9957e-07
5.31904e-07
4.80393e-07
4.51627e-07
4.36546e-07
4.31597e-07
4.37153e-07
4.59261e-07
5.17847e-07
7.88402e-07
4.91056e-07
4.47657e-07
4.24383e-07
4.13001e-07
4.10967e-07
4.19756e-07
4.46673e-07
5.18442e-07
4.55518e-07
4.24579e-07
4.07861e-07
4.00221e-07
4.0062e-07
4.11556e-07
4.41145e-07
5.22365e-07
4.31121e-07
4.11492e-07
4.00693e-07
3.96258e-07
3.98479e-07
4.10606e-07
4.41089e-07
5.24702e-07
4.21468e-07
4.09656e-07
4.02975e-07
4.00748e-07
4.04048e-07
4.16381e-07
4.45838e-07
5.22808e-07
4.27446e-07
4.20772e-07
4.17313e-07
4.16703e-07
4.20302e-07
4.31479e-07
4.57422e-07
5.19471e-07
7.81762e-07
4.60125e-07
4.55162e-07
4.51925e-07
4.50262e-07
4.50202e-07
4.52781e-07
4.60295e-07
4.77295e-07
5.15959e-07
6.88366e-07
5.2685e-07
5.23528e-07
5.21125e-07
5.19542e-07
5.18644e-07
5.18307e-07
5.18254e-07
5.17452e-07
5.15818e-07
5.78883e-07
8.59239e-07
8.42478e-07
8.27956e-07
8.15482e-07
8.03945e-07
7.89959e-07
7.65254e-07
7.11643e-07
6.02557e-07
4.3978e-07
8.48456e-07
8.26414e-07
8.10692e-07
7.98298e-07
7.852e-07
7.62363e-07
7.11857e-07
6.05305e-07
4.43907e-07
6.38778e-07
5.91644e-07
5.62486e-07
5.45027e-07
5.34745e-07
5.28439e-07
5.23235e-07
5.17485e-07
5.85186e-07
5.52075e-07
5.10196e-07
4.84921e-07
4.70691e-07
4.647e-07
4.66696e-07
4.79804e-07
5.1475e-07
6.9519e-07
5.0081e-07
4.63963e-07
4.42449e-07
4.31122e-07
4.28291e-07
4.3536e-07
4.58549e-07
5.15848e-07
7.63495e-07
4.64265e-07
4.33522e-07
4.16204e-07
4.07885e-07
4.07707e-07
4.18149e-07
4.46895e-07
5.18233e-07
8.40617e-07
4.35828e-07
4.13509e-07
4.0101e-07
3.95651e-07
3.97611e-07
4.10195e-07
4.41927e-07
5.21323e-07
8.8241e-07
4.17997e-07
4.03395e-07
3.95253e-07
3.92366e-07
3.95827e-07
4.09419e-07
4.41903e-07
5.22339e-07
8.77679e-07
4.12955e-07
4.03837e-07
3.9879e-07
3.97611e-07
4.01844e-07
4.15321e-07
4.46304e-07
5.20632e-07
8.32851e-07
4.22169e-07
4.17061e-07
4.14492e-07
4.14489e-07
4.18671e-07
4.30536e-07
4.57087e-07
5.1718e-07
7.53965e-07
4.56466e-07
4.5257e-07
4.50016e-07
4.48758e-07
4.49005e-07
4.5188e-07
4.59751e-07
4.7705e-07
5.15277e-07
6.84655e-07
5.25664e-07
5.22806e-07
5.20723e-07
5.1934e-07
5.18562e-07
5.18305e-07
5.18309e-07
5.17502e-07
5.15711e-07
5.78525e-07
8.55833e-07
8.40661e-07
8.27282e-07
8.15681e-07
8.04697e-07
7.90889e-07
7.6593e-07
7.11759e-07
6.0222e-07
4.40029e-07
8.377e-07
8.20628e-07
8.07816e-07
7.97176e-07
7.84762e-07
7.62052e-07
7.11259e-07
6.04583e-07
4.43938e-07
6.07319e-07
5.74892e-07
5.53745e-07
5.40468e-07
5.32347e-07
5.27178e-07
5.22564e-07
5.1705e-07
5.83849e-07
5.25708e-07
4.958e-07
4.77068e-07
4.66362e-07
4.62312e-07
4.65496e-07
4.79342e-07
5.14241e-07
6.91659e-07
4.77739e-07
4.51298e-07
4.35279e-07
4.26946e-07
4.25861e-07
4.34186e-07
4.58136e-07
5.14352e-07
7.51194e-07
4.44735e-07
4.22744e-07
4.09915e-07
4.04048e-07
4.0541e-07
4.17154e-07
4.46857e-07
5.1557e-07
7.91563e-07
4.21298e-07
4.0508e-07
3.95822e-07
3.92303e-07
3.95568e-07
4.09394e-07
4.42086e-07
5.17035e-07
8.09397e-07
4.0812e-07
3.97247e-07
3.91199e-07
3.89588e-07
3.94084e-07
4.08756e-07
4.42065e-07
5.17397e-07
8.05901e-07
4.06479e-07
3.99476e-07
3.95763e-07
3.95459e-07
4.00457e-07
4.14768e-07
4.46379e-07
5.1676e-07
7.84409e-07
4.18299e-07
4.14419e-07
4.12544e-07
4.13052e-07
4.17702e-07
4.30072e-07
4.56941e-07
5.15462e-07
7.41889e-07
4.53824e-07
4.50739e-07
4.48727e-07
4.47794e-07
4.4829e-07
4.51394e-07
4.59518e-07
4.76981e-07
5.14817e-07
6.82369e-07
5.24697e-07
5.22228e-07
5.20413e-07
5.19194e-07
5.18514e-07
5.18321e-07
5.18361e-07
5.1753e-07
5.15593e-07
5.78176e-07
8.51383e-07
8.37701e-07
8.25561e-07
8.14818e-07
8.04372e-07
7.90824e-07
7.65794e-07
7.1139e-07
6.01666e-07
4.40218e-07
8.28794e-07
8.15375e-07
8.04854e-07
7.95575e-07
7.83895e-07
7.61375e-07
7.10381e-07
6.03802e-07
4.43885e-07
5.85149e-07
5.62405e-07
5.46878e-07
5.36725e-07
5.3031e-07
5.26078e-07
5.21967e-07
5.16671e-07
5.82539e-07
5.06261e-07
4.84821e-07
4.7093e-07
4.62956e-07
4.60461e-07
4.64628e-07
4.79049e-07
5.13919e-07
6.88788e-07
4.60699e-07
4.41623e-07
4.29728e-07
4.23753e-07
4.24083e-07
4.33426e-07
4.57935e-07
5.13455e-07
7.44512e-07
4.30448e-07
4.14574e-07
4.05122e-07
4.01186e-07
4.03809e-07
4.16554e-07
4.46808e-07
5.13489e-07
7.73145e-07
4.10578e-07
3.98711e-07
3.91927e-07
3.89873e-07
3.94203e-07
4.08951e-07
4.42103e-07
5.13891e-07
7.83448e-07
4.00745e-07
3.92622e-07
3.88206e-07
3.87633e-07
3.92966e-07
4.08423e-07
4.42093e-07
5.14195e-07
7.80877e-07
4.01589e-07
3.96273e-07
3.93598e-07
3.94016e-07
3.99622e-07
4.14528e-07
4.46416e-07
5.14402e-07
7.67029e-07
4.15522e-07
4.12561e-07
4.11235e-07
4.12157e-07
4.1717e-07
4.29901e-07
4.56942e-07
5.14513e-07
7.36437e-07
4.5194e-07
4.49476e-07
4.47885e-07
4.47212e-07
4.47899e-07
4.51176e-07
4.59473e-07
4.77016e-07
5.14589e-07
6.80915e-07
5.23927e-07
5.21776e-07
5.20181e-07
5.19098e-07
5.185e-07
5.18357e-07
5.18418e-07
5.17553e-07
5.15503e-07
5.77869e-07
8.46578e-07
8.34248e-07
8.23206e-07
8.13314e-07
8.03468e-07
7.90234e-07
7.65247e-07
7.10759e-07
6.01045e-07
4.40352e-07
8.21496e-07
8.10787e-07
8.02052e-07
7.93892e-07
7.82807e-07
7.60494e-07
7.0943e-07
6.03008e-07
4.43758e-07
5.69276e-07
5.53029e-07
5.41485e-07
5.33671e-07
5.28595e-07
5.25132e-07
5.21448e-07
5.16355e-07
5.81276e-07
4.91975e-07
4.76484e-07
4.66154e-07
4.60287e-07
4.59022e-07
4.63991e-07
4.78869e-07
5.13739e-07
6.86362e-07
4.48129e-07
4.3426e-07
4.25454e-07
4.21308e-07
4.22779e-07
4.32932e-07
4.57875e-07
5.13011e-07
7.40278e-07
4.1996e-07
4.08398e-07
4.01483e-07
3.99053e-07
4.02694e-07
4.16205e-07
4.46838e-07
5.12413e-07
7.64919e-07
4.02661e-07
3.93918e-07
3.8901e-07
3.88115e-07
3.93298e-07
4.08735e-07
4.42173e-07
5.12338e-07
7.73013e-07
3.95248e-07
3.89167e-07
3.85998e-07
3.86267e-07
3.92263e-07
4.08295e-07
4.42176e-07
5.12663e-07
7.71113e-07
3.97947e-07
3.93941e-07
3.92068e-07
3.93065e-07
3.99145e-07
4.14477e-07
4.46523e-07
5.13318e-07
7.60033e-07
4.13536e-07
4.11271e-07
4.10376e-07
4.11624e-07
4.16912e-07
4.29899e-07
4.57042e-07
5.14113e-07
7.336e-07
4.50614e-07
4.48621e-07
4.47354e-07
4.46882e-07
4.47716e-07
4.5112e-07
4.59528e-07
4.77114e-07
5.1452e-07
6.79941e-07
5.2332e-07
5.21427e-07
5.20009e-07
5.1904e-07
5.18512e-07
5.18408e-07
5.18477e-07
5.17578e-07
5.1544e-07
5.7759e-07
8.41758e-07
8.30637e-07
8.20604e-07
8.11498e-07
8.02209e-07
7.89319e-07
7.64453e-07
7.10019e-07
6.00396e-07
4.40432e-07
8.15544e-07
8.06854e-07
7.99515e-07
7.92259e-07
7.81686e-07
7.59563e-07
7.08469e-07
6.02213e-07
4.43558e-07
5.5774e-07
5.45927e-07
5.37241e-07
5.31185e-07
5.27158e-07
5.24323e-07
5.21002e-07
5.16094e-07
5.80062e-07
4.81458e-07
4.7015e-07
4.62443e-07
4.58186e-07
4.57897e-07
4.63513e-07
4.78762e-07
5.13656e-07
6.84239e-07
4.38833e-07
4.28659e-07
4.22163e-07
4.19425e-07
4.21815e-07
4.32603e-07
4.57898e-07
5.12843e-07
7.37193e-07
4.12224e-07
4.03726e-07
3.98712e-07
3.97453e-07
4.01907e-07
4.16011e-07
4.46943e-07
5.12006e-07
7.60471e-07
3.96792e-07
3.90314e-07
3.86815e-07
3.86837e-07
3.92694e-07
4.08653e-07
4.42319e-07
5.11774e-07
7.68113e-07
3.91142e-07
3.86586e-07
3.84365e-07
3.8531e-07
3.91826e-07
4.08284e-07
4.42333e-07
5.12108e-07
7.66597e-07
3.95258e-07
3.92243e-07
3.90989e-07
3.92444e-07
3.98889e-07
4.14527e-07
4.46692e-07
5.12951e-07
7.56676e-07
4.12115e-07
4.1038e-07
4.09823e-07
4.11322e-07
4.16818e-07
4.29982e-07
4.57199e-07
5.14028e-07
7.31912e-07
4.49685e-07
4.4805e-07
4.47033e-07
4.46713e-07
4.47661e-07
4.51154e-07
4.59638e-07
4.77241e-07
5.14546e-07
6.79202e-07
5.22838e-07
5.21156e-07
5.19883e-07
5.19012e-07
5.18541e-07
5.18464e-07
5.18536e-07
5.17605e-07
5.15399e-07
5.77312e-07
8.3711e-07
8.27062e-07
8.17939e-07
8.09553e-07
8.00794e-07
7.88251e-07
7.63552e-07
7.09231e-07
5.99734e-07
4.40457e-07
8.10685e-07
8.0351e-07
7.9726e-07
7.90735e-07
7.80589e-07
7.58628e-07
7.0752e-07
6.01413e-07
4.43297e-07
5.49235e-07
5.40499e-07
5.33886e-07
5.29157e-07
5.25957e-07
5.23632e-07
5.2062e-07
5.15878e-07
5.78892e-07
4.73672e-07
4.65322e-07
4.59555e-07
4.56521e-07
4.5701e-07
4.63143e-07
4.78701e-07
5.1364e-07
6.82344e-07
4.31923e-07
4.24386e-07
4.19617e-07
4.17963e-07
4.21086e-07
4.3238e-07
4.57969e-07
5.12879e-07
7.34924e-07
4.06478e-07
4.00181e-07
3.96586e-07
3.9624e-07
4.0134e-07
4.15909e-07
4.47093e-07
5.12007e-07
7.57846e-07
3.92414e-07
3.87597e-07
3.85147e-07
3.85899e-07
3.92286e-07
4.08645e-07
4.42509e-07
5.11707e-07
7.65353e-07
3.88063e-07
3.84648e-07
3.83153e-07
3.84631e-07
3.91555e-07
4.08333e-07
4.4253e-07
5.12036e-07
7.64086e-07
3.93271e-07
3.91002e-07
3.90226e-07
3.92039e-07
3.98765e-07
4.14629e-07
4.46891e-07
5.12933e-07
7.54741e-07
4.11099e-07
4.09767e-07
4.0947e-07
4.11163e-07
4.16815e-07
4.30106e-07
4.57376e-07
5.14095e-07
7.30776e-07
4.49033e-07
4.47675e-07
4.46844e-07
4.46645e-07
4.47678e-07
4.51236e-07
4.59767e-07
4.77377e-07
5.14623e-07
6.78581e-07
5.22449e-07
5.20939e-07
5.19789e-07
5.19e-07
5.18576e-07
5.18522e-07
5.18592e-07
5.17633e-07
5.1537e-07
5.77014e-07
8.32727e-07
8.23622e-07
8.15313e-07
8.07585e-07
7.99319e-07
7.87112e-07
7.626e-07
7.08418e-07
5.99059e-07
4.40426e-07
8.06699e-07
8.00671e-07
7.95272e-07
7.89332e-07
7.79535e-07
7.57705e-07
7.06591e-07
6.00566e-07
4.43019e-07
5.42876e-07
5.3631e-07
5.31217e-07
5.27498e-07
5.2495e-07
5.23041e-07
5.2029e-07
5.15728e-07
5.77966e-07
4.67861e-07
4.61619e-07
4.57296e-07
4.55192e-07
4.56303e-07
4.62852e-07
4.78672e-07
5.13726e-07
6.80928e-07
4.26747e-07
4.21112e-07
4.17633e-07
4.16817e-07
4.20523e-07
4.32224e-07
4.58064e-07
5.13049e-07
7.33303e-07
4.02174e-07
3.97479e-07
3.94934e-07
3.95311e-07
4.0092e-07
4.15859e-07
4.4726e-07
5.12178e-07
7.56051e-07
3.8912e-07
3.85529e-07
3.83871e-07
3.85197e-07
3.92002e-07
4.08674e-07
4.42712e-07
5.1185e-07
7.63538e-07
3.85737e-07
3.83177e-07
3.82241e-07
3.84141e-07
3.91383e-07
4.08408e-07
4.42737e-07
5.12165e-07
7.62454e-07
3.91794e-07
3.90086e-07
3.8968e-07
3.91774e-07
3.98714e-07
4.14748e-07
4.47095e-07
5.13064e-07
7.53443e-07
4.10369e-07
4.0934e-07
4.09247e-07
4.11091e-07
4.16858e-07
4.30242e-07
4.57554e-07
5.14235e-07
7.29906e-07
4.48574e-07
4.47428e-07
4.4674e-07
4.46638e-07
4.47736e-07
4.5134e-07
4.59901e-07
4.77511e-07
5.14718e-07
6.78008e-07
5.22126e-07
5.2076e-07
5.19717e-07
5.18998e-07
5.18613e-07
5.18576e-07
5.18644e-07
5.1766e-07
5.15347e-07
5.76683e-07
8.28644e-07
8.20367e-07
8.12782e-07
8.05647e-07
7.97834e-07
7.85946e-07
7.61624e-07
7.07587e-07
5.98371e-07
4.40341e-07
8.03403e-07
7.98253e-07
7.9352e-07
7.88047e-07
7.7853e-07
7.56801e-07
7.05677e-07
5.99685e-07
4.4271e-07
5.3806e-07
5.33046e-07
5.29079e-07
5.26134e-07
5.24102e-07
5.22534e-07
5.20005e-07
5.15625e-07
5.77248e-07
4.63483e-07
4.58759e-07
4.55516e-07
4.54124e-07
4.55731e-07
4.6262e-07
4.78664e-07
5.1387e-07
6.79809e-07
4.22835e-07
4.18587e-07
4.1607e-07
4.15909e-07
4.20081e-07
4.32112e-07
4.58168e-07
5.13282e-07
7.32004e-07
3.98916e-07
3.95402e-07
3.93641e-07
3.94587e-07
4.00601e-07
4.15837e-07
4.47428e-07
5.12432e-07
7.54665e-07
3.86619e-07
3.83939e-07
3.82884e-07
3.84662e-07
3.91797e-07
4.08718e-07
4.42909e-07
5.1209e-07
7.6218e-07
3.83965e-07
3.82047e-07
3.81546e-07
3.83777e-07
3.9127e-07
4.08489e-07
4.42936e-07
5.12384e-07
7.6125e-07
3.90686e-07
3.89398e-07
3.89285e-07
3.91597e-07
3.98704e-07
4.14866e-07
4.47288e-07
5.13256e-07
7.52446e-07
4.09842e-07
4.09037e-07
4.09109e-07
4.11068e-07
4.16925e-07
4.30376e-07
4.57722e-07
5.14393e-07
7.29153e-07
4.48246e-07
4.47266e-07
4.4669e-07
4.46665e-07
4.47813e-07
4.51449e-07
4.6003e-07
4.77637e-07
5.14812e-07
6.77442e-07
5.21848e-07
5.20609e-07
5.19657e-07
5.18998e-07
5.18646e-07
5.18625e-07
5.18689e-07
5.17683e-07
5.15322e-07
5.76317e-07
8.24868e-07
8.17315e-07
8.10371e-07
8.03767e-07
7.96367e-07
7.84774e-07
7.60637e-07
7.06744e-07
5.9767e-07
4.40204e-07
8.00652e-07
7.96178e-07
7.91968e-07
7.86866e-07
7.77572e-07
7.55917e-07
7.04773e-07
5.98784e-07
4.4236e-07
5.34366e-07
5.3048e-07
5.27352e-07
5.25005e-07
5.23383e-07
5.22094e-07
5.19756e-07
5.15545e-07
5.76616e-07
4.6015e-07
4.56534e-07
4.54102e-07
4.5326e-07
4.55263e-07
4.62432e-07
4.7867e-07
5.14031e-07
6.78839e-07
4.1985e-07
4.16627e-07
4.14825e-07
4.15183e-07
4.19727e-07
4.32029e-07
4.58273e-07
5.13528e-07
7.30881e-07
3.96424e-07
3.93787e-07
3.92621e-07
3.94013e-07
4.00352e-07
4.1583e-07
4.47587e-07
5.12702e-07
7.53498e-07
3.84701e-07
3.82701e-07
3.82111e-07
3.84244e-07
3.91644e-07
4.08766e-07
4.43093e-07
5.12349e-07
7.61068e-07
3.82601e-07
3.81166e-07
3.81007e-07
3.83501e-07
3.91194e-07
4.08567e-07
4.43118e-07
5.12619e-07
7.60258e-07
3.89848e-07
3.88871e-07
3.88993e-07
3.91476e-07
3.98715e-07
4.14978e-07
4.47464e-07
5.13452e-07
7.51581e-07
4.09453e-07
4.0882e-07
4.09023e-07
4.11073e-07
4.16999e-07
4.30501e-07
4.57876e-07
5.14543e-07
7.28442e-07
4.48005e-07
4.47159e-07
4.46673e-07
4.46711e-07
4.47896e-07
4.51556e-07
4.6015e-07
4.77754e-07
5.14897e-07
6.76866e-07
5.21605e-07
5.20476e-07
5.19603e-07
5.18995e-07
5.18673e-07
5.18665e-07
5.18727e-07
5.17702e-07
5.15292e-07
5.75913e-07
8.2139e-07
8.14468e-07
8.08089e-07
8.0196e-07
7.94933e-07
7.83609e-07
7.59648e-07
7.0589e-07
5.96957e-07
4.40014e-07
7.98331e-07
7.94382e-07
7.90585e-07
7.85776e-07
7.76656e-07
7.5505e-07
7.03878e-07
5.97866e-07
4.41948e-07
5.31498e-07
5.28439e-07
5.25947e-07
5.24064e-07
5.22769e-07
5.21709e-07
5.19535e-07
5.15473e-07
5.76024e-07
4.57587e-07
4.54788e-07
4.52968e-07
4.52556e-07
4.54877e-07
4.62276e-07
4.78682e-07
5.14191e-07
6.77958e-07
4.17548e-07
4.15091e-07
4.13828e-07
4.14597e-07
4.19439e-07
4.31965e-07
4.58374e-07
5.13769e-07
7.29873e-07
3.94499e-07
3.92518e-07
3.91807e-07
3.93553e-07
4.00153e-07
4.1583e-07
4.47734e-07
5.12964e-07
7.52468e-07
3.83215e-07
3.81724e-07
3.81498e-07
3.83912e-07
3.91525e-07
4.08812e-07
4.43259e-07
5.12599e-07
7.60084e-07
3.81543e-07
3.80466e-07
3.80584e-07
3.83285e-07
3.91138e-07
4.08638e-07
4.4328e-07
5.12839e-07
7.59358e-07
3.89203e-07
3.88463e-07
3.88773e-07
3.91391e-07
3.98735e-07
4.15079e-07
4.47621e-07
5.13631e-07
7.50767e-07
4.0916e-07
4.08662e-07
4.0897e-07
4.11092e-07
4.17073e-07
4.30616e-07
4.58014e-07
5.14674e-07
7.27739e-07
4.47825e-07
4.47089e-07
4.46674e-07
4.46763e-07
4.47979e-07
4.51657e-07
4.6026e-07
4.77859e-07
5.14965e-07
6.76271e-07
5.21387e-07
5.20354e-07
5.1955e-07
5.18988e-07
5.18692e-07
5.18697e-07
5.18757e-07
5.17713e-07
5.15253e-07
5.75472e-07
8.18194e-07
8.11821e-07
8.05939e-07
8.00232e-07
7.93539e-07
7.8246e-07
7.58663e-07
7.05031e-07
5.96231e-07
4.39748e-07
7.96351e-07
7.92814e-07
7.89342e-07
7.84765e-07
7.75778e-07
7.542e-07
7.02989e-07
5.96921e-07
4.41344e-07
5.29243e-07
5.26801e-07
5.24792e-07
5.23273e-07
5.2224e-07
5.2137e-07
5.19335e-07
5.15397e-07
5.75442e-07
4.55593e-07
4.53406e-07
4.52048e-07
4.51977e-07
4.54555e-07
4.62146e-07
4.78697e-07
5.1434e-07
6.77148e-07
4.15754e-07
4.13876e-07
4.13023e-07
4.14117e-07
4.19202e-07
4.31914e-07
4.58467e-07
5.13991e-07
7.28948e-07
3.92997e-07
3.91508e-07
3.91152e-07
3.93178e-07
3.99991e-07
4.15834e-07
4.47865e-07
5.13203e-07
7.51514e-07
3.82054e-07
3.80941e-07
3.81006e-07
3.83644e-07
3.91429e-07
4.08853e-07
4.43404e-07
5.12821e-07
7.59155e-07
3.8071e-07
3.79905e-07
3.80245e-07
3.83112e-07
3.91096e-07
4.087e-07
4.43422e-07
5.1303e-07
7.58494e-07
3.88699e-07
3.88143e-07
3.88603e-07
3.9133e-07
3.98757e-07
4.15167e-07
4.47757e-07
5.13782e-07
7.4997e-07
4.08934e-07
4.08544e-07
4.08937e-07
4.11118e-07
4.17142e-07
4.30717e-07
4.58134e-07
5.1478e-07
7.27033e-07
4.47686e-07
4.4704e-07
4.46685e-07
4.46816e-07
4.48057e-07
4.5175e-07
4.60358e-07
4.77951e-07
5.15013e-07
6.75657e-07
5.21187e-07
5.20238e-07
5.19495e-07
5.18975e-07
5.18703e-07
5.18719e-07
5.18778e-07
5.17715e-07
5.15194e-07
5.74973e-07
8.15259e-07
8.09365e-07
8.03918e-07
7.98584e-07
7.9219e-07
7.81333e-07
7.57688e-07
7.0417e-07
5.95477e-07
4.39268e-07
7.94643e-07
7.91431e-07
7.88216e-07
7.83822e-07
7.74935e-07
7.53369e-07
7.02107e-07
5.95892e-07
4.39982e-07
5.27449e-07
5.25473e-07
5.23835e-07
5.22604e-07
5.21781e-07
5.21068e-07
5.19147e-07
5.15293e-07
5.74766e-07
4.54025e-07
4.52305e-07
4.51294e-07
4.51498e-07
4.54282e-07
4.62033e-07
4.78708e-07
5.14464e-07
6.76368e-07
4.14343e-07
4.12903e-07
4.1237e-07
4.13721e-07
4.19002e-07
4.3187e-07
4.58548e-07
5.14184e-07
7.28062e-07
3.91814e-07
3.90696e-07
3.9062e-07
3.92869e-07
3.99854e-07
4.15836e-07
4.47979e-07
5.13406e-07
7.5059e-07
3.81135e-07
3.80307e-07
3.80607e-07
3.83423e-07
3.91349e-07
4.08887e-07
4.43529e-07
5.13006e-07
7.58249e-07
3.80046e-07
3.79453e-07
3.79969e-07
3.8297e-07
3.9106e-07
4.08751e-07
4.43542e-07
5.13186e-07
7.57645e-07
3.88299e-07
3.87888e-07
3.88468e-07
3.91283e-07
3.98779e-07
4.15243e-07
4.47873e-07
5.13901e-07
7.49181e-07
4.08757e-07
4.08454e-07
4.08916e-07
4.11145e-07
4.17204e-07
4.30806e-07
4.58237e-07
5.14859e-07
7.26322e-07
4.47574e-07
4.47005e-07
4.467e-07
4.46866e-07
4.48127e-07
4.51832e-07
4.60445e-07
4.78028e-07
5.15037e-07
6.75016e-07
5.20998e-07
5.20125e-07
5.19437e-07
5.18954e-07
5.18705e-07
5.18732e-07
5.18789e-07
5.17705e-07
5.15099e-07
5.74336e-07
8.12565e-07
8.07089e-07
8.02024e-07
7.97019e-07
7.90891e-07
7.80234e-07
7.56727e-07
7.03307e-07
5.94624e-07
4.37975e-07
7.93155e-07
7.90203e-07
7.87192e-07
7.8294e-07
7.74127e-07
7.52559e-07
7.01222e-07
5.94584e-07
4.35619e-07
5.26006e-07
5.24384e-07
5.23036e-07
5.22032e-07
5.2138e-07
5.20795e-07
5.18963e-07
5.15125e-07
5.73747e-07
4.5278e-07
4.51416e-07
4.50673e-07
4.51097e-07
4.54049e-07
4.61932e-07
4.78713e-07
5.14553e-07
6.75567e-07
4.13222e-07
4.12117e-07
4.11833e-07
4.13391e-07
4.18832e-07
4.3183e-07
4.58615e-07
5.14339e-07
7.2719e-07
3.90875e-07
3.90033e-07
3.90184e-07
3.92611e-07
3.99737e-07
4.15836e-07
4.48074e-07
5.13569e-07
7.49683e-07
3.804e-07
3.79792e-07
3.80278e-07
3.83238e-07
3.9128e-07
4.08913e-07
4.43632e-07
5.13151e-07
7.57358e-07
3.7951e-07
3.79083e-07
3.79741e-07
3.8285e-07
3.91028e-07
4.08792e-07
4.4364e-07
5.13303e-07
7.56809e-07
3.87976e-07
3.87682e-07
3.88358e-07
3.91245e-07
3.98797e-07
4.15307e-07
4.47969e-07
5.13987e-07
7.484e-07
4.08613e-07
4.08383e-07
4.08902e-07
4.1117e-07
4.17258e-07
4.30881e-07
4.58323e-07
5.14909e-07
7.25607e-07
4.4748e-07
4.46975e-07
4.46713e-07
4.4691e-07
4.48189e-07
4.51904e-07
4.60519e-07
4.7809e-07
5.15032e-07
6.74337e-07
5.20819e-07
5.20013e-07
5.19374e-07
5.18926e-07
5.18697e-07
5.18735e-07
5.18791e-07
5.17679e-07
5.14936e-07
5.7335e-07
8.10094e-07
8.04982e-07
8.00252e-07
7.95537e-07
7.89645e-07
7.79168e-07
7.55788e-07
7.02434e-07
5.93455e-07
4.33528e-07
7.91805e-07
7.89068e-07
7.86225e-07
7.82088e-07
7.7333e-07
7.51747e-07
7.00297e-07
5.92591e-07
4.40203e-07
5.24793e-07
5.23453e-07
5.2234e-07
5.21522e-07
5.21013e-07
5.20538e-07
5.18777e-07
5.14868e-07
5.72007e-07
4.51745e-07
4.50668e-07
4.50141e-07
4.50746e-07
4.5384e-07
4.61837e-07
4.78708e-07
5.14604e-07
6.74697e-07
4.12294e-07
4.11452e-07
4.11375e-07
4.13102e-07
4.18679e-07
4.3179e-07
4.58668e-07
5.14457e-07
7.26298e-07
3.90094e-07
3.89471e-07
3.89811e-07
3.92384e-07
3.99631e-07
4.1583e-07
4.48151e-07
5.13693e-07
7.48761e-07
3.79784e-07
3.79354e-07
3.79995e-07
3.83075e-07
3.91214e-07
4.0893e-07
4.43716e-07
5.13259e-07
7.56455e-07
3.79057e-07
3.78767e-07
3.79543e-07
3.82744e-07
3.90996e-07
4.08823e-07
4.4372e-07
5.13387e-07
7.55958e-07
3.87703e-07
3.87507e-07
3.88264e-07
3.91211e-07
3.9881e-07
4.15359e-07
4.48047e-07
5.14043e-07
7.47601e-07
4.0849e-07
4.08323e-07
4.0889e-07
4.11192e-07
4.17305e-07
4.30945e-07
4.58393e-07
5.14934e-07
7.24867e-07
4.47395e-07
4.46948e-07
4.46725e-07
4.46948e-07
4.48243e-07
4.51966e-07
4.60583e-07
4.78139e-07
5.15e-07
6.73589e-07
5.20641e-07
5.19897e-07
5.19305e-07
5.18889e-07
5.1868e-07
5.18729e-07
5.18783e-07
5.17637e-07
5.14688e-07
5.7172e-07
8.07745e-07
8.02966e-07
7.9854e-07
7.9409e-07
7.88416e-07
7.78108e-07
7.54844e-07
7.01516e-07
5.9158e-07
4.37917e-07
7.90573e-07
7.88016e-07
7.8531e-07
7.81265e-07
7.72547e-07
7.50944e-07
6.99398e-07
5.91036e-07
4.32931e-07
5.23776e-07
5.2266e-07
5.21735e-07
5.21068e-07
5.20679e-07
5.20297e-07
5.18598e-07
5.14644e-07
5.7067e-07
4.5089e-07
4.5004e-07
4.49686e-07
4.5044e-07
4.53651e-07
4.61745e-07
4.78694e-07
5.14629e-07
6.73836e-07
4.11529e-07
4.1089e-07
4.10984e-07
4.1285e-07
4.1854e-07
4.31746e-07
4.58704e-07
5.14537e-07
7.25397e-07
3.89446e-07
3.88998e-07
3.89491e-07
3.92185e-07
3.99532e-07
4.15816e-07
4.48208e-07
5.13776e-07
7.47835e-07
3.7927e-07
3.78983e-07
3.7975e-07
3.82929e-07
3.91151e-07
4.08937e-07
4.43779e-07
5.13326e-07
7.55547e-07
3.78673e-07
3.78496e-07
3.79371e-07
3.82647e-07
3.90962e-07
4.08841e-07
4.4378e-07
5.13433e-07
7.55101e-07
3.87469e-07
3.87356e-07
3.88181e-07
3.91178e-07
3.98817e-07
4.15398e-07
4.48107e-07
5.14066e-07
7.46792e-07
4.08383e-07
4.08269e-07
4.08878e-07
4.11209e-07
4.17342e-07
4.30997e-07
4.58448e-07
5.14932e-07
7.24112e-07
4.47315e-07
4.4692e-07
4.46732e-07
4.4698e-07
4.48289e-07
4.52019e-07
4.60635e-07
4.78177e-07
5.14954e-07
6.72844e-07
5.20463e-07
5.19777e-07
5.19229e-07
5.18843e-07
5.18654e-07
5.18714e-07
5.18767e-07
5.17593e-07
5.14477e-07
5.70481e-07
8.05525e-07
8.01048e-07
7.96896e-07
7.92687e-07
7.87212e-07
7.77061e-07
7.53909e-07
7.00625e-07
5.90202e-07
4.3128e-07
7.89479e-07
7.87069e-07
7.84474e-07
7.80501e-07
7.7181e-07
7.50184e-07
6.98568e-07
5.89965e-07
4.30631e-07
5.22943e-07
5.21999e-07
5.21221e-07
5.20675e-07
5.20382e-07
5.20077e-07
5.18437e-07
5.14487e-07
5.69815e-07
4.502e-07
4.49525e-07
4.49306e-07
4.50177e-07
4.53483e-07
4.61657e-07
4.78672e-07
5.14635e-07
6.73031e-07
4.10912e-07
4.10428e-07
4.10658e-07
4.12633e-07
4.18414e-07
4.31699e-07
4.58723e-07
5.14577e-07
7.24527e-07
3.88921e-07
3.88608e-07
3.89222e-07
3.92013e-07
3.99441e-07
4.15794e-07
4.48243e-07
5.13816e-07
7.4694e-07
3.78848e-07
3.78676e-07
3.79543e-07
3.82801e-07
3.9109e-07
4.08933e-07
4.43819e-07
5.13352e-07
7.54671e-07
3.78354e-07
3.7827e-07
3.79222e-07
3.8256e-07
3.90926e-07
4.08847e-07
4.43817e-07
5.13442e-07
7.54271e-07
3.87273e-07
3.87228e-07
3.88108e-07
3.91146e-07
3.98817e-07
4.15422e-07
4.48146e-07
5.14058e-07
7.46006e-07
4.08289e-07
4.08222e-07
4.08866e-07
4.1122e-07
4.17369e-07
4.31034e-07
4.58484e-07
5.14906e-07
7.23375e-07
4.4724e-07
4.4689e-07
4.46733e-07
4.47002e-07
4.48324e-07
4.5206e-07
4.60676e-07
4.78204e-07
5.14901e-07
6.72144e-07
5.2029e-07
5.19656e-07
5.19148e-07
5.1879e-07
5.1862e-07
5.1869e-07
5.18745e-07
5.17552e-07
5.14334e-07
5.69678e-07
8.03496e-07
7.99283e-07
7.95372e-07
7.91374e-07
7.86079e-07
7.7607e-07
7.53022e-07
6.99802e-07
5.89292e-07
4.29271e-07
7.885e-07
7.86213e-07
7.83708e-07
7.79794e-07
7.71122e-07
7.49471e-07
6.97799e-07
5.8911e-07
4.29701e-07
5.22255e-07
5.21445e-07
5.20783e-07
5.20331e-07
5.20117e-07
5.19876e-07
5.18292e-07
5.1437e-07
5.69157e-07
4.49637e-07
4.49096e-07
4.48986e-07
4.4995e-07
4.53332e-07
4.61572e-07
4.78642e-07
5.14622e-07
6.72266e-07
4.10409e-07
4.10045e-07
4.10383e-07
4.12445e-07
4.183e-07
4.31648e-07
4.58724e-07
5.14584e-07
7.23689e-07
3.88489e-07
3.88284e-07
3.88993e-07
3.91861e-07
3.99354e-07
4.15764e-07
4.48258e-07
5.13818e-07
7.46081e-07
3.78497e-07
3.78418e-07
3.79365e-07
3.82687e-07
3.91028e-07
4.08917e-07
4.43837e-07
5.13343e-07
7.53831e-07
3.78086e-07
3.78077e-07
3.79093e-07
3.82479e-07
3.90885e-07
4.08841e-07
4.43834e-07
5.13418e-07
7.53473e-07
3.87104e-07
3.87117e-07
3.88042e-07
3.91113e-07
3.98809e-07
4.15434e-07
4.48166e-07
5.14021e-07
7.45248e-07
4.08204e-07
4.08177e-07
4.0885e-07
4.11224e-07
4.17386e-07
4.31058e-07
4.58505e-07
5.14858e-07
7.22662e-07
4.47168e-07
4.46858e-07
4.46728e-07
4.47016e-07
4.48349e-07
4.52089e-07
4.60705e-07
4.78219e-07
5.14841e-07
6.71477e-07
5.20121e-07
5.19536e-07
5.19063e-07
5.18731e-07
5.18579e-07
5.18659e-07
5.18717e-07
5.17513e-07
5.14228e-07
5.69052e-07
8.01638e-07
7.97658e-07
7.93961e-07
7.90151e-07
7.85016e-07
7.75137e-07
7.52187e-07
6.99039e-07
5.88583e-07
4.28502e-07
7.87618e-07
7.85437e-07
7.83009e-07
7.79143e-07
7.70485e-07
7.48811e-07
6.97086e-07
5.88356e-07
4.29079e-07
5.21681e-07
5.20976e-07
5.20407e-07
5.2003e-07
5.19879e-07
5.19692e-07
5.18158e-07
5.14267e-07
5.6856e-07
4.49173e-07
4.48737e-07
4.48714e-07
4.49752e-07
4.53196e-07
4.61489e-07
4.78605e-07
5.1459e-07
6.71532e-07
4.09994e-07
4.09724e-07
4.10148e-07
4.1228e-07
4.18193e-07
4.31593e-07
4.58711e-07
5.14559e-07
7.22887e-07
3.8813e-07
3.88011e-07
3.88797e-07
3.91726e-07
3.9927e-07
4.15725e-07
4.48254e-07
5.13788e-07
7.45263e-07
3.78202e-07
3.78199e-07
3.79209e-07
3.82582e-07
3.90966e-07
4.0889e-07
4.43836e-07
5.13302e-07
7.53031e-07
3.77856e-07
3.77912e-07
3.78978e-07
3.82404e-07
3.90841e-07
4.08823e-07
4.43831e-07
5.13366e-07
7.52715e-07
3.86957e-07
3.8702e-07
3.87981e-07