/*--------------------------------*- C++ -*----------------------------------*\
| =========                 |                                                 |
| \\      /  F ield         | OpenFOAM: The Open Source CFD Toolbox           |
|  \\    /   O peration     | Version:  2.3.1                                 |
|   \\  /    A nd           | Web:      www.OpenFOAM.org                      |
|    \\/     M anipulation  |                                                 |
\*---------------------------------------------------------------------------*/
FoamFile
{
    version     2.0;
    format      ascii;
    class       volScalarField;
    location    "15";
    object      k;
}
// * * * * * * * * * * * * * * * * * * * * * * * * * * * * * * * * * * * * * //

dimensions      [0 2 -2 0 0 0 0];

internalField   nonuniform List<scalar> 
37784
(
5.92584e-06
5.78213e-06
5.68158e-06
5.60625e-06
5.53576e-06
5.4296e-06
5.18002e-06
4.57899e-06
3.97643e-06
5.62754e-06
5.46709e-06
5.34824e-06
5.2613e-06
5.19572e-06
5.13497e-06
5.04173e-06
4.81831e-06
4.25547e-06
3.84081e-06
4.73548e-06
4.59533e-06
4.48882e-06
4.41065e-06
4.35309e-06
4.30599e-06
4.24712e-06
4.11059e-06
3.75888e-06
3.73176e-06
3.00701e-06
2.92189e-06
2.85836e-06
2.81289e-06
2.78066e-06
2.75767e-06
2.73898e-06
2.71649e-06
2.69275e-06
3.2029e-06
1.17243e-05
1.16142e-05
1.15724e-05
1.15463e-05
1.14924e-05
1.1323e-05
1.08263e-05
9.53809e-06
6.21126e-06
1.10844e-05
1.09341e-05
1.08492e-05
1.07972e-05
1.07577e-05
1.06968e-05
1.05317e-05
1.00566e-05
8.7861e-06
5.64248e-06
9.33192e-06
9.21262e-06
9.12403e-06
9.06174e-06
9.01547e-06
8.96409e-06
8.85259e-06
8.52537e-06
7.60838e-06
5.35692e-06
5.39787e-06
5.31104e-06
5.24472e-06
5.19648e-06
5.16165e-06
5.13432e-06
5.10272e-06
5.03362e-06
4.86287e-06
4.73397e-06
1.52765e-05
1.49681e-05
1.48084e-05
1.47087e-05
1.45897e-05
1.43347e-05
1.36912e-05
1.20981e-05
7.5011e-06
1.43882e-05
1.4084e-05
1.3892e-05
1.37728e-05
1.36841e-05
1.35728e-05
1.33306e-05
1.27044e-05
1.10893e-05
6.53635e-06
1.2018e-05
1.18232e-05
1.16812e-05
1.1579e-05
1.14997e-05
1.14119e-05
1.12381e-05
1.07744e-05
9.53017e-06
6.06763e-06
6.57385e-06
6.45865e-06
6.36676e-06
6.29672e-06
6.24363e-06
6.19872e-06
6.14124e-06
6.01227e-06
5.68921e-06
5.21829e-06
1.75166e-05
1.70862e-05
1.68497e-05
1.6696e-05
1.65273e-05
1.62073e-05
1.5463e-05
1.36808e-05
8.33723e-06
1.64627e-05
1.60654e-05
1.58083e-05
1.56419e-05
1.55175e-05
1.53675e-05
1.50659e-05
1.4332e-05
1.24893e-05
7.06916e-06
1.37059e-05
1.34637e-05
1.32853e-05
1.31565e-05
1.3054e-05
1.29374e-05
1.27117e-05
1.21404e-05
1.06589e-05
6.43783e-06
7.28451e-06
7.15001e-06
7.04105e-06
6.95644e-06
6.89051e-06
6.83134e-06
6.74909e-06
6.56202e-06
6.10354e-06
5.39209e-06
1.9025e-05
1.8532e-05
1.82481e-05
1.80556e-05
1.78461e-05
1.74704e-05
1.66424e-05
1.47118e-05
8.86881e-06
1.78449e-05
1.74022e-05
1.71081e-05
1.69119e-05
1.67605e-05
1.65782e-05
1.6226e-05
1.54034e-05
1.33858e-05
7.39658e-06
1.48207e-05
1.45542e-05
1.4355e-05
1.42088e-05
1.40893e-05
1.39485e-05
1.36777e-05
1.30166e-05
1.13518e-05
6.64053e-06
7.73713e-06
7.59249e-06
7.47404e-06
7.38077e-06
7.30626e-06
7.23566e-06
7.13127e-06
6.89366e-06
6.32832e-06
5.45745e-06
2.0046e-05
1.95363e-05
1.9229e-05
1.90104e-05
1.87674e-05
1.83422e-05
1.74378e-05
1.53758e-05
9.17942e-06
1.87644e-05
1.83132e-05
1.80049e-05
1.77929e-05
1.76224e-05
1.74132e-05
1.70164e-05
1.61172e-05
1.39585e-05
7.59538e-06
1.55541e-05
1.52822e-05
1.50752e-05
1.49198e-05
1.47885e-05
1.46276e-05
1.43178e-05
1.35818e-05
1.17756e-05
6.75405e-06
8.02566e-06
7.8782e-06
7.7562e-06
7.65876e-06
7.57897e-06
7.49952e-06
7.37647e-06
7.09793e-06
6.45449e-06
5.48561e-06
2.07238e-05
2.02295e-05
1.99174e-05
1.96833e-05
1.94133e-05
1.89431e-05
1.79655e-05
1.57774e-05
9.31452e-06
1.93578e-05
1.89245e-05
1.86197e-05
1.84028e-05
1.82204e-05
1.7989e-05
1.7553e-05
1.65864e-05
1.43114e-05
7.70807e-06
1.60216e-05
1.57585e-05
1.55538e-05
1.53961e-05
1.52576e-05
1.50807e-05
1.47381e-05
1.39405e-05
1.20269e-05
6.81682e-06
8.20207e-06
8.05728e-06
7.93619e-06
7.83804e-06
7.75563e-06
7.66975e-06
7.53183e-06
7.222e-06
6.52484e-06
5.50009e-06
2.11562e-05
2.06977e-05
2.03944e-05
2.0153e-05
1.98613e-05
1.93499e-05
1.83004e-05
1.59838e-05
9.29662e-06
1.97193e-05
1.93207e-05
1.90317e-05
1.88185e-05
1.86299e-05
1.83809e-05
1.79105e-05
1.68843e-05
1.45118e-05
7.76052e-06
1.63023e-05
1.60573e-05
1.58623e-05
1.57076e-05
1.5566e-05
1.5377e-05
1.50074e-05
1.41603e-05
1.21667e-05
6.8496e-06
8.30078e-06
8.1625e-06
8.04553e-06
7.94925e-06
7.86636e-06
7.77624e-06
7.62714e-06
7.29456e-06
6.56244e-06
5.50872e-06
2.14142e-05
2.10025e-05
2.07167e-05
2.04743e-05
2.01655e-05
1.96164e-05
1.8496e-05
1.60439e-05
9.13607e-06
1.99179e-05
1.95629e-05
1.92974e-05
1.90938e-05
1.89037e-05
1.86411e-05
1.81408e-05
1.70621e-05
1.46067e-05
7.76873e-06
1.64533e-05
1.62317e-05
1.60512e-05
1.59035e-05
1.57619e-05
1.55643e-05
1.51733e-05
1.42871e-05
1.22351e-05
6.86438e-06
8.34665e-06
8.21727e-06
8.10654e-06
8.01399e-06
7.93225e-06
7.83978e-06
7.68275e-06
7.33439e-06
6.58074e-06
5.51437e-06
2.15507e-05
2.11899e-05
2.09264e-05
2.06873e-05
2.03652e-05
1.97821e-05
1.85937e-05
1.60022e-05
8.81022e-06
2.00054e-05
1.96967e-05
1.94586e-05
1.92682e-05
1.90799e-05
1.88073e-05
1.82818e-05
1.71577e-05
1.46317e-05
7.7474e-06
1.65167e-05
1.63206e-05
1.61572e-05
1.6019e-05
1.588e-05
1.56768e-05
1.52693e-05
1.43532e-05
1.22595e-05
6.86857e-06
8.3577e-06
8.23864e-06
8.1354e-06
8.04775e-06
7.96835e-06
7.87508e-06
7.71278e-06
7.35399e-06
6.58781e-06
5.51829e-06
8.36223e-06
8.17256e-06
8.04404e-06
7.95057e-06
7.8578e-06
7.70433e-06
7.36399e-06
6.61199e-06
5.55451e-06
1.65257e-05
1.59459e-05
1.566e-05
1.55169e-05
1.53716e-05
1.50449e-05
1.42143e-05
1.22118e-05
6.92722e-06
2.12612e-05
2.01821e-05
1.95438e-05
1.91507e-05
1.88037e-05
1.82665e-05
1.71565e-05
1.46527e-05
7.79152e-06
2.34061e-05
2.21493e-05
2.14016e-05
2.0922e-05
2.04899e-05
1.98555e-05
1.86277e-05
1.59473e-05
8.43797e-06
2.42385e-05
2.2997e-05
2.22653e-05
2.17823e-05
2.13276e-05
2.06587e-05
1.94104e-05
1.68091e-05
2.41505e-05
2.31386e-05
2.25314e-05
2.21027e-05
2.16633e-05
2.09923e-05
1.97517e-05
1.72281e-05
2.36047e-05
2.28776e-05
2.24096e-05
2.20494e-05
2.16408e-05
2.09804e-05
1.97384e-05
1.71992e-05
2.27732e-05
2.22979e-05
2.19637e-05
2.16711e-05
2.12971e-05
2.06516e-05
1.93937e-05
1.67546e-05
2.16052e-05
2.12943e-05
2.10553e-05
2.08221e-05
2.04901e-05
1.98774e-05
1.86274e-05
1.59031e-05
8.39051e-06
2.00202e-05
1.97567e-05
1.95468e-05
1.93714e-05
1.91874e-05
1.89077e-05
1.83616e-05
1.71996e-05
1.46164e-05
7.70806e-06
1.65235e-05
1.63531e-05
1.62075e-05
1.60801e-05
1.59454e-05
1.57393e-05
1.53195e-05
1.43815e-05
1.22586e-05
6.86731e-06
8.34751e-06
8.23856e-06
8.14357e-06
8.06154e-06
7.98528e-06
7.89235e-06
7.72687e-06
7.36156e-06
6.5885e-06
5.52109e-06
8.27768e-06
8.13354e-06
8.02995e-06
7.94784e-06
7.86061e-06
7.70739e-06
7.36304e-06
6.60854e-06
5.55561e-06
1.62801e-05
1.58835e-05
1.56815e-05
1.55669e-05
1.54233e-05
1.50828e-05
1.42284e-05
1.22017e-05
6.91708e-06
2.08229e-05
2.00047e-05
1.95084e-05
1.91781e-05
1.88508e-05
1.83052e-05
1.71657e-05
1.462e-05
7.75895e-06
2.29294e-05
2.19664e-05
2.13719e-05
2.096e-05
2.05474e-05
1.98988e-05
1.86237e-05
1.58504e-05
8.25929e-06
2.37977e-05
2.28497e-05
2.22606e-05
2.18383e-05
2.13959e-05
2.07024e-05
1.93796e-05
1.65709e-05
8.8066e-06
2.38406e-05
2.30631e-05
2.25629e-05
2.2177e-05
2.17404e-05
2.1036e-05
1.97007e-05
1.68995e-05
9.09616e-06
2.3446e-05
2.28646e-05
2.24688e-05
2.21356e-05
2.1723e-05
2.10263e-05
1.96884e-05
1.68736e-05
9.0636e-06
2.27241e-05
2.23312e-05
2.20375e-05
2.17593e-05
2.13781e-05
2.07002e-05
1.93644e-05
1.65179e-05
8.75225e-06
2.16068e-05
2.13422e-05
2.11273e-05
2.09017e-05
2.05629e-05
1.99258e-05
1.86249e-05
1.5802e-05
8.19039e-06
1.99916e-05
1.97682e-05
1.95856e-05
1.94258e-05
1.92474e-05
1.89635e-05
1.84013e-05
1.72095e-05
1.45832e-05
7.68033e-06
1.64977e-05
1.635e-05
1.62218e-05
1.61058e-05
1.59764e-05
1.57693e-05
1.53412e-05
1.43877e-05
1.22459e-05
6.86447e-06
8.32542e-06
8.2267e-06
8.13915e-06
8.06284e-06
7.99025e-06
7.89854e-06
7.73142e-06
7.36236e-06
6.58604e-06
5.52318e-06
8.20747e-06
8.09548e-06
8.01092e-06
7.94037e-06
7.85767e-06
7.70529e-06
7.35891e-06
6.60328e-06
5.55587e-06
1.61048e-05
1.58345e-05
1.56914e-05
1.55977e-05
1.54551e-05
1.51033e-05
1.42305e-05
1.21859e-05
6.90654e-06
2.04458e-05
1.98399e-05
1.94577e-05
1.91811e-05
1.88711e-05
1.83195e-05
1.7158e-05
1.45824e-05
7.73265e-06
2.25143e-05
2.17896e-05
2.13205e-05
2.09667e-05
2.0572e-05
1.99127e-05
1.86018e-05
1.57658e-05
8.17032e-06
2.34177e-05
2.27007e-05
2.22293e-05
2.18576e-05
2.14272e-05
2.07145e-05
1.93329e-05
1.63939e-05
8.46053e-06
2.35683e-05
2.29703e-05
2.25589e-05
2.22109e-05
2.17783e-05
2.10473e-05
1.96377e-05
1.66612e-05
8.58716e-06
2.32834e-05
2.28234e-05
2.24884e-05
2.218e-05
2.17657e-05
2.104e-05
1.9627e-05
1.66402e-05
8.5624e-06
2.26501e-05
2.2327e-05
2.20701e-05
2.18064e-05
2.14208e-05
2.07171e-05
1.93207e-05
1.63478e-05
8.40945e-06
2.15776e-05
2.13531e-05
2.11607e-05
2.09436e-05
2.06006e-05
1.99444e-05
1.86052e-05
1.5716e-05
8.10268e-06
1.9938e-05
1.97509e-05
1.95925e-05
1.94479e-05
1.9276e-05
1.899e-05
1.8416e-05
1.72028e-05
1.45469e-05
7.66321e-06
1.64531e-05
1.63272e-05
1.62144e-05
1.61092e-05
1.59859e-05
1.57794e-05
1.53459e-05
1.43826e-05
1.22284e-05
6.8617e-06
8.29652e-06
8.20736e-06
8.12784e-06
8.05714e-06
7.9881e-06
7.8981e-06
7.7305e-06
7.35981e-06
6.582e-06
5.52476e-06
8.14911e-06
8.06084e-06
7.9913e-06
7.92972e-06
7.85187e-06
7.70072e-06
7.35285e-06
6.59759e-06
5.55543e-06
1.59827e-05
1.57984e-05
1.56965e-05
1.56176e-05
1.54753e-05
1.51143e-05
1.42278e-05
1.21702e-05
6.89619e-06
2.01418e-05
1.96987e-05
1.94053e-05
1.91718e-05
1.8876e-05
1.83203e-05
1.71423e-05
1.45475e-05
7.71122e-06
2.21724e-05
2.16316e-05
2.12618e-05
2.09561e-05
2.05767e-05
1.99102e-05
1.85728e-05
1.56985e-05
8.12178e-06
2.31031e-05
2.25623e-05
2.21834e-05
2.18547e-05
2.14355e-05
2.07092e-05
1.92859e-05
1.62712e-05
8.32874e-06
2.33353e-05
2.28744e-05
2.25355e-05
2.2219e-05
2.17914e-05
2.10409e-05
1.95786e-05
1.65013e-05
8.40259e-06
2.31313e-05
2.27671e-05
2.24833e-05
2.2197e-05
2.17829e-05
2.10356e-05
1.95695e-05
1.64814e-05
8.38419e-06
2.25668e-05
2.23016e-05
2.20762e-05
2.18263e-05
2.14387e-05
2.07159e-05
1.92766e-05
1.62276e-05
8.28475e-06
2.15309e-05
2.13417e-05
2.11692e-05
2.09608e-05
2.06158e-05
1.99458e-05
1.85791e-05
1.56491e-05
8.06292e-06
1.98734e-05
1.9717e-05
1.95807e-05
1.94497e-05
1.92846e-05
1.89983e-05
1.84163e-05
1.71883e-05
1.4514e-05
7.65232e-06
1.64006e-05
1.62931e-05
1.61952e-05
1.61002e-05
1.59827e-05
1.57779e-05
1.53415e-05
1.4372e-05
1.22108e-05
6.85927e-06
8.26525e-06
8.18478e-06
8.11237e-06
8.04722e-06
7.9821e-06
7.89417e-06
7.72682e-06
7.35545e-06
6.57746e-06
5.52588e-06
8.10115e-06
8.03054e-06
7.97272e-06
7.91852e-06
7.8446e-06
7.69477e-06
7.34628e-06
6.5918e-06
5.55436e-06
1.58999e-05
1.57741e-05
1.57006e-05
1.56321e-05
1.54893e-05
1.51208e-05
1.42233e-05
1.21564e-05
6.88621e-06
1.99066e-05
1.95835e-05
1.93573e-05
1.91573e-05
1.88731e-05
1.83149e-05
1.7125e-05
1.45179e-05
7.69309e-06
2.19004e-05
2.14972e-05
2.12042e-05
2.09371e-05
2.05709e-05
1.99001e-05
1.85445e-05
1.56475e-05
8.09094e-06
2.28493e-05
2.24401e-05
2.21334e-05
2.18402e-05
2.1431e-05
2.06956e-05
1.92444e-05
1.61879e-05
8.26954e-06
2.31405e-05
2.27833e-05
2.25013e-05
2.22121e-05
2.17899e-05
2.10261e-05
1.95289e-05
1.63955e-05
8.3278e-06
2.29961e-05
2.27066e-05
2.24648e-05
2.21972e-05
2.17848e-05
2.10227e-05
1.95212e-05
1.63761e-05
8.31414e-06
2.24831e-05
2.22644e-05
2.20668e-05
2.18292e-05
2.14416e-05
2.07058e-05
1.92381e-05
1.6145e-05
8.23428e-06
2.14773e-05
2.13176e-05
2.11628e-05
2.09627e-05
2.06176e-05
1.99385e-05
1.85534e-05
1.55989e-05
8.04219e-06
1.98064e-05
1.96756e-05
1.95583e-05
1.94401e-05
1.92815e-05
1.89961e-05
1.84094e-05
1.71719e-05
1.44865e-05
7.64501e-06
1.63467e-05
1.6255e-05
1.61698e-05
1.60842e-05
1.59728e-05
1.57704e-05
1.53327e-05
1.43598e-05
1.21945e-05
6.85706e-06
8.23383e-06
8.16113e-06
8.09525e-06
8.03522e-06
7.97375e-06
7.88807e-06
7.72146e-06
7.35035e-06
6.57273e-06
5.52655e-06
8.06193e-06
8.00452e-06
7.95588e-06
7.90764e-06
7.8371e-06
7.68848e-06
7.33963e-06
6.58599e-06
5.55269e-06
1.58458e-05
1.57595e-05
1.57055e-05
1.5644e-05
1.55002e-05
1.51253e-05
1.42192e-05
1.21449e-05
6.87661e-06
1.97291e-05
1.94928e-05
1.93166e-05
1.91421e-05
1.88672e-05
1.83071e-05
1.71091e-05
1.44937e-05
7.67721e-06
2.16888e-05
2.13866e-05
2.11522e-05
2.09153e-05
2.05602e-05
1.98869e-05
1.85196e-05
1.56094e-05
8.06843e-06
2.2648e-05
2.2336e-05
2.2085e-05
2.18199e-05
2.142e-05
2.0679e-05
1.92103e-05
1.61304e-05
8.23745e-06
2.29804e-05
2.27011e-05
2.24641e-05
2.21973e-05
2.1781e-05
2.10085e-05
1.94895e-05
1.63246e-05
8.29255e-06
2.28796e-05
2.26476e-05
2.24394e-05
2.21883e-05
2.17786e-05
2.10067e-05
1.94831e-05
1.63064e-05
8.28164e-06
2.24044e-05
2.22233e-05
2.20488e-05
2.18226e-05
2.14362e-05
2.0692e-05
1.92066e-05
1.60889e-05
8.21001e-06
2.14232e-05
2.12874e-05
2.11481e-05
2.09561e-05
2.0612e-05
1.99272e-05
1.85308e-05
1.5562e-05
8.02985e-06
1.97423e-05
1.96325e-05
1.95312e-05
1.94241e-05
1.9272e-05
1.89885e-05
1.83991e-05
1.71561e-05
1.44641e-05
7.63947e-06
1.62952e-05
1.62167e-05
1.61425e-05
1.60653e-05
1.59595e-05
1.57598e-05
1.53222e-05
1.43477e-05
1.21799e-05
6.85486e-06
8.20348e-06
8.13767e-06
8.0777e-06
8.02237e-06
7.96437e-06
7.88095e-06
7.71539e-06
7.3449e-06
6.56789e-06
5.52675e-06
8.02985e-06
7.98237e-06
7.9409e-06
7.89749e-06
7.82975e-06
7.68216e-06
7.33307e-06
6.58015e-06
5.55051e-06
1.58123e-05
1.57527e-05
1.57119e-05
1.56548e-05
1.55095e-05
1.51294e-05
1.42162e-05
1.21354e-05
6.86736e-06
1.95977e-05
1.94232e-05
1.92839e-05
1.91285e-05
1.88606e-05
1.82994e-05
1.70955e-05
1.4474e-05
7.66302e-06
2.15266e-05
2.12979e-05
2.11076e-05
2.08942e-05
2.05482e-05
1.98739e-05
1.8499e-05
1.55792e-05
8.05186e-06
2.24903e-05
2.22496e-05
2.20411e-05
2.17985e-05
2.14067e-05
2.06629e-05
1.91834e-05
1.60885e-05
8.21847e-06
2.28506e-05
2.26297e-05
2.24278e-05
2.21793e-05
2.17686e-05
2.09915e-05
1.94592e-05
1.62761e-05
8.27267e-06
2.27815e-05
2.25935e-05
2.2412e-05
2.21747e-05
2.17684e-05
2.09909e-05
1.9454e-05
1.62594e-05
8.26354e-06
2.23338e-05
2.21827e-05
2.20272e-05
2.18109e-05
2.14268e-05
2.06778e-05
1.91819e-05
1.60502e-05
8.196e-06
2.13721e-05
2.12559e-05
2.11297e-05
2.09449e-05
2.06028e-05
1.9915e-05
1.85119e-05
1.55346e-05
8.02153e-06
1.96836e-05
1.95909e-05
1.95031e-05
1.94056e-05
1.92595e-05
1.89783e-05
1.8388e-05
1.71419e-05
1.44456e-05
7.63481e-06
1.62478e-05
1.61804e-05
1.61156e-05
1.60458e-05
1.59451e-05
1.57483e-05
1.53114e-05
1.43364e-05
1.21669e-05
6.8525e-06
8.17479e-06
8.11508e-06
8.06039e-06
8.00935e-06
7.95458e-06
7.87335e-06
7.70897e-06
7.33928e-06
6.56296e-06
5.52649e-06
8.00348e-06
7.96354e-06
7.92768e-06
7.88813e-06
7.8227e-06
7.67593e-06
7.32665e-06
6.57397e-06
5.54818e-06
1.57933e-05
1.57516e-05
1.57197e-05
1.56651e-05
1.55182e-05
1.51335e-05
1.42143e-05
1.21262e-05
6.86003e-06
1.95014e-05
1.93711e-05
1.92586e-05
1.91175e-05
1.88549e-05
1.82927e-05
1.70844e-05
1.44557e-05
7.65241e-06
2.14034e-05
2.12281e-05
2.10708e-05
2.08755e-05
2.05369e-05
1.98623e-05
1.84823e-05
1.55542e-05
8.04001e-06
2.23677e-05
2.21793e-05
2.20032e-05
2.17783e-05
2.13934e-05
2.06486e-05
1.91624e-05
1.60571e-05
8.20548e-06
2.27465e-05
2.25693e-05
2.23946e-05
2.2161e-05
2.17557e-05
2.09763e-05
1.94362e-05
1.62416e-05
8.25958e-06
2.27002e-05
2.25459e-05
2.23856e-05
2.21598e-05
2.17572e-05
2.09767e-05
1.94321e-05
1.62266e-05
8.25176e-06
2.22724e-05
2.2145e-05
2.2005e-05
2.17974e-05
2.14161e-05
2.06647e-05
1.91627e-05
1.60225e-05
8.18659e-06
2.13256e-05
2.12254e-05
2.11103e-05
2.09321e-05
2.05925e-05
1.99033e-05
1.84965e-05
1.55137e-05
8.01516e-06
1.96313e-05
1.95526e-05
1.94759e-05
1.93868e-05
1.92461e-05
1.89675e-05
1.83772e-05
1.71296e-05
1.44303e-05
7.63051e-06
1.62052e-05
1.61471e-05
1.60903e-05
1.60269e-05
1.59308e-05
1.57369e-05
1.53011e-05
1.43261e-05
1.21553e-05
6.84988e-06
8.14804e-06
8.09367e-06
8.04369e-06
7.99652e-06
7.94472e-06
7.86556e-06
7.70238e-06
7.33354e-06
6.55793e-06
5.52578e-06
7.98165e-06
7.94748e-06
7.91602e-06
7.87956e-06
7.81597e-06
7.66981e-06
7.32032e-06
6.56753e-06
5.5456e-06
1.57841e-05
1.57544e-05
1.57284e-05
1.56751e-05
1.55265e-05
1.51378e-05
1.42133e-05
1.21172e-05
6.85435e-06
1.94316e-05
1.93326e-05
1.92397e-05
1.91091e-05
1.88505e-05
1.82875e-05
1.70754e-05
1.44391e-05
7.64402e-06
2.13103e-05
2.11738e-05
2.10411e-05
2.08598e-05
2.05271e-05
1.98527e-05
1.8469e-05
1.5533e-05
8.03051e-06
2.22727e-05
2.21228e-05
2.19713e-05
2.17604e-05
2.13815e-05
2.06366e-05
1.91461e-05
1.60325e-05
8.19544e-06
2.26635e-05
2.25191e-05
2.23657e-05
2.21441e-05
2.17437e-05
2.09636e-05
1.94187e-05
1.62159e-05
8.24978e-06
2.26336e-05
2.2505e-05
2.23616e-05
2.21453e-05
2.17463e-05
2.09647e-05
1.94154e-05
1.62024e-05
8.24306e-06
2.22199e-05
2.21113e-05
2.1984e-05
2.17838e-05
2.14055e-05
2.06533e-05
1.91477e-05
1.60017e-05
8.17936e-06
2.12845e-05
2.11974e-05
2.10916e-05
2.09192e-05
2.05822e-05
1.98928e-05
1.84839e-05
1.54972e-05
8.00964e-06
1.95855e-05
1.95181e-05
1.94509e-05
1.93688e-05
1.92329e-05
1.89569e-05
1.83673e-05
1.71189e-05
1.44172e-05
7.62626e-06
1.61674e-05
1.6117e-05
1.60671e-05
1.60092e-05
1.59173e-05
1.57261e-05
1.52916e-05
1.43169e-05
1.2145e-05
6.84697e-06
8.12326e-06
8.07357e-06
8.02776e-06
7.98407e-06
7.93497e-06
7.85773e-06
7.69573e-06
7.3277e-06
6.5528e-06
5.52464e-06
7.96341e-06
7.9337e-06
7.90569e-06
7.87168e-06
7.80955e-06
7.66383e-06
7.31407e-06
6.56094e-06
5.54268e-06
1.57814e-05
1.576e-05
1.57376e-05
1.56849e-05
1.55345e-05
1.51422e-05
1.42129e-05
1.21088e-05
6.84934e-06
1.93812e-05
1.93046e-05
1.92259e-05
1.91032e-05
1.88474e-05
1.82836e-05
1.70681e-05
1.44241e-05
7.63674e-06
2.12403e-05
2.11319e-05
2.10178e-05
2.0847e-05
2.05191e-05
1.98449e-05
1.84583e-05
1.55149e-05
8.0223e-06
2.21993e-05
2.20779e-05
2.19452e-05
2.17453e-05
2.13713e-05
2.06267e-05
1.91332e-05
1.60125e-05
8.18699e-06
2.25976e-05
2.24779e-05
2.2341e-05
2.21292e-05
2.17331e-05
2.0953e-05
1.94051e-05
1.61957e-05
8.24175e-06
2.25792e-05
2.24705e-05
2.23405e-05
2.21321e-05
2.17366e-05
2.09547e-05
1.94025e-05
1.61838e-05
8.23589e-06
2.21757e-05
2.20819e-05
2.19649e-05
2.17711e-05
2.13957e-05
2.06435e-05
1.91359e-05
1.59854e-05
8.17309e-06
2.12487e-05
2.11723e-05
2.10743e-05
2.0907e-05
2.05726e-05
1.98836e-05
1.84735e-05
1.54836e-05
8.00442e-06
1.95458e-05
1.94877e-05
1.94282e-05
1.93522e-05
1.92206e-05
1.89471e-05
1.83584e-05
1.71096e-05
1.4406e-05
7.62193e-06
1.61341e-05
1.60902e-05
1.6046e-05
1.5993e-05
1.59048e-05
1.5716e-05
1.52828e-05
1.43085e-05
1.21357e-05
6.84377e-06
8.1004e-06
8.05481e-06
8.01268e-06
7.97209e-06
7.92543e-06
7.84995e-06
7.68905e-06
7.3218e-06
6.54758e-06
5.52305e-06
7.948e-06
7.92176e-06
7.89648e-06
7.86441e-06
7.80341e-06
7.65797e-06
7.30786e-06
6.55423e-06
5.53923e-06
1.57829e-05
1.5767e-05
1.5747e-05
1.56943e-05
1.55422e-05
1.51466e-05
1.42129e-05
1.2101e-05
6.84465e-06
1.9345e-05
1.92845e-05
1.92163e-05
1.90992e-05
1.88454e-05
1.82809e-05
1.70623e-05
1.44108e-05
7.63013e-06
2.11875e-05
2.10999e-05
2.09996e-05
2.0837e-05
2.05127e-05
1.98387e-05
1.84496e-05
1.54991e-05
8.01491e-06
2.21426e-05
2.20424e-05
2.1924e-05
2.17327e-05
2.13628e-05
2.06187e-05
1.91229e-05
1.59957e-05
8.17952e-06
2.25453e-05
2.24445e-05
2.23205e-05
2.21165e-05
2.17241e-05
2.09444e-05
1.93944e-05
1.61793e-05
8.23464e-06
2.25351e-05
2.24418e-05
2.23224e-05
2.21205e-05
2.1728e-05
2.09464e-05
1.93924e-05
1.61687e-05
8.22939e-06
2.21386e-05
2.20566e-05
2.1948e-05
2.17597e-05
2.1387e-05
2.06353e-05
1.91263e-05
1.59721e-05
8.16718e-06
2.1218e-05
2.11503e-05
2.10588e-05
2.08959e-05
2.05639e-05
1.98756e-05
1.84648e-05
1.54723e-05
7.99927e-06
1.95115e-05
1.9461e-05
1.94081e-05
1.93372e-05
1.92093e-05
1.89382e-05
1.83504e-05
1.71016e-05
1.43962e-05
7.61746e-06
1.6105e-05
1.60665e-05
1.60272e-05
1.59782e-05
1.58933e-05
1.57068e-05
1.52748e-05
1.43009e-05
1.21274e-05
6.84027e-06
8.07936e-06
8.03734e-06
7.99845e-06
7.96063e-06
7.91615e-06
7.84227e-06
7.6824e-06
7.31585e-06
6.54226e-06
5.52082e-06
7.93485e-06
7.91132e-06
7.88819e-06
7.85765e-06
7.79753e-06
7.65222e-06
7.30171e-06
6.54732e-06
5.53417e-06
1.57869e-05
1.57747e-05
1.57562e-05
1.57032e-05
1.55494e-05
1.51509e-05
1.42132e-05
1.20939e-05
6.84003e-06
1.93191e-05
1.92703e-05
1.92097e-05
1.90968e-05
1.88444e-05
1.8279e-05
1.70575e-05
1.43989e-05
7.62405e-06
2.11477e-05
2.10754e-05
2.09856e-05
2.08293e-05
2.05078e-05
1.98339e-05
1.84424e-05
1.54854e-05
8.00813e-06
2.20986e-05
2.20144e-05
2.1907e-05
2.17225e-05
2.13559e-05
2.06123e-05
1.91146e-05
1.59813e-05
8.1726e-06
2.25037e-05
2.24174e-05
2.23035e-05
2.21058e-05
2.17166e-05
2.09374e-05
1.93857e-05
1.61655e-05
8.22792e-06
2.24993e-05
2.2418e-05
2.2307e-05
2.21105e-05
2.17208e-05
2.09397e-05
1.93842e-05
1.61563e-05
8.22314e-06
2.21076e-05
2.2035e-05
2.19334e-05
2.17496e-05
2.13794e-05
2.06283e-05
1.91185e-05
1.59611e-05
8.1614e-06
2.11916e-05
2.1131e-05
2.1045e-05
2.08859e-05
2.05561e-05
1.98687e-05
1.84574e-05
1.54626e-05
7.99409e-06
1.9482e-05
1.94378e-05
1.93902e-05
1.93238e-05
1.91992e-05
1.89301e-05
1.83434e-05
1.70945e-05
1.43877e-05
7.61284e-06
1.60795e-05
1.60454e-05
1.60103e-05
1.59649e-05
1.58828e-05
1.56983e-05
1.52676e-05
1.42941e-05
1.21198e-05
6.83631e-06
8.06001e-06
8.02111e-06
7.98506e-06
7.94969e-06
7.90717e-06
7.83473e-06
7.6758e-06
7.30989e-06
6.53674e-06
5.5168e-06
7.92349e-06
7.90212e-06
7.88069e-06
7.85135e-06
7.79187e-06
7.64659e-06
7.29559e-06
6.53979e-06
5.52278e-06
1.57923e-05
1.57826e-05
1.5765e-05
1.57115e-05
1.55561e-05
1.51551e-05
1.42137e-05
1.20875e-05
6.83467e-06
1.93005e-05
1.92603e-05
1.92053e-05
1.90955e-05
1.88441e-05
1.82777e-05
1.70536e-05
1.43884e-05
7.61818e-06
2.11175e-05
2.10567e-05
2.09748e-05
2.08233e-05
2.05041e-05
1.98301e-05
1.84365e-05
1.54735e-05
8.00164e-06
2.20643e-05
2.19923e-05
2.18934e-05
2.17143e-05
2.13504e-05
2.06071e-05
1.91077e-05
1.59691e-05
8.1659e-06
2.24706e-05
2.23954e-05
2.22894e-05
2.20969e-05
2.17103e-05
2.09317e-05
1.93786e-05
1.61539e-05
8.22137e-06
2.24701e-05
2.23982e-05
2.22941e-05
2.2102e-05
2.17146e-05
2.09341e-05
1.93775e-05
1.61459e-05
8.217e-06
2.20816e-05
2.20166e-05
2.19207e-05
2.17408e-05
2.13728e-05
2.06224e-05
1.9112e-05
1.59518e-05
8.15567e-06
2.1169e-05
2.11143e-05
2.10329e-05
2.08771e-05
2.05493e-05
1.98627e-05
1.84512e-05
1.54544e-05
7.98888e-06
1.94565e-05
1.94175e-05
1.93745e-05
1.93118e-05
1.919e-05
1.89229e-05
1.83371e-05
1.70883e-05
1.43802e-05
7.60803e-06
1.60571e-05
1.60269e-05
1.59953e-05
1.59529e-05
1.58733e-05
1.56906e-05
1.5261e-05
1.42879e-05
1.21129e-05
6.83126e-06
8.04224e-06
8.00605e-06
7.97251e-06
7.93929e-06
7.89852e-06
7.82738e-06
7.66931e-06
7.30391e-06
6.5305e-06
5.50596e-06
7.91359e-06
7.89393e-06
7.87385e-06
7.84546e-06
7.78645e-06
7.6411e-06
7.28945e-06
6.53021e-06
5.4862e-06
1.57983e-05
1.57903e-05
1.57731e-05
1.57191e-05
1.55624e-05
1.5159e-05
1.42143e-05
1.20816e-05
6.82659e-06
1.92872e-05
1.92533e-05
1.92026e-05
1.90951e-05
1.88443e-05
1.82771e-05
1.70504e-05
1.43793e-05
7.61217e-06
2.10945e-05
2.10424e-05
2.09665e-05
2.08188e-05
2.05013e-05
1.98272e-05
1.84317e-05
1.54632e-05
7.99525e-06
2.20375e-05
2.19747e-05
2.18825e-05
2.17077e-05
2.13459e-05
2.06029e-05
1.9102e-05
1.59587e-05
8.15931e-06
2.2444e-05
2.23775e-05
2.22779e-05
2.20895e-05
2.17052e-05
2.09271e-05
1.93728e-05
1.61441e-05
8.21492e-06
2.24462e-05
2.23818e-05
2.22831e-05
2.20947e-05
2.17094e-05
2.09294e-05
1.9372e-05
1.61372e-05
8.21095e-06
2.20598e-05
2.2001e-05
2.19097e-05
2.17331e-05
2.13671e-05
2.06174e-05
1.91065e-05
1.5944e-05
8.14999e-06
2.11496e-05
2.10997e-05
2.10222e-05
2.08693e-05
2.05433e-05
1.98575e-05
1.84458e-05
1.54474e-05
7.98363e-06
1.94345e-05
1.93998e-05
1.93606e-05
1.93011e-05
1.91818e-05
1.89164e-05
1.83315e-05
1.70829e-05
1.43738e-05
7.60292e-06
1.60375e-05
1.60105e-05
1.59819e-05
1.59421e-05
1.58646e-05
1.56836e-05
1.5255e-05
1.42822e-05
1.21064e-05
6.82344e-06
8.02592e-06
7.99211e-06
7.96076e-06
7.92945e-06
7.89022e-06
7.82025e-06
7.66296e-06
7.29786e-06
6.52194e-06
5.46862e-06
7.90461e-06
7.88637e-06
7.8674e-06
7.83977e-06
7.7811e-06
7.6356e-06
7.28304e-06
6.5156e-06
5.34414e-06
1.58047e-05
1.57979e-05
1.57809e-05
1.57263e-05
1.55683e-05
1.51629e-05
1.42152e-05
1.20759e-05
6.81278e-06
1.92774e-05
1.92484e-05
1.92009e-05
1.90952e-05
1.88449e-05
1.82768e-05
1.70479e-05
1.43713e-05
7.60562e-06
2.10762e-05
2.1031e-05
2.096e-05
2.08152e-05
2.04991e-05
1.98248e-05
1.84276e-05
1.54544e-05
7.9887e-06
2.20155e-05
2.19602e-05
2.18734e-05
2.17021e-05
2.13422e-05
2.05995e-05
1.90972e-05
1.59498e-05
8.15262e-06
2.24218e-05
2.23624e-05
2.22681e-05
2.20832e-05
2.17008e-05
2.09231e-05
1.93679e-05
1.61358e-05
8.20839e-06
2.24258e-05
2.23676e-05
2.22736e-05
2.20884e-05
2.17049e-05
2.09255e-05
1.93673e-05
1.61298e-05
8.20479e-06
2.20407e-05
2.19871e-05
2.18999e-05
2.17262e-05
2.1362e-05
2.0613e-05
1.91017e-05
1.59373e-05
8.14419e-06
2.11322e-05
2.10866e-05
2.10125e-05
2.08621e-05
2.05378e-05
1.98529e-05
1.84411e-05
1.54415e-05
7.97819e-06
1.94147e-05
1.93838e-05
1.9348e-05
1.92913e-05
1.91742e-05
1.89104e-05
1.83265e-05
1.70779e-05
1.4368e-05
7.59729e-06
1.60197e-05
1.59955e-05
1.59695e-05
1.59321e-05
1.58566e-05
1.56771e-05
1.52494e-05
1.42769e-05
1.20999e-05
6.81049e-06
8.01039e-06
7.97875e-06
7.94939e-06
7.91982e-06
7.88203e-06
7.81314e-06
7.65658e-06
7.2915e-06
6.50818e-06
5.32561e-06
7.8964e-06
7.87936e-06
7.8613e-06
7.83427e-06
7.77585e-06
7.63016e-06
7.2768e-06
6.5042e-06
5.28512e-06
1.58109e-05
1.5805e-05
1.57881e-05
1.5733e-05
1.55739e-05
1.51667e-05
1.42163e-05
1.20714e-05
6.80215e-06
1.92702e-05
1.9245e-05
1.92e-05
1.90957e-05
1.88457e-05
1.82768e-05
1.70459e-05
1.43648e-05
7.59915e-06
2.10617e-05
2.10219e-05
2.09548e-05
2.08125e-05
2.04975e-05
1.98231e-05
1.84244e-05
1.5447e-05
7.98209e-06
2.19977e-05
2.19483e-05
2.18659e-05
2.16975e-05
2.13391e-05
2.05967e-05
1.90933e-05
1.59423e-05
8.14589e-06
2.24034e-05
2.23497e-05
2.22597e-05
2.20778e-05
2.1697e-05
2.09198e-05
1.93638e-05
1.61288e-05
8.20182e-06
2.24085e-05
2.23554e-05
2.22653e-05
2.20828e-05
2.1701e-05
2.09221e-05
1.93634e-05
1.61237e-05
8.19858e-06
2.20242e-05
2.1975e-05
2.18912e-05
2.172e-05
2.13574e-05
2.06092e-05
1.90977e-05
1.59319e-05
8.13831e-06
2.11169e-05
2.10749e-05
2.10037e-05
2.08556e-05
2.05328e-05
1.98487e-05
1.8437e-05
1.54365e-05
7.97265e-06
1.9397e-05
1.93693e-05
1.93365e-05
1.92823e-05
1.91672e-05
1.89049e-05
1.83219e-05
1.70736e-05
1.43632e-05
7.59169e-06
1.60036e-05
1.59819e-05
1.59582e-05
1.59228e-05
1.5849e-05
1.56709e-05
1.52442e-05
1.42721e-05
1.20944e-05
6.80065e-06
7.9957e-06
7.96603e-06
7.93847e-06
7.91048e-06
7.874e-06
7.80613e-06
7.65025e-06
7.28532e-06
6.49807e-06
5.27166e-06
7.88912e-06
7.87304e-06
7.85571e-06
7.82916e-06
7.7709e-06
7.62501e-06
7.27104e-06
6.49633e-06
5.26638e-06
1.58167e-05
1.58114e-05
1.57945e-05
1.57389e-05
1.55789e-05
1.51703e-05
1.42177e-05
1.20685e-05
6.79535e-06
1.9265e-05
1.92427e-05
1.91997e-05
1.90965e-05
1.88467e-05
1.82772e-05
1.70447e-05
1.43599e-05
7.59309e-06
2.10506e-05
2.10149e-05
2.09508e-05
2.08104e-05
2.04963e-05
1.98218e-05
1.84219e-05
1.54413e-05
7.9757e-06
2.19835e-05
2.19388e-05
2.18599e-05
2.16938e-05
2.13367e-05
2.05945e-05
1.90902e-05
1.59366e-05
8.13938e-06
2.23883e-05
2.23393e-05
2.22527e-05
2.20732e-05
2.16939e-05
2.09172e-05
1.93605e-05
1.61235e-05
8.19547e-06
2.23941e-05
2.23451e-05
2.22582e-05
2.20781e-05
2.16976e-05
2.09193e-05
1.93604e-05
1.61191e-05
8.19257e-06
2.20101e-05
2.19645e-05
2.18837e-05
2.17146e-05
2.13535e-05
2.0606e-05
1.90945e-05
1.59278e-05
8.13259e-06
2.11037e-05
2.10647e-05
2.0996e-05
2.08498e-05
2.05285e-05
1.98452e-05
1.84337e-05
1.54327e-05
7.96724e-06
1.93817e-05
1.93568e-05
1.93263e-05
1.92743e-05
1.9161e-05
1.89e-05
1.83178e-05
1.70699e-05
1.43594e-05
7.58642e-06
1.59896e-05
1.59699e-05
1.59481e-05
1.59146e-05
1.58423e-05
1.56654e-05
1.52396e-05
1.4268e-05
1.20902e-05
6.79427e-06
7.98226e-06
7.95432e-06
7.92835e-06
7.90174e-06
7.86643e-06
7.79949e-06
7.64424e-06
7.27961e-06
6.49139e-06
5.25527e-06
7.88259e-06
7.86733e-06
7.8506e-06
7.82442e-06
7.76628e-06
7.62018e-06
7.2657e-06
6.49005e-06
5.25878e-06
1.58218e-05
1.58169e-05
1.58001e-05
1.57441e-05
1.55834e-05
1.51737e-05
1.42193e-05
1.20669e-05
6.79012e-06
1.92613e-05
1.92412e-05
1.91997e-05
1.90973e-05
1.88477e-05
1.82778e-05
1.7044e-05
1.43563e-05
7.58733e-06
2.10418e-05
2.10094e-05
2.09476e-05
2.08088e-05
2.04955e-05
1.9821e-05
1.84201e-05
1.54371e-05
7.96954e-06
2.1972e-05
2.1931e-05
2.18549e-05
2.16908e-05
2.13347e-05
2.05928e-05
1.90879e-05
1.59323e-05
8.13314e-06
2.2376e-05
2.23306e-05
2.22469e-05
2.20694e-05
2.16913e-05
2.09151e-05
1.93581e-05
1.61195e-05
8.18938e-06
2.2382e-05
2.23364e-05
2.22522e-05
2.2074e-05
2.16948e-05
2.09171e-05
1.9358e-05
1.61157e-05
8.18679e-06
2.19981e-05
2.19555e-05
2.18771e-05
2.171e-05
2.13501e-05
2.06034e-05
1.9092e-05
1.59248e-05
8.12708e-06
2.10922e-05
2.10557e-05
2.09892e-05
2.08447e-05
2.05247e-05
1.98422e-05
1.8431e-05
1.54301e-05
7.962e-06
1.93684e-05
1.93458e-05
1.93174e-05
1.92672e-05
1.91554e-05
1.88957e-05
1.83144e-05
1.70669e-05
1.43567e-05
7.5814e-06
1.59773e-05
1.59593e-05
1.59392e-05
1.59071e-05
1.58362e-05
1.56605e-05
1.52356e-05
1.42645e-05
1.20872e-05
6.78929e-06
7.96995e-06
7.94354e-06
7.91896e-06
7.8936e-06
7.85934e-06
7.79324e-06
7.63859e-06
7.27432e-06
6.48618e-06
5.24899e-06
7.87671e-06
7.86215e-06
7.84593e-06
7.82007e-06
7.762e-06
7.6157e-06
7.26075e-06
6.4845e-06
5.2537e-06
1.58263e-05
1.58218e-05
1.58049e-05
1.57487e-05
1.55874e-05
1.51768e-05
1.42211e-05
1.20663e-05
6.78537e-06
1.92585e-05
1.92401e-05
1.91998e-05
1.90981e-05
1.88488e-05
1.82785e-05
1.70438e-05
1.4354e-05
7.58181e-06
2.10348e-05
2.10049e-05
2.09451e-05
2.08076e-05
2.04949e-05
1.98205e-05
1.8419e-05
1.54342e-05
7.96365e-06
2.19627e-05
2.19246e-05
2.18507e-05
2.16882e-05
2.13332e-05
2.05916e-05
1.90863e-05
1.59293e-05
8.12719e-06
2.23657e-05
2.23233e-05
2.22419e-05
2.20662e-05
2.16892e-05
2.09135e-05
1.93563e-05
1.61169e-05
8.18359e-06
2.23718e-05
2.2329e-05
2.2247e-05
2.20704e-05
2.16924e-05
2.09154e-05
1.93563e-05
1.61136e-05
8.18129e-06
2.19878e-05
2.19477e-05
2.18713e-05