/*--------------------------------*- C++ -*----------------------------------*\
| =========                 |                                                 |
| \\      /  F ield         | OpenFOAM: The Open Source CFD Toolbox           |
|  \\    /   O peration     | Version:  2.3.1                                 |
|   \\  /    A nd           | Web:      www.OpenFOAM.org                      |
|    \\/     M anipulation  |                                                 |
\*---------------------------------------------------------------------------*/
FoamFile
{
    version     2.0;
    format      ascii;
    class       volScalarField;
    location    "15";
    object      k_0;
}
// * * * * * * * * * * * * * * * * * * * * * * * * * * * * * * * * * * * * * //

dimensions      [0 2 -2 0 0 0 0];

internalField   nonuniform List<scalar> 
37784
(
5.92601e-06
5.78238e-06
5.6819e-06
5.60661e-06
5.53616e-06
5.43003e-06
5.18047e-06
4.57942e-06
3.97694e-06
5.62767e-06
5.46731e-06
5.34852e-06
5.26165e-06
5.19611e-06
5.13539e-06
5.04219e-06
4.81879e-06
4.25594e-06
3.84135e-06
4.73563e-06
4.59555e-06
4.48911e-06
4.41099e-06
4.35346e-06
4.30641e-06
4.24756e-06
4.11106e-06
3.75936e-06
3.73232e-06
3.00721e-06
2.92213e-06
2.85865e-06
2.8132e-06
2.78101e-06
2.75804e-06
2.73936e-06
2.71689e-06
2.69316e-06
3.20341e-06
1.1725e-05
1.1615e-05
1.15733e-05
1.15473e-05
1.14934e-05
1.1324e-05
1.08274e-05
9.5391e-06
6.21198e-06
1.10851e-05
1.09349e-05
1.085e-05
1.07981e-05
1.07586e-05
1.06978e-05
1.05327e-05
1.00577e-05
8.78713e-06
5.64324e-06
9.33261e-06
9.21337e-06
9.12483e-06
9.06259e-06
9.01636e-06
8.96501e-06
8.85355e-06
8.52637e-06
7.60937e-06
5.35769e-06
5.39836e-06
5.31158e-06
5.24529e-06
5.19709e-06
5.16228e-06
5.13498e-06
5.10339e-06
5.03431e-06
4.86357e-06
4.73471e-06
1.52769e-05
1.49688e-05
1.48094e-05
1.47097e-05
1.45908e-05
1.43359e-05
1.36924e-05
1.20993e-05
7.50186e-06
1.43887e-05
1.40848e-05
1.38929e-05
1.37739e-05
1.36851e-05
1.35739e-05
1.33318e-05
1.27056e-05
1.10905e-05
6.53715e-06
1.20187e-05
1.1824e-05
1.16821e-05
1.15799e-05
1.15007e-05
1.1413e-05
1.12392e-05
1.07755e-05
9.53132e-06
6.06845e-06
6.57436e-06
6.4592e-06
6.36736e-06
6.29735e-06
6.2443e-06
6.19941e-06
6.14196e-06
6.01302e-06
5.68997e-06
5.21906e-06
1.75169e-05
1.70869e-05
1.68507e-05
1.66971e-05
1.65284e-05
1.62085e-05
1.54643e-05
1.3682e-05
8.33799e-06
1.64631e-05
1.60661e-05
1.58091e-05
1.56429e-05
1.55186e-05
1.53687e-05
1.50672e-05
1.43333e-05
1.24905e-05
7.06997e-06
1.37066e-05
1.34645e-05
1.32863e-05
1.31575e-05
1.30551e-05
1.29385e-05
1.27129e-05
1.21416e-05
1.06601e-05
6.43866e-06
7.28498e-06
7.15053e-06
7.04162e-06
6.95706e-06
6.89117e-06
6.83203e-06
6.74982e-06
6.56278e-06
6.10431e-06
5.39286e-06
1.90251e-05
1.85326e-05
1.8249e-05
1.80567e-05
1.78472e-05
1.74717e-05
1.66437e-05
1.4713e-05
8.86956e-06
1.78452e-05
1.74028e-05
1.71089e-05
1.69129e-05
1.67616e-05
1.65794e-05
1.62273e-05
1.54047e-05
1.33871e-05
7.39738e-06
1.48213e-05
1.45549e-05
1.43559e-05
1.42098e-05
1.40904e-05
1.39496e-05
1.36789e-05
1.30178e-05
1.1353e-05
6.64135e-06
7.73757e-06
7.59298e-06
7.47459e-06
7.38136e-06
7.30689e-06
7.23633e-06
7.13197e-06
6.8944e-06
6.32908e-06
5.45822e-06
2.00461e-05
1.95368e-05
1.92298e-05
1.90114e-05
1.87686e-05
1.83435e-05
1.74391e-05
1.53771e-05
9.18016e-06
1.87647e-05
1.83138e-05
1.80057e-05
1.77938e-05
1.76235e-05
1.74143e-05
1.70177e-05
1.61185e-05
1.39598e-05
7.59616e-06
1.55546e-05
1.52829e-05
1.5076e-05
1.49207e-05
1.47895e-05
1.46287e-05
1.4319e-05
1.3583e-05
1.17768e-05
6.75486e-06
8.02608e-06
7.87866e-06
7.75672e-06
7.65933e-06
7.57958e-06
7.50017e-06
7.37716e-06
7.09866e-06
6.45525e-06
5.48638e-06
2.07239e-05
2.023e-05
1.99182e-05
1.96842e-05
1.94144e-05
1.89443e-05
1.79668e-05
1.57787e-05
9.31525e-06
1.93581e-05
1.89251e-05
1.86204e-05
1.84037e-05
1.82214e-05
1.79902e-05
1.75543e-05
1.65877e-05
1.43127e-05
7.70885e-06
1.60222e-05
1.57592e-05
1.55547e-05
1.5397e-05
1.52586e-05
1.50818e-05
1.47393e-05
1.39417e-05
1.20281e-05
6.81762e-06
8.20246e-06
8.05773e-06
7.93669e-06
7.83859e-06
7.75622e-06
7.67038e-06
7.5325e-06
7.22272e-06
6.52559e-06
5.50085e-06
2.11563e-05
2.06982e-05
2.03952e-05
2.01539e-05
1.98624e-05
1.93511e-05
1.83017e-05
1.5985e-05
9.29733e-06
1.97196e-05
1.93213e-05
1.90325e-05
1.88194e-05
1.86309e-05
1.8382e-05
1.79117e-05
1.68856e-05
1.45131e-05
7.76128e-06
1.63029e-05
1.6058e-05
1.58631e-05
1.57085e-05
1.5567e-05
1.53781e-05
1.50085e-05
1.41614e-05
1.21679e-05
6.85039e-06
8.30118e-06
8.16294e-06
8.04601e-06
7.94979e-06
7.86693e-06
7.77686e-06
7.6278e-06
7.29526e-06
6.56318e-06
5.50948e-06
2.14144e-05
2.10031e-05
2.07175e-05
2.04752e-05
2.01665e-05
1.96175e-05
1.84973e-05
1.60451e-05
9.13676e-06
1.99182e-05
1.95634e-05
1.92982e-05
1.90946e-05
1.89047e-05
1.86421e-05
1.8142e-05
1.70634e-05
1.4608e-05
7.76949e-06
1.64539e-05
1.62323e-05
1.6052e-05
1.59043e-05
1.57629e-05
1.55653e-05
1.51744e-05
1.42883e-05
1.22363e-05
6.86517e-06
8.34705e-06
8.21771e-06
8.10702e-06
8.01451e-06
7.93281e-06
7.84039e-06
7.68341e-06
7.33509e-06
6.58148e-06
5.51513e-06
2.1551e-05
2.11904e-05
2.09272e-05
2.06882e-05
2.03662e-05
1.97832e-05
1.8595e-05
1.60034e-05
8.81091e-06
2.00058e-05
1.96973e-05
1.94593e-05
1.92691e-05
1.90809e-05
1.88083e-05
1.8283e-05
1.71589e-05
1.46329e-05
7.74816e-06
1.65173e-05
1.63213e-05
1.6158e-05
1.60198e-05
1.58809e-05
1.56778e-05
1.52703e-05
1.43544e-05
1.22607e-05
6.86936e-06
8.35811e-06
8.23909e-06
8.13588e-06
8.04827e-06
7.96892e-06
7.87568e-06
7.71343e-06
7.35468e-06
6.58855e-06
5.51905e-06
8.36231e-06
8.17289e-06
8.0445e-06
7.95113e-06
7.85841e-06
7.70498e-06
7.36468e-06
6.6127e-06
5.55524e-06
1.6525e-05
1.59461e-05
1.56608e-05
1.5518e-05
1.53728e-05
1.50461e-05
1.42156e-05
1.2213e-05
6.92799e-06
2.12592e-05
2.01814e-05
1.9544e-05
1.91514e-05
1.88046e-05
1.82677e-05
1.71578e-05
1.46539e-05
7.79225e-06
2.34043e-05
2.21486e-05
2.14017e-05
2.09226e-05
2.04908e-05
1.98566e-05
1.86289e-05
1.59484e-05
8.43867e-06
2.42369e-05
2.29964e-05
2.22654e-05
2.17829e-05
2.13284e-05
2.06597e-05
1.94116e-05
1.68102e-05
2.41492e-05
2.31382e-05
2.25316e-05
2.21033e-05
2.16641e-05
2.09933e-05
1.97528e-05
1.72293e-05
2.3604e-05
2.28776e-05
2.241e-05
2.20501e-05
2.16417e-05
2.09814e-05
1.97396e-05
1.72004e-05
2.27731e-05
2.22982e-05
2.19643e-05
2.16719e-05
2.1298e-05
2.06526e-05
1.93949e-05
1.67558e-05
2.16056e-05
2.12949e-05
2.1056e-05
2.0823e-05
2.04911e-05
1.98785e-05
1.86286e-05
1.59042e-05
8.39122e-06
2.00206e-05
1.97573e-05
1.95475e-05
1.93723e-05
1.91883e-05
1.89088e-05
1.83628e-05
1.72009e-05
1.46177e-05
7.70883e-06
1.65242e-05
1.63538e-05
1.62083e-05
1.6081e-05
1.59463e-05
1.57403e-05
1.53206e-05
1.43826e-05
1.22597e-05
6.86809e-06
8.34793e-06
8.23901e-06
8.14406e-06
8.06206e-06
7.98584e-06
7.89295e-06
7.72752e-06
7.36226e-06
6.58923e-06
5.52185e-06
8.27794e-06
8.13395e-06
8.03046e-06
7.9484e-06
7.86122e-06
7.70805e-06
7.36373e-06
6.60925e-06
5.55634e-06
1.628e-05
1.5884e-05
1.56824e-05
1.5568e-05
1.54245e-05
1.5084e-05
1.42297e-05
1.22029e-05
6.91785e-06
2.08216e-05
2.00044e-05
1.95087e-05
1.91789e-05
1.88518e-05
1.83064e-05
1.71669e-05
1.46212e-05
7.75969e-06
2.29281e-05
2.1966e-05
2.13721e-05
2.09606e-05
2.05483e-05
1.98999e-05
1.86249e-05
1.58516e-05
8.25999e-06
2.37966e-05
2.28493e-05
2.22609e-05
2.18389e-05
2.13967e-05
2.07035e-05
1.93808e-05
1.6572e-05
8.80726e-06
2.38398e-05
2.3063e-05
2.25632e-05
2.21777e-05
2.17412e-05
2.1037e-05
1.97018e-05
1.69006e-05
9.09681e-06
2.34456e-05
2.28647e-05
2.24693e-05
2.21364e-05
2.17239e-05
2.10274e-05
1.96896e-05
1.68748e-05
9.06427e-06
2.27242e-05
2.23316e-05
2.20381e-05
2.17601e-05
2.1379e-05
2.07012e-05
1.93656e-05
1.65191e-05
8.75294e-06
2.16072e-05
2.13428e-05
2.1128e-05
2.09026e-05
2.05639e-05
1.99269e-05
1.86261e-05
1.58032e-05
8.19111e-06
1.99921e-05
1.97689e-05
1.95863e-05
1.94267e-05
1.92484e-05
1.89645e-05
1.84024e-05
1.72108e-05
1.45844e-05
7.6811e-06
1.64984e-05
1.63507e-05
1.62226e-05
1.61066e-05
1.59774e-05
1.57703e-05
1.53422e-05
1.43888e-05
1.2247e-05
6.86526e-06
8.32586e-06
8.22716e-06
8.13964e-06
8.06337e-06
7.99082e-06
7.89914e-06
7.73207e-06
7.36306e-06
6.58678e-06
5.52393e-06
8.20784e-06
8.09594e-06
8.01145e-06
7.94095e-06
7.8583e-06
7.70595e-06
7.35961e-06
6.604e-06
5.5566e-06
1.61051e-05
1.58353e-05
1.56924e-05
1.55988e-05
1.54563e-05
1.51045e-05
1.42318e-05
1.21871e-05
6.90732e-06
2.04451e-05
1.984e-05
1.94583e-05
1.91819e-05
1.88722e-05
1.83207e-05
1.71592e-05
1.45836e-05
7.73339e-06
2.25136e-05
2.17895e-05
2.13209e-05
2.09674e-05
2.05729e-05
1.99138e-05
1.8603e-05
1.57669e-05
8.17103e-06
2.3417e-05
2.27007e-05
2.22297e-05
2.18583e-05
2.14281e-05
2.07156e-05
1.93341e-05
1.6395e-05
8.46121e-06
2.35679e-05
2.29704e-05
2.25594e-05
2.22116e-05
2.17792e-05
2.10483e-05
1.96389e-05
1.66623e-05
8.58783e-06
2.32833e-05
2.28237e-05
2.24889e-05
2.21808e-05
2.17666e-05
2.1041e-05
1.96281e-05
1.66413e-05
8.56308e-06
2.26503e-05
2.23275e-05
2.20708e-05
2.18072e-05
2.14217e-05
2.07181e-05
1.93218e-05
1.6349e-05
8.41015e-06
2.15781e-05
2.13537e-05
2.11615e-05
2.09445e-05
2.06016e-05
1.99456e-05
1.86064e-05
1.57172e-05
8.10342e-06
1.99386e-05
1.97516e-05
1.95933e-05
1.94488e-05
1.92769e-05
1.8991e-05
1.84171e-05
1.7204e-05
1.45482e-05
7.66399e-06
1.64538e-05
1.6328e-05
1.62153e-05
1.61101e-05
1.59868e-05
1.57804e-05
1.53469e-05
1.43837e-05
1.22296e-05
6.86249e-06
8.29697e-06
8.20784e-06
8.12835e-06
8.05768e-06
7.98867e-06
7.89871e-06
7.73115e-06
7.36052e-06
6.58274e-06
5.52552e-06
8.14956e-06
8.06135e-06
7.99186e-06
7.93032e-06
7.8525e-06
7.70138e-06
7.35355e-06
6.59831e-06
5.55616e-06
1.59833e-05
1.57993e-05
1.56975e-05
1.56187e-05
1.54765e-05
1.51156e-05
1.42291e-05
1.21714e-05
6.89698e-06
2.01416e-05
1.9699e-05
1.94059e-05
1.91727e-05
1.8877e-05
1.83215e-05
1.71436e-05
1.45488e-05
7.71198e-06
2.21721e-05
2.16317e-05
2.12623e-05
2.09569e-05
2.05777e-05
1.99114e-05
1.8574e-05
1.56997e-05
8.12251e-06
2.31027e-05
2.25624e-05
2.21838e-05
2.18555e-05
2.14365e-05
2.07103e-05
1.9287e-05
1.62723e-05
8.32944e-06
2.33352e-05
2.28746e-05
2.2536e-05
2.22197e-05
2.17923e-05
2.1042e-05
1.95798e-05
1.65024e-05
8.40328e-06
2.31314e-05
2.27675e-05
2.24839e-05
2.21978e-05
2.17838e-05
2.10367e-05
1.95706e-05
1.64825e-05
8.38489e-06
2.25672e-05
2.23021e-05
2.20769e-05
2.18271e-05
2.14396e-05
2.07169e-05
1.92778e-05
1.62287e-05
8.28546e-06
2.15314e-05
2.13424e-05
2.117e-05
2.09617e-05
2.06168e-05
1.99469e-05
1.85803e-05
1.56503e-05
8.06367e-06
1.9874e-05
1.97178e-05
1.95815e-05
1.94506e-05
1.92856e-05
1.89993e-05
1.84175e-05
1.71896e-05
1.45152e-05
7.6531e-06
1.64014e-05
1.62939e-05
1.6196e-05
1.61011e-05
1.59836e-05
1.57789e-05
1.53426e-05
1.43732e-05
1.2212e-05
6.86007e-06
8.26573e-06
8.18527e-06
8.11289e-06
8.04776e-06
7.98268e-06
7.89478e-06
7.72747e-06
7.35616e-06
6.57821e-06
5.52664e-06
8.10165e-06
8.03108e-06
7.9733e-06
7.91913e-06
7.84524e-06
7.69544e-06
7.34699e-06
6.59253e-06
5.5551e-06
1.59006e-05
1.5775e-05
1.57016e-05
1.56332e-05
1.54905e-05
1.5122e-05
1.42246e-05
1.21576e-05
6.88701e-06
1.99067e-05
1.9584e-05
1.93581e-05
1.91583e-05
1.88742e-05
1.83161e-05
1.71263e-05
1.45191e-05
7.69386e-06
2.19004e-05
2.14975e-05
2.12049e-05
2.0938e-05
2.05719e-05
1.99013e-05
1.85457e-05
1.56487e-05
8.09168e-06
2.28492e-05
2.24404e-05
2.2134e-05
2.1841e-05
2.14319e-05
2.06966e-05
1.92456e-05
1.61891e-05
8.27026e-06
2.31405e-05
2.27836e-05
2.25019e-05
2.22128e-05
2.17908e-05
2.10271e-05
1.953e-05
1.63966e-05
8.3285e-06
2.29963e-05
2.2707e-05
2.24655e-05
2.2198e-05
2.17857e-05
2.10237e-05
1.95223e-05
1.63772e-05
8.31485e-06
2.24836e-05
2.2265e-05
2.20675e-05
2.18301e-05
2.14425e-05
2.07069e-05
1.92392e-05
1.61462e-05
8.235e-06
2.1478e-05
2.13183e-05
2.11636e-05
2.09636e-05
2.06186e-05
1.99396e-05
1.85546e-05
1.56001e-05
8.04294e-06
1.98072e-05
1.96764e-05
1.95591e-05
1.9441e-05
1.92825e-05
1.89971e-05
1.84106e-05
1.71732e-05
1.44878e-05
7.6458e-06
1.63475e-05
1.62558e-05
1.61707e-05
1.60851e-05
1.59738e-05
1.57714e-05
1.53338e-05
1.4361e-05
1.21957e-05
6.85786e-06
8.23432e-06
8.16164e-06
8.09578e-06
8.03578e-06
7.97434e-06
7.88868e-06
7.72213e-06
7.35106e-06
6.57348e-06
5.52731e-06
8.06247e-06
8.00509e-06
7.95647e-06
7.90827e-06
7.83775e-06
7.68916e-06
7.34035e-06
6.58673e-06
5.55343e-06
1.58466e-05
1.57604e-05
1.57065e-05
1.56451e-05
1.55014e-05
1.51265e-05
1.42205e-05
1.21461e-05
6.87741e-06
1.97296e-05
1.94934e-05
1.93175e-05
1.91431e-05
1.88683e-05
1.83083e-05
1.71104e-05
1.4495e-05
7.67799e-06
2.1689e-05
2.13871e-05
2.1153e-05
2.09162e-05
2.05613e-05
1.98881e-05
1.85208e-05
1.56106e-05
8.06918e-06
2.26482e-05
2.23365e-05
2.20856e-05
2.18208e-05
2.1421e-05
2.06801e-05
1.92115e-05
1.61316e-05
8.23817e-06
2.29806e-05
2.27016e-05
2.24647e-05
2.21981e-05
2.17819e-05
2.10096e-05
1.94906e-05
1.63257e-05
8.29326e-06
2.288e-05
2.26482e-05
2.244e-05
2.21891e-05
2.17795e-05
2.10077e-05
1.94842e-05
1.63076e-05
8.28235e-06
2.24049e-05
2.2224e-05
2.20496e-05
2.18235e-05
2.14372e-05
2.06931e-05
1.92078e-05
1.60901e-05
8.21074e-06
2.14239e-05
2.12882e-05
2.1149e-05
2.0957e-05
2.06131e-05
1.99283e-05
1.8532e-05
1.55632e-05
8.0306e-06
1.97431e-05
1.96333e-05
1.95321e-05
1.9425e-05
1.9273e-05
1.89895e-05
1.84003e-05
1.71574e-05
1.44653e-05
7.64026e-06
1.6296e-05
1.62176e-05
1.61434e-05
1.60662e-05
1.59604e-05
1.57608e-05
1.53233e-05
1.43488e-05
1.21811e-05
6.85566e-06
8.20398e-06
8.1382e-06
8.07824e-06
8.02294e-06
7.96496e-06
7.88157e-06
7.71606e-06
7.34562e-06
6.56864e-06
5.52752e-06
8.03041e-06
7.98296e-06
7.94151e-06
7.89812e-06
7.83041e-06
7.68285e-06
7.33379e-06
6.58089e-06
5.55125e-06
1.58132e-05
1.57537e-05
1.5713e-05
1.56559e-05
1.55107e-05
1.51306e-05
1.42175e-05
1.21367e-05
6.86816e-06
1.95983e-05
1.9424e-05
1.92848e-05
1.91296e-05
1.88618e-05
1.83006e-05
1.70968e-05
1.44752e-05
7.66381e-06
2.1527e-05
2.12986e-05
2.11084e-05
2.08951e-05
2.05493e-05
1.9875e-05
1.85002e-05
1.55805e-05
8.05262e-06
2.24907e-05
2.22502e-05
2.20418e-05
2.17994e-05
2.14076e-05
2.0664e-05
1.91845e-05
1.60897e-05
8.2192e-06
2.2851e-05
2.26302e-05
2.24285e-05
2.21801e-05
2.17695e-05
2.09925e-05
1.94603e-05
1.62772e-05
8.27339e-06
2.2782e-05
2.25942e-05
2.24128e-05
2.21755e-05
2.17694e-05
2.09919e-05
1.94552e-05
1.62606e-05
8.26426e-06
2.23344e-05
2.21834e-05
2.2028e-05
2.18118e-05
2.14278e-05
2.06789e-05
1.9183e-05
1.60514e-05
8.19673e-06
2.13728e-05
2.12567e-05
2.11306e-05
2.09459e-05
2.06039e-05
1.99161e-05
1.85131e-05
1.55359e-05
8.02229e-06
1.96844e-05
1.95918e-05
1.95039e-05
1.94065e-05
1.92605e-05
1.89794e-05
1.83892e-05
1.71432e-05
1.44469e-05
7.6356e-06
1.62486e-05
1.61813e-05
1.61165e-05
1.60467e-05
1.5946e-05
1.57493e-05
1.53125e-05
1.43376e-05
1.21681e-05
6.8533e-06
8.17532e-06
8.11562e-06
8.06095e-06
8.00992e-06
7.95518e-06
7.87398e-06
7.70964e-06
7.34e-06
6.56371e-06
5.52725e-06
8.00406e-06
7.96414e-06
7.9283e-06
7.88877e-06
7.82336e-06
7.67662e-06
7.32738e-06
6.57472e-06
5.54893e-06
1.57942e-05
1.57526e-05
1.57207e-05
1.56662e-05
1.55194e-05
1.51347e-05
1.42156e-05
1.21275e-05
6.86084e-06
1.95022e-05
1.93719e-05
1.92596e-05
1.91185e-05
1.8856e-05
1.8294e-05
1.70857e-05
1.4457e-05
7.6532e-06
2.1404e-05
2.12288e-05
2.10716e-05
2.08764e-05
2.0538e-05
1.98635e-05
1.84835e-05
1.55554e-05
8.04077e-06
2.23682e-05
2.21799e-05
2.20039e-05
2.17792e-05
2.13944e-05
2.06497e-05
1.91636e-05
1.60583e-05
8.20622e-06
2.2747e-05
2.25699e-05
2.23954e-05
2.21619e-05
2.17567e-05
2.09774e-05
1.94373e-05
1.62428e-05
8.2603e-06
2.27008e-05
2.25466e-05
2.23864e-05
2.21606e-05
2.17581e-05
2.09778e-05
1.94332e-05
1.62277e-05
8.25248e-06
2.2273e-05
2.21458e-05
2.20058e-05
2.17983e-05
2.14171e-05
2.06658e-05
1.91638e-05
1.60237e-05
8.18733e-06
2.13263e-05
2.12262e-05
2.11112e-05
2.09331e-05
2.05935e-05
1.99044e-05
1.84977e-05
1.5515e-05
8.01592e-06
1.96321e-05
1.95534e-05
1.94769e-05
1.93878e-05
1.92471e-05
1.89686e-05
1.83784e-05
1.71308e-05
1.44315e-05
7.6313e-06
1.6206e-05
1.6148e-05
1.60912e-05
1.60278e-05
1.59318e-05
1.57379e-05
1.53022e-05
1.43273e-05
1.21565e-05
6.85068e-06
8.14857e-06
8.09422e-06
8.04425e-06
7.9971e-06
7.94532e-06
7.8662e-06
7.70306e-06
7.33426e-06
6.55869e-06
5.52655e-06
7.98225e-06
7.9481e-06
7.91665e-06
7.88021e-06
7.81664e-06
7.67051e-06
7.32106e-06
6.56828e-06
5.54635e-06
1.57851e-05
1.57554e-05
1.57294e-05
1.56763e-05
1.55277e-05
1.5139e-05
1.42146e-05
1.21184e-05
6.85515e-06
1.94324e-05
1.93335e-05
1.92407e-05
1.91102e-05
1.88516e-05
1.82887e-05
1.70767e-05
1.44403e-05
7.64481e-06
2.1311e-05
2.11746e-05
2.1042e-05
2.08607e-05
2.05282e-05
1.98538e-05
1.84702e-05
1.55342e-05
8.03127e-06
2.22733e-05
2.21235e-05
2.19721e-05
2.17613e-05
2.13825e-05
2.06377e-05
1.91473e-05
1.60337e-05
8.19618e-06
2.26641e-05
2.25198e-05
2.23665e-05
2.2145e-05
2.17446e-05
2.09646e-05
1.94198e-05
1.62171e-05
8.2505e-06
2.26342e-05
2.25057e-05
2.23624e-05
2.21462e-05
2.17473e-05
2.09658e-05
1.94166e-05
1.62036e-05
8.24379e-06
2.22206e-05
2.21121e-05
2.19848e-05
2.17847e-05
2.14065e-05
2.06544e-05
1.91489e-05
1.60029e-05
8.18011e-06
2.12853e-05
2.11982e-05
2.10925e-05
2.09202e-05
2.05832e-05
1.9894e-05
1.84851e-05
1.54984e-05
8.01041e-06
1.95863e-05
1.9519e-05
1.94518e-05
1.93698e-05
1.9234e-05
1.8958e-05
1.83685e-05
1.71202e-05
1.44185e-05
7.62706e-06
1.61683e-05
1.61179e-05
1.6068e-05
1.60101e-05
1.59183e-05
1.57271e-05
1.52927e-05
1.43181e-05
1.21462e-05
6.84778e-06
8.1238e-06
8.07413e-06
8.02833e-06
7.98466e-06
7.93558e-06
7.85837e-06
7.69641e-06
7.32843e-06
6.55356e-06
5.5254e-06
7.96402e-06
7.93432e-06
7.90633e-06
7.87233e-06
7.81022e-06
7.66453e-06
7.3148e-06
6.5617e-06
5.54343e-06
1.57824e-05
1.5761e-05
1.57387e-05
1.5686e-05
1.55357e-05
1.51434e-05
1.42142e-05
1.211e-05
6.85015e-06
1.93821e-05
1.93056e-05
1.9227e-05
1.91042e-05
1.88485e-05
1.82849e-05
1.70694e-05
1.44254e-05
7.63754e-06
2.1241e-05
2.11328e-05
2.10187e-05
2.0848e-05
2.05202e-05
1.9846e-05
1.84595e-05
1.55161e-05
8.02306e-06
2.22e-05
2.20787e-05
2.1946e-05
2.17462e-05
2.13723e-05
2.06278e-05
1.91344e-05
1.60137e-05
8.18773e-06
2.25982e-05
2.24787e-05
2.23418e-05
2.21301e-05
2.17341e-05
2.09541e-05
1.94062e-05
1.61969e-05
8.24248e-06
2.25799e-05
2.24713e-05
2.23413e-05
2.2133e-05
2.17375e-05
2.09558e-05
1.94037e-05
1.6185e-05
8.23663e-06
2.21764e-05
2.20827e-05
2.19657e-05
2.1772e-05
2.13967e-05
2.06446e-05
1.91371e-05
1.59866e-05
8.17384e-06
2.12496e-05
2.11732e-05
2.10753e-05
2.0908e-05
2.05736e-05
1.98848e-05
1.84747e-05
1.54849e-05
8.0052e-06
1.95467e-05
1.94886e-05
1.94292e-05
1.93532e-05
1.92217e-05
1.89482e-05
1.83596e-05
1.71109e-05
1.44073e-05
7.62273e-06
1.6135e-05
1.60911e-05
1.6047e-05
1.59939e-05
1.59058e-05
1.57171e-05
1.52839e-05
1.43097e-05
1.21369e-05
6.84458e-06
8.10095e-06
8.05538e-06
8.01326e-06
7.97269e-06
7.92605e-06
7.8506e-06
7.68974e-06
7.32253e-06
6.54834e-06
5.52381e-06
7.94862e-06
7.92239e-06
7.89712e-06
7.86506e-06
7.80409e-06
7.65867e-06
7.30861e-06
6.55499e-06
5.53998e-06
1.57839e-05
1.5768e-05
1.57481e-05
1.56954e-05
1.55433e-05
1.51478e-05
1.42142e-05
1.21022e-05
6.84546e-06
1.93459e-05
1.92855e-05
1.92173e-05
1.91003e-05
1.88466e-05
1.82821e-05
1.70636e-05
1.44121e-05
7.63093e-06
2.11883e-05
2.11008e-05
2.10005e-05
2.0838e-05
2.05138e-05
1.98399e-05
1.84508e-05
1.55004e-05
8.01568e-06
2.21433e-05
2.20432e-05
2.19249e-05
2.17337e-05
2.13638e-05
2.06198e-05
1.91241e-05
1.59969e-05
8.18027e-06
2.25459e-05
2.24452e-05
2.23213e-05
2.21174e-05
2.17251e-05
2.09455e-05
1.93955e-05
1.61805e-05
8.23537e-06
2.25358e-05
2.24426e-05
2.23232e-05
2.21214e-05
2.1729e-05
2.09475e-05
1.93936e-05
1.61699e-05
8.23013e-06
2.21394e-05
2.20574e-05
2.19489e-05
2.17606e-05
2.1388e-05
2.06364e-05
1.91275e-05
1.59733e-05
8.16793e-06
2.12188e-05
2.11511e-05
2.10597e-05
2.08969e-05
2.05649e-05
1.98768e-05
1.8466e-05
1.54735e-05
8.00005e-06
1.95124e-05
1.9462e-05
1.9409e-05
1.93382e-05
1.92104e-05
1.89393e-05
1.83516e-05
1.71029e-05
1.43975e-05
7.61827e-06
1.61059e-05
1.60674e-05
1.60281e-05
1.59792e-05
1.58943e-05
1.57078e-05
1.5276e-05
1.43021e-05
1.21286e-05
6.84108e-06
8.07992e-06
8.03791e-06
7.99904e-06
7.96123e-06
7.91678e-06
7.84292e-06
7.68309e-06
7.31659e-06
6.54303e-06
5.52159e-06
7.93547e-06
7.91195e-06
7.88884e-06
7.85831e-06
7.79821e-06
7.65293e-06
7.30245e-06
6.54808e-06
5.53493e-06
1.5788e-05
1.57757e-05
1.57573e-05
1.57043e-05
1.55505e-05
1.51521e-05
1.42145e-05
1.20952e-05
6.84084e-06
1.932e-05
1.92713e-05
1.92107e-05
1.90979e-05
1.88456e-05
1.82802e-05
1.70588e-05
1.44001e-05
7.62485e-06
2.11485e-05
2.10763e-05
2.09865e-05
2.08303e-05
2.05089e-05
1.9835e-05
1.84437e-05
1.54866e-05
8.0089e-06
2.20993e-05
2.20152e-05
2.19079e-05
2.17235e-05
2.1357e-05
2.06134e-05
1.91158e-05
1.59826e-05
8.17335e-06
2.25044e-05
2.24182e-05
2.23043e-05
2.21067e-05
2.17176e-05
2.09385e-05
1.93869e-05
1.61667e-05
8.22866e-06
2.25e-05
2.24187e-05
2.23079e-05
2.21114e-05
2.17218e-05
2.09408e-05
1.93854e-05
1.61575e-05
8.22388e-06
2.21084e-05
2.20359e-05
2.19342e-05
2.17505e-05
2.13804e-05
2.06294e-05
1.91197e-05
1.59623e-05
8.16215e-06
2.11925e-05
2.11319e-05
2.1046e-05
2.08869e-05
2.05572e-05
1.98699e-05
1.84587e-05
1.54639e-05
7.99487e-06
1.94829e-05
1.94387e-05
1.93912e-05
1.93248e-05
1.92002e-05
1.89312e-05
1.83446e-05
1.70958e-05
1.4389e-05
7.61365e-06
1.60804e-05
1.60464e-05
1.60113e-05
1.59659e-05
1.58838e-05
1.56994e-05
1.52687e-05
1.42953e-05
1.2121e-05
6.83713e-06
8.06059e-06
8.02169e-06
7.98566e-06
7.9503e-06
7.9078e-06
7.83539e-06
7.6765e-06
7.31063e-06
6.53752e-06
5.51757e-06
7.92412e-06
7.90275e-06
7.88134e-06
7.85202e-06
7.79256e-06
7.6473e-06
7.29634e-06
6.54056e-06
5.52354e-06
1.57934e-05
1.57837e-05
1.5766e-05
1.57126e-05
1.55573e-05
1.51563e-05
1.4215e-05
1.20887e-05
6.83549e-06
1.93015e-05
1.92613e-05
1.92064e-05
1.90966e-05
1.88453e-05
1.8279e-05
1.70549e-05
1.43897e-05
7.61899e-06
2.11184e-05
2.10576e-05
2.09758e-05
2.08243e-05
2.05052e-05
1.98313e-05
1.84378e-05
1.54747e-05
8.00242e-06
2.20651e-05
2.19931e-05
2.18943e-05
2.17153e-05
2.13514e-05
2.06082e-05
1.91089e-05
1.59703e-05
8.16665e-06
2.24713e-05
2.23962e-05
2.22903e-05
2.20978e-05
2.17113e-05
2.09328e-05
1.93798e-05
1.61551e-05
8.22211e-06
2.24709e-05
2.2399e-05
2.22949e-05
2.21029e-05
2.17156e-05
2.09352e-05
1.93787e-05
1.61471e-05
8.21775e-06
2.20824e-05
2.20175e-05
2.19216e-05
2.17417e-05
2.13738e-05
2.06235e-05
1.91132e-05
1.5953e-05
8.15643e-06
2.11699e-05
2.11152e-05
2.10338e-05
2.08781e-05
2.05504e-05
1.98639e-05
1.84524e-05
1.54557e-05
7.98966e-06
1.94574e-05
1.94185e-05
1.93755e-05
1.93128e-05
1.91911e-05
1.8924e-05
1.83383e-05
1.70896e-05
1.43815e-05
7.60884e-06
1.60581e-05
1.60279e-05
1.59962e-05
1.59539e-05
1.58743e-05
1.56917e-05
1.52621e-05
1.42891e-05
1.21141e-05
6.83208e-06
8.04282e-06
8.00664e-06
7.97311e-06
7.93991e-06
7.89915e-06
7.82804e-06
7.67001e-06
7.30465e-06
6.53127e-06
5.50673e-06
7.91423e-06
7.89457e-06
7.87451e-06
7.84613e-06
7.78714e-06
7.64182e-06
7.29021e-06
6.53098e-06
5.48696e-06
1.57994e-05
1.57914e-05
1.57742e-05
1.57202e-05
1.55635e-05
1.51602e-05
1.42156e-05
1.20828e-05
6.8274e-06
1.92882e-05
1.92543e-05
1.92036e-05
1.90962e-05
1.88455e-05
1.82783e-05
1.70517e-05
1.43806e-05
7.61298e-06
2.10954e-05
2.10433e-05
2.09675e-05
2.08198e-05
2.05024e-05
1.98283e-05
1.8433e-05
1.54645e-05
7.99603e-06
2.20383e-05
2.19756e-05
2.18834e-05
2.17086e-05
2.13469e-05
2.06041e-05
1.91033e-05
1.59599e-05
8.16007e-06
2.24448e-05
2.23784e-05
2.22788e-05
2.20905e-05
2.17062e-05
2.09282e-05
1.9374e-05
1.61453e-05
8.21567e-06
2.2447e-05
2.23826e-05
2.2284e-05
2.20957e-05
2.17104e-05
2.09305e-05
1.93732e-05
1.61384e-05
8.2117e-06
2.20606e-05
2.20018e-05
2.19106e-05
2.1734e-05
2.13681e-05
2.06186e-05
1.91077e-05
1.59452e-05
8.15076e-06
2.11505e-05
2.11007e-05
2.10232e-05
2.08703e-05
2.05444e-05
1.98587e-05
1.84471e-05
1.54487e-05
7.98441e-06
1.94354e-05
1.94008e-05
1.93616e-05
1.93021e-05
1.91829e-05
1.89175e-05
1.83327e-05
1.70841e-05
1.4375e-05
7.60373e-06
1.60385e-05
1.60115e-05
1.59829e-05
1.59431e-05
1.58657e-05
1.56847e-05
1.52561e-05
1.42834e-05
1.21076e-05
6.82426e-06
8.02651e-06
7.99271e-06
7.96136e-06
7.93007e-06
7.89086e-06
7.82091e-06
7.66366e-06
7.29861e-06
6.52272e-06
5.46939e-06
7.90524e-06
7.88702e-06
7.86806e-06
7.84043e-06
7.78179e-06
7.63632e-06
7.28379e-06
6.51638e-06
5.34488e-06
1.58057e-05
1.57989e-05
1.57819e-05
1.57274e-05
1.55694e-05
1.51641e-05
1.42164e-05
1.20771e-05
6.8136e-06
1.92784e-05
1.92494e-05
1.9202e-05
1.90963e-05
1.8846e-05
1.8278e-05
1.70492e-05
1.43726e-05
7.60644e-06
2.10771e-05
2.10319e-05
2.09609e-05
2.08163e-05
2.05002e-05
1.9826e-05
1.84289e-05
1.54556e-05
7.98948e-06
2.20164e-05
2.19611e-05
2.18744e-05
2.17031e-05
2.13432e-05
2.06006e-05
1.90985e-05
1.5951e-05
8.15338e-06
2.24226e-05
2.23633e-05
2.22689e-05
2.20841e-05
2.17018e-05
2.09242e-05
1.9369e-05
1.61369e-05
8.20914e-06
2.24266e-05
2.23684e-05
2.22745e-05
2.20893e-05
2.17059e-05
2.09266e-05
1.93685e-05
1.6131e-05
8.20554e-06
2.20416e-05
2.1988e-05
2.19008e-05
2.17272e-05
2.1363e-05
2.06142e-05
1.91029e-05
1.59386e-05
8.14496e-06
2.11332e-05
2.10876e-05
2.10135e-05
2.08631e-05
2.05389e-05
1.9854e-05
1.84423e-05
1.54427e-05
7.97898e-06
1.94156e-05
1.93847e-05
1.9349e-05
1.92923e-05
1.91753e-05
1.89115e-05
1.83277e-05
1.70792e-05
1.43693e-05
7.5981e-06
1.60207e-05
1.59965e-05
1.59705e-05
1.59331e-05
1.58576e-05
1.56781e-05
1.52505e-05
1.42781e-05
1.21011e-05
6.81131e-06
8.01098e-06
7.97936e-06
7.95e-06
7.92044e-06
7.88267e-06
7.81381e-06
7.65728e-06
7.29224e-06
6.50896e-06
5.32637e-06
7.89704e-06
7.88e-06
7.86195e-06
7.83493e-06
7.77654e-06
7.63088e-06
7.27756e-06
6.50498e-06
5.28586e-06
1.5812e-05
1.5806e-05
1.57892e-05
1.57341e-05
1.5575e-05
1.51679e-05
1.42175e-05
1.20726e-05
6.80297e-06
1.92712e-05
1.9246e-05
1.92011e-05
1.90968e-05
1.88469e-05
1.82781e-05
1.70472e-05
1.43661e-05
7.59997e-06
2.10627e-05
2.10229e-05
2.09558e-05
2.08135e-05
2.04986e-05
1.98243e-05
1.84256e-05
1.54483e-05
7.98288e-06
2.19985e-05
2.19492e-05
2.18669e-05
2.16985e-05
2.13402e-05
2.05978e-05
1.90945e-05
1.59436e-05
8.14665e-06
2.24042e-05
2.23506e-05
2.22606e-05
2.20787e-05
2.1698e-05
2.09209e-05
1.93649e-05
1.613e-05
8.20257e-06
2.24093e-05
2.23562e-05
2.22662e-05
2.20837e-05
2.1702e-05
2.09232e-05
1.93646e-05
1.61249e-05
8.19934e-06
2.2025e-05
2.19758e-05
2.18921e-05
2.1721e-05
2.13584e-05
2.06104e-05
1.90989e-05
1.59331e-05
8.13908e-06
2.11178e-05
2.10758e-05
2.10047e-05
2.08566e-05
2.05339e-05
1.98499e-05
1.84383e-05
1.54378e-05
7.97344e-06
1.9398e-05
1.93703e-05
1.93375e-05
1.92833e-05
1.91683e-05
1.8906e-05
1.83231e-05
1.70748e-05
1.43645e-05
7.59251e-06
1.60046e-05
1.59829e-05
1.59592e-05
1.59238e-05
1.58501e-05
1.5672e-05
1.52454e-05
1.42733e-05
1.20956e-05
6.80148e-06
7.9963e-06
7.96664e-06
7.93909e-06
7.91111e-06
7.87464e-06
7.8068e-06
7.65096e-06
7.28607e-06
6.49885e-06
5.27241e-06
7.88975e-06
7.87369e-06
7.85637e-06
7.82983e-06
7.77159e-06
7.62573e-06
7.2718e-06
6.49711e-06
5.26712e-06
1.58177e-05
1.58124e-05
1.57955e-05
1.574e-05
1.558e-05
1.51715e-05
1.42189e-05
1.20698e-05
6.79618e-06
1.92661e-05
1.92437e-05
1.92008e-05
1.90976e-05
1.88478e-05
1.82784e-05
1.7046e-05
1.43611e-05
7.59391e-06
2.10515e-05
2.10159e-05
2.09518e-05
2.08115e-05
2.04974e-05
1.9823e-05
1.84231e-05
1.54426e-05
7.97649e-06
2.19844e-05
2.19397e-05
2.18608e-05
2.16948e-05
2.13377e-05
2.05956e-05
1.90914e-05
1.59378e-05
8.14015e-06
2.23892e-05
2.23402e-05
2.22536e-05
2.20742e-05
2.16949e-05
2.09183e-05
1.93617e-05
1.61247e-05
8.19623e-06
2.23949e-05
2.2346e-05
2.22591e-05
2.2079e-05
2.16986e-05
2.09204e-05
1.93615e-05
1.61203e-05
8.19333e-06
2.2011e-05
2.19654e-05
2.18846e-05
2.17156e-05
2.13545e-05
2.06072e-05
1.90957e-05
1.5929e-05
8.13336e-06
2.11046e-05
2.10656e-05
2.0997e-05
2.08508e-05
2.05296e-05
1.98464e-05
1.84349e-05
1.5434e-05
7.96803e-06
1.93827e-05
1.93578e-05
1.93274e-05
1.92753e-05
1.9162e-05
1.89011e-05
1.83191e-05
1.70712e-05
1.43607e-05
7.58724e-06
1.59906e-05
1.59709e-05
1.59491e-05
1.59156e-05
1.58433e-05
1.56665e-05
1.52408e-05
1.42692e-05
1.20915e-05
6.79509e-06
7.98286e-06
7.95493e-06
7.92897e-06
7.90237e-06
7.86708e-06
7.80016e-06
7.64495e-06
7.28036e-06
6.49217e-06
5.25602e-06
7.88323e-06
7.86798e-06
7.85126e-06
7.8251e-06
7.76697e-06
7.6209e-06
7.26646e-06
6.49084e-06
5.25953e-06
1.58229e-05
1.5818e-05
1.58011e-05
1.57452e-05
1.55845e-05
1.51749e-05
1.42206e-05
1.20682e-05
6.79094e-06
1.92623e-05
1.92422e-05
1.92007e-05
1.90984e-05
1.88489e-05
1.8279e-05
1.70453e-05
1.43576e-05
7.58815e-06
2.10428e-05
2.10103e-05
2.09486e-05
2.08099e-05
2.04966e-05
1.98222e-05
1.84214e-05
1.54384e-05
7.97034e-06
2.19729e-05
2.19319e-05
2.18558e-05
2.16917e-05
2.13358e-05
2.0594e-05
1.90891e-05
1.59335e-05
8.13391e-06
2.23768e-05
2.23315e-05
2.22478e-05
2.20704e-05
2.16924e-05
2.09162e-05
1.93593e-05
1.61207e-05
8.19014e-06
2.23829e-05
2.23373e-05
2.22531e-05
2.20749e-05
2.16958e-05
2.09182e-05
1.93592e-05
1.61169e-05
8.18755e-06
2.1999e-05
2.19564e-05
2.1878e-05
2.17109e-05
2.13511e-05
2.06045e-05
1.90932e-05
1.5926e-05
8.12785e-06
2.10931e-05
2.10567e-05
2.09902e-05
2.08458e-05
2.05258e-05
1.98434e-05
1.84322e-05
1.54313e-05
7.9628e-06
1.93694e-05
1.93468e-05
1.93184e-05
1.92682e-05
1.91565e-05
1.88968e-05
1.83156e-05
1.70682e-05
1.4358e-05
7.58222e-06
1.59782e-05
1.59603e-05
1.59402e-05
1.59082e-05
1.58373e-05
1.56616e-05
1.52367e-05
1.42657e-05
1.20884e-05
6.79011e-06
7.97055e-06
7.94415e-06
7.91958e-06
7.89423e-06
7.85999e-06
7.79391e-06
7.6393e-06
7.27507e-06
6.48696e-06
5.24974e-06
7.87735e-06
7.8628e-06
7.84659e-06
7.82074e-06
7.76269e-06
7.61642e-06
7.26152e-06
6.48529e-06
5.25445e-06
1.58273e-05
1.58228e-05
1.58059e-05
1.57497e-05
1.55885e-05
1.5178e-05
1.42223e-05
1.20675e-05
6.7862e-06
1.92596e-05
1.92412e-05
1.92009e-05
1.90992e-05
1.88499e-05
1.82797e-05
1.7045e-05
1.43553e-05
7.58263e-06
2.10357e-05
2.10059e-05
2.09461e-05
2.08086e-05
2.0496e-05
1.98217e-05
1.84202e-05
1.54355e-05
7.96445e-06
2.19636e-05
2.19255e-05
2.18517e-05
2.16892e-05
2.13342e-05
2.05927e-05
1.90875e-05
1.59305e-05
8.12796e-06
2.23666e-05
2.23242e-05
2.22428e-05
2.20671e-05
2.16902e-05
2.09146e-05
1.93575e-05
1.61181e-05
8.18435e-06
2.23727e-05
2.23298e-05
2.22479e-05
2.20714e-05
2.16935e-05
2.09165e-05
1.93575e-05
1.61148e-05
8.18206e-06
2.19887e-05
2.19486e-05
2.18723e-05
2.17068e-05
2.13482e-05
2.06024e-05