/*--------------------------------*- C++ -*----------------------------------*\
| =========                 |                                                 |
| \\      /  F ield         | OpenFOAM: The Open Source CFD Toolbox           |
|  \\    /   O peration     | Version:  2.3.1                                 |
|   \\  /    A nd           | Web:      www.OpenFOAM.org                      |
|    \\/     M anipulation  |                                                 |
\*---------------------------------------------------------------------------*/
FoamFile
{
    version     2.0;
    format      ascii;
    class       volScalarField;
    location    "15";
    object      nut;
}
// * * * * * * * * * * * * * * * * * * * * * * * * * * * * * * * * * * * * * //

dimensions      [0 2 -1 0 0 0 0];

internalField   nonuniform List<scalar> 
37784
(
3.07485e-06
3.03726e-06
3.01068e-06
2.99062e-06
2.97172e-06
2.94306e-06
2.87459e-06
2.70265e-06
3.47035e-06
2.99648e-06
2.95338e-06
2.92104e-06
2.89715e-06
2.879e-06
2.86209e-06
2.83595e-06
2.77236e-06
2.60536e-06
3.41059e-06
2.7487e-06
2.70766e-06
2.67604e-06
2.65258e-06
2.63517e-06
2.62085e-06
2.60283e-06
2.56062e-06
2.44858e-06
3.36179e-06
2.19023e-06
2.15896e-06
2.13531e-06
2.11821e-06
2.10601e-06
2.09726e-06
2.09012e-06
2.0815e-06
2.07237e-06
2.76594e-06
1.94413e-05
1.98819e-05
2.02375e-05
2.04691e-05
2.05214e-05
2.02021e-05
1.90248e-05
1.58284e-05
6.97301e-06
1.81835e-05
1.83436e-05
1.85089e-05
1.86368e-05
1.87115e-05
1.86718e-05
1.83291e-05
1.72198e-05
1.42183e-05
6.64589e-06
1.4912e-05
1.48544e-05
1.4806e-05
1.47699e-05
1.47358e-05
1.46646e-05
1.44353e-05
1.37137e-05
1.16886e-05
6.47544e-06
5.86878e-06
5.82132e-06
5.78478e-06
5.75806e-06
5.73867e-06
5.72342e-06
5.70574e-06
5.66693e-06
5.56991e-06
5.77624e-06
3.74475e-05
3.75441e-05
3.76505e-05
3.76635e-05
3.73556e-05
3.62415e-05
3.32056e-05
2.57902e-05
7.66307e-06
3.37427e-05
3.34865e-05
3.33155e-05
3.32012e-05
3.30524e-05
3.26948e-05
3.16873e-05
2.90178e-05
2.24577e-05
7.15308e-06
2.49828e-05
2.46164e-05
2.433e-05
2.4103e-05
2.39034e-05
2.36383e-05
2.30527e-05
2.14917e-05
1.74281e-05
6.89171e-06
6.47674e-06
6.41966e-06
6.37376e-06
6.33853e-06
6.3117e-06
6.2889e-06
6.25963e-06
6.19349e-06
6.0247e-06
6.06459e-06
5.23431e-05
5.20428e-05
5.18605e-05
5.15992e-05
5.08617e-05
4.88525e-05
4.39087e-05
3.26055e-05
8.07899e-06
4.59884e-05
4.53262e-05
4.48497e-05
4.44897e-05
4.41016e-05
4.33929e-05
4.16912e-05
3.75239e-05
2.79023e-05
7.43901e-06
3.2062e-05
3.14737e-05
3.09937e-05
3.0608e-05
3.02634e-05
2.98153e-05
2.88889e-05
2.6581e-05
2.08982e-05
7.09891e-06
6.81796e-06
6.75464e-06
6.7029e-06
6.66243e-06
6.63072e-06
6.60213e-06
6.56221e-06
6.47055e-06
6.2403e-06
6.1648e-06
6.46141e-05
6.39456e-05
6.34946e-05
6.29449e-05
6.1727e-05
5.87838e-05
5.20139e-05
3.73549e-05
8.33265e-06
5.56047e-05
5.46425e-05
5.39331e-05
5.33394e-05
5.2702e-05
5.16412e-05
4.92593e-05
4.37306e-05
3.15948e-05
7.60941e-06
3.71992e-05
3.64315e-05
3.5793e-05
3.52851e-05
3.48247e-05
3.42148e-05
3.29819e-05
3.00427e-05
2.31127e-05
7.20986e-06
7.02667e-06
6.9606e-06
6.90601e-06
6.86271e-06
6.82791e-06
6.79478e-06
6.74552e-06
6.63211e-06
6.35423e-06
6.20208e-06
7.45832e-05
7.36308e-05
7.2944e-05
7.20826e-05
7.03654e-05
6.6494e-05
5.804e-05
4.06073e-05
8.47737e-06
6.30818e-05
6.19281e-05
6.10111e-05
6.02097e-05
5.93518e-05
5.79513e-05
5.49314e-05
4.82097e-05
3.40789e-05
7.71104e-06
4.08667e-05
3.99829e-05
3.92526e-05
3.86628e-05
3.81127e-05
3.73621e-05
3.58591e-05
3.23952e-05
2.45234e-05
7.27127e-06
7.15655e-06
7.09042e-06
7.03522e-06
6.99082e-06
6.95424e-06
6.91763e-06
6.86057e-06
6.7297e-06
6.4173e-06
6.21807e-06
8.24907e-05
8.13471e-05
8.04445e-05
7.92804e-05
7.70725e-05
7.23123e-05
6.23494e-05
4.26995e-05
8.53956e-06
6.87405e-05
6.74668e-05
6.63892e-05
6.54317e-05
6.43887e-05
6.26756e-05
5.90789e-05
5.13449e-05
3.56826e-05
7.76807e-06
4.33857e-05
4.24601e-05
4.16925e-05
4.10573e-05
4.04427e-05
3.95751e-05
3.78429e-05
3.39553e-05
2.53901e-05
7.305e-06
7.23481e-06
7.17059e-06
7.11643e-06
7.07221e-06
7.03487e-06
6.99574e-06
6.93248e-06
6.7883e-06
6.4522e-06
6.22628e-06
8.85635e-05
8.73157e-05
8.62195e-05
8.47827e-05
8.2114e-05
7.65308e-05
6.5246e-05
4.38689e-05
8.53137e-06
7.28598e-05
7.15084e-05
7.03334e-05
6.92795e-05
6.80899e-05
6.6103e-05
6.20028e-05
5.34345e-05
3.66383e-05
7.79448e-06
4.50155e-05
4.41116e-05
4.33496e-05
4.27e-05
4.20442e-05
4.10841e-05
3.91643e-05
3.49447e-05
2.58859e-05
7.32256e-06
7.27823e-06
7.21728e-06
7.16531e-06
7.12224e-06
7.08494e-06
7.04417e-06
6.97624e-06
6.82234e-06
6.47078e-06
6.23117e-06
9.30461e-05
9.1748e-05
9.05051e-05
8.88409e-05
8.57564e-05
7.9435e-05
6.70129e-05
4.43135e-05
8.45738e-06
7.56726e-05
7.4308e-05
7.31063e-05
7.20048e-05
7.07079e-05
6.84916e-05
6.39667e-05
5.47306e-05
3.71252e-05
7.79861e-06
4.59851e-05
4.5142e-05
4.44141e-05
4.37744e-05
4.30981e-05
4.20692e-05
4.00015e-05
3.55302e-05
2.61338e-05
7.33047e-06
7.29831e-06
7.24146e-06
7.19244e-06
7.15119e-06
7.11457e-06
7.07292e-06
7.00165e-06
6.84095e-06
6.4798e-06
6.23437e-06
9.62054e-05
9.4888e-05
9.355e-05
9.17103e-05
8.82668e-05
8.13066e-05
6.79284e-05
4.42282e-05
8.30515e-06
7.74341e-05
7.61156e-05
7.4951e-05
7.38427e-05
7.24745e-05
7.00754e-05
6.52051e-05
5.5451e-05
3.72909e-05
7.78789e-06
4.64772e-05
4.57167e-05
4.50441e-05
4.44313e-05
4.3751e-05
4.26747e-05
4.04953e-05
3.58403e-05
2.62233e-05
7.33271e-06
7.30313e-06
7.25087e-06
7.20523e-06
7.16625e-06
7.13075e-06
7.08883e-06
7.01533e-06
6.85009e-06
6.48328e-06
6.23659e-06
7.30553e-06
7.22187e-06
7.16467e-06
7.12281e-06
7.08104e-06
7.01148e-06
6.85477e-06
6.49521e-06
6.25708e-06
3.59256e-05
3.72547e-05
3.84803e-05
3.93628e-05
3.95637e-05
3.84478e-05
3.47056e-05
2.59136e-05
7.364e-06
6.92571e-05
6.9317e-05
6.94663e-05
6.93218e-05
6.80285e-05
6.41177e-05
5.51312e-05
3.74888e-05
7.81009e-06
9.26976e-05
9.19109e-05
9.12761e-05
9.0244e-05
8.75478e-05
8.11653e-05
6.79988e-05
4.41992e-05
8.12776e-06
0.000107677
0.000106326
0.000105133
0.000103395
9.96136e-05
9.15061e-05
7.59143e-05
4.90491e-05
0.000115236
0.00011349
0.000112023
0.000109859
0.000105429
9.63677e-05
7.95918e-05
5.11381e-05
0.000116316
0.000114472
0.000112797
0.000110422
0.000105775
9.64812e-05
7.94954e-05
5.07397e-05
0.000110746
0.000109232
0.000107739
0.000105471
0.00010103
9.21845e-05
7.59256e-05
4.83247e-05
9.82829e-05
9.69892e-05
9.56097e-05
9.36407e-05
8.9902e-05
8.24144e-05
6.82702e-05
4.38169e-05
8.10485e-06
7.83975e-05
7.71798e-05
7.60896e-05
7.50068e-05
7.3598e-05
7.10612e-05
6.59217e-05
5.5782e-05
3.72658e-05
7.76808e-06
4.66402e-05
4.59731e-05
4.53661e-05
4.47921e-05
4.4121e-05
4.30155e-05
4.0756e-05
3.59733e-05
2.62195e-05
7.33203e-06
7.29865e-06
7.25082e-06
7.20884e-06
7.17238e-06
7.13832e-06
7.0966e-06
7.02173e-06
6.85362e-06
6.48362e-06
6.23817e-06
7.26826e-06
7.20451e-06
7.15835e-06
7.12156e-06
7.0823e-06
7.01286e-06
6.85433e-06
6.49351e-06
6.25769e-06
3.73429e-05
3.83773e-05
3.93464e-05
4.00157e-05
4.00361e-05
3.87444e-05
3.48223e-05
2.58932e-05
7.35859e-06
7.06846e-05
7.05942e-05
7.06338e-05
7.03266e-05
6.88224e-05
6.46188e-05
5.52714e-05
3.73716e-05
7.79373e-06
9.44833e-05
9.36005e-05
9.29105e-05
9.17115e-05
8.87192e-05
8.18552e-05
6.80755e-05
4.3833e-05
8.04122e-06
0.000109786
0.00010839
0.000107154
0.00010523
0.000101054
9.22474e-05
7.56358e-05
4.76879e-05
8.30349e-06
0.000117371
0.000115769
0.000114255
0.000111876
0.000106984
9.70906e-05
7.90413e-05
4.9304e-05
8.43895e-06
0.00011836
0.000116638
0.000114955
0.000112392
0.000107294
9.71858e-05
7.89474e-05
4.90577e-05
8.42381e-06
0.000112541
0.000111137
0.000109603
0.00010717
0.000102358
9.28552e-05
7.56172e-05
4.71655e-05
8.2778e-06
9.9526e-05
9.82927e-05
9.69199e-05
9.48624e-05
9.08945e-05
8.29971e-05
6.83019e-05
4.34534e-05
8.00756e-06
7.88002e-05
7.77126e-05
7.6716e-05
7.56814e-05
7.42567e-05
7.16234e-05
6.6285e-05
5.58749e-05
3.71457e-05
7.75408e-06
4.65996e-05
4.60188e-05
4.54813e-05
4.49524e-05
4.42998e-05
4.31802e-05
4.08668e-05
3.60007e-05
2.61707e-05
7.33051e-06
7.28897e-06
7.24558e-06
7.20687e-06
7.17295e-06
7.14054e-06
7.09939e-06
7.0238e-06
6.85399e-06
6.48241e-06
6.23935e-06
7.23722e-06
7.18755e-06
7.14981e-06
7.11819e-06
7.08096e-06
7.0119e-06
6.85239e-06
6.49092e-06
6.25783e-06
3.8436e-05
3.92525e-05
4.00182e-05
4.05128e-05
4.03821e-05
3.89428e-05
3.48775e-05
2.58478e-05
7.35297e-06
7.15656e-05
7.14522e-05
7.14244e-05
7.1001e-05
6.93269e-05
6.48867e-05
5.52751e-05
3.72165e-05
7.78049e-06
9.54929e-05
9.46841e-05
9.39878e-05
9.2668e-05
8.94388e-05
8.21918e-05
6.79761e-05
4.34923e-05
7.99776e-06
0.000110976
0.00010971
0.000108493
0.000106418
0.000101925
9.25754e-05
7.52782e-05
4.69156e-05
8.13865e-06
0.000118662
0.000117229
0.000115713
0.000113176
0.000107912
9.73852e-05
7.85088e-05
4.83211e-05
8.19936e-06
0.00011955
0.000118016
0.000116348
0.000113648
0.000108193
9.74694e-05
7.84269e-05
4.81652e-05
8.18751e-06
0.000113591
0.000112309
0.000110769
0.000108221
0.000103124
9.31311e-05
7.52634e-05
4.65449e-05
8.11401e-06
0.000100176
9.902e-05
9.7686e-05
9.55744e-05
9.14399e-05
8.32425e-05
6.81788e-05
4.31253e-05
7.96454e-06
7.88349e-05
7.78914e-05
7.69911e-05
7.60167e-05
7.45961e-05
7.19009e-05
6.64248e-05
5.58391e-05
3.6994e-05
7.74543e-06
4.64332e-05
4.59416e-05
4.54672e-05
4.49843e-05
4.43564e-05
4.3234e-05
4.08878e-05
3.59732e-05
2.6102e-05
7.32903e-06
7.27627e-06
7.23704e-06
7.20185e-06
7.17041e-06
7.13957e-06
7.09918e-06
7.02338e-06
6.8528e-06
6.48041e-06
6.24024e-06
7.21135e-06
7.1721e-06
7.14102e-06
7.11339e-06
7.07834e-06
7.00981e-06
6.84956e-06
6.48811e-06
6.25758e-06
3.92895e-05
3.99413e-05
4.05471e-05
4.08998e-05
4.06435e-05
3.90814e-05
3.4904e-05
2.58003e-05
7.34745e-06
7.21214e-05
7.20337e-05
7.19656e-05
7.14539e-05
6.96415e-05
6.50131e-05
5.52079e-05
3.70618e-05
7.76968e-06
9.60397e-05
9.53604e-05
9.4678e-05
9.32722e-05
8.9855e-05
8.23152e-05
6.77944e-05
4.31974e-05
7.97394e-06
0.000111599
0.000110511
0.000109323
0.000107149
0.000102408
9.26612e-05
7.49202e-05
4.64032e-05
8.07497e-06
0.000119364
0.000118109
0.000116619
0.000113964
0.000108416
9.7432e-05
7.80341e-05
4.76881e-05
8.11071e-06
0.000120165
0.000118818
0.000117193
0.000114396
0.000108672
9.75087e-05
7.79627e-05
4.75447e-05
8.10182e-06
0.000114131
0.000112958
0.00011144
0.000108815
0.000103512
9.3174e-05
7.49144e-05
4.60731e-05
8.05359e-06
0.000100409
9.93598e-05
9.80755e-05
9.59391e-05
9.1692e-05
8.32871e-05
6.79875e-05
4.28373e-05
7.94496e-06
7.86511e-05
7.78427e-05
7.70428e-05
7.61299e-05
7.47282e-05
7.19986e-05
6.64336e-05
5.57414e-05
3.68431e-05
7.73991e-06
4.62052e-05
4.57893e-05
4.53797e-05
4.49423e-05
4.43398e-05
4.32225e-05
4.08603e-05
3.59188e-05
2.60316e-05
7.32773e-06
7.26253e-06
7.22705e-06
7.19497e-06
7.16598e-06
7.13688e-06
7.09741e-06
7.0217e-06
6.85077e-06
6.47817e-06
6.24087e-06
7.19002e-06
7.15855e-06
7.13268e-06
7.10835e-06
7.07505e-06
7.00709e-06
6.84649e-06
6.48525e-06
6.25697e-06
3.99676e-05
4.04931e-05
4.09719e-05
4.121e-05
4.08492e-05
3.91851e-05
3.49165e-05
2.57574e-05
7.34211e-06
7.24923e-05
7.24394e-05
7.23439e-05
7.176e-05
6.98386e-05
6.50643e-05
5.51175e-05
3.69238e-05
7.76052e-06
9.63259e-05
9.57757e-05
9.51121e-05
9.36434e-05
9.00815e-05
8.23254e-05
6.75965e-05
4.29542e-05
7.95877e-06
0.000111887
0.000110971
0.000109818
0.000107579
0.000102648
9.26167e-05
7.45935e-05
4.60262e-05
8.04619e-06
0.000119687
0.000118596
0.000117138
0.000114409
0.00010865
9.73459e-05
7.76258e-05
4.7221e-05
8.0745e-06
0.000120415
0.000119237
0.00011767
0.000114803
0.000108886
9.74191e-05
7.75639e-05
4.70795e-05
8.06788e-06
0.000114322
0.000113248
0.000111779
0.000109107
0.000103663
9.30951e-05
7.4597e-05
4.57019e-05
8.029e-06
0.00010039
9.94465e-05
9.82212e-05
9.60808e-05
9.1764e-05
8.32267e-05
6.77847e-05
4.25963e-05
7.93473e-06
7.8352e-05
7.76642e-05
7.69577e-05
7.61105e-05
7.47343e-05
7.1991e-05
6.63761e-05
5.56236e-05
3.67087e-05
7.73621e-06
4.59556e-05
4.56059e-05
4.52523e-05
4.4858e-05
4.42839e-05
4.31772e-05
4.08085e-05
3.5856e-05
2.59653e-05
7.32654e-06
7.24868e-06
7.21658e-06
7.18736e-06
7.16062e-06
7.13314e-06
7.09466e-06
7.01926e-06
6.84838e-06
6.47583e-06
6.24125e-06
7.17254e-06
7.14691e-06
7.12512e-06
7.10345e-06
7.07165e-06
7.00422e-06
6.84338e-06
6.48239e-06
6.25603e-06
4.05171e-05
4.09441e-05
4.13215e-05
4.14658e-05
4.10181e-05
3.92691e-05
3.49264e-05
2.57217e-05
7.33698e-06
7.27614e-05
7.27367e-05
7.26184e-05
7.19747e-05
6.99663e-05
6.50756e-05
5.5027e-05
3.6807e-05
7.75249e-06
9.64748e-05
9.60318e-05
9.53839e-05
9.38679e-05
9.01939e-05
8.22787e-05
6.74119e-05
4.27591e-05
7.94767e-06
0.000111988
0.000111216
0.000110097
0.000107811
0.000102744
9.2512e-05
7.43121e-05
4.57361e-05
8.03054e-06
0.000119783
0.000118829
0.000117413
0.000114634
0.000108728
9.72027e-05
7.7287e-05
4.6865e-05
8.05738e-06
0.00012045
0.00011941
0.000117901
0.000114995
0.000108945
9.72735e-05
7.72342e-05
4.67302e-05
8.05207e-06
0.000114295
0.00011332
0.000111905
0.000109214
0.000103678
9.29598e-05
7.43249e-05
4.54172e-05
8.01715e-06
0.000100229
9.9381e-05
9.8218e-05
9.60907e-05
9.17356e-05
8.31159e-05
6.75964e-05
4.24021e-05
7.92863e-06
7.80062e-05
7.74225e-05
7.67998e-05
7.60141e-05
7.46704e-05
7.1928e-05
6.62859e-05
5.55065e-05
3.65931e-05
7.7334e-06
4.57083e-05
4.54151e-05
4.51107e-05
4.47551e-05
4.42075e-05
4.31146e-05
4.07477e-05
3.57937e-05
2.59052e-05
7.32536e-06
7.23529e-06
7.20618e-06
7.17955e-06
7.15488e-06
7.12893e-06
7.09144e-06
7.01649e-06
6.84584e-06
6.47344e-06
6.24136e-06
7.15822e-06
7.13699e-06
7.11839e-06
7.09887e-06
7.06833e-06
7.00133e-06
6.84031e-06
6.4795e-06
6.25479e-06
4.09708e-05
4.13195e-05
4.16151e-05
4.16822e-05
4.11614e-05
3.93422e-05
3.49374e-05
2.56925e-05
7.33203e-06
7.29751e-05
7.2968e-05
7.28274e-05
7.21348e-05
7.00533e-05
6.50727e-05
5.49468e-05
3.67078e-05
7.74531e-06
9.65577e-05
9.61958e-05
9.55583e-05
9.40061e-05
9.02446e-05
8.22132e-05
6.72513e-05
4.25913e-05
7.9395e-06
0.000111995
0.000111335
0.000110248
0.000107929
0.000102761
9.23904e-05
7.40788e-05
4.54988e-05
8.02128e-06
0.000119755
0.00011891
0.000117541
0.000114727
0.000108717
9.70468e-05
7.70139e-05
4.65929e-05
8.04771e-06
0.000120367
0.00011944
0.000117987
0.000115057
0.000108919
9.71157e-05
7.69695e-05
4.64679e-05
8.04326e-06
0.00011415
0.000113264
0.000111904
0.00010921
0.00010362
9.28096e-05
7.41006e-05
4.52003e-05
8.01029e-06
9.99975e-05
9.92346e-05
9.81312e-05
9.60255e-05
9.16544e-05
8.29899e-05
6.74327e-05
4.22475e-05
7.92451e-06
7.76553e-05
7.71595e-05
7.66112e-05
7.58812e-05
7.45704e-05
7.18378e-05
6.61871e-05
5.53989e-05
3.64944e-05
7.73103e-06
4.54765e-05
4.52308e-05
4.49687e-05
4.46474e-05
4.41249e-05
4.3047e-05
4.06861e-05
3.57355e-05
2.58513e-05
7.3241e-06
7.2226e-06
7.19615e-06
7.17183e-06
7.14906e-06
7.12454e-06
7.08802e-06
7.01356e-06
6.84321e-06
6.471e-06
6.24121e-06
7.14643e-06
7.12854e-06
7.11245e-06
7.09466e-06
7.06513e-06
6.99848e-06
6.83731e-06
6.47645e-06
6.25347e-06
4.1351e-05
4.16365e-05
4.18656e-05
4.18684e-05
4.12864e-05
3.9408e-05
3.49503e-05
2.5661e-05
7.32812e-06
7.31576e-05
7.31587e-05
7.29952e-05
7.22618e-05
7.01193e-05
6.50666e-05
5.48787e-05
3.6609e-05
7.73994e-06
9.66134e-05
9.6309e-05
9.56773e-05
9.40958e-05
9.02657e-05
8.21472e-05
6.71164e-05
4.24401e-05
7.93364e-06
0.000111962
0.000111384
0.000110328
0.000107982
0.000102741
9.22737e-05
7.38893e-05
4.53059e-05
8.01493e-06
0.000119671
0.00011891
0.000117583
0.000114747
0.000108668
9.69001e-05
7.67968e-05
4.63829e-05
8.04133e-06
0.00012023
0.000119393
0.000117989
0.000115049
0.000108854
9.6967e-05
7.67599e-05
4.62686e-05
8.03751e-06
0.000113951
0.000113145
0.000111835
0.000109148
0.000103529
9.26657e-05
7.39188e-05
4.50329e-05
8.00568e-06
9.97399e-05
9.90536e-05
9.80046e-05
9.5925e-05
9.15525e-05
8.28667e-05
6.72942e-05
4.21223e-05
7.92136e-06
7.73224e-05
7.69e-05
7.6416e-05
7.57354e-05
7.44569e-05
7.17394e-05
6.60903e-05
5.53035e-05
3.64102e-05
7.72885e-06
4.52662e-05
4.50601e-05
4.48337e-05
4.45424e-05
4.40429e-05
4.29802e-05
4.06274e-05
3.56825e-05
2.58034e-05
7.32269e-06
7.21075e-06
7.18664e-06
7.16439e-06
7.14332e-06
7.12011e-06
7.0845e-06
7.01056e-06
6.84053e-06
6.46852e-06
6.24081e-06
7.13665e-06
7.12134e-06
7.1072e-06
7.09079e-06
7.06208e-06
6.99568e-06
6.83435e-06
6.47327e-06
6.25202e-06
4.16728e-05
4.19065e-05
4.20814e-05
4.20309e-05
4.13976e-05
3.94687e-05
3.49643e-05
2.56279e-05
7.32508e-06
7.33206e-05
7.33225e-05
7.31364e-05
7.23683e-05
7.01743e-05
6.50621e-05
5.48218e-05
3.65147e-05
7.73569e-06
9.66612e-05
9.63948e-05
9.57666e-05
9.41592e-05
9.02746e-05
8.20887e-05
6.70044e-05
4.23056e-05
7.92895e-06
0.00011192
0.0001114
0.000110371
0.000108003
0.000102708
9.2171e-05
7.37358e-05
4.51448e-05
8.01001e-06
0.000119567
0.000118873
0.000117582
0.000114731
0.000108604
9.67717e-05
7.66242e-05
4.62145e-05
8.03655e-06
0.000120076
0.000119312
0.000117951
0.000115007
0.000108777
9.68365e-05
7.65939e-05
4.61113e-05
8.03327e-06
0.000113737
0.000113
0.000111735
0.000109062
0.000103429
9.25365e-05
7.37716e-05
4.48995e-05
8.00214e-06
9.94837e-05
9.88655e-05
9.7864e-05
9.58121e-05
9.14464e-05
8.27535e-05
6.71778e-05
4.20196e-05
7.91862e-06
7.70183e-05
7.66572e-05
7.62279e-05
7.55905e-05
7.43425e-05
7.16424e-05
6.60005e-05
5.52199e-05
3.63378e-05
7.72669e-06
4.50793e-05
4.49055e-05
4.47094e-05
4.44442e-05
4.39653e-05
4.29171e-05
4.05731e-05
3.56348e-05
2.57607e-05
7.32113e-06
7.19976e-06
7.17769e-06
7.15727e-06
7.13775e-06
7.11573e-06
7.08097e-06
7.00752e-06
6.8378e-06
6.46598e-06
6.24016e-06
7.12848e-06
7.11514e-06
7.10255e-06
7.08724e-06
7.05918e-06
6.99295e-06
6.83142e-06
6.47001e-06
6.25036e-06
4.19466e-05
4.2139e-05
4.22688e-05
4.2174e-05
4.14972e-05
3.95249e-05
3.49791e-05
2.55962e-05
7.3224e-06
7.3469e-05
7.3467e-05
7.32596e-05
7.24612e-05
7.02233e-05
6.50608e-05
5.47746e-05
3.64278e-05
7.732e-06
9.67092e-05
9.64658e-05
9.58408e-05
9.42087e-05
9.02801e-05
8.20401e-05
6.69114e-05
4.21867e-05
7.92488e-06
0.000111882
0.000111403
0.000110394
0.000108009
0.000102674
9.20843e-05
7.36106e-05
4.50083e-05
8.00587e-06
0.000119465
0.000118822
0.00011756
0.000114701
0.000108541
9.66632e-05
7.64854e-05
4.60763e-05
8.03263e-06
0.000119926
0.000119222
0.000117895
0.000114953
0.000108701
9.67256e-05
7.6461e-05
4.59841e-05
8.02977e-06
0.000113528
0.000112852
0.000111624
0.000108968
0.000103332
9.24241e-05
7.36515e-05
4.47909e-05
7.99906e-06
9.92443e-05
9.86842e-05
9.77243e-05
9.56993e-05
9.13448e-05
8.26529e-05
6.70798e-05
4.19339e-05
7.91604e-06
7.67476e-05
7.64366e-05
7.60536e-05
7.54534e-05
7.42335e-05
7.15512e-05
6.59191e-05
5.51468e-05
3.62752e-05
7.72449e-06
4.4915e-05
4.47677e-05
4.45971e-05
4.43544e-05
4.38938e-05
4.28589e-05
4.05237e-05
3.55919e-05
2.57228e-05
7.31942e-06
7.18961e-06
7.16933e-06
7.15053e-06
7.13238e-06
7.11144e-06
7.07745e-06
7.00447e-06
6.83504e-06
6.4634e-06
6.23926e-06
7.12156e-06
7.10978e-06
7.0984e-06
7.08395e-06
7.0564e-06
6.99027e-06
6.82851e-06
6.46669e-06
6.24841e-06
4.21806e-05
4.23393e-05
4.24323e-05
4.23004e-05
4.15869e-05
3.95771e-05
3.49941e-05
2.55669e-05
7.31988e-06
7.3605e-05
7.35957e-05
7.33692e-05
7.25439e-05
7.02685e-05
6.50629e-05
5.47355e-05
3.6349e-05
7.72865e-06
9.67597e-05
9.65295e-05
9.59056e-05
9.42513e-05
9.02861e-05
8.20012e-05
6.68336e-05
4.20814e-05
7.92123e-06
0.000111854
0.000111404
0.00011041
0.000108011
0.000102644
9.20129e-05
7.35074e-05
4.4891e-05
8.00222e-06
0.000119374
0.000118772
0.000117532
0.000114668
0.000108484
9.65731e-05
7.63724e-05
4.59603e-05
8.02915e-06
0.00011979
0.000119136
0.000117834
0.000114897
0.000108631
9.66327e-05
7.63531e-05
4.58789e-05
8.02659e-06
0.000113336
0.000112712
0.000111516
0.000108877
0.000103242
9.23278e-05
7.35523e-05
4.47009e-05
7.99616e-06
9.9028e-05
9.85168e-05
9.7593e-05
9.55929e-05
9.12516e-05
8.25646e-05
6.69966e-05
4.18618e-05
7.91348e-06
7.65095e-05
7.62396e-05
7.58955e-05
7.53276e-05
7.41327e-05
7.14677e-05
6.58463e-05
5.50827e-05
3.62212e-05
7.72222e-06
4.47716e-05
4.46461e-05
4.44968e-05
4.42733e-05
4.38287e-05
4.28058e-05
4.04791e-05
3.55536e-05
2.56895e-05
7.31754e-06
7.18025e-06
7.16154e-06
7.14417e-06
7.12724e-06
7.10727e-06
7.07398e-06
7.00143e-06
6.83225e-06
6.46077e-06
6.23799e-06
7.11566e-06
7.10508e-06
7.09467e-06
7.08091e-06
7.05373e-06
6.98764e-06
6.82563e-06
6.46327e-06
6.24555e-06
4.23822e-05
4.25126e-05
4.25754e-05
4.24123e-05
4.16677e-05
3.96255e-05
3.5009e-05
2.55408e-05
7.31741e-06
7.3729e-05
7.37109e-05
7.3468e-05
7.26185e-05
7.03109e-05
6.50679e-05
5.4703e-05
3.62784e-05
7.72556e-06
9.68123e-05
9.65885e-05
9.59641e-05
9.42902e-05
9.0294e-05
8.19709e-05
6.67684e-05
4.19886e-05
7.91787e-06
0.000111836
0.000111408
0.000110424
0.000108013
0.000102619
9.19548e-05
7.34216e-05
4.47899e-05
7.99882e-06
0.000119296
0.000118728
0.000117505
0.000114638
0.000108436
9.6499e-05
7.62792e-05
4.58622e-05
8.02587e-06
0.00011967
0.000119058
0.000117777
0.000114845
0.00010857
9.65556e-05
7.62645e-05
4.57912e-05
8.02353e-06
0.000113165
0.000112584
0.000111416
0.000108793
0.000103163
9.22459e-05
7.34696e-05
4.46259e-05
7.99333e-06
9.88363e-05
9.83658e-05
9.74731e-05
9.54958e-05
9.1168e-05
8.24877e-05
6.69257e-05
4.1801e-05
7.91092e-06
7.63018e-05
7.60656e-05
7.57542e-05
7.52139e-05
7.40412e-05
7.13922e-05
6.57816e-05
5.50267e-05
3.61749e-05
7.71987e-06
4.4647e-05
4.45394e-05
4.44079e-05
4.42007e-05
4.377e-05
4.2758e-05
4.0439e-05
3.55194e-05
2.56605e-05
7.31542e-06
7.17164e-06
7.15429e-06
7.13818e-06
7.12233e-06
7.10323e-06
7.07057e-06
6.99842e-06
6.82946e-06
6.45804e-06
6.23572e-06
7.11056e-06
7.10094e-06
7.09129e-06
7.07806e-06
7.05117e-06
6.98506e-06
6.82276e-06
6.45955e-06
6.23912e-06
4.25555e-05
4.26629e-05
4.27005e-05
4.25115e-05
4.17405e-05
3.96702e-05
3.50241e-05
2.55187e-05
7.31454e-06
7.38414e-05
7.38136e-05
7.35574e-05
7.2686e-05
7.03508e-05
6.50751e-05
5.46767e-05
3.62168e-05
7.72259e-06
9.68649e-05
9.66442e-05
9.60177e-05
9.43266e-05
9.0304e-05
8.1948e-05
6.6714e-05
4.19082e-05
7.91465e-06
0.000111826
0.000111415
0.000110437
0.000108016
0.000102601
9.19081e-05
7.33502e-05
4.47036e-05
7.99553e-06
0.000119232
0.000118693
0.00011748
0.000114611
0.000108396
9.64384e-05
7.62021e-05
4.57798e-05
8.02267e-06
0.000119568
0.00011899
0.000117726
0.0001148
0.000108518
9.64919e-05
7.61914e-05
4.57184e-05
8.02053e-06
0.000113016
0.00011247
0.000111326
0.000108718
0.000103094
9.21763e-05
7.34004e-05
4.45637e-05
7.99052e-06
9.86682e-05
9.82317e-05
9.73657e-05
9.54087e-05
9.10939e-05
8.24211e-05
6.68652e-05
4.17502e-05
7.90833e-06
7.61214e-05
7.5913e-05
7.56289e-05
7.51122e-05
7.3959e-05
7.13246e-05
6.57243e-05
5.49778e-05
3.61357e-05
7.71743e-06
4.4539e-05
4.44461e-05
4.43295e-05
4.41361e-05
4.37174e-05
4.2715e-05
4.04032e-05
3.54892e-05
2.5636e-05
7.31271e-06
7.16372e-06
7.14757e-06
7.13256e-06
7.11766e-06
7.09934e-06
7.06725e-06
6.99546e-06
6.82666e-06
6.45495e-06
6.22959e-06
7.10611e-06
7.09726e-06
7.08821e-06
7.0754e-06
7.04871e-06
6.98255e-06
6.81989e-06
6.45481e-06
6.21842e-06
4.27047e-05
4.27932e-05
4.28101e-05
4.25994e-05
4.18061e-05
3.97117e-05
3.50396e-05
2.5502e-05
7.31021e-06
7.39425e-05
7.39054e-05
7.36376e-05
7.27472e-05
7.03883e-05
6.50844e-05
5.4656e-05
3.61649e-05
7.71953e-06
9.69161e-05
9.66968e-05
9.6067e-05
9.4361e-05
9.03158e-05
8.19314e-05
6.66693e-05
4.18403e-05
7.91148e-06
0.000111822
0.000111426
0.00011045
0.000108021
0.000102588
9.18712e-05
7.32913e-05
4.46314e-05
7.9923e-06
0.00011918
0.000118665
0.00011746
0.00011459
0.000108363
9.63893e-05
7.61387e-05
4.57116e-05
8.01952e-06
0.000119483
0.000118932
0.000117681
0.00011476
0.000108475
9.64396e-05
7.61312e-05
4.56587e-05
8.01757e-06
0.000112886
0.00011237
0.000111246
0.000108652
0.000103034
9.21177e-05
7.33426e-05
4.45128e-05
7.98773e-06
9.85219e-05
9.81135e-05
9.72704e-05
9.53313e-05
9.10288e-05
8.23636e-05
6.68139e-05
4.17086e-05
7.90573e-06
7.5965e-05
7.57796e-05
7.55183e-05
7.50217e-05
7.38856e-05
7.12644e-05
6.5674e-05
5.49356e-05
3.61035e-05
7.71483e-06
4.44457e-05
4.43648e-05
4.42606e-05
4.40789e-05
4.36706e-05
4.26766e-05
4.03714e-05
3.54628e-05
2.56165e-05
7.30852e-06
7.15644e-06
7.14133e-06
7.12729e-06
7.11324e-06
7.0956e-06
7.06402e-06
6.99255e-06
6.82383e-06
6.45071e-06
6.20842e-06
7.10207e-06
7.09386e-06
7.0853e-06
7.07283e-06
7.04628e-06
6.98003e-06
6.81688e-06
6.44758e-06
5.83909e-06
4.28377e-05
4.29102e-05
4.29094e-05
4.26801e-05
4.18673e-05
3.97517e-05
3.50563e-05
2.54908e-05
7.3028e-06
7.40361e-05
7.399e-05
7.37118e-05
7.28047e-05
7.0425e-05
6.50958e-05
5.46401e-05
3.61213e-05
7.7162e-06
9.69661e-05
9.67478e-05
9.61138e-05
9.43948e-05
9.03297e-05
8.19199e-05
6.66322e-05
4.17827e-05
7.90824e-06
0.000111823
0.00011144
0.000110465
0.000108028
0.00010258
9.18417e-05
7.32419e-05
4.45705e-05
7.98902e-06
0.000119137
0.000118641
0.000117444
0.000114573
0.000108337
9.63488e-05
7.60853e-05
4.56546e-05
8.01632e-06
0.000119408
0.00011888
0.000117642
0.000114726
0.000108439
9.63957e-05
7.60805e-05
4.56094e-05
8.01456e-06
0.000112771
0.00011228
0.000111173
0.000108592
0.000102981
9.20669e-05
7.32934e-05
4.44708e-05
7.98488e-06
9.83902e-05
9.80062e-05
9.71833e-05
9.52607e-05
9.09699e-05
8.23126e-05
6.67693e-05
4.16742e-05
7.90303e-06
7.58248e-05
7.56591e-05
7.54176e-05
7.49387e-05
7.38181e-05
7.12093e-05
6.56284e-05
5.48982e-05
3.60768e-05
7.71197e-06
4.43622e-05
4.42916e-05
4.4198e-05
4.40265e-05
4.36275e-05
4.26414e-05
4.03424e-05
3.54394e-05
2.56014e-05
7.30158e-06
7.1495e-06
7.13535e-06
7.12219e-06
7.10892e-06
7.09191e-06
7.06081e-06
6.98964e-06
6.82085e-06
6.4439e-06
5.82894e-06
7.09838e-06
7.0907e-06
7.08255e-06
7.07034e-06
7.0439e-06
6.97754e-06
6.81396e-06
6.44192e-06
5.80674e-06
4.29548e-05
4.30142e-05
4.29984e-05
4.27535e-05
4.19242e-05
3.97902e-05
3.50739e-05
2.5483e-05
7.2971e-06
7.41212e-05
7.4067e-05
7.37796e-05
7.28582e-05
7.04606e-05
6.51093e-05
5.46294e-05
3.60867e-05
7.71291e-06
9.70132e-05
9.67969e-05
9.61576e-05
9.44276e-05
9.03454e-05
8.19136e-05
6.66032e-05
4.17365e-05
7.90496e-06
0.000111828
0.000111455
0.00011048
0.000108037
0.000102576
9.18196e-05
7.32022e-05
4.45218e-05
7.98571e-06
0.000119102
0.000118623
0.000117431
0.00011456
0.000108317
9.63169e-05
7.60422e-05
4.56095e-05
8.0131e-06
0.000119345
0.000118835
0.000117608
0.000114697
0.000108409
9.63602e-05
7.60397e-05
4.5571e-05
8.01152e-06
0.000112669
0.000112199
0.000111109
0.00010854
0.000102936
9.20242e-05
7.32528e-05
4.44384e-05
7.98199e-06
9.82732e-05
9.79099e-05
9.71048e-05
9.51972e-05
9.09177e-05
8.22684e-05
6.67319e-05
4.16477e-05
7.90028e-06
7.57005e-05
7.55514e-05
7.53268e-05
7.48636e-05
7.37568e-05
7.11596e-05
6.55879e-05
5.48659e-05
3.60557e-05
7.70912e-06
4.42884e-05
4.42264e-05
4.41419e-05
4.39792e-05
4.35884e-05
4.26094e-05
4.03163e-05
3.54186e-05
2.55886e-05
7.29629e-06
7.14294e-06
7.12965e-06
7.1173e-06
7.10472e-06
7.08829e-06
7.05764e-06
6.98674e-06
6.81796e-06
6.43889e-06
5.79933e-06
7.0951e-06
7.08785e-06
7.08003e-06
7.06803e-06
7.04165e-06
6.97518e-06
6.81126e-06
6.43802e-06
5.79643e-06
4.30546e-05
4.31034e-05
4.30756e-05
4.2818e-05
4.19752e-05
3.98259e-05
3.50917e-05
2.54786e-05
7.29345e-06
7.41954e-05
7.41346e-05
7.38395e-05
7.29063e-05
7.04939e-05
6.51242e-05
5.46238e-05
3.60615e-05
7.70983e-06
9.70559e-05
9.68412e-05
9.61971e-05
9.44583e-05
9.03623e-05
8.19122e-05
6.65826e-05
4.17024e-05
7.90179e-06
0.000111834
0.00011147
0.000110495
0.000108047
0.000102576
9.18049e-05
7.31729e-05
4.44861e-05
7.98252e-06
0.000119075
0.000118608
0.000117422
0.000114552
0.000108303
9.62937e-05
7.60101e-05
4.55769e-05
8.01e-06
0.000119292
0.000118797
0.000117579
0.000114674
0.000108386
9.63336e-05
7.60092e-05
4.5544e-05
8.00858e-06
0.000112583
0.000112129
0.000111053
0.000108495
0.000102898
9.19902e-05
7.32218e-05
4.4416e-05
7.97918e-06
9.81727e-05
9.78264e-05
9.70365e-05
9.51422e-05
9.08733e-05
8.2232e-05
6.67024e-05
4.16295e-05
7.89759e-06
7.55938e-05
7.54584e-05
7.52479e-05
7.47978e-05
7.37031e-05
7.11164e-05
6.55535e-05
5.48394e-05
3.60407e-05
7.70644e-06
4.42254e-05
4.41704e-05
4.40932e-05
4.3938e-05
4.35542e-05
4.25814e-05
4.02937e-05
3.54009e-05
2.55781e-05
7.29286e-06
7.13692e-06
7.12441e-06
7.11275e-06
7.10079e-06
7.08488e-06
7.05463e-06
6.984e-06
6.81528e-06
6.43557e-06
5.7903e-06
7.09216e-06
7.08528e-06
7.07773e-06
7.0659e-06
7.03956e-06
6.97297e-06
6.80875e-06
6.4349e-06
5.79224e-06
4.31392e-05
4.31797e-05
4.31422e-05
4.28746e-05
4.20208e-05
3.98589e-05
3.51096e-05
2.54777e-05
7.29063e-06
7.42595e-05
7.41935e-05
7.38919e-05
7.29494e-05
7.0525e-05
6.51403e-05
5.46227e-05
3.60447e-05
7.7069e-06
9.70939e-05
9.68806e-05
9.62326e-05
9.44869e-05
9.03798e-05
8.1915e-05
6.65695e-05
4.16791e-05
7.89873e-06
0.000111842
0.000111484
0.000110509
0.000108059
0.000102579
9.17968e-05
7.31529e-05
4.44619e-05
7.97945e-06
0.000119054
0.000118597
0.000117415
0.000114546
0.000108295
9.62782e-05
7.59876e-05
4.55555e-05
8.00702e-06
0.000119248
0.000118765
0.000117555
0.000114656
0.000108369
9.63147e-05
7.59879e-05
4.55273e-05
8.00575e-06
0.000112509
0.000112069
0.000111005
0.000108457
0.000102867
9.19641e-05
7.31992e-05
4.44027e-05
7.97647e-06
9.80862e-05
9.7754e-05
9.69772e-05
9.50948e-05
9.08359e-05
8.22026e-05
6.66801e-05
4.16189e-05
7.89499e-06
7.55022e-05
7.5378e-05
7.51792e-05
7.47403e-05
7.36563e-05
7.10792e-05
6.55247e-05
5.48184e-05
3.60314e-05
7.70389e-06
4.41715e-05
4.41221e-05
4.40511e-05
4.3902e-05
4.35243e-05
4.25572e-05
4.02745e-05
3.53862e-05
2.55704e-05
7.29019e-06
7.13141e-06
7.11957e-06
7.10853e-06
7.09712e-06
7.08168e-06
7.05179e-06
6.98141e-06
6.8128e-06
6.43298e-06
5.78684e-06
7.08951e-06
7.08294e-06
7.07562e-06
7.06393e-06
7.03762e-06
6.97091e-06
6.80643e-06
6.43215e-06
5.78944e-06
4.3211e-05
4.32449e-05
4.31997e-05
4.29241e-05
4.20616e-05
3.98895e-05
3.51275e-05
2.54802e-05
7.28808e-06
7.43146e-05
7.42448e-05
7.39378e-05
7.29879e-05
7.05541e-05
6.51573e-05
5.46255e-05
3.60354e-05
7.70409e-06
9.71273e-05
9.69152e-05
9.62644e-05
9.45134e-05
9.03979e-05
8.19214e-05
6.65631e-05
4.16654e-05
7.89581e-06
0.00011185
0.000111497
0.000110523
0.000108071
0.000102586
9.17943e-05
7.31411e-05
4.44479e-05
7.97653e-06
0.000119037
0.000118588
0.000117411
0.000114544
0.000108291
9.62695e-05
7.59738e-05
4.5544e-05
8.00418e-06
0.000119212
0.000118738
0.000117536
0.000114642
0.000108357
9.63028e-05
7.59749e-05
4.55197e-05
8.00306e-06
0.000112446
0.000112018
0.000110964
0.000108425