/*--------------------------------*- C++ -*----------------------------------*\
| =========                 |                                                 |
| \\      /  F ield         | OpenFOAM: The Open Source CFD Toolbox           |
|  \\    /   O peration     | Version:  2.3.1                                 |
|   \\  /    A nd           | Web:      www.OpenFOAM.org                      |
|    \\/     M anipulation  |                                                 |
\*---------------------------------------------------------------------------*/
FoamFile
{
    version     2.0;
    format      ascii;
    class       volScalarField;
    location    "15";
    object      p;
}
// * * * * * * * * * * * * * * * * * * * * * * * * * * * * * * * * * * * * * //

dimensions      [0 2 -2 0 0 0 0];

internalField   nonuniform List<scalar> 
37784
(
0.808005
0.808024
0.808037
0.808047
0.808054
0.808058
0.808061
0.808063
0.808064
0.807978
0.808
0.808017
0.80803
0.80804
0.808048
0.808053
0.808057
0.80806
0.808061
0.807978
0.807997
0.808014
0.808027
0.808037
0.808045
0.80805
0.808054
0.808057
0.808058
0.807978
0.807997
0.808013
0.808025
0.808035
0.808043
0.808049
0.808053
0.808056
0.808057
0.697643
0.697661
0.697675
0.697684
0.697691
0.697696
0.697699
0.697701
0.697702
0.697616
0.697638
0.697655
0.697668
0.697678
0.697686
0.697691
0.697695
0.697697
0.697698
0.697615
0.697635
0.697651
0.697664
0.697674
0.697682
0.697688
0.697692
0.697694
0.697695
0.697616
0.697635
0.69765
0.697663
0.697673
0.697681
0.697687
0.697691
0.697693
0.697694
0.58728
0.587299
0.587312
0.587322
0.587329
0.587333
0.587336
0.587338
0.587339
0.587254
0.587275
0.587292
0.587305
0.587315
0.587323
0.587328
0.587332
0.587335
0.587336
0.587253
0.587273
0.587289
0.587302
0.587312
0.587319
0.587325
0.587329
0.587332
0.587333
0.587254
0.587273
0.587288
0.587301
0.587311
0.587318
0.587324
0.587328
0.58733
0.587332
0.476917
0.476936
0.476949
0.476959
0.476966
0.47697
0.476973
0.476975
0.476976
0.476891
0.476912
0.476929
0.476943
0.476953
0.47696
0.476966
0.476969
0.476972
0.476973
0.476891
0.47691
0.476926
0.476939
0.476949
0.476957
0.476962
0.476966
0.476969
0.47697
0.476892
0.47691
0.476926
0.476938
0.476948
0.476956
0.476961
0.476965
0.476968
0.476969
0.366554
0.366572
0.366586
0.366595
0.366602
0.366607
0.36661
0.366612
0.366613
0.366529
0.366549
0.366566
0.36658
0.36659
0.366597
0.366603
0.366606
0.366609
0.36661
0.366529
0.366548
0.366564
0.366576
0.366586
0.366594
0.3666
0.366603
0.366606
0.366607
0.366531
0.366548
0.366563
0.366576
0.366585
0.366593
0.366599
0.366602
0.366605
0.366606
0.25619
0.256208
0.256222
0.256232
0.256239
0.256244
0.256247
0.256249
0.25625
0.256166
0.256187
0.256203
0.256216
0.256227
0.256234
0.25624
0.256243
0.256246
0.256247
0.256167
0.256185
0.256201
0.256214
0.256223
0.256231
0.256237
0.256241
0.256243
0.256244
0.256169
0.256186
0.256201
0.256213
0.256223
0.25623
0.256236
0.25624
0.256242
0.256243
0.145827
0.145845
0.145858
0.145868
0.145875
0.145881
0.145884
0.145886
0.145886
0.145804
0.145824
0.14584
0.145853
0.145863
0.145871
0.145876
0.14588
0.145883
0.145884
0.145805
0.145823
0.145838
0.145851
0.145861
0.145868
0.145874
0.145877
0.14588
0.145881
0.145807
0.145824
0.145838
0.14585
0.14586
0.145867
0.145873
0.145877
0.145879
0.14588
0.0354638
0.0354813
0.0354947
0.0355047
0.0355119
0.035517
0.0355202
0.0355224
0.035523
0.0354423
0.0354615
0.0354774
0.0354902
0.0355001
0.0355075
0.035513
0.0355167
0.0355193
0.0355203
0.0354434
0.0354608
0.0354756
0.0354878
0.0354975
0.035505
0.0355105
0.0355143
0.0355168
0.0355178
0.0354454
0.0354617
0.0354758
0.0354876
0.035497
0.0355043
0.0355098
0.0355135
0.035516
0.0355169
-0.074899
-0.0748821
-0.0748689
-0.074859
-0.0748518
-0.0748466
-0.0748433
-0.0748411
-0.0748405
-0.0749193
-0.0749009
-0.0748854
-0.074873
-0.0748632
-0.0748558
-0.0748503
-0.0748466
-0.074844
-0.074843
-0.074918
-0.0749013
-0.0748869
-0.074875
-0.0748655
-0.0748581
-0.0748526
-0.0748488
-0.0748464
-0.0748454
-0.0749162
-0.0749004
-0.0748867
-0.0748752
-0.0748659
-0.0748587
-0.0748533
-0.0748496
-0.0748472
-0.0748462
-0.185262
-0.185245
-0.185232
-0.185223
-0.185215
-0.18521
-0.185207
-0.185205
-0.185204
-0.185281
-0.185263
-0.185248
-0.185236
-0.185226
-0.185219
-0.185214
-0.18521
-0.185207
-0.185206
-0.185279
-0.185263
-0.185249
-0.185238
-0.185228
-0.185221
-0.185216
-0.185212
-0.18521
-0.185209
-0.185278
-0.185262
-0.185249
-0.185238
-0.185229
-0.185222
-0.185216
-0.185213
-0.18521
-0.185209
-0.295545
-0.295515
-0.295508
-0.295512
-0.295519
-0.295525
-0.295531
-0.295534
-0.295536
-0.295569
-0.295537
-0.295524
-0.295522
-0.295525
-0.295529
-0.295533
-0.295536
-0.295537
-0.295579
-0.29555
-0.295536
-0.295532
-0.295533
-0.295535
-0.295538
-0.29554
-0.295541
-0.295599
-0.29557
-0.295554
-0.295546
-0.295543
-0.295543
-0.295544
-0.295545
-0.295545
-0.295604
-0.29558
-0.295565
-0.295556
-0.295552
-0.29555
-0.29555
-0.29555
-0.295614
-0.295591
-0.295576
-0.295567
-0.295561
-0.295558
-0.295556
-0.295554
-0.295618
-0.295598
-0.295584
-0.295575
-0.295568
-0.295564
-0.295562
-0.295559
-0.295622
-0.295604
-0.295591
-0.295581
-0.295574
-0.295569
-0.295566
-0.295563
-0.295624
-0.295608
-0.295596
-0.295586
-0.295579
-0.295574
-0.295571
-0.295568
-0.295568
-0.295642
-0.295625
-0.295611
-0.295599
-0.29559
-0.295582
-0.295577
-0.295573
-0.295571
-0.29557
-0.295641
-0.295625
-0.295612
-0.295601
-0.295591
-0.295584
-0.295579
-0.295575
-0.295573
-0.295572
-0.295639
-0.295624
-0.295612
-0.295601
-0.295592
-0.295585
-0.29558
-0.295576
-0.295574
-0.295573
-0.405926
-0.405899
-0.405888
-0.405888
-0.405891
-0.405895
-0.405899
-0.405901
-0.405902
-0.405943
-0.405914
-0.4059
-0.405895
-0.405896
-0.405898
-0.405901
-0.405903
-0.405904
-0.40595
-0.405923
-0.405909
-0.405903
-0.405902
-0.405903
-0.405905
-0.405906
-0.405907
-0.405965
-0.405939
-0.405923
-0.405914
-0.405911
-0.40591
-0.40591
-0.40591
-0.40591
-0.40597
-0.405947
-0.405932
-0.405924
-0.405919
-0.405917
-0.405916
-0.405915
-0.405915
-0.405978
-0.405957
-0.405942
-0.405932
-0.405927
-0.405923
-0.405921
-0.40592
-0.40592
-0.405981
-0.405963
-0.405949
-0.40594
-0.405933
-0.405929
-0.405926
-0.405924
-0.405924
-0.405984
-0.405968
-0.405955
-0.405945
-0.405938
-0.405933
-0.40593
-0.405928
-0.405927
-0.405986
-0.405971
-0.405959
-0.40595
-0.405943
-0.405938
-0.405934
-0.405932
-0.405931
-0.406003
-0.405987
-0.405973
-0.405962
-0.405953
-0.405946
-0.40594
-0.405937
-0.405934
-0.405933
-0.406002
-0.405987
-0.405974
-0.405963
-0.405954
-0.405947
-0.405942
-0.405938
-0.405936
-0.405935
-0.406
-0.405986
-0.405974
-0.405963
-0.405955
-0.405948
-0.405943
-0.405939
-0.405937
-0.405936
-0.516303
-0.516277
-0.516265
-0.516262
-0.516262
-0.516264
-0.516266
-0.516268
-0.516269
-0.516314
-0.516287
-0.516273
-0.516267
-0.516266
-0.516267
-0.516268
-0.516269
-0.51627
-0.51632
-0.516295
-0.516281
-0.516274
-0.516271
-0.516271
-0.516272
-0.516272
-0.516273
-0.516331
-0.516307
-0.516291
-0.516283
-0.516278
-0.516277
-0.516276
-0.516276
-0.516276
-0.516335
-0.516314
-0.5163
-0.516291
-0.516285
-0.516282
-0.516281
-0.51628
-0.51628
-0.516341
-0.516322
-0.516308
-0.516298
-0.516292
-0.516288
-0.516286
-0.516285
-0.516284
-0.516344
-0.516327
-0.516314
-0.516304
-0.516298
-0.516293
-0.516291
-0.516289
-0.516288
-0.516346
-0.516331
-0.516319
-0.516309
-0.516302
-0.516298
-0.516294
-0.516292
-0.516291
-0.516348
-0.516334
-0.516322
-0.516313
-0.516306
-0.516301
-0.516298
-0.516296
-0.516295
-0.516364
-0.516349
-0.516336
-0.516325
-0.516316
-0.516309
-0.516304
-0.5163
-0.516298
-0.516297
-0.516362
-0.516349
-0.516336
-0.516326
-0.516317
-0.51631
-0.516305
-0.516302
-0.516299
-0.516299
-0.516361
-0.516348
-0.516336
-0.516326
-0.516318
-0.516311
-0.516306
-0.516302
-0.5163
-0.516299
-0.626676
-0.626652
-0.62664
-0.626634
-0.626633
-0.626633
-0.626634
-0.626634
-0.626635
-0.626683
-0.626659
-0.626645
-0.626638
-0.626635
-0.626635
-0.626635
-0.626636
-0.626636
-0.626687
-0.626665
-0.626651
-0.626643
-0.62664
-0.626638
-0.626638
-0.626638
-0.626638
-0.626696
-0.626674
-0.626659
-0.62665
-0.626646
-0.626643
-0.626642
-0.626642
-0.626641
-0.626699
-0.62668
-0.626666
-0.626657
-0.626651
-0.626648
-0.626646
-0.626645
-0.626645
-0.626704
-0.626686
-0.626673
-0.626663
-0.626657
-0.626653
-0.626651
-0.626649
-0.626649
-0.626706
-0.62669
-0.626678
-0.626669
-0.626662
-0.626658
-0.626655
-0.626653
-0.626652
-0.626708
-0.626694
-0.626682
-0.626673
-0.626666
-0.626661
-0.626658
-0.626656
-0.626655
-0.62671
-0.626696
-0.626685
-0.626676
-0.62667
-0.626665
-0.626661
-0.626659
-0.626658
-0.626724
-0.62671
-0.626698
-0.626687
-0.626679
-0.626672
-0.626667
-0.626663
-0.626661
-0.62666
-0.626723
-0.62671
-0.626698
-0.626688
-0.62668
-0.626673
-0.626668
-0.626665
-0.626663
-0.626662
-0.626722
-0.62671
-0.626698
-0.626688
-0.62668
-0.626674
-0.626669
-0.626665
-0.626663
-0.626662
-0.737046
-0.737024
-0.737011
-0.737005
-0.737002
-0.737001
-0.737001
-0.737001
-0.737001
-0.737051
-0.737029
-0.737015
-0.737007
-0.737004
-0.737002
-0.737002
-0.737002
-0.737002
-0.737054
-0.737033
-0.73702
-0.737012
-0.737007
-0.737005
-0.737004
-0.737004
-0.737004
-0.73706
-0.73704
-0.737026
-0.737017
-0.737012
-0.737009
-0.737008
-0.737007
-0.737007
-0.737063
-0.737045
-0.737032
-0.737023
-0.737017
-0.737013
-0.737011
-0.73701
-0.73701
-0.737066
-0.73705
-0.737037
-0.737028
-0.737022
-0.737018
-0.737015
-0.737014
-0.737013
-0.737068
-0.737054
-0.737042
-0.737033
-0.737026
-0.737022
-0.737019
-0.737017
-0.737016
-0.73707
-0.737057
-0.737045
-0.737037
-0.73703
-0.737025
-0.737022
-0.73702
-0.737019
-0.737071
-0.737059
-0.737048
-0.73704
-0.737033
-0.737028
-0.737025
-0.737023
-0.737022
-0.737085
-0.737072
-0.73706
-0.73705
-0.737042
-0.737035
-0.73703
-0.737027
-0.737025
-0.737024
-0.737084
-0.737072
-0.73706
-0.737051
-0.737043
-0.737036
-0.737031
-0.737028
-0.737026
-0.737025
-0.737083
-0.737071
-0.73706
-0.737051
-0.737043
-0.737037
-0.737032
-0.737028
-0.737026
-0.737025
-0.847414
-0.847394
-0.847381
-0.847374
-0.84737
-0.847368
-0.847367
-0.847367
-0.847366
-0.847417
-0.847397
-0.847384
-0.847376
-0.847371
-0.847369
-0.847368
-0.847367
-0.847367
-0.847419
-0.8474
-0.847387
-0.847379
-0.847374
-0.847371
-0.84737
-0.847369
-0.847369
-0.847423
-0.847405
-0.847392
-0.847384
-0.847378
-0.847375
-0.847373
-0.847372
-0.847372
-0.847426
-0.847409
-0.847397
-0.847388
-0.847382
-0.847379
-0.847376
-0.847375
-0.847374
-0.847429
-0.847413
-0.847402
-0.847393
-0.847387
-0.847382
-0.84738
-0.847378
-0.847377
-0.84743
-0.847417
-0.847405
-0.847397
-0.84739
-0.847386
-0.847383
-0.847381
-0.84738
-0.847432
-0.847419
-0.847409
-0.8474
-0.847394
-0.847389
-0.847386
-0.847384
-0.847383
-0.847433
-0.847421
-0.847411
-0.847403
-0.847396
-0.847391
-0.847388
-0.847386
-0.847385
-0.847445
-0.847433
-0.847422
-0.847412
-0.847404
-0.847398
-0.847393
-0.84739
-0.847388
-0.847387
-0.847445
-0.847433
-0.847422
-0.847413
-0.847405
-0.847399
-0.847394
-0.847391
-0.847389
-0.847388
-0.847444
-0.847432
-0.847422
-0.847413
-0.847406
-0.8474
-0.847395
-0.847392
-0.847389
-0.847389
-0.95778
-0.957762
-0.957749
-0.957742
-0.957737
-0.957734
-0.957733
-0.957732
-0.957732
-0.957781
-0.957764
-0.957751
-0.957743
-0.957738
-0.957735
-0.957734
-0.957733
-0.957733
-0.957783
-0.957766
-0.957754
-0.957746
-0.957741
-0.957737
-0.957736
-0.957735
-0.957734
-0.957786
-0.95777
-0.957758
-0.957749
-0.957744
-0.95774
-0.957738
-0.957737
-0.957736
-0.957788
-0.957773
-0.957762
-0.957753
-0.957747
-0.957743
-0.957741
-0.95774
-0.957739
-0.957791
-0.957777
-0.957766
-0.957757
-0.957751
-0.957747
-0.957744
-0.957742
-0.957742
-0.957792
-0.957779
-0.957769
-0.95776
-0.957754
-0.95775
-0.957747
-0.957745
-0.957744
-0.957793
-0.957781
-0.957771
-0.957763
-0.957757
-0.957752
-0.957749
-0.957747
-0.957747
-0.957794
-0.957783
-0.957773
-0.957766
-0.957759
-0.957755
-0.957751
-0.957749
-0.957749
-0.957806
-0.957794
-0.957784
-0.957775
-0.957767
-0.957761
-0.957756
-0.957753
-0.957751
-0.95775
-0.957805
-0.957794
-0.957784
-0.957775
-0.957768
-0.957762
-0.957757
-0.957754
-0.957752
-0.957751
-0.957805
-0.957794
-0.957784
-0.957775
-0.957768
-0.957762
-0.957758
-0.957754
-0.957752
-0.957752
-1.06814
-1.06813
-1.06812
-1.06811
-1.0681
-1.0681
-1.0681
-1.0681
-1.0681
-1.06815
-1.06813
-1.06812
-1.06811
-1.0681
-1.0681
-1.0681
-1.0681
-1.0681
-1.06815
-1.06813
-1.06812
-1.06811
-1.06811
-1.0681
-1.0681
-1.0681
-1.0681
-1.06815
-1.06813
-1.06812
-1.06811
-1.06811
-1.06811
-1.0681
-1.0681
-1.0681
-1.06815
-1.06814
-1.06813
-1.06812
-1.06811
-1.06811
-1.06811
-1.0681
-1.0681
-1.06815
-1.06814
-1.06813
-1.06812
-1.06812
-1.06811
-1.06811
-1.06811
-1.06811
-1.06815
-1.06814
-1.06813
-1.06812
-1.06812
-1.06811
-1.06811
-1.06811
-1.06811
-1.06815
-1.06814
-1.06813
-1.06813
-1.06812
-1.06812
-1.06811
-1.06811
-1.06811
-1.06816
-1.06814
-1.06814
-1.06813
-1.06812
-1.06812
-1.06811
-1.06811
-1.06811
-1.06817
-1.06816
-1.06815
-1.06814
-1.06813
-1.06812
-1.06812
-1.06812
-1.06811
-1.06811
-1.06817
-1.06816
-1.06815
-1.06814
-1.06813
-1.06812
-1.06812
-1.06812
-1.06812
-1.06811
-1.06817
-1.06815
-1.06815
-1.06814
-1.06813
-1.06812
-1.06812
-1.06812
-1.06812
-1.06811
-1.17851
-1.17849
-1.17848
-1.17847
-1.17847
-1.17847
-1.17846
-1.17846
-1.17846
-1.17851
-1.17849
-1.17848
-1.17848
-1.17847
-1.17847
-1.17846
-1.17846
-1.17846
-1.17851
-1.1785
-1.17848
-1.17848
-1.17847
-1.17847
-1.17847
-1.17846
-1.17846
-1.17851
-1.1785
-1.17849
-1.17848
-1.17847
-1.17847
-1.17847
-1.17847
-1.17847
-1.17851
-1.1785
-1.17849
-1.17848
-1.17848
-1.17847
-1.17847
-1.17847
-1.17847
-1.17851
-1.1785
-1.17849
-1.17848
-1.17848
-1.17847
-1.17847
-1.17847
-1.17847
-1.17851
-1.1785
-1.17849
-1.17849
-1.17848
-1.17848
-1.17847
-1.17847
-1.17847
-1.17852
-1.17851
-1.1785
-1.17849
-1.17848
-1.17848
-1.17848
-1.17847
-1.17847
-1.17852
-1.17851
-1.1785
-1.17849
-1.17849
-1.17848
-1.17848
-1.17848
-1.17848
-1.17853
-1.17852
-1.17851
-1.1785
-1.17849
-1.17849
-1.17848
-1.17848
-1.17848
-1.17848
-1.17853
-1.17852
-1.17851
-1.1785
-1.17849
-1.17849
-1.17848
-1.17848
-1.17848
-1.17848
-1.17853
-1.17852
-1.17851
-1.1785
-1.17849
-1.17849
-1.17848
-1.17848
-1.17848
-1.17848
-1.28887
-1.28886
-1.28885
-1.28884
-1.28883
-1.28883
-1.28883
-1.28883
-1.28883
-1.28887
-1.28886
-1.28885
-1.28884
-1.28883
-1.28883
-1.28883
-1.28883
-1.28883
-1.28887
-1.28886
-1.28885
-1.28884
-1.28884
-1.28883
-1.28883
-1.28883
-1.28883
-1.28887
-1.28886
-1.28885
-1.28884
-1.28884
-1.28883
-1.28883
-1.28883
-1.28883
-1.28887
-1.28886
-1.28885
-1.28885
-1.28884
-1.28884
-1.28883
-1.28883
-1.28883
-1.28888
-1.28886
-1.28886
-1.28885
-1.28884
-1.28884
-1.28884
-1.28883
-1.28883
-1.28888
-1.28887
-1.28886
-1.28885
-1.28884
-1.28884
-1.28884
-1.28884
-1.28884
-1.28888
-1.28887
-1.28886
-1.28885
-1.28885
-1.28884
-1.28884
-1.28884
-1.28884
-1.28888
-1.28887
-1.28886
-1.28885
-1.28885
-1.28884
-1.28884
-1.28884
-1.28884
-1.28889
-1.28888
-1.28887
-1.28886
-1.28885
-1.28885
-1.28884
-1.28884
-1.28884
-1.28884
-1.28889
-1.28888
-1.28887
-1.28886
-1.28885
-1.28885
-1.28885
-1.28884
-1.28884
-1.28884
-1.28889
-1.28888
-1.28887
-1.28886
-1.28886
-1.28885
-1.28885
-1.28884
-1.28884
-1.28884
-1.39923
-1.39922
-1.39921
-1.3992
-1.3992
-1.3992
-1.39919
-1.39919
-1.39919
-1.39923
-1.39922
-1.39921
-1.3992
-1.3992
-1.3992
-1.39919
-1.39919
-1.39919
-1.39923
-1.39922
-1.39921
-1.39921
-1.3992
-1.3992
-1.39919
-1.39919
-1.39919
-1.39923
-1.39922
-1.39921
-1.39921
-1.3992
-1.3992
-1.3992
-1.39919
-1.39919
-1.39924
-1.39923
-1.39922
-1.39921
-1.3992
-1.3992
-1.3992
-1.3992
-1.3992
-1.39924
-1.39923
-1.39922
-1.39921
-1.39921
-1.3992
-1.3992
-1.3992
-1.3992
-1.39924
-1.39923
-1.39922
-1.39921
-1.39921
-1.3992
-1.3992
-1.3992
-1.3992
-1.39924
-1.39923
-1.39922
-1.39921
-1.39921
-1.39921
-1.3992
-1.3992
-1.3992
-1.39924
-1.39923
-1.39922
-1.39922
-1.39921
-1.39921
-1.3992
-1.3992
-1.3992
-1.39925
-1.39924
-1.39923
-1.39922
-1.39922
-1.39921
-1.39921
-1.3992
-1.3992
-1.3992
-1.39925
-1.39924
-1.39923
-1.39922
-1.39922
-1.39921
-1.39921
-1.39921
-1.3992
-1.3992
-1.39925
-1.39924
-1.39923
-1.39922
-1.39922
-1.39921
-1.39921
-1.39921
-1.3992
-1.3992
-1.5096
-1.50958
-1.50958
-1.50957
-1.50956
-1.50956
-1.50956
-1.50956
-1.50955
-1.5096
-1.50958
-1.50958
-1.50957
-1.50956
-1.50956
-1.50956
-1.50956
-1.50956
-1.5096
-1.50959
-1.50958
-1.50957
-1.50956
-1.50956
-1.50956
-1.50956
-1.50956
-1.5096
-1.50959
-1.50958
-1.50957
-1.50957
-1.50956
-1.50956
-1.50956
-1.50956
-1.5096
-1.50959
-1.50958
-1.50957
-1.50957
-1.50956
-1.50956
-1.50956
-1.50956
-1.5096
-1.50959
-1.50958
-1.50957
-1.50957
-1.50956
-1.50956
-1.50956
-1.50956
-1.5096
-1.50959
-1.50958
-1.50958
-1.50957
-1.50957
-1.50956
-1.50956
-1.50956
-1.5096
-1.50959
-1.50958
-1.50958
-1.50957
-1.50957
-1.50957
-1.50956
-1.50956
-1.5096
-1.50959
-1.50958
-1.50958
-1.50957
-1.50957
-1.50957
-1.50956
-1.50956
-1.50961
-1.5096
-1.50959
-1.50958
-1.50958
-1.50957
-1.50957
-1.50957
-1.50957
-1.50956
-1.50961
-1.5096
-1.50959
-1.50958
-1.50958
-1.50957
-1.50957
-1.50957
-1.50957
-1.50957
-1.50961
-1.5096
-1.50959
-1.50958
-1.50958
-1.50957
-1.50957
-1.50957
-1.50957
-1.50957
-1.61996
-1.61995
-1.61994
-1.61993
-1.61993
-1.61992
-1.61992
-1.61992
-1.61992
-1.61996
-1.61995
-1.61994
-1.61993
-1.61993
-1.61992
-1.61992
-1.61992
-1.61992
-1.61996
-1.61995
-1.61994
-1.61993
-1.61993
-1.61992
-1.61992
-1.61992
-1.61992
-1.61996
-1.61995
-1.61994
-1.61993
-1.61993
-1.61993
-1.61992
-1.61992
-1.61992
-1.61996
-1.61995
-1.61994
-1.61994
-1.61993
-1.61993
-1.61992
-1.61992
-1.61992
-1.61996
-1.61995
-1.61994
-1.61994
-1.61993
-1.61993
-1.61993
-1.61992
-1.61992
-1.61996
-1.61995
-1.61994
-1.61994
-1.61993
-1.61993
-1.61993
-1.61993
-1.61992
-1.61996
-1.61995
-1.61994
-1.61994
-1.61993
-1.61993
-1.61993
-1.61993
-1.61993
-1.61996
-1.61995
-1.61995
-1.61994
-1.61994
-1.61993
-1.61993
-1.61993
-1.61993
-1.61997
-1.61996
-1.61995
-1.61995
-1.61994
-1.61994
-1.61993
-1.61993
-1.61993
-1.61993
-1.61997
-1.61996
-1.61995
-1.61995
-1.61994
-1.61994
-1.61993
-1.61993
-1.61993
-1.61993
-1.61997
-1.61996
-1.61995
-1.61995
-1.61994
-1.61994
-1.61993
-1.61993
-1.61993
-1.61993
-1.73032
-1.73031
-1.7303
-1.7303
-1.73029
-1.73029
-1.73028
-1.73028
-1.73028
-1.73032
-1.73031
-1.7303
-1.7303
-1.73029
-1.73029
-1.73028
-1.73028
-1.73028
-1.73032
-1.73031
-1.7303
-1.7303
-1.73029
-1.73029
-1.73029
-1.73028
-1.73028
-1.73032
-1.73031
-1.7303
-1.7303
-1.73029
-1.73029
-1.73029
-1.73028
-1.73028
-1.73032
-1.73031
-1.7303
-1.7303
-1.73029
-1.73029
-1.73029
-1.73029
-1.73029
-1.73032
-1.73031
-1.7303
-1.7303
-1.73029
-1.73029
-1.73029
-1.73029
-1.73029
-1.73032
-1.73031
-1.73031
-1.7303
-1.7303
-1.73029
-1.73029
-1.73029
-1.73029
-1.73032
-1.73031
-1.73031
-1.7303
-1.7303
-1.73029
-1.73029
-1.73029
-1.73029
-1.73032
-1.73031
-1.73031
-1.7303
-1.7303
-1.73029
-1.73029
-1.73029
-1.73029
-1.73033
-1.73032
-1.73031
-1.73031
-1.7303
-1.7303
-1.73029
-1.73029
-1.73029
-1.73029
-1.73033
-1.73032
-1.73031
-1.73031
-1.7303
-1.7303
-1.73029
-1.73029
-1.73029
-1.73029
-1.73033
-1.73032
-1.73031
-1.73031
-1.7303
-1.7303
-1.7303
-1.73029
-1.73029
-1.73029
-1.84458
-1.84457
-1.84457
-1.84456
-1.84456
-1.84455
-1.84455
-1.84455
-1.84455
-1.84458
-1.84457
-1.84457
-1.84456
-1.84456
-1.84455
-1.84455
-1.84455
-1.84455
-1.84458
-1.84457
-1.84457
-1.84456
-1.84456
-1.84455
-1.84455
-1.84455
-1.84455
-1.84458
-1.84457
-1.84457
-1.84456
-1.84456
-1.84455
-1.84455
-1.84455
-1.84455
-1.84458
-1.84457
-1.84457
-1.84456
-1.84456
-1.84455
-1.84455
-1.84455
-1.84455
-1.84458
-1.84457
-1.84457
-1.84456
-1.84456
-1.84456
-1.84455
-1.84455
-1.84455
-1.84458
-1.84458
-1.84457
-1.84456
-1.84456
-1.84456
-1.84455
-1.84455
-1.84455
-1.84458
-1.84458
-1.84457
-1.84456
-1.84456
-1.84456
-1.84455
-1.84455
-1.84455
-1.84458
-1.84458
-1.84457
-1.84457
-1.84456
-1.84456
-1.84456
-1.84455
-1.84455
-1.84459
-1.84458
-1.84458
-1.84457
-1.84457
-1.84456
-1.84456
-1.84456
-1.84455
-1.84455
-1.84459
-1.84458
-1.84458
-1.84457
-1.84457
-1.84456
-1.84456
-1.84456
-1.84455
-1.84455
-1.84459
-1.84458
-1.84458
-1.84457
-1.84457
-1.84456
-1.84456
-1.84456
-1.84456
-1.84455
-1.96274
-1.96274
-1.96273
-1.96273
-1.96272
-1.96272
-1.96272
-1.96271
-1.96271
-1.96274
-1.96274
-1.96273
-1.96273
-1.96272
-1.96272
-1.96272
-1.96271
-1.96271
-1.96274
-1.96274
-1.96273
-1.96273
-1.96272
-1.96272
-1.96272
-1.96271
-1.96271
-1.96275
-1.96274
-1.96273
-1.96273
-1.96272
-1.96272
-1.96272
-1.96272
-1.96272
-1.96275
-1.96274
-1.96273
-1.96273
-1.96272
-1.96272
-1.96272
-1.96272
-1.96272
-1.96275
-1.96274
-1.96273
-1.96273
-1.96272
-1.96272
-1.96272
-1.96272
-1.96272
-1.96275
-1.96274
-1.96273
-1.96273
-1.96272
-1.96272
-1.96272
-1.96272
-1.96272
-1.96275
-1.96274
-1.96273
-1.96273
-1.96273
-1.96272
-1.96272
-1.96272
-1.96272
-1.96275
-1.96274
-1.96274
-1.96273
-1.96273
-1.96272
-1.96272
-1.96272
-1.96272
-1.96275
-1.96275
-1.96274
-1.96274
-1.96273
-1.96273
-1.96272
-1.96272
-1.96272
-1.96272
-1.96275
-1.96275
-1.96274
-1.96274
-1.96273
-1.96273
-1.96272
-1.96272
-1.96272
-1.96272
-1.96275
-1.96275
-1.96274
-1.96274
-1.96273
-1.96273
-1.96272
-1.96272
-1.96272
-1.96272
-2.08091
-2.0809
-2.0809
-2.08089
-2.08089
-2.08088
-2.08088
-2.08088
-2.08088
-2.08091
-2.0809
-2.0809
-2.08089
-2.08089
-2.08088
-2.08088
-2.08088
-2.08088
-2.08091
-2.0809
-2.0809
-2.08089
-2.08089
-2.08088
-2.08088
-2.08088
-2.08088
-2.08091
-2.0809
-2.0809
-2.08089
-2.08089
-2.08089
-2.08088
-2.08088
-2.08088
-2.08091
-2.0809
-2.0809
-2.08089
-2.08089
-2.08089
-2.08088
-2.08088
-2.08088
-2.08091
-2.0809
-2.0809
-2.08089
-2.08089
-2.08089
-2.08088
-2.08088
-2.08088
-2.08091
-2.0809
-2.0809
-2.08089
-2.08089
-2.08089
-2.08089
-2.08088
-2.08088
-2.08091
-2.0809
-2.0809
-2.08089
-2.08089
-2.08089
-2.08089
-2.08088
-2.08088
-2.08091
-2.0809
-2.0809
-2.0809
-2.08089
-2.08089
-2.08089
-2.08089
-2.08088
-2.08092
-2.08091
-2.0809
-2.0809
-2.0809
-2.08089
-2.08089
-2.08089
-2.08089
-2.08089
-2.08092
-2.08091
-2.08091
-2.0809
-2.0809
-2.08089
-2.08089
-2.08089
-2.08089
-2.08089
-2.08092
-2.08091
-2.08091
-2.0809
-2.0809
-2.08089
-2.08089
-2.08089
-2.08089
-2.08089
-2.19907
-2.19907
-2.19906
-2.19906
-2.19905
-2.19905
-2.19905
-2.19905
-2.19905
-2.19907
-2.19907
-2.19906
-2.19906
-2.19905
-2.19905
-2.19905
-2.19905
-2.19905
-2.19907
-2.19907
-2.19906
-2.19906
-2.19905
-2.19905
-2.19905
-2.19905
-2.19905
-2.19907
-2.19907
-2.19906
-2.19906
-2.19905
-2.19905
-2.19905
-2.19905
-2.19905
-2.19907
-2.19907
-2.19906
-2.19906
-2.19905
-2.19905
-2.19905
-2.19905
-2.19905
-2.19907
-2.19907
-2.19906
-2.19906
-2.19905
-2.19905
-2.19905
-2.19905
-2.19905
-2.19907
-2.19907
-2.19906
-2.19906
-2.19906
-2.19905
-2.19905
-2.19905
-2.19905
-2.19907
-2.19907
-2.19906
-2.19906
-2.19906
-2.19905
-2.19905
-2.19905
-2.19905
-2.19907
-2.19907
-2.19906
-2.19906
-2.19906
-2.19905
-2.19905
-2.19905
-2.19905
-2.19908
-2.19907
-2.19907
-2.19906
-2.19906
-2.19906
-2.19905
-2.19905
-2.19905
-2.19905
-2.19908
-2.19907
-2.19907
-2.19906
-2.19906
-2.19906
-2.19905
-2.19905
-2.19905
-2.19905
-2.19908
-2.19907
-2.19907
-2.19906
-2.19906
-2.19906
-2.19905
-2.19905
-2.19905
-2.19905
-2.31724
-2.31723
-2.31723
-2.31722
-2.31722
-2.31722
-2.31721
-2.31721
-2.31721
-2.31724
-2.31723
-2.31723
-2.31722
-2.31722
-2.31722
-2.31721
-2.31721
-2.31721
-2.31724
-2.31723
-2.31723
-2.31722
-2.31722
-2.31722
-2.31721
-2.31721
-2.31721
-2.31724
-2.31723
-2.31723
-2.31722
-2.31722
-2.31722
-2.31721
-2.31721
-2.31721
-2.31724
-2.31723
-2.31723
-2.31722
-2.31722
-2.31722
-2.31721
-2.31721
-2.31721
-2.31724
-2.31723
-2.31723
-2.31722
-2.31722
-2.31722
-2.31722
-2.31721
-2.31721
-2.31724
-2.31723
-2.31723
-2.31722
-2.31722
-2.31722
-2.31722
-2.31721
-2.31721
-2.31724
-2.31723
-2.31723
-2.31722
-2.31722
-2.31722
-2.31722
-2.31722
-2.31722
-2.31724
-2.31723
-2.31723
-2.31722
-2.31722
-2.31722
-2.31722
-2.31722
-2.31722
-2.31724
-2.31724
-2.31723
-2.31723
-2.31722
-2.31722
-2.31722
-2.31722
-2.31722
-2.31722
-2.31724
-2.31724
-2.31723
-2.31723
-2.31723
-2.31722
-2.31722
-2.31722
-2.31722
-2.31722
-2.31724
-2.31724
-2.31723
-2.31723
-2.31723
-2.31722
-2.31722
-2.31722
-2.31722
-2.31722
-2.4354
-2.4354
-2.43539
-2.43539
-2.43538
-2.43538
-2.43538
-2.43538
-2.43538
-2.4354
-2.4354
-2.43539
-2.43539
-2.43538
-2.43538
-2.43538
-2.43538
-2.43538
-2.4354
-2.4354
-2.43539
-2.43539
-2.43538
-2.43538
-2.43538
-2.43538
-2.43538
-2.4354
-2.4354
-2.43539
-2.43539
-2.43538
-2.43538
-2.43538
-2.43538
-2.43538
-2.4354
-2.4354
-2.43539
-2.43539
-2.43538
-2.43538
-2.43538
-2.43538
-2.43538
-2.4354
-2.4354
-2.43539
-2.43539
-2.43538
-2.43538
-2.43538
-2.43538
-2.43538
-2.4354
-2.4354
-2.43539
-2.43539
-2.43539
-2.43538
-2.43538
-2.43538
-2.43538
-2.4354
-2.4354
-2.43539
-2.43539
-2.43539
-2.43538
-2.43538
-2.43538
-2.43538
-2.4354
-2.4354
-2.43539
-2.43539
-2.43539
-2.43538
-2.43538
-2.43538
-2.43538
-2.43541
-2.4354
-2.4354
-2.43539
-2.43539
-2.43539
-2.43538
-2.43538
-2.43538
-2.43538
-2.43541
-2.4354
-2.4354
-2.43539
-2.43539
-2.43539
-2.43538
-2.43538
-2.43538
-2.43538
-2.43541
-2.4354
-2.4354
-2.43539
-2.43539
-2.43539
-2.43538
-2.43538
-2.43538
-2.43538
-2.55356
-2.55356
-2.55356
-2.55355
-2.55355
-2.55355
-2.55354
-2.55354
-2.55354
-2.55356
-2.55356
-2.55356
-2.55355
-2.55355
-2.55355
-2.55354
-2.55354
-2.55354
-2.55356
-2.55356
-2.55356
-2.55355
-2.55355
-2.55355
-2.55354
-2.55354
-2.55354
-2.55356
-2.55356
-2.55356
-2.55355
-2.55355
-2.55355
-2.55355
-2.55354
-2.55354
-2.55356
-2.55356
-2.55356
-2.55355
-2.55355
-2.55355
-2.55355
-2.55354
-2.55354
-2.55356
-2.55356
-2.55356
-2.55355
-2.55355
-2.55355
-2.55355
-2.55354
-2.55354
-2.55356
-2.55356
-2.55356
-2.55355
-2.55355
-2.55355
-2.55355
-2.55355
-2.55355
-2.55356
-2.55356
-2.55356
-2.55355
-2.55355
-2.55355
-2.55355
-2.55355
-2.55355
-2.55357
-2.55356
-2.55356
-2.55355
-2.55355
-2.55355
-2.55355
-2.55355
-2.55355
-2.55357
-2.55357
-2.55356
-2.55356
-2.55355
-2.55355
-2.55355
-2.55355
-2.55355
-2.55355
-2.55357
-2.55357
-2.55356
-2.55356
-2.55355
-2.55355
-2.55355
-2.55355
-2.55355
-2.55355
-2.55357
-2.55357
-2.55356
-2.55356
-2.55355
-2.55355
-2.55355
-2.55355
-2.55355
-2.55355
-2.67173
-2.67172
-2.67172
-2.67172
-2.67171
-2.67171
-2.67171
-2.67171
-2.67171
-2.67173
-2.67172
-2.67172
-2.67172
-2.67171
-2.67171
-2.67171
-2.67171
-2.67171
-2.67173
-2.67172
-2.67172
-2.67172
-2.67171
-2.67171
-2.67171
-2.67171
-2.67171
-2.67173
-2.67172
-2.67172
-2.67172
-2.67171
-2.67171
-2.67171
-2.67171
-2.67171
-2.67173
-2.67172
-2.67172
-2.67172
-2.67171
-2.67171
-2.67171
-2.67171
-2.67171
-2.67173
-2.67172
-2.67172
-2.67172
-2.67171
-2.67171
-2.67171
-2.67171
-2.67171
-2.67173
-2.67172
-2.67172
-2.67172
-2.67171
-2.67171
-2.67171
-2.67171
-2.67171
-2.67173
-2.67172
-2.67172
-2.67172
-2.67172
-2.67171
-2.67171
-2.67171
-2.67171
-2.67173
-2.67172
-2.67172
-2.67172
-2.67172
-2.67171
-2.67171
-2.67171
-2.67171
-2.67173
-2.67173
-2.67172
-2.67172
-2.67172
-2.67172
-2.67171
-2.67171
-2.67171
-2.67171
-2.67173
-2.67173
-2.67172
-2.67172
-2.67172
-2.67172
-2.67171
-2.67171
-2.67171
-2.67171
-2.67173
-2.67173
-2.67172
-2.67172
-2.67172
-2.67172
-2.67171
-2.67171
-2.67171
-2.67171
-2.78989
-2.78989
-2.78988
-2.78988
-2.78988
-2.78988
-2.78987
-2.78987
-2.78987
-2.78989
-2.78989
-2.78988
-2.78988
-2.78988
-2.78988
-2.78987
-2.78987
-2.78987
-2.78989
-2.78989
-2.78988
-2.78988
-2.78988
-2.78988
-2.78988
-2.78987
-2.78987
-2.78989
-2.78989
-2.78988
-2.78988
-2.78988
-2.78988
-2.78988
-2.78987
-2.78987
-2.78989
-2.78989
-2.78988
-2.78988
-2.78988
-2.78988
-2.78988
-2.78987
-2.78987
-2.78989
-2.78989
-2.78988
-2.78988
-2.78988
-2.78988
-2.78988
-2.78987
-2.78987
-2.78989
-2.78989
-2.78988
-2.78988
-2.78988
-2.78988
-2.78988
-2.78988
-2.78988
-2.78989
-2.78989
-2.78989
-2.78988
-2.78988
-2.78988
-2.78988
-2.78988
-2.78988
-2.78989
-2.78989
-2.78989
-2.78988
-2.78988
-2.78988
-2.78988
-2.78988
-2.78988
-2.7899
-2.78989
-2.78989
-2.78989
-2.78988
-2.78988
-2.78988
-2.78988
-2.78988
-2.78988
-2.7899
-2.78989
-2.78989
-2.78989
-2.78988
-2.78988
-2.78988
-2.78988
-2.78988
-2.78988
-2.7899
-2.78989
-2.78989
-2.78989
-2.78988
-2.78988
-2.78988
-2.78988
-2.78988
-2.78988
-2.90805
-2.90805
-2.90805
-2.90805
-2.90804
-2.90804
-2.90804
-2.90804
-2.90804
-2.90805
-2.90805
-2.90805
-2.90805
-2.90804
-2.90804
-2.90804
-2.90804
-2.90804
-2.90805
-2.90805
-2.90805
-2.90805
-2.90804
-2.90804
-2.90804
-2.90804
-2.90804
-2.90805
-2.90805
-2.90805
-2.90805
-2.90804
-2.90804
-2.90804
-2.90804
-2.90804
-2.90805
-2.90805
-2.90805
-2.90805
-2.90804
-2.90804
-2.90804
-2.90804
-2.90804
-2.90806
-2.90805
-2.90805
-2.90805
-2.90804
-2.90804
-2.90804
-2.90804
-2.90804
-2.90806
-2.90805
-2.90805
-2.90805
-2.90804
-2.90804
-2.90804
-2.90804
-2.90804
-2.90806
-2.90805
-2.90805
-2.90805
-2.90804
-2.90804
-2.90804
-2.90804
-2.90804
-2.90806
-2.90805
-2.90805
-2.90805
-2.90804
-2.90804
-2.90804
-2.90804
-2.90804
-2.90806
-2.90806
-2.90805
-2.90805
-2.90805
-2.90804
-2.90804
-2.90804
-2.90804
-2.90804
-2.90806
-2.90806
-2.90805
-2.90805
-2.90805
-2.90804
-2.90804
-2.90804
-2.90804
-2.90804
-2.90806
-2.90806
-2.90805
-2.90805
-2.90805
-2.90804
-2.90804
-2.90804
-2.90804
-2.90804
-3.02622
-3.02621
-3.02621
-3.02621
-3.02621
-3.02621
-3.0262
-3.0262
-3.0262
-3.02622
-3.02621
-3.02621
-3.02621
-3.02621
-3.02621
-3.0262
-3.0262
-3.0262
-3.02622
-3.02621
-3.02621
-3.02621
-3.02621
-3.02621
-3.0262
-3.0262
-3.0262
-3.02622
-3.02622
-3.02621
-3.02621
-3.02621
-3.02621
-3.0262
-3.0262
-3.0262
-3.02622
-3.02622
-3.02621
-3.02621
-3.02621
-3.02621
-3.0262
-3.0262
-3.0262
-3.02622
-3.02622
-3.02621
-3.02621
-3.02621
-3.02621
-3.02621
-3.0262
-3.0262
-3.02622
-3.02622
-3.02621
-3.02621
-3.02621
-3.02621
-3.02621
-3.0262
-3.0262
-3.02622
-3.02622
-3.02621
-3.02621
-3.02621
-3.02621
-3.02621
-3.0262
-3.0262
-3.02622
-3.02622
-3.02621
-3.02621
-3.02621
-3.02621
-3.02621
-3.02621
-3.0262
-3.02622
-3.02622
-3.02622
-3.02621
-3.02621
-3.02621
-3.02621
-3.02621
-3.02621
-3.02621
-3.02622
-3.02622
-3.02622
-3.02621
-3.02621
-3.02621
-3.02621
-3.02621
-3.02621
-3.02621
-3.02622
-3.02622
-3.02622
-3.02621
-3.02621
-3.02621
-3.02621
-3.02621
-3.02621
-3.02621
-3.14438
-3.14438
-3.14438
-3.14437
-3.14437
-3.14437
-3.14437
-3.14437