/*--------------------------------*- C++ -*----------------------------------*\
| =========                 |                                                 |
| \\      /  F ield         | OpenFOAM: The Open Source CFD Toolbox           |
|  \\    /   O peration     | Version:  2.3.1                                 |
|   \\  /    A nd           | Web:      www.OpenFOAM.org                      |
|    \\/     M anipulation  |                                                 |
\*---------------------------------------------------------------------------*/
FoamFile
{
    version     2.0;
    format      ascii;
    class       surfaceScalarField;
    location    "15";
    object      phi;
}
// * * * * * * * * * * * * * * * * * * * * * * * * * * * * * * * * * * * * * //

dimensions      [0 3 -1 0 0 0 0];

internalField   nonuniform List<scalar> 
108008
(
-2.45883e-07
6.96535e-07
1.95817e-07
-1.47783e-07
5.52081e-07
1.47426e-07
-8.5306e-08
4.31625e-07
1.12549e-07
-4.64741e-08
3.36098e-07
8.79342e-08
-2.35779e-08
2.61787e-07
7.03863e-08
-1.15953e-08
2.08459e-07
5.7869e-08
-6.95554e-09
1.68085e-07
4.9198e-08
-3.07772e-09
1.53944e-07
4.06221e-08
1.32306e-07
3.10192e-08
-5.14915e-07
4.85089e-07
1.57655e-07
-3.56772e-07
4.09633e-07
1.2876e-07
-2.42894e-07
3.33956e-07
1.04248e-07
-1.62425e-07
2.66564e-07
8.4591e-08
-1.06782e-07
2.10969e-07
6.94856e-08
-6.93925e-08
1.66598e-07
5.77995e-08
-4.51239e-08
1.34711e-07
4.94794e-08
-3.02807e-08
1.1042e-07
4.2821e-08
-1.38756e-08
1.00594e-07
3.6945e-08
9.10853e-08
2.73453e-08
-5.64685e-07
2.02075e-07
9.1752e-08
-4.11966e-07
1.75832e-07
8.10821e-08
-2.94385e-07
1.46307e-07
7.0068e-08
-2.06344e-07
1.18507e-07
6.00168e-08
-1.41745e-07
9.47985e-08
5.15709e-08
-9.53425e-08
7.54438e-08
4.47518e-08
-6.18422e-08
6.15773e-08
3.96338e-08
-3.84678e-08
5.11543e-08
3.58918e-08
-1.82818e-08
4.78574e-08
3.25508e-08
4.5339e-08
2.74645e-08
-5.7475e-07
2.56266e-08
-4.28147e-07
2.92284e-08
-3.11848e-07
3.00087e-08
-2.22541e-07
2.92e-08
-1.55484e-07
2.77416e-08
-1.06119e-07
2.60789e-08
-6.94172e-08
2.4875e-08
-4.25263e-08
2.42634e-08
-1.94448e-08
2.47759e-08
2.58943e-08
-2.49299e-07
7.1874e-07
3.7869e-07
-1.48082e-07
5.71089e-07
2.87595e-07
-8.38725e-08
4.47205e-07
2.21179e-07
-4.42206e-08
3.48555e-07
1.73725e-07
-2.10133e-08
2.71815e-07
1.39518e-07
-8.8349e-09
2.16395e-07
1.14895e-07
-3.35496e-09
1.75327e-07
9.74347e-08
1.93647e-10
1.58944e-07
8.13868e-08
1.37323e-07
6.55131e-08
-5.211e-07
5.16584e-07
3.03104e-07
-3.5946e-07
4.36052e-07
2.49807e-07
-2.43293e-07
3.55518e-07
2.03652e-07
-1.61514e-07
2.83882e-07
1.66135e-07
-1.05161e-07
2.24769e-07
1.36918e-07
-6.74323e-08
1.77612e-07
1.14275e-07
-4.27608e-08
1.4347e-07
9.77328e-08
-2.71533e-08
1.17728e-07
8.48126e-08
-1.11894e-08
1.06174e-07
7.37519e-08
9.45048e-08
5.89745e-08
-5.71795e-07
2.31289e-07
1.81097e-07
-4.15675e-07
1.99697e-07
1.61318e-07
-2.95799e-07
1.65468e-07
1.40242e-07
-2.06348e-07
1.33759e-07
1.20689e-07
-1.40979e-07
1.06912e-07
1.04059e-07
-9.4211e-08
8.51486e-08
9.0447e-08
-6.05497e-08
6.93569e-08
8.00859e-08
-3.67636e-08
5.74649e-08
7.23689e-08
-1.65485e-08
5.24557e-08
6.60536e-08
4.74099e-08
5.80109e-08
-5.83024e-07
7.55717e-08
-4.32898e-07
7.87993e-08
-3.14179e-07
7.67569e-08
-2.23308e-07
7.20884e-08
-1.55336e-07
6.66814e-08
-1.05505e-07
6.13968e-08
-6.86455e-08
5.73722e-08
-4.16912e-08
5.4774e-08
-1.87043e-08
5.42447e-08
5.45999e-08
-2.60538e-07
7.05078e-07
5.3018e-07
-1.55372e-07
5.64503e-07
4.09214e-07
-8.84111e-08
4.44414e-07
3.18509e-07
-4.6899e-08
3.47723e-07
2.52241e-07
-2.23868e-08
2.72074e-07
2.0371e-07
-9.06533e-09
2.17117e-07
1.68363e-07
-2.24366e-09
1.76648e-07
1.42893e-07
2.29163e-09
1.59581e-07
1.20551e-07
1.37925e-07
1.0218e-07
-5.24232e-07
5.16838e-07
4.22416e-07
-3.6195e-07
4.38753e-07
3.53851e-07
-2.4498e-07
3.59281e-07
2.91903e-07
-1.62552e-07
2.87915e-07
2.40206e-07
-1.05674e-07
2.28619e-07
1.99145e-07
-6.74752e-08
1.8112e-07
1.67029e-07
-4.22182e-08
1.4649e-07
1.43103e-07
-2.57826e-08
1.2038e-07
1.24646e-07
-9.65914e-09
1.07885e-07
1.09324e-07
9.47282e-08
9.25118e-08
-5.70067e-07
2.42159e-07
2.61045e-07
-4.1454e-07
2.09096e-07
2.35449e-07
-2.94986e-07
1.73448e-07
2.06522e-07
-2.05733e-07
1.40455e-07
1.78897e-07
-1.40483e-07
1.12482e-07
1.54945e-07
-9.37391e-08
8.97974e-08
1.35026e-07
-5.99865e-08
7.31669e-08
1.19656e-07
-3.58224e-08
6.05186e-08
1.08066e-07
-1.54151e-08
5.4415e-08
9.91167e-08
4.76243e-08
8.96996e-08
-5.7899e-07
1.3804e-07
-4.30133e-07
1.39038e-07
-3.12327e-07
1.32399e-07
-2.2208e-07
1.22296e-07
-1.54511e-07
1.11595e-07
-1.04891e-07
1.01573e-07
-6.8099e-08
9.37476e-08
-4.10426e-08
8.82362e-08
-1.8049e-08
8.56661e-08
8.41752e-08
-2.77367e-07
6.76088e-07
6.46124e-07
-1.6763e-07
5.46918e-07
5.08828e-07
-9.70481e-08
4.33853e-07
4.0193e-07
-5.28347e-08
3.41393e-07
3.21615e-07
-2.63084e-08
2.68383e-07
2.61681e-07
-1.13454e-08
2.15025e-07
2.17474e-07
-3.09109e-09
1.75703e-07
1.85259e-07
2.55744e-09
1.58978e-07
1.5803e-07
1.37331e-07
1.39028e-07
-5.29755e-07
5.00826e-07
5.13323e-07
-3.67513e-07
4.28998e-07
4.38699e-07
-2.4972e-07
3.53755e-07
3.67274e-07
-1.66305e-07
2.85091e-07
3.05553e-07
-1.0848e-07
2.2738e-07
2.55333e-07
-6.93948e-08
1.80841e-07
2.15486e-07
-4.32762e-08
1.46668e-07
1.85341e-07
-2.59505e-08
1.20793e-07
1.6223e-07
-9.36936e-09
1.0803e-07
1.4369e-07
9.41384e-08
1.26335e-07
-5.69165e-07
2.40883e-07
3.29228e-07
-4.15067e-07
2.09006e-07
3.01343e-07
-2.96115e-07
1.74164e-07
2.67161e-07
-2.07012e-07
1.41628e-07
2.33257e-07
-1.41671e-07
1.13844e-07
2.0314e-07
-9.46682e-08
9.11965e-08
1.77667e-07
-6.05512e-08
7.44462e-08
1.57761e-07
-3.58762e-08
6.15656e-08
1.42618e-07
-1.51218e-08
5.49628e-08
1.3143e-07
4.73585e-08
1.21358e-07
-5.75505e-07
2.02336e-07
-4.28666e-07
2.01204e-07
-3.12064e-07
1.89961e-07
-2.22444e-07
1.74305e-07
-1.55115e-07
1.5811e-07
-1.05448e-07
1.43102e-07
-6.84344e-08
1.3118e-07
-4.10254e-08
1.22393e-07
-1.78138e-08
1.17417e-07
1.1372e-07
-2.97636e-07
6.36325e-07
7.26966e-07
-1.83448e-07
5.21072e-07
5.85332e-07
-1.08864e-07
4.17205e-07
4.70099e-07
-6.14239e-08
3.30641e-07
3.80734e-07
-3.23902e-08
2.6146e-07
3.12583e-07
-1.54351e-08
2.10588e-07
2.61699e-07
-5.60321e-09
1.72914e-07
2.24235e-07
1.35477e-09
1.5734e-07
1.93639e-07
1.35892e-07
1.74656e-07
-5.3689e-07
4.73252e-07
5.76375e-07
-3.75482e-07
4.09974e-07
5.03641e-07
-2.56999e-07
3.41112e-07
4.28751e-07
-1.7239e-07
2.76909e-07
3.61239e-07
-1.1329e-07
2.22137e-07
3.04737e-07
-7.2984e-08
1.77561e-07
2.5908e-07
-4.57505e-08
1.44598e-07
2.24097e-07
-2.74019e-08
1.19466e-07
1.9733e-07
-1.00265e-08
1.07001e-07
1.76655e-07
9.27958e-08
1.59404e-07
-5.69339e-07
2.31252e-07
3.83798e-07
-4.17304e-07
2.02253e-07
3.57028e-07
-2.99132e-07
1.69715e-07
3.20386e-07
-2.10092e-07
1.38845e-07
2.82281e-07
-1.44441e-07
1.12178e-07
2.47448e-07
-9.69101e-08
9.02608e-08
2.17436e-07
-6.21748e-08
7.39214e-08
1.93703e-07
-3.68089e-08
6.12159e-08
1.75503e-07
-1.54736e-08
5.45657e-08
1.62529e-07
4.66799e-08
1.52e-07
-5.73178e-07
2.6105e-07
-4.28796e-07
2.59076e-07
-3.13501e-07
2.44381e-07
-2.24408e-07
2.24056e-07
-1.57109e-07
2.02989e-07
-1.07138e-07
1.83393e-07
-6.96434e-08
1.67607e-07
-4.16499e-08
1.55615e-07
-1.79744e-08
1.48307e-07
1.42425e-07
-3.19013e-07
5.8985e-07
7.76237e-07
-2.01272e-07
4.89388e-07
6.39583e-07
-1.22862e-07
3.95895e-07
5.22814e-07
-7.2037e-08
3.16322e-07
4.29104e-07
-4.02267e-08
2.51839e-07
3.55904e-07
-2.10466e-08
2.04125e-07
3.00648e-07
-9.48486e-09
1.68526e-07
2.59514e-07
-9.97363e-10
1.54721e-07
2.27126e-07
1.33731e-07
2.0799e-07
-5.44267e-07
4.38441e-07
6.14265e-07
-3.84743e-07
3.84581e-07
5.49385e-07
-2.66005e-07
3.23272e-07
4.76129e-07
-1.80245e-07
2.64648e-07
4.06725e-07
-1.19721e-07
2.13772e-07
3.46763e-07
-7.79761e-08
1.71893e-07
2.97281e-07
-4.9422e-08
1.40714e-07
2.58953e-07
-2.98878e-08
1.16735e-07
2.29586e-07
-1.13862e-08
1.05001e-07
2.07873e-07
9.07487e-08
1.91001e-07
-5.69994e-07
2.16323e-07
4.2401e-07
-4.20706e-07
1.9108e-07
4.01242e-07
-3.03601e-07
1.6173e-07
3.64823e-07
-2.14642e-07
1.33294e-07
3.24675e-07
-1.48551e-07
1.08372e-07
2.86757e-07
-1.00296e-07
8.76677e-08
2.53407e-07
-6.47356e-08
7.21219e-08
2.26735e-07
-3.84919e-08
5.98959e-08
2.06098e-07
-1.63148e-08
5.35162e-08
1.91837e-07
4.56394e-08
1.80794e-07
-5.71536e-07
3.09766e-07
-4.30095e-07
3.08715e-07
-3.16287e-07
2.92303e-07
-2.27701e-07
2.68765e-07
-1.60295e-07
2.43956e-07
-1.09831e-07
2.20596e-07
-7.16513e-08
2.01549e-07
-4.28757e-08
1.86736e-07
-1.84974e-08
1.77445e-07
1.69567e-07
-3.39829e-07
5.39856e-07
7.98725e-07
-2.19847e-07
4.5395e-07
6.73552e-07
-1.38164e-07
3.7124e-07
5.60649e-07
-8.40787e-08
2.99261e-07
4.6668e-07
-4.93991e-08
2.40055e-07
3.91406e-07
-2.78434e-08
1.95954e-07
3.34023e-07
-1.43983e-08
1.62762e-07
2.90792e-07
-4.16465e-09
1.51131e-07
2.58188e-07
1.30878e-07
2.38262e-07
-5.50856e-07
3.99791e-07
6.30657e-07
-3.94352e-07
3.55239e-07
5.77499e-07
-2.75991e-07
3.01903e-07
5.09815e-07
-1.89323e-07
2.49449e-07
4.41847e-07
-1.2738e-07
2.03063e-07
3.81018e-07
-8.40789e-08
1.64387e-07
3.29648e-07
-5.40418e-08
1.35391e-07
2.89479e-07
-3.31434e-08
1.12873e-07
2.58576e-07
-1.32353e-08
1.02154e-07
2.36942e-07
8.80454e-08
2.20598e-07
-5.70543e-07
1.98382e-07
4.50034e-07
-4.2471e-07
1.77182e-07
4.33466e-07
-3.09045e-07
1.51438e-07
3.99623e-07
-2.20292e-07
1.25869e-07
3.59503e-07
-1.53725e-07
1.03076e-07
3.20177e-07
-1.04622e-07
8.39061e-08
2.84784e-07
-6.8075e-08
6.9414e-08
2.56166e-07
-4.07751e-08
5.78828e-08
2.33789e-07
-1.75198e-08
5.19707e-08
2.18765e-07
4.4265e-08
2.07055e-07
-5.7011e-07
3.46232e-07
-4.32101e-07
3.47888e-07
-3.20026e-07
3.31667e-07
-2.3201e-07
3.06617e-07
-1.6444e-07
2.79463e-07
-1.13358e-07
2.53421e-07
-7.43388e-08
2.31943e-07
-4.46078e-08
2.14887e-07
-1.9318e-08
2.04126e-07
1.94514e-07
-3.58966e-07
4.88819e-07
7.99419e-07
-2.38192e-07
4.1653e-07
6.8973e-07
-1.54008e-07
3.44448e-07
5.84667e-07
-9.69812e-08
2.80261e-07
4.93772e-07
-5.94746e-08
2.26636e-07
4.19044e-07
-3.54568e-08
1.86395e-07
3.61561e-07
-1.99729e-08
1.55834e-07
3.17766e-07
-7.95268e-09
1.46519e-07
2.86643e-07
1.27288e-07
2.64808e-07
-5.55962e-07
3.59881e-07
6.29383e-07
-4.03558e-07
3.23927e-07
5.89989e-07
-2.86296e-07
2.78438e-07
5.30645e-07
-1.99098e-07
2.32321e-07
4.66775e-07
-1.35864e-07
1.90713e-07
4.07333e-07
-9.09773e-08
1.55532e-07
3.55865e-07
-5.93357e-08
1.2896e-07
3.15273e-07
-3.68942e-08
1.08108e-07
2.83861e-07
-1.5381e-08
9.85303e-08
2.63417e-07
8.47446e-08
2.4776e-07
-5.70504e-07
1.79126e-07
4.62698e-07
-4.28792e-07
1.61862e-07
4.5382e-07
-3.14991e-07
1.39801e-07
4.24459e-07
-2.26653e-07
1.17267e-07
3.8622e-07
-1.59656e-07
9.68008e-08
3.47093e-07
-1.09652e-07
7.93512e-08
3.1096e-07
-7.20063e-08
6.6068e-08
2.81413e-07
-4.35011e-08
5.53708e-08
2.58021e-07
-1.89868e-08
5.00154e-08
2.42766e-07
4.25779e-08
2.30235e-07
-5.6844e-07
3.69745e-07
-4.34339e-07
3.75648e-07
-3.24291e-07
3.61421e-07
-2.36983e-07
3.36574e-07
-1.69269e-07
3.0855e-07
-1.17512e-07
2.81015e-07
-7.75487e-08
2.58048e-07
-4.67243e-08
2.39434e-07
-2.03638e-08
2.27781e-07
2.16729e-07
-3.7576e-07
4.38573e-07
7.82912e-07
-2.55575e-07
3.78577e-07
6.90735e-07
-1.69753e-07
3.16578e-07
5.96187e-07
-1.10224e-07
2.60068e-07
5.10938e-07
-7.0036e-08
2.12092e-07
4.3893e-07
-4.34937e-08
1.75776e-07
3.83102e-07
-2.57975e-08
1.47924e-07
3.40066e-07
-1.19837e-08
1.40723e-07
3.12246e-07
1.22761e-07
2.87202e-07
-5.59165e-07
3.20562e-07
6.13955e-07
-4.11802e-07
2.92198e-07
5.89001e-07
-2.96365e-07
2.54063e-07
5.39721e-07
-2.09088e-07
2.14131e-07
4.81946e-07
-1.4478e-07
1.77341e-07
4.25753e-07
-9.83502e-08
1.4577e-07
3.75757e-07
-6.50163e-08
1.21719e-07
3.35995e-07
-4.08582e-08
1.02637e-07
3.0499e-07
-1.76335e-08
9.41567e-08
2.86759e-07
8.09072e-08
2.7198e-07
-5.69514e-07
1.59775e-07
4.63236e-07
-4.325e-07
1.46102e-07
4.62904e-07
-3.20995e-07
1.27567e-07
4.39449e-07
-2.33338e-07
1.08043e-07
4.04651e-07
-1.6603e-07
8.9952e-08
3.67173e-07
-1.15135e-07
7.43022e-08
3.31532e-07
-7.63273e-08
6.2295e-08
3.0203e-07
-4.65085e-08
5.25062e-08
2.78333e-07
-2.06264e-08
4.76944e-08
2.63346e-07
4.05866e-08
2.49929e-07
-5.66138e-07
3.80659e-07
-4.36373e-07
3.91985e-07
-3.28671e-07
3.81286e-07
-2.42265e-07
3.58212e-07
-1.74493e-07
3.30729e-07
-1.22066e-07
3.0289e-07
-8.11056e-08
2.79383e-07
-4.90911e-08
2.59925e-07
-2.15605e-08
2.47945e-07
2.35755e-07
-3.89861e-07
3.90423e-07
7.53168e-07
-2.71476e-07
3.41237e-07
6.79079e-07
-1.84876e-07
2.88529e-07
5.96645e-07
-1.23346e-07
2.39343e-07
5.1889e-07
-8.06882e-08
1.96896e-07
4.51311e-07
-5.15727e-08
1.64413e-07
3.98514e-07
-3.14426e-08
1.39214e-07
3.57274e-07
-1.56413e-08
1.33379e-07
3.34323e-07
1.16434e-07
3.0525e-07
-5.60281e-07
2.83101e-07
5.87391e-07
-4.18695e-07
2.61211e-07
5.76626e-07
-3.05746e-07
2.29716e-07
5.38294e-07
-2.18869e-07
1.95599e-07
4.88e-07
-1.5376e-07
1.63477e-07
4.36509e-07
-1.0589e-07
1.35487e-07
3.89295e-07
-7.08081e-08
1.13938e-07
3.51389e-07
-4.47705e-08
9.6642e-08
3.21525e-07
-1.98125e-08
8.9026e-08
3.06153e-07
7.66024e-08
2.92e-07
-5.67324e-07
1.4116e-07
4.53094e-07
-4.35467e-07
1.30611e-07
4.61647e-07
-3.26666e-07
1.15302e-07
4.45061e-07
-2.39988e-07
9.86304e-08
4.14941e-07
-1.72539e-07
8.28519e-08
3.80349e-07
-1.20821e-07
6.89972e-08
3.46305e-07
-8.08373e-08
5.82633e-08
3.1772e-07
-4.96444e-08
4.94048e-08
2.94377e-07
-2.23613e-08
4.50295e-08
2.80059e-07
3.82937e-08
2.65877e-07
-5.62909e-07
3.79999e-07
-4.37839e-07
3.97526e-07
-3.32796e-07
3.91544e-07
-2.47526e-07
3.71573e-07
-1.79833e-07
3.45888e-07
-1.26797e-07
3.18851e-07
-8.48353e-08
2.95685e-07
-5.15793e-08
2.76074e-07
-2.28402e-08
2.64235e-07
2.51208e-07
1.99154e-07
5.5428e-07
4.28849e-06
3.59858e-07
4.06267e-07
3.29464e-06
3.7472e-07
2.82843e-07
2.43608e-06
3.27477e-07
1.93667e-07
1.78068e-06
2.58575e-07
1.34058e-07
1.31266e-06
1.86441e-07
9.54449e-08
9.92141e-07
1.17339e-07
7.15297e-08
7.83479e-07
5.4743e-08
5.45065e-08
6.59649e-07
4.30377e-08
5.9761e-07
4.62813e-08
7.04879e-07
3.41883e-06
2.27302e-07
5.52576e-07
2.75814e-06
2.8321e-07
4.13987e-07
2.13772e-06
2.71313e-07
3.03129e-07
1.62304e-06
2.27703e-07
2.22556e-07
1.23281e-06
1.72357e-07
1.66097e-07
9.53846e-07
1.1435e-07
1.28784e-07
7.67207e-07
5.72044e-08
1.02209e-07
6.55012e-07
8.75372e-08
5.99175e-07
-4.606e-08
7.43316e-07
2.90649e-06
1.34368e-07
6.16627e-07
2.39375e-06
2.05274e-07
4.86101e-07
1.88883e-06
2.12121e-07
3.71627e-07
1.45968e-06
1.86576e-07
2.82052e-07
1.12763e-06
1.46952e-07
2.15641e-07
8.87162e-07
1.01724e-07
1.70655e-07
7.23548e-07
5.42197e-08
1.37999e-07
6.2342e-07
1.26961e-07
5.68774e-07
-1.40857e-07
7.15732e-07
2.35249e-06
2.90136e-08
6.14378e-07
1.97332e-06
1.11996e-07
5.00684e-07
1.59152e-06
1.38488e-07
3.95589e-07
1.26065e-06
1.32776e-07
3.09255e-07
9.97256e-07
1.10093e-07
2.42255e-07
8.01832e-07
7.85584e-08
1.96044e-07
6.65894e-07
4.28561e-08
1.59781e-07
5.82441e-07
5.36043e-07
-1.95422e-07
6.95425e-07
1.98176e-06
-4.48483e-08
6.00666e-07
1.66112e-06
3.65325e-08
4.95124e-07
1.34864e-06
7.21848e-08
3.96962e-07
1.08208e-06
8.00461e-08
3.1499e-07
8.70197e-07
7.13153e-08
2.50105e-07
7.12086e-07
5.32282e-08
2.045e-07
5.9907e-07
1.65863e-07
5.30242e-07
-2.67608e-07
6.33986e-07
1.5585e-06
-1.25552e-07
5.50842e-07
1.33251e-06
-4.00291e-08
4.59403e-07
1.10599e-06
5.98453e-09
3.73769e-07
9.07471e-07
2.661e-08
3.00909e-07
7.45757e-07
2.93582e-08
2.42702e-07
6.24239e-07
2.1756e-08
2.00815e-07
5.35468e-07
1.65369e-07
4.94309e-07
-3.20576e-07
5.53575e-07
1.22316e-06
-1.89838e-07
4.83237e-07
1.06337e-06
-1.04041e-07
4.063e-07
8.99897e-07
-5.10946e-08
3.34057e-07
7.54197e-07
-2.09528e-08
2.71971e-07
6.3324e-07
-8.38138e-09
2.22801e-07
5.4247e-07
-6.17567e-09
1.86349e-07
4.73887e-07
1.63016e-07
4.56908e-07
-3.67521e-07
4.53858e-07
9.33268e-07
-2.4465e-07
3.98942e-07
8.34207e-07
-1.5801e-07
3.38455e-07
7.251e-07
-9.94403e-08
2.81218e-07
6.23386e-07
-6.17244e-08
2.31579e-07
5.36189e-07
-4.13369e-08
1.9352e-07
4.70954e-07
-3.24081e-08
1.64433e-07
4.21228e-07
1.59235e-07
4.30151e-07
-4.01133e-07
3.45255e-07
7.13475e-07
-2.8554e-07
3.0537e-07
6.57058e-07
-1.9896e-07
2.61025e-07
5.87496e-07
-1.35956e-07
2.18653e-07
5.1845e-07
-9.10907e-08
1.81473e-07
4.56551e-07
-5.93731e-08
1.52611e-07
4.07705e-07
-3.65222e-08
1.29923e-07
3.68933e-07
-1.74499e-08
1.23962e-07
3.50523e-07
1.0669e-07
3.18996e-07
-5.59285e-07
2.48303e-07
5.52203e-07
-4.23982e-07
2.31771e-07
5.54808e-07
-3.14089e-07
2.06102e-07
5.27669e-07
-2.2808e-07
1.77296e-07
4.85719e-07
-1.62479e-07
1.49563e-07
4.39998e-07
-1.13322e-07
1.25014e-07
3.96598e-07
-7.6481e-08
1.0586e-07
3.61298e-07
-4.84247e-08
9.03075e-08
3.33084e-07
-2.17473e-08
8.31509e-08
3.20287e-07
7.18121e-08
3.0513e-07
-5.63778e-07
1.23803e-07
4.338e-07
-4.37411e-07
1.1587e-07
4.5118e-07
-3.3168e-07
1.03411e-07
4.42022e-07
-2.46285e-07
8.93504e-08
4.17491e-07
-1.78903e-07
7.57487e-08
3.86782e-07
-1.26481e-07
6.36229e-08
3.55273e-07
-8.53542e-08
5.41106e-08
3.28343e-07
-5.2775e-08
4.61678e-08
3.05937e-07
-2.41182e-08
4.2051e-08
2.92503e-07
3.56963e-08
2.77874e-07
-5.5855e-07
3.69165e-07
-4.38453e-07
3.93299e-07
-3.3636e-07
3.92863e-07
-2.52475e-07
3.77038e-07
-1.85039e-07
3.54202e-07
-1.31501e-07
3.28935e-07
-8.858e-08
3.06874e-07
-5.40775e-08
2.87739e-07
-2.41427e-08
2.76352e-07
2.62762e-07
2.09994e-08
4.07031e-07
3.52219e-06
1.91244e-07
3.10011e-07
2.81439e-06
2.41458e-07
2.24699e-07
2.16117e-06
2.30348e-07
1.59569e-07
1.63222e-06
1.91451e-07
1.14102e-07
1.23745e-06
1.42449e-07
8.3424e-08
9.57719e-07
9.11153e-08
6.38044e-08
7.71008e-07
4.26954e-08
4.93797e-08
6.58689e-07
3.93705e-08
6.00935e-07
-7.198e-08
5.53285e-07
2.94772e-06
1.05695e-07
4.458e-07
2.44467e-06
1.79642e-07
3.4349e-07
1.94498e-06
1.90935e-07
2.58238e-07
1.51308e-06
1.6917e-07
1.94092e-07
1.17459e-06
1.32264e-07
1.47537e-07
9.26638e-07
8.94207e-08
1.16148e-07
7.57707e-07
4.51852e-08
9.33285e-08
6.55299e-07
8.03875e-08
6.03343e-07
-1.37178e-07
6.12483e-07
2.54781e-06
3.68823e-08
5.16534e-07
2.14896e-06
1.19685e-07
4.14455e-07
1.73506e-06
1.44006e-07
3.22698e-07
1.3709e-06
1.35888e-07
2.49162e-07
1.08068e-06
1.11397e-07
1.93445e-07
8.65745e-07
7.89297e-08
1.55129e-07
7.17035e-07
4.26579e-08
1.27122e-07
6.25898e-07
1.16817e-07
5.75002e-07
-2.07728e-07
6.0706e-07
2.09444e-06
-4.28891e-08
5.27135e-07
1.79789e-06
4.66472e-08
4.35402e-07
1.48103e-06
8.48743e-08
3.48892e-07
1.19623e-06
9.16922e-08
2.76453e-07
9.63148e-07
8.06659e-08
2.19292e-07
7.87011e-07
5.95547e-08
1.79505e-07
6.6263e-07
3.33406e-08
1.49053e-07
5.86724e-07
1.44082e-07
5.42118e-07
-2.51874e-07
5.95405e-07
1.76535e-06
-1.03019e-07
5.20578e-07
1.51882e-06
-1.57687e-08
4.34744e-07
1.26205e-06
2.92512e-08
3.53071e-07
1.03288e-06
4.69711e-08
2.83612e-07
8.45318e-07
4.75765e-08
2.27997e-07
7.02776e-07
3.82065e-08
1.88606e-07
5.9934e-07
2.1352e-08
1.57144e-07
5.39005e-07
1.49883e-07
4.75271e-07
-3.0623e-07
5.47162e-07
1.40572e-06
-1.67092e-07
4.81688e-07
1.23226e-06
-7.82348e-08
4.06874e-07
1.045e-06
-2.60552e-08
3.34985e-07
8.73378e-07
1.39522e-09
2.72661e-07
7.29258e-07
1.18548e-08
2.22422e-07
6.19355e-07
1.23862e-08
1.85898e-07
5.37644e-07
6.08106e-09
1.57498e-07
5.0026e-07
1.46247e-07
4.40263e-07
-3.4725e-07
4.8102e-07
1.11324e-06
-2.19433e-07
4.25349e-07
9.91889e-07
-1.31811e-07
3.62028e-07
8.5712e-07
-7.47466e-08
3.00999e-07
7.31118e-07
-3.96214e-08
2.47591e-07
6.23184e-07
-2.04216e-08
2.04793e-07
5.40899e-07
-1.08567e-08
1.72667e-07
4.77553e-07
-7.76286e-09
1.52087e-07
4.59225e-07
1.36506e-07
4.00722e-07
-3.83334e-07
3.97076e-07
8.6073e-07
-2.63962e-07
3.53283e-07
7.869e-07
-1.77076e-07
3.03133e-07
6.9711e-07
-1.16187e-07
2.5447e-07
6.09026e-07
-7.50366e-08
2.11524e-07
5.31106e-07
-4.90364e-08
1.77969e-07
4.71778e-07
-3.27538e-08
1.51953e-07
4.2566e-07
-2.11289e-08
1.42885e-07
4.27728e-07
1.24483e-07
3.83268e-07
-4.0958e-07
3.03611e-07
6.66481e-07
-2.97543e-07
2.71589e-07
6.26714e-07
-2.11696e-07
2.34627e-07
5.70155e-07
-1.47741e-07
1.9846e-07
5.10505e-07
-1.00986e-07
1.66189e-07
4.5513e-07
-6.67214e-08
1.40693e-07
4.10717e-07
-4.10423e-08
1.20353e-07
3.74854e-07
-1.77e-08
1.12267e-07
3.57799e-07
9.72426e-08
3.28536e-07
-5.56233e-07
2.1661e-07
5.1047e-07
-4.27518e-07
2.04399e-07
5.25304e-07
-3.21137e-07
1.83724e-07
5.09154e-07
-2.36429e-07
1.59653e-07
4.75984e-07
-1.70665e-07
1.35946e-07
4.36748e-07
-1.20429e-07
1.14623e-07
3.97927e-07
-8.18905e-08
9.7714e-08
3.65739e-07
-5.18314e-08
8.38359e-08
3.39542e-07
-2.36722e-08
7.67198e-08
3.27675e-07
6.69289e-08
3.11772e-07
-5.58802e-07
1.0799e-07
4.06877e-07
-4.38135e-07
1.02176e-07
4.32737e-07
-3.35782e-07
9.21653e-08
4.31227e-07
-2.51965e-07
8.04332e-08
4.12894e-07
-1.84883e-07
6.88262e-08
3.8682e-07
-1.31913e-07
5.83221e-08
3.58605e-07
-8.9729e-08
4.99538e-08
3.33918e-07
-5.58065e-08
4.28928e-08
3.12958e-07
-2.58524e-08
3.88595e-08
3.00409e-07
3.30428e-08
2.85908e-07
-5.52948e-07
3.49714e-07
-4.38014e-07
3.8054e-07
-3.39127e-07
3.86141e-07
-2.56875e-07
3.75219e-07
-1.89898e-07
3.56051e-07
-1.36002e-07
3.33362e-07
-9.22085e-08
3.13035e-07
-5.65087e-08
2.94932e-07
-2.54384e-08
2.84141e-07
2.70366e-07
-1.04184e-07
3.0321e-07
2.90924e-06
6.34892e-08
2.39102e-07
2.40761e-06
1.34851e-07
1.79563e-07
1.91025e-06
1.49072e-07
1.31823e-07
1.48618e-06
1.33224e-07
9.71112e-08
1.15619e-06
1.0324e-07
7.27695e-08
9.14933e-07
6.73586e-08
5.66966e-08
7.50193e-07
3.16935e-08
4.46332e-08
6.49721e-07
3.5927e-08
5.96702e-07
-1.62101e-07
4.36683e-07
2.52808e-06
7.94551e-09
3.61027e-07
2.1527e-06
9.30709e-08
2.8523e-07
1.75419e-06
1.21462e-07
2.19763e-07
1.39674e-06
1.1721e-07
1.68755e-07
1.1072e-06
9.59553e-08
1.30542e-07
8.90121e-07
6.6538e-08
1.043e-07
7.39521e-07
3.40746e-08
8.49189e-08
6.47477e-07
7.34909e-08
5.99854e-07
-2.08342e-07
5.03622e-07
2.21507e-06
-4.23675e-08
4.31696e-07
1.91231e-06
4.70402e-08
3.52329e-07
1.57856e-06
8.44478e-08
2.79163e-07
1.27409e-06
9.04325e-08
2.19167e-07
1.02428e-06
7.88935e-08
1.72738e-07
8.35087e-07
5.78395e-08
1.40323e-07
7.02065e-07
3.18767e-08
1.16598e-07
6.20182e-07
1.06499e-07
5.7387e-07
-2.59903e-07
5.12546e-07
1.84801e-06
-1.02371e-07
4.50353e-07
1.6217e-06
-9.81289e-09
3.76996e-07
1.36381e-06
3.71972e-08
3.06247e-07
1.12214e-06
5.4313e-08
2.45841e-07
9.19358e-07
5.33921e-08
1.97499e-07
7.63171e-07
4.16711e-08
1.63445e-07
6.51229e-07
2.424e-08
1.37976e-07
5.82778e-07
1.31152e-07
5.41706e-07
-2.94878e-07
5.07797e-07
1.56089e-06
-1.50999e-07
4.49233e-07
1.37606e-06
-6.05581e-08
3.79947e-07
1.16866e-06
-9.03991e-09
3.12504e-07
9.751e-07
1.66705e-08
2.54046e-07
8.11402e-07
2.53284e-08
2.06733e-07
6.84885e-07
2.35994e-08
1.72836e-07
5.91678e-07
1.68759e-08
1.46826e-07
5.36879e-07
1.38777e-07
4.84522e-07
-3.35627e-07
4.70735e-07
1.25704e-06
-2.01598e-07
4.19457e-07
1.12801e-06
-1.11564e-07
3.58602e-07
9.76308e-07
-5.49334e-08
2.98647e-07
8.30605e-07
-2.18255e-08
2.4575e-07
7.04446e-07
-4.98135e-09
2.02698e-07
6.06545e-07
2.10538e-09
1.71022e-07
5.32371e-07
5.68413e-09
1.47536e-07
4.95972e-07
1.37397e-07
4.47327e-07
-3.67313e-07
4.16539e-07
1.00349e-06
-2.43968e-07
3.72748e-07
9.15252e-07
-1.56077e-07
3.20961e-07
8.06871e-07
-9.61685e-08
2.69767e-07
7.0009e-07
-5.69746e-08
2.24172e-07
6.05568e-07
-3.25968e-08
1.87191e-07
5.32029e-07
-1.76429e-08
1.59111e-07
4.7451e-07
-4.4441e-09
1.40892e-07
4.5267e-07
1.28565e-07
4.05109e-07
-3.9494e-07
3.46009e-07
7.84718e-07
-2.79969e-07
3.11334e-07
7.33343e-07
-1.93805e-07
2.70054e-07
6.61853e-07
-1.31419e-07
2.28997e-07
5.87409e-07
-8.74898e-08
1.92133e-07
5.19216e-07
-5.73025e-08
1.62772e-07
4.66009e-07
-3.62168e-08
1.39797e-07
4.23888e-07
-1.47465e-08
1.29506e-07
4.17643e-07
1.16343e-07
3.80743e-07
-4.15293e-07
2.65769e-07
6.14312e-07
-3.0737e-07
2.40289e-07
5.89836e-07
-2.22863e-07
2.09736e-07
5.45967e-07
-1.58471e-07
1.79123e-07
4.95987e-07
-1.10214e-07
1.51348e-07
4.47659e-07
-7.37613e-08
1.28995e-07
4.0804e-07
-4.56176e-08
1.10976e-07
3.7553e-07
-1.98847e-08
1.02225e-07
3.59348e-07
9.08662e-08
3.34129e-07
-5.51238e-07
1.88193e-07
4.63907e-07
-4.2924e-07
1.79386e-07
4.89689e-07
-3.2672e-07
1.62906e-07
4.84017e-07
-2.43698e-07
1.42974e-07
4.59724e-07
-1.78105e-07
1.22887e-07
4.27391e-07
-1.27047e-07
1.0453e-07
3.93688e-07
-8.70293e-08
8.97113e-08
3.65005e-07
-5.51649e-08
7.74466e-08
3.41207e-07
-2.56894e-08
7.05262e-08
3.29898e-07
6.22295e-08
3.14719e-07
-5.52386e-07
9.38282e-08
3.73778e-07
-4.37522e-07
8.96841e-08
4.07575e-07
-3.3879e-07
8.17292e-08
4.13673e-07
-2.56824e-07
7.20297e-08
4.01872e-07
-1.90283e-07
6.22141e-08
3.80952e-07
-1.36958e-07
5.31998e-08
3.5661e-07
-9.3857e-08
4.58921e-08
3.34637e-07
-5.86865e-08
3.9675e-08
3.15559e-07
-2.75082e-08
3.57579e-08
3.03999e-07
3.05159e-08
2.90113e-07
-5.46066e-07
3.23207e-07
-4.36401e-07
3.60559e-07
-3.40929e-07
3.72399e-07
-2.60544e-07
3.66863e-07
-1.94238e-07
3.51959e-07
-1.40156e-07
3.3248e-07
-9.56246e-08
3.14395e-07
-5.88232e-08
2.97806e-07
-2.66917e-08
2.87767e-07
2.7419e-07
-1.93521e-07
2.29049e-07
2.41286e-06
-3.28648e-08
1.86363e-07
2.06059e-06
4.99102e-08
1.44379e-07
1.68309e-06
8.16091e-08
1.09254e-07
1.34523e-06
8.32776e-08
8.26859e-08
1.07183e-06
6.87874e-08
6.33524e-08
8.66071e-07
4.61614e-08
5.02685e-08
7.22551e-07
2.18031e-08
4.02482e-08
6.33831e-07
3.27492e-08
5.85756e-07
-2.29836e-07
3.46875e-07
2.15899e-06
-6.85475e-08
2.93533e-07
1.88424e-06
2.15258e-08
2.37288e-07
1.57121e-06
6.22303e-08
1.86952e-07
1.27834e-06
7.17641e-08
1.46338e-07
1.03401e-06
6.35788e-08
1.15134e-07
8.46525e-07
4.58795e-08
9.33144e-08
7.14174e-07
2.39826e-08
7.70056e-08
6.32616e-07
6.70374e-08
5.89548e-07
-2.62454e-07
4.13958e-07
1.91285e-06
-1.0583e-07
3.60353e-07
1.68887e-06
-1.3654e-08
2.98965e-07
1.4247e-06
3.31361e-08
2.40837e-07
1.17341e-06
5.02982e-08
1.92094e-07
9.61365e-07
4.96669e-08
1.53639e-07
7.97213e-07
3.86749e-08
1.26381e-07
6.79991e-07
2.20637e-08
1.06428e-07
6.0737e-07
9.70569e-08
5.65914e-07
-2.99623e-07
4.31486e-07
1.61753e-06
-1.50987e-07
3.83555e-07
1.44986e-06
-5.72739e-08
3.25298e-07
1.24376e-06
-4.56831e-09
2.67803e-07
1.04247e-06
2.08811e-08
2.1765e-07
8.68353e-07
2.85648e-08
1.77069e-07
7.32058e-07
2.51888e-08
1.48093e-07
6.32893e-07
1.57295e-08
1.26791e-07
5.71875e-07
1.19553e-07
5.3494e-07
-3.26899e-07
4.31842e-07
1.37028e-06
-1.89885e-07
3.8635e-07
1.23625e-06
-9.86804e-08
3.30774e-07
1.07198e-06
-4.23588e-08
2.75421e-07
9.1116e-07
-1.05657e-08
2.26547e-07
7.70712e-07
4.81942e-09
1.86562e-07
6.60006e-07
9.81966e-09
1.5752e-07
5.77251e-07
9.52427e-09
1.35991e-07
5.27973e-07
1.28201e-07
4.85398e-07
-3.57307e-07
4.03948e-07
1.1146e-06
-2.29686e-07
3.63983e-07
1.02276e-06
-1.40096e-07
3.14738e-07
9.02754e-07
-8.05225e-08
2.65039e-07
7.81414e-07
-4.29177e-08
2.20451e-07
6.72937e-07
-2.06123e-08
1.83786e-07
5.87016e-07
-8.23514e-09
1.56524e-07
5.2099e-07
3.39193e-10
1.37011e-07
4.86378e-07
1.2828e-07
4.47587e-07
-3.81686e-07
3.597e-07
8.95978e-07
-2.63791e-07
3.25442e-07
8.35898e-07
-1.76838e-07
2.83319e-07
7.51336e-07
-1.1519e-07
2.40647e-07
6.62835e-07
-7.2838e-08
2.01996e-07
5.81671e-07
-4.4286e-08
1.70256e-07
5.17006e-07
-2.49409e-08
1.45932e-07
4.65757e-07
-7.91345e-09
1.30024e-07
4.4263e-07
1.20048e-07
4.05428e-07
-4.02753e-07
3.0053e-07
7.07265e-07
-2.92769e-07
2.73253e-07
6.75549e-07
-2.081e-07
2.3949e-07
6.21014e-07
-1.44964e-07
2.05089e-07
5.59831e-07
-9.89054e-08
1.73677e-07
5.01477e-07
-6.54572e-08
1.48188e-07
4.54629e-07
-4.06308e-08
1.28101e-07
4.16892e-07
-1.64708e-08
1.17658e-07
4.05849e-07
1.07324e-07
3.76996e-07
-4.18418e-07
2.31798e-07
5.58665e-07
-3.1499e-07
2.11684e-07
5.47976e-07
-2.32325e-07
1.86612e-07
5.1618e-07
-1.6797e-07
1.60893e-07
4.75828e-07
-1.1861e-07
1.37173e-07
4.34802e-07
-8.03403e-08
1.17729e-07
4.0023e-07
-5.00504e-08
1.01926e-07
3.71416e-07
-2.25289e-08
9.31932e-08
3.56291e-07
8.4009e-08
3.34915e-07
-5.44448e-07
1.63028e-07
4.13934e-07
-4.29156e-07
1.56843e-07
4.49352e-07
-3.30741e-07
1.43826e-07
4.5346e-07
-2.49736e-07
1.27452e-07
4.37879e-07
-1.84638e-07
1.10564e-07
4.12622e-07
-1.33038e-07
9.4889e-08
3.84371e-07
-9.17917e-08
8.19964e-08
3.59492e-07
-5.83118e-08
7.12469e-08
3.38406e-07
-2.75897e-08
6.46427e-08
3.27727e-07
5.74727e-08
3.13666e-07
-5.44572e-07
8.1306e-08
3.35848e-07
-4.35521e-07
7.8445e-08
3.76923e-07
-3.4059e-07
7.21854e-08
3.90382e-07
-2.60715e-07
6.42302e-08
3.85218e-07
-1.94957e-07
5.59965e-08
3.69762e-07
-1.41483e-07
4.83265e-08
3.49698e-07
-9.76387e-08
4.1991e-08
3.30798e-07
-6.13439e-08
3.65612e-08
3.1395e-07
-2.90319e-08
3.28019e-08
3.03528e-07
2.80324e-08
2.90522e-07
-5.37923e-07
2.91109e-07
-4.33557e-07
3.34639e-07
-3.41662e-07
3.52689e-07
-2.63352e-07
3.52783e-07
-1.97928e-07
3.42532e-07
-1.43849e-07
3.26727e-07
-9.8739e-08
3.11277e-07
-6.09595e-08
2.96588e-07
-2.78592e-08
2.87469e-07
2.74363e-07
-2.56463e-07
1.754e-07
2.00594e-06
-1.04886e-07
1.46675e-07
1.76234e-06
-1.7288e-08
1.16898e-07
1.4786e-06
2.60448e-08
9.08469e-08
1.21105e-06
4.08761e-08
7.04427e-08
9.8656e-07
3.88822e-08
5.50555e-08
8.13009e-07
2.74938e-08
4.45002e-08
6.89439e-07
1.30371e-08
3.62135e-08
6.12074e-07
2.98305e-08
5.68962e-07
-2.79438e-07
2.77424e-07
1.83634e-06
-1.28448e-07
2.39654e-07
1.64027e-06
-3.64298e-08
1.97857e-07
1.39823e-06
1.23094e-08
1.59003e-07
1.16145e-06
3.25476e-08
1.26658e-07
9.57558e-07
3.51112e-08
1.01277e-07
7.9774e-07
2.75032e-08
8.32298e-08
6.83052e-07
1.49556e-08
6.96181e-08
6.11759e-07
6.10382e-08
5.73296e-07
-3.02395e-07
3.40552e-07
1.64183e-06
-1.56105e-07
3.00732e-07
1.4815e-06
-6.31878e-08
2.53405e-07
1.27624e-06
-1.04247e-08
2.07392e-07
1.07226e-06
1.53619e-08
1.67889e-07
8.94347e-07
2.37827e-08
1.362e-07
7.53869e-07
2.15289e-08
1.13405e-07
6.5207e-07
1.32982e-08
9.6726e-08
5.88493e-07
8.83426e-08
5.51908e-07
-3.28908e-07
3.62675e-07
1.40499e-06
-1.89916e-07
3.2599e-07
1.28561e-06
-9.70567e-08
2.79941e-07
1.12437e-06
-4.00868e-08
2.33376e-07
9.59513e-07
-8.5007e-09
1.9202e-07
8.12636e-07
6.33256e-09
1.58147e-07
6.95278e-07
1.02734e-08
1.3362e-07
6.08737e-07
7.92693e-09
1.15833e-07
5.55114e-07
1.08805e-07
5.22404e-07
-3.49915e-07
3.66556e-07
1.19422e-06
-2.20768e-07
3.31432e-07
1.10167e-06
-1.30525e-07
2.87075e-07
9.746e-07
-7.12052e-08
2.41867e-07
8.43349e-07
-3.45528e-08
2.01238e-07
7.24842e-07
-1.35283e-08
1.67641e-07
6.29488e-07
-2.82474e-09
1.42921e-07
5.57246e-07
2.26373e-09
1.25099e-07
5.13619e-07
1.17779e-07
4.78689e-07
-3.72516e-07
3.45976e-07
9.79671e-07
-2.51986e-07
3.1495e-07
9.18708e-07
-1.64029e-07
2.75275e-07
8.26596e-07