/*--------------------------------*- C++ -*----------------------------------*\
| =========                 |                                                 |
| \\      /  F ield         | OpenFOAM: The Open Source CFD Toolbox           |
|  \\    /   O peration     | Version:  2.3.1                                 |
|   \\  /    A nd           | Web:      www.OpenFOAM.org                      |
|    \\/     M anipulation  |                                                 |
\*---------------------------------------------------------------------------*/
FoamFile
{
    version     2.0;
    format      ascii;
    class       surfaceScalarField;
    location    "15";
    object      phi_0;
}
// * * * * * * * * * * * * * * * * * * * * * * * * * * * * * * * * * * * * * //

dimensions      [0 3 -1 0 0 0 0];

internalField   nonuniform List<scalar> 
108008
(
-2.45573e-07
6.96362e-07
1.95753e-07
-1.4755e-07
5.519e-07
1.47375e-07
-8.51282e-08
4.31456e-07
1.12514e-07
-4.63458e-08
3.35942e-07
8.79054e-08
-2.34882e-08
2.6165e-07
7.03622e-08
-1.15359e-08
2.08337e-07
5.78484e-08
-6.91881e-09
1.67978e-07
4.91802e-08
-3.05961e-09
1.53842e-07
4.0607e-08
1.32212e-07
3.10054e-08
-5.14546e-07
4.85039e-07
1.57624e-07
-3.56469e-07
4.09553e-07
1.28732e-07
-2.42654e-07
3.33862e-07
1.04223e-07
-1.62238e-07
2.6647e-07
8.45701e-08
-1.06641e-07
2.10878e-07
6.94669e-08
-6.92894e-08
1.66515e-07
5.77829e-08
-4.50518e-08
1.34635e-07
4.94643e-08
-3.02336e-08
1.10352e-07
4.28075e-08
-1.38528e-08
1.00529e-07
3.69326e-08
9.10238e-08
2.73356e-08
-5.64347e-07
2.0207e-07
9.17492e-08
-4.11677e-07
1.75807e-07
8.10758e-08
-2.94148e-07
1.46273e-07
7.00598e-08
-2.06155e-07
1.18469e-07
6.00079e-08
-1.41599e-07
9.47603e-08
5.15615e-08
-9.52342e-08
7.54078e-08
4.47422e-08
-6.17664e-08
6.15434e-08
3.96242e-08
-3.84196e-08
5.1123e-08
3.58825e-08
-1.82589e-08
4.78265e-08
3.25417e-08
4.5309e-08
2.74559e-08
-5.74434e-07
2.56506e-08
-4.27872e-07
2.9245e-08
-3.11618e-07
3.00194e-08
-2.22356e-07
2.92061e-08
-1.5534e-07
2.77442e-08
-1.06011e-07
2.6079e-08
-6.93405e-08
2.4873e-08
-4.24774e-08
2.42599e-08
-1.94216e-08
2.47708e-08
2.58874e-08
-2.48982e-07
7.18554e-07
3.78571e-07
-1.47843e-07
5.70897e-07
2.87501e-07
-8.36925e-08
4.47025e-07
2.2111e-07
-4.40911e-08
3.4839e-07
1.73669e-07
-2.09229e-08
2.71671e-07
1.3947e-07
-8.775e-09
2.16268e-07
1.14854e-07
-3.31787e-09
1.75215e-07
9.73992e-08
2.12761e-10
1.58839e-07
8.1356e-08
1.37226e-07
6.54865e-08
-5.20722e-07
5.16518e-07
3.03048e-07
-3.59151e-07
4.35958e-07
2.49756e-07
-2.43048e-07
3.55412e-07
2.03606e-07
-1.61324e-07
2.83777e-07
1.66094e-07
-1.05018e-07
2.2467e-07
1.36882e-07
-6.7328e-08
1.77522e-07
1.14242e-07
-4.26881e-08
1.43389e-07
9.77031e-08
-2.71061e-08
1.17655e-07
8.47857e-08
-1.11666e-08
1.06105e-07
7.37273e-08
9.44411e-08
5.89538e-08
-5.71447e-07
2.3127e-07
1.81092e-07
-4.1538e-07
1.9966e-07
1.61306e-07
-2.95557e-07
1.65423e-07
1.40225e-07
-2.06155e-07
1.33712e-07
1.20671e-07
-1.40831e-07
1.06867e-07
1.0404e-07
-9.4101e-08
8.51069e-08
9.04275e-08
-6.04727e-08
6.93185e-08
8.00663e-08
-3.67146e-08
5.74298e-08
7.23498e-08
-1.65253e-08
5.24221e-08
6.60348e-08
4.73786e-08
5.79931e-08
-5.82697e-07
7.56092e-08
-4.32615e-07
7.8823e-08
-3.13943e-07
7.67702e-08
-2.23118e-07
7.20939e-08
-1.55188e-07
6.66811e-08
-1.05395e-07
6.13923e-08
-6.85675e-08
5.73645e-08
-4.16417e-08
5.47638e-08
-1.86809e-08
5.42321e-08
5.45852e-08
-2.60218e-07
7.04898e-07
5.30026e-07
-1.55131e-07
5.64314e-07
4.09089e-07
-8.82306e-08
4.44234e-07
3.18412e-07
-4.67693e-08
3.47558e-07
2.52159e-07
-2.22963e-08
2.71929e-07
2.03641e-07
-9.0053e-09
2.16989e-07
1.68304e-07
-2.20642e-09
1.76536e-07
1.42841e-07
2.30996e-09
1.59475e-07
1.20506e-07
1.37827e-07
1.0214e-07
-5.23855e-07
5.1677e-07
4.2235e-07
-3.61642e-07
4.38656e-07
3.53784e-07
-2.44735e-07
3.59172e-07
2.9184e-07
-1.62362e-07
2.87807e-07
2.40149e-07
-1.05532e-07
2.28517e-07
1.99093e-07
-6.73714e-08
1.81028e-07
1.66982e-07
-4.21458e-08
1.46407e-07
1.4306e-07
-2.57358e-08
1.20305e-07
1.24606e-07
-9.63651e-09
1.07816e-07
1.09288e-07
9.46647e-08
9.24799e-08
-5.69721e-07
2.42133e-07
2.61042e-07
-4.14246e-07
2.09054e-07
2.35433e-07
-2.94746e-07
1.73398e-07
2.06499e-07
-2.05542e-07
1.40404e-07
1.7887e-07
-1.40336e-07
1.12434e-07
1.54916e-07
-9.36298e-08
8.9753e-08
1.34996e-07
-5.991e-08
7.31265e-08
1.19627e-07
-3.57738e-08
6.04819e-08
1.08037e-07
-1.5392e-08
5.43805e-08
9.90882e-08
4.75932e-08
8.96726e-08
-5.78667e-07
1.38084e-07
-4.29853e-07
1.39063e-07
-3.12094e-07
1.3241e-07
-2.21892e-07
1.22297e-07
-1.54365e-07
1.11588e-07
-1.04781e-07
1.01561e-07
-6.80219e-08
9.37318e-08
-4.09938e-08
8.82176e-08
-1.80262e-08
8.56449e-08
8.41522e-08
-2.77045e-07
6.75921e-07
6.45957e-07
-1.67386e-07
5.46737e-07
5.08685e-07
-9.68664e-08
4.33678e-07
4.01812e-07
-5.27042e-08
3.41232e-07
3.21514e-07
-2.62173e-08
2.6824e-07
2.61593e-07
-1.12848e-08
2.14898e-07
2.17398e-07
-3.05346e-09
1.75591e-07
1.85192e-07
2.57601e-09
1.58873e-07
1.57971e-07
1.37235e-07
1.38975e-07
-5.29381e-07
5.00762e-07
5.13261e-07
-3.67206e-07
4.28903e-07
4.38627e-07
-2.49476e-07
3.53647e-07
3.67201e-07
-1.66116e-07
2.84984e-07
3.05484e-07
-1.08338e-07
2.27278e-07
2.55268e-07
-6.92913e-08
1.80749e-07
2.15426e-07
-4.3204e-08
1.46586e-07
1.85285e-07
-2.59039e-08
1.20719e-07
1.62179e-07
-9.34673e-09
1.07961e-07
1.43643e-07
9.40758e-08
1.26292e-07
-5.68824e-07
2.40856e-07
3.29231e-07
-4.14776e-07
2.08962e-07
3.01326e-07
-2.95876e-07
1.74113e-07
2.67132e-07
-2.06823e-07
1.41577e-07
2.33223e-07
-1.41525e-07
1.13795e-07
2.03102e-07
-9.45598e-08
9.11514e-08
1.77629e-07
-6.04752e-08
7.44051e-08
1.57722e-07
-3.5828e-08
6.15286e-08
1.4258e-07
-1.5099e-08
5.49282e-08
1.31392e-07
4.7328e-08
1.21321e-07
-5.75187e-07
2.02385e-07
-4.28389e-07
2.01228e-07
-3.11833e-07
1.89967e-07
-2.22258e-07
1.74299e-07
-1.54971e-07
1.58095e-07
-1.05339e-07
1.43082e-07
-6.83583e-08
1.31156e-07
-4.09774e-08
1.22365e-07
-1.77915e-08
1.17387e-07
1.13689e-07
-2.97311e-07
6.36174e-07
7.26803e-07
-1.83202e-07
5.20903e-07
5.85181e-07
-1.08681e-07
4.17038e-07
4.69968e-07
-6.12922e-08
3.30485e-07
3.80617e-07
-3.22981e-08
2.61321e-07
3.12481e-07
-1.53733e-08
2.10465e-07
2.61608e-07
-5.56482e-09
1.72805e-07
2.24155e-07
1.37411e-09
1.57238e-07
1.93568e-07
1.35797e-07
1.74592e-07
-5.3652e-07
4.73196e-07
5.76327e-07
-3.75177e-07
4.09886e-07
5.03572e-07
-2.56757e-07
3.41009e-07
4.28674e-07
-1.72202e-07
2.76805e-07
3.61162e-07
-1.13148e-07
2.22038e-07
3.04662e-07
-7.28806e-08
1.7747e-07
2.5901e-07
-4.56783e-08
1.44517e-07
2.24031e-07
-2.73551e-08
1.19393e-07
1.97268e-07
-1.00037e-08
1.06932e-07
1.76597e-07
9.27347e-08
1.59351e-07
-5.69003e-07
2.31227e-07
3.83811e-07
-4.17017e-07
2.02211e-07
3.57014e-07
-2.98897e-07
1.69666e-07
3.20355e-07
-2.09904e-07
1.38794e-07
2.8224e-07
-1.44296e-07
1.1213e-07
2.47403e-07
-9.68025e-08
9.02162e-08
2.17389e-07
-6.20993e-08
7.38807e-08
1.93655e-07
-3.67609e-08
6.11791e-08
1.75455e-07
-1.54509e-08
5.45316e-08
1.62483e-07
4.66501e-08
1.51955e-07
-5.72865e-07
2.61104e-07
-4.28525e-07
2.59099e-07
-3.13274e-07
2.44383e-07
-2.24225e-07
2.24043e-07
-1.56966e-07
2.02966e-07
-1.07031e-07
1.83363e-07
-6.95683e-08
1.67573e-07
-4.16026e-08
1.55579e-07
-1.79525e-08
1.48269e-07
1.42386e-07
-3.18689e-07
5.89717e-07
7.7609e-07
-2.01024e-07
4.89233e-07
6.39434e-07
-1.22678e-07
3.95738e-07
5.22676e-07
-7.19039e-08
3.16174e-07
4.28978e-07
-4.01333e-08
2.51706e-07
3.55791e-07
-2.09833e-08
2.04006e-07
3.00546e-07
-9.44537e-09
1.6842e-07
2.59422e-07
-9.77835e-10
1.54621e-07
2.27044e-07
1.33639e-07
2.07915e-07
-5.43905e-07
4.38395e-07
6.14239e-07
-3.84443e-07
3.84501e-07
5.49325e-07
-2.65765e-07
3.23176e-07
4.76053e-07
-1.80058e-07
2.64549e-07
4.06644e-07
-1.1958e-07
2.13677e-07
3.46681e-07
-7.78728e-08
1.71806e-07
2.97202e-07
-4.93495e-08
1.40635e-07
2.58878e-07
-2.98408e-08
1.16664e-07
2.29515e-07
-1.13632e-08
1.04935e-07
2.07806e-07
9.06894e-08
1.90938e-07
-5.69665e-07
2.163e-07
4.24036e-07
-4.20424e-07
1.91041e-07
4.01233e-07
-3.03368e-07
1.61683e-07
3.64792e-07
-2.14456e-07
1.33246e-07
3.24631e-07
-1.48408e-07
1.08325e-07
2.86706e-07
-1.00189e-07
8.76245e-08
2.53353e-07
-6.46605e-08
7.20824e-08
2.26679e-07
-3.84441e-08
5.98601e-08
2.06043e-07
-1.62922e-08
5.3483e-08
1.91782e-07
4.56107e-08
1.80742e-07
-5.7123e-07
3.09825e-07
-4.29828e-07
3.08739e-07
-3.16064e-07
2.92302e-07
-2.2752e-07
2.68746e-07
-1.60154e-07
2.43926e-07
-1.09726e-07
2.20559e-07
-7.1577e-08
2.01507e-07
-4.2829e-08
1.86691e-07
-1.8476e-08
1.77399e-07
1.69521e-07
-3.39508e-07
5.39741e-07
7.98602e-07
-2.196e-07
4.5381e-07
6.73413e-07
-1.37979e-07
3.71095e-07
5.60511e-07
-8.39444e-08
2.99123e-07
4.66549e-07
-4.93043e-08
2.39929e-07
3.91285e-07
-2.77785e-08
1.95841e-07
3.33912e-07
-1.43575e-08
1.6266e-07
2.9069e-07
-4.14359e-09
1.51034e-07
2.58096e-07
1.30789e-07
2.38177e-07
-5.50503e-07
3.99754e-07
6.30656e-07
-3.94057e-07
3.55168e-07
5.77453e-07
-2.75754e-07
3.01815e-07
5.09744e-07
-1.89137e-07
2.49357e-07
4.41765e-07
-1.2724e-07
2.02974e-07
3.80932e-07
-8.39756e-08
1.64304e-07
3.29563e-07
-5.39691e-08
1.35316e-07
2.89397e-07
-3.30961e-08
1.12805e-07
2.58498e-07
-1.32119e-08
1.0209e-07
2.36866e-07
8.79884e-08
2.20526e-07
-5.70223e-07
1.98363e-07
4.50075e-07
-4.24434e-07
1.77147e-07
4.33465e-07
-3.08817e-07
1.51395e-07
3.99595e-07
-2.20109e-07
1.25823e-07
3.59458e-07
-1.53583e-07
1.03032e-07
3.20122e-07
-1.04516e-07
8.38649e-08
2.84724e-07
-6.80002e-08
6.9376e-08
2.56104e-07
-4.07275e-08
5.78483e-08
2.33727e-07
-1.74972e-08
5.19387e-08
2.18703e-07
4.42374e-08
2.06995e-07
-5.69812e-07
3.46299e-07
-4.3184e-07
3.47915e-07
-3.19807e-07
3.31664e-07
-2.31832e-07
3.06594e-07
-1.64301e-07
2.79427e-07
-1.13254e-07
2.53377e-07
-7.42652e-08
2.31895e-07
-4.45616e-08
2.14836e-07
-1.92969e-08
2.04073e-07
1.94461e-07
-3.58652e-07
4.8872e-07
7.99324e-07
-2.37947e-07
4.16404e-07
6.89605e-07
-1.53823e-07
3.44315e-07
5.84533e-07
-9.68459e-08
2.80133e-07
4.9364e-07
-5.93784e-08
2.26518e-07
4.18919e-07
-3.53905e-08
1.86288e-07
3.61445e-07
-1.99306e-08
1.55737e-07
3.17657e-07
-7.9302e-09
1.46427e-07
2.86542e-07
1.27202e-07
2.64715e-07
-5.5562e-07
3.59851e-07
6.29407e-07
-4.0327e-07
3.23865e-07
5.89958e-07
-2.86063e-07
2.78359e-07
5.30582e-07
-1.98914e-07
2.32237e-07
4.66695e-07
-1.35725e-07
1.9063e-07
4.07246e-07
-9.08741e-08
1.55454e-07
3.55777e-07
-5.92627e-08
1.28889e-07
3.15185e-07
-3.68466e-08
1.08043e-07
2.83776e-07
-1.53574e-08
9.8469e-08
2.63334e-07
8.46903e-08
2.4768e-07
-5.70193e-07
1.79111e-07
4.62755e-07
-4.28523e-07
1.61831e-07
4.53829e-07
-3.14767e-07
1.39762e-07
4.24435e-07
-2.26472e-07
1.17225e-07
3.86175e-07
-1.59516e-07
9.67596e-08
3.47035e-07
-1.09546e-07
7.93124e-08
3.10896e-07
-7.19319e-08
6.6032e-08
2.81346e-07
-4.34537e-08
5.5338e-08
2.57953e-07
-1.89643e-08
4.99848e-08
2.42698e-07
4.25518e-08
2.3017e-07
-5.68151e-07
3.69821e-07
-4.34084e-07
3.75679e-07
-3.24077e-07
3.61419e-07
-2.36808e-07
3.3655e-07
-1.69131e-07
3.08511e-07
-1.17409e-07
2.80966e-07
-7.74759e-08
2.57994e-07
-4.66786e-08
2.39376e-07
-2.0343e-08
2.27722e-07
2.1667e-07
-3.75454e-07
4.38488e-07
7.82845e-07
-2.55334e-07
3.78466e-07
6.90627e-07
-1.69569e-07
3.16459e-07
5.96062e-07
-1.10088e-07
2.5995e-07
5.10808e-07
-6.99387e-08
2.11982e-07
4.38804e-07
-4.34262e-08
1.75676e-07
3.82982e-07
-2.57538e-08
1.47833e-07
3.39953e-07
-1.19599e-08
1.40635e-07
3.12138e-07
1.22679e-07
2.87102e-07
-5.58836e-07
3.2054e-07
6.14004e-07
-4.11522e-07
2.92145e-07
5.88988e-07
-2.96136e-07
2.53993e-07
5.39669e-07
-2.08907e-07
2.14054e-07
4.81871e-07
-1.44642e-07
1.77264e-07
4.25667e-07
-9.82472e-08
1.45697e-07
3.75667e-07
-6.49432e-08
1.21652e-07
3.35905e-07
-4.08105e-08
1.02575e-07
3.04901e-07
-1.76098e-08
9.40986e-08
2.8667e-07
8.08558e-08
2.71894e-07
-5.69214e-07
1.59763e-07
4.63309e-07
-4.32239e-07
1.46076e-07
4.62923e-07
-3.20775e-07
1.27533e-07
4.39431e-07
-2.33161e-07
1.08006e-07
4.04609e-07
-1.65891e-07
8.9914e-08
3.67116e-07
-1.15031e-07
7.42661e-08
3.31467e-07
-7.62534e-08
6.22613e-08
3.0196e-07
-4.64614e-08
5.24752e-08
2.78261e-07
-2.0604e-08
4.76655e-08
2.63274e-07
4.05619e-08
2.4986e-07
-5.65859e-07
3.80744e-07
-4.36126e-07
3.92022e-07
-3.28461e-07
3.81287e-07
-2.42094e-07
3.58188e-07
-1.74357e-07
3.30688e-07
-1.21964e-07
3.02839e-07
-8.10336e-08
2.79325e-07
-4.90459e-08
2.59864e-07
-2.154e-08
2.47881e-07
2.35692e-07
-3.89565e-07
3.90351e-07
7.53129e-07
-2.7124e-07
3.41139e-07
6.7899e-07
-1.84694e-07
2.88421e-07
5.96531e-07
-1.23211e-07
2.39236e-07
5.18766e-07
-8.05902e-08
1.96795e-07
4.51187e-07
-5.15043e-08
1.6432e-07
3.98393e-07
-3.13981e-08
1.39129e-07
3.57157e-07
-1.56168e-08
1.33296e-07
3.34209e-07
1.16358e-07
3.05145e-07
-5.59967e-07
2.83085e-07
5.87462e-07
-4.18424e-07
2.61165e-07
5.76631e-07
-3.05522e-07
2.29653e-07
5.38253e-07
-2.18692e-07
1.95529e-07
4.87933e-07
-1.53623e-07
1.63407e-07
4.36427e-07
-1.05787e-07
1.3542e-07
3.89207e-07
-7.07351e-08
1.13875e-07
3.51297e-07
-4.47228e-08
9.65845e-08
3.21433e-07
-1.97888e-08
8.89716e-08
3.06061e-07
7.65543e-08
2.91908e-07
-5.67036e-07
1.41152e-07
4.53181e-07
-4.35214e-07
1.30589e-07
4.61678e-07
-3.26453e-07
1.15272e-07
4.45051e-07
-2.39814e-07
9.85964e-08
4.14903e-07
-1.72402e-07
8.28173e-08
3.80294e-07
-1.20718e-07
6.89639e-08
3.46239e-07
-8.07641e-08
5.82319e-08
3.17649e-07
-4.95975e-08
4.93758e-08
2.94303e-07
-2.23389e-08
4.50024e-08
2.79984e-07
3.82707e-08
2.65804e-07
-5.62639e-07
3.80095e-07
-4.37599e-07
3.97571e-07
-3.32591e-07
3.9155e-07
-2.47358e-07
3.71551e-07
-1.797e-07
3.45848e-07
-1.26696e-07
3.18799e-07
-8.47641e-08
2.95625e-07
-5.15347e-08
2.7601e-07
-2.28198e-08
2.64169e-07
2.51143e-07
1.99596e-07
5.53671e-07
4.28549e-06
3.59866e-07
4.05764e-07
3.292e-06
3.74576e-07
2.82487e-07
2.43409e-06
3.27299e-07
1.93429e-07
1.77925e-06
2.58418e-07
1.33903e-07
1.31165e-06
1.86322e-07
9.53417e-08
9.91421e-07
1.17263e-07
7.14575e-08
7.82945e-07
5.47077e-08
5.44532e-08
6.59224e-07
4.29964e-08
5.97235e-07
4.68356e-08
7.04297e-07
3.41723e-06
2.27492e-07
5.52042e-07
2.75651e-06
2.83214e-07
4.13565e-07
2.1363e-06
2.71234e-07
3.02821e-07
1.62192e-06
2.27603e-07
2.22337e-07
1.23197e-06
1.72268e-07
1.65937e-07
9.53206e-07
1.14287e-07
1.28665e-07
7.66712e-07
5.71721e-08
1.02115e-07
6.54605e-07
8.74592e-08
5.9881e-07
-4.5531e-08
7.42858e-07
2.9054e-06
1.34607e-07
6.16158e-07
2.39253e-06
2.05336e-07
4.85689e-07
1.88772e-06
2.12095e-07
3.71298e-07
1.45876e-06
1.86517e-07
2.818e-07
1.12692e-06
1.46892e-07
2.1545e-07
8.86607e-07
1.01677e-07
1.70507e-07
7.23107e-07
5.41936e-08
1.37878e-07
6.23051e-07
1.26855e-07
5.68442e-07
-1.40341e-07
7.15422e-07
2.35194e-06
2.93127e-08
6.14022e-07
1.9726e-06
1.12138e-07
5.00344e-07
1.59079e-06
1.38534e-07
3.95297e-07
1.26e-06
1.32773e-07
3.09017e-07
9.96711e-07
1.10071e-07
2.42063e-07
8.01384e-07
7.85348e-08
1.95887e-07
6.65523e-07
4.28411e-08
1.59649e-07
5.82121e-07
5.35749e-07
-1.94973e-07
6.95204e-07
1.98133e-06
-4.45694e-08
6.00386e-07
1.66057e-06
3.66892e-08
4.9484e-07
1.34809e-06
7.22609e-08
3.96706e-07
1.08158e-06
8.00756e-08
3.14772e-07
8.69772e-07
7.13203e-08
2.49923e-07
7.11728e-07
5.32231e-08
2.04348e-07
5.98766e-07
1.65735e-07
5.29981e-07
-2.67204e-07
6.33824e-07
1.55826e-06
-1.25272e-07
5.50629e-07
1.33217e-06
-3.98509e-08
4.5918e-07
1.10562e-06
6.09245e-09
3.73559e-07
9.0712e-07
2.66695e-08
3.00722e-07
7.45443e-07
2.93897e-08
2.4254e-07
6.23962e-07
2.17725e-08
2.00676e-07
5.35223e-07
1.6525e-07
4.94086e-07
-3.20223e-07
5.53455e-07
1.22301e-06
-1.89579e-07
4.83074e-07
1.06314e-06
-1.0386e-07
4.06124e-07
8.99643e-07
-5.09736e-08
3.33887e-07
7.53947e-07
-2.08741e-08
2.71816e-07
6.33007e-07
-8.3319e-09
2.22663e-07
5.42258e-07
-6.14187e-09
1.86227e-07
4.73693e-07
1.62907e-07
4.56719e-07
-3.67205e-07
4.53772e-07
9.33203e-07
-2.44406e-07
3.98822e-07
8.34075e-07
-1.57828e-07
3.38322e-07
7.24938e-07
-9.93095e-08
2.81086e-07
6.23214e-07
-6.16324e-08
2.31455e-07
5.36021e-07
-4.12732e-08
1.93407e-07
4.70794e-07
-3.23622e-08
1.6433e-07
4.21073e-07
1.59135e-07
4.29989e-07
-4.00849e-07
3.45195e-07
7.13461e-07
-2.8531e-07
3.05285e-07
6.56988e-07
-1.98782e-07
2.60929e-07
5.87396e-07
-1.35822e-07
2.18557e-07
5.18335e-07
-9.09924e-08
1.81381e-07
4.56432e-07
-5.93041e-08
1.52526e-07
4.07586e-07
-3.64773e-08
1.29844e-07
3.68816e-07
-1.74259e-08
1.23886e-07
3.50407e-07
1.0662e-07
3.18888e-07
-5.58985e-07
2.48291e-07
5.52294e-07
-4.23721e-07
2.31733e-07
5.54829e-07
-3.13872e-07
2.06048e-07
5.27642e-07
-2.27906e-07
1.77234e-07
4.85661e-07
-1.62344e-07
1.495e-07
4.39922e-07
-1.13221e-07
1.24953e-07
3.96512e-07
-7.64084e-08
1.05803e-07
3.61208e-07
-4.83772e-08
9.02542e-08
3.32992e-07
-2.17238e-08
8.31005e-08
3.20193e-07
7.17676e-08
3.05037e-07
-5.63503e-07
1.23798e-07
4.33902e-07
-4.37167e-07
1.15851e-07
4.51223e-07
-3.31473e-07
1.03385e-07
4.42021e-07
-2.46115e-07
8.93201e-08
4.1746e-07
-1.78769e-07
7.57174e-08
3.86731e-07
-1.26379e-07
6.35924e-08
3.5521e-07
-8.52817e-08
5.40817e-08
3.28272e-07
-5.27285e-08
4.61409e-08
3.05863e-07
-2.40959e-08
4.2026e-08
2.92426e-07
3.56751e-08
2.77801e-07
-5.58291e-07
3.69272e-07
-4.38221e-07
3.93352e-07
-3.36161e-07
3.92875e-07
-2.52311e-07
3.77021e-07
-1.84909e-07
3.54164e-07
-1.31402e-07
3.28884e-07
-8.85098e-08
3.06814e-07
-5.40335e-08
2.87675e-07
-2.41226e-08
2.76284e-07
2.62696e-07
2.1461e-08
4.06629e-07
3.52009e-06
1.91362e-07
3.09666e-07
2.81243e-06
2.41423e-07
2.24442e-07
2.15959e-06
2.30257e-07
1.59389e-07
1.63103e-06
1.91354e-07
1.13979e-07
1.23657e-06
1.4237e-07
8.33389e-08
9.57067e-07
9.10624e-08
6.37426e-08
7.7051e-07
4.26705e-08
4.93334e-08
6.58282e-07
3.93338e-08
6.00572e-07
-7.14733e-08
5.5287e-07
2.9465e-06
1.05921e-07
4.45409e-07
2.44337e-06
1.797e-07
3.43168e-07
1.9438e-06
1.90909e-07
2.57994e-07
1.51211e-06
1.69113e-07
1.93912e-07
1.17383e-06
1.32206e-07
1.47402e-07
9.26049e-07
8.93771e-08
1.16045e-07
7.57239e-07
4.51622e-08
9.32459e-08
6.54907e-07
8.03176e-08
6.02988e-07
-1.36687e-07
6.12134e-07
2.54694e-06
3.71366e-08
5.16168e-07
2.14795e-06
1.19783e-07
4.14125e-07
1.73411e-06
1.44018e-07
3.22428e-07
1.37009e-06
1.35863e-07
2.4895e-07
1.08003e-06
1.11362e-07
1.9328e-07
8.65229e-07
7.88988e-08
1.54999e-07
7.16616e-07
4.264e-08
1.27015e-07
6.25542e-07
1.16722e-07
5.74677e-07
-2.07252e-07
6.06811e-07
2.094e-06
-4.25997e-08
5.26845e-07
1.79727e-06
4.68014e-08
4.3512e-07
1.48039e-06
8.49399e-08
3.48646e-07
1.19565e-06
9.17088e-08
2.76247e-07
9.62645e-07
8.06602e-08
2.19123e-07
7.8659e-07
5.95427e-08
1.79365e-07
6.62274e-07
3.33318e-08
1.48934e-07
5.86413e-07
1.43972e-07
5.4183e-07
-2.51455e-07
5.95221e-07
1.76502e-06
-1.02745e-07
5.20344e-07
1.51836e-06
-1.56054e-08
4.34503e-07
1.26156e-06
2.93411e-08
3.52851e-07
1.03243e-06
4.70143e-08
2.83421e-07
8.44924e-07
4.75933e-08
2.27835e-07
7.02437e-07
3.82101e-08
1.88469e-07
5.99046e-07
2.13522e-08
1.57026e-07
5.38746e-07
1.49774e-07
4.75036e-07
-3.05851e-07
5.47027e-07
1.40555e-06
-1.66822e-07
4.81508e-07
1.23198e-06
-7.80552e-08
4.06682e-07
1.04468e-06
-2.5943e-08
3.34801e-07
8.73058e-07
1.46289e-09
2.72495e-07
7.28963e-07
1.18932e-08
2.22277e-07
6.1909e-07
1.24067e-08
1.85772e-07
5.37406e-07
6.09248e-09
1.57387e-07
5.0004e-07
1.46145e-07
4.40057e-07
-3.46916e-07
4.8092e-07
1.11314e-06
-2.19182e-07
4.25209e-07
9.91702e-07
-1.31631e-07
3.61875e-07
8.56899e-07
-7.46227e-08
3.00849e-07
7.3089e-07
-3.95389e-08
2.47452e-07
6.22966e-07
-2.03683e-08
2.04668e-07
5.40695e-07
-1.0823e-08
1.72556e-07
4.77363e-07
-7.74265e-09
1.51986e-07
4.5904e-07
1.36413e-07
4.00549e-07
-3.83034e-07
3.97004e-07
8.60698e-07
-2.63725e-07
3.5318e-07
7.86796e-07
-1.76898e-07
3.03017e-07
6.96969e-07
-1.16056e-07
2.54353e-07
6.08869e-07
-7.49435e-08
2.11413e-07
5.30948e-07
-4.89717e-08
1.77867e-07
4.71623e-07
-3.27104e-08
1.51859e-07
4.25509e-07
-2.11015e-08
1.42795e-07
4.27571e-07
1.24399e-07
3.83116e-07
-4.09309e-07
3.03561e-07
6.66491e-07
-2.97321e-07
2.71516e-07
6.26664e-07
-2.11521e-07
2.34543e-07
5.7007e-07
-1.47608e-07
1.98374e-07
5.10401e-07
-1.00888e-07
1.66106e-07
4.55018e-07
-6.66523e-08
1.40616e-07
4.10602e-07
-4.09977e-08
1.20281e-07
3.74739e-07
-1.76779e-08
1.12198e-07
3.57684e-07
9.71802e-08
3.28429e-07
-5.55948e-07
2.16602e-07
5.10578e-07
-4.27268e-07
2.04367e-07
5.25342e-07
-3.20928e-07
1.83677e-07
5.0914e-07
-2.36259e-07
1.59599e-07
4.75937e-07
-1.70532e-07
1.35889e-07
4.36679e-07
-1.20328e-07
1.14568e-07
3.97847e-07
-8.18185e-08
9.76615e-08
3.65652e-07
-5.17844e-08
8.37869e-08
3.39452e-07
-2.36491e-08
7.66737e-08
3.27582e-07
6.68881e-08
3.1168e-07
-5.5854e-07
1.07986e-07
4.06992e-07
-4.37901e-07
1.0216e-07
4.32791e-07
-3.35582e-07
9.21424e-08
4.31236e-07
-2.518e-07
8.04064e-08
4.1287e-07
-1.84752e-07
6.87981e-08
3.86774e-07
-1.31814e-07
5.82945e-08
3.58545e-07
-8.96575e-08
4.99273e-08
3.3385e-07
-5.57605e-08
4.28681e-08
3.12885e-07
-2.58303e-08
3.88366e-08
3.00333e-07
3.30235e-08
2.85835e-07
-5.52701e-07
3.49831e-07
-4.37791e-07
3.80603e-07
-3.38935e-07
3.86161e-07
-2.56715e-07
3.75207e-07
-1.8977e-07
3.56017e-07
-1.35905e-07
3.33313e-07
-9.21396e-08
3.12977e-07
-5.64654e-08
2.94869e-07
-2.54186e-08
2.84074e-07
2.70301e-07
-1.03745e-07
3.02945e-07
2.90778e-06
6.36716e-08
2.38863e-07
2.40615e-06
1.3489e-07
1.79375e-07
1.90899e-06
1.49043e-07
1.31686e-07
1.48519e-06
1.33174e-07
9.70136e-08
1.15543e-06
1.03193e-07
7.26993e-08
9.14349e-07
6.73251e-08
5.6644e-08
7.49733e-07
3.16774e-08
4.4593e-08
6.49337e-07
3.58944e-08
5.96355e-07
-1.6163e-07
4.3639e-07
2.52717e-06
8.19459e-09
3.6074e-07
2.15167e-06
9.31689e-08
2.84986e-07
1.75321e-06
1.21477e-07
2.19571e-07
1.39592e-06
1.17188e-07
1.68606e-07
1.10653e-06
9.59233e-08
1.30428e-07
8.89585e-07
6.6511e-08
1.0421e-07
7.39085e-07
3.40598e-08
8.48462e-08
6.47105e-07
7.34285e-08
5.99514e-07
-2.07889e-07
5.03358e-07
2.21441e-06
-4.21108e-08
4.31412e-07
1.9115e-06
4.71639e-08
3.52066e-07
1.57776e-06
8.44906e-08
2.78943e-07
1.27339e-06
9.04343e-08
2.18989e-07
1.02371e-06
7.88788e-08
1.72597e-07
8.34615e-07
5.78227e-08
1.40209e-07
7.01673e-07
3.18659e-08
1.16503e-07
6.19842e-07
1.06414e-07
5.73558e-07
-2.59467e-07
5.12349e-07
1.84766e-06
-1.0209e-07
4.5012e-07
1.62119e-06
-9.65254e-09
3.76766e-07
1.36326e-06
3.72785e-08
3.0604e-07
1.12162e-06
5.43462e-08
2.45664e-07
9.18902e-07
5.34006e-08
1.97352e-07
7.62781e-07
4.16693e-08
1.63321e-07
6.50893e-07
2.42366e-08
1.37869e-07
5.82479e-07
1.31053e-07
5.41427e-07
-2.94489e-07
5.07647e-07
1.56064e-06
-1.50733e-07
4.49039e-07
1.37569e-06
-6.03893e-08
3.79745e-07
1.16824e-06
-8.9408e-09
3.12316e-07
9.74701e-07
1.6725e-08
2.5388e-07
8.11043e-07
2.53551e-08
2.0659e-07
6.84569e-07
2.36103e-08
1.72713e-07
5.91399e-07
1.68793e-08
1.46719e-07
5.36627e-07
1.38677e-07
4.84291e-07
-3.35272e-07
4.70624e-07
1.25692e-06
-2.01339e-07
4.19306e-07
1.12778e-06
-1.11386e-07
3.58438e-07
9.76029e-07
-5.48167e-08
2.98487e-07
8.30318e-07
-2.17525e-08
2.45604e-07
7.04175e-07
-4.93799e-09
2.02569e-07
6.06297e-07
2.1295e-09
1.70908e-07
5.32144e-07
5.69527e-09
1.47434e-07
4.95759e-07
1.37302e-07
4.47128e-07
-3.66999e-07
4.16456e-07
1.00343e-06
-2.43726e-07
3.7263e-07
9.15105e-07
-1.55899e-07
3.20829e-07
8.06681e-07
-9.60432e-08
2.69635e-07
6.99886e-07
-5.68892e-08
2.24049e-07
6.05367e-07
-3.25408e-08
1.87079e-07
5.31837e-07
-1.76086e-08
1.5901e-07
4.74329e-07
-4.42737e-09
1.40799e-07
4.52494e-07
1.28479e-07
4.04945e-07
-3.94656e-07
3.45949e-07
7.84715e-07
-2.79742e-07
3.11246e-07
7.33266e-07
-1.9363e-07
2.69953e-07
6.61734e-07
-1.31289e-07
2.28893e-07
5.8727e-07
-8.73962e-08
1.92034e-07
5.19071e-07
-5.72374e-08
1.62679e-07
4.65864e-07
-3.61746e-08
1.39711e-07
4.23745e-07
-1.4725e-08
1.29426e-07
4.17495e-07
1.16268e-07
3.80602e-07
-4.15035e-07
2.65727e-07
6.14343e-07
-3.07157e-07
2.40226e-07
5.89805e-07
-2.22693e-07
2.09662e-07
5.45897e-07
-1.5834e-07
1.79046e-07
4.95894e-07
-1.10117e-07
1.51274e-07
4.47555e-07
-7.36924e-08
1.28925e-07
4.07932e-07
-4.55731e-08
1.1091e-07
3.75421e-07
-1.98631e-08
1.02163e-07
3.59237e-07
9.08093e-08
3.34024e-07
-5.50969e-07
1.88188e-07
4.64031e-07
-4.29002e-07
1.7936e-07
4.89742e-07
-3.26518e-07
1.62866e-07
4.84018e-07
-2.43533e-07
1.42927e-07
4.59687e-07
-1.77975e-07
1.22836e-07
4.27331e-07
-1.26949e-07
1.0448e-07
3.93614e-07
-8.69582e-08
8.96636e-08
3.64923e-07
-5.51185e-08
7.7402e-08
3.41121e-07
-2.56666e-08
7.04842e-08
3.29809e-07
6.21922e-08
3.14631e-07
-5.52135e-07
9.38258e-08
3.73904e-07
-4.37297e-07
8.96714e-08
4.07642e-07
-3.38597e-07
8.17096e-08
4.13692e-07
-2.56663e-07
7.20062e-08
4.01857e-07
-1.90155e-07
6.21891e-08
3.80913e-07
-1.3686e-07
5.31749e-08
3.56555e-07
-9.37867e-08
4.5868e-08
3.34572e-07
-5.86411e-08
3.96524e-08
3.15489e-07
-2.74864e-08
3.5737e-08
3.03926e-07
3.04984e-08
2.90042e-07
-5.45829e-07
3.23333e-07
-4.36187e-07
3.60632e-07
-3.40744e-07
3.72427e-07
-2.60389e-07
3.66858e-07
-1.94113e-07
3.51931e-07
-1.40061e-07
3.32436e-07
-9.55568e-08
3.1434e-07
-5.87806e-08
2.97745e-07
-2.66721e-08
2.87702e-07
2.74127e-07
-1.93103e-07
2.28872e-07
2.41185e-06
-3.26518e-08
1.86196e-07
2.05951e-06
4.99969e-08
1.44242e-07
1.6821e-06
8.16261e-08
1.0915e-07
1.34441e-06
8.32641e-08
8.26083e-08
1.07118e-06
6.87658e-08
6.32943e-08
8.65553e-07
4.61438e-08
5.02243e-08
7.22131e-07
2.17943e-08
4.02133e-08
6.33473e-07
3.27205e-08
5.85429e-07
-2.29402e-07
3.46668e-07
2.15833e-06
-6.82965e-08
2.93323e-07
1.88344e-06
2.16505e-08
2.371e-07
1.57041e-06
6.22761e-08
1.868e-07
1.27764e-06
7.17696e-08
1.46216e-07
1.03342e-06
6.35681e-08
1.15038e-07
8.46044e-07
4.58666e-08
9.32373e-08
7.13774e-07
2.39747e-08
7.69419e-08
6.32268e-07
6.6982e-08
5.89227e-07
-2.62039e-07
4.1376e-07
1.91236e-06
-1.05574e-07
3.60133e-07
1.68822e-06
-1.35146e-08
2.98757e-07
1.42404e-06
3.32022e-08
2.40657e-07
1.17282e-06
5.03218e-08
1.91946e-07
9.60857e-07
4.96695e-08
1.53519e-07
7.96787e-07
3.867e-08
1.26281e-07
6.79629e-07
2.20591e-08
1.06344e-07
6.07051e-07
9.6981e-08
5.65618e-07
-2.99225e-07
4.31332e-07
1.61727e-06
-1.50717e-07
3.83369e-07
1.44944e-06
-5.71084e-08
3.25109e-07
1.24329e-06
-4.47621e-09
2.6763e-07
1.04201e-06
2.0928e-08
2.17499e-07
8.67945e-07
2.85853e-08
1.76941e-07
7.31701e-07
2.51958e-08
1.47984e-07
6.3258e-07
1.57307e-08
1.26695e-07
5.71593e-07
1.19464e-07
5.34675e-07
-3.26539e-07
4.31721e-07
1.3701e-06
-1.89628e-07
3.86191e-07
1.23595e-06
-9.85098e-08
3.30605e-07
1.07163e-06
-4.22518e-08
2.75262e-07
9.10812e-07
-1.05025e-08
2.26403e-07
7.70389e-07
4.85469e-09
1.86437e-07
6.59715e-07
9.83685e-09
1.57411e-07
5.7699e-07
9.53075e-09
1.35895e-07
5.27734e-07
1.28111e-07
4.85175e-07
-3.56978e-07
4.03858e-07
1.11453e-06
-2.29439e-07
3.63857e-07
1.02257e-06
-1.3992e-07
3.14599e-07
9.02517e-07
-8.04031e-08
2.64901e-07
7.81161e-07
-4.28399e-08
2.20323e-07
6.72692e-07
-2.0564e-08
1.83671e-07
5.86787e-07
-8.20734e-09
1.56421e-07
5.20777e-07
3.51804e-10
1.36919e-07
4.86176e-07
1.28193e-07
4.47397e-07
-3.81392e-07
3.59632e-07
8.95957e-07
-2.6356e-07
3.25343e-07
8.35787e-07
-1.76664e-07
2.83206e-07
7.51178e-07
-1.15065e-07
2.40532e-07
6.62656e-07
-7.27506e-08
2.01887e-07
5.81488e-07
-4.42278e-08
1.70156e-07
5.16829e-07
-2.49052e-08
1.45841e-07
4.65587e-07
-7.89693e-09
1.2994e-07
4.42464e-07
1.19969e-07
4.05272e-07
-4.02486e-07
3.00481e-07
7.07288e-07
-2.92552e-07
2.73178e-07
6.75497e-07
-2.0793e-07
2.39402e-07
6.20916e-07
-1.44835e-07
2.04998e-07
5.59709e-07
-9.88119e-08
1.73589e-07
5.01345e-07
-6.53919e-08
1.48105e-07
4.54495e-07
-4.05889e-08
1.28024e-07
4.16758e-07
-1.64507e-08
1.17585e-07
4.05711e-07
1.07256e-07
3.76864e-07
-4.18174e-07
2.31763e-07
5.58715e-07
-3.14785e-07
2.1163e-07
5.47964e-07
-2.3216e-07
1.86548e-07
5.16126e-07
-1.67842e-07
1.60825e-07
4.75749e-07
-1.18514e-07
1.37107e-07
4.34709e-07
-8.02718e-08
1.17666e-07
4.0013e-07
-5.00062e-08
1.01867e-07
3.71313e-07
-2.25075e-08
9.31372e-08
3.56187e-07
8.39576e-08
3.34815e-07
-5.44194e-07
1.63025e-07
4.14071e-07
-4.28929e-07
1.56821e-07
4.49419e-07
-3.30547e-07
1.43791e-07
4.53474e-07
-2.49576e-07
1.2741e-07
4.37854e-07
-1.84511e-07
1.10519e-07
4.12573e-07
-1.32941e-07
9.48443e-08
3.84306e-07
-9.17217e-08
8.19533e-08
3.59416e-07
-5.82661e-08
7.12064e-08
3.38325e-07
-2.75672e-08
6.46047e-08
3.27642e-07
5.74389e-08
3.13582e-07
-5.44334e-07
8.13047e-08
3.35985e-07
-4.35306e-07
7.84346e-08
3.77001e-07
-3.40404e-07
7.21686e-08
3.90413e-07
-2.6056e-07
6.42097e-08
3.85212e-07
-1.94833e-07
5.59743e-08
3.69731e-07
-1.41387e-07
4.83041e-08
3.4965e-07
-9.75696e-08
4.19692e-08
3.30739e-07
-6.12993e-08
3.65406e-08
3.13885e-07
-2.90104e-08
3.2783e-08
3.03459e-07
2.80166e-08
2.90454e-07
-5.37697e-07
2.91246e-07
-4.33352e-07
3.34721e-07
-3.41483e-07
3.52727e-07
-2.63202e-07
3.52787e-07
-1.97807e-07
3.42511e-07
-1.43756e-07
3.26689e-07
-9.86726e-08
3.11226e-07
-6.09178e-08
2.96531e-07
-2.784e-08
2.87408e-07
2.74303e-07
-2.56073e-07
1.75281e-07
2.00525e-06
-1.04658e-07
1.46557e-07
1.76153e-06
-1.71721e-08
1.16797e-07
1.47782e-06
2.60942e-08
9.07669e-08
1.21037e-06
4.089e-08
7.03807e-08
9.86003e-07
3.88809e-08
5.50079e-08
8.12554e-07
2.74891e-08
4.44629e-08
6.8906e-07
1.30343e-08
3.61833e-08
6.11745e-07
2.98051e-08
5.68658e-07
-2.79042e-07
2.77277e-07
1.83587e-06
-1.28198e-07
2.39499e-07
1.63965e-06
-3.62905e-08
1.97714e-07
1.39758e-06
1.23781e-08
1.58881e-07
1.16086e-06
3.25746e-08
1.26558e-07
9.57051e-07
3.51175e-08
1.01196e-07
7.97313e-07
2.75019e-08
8.31636e-08
6.82688e-07
1.49535e-08
6.95624e-08
6.11438e-07
6.09891e-08
5.72997e-07
-3.02016e-07
3.40403e-07
1.64148e-06
-1.55854e-07
3.00563e-07
1.481e-06
-6.30374e-08
2.53241e-07
1.2757e-06
-1.03426e-08
2.07246e-07
1.07176e-06
1.54024e-08
1.67766e-07
8.93904e-07
2.37993e-08
1.36097e-07
7.53488e-07
2.15339e-08
1.13319e-07
6.51739e-07
1.32987e-08
9.66517e-08
5.88197e-07
8.82751e-08
5.51631e-07
-3.28545e-07
3.62556e-07
1.40482e-06
-1.8966e-07
3.25842e-07
1.28528e-06
-9.68898e-08
2.79787e-07
1.12398e-06
-3.99856e-08
2.33232e-07
9.59124e-07
-8.44348e-09
1.91892e-07
8.12277e-07
6.36292e-09
1.58036e-07
6.94956e-07
1.02876e-08
1.33525e-07
6.0845e-07
7.93215e-09
1.15748e-07
5.54851e-07
1.08727e-07
5.22155e-07
-3.49584e-07
3.66458e-07
1.19411e-06
-2.20523e-07
3.31303e-07
1.10143e-06
-1.30356e-07
2.86935e-07
9.74311e-07
-7.10933e-08
2.41732e-07
8.43049e-07
-3.44827e-08
2.01115e-07
7.24556e-07
-1.34869e-08
1.67531e-07
6.29224e-07
-2.80227e-09
1.42824e-07
5.57005e-07
2.27312e-09
1.25012e-07
5.13395e-07
1.17697e-07
4.78478e-07
-3.72212e-07
3.45903e-07
9.79642e-07