/*--------------------------------*- C++ -*----------------------------------*\
| =========                 |                                                 |
| \\      /  F ield         | OpenFOAM: The Open Source CFD Toolbox           |
|  \\    /   O peration     | Version:  2.3.1                                 |
|   \\  /    A nd           | Web:      www.OpenFOAM.org                      |
|    \\/     M anipulation  |                                                 |
\*---------------------------------------------------------------------------*/
FoamFile
{
    version     2.0;
    format      ascii;
    class       volScalarField;
    location    "15";
    object      Sed;
}
// * * * * * * * * * * * * * * * * * * * * * * * * * * * * * * * * * * * * * //

dimensions      [0 0 0 0 0 0 0];

internalField   nonuniform List<scalar> 
37784
(
2.66172e-235
2.08399e-237
1.06698e-239
4.24477e-242
1.6334e-244
7.28497e-247
3.52254e-249
1.45828e-251
3.3533e-254
1.14657e-235
1.15407e-237
7.50943e-240
3.5351e-242
1.52954e-244
7.51427e-247
4.23812e-249
2.31551e-251
9.7184e-254
1.94832e-256
3.77544e-238
3.35156e-240
2.00121e-242
9.86637e-245
5.11526e-247
3.03662e-249
1.90473e-251
1.09052e-253
4.58529e-256
9.13742e-259
6.41942e-241
5.33647e-243
3.12676e-245
1.65073e-247
9.37702e-250
5.81025e-252
3.66359e-254
2.09123e-256
8.91792e-259
2.07584e-261
7.29286e-235
8.7478e-237
8.88127e-239
7.84967e-241
6.1083e-243
4.22473e-245
2.55347e-247
1.22518e-249
3.18906e-252
4.22487e-235
6.04735e-237
6.80887e-239
6.54471e-241
5.57377e-243
4.28878e-245
3.02477e-247
1.87206e-249
8.78349e-252
1.85293e-254
2.56548e-237
3.57344e-239
3.85911e-241
3.55246e-243
2.91729e-245
2.2228e-247
1.57946e-249
9.84093e-252
4.48899e-254
8.75903e-257
8.05549e-240
1.0673e-241
1.08557e-243
9.34475e-246
7.25272e-248
5.30688e-250
3.66435e-252
2.21643e-254
9.68234e-257
1.9275e-259
7.74138e-235
1.28523e-236
1.87702e-238
2.43795e-240
2.81101e-242
2.83759e-244
2.40075e-246
1.52591e-248
4.91195e-251
4.78384e-235
9.28911e-237
1.47777e-238
2.05561e-240
2.56748e-242
2.88572e-244
2.86545e-246
2.36808e-248
1.39634e-250
3.38315e-253
4.05027e-237
7.71422e-239
1.18072e-240
1.56971e-242
1.8801e-244
2.03902e-246
1.96608e-248
1.56411e-250
8.54941e-253
1.78861e-255
1.62749e-239
2.92946e-241
4.20267e-243
5.24258e-245
5.91374e-247
6.07625e-249
5.56895e-251
4.15497e-253
2.04529e-255
3.77638e-258
3.53093e-235
7.48307e-237
1.40953e-238
2.3545e-240
3.4676e-242
4.41565e-244
4.62193e-246
3.51926e-248
1.28447e-250
2.20854e-235
5.32837e-237
1.08073e-238
1.93715e-240
3.10783e-242
4.44662e-244
5.53772e-246
5.60435e-248
3.90027e-250
1.04906e-252
2.27739e-237
5.3785e-239
1.04681e-240
1.78651e-242
2.73687e-244
3.76354e-246
4.51995e-248
4.36223e-250
2.76822e-252
6.24177e-255
1.04608e-239
2.33717e-241
4.26973e-243
6.82671e-245
9.8417e-247
1.28009e-248
1.45507e-250
1.30393e-252
7.23861e-255
1.33022e-257
1.0836e-235
2.79535e-237
6.36359e-239
1.2712e-240
2.21708e-242
3.30624e-244
3.98456e-246
3.39864e-248
1.32805e-250
6.60559e-236
1.91235e-237
4.6901e-239
1.01461e-240
1.94926e-242
3.30604e-244
4.81455e-246
5.58378e-248
4.30931e-250
1.23364e-252
7.76005e-238
2.18127e-239
5.10878e-241
1.05048e-242
1.92755e-244
3.14235e-246
4.40387e-248
4.83698e-250
3.36249e-252
7.91919e-255
3.84014e-240
1.02073e-241
2.24692e-243
4.34074e-245
7.51508e-247
1.16051e-248
1.53613e-250
1.55306e-252
9.25369e-255
1.6932e-257
2.65329e-236
8.02819e-238
2.11226e-239
4.82233e-241
9.50382e-243
1.58373e-244
2.09748e-246
1.91453e-248
7.68745e-251
1.53967e-236
5.2288e-238
1.49883e-239
3.7502e-241
8.24436e-243
1.58205e-244
2.57169e-246
3.26567e-248
2.68267e-250
7.93911e-253
1.97385e-238
6.46254e-240
1.76234e-241
4.18825e-243
8.80023e-245
1.62412e-246
2.53712e-248
3.03832e-250
2.23093e-252
5.37564e-255
1.01812e-240
3.15337e-242
8.08909e-244
1.80921e-245
3.59516e-247
6.29394e-249
9.27777e-251
1.01742e-252
6.3184e-255
1.14902e-257
5.60786e-237
1.92526e-238
5.65621e-240
1.42892e-241
3.09157e-243
5.58706e-245
7.88736e-247
7.47597e-249
3.00392e-251
3.0631e-237
1.19306e-238
3.8835e-240
1.0894e-241
2.65792e-243
5.60183e-245
9.86384e-247
1.33123e-248
1.13229e-250
3.39572e-253
4.14827e-239
1.55028e-240
4.79769e-242
1.28073e-243
2.99157e-245
6.06573e-247
1.025e-248
1.29989e-250
9.83131e-253
2.38747e-255
2.17779e-241
7.71126e-243
2.2505e-244
5.67088e-246
1.2554e-247
2.41662e-249
3.84884e-251
4.45067e-253
2.82055e-255
5.08273e-258
1.05849e-237
4.01234e-239
1.28424e-240
3.50683e-242
8.14851e-244
1.56501e-245
2.30681e-247
2.22083e-249
8.73696e-252
5.43172e-238
2.37472e-239
8.5678e-241
2.63179e-242
6.96607e-244
1.57866e-245
2.95179e-247
4.15252e-249
3.59161e-251
1.07823e-253
7.58898e-240
3.17623e-241
1.09124e-242
3.19973e-244
8.12973e-246
1.7744e-247
3.18183e-249
4.19627e-251
3.21866e-253
7.81456e-256
3.98831e-242
1.58535e-243
5.15337e-245
1.43128e-246
3.45633e-248
7.17327e-250
1.21182e-251
1.4527e-253
9.278e-256
1.65684e-258
1.81246e-238
7.42905e-240
2.54449e-241
7.39057e-243
1.81503e-244
3.64649e-246
5.52093e-248
5.29902e-250
1.99513e-252
8.76547e-239
4.21923e-240
1.65494e-241
5.46897e-243
1.54513e-244
3.70646e-246
7.24804e-248
1.04708e-249
9.07898e-252
2.70101e-254
1.24231e-240
5.72411e-242
2.14445e-243
6.78949e-245
1.84645e-246
4.27198e-248
8.01051e-250
1.08362e-251
8.33281e-254
2.01048e-256
6.46203e-243
2.83622e-244
1.00905e-245
3.03723e-247
7.87403e-249
1.73532e-250
3.0656e-252
3.76202e-254
2.39949e-256
4.24287e-259
2.83769e-239
1.2384e-240
4.48176e-242
1.36878e-243
3.51278e-245
7.29493e-247
1.1202e-248
1.05506e-250
3.70637e-253
1.30074e-239
6.77959e-241
2.84769e-242
9.99316e-244
2.97826e-245
7.477e-247
1.51197e-248
2.21808e-250
1.90721e-252
5.57879e-255
1.84843e-241
9.23634e-243
3.71947e-244
1.25523e-245
3.61109e-247
8.75741e-249
1.69868e-250
2.33333e-252
1.78368e-254
4.25867e-257
9.44474e-244
4.51043e-245
1.73171e-246
5.57688e-248
1.53398e-249
3.55024e-251
6.49021e-253
8.07842e-255
5.11096e-257
8.94054e-260
4.20465e-231
4.45952e-233
3.10679e-235
1.5039e-237
5.37328e-240
1.52923e-242
4.02111e-245
1.01534e-247
1.54587e-250
6.63221e-232
1.43582e-233
2.45546e-235
3.45347e-237
4.0716e-239
3.98845e-241
3.10962e-243
1.66203e-245
3.80382e-248
9.5064e-233
3.11416e-234
7.99548e-236
1.68892e-237
2.97334e-239
4.29764e-241
4.81336e-243
3.51264e-245
1.03111e-247
8.96641e-234
3.65332e-235
1.14319e-236
2.94249e-238
6.296e-240
1.10068e-241
1.46287e-243
1.23477e-245
4.07182e-248
6.69307e-235
3.08834e-236
1.08964e-237
3.14414e-239
7.53008e-241
1.46652e-242
2.15537e-244
2.02146e-246
4.3306e-236
2.09254e-237
7.8649e-239
2.41685e-240
6.17566e-242
1.28087e-243
1.99214e-245
1.96379e-247
2.45006e-237
1.18104e-238
4.53774e-240
1.4405e-241
3.80658e-243
8.11643e-245
1.28844e-246
1.27712e-248
1.14538e-238
5.40113e-240
2.07702e-241
6.6665e-243
1.7836e-244
3.83496e-246
6.07193e-248
5.87281e-250
4.08601e-240
1.87701e-241
7.11425e-243
2.26635e-244
6.02924e-246
1.2836e-247
1.98228e-249
1.81206e-251
5.81379e-254
1.78603e-240
9.93777e-242
4.41868e-243
1.63122e-244
5.08549e-246
1.32552e-247
2.75018e-249
4.06738e-251
3.44548e-253
9.86792e-256
2.52524e-242
1.35089e-243
5.78249e-245
2.06046e-246
6.21736e-248
1.56798e-249
3.12267e-251
4.32713e-253
3.27198e-255
7.71323e-258
1.26156e-244
6.47391e-246
2.65279e-247
9.05384e-249
2.61975e-250
6.31717e-252
1.1864e-253
1.48896e-255
9.30643e-258
1.60939e-260
7.92743e-233
6.80612e-235
4.16501e-237
1.84294e-239
6.43945e-242
2.09893e-244
7.86959e-247
2.76653e-249
4.54393e-252
2.44793e-233
5.24091e-235
9.03003e-237
1.30603e-238
1.59349e-240
1.61511e-242
1.29403e-244
6.98494e-247
1.56879e-249
5.65174e-234
1.86656e-235
4.86256e-237
1.05925e-238
1.9356e-240
2.89803e-242
3.32462e-244
2.43619e-246
7.01193e-249
7.07598e-235
2.90501e-236
9.25635e-238
2.45354e-239
5.44112e-241
9.80528e-243
1.32744e-244
1.11816e-246
3.60261e-249
6.44383e-236
2.99348e-237
1.07826e-238
3.18988e-240
7.86667e-242
1.57257e-243
2.33618e-245
2.14003e-247
7.31678e-250
4.77894e-237
2.34198e-238
9.02258e-240
2.85298e-241
7.491e-243
1.5828e-244
2.46781e-246
2.3442e-248
8.15321e-251
2.96394e-238
1.46529e-239
5.80043e-241
1.90044e-242
5.16652e-244
1.12267e-245
1.78117e-247
1.6969e-249
5.85058e-252
1.46986e-239
7.18797e-241
2.86562e-242
9.51834e-244
2.62234e-245
5.74596e-247
9.09508e-249
8.50373e-251
2.84083e-253
5.43294e-241
2.60756e-242
1.02915e-243
3.40138e-245
9.32909e-247
2.02542e-248
3.1354e-250
2.8084e-252
8.81407e-255
2.27945e-241
1.33948e-242
6.25388e-244
2.41302e-245
7.82312e-247
2.10504e-248
4.4576e-250
6.62117e-252
5.53405e-254
1.56233e-256
3.19176e-243
1.80944e-244
8.16467e-246
3.05064e-247
9.59549e-249
2.50206e-250
5.08951e-252
7.08846e-254
5.30062e-256
1.23484e-258
1.55535e-245
8.48826e-247
3.6804e-248
1.32161e-249
3.9972e-251
9.98476e-253
1.91681e-254
2.41776e-256
1.4932e-258
2.5561e-261
1.22268e-234
8.86234e-237
4.69014e-239
1.99152e-241
7.918e-244
3.83252e-246
2.19357e-248
9.34763e-251
1.5583e-253
8.50941e-235
1.8373e-236
3.16703e-238
4.68907e-240
5.90435e-242
6.18211e-244
5.09199e-246
2.77602e-248
6.12379e-251
3.20041e-235
1.07625e-236
2.84707e-238
6.35264e-240
1.19853e-241
1.84798e-243
2.16116e-245
1.58513e-247
4.47293e-250
5.29136e-236
2.20552e-237
7.21175e-239
1.9551e-240
4.45399e-242
8.23054e-244
1.1294e-245
9.47035e-248
2.9855e-250
5.83673e-237
2.74772e-238
1.01383e-239
3.07825e-241
7.7651e-243
1.58222e-244
2.36447e-246
2.12906e-248
7.08502e-251
4.93967e-238
2.46437e-239
9.74066e-241
3.16577e-242
8.52227e-244
1.82971e-245
2.84821e-247
2.63718e-249
8.89896e-252
3.34786e-239
1.69784e-240
6.9178e-242
2.33503e-243
6.51108e-245
1.43707e-246
2.27654e-248
2.11799e-250
7.08902e-253
1.75627e-240
8.88967e-242
3.66362e-243
1.25545e-244
3.54911e-246
7.89825e-248
1.24906e-249
1.14471e-251
3.73514e-254
6.71159e-242
3.35028e-243
1.37143e-244
4.68412e-246
1.31931e-247
2.91059e-249
4.51006e-251
3.9815e-253
1.22898e-255
2.71471e-242
1.67171e-243
8.1485e-245
3.27026e-246
1.09769e-247
3.03661e-249
6.53928e-251
9.73758e-253
8.04813e-255
2.24348e-257
3.75524e-244
2.2383e-245
1.05786e-246
4.12258e-248
1.34541e-249
3.6122e-251
7.47913e-253
1.04523e-254
7.73993e-257
1.78349e-259
1.78339e-246
1.02663e-247
4.67765e-249
1.7574e-250
5.52937e-252
1.42493e-253
2.78736e-255
3.52966e-257
2.15801e-259
3.6618e-262
1.5665e-236
1.01141e-238
4.80989e-241
2.23715e-243
1.33055e-245
1.02252e-247
7.37746e-250
3.3583e-252
5.53385e-255
2.80945e-236
6.20558e-238
1.08259e-239
1.62173e-241
2.1013e-243
2.27361e-245
1.92906e-247
1.06333e-249
2.30543e-252
1.73643e-236
5.97157e-238
1.61808e-239
3.68157e-241
7.1206e-243
1.12486e-244
1.33549e-246
9.77746e-249
2.70395e-251
3.77125e-237
1.61044e-238
5.4033e-240
1.50142e-241
3.49008e-243
6.57625e-245
9.10596e-247
7.58438e-249
2.34044e-251
5.00504e-238
2.40126e-239
9.09464e-241
2.83574e-242
7.3216e-244
1.51278e-245
2.26323e-247
2.00862e-249
6.52419e-252
4.81138e-239
2.45159e-240
9.94988e-242
3.32235e-243
9.15734e-245
1.99397e-246
3.10192e-248
2.82228e-250
9.27232e-253
3.55024e-240
1.84823e-241
7.75242e-243
2.69154e-244
7.68096e-246
1.71826e-247
2.71877e-249
2.48849e-251
8.15862e-254
1.96734e-241
1.02839e-242
4.37264e-244
1.54219e-245
4.46183e-247
1.00623e-248
1.59013e-250
1.43668e-252
4.60487e-255
7.74804e-243
4.00798e-244
1.6964e-245
5.96984e-247
1.72175e-248
3.85103e-250
5.97116e-252
5.21149e-254
1.58604e-256
3.03104e-243
1.94428e-244
9.8497e-246
4.09625e-247
1.41881e-248
4.02336e-250
8.7918e-252
1.3118e-253
1.07422e-255
2.96024e-258
4.13746e-245
2.57627e-246
1.26893e-247
5.13673e-249
1.73333e-250
4.77787e-252
1.00495e-253
1.40875e-255
1.03478e-257
2.3608e-260
1.91532e-247
1.15505e-248
5.50131e-250
2.15318e-251
7.02262e-253
1.86176e-254
3.70435e-256
4.70907e-258
2.85615e-260
4.80819e-263
1.69656e-238
1.04958e-240
5.36391e-243
3.5504e-245
3.36119e-247
3.29983e-249
2.61048e-251
1.21768e-253
1.97211e-256
8.86533e-238
2.02095e-239
3.61016e-241
5.50306e-243
7.3002e-245
8.17251e-247
7.17038e-249
4.00647e-251
8.55168e-254
9.03481e-238
3.19863e-239
8.9191e-241
2.0779e-242
4.0925e-244
6.59036e-246
7.90725e-248
5.76526e-250
1.56317e-252
2.58034e-238
1.12852e-239
3.89543e-241
1.1118e-242
2.64062e-244
5.04864e-246
7.01916e-248
5.79658e-250
1.75306e-252
4.0843e-239
2.00415e-240
7.80207e-242
2.49897e-243
6.60656e-245
1.38466e-246
2.07451e-248
1.81678e-250
5.76897e-253
4.43798e-240
2.31478e-241
9.65009e-243
3.31199e-244
9.33545e-246
2.05961e-247
3.205e-249
2.88056e-251
9.30358e-254
3.55111e-241
1.89866e-242
8.20193e-244
2.9257e-245
8.53148e-247
1.93214e-248
3.05622e-250
2.76367e-252
8.91763e-255
2.07666e-242
1.11861e-243
4.89979e-245
1.77542e-246
5.24736e-248
1.19777e-249
1.89285e-251
1.69164e-253
5.34469e-256
8.4053e-244
4.49182e-245
1.96105e-246
7.09485e-248
2.09125e-249
4.73657e-251
7.35229e-253
6.35911e-255
1.91208e-257
3.18919e-244
2.12076e-245
1.1125e-246
4.78046e-248
1.70451e-249
4.94513e-251
1.09529e-252
1.63803e-254
1.33145e-256
3.63187e-259
4.29453e-246
2.77903e-247
1.42076e-248
5.95564e-250
2.07277e-251
5.85466e-253
1.24965e-254
1.75767e-256
1.28274e-258
2.90018e-261
1.93956e-248
1.21861e-249
6.04093e-251
2.4551e-252
8.2792e-254
2.25358e-255
4.55628e-257
5.81711e-259
3.50628e-261
5.8603e-264
1.61103e-240
1.10408e-242
8.1892e-245
8.75213e-247
1.05304e-248
1.13739e-250
9.43863e-253
4.47473e-255
7.12199e-258
2.68482e-239
6.36299e-241
1.17717e-242
1.85079e-244
2.53364e-246
2.94637e-248
2.6783e-250
1.52074e-252
3.20236e-255
4.53072e-239
1.65605e-240
4.76455e-242
1.13988e-243
2.29148e-245
3.75126e-247
4.52449e-249
3.27849e-251
8.72307e-254
1.69361e-239
7.60991e-241
2.70697e-242
7.94465e-244
1.93151e-245
3.7504e-247
5.23226e-249
4.28116e-251
1.27046e-253
3.18539e-240
1.60237e-241
6.41622e-243
2.11106e-244
5.72155e-246
1.21714e-247
1.82791e-249
1.58692e-251
4.96093e-254
3.89461e-241
2.08202e-242
8.92005e-244
3.14708e-245
9.06678e-247
2.02624e-248
3.15769e-250
2.8128e-252
8.96731e-255
3.37178e-242
1.85288e-243
8.23241e-245
3.01401e-246
8.97195e-248
2.0561e-249
3.255e-251
2.91675e-253
9.29156e-256
2.07614e-243
1.15059e-244
5.18419e-246
1.92722e-247
5.81206e-249
1.34213e-250
2.1232e-252
1.88172e-254
5.87492e-257
8.61652e-245
4.74519e-246
2.13273e-247
7.91978e-249
2.38283e-250
5.46228e-252
8.49473e-254
7.29553e-256
2.17081e-258
3.17919e-245
2.18301e-246
1.18225e-247
5.23744e-249
1.91905e-250
5.68886e-252
1.2764e-253
1.91443e-255
1.54699e-257
4.18133e-260
4.22423e-247
2.82862e-248
1.49615e-249
6.47871e-251
2.32131e-252
6.7096e-254
1.45243e-255
2.05077e-257
1.48895e-259
3.33883e-262
1.86368e-249
1.21436e-250
6.24386e-252
2.62799e-253
9.14434e-255
2.55188e-256
5.23948e-258
6.72191e-260
4.03233e-262
6.69624e-265
1.49613e-242
1.48702e-244
1.86067e-246
2.65533e-248
3.56217e-250
4.12792e-252
3.55759e-254
1.7101e-256
2.67828e-259
7.84987e-241
1.94913e-242
3.77708e-244
6.21501e-246
8.91733e-248
1.09544e-249
1.03589e-251
5.98331e-254
1.24439e-256
2.19628e-240
8.2989e-242
2.46776e-243
6.0755e-245
1.25046e-246
2.08538e-248
2.53249e-250
1.82396e-252
4.77186e-255
1.07104e-240
4.95267e-242
1.81682e-243
5.48375e-245
1.36828e-246
2.70082e-248
3.78778e-250
3.0836e-252
9.04688e-255
2.38442e-241
1.23121e-242
5.07174e-244
1.71923e-245
4.77076e-247
1.02947e-248
1.5519e-250
1.3394e-252
4.14273e-255
3.26582e-242
1.7918e-243
7.90106e-245
2.86322e-246
8.42648e-248
1.90743e-249
2.98041e-251
2.63751e-253
8.31813e-256
3.05884e-243
1.72565e-244
7.87858e-246
2.9578e-247
8.98161e-249
2.08266e-250
3.30357e-252
2.94013e-254
9.26582e-257
1.97685e-244
1.12529e-245
5.20841e-247
1.98428e-248
6.1013e-250
1.42515e-251
2.25915e-253
1.98948e-255
6.1484e-258
8.39557e-246
4.75381e-247
2.19598e-248
8.35965e-250
2.56516e-251
5.95015e-253
9.27803e-255
7.92435e-257
2.33622e-259
3.02289e-246
2.13386e-247
1.18991e-248
5.42441e-250
2.03968e-251
6.17232e-253
1.40246e-254
2.1108e-256
1.6977e-258
4.55089e-261
3.96668e-248
2.73488e-249
1.4922e-250
6.66112e-252
2.45327e-253
7.24867e-255
1.59075e-256
2.25581e-258
1.6312e-260
3.63113e-263
1.71267e-250
1.151e-251
6.11832e-253
2.66069e-254
9.53616e-256
2.72511e-257
5.67972e-259
7.32612e-261
4.3797e-263
7.23429e-266
1.75921e-244
2.99136e-246
5.26325e-248
8.62582e-250
1.26205e-251
1.57271e-253
1.42078e-255
6.97883e-258
1.08815e-260
2.23678e-242
5.86555e-244
1.20559e-245
2.10983e-247
3.24068e-249
4.2557e-251
4.22073e-253
2.49458e-255
5.1787e-258
1.03208e-241
4.0343e-243
1.2411e-244
3.14833e-246
6.66947e-248
1.13407e-249
1.38901e-251
9.97921e-254
2.5874e-256
6.55166e-242
3.11969e-243
1.17992e-244
3.67267e-246
9.41008e-248
1.88924e-249
2.66686e-251
2.16435e-253
6.29437e-256
1.71984e-242
9.12203e-244
3.87658e-245
1.35265e-246
3.84035e-248
8.40834e-250
1.27366e-251
1.09468e-253
3.35468e-256
2.6407e-243
1.48583e-244
6.73556e-246
2.50481e-247
7.5261e-249
1.72567e-250
2.70611e-252
2.38306e-254
7.44535e-257
2.66689e-244
1.54178e-245
7.22467e-247
2.77868e-248
8.60235e-250
2.01832e-251
3.21079e-253
2.8427e-255
8.8752e-258
1.80485e-245
1.05238e-246
4.99611e-248
1.9486e-249
6.10497e-251
1.44236e-252
2.2929e-254
2.00918e-256
6.15379e-259
7.83587e-247
4.54484e-248
2.1537e-249
8.39475e-251
2.6252e-252
6.16085e-254
9.63775e-256
8.19553e-258
2.39631e-260
2.79417e-247
1.99849e-248
1.1421e-249
5.34542e-251
2.05982e-252
6.35753e-254
1.46251e-255
2.20978e-257
1.77076e-259
4.71222e-262
3.63676e-249
2.53698e-250
1.41992e-251
6.51683e-253
2.4631e-254
7.43206e-256
1.65295e-257
2.35519e-259
1.69802e-261
3.75693e-264
1.54456e-251
1.04905e-252
5.72763e-254
2.56558e-255
9.45363e-257
2.76326e-258
5.84457e-260
7.58409e-262
4.525e-264
7.44681e-267
3.20885e-246
7.77355e-248
1.61133e-249
2.91883e-251
4.7157e-253
6.32138e-255
5.9982e-257
3.0123e-259
4.68591e-262
6.28785e-244
1.7583e-245
3.88723e-247
7.36504e-249
1.2343e-250
1.74217e-252
1.81516e-254
1.09786e-256
2.2775e-259
4.71671e-243
1.90731e-244
6.07189e-246
1.59497e-247
3.48296e-249
6.04522e-251
7.4776e-253
5.3679e-255
1.38084e-257
3.88972e-243
1.90647e-244
7.45425e-246
2.39592e-247
6.29962e-249
1.28659e-250
1.82937e-252
1.48149e-254
4.27341e-257
1.20747e-243
6.57496e-245
2.87595e-246
1.03152e-247
2.9949e-249
6.65359e-251
1.01341e-252
8.68246e-255
2.63832e-257
2.07596e-244
1.1933e-245
5.55034e-247
2.11562e-248
6.48569e-250
1.50625e-251
2.37201e-253
2.08084e-255
6.44598e-258
2.26238e-245
1.33041e-246
6.38111e-248
2.51082e-249
7.91894e-251
1.87974e-252
3.00071e-254
2.6457e-256
8.1909e-259
1.60899e-246
9.49366e-248
4.60408e-249
1.83502e-250
5.85264e-252
1.39829e-253
2.2302e-255
1.94643e-257
5.91412e-260
7.18157e-248
4.19241e-249
2.0265e-250
8.06866e-252
2.56855e-253
6.09648e-255
9.57144e-257
8.11073e-259
2.3545e-261
2.78998e-248
1.85101e-249
1.05939e-250
5.05329e-252
1.98955e-253
6.25426e-255
1.45595e-256
2.20917e-258
1.76541e-260
4.66987e-263
3.69706e-250
2.34636e-251
1.30935e-252
6.12235e-254
2.36603e-255
7.27836e-257
1.63968e-258
2.34838e-260
1.69017e-262
3.72356e-265
1.58618e-252
9.62035e-254
5.21501e-255
2.37989e-256
8.97663e-258
2.67867e-259
5.74684e-261
7.50709e-263
4.47827e-265
7.36106e-268
7.80703e-248
2.22768e-249
5.17284e-251
1.05052e-252
1.86225e-254
2.67893e-256
2.65959e-258
1.36104e-260
2.11183e-263
1.77259e-245
5.34536e-247
1.29267e-248
2.70572e-250
4.96083e-252
7.50934e-254
8.18326e-256
5.04651e-258
1.04521e-260
2.10622e-244
8.80894e-246
2.91317e-247
7.93568e-249
1.78597e-250
3.1662e-252
3.95911e-254
2.84258e-256
7.25814e-259
2.27075e-244
1.14255e-245
4.60894e-247
1.52683e-248
4.11579e-250
8.54884e-252
1.22471e-253
9.90106e-256
2.8336e-258
8.38853e-245
4.63632e-246
2.07959e-247
7.65283e-249
2.27013e-250
5.11608e-252
7.83729e-254
6.69715e-256
2.01898e-258
1.63894e-245
9.3924e-247
4.44937e-248
1.73326e-249
5.41416e-251
1.27299e-252
2.01359e-254
1.76078e-256
5.41211e-259
1.98103e-246
1.13178e-247
5.48143e-249
2.19587e-250
7.04138e-252
1.68979e-253
2.70722e-255
2.37872e-257
7.30927e-260
1.53509e-247
8.52733e-249
4.13338e-250
1.67081e-251
5.40863e-253
1.30529e-254
2.08875e-256
1.81704e-258
5.48333e-261
7.33051e-249
3.90012e-250
1.86415e-251
7.5007e-253
2.42051e-254
5.80136e-256
9.13948e-258
7.72391e-260
2.22948e-262
4.48285e-249
1.98804e-250
1.00561e-251
4.69387e-253
1.86162e-254
5.92783e-256
1.39363e-257
2.12303e-259
1.69365e-261
4.46237e-264
6.46118e-251
2.61926e-252
1.25568e-253
5.68777e-255
2.20788e-256
6.87723e-258
1.5655e-259
2.25335e-261
1.62135e-263
3.56677e-266
2.97258e-253
1.10936e-254
5.02722e-256
2.19986e-257
8.31174e-259
2.51139e-260
5.44998e-262
7.16722e-264
4.28413e-266
7.06004e-269
2.17504e-249
6.88668e-251
1.78698e-252
4.0156e-254
7.75195e-256
1.18715e-257
1.22404e-259
6.35331e-262
9.82726e-265
5.20267e-247
1.7054e-248
4.55643e-250
1.0524e-251
2.09841e-253
3.37801e-255
3.82098e-257
2.39081e-259
4.93796e-262
9.37498e-246
4.02835e-247
1.3794e-248
3.89011e-250
9.0188e-252
1.63378e-253
2.06656e-255
1.48479e-257
3.76418e-260
1.34362e-245
6.78253e-247
2.80209e-248
9.53596e-250
2.6312e-251
5.55425e-253
8.0159e-255
6.47022e-257
1.83778e-259
6.24886e-246
3.28318e-247
1.48165e-248
5.55684e-250
1.67951e-251
3.83521e-253
5.90753e-255
5.03616e-257
1.50707e-259
1.53356e-246
7.66795e-248
3.54759e-249
1.39241e-250
4.40771e-252
1.04694e-253
1.66246e-255
1.44981e-257
4.42722e-260
2.31578e-247
1.04799e-248
4.76203e-250
1.89298e-251
6.11205e-253
1.47726e-254
2.3726e-256
2.07845e-258
6.3492e-261
2.18497e-248
8.82984e-250
3.83888e-251
1.51226e-252
4.89365e-254
1.18589e-255
1.90038e-257
1.64859e-259
4.95284e-262
1.22128e-249
4.43765e-251
1.82145e-252
7.0082e-254
2.24389e-255
5.3851e-257
8.48988e-259
7.15999e-261
2.06171e-263
1.47669e-249
3.73799e-251
1.23633e-252
4.76576e-254
1.77389e-255
5.56279e-257
1.30619e-258
1.99071e-260
1.58672e-262
4.18224e-265
2.27495e-251
5.41379e-253
1.64847e-254
5.95551e-256
2.13002e-257
6.48593e-259
1.4713e-260
2.11925e-262
1.52646e-264
3.3718e-267
1.0992e-253
2.48209e-255
7.00706e-257
2.36862e-258
8.0939e-260
2.37288e-261
5.12175e-263
6.74706e-265
4.04872e-267
6.73287e-270
6.91742e-251
2.33149e-252
6.62193e-254
1.62513e-255
3.3734e-257
5.43856e-259
5.77759e-261
3.02881e-263
4.66929e-266
1.68088e-248
5.87229e-250
1.71591e-251
4.32369e-253
9.25841e-255
1.56742e-256
1.82571e-258
1.15402e-260
2.37519e-263
4.36888e-247
1.85312e-248
6.49397e-250
1.88807e-251
4.50306e-253
8.33322e-255
1.06648e-256
7.67079e-259
1.93169e-261
9.44137e-247
4.19677e-248
1.7071e-249
5.88856e-251
1.65431e-252
3.54111e-254
5.14407e-256
4.14561e-258
1.16945e-260
6.87574e-247
2.6611e-248
1.09433e-249
4.03868e-251
1.22736e-252
2.82472e-254
4.36646e-256
3.71362e-258
1.10493e-260
2.5525e-247
8.20194e-249
3.11836e-250
1.14925e-251
3.58625e-253
8.51179e-255
1.35164e-256
1.17552e-258
3.5775e-261
5.21983e-248
1.44943e-249
4.93288e-251
1.74141e-252
5.4021e-254
1.28995e-255
2.06239e-257
1.80092e-259
5.4989e-262
6.0094e-249
1.50918e-250
4.61267e-252
1.52843e-253
4.61873e-255
1.09178e-256
1.73329e-258
1.49878e-260
4.51811e-263
3.80316e-250
8.90183e-252
2.48169e-253
7.67196e-255
2.2307e-256
5.15399e-258
8.01171e-260
6.73734e-262
1.95539e-264
6.19602e-250
1.2591e-251
2.79252e-253
7.20745e-255
2.07896e-256
5.76867e-258
1.28746e-259
1.9261e-261
1.53216e-263
4.0906e-266
9.67878e-252
1.92121e-253
4.07854e-255
9.84653e-257
2.65339e-258
6.98045e-260
1.48654e-261
2.09347e-263
1.50708e-265
3.38892e-268
4.70992e-254
9.1424e-256
1.86677e-257
4.24167e-259
1.06849e-260
2.64718e-262
5.29964e-264
6.80067e-266
4.08573e-268
6.94456e-271
3.28068e-252
9.5549e-254
2.73184e-255
7.03006e-257
1.53214e-258
2.56303e-260
2.78303e-262
1.46922e-264
2.25997e-267
7.62923e-250
2.38161e-251
7.1019e-253
1.88509e-254
4.24335e-256
7.45537e-258
8.87521e-260
5.64987e-262
1.15972e-264
2.77367e-248
9.43697e-250
3.15675e-251
9.23844e-253
2.2465e-254
4.23264e-256
5.47523e-258
3.94367e-260
9.88004e-263
1.19781e-247
3.39739e-249
1.14696e-250
3.74938e-252
1.04495e-253
2.24449e-255
3.26895e-257
2.62935e-259
7.38678e-262
1.49986e-247
3.52266e-249
1.02818e-250
3.25044e-252
9.34203e-254
2.11209e-255
3.24497e-257
2.7513e-259
8.19606e-262
7.49361e-248
1.61098e-249
4.07995e-251
1.16698e-252
3.23347e-254
7.30777e-256
1.13877e-257
9.86102e-260
3.02998e-262
1.77283e-248
3.67212e-250
8.47728e-252
2.19235e-253
5.69721e-255
1.25173e-256
1.93471e-258
1.67983e-260
5.22995e-263
2.19715e-249
4.45773e-251
9.6974e-253
2.31023e-254
5.60534e-256
1.18159e-257
1.78679e-259
1.53408e-261
4.75931e-264
1.4439e-250
2.87889e-252
6.0029e-254
1.34063e-255
3.05032e-257
6.12955e-259
8.95815e-261
7.46987e-263
2.24788e-265
2.48542e-250
4.87227e-252
9.54063e-254
1.92273e-255
4.0713e-257
8.72513e-259
1.66216e-260
2.31281e-262
1.82205e-264
5.06867e-267
3.87798e-252
7.50256e-254
1.44309e-255
2.8209e-257
5.69732e-259
1.15238e-260
2.06649e-262
2.68275e-264
1.90973e-266
4.48002e-269
1.87909e-254
3.58263e-256
6.76172e-258
1.28307e-259
2.47771e-261
4.72522e-263
7.88679e-265
9.25257e-267
5.4779e-269
9.6599e-272
4.03835e-253
7.26887e-255
1.57606e-256
3.63423e-258
7.69627e-260
1.28786e-261
1.40754e-263
7.46865e-266
1.1551e-268
8.4682e-251
1.65324e-252
3.88336e-254
9.50226e-256
2.1095e-257
3.73236e-259
4.48318e-261
2.86872e-263
5.91684e-266
3.73448e-249
7.60751e-251
1.90942e-252
5.00272e-254
1.17934e-255
2.21496e-257
2.87365e-259
2.07298e-261
5.20503e-264
2.77544e-248
5.15753e-250
1.14969e-251
2.9323e-253
7.31285e-255
1.50432e-256
2.15677e-258
1.72834e-260
4.89744e-263
4.50143e-248
8.36013e-250
1.69652e-251
3.84567e-253
8.97562e-255
1.8299e-256
2.69387e-258
2.26966e-260
6.94812e-263
2.50802e-248
4.77137e-250
9.40126e-252
1.96802e-253
4.22133e-255
8.17401e-257
1.18681e-258
1.01854e-260
3.27875e-263
6.24462e-249
1.20892e-250
2.36135e-252
4.73567e-254
9.54481e-256
1.75334e-257
2.47781e-259
2.12732e-261
7.02238e-264
7.93375e-250
1.54639e-251
2.99986e-253
5.8531e-255
1.12826e-256
1.98111e-258
2.71399e-260
2.29901e-262
7.58867e-265
5.26969e-251
1.02474e-252
1.96836e-254
3.75461e-256
6.98324e-258
1.17726e-259
1.55483e-261
1.27651e-263
4.07677e-266
9.04462e-251
1.78255e-252
3.43614e-254
6.51689e-256
1.21622e-257
2.18835e-259
3.53833e-261
4.45528e-263
3.44812e-265
1.01117e-267
1.40536e-252
2.73852e-254
5.21894e-256
9.74735e-258
1.77743e-259
3.0904e-261
4.76462e-263
5.61344e-265
3.91374e-267
9.57695e-270
6.76344e-255
1.30083e-256
2.44451e-258
4.48297e-260
7.96622e-262
1.33265e-263
1.93558e-265
2.06466e-267
1.1904e-269
2.15271e-272
8.142e-254
1.15541e-255
1.77771e-257
2.98539e-259
5.11473e-261
7.6584e-263
8.01617e-265
4.26499e-267
6.69787e-270
1.64501e-251
2.41659e-253
3.92402e-255
7.06529e-257
1.30155e-258
2.1032e-260
2.44408e-262
1.56956e-264
3.36512e-267
7.59652e-250
1.16255e-251
1.98185e-253
3.77719e-255
7.37553e-257
1.26609e-258
1.58831e-260
1.14663e-262
2.98006e-265
6.9795e-249
1.1446e-250
1.95828e-252
3.59883e-254
6.88096e-256
1.20798e-257
1.61178e-259
1.27999e-261
3.81171e-264
1.27211e-248
2.26648e-250
4.04748e-252
7.35192e-254
1.33913e-255
2.2559e-257
3.0034e-259
2.50208e-261
8.23213e-264
7.52665e-249
1.4154e-250
2.62485e-252
4.82054e-254
8.62876e-256
1.41304e-257
1.85696e-259
1.57603e-261
5.44993e-264
1.93662e-249
3.74902e-251
7.10447e-253
1.31632e-254
2.33996e-256
3.76848e-258
4.88883e-260
4.15293e-262
1.45486e-264
2.50141e-250
4.89949e-252
9.35879e-254
1.73603e-255
3.06169e-257
4.8565e-259
6.19824e-261
5.19511e-263
1.7952e-265
1.67154e-251
3.27447e-253
6.24375e-255
1.15149e-256
2.00642e-258
3.12316e-260
3.88909e-262
3.15809e-264
1.04338e-266
2.82817e-251
5.65043e-253
1.09896e-254
2.07962e-256
3.79327e-258
6.49811e-260
9.85718e-262
1.18103e-263
9.03353e-266
2.71229e-268
4.37329e-253
8.63958e-255
1.66326e-256
3.11073e-258
5.58643e-260
9.35542e-262
1.36932e-263
1.54543e-265
1.0633e-267
2.63835e-270
2.08888e-255
4.07407e-257
7.74219e-259
1.4258e-260
2.50951e-262
4.07858e-264
5.67273e-266
5.82021e-268
3.30128e-270
5.84047e-273
1.64791e-254
2.29956e-256
3.24618e-258
4.62698e-260
6.48213e-262
8.18639e-264
7.81451e-266
4.15765e-268
7.01846e-271
3.32542e-252
4.72844e-254
6.84098e-256
1.01129e-257
1.49281e-259
2.0268e-261
2.15412e-263
1.38639e-265
3.23746e-268
1.56994e-250
2.31362e-252
3.47115e-254
5.3459e-256
8.28018e-258
1.19101e-259
1.36542e-261
9.85358e-264
2.7876e-266
1.61174e-249
2.62971e-251
4.25425e-253
6.8657e-255
1.09155e-256
1.61073e-258
1.93591e-260
1.51992e-262
4.89845e-265
3.21233e-249
5.77993e-251
1.01847e-252
1.75426e-254
2.90207e-256
4.37854e-258
5.40446e-260
4.46753e-262
1.55792e-264
2.00498e-249
3.82292e-251
7.10078e-253
1.27765e-254
2.18031e-256
3.3545e-258
4.20786e-260
3.55358e-262
1.27248e-264
5.32105e-250
1.0452e-251
1.99469e-253
3.67093e-255
6.36526e-257
9.88137e-259
1.24491e-260
1.05351e-262
3.76672e-265
6.9811e-251
1.38706e-252
2.67397e-254
4.95854e-256
8.62849e-258
1.3374e-259
1.67334e-261
1.3973e-263
4.88419e-266
4.68971e-252
9.31558e-254
1.79455e-255
3.32006e-257
5.74523e-259
8.80822e-261
1.08123e-262
8.7454e-265
2.90624e-267
7.80508e-252
1.58284e-253
3.12112e-255
5.97125e-257
1.0951e-258
1.87084e-260
2.80946e-262
3.32974e-264
2.53566e-266
7.62621e-269
1.20035e-253
2.40629e-255
4.69685e-257
8.88692e-259
1.6074e-260
2.69249e-262
3.91505e-264
4.38034e-266
2.9983e-268
7.42592e-271
5.68535e-256
1.12517e-257
2.16845e-259
4.04282e-261
7.17686e-263
1.16933e-264
1.61967e-266
1.64934e-268
9.29488e-271
1.63104e-273
3.10517e-255
4.45678e-257
6.363e-259
8.92981e-261
1.19475e-262
1.41949e-264
1.29813e-266
6.91819e-269
1.21328e-271
6.30547e-253
9.1948e-255
1.33579e-256
1.91844e-258
2.65623e-260
3.33717e-262
3.36827e-264
2.17509e-266
5.35265e-269
3.04174e-251
4.58553e-253
6.87527e-255
1.02027e-256
1.46655e-258
1.93316e-260
2.09181e-262
1.51252e-264
4.53453e-267
3.41237e-250
5.67678e-252
9.24794e-254
1.46927e-255
2.23403e-257
3.09897e-259
3.55256e-261
2.77847e-263
9.31374e-266
7.41159e-250
1.35945e-251
2.42733e-253
4.19035e-255
6.84363e-257
1.00785e-258
1.21868e-260
1.00594e-262
3.56717e-265
4.88181e-250
9.47754e-252
1.78624e-253
3.24089e-255
5.52789e-257
8.43685e-259
1.0496e-260
8.85728e-263
3.19011e-265
1.33701e-250
2.67023e-252
5.16949e-254
9.61186e-256
1.6738e-257
2.59466e-259
3.25834e-261
2.75519e-263
9.85949e-266
1.78207e-251
3.59518e-253
7.02616e-255
1.31692e-256
2.30582e-258
3.57922e-260
4.47346e-262
3.73126e-264
1.30193e-266
1.20332e-252
2.42465e-254
4.73266e-256
8.85139e-258
1.54279e-259
2.37252e-261
2.91246e-263
2.35224e-265
7.79042e-268
1.97108e-252
4.05383e-254
8.10425e-256
1.57063e-257
2.91249e-259
5.01538e-261
7.56253e-263
8.96929e-265
6.81776e-267
2.04107e-269
3.01392e-254
6.12499e-256
1.21186e-257
2.32274e-259
4.24925e-261
7.17935e-263
1.04903e-264