/*--------------------------------*- C++ -*----------------------------------*\
| =========                 |                                                 |
| \\      /  F ield         | OpenFOAM: The Open Source CFD Toolbox           |
|  \\    /   O peration     | Version:  2.3.1                                 |
|   \\  /    A nd           | Web:      www.OpenFOAM.org                      |
|    \\/     M anipulation  |                                                 |
\*---------------------------------------------------------------------------*/
FoamFile
{
    version     2.0;
    format      ascii;
    class       volScalarField;
    location    "15";
    object      Sed_0;
}
// * * * * * * * * * * * * * * * * * * * * * * * * * * * * * * * * * * * * * //

dimensions      [0 0 0 0 0 0 0];

internalField   nonuniform List<scalar> 
37784
(
2.57873e-235
2.0142e-237
1.02947e-239
4.0905e-242
1.57297e-244
7.01243e-247
3.38906e-249
1.40221e-251
3.22243e-254
1.11216e-235
1.11702e-237
7.25259e-240
3.40918e-242
1.47381e-244
7.23707e-247
4.07959e-249
2.22754e-251
9.34344e-254
1.87209e-256
3.65885e-238
3.24168e-240
1.93198e-242
9.51427e-245
4.92951e-247
2.9246e-249
1.83321e-251
1.04888e-253
4.4075e-256
8.77853e-259
6.21672e-241
5.15851e-243
3.01763e-245
1.59158e-247
9.03468e-250
5.59412e-252
3.52471e-254
2.01059e-256
8.56885e-259
1.9936e-261
7.06934e-235
8.46757e-237
8.58502e-239
7.57841e-241
5.89092e-243
4.07066e-245
2.45842e-247
1.17877e-249
3.06636e-252
4.09741e-235
5.85727e-237
6.58644e-239
6.32309e-241
5.3789e-243
4.13468e-245
2.91355e-247
1.80188e-249
8.44871e-252
1.78132e-254
2.48613e-237
3.45888e-239
3.73105e-241
3.43071e-243
2.81432e-245
2.14229e-247
1.52098e-249
9.4697e-252
4.31694e-254
8.41905e-257
7.80108e-240
1.03245e-241
1.04897e-243
9.02002e-246
6.99355e-248
5.11253e-250
3.52727e-252
2.13199e-254
9.30775e-257
1.85201e-259
7.50351e-235
1.2443e-236
1.81505e-238
2.35483e-240
2.71244e-242
2.73566e-244
2.31271e-246
1.46893e-248
4.7256e-251
4.63849e-235
8.99688e-237
1.4298e-238
1.98675e-240
2.47891e-242
2.78349e-244
2.76156e-246
2.28049e-248
1.34381e-250
3.25409e-253
3.92432e-237
7.46691e-239
1.14178e-240
1.51645e-242
1.81454e-244
1.96611e-246
1.8942e-248
1.50582e-250
8.22557e-253
1.72001e-255
1.57582e-239
2.83384e-241
4.06176e-243
5.06201e-245
5.70473e-247
5.85631e-249
5.36305e-251
3.99849e-253
1.96704e-255
3.63011e-258
3.42159e-235
7.24326e-237
1.36278e-238
2.27398e-240
3.34583e-242
4.25702e-244
4.45262e-246
3.38811e-248
1.23586e-250
2.14082e-235
5.15958e-237
1.04547e-238
1.872e-240
3.00031e-242
4.28887e-244
5.3369e-246
5.39724e-248
3.75375e-250
1.00913e-252
2.20595e-237
5.20495e-239
1.01212e-240
1.72566e-242
2.64117e-244
3.62875e-246
4.35462e-248
4.19972e-250
2.66347e-252
6.00268e-255
1.01259e-239
2.2604e-241
4.1259e-243
6.59071e-245
9.49289e-247
1.23368e-248
1.40123e-250
1.25482e-252
6.96185e-255
1.27874e-257
1.04969e-235
2.7048e-237
6.15047e-239
1.22735e-240
2.13869e-242
3.18682e-244
3.83797e-246
3.27155e-248
1.27764e-250
6.4011e-236
1.8512e-237
4.53561e-239
9.80182e-241
1.88128e-242
3.18795e-244
4.63897e-246
5.37647e-248
4.14682e-250
1.18653e-252
7.51437e-238
2.11026e-239
4.93799e-241
1.0144e-242
1.85962e-244
3.02903e-246
4.24184e-248
4.65592e-250
3.23474e-252
7.61474e-255
3.71608e-240
9.86917e-242
2.17059e-243
4.18944e-245
7.24668e-247
1.11815e-248
1.47896e-250
1.49429e-252
8.89844e-255
1.62742e-257
2.56927e-236
7.76493e-238
2.04073e-239
4.65442e-241
9.165e-243
1.52613e-244
2.01985e-246
1.84256e-248
7.39416e-251
1.49152e-236
5.05981e-238
1.44891e-239
3.62163e-241
7.95418e-243
1.52508e-244
2.47723e-246
3.14367e-248
2.58095e-250
7.63433e-253
1.91074e-238
6.25006e-240
1.70282e-241
4.04295e-243
8.48721e-245
1.56507e-246
2.44308e-248
2.92384e-250
2.14567e-252
5.16781e-255
9.84914e-241
3.04792e-242
7.81162e-244
1.74554e-245
3.46559e-247
6.06228e-249
8.92995e-251
9.78672e-253
6.07438e-255
1.10413e-257
5.42803e-237
1.86133e-238
5.46254e-240
1.37868e-241
2.98042e-243
5.38232e-245
7.59349e-247
7.19319e-249
2.88867e-251
2.96628e-237
1.15406e-238
3.75267e-240
1.05165e-241
2.56346e-243
5.39835e-245
9.49876e-247
1.28115e-248
1.08909e-250
3.2646e-253
4.01427e-239
1.49876e-240
4.63386e-242
1.23583e-243
2.88413e-245
5.84323e-247
9.86713e-249
1.25056e-250
9.45313e-253
2.29459e-255
2.10608e-241
7.45076e-243
2.17249e-244
5.46929e-246
1.20973e-247
2.32691e-249
3.70343e-251
4.27995e-253
2.71091e-255
4.88292e-258
1.02411e-237
3.87747e-239
1.23978e-240
3.38236e-242
7.85306e-244
1.50721e-245
2.22024e-247
2.13626e-249
8.39966e-252
5.2581e-238
2.29616e-239
8.27575e-241
2.5396e-242
6.71609e-244
1.52081e-245
2.84167e-247
3.99518e-249
3.45365e-251
1.03633e-253
7.34121e-240
3.06948e-241
1.05356e-242
3.08635e-244
7.83491e-246
1.70874e-247
3.062e-249
4.03584e-251
3.09399e-253
7.50854e-256
3.85565e-242
1.53122e-243
4.97277e-245
1.37986e-246
3.32938e-248
6.90464e-250
1.16567e-251
1.39656e-253
8.91488e-256
1.59128e-258
1.7528e-238
7.17628e-240
2.45545e-241
7.12573e-243
1.74865e-244
3.51077e-246
5.31223e-248
5.09586e-250
1.91761e-252
8.48198e-239
4.07794e-240
1.59787e-241
5.27534e-243
1.48914e-244
3.56946e-246
6.97547e-248
1.00711e-249
8.72783e-252
2.59536e-254
1.2013e-240
5.52949e-242
2.06955e-243
6.54635e-245
1.77884e-246
4.11248e-248
7.70639e-250
1.04188e-251
8.00778e-254
1.93121e-256
6.2448e-243
2.7383e-244
9.73299e-246
2.92701e-247
7.58207e-249
1.66976e-250
2.94791e-252
3.61557e-254
2.30493e-256
4.07386e-259
2.74307e-239
1.19576e-240
4.32329e-242
1.31926e-243
3.3832e-245
7.02124e-247
1.07754e-248
1.01433e-250
3.56144e-253
1.25816e-239
6.54976e-241
2.74835e-242
9.63562e-244
2.86931e-245
7.1982e-247
1.45465e-248
2.13278e-250
1.83293e-252
5.35915e-255
1.78669e-241
8.91862e-243
3.5881e-244
1.20981e-245
3.47759e-247
8.42757e-249
1.63367e-250
2.24278e-252
1.71361e-254
4.08962e-257
9.12373e-244
4.35295e-245
1.66969e-246
5.37243e-248
1.47657e-249
3.41496e-251
6.23906e-253
7.76159e-255
4.90813e-257
8.58204e-260
4.05007e-231
4.28826e-233
2.98314e-235
1.44224e-237
5.14771e-240
1.46406e-242
3.85029e-245
9.72599e-248
1.48053e-250
6.40178e-232
1.38433e-233
2.36526e-235
3.32402e-237
3.91619e-239
3.83368e-241
2.98726e-243
1.59572e-245
3.64994e-248
9.18513e-233
3.00517e-234
7.70898e-236
1.62709e-237
2.86245e-239
4.13468e-241
4.62815e-243
3.37554e-245
9.90297e-248
8.66578e-234
3.52643e-235
1.10251e-236
2.83561e-238
6.06318e-240
1.05932e-241
1.40707e-243
1.18699e-245
3.91206e-248
6.46925e-235
2.98136e-236
1.05093e-237
3.03016e-239
7.25217e-241
1.41153e-242
2.07337e-244
1.94348e-246
4.18609e-236
2.02019e-237
7.58572e-239
2.32923e-240
5.94781e-242
1.23286e-243
1.91638e-245
1.8881e-247
2.36827e-237
1.14022e-238
4.37664e-240
1.38823e-241
3.66592e-243
7.81167e-245
1.23936e-246
1.22782e-248
1.10698e-238
5.214e-240
2.00313e-241
6.42406e-243
1.71751e-244
3.69052e-246
5.83991e-248
5.64545e-250
3.94754e-240
1.8114e-241
6.85917e-243
2.18331e-244
5.80416e-246
1.2349e-247
1.90601e-249
1.74147e-251
5.58499e-254
1.72683e-240
9.59658e-242
4.26273e-243
1.57224e-244
4.89768e-246
1.27566e-247
2.64509e-249
3.90981e-251
3.3104e-253
9.47702e-256
2.4399e-242
1.30388e-243
5.57606e-245
1.98517e-246
5.98545e-248
1.50843e-249
3.00224e-251
4.158e-253
3.14258e-255
7.40501e-258
1.21819e-244
6.24539e-246
2.5568e-247
8.71875e-249
2.52083e-250
6.07449e-252
1.14014e-253
1.43014e-255
8.93459e-258
1.54443e-260
7.62599e-233
6.53723e-235
3.99508e-237
1.76583e-239
6.16575e-242
2.00985e-244
7.54176e-247
2.65207e-249
4.35454e-252
2.36139e-233
5.04958e-235
8.6933e-237
1.25639e-238
1.53187e-240
1.55168e-242
1.24255e-244
6.70357e-247
1.50487e-249
5.45754e-234
1.80023e-235
4.68573e-237
1.01995e-238
1.86251e-240
2.78687e-242
3.19535e-244
2.34025e-246
6.73257e-249
6.83485e-235
2.80259e-236
8.92216e-238
2.36327e-239
5.23745e-241
9.43269e-243
1.27629e-244
1.07452e-246
3.46039e-249
6.22482e-236
2.88826e-237
1.03943e-238
3.07273e-240
7.5729e-242
1.51298e-243
2.24643e-245
2.05679e-247
7.02905e-250
4.61682e-237
2.25983e-238
8.69806e-240
2.74826e-241
7.21138e-243
1.52284e-244
2.37307e-246
2.2531e-248
7.83303e-251
2.86336e-238
1.41391e-239
5.59183e-241
1.83067e-242
4.9735e-244
1.08008e-245
1.71268e-247
1.63086e-249
5.6205e-252
1.41979e-239
6.93533e-241
2.76237e-242
9.16816e-244
2.52413e-245
5.5274e-247
8.7444e-249
8.17189e-251
2.72882e-253
5.24642e-241
2.51537e-242
9.91885e-244
3.27563e-245
8.97797e-247
1.948e-248
3.01393e-250
2.69831e-252
8.46492e-255
2.20295e-241
1.29295e-242
6.03085e-244
2.32496e-245
7.53175e-247
2.02524e-248
4.28601e-250
6.36287e-252
5.31562e-254
1.50002e-256
3.08259e-243
1.74576e-244
7.87019e-246
2.93811e-247
9.23443e-249
2.40627e-250
4.89171e-252
6.80935e-254
5.08949e-256
1.18515e-258
1.50127e-245
8.18538e-247
3.54586e-248
1.27223e-249
3.84492e-251
9.59796e-253
1.84147e-254
2.32154e-256
1.43311e-258
2.45223e-261
1.17501e-234
8.5034e-237
4.49542e-239
1.90742e-241
7.58404e-244
3.67383e-246
2.10375e-248
8.96315e-251
1.49355e-253
8.205e-235
1.76945e-236
3.04774e-238
4.50922e-240
5.67413e-242
5.93745e-244
4.88802e-246
2.66351e-248
5.87291e-251
3.08914e-235
1.03759e-236
2.74243e-238
6.11481e-240
1.1529e-241
1.77657e-243
2.07657e-245
1.52233e-247
4.29373e-250
5.1089e-236
2.12697e-237
6.94895e-239
1.88251e-240
4.28595e-242
7.91557e-244
1.08561e-245
9.09861e-248
2.86698e-250
5.63599e-237
2.65018e-238
9.7699e-240
2.96425e-241
7.47287e-243
1.52184e-244
2.27306e-246
2.04576e-248
6.80473e-251
4.77006e-238
2.37706e-239
9.38728e-241
3.04865e-242
8.20176e-244
1.7599e-245
2.73812e-247
2.53405e-249
8.54721e-252
3.23284e-239
1.6377e-240
6.66684e-242
2.24863e-243
6.26602e-245
1.38218e-246
2.18843e-248
2.03504e-250
6.80836e-253
1.69571e-240
8.57401e-242
3.53043e-243
1.20888e-244
3.41518e-246
7.59568e-248
1.20057e-249
1.09974e-251
3.58686e-254
6.47849e-242
3.23064e-243
1.32132e-244
4.50953e-246
1.26927e-247
2.79852e-249
4.3341e-251
3.82433e-253
1.17996e-255
2.62246e-242
1.61298e-243
7.85495e-245
3.1498e-246
1.05645e-247
2.92054e-249
6.28558e-251
9.35484e-253
7.72815e-255
2.15337e-257
3.62526e-244
2.15866e-245
1.01931e-246
3.96903e-248
1.29432e-249
3.47271e-251
7.1861e-253
1.00376e-254
7.42941e-257
1.71124e-259
1.72066e-246
9.89596e-248
4.50489e-249
1.69109e-250
5.3168e-252
1.36926e-253
2.67694e-255
3.38816e-257
2.07059e-259
3.51209e-262
1.50424e-236
9.6971e-239
4.60781e-241
2.14341e-243
1.27586e-245
9.80885e-248
7.07605e-250
3.21978e-252
5.30313e-255
2.708e-236
5.97434e-238
1.04143e-239
1.55903e-241
2.01877e-243
2.18303e-245
1.85129e-247
1.01998e-249
2.21043e-252
1.67546e-236
5.75514e-238
1.55811e-239
3.54261e-241
6.84753e-243
1.08112e-244
1.28288e-246
9.38765e-249
2.59492e-251
3.63987e-237
1.5526e-238
5.20483e-240
1.44525e-241
3.35742e-243
6.32286e-245
8.75056e-247
7.28475e-249
2.24692e-251
4.83112e-238
2.31529e-239
8.76164e-241
2.72995e-242
7.04414e-244
1.45464e-245
2.17515e-247
1.92952e-249
6.2644e-252
4.64441e-239
2.36397e-240
9.58611e-242
3.19856e-243
8.81054e-245
1.91736e-246
2.9812e-248
2.71113e-250
8.90324e-253
3.42694e-240
1.78215e-241
7.46892e-243
2.59119e-244
7.38977e-246
1.65216e-247
2.61281e-249
2.39035e-251
7.83339e-254
1.89874e-241
9.91519e-243
4.21232e-244
1.48454e-245
4.29216e-247
9.67396e-249
1.52796e-250
1.37985e-252
4.42081e-255
7.47592e-243
3.86343e-244
1.63385e-245
5.74542e-247
1.65592e-248
3.70159e-250
5.73644e-252
5.00428e-254
1.52234e-256
2.92677e-243
1.87521e-244
9.4912e-246
3.94391e-247
1.36502e-248
3.86825e-250
8.44795e-252
1.25985e-253
1.03121e-255
2.84056e-258
3.99254e-245
2.48359e-246
1.22221e-247
4.94352e-249
1.66691e-250
4.59178e-252
9.65265e-254
1.35244e-255
9.92985e-258
2.26457e-260
1.84718e-247
1.11293e-248
5.29604e-250
2.07115e-251
6.75024e-253
1.78843e-254
3.5565e-256
4.51898e-258
2.73973e-260
4.61053e-263
1.62814e-238
1.00587e-240
5.13978e-243
3.40516e-245
3.22521e-247
3.16566e-249
2.50339e-251
1.16719e-253
1.88948e-256
8.54242e-238
1.94503e-239
3.47171e-241
5.28846e-243
7.01129e-245
7.84478e-247
6.87952e-249
3.84213e-251
8.1972e-254
8.7145e-238
3.08173e-239
8.58583e-241
1.99883e-242
3.93428e-244
6.33216e-246
7.59352e-248
5.53375e-250
1.49969e-252
2.48957e-238
1.08765e-239
3.75121e-241
1.06988e-242
2.53948e-244
4.85261e-246
6.74317e-248
5.56593e-250
1.68253e-252
3.94098e-239
1.9318e-240
7.51417e-242
2.40504e-243
6.35432e-245
1.33105e-246
1.99317e-248
1.74469e-250
5.53759e-253
4.28241e-240
2.23133e-241
9.29445e-243
3.18764e-244
8.97925e-246
1.9799e-247
3.07936e-249
2.7663e-251
8.93059e-254
3.42647e-241
1.83017e-242
7.89948e-244
2.81575e-245
8.20556e-247
1.85726e-248
2.93624e-250
2.65391e-252
8.55978e-255
2.00347e-242
1.07812e-243
4.71854e-245
1.70848e-246
5.04621e-248
1.15119e-249
1.81829e-251
1.62425e-253
5.12965e-256
8.10681e-244
4.32818e-245
1.88806e-246
6.82575e-248
2.01061e-249
4.55132e-251
7.06113e-253
6.10452e-255
1.83479e-257
3.07815e-244
2.04458e-245
1.07158e-246
4.60094e-248
1.6393e-249
4.75288e-251
1.05211e-252
1.57268e-254
1.27777e-256
3.48413e-259
4.14234e-246
2.67795e-247
1.3679e-248
5.72947e-250
1.99263e-251
5.62476e-253
1.19992e-254
1.68692e-256
1.2306e-258
2.78129e-261
1.86978e-248
1.1737e-249
5.81328e-251
2.36071e-252
7.95537e-254
2.16412e-255
4.37315e-257
5.58079e-259
3.36254e-261
5.61819e-264
1.5455e-240
1.05832e-242
7.85525e-245
8.39959e-247
1.01039e-248
1.09094e-250
9.04917e-253
4.28817e-255
6.82214e-258
2.58619e-239
6.12202e-241
1.13164e-242
1.778e-244
2.43252e-246
2.8274e-248
2.56895e-250
1.45799e-252
3.06889e-255
4.36855e-239
1.59501e-240
4.58501e-242
1.09613e-243
2.20213e-245
3.60305e-247
4.34353e-249
3.14583e-251
8.36632e-254
1.63346e-239
7.33193e-241
2.60593e-242
7.64265e-244
1.85694e-245
3.60362e-247
5.02491e-249
4.1095e-251
1.21898e-253
3.07253e-240
1.54402e-241
6.17753e-243
2.03108e-244
5.5014e-246
1.16965e-247
1.75569e-249
1.52349e-251
4.76056e-254
3.75671e-241
2.00629e-242
8.5886e-244
3.02798e-245
8.71813e-247
1.94722e-248
3.033e-250
2.70046e-252
8.60549e-255
3.2522e-242
1.78542e-243
7.92621e-245
2.89981e-246
8.62648e-248
1.97581e-249
3.1263e-251
2.80014e-253
8.91637e-256
2.00217e-243
1.10854e-244
4.99067e-246
1.85393e-247
5.58746e-249
1.28954e-250
2.03897e-252
1.80626e-254
5.63708e-257
8.30718e-245
4.57058e-246
2.05261e-247
7.61674e-249
2.29019e-250
5.24701e-252
8.15594e-254
7.00153e-256
2.08253e-258
3.06719e-245
2.10373e-246
1.13833e-247
5.03889e-249
1.84499e-250
5.46589e-252
1.22571e-253
1.83753e-255
1.48423e-257
4.01025e-260
4.07282e-247
2.72463e-248
1.43993e-249
6.2304e-251
2.23079e-252
6.44407e-254
1.39422e-255
1.96769e-257
1.42807e-259
3.20123e-262
1.79589e-249
1.16914e-250
6.00631e-252
2.52607e-253
8.78382e-255
2.44985e-256
5.02749e-258
6.44719e-260
3.86615e-262
6.41839e-265
1.43553e-242
1.42686e-244
1.78617e-246
2.54837e-248
3.41704e-250
3.9582e-252
3.40986e-254
1.6384e-256
2.56492e-259
7.55898e-241
1.87472e-242
3.62979e-244
5.96852e-246
8.55859e-248
1.05089e-249
9.93326e-252
5.73495e-254
1.19225e-256
2.1169e-240
7.99027e-242
2.37395e-243
5.84028e-245
1.2013e-246
2.00229e-248
2.43037e-250
1.74958e-252
4.57524e-255
1.03264e-240
4.77019e-242
1.74843e-243
5.27354e-245
1.31503e-246
2.59428e-248
3.63652e-250
2.95907e-252
8.67772e-255
2.29912e-241
1.18598e-242
4.88149e-244
1.65358e-245
4.58575e-247
9.89001e-249
1.49014e-250
1.28551e-252
3.97434e-255
3.14905e-242
1.72605e-243
7.60501e-245
2.75399e-246
8.09995e-248
1.8325e-249
2.8619e-251
2.53148e-253
7.98046e-256
2.94924e-243
1.66223e-244
7.58299e-246
2.8448e-247
8.63308e-249
2.00073e-250
3.17205e-252
2.82183e-254
8.88944e-257
1.90567e-244
1.08376e-245
5.01224e-247
1.90819e-248
5.86367e-250
1.36889e-251
2.16892e-253
1.90919e-255
5.89801e-258
8.09094e-246
4.57714e-247
2.11272e-248
8.03706e-250
2.46465e-251
5.71394e-253
8.9055e-255
7.60301e-257
2.24066e-259
2.91519e-246
2.05555e-247
1.14527e-248
5.21689e-250
1.9603e-251
5.92854e-253
1.34637e-254
2.02545e-256
1.62841e-258
4.36367e-261
3.82294e-248
2.6333e-249
1.43559e-250
6.40357e-252
2.35683e-253
6.95969e-255
1.52657e-256
2.16385e-258
1.56414e-260
3.48079e-263
1.64971e-250
1.10772e-251
5.88341e-253
2.55665e-254
9.15732e-256
2.61539e-257
5.44846e-259
7.02502e-261
4.19836e-263
6.9331e-266
1.6896e-244
2.87293e-246
5.05302e-248
8.27658e-250
1.21039e-251
1.50767e-253
1.36145e-255
6.68469e-258
1.04186e-260
2.15318e-242
5.63981e-244
1.15821e-245
2.02551e-247
3.10949e-249
4.08155e-251
4.04627e-253
2.39047e-255
4.96052e-258
9.94426e-242
3.88292e-243
1.1935e-244
3.02537e-246
6.40509e-248
1.08853e-249
1.33256e-251
9.56928e-254
2.48005e-256
6.31453e-242
3.00373e-243
1.13512e-244
3.53076e-246
9.04095e-248
1.81414e-249
2.55959e-251
2.07635e-253
6.03587e-256
1.65774e-242
8.78406e-244
3.72998e-245
1.30059e-246
3.69028e-248
8.0754e-250
1.22263e-251
1.05035e-253
3.2175e-256
2.54537e-243
1.43083e-244
6.48108e-246
2.40849e-247
7.23228e-249
1.6574e-250
2.5978e-252
2.28667e-254
7.14134e-257
2.5704e-244
1.4846e-245
6.9513e-247
2.67168e-248
8.26603e-250
1.93837e-251
3.08212e-253
2.72761e-255
8.51258e-258
1.73922e-245
1.01318e-246
4.80628e-248
1.87327e-249
5.8654e-251
1.38502e-252
2.20072e-254
1.9276e-256
5.90173e-259
7.54872e-247
4.37435e-248
2.07132e-249
8.06816e-251
2.52156e-252
5.91456e-254
9.24826e-256
7.86117e-258
2.29775e-260
2.69375e-247
1.92443e-248
1.09885e-249
5.13915e-251
1.97901e-252
6.10457e-254
1.40361e-255
2.11987e-257
1.69807e-259
4.51741e-262
3.50395e-249
2.44187e-250
1.36557e-251
6.26274e-253
2.36553e-254
7.13365e-256
1.58582e-257
2.25863e-259
1.62786e-261
3.6008e-264
1.4874e-251
1.00926e-252
5.50584e-254
2.46445e-255
9.07532e-257
2.65127e-258
5.60519e-260
7.27082e-262
4.33694e-264
7.13621e-267
3.08453e-246
7.4671e-248
1.5467e-249
2.80007e-251
4.52166e-253
6.05859e-255
5.74645e-257
2.88469e-259
4.48557e-262
6.05086e-244
1.69012e-245
3.73336e-247
7.06896e-249
1.18405e-250
1.67049e-252
1.73973e-254
1.0518e-256
2.18106e-259
4.54297e-243
1.83511e-244
5.83703e-246
1.53218e-247
3.34381e-249
5.80058e-251
7.17151e-253
5.14584e-255
1.32316e-257
3.74763e-243
1.835e-244
7.16899e-246
2.30262e-247
6.05065e-249
1.23508e-250
1.75528e-252
1.42086e-254
4.0968e-257
1.16348e-243
6.3293e-245
2.76632e-246
9.91512e-248
2.87702e-249
6.38831e-251
9.7254e-253
8.32865e-255
2.52979e-257
2.00037e-244
1.14875e-245
5.33896e-247
2.03365e-248
6.23068e-250
1.44626e-251
2.27646e-253
1.99616e-255
6.18125e-258
2.17987e-245
1.28066e-246
6.13769e-248
2.41339e-249
7.60712e-251
1.80477e-252
2.8797e-254
2.53795e-256
7.85432e-259
1.55008e-246
9.13709e-248
4.42772e-249
1.76353e-250
5.6213e-252
1.34232e-253
2.13996e-255
1.86693e-257
5.67054e-260
6.91689e-248
4.03389e-249
1.94836e-250
7.75233e-252
2.46642e-253
5.85112e-255
9.18219e-257
7.77794e-259
2.25718e-261
2.69062e-248
1.78213e-249
1.01898e-250
4.85676e-252
1.91091e-253
6.00366e-255
1.39694e-256
2.11874e-258
1.69257e-260
4.47605e-263
3.56383e-250
2.25816e-251
1.25889e-252
5.88189e-254
2.27163e-255
6.98417e-257
1.57269e-258
2.25159e-260
1.62005e-262
3.56849e-265
1.52848e-252
9.25507e-254
5.01191e-255
2.28545e-256
8.61505e-258
2.56945e-259
5.51024e-261
7.19578e-263
4.29175e-265
7.05424e-268
7.50554e-248
2.13954e-249
4.96447e-251
1.00759e-252
1.78524e-254
2.56699e-256
2.54738e-258
1.30308e-260
2.02107e-263
1.70525e-245
5.13666e-247
1.24121e-248
2.59637e-250
4.75783e-252
7.19872e-254
7.84137e-256
4.83366e-258
1.00072e-260
2.02793e-244
8.47264e-246
2.79959e-247
7.62087e-249
1.71408e-250
3.03714e-252
3.79591e-254
2.72418e-256
6.95291e-259
2.18711e-244
1.09937e-245
4.43119e-247
1.46692e-248
3.95195e-250
8.20421e-252
1.17478e-253
9.49321e-256
2.71576e-258
8.08097e-245
4.46178e-246
1.99972e-247
7.35388e-249
2.18015e-250
4.91075e-252
7.51922e-254
6.42258e-256
1.93543e-258
1.57913e-245
9.03951e-247
4.2787e-248
1.66563e-249
5.19982e-251
1.22196e-252
1.93198e-254
1.68871e-256
5.18859e-259
1.90906e-246
1.08926e-247
5.27095e-249
2.11007e-250
6.76224e-252
1.62196e-253
2.59737e-255
2.28127e-257
7.00733e-260
1.4795e-247
8.20639e-249
3.97413e-250
1.60528e-251
5.19342e-253
1.25272e-254
2.00373e-256
1.74241e-258
5.25641e-261
7.06529e-249
3.75276e-250
1.79193e-251
7.20483e-253
2.32364e-254
5.56643e-256
8.76567e-258
7.40542e-260
2.13698e-262
4.33317e-249
1.91588e-250
9.67393e-252
4.51071e-253
1.78763e-254
5.68891e-256
1.33682e-257
2.0357e-259
1.62351e-261
4.27678e-264
6.24406e-251
2.52383e-252
1.20763e-253
5.46398e-255
2.11939e-256
6.59783e-258
1.50124e-259
2.16012e-261
1.55395e-263
3.41831e-266
2.8721e-253
1.06878e-254
4.8335e-256
2.11258e-257
7.97582e-259
2.40858e-260
5.22483e-262
6.86944e-264
4.10582e-266
6.76708e-269
2.0907e-249
6.613e-251
1.71466e-252
3.85071e-254
7.42975e-256
1.13727e-257
1.17211e-259
6.08128e-262
9.40272e-265
5.00366e-247
1.63843e-248
4.37409e-250
1.00965e-251
2.0121e-253
3.23752e-255
3.66044e-257
2.2894e-259
4.72658e-262
9.0238e-246
3.87334e-247
1.32521e-248
3.73464e-250
8.65315e-252
1.56671e-253
1.98078e-255
1.42253e-257
3.60483e-260
1.29403e-245
6.52459e-247
2.69326e-248
9.15921e-250
2.52573e-251
5.32883e-253
7.68695e-255
6.202e-257
1.76088e-259
6.02256e-246
3.15938e-247
1.42444e-248
5.3384e-250
1.61252e-251
3.68032e-253
5.66631e-255
4.82848e-257
1.44436e-259
1.47943e-246
7.38171e-248
3.41121e-249
1.33781e-250
4.23222e-252
1.00473e-253
1.59469e-255
1.39014e-257
4.24348e-260
2.23601e-247
1.00929e-248
4.57956e-250
1.81879e-251
5.86858e-253
1.41766e-254
2.27583e-256
1.99289e-258
6.08588e-261
2.11103e-248
8.50681e-250
3.69207e-251
1.45292e-252
4.69824e-254
1.13791e-255
1.82268e-257
1.58062e-259
4.74736e-262
1.18033e-249
4.27635e-251
1.75181e-252
6.73235e-254
2.15391e-255
5.16629e-257
8.14148e-259
6.86403e-261
1.97613e-263
1.43052e-249
3.61264e-251
1.19153e-252
4.58332e-254
1.70377e-255
5.33854e-257
1.25284e-258
1.90868e-260
1.52098e-262
4.00874e-265
2.20294e-251
5.2319e-253
1.5888e-254
5.727e-256
2.04541e-257
6.223e-259
1.4109e-260
2.03162e-262
1.46317e-264
3.23238e-267
1.064e-253
2.39843e-255
6.75345e-257
2.27753e-258
7.77095e-260
2.27623e-261
4.91076e-263
6.46777e-265
3.88135e-267
6.45679e-270
6.65016e-251
2.23866e-252
6.35293e-254
1.55809e-255
3.23247e-257
5.20883e-259
5.53112e-261
2.89843e-263
4.4666e-266
1.61666e-248
5.641e-250
1.64695e-251
4.14719e-253
8.87552e-255
1.50186e-256
1.74856e-258
1.10479e-260
2.27297e-263
4.20597e-247
1.78151e-248
6.23725e-250
1.8121e-251
4.31924e-253
7.9888e-255
1.02191e-256
7.34702e-259
1.8494e-261
9.10511e-247
4.03823e-248
1.64065e-249
5.65473e-251
1.58761e-252
3.39651e-254
4.93167e-256
3.97273e-258
1.12024e-260
6.64489e-247
2.56368e-248
1.05238e-249
3.87981e-251
1.17822e-252
2.7101e-254
4.18729e-256
3.55976e-258
1.05877e-260
2.47047e-247
7.91244e-249
3.00112e-250
1.10448e-251
3.44349e-253
8.1678e-255
1.29638e-256
1.12701e-258
3.42881e-261
5.05549e-248
1.39976e-249
4.75104e-251
1.67423e-252
5.18806e-254
1.23795e-255
1.97824e-257
1.72679e-259
5.2713e-262
5.82128e-249
1.45838e-250
4.44542e-252
1.46998e-253
4.43639e-255
1.04783e-256
1.66264e-258
1.4372e-260
4.33185e-263
3.6838e-250
8.60471e-252
2.39273e-253
7.38058e-255
2.14284e-256
4.94658e-258
7.68519e-260
6.46098e-262
1.87514e-264
6.00612e-250
1.21917e-251
2.69943e-253
6.95078e-255
2.00036e-256
5.54175e-258
1.23564e-259
1.84762e-261
1.46947e-263
3.92376e-266
9.37736e-252
1.85969e-253
3.94232e-255
9.49702e-257
2.55338e-258
6.70614e-260
1.42673e-261
2.00832e-263
1.44571e-265
3.25199e-268
4.56108e-254
8.8469e-256
1.80416e-257
4.09126e-259
1.02831e-260
2.54334e-262
5.08685e-264
6.52526e-266
3.9208e-268
6.66791e-271
3.16212e-252
9.18405e-254
2.62173e-255
6.74024e-257
1.46797e-258
2.45435e-260
2.66382e-262
1.40574e-264
2.1616e-267
7.35372e-250
2.28961e-251
6.81787e-253
1.80807e-254
4.06726e-256
7.14212e-258
8.49834e-260
5.40773e-262
1.10961e-264
2.67675e-248
9.07971e-250
3.0324e-251
8.86584e-253
2.15437e-254
4.05676e-256
5.24515e-258
3.77632e-260
9.45715e-263
1.15943e-247
3.27651e-249
1.10332e-250
3.60142e-252
1.0028e-253
2.15258e-255
3.13348e-257
2.51931e-259
7.07518e-262
1.45401e-247
3.40526e-249
9.90899e-251
3.12578e-252
8.97192e-254
2.02673e-255
3.11204e-257
2.63751e-259
7.85501e-262
7.26742e-248
1.55928e-249
3.93848e-251
1.12369e-252
3.10808e-254
7.01676e-256
1.09268e-257
9.45818e-260
2.90577e-262
1.71922e-248
3.5559e-250
8.1916e-252
2.11331e-253
5.48088e-255
1.20263e-256
1.85738e-258
1.61207e-260
5.01888e-263
2.13022e-249
4.31689e-251
9.37517e-253
2.22859e-254
5.39622e-256
1.13586e-257
1.7162e-259
1.47296e-261
4.57009e-264
1.39946e-250
2.78751e-252
5.80432e-254
1.2938e-255
2.93793e-257
5.89487e-259
8.60769e-261
7.17549e-263
2.15972e-265
2.40949e-250
4.71998e-252
9.23528e-254
1.85904e-255
3.92981e-257
8.40623e-259
1.59904e-260
2.22309e-262
1.75098e-264
4.87237e-267
3.7575e-252
7.26503e-254
1.39647e-255
2.72703e-257
5.4995e-259
1.11045e-260
1.98852e-262
2.57952e-264
1.83601e-266
4.3087e-269
1.81981e-254
3.46785e-256
6.54113e-258
1.24008e-259
2.39151e-261
4.55379e-263
7.59093e-265
8.89953e-267
5.26884e-269
9.29542e-272
3.90975e-253
7.01613e-255
1.51657e-256
3.48927e-258
7.379e-260
1.23369e-261
1.34757e-263
7.14783e-266
1.10527e-268
8.19934e-251
1.59541e-252
3.7362e-254
9.12367e-256
2.02292e-257
3.57628e-259
4.29329e-261
2.74613e-263
5.66259e-266
3.61831e-249
7.34568e-251
1.8379e-252
4.80542e-254
1.13141e-255
2.12322e-257
2.75303e-259
1.98513e-261
4.98306e-264
2.69266e-248
4.99273e-250
1.10962e-251
2.82232e-253
7.02549e-255
1.44356e-256
2.06819e-258
1.65664e-260
4.6934e-263
4.36832e-248
8.10218e-250
1.64089e-251
3.71019e-253
8.63984e-255
1.7587e-256
2.58668e-258
2.1784e-260
6.66881e-263
2.4335e-248
4.62513e-250
9.10106e-252
1.90158e-253
4.07033e-255
7.8683e-257
1.14122e-258
9.78991e-261
3.15187e-263
6.05735e-249
1.17171e-250
2.28644e-252
4.57899e-254
9.21307e-256
1.68973e-257
2.38538e-259
2.04711e-261
6.75868e-264
7.69318e-250
1.49841e-251
2.90446e-253
5.6607e-255
1.08962e-256
1.91058e-258
2.61478e-260
2.21408e-262
7.30926e-265
5.10793e-251
9.92611e-253
1.90534e-254
3.63105e-256
6.74531e-258
1.13575e-259
1.49866e-261
1.22994e-263
3.92839e-266
8.76805e-251
1.72691e-252
3.32711e-254
6.30637e-256
1.17598e-257
2.11374e-259
3.414e-261
4.2953e-263
3.32322e-265
9.74592e-268
1.36163e-252
2.65186e-254
5.0514e-256
9.42918e-258
1.71815e-259
2.98458e-261
4.59713e-263
5.41237e-265
3.77249e-267
9.23154e-270
6.54972e-255
1.25915e-256
2.3651e-258
4.33497e-260
7.69798e-262
1.28673e-263
1.86737e-265
1.99074e-267
1.14752e-269
2.07516e-272
7.89389e-254
1.11886e-255
1.71827e-257
2.87856e-259
4.92027e-261
7.35472e-263
7.69072e-265
4.09036e-267
6.42453e-270
1.59554e-251
2.3405e-253
3.79233e-255
6.81046e-257
1.2517e-258
2.01939e-260
2.34448e-262
1.50501e-264
3.22707e-267
7.37118e-250
1.12634e-251
1.91579e-253
3.64156e-255
7.09426e-257
1.21587e-258
1.52389e-260
1.09965e-262
2.85814e-265
6.7748e-249
1.10991e-250
1.8962e-252
3.47749e-254
6.63358e-256
1.16237e-257
1.54912e-259
1.22964e-261
3.66238e-264
1.23468e-248
2.1981e-250
3.92188e-252
7.11473e-254
1.29379e-255
2.17599e-257
2.8937e-259
2.40957e-261
7.92917e-264
7.3032e-249
1.37244e-250
2.54347e-252
4.66705e-254
8.34453e-256
1.36483e-257
1.79191e-259
1.52014e-261
5.25682e-264
1.87849e-249
3.63414e-251
6.88279e-253
1.27438e-254
2.26346e-256
3.64183e-258
4.72081e-260
4.00847e-262
1.40411e-264
2.42543e-250
4.74769e-252
9.06406e-254
1.68038e-255
2.96141e-257
4.69374e-259
5.98644e-261
5.01549e-263
1.73281e-265
1.62012e-251
3.17181e-253
6.045e-255
1.11424e-256
1.94028e-258
3.01812e-260
3.75602e-262
3.0488e-264
1.00704e-266
2.74143e-251
5.47361e-253
1.06406e-254
2.01266e-256
3.66925e-258
6.28194e-260
9.52333e-262
1.1404e-263
8.71947e-266
2.61733e-268
4.2368e-253
8.3654e-255
1.60977e-256
3.00934e-258
5.40163e-260
9.04086e-262
1.32253e-263
1.49188e-265
1.02609e-267
2.54532e-270
2.02266e-255
3.94311e-257
7.4901e-259
1.37873e-260
2.42546e-262
3.9399e-264
5.47702e-266
5.61691e-268
3.18489e-270
5.63299e-273
1.59784e-254
2.22827e-256
3.14305e-258
4.47505e-260
6.26061e-262
7.89567e-264
7.52944e-266
4.00442e-268
6.76049e-271
3.22594e-252
4.58351e-254
6.62542e-256
9.78198e-258
1.4417e-259
1.95442e-261
2.07495e-263
1.3349e-265
3.11783e-268
1.52361e-250
2.2435e-252
3.36277e-254
5.17218e-256
7.99794e-258
1.14857e-259
1.3153e-261
9.48777e-264
2.68468e-266
1.56445e-249
2.55076e-251
4.12361e-253
6.64867e-255
1.05573e-256
1.55577e-258
1.86787e-260
1.46581e-262
4.72448e-265
3.11757e-249
5.6058e-251
9.87234e-253
1.69938e-254
2.80905e-256
4.2344e-258
5.22252e-260
4.3152e-262
1.5046e-264
1.94526e-249
3.70673e-251
6.88147e-253
1.23755e-254
2.11059e-256
3.24506e-258
4.06809e-260
3.43405e-262
1.22934e-264
5.16078e-250
1.0131e-251
1.93248e-253
3.55475e-255
6.16056e-257
9.55815e-259
1.20354e-260
1.01806e-262
3.63876e-265
6.76825e-251
1.34395e-252
2.58965e-254
4.80001e-256
8.34852e-258
1.29333e-259
1.61739e-261
1.35e-263
4.71716e-266
4.54485e-252
9.02247e-254
1.7373e-255
3.21271e-257
5.55681e-259
8.5151e-261
1.04475e-262
8.4468e-265
2.80597e-267
7.56468e-252
1.5331e-253
3.0216e-255
5.7784e-257
1.05926e-258
1.80876e-260
2.71491e-262
3.21622e-264
2.44822e-266
7.36047e-269
1.16272e-253
2.32959e-255
4.54518e-257
8.59623e-259
1.55411e-260
2.602e-262
3.78172e-264
4.22933e-266
2.8938e-268
7.16442e-271
5.50428e-256
1.08884e-257
2.09753e-259
3.90883e-261
6.93577e-263
1.12953e-264
1.56385e-266
1.59185e-268
8.9675e-271
1.57301e-273
3.01034e-255
4.31835e-257
6.162e-259
8.64231e-261
1.15546e-262
1.37181e-264
1.25374e-266
6.67889e-269
1.17103e-271
6.11595e-253
8.91286e-255
1.2941e-256
1.85736e-258
2.56968e-260
3.22582e-262
3.25364e-264
2.10018e-266
5.16732e-269
2.95158e-251
4.4466e-253
6.66305e-255
9.88122e-257
1.41922e-258
1.86917e-260
2.0211e-262
1.46076e-264
4.37861e-267
3.31178e-250
5.5059e-252
8.96482e-254
1.4235e-255
2.16302e-257
2.9983e-259
3.43488e-261
2.68522e-263
8.99895e-266
7.19191e-250
1.31833e-251
2.35278e-253
4.05974e-255
6.62689e-257
9.75386e-259
1.1788e-260
9.72587e-263
3.4477e-265
4.73571e-250
9.18822e-252
1.73089e-253
3.13909e-255
5.35176e-257
8.16403e-259
1.01517e-260
8.56295e-263
3.08288e-265
1.29654e-250
2.58781e-252
5.0076e-254
9.30686e-256
1.61996e-257
2.51003e-259
3.15061e-261
2.66292e-263
9.52536e-266
1.72746e-251
3.4829e-253
6.8036e-255
1.27466e-256
2.23084e-258
3.46126e-260
4.32405e-262
3.60507e-264
1.25737e-266
1.16596e-252
2.34797e-254
4.58093e-256
8.56395e-258
1.49202e-259
2.29342e-261
2.8141e-263
2.27183e-265
7.52098e-268
1.91005e-252
3.92576e-254
7.84449e-256
1.51964e-257
2.81672e-259
4.84827e-261
7.30725e-263
8.66275e-265
6.582e-267
1.96969e-269
2.91893e-254
5.92869e-256
1.17251e-257
2.24636e-259
4.10765e-261
6.93697e-263
1.01317e-264