/*--------------------------------*- C++ -*----------------------------------*\
| =========                 |                                                 |
| \\      /  F ield         | OpenFOAM: The Open Source CFD Toolbox           |
|  \\    /   O peration     | Version:  2.3.1                                 |
|   \\  /    A nd           | Web:      www.OpenFOAM.org                      |
|    \\/     M anipulation  |                                                 |
\*---------------------------------------------------------------------------*/
FoamFile
{
    version     2.0;
    format      ascii;
    class       volVectorField;
    location    "15";
    object      U;
}
// * * * * * * * * * * * * * * * * * * * * * * * * * * * * * * * * * * * * * //

dimensions      [0 1 -1 0 0 0 0];

internalField   nonuniform List<vector> 
37784
(
(-0.00121081 0.00303035 0.000182793)
(-0.000737773 0.00237675 0.000137252)
(-0.000435575 0.00184302 0.000104461)
(-0.000240879 0.00142606 8.14315e-05)
(-0.000129033 0.00110478 6.5142e-05)
(-5.72312e-05 0.000877464 5.36022e-05)
(-3.57246e-05 0.000705074 4.58413e-05)
(-1.84758e-05 0.000664769 3.75278e-05)
(-6.44305e-06 0.000560243 2.8653e-05)
(-0.00240236 0.00232807 0.000148238)
(-0.00167537 0.00194074 0.00012066)
(-0.00114902 0.00156725 9.74166e-05)
(-0.000775665 0.0012418 7.8882e-05)
(-0.000510916 0.000976682 6.47424e-05)
(-0.000336399 0.000766591 5.37826e-05)
(-0.000212354 0.00061409 4.61804e-05)
(-0.000146734 0.000498604 3.99586e-05)
(-9.07352e-05 0.000441853 3.42413e-05)
(-1.99901e-05 0.000391988 2.38413e-05)
(-0.00257062 0.00114193 8.50056e-05)
(-0.00189446 0.00098854 7.47546e-05)
(-0.00136494 0.000819904 6.43632e-05)
(-0.000965717 0.000662654 5.49733e-05)
(-0.000667925 0.000529388 4.71419e-05)
(-0.000455427 0.000420952 4.09051e-05)
(-0.000299211 0.000344336 3.6277e-05)
(-0.000191662 0.000285929 3.30086e-05)
(-0.000111424 0.000270831 2.97525e-05)
(-3.4005e-05 0.000252516 2.44435e-05)
(-0.00258993 0.000308228 1.38318e-05)
(-0.00195188 0.00027341 1.88382e-05)
(-0.00143455 0.000230284 2.10351e-05)
(-0.00103365 0.000188005 2.15195e-05)
(-0.00072781 0.000151118 2.11576e-05)
(-0.000504062 0.000120578 2.03955e-05)
(-0.000335721 9.77647e-05 1.99002e-05)
(-0.000215035 8.14173e-05 1.98781e-05)
(-0.000120026 7.32752e-05 2.09912e-05)
(-3.46463e-05 7.35527e-05 2.29623e-05)
(-0.00123168 0.00310311 0.000521608)
(-0.000743483 0.00244088 0.000393119)
(-0.000431934 0.00189616 0.000300525)
(-0.000233095 0.00146855 0.000235033)
(-0.000118873 0.00113912 0.0001882)
(-4.70471e-05 0.000904103 0.000154697)
(-2.39098e-05 0.000731362 0.000131217)
(-2.0799e-06 0.000679218 0.000108653)
(3.41892e-06 0.00058126 8.28035e-05)
(-0.00243436 0.00242762 0.000418754)
(-0.0016913 0.00202636 0.00034245)
(-0.00115392 0.00163829 0.000277563)
(-0.000773574 0.00129933 0.000225429)
(-0.000505637 0.00102255 0.000185245)
(-0.000328682 0.00080343 0.000154183)
(-0.000204577 0.000643751 0.00013184)
(-0.000135683 0.000523889 0.000114105)
(-7.72104e-05 0.000463054 9.86001e-05)
(-1.22333e-05 0.000406954 7.43997e-05)
(-0.00260631 0.00126621 0.000244897)
(-0.00191436 0.00109042 0.000216787)
(-0.00137398 0.00090185 0.000187589)
(-0.000967584 0.000727915 0.000160852)
(-0.000665897 0.000581103 0.000138326)
(-0.000451259 0.000462383 0.000120051)
(-0.000294349 0.000377155 0.000106274)
(-0.000186214 0.000312732 9.6079e-05)
(-0.000103383 0.000289414 8.72842e-05)
(-2.84107e-05 0.000261829 7.41785e-05)
(-0.00263075 0.000393381 7.88872e-05)
(-0.00197631 0.000342581 8.67335e-05)
(-0.00144754 0.000285629 8.72392e-05)
(-0.00103898 0.000231993 8.37573e-05)
(-0.000728478 0.000186125 7.88006e-05)
(-0.000502154 0.000148593 7.35284e-05)
(-0.000332744 0.000120583 6.96442e-05)
(-0.000211862 9.97234e-05 6.74266e-05)
(-0.000116593 8.75594e-05 6.8096e-05)
(-3.22642e-05 7.90884e-05 7.00318e-05)
(-0.00128491 0.0030204 0.000825467)
(-0.000778753 0.0023967 0.000630329)
(-0.000454063 0.00187289 0.000486821)
(-0.000246862 0.00145648 0.000383473)
(-0.000126271 0.00113377 0.000308541)
(-5.04461e-05 0.000902122 0.000254334)
(-2.23355e-05 0.000733775 0.000215558)
(5.02102e-06 0.000678755 0.000180769)
(1.24586e-05 0.000585117 0.000149946)
(-0.00244653 0.00239061 0.000659012)
(-0.00170251 0.00201056 0.000546118)
(-0.00116193 0.00163456 0.000447003)
(-0.000778535 0.0013019 0.000365755)
(-0.000508735 0.00102793 0.00030202)
(-0.000329485 0.000810093 0.000252522)
(-0.000204114 0.000650496 0.000215989)
(-0.000131775 0.000530721 0.000187681)
(-7.03646e-05 0.000468079 0.000163744)
(-6.94648e-06 0.000407519 0.000135238)
(-0.00259743 0.00130334 0.000398897)
(-0.00190876 0.00112413 0.000356878)
(-0.00137018 0.000931468 0.000311238)
(-0.000964679 0.000753384 0.000268489)
(-0.00066377 0.000602615 0.000231889)
(-0.000449341 0.0004806 0.000201738)
(-0.00029246 0.000391985 0.000178647)
(-0.000183581 0.000324821 0.00016135)
(-9.85694e-05 0.000296616 0.00014763)
(-2.43042e-05 0.000262785 0.000132035)
(-0.00261178 0.000434487 0.000189536)
(-0.00196314 0.000376505 0.000193296)
(-0.00143869 0.000313382 0.000185612)
(-0.00103309 0.000254629 0.000172543)
(-0.000724601 0.000204596 0.000158301)
(-0.000499453 0.000163725 0.000144791)
(-0.000330562 0.000133054 0.00013437)
(-0.000209691 0.000109498 0.000127335)
(-0.000113636 9.43756e-05 0.000124773)
(-3.00763e-05 7.97089e-05 0.000124078)
(-0.0013611 0.0028756 0.00106261)
(-0.000835288 0.00230865 0.00082721)
(-0.000494224 0.00181917 0.000647858)
(-0.000275025 0.00142324 0.000515244)
(-0.000145084 0.00111345 0.000417344)
(-6.26039e-05 0.000889874 0.00034562)
(-2.83319e-05 0.000727686 0.000293631)
(4.4079e-06 0.000675121 0.000248824)
(1.51243e-05 0.000584066 0.000215008)
(-0.00246572 0.00229096 0.000845291)
(-0.00172545 0.00194762 0.000714113)
(-0.00118248 0.00159632 0.000592718)
(-0.000795117 0.00127953 0.000489939)
(-0.000521706 0.00101527 0.000407476)
(-0.000338577 0.000803532 0.000342618)
(-0.000210219 0.000647475 0.000293918)
(-0.000134007 0.000529872 0.00025649)
(-6.94808e-05 0.00046747 0.000225877)
(-5.53482e-06 0.000404427 0.000195048)
(-0.00258937 0.00128677 0.00053114)
(-0.00190876 0.00111609 0.000482013)
(-0.0013739 0.000929382 0.00042466)
(-0.000969602 0.000754973 0.000369047)
(-0.000668819 0.000606143 0.000320343)
(-0.00045358 0.000485082 0.000279542)
(-0.000295518 0.000396324 0.000247868)
(-0.000184943 0.000328639 0.000223869)
(-9.76385e-05 0.000298276 0.000205734)
(-2.29441e-05 0.000261625 0.000188206)
(-0.00259282 0.000442365 0.000304179)
(-0.00195411 0.000384284 0.000303788)
(-0.00143588 0.000320901 0.000287622)
(-0.00103369 0.000261686 0.000264506)
(-0.000726819 0.000210997 0.000240445)
(-0.000501952 0.000169402 0.0002181)
(-0.000332452 0.000137968 0.000200506)
(-0.000210426 0.000113235 0.000187801)
(-0.000112767 9.66685e-05 0.000181103)
(-2.91204e-05 7.9006e-05 0.000176456)
(-0.00144989 0.00268946 0.00123787)
(-0.000906345 0.0021887 0.000984714)
(-0.000547991 0.0017421 0.000783622)
(-0.000314705 0.00137331 0.000630347)
(-0.000173385 0.00108107 0.000514849)
(-8.23651e-05 0.000869105 0.000429154)
(-4.11003e-05 0.000714751 0.000366398)
(-2.46322e-06 0.00066853 0.000314218)
(1.26601e-05 0.000580406 0.000280299)
(-0.00248875 0.00214753 0.000982557)
(-0.00175715 0.00184948 0.00084816)
(-0.00121324 0.00153121 0.000715347)
(-0.000821549 0.00123715 0.00059843)
(-0.00054326 0.000987866 0.00050211)
(-0.000354951 0.000786041 0.000425081)
(-0.000222226 0.000636335 0.000366431)
(-0.000141575 0.00052273 0.000321543)
(-7.33466e-05 0.000462474 0.000286154)
(-6.90402e-06 0.000397932 0.000255168)
(-0.00258368 0.00123166 0.000641618)
(-0.00191479 0.00107737 0.000591451)
(-0.00138507 0.000903618 0.000527116)
(-0.000982009 0.000738557 0.000462019)
(-0.000680629 0.000596042 0.000403468)
(-0.000463567 0.000479158 0.000353544)
(-0.000303217 0.000392758 0.000314307)
(-0.000190051 0.000326354 0.000284346)
(-9.98985e-05 0.000295947 0.000262607)
(-2.35007e-05 0.00025852 0.000244238)
(-0.00257707 0.000428699 0.000416632)
(-0.00195088 0.000374859 0.000413082)
(-0.00143983 0.000314989 0.000389285)
(-0.00104094 0.000258326 0.000356685)
(-0.000735015 0.000209304 0.000323081)
(-0.000509457 0.000168739 0.000291965)
(-0.000338296 0.000137859 0.000267077)
(-0.000214123 0.000113073 0.000248444)
(-0.000114004 9.61907e-05 0.000237388)
(-2.91891e-05 7.72871e-05 0.000228806)
(-0.00154025 0.00247974 0.00135228)
(-0.00098444 0.00204712 0.00110081)
(-0.000610499 0.00164752 0.000891402)
(-0.000362847 0.00131005 0.00072635)
(-0.000209202 0.00103863 0.00059906)
(-0.000108478 0.000840867 0.000503489)
(-5.95659e-05 0.000695782 0.000432755)
(-1.44179e-05 0.000658754 0.000375936)
(6.13598e-06 0.000574688 0.000342062)
(-0.00250994 0.00197811 0.0010714)
(-0.00179256 0.00172748 0.000946497)
(-0.00125045 0.00144627 0.000812459)
(-0.000855167 0.00117914 0.000688859)
(-0.000571609 0.0009485 0.000583891)
(-0.000377353 0.000759454 0.000498255)
(-0.00023928 0.000618286 0.000432275)
(-0.000153581 0.000510214 0.000381784)
(-8.09118e-05 0.000453665 0.000343544)
(-1.0161e-05 0.000388335 0.000313017)
(-0.00257807 0.00115125 0.000726327)
(-0.00192451 0.00101733 0.00068095)
(-0.00140172 0.000860769 0.000614694)
(-0.00100038 0.00070882 0.000544015)
(-0.000698089 0.000575688 0.000478452)
(-0.000478501 0.000465339 0.000421439)
(-0.000315017 0.000383171 0.000376105)
(-0.000198473 0.000319454 0.000341199)
(-0.000104766 0.000290536 0.000316692)
(-2.53279e-05 0.000253533 0.00029748)
(-0.00256268 0.000402192 0.000513603)
(-0.0019516 0.000354909 0.000510058)
(-0.00144897 0.0003007 0.00048152)
(-0.00105362 0.000248377 0.000441739)
(-0.000748272 0.000202463 0.000400308)
(-0.000521324 0.000164052 0.000361617)
(-0.000347703 0.00013461 0.000330264)
(-0.000220577 0.000110555 0.000306164)
(-0.000117236 9.41109e-05 0.000291181)
(-3.0128e-05 7.48463e-05 0.000278817)
(-0.00162478 0.00225964 0.00141444)
(-0.00106379 0.00189244 0.00117868)
(-0.000677599 0.0015407 0.000971894)
(-0.000416654 0.00123656 0.000802993)
(-0.000250604 0.000988131 0.000669448)
(-0.000139565 0.000806208 0.00056812)
(-8.24133e-05 0.000671544 0.000492246)
(-3.01256e-05 0.000645425 0.000433589)
(-3.65107e-06 0.000566741 0.000399032)
(-0.00252534 0.0017964 0.00111845)
(-0.00182758 0.00159112 0.00101175)
(-0.00129071 0.00134782 0.000884588)
(-0.000893434 0.00110964 0.000760807)
(-0.000604948 0.000899881 0.000652076)
(-0.000404459 0.000725591 0.000561371)
(-0.000260398 0.000594514 0.00049077)
(-0.000169021 0.000493165 0.000436589)
(-9.11073e-05 0.000441415 0.000397477)
(-1.46766e-05 0.000375983 0.000367758)
(-0.00257043 0.00105612 0.000785278)
(-0.00193556 0.000943747 0.000749258)
(-0.00142176 0.000806385 0.000685633)
(-0.00102305 0.000669698 0.000613204)
(-0.000719937 0.000547891 0.000543627)
(-0.000497445 0.000445686 0.000481787)
(-0.000330236 0.000369053 0.000432065)
(-0.000209631 0.000309044 0.000393411)
(-0.000111639 0.000282566 0.000367062)
(-2.8031e-05 0.000246675 0.000346808)
(-0.00254792 0.000368683 0.000590134)
(-0.00195438 0.000328857 0.000589862)
(-0.00146158 0.000281318 0.000559942)
(-0.00107033 0.000234293 0.000515892)
(-0.000765517 0.000192335 0.000468964)
(-0.000536766 0.00015678 0.000424453)
(-0.000360127 0.000129349 0.00038796)
(-0.000229384 0.000106557 0.000359288)
(-0.000122116 9.10164e-05 0.000341185)
(-3.17686e-05 7.18614e-05 0.000325483)
(-0.001699 0.00203883 0.00143328)
(-0.0011401 0.00173165 0.00122244)
(-0.000745832 0.00142637 0.00102663)
(-0.000473553 0.00115595 0.000860534)
(-0.000295665 0.000931533 0.000725772)
(-0.000174158 0.000766119 0.000622549)
(-0.000108171 0.00064275 0.000544334)
(-4.81623e-05 0.000627907 0.000486742)
(-1.5919e-05 0.000555679 0.000449888)
(-0.00253259 0.0016126 0.00113056)
(-0.00185919 0.00144818 0.00104721)
(-0.00133118 0.00124143 0.000932875)
(-0.000933995 0.00103251 0.000814282)
(-0.000641477 0.000844632 0.00070615)
(-0.000434877 0.000686241 0.000613737)
(-0.000284491 0.000566188 0.000541158)
(-0.000186799 0.000472379 0.000485174)
(-0.000102884 0.000425984 0.000447195)
(-1.99633e-05 0.000361372 0.000418524)
(-0.00255911 0.000954442 0.000819411)
(-0.00194585 0.000862874 0.000796037)
(-0.00144316 0.00074506 0.000738881)
(-0.00104829 0.000624488 0.000668247)
(-0.000744807 0.000515014 0.000597631)
(-0.00051934 0.000421911 0.000533317)
(-0.000348069 0.0003516 0.000481032)
(-0.000222845 0.000295959 0.000439915)
(-0.000119958 0.000272305 0.000412678)
(-3.13589e-05 0.000237897 0.000391067)
(-0.00253114 0.000332205 0.000643659)
(-0.00195729 0.000299806 0.000649712)
(-0.00147585 0.000259159 0.000621812)
(-0.0010895 0.000217806 0.00057662)
(-0.000785518 0.000180215 0.000526822)
(-0.000554837 0.000147906 0.000478567)
(-0.000374869 0.000122821 0.000438556)
(-0.000239997 0.000101634 0.00040647)
(-0.000128234 8.72499e-05 0.000386251)
(-3.39495e-05 6.85258e-05 0.000367711)
(-0.00176064 0.00182415 0.00141751)
(-0.00121041 0.00157034 0.00123679)
(-0.000812416 0.0013086 0.00105781)
(-0.00053126 0.00107108 0.000899782)
(-0.000342558 0.000870721 0.00076811)
(-0.000210759 0.00072185 0.000666409)
(-0.00013522 0.000609848 0.000588445)
(-6.69219e-05 0.000604863 0.000535123)
(-2.93189e-05 0.000539394 0.000493483)
(-0.00253067 0.00143384 0.00111438)
(-0.00188531 0.00130478 0.00105666)
(-0.00136955 0.00113182 0.000959111)
(-0.000974766 0.00095118 0.000849856)
(-0.000679476 0.00078519 0.000746012)
(-0.000467207 0.000643102 0.000654916)
(-0.000310423 0.00053445 0.000582773)
(-0.000205764 0.000448604 0.000526748)
(-0.000115182 0.000407478 0.00049187)
(-2.55682e-05 0.000345096 0.000464536)
(-0.00254294 0.000852251 0.000830662)
(-0.00195366 0.000779609 0.000822003)
(-0.0014641 0.000680508 0.000774295)
(-0.00107444 0.000575924 0.000708526)
(-0.000771315 0.000479041 0.000639629)
(-0.000543073 0.000395457 0.00057513)
(-0.000367645 0.000331809 0.000522083)
(-0.000237385 0.000280871 0.0004798)
(-0.00012919 0.000259858 0.000452616)
(-3.51327e-05 0.000227076 0.000429412)
(-0.00251103 0.000295501 0.000674071)
(-0.00195865 0.000269941 0.0006889)
(-0.00149003 0.000235898 0.000666042)
(-0.00110961 0.000200178 0.000622688)
(-0.000807007 0.000167044 0.000572638)
(-0.000574528 0.00013814 0.000522797)
(-0.000391154 0.000115544 0.000480989)
(-0.000251798 9.61633e-05 0.000446761)
(-0.000135152 8.30171e-05 0.000425478)
(-3.65179e-05 6.50116e-05 0.000404632)
(-0.00180896 0.00162026 0.00137482)
(-0.00127278 0.00141282 0.00122635)
(-0.000875191 0.00119084 0.00106794)
(-0.000587808 0.000984487 0.000921901)
(-0.000389599 0.000807501 0.000796787)
(-0.000247962 0.000674555 0.00069943)
(-0.000161931 0.000573363 0.000623889)
(-8.46999e-05 0.000573667 0.000578157)
(-4.06353e-05 0.000510822 0.000530016)
(-0.00251942 0.00126487 0.00107578)
(-0.00190466 0.00116548 0.00104395)
(-0.00140404 0.0010228 0.000965437)
(-0.00101396 0.000868592 0.000868517)
(-0.000717368 0.000723713 0.000771921)
(-0.000500118 0.000597734 0.000684726)
(-0.0003371 0.000500374 0.000615076)
(-0.000224813 0.000422573 0.000560509)
(-0.00012704 0.000385835 0.000530381)
(-3.10166e-05 0.000327823 0.000504903)
(-0.00252126 0.000753764 0.000821495)
(-0.00195767 0.000697584 0.000828576)
(-0.001483 0.000615617 0.000792437)
(-0.00109999 0.000526206 0.000734038)
(-0.000798134 0.000441609 0.000669274)
(-0.000567546 0.000367524 0.000606695)
(-0.000388088 0.000310521 0.000554553)
(-0.000252531 0.000264353 0.000512339)
(-0.000138853 0.000245253 0.000486044)
(-3.92148e-05 0.000214081 0.000461292)
(-0.00248662 0.000260342 0.000682729)
(-0.00195707 0.000240736 0.000708079)
(-0.00150265 0.000212719 0.00069271)
(-0.00112925 0.000182315 0.000653805)
(-0.000828771 0.000153507 0.000605911)
(-0.000594846 0.000127997 0.000556556)
(-0.00040821 0.000107888 0.000514607)
(-0.000264178 9.04048e-05 0.00047951)
(-0.000142467 7.84384e-05 0.000458109)
(-3.9338e-05 6.14605e-05 0.000435514)
(0.000253115 0.00142517 0.00842398)
(0.00129046 0.000984546 0.00635084)
(0.00152681 0.000645658 0.00460611)
(0.00141406 0.000417984 0.00330945)
(0.00116162 0.000275607 0.00240358)
(0.000875129 0.000188911 0.0017944)
(0.000595766 0.000137718 0.00140297)
(0.000330036 0.000101085 0.00117226)
(0.000104675 7.19205e-05 0.00105816)
(-0.000339699 0.00246824 0.0065428)
(0.000693904 0.00186547 0.00520967)
(0.00108787 0.00134071 0.00398396)
(0.00113386 0.00094456 0.00298762)
(0.000999313 0.0006701 0.00224433)
(0.000792886 0.00048629 0.00171951)
(0.000565092 0.000369898 0.00137147)
(0.00033617 0.000287795 0.00116304)
(0.000117897 0.000236433 0.00106017)
(-0.000675529 0.00261341 0.00551439)
(0.000304238 0.0021184 0.00449086)
(0.00074681 0.00163904 0.00350237)
(0.000863593 0.00123266 0.00267688)
(0.000803884 0.000922939 0.00204704)
(0.00066509 0.000697425 0.00159577)
(0.000492166 0.000545723 0.00129129)
(0.000310014 0.000437827 0.00110478)
(0.000119893 0.000384102 0.00100429)
(-0.00100035 0.00263482 0.0044288)
(-0.000120093 0.0022375 0.00367335)
(0.000345086 0.00179884 0.00293173)
(0.00053278 0.00139952 0.00229958)
(0.000554739 0.00107779 0.00180316)
(0.000489917 0.000834002 0.00143803)
(0.000376065 0.000667986 0.00118588)
(0.000243642 0.00054448 0.00102997)
(9.59865e-05 0.000525392 0.000946849)
(-0.00115484 0.00251619 0.00373287)
(-0.000395655 0.00217825 0.00308815)
(3.73373e-05 0.00179319 0.00247838)
(0.000247874 0.00143194 0.0019684)
(0.000318239 0.00112973 0.00156898)
(0.000311848 0.00089167 0.00127336)
(0.000247862 0.000726351 0.00106359)
(0.000175544 0.000590019 0.000925795)
(-0.00140402 0.00241376 0.00291716)
(-0.000714226 0.00208479 0.002463)
(-0.000282622 0.00172568 0.00202214)
(-3.62051e-05 0.00139277 0.00164381)
(8.20647e-05 0.00111308 0.00134022)
(0.000127443 0.000890456 0.00111298)
(0.00010133 0.000732525 0.000948612)
(7.36257e-05 0.000597314 0.000859394)
(-0.00157658 0.00212897 0.00227926)
(-0.000959375 0.00185757 0.00195717)
(-0.000544911 0.00155772 0.00163884)
(-0.000279885 0.00127505 0.00136126)
(-0.000126633 0.00103269 0.00113423)
(-3.83424e-05 0.00083887 0.000964382)
(-2.97492e-05 0.000696722 0.000837756)
(-1.70946e-05 0.000577352 0.000792411)
(-0.00173487 0.00181097 0.00172715)
(-0.00117068 0.00158536 0.0015265)
(-0.000765878 0.00133909 0.00131419)
(-0.000485101 0.00110725 0.00112068)
(-0.000303814 0.000907188 0.000957162)
(-0.000182668 0.000751838 0.000835065)
(-0.000148218 0.000635192 0.000742979)
(-0.000102686 0.000594185 0.000746322)
(-0.00184408 0.00143018 0.00131168)
(-0.00132605 0.00126231 0.00119545)
(-0.000932529 0.00107588 0.00105963)
(-0.000641558 0.000898362 0.000928274)
(-0.000435335 0.000743511 0.000812352)
(-0.000284563 0.000625368 0.000721403)
(-0.000186936 0.000534096 0.000649855)
(-9.98909e-05 0.00053039 0.000613799)
(-3.97199e-05 0.000457817 0.000558532)
(-0.00249921 0.00110859 0.00101972)
(-0.00191655 0.00103352 0.0010127)
(-0.00143338 0.000917281 0.000954167)
(-0.00105012 0.000787126 0.000871557)
(-0.000753772 0.000662037 0.00078445)
(-0.000532419 0.000551514 0.000703247)
(-0.000363562 0.000464976 0.00063768)
(-0.000243068 0.000395046 0.000585694)
(-0.000137729 0.000361008 0.000560936)
(-3.56858e-05 0.000309545 0.000535105)
(-0.00249374 0.000661702 0.000794613)
(-0.00195693 0.000619331 0.000817648)
(-0.00149862 0.00055252 0.000794412)
(-0.00112361 0.00047703 0.000745296)
(-0.000824064 0.000404019 0.000686666)
(-0.000591745 0.000339092 0.00062784)
(-0.000408588 0.000288464 0.000578049)
(-0.000267652 0.00024695 0.000537021)
(-0.000148531 0.000228633 0.000512216)
(-4.34428e-05 0.000198836 0.00048627)
(-0.00245736 0.000227766 0.000671899)
(-0.00195155 0.000213127 0.000708808)
(-0.00151249 0.000190414 0.000702727)
(-0.00114722 0.000164847 0.000670396)
(-0.000849726 0.000140091 0.00062673)
(-0.000614888 0.000117841 0.000579727)
(-0.000425321 0.000100121 0.000539118)
(-0.000276604 8.45433e-05 0.000504336)
(-0.000149833 7.35893e-05 0.000483546)
(-4.22805e-05 5.79185e-05 0.000459676)
(-0.000410149 0.000994149 0.00689843)
(0.000567937 0.000720107 0.00542263)
(0.0009277 0.000495539 0.00409431)
(0.000965523 0.000335331 0.00304502)
(0.00084506 0.000230292 0.00227709)
(0.0006617 0.000163232 0.00174201)
(0.000460849 0.000122229 0.00138916)
(0.000257298 9.14933e-05 0.00117834)
(8.16847e-05 6.62182e-05 0.0010713)
(-0.000768477 0.00186751 0.00565859)
(0.000189764 0.00145792 0.00463459)
(0.000636633 0.00108495 0.00364229)
(0.000771402 0.000789204 0.00280035)
(0.000728839 0.000575875 0.00215088)
(0.000601962 0.000427763 0.00168069)
(0.000439549 0.00033138 0.00136313)
(0.00026484 0.000261243 0.00117141)
(9.37591e-05 0.00021586 0.00107491)
(-0.00100171 0.00211775 0.00485589)
(-9.19175e-05 0.00175219 0.00405017)
(0.000378133 0.00138421 0.00323457)
(0.000559521 0.0010628 0.00252841)
(0.000571707 0.000810789 0.00197354)
(0.000497544 0.000622864 0.00156701)
(0.000379206 0.00049427 0.00128799)
(0.000242882 0.00040145 0.0011172)
(9.52374e-05 0.000354197 0.00102249)
(-0.00123784 0.00221059 0.00396146)
(-0.000410066 0.00190009 0.00336415)
(6.73751e-05 0.00154978 0.0027437)
(0.000296848 0.00122473 0.00219536)
(0.000368808 0.000957641 0.00175245)
(0.000352162 0.000751444 0.00142064)
(0.000281939 0.00060919 0.00118804)
(0.00018758 0.000503824 0.00104605)
(7.64899e-05 0.000482079 0.000963732)
(-0.00136232 0.00215331 0.00333744)
(-0.000633163 0.00188421 0.00283694)
(-0.000185789 0.00157025 0.00233164)
(5.93196e-05 0.00126968 0.00189016)
(0.000169127 0.00101411 0.00153377)
(0.000200152 0.000810333 0.00126534)
(0.000172908 0.000667588 0.00107216)
(0.000130639 0.000554929 0.000960054)
(3.62901e-05 0.000539186 0.000839617)
(-0.00154189 0.00207131 0.00264225)
(-0.000880539 0.00181351 0.00228951)
(-0.000444343 0.00152151 0.00192186)
(-0.000176894 0.00124363 0.001592)
(-3.11816e-05 0.00100565 0.001319)
(4.19008e-05 0.00081425 0.0011124)
(5.00104e-05 0.000677262 0.000960425)
(4.94651e-05 0.000568917 0.000895958)
(-2.66351e-06 0.000534545 0.000783595)
(-0.00166929 0.00184635 0.00208426)
(-0.0010764 0.00163143 0.00183565)
(-0.000661155 0.00138473 0.00157041)
(-0.000383015 0.00114633 0.00132811)
(-0.000210535 0.000938292 0.0011237)
(-0.000102301 0.000770409 0.000969259)
(-6.12313e-05 0.000646057 0.00085181)
(-2.28878e-05 0.000550168 0.000827837)
(-4.0013e-05 0.000503458 0.000719808)
(-0.0017853 0.00157909 0.00160197)
(-0.00124447 0.00140014 0.00144879)
(-0.000844056 0.00119672 0.00127165)
(-0.000557362 0.00100017 0.00110223)
(-0.000363657 0.000827494 0.000954689)
(-0.000228457 0.000691279 0.00084355)
(-0.000162317 0.00058749 0.000758414)
(-9.31201e-05 0.000540326 0.000777207)
(-7.66902e-05 0.000475267 0.000698838)
(-0.00186664 0.00125568 0.00123336)
(-0.00136964 0.00112107 0.00114797)
(-0.00098328 0.000965881 0.00103545)
(-0.000691209 0.000814506 0.000920438)
(-0.000478592 0.000680194 0.000815552)
(-0.000319677 0.000575611 0.000732192)
(-0.000209721 0.000493444 0.000665484)
(-0.00011313 0.000471811 0.00063488)
(-2.82707e-05 0.000406968 0.000578897)
(-0.0024707 0.00096658 0.000950288)
(-0.00192071 0.000911016 0.000966228)
(-0.00145667 0.000817371 0.000927655)
(-0.0010821 0.000708612 0.000860481)
(-0.000787536 0.000601654 0.000784437)
(-0.000563118 0.00050561 0.000710819)
(-0.000389058 0.000429218 0.000650425)
(-0.00026011 0.000366872 0.000601738)
(-0.000147862 0.000333694 0.000580125)
(-4.07429e-05 0.000291038 0.000551899)
(-0.00246038 0.000577607 0.000752772)
(-0.00195084 0.000546454 0.000791362)
(-0.00151001 0.00049269 0.0007817)
(-0.00114426 0.000429638 0.000743213)
(-0.000848086 0.000367268 0.000692275)
(-0.000614794 0.000310938 0.00063872)
(-0.000428444 0.000266284 0.000592458)
(-0.00028227 0.000229234 0.000553581)
(-0.000157968 0.000210628 0.000530371)
(-4.77176e-05 0.000183189 0.000504075)
(-0.00242299 0.000198287 0.00064429)
(-0.00194142 0.000187645 0.00069317)
(-0.00151865 0.000169466 0.000697539)
(-0.00116256 0.00014819 0.000673386)
(-0.000868965 0.000127125 0.000635618)
(-0.00063388 0.000107929 0.000592556)
(-0.000441871 9.24382e-05 0.000554529)
(-0.000288654 7.87155e-05 0.000521118)
(-0.000157072 6.85631e-05 0.000501291)
(-4.52854e-05 5.43731e-05 0.000476721)
(-0.000869876 0.000707579 0.00568665)
(3.4739e-05 0.00053429 0.00463568)
(0.000459217 0.00038391 0.00362497)
(0.000596541 0.000270631 0.00278128)
(0.000574141 0.000192937 0.00213665)
(0.000473456 0.000141072 0.00167241)
(0.000339406 0.000108288 0.001359)
(0.000191033 8.26121e-05 0.00116915)
(6.05696e-05 6.0848e-05 0.00107023)
(-0.00108626 0.00142663 0.00486418)
(-0.000205534 0.00114817 0.00409249)
(0.000265826 0.000881144 0.00329805)
(0.000462255 0.000659951 0.00259692)
(0.000491148 0.000494242 0.00203769)
(0.000430278 0.000375268 0.00162308)
(0.000324808 0.000295823 0.00133794)
(0.000199028 0.000236498 0.00116434)
(7.13224e-05 0.000196539 0.00107524)
(-0.00124597 0.00171575 0.00423645)
(-0.000409025 0.00144816 0.00361803)
(7.00293e-05 0.00116647 0.00295558)
(0.000296961 0.000913357 0.00236124)
(0.000365559 0.000709411 0.00188024)
(0.000345389 0.000553819 0.00151983)
(0.000275091 0.000445548 0.00126835)
(0.000180479 0.000366571 0.00111389)
(7.20606e-05 0.000324793 0.00102675)
(-0.00141357 0.00184651 0.0035094)
(-0.000645084 0.00160728 0.00304834)
(-0.000168738 0.00133001 0.0025387)
(8.95319e-05 0.00106711 0.00207041)
(0.000201204 0.000846893 0.00168197)
(0.000225338 0.00067381 0.0013855)
(0.000193949 0.000552719 0.00117449)
(0.000134343 0.000463847 0.00104566)
(5.74224e-05 0.000436914 0.000968502)
(-0.0015107 0.00183381 0.00296091)
(-0.000823201 0.00162205 0.00258112)
(-0.000374798 0.00136828 0.00216961)
(-0.000106771 0.0011201 0.00179361)
(3.40402e-05 0.000905574 0.00148053)
(9.64896e-05 0.000732549 0.00124049)
(0.000101675 0.000609915 0.00106495)
(8.55843e-05 0.000516439 0.000963204)
(4.6539e-05 0.00049338 0.000857738)
(-0.00163933 0.00177227 0.00237223)
(-0.00101442 0.00157138 0.00210574)
(-0.000582611 0.00133532 0.001805)
(-0.000302028 0.00110496 0.00152252)
(-0.00013476 0.000903847 0.0012815)
(-3.84571e-05 0.000740479 0.00109609)
(-1.85153e-06 0.000622125 0.000956867)
(1.89767e-05 0.000532887 0.000891787)
(2.5019e-05 0.000499946 0.000791224)
(-0.0017332 0.0015957 0.00188722)
(-0.00117012 0.00142644 0.0017024)
(-0.000760654 0.00122476 0.0014865)
(-0.000475078 0.00102514 0.00127915)
(-0.000287672 0.000847953 0.00109851)
(-0.000162893 0.000703563 0.000959481)
(-9.69193e-05 0.000595456 0.000851445)
(-4.09823e-05 0.000515876 0.000815428)
(4.97006e-06 0.000475728 0.000715343)
(-0.00181762 0.00137197 0.00146845)
(-0.00130321 0.00123089 0.00135792)
(-0.000911187 0.00106397 0.00121452)
(-0.000622157 0.00089855 0.00106961)
(-0.000418943 0.00075065 0.000939174)
(-0.000272162 0.000632062 0.000838733)
(-0.000183497 0.000540749 0.000759799)
(-0.000100112 0.000493281 0.000754837)
(-1.82169e-05 0.000445632 0.00067513)
(-0.00187752 0.00109759 0.0011441)
(-0.0014034 0.000990549 0.00108733)
(-0.00102669 0.000862382 0.000997892)
(-0.000735792 0.000734342 0.000900035)
(-0.000518545 0.000618786 0.000807369)
(-0.000352779 0.00052691 0.000732279)
(-0.000232072 0.000453966 0.00067111)
(-0.000127151 0.000425182 0.000641418)
(-3.1481e-05 0.000379145 0.000592168)
(-0.00243467 0.000839372 0.000870841)
(-0.0019172 0.000799145 0.000907521)
(-0.00147341 0.000724448 0.000888218)
(-0.00110908 0.000634366 0.00083692)
(-0.000817761 0.0005437 0.000772931)
(-0.000591452 0.000460968 0.000708049)
(-0.000413058 0.000394033 0.000653598)
(-0.000276502 0.000339 0.000608843)
(-0.000158081 0.000307475 0.000588151)
(-4.64295e-05 0.000272712 0.000559933)
(-0.00242137 0.000502126 0.000698652)
(-0.00193912 0.000479833 0.00075197)
(-0.00151655 0.000437046 0.000756018)
(-0.00116114 0.000384872 0.000728987)
(-0.000869384 0.000332072 0.000686868)
(-0.00063598 0.000283647 0.000639774)
(-0.000447085 0.000244548 0.000597977)
(-0.000296138 0.000211784 0.000562093)
(-0.000166962 0.000193181 0.000540498)
(-5.18119e-05 0.00016853 0.000514951)
(-0.00238356 0.000172049 0.00060273)
(-0.00192635 0.000164538 0.000663482)
(-0.00152054 0.000150141 0.000678899)
(-0.00117454 0.000132591 0.000664018)
(-0.000885765 0.000114826 0.000633406)
(-0.000651195 9.84292e-05 0.000595569)
(-0.000457352 8.49921e-05 0.000561132)
(-0.000300081 7.3033e-05 0.000530021)
(-0.000164029 6.36454e-05 0.000511376)
(-4.82288e-05 5.07888e-05 0.000486854)
(-0.00118333 0.000513071 0.00470973)
(-0.000357731 0.00040239 0.00396714)
(9.37764e-05 0.000300361 0.0031984)
(0.000295234 0.000219901 0.00252452)
(0.000344622 0.000162145 0.00198828)
(0.00030948 0.000121997 0.0015901)
(0.000231588 9.5753e-05 0.00131535)
(0.00013157 7.44141e-05 0.00114665)
(4.15073e-05 5.58312e-05 0.00105644)
(-0.00131418 0.00110127 0.0041619)
(-0.000511105 0.000911137 0.00359183)
(-3.54557e-05 0.000718597 0.00296319)
(0.000202222 0.000552665 0.00238632)
(0.000285272 0.000423915 0.0019114)
(0.00027825 0.000328542 0.00155097)
(0.000221599 0.000263286 0.00129866)
(0.000139336 0.000213536 0.00114377)
(5.08598e-05 0.000178766 0.00106268)
(-0.00142257 0.00139224 0.00366919)
(-0.000658155 0.00119697 0.00320617)
(-0.000183599 0.000982118 0.00267719)
(7.36088e-05 0.000783025 0.00218383)
(0.000185352 0.000618716 0.00177289)
(0.000209451 0.000490591 0.00145806)
(0.000180731 0.000399992 0.00123487)
(0.000123631 0.000333411 0.00109701)
(5.09741e-05 0.000296937 0.00101849)
(-0.00153913 0.00153856 0.00308299)
(-0.000831837 0.00135604 0.0027365)
(-0.000366166 0.00113815 0.00232563)
(-8.97794e-05 0.000926683 0.00193211)
(5.27065e-05 0.000745966 0.00159658)
(0.000110674 0.000601639 0.00133588)
(0.000113194 0.000499185 0.00114754)
(8.50295e-05 0.000424477 0.00103197)
(3.89279e-05 0.00039669 0.000962107)
(-0.00161308 0.00155624 0.00260803)
(-0.000972482 0.00139111 0.00232798)
(-0.000532258 0.00118739 0.00199897)
(-0.000250729 0.000983956 0.00168408)
(-8.63889e-05 0.000805014 0.00141327)
(2.07612e-06 0.000659135 0.0012018)
(3.51347e-05 0.000554322 0.00104476)
(4.27933e-05 0.000476635 0.000952015)
(3.16262e-05 0.000451853 0.000868001)
(-0.00170451 0.00151297 0.0021119)
(-0.00111972 0.00135721 0.00191784)
(-0.000698601 0.00116734 0.00167715)
(-0.000411294 0.000977466 0.00143972)
(-0.000227772 0.000808629 0.00123066)
(-0.000112404 0.000670056 0.00106675)
(-5.20735e-05 0.000568394 0.000941548)
(-1.23415e-05 0.000494508 0.000878053)
(1.48076e-05 0.000464979 0.000801297)
(-0.0017733 0.00137514 0.00169269)