/*--------------------------------*- C++ -*----------------------------------*\
| =========                 |                                                 |
| \\      /  F ield         | OpenFOAM: The Open Source CFD Toolbox           |
|  \\    /   O peration     | Version:  2.3.1                                 |
|   \\  /    A nd           | Web:      www.OpenFOAM.org                      |
|    \\/     M anipulation  |                                                 |
\*---------------------------------------------------------------------------*/
FoamFile
{
    version     2.0;
    format      ascii;
    class       volVectorField;
    location    "15";
    object      U_0;
}
// * * * * * * * * * * * * * * * * * * * * * * * * * * * * * * * * * * * * * //

dimensions      [0 1 -1 0 0 0 0];

internalField   nonuniform List<vector> 
37784
(
(-0.00120942 0.00302956 0.000182731)
(-0.000736704 0.00237593 0.000137203)
(-0.00043477 0.00184229 0.000104427)
(-0.000240282 0.00142537 8.14031e-05)
(-0.000128608 0.00110418 6.51183e-05)
(-5.69435e-05 0.000876938 5.35821e-05)
(-3.55366e-05 0.000704619 4.58238e-05)
(-1.8373e-05 0.000664326 3.75136e-05)
(-6.40272e-06 0.000559832 2.86389e-05)
(-0.00240076 0.00232776 0.000148206)
(-0.00167405 0.00194032 0.000120632)
(-0.00114795 0.00156678 9.73915e-05)
(-0.000774825 0.00124134 7.8861e-05)
(-0.000510273 0.000976249 6.47236e-05)
(-0.000335921 0.000766201 5.3766e-05)
(-0.000212014 0.00061374 4.61654e-05)
(-0.0001465 0.000498295 3.99454e-05)
(-9.05969e-05 0.000441565 3.42294e-05)
(-1.99482e-05 0.000391722 2.38328e-05)
(-0.0025692 0.00114187 8.50016e-05)
(-0.00189322 0.000988384 7.47476e-05)
(-0.00136391 0.000819697 6.43547e-05)
(-0.000964878 0.000662433 5.49644e-05)
(-0.000667268 0.000529168 4.71327e-05)
(-0.000454929 0.000420747 4.08959e-05)
(-0.000298852 0.000344145 3.62678e-05)
(-0.00019142 0.000285753 3.29997e-05)
(-0.000111285 0.000270656 2.9744e-05)
(-3.39621e-05 0.000252346 2.4436e-05)
(-0.00258862 0.000308241 1.38573e-05)
(-0.00195071 0.000273385 1.88564e-05)
(-0.00143355 0.000230238 2.10473e-05)
(-0.00103283 0.00018795 2.15272e-05)
(-0.000727161 0.00015106 2.11617e-05)
(-0.000503565 0.000120521 2.0397e-05)
(-0.000335359 9.77109e-05 1.98995e-05)
(-0.000214789 8.13674e-05 1.98758e-05)
(-0.000119886 7.32276e-05 2.09871e-05)
(-3.46025e-05 7.35063e-05 2.29565e-05)
(-0.00123027 0.00310227 0.000521434)
(-0.000742393 0.00244003 0.000392984)
(-0.000431116 0.00189538 0.000300429)
(-0.000232492 0.00146784 0.000234954)
(-0.000118445 0.0011385 0.000188133)
(-4.6757e-05 0.000903558 0.000154641)
(-2.37205e-05 0.000730888 0.000131169)
(-1.97705e-06 0.000678764 0.000108612)
(3.45948e-06 0.000580834 8.27677e-05)
(-0.00243273 0.00242726 0.000418669)
(-0.00168995 0.00202589 0.000342374)
(-0.00115283 0.00163778 0.000277496)
(-0.00077272 0.00129883 0.000225372)
(-0.000504986 0.00102209 0.000185193)
(-0.000328199 0.000803015 0.000154137)
(-0.000204234 0.000643381 0.000131798)
(-0.000135449 0.000523562 0.000114069)
(-7.70723e-05 0.000462751 9.85664e-05)
(-1.21906e-05 0.000406678 7.43727e-05)
(-0.00260485 0.00126609 0.000244888)
(-0.00191309 0.00109021 0.000216768)
(-0.00137292 0.000901598 0.000187566)
(-0.000966729 0.000727656 0.000160827)
(-0.000665228 0.000580854 0.0001383)
(-0.000450753 0.000462153 0.000120024)
(-0.000293984 0.000376944 0.000106247)
(-0.000185967 0.000312539 9.60532e-05)
(-0.000103242 0.000289227 8.72591e-05)
(-2.83665e-05 0.000261653 7.41551e-05)
(-0.00262939 0.000393354 7.89452e-05)
(-0.00197511 0.000342521 8.67724e-05)
(-0.00144652 0.000285554 8.72632e-05)
(-0.00103814 0.000231913 8.37699e-05)
(-0.000727815 0.000186047 7.88045e-05)
(-0.000501647 0.00014852 7.3526e-05)
(-0.000332376 0.000120516 6.96368e-05)
(-0.000211613 9.9663e-05 6.74153e-05)
(-0.000116451 8.75036e-05 6.80809e-05)
(-3.22199e-05 7.90387e-05 7.00127e-05)
(-0.00128348 0.00301961 0.000825213)
(-0.000777653 0.00239587 0.000630128)
(-0.000453239 0.00187212 0.00048667)
(-0.000246257 0.00145577 0.000383347)
(-0.000125843 0.00113314 0.000308436)
(-5.01555e-05 0.000901579 0.000254244)
(-2.21461e-05 0.000733301 0.000215479)
(5.12428e-06 0.000678303 0.000180702)
(1.24973e-05 0.000584692 0.000149887)
(-0.0024449 0.00239026 0.000658896)
(-0.00170116 0.00201009 0.000546008)
(-0.00116085 0.00163404 0.000446903)
(-0.000777684 0.0013014 0.000365667)
(-0.000508086 0.00102746 0.000301941)
(-0.000329004 0.000809673 0.00025245)
(-0.000203772 0.000650122 0.000215924)
(-0.000131542 0.00053039 0.000187621)
(-7.02276e-05 0.000467773 0.000163689)
(-6.90383e-06 0.000407243 0.000135191)
(-0.00259597 0.00130319 0.000398888)
(-0.00190749 0.0011239 0.000356851)
(-0.00136912 0.000931198 0.000311201)
(-0.000963829 0.000753109 0.000268448)
(-0.000663106 0.000602352 0.000231846)
(-0.000448839 0.000480359 0.000201694)
(-0.000292097 0.000391766 0.000178603)
(-0.000183336 0.000324622 0.000161307)
(-9.84297e-05 0.000296426 0.000147588)
(-2.42604e-05 0.00026261 0.000131995)
(-0.00261043 0.000434437 0.00018961)
(-0.00196194 0.000376426 0.00019334)
(-0.00143768 0.000313291 0.000185635)
(-0.00103226 0.000254537 0.000172549)
(-0.000723945 0.000204507 0.000158296)
(-0.000498952 0.000163644 0.000144777)
(-0.000330197 0.00013298 0.00013435)
(-0.000209444 0.000109432 0.000127309)
(-0.000113497 9.43163e-05 0.000124743)
(-3.00333e-05 7.96596e-05 0.000124045)
(-0.00135966 0.00287488 0.00106232)
(-0.000834177 0.00230787 0.000826966)
(-0.000493393 0.00181842 0.000647663)
(-0.000274418 0.00142255 0.000515079)
(-0.000144654 0.00111284 0.000417204)
(-6.23109e-05 0.000889339 0.000345498)
(-2.81405e-05 0.000727217 0.000293525)
(4.51313e-06 0.000674676 0.000248731)
(1.5163e-05 0.000583645 0.000214926)
(-0.00246411 0.00229065 0.000845172)
(-0.00172411 0.00194717 0.000713986)
(-0.0011814 0.00159582 0.000592594)
(-0.00079427 0.00127903 0.000489826)
(-0.00052106 0.0010148 0.000407371)
(-0.000338098 0.000803116 0.000342522)
(-0.000209877 0.000647104 0.00029383)
(-0.000133775 0.000529543 0.000256409)
(-6.9344e-05 0.000467166 0.000225802)
(-5.49192e-06 0.000404156 0.000194981)
(-0.00258793 0.00128662 0.000531139)
(-0.00190751 0.00111586 0.000481983)
(-0.00137286 0.000929108 0.000424613)
(-0.000968761 0.000754695 0.000368992)
(-0.000668161 0.000605877 0.000320283)
(-0.000453082 0.000484839 0.000279481)
(-0.000295158 0.000396103 0.000247806)
(-0.0001847 0.000328439 0.000223809)
(-9.74999e-05 0.000298086 0.000205675)
(-2.29007e-05 0.000261453 0.000188149)
(-0.00259149 0.000442307 0.000304263)
(-0.00195293 0.000384199 0.000303832)
(-0.00143488 0.000320804 0.000287637)
(-0.00103287 0.000261589 0.000264501)
(-0.000726171 0.000210905 0.000240426)
(-0.000501456 0.000169318 0.000218071)
(-0.000332092 0.000137892 0.00020047)
(-0.000210183 0.000113168 0.000187759)
(-0.000112631 9.66082e-05 0.000181057)
(-2.90788e-05 7.89579e-05 0.000176407)
(-0.00144844 0.00268881 0.00123757)
(-0.000905227 0.00218797 0.000984448)
(-0.000547153 0.00174138 0.000783396)
(-0.000314092 0.00137265 0.000630151)
(-0.000172951 0.00108048 0.000514679)
(-8.2068e-05 0.000868585 0.000429004)
(-4.09051e-05 0.000714293 0.000366266)
(-2.35442e-06 0.000668093 0.000314102)
(1.27005e-05 0.00057999 0.000280195)
(-0.00248716 0.00214726 0.000982455)
(-0.00175582 0.00184907 0.000848031)
(-0.00121217 0.00153074 0.000715211)
(-0.000820706 0.00123667 0.000598299)
(-0.000542617 0.000987417 0.000501984)
(-0.000354474 0.000785636 0.000424965)
(-0.000221885 0.000635972 0.000366322)
(-0.000141342 0.000522407 0.000321442)
(-7.32092e-05 0.000462175 0.00028606)
(-6.86051e-06 0.000397666 0.000255082)
(-0.00258226 0.00123153 0.000641632)
(-0.00191356 0.00107714 0.000591423)
(-0.00138404 0.000903352 0.000527062)
(-0.000981177 0.000738285 0.000461952)
(-0.000679978 0.000595781 0.000403394)
(-0.000463073 0.000478918 0.000353467)
(-0.00030286 0.000392539 0.000314229)
(-0.000189809 0.000326156 0.000284269)
(-9.97607e-05 0.000295761 0.000262531)
(-2.34575e-05 0.000258352 0.000244166)
(-0.00257577 0.000428641 0.000416723)
(-0.00194972 0.000374774 0.000413124)
(-0.00143885 0.000314893 0.000389292)
(-0.00104013 0.00025823 0.000356667)
(-0.000734375 0.000209212 0.000323047)
(-0.000508967 0.000168655 0.00029192)
(-0.00033794 0.000137783 0.000267025)
(-0.000213883 0.000113006 0.000248387)
(-0.00011387 9.6131e-05 0.000237326)
(-2.91486e-05 7.72406e-05 0.000228743)
(-0.00153881 0.00247918 0.001352)
(-0.00098332 0.00204646 0.00110054)
(-0.000609657 0.00164685 0.000891159)
(-0.000362229 0.00130942 0.000726131)
(-0.000208762 0.00103806 0.000598867)
(-0.000108175 0.000840368 0.000503316)
(-5.93656e-05 0.000695338 0.000432601)
(-1.43042e-05 0.000658329 0.000375799)
(6.17968e-06 0.00057428 0.000341937)
(-0.0025084 0.0019779 0.00107133)
(-0.00179125 0.00172711 0.000946379)
(-0.00124938 0.00144583 0.000812319)
(-0.00085433 0.00117869 0.000688716)
(-0.000570968 0.000948072 0.000583751)
(-0.000376876 0.000759064 0.000498121)
(-0.000238938 0.000617935 0.000432149)
(-0.000153347 0.0005099 0.000381665)
(-8.07734e-05 0.000453374 0.000343433)
(-1.01166e-05 0.000388077 0.000312913)
(-0.00257669 0.00115113 0.000726361)
(-0.0019233 0.00101712 0.000680928)
(-0.00140071 0.000860517 0.000614637)
(-0.000999563 0.00070856 0.000543939)
(-0.000697444 0.000575436 0.000478366)
(-0.000478011 0.000465106 0.000421348)
(-0.000314662 0.000382959 0.000376012)
(-0.000198233 0.000319261 0.000341107)
(-0.000104629 0.000290355 0.000316601)
(-2.52849e-05 0.000253369 0.000297393)
(-0.00256141 0.00040214 0.000513703)
(-0.00195047 0.00035483 0.0005101)
(-0.001448 0.000300609 0.00048152)
(-0.00105283 0.000248284 0.00044171)
(-0.00074764 0.000202374 0.00040026)
(-0.000520839 0.00016397 0.000361557)
(-0.000347351 0.000134536 0.000330196)
(-0.000220339 0.000110489 0.000306091)
(-0.000117104 9.40527e-05 0.000291105)
(-3.00884e-05 7.48016e-05 0.00027874)
(-0.00162337 0.00225915 0.0014142)
(-0.00106268 0.00189184 0.00117842)
(-0.000676757 0.00154009 0.000971646)
(-0.000416033 0.00123597 0.000802761)
(-0.000250159 0.000987599 0.000669237)
(-0.000139257 0.000805734 0.000567929)
(-8.2207e-05 0.000671117 0.000492074)
(-3.00066e-05 0.000645013 0.000433433)
(-3.60318e-06 0.000566344 0.000398889)
(-0.00252384 0.00179623 0.00111843)
(-0.0018263 0.00159079 0.00101166)
(-0.00128967 0.00134742 0.000884454)
(-0.000892605 0.00110922 0.00076066)
(-0.000604311 0.000899478 0.000651926)
(-0.000403983 0.00072522 0.000561224)
(-0.000260055 0.000594179 0.000490629)
(-0.000168786 0.000492863 0.000436455)
(-9.09676e-05 0.000441134 0.000397349)
(-1.46313e-05 0.000375734 0.000367637)
(-0.00256909 0.00105602 0.000785337)
(-0.00193438 0.00094356 0.000749248)
(-0.00142077 0.000806153 0.000685579)
(-0.00102224 0.000669454 0.000613123)
(-0.000719299 0.000547653 0.000543532)
(-0.000496959 0.000445464 0.000481685)
(-0.000329883 0.000368849 0.00043196)
(-0.000209391 0.000308858 0.000393306)
(-0.000111502 0.000282391 0.000366958)
(-2.79881e-05 0.000246518 0.000346708)
(-0.00254669 0.000368639 0.000590246)
(-0.00195327 0.000328786 0.000589906)
(-0.00146064 0.000281234 0.000559937)
(-0.00106954 0.000234206 0.000515854)
(-0.000764893 0.000192251 0.000468905)
(-0.000536287 0.000156702 0.000424381)
(-0.000359778 0.000129278 0.000387878)
(-0.000229149 0.000106494 0.000359201)
(-0.000121986 9.09603e-05 0.000341095)
(-3.17297e-05 7.18189e-05 0.000325394)
(-0.00169761 0.00203841 0.00143308)
(-0.00113901 0.00173111 0.00122221)
(-0.000744993 0.00142581 0.00102639)
(-0.00047293 0.00115541 0.000860297)
(-0.000295216 0.000931036 0.000725551)
(-0.000173844 0.000765673 0.000622345)
(-0.000107958 0.000642345 0.000544146)
(-4.8038e-05 0.000627513 0.00048657)
(-1.58662e-05 0.000555294 0.000449729)
(-0.00253114 0.00161247 0.00113058)
(-0.00185794 0.0014479 0.00104714)
(-0.00133016 0.00124108 0.000932754)
(-0.000933177 0.00103212 0.000814136)
(-0.000640844 0.000844258 0.000705995)
(-0.000434402 0.000685892 0.000613581)
(-0.000284148 0.000565871 0.000541006)
(-0.000186562 0.000472091 0.000485027)
(-0.000102743 0.000425715 0.000447053)
(-1.99172e-05 0.000361135 0.000418388)
(-0.00255781 0.000954364 0.000819497)
(-0.0019447 0.00086271 0.000796043)
(-0.00144219 0.00074485 0.000738833)
(-0.0010475 0.000624263 0.000668165)
(-0.000744178 0.000514791 0.00059753)
(-0.000518859 0.000421702 0.000533207)
(-0.000347719 0.000351407 0.000480916)
(-0.000222607 0.000295782 0.000439798)
(-0.000119822 0.000272138 0.000412562)
(-3.13159e-05 0.000237748 0.000390954)
(-0.00252995 0.000332169 0.000643786)
(-0.00195621 0.000299744 0.000649762)
(-0.00147492 0.000259083 0.000621807)
(-0.00108873 0.000217726 0.000576577)
(-0.000784905 0.000180136 0.000526755)
(-0.000554365 0.000147833 0.000478484)
(-0.000374524 0.000122753 0.000438463)
(-0.000239764 0.000101574 0.000406372)
(-0.000128106 8.71964e-05 0.00038615)
(-3.39111e-05 6.84856e-05 0.000367611)
(-0.0017593 0.0018238 0.00141736)
(-0.00120934 0.00156986 0.00123658)
(-0.000811586 0.00130809 0.00105758)
(-0.000530639 0.00107058 0.000899547)
(-0.000342105 0.00087026 0.000767885)
(-0.00021044 0.000721432 0.000666197)
(-0.000135002 0.000609466 0.000588246)
(-6.67928e-05 0.000604488 0.000534936)
(-2.92613e-05 0.000539025 0.00049331)
(-0.00252928 0.00143374 0.00111444)
(-0.0018841 0.00130454 0.00105662)
(-0.00136855 0.0011315 0.000959007)
(-0.000973961 0.000950832 0.000849717)
(-0.00067885 0.000784845 0.000745857)
(-0.000466735 0.000642778 0.000654756)
(-0.000310081 0.000534152 0.000582614)
(-0.000205527 0.000448332 0.000526592)
(-0.00011504 0.000407223 0.000491716)
(-2.55214e-05 0.000344871 0.000464387)
(-0.0025417 0.00085219 0.000830777)
(-0.00195255 0.000779468 0.000822027)
(-0.00146315 0.00068032 0.000774256)
(-0.00107366 0.000575719 0.000708448)
(-0.000770695 0.000478836 0.000639526)
(-0.000542597 0.000395262 0.000575014)
(-0.000367297 0.000331627 0.000521961)
(-0.000237147 0.000280704 0.000479675)
(-0.000129054 0.000259699 0.000452491)
(-3.50896e-05 0.000226935 0.000429291)
(-0.00250987 0.000295473 0.000674214)
(-0.0019576 0.000269888 0.00068896)
(-0.00148913 0.000235831 0.00066604)
(-0.00110886 0.000200105 0.000622644)
(-0.000806404 0.000166972 0.000572566)
(-0.000574062 0.000138072 0.000522707)
(-0.000390813 0.000115481 0.000480888)
(-0.000251568 9.61062e-05 0.000446655)
(-0.000135026 8.29665e-05 0.000425367)
(-3.64799e-05 6.49738e-05 0.000404524)
(-0.00180767 0.00161996 0.00137472)
(-0.00127174 0.00141241 0.00122617)
(-0.000874374 0.00119039 0.00106773)
(-0.00058719 0.000984036 0.000921674)
(-0.000389145 0.000807079 0.000796562)
(-0.00024764 0.000674169 0.000699214)
(-0.00016171 0.000573007 0.000623683)
(-8.45679e-05 0.000573316 0.000577958)
(-4.05743e-05 0.000510477 0.000529832)
(-0.0025181 0.00126479 0.00107589)
(-0.0019035 0.00116528 0.00104394)
(-0.00140307 0.00102252 0.000965354)
(-0.00101317 0.000868279 0.000868389)
(-0.000716751 0.000723399 0.000771771)
(-0.00049965 0.000597435 0.000684566)
(-0.000336759 0.000500097 0.000614913)
(-0.000224576 0.000422319 0.000560347)
(-0.000126899 0.000385596 0.000530218)
(-3.09695e-05 0.000327611 0.000504743)
(-0.00252006 0.000753719 0.000821637)
(-0.0019566 0.000697464 0.000828621)
(-0.00148208 0.000615451 0.000792412)
(-0.00109922 0.000526021 0.000733966)
(-0.000797525 0.000441422 0.000669174)
(-0.000567077 0.000367344 0.000606577)
(-0.000387744 0.000310352 0.000554427)
(-0.000252295 0.000264197 0.000512209)
(-0.000138718 0.000245105 0.000485912)
(-3.91716e-05 0.00021395 0.000461165)
(-0.00248551 0.000260321 0.00068289)
(-0.00195606 0.000240691 0.000708151)
(-0.00150177 0.00021266 0.000692715)
(-0.00112852 0.00018225 0.000653763)
(-0.000828179 0.000153442 0.000605838)
(-0.000594387 0.000127934 0.000556463)
(-0.000407873 0.00010783 0.000514501)
(-0.000263951 9.03513e-05 0.000479397)
(-0.000142342 7.8391e-05 0.000457992)
(-3.93004e-05 6.14251e-05 0.0004354)
(0.000256071 0.00142326 0.00841769)
(0.00129103 0.000983114 0.00634541)
(0.00152642 0.000644726 0.00460213)
(0.00141337 0.000417402 0.00330666)
(0.00116094 0.000275253 0.00240167)
(0.000874583 0.00018869 0.00179306)
(0.000595383 0.000137572 0.00140199)
(0.000329822 0.000100983 0.00117149)
(0.000104607 7.18465e-05 0.00105748)
(-0.000336627 0.00246594 0.00653961)
(0.000695177 0.00186345 0.00520644)
(0.00108817 0.0013392 0.00398122)
(0.00113365 0.000943503 0.00298549)
(0.000998929 0.000669377 0.00224274)
(0.0007925 0.00048579 0.00171833)
(0.000564787 0.000369539 0.00137057)
(0.000335979 0.000287523 0.00116231)
(0.00011783 0.000236213 0.00105951)
(-0.000672711 0.00261155 0.00551224)
(0.000305647 0.00211661 0.00448849)
(0.000747323 0.00163754 0.00350024)
(0.000863606 0.0012315 0.00267515)
(0.000803685 0.000922074 0.00204571)
(0.000664841 0.000696783 0.00159475)
(0.000491947 0.000545233 0.00129048)
(0.000309865 0.000437437 0.00110412)
(0.000119835 0.00038377 0.00100369)
(-0.000997802 0.00263345 0.00442772)
(-0.000118541 0.002236 0.00367197)
(0.000345898 0.00179746 0.00293035)
(0.000533105 0.00139837 0.00229837)
(0.000554792 0.00107689 0.00180215)
(0.000489849 0.000833299 0.00143721)
(0.000375965 0.000667428 0.0011852)
(0.00024356 0.000544014 0.0010294)
(9.59493e-05 0.000524972 0.000946323)
(-0.0011527 0.00251533 0.00373202)
(-0.000394252 0.00217717 0.00308709)
(3.81588e-05 0.00179211 0.00247733)
(0.0002483 0.00143097 0.00196747)
(0.000318426 0.00112891 0.00156819)
(0.000311902 0.000890996 0.00127271)
(0.000247852 0.000725793 0.00106304)
(0.000175518 0.000589546 0.000925331)
(-0.00140217 0.00241305 0.00291668)
(-0.000712893 0.00208389 0.00246235)
(-0.000281741 0.00172477 0.00202145)
(-3.56649e-05 0.00139193 0.00164315)
(8.2375e-05 0.00111235 0.00133964)
(0.00012761 0.000889837 0.00111247)
(0.000101415 0.000732001 0.000948171)
(7.36728e-05 0.000596872 0.000859002)
(-0.00157499 0.0021285 0.00227893)
(-0.00095818 0.00185693 0.00195673)
(-0.00054406 0.00155702 0.00163836)
(-0.000279303 0.00127437 0.0013608)
(-0.000126251 0.00103208 0.0011338)
(-3.80984e-05 0.000838334 0.000963996)
(-2.95927e-05 0.000696256 0.000837409)
(-1.69897e-05 0.00057695 0.000792081)
(-0.00173348 0.0018106 0.001727)
(-0.00116958 0.00158486 0.00152623)
(-0.000765047 0.00133854 0.00131388)
(-0.000484494 0.00110671 0.00112036)
(-0.000303383 0.00090669 0.000956854)
(-0.000182369 0.000751389 0.000834775)
(-0.000148007 0.000634787 0.000742703)
(-0.000102538 0.000593807 0.00074604)
(-0.00184286 0.00142993 0.00131163)
(-0.00132504 0.00126195 0.00119531)
(-0.00093173 0.00107548 0.00105944)
(-0.000640946 0.000897956 0.00092806)
(-0.000434882 0.000743127 0.000812133)
(-0.000284238 0.000625013 0.000721188)
(-0.000186713 0.000533769 0.000649647)
(-9.97586e-05 0.000530067 0.000613592)
(-3.96628e-05 0.00045751 0.00055834)
(-0.00249796 0.00110854 0.00101987)
(-0.00191544 0.00103335 0.00101272)
(-0.00143244 0.000917036 0.000954106)
(-0.00104935 0.000786848 0.000871445)
(-0.000753166 0.000661753 0.000784308)
(-0.000531956 0.000551242 0.00070309)
(-0.000363223 0.000464721 0.000637517)
(-0.000242832 0.000394811 0.00058553)
(-0.000137589 0.000360786 0.000560768)
(-3.56392e-05 0.000309348 0.000534939)
(-0.0024926 0.00066167 0.000794781)
(-0.0019559 0.000619229 0.000817713)
(-0.00149773 0.000552376 0.000794402)
(-0.00112287 0.000476865 0.000745233)
(-0.000823468 0.00040385 0.00068657)
(-0.000591284 0.000338928 0.000627724)
(-0.000408248 0.000288308 0.000577922)
(-0.000267418 0.000246805 0.000536889)
(-0.000148397 0.000228496 0.000512081)
(-4.33996e-05 0.000198716 0.000486139)
(-0.00245629 0.00022775 0.000672079)
(-0.00195058 0.000213089 0.000708895)
(-0.00151164 0.000190363 0.000702742)
(-0.00114651 0.000164789 0.00067036)
(-0.000849147 0.000140031 0.000626659)
(-0.000614437 0.000117784 0.000579634)
(-0.00042499 0.000100067 0.000539011)
(-0.00027638 8.44937e-05 0.000504221)
(-0.00014971 7.35452e-05 0.000483426)
(-4.22432e-05 5.78855e-05 0.000459558)
(-0.000407471 0.00099296 0.00689402)
(0.000568861 0.000719165 0.00541861)
(0.000927775 0.000494885 0.00409114)
(0.000965222 0.000334904 0.00304268)
(0.000844667 0.000230017 0.00227541)
(0.000661345 0.000163053 0.00174078)
(0.000460586 0.000122106 0.00138823)
(0.000257147 9.14049e-05 0.00117759)
(8.16371e-05 6.61526e-05 0.00107064)
(-0.00076576 0.00186592 0.0056561)
(0.000191098 0.00145649 0.00463199)
(0.000637124 0.00108383 0.00363998)
(0.000771412 0.000788384 0.00279849)
(0.000728646 0.000575291 0.00214945)
(0.00060172 0.000427346 0.00167959)
(0.000439342 0.000331071 0.00136227)
(0.000264705 0.000261005 0.00117069)
(9.37109e-05 0.000215664 0.00107427)
(-0.000999206 0.00211637 0.00485415)
(-9.05244e-05 0.00175083 0.0040482)
(0.000378761 0.00138303 0.00323274)
(0.000559691 0.00106186 0.00252688)
(0.000571655 0.000810066 0.00197233)
(0.000497409 0.000622314 0.00156605)
(0.000379067 0.000493842 0.00128722)
(0.00024278 0.000401104 0.00111655)
(9.51965e-05 0.000353898 0.00102191)
(-0.00123556 0.00220951 0.00396057)
(-0.000408591 0.00189889 0.00336296)
(6.82105e-05 0.00154866 0.00274248)
(0.000297243 0.00122378 0.00219426)
(0.000368945 0.000956873 0.00175151)
(0.000352167 0.000750833 0.00141986)
(0.000281894 0.000608696 0.00118739)
(0.000187534 0.000503409 0.00104549)
(7.64678e-05 0.000481702 0.000963211)
(-0.00136036 0.0021526 0.00333677)
(-0.00063182 0.00188332 0.00283604)
(-0.000184953 0.00156933 0.00233072)
(5.97942e-05 0.00126885 0.00188931)
(0.000169369 0.0010134 0.00153304)
(0.000200258 0.000809736 0.00126472)
(0.000172939 0.000667087 0.00107163)
(0.000130639 0.0005545 0.000959589)
(3.62913e-05 0.000538788 0.000839195)
(-0.00154017 0.00207073 0.00264189)
(-0.00087927 0.00181276 0.00228896)
(-0.000443474 0.00152073 0.00192125)
(-0.000176335 0.0012429 0.0015914)
(-3.08421e-05 0.00100501 0.00131845)
(4.2097e-05 0.000813698 0.00111192)
(5.01198e-05 0.000676787 0.000959992)
(4.95213e-05 0.000568507 0.000895561)
(-2.63015e-06 0.000534167 0.00078322)
(-0.0016678 0.00184595 0.00208403)
(-0.00107526 0.00163088 0.00183528)
(-0.000660317 0.00138412 0.00156999)
(-0.000382427 0.00114573 0.00132769)
(-0.000210139 0.000937747 0.0011233)
(-0.000102042 0.000769925 0.000968887)
(-6.10641e-05 0.000645631 0.000851467)
(-2.27888e-05 0.000549792 0.000827502)
(-3.99519e-05 0.000503112 0.000719485)
(-0.00178399 0.00157878 0.00160188)
(-0.00124342 0.00139971 0.00144858)
(-0.000843245 0.00119625 0.00127137)
(-0.00055676 0.000999698 0.00110193)
(-0.000363224 0.000827048 0.000954397)
(-0.000228153 0.000690873 0.000843268)
(-0.000162106 0.000587121 0.000758141)
(-9.29873e-05 0.000539981 0.000776921)
(-7.66066e-05 0.000474946 0.000698545)
(-0.00186548 0.00125547 0.00123336)
(-0.00136867 0.00112076 0.00114786)
(-0.000982503 0.000965527 0.00103529)
(-0.000690607 0.000814145 0.000920241)
(-0.000478141 0.000679848 0.000815344)
(-0.000319352 0.000575289 0.000731983)
(-0.000209498 0.000493146 0.000665277)
(-0.000113 0.000471522 0.000634671)
(-2.82262e-05 0.000406702 0.000578704)
(-0.00246952 0.000966543 0.000950467)
(-0.00191965 0.000910871 0.000966281)
(-0.00145577 0.000817158 0.000927619)
(-0.00108135 0.000708366 0.000860386)
(-0.000786943 0.000601399 0.000784307)
(-0.000562661 0.000505363 0.00071067)
(-0.000388722 0.000428986 0.000650266)
(-0.000259877 0.000366656 0.000601575)
(-0.000147723 0.000333491 0.000579957)
(-4.06971e-05 0.000290857 0.000551734)
(-0.0024593 0.000577585 0.000752965)
(-0.00194985 0.000546369 0.000791449)
(-0.00150915 0.000492565 0.000781707)
(-0.00114354 0.000429492 0.000743163)
(-0.000847504 0.000367116 0.000692187)
(-0.000614341 0.000310788 0.000638609)
(-0.000428109 0.000266141 0.000592333)
(-0.000282039 0.000229101 0.000553449)
(-0.000157835 0.000210502 0.000530234)
(-4.76744e-05 0.00018308 0.000503944)
(-0.00242198 0.000198276 0.000644488)
(-0.00194049 0.000187613 0.000693274)
(-0.00151783 0.000169421 0.000697567)
(-0.00116186 0.000148139 0.00067336)
(-0.000868399 0.000127071 0.000635553)
(-0.000633438 0.000107877 0.000592466)
(-0.000441545 9.23885e-05 0.000554423)
(-0.000288434 7.86698e-05 0.000521003)
(-0.00015695 6.85225e-05 0.000501171)
(-4.52486e-05 5.43425e-05 0.000476603)
(-0.00086747 0.000706825 0.00568357)
(3.58485e-05 0.00053366 0.00463269)
(0.00045958 0.000383449 0.00362247)
(0.000596515 0.000270315 0.00277933)
(0.000573964 0.000192725 0.00213519)
(0.000473254 0.000140928 0.00167131)
(0.000339242 0.000108185 0.00135814)
(0.000190936 8.25356e-05 0.00116845)
(6.05388e-05 6.07899e-05 0.0010696)
(-0.00108385 0.00142554 0.00486231)
(-0.000204193 0.00114715 0.00409042)
(0.000266446 0.000880307 0.00329614)
(0.000462433 0.000659315 0.00259532)
(0.000491108 0.000493771 0.00203641)
(0.000430157 0.000374921 0.00162208)
(0.000324684 0.000295559 0.00133713)
(0.000198943 0.00023629 0.00116365)
(7.12908e-05 0.000196365 0.00107462)
(-0.00124374 0.00171474 0.00423511)
(-0.000407673 0.00144712 0.00361642)
(7.07336e-05 0.00116554 0.00295403)
(0.00029725 0.000912598 0.0023599)
(0.000365624 0.000708811 0.00187915)
(0.00034535 0.00055335 0.00151895)
(0.000275021 0.000445175 0.00126763)
(0.00018042 0.000366265 0.00111327)
(7.20349e-05 0.000324525 0.00102618)
(-0.00141152 0.00184567 0.0035087)
(-0.000643695 0.00160633 0.00304735)
(-0.000167896 0.0013291 0.00253763)
(8.99806e-05 0.00106632 0.00206942)
(0.000201408 0.000846244 0.00168111)
(0.000225406 0.000673282 0.00138478)
(0.000193954 0.000552284 0.00117387)
(0.000134327 0.000463477 0.00104512)
(5.74119e-05 0.000436576 0.000967995)
(-0.00150891 0.00183324 0.0029604)
(-0.000821927 0.00162131 0.00258037)
(-0.000373963 0.00136752 0.00216881)
(-0.000106262 0.00111939 0.00179286)
(3.43284e-05 0.000904958 0.00147986)
(9.66379e-05 0.000732025 0.00123991)
(0.000101741 0.000609469 0.00106444)
(8.56073e-05 0.000516051 0.000962747)
(4.65424e-05 0.000493019 0.000857321)
(-0.00163774 0.00177179 0.00237198)
(-0.00101322 0.00157075 0.00210528)
(-0.000581762 0.00133466 0.00180446)
(-0.000301461 0.00110434 0.00152198)
(-0.000134398 0.000903285 0.00128099)
(-3.82364e-05 0.000739989 0.00109563)
(-1.72287e-06 0.000621698 0.000956451)
(1.90433e-05 0.000532511 0.000891397)
(2.50392e-05 0.000499597 0.000790863)
(-0.00173182 0.00159537 0.00188708)
(-0.00116903 0.00142598 0.00170211)
(-0.000759837 0.00122424 0.00148613)
(-0.000474491 0.00102462 0.00127876)
(-0.000287265 0.00084747 0.00109814)
(-0.000162621 0.000703129 0.000959128)
(-9.67444e-05 0.000595069 0.000851114)
(-4.08833e-05 0.00051553 0.000815104)
(5.00323e-06 0.000475406 0.000715044)
(-0.00181639 0.00137171 0.00146842)
(-0.0013022 0.00123052 0.00135776)
(-0.0009104 0.00106355 0.00121429)
(-0.000621563 0.000898131 0.00106935)
(-0.000418509 0.000750252 0.000938903)
(-0.000271855 0.000631696 0.000838466)
(-0.000183287 0.000540413 0.000759537)
(-9.99864e-05 0.000492969 0.000754564)
(-1.81726e-05 0.000445339 0.000674871)
(-0.00187642 0.00109742 0.00114414)
(-0.00140247 0.000990282 0.00108725)
(-0.00102594 0.000862072 0.000997753)
(-0.000735202 0.000734021 0.000899858)
(-0.000518099 0.000618475 0.000807176)
(-0.000352455 0.000526618 0.00073208)
(-0.000231849 0.000453694 0.000670909)
(-0.000127021 0.000424922 0.000641215)
(-3.14395e-05 0.000378904 0.000591978)
(-0.00243355 0.000839347 0.000871049)
(-0.00191619 0.000799024 0.000907602)
(-0.00147254 0.000724265 0.000888206)
(-0.00110836 0.00063415 0.000836844)
(-0.000817182 0.000543474 0.000772816)
(-0.000591003 0.000460745 0.000707911)
(-0.000412726 0.000393822 0.000653446)
(-0.000276272 0.000338803 0.000608685)
(-0.000157944 0.00030729 0.000587987)
(-4.63839e-05 0.000272545 0.000559772)
(-0.00242034 0.000502111 0.000698867)
(-0.00193817 0.000479763 0.000752078)
(-0.00151573 0.000436938 0.000756043)
(-0.00116044 0.000384744 0.000728951)
(-0.000868817 0.000331937 0.000686791)
(-0.000635536 0.000283513 0.000639671)
(-0.000446756 0.000244418 0.000597858)
(-0.000295911 0.000211663 0.000561965)
(-0.000166831 0.000193068 0.000540365)
(-5.17688e-05 0.000168431 0.000514822)
(-0.0023826 0.000172042 0.000602947)
(-0.00192546 0.000164512 0.000663603)
(-0.00151975 0.000150103 0.000678942)
(-0.00117386 0.000132547 0.000664004)
(-0.000885215 0.000114779 0.00063335)
(-0.000650763 9.83821e-05 0.000595486)
(-0.000457033 8.49468e-05 0.00056103)
(-0.000299864 7.2991e-05 0.000529909)
(-0.000163909 6.36081e-05 0.000511258)
(-4.81923e-05 5.07607e-05 0.000486739)
(-0.00118119 0.000512585 0.0047076)
(-0.000356552 0.000401964 0.00396491)
(9.43169e-05 0.000300035 0.00319643)
(0.0002954 0.000219667 0.00252292)
(0.000344608 0.00016198 0.00198702)
(0.000309399 0.00012188 0.00158912)
(0.000231505 9.56663e-05 0.00131456)
(0.000131518 7.4348e-05 0.00114599)
(4.14906e-05 5.57798e-05 0.00105583)
(-0.00131205 0.00110053 0.00416052)
(-0.000509797 0.000910406 0.0035902)
(-3.47566e-05 0.00071797 0.00296161)
(0.000202519 0.00055217 0.00238496)
(0.000285351 0.000423537 0.00191028)
(0.000278226 0.000328254 0.00155006)
(0.000221545 0.00026306 0.00129791)
(0.000139291 0.000213355 0.00114313)
(5.08424e-05 0.000178613 0.00106209)
(-0.00142059 0.00139149 0.00366817)
(-0.000656862 0.00119618 0.00320488)
(-0.000182851 0.000981393 0.0026759)
(7.39856e-05 0.000782413 0.00218269)
(0.000185509 0.000618219 0.00177193)
(0.000209489 0.000490193 0.00145726)
(0.000180719 0.00039967 0.0012342)
(0.000123608 0.000333141 0.00109642)
(5.09616e-05 0.000296698 0.00101795)
(-0.0015373 0.00153791 0.00308246)
(-0.000830537 0.0013553 0.00273568)
(-0.000365332 0.00113742 0.00232473)
(-8.92927e-05 0.000926035 0.00193124)
(5.29641e-05 0.000745418 0.00159581)
(0.000110794 0.000601185 0.00133522)
(0.00011324 0.000498805 0.00114696)
(8.50411e-05 0.000424149 0.00103145)
(3.89273e-05 0.000396389 0.000961622)
(-0.00161145 0.00155577 0.00260766)
(-0.000971281 0.00139051 0.00232737)
(-0.000531434 0.00118675 0.00199829)
(-0.000250198 0.000983359 0.00168341)
(-8.6066e-05 0.000804484 0.00141266)
(2.25997e-06 0.000658678 0.00120126)
(3.5231e-05 0.000553927 0.00104428)
(4.28358e-05 0.000476286 0.000951576)
(3.16349e-05 0.000451528 0.000867595)
(-0.00170306 0.00151258 0.00211174)
(-0.00111859 0.0013567 0.00191748)
(-0.000697778 0.00116678 0.0016767)
(-0.000410724 0.00097693 0.00143924)
(-0.000227394 0.000808141 0.0012302)
(-0.000112163 0.000669623 0.00106633)
(-5.19281e-05 0.000568012 0.000941154)
(-1.22654e-05 0.000494167 0.000877681)
(1.48281e-05 0.00046466 0.000800948)
(-0.00177202 0.00137486 0.00169263)