/*--------------------------------*- C++ -*----------------------------------*\
| =========                 |                                                 |
| \\      /  F ield         | OpenFOAM: The Open Source CFD Toolbox           |
|  \\    /   O peration     | Version:  2.3.1                                 |
|   \\  /    A nd           | Web:      www.OpenFOAM.org                      |
|    \\/     M anipulation  |                                                 |
\*---------------------------------------------------------------------------*/
FoamFile
{
    version     2.0;
    format      ascii;
    class       volScalarField;
    location    "10";
    object      epsilon_0;
}
// * * * * * * * * * * * * * * * * * * * * * * * * * * * * * * * * * * * * * //

dimensions      [0 2 -3 0 0 0 0];

internalField   nonuniform List<scalar> 
38262
(
9.33843e-07
9.28598e-07
9.2388e-07
9.19622e-07
9.1577e-07
9.12275e-07
9.09096e-07
9.06198e-07
9.03549e-07
9.01126e-07
8.98905e-07
8.9687e-07
8.95007e-07
8.93302e-07
8.91743e-07
8.90316e-07
8.89008e-07
8.87811e-07
8.86716e-07
8.85717e-07
8.84808e-07
8.83986e-07
8.83249e-07
8.82592e-07
8.82006e-07
8.81485e-07
8.81019e-07
8.80603e-07
8.80232e-07
8.79903e-07
8.79616e-07
8.79373e-07
8.79173e-07
8.79022e-07
8.78932e-07
8.78886e-07
8.78878e-07
8.78899e-07
1.40603e-06
1.40023e-06
1.39498e-06
1.39023e-06
1.38594e-06
1.38203e-06
1.37848e-06
1.37523e-06
1.37226e-06
1.36953e-06
1.36704e-06
1.36476e-06
1.36269e-06
1.3608e-06
1.35908e-06
1.3575e-06
1.35605e-06
1.35474e-06
1.35354e-06
1.35246e-06
1.35149e-06
1.35063e-06
1.34988e-06
1.34922e-06
1.34863e-06
1.3481e-06
1.34762e-06
1.34719e-06
1.3468e-06
1.34648e-06
1.34621e-06
1.34601e-06
1.34588e-06
1.34581e-06
1.34581e-06
1.34586e-06
1.34596e-06
1.34609e-06
1.61545e-06
1.61007e-06
1.60519e-06
1.60076e-06
1.59675e-06
1.59311e-06
1.58979e-06
1.58676e-06
1.58398e-06
1.58143e-06
1.57911e-06
1.57699e-06
1.57508e-06
1.57334e-06
1.57175e-06
1.5703e-06
1.56896e-06
1.56775e-06
1.56666e-06
1.56568e-06
1.5648e-06
1.56403e-06
1.56336e-06
1.56277e-06
1.56225e-06
1.56179e-06
1.56137e-06
1.561e-06
1.56067e-06
1.5604e-06
1.56019e-06
1.56004e-06
1.55995e-06
1.55992e-06
1.55996e-06
1.56004e-06
1.56018e-06
1.56033e-06
1.69554e-06
1.69039e-06
1.6857e-06
1.68145e-06
1.67758e-06
1.67407e-06
1.67087e-06
1.66794e-06
1.66527e-06
1.66282e-06
1.66059e-06
1.65858e-06
1.65677e-06
1.65512e-06
1.65361e-06
1.65222e-06
1.65094e-06
1.64978e-06
1.64873e-06
1.64779e-06
1.64695e-06
1.64622e-06
1.64557e-06
1.64501e-06
1.64452e-06
1.6441e-06
1.64373e-06
1.64341e-06
1.64312e-06
1.64289e-06
1.6427e-06
1.64255e-06
1.64246e-06
1.64244e-06
1.64248e-06
1.64258e-06
1.64273e-06
1.64291e-06
1.7216e-06
1.71651e-06
1.71189e-06
1.70768e-06
1.70387e-06
1.7004e-06
1.69724e-06
1.69435e-06
1.6917e-06
1.68929e-06
1.68712e-06
1.68516e-06
1.68339e-06
1.68178e-06
1.6803e-06
1.67893e-06
1.67768e-06
1.67653e-06
1.67549e-06
1.67454e-06
1.67371e-06
1.67298e-06
1.67233e-06
1.67176e-06
1.67127e-06
1.67086e-06
1.67053e-06
1.67024e-06
1.66999e-06
1.66978e-06
1.66958e-06
1.66941e-06
1.6693e-06
1.66926e-06
1.6693e-06
1.66939e-06
1.66955e-06
1.66976e-06
1.72348e-06
1.71887e-06
1.71469e-06
1.71091e-06
1.70746e-06
1.70431e-06
1.70143e-06
1.69879e-06
1.69641e-06
1.69427e-06
1.69233e-06
1.69058e-06
1.68898e-06
1.6875e-06
1.68615e-06
1.6849e-06
1.68376e-06
1.68271e-06
1.68176e-06
1.68091e-06
1.68017e-06
1.6795e-06
1.67891e-06
1.67842e-06
1.67802e-06
1.67771e-06
1.67744e-06
1.67721e-06
1.67699e-06
1.67678e-06
1.67659e-06
1.67645e-06
1.67639e-06
1.67641e-06
1.6765e-06
1.67667e-06
1.6769e-06
1.72337e-06
1.71877e-06
1.71462e-06
1.71087e-06
1.70745e-06
1.70431e-06
1.70144e-06
1.69883e-06
1.69647e-06
1.69435e-06
1.69243e-06
1.69068e-06
1.68908e-06
1.6876e-06
1.68624e-06
1.68499e-06
1.68385e-06
1.6828e-06
1.68184e-06
1.68099e-06
1.68024e-06
1.67956e-06
1.67896e-06
1.67846e-06
1.67806e-06
1.67775e-06
1.67749e-06
1.67725e-06
1.67702e-06
1.67679e-06
1.67658e-06
1.67642e-06
1.67633e-06
1.67634e-06
1.67643e-06
1.67659e-06
1.67685e-06
1.71623e-06
1.71163e-06
1.70749e-06
1.70376e-06
1.70036e-06
1.69725e-06
1.6944e-06
1.6918e-06
1.68946e-06
1.68734e-06
1.68543e-06
1.68368e-06
1.68207e-06
1.68057e-06
1.67919e-06
1.67794e-06
1.6768e-06
1.67575e-06
1.6748e-06
1.67394e-06
1.67317e-06
1.67249e-06
1.67189e-06
1.67139e-06
1.67098e-06
1.67065e-06
1.67037e-06
1.67011e-06
1.66986e-06
1.66961e-06
1.66938e-06
1.6692e-06
1.6691e-06
1.6691e-06
1.66918e-06
1.66934e-06
1.66961e-06
1.66993e-06
1.69001e-06
1.68535e-06
1.68118e-06
1.67742e-06
1.674e-06
1.67087e-06
1.668e-06
1.66539e-06
1.66303e-06
1.6609e-06
1.65896e-06
1.65719e-06
1.65554e-06
1.65401e-06
1.6526e-06
1.65132e-06
1.65017e-06
1.64912e-06
1.64816e-06
1.64729e-06
1.64651e-06
1.64582e-06
1.64522e-06
1.64471e-06
1.64428e-06
1.64391e-06
1.6436e-06
1.6433e-06
1.64302e-06
1.64275e-06
1.64249e-06
1.6423e-06
1.64218e-06
1.64218e-06
1.64225e-06
1.64241e-06
1.64267e-06
1.643e-06
1.60966e-06
1.60481e-06
1.60046e-06
1.59655e-06
1.59299e-06
1.58974e-06
1.58677e-06
1.58405e-06
1.5816e-06
1.57938e-06
1.57736e-06
1.5755e-06
1.57378e-06
1.57218e-06
1.57071e-06
1.56937e-06
1.56817e-06
1.56709e-06
1.56609e-06
1.56519e-06
1.56437e-06
1.56365e-06
1.56302e-06
1.56248e-06
1.56201e-06
1.5616e-06
1.56123e-06
1.56089e-06
1.56056e-06
1.56025e-06
1.55998e-06
1.55976e-06
1.55962e-06
1.55959e-06
1.55964e-06
1.55977e-06
1.56001e-06
1.56034e-06
1.39984e-06
1.3946e-06
1.38989e-06
1.38565e-06
1.3818e-06
1.37828e-06
1.37507e-06
1.37214e-06
1.36949e-06
1.36709e-06
1.3649e-06
1.36289e-06
1.36103e-06
1.35932e-06
1.35774e-06
1.3563e-06
1.355e-06
1.35383e-06
1.35276e-06
1.35179e-06
1.35091e-06
1.35013e-06
1.34944e-06
1.34885e-06
1.34833e-06
1.34787e-06
1.34745e-06
1.34706e-06
1.34669e-06
1.34634e-06
1.34602e-06
1.34576e-06
1.34557e-06
1.34548e-06
1.34548e-06
1.34555e-06
1.34573e-06
1.346e-06
9.28376e-07
9.2363e-07
9.19358e-07
9.15508e-07
9.12028e-07
9.08867e-07
9.05988e-07
9.03364e-07
9.00973e-07
8.98797e-07
8.96815e-07
8.95006e-07
8.93349e-07
8.91828e-07
8.9043e-07
8.89145e-07
8.87968e-07
8.86892e-07
8.85909e-07
8.8501e-07
8.8419e-07
8.83446e-07
8.82777e-07
8.82181e-07
8.81653e-07
8.81186e-07
8.80768e-07
8.80391e-07
8.80047e-07
8.79732e-07
8.79443e-07
8.79185e-07
8.78965e-07
8.78794e-07
8.78679e-07
8.78653e-07
8.78686e-07
8.78768e-07
9.25849e-07
9.23643e-07
9.21638e-07
9.19813e-07
9.18149e-07
9.16627e-07
9.15232e-07
9.1395e-07
9.12772e-07
9.11689e-07
9.10693e-07
9.0978e-07
9.08945e-07
9.08185e-07
9.07493e-07
9.0686e-07
9.06283e-07
9.05756e-07
9.05276e-07
9.04841e-07
9.04449e-07
9.04102e-07
9.03796e-07
9.03526e-07
9.03285e-07
9.03069e-07
9.02875e-07
9.02702e-07
9.0255e-07
9.02421e-07
9.02315e-07
9.02233e-07
9.02175e-07
9.02138e-07
9.0211e-07
9.02097e-07
9.02099e-07
9.02113e-07
8.71129e-07
8.69698e-07
8.68421e-07
8.67276e-07
8.66247e-07
8.65321e-07
8.64485e-07
8.63727e-07
8.63038e-07
8.62412e-07
8.6184e-07
8.61318e-07
8.60841e-07
8.60406e-07
8.60008e-07
8.59644e-07
8.59309e-07
8.59002e-07
8.58721e-07
8.58464e-07
8.58228e-07
8.58014e-07
8.57821e-07
8.57647e-07
8.57492e-07
8.57353e-07
8.57228e-07
8.57116e-07
8.57014e-07
8.56922e-07
8.56838e-07
8.56765e-07
8.56702e-07
8.5665e-07
8.56609e-07
8.56585e-07
8.56578e-07
8.56579e-07
8.96348e-07
8.94683e-07
8.93206e-07
8.91888e-07
8.90708e-07
8.89648e-07
8.88694e-07
8.87832e-07
8.87052e-07
8.86344e-07
8.85699e-07
8.85109e-07
8.8457e-07
8.84079e-07
8.83631e-07
8.83222e-07
8.82846e-07
8.825e-07
8.82182e-07
8.81889e-07
8.81619e-07
8.81372e-07
8.81146e-07
8.80943e-07
8.80759e-07
8.80596e-07
8.80452e-07
8.80323e-07
8.80206e-07
8.80098e-07
8.79999e-07
8.79909e-07
8.79829e-07
8.79757e-07
8.79698e-07
8.79651e-07
8.79632e-07
8.79628e-07
9.04556e-07
9.02792e-07
9.01231e-07
8.9984e-07
8.98595e-07
8.97478e-07
8.96471e-07
8.95564e-07
8.94742e-07
8.93996e-07
8.93314e-07
8.9269e-07
8.9212e-07
8.91603e-07
8.91134e-07
8.90707e-07
8.90315e-07
8.89953e-07
8.89621e-07
8.89314e-07
8.89031e-07
8.88771e-07
8.88534e-07
8.88318e-07
8.88123e-07
8.87947e-07
8.87791e-07
8.87653e-07
8.87528e-07
8.87415e-07
8.87313e-07
8.8722e-07
8.87134e-07
8.87057e-07
8.86989e-07
8.86933e-07
8.86903e-07
8.86894e-07
9.06272e-07
9.04482e-07
9.02897e-07
9.01485e-07
9.00223e-07
8.9909e-07
8.98071e-07
8.97152e-07
8.96318e-07
8.95559e-07
8.94863e-07
8.94229e-07
8.93652e-07
8.93129e-07
8.92654e-07
8.92223e-07
8.91827e-07
8.91465e-07
8.91132e-07
8.90824e-07
8.90539e-07
8.90277e-07
8.90039e-07
8.89822e-07
8.89622e-07
8.8944e-07
8.89278e-07
8.89134e-07
8.89007e-07
8.88895e-07
8.88795e-07
8.88705e-07
8.8862e-07
8.88542e-07
8.88471e-07
8.88411e-07
8.88372e-07
8.88362e-07
9.04707e-07
9.03115e-07
9.01696e-07
9.00427e-07
8.99292e-07
8.98271e-07
8.97349e-07
8.96512e-07
8.95746e-07
8.95047e-07
8.94411e-07
8.93834e-07
8.93311e-07
8.92836e-07
8.92404e-07
8.9201e-07
8.9165e-07
8.9132e-07
8.91014e-07
8.9073e-07
8.9047e-07
8.90235e-07
8.90019e-07
8.89819e-07
8.89634e-07
8.89468e-07
8.89321e-07
8.89194e-07
8.89084e-07
8.88988e-07
8.88901e-07
8.88819e-07
8.88741e-07
8.8867e-07
8.88606e-07
8.88559e-07
8.88548e-07
9.04717e-07
9.03119e-07
9.01692e-07
9.00418e-07
8.99279e-07
8.98256e-07
8.97332e-07
8.96491e-07
8.95724e-07
8.95024e-07
8.94388e-07
8.93813e-07
8.93292e-07
8.9282e-07
8.92389e-07
8.91996e-07
8.91637e-07
8.91309e-07
8.91005e-07
8.90723e-07
8.90466e-07
8.90232e-07
8.90017e-07
8.89817e-07
8.89632e-07
8.89466e-07
8.8932e-07
8.89194e-07
8.89087e-07
8.88994e-07
8.8891e-07
8.88829e-07
8.88751e-07
8.88678e-07
8.88612e-07
8.88558e-07
8.88543e-07
9.04504e-07
9.02903e-07
9.01473e-07
9.00194e-07
8.99052e-07
8.98027e-07
8.97101e-07
8.9626e-07
8.95493e-07
8.94795e-07
8.94162e-07
8.9359e-07
8.93073e-07
8.92605e-07
8.92178e-07
8.91786e-07
8.91426e-07
8.91098e-07
8.90796e-07
8.90518e-07
8.90264e-07
8.90031e-07
8.89816e-07
8.89617e-07
8.89437e-07
8.89274e-07
8.89131e-07
8.89008e-07
8.88903e-07
8.88812e-07
8.88729e-07
8.88649e-07
8.88572e-07
8.88498e-07
8.8843e-07
8.8837e-07
8.88349e-07
8.88352e-07
9.02813e-07
9.01231e-07
8.99815e-07
8.98549e-07
8.97417e-07
8.96402e-07
8.95486e-07
8.94654e-07
8.93898e-07
8.9321e-07
8.92586e-07
8.92023e-07
8.91516e-07
8.91057e-07
8.90637e-07
8.90249e-07
8.89893e-07
8.89568e-07
8.89271e-07
8.88999e-07
8.88749e-07
8.8852e-07
8.88309e-07
8.88117e-07
8.87943e-07
8.87789e-07
8.87652e-07
8.87534e-07
8.87432e-07
8.87343e-07
8.87261e-07
8.87182e-07
8.87104e-07
8.87029e-07
8.86961e-07
8.86901e-07
8.86873e-07
8.86877e-07
8.94689e-07
8.93191e-07
8.91851e-07
8.9065e-07
8.89576e-07
8.88612e-07
8.87742e-07
8.86952e-07
8.86235e-07
8.85583e-07
8.84992e-07
8.84459e-07
8.83977e-07
8.8354e-07
8.8314e-07
8.82771e-07
8.82432e-07
8.82122e-07
8.8184e-07
8.81583e-07
8.81348e-07
8.81132e-07
8.80935e-07
8.80758e-07
8.80599e-07
8.80458e-07
8.80334e-07
8.80225e-07
8.80129e-07
8.80042e-07
8.79962e-07
8.79885e-07
8.7981e-07
8.79739e-07
8.79676e-07
8.79621e-07
8.79597e-07
8.79605e-07
8.69673e-07
8.68383e-07
8.67228e-07
8.66192e-07
8.65261e-07
8.64422e-07
8.6366e-07
8.62969e-07
8.6234e-07
8.61771e-07
8.61253e-07
8.60784e-07
8.60355e-07
8.59964e-07
8.59606e-07
8.59277e-07
8.58976e-07
8.58702e-07
8.58452e-07
8.58224e-07
8.58017e-07
8.57829e-07
8.57659e-07
8.57507e-07
8.57372e-07
8.57253e-07
8.57146e-07
8.5705e-07
8.56962e-07
8.5688e-07
8.56804e-07
8.56734e-07
8.5667e-07
8.56615e-07
8.56571e-07
8.56538e-07
8.56536e-07
8.56553e-07
9.23482e-07
9.21487e-07
9.19686e-07
9.18054e-07
9.16564e-07
9.15197e-07
9.13943e-07
9.12799e-07
9.11757e-07
9.10808e-07
9.09938e-07
9.09139e-07
9.08401e-07
9.0772e-07
9.07091e-07
9.06515e-07
9.05988e-07
9.05506e-07
9.05063e-07
9.04657e-07
9.04286e-07
9.03952e-07
9.03657e-07
9.03397e-07
9.03166e-07
9.02956e-07
9.02762e-07
9.02583e-07
9.02419e-07
9.02271e-07
9.02141e-07
9.02038e-07
9.0197e-07
9.01939e-07
9.01943e-07
9.01959e-07
9.01996e-07
9.02057e-07
1.11881e-06
1.11617e-06
1.11377e-06
1.11159e-06
1.10962e-06
1.10781e-06
1.10617e-06
1.10466e-06
1.10328e-06
1.10201e-06
1.10085e-06
1.09978e-06
1.09881e-06
1.09792e-06
1.09712e-06
1.09637e-06
1.0957e-06
1.09508e-06
1.09452e-06
1.094e-06
1.09354e-06
1.09313e-06
1.09276e-06
1.09244e-06
1.09215e-06
1.09189e-06
1.09165e-06
1.09144e-06
1.09126e-06
1.0911e-06
1.09096e-06
1.09085e-06
1.09077e-06
1.09072e-06
1.09068e-06
1.09067e-06
1.09067e-06
1.09069e-06
7.97224e-07
7.96394e-07
7.95661e-07
7.95007e-07
7.94423e-07
7.93899e-07
7.93428e-07
7.93003e-07
7.92619e-07
7.9227e-07
7.91954e-07
7.91664e-07
7.91399e-07
7.91157e-07
7.90935e-07
7.90733e-07
7.90548e-07
7.90378e-07
7.90221e-07
7.90076e-07
7.89942e-07
7.89816e-07
7.897e-07
7.89595e-07
7.895e-07
7.89418e-07
7.89346e-07
7.89282e-07
7.89224e-07
7.89171e-07
7.89121e-07
7.89073e-07
7.89028e-07
7.88985e-07
7.88947e-07
7.88915e-07
7.88891e-07
7.88875e-07
7.44204e-07
7.43275e-07
7.42462e-07
7.41743e-07
7.41105e-07
7.40536e-07
7.40027e-07
7.39571e-07
7.39161e-07
7.38791e-07
7.38454e-07
7.38147e-07
7.37865e-07
7.37608e-07
7.37375e-07
7.37161e-07
7.36966e-07
7.36785e-07
7.36618e-07
7.36464e-07
7.36319e-07
7.36184e-07
7.3606e-07
7.35945e-07
7.35841e-07
7.35748e-07
7.35666e-07
7.35592e-07
7.35525e-07
7.35462e-07
7.35403e-07
7.35346e-07
7.35292e-07
7.3524e-07
7.35192e-07
7.3515e-07
7.35117e-07
7.35092e-07
7.24072e-07
7.23049e-07
7.22154e-07
7.21366e-07
7.20667e-07
7.20044e-07
7.19488e-07
7.18989e-07
7.18541e-07
7.18135e-07
7.17765e-07
7.17427e-07
7.17117e-07
7.16836e-07
7.16581e-07
7.1635e-07
7.16138e-07
7.15942e-07
7.15761e-07
7.15594e-07
7.15437e-07
7.15291e-07
7.15156e-07
7.15032e-07
7.14917e-07
7.14813e-07
7.14719e-07
7.14635e-07
7.14559e-07
7.14489e-07
7.14424e-07
7.14364e-07
7.14305e-07
7.14249e-07
7.14195e-07
7.14146e-07
7.14105e-07
7.14074e-07
7.16085e-07
7.15024e-07
7.14096e-07
7.13278e-07
7.12552e-07
7.11906e-07
7.1133e-07
7.10813e-07
7.10348e-07
7.09925e-07
7.09538e-07
7.09185e-07
7.08863e-07
7.08571e-07
7.08307e-07
7.08068e-07
7.07849e-07
7.07649e-07
7.07464e-07
7.07292e-07
7.07132e-07
7.06983e-07
7.06846e-07
7.06719e-07
7.066e-07
7.06489e-07
7.06388e-07
7.06297e-07
7.06216e-07
7.06144e-07
7.06079e-07
7.0602e-07
7.05962e-07
7.05905e-07
7.05849e-07
7.05797e-07
7.05751e-07
7.05715e-07
7.12432e-07
7.11492e-07
7.10661e-07
7.09925e-07
7.0927e-07
7.08687e-07
7.08165e-07
7.07692e-07
7.07262e-07
7.06868e-07
7.06509e-07
7.06183e-07
7.05889e-07
7.05623e-07
7.05381e-07
7.05161e-07
7.04961e-07
7.04776e-07
7.04605e-07
7.04445e-07
7.04297e-07
7.04161e-07
7.04035e-07
7.03915e-07
7.03801e-07
7.03697e-07
7.03602e-07
7.0352e-07
7.03448e-07
7.03386e-07
7.03329e-07
7.03274e-07
7.03218e-07
7.03161e-07
7.03107e-07
7.03057e-07
7.03017e-07
7.12443e-07
7.11499e-07
7.10663e-07
7.09921e-07
7.09263e-07
7.08677e-07
7.08152e-07
7.07677e-07
7.07244e-07
7.06848e-07
7.06489e-07
7.06164e-07
7.05871e-07
7.05607e-07
7.05366e-07
7.05147e-07
7.04947e-07
7.04764e-07
7.04595e-07
7.04437e-07
7.04291e-07
7.04156e-07
7.04031e-07
7.03911e-07
7.03798e-07
7.03693e-07
7.03599e-07
7.03518e-07
7.03448e-07
7.03389e-07
7.03335e-07
7.03282e-07
7.03227e-07
7.03171e-07
7.03115e-07
7.03062e-07
7.03018e-07
7.15052e-07
7.14113e-07
7.13281e-07
7.12541e-07
7.11884e-07
7.11301e-07
7.10778e-07
7.10305e-07
7.09874e-07
7.09482e-07
7.09127e-07
7.08806e-07
7.08519e-07
7.0826e-07
7.08024e-07
7.07808e-07
7.0761e-07
7.07428e-07
7.07261e-07
7.07107e-07
7.06964e-07
7.06832e-07
7.06707e-07
7.0659e-07
7.0648e-07
7.06379e-07
7.06289e-07
7.06211e-07
7.06145e-07
7.06089e-07
7.06038e-07
7.05987e-07
7.05933e-07
7.05878e-07
7.05821e-07
7.05766e-07
7.05719e-07
7.05681e-07
7.23082e-07
7.22173e-07
7.21366e-07
7.20648e-07
7.20011e-07
7.19444e-07
7.18937e-07
7.18479e-07
7.18062e-07
7.17684e-07
7.17341e-07
7.17034e-07
7.16758e-07
7.16511e-07
7.16285e-07
7.16077e-07
7.15885e-07
7.15709e-07
7.15548e-07
7.154e-07
7.15263e-07
7.15136e-07
7.15016e-07
7.14904e-07
7.14801e-07
7.14708e-07
7.14625e-07
7.14553e-07
7.14493e-07
7.14441e-07
7.14393e-07
7.14345e-07
7.14294e-07
7.14239e-07
7.14183e-07
7.14129e-07
7.1408e-07
7.14042e-07
7.43302e-07
7.42475e-07
7.41738e-07
7.41083e-07
7.405e-07
7.39981e-07
7.39517e-07
7.39098e-07
7.38717e-07
7.38371e-07
7.38059e-07
7.37779e-07
7.37528e-07
7.37302e-07
7.37096e-07
7.36905e-07
7.36729e-07
7.36566e-07
7.36418e-07
7.36283e-07
7.36158e-07
7.36041e-07
7.35931e-07
7.3583e-07
7.35738e-07
7.35656e-07
7.35584e-07
7.35523e-07
7.3547e-07
7.35425e-07
7.35383e-07
7.35339e-07
7.35293e-07
7.35243e-07
7.35193e-07
7.35143e-07
7.35099e-07
7.35065e-07
7.96402e-07
7.9566e-07
7.94996e-07
7.94404e-07
7.93875e-07
7.93401e-07
7.92974e-07
7.92587e-07
7.92235e-07
7.91915e-07
7.91625e-07
7.91364e-07
7.91128e-07
7.90915e-07
7.9072e-07
7.90539e-07
7.90371e-07
7.90216e-07
7.90074e-07
7.89943e-07
7.89822e-07
7.89709e-07
7.89603e-07
7.89505e-07
7.89417e-07
7.8934e-07
7.89274e-07
7.89218e-07
7.89172e-07
7.89132e-07
7.89095e-07
7.89059e-07
7.89021e-07
7.88982e-07
7.88944e-07
7.88908e-07
7.88879e-07
7.88858e-07
1.11601e-06
1.11361e-06
1.11146e-06
1.1095e-06
1.10773e-06
1.1061e-06
1.10461e-06
1.10326e-06
1.10203e-06
1.1009e-06
1.09988e-06
1.09893e-06
1.09807e-06
1.09727e-06
1.09653e-06
1.09586e-06
1.09525e-06
1.09469e-06
1.09418e-06
1.09371e-06
1.09328e-06
1.0929e-06
1.09256e-06
1.09226e-06
1.09199e-06
1.09175e-06
1.09153e-06
1.09133e-06
1.09114e-06
1.09096e-06
1.09081e-06
1.09068e-06
1.09059e-06
1.09053e-06
1.09051e-06
1.09053e-06
1.09056e-06
1.09063e-06
1.2204e-06
1.21749e-06
1.21485e-06
1.21245e-06
1.21027e-06
1.20829e-06
1.20648e-06
1.20482e-06
1.20331e-06
1.20193e-06
1.20067e-06
1.19951e-06
1.19845e-06
1.19749e-06
1.19662e-06
1.19581e-06
1.19508e-06
1.19441e-06
1.1938e-06
1.19324e-06
1.19274e-06
1.19229e-06
1.19189e-06
1.19154e-06
1.19122e-06
1.19093e-06
1.19067e-06
1.19044e-06
1.19024e-06
1.19006e-06
1.18991e-06
1.18979e-06
1.18969e-06
1.18963e-06
1.18959e-06
1.18957e-06
1.18957e-06
1.18959e-06
7.70193e-07
7.69474e-07
7.6884e-07
7.68277e-07
7.67775e-07
7.67326e-07
7.66923e-07
7.66562e-07
7.66237e-07
7.65944e-07
7.65678e-07
7.65435e-07
7.65213e-07
7.6501e-07
7.64825e-07
7.64656e-07
7.64502e-07
7.6436e-07
7.64229e-07
7.64107e-07
7.63993e-07
7.63885e-07
7.63783e-07
7.63688e-07
7.63606e-07
7.63535e-07
7.63474e-07
7.63421e-07
7.63373e-07
7.63329e-07
7.63286e-07
7.63244e-07
7.63201e-07
7.63159e-07
7.63121e-07
7.63089e-07
7.63064e-07
7.63047e-07
6.72414e-07
6.71704e-07
6.71087e-07
6.70547e-07
6.70071e-07
6.6965e-07
6.69276e-07
6.68942e-07
6.68644e-07
6.68375e-07
6.68133e-07
6.67911e-07
6.67709e-07
6.67525e-07
6.67357e-07
6.67204e-07
6.67065e-07
6.66936e-07
6.66816e-07
6.66705e-07
6.666e-07
6.66502e-07
6.66409e-07
6.66324e-07
6.66246e-07
6.66177e-07
6.66116e-07
6.66061e-07
6.66011e-07
6.65963e-07
6.65918e-07
6.65874e-07
6.65831e-07
6.65788e-07
6.65747e-07
6.65711e-07
6.6568e-07
6.65654e-07
6.34804e-07
6.34025e-07
6.3335e-07
6.32759e-07
6.3224e-07
6.3178e-07
6.31372e-07
6.31009e-07
6.30684e-07
6.30392e-07
6.30126e-07
6.29884e-07
6.29663e-07
6.29462e-07
6.2928e-07
6.29115e-07
6.28964e-07
6.28825e-07
6.28697e-07
6.28577e-07
6.28465e-07
6.2836e-07
6.28262e-07
6.28171e-07
6.28087e-07
6.2801e-07
6.27941e-07
6.27878e-07
6.27821e-07
6.27768e-07
6.27718e-07
6.27671e-07
6.27625e-07
6.27579e-07
6.27535e-07
6.27494e-07
6.27457e-07
6.27426e-07
6.20109e-07
6.19292e-07
6.18584e-07
6.17964e-07
6.17418e-07
6.16936e-07
6.16508e-07
6.16128e-07
6.15786e-07
6.15477e-07
6.15196e-07
6.1494e-07
6.14707e-07
6.14496e-07
6.14306e-07
6.14133e-07
6.13976e-07
6.13832e-07
6.13699e-07
6.13575e-07
6.13459e-07
6.13351e-07
6.13251e-07
6.13158e-07
6.1307e-07
6.12988e-07
6.12912e-07
6.12844e-07
6.12782e-07
6.12727e-07
6.12676e-07
6.12629e-07
6.12583e-07
6.12537e-07
6.12491e-07
6.12447e-07
6.12406e-07
6.1237e-07
6.14489e-07
6.13766e-07
6.13133e-07
6.12576e-07
6.12084e-07
6.11648e-07
6.11259e-07
6.1091e-07
6.10593e-07
6.10305e-07
6.10043e-07
6.09806e-07
6.09591e-07
6.09398e-07
6.09223e-07
6.09063e-07
6.08918e-07
6.08784e-07
6.0866e-07
6.08544e-07
6.08436e-07
6.08337e-07
6.08243e-07
6.08154e-07
6.0807e-07
6.07991e-07
6.0792e-07
6.07856e-07
6.07801e-07
6.07752e-07
6.07707e-07
6.07662e-07
6.07617e-07
6.07571e-07
6.07525e-07
6.07481e-07
6.07441e-07
6.14497e-07
6.13772e-07
6.13135e-07
6.12574e-07
6.12078e-07
6.1164e-07
6.11249e-07
6.10898e-07
6.10579e-07
6.1029e-07
6.10027e-07
6.0979e-07
6.09576e-07
6.09384e-07
6.0921e-07
6.09051e-07
6.08906e-07
6.08774e-07
6.08651e-07
6.08537e-07
6.08431e-07
6.08332e-07
6.08239e-07
6.08151e-07
6.08067e-07
6.07988e-07
6.07917e-07
6.07854e-07
6.07801e-07
6.07754e-07
6.07712e-07
6.07669e-07
6.07625e-07
6.07579e-07
6.07532e-07
6.07486e-07
6.07444e-07
6.19314e-07
6.18598e-07
6.17968e-07
6.17412e-07
6.16921e-07
6.16486e-07
6.161e-07
6.15752e-07
6.15437e-07
6.15152e-07
6.14893e-07
6.14661e-07
6.14453e-07
6.14266e-07
6.14097e-07
6.13941e-07
6.13799e-07
6.13669e-07
6.13549e-07
6.13438e-07
6.13334e-07
6.13238e-07
6.13147e-07
6.13061e-07
6.1298e-07
6.12904e-07
6.12836e-07
6.12777e-07
6.12727e-07
6.12684e-07
6.12644e-07
6.12604e-07
6.12562e-07
6.12516e-07
6.12469e-07
6.12422e-07
6.12377e-07
6.12337e-07
6.34054e-07
6.33368e-07
6.32763e-07
6.32228e-07
6.31757e-07
6.3134e-07
6.30969e-07
6.30636e-07
6.30334e-07
6.30061e-07
6.29815e-07
6.29594e-07
6.29398e-07
6.29221e-07
6.29061e-07
6.28914e-07
6.28778e-07
6.28653e-07
6.28538e-07
6.28433e-07
6.28335e-07
6.28243e-07
6.28156e-07
6.28074e-07
6.27998e-07
6.27929e-07
6.27868e-07
6.27815e-07
6.2777e-07
6.27732e-07
6.27697e-07
6.2766e-07
6.2762e-07
6.27576e-07
6.27529e-07
6.27482e-07
6.27437e-07
6.27396e-07
6.71731e-07
6.71103e-07
6.70548e-07
6.70058e-07
6.69624e-07
6.69241e-07
6.689e-07
6.68593e-07
6.68315e-07
6.68064e-07
6.67838e-07
6.67636e-07
6.67456e-07
6.67294e-07
6.67148e-07
6.67012e-07
6.66886e-07
6.66771e-07
6.66665e-07
6.66567e-07
6.66477e-07
6.66391e-07
6.6631e-07
6.66233e-07
6.66164e-07
6.66103e-07
6.66049e-07
6.66005e-07
6.65969e-07
6.65937e-07
6.65908e-07
6.65877e-07
6.65842e-07
6.65801e-07
6.65757e-07
6.65712e-07
6.65669e-07
6.6563e-07
7.69482e-07
7.6884e-07
7.68269e-07
7.6776e-07
7.67305e-07
7.66899e-07
7.66534e-07
7.66204e-07
7.65905e-07
7.65634e-07
7.6539e-07
7.6517e-07
7.64974e-07
7.64796e-07
7.64635e-07
7.64485e-07
7.64346e-07
7.64216e-07
7.64097e-07
7.63987e-07
7.63884e-07
7.63786e-07
7.63691e-07
7.63603e-07
7.63525e-07
7.63458e-07
7.63403e-07
7.6336e-07
7.63327e-07
7.63301e-07
7.63278e-07
7.63252e-07
7.6322e-07
7.63182e-07
7.63141e-07
7.63101e-07
7.63064e-07
7.63034e-07
1.2173e-06
1.21467e-06
1.2123e-06
1.21016e-06
1.20821e-06
1.20642e-06
1.20478e-06
1.20329e-06
1.20194e-06
1.20071e-06
1.19959e-06
1.19856e-06
1.19761e-06
1.19674e-06
1.19594e-06
1.19521e-06
1.19455e-06
1.19395e-06
1.19339e-06
1.19289e-06
1.19243e-06
1.19202e-06
1.19165e-06
1.19133e-06
1.19104e-06
1.19078e-06
1.19055e-06
1.19032e-06
1.19012e-06
1.18993e-06
1.18976e-06
1.18962e-06
1.18951e-06
1.18944e-06
1.18941e-06
1.18941e-06
1.18945e-06
1.18951e-06
1.2778e-06
1.27469e-06
1.27187e-06
1.26931e-06
1.26699e-06
1.26487e-06
1.26294e-06
1.26118e-06
1.25956e-06
1.25808e-06
1.25673e-06
1.25549e-06
1.25436e-06
1.25335e-06
1.25242e-06
1.25158e-06
1.25081e-06
1.2501e-06
1.24946e-06
1.24888e-06
1.24835e-06
1.24788e-06
1.24746e-06
1.24708e-06
1.24675e-06
1.24644e-06
1.24617e-06
1.24592e-06
1.24571e-06
1.24552e-06
1.24536e-06
1.24522e-06
1.24512e-06
1.24505e-06
1.245e-06
1.24498e-06
1.24498e-06
1.24499e-06
7.54548e-07
7.5386e-07
7.53256e-07
7.5272e-07
7.52244e-07
7.51819e-07
7.51438e-07
7.51095e-07
7.50786e-07
7.50507e-07
7.50254e-07
7.50023e-07
7.49812e-07
7.49622e-07
7.49449e-07
7.49294e-07
7.49152e-07
7.49021e-07
7.48899e-07
7.48786e-07
7.4868e-07
7.48578e-07
7.4848e-07
7.4839e-07
7.48312e-07
7.48246e-07
7.48189e-07
7.48139e-07
7.48094e-07
7.48053e-07
7.48014e-07
7.47974e-07
7.47933e-07
7.47893e-07
7.47856e-07
7.47828e-07
7.47807e-07
7.47793e-07
6.28989e-07
6.28397e-07
6.27886e-07
6.27441e-07
6.27052e-07
6.2671e-07
6.26407e-07
6.26138e-07
6.25898e-07
6.25684e-07
6.25491e-07
6.25315e-07
6.25156e-07
6.2501e-07
6.24877e-07
6.24757e-07
6.24647e-07
6.24546e-07
6.24452e-07
6.24364e-07
6.24282e-07
6.24203e-07
6.24129e-07
6.2406e-07
6.23998e-07
6.23943e-07
6.23894e-07
6.2385e-07
6.2381e-07
6.23772e-07
6.23735e-07
6.237e-07
6.23664e-07
6.23628e-07
6.23595e-07
6.23564e-07
6.23539e-07
6.23517e-07
5.79474e-07
5.78838e-07
5.7829e-07
5.77815e-07
5.77399e-07
5.77034e-07
5.76712e-07
5.76426e-07
5.76172e-07
5.75944e-07
5.75738e-07
5.75552e-07
5.75382e-07
5.75228e-07
5.75088e-07
5.74962e-07
5.74846e-07
5.7474e-07
5.74642e-07
5.74551e-07
5.74465e-07
5.74384e-07
5.74309e-07
5.74239e-07
5.74174e-07
5.74115e-07
5.74061e-07
5.74012e-07
5.73967e-07
5.73926e-07
5.73887e-07
5.73849e-07
5.73812e-07
5.73776e-07
5.7374e-07
5.73707e-07
5.73676e-07
5.7365e-07
5.59686e-07
5.59017e-07
5.5844e-07
5.57939e-07
5.575e-07
5.57115e-07
5.56776e-07
5.56474e-07
5.56206e-07
5.55964e-07
5.55746e-07
5.55548e-07
5.55368e-07
5.55205e-07
5.55058e-07
5.54926e-07
5.54805e-07
5.54694e-07
5.54592e-07
5.54497e-07
5.54409e-07
5.54326e-07
5.54249e-07
5.54177e-07
5.54109e-07
5.54046e-07
5.53988e-07
5.53935e-07
5.53886e-07
5.53843e-07
5.53803e-07
5.53765e-07
5.53728e-07
5.53691e-07
5.53654e-07
5.53618e-07
5.53585e-07
5.53554e-07
5.52359e-07
5.51768e-07
5.51254e-07
5.50805e-07
5.5041e-07
5.50061e-07
5.49752e-07
5.49476e-07
5.49228e-07
5.49003e-07
5.48799e-07
5.48614e-07
5.48448e-07
5.48298e-07
5.48163e-07
5.4804e-07
5.47927e-07
5.47824e-07
5.47729e-07
5.4764e-07
5.47557e-07
5.47479e-07
5.47407e-07
5.47339e-07
5.47274e-07
5.47213e-07
5.47158e-07
5.47108e-07
5.47064e-07
5.47025e-07
5.46988e-07
5.46952e-07
5.46916e-07
5.46879e-07
5.46841e-07
5.46805e-07
5.46771e-07
5.52365e-07
5.51772e-07
5.51256e-07
5.50803e-07
5.50406e-07
5.50056e-07
5.49745e-07
5.49467e-07
5.49217e-07
5.48991e-07
5.48786e-07
5.48601e-07
5.48436e-07
5.48287e-07
5.48153e-07
5.4803e-07
5.47918e-07
5.47816e-07
5.47721e-07
5.47633e-07
5.47552e-07
5.47476e-07
5.47404e-07
5.47336e-07
5.47271e-07
5.47211e-07
5.47155e-07
5.47107e-07
5.47064e-07
5.47027e-07
5.46992e-07
5.46958e-07
5.46923e-07
5.46885e-07
5.46847e-07
5.46809e-07
5.46773e-07
5.59033e-07
5.58451e-07
5.57942e-07
5.57496e-07
5.57104e-07
5.56759e-07
5.56453e-07
5.5618e-07
5.55933e-07
5.55711e-07
5.55511e-07
5.55331e-07
5.5517e-07
5.55026e-07
5.54896e-07
5.54777e-07
5.54667e-07
5.54568e-07
5.54476e-07
5.54391e-07
5.54312e-07
5.54238e-07
5.54168e-07
5.54102e-07
5.54039e-07
5.53981e-07
5.53929e-07
5.53883e-07
5.53844e-07
5.5381e-07
5.53778e-07
5.53746e-07
5.53712e-07
5.53675e-07
5.53637e-07
5.53598e-07
5.5356e-07
5.53525e-07
5.7886e-07
5.78304e-07
5.77818e-07
5.77391e-07
5.77016e-07
5.76686e-07
5.76394e-07
5.76133e-07
5.75898e-07
5.75686e-07
5.75496e-07
5.75325e-07
5.75174e-07
5.75039e-07
5.74916e-07
5.74803e-07
5.747e-07
5.74605e-07
5.74518e-07
5.74437e-07
5.74363e-07
5.74292e-07
5.74225e-07
5.74162e-07
5.74104e-07
5.74051e-07
5.74004e-07
5.73964e-07
5.7393e-07
5.739e-07
5.73873e-07
5.73844e-07
5.73812e-07
5.73777e-07
5.73738e-07
5.73699e-07
5.7366e-07
5.73625e-07
6.28421e-07
6.279e-07
6.27443e-07
6.27041e-07
6.26688e-07
6.26377e-07
6.26101e-07
6.25854e-07
6.25632e-07
6.25431e-07
6.25251e-07
6.25091e-07
6.24948e-07
6.2482e-07
6.24704e-07
6.24598e-07
6.245e-07
6.24409e-07
6.24327e-07
6.24251e-07
6.24179e-07
6.24111e-07
6.24046e-07
6.23985e-07
6.23929e-07
6.23881e-07
6.2384e-07
6.23807e-07
6.2378e-07
6.23758e-07
6.23737e-07
6.23713e-07
6.23684e-07
6.2365e-07
6.23611e-07
6.23571e-07
6.23533e-07
6.23498e-07
7.53869e-07
7.53257e-07
7.52713e-07
7.52228e-07
7.51797e-07
7.51412e-07
7.51066e-07
7.50753e-07
7.50469e-07
7.50212e-07
7.4998e-07
7.49771e-07
7.49582e-07
7.49412e-07
7.49257e-07
7.49118e-07
7.48989e-07
7.4887e-07
7.48762e-07
7.48662e-07
7.48567e-07
7.48475e-07
7.48385e-07
7.48302e-07
7.48231e-07
7.4817e-07
7.48121e-07
7.48086e-07
7.48061e-07
7.48044e-07
7.48028e-07
7.48008e-07
7.47978e-07
7.47939e-07
7.47895e-07
7.47851e-07
7.47811e-07
7.4778e-07
1.27449e-06
1.27168e-06
1.26916e-06
1.26689e-06
1.26481e-06
1.2629e-06
1.26116e-06
1.25957e-06
1.25813e-06
1.25682e-06
1.25563e-06
1.25452e-06
1.2535e-06
1.25257e-06
1.25171e-06
1.25094e-06
1.25024e-06
1.24961e-06
1.24902e-06
1.24849e-06
1.24801e-06
1.24758e-06
1.2472e-06
1.24686e-06
1.24657e-06
1.24629e-06
1.24604e-06
1.2458e-06
1.24558e-06
1.24538e-06
1.24519e-06
1.24504e-06
1.24492e-06
1.24484e-06
1.2448e-06
1.24481e-06
1.24484e-06
1.2449e-06
1.31065e-06
1.30741e-06
1.30447e-06
1.3018e-06
1.29938e-06
1.29718e-06
1.29517e-06
1.29333e-06
1.29164e-06
1.29011e-06
1.2887e-06
1.28741e-06
1.28624e-06
1.28518e-06
1.28422e-06
1.28335e-06
1.28255e-06
1.28183e-06
1.28116e-06
1.28056e-06
1.28001e-06
1.27952e-06
1.27909e-06
1.2787e-06
1.27835e-06
1.27804e-06
1.27775e-06
1.2775e-06
1.27728e-06
1.27708e-06
1.27691e-06
1.27677e-06
1.27666e-06
1.27658e-06
1.27653e-06
1.27651e-06
1.2765e-06
1.2765e-06
7.44353e-07
7.43687e-07
7.43102e-07
7.42586e-07
7.42127e-07
7.41718e-07
7.41352e-07
7.41023e-07
7.40726e-07
7.40458e-07
7.40215e-07
7.39993e-07
7.3979e-07
7.39606e-07
7.3944e-07
7.39292e-07
7.39158e-07
7.39034e-07
7.38918e-07
7.3881e-07
7.38709e-07
7.38611e-07
7.38517e-07
7.38429e-07
7.38353e-07
7.3829e-07
7.38234e-07
7.38185e-07
7.38141e-07
7.38101e-07
7.38064e-07
7.38026e-07
7.37988e-07
7.37951e-07
7.37918e-07
7.37895e-07
7.37878e-07
7.37867e-07
6.01038e-07
6.00531e-07
6.00096e-07
5.9972e-07
5.99393e-07
5.99107e-07
5.98855e-07
5.98632e-07
5.98435e-07
5.98258e-07
5.981e-07
5.97957e-07
5.97827e-07
5.97708e-07
5.976e-07
5.97503e-07
5.97414e-07
5.97332e-07
5.97255e-07
5.97184e-07
5.97117e-07
5.97053e-07
5.96992e-07
5.96935e-07
5.96884e-07
5.96839e-07
5.96799e-07
5.96762e-07
5.96729e-07
5.96698e-07
5.96669e-07
5.9664e-07
5.9661e-07
5.96581e-07
5.96554e-07
5.9653e-07
5.9651e-07
5.96494e-07
5.43143e-07
5.42614e-07
5.42162e-07
5.41772e-07
5.41433e-07
5.41137e-07
5.40878e-07
5.40649e-07
5.40446e-07
5.40266e-07
5.40103e-07
5.39957e-07
5.39824e-07
5.39704e-07
5.39595e-07
5.39497e-07
5.39407e-07
5.39324e-07
5.39248e-07
5.39177e-07
5.39111e-07
5.39048e-07
5.3899e-07
5.38935e-07
5.38885e-07
5.38839e-07
5.38797e-07
5.38758e-07
5.38723e-07
5.38691e-07
5.3866e-07
5.38631e-07
5.38601e-07
5.38573e-07
5.38545e-07
5.38519e-07
5.38495e-07
5.38474e-07
5.19423e-07
5.18868e-07
5.18392e-07
5.17981e-07
5.17624e-07
5.17311e-07
5.17038e-07
5.16796e-07
5.16582e-07
5.1639e-07
5.16218e-07
5.16063e-07
5.15922e-07
5.15795e-07
5.15681e-07
5.15578e-07
5.15484e-07
5.15398e-07
5.15319e-07
5.15246e-07
5.15177e-07
5.15113e-07
5.15054e-07
5.14998e-07
5.14946e-07
5.14898e-07
5.14853e-07
5.14812e-07