/*--------------------------------*- C++ -*----------------------------------*\
| =========                 |                                                 |
| \\      /  F ield         | OpenFOAM: The Open Source CFD Toolbox           |
|  \\    /   O peration     | Version:  2.3.1                                 |
|   \\  /    A nd           | Web:      www.OpenFOAM.org                      |
|    \\/     M anipulation  |                                                 |
\*---------------------------------------------------------------------------*/
FoamFile
{
    version     2.0;
    format      ascii;
    class       volScalarField;
    location    "10";
    object      epsilon;
}
// * * * * * * * * * * * * * * * * * * * * * * * * * * * * * * * * * * * * * //

dimensions      [0 2 -3 0 0 0 0];

internalField   nonuniform List<scalar> 
38262
(
9.33714e-07
9.28468e-07
9.2375e-07
9.19492e-07
9.15639e-07
9.12144e-07
9.08965e-07
9.06066e-07
9.03418e-07
9.00994e-07
8.98773e-07
8.96738e-07
8.94874e-07
8.9317e-07
8.9161e-07
8.90183e-07
8.88875e-07
8.87678e-07
8.86583e-07
8.85584e-07
8.84675e-07
8.83853e-07
8.83116e-07
8.82459e-07
8.81873e-07
8.81351e-07
8.80886e-07
8.8047e-07
8.80098e-07
8.79769e-07
8.79483e-07
8.79239e-07
8.7904e-07
8.78888e-07
8.78798e-07
8.78753e-07
8.78744e-07
8.78766e-07
1.40588e-06
1.40007e-06
1.39482e-06
1.39008e-06
1.38578e-06
1.38188e-06
1.37832e-06
1.37507e-06
1.3721e-06
1.36937e-06
1.36688e-06
1.3646e-06
1.36253e-06
1.36064e-06
1.35891e-06
1.35733e-06
1.35589e-06
1.35457e-06
1.35338e-06
1.3523e-06
1.35133e-06
1.35047e-06
1.34972e-06
1.34906e-06
1.34847e-06
1.34794e-06
1.34746e-06
1.34703e-06
1.34664e-06
1.34631e-06
1.34605e-06
1.34585e-06
1.34572e-06
1.34565e-06
1.34565e-06
1.3457e-06
1.3458e-06
1.34593e-06
1.61529e-06
1.60991e-06
1.60503e-06
1.60061e-06
1.5966e-06
1.59295e-06
1.58963e-06
1.5866e-06
1.58382e-06
1.58127e-06
1.57895e-06
1.57683e-06
1.57492e-06
1.57318e-06
1.57159e-06
1.57014e-06
1.5688e-06
1.56759e-06
1.5665e-06
1.56551e-06
1.56464e-06
1.56387e-06
1.5632e-06
1.56261e-06
1.56209e-06
1.56163e-06
1.56121e-06
1.56084e-06
1.56051e-06
1.56024e-06
1.56003e-06
1.55988e-06
1.55978e-06
1.55976e-06
1.55979e-06
1.55987e-06
1.56001e-06
1.56017e-06
1.69539e-06
1.69024e-06
1.68555e-06
1.68129e-06
1.67743e-06
1.67391e-06
1.67071e-06
1.66779e-06
1.66511e-06
1.66266e-06
1.66044e-06
1.65843e-06
1.65662e-06
1.65497e-06
1.65345e-06
1.65206e-06
1.65079e-06
1.64963e-06
1.64858e-06
1.64763e-06
1.6468e-06
1.64606e-06
1.64542e-06
1.64485e-06
1.64436e-06
1.64394e-06
1.64358e-06
1.64325e-06
1.64297e-06
1.64273e-06
1.64254e-06
1.64239e-06
1.6423e-06
1.64228e-06
1.64233e-06
1.64242e-06
1.64258e-06
1.64276e-06
1.72145e-06
1.71637e-06
1.71174e-06
1.70754e-06
1.70372e-06
1.70026e-06
1.69709e-06
1.6942e-06
1.69155e-06
1.68914e-06
1.68697e-06
1.68501e-06
1.68324e-06
1.68163e-06
1.68015e-06
1.67878e-06
1.67753e-06
1.67638e-06
1.67534e-06
1.67439e-06
1.67356e-06
1.67283e-06
1.67218e-06
1.67161e-06
1.67112e-06
1.67071e-06
1.67038e-06
1.67009e-06
1.66984e-06
1.66962e-06
1.66943e-06
1.66926e-06
1.66915e-06
1.66911e-06
1.66915e-06
1.66924e-06
1.6694e-06
1.66961e-06
1.72334e-06
1.71872e-06
1.71455e-06
1.71076e-06
1.70732e-06
1.70417e-06
1.70128e-06
1.69865e-06
1.69626e-06
1.69412e-06
1.69219e-06
1.69043e-06
1.68883e-06
1.68736e-06
1.686e-06
1.68475e-06
1.68361e-06
1.68256e-06
1.68161e-06
1.68077e-06
1.68002e-06
1.67936e-06
1.67877e-06
1.67827e-06
1.67787e-06
1.67756e-06
1.67729e-06
1.67706e-06
1.67685e-06
1.67663e-06
1.67644e-06
1.6763e-06
1.67624e-06
1.67626e-06
1.67635e-06
1.67652e-06
1.67675e-06
1.72323e-06
1.71862e-06
1.71447e-06
1.71072e-06
1.7073e-06
1.70417e-06
1.7013e-06
1.69868e-06
1.69632e-06
1.6942e-06
1.69228e-06
1.69054e-06
1.68893e-06
1.68745e-06
1.68609e-06
1.68485e-06
1.6837e-06
1.68265e-06
1.6817e-06
1.68085e-06
1.68009e-06
1.67941e-06
1.67881e-06
1.67831e-06
1.67791e-06
1.6776e-06
1.67734e-06
1.67711e-06
1.67688e-06
1.67665e-06
1.67643e-06
1.67627e-06
1.67619e-06
1.6762e-06
1.67628e-06
1.67644e-06
1.6767e-06
1.71609e-06
1.71148e-06
1.70734e-06
1.70361e-06
1.70022e-06
1.6971e-06
1.69425e-06
1.69165e-06
1.68931e-06
1.68719e-06
1.68528e-06
1.68353e-06
1.68192e-06
1.68042e-06
1.67904e-06
1.67779e-06
1.67665e-06
1.6756e-06
1.67465e-06
1.67379e-06
1.67302e-06
1.67234e-06
1.67174e-06
1.67124e-06
1.67083e-06
1.6705e-06
1.67022e-06
1.66996e-06
1.66971e-06
1.66946e-06
1.66923e-06
1.66905e-06
1.66895e-06
1.66895e-06
1.66903e-06
1.66919e-06
1.66946e-06
1.66978e-06
1.68986e-06
1.6852e-06
1.68102e-06
1.67727e-06
1.67385e-06
1.67072e-06
1.66785e-06
1.66524e-06
1.66288e-06
1.66074e-06
1.65881e-06
1.65704e-06
1.65539e-06
1.65386e-06
1.65245e-06
1.65117e-06
1.65001e-06
1.64897e-06
1.64801e-06
1.64714e-06
1.64635e-06
1.64566e-06
1.64506e-06
1.64455e-06
1.64413e-06
1.64376e-06
1.64344e-06
1.64315e-06
1.64287e-06
1.64259e-06
1.64234e-06
1.64214e-06
1.64203e-06
1.64202e-06
1.64209e-06
1.64225e-06
1.64251e-06
1.64285e-06
1.60951e-06
1.60465e-06
1.6003e-06
1.59639e-06
1.59284e-06
1.58958e-06
1.58661e-06
1.58389e-06
1.58144e-06
1.57922e-06
1.5772e-06
1.57534e-06
1.57362e-06
1.57202e-06
1.57055e-06
1.56921e-06
1.56801e-06
1.56692e-06
1.56593e-06
1.56503e-06
1.56421e-06
1.56349e-06
1.56286e-06
1.56232e-06
1.56185e-06
1.56144e-06
1.56107e-06
1.56073e-06
1.5604e-06
1.56009e-06
1.55981e-06
1.55959e-06
1.55946e-06
1.55943e-06
1.55948e-06
1.55961e-06
1.55985e-06
1.56017e-06
1.39969e-06
1.39444e-06
1.38973e-06
1.38549e-06
1.38164e-06
1.37813e-06
1.37491e-06
1.37198e-06
1.36933e-06
1.36693e-06
1.36474e-06
1.36273e-06
1.36087e-06
1.35916e-06
1.35758e-06
1.35614e-06
1.35484e-06
1.35367e-06
1.3526e-06
1.35163e-06
1.35075e-06
1.34996e-06
1.34928e-06
1.34869e-06
1.34817e-06
1.34771e-06
1.34729e-06
1.3469e-06
1.34653e-06
1.34618e-06
1.34586e-06
1.34559e-06
1.34541e-06
1.34532e-06
1.34532e-06
1.34539e-06
1.34557e-06
1.34584e-06
9.28247e-07
9.23499e-07
9.19228e-07
9.15378e-07
9.11896e-07
9.08735e-07
9.05856e-07
9.03232e-07
9.00841e-07
8.98665e-07
8.96683e-07
8.94873e-07
8.93217e-07
8.91695e-07
8.90297e-07
8.89012e-07
8.87835e-07
8.86759e-07
8.85775e-07
8.84877e-07
8.84057e-07
8.83313e-07
8.82644e-07
8.82048e-07
8.8152e-07
8.81052e-07
8.80634e-07
8.80257e-07
8.79914e-07
8.79598e-07
8.7931e-07
8.79051e-07
8.78832e-07
8.78661e-07
8.78546e-07
8.7852e-07
8.78552e-07
8.78635e-07
9.25718e-07
9.23512e-07
9.21507e-07
9.19682e-07
9.18018e-07
9.16496e-07
9.151e-07
9.13819e-07
9.12641e-07
9.11558e-07
9.10562e-07
9.09648e-07
9.08814e-07
9.08054e-07
9.07361e-07
9.06728e-07
9.06151e-07
9.05624e-07
9.05145e-07
9.04709e-07
9.04317e-07
9.0397e-07
9.03664e-07
9.03394e-07
9.03153e-07
9.02937e-07
9.02743e-07
9.0257e-07
9.02418e-07
9.02289e-07
9.02183e-07
9.02101e-07
9.02043e-07
9.02006e-07
9.01978e-07
9.01966e-07
9.01967e-07
9.01981e-07
8.71025e-07
8.69594e-07
8.68316e-07
8.67171e-07
8.66143e-07
8.65217e-07
8.64381e-07
8.63623e-07
8.62934e-07
8.62307e-07
8.61736e-07
8.61214e-07
8.60737e-07
8.60302e-07
8.59904e-07
8.59539e-07
8.59205e-07
8.58898e-07
8.58617e-07
8.58359e-07
8.58124e-07
8.5791e-07
8.57717e-07
8.57543e-07
8.57387e-07
8.57248e-07
8.57124e-07
8.57011e-07
8.5691e-07
8.56817e-07
8.56734e-07
8.56661e-07
8.56598e-07
8.56546e-07
8.56505e-07
8.56481e-07
8.56474e-07
8.56475e-07
8.96258e-07
8.94593e-07
8.93116e-07
8.91798e-07
8.90618e-07
8.89558e-07
8.88604e-07
8.87742e-07
8.86962e-07
8.86254e-07
8.85609e-07
8.85019e-07
8.8448e-07
8.83988e-07
8.83541e-07
8.83132e-07
8.82756e-07
8.8241e-07
8.82091e-07
8.81799e-07
8.81529e-07
8.81281e-07
8.81056e-07
8.80852e-07
8.80669e-07
8.80506e-07
8.80361e-07
8.80232e-07
8.80115e-07
8.80008e-07
8.79909e-07
8.79819e-07
8.79738e-07
8.79667e-07
8.79608e-07
8.79561e-07
8.79542e-07
8.79538e-07
9.04473e-07
9.02709e-07
9.01148e-07
8.99756e-07
8.98511e-07
8.97394e-07
8.96388e-07
8.9548e-07
8.94659e-07
8.93912e-07
8.9323e-07
8.92606e-07
8.92037e-07
8.9152e-07
8.9105e-07
8.90623e-07
8.90231e-07
8.89869e-07
8.89537e-07
8.8923e-07
8.88947e-07
8.88687e-07
8.8845e-07
8.88234e-07
8.88039e-07
8.87863e-07
8.87707e-07
8.87569e-07
8.87445e-07
8.87331e-07
8.87229e-07
8.87136e-07
8.87051e-07
8.86973e-07
8.86905e-07
8.86849e-07
8.86819e-07
8.8681e-07
9.06191e-07
9.04401e-07
9.02816e-07
9.01404e-07
9.00142e-07
8.99009e-07
8.9799e-07
8.97071e-07
8.96237e-07
8.95477e-07
8.94782e-07
8.94147e-07
8.9357e-07
8.93047e-07
8.92573e-07
8.92141e-07
8.91746e-07
8.91383e-07
8.9105e-07
8.90742e-07
8.90457e-07
8.90195e-07
8.89958e-07
8.89741e-07
8.89541e-07
8.89359e-07
8.89196e-07
8.89053e-07
8.88926e-07
8.88813e-07
8.88713e-07
8.88623e-07
8.88539e-07
8.8846e-07
8.88389e-07
8.88329e-07
8.8829e-07
8.8828e-07
9.04627e-07
9.03035e-07
9.01616e-07
9.00347e-07
8.99211e-07
8.9819e-07
8.97269e-07
8.96431e-07
8.95666e-07
8.94966e-07
8.9433e-07
8.93753e-07
8.9323e-07
8.92755e-07
8.92323e-07
8.91929e-07
8.91569e-07
8.91239e-07
8.90933e-07
8.90649e-07
8.90389e-07
8.90154e-07
8.89938e-07
8.89738e-07
8.89553e-07
8.89387e-07
8.8924e-07
8.89113e-07
8.89003e-07
8.88907e-07
8.8882e-07
8.88738e-07
8.8866e-07
8.88589e-07
8.88525e-07
8.88478e-07
8.88467e-07
9.04636e-07
9.03038e-07
9.01612e-07
9.00338e-07
8.99198e-07
8.98176e-07
8.97251e-07
8.9641e-07
8.95643e-07
8.94943e-07
8.94307e-07
8.93732e-07
8.93211e-07
8.92739e-07
8.92308e-07
8.91915e-07
8.91556e-07
8.91228e-07
8.90924e-07
8.90642e-07
8.90385e-07
8.90151e-07
8.89936e-07
8.89736e-07
8.89551e-07
8.89385e-07
8.89239e-07
8.89113e-07
8.89006e-07
8.88913e-07
8.88829e-07
8.88748e-07
8.8867e-07
8.88597e-07
8.88531e-07
8.88477e-07
8.88462e-07
9.04423e-07
9.02822e-07
9.01392e-07
9.00113e-07
8.98971e-07
8.97946e-07
8.9702e-07
8.96179e-07
8.95412e-07
8.94714e-07
8.9408e-07
8.93508e-07
8.92992e-07
8.92524e-07
8.92096e-07
8.91704e-07
8.91345e-07
8.91016e-07
8.90715e-07
8.90437e-07
8.90182e-07
8.89949e-07
8.89734e-07
8.89536e-07
8.89355e-07
8.89193e-07
8.8905e-07
8.88926e-07
8.88822e-07
8.88731e-07
8.88648e-07
8.88568e-07
8.8849e-07
8.88416e-07
8.88348e-07
8.88288e-07
8.88267e-07
8.88271e-07
9.0273e-07
9.01147e-07
8.99732e-07
8.98465e-07
8.97333e-07
8.96318e-07
8.95402e-07
8.94571e-07
8.93814e-07
8.93126e-07
8.92502e-07
8.91939e-07
8.91433e-07
8.90973e-07
8.90553e-07
8.90166e-07
8.89809e-07
8.89484e-07
8.89187e-07
8.88915e-07
8.88665e-07
8.88436e-07
8.88225e-07
8.88033e-07
8.87859e-07
8.87705e-07
8.87568e-07
8.8745e-07
8.87348e-07
8.87259e-07
8.87177e-07
8.87098e-07
8.8702e-07
8.86945e-07
8.86877e-07
8.86817e-07
8.86789e-07
8.86793e-07
8.94599e-07
8.93101e-07
8.91761e-07
8.9056e-07
8.89486e-07
8.88522e-07
8.87652e-07
8.86862e-07
8.86144e-07
8.85493e-07
8.84902e-07
8.84369e-07
8.83887e-07
8.8345e-07
8.8305e-07
8.82681e-07
8.82341e-07
8.82032e-07
8.8175e-07
8.81493e-07
8.81257e-07
8.81042e-07
8.80845e-07
8.80667e-07
8.80509e-07
8.80368e-07
8.80244e-07
8.80135e-07
8.80038e-07
8.79952e-07
8.79872e-07
8.79795e-07
8.7972e-07
8.79649e-07
8.79586e-07
8.79531e-07
8.79507e-07
8.79515e-07
8.69568e-07
8.68279e-07
8.67124e-07
8.66088e-07
8.65157e-07
8.64317e-07
8.63556e-07
8.62864e-07
8.62236e-07
8.61666e-07
8.61149e-07
8.60679e-07
8.60251e-07
8.5986e-07
8.59501e-07
8.59172e-07
8.58871e-07
8.58597e-07
8.58348e-07
8.5812e-07
8.57913e-07
8.57724e-07
8.57554e-07
8.57403e-07
8.57268e-07
8.57149e-07
8.57042e-07
8.56946e-07
8.56857e-07
8.56776e-07
8.567e-07
8.56629e-07
8.56565e-07
8.5651e-07
8.56467e-07
8.56433e-07
8.56432e-07
8.56449e-07
9.23351e-07
9.21356e-07
9.19555e-07
9.17923e-07
9.16433e-07
9.15066e-07
9.13812e-07
9.12667e-07
9.11626e-07
9.10676e-07
9.09807e-07
9.09007e-07
9.0827e-07
9.07588e-07
9.0696e-07
9.06383e-07
9.05857e-07
9.05375e-07
9.04932e-07
9.04525e-07
9.04154e-07
9.03821e-07
9.03526e-07
9.03266e-07
9.03034e-07
9.02824e-07
9.0263e-07
9.02451e-07
9.02287e-07
9.02139e-07
9.0201e-07
9.01907e-07
9.01838e-07
9.01808e-07
9.01812e-07
9.01828e-07
9.01864e-07
9.01925e-07
1.11867e-06
1.11602e-06
1.11362e-06
1.11145e-06
1.10947e-06
1.10767e-06
1.10602e-06
1.10451e-06
1.10313e-06
1.10187e-06
1.1007e-06
1.09964e-06
1.09867e-06
1.09778e-06
1.09697e-06
1.09623e-06
1.09555e-06
1.09493e-06
1.09437e-06
1.09386e-06
1.0934e-06
1.09298e-06
1.09262e-06
1.09229e-06
1.092e-06
1.09174e-06
1.09151e-06
1.0913e-06
1.09111e-06
1.09095e-06
1.09082e-06
1.09071e-06
1.09063e-06
1.09057e-06
1.09054e-06
1.09053e-06
1.09053e-06
1.09055e-06
7.97142e-07
7.96312e-07
7.95579e-07
7.94925e-07
7.94341e-07
7.93817e-07
7.93346e-07
7.92921e-07
7.92537e-07
7.92188e-07
7.91872e-07
7.91582e-07
7.91317e-07
7.91075e-07
7.90853e-07
7.90651e-07
7.90466e-07
7.90296e-07
7.90139e-07
7.89994e-07
7.8986e-07
7.89734e-07
7.89619e-07
7.89513e-07
7.89419e-07
7.89336e-07
7.89264e-07
7.892e-07
7.89142e-07
7.89089e-07
7.89039e-07
7.88991e-07
7.88946e-07
7.88903e-07
7.88865e-07
7.88833e-07
7.8881e-07
7.88793e-07
7.44143e-07
7.43215e-07
7.42401e-07
7.41682e-07
7.41044e-07
7.40475e-07
7.39967e-07
7.39511e-07
7.391e-07
7.3873e-07
7.38394e-07
7.38086e-07
7.37805e-07
7.37548e-07
7.37314e-07
7.37101e-07
7.36905e-07
7.36725e-07
7.36558e-07
7.36403e-07
7.36259e-07
7.36124e-07
7.35999e-07
7.35884e-07
7.3578e-07
7.35687e-07
7.35605e-07
7.35531e-07
7.35464e-07
7.35401e-07
7.35342e-07
7.35285e-07
7.35231e-07
7.35179e-07
7.35132e-07
7.35089e-07
7.35056e-07
7.35031e-07
7.24018e-07
7.22996e-07
7.22101e-07
7.21313e-07
7.20614e-07
7.19991e-07
7.19434e-07
7.18936e-07
7.18487e-07
7.18082e-07
7.17712e-07
7.17373e-07
7.17064e-07
7.16783e-07
7.16528e-07
7.16296e-07
7.16084e-07
7.15888e-07
7.15708e-07
7.1554e-07
7.15383e-07
7.15237e-07
7.15103e-07
7.14978e-07
7.14864e-07
7.14759e-07
7.14666e-07
7.14582e-07
7.14506e-07
7.14435e-07
7.14371e-07
7.1431e-07
7.14252e-07
7.14195e-07
7.14141e-07
7.14093e-07
7.14052e-07
7.14021e-07
7.16034e-07
7.14973e-07
7.14045e-07
7.13226e-07
7.12501e-07
7.11855e-07
7.11279e-07
7.10762e-07
7.10296e-07
7.09873e-07
7.09487e-07
7.09133e-07
7.08811e-07
7.0852e-07
7.08256e-07
7.08016e-07
7.07798e-07
7.07597e-07
7.07412e-07
7.07241e-07
7.0708e-07
7.06931e-07
7.06794e-07
7.06667e-07
7.06548e-07
7.06438e-07
7.06337e-07
7.06246e-07
7.06165e-07
7.06093e-07
7.06028e-07
7.05968e-07
7.0591e-07
7.05853e-07
7.05798e-07
7.05745e-07
7.05699e-07
7.05663e-07
7.12381e-07
7.11441e-07
7.1061e-07
7.09874e-07
7.09219e-07
7.08636e-07
7.08113e-07
7.07641e-07
7.0721e-07
7.06817e-07
7.06458e-07
7.06132e-07
7.05838e-07
7.05572e-07
7.0533e-07
7.0511e-07
7.04909e-07
7.04725e-07
7.04554e-07
7.04394e-07
7.04246e-07
7.0411e-07
7.03983e-07
7.03864e-07
7.0375e-07
7.03645e-07
7.03551e-07
7.03469e-07
7.03397e-07
7.03335e-07
7.03278e-07
7.03222e-07
7.03166e-07
7.0311e-07
7.03056e-07
7.03006e-07
7.02966e-07
7.12392e-07
7.11448e-07
7.10612e-07
7.0987e-07
7.09212e-07
7.08626e-07
7.08101e-07
7.07626e-07
7.07192e-07
7.06797e-07
7.06438e-07
7.06113e-07
7.0582e-07
7.05555e-07
7.05315e-07
7.05096e-07
7.04896e-07
7.04713e-07
7.04543e-07
7.04386e-07
7.0424e-07
7.04105e-07
7.0398e-07
7.0386e-07
7.03747e-07
7.03642e-07
7.03548e-07
7.03466e-07
7.03397e-07
7.03338e-07
7.03284e-07
7.03231e-07
7.03176e-07
7.0312e-07
7.03064e-07
7.03011e-07
7.02967e-07
7.15001e-07
7.14062e-07
7.13229e-07
7.1249e-07
7.11833e-07
7.11249e-07
7.10726e-07
7.10253e-07
7.09823e-07
7.09431e-07
7.09075e-07
7.08755e-07
7.08467e-07
7.08208e-07
7.07973e-07
7.07757e-07
7.07558e-07
7.07377e-07
7.0721e-07
7.07055e-07
7.06913e-07
7.0678e-07
7.06656e-07
7.06539e-07
7.06429e-07
7.06328e-07
7.06238e-07
7.06159e-07
7.06094e-07
7.06038e-07
7.05986e-07
7.05935e-07
7.05882e-07
7.05826e-07
7.05769e-07
7.05714e-07
7.05667e-07
7.0563e-07
7.23029e-07
7.2212e-07
7.21313e-07
7.20595e-07
7.19957e-07
7.19391e-07
7.18883e-07
7.18425e-07
7.18009e-07
7.1763e-07
7.17288e-07
7.1698e-07
7.16705e-07
7.16458e-07
7.16232e-07
7.16024e-07
7.15832e-07
7.15656e-07
7.15495e-07
7.15347e-07
7.1521e-07
7.15082e-07
7.14962e-07
7.14851e-07
7.14747e-07
7.14654e-07
7.14571e-07
7.145e-07
7.1444e-07
7.14388e-07
7.1434e-07
7.14292e-07
7.1424e-07
7.14186e-07
7.1413e-07
7.14076e-07
7.14027e-07
7.13988e-07
7.43242e-07
7.42414e-07
7.41678e-07
7.41022e-07
7.40439e-07
7.39921e-07
7.39456e-07
7.39037e-07
7.38656e-07
7.38311e-07
7.37998e-07
7.37718e-07
7.37467e-07
7.37241e-07
7.37035e-07
7.36844e-07
7.36668e-07
7.36506e-07
7.36358e-07
7.36222e-07
7.36097e-07
7.3598e-07
7.35871e-07
7.35769e-07
7.35677e-07
7.35595e-07
7.35523e-07
7.35462e-07
7.3541e-07
7.35364e-07
7.35322e-07
7.35279e-07
7.35232e-07
7.35183e-07
7.35132e-07
7.35083e-07
7.35038e-07
7.35004e-07
7.9632e-07
7.95578e-07
7.94914e-07
7.94322e-07
7.93792e-07
7.93319e-07
7.92892e-07
7.92505e-07
7.92153e-07
7.91833e-07
7.91543e-07
7.91282e-07
7.91046e-07
7.90833e-07
7.90638e-07
7.90457e-07
7.90289e-07
7.90134e-07
7.89992e-07
7.89861e-07
7.8974e-07
7.89627e-07
7.89521e-07
7.89423e-07
7.89335e-07
7.89258e-07
7.89192e-07
7.89137e-07
7.8909e-07
7.8905e-07
7.89014e-07
7.88978e-07
7.8894e-07
7.889e-07
7.88862e-07
7.88826e-07
7.88797e-07
7.88776e-07
1.11586e-06
1.11347e-06
1.11131e-06
1.10936e-06
1.10758e-06
1.10596e-06
1.10447e-06
1.10311e-06
1.10188e-06
1.10076e-06
1.09973e-06
1.09879e-06
1.09792e-06
1.09712e-06
1.09639e-06
1.09572e-06
1.0951e-06
1.09454e-06
1.09403e-06
1.09356e-06
1.09314e-06
1.09275e-06
1.09241e-06
1.09211e-06
1.09185e-06
1.0916e-06
1.09138e-06
1.09118e-06
1.09099e-06
1.09082e-06
1.09067e-06
1.09054e-06
1.09044e-06
1.09039e-06
1.09037e-06
1.09038e-06
1.09042e-06
1.09049e-06
1.22025e-06
1.21734e-06
1.2147e-06
1.21231e-06
1.21013e-06
1.20814e-06
1.20633e-06
1.20468e-06
1.20317e-06
1.20178e-06
1.20052e-06
1.19936e-06
1.19831e-06
1.19735e-06
1.19647e-06
1.19567e-06
1.19493e-06
1.19426e-06
1.19365e-06
1.1931e-06
1.19259e-06
1.19215e-06
1.19175e-06
1.19139e-06
1.19107e-06
1.19079e-06
1.19053e-06
1.1903e-06
1.19009e-06
1.18991e-06
1.18976e-06
1.18964e-06
1.18955e-06
1.18948e-06
1.18944e-06
1.18943e-06
1.18943e-06
1.18944e-06
7.70125e-07
7.69405e-07
7.68771e-07
7.68208e-07
7.67707e-07
7.67258e-07
7.66855e-07
7.66493e-07
7.66168e-07
7.65875e-07
7.65609e-07
7.65367e-07
7.65145e-07
7.64941e-07
7.64756e-07
7.64588e-07
7.64434e-07
7.64292e-07
7.6416e-07
7.64039e-07
7.63925e-07
7.63816e-07
7.63714e-07
7.6362e-07
7.63537e-07
7.63466e-07
7.63406e-07
7.63353e-07
7.63305e-07
7.6326e-07
7.63218e-07
7.63175e-07
7.63133e-07
7.63091e-07
7.63052e-07
7.6302e-07
7.62996e-07
7.62979e-07
6.72371e-07
6.71661e-07
6.71044e-07
6.70503e-07
6.70028e-07
6.69606e-07
6.69232e-07
6.68898e-07
6.686e-07
6.68332e-07
6.68089e-07
6.67868e-07
6.67666e-07
6.67481e-07
6.67313e-07
6.67161e-07
6.67021e-07
6.66892e-07
6.66772e-07
6.66661e-07
6.66557e-07
6.66458e-07
6.66365e-07
6.6628e-07
6.66202e-07
6.66133e-07
6.66072e-07
6.66017e-07
6.65967e-07
6.6592e-07
6.65874e-07
6.6583e-07
6.65787e-07
6.65744e-07
6.65703e-07
6.65667e-07
6.65636e-07
6.65611e-07
6.34769e-07
6.3399e-07
6.33314e-07
6.32723e-07
6.32204e-07
6.31744e-07
6.31337e-07
6.30973e-07
6.30648e-07
6.30356e-07
6.3009e-07
6.29848e-07
6.29627e-07
6.29426e-07
6.29244e-07
6.29079e-07
6.28928e-07
6.28789e-07
6.28661e-07
6.28541e-07
6.28429e-07
6.28324e-07
6.28226e-07
6.28135e-07
6.28051e-07
6.27974e-07
6.27905e-07
6.27842e-07
6.27785e-07
6.27732e-07
6.27682e-07
6.27635e-07
6.27589e-07
6.27543e-07
6.27499e-07
6.27458e-07
6.27421e-07
6.2739e-07
6.20076e-07
6.19259e-07
6.1855e-07
6.1793e-07
6.17384e-07
6.16902e-07
6.16475e-07
6.16094e-07
6.15752e-07
6.15443e-07
6.15162e-07
6.14906e-07
6.14673e-07
6.14462e-07
6.14272e-07
6.14099e-07
6.13942e-07
6.13798e-07
6.13665e-07
6.13541e-07
6.13425e-07
6.13317e-07
6.13217e-07
6.13124e-07
6.13036e-07
6.12954e-07
6.12878e-07
6.1281e-07
6.12748e-07
6.12693e-07
6.12642e-07
6.12595e-07
6.12549e-07
6.12503e-07
6.12457e-07
6.12413e-07
6.12372e-07
6.12336e-07
6.14455e-07
6.13733e-07
6.131e-07
6.12542e-07
6.1205e-07
6.11614e-07
6.11225e-07
6.10876e-07
6.1056e-07
6.10272e-07
6.10009e-07
6.09772e-07
6.09557e-07
6.09364e-07
6.09189e-07
6.0903e-07
6.08884e-07
6.0875e-07
6.08626e-07
6.0851e-07
6.08403e-07
6.08303e-07
6.08209e-07
6.0812e-07
6.08036e-07
6.07957e-07
6.07886e-07
6.07822e-07
6.07767e-07
6.07718e-07
6.07673e-07
6.07629e-07
6.07583e-07
6.07537e-07
6.07491e-07
6.07447e-07
6.07408e-07
6.14464e-07
6.13738e-07
6.13101e-07
6.1254e-07
6.12045e-07
6.11606e-07
6.11216e-07
6.10864e-07
6.10546e-07
6.10256e-07
6.09993e-07
6.09756e-07
6.09542e-07
6.0935e-07
6.09176e-07
6.09018e-07
6.08873e-07
6.0874e-07
6.08617e-07
6.08503e-07
6.08397e-07
6.08298e-07
6.08206e-07
6.08117e-07
6.08033e-07
6.07954e-07
6.07883e-07
6.0782e-07
6.07767e-07
6.0772e-07
6.07678e-07
6.07635e-07
6.07591e-07
6.07545e-07
6.07498e-07
6.07452e-07
6.0741e-07
6.19281e-07
6.18564e-07
6.17934e-07
6.17378e-07
6.16887e-07
6.16453e-07
6.16066e-07
6.15718e-07
6.15404e-07
6.15118e-07
6.14859e-07
6.14627e-07
6.14419e-07
6.14232e-07
6.14063e-07
6.13907e-07
6.13765e-07
6.13635e-07
6.13515e-07
6.13404e-07
6.133e-07
6.13204e-07
6.13113e-07
6.13027e-07
6.12945e-07
6.1287e-07
6.12802e-07
6.12743e-07
6.12693e-07
6.1265e-07
6.1261e-07
6.1257e-07
6.12528e-07
6.12482e-07
6.12435e-07
6.12387e-07
6.12343e-07
6.12303e-07
6.34018e-07
6.33332e-07
6.32727e-07
6.32193e-07
6.31721e-07
6.31304e-07
6.30933e-07
6.306e-07
6.30298e-07
6.30025e-07
6.29779e-07
6.29558e-07
6.29362e-07
6.29185e-07
6.29025e-07
6.28878e-07
6.28742e-07
6.28617e-07
6.28502e-07
6.28397e-07
6.28299e-07
6.28207e-07
6.2812e-07
6.28038e-07
6.27962e-07
6.27893e-07
6.27832e-07
6.27779e-07
6.27734e-07
6.27696e-07
6.27661e-07
6.27624e-07
6.27584e-07
6.2754e-07
6.27493e-07
6.27446e-07
6.27401e-07
6.2736e-07
6.71687e-07
6.7106e-07
6.70505e-07
6.70014e-07
6.6958e-07
6.69197e-07
6.68856e-07
6.68549e-07
6.68272e-07
6.6802e-07
6.67794e-07
6.67592e-07
6.67412e-07
6.67251e-07
6.67104e-07
6.66968e-07
6.66843e-07
6.66727e-07
6.66621e-07
6.66524e-07
6.66433e-07
6.66347e-07
6.66266e-07
6.6619e-07
6.6612e-07
6.66059e-07
6.66006e-07
6.65961e-07
6.65925e-07
6.65894e-07
6.65865e-07
6.65834e-07
6.65798e-07
6.65757e-07
6.65713e-07
6.65668e-07
6.65625e-07
6.65587e-07
7.69413e-07
7.68772e-07
7.68201e-07
7.67691e-07
7.67237e-07
7.6683e-07
7.66465e-07
7.66136e-07
7.65837e-07
7.65565e-07
7.65321e-07
7.65102e-07
7.64905e-07
7.64728e-07
7.64566e-07
7.64416e-07
7.64277e-07
7.64147e-07
7.64028e-07
7.63919e-07
7.63816e-07
7.63717e-07
7.63623e-07
7.63535e-07
7.63456e-07
7.6339e-07
7.63334e-07
7.63291e-07
7.63258e-07
7.63232e-07
7.63209e-07
7.63184e-07
7.63152e-07
7.63114e-07
7.63073e-07
7.63032e-07
7.62995e-07
7.62965e-07
1.21715e-06
1.21452e-06
1.21216e-06
1.21002e-06
1.20806e-06
1.20627e-06
1.20463e-06
1.20314e-06
1.20179e-06
1.20057e-06
1.19944e-06
1.19841e-06
1.19746e-06
1.19659e-06
1.1958e-06
1.19507e-06
1.19441e-06
1.1938e-06
1.19325e-06
1.19274e-06
1.19228e-06
1.19187e-06
1.19151e-06
1.19118e-06
1.1909e-06
1.19064e-06
1.1904e-06
1.19018e-06
1.18997e-06
1.18978e-06
1.18961e-06
1.18947e-06
1.18936e-06
1.18929e-06
1.18926e-06
1.18927e-06
1.1893e-06
1.18937e-06
1.27766e-06
1.27455e-06
1.27173e-06
1.26917e-06
1.26685e-06
1.26473e-06
1.2628e-06
1.26103e-06
1.25942e-06
1.25794e-06
1.25658e-06
1.25535e-06
1.25422e-06
1.2532e-06
1.25228e-06
1.25144e-06
1.25067e-06
1.24996e-06
1.24932e-06
1.24873e-06
1.24821e-06
1.24773e-06
1.24731e-06
1.24694e-06
1.2466e-06
1.2463e-06
1.24602e-06
1.24578e-06
1.24556e-06
1.24537e-06
1.24521e-06
1.24508e-06
1.24498e-06
1.2449e-06
1.24486e-06
1.24484e-06
1.24483e-06
1.24484e-06
7.54488e-07
7.538e-07
7.53195e-07
7.5266e-07
7.52184e-07
7.51758e-07
7.51377e-07
7.51035e-07
7.50726e-07
7.50446e-07
7.50193e-07
7.49962e-07
7.49751e-07
7.49561e-07
7.49389e-07
7.49233e-07
7.49092e-07
7.48961e-07
7.48839e-07
7.48726e-07
7.4862e-07
7.48518e-07
7.4842e-07
7.48329e-07
7.48251e-07
7.48185e-07
7.48128e-07
7.48078e-07
7.48034e-07
7.47992e-07
7.47953e-07
7.47913e-07
7.47873e-07
7.47832e-07
7.47796e-07
7.47767e-07
7.47747e-07
7.47733e-07
6.28956e-07
6.28364e-07
6.27852e-07
6.27408e-07
6.27018e-07
6.26676e-07
6.26373e-07
6.26104e-07
6.25864e-07
6.2565e-07
6.25457e-07
6.25281e-07
6.25122e-07
6.24976e-07
6.24843e-07
6.24723e-07
6.24613e-07
6.24512e-07
6.24418e-07
6.2433e-07
6.24248e-07
6.24169e-07
6.24095e-07
6.24026e-07
6.23964e-07
6.23909e-07
6.2386e-07
6.23816e-07
6.23775e-07
6.23738e-07
6.23701e-07
6.23666e-07
6.2363e-07
6.23594e-07
6.23561e-07
6.2353e-07
6.23505e-07
6.23483e-07
5.79449e-07
5.78813e-07
5.78265e-07
5.77789e-07
5.77374e-07
5.77008e-07
5.76686e-07
5.764e-07
5.76146e-07
5.75918e-07
5.75713e-07
5.75526e-07
5.75356e-07
5.75202e-07
5.75063e-07
5.74936e-07
5.74821e-07
5.74714e-07
5.74616e-07
5.74525e-07
5.74439e-07
5.74358e-07
5.74283e-07
5.74213e-07
5.74148e-07
5.74089e-07
5.74035e-07
5.73986e-07
5.73941e-07
5.739e-07
5.73861e-07
5.73823e-07
5.73786e-07
5.7375e-07
5.73714e-07
5.73681e-07
5.73651e-07
5.73624e-07
5.59663e-07
5.58993e-07
5.58416e-07
5.57915e-07
5.57477e-07
5.57092e-07
5.56752e-07
5.56451e-07
5.56182e-07
5.55941e-07
5.55722e-07
5.55524e-07
5.55344e-07
5.55181e-07
5.55035e-07
5.54902e-07
5.54781e-07
5.5467e-07
5.54568e-07
5.54473e-07
5.54385e-07
5.54302e-07
5.54225e-07
5.54153e-07
5.54086e-07
5.54022e-07
5.53964e-07
5.53911e-07
5.53863e-07
5.53819e-07
5.53779e-07
5.53741e-07
5.53704e-07
5.53667e-07
5.5363e-07
5.53595e-07
5.53561e-07
5.5353e-07
5.52336e-07
5.51745e-07
5.51231e-07
5.50781e-07
5.50386e-07
5.50038e-07
5.49729e-07
5.49453e-07
5.49204e-07
5.48979e-07
5.48775e-07
5.48591e-07
5.48424e-07
5.48275e-07
5.48139e-07
5.48016e-07
5.47904e-07
5.47801e-07
5.47705e-07
5.47616e-07
5.47533e-07
5.47456e-07
5.47384e-07
5.47315e-07
5.4725e-07
5.47189e-07
5.47134e-07
5.47084e-07
5.4704e-07
5.47001e-07
5.46965e-07
5.46929e-07
5.46892e-07
5.46855e-07
5.46818e-07
5.46781e-07
5.46748e-07
5.52342e-07
5.51749e-07
5.51233e-07
5.5078e-07
5.50382e-07
5.50032e-07
5.49722e-07
5.49444e-07
5.49194e-07
5.48967e-07
5.48762e-07
5.48578e-07
5.48412e-07
5.48264e-07
5.48129e-07
5.48007e-07
5.47895e-07
5.47792e-07
5.47698e-07
5.4761e-07
5.47528e-07
5.47452e-07
5.4738e-07
5.47312e-07
5.47248e-07
5.47187e-07
5.47132e-07
5.47083e-07
5.4704e-07
5.47003e-07
5.46969e-07
5.46934e-07
5.46899e-07
5.46862e-07
5.46824e-07
5.46786e-07
5.4675e-07
5.59009e-07
5.58427e-07
5.57918e-07
5.57472e-07
5.5708e-07
5.56735e-07
5.56429e-07
5.56156e-07
5.5591e-07
5.55687e-07
5.55487e-07
5.55307e-07
5.55146e-07
5.55002e-07
5.54872e-07
5.54753e-07
5.54644e-07
5.54544e-07
5.54452e-07
5.54367e-07
5.54288e-07
5.54214e-07
5.54144e-07
5.54078e-07
5.54015e-07
5.53957e-07
5.53905e-07
5.53859e-07
5.5382e-07
5.53786e-07
5.53754e-07
5.53722e-07
5.53688e-07
5.53651e-07
5.53613e-07
5.53574e-07
5.53537e-07
5.53501e-07
5.78835e-07
5.78279e-07
5.77793e-07
5.77365e-07
5.7699e-07
5.7666e-07
5.76368e-07
5.76107e-07
5.75872e-07
5.7566e-07
5.7547e-07
5.753e-07
5.75148e-07
5.75013e-07
5.7489e-07
5.74778e-07
5.74674e-07
5.74579e-07
5.74492e-07
5.74412e-07
5.74337e-07
5.74266e-07
5.74199e-07
5.74136e-07
5.74078e-07
5.74025e-07
5.73978e-07
5.73938e-07
5.73904e-07
5.73875e-07
5.73847e-07
5.73819e-07
5.73787e-07
5.73751e-07
5.73712e-07
5.73673e-07
5.73635e-07
5.73599e-07
6.28387e-07
6.27867e-07
6.27409e-07
6.27007e-07
6.26654e-07
6.26343e-07
6.26067e-07
6.2582e-07
6.25598e-07
6.25397e-07
6.25217e-07
6.25057e-07
6.24914e-07
6.24786e-07
6.2467e-07
6.24564e-07
6.24466e-07
6.24375e-07
6.24293e-07
6.24217e-07
6.24145e-07
6.24077e-07
6.24012e-07
6.23951e-07
6.23895e-07
6.23847e-07
6.23806e-07
6.23773e-07
6.23746e-07
6.23724e-07
6.23703e-07
6.23679e-07
6.2365e-07
6.23616e-07
6.23577e-07
6.23537e-07
6.23499e-07
6.23464e-07
7.53809e-07
7.53197e-07
7.52652e-07
7.52168e-07
7.51736e-07
7.51351e-07
7.51005e-07
7.50692e-07
7.50408e-07
7.50151e-07
7.49919e-07
7.4971e-07
7.49522e-07
7.49351e-07
7.49197e-07
7.49057e-07
7.48928e-07
7.48809e-07
7.48701e-07
7.48601e-07
7.48506e-07
7.48414e-07
7.48324e-07
7.48242e-07
7.4817e-07
7.48109e-07
7.48061e-07
7.48025e-07
7.48001e-07
7.47983e-07
7.47967e-07
7.47947e-07
7.47917e-07
7.47878e-07
7.47835e-07
7.47791e-07
7.4775e-07
7.47719e-07
1.27434e-06
1.27154e-06
1.26902e-06
1.26674e-06
1.26466e-06
1.26276e-06
1.26101e-06
1.25943e-06
1.25799e-06
1.25668e-06
1.25548e-06
1.25438e-06
1.25336e-06
1.25242e-06
1.25157e-06
1.2508e-06
1.2501e-06
1.24946e-06
1.24888e-06
1.24835e-06
1.24787e-06
1.24744e-06
1.24706e-06
1.24672e-06
1.24642e-06
1.24615e-06
1.24589e-06
1.24566e-06
1.24544e-06
1.24523e-06
1.24505e-06
1.24489e-06
1.24477e-06
1.2447e-06
1.24466e-06
1.24466e-06
1.24469e-06
1.24475e-06
1.31051e-06
1.30727e-06
1.30433e-06
1.30166e-06
1.29924e-06
1.29704e-06
1.29502e-06
1.29319e-06
1.2915e-06
1.28996e-06
1.28856e-06
1.28727e-06
1.2861e-06
1.28504e-06
1.28408e-06
1.28321e-06
1.28241e-06
1.28168e-06
1.28102e-06
1.28042e-06
1.27987e-06
1.27938e-06
1.27895e-06
1.27856e-06
1.27821e-06
1.2779e-06
1.27761e-06
1.27736e-06
1.27713e-06
1.27694e-06
1.27677e-06
1.27663e-06
1.27652e-06
1.27644e-06
1.27639e-06
1.27637e-06
1.27636e-06
1.27636e-06
7.44297e-07
7.43631e-07
7.43046e-07
7.4253e-07
7.42071e-07
7.41662e-07
7.41296e-07
7.40967e-07
7.4067e-07
7.40402e-07
7.40158e-07
7.39937e-07
7.39734e-07
7.39549e-07
7.39383e-07
7.39236e-07
7.39102e-07
7.38977e-07
7.38862e-07
7.38754e-07
7.38653e-07
7.38555e-07
7.3846e-07
7.38373e-07
7.38297e-07
7.38233e-07
7.38178e-07
7.38129e-07
7.38085e-07
7.38045e-07
7.38008e-07
7.3797e-07
7.37932e-07
7.37894e-07
7.37862e-07
7.37839e-07
7.37822e-07
7.3781e-07
6.01009e-07
6.00503e-07
6.00068e-07
5.99692e-07
5.99365e-07
5.99078e-07
5.98826e-07
5.98604e-07
5.98406e-07
5.9823e-07
5.98071e-07
5.97928e-07
5.97798e-07
5.97679e-07
5.97571e-07
5.97474e-07
5.97385e-07
5.97303e-07
5.97227e-07
5.97156e-07
5.97089e-07
5.97025e-07
5.96964e-07
5.96907e-07
5.96856e-07
5.9681e-07
5.9677e-07
5.96734e-07
5.96701e-07
5.9667e-07
5.9664e-07
5.96611e-07
5.96582e-07
5.96553e-07
5.96525e-07
5.96502e-07
5.96481e-07
5.96465e-07
5.43123e-07
5.42595e-07
5.42142e-07
5.41752e-07
5.41413e-07
5.41117e-07
5.40858e-07
5.40629e-07
5.40426e-07
5.40246e-07
5.40083e-07
5.39937e-07
5.39804e-07
5.39684e-07
5.39575e-07
5.39477e-07
5.39387e-07
5.39304e-07
5.39228e-07
5.39157e-07
5.39091e-07
5.39028e-07
5.38969e-07
5.38915e-07
5.38864e-07
5.38818e-07
5.38776e-07
5.38738e-07
5.38703e-07
5.38671e-07
5.3864e-07
5.3861e-07
5.38581e-07
5.38553e-07
5.38525e-07
5.38499e-07
5.38475e-07
5.38454e-07
5.19406e-07
5.1885e-07
5.18374e-07
5.17963e-07
5.17606e-07
5.17294e-07
5.1702e-07
5.16778e-07
5.16564e-07
5.16372e-07
5.162e-07
5.16045e-07
5.15904e-07
5.15777e-07
5.15663e-07
5.1556e-07
5.15466e-07
5.1538e-07
5.15301e-07
5.15227e-07
5.15159e-07
5.15095e-07
5.15036e-07
5.1498e-07
5.14928e-07
5.1488e-07
5.14835e-07
5.14794e-07
5.14756e-07