/*--------------------------------*- C++ -*----------------------------------*\
| =========                 |                                                 |
| \\      /  F ield         | OpenFOAM: The Open Source CFD Toolbox           |
|  \\    /   O peration     | Version:  2.3.1                                 |
|   \\  /    A nd           | Web:      www.OpenFOAM.org                      |
|    \\/     M anipulation  |                                                 |
\*---------------------------------------------------------------------------*/
FoamFile
{
    version     2.0;
    format      ascii;
    class       volScalarField;
    location    "10";
    object      k;
}
// * * * * * * * * * * * * * * * * * * * * * * * * * * * * * * * * * * * * * //

dimensions      [0 2 -2 0 0 0 0];

internalField   nonuniform List<scalar> 
38262
(
5.55798e-06
5.53714e-06
5.51836e-06
5.50139e-06
5.486e-06
5.47203e-06
5.4593e-06
5.44769e-06
5.43707e-06
5.42733e-06
5.41841e-06
5.41023e-06
5.40273e-06
5.39586e-06
5.38958e-06
5.38382e-06
5.37855e-06
5.37372e-06
5.3693e-06
5.36526e-06
5.36158e-06
5.35826e-06
5.35529e-06
5.35263e-06
5.35026e-06
5.34815e-06
5.34626e-06
5.34458e-06
5.34308e-06
5.34174e-06
5.34058e-06
5.3396e-06
5.33879e-06
5.33818e-06
5.33781e-06
5.33763e-06
5.33759e-06
5.33768e-06
7.30154e-06
7.28142e-06
7.2632e-06
7.24672e-06
7.23177e-06
7.21818e-06
7.20578e-06
7.19446e-06
7.18408e-06
7.17457e-06
7.16585e-06
7.15789e-06
7.15063e-06
7.14402e-06
7.13798e-06
7.13245e-06
7.12738e-06
7.12277e-06
7.11858e-06
7.11478e-06
7.11138e-06
7.10838e-06
7.10575e-06
7.10342e-06
7.10135e-06
7.0995e-06
7.09781e-06
7.09629e-06
7.09493e-06
7.09378e-06
7.09284e-06
7.09214e-06
7.09168e-06
7.09145e-06
7.09144e-06
7.09163e-06
7.09198e-06
7.09242e-06
8.00979e-06
7.99198e-06
7.97582e-06
7.96116e-06
7.94785e-06
7.93575e-06
7.92471e-06
7.91463e-06
7.90539e-06
7.89691e-06
7.88916e-06
7.88212e-06
7.87574e-06
7.86994e-06
7.86464e-06
7.85977e-06
7.85533e-06
7.85129e-06
7.84763e-06
7.84434e-06
7.84142e-06
7.83885e-06
7.8366e-06
7.83463e-06
7.83289e-06
7.83135e-06
7.82997e-06
7.82872e-06
7.82762e-06
7.82672e-06
7.82601e-06
7.82549e-06
7.82518e-06
7.8251e-06
7.82522e-06
7.82549e-06
7.82595e-06
7.82647e-06
8.2725e-06
8.25572e-06
8.24045e-06
8.22656e-06
8.21394e-06
8.20246e-06
8.19201e-06
8.18245e-06
8.17368e-06
8.16566e-06
8.15837e-06
8.15178e-06
8.14584e-06
8.14044e-06
8.13548e-06
8.1309e-06
8.12672e-06
8.12291e-06
8.11947e-06
8.11636e-06
8.11362e-06
8.11121e-06
8.10909e-06
8.10724e-06
8.10563e-06
8.10424e-06
8.10304e-06
8.10197e-06
8.10104e-06
8.10027e-06
8.09964e-06
8.09915e-06
8.09885e-06
8.09878e-06
8.09892e-06
8.09925e-06
8.09975e-06
8.10034e-06
8.35708e-06
8.34061e-06
8.3256e-06
8.31197e-06
8.29959e-06
8.28832e-06
8.27803e-06
8.26862e-06
8.26e-06
8.25215e-06
8.24506e-06
8.23868e-06
8.23292e-06
8.22766e-06
8.22282e-06
8.21836e-06
8.21427e-06
8.21053e-06
8.20712e-06
8.20404e-06
8.20132e-06
8.19893e-06
8.1968e-06
8.19493e-06
8.19333e-06
8.19201e-06
8.19092e-06
8.18998e-06
8.18917e-06
8.18845e-06
8.18781e-06
8.18727e-06
8.1869e-06
8.18676e-06
8.18688e-06
8.18719e-06
8.18773e-06
8.18841e-06
8.36317e-06
8.34824e-06
8.3347e-06
8.32243e-06
8.31126e-06
8.30102e-06
8.29165e-06
8.28309e-06
8.27533e-06
8.26836e-06
8.26207e-06
8.25636e-06
8.25114e-06
8.24634e-06
8.24192e-06
8.23786e-06
8.23412e-06
8.2307e-06
8.22759e-06
8.22485e-06
8.22242e-06
8.22025e-06
8.21832e-06
8.2167e-06
8.21541e-06
8.21437e-06
8.21352e-06
8.21276e-06
8.21205e-06
8.21136e-06
8.21073e-06
8.21028e-06
8.21007e-06
8.21014e-06
8.21043e-06
8.21098e-06
8.21175e-06
8.36283e-06
8.34792e-06
8.33447e-06
8.3223e-06
8.31121e-06
8.30103e-06
8.2917e-06
8.28321e-06
8.27553e-06
8.26863e-06
8.26239e-06
8.2567e-06
8.25147e-06
8.24665e-06
8.24222e-06
8.23816e-06
8.23443e-06
8.231e-06
8.22788e-06
8.22511e-06
8.22264e-06
8.22042e-06
8.21847e-06
8.21684e-06
8.21554e-06
8.21451e-06
8.21366e-06
8.2129e-06
8.21215e-06
8.2114e-06
8.2107e-06
8.21017e-06
8.2099e-06
8.20993e-06
8.2102e-06
8.21074e-06
8.21158e-06
8.3397e-06
8.32476e-06
8.31133e-06
8.29922e-06
8.28819e-06
8.27807e-06
8.26878e-06
8.26033e-06
8.25269e-06
8.24581e-06
8.23957e-06
8.23387e-06
8.2286e-06
8.22372e-06
8.21922e-06
8.21512e-06
8.21139e-06
8.20798e-06
8.20487e-06
8.20206e-06
8.19955e-06
8.19731e-06
8.19537e-06
8.19373e-06
8.1924e-06
8.19131e-06
8.19039e-06
8.18956e-06
8.18874e-06
8.18792e-06
8.18716e-06
8.18657e-06
8.18625e-06
8.18625e-06
8.18651e-06
8.18704e-06
8.18791e-06
8.18895e-06
8.25449e-06
8.23931e-06
8.22568e-06
8.21341e-06
8.20226e-06
8.19203e-06
8.18264e-06
8.17409e-06
8.16636e-06
8.15937e-06
8.15304e-06
8.14722e-06
8.14182e-06
8.1368e-06
8.13217e-06
8.12797e-06
8.12419e-06
8.12075e-06
8.1176e-06
8.11474e-06
8.11217e-06
8.10989e-06
8.10792e-06
8.10625e-06
8.10484e-06
8.10364e-06
8.10259e-06
8.10163e-06
8.1007e-06
8.0998e-06
8.09897e-06
8.09832e-06
8.09795e-06
8.09792e-06
8.09817e-06
8.09868e-06
8.09953e-06
8.10064e-06
7.99065e-06
7.97458e-06
7.96014e-06
7.94716e-06
7.93536e-06
7.92456e-06
7.91466e-06
7.90563e-06
7.89746e-06
7.89006e-06
7.88333e-06
7.87714e-06
7.8714e-06
7.86607e-06
7.86115e-06
7.85669e-06
7.85268e-06
7.84905e-06
7.84574e-06
7.84272e-06
7.83998e-06
7.83756e-06
7.83546e-06
7.83365e-06
7.83209e-06
7.83072e-06
7.82948e-06
7.82833e-06
7.82725e-06
7.82622e-06
7.82529e-06
7.82455e-06
7.8241e-06
7.82399e-06
7.82417e-06
7.82459e-06
7.8254e-06
7.82649e-06
7.28008e-06
7.26187e-06
7.24551e-06
7.23076e-06
7.21736e-06
7.20511e-06
7.1939e-06
7.18369e-06
7.17442e-06
7.16602e-06
7.15836e-06
7.15133e-06
7.14484e-06
7.13883e-06
7.1333e-06
7.12826e-06
7.12371e-06
7.1196e-06
7.11586e-06
7.11244e-06
7.10935e-06
7.1066e-06
7.10419e-06
7.10211e-06
7.1003e-06
7.09869e-06
7.09721e-06
7.09583e-06
7.09452e-06
7.09329e-06
7.09218e-06
7.09125e-06
7.0906e-06
7.09028e-06
7.09028e-06
7.09053e-06
7.09117e-06
7.09212e-06
5.53626e-06
5.51736e-06
5.50033e-06
5.48496e-06
5.47104e-06
5.45839e-06
5.44685e-06
5.43632e-06
5.42672e-06
5.41798e-06
5.41e-06
5.40272e-06
5.39605e-06
5.38992e-06
5.38428e-06
5.3791e-06
5.37435e-06
5.37e-06
5.36603e-06
5.3624e-06
5.35909e-06
5.35608e-06
5.35338e-06
5.35097e-06
5.34883e-06
5.34694e-06
5.34524e-06
5.34372e-06
5.34233e-06
5.34105e-06
5.33988e-06
5.33884e-06
5.33795e-06
5.33725e-06
5.33679e-06
5.33668e-06
5.33682e-06
5.33715e-06
8.77229e-06
8.75834e-06
8.74565e-06
8.7341e-06
8.72356e-06
8.71392e-06
8.70507e-06
8.69693e-06
8.68946e-06
8.68258e-06
8.67625e-06
8.67045e-06
8.66514e-06
8.66031e-06
8.65591e-06
8.65188e-06
8.64821e-06
8.64486e-06
8.6418e-06
8.63903e-06
8.63654e-06
8.63432e-06
8.63238e-06
8.63066e-06
8.62912e-06
8.62774e-06
8.62651e-06
8.62541e-06
8.62444e-06
8.62361e-06
8.62294e-06
8.62242e-06
8.62205e-06
8.62181e-06
8.62163e-06
8.62155e-06
8.62156e-06
8.62165e-06
1.24794e-05
1.24888e-05
1.24968e-05
1.25038e-05
1.25101e-05
1.25156e-05
1.25204e-05
1.25247e-05
1.25285e-05
1.25319e-05
1.2535e-05
1.25378e-05
1.25405e-05
1.25431e-05
1.25454e-05
1.25475e-05
1.25496e-05
1.25515e-05
1.25533e-05
1.25551e-05
1.25568e-05
1.25587e-05
1.25604e-05
1.25621e-05
1.25636e-05
1.25649e-05
1.25659e-05
1.25668e-05
1.25676e-05
1.25685e-05
1.25694e-05
1.25705e-05
1.25717e-05
1.2573e-05
1.25743e-05
1.25754e-05
1.25763e-05
1.2577e-05
1.42242e-05
1.42365e-05
1.42472e-05
1.42566e-05
1.42649e-05
1.42724e-05
1.4279e-05
1.42849e-05
1.42902e-05
1.4295e-05
1.42994e-05
1.43035e-05
1.43073e-05
1.43109e-05
1.43142e-05
1.43171e-05
1.43199e-05
1.43225e-05
1.4325e-05
1.43275e-05
1.43298e-05
1.43322e-05
1.43344e-05
1.43365e-05
1.43385e-05
1.43402e-05
1.43417e-05
1.4343e-05
1.43441e-05
1.43453e-05
1.43466e-05
1.43479e-05
1.43493e-05
1.43508e-05
1.43523e-05
1.43536e-05
1.43547e-05
1.43555e-05
1.4914e-05
1.49273e-05
1.49387e-05
1.49488e-05
1.49577e-05
1.49657e-05
1.49729e-05
1.49793e-05
1.49851e-05
1.49903e-05
1.49952e-05
1.49998e-05
1.50042e-05
1.50081e-05
1.50117e-05
1.50149e-05
1.50179e-05
1.50207e-05
1.50234e-05
1.5026e-05
1.50285e-05
1.50309e-05
1.50333e-05
1.50355e-05
1.50376e-05
1.50395e-05
1.50413e-05
1.50428e-05
1.50442e-05
1.50456e-05
1.50469e-05
1.50482e-05
1.50495e-05
1.5051e-05
1.50525e-05
1.5054e-05
1.50553e-05
1.50562e-05
1.51587e-05
1.51722e-05
1.51838e-05
1.51941e-05
1.52033e-05
1.52114e-05
1.52187e-05
1.52252e-05
1.52311e-05
1.52366e-05
1.52418e-05
1.52466e-05
1.52512e-05
1.52553e-05
1.52589e-05
1.52622e-05
1.52653e-05
1.52681e-05
1.52707e-05
1.52732e-05
1.52757e-05
1.52781e-05
1.52804e-05
1.52825e-05
1.52847e-05
1.52867e-05
1.52887e-05
1.52905e-05
1.52921e-05
1.52934e-05
1.52947e-05
1.52958e-05
1.5297e-05
1.52984e-05
1.52999e-05
1.53015e-05
1.53029e-05
1.5304e-05
1.52443e-05
1.52561e-05
1.52665e-05
1.52758e-05
1.52841e-05
1.52914e-05
1.5298e-05
1.5304e-05
1.53096e-05
1.53149e-05
1.53199e-05
1.53244e-05
1.53285e-05
1.53322e-05
1.53355e-05
1.53386e-05
1.53413e-05
1.53439e-05
1.53463e-05
1.53487e-05
1.5351e-05
1.53531e-05
1.53552e-05
1.53573e-05
1.53594e-05
1.53615e-05
1.53635e-05
1.53651e-05
1.53665e-05
1.53675e-05
1.53685e-05
1.53696e-05
1.53709e-05
1.53724e-05
1.5374e-05
1.53755e-05
1.53768e-05
1.52437e-05
1.52556e-05
1.52663e-05
1.52759e-05
1.52843e-05
1.52918e-05
1.52984e-05
1.53045e-05
1.53103e-05
1.53157e-05
1.53207e-05
1.53253e-05
1.53293e-05
1.53329e-05
1.53362e-05
1.53392e-05
1.53419e-05
1.53444e-05
1.53468e-05
1.53491e-05
1.53513e-05
1.53534e-05
1.53554e-05
1.53575e-05
1.53596e-05
1.53617e-05
1.53636e-05
1.53652e-05
1.53665e-05
1.53674e-05
1.53683e-05
1.53693e-05
1.53705e-05
1.53719e-05
1.53736e-05
1.53753e-05
1.53767e-05
1.51708e-05
1.51828e-05
1.51937e-05
1.52035e-05
1.52122e-05
1.52198e-05
1.52266e-05
1.52328e-05
1.52386e-05
1.52441e-05
1.52491e-05
1.52536e-05
1.52575e-05
1.5261e-05
1.52641e-05
1.52671e-05
1.52698e-05
1.52724e-05
1.52747e-05
1.52769e-05
1.5279e-05
1.52811e-05
1.52831e-05
1.52851e-05
1.52872e-05
1.52892e-05
1.52909e-05
1.52924e-05
1.52935e-05
1.52944e-05
1.52951e-05
1.5296e-05
1.52972e-05
1.52986e-05
1.53003e-05
1.53021e-05
1.53037e-05
1.53051e-05
1.49255e-05
1.49375e-05
1.49484e-05
1.49582e-05
1.49669e-05
1.49745e-05
1.49813e-05
1.49875e-05
1.49933e-05
1.49986e-05
1.50035e-05
1.50079e-05
1.50116e-05
1.50148e-05
1.50178e-05
1.50206e-05
1.50233e-05
1.50259e-05
1.50282e-05
1.50303e-05
1.50323e-05
1.50343e-05
1.50363e-05
1.50383e-05
1.50402e-05
1.50419e-05
1.50435e-05
1.50447e-05
1.50456e-05
1.50463e-05
1.5047e-05
1.50478e-05
1.5049e-05
1.50505e-05
1.50522e-05
1.5054e-05
1.50557e-05
1.50572e-05
1.42348e-05
1.4246e-05
1.42563e-05
1.42655e-05
1.42737e-05
1.42808e-05
1.42871e-05
1.42929e-05
1.42982e-05
1.43032e-05
1.43076e-05
1.43116e-05
1.43149e-05
1.43178e-05
1.43205e-05
1.4323e-05
1.43255e-05
1.43279e-05
1.433e-05
1.4332e-05
1.43338e-05
1.43356e-05
1.43375e-05
1.43393e-05
1.43409e-05
1.43424e-05
1.43436e-05
1.43446e-05
1.43453e-05
1.43458e-05
1.43464e-05
1.43471e-05
1.43482e-05
1.43496e-05
1.43513e-05
1.43531e-05
1.43548e-05
1.43563e-05
1.24872e-05
1.24958e-05
1.25035e-05
1.25105e-05
1.25166e-05
1.25218e-05
1.25263e-05
1.25305e-05
1.25344e-05
1.2538e-05
1.25412e-05
1.2544e-05
1.25464e-05
1.25484e-05
1.25502e-05
1.2552e-05
1.25538e-05
1.25555e-05
1.25571e-05
1.25586e-05
1.25599e-05
1.25613e-05
1.25627e-05
1.25642e-05
1.25655e-05
1.25666e-05
1.25675e-05
1.2568e-05
1.25684e-05
1.25687e-05
1.2569e-05
1.25695e-05
1.25703e-05
1.25715e-05
1.2573e-05
1.25746e-05
1.25761e-05
1.25775e-05
8.75732e-06
8.7447e-06
8.7333e-06
8.72296e-06
8.71352e-06
8.70485e-06
8.69689e-06
8.68963e-06
8.68301e-06
8.67698e-06
8.67146e-06
8.66637e-06
8.66168e-06
8.65735e-06
8.65335e-06
8.64969e-06
8.64633e-06
8.64327e-06
8.64045e-06
8.63786e-06
8.6355e-06
8.63337e-06
8.63149e-06
8.62984e-06
8.62836e-06
8.62702e-06
8.62579e-06
8.62465e-06
8.6236e-06
8.62266e-06
8.62183e-06
8.62118e-06
8.62074e-06
8.62055e-06
8.62057e-06
8.62067e-06
8.62091e-06
8.6213e-06
9.9525e-06
9.93679e-06
9.92255e-06
9.90962e-06
9.89786e-06
9.88713e-06
9.87733e-06
9.86835e-06
9.86012e-06
9.85256e-06
9.84563e-06
9.83928e-06
9.83348e-06
9.82819e-06
9.82335e-06
9.81893e-06
9.81489e-06
9.8112e-06
9.80783e-06
9.80477e-06
9.80201e-06
9.79954e-06
9.79735e-06
9.79541e-06
9.79368e-06
9.79212e-06
9.79071e-06
9.78945e-06
9.78834e-06
9.78737e-06
9.78657e-06
9.78592e-06
9.78544e-06
9.78511e-06
9.78492e-06
9.78484e-06
9.78486e-06
9.78496e-06
1.5281e-05
1.52881e-05
1.52942e-05
1.52995e-05
1.53043e-05
1.53085e-05
1.53123e-05
1.53156e-05
1.53186e-05
1.53212e-05
1.53236e-05
1.53258e-05
1.53279e-05
1.53299e-05
1.53318e-05
1.53335e-05
1.53351e-05
1.53366e-05
1.5338e-05
1.53394e-05
1.53408e-05
1.53423e-05
1.53437e-05
1.53451e-05
1.53463e-05
1.53473e-05
1.53481e-05
1.53488e-05
1.53494e-05
1.53501e-05
1.53508e-05
1.53516e-05
1.53526e-05
1.53536e-05
1.53546e-05
1.53555e-05
1.53563e-05
1.53569e-05
1.74549e-05
1.74645e-05
1.74729e-05
1.74803e-05
1.7487e-05
1.7493e-05
1.74984e-05
1.75033e-05
1.75076e-05
1.75116e-05
1.75152e-05
1.75186e-05
1.75218e-05
1.75248e-05
1.75275e-05
1.753e-05
1.75323e-05
1.75345e-05
1.75366e-05
1.75386e-05
1.75405e-05
1.75424e-05
1.75442e-05
1.75459e-05
1.75475e-05
1.75489e-05
1.75501e-05
1.75512e-05
1.75522e-05
1.75531e-05
1.75541e-05
1.75551e-05
1.75562e-05
1.75573e-05
1.75584e-05
1.75595e-05
1.75604e-05
1.75611e-05
1.83403e-05
1.83506e-05
1.83596e-05
1.83676e-05
1.83749e-05
1.83814e-05
1.83872e-05
1.83925e-05
1.83974e-05
1.84017e-05
1.84058e-05
1.84097e-05
1.84133e-05
1.84166e-05
1.84196e-05
1.84224e-05
1.84249e-05
1.84273e-05
1.84295e-05
1.84316e-05
1.84337e-05
1.84357e-05
1.84376e-05
1.84394e-05
1.84411e-05
1.84427e-05
1.84441e-05
1.84454e-05
1.84465e-05
1.84476e-05
1.84487e-05
1.84497e-05
1.84508e-05
1.84519e-05
1.84531e-05
1.84542e-05
1.84552e-05
1.8456e-05
1.86772e-05
1.86877e-05
1.8697e-05
1.87053e-05
1.87127e-05
1.87194e-05
1.87255e-05
1.87309e-05
1.87359e-05
1.87405e-05
1.87449e-05
1.87489e-05
1.87527e-05
1.87562e-05
1.87593e-05
1.87621e-05
1.87647e-05
1.87672e-05
1.87694e-05
1.87716e-05
1.87737e-05
1.87757e-05
1.87775e-05
1.87793e-05
1.87811e-05
1.87827e-05
1.87843e-05
1.87857e-05
1.8787e-05
1.87882e-05
1.87892e-05
1.87901e-05
1.87911e-05
1.87922e-05
1.87934e-05
1.87945e-05
1.87956e-05
1.87966e-05
1.87951e-05
1.88044e-05
1.88129e-05
1.88205e-05
1.88273e-05
1.88334e-05
1.8839e-05
1.88441e-05
1.88488e-05
1.88533e-05
1.88575e-05
1.88613e-05
1.88648e-05
1.88679e-05
1.88708e-05
1.88734e-05
1.88758e-05
1.88781e-05
1.88802e-05
1.88822e-05
1.88842e-05
1.8886e-05
1.88877e-05
1.88895e-05
1.88912e-05
1.88928e-05
1.88944e-05
1.88957e-05
1.88968e-05
1.88978e-05
1.88986e-05
1.88996e-05
1.89006e-05
1.89017e-05
1.89029e-05
1.89041e-05
1.89052e-05
1.87947e-05
1.88042e-05
1.88128e-05
1.88205e-05
1.88275e-05
1.88337e-05
1.88393e-05
1.88445e-05
1.88493e-05
1.88538e-05
1.8858e-05
1.88619e-05
1.88653e-05
1.88684e-05
1.88712e-05
1.88738e-05
1.88762e-05
1.88784e-05
1.88805e-05
1.88825e-05
1.88844e-05
1.88861e-05
1.88879e-05
1.88896e-05
1.88913e-05
1.88929e-05
1.88945e-05
1.88958e-05
1.88968e-05
1.88977e-05
1.88985e-05
1.88993e-05
1.89003e-05
1.89014e-05
1.89027e-05
1.89039e-05
1.89051e-05
1.86868e-05
1.86963e-05
1.8705e-05
1.87129e-05
1.87199e-05
1.87262e-05
1.87318e-05
1.8737e-05
1.87419e-05
1.87464e-05
1.87506e-05
1.87543e-05
1.87577e-05
1.87607e-05
1.87634e-05
1.87659e-05
1.87683e-05
1.87705e-05
1.87725e-05
1.87744e-05
1.87763e-05
1.8778e-05
1.87797e-05
1.87814e-05
1.8783e-05
1.87846e-05
1.8786e-05
1.87872e-05
1.87882e-05
1.8789e-05
1.87897e-05
1.87904e-05
1.87914e-05
1.87925e-05
1.87938e-05
1.87951e-05
1.87963e-05
1.87975e-05
1.83494e-05
1.83588e-05
1.83674e-05
1.83752e-05
1.83821e-05
1.83883e-05
1.83939e-05
1.8399e-05
1.84037e-05
1.84081e-05
1.84121e-05
1.84157e-05
1.84189e-05
1.84217e-05
1.84243e-05
1.84267e-05
1.8429e-05
1.84311e-05
1.84331e-05
1.84349e-05
1.84366e-05
1.84383e-05
1.844e-05
1.84416e-05
1.84431e-05
1.84445e-05
1.84458e-05
1.84468e-05
1.84476e-05
1.84483e-05
1.84489e-05
1.84496e-05
1.84505e-05
1.84516e-05
1.84529e-05
1.84543e-05
1.84556e-05
1.84568e-05
1.74633e-05
1.74721e-05
1.74801e-05
1.74874e-05
1.74939e-05
1.74996e-05
1.75047e-05
1.75094e-05
1.75138e-05
1.75178e-05
1.75214e-05
1.75247e-05
1.75275e-05
1.753e-05
1.75322e-05
1.75344e-05
1.75365e-05
1.75384e-05
1.75402e-05
1.75419e-05
1.75435e-05
1.7545e-05
1.75465e-05
1.7548e-05
1.75494e-05
1.75506e-05
1.75517e-05
1.75525e-05
1.75531e-05
1.75536e-05
1.7554e-05
1.75546e-05
1.75555e-05
1.75565e-05
1.75578e-05
1.75591e-05
1.75605e-05
1.75618e-05
1.52869e-05
1.52933e-05
1.52993e-05
1.53046e-05
1.53092e-05
1.53132e-05
1.53168e-05
1.532e-05
1.5323e-05
1.53258e-05
1.53283e-05
1.53305e-05
1.53323e-05
1.53339e-05
1.53353e-05
1.53367e-05
1.53381e-05
1.53395e-05
1.53408e-05
1.53419e-05
1.53431e-05
1.53442e-05
1.53455e-05
1.53467e-05
1.53478e-05
1.53488e-05
1.53495e-05
1.53499e-05
1.53501e-05
1.53503e-05
1.53504e-05
1.53507e-05
1.53513e-05
1.53523e-05
1.53535e-05
1.53548e-05
1.53561e-05
1.53573e-05
9.93585e-06
9.92163e-06
9.9088e-06
9.89719e-06
9.88662e-06
9.87694e-06
9.86808e-06
9.86001e-06
9.85265e-06
9.84595e-06
9.83983e-06
9.83421e-06
9.82903e-06
9.82426e-06
9.81988e-06
9.81586e-06
9.8122e-06
9.80886e-06
9.80579e-06
9.80299e-06
9.80044e-06
9.79815e-06
9.79611e-06
9.79432e-06
9.79273e-06
9.79129e-06
9.78997e-06
9.78875e-06
9.78762e-06
9.78659e-06
9.78568e-06
9.78491e-06
9.78434e-06
9.78401e-06
9.78389e-06
9.78397e-06
9.7842e-06
9.7846e-06
1.05463e-05
1.05295e-05
1.05143e-05
1.05005e-05
1.04879e-05
1.04764e-05
1.04659e-05
1.04564e-05
1.04476e-05
1.04396e-05
1.04323e-05
1.04256e-05
1.04195e-05
1.04139e-05
1.04088e-05
1.04041e-05
1.03999e-05
1.0396e-05
1.03924e-05
1.03892e-05
1.03863e-05
1.03837e-05
1.03814e-05
1.03793e-05
1.03775e-05
1.03758e-05
1.03743e-05
1.0373e-05
1.03718e-05
1.03707e-05
1.03699e-05
1.03691e-05
1.03686e-05
1.03682e-05
1.0368e-05
1.03679e-05
1.03679e-05
1.0368e-05
1.69e-05
1.69041e-05
1.69076e-05
1.69107e-05
1.69135e-05
1.6916e-05
1.69182e-05
1.69201e-05
1.69218e-05
1.69233e-05
1.69247e-05
1.69261e-05
1.69273e-05
1.69285e-05
1.69297e-05
1.69307e-05
1.69317e-05
1.69326e-05
1.69336e-05
1.69345e-05
1.69354e-05
1.69364e-05
1.69375e-05
1.69385e-05
1.69393e-05
1.694e-05
1.69406e-05
1.6941e-05
1.69415e-05
1.69419e-05
1.69424e-05
1.6943e-05
1.69438e-05
1.69446e-05
1.69454e-05
1.69461e-05
1.69467e-05
1.69472e-05
1.93316e-05
1.9338e-05
1.93437e-05
1.93489e-05
1.93535e-05
1.93577e-05
1.93616e-05
1.9365e-05
1.93682e-05
1.93711e-05
1.93737e-05
1.93762e-05
1.93786e-05
1.93808e-05
1.93828e-05
1.93847e-05
1.93864e-05
1.93881e-05
1.93896e-05
1.93911e-05
1.93926e-05
1.9394e-05
1.93954e-05
1.93967e-05
1.93979e-05
1.9399e-05
1.93999e-05
1.94007e-05
1.94015e-05
1.94023e-05
1.9403e-05
1.94038e-05
1.94046e-05
1.94055e-05
1.94063e-05
1.94071e-05
1.94078e-05
1.94084e-05
2.03393e-05
2.03462e-05
2.03525e-05
2.03582e-05
2.03633e-05
2.0368e-05
2.03723e-05
2.03763e-05
2.03798e-05
2.03832e-05
2.03862e-05
2.03891e-05
2.03919e-05
2.03944e-05
2.03967e-05
2.03988e-05
2.04008e-05
2.04026e-05
2.04044e-05
2.0406e-05
2.04076e-05
2.04092e-05
2.04107e-05
2.04121e-05
2.04134e-05
2.04146e-05
2.04157e-05
2.04167e-05
2.04176e-05
2.04185e-05
2.04193e-05
2.04201e-05
2.04209e-05
2.04218e-05
2.04227e-05
2.04235e-05
2.04243e-05
2.0425e-05
2.07422e-05
2.07493e-05
2.07558e-05
2.07617e-05
2.07671e-05
2.0772e-05
2.07765e-05
2.07806e-05
2.07844e-05
2.07879e-05
2.07912e-05
2.07943e-05
2.07972e-05
2.07999e-05
2.08023e-05
2.08045e-05
2.08066e-05
2.08085e-05
2.08103e-05
2.0812e-05
2.08136e-05
2.08152e-05
2.08167e-05
2.08181e-05
2.08194e-05
2.08207e-05
2.0822e-05
2.08231e-05
2.08241e-05
2.0825e-05
2.08258e-05
2.08266e-05
2.08274e-05
2.08282e-05
2.08291e-05
2.083e-05
2.08308e-05
2.08316e-05
2.08852e-05
2.08917e-05
2.08978e-05
2.09033e-05
2.09083e-05
2.09129e-05
2.09171e-05
2.0921e-05
2.09246e-05
2.09281e-05
2.09313e-05
2.09342e-05
2.09369e-05
2.09394e-05
2.09417e-05
2.09437e-05
2.09457e-05
2.09474e-05
2.09491e-05
2.09507e-05
2.09523e-05
2.09537e-05
2.09551e-05
2.09565e-05
2.09578e-05
2.09591e-05
2.09603e-05
2.09613e-05
2.09622e-05
2.0963e-05
2.09637e-05
2.09645e-05
2.09653e-05
2.09662e-05
2.09671e-05
2.0968e-05
2.09689e-05
2.08849e-05
2.08916e-05
2.08977e-05
2.09033e-05
2.09084e-05
2.09131e-05
2.09173e-05
2.09213e-05
2.0925e-05
2.09284e-05
2.09317e-05
2.09346e-05
2.09373e-05
2.09397e-05
2.0942e-05
2.0944e-05
2.09459e-05
2.09477e-05
2.09494e-05
2.09509e-05
2.09524e-05
2.09539e-05
2.09552e-05
2.09566e-05
2.09579e-05
2.09592e-05
2.09604e-05
2.09614e-05
2.09622e-05
2.0963e-05
2.09636e-05
2.09643e-05
2.09651e-05
2.0966e-05
2.09669e-05
2.09679e-05
2.09688e-05
2.07488e-05
2.07554e-05
2.07616e-05
2.07672e-05
2.07724e-05
2.0777e-05
2.07812e-05
2.07852e-05
2.07888e-05
2.07923e-05
2.07955e-05
2.07984e-05
2.0801e-05
2.08033e-05
2.08054e-05
2.08074e-05
2.08093e-05
2.0811e-05
2.08127e-05
2.08142e-05
2.08156e-05
2.0817e-05
2.08184e-05
2.08197e-05
2.0821e-05
2.08222e-05
2.08233e-05
2.08242e-05
2.0825e-05
2.08256e-05
2.08262e-05
2.08269e-05
2.08276e-05
2.08285e-05
2.08295e-05
2.08304e-05
2.08314e-05
2.08323e-05
2.03454e-05
2.03519e-05
2.0358e-05
2.03635e-05
2.03686e-05
2.03731e-05
2.03772e-05
2.0381e-05
2.03845e-05
2.03878e-05
2.03909e-05
2.03936e-05
2.0396e-05
2.03982e-05
2.04002e-05
2.04021e-05
2.04039e-05
2.04055e-05
2.04071e-05
2.04085e-05
2.04099e-05
2.04112e-05
2.04125e-05
2.04137e-05
2.04149e-05
2.0416e-05
2.0417e-05
2.04178e-05
2.04184e-05
2.0419e-05
2.04195e-05
2.04201e-05
2.04208e-05
2.04216e-05
2.04226e-05
2.04236e-05
2.04246e-05
2.04256e-05
1.93371e-05
1.93431e-05
1.93487e-05
1.93538e-05
1.93584e-05
1.93625e-05
1.93662e-05
1.93696e-05
1.93727e-05
1.93756e-05
1.93783e-05
1.93807e-05
1.93828e-05
1.93846e-05
1.93863e-05
1.9388e-05
1.93895e-05
1.9391e-05
1.93923e-05
1.93936e-05
1.93948e-05
1.9396e-05
1.93972e-05
1.93983e-05
1.93994e-05
1.94003e-05
1.94011e-05
1.94017e-05
1.94022e-05
1.94025e-05
1.94029e-05
1.94033e-05
1.9404e-05
1.94048e-05
1.94058e-05
1.94068e-05
1.94079e-05
1.94089e-05
1.69031e-05
1.6907e-05
1.69105e-05
1.69137e-05
1.69166e-05
1.6919e-05
1.69211e-05
1.69231e-05
1.69249e-05
1.69267e-05
1.69282e-05
1.69295e-05
1.69306e-05
1.69315e-05
1.69323e-05
1.69331e-05
1.6934e-05
1.69348e-05
1.69356e-05
1.69364e-05
1.69371e-05
1.6938e-05
1.69389e-05
1.69398e-05
1.69406e-05
1.69413e-05
1.69417e-05
1.69419e-05
1.69419e-05
1.69419e-05
1.69418e-05
1.6942e-05
1.69424e-05
1.69431e-05
1.69441e-05
1.69452e-05
1.69464e-05
1.69474e-05
1.05284e-05
1.05133e-05
1.04996e-05
1.04872e-05
1.04759e-05
1.04656e-05
1.04561e-05
1.04475e-05
1.04397e-05
1.04325e-05
1.0426e-05
1.04201e-05
1.04146e-05
1.04095e-05
1.04049e-05
1.04007e-05
1.03968e-05
1.03933e-05
1.03901e-05
1.03872e-05
1.03845e-05
1.03821e-05
1.038e-05
1.03781e-05
1.03765e-05
1.03749e-05
1.03736e-05
1.03723e-05
1.03711e-05
1.037e-05
1.0369e-05
1.03682e-05
1.03675e-05
1.03671e-05
1.03669e-05
1.0367e-05
1.03672e-05
1.03676e-05
1.08746e-05
1.08569e-05
1.08409e-05
1.08264e-05
1.08131e-05
1.08011e-05
1.07901e-05
1.078e-05
1.07708e-05
1.07624e-05
1.07546e-05
1.07476e-05
1.07412e-05
1.07354e-05
1.07301e-05
1.07253e-05
1.07208e-05
1.07168e-05
1.07131e-05
1.07098e-05
1.07068e-05
1.07041e-05
1.07017e-05
1.06995e-05
1.06976e-05
1.06959e-05
1.06943e-05
1.06929e-05
1.06917e-05
1.06906e-05
1.06896e-05
1.06889e-05
1.06883e-05
1.06879e-05
1.06876e-05
1.06875e-05
1.06875e-05
1.06875e-05
1.78769e-05
1.78784e-05
1.78796e-05
1.78807e-05
1.78817e-05
1.78825e-05
1.78833e-05
1.7884e-05
1.78847e-05
1.78852e-05
1.78858e-05
1.78863e-05
1.78868e-05
1.78874e-05
1.78879e-05
1.78883e-05
1.78888e-05
1.78892e-05
1.78897e-05
1.78902e-05
1.78907e-05
1.78913e-05
1.7892e-05
1.78927e-05
1.78933e-05
1.78937e-05
1.78941e-05
1.78943e-05
1.78946e-05
1.78949e-05
1.78952e-05
1.78956e-05
1.78962e-05
1.78968e-05
1.78974e-05
1.78979e-05
1.78984e-05
1.78987e-05
2.04974e-05
2.0501e-05
2.05044e-05
2.05074e-05
2.05102e-05
2.05128e-05
2.05152e-05
2.05174e-05
2.05195e-05
2.05214e-05
2.05231e-05
2.05248e-05
2.05264e-05
2.05279e-05
2.05293e-05
2.05306e-05
2.05318e-05
2.05329e-05
2.05341e-05
2.05351e-05
2.05362e-05
2.05372e-05
2.05383e-05
2.05392e-05
2.05401e-05
2.05409e-05
2.05416e-05
2.05422e-05
2.05428e-05
2.05434e-05
2.05439e-05
2.05445e-05
2.05452e-05
2.05458e-05
2.05465e-05
2.0547e-05
2.05476e-05
2.0548e-05
2.15965e-05
2.16005e-05
2.16043e-05
2.16079e-05
2.16112e-05
2.16143e-05
2.16172e-05
2.16198e-05
2.16223e-05
2.16246e-05
2.16268e-05
2.16289e-05
2.16308e-05
2.16326e-05
2.16343e-05
2.16359e-05
2.16373e-05
2.16387e-05
2.164e-05
2.16413e-05
2.16425e-05
2.16436e-05
2.16447e-05
2.16458e-05
2.16468e-05
2.16477e-05
2.16486e-05
2.16493e-05
2.165e-05
2.16507e-05
2.16513e-05
2.1652e-05
2.16526e-05
2.16533e-05
2.16539e-05
2.16546e-05
2.16552e-05
2.16557e-05
2.20512e-05
2.20554e-05
2.20594e-05
2.20632e-05
2.20667e-05
2.207e-05
2.20731e-05
2.20759e-05
2.20786e-05
2.20811e-05
2.20835e-05
2.20857e-05
2.20879e-05
2.20898e-05
2.20916e-05
2.20933e-05
2.20949e-05
2.20963e-05
2.20977e-05
2.2099e-05
2.21002e-05
2.21014e-05
2.21026e-05
2.21036e-05
2.21047e-05
2.21057e-05
2.21066e-05
2.21074e-05
2.21082e-05
2.21089e-05
2.21096e-05
2.21102e-05
2.21108e-05
2.21115e-05
2.21122e-05
2.21128e-05
2.21135e-05
2.21141e-05
2.22149e-05
2.2219e-05
2.22229e-05
2.22265e-05
2.22299e-05
2.22331e-05
2.2236e-05
2.22388e-05
2.22414e-05
2.22439e-05
2.22462e-05
2.22484e-05
2.22505e-05
2.22523e-05
2.2254e-05
2.22556e-05
2.22571e-05
2.22584e-05
2.22597e-05
2.2261e-05
2.22622e-05
2.22633e-05
2.22644e-05
2.22654e-05
2.22665e-05
2.22674e-05
2.22683e-05
2.22691e-05
2.22698e-05
2.22705e-05
2.22711e-05
2.22717e-05
2.22723e-05
2.2273e-05
2.22737e-05
2.22744e-05
2.2275e-05
2.22148e-05
2.22189e-05
2.22228e-05
2.22265e-05
2.223e-05
2.22332e-05
2.22362e-05
2.2239e-05
2.22416e-05
2.22442e-05
2.22465e-05
2.22487e-05
2.22507e-05
2.22526e-05
2.22542e-05
2.22558e-05
2.22573e-05
2.22586e-05
2.22599e-05
2.22611e-05
2.22623e-05
2.22634e-05
2.22645e-05
2.22655e-05
2.22665e-05
2.22675e-05
2.22684e-05
2.22692e-05
2.22698e-05
2.22704e-05
2.2271e-05
2.22715e-05
2.22722e-05
2.22728e-05
2.22736e-05
2.22743e-05
2.2275e-05
2.2055e-05
2.20591e-05
2.20631e-05
2.20668e-05
2.20702e-05
2.20734e-05
2.20764e-05
2.20792e-05
2.20818e-05
2.20843e-05
2.20866e-05
2.20887e-05
2.20906e-05
2.20924e-05
2.2094e-05
2.20955e-05
2.20969e-05
2.20982e-05
2.20995e-05
2.21006e-05
2.21017e-05
2.21028e-05
2.21038e-05
2.21049e-05
2.21058e-05
2.21067e-05
2.21076e-05
2.21083e-05
2.21089e-05
2.21094e-05
2.21099e-05
2.21104e-05
2.2111e-05
2.21117e-05
2.21124e-05
2.21132e-05
2.21139e-05
2.21147e-05
2.15999e-05
2.16039e-05
2.16078e-05
2.16114e-05
2.16147e-05
2.16177e-05
2.16205e-05
2.16232e-05
2.16257e-05
2.1628e-05
2.16302e-05
2.16321e-05
2.16339e-05
2.16355e-05
2.16369e-05
2.16383e-05
2.16396e-05
2.16409e-05
2.1642e-05
2.16431e-05
2.16441e-05
2.16451e-05
2.16461e-05
2.16471e-05
2.1648e-05
2.16488e-05
2.16495e-05
2.16501e-05
2.16506e-05
2.1651e-05
2.16514e-05
2.16519e-05
2.16524e-05
2.16531e-05
2.16539e-05
2.16546e-05
2.16554e-05
2.16562e-05
2.05003e-05
2.05039e-05
2.05073e-05
2.05104e-05
2.05133e-05
2.0516e-05
2.05184e-05
2.05206e-05
2.05227e-05
2.05247e-05
2.05265e-05
2.05281e-05
2.05295e-05
2.05308e-05
2.0532e-05
2.05331e-05
2.05342e-05
2.05352e-05
2.05361e-05
2.0537e-05
2.05379e-05
2.05388e-05
2.05396e-05
2.05405e-05
2.05413e-05
2.0542e-05
2.05425e-05
2.05429e-05
2.05432e-05
2.05434e-05
2.05437e-05
2.0544e-05
2.05445e-05
2.05451e-05
2.05459e-05
2.05467e-05
2.05476e-05
2.05484e-05
1.78775e-05
1.7879e-05
1.78805e-05
1.78819e-05
1.78831e-05
1.78841e-05
1.7885e-05
1.78858e-05
1.78867e-05
1.78875e-05
1.78882e-05
1.78887e-05
1.78892e-05
1.78896e-05
1.78899e-05
1.78902e-05
1.78906e-05
1.7891e-05
1.78913e-05
1.78917e-05
1.78921e-05
1.78926e-05
1.78932e-05
1.78938e-05
1.78943e-05
1.78947e-05
1.78949e-05
1.78949e-05
1.78947e-05
1.78944e-05
1.78942e-05
1.78942e-05
1.78945e-05
1.78951e-05
1.7896e-05
1.7897e-05
1.7898e-05
1.78989e-05
1.08558e-05
1.08398e-05
1.08255e-05
1.08125e-05
1.08007e-05
1.07898e-05
1.07799e-05
1.07709e-05
1.07627e-05
1.07552e-05
1.07484e-05
1.07421e-05
1.07362e-05
1.07309e-05
1.0726e-05
1.07216e-05
1.07176e-05
1.0714e-05
1.07106e-05
1.07076e-05
1.07048e-05
1.07024e-05
1.07002e-05
1.06983e-05
1.06966e-05
1.0695e-05
1.06935e-05
1.06922e-05
1.06909e-05
1.06898e-05
1.06887e-05
1.06878e-05
1.06871e-05
1.06867e-05
1.06865e-05
1.06865e-05
1.06867e-05
1.0687e-05
1.10603e-05
1.1042e-05
1.10254e-05
1.10104e-05
1.09967e-05
1.09843e-05
1.09729e-05
1.09625e-05
1.0953e-05
1.09443e-05
1.09363e-05
1.09291e-05
1.09224e-05
1.09164e-05
1.0911e-05
1.09061e-05
1.09015e-05
1.08974e-05
1.08937e-05
1.08902e-05
1.08871e-05
1.08844e-05
1.08819e-05
1.08797e-05
1.08777e-05
1.08759e-05
1.08743e-05
1.08729e-05
1.08716e-05
1.08705e-05
1.08695e-05
1.08687e-05
1.08681e-05
1.08677e-05
1.08674e-05
1.08673e-05
1.08672e-05
1.08672e-05
1.8471e-05
1.84703e-05
1.84697e-05
1.84691e-05
1.84686e-05
1.84682e-05
1.84678e-05
1.84675e-05
1.84672e-05
1.84669e-05
1.84667e-05
1.84666e-05
1.84665e-05
1.84665e-05
1.84666e-05
1.84665e-05
1.84665e-05
1.84666e-05
1.84667e-05
1.84668e-05
1.84671e-05
1.84674e-05
1.84678e-05
1.84683e-05
1.84686e-05
1.84689e-05
1.84691e-05
1.84692e-05
1.84694e-05
1.84695e-05
1.84697e-05
1.847e-05
1.84704e-05
1.84708e-05
1.84713e-05
1.84716e-05
1.84719e-05
1.84721e-05
2.12387e-05
2.124e-05
2.12412e-05
2.12425e-05
2.12438e-05
2.1245e-05
2.12462e-05
2.12473e-05
2.12484e-05
2.12494e-05
2.12504e-05
2.12514e-05
2.12523e-05
2.12533e-05
2.12541e-05
2.1255e-05
2.12557e-05
2.12565e-05
2.12572e-05
2.12579e-05
2.12587e-05
2.12594e-05
2.12601e-05
2.12608e-05
2.12615e-05
2.1262e-05
2.12625e-05
2.1263e-05
2.12634e-05
2.12638e-05
2.12642e-05
2.12647e-05
2.12651e-05
2.12656e-05
2.12661e-05
2.12665e-05
2.12669e-05
2.12672e-05
2.24117e-05
2.24134e-05
2.24151e-05
2.24168e-05
2.24185e-05
2.24202e-05
2.24219e-05
2.24235e-05
2.2425e-05
2.24265e-05
2.24279e-05
2.24292e-05
2.24305e-05
2.24318e-05
2.24329e-05
2.2434e-05
2.2435e-05
2.2436e-05
2.24369e-05
2.24378e-05
2.24387e-05
2.24396e-05
2.24404e-05
2.24412e-05
2.24419e-05
2.24426e-05
2.24432e-05
2.24438e-05
2.24443e-05
2.24448e-05
2.24453e-05
2.24458e-05
2.24463e-05
2.24468e-05
2.24473e-05
2.24478e-05
2.24482e-05
2.24486e-05
2.2909e-05
2.29108e-05
2.29126e-05
2.29145e-05
2.29165e-05
2.29184e-05
2.29202e-05
2.2922e-05
2.29237e-05
2.29253e-05
2.29269e-05
2.29285e-05
2.29299e-05
2.29313e-05
2.29326e-05
2.29338e-05
2.29349e-05
2.2936e-05
2.2937e-05
2.2938e-05
2.29389e-05
2.29398e-05
2.29406e-05
2.29414e-05
2.29422e-05
2.2943e-05
2.29437e-05
2.29443e-05