/*--------------------------------*- C++ -*----------------------------------*\
| =========                 |                                                 |
| \\      /  F ield         | OpenFOAM: The Open Source CFD Toolbox           |
|  \\    /   O peration     | Version:  2.3.1                                 |
|   \\  /    A nd           | Web:      www.OpenFOAM.org                      |
|    \\/     M anipulation  |                                                 |
\*---------------------------------------------------------------------------*/
FoamFile
{
    version     2.0;
    format      ascii;
    class       volScalarField;
    location    "10";
    object      k_0;
}
// * * * * * * * * * * * * * * * * * * * * * * * * * * * * * * * * * * * * * //

dimensions      [0 2 -2 0 0 0 0];

internalField   nonuniform List<scalar> 
38262
(
5.55852e-06
5.53768e-06
5.5189e-06
5.50193e-06
5.48655e-06
5.47258e-06
5.45985e-06
5.44824e-06
5.43762e-06
5.42789e-06
5.41896e-06
5.41078e-06
5.40328e-06
5.39642e-06
5.39014e-06
5.38438e-06
5.37911e-06
5.37428e-06
5.36986e-06
5.36582e-06
5.36215e-06
5.35883e-06
5.35585e-06
5.35319e-06
5.35082e-06
5.34871e-06
5.34683e-06
5.34514e-06
5.34364e-06
5.34231e-06
5.34115e-06
5.34016e-06
5.33935e-06
5.33874e-06
5.33838e-06
5.33819e-06
5.33816e-06
5.33824e-06
7.30211e-06
7.28198e-06
7.26377e-06
7.24729e-06
7.23234e-06
7.21876e-06
7.20636e-06
7.19503e-06
7.18466e-06
7.17515e-06
7.16644e-06
7.15847e-06
7.15122e-06
7.14461e-06
7.13857e-06
7.13303e-06
7.12797e-06
7.12336e-06
7.11917e-06
7.11537e-06
7.11197e-06
7.10898e-06
7.10634e-06
7.10401e-06
7.10194e-06
7.10009e-06
7.09841e-06
7.09688e-06
7.09553e-06
7.09437e-06
7.09344e-06
7.09273e-06
7.09227e-06
7.09205e-06
7.09204e-06
7.09222e-06
7.09257e-06
7.09301e-06
8.01033e-06
7.99252e-06
7.97636e-06
7.96171e-06
7.9484e-06
7.9363e-06
7.92526e-06
7.91518e-06
7.90595e-06
7.89747e-06
7.88972e-06
7.88267e-06
7.8763e-06
7.8705e-06
7.8652e-06
7.86034e-06
7.85589e-06
7.85185e-06
7.84819e-06
7.8449e-06
7.84198e-06
7.83941e-06
7.83717e-06
7.83519e-06
7.83346e-06
7.83192e-06
7.83053e-06
7.82928e-06
7.82819e-06
7.82728e-06
7.82657e-06
7.82605e-06
7.82575e-06
7.82567e-06
7.82578e-06
7.82605e-06
7.82652e-06
7.82704e-06
8.27301e-06
8.25623e-06
8.24096e-06
8.22707e-06
8.21446e-06
8.20298e-06
8.19253e-06
8.18297e-06
8.17421e-06
8.16618e-06
8.15889e-06
8.15231e-06
8.14637e-06
8.14097e-06
8.13601e-06
8.13143e-06
8.12725e-06
8.12344e-06
8.11999e-06
8.11689e-06
8.11415e-06
8.11174e-06
8.10962e-06
8.10777e-06
8.10616e-06
8.10477e-06
8.10357e-06
8.1025e-06
8.10157e-06
8.1008e-06
8.10017e-06
8.09968e-06
8.09938e-06
8.09931e-06
8.09946e-06
8.09978e-06
8.10029e-06
8.10088e-06
8.35757e-06
8.3411e-06
8.3261e-06
8.31247e-06
8.30008e-06
8.28882e-06
8.27854e-06
8.26912e-06
8.2605e-06
8.25265e-06
8.24557e-06
8.23919e-06
8.23343e-06
8.22817e-06
8.22333e-06
8.21887e-06
8.21478e-06
8.21104e-06
8.20763e-06
8.20455e-06
8.20183e-06
8.19944e-06
8.19731e-06
8.19544e-06
8.19384e-06
8.19253e-06
8.19143e-06
8.19049e-06
8.18968e-06
8.18896e-06
8.18832e-06
8.18778e-06
8.18741e-06
8.18728e-06
8.18739e-06
8.18771e-06
8.18824e-06
8.18892e-06
8.36366e-06
8.34872e-06
8.33519e-06
8.32293e-06
8.31175e-06
8.30152e-06
8.29214e-06
8.28358e-06
8.27583e-06
8.26886e-06
8.26257e-06
8.25687e-06
8.25164e-06
8.24684e-06
8.24242e-06
8.23836e-06
8.23463e-06
8.2312e-06
8.2281e-06
8.22535e-06
8.22293e-06
8.22075e-06
8.21883e-06
8.21721e-06
8.21591e-06
8.21488e-06
8.21402e-06
8.21327e-06
8.21256e-06
8.21186e-06
8.21124e-06
8.21079e-06
8.21058e-06
8.21065e-06
8.21094e-06
8.21148e-06
8.21226e-06
8.36331e-06
8.34841e-06
8.33496e-06
8.32279e-06
8.3117e-06
8.30153e-06
8.2922e-06
8.2837e-06
8.27603e-06
8.26913e-06
8.26289e-06
8.2572e-06
8.25197e-06
8.24715e-06
8.24272e-06
8.23866e-06
8.23493e-06
8.2315e-06
8.22839e-06
8.22561e-06
8.22314e-06
8.22092e-06
8.21898e-06
8.21735e-06
8.21605e-06
8.21501e-06
8.21417e-06
8.21341e-06
8.21266e-06
8.2119e-06
8.21121e-06
8.21068e-06
8.2104e-06
8.21043e-06
8.2107e-06
8.21125e-06
8.21209e-06
8.34019e-06
8.32526e-06
8.31183e-06
8.29972e-06
8.28869e-06
8.27857e-06
8.26928e-06
8.26083e-06
8.2532e-06
8.24631e-06
8.24008e-06
8.23438e-06
8.22911e-06
8.22422e-06
8.21973e-06
8.21563e-06
8.2119e-06
8.20849e-06
8.20538e-06
8.20257e-06
8.20006e-06
8.19782e-06
8.19588e-06
8.19425e-06
8.19291e-06
8.19182e-06
8.1909e-06
8.19007e-06
8.18925e-06
8.18843e-06
8.18767e-06
8.18708e-06
8.18676e-06
8.18676e-06
8.18702e-06
8.18755e-06
8.18842e-06
8.18946e-06
8.25501e-06
8.23982e-06
8.22619e-06
8.21393e-06
8.20277e-06
8.19255e-06
8.18316e-06
8.17462e-06
8.16688e-06
8.1599e-06
8.15356e-06
8.14775e-06
8.14235e-06
8.13733e-06
8.1327e-06
8.1285e-06
8.12472e-06
8.12128e-06
8.11813e-06
8.11527e-06
8.1127e-06
8.11042e-06
8.10845e-06
8.10678e-06
8.10537e-06
8.10417e-06
8.10312e-06
8.10216e-06
8.10123e-06
8.10033e-06
8.0995e-06
8.09885e-06
8.09848e-06
8.09846e-06
8.0987e-06
8.09921e-06
8.10006e-06
8.10117e-06
7.9912e-06
7.97512e-06
7.96069e-06
7.94771e-06
7.93591e-06
7.92511e-06
7.91521e-06
7.90619e-06
7.89801e-06
7.89061e-06
7.88388e-06
7.8777e-06
7.87196e-06
7.86663e-06
7.86171e-06
7.85725e-06
7.85324e-06
7.84962e-06
7.8463e-06
7.84328e-06
7.84055e-06
7.83813e-06
7.83602e-06
7.83422e-06
7.83266e-06
7.83128e-06
7.83005e-06
7.8289e-06
7.82781e-06
7.82678e-06
7.82585e-06
7.82512e-06
7.82466e-06
7.82455e-06
7.82473e-06
7.82516e-06
7.82596e-06
7.82706e-06
7.28065e-06
7.26244e-06
7.24608e-06
7.23133e-06
7.21794e-06
7.20569e-06
7.19448e-06
7.18427e-06
7.175e-06
7.1666e-06
7.15895e-06
7.15192e-06
7.14543e-06
7.13942e-06
7.13389e-06
7.12885e-06
7.1243e-06
7.12019e-06
7.11645e-06
7.11303e-06
7.10994e-06
7.10719e-06
7.10478e-06
7.1027e-06
7.10089e-06
7.09928e-06
7.09781e-06
7.09642e-06
7.09512e-06
7.09389e-06
7.09277e-06
7.09184e-06
7.09119e-06
7.09087e-06
7.09087e-06
7.09112e-06
7.09176e-06
7.09271e-06
5.5368e-06
5.5179e-06
5.50087e-06
5.4855e-06
5.47159e-06
5.45894e-06
5.4474e-06
5.43687e-06
5.42727e-06
5.41853e-06
5.41056e-06
5.40328e-06
5.39661e-06
5.39048e-06
5.38484e-06
5.37966e-06
5.37491e-06
5.37057e-06
5.36659e-06
5.36296e-06
5.35965e-06
5.35664e-06
5.35394e-06
5.35153e-06
5.34939e-06
5.3475e-06
5.34581e-06
5.34428e-06
5.34289e-06
5.34162e-06
5.34045e-06
5.3394e-06
5.33851e-06
5.33782e-06
5.33735e-06
5.33725e-06
5.33738e-06
5.33771e-06
8.77315e-06
8.75921e-06
8.74652e-06
8.73497e-06
8.72443e-06
8.71478e-06
8.70594e-06
8.6978e-06
8.69033e-06
8.68345e-06
8.67713e-06
8.67132e-06
8.66602e-06
8.66119e-06
8.65678e-06
8.65276e-06
8.64908e-06
8.64573e-06
8.64268e-06
8.63991e-06
8.63741e-06
8.6352e-06
8.63325e-06
8.63153e-06
8.63e-06
8.62862e-06
8.62738e-06
8.62628e-06
8.62532e-06
8.62449e-06
8.62382e-06
8.62329e-06
8.62292e-06
8.62269e-06
8.62251e-06
8.62243e-06
8.62244e-06
8.62253e-06
1.24805e-05
1.24898e-05
1.24978e-05
1.25049e-05
1.25111e-05
1.25167e-05
1.25215e-05
1.25258e-05
1.25296e-05
1.2533e-05
1.2536e-05
1.25389e-05
1.25416e-05
1.25441e-05
1.25464e-05
1.25486e-05
1.25506e-05
1.25525e-05
1.25544e-05
1.25561e-05
1.25579e-05
1.25597e-05
1.25615e-05
1.25632e-05
1.25647e-05
1.25659e-05
1.2567e-05
1.25679e-05
1.25687e-05
1.25695e-05
1.25705e-05
1.25716e-05
1.25728e-05
1.25741e-05
1.25753e-05
1.25764e-05
1.25773e-05
1.2578e-05
1.42252e-05
1.42375e-05
1.42482e-05
1.42576e-05
1.4266e-05
1.42734e-05
1.428e-05
1.4286e-05
1.42913e-05
1.4296e-05
1.43004e-05
1.43045e-05
1.43083e-05
1.43119e-05
1.43152e-05
1.43181e-05
1.43209e-05
1.43235e-05
1.43261e-05
1.43285e-05
1.43308e-05
1.43332e-05
1.43354e-05
1.43376e-05
1.43395e-05
1.43412e-05
1.43427e-05
1.4344e-05
1.43451e-05
1.43464e-05
1.43476e-05
1.43489e-05
1.43503e-05
1.43518e-05
1.43533e-05
1.43546e-05
1.43557e-05
1.43565e-05
1.4915e-05
1.49282e-05
1.49397e-05
1.49498e-05
1.49587e-05
1.49667e-05
1.49739e-05
1.49803e-05
1.4986e-05
1.49913e-05
1.49961e-05
1.50008e-05
1.50051e-05
1.50091e-05
1.50127e-05
1.50159e-05
1.50189e-05
1.50217e-05
1.50243e-05
1.50269e-05
1.50294e-05
1.50319e-05
1.50342e-05
1.50364e-05
1.50385e-05
1.50405e-05
1.50422e-05
1.50437e-05
1.50452e-05
1.50465e-05
1.50478e-05
1.50491e-05
1.50505e-05
1.50519e-05
1.50535e-05
1.5055e-05
1.50562e-05
1.50571e-05
1.51596e-05
1.51731e-05
1.51848e-05
1.5195e-05
1.52042e-05
1.52123e-05
1.52196e-05
1.52262e-05
1.5232e-05
1.52375e-05
1.52427e-05
1.52475e-05
1.52521e-05
1.52562e-05
1.52598e-05
1.52632e-05
1.52662e-05
1.5269e-05
1.52716e-05
1.52741e-05
1.52766e-05
1.5279e-05
1.52813e-05
1.52834e-05
1.52856e-05
1.52876e-05
1.52896e-05
1.52914e-05
1.5293e-05
1.52943e-05
1.52956e-05
1.52967e-05
1.52979e-05
1.52993e-05
1.53008e-05
1.53024e-05
1.53038e-05
1.53049e-05
1.52452e-05
1.5257e-05
1.52674e-05
1.52767e-05
1.5285e-05
1.52923e-05
1.52989e-05
1.53049e-05
1.53105e-05
1.53158e-05
1.53208e-05
1.53253e-05
1.53294e-05
1.53331e-05
1.53364e-05
1.53395e-05
1.53422e-05
1.53448e-05
1.53472e-05
1.53496e-05
1.53519e-05
1.5354e-05
1.53561e-05
1.53582e-05
1.53603e-05
1.53624e-05
1.53643e-05
1.5366e-05
1.53673e-05
1.53684e-05
1.53694e-05
1.53705e-05
1.53718e-05
1.53733e-05
1.53749e-05
1.53764e-05
1.53777e-05
1.52446e-05
1.52566e-05
1.52672e-05
1.52768e-05
1.52852e-05
1.52927e-05
1.52993e-05
1.53054e-05
1.53112e-05
1.53166e-05
1.53216e-05
1.53262e-05
1.53302e-05
1.53338e-05
1.53371e-05
1.53401e-05
1.53428e-05
1.53453e-05
1.53477e-05
1.535e-05
1.53522e-05
1.53543e-05
1.53563e-05
1.53583e-05
1.53605e-05
1.53626e-05
1.53645e-05
1.53661e-05
1.53674e-05
1.53683e-05
1.53692e-05
1.53701e-05
1.53714e-05
1.53728e-05
1.53745e-05
1.53762e-05
1.53776e-05
1.51717e-05
1.51837e-05
1.51946e-05
1.52044e-05
1.52131e-05
1.52207e-05
1.52275e-05
1.52337e-05
1.52396e-05
1.5245e-05
1.525e-05
1.52545e-05
1.52584e-05
1.52619e-05
1.5265e-05
1.5268e-05
1.52707e-05
1.52733e-05
1.52756e-05
1.52778e-05
1.528e-05
1.5282e-05
1.5284e-05
1.5286e-05
1.52881e-05
1.52901e-05
1.52918e-05
1.52933e-05
1.52944e-05
1.52953e-05
1.5296e-05
1.52969e-05
1.52981e-05
1.52995e-05
1.53012e-05
1.5303e-05
1.53046e-05
1.5306e-05
1.49265e-05
1.49385e-05
1.49494e-05
1.49592e-05
1.49679e-05
1.49755e-05
1.49823e-05
1.49885e-05
1.49942e-05
1.49996e-05
1.50045e-05
1.50088e-05
1.50125e-05
1.50158e-05
1.50187e-05
1.50216e-05
1.50243e-05
1.50268e-05
1.50291e-05
1.50313e-05
1.50333e-05
1.50353e-05
1.50372e-05
1.50392e-05
1.50411e-05
1.50429e-05
1.50444e-05
1.50456e-05
1.50466e-05
1.50473e-05
1.50479e-05
1.50488e-05
1.50499e-05
1.50514e-05
1.50531e-05
1.50549e-05
1.50566e-05
1.50581e-05
1.42358e-05
1.42471e-05
1.42573e-05
1.42665e-05
1.42747e-05
1.42818e-05
1.42881e-05
1.42939e-05
1.42992e-05
1.43042e-05
1.43087e-05
1.43126e-05
1.43159e-05
1.43188e-05
1.43215e-05
1.4324e-05
1.43265e-05
1.43289e-05
1.4331e-05
1.4333e-05
1.43348e-05
1.43366e-05
1.43385e-05
1.43403e-05
1.43419e-05
1.43434e-05
1.43446e-05
1.43456e-05
1.43463e-05
1.43468e-05
1.43474e-05
1.43481e-05
1.43492e-05
1.43506e-05
1.43523e-05
1.43541e-05
1.43558e-05
1.43573e-05
1.24883e-05
1.24968e-05
1.25046e-05
1.25115e-05
1.25176e-05
1.25228e-05
1.25274e-05
1.25316e-05
1.25355e-05
1.25391e-05
1.25423e-05
1.25451e-05
1.25474e-05
1.25494e-05
1.25513e-05
1.2553e-05
1.25548e-05
1.25566e-05
1.25582e-05
1.25596e-05
1.2561e-05
1.25624e-05
1.25638e-05
1.25652e-05
1.25666e-05
1.25677e-05
1.25685e-05
1.25691e-05
1.25695e-05
1.25697e-05
1.257e-05
1.25705e-05
1.25714e-05
1.25726e-05
1.25741e-05
1.25756e-05
1.25771e-05
1.25785e-05
8.75819e-06
8.74557e-06
8.73417e-06
8.72383e-06
8.71439e-06
8.70572e-06
8.69776e-06
8.6905e-06
8.68388e-06
8.67785e-06
8.67233e-06
8.66725e-06
8.66256e-06
8.65823e-06
8.65423e-06
8.65056e-06
8.64721e-06
8.64414e-06
8.64132e-06
8.63873e-06
8.63637e-06
8.63425e-06
8.63237e-06
8.63071e-06
8.62924e-06
8.6279e-06
8.62667e-06
8.62552e-06
8.62448e-06
8.62353e-06
8.62271e-06
8.62205e-06
8.62162e-06
8.62142e-06
8.62145e-06
8.62155e-06
8.62178e-06
8.62217e-06
9.95339e-06
9.93768e-06
9.92344e-06
9.91051e-06
9.89875e-06
9.88803e-06
9.87822e-06
9.86925e-06
9.86101e-06
9.85346e-06
9.84653e-06
9.84018e-06
9.83438e-06
9.82909e-06
9.82426e-06
9.81983e-06
9.81579e-06
9.8121e-06
9.80873e-06
9.80567e-06
9.80291e-06
9.80044e-06
9.79826e-06
9.79631e-06
9.79458e-06
9.79302e-06
9.79161e-06
9.79035e-06
9.78924e-06
9.78828e-06
9.78747e-06
9.78683e-06
9.78634e-06
9.78602e-06
9.78582e-06
9.78574e-06
9.78576e-06
9.78586e-06
1.52822e-05
1.52892e-05
1.52953e-05
1.53007e-05
1.53055e-05
1.53097e-05
1.53134e-05
1.53168e-05
1.53197e-05
1.53224e-05
1.53248e-05
1.5327e-05
1.53291e-05
1.53311e-05
1.5333e-05
1.53346e-05
1.53362e-05
1.53377e-05
1.53392e-05
1.53406e-05
1.5342e-05
1.53434e-05
1.53449e-05
1.53462e-05
1.53474e-05
1.53484e-05
1.53493e-05
1.53499e-05
1.53506e-05
1.53512e-05
1.53519e-05
1.53528e-05
1.53537e-05
1.53547e-05
1.53558e-05
1.53567e-05
1.53575e-05
1.53581e-05
1.7456e-05
1.74656e-05
1.7474e-05
1.74815e-05
1.74881e-05
1.74941e-05
1.74995e-05
1.75044e-05
1.75088e-05
1.75127e-05
1.75164e-05
1.75198e-05
1.7523e-05
1.75259e-05
1.75286e-05
1.75311e-05
1.75334e-05
1.75356e-05
1.75377e-05
1.75397e-05
1.75416e-05
1.75435e-05
1.75453e-05
1.75471e-05
1.75486e-05
1.755e-05
1.75512e-05
1.75523e-05
1.75533e-05
1.75542e-05
1.75552e-05
1.75562e-05
1.75573e-05
1.75584e-05
1.75596e-05
1.75606e-05
1.75615e-05
1.75622e-05
1.83414e-05
1.83516e-05
1.83607e-05
1.83687e-05
1.83759e-05
1.83824e-05
1.83883e-05
1.83936e-05
1.83984e-05
1.84028e-05
1.84069e-05
1.84107e-05
1.84143e-05
1.84176e-05
1.84207e-05
1.84234e-05
1.84259e-05
1.84283e-05
1.84305e-05
1.84327e-05
1.84348e-05
1.84368e-05
1.84387e-05
1.84405e-05
1.84422e-05
1.84437e-05
1.84451e-05
1.84464e-05
1.84476e-05
1.84487e-05
1.84497e-05
1.84508e-05
1.84518e-05
1.84529e-05
1.84541e-05
1.84552e-05
1.84562e-05
1.8457e-05
1.86782e-05
1.86887e-05
1.8698e-05
1.87063e-05
1.87137e-05
1.87204e-05
1.87265e-05
1.87319e-05
1.87369e-05
1.87415e-05
1.87459e-05
1.87499e-05
1.87537e-05
1.87572e-05
1.87603e-05
1.87631e-05
1.87657e-05
1.87682e-05
1.87704e-05
1.87726e-05
1.87746e-05
1.87767e-05
1.87785e-05
1.87803e-05
1.8782e-05
1.87837e-05
1.87853e-05
1.87867e-05
1.8788e-05
1.87891e-05
1.87902e-05
1.87911e-05
1.87921e-05
1.87932e-05
1.87944e-05
1.87955e-05
1.87966e-05
1.87976e-05
1.8796e-05
1.88054e-05
1.88139e-05
1.88215e-05
1.88283e-05
1.88344e-05
1.884e-05
1.8845e-05
1.88498e-05
1.88543e-05
1.88584e-05
1.88623e-05
1.88658e-05
1.88689e-05
1.88718e-05
1.88744e-05
1.88768e-05
1.8879e-05
1.88811e-05
1.88832e-05
1.88851e-05
1.8887e-05
1.88887e-05
1.88904e-05
1.88921e-05
1.88938e-05
1.88953e-05
1.88967e-05
1.88978e-05
1.88987e-05
1.88996e-05
1.89005e-05
1.89015e-05
1.89027e-05
1.89039e-05
1.89051e-05
1.89061e-05
1.87957e-05
1.88052e-05
1.88137e-05
1.88215e-05
1.88284e-05
1.88347e-05
1.88403e-05
1.88454e-05
1.88503e-05
1.88548e-05
1.8859e-05
1.88628e-05
1.88663e-05
1.88694e-05
1.88722e-05
1.88748e-05
1.88772e-05
1.88794e-05
1.88815e-05
1.88834e-05
1.88853e-05
1.88871e-05
1.88888e-05
1.88905e-05
1.88922e-05
1.88939e-05
1.88954e-05
1.88967e-05
1.88978e-05
1.88987e-05
1.88994e-05
1.89003e-05
1.89013e-05
1.89024e-05
1.89036e-05
1.89049e-05
1.89061e-05
1.86878e-05
1.86974e-05
1.8706e-05
1.87139e-05
1.87209e-05
1.87272e-05
1.87328e-05
1.8738e-05
1.87429e-05
1.87474e-05
1.87516e-05
1.87553e-05
1.87587e-05
1.87617e-05
1.87644e-05
1.87669e-05
1.87693e-05
1.87715e-05
1.87735e-05
1.87754e-05
1.87773e-05
1.8779e-05
1.87807e-05
1.87824e-05
1.8784e-05
1.87856e-05
1.8787e-05
1.87882e-05
1.87892e-05
1.87899e-05
1.87906e-05
1.87914e-05
1.87924e-05
1.87935e-05
1.87948e-05
1.87961e-05
1.87973e-05
1.87985e-05
1.83505e-05
1.83599e-05
1.83684e-05
1.83762e-05
1.83832e-05
1.83894e-05
1.83949e-05
1.84e-05
1.84048e-05
1.84092e-05
1.84132e-05
1.84168e-05
1.84199e-05
1.84227e-05
1.84253e-05
1.84277e-05
1.843e-05
1.84321e-05
1.84341e-05
1.84359e-05
1.84377e-05
1.84394e-05
1.8441e-05
1.84426e-05
1.84442e-05
1.84456e-05
1.84468e-05
1.84479e-05
1.84487e-05
1.84493e-05
1.84499e-05
1.84507e-05
1.84516e-05
1.84527e-05
1.8454e-05
1.84553e-05
1.84566e-05
1.84579e-05
1.74644e-05
1.74732e-05
1.74812e-05
1.74885e-05
1.7495e-05
1.75007e-05
1.75059e-05
1.75105e-05
1.75149e-05
1.75189e-05
1.75226e-05
1.75258e-05
1.75286e-05
1.75311e-05
1.75333e-05
1.75355e-05
1.75376e-05
1.75395e-05
1.75413e-05
1.7543e-05
1.75446e-05
1.75461e-05
1.75476e-05
1.75491e-05
1.75505e-05
1.75517e-05
1.75528e-05
1.75536e-05
1.75542e-05
1.75547e-05
1.75551e-05
1.75557e-05
1.75566e-05
1.75577e-05
1.75589e-05
1.75603e-05
1.75616e-05
1.75629e-05
1.5288e-05
1.52945e-05
1.53004e-05
1.53057e-05
1.53104e-05
1.53144e-05
1.53179e-05
1.53212e-05
1.53242e-05
1.5327e-05
1.53295e-05
1.53316e-05
1.53335e-05
1.5335e-05
1.53365e-05
1.53379e-05
1.53393e-05
1.53406e-05
1.53419e-05
1.53431e-05
1.53442e-05
1.53454e-05
1.53466e-05
1.53479e-05
1.5349e-05
1.53499e-05
1.53506e-05
1.53511e-05
1.53513e-05
1.53514e-05
1.53516e-05
1.53519e-05
1.53525e-05
1.53535e-05
1.53546e-05
1.53559e-05
1.53572e-05
1.53585e-05
9.93674e-06
9.92252e-06
9.9097e-06
9.89809e-06
9.88752e-06
9.87784e-06
9.86898e-06
9.8609e-06
9.85355e-06
9.84685e-06
9.84073e-06
9.83511e-06
9.82993e-06
9.82516e-06
9.82078e-06
9.81676e-06
9.8131e-06
9.80976e-06
9.8067e-06
9.80389e-06
9.80134e-06
9.79905e-06
9.79702e-06
9.79522e-06
9.79363e-06
9.79219e-06
9.79087e-06
9.78965e-06
9.78853e-06
9.7875e-06
9.78658e-06
9.78581e-06
9.78525e-06
9.78491e-06
9.7848e-06
9.78487e-06
9.7851e-06
9.7855e-06
1.05472e-05
1.05304e-05
1.05152e-05
1.05013e-05
1.04888e-05
1.04773e-05
1.04668e-05
1.04572e-05
1.04485e-05
1.04405e-05
1.04332e-05
1.04265e-05
1.04203e-05
1.04148e-05
1.04097e-05
1.0405e-05
1.04008e-05
1.03969e-05
1.03933e-05
1.03901e-05
1.03872e-05
1.03846e-05
1.03823e-05
1.03802e-05
1.03784e-05
1.03767e-05
1.03752e-05
1.03738e-05
1.03727e-05
1.03716e-05
1.03707e-05
1.037e-05
1.03695e-05
1.03691e-05
1.03689e-05
1.03688e-05
1.03688e-05
1.03689e-05
1.69012e-05
1.69053e-05
1.69088e-05
1.69119e-05
1.69147e-05
1.69171e-05
1.69193e-05
1.69213e-05
1.6923e-05
1.69245e-05
1.69259e-05
1.69272e-05
1.69285e-05
1.69297e-05
1.69308e-05
1.69319e-05
1.69329e-05
1.69338e-05
1.69347e-05
1.69356e-05
1.69366e-05
1.69376e-05
1.69386e-05
1.69396e-05
1.69405e-05
1.69412e-05
1.69417e-05
1.69422e-05
1.69426e-05
1.69431e-05
1.69436e-05
1.69442e-05
1.69449e-05
1.69457e-05
1.69465e-05
1.69473e-05
1.69479e-05
1.69483e-05
1.93327e-05
1.93391e-05
1.93448e-05
1.935e-05
1.93546e-05
1.93589e-05
1.93627e-05
1.93662e-05
1.93693e-05
1.93722e-05
1.93749e-05
1.93773e-05
1.93797e-05
1.93819e-05
1.93839e-05
1.93858e-05
1.93875e-05
1.93892e-05
1.93907e-05
1.93922e-05
1.93937e-05
1.93951e-05
1.93965e-05
1.93978e-05
1.9399e-05
1.94001e-05
1.9401e-05
1.94018e-05
1.94026e-05
1.94034e-05
1.94041e-05
1.94049e-05
1.94057e-05
1.94066e-05
1.94074e-05
1.94082e-05
1.94089e-05
1.94095e-05
2.03403e-05
2.03473e-05
2.03535e-05
2.03592e-05
2.03644e-05
2.03691e-05
2.03734e-05
2.03773e-05
2.03809e-05
2.03842e-05
2.03873e-05
2.03902e-05
2.03929e-05
2.03954e-05
2.03977e-05
2.03999e-05
2.04018e-05
2.04037e-05
2.04054e-05
2.04071e-05
2.04087e-05
2.04102e-05
2.04117e-05
2.04131e-05
2.04144e-05
2.04156e-05
2.04167e-05
2.04177e-05
2.04186e-05
2.04195e-05
2.04203e-05
2.04211e-05
2.0422e-05
2.04228e-05
2.04237e-05
2.04246e-05
2.04253e-05
2.0426e-05
2.07432e-05
2.07503e-05
2.07568e-05
2.07627e-05
2.07681e-05
2.0773e-05
2.07775e-05
2.07816e-05
2.07854e-05
2.07889e-05
2.07922e-05
2.07953e-05
2.07982e-05
2.08009e-05
2.08033e-05
2.08055e-05
2.08076e-05
2.08095e-05
2.08113e-05
2.0813e-05
2.08146e-05
2.08162e-05
2.08177e-05
2.08191e-05
2.08204e-05
2.08217e-05
2.08229e-05
2.0824e-05
2.0825e-05
2.0826e-05
2.08268e-05
2.08276e-05
2.08284e-05
2.08292e-05
2.08301e-05
2.0831e-05
2.08318e-05
2.08326e-05
2.08861e-05
2.08927e-05
2.08987e-05
2.09043e-05
2.09093e-05
2.09139e-05
2.09181e-05
2.09219e-05
2.09256e-05
2.0929e-05
2.09322e-05
2.09352e-05
2.09379e-05
2.09404e-05
2.09426e-05
2.09447e-05
2.09466e-05
2.09484e-05
2.09501e-05
2.09517e-05
2.09532e-05
2.09547e-05
2.09561e-05
2.09574e-05
2.09588e-05
2.09601e-05
2.09612e-05
2.09623e-05
2.09632e-05
2.0964e-05
2.09647e-05
2.09654e-05
2.09663e-05
2.09671e-05
2.0968e-05
2.0969e-05
2.09698e-05
2.08859e-05
2.08925e-05
2.08987e-05
2.09043e-05
2.09094e-05
2.0914e-05
2.09183e-05
2.09222e-05
2.09259e-05
2.09294e-05
2.09326e-05
2.09356e-05
2.09383e-05
2.09407e-05
2.09429e-05
2.0945e-05
2.09469e-05
2.09486e-05
2.09503e-05
2.09519e-05
2.09534e-05
2.09548e-05
2.09562e-05
2.09575e-05
2.09589e-05
2.09601e-05
2.09613e-05
2.09623e-05
2.09632e-05
2.09639e-05
2.09646e-05
2.09653e-05
2.09661e-05
2.09669e-05
2.09679e-05
2.09688e-05
2.09697e-05
2.07497e-05
2.07564e-05
2.07625e-05
2.07682e-05
2.07733e-05
2.0778e-05
2.07822e-05
2.07862e-05
2.07898e-05
2.07933e-05
2.07964e-05
2.07993e-05
2.08019e-05
2.08043e-05
2.08064e-05
2.08084e-05
2.08103e-05
2.0812e-05
2.08136e-05
2.08152e-05
2.08166e-05
2.0818e-05
2.08193e-05
2.08206e-05
2.08219e-05
2.08231e-05
2.08242e-05
2.08252e-05
2.0826e-05
2.08266e-05
2.08272e-05
2.08279e-05
2.08286e-05
2.08295e-05
2.08304e-05
2.08314e-05
2.08324e-05
2.08333e-05
2.03465e-05
2.0353e-05
2.0359e-05
2.03646e-05
2.03696e-05
2.03741e-05
2.03783e-05
2.0382e-05
2.03856e-05
2.03889e-05
2.03919e-05
2.03946e-05
2.03971e-05
2.03992e-05
2.04012e-05
2.04031e-05
2.04049e-05
2.04065e-05
2.04081e-05
2.04095e-05
2.04109e-05
2.04122e-05
2.04135e-05
2.04148e-05
2.04159e-05
2.0417e-05
2.0418e-05
2.04188e-05
2.04195e-05
2.042e-05
2.04205e-05
2.04211e-05
2.04218e-05
2.04227e-05
2.04236e-05
2.04246e-05
2.04257e-05
2.04267e-05
1.93382e-05
1.93443e-05
1.93498e-05
1.93549e-05
1.93595e-05
1.93636e-05
1.93673e-05
1.93707e-05
1.93738e-05
1.93768e-05
1.93794e-05
1.93818e-05
1.93839e-05
1.93858e-05
1.93874e-05
1.93891e-05
1.93906e-05
1.93921e-05
1.93934e-05
1.93947e-05
1.93959e-05
1.93971e-05
1.93983e-05
1.93994e-05
1.94005e-05
1.94014e-05
1.94022e-05
1.94028e-05
1.94033e-05
1.94036e-05
1.9404e-05
1.94044e-05
1.94051e-05
1.94059e-05
1.94069e-05
1.94079e-05
1.9409e-05
1.941e-05
1.69043e-05
1.69081e-05
1.69117e-05
1.69149e-05
1.69177e-05
1.69202e-05
1.69223e-05
1.69243e-05
1.69261e-05
1.69278e-05
1.69293e-05
1.69306e-05
1.69317e-05
1.69326e-05
1.69335e-05
1.69343e-05
1.69351e-05
1.6936e-05
1.69368e-05
1.69375e-05
1.69383e-05
1.69391e-05
1.694e-05
1.69409e-05
1.69418e-05
1.69424e-05
1.69428e-05
1.6943e-05
1.69431e-05
1.6943e-05
1.6943e-05
1.69431e-05
1.69435e-05
1.69443e-05
1.69453e-05
1.69464e-05
1.69475e-05
1.69486e-05
1.05293e-05
1.05141e-05
1.05005e-05
1.04881e-05
1.04768e-05
1.04665e-05
1.0457e-05
1.04484e-05
1.04405e-05
1.04334e-05
1.04269e-05
1.04209e-05
1.04155e-05
1.04104e-05
1.04058e-05
1.04016e-05
1.03977e-05
1.03942e-05
1.0391e-05
1.0388e-05
1.03854e-05
1.0383e-05
1.03809e-05
1.0379e-05
1.03773e-05
1.03758e-05
1.03744e-05
1.03732e-05
1.0372e-05
1.03709e-05
1.03699e-05
1.0369e-05
1.03684e-05
1.0368e-05
1.03678e-05
1.03679e-05
1.03681e-05
1.03684e-05
1.08754e-05
1.08578e-05
1.08417e-05
1.08272e-05
1.0814e-05
1.08019e-05
1.07909e-05
1.07809e-05
1.07717e-05
1.07632e-05
1.07555e-05
1.07484e-05
1.0742e-05
1.07362e-05
1.07309e-05
1.07261e-05
1.07217e-05
1.07177e-05
1.0714e-05
1.07107e-05
1.07076e-05
1.07049e-05
1.07025e-05
1.07004e-05
1.06985e-05
1.06967e-05
1.06952e-05
1.06938e-05
1.06925e-05
1.06914e-05
1.06905e-05
1.06897e-05
1.06892e-05
1.06888e-05
1.06885e-05
1.06884e-05
1.06884e-05
1.06884e-05
1.78781e-05
1.78795e-05
1.78807e-05
1.78818e-05
1.78828e-05
1.78837e-05
1.78845e-05
1.78852e-05
1.78858e-05
1.78863e-05
1.78869e-05
1.78874e-05
1.7888e-05
1.78885e-05
1.7889e-05
1.78894e-05
1.78899e-05
1.78903e-05
1.78908e-05
1.78913e-05
1.78918e-05
1.78924e-05
1.78931e-05
1.78938e-05
1.78944e-05
1.78949e-05
1.78952e-05
1.78955e-05
1.78957e-05
1.7896e-05
1.78963e-05
1.78967e-05
1.78973e-05
1.78979e-05
1.78985e-05
1.78991e-05
1.78995e-05
1.78998e-05
2.04985e-05
2.05021e-05
2.05054e-05
2.05085e-05
2.05113e-05
2.05139e-05
2.05163e-05
2.05185e-05
2.05205e-05
2.05224e-05
2.05242e-05
2.05259e-05
2.05274e-05
2.0529e-05
2.05304e-05
2.05317e-05
2.05329e-05
2.0534e-05
2.05351e-05
2.05362e-05
2.05373e-05
2.05383e-05
2.05393e-05
2.05403e-05
2.05412e-05
2.0542e-05
2.05427e-05
2.05433e-05
2.05439e-05
2.05444e-05
2.0545e-05
2.05456e-05
2.05462e-05
2.05469e-05
2.05475e-05
2.05481e-05
2.05486e-05
2.05491e-05
2.15975e-05
2.16015e-05
2.16053e-05
2.16089e-05
2.16122e-05
2.16153e-05
2.16181e-05
2.16208e-05
2.16233e-05
2.16256e-05
2.16278e-05
2.16298e-05
2.16318e-05
2.16336e-05
2.16353e-05
2.16369e-05
2.16383e-05
2.16397e-05
2.1641e-05
2.16422e-05
2.16435e-05
2.16446e-05
2.16457e-05
2.16468e-05
2.16478e-05
2.16487e-05
2.16495e-05
2.16503e-05
2.1651e-05
2.16517e-05
2.16523e-05
2.1653e-05
2.16536e-05
2.16543e-05
2.16549e-05
2.16556e-05
2.16562e-05
2.16567e-05
2.20522e-05
2.20564e-05
2.20604e-05
2.20641e-05
2.20676e-05
2.20709e-05
2.2074e-05
2.20768e-05
2.20795e-05
2.2082e-05
2.20844e-05
2.20867e-05
2.20888e-05
2.20908e-05
2.20926e-05
2.20942e-05
2.20958e-05
2.20972e-05
2.20986e-05
2.20999e-05
2.21011e-05
2.21023e-05
2.21035e-05
2.21046e-05
2.21056e-05
2.21066e-05
2.21075e-05
2.21084e-05
2.21091e-05
2.21099e-05
2.21105e-05
2.21111e-05
2.21118e-05
2.21124e-05
2.21131e-05
2.21138e-05
2.21144e-05
2.2115e-05
2.22159e-05
2.22199e-05
2.22238e-05
2.22274e-05
2.22308e-05
2.2234e-05
2.22369e-05
2.22397e-05
2.22423e-05
2.22448e-05
2.22472e-05
2.22493e-05
2.22514e-05
2.22532e-05
2.22549e-05
2.22565e-05
2.2258e-05
2.22593e-05
2.22606e-05
2.22619e-05
2.22631e-05
2.22642e-05
2.22653e-05
2.22663e-05
2.22674e-05
2.22683e-05
2.22692e-05
2.227e-05
2.22707e-05
2.22714e-05
2.2272e-05
2.22726e-05
2.22732e-05
2.22739e-05
2.22746e-05
2.22753e-05
2.22759e-05
2.22157e-05
2.22198e-05
2.22237e-05
2.22275e-05
2.22309e-05
2.22341e-05
2.22371e-05
2.22399e-05
2.22426e-05
2.22451e-05
2.22474e-05
2.22496e-05
2.22516e-05
2.22535e-05
2.22551e-05
2.22567e-05
2.22582e-05
2.22595e-05
2.22608e-05
2.2262e-05
2.22632e-05
2.22643e-05
2.22654e-05
2.22664e-05
2.22674e-05
2.22684e-05
2.22693e-05
2.22701e-05
2.22707e-05
2.22713e-05
2.22719e-05
2.22724e-05
2.22731e-05
2.22737e-05
2.22745e-05
2.22752e-05
2.22759e-05
2.2056e-05
2.20601e-05
2.2064e-05
2.20677e-05
2.20712e-05
2.20744e-05
2.20773e-05
2.20801e-05
2.20827e-05
2.20852e-05
2.20875e-05
2.20896e-05
2.20915e-05
2.20933e-05
2.20949e-05
2.20964e-05
2.20978e-05
2.20991e-05
2.21004e-05
2.21016e-05
2.21027e-05
2.21037e-05
2.21048e-05
2.21058e-05
2.21068e-05
2.21077e-05
2.21085e-05
2.21092e-05
2.21098e-05
2.21104e-05
2.21108e-05
2.21114e-05
2.2112e-05
2.21126e-05
2.21134e-05
2.21141e-05
2.21149e-05
2.21156e-05
2.16009e-05
2.16049e-05
2.16087e-05
2.16123e-05
2.16157e-05
2.16187e-05
2.16215e-05
2.16242e-05
2.16267e-05
2.1629e-05
2.16312e-05
2.16331e-05
2.16349e-05
2.16365e-05
2.16379e-05
2.16393e-05
2.16406e-05
2.16419e-05
2.1643e-05
2.16441e-05
2.16451e-05
2.16461e-05
2.16471e-05
2.16481e-05
2.1649e-05
2.16498e-05
2.16505e-05
2.16511e-05
2.16516e-05
2.1652e-05
2.16524e-05
2.16529e-05
2.16534e-05
2.16541e-05
2.16548e-05
2.16556e-05
2.16564e-05
2.16572e-05
2.05014e-05
2.0505e-05
2.05084e-05
2.05115e-05
2.05144e-05
2.0517e-05
2.05194e-05
2.05217e-05
2.05238e-05
2.05257e-05
2.05275e-05
2.05292e-05
2.05306e-05
2.05319e-05
2.0533e-05
2.05341e-05
2.05352e-05
2.05362e-05
2.05372e-05
2.05381e-05
2.0539e-05
2.05398e-05
2.05407e-05
2.05416e-05
2.05423e-05
2.0543e-05
2.05436e-05
2.0544e-05
2.05443e-05
2.05445e-05
2.05447e-05
2.05451e-05
2.05455e-05
2.05462e-05
2.0547e-05
2.05478e-05
2.05487e-05
2.05495e-05
1.78786e-05
1.78801e-05
1.78816e-05
1.7883e-05
1.78842e-05
1.78852e-05
1.78861e-05
1.7887e-05
1.78878e-05
1.78886e-05
1.78893e-05
1.78899e-05
1.78903e-05
1.78907e-05
1.7891e-05
1.78913e-05
1.78917e-05
1.78921e-05
1.78924e-05
1.78928e-05
1.78932e-05
1.78937e-05
1.78943e-05
1.78949e-05
1.78955e-05
1.78958e-05
1.7896e-05
1.7896e-05
1.78958e-05
1.78956e-05
1.78953e-05
1.78954e-05
1.78956e-05
1.78962e-05
1.78971e-05
1.78981e-05
1.78991e-05
1.79e-05
1.08566e-05
1.08407e-05
1.08264e-05
1.08134e-05
1.08016e-05
1.07907e-05
1.07808e-05
1.07717e-05
1.07635e-05
1.07561e-05
1.07492e-05
1.07429e-05
1.07371e-05
1.07318e-05
1.07269e-05
1.07225e-05
1.07185e-05
1.07148e-05
1.07115e-05
1.07085e-05
1.07057e-05
1.07032e-05
1.07011e-05
1.06991e-05
1.06974e-05
1.06959e-05
1.06944e-05
1.0693e-05
1.06918e-05
1.06906e-05
1.06896e-05
1.06887e-05
1.0688e-05
1.06876e-05
1.06874e-05
1.06874e-05
1.06875e-05
1.06879e-05
1.10611e-05
1.10428e-05
1.10263e-05
1.10112e-05
1.09975e-05
1.09851e-05
1.09737e-05
1.09634e-05
1.09538e-05
1.09451e-05
1.09372e-05
1.09299e-05
1.09233e-05
1.09173e-05
1.09118e-05
1.09069e-05
1.09024e-05
1.08983e-05
1.08945e-05
1.08911e-05
1.0888e-05
1.08852e-05
1.08827e-05
1.08805e-05
1.08786e-05
1.08768e-05
1.08752e-05
1.08737e-05
1.08724e-05
1.08713e-05
1.08704e-05
1.08696e-05
1.0869e-05
1.08685e-05
1.08682e-05
1.08681e-05
1.0868e-05
1.0868e-05
1.84721e-05
1.84714e-05
1.84708e-05
1.84702e-05
1.84697e-05
1.84693e-05
1.84689e-05
1.84686e-05
1.84683e-05
1.8468e-05
1.84678e-05
1.84677e-05
1.84676e-05
1.84676e-05
1.84676e-05
1.84676e-05
1.84676e-05
1.84677e-05
1.84678e-05
1.84679e-05
1.84681e-05
1.84685e-05
1.84689e-05
1.84694e-05
1.84697e-05
1.847e-05
1.84701e-05
1.84703e-05
1.84704e-05
1.84706e-05
1.84708e-05
1.84711e-05
1.84714e-05
1.84719e-05
1.84723e-05
1.84727e-05
1.8473e-05
1.84732e-05
2.12398e-05
2.1241e-05
2.12423e-05
2.12436e-05
2.12448e-05
2.1246e-05
2.12472e-05
2.12484e-05
2.12494e-05
2.12505e-05
2.12515e-05
2.12524e-05
2.12534e-05
2.12543e-05
2.12552e-05
2.1256e-05
2.12568e-05
2.12575e-05
2.12582e-05
2.1259e-05
2.12597e-05
2.12604e-05
2.12612e-05
2.12619e-05
2.12625e-05
2.12631e-05
2.12636e-05
2.1264e-05
2.12644e-05
2.12649e-05
2.12653e-05
2.12657e-05
2.12662e-05
2.12667e-05
2.12671e-05
2.12676e-05
2.12679e-05
2.12683e-05
2.24127e-05
2.24143e-05
2.2416e-05
2.24177e-05
2.24195e-05
2.24212e-05
2.24228e-05
2.24244e-05
2.24259e-05
2.24274e-05
2.24288e-05
2.24302e-05
2.24315e-05
2.24327e-05
2.24339e-05
2.2435e-05
2.2436e-05
2.24369e-05
2.24379e-05
2.24388e-05
2.24397e-05
2.24405e-05
2.24413e-05
2.24421e-05
2.24429e-05
2.24435e-05
2.24442e-05
2.24447e-05
2.24453e-05
2.24458e-05
2.24463e-05
2.24467e-05
2.24472e-05
2.24477e-05
2.24482e-05
2.24487e-05
2.24492e-05
2.24496e-05
2.29099e-05
2.29117e-05
2.29135e-05
2.29154e-05
2.29173e-05
2.29192e-05
2.29211e-05
2.29229e-05
2.29246e-05
2.29262e-05
2.29278e-05
2.29294e-05
2.29308e-05
2.29322e-05
2.29335e-05
2.29347e-05
2.29358e-05
2.29369e-05
2.29379e-05
2.29388e-05
2.29398e-05
2.29406e-05
2.29415e-05
2.29423e-05
2.29431e-05
2.29438e-05
2.29445e-05