/*--------------------------------*- C++ -*----------------------------------*\
| =========                 |                                                 |
| \\      /  F ield         | OpenFOAM: The Open Source CFD Toolbox           |
|  \\    /   O peration     | Version:  2.3.1                                 |
|   \\  /    A nd           | Web:      www.OpenFOAM.org                      |
|    \\/     M anipulation  |                                                 |
\*---------------------------------------------------------------------------*/
FoamFile
{
    version     2.0;
    format      ascii;
    class       volScalarField;
    location    "10";
    object      nut;
}
// * * * * * * * * * * * * * * * * * * * * * * * * * * * * * * * * * * * * * //

dimensions      [0 2 -1 0 0 0 0];

internalField   nonuniform List<scalar> 
38262
(
2.97758e-06
2.97198e-06
2.96694e-06
2.96237e-06
2.95822e-06
2.95445e-06
2.95101e-06
2.94786e-06
2.94499e-06
2.94235e-06
2.93992e-06
2.9377e-06
2.93566e-06
2.9338e-06
2.93209e-06
2.93052e-06
2.92908e-06
2.92777e-06
2.92656e-06
2.92546e-06
2.92446e-06
2.92355e-06
2.92274e-06
2.92201e-06
2.92136e-06
2.92079e-06
2.92027e-06
2.91981e-06
2.9194e-06
2.91904e-06
2.91872e-06
2.91845e-06
2.91823e-06
2.91806e-06
2.91796e-06
2.91791e-06
2.9179e-06
2.91793e-06
3.4129e-06
3.40819e-06
3.40393e-06
3.40006e-06
3.39655e-06
3.39335e-06
3.39043e-06
3.38777e-06
3.38532e-06
3.38308e-06
3.38102e-06
3.37914e-06
3.37743e-06
3.37586e-06
3.37444e-06
3.37313e-06
3.37193e-06
3.37084e-06
3.36984e-06
3.36894e-06
3.36814e-06
3.36743e-06
3.3668e-06
3.36625e-06
3.36576e-06
3.36532e-06
3.36492e-06
3.36456e-06
3.36424e-06
3.36396e-06
3.36374e-06
3.36358e-06
3.36347e-06
3.36341e-06
3.36341e-06
3.36345e-06
3.36354e-06
3.36364e-06
3.57465e-06
3.57067e-06
3.56706e-06
3.56378e-06
3.56079e-06
3.55808e-06
3.5556e-06
3.55334e-06
3.55126e-06
3.54936e-06
3.54761e-06
3.54603e-06
3.54459e-06
3.54329e-06
3.54209e-06
3.541e-06
3.53999e-06
3.53908e-06
3.53826e-06
3.53752e-06
3.53686e-06
3.53628e-06
3.53577e-06
3.53533e-06
3.53493e-06
3.53459e-06
3.53427e-06
3.53399e-06
3.53374e-06
3.53354e-06
3.53338e-06
3.53326e-06
3.53319e-06
3.53317e-06
3.5332e-06
3.53326e-06
3.53337e-06
3.53348e-06
3.63283e-06
3.62914e-06
3.62578e-06
3.62272e-06
3.61994e-06
3.61741e-06
3.6151e-06
3.61299e-06
3.61106e-06
3.60928e-06
3.60767e-06
3.60621e-06
3.6049e-06
3.6037e-06
3.6026e-06
3.60159e-06
3.60066e-06
3.59982e-06
3.59905e-06
3.59836e-06
3.59776e-06
3.59722e-06
3.59675e-06
3.59634e-06
3.59598e-06
3.59568e-06
3.59541e-06
3.59517e-06
3.59497e-06
3.59479e-06
3.59465e-06
3.59454e-06
3.59448e-06
3.59446e-06
3.5945e-06
3.59457e-06
3.59468e-06
3.59481e-06
3.65137e-06
3.64777e-06
3.64448e-06
3.6415e-06
3.63878e-06
3.63631e-06
3.63405e-06
3.63198e-06
3.63009e-06
3.62836e-06
3.6268e-06
3.6254e-06
3.62413e-06
3.62297e-06
3.62191e-06
3.62092e-06
3.62002e-06
3.6192e-06
3.61844e-06
3.61776e-06
3.61716e-06
3.61664e-06
3.61617e-06
3.61575e-06
3.6154e-06
3.61511e-06
3.61487e-06
3.61466e-06
3.61448e-06
3.61432e-06
3.61418e-06
3.61406e-06
3.61398e-06
3.61395e-06
3.61398e-06
3.61405e-06
3.61417e-06
3.61432e-06
3.6527e-06
3.64944e-06
3.64648e-06
3.64379e-06
3.64134e-06
3.6391e-06
3.63704e-06
3.63516e-06
3.63346e-06
3.63193e-06
3.63055e-06
3.62929e-06
3.62814e-06
3.62709e-06
3.62611e-06
3.62522e-06
3.6244e-06
3.62364e-06
3.62296e-06
3.62236e-06
3.62182e-06
3.62134e-06
3.62092e-06
3.62056e-06
3.62027e-06
3.62005e-06
3.61986e-06
3.61969e-06
3.61953e-06
3.61938e-06
3.61924e-06
3.61914e-06
3.6191e-06
3.61911e-06
3.61918e-06
3.6193e-06
3.61947e-06
3.65263e-06
3.64937e-06
3.64643e-06
3.64376e-06
3.64133e-06
3.6391e-06
3.63705e-06
3.63519e-06
3.6335e-06
3.63199e-06
3.63062e-06
3.62937e-06
3.62822e-06
3.62715e-06
3.62618e-06
3.62529e-06
3.62446e-06
3.62371e-06
3.62302e-06
3.62241e-06
3.62187e-06
3.62138e-06
3.62095e-06
3.62059e-06
3.6203e-06
3.62008e-06
3.61989e-06
3.61972e-06
3.61956e-06
3.61939e-06
3.61924e-06
3.61912e-06
3.61906e-06
3.61907e-06
3.61913e-06
3.61925e-06
3.61943e-06
3.64757e-06
3.6443e-06
3.64136e-06
3.6387e-06
3.63628e-06
3.63406e-06
3.63202e-06
3.63016e-06
3.62848e-06
3.62697e-06
3.62559e-06
3.62434e-06
3.62318e-06
3.6221e-06
3.62111e-06
3.62021e-06
3.61939e-06
3.61863e-06
3.61795e-06
3.61733e-06
3.61677e-06
3.61628e-06
3.61585e-06
3.61549e-06
3.6152e-06
3.61496e-06
3.61475e-06
3.61457e-06
3.61439e-06
3.61421e-06
3.61404e-06
3.61391e-06
3.61384e-06
3.61384e-06
3.6139e-06
3.61401e-06
3.6142e-06
3.61443e-06
3.62887e-06
3.62553e-06
3.62253e-06
3.61983e-06
3.61737e-06
3.61511e-06
3.61304e-06
3.61115e-06
3.60944e-06
3.60789e-06
3.60649e-06
3.6052e-06
3.60401e-06
3.60289e-06
3.60187e-06
3.60094e-06
3.6001e-06
3.59934e-06
3.59864e-06
3.598e-06
3.59743e-06
3.59693e-06
3.59649e-06
3.59612e-06
3.59581e-06
3.59554e-06
3.59531e-06
3.5951e-06
3.59489e-06
3.59469e-06
3.59451e-06
3.59436e-06
3.59428e-06
3.59427e-06
3.59433e-06
3.59444e-06
3.59463e-06
3.59488e-06
3.57038e-06
3.56678e-06
3.56355e-06
3.56064e-06
3.55799e-06
3.55557e-06
3.55335e-06
3.55132e-06
3.54948e-06
3.54782e-06
3.5463e-06
3.54491e-06
3.54362e-06
3.54242e-06
3.54131e-06
3.5403e-06
3.5394e-06
3.53858e-06
3.53783e-06
3.53715e-06
3.53653e-06
3.53599e-06
3.53551e-06
3.53511e-06
3.53475e-06
3.53444e-06
3.53416e-06
3.5339e-06
3.53366e-06
3.53343e-06
3.53322e-06
3.53305e-06
3.53295e-06
3.53292e-06
3.53296e-06
3.53306e-06
3.53324e-06
3.53349e-06
3.40788e-06
3.40361e-06
3.39977e-06
3.39631e-06
3.39316e-06
3.39028e-06
3.38764e-06
3.38523e-06
3.38304e-06
3.38106e-06
3.37925e-06
3.37759e-06
3.37606e-06
3.37464e-06
3.37333e-06
3.37214e-06
3.37106e-06
3.37008e-06
3.3692e-06
3.36839e-06
3.36766e-06
3.367e-06
3.36643e-06
3.36594e-06
3.36551e-06
3.36513e-06
3.36478e-06
3.36445e-06
3.36414e-06
3.36385e-06
3.36359e-06
3.36336e-06
3.36321e-06
3.36313e-06
3.36313e-06
3.36319e-06
3.36334e-06
3.36357e-06
2.97175e-06
2.96667e-06
2.96208e-06
2.95794e-06
2.95418e-06
2.95076e-06
2.94764e-06
2.94478e-06
2.94218e-06
2.93981e-06
2.93764e-06
2.93566e-06
2.93385e-06
2.93218e-06
2.93065e-06
2.92923e-06
2.92794e-06
2.92675e-06
2.92567e-06
2.92468e-06
2.92378e-06
2.92296e-06
2.92222e-06
2.92156e-06
2.92097e-06
2.92046e-06
2.92e-06
2.91958e-06
2.9192e-06
2.91885e-06
2.91853e-06
2.91824e-06
2.918e-06
2.91781e-06
2.91768e-06
2.91765e-06
2.91769e-06
2.91778e-06
7.48151e-06
7.47556e-06
7.47014e-06
7.4652e-06
7.46069e-06
7.45656e-06
7.45277e-06
7.44929e-06
7.44609e-06
7.44314e-06
7.44042e-06
7.43793e-06
7.43565e-06
7.43358e-06
7.43169e-06
7.42996e-06
7.42838e-06
7.42694e-06
7.42563e-06
7.42444e-06
7.42336e-06
7.42241e-06
7.42158e-06
7.42084e-06
7.42018e-06
7.41958e-06
7.41905e-06
7.41858e-06
7.41816e-06
7.41781e-06
7.41752e-06
7.41729e-06
7.41713e-06
7.41703e-06
7.41695e-06
7.41692e-06
7.41692e-06
7.41696e-06
1.60916e-05
1.61422e-05
1.61868e-05
1.62265e-05
1.6262e-05
1.62937e-05
1.63221e-05
1.63477e-05
1.63707e-05
1.63914e-05
1.64103e-05
1.64277e-05
1.64438e-05
1.64588e-05
1.64726e-05
1.64852e-05
1.64969e-05
1.65078e-05
1.65181e-05
1.65277e-05
1.65369e-05
1.65458e-05
1.65542e-05
1.6562e-05
1.65689e-05
1.6575e-05
1.65801e-05
1.65846e-05
1.65887e-05
1.65928e-05
1.65969e-05
1.66012e-05
1.66056e-05
1.661e-05
1.66142e-05
1.66176e-05
1.66201e-05
1.66219e-05
2.03172e-05
2.03903e-05
2.04547e-05
2.0512e-05
2.05632e-05
2.06092e-05
2.06505e-05
2.06877e-05
2.07213e-05
2.07516e-05
2.07794e-05
2.08052e-05
2.08291e-05
2.08511e-05
2.08712e-05
2.08895e-05
2.09065e-05
2.09224e-05
2.09373e-05
2.09513e-05
2.09647e-05
2.09774e-05
2.09894e-05
2.10004e-05
2.10105e-05
2.10194e-05
2.10272e-05
2.1034e-05
2.10403e-05
2.10464e-05
2.10525e-05
2.10585e-05
2.10645e-05
2.10705e-05
2.10763e-05
2.10814e-05
2.1085e-05
2.10875e-05
2.21328e-05
2.22155e-05
2.22882e-05
2.23527e-05
2.24105e-05
2.24624e-05
2.25091e-05
2.25513e-05
2.25893e-05
2.2624e-05
2.2656e-05
2.26858e-05
2.27134e-05
2.27387e-05
2.27615e-05
2.27822e-05
2.28013e-05
2.28191e-05
2.28357e-05
2.28514e-05
2.28663e-05
2.28805e-05
2.28938e-05
2.2906e-05
2.29174e-05
2.29279e-05
2.29372e-05
2.29455e-05
2.29531e-05
2.29601e-05
2.29668e-05
2.29731e-05
2.29795e-05
2.2986e-05
2.29924e-05
2.29984e-05
2.3003e-05
2.30061e-05
2.28216e-05
2.29075e-05
2.2983e-05
2.30502e-05
2.31103e-05
2.31643e-05
2.32128e-05
2.32565e-05
2.32962e-05
2.33326e-05
2.33666e-05
2.33981e-05
2.34271e-05
2.34535e-05
2.34773e-05
2.34988e-05
2.35186e-05
2.35368e-05
2.35537e-05
2.35696e-05
2.35849e-05
2.35993e-05
2.36125e-05
2.36249e-05
2.36368e-05
2.3648e-05
2.36584e-05
2.36678e-05
2.3676e-05
2.36833e-05
2.36898e-05
2.36957e-05
2.37018e-05
2.37082e-05
2.37148e-05
2.37212e-05
2.37266e-05
2.37303e-05
2.312e-05
2.31965e-05
2.32648e-05
2.33261e-05
2.33808e-05
2.34298e-05
2.3474e-05
2.35144e-05
2.35517e-05
2.35865e-05
2.36187e-05
2.3648e-05
2.36745e-05
2.36985e-05
2.37202e-05
2.37401e-05
2.37582e-05
2.37749e-05
2.37906e-05
2.38056e-05
2.38197e-05
2.38326e-05
2.38448e-05
2.38567e-05
2.38683e-05
2.38793e-05
2.38892e-05
2.38978e-05
2.39049e-05
2.39108e-05
2.39162e-05
2.39218e-05
2.39279e-05
2.39345e-05
2.39412e-05
2.39473e-05
2.39515e-05
2.3118e-05
2.31952e-05
2.32644e-05
2.33265e-05
2.33819e-05
2.34313e-05
2.34759e-05
2.35167e-05
2.35546e-05
2.35897e-05
2.36219e-05
2.36511e-05
2.36774e-05
2.37011e-05
2.37226e-05
2.37424e-05
2.37604e-05
2.37769e-05
2.37924e-05
2.38071e-05
2.38208e-05
2.38334e-05
2.38454e-05
2.38572e-05
2.38688e-05
2.38798e-05
2.38898e-05
2.38982e-05
2.39049e-05
2.39104e-05
2.39153e-05
2.39205e-05
2.39264e-05
2.39329e-05
2.39398e-05
2.39465e-05
2.39513e-05
2.29026e-05
2.29797e-05
2.30493e-05
2.31118e-05
2.31675e-05
2.32172e-05
2.32619e-05
2.33028e-05
2.33406e-05
2.33756e-05
2.34075e-05
2.34363e-05
2.34619e-05
2.34849e-05
2.35058e-05
2.35252e-05
2.35432e-05
2.35596e-05
2.35749e-05
2.35891e-05
2.36024e-05
2.36148e-05
2.36268e-05
2.36384e-05
2.36495e-05
2.36599e-05
2.36693e-05
2.36771e-05
2.36834e-05
2.36884e-05
2.36929e-05
2.36978e-05
2.37035e-05
2.371e-05
2.37171e-05
2.37242e-05
2.37297e-05
2.37339e-05
2.22097e-05
2.22845e-05
2.23521e-05
2.2413e-05
2.24674e-05
2.25158e-05
2.25592e-05
2.25989e-05
2.26354e-05
2.26691e-05
2.26997e-05
2.27271e-05
2.27513e-05
2.27729e-05
2.27927e-05
2.28112e-05
2.28286e-05
2.28446e-05
2.28592e-05
2.28727e-05
2.28853e-05
2.28973e-05
2.29088e-05
2.29197e-05
2.293e-05
2.29393e-05
2.29475e-05
2.29544e-05
2.29599e-05
2.29644e-05
2.29685e-05
2.2973e-05
2.29785e-05
2.2985e-05
2.2992e-05
2.29991e-05
2.3005e-05
2.30096e-05
2.03852e-05
2.04518e-05
2.05119e-05
2.05662e-05
2.06147e-05
2.06576e-05
2.06962e-05
2.07313e-05
2.07636e-05
2.07932e-05
2.08201e-05
2.08441e-05
2.08652e-05
2.0884e-05
2.09012e-05
2.09174e-05
2.09327e-05
2.0947e-05
2.09599e-05
2.09718e-05
2.09828e-05
2.09932e-05
2.10033e-05
2.10128e-05
2.10215e-05
2.10292e-05
2.10357e-05
2.10411e-05
2.10455e-05
2.10492e-05
2.10527e-05
2.10567e-05
2.10616e-05
2.10675e-05
2.1074e-05
2.10805e-05
2.10861e-05
2.10904e-05
1.61387e-05
1.61849e-05
1.62265e-05
1.6264e-05
1.62974e-05
1.63268e-05
1.63531e-05
1.63771e-05
1.63993e-05
1.64195e-05
1.64379e-05
1.64541e-05
1.64685e-05
1.64813e-05
1.64929e-05
1.65039e-05
1.65144e-05
1.65243e-05
1.65332e-05
1.65415e-05
1.65491e-05
1.65563e-05
1.65634e-05
1.65701e-05
1.65762e-05
1.65815e-05
1.65858e-05
1.65892e-05
1.65919e-05
1.65942e-05
1.65964e-05
1.6599e-05
1.66025e-05
1.66068e-05
1.66116e-05
1.66164e-05
1.66203e-05
1.66237e-05
7.47512e-06
7.46973e-06
7.46486e-06
7.46043e-06
7.45639e-06
7.45268e-06
7.44927e-06
7.44616e-06
7.44332e-06
7.44073e-06
7.43836e-06
7.43618e-06
7.43417e-06
7.43231e-06
7.43059e-06
7.42902e-06
7.42758e-06
7.42626e-06
7.42505e-06
7.42393e-06
7.42292e-06
7.422e-06
7.4212e-06
7.42048e-06
7.41985e-06
7.41927e-06
7.41874e-06
7.41825e-06
7.4178e-06
7.41739e-06
7.41704e-06
7.41676e-06
7.41657e-06
7.41649e-06
7.4165e-06
7.41654e-06
7.41664e-06
7.41681e-06
7.96902e-06
7.96272e-06
7.95701e-06
7.95182e-06
7.9471e-06
7.94279e-06
7.93885e-06
7.93524e-06
7.93193e-06
7.92888e-06
7.92609e-06
7.92354e-06
7.9212e-06
7.91907e-06
7.91712e-06
7.91533e-06
7.9137e-06
7.91221e-06
7.91086e-06
7.90962e-06
7.90851e-06
7.90751e-06
7.90663e-06
7.90584e-06
7.90514e-06
7.90451e-06
7.90394e-06
7.90344e-06
7.90299e-06
7.9026e-06
7.90227e-06
7.90201e-06
7.90182e-06
7.90169e-06
7.90161e-06
7.90158e-06
7.90158e-06
7.90162e-06
2.6364e-05
2.64158e-05
2.64613e-05
2.65016e-05
2.65376e-05
2.65698e-05
2.65986e-05
2.66244e-05
2.66476e-05
2.66686e-05
2.66876e-05
2.67051e-05
2.67214e-05
2.67366e-05
2.67505e-05
2.67633e-05
2.67751e-05
2.67861e-05
2.67965e-05
2.68063e-05
2.68157e-05
2.6825e-05
2.6834e-05
2.68424e-05
2.68498e-05
2.68561e-05
2.68614e-05
2.6866e-05
2.68701e-05
2.68742e-05
2.68785e-05
2.6883e-05
2.68879e-05
2.6893e-05
2.68979e-05
2.69022e-05
2.69057e-05
2.69085e-05
3.68486e-05
3.69351e-05
3.70111e-05
3.70786e-05
3.71389e-05
3.71929e-05
3.72415e-05
3.72851e-05
3.73245e-05
3.73601e-05
3.73927e-05
3.74228e-05
3.74507e-05
3.74765e-05
3.75e-05
3.75215e-05
3.75414e-05
3.75599e-05
3.75773e-05
3.75938e-05
3.76094e-05
3.76244e-05
3.76386e-05
3.76518e-05
3.76639e-05
3.76746e-05
3.7684e-05
3.76924e-05
3.77001e-05
3.77074e-05
3.77147e-05
3.7722e-05
3.77294e-05
3.77369e-05
3.77441e-05
3.77508e-05
3.77563e-05
3.77607e-05
4.18125e-05
4.19186e-05
4.20118e-05
4.20945e-05
4.21685e-05
4.22349e-05
4.22946e-05
4.23483e-05
4.23969e-05
4.24411e-05
4.24819e-05
4.25197e-05
4.25547e-05
4.25867e-05
4.26158e-05
4.26423e-05
4.26666e-05
4.26893e-05
4.27104e-05
4.27304e-05
4.27493e-05
4.27674e-05
4.27843e-05
4.28001e-05
4.28148e-05
4.28283e-05
4.28405e-05
4.28514e-05
4.28614e-05
4.28707e-05
4.28795e-05
4.28879e-05
4.28964e-05
4.2905e-05
4.29136e-05
4.29217e-05
4.29288e-05
4.29345e-05
4.38463e-05
4.39608e-05
4.40615e-05
4.41512e-05
4.42313e-05
4.43032e-05
4.43678e-05
4.4426e-05
4.44788e-05
4.45272e-05
4.45721e-05
4.46137e-05
4.46519e-05
4.46868e-05
4.47183e-05
4.4747e-05
4.47733e-05
4.47975e-05
4.482e-05
4.48411e-05
4.48613e-05
4.48803e-05
4.4898e-05
4.49146e-05
4.49304e-05
4.49455e-05
4.49595e-05
4.49721e-05
4.49834e-05
4.49934e-05
4.50025e-05
4.50109e-05
4.50193e-05
4.50282e-05
4.50373e-05
4.50462e-05
4.50543e-05
4.50612e-05
4.4629e-05
4.47326e-05
4.48251e-05
4.49079e-05
4.4982e-05
4.50483e-05
4.51081e-05
4.51626e-05
4.52129e-05
4.52595e-05
4.53026e-05
4.53419e-05
4.53776e-05
4.54099e-05
4.54392e-05
4.5466e-05
4.54906e-05
4.55132e-05
4.55344e-05
4.55546e-05
4.55736e-05
4.55912e-05
4.56078e-05
4.5624e-05
4.56396e-05
4.56545e-05
4.56679e-05
4.56797e-05
4.56898e-05
4.56985e-05
4.57064e-05
4.57144e-05
4.5723e-05
4.57322e-05
4.57415e-05
4.57505e-05
4.57583e-05
4.46267e-05
4.4731e-05
4.48245e-05
4.49083e-05
4.49832e-05
4.50501e-05
4.51104e-05
4.51655e-05
4.52163e-05
4.52634e-05
4.53066e-05
4.53459e-05
4.53813e-05
4.54132e-05
4.54423e-05
4.54689e-05
4.54933e-05
4.55158e-05
4.55367e-05
4.55565e-05
4.5575e-05
4.55923e-05
4.56087e-05
4.56247e-05
4.56403e-05
4.56552e-05
4.56686e-05
4.56803e-05
4.56899e-05
4.56979e-05
4.57052e-05
4.57128e-05
4.57211e-05
4.57302e-05
4.57397e-05
4.57493e-05
4.57578e-05
4.39549e-05
4.40575e-05
4.41498e-05
4.42328e-05
4.43069e-05
4.4373e-05
4.44325e-05
4.44868e-05
4.45368e-05
4.45829e-05
4.46251e-05
4.46632e-05
4.46973e-05
4.47279e-05
4.47558e-05
4.47815e-05
4.48054e-05
4.48273e-05
4.48476e-05
4.48666e-05
4.48844e-05
4.49011e-05
4.49171e-05
4.49326e-05
4.49475e-05
4.49614e-05
4.4974e-05
4.49847e-05
4.49935e-05
4.50008e-05
4.50074e-05
4.50144e-05
4.50223e-05
4.50313e-05
4.50409e-05
4.50507e-05
4.50598e-05
4.50678e-05
4.19114e-05
4.2007e-05
4.20933e-05
4.2171e-05
4.22403e-05
4.23021e-05
4.23575e-05
4.2408e-05
4.24545e-05
4.24972e-05
4.25361e-05
4.25709e-05
4.26019e-05
4.26296e-05
4.26549e-05
4.26785e-05
4.27005e-05
4.2721e-05
4.27397e-05
4.2757e-05
4.27733e-05
4.27887e-05
4.28035e-05
4.28177e-05
4.2831e-05
4.28432e-05
4.2854e-05
4.28631e-05
4.28705e-05
4.28767e-05
4.28824e-05
4.28886e-05
4.28959e-05
4.29044e-05
4.29136e-05
4.29231e-05
4.29322e-05
4.29404e-05
3.69287e-05
3.70071e-05
3.70779e-05
3.71417e-05
3.71985e-05
3.7249e-05
3.72942e-05
3.73353e-05
3.73731e-05
3.74078e-05
3.74392e-05
3.74673e-05
3.7492e-05
3.75141e-05
3.75343e-05
3.75532e-05
3.75712e-05
3.75878e-05
3.76031e-05
3.76172e-05
3.76303e-05
3.76429e-05
3.76551e-05
3.76667e-05
3.76773e-05
3.76868e-05
3.76949e-05
3.77015e-05
3.77068e-05
3.77112e-05
3.77154e-05
3.77202e-05
3.77262e-05
3.77334e-05
3.77414e-05
3.77496e-05
3.77577e-05
3.7765e-05
2.64114e-05
2.64585e-05
2.6501e-05
2.65393e-05
2.65731e-05
2.66029e-05
2.66295e-05
2.66538e-05
2.66761e-05
2.66966e-05
2.67151e-05
2.67315e-05
2.67458e-05
2.67585e-05
2.67701e-05
2.67811e-05
2.67917e-05
2.68017e-05
2.6811e-05
2.68196e-05
2.68277e-05
2.68356e-05
2.68435e-05
2.68511e-05
2.68581e-05
2.6864e-05
2.68686e-05
2.68721e-05
2.68745e-05
2.68764e-05
2.68781e-05
2.68804e-05
2.68839e-05
2.68885e-05
2.6894e-05
2.68997e-05
2.69053e-05
2.69104e-05
7.96235e-06
7.95664e-06
7.9515e-06
7.94683e-06
7.94258e-06
7.93869e-06
7.93513e-06
7.93188e-06
7.92892e-06
7.92622e-06
7.92376e-06
7.92149e-06
7.91941e-06
7.91748e-06
7.91572e-06
7.9141e-06
7.91262e-06
7.91127e-06
7.91003e-06
7.9089e-06
7.90787e-06
7.90695e-06
7.90613e-06
7.9054e-06
7.90476e-06
7.90418e-06
7.90365e-06
7.90315e-06
7.9027e-06
7.90228e-06
7.90191e-06
7.9016e-06
7.90137e-06
7.90124e-06
7.90119e-06
7.90122e-06
7.90132e-06
7.90148e-06
8.20339e-06
8.19686e-06
8.19092e-06
8.18553e-06
8.18062e-06
8.17615e-06
8.17206e-06
8.16832e-06
8.1649e-06
8.16177e-06
8.1589e-06
8.15628e-06
8.15388e-06
8.1517e-06
8.14971e-06
8.14788e-06
8.14622e-06
8.14469e-06
8.1433e-06
8.14204e-06
8.14089e-06
8.13987e-06
8.13896e-06
8.13815e-06
8.13743e-06
8.13678e-06
8.13619e-06
8.13566e-06
8.13519e-06
8.13479e-06
8.13444e-06
8.13416e-06
8.13395e-06
8.1338e-06
8.13371e-06
8.13367e-06
8.13367e-06
8.13371e-06
3.33777e-05
3.3425e-05
3.34665e-05
3.35033e-05
3.35362e-05
3.35656e-05
3.3592e-05
3.36155e-05
3.36366e-05
3.36556e-05
3.36728e-05
3.36887e-05
3.37036e-05
3.37174e-05
3.37301e-05
3.37417e-05
3.37523e-05
3.37624e-05
3.37719e-05
3.37809e-05
3.37897e-05
3.37985e-05
3.38072e-05
3.38154e-05
3.38225e-05
3.38284e-05
3.38333e-05
3.38374e-05
3.38413e-05
3.3845e-05
3.38489e-05
3.38532e-05
3.3858e-05
3.38631e-05
3.3868e-05
3.38724e-05
3.38759e-05
3.38785e-05
5.00229e-05
5.0109e-05
5.01848e-05
5.02519e-05
5.03118e-05
5.03654e-05
5.04135e-05
5.04568e-05
5.04957e-05
5.0531e-05
5.05633e-05
5.0593e-05
5.06206e-05
5.06461e-05
5.06695e-05
5.06908e-05
5.07105e-05
5.07289e-05
5.07462e-05
5.07625e-05
5.07781e-05
5.07931e-05
5.08075e-05
5.08209e-05
5.08331e-05
5.08439e-05
5.08535e-05
5.0862e-05
5.08699e-05
5.08774e-05
5.08848e-05
5.08923e-05
5.09e-05
5.09077e-05
5.09153e-05
5.09223e-05
5.09283e-05
5.09332e-05
5.86539e-05
5.87663e-05
5.88652e-05
5.8953e-05
5.90314e-05
5.91016e-05
5.91648e-05
5.92216e-05
5.9273e-05
5.93198e-05
5.93627e-05
5.94025e-05
5.94393e-05
5.94729e-05
5.95036e-05
5.95316e-05
5.95574e-05
5.95813e-05
5.96037e-05
5.96247e-05
5.96447e-05
5.96638e-05
5.96817e-05
5.96985e-05
5.97141e-05
5.97285e-05
5.97416e-05
5.97535e-05
5.97643e-05
5.97743e-05
5.97839e-05
5.97931e-05
5.98024e-05
5.98118e-05
5.98212e-05
5.98301e-05
5.98381e-05
5.9845e-05
6.24462e-05
6.25719e-05
6.26827e-05
6.27812e-05
6.28693e-05
6.29482e-05
6.30191e-05
6.3083e-05
6.31409e-05
6.3194e-05
6.3243e-05
6.32883e-05
6.33299e-05
6.33679e-05
6.34024e-05
6.34338e-05
6.34625e-05
6.34891e-05
6.35138e-05
6.35369e-05
6.35589e-05
6.35797e-05
6.35992e-05
6.36175e-05
6.36348e-05
6.36513e-05
6.36666e-05
6.36805e-05
6.3693e-05
6.37044e-05
6.37146e-05
6.37243e-05
6.3734e-05
6.37439e-05
6.37541e-05
6.37642e-05
6.37736e-05
6.3782e-05
6.38892e-05
6.40048e-05
6.41079e-05
6.42002e-05
6.42828e-05
6.43568e-05
6.44235e-05
6.44843e-05
6.45401e-05
6.45917e-05
6.46393e-05
6.46828e-05
6.47223e-05
6.47581e-05
6.47907e-05
6.48205e-05
6.48479e-05
6.48732e-05
6.48968e-05
6.49193e-05
6.49404e-05
6.496e-05
6.49786e-05
6.49966e-05
6.50139e-05
6.50302e-05
6.50452e-05
6.50584e-05
6.50699e-05
6.508e-05
6.50894e-05
6.50988e-05
6.51087e-05
6.51191e-05
6.51298e-05
6.51401e-05
6.51496e-05
6.3887e-05
6.40032e-05
6.41073e-05
6.42006e-05
6.4284e-05
6.43586e-05
6.44259e-05
6.44872e-05
6.45436e-05
6.45957e-05
6.46435e-05
6.46869e-05
6.47262e-05
6.47617e-05
6.4794e-05
6.48236e-05
6.48508e-05
6.48759e-05
6.48992e-05
6.49212e-05
6.49419e-05
6.49612e-05
6.49796e-05
6.49974e-05
6.50147e-05
6.5031e-05
6.50459e-05
6.50589e-05
6.507e-05
6.50795e-05
6.50882e-05
6.5097e-05
6.51066e-05
6.5117e-05
6.51279e-05
6.51387e-05
6.5149e-05
6.25661e-05
6.26787e-05
6.27798e-05
6.28707e-05
6.29519e-05
6.30244e-05
6.30897e-05
6.31491e-05
6.32038e-05
6.32541e-05
6.33e-05
6.33416e-05
6.33789e-05
6.34124e-05
6.3443e-05
6.34712e-05
6.34974e-05
6.35214e-05
6.35437e-05
6.35646e-05
6.35841e-05
6.36025e-05
6.36202e-05
6.36372e-05
6.36535e-05
6.36687e-05
6.36825e-05
6.36944e-05
6.37043e-05
6.37128e-05
6.37206e-05
6.37287e-05
6.37377e-05
6.37478e-05
6.37585e-05
6.37695e-05
6.37802e-05
6.379e-05
5.87591e-05
5.88604e-05
5.89516e-05
5.90336e-05
5.91069e-05
5.91723e-05
5.9231e-05
5.92843e-05
5.93333e-05
5.93782e-05
5.94191e-05
5.94559e-05
5.94886e-05
5.9518e-05
5.95447e-05
5.95697e-05
5.95929e-05
5.96145e-05
5.96343e-05
5.96527e-05
5.967e-05
5.96865e-05
5.97023e-05
5.97174e-05
5.97316e-05
5.97446e-05
5.97561e-05
5.97659e-05
5.97739e-05
5.97807e-05
5.97871e-05
5.97939e-05
5.98019e-05
5.98112e-05
5.98213e-05
5.98317e-05
5.98421e-05
5.98517e-05
5.01024e-05
5.01805e-05
5.02509e-05
5.03142e-05
5.03707e-05
5.04209e-05
5.04658e-05
5.05066e-05
5.05441e-05
5.05784e-05
5.06095e-05
5.06372e-05
5.06618e-05
5.06838e-05
5.07038e-05
5.07226e-05
5.07403e-05
5.07567e-05
5.07719e-05
5.07859e-05
5.07992e-05
5.08119e-05
5.08244e-05
5.08362e-05
5.08471e-05
5.08567e-05
5.08648e-05
5.08714e-05
5.08766e-05
5.08808e-05
5.08849e-05
5.08896e-05
5.08957e-05
5.09032e-05
5.09117e-05
5.09206e-05
5.09295e-05
5.09378e-05
3.34208e-05
3.34639e-05
3.35029e-05
3.35379e-05
3.35689e-05
3.35964e-05
3.36209e-05
3.36431e-05
3.36636e-05
3.36824e-05
3.36992e-05
3.3714e-05
3.3727e-05
3.37384e-05
3.37489e-05
3.37588e-05
3.37684e-05
3.37775e-05
3.37859e-05
3.37938e-05
3.38013e-05
3.3809e-05
3.38168e-05
3.38244e-05
3.38311e-05
3.38366e-05
3.38408e-05
3.38436e-05
3.38452e-05
3.38461e-05
3.38469e-05
3.38486e-05
3.38517e-05
3.38564e-05
3.38622e-05
3.38684e-05
3.38746e-05
3.38802e-05
8.19643e-06
8.19052e-06
8.1852e-06
8.18037e-06
8.17596e-06
8.17192e-06
8.16822e-06
8.16485e-06
8.16179e-06
8.159e-06
8.15646e-06
8.15412e-06
8.15197e-06
8.14999e-06
8.14818e-06
8.14652e-06
8.14501e-06
8.14364e-06
8.14238e-06
8.14123e-06
8.14018e-06
8.13924e-06
8.13841e-06
8.13768e-06
8.13703e-06
8.13644e-06
8.13589e-06
8.13539e-06
8.13492e-06
8.13449e-06
8.1341e-06
8.13377e-06
8.13352e-06
8.13337e-06
8.1333e-06
8.13332e-06
8.13339e-06
8.13354e-06
8.33015e-06
8.32338e-06
8.31723e-06
8.31165e-06
8.30657e-06
8.30193e-06
8.2977e-06
8.29383e-06
8.29029e-06
8.28704e-06
8.28406e-06
8.28134e-06
8.27886e-06
8.27662e-06
8.27459e-06
8.27273e-06
8.27102e-06
8.26947e-06
8.26805e-06
8.26676e-06
8.2656e-06
8.26455e-06
8.26362e-06
8.2628e-06
8.26205e-06
8.26138e-06
8.26078e-06
8.26023e-06
8.25975e-06
8.25933e-06
8.25898e-06
8.25868e-06
8.25846e-06
8.2583e-06
8.2582e-06
8.25815e-06
8.25814e-06
8.25816e-06
3.8122e-05
3.81629e-05
3.81988e-05
3.82307e-05
3.8259e-05
3.82845e-05
3.83073e-05
3.83277e-05
3.83462e-05
3.83629e-05
3.83782e-05
3.83922e-05
3.84054e-05
3.84174e-05
3.84284e-05
3.84384e-05
3.84475e-05
3.84561e-05
3.84644e-05
3.84723e-05
3.84801e-05
3.8488e-05
3.84961e-05
3.85037e-05
3.85102e-05
3.85155e-05
3.85199e-05
3.85236e-05
3.8527e-05
3.85303e-05
3.85338e-05
3.85376e-05
3.8542e-05
3.85468e-05
3.85513e-05
3.85551e-05
3.8558e-05
3.85601e-05
6.01204e-05
6.01982e-05
6.02667e-05
6.03273e-05
6.03813e-05
6.04297e-05
6.04731e-05
6.05121e-05
6.05473e-05
6.05791e-05
6.06083e-05
6.06351e-05
6.066e-05
6.0683e-05
6.07042e-05
6.07236e-05
6.07414e-05
6.07581e-05
6.07739e-05
6.07887e-05
6.0803e-05
6.08168e-05
6.08302e-05
6.08427e-05
6.0854e-05
6.08641e-05
6.0873e-05
6.0881e-05
6.08883e-05
6.08953e-05
6.09022e-05
6.09092e-05
6.09164e-05
6.09238e-05
6.09309e-05
6.09374e-05
6.0943e-05
6.09477e-05
7.24424e-05
7.25493e-05
7.26436e-05
7.27273e-05
7.28019e-05
7.28689e-05
7.2929e-05
7.29831e-05
7.3032e-05
7.30765e-05
7.31174e-05
7.31551e-05
7.31899e-05
7.32219e-05
7.32511e-05
7.32778e-05
7.33023e-05
7.33252e-05
7.33466e-05
7.33667e-05
7.33858e-05
7.3404e-05
7.34212e-05
7.34374e-05
7.34524e-05
7.34662e-05
7.34788e-05
7.34903e-05
7.35008e-05
7.35107e-05
7.352e-05
7.35291e-05
7.35382e-05
7.35474e-05
7.35565e-05
7.35651e-05
7.3573e-05
7.35799e-05
7.81955e-05
7.83191e-05
7.84283e-05
7.85254e-05
7.86123e-05
7.86901e-05
7.876e-05
7.8823e-05
7.88801e-05
7.89323e-05
7.89804e-05
7.90248e-05
7.90656e-05
7.91028e-05
7.91367e-05
7.91676e-05
7.9196e-05
7.92222e-05
7.92466e-05
7.92694e-05
7.92911e-05
7.93115e-05
7.93307e-05
7.93488e-05
7.93659e-05
7.9382e-05
7.93971e-05
7.94108e-05
7.94233e-05
7.94347e-05
7.94451e-05
7.9455e-05
7.94648e-05
7.94748e-05
7.9485e-05
7.9495e-05
7.95045e-05
7.95132e-05
8.04136e-05
8.05292e-05
8.06324e-05
8.07247e-05
8.08073e-05
8.08815e-05
8.09484e-05
8.10092e-05
8.1065e-05
8.11164e-05
8.11637e-05
8.12069e-05
8.12463e-05
8.1282e-05
8.13145e-05
8.13444e-05
8.13718e-05
8.13972e-05
8.14209e-05
8.14433e-05
8.14644e-05
8.14841e-05
8.15028e-05
8.15207e-05
8.15378e-05
8.1554e-05
8.15688e-05
8.15821e-05
8.15939e-05
8.16043e-05
8.16141e-05
8.16239e-05
8.1634e-05
8.16446e-05
8.16553e-05
8.16658e-05
8.16757e-05
8.04116e-05
8.05279e-05
8.06318e-05
8.07251e-05
8.08085e-05
8.08832e-05
8.09506e-05
8.1012e-05
8.10683e-05
8.11201e-05
8.11676e-05
8.12109e-05
8.125e-05
8.12854e-05
8.13177e-05
8.13474e-05
8.13746e-05
8.13998e-05
8.14232e-05
8.14452e-05
8.14659e-05
8.14853e-05
8.15038e-05
8.15215e-05
8.15386e-05
8.15548e-05
8.15695e-05
8.15825e-05
8.15938e-05
8.16037e-05
8.16129e-05
8.16221e-05
8.16319e-05
8.16425e-05
8.16534e-05
8.16645e-05
8.1675e-05
7.83138e-05
7.84247e-05
7.85242e-05
7.86135e-05
7.86935e-05
7.8765e-05
7.88294e-05
7.8888e-05
7.89417e-05
7.8991e-05
7.9036e-05
7.90768e-05
7.91135e-05
7.91465e-05
7.91767e-05
7.92045e-05
7.92303e-05
7.9254e-05
7.9276e-05
7.92966e-05
7.93159e-05
7.93341e-05
7.93516e-05
7.93683e-05
7.93843e-05
7.93991e-05
7.94126e-05
7.94243e-05
7.94343e-05
7.9443e-05
7.94511e-05
7.94594e-05
7.94685e-05
7.94786e-05
7.94894e-05
7.95004e-05
7.95113e-05
7.95215e-05
7.25426e-05
7.26391e-05
7.2726e-05
7.28041e-05
7.28739e-05
7.29362e-05
7.29921e-05
7.3043e-05
7.30896e-05
7.31323e-05
7.31711e-05
7.3206e-05
7.32372e-05
7.32653e-05
7.32909e-05
7.33146e-05
7.33367e-05
7.33572e-05
7.33761e-05
7.33937e-05
7.34102e-05
7.34261e-05
7.34413e-05
7.34558e-05
7.34694e-05
7.34818e-05
7.34926e-05
7.35019e-05
7.35096e-05
7.35162e-05
7.35224e-05
7.35292e-05
7.3537e-05
7.35461e-05
7.35561e-05
7.35665e-05
7.35768e-05
7.35866e-05
6.01917e-05
6.02625e-05
6.03264e-05
6.03838e-05
6.04349e-05
6.04803e-05
6.05211e-05
6.05581e-05
6.05921e-05
6.06231e-05
6.06513e-05
6.06764e-05
6.06987e-05
6.07186e-05
6.07368e-05
6.07538e-05
6.07698e-05
6.07846e-05
6.07983e-05
6.08109e-05
6.0823e-05
6.08349e-05
6.08465e-05
6.08575e-05
6.08676e-05
6.08763e-05
6.08835e-05
6.08892e-05
6.08936e-05
6.08971e-05
6.09005e-05
6.09047e-05
6.09103e-05
6.09176e-05
6.0926e-05
6.09349e-05
6.09437e-05
6.09519e-05
3.81587e-05
3.81963e-05
3.82303e-05
3.82609e-05
3.82881e-05
3.8312e-05
3.83334e-05
3.8353e-05
3.83711e-05
3.83876e-05
3.84025e-05
3.84157e-05
3.84273e-05
3.84376e-05
3.8447e-05
3.84555e-05
3.84637e-05
3.84715e-05
3.84785e-05
3.84852e-05
3.84917e-05
3.84987e-05
3.8506e-05
3.85129e-05
3.85188e-05
3.85236e-05
3.85268e-05
3.85286e-05
3.85291e-05
3.85289e-05
3.85288e-05
3.85299e-05
3.85326e-05
3.85372e-05
3.85432e-05
3.85497e-05
3.85561e-05
3.85616e-05
8.32293e-06
8.31682e-06
8.31132e-06
8.30634e-06
8.30179e-06
8.29761e-06
8.29379e-06
8.29031e-06
8.28715e-06
8.28427e-06
8.28164e-06
8.27921e-06
8.27696e-06
8.2749e-06
8.27302e-06
8.27132e-06
8.26978e-06
8.26837e-06
8.26709e-06
8.26591e-06
8.26485e-06
8.2639e-06
8.26305e-06
8.26231e-06
8.26165e-06
8.26105e-06
8.26048e-06
8.25996e-06
8.25947e-06
8.25902e-06
8.25861e-06
8.25827e-06
8.25801e-06
8.25784e-06
8.25776e-06
8.25776e-06
8.25783e-06
8.25797e-06
8.40101e-06
8.39406e-06
8.38776e-06
8.38204e-06
8.37683e-06
8.37208e-06
8.36775e-06
8.36379e-06
8.36016e-06
8.35683e-06
8.35379e-06
8.35101e-06
8.34848e-06
8.34618e-06
8.3441e-06
8.34221e-06
8.34048e-06
8.3389e-06
8.33746e-06
8.33615e-06
8.33496e-06
8.3339e-06
8.33296e-06
8.33212e-06
8.33136e-06
8.33067e-06
8.33005e-06
8.3295e-06
8.32901e-06
8.32859e-06
8.32822e-06
8.32791e-06
8.32768e-06
8.3275e-06
8.3274e-06
8.32735e-06
8.32733e-06
8.32732e-06
4.12553e-05
4.1289e-05
4.13186e-05
4.13448e-05
4.13682e-05
4.13891e-05
4.14079e-05
4.14247e-05
4.144e-05
4.14539e-05
4.14666e-05
4.14784e-05
4.14894e-05
4.14998e-05
4.15092e-05
4.15175e-05
4.1525e-05
4.15322e-05
4.15392e-05
4.15459e-05
4.15526e-05
4.15596e-05
4.15669e-05
4.15738e-05
4.15797e-05
4.15844e-05
4.15883e-05
4.15918e-05
4.15949e-05
4.15978e-05
4.16008e-05
4.16041e-05
4.1608e-05
4.16122e-05
4.1616e-05
4.1619e-05
4.16212e-05
4.16227e-05
6.75489e-05
6.76138e-05
6.7671e-05
6.77215e-05
6.77665e-05
6.78068e-05
6.78429e-05
6.78753e-05
6.79046e-05
6.79312e-05
6.79556e-05
6.7978e-05
6.79989e-05
6.80183e-05
6.80361e-05
6.80525e-05
6.80676e-05
6.80818e-05
6.80952e-05
6.81079e-05
6.81201e-05
6.81321e-05
6.81438e-05
6.81548e-05
6.81648e-05
6.81736e-05
6.81814e-05
6.81885e-05
6.8195e-05
6.82011e-05
6.82072e-05
6.82133e-05
6.82196e-05
6.82261e-05
6.82322e-05
6.82378e-05
6.82425e-05
6.82464e-05
8.32328e-05
8.3326e-05
8.34083e-05
8.34813e-05
8.35465e-05
8.36049e-05
8.36574e-05
8.37046e-05
8.37474e-05
8.37863e-05
8.38219e-05
8.38548e-05
8.38852e-05
8.39131e-05
8.39388e-05
8.39622e-05
8.39839e-05
8.4004e-05
8.40229e-05
8.40407e-05
8.40576e-05
8.40737e-05
8.4089e-05
8.41035e-05
8.41168e-05
8.41292e-05
8.41404e-05
8.41507e-05
8.41602e-05
8.41691e-05
8.41775e-05
8.41857e-05
8.41939e-05
8.42022e-05
8.42103e-05
8.4218e-05
8.4225e-05
8.42312e-05
9.09388e-05
9.105e-05
9.11484e-05
9.1236e-05
9.13143e-05
9.13845e-05
9.14476e-05
9.15046e-05
9.15562e-05
9.16034e-05
9.16467e-05
9.16866e-05
9.17233e-05
9.17569e-05
9.17875e-05
9.18155e-05
9.18412e-05
9.1865e-05
9.18871e-05
9.19079e-05
9.19275e-05
9.19461e-05
9.19636e-05
9.198e-05
9.19955e-05
9.20101e-05
9.20238e-05
9.20363e-05
9.20477e-05
9.20582e-05