/*--------------------------------*- C++ -*----------------------------------*\
| =========                 |                                                 |
| \\      /  F ield         | OpenFOAM: The Open Source CFD Toolbox           |
|  \\    /   O peration     | Version:  2.3.1                                 |
|   \\  /    A nd           | Web:      www.OpenFOAM.org                      |
|    \\/     M anipulation  |                                                 |
\*---------------------------------------------------------------------------*/
FoamFile
{
    version     2.0;
    format      ascii;
    class       surfaceScalarField;
    location    "10";
    object      phi;
}
// * * * * * * * * * * * * * * * * * * * * * * * * * * * * * * * * * * * * * //

dimensions      [0 3 -1 0 0 0 0];

internalField   nonuniform List<scalar> 
110041
(
1.06086e-06
7.19627e-09
1.79702e-08
1.03831e-06
6.50266e-09
1.60426e-08
1.01804e-06
5.90614e-09
1.4369e-08
9.9975e-07
5.38086e-09
1.29055e-08
9.83215e-07
4.91305e-09
1.16223e-08
9.68223e-07
4.49495e-09
1.04971e-08
9.54595e-07
4.11971e-09
9.50833e-09
9.42179e-07
3.78151e-09
8.63396e-09
9.30848e-07
3.47573e-09
7.85516e-09
9.20493e-07
3.1971e-09
7.15825e-09
9.11022e-07
2.93939e-09
6.53224e-09
9.02358e-07
2.69888e-09
5.96505e-09
8.94436e-07
2.4775e-09
5.444e-09
8.87195e-07
2.28034e-09
4.96067e-09
8.80573e-07
2.1098e-09
4.51263e-09
8.74512e-07
1.96212e-09
4.09859e-09
8.68967e-07
1.82972e-09
3.71493e-09
8.63902e-07
1.70692e-09
3.35815e-09
8.59283e-07
1.59135e-09
3.02747e-09
8.55083e-07
1.47986e-09
2.72077e-09
8.51283e-07
1.36855e-09
2.43126e-09
8.47872e-07
1.25803e-09
2.15309e-09
8.44831e-07
1.15279e-09
1.88819e-09
8.42132e-07
1.05545e-09
1.64371e-09
8.39741e-07
9.67061e-10
1.424e-09
8.37623e-07
8.90778e-10
1.22707e-09
8.35746e-07
8.2995e-10
1.04707e-09
8.34084e-07
7.83307e-10
8.78526e-10
8.32622e-07
7.44055e-10
7.17809e-10
8.31356e-07
7.03975e-10
5.62049e-10
8.3029e-07
6.57667e-10
4.08655e-10
8.29431e-07
6.01539e-10
2.56937e-10
8.2879e-07
5.31921e-10
1.09501e-10
8.2837e-07
4.48269e-10
-2.85719e-11
8.28166e-07
3.55245e-10
-1.51374e-10
8.28162e-07
2.61979e-10
-2.57609e-10
8.28333e-07
1.76523e-10
-3.47667e-10
1.02625e-10
-4.2692e-10
1.11585e-06
8.20064e-09
2.49274e-08
1.0926e-06
7.38638e-09
2.23664e-08
1.07168e-06
6.69075e-09
2.01354e-08
1.0528e-06
6.08326e-09
1.81701e-08
1.03574e-06
5.54406e-09
1.64368e-08
1.02026e-06
5.06029e-09
1.49101e-08
1.0062e-06
4.62313e-09
1.35613e-08
9.93388e-07
4.2267e-09
1.23627e-08
9.81705e-07
3.86496e-09
1.12939e-08
9.71034e-07
3.52981e-09
1.03388e-08
9.6128e-07
3.21454e-09
9.47856e-09
9.52368e-07
2.91958e-09
8.69188e-09
9.44227e-07
2.65266e-09
7.96506e-09
9.3679e-07
2.42248e-09
7.29474e-09
9.29989e-07
2.23212e-09
6.67938e-09
9.23763e-07
2.07621e-09
6.1115e-09
9.18069e-07
1.94403e-09
5.58032e-09
9.12868e-07
1.82654e-09
5.08107e-09
9.08126e-07
1.71898e-09
4.61462e-09
9.03813e-07
1.61688e-09
4.17558e-09
8.99913e-07
1.51598e-09
3.75245e-09
8.96411e-07
1.41646e-09
3.34402e-09
8.93281e-07
1.32071e-09
2.9615e-09
8.90495e-07
1.22828e-09
2.61335e-09
8.88022e-07
1.13859e-09
2.30104e-09
8.85832e-07
1.05567e-09
2.02542e-09
8.83891e-07
9.85635e-10
1.78504e-09
8.82173e-07
9.3089e-10
1.57073e-09
8.80662e-07
8.88508e-10
1.36667e-09
8.79355e-07
8.53214e-10
1.15753e-09
8.78256e-07
8.19042e-10
9.37965e-10
8.77369e-07
7.76737e-10
7.12167e-10
8.767e-07
7.14419e-10
4.85836e-10
8.76256e-07
6.25409e-10
2.67083e-10
8.7603e-07
5.13124e-10
6.76883e-11
8.7601e-07
3.87955e-10
-1.05473e-10
8.76172e-07
2.63385e-10
-2.49142e-10
1.47971e-10
-3.65806e-10
1.12421e-06
6.41077e-09
2.77531e-08
1.10092e-06
5.74502e-09
2.49311e-08
1.07995e-06
5.17167e-09
2.24855e-08
1.06103e-06
4.66739e-09
2.03399e-08
1.0439e-06
4.21699e-09
1.84489e-08
1.02838e-06
3.81138e-09
1.67753e-08
1.01427e-06
3.4441e-09
1.52865e-08
1.00143e-06
3.10849e-09
1.39606e-08
9.89716e-07
2.79598e-09
1.27817e-08
9.79019e-07
2.4987e-09
1.17275e-08
9.69251e-07
2.2158e-09
1.07671e-08
9.60338e-07
1.95556e-09
9.87656e-09
9.52211e-07
1.72928e-09
9.05099e-09
9.44792e-07
1.54394e-09
8.29713e-09
9.38007e-07
1.3999e-09
7.61738e-09
9.31792e-07
1.29178e-09
6.9994e-09
9.26103e-07
1.21132e-09
6.42172e-09
9.20906e-07
1.15106e-09
5.87233e-09
9.16168e-07
1.10458e-09
5.3529e-09
9.11859e-07
1.06491e-09
4.86042e-09
9.07963e-07
1.02735e-09
4.38441e-09
9.04462e-07
9.92032e-10
3.92613e-09
9.01326e-07
9.58513e-10
3.4975e-09
8.9853e-07
9.21136e-10
3.1038e-09
8.96048e-07
8.74543e-10
2.74613e-09
8.93852e-07
8.20954e-10
2.43015e-09
8.91911e-07
7.69247e-10
2.1579e-09
8.90195e-07
7.28949e-10
1.91782e-09
8.88689e-07
7.0609e-10
1.68801e-09
8.8739e-07
7.01467e-10
1.45137e-09
8.86293e-07
7.08379e-10
1.20718e-09
8.85399e-07
7.11214e-10
9.59848e-10
8.84715e-07
6.90914e-10
7.07117e-10
8.84253e-07
6.34841e-10
4.52321e-10
8.84015e-07
5.41493e-10
2.1029e-10
8.83988e-07
4.1882e-10
-4.36266e-12
8.84151e-07
2.8013e-10
-1.79231e-10
1.39631e-10
-3.11733e-10
1.12594e-06
4.14048e-09
2.81827e-08
1.10268e-06
3.67807e-09
2.5321e-08
1.08174e-06
3.26138e-09
2.28547e-08
1.06283e-06
2.8802e-09
2.06989e-08
1.04571e-06
2.53195e-09
1.87994e-08
1.03019e-06
2.21771e-09
1.71136e-08
1.01609e-06
1.93455e-09
1.5611e-08
1.00325e-06
1.67337e-09
1.42741e-08
9.91542e-07
1.42376e-09
1.30843e-08
9.80849e-07
1.18227e-09
1.20088e-08
9.71096e-07
9.56122e-10
1.10129e-08
9.62211e-07
7.58354e-10
1.00824e-08
9.54117e-07
5.98185e-10
9.22484e-09
9.46732e-07
4.76925e-10
8.45199e-09
9.39976e-07
3.90857e-10
7.76503e-09
9.33785e-07
3.35625e-10
7.14761e-09
9.28115e-07
3.08162e-10
6.57338e-09
9.22932e-07
3.05149e-10
6.02836e-09
9.18203e-07
3.19751e-10
5.51384e-09
9.13901e-07
3.42833e-10
5.0239e-09
9.10012e-07
3.69314e-10
4.54737e-09
9.06514e-07
3.99428e-10
4.09051e-09
9.03375e-07
4.30837e-10
3.66675e-09
9.00568e-07
4.54474e-10
3.27353e-09
8.98077e-07
4.61542e-10
2.90428e-09
8.9588e-07
4.52099e-10
2.56582e-09
8.93946e-07
4.3596e-10
2.26728e-09
8.92244e-07
4.27428e-10
2.00334e-09
8.90755e-07
4.3888e-10
1.756e-09
8.89469e-07
4.74212e-10
1.51371e-09
8.88373e-07
5.24491e-10
1.27932e-09
8.87464e-07
5.70248e-10
1.04995e-09
8.86755e-07
5.90086e-10
8.10042e-10
8.86265e-07
5.69621e-10
5.55278e-10
8.86003e-07
5.03408e-10
3.00475e-10
8.85962e-07
3.94651e-10
6.52676e-11
8.8612e-07
2.53787e-10
-1.31811e-10
9.89123e-11
-2.84109e-10
1.12621e-06
2.78862e-08
1.10298e-06
1.85402e-09
2.50547e-08
1.08205e-06
1.57358e-09
2.26156e-08
1.06316e-06
1.29532e-09
2.04801e-08
1.04606e-06
1.02997e-09
1.85984e-08
1.03056e-06
7.87459e-10
1.69341e-08
1.01646e-06
5.68524e-10
1.54579e-08
1.00363e-06
3.64715e-10
1.4145e-08
9.91917e-07
1.68506e-10
1.29653e-08
9.81235e-07
-1.76173e-11
1.18816e-08
9.71506e-07
-1.83228e-10
1.0869e-08
9.62652e-07
-3.15549e-10
9.92756e-09
9.5459e-07
-4.10247e-10
9.07041e-09
9.47233e-07
-4.70427e-10
8.304e-09
9.40503e-07
-5.02346e-10
7.6234e-09
9.34337e-07
-5.10363e-10
7.01254e-09
9.28689e-07
-4.95169e-10
6.45078e-09
9.23523e-07
-4.57313e-10
5.92875e-09
9.18801e-07
-4.0138e-10
5.44266e-09
9.14503e-07
-3.34105e-10
4.97516e-09
9.10618e-07
-2.59466e-10
4.51372e-09
9.07122e-07
-1.79359e-10
4.07515e-09
9.03975e-07
-9.89692e-11
3.67681e-09
9.01152e-07
-2.68088e-11
3.30457e-09
8.98644e-07
3.04658e-11
2.93847e-09
8.9644e-07
7.26015e-11
2.58329e-09
8.94513e-07
1.06626e-10
2.25683e-09
8.92829e-07
1.44685e-10
1.96652e-09
8.91362e-07
1.9891e-10
1.70684e-09
8.9009e-07
2.72651e-10
1.47393e-09
8.88991e-07
3.55679e-10
1.26721e-09
8.88062e-07
4.28978e-10
1.07045e-09
8.87321e-07
4.74498e-10
8.56547e-10
8.86794e-07
4.79327e-10
6.17227e-10
8.86497e-07
4.36257e-10
3.6503e-10
8.86428e-07
3.45222e-10
1.17679e-10
8.86573e-07
2.13998e-10
-1.04998e-10
6.01851e-11
-2.9179e-10
1.10291e-06
2.48482e-10
2.4842e-08
1.08198e-06
9.45616e-11
2.24083e-08
1.06309e-06
-8.468e-11
2.02673e-08
1.04601e-06
-2.71137e-10
1.8381e-08
1.03053e-06
-4.49511e-10
1.67242e-08
1.01644e-06
-6.14057e-10
1.5265e-08
1.00361e-06
-7.6716e-10
1.39643e-08
9.9191e-07
-9.10117e-10
1.27808e-08
9.81248e-07
-1.03693e-09
1.16816e-08
9.71547e-07
-1.1381e-09
1.0656e-08
9.62724e-07
-1.20683e-09
9.71433e-09
9.54688e-07
-1.24168e-09
8.86691e-09
9.47353e-07
-1.24629e-09
8.11114e-09
9.40642e-07
-1.22791e-09
7.43638e-09
9.34496e-07
-1.19331e-09
6.8289e-09
9.28869e-07
-1.14526e-09
6.27717e-09
9.23718e-07
-1.08317e-09
5.77715e-09
9.19004e-07
-1.00574e-09
5.31788e-09
9.14711e-07
-9.12657e-10
4.8716e-09
9.10831e-07
-8.06383e-10
4.42722e-09
9.07335e-07
-6.93467e-10
4.01032e-09
9.0418e-07
-5.81762e-10
3.63787e-09
9.01342e-07
-4.75481e-10
3.28589e-09
8.98821e-07
-3.74547e-10
2.92596e-09
8.96611e-07
-2.78164e-10
2.56147e-09
8.94688e-07
-1.85486e-10
2.21522e-09
8.93019e-07
-9.26671e-11
1.90607e-09
8.91569e-07
5.74298e-12
1.64283e-09
8.90304e-07
1.09416e-10
1.42823e-09
8.89197e-07
2.10643e-10
1.25256e-09
8.88244e-07
2.95993e-10
1.0858e-09
8.8747e-07
3.53219e-10
8.95647e-10
8.86903e-07
3.72408e-10
6.73313e-10
8.86565e-07
3.47196e-10
4.27123e-10
8.86464e-07
2.77087e-10
1.69566e-10
8.86589e-07
1.67901e-10
-7.96089e-11
3.1546e-11
-3.03881e-10
1.10278e-06
-1.41697e-09
2.49344e-08
1.08183e-06
-1.42501e-09
2.24689e-08
1.06294e-06
-1.47865e-09
2.02856e-08
1.04587e-06
-1.55958e-09
1.83604e-08
1.03039e-06
-1.65122e-09
1.66772e-08
1.01632e-06
-1.74222e-09
1.52012e-08
1.00349e-06
-1.82639e-09
1.38822e-08
9.91808e-07
-1.89787e-09
1.26742e-08
9.81169e-07
-1.95062e-09
1.15525e-08
9.71496e-07
-1.97958e-09
1.05146e-08
9.627e-07
-1.98232e-09
9.57085e-09
9.54689e-07
-1.95837e-09
8.72814e-09
9.47372e-07
-1.91036e-09
7.98101e-09
9.40675e-07
-1.84545e-09
7.31488e-09
9.3454e-07
-1.77233e-09
6.71321e-09
9.28925e-07
-1.69617e-09
6.16586e-09
9.23787e-07
-1.61564e-09
5.6713e-09
9.19085e-07
-1.52355e-09
5.21909e-09
9.14803e-07
-1.41293e-09
4.78298e-09
9.10927e-07
-1.28504e-09
4.35406e-09
9.07429e-07
-1.1497e-09
3.95443e-09
9.04269e-07
-1.01525e-09
3.5939e-09
9.01427e-07
-8.80925e-10
3.2473e-09
8.98902e-07
-7.41232e-10
2.89139e-09
8.96688e-07
-5.95076e-10
2.53061e-09
8.94766e-07
-4.47599e-10
2.18468e-09
8.93102e-07
-3.04609e-10
1.87523e-09
8.91658e-07
-1.69681e-10
1.62001e-09
8.90389e-07
-4.62516e-11
1.42429e-09
8.89267e-07
6.08677e-11
1.27198e-09
8.8829e-07
1.46774e-10
1.12617e-09
8.87484e-07
2.0608e-10
9.53336e-10
8.8688e-07
2.32814e-10
7.43193e-10
8.86505e-07
2.23339e-10
4.99606e-10
8.86371e-07
1.78334e-10
2.32573e-10
8.86475e-07
1.01143e-10
-3.74241e-11
-2.92649e-12
-2.91255e-10
1.1026e-06
-3.38632e-09
2.52836e-08
1.08162e-06
-3.20552e-09
2.27627e-08
1.06271e-06
-3.08568e-09
2.05169e-08
1.04563e-06
-3.01163e-09
1.85282e-08
1.03016e-06
-2.96856e-09
1.67875e-08
1.0161e-06
-2.9418e-09
1.52625e-08
1.00329e-06
-2.91861e-09
1.39012e-08
9.91621e-07
-2.88894e-09
1.26586e-08
9.81004e-07
-2.84608e-09
1.15123e-08
9.71354e-07
-2.78752e-09
1.0458e-08
9.62581e-07
-2.71321e-09
9.50301e-09
9.54591e-07
-2.62475e-09
8.65678e-09
9.47289e-07
-2.52502e-09
7.91711e-09
9.40597e-07
-2.41878e-09
7.26449e-09
9.34464e-07
-2.31137e-09
6.67202e-09
9.28852e-07
-2.20602e-09
6.12206e-09
9.23723e-07
-2.1008e-09
5.61429e-09
9.19038e-07
-1.98764e-09
5.1494e-09
9.14769e-07
-1.85795e-09
4.71365e-09
9.10898e-07
-1.7115e-09
4.29717e-09
9.07398e-07
-1.55644e-09
3.90724e-09
9.04237e-07
-1.39871e-09
3.54393e-09
9.01402e-07
-1.2357e-09
3.19064e-09
8.98884e-07
-1.06194e-09
2.83879e-09
8.96671e-07
-8.77854e-10
2.49518e-09
8.94744e-07
-6.91715e-10
2.17086e-09
8.93074e-07
-5.1513e-10
1.88127e-09
8.91618e-07
-3.58674e-10
1.64419e-09
8.90335e-07
-2.28638e-10
1.46541e-09
8.89194e-07
-1.25984e-10
1.32787e-09
8.88194e-07
-4.82383e-11
1.19566e-09
8.87359e-07
6.50936e-12
1.0348e-09
8.86723e-07
3.86761e-11
8.29676e-10
8.86317e-07
4.77113e-11
5.81883e-10
8.86156e-07
3.44751e-11
3.04678e-10
8.86238e-07
-1.02336e-12
1.97393e-11
8.86552e-07
-5.8068e-11
-2.58187e-10
-1.30268e-10
-5.20057e-10
1.10209e-06
-5.61688e-09
2.55959e-08
1.08107e-06
-5.20628e-09
2.30221e-08
1.06214e-06
-4.86953e-09
2.07205e-08
1.04505e-06
-4.59387e-09
1.86716e-08
1.02958e-06
-4.36983e-09
1.68725e-08
1.01552e-06
-4.18425e-09
1.52982e-08
1.00272e-06
-4.02057e-09
1.38979e-08
9.91074e-07
-3.86402e-09
1.26259e-08
9.80475e-07
-3.70551e-09
1.14585e-08
9.70842e-07
-3.54268e-09
1.03882e-08
9.62086e-07
-3.37915e-09
9.42172e-09
9.54109e-07
-3.22076e-09
8.57257e-09
9.46815e-07
-3.07091e-09
7.84017e-09
9.40125e-07
-2.9287e-09
7.19996e-09
9.33988e-07
-2.79031e-09
6.61549e-09
9.28374e-07
-2.65213e-09
6.06034e-09
9.23251e-07
-2.51227e-09
5.53436e-09
9.1858e-07
-2.36782e-09
5.05135e-09
9.14325e-07
-2.21384e-09
4.61139e-09
9.10459e-07
-2.04835e-09
4.20259e-09
9.06959e-07
-1.87424e-09
3.81809e-09
9.03802e-07
-1.69365e-09
3.45142e-09
9.00976e-07
-1.50507e-09
3.09528e-09
8.98468e-07
-1.30722e-09
2.75351e-09
8.96258e-07
-1.10337e-09
2.43513e-09
8.94325e-07
-9.02335e-10
2.1444e-09
8.92638e-07
-7.16841e-10
1.88839e-09
8.91161e-07
-5.5946e-10
1.67796e-09
8.89854e-07
-4.37422e-10
1.5157e-09
8.88689e-07
-3.49396e-10
1.38776e-09
8.87665e-07
-2.86867e-10
1.2636e-09
8.86802e-07
-2.3961e-10
1.10816e-09
8.8614e-07
-2.00621e-10
9.01301e-10
8.85711e-07
-1.67722e-10
6.45091e-10
8.85529e-07
-1.42597e-10
3.59283e-10
8.85591e-07
-1.28825e-10
6.53064e-11
8.85892e-07
-1.28176e-10
-2.3069e-10
-1.37461e-10
-5.25034e-10
1.10016e-06
-7.38691e-09
2.51814e-08
1.07911e-06
-6.77322e-09
2.26207e-08
1.06015e-06
-6.23932e-09
2.03279e-08
1.04305e-06
-5.7755e-09
1.82819e-08
1.02758e-06
-5.38008e-09
1.64831e-08
1.01352e-06
-5.04424e-09
1.49103e-08
1.00074e-06
-4.74887e-09
1.35137e-08
9.89103e-07
-4.47478e-09
1.22477e-08
9.78518e-07
-4.21095e-09
1.10898e-08
9.68898e-07
-3.956e-09
1.00335e-08
9.60151e-07
-3.71661e-09
9.08461e-09
9.52179e-07
-3.50154e-09
8.25293e-09
9.44887e-07
-3.31344e-09
7.53476e-09
9.38197e-07
-3.1458e-09
6.90627e-09
9.3206e-07
-2.98611e-09
6.33288e-09
9.26445e-07
-2.8232e-09
5.78588e-09
9.21326e-07
-2.65443e-09
5.26208e-09
9.16662e-07
-2.48314e-09
4.77878e-09
9.12415e-07
-2.31051e-09
4.34373e-09
9.08554e-07
-2.13507e-09
3.94758e-09
9.05056e-07
-1.95576e-09
3.57957e-09
9.01903e-07
-1.7709e-09
3.23014e-09
8.99084e-07
-1.57878e-09
2.89344e-09
8.96581e-07
-1.38134e-09
2.57624e-09
8.94373e-07
-1.18488e-09
2.28963e-09
8.92432e-07
-9.98729e-10
2.03799e-09
8.90726e-07
-8.34105e-10
1.82341e-09
8.8922e-07
-7.00926e-10
1.64674e-09
8.87883e-07
-6.03708e-10
1.50329e-09
8.86691e-07
-5.39062e-10
1.38163e-09
8.85641e-07
-4.95244e-10
1.25883e-09
8.84754e-07
-4.56252e-10
1.10326e-09
8.8407e-07
-4.10023e-10
8.93978e-10
8.8362e-07
-3.54325e-10
6.35989e-10
8.8342e-07
-2.94812e-10
3.52806e-10
8.83466e-07
-2.37265e-10
6.24347e-11
8.83756e-07
-1.82166e-10
-2.36382e-10
-1.29447e-10
-5.42274e-10
1.09169e-06
-6.55305e-09
2.25496e-08
1.07067e-06
-5.97558e-09
2.02175e-08
1.05176e-06
-5.46108e-09
1.81347e-08
1.0347e-06
-5.00419e-09
1.62813e-08
1.01928e-06
-4.6082e-09
1.46531e-08
1.00528e-06
-4.2689e-09
1.32277e-08
9.92538e-07
-3.97015e-09
1.196e-08
9.80947e-07
-3.69495e-09
1.08112e-08
9.70406e-07
-3.4346e-09
9.76442e-09
9.60823e-07
-3.18919e-09
8.81614e-09
9.52104e-07
-2.96493e-09
7.96738e-09
9.44153e-07
-2.76864e-09
7.21823e-09
9.3688e-07
-2.6012e-09
6.5608e-09
9.30211e-07
-2.45566e-09
5.9793e-09
9.24091e-07
-2.31942e-09
5.45246e-09
9.1849e-07
-2.1804e-09
4.95876e-09
9.13379e-07
-2.03533e-09
4.49138e-09
9.08725e-07
-1.88932e-09
4.06046e-09
9.04488e-07
-1.74687e-09
3.6731e-09
9.00637e-07
-1.60838e-09
3.3248e-09
8.97146e-07
-1.47233e-09
3.0076e-09
8.93999e-07
-1.33544e-09
2.71151e-09
8.91186e-07
-1.1947e-09
2.42861e-09
8.88693e-07
-1.05178e-09
2.16323e-09
8.86495e-07
-9.13058e-10
1.92678e-09
8.84557e-07
-7.86563e-10
1.72598e-09
8.82842e-07
-6.79867e-10
1.56042e-09
8.81316e-07
-5.97528e-10
1.4225e-09
8.79951e-07
-5.39896e-10
1.30107e-09
8.78729e-07
-5.03097e-10
1.18621e-09
8.77648e-07
-4.77635e-10
1.06352e-09
8.76731e-07
-4.49731e-10
9.10797e-10
8.76016e-07
-4.08736e-10
7.12885e-10
8.7554e-07
-3.53887e-10
4.76008e-10
8.75317e-07
-2.91872e-10
2.20492e-10
8.75347e-07
-2.27209e-10
-4.00764e-11
8.7563e-07
-1.59621e-10
-3.06402e-10
-8.91478e-11
-5.77224e-10
1.03728e-06
1.61475e-08
1.01689e-06
1.44114e-08
9.98558e-07
1.28739e-08
9.82035e-07
1.1518e-08
9.67095e-07
1.03317e-08
9.53534e-07
9.29224e-09
9.41197e-07
8.36711e-09
9.29971e-07
7.53088e-09
9.19764e-07
6.77282e-09
9.10484e-07
6.09021e-09
9.02039e-07
5.48006e-09
8.94335e-07
4.9355e-09
8.87287e-07
4.44748e-09
8.80822e-07
4.00878e-09
8.74889e-07
3.61357e-09
8.69454e-07
3.25472e-09
8.64491e-07
2.92768e-09
8.59969e-07
2.63304e-09
8.55851e-07
2.37062e-09
8.52107e-07
2.13582e-09
8.48712e-07
1.92225e-09
8.45654e-07
1.72308e-09
8.42925e-07
1.53454e-09
8.40512e-07
1.36047e-09
8.38391e-07
1.20856e-09
8.36522e-07
1.08249e-09
8.34863e-07
9.78783e-10
8.33377e-07
8.88133e-10
8.32037e-07
8.00149e-10
8.30827e-07
7.07627e-10
8.29746e-07
6.03413e-10
8.28819e-07
4.76844e-10
8.2809e-07
3.20449e-10
8.27598e-07
1.38304e-10
8.27363e-07
-5.68304e-11
8.27389e-07
-2.53509e-10
8.27675e-07
-4.45472e-10
-6.2899e-10
1.15126e-06
4.2501e-09
4.04548e-08
1.12731e-06
3.82536e-09
3.61714e-08
1.10577e-06
3.46891e-09
3.24416e-08
1.08634e-06
3.15969e-09
2.91754e-08
1.06876e-06
2.88827e-09
2.63059e-08
1.05283e-06
2.65015e-09
2.37797e-08
1.03835e-06
2.44056e-09
2.15485e-08
1.02516e-06
2.25451e-09
1.95676e-08
1.01313e-06
2.08776e-09
1.7799e-08
1.00214e-06
1.93653e-09
1.62127e-08
9.92091e-07
1.79685e-09
1.4784e-08
9.82902e-07
1.66605e-09
1.34874e-08
9.74503e-07
1.54474e-09
1.22988e-08
9.66826e-07
1.43613e-09
1.12016e-08
9.59806e-07
1.34242e-09
1.01897e-08
9.53385e-07
1.26184e-09
9.25833e-09
9.47512e-07
1.18953e-09
8.39852e-09
9.42147e-07
1.12156e-09
7.60127e-09
9.37255e-07
1.05614e-09
6.86277e-09
9.32807e-07
9.90588e-10
6.17832e-09
9.28781e-07
9.21363e-10
5.53632e-09
9.25159e-07
8.48512e-10
4.92633e-09
9.21921e-07
7.76241e-10
4.34957e-09
9.1904e-07
7.09469e-10
3.81523e-09
9.16483e-07
6.52738e-10
3.32843e-09
9.14216e-07
6.09902e-10
2.88484e-09
9.12207e-07
5.81678e-10
2.47449e-09
9.10432e-07
5.64166e-10
2.08866e-09
9.08877e-07
5.50229e-10
1.72249e-09
9.07535e-07
5.32254e-10
1.37245e-09
9.06404e-07
5.04435e-10
1.03499e-09
9.05489e-07
4.62712e-10
7.08842e-10
9.04798e-07
4.04889e-10
3.96248e-10
9.04332e-07
3.34639e-10
1.02472e-10
9.04087e-07
2.58216e-10
-1.64806e-10
9.04049e-07
1.82936e-10
-4.02491e-10
9.04197e-07
1.16149e-10
-6.1152e-10
6.06773e-11
-8.00245e-10
1.20049e-06
5.37521e-09
5.14236e-08
1.17573e-06
4.82267e-09
4.61332e-08
1.15345e-06
4.35978e-09
4.15174e-08
1.13337e-06
3.96154e-09
3.74569e-08
1.1152e-06
3.61402e-09
3.38761e-08
1.09874e-06
3.30909e-09
3.07146e-08
1.08379e-06
3.03996e-09
2.79134e-08
1.07018e-06
2.80007e-09
2.54202e-08
1.05779e-06
2.58319e-09
2.31938e-08
1.04648e-06
2.38391e-09
2.11993e-08
1.03616e-06
2.19838e-09
1.9399e-08
1.02673e-06
2.02551e-09
1.77558e-08
1.01813e-06
1.86772e-09
1.62458e-08
1.01027e-06
1.72934e-09
1.48597e-08
1.00309e-06
1.61301e-09
1.359e-08
9.96526e-07
1.5164e-09
1.24215e-08
9.90528e-07
1.43309e-09
1.13352e-08
9.85053e-07
1.35721e-09
1.03202e-08
9.80065e-07
1.28543e-09
9.37342e-09
9.75532e-07
1.21431e-09
8.48475e-09
9.71428e-07
1.13994e-09
7.63784e-09
9.67728e-07
1.06157e-09
6.83064e-09
9.64407e-07
9.8257e-10
6.07644e-09
9.61438e-07
9.07809e-10
5.38447e-09
9.58793e-07
8.42375e-10
4.75591e-09
9.56446e-07
7.90571e-10
4.19152e-09
9.54372e-07
7.53537e-10
3.68778e-09
9.52548e-07
7.28433e-10
3.23019e-09
9.5096e-07
7.09584e-10
2.79567e-09
9.49597e-07
6.89787e-10
2.36265e-09
9.48455e-07
6.615e-10
1.92323e-09
9.4753e-07
6.17534e-10
1.48152e-09
9.46825e-07
5.52811e-10
1.04343e-09
9.46339e-07
4.67885e-10
6.20059e-10
9.46068e-07
3.69473e-10
2.27454e-10
9.46002e-07
2.66889e-10
-1.23972e-10
9.46129e-07
1.70431e-10
-4.30688e-10
8.57264e-11
-6.96094e-10
1.20603e-06
4.70679e-09
5.60893e-08
1.18121e-06
4.20481e-09
5.03682e-08
1.15888e-06
3.78081e-09
4.53949e-08
1.13873e-06
3.41484e-09
4.10316e-08
1.12052e-06
3.09484e-09
3.71844e-08
1.10401e-06
2.81328e-09
3.37771e-08
1.08903e-06
2.56368e-09
3.07462e-08
1.0754e-06
2.33926e-09
2.80457e-08
1.063e-06
2.13364e-09
2.56377e-08
1.05169e-06
1.94247e-09
2.34773e-08
1.04138e-06
1.76441e-09
2.15119e-08
1.03197e-06
1.60097e-09
1.97026e-08
1.0234e-06
1.45564e-09
1.80378e-08
1.01557e-06
1.33233e-09
1.65202e-08
1.00842e-06
1.23299e-09
1.51465e-08
1.00189e-06
1.15541e-09
1.38939e-08
9.95923e-07
1.09388e-09
1.27293e-08
9.90477e-07
1.04246e-09
1.16325e-08
9.85518e-07
9.96938e-10
1.0601e-08
9.81012e-07
9.53665e-10
9.62703e-09
9.76931e-07
9.09219e-10
8.69561e-09
9.73249e-07
8.62314e-10
7.808e-09
9.69936e-07
8.14082e-10
6.97855e-09
9.66968e-07
7.66532e-10
6.21298e-09
9.64322e-07
7.22327e-10
5.51259e-09
9.61974e-07
6.84675e-10
4.88399e-09
9.59902e-07
6.55993e-10
4.32752e-09
9.58085e-07
6.37013e-10
3.82569e-09
9.56508e-07
6.2622e-10
3.34825e-09
9.55159e-07
6.18957e-10
2.87133e-09
9.54029e-07
6.07767e-10
2.39129e-09
9.53112e-07
5.83745e-10
1.91055e-09
9.52408e-07
5.39076e-10
1.4249e-09
9.51917e-07
4.70899e-10
9.39781e-10
9.51639e-07
3.82636e-10
4.75865e-10
9.51566e-07
2.82019e-10
5.33613e-11
9.51689e-07
1.79066e-10
-3.10703e-10
8.28051e-11
-6.16469e-10
1.20656e-06
3.29544e-09
5.72181e-08
1.18177e-06
2.92216e-09
5.13945e-08
1.15946e-06
2.59756e-09
4.63505e-08
1.13932e-06
2.31109e-09
4.19353e-08
1.12112e-06
2.05677e-09
3.8043e-08
1.10462e-06
1.83093e-09
3.45907e-08
1.08965e-06
1.62899e-09
3.1517e-08
1.07604e-06
1.44528e-09
2.87794e-08
1.06365e-06
1.27504e-09
2.6334e-08
1.05236e-06
1.11644e-09
2.41227e-08
1.04208e-06
9.70772e-10
2.20902e-08
1.03271e-06
8.41215e-10
2.0211e-08
1.02417e-06
7.31057e-10
1.84887e-08
1.01638e-06
6.42562e-10
1.69323e-08
1.00926e-06
5.76216e-10
1.55372e-08
1.00276e-06
5.30204e-10
1.42753e-08
9.96823e-07
5.00725e-10
1.31065e-08
9.91403e-07
4.8334e-10
1.20073e-08
9.86465e-07
4.73866e-10
1.09742e-08
9.81979e-07
4.68657e-10
9.99531e-09
9.77916e-07
4.64802e-10
9.05481e-09
9.74247e-07
4.60593e-10
8.16074e-09
9.70944e-07
4.55335e-10
7.32893e-09
9.67981e-07
4.48251e-10
6.55477e-09
9.65339e-07
4.39303e-10
5.82985e-09
9.62996e-07
4.30199e-10
5.16248e-09
9.60933e-07
4.24059e-10
4.56268e-09
9.59127e-07
4.24397e-10
4.02186e-09
9.57561e-07
4.32819e-10
3.51573e-09
9.56219e-07
4.46523e-10
3.0274e-09
9.55092e-07
4.58783e-10
2.55598e-09
9.54172e-07
4.60661e-10
2.09308e-09
9.5346e-07
4.4333e-10
1.6175e-09
9.52959e-07
4.01617e-10
1.12505e-09
9.52671e-07
3.3581e-10
6.35594e-10
9.52592e-07
2.50933e-10
1.75406e-10
9.52714e-07
1.55091e-10
-2.3011e-10
5.93123e-11
-5.75075e-10
1.20643e-06
5.70379e-08
1.18167e-06
1.50544e-09
5.12358e-08
1.15937e-06
1.29546e-09
4.62101e-08
1.13926e-06
1.09978e-09
4.18064e-08
1.12107e-06
9.19043e-10
3.79252e-08
1.10459e-06
7.53836e-10
3.44913e-08
1.08963e-06
6.02961e-10
3.14432e-08
1.07603e-06
4.64081e-10
2.87268e-08
1.06365e-06
3.35682e-10
2.62834e-08
1.05238e-06
2.18342e-10
2.40509e-08
1.04212e-06
1.14686e-10
2.19874e-08
1.03277e-06
2.74081e-11
2.00859e-08
1.02426e-06
-4.10173e-11
1.83564e-08
1.01649e-06
-8.9967e-11
1.6802e-08
1.0094e-06
-1.20458e-10
1.54114e-08
1.00292e-06
-1.34066e-10
1.4157e-08
9.97001e-07
-1.33285e-10
1.30051e-08
9.91597e-07
-1.20619e-10
1.19367e-08
9.86672e-07
-9.82877e-11
1.09401e-08
9.82195e-07
-6.89422e-11
9.98932e-09
9.78141e-07
-3.53303e-11
9.06819e-09
9.74478e-07
-8.46353e-14
8.19819e-09
9.71177e-07
3.53143e-11
7.39819e-09
9.68213e-07
6.87062e-11
6.64784e-09
9.6557e-07
9.89906e-11
5.92186e-09
9.6323e-07
1.26312e-10
5.227e-09
9.61173e-07
1.52695e-10
4.58562e-09
9.59376e-07
1.81335e-10
4.00692e-09
9.57817e-07
2.1438e-10
3.48358e-09
9.5648e-07
2.50109e-10
3.00802e-09
9.55349e-07
2.83523e-10
2.57335e-09
9.54419e-07
3.07192e-10
2.15357e-09
9.53693e-07
3.13132e-10
1.7127e-09
9.53176e-07
2.96062e-10
1.23963e-09
9.52873e-07
2.5471e-10
7.49546e-10
9.52783e-07
1.91617e-10
2.66387e-10
9.52902e-07
1.1244e-10
-1.81422e-10
2.66587e-11
-5.78572e-10
1.18152e-06
1.1559e-10
5.0988e-08
1.15924e-06
2.48965e-11
4.59639e-08
1.13913e-06
-7.45671e-11
4.15471e-08
1.12095e-06
-1.77407e-10
3.76553e-08
1.10449e-06
-2.79404e-10
3.42272e-08
1.08953e-06
-3.77287e-10
3.1196e-08
1.07594e-06
-4.68343e-10
2.8489e-08
1.06357e-06
-5.50398e-10
2.60349e-08
1.05232e-06
-6.21476e-10
2.37782e-08
1.04207e-06
-6.79395e-10
2.16952e-08
1.03275e-06
-7.22046e-10
1.97902e-08
1.02425e-06
-7.48343e-10
1.80702e-08
1.0165e-06
-7.58935e-10
1.65285e-08
1.00943e-06
-7.55832e-10
1.51471e-08
1.00296e-06
-7.41002e-10
1.39009e-08
9.97054e-07
-7.15538e-10
1.27662e-08
9.91661e-07
-6.7959e-10
1.17294e-08
9.86744e-07
-6.32972e-10
1.077e-08
9.82273e-07
-5.76605e-10
9.84962e-09
9.78224e-07
-5.13267e-10
8.95481e-09
9.74563e-07
-4.46153e-10
8.11674e-09
9.71261e-07
-3.77215e-10
7.35253e-09
9.68295e-07
-3.07778e-10
6.62856e-09
9.6565e-07
-2.3925e-10
5.90966e-09
9.63309e-07
-1.73023e-10
5.20124e-09
9.61254e-07
-1.09909e-10
4.53284e-09
9.59462e-07
-4.97683e-11
3.92978e-09
9.57907e-07
7.71485e-12
3.40395e-09
9.56569e-07
6.14645e-11
2.95527e-09
9.55431e-07
1.09015e-10
2.56501e-09
9.54488e-07
1.45666e-10
2.18975e-09
9.53745e-07
1.6649e-10
1.78523e-09
9.53209e-07
1.68239e-10
1.33711e-09
9.52888e-07
1.49666e-10
8.53698e-10
9.52785e-07
1.11332e-10
3.52964e-10
9.52897e-07
5.60671e-11
-1.35589e-10
-1.06481e-11
-5.87117e-10
1.18144e-06
-1.30494e-09
5.11232e-08
1.15915e-06
-1.26424e-09
4.60511e-08
1.13904e-06
-1.25229e-09
4.15713e-08
1.12087e-06
-1.26175e-09
3.76206e-08
1.1044e-06
-1.28652e-09
3.41497e-08
1.08946e-06
-1.3191e-09
3.10882e-08
1.07587e-06
-1.35146e-09
2.835e-08
1.06351e-06
-1.37773e-09
2.58593e-08
1.05227e-06
-1.3947e-09
2.35701e-08
1.04204e-06
-1.4007e-09
2.14674e-08
1.03273e-06
-1.39518e-09
1.95562e-08
1.02424e-06
-1.37878e-09
1.78409e-08
1.01651e-06
-1.35313e-09
1.63118e-08
1.00944e-06
-1.32015e-09
1.49445e-08
1.00299e-06
-1.28067e-09
1.37088e-08
9.97088e-07
-1.23388e-09
1.25819e-08
9.91703e-07
-1.17793e-09
1.15542e-08
9.86794e-07
-1.11108e-09
1.06067e-08
9.82329e-07
-1.03317e-09
9.70393e-09
9.78283e-07
-9.46346e-10
8.83375e-09
9.74623e-07
-8.53374e-10
8.02138e-09
9.7132e-07
-7.55659e-10
7.27484e-09
9.68353e-07
-6.53988e-10
6.5605e-09
9.65706e-07
-5.50101e-10
5.84954e-09
9.63363e-07
-4.47181e-10
5.14785e-09
9.61306e-07
-3.49477e-10
4.48133e-09
9.59512e-07
-2.60884e-10
3.88011e-09
9.57955e-07
-1.83681e-10
3.36805e-09
9.56611e-07
-1.18648e-10
2.94853e-09
9.55464e-07
-6.59499e-11
2.59469e-09
9.54507e-07
-2.58447e-11
2.25382e-09
9.53748e-07
1.44492e-12
1.87823e-09
9.53193e-07
1.66137e-11
1.44936e-09
9.52854e-07
1.92772e-11
9.69484e-10
9.52735e-07
8.21971e-12
4.53848e-10
9.52838e-07
-1.67939e-11
-6.7045e-11
-5.38548e-11
-5.64675e-10
1.18143e-06
-2.80024e-09
5.15763e-08
1.15912e-06
-2.61079e-09
4.64246e-08
1.13899e-06
-2.46603e-09
4.18539e-08
1.12081e-06
-2.35929e-09
3.78099e-08
1.10434e-06
-2.28521e-09
3.42538e-08
1.0894e-06
-2.23381e-09
3.11202e-08
1.07582e-06
-2.19211e-09
2.83209e-08
1.06347e-06
-2.15001e-09
2.57805e-08
1.05224e-06
-2.10245e-09
2.34552e-08
1.04201e-06
-2.04845e-09
2.13277e-08
1.03271e-06
-1.99013e-09
1.94004e-08
1.02424e-06
-1.93058e-09
1.76823e-08
1.01651e-06
-1.8716e-09
1.61663e-08
1.00944e-06
-1.8129e-09
1.48189e-08
1.00299e-06
-1.75174e-09
1.35957e-08
9.97099e-07
-1.68417e-09
1.24654e-08
9.91721e-07
-1.60745e-09
1.14215e-08
9.86819e-07
-1.52045e-09
1.04608e-08
9.8236e-07
-1.42296e-09
9.56251e-09
9.78315e-07
-1.3159e-09
8.71145e-09
9.74656e-07
-1.20056e-09
7.91383e-09
9.71354e-07
-1.07736e-09
7.16718e-09
9.68389e-07
-9.4715e-10
6.44967e-09
9.6574e-07
-8.12882e-10
5.74989e-09
9.63393e-07
-6.79963e-10
5.0754e-09
9.61329e-07
-5.55778e-10
4.44122e-09
9.59526e-07
-4.47559e-10
3.87037e-09
9.5796e-07
-3.59679e-10
3.38691e-09
9.56604e-07
-2.92805e-10
2.99514e-09
9.55443e-07
-2.44492e-10
2.66729e-09
9.54472e-07
-2.099e-10
2.3508e-09
9.53696e-07
-1.82736e-10
1.99539e-09
9.53124e-07
-1.57896e-10
1.57577e-09
9.52768e-07
-1.34524e-10
1.09141e-09
9.52636e-07
-1.158e-10
5.61452e-10
9.52727e-07
-1.04966e-10
1.69248e-11
9.53036e-07
-1.03149e-10
-5.18701e-10
-1.09484e-10
-1.03112e-09
1.18139e-06
-4.1764e-09
5.18116e-08
1.15904e-06
-3.83954e-09
4.65991e-08
1.1389e-06
-3.55782e-09
4.19597e-08
1.1207e-06
-3.32697e-09
3.78393e-08
1.10422e-06
-3.14535e-09
3.42088e-08
1.08927e-06
-3.00263e-09
3.10125e-08
1.0757e-06
-2.88141e-09
2.81646e-08
1.06335e-06
-2.76698e-09
2.55887e-08
1.05212e-06
-2.65224e-09
2.32391e-08
1.0419e-06
-2.53754e-09
2.10951e-08
1.0326e-06
-2.42842e-09
1.91593e-08
1.02413e-06
-2.33025e-09
1.74448e-08
1.0164e-06
-2.24401e-09
1.59442e-08
1.00934e-06
-2.16578e-09
1.46166e-08
1.00288e-06
-2.08761e-09
1.34059e-08
9.96987e-07
-2.00157e-09
1.22712e-08
9.91611e-07
-1.90484e-09
1.12076e-08
9.86712e-07
-1.79865e-09
1.02287e-08
9.82254e-07
-1.68405e-09
9.3302e-09
9.78209e-07
-1.56134e-09
8.49379e-09
9.74547e-07
-1.43019e-09
7.70887e-09
9.71245e-07
-1.28944e-09
6.96585e-09
9.68279e-07
-1.13968e-09
6.25412e-09
9.65628e-07
-9.85448e-10
5.57676e-09
9.63274e-07
-8.3484e-10
4.94365e-09
9.612e-07
-6.97949e-10
4.36132e-09
9.59383e-07
-5.83889e-10
3.8418e-09
9.57798e-07
-4.97526e-10
3.39996e-09
9.56424e-07
-4.38844e-10
3.03618e-09
9.55244e-07
-4.03216e-10
2.72689e-09
9.54252e-07
-3.80984e-10
2.42584e-09
9.53456e-07
-3.5932e-10
2.0814e-09
9.52865e-07
-3.28245e-10
1.66256e-09
9.52492e-07
-2.86377e-10
1.17035e-09
9.52343e-07
-2.39274e-10
6.31257e-10
9.52421e-07
-1.92538e-10
7.47929e-11
9.52723e-07
-1.49313e-10
-4.86257e-10
-1.12981e-10
-1.04224e-09
1.18068e-06
-4.8671e-09
5.07556e-08
1.1583e-06
-4.44169e-09
4.56029e-08
1.13813e-06
-4.07212e-09
4.10113e-08
1.11992e-06
-3.7577e-09
3.69261e-08
1.10343e-06
-3.50186e-09
3.3323e-08
1.08848e-06
-3.29567e-09
3.01518e-08
1.07491e-06
-3.11899e-09
2.73292e-08
1.06256e-06
-2.95412e-09
2.47799e-08
1.05133e-06
-2.79333e-09
2.24609e-08
1.04111e-06
-2.63886e-09
2.0353e-08
1.03181e-06
-2.49873e-09
1.84567e-08
1.02333e-06
-2.37936e-09
1.67795e-08
1.0156e-06
-2.28073e-09
1.53094e-08
1.00852e-06
-2.19607e-09
1.40073e-08
1.00206e-06
-2.11313e-09
1.28204e-08
9.96162e-07
-2.02031e-09
1.17055e-08
9.90779e-07
-1.91459e-09
1.06545e-08
9.85874e-07
-1.79986e-09
9.68553e-09
9.81409e-07
-1.67977e-09
8.8042e-09
9.77355e-07
-1.55573e-09
7.99603e-09
9.73685e-07
-1.42662e-09
7.24586e-09
9.70375e-07
-1.28889e-09
6.53948e-09
9.67403e-07
-1.14126e-09
5.86719e-09
9.64747e-07
-9.88921e-10
5.23571e-09
9.62386e-07
-8.42294e-10
4.65797e-09
9.60299e-07
-7.1351e-10
4.14014e-09
9.58465e-07
-6.119e-10
3.68638e-09
9.56857e-07
-5.40886e-10
3.29764e-09
9.55455e-07
-4.99007e-10
2.96529e-09
9.54244e-07
-4.80512e-10
2.66963e-09