/*--------------------------------*- C++ -*----------------------------------*\
| =========                 |                                                 |
| \\      /  F ield         | OpenFOAM: The Open Source CFD Toolbox           |
|  \\    /   O peration     | Version:  2.3.1                                 |
|   \\  /    A nd           | Web:      www.OpenFOAM.org                      |
|    \\/     M anipulation  |                                                 |
\*---------------------------------------------------------------------------*/
FoamFile
{
    version     2.0;
    format      ascii;
    class       surfaceScalarField;
    location    "10";
    object      phi_0;
}
// * * * * * * * * * * * * * * * * * * * * * * * * * * * * * * * * * * * * * //

dimensions      [0 3 -1 0 0 0 0];

internalField   nonuniform List<scalar> 
110041
(
1.06083e-06
7.19511e-09
1.79668e-08
1.03829e-06
6.50162e-09
1.60397e-08
1.01802e-06
5.90522e-09
1.43664e-08
9.99733e-07
5.38003e-09
1.29032e-08
9.832e-07
4.9123e-09
1.16202e-08
9.6821e-07
4.49428e-09
1.04953e-08
9.54585e-07
4.1191e-09
9.50671e-09
9.42171e-07
3.78095e-09
8.63251e-09
9.30842e-07
3.47522e-09
7.85386e-09
9.20488e-07
3.19664e-09
7.15707e-09
9.11018e-07
2.93896e-09
6.53119e-09
9.02356e-07
2.69848e-09
5.9641e-09
8.94435e-07
2.47714e-09
5.44314e-09
8.87196e-07
2.28002e-09
4.9599e-09
8.80574e-07
2.10951e-09
4.51193e-09
8.74514e-07
1.96185e-09
4.09796e-09
8.6897e-07
1.82947e-09
3.71436e-09
8.63906e-07
1.70669e-09
3.35764e-09
8.59288e-07
1.59113e-09
3.02701e-09
8.55088e-07
1.47966e-09
2.72036e-09
8.51289e-07
1.36836e-09
2.43089e-09
8.47878e-07
1.25786e-09
2.15276e-09
8.44838e-07
1.15263e-09
1.8879e-09
8.42139e-07
1.0553e-09
1.64346e-09
8.39748e-07
9.66934e-10
1.42378e-09
8.37631e-07
8.90667e-10
1.22687e-09
8.35754e-07
8.29855e-10
1.04691e-09
8.34092e-07
7.83225e-10
8.78383e-10
8.32631e-07
7.43984e-10
7.17686e-10
8.31365e-07
7.03912e-10
5.61943e-10
8.30298e-07
6.57611e-10
4.08564e-10
8.2944e-07
6.01489e-10
2.5686e-10
8.28799e-07
5.31876e-10
1.09438e-10
8.28379e-07
4.4823e-10
-2.86191e-11
8.28175e-07
3.55212e-10
-1.51404e-10
8.28171e-07
2.61951e-10
-2.57621e-10
8.28342e-07
1.76504e-10
-3.47661e-10
1.02615e-10
-4.26895e-10
1.11581e-06
8.19916e-09
2.4923e-08
1.09257e-06
7.38507e-09
2.23626e-08
1.07165e-06
6.68958e-09
2.0132e-08
1.05278e-06
6.08221e-09
1.8167e-08
1.03572e-06
5.54312e-09
1.64341e-08
1.02024e-06
5.05943e-09
1.49077e-08
1.00618e-06
4.62235e-09
1.35591e-08
9.93375e-07
4.22599e-09
1.23607e-08
9.81693e-07
3.86431e-09
1.12921e-08
9.71024e-07
3.52921e-09
1.03373e-08
9.61271e-07
3.21399e-09
9.47713e-09
9.5236e-07
2.91908e-09
8.69059e-09
9.44221e-07
2.65221e-09
7.96389e-09
9.36785e-07
2.42207e-09
7.29368e-09
9.29985e-07
2.23174e-09
6.67843e-09
9.2376e-07
2.07587e-09
6.11064e-09
9.18066e-07
1.94371e-09
5.57954e-09
9.12866e-07
1.82624e-09
5.08036e-09
9.08125e-07
1.7187e-09
4.61398e-09
9.03813e-07
1.61662e-09
4.175e-09
8.99914e-07
1.51574e-09
3.75193e-09
8.96412e-07
1.41623e-09
3.34356e-09
8.93283e-07
1.32049e-09
2.96109e-09
8.90497e-07
1.22808e-09
2.613e-09
8.88025e-07
1.13841e-09
2.30073e-09
8.85835e-07
1.05551e-09
2.02515e-09
8.83894e-07
9.85498e-10
1.7848e-09
8.82176e-07
9.30772e-10
1.57053e-09
8.80665e-07
8.88406e-10
1.36649e-09
8.79359e-07
8.53124e-10
1.15738e-09
8.7826e-07
8.18961e-10
9.3784e-10
8.77372e-07
7.76662e-10
7.12062e-10
8.76704e-07
7.1435e-10
4.85751e-10
8.7626e-07
6.25348e-10
2.67016e-10
8.76035e-07
5.13071e-10
6.76424e-11
8.76014e-07
3.87911e-10
-1.05499e-10
8.76176e-07
2.6335e-10
-2.49141e-10
1.47945e-10
-3.65777e-10
1.12417e-06
6.40946e-09
2.77482e-08
1.10088e-06
5.74386e-09
2.49268e-08
1.07992e-06
5.17064e-09
2.24817e-08
1.061e-06
4.66646e-09
2.03365e-08
1.04388e-06
4.21615e-09
1.84459e-08
1.02836e-06
3.81062e-09
1.67726e-08
1.01425e-06
3.44341e-09
1.5284e-08
1.00141e-06
3.10787e-09
1.39584e-08
9.89702e-07
2.79541e-09
1.27797e-08
9.79007e-07
2.49818e-09
1.17257e-08
9.69241e-07
2.21533e-09
1.07655e-08
9.60329e-07
1.95513e-09
9.87509e-09
9.52203e-07
1.72888e-09
9.04966e-09
9.44786e-07
1.54358e-09
8.29593e-09
9.38002e-07
1.39957e-09
7.6163e-09
9.31788e-07
1.29149e-09
6.99842e-09
9.26099e-07
1.21105e-09
6.42082e-09
9.20903e-07
1.1508e-09
5.87152e-09
9.16166e-07
1.10434e-09
5.35216e-09
9.11858e-07
1.06468e-09
4.85975e-09
9.07962e-07
1.02713e-09
4.38381e-09
9.04461e-07
9.91811e-10
3.92559e-09
9.01326e-07
9.58299e-10
3.49702e-09
8.9853e-07
9.20933e-10
3.10338e-09
8.96049e-07
8.74356e-10
2.74576e-09
8.93853e-07
8.20789e-10
2.42984e-09
8.91912e-07
7.69105e-10
2.15763e-09
8.90197e-07
7.28827e-10
1.91759e-09
8.88691e-07
7.05984e-10
1.68781e-09
8.87392e-07
7.01372e-10
1.4512e-09
8.86295e-07
7.08291e-10
1.20704e-09
8.85401e-07
7.11132e-10
9.59725e-10
8.84718e-07
6.90839e-10
7.07014e-10
8.84256e-07
6.34774e-10
4.52238e-10
8.84017e-07
5.41434e-10
2.1023e-10
8.83991e-07
4.1877e-10
-4.39724e-12
8.84153e-07
2.80085e-10
-1.79239e-10
1.39593e-10
-3.11713e-10
1.1259e-06
4.13956e-09
2.81776e-08
1.10265e-06
3.67725e-09
2.53165e-08
1.08171e-06
3.26065e-09
2.28508e-08
1.0628e-06
2.87954e-09
2.06953e-08
1.04569e-06
2.53136e-09
1.87963e-08
1.03017e-06
2.21719e-09
1.71108e-08
1.01607e-06
1.93408e-09
1.56085e-08
1.00324e-06
1.67293e-09
1.42719e-08
9.91528e-07
1.42337e-09
1.30822e-08
9.80837e-07
1.18192e-09
1.20069e-08
9.71086e-07
9.55808e-10
1.10112e-08
9.62202e-07
7.5807e-10
1.00809e-08
9.54109e-07
5.97929e-10
9.22344e-09
9.46725e-07
4.76695e-10
8.45071e-09
9.3997e-07
3.9065e-10
7.76388e-09
9.3378e-07
3.35439e-10
7.14657e-09
9.28111e-07
3.07992e-10
6.57243e-09
9.22929e-07
3.04987e-10
6.0275e-09
9.18201e-07
3.19592e-10
5.51306e-09
9.13899e-07
3.42674e-10
5.0232e-09
9.10011e-07
3.69152e-10
4.54673e-09
9.06513e-07
3.99262e-10
4.08993e-09
9.03375e-07
4.3067e-10
3.66623e-09
9.00568e-07
4.5431e-10
3.27306e-09
8.98077e-07
4.61389e-10
2.90387e-09
8.95881e-07
4.51961e-10
2.56547e-09
8.93947e-07
4.35839e-10
2.26699e-09
8.92245e-07
4.27322e-10
2.00309e-09
8.90757e-07
4.38786e-10
1.75579e-09
8.89471e-07
4.74125e-10
1.51353e-09
8.88375e-07
5.24409e-10
1.27916e-09
8.87466e-07
5.70171e-10
1.04982e-09
8.86757e-07
5.90015e-10
8.09928e-10
8.86267e-07
5.69558e-10
5.55185e-10
8.86005e-07
5.03352e-10
3.00407e-10
8.85964e-07
3.94602e-10
6.52257e-11
8.86122e-07
2.53742e-10
-1.31828e-10
9.8872e-11
-2.841e-10
1.12617e-06
2.78811e-08
1.10295e-06
1.85359e-09
2.50502e-08
1.08202e-06
1.5732e-09
2.26115e-08
1.06313e-06
1.29499e-09
2.04765e-08
1.04604e-06
1.02968e-09
1.85952e-08
1.03053e-06
7.87204e-10
1.69312e-08
1.01645e-06
5.68301e-10
1.54553e-08
1.00361e-06
3.64522e-10
1.41427e-08
9.91903e-07
1.68342e-10
1.29632e-08
9.81223e-07
-1.77557e-11
1.18797e-08
9.71495e-07
-1.83346e-10
1.08673e-08
9.62643e-07
-3.1565e-10
9.92597e-09
9.54582e-07
-4.10335e-10
9.06898e-09
9.47226e-07
-4.70504e-10
8.30271e-09
9.40497e-07
-5.02412e-10
7.62223e-09
9.34332e-07
-5.1042e-10
7.01148e-09
9.28685e-07
-4.95222e-10
6.44982e-09
9.23519e-07
-4.57366e-10
5.92789e-09
9.18799e-07
-4.0144e-10
5.44186e-09
9.14501e-07
-3.34174e-10
4.97443e-09
9.10617e-07
-2.59546e-10
4.51306e-09
9.07121e-07
-1.79449e-10
4.07455e-09
9.03974e-07
-9.90646e-11
3.67626e-09
9.01151e-07
-2.69059e-11
3.30407e-09
8.98644e-07
3.0371e-11
2.93804e-09
8.96441e-07
7.25114e-11
2.58292e-09
8.94514e-07
1.06542e-10
2.25653e-09
8.9283e-07
1.44606e-10
1.96627e-09
8.91364e-07
1.98834e-10
1.70663e-09
8.90091e-07
2.72576e-10
1.47375e-09
8.88993e-07
3.55607e-10
1.26706e-09
8.88064e-07
4.2891e-10
1.07031e-09
8.87323e-07
4.74435e-10
8.56428e-10
8.86796e-07
4.79271e-10
6.17133e-10
8.86498e-07
4.36207e-10
3.64961e-10
8.8643e-07
3.45177e-10
1.17635e-10
8.86575e-07
2.13958e-10
-1.05018e-10
6.01474e-11
-2.91786e-10
1.10288e-06
2.48455e-10
2.48375e-08
1.08195e-06
9.45418e-11
2.24043e-08
1.06307e-06
-8.46888e-11
2.02637e-08
1.04599e-06
-2.71134e-10
1.83778e-08
1.03051e-06
-4.49495e-10
1.67214e-08
1.01643e-06
-6.14027e-10
1.52625e-08
1.0036e-06
-7.67115e-10
1.3962e-08
9.91896e-07
-9.10058e-10
1.27787e-08
9.81235e-07
-1.03686e-09
1.16797e-08
9.71536e-07
-1.13802e-09
1.06542e-08
9.62714e-07
-1.20675e-09
9.71275e-09
9.5468e-07
-1.2416e-09
8.86548e-09
9.47346e-07
-1.24621e-09
8.10985e-09
9.40636e-07
-1.22784e-09
7.43521e-09
9.34491e-07
-1.19325e-09
6.82785e-09
9.28865e-07
-1.1452e-09
6.27622e-09
9.23714e-07
-1.08312e-09
5.77629e-09
9.19001e-07
-1.0057e-09
5.31709e-09
9.14709e-07
-9.12635e-10
4.87087e-09
9.10829e-07
-8.06375e-10
4.42655e-09
9.07334e-07
-6.9347e-10
4.00971e-09
9.04179e-07
-5.81774e-10
3.6373e-09
9.01342e-07
-4.755e-10
3.28538e-09
8.98822e-07
-3.74573e-10
2.92551e-09
8.96611e-07
-2.78198e-10
2.56109e-09
8.94688e-07
-1.85529e-10
2.2149e-09
8.9302e-07
-9.27171e-11
1.90581e-09
8.9157e-07
5.68823e-12
1.64262e-09
8.90306e-07
1.09356e-10
1.42805e-09
8.89198e-07
2.10582e-10
1.2524e-09
8.88246e-07
2.95935e-10
1.08566e-09
8.87471e-07
3.53166e-10
8.95527e-10
8.86905e-07
3.72361e-10
6.73219e-10
8.86567e-07
3.47153e-10
4.27055e-10
8.86466e-07
2.77049e-10
1.69522e-10
8.86591e-07
1.67866e-10
-7.96296e-11
3.15133e-11
-3.03879e-10
1.10275e-06
-1.41658e-09
2.49299e-08
1.0818e-06
-1.42467e-09
2.24649e-08
1.06291e-06
-1.47834e-09
2.0282e-08
1.04584e-06
-1.55928e-09
1.83572e-08
1.03037e-06
-1.65094e-09
1.66744e-08
1.0163e-06
-1.74194e-09
1.51986e-08
1.00348e-06
-1.82612e-09
1.38798e-08
9.91793e-07
-1.89759e-09
1.26721e-08
9.81156e-07
-1.95035e-09
1.15506e-08
9.71485e-07
-1.97932e-09
1.05129e-08
9.62691e-07
-1.98207e-09
9.56928e-09
9.54681e-07
-1.95813e-09
8.72671e-09
9.47365e-07
-1.91014e-09
7.97972e-09
9.40668e-07
-1.84525e-09
7.31372e-09
9.34535e-07
-1.77215e-09
6.71217e-09
9.28921e-07
-1.69601e-09
6.16492e-09
9.23783e-07
-1.6155e-09
5.67045e-09
9.19082e-07
-1.52342e-09
5.21831e-09
9.148e-07
-1.41282e-09
4.78225e-09
9.10926e-07
-1.28494e-09
4.35339e-09
9.07428e-07
-1.14961e-09
3.95381e-09
9.04268e-07
-1.01517e-09
3.59332e-09
9.01427e-07
-8.80865e-10
3.24679e-09
8.98902e-07
-7.41188e-10
2.89093e-09
8.96689e-07
-5.95052e-10
2.53023e-09
8.94767e-07
-4.47597e-10
2.18436e-09
8.93103e-07
-3.04626e-10
1.87496e-09
8.91659e-07
-1.69713e-10
1.61979e-09
8.90391e-07
-4.62926e-11
1.4241e-09
8.89269e-07
6.08233e-11
1.27181e-09
8.88292e-07
1.4673e-10
1.12602e-09
8.87486e-07
2.0604e-10
9.53211e-10
8.86882e-07
2.32778e-10
7.43095e-10
8.86506e-07
2.23307e-10
4.99534e-10
8.86373e-07
1.78306e-10
2.32525e-10
8.86477e-07
1.01117e-10
-3.74492e-11
-2.94873e-12
-2.91259e-10
1.10257e-06
-3.38552e-09
2.52791e-08
1.08159e-06
-3.2048e-09
2.27587e-08
1.06268e-06
-3.08503e-09
2.05134e-08
1.04561e-06
-3.01104e-09
1.85251e-08
1.03014e-06
-2.96801e-09
1.67846e-08
1.01608e-06
-2.94128e-09
1.526e-08
1.00327e-06
-2.91811e-09
1.38989e-08
9.91606e-07
-2.88847e-09
1.26566e-08
9.80991e-07
-2.84563e-09
1.15104e-08
9.71343e-07
-2.78709e-09
1.04563e-08
9.62572e-07
-2.7128e-09
9.50146e-09
9.54583e-07
-2.62437e-09
8.65537e-09
9.47282e-07
-2.52467e-09
7.91584e-09
9.40591e-07
-2.41846e-09
7.26335e-09
9.34459e-07
-2.31108e-09
6.67099e-09
9.28848e-07
-2.20576e-09
6.12114e-09
9.2372e-07
-2.10056e-09
5.61344e-09
9.19035e-07
-1.98742e-09
5.14862e-09
9.14767e-07
-1.85775e-09
4.71293e-09
9.10897e-07
-1.71132e-09
4.29651e-09
9.07397e-07
-1.55627e-09
3.90662e-09
9.04237e-07
-1.39855e-09
3.54336e-09
9.01401e-07
-1.23556e-09
3.19014e-09
8.98884e-07
-1.06183e-09
2.83835e-09
8.96672e-07
-8.77775e-10
2.4948e-09
8.94745e-07
-6.91668e-10
2.17054e-09
8.93075e-07
-5.1511e-10
1.88101e-09
8.9162e-07
-3.58676e-10
1.64396e-09
8.90337e-07
-2.28652e-10
1.4652e-09
8.89196e-07
-1.26004e-10
1.32768e-09
8.88195e-07
-4.82586e-11
1.1955e-09
8.8736e-07
6.49307e-12
1.03466e-09
8.86725e-07
3.86603e-11
8.29569e-10
8.86319e-07
4.76977e-11
5.81803e-10
8.86158e-07
3.44636e-11
3.04623e-10
8.8624e-07
-1.03266e-12
1.97086e-11
8.86554e-07
-5.80764e-11
-2.58195e-10
-1.30277e-10
-5.20038e-10
1.10206e-06
-5.61573e-09
2.55914e-08
1.08104e-06
-5.20526e-09
2.30182e-08
1.06211e-06
-4.8686e-09
2.07169e-08
1.04502e-06
-4.59303e-09
1.86684e-08
1.02956e-06
-4.36906e-09
1.68697e-08
1.0155e-06
-4.18354e-09
1.52957e-08
1.00271e-06
-4.01991e-09
1.38956e-08
9.9106e-07
-3.8634e-09
1.26239e-08
9.80462e-07
-3.70493e-09
1.14567e-08
9.70831e-07
-3.54213e-09
1.03866e-08
9.62077e-07
-3.37864e-09
9.42022e-09
9.54101e-07
-3.22029e-09
8.57122e-09
9.46808e-07
-3.07047e-09
7.83894e-09
9.40119e-07
-2.9283e-09
7.19885e-09
9.33983e-07
-2.78995e-09
6.61449e-09
9.2837e-07
-2.65179e-09
6.05943e-09
9.23248e-07
-2.51196e-09
5.53353e-09
9.18577e-07
-2.36754e-09
5.05059e-09
9.14323e-07
-2.21358e-09
4.61069e-09
9.10457e-07
-2.04811e-09
4.20194e-09
9.06958e-07
-1.87401e-09
3.81749e-09
9.03802e-07
-1.69345e-09
3.45088e-09
9.00976e-07
-1.50489e-09
3.0948e-09
8.98468e-07
-1.30707e-09
2.7531e-09
8.96259e-07
-1.10325e-09
2.43477e-09
8.94326e-07
-9.02251e-10
2.14409e-09
8.92639e-07
-7.16786e-10
1.88812e-09
8.91162e-07
-5.59428e-10
1.67772e-09
8.89855e-07
-4.37405e-10
1.51549e-09
8.88691e-07
-3.49387e-10
1.38757e-09
8.87666e-07
-2.86861e-10
1.26343e-09
8.86804e-07
-2.39604e-10
1.10803e-09
8.86143e-07
-2.00614e-10
9.0119e-10
8.85713e-07
-1.67715e-10
6.45008e-10
8.85531e-07
-1.42591e-10
3.59226e-10
8.85593e-07
-1.28819e-10
6.5275e-11
8.85894e-07
-1.28171e-10
-2.30696e-10
-1.37461e-10
-5.25007e-10
1.10013e-06
-7.38559e-09
2.51771e-08
1.07908e-06
-6.77204e-09
2.26169e-08
1.06012e-06
-6.23826e-09
2.03245e-08
1.04303e-06
-5.77455e-09
1.82789e-08
1.02756e-06
-5.37921e-09
1.64804e-08
1.01351e-06
-5.04345e-09
1.49079e-08
1.00072e-06
-4.74814e-09
1.35115e-08
9.89089e-07
-4.47411e-09
1.22457e-08
9.78507e-07
-4.21033e-09
1.1088e-08
9.68888e-07
-3.95542e-09
1.0032e-08
9.60142e-07
-3.71608e-09
9.0832e-09
9.52171e-07
-3.50105e-09
8.25166e-09
9.4488e-07
-3.31298e-09
7.53361e-09
9.38192e-07
-3.14539e-09
6.90523e-09
9.32056e-07
-2.98573e-09
6.33194e-09
9.26442e-07
-2.82285e-09
5.78502e-09
9.21323e-07
-2.65411e-09
5.2613e-09
9.1666e-07
-2.48284e-09
4.77807e-09
9.12414e-07
-2.31023e-09
4.34307e-09
9.08553e-07
-2.13481e-09
3.94698e-09
9.05056e-07
-1.95551e-09
3.57903e-09
9.01903e-07
-1.77068e-09
3.22965e-09
8.99084e-07
-1.57859e-09
2.89301e-09
8.96582e-07
-1.38118e-09
2.57586e-09
8.94374e-07
-1.18475e-09
2.28929e-09
8.92433e-07
-9.98629e-10
2.0377e-09
8.90727e-07
-8.34031e-10
1.82315e-09
8.89222e-07
-7.00873e-10
1.6465e-09
8.87885e-07
-6.03668e-10
1.50308e-09
8.86694e-07
-5.3903e-10
1.38145e-09
8.85643e-07
-4.95217e-10
1.25866e-09
8.84757e-07
-4.56227e-10
1.10312e-09
8.84072e-07
-4.1e-10
8.93868e-10
8.83623e-07
-3.54305e-10
6.35909e-10
8.83422e-07
-2.94793e-10
3.52754e-10
8.83468e-07
-2.3725e-10
6.24089e-11
8.83759e-07
-1.82156e-10
-2.36378e-10
-1.29447e-10
-5.42235e-10
1.09165e-06
-6.55201e-09
2.25457e-08
1.07064e-06
-5.97465e-09
2.0214e-08
1.05173e-06
-5.46025e-09
1.81316e-08
1.03468e-06
-5.00344e-09
1.62786e-08
1.01926e-06
-4.60752e-09
1.46507e-08
1.00526e-06
-4.26829e-09
1.32255e-08
9.92524e-07
-3.96959e-09
1.19581e-08
9.80935e-07
-3.69444e-09
1.08094e-08
9.70396e-07
-3.43413e-09
9.76288e-09
9.60815e-07
-3.18876e-09
8.81476e-09
9.52097e-07
-2.96453e-09
7.96614e-09
9.44147e-07
-2.76827e-09
7.21711e-09
9.36875e-07
-2.60087e-09
6.55979e-09
9.30207e-07
-2.45535e-09
5.97839e-09
9.24088e-07
-2.31914e-09
5.45163e-09
9.18488e-07
-2.18014e-09
4.95801e-09
9.13378e-07
-2.03509e-09
4.4907e-09
9.08724e-07
-1.8891e-09
4.05984e-09
9.04488e-07
-1.74667e-09
3.67254e-09
9.00637e-07
-1.60819e-09
3.32429e-09
8.97147e-07
-1.47215e-09
3.00714e-09
8.94e-07
-1.33528e-09
2.71109e-09
8.91188e-07
-1.19456e-09
2.42824e-09
8.88696e-07
-1.05166e-09
2.16291e-09
8.86497e-07
-9.1296e-10
1.92649e-09
8.8456e-07
-7.86485e-10
1.72573e-09
8.82845e-07
-6.79807e-10
1.56019e-09
8.81319e-07
-5.97481e-10
1.42229e-09
8.79955e-07
-5.39859e-10
1.30088e-09
8.78733e-07
-5.03065e-10
1.18604e-09
8.77652e-07
-4.77607e-10
1.06338e-09
8.76735e-07
-4.49706e-10
9.10673e-10
8.7602e-07
-4.08713e-10
7.12787e-10
8.75544e-07
-3.53867e-10
4.75939e-10
8.75321e-07
-2.91855e-10
2.2045e-10
8.75351e-07
-2.27196e-10
-4.00915e-11
8.75635e-07
-1.59614e-10
-3.06387e-10
-8.91518e-11
-5.77177e-10
1.03726e-06
1.61445e-08
1.01687e-06
1.44088e-08
9.9854e-07
1.28716e-08
9.82021e-07
1.1516e-08
9.67083e-07
1.03299e-08
9.53524e-07
9.29062e-09
9.41189e-07
8.36567e-09
9.29965e-07
7.52959e-09
9.19759e-07
6.77167e-09
9.10481e-07
6.08918e-09
9.02037e-07
5.47913e-09
8.94335e-07
4.93467e-09
8.87287e-07
4.44673e-09
8.80823e-07
4.00811e-09
8.74891e-07
3.61296e-09
8.69457e-07
3.25417e-09
8.64495e-07
2.92718e-09
8.59973e-07
2.63259e-09
8.55856e-07
2.37021e-09
8.52113e-07
2.13546e-09
8.48719e-07
1.92192e-09
8.4566e-07
1.72279e-09
8.42932e-07
1.53428e-09
8.4052e-07
1.36023e-09
8.38398e-07
1.20835e-09
8.3653e-07
1.0823e-09
8.34871e-07
9.78611e-10
8.33386e-07
8.87974e-10
8.32046e-07
8.00003e-10
8.30835e-07
7.07494e-10
8.29754e-07
6.03297e-10
8.28828e-07
4.76746e-10
8.28099e-07
3.20373e-10
8.27607e-07
1.38251e-10
8.27372e-07
-5.686e-11
8.27398e-07
-2.53515e-10
8.27684e-07
-4.45455e-10
-6.28952e-10
1.15122e-06
4.24933e-09
4.04474e-08
1.12727e-06
3.82468e-09
3.61648e-08
1.10574e-06
3.4683e-09
3.24358e-08
1.08631e-06
3.15914e-09
2.91703e-08
1.06874e-06
2.88778e-09
2.63014e-08
1.05281e-06
2.6497e-09
2.37756e-08
1.03833e-06
2.44016e-09
2.15448e-08
1.02515e-06
2.25414e-09
1.95644e-08
1.01312e-06
2.08743e-09
1.77961e-08
1.00213e-06
1.93622e-09
1.62101e-08
9.9208e-07
1.79657e-09
1.47816e-08
9.82893e-07
1.66579e-09
1.34853e-08
9.74494e-07
1.5445e-09
1.22968e-08
9.66819e-07
1.43591e-09
1.11999e-08
9.598e-07
1.34222e-09
1.01881e-08
9.5338e-07
1.26166e-09
9.25691e-09
9.47507e-07
1.18936e-09
8.39724e-09
9.42143e-07
1.1214e-09
7.60012e-09
9.37253e-07
1.05599e-09
6.86173e-09
9.32805e-07
9.90447e-10
6.17738e-09
9.28779e-07
9.21231e-10
5.53548e-09
9.25158e-07
8.4839e-10
4.92557e-09
9.21921e-07
7.7613e-10
4.3489e-09
9.19041e-07
7.0937e-10
3.81465e-09
9.16484e-07
6.52651e-10
3.32791e-09
9.14216e-07
6.09827e-10
2.88439e-09
9.12208e-07
5.81613e-10
2.4741e-09
9.10434e-07
5.6411e-10
2.08832e-09
9.08879e-07
5.5018e-10
1.72221e-09
9.07536e-07
5.32209e-10
1.3722e-09
9.06406e-07
5.04393e-10
1.03478e-09
9.05491e-07
4.62673e-10
7.08666e-10
9.048e-07
4.04851e-10
3.96109e-10
9.04334e-07
3.34601e-10
1.0237e-10
9.04089e-07
2.58181e-10
-1.64869e-10
9.04051e-07
1.82907e-10
-4.02513e-10
9.04199e-07
1.16126e-10
-6.11503e-10
6.0663e-11
-8.00189e-10
1.20045e-06
5.37418e-09
5.14145e-08
1.17569e-06
4.82176e-09
4.61251e-08
1.15342e-06
4.35897e-09
4.15103e-08
1.13333e-06
3.96081e-09
3.74506e-08
1.11517e-06
3.61337e-09
3.38705e-08
1.09871e-06
3.3085e-09
3.07095e-08
1.08376e-06
3.03943e-09
2.79089e-08
1.07016e-06
2.79958e-09
2.54161e-08
1.05777e-06
2.58275e-09
2.31902e-08
1.04646e-06
2.3835e-09
2.1196e-08
1.03614e-06
2.198e-09
1.9396e-08
1.02672e-06
2.02516e-09
1.77531e-08
1.01812e-06
1.8674e-09
1.62434e-08
1.01026e-06
1.72905e-09
1.48575e-08
1.00308e-06
1.61275e-09
1.3588e-08
9.96518e-07
1.51616e-09
1.24197e-08
9.9052e-07
1.43286e-09
1.13335e-08
9.85046e-07
1.357e-09
1.03187e-08
9.80059e-07
1.28522e-09
9.37207e-09
9.75527e-07
1.21412e-09
8.48354e-09
9.71423e-07
1.13976e-09
7.63675e-09
9.67724e-07
1.0614e-09
6.82967e-09
9.64403e-07
9.82411e-10
6.07558e-09
9.61434e-07
9.07664e-10
5.38371e-09
9.5879e-07
8.42246e-10
4.75525e-09
9.56444e-07
7.90459e-10
4.19094e-09
9.5437e-07
7.53441e-10
3.68728e-09
9.52546e-07
7.28351e-10
3.22976e-09
9.50958e-07
7.09512e-10
2.79529e-09
9.49595e-07
6.89721e-10
2.36232e-09
9.48453e-07
6.61439e-10
1.92296e-09
9.47529e-07
6.17475e-10
1.4813e-09
9.46824e-07
5.52754e-10
1.04325e-09
9.46338e-07
4.67831e-10
6.19918e-10
9.46067e-07
3.69423e-10
2.27357e-10
9.46001e-07
2.66846e-10
-1.24021e-10
9.46129e-07
1.70394e-10
-4.30684e-10
8.57e-11
-6.96036e-10
1.20598e-06
4.70582e-09
5.60794e-08
1.18117e-06
4.20396e-09
5.03594e-08
1.15884e-06
3.78005e-09
4.53871e-08
1.1387e-06
3.41416e-09
4.10246e-08
1.12049e-06
3.09423e-09
3.71782e-08
1.10398e-06
2.81273e-09
3.37716e-08
1.089e-06
2.56318e-09
3.07413e-08
1.07538e-06
2.3388e-09
2.80412e-08
1.06298e-06
2.13322e-09
2.56337e-08
1.05167e-06
1.94208e-09
2.34736e-08
1.04136e-06
1.76405e-09
2.15085e-08
1.03196e-06
1.60065e-09
1.96996e-08
1.02339e-06
1.45534e-09
1.80351e-08
1.01556e-06
1.33206e-09
1.65178e-08
1.00841e-06
1.23274e-09
1.51442e-08
1.00188e-06
1.15519e-09
1.38919e-08
9.95914e-07
1.09367e-09
1.27275e-08
9.9047e-07
1.04227e-09
1.16308e-08
9.85511e-07
9.96749e-10
1.05995e-08
9.81006e-07
9.53482e-10
9.62567e-09
9.76926e-07
9.09042e-10
8.69438e-09
9.73244e-07
8.62143e-10
7.8069e-09
9.69932e-07
8.13918e-10
6.97757e-09
9.66964e-07
7.66379e-10
6.21211e-09
9.64318e-07
7.22188e-10
5.51183e-09
9.61971e-07
6.84554e-10
4.88333e-09
9.59899e-07
6.55888e-10
4.32696e-09
9.58083e-07
6.36922e-10
3.8252e-09
9.56506e-07
6.26141e-10
3.34783e-09
9.55157e-07
6.18885e-10
2.87098e-09
9.54027e-07
6.07698e-10
2.39099e-09
9.5311e-07
5.8368e-10
1.9103e-09
9.52406e-07
5.39015e-10
1.42469e-09
9.51916e-07
4.70842e-10
9.39612e-10
9.51637e-07
3.82585e-10
4.75742e-10
9.51564e-07
2.81973e-10
5.32905e-11
9.51687e-07
1.79027e-10
-3.10719e-10
8.27729e-11
-6.16428e-10
1.20652e-06
3.29471e-09
5.72078e-08
1.18173e-06
2.92151e-09
5.13854e-08
1.15942e-06
2.59699e-09
4.63424e-08
1.13929e-06
2.31059e-09
4.19281e-08
1.12109e-06
2.05632e-09
3.80366e-08
1.1046e-06
1.83052e-09
3.4585e-08
1.08963e-06
1.62862e-09
3.15119e-08
1.07602e-06
1.44494e-09
2.87747e-08
1.06363e-06
1.27473e-09
2.63298e-08
1.05235e-06
1.11617e-09
2.41188e-08
1.04206e-06
9.70518e-10
2.20867e-08
1.0327e-06
8.40983e-10
2.02079e-08
1.02416e-06
7.30845e-10
1.84858e-08
1.01637e-06
6.4237e-10
1.69298e-08
1.00925e-06
5.76041e-10
1.55349e-08
1.00275e-06
5.30045e-10
1.42732e-08
9.96814e-07
5.00577e-10
1.31046e-08
9.91395e-07
4.832e-10
1.20056e-08
9.86458e-07
4.73729e-10
1.09726e-08
9.81973e-07
4.68521e-10
9.99388e-09
9.7791e-07
4.64666e-10
9.05351e-09
9.74242e-07
4.60458e-10
8.15956e-09
9.70939e-07
4.55201e-10
7.32787e-09
9.67977e-07
4.48122e-10
6.55383e-09
9.65335e-07
4.39184e-10
5.82902e-09
9.62993e-07
4.30093e-10
5.16177e-09
9.6093e-07
4.23965e-10
4.56207e-09
9.59124e-07
4.24314e-10
4.02135e-09
9.57558e-07
4.32743e-10
3.5153e-09
9.56217e-07
4.46454e-10
3.02703e-09
9.55089e-07
4.58718e-10
2.55566e-09
9.54169e-07
4.606e-10
2.0928e-09
9.53458e-07
4.43273e-10
1.61727e-09
9.52957e-07
4.01565e-10
1.12487e-09
9.52669e-07
3.35764e-10
6.35457e-10
9.5259e-07
2.50893e-10
1.75322e-10
9.52712e-07
1.55056e-10
-2.30142e-10
5.92809e-11
-5.75052e-10
1.20639e-06
5.70274e-08
1.18163e-06
1.5051e-09
5.12265e-08
1.15934e-06
1.29516e-09
4.62019e-08
1.13923e-06
1.09951e-09
4.17991e-08
1.12104e-06
9.18806e-10
3.79186e-08
1.10456e-06
7.53627e-10
3.44855e-08
1.08961e-06
6.02777e-10
3.1438e-08
1.07601e-06
4.63919e-10
2.87221e-08
1.06363e-06
3.3554e-10
2.62791e-08
1.05236e-06
2.18218e-10
2.4047e-08
1.0421e-06
1.14577e-10
2.19838e-08
1.03276e-06
2.73118e-11
2.00827e-08
1.02425e-06
-4.11031e-11
1.83535e-08
1.01648e-06
-9.00447e-11
1.67994e-08
1.00939e-06
-1.20528e-10
1.5409e-08
1.00291e-06
-1.34128e-10
1.41549e-08
9.96992e-07
-1.33344e-10
1.30031e-08
9.91589e-07
-1.20678e-10
1.19349e-08
9.86664e-07
-9.83496e-11
1.09385e-08
9.82189e-07
-6.90089e-11
9.98786e-09
9.78135e-07
-3.54029e-11
9.06685e-09
9.74473e-07
-1.50605e-13
8.19696e-09
9.71172e-07
3.52356e-11
7.39708e-09
9.68209e-07
6.8627e-11
6.64683e-09
9.65566e-07
9.89139e-11
5.92098e-09
9.63227e-07
1.2624e-10
5.22625e-09
9.6117e-07
1.52627e-10
4.58498e-09
9.59373e-07
1.81271e-10
4.00639e-09
9.57814e-07
2.14319e-10
3.48314e-09
9.56477e-07
2.5005e-10
3.00765e-09
9.55346e-07
2.83467e-10
2.57302e-09
9.54417e-07
3.0714e-10
2.15329e-09
9.53691e-07
3.13085e-10
1.71246e-09
9.53174e-07
2.9602e-10
1.23944e-09
9.52871e-07
2.54674e-10
7.49406e-10
9.52781e-07
1.91585e-10
2.66299e-10
9.52901e-07
1.12411e-10
-1.81459e-10
2.66319e-11
-5.78559e-10
1.18148e-06
1.15577e-10
5.09787e-08
1.1592e-06
2.48885e-11
4.59557e-08
1.1391e-06
-7.45685e-11
4.15398e-08
1.12093e-06
-1.77401e-10
3.76488e-08
1.10446e-06
-2.7939e-10
3.42213e-08
1.08951e-06
-3.77265e-10
3.11907e-08
1.07592e-06
-4.68312e-10
2.84843e-08
1.06355e-06
-5.50359e-10
2.60306e-08
1.0523e-06
-6.2143e-10
2.37743e-08
1.04206e-06
-6.79345e-10
2.16916e-08
1.03273e-06
-7.21995e-10
1.97869e-08
1.02424e-06
-7.48293e-10
1.80673e-08
1.01649e-06
-7.58887e-10
1.65258e-08
1.00942e-06
-7.55787e-10
1.51447e-08
1.00295e-06
-7.40961e-10
1.38988e-08
9.97046e-07
-7.15501e-10
1.27642e-08
9.91653e-07
-6.7956e-10
1.17277e-08
9.86737e-07
-6.3295e-10
1.07684e-08
9.82267e-07
-5.76593e-10
9.84814e-09
9.78218e-07
-5.13263e-10
8.95345e-09
9.74558e-07
-4.46155e-10
8.11549e-09
9.71256e-07
-3.77224e-10
7.35139e-09
9.68291e-07
-3.07794e-10
6.62752e-09
9.65646e-07
-2.39271e-10
5.90875e-09
9.63306e-07
-1.73049e-10
5.20047e-09
9.61251e-07
-1.09941e-10
4.53219e-09
9.59459e-07
-4.98064e-11
3.92925e-09
9.57904e-07
7.67421e-12
3.4035e-09
9.56566e-07
6.14205e-11
2.95489e-09
9.55428e-07
1.08973e-10
2.56467e-09
9.54486e-07
1.45627e-10
2.18945e-09
9.53743e-07
1.66455e-10
1.78498e-09
9.53207e-07
1.68209e-10
1.33691e-09
9.52886e-07
1.49641e-10
8.53558e-10
9.52783e-07
1.1131e-10
3.52876e-10
9.52895e-07
5.60472e-11
-1.35629e-10
-1.06672e-11
-5.87109e-10
1.1814e-06
-1.30462e-09
5.11139e-08
1.15911e-06
-1.26395e-09
4.60428e-08
1.13901e-06
-1.25202e-09
4.1564e-08
1.12084e-06
-1.26151e-09
3.76141e-08
1.10438e-06
-1.28629e-09
3.41438e-08
1.08943e-06
-1.31888e-09
3.10829e-08
1.07585e-06
-1.35124e-09
2.83452e-08
1.06349e-06
-1.37752e-09
2.5855e-08
1.05225e-06
-1.3945e-09
2.35662e-08
1.04202e-06
-1.4005e-09
2.14639e-08
1.03271e-06
-1.39499e-09
1.9553e-08
1.02423e-06
-1.3786e-09
1.7838e-08
1.01649e-06
-1.35297e-09
1.63092e-08
1.00943e-06
-1.32e-09
1.49422e-08
1.00298e-06
-1.28053e-09
1.37066e-08
9.97079e-07
-1.23375e-09
1.258e-08
9.91695e-07
-1.17782e-09
1.15524e-08
9.86786e-07
-1.11098e-09
1.06051e-08
9.82323e-07
-1.03308e-09
9.70246e-09
9.78277e-07
-9.46264e-10
8.83239e-09
9.74617e-07
-8.53301e-10
8.02013e-09
9.71315e-07
-7.55597e-10
7.27369e-09
9.68349e-07
-6.53937e-10
6.55946e-09
9.65702e-07
-5.50064e-10
5.84863e-09
9.63359e-07
-4.47159e-10
5.14707e-09
9.61303e-07
-3.49472e-10
4.48068e-09
9.59509e-07
-2.60893e-10
3.87957e-09
9.57953e-07
-1.83699e-10
3.36759e-09
9.56609e-07
-1.18672e-10
2.94813e-09
9.55461e-07
-6.59739e-11
2.59434e-09
9.54505e-07
-2.58665e-11
2.25351e-09
9.53745e-07
1.42927e-12
1.87797e-09
9.53191e-07
1.65996e-11
1.44916e-09
9.52851e-07
1.92661e-11
9.69338e-10
9.52733e-07
8.21145e-12
4.53753e-10
9.52836e-07
-1.68013e-11
-6.70918e-11
-5.3863e-11
-5.64676e-10
1.18139e-06
-2.7996e-09
5.1567e-08
1.15908e-06
-2.61023e-09
4.64164e-08
1.13896e-06
-2.46552e-09
4.18466e-08
1.12078e-06
-2.35882e-09
3.78033e-08
1.10432e-06
-2.28478e-09
3.4248e-08
1.08938e-06
-2.2334e-09
3.11149e-08
1.0758e-06
-2.19173e-09
2.83162e-08
1.06345e-06
-2.14965e-09
2.57763e-08
1.05222e-06
-2.10211e-09
2.34514e-08
1.042e-06
-2.04812e-09
2.13242e-08
1.0327e-06
-1.98982e-09
1.93972e-08
1.02422e-06
-1.93029e-09
1.76795e-08
1.01649e-06
-1.87133e-09
1.61637e-08
1.00943e-06
-1.81265e-09
1.48166e-08
1.00298e-06
-1.75152e-09
1.35936e-08
9.9709e-07
-1.68397e-09
1.24635e-08
9.91713e-07
-1.60726e-09
1.14198e-08
9.86812e-07
-1.52027e-09
1.04592e-08
9.82354e-07
-1.42279e-09
9.56104e-09
9.7831e-07
-1.31575e-09
8.7101e-09
9.74651e-07
-1.20042e-09
7.91259e-09
9.7135e-07
-1.07724e-09
7.16604e-09
9.68384e-07
-9.47041e-10
6.44866e-09
9.65736e-07
-8.12795e-10
5.74899e-09
9.63389e-07
-6.799e-10
5.07463e-09
9.61326e-07
-5.55737e-10
4.44057e-09
9.59523e-07
-4.47538e-10
3.86981e-09
9.57957e-07
-3.59671e-10
3.38643e-09
9.56602e-07
-2.92805e-10
2.99472e-09
9.55441e-07
-2.44495e-10
2.66691e-09
9.5447e-07
-2.09903e-10
2.35048e-09
9.53694e-07
-1.82737e-10
1.99513e-09
9.53122e-07
-1.57894e-10
1.57556e-09
9.52766e-07
-1.3452e-10
1.09125e-09
9.52634e-07
-1.15795e-10
5.61349e-10
9.52725e-07
-1.0496e-10
1.68715e-11
9.53034e-07
-1.03145e-10
-5.18707e-10
-1.09484e-10
-1.03107e-09
1.18135e-06
-4.17555e-09
5.18024e-08
1.15901e-06
-3.83878e-09
4.6591e-08
1.13886e-06
-3.55713e-09
4.19525e-08
1.12067e-06
-3.32635e-09
3.78329e-08
1.10419e-06
-3.14478e-09
3.42031e-08
1.08925e-06
-3.00211e-09
3.10074e-08
1.07568e-06
-2.88093e-09
2.816e-08
1.06333e-06
-2.76653e-09
2.55845e-08
1.0521e-06
-2.65181e-09
2.32354e-08
1.04189e-06
-2.53714e-09
2.10917e-08
1.03259e-06
-2.42804e-09
1.91562e-08
1.02412e-06
-2.3299e-09
1.7442e-08
1.01639e-06
-2.24369e-09
1.59416e-08
1.00932e-06
-2.16548e-09
1.46143e-08
1.00287e-06
-2.08733e-09
1.34038e-08
9.96979e-07
-2.00131e-09
1.22693e-08
9.91603e-07
-1.9046e-09
1.12059e-08
9.86705e-07
-1.79842e-09
1.02272e-08
9.82248e-07
-1.68384e-09
9.32878e-09
9.78203e-07
-1.56114e-09
8.49247e-09
9.74542e-07
-1.43e-09
7.70767e-09
9.7124e-07
-1.28927e-09
6.96476e-09
9.68275e-07
-1.13953e-09
6.25316e-09
9.65624e-07
-9.85328e-10
5.57591e-09
9.63271e-07
-8.34748e-10
4.94291e-09
9.61197e-07
-6.97884e-10
4.36068e-09
9.5938e-07
-5.83844e-10
3.84124e-09
9.57796e-07
-4.97496e-10
3.39947e-09
9.56422e-07
-4.38823e-10
3.03575e-09
9.55241e-07
-4.03199e-10
2.7265e-09
9.5425e-07
-3.80967e-10
2.42551e-09
9.53454e-07
-3.59302e-10
2.08112e-09
9.52863e-07
-3.28225e-10
1.66234e-09
9.5249e-07
-2.86357e-10
1.17019e-09
9.52341e-07
-2.39254e-10
6.3115e-10
9.52419e-07
-1.92519e-10
7.47386e-11
9.52721e-07
-1.49298e-10
-4.86258e-10
-1.12974e-10
-1.04218e-09
1.18064e-06
-4.86618e-09
5.07467e-08
1.15826e-06
-4.44088e-09
4.5595e-08
1.1381e-06
-4.07139e-09
4.10044e-08
1.11989e-06
-3.75704e-09
3.69199e-08
1.10341e-06
-3.50127e-09
3.33174e-08
1.08846e-06
-3.29512e-09
3.01469e-08
1.07488e-06
-3.11849e-09
2.73247e-08
1.06254e-06
-2.95365e-09
2.4776e-08
1.05131e-06
-2.7929e-09
2.24573e-08
1.0411e-06
-2.63846e-09
2.03498e-08
1.0318e-06
-2.49836e-09
1.84538e-08
1.02332e-06
-2.37902e-09
1.67769e-08
1.01558e-06
-2.28041e-09
1.5307e-08
1.00851e-06
-2.19577e-09
1.40051e-08
1.00205e-06
-2.11286e-09
1.28185e-08
9.96153e-07
-2.02006e-09
1.17038e-08
9.90772e-07
-1.91436e-09
1.06529e-08
9.85867e-07
-1.79963e-09
9.68407e-09
9.81403e-07
-1.67955e-09
8.80286e-09
9.77349e-07
-1.55552e-09
7.9948e-09
9.7368e-07
-1.42643e-09
7.24474e-09
9.70371e-07
-1.28872e-09
6.53847e-09
9.67399e-07
-1.14111e-09
5.86629e-09
9.64743e-07
-9.88797e-10
5.23493e-09
9.62383e-07
-8.42197e-10
4.65728e-09
9.60296e-07
-7.13437e-10
4.13954e-09
9.58462e-07
-6.11845e-10
3.68584e-09
9.56854e-07
-5.40844e-10
3.29716e-09
9.55453e-07
-4.98973e-10
2.96486e-09
9.54242e-07
-4.80481e-10
2.66925e-09
9.53219e-07
-4.73156e-10