/*--------------------------------*- C++ -*----------------------------------*\
| =========                 |                                                 |
| \\      /  F ield         | OpenFOAM: The Open Source CFD Toolbox           |
|  \\    /   O peration     | Version:  2.3.1                                 |
|   \\  /    A nd           | Web:      www.OpenFOAM.org                      |
|    \\/     M anipulation  |                                                 |
\*---------------------------------------------------------------------------*/
FoamFile
{
    version     2.0;
    format      ascii;
    class       volScalarField;
    location    "10";
    object      Sed;
}
// * * * * * * * * * * * * * * * * * * * * * * * * * * * * * * * * * * * * * //

dimensions      [0 0 0 0 0 0 0];

internalField   nonuniform List<scalar> 
38262
(
3.79679e-29
2.48574e-30
1.61741e-31
1.04286e-32
6.6525e-34
4.1942e-35
2.61167e-36
1.6054e-37
9.73872e-39
5.82882e-40
3.44167e-41
2.00471e-42
1.15195e-43
6.5304e-45
3.65254e-46
2.01571e-47
1.09768e-48
5.89907e-50
3.12895e-51
1.63824e-52
8.468e-54
4.32191e-55
2.17834e-56
1.08439e-57
5.3321e-59
2.59005e-60
1.24296e-61
5.89372e-63
2.76163e-64
1.27893e-65
5.85478e-67
2.64986e-68
1.18593e-69
5.24907e-71
2.29803e-72
9.95232e-74
4.26413e-75
1.80768e-76
1.64768e-27
1.12522e-28
7.61012e-30
5.08751e-31
3.3583e-32
2.1874e-33
1.40516e-34
8.89989e-36
5.55666e-37
3.41954e-38
2.07412e-39
1.24002e-40
7.30781e-42
4.2457e-43
2.43195e-44
1.37357e-45
7.65057e-47
4.20283e-48
2.27752e-49
1.21765e-50
6.42386e-52
3.34472e-53
1.71902e-54
8.72199e-56
4.36937e-57
2.16141e-58
1.0559e-59
5.09492e-61
2.42854e-62
1.14374e-63
5.32306e-65
2.44863e-66
1.11349e-67
5.00629e-69
2.22574e-70
9.78604e-72
4.25553e-73
1.83048e-74
1.73119e-26
1.23419e-27
8.68257e-29
6.02114e-30
4.11381e-31
2.76825e-32
1.83435e-33
1.19683e-34
7.68848e-36
4.86315e-37
3.02899e-38
1.85796e-39
1.12252e-40
6.68081e-42
3.91744e-43
2.26348e-44
1.28892e-45
7.23485e-47
4.00378e-48
2.18489e-49
1.17595e-50
6.24363e-52
3.27073e-53
1.69075e-54
8.62597e-56
4.34403e-57
2.1597e-58
1.06017e-59
5.13946e-61
2.46092e-62
1.16412e-63
5.44113e-65
2.51334e-66
1.14752e-67
5.17939e-69
2.31134e-70
1.01989e-71
4.45047e-73
6.6441e-26
4.91862e-27
3.58361e-28
2.56803e-29
1.80969e-30
1.25403e-31
8.54527e-33
5.72649e-34
3.77437e-35
2.44713e-36
1.56102e-37
9.79907e-39
6.05443e-40
3.68256e-41
2.20541e-42
1.30069e-43
7.55599e-45
4.32456e-46
2.43904e-47
1.35587e-48
7.43075e-50
4.01566e-51
2.14029e-52
1.12527e-53
5.83697e-55
2.98774e-56
1.50935e-57
7.52664e-59
3.70552e-60
1.80142e-61
8.64912e-63
4.10205e-64
1.92214e-65
8.90035e-67
4.07328e-68
1.84272e-69
8.24138e-71
3.64432e-72
1.32172e-25
1.00215e-26
7.46815e-28
5.46764e-29
3.93263e-30
2.779e-31
1.92961e-32
1.31674e-33
8.83202e-35
5.8244e-36
3.77727e-37
2.40959e-38
1.5123e-39
9.34006e-41
5.6776e-42
3.39762e-43
2.00206e-44
1.16192e-45
6.64313e-47
3.74256e-48
2.07813e-49
1.13757e-50
6.14002e-52
3.26839e-53
1.71617e-54
8.89079e-56
4.54513e-57
2.29323e-58
1.14213e-59
5.61588e-61
2.72664e-62
1.30745e-63
6.19302e-65
2.89836e-66
1.34048e-67
6.12766e-69
2.76894e-70
1.23699e-71
1.34314e-26
1.01121e-27
7.4779e-29
5.4305e-30
3.87308e-31
2.71326e-32
1.8674e-33
1.26298e-34
8.39636e-36
5.48822e-37
3.52795e-38
2.23079e-39
1.38782e-40
8.49644e-42
5.11999e-43
3.03761e-44
1.77471e-45
1.02132e-46
5.79082e-48
3.23576e-49
1.78224e-50
9.67824e-52
5.18271e-53
2.73747e-54
1.42648e-55
7.33483e-57
3.72208e-58
1.8643e-59
9.2181e-61
4.5002e-62
2.16955e-63
1.03312e-64
4.86051e-66
2.25969e-67
1.03832e-68
4.71618e-70
2.11776e-71
1.34319e-26
1.01125e-27
7.47839e-29
5.43109e-30
3.8737e-31
2.71383e-32
1.86787e-33
1.26337e-34
8.39949e-36
5.49062e-37
3.5297e-38
2.232e-39
1.38861e-40
8.5014e-42
5.12301e-43
3.03942e-44
1.77577e-45
1.02193e-46
5.79422e-48
3.23759e-49
1.78319e-50
9.68304e-52
5.18511e-53
2.73866e-54
1.42707e-55
7.33773e-57
3.7235e-58
1.86497e-59
9.22108e-61
4.50137e-62
2.16995e-63
1.03323e-64
4.86057e-66
2.25955e-67
1.0382e-68
4.7156e-70
2.11754e-71
1.00133e-26
7.46064e-28
5.463e-29
3.9302e-30
2.77799e-31
1.92936e-32
1.31685e-33
8.83471e-35
5.82758e-36
3.78027e-37
2.41205e-38
1.51413e-39
9.35256e-41
5.68565e-42
3.40262e-43
2.0051e-44
1.16373e-45
6.6536e-47
3.74846e-48
2.08133e-49
1.13924e-50
6.14847e-52
3.27261e-53
1.71827e-54
8.90111e-56
4.55021e-57
2.29571e-58
1.1433e-59
5.62102e-61
2.72866e-62
1.30812e-63
6.19462e-65
2.89837e-66
1.34019e-67
6.12541e-69
2.76779e-70
1.23653e-71
5.45687e-73
4.91184e-27
3.57794e-28
2.56442e-29
1.80767e-30
1.25305e-31
8.5413e-33
5.72554e-34
3.77493e-35
2.44837e-36
1.56241e-37
9.81156e-39
6.0641e-40
3.68931e-41
2.2098e-42
1.30341e-43
7.57251e-45
4.33437e-46
2.44473e-47
1.35906e-48
7.44802e-50
4.02465e-51
2.14482e-52
1.12752e-53
5.84807e-55
2.99318e-56
1.51201e-57
7.53948e-59
3.71152e-60
1.80402e-61
8.65923e-63
4.10532e-64
1.92285e-65
8.89991e-67
4.0716e-68
1.84149e-69
8.2351e-71
3.64177e-72
1.59261e-73
1.23196e-27
8.665e-29
6.01002e-30
4.10744e-31
2.76495e-32
1.83282e-33
1.19626e-34
7.68775e-36
4.86485e-37
3.03157e-38
1.8605e-39
1.12457e-40
6.69539e-42
3.92698e-43
2.26939e-44
1.29247e-45
7.25568e-47
4.01572e-48
2.19153e-49
1.17951e-50
6.26195e-52
3.27986e-53
1.69522e-54
8.64761e-56
4.35446e-57
2.16471e-58
1.06255e-59
5.15031e-61
2.46554e-62
1.16587e-63
5.44659e-65
2.51442e-66
1.14735e-67
5.17603e-69
2.30902e-70
1.01872e-71
4.44558e-73
1.91908e-74
1.12277e-28
7.59149e-30
5.07578e-31
3.35142e-32
2.18364e-33
1.40324e-34
8.89104e-36
5.5535e-37
3.41934e-38
2.07522e-39
1.24144e-40
7.32041e-42
4.25505e-43
2.43819e-44
1.37745e-45
7.6737e-47
4.21627e-48
2.28514e-49
1.22185e-50
6.44616e-52
3.3561e-53
1.72462e-54
8.74897e-56
4.38225e-57
2.16756e-58
1.05882e-59
5.10855e-61
2.43467e-62
1.14632e-63
5.33272e-65
2.45161e-66
1.11405e-67
5.00519e-69
2.22383e-70
9.77305e-72
4.24891e-73
1.82763e-74
7.77888e-76
2.47966e-30
1.61288e-31
1.03998e-32
6.63508e-34
4.18425e-35
2.60631e-36
1.60272e-37
9.72688e-39
5.82487e-40
3.4415e-41
2.00598e-42
1.15347e-43
6.54302e-45
3.66144e-46
2.0214e-47
1.10111e-48
5.91888e-50
3.14007e-51
1.6443e-52
8.49995e-54
4.33812e-55
2.18627e-56
1.08815e-57
5.34972e-59
2.59823e-60
1.24673e-61
5.91092e-63
2.76922e-64
1.28211e-65
5.86684e-67
2.65376e-68
1.18681e-69
5.24888e-71
2.29625e-72
9.93879e-74
4.25678e-75
1.80434e-76
7.57006e-78
5.35484e-28
3.63711e-29
2.44892e-30
1.6309e-31
1.07295e-32
6.96755e-34
4.46377e-35
2.82027e-36
1.75688e-37
1.07895e-38
6.53188e-40
3.89819e-41
2.29352e-42
1.33042e-43
7.60969e-45
4.29216e-46
2.38763e-47
1.31008e-48
7.09133e-50
3.78725e-51
1.99598e-52
1.03824e-53
5.33114e-55
2.70258e-56
1.35278e-57
6.68676e-59
3.26433e-60
1.57405e-61
7.49815e-63
3.52918e-64
1.64155e-65
7.54685e-67
3.42993e-68
1.54128e-69
6.84874e-71
3.00973e-72
1.30819e-73
5.62465e-75
1.98085e-26
1.39876e-27
9.76695e-29
6.73216e-30
4.57655e-31
3.06662e-32
2.0247e-33
1.31689e-34
8.43663e-36
5.32354e-37
3.30866e-38
2.02561e-39
1.22168e-40
7.25951e-42
4.25072e-43
2.45291e-44
1.39517e-45
7.82306e-47
4.32513e-48
2.35816e-49
1.26818e-50
6.72822e-52
3.52214e-53
1.81956e-54
9.27771e-56
4.66967e-57
2.3204e-58
1.13851e-59
5.51673e-61
2.64045e-62
1.24855e-63
5.83367e-65
2.69378e-66
1.22952e-67
5.54788e-69
2.47506e-70
1.09185e-71
4.76325e-73
1.91329e-25
1.40726e-26
1.02038e-27
7.28598e-29
5.12095e-30
3.54186e-31
2.41033e-32
1.61388e-33
1.06321e-34
6.8922e-36
4.39675e-37
2.76062e-38
1.70629e-39
1.03834e-40
6.22215e-42
3.67223e-43
2.13497e-44
1.22297e-45
6.90376e-47
3.84143e-48
2.1073e-49
1.13992e-50
6.08163e-52
3.20065e-53
1.66188e-54
8.51488e-56
4.30568e-57
2.14913e-58
1.05906e-59
5.15342e-61
2.47668e-62
1.17577e-63
5.51483e-65
2.55607e-66
1.17088e-67
5.30168e-69
2.37316e-70
1.05028e-71
7.17505e-25
5.47151e-26
4.10321e-27
3.02406e-28
2.19001e-29
1.55839e-30
1.08971e-31
7.48857e-33
5.05835e-34
3.35907e-35
2.19342e-36
1.40868e-37
8.89982e-39
5.53248e-40
3.38466e-41
2.03826e-42
1.20851e-43
7.0565e-45
4.05862e-46
2.29994e-47
1.28441e-48
7.0703e-50
3.83712e-51
2.05349e-52
1.08389e-53
5.64365e-55
2.89934e-56
1.46987e-57
7.35489e-59
3.63309e-60
1.77197e-61
8.53494e-63
4.06059e-64
1.90856e-65
8.86395e-67
4.06837e-68
1.84563e-69
8.27659e-71
1.43053e-24
1.1165e-25
8.5585e-27
6.44036e-28
4.75776e-29
3.45073e-30
2.45753e-31
1.71892e-32
1.18109e-33
7.97423e-35
5.29163e-36
3.4522e-37
2.21468e-38
1.39744e-39
8.6748e-41
5.29901e-42
3.18598e-43
1.88588e-44
1.09929e-45
6.31167e-47
3.57044e-48
1.99041e-49
1.0937e-50
5.92495e-52
3.16513e-53
1.66767e-54
8.66812e-56
4.44542e-57
2.24983e-58
1.12386e-59
5.54215e-61
2.69856e-62
1.29766e-63
6.16387e-65
2.89264e-66
1.3414e-67
6.14761e-69
2.78481e-70
1.50444e-25
1.16471e-26
8.85094e-28
6.60027e-29
4.83048e-30
3.47017e-31
2.44762e-32
1.69547e-33
1.15376e-34
7.71519e-36
5.07107e-37
3.27703e-38
2.08255e-39
1.3018e-40
8.00646e-42
4.84606e-43
2.88736e-44
1.69389e-45
9.78708e-47
5.57081e-48
3.12451e-49
1.72718e-50
9.41202e-52
5.05728e-53
2.68001e-54
1.40097e-55
7.22548e-57
3.67727e-58
1.84703e-59
9.1578e-61
4.48289e-62
2.16706e-63
1.03472e-64
4.88093e-66
2.27505e-67
1.04798e-68
4.77144e-70
1.50466e-25
1.16486e-26
8.85214e-28
6.60131e-29
4.8314e-30
3.47095e-31
2.44825e-32
1.69597e-33
1.15416e-34
7.71821e-36
5.07326e-37
3.27856e-38
2.08356e-39
1.30245e-40
8.01049e-42
4.84851e-43
2.88882e-44
1.69475e-45
9.79197e-47
5.57351e-48
3.12595e-49
1.72793e-50
9.41584e-52
5.05922e-53
2.68099e-54
1.40145e-55
7.22789e-57
3.67842e-58
1.84755e-59
9.1599e-61
4.48365e-62
2.16728e-63
1.03476e-64
4.88083e-66
2.27491e-67
1.04791e-68
4.77116e-70
1.11598e-25
8.55197e-27
6.43631e-28
4.75564e-29
3.44992e-30
2.45746e-31
1.71919e-32
1.18148e-33
7.97839e-35
5.2954e-36
3.45526e-37
2.21697e-38
1.39903e-39
8.68531e-41
5.30568e-42
3.19012e-43
1.88838e-44
1.10077e-45
6.3202e-47
3.57517e-48
1.99294e-49
1.09502e-50
5.93168e-52
3.16854e-53
1.66939e-54
8.67668e-56
4.44963e-57
2.25183e-58
1.12475e-59
5.54576e-61
2.69982e-62
1.298e-63
6.16426e-65
2.89233e-66
1.3411e-67
6.14599e-69
2.78419e-70
1.2453e-71
5.46629e-26
4.09804e-27
3.02072e-28
2.18812e-29
1.5575e-30
1.08939e-31
7.48831e-33
5.05949e-34
3.36079e-35
2.19521e-36
1.41024e-37
8.912e-39
5.54114e-40
3.39042e-41
2.04193e-42
1.21078e-43
7.07029e-45
4.06677e-46
2.30461e-47
1.287e-48
7.08408e-50
3.84426e-51
2.05713e-52
1.08572e-53
5.6528e-55
2.90387e-56
1.47208e-57
7.36531e-59
3.63768e-60
1.7738e-61
8.54116e-63
4.06216e-64
1.90866e-65
8.86186e-67
4.0666e-68
1.84467e-69
8.27275e-71
3.6679e-72
1.40537e-26
1.01869e-27
7.27508e-29
5.11462e-30
3.53861e-31
2.40888e-32
1.61339e-33
1.06323e-34
6.89481e-36
4.40018e-37
2.7639e-38
1.70894e-39
1.04026e-40
6.23502e-42
3.68042e-43
2.14001e-44
1.22599e-45
6.92145e-47
3.85147e-48
2.1128e-49
1.14283e-50
6.0965e-52
3.2081e-53
1.66558e-54
8.53313e-56
4.3146e-57
2.15341e-58
1.06104e-59
5.16199e-61
2.48002e-62
1.17687e-63
5.51736e-65
2.55603e-66
1.17039e-67
5.29791e-69
2.37116e-70
1.04945e-71
4.59346e-73
1.39633e-27
9.74674e-29
6.71922e-30
4.56891e-31
3.06245e-32
2.0226e-33
1.31595e-34
8.43365e-36
5.32394e-37
3.31053e-38
2.02779e-39
1.22358e-40
7.27366e-42
4.26028e-43
2.45897e-44
1.39887e-45
7.84496e-47
4.33781e-48
2.36528e-49
1.27204e-50
6.74833e-52
3.53228e-53
1.82457e-54
9.3022e-56
4.68162e-57
2.32619e-58
1.14126e-59
5.52931e-61
2.64581e-62
1.2506e-63
5.84019e-65
2.69514e-66
1.22938e-67
5.54422e-69
2.47246e-70
1.09049e-71
4.75742e-73
2.05317e-74
3.62939e-29
2.44289e-30
1.62703e-31
1.07061e-32
6.95432e-34
4.4567e-35
2.81678e-36
1.75542e-37
1.07858e-38
6.53331e-40
3.90141e-41
2.29675e-42
1.33298e-43
7.62738e-45
4.30347e-46
2.3945e-47
1.31411e-48
7.11436e-50
3.80001e-51
2.0028e-52
1.04175e-53
5.34858e-55
2.71103e-56
1.35683e-57
6.70603e-59
3.27344e-60
1.57829e-61
7.51718e-63
3.5372e-64
1.6446e-65
7.55666e-67
3.43207e-68
1.54114e-69
6.84373e-71
3.00604e-72
1.30623e-73
5.61587e-75
2.38915e-76
3.25466e-27
2.28158e-28
1.58217e-29
1.08349e-30
7.32056e-32
4.87704e-33
3.20251e-34
2.07226e-35
1.32115e-36
8.29819e-38
5.13496e-39
3.13065e-40
1.88068e-41
1.11334e-42
6.49564e-44
3.73553e-45
2.11777e-46
1.18377e-47
6.52516e-49
3.54748e-50
1.90252e-51
1.0067e-52
5.25659e-54
2.709e-55
1.37807e-56
6.9207e-58
3.43162e-59
1.68029e-60
8.12596e-62
3.8819e-63
1.83219e-64
8.54533e-66
3.93908e-67
1.79489e-68
8.0858e-70
3.60166e-71
1.58646e-72
6.91114e-74
1.08983e-25
7.92343e-27
5.68834e-28
4.02651e-29
2.80822e-30
1.92883e-31
1.30437e-32
8.68346e-34
5.69041e-35
3.67076e-36
2.33107e-37
1.45742e-38
8.97219e-40
5.43953e-41
3.24815e-42
1.9107e-43
1.1074e-44
6.32482e-46
3.56048e-47
1.97591e-48
1.0812e-49
5.83466e-51
3.10579e-52
1.63098e-53
8.45112e-55
4.32149e-56
2.18108e-57
1.08668e-58
5.34565e-60
2.59685e-61
1.24601e-62
5.90612e-64
2.76609e-65
1.28023e-66
5.85637e-68
2.6482e-69
1.18388e-70
5.23302e-72
9.84238e-25
7.43846e-26
5.53704e-27
4.05544e-28
2.9215e-29
2.06961e-30
1.44162e-31
9.87412e-33
6.65058e-34
4.40537e-35
2.87031e-36
1.8398e-37
1.16034e-38
7.20205e-40
4.40008e-41
2.64659e-42
1.56755e-43
9.14448e-45
5.25524e-46
2.97588e-47
1.66081e-48
9.13695e-50
4.95614e-51
2.65113e-52
1.39876e-53
7.28038e-55
3.73889e-56
1.89489e-57
9.47901e-59
4.68121e-60
2.28272e-61
1.09932e-62
5.22946e-64
2.45767e-65
1.14129e-66
5.23766e-68
2.37582e-69
1.06531e-70
3.62078e-24
2.83277e-25
2.17808e-26
1.64473e-27
1.21966e-28
8.88187e-30
6.35228e-31
4.46251e-32
3.07988e-33
2.08875e-34
1.39231e-35
9.12392e-37
5.87931e-38
3.72621e-39
2.32328e-40
1.42538e-41
8.60713e-43
5.11667e-44
2.99519e-45
1.72691e-46
9.80912e-48
5.49038e-49
3.02887e-50
1.64724e-51
8.83322e-53
4.67147e-54
2.43693e-55
1.25421e-56
6.36973e-58
3.19283e-59
1.57985e-60
7.71841e-62
3.72385e-63
1.77456e-64
8.35409e-66
3.88589e-67
1.7862e-68
8.11482e-70
7.23681e-24
5.79068e-25
4.54832e-26
3.50492e-27
2.64994e-28
1.96598e-29
1.43145e-30
1.02311e-31
7.18012e-33
4.94908e-34
3.35136e-35
2.23017e-36
1.45879e-37
9.38183e-39
5.93382e-40
3.69183e-41
2.26006e-42
1.36169e-43
8.07665e-45
4.71722e-46
2.71364e-47
1.53792e-48
8.58874e-50
4.72752e-51
2.56533e-52
1.37262e-53
7.24345e-55
3.7706e-56
1.93655e-57
9.81481e-59
4.90966e-60
2.4245e-61
1.18217e-62
5.69257e-64
2.70766e-65
1.27236e-66
5.90784e-68
2.71088e-69
7.84263e-25
6.21952e-26
4.83906e-27
3.69246e-28
2.76375e-29
2.02953e-30
1.46256e-31
1.03462e-32
7.18665e-34
4.90329e-35
3.28692e-36
2.16546e-37
1.40244e-38
8.93105e-40
5.59398e-41
3.44709e-42
2.09032e-43
1.24771e-44
7.3328e-46
4.24416e-47
2.41983e-48
1.35941e-49
7.52644e-51
4.10771e-52
2.21045e-53
1.17306e-54
6.14051e-56
3.17112e-57
1.61594e-58
8.12686e-60
4.03449e-61
1.97749e-62
9.57169e-64
4.57612e-65
2.16134e-66
1.00864e-67
4.65157e-69
7.84464e-25
6.22088e-26
4.84001e-27
3.69319e-28
2.76432e-29
2.02999e-30
1.46293e-31
1.0349e-32
7.18884e-34
4.90493e-35
3.28811e-36
2.16629e-37
1.403e-38
8.93472e-40
5.59631e-41
3.44854e-42
2.0912e-43
1.24824e-44
7.33585e-46
4.24588e-47
2.42078e-48
1.35992e-49
7.52908e-51
4.10909e-52
2.21115e-53
1.17342e-54
6.14228e-56
3.17198e-57
1.61633e-58
8.12852e-60
4.03513e-61
1.9777e-62
9.57223e-64
4.57619e-65
2.1613e-66
1.00861e-67
4.65148e-69
5.78984e-25
4.54582e-26
3.50337e-27
2.64913e-28
1.96568e-29
1.43147e-30
1.02328e-31
7.18238e-33
4.95133e-34
3.35335e-35
2.23179e-36
1.46e-37
9.39049e-39
5.93968e-40
3.69564e-41
2.26247e-42
1.36319e-43
8.0857e-45
4.72253e-46
2.71666e-47
1.53958e-48
8.59762e-50
4.73219e-51
2.56775e-52
1.37386e-53
7.24972e-55
3.77372e-56
1.93805e-57
9.8216e-59
4.9125e-60
2.42556e-61
1.1825e-62
5.69332e-64
2.70766e-65
1.27225e-66
5.90709e-68
2.71061e-69
1.22766e-70
2.83117e-25
2.17595e-26
1.64333e-27
1.21884e-28
8.87788e-30
6.35092e-31
4.46254e-32
3.08056e-33
2.08967e-34
1.39324e-35
9.13206e-37
5.88574e-38
3.7309e-39
2.3265e-40
1.42749e-41
8.62054e-43
5.12498e-44
3.00021e-45
1.72985e-46
9.82579e-48
5.49952e-49
3.03375e-50
1.64979e-51
8.84636e-53
4.67816e-54
2.4403e-55
1.25587e-56
6.37762e-58
3.19636e-59
1.58131e-60
7.72371e-62
3.72542e-63
1.77484e-64
8.35356e-66
3.88502e-67
1.78567e-68
8.11266e-70
3.64304e-71
7.43158e-26
5.52966e-27
4.05056e-28
2.91858e-29
2.06807e-30
1.44093e-31
9.87188e-33
6.65079e-34
4.40675e-35
2.87209e-36
1.84152e-37
1.16177e-38
7.21265e-40
4.40741e-41
2.65139e-42
1.57059e-43
9.16321e-45
5.26646e-46
2.9824e-47
1.66447e-48
9.15682e-50
4.96661e-51
2.65653e-52
1.40151e-53
7.29424e-55
3.74578e-56
1.89825e-57
9.49473e-59
4.68815e-60
2.28551e-61
1.1003e-62
5.23216e-64
2.458e-65
1.14107e-66
5.23539e-68
2.37449e-69
1.06474e-70
4.72072e-72
7.91295e-27
5.6786e-28
4.02011e-29
2.80434e-30
1.92667e-31
1.30327e-32
8.6785e-34
5.68885e-35
3.67101e-36
2.33213e-37
1.45868e-38
8.98338e-40
5.44809e-41
3.2541e-42
1.91459e-43
1.10984e-44
6.33968e-46
3.56929e-47
1.98097e-48
1.08401e-49
5.84969e-51
3.11358e-52
1.63494e-53
8.471e-55
4.33142e-56
2.18599e-57
1.08905e-58
5.35666e-60
2.60164e-61
1.24789e-62
5.91245e-64
2.76764e-65
1.28027e-66
5.8539e-68
2.64619e-69
1.18277e-70
5.22813e-72
2.28564e-73
2.27748e-28
1.57881e-29
1.08128e-30
7.3071e-32
4.86931e-33
3.19833e-34
2.07016e-35
1.32026e-36
8.29593e-38
5.13596e-39
3.13283e-40
1.8829e-41
1.11512e-42
6.50827e-44
3.7438e-45
2.12292e-46
1.18688e-47
6.54331e-49
3.55776e-50
1.90815e-51
1.00966e-52
5.27168e-54
2.71651e-55
1.38177e-56
6.9388e-58
3.44041e-59
1.68447e-60
8.14506e-62
3.8901e-63
1.83538e-64
8.55591e-66
3.94159e-67
1.79491e-68
8.08129e-70
3.59809e-71
1.58449e-72
6.90225e-74
2.97461e-75
1.17608e-26
8.47049e-28
6.02462e-29
4.22602e-30
2.9216e-31
1.9898e-32
1.33471e-33
8.8165e-35
5.7346e-36
3.67284e-37
2.31638e-38
1.43868e-39
8.80065e-41
5.303e-42
3.14807e-43
1.84139e-44
1.06143e-45
6.03059e-47
3.37773e-48
1.86537e-49
1.01593e-50
5.45758e-52
2.89238e-53
1.51251e-54
7.80537e-56
3.97559e-57
1.99887e-58
9.92228e-60
4.86359e-61
2.35449e-62
1.12592e-63
5.31947e-65
2.48344e-66
1.14587e-67
5.22611e-69
2.35635e-70
1.05044e-71
4.63052e-73
3.63086e-25
2.70809e-26
1.99187e-27
1.44299e-28
1.02904e-29
7.22151e-31
4.9862e-32
3.38713e-33
2.26369e-34
1.4885e-35
9.63105e-37
6.13258e-38
3.84348e-39
2.37131e-40
1.44049e-41
8.6171e-43
5.07723e-44
2.94707e-45
1.68555e-46
9.5009e-48
5.27898e-49
2.89192e-50
1.56227e-51
8.32419e-53
4.37535e-54
2.26902e-55
1.16116e-56
5.86475e-58
2.92408e-59
1.43944e-60
6.99749e-62
3.3598e-63
1.59363e-64
7.46852e-66
3.4588e-67
1.58315e-68
7.16273e-70
3.20372e-71
3.14694e-24
2.43547e-25
1.85479e-26
1.38874e-27
1.02199e-28
7.39127e-30
5.25315e-31
3.66924e-32
2.51906e-33
1.70009e-34
1.12811e-35
7.36132e-37
4.72471e-38
2.9833e-39
1.85357e-40
1.13346e-41
6.82313e-43
4.04424e-44
2.36083e-45
1.35758e-46
7.69186e-48
4.295e-49
2.36401e-50
1.28285e-51
6.86484e-53
3.62318e-54
1.88642e-55
9.69068e-57
4.91273e-58
2.45826e-59
1.21437e-60
5.9234e-62
2.85346e-63
1.35778e-64
6.38286e-66
2.96482e-67
1.36096e-68
6.17462e-70
1.14742e-23
9.17956e-25
7.21245e-26
5.56191e-27
4.20957e-28
3.12718e-29
2.28043e-30
1.6327e-31
1.14794e-32
7.92788e-34
5.37936e-35
3.58714e-36
2.35135e-37
1.51546e-38
9.60585e-40
5.98958e-41
3.6748e-42
2.219e-43
1.31909e-44
7.72137e-46
4.45162e-47
2.52842e-48
1.41509e-49
7.80584e-51
4.24469e-52
2.2759e-53
1.20345e-54
6.27711e-56
3.23022e-57
1.64033e-58
8.22127e-60
4.06764e-61
1.98712e-62
9.58658e-64
4.56815e-65
2.15043e-66
1.00021e-67
4.59722e-69
2.30546e-23
1.88511e-24
1.51221e-25
1.18944e-26
9.17433e-28
6.94044e-29
5.15066e-30
3.75065e-31
2.68065e-32
1.88101e-33
1.29625e-34
8.77533e-36
5.83756e-37
3.8169e-38
2.45368e-39
1.55119e-40
9.64649e-42
5.90262e-43
3.55471e-44
2.10747e-45
1.23034e-46
7.07464e-48
4.00772e-49
2.2372e-50
1.2309e-51
6.67652e-53
3.57088e-54
1.8836e-55
9.80112e-57
5.03179e-58
2.54925e-59
1.27477e-60
6.29314e-62
3.06763e-63
1.47679e-64
7.02254e-66
3.29914e-67
1.53144e-68
2.56731e-24
2.07878e-25
1.6506e-26
1.2847e-27
9.80365e-29
7.33677e-30
5.38603e-31
3.8798e-32
2.74327e-33
1.90453e-34
1.29867e-35
8.70028e-37
5.72811e-38
3.70727e-39
2.35928e-40
1.47675e-41
9.09398e-43
5.51109e-44
3.28754e-45
1.93094e-46
1.11696e-47
6.36481e-49
3.57363e-50
1.97749e-51
1.07869e-52
5.8016e-54
3.07723e-55
1.60997e-56
8.31013e-58
4.23264e-59
2.12773e-60
1.05587e-61
5.17345e-63
2.5033e-64
1.19643e-65
5.64907e-67
2.63541e-68
2.56815e-24
2.07936e-25
1.651e-26
1.285e-27
9.80589e-29
7.33851e-30
5.38738e-31
3.88084e-32
2.74405e-33
1.90511e-34
1.29909e-35
8.70321e-37
5.7301e-38
3.70858e-39
2.36012e-40
1.47728e-41
9.09726e-43
5.51307e-44
3.28872e-45
1.93162e-46
1.11734e-47
6.36687e-49
3.57474e-50
1.97807e-51
1.07899e-52
5.80315e-54
3.07801e-55
1.61035e-56
8.31188e-58
4.2334e-59
2.12803e-60
1.05598e-61
5.17379e-63
2.50338e-64
1.19644e-65
5.6491e-67
2.63544e-68
1.88527e-24
1.5116e-25
1.18907e-26
9.17255e-28
6.93993e-29
5.15098e-30
3.75138e-31
2.6815e-32
1.88182e-33
1.29695e-34
8.78093e-36
5.84179e-37
3.81993e-38
2.45575e-39
1.55256e-40
9.65534e-42
5.90818e-43
3.55813e-44
2.10951e-45
1.23152e-46
7.08126e-48
4.01134e-49
2.23915e-50
1.23193e-51
6.68189e-53
3.57363e-54
1.88498e-55
9.80778e-57
5.03484e-58
2.55056e-59
1.27528e-60
6.29487e-62
3.06811e-63
1.47688e-64
7.02247e-66
3.29901e-67
1.53143e-68
7.0148e-70
9.1769e-25
7.20687e-26
5.55822e-27
4.20742e-28
3.12613e-29
2.28012e-30
1.63281e-31
1.14823e-32
7.9313e-34
5.38265e-35
3.58996e-36
2.35358e-37
1.5171e-38
9.61728e-40
5.99722e-41
3.67975e-42
2.22213e-43
1.32101e-44
7.7328e-46
4.45822e-47
2.53211e-48
1.41711e-49
7.8166e-51
4.25035e-52
2.27883e-53
1.20494e-54
6.28452e-56
3.23376e-57
1.64193e-58
8.22801e-60
4.07018e-61
1.98793e-62
9.5885e-64
4.56825e-65
2.15022e-66
1.00005e-67
4.59665e-69
2.08793e-70
2.43393e-25
1.85276e-26
1.38738e-27
1.02117e-28
7.3869e-30
5.25128e-31
3.66877e-32
2.51931e-33
1.70065e-34
1.12876e-35
7.36743e-37
4.72975e-38
2.98709e-39
1.85624e-40
1.13525e-41
6.83466e-43
4.05147e-44
2.36524e-45
1.36018e-46
7.70677e-48
4.30325e-49
2.36845e-50
1.2852e-51
6.87701e-53
3.62942e-54
1.88956e-55
9.70612e-57
4.92003e-58
2.46151e-59
1.2157e-60
5.92821e-62
2.85488e-63
1.35803e-64
6.3823e-66
2.96399e-67
1.36044e-68
6.17243e-70
2.7685e-71
2.70527e-26
1.98899e-27
1.44106e-28
1.02786e-29
7.21497e-31
4.98295e-32
3.38577e-33
2.26337e-34
1.48873e-35
9.6356e-37
6.13753e-38
3.8478e-39
2.37462e-40
1.44282e-41
8.63265e-43
5.08718e-44
2.95326e-45
1.68928e-46
9.52269e-48
5.29128e-49
2.89862e-50
1.56582e-51
8.34255e-53
4.38476e-54
2.2738e-55
1.16355e-56
5.87642e-58
2.92953e-59
1.44182e-60
7.00692e-62
3.36301e-63
1.59444e-64
7.46896e-66
3.45766e-67
1.58218e-68
7.15738e-70
3.2014e-71
1.41599e-72
8.45653e-28
6.01298e-29
4.21841e-30
2.917e-31
1.98721e-32
1.33332e-33
8.80958e-35
5.7318e-36
3.67233e-37
2.317e-38
1.43968e-39
8.81037e-41
5.31074e-42
3.15358e-43
1.84504e-44
1.06375e-45
6.04484e-47
3.38621e-48
1.87026e-49
1.01865e-50
5.47215e-52
2.89995e-53
1.51636e-54
7.82472e-56
3.98524e-57
2.00363e-58
9.94522e-60
4.87416e-61
2.35905e-62
1.1277e-63
5.32536e-65
2.48482e-66
1.14586e-67
5.22346e-69
2.35428e-70
1.04931e-71
4.62548e-73
2.01681e-74
2.93676e-26
2.16401e-27
1.57253e-28
1.12575e-29
7.93565e-31
5.50671e-32
3.761e-33
2.52807e-34
1.67243e-35
1.08895e-36
6.9791e-38
4.4033e-39
2.73532e-40
1.67327e-41
1.00812e-42
5.98283e-44
3.49808e-45
2.01539e-46
1.1444e-47
6.40573e-49
3.53521e-50
1.924e-51
1.03281e-52
5.46939e-54
2.85774e-55
1.47345e-56
7.49809e-58
3.76649e-59
1.86798e-60
9.14812e-62
4.42481e-63
2.11416e-64
9.98024e-66
4.65559e-67
2.14638e-68
9.78122e-70
4.40651e-71
1.96271e-72
8.63739e-25
6.58391e-26
4.94335e-27
3.65211e-28
2.65395e-29
1.89658e-30
1.33273e-31
9.20881e-33
6.25732e-34
4.18163e-35
2.74872e-36
1.77751e-37
1.131e-38
7.08216e-40
4.36513e-41
2.64876e-42
1.58266e-43
9.31376e-45
5.39941e-46
3.08421e-47
1.73623e-48
9.63451e-50
5.27107e-51
2.84379e-52
1.51322e-53
7.94298e-55
4.11358e-56
2.10229e-57
1.06042e-58
5.28036e-60
2.59612e-61
1.2605e-62
6.04502e-64
2.86394e-65
1.34063e-66
6.20154e-68
2.83526e-69
1.28129e-70
7.32765e-24
5.78696e-25
4.4935e-26
3.42774e-27
2.56834e-28
1.89016e-29
1.36635e-30
9.70247e-32
6.76911e-33
4.64077e-34
3.12713e-35
2.07153e-36
1.34934e-37
8.64438e-39
5.44782e-40
3.37822e-41
2.06172e-42
1.23865e-43
7.32735e-45
4.26899e-46
2.4501e-47
1.38554e-48
7.72192e-50
4.24223e-51
2.29779e-52
1.22733e-53
6.46587e-55
3.36044e-56
1.72326e-57
8.72122e-59
4.3567e-60
2.1487e-61
1.04643e-62
5.03315e-64
2.39132e-65
1.12247e-66
5.20616e-68
2.3863e-69
2.67036e-23
2.1773e-24
1.74241e-25
1.36773e-26
1.05317e-27
7.95603e-29
5.89743e-30
4.29031e-31
3.06393e-32
2.14859e-33
1.47989e-34
1.00144e-35
6.65967e-37
4.35341e-38
2.79812e-39
1.76878e-40
1.09993e-41
6.73057e-43
4.05363e-44
2.40354e-45
1.40339e-46
8.07111e-48
4.57313e-49
2.55339e-50
1.4052e-51
7.62373e-53
4.07847e-54
2.15188e-55
1.11999e-56
5.75143e-58
2.91466e-59
1.45793e-60
7.19949e-62
3.51049e-63
1.69049e-64
8.04096e-66
3.77857e-67
1.75442e-68
5.40667e-23
4.503e-24
3.67729e-25
2.94294e-26
2.3085e-27
1.77532e-28
1.33883e-29
9.90342e-31
7.18772e-32
5.12011e-33
3.58087e-34
2.45953e-35
1.65958e-36
1.1004e-37
7.17186e-39
4.59579e-40
2.89638e-41
1.7957e-42
1.09551e-43
6.57824e-45
3.88894e-46
2.26405e-47
1.29832e-48
7.33526e-50
4.08404e-51
2.2413e-52
1.21267e-53
6.47001e-55
3.4047e-56
1.76747e-57
9.05342e-59
4.57663e-60
2.28369e-61
1.12505e-62
5.47307e-64
2.62961e-65
1.24804e-66
5.85196e-68
6.16899e-24
5.0839e-25
4.10661e-26
3.25017e-27
2.52099e-28
1.91695e-29
1.4294e-30
1.04552e-31
7.50404e-33
5.2868e-34
3.65734e-35
2.48514e-36
1.65912e-37
1.08861e-38
7.02194e-40
4.45407e-41
2.77902e-42
1.706e-43
1.03072e-44
6.13031e-46
3.59021e-47
2.0709e-48
1.1768e-49
6.58952e-51
3.63673e-52
1.97866e-53
1.06151e-54
5.61644e-56
2.93136e-57
1.50951e-58
7.67097e-60
3.84767e-61
1.90531e-62
9.31619e-64
4.49878e-65
2.14591e-66
1.01124e-67
6.17134e-24
5.08551e-25
4.10775e-26
3.25099e-27
2.52161e-28
1.91742e-29
1.42975e-30
1.04579e-31
7.50608e-33
5.28829e-34
3.65842e-35
2.48589e-36
1.65963e-37
1.08895e-38
7.02416e-40
4.45548e-41
2.7799e-42
1.70654e-43
1.03104e-44
6.13219e-46
3.59128e-47
2.07149e-48
1.17712e-49
6.59125e-51
3.63764e-52
1.97913e-53
1.06175e-54
5.61761e-56
2.93191e-57
1.50975e-58
7.67195e-60
3.84804e-61
1.90544e-62
9.3166e-64
4.49892e-65
2.14597e-66
1.01127e-67
4.50415e-24
3.67622e-25
2.94231e-26
2.30825e-27
1.7753e-28
1.33896e-29
9.90558e-31
7.19007e-32
5.12228e-33
3.5827e-34
2.46097e-35
1.66067e-36
1.10118e-37
7.17726e-39
4.59941e-40
2.89874e-41
1.79721e-42
1.09644e-43
6.58387e-45
3.89224e-46
2.26594e-47
1.29937e-48
7.341e-50
4.08712e-51
2.24293e-52
1.21351e-53
6.47424e-55
3.40676e-56
1.76843e-57
9.05755e-59
4.57827e-60
2.28428e-61
1.12523e-62
5.47354e-64
2.6297e-65
1.24806e-66
5.85228e-68
2.70727e-69
2.17711e-24
1.74131e-25
1.36701e-26
1.05276e-27
7.95411e-29
5.89703e-30
4.29078e-31
3.06479e-32
2.14953e-33
1.48076e-34
1.00217e-35
6.66541e-37
4.35766e-38
2.80111e-39
1.77081e-40
1.10126e-41
6.73907e-43
4.05892e-44
2.40673e-45
1.40526e-46
8.08174e-48
4.57902e-49
2.55658e-50
1.4069e-51
7.63267e-53
4.08307e-54
2.15417e-55
1.12109e-56
5.75646e-58
2.91679e-59
1.45874e-60
7.20221e-62
3.51121e-63
1.69059e-64
8.04069e-66
3.7783e-67
1.75436e-68
8.04875e-70
5.78451e-25
4.48934e-26
3.42494e-27
2.56665e-28
1.88928e-29
1.366e-30
9.70205e-32
6.77021e-33
4.64248e-34
3.12894e-35
2.07317e-36
1.35068e-37
8.65441e-39
5.45494e-40
3.38305e-41
2.06488e-42
1.24066e-43
7.33978e-45
4.27644e-46
2.45441e-47
1.38796e-48
7.7352e-50
4.24934e-51
2.30154e-52
1.22927e-53
6.47577e-55
3.36533e-56
1.72558e-57
8.73157e-59
4.36096e-60
2.15025e-61
1.0469e-62
5.03406e-64
2.39121e-65
1.12224e-66
5.20473e-68
2.38573e-69
1.08092e-70
6.57817e-26
4.937e-27
3.64789e-28
2.65139e-29
1.8952e-30
1.33209e-31
9.20663e-33
6.25738e-34
4.18275e-35
2.75022e-36
1.77897e-37
1.13223e-38
7.09147e-40
4.37174e-41
2.65321e-42
1.58556e-43
9.33199e-45
5.41055e-46
3.09079e-47
1.73999e-48
9.65525e-50
5.28221e-51
2.84965e-52
1.51626e-53
7.95862e-55
4.12147e-56
2.10615e-57
1.06222e-58
5.28819e-60
2.5992e-61
1.26153e-62
6.04753e-64
2.86399e-65
1.34021e-66
6.19816e-68
2.83345e-69
1.28054e-70
5.72184e-72
2.16076e-27
1.56976e-28
1.12394e-29
7.92488e-31
5.50083e-32
3.75805e-33
2.52679e-34
1.67209e-35
1.0891e-36
6.98278e-38
4.40734e-39
2.73879e-40
1.67583e-41
1.00986e-42
5.99423e-44
3.50535e-45
2.0199e-46
1.14712e-47
6.42156e-49
3.54412e-50
1.92884e-51
1.03536e-52
5.48255e-54
2.86446e-55
1.47685e-56
7.515e-58
3.77466e-59
1.87174e-60
9.16423e-62
4.43101e-63
2.11616e-64
9.98452e-66
4.65518e-67
2.14523e-68
9.77289e-70
4.40206e-71
1.96079e-72
8.63761e-74
5.55646e-26
4.17401e-27
3.08854e-28
2.24933e-29
1.61183e-30
1.13624e-31
7.87905e-33
5.3745e-34
3.60652e-35
2.38104e-36
1.54678e-37
9.88867e-39
6.2226e-40
3.85484e-41
2.35136e-42
1.4125e-43
8.35781e-45
4.87204e-46
2.79854e-47
1.58431e-48
8.84153e-50
4.86498e-51
2.6399e-52
1.41294e-53
7.46035e-55
3.88654e-56
1.99805e-57
1.01383e-58
5.07828e-60
2.51153e-61
1.22661e-62
5.91703e-64
2.81971e-65
1.32765e-66
6.17749e-68
2.84086e-69
1.29135e-70
5.80293e-72
1.59684e-24
1.23977e-25
9.47133e-27
7.11381e-28
5.25188e-29
3.81066e-30
2.71739e-31
1.90457e-32
1.31217e-33
8.88786e-35
5.91957e-36
3.87751e-37
2.49845e-38
1.58392e-39
9.8815e-41
6.06781e-42
3.66818e-43
2.18362e-44
1.28028e-45
7.39488e-47
4.20872e-48
2.36077e-49
1.30538e-50
7.11677e-52
3.82622e-53
2.02896e-54
1.0614e-55
5.47849e-57
2.79065e-58
1.40312e-59
6.96477e-61
3.4137e-62
1.65245e-63
7.90118e-65
3.73239e-66
1.74212e-67
8.03571e-69
3.6634e-70
1.34546e-23
1.08095e-24
8.53188e-26
6.61109e-27
5.02885e-28
3.75533e-29
2.75327e-30
1.98215e-31
1.40152e-32
9.73487e-34
6.64407e-35
4.4567e-36
2.9388e-37
1.9055e-38
1.21516e-39
7.62334e-41
4.70601e-42
2.8593e-43
1.71029e-44
1.00737e-45
5.8441e-47
3.34007e-48
1.88104e-49
1.0441e-50
5.71309e-52
3.08231e-53
1.64e-54
8.60714e-56
4.45666e-57
2.27709e-58
1.1483e-59
5.71636e-61
2.80965e-62
1.36374e-63
6.5378e-65
3.09617e-66
1.4487e-67
6.6981e-69
4.9325e-23
4.08698e-24
3.32164e-25
2.64656e-26
2.06749e-27
1.58389e-28
1.19018e-29
8.77431e-31
6.34811e-32
4.50853e-33
3.14423e-34
2.15382e-35
1.44958e-36
9.58813e-38
6.23448e-39
3.98619e-40
2.50683e-41
1.551e-42
9.44359e-44
5.6599e-45
3.33991e-46
1.94099e-47
1.11116e-48
6.26746e-50
3.48391e-51
1.90895e-52
1.03127e-53
5.49394e-55
2.88685e-56
1.49651e-57
7.65492e-59
3.86446e-60
1.9258e-61
9.47515e-63
4.60356e-64
2.20906e-65
1.04713e-66
4.90388e-68
1.00839e-22
8.53011e-24
7.07144e-25
5.74217e-26
4.56822e-27
3.56166e-28
2.72215e-29
2.04011e-30
1.49975e-31
1.0818e-32
7.65936e-34
5.32466e-35
3.63566e-36
2.43891e-37
1.60788e-38
1.04205e-39
6.64068e-41
4.16249e-42
2.56701e-43
1.55794e-44
9.30762e-46
5.47517e-47
3.17201e-48
1.81031e-49
1.01802e-50
5.64209e-52
3.08248e-53
1.66047e-54
8.82114e-56
4.62242e-57