/*--------------------------------*- C++ -*----------------------------------*\
| =========                 |                                                 |
| \\      /  F ield         | OpenFOAM: The Open Source CFD Toolbox           |
|  \\    /   O peration     | Version:  2.3.1                                 |
|   \\  /    A nd           | Web:      www.OpenFOAM.org                      |
|    \\/     M anipulation  |                                                 |
\*---------------------------------------------------------------------------*/
FoamFile
{
    version     2.0;
    format      ascii;
    class       volScalarField;
    location    "10";
    object      Sed_0;
}
// * * * * * * * * * * * * * * * * * * * * * * * * * * * * * * * * * * * * * //

dimensions      [0 0 0 0 0 0 0];

internalField   nonuniform List<scalar> 
38262
(
3.77941e-29
2.47418e-30
1.60975e-31
1.03783e-32
6.61979e-34
4.17318e-35
2.59833e-36
1.59704e-37
9.68702e-39
5.79728e-40
3.42269e-41
1.99344e-42
1.14536e-43
6.49234e-45
3.63087e-46
2.00354e-47
1.09093e-48
5.86217e-50
3.10904e-51
1.62764e-52
8.41227e-54
4.293e-55
2.16353e-56
1.0769e-57
5.29468e-59
2.57158e-60
1.23396e-61
5.85039e-63
2.74102e-64
1.26925e-65
5.80979e-67
2.62921e-68
1.17655e-69
5.20698e-71
2.27934e-72
9.87027e-74
4.22849e-75
1.79237e-76
1.64031e-27
1.12011e-28
7.57484e-30
5.06347e-31
3.34211e-32
2.17664e-33
1.39812e-34
8.85437e-36
5.52768e-37
3.40136e-38
2.06288e-39
1.23317e-40
7.26667e-42
4.22135e-43
2.41775e-44
1.3654e-45
7.60424e-47
4.17693e-48
2.26324e-49
1.20988e-50
6.38218e-52
3.32265e-53
1.70749e-54
8.66253e-56
4.3391e-57
2.1462e-58
1.04836e-59
5.05794e-61
2.41065e-62
1.13518e-63
5.28264e-65
2.42976e-66
1.10478e-67
4.9666e-69
2.20784e-70
9.70626e-72
4.22036e-73
1.81515e-74
1.72358e-26
1.22867e-27
8.64295e-29
5.99311e-30
4.09427e-31
2.75483e-32
1.82527e-33
1.19079e-34
7.64892e-36
4.83762e-37
3.01278e-38
1.84782e-39
1.11628e-40
6.64296e-42
3.89483e-43
2.25017e-44
1.2812e-45
7.19076e-47
3.97895e-48
2.1711e-49
1.1684e-50
6.20287e-52
3.24901e-53
1.67934e-54
8.56682e-56
4.31376e-57
2.14441e-58
1.05255e-59
5.10194e-61
2.44268e-62
1.15536e-63
5.39959e-65
2.49388e-66
1.1385e-67
5.13811e-69
2.29265e-70
1.01154e-71
4.4135e-73
6.61508e-26
4.89673e-27
3.56734e-28
2.55613e-29
1.80114e-30
1.24798e-31
8.50319e-33
5.69772e-34
3.75502e-35
2.43433e-36
1.55269e-37
9.74581e-39
6.02089e-40
3.66177e-41
2.19273e-42
1.29307e-43
7.51092e-45
4.2983e-46
2.42397e-47
1.34734e-48
7.38322e-50
3.98954e-51
2.12613e-52
1.1177e-53
5.79709e-55
2.967e-56
1.49871e-57
7.47272e-59
3.67857e-60
1.78811e-61
8.58429e-63
4.07084e-64
1.9073e-65
8.83066e-67
4.04093e-68
1.82788e-69
8.17407e-71
3.61415e-72
1.31593e-25
9.97684e-27
7.43415e-28
5.44223e-29
3.91398e-30
2.76554e-31
1.92008e-32
1.3101e-33
8.7866e-35
5.79385e-36
3.75707e-37
2.39645e-38
1.5039e-39
9.28718e-41
5.64485e-42
3.37766e-43
1.99009e-44
1.15485e-45
6.60197e-47
3.71897e-48
2.0648e-49
1.13015e-50
6.09931e-52
3.24636e-53
1.70442e-54
8.82893e-56
4.51301e-57
2.27677e-58
1.1338e-59
5.57432e-61
2.70616e-62
1.29749e-63
6.14513e-65
2.87563e-66
1.32981e-67
6.07823e-69
2.74629e-70
1.22673e-71
1.33713e-26
1.00659e-27
7.44304e-29
5.40465e-30
3.85426e-31
2.69981e-32
1.85795e-33
1.25647e-34
8.35218e-36
5.45877e-37
3.50865e-38
2.21836e-39
1.37993e-40
8.44727e-42
5.08982e-43
3.01939e-44
1.76388e-45
1.01497e-46
5.7542e-48
3.21495e-49
1.77059e-50
9.61388e-52
5.14768e-53
2.71866e-54
1.41653e-55
7.28284e-57
3.69529e-58
1.85067e-59
9.14971e-61
4.46631e-62
2.15297e-63
1.02511e-64
4.82229e-66
2.24166e-67
1.02992e-68
4.67751e-70
2.10016e-71
1.33717e-26
1.00663e-27
7.44353e-29
5.40525e-30
3.85488e-31
2.70038e-32
1.85843e-33
1.25686e-34
8.35529e-36
5.46116e-37
3.5104e-38
2.21956e-39
1.38072e-40
8.4522e-42
5.09282e-43
3.02118e-44
1.76493e-45
1.01557e-46
5.75758e-48
3.21677e-49
1.77153e-50
9.61865e-52
5.15006e-53
2.71985e-54
1.41711e-55
7.28572e-57
3.6967e-58
1.85134e-59
9.15266e-61
4.46747e-62
2.15336e-63
1.02522e-64
4.82235e-66
2.24153e-67
1.02981e-68
4.67693e-70
2.09994e-71
9.96861e-27
7.42668e-28
5.43762e-29
3.91156e-30
2.76454e-31
1.91983e-32
1.31021e-33
8.78928e-35
5.79702e-36
3.76005e-37
2.3989e-38
1.50571e-39
9.2996e-41
5.65286e-42
3.38263e-43
1.99311e-44
1.15664e-45
6.61238e-47
3.72483e-48
2.06798e-49
1.13181e-50
6.1077e-52
3.25055e-53
1.7065e-54
8.83918e-56
4.51805e-57
2.27923e-58
1.13497e-59
5.57943e-61
2.70817e-62
1.29815e-63
6.14672e-65
2.87564e-66
1.32953e-67
6.076e-69
2.74515e-70
1.22628e-71
5.41101e-73
4.88996e-27
3.56169e-28
2.55254e-29
1.79912e-30
1.247e-31
8.49924e-33
5.69677e-34
3.75558e-35
2.43557e-36
1.55408e-37
9.75823e-39
6.0305e-40
3.66848e-41
2.19709e-42
1.29578e-43
7.52735e-45
4.30805e-46
2.42962e-47
1.35052e-48
7.40038e-50
3.99847e-51
2.13064e-52
1.11994e-53
5.80811e-55
2.97239e-56
1.50134e-57
7.48547e-59
3.68452e-60
1.7907e-61
8.59432e-63
4.07409e-64
1.90801e-65
8.83021e-67
4.03926e-68
1.82666e-69
8.16785e-71
3.61162e-72
1.57924e-73
1.22645e-27
8.62546e-29
5.98204e-30
4.08793e-31
2.75155e-32
1.82376e-33
1.19022e-34
7.64818e-36
4.83932e-37
3.01535e-38
1.85035e-39
1.11831e-40
6.65745e-42
3.90431e-43
2.25605e-44
1.28473e-45
7.21147e-47
3.99082e-48
2.1777e-49
1.17194e-50
6.22106e-52
3.25809e-53
1.68378e-54
8.58831e-56
4.32412e-57
2.14939e-58
1.05491e-59
5.11271e-61
2.44727e-62
1.1571e-63
5.40501e-65
2.49494e-66
1.13833e-67
5.13478e-69
2.29036e-70
1.01037e-71
4.40865e-73
1.90292e-74
1.11766e-28
7.55629e-30
5.05179e-31
3.33527e-32
2.1729e-33
1.39621e-34
8.84557e-36
5.52454e-37
3.40116e-38
2.06397e-39
1.23458e-40
7.2792e-42
4.23064e-43
2.42394e-44
1.36926e-45
7.62723e-47
4.19028e-48
2.27081e-49
1.21405e-50
6.40433e-52
3.33395e-53
1.71305e-54
8.68933e-56
4.35189e-57
2.1523e-58
1.05125e-59
5.07147e-61
2.41673e-62
1.13774e-63
5.29223e-65
2.43272e-66
1.10534e-67
4.9655e-69
2.20595e-70
9.69338e-72
4.21379e-73
1.81232e-74
7.71283e-76
2.46812e-30
1.60525e-31
1.03496e-32
6.60246e-34
4.16328e-35
2.593e-36
1.59438e-37
9.67524e-39
5.79336e-40
3.42253e-41
1.99471e-42
1.14687e-43
6.50489e-45
3.63971e-46
2.00919e-47
1.09434e-48
5.88186e-50
3.12009e-51
1.63366e-52
8.44402e-54
4.3091e-55
2.1714e-56
1.08064e-57
5.31217e-59
2.57971e-60
1.23771e-61
5.86747e-63
2.74856e-64
1.2724e-65
5.82176e-67
2.63308e-68
1.17743e-69
5.20679e-71
2.27758e-72
9.85685e-74
4.22121e-75
1.78906e-76
7.50509e-78
5.33091e-28
3.62058e-29
2.43759e-30
1.6232e-31
1.06778e-32
6.93336e-34
4.44143e-35
2.80587e-36
1.74774e-37
1.07322e-38
6.49654e-40
3.8767e-41
2.28063e-42
1.32281e-43
7.56532e-45
4.26668e-46
2.3732e-47
1.30202e-48
7.04694e-50
3.76313e-51
1.98305e-52
1.03141e-53
5.29544e-55
2.68419e-56
1.34343e-57
6.63979e-59
3.24104e-60
1.56264e-61
7.44298e-63
3.50282e-64
1.6291e-65
7.4888e-67
3.40316e-68
1.52908e-69
6.79376e-71
2.98523e-72
1.29739e-73
5.5776e-75
1.97219e-26
1.39253e-27
9.72266e-29
6.70101e-30
4.55495e-31
3.05185e-32
2.01475e-33
1.31029e-34
8.39349e-36
5.29578e-37
3.29106e-38
2.01462e-39
1.21492e-40
7.21861e-42
4.22633e-43
2.43857e-44
1.38687e-45
7.77564e-47
4.29845e-48
2.34336e-49
1.26008e-50
6.68451e-52
3.49888e-53
1.80734e-54
9.2144e-56
4.63729e-57
2.30405e-58
1.13036e-59
5.47664e-61
2.62097e-62
1.2392e-63
5.78932e-65
2.673e-66
1.2199e-67
5.50384e-69
2.45514e-70
1.08293e-71
4.72384e-73
1.90508e-25
1.4011e-26
1.01583e-27
7.25281e-29
5.09714e-30
3.52506e-31
2.39866e-32
1.6059e-33
1.05785e-34
6.85674e-36
4.37368e-37
2.74584e-38
1.69698e-39
1.03256e-40
6.18688e-42
3.65103e-43
2.12242e-44
1.21564e-45
6.86166e-47
3.81759e-48
2.094e-49
1.1326e-50
6.0419e-52
3.17939e-53
1.65066e-54
8.45645e-56
4.27565e-57
2.1339e-58
1.05144e-59
5.11577e-61
2.45831e-62
1.16692e-63
5.47269e-65
2.53625e-66
1.16167e-67
5.25939e-69
2.35396e-70
1.04167e-71
7.14445e-25
5.44773e-26
4.08501e-27
3.01037e-28
2.17988e-29
1.55104e-30
1.08446e-31
7.45174e-33
5.03296e-34
3.34187e-35
2.18197e-36
1.40117e-37
8.85148e-39
5.50185e-40
3.36556e-41
2.02654e-42
1.20143e-43
7.01443e-45
4.03398e-46
2.28573e-47
1.27634e-48
7.02509e-50
3.81216e-51
2.03991e-52
1.0766e-53
5.60508e-55
2.87921e-56
1.4595e-57
7.3022e-59
3.60666e-60
1.75889e-61
8.47095e-63
4.02969e-64
1.89383e-65
8.79453e-67
4.03605e-68
1.83076e-69
8.20898e-71
1.42442e-24
1.11164e-25
8.52048e-27
6.41114e-28
4.73572e-29
3.4344e-30
2.44566e-31
1.71044e-32
1.17514e-33
7.93329e-35
5.26393e-36
3.43377e-37
2.20262e-38
1.38968e-39
8.62575e-41
5.26848e-42
3.16729e-43
1.87461e-44
1.0926e-45
6.2726e-47
3.54795e-48
1.97766e-49
1.08658e-50
5.8857e-52
3.14381e-53
1.65626e-54
8.60785e-56
4.41401e-57
2.23369e-58
1.11567e-59
5.50117e-61
2.6783e-62
1.28777e-63
6.11623e-65
2.86996e-66
1.33073e-67
6.09803e-69
2.76204e-70
1.49786e-25
1.15952e-26
8.81067e-28
6.5696e-29
4.80756e-30
3.45336e-31
2.43551e-32
1.68691e-33
1.14782e-34
7.67467e-36
5.04391e-37
3.25914e-38
2.07096e-39
1.29442e-40
7.96019e-42
4.81754e-43
2.87006e-44
1.68355e-45
9.72632e-47
5.53562e-48
3.10444e-49
1.7159e-50
9.3495e-52
5.02313e-53
2.66162e-54
1.3912e-55
7.17431e-57
3.65082e-58
1.83354e-59
9.0899e-61
4.44916e-62
2.15051e-63
1.0267e-64
4.84257e-66
2.25691e-67
1.03951e-68
4.73233e-70
1.49809e-25
1.15967e-26
8.81186e-28
6.57064e-29
4.80848e-30
3.45414e-31
2.43615e-32
1.68741e-33
1.14821e-34
7.67767e-36
5.04609e-37
3.26066e-38
2.07196e-39
1.29507e-40
7.9642e-42
4.81998e-43
2.87151e-44
1.68441e-45
9.73119e-47
5.53831e-48
3.10586e-49
1.71664e-50
9.35329e-52
5.02506e-53
2.66259e-54
1.39168e-55
7.1767e-57
3.65196e-58
1.83406e-59
9.09199e-61
4.44991e-62
2.15073e-63
1.02674e-64
4.84247e-66
2.25678e-67
1.03944e-68
4.73206e-70
1.11111e-25
8.51397e-27
6.40711e-28
4.73361e-29
3.4336e-30
2.44559e-31
1.71071e-32
1.17554e-33
7.93744e-35
5.26767e-36
3.43681e-37
2.2049e-38
1.39127e-39
8.6362e-41
5.27512e-42
3.1714e-43
1.8771e-44
1.09408e-45
6.28108e-47
3.55265e-48
1.98017e-49
1.08788e-50
5.89239e-52
3.14721e-53
1.65796e-54
8.61635e-56
4.4182e-57
2.23568e-58
1.11656e-59
5.50475e-61
2.67955e-62
1.28811e-63
6.11662e-65
2.86966e-66
1.33043e-67
6.09642e-69
2.76143e-70
1.23498e-71
5.44251e-26
4.07986e-27
3.00705e-28
2.178e-29
1.55014e-30
1.08414e-31
7.45149e-33
5.0341e-34
3.34358e-35
2.18374e-36
1.40273e-37
8.8636e-39
5.51046e-40
3.37129e-41
2.03019e-42
1.20369e-43
7.02813e-45
4.04209e-46
2.29037e-47
1.2789e-48
7.03877e-50
3.81926e-51
2.04352e-52
1.07842e-53
5.61417e-55
2.88371e-56
1.4617e-57
7.31255e-59
3.61122e-60
1.7607e-61
8.47712e-63
4.03126e-64
1.89392e-65
8.79245e-67
4.03429e-68
1.82981e-69
8.20517e-71
3.63753e-72
1.39921e-26
1.01414e-27
7.24196e-29
5.09085e-30
3.52182e-31
2.39721e-32
1.60542e-33
1.05787e-34
6.85934e-36
4.37709e-37
2.74911e-38
1.69962e-39
1.03448e-40
6.19968e-42
3.65916e-43
2.12742e-44
1.21865e-45
6.87925e-47
3.82757e-48
2.09946e-49
1.13548e-50
6.05667e-52
3.18679e-53
1.65434e-54
8.47457e-56
4.28451e-57
2.13816e-58
1.0534e-59
5.12427e-61
2.46162e-62
1.16801e-63
5.4752e-65
2.53622e-66
1.16118e-67
5.25565e-69
2.35198e-70
1.04084e-71
4.55528e-73
1.39011e-27
9.70254e-29
6.68814e-30
4.54735e-31
3.0477e-32
2.01266e-33
1.30935e-34
8.39052e-36
5.29618e-37
3.29293e-38
2.0168e-39
1.21681e-40
7.23268e-42
4.23583e-43
2.44459e-44
1.39054e-45
7.79741e-47
4.31105e-48
2.35043e-49
1.26391e-50
6.70449e-52
3.50895e-53
1.81231e-54
9.23872e-56
4.64915e-57
2.3098e-58
1.1331e-59
5.48912e-61
2.62629e-62
1.24123e-63
5.7958e-65
2.67435e-66
1.21976e-67
5.50022e-69
2.45256e-70
1.08159e-71
4.71805e-73
2.03595e-74
3.61288e-29
2.43158e-30
1.61935e-31
1.06546e-32
6.92019e-34
4.43439e-35
2.8024e-36
1.74629e-37
1.07285e-38
6.49797e-40
3.87989e-41
2.28384e-42
1.32534e-43
7.5829e-45
4.27792e-46
2.38003e-47
1.30603e-48
7.06982e-50
3.7758e-51
1.98983e-52
1.03489e-53
5.31276e-55
2.69258e-56
1.34744e-57
6.65891e-59
3.25008e-60
1.56685e-61
7.46186e-63
3.51078e-64
1.63214e-65
7.49853e-67
3.40528e-68
1.52894e-69
6.78879e-71
2.98157e-72
1.29545e-73
5.56889e-75
2.36889e-76
3.24037e-27
2.27139e-28
1.57497e-29
1.07845e-30
7.28589e-32
4.85347e-33
3.18673e-34
2.06184e-35
1.31437e-36
8.25479e-38
5.10757e-39
3.11363e-40
1.87026e-41
1.10705e-42
6.45827e-44
3.71365e-45
2.10514e-46
1.17659e-47
6.48484e-49
3.52517e-50
1.89035e-51
1.00015e-52
5.22182e-54
2.69078e-55
1.36865e-56
6.87264e-58
3.40742e-59
1.66825e-60
8.06684e-62
3.85323e-63
1.81845e-64
8.48031e-66
3.90867e-67
1.78083e-68
8.02156e-70
3.57265e-71
1.5735e-72
6.8539e-74
1.08515e-25
7.88877e-27
5.66296e-28
4.00818e-29
2.79518e-30
1.91969e-31
1.29806e-32
8.64059e-34
5.66175e-35
3.6519e-36
2.31885e-37
1.44963e-38
8.9233e-40
5.40931e-41
3.22977e-42
1.89968e-43
1.10089e-44
6.287e-46
3.5388e-47
1.96366e-48
1.07439e-49
5.79724e-51
3.08553e-52
1.62016e-53
8.39414e-55
4.29188e-56
2.1659e-57
1.079e-58
5.30725e-60
2.57791e-61
1.23678e-62
5.86172e-64
2.74499e-65
1.27032e-66
5.81038e-68
2.62711e-69
1.17432e-70
5.19016e-72
9.80082e-25
7.40647e-26
5.51275e-27
4.03728e-28
2.90814e-29
2.05995e-30
1.43475e-31
9.82609e-33
6.61756e-34
4.38305e-35
2.85548e-36
1.8301e-37
1.15411e-38
7.16257e-40
4.3755e-41
2.63152e-42
1.55846e-43
9.09047e-45
5.22363e-46
2.95766e-47
1.65047e-48
9.07903e-50
4.92418e-51
2.63375e-52
1.38943e-53
7.23104e-55
3.71314e-56
1.88163e-57
9.41163e-59
4.64742e-60
2.26599e-61
1.09114e-62
5.18996e-64
2.43883e-65
1.13241e-66
5.19635e-68
2.35681e-69
1.05667e-70
3.60561e-24
2.82067e-25
2.16859e-26
1.63741e-27
1.21412e-28
8.84067e-30
6.3222e-31
4.44093e-32
3.06468e-33
2.07823e-34
1.38515e-35
9.07609e-37
5.84787e-38
3.7059e-39
2.31038e-40
1.41731e-41
8.55749e-43
5.08661e-44
2.97727e-45
1.7164e-46
9.74832e-48
5.45575e-49
3.00944e-50
1.63649e-51
8.77462e-53
4.63996e-54
2.42023e-55
1.24548e-56
6.32467e-58
3.16989e-59
1.56833e-60
7.66125e-62
3.69585e-63
1.76102e-64
8.28943e-66
3.85538e-67
1.77198e-68
8.04928e-70
7.20648e-24
5.76595e-25
4.52848e-26
3.48931e-27
2.63789e-28
1.95685e-29
1.42466e-30
1.01815e-31
7.14462e-33
4.92411e-34
3.33411e-35
2.21847e-36
1.45097e-37
9.33061e-39
5.90081e-40
3.6709e-41
2.247e-42
1.35368e-43
8.02827e-45
4.68846e-46
2.69681e-47
1.52821e-48
8.53358e-50
4.69665e-51
2.54829e-52
1.36336e-53
7.19376e-55
3.74432e-56
1.92284e-57
9.74425e-59
4.87382e-60
2.40653e-61
1.17327e-62
5.64912e-64
2.68669e-65
1.26236e-66
5.86077e-68
2.68897e-69
7.809e-25
6.19233e-26
4.81745e-27
3.67563e-28
2.75087e-29
2.01988e-30
1.45546e-31
1.02949e-32
7.15029e-34
4.87798e-35
3.26962e-36
2.15383e-37
1.39476e-38
8.88122e-40
5.56218e-41
3.42713e-42
2.07799e-43
1.24022e-44
7.28797e-46
4.21775e-47
2.40452e-48
1.35066e-49
7.47716e-51
4.08037e-52
2.19549e-53
1.16499e-54
6.09761e-56
3.14862e-57
1.6043e-58
8.0674e-60
4.00453e-61
1.96258e-62
9.49847e-64
4.54061e-65
2.14432e-66
1.00059e-67
4.61391e-69
7.81101e-25
6.19368e-26
4.8184e-27
3.67635e-28
2.75145e-29
2.02034e-30
1.45582e-31
1.02977e-32
7.15247e-34
4.87961e-35
3.2708e-36
2.15466e-37
1.39532e-38
8.88488e-40
5.5645e-41
3.42857e-42
2.07887e-43
1.24074e-44
7.29101e-46
4.21947e-47
2.40545e-48
1.35116e-49
7.47979e-51
4.08174e-52
2.19619e-53
1.16535e-54
6.09937e-56
3.14947e-57
1.60469e-58
8.06904e-60
4.00516e-61
1.96279e-62
9.499e-64
4.54067e-65
2.14429e-66
1.00056e-67
4.61382e-69
5.76507e-25
4.52599e-26
3.48777e-27
2.63708e-28
1.95655e-29
1.42468e-30
1.01833e-31
7.14687e-33
4.92635e-34
3.33609e-35
2.22007e-36
1.45219e-37
9.33923e-39
5.90663e-40
3.67469e-41
2.24941e-42
1.35517e-43
8.03726e-45
4.69373e-46
2.6998e-47
1.52986e-48
8.5424e-50
4.70128e-51
2.5507e-52
1.36459e-53
7.19999e-55
3.74742e-56
1.92433e-57
9.75099e-59
4.87664e-60
2.40758e-61
1.17361e-62
5.64986e-64
2.68669e-65
1.26225e-66
5.86002e-68
2.68871e-69
1.21761e-70
2.81906e-25
2.16647e-26
1.63602e-27
1.2133e-28
8.8367e-30
6.32084e-31
4.44096e-32
3.06535e-33
2.07914e-34
1.38608e-35
9.08418e-37
5.85427e-38
3.71056e-39
2.31357e-40
1.41941e-41
8.57081e-43
5.09487e-44
2.98226e-45
1.71932e-46
9.76488e-48
5.46483e-49
3.01428e-50
1.63902e-51
8.78767e-53
4.64661e-54
2.42357e-55
1.24713e-56
6.3325e-58
3.1734e-59
1.56977e-60
7.66651e-62
3.69741e-63
1.7613e-64
8.2889e-66
3.85452e-67
1.77145e-68
8.04714e-70
3.61321e-71
7.39957e-26
5.5054e-27
4.03243e-28
2.90524e-29
2.05842e-30
1.43406e-31
9.82387e-33
6.61777e-34
4.38442e-35
2.85725e-36
1.83181e-37
1.15552e-38
7.17312e-40
4.38279e-41
2.6363e-42
1.56148e-43
9.10908e-45
5.23479e-46
2.96414e-47
1.6541e-48
9.09876e-50
4.93458e-51
2.63911e-52
1.39216e-53
7.2448e-55
3.71998e-56
1.88497e-57
9.42724e-59
4.6543e-60
2.26876e-61
1.09212e-62
5.19264e-64
2.43916e-65
1.13219e-66
5.19409e-68
2.35549e-69
1.0561e-70
4.68188e-72
7.87828e-27
5.65327e-28
4.00181e-29
2.79132e-30
1.91754e-31
1.29697e-32
8.63566e-34
5.66019e-35
3.65214e-36
2.31991e-37
1.45088e-38
8.93443e-40
5.41783e-41
3.23569e-42
1.90355e-43
1.10332e-44
6.30177e-46
3.54756e-47
1.9687e-48
1.07718e-49
5.81217e-51
3.09327e-52
1.62409e-53
8.41389e-55
4.30173e-56
2.17077e-57
1.08135e-58
5.31818e-60
2.58266e-61
1.23865e-62
5.868e-64
2.74652e-65
1.27036e-66
5.80793e-68
2.62511e-69
1.17321e-70
5.18531e-72
2.26666e-73
2.26729e-28
1.57163e-29
1.07626e-30
7.27249e-32
4.84579e-33
3.18256e-34
2.05975e-35
1.31348e-36
8.25254e-38
5.10857e-39
3.1158e-40
1.87247e-41
1.10883e-42
6.47083e-44
3.72187e-45
2.11026e-46
1.17967e-47
6.50287e-49
3.53539e-50
1.89594e-51
1.00309e-52
5.23681e-54
2.69824e-55
1.37233e-56
6.89061e-58
3.41614e-59
1.6724e-60
8.0858e-62
3.86136e-63
1.82162e-64
8.4908e-66
3.91116e-67
1.78085e-68
8.01709e-70
3.5691e-71
1.57154e-72
6.84509e-74
2.94964e-75
1.17097e-26
8.43309e-28
5.9975e-29
4.20661e-30
2.90791e-31
1.98029e-32
1.3282e-33
8.77262e-35
5.70549e-36
3.65382e-37
2.30415e-38
1.43093e-39
8.75235e-41
5.27334e-42
3.13013e-43
1.8307e-44
1.05516e-45
5.9943e-47
3.35704e-48
1.85375e-49
1.00949e-50
5.42239e-52
2.87341e-53
1.50243e-54
7.75248e-56
3.94821e-57
1.98488e-58
9.85177e-60
4.8285e-61
2.33724e-62
1.11755e-63
5.27931e-65
2.46441e-66
1.13696e-67
5.1849e-69
2.33751e-70
1.04192e-71
4.59245e-73
3.61544e-25
2.69637e-26
1.98308e-27
1.43649e-28
1.02431e-29
7.18764e-31
4.96234e-32
3.37058e-33
2.2524e-34
1.48093e-35
9.58108e-37
6.10013e-38
3.82275e-39
2.35827e-40
1.43241e-41
8.56788e-43
5.04769e-44
2.92961e-45
1.67538e-46
9.44257e-48
5.246e-49
2.87354e-50
1.55217e-51
8.26946e-53
4.3461e-54
2.2536e-55
1.15314e-56
5.82361e-58
2.90325e-59
1.42903e-60
6.94609e-62
3.33475e-63
1.58157e-64
7.41117e-66
3.43185e-67
1.57063e-68
7.10532e-70
3.17768e-71
3.13381e-24
2.42512e-25
1.84675e-26
1.3826e-27
1.01738e-28
7.35716e-30
5.2284e-31
3.65159e-32
2.50669e-33
1.69157e-34
1.12234e-35
7.32292e-37
4.69957e-38
2.96711e-39
1.84332e-40
1.12708e-41
6.78396e-43
4.02059e-44
2.34677e-45
1.34934e-46
7.6444e-48
4.26803e-49
2.34891e-50
1.27452e-51
6.81949e-53
3.59885e-54
1.87354e-55
9.62346e-57
4.87811e-58
2.44066e-59
1.20554e-60
5.87969e-62
2.83209e-63
1.34746e-64
6.33363e-66
2.94162e-67
1.35015e-68
6.12493e-70
1.14268e-23
9.14085e-25
7.18141e-26
5.53747e-27
4.19068e-28
3.11285e-29
2.26976e-30
1.6249e-31
1.14234e-32
7.88841e-34
5.35203e-35
3.56855e-36
2.33892e-37
1.50729e-38
9.55306e-40
5.95603e-41
3.65383e-42
2.2061e-43
1.31129e-44
7.67483e-46
4.42431e-47
2.51263e-48
1.4061e-49
7.75541e-51
4.21681e-52
2.2607e-53
1.19528e-54
6.23382e-56
3.20758e-57
1.62865e-58
8.16184e-60
4.03779e-61
1.97231e-62
9.5141e-64
4.5331e-65
2.1337e-66
9.92312e-68
4.56041e-69
2.29592e-23
1.87716e-24
1.5057e-25
1.18421e-26
9.13313e-28
6.90861e-29
5.12654e-30
3.73271e-31
2.66756e-32
1.87164e-33
1.28966e-34
8.72981e-36
5.80668e-37
3.79631e-38
2.44019e-39
1.5425e-40
9.5914e-42
5.86828e-43
3.53366e-44
2.09476e-45
1.22279e-46
7.03045e-48
3.98225e-49
2.22274e-50
1.22281e-51
6.63192e-53
3.54664e-54
1.87061e-55
9.73243e-57
4.99597e-58
2.53082e-59
1.26541e-60
6.24625e-62
3.04443e-63
1.46546e-64
6.96788e-66
3.27309e-67
1.51918e-68
2.55645e-24
2.06982e-25
1.64332e-26
1.27892e-27
9.75859e-29
7.30233e-30
5.36021e-31
3.86082e-32
2.72957e-33
1.89482e-34
1.29192e-35
8.65414e-37
5.69714e-38
3.68683e-39
2.34603e-40
1.4683e-41
9.04097e-43
5.47837e-44
3.26767e-45
1.91907e-46
1.10997e-47
6.32429e-49
3.55049e-50
1.96447e-51
1.07147e-52
5.76213e-54
3.05596e-55
1.59867e-56
8.25085e-58
4.20198e-59
2.11208e-60
1.04799e-61
5.13426e-63
2.48406e-64
1.1871e-65
5.60439e-67
2.61427e-68
2.55729e-24
2.07039e-25
1.64373e-26
1.27921e-27
9.76082e-29
7.30406e-30
5.36155e-31
3.86184e-32
2.73035e-33
1.89539e-34
1.29233e-35
8.65706e-37
5.69912e-38
3.68814e-39
2.34687e-40
1.46883e-41
9.04423e-43
5.48034e-44
3.26884e-45
1.91973e-46
1.11035e-47
6.32633e-49
3.55159e-50
1.96505e-51
1.07177e-52
5.76367e-54
3.05673e-55
1.59904e-56
8.2526e-58
4.20274e-59
2.11238e-60
1.04809e-61
5.13459e-63
2.48414e-64
1.18711e-65
5.60442e-67
2.6143e-68
1.87731e-24
1.50509e-25
1.18384e-26
9.13137e-28
6.9081e-29
5.12686e-30
3.73344e-31
2.66841e-32
1.87245e-33
1.29036e-34
8.73538e-36
5.81088e-37
3.79932e-38
2.44225e-39
1.54386e-40
9.6002e-42
5.87382e-43
3.53705e-44
2.09679e-45
1.22396e-46
7.03703e-48
3.98586e-49
2.22468e-50
1.22384e-51
6.63725e-53
3.54937e-54
1.87197e-55
9.73904e-57
4.999e-58
2.53212e-59
1.26592e-60
6.24797e-62
3.04491e-63
1.46555e-64
6.96781e-66
3.27297e-67
1.51917e-68
6.95784e-70
9.13815e-25
7.17585e-26
5.5338e-27
4.18854e-28
3.11181e-29
2.26945e-30
1.625e-31
1.14262e-32
7.89181e-34
5.3553e-35
3.57135e-36
2.34114e-37
1.50892e-38
9.56443e-40
5.96363e-41
3.65876e-42
2.20921e-43
1.31319e-44
7.68619e-46
4.43087e-47
2.5163e-48
1.4081e-49
7.7661e-51
4.22242e-52
2.26361e-53
1.19676e-54
6.24117e-56
3.2111e-57
1.63024e-58
8.16853e-60
4.04031e-61
1.97312e-62
9.51601e-64
4.53321e-65
2.13348e-66
9.92155e-68
4.55984e-69
2.07097e-70
2.42357e-25
1.84473e-26
1.38124e-27
1.01656e-28
7.35281e-30
5.22653e-31
3.65112e-32
2.50693e-33
1.69213e-34
1.12299e-35
7.329e-37
4.70459e-38
2.97089e-39
1.84598e-40
1.12885e-41
6.79542e-43
4.02778e-44
2.35115e-45
1.35193e-46
7.65921e-48
4.27623e-49
2.35332e-50
1.27685e-51
6.83157e-53
3.60504e-54
1.87666e-55
9.6388e-57
4.88536e-58
2.44389e-59
1.20686e-60
5.88447e-62
2.83349e-63
1.34771e-64
6.33308e-66
2.94079e-67
1.34964e-68
6.12275e-70
2.74591e-71
2.69355e-26
1.98021e-27
1.43458e-28
1.02314e-29
7.18114e-31
4.9591e-32
3.36923e-33
2.25209e-34
1.48116e-35
9.58561e-37
6.10505e-38
3.82703e-39
2.36156e-40
1.43473e-41
8.58334e-43
5.05759e-44
2.93576e-45
1.67909e-46
9.46422e-48
5.25822e-49
2.88019e-50
1.55569e-51
8.2877e-53
4.35545e-54
2.25835e-55
1.15552e-56
5.8352e-58
2.90866e-59
1.43139e-60
6.95545e-62
3.33793e-63
1.58237e-64
7.4116e-66
3.43072e-67
1.56968e-68
7.10001e-70
3.17538e-71
1.40432e-72
8.41915e-28
5.98591e-29
4.19904e-30
2.90333e-31
1.97771e-32
1.32682e-33
8.76573e-35
5.7027e-36
3.65332e-37
2.30476e-38
1.43193e-39
8.76202e-41
5.28104e-42
3.13561e-43
1.83433e-44
1.05747e-45
6.00846e-47
3.36547e-48
1.85861e-49
1.01219e-50
5.43686e-52
2.88093e-53
1.50625e-54
7.77169e-56
3.9578e-57
1.98961e-58
9.87454e-60
4.83899e-61
2.34176e-62
1.11931e-63
5.28515e-65
2.46579e-66
1.13696e-67
5.18228e-69
2.33546e-70
1.0408e-71
4.58746e-73
2e-74
2.9241e-26
2.15451e-27
1.56549e-28
1.12061e-29
7.89866e-31
5.48052e-32
3.74275e-33
2.51555e-34
1.66399e-35
1.08334e-36
6.94243e-38
4.37972e-39
2.72039e-40
1.66396e-41
1.0024e-42
5.94828e-44
3.47751e-45
2.00332e-46
1.13742e-47
6.366e-49
3.51291e-50
1.91165e-51
1.02607e-52
5.4331e-54
2.83846e-55
1.46336e-56
7.44587e-58
3.73985e-59
1.85456e-60
9.08139e-62
4.39205e-63
2.09827e-64
9.90412e-66
4.61957e-67
2.12953e-68
9.70335e-70
4.37093e-71
1.94665e-72
8.60093e-25
6.55561e-26
4.92168e-27
3.63577e-28
2.64183e-29
1.88774e-30
1.32638e-31
9.16408e-33
6.2263e-34
4.16048e-35
2.73454e-36
1.76816e-37
1.12494e-38
7.04342e-40
4.34079e-41
2.63371e-42
1.5735e-43
9.25887e-45
5.36701e-46
3.06537e-47
1.72544e-48
9.57358e-50
5.23717e-51
2.82519e-52
1.50315e-53
7.88928e-55
4.08533e-56
2.08761e-57
1.05291e-58
5.24234e-60
2.57714e-61
1.25114e-62
5.99948e-64
2.84205e-65
1.33024e-66
6.15275e-68
2.81264e-69
1.27093e-70
7.29729e-24
5.76253e-25
4.47414e-26
3.41266e-27
2.5568e-28
1.8815e-29
1.35995e-30
9.65608e-32
6.73607e-33
4.61766e-34
3.11124e-35
2.06079e-36
1.34221e-37
8.59777e-39
5.41787e-40
3.35929e-41
2.04995e-42
1.23145e-43
7.28396e-45
4.24326e-46
2.43506e-47
1.37689e-48
7.67287e-50
4.21482e-51
2.2827e-52
1.21913e-53
6.42198e-55
3.33725e-56
1.71118e-57
8.65913e-59
4.32521e-60
2.13293e-61
1.03863e-62
4.99509e-64
2.37297e-65
1.11373e-66
5.16505e-68
2.36719e-69
2.65939e-23
2.16819e-24
1.73496e-25
1.36177e-26
1.04848e-27
7.91983e-29
5.87003e-30
4.26995e-31
3.04909e-32
2.13796e-33
1.47242e-34
9.96281e-36
6.6247e-37
4.3301e-38
2.78285e-39
1.75894e-40
1.0937e-41
6.6917e-43
4.02979e-44
2.38914e-45
1.39484e-46
8.02104e-48
4.54426e-49
2.53699e-50
1.39602e-51
7.57312e-53
4.05096e-54
2.13712e-55
1.11219e-56
5.71073e-58
2.89371e-59
1.44729e-60
7.14616e-62
3.4841e-63
1.67759e-64
7.97873e-66
3.7489e-67
1.74045e-68
5.38449e-23
4.48416e-24
3.66159e-25
2.93011e-26
2.29822e-27
1.76724e-28
1.3326e-29
9.85643e-31
7.1529e-32
5.09479e-33
3.5628e-34
2.44686e-35
1.65086e-36
1.09451e-37
7.13271e-39
4.57022e-40
2.87996e-41
1.78533e-42
1.08906e-43
6.53885e-45
3.86524e-46
2.25001e-47
1.29013e-48
7.28818e-50
4.05738e-51
2.22643e-52
1.20449e-53
6.42566e-55
3.38099e-56
1.75497e-57
8.98839e-59
4.54325e-60
2.26679e-61
1.1166e-62
5.43134e-64
2.60927e-65
1.23824e-66
5.80539e-68
6.14311e-24
5.06214e-25
4.08867e-26
3.23566e-27
2.5095e-28
1.90803e-29
1.4226e-30
1.04044e-31
7.46686e-33
5.26006e-34
3.63847e-35
2.47206e-36
1.65021e-37
1.08265e-38
6.98279e-40
4.42877e-41
2.76294e-42
1.69595e-43
1.02453e-44
6.09288e-46
3.5679e-47
2.05781e-48
1.16923e-49
6.54643e-51
3.61255e-52
1.96529e-53
1.05422e-54
5.57726e-56
2.91059e-57
1.49865e-58
7.61493e-60
3.81914e-61
1.89097e-62
9.24505e-64
4.46393e-65
2.12905e-66
1.00318e-67
6.14545e-24
5.06375e-25
4.08981e-26
3.23648e-27
2.51011e-28
1.90849e-29
1.42296e-30
1.04071e-31
7.46889e-33
5.26155e-34
3.63954e-35
2.47281e-36
1.65073e-37
1.08299e-38
6.985e-40
4.43017e-41
2.76382e-42
1.69649e-43
1.02485e-44
6.09474e-46
3.56896e-47
2.0584e-48
1.16955e-49
6.54815e-51
3.61346e-52
1.96576e-53
1.05446e-54
5.57842e-56
2.91114e-57
1.49889e-58
7.6159e-60
3.8195e-61
1.8911e-62
9.24546e-64
4.46406e-65
2.1291e-66
1.00321e-67
4.48528e-24
3.66051e-25
2.92948e-26
2.29797e-27
1.76723e-28
1.33274e-29
9.85857e-31
7.15523e-32
5.09695e-33
3.56462e-34
2.4483e-35
1.65194e-36
1.09528e-37
7.13808e-39
4.57381e-40
2.8823e-41
1.78683e-42
1.08999e-43
6.54444e-45
3.86852e-46
2.25188e-47
1.29117e-48
7.29388e-50
4.06044e-51
2.22804e-52
1.20532e-53
6.42987e-55
3.38304e-56
1.75592e-57
8.99249e-59
4.54488e-60
2.26737e-61
1.11678e-62
5.4318e-64
2.60936e-65
1.23826e-66
5.8057e-68
2.68542e-69
2.16798e-24
1.73387e-25
1.36105e-26
1.04807e-27
7.91792e-29
5.86963e-30
4.27042e-31
3.04994e-32
2.1389e-33
1.47329e-34
9.9701e-36
6.63041e-37
4.33432e-38
2.78582e-39
1.76095e-40
1.09502e-41
6.70015e-43
4.03504e-44
2.39232e-45
1.39669e-46
8.0316e-48
4.55012e-49
2.54017e-50
1.39772e-51
7.58201e-53
4.05552e-54
2.1394e-55
1.11328e-56
5.71572e-58
2.89583e-59
1.4481e-60
7.14886e-62
3.48482e-63
1.6777e-64
7.97846e-66
3.74863e-67
1.74039e-68
7.98376e-70
5.76006e-25
4.47e-26
3.40988e-27
2.55512e-28
1.88062e-29
1.3596e-30
9.65567e-32
6.73717e-33
4.61936e-34
3.11304e-35
2.06242e-36
1.34353e-37
8.60775e-39
5.42495e-40
3.36409e-41
2.05309e-42
1.23345e-43
7.29632e-45
4.25066e-46
2.43935e-47
1.3793e-48
7.68606e-50
4.22188e-51
2.28642e-52
1.22106e-53
6.43181e-55
3.34211e-56
1.71348e-57
8.66941e-59
4.32943e-60
2.13447e-61
1.0391e-62
4.99599e-64
2.37286e-65
1.11351e-66
5.16363e-68
2.36663e-69
1.07214e-70
6.54986e-26
4.91536e-27
3.63157e-28
2.63928e-29
1.88636e-30
1.32575e-31
9.1619e-33
6.22636e-34
4.16159e-35
2.73602e-36
1.76961e-37
1.12615e-38
7.05268e-40
4.34736e-41
2.63814e-42
1.57638e-43
9.27699e-45
5.37808e-46
3.07191e-47
1.72917e-48
9.59419e-50
5.24823e-51
2.83101e-52
1.50618e-53
7.90482e-55
4.09316e-56
2.09145e-57
1.05469e-58
5.25011e-60
2.5802e-61
1.25217e-62
6.00198e-64
2.8421e-65
1.32982e-66
6.1494e-68
2.81084e-69
1.27018e-70
5.67491e-72
2.15126e-27
1.56274e-28
1.11881e-29
7.88795e-31
5.47467e-32
3.73981e-33
2.51428e-34
1.66365e-35
1.08349e-36
6.9461e-38
4.38374e-39
2.72383e-40
1.66651e-41
1.00413e-42
5.95961e-44
3.48474e-45
2.00781e-46
1.14013e-47
6.38173e-49
3.52176e-50
1.91646e-51
1.0286e-52
5.44617e-54
2.84514e-55
1.46673e-56
7.46266e-58
3.74796e-59
1.85829e-60
9.09739e-62
4.3982e-63
2.10026e-64
9.90837e-66
4.61915e-67
2.12839e-68
9.69509e-70
4.36652e-71
1.94474e-72
8.56594e-74
5.53256e-26
4.15572e-27
3.07473e-28
2.23907e-29
1.60432e-30
1.13084e-31
7.84085e-33
5.34792e-34
3.58832e-35
2.36879e-36
1.53866e-37
9.83576e-39
6.18866e-40
3.83341e-41
2.33804e-42
1.40436e-43
8.30871e-45
4.8429e-46
2.7815e-47
1.5745e-48
8.78581e-50
4.83379e-51
2.62269e-52
1.40357e-53
7.4101e-55
3.85993e-56
1.98415e-57
1.00667e-58
5.04184e-60
2.49323e-61
1.21754e-62
5.87261e-64
2.79823e-65
1.31739e-66
6.12906e-68
2.81828e-69
1.28094e-70
5.75549e-72
1.59012e-24
1.23445e-25
9.42989e-27
7.08204e-28
5.22794e-29
3.79293e-30
2.70448e-31
1.89533e-32
1.30568e-33
8.84297e-35
5.88908e-36
3.85713e-37
2.48507e-38
1.57527e-39
9.8265e-41
6.03339e-42
3.64699e-43
2.17077e-44
1.27261e-45
7.34979e-47
4.1826e-48
2.34587e-49
1.297e-50
7.0703e-52
3.80081e-53
2.01527e-54
1.05412e-55
5.44031e-57
2.7709e-58
1.39303e-59
6.91395e-61
3.38841e-62
1.64002e-63
7.84089e-65
3.7035e-66
1.72844e-67
7.97171e-69
3.63381e-70
1.3399e-23
1.0764e-24
8.49523e-26
6.58209e-27
5.00632e-28
3.73815e-29
2.74041e-30
1.9727e-31
1.39469e-32
9.68649e-34
6.61038e-35
4.43365e-36
2.9233e-37
1.89525e-38
1.20849e-39
7.58073e-41
4.6792e-42
2.84271e-43
1.70019e-44
1.00131e-45
5.80832e-47
3.31926e-48
1.86912e-49
1.03737e-50
5.67563e-52
3.06176e-53
1.62889e-54
8.54789e-56
4.4255e-57
2.26092e-58
1.14002e-59
5.6745e-61
2.78876e-62
1.35345e-63
6.48774e-65
3.07212e-66
1.43728e-67
6.64457e-69
4.91232e-23
4.06994e-24
3.3075e-25
2.63505e-26
2.05831e-27
1.5767e-28
1.18467e-29
8.7328e-31
6.31745e-32
4.48631e-33
3.12842e-34
2.14277e-35
1.44199e-36
9.53694e-38
6.20055e-39
3.96408e-40
2.49266e-41
1.54207e-42
9.38821e-44
5.6261e-45
3.31961e-46
1.92898e-47
1.10416e-48
6.22733e-50
3.46123e-51
1.89632e-52
1.02433e-53
5.45638e-55
2.8668e-56
1.48595e-57
7.60006e-59
3.83634e-60
1.91157e-61
9.40411e-63
4.56853e-64
2.19201e-65
1.03894e-66
4.86493e-68
1.00426e-22
8.49457e-24
7.04137e-25
5.71723e-26
4.54795e-27
3.54552e-28
2.70955e-29
2.03047e-30
1.49251e-31
1.07647e-32
7.62084e-34
5.29735e-35
3.61663e-36
2.42589e-37
1.59914e-38
1.03627e-39
6.60316e-41
4.13854e-42
2.55197e-43
1.54865e-44
9.25108e-46
5.44132e-47
3.15206e-48
1.79873e-49
1.0114e-50
5.60477e-52
3.06176e-53
1.64913e-54
8.75991e-56
4.58983e-57