/*--------------------------------*- C++ -*----------------------------------*\
| =========                 |                                                 |
| \\      /  F ield         | OpenFOAM: The Open Source CFD Toolbox           |
|  \\    /   O peration     | Version:  2.3.1                                 |
|   \\  /    A nd           | Web:      www.OpenFOAM.org                      |
|    \\/     M anipulation  |                                                 |
\*---------------------------------------------------------------------------*/
FoamFile
{
    version     2.0;
    format      ascii;
    class       volVectorField;
    location    "10";
    object      U;
}
// * * * * * * * * * * * * * * * * * * * * * * * * * * * * * * * * * * * * * //

dimensions      [0 1 -1 0 0 0 0];

internalField   nonuniform List<vector> 
38262
(
(0.00423895 1.95127e-05 1.48367e-05)
(0.00414498 1.76619e-05 1.32218e-05)
(0.00406063 1.60592e-05 1.18241e-05)
(0.00398463 1.46369e-05 1.06031e-05)
(0.003916 1.33652e-05 9.53418e-06)
(0.00385385 1.22307e-05 8.60095e-06)
(0.00379742 1.12171e-05 7.78586e-06)
(0.00374607 1.03067e-05 7.06872e-06)
(0.00369924 9.48615e-06 6.43168e-06)
(0.00365647 8.74385e-06 5.86274e-06)
(0.00361735 8.06413e-06 5.35321e-06)
(0.00358157 7.43304e-06 4.89264e-06)
(0.00354885 6.84878e-06 4.46872e-06)
(0.00351893 6.31999e-06 4.07304e-06)
(0.00349158 5.85126e-06 3.70389e-06)
(0.00346656 5.43377e-06 3.36123e-06)
(0.00344366 5.05095e-06 3.04238e-06)
(0.00342273 4.69186e-06 2.74476e-06)
(0.00340361 4.35286e-06 2.46884e-06)
(0.00338621 4.0256e-06 2.21344e-06)
(0.00337042 3.69839e-06 1.97119e-06)
(0.00335618 3.37342e-06 1.73511e-06)
(0.00334344 3.06602e-06 1.50778e-06)
(0.00333212 2.78644e-06 1.29873e-06)
(0.00332208 2.53811e-06 1.11406e-06)
(0.00331319 2.32803e-06 9.51711e-07)
(0.00330531 2.16314e-06 8.0519e-07)
(0.00329833 2.03746e-06 6.68434e-07)
(0.00329217 1.92894e-06 5.37365e-07)
(0.00328679 1.81136e-06 4.0868e-07)
(0.00328219 1.66954e-06 2.7917e-07)
(0.00327838 1.49911e-06 1.4773e-07)
(0.00327542 1.29842e-06 1.75366e-08)
(0.00327332 1.07254e-06 -1.03196e-07)
(0.00327209 8.3767e-07 -2.08138e-07)
(0.00327168 6.0991e-07 -2.96146e-07)
(0.00327202 4.08333e-07 -3.67102e-07)
(0.00327301 2.40123e-07 -4.28529e-07)
(0.00445757 3.14866e-05 2.24909e-05)
(0.0043607 2.84213e-05 2.0191e-05)
(0.00427369 2.57965e-05 1.819e-05)
(0.00419527 2.34965e-05 1.64217e-05)
(0.00412443 2.14534e-05 1.48603e-05)
(0.00406028 1.96253e-05 1.3489e-05)
(0.00400204 1.79799e-05 1.22819e-05)
(0.00394906 1.64938e-05 1.12112e-05)
(0.00390076 1.51474e-05 1.02576e-05)
(0.00385667 1.39149e-05 9.40794e-06)
(0.00381638 1.27677e-05 8.64482e-06)
(0.00377956 1.16939e-05 7.94571e-06)
(0.00374592 1.07091e-05 7.29531e-06)
(0.00371519 9.84084e-06 6.69159e-06)
(0.0036871 9.10134e-06 6.13565e-06)
(0.0036614 8.47267e-06 5.62089e-06)
(0.00363789 7.91767e-06 5.13574e-06)
(0.00361639 7.40696e-06 4.6764e-06)
(0.00359677 6.92753e-06 4.24693e-06)
(0.0035789 6.46552e-06 3.8422e-06)
(0.00356269 6.00483e-06 3.44684e-06)
(0.00354808 5.54733e-06 3.05867e-06)
(0.00353499 5.1092e-06 2.69371e-06)
(0.00352332 4.69889e-06 2.36486e-06)
(0.00351295 4.32091e-06 2.07437e-06)
(0.00350375 3.99073e-06 1.82338e-06)
(0.00349561 3.72509e-06 1.61104e-06)
(0.0034884 3.52089e-06 1.42685e-06)
(0.00348203 3.35206e-06 1.25115e-06)
(0.00347647 3.18669e-06 1.06429e-06)
(0.00347172 3.00169e-06 8.59276e-07)
(0.0034678 2.77581e-06 6.42273e-07)
(0.00346473 2.48436e-06 4.22083e-07)
(0.00346253 2.11847e-06 2.08662e-07)
(0.0034612 1.69939e-06 1.72482e-08)
(0.00346072 1.26406e-06 -1.41608e-07)
(0.00346101 8.56178e-07 -2.67443e-07)
(0.00346197 4.96491e-07 -3.60576e-07)
(0.00449063 2.68568e-05 2.54603e-05)
(0.00439363 2.41303e-05 2.28886e-05)
(0.00430644 2.18064e-05 2.06671e-05)
(0.00422783 1.97836e-05 1.87161e-05)
(0.00415678 1.79897e-05 1.69967e-05)
(0.00409242 1.63756e-05 1.54759e-05)
(0.004034 1.4911e-05 1.41224e-05)
(0.00398086 1.35768e-05 1.2917e-05)
(0.00393244 1.2349e-05 1.18489e-05)
(0.00388825 1.11962e-05 1.08982e-05)
(0.00384788 1.01002e-05 1.0031e-05)
(0.00381102 9.07607e-06 9.2192e-06)
(0.00377741 8.16245e-06 8.45885e-06)
(0.00374674 7.39304e-06 7.76234e-06)
(0.00371873 6.77751e-06 7.13732e-06)
(0.00369309 6.29606e-06 6.5717e-06)
(0.00366961 5.91004e-06 6.03971e-06)
(0.00364813 5.5851e-06 5.52751e-06)
(0.00362852 5.30008e-06 5.04035e-06)
(0.00361067 5.03643e-06 4.57676e-06)
(0.00359448 4.77945e-06 4.1229e-06)
(0.00357988 4.52869e-06 3.68005e-06)
(0.00356678 4.28565e-06 3.26516e-06)
(0.00355508 4.03882e-06 2.88619e-06)
(0.00354467 3.77911e-06 2.54454e-06)
(0.00353544 3.51947e-06 2.24853e-06)
(0.00352728 3.28695e-06 2.00254e-06)
(0.00352007 3.10212e-06 1.79264e-06)
(0.00351372 2.97041e-06 1.59018e-06)
(0.00350819 2.88589e-06 1.37275e-06)
(0.00350346 2.82859e-06 1.14091e-06)
(0.00349953 2.75351e-06 9.02956e-07)
(0.00349642 2.60115e-06 6.5655e-07)
(0.00349415 2.33343e-06 4.04927e-07)
(0.00349277 1.95367e-06 1.67184e-07)
(0.00349225 1.49834e-06 -3.78934e-08)
(0.00349252 1.01899e-06 -1.93307e-07)
(0.00349348 5.56452e-07 -2.92694e-07)
(0.00449738 1.87397e-05 2.55539e-05)
(0.00440054 1.67303e-05 2.29734e-05)
(0.00431347 1.49756e-05 2.07635e-05)
(0.00423492 1.34108e-05 1.88334e-05)
(0.00416391 1.20006e-05 1.71333e-05)
(0.00409957 1.07296e-05 1.56226e-05)
(0.00404118 9.58153e-06 1.42727e-05)
(0.00398806 8.52796e-06 1.30729e-05)
(0.00393965 7.53195e-06 1.20106e-05)
(0.00389546 6.56982e-06 1.10514e-05)
(0.00385513 5.65367e-06 1.01545e-05)
(0.00381836 4.8269e-06 9.30397e-06)
(0.00378487 4.13077e-06 8.51373e-06)
(0.00375434 3.58138e-06 7.80354e-06)
(0.00372645 3.17195e-06 7.17942e-06)
(0.00370091 2.88447e-06 6.624e-06)
(0.00367751 2.69895e-06 6.10504e-06)
(0.0036561 2.59646e-06 5.60614e-06)
(0.00363654 2.55207e-06 5.13263e-06)
(0.00361872 2.53436e-06 4.67959e-06)
(0.00360256 2.52454e-06 4.23204e-06)
(0.00358798 2.52429e-06 3.79801e-06)
(0.00357489 2.52918e-06 3.39683e-06)
(0.00356315 2.51045e-06 3.02595e-06)
(0.0035527 2.43901e-06 2.67619e-06)
(0.00354345 2.31772e-06 2.35718e-06)
(0.0035353 2.18275e-06 2.08249e-06)
(0.00352813 2.08138e-06 1.84621e-06)
(0.00352185 2.05107e-06 1.62444e-06)
(0.00351638 2.1033e-06 1.40237e-06)
(0.00351168 2.21012e-06 1.18686e-06)
(0.00350773 2.30569e-06 9.77469e-07)
(0.00350453 2.31425e-06 7.53433e-07)
(0.00350216 2.18389e-06 5.07386e-07)
(0.00350066 1.90028e-06 2.58802e-07)
(0.00350007 1.48311e-06 3.36546e-08)
(0.0035003 9.75394e-07 -1.43582e-07)
(0.00350126 4.37469e-07 -2.59768e-07)
(0.00449838 1.0842e-05 2.50062e-05)
(0.00440166 9.5498e-06 2.2479e-05)
(0.00431466 8.32904e-06 2.03182e-05)
(0.00423617 7.17191e-06 1.84264e-05)
(0.00416523 6.09496e-06 1.67587e-05)
(0.00410097 5.12099e-06 1.52835e-05)
(0.00404262 4.24555e-06 1.39757e-05)
(0.00398953 3.43264e-06 1.28159e-05)
(0.00394112 2.64547e-06 1.17758e-05)
(0.00389696 1.88273e-06 1.08139e-05)
(0.00385669 1.18389e-06 9.90122e-06)
(0.00382003 5.97659e-07 9.04185e-06)
(0.00378667 1.48882e-07 8.25809e-06)
(0.00375626 -1.68499e-07 7.56177e-06)
(0.00372848 -3.73958e-07 6.94944e-06)
(0.00370304 -4.80922e-07 6.40392e-06)
(0.00367974 -4.9166e-07 5.90131e-06)
(0.0036584 -4.11161e-07 5.43273e-06)
(0.00363889 -2.63419e-07 4.99788e-06)
(0.0036211 -8.19839e-08 4.57588e-06)
(0.00360495 1.15979e-07 4.14856e-06)
(0.00359038 3.30337e-07 3.73861e-06)
(0.00357727 5.48416e-07 3.37251e-06)
(0.00356549 7.34657e-07 3.03283e-06)
(0.00355497 8.56339e-07 2.69131e-06)
(0.00354567 9.11305e-07 2.35354e-06)
(0.00353752 9.32265e-07 2.0444e-06)
(0.0035304 9.73298e-07 1.77455e-06)
(0.0035242 1.08496e-06 1.53652e-06)
(0.0035188 1.28317e-06 1.32647e-06)
(0.00351413 1.53206e-06 1.14763e-06)
(0.00351013 1.75893e-06 9.81806e-07)
(0.00350684 1.89017e-06 7.92382e-07)
(0.00350432 1.87447e-06 5.67671e-07)
(0.00350268 1.68645e-06 3.25345e-07)
(0.00350196 1.32924e-06 8.86921e-08)
(0.00350211 8.35236e-07 -1.16785e-07)
(0.00350306 2.70191e-07 -2.75085e-07)
(0.00440141 3.68899e-06 2.21886e-05)
(0.00431439 2.9092e-06 2.00373e-05)
(0.00423591 2.0813e-06 1.81405e-05)
(0.00416501 1.26438e-06 1.6468e-05)
(0.00410082 5.06466e-07 1.50044e-05)
(0.00404253 -1.82132e-07 1.37225e-05)
(0.00398947 -8.24839e-07 1.25831e-05)
(0.00394108 -1.43901e-06 1.15414e-05)
(0.00389696 -2.00669e-06 1.056e-05)
(0.00385679 -2.48545e-06 9.63016e-06)
(0.00382025 -2.842e-06 8.77213e-06)
(0.003787 -3.06838e-06 8.0036e-06)
(0.00375669 -3.17949e-06 7.3226e-06)
(0.00372899 -3.20048e-06 6.717e-06)
(0.00370364 -3.14981e-06 6.17302e-06)
(0.00368041 -3.03096e-06 5.6804e-06)
(0.00365914 -2.84293e-06 5.23899e-06)
(0.00363968 -2.59368e-06 4.83884e-06)
(0.00362191 -2.29675e-06 4.4434e-06)
(0.00360578 -1.96328e-06 4.03563e-06)
(0.00359122 -1.60746e-06 3.65164e-06)
(0.0035781 -1.25353e-06 3.31933e-06)
(0.00356628 -9.26587e-07 3.00738e-06)
(0.0035557 -6.39888e-07 2.67482e-06)
(0.00354636 -3.92721e-07 2.32499e-06)
(0.0035382 -1.69926e-07 1.98931e-06)
(0.00353112 6.09933e-08 1.69322e-06)
(0.00352498 3.35606e-07 1.44838e-06)
(0.00351964 6.61034e-07 1.26064e-06)
(0.00351497 1.00071e-06 1.12116e-06)
(0.0035109 1.29543e-06 9.92255e-07)
(0.00350749 1.4889e-06 8.30923e-07)
(0.00350483 1.53939e-06 6.26846e-07)
(0.00350303 1.42087e-06 3.93264e-07)
(0.00350216 1.13027e-06 1.45839e-07)
(0.00350221 6.92304e-07 -9.07527e-08)
(0.00350313 1.60596e-07 -2.96861e-07)
(0.00440095 -1.92086e-06 2.23047e-05)
(0.00431381 -2.23654e-06 2.01143e-05)
(0.00423529 -2.68499e-06 1.81651e-05)
(0.0041644 -3.1951e-06 1.6445e-05)
(0.00410026 -3.70738e-06 1.49513e-05)
(0.00404201 -4.19017e-06 1.36527e-05)
(0.00398898 -4.63695e-06 1.2494e-05)
(0.00394064 -5.04009e-06 1.14226e-05)
(0.0038966 -5.37569e-06 1.04128e-05)
(0.00385653 -5.61802e-06 9.46888e-06)
(0.0038201 -5.75173e-06 8.61045e-06)
(0.00378696 -5.77367e-06 7.84946e-06)
(0.00375674 -5.6948e-06 7.17953e-06)
(0.0037291 -5.54212e-06 6.58404e-06)
(0.00370379 -5.34604e-06 6.04613e-06)
(0.00368061 -5.12305e-06 5.55773e-06)
(0.00365939 -4.86966e-06 5.1221e-06)
(0.00363998 -4.56815e-06 4.72938e-06)
(0.00362225 -4.20244e-06 4.34445e-06)
(0.00360615 -3.77904e-06 3.95426e-06)
(0.0035916 -3.33053e-06 3.59161e-06)
(0.00357846 -2.88867e-06 3.27411e-06)
(0.00356662 -2.45837e-06 2.9676e-06)
(0.00355603 -2.02609e-06 2.63832e-06)
(0.00354667 -1.58695e-06 2.29204e-06)
(0.00353851 -1.15007e-06 1.95571e-06)
(0.00353144 -7.20534e-07 1.65745e-06)
(0.00352532 -2.95332e-07 1.42095e-06)
(0.00351998 1.19458e-07 1.2556e-06)
(0.00351528 4.99725e-07 1.14384e-06)
(0.00351114 8.13103e-07 1.03836e-06)
(0.00350761 1.02707e-06 8.95793e-07)
(0.00350482 1.11264e-06 7.05603e-07)
(0.00350287 1.05098e-06 4.75505e-07)
(0.00350185 8.42068e-07 2.17308e-07)
(0.0035018 5.02583e-07 -4.35459e-08)
(0.00350266 6.34399e-08 -2.8401e-07)
(0.00440032 -8.20083e-06 2.27609e-05)
(0.00431303 -7.94178e-06 2.05022e-05)
(0.0042344 -7.87474e-06 1.84766e-05)
(0.00416347 -7.93976e-06 1.66794e-05)
(0.00409933 -8.07743e-06 1.51162e-05)
(0.00404112 -8.23671e-06 1.37587e-05)
(0.00398814 -8.38139e-06 1.25479e-05)
(0.00393986 -8.48431e-06 1.14331e-05)
(0.0038959 -8.52313e-06 1.03933e-05)
(0.00385592 -8.48621e-06 9.43049e-06)
(0.00381959 -8.37099e-06 8.55832e-06)
(0.00378653 -8.17747e-06 7.7916e-06)
(0.00375638 -7.91409e-06 7.13005e-06)
(0.00372879 -7.60476e-06 6.55218e-06)
(0.00370349 -7.2802e-06 6.02715e-06)
(0.00368031 -6.96024e-06 5.5357e-06)
(0.00365912 -6.63899e-06 5.08147e-06)
(0.00363976 -6.28377e-06 4.66921e-06)
(0.00362209 -5.86145e-06 4.28198e-06)
(0.00360603 -5.37416e-06 3.90709e-06)
(0.00359149 -4.85828e-06 3.55689e-06)
(0.00357834 -4.34133e-06 3.23353e-06)
(0.00356651 -3.81406e-06 2.91378e-06)
(0.00355594 -3.25161e-06 2.58552e-06)
(0.0035466 -2.65089e-06 2.25919e-06)
(0.00353843 -2.03857e-06 1.94952e-06)
(0.00353134 -1.45029e-06 1.67533e-06)
(0.00352519 -9.14426e-07 1.46e-06)
(0.0035198 -4.49989e-07 1.31384e-06)
(0.00351503 -6.60716e-08 1.21752e-06)
(0.00351081 2.3342e-07 1.12578e-06)
(0.00350718 4.41328e-07 9.96008e-07)
(0.00350426 5.45273e-07 8.11088e-07)
(0.00350219 5.39091e-07 5.74926e-07)
(0.00350106 4.27293e-07 3.04032e-07)
(0.0035009 2.16942e-07 2.57517e-08)
(0.00350169 -8.46343e-08 -2.40987e-07)
(0.00350336 -4.43465e-07 -4.88579e-07)
(0.00439843 -1.59957e-05 2.33056e-05)
(0.00431096 -1.49617e-05 2.09696e-05)
(0.0042322 -1.41703e-05 1.88657e-05)
(0.00416119 -1.35726e-05 1.69858e-05)
(0.00409702 -1.31221e-05 1.53425e-05)
(0.00403883 -1.27655e-05 1.39169e-05)
(0.00398589 -1.24493e-05 1.26518e-05)
(0.00393767 -1.21298e-05 1.14953e-05)
(0.00389378 -1.178e-05 1.04247e-05)
(0.00385387 -1.13915e-05 9.43649e-06)
(0.0038176 -1.09709e-05 8.54346e-06)
(0.00378461 -1.05308e-05 7.76702e-06)
(0.0037545 -1.00827e-05 7.11101e-06)
(0.00372692 -9.63534e-06 6.54761e-06)
(0.00370162 -9.19421e-06 6.03203e-06)
(0.00367843 -8.76126e-06 5.53179e-06)
(0.00365724 -8.32976e-06 5.0498e-06)
(0.00363792 -7.87661e-06 4.60869e-06)
(0.00362031 -7.3742e-06 4.21182e-06)
(0.00360429 -6.81793e-06 3.84444e-06)
(0.00358975 -6.22852e-06 3.49808e-06)
(0.00357662 -5.62082e-06 3.16441e-06)
(0.00356481 -4.98648e-06 2.83352e-06)
(0.00355428 -4.31184e-06 2.5119e-06)
(0.00354497 -3.6028e-06 2.21366e-06)
(0.00353679 -2.89101e-06 1.944e-06)
(0.00352966 -2.22337e-06 1.71013e-06)
(0.00352343 -1.64486e-06 1.52607e-06)
(0.00351794 -1.18212e-06 1.39755e-06)
(0.00351308 -8.34194e-07 1.30964e-06)
(0.00350876 -5.79653e-07 1.22511e-06)
(0.00350503 -3.96144e-07 1.10048e-06)
(0.00350201 -2.71868e-07 9.11408e-07)
(0.00349984 -2.01226e-07 6.61922e-07)
(0.00349862 -1.83334e-07 3.78066e-07)
(0.00349838 -2.2457e-07 8.80847e-08)
(0.00349911 -3.30861e-07 -2.00905e-07)
(0.00350076 -4.84668e-07 -4.91589e-07)
(0.00439087 -2.39518e-05 2.31845e-05)
(0.00430325 -2.20663e-05 2.08283e-05)
(0.00422439 -2.04636e-05 1.87041e-05)
(0.00415332 -1.91018e-05 1.68003e-05)
(0.00408912 -1.79601e-05 1.51326e-05)
(0.00403093 -1.69983e-05 1.36873e-05)
(0.00397803 -1.6152e-05 1.24081e-05)
(0.00392986 -1.53593e-05 1.12424e-05)
(0.00388603 -1.45824e-05 1.0168e-05)
(0.00384617 -1.3813e-05 9.18299e-06)
(0.00380995 -1.30704e-05 8.29893e-06)
(0.00377698 -1.23841e-05 7.53312e-06)
(0.00374688 -1.17665e-05 6.88511e-06)
(0.00371931 -1.12027e-05 6.32749e-06)
(0.003694 -1.06598e-05 5.81786e-06)
(0.00367082 -1.011e-05 5.32051e-06)
(0.00364963 -9.54646e-06 4.83348e-06)
(0.00363033 -8.97175e-06 4.38349e-06)
(0.00361275 -8.37846e-06 3.98448e-06)
(0.00359676 -7.75716e-06 3.62503e-06)
(0.00358223 -7.10772e-06 3.29077e-06)
(0.00356911 -6.43065e-06 2.96946e-06)
(0.00355732 -5.72314e-06 2.65405e-06)
(0.00354682 -4.98957e-06 2.35519e-06)
(0.00353752 -4.24747e-06 2.08937e-06)
(0.00352934 -3.52818e-06 1.86238e-06)
(0.00352215 -2.87554e-06 1.67579e-06)
(0.00351582 -2.33397e-06 1.53063e-06)
(0.00351022 -1.9282e-06 1.42209e-06)
(0.00350524 -1.64985e-06 1.33807e-06)
(0.00350082 -1.45967e-06 1.25194e-06)
(0.00349699 -1.30688e-06 1.12437e-06)
(0.00349387 -1.15388e-06 9.28755e-07)
(0.00349162 -9.9043e-07 6.72515e-07)
(0.00349033 -8.29601e-07 3.87807e-07)
(0.00349002 -6.90451e-07 9.86048e-08)
(0.00349069 -5.79892e-07 -1.98114e-07)
(0.00349233 -4.92593e-07 -5.10553e-07)
(0.00435736 -2.86029e-05 2.04e-05)
(0.00426986 -2.61226e-05 1.82803e-05)
(0.00419117 -2.39271e-05 1.63769e-05)
(0.00412029 -2.19893e-05 1.46783e-05)
(0.00405628 -2.03182e-05 1.31927e-05)
(0.00399828 -1.8891e-05 1.19034e-05)
(0.00394555 -1.76363e-05 1.07597e-05)
(0.00389757 -1.64791e-05 9.71751e-06)
(0.00385391 -1.53792e-05 8.762e-06)
(0.00381422 -1.43349e-05 7.8948e-06)
(0.00377812 -1.33742e-05 7.1218e-06)
(0.00374525 -1.25299e-05 6.4466e-06)
(0.00371523 -1.18083e-05 5.86187e-06)
(0.00368773 -1.1179e-05 5.34999e-06)
(0.0036625 -1.05858e-05 4.88663e-06)
(0.00363937 -9.97688e-06 4.44628e-06)
(0.00361824 -9.33968e-06 4.02149e-06)
(0.00359897 -8.69501e-06 3.62796e-06)
(0.00358143 -8.05913e-06 3.27789e-06)
(0.00356547 -7.43166e-06 2.96669e-06)
(0.00355098 -6.80564e-06 2.68476e-06)
(0.00353788 -6.16844e-06 2.42006e-06)
(0.00352611 -5.50977e-06 2.1628e-06)
(0.00351564 -4.83855e-06 1.91937e-06)
(0.00350639 -4.18244e-06 1.70618e-06)
(0.00349823 -3.57706e-06 1.53311e-06)
(0.00349103 -3.05855e-06 1.39998e-06)
(0.00348465 -2.65277e-06 1.29714e-06)
(0.00347895 -2.36688e-06 1.21061e-06)
(0.00347385 -2.18515e-06 1.12955e-06)
(0.00346931 -2.06344e-06 1.03838e-06)
(0.00346536 -1.93889e-06 9.10148e-07)
(0.00346212 -1.76326e-06 7.25608e-07)
(0.00345976 -1.53093e-06 4.93421e-07)
(0.00345836 -1.26895e-06 2.40599e-07)
(0.00345798 -9.99979e-07 -1.50735e-08)
(0.0034586 -7.20361e-07 -2.77063e-07)
(0.00346023 -4.32197e-07 -5.5148e-07)
(0.0041412 -1.78371e-05 1.33287e-05)
(0.00405629 -1.62271e-05 1.18636e-05)
(0.00397997 -1.47784e-05 1.05646e-05)
(0.00391127 -1.34801e-05 9.42099e-06)
(0.00384927 -1.23468e-05 8.4276e-06)
(0.00379309 -1.13714e-05 7.56484e-06)
(0.00374202 -1.05112e-05 6.79899e-06)
(0.00369555 -9.71996e-06 6.104e-06)
(0.00365326 -8.97626e-06 5.47209e-06)
(0.00361482 -8.2822e-06 4.90439e-06)
(0.00357987 -7.65412e-06 4.40037e-06)
(0.00354802 -7.10803e-06 3.95391e-06)
(0.00351893 -6.6439e-06 3.55568e-06)
(0.00349227 -6.24273e-06 3.19877e-06)
(0.00346781 -5.87119e-06 2.87825e-06)
(0.00344537 -5.49528e-06 2.58663e-06)
(0.00342485 -5.10446e-06 2.31883e-06)
(0.00340614 -4.71416e-06 2.0771e-06)
(0.00338909 -4.33991e-06 1.8632e-06)
(0.00337358 -3.98494e-06 1.67337e-06)
(0.00335948 -3.64553e-06 1.50201e-06)
(0.00334674 -3.31116e-06 1.34224e-06)
(0.00333531 -2.97073e-06 1.189e-06)
(0.00332517 -2.62722e-06 1.04631e-06)
(0.00331622 -2.29804e-06 9.24102e-07)
(0.00330835 -2.00472e-06 8.28253e-07)
(0.0033014 -1.76509e-06 7.56063e-07)
(0.00329521 -1.58594e-06 6.97105e-07)
(0.00328965 -1.46268e-06 6.39025e-07)
(0.00328462 -1.38351e-06 5.74271e-07)
(0.00328009 -1.32515e-06 4.96404e-07)
(0.00327612 -1.25264e-06 3.93942e-07)
(0.00327284 -1.13855e-06 2.58128e-07)
(0.00327041 -9.82932e-07 9.39504e-08)
(0.00326896 -8.0644e-07 -8.32471e-08)
(0.00326854 -6.22768e-07 -2.61193e-07)
(0.00326916 -4.23714e-07 -4.35539e-07)
(0.0032708 -2.0918e-07 -6.05833e-07)
(0.0045989 1.08527e-05 4.97616e-05)
(0.00449907 9.7866e-06 4.44481e-05)
(0.00440946 8.88957e-06 3.98299e-05)
(0.00432873 8.10473e-06 3.57903e-05)
(0.00425581 7.4114e-06 3.22468e-05)
(0.00418976 6.80222e-06 2.91355e-05)
(0.00412981 6.26633e-06 2.63961e-05)
(0.00407526 5.79114e-06 2.397e-05)
(0.00402553 5.36713e-06 2.18073e-05)
(0.00398013 4.98582e-06 1.98708e-05)
(0.00393863 4.63588e-06 1.81296e-05)
(0.00390068 4.30758e-06 1.65508e-05)
(0.00386598 4.00045e-06 1.51015e-05)
(0.00383427 3.7225e-06 1.37597e-05)
(0.00380528 3.47989e-06 1.25182e-05)
(0.00377877 3.26835e-06 1.13725e-05)
(0.00375452 3.0753e-06 1.03121e-05)
(0.00373235 2.89135e-06 9.32716e-06)
(0.00371211 2.71354e-06 8.41428e-06)
(0.00369368 2.53535e-06 7.56719e-06)
(0.00367696 2.34663e-06 6.76898e-06)
(0.00366186 2.14783e-06 6.00547e-06)
(0.00364832 1.9517e-06 5.28079e-06)
(0.00363625 1.7722e-06 4.61104e-06)
(0.00362553 1.62164e-06 4.00591e-06)
(0.00361602 1.51099e-06 3.4604e-06)
(0.00360759 1.44254e-06 2.95989e-06)
(0.00360013 1.40441e-06 2.49062e-06)
(0.00359356 1.37416e-06 2.04373e-06)
(0.00358785 1.32898e-06 1.61238e-06)
(0.00358297 1.25462e-06 1.19055e-06)
(0.00357893 1.14375e-06 7.76799e-07)
(0.00357575 9.93821e-07 3.77051e-07)
(0.00357347 8.11806e-07 2.50814e-09)
(0.00357206 6.17973e-07 -3.34257e-07)
(0.00357151 4.3225e-07 -6.28651e-07)
(0.00357174 2.73156e-07 -8.81584e-07)
(0.00357266 1.46522e-07 -1.10512e-06)
(0.00479484 1.93419e-05 6.7199e-05)
(0.00469168 1.73893e-05 6.02856e-05)
(0.00459904 1.57535e-05 5.42602e-05)
(0.00451558 1.43416e-05 4.89579e-05)
(0.0044402 1.31068e-05 4.42834e-05)
(0.00437196 1.20243e-05 4.01622e-05)
(0.00431004 1.10714e-05 3.65163e-05)
(0.00425376 1.02252e-05 3.32743e-05)
(0.0042025 9.46484e-06 3.03821e-05)
(0.00415577 8.77149e-06 2.77951e-05)
(0.00411312 8.12853e-06 2.54622e-05)
(0.00407418 7.52737e-06 2.33304e-05)
(0.00403863 6.97303e-06 2.13655e-05)
(0.00400616 6.47983e-06 1.95573e-05)
(0.0039765 6.05702e-06 1.78989e-05)
(0.0039494 5.69629e-06 1.63702e-05)
(0.00392462 5.37568e-06 1.49439e-05)
(0.00390199 5.0768e-06 1.36067e-05)
(0.00388135 4.79022e-06 1.23578e-05)
(0.00386257 4.50364e-06 1.1183e-05)
(0.00384553 4.20186e-06 1.00564e-05)
(0.00383013 3.88393e-06 8.9753e-06)
(0.00381628 3.56652e-06 7.96385e-06)
(0.00380387 3.27118e-06 7.03989e-06)
(0.0037928 3.01852e-06 6.20673e-06)
(0.00378296 2.82503e-06 5.46608e-06)
(0.00377425 2.69333e-06 4.81334e-06)
(0.00376656 2.60755e-06 4.22604e-06)
(0.00375983 2.53962e-06 3.66718e-06)
(0.00375402 2.45856e-06 3.10158e-06)
(0.00374908 2.33749e-06 2.5168e-06)
(0.003745 2.15525e-06 1.92148e-06)
(0.00374178 1.90055e-06 1.32734e-06)
(0.00373943 1.58214e-06 7.5361e-07)
(0.00373793 1.22978e-06 2.27243e-07)
(0.00373727 8.77267e-07 -2.35277e-07)
(0.0037374 5.58718e-07 -6.2809e-07)
(0.00373826 2.88506e-07 -9.5513e-07)
(0.00481673 1.88708e-05 7.44104e-05)
(0.00471337 1.68964e-05 6.68288e-05)
(0.00462051 1.52418e-05 6.02506e-05)
(0.00453683 1.38221e-05 5.44815e-05)
(0.00446124 1.2586e-05 4.93969e-05)
(0.00439282 1.1501e-05 4.48955e-05)
(0.00433076 1.05414e-05 4.08917e-05)
(0.00427437 9.68252e-06 3.73258e-05)
(0.00422306 8.90068e-06 3.41514e-05)
(0.0041763 8.17692e-06 3.13079e-05)
(0.00413368 7.5012e-06 2.87186e-05)
(0.00409481 6.87443e-06 2.63256e-05)
(0.00405936 6.30783e-06 2.4115e-05)
(0.00402702 5.81729e-06 2.20985e-05)
(0.00399749 5.41243e-06 2.0277e-05)
(0.00397051 5.08548e-06 1.86183e-05)
(0.00394586 4.81351e-06 1.70712e-05)
(0.00392335 4.57353e-06 1.56062e-05)
(0.00390282 4.35078e-06 1.42242e-05)
(0.00388415 4.13234e-06 1.29157e-05)
(0.00386722 3.90516e-06 1.1657e-05)
(0.0038519 3.66544e-06 1.04507e-05)
(0.0038381 3.42113e-06 9.32293e-06)
(0.00382571 3.18523e-06 8.28498e-06)
(0.00381464 2.9729e-06 7.33956e-06)
(0.00380479 2.79815e-06 6.49854e-06)
(0.00379607 2.66689e-06 5.76456e-06)
(0.00378841 2.57512e-06 5.11018e-06)
(0.00378172 2.51055e-06 4.48553e-06)
(0.00377596 2.45237e-06 3.85154e-06)
(0.00377107 2.37299e-06 3.20469e-06)
(0.00376703 2.24213e-06 2.55246e-06)
(0.00376383 2.03565e-06 1.88931e-06)
(0.00376147 1.74932e-06 1.22399e-06)
(0.00375995 1.40162e-06 5.90561e-07)
(0.00375926 1.02436e-06 2.27546e-08)
(0.00375936 6.55536e-07 -4.5141e-07)
(0.00376021 3.22061e-07 -8.29476e-07)
(0.00481874 1.45726e-05 7.58679e-05)
(0.00471552 1.29793e-05 6.81516e-05)
(0.00462275 1.16207e-05 6.14874e-05)
(0.00453913 1.04395e-05 5.56599e-05)
(0.00446359 9.40167e-06 5.0525e-05)
(0.00439521 8.48617e-06 4.59697e-05)
(0.0043332 7.67212e-06 4.19123e-05)
(0.00427686 6.93582e-06 3.83009e-05)
(0.0042256 6.25604e-06 3.50807e-05)
(0.00417892 5.62131e-06 3.21687e-05)
(0.00413639 5.03225e-06 2.94818e-05)
(0.00409764 4.49795e-06 2.69838e-05)
(0.00406233 4.03157e-06 2.46876e-05)
(0.00403013 3.64535e-06 2.2616e-05)
(0.00400074 3.34398e-06 2.07675e-05)
(0.00397389 3.12004e-06 1.91006e-05)
(0.00394935 2.95587e-06 1.7553e-05)
(0.00392695 2.83182e-06 1.60904e-05)
(0.00390652 2.73219e-06 1.47123e-05)
(0.00388793 2.64373e-06 1.34022e-05)
(0.00387107 2.55529e-06 1.2135e-05)
(0.00385582 2.46177e-06 1.09249e-05)
(0.00384206 2.36338e-06 9.80076e-06)
(0.0038297 2.26136e-06 8.75634e-06)
(0.00381865 2.15964e-06 7.77722e-06)
(0.00380881 2.06712e-06 6.87818e-06)
(0.00380013 1.99504e-06 6.07838e-06)
(0.0037925 1.95257e-06 5.36469e-06)
(0.00378586 1.94112e-06 4.69637e-06)
(0.00378013 1.94819e-06 4.04652e-06)
(0.00377526 1.94826e-06 3.41821e-06)
(0.00377122 1.90854e-06 2.80188e-06)
(0.003768 1.79789e-06 2.16256e-06)
(0.00376561 1.60014e-06 1.49197e-06)
(0.00376405 1.32071e-06 8.23497e-07)
(0.00376332 9.82514e-07 2.01666e-07)
(0.00376341 6.1884e-07 -3.30939e-07)
(0.00376427 2.67415e-07 -7.6347e-07)
(0.00481815 8.9017e-06 7.53516e-05)
(0.00471506 7.83711e-06 6.76905e-05)
(0.00462238 6.88473e-06 6.10744e-05)
(0.00453883 6.02669e-06 5.52821e-05)
(0.00446335 5.25352e-06 5.01785e-05)
(0.00439503 4.55968e-06 4.56646e-05)
(0.00433308 3.93392e-06 4.16597e-05)
(0.00427678 3.36051e-06 3.80943e-05)
(0.00422557 2.82771e-06 3.48882e-05)
(0.00417894 2.33405e-06 3.19499e-05)
(0.00413649 1.88709e-06 2.92185e-05)
(0.00409783 1.49836e-06 2.66896e-05)
(0.00406261 1.17866e-06 2.43881e-05)
(0.00403052 9.34173e-07 2.23258e-05)
(0.00400123 7.64374e-07 2.04885e-05)
(0.00397447 6.62501e-07 1.88355e-05)
(0.00395002 6.17236e-07 1.73165e-05)
(0.00392768 6.1529e-07 1.59063e-05)
(0.00390731 6.44654e-07 1.45915e-05)
(0.00388877 6.94848e-07 1.33309e-05)
(0.00387194 7.55632e-07 1.20976e-05)
(0.00385672 8.19004e-07 1.09293e-05)
(0.00384298 8.79014e-07 9.86135e-06)
(0.00383062 9.30042e-07 8.86106e-06)
(0.00381956 9.68605e-07 7.88504e-06)
(0.00380973 9.97972e-07 6.94469e-06)
(0.00380106 1.02881e-06 6.07912e-06)
(0.00379346 1.07514e-06 5.30432e-06)
(0.00378686 1.14528e-06 4.60778e-06)
(0.00378115 1.23346e-06 3.97933e-06)
(0.00377628 1.3192e-06 3.41358e-06)
(0.00377222 1.37185e-06 2.87093e-06)
(0.00376895 1.35922e-06 2.29083e-06)
(0.00376649 1.26018e-06 1.65465e-06)
(0.00376487 1.07119e-06 9.89311e-07)
(0.00376409 8.05417e-07 3.35288e-07)
(0.00376415 4.88594e-07 -2.61242e-07)
(0.00376502 1.57335e-07 -7.75645e-07)
(0.00471448 2.88182e-06 6.72161e-05)
(0.00462183 2.3398e-06 6.06102e-05)
(0.00453831 1.80533e-06 5.4803e-05)
(0.00446287 1.29157e-06 4.96879e-05)
(0.0043946 8.07988e-07 4.51892e-05)
(0.00433268 3.5835e-07 4.12194e-05)
(0.00427642 -5.71498e-08 3.7677e-05)
(0.00422525 -4.37537e-07 3.44592e-05)
(0.00417867 -7.78191e-07 3.1485e-05)
(0.00413627 -1.07046e-06 2.87236e-05)
(0.00409768 -1.30442e-06 2.61921e-05)
(0.00406254 -1.47335e-06 2.39102e-05)
(0.00403052 -1.57726e-06 2.1871e-05)
(0.0040013 -1.62223e-06 2.00484e-05)
(0.0039746 -1.61609e-06 1.84064e-05)
(0.0039502 -1.56535e-06 1.69134e-05)
(0.00392791 -1.47457e-06 1.55551e-05)
(0.00390758 -1.34701e-06 1.43019e-05)
(0.00388907 -1.18825e-06 1.30909e-05)
(0.00387226 -1.00882e-06 1.18993e-05)
(0.00385705 -8.1984e-07 1.07826e-05)
(0.00384331 -6.28982e-07 9.77415e-06)
(0.00383095 -4.41938e-07 8.8191e-06)
(0.00381988 -2.6397e-07 7.85644e-06)
(0.00381004 -9.72651e-08 6.89482e-06)
(0.00380137 6.12443e-08 5.98476e-06)
(0.00379379 2.19041e-07 5.16845e-06)
(0.0037872 3.81813e-07 4.4657e-06)
(0.0037815 5.4626e-07 3.88043e-06)
(0.00377662 6.97905e-07 3.38695e-06)
(0.00377252 8.14108e-07 2.9155e-06)
(0.0037692 8.69653e-07 2.39295e-06)
(0.00376666 8.47526e-07 1.79729e-06)
(0.00376496 7.42342e-07 1.14482e-06)
(0.00376412 5.59473e-07 4.64936e-07)
(0.00376414 3.14588e-07 -1.9564e-07)
(0.003765 3.36341e-08 -7.97098e-07)
(0.00471419 -2.05977e-06 6.74325e-05)
(0.00462149 -2.16287e-06 6.07513e-05)
(0.00453795 -2.33637e-06 5.48443e-05)
(0.00446252 -2.55475e-06 4.96368e-05)
(0.00439426 -2.79754e-06 4.50731e-05)
(0.00433236 -3.04444e-06 4.10592e-05)
(0.00427613 -3.27623e-06 3.74706e-05)
(0.00422499 -3.47922e-06 3.41952e-05)
(0.00417845 -3.64475e-06 3.11683e-05)
(0.00413611 -3.76569e-06 2.83766e-05)
(0.00409757 -3.83603e-06 2.58376e-05)
(0.00406249 -3.85419e-06 2.35651e-05)
(0.00403052 -3.82506e-06 2.15461e-05)
(0.00400134 -3.75736e-06 1.97445e-05)
(0.00397468 -3.65788e-06 1.81174e-05)
(0.00395032 -3.52788e-06 1.66359e-05)
(0.00392806 -3.3635e-06 1.52912e-05)
(0.00390776 -3.15967e-06 1.40559e-05)
(0.00388928 -2.91727e-06 1.2871e-05)
(0.00387249 -2.64581e-06 1.17174e-05)
(0.00385728 -2.35675e-06 1.06415e-05)
(0.00384355 -2.05644e-06 9.661e-06)
(0.00383119 -1.74859e-06 8.72001e-06)
(0.00382011 -1.43844e-06 7.76863e-06)
(0.00381026 -1.13376e-06 6.81691e-06)
(0.00380158 -8.43293e-07 5.90863e-06)
(0.003794 -5.7349e-07 5.09325e-06)
(0.0037874 -3.27588e-07 4.41088e-06)
(0.00378169 -1.08527e-07 3.87102e-06)
(0.00377678 7.81429e-08 3.43395e-06)
(0.00377263 2.23028e-07 3.01456e-06)
(0.00376924 3.15627e-07 2.53563e-06)
(0.00376663 3.49682e-07 1.96988e-06)
(0.00376486 3.22257e-07 1.32332e-06)
(0.00376395 2.32134e-07 6.20214e-07)
(0.00376392 8.3627e-08 -9.09813e-08)
(0.00376476 -1.10448e-07 -7.64702e-07)
(0.0047142 -7.23106e-06 6.8232e-05)
(0.0046214 -6.83888e-06 6.14199e-05)
(0.00453779 -6.58077e-06 5.53647e-05)
(0.00446231 -6.42978e-06 5.00058e-05)
(0.00439402 -6.36282e-06 4.53044e-05)
(0.00433213 -6.34712e-06 4.11738e-05)
(0.00427591 -6.34515e-06 3.74855e-05)
(0.0042248 -6.32925e-06 3.41288e-05)
(0.0041783 -6.28492e-06 3.10432e-05)
(0.00413599 -6.2067e-06 2.82115e-05)
(0.0040975 -6.09658e-06 2.56459e-05)
(0.00406245 -5.96137e-06 2.33666e-05)
(0.00403051 -5.80842e-06 2.1366e-05)
(0.00400135 -5.64224e-06 1.95952e-05)
(0.0039747 -5.46124e-06 1.7988e-05)
(0.00395035 -5.25783e-06 1.65002e-05)
(0.00392812 -5.02317e-06 1.51268e-05)
(0.00390785 -4.7507e-06 1.38655e-05)
(0.00388939 -4.43881e-06 1.26841e-05)
(0.00387262 -4.09257e-06 1.15598e-05)
(0.00385742 -3.7192e-06 1.05063e-05)
(0.00384369 -3.32252e-06 9.52183e-06)
(0.00383132 -2.90578e-06 8.57018e-06)
(0.00382025 -2.47673e-06 7.63238e-06)
(0.00381039 -2.04983e-06 6.72232e-06)
(0.00380169 -1.64572e-06 5.86495e-06)
(0.00379407 -1.28507e-06 5.09689e-06)
(0.00378744 -9.80949e-07 4.45855e-06)
(0.00378168 -7.36685e-07 3.96055e-06)
(0.00377672 -5.48203e-07 3.56125e-06)
(0.00377252 -4.0797e-07 3.17707e-06)
(0.00376907 -3.0575e-07 2.72809e-06)
(0.0037664 -2.32092e-07 2.17528e-06)
(0.00376456 -1.85695e-07 1.51971e-06)
(0.00376359 -1.74321e-07 7.9269e-07)
(0.0037635 -2.04382e-07 4.50315e-08)
(0.0037643 -2.74662e-07 -6.88966e-07)
(0.00376595 -3.73314e-07 -1.38408e-06)
(0.00471412 -1.27149e-05 6.88085e-05)
(0.00462117 -1.17581e-05 6.18836e-05)
(0.00453745 -1.09849e-05 5.57059e-05)
(0.00446189 -1.03742e-05 5.02133e-05)
(0.00439356 -9.9118e-06 4.53826e-05)
(0.00433164 -9.56011e-06 4.11428e-05)
(0.00427542 -9.26469e-06 3.73688e-05)
(0.00422432 -8.98099e-06 3.39483e-05)
(0.00417784 -8.68649e-06 3.08179e-05)
(0.00413555 -8.37927e-06 2.7954e-05)
(0.00409707 -8.07317e-06 2.53683e-05)
(0.00406203 -7.78423e-06 2.30884e-05)
(0.00403009 -7.51801e-06 2.11082e-05)
(0.00400092 -7.26717e-06 1.93674e-05)
(0.00397426 -7.01299e-06 1.77794e-05)
(0.00394991 -6.73454e-06 1.62818e-05)
(0.00392769 -6.42177e-06 1.48708e-05)
(0.00390742 -6.07418e-06 1.35732e-05)
(0.00388897 -5.69205e-06 1.23862e-05)
(0.0038722 -5.2761e-06 1.12819e-05)
(0.00385699 -4.82763e-06 1.02442e-05)
(0.00384326 -4.34635e-06 9.25819e-06)
(0.00383089 -3.83592e-06 8.30748e-06)
(0.00381981 -3.30977e-06 7.39923e-06)
(0.00380994 -2.7915e-06 6.55168e-06)
(0.00380121 -2.31244e-06 5.77505e-06)
(0.00379354 -1.90302e-06 5.0874e-06)