/*--------------------------------*- C++ -*----------------------------------*\
| =========                 |                                                 |
| \\      /  F ield         | OpenFOAM: The Open Source CFD Toolbox           |
|  \\    /   O peration     | Version:  2.3.1                                 |
|   \\  /    A nd           | Web:      www.OpenFOAM.org                      |
|    \\/     M anipulation  |                                                 |
\*---------------------------------------------------------------------------*/
FoamFile
{
    version     2.0;
    format      ascii;
    class       volVectorField;
    location    "10";
    object      U_0;
}
// * * * * * * * * * * * * * * * * * * * * * * * * * * * * * * * * * * * * * //

dimensions      [0 1 -1 0 0 0 0];

internalField   nonuniform List<vector> 
38262
(
(0.00423883 1.95096e-05 1.48343e-05)
(0.00414488 1.76591e-05 1.32197e-05)
(0.00406054 1.60567e-05 1.18222e-05)
(0.00398456 1.46347e-05 1.06015e-05)
(0.00391593 1.33632e-05 9.53272e-06)
(0.00385379 1.22289e-05 8.59966e-06)
(0.00379738 1.12155e-05 7.78472e-06)
(0.00374603 1.03051e-05 7.06769e-06)
(0.00369921 9.48478e-06 6.43077e-06)
(0.00365644 8.74259e-06 5.86192e-06)
(0.00361734 8.06298e-06 5.35247e-06)
(0.00358156 7.43199e-06 4.89197e-06)
(0.00354884 6.84783e-06 4.46812e-06)
(0.00351893 6.31912e-06 4.0725e-06)
(0.00349158 5.85046e-06 3.70341e-06)
(0.00346657 5.43304e-06 3.3608e-06)
(0.00344367 5.05027e-06 3.04199e-06)
(0.00342274 4.69124e-06 2.74441e-06)
(0.00340363 4.35229e-06 2.46853e-06)
(0.00338623 4.02507e-06 2.21316e-06)
(0.00337044 3.6979e-06 1.97093e-06)
(0.0033562 3.37297e-06 1.73489e-06)
(0.00334347 3.06562e-06 1.50758e-06)
(0.00333214 2.78607e-06 1.29856e-06)
(0.00332211 2.53778e-06 1.11391e-06)
(0.00331322 2.32774e-06 9.51585e-07)
(0.00330534 2.1629e-06 8.05082e-07)
(0.00329837 2.03725e-06 6.68342e-07)
(0.0032922 1.92876e-06 5.37285e-07)
(0.00328682 1.8112e-06 4.0861e-07)
(0.00328222 1.6694e-06 2.79109e-07)
(0.00327842 1.49899e-06 1.47676e-07)
(0.00327545 1.29832e-06 1.7491e-08)
(0.00327336 1.07246e-06 -1.03231e-07)
(0.00327212 8.37604e-07 -2.08161e-07)
(0.00327172 6.09863e-07 -2.96158e-07)
(0.00327206 4.08307e-07 -3.67101e-07)
(0.00327305 2.40118e-07 -4.28514e-07)
(0.00445743 3.14811e-05 2.24875e-05)
(0.00436057 2.84165e-05 2.0188e-05)
(0.00427357 2.57922e-05 1.81873e-05)
(0.00419517 2.34927e-05 1.64194e-05)
(0.00412434 2.14499e-05 1.48582e-05)
(0.0040602 1.96221e-05 1.34871e-05)
(0.00400197 1.7977e-05 1.22802e-05)
(0.003949 1.64912e-05 1.12097e-05)
(0.00390071 1.5145e-05 1.02562e-05)
(0.00385663 1.39127e-05 9.40673e-06)
(0.00381634 1.27657e-05 8.64373e-06)
(0.00377953 1.1692e-05 7.94472e-06)
(0.00374589 1.07074e-05 7.29443e-06)
(0.00371516 9.83931e-06 6.69079e-06)
(0.00368708 9.09995e-06 6.13493e-06)
(0.00366139 8.47139e-06 5.62024e-06)
(0.00363788 7.91649e-06 5.13515e-06)
(0.00361638 7.40587e-06 4.67587e-06)
(0.00359676 6.92651e-06 4.24645e-06)
(0.0035789 6.46457e-06 3.84177e-06)
(0.00356269 6.00394e-06 3.44645e-06)
(0.00354809 5.5465e-06 3.05832e-06)
(0.003535 5.10843e-06 2.6934e-06)
(0.00352333 4.69819e-06 2.3646e-06)
(0.00351296 4.32028e-06 2.07414e-06)
(0.00350376 3.99018e-06 1.82319e-06)
(0.00349562 3.72462e-06 1.61087e-06)
(0.00348841 3.52049e-06 1.42671e-06)
(0.00348204 3.35171e-06 1.25103e-06)
(0.00347648 3.18638e-06 1.06418e-06)
(0.00347174 3.00142e-06 8.59189e-07)
(0.00346781 2.77557e-06 6.42199e-07)
(0.00346474 2.48413e-06 4.22021e-07)
(0.00346254 2.11828e-06 2.08613e-07)
(0.00346122 1.69922e-06 1.72122e-08)
(0.00346074 1.26393e-06 -1.41625e-07)
(0.00346103 8.56081e-07 -2.67442e-07)
(0.00346199 4.96432e-07 -3.60553e-07)
(0.00449048 2.68515e-05 2.54563e-05)
(0.00439349 2.41256e-05 2.28851e-05)
(0.00430632 2.18022e-05 2.0664e-05)
(0.00422772 1.97799e-05 1.87134e-05)
(0.00415668 1.79864e-05 1.69942e-05)
(0.00409234 1.63725e-05 1.54737e-05)
(0.00403392 1.49082e-05 1.41204e-05)
(0.0039808 1.35742e-05 1.29152e-05)
(0.00393238 1.23467e-05 1.18473e-05)
(0.0038882 1.11941e-05 1.08968e-05)
(0.00384783 1.00983e-05 1.00297e-05)
(0.00381099 9.0743e-06 9.21802e-06)
(0.00377738 8.16083e-06 8.45779e-06)
(0.00374672 7.39157e-06 7.76138e-06)
(0.00371871 6.77616e-06 7.13645e-06)
(0.00369307 6.29483e-06 6.57092e-06)
(0.00366959 5.90891e-06 6.03899e-06)
(0.00364812 5.58404e-06 5.52686e-06)
(0.00362851 5.2991e-06 5.03977e-06)
(0.00361066 5.03549e-06 4.57623e-06)
(0.00359448 4.77855e-06 4.12243e-06)
(0.00357988 4.52783e-06 3.67962e-06)
(0.00356678 4.28482e-06 3.26478e-06)
(0.00355508 4.03805e-06 2.88585e-06)
(0.00354467 3.77841e-06 2.54426e-06)
(0.00353544 3.51885e-06 2.24828e-06)
(0.00352729 3.28641e-06 2.00234e-06)
(0.00352008 3.10165e-06 1.79246e-06)
(0.00351373 2.97001e-06 1.59004e-06)
(0.0035082 2.88554e-06 1.37262e-06)
(0.00350347 2.82827e-06 1.1408e-06)
(0.00349954 2.75321e-06 9.02865e-07)
(0.00349643 2.60087e-06 6.56472e-07)
(0.00349416 2.33318e-06 4.04863e-07)
(0.00349278 1.95346e-06 1.67135e-07)
(0.00349226 1.49816e-06 -3.79227e-08)
(0.00349253 1.01884e-06 -1.93314e-07)
(0.00349349 5.56337e-07 -2.92676e-07)
(0.00449722 1.87355e-05 2.55497e-05)
(0.00440041 1.67266e-05 2.29698e-05)
(0.00431335 1.49724e-05 2.07602e-05)
(0.00423481 1.34079e-05 1.88305e-05)
(0.00416381 1.1998e-05 1.71308e-05)
(0.00409949 1.07272e-05 1.56203e-05)
(0.0040411 9.57937e-06 1.42706e-05)
(0.003988 8.526e-06 1.3071e-05)
(0.00393959 7.53016e-06 1.20089e-05)
(0.00389541 6.5682e-06 1.10499e-05)
(0.00385508 5.6522e-06 1.01531e-05)
(0.00381832 4.82557e-06 9.3027e-06)
(0.00378483 4.12956e-06 8.51258e-06)
(0.00375431 3.58028e-06 7.80251e-06)
(0.00372642 3.17095e-06 7.17849e-06)
(0.00370089 2.88357e-06 6.62315e-06)
(0.0036775 2.69812e-06 6.10427e-06)
(0.00365609 2.59568e-06 5.60544e-06)
(0.00363653 2.55132e-06 5.132e-06)
(0.00361871 2.53363e-06 4.67902e-06)
(0.00360255 2.52381e-06 4.23152e-06)
(0.00358798 2.52357e-06 3.79754e-06)
(0.00357488 2.52848e-06 3.39641e-06)
(0.00356315 2.50977e-06 3.02557e-06)
(0.0035527 2.43838e-06 2.67586e-06)
(0.00354345 2.31716e-06 2.3569e-06)
(0.0035353 2.18226e-06 2.08226e-06)
(0.00352814 2.08095e-06 1.84602e-06)
(0.00352185 2.05069e-06 1.62428e-06)
(0.00351638 2.10296e-06 1.40223e-06)
(0.00351169 2.2098e-06 1.18675e-06)
(0.00350773 2.30539e-06 9.77367e-07)
(0.00350454 2.31398e-06 7.53345e-07)
(0.00350217 2.18365e-06 5.07313e-07)
(0.00350067 1.90007e-06 2.58747e-07)
(0.00350007 1.48293e-06 3.36184e-08)
(0.00350031 9.75231e-07 -1.43597e-07)
(0.00350127 4.37328e-07 -2.59762e-07)
(0.00449823 1.08395e-05 2.5002e-05)
(0.00440152 9.54757e-06 2.24753e-05)
(0.00431454 8.32707e-06 2.0315e-05)
(0.00423607 7.17017e-06 1.84235e-05)
(0.00416513 6.09341e-06 1.67561e-05)
(0.00410088 5.1196e-06 1.52812e-05)
(0.00404255 4.24431e-06 1.39736e-05)
(0.00398946 3.43153e-06 1.2814e-05)
(0.00394106 2.64449e-06 1.17741e-05)
(0.0038969 1.88186e-06 1.08123e-05)
(0.00385664 1.18313e-06 9.8998e-06)
(0.00381999 5.96977e-07 9.04056e-06)
(0.00378663 1.4827e-07 8.25693e-06)
(0.00375623 -1.69044e-07 7.56072e-06)
(0.00372846 -3.74439e-07 6.9485e-06)
(0.00370302 -4.81348e-07 6.40306e-06)
(0.00367972 -4.92049e-07 5.90053e-06)
(0.00365839 -4.11538e-07 5.43204e-06)
(0.00363888 -2.63804e-07 4.99724e-06)
(0.00362109 -8.23895e-08 4.57529e-06)
(0.00360494 1.15549e-07 4.14803e-06)
(0.00359038 3.29882e-07 3.73812e-06)
(0.00357727 5.47948e-07 3.37206e-06)
(0.00356549 7.34192e-07 3.03243e-06)
(0.00355497 8.55896e-07 2.69095e-06)
(0.00354567 9.10898e-07 2.35324e-06)
(0.00353753 9.31899e-07 2.04415e-06)
(0.00353041 9.72967e-07 1.77435e-06)
(0.0035242 1.08465e-06 1.53636e-06)
(0.00351881 1.28288e-06 1.32633e-06)
(0.00351414 1.53178e-06 1.14751e-06)
(0.00351014 1.75866e-06 9.81698e-07)
(0.00350684 1.88992e-06 7.92291e-07)
(0.00350433 1.87426e-06 5.67598e-07)
(0.00350269 1.68626e-06 3.25291e-07)
(0.00350197 1.32907e-06 8.86558e-08)
(0.00350212 8.35081e-07 -1.16803e-07)
(0.00350307 2.70049e-07 -2.75084e-07)
(0.00440127 3.68818e-06 2.21849e-05)
(0.00431426 2.90849e-06 2.00341e-05)
(0.0042358 2.08069e-06 1.81376e-05)
(0.00416492 1.26387e-06 1.64654e-05)
(0.00410074 5.06042e-07 1.50021e-05)
(0.00404246 -1.82474e-07 1.37204e-05)
(0.0039894 -8.25099e-07 1.25812e-05)
(0.00394102 -1.43919e-06 1.15397e-05)
(0.00389691 -2.0068e-06 1.05585e-05)
(0.00385674 -2.48551e-06 9.62876e-06)
(0.00382021 -2.84203e-06 8.77085e-06)
(0.00378697 -3.06839e-06 8.00244e-06)
(0.00375666 -3.17948e-06 7.32155e-06)
(0.00372897 -3.20045e-06 6.71606e-06)
(0.00370361 -3.14978e-06 6.17218e-06)
(0.00368039 -3.03093e-06 5.67965e-06)
(0.00365913 -2.84292e-06 5.23831e-06)
(0.00363967 -2.59372e-06 4.83821e-06)
(0.0036219 -2.29682e-06 4.44282e-06)
(0.00360577 -1.9634e-06 4.0351e-06)
(0.00359122 -1.60762e-06 3.65114e-06)
(0.0035781 -1.25372e-06 3.31887e-06)
(0.00356628 -9.26791e-07 3.00697e-06)
(0.0035557 -6.40101e-07 2.67445e-06)
(0.00354636 -3.9294e-07 2.32469e-06)
(0.0035382 -1.7015e-07 1.98906e-06)
(0.00353112 6.07634e-08 1.69302e-06)
(0.00352499 3.35368e-07 1.44822e-06)
(0.00351964 6.60791e-07 1.2605e-06)
(0.00351497 1.00047e-06 1.12103e-06)
(0.00351091 1.2952e-06 9.92145e-07)
(0.0035075 1.48869e-06 8.30831e-07)
(0.00350484 1.5392e-06 6.26774e-07)
(0.00350304 1.4207e-06 3.93211e-07)
(0.00350217 1.13012e-06 1.45803e-07)
(0.00350222 6.92163e-07 -9.07719e-08)
(0.00350313 1.60467e-07 -2.96864e-07)
(0.00440081 -1.92023e-06 2.2301e-05)
(0.00431369 -2.23596e-06 2.0111e-05)
(0.00423518 -2.68444e-06 1.81622e-05)
(0.00416431 -3.19457e-06 1.64425e-05)
(0.00410017 -3.70684e-06 1.4949e-05)
(0.00404194 -4.18962e-06 1.36506e-05)
(0.00398891 -4.63638e-06 1.24921e-05)
(0.00394058 -5.03948e-06 1.14209e-05)
(0.00389655 -5.37507e-06 1.04113e-05)
(0.00385648 -5.6174e-06 9.46749e-06)
(0.00382006 -5.75113e-06 8.60918e-06)
(0.00378692 -5.77309e-06 7.84831e-06)
(0.00375671 -5.69425e-06 7.1785e-06)
(0.00372907 -5.54161e-06 6.58311e-06)
(0.00370377 -5.34558e-06 6.0453e-06)
(0.00368059 -5.12263e-06 5.55698e-06)
(0.00365937 -4.86929e-06 5.12142e-06)
(0.00363996 -4.56784e-06 4.72876e-06)
(0.00362224 -4.20219e-06 4.34387e-06)
(0.00360615 -3.77884e-06 3.95372e-06)
(0.0035916 -3.33037e-06 3.59111e-06)
(0.00357846 -2.88856e-06 3.27365e-06)
(0.00356662 -2.45828e-06 2.96719e-06)
(0.00355603 -2.02605e-06 2.63795e-06)
(0.00354667 -1.58696e-06 2.29173e-06)
(0.00353851 -1.15013e-06 1.95546e-06)
(0.00353144 -7.20649e-07 1.65724e-06)
(0.00352532 -2.95487e-07 1.42078e-06)
(0.00351999 1.19281e-07 1.25546e-06)
(0.00351528 4.9954e-07 1.14371e-06)
(0.00351114 8.12924e-07 1.03824e-06)
(0.00350762 1.0269e-06 8.95698e-07)
(0.00350482 1.11249e-06 7.05527e-07)
(0.00350288 1.05084e-06 4.75448e-07)
(0.00350186 8.41944e-07 2.17269e-07)
(0.00350181 5.02471e-07 -4.35696e-08)
(0.00350266 6.3338e-08 -2.8402e-07)
(0.00440018 -8.19874e-06 2.27572e-05)
(0.00431291 -7.93991e-06 2.04989e-05)
(0.00423429 -7.87303e-06 1.84737e-05)
(0.00416338 -7.93818e-06 1.66768e-05)
(0.00409925 -8.07594e-06 1.51138e-05)
(0.00404104 -8.23529e-06 1.37566e-05)
(0.00398807 -8.38002e-06 1.2546e-05)
(0.0039398 -8.48298e-06 1.14314e-05)
(0.00389585 -8.52183e-06 1.03918e-05)
(0.00385588 -8.48497e-06 9.42911e-06)
(0.00381955 -8.3698e-06 8.55706e-06)
(0.0037865 -8.17636e-06 7.79047e-06)
(0.00375635 -7.91306e-06 7.12903e-06)
(0.00372876 -7.60382e-06 6.55126e-06)
(0.00370347 -7.27934e-06 6.02632e-06)
(0.00368029 -6.95946e-06 5.53495e-06)
(0.0036591 -6.63829e-06 5.0808e-06)
(0.00363974 -6.28314e-06 4.66859e-06)
(0.00362208 -5.86088e-06 4.28139e-06)
(0.00360603 -5.37364e-06 3.90655e-06)
(0.00359148 -4.85782e-06 3.55639e-06)
(0.00357834 -4.34091e-06 3.23307e-06)
(0.00356651 -3.8137e-06 2.91337e-06)
(0.00355594 -3.25132e-06 2.58516e-06)
(0.0035466 -2.65069e-06 2.25889e-06)
(0.00353844 -2.03847e-06 1.94927e-06)
(0.00353135 -1.45027e-06 1.67511e-06)
(0.00352519 -9.14474e-07 1.45982e-06)
(0.0035198 -4.50077e-07 1.31368e-06)
(0.00351503 -6.61772e-08 1.21737e-06)
(0.00351081 2.33311e-07 1.12565e-06)
(0.00350718 4.41223e-07 9.95898e-07)
(0.00350427 5.45178e-07 8.11002e-07)
(0.00350219 5.39007e-07 5.74861e-07)
(0.00350107 4.27218e-07 3.03985e-07)
(0.00350091 2.16876e-07 2.57214e-08)
(0.0035017 -8.46905e-08 -2.41001e-07)
(0.00350337 -4.43516e-07 -4.88571e-07)
(0.00439829 -1.59921e-05 2.33019e-05)
(0.00431083 -1.49585e-05 2.09664e-05)
(0.00423209 -1.41674e-05 1.88628e-05)
(0.0041611 -1.35699e-05 1.69832e-05)
(0.00409694 -1.31196e-05 1.53402e-05)
(0.00403875 -1.27632e-05 1.39148e-05)
(0.00398582 -1.24472e-05 1.26499e-05)
(0.00393761 -1.21278e-05 1.14937e-05)
(0.00389373 -1.17781e-05 1.04232e-05)
(0.00385382 -1.13897e-05 9.43515e-06)
(0.00381756 -1.09692e-05 8.54225e-06)
(0.00378457 -1.05292e-05 7.76592e-06)
(0.00375447 -1.00812e-05 7.11002e-06)
(0.0037269 -9.634e-06 6.54672e-06)
(0.0037016 -9.19298e-06 6.03123e-06)
(0.00367841 -8.76014e-06 5.53106e-06)
(0.00365723 -8.32874e-06 5.04913e-06)
(0.00363791 -7.87567e-06 4.60808e-06)
(0.0036203 -7.37333e-06 4.21125e-06)
(0.00360428 -6.81712e-06 3.84392e-06)
(0.00358975 -6.22778e-06 3.4976e-06)
(0.00357661 -5.62014e-06 3.16397e-06)
(0.00356481 -4.98589e-06 2.83313e-06)
(0.00355428 -4.31135e-06 2.51157e-06)
(0.00354497 -3.60242e-06 2.21337e-06)
(0.0035368 -2.89075e-06 1.94375e-06)
(0.00352966 -2.22321e-06 1.70991e-06)
(0.00352343 -1.64478e-06 1.52588e-06)
(0.00351795 -1.18209e-06 1.39738e-06)
(0.00351308 -8.34193e-07 1.30949e-06)
(0.00350877 -5.79663e-07 1.22497e-06)
(0.00350504 -3.96156e-07 1.10037e-06)
(0.00350202 -2.71877e-07 9.11318e-07)
(0.00349985 -2.01232e-07 6.61854e-07)
(0.00349863 -1.83337e-07 3.78017e-07)
(0.00349839 -2.24571e-07 8.8055e-08)
(0.00349912 -3.30863e-07 -2.00916e-07)
(0.00350077 -4.8468e-07 -4.91573e-07)
(0.00439074 -2.39472e-05 2.3181e-05)
(0.00430313 -2.20622e-05 2.08252e-05)
(0.00422428 -2.04598e-05 1.87014e-05)
(0.00415323 -1.90985e-05 1.67978e-05)
(0.00408904 -1.7957e-05 1.51305e-05)
(0.00403086 -1.69954e-05 1.36854e-05)
(0.00397796 -1.61493e-05 1.24064e-05)
(0.0039298 -1.53569e-05 1.12408e-05)
(0.00388598 -1.45802e-05 1.01666e-05)
(0.00384613 -1.38109e-05 9.18174e-06)
(0.00380991 -1.30685e-05 8.2978e-06)
(0.00377695 -1.23822e-05 7.5321e-06)
(0.00374685 -1.17648e-05 6.88419e-06)
(0.00371929 -1.12011e-05 6.32667e-06)
(0.00369398 -1.06584e-05 5.81712e-06)
(0.0036708 -1.01087e-05 5.31984e-06)
(0.00364962 -9.54526e-06 4.83287e-06)
(0.00363032 -8.97063e-06 4.38293e-06)
(0.00361274 -8.37742e-06 3.98396e-06)
(0.00359675 -7.75619e-06 3.62455e-06)
(0.00358223 -7.10683e-06 3.29034e-06)
(0.00356911 -6.42983e-06 2.96907e-06)
(0.00355732 -5.72242e-06 2.65371e-06)
(0.00354682 -4.98896e-06 2.35489e-06)
(0.00353752 -4.24698e-06 2.08911e-06)
(0.00352934 -3.52781e-06 1.86215e-06)
(0.00352215 -2.87528e-06 1.67558e-06)
(0.00351583 -2.33379e-06 1.53044e-06)
(0.00351023 -1.92807e-06 1.42193e-06)
(0.00350525 -1.64975e-06 1.33792e-06)
(0.00350083 -1.45958e-06 1.25181e-06)
(0.003497 -1.3068e-06 1.12426e-06)
(0.00349388 -1.1538e-06 9.28668e-07)
(0.00349163 -9.90363e-07 6.72452e-07)
(0.00349034 -8.29541e-07 3.87765e-07)
(0.00349003 -6.90401e-07 9.8583e-08)
(0.0034907 -5.79858e-07 -1.98113e-07)
(0.00349234 -4.9259e-07 -5.10524e-07)
(0.00435723 -2.85981e-05 2.0397e-05)
(0.00426975 -2.61182e-05 1.82776e-05)
(0.00419107 -2.39232e-05 1.63746e-05)
(0.0041202 -2.19858e-05 1.46762e-05)
(0.0040562 -2.0315e-05 1.31909e-05)
(0.00399821 -1.88881e-05 1.19017e-05)
(0.00394549 -1.76336e-05 1.07582e-05)
(0.00389752 -1.64767e-05 9.7162e-06)
(0.00385387 -1.53769e-05 8.76083e-06)
(0.00381418 -1.43328e-05 7.89375e-06)
(0.00377809 -1.33723e-05 7.12086e-06)
(0.00374522 -1.25281e-05 6.44575e-06)
(0.00371521 -1.18067e-05 5.86111e-06)
(0.00368771 -1.11775e-05 5.34931e-06)
(0.00366249 -1.05844e-05 4.88602e-06)
(0.00363936 -9.97564e-06 4.44572e-06)
(0.00361823 -9.33854e-06 4.02098e-06)
(0.00359896 -8.69396e-06 3.6275e-06)
(0.00358143 -8.05815e-06 3.27747e-06)
(0.00356547 -7.43074e-06 2.96631e-06)
(0.00355098 -6.80479e-06 2.68441e-06)
(0.00353788 -6.16768e-06 2.41975e-06)
(0.00352612 -5.5091e-06 2.16253e-06)
(0.00351565 -4.83798e-06 1.91913e-06)
(0.0035064 -4.18197e-06 1.70597e-06)
(0.00349824 -3.57668e-06 1.53292e-06)
(0.00349104 -3.05826e-06 1.39981e-06)
(0.00348466 -2.65255e-06 1.29698e-06)
(0.00347897 -2.3667e-06 1.21047e-06)
(0.00347387 -2.18501e-06 1.12942e-06)
(0.00346932 -2.06331e-06 1.03827e-06)
(0.00346537 -1.93878e-06 9.10055e-07)
(0.00346214 -1.76316e-06 7.25535e-07)
(0.00345977 -1.53084e-06 4.93369e-07)
(0.00345838 -1.26888e-06 2.40567e-07)
(0.00345799 -9.99926e-07 -1.50853e-08)
(0.00345862 -7.20335e-07 -2.77053e-07)
(0.00346025 -4.3221e-07 -5.51445e-07)
(0.0041411 -1.78343e-05 1.33265e-05)
(0.0040562 -1.62246e-05 1.18617e-05)
(0.00397989 -1.47761e-05 1.0563e-05)
(0.00391121 -1.34781e-05 9.41952e-06)
(0.00384922 -1.23449e-05 8.4263e-06)
(0.00379305 -1.13698e-05 7.56369e-06)
(0.00374199 -1.05097e-05 6.79797e-06)
(0.00369552 -9.71859e-06 6.10309e-06)
(0.00365324 -8.97501e-06 5.47128e-06)
(0.00361481 -8.28106e-06 4.90367e-06)
(0.00357986 -7.65308e-06 4.39972e-06)
(0.00354802 -7.10708e-06 3.95333e-06)
(0.00351893 -6.64303e-06 3.55516e-06)
(0.00349228 -6.24193e-06 3.1983e-06)
(0.00346782 -5.87046e-06 2.87783e-06)
(0.00344539 -5.49461e-06 2.58625e-06)
(0.00342487 -5.10385e-06 2.31849e-06)
(0.00340615 -4.7136e-06 2.07679e-06)
(0.00338911 -4.33939e-06 1.86292e-06)
(0.0033736 -3.98446e-06 1.67311e-06)
(0.00335951 -3.64509e-06 1.50178e-06)
(0.00334677 -3.31077e-06 1.34203e-06)
(0.00333534 -2.97038e-06 1.18882e-06)
(0.00332519 -2.62691e-06 1.04615e-06)
(0.00331625 -2.29778e-06 9.23961e-07)
(0.00330839 -2.00451e-06 8.28125e-07)
(0.00330144 -1.76493e-06 7.55944e-07)
(0.00329524 -1.5858e-06 6.96994e-07)
(0.00328968 -1.46257e-06 6.38921e-07)
(0.00328465 -1.38342e-06 5.74176e-07)
(0.00328013 -1.32507e-06 4.96319e-07)
(0.00327616 -1.25257e-06 3.93869e-07)
(0.00327287 -1.13849e-06 2.5807e-07)
(0.00327044 -9.82884e-07 9.3909e-08)
(0.00326899 -8.06404e-07 -8.32717e-08)
(0.00326857 -6.22747e-07 -2.61202e-07)
(0.0032692 -4.23712e-07 -4.35531e-07)
(0.00327084 -2.09203e-07 -6.05811e-07)
(0.00459874 1.08507e-05 4.97524e-05)
(0.00449893 9.78482e-06 4.444e-05)
(0.00440933 8.88798e-06 3.98228e-05)
(0.00432862 8.1033e-06 3.5784e-05)
(0.00425571 7.41012e-06 3.22412e-05)
(0.00418967 6.80106e-06 2.91305e-05)
(0.00412973 6.26528e-06 2.63916e-05)
(0.00407519 5.79018e-06 2.3966e-05)
(0.00402547 5.36626e-06 2.18037e-05)
(0.00398007 4.98501e-06 1.98675e-05)
(0.00393858 4.63514e-06 1.81266e-05)
(0.00390064 4.3069e-06 1.65482e-05)
(0.00386595 3.99983e-06 1.50991e-05)
(0.00383424 3.72193e-06 1.37576e-05)
(0.00380525 3.47937e-06 1.25163e-05)
(0.00377875 3.26788e-06 1.13707e-05)
(0.0037545 3.07485e-06 1.03105e-05)
(0.00373233 2.89094e-06 9.32574e-06)
(0.00371209 2.71315e-06 8.413e-06)
(0.00369367 2.53499e-06 7.56604e-06)
(0.00367695 2.34629e-06 6.76795e-06)
(0.00366186 2.14752e-06 6.00455e-06)
(0.00364832 1.95142e-06 5.27997e-06)
(0.00363625 1.77194e-06 4.61032e-06)
(0.00362553 1.62141e-06 4.00528e-06)
(0.00361602 1.51079e-06 3.45986e-06)
(0.00360759 1.44237e-06 2.95942e-06)
(0.00360013 1.40426e-06 2.49021e-06)
(0.00359357 1.37404e-06 2.04338e-06)
(0.00358785 1.32887e-06 1.61208e-06)
(0.00358298 1.25451e-06 1.19029e-06)
(0.00357894 1.14365e-06 7.76581e-07)
(0.00357576 9.93729e-07 3.76874e-07)
(0.00357347 8.11722e-07 2.37601e-09)
(0.00357207 6.17898e-07 -3.34342e-07)
(0.00357152 4.32188e-07 -6.28687e-07)
(0.00357175 2.7311e-07 -8.8157e-07)
(0.00357267 1.46496e-07 -1.10505e-06)
(0.00479466 1.93383e-05 6.71873e-05)
(0.00469152 1.73861e-05 6.02753e-05)
(0.00459889 1.57507e-05 5.42511e-05)
(0.00451545 1.4339e-05 4.89499e-05)
(0.00444009 1.31046e-05 4.42762e-05)
(0.00437185 1.20223e-05 4.01557e-05)
(0.00430995 1.10695e-05 3.65105e-05)
(0.00425367 1.02235e-05 3.32691e-05)
(0.00420243 9.46327e-06 3.03775e-05)
(0.0041557 8.77004e-06 2.77909e-05)
(0.00411306 8.1272e-06 2.54584e-05)
(0.00407412 7.52614e-06 2.3327e-05)
(0.00403858 6.97191e-06 2.13624e-05)
(0.00400612 6.47881e-06 1.95545e-05)
(0.00397646 6.05608e-06 1.78964e-05)
(0.00394936 5.69542e-06 1.63679e-05)
(0.00392459 5.37487e-06 1.49419e-05)
(0.00390196 5.07604e-06 1.36049e-05)
(0.00388132 4.78951e-06 1.23561e-05)
(0.00386254 4.50298e-06 1.11815e-05)
(0.00384551 4.20123e-06 1.0055e-05)
(0.00383012 3.88335e-06 8.97407e-06)
(0.00381627 3.56598e-06 7.96276e-06)
(0.00380386 3.27069e-06 7.03893e-06)
(0.00379279 3.01808e-06 6.20589e-06)
(0.00378295 2.82465e-06 5.46536e-06)
(0.00377424 2.69301e-06 4.81272e-06)
(0.00376655 2.60727e-06 4.2255e-06)
(0.00375983 2.53938e-06 3.66672e-06)
(0.00375401 2.45834e-06 3.10118e-06)
(0.00374907 2.33729e-06 2.51647e-06)
(0.00374499 2.15506e-06 1.9212e-06)
(0.00374178 1.90036e-06 1.3271e-06)
(0.00373942 1.58197e-06 7.53428e-07)
(0.00373793 1.22963e-06 2.27114e-07)
(0.00373727 8.77132e-07 -2.35343e-07)
(0.0037374 5.58611e-07 -6.2809e-07)
(0.00373826 2.88436e-07 -9.55059e-07)
(0.00481655 1.88669e-05 7.43976e-05)
(0.00471321 1.6893e-05 6.68175e-05)
(0.00462036 1.52388e-05 6.02406e-05)
(0.0045367 1.38194e-05 5.44726e-05)
(0.00446112 1.25836e-05 4.93889e-05)
(0.00439271 1.14988e-05 4.48884e-05)
(0.00433066 1.05394e-05 4.08853e-05)
(0.00427428 9.68072e-06 3.73201e-05)
(0.00422298 8.89903e-06 3.41462e-05)
(0.00417623 8.1754e-06 3.13032e-05)
(0.00413361 7.4998e-06 2.87143e-05)
(0.00409475 6.87314e-06 2.63218e-05)
(0.00405931 6.30665e-06 2.41115e-05)
(0.00402697 5.81621e-06 2.20954e-05)
(0.00399745 5.41144e-06 2.02741e-05)
(0.00397047 5.08457e-06 1.86157e-05)
(0.00394582 4.81266e-06 1.70688e-05)
(0.00392332 4.57273e-06 1.56041e-05)
(0.00390279 4.35003e-06 1.42222e-05)
(0.00388412 4.13162e-06 1.2914e-05)
(0.00386719 3.90447e-06 1.16554e-05)
(0.00385188 3.66479e-06 1.04493e-05)
(0.00383808 3.42052e-06 9.32167e-06)
(0.0038257 3.18467e-06 8.28388e-06)
(0.00381463 2.97239e-06 7.3386e-06)
(0.00380478 2.7977e-06 6.49771e-06)
(0.00379606 2.66651e-06 5.76385e-06)
(0.0037884 2.57479e-06 5.10958e-06)
(0.00378171 2.51026e-06 4.48502e-06)
(0.00377595 2.4521e-06 3.8511e-06)
(0.00377106 2.37273e-06 3.20432e-06)
(0.00376702 2.24189e-06 2.55213e-06)
(0.00376382 2.03543e-06 1.88904e-06)
(0.00376146 1.74911e-06 1.22377e-06)
(0.00375994 1.40144e-06 5.90398e-07)
(0.00375925 1.0242e-06 2.26569e-08)
(0.00375935 6.55404e-07 -4.51435e-07)
(0.00376021 3.21964e-07 -8.29426e-07)
(0.00481856 1.45694e-05 7.58546e-05)
(0.00471536 1.29765e-05 6.81398e-05)
(0.0046226 1.16182e-05 6.1477e-05)
(0.004539 1.04372e-05 5.56506e-05)
(0.00446347 9.39966e-06 5.05167e-05)
(0.0043951 8.48437e-06 4.59623e-05)
(0.0043331 7.67048e-06 4.19056e-05)
(0.00427677 6.93433e-06 3.82949e-05)
(0.00422552 6.25467e-06 3.50752e-05)
(0.00417884 5.62006e-06 3.21638e-05)
(0.00413632 5.0311e-06 2.94774e-05)
(0.00409758 4.49689e-06 2.69797e-05)
(0.00406227 4.03061e-06 2.46839e-05)
(0.00403008 3.64447e-06 2.26127e-05)
(0.00400069 3.34317e-06 2.07645e-05)
(0.00397385 3.11931e-06 1.90979e-05)
(0.00394932 2.95518e-06 1.75505e-05)
(0.00392692 2.83117e-06 1.60882e-05)
(0.00390649 2.73157e-06 1.47103e-05)
(0.0038879 2.64312e-06 1.34004e-05)
(0.00387105 2.5547e-06 1.21333e-05)
(0.0038558 2.46119e-06 1.09234e-05)
(0.00384204 2.36283e-06 9.7994e-06)
(0.00382969 2.26084e-06 8.75513e-06)
(0.00381863 2.15916e-06 7.77615e-06)
(0.0038088 2.06669e-06 6.87727e-06)
(0.00380011 1.99466e-06 6.07761e-06)
(0.00379249 1.95224e-06 5.36404e-06)
(0.00378585 1.94082e-06 4.69583e-06)
(0.00378012 1.94792e-06 4.04605e-06)
(0.00377525 1.948e-06 3.41781e-06)
(0.00377121 1.90829e-06 2.80153e-06)
(0.00376799 1.79766e-06 2.16226e-06)
(0.0037656 1.59993e-06 1.49173e-06)
(0.00376404 1.32053e-06 8.23318e-07)
(0.00376331 9.82355e-07 2.01551e-07)
(0.0037634 6.18703e-07 -3.30985e-07)
(0.00376427 2.67301e-07 -7.63445e-07)
(0.00481797 8.89964e-06 7.53382e-05)
(0.00471489 7.8353e-06 6.76786e-05)
(0.00462223 6.88313e-06 6.10638e-05)
(0.00453869 6.02527e-06 5.52727e-05)
(0.00446323 5.25226e-06 5.01701e-05)
(0.00439493 4.55855e-06 4.56571e-05)
(0.00433298 3.93291e-06 4.1653e-05)
(0.00427669 3.3596e-06 3.80882e-05)
(0.00422549 2.82689e-06 3.48826e-05)
(0.00417887 2.33331e-06 3.19449e-05)
(0.00413642 1.88642e-06 2.9214e-05)
(0.00409777 1.49776e-06 2.66855e-05)
(0.00406256 1.17811e-06 2.43844e-05)
(0.00403047 9.3368e-07 2.23224e-05)
(0.00400119 7.63928e-07 2.04854e-05)
(0.00397443 6.62093e-07 1.88328e-05)
(0.00394998 6.16854e-07 1.7314e-05)
(0.00392765 6.14922e-07 1.59041e-05)
(0.00390728 6.44288e-07 1.45895e-05)
(0.00388874 6.94476e-07 1.3329e-05)
(0.00387192 7.55249e-07 1.20959e-05)
(0.0038567 8.18612e-07 1.09277e-05)
(0.00384296 8.78627e-07 9.85991e-06)
(0.00383061 9.29669e-07 8.85977e-06)
(0.00381955 9.68256e-07 7.8839e-06)
(0.00380972 9.97652e-07 6.94372e-06)
(0.00380105 1.02852e-06 6.07831e-06)
(0.00379345 1.07487e-06 5.30365e-06)
(0.00378684 1.14503e-06 4.60722e-06)
(0.00378114 1.23322e-06 3.97885e-06)
(0.00377627 1.31897e-06 3.41316e-06)
(0.00377221 1.37164e-06 2.87056e-06)
(0.00376895 1.35902e-06 2.29052e-06)
(0.00376649 1.26e-06 1.6544e-06)
(0.00376486 1.07103e-06 9.89129e-07)
(0.00376408 8.05282e-07 3.35171e-07)
(0.00376414 4.88473e-07 -2.61295e-07)
(0.00376502 1.57225e-07 -7.75635e-07)
(0.00471432 2.88116e-06 6.72042e-05)
(0.00462168 2.33923e-06 6.05996e-05)
(0.00453818 1.80483e-06 5.47936e-05)
(0.00446276 1.29114e-06 4.96795e-05)
(0.00439449 8.07628e-07 4.51817e-05)
(0.00433258 3.58051e-07 4.12126e-05)
(0.00427633 -5.73892e-08 3.76709e-05)
(0.00422517 -4.37724e-07 3.44537e-05)
(0.0041786 -7.78334e-07 3.148e-05)
(0.00413621 -1.07057e-06 2.8719e-05)
(0.00409762 -1.30451e-06 2.6188e-05)
(0.00406249 -1.47342e-06 2.39064e-05)
(0.00403047 -1.57731e-06 2.18676e-05)
(0.00400126 -1.62227e-06 2.00453e-05)
(0.00397456 -1.61612e-06 1.84036e-05)
(0.00395017 -1.56539e-06 1.69109e-05)
(0.00392788 -1.47462e-06 1.55528e-05)
(0.00390755 -1.34708e-06 1.42998e-05)
(0.00388904 -1.18835e-06 1.3089e-05)
(0.00387224 -1.00895e-06 1.18976e-05)
(0.00385703 -8.19985e-07 1.0781e-05)
(0.00384329 -6.29138e-07 9.77268e-06)
(0.00383093 -4.42102e-07 8.81776e-06)
(0.00381987 -2.64139e-07 7.85526e-06)
(0.00381003 -9.74383e-08 6.89383e-06)
(0.00380136 6.10662e-08 5.98394e-06)
(0.00379378 2.18857e-07 5.16777e-06)
(0.00378719 3.81624e-07 4.46513e-06)
(0.00378149 5.46073e-07 3.87994e-06)
(0.00377661 6.97724e-07 3.38652e-06)
(0.00377251 8.13939e-07 2.91513e-06)
(0.00376919 8.69502e-07 2.39264e-06)
(0.00376665 8.47393e-07 1.79705e-06)
(0.00376495 7.42226e-07 1.14464e-06)
(0.00376411 5.59371e-07 4.64819e-07)
(0.00376413 3.14495e-07 -1.95697e-07)
(0.003765 3.35467e-08 -7.97097e-07)
(0.00471403 -2.05919e-06 6.74205e-05)
(0.00462134 -2.16234e-06 6.07407e-05)
(0.00453782 -2.33588e-06 5.48349e-05)
(0.0044624 -2.55429e-06 4.96284e-05)
(0.00439415 -2.79708e-06 4.50655e-05)
(0.00433226 -3.04398e-06 4.10525e-05)
(0.00427604 -3.27577e-06 3.74645e-05)
(0.00422491 -3.47876e-06 3.41897e-05)
(0.00417838 -3.64428e-06 3.11633e-05)
(0.00413604 -3.76523e-06 2.8372e-05)
(0.00409751 -3.83558e-06 2.58335e-05)
(0.00406244 -3.85377e-06 2.35613e-05)
(0.00403047 -3.82466e-06 2.15427e-05)
(0.0040013 -3.75699e-06 1.97415e-05)
(0.00397464 -3.65753e-06 1.81146e-05)
(0.00395028 -3.52757e-06 1.66334e-05)
(0.00392803 -3.36322e-06 1.5289e-05)
(0.00390773 -3.15943e-06 1.40539e-05)
(0.00388925 -2.91707e-06 1.28691e-05)
(0.00387247 -2.64565e-06 1.17156e-05)
(0.00385726 -2.35661e-06 1.06398e-05)
(0.00384353 -2.05634e-06 9.65951e-06)
(0.00383117 -1.74851e-06 8.71867e-06)
(0.00382009 -1.4384e-06 7.76746e-06)
(0.00381025 -1.13377e-06 6.81591e-06)
(0.00380157 -8.43335e-07 5.9078e-06)
(0.00379398 -5.73566e-07 5.09256e-06)
(0.00378739 -3.27689e-07 4.4103e-06)
(0.00378167 -1.0864e-07 3.87052e-06)
(0.00377677 7.80292e-08 3.43349e-06)
(0.00377262 2.22922e-07 3.01417e-06)
(0.00376923 3.15533e-07 2.53531e-06)
(0.00376663 3.49602e-07 1.96962e-06)
(0.00376485 3.22189e-07 1.32313e-06)
(0.00376395 2.32076e-07 6.20088e-07)
(0.00376392 8.35754e-08 -9.10482e-08)
(0.00376475 -1.10499e-07 -7.64714e-07)
(0.00471404 -7.2293e-06 6.82201e-05)
(0.00462125 -6.83731e-06 6.14093e-05)
(0.00453766 -6.57935e-06 5.53553e-05)
(0.00446219 -6.42848e-06 4.99974e-05)
(0.00439392 -6.3616e-06 4.52969e-05)
(0.00433203 -6.34597e-06 4.1167e-05)
(0.00427583 -6.34405e-06 3.74795e-05)
(0.00422472 -6.3282e-06 3.41234e-05)
(0.00417823 -6.28392e-06 3.10382e-05)
(0.00413593 -6.20574e-06 2.8207e-05)
(0.00409744 -6.09567e-06 2.56418e-05)
(0.0040624 -5.96051e-06 2.33629e-05)
(0.00403046 -5.80762e-06 2.13626e-05)
(0.0040013 -5.6415e-06 1.95922e-05)
(0.00397466 -5.46056e-06 1.79854e-05)
(0.00395032 -5.2572e-06 1.64978e-05)
(0.00392809 -5.02259e-06 1.51245e-05)
(0.00390782 -4.75018e-06 1.38635e-05)
(0.00388936 -4.43834e-06 1.26822e-05)
(0.00387259 -4.09213e-06 1.1558e-05)
(0.0038574 -3.7188e-06 1.05046e-05)
(0.00384367 -3.32217e-06 9.52036e-06)
(0.00383131 -2.90548e-06 8.56887e-06)
(0.00382023 -2.4765e-06 7.63123e-06)
(0.00381037 -2.04967e-06 6.72133e-06)
(0.00380168 -1.64563e-06 5.86411e-06)
(0.00379406 -1.28503e-06 5.09618e-06)
(0.00378742 -9.80952e-07 4.45794e-06)
(0.00378167 -7.36712e-07 3.96001e-06)
(0.00377671 -5.48238e-07 3.56077e-06)
(0.00377251 -4.08002e-07 3.17665e-06)
(0.00376906 -3.05773e-07 2.72774e-06)
(0.00376639 -2.32105e-07 2.175e-06)
(0.00376455 -1.85702e-07 1.5195e-06)
(0.00376358 -1.74324e-07 7.9255e-07)
(0.0037635 -2.04383e-07 4.49515e-08)
(0.00376429 -2.74667e-07 -6.88985e-07)
(0.00376594 -3.73329e-07 -1.38403e-06)
(0.00471396 -1.27121e-05 6.87966e-05)
(0.00462103 -1.17556e-05 6.18732e-05)
(0.00453732 -1.09826e-05 5.56967e-05)
(0.00446177 -1.03722e-05 5.02051e-05)
(0.00439345 -9.90993e-06 4.53752e-05)
(0.00433154 -9.55838e-06 4.11361e-05)
(0.00427534 -9.26306e-06 3.73629e-05)
(0.00422424 -8.97946e-06 3.3943e-05)
(0.00417777 -8.68505e-06 3.08131e-05)
(0.00413548 -8.37791e-06 2.79496e-05)
(0.00409701 -8.0719e-06 2.53644e-05)
(0.00406198 -7.78303e-06 2.30848e-05)
(0.00403004 -7.5169e-06 2.1105e-05)
(0.00400088 -7.26614e-06 1.93645e-05)
(0.00397422 -7.01204e-06 1.77768e-05)
(0.00394988 -6.73367e-06 1.62794e-05)
(0.00392765 -6.42096e-06 1.48686e-05)
(0.00390739 -6.07343e-06 1.35712e-05)
(0.00388894 -5.69134e-06 1.23844e-05)
(0.00387217 -5.27544e-06 1.12802e-05)
(0.00385697 -4.82701e-06 1.02426e-05)
(0.00384324 -4.3458e-06 9.25679e-06)
(0.00383088 -3.83544e-06 8.30624e-06)
(0.00381979 -3.30937e-06 7.39814e-06)
(0.00380992 -2.7912e-06 6.55074e-06)
(0.00380119 -2.31222e-06 5.77423e-06)
(0.00379352 -1.90288e-06 5.08669e-06)