/*--------------------------------*- C++ -*----------------------------------*\
| =========                 |                                                 |
| \\      /  F ield         | OpenFOAM: The Open Source CFD Toolbox           |
|  \\    /   O peration     | Version:  2.3.1                                 |
|   \\  /    A nd           | Web:      www.OpenFOAM.org                      |
|    \\/     M anipulation  |                                                 |
\*---------------------------------------------------------------------------*/
FoamFile
{
    version     2.0;
    format      ascii;
    class       volScalarField;
    location    "15";
    object      epsilon_0;
}
// * * * * * * * * * * * * * * * * * * * * * * * * * * * * * * * * * * * * * //

dimensions      [0 2 -3 0 0 0 0];

internalField   nonuniform List<scalar> 
38152
(
0.000439782
0.000460918
0.000460734
0.000448667
0.000424851
0.000424751
0.000429494
0.000454543
0.000532374
0.000561908
0.000555534
0.000537008
0.00049991
0.000357344
0.000208534
0.000164969
0.000145706
0.00012971
0.000125605
0.000126161
0.000126655
0.000127551
0.000126918
0.000127809
0.000132284
0.000128596
0.000102992
6.5427e-05
5.00975e-05
4.73835e-05
5.10848e-05
5.60417e-05
5.56147e-05
5.25664e-05
5.12017e-05
4.45241e-05
1.62746e-05
1.84744e-06
5.17015e-07
3.99865e-07
3.65565e-07
3.43859e-07
3.26614e-07
3.32335e-07
0.00054496
0.000559565
0.000613747
0.000662865
0.000632614
0.000544938
0.000547002
0.000597967
0.000600424
0.000512299
0.000224828
0.000127231
0.000140066
0.000159436
0.000154203
0.000140174
0.000121312
0.000113832
0.000115425
0.000118195
0.000120075
0.000120893
0.000127241
0.000133124
0.000127733
0.000104441
7.00108e-05
6.38077e-05
6.6044e-05
6.93661e-05
7.66344e-05
8.19175e-05
7.77623e-05
5.48239e-05
2.58201e-05
1.30911e-05
3.07563e-06
9.30464e-07
7.22459e-07
6.81228e-07
6.51625e-07
6.11961e-07
5.28308e-07
3.73626e-07
0.000185231
0.000189004
0.000196506
0.000214079
0.000235005
0.000242673
0.00026083
0.000306156
0.000283784
0.000200892
7.86172e-05
5.36733e-05
5.99577e-05
6.30739e-05
5.79399e-05
4.7898e-05
3.9551e-05
3.82961e-05
4.43563e-05
5.39638e-05
6.18453e-05
6.7051e-05
6.98784e-05
6.96937e-05
6.99069e-05
7.55187e-05
7.62797e-05
7.03668e-05
6.08319e-05
6.0247e-05
6.61655e-05
8.85569e-05
9.3746e-05
7.69959e-05
2.36113e-05
5.79798e-06
2.36937e-06
1.22013e-06
9.85023e-07
9.24823e-07
8.81564e-07
8.41258e-07
7.77971e-07
6.40435e-07
3.92293e-07
5.51178e-05
5.79101e-05
5.80645e-05
6.01253e-05
5.76904e-05
5.17675e-05
5.20868e-05
5.82074e-05
5.46912e-05
4.08107e-05
3.39667e-05
3.34997e-05
3.36573e-05
3.31727e-05
3.10455e-05
2.92907e-05
2.86571e-05
3.01317e-05
3.36705e-05
3.85752e-05
4.30707e-05
4.51774e-05
4.48674e-05
4.14229e-05
4.21552e-05
5.02374e-05
5.71039e-05
5.41446e-05
4.69887e-05
5.36696e-05
7.73834e-05
9.06738e-05
8.75051e-05
7.08454e-05
3.04765e-05
9.5416e-06
2.5956e-06
1.29584e-06
1.08543e-06
1.0152e-06
9.71612e-07
9.29493e-07
8.58678e-07
7.05166e-07
4.13341e-07
3.08406e-05
3.20365e-05
3.3315e-05
3.33995e-05
3.3367e-05
3.24266e-05
3.05248e-05
2.78578e-05
2.61905e-05
2.54742e-05
2.51794e-05
2.48208e-05
2.4283e-05
2.38784e-05
2.38229e-05
2.46508e-05
2.66517e-05
2.97012e-05
3.3431e-05
3.65045e-05
3.78922e-05
3.5831e-05
3.20148e-05
2.46488e-05
2.05914e-05
1.83369e-05
1.77176e-05
2.44769e-05
4.19488e-05
5.72775e-05
6.63403e-05
6.75253e-05
6.21858e-05
3.8451e-05
1.14189e-05
2.64088e-06
1.29796e-06
1.10862e-06
1.04646e-06
1.00733e-06
9.70012e-07
9.12438e-07
8.01282e-07
6.12344e-07
2.59956e-05
2.72312e-05
2.82652e-05
2.86577e-05
2.87373e-05
2.81908e-05
2.74021e-05
2.65339e-05
2.59987e-05
2.56988e-05
2.54659e-05
2.51364e-05
2.48284e-05
2.47263e-05
2.51349e-05
2.6307e-05
2.81799e-05
3.03077e-05
3.26864e-05
3.41766e-05
3.28582e-05
2.8819e-05
1.50161e-05
4.50665e-06
2.99813e-06
3.25971e-06
4.63478e-06
8.2608e-06
1.52813e-05
2.52009e-05
3.54714e-05
4.27135e-05
4.26958e-05
2.31573e-05
5.03792e-06
1.61412e-06
1.18776e-06
1.09063e-06
1.04375e-06
1.01236e-06
9.81443e-07
9.36024e-07
8.58769e-07
7.5051e-07
1.67699e-05
1.84363e-05
1.92062e-05
2.16618e-05
2.36487e-05
2.46412e-05
2.50097e-05
2.50742e-05
2.50445e-05
2.51597e-05
2.52361e-05
2.53394e-05
2.55108e-05
2.58691e-05
2.62954e-05
2.68052e-05
2.74381e-05
2.82462e-05
2.94095e-05
2.97748e-05
2.90386e-05
2.54136e-05
1.17465e-05
2.37651e-06
1.49459e-06
1.63339e-06
1.85921e-06
2.28925e-06
3.24946e-06
5.2061e-06
8.46199e-06
1.31824e-05
1.62913e-05
1.22745e-05
4.49956e-06
1.7007e-06
1.22486e-06
1.11224e-06
1.05961e-06
1.02738e-06
1.00203e-06
9.74793e-07
9.3212e-07
8.57469e-07
7.53248e-07
1.34715e-05
1.33661e-05
1.31075e-05
1.44233e-05
1.4902e-05
1.67628e-05
1.81221e-05
1.96612e-05
2.08784e-05
2.17162e-05
2.24298e-05
2.31275e-05
2.37836e-05
2.43992e-05
2.49623e-05
2.54348e-05
2.5754e-05
2.58151e-05
2.55108e-05
2.35175e-05
1.70415e-05
6.77902e-06
2.13325e-06
1.51027e-06
1.49398e-06
1.50167e-06
1.5208e-06
1.59529e-06
1.78998e-06
2.23138e-06
3.02562e-06
3.82219e-06
4.01251e-06
2.71621e-06
1.58761e-06
1.22896e-06
1.11577e-06
1.0583e-06
1.02287e-06
9.98431e-07
9.77694e-07
9.5133e-07
9.00601e-07
7.98469e-07
6.10018e-07
1.15202e-05
1.0628e-05
1.01008e-05
9.88919e-06
9.78879e-06
9.99317e-06
1.04289e-05
1.11264e-05
1.19804e-05
1.30987e-05
1.42933e-05
1.55348e-05
1.68088e-05
1.78633e-05
1.87293e-05
1.91493e-05
1.87966e-05
1.68055e-05
1.24012e-05
6.95834e-06
3.21288e-06
1.78378e-06
1.44615e-06
1.40497e-06
1.40042e-06
1.40312e-06
1.40178e-06
1.39891e-06
1.40755e-06
1.45103e-06
1.52847e-06
1.60548e-06
1.55392e-06
1.33989e-06
1.17381e-06
1.08364e-06
1.0187e-05
9.64133e-06
8.55497e-06
8.16786e-06
7.30923e-06
7.03379e-06
6.61267e-06
6.4921e-06
6.46086e-06
6.49888e-06
6.64881e-06
6.86987e-06
7.087e-06
7.17635e-06
7.18219e-06
6.78499e-06
5.7122e-06
4.20683e-06
2.84655e-06
1.96611e-06
1.56526e-06
1.40032e-06
1.32906e-06
1.29216e-06
1.2701e-06
1.25534e-06
1.24556e-06
1.23849e-06
1.23192e-06
1.22529e-06
1.21749e-06
1.19524e-06
1.14468e-06
1.07267e-06
1.00518e-06
8.17776e-06
7.80659e-06
6.96097e-06
6.8053e-06
5.868e-06
5.67686e-06
4.9518e-06
4.71899e-06
4.24617e-06
3.97811e-06
3.70763e-06
3.48026e-06
3.26672e-06
3.0422e-06
2.79062e-06
2.48213e-06
2.12433e-06
1.78757e-06
1.52774e-06
1.35266e-06
1.23246e-06
1.14552e-06
1.08551e-06
1.04181e-06
1.01112e-06
9.91758e-07
9.80657e-07
9.74142e-07
9.68749e-07
9.60249e-07
9.44631e-07
9.1685e-07
8.74384e-07
8.24028e-07
7.75474e-07
4.62349e-06
4.40637e-06
3.95658e-06
3.82137e-06
3.39384e-06
3.25307e-06
2.87684e-06
2.72565e-06
2.43795e-06
2.24423e-06
2.02926e-06
1.83928e-06
1.65935e-06
1.49199e-06
1.33587e-06
1.19061e-06
1.05817e-06
9.43475e-07
8.48561e-07
7.7223e-07
7.11265e-07
6.63604e-07
6.27359e-07
6.01151e-07
5.83252e-07
5.6956e-07
5.57433e-07
5.45072e-07
5.30837e-07
5.13512e-07
4.92693e-07
4.69219e-07
4.43021e-07
4.1625e-07
3.91866e-07
0.000511473
0.000524038
0.000517054
0.000476251
0.00046206
0.000459808
0.000459162
0.000462693
0.00045437
0.000419752
0.000366771
0.000325021
0.000254731
0.000173105
0.000135758
0.000122997
0.000111154
0.000103085
9.69767e-05
9.25249e-05
9.21809e-05
9.54206e-05
0.000101596
0.000102637
0.000100897
8.94415e-05
5.75018e-05
4.23433e-05
4.01882e-05
4.20717e-05
4.34187e-05
4.19761e-05
3.72522e-05
3.70279e-05
3.67836e-05
3.1058e-05
9.5408e-06
1.11263e-06
4.42191e-07
4.10313e-07
4.07178e-07
3.9988e-07
3.79755e-07
3.47528e-07
0.00056282
0.000578714
0.000606552
0.000631013
0.000624564
0.000574059
0.000540196
0.000544284
0.000576374
0.000559584
0.000345777
0.000262099
0.000241689
0.000211198
0.000188182
0.000164524
0.000138028
0.000118396
0.000108088
0.000106118
0.000109111
0.000115504
0.000114884
0.000101906
9.09185e-05
7.97358e-05
5.71529e-05
4.87315e-05
4.68384e-05
4.50246e-05
4.59059e-05
4.96661e-05
5.14673e-05
4.97633e-05
3.24048e-05
1.30294e-05
2.77572e-06
7.41758e-07
5.40666e-07
5.07461e-07
4.94104e-07
4.79915e-07
4.47793e-07
4.01144e-07
0.000223246
0.000233976
0.000242283
0.000258747
0.000276712
0.000286018
0.000296363
0.00032324
0.000339949
0.000258583
0.000125445
7.27026e-05
6.6003e-05
6.79861e-05
6.29252e-05
5.08703e-05
4.08372e-05
3.64e-05
3.8034e-05
4.25719e-05
4.56726e-05
4.67265e-05
4.56866e-05
4.06525e-05
3.93978e-05
4.39792e-05
4.89196e-05
4.48981e-05
4.01587e-05
4.22972e-05
4.85497e-05
5.18928e-05
5.94573e-05
6.98659e-05
3.58233e-05
7.76461e-06
2.37379e-06
9.26076e-07
6.65226e-07
6.03103e-07
5.74741e-07
5.56999e-07
5.36097e-07
4.92719e-07
4.34991e-07
6.25494e-05
6.72981e-05
7.2883e-05
8.26486e-05
8.97076e-05
9.14664e-05
8.397e-05
7.63881e-05
6.46597e-05
4.25116e-05
2.79113e-05
2.26452e-05
2.12065e-05
2.05776e-05
1.86088e-05
1.6669e-05
1.57767e-05
1.58648e-05
1.72583e-05
1.96144e-05
2.28031e-05
2.48019e-05
2.4388e-05
2.25835e-05
2.30461e-05
2.95943e-05
4.32153e-05
4.32198e-05
3.81937e-05
3.98579e-05
4.83568e-05
5.41668e-05
5.63263e-05
5.37067e-05
2.89088e-05
8.94376e-06
2.45946e-06
9.62047e-07
6.97357e-07
6.3031e-07
6.01363e-07
5.83161e-07
5.61298e-07
5.18921e-07
4.90668e-07
1.74886e-05
1.7311e-05
1.78449e-05
1.88493e-05
1.9233e-05
1.92619e-05
1.83858e-05
1.60783e-05
1.34626e-05
1.20998e-05
1.15783e-05
1.14234e-05
1.13724e-05
1.14726e-05
1.1915e-05
1.29352e-05
1.45383e-05
1.7023e-05
2.07436e-05
2.4066e-05
2.55245e-05
2.41679e-05
1.7282e-05
1.23927e-05
1.10455e-05
1.18544e-05
1.45191e-05
2.02776e-05
2.81083e-05
3.63363e-05
4.30915e-05
4.49206e-05
4.34e-05
2.94641e-05
1.05321e-05
2.61729e-06
9.53912e-07
6.94272e-07
6.33597e-07
6.08438e-07
5.92521e-07
5.74732e-07
5.42915e-07
4.90897e-07
1.11735e-05
1.10366e-05
1.12026e-05
1.12448e-05
1.13329e-05
1.12739e-05
1.11515e-05
1.07314e-05
1.05305e-05
1.047e-05
1.06201e-05
1.08953e-05
1.13092e-05
1.19244e-05
1.29766e-05
1.46269e-05
1.69512e-05
1.99291e-05
2.26676e-05
2.4064e-05
2.31663e-05
1.66583e-05
6.48478e-06
2.82969e-06
2.85536e-06
3.88649e-06
5.71168e-06
8.87784e-06
1.45412e-05
2.15298e-05
2.82936e-05
3.31546e-05
3.32156e-05
2.05087e-05
5.41724e-06
1.42228e-06
7.81238e-07
6.64292e-07
6.25227e-07
6.06354e-07
5.94013e-07
5.8077e-07
5.59254e-07
5.26665e-07
8.05719e-06
9.00754e-06
1.00537e-05
1.06383e-05
1.10504e-05
1.12549e-05
1.1369e-05
1.14562e-05
1.14977e-05
1.16387e-05
1.19458e-05
1.24709e-05
1.32298e-05
1.42435e-05
1.55538e-05
1.71696e-05
1.90289e-05
2.08496e-05
2.23851e-05
2.27584e-05
2.13251e-05
1.49059e-05
4.95365e-06
1.58853e-06
1.27812e-06
1.36197e-06
1.63536e-06
2.20471e-06
3.38509e-06
5.64735e-06
9.10431e-06
1.29967e-05
1.53904e-05
1.23562e-05
5.07367e-06
1.57273e-06
8.39936e-07
6.87366e-07
6.37026e-07
6.13886e-07
6.00954e-07
5.9112e-07
5.79195e-07
5.58762e-07
5.27896e-07
4.47956e-06
4.90796e-06
5.95765e-06
6.92207e-06
8.5471e-06
9.69212e-06
1.12066e-05
1.21487e-05
1.32196e-05
1.41711e-05
1.52375e-05
1.64139e-05
1.77458e-05
1.91347e-05
2.0518e-05
2.16593e-05
2.23455e-05
2.19171e-05
2.01371e-05
1.55172e-05
8.70415e-06
3.25098e-06
1.39333e-06
1.00872e-06
9.29254e-07
9.35624e-07
9.9561e-07
1.12591e-06
1.3954e-06
1.932e-06
2.86404e-06
3.88124e-06
4.31183e-06
2.93093e-06
1.3921e-06
8.44844e-07
6.97533e-07
6.42882e-07
6.16651e-07
6.02221e-07
5.92915e-07
5.8439e-07
5.70596e-07
5.42281e-07
4.91564e-07
2.89468e-06
2.88833e-06
2.91004e-06
3.20615e-06
3.57718e-06
4.23177e-06
5.05871e-06
6.16713e-06
7.36753e-06
8.72982e-06
1.02146e-05
1.17769e-05
1.33073e-05
1.45355e-05
1.51932e-05
1.5061e-05
1.34437e-05
1.03916e-05
6.62995e-06
3.45144e-06
1.80945e-06
1.09414e-06
8.52907e-07
7.75426e-07
7.51867e-07
7.50452e-07
7.61898e-07
7.89564e-07
8.43798e-07
9.41492e-07
1.09836e-06
1.25915e-06
1.27638e-06
1.00427e-06
7.82501e-07
6.83583e-07
2.42337e-06
2.25339e-06
2.11719e-06
2.04933e-06
2.02083e-06
2.01801e-06
2.10429e-06
2.26265e-06
2.52145e-06
2.80841e-06
3.14194e-06
3.49133e-06
3.835e-06
4.01185e-06
4.05286e-06
3.7497e-06
3.06848e-06
2.23396e-06
1.52465e-06
1.08803e-06
8.62491e-07
7.46902e-07
6.91016e-07
6.661e-07
6.55907e-07
6.51973e-07
6.51764e-07
6.56063e-07
6.66399e-07
6.85793e-07
7.12821e-07
7.33917e-07
7.27034e-07
6.83321e-07
6.39916e-07
2.12184e-06
1.86687e-06
1.78168e-06
1.61549e-06
1.54403e-06
1.41934e-06
1.37345e-06
1.30112e-06
1.27534e-06
1.25952e-06
1.26708e-06
1.28389e-06
1.29355e-06
1.28596e-06
1.24712e-06
1.15809e-06
1.02495e-06
8.86094e-07
7.73109e-07
6.94793e-07
6.42263e-07
6.07858e-07
5.88651e-07
5.77256e-07
5.7072e-07
5.66998e-07
5.64743e-07
5.63839e-07
5.63842e-07
5.6586e-07
5.69573e-07
5.72682e-07
5.68718e-07
5.56096e-07
5.40203e-07
2.73368e-06
2.60152e-06
2.31614e-06
2.21156e-06
2.04015e-06
1.85145e-06
1.76114e-06
1.57247e-06
1.49082e-06
1.35138e-06
1.25704e-06
1.15574e-06
1.06856e-06
9.88407e-07
9.16831e-07
8.52287e-07
7.94978e-07
7.44937e-07
7.01509e-07
6.63989e-07
6.32305e-07
6.06243e-07
5.85814e-07
5.70742e-07
5.60767e-07
5.53347e-07
5.46337e-07
5.39082e-07
5.31116e-07
5.22251e-07
5.12825e-07
5.0294e-07
4.90111e-07
4.75142e-07
4.60153e-07
0.00062513
0.000640928
0.000641993
0.00062544
0.000608102
0.000591851
0.000575606
0.000543072
0.000474253
0.000380803
0.000325225
0.000285735
0.000222603
0.000165869
0.000137982
0.000127711
0.000118129
0.000105446
9.4579e-05
8.98949e-05
9.09458e-05
9.73368e-05
0.00010333
0.000102846
9.76889e-05
7.51775e-05
5.17318e-05
4.54431e-05
4.5913e-05
5.1066e-05
5.34829e-05
5.13847e-05
4.69365e-05
4.78927e-05
4.62583e-05
3.51897e-05
8.30601e-06
1.11556e-06
5.80563e-07
5.49776e-07
5.41119e-07
5.2484e-07
4.84137e-07
4.0522e-07
0.000635063
0.000651814
0.000692609
0.000740828
0.000737522
0.000681891
0.000643837
0.000643472
0.000642083
0.000543898
0.000334819
0.000262946
0.000227583
0.000199909
0.000176361
0.000148077
0.000121793
0.000104264
9.56961e-05
9.57087e-05
0.000100549
0.000104538
0.000101231
8.91704e-05
7.64077e-05
5.89841e-05
4.51562e-05
4.30015e-05
4.42632e-05
4.43083e-05
4.44768e-05
4.48219e-05
5.04521e-05
5.86469e-05
4.03847e-05
1.34104e-05
2.57411e-06
7.6149e-07
5.59713e-07
5.18761e-07
5.03153e-07
4.91333e-07
4.71198e-07
4.87616e-07
0.000268721
0.000280621
0.000290055
0.000305503
0.000318453
0.000322318
0.000329231
0.000344849
0.000332263
0.000230058
0.000122777
8.32539e-05
7.34694e-05
7.19781e-05
6.17461e-05
4.59347e-05
3.5039e-05
3.10245e-05
3.19108e-05
3.38536e-05
3.3745e-05
3.17607e-05
2.93853e-05
2.72476e-05
2.71869e-05
2.98904e-05
3.30419e-05
3.44807e-05
3.84868e-05
4.76638e-05
5.3644e-05
5.49031e-05
6.22387e-05
7.57798e-05
4.3485e-05
9.29549e-06
2.39795e-06
8.88758e-07
6.24306e-07
5.5732e-07
5.29439e-07
5.15602e-07
5.05821e-07
4.94104e-07
5.45114e-07
5.59745e-05
5.86995e-05
6.30812e-05
6.92546e-05
7.47404e-05
7.69655e-05
7.52747e-05
6.8871e-05
5.6216e-05
3.88518e-05
2.74555e-05
2.19461e-05
1.9833e-05
1.78787e-05
1.44824e-05
1.14721e-05
1.00532e-05
9.66472e-06
1.01234e-05
1.07578e-05
1.13421e-05
1.1771e-05
1.16515e-05
1.14045e-05
1.25489e-05
1.63931e-05
2.33753e-05
2.95335e-05
3.41221e-05
4.07144e-05
4.96166e-05
5.66536e-05
6.03162e-05
5.78165e-05
3.0811e-05
8.95012e-06
2.29901e-06
8.73924e-07
6.22224e-07
5.57819e-07
5.3228e-07
5.19972e-07
5.12691e-07
5.11448e-07
6.46333e-07
1.14262e-05
1.17295e-05
1.22237e-05
1.32444e-05
1.39807e-05
1.42676e-05
1.41484e-05
1.26191e-05
1.05737e-05
9.12043e-06
8.3691e-06
7.85676e-06
7.27628e-06
6.80817e-06
6.62133e-06
6.78243e-06
7.24252e-06
7.96718e-06
9.03922e-06
9.93735e-06
9.59005e-06
7.82281e-06
6.51283e-06
6.14983e-06
7.3064e-06
1.01345e-05
1.47249e-05
2.10797e-05
2.86486e-05
3.68568e-05
4.4555e-05
4.70421e-05
4.4774e-05
2.95368e-05
9.95315e-06
2.37581e-06
8.52053e-07
6.0904e-07
5.51144e-07
5.29397e-07
5.19217e-07
5.13549e-07
5.09053e-07
5.16573e-07
6.52242e-06
6.59597e-06
6.74718e-06
6.91943e-06
7.05003e-06
7.09468e-06
7.02764e-06
6.71078e-06
6.45544e-06
6.26983e-06
6.17092e-06
6.13193e-06
6.16827e-06
6.32233e-06
6.62379e-06
7.13715e-06
7.894e-06
8.92436e-06
9.88187e-06
9.88648e-06
8.02752e-06
5.38705e-06
2.94992e-06
2.53596e-06
3.08998e-06
4.27989e-06
6.24874e-06
9.59073e-06
1.54564e-05
2.27545e-05
2.99364e-05
3.48972e-05
3.38995e-05
1.92924e-05
4.98528e-06
1.29268e-06
6.90874e-07
5.75641e-07
5.39625e-07
5.24371e-07
5.17078e-07
5.13248e-07
5.09363e-07
5.03662e-07
4.56533e-06
5.02414e-06
5.4688e-06
5.74314e-06
5.9987e-06
6.13525e-06
6.26994e-06
6.36631e-06
6.42159e-06
6.46111e-06
6.55674e-06
6.74113e-06
7.05e-06
7.49597e-06
8.06807e-06
8.72739e-06
9.43841e-06
9.9396e-06
1.00923e-05
9.21494e-06
7.42055e-06
4.68451e-06
2.11409e-06
1.40971e-06
1.33349e-06
1.49377e-06
1.83397e-06
2.4496e-06
3.62928e-06
5.86302e-06
9.44313e-06
1.34371e-05
1.57138e-05
1.21398e-05
4.79045e-06
1.46656e-06
7.55231e-07
5.99399e-07
5.50326e-07
5.29678e-07
5.19793e-07
5.14776e-07
5.12077e-07
5.08853e-07
5.02941e-07
2.90787e-06
3.05912e-06
3.36195e-06
3.68166e-06
4.17653e-06
4.61226e-06
5.11153e-06
5.53424e-06
5.94448e-06
6.34504e-06
6.77522e-06
7.26911e-06
7.86099e-06
8.54308e-06
9.28657e-06
9.74853e-06
9.86155e-06
9.06167e-06
7.24329e-06
5.10062e-06
2.92705e-06
1.59126e-06
1.0746e-06
9.15433e-07
8.82372e-07
9.17013e-07
1.00431e-06
1.16523e-06
1.46096e-06
2.00164e-06
2.92078e-06
3.91964e-06
4.31578e-06
2.82934e-06
1.31089e-06
7.67411e-07
6.13778e-07
5.59088e-07
5.34796e-07
5.22643e-07
5.16233e-07
5.12774e-07
5.10409e-07
5.07629e-07
5.10038e-07
2.10939e-06
2.09596e-06
2.089e-06
2.1546e-06
2.26076e-06
2.40087e-06
2.58805e-06
2.80472e-06
3.05102e-06
3.34009e-06
3.66935e-06
4.04829e-06
4.47577e-06
4.87891e-06
5.06854e-06
4.97491e-06
4.34589e-06
3.39264e-06
2.32498e-06
1.53927e-06
1.07847e-06
8.35811e-07
7.26064e-07
6.83805e-07
6.72319e-07
6.79008e-07
7.00056e-07
7.38956e-07
8.04897e-07
9.09671e-07
1.06328e-06
1.21488e-06
1.2182e-06
9.35451e-07
7.1008e-07
6.07826e-07
1.78314e-06
1.72082e-06
1.60783e-06
1.57434e-06
1.53866e-06
1.51728e-06
1.51665e-06
1.52345e-06
1.54791e-06
1.57863e-06
1.62036e-06
1.67668e-06
1.73008e-06
1.75299e-06
1.74606e-06
1.63623e-06
1.42651e-06
1.17583e-06
9.52392e-07
7.96616e-07
6.97257e-07
6.36784e-07
6.04301e-07
5.89403e-07
5.84251e-07
5.8458e-07
5.89026e-07
5.97354e-07
6.11107e-07
6.3185e-07
6.57361e-07
6.77643e-07
6.69117e-07
6.24594e-07
5.81956e-07
1.71533e-06
1.59981e-06
1.42811e-06
1.38226e-06
1.29585e-06
1.21053e-06
1.17779e-06
1.10962e-06
1.08414e-06
1.04417e-06
1.01874e-06
9.91758e-07
9.66209e-07
9.38639e-07
9.04259e-07
8.55182e-07
7.9288e-07
7.28579e-07
6.72337e-07
6.28837e-07
5.97022e-07
5.75023e-07
5.61382e-07
5.54304e-07
5.51443e-07
5.5088e-07
5.50838e-07
5.51157e-07
5.51814e-07
5.53617e-07
5.56953e-07
5.60079e-07
5.57145e-07
5.46335e-07
5.32658e-07
3.3612e-06
3.11878e-06
2.82318e-06
2.70538e-06
2.50151e-06
2.28021e-06
2.17811e-06
1.94935e-06
1.85551e-06
1.68953e-06
1.57689e-06
1.45639e-06
1.35188e-06
1.25516e-06
1.16812e-06
1.08923e-06
1.01788e-06
9.53783e-07
8.97092e-07
8.48103e-07
8.06814e-07
7.73322e-07
7.47621e-07
7.29262e-07
7.17992e-07
7.1104e-07
7.05206e-07
6.9976e-07
6.94018e-07
6.8761e-07
6.80869e-07
6.72024e-07
6.57684e-07
6.39011e-07
6.19166e-07
0.000675666
0.000696604
0.00071373
0.00071276
0.000705127
0.000682241
0.000637716
0.000549467
0.000431941
0.000336254
0.000278179
0.000235259
0.000191069
0.000151318
0.000128354
0.00011987
0.000109469
9.53176e-05
8.24395e-05
7.50561e-05
7.40954e-05
7.56007e-05
7.96249e-05
7.98957e-05
7.44628e-05
5.38526e-05
4.48612e-05
4.32137e-05
4.58925e-05
5.5579e-05
5.73529e-05
5.56456e-05
5.40732e-05
5.55983e-05
5.205e-05
3.40746e-05
5.92915e-06
9.99209e-07
6.59611e-07
6.35501e-07
6.23146e-07
5.9888e-07
5.39319e-07
4.2699e-07
0.000682781
0.000704684
0.000770224
0.000836146
0.000830089
0.000770721
0.000725208
0.000695723
0.000622073
0.000440622
0.000291782
0.000228089
0.000186957
0.000161902
0.000143271
0.000119087
9.50265e-05
7.89417e-05
6.94604e-05
6.77716e-05
6.92756e-05
6.97708e-05
6.758e-05
6.12814e-05
5.06059e-05
4.09667e-05
3.81591e-05
4.01632e-05
4.7002e-05
5.23871e-05
5.19037e-05
5.10309e-05
6.15688e-05
7.37326e-05
4.29051e-05
1.17547e-05
2.06917e-06
7.48556e-07
5.78814e-07
5.35318e-07
5.17902e-07
5.06602e-07
4.92373e-07
5.3453e-07
0.000301582
0.000312628
0.000321124
0.000331824
0.000334856
0.00032765
0.000322285
0.000311581
0.000264116
0.000165869
0.000107265
8.16678e-05
7.20641e-05
6.60831e-05
5.39572e-05
3.76473e-05
2.64108e-05
2.22194e-05
2.17003e-05
2.15545e-05
2.0517e-05
1.92448e-05
1.91044e-05
1.93405e-05
2.02776e-05
2.27683e-05
2.70696e-05
3.25018e-05
4.0302e-05
5.12339e-05
6.02141e-05
6.44155e-05
7.63333e-05
8.65172e-05
4.40302e-05
8.60591e-06
2.11247e-06
8.37798e-07
6.11261e-07
5.43998e-07
5.15278e-07
5.02541e-07
4.98376e-07
5.03706e-07
6.13757e-07
5.54461e-05
5.64633e-05
5.77796e-05
5.93618e-05
6.05027e-05
6.06765e-05
5.81252e-05
5.1808e-05
4.19831e-05
3.31991e-05
2.58147e-05
2.12221e-05
1.90005e-05
1.63001e-05
1.23894e-05
8.96656e-06
7.30375e-06
6.78454e-06
6.89514e-06
7.04996e-06
7.10489e-06
7.29451e-06
7.61758e-06
8.39381e-06
1.01271e-05
1.35715e-05
1.92047e-05
2.60055e-05
3.28252e-05
4.09456e-05
5.0595e-05
6.14718e-05
6.85104e-05
6.28658e-05
2.84637e-05
7.46538e-06
1.80922e-06
7.87258e-07
5.8878e-07
5.28589e-07
5.0393e-07
4.94166e-07
4.94656e-07
5.16353e-07
7.5411e-07
9.72956e-06
9.78708e-06
9.94228e-06
1.03435e-05
1.07522e-05
1.09453e-05
1.09531e-05
1.01912e-05
8.99684e-06
7.8709e-06
7.1679e-06
6.55675e-06
5.81883e-06
5.07357e-06
4.65668e-06
4.5293e-06
4.64211e-06
4.87889e-06
5.05351e-06
5.10906e-06
4.89613e-06
4.65568e-06
4.62821e-06
5.2169e-06
6.69811e-06
9.61224e-06
1.42959e-05
2.05874e-05
2.81955e-05
3.68284e-05
4.5827e-05
5.00968e-05
4.68529e-05
2.69903e-05
7.70305e-06
1.78066e-06
7.55784e-07
5.66933e-07
5.14596e-07
4.9455e-07
4.87201e-07
4.88176e-07
4.99489e-07
5.43069e-07
5.06304e-06
5.07571e-06
5.11537e-06
5.20384e-06
5.25651e-06
5.27223e-06
5.19436e-06
4.96292e-06
4.74598e-06
4.53589e-06
4.34809e-06
4.17346e-06
4.009e-06
3.90792e-06
3.87606e-06
3.94383e-06
4.08814e-06
4.21703e-06
4.25818e-06
4.00586e-06
3.48924e-06
2.86938e-06
2.46906e-06
2.56749e-06
3.12176e-06
4.19774e-06
6.0139e-06
9.02551e-06
1.43036e-05
2.16782e-05
2.95732e-05
3.48041e-05
3.17461e-05
1.48225e-05
3.54875e-06
1.06578e-06
6.34143e-07
5.34873e-07
5.01146e-07
4.87253e-07
4.82459e-07
4.83918e-07
4.90332e-07
5.0025e-07
3.61593e-06
3.74302e-06
3.85129e-06
3.92289e-06
3.99589e-06
4.03562e-06
4.06245e-06
4.07352e-06
4.05552e-06
4.00991e-06
3.97015e-06
3.94991e-06
3.95091e-06
3.98065e-06
4.03571e-06
4.10334e-06
4.14321e-06
4.10792e-06
3.91746e-06
3.52132e-06
2.98535e-06
2.20555e-06
1.59331e-06
1.37397e-06
1.37871e-06
1.54533e-06
1.86179e-06
2.40246e-06
3.36127e-06
5.1639e-06
8.27299e-06
1.19386e-05
1.39667e-05
9.88768e-06
3.58652e-06
1.22029e-06
6.91612e-07
5.57109e-07
5.10993e-07
4.91344e-07
4.8267e-07
4.80163e-07
4.82745e-07
4.89622e-07
4.98556e-07
2.62522e-06
2.65514e-06
2.72578e-06
2.78554e-06
2.89231e-06
2.98463e-06
3.06611e-06
3.14757e-06
3.19683e-06
3.25428e-06
3.30864e-06
3.3714e-06
3.44259e-06
3.52059e-06
3.56273e-06
3.5649e-06
3.45503e-06
3.18374e-06
2.74431e-06
2.16572e-06
1.58299e-06
1.17429e-06
9.64963e-07
8.85184e-07
8.72137e-07
9.13001e-07
9.99683e-07
1.14768e-06
1.39678e-06
1.8218e-06
2.52837e-06
3.30784e-06
3.58196e-06
2.26292e-06
1.12094e-06
7.06859e-07
5.72674e-07
5.21113e-07
4.97816e-07
4.86436e-07
4.81275e-07
4.80571e-07
4.848e-07
4.96909e-07
5.31036e-07
2.03299e-06
2.0074e-06
1.97749e-06
1.97013e-06
1.98091e-06
1.99489e-06
2.00449e-06
2.03102e-06
2.04217e-06
2.06794e-06
2.0869e-06
2.11326e-06
2.13595e-06
2.14508e-06
2.13419e-06
2.07108e-06
1.89264e-06
1.61534e-06
1.30585e-06
1.05004e-06
8.66631e-07
7.4774e-07
6.83532e-07
6.56182e-07
6.49652e-07
6.59482e-07
6.82346e-07
7.20447e-07
7.79861e-07
8.67757e-07
9.84766e-07
1.09156e-06
1.07431e-06
8.4491e-07
6.62388e-07
5.71786e-07
1.77106e-06
1.73012e-06
1.60765e-06
1.55742e-06
1.52032e-06
1.46985e-06
1.43551e-06
1.4109e-06
1.36943e-06
1.34658e-06
1.31251e-06
1.28744e-06
1.25899e-06
1.22531e-06
1.18126e-06
1.11133e-06
1.01144e-06
8.98034e-07
7.92303e-07
7.08704e-07
6.47639e-07
6.05633e-07
5.812e-07
5.6997e-07
5.66706e-07
5.69268e-07
5.7528e-07
5.84244e-07
5.96992e-07
6.1437e-07
6.34138e-07
6.48866e-07
6.37756e-07
5.9753e-07
5.58374e-07
1.82278e-06
1.76308e-06
1.53583e-06
1.47572e-06
1.39457e-06
1.28895e-06
1.24172e-06
1.16696e-06
1.11475e-06
1.07237e-06
1.02297e-06
9.83071e-07
9.4116e-07
9.00188e-07
8.56913e-07
8.09511e-07
7.5884e-07
7.09315e-07
6.65329e-07
6.29523e-07
6.02132e-07
5.82511e-07
5.70283e-07
5.64248e-07
5.62214e-07
5.62387e-07
5.62644e-07
5.62771e-07
5.62946e-07
5.63775e-07
5.6606e-07
5.6788e-07
5.63936e-07
5.52967e-07
5.3944e-07
3.88018e-06
3.51219e-06
3.22052e-06
3.09087e-06
2.85782e-06
2.61005e-06
2.49797e-06
2.23572e-06
2.12487e-06
1.94453e-06
1.81133e-06
1.67599e-06
1.5552e-06
1.44376e-06
1.34247e-06
1.25014e-06
1.1664e-06
1.09142e-06
1.02548e-06
9.68905e-07
9.21596e-07
8.83527e-07
8.54593e-07
8.34268e-07
8.22201e-07
8.15757e-07
8.11064e-07
8.07175e-07
8.03182e-07
7.9853e-07
7.93402e-07
7.84483e-07
7.6844e-07
7.46646e-07
7.23016e-07
0.000700611
0.000721326
0.000758832
0.000769097
0.000765282
0.000737566
0.000663181
0.000524996
0.000400981
0.000303794
0.000238369
0.000196191
0.000161439
0.000126953
0.000108612
0.00010158
9.32778e-05
8.03492e-05
6.9344e-05
5.79053e-05
4.916e-05
4.84138e-05
5.08047e-05
5.16152e-05
4.48741e-05
3.69729e-05
3.59733e-05
3.67954e-05
4.25837e-05
5.11025e-05
5.38005e-05
5.51012e-05
5.8174e-05
5.85249e-05
5.20731e-05
2.65574e-05
3.48278e-06
8.68698e-07
7.10362e-07
6.91863e-07
6.76452e-07
6.45155e-07
5.70161e-07
4.35551e-07
0.000712285
0.000744307
0.000835541
0.000904449
0.000895364
0.000837549
0.000768981
0.000683755
0.000515074
0.000331381
0.000232555
0.00017991
0.000144012
0.000121376
0.000109705
9.50628e-05
7.35704e-05
5.55201e-05
4.36736e-05
3.8292e-05
3.7125e-05
3.69449e-05
3.66474e-05
3.4945e-05
3.22543e-05
3.23748e-05
3.55209e-05
4.37072e-05
5.71565e-05
6.7766e-05
6.86137e-05
6.98817e-05
9.45797e-05
9.12505e-05
3.63175e-05
7.68731e-06
1.45258e-06
7.14681e-07
5.86102e-07
5.451e-07
5.27459e-07
5.16555e-07
5.05337e-07
5.6059e-07
0.000321827
0.000330977
0.000337244
0.000342762
0.000334629
0.000313688
0.0002876
0.000245781
0.000180118
0.000121596
9.28207e-05
7.41527e-05
6.30384e-05
5.39417e-05
4.47312e-05
3.20729e-05
2.15539e-05
1.62568e-05
1.41693e-05
1.31418e-05
1.26289e-05
1.25452e-05
1.31519e-05
1.42191e-05
1.6037e-05
1.94533e-05
2.46456e-05
3.16581e-05
4.10007e-05
5.25875e-05
6.4555e-05
8.04041e-05
9.93958e-05
9.51531e-05
3.65068e-05
5.96564e-06
1.55801e-06
7.6857e-07
5.9641e-07
5.33658e-07
5.05821e-07
4.94514e-07
4.94274e-07
5.10732e-07
6.56917e-07
5.98262e-05
5.87544e-05
5.72678e-05
5.52043e-05
5.17549e-05
4.79393e-05
4.34008e-05
3.77109e-05
3.2309e-05
2.80348e-05
2.30277e-05
1.92787e-05
1.68144e-05
1.43449e-05
1.11315e-05
7.86211e-06
6.08429e-06
5.43268e-06
5.34292e-06
5.39391e-06
5.4591e-06
5.70945e-06
6.23938e-06
7.22866e-06
9.02197e-06
1.20399e-05
1.66597e-05
2.25624e-05
2.93285e-05
3.72576e-05
4.80226e-05
6.32744e-05
7.34945e-05
5.89297e-05
1.99571e-05
4.43383e-06
1.29403e-06
7.09726e-07
5.61712e-07
5.08147e-07
4.85328e-07
4.77889e-07
4.8373e-07
5.20711e-07
8.26069e-07
1.03112e-05
9.94614e-06
9.67245e-06
9.53536e-06
9.46104e-06
9.38887e-06
9.1844e-06
8.68533e-06
7.91358e-06
7.0668e-06
6.41795e-06
5.84426e-06
5.16299e-06
4.40423e-06
3.88379e-06
3.68149e-06
3.68202e-06
3.8334e-06
3.94116e-06
3.9802e-06
3.99543e-06
4.05586e-06
4.2573e-06
4.85533e-06
6.12248e-06
8.44493e-06
1.20696e-05
1.70007e-05
2.35775e-05
3.22355e-05
4.29171e-05
4.93051e-05
4.29605e-05
1.82913e-05
4.35135e-06
1.25372e-06
6.72736e-07
5.34949e-07
4.89622e-07
4.71671e-07
4.66753e-07
4.72573e-07
4.94646e-07
5.60568e-07
5.07493e-06
4.98987e-06
4.91528e-06
4.88218e-06
4.83503e-06
4.76468e-06
4.62841e-06
4.39669e-06
4.15411e-06
3.90952e-06
3.67054e-06
3.43795e-06
3.21162e-06
3.01318e-06
2.8753e-06
2.81138e-06
2.79704e-06
2.799e-06
2.76628e-06
2.68144e-06
2.55139e-06
2.38618e-06
2.29061e-06
2.44415e-06
2.88753e-06
3.69372e-06
4.99353e-06
7.08238e-06
1.07788e-05
1.69564e-05
2.44576e-05
2.95077e-05
2.27181e-05
8.04704e-06
2.15392e-06
8.70566e-07
5.85483e-07
5.05322e-07
4.75064e-07
4.62784e-07
4.60192e-07
4.65817e-07
4.7981e-07
5.00148e-07
3.55058e-06
3.55769e-06
3.5601e-06
3.54507e-06
3.53486e-06
3.50688e-06
3.45278e-06
3.38965e-06
3.29036e-06
3.18397e-06
3.06876e-06
2.95981e-06
2.85813e-06
2.76499e-06
2.6862e-06
2.61819e-06
2.55479e-06
2.47426e-06
2.34881e-06
2.1652e-06
1.92983e-06
1.63332e-06
1.40208e-06
1.30802e-06
1.33689e-06
1.47509e-06
1.72085e-06
2.1148e-06
2.76088e-06
3.90506e-06
5.93452e-06
8.39342e-06
9.6302e-06
5.95124e-06
2.25661e-06
9.82212e-07
6.32334e-07
5.24612e-07
4.83706e-07
4.65686e-07
4.5829e-07
4.57912e-07
4.64667e-07
4.78976e-07
4.97967e-07
2.649e-06
2.63358e-06
2.63308e-06
2.6182e-06
2.61936e-06
2.61589e-06
2.5748e-06
2.55459e-06
2.4977e-06
2.45376e-06
2.39904e-06
2.34516e-06
2.2866e-06
2.2272e-06
2.16222e-06
2.08669e-06
1.98572e-06
1.8449e-06
1.65347e-06
1.4232e-06
1.18844e-06
1.0018e-06
8.92742e-07
8.47987e-07
8.4408e-07
8.80408e-07
9.51767e-07
1.06678e-06
1.24687e-06
1.52836e-06
1.95056e-06
2.36693e-06
2.44072e-06
1.58823e-06
9.24147e-07
6.47404e-07
5.39872e-07
4.94356e-07
4.7295e-07
4.62532e-07
4.58449e-07
4.59954e-07
4.69063e-07
4.91346e-07
5.45609e-07
2.10051e-06
2.05952e-06
2.01976e-06
1.96899e-06
1.94914e-06
1.93053e-06
1.88647e-06
1.86819e-06
1.81272e-06
1.77654e-06
1.72351e-06
1.67444e-06
1.62092e-06
1.56476e-06
1.50159e-06
1.41874e-06
1.30322e-06
1.16022e-06
1.00838e-06
8.75106e-07
7.72162e-07
6.98598e-07
6.55043e-07
6.35767e-07
6.31726e-07
6.41386e-07
6.61616e-07
6.93273e-07
7.39682e-07
8.03647e-07
8.7951e-07
9.38939e-07
9.06115e-07
7.48223e-07
6.17358e-07
5.43239e-07
1.859e-06
1.8096e-06
1.71659e-06
1.61936e-06
1.5747e-06
1.51848e-06
1.44985e-06
1.4194e-06
1.34693e-06
1.30864e-06
1.24638e-06
1.19324e-06
1.13687e-06
1.08113e-06
1.02121e-06
9.53288e-07
8.76982e-07
7.98845e-07
7.27236e-07
6.68025e-07
6.22316e-07
5.89217e-07
5.68958e-07
5.5944e-07
5.56733e-07
5.59414e-07
5.65266e-07
5.73525e-07
5.84048e-07
5.97142e-07
6.1056e-07
6.19311e-07
6.07201e-07
5.73968e-07
5.40495e-07
1.97621e-06
1.93094e-06
1.70812e-06
1.5831e-06
1.51857e-06
1.40895e-06
1.31519e-06
1.26014e-06
1.17034e-06
1.12925e-06
1.06035e-06
1.01192e-06
9.57652e-07
9.07384e-07
8.56887e-07
8.0638e-07
7.56408e-07
7.09704e-07
6.68775e-07
6.35285e-07
6.09416e-07
5.90704e-07
5.78985e-07
5.73178e-07
5.71159e-07
5.7132e-07
5.71368e-07
5.7093e-07
5.70502e-07
5.70436e-07
5.71634e-07
5.71979e-07
5.67073e-07
5.56183e-07
5.42988e-07