/*--------------------------------*- C++ -*----------------------------------*\
| =========                 |                                                 |
| \\      /  F ield         | OpenFOAM: The Open Source CFD Toolbox           |
|  \\    /   O peration     | Version:  2.3.1                                 |
|   \\  /    A nd           | Web:      www.OpenFOAM.org                      |
|    \\/     M anipulation  |                                                 |
\*---------------------------------------------------------------------------*/
FoamFile
{
    version     2.0;
    format      ascii;
    class       volScalarField;
    location    "15";
    object      epsilon;
}
// * * * * * * * * * * * * * * * * * * * * * * * * * * * * * * * * * * * * * //

dimensions      [0 2 -3 0 0 0 0];

internalField   nonuniform List<scalar> 
38152
(
0.000439156
0.000460433
0.000460284
0.000448401
0.000424513
0.000424356
0.000429006
0.000453804
0.00053143
0.000561294
0.000554987
0.000536538
0.000499864
0.000358457
0.000209004
0.000165051
0.000145712
0.000129673
0.000125529
0.00012608
0.00012658
0.000127486
0.000126851
0.000127734
0.00013222
0.000128586
0.000103158
6.55358e-05
5.0129e-05
4.73752e-05
5.10514e-05
5.60196e-05
5.5598e-05
5.25516e-05
5.1187e-05
4.45418e-05
1.63397e-05
1.85603e-06
5.17573e-07
3.99896e-07
3.65541e-07
3.43815e-07
3.26558e-07
3.32264e-07
0.000544304
0.000558898
0.000612995
0.000662304
0.000632367
0.000544728
0.000546622
0.000597487
0.000600215
0.000512629
0.00022544
0.000127261
0.000140014
0.000159442
0.000154192
0.00014013
0.000121252
0.00011378
0.000115384
0.00011816
0.000120035
0.000120838
0.000127167
0.000133115
0.000127768
0.000104558
7.00528e-05
6.37985e-05
6.60205e-05
6.93409e-05
7.6597e-05
8.18906e-05
7.77504e-05
5.48741e-05
2.58476e-05
1.31186e-05
3.08755e-06
9.31568e-07
7.22479e-07
6.81173e-07
6.51553e-07
6.11881e-07
5.28227e-07
3.73554e-07
0.000185077
0.000188846
0.000196324
0.000213869
0.000234795
0.000242481
0.000260632
0.000305985
0.000283673
0.00020095
7.87422e-05
5.36691e-05
5.99402e-05
6.30665e-05
5.79427e-05
4.78984e-05
3.955e-05
3.82884e-05
4.43431e-05
5.39485e-05
6.18295e-05
6.7033e-05
6.98592e-05
6.96749e-05
6.98813e-05
7.54979e-05
7.62791e-05
7.03727e-05
6.08307e-05
6.02336e-05
6.61316e-05
8.84894e-05
9.37114e-05
7.70131e-05
2.3652e-05
5.80441e-06
2.373e-06
1.221e-06
9.85076e-07
9.24794e-07
8.81508e-07
8.41184e-07
7.77887e-07
6.40352e-07
3.92223e-07
5.5075e-05
5.78685e-05
5.80225e-05
6.00868e-05
5.76578e-05
5.17346e-05
5.20489e-05
5.81571e-05
5.46639e-05
4.08074e-05
3.39655e-05
3.34928e-05
3.36493e-05
3.31669e-05
3.10411e-05
2.92845e-05
2.8649e-05
3.01207e-05
3.36563e-05
3.85578e-05
4.30523e-05
4.51597e-05
4.48515e-05
4.14072e-05
4.21334e-05
5.02068e-05
5.70963e-05
5.41529e-05
4.6983e-05
5.36407e-05
7.7322e-05
9.06333e-05
8.74756e-05
7.08516e-05
3.04923e-05
9.54549e-06
2.59696e-06
1.29604e-06
1.08543e-06
1.01516e-06
9.71549e-07
9.29415e-07
8.58592e-07
7.05083e-07
4.13272e-07
3.08352e-05
3.20301e-05
3.33055e-05
3.3389e-05
3.33558e-05
3.2414e-05
3.05133e-05
2.78512e-05
2.61849e-05
2.54683e-05
2.51728e-05
2.48141e-05
2.42762e-05
2.38712e-05
2.38143e-05
2.46401e-05
2.66382e-05
2.96847e-05
3.34122e-05
3.64842e-05
3.7873e-05
3.5815e-05
3.20042e-05
2.46465e-05
2.05918e-05
1.83427e-05
1.77196e-05
2.4457e-05
4.19158e-05
5.72433e-05
6.63081e-05
6.74956e-05
6.21746e-05
3.84692e-05
1.14311e-05
2.64337e-06
1.29823e-06
1.10862e-06
1.04642e-06
1.00727e-06
9.69933e-07
9.12351e-07
8.01191e-07
6.12263e-07
2.59918e-05
2.72267e-05
2.82592e-05
2.86511e-05
2.87305e-05
2.81839e-05
2.73957e-05
2.65278e-05
2.59922e-05
2.56915e-05
2.5458e-05
2.51278e-05
2.48192e-05
2.47162e-05
2.51232e-05
2.62933e-05
2.81645e-05
3.02908e-05
3.26683e-05
3.41594e-05
3.28428e-05
2.88109e-05
1.50266e-05
4.5104e-06
2.99889e-06
3.25962e-06
4.63287e-06
8.25585e-06
1.52713e-05
2.51848e-05
3.54507e-05
4.26932e-05
4.26887e-05
2.31843e-05
5.04648e-06
1.61524e-06
1.18785e-06
1.09061e-06
1.04369e-06
1.01229e-06
9.8136e-07
9.35932e-07
8.5867e-07
7.50409e-07
1.67708e-05
1.84371e-05
1.92066e-05
2.1663e-05
2.36478e-05
2.46383e-05
2.5006e-05
2.50701e-05
2.504e-05
2.51542e-05
2.52297e-05
2.5332e-05
2.55027e-05
2.586e-05
2.62851e-05
2.67937e-05
2.74254e-05
2.82319e-05
2.93945e-05
2.97611e-05
2.90264e-05
2.54092e-05
1.17592e-05
2.37878e-06
1.49442e-06
1.63311e-06
1.8588e-06
2.28848e-06
3.24786e-06
5.2029e-06
8.45644e-06
1.31753e-05
1.629e-05
1.22836e-05
4.50627e-06
1.70191e-06
1.22499e-06
1.11223e-06
1.05956e-06
1.02732e-06
1.00195e-06
9.74707e-07
9.32026e-07
8.57369e-07
7.53148e-07
1.34726e-05
1.33672e-05
1.31089e-05
1.44249e-05
1.49033e-05
1.67649e-05
1.81236e-05
1.96618e-05
2.08773e-05
2.17137e-05
2.24262e-05
2.31227e-05
2.37774e-05
2.43921e-05
2.49541e-05
2.54256e-05
2.57439e-05
2.58041e-05
2.55007e-05
2.35119e-05
1.70484e-05
6.78719e-06
2.13466e-06
1.51025e-06
1.49387e-06
1.50155e-06
1.52066e-06
1.5951e-06
1.78968e-06
2.23087e-06
3.02498e-06
3.82187e-06
4.01393e-06
2.71842e-06
1.58841e-06
1.2291e-06
1.11577e-06
1.05826e-06
1.0228e-06
9.98356e-07
9.7761e-07
9.5124e-07
9.00507e-07
7.98376e-07
6.09938e-07
1.15215e-05
1.06287e-05
1.0102e-05
9.89043e-06
9.79006e-06
9.99485e-06
1.04306e-05
1.11282e-05
1.19827e-05
1.31009e-05
1.42949e-05
1.55359e-05
1.6809e-05
1.78628e-05
1.87276e-05
1.91469e-05
1.87949e-05
1.68072e-05
1.24062e-05
6.96424e-06
3.21532e-06
1.78446e-06
1.44618e-06
1.40491e-06
1.40035e-06
1.40305e-06
1.40169e-06
1.39882e-06
1.40745e-06
1.45092e-06
1.5284e-06
1.60549e-06
1.55419e-06
1.34014e-06
1.17388e-06
1.08364e-06
1.01876e-05
9.64174e-06
8.55557e-06
8.16852e-06
7.3101e-06
7.0348e-06
6.61392e-06
6.49367e-06
6.46253e-06
6.50075e-06
6.65089e-06
6.87211e-06
7.08929e-06
7.17869e-06
7.18507e-06
6.78815e-06
5.71529e-06
4.20902e-06
2.84803e-06
1.96678e-06
1.56546e-06
1.40034e-06
1.32903e-06
1.29212e-06
1.27005e-06
1.25528e-06
1.24549e-06
1.23842e-06
1.23186e-06
1.22523e-06
1.21745e-06
1.19524e-06
1.14471e-06
1.07269e-06
1.00517e-06
8.17802e-06
7.80673e-06
6.96157e-06
6.80576e-06
5.86845e-06
5.67746e-06
4.95238e-06
4.71971e-06
4.2467e-06
3.97882e-06
3.70833e-06
3.48104e-06
3.26754e-06
3.04303e-06
2.79142e-06
2.48284e-06
2.12487e-06
1.78792e-06
1.52792e-06
1.35274e-06
1.23249e-06
1.14552e-06
1.08549e-06
1.04178e-06
1.01107e-06
9.91697e-07
9.8059e-07
9.74075e-07
9.68686e-07
9.60197e-07
9.44595e-07
9.16835e-07
8.74381e-07
8.24023e-07
7.75457e-07
4.62369e-06
4.40655e-06
3.95686e-06
3.82163e-06
3.39406e-06
3.25332e-06
2.87708e-06
2.72594e-06
2.43814e-06
2.24448e-06
2.02948e-06
1.8395e-06
1.65955e-06
1.49217e-06
1.33603e-06
1.19074e-06
1.05826e-06
9.43537e-07
8.48595e-07
7.72245e-07
7.11264e-07
6.6359e-07
6.27334e-07
6.01118e-07
5.83214e-07
5.69521e-07
5.57395e-07
5.45036e-07
5.30806e-07
5.13486e-07
4.92671e-07
4.692e-07
4.43004e-07
4.16229e-07
3.9184e-07
0.000510827
0.000523503
0.000516662
0.000476046
0.000461697
0.00045938
0.000458705
0.000462268
0.000454058
0.00041964
0.000366686
0.000325144
0.000255128
0.000173442
0.000135818
0.000122983
0.00011112
0.000103037
9.69346e-05
9.24773e-05
9.21247e-05
9.53439e-05
0.000101534
0.000102592
0.000100868
8.95036e-05
5.76143e-05
4.2369e-05
4.01803e-05
4.20497e-05
4.3402e-05
4.1967e-05
3.72445e-05
3.70127e-05
3.67716e-05
3.1077e-05
9.58463e-06
1.11732e-06
4.42375e-07
4.10245e-07
4.07102e-07
3.99805e-07
3.79679e-07
3.47455e-07
0.000562036
0.000577934
0.000605755
0.000630306
0.000624009
0.000573717
0.000539799
0.000543866
0.000575954
0.000559746
0.000346361
0.000262198
0.000241858
0.000211305
0.000188214
0.000164524
0.00013801
0.000118358
0.000108034
0.000106051
0.00010903
0.00011543
0.000114839
0.000101919
9.09356e-05
7.98057e-05
5.72044e-05
4.87369e-05
4.68364e-05
4.50124e-05
4.58859e-05
4.96466e-05
5.14417e-05
4.9752e-05
3.2452e-05
1.30664e-05
2.7888e-06
7.4303e-07
5.40734e-07
5.07415e-07
4.94034e-07
4.79838e-07
4.47711e-07
4.01068e-07
0.000223005
0.000233738
0.000242041
0.00025849
0.000276469
0.00028581
0.000296157
0.000323031
0.000339783
0.00025869
0.000125641
7.27401e-05
6.5999e-05
6.79744e-05
6.29469e-05
5.08926e-05
4.08464e-05
3.63984e-05
3.80234e-05
4.25553e-05
4.56562e-05
4.67126e-05
4.56792e-05
4.06462e-05
3.93773e-05
4.39461e-05
4.89052e-05
4.48996e-05
4.01473e-05
4.22754e-05
4.85233e-05
5.1864e-05
5.93968e-05
6.98563e-05
3.58821e-05
7.78399e-06
2.37962e-06
9.27301e-07
6.65369e-07
6.03104e-07
5.74702e-07
5.5694e-07
5.36027e-07
4.92641e-07
4.34915e-07
6.24832e-05
6.72279e-05
7.28053e-05
8.25604e-05
8.96188e-05
9.13884e-05
8.39049e-05
7.63349e-05
6.46364e-05
4.25246e-05
2.79208e-05
2.26451e-05
2.12019e-05
2.05752e-05
1.86092e-05
1.66674e-05
1.57734e-05
1.58594e-05
1.72506e-05
1.96037e-05
2.27891e-05
2.47883e-05
2.43759e-05
2.25701e-05
2.30268e-05
2.95594e-05
4.3192e-05
4.32171e-05
3.81898e-05
3.9838e-05
4.83192e-05
5.41338e-05
5.62987e-05
5.37013e-05
2.89336e-05
8.94995e-06
2.46107e-06
9.62374e-07
6.97408e-07
6.30299e-07
6.01322e-07
5.83105e-07
5.61231e-07
5.18844e-07
4.90586e-07
1.74736e-05
1.7297e-05
1.78325e-05
1.88368e-05
1.92204e-05
1.92492e-05
1.83732e-05
1.60722e-05
1.34597e-05
1.20972e-05
1.1575e-05
1.14196e-05
1.13684e-05
1.14679e-05
1.1909e-05
1.29272e-05
1.45281e-05
1.70097e-05
2.0726e-05
2.40476e-05
2.5505e-05
2.41538e-05
1.72771e-05
1.23915e-05
1.10446e-05
1.18536e-05
1.4514e-05
2.0263e-05
2.8087e-05
3.63087e-05
4.30632e-05
4.48981e-05
4.33867e-05
2.94754e-05
1.05425e-05
2.62036e-06
9.54403e-07
6.94334e-07
6.3358e-07
6.08395e-07
5.92464e-07
5.74667e-07
5.42841e-07
4.90817e-07
1.11674e-05
1.10307e-05
1.1197e-05
1.12393e-05
1.13274e-05
1.12684e-05
1.1146e-05
1.07267e-05
1.0526e-05
1.04654e-05
1.0615e-05
1.08897e-05
1.13031e-05
1.19173e-05
1.29676e-05
1.46158e-05
1.69373e-05
1.99125e-05
2.26507e-05
2.40467e-05
2.31533e-05
1.66576e-05
6.49084e-06
2.83055e-06
2.85474e-06
3.88512e-06
5.70916e-06
8.8722e-06
1.45306e-05
2.15149e-05
2.8275e-05
3.31364e-05
3.32079e-05
2.05296e-05
5.42656e-06
1.42407e-06
7.8148e-07
6.64311e-07
6.25197e-07
6.06306e-07
5.93954e-07
5.80704e-07
5.59181e-07
5.26585e-07
8.05743e-06
9.00601e-06
1.00509e-05
1.06339e-05
1.10453e-05
1.12491e-05
1.13629e-05
1.14499e-05
1.14912e-05
1.16319e-05
1.19385e-05
1.24626e-05
1.322e-05
1.42325e-05
1.55414e-05
1.71558e-05
1.9014e-05
2.0834e-05
2.23692e-05
2.27443e-05
2.13155e-05
1.491e-05
4.9606e-06
1.58926e-06
1.27802e-06
1.3617e-06
1.63491e-06
2.20387e-06
3.38328e-06
5.64376e-06
9.09867e-06
1.29902e-05
1.53879e-05
1.23638e-05
5.08185e-06
1.5748e-06
8.40272e-07
6.87409e-07
6.37006e-07
6.13843e-07
6.009e-07
5.91058e-07
5.79127e-07
5.58688e-07
5.27817e-07
4.48036e-06
4.90889e-06
5.95877e-06
6.92287e-06
8.54726e-06
9.69119e-06
1.12044e-05
1.21452e-05
1.32149e-05
1.41648e-05
1.52298e-05
1.64046e-05
1.77349e-05
1.91224e-05
2.05045e-05
2.16452e-05
2.23322e-05
2.19061e-05
2.01301e-05
1.55191e-05
8.71131e-06
3.25473e-06
1.39406e-06
1.0088e-06
9.29206e-07
9.35516e-07
9.95465e-07
1.12569e-06
1.39503e-06
1.93133e-06
2.86299e-06
3.88055e-06
4.31299e-06
2.93397e-06
1.39356e-06
8.45161e-07
6.97583e-07
6.42866e-07
6.1661e-07
6.02168e-07
5.92855e-07
5.84325e-07
5.70526e-07
5.42206e-07
4.91486e-07
2.89516e-06
2.88885e-06
2.91071e-06
3.20715e-06
3.57829e-06
4.23323e-06
5.06024e-06
6.16882e-06
7.36924e-06
8.73152e-06
1.02161e-05
1.1778e-05
1.3308e-05
1.45358e-05
1.51935e-05
1.5062e-05
1.34464e-05
1.03957e-05
6.63491e-06
3.45449e-06
1.8108e-06
1.09457e-06
8.52987e-07
7.75406e-07
7.51815e-07
7.50386e-07
7.61822e-07
7.89476e-07
8.43691e-07
9.41364e-07
1.09825e-06
1.25913e-06
1.2768e-06
1.00475e-06
7.82674e-07
6.83614e-07
2.42362e-06
2.25355e-06
2.11746e-06
2.04964e-06
2.02121e-06
2.01844e-06
2.10491e-06
2.26351e-06
2.5225e-06
2.80972e-06
3.1435e-06
3.49315e-06
3.83712e-06
4.01416e-06
4.05514e-06
3.75186e-06
3.07036e-06
2.23535e-06
1.5255e-06
1.08842e-06
8.62641e-07
7.4693e-07
6.90989e-07
6.66049e-07
6.55848e-07
6.5191e-07
6.51698e-07
6.55993e-07
6.66325e-07
6.85715e-07
7.12758e-07
7.33877e-07
7.27055e-07
6.83343e-07
6.39906e-07
2.12201e-06
1.86701e-06
1.78189e-06
1.61565e-06
1.54416e-06
1.41946e-06
1.37356e-06
1.30124e-06
1.2755e-06
1.25977e-06
1.2674e-06
1.28427e-06
1.29395e-06
1.28639e-06
1.24754e-06
1.15845e-06
1.02522e-06
8.86262e-07
7.73187e-07
6.9481e-07
6.42243e-07
6.07814e-07
5.88592e-07
5.7719e-07
5.70651e-07
5.66927e-07
5.64671e-07
5.63767e-07
5.63771e-07
5.65788e-07
5.69502e-07
5.72617e-07
5.68666e-07
5.56049e-07
5.40152e-07
2.73378e-06
2.60151e-06
2.31624e-06
2.21175e-06
2.04017e-06
1.85151e-06
1.76118e-06
1.5725e-06
1.49088e-06
1.35137e-06
1.25705e-06
1.15574e-06
1.06856e-06
9.88396e-07
9.16813e-07
8.52261e-07
7.94948e-07
7.44902e-07
7.01471e-07
6.63947e-07
6.32258e-07
6.06192e-07
5.85757e-07
5.70682e-07
5.60704e-07
5.53284e-07
5.46275e-07
5.39021e-07
5.31057e-07
5.22194e-07
5.12768e-07
5.02886e-07
4.90061e-07
4.75093e-07
4.60102e-07
0.000624386
0.000640259
0.000641406
0.000624997
0.000607637
0.00059136
0.000575188
0.000542853
0.000474343
0.000380895
0.000325259
0.000285924
0.000222915
0.000166036
0.000138002
0.000127672
0.000118095
0.000105421
9.45493e-05
8.98435e-05
9.08818e-05
9.72542e-05
0.000103279
0.000102809
9.76893e-05
7.52869e-05
5.17854e-05
4.5446e-05
4.59e-05
5.10313e-05
5.34642e-05
5.13791e-05
4.69192e-05
4.78736e-05
4.62484e-05
3.52301e-05
8.34897e-06
1.11927e-06
5.80685e-07
5.49699e-07
5.41034e-07
5.24753e-07
4.84052e-07
4.05142e-07
0.000634207
0.000650935
0.000691599
0.000739896
0.000736805
0.000681498
0.000643441
0.000643136
0.000641914
0.000544411
0.000335233
0.000263072
0.000227687
0.000199977
0.000176398
0.000148089
0.000121782
0.000104232
9.56406e-05
9.56383e-05
0.000100464
0.000104472
0.0001012
8.91787e-05
7.64507e-05
5.90438e-05
4.51788e-05
4.29983e-05
4.42546e-05
4.42947e-05
4.44586e-05
4.48042e-05
5.03951e-05
5.86206e-05
4.0449e-05
1.34554e-05
2.5861e-06
7.62687e-07
5.59821e-07
5.18737e-07
5.03096e-07
4.91264e-07
4.71119e-07
4.87533e-07
0.000268431
0.000280345
0.000289786
0.000305231
0.000318219
0.000322129
0.000329045
0.000344672
0.000332212
0.000230232
0.000122925
8.32881e-05
7.34648e-05
7.19798e-05
6.17777e-05
4.59638e-05
3.50509e-05
3.10267e-05
3.19061e-05
3.38448e-05
3.37381e-05
3.17571e-05
2.93812e-05
2.72414e-05
2.71754e-05
2.98732e-05
3.30314e-05
3.44678e-05
3.84624e-05
4.76298e-05
5.36214e-05
5.48758e-05
6.2169e-05
7.57584e-05
4.35556e-05
9.32446e-06
2.40474e-06
8.90014e-07
6.24494e-07
5.57346e-07
5.29413e-07
5.15555e-07
5.0576e-07
4.9403e-07
5.4503e-07
5.59291e-05
5.8656e-05
6.3036e-05
6.92079e-05
7.4697e-05
7.69258e-05
7.52413e-05
6.88467e-05
5.62117e-05
3.88656e-05
2.74643e-05
2.19484e-05
1.9831e-05
1.78807e-05
1.44873e-05
1.14747e-05
1.00536e-05
9.66403e-06
1.01215e-05
1.07551e-05
1.13383e-05
1.17662e-05
1.16471e-05
1.13991e-05
1.25409e-05
1.63802e-05
2.33592e-05
2.95178e-05
3.4102e-05
4.0684e-05
4.95787e-05
5.66156e-05
6.02817e-05
5.78083e-05
3.08415e-05
8.95853e-06
2.30093e-06
8.74313e-07
6.22307e-07
5.57825e-07
5.32253e-07
5.19928e-07
5.12634e-07
5.11378e-07
6.46235e-07
1.14201e-05
1.17237e-05
1.22184e-05
1.3239e-05
1.39746e-05
1.42612e-05
1.41419e-05
1.26156e-05
1.05728e-05
9.11965e-06
8.36783e-06
7.85553e-06
7.27549e-06
6.80691e-06
6.61946e-06
6.77961e-06
7.23878e-06
7.96224e-06
9.03263e-06
9.92984e-06
9.58425e-06
7.81909e-06
6.51062e-06
6.1478e-06
7.30319e-06
1.01293e-05
1.47157e-05
2.10638e-05
2.86259e-05
3.68275e-05
4.45238e-05
4.70194e-05
4.476e-05
2.95505e-05
9.96373e-06
2.37882e-06
8.52537e-07
6.09117e-07
5.51141e-07
5.29367e-07
5.19173e-07
5.13495e-07
5.08989e-07
5.165e-07
6.51982e-06
6.59325e-06
6.74447e-06
6.91667e-06
7.04722e-06
7.09186e-06
7.02493e-06
6.70834e-06
6.45337e-06
6.26773e-06
6.16863e-06
6.12947e-06
6.16542e-06
6.31899e-06
6.6198e-06
7.13224e-06
7.88801e-06
8.91719e-06
9.87401e-06
9.88035e-06
8.02417e-06
5.38766e-06
2.95077e-06
2.53554e-06
3.08886e-06
4.27804e-06
6.24546e-06
9.58419e-06
1.54447e-05
2.27382e-05
2.99164e-05
3.48792e-05
3.38948e-05
1.9314e-05
4.99433e-06
1.29439e-06
6.91128e-07
5.75673e-07
5.39608e-07
5.24335e-07
5.17032e-07
5.13195e-07
5.09303e-07
5.03595e-07
4.56558e-06
5.02377e-06
5.4678e-06
5.74147e-06
5.99661e-06
6.13277e-06
6.2673e-06
6.36349e-06
6.4187e-06
6.45813e-06
6.55352e-06
6.73748e-06
7.04561e-06
7.49065e-06
8.06162e-06
8.71985e-06
9.43018e-06
9.93147e-06
1.00852e-05
9.21058e-06
7.41912e-06
4.68668e-06
2.11539e-06
1.40982e-06
1.33332e-06
1.49344e-06
1.83344e-06
2.44867e-06
3.62744e-06
5.85946e-06
9.43742e-06
1.34312e-05
1.57123e-05
1.21489e-05
4.79863e-06
1.4686e-06
7.55598e-07
5.9946e-07
5.50319e-07
5.29647e-07
5.19751e-07
5.14727e-07
5.12023e-07
5.08793e-07
5.02874e-07
2.90823e-06
3.0595e-06
3.36242e-06
3.68207e-06
4.1769e-06
4.61233e-06
5.11133e-06
5.53364e-06
5.94346e-06
6.34357e-06
6.77323e-06
7.26649e-06
7.85756e-06
8.53875e-06
9.28133e-06
9.74307e-06
9.85655e-06
9.05869e-06
7.24326e-06
5.10227e-06
2.92912e-06
1.59211e-06
1.07483e-06
9.15449e-07
8.82313e-07
9.16911e-07
1.00416e-06
1.16501e-06
1.4606e-06
2.00104e-06
2.9199e-06
3.9192e-06
4.31736e-06
2.83261e-06
1.31237e-06
7.67767e-07
6.1385e-07
5.59087e-07
5.34768e-07
5.22603e-07
5.16186e-07
5.12722e-07
5.10353e-07
5.07564e-07
5.09963e-07
2.10966e-06
2.09625e-06
2.0893e-06
2.15499e-06
2.26119e-06
2.40139e-06
2.58863e-06
2.8054e-06
3.05181e-06
3.34099e-06
3.6703e-06
4.04922e-06
4.47658e-06
4.87979e-06
5.0695e-06
4.97617e-06
4.34718e-06
3.39417e-06
2.32632e-06
1.54004e-06
1.07887e-06
8.35962e-07
7.26092e-07
6.83782e-07
6.72276e-07
6.78952e-07
6.99991e-07
7.38881e-07
8.04811e-07
9.09579e-07
1.06324e-06
1.21492e-06
1.21871e-06
9.35976e-07
7.10285e-07
6.07877e-07
1.78338e-06
1.72097e-06
1.60802e-06
1.57456e-06
1.53884e-06
1.51752e-06
1.51691e-06
1.52375e-06
1.54826e-06
1.57903e-06
1.62082e-06
1.67721e-06
1.73067e-06
1.75361e-06
1.74671e-06
1.63684e-06
1.42703e-06
1.17623e-06
9.52648e-07
7.9675e-07
6.9731e-07
6.36783e-07
6.04271e-07
5.89359e-07
5.842e-07
5.84525e-07
5.88969e-07
5.97295e-07
6.11047e-07
6.31792e-07
6.5732e-07
6.77627e-07
6.69161e-07
6.24633e-07
5.81958e-07
1.71566e-06
1.59987e-06
1.42826e-06
1.38245e-06
1.29591e-06
1.21062e-06
1.17787e-06
1.10969e-06
1.08422e-06
1.04424e-06
1.01883e-06
9.91862e-07
9.6632e-07
9.38756e-07
9.04372e-07
8.55279e-07
7.9295e-07
7.28617e-07
6.72346e-07
6.28821e-07
5.96988e-07
5.74974e-07
5.61325e-07
5.5424e-07
5.51376e-07
5.50814e-07
5.50771e-07
5.51092e-07
5.51749e-07
5.53553e-07
5.56889e-07
5.6002e-07
5.57097e-07
5.46291e-07
5.3261e-07
3.36148e-06
3.11873e-06
2.82335e-06
2.70563e-06
2.50155e-06
2.2803e-06
2.17818e-06
1.9494e-06
1.85559e-06
1.68954e-06
1.57692e-06
1.4564e-06
1.35188e-06
1.25516e-06
1.16811e-06
1.08921e-06
1.01785e-06
9.53753e-07
8.97055e-07
8.48059e-07
8.06762e-07
7.73262e-07
7.47554e-07
7.2919e-07
7.17915e-07
7.10963e-07
7.05128e-07
6.99684e-07
6.93943e-07
6.87537e-07
6.80796e-07
6.71959e-07
6.57625e-07
6.38954e-07
6.19108e-07
0.0006749
0.00069582
0.000713029
0.00071211
0.000704548
0.000681766
0.000637497
0.000549598
0.000432176
0.000336398
0.000278269
0.000235391
0.000191206
0.000151395
0.000128358
0.000119836
0.000109447
9.53096e-05
8.24218e-05
7.50177e-05
7.40463e-05
7.55492e-05
7.95815e-05
7.98621e-05
7.44802e-05
5.39225e-05
4.48789e-05
4.32107e-05
4.58647e-05
5.55408e-05
5.73359e-05
5.5636e-05
5.40478e-05
5.55792e-05
5.20487e-05
3.41425e-05
5.95922e-06
1.00162e-06
6.59653e-07
6.35421e-07
6.23058e-07
5.9879e-07
5.39231e-07
4.26911e-07
0.000681889
0.000703705
0.000768997
0.000835059
0.000829296
0.000770335
0.000724942
0.000695587
0.000622274
0.000441267
0.000292032
0.000228214
0.000187026
0.000161943
0.000143289
0.000119092
9.50214e-05
7.89246e-05
6.94267e-05
6.77247e-05
6.92313e-05
6.97384e-05
6.75663e-05
6.12957e-05
5.06432e-05
4.09882e-05
3.81586e-05
4.01516e-05
4.69747e-05
5.23653e-05
5.18863e-05
5.10033e-05
6.14682e-05
7.37111e-05
4.30015e-05
1.1803e-05
2.07821e-06
7.49483e-07
5.7893e-07
5.35307e-07
5.17855e-07
5.06538e-07
4.92297e-07
5.34445e-07
0.000301258
0.000312326
0.000320838
0.000331557
0.000334657
0.000327513
0.000322179
0.000311542
0.000264229
0.000166039
0.000107342
8.16945e-05
7.20546e-05
6.60894e-05
5.39837e-05
3.76735e-05
2.64254e-05
2.22255e-05
2.17002e-05
2.15514e-05
2.05157e-05
1.92413e-05
1.90996e-05
1.93348e-05
2.02707e-05
2.27568e-05
2.70542e-05
3.24813e-05
4.02721e-05
5.11961e-05
6.01817e-05
6.43744e-05
7.62485e-05
8.64963e-05
4.41167e-05
8.63694e-06
2.11901e-06
8.3885e-07
6.11458e-07
5.44038e-07
5.15265e-07
5.02503e-07
4.98324e-07
5.03637e-07
6.1367e-07
5.54105e-05
5.64335e-05
5.77544e-05
5.93422e-05
6.04895e-05
6.0668e-05
5.81217e-05
5.18097e-05
4.1988e-05
3.32069e-05
2.58216e-05
2.12235e-05
1.89997e-05
1.63031e-05
1.23948e-05
8.96995e-06
7.30529e-06
6.7851e-06
6.89477e-06
7.04918e-06
7.10349e-06
7.29233e-06
7.61472e-06
8.38964e-06
1.01208e-05
1.35616e-05
1.91892e-05
2.5986e-05
3.28003e-05
4.09124e-05
5.05539e-05
6.14246e-05
6.84698e-05
6.28689e-05
2.84994e-05
7.474e-06
1.81095e-06
7.87602e-07
5.88874e-07
5.28607e-07
5.03914e-07
4.94132e-07
4.94609e-07
5.16288e-07
7.54004e-07
9.72741e-06
9.78524e-06
9.94073e-06
1.03419e-05
1.07501e-05
1.09426e-05
1.09502e-05
1.01893e-05
8.99657e-06
7.87068e-06
7.16731e-06
6.55639e-06
5.81905e-06
5.07368e-06
4.65621e-06
4.52842e-06
4.6407e-06
4.87712e-06
5.05154e-06
5.10701e-06
4.89443e-06
4.65425e-06
4.62683e-06
5.21488e-06
6.69475e-06
9.60639e-06
1.42855e-05
2.05705e-05
2.81716e-05
3.67978e-05
4.57925e-05
5.007e-05
4.68431e-05
2.701e-05
7.71344e-06
1.78282e-06
7.56156e-07
5.67011e-07
5.14603e-07
4.9453e-07
4.87167e-07
4.88132e-07
4.99434e-07
5.43003e-07
5.06232e-06
5.07489e-06
5.11449e-06
5.20289e-06
5.25548e-06
5.27116e-06
5.19332e-06
4.96199e-06
4.74524e-06
4.53519e-06
4.34736e-06
4.17268e-06
4.00816e-06
3.90688e-06
3.87479e-06
3.94228e-06
4.08631e-06
4.2151e-06
4.2563e-06
4.00445e-06
3.48838e-06
2.8693e-06
2.46892e-06
2.56688e-06
3.12064e-06
4.19584e-06
6.01054e-06
9.01922e-06
1.42923e-05
2.16618e-05
2.95532e-05
3.47885e-05
3.175e-05
1.48447e-05
3.55562e-06
1.06696e-06
6.34354e-07
5.3491e-07
5.01138e-07
4.87228e-07
4.82424e-07
4.83876e-07
4.90281e-07
5.00191e-07
3.61615e-06
3.74304e-06
3.85111e-06
3.92251e-06
3.99537e-06
4.03496e-06
4.0617e-06
4.07272e-06
4.05469e-06
4.00908e-06
3.96922e-06
3.9489e-06
3.94972e-06
3.97924e-06
4.03405e-06
4.1015e-06
4.1413e-06
4.10618e-06
3.91613e-06
3.52049e-06
2.98521e-06
2.20607e-06
1.59356e-06
1.37397e-06
1.37852e-06
1.54501e-06
1.86129e-06
2.40163e-06
3.35975e-06
5.16103e-06
8.2682e-06
1.19342e-05
1.39671e-05
9.8981e-06
3.59298e-06
1.2218e-06
6.91918e-07
5.57173e-07
5.10995e-07
4.91323e-07
4.82638e-07
4.80125e-07
4.82701e-07
4.89571e-07
4.98496e-07
2.62546e-06
2.6554e-06
2.72604e-06
2.78577e-06
2.89255e-06
2.98479e-06
3.06623e-06
3.14763e-06
3.19683e-06
3.25422e-06
3.3085e-06
3.37114e-06
3.44219e-06
3.52003e-06
3.56201e-06
3.56412e-06
3.45431e-06
3.18328e-06
2.74441e-06
2.16626e-06
1.58355e-06
1.17458e-06
9.65061e-07
8.85184e-07
8.72085e-07
9.12914e-07
9.99561e-07
1.1475e-06
1.39651e-06
1.8214e-06
2.52786e-06
3.30775e-06
3.58384e-06
2.26571e-06
1.12207e-06
7.07163e-07
5.7275e-07
5.2112e-07
4.97798e-07
4.86406e-07
4.81238e-07
4.80529e-07
4.84752e-07
4.96852e-07
5.30963e-07
2.03322e-06
2.00764e-06
1.97771e-06
1.97037e-06
1.98116e-06
1.99515e-06
2.00478e-06
2.03134e-06
2.0425e-06
2.06832e-06
2.0873e-06
2.11367e-06
2.13635e-06
2.14548e-06
2.13455e-06
2.07144e-06
1.89306e-06
1.6158e-06
1.30625e-06
1.05032e-06
8.66801e-07
7.47814e-07
6.83546e-07
6.56164e-07
6.49617e-07
6.59437e-07
6.82294e-07
7.20389e-07
7.798e-07
8.67705e-07
9.84779e-07
1.09166e-06
1.07477e-06
8.45341e-07
6.62568e-07
5.71841e-07
1.77131e-06
1.73034e-06
1.60783e-06
1.55763e-06
1.52049e-06
1.47003e-06
1.4357e-06
1.4111e-06
1.36963e-06
1.34682e-06
1.31275e-06
1.28769e-06
1.25925e-06
1.22557e-06
1.18152e-06
1.11156e-06
1.01165e-06
8.982e-07
7.92418e-07
7.0877e-07
6.47666e-07
6.05629e-07
5.81175e-07
5.69933e-07
5.66663e-07
5.69222e-07
5.75233e-07
5.84197e-07
5.96947e-07
6.1433e-07
6.34114e-07
6.48866e-07
6.37803e-07
5.9757e-07
5.58383e-07
1.82312e-06
1.7633e-06
1.53601e-06
1.47597e-06
1.3947e-06
1.28908e-06
1.24185e-06
1.16705e-06
1.11483e-06
1.07246e-06
1.02305e-06
9.83151e-07
9.41234e-07
9.00259e-07
8.56976e-07
8.09561e-07
7.58875e-07
7.09332e-07
6.65327e-07
6.29505e-07
6.021e-07
5.82468e-07
5.70231e-07
5.64191e-07
5.62153e-07
5.62327e-07
5.62585e-07
5.62714e-07
5.62891e-07
5.6372e-07
5.66005e-07
5.6783e-07
5.63895e-07
5.52929e-07
5.39398e-07
3.88067e-06
3.51218e-06
3.22076e-06
3.09116e-06
2.85793e-06
2.61021e-06
2.49809e-06
2.23581e-06
2.125e-06
1.94459e-06
1.8114e-06
1.67603e-06
1.55524e-06
1.44379e-06
1.34249e-06
1.25014e-06
1.16639e-06
1.0914e-06
1.02545e-06
9.68865e-07
9.21546e-07
8.83467e-07
8.54525e-07
8.34192e-07
8.22119e-07
8.15674e-07
8.10981e-07
8.07093e-07
8.03103e-07
7.98453e-07
7.93328e-07
7.84417e-07
7.68382e-07
7.46591e-07
7.2296e-07
0.000699835
0.000720468
0.000757999
0.000768373
0.000764633
0.000737091
0.000663207
0.000525274
0.000401206
0.000303942
0.00023847
0.000196253
0.00016151
0.000127
0.000108607
0.000101554
9.32608e-05
8.03427e-05
6.93354e-05
5.78958e-05
4.91341e-05
4.83784e-05
5.07664e-05
5.15967e-05
4.49081e-05
3.69913e-05
3.59789e-05
3.67892e-05
4.25437e-05
5.10764e-05
5.37835e-05
5.50828e-05
5.8147e-05
5.85125e-05
5.20878e-05
2.66492e-05
3.50141e-06
8.69816e-07
7.10338e-07
6.91782e-07
6.76364e-07
6.45065e-07
5.70074e-07
4.35473e-07
0.000711353
0.000743215
0.000834157
0.000903297
0.000894541
0.000837223
0.000768891
0.000683929
0.00051559
0.00033178
0.000232752
0.000179999
0.000144058
0.000121392
0.000109696
9.50508e-05
7.35741e-05
5.55242e-05
4.36688e-05
3.82799e-05
3.71122e-05
3.69346e-05
3.66417e-05
3.49518e-05
3.22594e-05
3.23712e-05
3.55065e-05
4.36755e-05
5.71127e-05
6.77312e-05
6.85834e-05
6.9824e-05
9.44146e-05
9.12836e-05
3.6462e-05
7.72736e-06
1.45777e-06
7.15287e-07
5.86202e-07
5.45094e-07
5.27417e-07
5.16496e-07
5.05264e-07
5.60505e-07
0.00032148
0.000330659
0.00033695
0.000342504
0.000334468
0.000313611
0.000287599
0.000245875
0.000180269
0.000121688
9.28621e-05
7.41692e-05
6.30404e-05
5.39461e-05
4.47436e-05
3.20902e-05
2.15673e-05
1.62642e-05
1.41715e-05
1.31411e-05
1.26269e-05
1.25419e-05
1.31475e-05
1.4214e-05
1.60293e-05
1.94407e-05
2.46287e-05
3.16354e-05
4.09685e-05
5.2547e-05
6.45056e-05
8.03301e-05
9.9304e-05
9.51575e-05
3.66189e-05
5.98844e-06
1.56236e-06
7.69292e-07
5.96589e-07
5.33704e-07
5.05815e-07
4.94483e-07
4.94228e-07
5.10667e-07
6.56828e-07
5.97931e-05
5.87296e-05
5.72497e-05
5.51957e-05
5.17556e-05
4.7945e-05
4.34101e-05
3.7719e-05
3.23125e-05
2.80383e-05
2.30323e-05
1.92793e-05
1.68139e-05
1.43465e-05
1.11352e-05
7.86532e-06
6.08606e-06
5.4333e-06
5.34273e-06
5.39328e-06
5.45802e-06
5.70766e-06
6.2368e-06
7.22485e-06
9.01619e-06
1.2031e-05
1.66463e-05
2.2544e-05
2.93034e-05
3.72242e-05
4.79773e-05
6.32196e-05
7.3459e-05
5.89706e-05
1.99898e-05
4.4395e-06
1.29507e-06
7.09999e-07
5.61805e-07
5.08171e-07
4.85319e-07
4.77861e-07
4.83689e-07
5.20651e-07
8.25959e-07
1.03109e-05
9.94599e-06
9.67228e-06
9.5351e-06
9.46057e-06
9.38817e-06
9.18325e-06
8.68434e-06
7.91364e-06
7.06681e-06
6.41764e-06
5.84405e-06
5.16338e-06
4.4047e-06
3.88382e-06
3.68122e-06
3.68132e-06
3.83246e-06
3.94013e-06
3.97913e-06
3.99435e-06
4.05483e-06
4.25615e-06
4.85353e-06
6.11945e-06
8.43976e-06
1.20608e-05
1.69864e-05
2.3556e-05
3.22059e-05
4.28819e-05
4.92808e-05
4.29636e-05
1.83147e-05
4.35755e-06
1.25489e-06
6.73004e-07
5.35021e-07
4.89633e-07
4.71658e-07
4.66726e-07
4.72536e-07
4.94596e-07
5.60506e-07
5.07496e-06
4.9898e-06
4.91513e-06
4.88197e-06
4.83475e-06
4.76438e-06
4.62813e-06
4.39649e-06
4.15403e-06
3.90946e-06
3.67047e-06
3.43785e-06
3.21152e-06
3.01299e-06
2.87497e-06
2.81092e-06
2.79648e-06
2.7984e-06
2.7657e-06
2.68091e-06
2.55104e-06
2.38599e-06
2.29034e-06
2.44358e-06
2.88657e-06
3.69217e-06
4.99094e-06
7.07777e-06
1.07705e-05
1.69432e-05
2.4442e-05
2.94996e-05
2.27351e-05
8.0614e-06
2.15742e-06
8.71278e-07
5.85644e-07
5.0536e-07
4.75063e-07
4.62766e-07
4.60164e-07
4.65781e-07
4.79766e-07
5.00094e-07
3.55087e-06
3.55788e-06
3.56023e-06
3.5451e-06
3.53484e-06
3.5068e-06
3.45269e-06
3.38955e-06
3.29025e-06
3.18388e-06
3.06866e-06
2.95964e-06
2.85792e-06
2.76471e-06
2.68584e-06
2.61777e-06
2.55432e-06
2.47383e-06
2.3485e-06
2.16505e-06
1.92988e-06
1.63351e-06
1.40215e-06
1.30798e-06
1.33673e-06
1.47484e-06
1.72047e-06
2.1142e-06
2.75988e-06
3.90334e-06
5.9317e-06
8.39158e-06
9.63327e-06
5.95922e-06
2.26012e-06
9.8313e-07
6.32567e-07
5.24672e-07
4.83713e-07
4.65671e-07
4.58266e-07
4.57881e-07
4.6463e-07
4.78931e-07
4.97912e-07
2.64924e-06
2.63383e-06
2.63332e-06
2.61842e-06
2.61958e-06
2.61608e-06
2.57498e-06
2.55477e-06
2.49786e-06
2.45393e-06
2.39919e-06
2.34529e-06
2.28669e-06
2.22725e-06
2.16222e-06
2.08664e-06
1.98568e-06
1.84493e-06
1.65361e-06
1.42346e-06
1.18869e-06
1.00194e-06
8.92791e-07
8.47985e-07
8.44039e-07
8.80343e-07
9.51677e-07
1.06665e-06
1.2467e-06
1.52815e-06
1.95044e-06
2.36707e-06
2.44224e-06
1.58991e-06
9.24851e-07
6.47634e-07
5.3994e-07
4.94368e-07
4.72938e-07
4.62509e-07
4.5842e-07
4.59919e-07
4.69022e-07
4.91295e-07
5.45539e-07
2.10074e-06
2.05977e-06
2.01996e-06
1.96919e-06
1.94935e-06
1.93073e-06
1.88669e-06
1.86842e-06
1.81296e-06
1.77681e-06
1.72378e-06
1.67472e-06
1.62119e-06
1.56503e-06
1.50184e-06
1.41899e-06
1.30347e-06
1.16047e-06
1.00859e-06
8.75265e-07
7.7226e-07
6.98645e-07
6.55052e-07
6.35755e-07
6.317e-07
6.41352e-07
6.61577e-07
6.93232e-07
7.39644e-07
8.03623e-07
8.79548e-07
9.39054e-07
9.0645e-07
7.4852e-07
6.17498e-07
5.43289e-07
1.85927e-06
1.8099e-06
1.71678e-06
1.61956e-06
1.57491e-06
1.51865e-06
1.45003e-06
1.41959e-06
1.34711e-06
1.30884e-06
1.24658e-06
1.19344e-06
1.13707e-06
1.08132e-06
1.02138e-06
9.53445e-07
8.77115e-07
7.9895e-07
7.2731e-07
6.68069e-07
6.22334e-07
5.89213e-07
5.68938e-07
5.5941e-07
5.56698e-07
5.59376e-07
5.65228e-07
5.73489e-07
5.84014e-07
5.97114e-07
6.10546e-07
6.19316e-07
6.07239e-07
5.74001e-07
5.40503e-07
1.97663e-06
1.93133e-06
1.70825e-06
1.58334e-06
1.51881e-06
1.40913e-06
1.31535e-06
1.26028e-06
1.17045e-06
1.12936e-06
1.06043e-06
1.01201e-06
9.57729e-07
9.07455e-07
8.56947e-07
8.06427e-07
7.5644e-07
7.0972e-07
6.68776e-07
6.35271e-07
6.0939e-07
5.90667e-07
5.78939e-07
5.73126e-07
5.71105e-07
5.71266e-07
5.71315e-07
5.7088e-07
5.70453e-07
5.70388e-07
5.71586e-07
5.71936e-07
5.67038e-07
5.5615e-07
5.42952e-07
4.13795e-06
3.91564e-06
3.49568e-06