/*--------------------------------*- C++ -*----------------------------------*\
| =========                 |                                                 |
| \\      /  F ield         | OpenFOAM: The Open Source CFD Toolbox           |
|  \\    /   O peration     | Version:  2.3.1                                 |
|   \\  /    A nd           | Web:      www.OpenFOAM.org                      |
|    \\/     M anipulation  |                                                 |
\*---------------------------------------------------------------------------*/
FoamFile
{
    version     2.0;
    format      ascii;
    class       volScalarField;
    location    "15";
    object      k;
}
// * * * * * * * * * * * * * * * * * * * * * * * * * * * * * * * * * * * * * //

dimensions      [0 2 -2 0 0 0 0];

internalField   nonuniform List<scalar> 
38152
(
0.00033581
0.000346668
0.000346614
0.000340721
0.000328461
0.000328346
0.00033069
0.000343186
0.000381238
0.000395595
0.000392658
0.000383939
0.000366451
0.000294298
0.000205272
0.000175144
0.000161125
0.000149035
0.000145807
0.000146231
0.000146622
0.00014733
0.000146838
0.000147511
0.000150957
0.000148225
0.000128137
9.46995e-05
7.9144e-05
7.61718e-05
8.0034e-05
8.51623e-05
8.47404e-05
8.16171e-05
8.01977e-05
7.31348e-05
3.75797e-05
8.81852e-06
3.75394e-06
3.15845e-06
2.97454e-06
2.85534e-06
2.75889e-06
3.19306e-06
0.000387539
0.000394439
0.000419486
0.000441818
0.000428549
0.000387981
0.000388789
0.000412512
0.000413911
0.000372872
0.000215972
0.00014724
0.000156847
0.000171093
0.000167302
0.000156941
0.000142489
0.000136578
0.000137868
0.000140077
0.000141551
0.000142169
0.000147076
0.000151687
0.000147634
0.000129247
9.89231e-05
9.28916e-05
9.50208e-05
9.81801e-05
0.000104905
0.000109698
0.000105983
8.40802e-05
5.09071e-05
3.2416e-05
1.23736e-05
5.555e-06
4.685e-06
4.5043e-06
4.37267e-06
4.19326e-06
3.80171e-06
3.73666e-06
0.000188848
0.000191403
0.000196409
0.000207934
0.000221301
0.000226121
0.000237274
0.000264098
0.000251131
0.000199665
0.000107023
8.27829e-05
8.90976e-05
9.21815e-05
8.71295e-05
7.6742e-05
6.75418e-05
6.6089e-05
7.28791e-05
8.30571e-05
9.09626e-05
9.59962e-05
9.86754e-05
9.8502e-05
9.86892e-05
0.000103916
0.000104653
9.91851e-05
8.99965e-05
8.93928e-05
9.51163e-05
0.000115477
0.000120012
0.000105341
4.80056e-05
1.88084e-05
1.03637e-05
6.65062e-06
5.76077e-06
5.52292e-06
5.34909e-06
5.18459e-06
4.92106e-06
4.32235e-06
3.86019e-06
8.41779e-05
8.70046e-05
8.71584e-05
8.92194e-05
8.68032e-05
8.07474e-05
8.10684e-05
8.7284e-05
8.3776e-05
6.89629e-05
6.10234e-05
6.04482e-05
6.06349e-05
6.00568e-05
5.74637e-05
5.52721e-05
5.44666e-05
5.63127e-05
6.06348e-05
6.6386e-05
7.14508e-05
7.37658e-05
7.34318e-05
6.96213e-05
7.04257e-05
7.91511e-05
8.6267e-05
8.32941e-05
7.57538e-05
8.2725e-05
0.000105542
0.000117362
0.00011463
9.96348e-05
5.6813e-05
2.61908e-05
1.09976e-05
6.91742e-06
6.14544e-06
5.87707e-06
5.7074e-06
5.54109e-06
5.25583e-06
4.60897e-06
3.99713e-06
5.72079e-05
5.86755e-05
6.02191e-05
6.03182e-05
6.02772e-05
5.91349e-05
5.68005e-05
5.34524e-05
5.12997e-05
5.03585e-05
4.99672e-05
4.94909e-05
4.87729e-05
4.8228e-05
4.81492e-05
4.92533e-05
5.18783e-05
5.57598e-05
6.03349e-05
6.3979e-05
6.55948e-05
6.31994e-05
5.86378e-05
4.92746e-05
4.37138e-05
4.04788e-05
3.95509e-05
4.89949e-05
7.01685e-05
8.63848e-05
9.52872e-05
9.64248e-05
9.1306e-05
6.63304e-05
2.95501e-05
1.11318e-05
6.92556e-06
6.23266e-06
5.99708e-06
5.84643e-06
5.70099e-06
5.47301e-06
5.01884e-06
4.195e-06
5.10496e-05
5.26532e-05
5.39742e-05
5.44714e-05
5.45717e-05
5.38769e-05
5.28681e-05
5.17457e-05
5.10462e-05
5.06504e-05
5.03419e-05
4.99046e-05
4.94941e-05
4.93557e-05
4.98939e-05
5.14292e-05
5.38401e-05
5.65163e-05
5.94364e-05
6.12338e-05
5.96518e-05
5.46716e-05
3.54501e-05
1.5894e-05
1.21024e-05
1.27914e-05
1.61652e-05
2.37571e-05
3.57976e-05
4.99687e-05
6.27635e-05
7.10503e-05
7.10619e-05
4.73507e-05
1.71408e-05
8.01438e-06
6.52658e-06
6.16484e-06
5.9866e-06
5.86584e-06
5.74567e-06
5.56691e-06
5.25609e-06
4.80438e-06
3.81246e-05
4.06094e-05
4.17309e-05
4.52182e-05
4.79364e-05
4.92626e-05
4.97506e-05
4.98349e-05
4.97943e-05
4.99442e-05
5.00427e-05
5.01766e-05
5.04008e-05
5.0869e-05
5.14233e-05
5.2083e-05
5.28973e-05
5.39276e-05
5.53981e-05
5.58595e-05
5.49383e-05
5.0283e-05
3.01132e-05
1.03761e-05
7.60495e-06
8.06807e-06
8.79494e-06
1.0102e-05
1.27562e-05
1.74627e-05
2.41394e-05
3.24448e-05
3.73885e-05
3.0994e-05
1.58922e-05
8.29868e-06
6.66206e-06
6.24611e-06
6.04715e-06
5.92377e-06
5.82581e-06
5.71965e-06
5.5514e-06
5.25077e-06
4.81607e-06
3.29466e-05
3.27743e-05
3.23517e-05
3.44821e-05
3.52398e-05
3.81175e-05
4.01487e-05
4.23878e-05
4.41145e-05
4.5283e-05
4.62666e-05
4.72178e-05
4.81033e-05
4.89275e-05
4.96749e-05
5.02974e-05
5.07151e-05
5.07928e-05
5.0395e-05
4.77453e-05
3.8554e-05
2.08772e-05
9.65129e-06
7.6591e-06
7.60328e-06
7.62927e-06
7.69376e-06
7.94271e-06
8.57589e-06
9.93247e-06
1.21683e-05
1.42224e-05
1.46998e-05
1.13403e-05
7.92424e-06
6.67692e-06
6.25939e-06
6.04223e-06
5.90642e-06
5.81186e-06
5.73102e-06
5.62745e-06
5.4255e-06
5.00707e-06
4.18438e-06
2.96843e-05
2.81291e-05
2.71932e-05
2.68123e-05
2.66307e-05
2.70016e-05
2.77807e-05
2.90061e-05
3.0473e-05
3.23399e-05
3.42749e-05
3.62295e-05
3.81811e-05
3.97594e-05
4.10306e-05
4.16399e-05
4.11288e-05
3.8181e-05
3.1192e-05
2.12329e-05
1.26828e-05
8.56272e-06
7.4411e-06
7.29854e-06
7.28267e-06
7.29199e-06
7.28726e-06
7.27728e-06
7.30713e-06
7.45683e-06
7.72015e-06
7.97795e-06
7.80806e-06
7.07364e-06
6.4752e-06
6.13863e-06
2.73454e-05
2.63593e-05
2.4341e-05
2.36014e-05
2.19182e-05
2.13647e-05
2.05046e-05
2.02561e-05
2.01915e-05
2.02715e-05
2.05829e-05
2.1037e-05
2.14778e-05
2.16581e-05
2.16721e-05
2.08675e-05
1.86074e-05
1.51742e-05
1.16954e-05
9.13623e-06
7.84551e-06
7.28302e-06
7.03343e-06
6.9025e-06
6.82363e-06
6.77059e-06
6.73535e-06
6.70982e-06
6.68609e-06
6.66211e-06
6.63395e-06
6.55316e-06
6.36727e-06
6.09733e-06
5.83859e-06
2.36188e-05
2.28982e-05
2.12153e-05
2.08972e-05
1.89317e-05
1.85191e-05
1.69069e-05
1.63736e-05
1.52601e-05
1.4612e-05
1.39422e-05
1.33669e-05
1.28148e-05
1.22211e-05
1.15379e-05
1.06711e-05
9.61882e-06
8.57258e-06
7.71953e-06
7.11728e-06
6.6888e-06
6.37017e-06
6.14556e-06
5.97937e-06
5.86123e-06
5.78605e-06
5.74274e-06
5.71727e-06
5.69618e-06
5.6629e-06
5.60146e-06
5.49126e-06
5.32046e-06
5.11416e-06
4.91113e-06
1.61494e-05
1.56397e-05
1.45571e-05
1.42234e-05
1.31416e-05
1.27759e-05
1.17709e-05
1.13552e-05
1.0541e-05
9.97538e-06
9.32772e-06
8.73618e-06
8.15672e-06
7.59863e-06
7.05881e-06
6.53726e-06
6.04285e-06
5.59771e-06
5.21551e-06
4.8977e-06
4.63628e-06
4.42666e-06
4.26386e-06
4.14418e-06
4.06145e-06
3.99761e-06
3.94066e-06
3.88221e-06
3.81436e-06
3.73095e-06
3.62944e-06
3.51324e-06
3.38123e-06
3.24356e-06
3.11554e-06
0.000589663
0.000599488
0.000594372
0.000562939
0.000551421
0.000549514
0.000548949
0.000551819
0.000545362
0.000517606
0.000473103
0.000436858
0.000371978
0.000287682
0.00024413
0.0002284
0.000213436
0.000202929
0.000194841
0.00018881
0.000188316
0.000192649
0.000200929
0.000202349
0.000200099
0.000184907
0.000137985
0.000112306
0.000108338
0.000111645
0.000114038
0.000111524
0.000102994
0.00010255
0.000102111
9.134e-05
4.18202e-05
9.9771e-06
5.36416e-06
5.09891e-06
5.07276e-06
5.01194e-06
4.84227e-06
4.71836e-06
0.00087527
0.000891643
0.0009289
0.000956923
0.000939966
0.000872909
0.000850043
0.000850833
0.000837955
0.000698828
0.000423326
0.000428917
0.000448747
0.000421678
0.000392345
0.000357668
0.000314003
0.000279494
0.000259966
0.00025615
0.000260529
0.000269373
0.000270004
0.00025487
0.000230136
0.000207423
0.000173438
0.000162636
0.00015805
0.000145244
0.000139492
0.000131849
0.000122386
0.000116282
8.6551e-05
4.47811e-05
1.62057e-05
8.75663e-06
8.17032e-06
8.31502e-06
8.40568e-06
8.26094e-06
7.50425e-06
5.37681e-06
0.000492334
0.000506038
0.000515843
0.000534423
0.000552304
0.000557974
0.000568369
0.000585308
0.000560228
0.00038332
0.000225919
0.000204127
0.000200954
0.000201641
0.000188081
0.000161425
0.000139751
0.000130391
0.000133777
0.000143043
0.000149901
0.000152925
0.000151706
0.000142997
0.000140352
0.00015006
0.000160723
0.000153419
0.000149891
0.000157924
0.000178161
0.000189868
0.000191945
0.000189534
9.6294e-05
2.67742e-05
1.34655e-05
1.01509e-05
9.91988e-06
1.01544e-05
1.02782e-05
1.02542e-05
9.91537e-06
8.75985e-06
5.67529e-06
0.000176867
0.000184216
0.000191856
0.000205831
0.000214725
0.000210571
0.000190078
0.00017112
0.000151451
0.000123444
0.000107647
9.93666e-05
9.57705e-05
9.34109e-05
8.89674e-05
8.42749e-05
8.21649e-05
8.26459e-05
8.61367e-05
9.14747e-05
9.74252e-05
9.94082e-05
9.54031e-05
8.46298e-05
8.4204e-05
9.69537e-05
0.000123758
0.000128622
0.000135896
0.000157881
0.00018517
0.00019621
0.000193264
0.000169492
8.54261e-05
3.13366e-05
1.38203e-05
1.114e-05
1.11217e-05
1.11909e-05
1.12276e-05
1.11424e-05
1.07241e-05
9.47644e-06
6.14985e-06
7.66366e-05
7.57316e-05
7.74956e-05
7.88992e-05
7.94405e-05
7.88834e-05
7.75888e-05
7.46497e-05
7.09134e-05
6.872e-05
6.7879e-05
6.76364e-05
6.72122e-05
6.68583e-05
6.69782e-05
6.82187e-05
7.09287e-05
7.53661e-05
8.20257e-05
8.65088e-05
8.48811e-05
7.10464e-05
4.65386e-05
3.71633e-05
3.85401e-05
4.78987e-05
7.22799e-05
9.84419e-05
0.000124162
0.000148828
0.000165097
0.000164921
0.000146613
8.63502e-05
3.52522e-05
1.53122e-05
1.21691e-05
1.17391e-05
1.16903e-05
1.16845e-05
1.15921e-05
1.1243e-05
1.03609e-05
8.45226e-06
5.99594e-05
5.94141e-05
6.08255e-05
6.16414e-05
6.32781e-05
6.40794e-05
6.45168e-05
6.40826e-05
6.38303e-05
6.39319e-05
6.44495e-05
6.50268e-05
6.56453e-05
6.64321e-05
6.75176e-05
6.94579e-05
7.24865e-05
7.64428e-05
7.98285e-05
7.85535e-05
6.41304e-05
4.18778e-05
2.42674e-05
1.8183e-05
2.04685e-05
2.63538e-05
3.51669e-05
4.94467e-05
7.22451e-05
9.71392e-05
0.000117453
0.000123716
0.000112459
6.23872e-05
2.27765e-05
1.37678e-05
1.22701e-05
1.1958e-05
1.19077e-05
1.18905e-05
1.18024e-05
1.15261e-05
1.09242e-05
9.93092e-06
5.09723e-05
5.21307e-05
5.50439e-05
5.65983e-05
5.83395e-05
5.96747e-05
6.0552e-05
6.14522e-05
6.20841e-05
6.27174e-05
6.36262e-05
6.47901e-05
6.61211e-05
6.761e-05
6.93114e-05
7.11197e-05
7.2892e-05
7.41421e-05
7.48645e-05
7.01247e-05
5.5111e-05
3.82428e-05
2.12411e-05
1.48008e-05
1.46908e-05
1.51776e-05
1.60682e-05
1.79262e-05
2.23371e-05
3.13387e-05
4.41867e-05
5.62648e-05
5.95317e-05
4.44853e-05
2.23957e-05
1.44074e-05
1.26336e-05
1.21044e-05
1.19632e-05
1.1945e-05
1.19262e-05
1.18293e-05
1.15467e-05
1.09496e-05
9.97483e-06
4.091e-05
4.07715e-05
4.18987e-05
4.25273e-05
4.61983e-05
4.80236e-05
5.28471e-05
5.51322e-05
5.79597e-05
5.98934e-05
6.19755e-05
6.4096e-05
6.64272e-05
6.88398e-05
7.0885e-05
7.20663e-05
7.13973e-05
6.54834e-05
5.36733e-05
4.04157e-05
2.76619e-05
1.88667e-05
1.57321e-05
1.52055e-05
1.51379e-05
1.49476e-05
1.45553e-05
1.43163e-05
1.4346e-05
1.53691e-05
1.80564e-05
2.11855e-05
2.19479e-05
1.76592e-05
1.41235e-05
1.27554e-05
1.21647e-05
1.19429e-05
1.18814e-05
1.18647e-05
1.18299e-05
1.16978e-05
1.13222e-05
1.04555e-05
8.69284e-06
3.3598e-05
3.27154e-05
3.12554e-05
3.08008e-05
3.05238e-05
3.04173e-05
3.07902e-05
3.1686e-05
3.38158e-05
3.64636e-05
3.96879e-05
4.29732e-05
4.57216e-05
4.70097e-05
4.74669e-05
4.44674e-05
3.87117e-05
3.03373e-05
2.34014e-05
1.82073e-05
1.53286e-05
1.42979e-05
1.39609e-05
1.38511e-05
1.37473e-05
1.36293e-05
1.35116e-05
1.33812e-05
1.32383e-05
1.31393e-05
1.33158e-05
1.36811e-05
1.37809e-05
1.31528e-05
1.24562e-05
1.19782e-05
3.0221e-05
2.83679e-05
2.69749e-05
2.56343e-05
2.4902e-05
2.33876e-05
2.28436e-05
2.14839e-05
2.0987e-05
2.03073e-05
2.01351e-05
2.0108e-05
2.01416e-05
2.00422e-05
1.95696e-05
1.85577e-05
1.70129e-05
1.53346e-05
1.40783e-05
1.33302e-05
1.29201e-05
1.26605e-05
1.24628e-05
1.22938e-05
1.21678e-05
1.20759e-05
1.19982e-05
1.19311e-05
1.18817e-05
1.18608e-05
1.18649e-05
1.1891e-05
1.18334e-05
1.16064e-05
1.1319e-05
2.30506e-05
2.11644e-05
2.06602e-05
1.95124e-05
1.90906e-05
1.79015e-05
1.75789e-05
1.65524e-05
1.62078e-05
1.53215e-05
1.48899e-05
1.42628e-05
1.37935e-05
1.3353e-05
1.29503e-05
1.25359e-05
1.20907e-05
1.16522e-05
1.12584e-05
1.0916e-05
1.06178e-05
1.03521e-05
1.01227e-05
9.9528e-06
9.83041e-06
9.75359e-06
9.7186e-06
9.71072e-06
9.72969e-06
9.76635e-06
9.80316e-06
9.81842e-06
9.77811e-06
9.65172e-06
9.48524e-06
1.80589e-05
1.7471e-05
1.61699e-05
1.56804e-05
1.48576e-05
1.39272e-05
1.34703e-05
1.24902e-05
1.20543e-05
1.12898e-05
1.07583e-05
1.0172e-05
9.65385e-06
9.16473e-06
8.71666e-06
8.30249e-06
7.92592e-06
7.58963e-06
7.29164e-06
7.02918e-06
6.80365e-06
6.61528e-06
6.46571e-06
6.35425e-06
6.27994e-06
6.22441e-06
6.17172e-06
6.11697e-06
6.05657e-06
5.989e-06
5.91672e-06
5.84046e-06
5.74076e-06
5.62325e-06
5.50431e-06
0.000674136
0.000685589
0.000686475
0.000674822
0.000662239
0.000650328
0.000638466
0.000614457
0.000561857
0.000485422
0.000436875
0.000401068
0.00033993
0.000279237
0.000246684
0.000234135
0.000222278
0.000206084
0.000191649
0.000185199
0.000186605
0.000195208
0.000203242
0.000202645
0.000195915
0.000164863
0.000128425
0.000117631
0.000118382
0.00012701
0.000131048
0.000127641
0.00012012
0.000121741
0.000118986
9.93467e-05
3.81606e-05
9.98206e-06
6.42984e-06
6.19737e-06
6.13198e-06
6.00831e-06
5.69342e-06
5.22719e-06
0.00107304
0.00109013
0.00113584
0.00118444
0.00117444
0.00110944
0.0010683
0.0010426
0.000983554
0.000744675
0.000537544
0.000509733
0.000478318
0.000444769
0.00041647
0.000373809
0.000322328
0.000282531
0.000260334
0.000259536
0.000267083
0.000275414
0.000272854
0.000254773
0.000228462
0.000199161
0.000176083
0.000175162
0.000182696
0.000183048
0.000179761
0.000164647
0.000163002
0.000168735
0.000116077
4.8402e-05
1.82176e-05
1.15657e-05
1.08158e-05
1.08107e-05
1.08031e-05
1.05226e-05
9.44556e-06
6.12429e-06
0.000630211
0.000645425
0.000655956
0.000672758
0.000684308
0.000680963
0.000675025
0.000665299
0.000589743
0.000395883
0.00029232
0.000255039
0.000236207
0.000227555
0.000204981
0.000170042
0.000143277
0.000132333
0.000133005
0.000137005
0.000138033
0.000135781
0.000131381
0.000125805
0.000126206
0.000135348
0.000146852
0.000154942
0.000171948
0.000197414
0.000216971
0.000221458
0.000234455
0.000240942
0.000134788
3.67641e-05
1.76413e-05
1.41454e-05
1.35357e-05
1.33778e-05
1.32875e-05
1.31191e-05
1.25989e-05
1.10909e-05
6.59687e-06
0.000190661
0.000195487
0.000202329
0.00021147
0.000217023
0.000215043
0.000202396
0.000185338
0.000164248
0.00014169
0.000122932
0.000108195
0.000101423
9.52233e-05
8.58915e-05
7.6164e-05
7.07896e-05
6.87682e-05
6.88997e-05
6.94814e-05
6.90852e-05
6.78131e-05
6.46963e-05
6.30257e-05
6.89211e-05
8.41228e-05
0.000107816
0.000132167
0.000154403
0.000179661
0.000206695
0.000225733
0.000227494
0.000206655
0.00010744
3.72517e-05
1.84019e-05
1.56077e-05
1.49504e-05
1.46293e-05
1.44541e-05
1.42155e-05
1.36209e-05
1.20507e-05
7.39014e-06
7.54231e-05
7.57266e-05
7.69097e-05
7.90359e-05
8.04591e-05
8.09486e-05
8.07767e-05
7.81582e-05
7.34491e-05
6.87423e-05
6.60834e-05
6.40236e-05
6.16086e-05
5.88184e-05
5.62735e-05
5.45005e-05
5.31028e-05
5.18272e-05
5.08908e-05
4.96817e-05
4.40021e-05
3.65574e-05
3.33946e-05
3.6483e-05
4.44139e-05
6.21127e-05
8.47487e-05
0.000109837
0.000137199
0.000164704
0.00018696
0.000191091
0.000174823
0.000104509
4.05978e-05
2.07403e-05
1.68575e-05
1.5628e-05
1.51966e-05
1.50006e-05
1.47661e-05
1.42566e-05
1.3121e-05
1.07329e-05
6.07566e-05
6.05987e-05
6.11134e-05
6.19582e-05
6.2973e-05
6.34976e-05
6.36606e-05
6.25582e-05
6.12714e-05
6.0092e-05
5.89552e-05
5.76563e-05
5.6105e-05
5.43808e-05
5.26233e-05
5.10829e-05
4.98331e-05
4.89573e-05
4.81359e-05
4.34648e-05
3.44626e-05
2.78523e-05
2.47994e-05
2.56085e-05
2.87615e-05
3.46182e-05
4.32917e-05
5.72988e-05
8.12897e-05
0.000109291
0.000133753
0.000145177
0.000131081
6.88594e-05
2.85413e-05
1.94717e-05
1.6688e-05
1.57134e-05
1.53846e-05
1.52198e-05
1.5012e-05
1.45933e-05
1.37781e-05
1.24798e-05
5.44109e-05
5.51796e-05
5.60636e-05
5.66209e-05
5.74366e-05
5.77831e-05
5.82462e-05
5.8406e-05
5.8421e-05
5.79123e-05
5.72149e-05
5.62651e-05
5.50669e-05
5.37648e-05
5.24183e-05
5.10821e-05
4.98108e-05
4.82231e-05
4.54569e-05
3.96445e-05
3.24325e-05
2.68302e-05
2.27895e-05
2.179e-05
2.13366e-05
2.16455e-05
2.25675e-05
2.44062e-05
2.84054e-05
3.67585e-05
5.05439e-05
6.43959e-05
6.91406e-05
5.18202e-05
2.88186e-05
2.05443e-05
1.74226e-05
1.60707e-05
1.55613e-05
1.53525e-05
1.52225e-05
1.50226e-05
1.46053e-05
1.38e-05
1.25293e-05
4.88569e-05
4.80504e-05
4.7543e-05
4.73184e-05
4.77083e-05
4.79293e-05
4.90031e-05
4.93996e-05
4.96181e-05
4.95629e-05
4.92653e-05
4.88253e-05
4.82996e-05
4.77577e-05
4.70767e-05
4.6067e-05
4.33506e-05
3.90622e-05
3.31415e-05
2.77957e-05
2.49554e-05
2.26089e-05
2.12918e-05
2.02989e-05
1.98953e-05
1.97261e-05
1.96319e-05
1.96064e-05
1.99259e-05
2.09775e-05
2.3591e-05
2.70084e-05
2.83241e-05
2.39921e-05
1.99247e-05
1.75603e-05
1.62016e-05
1.55757e-05
1.53072e-05
1.51752e-05
1.50558e-05
1.48307e-05
1.43164e-05
1.32123e-05
1.10276e-05
4.3373e-05
4.2418e-05
4.05568e-05
3.95282e-05
3.8687e-05
3.72991e-05
3.66278e-05
3.54602e-05
3.46075e-05
3.36273e-05
3.27498e-05
3.19122e-05
3.12462e-05
3.07038e-05
3.00996e-05
2.83878e-05
2.58697e-05
2.38126e-05
2.21178e-05
2.06957e-05
2.00224e-05
1.9022e-05
1.82442e-05
1.78092e-05
1.7596e-05
1.74935e-05
1.74558e-05
1.74798e-05
1.75828e-05
1.77956e-05
1.82433e-05
1.87881e-05
1.89779e-05
1.80953e-05
1.68705e-05
1.58741e-05
3.74359e-05
3.66051e-05
3.44954e-05
3.3605e-05
3.26389e-05
3.09989e-05
3.02076e-05
2.86618e-05
2.76003e-05
2.62762e-05
2.51226e-05
2.39457e-05
2.29261e-05
2.2038e-05
2.12396e-05
2.04938e-05
1.97524e-05
1.90802e-05
1.83482e-05
1.75517e-05
1.68464e-05
1.6243e-05
1.57955e-05
1.55121e-05
1.53537e-05
1.5272e-05
1.52377e-05
1.52423e-05
1.52979e-05
1.5414e-05
1.55853e-05
1.57322e-05
1.57101e-05
1.53483e-05
1.48338e-05
2.79084e-05
2.71929e-05
2.55421e-05
2.51306e-05
2.43925e-05
2.32556e-05
2.28286e-05
2.16528e-05
2.10873e-05
2.0172e-05
1.94549e-05
1.8701e-05
1.80228e-05
1.73888e-05
1.68108e-05
1.62536e-05
1.56746e-05
1.50793e-05
1.44835e-05
1.39306e-05
1.34443e-05
1.30367e-05
1.27267e-05
1.25145e-05
1.23787e-05
1.23088e-05
1.22914e-05
1.23267e-05
1.24037e-05
1.25121e-05
1.26277e-05
1.27081e-05
1.2695e-05
1.25213e-05
1.22644e-05
2.07277e-05
1.97159e-05
1.84515e-05
1.79355e-05
1.70208e-05
1.60021e-05
1.55206e-05
1.44138e-05
1.39478e-05
1.31024e-05
1.25136e-05
1.18675e-05
1.12927e-05
1.07473e-05
1.02444e-05
9.77777e-06
9.34584e-06
8.94918e-06
8.59084e-06
8.27503e-06
8.0041e-06
7.78088e-06
7.60739e-06
7.48222e-06
7.40485e-06
7.35696e-06
7.31665e-06
7.27894e-06
7.23908e-06
7.19447e-06
7.14737e-06
7.08543e-06
6.98435e-06
6.85152e-06
6.70888e-06
0.000710053
0.000724654
0.000736634
0.000736041
0.000730871
0.000715096
0.000683976
0.000619837
0.000528187
0.000446902
0.000393779
0.000352275
0.000306717
0.00026247
0.000235034
0.000224457
0.000211303
0.000192708
0.000174902
0.000164227
0.000162788
0.000164981
0.000170817
0.000171235
0.000163533
0.00013196
0.00011668
0.00011373
0.000118293
0.000134385
0.000137306
0.000134591
0.000131988
0.000134482
0.000128756
9.73527e-05
3.04761e-05
9.26334e-06
6.99952e-06
6.82604e-06
6.73714e-06
6.561e-06
6.11834e-06
5.41284e-06
0.00117784
0.00119797
0.00126394
0.00133084
0.00132188
0.00125467
0.00118718
0.00112174
0.000974598
0.000690571
0.000530992
0.000486604
0.000431744
0.00039683
0.00037342
0.000333281
0.000278853
0.000233153
0.000208203
0.000206572
0.000212194
0.000215265
0.000212418
0.000200844
0.000183377
0.000170174
0.000167101
0.000174033
0.000194909
0.000209319
0.000206966
0.000191964
0.000208346
0.000213939
0.000122903
4.52049e-05
1.82123e-05
1.31923e-05
1.24608e-05
1.23741e-05
1.22948e-05
1.18972e-05
1.05821e-05
6.51116e-06
0.000713344
0.000725946
0.00073348
0.000742926
0.000739403
0.000717436
0.000687534
0.000636712
0.000522377
0.000367996
0.000301325
0.00026364
0.000238908
0.000220562
0.000191966
0.000153292
0.000123184
0.000110151
0.000107465
0.000107219
0.000106123
0.000104233
0.000104612
0.000106377
0.000110739
0.00012106
0.000137202
0.000155894
0.0001783
0.00020696
0.000229331
0.000243516
0.000270163
0.000271148
0.000136919
3.65595e-05
1.98453e-05
1.67279e-05
1.58264e-05
1.5406e-05
1.5172e-05
1.48963e-05
1.42453e-05
1.25006e-05
7.13978e-06
0.000202509
0.000203426
0.000204711
0.000205867
0.000204644
0.000199807
0.000189723
0.000174049
0.000155904
0.000140608
0.000122337
0.000107516
9.93477e-05
9.07441e-05
7.96256e-05
6.85795e-05
6.24734e-05
6.01971e-05
6.00185e-05
5.99276e-05
5.86015e-05
5.74782e-05
5.76362e-05
6.10514e-05
6.95494e-05
8.44596e-05
0.000106148
0.000131547
0.000155397
0.000181267
0.000209058
0.000233788
0.000245371
0.000218218
0.000101916
3.50511e-05
2.08462e-05
1.84525e-05
1.73615e-05
1.67917e-05
1.64748e-05
1.6129e-05
1.54112e-05
1.36391e-05
8.19052e-06
7.76352e-05
7.72221e-05
7.71594e-05
7.79327e-05
7.85146e-05
7.86538e-05
7.81639e-05
7.56884e-05
7.14037e-05
6.70324e-05
6.43833e-05
6.21884e-05
5.94836e-05
5.62729e-05
5.31971e-05
5.09577e-05
4.89993e-05
4.68455e-05
4.40088e-05
4.09872e-05
3.89247e-05
3.8107e-05
3.93098e-05
4.34586e-05
5.11837e-05
6.5582e-05
8.55053e-05
0.000109838
0.000136763
0.000165036
0.000190567
0.000199
0.000179549
9.81977e-05
3.78639e-05
2.34731e-05
1.9643e-05
1.80517e-05
1.7407e-05
1.7084e-05
1.67483e-05
1.61227e-05
1.48196e-05
1.21392e-05
6.36223e-05
6.30592e-05
6.28729e-05
6.30371e-05
6.32534e-05
6.33302e-05
6.29965e-05
6.16909e-05
6.02417e-05
5.88391e-05
5.73797e-05
5.56378e-05
5.34958e-05
5.10375e-05
4.84572e-05
4.60062e-05
4.35985e-05
4.0921e-05
3.7782e-05
3.46684e-05
3.22756e-05
3.11506e-05
3.08826e-05
3.16758e-05
3.40277e-05
3.85251e-05
4.57707e-05
5.80987e-05
7.92398e-05
0.000106785
0.000133206
0.000145569
0.000124309
6.06458e-05
3.02248e-05
2.26211e-05
1.93687e-05
1.80804e-05
1.75849e-05
1.73167e-05
1.70178e-05
1.64882e-05
1.55156e-05
1.39996e-05
5.97281e-05
5.94269e-05
5.91176e-05
5.88676e-05
5.87546e-05
5.85242e-05
5.84091e-05
5.81549e-05
5.76312e-05
5.67488e-05
5.5561e-05
5.40382e-05
5.21183e-05
4.98848e-05
4.74146e-05
4.47938e-05
4.19827e-05
3.89344e-05
3.58464e-05
3.30086e-05
3.08952e-05
2.93479e-05
2.80085e-05
2.66124e-05
2.60716e-05
2.63304e-05
2.71803e-05
2.87163e-05
3.15939e-05
3.77385e-05
4.89835e-05
6.11512e-05
6.55774e-05
4.88369e-05
3.0941e-05
2.39585e-05
2.03073e-05
1.85615e-05
1.78444e-05
1.75135e-05
1.72995e-05
1.70177e-05
1.6494e-05
1.55339e-05
1.40475e-05
5.56442e-05
5.48113e-05
5.39885e-05
5.31119e-05
5.26979e-05
5.20224e-05
5.14417e-05
5.07114e-05
4.9729e-05
4.86679e-05
4.73321e-05
4.56888e-05
4.37212e-05
4.15567e-05
3.92822e-05
3.6893e-05
3.45342e-05
3.24438e-05
3.06645e-05
2.91886e-05
2.78596e-05
2.63573e-05
2.46107e-05
2.35706e-05
2.31457e-05
2.30442e-05
2.31434e-05
2.33871e-05
2.38846e-05
2.48855e-05
2.68403e-05
2.93915e-05
3.05344e-05
2.7027e-05
2.326e-05
2.0462e-05
1.87271e-05
1.78765e-05
1.74785e-05
1.72654e-05
1.70817e-05
1.67838e-05
1.6167e-05
1.49038e-05
1.24426e-05
5.03624e-05
4.95339e-05
4.80721e-05
4.68635e-05
4.60393e-05
4.47627e-05
4.36035e-05
4.23698e-05
4.08682e-05
3.93562e-05
3.7626e-05
3.58214e-05
3.39694e-05
3.21928e-05
3.05246e-05
2.8959e-05
2.75612e-05
2.63601e-05
2.52447e-05
2.42214e-05
2.30283e-05
2.18558e-05
2.09389e-05
2.04225e-05
2.01895e-05
2.01125e-05
2.01451e-05
2.02765e-05
2.05225e-05
2.09064e-05
2.14558e-05
2.19652e-05
2.20554e-05
2.10452e-05
1.95686e-05
1.83059e-05
4.30674e-05
4.25469e-05
4.07051e-05
3.95256e-05
3.87612e-05
3.73268e-05
3.61574e-05
3.49637e-05
3.34629e-05
3.21278e-05
3.06171e-05
2.91936e-05
2.78118e-05
2.65505e-05
2.53968e-05
2.4333e-05
2.32933e-05
2.2245e-05
2.11794e-05
2.01692e-05
1.92701e-05
1.8524e-05
1.79812e-05
1.76498e-05
1.74805e-05
1.74125e-05
1.74104e-05
1.74709e-05
1.75922e-05
1.77782e-05
1.80087e-05
1.81844e-05
1.81335e-05
1.76774e-05
1.70311e-05
3.20685e-05
3.21157e-05
3.0057e-05
2.93512e-05
2.89241e-05
2.7548e-05
2.69173e-05
2.60208e-05
2.49311e-05
2.41276e-05
2.30967e-05
2.22123e-05
2.13126e-05
2.04766e-05
1.96717e-05
1.88837e-05
1.80896e-05
1.73017e-05
1.65487e-05
1.58688e-05
1.52847e-05
1.48088e-05
1.44551e-05
1.42199e-05
1.40812e-05
1.40162e-05
1.40153e-05
1.40779e-05
1.41873e-05
1.43294e-05
1.44701e-05
1.45655e-05
1.4541e-05
1.43248e-05
1.40095e-05
2.28112e-05
2.13412e-05
2.0145e-05
1.96011e-05
1.86016e-05
1.75108e-05
1.70056e-05
1.57933e-05
1.52673e-05
1.43901e-05
1.37254e-05
1.30327e-05
1.23987e-05
1.1799e-05
1.12403e-05
1.07187e-05
1.02344e-05
9.79082e-06
9.39227e-06
9.04339e-06
8.74641e-06
8.50369e-06
8.31687e-06
8.18435e-06
8.10514e-06
8.06271e-06
8.03174e-06
8.00606e-06
7.97966e-06
7.94885e-06
7.91481e-06
7.85549e-06
7.74812e-06
7.60093e-06
7.43967e-06
0.000727451
0.000741632
0.000767223
0.000774298
0.000771838
0.000753306
0.000702446
0.000601543
0.000502649
0.000417693
0.000355303
0.000311998
0.000274019
0.000233432
0.000210245
0.000201011
0.000189922
0.000171965
0.000155871
0.000138212
0.000123857
0.000122564
0.000126563
0.000127977
0.000116761
0.000102581
0.000100674
0.000102155
0.000112482
0.000127101
0.000131572
0.000133681
0.00013858
0.000139187
0.00012885
8.26201e-05
2.13837e-05
8.42455e-06
7.35307e-06
7.22399e-06
7.11618e-06
6.89487e-06
6.34951e-06
5.48499e-06
0.00123713
0.00126556
0.00135516
0.00142686
0.00141612
0.00134341
0.00124155
0.00111563
0.000867662
0.000607911
0.000499912
0.000424811
0.000356129
0.000321201
0.000305949
0.000280095
0.000227407
0.000175763
0.000145576
0.00013718
0.000139873
0.000140828
0.000140183
0.000139543
0.000139705
0.000145569
0.000156867
0.000176025
0.000206306
0.000229093
0.000229876
0.000229916
0.000271968
0.000245617
0.000105566
3.59425e-05
1.7435e-05
1.41765e-05
1.35505e-05
1.34225e-05
1.32826e-05
1.27848e-05
1.12819e-05
6.72118e-06
0.000766106
0.000773759
0.000775863
0.000775254
0.000752996
0.000707551
0.000644754
0.000550556
0.000423392
0.000330858
0.000293622
0.000250726
0.000218202
0.000192558
0.000166223
0.000134321
0.000106681
9.10617e-05
8.39888e-05
8.09795e-05
8.14505e-05
8.19352e-05
8.49512e-05
8.93411e-05
9.63849e-05
0.000109013
0.000126676
0.000147689
0.000172804
0.000202245
0.000230208
0.000262957
0.000300537
0.000277231
0.000114897
3.16747e-05
2.09247e-05
1.84293e-05
1.73542e-05
1.67724e-05
1.64436e-05
1.60876e-05
1.53312e-05
1.34031e-05
7.47078e-06
0.000225373
0.000220628
0.000214144
0.00020618
0.000195368
0.00018182
0.000167711
0.000153046
0.000141619
0.000130165
0.000113336
9.97503e-05
9.13631e-05
8.3584e-05
7.41362e-05
6.44315e-05
5.83287e-05
5.58989e-05
5.56793e-05
5.58675e-05
5.5424e-05
5.52331e-05
5.66661e-05
6.05817e-05
6.78986e-05
8.0249e-05
9.81308e-05
0.000119011
0.000140366
0.000163322
0.000191207
0.000227702
0.000245809
0.000200361
7.7984e-05
3.00561e-05
2.25297e-05
2.03304e-05
1.89675e-05
1.82571e-05
1.78482e-05
1.74219e-05
1.66055e-05
1.46758e-05
8.7037e-06
8.73143e-05
8.4617e-05
8.23053e-05
8.05536e-05
7.9182e-05
7.81264e-05
7.65878e-05
7.3879e-05
6.99635e-05
6.61384e-05
6.35513e-05
6.1391e-05
5.89526e-05
5.60207e-05
5.31015e-05
5.09979e-05
4.96439e-05
4.87206e-05
4.73218e-05
4.54623e-05
4.43344e-05
4.40376e-05
4.46711e-05
4.71586e-05
5.281e-05
6.32962e-05
7.80566e-05
9.62994e-05
0.000118496
0.000145491
0.000175359
0.000189483
0.000161864
7.40592e-05
3.33867e-05
2.49901e-05
2.13466e-05
1.96581e-05
1.89129e-05
1.8508e-05
1.80936e-05
1.73711e-05
1.59266e-05
1.30144e-05
6.98883e-05
6.86657e-05
6.76596e-05
6.70587e-05
6.64523e-05
6.58161e-05
6.48416e-05
6.32985e-05
6.16469e-05
6.00939e-05
5.85342e-05
5.66882e-05
5.43908e-05
5.17013e-05
4.8873e-05
4.62997e-05
4.41068e-05
4.20549e-05
4.00929e-05
3.84794e-05
3.73312e-05
3.61681e-05
3.52427e-05
3.52376e-05
3.67646e-05
3.99375e-05
4.50241e-05
5.27436e-05
6.66043e-05
8.88561e-05
0.000113376
0.000125833
9.52045e-05
4.66932e-05
3.06676e-05
2.42805e-05
2.10484e-05
1.96773e-05
1.90955e-05
1.8755e-05
1.8381e-05
1.7753e-05
1.66371e-05
1.49208e-05
6.4959e-05
6.43513e-05
6.37848e-05
6.3173e-05
6.27817e-05
6.22961e-05
6.17552e-05
6.11667e-05
6.02594e-05
5.9127e-05
5.76912e-05
5.59616e-05
5.37997e-05
5.12158e-05
4.83858e-05
4.55751e-05
4.29951e-05
4.06588e-05
3.84031e-05
3.63138e-05
3.45338e-05
3.29019e-05
3.09304e-05
2.96113e-05
2.91782e-05
2.9407e-05
3.01032e-05
3.12526e-05
3.30661e-05
3.65079e-05
4.31361e-05
5.12205e-05
5.44987e-05
4.20745e-05
3.14223e-05
2.57083e-05
2.20476e-05
2.02163e-05
1.94065e-05
1.90025e-05
1.87256e-05
1.83734e-05
1.77536e-05
1.66509e-05
1.49641e-05
6.07464e-05
5.9967e-05
5.93152e-05
5.83599e-05
5.78506e-05
5.71764e-05
5.62696e-05
5.54741e-05
5.42559e-05
5.29916e-05
5.13845e-05
4.94379e-05
4.7081e-05
4.44683e-05
4.18284e-05
3.93565e-05
3.7175e-05
3.52621e-05
3.34989e-05
3.18455e-05
3.00601e-05
2.82035e-05
2.66054e-05
2.56954e-05
2.53241e-05
2.52659e-05
2.546e-05
2.58479e-05
2.64524e-05
2.73626e-05
2.88067e-05
3.03498e-05
3.0962e-05
2.83968e-05
2.50769e-05
2.22119e-05
2.03804e-05
1.94401e-05
1.89711e-05
1.87035e-05
1.84684e-05
1.81076e-05
1.74008e-05
1.59993e-05
1.33042e-05
5.5282e-05
5.44726e-05
5.35499e-05
5.22736e-05
5.15291e-05
5.05898e-05
4.9282e-05
4.82962e-05
4.66993e-05
4.51896e-05
4.33014e-05
4.12838e-05
3.91042e-05
3.69258e-05
3.48563e-05
3.29471e-05
3.11672e-05
2.94662e-05
2.78145e-05
2.62606e-05
2.485e-05
2.36306e-05
2.272e-05
2.22007e-05
2.19713e-05
2.19106e-05
2.19874e-05
2.21752e-05
2.24801e-05
2.29152e-05
2.34613e-05
2.38902e-05
2.38368e-05
2.27835e-05
2.12364e-05
1.98904e-05
4.72601e-05
4.66717e-05
4.56195e-05
4.40428e-05
4.33437e-05
4.23095e-05
4.07661e-05
3.99111e-05
3.81251e-05
3.6792e-05
3.50316e-05
3.33645e-05
3.1647e-05
3.00146e-05
2.84722e-05
2.70162e-05
2.56117e-05
2.42561e-05
2.298e-05
2.18301e-05
2.0845e-05
2.00485e-05
1.94735e-05
1.91244e-05
1.89518e-05
1.88897e-05
1.89113e-05
1.90032e-05
1.91574e-05
1.93694e-05
1.96053e-05
1.97682e-05
1.96723e-05
1.91642e-05
1.84643e-05
3.51605e-05
3.51614e-05
3.42067e-05
3.26238e-05
3.22733e-05
3.12884e-05
3.00044e-05
2.94929e-05
2.78931e-05
2.71987e-05
2.5868e-05
2.48446e-05
2.37238e-05
2.26781e-05
2.16565e-05
2.06635e-05
1.96905e-05
1.87598e-05
1.79024e-05
1.71486e-05
1.65139e-05
1.60054e-05
1.56317e-05
1.53863e-05
1.52484e-05
1.51859e-05
1.5196e-05
1.52722e-05
1.53957e-05
1.55485e-05
1.56896e-05
1.57791e-05
1.57334e-05
1.54919e-05
1.51505e-05
2.3809e-05