/*--------------------------------*- C++ -*----------------------------------*\
| =========                 |                                                 |
| \\      /  F ield         | OpenFOAM: The Open Source CFD Toolbox           |
|  \\    /   O peration     | Version:  2.3.1                                 |
|   \\  /    A nd           | Web:      www.OpenFOAM.org                      |
|    \\/     M anipulation  |                                                 |
\*---------------------------------------------------------------------------*/
FoamFile
{
    version     2.0;
    format      ascii;
    class       volScalarField;
    location    "15";
    object      k_0;
}
// * * * * * * * * * * * * * * * * * * * * * * * * * * * * * * * * * * * * * //

dimensions      [0 2 -2 0 0 0 0];

internalField   nonuniform List<scalar> 
38152
(
0.000336172
0.000346945
0.00034687
0.000340874
0.000328658
0.000328577
0.000330973
0.000343607
0.000381751
0.000395922
0.000392951
0.000384194
0.00036648
0.000293612
0.000204921
0.000175077
0.000161119
0.000149067
0.000145874
0.000146301
0.000146688
0.000147387
0.000146896
0.000147577
0.000151013
0.000148233
0.000127982
9.45806e-05
7.9106e-05
7.61817e-05
8.00734e-05
8.51876e-05
8.47597e-05
8.16345e-05
8.02151e-05
7.31131e-05
3.74668e-05
8.78764e-06
3.75086e-06
3.15826e-06
2.97468e-06
2.85562e-06
2.75924e-06
3.19357e-06
0.000387892
0.000394795
0.000419876
0.000442101
0.000428676
0.000388093
0.000388992
0.000412764
0.00041402
0.000372693
0.000215528
0.000147213
0.000156891
0.000171088
0.000167311
0.000156977
0.000142542
0.000136624
0.000137905
0.000140108
0.000141587
0.000142217
0.000147141
0.000151694
0.000147604
0.000129138
9.88781e-05
9.29016e-05
9.50463e-05
9.8207e-05
0.000104944
0.000109725
0.000105995
8.40223e-05
5.08662e-05
3.23649e-05
1.23375e-05
5.55e-06
4.6849e-06
4.50458e-06
4.37303e-06
4.19367e-06
3.80216e-06
3.73721e-06
0.000188966
0.000191523
0.000196546
0.000208088
0.00022145
0.000226256
0.000237411
0.00026421
0.000251205
0.000199622
0.000106894
8.27877e-05
8.91173e-05
9.21897e-05
8.71262e-05
7.67415e-05
6.7543e-05
6.6099e-05
7.28954e-05
8.30748e-05
9.09802e-05
9.60157e-05
9.86958e-05
9.85221e-05
9.87166e-05
0.000103938
0.000104653
9.91789e-05
8.99977e-05
8.94078e-05
9.5153e-05
0.000115543
0.000120045
0.000105324
4.79433e-05
1.87927e-05
1.03518e-05
6.64702e-06
5.76053e-06
5.52306e-06
5.34934e-06
5.18494e-06
4.92146e-06
4.32277e-06
3.86071e-06
8.42272e-05
8.70518e-05
8.72061e-05
8.92625e-05
8.68403e-05
8.07862e-05
8.1113e-05
8.7341e-05
8.38076e-05
6.89672e-05
6.10251e-05
6.04576e-05
6.06458e-05
6.00648e-05
5.74699e-05
5.52809e-05
5.44782e-05
5.63283e-05
6.06542e-05
6.64086e-05
7.14738e-05
7.37877e-05
7.34516e-05
6.96413e-05
7.04532e-05
7.91877e-05
8.62757e-05
8.32845e-05
7.57606e-05
8.27585e-05
0.000105605
0.000117402
0.000114659
9.96283e-05
5.67907e-05
2.61827e-05
1.09933e-05
6.91663e-06
6.14542e-06
5.87725e-06
5.70768e-06
5.54144e-06
5.25623e-06
4.60939e-06
3.99763e-06
5.72155e-05
5.86843e-05
6.0232e-05
6.03325e-05
6.02926e-05
5.91523e-05
5.68167e-05
5.3462e-05
5.13079e-05
5.03674e-05
4.99771e-05
4.95011e-05
4.87832e-05
4.82391e-05
4.81624e-05
4.92695e-05
5.18982e-05
5.57833e-05
6.03606e-05
6.40059e-05
6.562e-05
6.32207e-05
5.86526e-05
4.9278e-05
4.37132e-05
4.04692e-05
3.95475e-05
4.90251e-05
7.02104e-05
8.64237e-05
9.53222e-05
9.64569e-05
9.13184e-05
6.63068e-05
2.95263e-05
1.11239e-05
6.92445e-06
6.23264e-06
5.99727e-06
5.84672e-06
5.70135e-06
5.4734e-06
5.01927e-06
4.19542e-06
5.10552e-05
5.26598e-05
5.39829e-05
5.44809e-05
5.45815e-05
5.3887e-05
5.28775e-05
5.17548e-05
5.10559e-05
5.06613e-05
5.03538e-05
4.99174e-05
4.95079e-05
4.93709e-05
4.99114e-05
5.14494e-05
5.38622e-05
5.65401e-05
5.94613e-05
6.12571e-05
5.96728e-05
5.46833e-05
3.54315e-05
1.5884e-05
1.21001e-05
1.27917e-05
1.61702e-05
2.37679e-05
3.58152e-05
4.99929e-05
6.27913e-05
7.10759e-05
7.10709e-05
4.73092e-05
1.71189e-05
8.01016e-06
6.52617e-06
6.16493e-06
5.98684e-06
5.86615e-06
5.74604e-06
5.56732e-06
5.25655e-06
4.80487e-06
3.81229e-05
4.0608e-05
4.17302e-05
4.52163e-05
4.79377e-05
4.9267e-05
4.97561e-05
4.9841e-05
4.98011e-05
4.99524e-05
5.00523e-05
5.01876e-05
5.04128e-05
5.08826e-05
5.14386e-05
5.21e-05
5.29158e-05
5.39482e-05
5.54193e-05
5.5879e-05
5.49556e-05
5.02895e-05
3.00886e-05
1.03686e-05
7.60558e-06
8.06912e-06
8.7964e-06
1.01045e-05
1.27609e-05
1.74708e-05
2.41513e-05
3.24581e-05
3.73907e-05
3.09766e-05
1.58743e-05
8.29421e-06
6.66151e-06
6.24616e-06
6.04737e-06
5.92406e-06
5.82615e-06
5.72004e-06
5.55182e-06
5.25124e-06
4.81656e-06
3.29446e-05
3.27725e-05
3.2349e-05
3.44793e-05
3.52374e-05
3.81139e-05
4.01463e-05
4.23869e-05
4.41163e-05
4.52869e-05
4.62722e-05
4.72253e-05
4.81127e-05
4.89383e-05
4.96872e-05
5.03111e-05
5.07301e-05
5.08092e-05
5.04101e-05
4.77539e-05
3.85423e-05
2.08582e-05
9.64647e-06
7.65918e-06
7.6037e-06
7.62974e-06
7.69432e-06
7.94344e-06
8.57697e-06
9.93419e-06
1.21702e-05
1.42233e-05
1.46959e-05
1.13334e-05
7.92122e-06
6.67637e-06
6.2594e-06
6.04241e-06
5.90669e-06
5.81219e-06
5.73139e-06
5.62786e-06
5.42593e-06
5.00751e-06
4.18479e-06
2.96817e-05
2.81278e-05
2.71908e-05
2.68098e-05
2.66281e-05
2.69981e-05
2.77772e-05
2.90024e-05
3.04686e-05
3.23358e-05
3.42719e-05
3.62276e-05
3.81807e-05
3.97602e-05
4.10334e-05
4.16437e-05
4.11317e-05
3.8178e-05
3.11824e-05
2.12193e-05
1.26755e-05
8.56027e-06
7.441e-06
7.29876e-06
7.28295e-06
7.2923e-06
7.28759e-06
7.27764e-06
7.30754e-06
7.45725e-06
7.72042e-06
7.9779e-06
7.80703e-06
7.07265e-06
6.4749e-06
6.13865e-06
2.73442e-05
2.63585e-05
2.43397e-05
2.36e-05
2.19162e-05
2.13624e-05
2.05017e-05
2.02524e-05
2.01876e-05
2.02671e-05
2.0578e-05
2.10318e-05
2.14726e-05
2.16528e-05
2.16656e-05
2.08601e-05
1.85998e-05
1.51683e-05
1.16908e-05
9.13385e-06
7.84473e-06
7.28293e-06
7.03353e-06
6.90268e-06
6.82385e-06
6.77084e-06
6.73562e-06
6.7101e-06
6.68636e-06
6.66235e-06
6.63411e-06
6.55319e-06
6.36716e-06
6.09724e-06
5.83862e-06
2.36183e-05
2.28979e-05
2.12139e-05
2.08962e-05
1.89306e-05
1.85176e-05
1.69054e-05
1.63717e-05
1.52587e-05
1.46101e-05
1.39402e-05
1.33646e-05
1.28124e-05
1.22186e-05
1.15354e-05
1.06688e-05
9.61696e-06
8.57133e-06
7.71882e-06
7.11694e-06
6.68866e-06
6.37016e-06
6.14565e-06
5.97952e-06
5.86145e-06
5.78632e-06
5.74303e-06
5.71757e-06
5.69646e-06
5.66313e-06
5.60162e-06
5.49133e-06
5.32047e-06
5.11418e-06
4.91121e-06
1.61489e-05
1.56392e-05
1.45563e-05
1.42227e-05
1.3141e-05
1.27752e-05
1.17702e-05
1.13543e-05
1.05404e-05
9.97454e-06
9.32696e-06
8.7354e-06
8.15598e-06
7.59793e-06
7.05818e-06
6.53673e-06
6.04244e-06
5.59743e-06
5.21535e-06
4.89763e-06
4.63629e-06
4.42673e-06
4.26399e-06
4.14435e-06
4.06164e-06
3.99782e-06
3.94087e-06
3.8824e-06
3.81452e-06
3.73109e-06
3.62956e-06
3.51335e-06
3.38133e-06
3.24368e-06
3.1157e-06
0.000590226
0.000599951
0.000594713
0.000563122
0.000551748
0.000549901
0.000549362
0.000552203
0.000545646
0.000517711
0.000473187
0.000436737
0.000371542
0.000287258
0.000244048
0.00022842
0.000213484
0.000203001
0.000194905
0.000188883
0.000188403
0.000192767
0.000201022
0.000202416
0.000200142
0.000184812
0.000137781
0.000112254
0.000108354
0.000111689
0.000114071
0.000111543
0.00010301
0.000102582
0.000102136
9.12982e-05
4.16761e-05
9.94538e-06
5.36245e-06
5.09955e-06
5.07347e-06
5.01266e-06
4.843e-06
4.71911e-06
0.000876075
0.000892452
0.000929735
0.000957603
0.000940407
0.000873186
0.000850483
0.000851231
0.000838173
0.000697947
0.000423084
0.000428949
0.00044858
0.000421551
0.000392315
0.000357668
0.000314021
0.000279544
0.000260044
0.000256249
0.000260644
0.000269475
0.000270065
0.000254826
0.000230059
0.000207312
0.000173359
0.000162627
0.000158037
0.000145236
0.000139512
0.000131859
0.000122418
0.000116295
8.64536e-05
4.46853e-05
1.61616e-05
8.7519e-06
8.17141e-06
8.3165e-06
8.40704e-06
8.26217e-06
7.50532e-06
5.37758e-06
0.000492655
0.000506342
0.000516141
0.000534726
0.000552577
0.000558207
0.000568602
0.000585482
0.00056027
0.000383027
0.000225705
0.000204099
0.000200974
0.000201656
0.000188039
0.000161379
0.00013973
0.000130392
0.000133797
0.000143074
0.000149932
0.000152953
0.000151725
0.000143015
0.000140401
0.00015013
0.000160747
0.00015342
0.000149918
0.000157973
0.000178233
0.000189938
0.000192017
0.000189539
9.61142e-05
2.67251e-05
1.34503e-05
1.01487e-05
9.92137e-06
1.01558e-05
1.02796e-05
1.02554e-05
9.91656e-06
8.76091e-06
5.67603e-06
0.000176974
0.000184322
0.00019197
0.000205948
0.000214846
0.000210657
0.000190147
0.00017117
0.00015146
0.000123425
0.000107639
9.93685e-05
9.57826e-05
9.34189e-05
8.8971e-05
8.42829e-05
8.21772e-05
8.26629e-05
8.61576e-05
9.15001e-05
9.74544e-05
9.94338e-05
9.5423e-05
8.46475e-05
8.42348e-05
9.70052e-05
0.000123783
0.000128622
0.000135925
0.000157964
0.00018526
0.000196279
0.000193315
0.000169464
8.53361e-05
3.13158e-05
1.38181e-05
1.1142e-05
1.11232e-05
1.11921e-05
1.12288e-05
1.11436e-05
1.07253e-05
9.47751e-06
6.15062e-06
7.66663e-05
7.57593e-05
7.75191e-05
7.89219e-05
7.94621e-05
7.89052e-05
7.76124e-05
7.46657e-05
7.09244e-05
6.87309e-05
6.7891e-05
6.7649e-05
6.72249e-05
6.68718e-05
6.69949e-05
6.82389e-05
7.09539e-05
7.53977e-05
8.2064e-05
8.65453e-05
8.49146e-05
7.10524e-05
4.65373e-05
3.71657e-05
3.8545e-05
4.79163e-05
7.23205e-05
9.84902e-05
0.000124225
0.000148903
0.00016516
0.000164972
0.00014661
8.62894e-05
3.52203e-05
1.53071e-05
1.21698e-05
1.17401e-05
1.16914e-05
1.16856e-05
1.15932e-05
1.12442e-05
1.0362e-05
8.45336e-06
5.99731e-05
5.94268e-05
6.08377e-05
6.16546e-05
6.32921e-05
6.40941e-05
6.45319e-05
6.40961e-05
6.38432e-05
6.39455e-05
6.44643e-05
6.50427e-05
6.56624e-05
6.64508e-05
6.75391e-05
6.94834e-05
7.25166e-05
7.64774e-05
7.98626e-05
7.85824e-05
6.41334e-05
4.18724e-05
2.42589e-05
1.81834e-05
2.04728e-05
2.63595e-05
3.51746e-05
4.94651e-05
7.22782e-05
9.71819e-05
0.000117496
0.000123744
0.000112444
6.23137e-05
2.27531e-05
1.37657e-05
1.22705e-05
1.19589e-05
1.19087e-05
1.18915e-05
1.18034e-05
1.15272e-05
1.09253e-05
9.93206e-06
5.09693e-05
5.21304e-05
5.50458e-05
5.6605e-05
5.8348e-05
5.96861e-05
6.05639e-05
6.14648e-05
6.20965e-05
6.273e-05
6.364e-05
6.48059e-05
6.61396e-05
6.76317e-05
6.93367e-05
7.11482e-05
7.29222e-05
7.41732e-05
7.48944e-05
7.01377e-05
5.51121e-05
3.8232e-05
2.12306e-05
1.48011e-05
1.46923e-05
1.5179e-05
1.60698e-05
1.79284e-05
2.23421e-05
3.13489e-05
4.42003e-05
5.62749e-05
5.95235e-05
4.44497e-05
2.23745e-05
1.4404e-05
1.26334e-05
1.2105e-05
1.19641e-05
1.1946e-05
1.19272e-05
1.18304e-05
1.15478e-05
1.09507e-05
9.97593e-06
4.09048e-05
4.07657e-05
4.18926e-05
4.25207e-05
4.61928e-05
4.80192e-05
5.28459e-05
5.51349e-05
5.79658e-05
5.99031e-05
6.19882e-05
6.41121e-05
6.64469e-05
6.88627e-05
7.09098e-05
7.20916e-05
7.14178e-05
6.54901e-05
5.36714e-05
4.04054e-05
2.76507e-05
1.88608e-05
1.57321e-05
1.52064e-05
1.51389e-05
1.49485e-05
1.45562e-05
1.43171e-05
1.43472e-05
1.53708e-05
1.80587e-05
2.11864e-05
2.19422e-05
1.76514e-05
1.41212e-05
1.27551e-05
1.21651e-05
1.19437e-05
1.18824e-05
1.18656e-05
1.18309e-05
1.16988e-05
1.13233e-05
1.04565e-05
8.69376e-06
3.35954e-05
3.27131e-05
3.12518e-05
3.07962e-05
3.0519e-05
3.04121e-05
3.07841e-05
3.16787e-05
3.38063e-05
3.64533e-05
3.96774e-05
4.29629e-05
4.57116e-05
4.69998e-05
4.74568e-05
4.4457e-05
3.86996e-05
3.03259e-05
2.33939e-05
1.82024e-05
1.53274e-05
1.42979e-05
1.39615e-05
1.38517e-05
1.3748e-05
1.36301e-05
1.35124e-05
1.3382e-05
1.32392e-05
1.31403e-05
1.3317e-05
1.36821e-05
1.37807e-05
1.31523e-05
1.24562e-05
1.19786e-05
3.02189e-05
2.83678e-05
2.6974e-05
2.5633e-05
2.49011e-05
2.33866e-05
2.28425e-05
2.14826e-05
2.09853e-05
2.03046e-05
2.01315e-05
2.01037e-05
2.01369e-05
2.00372e-05
1.95648e-05
1.85535e-05
1.70097e-05
1.53327e-05
1.40777e-05
1.33302e-05
1.29205e-05
1.2661e-05
1.24634e-05
1.22944e-05
1.21685e-05
1.20766e-05
1.19989e-05
1.19319e-05
1.18825e-05
1.18617e-05
1.18657e-05
1.18918e-05
1.18339e-05
1.16068e-05
1.13194e-05
2.30497e-05
2.11644e-05
2.06596e-05
1.9512e-05
1.90906e-05
1.79016e-05
1.75789e-05
1.65527e-05
1.6208e-05
1.5322e-05
1.48901e-05
1.42631e-05
1.37936e-05
1.3353e-05
1.29503e-05
1.2536e-05
1.20909e-05
1.16526e-05
1.12588e-05
1.09165e-05
1.06183e-05
1.03526e-05
1.01233e-05
9.95351e-06
9.83118e-06
9.75442e-06
9.71946e-06
9.71161e-06
9.7306e-06
9.76724e-06
9.804e-06
9.8192e-06
9.77876e-06
9.65231e-06
9.48585e-06
1.80584e-05
1.74711e-05
1.61694e-05
1.56793e-05
1.48575e-05
1.39269e-05
1.34701e-05
1.249e-05
1.2054e-05
1.12898e-05
1.07582e-05
1.01721e-05
9.65388e-06
9.16481e-06
8.71679e-06
8.30268e-06
7.92615e-06
7.5899e-06
7.29194e-06
7.02952e-06
6.80403e-06
6.61571e-06
6.46618e-06
6.35476e-06
6.28047e-06
6.22494e-06
6.17225e-06
6.11749e-06
6.05708e-06
5.9895e-06
5.91721e-06
5.84094e-06
5.7412e-06
5.6237e-06
5.50477e-06
0.000674743
0.000686131
0.00068695
0.000675183
0.000662622
0.000650735
0.000638817
0.000614645
0.000561778
0.000485333
0.000436841
0.00040087
0.00033957
0.000279022
0.000246657
0.000234189
0.000222326
0.00020612
0.000191694
0.000185279
0.000186704
0.000195333
0.000203318
0.000202701
0.000195915
0.000164683
0.000128324
0.000117625
0.000118407
0.000127075
0.000131083
0.000127652
0.000120154
0.000121777
0.000119006
9.92611e-05
3.80124e-05
9.95696e-06
6.42881e-06
6.19802e-06
6.13271e-06
6.00906e-06
5.69418e-06
5.22796e-06
0.00107396
0.00109107
0.00113689
0.00118535
0.00117509
0.00110981
0.0010687
0.00104286
0.00098348
0.000743717
0.000537307
0.000509644
0.000478177
0.000444703
0.000416442
0.000373785
0.000322335
0.000282571
0.000260421
0.00025965
0.000267212
0.000275511
0.000272895
0.00025472
0.000228365
0.000199058
0.000176047
0.000175171
0.00018273
0.000183079
0.000179791
0.000164657
0.000163085
0.000168771
0.000115891
4.82808e-05
1.81781e-05
1.15615e-05
1.08167e-05
1.08122e-05
1.08045e-05
1.0524e-05
9.44677e-06
6.12508e-06
0.000630622
0.000645802
0.000656309
0.000673093
0.00068458
0.000681163
0.000675198
0.000665415
0.000589581
0.000395563
0.000292161
0.000254987
0.000236217
0.000227551
0.000204922
0.000169979
0.000143245
0.000132323
0.000133012
0.000137022
0.000138048
0.000135793
0.000131392
0.000125824
0.00012624
0.000135395
0.000146881
0.000154983
0.000172018
0.000197501
0.000217038
0.000221532
0.000234573
0.000240954
0.000134545
3.66719e-05
1.76242e-05
1.41427e-05
1.35362e-05
1.33788e-05
1.32887e-05
1.31204e-05
1.26002e-05
1.10921e-05
6.59765e-06
0.000190744
0.000195561
0.0002024
0.000211535
0.000217082
0.000215078
0.000202417
0.000185343
0.000164236
0.000141675
0.000122913
0.000108189
0.000101428
9.52192e-05
8.5879e-05
7.61553e-05
7.07864e-05
6.87677e-05
6.89029e-05
6.94854e-05
6.90901e-05
6.78192e-05
6.47022e-05
6.30374e-05
6.89411e-05
8.41558e-05
0.000107859
0.000132219
0.000154469
0.000179753
0.000206798
0.000225823
0.000227558
0.00020663
0.000107317
3.72206e-05
1.84005e-05
1.56094e-05
1.49513e-05
1.46302e-05
1.44553e-05
1.42167e-05
1.36222e-05
1.2052e-05
7.39099e-06
7.54362e-05
7.57386e-05
7.69197e-05
7.90466e-05
8.04725e-05
8.09636e-05
8.07929e-05
7.81702e-05
7.34545e-05
6.87453e-05
6.60879e-05
6.40278e-05
6.16106e-05
5.88198e-05
5.62765e-05
5.45048e-05
5.31081e-05
5.18337e-05
5.09e-05
4.9692e-05
4.40058e-05
3.65606e-05
3.33989e-05
3.64898e-05
4.44271e-05
6.21373e-05
8.47826e-05
0.00010989
0.00013727
0.000164788
0.000187039
0.000191142
0.000174824
0.000104425
4.05611e-05
2.07357e-05
1.68572e-05
1.56285e-05
1.51975e-05
1.50017e-05
1.47673e-05
1.42579e-05
1.31223e-05
1.07342e-05
6.07622e-05
6.06043e-05
6.11191e-05
6.19646e-05
6.29801e-05
6.35052e-05
6.36685e-05
6.25648e-05
6.12766e-05
6.00966e-05
5.89598e-05
5.76608e-05
5.61093e-05
5.43856e-05
5.26293e-05
5.10903e-05
4.98425e-05
4.89696e-05
4.81493e-05
4.34724e-05
3.44657e-05
2.7854e-05
2.47986e-05
2.5612e-05
2.87661e-05
3.46245e-05
4.33016e-05
5.73197e-05
8.13276e-05
0.00010934
0.000133804
0.00014521
0.000131051
6.87728e-05
2.85202e-05
1.94683e-05
1.66873e-05
1.57138e-05
1.53854e-05
1.52209e-05
1.50132e-05
1.45946e-05
1.37794e-05
1.24811e-05
5.44065e-05
5.51768e-05
5.60625e-05
5.66218e-05
5.7439e-05
5.77865e-05
5.82498e-05
5.84099e-05
5.84248e-05
5.79157e-05
5.72182e-05
5.62687e-05
5.50712e-05
5.37704e-05
5.2426e-05
5.10922e-05
4.98232e-05
4.82359e-05
4.54669e-05
3.96496e-05
3.24312e-05
2.68299e-05
2.27888e-05
2.17911e-05
2.13382e-05
2.16474e-05
2.25695e-05
2.44087e-05
2.84102e-05
3.67683e-05
5.05584e-05
6.44058e-05
6.91283e-05
5.17777e-05
2.87974e-05
2.05394e-05
1.7421e-05
1.60707e-05
1.5562e-05
1.53535e-05
1.52236e-05
1.50238e-05
1.46066e-05
1.38013e-05
1.25306e-05
4.88535e-05
4.80468e-05
4.75391e-05
4.73143e-05
4.77037e-05
4.79246e-05
4.89987e-05
4.93958e-05
4.96148e-05
4.956e-05
4.92631e-05
4.88243e-05
4.83002e-05
4.77605e-05
4.70817e-05
4.60732e-05
4.33559e-05
3.9064e-05
3.31384e-05
2.77949e-05
2.49535e-05
2.26095e-05
2.12916e-05
2.02996e-05
1.98963e-05
1.97274e-05
1.96333e-05
1.96079e-05
1.99275e-05
2.09797e-05
2.35939e-05
2.70095e-05
2.83182e-05
2.39836e-05
1.99211e-05
1.75587e-05
1.62014e-05
1.55763e-05
1.53081e-05
1.51763e-05
1.50569e-05
1.48318e-05
1.43176e-05
1.32135e-05
1.10287e-05
4.33703e-05
4.24157e-05
4.05548e-05
3.95248e-05
3.86841e-05
3.72956e-05
3.66239e-05
3.5456e-05
3.46024e-05
3.36215e-05
3.27436e-05
3.19059e-05
3.12405e-05
3.06983e-05
3.00942e-05
2.83829e-05
2.58656e-05
2.38111e-05
2.21164e-05
2.06957e-05
2.00219e-05
1.90218e-05
1.82445e-05
1.78099e-05
1.75969e-05
1.74945e-05
1.74569e-05
1.7481e-05
1.75841e-05
1.7797e-05
1.82448e-05
1.87891e-05
1.89775e-05
1.8094e-05
1.68697e-05
1.58739e-05
3.74336e-05
3.66042e-05
3.44943e-05
3.36029e-05
3.26378e-05
3.09976e-05
3.02062e-05
2.86606e-05
2.75989e-05
2.62748e-05
2.51212e-05
2.39444e-05
2.29248e-05
2.20368e-05
2.12387e-05
2.04933e-05
1.97522e-05
1.90803e-05
1.83479e-05
1.75515e-05
1.68464e-05
1.62433e-05
1.57961e-05
1.55129e-05
1.53546e-05
1.52729e-05
1.52387e-05
1.52433e-05
1.5299e-05
1.54151e-05
1.55863e-05
1.57331e-05
1.57105e-05
1.53484e-05
1.4834e-05
2.79065e-05
2.71932e-05
2.55416e-05
2.51295e-05
2.43927e-05
2.32553e-05
2.28284e-05
2.16528e-05
2.10871e-05
2.0172e-05
1.94549e-05
1.87011e-05
1.80228e-05
1.73889e-05
1.68109e-05
1.62537e-05
1.56747e-05
1.50795e-05
1.44837e-05
1.39309e-05
1.34447e-05
1.30373e-05
1.27275e-05
1.25153e-05
1.23796e-05
1.23099e-05
1.22924e-05
1.23278e-05
1.24048e-05
1.25132e-05
1.26288e-05
1.2709e-05
1.26957e-05
1.25218e-05
1.2265e-05
2.07264e-05
1.97161e-05
1.84507e-05
1.79342e-05
1.70206e-05
1.60016e-05
1.55202e-05
1.44135e-05
1.39473e-05
1.31023e-05
1.25134e-05
1.18674e-05
1.12927e-05
1.07474e-05
1.02445e-05
9.77789e-06
9.346e-06
8.94939e-06
8.5911e-06
8.27536e-06
8.00448e-06
7.78134e-06
7.6079e-06
7.48279e-06
7.40545e-06
7.35757e-06
7.31726e-06
7.27954e-06
7.23967e-06
7.19505e-06
7.14794e-06
7.08595e-06
6.98482e-06
6.85198e-06
6.70936e-06
0.000710661
0.000725272
0.000737181
0.000736548
0.000731325
0.000715473
0.000684156
0.000619726
0.000527971
0.000446758
0.000393683
0.000352125
0.000306552
0.000262368
0.000235028
0.000224506
0.000211335
0.00019272
0.00017493
0.00016429
0.000162869
0.000165066
0.000170888
0.000171289
0.000163505
0.000131831
0.000116645
0.000113736
0.000118346
0.000134455
0.000137337
0.000134609
0.000132035
0.000134517
0.000128759
9.72075e-05
3.03596e-05
9.24639e-06
6.99917e-06
6.8267e-06
6.73786e-06
6.56175e-06
6.11908e-06
5.41359e-06
0.0011788
0.001199
0.0012652
0.00133191
0.00132264
0.00125502
0.00118741
0.00112176
0.000974062
0.000689794
0.000530781
0.000486461
0.000431645
0.000396799
0.000373408
0.000333267
0.000278847
0.000233177
0.000208268
0.000206658
0.000212271
0.000215311
0.000212424
0.000200794
0.000183311
0.000170141
0.000167104
0.00017407
0.000194988
0.000209377
0.000206997
0.000191998
0.000208507
0.000213939
0.000122623
4.50793e-05
1.8183e-05
1.31891e-05
1.24616e-05
1.23756e-05
1.22963e-05
1.18986e-05
1.05834e-05
6.51195e-06
0.0007138
0.000726354
0.000733848
0.000743255
0.00073962
0.000717561
0.000687586
0.000636632
0.000522077
0.000367726
0.000301236
0.000263587
0.000238916
0.000220544
0.000191909
0.000153227
0.00012314
0.000110126
0.000107458
0.000107224
0.000106126
0.000104242
0.000104627
0.000106398
0.000110764
0.000121099
0.00013725
0.000155954
0.000178381
0.000207055
0.000229416
0.000243624
0.000270304
0.00027114
0.00013662
3.64622e-05
1.98304e-05
1.6725e-05
1.58262e-05
1.54067e-05
1.51731e-05
1.48976e-05
1.42467e-05
1.25019e-05
7.14055e-06
0.000202569
0.000203473
0.000204748
0.000205891
0.000204649
0.000199801
0.000189708
0.00017403
0.000155889
0.000140594
0.000122316
0.00010751
9.93496e-05
9.07368e-05
7.96117e-05
6.85688e-05
6.2468e-05
6.01949e-05
6.00191e-05
5.99282e-05
5.86024e-05
5.74817e-05
5.76439e-05
6.10658e-05
6.95711e-05
8.44932e-05
0.000106199
0.000131609
0.000155471
0.000181362
0.000209165
0.000233892
0.000245437
0.000218156
0.000101784
3.50247e-05
2.08462e-05
1.84535e-05
1.73618e-05
1.67924e-05
1.64759e-05
1.61303e-05
1.54125e-05
1.36403e-05
8.19139e-06
7.76371e-05
7.7224e-05
7.71615e-05
7.79352e-05
7.85194e-05
7.86595e-05
7.81722e-05
7.5695e-05
7.14048e-05
6.70328e-05
6.43853e-05
6.21898e-05
5.94828e-05
5.62712e-05
5.31967e-05
5.09585e-05
4.90003e-05
4.68453e-05
4.40076e-05
4.09865e-05
3.89253e-05
3.81085e-05
3.93135e-05
4.34661e-05
5.11964e-05
6.56033e-05
8.55397e-05
0.000109892
0.000136836
0.000165123
0.000190652
0.000199056
0.00017953
9.81044e-05
3.78352e-05
2.34702e-05
1.9642e-05
1.80517e-05
1.74077e-05
1.7085e-05
1.67495e-05
1.6124e-05
1.4821e-05
1.21406e-05
6.36223e-05
6.30597e-05
6.28737e-05
6.30388e-05
6.3256e-05
6.33332e-05
6.29999e-05
6.16935e-05
6.02434e-05
5.88403e-05
5.73807e-05
5.56383e-05
5.34957e-05
5.10374e-05
4.84576e-05
4.60071e-05
4.35997e-05
4.09223e-05
3.77829e-05
3.46695e-05
3.22771e-05
3.11524e-05
3.08849e-05
3.16786e-05
3.40321e-05
3.85313e-05
4.57811e-05
5.81189e-05
7.92759e-05
0.000106834
0.000133256
0.000145591
0.000124255
6.05715e-05
3.0212e-05
2.26174e-05
1.93674e-05
1.80805e-05
1.75857e-05
1.73177e-05
1.7019e-05
1.64894e-05
1.5517e-05
1.4001e-05
5.97252e-05
5.94243e-05
5.91156e-05
5.88664e-05
5.87539e-05
5.85241e-05
5.84094e-05
5.81555e-05
5.76315e-05
5.67486e-05
5.55605e-05
5.40375e-05
5.21173e-05
4.98839e-05
4.7414e-05
4.47939e-05
4.19828e-05
3.89341e-05
3.58459e-05
3.30087e-05
3.08962e-05
2.93491e-05
2.80094e-05
2.66134e-05
2.60734e-05
2.63325e-05
2.71827e-05
2.8719e-05
3.15979e-05
3.77463e-05
4.89953e-05
6.11581e-05
6.55624e-05
4.87991e-05
3.09262e-05
2.39533e-05
2.03049e-05
1.85611e-05
1.78449e-05
1.75144e-05
1.73006e-05
1.70189e-05
1.64953e-05
1.55353e-05
1.40489e-05
5.56421e-05
5.48087e-05
5.39862e-05
5.31093e-05
5.26952e-05
5.20196e-05
5.14387e-05
5.07081e-05
4.97253e-05
4.86636e-05
4.73275e-05
4.56839e-05
4.37163e-05
4.15523e-05
3.92786e-05
3.68904e-05
3.45327e-05
3.24433e-05
3.06644e-05
2.91889e-05
2.78593e-05
2.63565e-05
2.46105e-05
2.35713e-05
2.31468e-05
2.30455e-05
2.31449e-05
2.33888e-05
2.38865e-05
2.48878e-05
2.68431e-05
2.93928e-05
3.053e-05
2.70203e-05
2.32561e-05
2.04598e-05
1.87265e-05
1.78768e-05
1.74793e-05
1.72664e-05
1.70829e-05
1.67851e-05
1.61682e-05
1.49051e-05
1.24437e-05
5.03602e-05
4.95315e-05
4.80704e-05
4.6861e-05
4.60369e-05
4.47602e-05
4.36006e-05
4.23666e-05
4.08647e-05
3.93521e-05
3.76217e-05
3.58171e-05
3.39653e-05
3.21892e-05
3.05216e-05
2.89568e-05
2.75599e-05
2.63593e-05
2.52441e-05
2.42206e-05
2.30275e-05
2.18554e-05
2.09391e-05
2.04232e-05
2.01904e-05
2.01136e-05
2.01463e-05
2.02778e-05
2.05238e-05
2.09078e-05
2.14571e-05
2.19661e-05
2.20548e-05
2.10436e-05
1.95673e-05
1.83054e-05
4.30651e-05
4.25444e-05
4.07042e-05
3.95234e-05
3.87594e-05
3.73251e-05
3.61555e-05
3.49617e-05
3.3461e-05
3.21256e-05
3.0615e-05
2.91916e-05
2.78099e-05
2.65489e-05
2.53954e-05
2.43319e-05
2.32924e-05
2.22443e-05
2.11787e-05
2.01687e-05
1.927e-05
1.85242e-05
1.79817e-05
1.76505e-05
1.74814e-05
1.74135e-05
1.74115e-05
1.7472e-05
1.75934e-05
1.77794e-05
1.80098e-05
1.81852e-05
1.81338e-05
1.76773e-05
1.70311e-05
3.20665e-05
3.21141e-05
3.00567e-05
2.93501e-05
2.89235e-05
2.75473e-05
2.69164e-05
2.60202e-05
2.49306e-05
2.41268e-05
2.30961e-05
2.22117e-05
2.1312e-05
2.04761e-05
1.96713e-05
1.88833e-05
1.80893e-05
1.73016e-05
1.65488e-05
1.5869e-05
1.52851e-05
1.48093e-05
1.44559e-05
1.42207e-05
1.40822e-05
1.40172e-05
1.40164e-05
1.40791e-05
1.41885e-05
1.43306e-05
1.44712e-05
1.45664e-05
1.45416e-05
1.43253e-05
1.401e-05
2.28091e-05
2.13413e-05
2.01438e-05
1.95998e-05
1.8601e-05
1.751e-05
1.70049e-05
1.57928e-05
1.52666e-05
1.43898e-05
1.3725e-05
1.30324e-05
1.23985e-05
1.17988e-05
1.12403e-05
1.07187e-05
1.02345e-05
9.79096e-06
9.39248e-06
9.04368e-06
8.74677e-06
8.50413e-06
8.31737e-06
8.18491e-06
8.10575e-06
8.06332e-06
8.03237e-06
8.00667e-06
7.98026e-06
7.94943e-06
7.91537e-06
7.85599e-06
7.74856e-06
7.60136e-06
7.44011e-06
0.00072806
0.0007423
0.00076786
0.00077485
0.000772334
0.000753674
0.000702429
0.000601303
0.000502437
0.000417539
0.000355189
0.000311923
0.000273928
0.000233367
0.000210252
0.000201049
0.000189948
0.000171976
0.000155886
0.00013823
0.000123906
0.000122632
0.000126635
0.000128012
0.000116695
0.000102542
0.000100663
0.000102168
0.000112562
0.00012715
0.000131604
0.000133715
0.000138629
0.000139209
0.000128823
8.24061e-05
2.12977e-05
8.4163e-06
7.35325e-06
7.22463e-06
7.11688e-06
6.8956e-06
6.35025e-06
5.48574e-06
0.00123813
0.0012667
0.00135657
0.00142801
0.00141693
0.00134364
0.00124157
0.0011153
0.000866838
0.000607399
0.000499692
0.000424638
0.000356055
0.000321193
0.000305967
0.000280115
0.000227393
0.000175753
0.00014559
0.000137214
0.000139899
0.000140835
0.000140181
0.000139536
0.000139705
0.000145592
0.000156903
0.000176102
0.000206411
0.000229168
0.000229923
0.000230027
0.000272223
0.000245442
0.000105223
3.58366e-05
1.74159e-05
1.41745e-05
1.35513e-05
1.34239e-05
1.32841e-05
1.27862e-05
1.12832e-05
6.72195e-06
0.000766585
0.000774182
0.00077624
0.000775558
0.000753157
0.00070759
0.000644661
0.000550306
0.000423088
0.000330705
0.000293554
0.000250677
0.000218189
0.000192539
0.000166187
0.000134275
0.000106639
9.10334e-05
8.39785e-05
8.09821e-05
8.14558e-05
8.19462e-05
8.49671e-05
8.93599e-05
9.64125e-05
0.000109054
0.000126727
0.000147753
0.000172891
0.000202348
0.000230314
0.000263111
0.000300679
0.000277141
0.00011457
3.16064e-05
2.09144e-05
1.8427e-05
1.73536e-05
1.67729e-05
1.64446e-05
1.60889e-05
1.53326e-05
1.34044e-05
7.47154e-06
0.000225425
0.000220662
0.000214165
0.000206183
0.000195351
0.000181792
0.000167678
0.00015302
0.000141609
0.000130152
0.000113318
9.97451e-05
9.13638e-05
8.35803e-05
7.41278e-05
6.44229e-05
5.83242e-05
5.5898e-05
5.56817e-05
5.58706e-05
5.54276e-05
5.52395e-05
5.66765e-05
6.05973e-05
6.7921e-05
8.02821e-05
9.81772e-05
0.000119069
0.00014044
0.000163414
0.000191318
0.000227817
0.000245858
0.000200218
7.78715e-05
3.00434e-05
2.25306e-05
2.03301e-05
1.89674e-05
1.82576e-05
1.78492e-05
1.74231e-05
1.66068e-05
1.46771e-05
8.70458e-06
8.7309e-05
8.4612e-05
8.23008e-05
8.05503e-05
7.91808e-05
7.81274e-05
7.65906e-05
7.38818e-05
6.99626e-05
6.61374e-05
6.35513e-05
6.13912e-05
5.89514e-05
5.60189e-05
5.31008e-05
5.0999e-05
4.96462e-05
4.87231e-05
4.73235e-05
4.54641e-05
4.43371e-05
4.4041e-05
4.46755e-05
4.71657e-05
5.28216e-05
6.3315e-05
7.80862e-05
9.6345e-05
0.000118561
0.000145573
0.000175445
0.000189528
0.000161809
7.3975e-05
3.33756e-05
2.49877e-05
2.13452e-05
1.96579e-05
1.89135e-05
1.8509e-05
1.80948e-05
1.73724e-05
1.5928e-05
1.30158e-05
6.98848e-05
6.86628e-05
6.76572e-05
6.70571e-05
6.64516e-05
6.5816e-05
6.48418e-05
6.32986e-05
6.16465e-05
6.00932e-05
5.85331e-05
5.66866e-05
5.43886e-05
5.1699e-05
4.88712e-05
4.62988e-05
4.41063e-05
4.20546e-05
4.00932e-05
3.84808e-05
3.7333e-05
3.61694e-05
3.52441e-05
3.52404e-05
3.67689e-05
3.99434e-05
4.50325e-05
5.27579e-05
6.66304e-05
8.88948e-05
0.000113414
0.000125836
9.51293e-05
4.66558e-05
3.06603e-05
2.42766e-05
2.10469e-05
1.96773e-05
1.90961e-05
1.8756e-05
1.83821e-05
1.77542e-05
1.66385e-05
1.49222e-05
6.49562e-05
6.43486e-05
6.37825e-05
6.31712e-05
6.27802e-05
6.22951e-05
6.17544e-05
6.11661e-05
6.02585e-05
5.91255e-05
5.76892e-05
5.59591e-05
5.37966e-05
5.12124e-05
4.83827e-05
4.55727e-05
4.29935e-05
4.06578e-05
3.84025e-05
3.63137e-05
3.4534e-05
3.29018e-05
3.09304e-05
2.96123e-05
2.918e-05
2.94093e-05
3.01057e-05
3.12554e-05
3.30693e-05
3.65127e-05
4.31432e-05
5.12238e-05
5.44838e-05
4.2051e-05
3.14136e-05
2.57032e-05
2.2045e-05
2.02157e-05
1.94069e-05
1.90034e-05
1.87266e-05
1.83746e-05
1.77549e-05
1.66523e-05
1.49655e-05
6.07449e-05
5.99648e-05
5.93133e-05
5.83581e-05
5.78486e-05
5.71745e-05
5.62675e-05
5.54717e-05
5.42531e-05
5.29882e-05
5.13804e-05
4.94332e-05
4.70759e-05
4.44633e-05
4.18241e-05
3.93533e-05
3.71729e-05
3.52607e-05
3.34979e-05
3.18445e-05
3.00589e-05
2.82026e-05
2.66053e-05
2.56961e-05
2.53253e-05
2.52673e-05
2.54616e-05
2.58496e-05
2.64543e-05
2.73647e-05
2.88089e-05
3.03509e-05
3.09591e-05
2.83919e-05
2.5073e-05
2.22095e-05
2.03796e-05
1.94403e-05
1.89718e-05
1.87044e-05
1.84695e-05
1.81088e-05
1.74021e-05
1.60006e-05
1.33054e-05
5.52805e-05
5.44703e-05
5.35482e-05
5.22718e-05
5.15269e-05
5.05877e-05
4.92796e-05
4.82934e-05
4.66962e-05
4.51858e-05
4.32973e-05
4.12793e-05
3.90996e-05
3.69215e-05
3.48526e-05
3.29441e-05
3.11648e-05
2.94641e-05
2.78127e-05
2.62592e-05
2.48491e-05
2.36302e-05
2.27202e-05
2.22014e-05
2.19722e-05
2.19116e-05
2.19886e-05
2.21765e-05
2.24814e-05
2.29165e-05
2.34624e-05
2.38909e-05
2.3836e-05
2.27818e-05
2.12349e-05
1.98898e-05
4.72583e-05
4.66687e-05
4.56181e-05
4.4041e-05
4.33414e-05
4.23075e-05
4.07638e-05
3.99085e-05
3.81227e-05
3.6789e-05
3.50286e-05
3.33615e-05
3.16441e-05
3.00119e-05
2.84699e-05
2.70143e-05
2.56101e-05
2.42549e-05
2.29791e-05
2.18295e-05
2.08447e-05
2.00486e-05
1.9474e-05
1.91251e-05
1.89528e-05
1.88907e-05
1.89124e-05
1.90044e-05
1.91586e-05
1.93705e-05
1.96062e-05
1.97689e-05
1.96725e-05
1.9164e-05
1.84642e-05
3.51591e-05
3.51583e-05
3.42066e-05
3.26227e-05
3.22715e-05
3.12873e-05
3.00031e-05
2.94916e-05
2.78919e-05
2.71971e-05
2.58669e-05
2.48432e-05
2.37226e-05
2.2677e-05
2.16555e-05
2.06627e-05
1.96899e-05
1.87594e-05
1.79023e-05
1.71487e-05
1.65142e-05
1.60059e-05
1.56324e-05
1.53872e-05
1.52494e-05
1.51869e-05
1.51971e-05
1.52734e-05
1.53969e-05
1.55497e-05
1.56906e-05
1.578e-05
1.5734e-05
1.54923e-05
1.5151e-05
2.38063e-05
2.29459e-05