/*--------------------------------*- C++ -*----------------------------------*\
| =========                 |                                                 |
| \\      /  F ield         | OpenFOAM: The Open Source CFD Toolbox           |
|  \\    /   O peration     | Version:  2.3.1                                 |
|   \\  /    A nd           | Web:      www.OpenFOAM.org                      |
|    \\/     M anipulation  |                                                 |
\*---------------------------------------------------------------------------*/
FoamFile
{
    version     2.0;
    format      ascii;
    class       volScalarField;
    location    "15";
    object      nut;
}
// * * * * * * * * * * * * * * * * * * * * * * * * * * * * * * * * * * * * * //

dimensions      [0 2 -1 0 0 0 0];

internalField   nonuniform List<scalar> 
38152
(
2.31106e-05
2.34912e-05
2.34914e-05
2.33009e-05
2.28728e-05
2.28652e-05
2.29414e-05
2.33579e-05
2.46144e-05
2.5093e-05
2.50028e-05
2.47267e-05
2.41781e-05
2.1746e-05
1.81445e-05
1.67269e-05
1.60351e-05
1.5416e-05
1.52425e-05
1.52641e-05
1.52854e-05
1.53237e-05
1.52976e-05
1.53316e-05
1.55116e-05
1.53776e-05
1.43248e-05
1.23157e-05
1.12458e-05
1.10225e-05
1.12923e-05
1.16519e-05
1.16242e-05
1.14082e-05
1.13085e-05
1.08074e-05
7.77866e-06
3.77094e-06
2.45044e-06
2.24513e-06
2.17843e-06
2.13419e-06
2.09774e-06
2.76168e-06
2.48332e-05
2.50536e-05
2.58358e-05
2.65259e-05
2.6138e-05
2.48705e-05
2.48876e-05
2.56323e-05
2.56891e-05
2.44095e-05
1.86211e-05
1.5332e-05
1.58133e-05
1.65235e-05
1.63374e-05
1.58191e-05
1.507e-05
1.47549e-05
1.4826e-05
1.49453e-05
1.50232e-05
1.50538e-05
1.53091e-05
1.55564e-05
1.5353e-05
1.43789e-05
1.25722e-05
1.21726e-05
1.23084e-05
1.25112e-05
1.29308e-05
1.32253e-05
1.30019e-05
1.15948e-05
9.02359e-06
7.209e-06
4.46293e-06
2.98123e-06
2.73423e-06
2.68065e-06
2.64111e-06
2.5863e-06
2.46252e-06
3.364e-06
1.73426e-05
1.74594e-05
1.76844e-05
1.81947e-05
1.87724e-05
1.89779e-05
1.9441e-05
2.05151e-05
2.0009e-05
1.78549e-05
1.30914e-05
1.14921e-05
1.19195e-05
1.21264e-05
1.17916e-05
1.10659e-05
1.03811e-05
1.02668e-05
1.07801e-05
1.15084e-05
1.20441e-05
1.23726e-05
1.2544e-05
1.2533e-05
1.25436e-05
1.28728e-05
1.29223e-05
1.25815e-05
1.19831e-05
1.19401e-05
1.23124e-05
1.35625e-05
1.38324e-05
1.29681e-05
8.76919e-06
5.48516e-06
4.0736e-06
3.26025e-06
3.03203e-06
2.96849e-06
2.9213e-06
2.87595e-06
2.80184e-06
2.62581e-06
3.41921e-06
1.15794e-05
1.17729e-05
1.17832e-05
1.19229e-05
1.17613e-05
1.13428e-05
1.13641e-05
1.17899e-05
1.15553e-05
1.0489e-05
9.86728e-06
9.81878e-06
9.83357e-06
9.78726e-06
9.57401e-06
9.38894e-06
9.31951e-06
9.47524e-06
9.8315e-06
1.02869e-05
1.06724e-05
1.08443e-05
1.08202e-05
1.05354e-05
1.05944e-05
1.12304e-05
1.17307e-05
1.15305e-05
1.09929e-05
1.14821e-05
1.29655e-05
1.36776e-05
1.35192e-05
1.261e-05
9.52681e-06
6.46758e-06
4.19154e-06
3.32288e-06
3.13145e-06
3.06216e-06
3.01755e-06
2.9732e-06
2.8956e-06
2.71151e-06
3.47939e-06
9.55232e-06
9.67381e-06
9.79928e-06
9.80701e-06
9.80343e-06
9.70951e-06
9.51607e-06
9.23279e-06
9.04524e-06
8.96167e-06
8.92649e-06
8.88374e-06
8.81898e-06
8.76936e-06
8.76161e-06
8.86076e-06
9.09304e-06
9.42656e-06
9.80561e-06
1.00975e-05
1.02247e-05
1.0037e-05
9.66922e-06
8.8661e-06
8.3519e-06
8.0396e-06
7.94513e-06
8.83368e-06
1.05718e-05
1.17325e-05
1.23238e-05
1.23978e-05
1.20678e-05
1.02933e-05
6.87499e-06
4.21904e-06
3.32506e-06
3.15359e-06
3.09326e-06
3.05408e-06
3.0158e-06
2.95483e-06
2.82952e-06
2.58684e-06
9.02384e-06
9.16426e-06
9.27802e-06
9.32048e-06
9.32897e-06
9.2693e-06
9.18224e-06
9.08428e-06
9.02249e-06
8.98709e-06
8.95937e-06
8.92009e-06
8.88303e-06
8.87023e-06
8.91788e-06
9.0535e-06
9.26299e-06
9.49029e-06
9.73241e-06
9.87905e-06
9.75099e-06
9.33704e-06
7.52694e-06
5.04073e-06
4.3957e-06
4.51764e-06
5.07639e-06
6.15274e-06
7.5522e-06
8.92278e-06
1.00008e-05
1.06418e-05
1.06464e-05
8.70366e-06
5.23984e-06
3.57886e-06
3.22738e-06
3.13631e-06
3.09052e-06
3.05913e-06
3.02758e-06
2.98007e-06
2.89562e-06
2.76834e-06
7.80007e-06
8.05011e-06
8.16032e-06
8.49476e-06
8.74544e-06
8.86477e-06
8.90828e-06
8.91567e-06
8.91186e-06
8.92487e-06
8.93332e-06
8.9449e-06
8.96458e-06
9.00575e-06
9.05426e-06
9.11178e-06
9.18239e-06
9.27094e-06
9.39647e-06
9.43602e-06
9.35834e-06
8.95557e-06
6.94027e-06
4.07337e-06
3.48306e-06
3.5873e-06
3.74521e-06
4.01334e-06
4.50905e-06
5.27497e-06
6.20164e-06
7.19073e-06
7.72319e-06
7.03837e-06
5.0442e-06
3.64185e-06
3.26081e-06
3.15694e-06
3.10613e-06
3.07422e-06
3.04865e-06
3.0207e-06
2.9759e-06
2.89415e-06
2.77171e-06
7.25122e-06
7.23221e-06
7.18571e-06
7.41853e-06
7.49941e-06
7.79991e-06
8.00463e-06
8.22434e-06
8.3894e-06
8.49922e-06
8.59056e-06
8.67794e-06
8.75846e-06
8.83282e-06
8.89968e-06
8.95492e-06
8.99172e-06
8.99827e-06
8.96324e-06
8.72601e-06
7.84693e-06
5.77956e-06
3.92722e-06
3.49582e-06
3.48282e-06
3.48874e-06
3.50339e-06
3.55952e-06
3.69849e-06
3.98e-06
4.40532e-06
4.76333e-06
4.84503e-06
4.25773e-06
3.55791e-06
3.26444e-06
3.16033e-06
3.10489e-06
3.06972e-06
3.045e-06
3.02372e-06
2.99624e-06
2.94195e-06
2.82619e-06
2.58356e-06
6.88314e-06
6.70001e-06
6.58804e-06
6.54178e-06
6.51961e-06
6.56514e-06
6.65917e-06
6.80449e-06
6.97458e-06
7.18486e-06
7.39628e-06
7.60382e-06
7.80544e-06
7.96476e-06
8.09051e-06
8.15008e-06
8.10016e-06
7.80622e-06
7.0581e-06
5.82623e-06
4.50245e-06
3.69794e-06
3.44584e-06
3.41245e-06
3.40869e-06
3.41085e-06
3.40972e-06
3.40737e-06
3.41432e-06
3.44911e-06
3.5096e-06
3.56794e-06
3.53041e-06
3.36031e-06
3.21457e-06
3.12968e-06
6.606e-06
6.48567e-06
6.23262e-06
6.13728e-06
5.91463e-06
5.83964e-06
5.72118e-06
5.68674e-06
5.67777e-06
5.6892e-06
5.73289e-06
5.79586e-06
5.85627e-06
5.88081e-06
5.88322e-06
5.7734e-06
5.45225e-06
4.92352e-06
4.32246e-06
3.81962e-06
3.53868e-06
3.40903e-06
3.34997e-06
3.31859e-06
3.29955e-06
3.28667e-06
3.27809e-06
3.27186e-06
3.26608e-06
3.26024e-06
3.2534e-06
3.23363e-06
3.18754e-06
3.11922e-06
3.05223e-06
6.1392e-06
6.04473e-06
5.81881e-06
5.7749e-06
5.49667e-06
5.43662e-06
5.19464e-06
5.11228e-06
4.93524e-06
4.82959e-06
4.71766e-06
4.61948e-06
4.52322e-06
4.41728e-06
4.29212e-06
4.12774e-06
3.91881e-06
3.69929e-06
3.51012e-06
3.3702e-06
3.26704e-06
3.18818e-06
3.1314e-06
3.08871e-06
3.058e-06
3.03828e-06
3.02686e-06
3.02014e-06
3.01458e-06
3.0058e-06
2.9895e-06
2.96002e-06
2.91367e-06
2.85661e-06
2.79928e-06
5.07652e-06
4.99575e-06
4.81991e-06
4.76434e-06
4.57955e-06
4.51545e-06
4.33425e-06
4.25714e-06
4.10155e-06
3.99012e-06
3.85841e-06
3.7341e-06
3.60815e-06
3.48253e-06
3.35654e-06
3.23012e-06
3.1055e-06
2.98885e-06
2.88493e-06
2.79559e-06
2.71989e-06
2.65763e-06
2.60825e-06
2.57134e-06
2.54551e-06
2.52542e-06
2.50737e-06
2.48871e-06
2.46689e-06
2.43979e-06
2.40639e-06
2.36756e-06
2.32266e-06
2.27485e-06
2.22946e-06
6.12599e-05
6.17851e-05
6.15393e-05
5.99123e-05
5.92723e-05
5.91601e-05
5.91253e-05
5.92846e-05
5.89524e-05
5.74598e-05
5.49363e-05
5.28261e-05
4.8811e-05
4.29451e-05
3.94938e-05
3.81759e-05
3.68964e-05
3.597e-05
3.52471e-05
3.46941e-05
3.4645e-05
3.50336e-05
3.57862e-05
3.59195e-05
3.57254e-05
3.43804e-05
2.97424e-05
2.67916e-05
2.62901e-05
2.66784e-05
2.69671e-05
2.66732e-05
2.56331e-05
2.55719e-05
2.55195e-05
2.41616e-05
1.64225e-05
8.01815e-06
5.85403e-06
5.70366e-06
5.68889e-06
5.65466e-06
5.55807e-06
5.76667e-06
0.000122677
0.000123807
0.000128199
0.000130751
0.000127431
0.000119532
0.000120474
0.000119795
0.000109723
7.85221e-05
4.65655e-05
6.31481e-05
7.4935e-05
7.57343e-05
7.36082e-05
6.99801e-05
6.42984e-05
5.94005e-05
5.63006e-05
5.56822e-05
5.60284e-05
5.65759e-05
5.71336e-05
5.73617e-05
5.24177e-05
4.85201e-05
4.73264e-05
4.88449e-05
4.80009e-05
4.21799e-05
3.81645e-05
3.15144e-05
2.62053e-05
2.44602e-05
2.07752e-05
1.38126e-05
8.47538e-06
9.28773e-06
1.11106e-05
1.22632e-05
1.28715e-05
1.27999e-05
1.13203e-05
6.48746e-06
9.78246e-05
9.86008e-05
9.89436e-05
9.94417e-05
9.93006e-05
9.80378e-05
9.81704e-05
9.54481e-05
8.31323e-05
5.11194e-05
3.65611e-05
5.15548e-05
5.50677e-05
5.38338e-05
5.05777e-05
4.60819e-05
4.30325e-05
4.20394e-05
4.23599e-05
4.32738e-05
4.42947e-05
4.50575e-05
4.53451e-05
4.52767e-05
4.50227e-05
4.61163e-05
4.75382e-05
4.71798e-05
5.03657e-05
5.30949e-05
5.88735e-05
6.25579e-05
5.58259e-05
4.62817e-05
2.32575e-05
8.28847e-06
6.85769e-06
1.00007e-05
1.33105e-05
1.53871e-05
1.65439e-05
1.69916e-05
1.65072e-05
1.40186e-05
6.66521e-06
4.50581e-05
4.54306e-05
4.5502e-05
4.61842e-05
4.63029e-05
4.36663e-05
3.87542e-05
3.45242e-05
3.19383e-05
3.2251e-05
3.73524e-05
3.92418e-05
3.89342e-05
3.81674e-05
3.82805e-05
3.83504e-05
3.85203e-05
3.87613e-05
3.87092e-05
3.84154e-05
3.74851e-05
3.58789e-05
3.36053e-05
2.85599e-05
2.77125e-05
2.86204e-05
3.19145e-05
3.44524e-05
4.35219e-05
5.63121e-05
6.38654e-05
6.40052e-05
5.97101e-05
4.81453e-05
2.26998e-05
9.87475e-06
6.98482e-06
1.16056e-05
1.59625e-05
1.78824e-05
1.88672e-05
1.91626e-05
1.84426e-05
1.55774e-05
6.93834e-06
3.02506e-05
2.98418e-05
3.03099e-05
2.97428e-05
2.95505e-05
2.90938e-05
2.94887e-05
3.12049e-05
3.36252e-05
3.51337e-05
3.58255e-05
3.60538e-05
3.57633e-05
3.50807e-05
3.39028e-05
3.24001e-05
3.11658e-05
3.00536e-05
2.92165e-05
2.80086e-05
2.54238e-05
1.88079e-05
1.12824e-05
1.00311e-05
1.21037e-05
1.74198e-05
3.23959e-05
4.30426e-05
4.93984e-05
5.49038e-05
5.69659e-05
5.45214e-05
4.45894e-05
2.27672e-05
1.0609e-05
8.05297e-06
1.39645e-05
1.78625e-05
1.94129e-05
2.01966e-05
2.04129e-05
1.97967e-05
1.77978e-05
1.30999e-05
2.89738e-05
2.88018e-05
2.97381e-05
3.04264e-05
3.18142e-05
3.27956e-05
3.36099e-05
3.44554e-05
3.48364e-05
3.51498e-05
3.52178e-05
3.49472e-05
3.43125e-05
3.3329e-05
3.16385e-05
2.97072e-05
2.79197e-05
2.64113e-05
2.53207e-05
2.3095e-05
1.59866e-05
9.47541e-06
8.16558e-06
1.05125e-05
1.32083e-05
1.60888e-05
1.94957e-05
2.4802e-05
3.23277e-05
3.94723e-05
4.39109e-05
4.1571e-05
3.42759e-05
1.70629e-05
8.6038e-06
1.19795e-05
1.7339e-05
1.93728e-05
2.04119e-05
2.0987e-05
2.11071e-05
2.05898e-05
1.92074e-05
1.6856e-05
2.90211e-05
2.7158e-05
2.71303e-05
2.71116e-05
2.77326e-05
2.84909e-05
2.90408e-05
2.96836e-05
3.01883e-05
3.04345e-05
3.05186e-05
3.03146e-05
2.97639e-05
2.89058e-05
2.78202e-05
2.65345e-05
2.51494e-05
2.37465e-05
2.25499e-05
1.94586e-05
1.2824e-05
8.82805e-06
8.18583e-06
1.24056e-05
1.51983e-05
1.52253e-05
1.42129e-05
1.3123e-05
1.32727e-05
1.56616e-05
1.93129e-05
2.19331e-05
2.07281e-05
1.44053e-05
8.8828e-06
1.18628e-05
1.70952e-05
1.9183e-05
2.02206e-05
2.09197e-05
2.13033e-05
2.13076e-05
2.07198e-05
1.93137e-05
1.69656e-05
3.36193e-05
3.0477e-05
2.65147e-05
2.35121e-05
2.24733e-05
2.14178e-05
2.24334e-05
2.25242e-05
2.28787e-05
2.27924e-05
2.2698e-05
2.25392e-05
2.23926e-05
2.23038e-05
2.20547e-05
2.15946e-05
2.05435e-05
1.76173e-05
1.28799e-05
9.47274e-06
7.90538e-06
9.84278e-06
1.59785e-05
2.06272e-05
2.21954e-05
2.14948e-05
1.9154e-05
1.63863e-05
1.32777e-05
1.10073e-05
1.02491e-05
1.04094e-05
1.00519e-05
9.566e-06
1.28826e-05
1.73256e-05
1.90919e-05
1.99685e-05
2.06049e-05
2.10395e-05
2.12448e-05
2.10763e-05
2.02223e-05
1.81454e-05
1.38374e-05
3.5091e-05
3.33444e-05
3.02059e-05
2.66224e-05
2.34339e-05
1.96704e-05
1.68615e-05
1.46479e-05
1.39655e-05
1.37047e-05
1.38763e-05
1.41112e-05
1.41375e-05
1.36829e-05
1.33465e-05
1.18153e-05
1.00304e-05
7.96786e-06
7.42836e-06
8.63677e-06
1.16783e-05
1.6809e-05
2.05649e-05
2.22679e-05
2.2624e-05
2.22795e-05
2.15676e-05
2.04123e-05
1.8695e-05
1.65054e-05
1.45303e-05
1.33788e-05
1.33868e-05
1.54962e-05
1.78417e-05
1.88893e-05
3.39153e-05
3.21388e-05
3.09277e-05
2.8854e-05
2.76121e-05
2.43893e-05
2.2312e-05
1.83522e-05
1.57149e-05
1.32094e-05
1.16075e-05
1.04175e-05
9.51533e-06
9.00612e-06
8.49967e-06
8.26124e-06
8.48421e-06
9.4677e-06
1.16931e-05
1.46933e-05
1.74159e-05
1.93136e-05
2.02303e-05
2.04224e-05
2.03173e-05
2.01323e-05
1.98804e-05
1.953e-05
1.90683e-05
1.84642e-05
1.77757e-05
1.73404e-05
1.73339e-05
1.77419e-05
1.80194e-05
2.25351e-05
2.15928e-05
2.15592e-05
2.12088e-05
2.12417e-05
2.0319e-05
2.02477e-05
1.895e-05
1.85358e-05
1.67709e-05
1.5744e-05
1.4256e-05
1.32336e-05
1.24745e-05
1.2099e-05
1.22089e-05
1.2833e-05
1.37879e-05
1.47541e-05
1.54349e-05
1.57983e-05
1.58682e-05
1.56682e-05
1.54459e-05
1.52411e-05
1.51024e-05
1.50541e-05
1.50538e-05
1.51126e-05
1.51724e-05
1.51873e-05
1.51517e-05
1.5132e-05
1.50779e-05
1.49907e-05
1.07364e-05
1.05598e-05
1.01595e-05
1.0005e-05
9.7381e-06
9.42856e-06
9.27248e-06
8.92878e-06
8.77172e-06
8.48866e-06
8.28658e-06
8.05749e-06
7.84955e-06
7.64805e-06
7.45868e-06
7.27925e-06
7.11219e-06
6.95961e-06
6.82155e-06
6.69759e-06
6.58919e-06
6.49725e-06
6.4233e-06
6.36762e-06
6.33023e-06
6.30217e-06
6.27544e-06
6.24755e-06
6.21664e-06
6.18187e-06
6.14445e-06
6.10475e-06
6.05244e-06
5.99018e-06
5.92643e-06
6.55065e-05
6.60716e-05
6.6124e-05
6.55757e-05
6.49573e-05
6.43659e-05
6.37834e-05
6.25954e-05
5.98966e-05
5.5677e-05
5.28113e-05
5.06323e-05
4.66531e-05
4.22653e-05
3.96861e-05
3.86439e-05
3.76535e-05
3.62579e-05
3.49619e-05
3.43586e-05
3.44836e-05
3.52637e-05
3.59963e-05
3.59488e-05
3.53616e-05
3.24917e-05
2.86638e-05
2.74025e-05
2.7479e-05
2.84499e-05
2.89095e-05
2.85389e-05
2.76773e-05
2.78624e-05
2.75511e-05
2.52136e-05
1.56978e-05
8.01212e-06
6.4077e-06
6.28829e-06
6.25489e-06
6.19144e-06
6.02695e-06
6.06977e-06
0.000163396
0.000164309
0.000167888
0.000170647
0.000168481
0.000162548
0.000159631
0.000152117
0.000135632
9.16747e-05
7.75754e-05
8.88903e-05
9.04351e-05
8.9029e-05
8.84945e-05
8.49215e-05
7.67814e-05
6.89241e-05
6.37769e-05
6.3388e-05
6.39036e-05
6.53451e-05
6.62095e-05
6.5507e-05
6.14452e-05
6.04611e-05
6.17651e-05
6.42202e-05
6.78801e-05
6.80798e-05
6.54149e-05
5.44543e-05
4.74504e-05
4.3712e-05
2.99797e-05
1.56701e-05
1.155e-05
1.57848e-05
1.88067e-05
2.0277e-05
2.08778e-05
2.02851e-05
1.70438e-05
6.92388e-06
0.000133162
0.000133734
0.000133633
0.000133454
0.00013244
0.000129556
0.000124631
0.000115577
9.42221e-05
6.12647e-05
6.25636e-05
7.02865e-05
6.83517e-05
6.4745e-05
6.12122e-05
5.66159e-05
5.27102e-05
5.07979e-05
4.99008e-05
4.99138e-05
5.08261e-05
5.22495e-05
5.28736e-05
5.22891e-05
5.27506e-05
5.51908e-05
5.87588e-05
6.26854e-05
6.91831e-05
7.36407e-05
7.9015e-05
8.04351e-05
7.95768e-05
6.8966e-05
3.75406e-05
1.30457e-05
1.16475e-05
2.02338e-05
2.64044e-05
2.88992e-05
3.00145e-05
3.00453e-05
2.82463e-05
2.2409e-05
7.18619e-06
5.84966e-05
5.86364e-05
5.84479e-05
5.81545e-05
5.67481e-05
5.41032e-05
4.89994e-05
4.49043e-05
4.31933e-05
4.64899e-05
4.95231e-05
4.8001e-05
4.66843e-05
4.56398e-05
4.58304e-05
4.54988e-05
4.48599e-05
4.40412e-05
4.22118e-05
4.03985e-05
3.78846e-05
3.5175e-05
3.23433e-05
3.13622e-05
3.40894e-05
3.88821e-05
4.47869e-05
5.32607e-05
6.29174e-05
7.1405e-05
7.75547e-05
8.10023e-05
7.72677e-05
6.64884e-05
3.36849e-05
1.39411e-05
1.32454e-05
2.50757e-05
3.23254e-05
3.45294e-05
3.53271e-05
3.49801e-05
3.25722e-05
2.55581e-05
7.60602e-06
4.48313e-05
4.40225e-05
4.35703e-05
4.24656e-05
4.1692e-05
4.13529e-05
4.15248e-05
4.35797e-05
4.59223e-05
4.66351e-05
4.69694e-05
4.6962e-05
4.6953e-05
4.57425e-05
4.30554e-05
3.94311e-05
3.506e-05
3.03614e-05
2.58052e-05
2.23714e-05
1.81816e-05
1.53829e-05
1.54161e-05
1.94852e-05
2.4309e-05
3.42788e-05
4.39267e-05
5.15473e-05
5.91814e-05
6.62949e-05
7.0656e-05
6.9895e-05
6.1454e-05
3.32645e-05
1.48876e-05
1.62746e-05
2.99995e-05
3.60869e-05
3.77114e-05
3.82561e-05
3.77974e-05
3.56237e-05
3.04415e-05
2.00726e-05
5.09559e-05
5.01268e-05
4.98388e-05
4.99509e-05
5.06446e-05
5.11679e-05
5.19209e-05
5.25044e-05
5.23566e-05
5.1852e-05
5.07105e-05
4.88106e-05
4.59497e-05
4.21197e-05
3.7649e-05
3.29281e-05
2.83342e-05
2.41908e-05
2.11197e-05
1.72086e-05
1.3321e-05
1.29588e-05
1.87581e-05
2.32777e-05
2.41027e-05
2.5212e-05
2.70078e-05
3.08303e-05
3.85066e-05
4.72773e-05
5.38195e-05
5.43843e-05
4.56238e-05
2.20951e-05
1.46795e-05
2.63623e-05
3.62654e-05
3.86017e-05
3.94761e-05
3.97605e-05
3.92284e-05
3.73481e-05
3.35462e-05
2.78339e-05
5.83603e-05
5.45469e-05
5.17359e-05
5.02543e-05
4.95125e-05
4.8999e-05
4.87188e-05
4.82461e-05
4.78557e-05
4.67388e-05
4.49558e-05
4.22886e-05
3.87351e-05
3.47311e-05
3.06751e-05
2.69322e-05
2.36794e-05
2.10736e-05
1.84398e-05
1.53575e-05
1.276e-05
1.38238e-05
2.20965e-05
3.03105e-05
3.07299e-05
2.82353e-05
2.50002e-05
2.18934e-05
2.00191e-05
2.0754e-05
2.43628e-05
2.77872e-05
2.73822e-05
1.98931e-05
1.55765e-05
2.58656e-05
3.61556e-05
3.87749e-05
3.96022e-05
4.00513e-05
4.01251e-05
3.946e-05
3.74952e-05
3.36868e-05
2.80954e-05
7.38697e-05
6.79183e-05
6.05011e-05
5.47281e-05
4.9043e-05
4.48255e-05
4.22819e-05
3.96897e-05
3.72806e-05
3.48516e-05
3.22499e-05
2.95262e-05
2.67203e-05
2.404e-05
2.14904e-05
1.96032e-05
1.71596e-05
1.51597e-05
1.36475e-05
1.3628e-05
1.91352e-05
2.88955e-05
3.79599e-05
4.05093e-05
4.03756e-05
3.81943e-05
3.45433e-05
2.96968e-05
2.4465e-05
1.97921e-05
1.71541e-05
1.67511e-05
1.67239e-05
1.8289e-05
2.7225e-05
3.61474e-05
3.84853e-05
3.90535e-05
3.9434e-05
3.9659e-05
3.95225e-05
3.86083e-05
3.61441e-05
3.09533e-05
2.14618e-05
8.02546e-05
7.72505e-05
7.08549e-05
6.52546e-05
5.9571e-05
5.21408e-05
4.66438e-05
4.03395e-05
3.53204e-05
3.04615e-05
2.63002e-05
2.26352e-05
1.96287e-05
1.7387e-05
1.60842e-05
1.45751e-05
1.38554e-05
1.50357e-05
1.89259e-05
2.50306e-05
3.3443e-05
3.89554e-05
4.12571e-05
4.1746e-05
4.14499e-05
4.05657e-05
3.91768e-05
3.72172e-05
3.45721e-05
3.13348e-05
2.81722e-05
2.61491e-05
2.65976e-05
3.14854e-05
3.60633e-05
3.7308e-05
7.07254e-05
7.00731e-05
6.66002e-05
6.45494e-05
6.23043e-05
5.69904e-05
5.41395e-05
4.85216e-05
4.42819e-05
3.93529e-05
3.50458e-05
3.07687e-05
2.7333e-05
2.4926e-05
2.32442e-05
2.30931e-05
2.46064e-05
2.7856e-05
3.18052e-05
3.47982e-05
3.66295e-05
3.72893e-05
3.71602e-05
3.67456e-05
3.63168e-05
3.59111e-05
3.54804e-05
3.50069e-05
3.4469e-05
3.38451e-05
3.3258e-05
3.28721e-05
3.31947e-05
3.39421e-05
3.40295e-05
4.08584e-05
4.15976e-05
4.111e-05
4.11147e-05
4.13219e-05
4.02057e-05
3.98201e-05
3.80251e-05
3.6912e-05
3.50701e-05
3.34347e-05
3.17338e-05
3.02528e-05
2.89886e-05
2.81236e-05
2.77993e-05
2.78862e-05
2.80871e-05
2.80801e-05
2.77752e-05
2.72491e-05
2.66031e-05
2.59695e-05
2.54313e-05
2.50117e-05
2.47556e-05
2.46873e-05
2.4815e-05
2.50958e-05
2.54534e-05
2.57706e-05
2.59536e-05
2.60363e-05
2.58294e-05
2.54169e-05
1.15031e-05
1.12175e-05
1.08528e-05
1.07004e-05
1.0423e-05
1.01066e-05
9.95325e-06
9.59178e-06
9.43561e-06
9.14483e-06
8.93716e-06
8.70322e-06
8.48981e-06
8.2822e-06
8.08605e-06
7.89966e-06
7.72315e-06
7.55741e-06
7.40448e-06
7.26702e-06
7.14696e-06
7.0465e-06
6.9674e-06
6.90977e-06
6.87389e-06
6.85161e-06
6.83281e-06
6.81518e-06
6.79651e-06
6.77555e-06
6.75333e-06
6.72407e-06
6.676e-06
6.61221e-06
6.54298e-06
6.72333e-05
6.79215e-05
6.84918e-05
6.84698e-05
6.82359e-05
6.7505e-05
6.6046e-05
6.29147e-05
5.80976e-05
5.34336e-05
5.01513e-05
4.74477e-05
4.42811e-05
4.09533e-05
3.87328e-05
3.78376e-05
3.67157e-05
3.50676e-05
3.34032e-05
3.2357e-05
3.22093e-05
3.24248e-05
3.29985e-05
3.30435e-05
3.23155e-05
2.9064e-05
2.73017e-05
2.69401e-05
2.74587e-05
2.92639e-05
2.95935e-05
2.93036e-05
2.9009e-05
2.9286e-05
2.8666e-05
2.49829e-05
1.40272e-05
7.71035e-06
6.68441e-06
6.59963e-06
6.5564e-06
6.47006e-06
6.2479e-06
6.17668e-06
0.000183105
0.000183545
0.00018697
0.000190886
0.000189633
0.000183917
0.000174974
0.000162807
0.000137376
9.72652e-05
8.68936e-05
9.33795e-05
8.97002e-05
8.75164e-05
8.75843e-05
8.39427e-05
7.365e-05
6.19888e-05
5.61939e-05
5.67075e-05
5.8534e-05
5.98023e-05
6.01028e-05
5.92285e-05
5.97604e-05
6.35874e-05
6.5858e-05
6.78897e-05
7.27849e-05
7.53039e-05
7.42999e-05
6.50255e-05
6.35569e-05
5.58843e-05
3.16142e-05
1.55819e-05
1.43642e-05
2.08988e-05
2.41386e-05
2.57436e-05
2.6271e-05
2.51487e-05
2.0472e-05
7.13932e-06
0.000152021
0.00015186
0.000150915
0.000149822
0.00014703
0.000141442
0.000132048
0.000117115
9.29458e-05
7.34036e-05
7.61278e-05
7.65724e-05
7.12922e-05
6.62482e-05
6.14369e-05
5.61367e-05
5.16805e-05
4.91322e-05
4.78975e-05
4.80082e-05
4.94051e-05
5.0818e-05
5.15681e-05
5.26747e-05
5.44473e-05
5.79607e-05
6.26223e-05
6.73394e-05
7.1046e-05
7.52971e-05
7.86507e-05
8.29056e-05
8.61518e-05
7.64994e-05
3.82442e-05
1.39278e-05
1.67272e-05
3.00222e-05
3.68671e-05
3.92638e-05
4.02064e-05
3.97428e-05
3.66502e-05
2.79247e-05
7.47615e-06
6.66101e-05
6.59962e-05
6.53039e-05
6.42765e-05
6.23101e-05
5.92251e-05
5.57372e-05
5.26226e-05
5.20992e-05
5.35837e-05
5.21645e-05
4.90194e-05
4.67532e-05
4.54578e-05
4.60373e-05
4.7189e-05
4.80834e-05
4.80659e-05
4.70211e-05
4.58519e-05
4.35099e-05
4.07739e-05
3.92627e-05
3.99844e-05
4.30145e-05
4.73403e-05
5.2846e-05
5.9933e-05
6.62597e-05
7.22809e-05
7.78071e-05
8.00838e-05
7.91388e-05
6.81692e-05
3.28013e-05
1.47942e-05
2.15968e-05
3.89089e-05
4.60673e-05
4.80062e-05
4.8476e-05
4.73823e-05
4.3217e-05
3.24279e-05
8.00741e-06
5.57651e-05
5.48471e-05
5.39017e-05
5.28545e-05
5.16098e-05
5.08817e-05
5.02148e-05
5.06009e-05
5.10043e-05
5.13806e-05
5.20515e-05
5.30879e-05
5.47249e-05
5.61718e-05
5.46998e-05
5.16079e-05
4.65628e-05
4.04961e-05
3.45062e-05
2.96055e-05
2.78607e-05
2.80804e-05
3.0058e-05
3.25949e-05
3.52185e-05
4.0295e-05
4.60608e-05
5.27838e-05
5.97542e-05
6.66157e-05
7.13748e-05
7.1182e-05
6.1939e-05
3.21307e-05
1.67281e-05
2.78146e-05
4.59247e-05
5.17234e-05
5.29929e-05
5.31165e-05
5.18211e-05
4.79269e-05
3.95766e-05
2.44242e-05
7.19632e-05
7.05201e-05
6.95611e-05
6.87369e-05
6.85169e-05
6.8479e-05
6.8775e-05
6.90285e-05
6.88301e-05
6.87035e-05
6.81607e-05
6.67679e-05
6.42594e-05
6.00056e-05
5.45395e-05
4.83202e-05
4.18652e-05
3.57542e-05
3.01843e-05
2.70126e-05
2.68762e-05
3.04368e-05
3.47666e-05
3.51797e-05
3.33937e-05
3.18355e-05
3.13692e-05
3.36827e-05
3.95391e-05
4.73774e-05
5.40364e-05
5.48209e-05
4.38032e-05
2.22984e-05
2.31234e-05
4.3164e-05
5.32245e-05
5.50018e-05
5.55347e-05
5.5391e-05
5.40281e-05
5.05653e-05
4.41913e-05
3.52648e-05
8.87879e-05
8.4915e-05
8.1675e-05
7.95116e-05
7.77623e-05
7.63966e-05
7.55955e-05
7.47363e-05
7.37226e-05
7.22954e-05
6.99967e-05
6.65531e-05
6.18953e-05
5.62833e-05
5.01561e-05
4.40288e-05
3.83042e-05
3.32256e-05
2.9531e-05
2.78543e-05
2.87772e-05
3.5138e-05
4.4305e-05
4.63911e-05
4.43779e-05
4.03854e-05
3.57221e-05
3.09025e-05
2.67388e-05
2.48357e-05
2.61175e-05
2.82007e-05
2.77106e-05
2.16864e-05
2.39803e-05
4.22824e-05
5.36406e-05
5.56517e-05
5.60827e-05
5.61853e-05
5.58068e-05
5.42862e-05
5.07246e-05
4.43599e-05
3.56271e-05
0.000106139
0.000101825
9.62304e-05
9.11339e-05
8.64069e-05
8.16034e-05
7.76727e-05
7.35308e-05
6.96214e-05
6.5506e-05
6.09429e-05
5.57294e-05
4.99794e-05
4.41548e-05
3.89886e-05
3.437e-05
3.10728e-05
2.97599e-05
3.08364e-05
3.53963e-05
4.41124e-05
5.32306e-05
5.64853e-05
5.64871e-05
5.5287e-05
5.23521e-05
4.82267e-05
4.28984e-05
3.6765e-05
3.06006e-05
2.56486e-05
2.35046e-05
2.34139e-05
2.90157e-05
4.33951e-05
5.32867e-05
5.51085e-05
5.51913e-05
5.52332e-05
5.51568e-05
5.4569e-05
5.27601e-05
4.85266e-05
4.02356e-05
2.6242e-05
0.000112272
0.000109992
0.000105164
0.000100315
9.629e-05
9.03859e-05
8.5353e-05
7.95377e-05
7.35955e-05
6.73986e-05
6.10426e-05
5.46375e-05
4.86123e-05
4.34746e-05
3.92858e-05
3.64365e-05
3.6114e-05
3.87035e-05
4.39092e-05
5.02711e-05
5.50614e-05
5.74885e-05
5.77272e-05
5.72069e-05
5.64721e-05
5.52081e-05
5.35313e-05
5.13643e-05
4.86091e-05
4.53346e-05
4.2072e-05
3.97766e-05
4.07341e-05
4.71536e-05
5.20154e-05
5.27411e-05
9.42424e-05
9.41557e-05
9.2747e-05
9.02679e-05
8.89307e-05
8.5302e-05
8.19545e-05
7.79687e-05
7.35811e-05
6.89757e-05
6.42671e-05
5.9567e-05
5.52826e-05
5.17666e-05
4.91314e-05
4.79402e-05
4.82695e-05
4.95833e-05
5.09465e-05
5.16551e-05
5.16013e-05
5.09922e-05
5.00692e-05
4.91922e-05
4.85317e-05
4.79382e-05
4.74262e-05
4.70233e-05
4.66604e-05
4.63039e-05
4.60302e-05
4.58653e-05
4.64003e-05
4.70641e-05
4.67515e-05
5.07673e-05
5.26443e-05
5.29345e-05
5.25311e-05
5.39861e-05
5.29834e-05
5.25093e-05
5.2215e-05
5.01784e-05
4.88531e-05
4.69295e-05
4.51659e-05
4.34329e-05
4.19171e-05
4.06405e-05
3.96429e-05
3.88087e-05
3.79814e-05
3.70456e-05
3.60024e-05
3.49211e-05
3.3885e-05
3.29788e-05
3.22558e-05
3.17443e-05
3.14422e-05
3.14237e-05
3.1698e-05
3.21825e-05
3.27821e-05
3.3294e-05
3.36259e-05
3.37466e-05
3.34005e-05
3.27476e-05
1.20679e-05
1.16709e-05
1.13401e-05
1.11862e-05
1.08966e-05
1.05725e-05
1.04188e-05
1.00405e-05
9.87209e-06
9.58389e-06
9.36005e-06
9.12069e-06
8.89603e-06
8.67814e-06
8.47014e-06
8.2712e-06
8.0821e-06
7.90492e-06
7.74226e-06
7.597e-06
7.47111e-06
7.3666e-06
7.28513e-06
7.22677e-06
7.19165e-06
7.17278e-06
7.15899e-06
7.14754e-06
7.13576e-06
7.12199e-06
7.10675e-06
7.08015e-06
7.03167e-06
6.96457e-06
6.89026e-06
6.8054e-05
6.87077e-05
6.98903e-05
7.02242e-05
7.01201e-05
6.92891e-05
6.69606e-05
6.19998e-05
5.66768e-05
5.16615e-05
4.76438e-05
4.46405e-05
4.18413e-05
3.86154e-05
3.663e-05
3.58083e-05
3.48093e-05
3.31267e-05
3.15369e-05
2.96955e-05
2.80995e-05
2.7946e-05
2.83973e-05
2.85685e-05
2.73222e-05
2.56021e-05
2.53532e-05
2.55297e-05
2.67656e-05
2.84655e-05
2.89683e-05
2.91991e-05
2.97248e-05
2.97983e-05
2.86864e-05
2.30531e-05
1.17535e-05
7.34358e-06
6.85038e-06
6.78934e-06
6.73839e-06
6.63271e-06
6.36491e-06
6.21776e-06
0.000193636
0.000193951
0.000198142
0.00020285
0.000201763
0.000194008
0.000180429
0.000163784
0.000131413
0.000100247
9.66355e-05
9.02326e-05
7.92357e-05
7.64903e-05
7.67982e-05
7.42845e-05
6.32594e-05
5.00746e-05
4.36765e-05
4.4244e-05
4.74452e-05
4.83265e-05
4.82681e-05
5.01407e-05
5.44513e-05
5.89142e-05
6.23729e-05
6.38492e-05
6.70706e-05
6.9739e-05
6.93443e-05
6.81362e-05
7.05082e-05
5.94793e-05
2.75076e-05
1.50462e-05
1.87671e-05
2.52873e-05
2.81908e-05
2.97467e-05
3.01062e-05
2.84816e-05
2.2672e-05
7.2536e-06
0.000164311
0.000162957
0.000160786
0.00015793
0.000152571
0.00014367
0.00013009
0.000110951
8.94965e-05
8.09619e-05
8.3557e-05
7.62813e-05
6.79735e-05
6.18596e-05
5.5577e-05
5.06006e-05
4.74919e-05
4.58861e-05
4.47991e-05
4.49119e-05
4.7286e-05
4.81749e-05
4.94012e-05
5.05393e-05
5.21611e-05
5.50153e-05
5.86391e-05
6.2053e-05
6.55996e-05
7.00566e-05
7.39409e-05
7.74701e-05
8.18599e-05
7.26916e-05
3.24456e-05
1.50783e-05
2.52219e-05
3.97347e-05
4.54333e-05
4.74387e-05
4.81111e-05
4.71058e-05
4.28026e-05
3.16604e-05
7.64755e-06
7.64532e-05
7.45944e-05
7.2091e-05
6.93156e-05
6.63733e-05
6.20559e-05
5.83145e-05
5.58888e-05
5.58614e-05
5.43849e-05
5.01931e-05
4.64493e-05
4.46803e-05
4.38271e-05
4.44227e-05
4.75031e-05
5.0312e-05
5.1759e-05
5.22236e-05
5.20845e-05
5.06527e-05
4.81043e-05
4.63369e-05
4.57189e-05
4.60194e-05
4.81748e-05
5.20637e-05
5.65435e-05
6.05133e-05
6.44922e-05
6.85824e-05
7.38113e-05
7.40276e-05
6.12682e-05
2.73807e-05
1.83136e-05
3.52744e-05
5.23933e-05
5.76339e-05
5.9033e-05
5.90753e-05
5.71652e-05
5.13073e-05
3.72306e-05
8.25452e-06
6.65449e-05
6.47903e-05
6.30332e-05
6.12474e-05
5.96457e-05
5.85137e-05
5.74864e-05
5.6565e-05
5.56684e-05
5.57091e-05
5.6639e-05
5.80414e-05
6.05779e-05
6.41243e-05
6.53428e-05
6.35849e-05
6.02521e-05
5.5743e-05
5.1151e-05
4.67473e-05
4.42871e-05
4.30445e-05
4.21968e-05
4.12389e-05
4.10169e-05
4.27236e-05
4.54658e-05
4.91347e-05
5.36472e-05
5.9153e-05
6.45394e-05
6.55698e-05
5.48838e-05
2.69527e-05
2.30223e-05
4.47889e-05
6.0937e-05
6.50066e-05
6.57488e-05
6.53634e-05
6.31292e-05
5.7473e-05
4.6157e-05
2.71964e-05
8.66201e-05
8.5043e-05
8.38236e-05
8.29005e-05
8.22031e-05
8.18276e-05
8.17606e-05
8.20207e-05
8.2337e-05
8.31355e-05
8.40118e-05
8.41282e-05
8.29055e-05
7.98449e-05
7.47733e-05
6.86359e-05
6.26098e-05
5.68808e-05
5.23084e-05
4.9707e-05
4.91666e-05
4.9343e-05
4.88069e-05
4.57328e-05
4.21425e-05
3.88797e-05
3.65553e-05
3.53741e-05
3.70691e-05
4.19393e-05
4.73316e-05
4.83079e-05
3.58807e-05
2.43411e-05
3.92344e-05
6.08978e-05
6.80842e-05
6.89563e-05
6.90801e-05
6.84097e-05
6.60794e-05
6.08979e-05
5.19243e-05
4.00657e-05
0.000106951
0.000104753
0.000102849
0.000101316
0.000100355
9.95987e-05
9.94103e-05
9.93415e-05
9.9326e-05
9.88227e-05
9.76144e-05
9.52319e-05
9.1149e-05
8.53888e-05
7.84511e-05
7.14112e-05
6.51337e-05
6.01425e-05
5.65177e-05
5.48173e-05
5.56164e-05
5.96433e-05
6.14069e-05
6.0333e-05
5.73212e-05
5.27716e-05
4.74046e-05
4.15786e-05
3.56548e-05
3.07312e-05
2.82322e-05
2.81376e-05
2.77486e-05
2.67356e-05
3.93177e-05
6.05032e-05
6.91603e-05
7.01063e-05
7.00731e-05
6.97888e-05
6.88646e-05
6.63545e-05
6.10534e-05
5.2101e-05
4.04755e-05
0.000125361
0.000122879
0.000120246
0.000117066
0.000114981
0.000112467
0.000110667
0.00010841
0.000106064
0.00010299
9.90472e-05
9.37922e-05
8.7242e-05
7.99052e-05
7.28259e-05
6.68079e-05
6.26377e-05
6.06567e-05
6.10758e-05
6.412e-05
6.84158e-05
7.14506e-05
7.13562e-05
7.00754e-05
6.83832e-05
6.52619e-05
6.13015e-05
5.63726e-05
5.05141e-05
4.40951e-05
3.82909e-05
3.50223e-05
3.53275e-05
4.56465e-05
6.11953e-05
6.85622e-05
6.92345e-05
6.88001e-05
6.84896e-05
6.80717e-05
6.69636e-05
6.41625e-05
5.81016e-05
4.68923e-05
2.92006e-05
0.00013093
0.000129652
0.000127767
0.000124887
0.000122591
0.000119302
0.000115856
0.000112355
0.000108262
0.000103438
9.78962e-05
9.15925e-05
8.48895e-05
7.84114e-05
7.28084e-05
6.88489e-05
6.70714e-05
6.73373e-05
6.90349e-05
7.09109e-05
7.19669e-05
7.19341e-05
7.09223e-05
6.9773e-05
6.87767e-05
6.73679e-05
6.57673e-05
6.38411e-05
6.14918e-05
5.88082e-05
5.63234e-05
5.47007e-05
5.64149e-05
6.24139e-05
6.57308e-05
6.55392e-05
0.000108116
0.000108316
0.000109101
0.000107794
0.000107359
0.000106086
0.000103148
0.000100987
9.71097e-05
9.30812e-05
8.86018e-05
8.3948e-05
7.9272e-05
7.49811e-05
7.14324e-05
6.88963e-05
6.73072e-05
6.62776e-05
6.53468e-05
6.41998e-05
6.28378e-05
6.1395e-05
5.99882e-05
5.88419e-05
5.80665e-05
5.74099e-05
5.69461e-05
5.66725e-05
5.65578e-05
5.65478e-05
5.66591e-05
5.67888e-05
5.73581e-05
5.75853e-05
5.67686e-05
5.62896e-05
5.76128e-05
6.16474e-05
6.04975e-05
6.172e-05
6.25259e-05
6.15989e-05
6.21173e-05
5.98252e-05
5.89534e-05
5.67919e-05
5.48935e-05
5.28894e-05
5.1007e-05
4.92565e-05
4.76524e-05
4.61296e-05
4.46283e-05
4.31306e-05
4.16622e-05
4.02761e-05
3.90331e-05
3.79858e-05
3.71761e-05
3.66416e-05
3.63316e-05
3.63768e-05
3.67706e-05
3.73959e-05
3.8146e-05
3.87599e-05
3.91797e-05
3.92892e-05
3.88383e-05
3.80483e-05
1.23293e-05
1.21025e-05