/*--------------------------------*- C++ -*----------------------------------*\
| =========                 |                                                 |
| \\      /  F ield         | OpenFOAM: The Open Source CFD Toolbox           |
|  \\    /   O peration     | Version:  2.3.1                                 |
|   \\  /    A nd           | Web:      www.OpenFOAM.org                      |
|    \\/     M anipulation  |                                                 |
\*---------------------------------------------------------------------------*/
FoamFile
{
    version     2.0;
    format      ascii;
    class       volScalarField;
    location    "15";
    object      p;
}
// * * * * * * * * * * * * * * * * * * * * * * * * * * * * * * * * * * * * * //

dimensions      [0 2 -2 0 0 0 0];

internalField   nonuniform List<scalar> 
38152
(
0.806637
0.806522
0.806324
0.806164
0.806124
0.806141
0.806202
0.806315
0.806509
0.806838
0.806889
0.806414
0.806467
0.80732
0.807859
0.807907
0.807907
0.807923
0.807916
0.807956
0.807987
0.807961
0.807924
0.807765
0.807626
0.807822
0.808046
0.807999
0.807857
0.807771
0.807654
0.80764
0.807796
0.807828
0.807879
0.808183
0.808421
0.808417
0.808306
0.808223
0.808172
0.808142
0.808126
0.808119
0.806566
0.806454
0.806238
0.806047
0.805995
0.806074
0.806222
0.806272
0.8063
0.806945
0.807395
0.806857
0.806581
0.8071
0.807577
0.80779
0.807883
0.807908
0.807913
0.807967
0.80801
0.808034
0.808025
0.80776
0.807485
0.807733
0.807965
0.807906
0.807841
0.807767
0.807606
0.807569
0.807783
0.807936
0.807897
0.807982
0.808216
0.808258
0.808223
0.808183
0.808153
0.808132
0.80812
0.808115
0.806565
0.806531
0.806445
0.806303
0.806206
0.80619
0.806186
0.806131
0.806172
0.806578
0.807047
0.807131
0.80694
0.807001
0.8073
0.807563
0.807718
0.807806
0.80786
0.807897
0.807931
0.807947
0.807949
0.807944
0.807891
0.807849
0.807902
0.807968
0.807935
0.807857
0.807764
0.807577
0.807538
0.807746
0.807895
0.80799
0.80811
0.808191
0.808204
0.808185
0.808159
0.808137
0.808121
0.808112
0.808108
0.806553
0.806518
0.806434
0.806315
0.806219
0.806202
0.80626
0.806355
0.806431
0.806573
0.806855
0.807023
0.807031
0.807125
0.807335
0.807532
0.807673
0.807768
0.807829
0.807867
0.807881
0.807879
0.807867
0.807845
0.807795
0.807762
0.80782
0.807933
0.807956
0.807874
0.807776
0.807617
0.80753
0.80769
0.807872
0.807958
0.808051
0.808111
0.808133
0.808134
0.808126
0.808117
0.808108
0.808102
0.8081
0.806553
0.806515
0.806457
0.806412
0.806393
0.8064
0.80645
0.806579
0.806765
0.806932
0.807039
0.807125
0.807242
0.807392
0.807531
0.80764
0.807716
0.807761
0.807779
0.807792
0.807798
0.807785
0.807805
0.807834
0.807858
0.807946
0.808015
0.807977
0.807885
0.80777
0.807613
0.807558
0.807697
0.807891
0.808022
0.80809
0.80811
0.808115
0.808112
0.808107
0.808101
0.808096
0.808091
0.808088
0.806564
0.806549
0.806525
0.806516
0.806532
0.806573
0.806633
0.806712
0.80682
0.806947
0.807061
0.807162
0.807273
0.807393
0.8075
0.807584
0.807644
0.80768
0.807706
0.807724
0.807719
0.807772
0.807872
0.807912
0.80791
0.80792
0.807918
0.807887
0.807825
0.807744
0.807625
0.80757
0.807729
0.807904
0.808002
0.808045
0.808067
0.80808
0.808086
0.808087
0.808087
0.808085
0.808083
0.808082
0.806604
0.806608
0.806605
0.806602
0.806607
0.806621
0.806657
0.806714
0.806797
0.806894
0.806994
0.80709
0.807185
0.807281
0.807376
0.80746
0.80753
0.807582
0.807621
0.807655
0.807689
0.807776
0.807898
0.807938
0.807915
0.807906
0.807913
0.807908
0.807876
0.807821
0.807755
0.807687
0.807682
0.807804
0.80793
0.808
0.808034
0.808052
0.808063
0.80807
0.808073
0.808075
0.808075
0.808076
0.808075
0.806619
0.806626
0.806633
0.806642
0.806658
0.806685
0.806724
0.806776
0.806841
0.806919
0.807004
0.80709
0.807176
0.807261
0.807341
0.807413
0.807476
0.807534
0.807597
0.807678
0.807788
0.807876
0.807897
0.807891
0.807888
0.807887
0.807887
0.807883
0.807867
0.807838
0.807805
0.807776
0.807792
0.807868
0.807939
0.807985
0.808014
0.808034
0.808046
0.808056
0.808062
0.808066
0.808068
0.80807
0.808071
0.806644
0.806659
0.806667
0.806684
0.806704
0.806733
0.806776
0.806828
0.806893
0.806966
0.807045
0.807125
0.807206
0.807286
0.807365
0.807444
0.807527
0.807616
0.807707
0.807784
0.807828
0.807854
0.807871
0.807879
0.807884
0.807887
0.80789
0.807887
0.807876
0.807859
0.807845
0.807837
0.807856
0.807904
0.807947
0.807981
0.806654
0.806677
0.806688
0.806715
0.806737
0.806772
0.806814
0.806867
0.806931
0.807002
0.807081
0.807163
0.807247
0.807332
0.807417
0.807502
0.807583
0.807655
0.807713
0.807759
0.807798
0.807828
0.807847
0.80786
0.807869
0.807876
0.80788
0.807881
0.807878
0.807873
0.807868
0.80787
0.807888
0.80792
0.807951
0.806659
0.806682
0.806698
0.806727
0.806755
0.806791
0.806838
0.806891
0.806955
0.807026
0.807104
0.807185
0.807269
0.807353
0.807435
0.807514
0.807587
0.807652
0.807708
0.807753
0.807789
0.807818
0.80784
0.807856
0.807868
0.807876
0.807881
0.807883
0.807883
0.807881
0.807882
0.807889
0.807905
0.807929
0.807955
0.806653
0.806686
0.806698
0.806733
0.806762
0.806798
0.806848
0.806898
0.806964
0.807033
0.807111
0.807191
0.807274
0.807357
0.807438
0.807515
0.807586
0.807648
0.807701
0.807746
0.807783
0.807812
0.807834
0.807851
0.807863
0.807872
0.807878
0.807882
0.807883
0.807885
0.807888
0.807897
0.807913
0.807934
0.807957
0.696243
0.696127
0.695934
0.695817
0.69577
0.695755
0.695812
0.695941
0.696096
0.696339
0.696376
0.695963
0.696061
0.696937
0.697476
0.697527
0.697516
0.697533
0.697554
0.697611
0.697637
0.697598
0.697535
0.697371
0.697284
0.697469
0.697648
0.697609
0.697491
0.697397
0.697264
0.697246
0.697424
0.69748
0.697535
0.697828
0.698051
0.698043
0.697937
0.697856
0.697807
0.697778
0.697762
0.697755
0.696172
0.696063
0.695825
0.695633
0.69562
0.695714
0.695825
0.69583
0.695868
0.696487
0.696911
0.69643
0.69622
0.696739
0.697218
0.697419
0.697482
0.697495
0.697528
0.697601
0.697646
0.697655
0.69757
0.697248
0.697088
0.697401
0.697602
0.697545
0.697467
0.697373
0.697191
0.697162
0.697417
0.697583
0.697551
0.697641
0.697857
0.697892
0.697858
0.697819
0.697789
0.697769
0.697757
0.697752
0.696189
0.69615
0.69606
0.695919
0.695828
0.695816
0.695798
0.695725
0.695796
0.696216
0.696676
0.696708
0.696523
0.696604
0.696921
0.69719
0.697343
0.697423
0.697468
0.697507
0.697547
0.697567
0.697572
0.697559
0.697504
0.697481
0.697542
0.697585
0.69755
0.697475
0.697371
0.697148
0.69712
0.697372
0.697542
0.697636
0.69775
0.697829
0.69784
0.697821
0.697795
0.697774
0.697759
0.697749
0.697745
0.696178
0.696141
0.696058
0.695942
0.695855
0.695845
0.695906
0.695998
0.696085
0.696228
0.696474
0.696624
0.696637
0.696739
0.696949
0.697144
0.697283
0.697372
0.697428
0.697465
0.697484
0.697495
0.697498
0.697479
0.69742
0.697384
0.697428
0.697546
0.697578
0.697484
0.69737
0.697191
0.697119
0.697313
0.697508
0.697597
0.697691
0.69775
0.69777
0.697771
0.697763
0.697754
0.697746
0.69774
0.697737
0.696182
0.696143
0.696085
0.696046
0.696032
0.696046
0.696096
0.696219
0.696394
0.696552
0.69665
0.696735
0.696853
0.697005
0.697143
0.697251
0.697325
0.697369
0.697393
0.697413
0.697428
0.697418
0.697419
0.69745
0.697485
0.697571
0.697624
0.697578
0.697487
0.69737
0.697212
0.697162
0.69732
0.697525
0.697659
0.697728
0.697747
0.697752
0.69775
0.697744
0.697738
0.697733
0.697728
0.697726
0.696196
0.696178
0.696154
0.696146
0.696161
0.6962
0.696261
0.696338
0.696442
0.696563
0.696673
0.696773
0.696885
0.697004
0.697112
0.697198
0.69726
0.697301
0.697333
0.697356
0.697351
0.697381
0.697483
0.697531
0.697533
0.697541
0.697544
0.697517
0.697453
0.697365
0.697246
0.697201
0.697367
0.697546
0.697644
0.697684
0.697705
0.697717
0.697723
0.697725
0.697724
0.697722
0.697721
0.69772
0.696237
0.696241
0.696237
0.696232
0.696235
0.696249
0.696284
0.696339
0.69642
0.696515
0.696612
0.696706
0.6968
0.696897
0.696992
0.697078
0.69715
0.697207
0.697249
0.697284
0.697308
0.697379
0.697507
0.69755
0.697541
0.69754
0.697547
0.697542
0.69751
0.697456
0.697391
0.697322
0.69732
0.697445
0.697571
0.69764
0.697672
0.69769
0.697701
0.697707
0.697711
0.697713
0.697713
0.697713
0.697713
0.696251
0.696259
0.696269
0.696278
0.696293
0.696319
0.696357
0.696408
0.696472
0.696548
0.696631
0.696717
0.696802
0.696887
0.696968
0.697041
0.697106
0.697164
0.697224
0.697299
0.6974
0.697487
0.697512
0.697519
0.697521
0.697522
0.697523
0.697519
0.697505
0.697476
0.697444
0.697415
0.697432
0.697509
0.697579
0.697624
0.697652
0.697672
0.697684
0.697694
0.697699
0.697703
0.697705
0.697708
0.697708
0.696274
0.696292
0.696302
0.696321
0.696341
0.696371
0.696412
0.696464
0.696528
0.6966
0.696677
0.696756
0.696836
0.696916
0.696996
0.697075
0.697157
0.697243
0.69733
0.697403
0.697449
0.697479
0.697501
0.697513
0.697519
0.697524
0.697527
0.697524
0.697513
0.697498
0.697484
0.697477
0.697496
0.697544
0.697586
0.697619
0.696282
0.696309
0.696322
0.69635
0.696372
0.696409
0.696452
0.696505
0.696569
0.69664
0.696718
0.696799
0.696883
0.696967
0.697052
0.697134
0.697212
0.697282
0.69734
0.697388
0.697429
0.697461
0.697482
0.697496
0.697506
0.697513
0.697517
0.697518
0.697516
0.697511
0.697507
0.697509
0.697527
0.697558
0.697589
0.696287
0.696314
0.696333
0.696363
0.69639
0.696428
0.696473
0.696527
0.696591
0.696662
0.696739
0.69682
0.696903
0.696987
0.697068
0.697147
0.697219
0.697284
0.697341
0.697387
0.697424
0.697454
0.697476
0.697493
0.697505
0.697513
0.697518
0.697521
0.69752
0.697519
0.69752
0.697527
0.697543
0.697568
0.697593
0.696285
0.696319
0.696333
0.696369
0.696397
0.696435
0.696483
0.696535
0.6966
0.69667
0.696747
0.696827
0.69691
0.696992
0.697073
0.69715
0.69722
0.697283
0.697337
0.697382
0.697419
0.697449
0.697471
0.697488
0.697501
0.69751
0.697516
0.697519
0.697521
0.697523
0.697526
0.697535
0.697551
0.697573
0.697595
0.585864
0.585761
0.58559
0.585471
0.585403
0.585373
0.585448
0.585601
0.585727
0.585897
0.585929
0.58563
0.585811
0.58661
0.587086
0.587132
0.587113
0.587136
0.587192
0.587269
0.587283
0.587228
0.587125
0.586976
0.586936
0.587102
0.587235
0.5872
0.587111
0.58701
0.586856
0.586837
0.58703
0.587115
0.587192
0.58748
0.587683
0.587662
0.587561
0.587486
0.58744
0.587413
0.587398
0.587392
0.585789
0.58568
0.58545
0.585295
0.585286
0.585342
0.585443
0.585465
0.585509
0.586023
0.586385
0.585999
0.585932
0.586457
0.586874
0.587029
0.587078
0.587114
0.587175
0.587247
0.587277
0.587255
0.587125
0.58685
0.586822
0.587096
0.587213
0.587157
0.587084
0.586966
0.586759
0.586748
0.587043
0.587227
0.587207
0.587306
0.5875
0.587522
0.587489
0.587452
0.587424
0.587405
0.587393
0.587388
0.585811
0.585771
0.585682
0.585547
0.585465
0.585448
0.585426
0.585386
0.585492
0.585866
0.586258
0.586257
0.586129
0.586242
0.586563
0.586824
0.586968
0.587041
0.587087
0.587138
0.587187
0.587208
0.587207
0.587185
0.587131
0.587121
0.587186
0.587218
0.58717
0.587086
0.586955
0.586719
0.586714
0.586993
0.58719
0.587285
0.587392
0.587464
0.587473
0.587454
0.587429
0.587409
0.587395
0.587385
0.587381
0.585807
0.585769
0.585691
0.585586
0.585515
0.585513
0.585563
0.585649
0.585739
0.585872
0.586084
0.586224
0.586252
0.586369
0.586579
0.586769
0.586905
0.586994
0.587055
0.587101
0.587131
0.587144
0.587143
0.587125
0.58708
0.587071
0.587126
0.587197
0.587188
0.587097
0.586972
0.586777
0.586722
0.586939
0.587145
0.587239
0.587332
0.587386
0.587406
0.587407
0.587399
0.58739
0.587382
0.587376
0.587374
0.585809
0.585773
0.585719
0.585685
0.585674
0.585692
0.585746
0.585863
0.586025
0.58617
0.586264
0.586352
0.586475
0.586629
0.586768
0.586878
0.586955
0.587006
0.58704
0.587066
0.587086
0.587101
0.587129
0.58715
0.58717
0.587218
0.587239
0.587195
0.587106
0.586985
0.586824
0.586779
0.586949
0.587162
0.587297
0.587363
0.587381
0.587387
0.587385
0.58738
0.587375
0.58737
0.587365
0.587363
0.585827
0.585809
0.585788
0.585782
0.585797
0.585834
0.585893
0.58597
0.586069
0.586185
0.586293
0.586395
0.586509
0.586632
0.586743
0.586834
0.586901
0.586948
0.586984
0.587013
0.587042
0.587088
0.587142
0.58716
0.587162
0.58717
0.587173
0.587146
0.587083
0.586993
0.586875
0.586842
0.587013
0.587191
0.587283
0.587319
0.587341
0.587354
0.58736
0.587362
0.587361
0.587359
0.587358
0.587357
0.585866
0.585871
0.585868
0.585865
0.585869
0.585885
0.585921
0.585977
0.586057
0.58615
0.586247
0.586341
0.586436
0.586535
0.586634
0.586724
0.5868
0.58686
0.586908
0.586955
0.587008
0.587077
0.58715
0.587176
0.587175
0.587177
0.587183
0.587176
0.587146
0.587095
0.587031
0.586968
0.586972
0.587095
0.587214
0.587277
0.587307
0.587326
0.587337
0.587344
0.587348
0.58735
0.58735
0.587351
0.58735
0.585877
0.585889
0.585901
0.585912
0.585929
0.585957
0.585996
0.586049
0.586115
0.586192
0.586276
0.586363
0.586452
0.58654
0.586624
0.586702
0.586771
0.586839
0.586908
0.586983
0.587059
0.587115
0.587139
0.58715
0.587155
0.587157
0.587159
0.587156
0.587142
0.587117
0.587086
0.587061
0.58708
0.587154
0.587219
0.587261
0.587289
0.587309
0.587322
0.587331
0.587337
0.587341
0.587343
0.587345
0.587345
0.5859
0.585919
0.585933
0.585953
0.585975
0.586008
0.586051
0.586105
0.586171
0.586245
0.586325
0.586408
0.586492
0.586576
0.586658
0.586741
0.586822
0.586902
0.586976
0.587035
0.587077
0.58711
0.587134
0.587147
0.587155
0.587161
0.587164
0.587161
0.587151
0.587137
0.587124
0.587119
0.587138
0.587184
0.587224
0.587256
0.585909
0.585937
0.585953
0.585981
0.586006
0.586043
0.586086
0.586141
0.586205
0.586277
0.586356
0.586438
0.586523
0.586608
0.586692
0.586772
0.586847
0.586914
0.586972
0.587021
0.587063
0.587095
0.587117
0.587132
0.587143
0.58715
0.587155
0.587156
0.587154
0.58715
0.587146
0.587149
0.587166
0.587197
0.587227
0.585918
0.585946
0.585966
0.585996
0.586024
0.586063
0.586108
0.586163
0.586226
0.586298
0.586375
0.586456
0.586539
0.586623
0.586705
0.586783
0.586855
0.586919
0.586975
0.587022
0.58706
0.58709
0.587112
0.587129
0.587142
0.58715
0.587156
0.587158
0.587158
0.587158
0.587159
0.587166
0.587182
0.587206
0.587231
0.585916
0.585953
0.585968
0.586004
0.586033
0.586071
0.586119
0.586172
0.586237
0.586307
0.586384
0.586464
0.586547
0.58663
0.58671
0.586787
0.586857
0.586919
0.586973
0.587019
0.587056
0.587086
0.587108
0.587126
0.587138
0.587147
0.587153
0.587157
0.587159
0.587161
0.587165
0.587174
0.58719
0.587211
0.587233
0.475491
0.475401
0.475243
0.475128
0.47504
0.474997
0.475102
0.475274
0.475369
0.475486
0.47551
0.475283
0.475545
0.476266
0.476666
0.476712
0.4767
0.476739
0.476827
0.476918
0.476921
0.47683
0.476686
0.476578
0.476605
0.476732
0.47682
0.4768
0.476729
0.476613
0.476436
0.476419
0.47663
0.476743
0.476855
0.47713
0.477305
0.477271
0.47718
0.477113
0.477072
0.477047
0.477033
0.477027
0.475413
0.475303
0.47509
0.474967
0.474937
0.474966
0.475096
0.475149
0.475173
0.475567
0.475855
0.475597
0.475664
0.476152
0.476495
0.476617
0.476677
0.476743
0.476816
0.476879
0.476893
0.476836
0.476677
0.476515
0.476579
0.476759
0.476809
0.476773
0.4767
0.476549
0.476317
0.47633
0.476662
0.476861
0.476858
0.476971
0.477137
0.477147
0.477116
0.477083
0.477057
0.477039
0.477028
0.477024
0.475431
0.475393
0.475307
0.475184
0.475111
0.475084
0.475067
0.475071
0.475197
0.475517
0.47581
0.475798
0.475735
0.47589
0.476208
0.476453
0.476589
0.476656
0.47671
0.476775
0.476827
0.476842
0.476829
0.476797
0.476761
0.476764
0.476812
0.476828
0.476787
0.476701
0.476546
0.476293
0.476303
0.476611
0.476831
0.476928
0.477031
0.477095
0.477101
0.477084
0.477062
0.477043
0.47703
0.477021
0.477017
0.475435
0.475399
0.475327
0.475235
0.475177
0.475173
0.47522
0.475307
0.475394
0.475505
0.475687
0.475818
0.475868
0.476002
0.476209
0.476393
0.476526
0.476617
0.47668
0.476732
0.476767
0.476783
0.47678
0.476757
0.476721
0.476719
0.476759
0.476813
0.476802
0.476718
0.476581
0.476373
0.476333
0.476571
0.476782
0.47688
0.476969
0.47702
0.477039
0.47704
0.477034
0.477025
0.477018
0.477013
0.47701
0.475437
0.475403
0.475356
0.475327
0.475319
0.47534
0.475398
0.475507
0.475653
0.475783
0.475874
0.475969
0.476099
0.476254
0.476393
0.476504
0.476584
0.476642
0.476687
0.47672
0.476743
0.476753
0.476764
0.47678
0.476799
0.476839
0.476851
0.476811
0.476729
0.476607
0.476447
0.476408
0.476588
0.476799
0.476932
0.476992
0.477012
0.47702
0.47702
0.477016
0.477011
0.477006
0.477002
0.477
0.475456
0.47544
0.475423
0.475419
0.475434
0.47547
0.475527
0.475601
0.475694
0.475804
0.47591
0.476014
0.476132
0.476258
0.476373
0.476468
0.476542
0.476597
0.476641
0.476674
0.476693
0.476728
0.476773
0.476787
0.476791
0.476798
0.476801
0.476776
0.476715
0.476628
0.476517
0.476497
0.476667
0.476834
0.476916
0.476951
0.476975
0.476989
0.476996
0.476998
0.476997
0.476996
0.476995
0.476994
0.475491
0.475497
0.475496
0.475494
0.475499
0.475517
0.475553
0.475609
0.475686
0.475777
0.475871
0.475966
0.476064
0.476167
0.476271
0.476366
0.476448
0.476515
0.47657
0.476617
0.476658
0.476716
0.476777
0.476799
0.476804
0.476809
0.476815
0.476809
0.476782
0.476735
0.476677
0.47662
0.476633
0.476749
0.476854
0.476911
0.476941
0.476961
0.476973
0.47698
0.476984
0.476986
0.476987
0.476988
0.476987
0.475503
0.475517
0.475529
0.475542
0.475559
0.475587
0.475626
0.475678
0.475744
0.475821
0.475906
0.475995
0.476087
0.476181
0.476271
0.476355
0.47643
0.476498
0.476563
0.476628
0.476693
0.476739
0.476764
0.47678
0.476788
0.476793
0.476795
0.476793
0.476781
0.476758
0.476731
0.476709
0.47673
0.476799
0.476857
0.476897
0.476925
0.476945
0.476958
0.476968
0.476974
0.476978
0.47698
0.476982
0.476982
0.475525
0.475547
0.475562
0.475583
0.475606
0.475639
0.475681
0.475735
0.4758
0.475875
0.475956
0.476041
0.476128
0.476216
0.476302
0.476386
0.476466
0.476542
0.476609
0.476664
0.476706
0.47674
0.476765
0.476781
0.476791
0.476797
0.4768
0.476798
0.47679
0.476777
0.476766
0.476762
0.476781
0.476824
0.476862
0.476893
0.475538
0.475566
0.475585
0.475613
0.475639
0.475676
0.475719
0.475773
0.475837
0.475909
0.475988
0.476071
0.476157
0.476243
0.476327
0.476407
0.476481
0.476547
0.476604
0.476654
0.476696
0.476729
0.476752
0.476768
0.476779
0.476787
0.476792
0.476794
0.476793
0.476789
0.476787
0.47679
0.476807
0.476836
0.476865
0.475549
0.475578
0.4756
0.47563
0.475659
0.475698
0.475743
0.475798
0.475861
0.475932
0.47601
0.476091
0.476175
0.476259
0.47634
0.476418
0.47649
0.476554
0.47661
0.476657
0.476695
0.476725
0.476749
0.476766
0.476779
0.476788
0.476794
0.476796
0.476797
0.476797
0.476799
0.476806
0.476822
0.476845
0.476869
0.475546
0.475584
0.475601
0.475637
0.475669
0.475706
0.475754
0.475808
0.475873
0.475943
0.47602
0.476101
0.476184
0.476267
0.476347
0.476423
0.476493
0.476556
0.47661
0.476655
0.476693
0.476723
0.476746
0.476763
0.476776
0.476785
0.476791
0.476795
0.476798
0.4768
0.476804
0.476814
0.476829
0.47685
0.476872
0.365125
0.365045
0.3649
0.364783
0.364673
0.364631
0.364772
0.364954
0.365021
0.365099
0.365118
0.364997
0.365305
0.365928
0.366248
0.366296
0.366298
0.366352
0.366466
0.366562
0.366531
0.366391
0.366265
0.366214
0.366256
0.366352
0.366424
0.366426
0.366372
0.366231
0.366014
0.365991
0.366226
0.366368
0.366509
0.366772
0.366921
0.366872
0.366794
0.366738
0.366702
0.36668
0.366667
0.366662
0.365042
0.364934
0.364747
0.36464
0.364579
0.364594
0.364777
0.364858
0.364851
0.365138
0.365364
0.365242
0.3654
0.365821
0.366094
0.366209
0.3663
0.366382
0.366442
0.366488
0.36649
0.36643
0.366323
0.366258
0.366303
0.366394
0.366422
0.366405
0.36633
0.366143
0.365877
0.365918
0.366276
0.366487
0.366506
0.366634
0.366766
0.366767
0.36674
0.366711
0.366689
0.366673
0.366663
0.366659
0.365056
0.365021
0.364939
0.364829
0.364762
0.364727
0.364722
0.364777
0.364916
0.365167
0.365356
0.365356
0.365363
0.365549
0.365853
0.366079
0.366207
0.366275
0.366337
0.366414
0.366467
0.366475
0.366454
0.366424
0.3664
0.366406
0.366439
0.36645
0.366417
0.366331
0.366155
0.365888
0.36591
0.366232
0.366468
0.366566
0.366665
0.366722
0.366727
0.366712
0.366693
0.366676
0.366664
0.366656
0.366653
0.365065
0.365033
0.364968
0.36489
0.364841
0.364837
0.364882
0.364968
0.365045
0.365134
0.365291
0.365415
0.365487
0.365636
0.365839
0.366018
0.366151
0.366245
0.36631
0.366366
0.366405
0.36642
0.366417
0.366399
0.366375
0.366379
0.366409
0.366442
0.366426
0.366347
0.366205
0.365998
0.365976
0.36622
0.366423
0.36652
0.366603
0.366652
0.36667
0.366673
0.366667
0.366659
0.366653
0.366648
0.366646
0.365068
0.365036
0.364996
0.36497
0.364965
0.36499
0.365051
0.365152
0.365279
0.365394
0.365486
0.365589
0.365726
0.365881
0.366021
0.366133
0.366217
0.366281
0.366333
0.366371
0.366397
0.366413
0.366426
0.366435
0.366446
0.366468
0.36647
0.366434
0.366358
0.366241
0.366092
0.366065
0.366245
0.366442
0.366564
0.366617
0.366641
0.366651
0.366653
0.36665
0.366646
0.366642
0.366638
0.366636
0.365088
0.365074
0.36506
0.365057
0.365072
0.365107
0.365162
0.365232
0.365319
0.365424
0.365529
0.365636
0.365758
0.365886
0.366004
0.366104
0.366183
0.366243
0.366292
0.366331
0.366361
0.366391
0.366415
0.366422
0.366426
0.366432
0.366433
0.366409
0.366354
0.366274
0.366176
0.366172
0.366331
0.366475
0.366544
0.366582
0.366608
0.366623
0.366631
0.366633
0.366633
0.366632
0.366631
0.36663
0.365117
0.365124
0.365125
0.365125
0.365132
0.365151
0.365188
0.365243
0.365317
0.365404
0.365497
0.365591
0.365692
0.365799
0.365907
0.366007
0.366094
0.366166
0.366226
0.366279
0.366328
0.366375
0.366414
0.366433
0.366441
0.366446
0.36645
0.366443
0.36642
0.366379
0.366329
0.366284
0.366303
0.366405
0.366491
0.366542
0.366574
0.366595
0.366608
0.366616
0.36662
0.366623
0.366623
0.366624
0.366624
0.36513
0.365146
0.365159
0.365173
0.365191
0.365218
0.365257
0.365309
0.365374
0.36545
0.365535
0.365626
0.365721
0.365819
0.365915
0.366004
0.366084
0.366156
0.366222
0.366283
0.366335
0.366374
0.366399
0.366415
0.366424
0.366429
0.366432
0.36643
0.36642
0.3664
0.366377
0.366361
0.366382
0.366443
0.366494
0.366532
0.36656
0.366581
0.366595
0.366604
0.36661
0.366614
0.366616
0.366619
0.366619
0.365153
0.365176
0.365193
0.365214
0.365238
0.365271
0.365313
0.365367
0.365432
0.365506
0.365588
0.365675
0.365765
0.365856
0.365946
0.366032
0.366112
0.366185
0.366248
0.366299
0.366341
0.366374
0.366399
0.366416
0.366427
0.366434
0.366438
0.366436
0.366429
0.366418
0.366409
0.366406
0.366425
0.366464
0.366499
0.36653
0.365167
0.365197
0.365218
0.365246
0.365273
0.365309
0.365353
0.365407
0.36547
0.365542
0.365621
0.365705
0.365792
0.36588
0.365965
0.366045
0.366119
0.366185
0.366242
0.366291
0.366332
0.366364
0.366388
0.366405
0.366416
0.366425
0.36643
0.366433
0.366432
0.366429
0.366428
0.366432
0.366448
0.366476
0.366503
0.365178
0.36521
0.365232
0.365265
0.365295
0.365333
0.365379
0.365433
0.365497
0.365567
0.365645
0.365727
0.365811
0.365896
0.365978
0.366056
0.366127
0.366192
0.366247
0.366294
0.366332
0.366362
0.366386
0.366403
0.366416
0.366426
0.366432
0.366435
0.366436
0.366437
0.366439
0.366446
0.366462
0.366484
0.366507
0.365175
0.365212
0.365235
0.36527
0.365305
0.365341
0.365389
0.365444
0.365508
0.365579
0.365656
0.365737
0.365821
0.365904
0.365985
0.366061
0.366131
0.366193
0.366247
0.366293
0.36633
0.36636
0.366383
0.366401
0.366414
0.366423
0.36643
0.366434
0.366437
0.36644
0.366444
0.366454
0.366469
0.366489
0.36651
0.254763
0.25469
0.254556
0.254433
0.254301
0.254262
0.254444
0.254627
0.254655
0.254702
0.254737
0.254717
0.255049
0.255589
0.255849
0.255903
0.255918
0.255978
0.256104
0.256204
0.25616
0.256016
0.255899
0.255868
0.255917
0.255996
0.256062
0.256078
0.256023
0.25585
0.255579
0.255542
0.255804
0.255979
0.256149
0.256401
0.256517
0.256466
0.256407
0.256361
0.256331
0.256312
0.256301
0.256296
0.254678
0.254574
0.254413
0.254309
0.254215
0.25424
0.254467
0.254563
0.254514
0.254706
0.254912
0.254906
0.255103
0.255459
0.255689
0.255832
0.255953
0.256019
0.256027
0.256087
0.256128
0.25609
0.256003
0.255953
0.255974
0.256028
0.256054
0.256045
0.255962
0.255762
0.255484
0.255517
0.255865
0.256096
0.256147
0.256289
0.256386
0.256384
0.256363
0.256339
0.25632
0.256306
0.256297
0.256293
0.254687
0.254656
0.25458
0.254483
0.254418
0.254376
0.254388
0.254483
0.254622
0.254796
0.254907
0.254933
0.255
0.255211
0.255493
0.255701
0.255828
0.255901
0.25597
0.256052
0.256104
0.256108
0.256085
0.256056
0.256038
0.256045
0.25607
0.256081
0.256056
0.255973
0.255791
0.255528
0.255554
0.255868
0.256104
0.256197
0.256295
0.256344
0.25635
0.256338
0.256322
0.256308
0.256297
0.256291
0.256288
0.254699
0.254671
0.254614
0.254548
0.254505
0.254497
0.25454
0.254624
0.25469
0.254758
0.254893
0.255013
0.255106
0.255267
0.255466
0.255643
0.25578
0.255876
0.255941
0.255999
0.256042
0.256059
0.256056
0.25604
0.256023
0.256027
0.256048
0.256072
0.256055
0.255981
0.255846
0.255661
0.255659
0.255889
0.256067
0.256158
0.256237
0.256282
0.2563
0.256304
0.256299
0.256293
0.256287
0.256283
0.256282
0.2547
0.254672
0.254637
0.254615
0.254612
0.25464
0.254701
0.254792
0.2549
0.255002
0.255097
0.255209
0.255353
0.255509
0.25565
0.255765
0.255852
0.255921
0.255977
0.256017
0.256042
0.256053
0.256061
0.256069
0.256079
0.256094
0.256094
0.256062
0.255994
0.25589
0.255761
0.255753
0.255919
0.256091
0.256191
0.256242
0.25627
0.256282
0.256285
0.256283
0.25628
0.256277
0.256274
0.256272
0.254721
0.25471
0.254698
0.254696
0.25471
0.254744
0.254796
0.254862
0.254943
0.255043
0.255147
0.255257
0.255383
0.255515
0.255637
0.255741
0.255824
0.255888
0.25594
0.255979
0.256005
0.25603
0.25605
0.256057
0.256062
0.256067
0.256067
0.256046
0.255998
0.255931
0.255853
0.255865
0.255999
0.256112
0.256174
0.256214
0.256241
0.256257
0.256265
0.256268
0.256268
0.256268
0.256267
0.256267
0.254745
0.254754
0.254757
0.254759
0.254766
0.254787
0.254823
0.254876
0.254947
0.25503
0.255121
0.255216
0.255319
0.25543
0.255541
0.255646
0.255737
0.255813
0.255876
0.255928
0.255972
0.256013
0.256048
0.256065
0.256074
0.25608
0.256084
0.256078
0.256059
0.256025
0.255985
0.255951
0.255972
0.256057
0.256127
0.256175
0.256207
0.256229
0.256243
0.256251
0.256256
0.256259
0.25626
0.256261
0.256261
0.254758
0.254777
0.254791
0.254805
0.254824
0.254851
0.254889
0.254941
0.255004
0.255079
0.255163
0.255255
0.255353
0.255454
0.255554
0.255647
0.255731
0.255804
0.255868
0.255924
0.255972
0.256008
0.256033
0.25605
0.25606
0.256066
0.256069
0.256068
0.25606
0.256043
0.256025
0.256012
0.256034
0.256085
0.256131
0.256168
0.256196
0.256216
0.25623
0.25624
0.256246
0.256251
0.256253
0.256256
0.256256
0.254781
0.254806
0.254825
0.254847
0.254871
0.254904
0.254946
0.254999
0.255063
0.255137
0.255219
0.255307
0.255399
0.255492
0.255584
0.255672
0.255752
0.255823
0.255885
0.255935
0.255976
0.256009
0.256034
0.256051
0.256063
0.256071
0.256075
0.256074
0.256069
0.25606
0.256053
0.256052
0.25607
0.256104
0.256138
0.256167
0.254796
0.254828
0.254851
0.254879
0.254908
0.254943
0.254987
0.25504
0.255103
0.255175
0.255254
0.255339
0.255427
0.255516
0.255602
0.255683
0.255757
0.255823
0.25588
0.255929
0.255969
0.256001
0.256024
0.256042
0.256054
0.256063
0.256069
0.256071
0.256072
0.25607
0.25607
0.256074
0.25609
0.256116
0.256142
0.254806
0.254843
0.254864
0.254898
0.254931
0.254967
0.255015
0.255067
0.255132
0.255202
0.255281
0.255363
0.255448
0.255533
0.255616
0.255694
0.255766
0.255829
0.255884
0.255931
0.255969
0.255999
0.256023
0.256041
0.256054
0.256064
0.25607
0.256074
0.256075
0.256077
0.25608
0.256088
0.256103
0.256124
0.256146
0.2548
0.25484
0.254873
0.254903
0.254938
0.254977
0.255025
0.25508
0.255144
0.255215
0.255292
0.255374
0.255458
0.255542
0.255623
0.2557
0.255769
0.255831
0.255885
0.25593
0.255968
0.255998
0.256021
0.256038
0.256052
0.256061
0.256068
0.256073
0.256076
0.256079
0.256085
0.256094
0.256109
0.256129
0.256149
0.144405
0.144337
0.14421
0.144079
0.143928
0.143895
0.144105
0.144279
0.144264
0.14429
0.144369
0.144443
0.144769
0.145251
0.145472
0.145529
0.145542
0.145599
0.145777
0.145895
0.145812
0.145661
0.145571
0.145555
0.145583
0.145641
0.145706
0.145743
0.145708
0.145506
0.14519
0.145125
0.145384
0.145587
0.145789
0.14602
0.146099
0.146061
0.146019
0.145983
0.145959
0.145943
0.145934
0.14593
0.14432
0.144222
0.144082
0.143973
0.143854
0.143888
0.144148
0.144242
0.144151
0.144269
0.144496
0.144572
0.144766
0.145063
0.145315
0.145501
0.145616
0.145611
0.14563
0.14576
0.145771
0.145718
0.145654
0.145618
0.145629
0.145665
0.145692
0.145693
0.145628
0.145425
0.145124
0.145122
0.145466
0.145709
0.145791
0.145932
0.145999
0.146
0.145985
0.145966
0.14595
0.145938
0.145931
0.145928
0.144323
0.144298
0.144229
0.144143
0.14408
0.144034
0.144061
0.144181
0.144304
0.144405
0.144467
0.144525
0.14464
0.144862
0.145121
0.145321
0.145453
0.145533
0.145605
0.145689
0.145742
0.145741
0.145718
0.145693
0.145681
0.145687
0.145706
0.145717
0.145698
0.145623
0.145455
0.145225
0.145257
0.145532
0.145733
0.145827
0.145921
0.145964
0.145971
0.145964
0.145951
0.14594
0.145931
0.145925
0.145923
0.144336
0.144313
0.144264
0.144207
0.144167
0.144155
0.144194
0.144273
0.144329
0.144377
0.144492
0.144611
0.144719
0.144888
0.145088
0.145269
0.145412
0.145509
0.145574
0.145636
0.145682
0.145698
0.145696
0.145683
0.145672
0.145675
0.14569
0.145704
0.145687
0.145623
0.145508
0.145359
0.145376
0.145564
0.14571
0.145796
0.14587
0.145911
0.14593
0.145934
0.145931
0.145926
0.145921
0.145918
0.145917
0.144335
0.14431
0.14428
0.14426
0.144258
0.144287
0.144347
0.144425
0.144515
0.144608
0.144707
0.144826
0.144977
0.145135
0.145279
0.145399
0.14549
0.145561
0.14562
0.145661
0.145685
0.145697
0.145705
0.14571
0.145716
0.145725
0.145722
0.145694
0.145637
0.145551
0.145453
0.145462
0.1456
0.145737
0.14582
0.14587
0.145898
0.145912
0.145917
0.145916
0.145914
0.145912
0.145909
0.145908
0.144355
0.144347
0.144337
0.144336
0.144348
0.14438
0.144429
0.14449
0.144565
0.144659
0.144763
0.144877
0.145008
0.145144
0.145271
0.145379
0.145465
0.145532
0.145587
0.145626
0.145654
0.145675
0.145689
0.145695
0.1457
0.145704
0.145703
0.145685
0.145646
0.145594
0.145538
0.145557
0.145663
0.14575
0.145806
0.145847
0.145874
0.14589
0.145899
0.145902
0.145904
0.145903
0.145903
0.145903
0.144374
0.144386
0.144391
0.144394
0.144403
0.144423
0.144458
0.14451
0.144576
0.144655
0.144745
0.144841
0.144946
0.145061
0.145176
0.145284
0.145379
0.145458
0.145523
0.145577
0.145621
0.145657
0.145685
0.145701
0.14571
0.145716
0.14572
0.145715
0.145698
0.145671
0.14564