/*--------------------------------*- C++ -*----------------------------------*\
| =========                 |                                                 |
| \\      /  F ield         | OpenFOAM: The Open Source CFD Toolbox           |
|  \\    /   O peration     | Version:  2.3.1                                 |
|   \\  /    A nd           | Web:      www.OpenFOAM.org                      |
|    \\/     M anipulation  |                                                 |
\*---------------------------------------------------------------------------*/
FoamFile
{
    version     2.0;
    format      ascii;
    class       volScalarField;
    location    "15";
    object      p_rgh;
}
// * * * * * * * * * * * * * * * * * * * * * * * * * * * * * * * * * * * * * //

dimensions      [0 2 -2 0 0 0 0];

internalField   nonuniform List<scalar> 
38152
(
0.861819
0.861703
0.861505
0.861346
0.861305
0.861322
0.861384
0.861497
0.86169
0.862019
0.86207
0.861595
0.861648
0.862502
0.863041
0.863088
0.863088
0.863105
0.863098
0.863138
0.863168
0.863142
0.863106
0.862946
0.862807
0.863003
0.863227
0.863181
0.863038
0.862952
0.862836
0.862822
0.862978
0.86301
0.86306
0.863364
0.863602
0.863598
0.863487
0.863404
0.863353
0.863323
0.863307
0.8633
0.861747
0.861635
0.861419
0.861229
0.861176
0.861255
0.861403
0.861453
0.861481
0.862126
0.862576
0.862039
0.861763
0.862281
0.862758
0.862971
0.863065
0.863089
0.863094
0.863148
0.863191
0.863216
0.863206
0.862941
0.862666
0.862915
0.863146
0.863087
0.863022
0.862948
0.862787
0.86275
0.862965
0.863118
0.863078
0.863163
0.863397
0.863439
0.863404
0.863364
0.863334
0.863314
0.863301
0.863296
0.861746
0.861712
0.861626
0.861484
0.861387
0.861371
0.861368
0.861312
0.861353
0.861759
0.862229
0.862312
0.862122
0.862182
0.862481
0.862744
0.862899
0.862987
0.863041
0.863079
0.863113
0.863129
0.863131
0.863126
0.863072
0.86303
0.863083
0.863149
0.863116
0.863038
0.862946
0.862758
0.862719
0.862927
0.863076
0.863171
0.863291
0.863373
0.863385
0.863366
0.86334
0.863318
0.863303
0.863293
0.863289
0.861734
0.861699
0.861615
0.861496
0.8614
0.861383
0.861442
0.861536
0.861612
0.861754
0.862036
0.862204
0.862212
0.862306
0.862516
0.862713
0.862855
0.86295
0.86301
0.863048
0.863063
0.86306
0.863048
0.863027
0.862976
0.862943
0.863001
0.863114
0.863137
0.863055
0.862957
0.862798
0.862711
0.862871
0.863054
0.863139
0.863233
0.863292
0.863314
0.863315
0.863307
0.863298
0.86329
0.863284
0.863281
0.861735
0.861696
0.861638
0.861593
0.861574
0.861581
0.861631
0.861761
0.861947
0.862114
0.86222
0.862307
0.862423
0.862574
0.862712
0.862821
0.862897
0.862942
0.862961
0.862973
0.86298
0.862967
0.862986
0.863015
0.863039
0.863128
0.863196
0.863158
0.863066
0.862951
0.862794
0.862739
0.862878
0.863072
0.863203
0.863271
0.863291
0.863296
0.863294
0.863288
0.863282
0.863277
0.863272
0.86327
0.861746
0.86173
0.861706
0.861697
0.861713
0.861754
0.861815
0.861894
0.862001
0.862128
0.862242
0.862343
0.862455
0.862574
0.862681
0.862766
0.862825
0.862862
0.862887
0.862905
0.862901
0.862953
0.863053
0.863093
0.863091
0.863101
0.863099
0.863068
0.863006
0.862925
0.862806
0.862752
0.86291
0.863086
0.863183
0.863226
0.863248
0.863261
0.863267
0.863268
0.863268
0.863266
0.863265
0.863264
0.861785
0.861789
0.861787
0.861783
0.861788
0.861803
0.861838
0.861895
0.861978
0.862075
0.862175
0.862271
0.862366
0.862463
0.862557
0.862642
0.862711
0.862764
0.862802
0.862836
0.862871
0.862957
0.863079
0.863119
0.863096
0.863088
0.863094
0.86309
0.863057
0.863002
0.862936
0.862869
0.862863
0.862985
0.863111
0.863182
0.863215
0.863233
0.863244
0.863251
0.863254
0.863256
0.863257
0.863257
0.863257
0.8618
0.861807
0.861814
0.861823
0.86184
0.861867
0.861905
0.861957
0.862023
0.8621
0.862185
0.862271
0.862357
0.862442
0.862522
0.862594
0.862658
0.862715
0.862778
0.86286
0.862969
0.863057
0.863078
0.863073
0.863069
0.863068
0.863069
0.863064
0.863048
0.863019
0.862987
0.862957
0.862973
0.863049
0.86312
0.863167
0.863195
0.863215
0.863228
0.863237
0.863243
0.863247
0.863249
0.863252
0.863252
0.861825
0.86184
0.861849
0.861865
0.861886
0.861914
0.861957
0.862009
0.862075
0.862147
0.862226
0.862306
0.862387
0.862467
0.862547
0.862625
0.862708
0.862797
0.862888
0.862965
0.863009
0.863035
0.863052
0.86306
0.863065
0.863069
0.863071
0.863068
0.863057
0.863041
0.863026
0.863019
0.863037
0.863085
0.863128
0.863162
0.861835
0.861858
0.86187
0.861896
0.861918
0.861953
0.861996
0.862048
0.862112
0.862184
0.862262
0.862344
0.862428
0.862513
0.862598
0.862683
0.862764
0.862836
0.862894
0.86294
0.86298
0.863009
0.863028
0.863041
0.863051
0.863057
0.863061
0.863062
0.863059
0.863054
0.86305
0.863051
0.863069
0.863101
0.863132
0.86184
0.861863
0.861879
0.861909
0.861937
0.861973
0.862019
0.862072
0.862136
0.862207
0.862285
0.862366
0.86245
0.862534
0.862616
0.862695
0.862768
0.862833
0.862889
0.862935
0.862971
0.862999
0.863021
0.863037
0.863049
0.863057
0.863062
0.863064
0.863064
0.863062
0.863063
0.86307
0.863086
0.863111
0.863136
0.861834
0.861867
0.861879
0.861915
0.861943
0.861979
0.862029
0.86208
0.862145
0.862215
0.862292
0.862372
0.862455
0.862538
0.862619
0.862696
0.862767
0.862829
0.862882
0.862927
0.862964
0.862993
0.863016
0.863032
0.863045
0.863054
0.863059
0.863063
0.863065
0.863066
0.86307
0.863078
0.863094
0.863116
0.863138
0.861787
0.86167
0.861478
0.861361
0.861314
0.861299
0.861356
0.861484
0.86164
0.861882
0.86192
0.861507
0.861605
0.86248
0.86302
0.863071
0.863059
0.863077
0.863098
0.863155
0.863181
0.863141
0.863079
0.862914
0.862828
0.863013
0.863192
0.863153
0.863034
0.86294
0.862808
0.862789
0.862968
0.863024
0.863079
0.863371
0.863594
0.863586
0.86348
0.8634
0.863351
0.863322
0.863306
0.863299
0.861716
0.861606
0.861369
0.861176
0.861164
0.861257
0.861369
0.861374
0.861412
0.862031
0.862455
0.861974
0.861764
0.862282
0.862762
0.862962
0.863026
0.863039
0.863072
0.863145
0.86319
0.863198
0.863114
0.862791
0.862631
0.862945
0.863145
0.863089
0.863011
0.862917
0.862735
0.862706
0.86296
0.863127
0.863095
0.863184
0.863401
0.863436
0.863401
0.863363
0.863333
0.863313
0.863301
0.863296
0.861732
0.861694
0.861604
0.861462
0.861371
0.86136
0.861342
0.861268
0.86134
0.86176
0.86222
0.862251
0.862067
0.862148
0.862464
0.862734
0.862887
0.862967
0.863012
0.863051
0.86309
0.863111
0.863116
0.863103
0.863047
0.863024
0.863086
0.863129
0.863093
0.863019
0.862915
0.862692
0.862663
0.862916
0.863085
0.86318
0.863294
0.863372
0.863384
0.863364
0.863339
0.863318
0.863302
0.863293
0.863289
0.861722
0.861685
0.861602
0.861486
0.861399
0.861388
0.861449
0.861542
0.861629
0.861772
0.862017
0.862167
0.862181
0.862283
0.862493
0.862688
0.862826
0.862916
0.862972
0.863009
0.863028
0.863039
0.863042
0.863022
0.862964
0.862927
0.862972
0.863089
0.863122
0.863028
0.862914
0.862734
0.862663
0.862856
0.863052
0.863141
0.863235
0.863293
0.863314
0.863315
0.863307
0.863298
0.863289
0.863284
0.863281
0.861725
0.861687
0.861629
0.861589
0.861576
0.86159
0.86164
0.861763
0.861938
0.862096
0.862194
0.862279
0.862397
0.862549
0.862687
0.862795
0.862869
0.862913
0.862936
0.862957
0.862971
0.862962
0.862963
0.862994
0.863029
0.863115
0.863168
0.863122
0.863031
0.862914
0.862756
0.862706
0.862863
0.863069
0.863202
0.863272
0.863291
0.863296
0.863293
0.863288
0.863282
0.863277
0.863272
0.863269
0.86174
0.861721
0.861698
0.86169
0.861705
0.861744
0.861805
0.861882
0.861985
0.862106
0.862217
0.862317
0.862428
0.862548
0.862656
0.862742
0.862804
0.862845
0.862877
0.8629
0.862895
0.862925
0.863027
0.863075
0.863077
0.863084
0.863088
0.863061
0.862997
0.862909
0.862789
0.862745
0.862911
0.86309
0.863188
0.863228
0.863249
0.863261
0.863267
0.863269
0.863268
0.863266
0.863265
0.863264
0.861781
0.861785
0.86178
0.861776
0.861778
0.861793
0.861828
0.861883
0.861964
0.862059
0.862156
0.86225
0.862344
0.862441
0.862536
0.862622
0.862694
0.86275
0.862793
0.862828
0.862852
0.862923
0.863051
0.863094
0.863085
0.863083
0.863091
0.863085
0.863053
0.863
0.862935
0.862866
0.862863
0.862989
0.863115
0.863184
0.863215
0.863234
0.863244
0.863251
0.863254
0.863256
0.863257
0.863257
0.863257
0.861794
0.861803
0.861812
0.861821
0.861837
0.861863
0.861901
0.861952
0.862016
0.862092
0.862175
0.86226
0.862346
0.862431
0.862512
0.862585
0.86265
0.862707
0.862768
0.862843
0.862944
0.863031
0.863056
0.863063
0.863065
0.863066
0.863067
0.863063
0.863048
0.86302
0.862987
0.862959
0.862976
0.863053
0.863123
0.863168
0.863196
0.863215
0.863228
0.863238
0.863243
0.863247
0.863249
0.863252
0.863252
0.861818
0.861835
0.861846
0.861865
0.861885
0.861915
0.861956
0.862008
0.862072
0.862143
0.862221
0.8623
0.86238
0.86246
0.862539
0.862619
0.862701
0.862787
0.862874
0.862947
0.862992
0.863023
0.863045
0.863056
0.863063
0.863068
0.863071
0.863067
0.863057
0.863042
0.863027
0.863021
0.86304
0.863087
0.86313
0.863163
0.861825
0.861852
0.861866
0.861893
0.861916
0.861953
0.861996
0.862049
0.862113
0.862184
0.862262
0.862343
0.862427
0.862511
0.862595
0.862678
0.862756
0.862825
0.862883
0.862932
0.862973
0.863005
0.863025
0.86304
0.86305
0.863057
0.863061
0.863062
0.863059
0.863054
0.863051
0.863053
0.86307
0.863102
0.863133
0.861831
0.861858
0.861876
0.861906
0.861933
0.861972
0.862017
0.862071
0.862135
0.862206
0.862283
0.862364
0.862447
0.86253
0.862612
0.862691
0.862763
0.862828
0.862884
0.862931
0.862968
0.862997
0.86302
0.863036
0.863048
0.863057
0.863062
0.863064
0.863064
0.863063
0.863064
0.863071
0.863087
0.863111
0.863136
0.861829
0.861863
0.861877
0.861913
0.861941
0.861978
0.862027
0.862079
0.862144
0.862214
0.862291
0.862371
0.862454
0.862536
0.862617
0.862694
0.862764
0.862827
0.862881
0.862926
0.862963
0.862993
0.863015
0.863032
0.863044
0.863053
0.863059
0.863063
0.863065
0.863066
0.86307
0.863079
0.863095
0.863116
0.863139
0.86177
0.861668
0.861496
0.861377
0.861309
0.861279
0.861354
0.861507
0.861633
0.861803
0.861835
0.861536
0.861717
0.862516
0.862992
0.863039
0.863019
0.863042
0.863099
0.863175
0.863189
0.863134
0.863031
0.862882
0.862843
0.863009
0.863141
0.863107
0.863017
0.862916
0.862763
0.862743
0.862936
0.863021
0.863099
0.863387
0.863589
0.863568
0.863467
0.863393
0.863347
0.863319
0.863304
0.863298
0.861695
0.861586
0.861356
0.861201
0.861192
0.861248
0.86135
0.861371
0.861415
0.861929
0.862291
0.861905
0.861838
0.862364
0.86278
0.862936
0.862984
0.86302
0.863081
0.863153
0.863183
0.863162
0.863032
0.862757
0.862728
0.863002
0.863119
0.863063
0.862991
0.862872
0.862665
0.862655
0.86295
0.863133
0.863113
0.863213
0.863407
0.863429
0.863395
0.863358
0.86333
0.863311
0.863299
0.863294
0.861717
0.861677
0.861588
0.861453
0.861372
0.861355
0.861332
0.861292
0.861399
0.861772
0.862164
0.862163
0.862036
0.862148
0.86247
0.86273
0.862875
0.862947
0.862994
0.863045
0.863093
0.863114
0.863113
0.863091
0.863037
0.863027
0.863092
0.863124
0.863076
0.862992
0.862861
0.862625
0.86262
0.8629
0.863096
0.863191
0.863298
0.86337
0.863379
0.86336
0.863336
0.863315
0.863301
0.863292
0.863288
0.861714
0.861675
0.861598
0.861493
0.861422
0.861419
0.861469
0.861555
0.861646
0.861778
0.86199
0.86213
0.862158
0.862275
0.862485
0.862675
0.862811
0.862901
0.862961
0.863007
0.863038
0.863051
0.863049
0.863031
0.862986
0.862977
0.863032
0.863104
0.863094
0.863003
0.862878
0.862683
0.862628
0.862845
0.863051
0.863145
0.863238
0.863292
0.863312
0.863313
0.863305
0.863296
0.863288
0.863283
0.86328
0.861716
0.861679
0.861625
0.861591
0.86158
0.861599
0.861653
0.861769
0.861931
0.862076
0.86217
0.862258
0.862381
0.862535
0.862675
0.862784
0.862861
0.862912
0.862946
0.862972
0.862992
0.863007
0.863035
0.863056
0.863076
0.863124
0.863145
0.863101
0.863012
0.862891
0.86273
0.862686
0.862855
0.863068
0.863203
0.863269
0.863287
0.863293
0.863292
0.863287
0.863281
0.863276
0.863272
0.863269
0.861733
0.861715
0.861695
0.861688
0.861703
0.861741
0.861799
0.861876
0.861976
0.862091
0.862199
0.862301
0.862416
0.862538
0.86265
0.86274
0.862807
0.862854
0.86289
0.86292
0.862948
0.862995
0.863049
0.863066
0.863068
0.863076
0.863079
0.863052
0.862989
0.8629
0.862781
0.862748
0.862919
0.863097
0.863189
0.863226
0.863247
0.86326
0.863266
0.863268
0.863267
0.863266
0.863264
0.863263
0.861772
0.861777
0.861775
0.861771
0.861775
0.861792
0.861827
0.861884
0.861963
0.862056
0.862153
0.862247
0.862342
0.862442
0.86254
0.86263
0.862706
0.862766
0.862815
0.862861
0.862914
0.862984
0.863056
0.863082
0.863081
0.863083
0.863089
0.863083
0.863052
0.863001
0.862938
0.862874
0.862879
0.863002
0.863121
0.863183
0.863213
0.863232
0.863244
0.86325
0.863254
0.863256
0.863256
0.863257
0.863256
0.861783
0.861796
0.861807
0.861818
0.861836
0.861863
0.861902
0.861955
0.862021
0.862098
0.862183
0.86227
0.862358
0.862446
0.86253
0.862608
0.862677
0.862745
0.862815
0.862889
0.862966
0.863021
0.863045
0.863056
0.863061
0.863064
0.863065
0.863062
0.863049
0.863023
0.862993
0.862967
0.862986
0.863061
0.863125
0.863167
0.863195
0.863215
0.863228
0.863237
0.863243
0.863247
0.863249
0.863251
0.863252
0.861806
0.861825
0.861839
0.861859
0.861881
0.861914
0.861957
0.862011
0.862077
0.862151
0.862231
0.862314
0.862398
0.862482
0.862564
0.862647
0.862728
0.862808
0.862882
0.862942
0.862984
0.863016
0.86304
0.863053
0.863062
0.863067
0.86307
0.863067
0.863058
0.863043
0.86303
0.863025
0.863045
0.86309
0.86313
0.863163
0.861815
0.861843
0.86186
0.861887
0.861912
0.861949
0.861992
0.862047
0.862111
0.862183
0.862262
0.862345
0.86243
0.862515
0.862598
0.862679
0.862754
0.862821
0.862878
0.862927
0.862969
0.863001
0.863023
0.863038
0.863049
0.863056
0.863061
0.863062
0.86306
0.863056
0.863053
0.863055
0.863073
0.863103
0.863133
0.861824
0.861852
0.861872
0.861903
0.861931
0.861969
0.862014
0.862069
0.862133
0.862204
0.862281
0.862362
0.862446
0.862529
0.862611
0.862689
0.862761
0.862826
0.862882
0.862928
0.862966
0.862996
0.863019
0.863036
0.863048
0.863057
0.863062
0.863065
0.863065
0.863064
0.863065
0.863072
0.863088
0.863112
0.863137
0.861822
0.861859
0.861874
0.86191
0.86194
0.861977
0.862025
0.862078
0.862143
0.862213
0.86229
0.86237
0.862453
0.862536
0.862617
0.862693
0.862763
0.862826
0.86288
0.862925
0.862962
0.862992
0.863015
0.863032
0.863044
0.863053
0.86306
0.863063
0.863065
0.863067
0.863071
0.86308
0.863096
0.863117
0.86314
0.86176
0.86167
0.861511
0.861397
0.861309
0.861266
0.861371
0.861543
0.861638
0.861755
0.861778
0.861552
0.861814
0.862535
0.862935
0.862981
0.862969
0.863008
0.863096
0.863187
0.86319
0.863098
0.862954
0.862847
0.862873
0.863001
0.863089
0.863069
0.862998
0.862881
0.862705
0.862688
0.862899
0.863012
0.863124
0.863398
0.863574
0.863539
0.863448
0.863382
0.863341
0.863316
0.863302
0.863296
0.861681
0.861571
0.861359
0.861235
0.861206
0.861234
0.861364
0.861418
0.861442
0.861836
0.862124
0.861866
0.861933
0.862421
0.862764
0.862886
0.862946
0.863012
0.863085
0.863147
0.863161
0.863105
0.862946
0.862784
0.862848
0.863028
0.863078
0.863042
0.862969
0.862818
0.862586
0.862599
0.862931
0.86313
0.863127
0.86324
0.863406
0.863416
0.863385
0.863351
0.863326
0.863308
0.863297
0.863292
0.8617
0.861662
0.861575
0.861452
0.86138
0.861353
0.861336
0.86134
0.861465
0.861786
0.862079
0.862067
0.862004
0.862159
0.862477
0.862722
0.862857
0.862925
0.862978
0.863043
0.863096
0.863111
0.863097
0.863066
0.86303
0.863033
0.863081
0.863096
0.863056
0.86297
0.862814
0.862562
0.862572
0.86288
0.8631
0.863197
0.8633
0.863364
0.86337
0.863353
0.863331
0.863312
0.863298
0.86329
0.863286
0.861704
0.861667
0.861596
0.861504
0.861445
0.861442
0.861489
0.861576
0.861663
0.861774
0.861955
0.862087
0.862137
0.862271
0.862478
0.862661
0.862795
0.862886
0.862949
0.863001
0.863036
0.863051
0.863049
0.863026
0.862989
0.862988
0.863027
0.863082
0.863071
0.862987
0.86285
0.862642
0.862601
0.86284
0.863051
0.863149
0.863238
0.863289
0.863308
0.863309
0.863302
0.863294
0.863286
0.863281
0.863279
0.861706
0.861672
0.861625
0.861595
0.861587
0.861609
0.861667
0.861776
0.861922
0.862052
0.862143
0.862237
0.862368
0.862522
0.862662
0.862773
0.862853
0.862911
0.862955
0.862989
0.863012
0.863022
0.863033
0.863048
0.863068
0.863107
0.86312
0.86308
0.862997
0.862876
0.862716
0.862677
0.862857
0.863067
0.863201
0.863261
0.863281
0.863288
0.863288
0.863284
0.863279
0.863275
0.863271
0.863268
0.861725
0.861709
0.861692
0.861688
0.861702
0.861739
0.861796
0.86187
0.861963
0.862073
0.862179
0.862283
0.862401
0.862527
0.862642
0.862737
0.86281
0.862866
0.862909
0.862942
0.862962
0.862996
0.863041
0.863056
0.86306
0.863066
0.86307
0.863044
0.862984
0.862897
0.862785
0.862765
0.862936
0.863102
0.863185
0.86322
0.863244
0.863258
0.863264
0.863266
0.863266
0.863265
0.863264
0.863263
0.86176
0.861765
0.861765
0.861763
0.861767
0.861786
0.861822
0.861878
0.861955
0.862045
0.86214
0.862234
0.862332
0.862436
0.86254
0.862635
0.862717
0.862784
0.862839
0.862885
0.862926
0.862984
0.863046
0.863068
0.863073
0.863078
0.863084
0.863078
0.863051
0.863004
0.862945
0.862889
0.862901
0.863018
0.863123
0.863179
0.86321
0.86323
0.863242
0.863249
0.863253
0.863255
0.863256
0.863256
0.863256
0.861771
0.861786
0.861798
0.86181
0.861828
0.861856
0.861894
0.861947
0.862013
0.862089
0.862175
0.862264
0.862356
0.862449
0.86254
0.862624
0.862699
0.862767
0.862831
0.862897
0.862962
0.863008
0.863033
0.863049
0.863057
0.863061
0.863064
0.863062
0.863049
0.863026
0.863
0.862978
0.862999
0.863068
0.863125
0.863166
0.863193
0.863214
0.863227
0.863236
0.863242
0.863246
0.863248
0.863251
0.863251
0.861794
0.861815
0.861831
0.861852
0.861874
0.861907
0.86195
0.862004
0.862069
0.862144
0.862225
0.86231
0.862397
0.862485
0.862571
0.862655
0.862735
0.862811
0.862878
0.862933
0.862974
0.863008
0.863034
0.863049
0.863059
0.863066
0.863069
0.863067
0.863059
0.863046
0.863034
0.86303
0.86305
0.863092
0.86313
0.863162
0.861807
0.861835
0.861854
0.861882
0.861908
0.861944
0.861988
0.862042
0.862106
0.862178
0.862257
0.86234
0.862426
0.862512
0.862596
0.862676
0.86275
0.862816
0.862873
0.862923
0.862965
0.862997
0.86302
0.863037
0.863048
0.863056
0.863061
0.863063
0.863061
0.863058
0.863055
0.863059
0.863076
0.863105
0.863134
0.861817
0.861846
0.861868
0.861899
0.861928
0.861967
0.862012
0.862066
0.86213
0.862201
0.862279
0.86236
0.862444
0.862527
0.862609
0.862687
0.862759
0.862823
0.862879
0.862926
0.862964
0.862994
0.863018
0.863035
0.863048
0.863057
0.863062
0.863065
0.863066
0.863066
0.863067
0.863075
0.86309
0.863114
0.863137
0.861815
0.861853
0.86187
0.861906
0.861938
0.861975
0.862023
0.862076
0.862141
0.862211
0.862289
0.862369
0.862452
0.862535
0.862616
0.862692
0.862762
0.862825
0.862879
0.862924
0.862962
0.862991
0.863014
0.863032
0.863044
0.863054
0.86306
0.863064
0.863067
0.863069
0.863073
0.863082
0.863098
0.863119
0.863141
0.861756
0.861676
0.861532
0.861414
0.861304
0.861262
0.861403
0.861585
0.861652
0.86173
0.86175
0.861628
0.861936
0.862559
0.862879
0.862927
0.862929
0.862983
0.863098
0.863193
0.863162
0.863023
0.862897
0.862845
0.862888
0.862983
0.863055
0.863057
0.863003
0.862862
0.862645
0.862622
0.862857
0.862999
0.86314
0.863403
0.863552
0.863503
0.863426
0.863369
0.863333
0.863311
0.863298
0.863293
0.861673
0.861565
0.861378
0.861271
0.86121
0.861225
0.861408
0.861489
0.861482
0.861769
0.861995
0.861873
0.862032
0.862452
0.862725
0.86284
0.862932
0.863013
0.863074
0.863119
0.863121
0.863061
0.862954
0.862889
0.862934
0.863026
0.863053
0.863036
0.862962
0.862774
0.862508
0.862549
0.862907
0.863118
0.863137
0.863265
0.863397
0.863398
0.863372
0.863343
0.86332
0.863304
0.863294
0.86329
0.861687
0.861652
0.86157
0.86146
0.861393
0.861358
0.861353
0.861409
0.861547
0.861798
0.861987
0.861987
0.861994
0.862181
0.862484
0.86271
0.862838
0.862906
0.862969
0.863046
0.863098
0.863106
0.863085
0.863055
0.863031
0.863037
0.86307
0.863082
0.863049
0.862963
0.862787
0.862519
0.862542
0.862863
0.863099
0.863198
0.863297
0.863353
0.863358
0.863343
0.863324
0.863307
0.863295
0.863287
0.863284
0.861697
0.861664
0.8616
0.861521
0.861472
0.861468
0.861513
0.8616
0.861677
0.861765
0.861922
0.862046
0.862119
0.862268
0.86247
0.862649
0.862783
0.862876
0.862941
0.862997
0.863036
0.863052
0.863048
0.86303
0.863006
0.86301
0.86304
0.863073
0.863057
0.862978
0.862836
0.862629
0.862607
0.862852
0.863055
0.863152
0.863235
0.863283
0.863302
0.863304
0.863298
0.863291
0.863284
0.863279
0.863277
0.861699
0.861668
0.861627
0.861601
0.861596
0.861621
0.861682
0.861783
0.86191
0.862025
0.862117
0.86222
0.862357
0.862513
0.862653
0.862765
0.862848
0.862912
0.862964
0.863003
0.863028
0.863044
0.863057
0.863066
0.863077
0.863099
0.863101
0.863065
0.862989
0.862873
0.862723
0.862696
0.862876
0.863074
0.863195
0.863248
0.863272
0.863282
0.863284
0.863281
0.863277
0.863273
0.863269
0.863267
0.861719
0.861705
0.861691
0.861689
0.861703
0.861738
0.861793
0.861864
0.861951
0.862055
0.86216
0.862267
0.862389
0.862517
0.862636
0.862735
0.862814
0.862875
0.862924
0.862962
0.862993
0.863022
0.863046
0.863054
0.863058
0.863063
0.863064
0.86304
0.862985
0.862905
0.862807
0.862803
0.862962
0.863106
0.863175
0.863213
0.863239
0.863254
0.863262
0.863264
0.863264
0.863263
0.863263
0.863262
0.861749
0.861756
0.861757
0.861756
0.861763
0.861783
0.861819
0.861874
0.861948
0.862036
0.862128
0.862223
0.862323
0.86243
0.862538
0.862638
0.862725
0.862798
0.862858
0.86291
0.862959
0.863006
0.863045
0.863064
0.863072
0.863077
0.863081
0.863075
0.863051
0.863011
0.862961
0.862915
0.862934
0.863036
0.863122
0.863174
0.863205
0.863226
0.863239
0.863247
0.863251
0.863254
0.863255
0.863256
0.863255
0.861761
0.861777
0.86179
0.861804
0.861822
0.86185
0.861888
0.861941
0.862005
0.862082
0.862166
0.862257
0.862352
0.86245
0.862546
0.862635
0.862715
0.862788
0.862853
0.862914
0.862966
0.863005
0.86303
0.863046
0.863055
0.86306
0.863063
0.863061
0.863051
0.863031
0.863009
0.862992
0.863014
0.863074
0.863125
0.863164
0.863192
0.863212
0.863226
0.863235
0.863241
0.863245
0.863248
0.86325
0.863251
0.861784
0.861807
0.861824
0.861846
0.861869
0.861902
0.861944
0.861998
0.862063
0.862138
0.86222
0.862307
0.862396
0.862488
0.862577
0.862663
0.862743
0.862816
0.862879
0.862931
0.862972
0.863005
0.863031
0.863047
0.863058
0.863065
0.863069
0.863067
0.86306
0.86305
0.86304
0.863038
0.863056
0.863095
0.863131
0.863161
0.861798
0.861828
0.861849
0.861877
0.861904
0.86194
0.861984
0.862038
0.862101
0.862173
0.862252
0.862336
0.862423
0.862511
0.862596
0.862676
0.86275
0.862816
0.862873
0.862922
0.862963
0.862995
0.863019
0.863036
0.863048
0.863056
0.863061
0.863064
0.863063
0.863061
0.863059
0.863063
0.863079
0.863107
0.863135
0.861809
0.861841
0.861863
0.861896
0.861926
0.861964
0.86201
0.862064
0.862128
0.862199
0.862277
0.862358
0.862443
0.862527
0.862609
0.862687
0.862759
0.862823
0.862878
0.862925
0.862963
0.862993
0.863017
0.863035
0.863048
0.863057
0.863063
0.863066
0.863067
0.863068
0.86307
0.863078
0.863093
0.863115
0.863138
0.861806
0.861843
0.861867
0.861901
0.861936
0.861972
0.86202
0.862075
0.86214
0.86221
0.862288
0.862369
0.862452
0.862535
0.862616
0.862693
0.862762
0.862825
0.862878
0.862924
0.862961
0.862991
0.863014
0.863032
0.863045
0.863054
0.863061
0.863065
0.863068
0.863071
0.863076
0.863085
0.8631
0.863121
0.863142
0.861757
0.861684
0.86155
0.861427
0.861295
0.861256
0.861438
0.861621
0.861649
0.861696
0.861731
0.861711
0.862042
0.862583
0.862843
0.862897
0.862912
0.862972
0.863098
0.863198
0.863154
0.86301
0.862893
0.862862
0.862911
0.86299
0.863056
0.863072
0.863017
0.862844
0.862573
0.862535
0.862798
0.862973
0.863143
0.863395
0.863511
0.863459
0.8634
0.863355
0.863324
0.863306
0.863295
0.86329
0.861672
0.861568
0.861407
0.861303
0.861209
0.861233
0.861461
0.861557
0.861508
0.8617
0.861906
0.8619
0.862097
0.862452
0.862683
0.862826
0.862947
0.863013
0.863021
0.863081
0.863122
0.863084
0.862997
0.862946
0.862967
0.863022
0.863048
0.863039
0.862956
0.862756
0.862478
0.862511
0.862858
0.863089
0.863141
0.863283
0.863379
0.863378
0.863357
0.863333
0.863313
0.863299
0.863291
0.863287
0.86168
0.86165
0.861574
0.861476
0.861412
0.86137
0.861382
0.861477
0.861616
0.86179
0.861901
0.861926
0.861994
0.862204
0.862486
0.862695
0.862822
0.862895
0.862964
0.863046
0.863098
0.863102
0.863079
0.86305
0.863032
0.863039
0.863064
0.863075
0.86305
0.862967
0.862784
0.862521
0.862548
0.862862
0.863098
0.863191
0.863289
0.863338
0.863343
0.863332
0.863316
0.863302
0.863291
0.863284
0.863282
0.861693
0.861665
0.861608
0.861541
0.861499
0.86149
0.861534
0.861618
0.861684
0.861752
0.861887
0.862007
0.8621
0.86226
0.86246
0.862637
0.862774
0.86287
0.862935
0.862993
0.863035
0.863052
0.86305
0.863034
0.863017
0.86302
0.863042
0.863065
0.863048
0.862975
0.86284
0.862654
0.862653
0.862882
0.863061
0.863152
0.86323
0.863276
0.863294
0.863297
0.863293
0.863287
0.863281
0.863277
0.863275
0.861694
0.861666
0.861631
0.861609
0.861605
0.861634
0.861695
0.861786
0.861894
0.861996
0.862091
0.862203
0.862347
0.862503
0.862644
0.862759
0.862846
0.862914
0.862971
0.863011
0.863035
0.863047
0.863055
0.863063
0.863072
0.863088
0.863087
0.863056
0.862988
0.862884
0.862755
0.862747
0.862913
0.863084
0.863185
0.863236
0.863263
0.863275
0.863279
0.863277
0.863274
0.863271
0.863268
0.863266
0.861715
0.861704
0.861692
0.86169
0.861704
0.861738
0.86179
0.861856
0.861937
0.862036
0.86214
0.862251
0.862377
0.862509
0.862631
0.862735
0.862817
0.862882
0.862934
0.862973
0.862999
0.863023
0.863044
0.863051
0.863056
0.863061
0.863061
0.863039
0.862992
0.862924
0.862847
0.862859
0.862992
0.863106
0.863167
0.863208
0.863235
0.86325
0.863259
0.863262
0.863262
0.863262
0.863261
0.863261
0.861739
0.861748
0.861751
0.861752
0.86176
0.861781
0.861817
0.86187
0.86194
0.862024
0.862115
0.86221
0.862313
0.862424
0.862535
0.86264
0.862731
0.862807
0.86287
0.862922
0.862966
0.863007
0.863041
0.863059
0.863068
0.863074
0.863078
0.863072
0.863052
0.863019
0.862979
0.862944
0.862966
0.863051
0.86312
0.863169
0.863201
0.863223
0.863236
0.863245
0.86325
0.863252
0.863253
0.863255
0.863254
0.861752
0.86177
0.861785
0.861799
0.861817
0.861845
0.861883
0.861934
0.861998
0.862073
0.862157
0.862249
0.862347
0.862448
0.862548
0.862641
0.862724
0.862797
0.862861
0.862918
0.862966
0.863002
0.863027
0.863043
0.863053
0.86306
0.863063
0.863062
0.863053
0.863037
0.863019
0.863006
0.863027
0.863079
0.863125
0.863162
0.86319
0.86321
0.863224
0.863234
0.86324
0.863244
0.863247
0.86325
0.86325
0.861774
0.8618
0.861819
0.861841
0.861865
0.861898
0.86194
0.861992
0.862057
0.862131
0.862213
0.862301
0.862393
0.862486
0.862578
0.862665
0.862746
0.862817
0.862878
0.862929
0.86297
0.863003
0.863028
0.863045
0.863057
0.863065
0.863069
0.863068
0.863063
0.863054
0.863047
0.863046
0.863063
0.863098
0.863131
0.863161
0.861789
0.861822
0.861844
0.861873
0.861902
0.861937
0.861981
0.862034
0.862097
0.862169
0.862248
0.862333
0.862421
0.86251
0.862596
0.862677
0.862751
0.862817
0.862874
0.862922
0.862963
0.862994
0.863018
0.863035
0.863048
0.863057
0.863062
0.863065
0.863065
0.863064
0.863063
0.863068
0.863084
0.863109
0.863136
0.861799
0.861837
0.861857
0.861892
0.861925
0.86196
0.862009
0.862061
0.862126
0.862196
0.862274
0.862357
0.862442
0.862527
0.86261
0.862688
0.862759
0.862823
0.862878
0.862925
0.862962
0.862993
0.863017
0.863035
0.863048
0.863057
0.863064
0.863067
0.863069
0.86307
0.863074
0.863081
0.863096
0.863117
0.86314
0.861794
0.861834
0.861867
0.861896
0.861932
0.861971
0.862019
0.862074
0.862138
0.862208
0.862286
0.862368
0.862452
0.862536
0.862617
0.862693
0.862763
0.862825
0.862879
0.862924
0.862961
0.862991
0.863015
0.863032
0.863045
0.863055
0.863062
0.863067
0.86307
0.863073
0.863078
0.863088
0.863103
0.863123
0.863143
0.861761
0.861693
0.861566
0.861435
0.861284
0.861251
0.861462
0.861635
0.86162
0.861646
0.861726
0.8618
0.862125
0.862608
0.862828
0.862885
0.862898
0.862956
0.863133
0.863251
0.863169
0.863018
0.862928
0.862911
0.862939
0.862998
0.863063
0.8631
0.863064
0.862862
0.862546
0.862481
0.862741
0.862943
0.863145
0.863376
0.863455
0.863417
0.863375
0.86334
0.863315
0.8633
0.86329
0.863286
0.861676
0.861579
0.861438
0.861329
0.86121
0.861245
0.861504
0.861598
0.861507
0.861625
0.861852
0.861929
0.862122
0.862419
0.862671
0.862857
0.862972
0.862968
0.862986
0.863117
0.863127
0.863074
0.86301
0.862974
0.862985
0.863021
0.863048
0.863049
0.862985
0.862782
0.86248
0.862479
0.862823
0.863065
0.863147
0.863289
0.863355
0.863356
0.863341
0.863322
0.863306
0.863294
0.863287
0.863284
0.861679
0.861655
0.861586
0.861499
0.861437
0.861391
0.861417
0.861537
0.861661
0.861761
0.861823
0.861881
0.861997
0.862218
0.862478
0.862678
0.862809
0.862889
0.862961
0.863045
0.863098
0.863097
0.863074
0.86305
0.863037
0.863043
0.863062
0.863074
0.863054
0.862979
0.862811
0.862581
0.862613
0.862888
0.863089
0.863184
0.863277
0.86332
0.863328
0.86332
0.863307
0.863296
0.863287
0.863281
0.863279
0.861692
0.861669
0.86162
0.861564
0.861524
0.861511
0.861551
0.861629
0.861685
0.861733
0.861848
0.861967
0.862075
0.862244
0.862444
0.862625
0.862768
0.862865
0.86293
0.862993
0.863038
0.863054
0.863052
0.863039
0.863028
0.863031
0.863046
0.86306
0.863043
0.862979
0.862864
0.862716
0.862732
0.862921
0.863066
0.863152
0.863226
0.863267
0.863286
0.86329
0.863287
0.863282
0.863278
0.863274
0.863273
0.861691
0.861667
0.861636
0.861617
0.861615
0.861644
0.861703
0.861781
0.861871
0.861964
0.862063
0.862183
0.862333
0.862491
0.862636
0.862755
0.862846
0.862918
0.862976
0.863018
0.863042
0.863054
0.863061
0.863066
0.863072
0.863081
0.863078
0.863051
0.862993
0.862908
0.862809
0.862818
0.862956
0.863093
0.863176
0.863226
0.863255
0.863268
0.863273
0.863273
0.863271
0.863268
0.863266
0.863264
0.861711
0.861703
0.861694
0.861692
0.861704
0.861736
0.861785
0.861846
0.861921
0.862016
0.862119
0.862233
0.862365
0.8625
0.862627
0.862736
0.862821
0.862889
0.862943
0.862983
0.86301
0.863031
0.863045
0.863052
0.863056
0.86306
0.863059
0.863041
0.863003
0.86295
0.862894
0.862913
0.863019
0.863106
0.863162
0.863203
0.86323
0.863246
0.863255
0.863259
0.86326
0.86326
0.86326
0.863259
0.86173
0.861742
0.861747
0.86175
0.861759
0.86178
0.861815
0.861866
0.861932
0.862012
0.862101
0.862197
0.862303
0.862417
0.862532
0.86264
0.862735
0.862815
0.862879
0.862933
0.862977
0.863014
0.863041
0.863057