/*--------------------------------*- C++ -*----------------------------------*\
| =========                 |                                                 |
| \\      /  F ield         | OpenFOAM: The Open Source CFD Toolbox           |
|  \\    /   O peration     | Version:  2.3.1                                 |
|   \\  /    A nd           | Web:      www.OpenFOAM.org                      |
|    \\/     M anipulation  |                                                 |
\*---------------------------------------------------------------------------*/
FoamFile
{
    version     2.0;
    format      ascii;
    class       surfaceScalarField;
    location    "15";
    object      phi;
}
// * * * * * * * * * * * * * * * * * * * * * * * * * * * * * * * * * * * * * //

dimensions      [0 3 -1 0 0 0 0];

internalField   nonuniform List<scalar> 
109568
(
2.10675e-05
-9.92278e-07
-1.49146e-06
2.4006e-05
-1.36753e-06
-1.571e-06
2.55907e-05
-1.59265e-06
8.01335e-09
2.56017e-05
-1.28249e-06
1.27148e-06
2.58868e-05
-4.80776e-07
1.95645e-07
2.63206e-05
1.92492e-07
-6.26259e-07
2.63732e-05
4.04321e-07
-4.56904e-07
2.7167e-05
6.4466e-07
-1.43852e-06
2.92625e-05
1.63031e-06
-3.7258e-06
3.21923e-05
1.47216e-06
-4.40193e-06
3.59437e-05
-7.02341e-07
-3.04911e-06
3.79746e-05
-1.75214e-06
-2.78698e-07
3.41938e-05
-2.05193e-07
3.98593e-06
2.75251e-05
1.21387e-06
5.45487e-06
2.37898e-05
1.17149e-06
2.5638e-06
2.2382e-05
7.8421e-07
6.23561e-07
2.0657e-05
3.14152e-07
1.41092e-06
1.95292e-05
-4.31423e-07
1.55916e-06
1.97866e-05
-4.88331e-07
2.30995e-07
2.02284e-05
1.35994e-07
-5.77839e-07
2.08273e-05
4.18285e-07
-1.01716e-06
2.11756e-05
5.76956e-07
-9.25308e-07
2.11076e-05
-2.95587e-07
3.6359e-07
2.25979e-05
-2.04616e-06
5.55887e-07
2.38552e-05
-5.69977e-07
-6.87328e-07
2.19001e-05
2.47931e-06
-5.24196e-07
1.9578e-05
1.01734e-06
1.30474e-06
1.79433e-05
-3.27464e-07
1.96213e-06
1.59143e-05
1.22856e-06
8.00493e-07
1.56812e-05
1.61487e-07
7.16325e-08
1.68829e-05
-1.88502e-06
6.83322e-07
1.61409e-05
-1.42097e-06
2.16292e-06
1.43787e-05
-1.32786e-06
3.09005e-06
1.45118e-05
-1.79562e-06
1.66258e-06
1.44883e-05
-3.43266e-07
3.66728e-07
1.10553e-05
2.31566e-06
1.11736e-06
6.34581e-06
2.97455e-06
1.73493e-06
3.32396e-06
1.78775e-06
1.23409e-06
1.8357e-06
8.52347e-07
6.35913e-07
1.07412e-06
4.24156e-07
3.37425e-07
6.3908e-07
2.34471e-07
2.0057e-07
3.61216e-07
1.45155e-07
1.32708e-07
1.6131e-07
1.01642e-07
9.82637e-08
8.14698e-08
7.98406e-08
8.40887e-06
-1.71819e-06
-4.27094e-07
9.17983e-06
-1.78187e-06
-3.56627e-07
1.02343e-05
-1.56669e-06
-1.08045e-06
1.14259e-05
-7.03095e-07
-1.77103e-06
1.21181e-05
-3.05715e-08
-1.14236e-06
1.29263e-05
-3.64532e-07
-2.51129e-07
1.43088e-05
-4.98389e-07
-4.79879e-07
1.71024e-05
-1.27022e-08
-2.13624e-06
1.92168e-05
1.27055e-06
-1.75457e-06
1.50909e-05
2.0106e-06
3.58739e-06
7.37055e-06
4.5498e-07
6.56307e-06
3.11447e-06
-8.6983e-07
3.37376e-06
2.43895e-06
9.97356e-09
4.60353e-07
3.20179e-06
1.01839e-06
-5.67357e-07
4.20159e-06
1.0504e-06
-8.78711e-07
4.74504e-06
6.8959e-07
-4.4883e-07
4.94833e-06
3.12738e-07
-2.01875e-07
5.37574e-06
1.09988e-07
-9.68821e-07
6.32742e-06
4.10639e-07
-1.85065e-06
7.44617e-06
9.93562e-07
-1.97632e-06
8.06516e-06
1.35142e-06
-1.55212e-06
7.84937e-06
1.62052e-06
-8.27773e-07
7.47478e-06
1.43583e-06
-1.35682e-06
8.56709e-06
7.03244e-07
-3.84171e-06
1.06566e-05
1.62614e-06
-4.28567e-06
1.09887e-05
3.59796e-06
-1.45071e-06
1.00587e-05
1.84992e-06
9.7434e-08
1.1868e-05
-1.83443e-06
-3.02298e-07
1.49699e-05
-1.92439e-06
5.10542e-08
1.52119e-05
-1.40649e-06
1.32593e-06
1.44764e-05
-3.7201e-06
2.57054e-06
1.40443e-05
-4.45864e-06
3.46982e-06
1.14008e-05
-1.93352e-06
3.24917e-06
7.27547e-06
6.66953e-07
1.66273e-06
4.26723e-06
2.22389e-06
4.41086e-07
2.81556e-06
3.06933e-06
6.9801e-07
2.20134e-06
2.62976e-06
9.59011e-07
1.69451e-06
1.61186e-06
6.82713e-07
1.20163e-06
9.22244e-07
4.22984e-07
8.13609e-07
5.44466e-07
2.67714e-07
5.27496e-07
3.42188e-07
1.78396e-07
3.10825e-07
2.33837e-07
1.2799e-07
1.39581e-07
1.75627e-07
9.72592e-08
1.49024e-07
7.20268e-08
-1.21697e-06
-2.39162e-06
-4.3526e-07
-1.45409e-08
-2.45385e-06
-4.66769e-07
1.23602e-06
-2.51657e-06
-5.1586e-07
2.51633e-06
-2.26904e-06
-5.7795e-07
3.89892e-06
-1.64486e-06
-4.40828e-07
5.1029e-06
-1.13176e-06
-1.02787e-07
6.18119e-06
-7.99294e-07
-6.43524e-07
7.60522e-06
-2.17896e-07
-1.70453e-06
6.98015e-06
7.18044e-07
-1.05669e-07
2.89305e-06
1.83832e-06
3.51933e-06
-1.14022e-06
1.99816e-06
4.04571e-06
-2.83785e-06
7.90425e-07
1.36219e-06
-3.13082e-06
8.05994e-08
-6.57462e-07
-2.39963e-06
6.11153e-07
-1.33237e-06
-1.24504e-06
1.24416e-06
-1.38035e-06
-3.75499e-07
1.34168e-06
-1.16082e-06
1.20215e-07
1.20654e-06
-1.01266e-06
5.60482e-07
1.13817e-06
-1.2657e-06
1.26257e-06
1.27268e-06
-1.86478e-06
2.28329e-06
1.66492e-06
-2.27499e-06
3.45054e-06
2.05524e-06
-2.22893e-06
4.38474e-06
2.37307e-06
-1.95585e-06
5.08338e-06
2.61702e-06
-1.69514e-06
5.99786e-06
2.19834e-06
-1.677e-06
7.00607e-06
1.53715e-06
-1.8421e-06
7.93445e-06
2.616e-06
-1.91825e-06
9.04909e-06
4.14038e-06
-1.65706e-06
9.84889e-06
2.23012e-06
-1.18e-06
1.01811e-05
-1.26911e-06
-8.97496e-07
1.05517e-05
-2.2776e-06
-1.74771e-08
1.14997e-05
-2.52036e-06
1.65878e-07
1.27663e-05
-4.09692e-06
-8.89695e-07
1.0527e-05
-2.37023e-06
1.50839e-07
5.05155e-06
2.0932e-06
1.44873e-06
1.84854e-06
2.85963e-06
1.01033e-06
1.39379e-06
1.86202e-06
8.1662e-07
1.53524e-06
1.99116e-06
9.36721e-07
1.54127e-06
1.82838e-06
7.95357e-07
1.28459e-06
1.31447e-06
5.54069e-07
9.57876e-07
8.86781e-07
3.62177e-07
6.71069e-07
5.92967e-07
2.38306e-07
4.45472e-07
4.04737e-07
1.63048e-07
2.68297e-07
2.92103e-07
1.18909e-07
1.23249e-07
2.32254e-07
8.8421e-08
2.11417e-07
6.08565e-08
-4.7787e-06
-6.65985e-07
-3.83648e-06
-2.42475e-06
-9.7132e-07
-2.85745e-06
-2.64179e-06
-8.53817e-07
-1.81706e-06
-2.41556e-06
-8.93872e-07
-9.14056e-07
-1.97022e-06
-5.7765e-07
-8.27915e-07
-1.36372e-06
1.45819e-07
-1.93516e-06
-6.50856e-07
9.58811e-07
-3.85445e-06
2.83755e-07
1.41764e-06
-5.73634e-06
1.2848e-06
1.31512e-06
-6.45658e-06
1.69082e-06
8.67744e-07
-5.94661e-06
1.51167e-06
-2.34788e-08
-5.30405e-06
1.12656e-06
-9.78692e-07
-4.8106e-06
1.16427e-06
-1.57712e-06
-4.01354e-06
1.62909e-06
-1.81501e-06
-2.96306e-06
2.07321e-06
-1.87953e-06
-1.98405e-06
2.30751e-06
-1.94483e-06
-1.17226e-06
2.44853e-06
-2.05379e-06
-4.03618e-07
2.62619e-06
-2.25666e-06
5.01515e-07
2.92087e-06
-2.55332e-06
1.61886e-06
3.33918e-06
-2.79161e-06
2.54881e-06
3.82977e-06
-2.70447e-06
2.92086e-06
4.33246e-06
-2.33144e-06
3.23745e-06
4.48732e-06
-2.18689e-06
3.88375e-06
3.6269e-06
-2.07486e-06
4.92717e-06
2.60317e-06
-2.10945e-06
7.09582e-06
2.60987e-06
-2.16252e-06
9.42403e-06
2.70766e-06
-8.95491e-07
9.5765e-06
1.34472e-06
7.32936e-07
8.52392e-06
-3.5569e-07
1.39158e-07
8.81395e-06
-1.25079e-06
-1.31684e-06
1.0035e-05
-1.92031e-06
-1.82113e-06
9.7434e-06
-2.05191e-06
-1.75337e-06
7.39796e-06
6.79031e-07
-7.03817e-07
5.16641e-06
3.78249e-06
5.4227e-07
3.7495e-06
3.36113e-06
9.15413e-07
2.40832e-06
2.23694e-06
9.66258e-07
1.61608e-06
1.90933e-06
8.74075e-07
1.20986e-06
1.5615e-06
6.73098e-07
9.16504e-07
1.15949e-06
4.48328e-07
6.83785e-07
8.28186e-07
2.91314e-07
4.93532e-07
5.86538e-07
1.96682e-07
3.3671e-07
4.2172e-07
1.39839e-07
2.03845e-07
3.19992e-07
1.04975e-07
9.19847e-08
2.6641e-07
7.77052e-08
2.57367e-07
4.60342e-08
-9.3168e-06
-1.39629e-06
-7.29099e-07
-9.51608e-06
-1.77291e-06
-6.69598e-07
-9.32223e-06
-1.36721e-06
-1.24219e-06
-9.10751e-06
-1.08047e-06
-1.10447e-06
-8.96282e-06
-4.32286e-07
-1.07612e-06
-8.85334e-06
1.11213e-07
-8.71546e-07
-8.69789e-06
7.28131e-07
-5.99832e-07
-8.04698e-06
1.18868e-06
-5.54785e-07
-7.08902e-06
1.57976e-06
-8.46896e-07
-6.22646e-06
1.82465e-06
-1.17554e-06
-5.53664e-06
1.92805e-06
-1.49132e-06
-4.80699e-06
2.15897e-06
-1.72435e-06
-3.88609e-06
2.56257e-06
-1.85437e-06
-2.85254e-06
2.95256e-06
-1.9129e-06
-1.85049e-06
3.25049e-06
-1.94503e-06
-9.14709e-07
3.50892e-06
-1.99617e-06
2.02795e-08
3.80053e-06
-2.10933e-06
9.96176e-07
4.17238e-06
-2.2274e-06
1.75528e-06
4.60711e-06
-2.02704e-06
2.0305e-06
5.10043e-06
-1.54588e-06
2.59209e-06
5.30452e-06
-1.53365e-06
3.94926e-06
4.42556e-06
-1.2954e-06
4.89941e-06
2.57216e-06
1.04588e-07
4.79348e-06
1.26525e-06
1.44386e-06
4.41891e-06
8.51445e-07
2.13298e-06
4.30481e-06
5.63212e-07
2.25855e-06
4.61394e-06
4.67975e-08
9.88798e-07
5.40807e-06
-3.03508e-07
-8.4632e-07
6.4537e-06
-4.06812e-07
-1.8896e-06
7.2491e-06
-5.66995e-07
-2.14871e-06
7.3797e-06
-4.76025e-07
-1.70648e-06
7.07778e-06
1.41845e-06
-4.37499e-07
6.4441e-06
3.47179e-06
9.44374e-07
4.84635e-06
3.52886e-06
1.43003e-06
2.91252e-06
2.94036e-06
1.2304e-06
1.68221e-06
2.20937e-06
9.30263e-07
1.05749e-06
1.55563e-06
6.30593e-07
7.24313e-07
1.10182e-06
3.90851e-07
5.1841e-07
7.86546e-07
2.47544e-07
3.71726e-07
5.66454e-07
1.66769e-07
2.62726e-07
4.12432e-07
1.18289e-07
1.80904e-07
3.13507e-07
8.83064e-08
1.41089e-07
2.42294e-07
6.393e-08
2.22311e-07
4.36081e-08
3.8473e-08
3.98648e-08
3.95995e-08
4.86346e-09
4.92857e-09
4.80758e-09
-9.86276e-06
-5.49573e-07
-6.48764e-07
-1.00618e-05
-7.18403e-07
-8.55465e-07
-1.00768e-05
-3.13477e-07
-1.03871e-06
-1.0022e-05
2.83463e-09
-1.13812e-06
-9.72499e-06
4.61914e-07
-1.19123e-06
-9.29752e-06
9.47366e-07
-1.26362e-06
-8.74889e-06
1.53186e-06
-1.35236e-06
-8.0985e-06
2.03506e-06
-1.49676e-06
-7.32209e-06
2.4216e-06
-1.61825e-06
-6.45111e-06
2.72231e-06
-1.76865e-06
-5.58276e-06
3.00225e-06
-1.94254e-06
-4.6833e-06
3.34638e-06
-2.08688e-06
-3.68602e-06
3.74431e-06
-2.17903e-06
-2.63589e-06
4.12404e-06
-2.22162e-06
-1.62017e-06
4.45821e-06
-2.22343e-06
-6.96566e-07
4.75729e-06
-2.17197e-06
1.09173e-07
5.0406e-06
-2.04581e-06
7.57884e-07
5.29151e-06
-1.76784e-06
1.23822e-06
5.50236e-06
-1.37559e-06
2.15811e-06
5.48564e-06
-1.30511e-06
3.65241e-06
4.65324e-06
-8.4302e-07
3.85977e-06
2.93918e-06
1.27901e-06
2.38328e-06
1.2266e-06
2.82204e-06
1.15865e-06
2.83547e-07
2.20633e-06
8.71046e-07
-6.18376e-08
1.20088e-06
1.19847e-06
-2.1149e-07
4.47281e-07
1.90888e-06
-4.40632e-07
-2.22987e-07
2.85996e-06
-6.01912e-07
-6.52674e-07
3.85358e-06
-5.22344e-07
-8.78084e-07
4.46969e-06
-2.19763e-07
-9.6335e-07
4.3251e-06
5.3974e-07
-8.7117e-07
3.67958e-06
2.16498e-06
-1.01014e-07
2.8464e-06
3.58075e-06
7.24224e-07
1.89509e-06
3.60488e-06
8.75283e-07
1.17659e-06
2.8207e-06
8.38166e-07
7.69403e-07
1.94158e-06
6.7498e-07
5.41768e-07
1.34005e-06
4.43221e-07
4.07285e-07
9.55453e-07
2.80846e-07
3.12024e-07
6.93818e-07
1.87988e-07
2.34282e-07
5.1116e-07
1.33036e-07
1.67983e-07
3.80308e-07
9.84223e-08
1.11934e-07
2.94081e-07
7.54749e-08
8.16916e-08
2.16953e-07
5.55844e-08
1.8862e-07
4.23444e-08
2.21644e-08
2.16652e-08
2.11677e-08
2.86715e-09
2.68704e-09
2.48665e-09
-9.30947e-06
-1.55084e-06
-4.83785e-07
-8.96232e-06
-4.76459e-07
-4.20261e-07
-8.65746e-06
-5.58829e-07
-4.6444e-07
-8.73824e-06
3.39972e-07
-5.72662e-07
-8.72194e-06
6.75577e-07
-6.89046e-07
-8.64369e-06
1.28679e-06
-9.03128e-07
-8.45184e-06
1.7848e-06
-1.02929e-06
-8.04709e-06
2.31143e-06
-1.18433e-06
-7.48633e-06
2.79611e-06
-1.32181e-06
-6.81375e-06
3.24214e-06
-1.49312e-06
-6.08711e-06
3.64791e-06
-1.65224e-06
-5.31996e-06
4.0348e-06
-1.7997e-06
-4.49175e-06
4.4302e-06
-1.91203e-06
-3.59946e-06
4.81648e-06
-1.96446e-06
-2.67545e-06
5.14768e-06
-1.94765e-06
-1.7503e-06
5.38684e-06
-1.85378e-06
-8.35632e-07
5.51597e-06
-1.67335e-06
1.02756e-07
5.51195e-06
-1.40974e-06
1.16222e-06
5.31997e-06
-1.08793e-06
2.54425e-06
4.86537e-06
-7.4503e-07
3.79162e-06
4.14056e-06
9.77109e-08
3.3377e-06
3.02163e-06
2.08553e-06
1.41634e-06
1.73731e-06
3.12324e-06
-5.11552e-08
7.31774e-07
1.96232e-06
-6.2327e-07
7.93564e-08
7.76305e-07
-7.4943e-07
-3.06346e-07
3.70668e-07
-6.21501e-07
-5.54791e-07
2.15373e-07
-3.91452e-07
-7.30054e-07
5.93722e-08
-1.37272e-07
-7.70587e-07
-8.55051e-08
7.92431e-08
-5.91245e-07
-1.47614e-07
1.06885e-07
-1.31333e-07
-1.16072e-07
-6.13335e-08
6.85061e-07
2.28967e-08
-1.63452e-07
1.94677e-06
3.20329e-07
-1.4424e-08
2.83199e-06
5.99736e-07
2.00519e-07
2.67824e-06
7.11696e-07
2.9898e-07
2.05002e-06
6.72222e-07
2.87787e-07
1.46749e-06
4.85282e-07
2.44874e-07
1.06701e-06
3.15954e-07
2.0324e-07
7.87144e-07
2.09943e-07
1.64962e-07
5.85373e-07
1.46723e-07
1.2886e-07
4.39866e-07
1.07396e-07
9.40848e-08
3.33428e-07
8.16548e-08
6.20832e-08
2.61902e-07
6.41807e-08
2.64633e-08
2.0521e-07
4.73627e-08
1.75067e-07
3.94476e-08
6.92362e-10
1.83937e-11
-3.45464e-10
2.52717e-10
5.00769e-11
-9.91282e-11
-1.04418e-05
-1.65901e-06
-6.48319e-07
-9.57597e-06
-6.81153e-07
-6.61149e-07
-8.83574e-06
-8.95212e-07
-4.03846e-07
-8.28483e-06
1.67608e-07
-3.78547e-07
-7.58872e-06
3.23083e-07
-3.43612e-07
-7.19829e-06
1.15651e-06
-2.60151e-07
-6.63622e-06
1.62082e-06
-3.98088e-07
-6.14653e-06
2.24985e-06
-4.28107e-07
-5.56069e-06
2.76761e-06
-5.57337e-07
-4.93221e-06
3.2704e-06
-6.56738e-07
-4.23083e-06
3.71367e-06
-7.67134e-07
-3.45816e-06
4.12391e-06
-8.61779e-07
-2.60178e-06
4.49878e-06
-9.24955e-07
-1.65964e-06
4.80327e-06
-9.2893e-07
-6.53827e-07
5.00011e-06
-8.58238e-07
3.86376e-07
5.05646e-06
-7.0982e-07
1.45654e-06
4.91297e-06
-4.67159e-07
2.50475e-06
4.55084e-06
-8.71041e-08
3.21885e-06
4.00003e-06
6.05837e-07
3.02803e-06
3.3424e-06
1.71379e-06
1.72928e-06
2.64045e-06
2.79886e-06
1.75761e-07
1.84483e-06
2.73032e-06
-6.72401e-07
1.06041e-06
1.52506e-06
-9.26211e-07
4.20535e-07
5.65049e-07
-1.01312e-06
1.61208e-08
1.50148e-07
-1.09163e-06
-2.25993e-07
-1.84952e-09
-1.1911e-06
-4.00945e-07
-5.43705e-08
-1.31015e-06
-5.4609e-07
-6.49153e-08
-1.4417e-06
-5.94626e-07
-4.44082e-08
-1.57881e-06
-4.58648e-07
4.50434e-09
-1.7024e-06
-8.94457e-08
8.17082e-08
-1.72751e-06
5.31469e-07
1.78702e-07
-1.4434e-06
1.33239e-06
3.30267e-07
-8.98116e-07
1.80949e-06
4.77208e-07
-4.34208e-07
1.69798e-06
5.16352e-07
-1.7912e-07
1.36746e-06
4.27472e-07
-5.92193e-08
3.01303e-07
-1.84779e-10
2.10365e-07
2.95695e-08
1.50739e-07
3.97829e-08
1.12296e-07
3.85069e-08
8.60722e-08
2.50757e-08
6.85487e-08
9.12035e-09
5.59349e-08
-2.55854e-08
4.14715e-08
3.76722e-08
-1.60314e-08
-1.6603e-08
-1.61449e-08
-1.84342e-09
-1.98445e-09
-1.9866e-09
-1.15292e-05
-1.22213e-06
-8.51625e-07
-1.07775e-05
-7.99303e-07
-6.33471e-07
-1.02003e-05
-8.66207e-07
-6.06262e-07
-9.43336e-06
-2.52685e-07
-3.46627e-07
-8.63498e-06
-1.71504e-07
-3.0379e-07
-7.8307e-06
4.32573e-07
-8.03459e-08
-6.95678e-06
7.65872e-07
-1.89732e-08
-6.07878e-06
1.26755e-06
1.04298e-07
-5.15842e-06
1.69737e-06
1.49874e-07
-4.22454e-06
2.12571e-06
2.1081e-07
-3.26922e-06
2.50441e-06
2.53947e-07
-2.28874e-06
2.8406e-06
3.02828e-07
-1.29437e-06
3.13472e-06
3.69687e-07
-3.23447e-07
3.35139e-06
4.80951e-07
5.55524e-07
3.46897e-06
6.52162e-07
1.21352e-06
3.46763e-06
9.30837e-07
1.47928e-06
3.29161e-06
1.35559e-06
1.19506e-06
2.95329e-06
1.88177e-06
4.19558e-07
2.48512e-06
2.29041e-06
-4.89978e-07
2.00721e-06
2.24473e-06
-1.11528e-06
1.54079e-06
1.72496e-06
-1.31226e-06
1.03071e-06
1.0111e-06
-1.2674e-06
5.61781e-07
4.53766e-07
-1.21598e-06
2.21377e-07
1.47738e-07
-1.19005e-06
-1.54089e-08
5.59752e-09
-1.18651e-06
-1.77888e-07
-5.16423e-08
-1.22261e-06
-2.95176e-07
-6.96714e-08
-1.33055e-06
-3.73826e-07
-6.43182e-08
-1.50159e-06
-3.91966e-07
-3.1625e-08
-1.6846e-06
-3.03696e-07
2.8059e-08
-1.80339e-06
-7.50089e-08
1.04359e-07
-1.76301e-06
3.01851e-07
1.89235e-07
-1.46556e-06
7.55573e-07
2.79374e-07
-1.01889e-06
1.02023e-06
3.42584e-07
-6.47118e-07
1.0017e-06
3.24513e-07
2.60449e-07
-1.18273e-05
-4.45501e-07
-1.05199e-06
-1.12845e-05
-6.57342e-07
-6.84711e-07
-1.09719e-05
-4.97072e-07
-6.81735e-07
-1.05505e-05
-2.5297e-07
-4.2115e-07
-9.92264e-06
-2.96913e-07
-5.02452e-07
-9.45603e-06
5.59832e-08
-9.0017e-08
-8.69961e-06
1.67627e-07
-1.58181e-07
-8.01341e-06
4.37771e-07
1.43583e-07
-7.18955e-06
6.5699e-07
2.16529e-07
-6.36055e-06
8.91517e-07
4.05188e-07
-5.49871e-06
1.1093e-06
5.33273e-07
-4.65095e-06
1.31257e-06
6.80264e-07
-3.85068e-06
1.49657e-06
8.37884e-07
-3.15839e-06
1.64235e-06
1.01675e-06
-2.64276e-06
1.74053e-06
1.21281e-06
-2.35396e-06
1.76816e-06
1.41067e-06
-2.28434e-06
1.68877e-06
1.53322e-06
-2.32432e-06
1.51444e-06
1.47884e-06
-2.33509e-06
1.26978e-06
1.22611e-06
-2.21755e-06
1.00589e-06
8.8378e-07
-1.97968e-06
7.46693e-07
5.56238e-07
-1.73551e-06
5.05176e-07
2.81353e-07
-1.5542e-06
2.94481e-07
8.59891e-08
-1.431e-06
1.23319e-07
-2.51361e-08
-1.35848e-06
-6.29821e-09
-8.163e-08
-1.32364e-06
-1.08025e-07
-1.04712e-07
-1.32626e-06
-1.86173e-07
-1.06376e-07
-1.36858e-06
-2.401e-07
-9.14101e-08
-1.44717e-06
-2.53147e-07
-6.02311e-08
-1.53817e-06
-2.00985e-07
-1.17109e-08
-1.58928e-06
-7.29947e-08
4.90983e-08
-1.53407e-06
1.33288e-07
1.13354e-07
-1.31868e-06
3.70878e-07
1.69306e-07
-1.01265e-06
5.17742e-07
1.96464e-07
5.35797e-07
1.85124e-07
-1.17237e-05
-6.55914e-08
-7.84125e-07
-1.12059e-05
-3.77097e-07
-7.9806e-07
-1.09754e-05
-2.55073e-07
-4.72496e-07
-1.07289e-05
-4.91783e-08
-4.50264e-07
-1.00746e-05
-2.85127e-07
-6.66064e-07
-9.98305e-06
7.24251e-08
-1.0803e-07
-9.28871e-06
-6.63617e-08
-4.60345e-07
-8.9395e-06
1.41252e-07
-5.26904e-08
-8.32117e-06
1.65069e-07
-1.26412e-07
-7.77212e-06
2.75983e-07
6.64878e-08
-7.15251e-06
3.49139e-07
1.40541e-07
-6.53674e-06
4.30956e-07
2.65854e-07
-5.91931e-06
5.06313e-07
3.72824e-07
-5.32589e-06
5.72695e-07
4.76238e-07
-4.76771e-06
6.23973e-07
5.58374e-07
-4.2496e-06
6.47012e-07
6.03036e-07
-3.76675e-06
6.24572e-07
5.81356e-07
-3.30705e-06
5.5994e-07
4.94792e-07
-2.87551e-06
4.70746e-07
3.67492e-07
-2.48434e-06
3.78312e-07
2.36405e-07
-2.14812e-06
2.89193e-07
1.21281e-07
-1.87286e-06
1.99377e-07
3.05369e-08
-1.66155e-06
1.14936e-07
-3.17582e-08
-1.51109e-06
4.2553e-08
-6.96966e-08
-1.40996e-06
-1.72798e-08
-9.01481e-08
-1.35414e-06
-6.49668e-08
-9.88796e-08
-1.33817e-06
-1.02685e-07
-9.94592e-08
-1.35763e-06
-1.28776e-07
-9.18673e-08
-1.39973e-06
-1.37229e-07
-7.38186e-08
-1.43909e-06
-1.1789e-07
-4.37343e-08
-1.44295e-06
-6.48703e-08
-4.26168e-09
-1.3728e-06
2.39354e-08
3.92069e-08
-1.20486e-06
1.26886e-07
7.60511e-08
-9.78832e-07
1.95448e-07
9.62635e-08
2.14233e-07
9.86786e-08
-1.15459e-05
-5.2407e-07
-1.0968e-05
-9.54966e-07
-1.09083e-05
-3.14763e-07
-1.04921e-05
-4.65348e-07
-9.95201e-06
-8.25264e-07
-9.8322e-06
-4.7389e-08
-9.17817e-06
-7.20387e-07
-8.88405e-06
-1.52874e-07
-8.31659e-06
-4.02393e-07
-7.83906e-06
-2.01541e-07
-7.28492e-06
-2.05002e-07
-6.73156e-06
-1.22403e-07
-6.1583e-06
-6.69528e-08
-5.57951e-06
-6.08927e-09
-4.99907e-06
4.35315e-08
-4.42576e-06
7.37003e-08
-3.87533e-06
7.41447e-08
-3.36608e-06
5.06902e-08
-2.90938e-06
1.40497e-08
-2.50924e-06
-2.1828e-08
-2.16758e-06
-5.24749e-08
-1.89003e-06
-7.81717e-08
-1.67733e-06
-9.77669e-08
-1.52364e-06
-1.11136e-07
-1.42138e-06
-1.19532e-07
-1.36186e-06
-1.2449e-07
-1.33838e-06
-1.26163e-07
-1.34312e-06
-1.24039e-07
-1.36377e-06
-1.16581e-07
-1.3797e-06
-1.01962e-07
-1.36481e-06
-7.97572e-08
-1.28952e-06
-5.13578e-08
-1.14117e-06
-2.14653e-08
-9.48052e-07
2.33487e-09
1.73797e-08
1.94417e-05
-1.43454e-06
-2.29014e-06
2.14107e-05
-1.64896e-06
-1.891e-06
2.27644e-05
-1.77476e-06
4.29016e-07
2.40871e-05
-1.10707e-06
1.05584e-06
2.51203e-05
-2.59997e-07
-5.77513e-07
2.53995e-05
1.0301e-07
-1.00852e-06
2.60041e-05
3.65939e-07
-1.4274e-06
2.74177e-05
9.93321e-07
-3.84543e-06
2.82398e-05
1.79914e-06
-6.34699e-06
2.84692e-05
8.06433e-07
-5.43778e-06
2.91638e-05
-1.75099e-06
-1.99275e-06
2.88735e-05
-2.35687e-06
2.36844e-06
2.62868e-05
-3.74011e-07
6.94672e-06
2.30009e-05
1.36917e-06
7.37155e-06
2.03862e-05
1.30629e-06
3.8722e-06
1.84747e-05
4.49454e-07
2.08562e-06
1.7392e-05
-1.78689e-07
2.67237e-06
1.70228e-05
-3.08126e-07
2.23642e-06
1.67972e-05
8.95131e-08
3.67068e-07
1.66692e-05
4.07241e-07
-8.57096e-07
1.69755e-05
1.19031e-07
-1.4424e-06
1.77193e-05
-5.25654e-07
-1.14346e-06
1.9463e-05
-1.55079e-06
1.70598e-07
2.19284e-05
-1.8512e-06
-5.82935e-08
2.19026e-05
4.36386e-07
-1.09787e-06
1.87444e-05
2.06762e-06
5.66379e-07
1.64842e-05
2.16531e-07
3.34836e-06
1.57448e-05
-6.24736e-07
3.32631e-06
1.51085e-05
-3.7095e-07
1.80769e-06
1.56607e-05
-1.92059e-06
1.44006e-06
1.67556e-05
-2.61724e-06
2.20567e-06
1.59939e-05
-1.17644e-06
4.10106e-06
1.47276e-05
-1.11296e-06
5.46929e-06
1.49293e-05
-1.77221e-06
3.23309e-06
1.42759e-05
-2.82135e-07
1.30232e-06
1.05001e-05
2.29701e-06
2.59613e-06
5.99648e-06
2.83505e-06
3.40348e-06
3.21253e-06
1.70247e-06
2.31557e-06
1.81162e-06
8.26948e-07
1.20987e-06
1.0728e-06
4.17202e-07
6.59048e-07
6.4298e-07
2.32638e-07
3.97747e-07
3.64998e-07
1.45186e-07
2.65504e-07
1.64042e-07
1.02153e-07
1.97067e-07
8.1505e-08
1.62377e-07
8.11116e-06
-2.23465e-06
-9.9012e-07
9.21425e-06
-2.2181e-06
-8.90575e-07
1.00761e-05
-1.95956e-06
-1.75748e-06
1.07164e-05
-1.23743e-06
-2.28094e-06
1.12612e-05
-7.5272e-07
-1.1945e-06
1.24131e-05
-7.39237e-07
-5.60768e-07
1.42718e-05
-2.40141e-07
-1.73245e-06
1.59506e-05
6.16304e-07
-3.43806e-06
1.5638e-05
1.38973e-06
-1.03261e-06
1.1458e-05
1.37188e-06
7.20201e-06
6.48751e-06
-6.95452e-08
9.85208e-06
4.0724e-06
-8.39581e-07
4.27158e-06
3.38241e-06
2.57473e-07
5.1886e-07
3.51722e-06
1.20854e-06
-5.41533e-07
3.83575e-06
1.04191e-06
-9.32857e-07
4.16314e-06
5.4386e-07
-8.70626e-07
4.5882e-06
2.45216e-07
-1.05084e-06
5.09505e-06
2.64364e-07
-2.04816e-06
5.77627e-06
6.46553e-07
-3.08891e-06
6.50334e-06
1.00227e-06
-3.29842e-06
7.01632e-06
9.65152e-07
-2.91121e-06
7.29099e-06
6.94431e-07
-2.32253e-06
7.41994e-06
1.3425e-07
-3.17082e-06
7.67229e-06
-2.98596e-07
-5.64666e-06
8.32981e-06
4.99537e-07
-5.00634e-06
8.89126e-06
9.57515e-07
-9.02061e-07
9.35553e-06
-8.97688e-07
7.4739e-07
1.12264e-05
-2.61657e-06
-1.81346e-07
1.35363e-05
-2.58157e-06
-4.81931e-08
1.3983e-05
-2.47621e-06
1.43486e-06
1.39293e-05
-2.93458e-06
2.94155e-06
1.43523e-05
-2.48612e-06
4.35649e-06
1.24231e-05
-7.73796e-07
4.83917e-06
8.13602e-06
9.30787e-07
3.24685e-06
4.58365e-06
2.20124e-06
1.51008e-06
2.86672e-06
3.00937e-06
1.70258e-06
2.20702e-06
2.54847e-06
1.90529e-06
1.69612e-06
1.5703e-06
1.32578e-06
1.20642e-06
9.0873e-07
8.30907e-07
8.20425e-07
5.40958e-07
5.29951e-07
5.35069e-07
3.42111e-07
3.54279e-07
3.19404e-07
2.35208e-07
2.53634e-07
1.47789e-07
1.77694e-07
1.93333e-07
1.50616e-07
1.50705e-07
-2.40973e-06
-3.07422e-06
-7.49854e-07
-1.30349e-06
-3.02918e-06
-7.7847e-07
-2.33228e-07
-2.92969e-06
-8.74539e-07
8.2983e-07
-2.5933e-06
-1.00727e-06
1.94242e-06
-1.95756e-06
-8.33282e-07
3.07208e-06
-1.4053e-06
-5.7987e-07
4.05324e-06
-1.0384e-06
-1.32552e-06
4.62533e-06
-4.5646e-07
-2.06029e-06
3.57053e-06
5.1171e-07
1.05372e-06
7.87346e-07
1.45699e-06
6.23526e-06
-1.4878e-06
1.53448e-06
6.15825e-06
-2.57798e-06
6.8794e-07
1.69488e-06
-3.04238e-06
2.30836e-07
-1.26347e-06
-2.61216e-06
7.67406e-07
-2.27252e-06
-1.72681e-06
1.29303e-06
-2.3502e-06
-9.55232e-07
1.28441e-06
-2.1749e-06
-4.1228e-07
1.08444e-06
-2.09619e-06
6.74711e-08
9.83605e-07
-2.48384e-06
7.10555e-07
1.06569e-06
-3.30919e-06
1.53537e-06
1.29597e-06
-3.74923e-06
2.3259e-06
1.40329e-06
-3.42047e-06
2.88087e-06
1.25635e-06
-2.80203e-06
3.32959e-06
8.3997e-07
-2.28939e-06
3.90952e-06
-3.7108e-08
-2.08558e-06
4.70654e-06
-7.83261e-07
-2.15445e-06
5.75999e-06
-5.17362e-07
-1.95481e-06
6.83409e-06
-3.21496e-07
-1.45215e-06
7.60662e-06
-1.41024e-06
-1.43998e-06
8.51365e-06
-2.40891e-06
-2.01219e-06
9.86134e-06
-2.1371e-06
-1.80964e-06
1.13981e-05
-2.08449e-06
-1.76255e-06
1.25546e-05
-2.90712e-06
-2.0737e-06
1.09548e-05
-1.11494e-06
3.7949e-07
6.11133e-06
2.74397e-06
2.77441e-06
2.409e-06
3.27928e-06
2.36417e-06
1.49107e-06
2.07057e-06
1.86521e-06
1.54039e-06
2.03358e-06
1.8632e-06
1.53037e-06
1.81856e-06
1.53528e-06
1.27739e-06
1.30753e-06
1.06981e-06
9.57578e-07
8.85246e-07
7.05473e-07
6.75389e-07
5.93892e-07
4.6756e-07
4.52347e-07
4.06847e-07
3.21355e-07
2.77513e-07
2.94669e-07
2.34281e-07
1.32706e-07
2.34551e-07
1.76371e-07
2.13651e-07
1.30527e-07
-8.47417e-06
-1.27243e-06
-7.61108e-06
-3.26083e-06
-1.60276e-06
-6.72277e-06
-3.15445e-06
-1.51737e-06
-5.9367e-06
-2.78625e-06
-1.48699e-06
-5.27502e-06
-2.22627e-06
-9.70623e-07
-4.9962e-06
-1.55473e-06
1.64312e-08
-5.20716e-06
-8.74456e-07
1.00583e-06
-5.8416e-06
-1.26526e-07
1.72214e-06
-6.6316e-06
8.00755e-07
1.81609e-06
-6.81673e-06
1.29085e-06
1.21901e-06
-6.30857e-06
1.19852e-06
-1.95676e-07
-5.8094e-06
8.53905e-07
-1.64382e-06
-5.43269e-06
9.03782e-07
-2.62678e-06
-4.75047e-06
1.29804e-06
-3.02786e-06
-3.81894e-06
1.60407e-06
-3.12211e-06
-2.93612e-06
1.66364e-06
-3.20687e-06
-2.19283e-06
1.61534e-06
-3.32798e-06
-1.52828e-06
1.58966e-06
-3.52727e-06
-8.86036e-07
1.6655e-06
-3.79537e-06
-2.51304e-07
1.79555e-06
-3.92592e-06
3.59958e-07
1.82838e-06
-3.74082e-06
9.86827e-07
1.57065e-06
-3.27261e-06
1.57198e-06
8.02482e-07
-2.73455e-06
2.03024e-06
-2.36877e-07
-2.33335e-06
2.53126e-06
-1.00018e-06
-2.39355e-06
3.46087e-06
-1.24367e-06
-2.36582e-06
4.70104e-06
-1.12173e-06
-1.33542e-06
5.82867e-06
-1.18892e-06
-6.16014e-07
6.87946e-06
-1.41594e-06
-1.9046e-06
8.13405e-06
-1.39055e-06
-3.31799e-06
9.41992e-06
-1.5215e-06
-3.66999e-06
9.45831e-06
-1.4751e-06
-3.22379e-06
7.63988e-06
1.06058e-06
-1.0609e-06
5.53496e-06
4.21537e-06
1.17579e-06
3.95616e-06
3.91235e-06
1.86114e-06
2.45523e-06
2.48669e-06
2.05106e-06
1.57582e-06
1.93907e-06
1.848e-06
1.18485e-06
1.55568e-06
1.32694e-06
9.1348e-07
1.1591e-06
8.68129e-07
6.88842e-07
8.31391e-07
5.69808e-07
5.01121e-07
5.90503e-07
3.87792e-07
3.45726e-07
4.25693e-07
2.76388e-07
2.15163e-07
3.23132e-07
2.07076e-07
1.03356e-07
2.68232e-07
1.55831e-07
2.55415e-07
1.07627e-07
-1.13091e-05
-2.5712e-06
-1.58746e-06
-1.10643e-05
-2.51927e-06
-1.54955e-06
-1.08193e-05
-2.22103e-06
-2.05247e-06
-1.04781e-05
-1.79316e-06
-1.87875e-06
-1.01656e-05
-1.17741e-06
-1.7659e-06
-9.83383e-06
-5.84376e-07
-1.49343e-06
-9.45962e-06
5.72673e-08
-1.15783e-06
-8.7473e-06
5.47704e-07
-1.01405e-06
-7.87744e-06
9.37836e-07
-1.36374e-06
-7.1092e-06
1.14955e-06
-1.89481e-06
-6.5149e-06
1.23744e-06
-2.46915e-06
-5.86959e-06
1.40661e-06
-2.87247e-06
-5.03579e-06
1.69059e-06
-3.08072e-06
-4.09574e-06
1.909e-06
-3.15787e-06
-3.18915e-06
1.99183e-06
-3.17981e-06
-2.36938e-06
1.99077e-06
-3.19138e-06
-1.62399e-06
1.97108e-06
-3.23613e-06
-8.90988e-07
1.97181e-06
-3.26672e-06
-7.32162e-08
1.95007e-06
-2.99933e-06
7.87015e-07
1.74269e-06
-2.32042e-06
1.26805e-06
1.01036e-06
-1.4544e-06
1.14039e-06
-1.18991e-07
-2.46274e-07
8.88354e-07
-8.87121e-07
1.00687e-06
9.66938e-07
-1.08312e-06
1.44821e-06
1.48982e-06
-1.02064e-06
1.38708e-06
2.50221e-06
-8.54733e-07
9.79154e-07
3.66185e-06
-8.28599e-07
-5.31154e-07
4.74857e-06
-9.93918e-07
-2.35507e-06
5.86817e-06
-1.03107e-06
-3.36868e-06
6.68062e-06
-9.2409e-07
-3.55858e-06
6.72268e-06
-2.90518e-07
-2.93311e-06
6.44051e-06
1.91493e-06
-1.00968e-06
6.21345e-06
4.07482e-06
1.31199e-06
4.93653e-06
3.99499e-06
2.62431e-06
2.91277e-06
3.05679e-06
2.68406e-06
1.60891e-06
2.18921e-06
1.98398e-06
1.02107e-06
1.54229e-06
1.23183e-06
7.15092e-07
1.10308e-06
7.52851e-07
5.19437e-07
7.91987e-07
4.82603e-07
3.76247e-07
5.72093e-07
3.28368e-07
2.67755e-07
4.17928e-07
2.34546e-07
1.85887e-07
3.17804e-07
1.75503e-07
1.43103e-07
2.47111e-07
1.27834e-07
2.20206e-07
9.19167e-08
3.38547e-08
3.43102e-08
3.34634e-08
9.55144e-09
9.56261e-09
9.261e-09
-1.1069e-05
-1.97731e-06
-1.4401e-06
-1.09208e-05
-1.90698e-06
-1.61597e-06
-1.07665e-05
-1.66309e-06
-1.75092e-06
-1.05493e-05
-1.32871e-06
-1.81975e-06
-1.02003e-05
-9.02324e-07
-1.81537e-06
-9.75725e-06
-4.37277e-07
-1.85371e-06
-9.21275e-06
7.44921e-08
-1.91409e-06
-8.61675e-06
5.49407e-07
-2.09447e-06
-7.9136e-06
9.02533e-07
-2.28611e-06
-7.13099e-06
1.1518e-06
-2.55351e-06
-6.34679e-06
1.36306e-06
-2.85236e-06
-5.52659e-06
1.6142e-06
-3.11468e-06
-4.60537e-06
1.88083e-06
-3.29049e-06
-3.61871e-06
2.08177e-06
-3.38106e-06
-2.63672e-06
2.17793e-06
-3.39152e-06
-1.6947e-06
2.17758e-06
-3.3008e-06
-7.76439e-07
2.0941e-06
-3.0871e-06
1.93472e-07
1.91292e-06
-2.67886e-06
1.15262e-06
1.5813e-06
-1.96596e-06
1.55282e-06
1.05327e-06
-1.01589e-06
1.0133e-06
3.04342e-07
4.02514e-07
1.87211e-07
-1.90954e-07
2.17707e-06
-2.11016e-07
-3.23966e-07
2.65712e-06
-2.24627e-07
-4.45591e-07
1.58242e-06
-4.79952e-09
-5.79048e-07
5.39463e-07
5.31757e-07
-7.04381e-07
-2.39627e-07
1.33559e-06
-9.03357e-07
-9.52059e-07
2.26749e-06
-1.03561e-06
-1.54288e-06
3.17598e-06
-9.21442e-07
-1.8962e-06
3.77599e-06
-5.16352e-07
-1.97111e-06
3.82859e-06
4.54583e-07
-1.66886e-06
3.61224e-06
2.3366e-06
-3.06336e-07
3.09271e-06
3.87196e-06
1.44662e-06
2.05233e-06
3.74126e-06
2.16938e-06
1.16758e-06
2.80247e-06
1.97724e-06
7.44047e-07
1.91673e-06
1.371e-06
5.34557e-07
1.33791e-06
8.57091e-07
4.09074e-07
9.62108e-07
5.47297e-07
3.16978e-07
7.01924e-07
3.70147e-07
2.39919e-07
5.1841e-07
2.63778e-07
1.73695e-07
3.86962e-07
1.95612e-07
1.1767e-07
2.99109e-07
1.50194e-07
8.50522e-08
2.2428e-07
1.11033e-07
1.89987e-07
8.51691e-08
2.02173e-08
1.89569e-08
1.75546e-08
5.66717e-09
5.2529e-09
4.79781e-09
-1.13241e-05
-2.03839e-06
-1.28508e-06
-1.07975e-05
-1.69972e-06
-1.22446e-06
-1.03907e-05
-1.53856e-06
-1.23968e-06
-1.00965e-05
-1.22463e-06
-1.30533e-06
-9.7589e-06
-9.27821e-07
-1.4275e-06
-9.42122e-06
-5.75632e-07
-1.5675e-06
-8.98021e-06
-2.04186e-07
-1.70339e-06
-8.43873e-06
1.81014e-07
-1.83233e-06
-7.76017e-06
5.34561e-07
-1.98552e-06
-7.00493e-06
8.57844e-07
-2.20368e-06
-6.21053e-06
1.13772e-06
-2.43256e-06
-5.38534e-06
1.39473e-06
-2.65656e-06
-4.49898e-06
1.65149e-06
-2.83567e-06
-3.543e-06
1.88922e-06
-2.92883e-06
-2.54685e-06
2.05722e-06
-2.91924e-06
-1.54755e-06
2.10349e-06
-2.77864e-06
-5.65426e-07
1.99352e-06
-2.47142e-06
3.61801e-07
1.72105e-06
-1.96391e-06
1.06092e-06
1.32938e-06
-1.20351e-06
1.1755e-06
8.7578e-07
-1.54088e-07
6.01188e-07
4.95833e-07
1.22946e-06
-1.36949e-07
3.66435e-07
2.76157e-06
-5.16327e-07
3.79139e-07
2.93253e-06
-6.75051e-07
2.01464e-07
1.59562e-06
-8.39272e-07
-1.31808e-07
6.26744e-07
-8.8583e-07
-4.13816e-07
2.51994e-07
-7.95808e-07
-6.28099e-07
4.9068e-08
-6.14189e-07
-8.00866e-07
-2.24737e-07
-3.69721e-07
-8.83227e-07
-4.82358e-07
-1.15906e-07
-7.3464e-07
-5.88231e-07
-2.4729e-09
-2.52032e-07
-4.93824e-07
-3.4542e-08
6.58673e-07
-1.49124e-07
-2.51313e-08
2.02627e-06
6.21253e-07
8.07737e-08
2.91125e-06
1.45454e-06
1.99605e-07
2.67241e-06