/*--------------------------------*- C++ -*----------------------------------*\
| =========                 |                                                 |
| \\      /  F ield         | OpenFOAM: The Open Source CFD Toolbox           |
|  \\    /   O peration     | Version:  2.3.1                                 |
|   \\  /    A nd           | Web:      www.OpenFOAM.org                      |
|    \\/     M anipulation  |                                                 |
\*---------------------------------------------------------------------------*/
FoamFile
{
    version     2.0;
    format      ascii;
    class       surfaceScalarField;
    location    "15";
    object      phi_0;
}
// * * * * * * * * * * * * * * * * * * * * * * * * * * * * * * * * * * * * * //

dimensions      [0 3 -1 0 0 0 0];

internalField   nonuniform List<scalar> 
109568
(
2.1091e-05
-9.94601e-07
-1.49418e-06
2.40293e-05
-1.37011e-06
-1.56823e-06
2.56044e-05
-1.59403e-06
1.89561e-08
2.56096e-05
-1.28065e-06
1.27544e-06
2.58953e-05
-4.75475e-07
1.89737e-07
2.63285e-05
1.97336e-07
-6.30488e-07
2.63838e-05
4.05307e-07
-4.60635e-07
2.71873e-05
6.46003e-07
-1.4495e-06
2.92941e-05
1.63114e-06
-3.73792e-06
3.22358e-05
1.46587e-06
-4.40763e-06
3.59897e-05
-7.09108e-07
-3.04479e-06
3.79857e-05
-1.74378e-06
-2.52204e-07
3.41583e-05
-1.92362e-07
4.01977e-06
2.74865e-05
1.21679e-06
5.45506e-06
2.37736e-05
1.16736e-06
2.54553e-06
2.23748e-05
7.81196e-07
6.17617e-07
2.06516e-05
3.11139e-07
1.41201e-06
1.95312e-05
-4.34151e-07
1.55456e-06
1.97938e-05
-4.88038e-07
2.25452e-07
2.02361e-05
1.37379e-07
-5.79652e-07
2.0834e-05
4.19042e-07
-1.01699e-06
2.11798e-05
5.75545e-07
-9.21376e-07
2.11161e-05
-3.02737e-07
3.66509e-07
2.26121e-05
-2.04829e-06
5.52231e-07
2.38583e-05
-5.57046e-07
-6.89128e-07
2.18896e-05
2.48722e-06
-5.18509e-07
1.95673e-05
1.01248e-06
1.30986e-06
1.79329e-05
-3.25376e-07
1.95971e-06
1.59075e-05
1.23001e-06
7.95418e-07
1.56833e-05
1.54574e-07
6.95975e-08
1.68864e-05
-1.88825e-06
6.85169e-07
1.61383e-05
-1.41873e-06
2.16687e-06
1.43779e-05
-1.32939e-06
3.08974e-06
1.45162e-05
-1.79574e-06
1.65746e-06
1.44868e-05
-3.37206e-07
3.666e-07
1.10444e-05
2.32137e-06
1.121e-06
6.33581e-06
2.97297e-06
1.73565e-06
3.3188e-06
1.78438e-06
1.23263e-06
1.83322e-06
8.50623e-07
6.34952e-07
1.07285e-06
4.23395e-07
3.36976e-07
6.38401e-07
2.34108e-07
2.00343e-07
3.60859e-07
1.44963e-07
1.32578e-07
1.61157e-07
1.01524e-07
9.81782e-08
8.13812e-08
7.9776e-08
8.41447e-06
-1.71854e-06
-4.27902e-07
9.18467e-06
-1.78198e-06
-3.58332e-07
1.02401e-05
-1.56498e-06
-1.08446e-06
1.14321e-05
-6.99322e-07
-1.77339e-06
1.21244e-05
-2.72936e-08
-1.14041e-06
1.29341e-05
-3.63605e-07
-2.4876e-07
1.43206e-05
-4.98029e-07
-4.83192e-07
1.71194e-05
-1.0643e-08
-2.14211e-06
1.92207e-05
1.27565e-06
-1.7459e-06
1.50717e-05
2.01081e-06
3.60413e-06
7.35044e-06
4.50951e-07
6.56117e-06
3.10833e-06
-8.6674e-07
3.36507e-06
2.44048e-06
1.60626e-08
4.59427e-07
3.20535e-06
1.02041e-06
-5.68492e-07
4.20332e-06
1.04881e-06
-8.79424e-07
4.74546e-06
6.87928e-07
-4.48877e-07
4.9494e-06
3.11357e-07
-2.04158e-07
5.37815e-06
1.09227e-07
-9.72121e-07
6.33053e-06
4.10989e-07
-1.85141e-06
7.44843e-06
9.94235e-07
-1.97476e-06
8.06502e-06
1.35197e-06
-1.54951e-06
7.84701e-06
1.62089e-06
-8.2734e-07
7.4738e-06
1.43482e-06
-1.36435e-06
8.57161e-06
7.04689e-07
-3.85079e-06
1.06621e-05
1.63448e-06
-4.28197e-06
1.09893e-05
3.60234e-06
-1.44234e-06
1.00604e-05
1.84298e-06
9.83963e-08
1.18775e-05
-1.83998e-06
-3.02494e-07
1.49771e-05
-1.92338e-06
5.37299e-08
1.52112e-05
-1.40924e-06
1.32975e-06
1.44762e-05
-3.72636e-06
2.57309e-06
1.40444e-05
-4.45743e-06
3.47056e-06
1.13949e-05
-1.92688e-06
3.24694e-06
7.2672e-06
6.72699e-07
1.65927e-06
4.26208e-06
2.22691e-06
4.4101e-07
2.81365e-06
3.06963e-06
7.0017e-07
2.20039e-06
2.627e-06
9.59231e-07
1.69337e-06
1.6093e-06
6.82106e-07
1.20065e-06
9.20782e-07
4.22556e-07
8.12922e-07
5.43679e-07
2.67449e-07
5.27053e-07
3.41747e-07
1.7823e-07
3.10564e-07
2.33572e-07
1.2788e-07
1.39465e-07
1.75442e-07
9.71818e-08
1.48875e-07
7.19706e-08
-1.21407e-06
-2.39118e-06
-4.35904e-07
-1.17059e-08
-2.45353e-06
-4.67376e-07
1.23884e-06
-2.51581e-06
-5.16715e-07
2.51961e-06
-2.26714e-06
-5.78605e-07
3.90306e-06
-1.64199e-06
-4.40785e-07
5.10757e-06
-1.129e-06
-1.02804e-07
6.18706e-06
-7.97131e-07
-6.45958e-07
7.61173e-06
-2.15787e-07
-1.70691e-06
6.98179e-06
7.21488e-07
-1.0219e-07
2.88894e-06
1.84244e-06
3.52606e-06
-1.1443e-06
1.99779e-06
4.04626e-06
-2.83987e-06
7.88762e-07
1.35776e-06
-3.13025e-06
8.30017e-08
-6.59362e-07
-2.39628e-06
6.15399e-07
-1.33331e-06
-1.24129e-06
1.24595e-06
-1.38053e-06
-3.73175e-07
1.34146e-06
-1.16076e-06
1.21631e-07
1.20595e-06
-1.01283e-06
5.61609e-07
1.13768e-06
-1.2663e-06
1.26373e-06
1.27261e-06
-1.8655e-06
2.28457e-06
1.66536e-06
-2.27522e-06
3.45181e-06
2.05581e-06
-2.22881e-06
4.38571e-06
2.37389e-06
-1.95581e-06
5.08468e-06
2.61762e-06
-1.6957e-06
5.99997e-06
2.19804e-06
-1.67851e-06
7.00868e-06
1.53946e-06
-1.84348e-06
7.93816e-06
2.62315e-06
-1.91816e-06
9.05379e-06
4.14301e-06
-1.6563e-06
9.85236e-06
2.22408e-06
-1.17967e-06
1.01834e-05
-1.27504e-06
-8.95981e-07
1.05542e-05
-2.27926e-06
-1.49472e-08
1.15039e-05
-2.52358e-06
1.64693e-07
1.27683e-05
-4.09914e-06
-8.91697e-07
1.05223e-05
-2.36397e-06
1.52585e-07
5.04596e-06
2.10022e-06
1.44925e-06
1.84774e-06
2.86039e-06
1.01052e-06
1.39484e-06
1.86208e-06
8.17727e-07
1.53631e-06
1.99089e-06
9.37271e-07
1.54139e-06
1.82674e-06
7.95177e-07
1.28407e-06
1.31293e-06
5.53687e-07
9.5727e-07
8.85707e-07
3.61871e-07
6.70584e-07
5.92268e-07
2.38097e-07
4.45137e-07
4.04284e-07
1.6291e-07
2.68095e-07
2.91798e-07
1.18815e-07
1.23156e-07
2.32026e-07
8.83546e-08
2.11221e-07
6.08107e-08
-4.77596e-06
-6.66898e-07
-3.83352e-06
-2.42432e-06
-9.71643e-07
-2.85419e-06
-2.64093e-06
-8.54211e-07
-1.8132e-06
-2.41431e-06
-8.93822e-07
-9.09446e-07
-1.96829e-06
-5.77457e-07
-8.23149e-07
-1.36163e-06
1.46331e-07
-1.93113e-06
-6.48578e-07
9.59433e-07
-3.85185e-06
2.86363e-07
1.41857e-06
-5.73556e-06
1.28809e-06
1.31711e-06
-6.45563e-06
1.69346e-06
8.69044e-07
-5.94571e-06
1.51248e-06
-2.46015e-08
-5.30412e-06
1.12721e-06
-9.8004e-07
-4.80985e-06
1.16642e-06
-1.5777e-06
-4.01099e-06
1.63163e-06
-1.81509e-06
-2.96006e-06
2.07475e-06
-1.87972e-06
-1.98156e-06
2.30825e-06
-1.9453e-06
-1.17016e-06
2.44901e-06
-2.05445e-06
-4.01671e-07
2.62672e-06
-2.25753e-06
5.03596e-07
2.92162e-06
-2.55427e-06
1.62109e-06
3.34026e-06
-2.7924e-06
2.55037e-06
3.83128e-06
-2.70474e-06
2.92161e-06
4.3342e-06
-2.33156e-06
3.23839e-06
4.48818e-06
-2.18734e-06
3.88518e-06
3.62641e-06
-2.07516e-06
4.93061e-06
2.60373e-06
-2.10969e-06
7.10287e-06
2.61202e-06
-2.16113e-06
9.42992e-06
2.70732e-06
-8.91361e-07
9.57729e-06
1.34128e-06
7.35435e-07
8.5239e-06
-3.59077e-07
1.37426e-07
8.81624e-06
-1.25322e-06
-1.31839e-06
1.00367e-05
-1.92237e-06
-1.82172e-06
9.74173e-06
-2.05008e-06
-1.75404e-06
7.39584e-06
6.856e-07
-7.03682e-07
5.16741e-06
3.78608e-06
5.42567e-07
3.75136e-06
3.36061e-06
9.15846e-07
2.40956e-06
2.23704e-06
9.66838e-07
1.61701e-06
1.90907e-06
8.74373e-07
1.21016e-06
1.56058e-06
6.73007e-07
9.16434e-07
1.15854e-06
4.48116e-07
6.83582e-07
8.27425e-07
2.91133e-07
4.93317e-07
5.85984e-07
1.96549e-07
3.36531e-07
4.21328e-07
1.39742e-07
2.03726e-07
3.197e-07
1.04903e-07
9.19276e-08
2.66172e-07
7.76528e-08
2.57145e-07
4.60029e-08
-9.31443e-06
-1.39588e-06
-7.28415e-07
-9.51454e-06
-1.77196e-06
-6.68868e-07
-9.32119e-06
-1.36612e-06
-1.24153e-06
-9.10637e-06
-1.07884e-06
-1.10427e-06
-8.96187e-06
-4.30386e-07
-1.07574e-06
-8.85267e-06
1.13379e-07
-8.71154e-07
-8.6975e-06
7.30544e-07
-5.99354e-07
-8.0463e-06
1.19128e-06
-5.5439e-07
-7.08788e-06
1.58199e-06
-8.4695e-07
-6.22551e-06
1.82613e-06
-1.17602e-06
-5.53583e-06
1.92951e-06
-1.49198e-06
-4.8055e-06
2.16105e-06
-1.72495e-06
-3.88378e-06
2.56474e-06
-1.85484e-06
-2.84992e-06
2.95424e-06
-1.91334e-06
-1.84797e-06
3.25178e-06
-1.94549e-06
-9.12347e-07
3.51006e-06
-1.99667e-06
2.25503e-08
3.80169e-06
-2.10987e-06
9.98236e-07
4.17368e-06
-2.22775e-06
1.75661e-06
4.60866e-06
-2.02677e-06
2.03137e-06
5.10218e-06
-1.54568e-06
2.59423e-06
5.30541e-06
-1.53407e-06
3.95239e-06
4.42458e-06
-1.29455e-06
4.90094e-06
2.57067e-06
1.07183e-07
4.79318e-06
1.26486e-06
1.44663e-06
4.41819e-06
8.51441e-07
2.13557e-06
4.30437e-06
5.62164e-07
2.25898e-06
4.61426e-06
4.53765e-08
9.86004e-07
5.40906e-06
-3.04512e-07
-8.49364e-07
6.45481e-06
-4.07555e-07
-1.89141e-06
7.24956e-06
-5.6772e-07
-2.14939e-06
7.37988e-06
-4.7448e-07
-1.70593e-06
7.07871e-06
1.42307e-06
-4.36301e-07
6.44497e-06
3.4744e-06
9.45418e-07
4.84575e-06
3.52939e-06
1.43043e-06
2.91182e-06
2.94043e-06
1.23054e-06
1.68192e-06
2.20875e-06
9.30219e-07
1.05733e-06
1.55483e-06
6.30342e-07
7.24163e-07
1.10109e-06
3.90615e-07
5.18254e-07
7.85953e-07
2.47382e-07
3.71583e-07
5.65996e-07
1.66658e-07
2.62612e-07
4.12087e-07
1.18213e-07
1.80816e-07
3.13245e-07
8.82508e-08
1.41006e-07
2.42091e-07
6.389e-08
2.22135e-07
4.35826e-08
3.84433e-08
3.98341e-08
3.95686e-08
4.85971e-09
4.92477e-09
4.80383e-09
-9.86251e-06
-5.494e-07
-6.48506e-07
-1.00621e-05
-7.17484e-07
-8.5493e-07
-1.00773e-05
-3.125e-07
-1.0384e-06
-1.00224e-05
4.19085e-09
-1.13786e-06
-9.72544e-06
4.63657e-07
-1.19105e-06
-9.29782e-06
9.49318e-07
-1.26356e-06
-8.749e-06
1.53404e-06
-1.35232e-06
-8.09822e-06
2.03734e-06
-1.49684e-06
-7.3214e-06
2.42372e-06
-1.61856e-06
-6.45034e-06
2.72425e-06
-1.76918e-06
-5.58194e-06
3.0043e-06
-1.94319e-06
-4.68203e-06
3.34865e-06
-2.08751e-06
-3.6843e-06
3.74659e-06
-2.17959e-06
-2.63402e-06
4.12609e-06
-2.22213e-06
-1.61838e-06
4.46002e-06
-2.22387e-06
-6.9497e-07
4.75892e-06
-2.17227e-06
1.1053e-07
5.04209e-06
-2.04591e-06
7.58973e-07
5.29286e-06
-1.76762e-06
1.23957e-06
5.5035e-06
-1.37543e-06
2.16099e-06
5.48599e-06
-1.30523e-06
3.65544e-06
4.65217e-06
-8.41214e-07
3.85984e-06
2.93749e-06
1.28269e-06
2.3815e-06
1.22564e-06
2.82337e-06
1.1575e-06
2.83325e-07
2.20553e-06
8.70763e-07
-6.18144e-08
1.19999e-06
1.19863e-06
-2.11926e-07
4.4622e-07
1.90924e-06
-4.41453e-07
-2.2378e-07
2.86038e-06
-6.02557e-07
-6.53092e-07
3.85369e-06
-5.22504e-07
-8.78359e-07
4.46884e-06
-2.19149e-07
-9.63723e-07
4.32353e-06
5.41907e-07
-8.71077e-07
3.67829e-06
2.16833e-06
-1.00014e-07
2.84529e-06
3.58269e-06
7.24705e-07
1.89419e-06
3.60501e-06
8.75488e-07
1.17626e-06
2.81998e-06
8.38375e-07
7.69409e-07
1.94075e-06
6.74859e-07
5.41851e-07
1.33937e-06
4.43016e-07
4.07338e-07
9.54901e-07
2.80702e-07
3.1203e-07
6.93371e-07
1.87891e-07
2.34256e-07
5.10806e-07
1.32965e-07
1.67947e-07
3.80029e-07
9.83678e-08
1.11901e-07
2.93858e-07
7.54334e-08
8.16546e-08
2.16784e-07
5.55537e-08
1.88477e-07
4.23219e-08
2.21505e-08
2.16512e-08
2.11533e-08
2.86535e-09
2.6853e-09
2.48498e-09
-9.31047e-06
-1.55171e-06
-4.83983e-07
-8.96302e-06
-4.76788e-07
-4.20064e-07
-8.65765e-06
-5.58695e-07
-4.64157e-07
-8.73792e-06
3.40105e-07
-5.7233e-07
-8.72152e-06
6.76434e-07
-6.88643e-07
-8.64299e-06
1.28781e-06
-9.02693e-07
-8.45098e-06
1.7862e-06
-1.02889e-06
-8.04603e-06
2.31306e-06
-1.18398e-06
-7.48504e-06
2.7979e-06
-1.32155e-06
-6.81233e-06
3.24395e-06
-1.49293e-06
-6.08564e-06
3.64971e-06
-1.65215e-06
-5.31836e-06
4.03668e-06
-1.79966e-06
-4.4899e-06
4.43219e-06
-1.91199e-06
-3.59737e-06
4.81842e-06
-1.96437e-06
-2.67323e-06
5.14943e-06
-1.94747e-06
-1.74803e-06
5.38832e-06
-1.85351e-06
-8.33267e-07
5.51714e-06
-1.67298e-06
1.05392e-07
5.51271e-06
-1.40927e-06
1.1654e-06
5.32021e-06
-1.08736e-06
2.54813e-06
4.86491e-06
-7.4414e-07
3.79412e-06
4.1396e-06
1.00402e-07
3.33699e-06
3.02036e-06
2.08894e-06
1.41454e-06
1.73634e-06
3.12361e-06
-5.19635e-08
7.31264e-07
1.96088e-06
-6.23504e-07
7.90943e-08
7.75771e-07
-7.494e-07
-3.06523e-07
3.70606e-07
-6.2155e-07
-5.55073e-07
2.15296e-07
-3.91805e-07
-7.30376e-07
5.9178e-08
-1.37944e-07
-7.70744e-07
-8.56739e-08
7.82209e-08
-5.91002e-07
-1.47667e-07
1.0554e-07
-1.30517e-07
-1.15951e-07
-6.24611e-08
6.86725e-07
2.31827e-08
-1.63891e-07
1.94887e-06
3.20895e-07
-1.4246e-08
2.83284e-06
6.0021e-07
2.00868e-07
2.67787e-06
7.1202e-07
2.99266e-07
2.04937e-06
6.7221e-07
2.87992e-07
1.46694e-06
4.85082e-07
2.45018e-07
1.06656e-06
3.15792e-07
2.03336e-07
7.86743e-07
2.0984e-07
1.65016e-07
5.85038e-07
1.46652e-07
1.28886e-07
4.39592e-07
1.07344e-07
9.40939e-08
3.33205e-07
8.16154e-08
6.20842e-08
2.61718e-07
6.41496e-08
2.6467e-08
2.05061e-07
4.73396e-08
1.74938e-07
3.94286e-08
6.9459e-10
2.05825e-11
-3.42624e-10
2.52899e-10
5.03717e-11
-9.87251e-11
-1.04437e-05
-1.65992e-06
-6.48293e-07
-9.57775e-06
-6.81478e-07
-6.61233e-07
-8.83696e-06
-8.9561e-07
-4.0388e-07
-8.2858e-06
1.67217e-07
-3.78268e-07
-7.58912e-06
3.23207e-07
-3.43458e-07
-7.19806e-06
1.15651e-06
-2.59753e-07
-6.6355e-06
1.62122e-06
-3.97584e-07
-6.14521e-06
2.25029e-06
-4.27522e-07
-5.55887e-06
2.7682e-06
-5.56643e-07
-4.92993e-06
3.27102e-06
-6.5601e-07
-4.22819e-06
3.71433e-06
-7.6636e-07
-3.45514e-06
4.1246e-06
-8.60959e-07
-2.59836e-06
4.49947e-06
-9.24061e-07
-1.65585e-06
4.80385e-06
-9.27939e-07
-6.49774e-07
5.0005e-06
-8.57149e-07
3.90564e-07
5.05662e-06
-7.08636e-07
1.46068e-06
4.91288e-06
-4.65857e-07
2.50843e-06
4.55051e-06
-8.55621e-08
3.22106e-06
3.9995e-06
6.08079e-07
3.02782e-06
3.34165e-06
1.71651e-06
1.72738e-06
2.63961e-06
2.80043e-06
1.74126e-07
1.84406e-06
2.72955e-06
-6.72985e-07
1.05975e-06
1.5237e-06
-9.26335e-07
4.20145e-07
5.6447e-07
-1.01313e-06
1.59497e-08
1.49939e-07
-1.09161e-06
-2.26108e-07
-1.93397e-09
-1.19115e-06
-4.01101e-07
-5.44296e-08
-1.31035e-06
-5.46243e-07
-6.49335e-08
-1.4421e-06
-5.9462e-07
-4.43814e-08
-1.57934e-06
-4.58336e-07
4.58169e-09
-1.70293e-06
-8.8759e-08
8.18296e-08
-1.72769e-06
5.32579e-07
1.78909e-07
-1.44289e-06
1.3335e-06
3.30573e-07
-8.97342e-07
1.8098e-06
4.77488e-07
-4.33629e-07
1.69775e-06
5.16407e-07
-1.78718e-07
1.36711e-06
4.2735e-07
-5.89156e-08
3.0118e-07
7.84429e-11
2.10265e-07
2.97337e-08
1.50696e-07
3.98898e-08
1.12252e-07
3.8575e-08
8.6037e-08
2.51222e-08
6.852e-08
9.15363e-09
5.59111e-08
-2.55475e-08
4.14538e-08
3.76553e-08
-1.60159e-08
-1.65874e-08
-1.61299e-08
-1.84159e-09
-1.98255e-09
-1.98473e-09
-1.15309e-05
-1.22261e-06
-8.51758e-07
-1.07794e-05
-7.99398e-07
-6.33579e-07
-1.0202e-05
-8.66648e-07
-6.06363e-07
-9.43518e-06
-2.5293e-07
-3.46644e-07
-8.6366e-06
-1.71585e-07
-3.03778e-07
-7.83208e-06
4.32266e-07
-8.02768e-08
-6.95787e-06
7.65812e-07
-1.88002e-08
-6.07946e-06
1.26734e-06
1.04545e-07
-5.15868e-06
1.69719e-06
1.50232e-07
-4.22437e-06
2.12545e-06
2.1126e-07
-3.26866e-06
2.50411e-06
2.54507e-07
-2.28781e-06
2.84024e-06
3.03514e-07
-1.29316e-06
3.13429e-06
3.70524e-07
-3.22099e-07
3.35091e-06
4.8188e-07
5.56748e-07
3.46843e-06
6.53224e-07
1.21423e-06
3.46706e-06
9.32087e-07
1.47908e-06
3.29105e-06
1.35697e-06
1.19386e-06
2.95268e-06
1.88305e-06
4.17832e-07
2.48449e-06
2.29104e-06
-4.91461e-07
2.00661e-06
2.24433e-06
-1.11602e-06
1.5402e-06
1.72396e-06
-1.31237e-06
1.03017e-06
1.01024e-06
-1.26735e-06
5.61421e-07
4.53303e-07
-1.21593e-06
2.21177e-07
1.4755e-07
-1.18999e-06
-1.553e-08
5.54429e-09
-1.18648e-06
-1.77977e-07
-5.16452e-08
-1.22266e-06
-2.95256e-07
-6.96663e-08
-1.33072e-06
-3.73874e-07
-6.43044e-08
-1.50184e-06
-3.91918e-07
-3.15862e-08
-1.68484e-06
-3.03465e-07
2.81322e-08
-1.80349e-06
-7.4573e-08
1.04467e-07
-1.76278e-06
3.02492e-07
1.89374e-07
-1.46497e-06
7.5615e-07
2.7953e-07
-1.01824e-06
1.02042e-06
3.42649e-07
-6.46595e-07
1.00164e-06
3.24469e-07
2.6037e-07
-1.18286e-05
-4.4577e-07
-1.05183e-06
-1.12859e-05
-6.57063e-07
-6.85083e-07
-1.09729e-05
-4.97593e-07
-6.81962e-07
-1.05519e-05
-2.5287e-07
-4.21133e-07
-9.92393e-06
-2.96911e-07
-5.02623e-07
-9.45729e-06
5.58267e-08
-9.02004e-08
-8.70098e-06
1.67689e-07
-1.58183e-07
-8.01468e-06
4.37622e-07
1.43417e-07
-7.19085e-06
6.56859e-07
2.16499e-07
-6.36179e-06
8.91276e-07
4.05112e-07
-5.49993e-06
1.10899e-06
5.33255e-07
-4.65214e-06
1.3122e-06
6.80255e-07
-3.85188e-06
1.49613e-06
8.37899e-07
-3.15962e-06
1.64187e-06
1.01678e-06
-2.64402e-06
1.74003e-06
1.21281e-06
-2.35521e-06
1.76767e-06
1.41058e-06
-2.28542e-06
1.68831e-06
1.53295e-06
-2.32508e-06
1.51402e-06
1.47832e-06
-2.33543e-06
1.26937e-06
1.22547e-06
-2.21752e-06
1.00551e-06
8.83194e-07
-1.97949e-06
7.46383e-07
5.55792e-07
-1.73533e-06
5.04945e-07
2.81066e-07
-1.55406e-06
2.94312e-07
8.58434e-08
-1.4309e-06
1.23202e-07
-2.51913e-08
-1.3584e-06
-6.38145e-09
-8.16431e-08
-1.32359e-06
-1.08087e-07
-1.04706e-07
-1.32626e-06
-1.86226e-07
-1.06357e-07
-1.36863e-06
-2.40123e-07
-9.13792e-08
-1.44726e-06
-2.53103e-07
-6.01858e-08
-1.53824e-06
-2.00833e-07
-1.16503e-08
-1.58924e-06
-7.27387e-08
4.91694e-08
-1.53382e-06
1.33643e-07
1.13429e-07
-1.31823e-06
3.71195e-07
1.69363e-07
-1.01216e-06
5.17877e-07
1.96471e-07
5.35817e-07
1.85101e-07
-1.17252e-05
-6.589e-08
-7.83363e-07
-1.1207e-05
-3.76725e-07
-7.98484e-07
-1.09759e-05
-2.55627e-07
-4.73026e-07
-1.07301e-05
-4.89663e-08
-4.4974e-07
-1.00754e-05
-2.85156e-07
-6.66479e-07
-9.98366e-06
7.22945e-08
-1.08196e-07
-9.28945e-06
-6.62053e-08
-4.60313e-07
-8.9399e-06
1.41143e-07
-5.30701e-08
-8.32163e-06
1.65109e-07
-1.2652e-07
-7.77243e-06
2.75916e-07
6.61623e-08
-7.15279e-06
3.49076e-07
1.40273e-07
-6.53696e-06
4.30845e-07
2.65519e-07
-5.91947e-06
5.06172e-07
3.72474e-07
-5.32599e-06
5.72526e-07
4.75859e-07
-4.76772e-06
6.23783e-07
5.57979e-07
-4.2495e-06
6.46813e-07
6.02632e-07
-3.76653e-06
6.24381e-07
5.80963e-07
-3.30672e-06
5.59765e-07
4.94441e-07
-2.87515e-06
4.70594e-07
3.67198e-07
-2.484e-06
3.78188e-07
2.36179e-07
-2.14783e-06
2.89085e-07
1.21126e-07
-1.87262e-06
1.99285e-07
3.0447e-08
-1.66137e-06
1.14865e-07
-3.18032e-08
-1.51095e-06
4.25e-08
-6.97144e-08
-1.40986e-06
-1.73196e-08
-9.01502e-08
-1.35408e-06
-6.49982e-08
-9.88717e-08
-1.33815e-06
-1.02709e-07
-9.94448e-08
-1.35765e-06
-1.28784e-07
-9.18446e-08
-1.39976e-06
-1.37208e-07
-7.37837e-08
-1.43908e-06
-1.17822e-07
-4.36869e-08
-1.44286e-06
-6.47535e-08
-4.20663e-09
-1.37258e-06
2.40979e-08
3.92598e-08
-1.20451e-06
1.27035e-07
7.60908e-08
-9.78438e-07
1.95528e-07
9.62806e-08
2.14263e-07
9.86828e-08
-1.15476e-05
-5.23271e-07
-1.09689e-05
-9.55396e-07
-1.09089e-05
-3.1569e-07
-1.04934e-05
-4.64476e-07
-9.95263e-06
-8.25899e-07
-9.83277e-06
-4.75638e-08
-9.17878e-06
-7.20199e-07
-8.88428e-06
-1.53354e-07
-8.31683e-06
-4.0234e-07
-7.83907e-06
-2.01842e-07
-7.28484e-06
-2.05158e-07
-6.73135e-06
-1.22643e-07
-6.158e-06
-6.71836e-08
-5.57914e-06
-6.32659e-09
-4.99865e-06
4.3292e-08
-4.42532e-06
7.3477e-08
-3.87489e-06
7.3951e-08
-3.36565e-06
5.0533e-08
-2.90899e-06
1.39319e-08
-2.5089e-06
-2.19083e-08
-2.16728e-06
-5.25284e-08
-1.88979e-06
-7.82044e-08
-1.67714e-06
-9.77837e-08
-1.5235e-06
-1.11142e-07
-1.42129e-06
-1.19532e-07
-1.3618e-06
-1.24485e-07
-1.33836e-06
-1.26154e-07
-1.34312e-06
-1.24025e-07
-1.36377e-06
-1.16557e-07
-1.37966e-06
-1.01927e-07
-1.36471e-06
-7.9712e-08
-1.2893e-06
-5.13047e-08
-1.14085e-06
-2.14127e-08
-9.47704e-07
2.37672e-09
1.74124e-08
1.94606e-05
-1.43604e-06
-2.29346e-06
2.14278e-05
-1.65087e-06
-1.88459e-06
2.27799e-05
-1.77468e-06
4.41588e-07
2.41019e-05
-1.10347e-06
1.05687e-06
2.51319e-05
-2.55688e-07
-5.8455e-07
2.54099e-05
1.05347e-07
-1.01382e-06
2.60201e-05
3.67034e-07
-1.43786e-06
2.74372e-05
9.9551e-07
-3.86212e-06
2.82574e-05
1.79823e-06
-6.35641e-06
2.8487e-05
7.97839e-07
-5.43501e-06
2.91778e-05
-1.75713e-06
-1.97851e-06
2.88698e-05
-2.34803e-06
2.40387e-06
2.62695e-05
-3.60108e-07
6.98015e-06
2.29843e-05
1.37359e-06
7.36664e-06
2.03746e-05
1.30179e-06
3.85348e-06
1.84678e-05
4.44665e-07
2.07977e-06
1.73902e-05
-1.81374e-07
2.67093e-06
1.70245e-05
-3.08747e-07
2.22903e-06
1.67999e-05
8.9973e-08
3.60133e-07
1.66729e-05
4.06648e-07
-8.59305e-07
1.69809e-05
1.16779e-07
-1.44184e-06
1.77288e-05
-5.29506e-07
-1.13973e-06
1.94791e-05
-1.55453e-06
1.70717e-07
2.1941e-05
-1.84641e-06
-6.32315e-08
2.18976e-05
4.49419e-07
-1.09519e-06
1.87305e-05
2.06998e-06
5.78595e-07
1.64755e-05
2.11273e-07
3.35362e-06
1.57398e-05
-6.25553e-07
3.32096e-06
1.51068e-05
-3.74253e-07
1.80268e-06
1.56642e-05
-1.92691e-06
1.4391e-06
1.67583e-05
-2.61707e-06
2.20812e-06
1.59916e-05
-1.17289e-06
4.10646e-06
1.47278e-05
-1.11464e-06
5.46819e-06
1.49326e-05
-1.77214e-06
3.22483e-06
1.42722e-05
-2.75865e-07
1.30288e-06
1.04886e-05
2.30222e-06
2.60232e-06
5.98694e-06
2.83333e-06
3.40403e-06
3.20765e-06
1.69927e-06
2.31265e-06
1.80922e-06
8.25296e-07
1.20809e-06
1.07155e-06
4.16459e-07
6.58192e-07
6.42305e-07
2.3228e-07
3.97304e-07
3.64641e-07
1.44994e-07
2.65248e-07
1.63887e-07
1.02034e-07
1.96897e-07
8.14158e-08
1.62248e-07
8.11865e-06
-2.23513e-06
-9.9143e-07
9.22039e-06
-2.21828e-06
-8.92657e-07
1.00811e-05
-1.95801e-06
-1.76184e-06
1.07208e-05
-1.23437e-06
-2.28218e-06
1.12664e-05
-7.50489e-07
-1.19126e-06
1.24215e-05
-7.37799e-07
-5.60661e-07
1.42824e-05
-2.38348e-07
-1.73867e-06
1.59588e-05
6.18894e-07
-3.44196e-06
1.56339e-05
1.3927e-06
-1.01543e-06
1.14423e-05
1.37039e-06
7.22313e-06
6.47566e-06
-7.23761e-08
9.84308e-06
4.06849e-06
-8.3562e-07
4.25983e-06
3.38364e-06
2.64451e-07
5.1972e-07
3.51942e-06
1.21023e-06
-5.4092e-07
3.83619e-06
1.03969e-06
-9.34081e-07
4.16333e-06
5.41661e-07
-8.73018e-07
4.58918e-06
2.43735e-07
-1.05511e-06
5.09665e-06
2.63647e-07
-2.05199e-06
5.7784e-06
6.46532e-07
-3.08972e-06
6.50543e-06
1.00203e-06
-3.29717e-06
7.01789e-06
9.64544e-07
-2.90974e-06
7.29186e-06
6.9358e-07
-2.3244e-06
7.41976e-06
1.33543e-07
-3.18032e-06
7.67242e-06
-2.95795e-07
-5.65407e-06
8.33217e-06
5.0518e-07
-4.99748e-06
8.8935e-06
9.57513e-07
-8.91209e-07
9.35903e-06
-9.0331e-07
7.47454e-07
1.12339e-05
-2.6201e-06
-1.82822e-07
1.35414e-05
-2.58278e-06
-4.52214e-08
1.39827e-05
-2.4781e-06
1.43958e-06
1.39308e-05
-2.93612e-06
2.94409e-06
1.43544e-05
-2.48358e-06
4.35768e-06
1.24174e-05
-7.68502e-07
4.83782e-06
8.12597e-06
9.35692e-07
3.24283e-06
4.577e-06
2.20428e-06
1.50983e-06
2.86434e-06
3.00951e-06
1.70555e-06
2.20598e-06
2.5457e-06
1.90521e-06
1.69496e-06
1.56782e-06
1.32458e-06
1.20544e-06
9.07301e-07
8.30069e-07
8.19738e-07
5.4018e-07
5.29428e-07
5.34623e-07
3.41672e-07
3.53953e-07
3.19138e-07
2.34941e-07
2.53417e-07
1.47667e-07
1.77507e-07
1.93181e-07
1.50465e-07
1.50589e-07
-2.40717e-06
-3.07432e-06
-7.50783e-07
-1.30117e-06
-3.02929e-06
-7.79216e-07
-2.31193e-07
-2.9295e-06
-8.75471e-07
8.32066e-07
-2.59211e-06
-1.00777e-06
1.9453e-06
-1.95547e-06
-8.32912e-07
3.0757e-06
-1.40324e-06
-5.80458e-07
4.05734e-06
-1.03656e-06
-1.32883e-06
4.62838e-06
-4.54314e-07
-2.06199e-06
3.56912e-06
5.14566e-07
1.06139e-06
7.83066e-07
1.4598e-06
6.24502e-06
-1.49072e-06
1.53409e-06
6.15635e-06
-2.57991e-06
6.86841e-07
1.68772e-06
-3.04224e-06
2.33372e-07
-1.26602e-06
-2.60948e-06
7.71301e-07
-2.27292e-06
-1.72379e-06
1.2944e-06
-2.35038e-06
-9.53389e-07
1.28386e-06
-2.17533e-06
-4.11193e-07
1.08353e-06
-2.09689e-06
6.83541e-08
9.82917e-07
-2.48503e-06
7.11467e-07
1.06537e-06
-3.31034e-06
1.53633e-06
1.29591e-06
-3.74946e-06
2.32662e-06
1.40306e-06
-3.42013e-06
2.8813e-06
1.25593e-06
-2.80187e-06
3.33004e-06
8.39184e-07
-2.29005e-06
3.91036e-06
-3.81487e-08
-2.08714e-06
4.70849e-06
-7.82201e-07
-2.1552e-06
5.76344e-06
-5.14621e-07
-1.9533e-06
6.83775e-06
-3.22077e-07
-1.45102e-06
7.60943e-06
-1.41376e-06
-1.4409e-06
8.51677e-06
-2.41105e-06
-2.01236e-06
9.86505e-06
-2.13763e-06
-1.80838e-06
1.14023e-05
-2.08663e-06
-1.76401e-06
1.2557e-05
-2.90796e-06
-2.07461e-06
1.09513e-05
-1.1084e-06
3.83191e-07
6.10485e-06
2.75105e-06
2.7761e-06
2.40658e-06
3.28001e-06
2.36447e-06
1.49158e-06
2.07034e-06
1.86666e-06
1.54129e-06
2.03312e-06
1.86395e-06
1.53043e-06
1.8169e-06
1.53484e-06
1.27686e-06
1.30601e-06
1.06906e-06
9.56979e-07
8.84179e-07
7.04878e-07
6.74907e-07
5.93195e-07
4.67153e-07
4.52011e-07
4.06393e-07
3.21084e-07
2.77307e-07
2.94363e-07
2.34097e-07
1.32608e-07
2.34321e-07
1.7624e-07
2.13453e-07
1.30431e-07
-8.47346e-06
-1.27333e-06
-7.61038e-06
-3.261e-06
-1.60302e-06
-6.72206e-06
-3.15436e-06
-1.51767e-06
-5.93573e-06
-2.78553e-06
-1.48673e-06
-5.27367e-06
-2.22492e-06
-9.70069e-07
-4.99468e-06
-1.55316e-06
1.72548e-08
-5.20591e-06
-8.72694e-07
1.00681e-06
-5.84113e-06
-1.24565e-07
1.72404e-06
-6.6318e-06
8.0339e-07
1.81895e-06
-6.81611e-06
1.29289e-06
1.22026e-06
-6.308e-06
1.19903e-06
-1.97641e-07
-5.80971e-06
8.54408e-07
-1.64589e-06
-5.4322e-06
9.05712e-07
-2.62755e-06
-4.74838e-06
1.30018e-06
-3.02778e-06
-3.81651e-06
1.60512e-06
-3.12231e-06
-2.9342e-06
1.66384e-06
-3.20759e-06
-2.19133e-06
1.61523e-06
-3.32902e-06
-1.52701e-06
1.58952e-06
-3.52845e-06
-8.84905e-07
1.6655e-06
-3.7965e-06
-2.50281e-07
1.79568e-06
-3.92679e-06
3.60936e-07
1.82842e-06
-3.74132e-06
9.87844e-07
1.57034e-06
-3.27288e-06
1.57292e-06
8.01517e-07
-2.73475e-06
2.03106e-06
-2.37865e-07
-2.33358e-06
2.53289e-06
-1.00047e-06
-2.39326e-06
3.464e-06
-1.24327e-06
-2.36359e-06
4.70434e-06
-1.12184e-06
-1.33194e-06
5.83147e-06
-1.19002e-06
-6.15432e-07
6.88213e-06
-1.41705e-06
-1.90724e-06
8.1371e-06
-1.39128e-06
-3.31972e-06
9.4223e-06
-1.52245e-06
-3.6711e-06
9.45808e-06
-1.47339e-06
-3.22439e-06
7.63825e-06
1.06732e-06
-1.05959e-06
5.53542e-06
4.21985e-06
1.17659e-06
3.95758e-06
3.91181e-06
1.86189e-06
2.4562e-06
2.48633e-06
2.05223e-06
1.57661e-06
1.93863e-06
1.84846e-06
1.18513e-06
1.55473e-06
1.32666e-06
9.13402e-07
1.15814e-06
8.67705e-07
6.88633e-07
8.30628e-07
5.69453e-07
5.00902e-07
5.89946e-07
3.8753e-07
3.45543e-07
4.25298e-07
2.76196e-07
2.15037e-07
3.22837e-07
2.06935e-07
1.03292e-07
2.67992e-07
1.55726e-07
2.55193e-07
1.07555e-07
-1.13094e-05
-2.57116e-06
-1.58678e-06
-1.10648e-05
-2.51895e-06
-1.54887e-06
-1.08197e-05
-2.22029e-06
-2.05182e-06
-1.04784e-05
-1.79207e-06
-1.87846e-06
-1.01658e-05
-1.17602e-06
-1.76546e-06
-9.83387e-06
-5.82766e-07
-1.49302e-06
-9.4596e-06
5.89952e-08
-1.15719e-06
-8.7468e-06
5.49629e-07
-1.01342e-06
-7.8765e-06
9.39436e-07
-1.3638e-06
-7.10847e-06
1.15052e-06
-1.89554e-06
-6.51433e-06
1.23841e-06
-2.47012e-06
-5.86841e-06
1.40811e-06
-2.87326e-06
-5.03388e-06
1.69209e-06
-3.08129e-06
-4.09361e-06
1.90996e-06
-3.15846e-06
-3.18714e-06
1.99234e-06
-3.18045e-06
-2.36755e-06
1.99102e-06
-3.19206e-06
-1.62232e-06
1.97121e-06
-3.2368e-06
-8.89317e-07
1.97191e-06
-3.26717e-06
-7.12956e-08
1.95005e-06
-2.99917e-06
7.88984e-07
1.74224e-06
-2.31977e-06
1.26929e-06
1.00914e-06
-1.45317e-06
1.14052e-06
-1.20306e-07
-2.43957e-07
8.87946e-07
-8.87591e-07
1.00948e-06
9.66673e-07
-1.08285e-06
1.45028e-06
1.49054e-06
-1.02021e-06
1.38864e-06
2.5038e-06
-8.54732e-07
9.78611e-07
3.66339e-06
-8.29286e-07
-5.34318e-07
4.75007e-06
-9.9486e-07
-2.35824e-06
5.86965e-06
-1.03159e-06
-3.37068e-06
6.68134e-06
-9.23955e-07
-3.55957e-06
6.72284e-06
-2.88114e-07
-2.9327e-06
6.4417e-06
1.92002e-06
-1.00786e-06
6.21491e-06
4.07777e-06
1.31429e-06
4.93598e-06
3.99505e-06
2.62613e-06
2.91179e-06
3.0564e-06
2.68466e-06
1.60858e-06
2.18848e-06
1.98357e-06
1.02094e-06
1.54148e-06
1.23123e-06
7.14956e-07
1.10235e-06
7.52395e-07
5.19285e-07
7.9139e-07
4.82291e-07
3.76104e-07
5.71631e-07
3.28154e-07
2.67639e-07
4.17579e-07
2.34396e-07
1.85796e-07
3.17537e-07
1.75393e-07
1.4302e-07
2.46904e-07
1.27755e-07
2.2003e-07
9.18623e-08
3.38289e-08
3.42841e-08
3.34377e-08
9.54409e-09
9.55526e-09
9.25383e-09
-1.10697e-05
-1.97727e-06
-1.43985e-06
-1.09215e-05
-1.90656e-06
-1.6155e-06
-1.07672e-05
-1.66247e-06
-1.75056e-06
-1.05498e-05
-1.32784e-06
-1.81945e-06
-1.02006e-05
-9.01229e-07
-1.8151e-06
-9.75731e-06
-4.36071e-07
-1.85353e-06
-9.21255e-06
7.58936e-08
-1.91397e-06
-8.61616e-06
5.5083e-07
-2.09444e-06
-7.91261e-06
9.03744e-07
-2.28641e-06
-7.12989e-06
1.15278e-06
-2.55415e-06
-6.34559e-06
1.3641e-06
-2.85318e-06
-5.52493e-06
1.61541e-06
-3.11547e-06
-4.60321e-06
1.88201e-06
-3.29122e-06
-3.6163e-06
2.08269e-06
-3.38177e-06
-2.63427e-06
2.17858e-06
-3.39215e-06
-1.69227e-06
2.17799e-06
-3.30124e-06
-7.73999e-07
2.09426e-06
-3.08723e-06
1.96066e-07
1.91272e-06
-2.67849e-06
1.15504e-06
1.58068e-06
-1.96504e-06
1.55412e-06
1.05227e-06
-1.01434e-06
1.01322e-06
3.03456e-07
4.0536e-07
1.86741e-07
-1.91109e-07
2.17997e-06
-2.11296e-07
-3.23751e-07
2.65757e-06
-2.24676e-07
-4.45478e-07
1.58154e-06
-4.56119e-09
-5.79045e-07
5.38718e-07
5.32223e-07
-7.04753e-07
-2.40543e-07
1.33615e-06
-9.0404e-07
-9.52958e-07
2.26801e-06
-1.03612e-06
-1.54369e-06
3.17627e-06
-9.21435e-07
-1.89678e-06
3.77561e-06
-5.1548e-07
-1.97153e-06
3.82781e-06
4.57068e-07
-1.66846e-06
3.61172e-06
2.34027e-06
-3.04167e-07
3.09169e-06
3.87379e-06
1.4487e-06
2.051e-06
3.74095e-06
2.17027e-06
1.16708e-06
2.80157e-06
1.97713e-06
7.44054e-07
1.9159e-06
1.37047e-06
5.34647e-07
1.33724e-06
8.56668e-07
4.09128e-07
9.61552e-07
5.47019e-07
3.16982e-07
7.0147e-07
3.69956e-07
2.39891e-07
5.1805e-07
2.63637e-07
1.73656e-07
3.86678e-07
1.95504e-07
1.17634e-07
2.98882e-07
1.50112e-07
8.50142e-08
2.24105e-07
1.10972e-07
1.89842e-07
8.51235e-08
2.02049e-08
1.8945e-08
1.75431e-08
5.66363e-09
5.24955e-09
4.79466e-09
-1.13255e-05
-2.03886e-06
-1.28528e-06
-1.07986e-05
-1.69996e-06
-1.22427e-06
-1.03914e-05
-1.53849e-06
-1.23941e-06
-1.00969e-05
-1.22437e-06
-1.30493e-06
-9.75911e-06
-9.27267e-07
-1.42705e-06
-9.4211e-06
-5.74919e-07
-1.56702e-06
-8.97982e-06
-2.03306e-07
-1.70292e-06
-8.43797e-06
1.81964e-07
-1.8319e-06
-7.75903e-06
5.3556e-07
-1.98522e-06
-7.00347e-06
8.58764e-07
-2.20351e-06
-6.20886e-06
1.13855e-06
-2.43253e-06
-5.38337e-06
1.39555e-06
-2.6566e-06
-4.49662e-06
1.65235e-06
-2.83569e-06
-3.54026e-06
1.89002e-06
-2.92874e-06
-2.54388e-06
2.05786e-06
-2.91902e-06
-1.54448e-06
2.10389e-06
-2.77822e-06
-5.62366e-07
1.99362e-06
-2.47072e-06
3.64677e-07
1.7208e-06
-1.96285e-06
1.0631e-06
1.32886e-06
-1.20192e-06
1.17637e-06
8.75051e-07
-1.51777e-07
6.00927e-07
4.95551e-07
1.23257e-06
-1.37327e-07
3.66582e-07
2.76407e-06
-5.16394e-07
3.79316e-07
2.93225e-06
-6.75106e-07
2.01387e-07
1.59446e-06
-8.39264e-07
-1.31943e-07
6.26394e-07
-8.85731e-07
-4.13943e-07
2.5197e-07
-7.9583e-07
-6.28312e-07
4.89542e-08
-6.14508e-07
-8.01145e-07
-2.25039e-07
-3.70312e-07
-8.83386e-07
-4.82604e-07
-1.16788e-07
-7.34362e-07
-5.88265e-07
-3.52889e-09
-2.51126e-07
-4.93564e-07
-3.55507e-08
6.60488e-07
-1.48215e-07
-2.5713e-08
2.0284e-06
6.22922e-07
8.06729e-08
2.91188e-06
1.45573e-06