/*--------------------------------*- C++ -*----------------------------------*\
| =========                 |                                                 |
| \\      /  F ield         | OpenFOAM: The Open Source CFD Toolbox           |
|  \\    /   O peration     | Version:  2.3.1                                 |
|   \\  /    A nd           | Web:      www.OpenFOAM.org                      |
|    \\/     M anipulation  |                                                 |
\*---------------------------------------------------------------------------*/
FoamFile
{
    version     2.0;
    format      ascii;
    class       volScalarField;
    location    "15";
    object      Sed;
}
// * * * * * * * * * * * * * * * * * * * * * * * * * * * * * * * * * * * * * //

dimensions      [0 0 0 0 0 0 0];

internalField   nonuniform List<scalar> 
38152
(
2.66015e-201
2.43164e-201
2.36663e-201
2.3284e-201
2.22292e-201
1.87861e-201
1.39941e-201
9.95875e-202
6.87881e-202
5.16545e-202
4.51505e-202
4.27143e-202
3.81562e-202
2.20914e-202
7.19369e-203
1.84279e-203
4.12047e-204
8.01049e-205
1.43511e-205
2.56568e-206
4.58977e-207
8.28244e-208
1.49028e-208
2.61027e-209
4.94194e-210
9.42843e-211
1.57713e-211
2.22783e-212
2.72312e-213
2.83443e-214
2.82236e-215
2.95804e-216
2.86925e-217
2.44476e-218
2.10876e-219
1.74549e-220
1.04152e-221
3.3671e-223
5.38878e-225
4.57952e-227
2.23955e-229
6.56953e-232
1.14544e-234
1.11171e-237
4.51853e-202
4.11216e-202
4.06556e-202
4.24721e-202
4.35641e-202
3.90034e-202
2.32711e-202
1.64544e-202
1.68087e-202
1.63918e-202
9.93192e-203
2.34934e-203
1.49839e-203
9.52005e-204
2.37399e-204
4.5e-205
5.6433e-206
6.57803e-207
1.06975e-207
2.89553e-208
7.73557e-209
1.56006e-209
1.59648e-210
2.06373e-211
6.30855e-212
5.29568e-212
8.14315e-213
6.52953e-214
1.07397e-214
1.19173e-215
1.18489e-216
1.10792e-217
1.00273e-218
7.21631e-220
3.5835e-221
6.02284e-222
4.26454e-223
1.0719e-224
1.31479e-226
9.29706e-229
4.06693e-231
1.12821e-233
1.93315e-236
1.95996e-239
6.69722e-203
6.01982e-203
5.65207e-203
5.68654e-203
5.66659e-203
4.60972e-203
2.55491e-203
1.7331e-203
1.94488e-203
3.17507e-203
1.94294e-203
1.87536e-204
3.15631e-205
2.66222e-205
1.62665e-205
3.25855e-206
4.50382e-207
3.68307e-208
3.98835e-209
1.04071e-209
4.63115e-210
1.41647e-210
2.95194e-211
3.40321e-212
3.72009e-213
2.42182e-213
2.23271e-213
3.45835e-214
2.47383e-215
2.00469e-216
1.74219e-217
1.5658e-218
1.50431e-219
1.23954e-220
8.92556e-222
6.68087e-223
1.20551e-223
7.01501e-225
1.41434e-226
1.48426e-228
9.36325e-231
3.76547e-233
9.89958e-236
1.67035e-238
1.76691e-241
4.39918e-204
3.925e-204
3.40957e-204
3.02116e-204
2.32504e-204
1.3491e-204
9.18198e-205
1.97608e-204
3.31328e-204
3.15631e-204
7.99724e-205
3.65879e-206
6.20582e-207
5.67909e-207
2.64111e-207
4.71215e-208
5.82953e-209
4.84737e-210
6.71181e-211
2.24901e-211
1.14137e-211
3.61238e-212
7.33451e-213
8.18305e-214
9.37812e-215
1.04228e-214
1.02238e-214
1.77333e-215
1.17527e-216
6.88314e-218
4.30976e-219
3.07723e-220
2.30906e-221
3.14474e-222
2.78633e-223
1.52798e-224
1.68459e-225
8.24124e-227
1.43944e-228
1.3076e-230
7.22961e-233
2.61776e-235
6.43242e-238
1.05368e-240
1.14759e-243
1.20148e-205
8.47837e-206
6.65637e-206
5.08464e-206
4.91432e-206
9.8832e-206
2.34779e-205
3.07556e-205
1.49019e-205
2.22387e-206
9.39963e-208
2.13163e-208
1.57428e-208
5.78588e-209
1.02308e-209
1.30755e-210
1.2328e-211
2.05281e-212
8.18982e-213
4.52119e-213
1.45313e-213
2.85554e-214
3.23336e-215
4.03995e-216
3.9921e-216
3.01974e-216
2.94345e-217
1.17573e-218
5.89602e-220
3.64194e-221
2.59823e-222
3.27029e-223
9.99873e-224
1.02114e-224
5.26477e-226
2.81108e-227
9.33103e-229
1.34432e-230
1.03332e-232
4.92968e-235
1.59303e-237
3.71256e-240
6.70672e-243
1.03577e-245
2.7223e-207
1.70281e-207
1.39639e-207
1.44032e-207
3.13666e-207
8.25659e-207
1.5302e-206
1.73756e-206
5.31664e-207
6.54853e-208
3.30311e-209
8.45649e-210
5.02934e-210
1.6088e-210
2.92845e-211
3.93335e-212
4.18536e-213
8.09824e-214
3.86953e-214
2.18601e-214
6.79645e-215
1.17094e-215
1.00188e-216
8.10392e-218
4.95748e-218
1.89184e-218
6.85958e-220
3.05228e-221
1.87133e-222
1.41273e-223
1.1896e-224
4.96277e-225
2.61382e-225
2.81471e-226
1.28866e-227
4.45462e-229
9.52552e-231
1.03196e-232
6.45526e-235
2.63584e-237
7.69008e-240
1.80426e-242
3.86892e-245
8.47695e-248
7.35063e-209
5.08994e-209
3.34011e-209
3.23279e-209
7.0034e-209
2.3331e-208
6.79444e-208
1.03932e-207
1.07736e-207
2.43155e-208
2.51875e-209
1.41448e-210
3.70574e-211
1.86962e-211
5.59048e-212
1.07855e-212
1.51581e-213
1.77143e-214
3.86593e-215
2.10033e-215
1.11135e-215
2.87739e-216
3.33422e-217
1.36367e-218
3.74295e-220
8.09786e-221
2.23511e-221
7.98557e-223
4.11939e-224
3.07797e-225
2.93295e-226
7.70704e-227
9.41014e-227
6.45046e-227
6.32828e-228
2.25864e-229
5.29682e-231
7.69513e-233
6.29999e-235
3.206e-237
1.1448e-239
3.27779e-242
9.07529e-245
2.65618e-247
7.5862e-250
1.87534e-210
1.03843e-210
6.94252e-211
1.2858e-210
4.32947e-210
1.73463e-209
5.3051e-209
7.61795e-209
7.05973e-209
1.36166e-209
1.21371e-210
6.99014e-212
1.76717e-212
7.97711e-213
2.35314e-213
4.8731e-214
7.01163e-215
8.87999e-216
1.97571e-216
1.01337e-216
4.15709e-217
7.31163e-218
4.49558e-219
8.48387e-221
8.23474e-223
1.07694e-223
2.18963e-224
7.81824e-226
4.39184e-227
3.84896e-228
4.71239e-229
5.65423e-229
1.52343e-228
1.20041e-228
1.00744e-229
2.71703e-231
4.44168e-233
4.58076e-235
2.85354e-237
1.23245e-239
4.23509e-242
1.41701e-244
5.32341e-247
2.00962e-249
5.96467e-252
7.09413e-212
2.94043e-212
1.80189e-212
4.07249e-212
1.84962e-211
9.10302e-211
2.93187e-210
4.3125e-210
3.65464e-210
6.67249e-211
5.39104e-212
3.16019e-213
7.71954e-214
3.23163e-214
9.57129e-215
2.09519e-215
2.9685e-216
3.60526e-217
7.17395e-218
3.10122e-218
8.86951e-219
9.97946e-220
3.50896e-221
3.40139e-223
1.38465e-225
1.3488e-226
2.04792e-227
7.82694e-229
4.93965e-230
5.03571e-231
7.81211e-232
3.6038e-231
1.69013e-230
1.41766e-230
1.01712e-231
2.20307e-233
3.57841e-213
9.93226e-214
4.88647e-214
7.51331e-214
3.70789e-213
2.07989e-212
7.42474e-212
1.17234e-211
9.48095e-212
1.72891e-212
1.35906e-213
8.47269e-215
2.10577e-215
8.4134e-216
2.52936e-216
5.59773e-217
7.33544e-218
8.11364e-219
1.48106e-219
5.18362e-220
1.02411e-220
7.44104e-222
1.56191e-223
9.20584e-226
2.471e-228
1.86847e-229
2.20812e-230
1.01196e-231
7.59899e-233
8.90697e-234
1.75825e-234
1.69727e-233
1.1424e-232
9.82535e-233
6.31493e-234
7.32608e-215
2.10381e-215
8.28194e-216
8.19303e-216
3.44126e-215
1.71879e-214
6.58663e-214
1.16937e-213
9.32285e-214
1.77334e-214
1.42286e-215
9.84582e-217
2.60694e-217
1.04109e-217
3.27322e-218
7.29574e-219
8.94701e-220
9.12977e-221
1.53472e-221
4.23509e-222
5.85941e-223
2.95161e-224
4.27668e-226
1.86704e-228
4.80985e-231
2.98242e-232
3.05985e-233
1.94636e-234
1.76394e-235
2.26562e-236
5.24394e-237
5.4735e-236
4.42178e-235
3.83165e-235
2.29812e-236
6.23377e-217
2.06316e-217
6.32045e-218
5.46512e-218
1.9927e-217
9.04e-217
2.61373e-216
5.17278e-216
3.31111e-216
6.9536e-217
5.56312e-218
4.27299e-219
1.2174e-219
5.0065e-220
1.67415e-220
3.75209e-221
4.3683e-222
4.1745e-223
6.56731e-224
1.46674e-224
1.53165e-225
5.85499e-227
6.58529e-229
2.49304e-231
7.64778e-234
4.68021e-235
4.43211e-236
3.29377e-237
3.18546e-238
4.19471e-239
1.09977e-239
1.0443e-238
8.56646e-238
7.15238e-238
4.12971e-239
1.6771e-201
1.55152e-201
1.54535e-201
1.55366e-201
1.50019e-201
1.2699e-201
9.15162e-202
6.13409e-202
3.79845e-202
2.47738e-202
1.96427e-202
1.91449e-202
1.91471e-202
1.22157e-202
3.43401e-203
7.41486e-204
1.43539e-204
2.52915e-205
4.07458e-206
6.29512e-207
9.62389e-208
1.51851e-208
2.58605e-209
4.79715e-210
9.5847e-211
1.8212e-211
2.98558e-212
4.1318e-213
4.77369e-214
4.99058e-215
5.3141e-216
6.39559e-217
7.22237e-218
6.77798e-219
6.17348e-220
5.24392e-221
3.13982e-222
9.87988e-224
1.55577e-225
1.35151e-227
7.06893e-230
2.34577e-232
5.00951e-235
6.68098e-238
4.47957e-202
4.132e-202
4.04259e-202
4.04357e-202
3.82169e-202
2.95466e-202
1.9422e-202
1.39731e-202
1.16545e-202
1.04597e-202
5.88024e-203
1.87796e-203
1.27709e-203
7.55809e-204
1.72608e-204
2.45798e-205
3.37379e-206
5.18516e-207
8.73268e-208
1.64788e-208
2.37955e-209
3.63671e-210
5.51045e-211
9.03682e-212
3.12634e-212
1.12371e-212
1.33613e-213
1.41475e-214
1.74996e-215
2.20606e-216
2.65839e-217
3.10597e-218
3.4048e-219
2.8905e-220
1.69855e-221
2.06251e-222
1.31814e-223
3.27532e-225
4.31457e-227
3.56898e-229
2.01717e-231
8.13351e-234
2.31418e-236
3.94512e-239
1.0257e-202
9.27778e-203
8.59981e-203
8.26302e-203
7.59035e-203
5.85947e-203
3.71871e-203
2.54959e-203
2.43373e-203
2.62619e-203
1.20925e-203
2.21548e-204
7.71131e-205
5.61926e-205
2.54243e-205
4.51146e-206
5.10995e-207
6.07704e-208
9.05009e-209
1.80006e-209
3.8017e-210
5.83742e-211
8.55835e-212
1.09018e-212
1.70053e-213
8.50929e-214
3.29074e-214
4.07608e-215
4.27782e-216
4.81404e-217
5.78085e-218
6.99705e-219
8.37513e-220
8.49222e-221
6.47493e-222
3.76373e-223
4.28546e-224
2.28051e-225
5.00793e-227
6.43225e-229
5.54578e-231
3.4335e-233
1.57295e-235
5.18513e-238
9.80568e-241
1.12681e-203
9.94878e-204
8.75159e-204
7.57652e-204
5.84093e-204
3.74602e-204
2.59799e-204
2.47087e-204
2.88061e-204
2.05365e-204
5.37329e-205
7.85743e-206
2.547e-206
1.75197e-206
6.17375e-207
9.33401e-208
9.72568e-209
1.13806e-209
1.76947e-210
3.86834e-211
8.15892e-212
1.21809e-212
1.57412e-213
1.40362e-214
2.23038e-215
1.3692e-215
6.35856e-216
9.9594e-217
1.11002e-217
1.23235e-218
1.46519e-219
1.79065e-220
2.11007e-221
3.30674e-222
2.73651e-223
1.20698e-224
7.15982e-226
3.11725e-227
6.48678e-229
8.20621e-231
7.18693e-233
4.66153e-235
2.29816e-237
8.27649e-240
1.65646e-242
4.59023e-205
3.57649e-205
2.70966e-205
1.75745e-205
1.22599e-205
1.10542e-205
1.53374e-205
1.89705e-205
8.98162e-206
1.81381e-206
2.42409e-207
8.12481e-208
4.80257e-208
1.41126e-208
1.96989e-209
2.04162e-210
2.40636e-211
3.86046e-212
8.90796e-213
1.83172e-213
2.67157e-214
2.57119e-215
1.37805e-216
2.67687e-217
2.7357e-217
1.56178e-217
1.66985e-218
1.73208e-219
2.04705e-220
2.65303e-221
3.3954e-222
5.60093e-223
1.39013e-223
1.29081e-224
5.78926e-226
1.83636e-227
4.81477e-229
8.52089e-231
1.00999e-232
8.65863e-235
5.70807e-237
2.97936e-239
1.2015e-241
3.38112e-244
1.46257e-206
9.80702e-207
6.45183e-207
4.35615e-207
3.76757e-207
4.78522e-207
7.29574e-207
8.43422e-207
2.94877e-207
5.50778e-208
7.75571e-209
2.59721e-209
1.2831e-209
3.30306e-210
4.37332e-211
4.56987e-212
5.38292e-213
8.6875e-214
2.01882e-214
4.0033e-215
4.68207e-216
3.51775e-217
4.09035e-218
3.9738e-219
2.14886e-219
8.9667e-220
1.13122e-220
1.45082e-221
2.07044e-222
3.11075e-223
4.38997e-224
1.40632e-224
4.87044e-225
4.43544e-226
1.64858e-227
3.70036e-229
7.03817e-231
1.03635e-232
1.1196e-234
9.29376e-237
6.18487e-239
3.36761e-241
1.47318e-243
4.9787e-246
6.01497e-208
4.00382e-208
2.28749e-208
1.43417e-208
1.11264e-208
1.23648e-208
2.07898e-208
2.94936e-208
3.21097e-208
8.93599e-209
1.54812e-209
2.30826e-210
7.59218e-211
3.2329e-211
7.637e-212
9.93094e-213
1.05274e-213
1.21966e-214
1.8885e-215
4.04138e-216
6.70643e-217
1.12433e-217
1.36781e-218
4.50056e-220
2.40919e-221
1.05578e-221
3.49881e-222
4.31988e-223
6.20957e-224
1.09666e-224
1.99096e-225
4.56663e-226
3.19688e-226
1.37756e-226
1.05783e-227
3.04157e-229
5.6727e-231
8.95431e-233
1.12903e-234
1.12094e-236
9.0276e-239
6.06525e-241
3.43533e-243
1.59235e-245
5.84231e-248
2.21217e-209
1.13877e-209
5.36769e-210
3.0711e-210
2.56033e-210
3.80869e-210
7.79889e-210
1.06015e-209
1.02923e-209
2.42495e-210
3.80506e-211
5.83526e-212
1.88923e-212
7.33279e-213
1.64574e-213
2.14245e-214
2.25212e-215
2.38968e-216
3.12206e-217
7.03524e-218
1.99898e-218
2.94488e-219
1.59918e-220
3.96888e-222
1.73141e-223
5.66008e-224
1.35749e-224
1.43402e-225
1.8151e-226
3.18496e-227
6.41704e-228
3.81895e-228
5.46798e-228
2.64113e-228
1.75776e-229
4.37269e-231
7.12946e-233
9.53908e-235
1.05929e-236
9.8922e-239
7.85204e-241
5.36301e-243
3.14005e-245
1.51095e-247
5.35093e-250
1.14413e-210
4.30537e-211
1.6632e-211
7.80342e-212
6.19468e-212
1.05474e-211
2.20521e-211
2.7641e-211
2.25484e-211
4.77751e-212
6.73823e-213
1.03428e-213
3.34276e-214
1.21563e-214
2.63894e-215
3.46699e-216
3.57943e-217
3.53781e-218
5.06212e-219
1.50398e-219
3.40723e-220
3.65492e-221
1.73325e-222
3.71385e-224
1.3451e-225
3.34107e-226
6.13046e-227
5.75575e-228
6.26223e-229
9.40913e-230
1.77683e-230
2.56076e-230
6.32821e-230
3.33999e-230
2.11956e-231
4.99922e-233
8.7782e-212
1.80458e-212
6.08151e-213
2.41078e-213
1.68696e-213
2.72935e-213
5.08227e-213
5.65935e-213
3.44544e-213
6.38928e-214
7.47171e-215
1.08541e-215
3.46806e-216
1.21878e-216
2.71673e-217
3.97994e-218
4.3397e-219
4.36726e-220
6.85682e-221
2.00512e-221
4.15082e-222
3.83217e-223
1.49721e-224
2.94339e-226
9.43149e-228
1.82745e-228
2.77175e-229
2.49191e-230
2.55523e-231
3.53495e-232
6.52587e-233
1.64987e-232
5.49371e-232
3.02064e-232
1.88344e-233
1.99785e-213
4.67351e-214
1.46119e-214
5.43478e-215
3.50075e-215
4.67231e-215
7.81253e-215
8.45276e-215
4.09529e-215
7.19862e-216
7.09217e-217
9.02866e-218
2.71303e-218
9.21204e-219
2.15987e-219
3.54987e-220
4.13132e-221
4.41372e-222
7.55183e-223
2.08634e-223
3.57228e-224
2.75258e-225
9.37361e-227
1.78488e-228
5.21189e-230
8.16265e-231
1.06374e-231
9.3819e-233
9.51962e-234
1.29113e-234
2.53158e-235
9.48296e-235
3.59106e-234
1.90256e-234
1.15963e-235
1.79188e-215
5.1807e-216
1.42964e-216
5.38602e-217
3.54634e-217
4.15975e-217
6.41177e-217
6.79747e-217
2.42103e-217
4.36968e-218
3.98002e-219
4.88123e-220
1.3973e-220
4.58013e-221
1.11365e-221
1.94241e-222
2.30093e-223
2.49358e-224
4.36985e-225
1.08264e-225
1.56222e-226
1.03993e-227
3.21277e-229
5.90375e-231
1.63977e-232
2.18626e-233
2.51533e-234
2.18479e-235
2.22544e-236
3.01762e-237
6.55843e-238
3.26321e-237
1.30875e-236
6.46121e-237
3.79277e-238
1.34171e-201
1.22748e-201
1.20898e-201
1.19396e-201
1.13429e-201
9.53443e-202
6.79948e-202
4.25526e-202
2.34879e-202
1.31295e-202
9.61647e-203
9.31812e-203
8.5767e-203
4.35749e-203
1.10476e-203
2.17158e-204
3.8059e-205
6.14913e-206
8.91481e-207
1.21081e-207
1.64437e-208
2.42238e-209
4.1428e-210
8.15007e-211
1.63438e-211
2.90892e-212
4.53917e-213
6.01493e-214
6.88723e-215
7.41802e-216
8.67598e-217
1.14019e-217
1.38998e-218
1.39844e-219
1.33476e-220
1.1491e-221
6.54334e-223
1.87701e-224
2.72262e-226
2.23373e-228
1.12946e-230
3.69619e-233
7.91859e-236
1.07612e-238
4.24484e-202
3.87695e-202
3.73678e-202
3.61838e-202
3.20899e-202
2.33585e-202
1.59937e-202
1.06546e-202
7.55504e-203
5.76362e-203
2.64939e-203
1.05745e-203
7.32494e-204
3.2928e-204
6.24701e-205
7.7085e-206
1.07829e-206
1.60369e-207
2.64724e-208
3.57022e-209
4.58008e-210
6.71114e-211
1.05876e-211
1.91635e-212
7.49053e-213
1.74332e-213
2.13796e-214
2.5664e-215
3.27784e-216
4.28963e-217
5.61956e-218
7.33359e-219
8.89224e-220
8.257e-221
5.2456e-222
5.1295e-223
2.79025e-224
6.50772e-226
8.72877e-228
7.83003e-230
5.06291e-232
2.4542e-234
8.71757e-237
1.77739e-239
1.1416e-202
1.022e-202
9.31514e-203
8.67443e-203
7.53701e-203
5.51294e-203
3.49969e-203
2.35507e-203
1.92467e-203
1.5229e-203
5.77279e-204
1.45114e-204
5.7023e-205
3.75013e-205
1.27546e-205
1.85659e-206
1.89641e-207
2.26338e-208
3.34846e-209
5.87647e-210
8.57045e-211
1.10223e-211
1.50146e-212
2.2514e-213
4.27159e-214
1.77997e-214
4.64601e-215
6.57501e-216
8.34483e-217
1.10193e-217
1.51244e-218
2.07829e-219
2.86041e-220
3.52928e-221
2.86454e-222
1.43341e-223
1.1217e-224
5.27429e-226
1.21413e-227
1.77266e-229
1.835e-231
1.43091e-233
8.615e-236
3.81662e-238
9.0859e-241
1.44305e-203
1.24578e-203
1.06725e-203
8.79004e-204
6.39589e-204
3.96918e-204
2.53565e-204
1.94504e-204
1.70213e-204
9.70929e-205
2.78492e-205
6.05829e-206
2.2663e-206
1.26045e-206
3.39345e-207
4.11823e-208
3.81471e-209
4.22785e-210
6.06603e-211
1.03365e-211
1.40204e-212
1.55611e-213
2.00762e-214
2.70851e-215
5.96153e-216
2.78595e-216
8.32815e-217
1.40822e-217
2.0303e-218
2.89239e-219
4.19275e-220
6.02811e-221
9.49008e-222
1.72967e-222
1.38355e-223
5.17679e-225
2.15764e-226
8.67555e-228
2.05735e-229
3.20839e-231
3.63758e-233
3.18317e-235
2.18142e-237
1.0944e-239
2.80591e-242
6.60175e-205
5.02426e-205
3.51701e-205
2.14214e-205
1.29191e-205
9.35047e-206
8.57753e-206
8.92284e-206
3.98825e-206
9.66633e-207
1.96222e-207
7.26678e-208
3.33568e-208
7.56126e-209
8.16226e-210
7.00337e-211
6.88559e-212
8.64196e-213
1.26078e-213
1.42647e-214
1.55029e-215
1.59583e-216
1.88872e-217
5.65984e-218
3.32442e-218
1.24309e-218
2.2387e-219
3.4757e-220
5.39604e-221
8.4854e-222
1.31041e-222
3.2676e-223
8.37947e-224
7.13433e-225
2.68764e-226
6.54079e-228
1.6848e-229
3.63061e-231
5.66623e-233
6.69408e-235
6.26853e-237
4.70236e-239
2.69798e-241
1.02657e-243
2.73324e-206
1.80001e-206
1.07271e-206
6.1149e-207
4.01894e-207
3.42307e-207
3.47426e-207
3.48609e-207
1.25181e-207
2.85418e-208
5.91363e-209
2.06946e-209
7.73747e-210
1.48412e-210
1.43561e-211
1.10085e-212
8.98971e-214
8.90235e-215
1.15874e-215
1.46433e-216
1.2826e-217
1.35281e-218
1.98316e-219
4.99147e-220
2.76845e-220
1.05125e-220
2.00305e-221
3.45878e-222
6.27507e-223
1.14418e-223
2.1441e-224
1.00014e-224
3.25337e-225
2.51671e-226
7.51356e-228
1.49762e-229
3.24499e-231
6.23667e-233
9.36127e-235
1.11851e-236
1.09138e-238
8.72101e-241
5.50718e-243
2.59149e-245
1.79376e-207
1.10683e-207
6.1355e-208
3.23354e-208
1.83501e-208
1.32825e-208
1.24151e-208
1.28371e-208
1.09879e-208
3.24053e-209
6.85171e-210
1.388e-210
4.39095e-211
1.34772e-211
2.17299e-212
1.8443e-213
1.22689e-214
8.3026e-216
8.30793e-217
1.2256e-217
1.65541e-218
3.29752e-219
4.46501e-220
2.63511e-221
4.8869e-222
2.19156e-222
6.63104e-223
1.13415e-223
1.95717e-224
4.04973e-225
8.82399e-226
2.70071e-226
2.46086e-226
9.21417e-227
5.772e-228
1.44516e-229
2.9281e-231
5.81811e-233
1.00524e-234
1.43615e-236
1.708e-238
1.70664e-240
1.42363e-242
9.52947e-245
4.83194e-247
9.41998e-209
4.85412e-209
2.23701e-209
1.0305e-209
5.46319e-210
4.00901e-210
3.83834e-210
3.79975e-210
2.5677e-210
6.13071e-211
1.11059e-211
2.11237e-212
5.83482e-213
1.47605e-213
2.01973e-214
1.56568e-215
1.00409e-216
7.50402e-218
8.9573e-219
2.16612e-219
6.25573e-220
1.00819e-220
8.31983e-222
4.09155e-223
5.74768e-224
1.9829e-224
4.58819e-225
6.47132e-226
9.40821e-227
1.74905e-227
3.91791e-228
2.43546e-228
4.15778e-228
1.69563e-228
9.95062e-230
2.59479e-231
5.21715e-233
9.3102e-235
1.45839e-236
1.98781e-238
2.34336e-240
2.37606e-242
2.02465e-244
1.36085e-246
6.38107e-249
7.84615e-210
2.46334e-210
9.77741e-211
3.8861e-211
1.81634e-211
1.20123e-211
1.06505e-211
9.15963e-212
4.43306e-212
8.9026e-213
1.31954e-213
2.104e-214
4.91847e-215
1.05952e-215
1.36514e-216
1.18039e-217
1.00784e-218
1.01995e-219
1.70504e-220
5.47722e-221
1.45798e-221
2.06114e-222
1.50112e-223
6.57028e-225
7.1725e-226
1.97109e-226
3.73991e-227
4.64079e-228
5.85354e-229
9.28732e-230
1.89405e-230
2.00026e-230
5.12655e-230
2.31137e-230
1.45118e-231
4.03272e-233
1.15062e-210
1.2817e-211
4.31951e-212
1.54906e-212
6.54002e-213
3.79306e-213
3.00629e-213
2.17479e-213
7.67907e-214
1.34711e-214
1.7205e-215
2.41605e-216
4.79867e-217
9.33001e-218
1.28163e-218
1.43865e-219
1.5298e-220
1.76687e-221
3.37994e-222
1.12046e-222
2.7258e-223
3.34044e-224
2.1148e-225
8.79188e-227
8.02423e-228
1.81355e-228
2.99684e-229
3.49783e-230
4.15933e-231
6.14033e-232
1.21827e-232
1.8776e-232
5.66059e-232
2.63386e-232
1.72054e-233
2.74569e-212
4.01894e-213
1.29571e-213
4.42167e-214
1.77979e-214
9.47703e-215
6.89291e-215
4.28637e-215
1.22848e-215
2.09308e-216
2.51121e-217
3.26035e-218
5.77059e-219
1.05052e-219
1.5312e-220
1.96374e-221
2.25378e-222
2.71501e-223
5.3945e-224
1.63842e-224
3.36565e-225
3.58459e-226
2.06903e-227
8.41982e-229
6.73428e-230
1.285e-230
1.90603e-231
2.15019e-232
2.51571e-233
3.65337e-234
7.5298e-235
1.60871e-234
5.08933e-234
2.24013e-234
1.45561e-235
2.23699e-214
5.2593e-215
1.58738e-215
5.3389e-216
2.11561e-216
1.07639e-216
7.59729e-217
4.13916e-217
1.01344e-217
1.70838e-218
1.95189e-219
2.41944e-220
3.9589e-221
6.78564e-222
1.00233e-222
1.33945e-223
1.56089e-224
1.9051e-225
3.83344e-226
1.05459e-226
1.87956e-227
1.79729e-228
9.72553e-230
3.87566e-231
2.81657e-232
4.70217e-233
6.36801e-234
6.99501e-235
8.17056e-236
1.19042e-236
2.64258e-237
7.5876e-237
2.43678e-236
9.837e-237
6.13264e-238
1.20667e-201
1.06512e-201
1.01341e-201
9.78268e-202
9.0988e-202
7.64245e-202
5.4132e-202
3.14052e-202
1.53509e-202
7.27253e-203
4.58748e-203
4.12513e-203
3.14438e-203
1.21662e-203
2.81912e-204
5.03824e-205
8.16306e-206
1.21015e-206
1.56916e-207
1.89016e-208
2.36754e-209
3.40618e-210
5.91575e-211
1.15688e-211
2.13254e-212
3.65112e-213
5.69694e-214
7.56406e-215
8.7305e-216
9.84246e-217
1.25648e-217
1.8121e-218
2.40108e-219
2.56895e-220
2.55672e-221
2.19016e-222
1.13314e-223
2.7933e-225
3.55791e-227
2.64199e-229
1.24504e-231
3.88827e-234
8.09673e-237
1.08597e-239
4.04401e-202
3.6097e-202
3.40536e-202
3.18986e-202
2.67469e-202
1.9438e-202
1.30459e-202
7.50238e-203
4.35547e-203
2.74386e-203
1.13137e-203
4.90625e-204
3.07862e-204
1.0258e-204
1.59698e-205
1.89365e-206
2.49506e-207
3.94911e-208
5.01918e-209
5.11302e-210
6.31839e-211
9.10167e-212
1.50529e-212
3.68012e-213
1.20963e-213
2.09919e-214
2.86202e-215
3.7809e-216
5.10974e-217
7.0121e-218
1.01356e-218
1.61448e-219
2.12366e-220
2.04942e-221
1.34139e-222
1.05701e-223
4.74009e-225
1.00242e-226
1.31712e-228
1.21687e-230
8.48141e-233
4.58354e-235
1.84249e-237
4.10107e-240
1.18363e-202
1.04036e-202
9.2702e-203
8.33533e-203
6.8584e-203
4.77738e-203
2.96897e-203
1.81834e-203
1.17402e-203
7.01987e-204
2.44862e-204
6.87092e-205
2.86452e-205
1.57768e-205
4.15442e-206
4.99503e-207
4.82461e-208
5.56007e-209
8.50588e-210
1.16016e-210
1.25801e-211
1.4175e-212
2.03136e-213
3.36014e-214
8.59009e-215
2.95268e-215
6.20386e-216
9.4289e-217
1.31756e-217
1.88342e-218
2.76025e-219
4.25917e-220
7.70448e-221
1.11191e-221
8.57047e-223
3.75473e-224
2.33585e-225
9.75135e-227
2.25618e-228
3.50668e-230
4.03227e-232
3.61181e-234
2.54917e-236
1.3254e-238
3.55117e-241
1.60027e-203
1.34336e-203
1.11172e-203
8.67025e-204
5.86619e-204
3.44278e-204
1.9613e-204
1.18547e-204
7.63389e-205
3.82019e-205
1.17e-205
3.00951e-206
1.18739e-206
5.27242e-207
1.14176e-207
1.18164e-208
1.04115e-209
1.11331e-210
1.56791e-211
2.02225e-212
1.9716e-213
2.03678e-214
2.79595e-215
4.66939e-216
1.35792e-216
5.00077e-217
1.19752e-217
2.11033e-218
3.29116e-219
5.09311e-220
7.95392e-221
1.28943e-221
3.10414e-222
5.95743e-223
4.01121e-224
1.20515e-225
4.58241e-227
1.87004e-228
4.78927e-230
8.40062e-232
1.10748e-233
1.15262e-235
9.50014e-238
5.70145e-240
1.67804e-242
7.83561e-205
5.71213e-205
3.7135e-205
2.10803e-205
1.12621e-205
6.45587e-206
4.30654e-206
3.38038e-206
1.4651e-206
3.98278e-207
9.93423e-208
3.80175e-208
1.425e-208
2.72594e-209
2.6247e-210
2.14121e-211
1.9901e-212
2.30635e-213
2.38841e-214
1.94976e-215
1.9491e-216
2.56847e-217
4.66408e-218
1.61254e-218
6.29754e-219
1.71162e-219
3.34248e-220
5.74153e-221
9.77378e-222
1.67452e-222
3.18041e-223
1.20708e-223
2.96853e-224
1.97234e-225
5.5034e-227
1.28111e-228
4.06705e-230
1.0401e-231
1.92776e-233
2.74775e-235
3.14416e-237
2.89285e-239
2.01728e-241
9.0954e-244
3.9492e-206
2.47914e-206
1.36613e-206
6.98073e-207
3.69825e-207
2.26072e-207
1.64778e-207
1.28982e-207
4.80473e-208
1.26968e-208
3.22997e-209
1.14724e-209
3.64622e-210
6.09221e-211
5.38607e-212
3.89229e-213
2.91939e-214
2.46198e-215
1.97166e-216
1.54437e-217
1.48683e-218
2.1545e-219
4.63589e-220
1.67023e-220
6.13645e-221
1.6411e-221
3.23821e-222
6.01231e-223
1.17361e-223
2.33256e-224
6.13548e-225
3.93634e-225
1.11579e-225
6.13946e-227
1.41885e-228
3.25392e-230
9.25212e-232
2.22288e-233
4.12548e-235
6.12249e-237
7.45136e-239
7.40539e-241
5.74978e-243
3.25345e-245
3.45806e-207
2.08439e-207
1.11471e-207
5.41871e-208
2.60433e-208
1.37345e-208
8.76364e-209
6.60861e-209
4.63392e-209
1.46808e-209
3.71374e-210
9.22625e-211
2.90861e-211
7.65056e-212
1.07244e-212
8.28796e-214
5.00787e-215
2.87748e-216
1.98135e-217
1.52464e-218
1.3299e-219
2.08826e-220
3.62217e-221
6.10267e-222
1.95039e-222
6.10593e-223
1.37867e-223
2.36236e-224
4.09267e-225
8.34728e-226
1.89304e-226
8.00259e-227
9.22069e-227
2.80285e-227
1.32724e-228
3.25845e-230
8.02079e-232
2.05586e-233
4.53247e-235
8.21282e-237
1.23729e-238
1.56176e-240
1.62889e-242
1.33999e-244
8.15339e-247
2.23451e-208
1.15528e-208
5.35955e-209
2.34704e-209
1.0428e-209
5.28604e-210
3.31099e-210
2.4106e-210
1.39072e-210
3.84124e-211
8.58405e-212
1.96091e-212
5.22426e-213
1.09868e-213
1.25671e-214
8.18205e-216
4.29499e-217
2.27852e-218
1.56664e-219
1.73389e-220
3.38134e-221
6.26964e-222
8.02009e-223
1.03338e-223
2.72141e-224
7.20977e-225
1.36461e-225
1.96534e-226
2.84437e-227
4.96594e-228
1.0637e-228
7.1591e-229
1.42577e-228
4.81876e-229
2.54989e-230
7.49595e-232
1.85725e-233
4.23536e-235
8.53406e-237
1.48615e-238
2.23582e-240
2.86958e-242
3.04826e-244
2.49834e-246
1.38069e-248
3.34005e-209
6.93019e-210
2.80886e-210
1.10787e-210
4.49861e-211
2.10636e-211
1.22413e-211
8.12064e-212
3.64181e-212
9.04038e-213
1.76612e-213
3.46083e-214
7.42104e-215
1.24584e-215
1.20285e-216
7.21429e-218
3.8057e-219
2.23482e-220
2.09089e-221
4.10739e-222
1.02617e-222
1.76025e-223
1.88027e-224
1.93348e-225
4.0861e-226
9.36812e-227
1.56031e-227
2.01491e-228
2.58715e-229
3.94717e-230
7.75427e-231
7.32165e-231
1.90873e-230
7.32851e-231
4.58087e-232
1.48405e-233
8.63206e-210
4.56396e-211
1.40132e-211
5.04313e-212
1.8992e-212
8.19273e-213
4.36615e-213
2.54742e-213
9.18008e-214
2.09209e-214
3.67301e-215
6.38665e-216
1.16156e-216
1.66651e-217
1.49761e-218
9.36985e-220
5.51605e-221
3.7831e-222
4.38112e-223
1.0454e-223
2.49867e-224
3.73656e-225
3.50994e-226
3.193e-227
5.55137e-228
1.11933e-228
1.70278e-229
2.08174e-230
2.54539e-231
3.67817e-232
7.17096e-233
9.14567e-233
2.56592e-232
1.00641e-232
6.74891e-234
2.1443e-211
1.53411e-212
4.80964e-213
1.63075e-213
5.87737e-214
2.39045e-214
1.19112e-214
6.1658e-215
1.90312e-215
4.0494e-216
6.7467e-217
1.08492e-217
1.75181e-218
2.26587e-219
1.97116e-220
1.29429e-221
8.17095e-223
5.99376e-224
7.5328e-225
1.78166e-225
3.77615e-226
5.0461e-227
4.41166e-228
3.76777e-229
5.5833e-230
9.99772e-231
1.41323e-231
1.67468e-232
2.02047e-233
2.89346e-234
5.90639e-235
9.96656e-235
2.79582e-234
1.02837e-234
6.94986e-236
1.46564e-213
2.15351e-214
6.85417e-215
2.24884e-215
7.88671e-216
3.06324e-216
1.4729e-216
6.84227e-217
1.87625e-217
3.85466e-218
6.0907e-219
9.19292e-220
1.35332e-220
1.60789e-221
1.34137e-222
8.83708e-224
5.65628e-225
4.22154e-226
5.49923e-227
1.23128e-227
2.35128e-228
2.92109e-229
2.47186e-230
2.03896e-231
2.66225e-232
4.29435e-233
5.68839e-234
6.58461e-235
7.93981e-236
1.14571e-236
2.54869e-237
5.56963e-237
1.53544e-236
5.14851e-237
3.34676e-238
1.16087e-201
9.8541e-202
8.93561e-202
8.36074e-202
7.73104e-202
6.57888e-202
4.5684e-202
2.4722e-202
1.0799e-202
4.34588e-203
2.19157e-203
1.60159e-203
9.45335e-204
3.00485e-204
6.0953e-205
1.00768e-205
1.53778e-206
2.1391e-207
2.55647e-208
2.83977e-209
3.33959e-210
4.49787e-211
7.02265e-212
1.16896e-212
2.0292e-213
3.63144e-214
5.89912e-215
7.8936e-216
9.22523e-217
1.08504e-217
1.50167e-218
2.42155e-219
3.56357e-220
4.13563e-221
4.31149e-222
3.54383e-223
1.53986e-224
3.06691e-226
3.32056e-228
2.18566e-230
9.39377e-233
2.75102e-235
5.48422e-238
7.16854e-241
3.89362e-202
3.3787e-202
3.09767e-202
2.80266e-202
2.278e-202
1.67255e-202
1.0517e-202
5.0063e-203
2.31989e-203
1.18525e-203
4.50399e-204
1.94066e-204
9.57437e-205
2.41021e-205
3.2298e-206
3.80824e-207
5.68551e-208
7.76949e-209
7.15519e-210
6.27847e-211
7.2184e-212
1.00448e-212
2.14911e-213
5.77473e-214
1.31727e-214
2.07218e-215
3.10278e-216
4.5711e-217
6.21652e-218
8.70627e-219
1.41654e-219
2.85729e-220
4.27731e-221
4.0706e-222
2.528e-223
1.69175e-224
6.18182e-226
1.17324e-227
1.48701e-229
1.38978e-231
1.01879e-233
5.94034e-236
2.58761e-238
6.02179e-241
1.1927e-202
1.02279e-202
8.87063e-203
7.70294e-203
6.04903e-203
4.06782e-203
2.42458e-203
1.26535e-203
6.05847e-204
2.85727e-204
9.59204e-205
2.77654e-205
1.15239e-205
4.80123e-206
9.81786e-207
1.02425e-207
9.83696e-209
1.25385e-209
1.71124e-210
1.73096e-211
1.5436e-212
1.53672e-213
2.19404e-214
4.51455e-215
1.27797e-215
3.49433e-216
6.65849e-217
1.0603e-217
1.61702e-218
2.40953e-219
3.65542e-220
6.81771e-221
1.56929e-221
2.48554e-222
1.67289e-223
6.48267e-225
3.75129e-226
1.42979e-227
3.26604e-229
5.26378e-231
6.50144e-233
6.43348e-235
5.08199e-237
2.93823e-239
8.44483e-242
1.69202e-203
1.374e-203
1.09464e-203
8.07451e-204
5.12232e-204
2.80558e-204
1.39331e-204
6.48209e-205
3.00465e-205
1.3341e-205
4.3398e-206
1.20818e-206
4.59292e-207
1.59898e-207
2.77421e-208
2.6069e-209
2.3466e-210
2.70929e-211
3.45399e-212
3.43508e-213
2.80153e-214
2.52076e-215
3.52127e-216
7.20929e-217
2.17254e-217
6.42275e-218
1.37599e-218
2.44502e-219
3.99578e-220
6.43747e-221
1.03672e-221
2.20154e-222
7.07825e-223
1.32069e-223
6.61275e-225
1.65319e-226
7.65441e-228
3.24754e-229
8.67122e-231
1.64074e-232
2.40044e-234
2.82346e-236
2.6435e-238
1.78024e-240
5.67047e-243
8.90454e-205
6.13411e-205
3.71741e-205
1.94112e-205
9.21096e-206
4.23527e-206
2.03222e-206
1.1071e-206
4.73923e-207
1.42803e-207
4.01391e-208
1.46726e-208
4.5638e-209
7.39623e-210
6.83666e-211
5.81545e-212
5.83367e-213
6.39635e-214
5.56221e-215
3.76847e-216
3.31862e-217
4.57771e-218
9.75825e-219
3.05778e-219
9.05629e-220
2.05771e-220
3.90276e-221
6.83675e-222
1.19518e-222
2.13215e-223
5.92058e-224
2.90032e-224
6.21779e-225
2.84397e-226
6.18839e-228
1.98703e-229
7.98681e-231
2.28532e-232
4.74327e-234
7.69505e-236
1.01051e-237
1.06564e-239
8.41027e-242
4.19312e-244
5.09078e-206
3.01856e-206
1.5509e-206
7.21501e-207
3.19938e-207
1.45706e-207
7.44903e-208
4.30434e-208
1.66235e-208
4.97274e-209
1.42402e-209
4.86129e-210
1.34616e-210
2.02972e-211
1.81014e-212
1.40455e-213
1.17437e-214
1.02581e-215
7.27082e-217
4.63278e-218
4.07053e-219
5.84461e-220
1.3282e-220
4.00647e-221
1.0753e-221
2.28729e-222
4.17455e-223
7.38241e-224
1.39949e-224
2.8736e-225
1.15314e-225
9.04319e-226
2.05195e-226
7.67837e-228
1.7196e-229
5.67164e-231
2.07975e-232
5.84969e-234
1.25579e-235
2.16136e-237
3.0512e-239
3.49769e-241
3.09171e-243
1.95339e-245
5.11976e-207
3.03782e-207
1.56401e-207
7.1951e-208
3.10764e-208
1.31899e-208
6.0522e-209
3.20077e-209