/*--------------------------------*- C++ -*----------------------------------*\
| =========                 |                                                 |
| \\      /  F ield         | OpenFOAM: The Open Source CFD Toolbox           |
|  \\    /   O peration     | Version:  2.3.1                                 |
|   \\  /    A nd           | Web:      www.OpenFOAM.org                      |
|    \\/     M anipulation  |                                                 |
\*---------------------------------------------------------------------------*/
FoamFile
{
    version     2.0;
    format      ascii;
    class       volScalarField;
    location    "15";
    object      Sed_0;
}
// * * * * * * * * * * * * * * * * * * * * * * * * * * * * * * * * * * * * * //

dimensions      [0 0 0 0 0 0 0];

internalField   nonuniform List<scalar> 
38152
(
2.65985e-201
2.43224e-201
2.36759e-201
2.32895e-201
2.22217e-201
1.87518e-201
1.39616e-201
9.93287e-202
6.8622e-202
5.1585e-202
4.5144e-202
4.27132e-202
3.80938e-202
2.1911e-202
7.1117e-203
1.8185e-203
4.06105e-204
7.8869e-205
1.41221e-205
2.52409e-206
4.51427e-207
8.14388e-208
1.46468e-208
2.56513e-209
4.8568e-210
9.25924e-211
1.54674e-211
2.18192e-212
2.66326e-213
2.76897e-214
2.75574e-215
2.88693e-216
2.79803e-217
2.38264e-218
2.05464e-219
1.69931e-220
1.01228e-221
3.26522e-223
5.21428e-225
4.4227e-227
2.15919e-229
6.32425e-232
1.10121e-234
1.0676e-237
4.5167e-202
4.11123e-202
4.0653e-202
4.24724e-202
4.35523e-202
3.89549e-202
2.31871e-202
1.64134e-202
1.67817e-202
1.63669e-202
9.89355e-203
2.33706e-203
1.49363e-203
9.41192e-204
2.33719e-204
4.42508e-205
5.53492e-206
6.46527e-207
1.05202e-207
2.85312e-208
7.60959e-209
1.52986e-209
1.56511e-210
2.02472e-211
6.2475e-212
5.21684e-212
7.95868e-213
6.39321e-214
1.05125e-214
1.16471e-215
1.15749e-216
1.0816e-217
9.78134e-219
7.03012e-220
3.48947e-221
5.86914e-222
4.14156e-223
1.03819e-224
1.27093e-226
8.97196e-229
3.9189e-231
1.08568e-233
1.85801e-236
1.88189e-239
6.6932e-203
6.01593e-203
5.64873e-203
5.683e-203
5.66143e-203
4.60072e-203
2.54618e-203
1.72779e-203
1.94265e-203
3.17211e-203
1.93586e-203
1.86029e-204
3.13252e-205
2.64564e-205
1.60329e-205
3.20049e-206
4.42018e-207
3.60831e-208
3.91571e-209
1.02348e-209
4.56044e-210
1.39235e-210
2.89264e-211
3.33301e-212
3.65171e-213
2.40039e-213
2.20081e-213
3.38048e-214
2.42004e-215
1.96136e-216
1.70338e-217
1.52979e-218
1.46866e-219
1.20872e-220
8.70925e-222
6.51652e-223
1.17384e-223
6.80429e-225
1.36849e-226
1.43355e-228
9.02934e-231
3.62614e-233
9.52132e-236
1.60475e-238
1.696e-241
4.39449e-204
3.91991e-204
3.40482e-204
3.01571e-204
2.31906e-204
1.34414e-204
9.14828e-205
1.97212e-204
3.30918e-204
3.14837e-204
7.95352e-205
3.62594e-206
6.15475e-207
5.62148e-207
2.59783e-207
4.62328e-208
5.71659e-209
4.75046e-210
6.5889e-211
2.21162e-211
1.12309e-211
3.54799e-212
7.18356e-213
8.01219e-214
9.22455e-215
1.03202e-214
1.00761e-214
1.73374e-215
1.14849e-216
6.72557e-218
4.21003e-219
3.0043e-220
2.25251e-221
3.06898e-222
2.71669e-223
1.48982e-224
1.63902e-225
7.9872e-227
1.39185e-228
1.26221e-230
6.96854e-233
2.51996e-235
6.18484e-238
1.01206e-240
1.10138e-243
1.19859e-205
8.4559e-206
6.6331e-206
5.06388e-206
4.8934e-206
9.85083e-206
2.34197e-205
3.06944e-205
1.48465e-205
2.20882e-206
9.31179e-208
2.10978e-208
1.55326e-208
5.6839e-209
1.00346e-209
1.28192e-210
1.20857e-211
2.01531e-212
8.05514e-213
4.44627e-213
1.42629e-213
2.79639e-214
3.16636e-215
3.97591e-216
3.94565e-216
2.97029e-216
2.87289e-217
1.14814e-218
5.75633e-220
3.55391e-221
2.53405e-222
3.19641e-223
9.75794e-224
9.95067e-225
5.12763e-226
2.73304e-227
9.04069e-229
1.2994e-230
9.97045e-233
4.74973e-235
1.53295e-237
3.56875e-240
6.44157e-243
9.94224e-246
2.71218e-207
1.69532e-207
1.38934e-207
1.43272e-207
3.12262e-207
8.22815e-207
1.52539e-206
1.73245e-206
5.2934e-207
6.49742e-208
3.26916e-209
8.35499e-210
4.95154e-210
1.57902e-210
2.87208e-211
3.85579e-212
4.10362e-213
7.95067e-214
3.80669e-214
2.14854e-214
6.6665e-215
1.14643e-215
9.80743e-217
7.97323e-218
4.88968e-218
1.85413e-218
6.68659e-220
2.97874e-221
1.82552e-222
1.37742e-223
1.1593e-224
4.85477e-225
2.55043e-225
2.74144e-226
1.25406e-227
4.32712e-229
9.22461e-231
9.97077e-233
6.22633e-235
2.5388e-237
7.3984e-240
1.73433e-242
3.71717e-245
8.142e-248
7.31576e-209
5.0637e-209
3.32078e-209
3.21288e-209
6.96361e-209
2.32135e-208
6.76612e-208
1.03513e-207
1.07287e-207
2.41847e-208
2.49636e-209
1.39836e-210
3.65573e-211
1.83805e-211
5.48399e-212
1.05788e-212
1.48583e-213
1.73683e-214
3.79579e-215
2.06604e-215
1.09151e-215
2.81996e-216
3.26223e-217
1.33375e-218
3.68373e-220
7.97231e-221
2.18626e-221
7.78823e-223
4.01723e-224
3.00042e-225
2.85789e-226
7.52375e-227
9.2074e-227
6.29181e-227
6.15945e-228
2.19611e-229
5.14033e-231
7.44734e-233
6.08406e-235
3.09102e-237
1.10234e-239
3.15331e-242
8.72611e-245
2.5533e-247
7.28995e-250
1.86379e-210
1.03153e-210
6.89357e-211
1.27665e-210
4.30013e-210
1.72397e-209
5.27687e-209
7.57989e-209
7.01964e-209
1.35256e-209
1.20136e-210
6.90167e-212
1.74096e-212
7.83464e-213
2.30751e-213
4.77989e-214
6.87298e-215
8.70619e-216
1.9395e-216
9.96161e-217
4.07844e-217
7.15753e-218
4.3942e-219
8.29529e-221
8.09247e-223
1.05845e-223
2.13808e-224
7.62045e-226
4.2792e-227
3.74951e-228
4.59e-229
5.52646e-229
1.49051e-228
1.17027e-228
9.79851e-230
2.6394e-231
4.30626e-233
4.42968e-235
2.75422e-237
1.18781e-239
4.07758e-242
1.36357e-244
5.1209e-247
1.9324e-249
5.73231e-252
7.0368e-212
2.91717e-212
1.78643e-212
4.03651e-212
1.83445e-211
9.03445e-211
2.91224e-210
4.28519e-210
3.62733e-210
6.61659e-211
5.32757e-212
3.1155e-213
7.59441e-214
3.17094e-214
9.38222e-215
2.05454e-215
2.90872e-216
3.53281e-217
7.03912e-218
3.04555e-218
8.69098e-219
9.75912e-220
3.4273e-221
3.32466e-223
1.35811e-225
1.32335e-226
1.9966e-227
7.62171e-229
4.80929e-230
4.90283e-231
7.60951e-232
3.52523e-231
1.65323e-230
1.38124e-230
9.88598e-232
2.13832e-233
3.52898e-213
9.84342e-214
4.83914e-214
7.43438e-214
3.67106e-213
2.0608e-212
7.3635e-212
1.16306e-211
9.39185e-212
1.71132e-212
1.34074e-213
8.33918e-215
2.06853e-215
8.24709e-216
2.47828e-216
5.48596e-217
7.18349e-218
7.94602e-219
1.45254e-219
5.08505e-220
1.00231e-220
7.26956e-222
1.52464e-223
8.99621e-226
2.42088e-228
1.8297e-229
2.15013e-230
9.84641e-232
7.39456e-233
8.66773e-234
1.71311e-234
1.66077e-233
1.11711e-232
9.56734e-233
6.13401e-234
7.23181e-215
2.08366e-215
8.19311e-216
8.09731e-216
3.40222e-215
1.70047e-214
6.52327e-214
1.15831e-213
9.21826e-214
1.75225e-214
1.40136e-215
9.6753e-217
2.55722e-217
1.01958e-217
3.2056e-218
7.14521e-219
8.75603e-220
8.93601e-221
1.5043e-221
4.14978e-222
5.72833e-223
2.88127e-224
4.17294e-226
1.82407e-228
4.70873e-231
2.91533e-232
2.97761e-233
1.89306e-234
1.71571e-235
2.20364e-236
5.10911e-237
5.35432e-236
4.32229e-235
3.7289e-235
2.23098e-236
6.16199e-217
2.04201e-217
6.24804e-218
5.39499e-218
1.96748e-217
8.93052e-217
2.58469e-216
5.11621e-216
3.26912e-216
6.8602e-217
5.47114e-218
4.19321e-219
1.1928e-219
4.89954e-220
1.63883e-220
3.67208e-221
4.27227e-222
4.0836e-223
6.43329e-224
1.43567e-224
1.49595e-225
5.71169e-227
6.42395e-229
2.4352e-231
7.48168e-234
4.56843e-235
4.31107e-236
3.20205e-237
3.09668e-238
4.07765e-239
1.07145e-239
1.02086e-238
8.36873e-238
6.95642e-238
4.00669e-239
1.67702e-201
1.55208e-201
1.54617e-201
1.55429e-201
1.50005e-201
1.26776e-201
9.12962e-202
6.116e-202
3.78649e-202
2.47171e-202
1.96308e-202
1.9151e-202
1.91232e-202
1.2111e-202
3.3911e-203
7.3095e-204
1.41352e-204
2.48825e-205
4.00631e-206
6.18741e-207
9.45724e-208
1.49212e-208
2.54118e-209
4.71484e-210
9.41833e-211
1.7879e-211
2.92683e-212
4.04373e-213
4.66615e-214
4.87385e-215
5.18785e-216
6.24179e-217
7.04251e-218
6.60421e-219
6.01308e-220
5.10339e-221
3.05026e-222
9.57581e-224
1.50469e-225
1.30475e-227
6.81371e-230
2.25802e-232
4.81657e-235
6.41787e-238
4.47864e-202
4.13175e-202
4.04277e-202
4.04317e-202
3.81909e-202
2.94818e-202
1.93619e-202
1.39304e-202
1.16271e-202
1.04379e-202
5.85471e-203
1.86973e-203
1.27162e-203
7.4747e-204
1.69953e-204
2.41516e-205
3.31734e-206
5.09777e-207
8.58505e-208
1.61856e-208
2.33525e-209
3.56931e-210
5.40818e-211
8.87392e-212
3.08718e-212
1.10426e-212
1.30897e-213
1.38527e-214
1.71213e-215
2.15658e-216
2.59648e-217
3.03157e-218
3.32058e-219
2.81538e-220
1.65319e-221
2.00815e-222
1.2794e-223
3.17111e-225
4.1699e-227
3.44438e-229
1.94439e-231
7.83185e-234
2.22635e-236
3.79246e-239
1.02523e-202
9.27332e-203
8.59556e-203
8.25773e-203
7.58149e-203
5.84605e-203
3.70627e-203
2.54114e-203
2.42806e-203
2.62039e-203
1.20332e-203
2.20174e-204
7.66234e-205
5.57941e-205
2.50822e-205
4.43389e-206
5.01544e-207
5.96839e-208
8.89015e-209
1.76866e-209
3.73191e-210
5.72713e-211
8.39248e-212
1.06909e-212
1.67034e-213
8.40173e-214
3.23307e-214
3.99424e-215
4.18786e-216
4.70872e-217
5.64952e-218
6.83304e-219
8.17312e-220
8.27909e-221
6.30839e-222
3.66571e-223
4.16914e-224
2.21113e-225
4.84521e-227
6.21369e-229
5.35057e-231
3.30905e-233
1.51451e-235
4.9884e-238
9.42688e-241
1.12573e-203
9.93717e-204
8.73958e-204
7.56264e-204
5.82549e-204
3.73268e-204
2.58805e-204
2.46339e-204
2.87381e-204
2.04608e-204
5.33999e-205
7.79756e-206
2.52778e-206
1.73462e-206
6.08108e-207
9.16298e-208
9.54047e-209
1.11696e-209
1.73715e-210
3.79871e-211
8.00374e-212
1.19449e-212
1.54235e-213
1.37584e-214
2.19319e-215
1.3505e-215
6.24671e-216
9.75175e-217
1.08592e-217
1.20484e-218
1.4314e-219
1.74809e-220
2.05839e-221
3.22517e-222
2.66544e-223
1.17512e-224
6.96099e-226
3.02086e-227
6.27359e-229
7.9251e-231
6.93259e-233
4.49204e-235
2.21264e-237
7.96239e-240
1.59251e-242
4.58023e-205
3.56743e-205
2.70079e-205
1.75035e-205
1.22066e-205
1.10087e-205
1.52874e-205
1.89151e-205
8.93817e-206
1.80082e-206
2.40339e-207
8.05072e-208
4.74342e-208
1.38821e-208
1.93241e-209
2.00213e-210
2.36071e-211
3.78832e-212
8.74379e-213
1.79612e-213
2.61851e-214
2.51721e-215
1.34997e-216
2.63821e-217
2.69954e-217
1.53326e-217
1.63334e-218
1.69326e-219
2.00019e-220
2.59048e-221
3.31306e-222
5.4692e-223
1.35599e-223
1.25721e-224
5.63353e-226
1.78451e-227
4.66645e-229
8.24088e-231
9.75304e-233
8.35123e-235
5.49998e-237
2.8683e-239
1.15586e-241
3.25061e-244
1.45759e-206
9.76882e-207
6.42145e-207
4.33369e-207
3.7479e-207
4.76418e-207
7.2673e-207
8.40162e-207
2.9325e-207
5.46369e-208
7.68143e-209
2.56922e-209
1.26487e-209
3.24539e-210
4.28795e-211
4.48029e-212
5.27898e-213
8.52207e-214
1.98075e-214
3.92434e-215
4.58492e-216
3.44823e-217
4.0067e-218
3.91317e-219
2.1161e-219
8.78644e-220
1.10606e-220
1.41735e-221
2.02171e-222
3.03574e-223
4.2815e-224
1.37401e-224
4.7502e-225
4.31793e-226
1.60293e-227
3.5934e-229
6.82056e-231
1.0023e-232
1.08114e-234
8.96372e-237
5.95933e-239
3.2421e-241
1.41727e-243
4.78687e-246
5.98892e-208
3.9847e-208
2.27531e-208
1.42554e-208
1.10557e-208
1.22894e-208
2.06835e-208
2.93521e-208
3.19489e-208
8.87842e-209
1.53419e-209
2.2834e-210
7.49816e-211
3.18249e-211
7.49676e-212
9.73386e-213
1.0319e-213
1.19574e-214
1.85186e-215
3.96335e-216
6.57041e-217
1.10185e-217
1.33807e-218
4.40306e-220
2.37179e-221
1.03808e-221
3.42287e-222
4.21951e-223
6.0611e-224
1.07014e-224
1.9418e-225
4.45828e-226
3.12458e-226
1.34299e-226
1.02901e-227
2.95512e-229
5.50543e-231
8.67481e-233
1.09181e-234
1.0824e-236
8.70695e-239
5.84414e-241
3.30739e-243
1.532e-245
5.61768e-248
2.1998e-209
1.13174e-209
5.33176e-210
3.04845e-210
2.54079e-210
3.78102e-210
7.74956e-210
1.05407e-209
1.02252e-209
2.40648e-210
3.76647e-211
5.76513e-212
1.86301e-212
7.21049e-213
1.61427e-213
2.09937e-214
2.2069e-215
2.34189e-216
3.05993e-217
6.90327e-218
1.95955e-218
2.88103e-219
1.56321e-220
3.88401e-222
1.70275e-223
5.55678e-224
1.32621e-224
1.39921e-225
1.77013e-226
3.10557e-227
6.25464e-228
3.7318e-228
5.34456e-228
2.5732e-228
1.70867e-229
4.24556e-231
6.91443e-233
9.23674e-235
1.02416e-236
9.55122e-239
7.57288e-241
5.16749e-243
3.02318e-245
1.45374e-247
5.14519e-250
1.13316e-210
4.27411e-211
1.65018e-211
7.73629e-212
6.13957e-212
1.04573e-211
2.18834e-211
2.74453e-211
2.23597e-211
4.73362e-212
6.65995e-213
1.02037e-213
3.29131e-214
1.19387e-214
2.58634e-215
3.39617e-216
3.50613e-217
3.46555e-218
4.96269e-219
1.47533e-219
3.33628e-220
3.57332e-221
1.69382e-222
3.63415e-224
1.3213e-225
3.2755e-226
5.98267e-227
5.61091e-228
6.1025e-229
9.16826e-230
1.73091e-230
2.50388e-230
6.18441e-230
3.25204e-230
2.05919e-231
4.85073e-233
8.59853e-212
1.78882e-212
6.02828e-213
2.38757e-213
1.66997e-213
2.70248e-213
5.03722e-213
5.61122e-213
3.41045e-213
6.32041e-214
7.37328e-215
1.06919e-215
3.40952e-216
1.1955e-216
2.6608e-217
3.8974e-218
4.24882e-219
4.2762e-220
6.72113e-221
1.96551e-221
4.06139e-222
3.74446e-223
1.46274e-224
2.87992e-226
9.25431e-228
1.78924e-228
2.70256e-229
2.42736e-230
2.48846e-231
3.44231e-232
6.35491e-233
1.61328e-232
5.36701e-232
2.93928e-232
1.82873e-233
1.96222e-213
4.63038e-214
1.44725e-214
5.37745e-215
3.46212e-215
4.62107e-215
7.7341e-215
8.37054e-215
4.04744e-215
7.11095e-216
6.98927e-217
8.88266e-218
2.66414e-218
9.02862e-219
2.11479e-219
3.47551e-220
4.04353e-221
4.32041e-222
7.40031e-223
2.04352e-223
3.49246e-224
2.68819e-225
9.15621e-227
1.74621e-228
5.10891e-230
7.9822e-231
1.0364e-231
9.13274e-233
9.26531e-234
1.25654e-234
2.46485e-235
9.26918e-235
3.50627e-234
1.85006e-234
1.12527e-235
1.76774e-215
5.13057e-216
1.41494e-216
5.3239e-217
3.50404e-217
4.1098e-217
6.3399e-217
6.72249e-217
2.39058e-217
4.31102e-218
3.9178e-219
4.79698e-220
1.37074e-220
4.48582e-221
1.09006e-221
1.90099e-222
2.25105e-223
2.43992e-224
4.28026e-225
1.05955e-225
1.52619e-226
1.01518e-227
3.13813e-229
5.77553e-231
1.60602e-232
2.13553e-233
2.449e-234
2.12546e-235
2.16474e-236
2.93508e-237
6.38574e-238
3.18797e-237
1.27702e-236
6.27864e-237
3.67813e-238
1.34161e-201
1.22787e-201
1.20954e-201
1.19434e-201
1.1341e-201
9.51966e-202
6.78262e-202
4.24091e-202
2.3396e-202
1.30872e-202
9.60625e-203
9.3115e-203
8.55008e-203
4.31055e-203
1.08991e-203
2.13915e-204
3.74526e-205
6.04542e-206
8.75851e-207
1.18914e-207
1.61478e-208
2.3793e-209
4.07053e-210
8.00955e-211
1.60539e-211
2.85405e-212
4.44676e-213
5.88348e-214
6.72888e-215
7.24253e-216
8.46865e-217
1.11254e-217
1.35501e-218
1.36221e-219
1.2996e-220
1.11777e-221
6.35247e-223
1.81794e-224
2.63143e-226
2.15513e-228
1.08806e-230
3.55609e-233
7.61001e-236
1.03329e-238
4.24393e-202
3.87661e-202
3.73675e-202
3.61744e-202
3.2054e-202
2.33028e-202
1.59428e-202
1.06159e-202
7.53138e-203
5.74465e-203
2.63571e-203
1.05245e-203
7.28536e-204
3.2524e-204
6.14595e-205
7.57731e-206
1.05996e-206
1.57591e-207
2.59914e-208
3.50162e-209
4.49411e-210
6.5858e-211
1.0391e-211
1.88258e-212
7.37696e-213
1.71038e-213
2.09446e-214
2.51158e-215
3.20517e-216
4.19145e-217
5.48689e-218
7.15609e-219
8.66993e-220
8.04019e-221
5.10822e-222
4.99013e-223
2.70624e-224
6.29748e-226
8.43337e-228
7.55532e-230
4.88001e-232
2.36338e-234
8.38832e-237
1.70907e-239
1.14106e-202
1.02147e-202
9.31002e-203
8.66784e-203
7.52624e-203
5.49872e-203
3.48746e-203
2.34643e-203
1.91852e-203
1.51734e-203
5.73937e-204
1.44137e-204
5.66464e-205
3.71775e-205
1.25748e-205
1.8236e-206
1.86183e-207
2.2223e-208
3.28744e-209
5.76604e-210
8.40224e-211
1.08072e-211
1.47236e-212
2.20828e-213
4.19835e-214
1.75205e-214
4.55789e-215
6.44003e-216
8.16499e-217
1.07732e-217
1.47755e-218
2.02902e-219
2.79065e-220
3.44126e-221
2.78893e-222
1.39464e-223
1.09016e-224
5.11132e-226
1.17445e-227
1.71236e-229
1.77057e-231
1.37933e-233
8.29759e-236
3.67333e-238
8.73905e-241
1.44156e-203
1.24423e-203
1.06564e-203
8.77222e-204
6.37699e-204
3.95351e-204
2.52483e-204
1.93729e-204
1.69592e-204
9.66147e-205
2.76591e-205
6.01053e-206
2.24843e-206
1.24644e-206
3.34031e-207
4.04055e-208
3.74161e-209
4.14729e-210
5.95015e-211
1.01342e-211
1.37345e-212
1.5249e-213
1.96728e-214
2.65571e-215
5.86364e-216
2.74047e-216
8.16693e-217
1.37868e-217
1.98575e-218
2.82688e-219
4.09482e-220
5.88357e-221
9.2648e-222
1.68694e-222
1.34678e-223
5.03435e-225
2.09579e-226
8.40487e-228
1.98967e-229
3.09884e-231
3.50968e-233
3.06849e-235
2.10118e-237
1.05342e-239
2.69917e-242
6.58646e-205
5.01044e-205
3.50466e-205
2.13269e-205
1.28555e-205
9.30484e-206
8.53828e-206
8.88586e-206
3.96485e-206
9.5909e-207
1.94484e-207
7.19769e-208
3.29184e-208
7.43258e-209
8.0018e-210
6.86361e-211
6.7481e-212
8.46822e-213
1.23489e-213
1.39692e-214
1.51818e-215
1.56249e-216
1.85177e-217
5.57007e-218
3.26928e-218
1.21824e-218
2.19019e-219
3.39733e-220
5.27114e-221
8.28373e-222
1.27852e-222
3.19145e-223
8.17188e-224
6.94442e-225
2.61292e-226
6.35106e-228
1.63254e-229
3.5115e-231
5.47282e-233
6.45863e-235
6.04265e-237
4.52945e-239
2.59705e-241
9.87601e-244
2.72356e-206
1.79261e-206
1.06739e-206
6.08094e-207
3.99583e-207
3.40394e-207
3.45595e-207
3.4685e-207
1.24358e-207
2.82925e-208
5.85413e-209
2.04594e-209
7.62358e-210
1.45696e-210
1.40624e-211
1.07795e-212
8.80131e-214
8.71386e-215
1.13491e-215
1.43385e-216
1.25503e-217
1.32563e-218
1.94427e-219
4.9116e-220
2.71992e-220
1.02908e-220
1.95795e-221
3.37841e-222
6.12645e-223
1.11645e-223
2.0931e-224
9.77134e-225
3.17158e-225
2.44804e-226
7.29858e-228
1.45353e-229
3.14444e-231
6.03274e-233
9.04252e-235
1.07924e-236
1.05211e-238
8.40074e-241
5.30148e-243
2.49332e-245
1.78608e-207
1.10152e-207
6.10178e-208
3.21357e-208
1.82272e-208
1.31929e-208
1.23347e-208
1.27569e-208
1.0915e-208
3.21554e-209
6.78379e-210
1.37203e-210
4.33281e-211
1.32561e-211
2.13032e-212
1.80494e-213
1.20035e-214
8.12238e-216
8.13384e-217
1.20047e-217
1.62169e-218
3.231e-219
4.36877e-220
2.58191e-221
4.80559e-222
2.15057e-222
6.48335e-223
1.1075e-223
1.91014e-224
3.95133e-225
8.60539e-226
2.63828e-226
2.40442e-226
8.97653e-227
5.60973e-228
1.40306e-229
2.84088e-231
5.63678e-233
9.72365e-235
1.38732e-236
1.64812e-238
1.64531e-240
1.37141e-242
9.17397e-245
4.6491e-247
9.3684e-209
4.82526e-209
2.22236e-209
1.02302e-209
5.4205e-210
3.97751e-210
3.80922e-210
3.77174e-210
2.54629e-210
6.07376e-211
1.09807e-211
2.08472e-212
5.74676e-213
1.44939e-213
1.97764e-214
1.53132e-215
9.82376e-217
7.34351e-218
8.77642e-219
2.12467e-219
6.12907e-220
9.86372e-221
8.13701e-222
4.00847e-223
5.64674e-224
1.9436e-224
4.48154e-225
6.31353e-226
9.17464e-227
1.70528e-227
3.81853e-228
2.38055e-228
4.06172e-228
1.65069e-228
9.6659e-230
2.5182e-231
5.05894e-233
9.01649e-235
1.41043e-236
1.92014e-238
2.26122e-240
2.29071e-242
1.95042e-244
1.31008e-246
6.13934e-249
7.72955e-210
2.44581e-210
9.70482e-211
3.8543e-211
1.80037e-211
1.19052e-211
1.05577e-211
9.08156e-212
4.38883e-212
8.80649e-213
1.30265e-213
2.07362e-214
4.83713e-215
1.03913e-215
1.33592e-216
1.15498e-217
9.86625e-219
9.98808e-220
1.67129e-220
5.37042e-221
1.42731e-221
2.01548e-222
1.46773e-223
6.43541e-225
7.03949e-226
1.92993e-226
3.65006e-227
4.52434e-228
5.70439e-229
9.04904e-230
1.84504e-230
1.95566e-230
5.00686e-230
2.24892e-230
1.40913e-231
3.91172e-233
1.11852e-210
1.26906e-211
4.28371e-212
1.53507e-212
6.47665e-213
3.75547e-213
2.97698e-213
2.15369e-213
7.59418e-214
1.33097e-214
1.69695e-215
2.37874e-216
4.71445e-217
9.14432e-218
1.2542e-218
1.40805e-219
1.4975e-220
1.73e-221
3.31264e-222
1.09796e-222
2.66656e-223
3.26473e-224
2.06732e-225
8.60945e-227
7.86781e-228
1.77384e-228
2.92278e-229
3.40787e-230
4.05093e-231
5.97933e-232
1.18622e-232
1.83535e-232
5.52623e-232
2.56133e-232
1.66989e-233
2.67575e-212
3.97972e-213
1.28401e-213
4.37803e-214
1.76101e-214
9.37397e-215
6.81844e-215
4.24014e-215
1.21375e-215
2.066e-216
2.47445e-217
3.20672e-218
5.6637e-219
1.02893e-219
1.49823e-220
1.92174e-221
2.20555e-222
2.65752e-223
5.28506e-224
1.60425e-224
3.29013e-225
3.50185e-226
2.02235e-227
8.24352e-229
6.5971e-230
1.25564e-230
1.85768e-231
2.09361e-232
2.44873e-233
3.55556e-234
7.32926e-235
1.57179e-234
4.96554e-234
2.17706e-234
1.41198e-235
2.19517e-214
5.2091e-215
1.57187e-215
5.28148e-216
2.09151e-216
1.06366e-216
7.50692e-217
4.0905e-217
1.00044e-217
1.68457e-218
1.92144e-219
2.37721e-220
3.88184e-221
6.64167e-222
9.80444e-223
1.31034e-223
1.52686e-224
1.86405e-225
3.75387e-226
1.0318e-226
1.83619e-227
1.75525e-228
9.50622e-230
3.7939e-231
2.75687e-232
4.59039e-233
6.20227e-234
6.80679e-235
7.94846e-236
1.15789e-236
2.57191e-237
7.40948e-237
2.37588e-236
9.55379e-237
5.94523e-238
1.20646e-201
1.06522e-201
1.01373e-201
9.78465e-202
9.09677e-202
7.63238e-202
5.39943e-202
3.12854e-202
1.5279e-202
7.24123e-203
4.57718e-203
4.11563e-203
3.1252e-203
1.20306e-203
2.77987e-204
4.95991e-205
8.02748e-206
1.18883e-206
1.54046e-207
1.855e-208
2.32375e-209
3.34455e-210
5.81114e-211
1.13628e-211
2.09296e-212
3.58037e-213
5.57817e-214
7.39576e-215
8.52738e-216
9.60826e-217
1.22633e-217
1.76781e-218
2.34003e-219
2.50166e-220
2.48851e-221
2.12925e-222
1.09915e-223
2.70287e-225
3.43572e-227
2.5469e-229
1.19849e-231
3.73823e-234
7.77608e-237
1.0421e-239
4.04284e-202
3.60905e-202
3.40502e-202
3.18853e-202
2.67106e-202
1.93926e-202
1.30008e-202
7.4692e-203
4.33725e-203
2.73118e-203
1.12469e-203
4.87897e-204
3.05439e-204
1.01218e-204
1.56995e-205
1.86111e-206
2.4512e-207
3.87692e-208
4.92104e-209
5.0134e-210
6.19734e-211
8.92894e-212
1.47723e-212
3.6249e-213
1.18891e-213
2.05725e-214
2.80207e-215
3.69828e-216
4.99443e-217
6.84923e-218
9.89411e-219
1.57547e-219
2.06996e-220
1.99484e-221
1.30497e-222
1.02716e-223
4.59323e-225
9.69401e-227
1.27189e-228
1.17372e-230
8.17271e-233
4.41306e-235
1.77267e-237
3.94307e-240
1.183e-202
1.03975e-202
9.2643e-203
8.32789e-203
6.8471e-203
4.7641e-203
2.95789e-203
1.81044e-203
1.16884e-203
6.98453e-204
2.43249e-204
6.82047e-205
2.84481e-205
1.56146e-205
4.09198e-206
4.90339e-207
4.73498e-208
5.45623e-209
8.34282e-210
1.13677e-210
1.2325e-211
1.38915e-212
1.99155e-213
3.29604e-214
8.45165e-215
2.90146e-215
6.0806e-216
9.22954e-217
1.28854e-217
1.84062e-218
2.69576e-219
4.15767e-220
7.51794e-221
1.08379e-221
8.33703e-223
3.64843e-224
2.26778e-225
9.44434e-227
2.18157e-228
3.38644e-230
3.88999e-232
3.48129e-234
2.45518e-236
1.27567e-238
3.41579e-241
1.59847e-203
1.34156e-203
1.10992e-203
8.65078e-204
5.84711e-204
3.42804e-204
1.95166e-204
1.17935e-204
7.59552e-205
3.79695e-205
1.16117e-205
2.98416e-206
1.17715e-206
5.20766e-207
1.12295e-207
1.15888e-208
1.02087e-209
1.09152e-210
1.5364e-211
1.97978e-212
1.92947e-213
1.99494e-214
2.73958e-215
4.57985e-216
1.33558e-216
4.9113e-217
1.17329e-217
2.06493e-218
3.2175e-219
4.97581e-220
7.7659e-221
1.25842e-221
3.03039e-222
5.80676e-223
3.90069e-224
1.1706e-225
4.44701e-227
1.81083e-228
4.63044e-230
8.11246e-232
1.06846e-233
1.11108e-235
9.1511e-238
5.48842e-240
1.6144e-242
7.81669e-205
5.69566e-205
3.69973e-205
2.09802e-205
1.12011e-205
6.41846e-206
4.28179e-206
3.36237e-206
1.45502e-206
3.94906e-207
9.84061e-208
3.76225e-208
1.40537e-208
2.67786e-209
2.57236e-210
2.09778e-211
1.94925e-212
2.25747e-213
2.33543e-214
1.90693e-215
1.9077e-216
2.51524e-217
4.5751e-218
1.58525e-218
6.18035e-219
1.67583e-219
3.26842e-220
5.6099e-221
9.54439e-222
1.63431e-222
3.10521e-223
1.17885e-223
2.89277e-224
1.91781e-225
5.34433e-227
1.24301e-228
3.93883e-230
1.00567e-231
1.86168e-233
2.65096e-235
3.03092e-237
2.78668e-239
1.94204e-241
8.75152e-244
3.93517e-206
2.46879e-206
1.3592e-206
6.94013e-207
3.67476e-207
2.24598e-207
1.63727e-207
1.28162e-207
4.76846e-208
1.25783e-208
3.19572e-209
1.13334e-209
3.5904e-210
5.9778e-211
5.27449e-212
3.80973e-213
2.85612e-214
2.40636e-215
1.92664e-216
1.50964e-217
1.45429e-218
2.10961e-219
4.54822e-220
1.64082e-220
6.01672e-221
1.60527e-221
3.16382e-222
5.87059e-223
1.14548e-223
2.27552e-224
5.99338e-225
3.8447e-225
1.08666e-225
5.96488e-227
1.37715e-228
3.15676e-230
8.96142e-232
2.14955e-233
3.98437e-235
5.90717e-237
7.18334e-239
7.13397e-241
5.53567e-243
3.13068e-245
3.4438e-207
2.0747e-207
1.10868e-207
5.38548e-208
2.58652e-208
1.36344e-208
8.69913e-209
6.5606e-209
4.59834e-209
1.45544e-209
3.67497e-210
9.11594e-211
2.86837e-211
7.5212e-212
1.05094e-212
8.10798e-214
4.8959e-215
2.81125e-216
1.93512e-217
1.4893e-218
1.30013e-219
2.04409e-220
3.54564e-221
5.98688e-222
1.91459e-222
5.98115e-223
1.34726e-223
2.30597e-224
3.993e-225
8.14181e-226
1.84573e-226
7.82152e-227
9.0046e-227
2.7276e-227
1.28874e-228
3.16209e-230
7.77928e-232
1.99109e-233
4.38311e-235
7.93238e-237
1.19384e-238
1.50565e-240
1.56925e-242
1.29014e-244
7.84592e-247
2.22138e-208
1.14876e-208
5.3257e-209
2.33048e-209
1.03469e-209
5.24257e-210
3.28354e-210
2.39069e-210
1.37797e-210
3.80281e-211
8.48293e-212
1.93464e-212
5.14319e-213
1.07835e-213
1.22991e-214
7.99537e-216
4.19547e-217
2.22472e-218
1.52981e-219
1.69585e-220
3.30961e-221
6.13388e-222
7.8482e-223
1.01347e-223
2.6694e-224
7.05638e-225
1.33245e-225
1.91692e-226
2.77298e-227
4.84015e-228
1.03653e-228
6.99987e-229
1.392e-228
4.68692e-229
2.47553e-230
7.27216e-232
1.80042e-233
4.10071e-235
8.25182e-237
1.43537e-238
2.15731e-240
2.7665e-242
2.93664e-244
2.40535e-246
1.32855e-248
3.26616e-209
6.878e-210
2.78881e-210
1.09915e-210
4.45984e-211
2.0872e-211
1.21285e-211
8.04523e-212
3.60348e-212
8.93838e-213
1.74317e-213
3.40973e-214
7.29588e-215
1.22134e-215
1.17627e-216
7.04605e-218
3.71616e-219
2.18241e-220
2.04376e-221
4.0212e-222
1.0041e-222
1.72134e-223
1.83943e-224
1.89538e-225
4.0049e-226
9.16123e-227
1.52248e-227
1.96399e-228
2.52064e-229
3.84485e-230
7.55281e-231
7.15846e-231
1.86308e-230
7.1255e-231
4.4462e-232
1.43908e-233
8.35688e-210
4.50295e-211
1.38996e-211
4.9994e-212
1.88128e-212
8.11111e-213
4.32172e-213
2.52102e-213
9.07454e-214
2.06611e-214
3.62152e-215
6.28639e-216
1.14084e-216
1.63252e-217
1.46402e-218
9.15106e-220
5.38663e-221
3.69529e-222
4.28472e-223
1.02331e-223
2.44346e-224
3.65227e-225
3.43302e-226
3.12866e-227
5.43673e-228
1.09372e-228
1.66042e-229
2.0279e-230
2.47851e-231
3.58085e-232
6.98142e-233
8.9383e-233
2.50343e-232
9.78083e-233
6.54764e-234
2.078e-211
1.51553e-212
4.76743e-213
1.61531e-213
5.81711e-214
2.36454e-214
1.17785e-214
6.0952e-215
1.87939e-215
3.99519e-216
6.6463e-217
1.06688e-217
1.71895e-218
2.21808e-219
1.92618e-220
1.26385e-221
7.97804e-223
5.8541e-224
7.36682e-225
1.74302e-225
3.69043e-226
4.93051e-227
4.3146e-228
3.69026e-229
5.4636e-230
9.76102e-231
1.37717e-231
1.63039e-232
1.96627e-233
2.81534e-234
5.74862e-235
9.73514e-235
2.72595e-234
9.98842e-235
6.739e-236
1.42783e-213
2.13141e-214
6.78939e-215
2.22563e-215
7.79927e-216
3.02727e-216
1.45502e-216
6.75641e-217
1.85097e-217
3.79928e-218
5.99445e-219
9.0312e-220
1.32666e-220
1.57275e-221
1.31011e-222
8.62633e-224
5.52093e-225
4.122e-226
5.3763e-227
1.20379e-227
2.29662e-228
2.85353e-229
2.41753e-230
1.99617e-231
2.60301e-232
4.1892e-233
5.53947e-234
6.40656e-235
7.72236e-236
1.11416e-236
2.47991e-237
5.43709e-237
1.49598e-236
4.9976e-237
3.24324e-238
1.16055e-201
9.85282e-202
8.93651e-202
8.36221e-202
7.73002e-202
6.57119e-202
4.55632e-202
2.46182e-202
1.07407e-202
4.32195e-203
2.18276e-203
1.59458e-203
9.37678e-204
2.96863e-204
6.00611e-205
9.91449e-206
1.51139e-206
2.1002e-207
2.50829e-208
2.78562e-209
3.27638e-210
4.4142e-211
6.89283e-212
1.14705e-212
1.99113e-213
3.55991e-214
5.77372e-215
7.71511e-216
9.00868e-217
1.05912e-217
1.46549e-218
2.36187e-219
3.47169e-220
4.02563e-221
4.19408e-222
3.44192e-223
1.49162e-224
2.96365e-226
3.20262e-228
2.10464e-230
9.03333e-233
2.64238e-235
5.26244e-238
6.87329e-241
3.89215e-202
3.37774e-202
3.09706e-202
2.80116e-202
2.2749e-202
1.6688e-202
1.04764e-202
4.97962e-203
2.30762e-203
1.1783e-203
4.47362e-204
1.92823e-204
9.47913e-205
2.37535e-205
3.17368e-206
3.74084e-207
5.58378e-208
7.61893e-209
7.00616e-210
6.14752e-211
7.07603e-212
9.8512e-213
2.11247e-213
5.67712e-214
1.29292e-214
2.03062e-215
3.0367e-216
4.46907e-217
6.07241e-218
8.50103e-219
1.3831e-219
2.78786e-220
4.16704e-221
3.9587e-222
2.45638e-223
1.6418e-224
5.98313e-226
1.13357e-227
1.4349e-229
1.3397e-231
9.8125e-234
5.7172e-236
2.48876e-238
5.78813e-241
1.19201e-202
1.02211e-202
8.86432e-203
7.69528e-203
6.03823e-203
4.05617e-203
2.41488e-203
1.25878e-203
6.02351e-204
2.83933e-204
9.52042e-205
2.75435e-205
1.14309e-205
4.74444e-206
9.66041e-207
1.00511e-207
9.65135e-209
1.23e-209
1.6767e-210
1.69394e-211
1.5108e-212
1.50507e-213
2.1509e-214
4.43287e-215
1.2562e-215
3.42957e-216
6.52309e-217
1.03741e-217
1.58066e-218
2.35363e-219
3.56915e-220
6.65651e-221
1.53113e-221
2.42098e-222
1.62509e-223
6.29174e-225
3.63811e-226
1.3837e-227
3.15617e-229
5.08095e-231
6.26981e-233
6.19931e-235
4.89358e-237
2.82751e-239
8.12187e-242
1.69e-203
1.37208e-203
1.09277e-203
8.05541e-204
5.10487e-204
2.79292e-204
1.38559e-204
6.44134e-205
2.98516e-205
1.32469e-205
4.30367e-206
1.19733e-206
4.5479e-207
1.5776e-207
2.72628e-208
2.55619e-209
2.30056e-210
2.65534e-211
3.3815e-212
3.35937e-213
2.73965e-214
2.46767e-215
3.45071e-216
7.07641e-217
2.13479e-217
6.30065e-218
1.34738e-218
2.39125e-219
3.90466e-220
6.28668e-221
1.01198e-221
2.14977e-222
6.90829e-223
1.28598e-223
6.42112e-225
1.60405e-226
7.42184e-228
3.14272e-229
8.37979e-231
1.58391e-232
2.31525e-234
2.72117e-236
2.546e-238
1.71353e-240
5.45496e-243
8.88272e-205
6.11594e-205
3.70318e-205
1.93165e-205
9.15802e-206
4.2075e-206
2.01814e-206
1.09974e-206
4.70244e-207
1.41499e-207
3.97388e-208
1.45061e-208
4.49669e-209
7.26149e-210
6.69969e-211
5.69727e-212
5.71259e-213
6.25677e-214
5.43515e-215
3.68244e-216
3.24685e-217
4.48429e-218
9.57692e-219
3.00279e-219
8.87726e-220
2.01339e-220
3.81436e-221
6.67713e-222
1.16669e-222
2.08053e-223
5.78344e-224
2.8312e-224
6.05182e-225
2.76158e-226
6.00416e-228
1.92664e-229
7.73001e-231
2.20868e-232
4.5792e-234
7.42228e-236
9.7395e-238
1.02641e-239
8.0959e-242
4.03433e-244
5.07282e-206
3.00587e-206
1.54296e-206
7.17224e-207
3.17781e-207
1.44634e-207
7.39285e-208
4.27199e-208
1.64839e-208
4.92341e-209
1.4082e-209
4.79878e-210
1.32461e-210
1.99092e-211
1.77268e-212
1.3749e-213
1.14891e-214
1.00243e-215
7.09842e-217
4.52514e-218
3.98041e-219
5.72385e-220
1.30329e-220
3.93137e-221
1.05309e-221
2.236e-222
4.07659e-223
7.20498e-224
1.36538e-224
2.80281e-225
1.12687e-225
8.82649e-226
1.99569e-226
7.45176e-228
1.66853e-229
5.49963e-231
2.01319e-232
5.65415e-234
1.21244e-235
2.08487e-237
2.94096e-239
3.36908e-241
2.97632e-243
1.87955e-245
5.09931e-207
3.02401e-207
1.55567e-207
7.15148e-208
3.08629e-208
1.30892e-208
6.00311e-209
3.1743e-209