/*--------------------------------*- C++ -*----------------------------------*\
| =========                 |                                                 |
| \\      /  F ield         | OpenFOAM: The Open Source CFD Toolbox           |
|  \\    /   O peration     | Version:  2.3.1                                 |
|   \\  /    A nd           | Web:      www.OpenFOAM.org                      |
|    \\/     M anipulation  |                                                 |
\*---------------------------------------------------------------------------*/
FoamFile
{
    version     2.0;
    format      ascii;
    class       volVectorField;
    location    "15";
    object      U;
}
// * * * * * * * * * * * * * * * * * * * * * * * * * * * * * * * * * * * * * //

dimensions      [0 1 -1 0 0 0 0];

internalField   nonuniform List<vector> 
38152
(
(0.0773669 -0.00468837 -0.00198294)
(0.0886914 -0.00663831 -0.00242178)
(0.100285 -0.00835442 -0.000517176)
(0.101958 -0.00899415 0.00208617)
(0.100895 -0.00559208 0.00102811)
(0.103938 0.0017782 -0.000662443)
(0.103769 0.00449404 -0.000242973)
(0.104069 0.00308548 -0.000741117)
(0.110964 0.00494387 -0.00384924)
(0.121617 0.00275875 -0.00608217)
(0.132035 -0.0057798 -0.00619255)
(0.149661 -0.00862686 -0.00395793)
(0.151435 -0.00286532 0.00215474)
(0.120968 0.00232405 0.00631121)
(0.0958347 0.00212897 0.0030427)
(0.0910721 0.00125878 -0.000125059)
(0.0860692 -1.79904e-05 0.00113528)
(0.0769685 -0.00384672 0.00188231)
(0.0769772 -0.00487369 0.000281797)
(0.0798803 -0.00291029 -0.000707922)
(0.0799728 -0.00297366 -0.00131209)
(0.0842419 -0.00336151 -0.0014417)
(0.0832643 -0.0100837 0.000429619)
(0.0826609 -0.0209799 0.00132196)
(0.0954296 -0.0125049 -7.56603e-05)
(0.0942556 0.0029052 -0.00116404)
(0.0793708 -0.000362468 0.000404391)
(0.0744811 0.00265559 0.00208333)
(0.0671034 0.0132894 0.000658933)
(0.0589888 0.0039516 -0.000945469)
(0.0642763 -0.00586438 -0.000300399)
(0.0691638 0.00174836 0.00163876)
(0.0593069 0.00302962 0.00302309)
(0.0535786 -0.0105476 0.00160027)
(0.0606172 -0.0129476 6.62822e-05)
(0.0547873 0.00105867 0.000575511)
(0.0328988 0.00869109 0.00126565)
(0.0168353 0.00560894 0.00104881)
(0.00918923 0.00239217 0.000576637)
(0.00534079 0.00105624 0.000307668)
(0.00319131 0.000528918 0.00018168)
(0.00188488 0.000300391 0.000119708)
(0.000983325 0.000193023 8.90827e-05)
(0.000298737 0.000140513 7.38606e-05)
(0.0315434 -0.00253109 -0.000336943)
(0.0348152 -0.00329831 -0.000214777)
(0.037236 -0.00327464 -0.00141651)
(0.0432991 -0.000459885 -0.00275951)
(0.0472386 0.00196548 -0.00193536)
(0.0489618 -0.000503508 -0.000161474)
(0.0537549 -0.00150504 0.000167468)
(0.058663 0.00149011 -0.00245801)
(0.0751751 0.00622664 -0.00321514)
(0.078371 0.00793483 0.00247992)
(0.0418942 0.00118859 0.00703166)
(0.015086 -0.00339415 0.00421939)
(0.00919363 0.00132833 0.000547043)
(0.0106747 0.00595477 -0.00100169)
(0.0146725 0.00589491 -0.00139102)
(0.0182146 0.00419532 -0.000477928)
(0.0193045 0.0022984 0.000138065)
(0.0195767 0.000804774 -0.000883254)
(0.0226967 0.00142262 -0.00207309)
(0.0275752 0.00391968 -0.00218692)
(0.0313237 0.00605019 -0.0014854)
(0.0326358 0.00763197 -0.000380715)
(0.0298797 0.00810443 -0.00132589)
(0.0285532 0.00611382 -0.00538717)
(0.0383523 0.00818794 -0.00639309)
(0.0468829 0.0143852 -0.00263702)
(0.0401541 0.0074503 -0.000583542)
(0.0386207 -0.00510278 -0.000777832)
(0.0554377 -0.00462126 -0.000169757)
(0.0631316 -0.00280895 0.00163462)
(0.0562984 -0.00774131 0.00333838)
(0.0577991 -0.0120481 0.00445549)
(0.0540829 -0.0124144 0.00388554)
(0.036077 -0.00197005 0.00144558)
(0.0207556 0.0104338 -4.18544e-06)
(0.0131511 0.0149751 0.000404183)
(0.00949377 0.0120756 0.000811012)
(0.00767588 0.00685589 0.000622761)
(0.00558891 0.00354928 0.000389065)
(0.00386577 0.00190559 0.000245567)
(0.00256954 0.00111344 0.000163608)
(0.00160932 0.000720605 0.000117881)
(0.000852832 0.000524914 8.98446e-05)
(0.000256084 0.000438772 6.57689e-05)
(-0.0070414 -0.00946784 -0.000537685)
(-0.00251485 -0.00963528 -0.000605503)
(0.00240012 -0.00924915 -0.000647111)
(0.0072196 -0.00764456 -0.000659191)
(0.0126522 -0.00431981 -0.000449254)
(0.0183896 -0.00213236 0.000213312)
(0.0221546 -0.00197781 -0.000532645)
(0.026272 -0.00225148 -0.00264455)
(0.0332188 -0.00161025 -0.00115139)
(0.0225796 0.00327291 0.00319511)
(0.000740525 0.00669247 0.00456474)
(-0.00993625 0.00177737 0.00160682)
(-0.0129801 -0.00302885 -0.00082905)
(-0.0115581 -0.00121339 -0.00156685)
(-0.00707105 0.00163861 -0.0015479)
(-0.0027584 0.00182283 -0.00114346)
(-0.00026117 0.000716181 -0.000876399)
(0.00118662 -0.000137922 -0.00118074)
(0.00320068 -5.0886e-05 -0.00193526)
(0.00673659 0.00149579 -0.0025196)
(0.0113862 0.00308329 -0.00265916)
(0.0158088 0.00344528 -0.00246663)
(0.0187952 0.00371261 -0.00220595)
(0.0214703 0.00198944 -0.00248076)
(0.0256621 -0.000867489 -0.00288477)
(0.0296032 0.00396214 -0.00326925)
(0.0334415 0.0118517 -0.00354314)
(0.0383505 0.00594094 -0.002699)
(0.0391351 -0.00777609 -0.00117679)
(0.0413708 -0.00902127 0.00121635)
(0.0423893 -0.00723952 0.0018361)
(0.0477455 -0.0189741 -0.000626437)
(0.0531696 -0.0196355 -5.21726e-05)
(0.0307422 -0.00146688 0.00126997)
(0.0090455 0.00657969 0.000664288)
(0.00539688 0.00573997 0.000601171)
(0.00575709 0.00746563 0.000815401)
(0.00637173 0.00702333 0.000734482)
(0.00570078 0.0048383 0.000517905)
(0.00438525 0.00313179 0.000337126)
(0.00315019 0.00202821 0.000220949)
(0.00215044 0.00135019 0.000150937)
(0.00137648 0.000950979 0.000110459)
(0.000747864 0.00072184 8.16475e-05)
(0.00023065 0.000616104 5.45944e-05)
(-0.0204568 -0.0076568 -0.000736339)
(-0.0171979 -0.00799402 -0.00121073)
(-0.0132365 -0.00892681 -0.000988308)
(-0.00950672 -0.00883521 -0.00111386)
(-0.0049726 -0.00773417 -0.000794359)
(-0.00221492 -0.00621913 0.000175727)
(-0.00425307 -0.00384182 0.00135051)
(-0.0109 0.000831855 0.00196666)
(-0.0198128 0.0069867 0.00168171)
(-0.0255613 0.00942116 0.00101952)
(-0.0249207 0.00711081 -6.18979e-05)
(-0.02219 0.00394947 -0.00121444)
(-0.0201848 0.00358759 -0.0018439)
(-0.0176795 0.00538972 -0.00209238)
(-0.013751 0.00703252 -0.00217535)
(-0.00961749 0.00766438 -0.00227222)
(-0.00612565 0.00795099 -0.00243421)
(-0.0031747 0.00835993 -0.0027537)
(-3.9132e-05 0.00923965 -0.0032494)
(0.00402253 0.0104957 -0.00371102)
(0.00872375 0.0116823 -0.00344339)
(0.0113676 0.0135183 -0.00259386)
(0.0116999 0.0148894 -0.00296723)
(0.0138435 0.0134881 -0.00381735)
(0.01666 0.0114957 -0.00443331)
(0.0220806 0.014129 -0.00504741)
(0.0342446 0.0170859 -0.00279465)
(0.0406873 0.00971949 0.0014847)
(0.0348301 -0.00125112 0.00195055)
(0.0321706 -0.00716465 -0.000545682)
(0.037785 -0.0106098 -0.00166604)
(0.0409851 -0.00996312 -0.00186324)
(0.0355257 0.00263904 -0.000977138)
(0.0234769 0.0162267 0.000341143)
(0.0175327 0.01366 0.000786625)
(0.0118369 0.00725457 0.00072842)
(0.00733901 0.00640531 0.00066741)
(0.00539217 0.00579785 0.000594093)
(0.00410518 0.00440115 0.000415268)
(0.00309691 0.00310978 0.000269803)
(0.0022795 0.00215391 0.000181613)
(0.00160704 0.00151229 0.000129249)
(0.00104798 0.00112209 9.7553e-05)
(0.000559833 0.000942182 7.15426e-05)
(0.000170555 0.00090336 3.59114e-05)
(-0.0358928 -0.00911609 -0.000502415)
(-0.0378226 -0.00965172 -0.000363702)
(-0.0375272 -0.00808671 -0.00137701)
(-0.0361116 -0.00600405 -0.00117012)
(-0.0357575 -0.00326736 -0.00114468)
(-0.035218 -0.000777829 -0.000836187)
(-0.0350245 0.00107883 -0.000501266)
(-0.0334655 0.00202514 -0.000580693)
(-0.0297723 0.00297401 -0.00103902)
(-0.0261655 0.00398013 -0.00140956)
(-0.0232827 0.00423423 -0.00172527)
(-0.0205984 0.00483715 -0.00196889)
(-0.0172653 0.00639061 -0.00210631)
(-0.013283 0.00793359 -0.00217516)
(-0.00921478 0.00894723 -0.00222734)
(-0.00541483 0.00962008 -0.00233831)
(-0.00181577 0.0103427 -0.0025625)
(0.00196959 0.0114733 -0.00273044)
(0.00583952 0.0131152 -0.00214653)
(0.00807542 0.0154495 -0.00124716)
(0.00800866 0.0174591 -0.00270915)
(0.0123158 0.0169504 -0.0046865)
(0.0190168 0.0124336 -0.00274685)
(0.0196998 0.00732588 0.000722538)
(0.0179646 0.00484196 0.00313874)
(0.0172253 0.00266488 0.00434144)
(0.0169919 0.000140855 0.0027433)
(0.0192378 -0.00119771 -0.000346222)
(0.0234566 -0.00163241 -0.00212999)
(0.0275747 -0.00314491 -0.002587)
(0.029271 -0.00481001 -0.00194605)
(0.0287437 0.00229414 -0.000303002)
(0.0276064 0.010929 0.00124927)
(0.0236267 0.0105227 0.00134525)
(0.0147088 0.00898581 0.000805972)
(0.00820826 0.00747518 0.000671722)
(0.00498626 0.00553035 0.000558466)
(0.0033344 0.00399232 0.000362966)
(0.00237131 0.00286925 0.000229714)
(0.00171304 0.00206707 0.000154144)
(0.00122071 0.001507 0.000109028)
(0.000860696 0.00115245 8.14924e-05)
(0.000560966 0.00094125 5.89317e-05)
(0.000567697 0.000912317 3.65501e-05)
(-0.037749 -0.000971767 -0.000508989)
(-0.0401081 -0.00315452 -0.000910998)
(-0.0395746 -0.00181939 -0.00125448)
(-0.0400445 -0.00183186 -0.0014338)
(-0.0391414 0.000160469 -0.00155756)
(-0.0376863 0.00162411 -0.0017095)
(-0.0358608 0.00428073 -0.00185494)
(-0.0333557 0.00653492 -0.0020654)
(-0.0304768 0.00807036 -0.00220458)
(-0.0272188 0.0088423 -0.00235389)
(-0.0238231 0.00944378 -0.0025229)
(-0.0203519 0.0104229 -0.0026437)
(-0.0165677 0.0117232 -0.00270919)
(-0.0124584 0.0129935 -0.00272517)
(-0.00833187 0.0141295 -0.00269818)
(-0.00447568 0.0152875 -0.00259278)
(-0.00104279 0.0166245 -0.00234525)
(0.00188848 0.018139 -0.00181656)
(0.00411627 0.0196974 -0.00144089)
(0.00570033 0.0207974 -0.00287321)
(0.0111717 0.0200119 -0.00438768)
(0.0178071 0.0143725 -0.000799666)
(0.0129568 0.00612359 0.00387575)
(0.00577372 0.00184142 0.00404515)
(0.0032827 0.00117454 0.00252746)
(0.00365604 0.00121225 0.00126936)
(0.00586569 0.000145252 0.000190821)
(0.00920079 -0.00107235 -0.000355543)
(0.0133672 -0.00136813 -0.000636175)
(0.0171991 -0.000974851 -0.000807145)
(0.0178258 0.00135948 -0.000775659)
(0.0160337 0.00764669 8.05684e-05)
(0.0133998 0.0137214 0.000643094)
(0.00926979 0.0144995 0.000436557)
(0.00561507 0.0117395 0.000481491)
(0.00359999 0.00806046 0.000556373)
(0.00244875 0.0054238 0.000406394)
(0.00181389 0.00378156 0.00025969)
(0.00139325 0.00269365 0.000173329)
(0.00106099 0.00195002 0.000122338)
(0.000784482 0.00142868 9.05726e-05)
(0.000537519 0.00108969 6.96177e-05)
(0.000346905 0.000800535 5.12066e-05)
(0.000305052 0.000689331 3.87957e-05)
(-0.0368839 -0.00589419 -0.000243391)
(-0.036635 -0.00286922 -0.000164515)
(-0.0342373 -0.00188471 -0.000301872)
(-0.0342745 -0.000363903 -0.000562962)
(-0.0347984 0.00185742 -0.000745027)
(-0.0342162 0.00308896 -0.00118922)
(-0.0341477 0.00501831 -0.00136939)
(-0.0326656 0.0064867 -0.00165797)
(-0.0307786 0.00794648 -0.00186126)
(-0.0282674 0.00938963 -0.00209624)
(-0.025534 0.0107753 -0.0022926)
(-0.0225802 0.0121183 -0.00245951)
(-0.0194244 0.0135496 -0.00256663)
(-0.0159989 0.0150587 -0.00258605)
(-0.0123884 0.016466 -0.00250457)
(-0.00873472 0.0176623 -0.00232194)
(-0.00510027 0.0186254 -0.00206616)
(-0.00152164 0.0192751 -0.00185902)
(0.00231883 0.0194908 -0.00199291)
(0.00682175 0.0193187 -0.00277938)
(0.0131226 0.0180245 -0.00276001)
(0.0169771 0.0134755 0.000964985)
(0.00965568 0.00696836 0.00462708)
(0.00144754 0.00277677 0.00342975)
(-0.00187953 0.000135392 0.00133572)
(-0.00302452 -0.00163513 0.000655708)
(-0.00283547 -0.00267482 0.000428568)
(-0.00203688 -0.00319151 0.000264417)
(-0.00107997 -0.00312541 0.000114442)
(-2.1746e-05 -0.00229846 4.70045e-05)
(0.000638897 -0.000602045 6.10332e-05)
(0.000172344 0.00254573 0.000146946)
(-0.000685619 0.00799957 0.000248653)
(-0.0005439 0.0120042 0.000275746)
(0.000442206 0.011362 0.000405144)
(0.00111637 0.00852249 0.000543443)
(0.00121244 0.00591967 0.000443266)
(0.00104535 0.00422459 0.00029336)
(0.000877276 0.00308948 0.000194513)
(0.000723171 0.0022856 0.00013547)
(0.000573666 0.00170782 9.88726e-05)
(0.000445017 0.00128158 7.51518e-05)
(0.000293474 0.00100179 5.91775e-05)
(0.000200465 0.000737558 4.35136e-05)
(4.78204e-06 0.000645404 3.73762e-05)
(-0.0413245 -0.0052559 -0.000329462)
(-0.041228 -0.000591521 -0.000511899)
(-0.0345007 -0.00216426 -6.90695e-05)
(-0.0353729 0.00273862 -0.000132811)
(-0.0301404 0.00289829 -0.000157413)
(-0.0298471 0.0060698 -0.000113385)
(-0.0270463 0.00775978 -0.000402731)
(-0.0253957 0.00995783 -0.000525455)
(-0.0231096 0.0118419 -0.000770462)
(-0.020768 0.0135275 -0.000973539)
(-0.018141 0.0150266 -0.0011721)
(-0.0152516 0.0164416 -0.0013353)
(-0.0120388 0.017815 -0.00145021)
(-0.00848226 0.0190444 -0.00148573)
(-0.00460628 0.0199853 -0.00143209)
(-0.000561765 0.0204717 -0.00136339)
(0.00359338 0.0203959 -0.0013796)
(0.00785843 0.0196969 -0.00148093)
(0.0118496 0.018145 -0.00116317)
(0.0136033 0.0154748 0.000574776)
(0.010492 0.0118872 0.00335103)
(0.00327205 0.00835973 0.00441312)
(-0.00191836 0.00523369 0.00259379)
(-0.0034478 0.00230427 0.000896008)
(-0.00385594 0.000402876 0.000265223)
(-0.00412785 -0.000595937 6.88477e-05)
(-0.00446509 -0.00135707 -7.10465e-06)
(-0.00491213 -0.00210024 -3.10885e-05)
(-0.00544974 -0.00242167 -5.98469e-06)
(-0.0059901 -0.00187786 4.69158e-05)
(-0.00652521 -0.000300719 0.000100352)
(-0.00703838 0.00241908 0.000134487)
(-0.00662048 0.00599822 0.000191576)
(-0.00465516 0.00821438 0.00031185)
(-0.00240888 0.00764383 0.00042534)
(-0.00104216 0.0060035 0.000389391)
(-0.000389741 0.00447362 0.000279182)
(-8.06996e-05 0.00333854 0.000194828)
(7.90418e-05 0.0024994 0.000139167)
(0.000153025 0.0018821 0.000103529)
(0.000157614 0.00142925 7.91518e-05)
(0.000148263 0.00110237 6.33742e-05)
(4.64113e-05 0.000872077 5.18526e-05)
(2.79082e-05 0.000737849 3.78317e-05)
(-0.000235815 0.00061465 3.73988e-05)
(-0.047458 -0.0064867 -0.000758774)
(-0.0435369 -0.00420543 -0.000340777)
(-0.0417831 -0.00416219 -0.000439755)
(-0.0387996 -0.00152265 3.91512e-05)
(-0.0357405 -0.000570954 2.52339e-05)
(-0.0325779 0.00214274 0.000304781)
(-0.0292187 0.00378841 0.000357724)
(-0.0257497 0.00613803 0.000449615)
(-0.0222008 0.00801192 0.000458048)
(-0.0185179 0.00995056 0.000459188)
(-0.0148082 0.0116297 0.000438094)
(-0.0109993 0.0131397 0.000409505)
(-0.00707279 0.0144353 0.000380823)
(-0.00314563 0.0153842 0.0003795)
(0.000584644 0.0158698 0.000421736)
(0.00378037 0.0158296 0.000558337)
(0.00580585 0.0149581 0.000991538)
(0.00591077 0.0131469 0.00189856)
(0.00359529 0.0108052 0.0030038)
(-0.000249051 0.00871776 0.00347091)
(-0.00366157 0.00687538 0.00287213)
(-0.00519241 0.00460547 0.00164356)
(-0.0051642 0.002322 0.000681407)
(-0.00488255 0.000754227 0.000237675)
(-0.00473152 -0.000277836 5.33647e-05)
(-0.00465323 -0.000978525 -1.88169e-05)
(-0.00469094 -0.00144562 -3.71385e-05)
(-0.00497257 -0.00173069 -2.59031e-05)
(-0.00556995 -0.00177007 1.01004e-05)
(-0.00633358 -0.00136656 6.20642e-05)
(-0.00701946 -0.000337882 0.000118322)
(-0.00730636 0.00135647 0.000173702)
(-0.00659919 0.0034503 0.000238179)
(-0.00488799 0.00465726 0.000304137)
(-0.00315457 0.00450988 0.000300289)
(-0.00196354 0.00380056 0.000243264)
(-0.0459948 -0.00228041 -0.00111126)
(-0.0472657 -0.0015144 -0.000424538)
(-0.0421261 -0.00203764 -0.000584466)
(-0.0443894 -0.000261918 -5.88156e-05)
(-0.0391241 -0.000650536 -0.000265482)
(-0.0392417 0.000970527 0.000385624)
(-0.0354457 0.00169024 0.000275915)
(-0.0332757 0.00289795 0.000702772)
(-0.0299688 0.00406378 0.000796548)
(-0.0267949 0.00518414 0.00102965)
(-0.0233996 0.00625612 0.00116409)
(-0.0200178 0.00720486 0.00130117)
(-0.0167027 0.00804744 0.00145097)
(-0.0137125 0.00867864 0.0016368)
(-0.0112465 0.0090597 0.00186663)
(-0.00959904 0.00910272 0.00216175)
(-0.00895641 0.00866179 0.0024223)
(-0.00906709 0.00781258 0.0024316)
(-0.00933885 0.00670228 0.00206016)
(-0.00914415 0.00536511 0.00146707)
(-0.00834747 0.00396124 0.000879592)
(-0.00730574 0.00269548 0.000429047)
(-0.00644405 0.00164461 0.000149478)
(-0.00585159 0.000794135 2.79536e-06)
(-0.00546882 0.000159468 -6.69307e-05)
(-0.00525686 -0.000319191 -9.35608e-05)
(-0.00519436 -0.000697678 -9.55765e-05)
(-0.0052876 -0.000972489 -7.90866e-05)
(-0.0055458 -0.00105094 -4.44598e-05)
(-0.00591889 -0.000814 7.06053e-06)
(-0.00627195 -0.000205255 6.49971e-05)
(-0.00633578 0.000768984 0.000120049)
(-0.00575766 0.00189001 0.000165323)
(-0.00460191 0.00257189 0.000187088)
(-0.00338101 0.00261168 0.00017485)
(-0.0431367 -0.000875154 -0.000617857)
(-0.0493729 -0.00321238 -0.0008116)
(-0.0393706 -0.00151721 -0.000340446)
(-0.0472293 -0.00156528 -0.00022084)
(-0.0375626 -0.00147759 -0.000692054)
(-0.0421253 -0.000578484 0.000199735)
(-0.0366644 -0.000501934 -0.000354487)
(-0.0367595 0.000234336 0.000237189)
(-0.0337949 0.000638376 0.000139115)
(-0.0319158 0.00119912 0.000411846)
(-0.0294338 0.00167506 0.000520285)
(-0.0270378 0.00214747 0.000689803)
(-0.0245699 0.00259331 0.000829729)
(-0.0221725 0.0029789 0.000951712)
(-0.0198825 0.00327382 0.00103962)
(-0.0177517 0.00340386 0.00106994)
(-0.0157949 0.00327108 0.000995549)
(-0.0139521 0.00289433 0.000817512)
(-0.0121911 0.00238288 0.000586433)
(-0.0105521 0.00188231 0.000369537)
(-0.00910223 0.00142028 0.000196424)
(-0.00788634 0.000941667 7.14681e-05)
(-0.00692711 0.000485015 -9.08964e-06)
(-0.0062189 0.0001047 -5.44962e-05)
(-0.00572652 -0.000199906 -7.79168e-05)
(-0.0054206 -0.000433277 -8.78635e-05)
(-0.00528448 -0.000606536 -8.92021e-05)
(-0.0053031 -0.000716633 -8.21716e-05)
(-0.00544679 -0.000738408 -6.47826e-05)
(-0.00563768 -0.000619069 -3.57196e-05)
(-0.00576429 -0.000319853 1.61141e-06)
(-0.00566232 0.000173325 4.1703e-05)
(-0.00516076 0.000740673 7.38537e-05)
(-0.00431924 0.00112326 9.07832e-05)
(-0.00339611 0.00121919 9.19703e-05)
(-0.0446269 0.000392831 -0.00058998)
(-0.0463183 0.000540089 -0.000956705)
(-0.0406506 -0.000325036 -0.000288142)
(-0.0453395 0.00121237 -0.000266776)
(-0.0375402 -0.000571121 -0.000980592)
(-0.0412406 0.00108585 0.000176793)
(-0.0362823 2.27429e-05 -0.000769299)
(-0.0363779 0.000758502 -3.06297e-05)
(-0.0336917 0.000525597 -0.000344002)
(-0.0320307 0.000749014 -0.000101583)
(-0.0298324 0.000792661 -9.98662e-05)
(-0.0276909 0.000899489 -9.59411e-07)
(-0.0254488 0.000988018 6.69401e-05)
(-0.0231739 0.00107412 0.000136557)
(-0.0208767 0.00114501 0.000184138)
(-0.0185863 0.0011828 0.000202749)
(-0.0163602 0.00116108 0.000181411)
(-0.0142638 0.00108032 0.000130814)
(-0.0123514 0.000949646 6.86155e-05)
(-0.0106556 0.000790134 1.1811e-05)
(-0.00918521 0.000625553 -3.27133e-05)
(-0.00795941 0.000470913 -6.59891e-05)
(-0.00699338 0.000325128 -8.92366e-05)
(-0.00627541 0.000191959 -0.000104299)
(-0.00577667 7.1635e-05 -0.000113661)
(-0.00546341 -3.99741e-05 -0.000119761)
(-0.00530716 -0.000137907 -0.000122941)
(-0.0052817 -0.000213357 -0.000122765)
(-0.00535032 -0.000248732 -0.000117649)
(-0.00544886 -0.000227287 -0.000105666)
(-0.00548039 -0.000146596 -8.61942e-05)
(-0.00531595 -5.75163e-06 -6.06387e-05)
(-0.0048508 0.000158396 -3.37028e-05)
(-0.004135 0.000275304 -1.116e-05)
(-0.00333719 0.000317097 4.44013e-06)
(0.0722066 -0.00508003 -0.00345138)
(0.0811006 -0.00643945 -0.00330972)
(0.0875051 -0.00831574 0.000527802)
(0.0925865 -0.00612403 0.00251851)
(0.0980637 -0.00123386 -0.000306405)
(0.100474 0.00248553 -0.00162924)
(0.100195 0.00240636 -0.00145554)
(0.10505 0.00221521 -0.00450879)
(0.111633 0.00484276 -0.00970186)
(0.112527 0.000633307 -0.0100153)
(0.111966 -0.0090974 -0.00502577)
(0.116415 -0.0111237 0.00287507)
(0.112633 -0.00395561 0.0116628)
(0.0970378 0.00360066 0.012889)
(0.0840845 0.00442106 0.00605944)
(0.0759944 0.00118989 0.00234818)
(0.0700639 -0.00160702 0.00383223)
(0.0672401 -0.00250818 0.00361121)
(0.0671024 -0.00131604 0.00053701)
(0.0660906 -0.00087199 -0.0013144)
(0.0656088 -0.00350362 -0.0022621)
(0.0682273 -0.00782913 -0.00183545)
(0.0716839 -0.01438 0.000841846)
(0.0813378 -0.015818 0.000608519)
(0.0919097 -0.00176174 -0.00231709)
(0.0821648 0.00815736 -0.000664916)
(0.0663291 0.00246416 0.00418251)
(0.0632445 0.003325 0.00488674)
(0.061112 0.00626534 0.00223029)
(0.0585217 -0.00433824 0.00120186)
(0.0645523 -0.010602 0.00270069)
(0.0678511 -0.00128285 0.00599282)
(0.0594716 0.000832941 0.00808233)
(0.0562095 -0.0107799 0.00442495)
(0.0612626 -0.0117765 0.00127626)
(0.0524143 0.00154413 0.00338203)
(0.0308507 0.00826434 0.00486438)
(0.0161418 0.00528921 0.00332155)
(0.00901938 0.00230948 0.00168667)
(0.00531614 0.0010375 0.000899877)
(0.00320372 0.000524828 0.000537037)
(0.00190249 0.000301275 0.00035609)
(0.000995064 0.000194935 0.000263294)
(0.000308735 0.000140247 0.000212946)
(0.029713 -0.00532268 -0.00124374)
(0.0344531 -0.00551538 -0.00110701)
(0.0378594 -0.00466551 -0.00256785)
(0.0414682 -0.00210634 -0.003757)
(0.0435593 -0.000771086 -0.00223058)
(0.045788 -0.00180849 -0.000709303)
(0.0526923 0.000299833 -0.0019471)
(0.0594293 0.0046897 -0.00540972)
(0.0655806 0.00748515 -0.00324525)
(0.0593877 0.0052494 0.0100672)
(0.0320482 -0.00274888 0.0160896)
(0.0180782 -0.00511622 0.00762373)
(0.0138713 0.00122438 0.00101511)
(0.0135088 0.00578463 -0.00111351)
(0.014435 0.00457118 -0.00176471)
(0.0155808 0.00191802 -0.00110623)
(0.0171444 0.000314873 -0.000895922)
(0.0188924 0.000257923 -0.00269337)
(0.0213963 0.00193413 -0.00465622)
(0.0244963 0.00382892 -0.00491969)
(0.0269931 0.00439654 -0.00403184)
(0.0286983 0.00421858 -0.00259693)
(0.0291103 0.00331051 -0.00367785)
(0.0287906 0.00219807 -0.00874606)
(0.0315873 0.00460514 -0.00923403)
(0.0351355 0.006279 -0.00249907)
(0.0350287 -0.000970113 0.000952493)
(0.0383146 -0.00790158 -0.000260425)
(0.0505399 -0.00897482 0.000344617)
(0.0567597 -0.00949687 0.00303347)
(0.0529627 -0.00828507 0.00570351)
(0.0569211 -0.00726268 0.00777409)
(0.0574522 -0.00867747 0.00775522)
(0.0406626 -0.00158272 0.00454059)
(0.0229428 0.00970639 0.0016136)
(0.013491 0.0143825 0.00212621)
(0.00953746 0.0115351 0.00262512)
(0.00768278 0.00658372 0.00182542)
(0.00560323 0.00345744 0.00113034)
(0.00389029 0.00187746 0.000716624)
(0.00259825 0.00110576 0.000477666)
(0.00163976 0.000720613 0.000342094)
(0.000889865 0.000527118 0.000259611)
(0.000284033 0.000440141 0.000193262)
(-0.0116121 -0.0106523 -0.00104419)
(-0.00735895 -0.0104914 -0.00109961)
(-0.00297923 -0.0101338 -0.00124486)
(0.00107558 -0.00899395 -0.00146157)
(0.00547522 -0.00637154 -0.00117137)
(0.0100359 -0.00433525 -0.000597836)
(0.0143769 -0.00337325 -0.00183389)
(0.0172866 -0.00215947 -0.00361985)
(0.0188846 -0.00045564 0.000735453)
(0.00976761 0.00291347 0.00926802)
(-0.00329676 0.00484801 0.0100195)
(-0.0087196 0.00214134 0.00316037)
(-0.0120915 -0.00110328 -0.00161433)
(-0.0117397 0.000770572 -0.00330963)
(-0.00856042 0.00317377 -0.00346999)
(-0.00507831 0.00306683 -0.00305381)
(-0.00255474 0.00198761 -0.00278298)
(-0.000745208 0.00140156 -0.00340122)
(0.00125914 0.00166213 -0.00482887)
(0.00434739 0.00269916 -0.00573518)
(0.00785608 0.00323364 -0.005426)
(0.0104781 0.00236147 -0.00462533)
(0.0122665 0.000603253 -0.00393369)
(0.0140451 -0.002321 -0.00360548)
(0.0166317 -0.00412696 -0.00379995)
(0.0205816 -0.00071478 -0.00362343)
(0.0252319 0.000834518 -0.00239628)
(0.0288005 -0.00533614 -0.00159848)
(0.0310877 -0.0106398 -0.00208918)
(0.0362915 -0.00932216 -0.00128293)
(0.0419737 -0.00806915 -0.00125814)
(0.0473106 -0.0128043 -0.00264962)
(0.0519851 -0.0104561 0.000545519)
(0.0353584 0.00309685 0.00389086)
(0.0127694 0.00806182 0.0029774)
(0.00606522 0.00629862 0.00233903)
(0.00585341 0.00759617 0.00252552)
(0.00632939 0.00696307 0.00211711)
(0.00565865 0.00480455 0.00147154)
(0.00437359 0.00312277 0.000964396)
(0.00316075 0.00202914 0.000635774)
(0.00217366 0.00135608 0.000435351)
(0.00140701 0.000959659 0.000317106)
(0.000789724 0.000734281 0.00023625)
(0.00026358 0.000626009 0.000164383)
(-0.0347145 -0.0113994 -0.00168284)
(-0.0321829 -0.0112673 -0.00231313)
(-0.0281236 -0.0109909 -0.0021166)
(-0.0252366 -0.00981521 -0.00213975)
(-0.02183 -0.00793924 -0.00131845)
(-0.0197302 -0.00597769 0.000319854)
(-0.0195647 -0.00400322 0.00203807)
(-0.0214411 -0.000881943 0.00306518)
(-0.0249884 0.0043196 0.00307224)
(-0.0273756 0.00710821 0.00214429)
(-0.0260243 0.00566634 -2.965e-05)
(-0.0239234 0.00283381 -0.00235673)
(-0.0224268 0.00275035 -0.00388396)
(-0.0203436 0.00452121 -0.00449418)
(-0.0169026 0.00584692 -0.00464143)
(-0.013229 0.005978 -0.00477868)
(-0.010042 0.00569481 -0.00501394)
(-0.00734154 0.0056033 -0.00544032)
(-0.00478518 0.00597048 -0.00603055)
(-0.00220767 0.00659814 -0.00644344)
(0.000205248 0.00681558 -0.00639816)
(0.0026474 0.00661286 -0.00587218)
(0.00520406 0.00538153 -0.00492178)
(0.00719653 0.00202917 -0.00366815)
(0.00869386 -0.00172144 -0.0032268)
(0.0111797 -0.00323466 -0.00284482)
(0.0162474 -0.00330652 -0.000538863)
(0.0212508 -0.00491497 0.00103556)
(0.0247505 -0.00640074 -0.00145804)
(0.0292802 -0.00588985 -0.00423431)
(0.0352487 -0.00675261 -0.0049573)
(0.0386568 -0.00770803 -0.00454269)
(0.0356913 0.00246626 -0.00162004)
(0.0252485 0.0162859 0.00155166)
(0.0186223 0.0151349 0.00245955)
(0.0123671 0.00816735 0.00270304)
(0.0071796 0.00658677 0.00246803)
(0.00523018 0.00579608 0.00182699)
(0.00407022 0.00438929 0.00119691)
(0.00311022 0.0031103 0.000778098)
(0.00230729 0.00216109 0.000526044)
(0.00163982 0.00152229 0.000373892)
(0.0010864 0.00113205 0.000280078)
(0.000610576 0.000945986 0.000207966)
(0.000209904 0.000909544 0.000129979)
(-0.0454205 -0.0117758 -0.00212976)
(-0.0439877 -0.0112239 -0.00205641)
(-0.0436262 -0.00974 -0.00310733)
(-0.04183 -0.00761713 -0.00280861)
(-0.0408961 -0.0048656 -0.00270263)
(-0.0395462 -0.00224895 -0.00223901)
(-0.0384336 -9.57245e-05 -0.00161315)
(-0.0360933 0.00124928 -0.00140472)
(-0.0326929 0.00236212 -0.00202213)
(-0.0294698 0.0031621 -0.00284261)
(-0.0269651 0.003383 -0.00368006)
(-0.0246229 0.00378212 -0.00428488)
(-0.0216226 0.0048666 -0.00461735)
(-0.0180005 0.00575313 -0.0047587)
(-0.0143119 0.00603517 -0.00482362)
(-0.0109016 0.00594209 -0.00490291)
(-0.00785458 0.00580663 -0.00509788)
(-0.00502671 0.00584854 -0.00536744)
(-0.00206184 0.00609623 -0.00523007)
(0.00148903 0.00618336 -0.00438253)
(0.00478078 0.00467493 -0.00286366)
(0.0051479 0.000271721 -4.95341e-05)
(0.00380805 -0.00378268 0.00306881)
(0.00326815 -0.00528432 0.00425507)
(0.00429168 -0.00538647 0.00430219)
(0.00763505 -0.00439022 0.00359456)
(0.0122512 -0.00331999 0.000706387)
(0.0164921 -0.00363046 -0.00276257)
(0.0210134 -0.00394749 -0.00474339)
(0.0253973 -0.0041287 -0.00521618)
(0.0269878 -0.00289047 -0.00426129)
(0.0258517 0.00520156 -0.00131635)
(0.0254518 0.013938 0.00206119)
(0.02394 0.012993 0.00371667)
(0.0150727 0.00986638 0.00356914)
(0.0078512 0.00750384 0.00267535)
(0.00476361 0.00548603 0.00171256)
(0.00327052 0.0039975 0.00104279)
(0.00236526 0.00288904 0.000660657)
(0.00172754 0.00208645 0.000445824)
(0.00124177 0.00152442 0.000316648)
(0.000878894 0.00116515 0.000236287)
(0.000582249 0.000950667 0.00017105)
(0.000562305 0.000892333 0.000120252)
(-0.043858 -0.00673664 -0.0018276)
(-0.043639 -0.00694258 -0.00218088)
(-0.0427959 -0.00629816 -0.00250041)
(-0.0422826 -0.00534302 -0.00267915)
(-0.0410665 -0.0035972 -0.00274772)
(-0.0395405 -0.00182756 -0.00286089)
(-0.0375904 0.000547326 -0.00302915)
(-0.035282 0.00270167 -0.00334271)
(-0.0326657 0.00416373 -0.00364602)
(-0.0297264 0.00487997 -0.0040485)
(-0.0266734 0.00536992 -0.00451285)
(-0.0235261 0.00613768 -0.00491677)
(-0.0200552 0.00705691 -0.00518716)
(-0.0162367 0.0077473 -0.00532877)
(-0.0123249 0.0080748 -0.00536591)
(-0.00852287 0.00815971 -0.00528885)
(-0.00489949 0.00815344 -0.00508354)
(-0.00126856 0.00813597 -0.00460503)
(0.00280594 0.00786192 -0.00355922)
(0.00636858 0.00622887 -0.00186657)
(0.00576271 0.00238616 0.00127903)
(0.00217238 -0.00117478 0.00518413)
(-0.000627512 -0.00241144 0.00599197)
(-0.00106078 -0.0023 0.0037179)
(-0.000758598 -0.00197843 0.00168913)
(0.000723149 -0.00189692 0.000279697)
(0.00352781 -0.00278288 -0.00101115)
(0.00701708 -0.00360128 -0.0019976)
(0.0108459 -0.00352103 -0.00253644)
(0.0143095 -0.00253227 -0.00268977)
(0.0152619 0.000779076 -0.00239221)
(0.0147163 0.00828587 -0.000457719)
(0.0141761 0.0151384 0.00191171)
(0.0104373 0.0153848 0.00269786)
(0.00568894 0.0117014 0.00254093)
(0.00345206 0.00789489 0.00187838)
(0.00239711 0.00537695 0.00118908)
(0.00181199 0.00378852 0.000750867)
(0.00141018 0.0027148 0.000503199)
(0.00108361 0.00197223 0.000356492)
(0.000806652 0.00145066 0.000263665)
(0.00056071 0.00110723 0.00020204)
(0.000368871 0.000825315 0.000148821)
(0.00030966 0.000694118 0.000113623)
(-0.0456044 -0.00855818 -0.00147843)
(-0.0438427 -0.00722128 -0.00134171)
(-0.0415671 -0.00652261 -0.0013782)
(-0.0406223 -0.00544894 -0.00151196)
(-0.0391865 -0.0040641 -0.00175507)
(-0.0380042 -0.00289638 -0.00208511)
(-0.0364863 -0.00135902 -0.00236143)
(-0.0345049 -5.04834e-05 -0.002639)
(-0.0320432 0.00119986 -0.00293407)
(-0.0291779 0.00238374 -0.00332128)
(-0.0261425 0.00346224 -0.00370371)
(-0.0229542 0.00444633 -0.0040734)
(-0.019571 0.00543906 -0.00437504)
(-0.0159128 0.00640421 -0.00454691)
(-0.0120331 0.0071431 -0.00456977)
(-0.00808091 0.00749762 -0.00441563)
(-0.00414865 0.00740746 -0.0040208)
(-0.000328148 0.00679408 -0.00327359)
(0.00316654 0.00545254 -0.00197751)
(0.00519922 0.00329675 3.88573e-05)
(0.00397812 0.00112707 0.00306322)
(0.000776094 -0.00017537 0.00624631)
(-0.00179725 -8.52586e-05 0.00632319)
(-0.00234311 0.000176994 0.0034519)
(-0.00307241 -0.000933619 0.00137897)
(-0.00353648 -0.00215967 0.000642478)
(-0.00340223 -0.00302238 0.00032596)
(-0.00285309 -0.0035272 -6.05864e-05)
(-0.00202743 -0.00368414 -0.000429754)
(-0.000919696 -0.00299608 -0.000586699)
(-7.36198e-06 -0.00115029 -0.000485989)
(-1.94826e-05 0.0025163 -7.28874e-05)
(-0.000274683 0.00857338 0.000865206)
(0.000101582 0.0126446 0.00183817)
(0.000564636 0.0114332 0.00215084)
(0.000986157 0.00841351 0.00187986)
(0.00112395 0.00589986 0.00130357)
(0.00100998 0.00425282 0.000843149)
(0.000873284 0.0031275 0.000560745)
(0.000733075 0.00232055 0.000392499)
(0.00058947 0.00173642 0.000287691)
(0.000459601 0.00130743 0.000218778)
(0.000310536 0.00102043 0.000171869)
(0.000209244 0.000765147 0.000126943)
(2.50428e-05 0.000650445 0.000104496)
(-0.0480874 -0.00608563 -0.00197388)
(-0.0464554 -0.0050176 -0.00185142)