/*--------------------------------*- C++ -*----------------------------------*\
| =========                 |                                                 |
| \\      /  F ield         | OpenFOAM: The Open Source CFD Toolbox           |
|  \\    /   O peration     | Version:  2.3.1                                 |
|   \\  /    A nd           | Web:      www.OpenFOAM.org                      |
|    \\/     M anipulation  |                                                 |
\*---------------------------------------------------------------------------*/
FoamFile
{
    version     2.0;
    format      ascii;
    class       volVectorField;
    location    "15";
    object      U_0;
}
// * * * * * * * * * * * * * * * * * * * * * * * * * * * * * * * * * * * * * //

dimensions      [0 1 -1 0 0 0 0];

internalField   nonuniform List<vector> 
38152
(
(0.0774468 -0.00470423 -0.00198698)
(0.0887947 -0.00665605 -0.00241974)
(0.100365 -0.00837018 -0.000503044)
(0.101989 -0.00899384 0.00209576)
(0.100927 -0.00555983 0.00101997)
(0.103974 0.00181604 -0.000668921)
(0.103795 0.00450309 -0.000244459)
(0.104125 0.003087 -0.00075348)
(0.111072 0.0049344 -0.00386987)
(0.121756 0.00271553 -0.0060998)
(0.132226 -0.00581522 -0.0061998)
(0.149843 -0.00859214 -0.0039271)
(0.151358 -0.00280061 0.0022099)
(0.120752 0.00234252 0.00632249)
(0.0957356 0.00211355 0.0030168)
(0.0910502 0.00124659 -0.00013472)
(0.086037 -3.51399e-05 0.00113922)
(0.0769563 -0.00386399 0.00187794)
(0.0770062 -0.00487363 0.000274128)
(0.0799093 -0.00290533 -0.000711037)
(0.0800025 -0.0029739 -0.00131292)
(0.0842659 -0.00337871 -0.0014362)
(0.0832697 -0.010138 0.000436327)
(0.0827204 -0.021001 0.00132006)
(0.0954927 -0.012435 -8.07182e-05)
(0.0942178 0.00294948 -0.00116277)
(0.0793176 -0.000367735 0.000411537)
(0.0744486 0.00269092 0.00208324)
(0.0670589 0.0132959 0.000650725)
(0.0589778 0.00390767 -0.00094999)
(0.0643042 -0.00587022 -0.000298667)
(0.0691666 0.00177188 0.00164364)
(0.0592829 0.00300619 0.00302345)
(0.0535942 -0.0105826 0.00159473)
(0.0606427 -0.0129252 6.51902e-05)
(0.0547497 0.00109881 0.000578552)
(0.0328461 0.00869452 0.00126701)
(0.016809 0.00559799 0.00104797)
(0.00917648 0.00238674 0.000575828)
(0.00533422 0.00105413 0.000307257)
(0.00318778 0.00052801 0.000181473)
(0.00188296 0.000299957 0.00011959)
(0.000982378 0.00019278 8.90047e-05)
(0.000298455 0.000140348 7.38003e-05)
(0.0315687 -0.00253167 -0.000337922)
(0.0348326 -0.00329892 -0.000217464)
(0.037256 -0.00326857 -0.00142305)
(0.0433263 -0.000446277 -0.00276356)
(0.0472618 0.00197285 -0.00193181)
(0.0489898 -0.000506983 -0.000155928)
(0.0537882 -0.00150672 0.000164085)
(0.0587188 0.00149734 -0.00246827)
(0.0752569 0.00624367 -0.0032072)
(0.0783214 0.00793418 0.00249978)
(0.0417749 0.00117464 0.00703462)
(0.015052 -0.00337569 0.00420796)
(0.00919304 0.00135779 0.000544254)
(0.010684 0.00595874 -0.0010045)
(0.014683 0.00588402 -0.00139126)
(0.0182186 0.00418755 -0.000476898)
(0.0193059 0.00229386 0.000135697)
(0.0195837 0.000802459 -0.000887505)
(0.0227098 0.00142479 -0.0020736)
(0.027587 0.0039247 -0.00218395)
(0.0313296 0.00605568 -0.00148097)
(0.0326297 0.00763817 -0.000379798)
(0.0298651 0.00810779 -0.00133725)
(0.0285586 0.00611782 -0.00540059)
(0.0383887 0.0082141 -0.00638795)
(0.0468888 0.0143984 -0.00262609)
(0.0401431 0.00742184 -0.000581793)
(0.038646 -0.00512218 -0.00077718)
(0.0554891 -0.00461702 -0.000166505)
(0.063136 -0.00281413 0.00163997)
(0.0562887 -0.00775859 0.00334218)
(0.0578109 -0.012055 0.00445681)
(0.0540717 -0.0124011 0.00388171)
(0.0360368 -0.00193661 0.00144077)
(0.020731 0.0104545 -4.05837e-06)
(0.0131377 0.0149765 0.000406727)
(0.00949005 0.0120626 0.00081159)
(0.00767208 0.00684412 0.000622279)
(0.00558466 0.00354308 0.000388672)
(0.00386254 0.00190256 0.00024532)
(0.00256737 0.00111188 0.000163454)
(0.00160797 0.000719714 0.000117778)
(0.000852114 0.000524337 8.97722e-05)
(0.000255867 0.000438324 6.57164e-05)
(-0.00703014 -0.00946924 -0.000538487)
(-0.00250335 -0.00963667 -0.000606358)
(0.00241081 -0.0092486 -0.00064835)
(0.00723152 -0.00763791 -0.000660203)
(0.0126676 -0.00430721 -0.000449305)
(0.0184073 -0.00211966 0.000213549)
(0.0221735 -0.00196864 -0.000536085)
(0.0262993 -0.00224668 -0.00264848)
(0.0332432 -0.00159982 -0.00114844)
(0.0225689 0.00329171 0.00320195)
(0.000716061 0.00669083 0.00456672)
(-0.00994583 0.00176548 0.00160174)
(-0.0129832 -0.00302106 -0.000831326)
(-0.0115483 -0.0011927 -0.00156804)
(-0.00705576 0.00164686 -0.00154786)
(-0.00274675 0.00182054 -0.00114291)
(-0.000254325 0.000711224 -0.000876214)
(0.00119123 -0.000142717 -0.00118112)
(0.00320507 -5.36629e-05 -0.00193578)
(0.00674154 0.0014959 -0.00251966)
(0.0113916 0.00308276 -0.00265896)
(0.0158134 0.00344368 -0.00246644)
(0.0187984 0.00370968 -0.00220679)
(0.0214762 0.00198258 -0.00248327)
(0.0256728 -0.000860407 -0.00288709)
(0.0296162 0.00399473 -0.00327023)
(0.0334581 0.0118677 -0.00354354)
(0.0383688 0.00591916 -0.00269762)
(0.0391439 -0.00779672 -0.00117232)
(0.0413817 -0.00901874 0.00122228)
(0.0423979 -0.00725353 0.00183459)
(0.0477694 -0.0190014 -0.000630711)
(0.0531662 -0.01962 -5.09151e-05)
(0.0307072 -0.00143358 0.00127042)
(0.00903584 0.0065874 0.000664588)
(0.00540037 0.00574157 0.000602486)
(0.00576216 0.00746517 0.000816112)
(0.00637397 0.00701595 0.000734388)
(0.00569944 0.00483161 0.00051755)
(0.00438282 0.00312752 0.000336836)
(0.00314802 0.00202561 0.000220751)
(0.00214885 0.0013486 0.000150807)
(0.00137544 0.000949944 0.000110371)
(0.000747302 0.000721104 8.1585e-05)
(0.000230477 0.000615496 5.4552e-05)
(-0.0204463 -0.00765239 -0.00073807)
(-0.0171869 -0.00799073 -0.00121143)
(-0.0132244 -0.00892243 -0.000989199)
(-0.00949284 -0.00882883 -0.00111407)
(-0.00495555 -0.00772611 -0.000794415)
(-0.00219541 -0.00621166 0.00017607)
(-0.00423509 -0.00383492 0.00135097)
(-0.0108864 0.00084094 0.00196721)
(-0.0198061 0.00700039 0.00168381)
(-0.025559 0.00943166 0.00102129)
(-0.0249164 0.00711205 -6.327e-05)
(-0.0221896 0.00395021 -0.00121586)
(-0.0201844 0.00359602 -0.00184447)
(-0.0176719 0.00539989 -0.00209248)
(-0.0137394 0.00703795 -0.00217551)
(-0.00960686 0.0076661 -0.00227262)
(-0.00611669 0.00795178 -0.00243483)
(-0.0031669 0.00836105 -0.00275461)
(-3.14157e-05 0.00924166 -0.00325053)
(0.00403141 0.0104988 -0.00371184)
(0.00873247 0.011687 -0.00344276)
(0.0113714 0.0135257 -0.00259318)
(0.011702 0.014896 -0.0029686)
(0.013848 0.0134919 -0.00381893)
(0.0166669 0.0115047 -0.00443508)
(0.0221022 0.0141477 -0.00504683)
(0.0342792 0.0170896 -0.00278678)
(0.0406984 0.00969888 0.00149216)
(0.0348243 -0.00127229 0.00194901)
(0.0321767 -0.00717889 -0.000548381)
(0.0377976 -0.0106186 -0.00166651)
(0.0409854 -0.00995177 -0.00186406)
(0.035514 0.0026679 -0.000977575)
(0.0234717 0.0162437 0.00034149)
(0.0175427 0.0136566 0.000787164)
(0.0118421 0.00725314 0.000728789)
(0.00734373 0.00640409 0.000667697)
(0.00539443 0.00579364 0.000594054)
(0.00410538 0.00439681 0.000415072)
(0.00309625 0.00310645 0.000269631)
(0.00227863 0.00215161 0.000181487)
(0.00160626 0.00151072 0.000129157)
(0.00104739 0.001121 9.74843e-05)
(0.00055949 0.00094131 7.1493e-05)
(0.000170452 0.000902575 3.58856e-05)
(-0.035883 -0.00911621 -0.000501244)
(-0.037814 -0.00964995 -0.000362339)
(-0.037523 -0.00808426 -0.00137568)
(-0.036107 -0.00599879 -0.00116978)
(-0.0357528 -0.00326047 -0.00114399)
(-0.0352151 -0.000769698 -0.000835564)
(-0.0350227 0.00108806 -0.000500636)
(-0.0334638 0.00203499 -0.000580174)
(-0.0297685 0.00298227 -0.00103912)
(-0.0261616 0.00398395 -0.00141012)
(-0.0232796 0.00423732 -0.00172602)
(-0.0205938 0.00484408 -0.00196958)
(-0.0172575 0.00639852 -0.00210683)
(-0.013273 0.00793902 -0.0021756)
(-0.00920465 0.00895047 -0.00222778)
(-0.0054052 0.00962234 -0.00233881)
(-0.00180671 0.010345 -0.00256304)
(0.00197831 0.0114765 -0.0027304)
(0.00584707 0.0131199 -0.00214505)
(0.00807861 0.0154561 -0.00124677)
(0.00801201 0.017465 -0.00271266)
(0.0123295 0.0169514 -0.00468801)
(0.0190279 0.0124286 -0.00274329)
(0.0197002 0.0073221 0.000728274)
(0.0179626 0.00483924 0.00314462)
(0.0172217 0.00265851 0.00434383)
(0.0169906 0.000135849 0.00273905)
(0.0192415 -0.00120072 -0.000351327)
(0.0234619 -0.00163559 -0.00213275)
(0.0275775 -0.00315132 -0.00258754)
(0.029272 -0.00480789 -0.00194469)
(0.0287451 0.00231255 -0.000301165)
(0.0276123 0.0109378 0.00125017)
(0.0236263 0.0105233 0.00134476)
(0.0147046 0.0089881 0.000805879)
(0.00820684 0.00747446 0.000671928)
(0.0049856 0.00552779 0.000558318)
(0.00333386 0.00398967 0.000362746)
(0.00237072 0.00286702 0.00022956)
(0.00171245 0.00206534 0.000154038)
(0.00122021 0.00150569 0.000108955)
(0.000860289 0.00115146 8.14394e-05)
(0.000560676 0.000940443 5.88937e-05)
(0.000567295 0.000911576 3.6529e-05)
(-0.0377472 -0.000968814 -0.000508413)
(-0.0401079 -0.0031497 -0.000909922)
(-0.0395766 -0.00181434 -0.00125386)
(-0.0400457 -0.00182563 -0.00143336)
(-0.0391436 0.000167004 -0.00155723)
(-0.0376879 0.0016316 -0.0017094)
(-0.0358618 0.00428861 -0.00185488)
(-0.0333553 0.00654344 -0.00206555)
(-0.0304746 0.00807784 -0.00220505)
(-0.027216 0.00884875 -0.00235462)
(-0.02382 0.00945058 -0.00252372)
(-0.0203477 0.0104307 -0.00264446)
(-0.0165616 0.0117311 -0.00270984)
(-0.0124512 0.0130003 -0.00272573)
(-0.0083246 0.0141355 -0.0026986)
(-0.00446891 0.0152932 -0.00259293)
(-0.00103695 0.0166305 -0.002345)
(0.00189333 0.0181453 -0.00181589)
(0.00412021 0.0197039 -0.00144153)
(0.00570668 0.0208029 -0.00287649)
(0.0111881 0.0200124 -0.00438715)
(0.0178152 0.0143646 -0.000792068)
(0.0129487 0.00611716 0.00388029)
(0.00576745 0.00184104 0.00404432)
(0.00328036 0.00117591 0.00252587)
(0.00365598 0.00121101 0.00126745)
(0.00586683 0.000141067 0.000189703)
(0.00920244 -0.00107617 -0.000355851)
(0.0133692 -0.00136994 -0.000636343)
(0.017198 -0.000973286 -0.000807565)
(0.0178202 0.00136846 -0.000775452)
(0.0160282 0.00766128 8.14224e-05)
(0.0133947 0.0137311 0.0006427)
(0.00926482 0.014502 0.000436385)
(0.00561295 0.0117374 0.000482007)
(0.0035998 0.00805686 0.000556457)
(0.00244911 0.00542078 0.000406224)
(0.00181421 0.00377911 0.000259554)
(0.00139337 0.00269172 0.000173236)
(0.00106093 0.00194853 0.000122269)
(0.000784351 0.00142756 9.05202e-05)
(0.000537373 0.00108882 6.95779e-05)
(0.000346794 0.000799885 5.11772e-05)
(0.000304863 0.000688782 3.87745e-05)
(-0.0368892 -0.00589684 -0.0002437)
(-0.0366375 -0.00287096 -0.000164171)
(-0.0342402 -0.00188298 -0.000301372)
(-0.0342731 -0.000361991 -0.000562471)
(-0.0347972 0.00186158 -0.000744368)
(-0.0342139 0.00309488 -0.00118853)
(-0.0341445 0.00502481 -0.00136883)
(-0.0326619 0.0064943 -0.00165749)
(-0.0307738 0.00795444 -0.00186092)
(-0.0282621 0.00939747 -0.00209599)
(-0.0255283 0.0107828 -0.00229249)
(-0.0225742 0.012126 -0.00245948)
(-0.0194176 0.0135579 -0.00256661)
(-0.015991 0.0150671 -0.00258596)
(-0.0123799 0.0164738 -0.00250435)
(-0.00872589 0.0176692 -0.00232159)
(-0.00509121 0.0186312 -0.00206578)
(-0.00151201 0.0192797 -0.0018589)
(0.00232995 0.0194941 -0.00199355)
(0.00683566 0.0193204 -0.00278039)
(0.0131393 0.0180218 -0.00275708)
(0.0169807 0.0134676 0.000972731)
(0.00964598 0.00696318 0.00462961)
(0.00144277 0.00277556 0.00342727)
(-0.00188114 0.000134489 0.00133467)
(-0.00302454 -0.00163591 0.00065551)
(-0.00283524 -0.00267618 0.000428448)
(-0.00203766 -0.00319302 0.000264194)
(-0.00108205 -0.00312625 0.000114228)
(-2.49521e-05 -0.00229785 4.69052e-05)
(0.000634191 -0.000599273 6.10984e-05)
(0.000166828 0.00255244 0.000146971)
(-0.000689033 0.00800889 0.000248759)
(-0.000544176 0.0120081 0.000275955)
(0.000443621 0.0113605 0.000405693)
(0.00111778 0.00851961 0.000543647)
(0.00121343 0.00591737 0.000443112)
(0.00104605 0.00422278 0.000293207)
(0.000877743 0.00308791 0.000194414)
(0.000723458 0.00228427 0.000135402)
(0.000573816 0.00170672 9.88229e-05)
(0.000445078 0.00128069 7.51138e-05)
(0.00029349 0.00100107 5.91475e-05)
(0.000200463 0.000737004 4.34915e-05)
(4.81664e-06 0.000644926 3.73575e-05)
(-0.0413301 -0.00525951 -0.000329258)
(-0.0412369 -0.000592164 -0.000511925)
(-0.0345059 -0.00216505 -6.91144e-05)
(-0.0353772 0.00273771 -0.000132295)
(-0.0301438 0.00290035 -0.000157161)
(-0.0298468 0.00607147 -0.000112733)
(-0.0270448 0.00776353 -0.000401913)
(-0.0253914 0.00996203 -0.000524521)
(-0.0231034 0.0118468 -0.000769388)
(-0.0207598 0.0135326 -0.000972431)
(-0.0181313 0.015032 -0.00117095)
(-0.0152404 0.0164473 -0.0013341)
(-0.012026 0.0178209 -0.00144896)
(-0.00846797 0.01905 -0.00148441)
(-0.00459069 0.0199902 -0.00143072)
(-0.00054536 0.0204755 -0.00136208)
(0.00360997 0.0203985 -0.00137843)
(0.0078745 0.0196979 -0.00147973)
(0.0118626 0.0181436 -0.00116046)
(0.0136081 0.0154706 0.000580133)
(0.0104856 0.0118823 0.00335573)
(0.00326288 0.00835722 0.00441279)
(-0.00192192 0.0052318 0.00259133)
(-0.0034486 0.00230241 0.000895047)
(-0.00385604 0.000402083 0.000264937)
(-0.00412776 -0.00059642 6.87219e-05)
(-0.00446509 -0.00135788 -7.18957e-06)
(-0.00491259 -0.00210117 -3.11071e-05)
(-0.00545095 -0.00242194 -5.95806e-06)
(-0.00599196 -0.00187681 4.69595e-05)
(-0.00652756 -0.000297931 0.000100395)
(-0.0070401 0.0024239 0.00013457)
(-0.0066196 0.00600342 0.000191779)
(-0.00465226 0.00821588 0.000312223)
(-0.00240617 0.00764263 0.000425522)
(-0.00104026 0.00600174 0.000389306)
(-0.000388369 0.00447204 0.000279067)
(-7.96857e-05 0.00333716 0.000194732)
(7.97645e-05 0.00249821 0.000139124)
(0.000153547 0.00188109 0.000103487)
(0.000157949 0.0014284 7.91176e-05)
(0.000148473 0.00110166 6.33462e-05)
(4.65705e-05 0.000871485 5.18295e-05)
(2.80189e-05 0.000737334 3.78149e-05)
(-0.000235607 0.000614189 3.7381e-05)
(-0.0474629 -0.00648961 -0.00075902)
(-0.0435453 -0.00420712 -0.000340846)
(-0.0417891 -0.00416422 -0.000439865)
(-0.0388071 -0.00152456 3.90384e-05)
(-0.0357472 -0.000572125 2.53162e-05)
(-0.032584 0.00214113 0.0003049)
(-0.0292236 0.00378768 0.000358025)
(-0.0257533 0.00613706 0.000450067)
(-0.0222027 0.00801133 0.000458683)
(-0.0185181 0.00994988 0.000460004)
(-0.0148068 0.0116291 0.000439068)
(-0.0109963 0.0131389 0.000410641)
(-0.00706848 0.0144344 0.000382048)
(-0.00314039 0.0153829 0.000380923)
(0.000590038 0.015868 0.000423341)
(0.00378463 0.0158272 0.000560291)
(0.00580725 0.0149549 0.000994057)
(0.00590782 0.0131432 0.00190148)
(0.0035887 0.010802 0.00300594)
(-0.000256271 0.00871561 0.00347099)
(-0.00366619 0.00687327 0.00287054)
(-0.00519352 0.00460305 0.001642)
(-0.00516398 0.00232027 0.000680677)
(-0.00488231 0.000753358 0.000237416)
(-0.00473129 -0.000278321 5.32939e-05)
(-0.00465301 -0.000978844 -1.88218e-05)
(-0.00469095 -0.0014459 -3.71323e-05)
(-0.00497303 -0.00173088 -2.58893e-05)
(-0.00557086 -0.00176986 1.0135e-05)
(-0.00633464 -0.00136556 6.21248e-05)
(-0.00702031 -0.000335933 0.00011841)
(-0.00730626 0.00135941 0.000173818)
(-0.0065973 0.003453 0.000238335)
(-0.00488528 0.00465807 0.000304233)
(-0.00315228 0.00450953 0.000300258)
(-0.00196174 0.00379981 0.000243189)
(-0.0459986 -0.00228096 -0.00111091)
(-0.0472722 -0.00151343 -0.000425037)
(-0.0421301 -0.00203878 -0.000584788)
(-0.0443936 -0.000261782 -5.89043e-05)
(-0.0391306 -0.000649933 -0.000265713)
(-0.0392456 0.000969894 0.00038527)
(-0.0354517 0.00169049 0.0002759)
(-0.0332806 0.00289731 0.000702527)
(-0.029974 0.00406296 0.000796528)
(-0.0267999 0.00518283 0.00102963)
(-0.0234044 0.00625441 0.00116421)
(-0.0200226 0.00720279 0.00130137)
(-0.0167074 0.00804508 0.00145125)
(-0.0137173 0.00867613 0.00163715)
(-0.0112515 0.0090572 0.001867)
(-0.00960411 0.00910045 0.00216201)
(-0.00896124 0.00865988 0.00242222)
(-0.00907095 0.00781102 0.00243095)
(-0.00934101 0.00670076 0.00205911)
(-0.00914457 0.00536338 0.00146602)
(-0.00834682 0.00395969 0.000878818)
(-0.00730492 0.00269435 0.000428615)
(-0.00644343 0.00164376 0.000149282)
(-0.0058511 0.000793541 2.72377e-06)
(-0.00546844 0.000159055 -6.69454e-05)
(-0.00525659 -0.000319522 -9.3553e-05)
(-0.00519425 -0.000697988 -9.55557e-05)
(-0.00528771 -0.000972665 -7.90539e-05)
(-0.00554612 -0.00105078 -4.44151e-05)
(-0.00591929 -0.000813334 7.11479e-06)
(-0.00627214 -0.000204043 6.50548e-05)
(-0.00633528 0.00077067 0.000120107)
(-0.00575614 0.00189152 0.000165368)
(-0.00459993 0.00257248 0.000187091)
(-0.00337917 0.00261169 0.000174825)
(-0.0431406 -0.000876497 -0.000616397)
(-0.0493802 -0.00321129 -0.000811951)
(-0.0393723 -0.00151981 -0.000341376)
(-0.0472323 -0.00156464 -0.000220018)
(-0.0375688 -0.00147818 -0.000692584)
(-0.0421252 -0.00057893 0.000199391)
(-0.0366693 -0.000501737 -0.000354426)
(-0.0367602 0.000233912 0.000236565)
(-0.0337973 0.000638256 0.000138886)
(-0.031917 0.00119868 0.000411306)
(-0.0294351 0.00167454 0.000519818)
(-0.0270387 0.00214674 0.000689242)
(-0.0245707 0.00259242 0.000829146)
(-0.022173 0.00297789 0.000951093)
(-0.0198827 0.00327272 0.00103897)
(-0.0177516 0.00340273 0.00106927)
(-0.0157943 0.00326999 0.000994882)
(-0.013951 0.00289331 0.000816919)
(-0.0121897 0.00238202 0.000585962)
(-0.0105507 0.00188162 0.000369202)
(-0.00910098 0.00141968 0.00019621)
(-0.00788529 0.000941145 7.13524e-05)
(-0.00692626 0.000484645 -9.14417e-06)
(-0.00621825 0.000104455 -5.45165e-05)
(-0.00572604 -0.000200061 -7.79191e-05)
(-0.00542029 -0.000433382 -8.78552e-05)
(-0.00528434 -0.0006066 -8.91872e-05)
(-0.00530313 -0.00071663 -8.21487e-05)
(-0.00544693 -0.000738263 -6.47484e-05)
(-0.00563779 -0.000618689 -3.56747e-05)
(-0.00576416 -0.000319206 1.66079e-06)
(-0.0056617 0.000174214 4.17483e-05)
(-0.00515954 0.000741489 7.38865e-05)
(-0.00431769 0.00112369 9.07965e-05)
(-0.00339457 0.00121933 9.19724e-05)
(-0.0446337 0.00039206 -0.000588426)
(-0.0463251 0.000541662 -0.000957206)
(-0.0406512 -0.000326359 -0.000289423)
(-0.0453438 0.00121326 -0.000265574)
(-0.037545 -0.000570698 -0.000981276)
(-0.0412408 0.0010854 0.00017649)
(-0.0362867 2.3698e-05 -0.000768959)
(-0.0363782 0.000758197 -3.1253e-05)
(-0.0336933 0.000526034 -0.000343932)
(-0.0320309 0.000749015 -0.000101969)
(-0.0298324 0.000792778 -0.00010009)
(-0.0276903 0.000899491 -1.29255e-06)
(-0.0254478 0.000987984 6.66045e-05)
(-0.0231726 0.00107404 0.000136193)
(-0.0208752 0.00114489 0.000183802)
(-0.0185846 0.00118265 0.000202437)
(-0.0163584 0.00116091 0.000181144)
(-0.0142621 0.00108014 0.000130603)
(-0.0123498 0.000949436 6.84629e-05)
(-0.0106541 0.000789911 1.17054e-05)
(-0.00918394 0.00062536 -3.27795e-05)
(-0.00795837 0.00047075 -6.60277e-05)
(-0.00699256 0.000324974 -8.92562e-05)
(-0.00627479 0.000191818 -0.000104307)
(-0.00577622 7.14994e-05 -0.000113662)
(-0.00546311 -4.00975e-05 -0.000119757)
(-0.005307 -0.000138014 -0.000122933)
(-0.00528166 -0.000213419 -0.000122752)
(-0.00535035 -0.000248716 -0.000117627)
(-0.00544884 -0.000227176 -0.000105633)
(-0.00548015 -0.000146394 -8.61505e-05)
(-0.00531532 -5.47598e-06 -6.05879e-05)
(-0.00484972 0.000158659 -3.36522e-05)
(-0.00413365 0.000275461 -1.11164e-05)
(-0.0033358 0.000317172 4.47417e-06)
(0.0722793 -0.0050894 -0.00345698)
(0.081175 -0.00645377 -0.00330115)
(0.0875677 -0.00832349 0.000549565)
(0.0926467 -0.00610867 0.00252348)
(0.0981205 -0.00120596 -0.00031997)
(0.10051 0.00250211 -0.00163797)
(0.10024 0.0024069 -0.00146741)
(0.105128 0.0022199 -0.00453596)
(0.111711 0.00483068 -0.00972496)
(0.112588 0.000584989 -0.0100174)
(0.112034 -0.0091298 -0.00500183)
(0.116463 -0.0110884 0.00294454)
(0.112574 -0.00388779 0.0117276)
(0.0969499 0.00362979 0.0128796)
(0.0840312 0.00440569 0.00602101)
(0.0759612 0.00116764 0.00233691)
(0.0700459 -0.00162048 0.00383228)
(0.067243 -0.00250973 0.00359957)
(0.0671136 -0.00131242 0.00052496)
(0.0661007 -0.000876743 -0.00131788)
(0.0656259 -0.00352088 -0.00226093)
(0.0682536 -0.00785837 -0.0018272)
(0.0717293 -0.0144117 0.000845179)
(0.0814193 -0.0157933 0.000597934)
(0.0919348 -0.00169195 -0.00231857)
(0.0821005 0.00817571 -0.000646429)
(0.0662779 0.00245013 0.00419378)
(0.063226 0.00333509 0.00487881)
(0.061095 0.00624923 0.00222019)
(0.0585235 -0.00437941 0.00119907)
(0.0645779 -0.0106015 0.0027055)
(0.0678504 -0.00125697 0.00600211)
(0.0594541 0.000813059 0.00808097)
(0.0562264 -0.0108091 0.00441186)
(0.0612771 -0.0117534 0.00127671)
(0.0523703 0.00158089 0.0033918)
(0.0308 0.00826643 0.00486563)
(0.0161173 0.00527889 0.00331727)
(0.00900711 0.00230431 0.0016841)
(0.0053097 0.00103543 0.000898685)
(0.00320022 0.000523927 0.000536431)
(0.00190058 0.000300838 0.000355742)
(0.000994115 0.000194688 0.000263065)
(0.000308448 0.000140081 0.000212773)
(0.0297446 -0.00532381 -0.0012455)
(0.0344788 -0.00551484 -0.00111034)
(0.0378813 -0.00465759 -0.00257538)
(0.0414881 -0.00209462 -0.0037607)
(0.0435757 -0.000766138 -0.00222609)
(0.0458138 -0.00180824 -0.000706448)
(0.0527323 0.000307374 -0.00195571)
(0.0594696 0.0047009 -0.00542023)
(0.0656096 0.00749322 -0.00322072)
(0.0593258 0.00523681 0.0101068)
(0.0319748 -0.00276287 0.0160807)
(0.0180623 -0.0050933 0.00760448)
(0.0138711 0.00125616 0.00101457)
(0.0135155 0.00578818 -0.00111453)
(0.0144382 0.00455735 -0.0017662)
(0.0155814 0.00190735 -0.00110796)
(0.0171469 0.000309093 -0.000901798)
(0.0188978 0.000255152 -0.00270058)
(0.0214044 0.00193408 -0.00465784)
(0.0245051 0.00382955 -0.00491657)
(0.0270011 0.0043972 -0.00402716)
(0.0287029 0.00422005 -0.00259689)
(0.0291084 0.00331211 -0.00369338)
(0.0287909 0.00220836 -0.00876368)
(0.0315983 0.00462635 -0.00922376)
(0.0351416 0.00627875 -0.0024799)
(0.0350344 -0.000992876 0.000954121)
(0.0383375 -0.00791696 -0.000261906)
(0.050577 -0.00898232 0.000350621)
(0.0567625 -0.00950111 0.00304195)
(0.052958 -0.00828415 0.00570896)
(0.0569422 -0.00726242 0.00777578)
(0.0574474 -0.008669 0.0077513)
(0.0406173 -0.00155371 0.00453289)
(0.0229094 0.00972807 0.0016131)
(0.0134743 0.0143837 0.00213123)
(0.00953325 0.0115223 0.00262526)
(0.00767877 0.00657246 0.00182373)
(0.00559897 0.00345145 0.00112919)
(0.00388706 0.00187448 0.000715911)
(0.00259607 0.00110421 0.000477222)
(0.0016384 0.000719722 0.000341799)
(0.000889127 0.000526537 0.000259404)
(0.0002838 0.000439691 0.000193111)
(-0.0116017 -0.0106541 -0.00104564)
(-0.00734916 -0.0104933 -0.00110084)
(-0.00297105 -0.0101346 -0.00124655)
(0.00108408 -0.00898997 -0.00146264)
(0.00548546 -0.00636219 -0.00117093)
(0.0100484 -0.0043255 -0.000598192)
(0.0143929 -0.00336496 -0.00183915)
(0.017303 -0.00215313 -0.00362398)
(0.0188929 -0.00044761 0.000746061)
(0.00974802 0.0029252 0.00928498)
(-0.00331315 0.00484719 0.010019)
(-0.00872756 0.00213422 0.00314975)
(-0.0120958 -0.001095 -0.00161861)
(-0.0117322 0.000789323 -0.00331106)
(-0.00854832 0.00318034 -0.00347034)
(-0.00506919 0.00306324 -0.003054)
(-0.00254925 0.0019821 -0.00278366)
(-0.000741619 0.00139721 -0.00340289)
(0.00126256 0.00165979 -0.00483061)
(0.00435142 0.00269815 -0.00573553)
(0.00785962 0.00323107 -0.00542545)
(0.0104802 0.00235666 -0.00462516)
(0.0122677 0.000596497 -0.00393484)
(0.0140466 -0.00232696 -0.00360836)
(0.0166371 -0.00411867 -0.00380241)
(0.0205937 -0.000695843 -0.00362156)
(0.0252467 0.000833264 -0.00239327)
(0.0288123 -0.00535342 -0.00159862)
(0.0310981 -0.0106501 -0.00208799)
(0.0363066 -0.00932323 -0.00127928)
(0.0419876 -0.00807822 -0.00126072)
(0.04733 -0.012816 -0.00265215)
(0.0519887 -0.0104382 0.000550554)
(0.0353256 0.00312593 0.00389278)
(0.0127503 0.00806819 0.00297772)
(0.00606554 0.00629945 0.00234155)
(0.0058575 0.00759495 0.00252679)
(0.00633127 0.00695563 0.00211655)
(0.00565724 0.00479796 0.0014705)
(0.00437118 0.00311853 0.000963575)
(0.00315859 0.00202656 0.000635212)
(0.00217208 0.00135448 0.000434979)
(0.00140596 0.000958616 0.000316854)
(0.00078914 0.000733533 0.000236072)
(0.000263387 0.000625391 0.000164259)
(-0.0347117 -0.0113985 -0.00168435)
(-0.0321802 -0.0112667 -0.00231348)
(-0.0281213 -0.0109895 -0.00211701)
(-0.0252332 -0.00981153 -0.00213924)
(-0.0218251 -0.00793367 -0.00131759)
(-0.0197239 -0.00597227 0.00032138)
(-0.0195589 -0.00399764 0.0020397)
(-0.0214376 -0.000874321 0.00306794)
(-0.0249888 0.00433115 0.00307721)
(-0.0273748 0.00711663 0.00214697)
(-0.026021 0.00566653 -3.24599e-05)
(-0.0239244 0.0028342 -0.00235992)
(-0.0224271 0.0027585 -0.00388514)
(-0.0203374 0.00453051 -0.00449407)
(-0.0168933 0.00585082 -0.00464171)
(-0.0132205 0.00597799 -0.00477971)
(-0.0100353 0.00569376 -0.00501549)
(-0.00733617 0.00560252 -0.00544222)
(-0.0047804 0.00597048 -0.00603248)
(-0.00220337 0.00659886 -0.00644505)
(0.000209081 0.00681678 -0.00639933)
(0.00265142 0.0066146 -0.00587299)
(0.00520811 0.00538193 -0.00492197)
(0.00719919 0.00202727 -0.00366778)
(0.00869763 -0.00172177 -0.00322579)
(0.0111897 -0.00323257 -0.00284006)
(0.0162623 -0.00330892 -0.000531268)
(0.0212616 -0.0049226 0.00103731)
(0.02476 -0.00640579 -0.00146256)
(0.0292923 -0.00589263 -0.00423696)
(0.0352611 -0.00675843 -0.00495858)
(0.0386629 -0.00770257 -0.00454372)
(0.0356854 0.00249471 -0.00161865)
(0.0252411 0.0163076 0.00155254)
(0.01863 0.0151328 0.00246063)
(0.0123711 0.00816476 0.00270469)
(0.00718348 0.00658494 0.00246882)
(0.00523227 0.00579174 0.00182668)
(0.00407038 0.00438497 0.00119633)
(0.00310954 0.00310699 0.00077761)
(0.0023064 0.00215879 0.000525684)
(0.00163901 0.00152071 0.00037363)
(0.00108579 0.00113094 0.000279884)
(0.000610207 0.000945109 0.000207825)
(0.000209778 0.00090875 0.00012989)
(-0.045422 -0.0117774 -0.00212839)
(-0.0439888 -0.0112246 -0.00205505)
(-0.0436282 -0.00973845 -0.00310613)
(-0.0418315 -0.00761331 -0.00280816)
(-0.0408969 -0.00486036 -0.00270187)
(-0.0395469 -0.00224282 -0.00223831)
(-0.0384338 -8.86247e-05 -0.00161209)
(-0.0360924 0.00125685 -0.0014037)
(-0.0326898 0.00236834 -0.0020222)
(-0.0294669 0.00316485 -0.0028437)
(-0.0269629 0.00338539 -0.00368153)
(-0.0246193 0.00378777 -0.00428613)
(-0.0216161 0.00487273 -0.00461826)
(-0.0179923 0.00575663 -0.0047596)
(-0.0143037 0.00603637 -0.00482458)
(-0.0108941 0.0059421 -0.00490396)
(-0.00784775 0.00580627 -0.00509901)
(-0.00502029 0.00584847 -0.00536841)
(-0.00205496 0.00609653 -0.00523027)
(0.00149729 0.00618319 -0.00438197)
(0.00478808 0.00467136 -0.00286152)
(0.00515033 0.000265102 -4.48159e-05)
(0.00380691 -0.00378713 0.00307416)
(0.0032658 -0.00528503 0.00425941)
(0.00429241 -0.00538552 0.00430561)
(0.00764005 -0.004389 0.00359383)
(0.0122574 -0.00332092 0.000700908)
(0.0164979 -0.00363387 -0.00276818)
(0.0210201 -0.00395004 -0.00474679)
(0.0254019 -0.00413007 -0.00521766)
(0.026989 -0.00288342 -0.00426024)
(0.0258527 0.00522154 -0.00131353)
(0.0254601 0.0139487 0.00206419)
(0.0239419 0.0129921 0.00371863)
(0.0150668 0.00986652 0.00356981)
(0.00784924 0.00750238 0.00267496)
(0.00476313 0.00548338 0.00171176)
(0.00327006 0.00399483 0.00104214)
(0.0023647 0.00288678 0.00066022)
(0.00172695 0.0020847 0.000445527)
(0.00124127 0.0015231 0.000316441)
(0.000878483 0.00116414 0.000236136)
(0.000581949 0.00094985 0.000170942)
(0.000561914 0.000891602 0.00012018)
(-0.0438609 -0.00673496 -0.00182718)
(-0.043642 -0.00693988 -0.00217993)
(-0.0427989 -0.00629475 -0.00249977)
(-0.0422849 -0.00533925 -0.00267859)
(-0.0410684 -0.00359261 -0.00274729)
(-0.0395414 -0.00182254 -0.00286065)
(-0.0375903 0.000552972 -0.003029)
(-0.0352803 0.00270773 -0.00334269)
(-0.0326624 0.00416875 -0.00364651)
(-0.0297223 0.0048839 -0.00404952)
(-0.026669 0.00537412 -0.00451413)
(-0.0235204 0.00614263 -0.004918)
(-0.0200475 0.00706177 -0.00518827)
(-0.0162276 0.00775094 -0.00532982)
(-0.0123152 0.0080773 -0.00536682)
(-0.00851323 0.00816145 -0.00528952)
(-0.00488997 0.0081548 -0.00508388)
(-0.00125871 0.00813693 -0.00460464)
(0.00281674 0.00786166 -0.00355785)
(0.00637695 0.00622551 -0.00186356)
(0.00576458 0.00238126 0.00128526)
(0.00217028 -0.00117767 0.0051899)
(-0.000629488 -0.00241107 0.00599256)
(-0.00106115 -0.00229854 0.00371602)
(-0.000758366 -0.00197727 0.00168765)
(0.000724689 -0.00189823 0.000277965)
(0.00352988 -0.00278644 -0.00101278)
(0.0070192 -0.00360418 -0.00199872)
(0.0108482 -0.00352193 -0.00253717)
(0.0143096 -0.00252967 -0.00269053)
(0.0152588 0.000789321 -0.00239185)
(0.0147143 0.00830211 -0.000454808)
(0.0141736 0.0151483 0.00191393)
(0.0104303 0.0153853 0.00269881)
(0.00568547 0.0116981 0.00254113)
(0.00345184 0.00789127 0.00187781)
(0.00239751 0.005374 0.0011885)
(0.00181231 0.00378608 0.000750476)
(0.00141029 0.00271285 0.000502933)
(0.00108355 0.00197073 0.000356297)
(0.000806512 0.00144952 0.000263517)
(0.000560556 0.00110635 0.000201927)
(0.000368749 0.000824644 0.000148737)
(0.000309475 0.000693565 0.000113561)
(-0.0456104 -0.00856048 -0.00147879)
(-0.0438476 -0.00722264 -0.0013413)
(-0.0415709 -0.00652229 -0.00137764)
(-0.0406245 -0.00544788 -0.00151119)
(-0.039188 -0.00406157 -0.00175416)
(-0.0380043 -0.00289307 -0.00208411)
(-0.0364854 -0.00135525 -0.00236044)
(-0.0345026 -4.63255e-05 -0.00263809)
(-0.0320394 0.00120404 -0.00293333)
(-0.0291727 0.00238751 -0.0033207)
(-0.0261363 0.00346545 -0.00370333)
(-0.022947 0.00444956 -0.00407311)
(-0.0195624 0.00544271 -0.00437471)
(-0.0159027 0.00640783 -0.00454644)
(-0.0120218 0.00714616 -0.00456913)
(-0.0080689 0.00749989 -0.00441476)
(-0.00413642 0.00740869 -0.00401958)
(-0.000316177 0.0067938 -0.0032718)
(0.00317728 0.00545023 -0.00197462)
(0.00520553 0.0032928 4.33009e-05)
(0.00397882 0.00112379 0.00306955)
(0.000773732 -0.000176708 0.00625111)
(-0.00179808 -8.39187e-05 0.00632231)
(-0.00234297 0.000177727 0.00344947)
(-0.00307264 -0.000933981 0.00137823)
(-0.00353604 -0.00216014 0.000642461)
(-0.00340189 -0.00302326 0.000325817)
(-0.00285383 -0.00352841 -6.10296e-05)
(-0.00202929 -0.00368488 -0.000430133)
(-0.000922452 -0.00299521 -0.000586771)
(-1.15356e-05 -0.00114684 -0.000485634)
(-2.44699e-05 0.002524 -7.18598e-05)
(-0.000277792 0.00858324 0.000867199)
(0.000100167 0.0126475 0.00183965)
(0.000564915 0.0114306 0.00215146)
(0.000987422 0.00841051 0.00187956)
(0.00112499 0.00589758 0.00130297)
(0.00101072 0.00425098 0.000842709)
(0.000873773 0.0031259 0.000560465)
(0.000733368 0.00231919 0.000392306)
(0.000589619 0.00173529 0.00028755)
(0.000459659 0.00130651 0.00021867)
(0.000310547 0.00101969 0.000171784)
(0.00020924 0.000764571 0.00012688)
(2.50695e-05 0.000649962 0.000104445)
(-0.0480931 -0.00608676 -0.00197394)
(-0.0464621 -0.00501806 -0.00185163)