/*--------------------------------*- C++ -*----------------------------------*\
| =========                 |                                                 |
| \\      /  F ield         | OpenFOAM: The Open Source CFD Toolbox           |
|  \\    /   O peration     | Version:  2.3.1                                 |
|   \\  /    A nd           | Web:      www.OpenFOAM.org                      |
|    \\/     M anipulation  |                                                 |
\*---------------------------------------------------------------------------*/
FoamFile
{
    version     2.0;
    format      ascii;
    class       volScalarField;
    location    "5";
    object      epsilon;
}
// * * * * * * * * * * * * * * * * * * * * * * * * * * * * * * * * * * * * * //

dimensions      [0 2 -3 0 0 0 0];

internalField   nonuniform List<scalar> 
38262
(
2.11458e-06
2.11058e-06
2.10693e-06
2.1036e-06
2.10056e-06
2.09778e-06
2.09522e-06
2.09288e-06
2.09073e-06
2.08874e-06
2.08692e-06
2.08523e-06
2.08369e-06
2.08226e-06
2.08096e-06
2.07975e-06
2.07865e-06
2.07763e-06
2.07669e-06
2.07583e-06
2.07504e-06
2.07432e-06
2.07367e-06
2.07308e-06
2.07255e-06
2.07207e-06
2.07163e-06
2.07123e-06
2.07086e-06
2.07053e-06
2.07023e-06
2.06996e-06
2.06973e-06
2.06953e-06
2.06936e-06
2.06923e-06
2.06912e-06
2.06903e-06
2.69881e-06
2.69441e-06
2.6904e-06
2.68674e-06
2.68339e-06
2.68032e-06
2.6775e-06
2.67491e-06
2.67253e-06
2.67034e-06
2.66831e-06
2.66646e-06
2.66476e-06
2.66319e-06
2.66176e-06
2.66044e-06
2.65922e-06
2.65811e-06
2.65708e-06
2.65615e-06
2.6553e-06
2.65454e-06
2.65385e-06
2.65323e-06
2.65266e-06
2.65215e-06
2.65167e-06
2.65124e-06
2.65085e-06
2.6505e-06
2.65019e-06
2.64993e-06
2.64971e-06
2.64953e-06
2.64939e-06
2.64928e-06
2.64919e-06
2.64913e-06
2.86614e-06
2.86199e-06
2.85819e-06
2.85471e-06
2.85154e-06
2.84863e-06
2.84596e-06
2.84351e-06
2.84125e-06
2.83916e-06
2.83725e-06
2.83549e-06
2.83389e-06
2.83242e-06
2.83107e-06
2.82982e-06
2.82867e-06
2.82762e-06
2.82666e-06
2.82578e-06
2.82499e-06
2.82427e-06
2.82363e-06
2.82304e-06
2.82252e-06
2.82204e-06
2.8216e-06
2.8212e-06
2.82084e-06
2.82052e-06
2.82024e-06
2.82e-06
2.8198e-06
2.81963e-06
2.81951e-06
2.81941e-06
2.81934e-06
2.81928e-06
2.90258e-06
2.89849e-06
2.89474e-06
2.8913e-06
2.88817e-06
2.88529e-06
2.88266e-06
2.88023e-06
2.878e-06
2.87595e-06
2.87406e-06
2.87235e-06
2.87078e-06
2.86934e-06
2.868e-06
2.86678e-06
2.86565e-06
2.86461e-06
2.86366e-06
2.8628e-06
2.86201e-06
2.8613e-06
2.86066e-06
2.86008e-06
2.85956e-06
2.85909e-06
2.85867e-06
2.85829e-06
2.85795e-06
2.85764e-06
2.85736e-06
2.85711e-06
2.8569e-06
2.85674e-06
2.85661e-06
2.85652e-06
2.85645e-06
2.8564e-06
2.909e-06
2.90491e-06
2.90116e-06
2.89773e-06
2.8946e-06
2.89172e-06
2.88909e-06
2.88666e-06
2.88443e-06
2.88238e-06
2.88051e-06
2.8788e-06
2.87724e-06
2.87581e-06
2.87448e-06
2.87326e-06
2.87214e-06
2.8711e-06
2.87015e-06
2.86928e-06
2.86849e-06
2.86777e-06
2.86712e-06
2.86653e-06
2.86601e-06
2.86554e-06
2.86514e-06
2.86477e-06
2.86444e-06
2.86413e-06
2.86384e-06
2.86358e-06
2.86336e-06
2.86319e-06
2.86305e-06
2.86296e-06
2.86289e-06
2.86285e-06
2.90585e-06
2.9021e-06
2.89867e-06
2.89555e-06
2.89268e-06
2.89004e-06
2.88761e-06
2.88538e-06
2.88334e-06
2.88148e-06
2.87978e-06
2.87822e-06
2.87678e-06
2.87546e-06
2.87424e-06
2.87312e-06
2.87209e-06
2.87113e-06
2.87025e-06
2.86946e-06
2.86874e-06
2.86808e-06
2.86747e-06
2.86695e-06
2.86649e-06
2.86609e-06
2.86573e-06
2.8654e-06
2.86509e-06
2.8648e-06
2.86453e-06
2.86429e-06
2.86411e-06
2.86397e-06
2.86387e-06
2.86381e-06
2.86377e-06
2.9058e-06
2.90205e-06
2.89864e-06
2.89552e-06
2.89266e-06
2.89003e-06
2.8876e-06
2.88538e-06
2.88335e-06
2.8815e-06
2.87981e-06
2.87825e-06
2.87682e-06
2.8755e-06
2.87428e-06
2.87316e-06
2.87212e-06
2.87117e-06
2.87029e-06
2.86949e-06
2.86876e-06
2.8681e-06
2.86749e-06
2.86697e-06
2.86651e-06
2.86611e-06
2.86575e-06
2.86542e-06
2.86511e-06
2.86481e-06
2.86453e-06
2.86428e-06
2.86409e-06
2.86394e-06
2.86384e-06
2.86378e-06
2.86375e-06
2.90478e-06
2.90104e-06
2.89764e-06
2.89453e-06
2.89169e-06
2.88906e-06
2.88665e-06
2.88444e-06
2.88243e-06
2.88059e-06
2.8789e-06
2.87734e-06
2.87591e-06
2.87458e-06
2.87336e-06
2.87224e-06
2.87121e-06
2.87026e-06
2.86939e-06
2.86858e-06
2.86785e-06
2.86719e-06
2.86659e-06
2.86606e-06
2.8656e-06
2.8652e-06
2.86483e-06
2.8645e-06
2.86418e-06
2.86387e-06
2.86358e-06
2.86333e-06
2.86312e-06
2.86297e-06
2.86287e-06
2.86281e-06
2.86278e-06
2.8628e-06
2.8983e-06
2.89457e-06
2.89117e-06
2.88808e-06
2.88524e-06
2.88263e-06
2.88022e-06
2.87802e-06
2.87601e-06
2.87417e-06
2.87249e-06
2.87093e-06
2.86949e-06
2.86816e-06
2.86693e-06
2.86581e-06
2.86478e-06
2.86384e-06
2.86296e-06
2.86216e-06
2.86143e-06
2.86077e-06
2.86018e-06
2.85965e-06
2.85918e-06
2.85877e-06
2.85839e-06
2.85804e-06
2.85771e-06
2.85739e-06
2.8571e-06
2.85684e-06
2.85663e-06
2.85648e-06
2.85637e-06
2.85631e-06
2.85629e-06
2.85632e-06
2.86178e-06
2.858e-06
2.85456e-06
2.85142e-06
2.84855e-06
2.84591e-06
2.84347e-06
2.84125e-06
2.83921e-06
2.83735e-06
2.83565e-06
2.83407e-06
2.83261e-06
2.83125e-06
2.83e-06
2.82886e-06
2.82782e-06
2.82687e-06
2.82599e-06
2.82518e-06
2.82444e-06
2.82377e-06
2.82317e-06
2.82264e-06
2.82216e-06
2.82172e-06
2.82133e-06
2.82096e-06
2.82061e-06
2.82028e-06
2.81998e-06
2.81971e-06
2.8195e-06
2.81934e-06
2.81923e-06
2.81916e-06
2.81913e-06
2.81918e-06
2.6942e-06
2.69019e-06
2.68655e-06
2.68323e-06
2.68018e-06
2.67738e-06
2.67481e-06
2.67246e-06
2.6703e-06
2.66833e-06
2.66652e-06
2.66485e-06
2.66331e-06
2.66188e-06
2.66056e-06
2.65936e-06
2.65826e-06
2.65725e-06
2.65632e-06
2.65547e-06
2.65469e-06
2.65398e-06
2.65335e-06
2.65279e-06
2.65228e-06
2.65182e-06
2.65139e-06
2.65099e-06
2.65061e-06
2.65026e-06
2.64993e-06
2.64964e-06
2.6494e-06
2.64922e-06
2.64908e-06
2.64899e-06
2.64895e-06
2.64898e-06
2.11044e-06
2.10677e-06
2.10344e-06
2.1004e-06
2.09763e-06
2.09509e-06
2.09275e-06
2.09061e-06
2.08865e-06
2.08685e-06
2.0852e-06
2.08369e-06
2.08229e-06
2.08101e-06
2.07982e-06
2.07873e-06
2.07772e-06
2.07679e-06
2.07594e-06
2.07516e-06
2.07444e-06
2.07379e-06
2.07319e-06
2.07265e-06
2.07217e-06
2.07173e-06
2.07133e-06
2.07096e-06
2.07062e-06
2.0703e-06
2.07e-06
2.06973e-06
2.06949e-06
2.06928e-06
2.06911e-06
2.06899e-06
2.06891e-06
2.06887e-06
1.93867e-06
1.93671e-06
1.93492e-06
1.93328e-06
1.93177e-06
1.93039e-06
1.92912e-06
1.92795e-06
1.92687e-06
1.92588e-06
1.92496e-06
1.92412e-06
1.92335e-06
1.92264e-06
1.92199e-06
1.92139e-06
1.92084e-06
1.92034e-06
1.91987e-06
1.91945e-06
1.91906e-06
1.91872e-06
1.9184e-06
1.91812e-06
1.91786e-06
1.91762e-06
1.9174e-06
1.91721e-06
1.91703e-06
1.91687e-06
1.91673e-06
1.9166e-06
1.9165e-06
1.91641e-06
1.91633e-06
1.91626e-06
1.91621e-06
1.91616e-06
1.51345e-06
1.512e-06
1.51069e-06
1.5095e-06
1.50841e-06
1.50743e-06
1.50654e-06
1.50573e-06
1.50499e-06
1.50431e-06
1.50369e-06
1.50311e-06
1.50258e-06
1.5021e-06
1.50165e-06
1.50123e-06
1.50085e-06
1.50049e-06
1.50017e-06
1.49986e-06
1.49957e-06
1.4993e-06
1.49906e-06
1.49883e-06
1.49863e-06
1.49845e-06
1.49829e-06
1.49814e-06
1.49801e-06
1.49788e-06
1.49776e-06
1.49764e-06
1.49752e-06
1.49742e-06
1.49732e-06
1.49724e-06
1.49718e-06
1.49712e-06
1.43141e-06
1.42985e-06
1.42844e-06
1.42717e-06
1.42601e-06
1.42496e-06
1.424e-06
1.42314e-06
1.42234e-06
1.42162e-06
1.42096e-06
1.42034e-06
1.41977e-06
1.41925e-06
1.41877e-06
1.41833e-06
1.41792e-06
1.41754e-06
1.41719e-06
1.41686e-06
1.41656e-06
1.41627e-06
1.416e-06
1.41576e-06
1.41554e-06
1.41534e-06
1.41517e-06
1.41501e-06
1.41486e-06
1.41473e-06
1.41459e-06
1.41446e-06
1.41434e-06
1.41423e-06
1.41412e-06
1.41403e-06
1.41396e-06
1.4139e-06
1.41129e-06
1.4097e-06
1.40828e-06
1.40699e-06
1.40582e-06
1.40475e-06
1.40379e-06
1.40291e-06
1.4021e-06
1.40137e-06
1.40069e-06
1.40005e-06
1.39947e-06
1.39894e-06
1.39845e-06
1.39801e-06
1.3976e-06
1.39722e-06
1.39686e-06
1.39653e-06
1.39622e-06
1.39594e-06
1.39567e-06
1.39543e-06
1.3952e-06
1.39499e-06
1.39481e-06
1.39464e-06
1.39449e-06
1.39435e-06
1.39422e-06
1.3941e-06
1.39398e-06
1.39386e-06
1.39375e-06
1.39366e-06
1.39358e-06
1.39352e-06
1.40705e-06
1.40547e-06
1.40405e-06
1.40276e-06
1.4016e-06
1.40054e-06
1.39958e-06
1.3987e-06
1.3979e-06
1.39716e-06
1.39647e-06
1.39584e-06
1.39525e-06
1.39472e-06
1.39424e-06
1.39379e-06
1.39339e-06
1.39301e-06
1.39266e-06
1.39234e-06
1.39204e-06
1.39175e-06
1.39149e-06
1.39125e-06
1.39103e-06
1.39081e-06
1.39062e-06
1.39044e-06
1.39029e-06
1.39015e-06
1.39003e-06
1.38992e-06
1.38981e-06
1.38969e-06
1.38958e-06
1.38948e-06
1.3894e-06
1.38933e-06
1.40473e-06
1.40331e-06
1.40203e-06
1.40086e-06
1.3998e-06
1.39884e-06
1.39797e-06
1.39717e-06
1.39642e-06
1.39573e-06
1.3951e-06
1.39452e-06
1.39399e-06
1.39351e-06
1.39306e-06
1.39266e-06
1.39229e-06
1.39195e-06
1.39163e-06
1.39133e-06
1.39106e-06
1.3908e-06
1.39057e-06
1.39034e-06
1.39012e-06
1.38992e-06
1.38974e-06
1.38958e-06
1.38945e-06
1.38934e-06
1.38923e-06
1.38913e-06
1.38902e-06
1.38891e-06
1.38881e-06
1.38871e-06
1.38864e-06
1.40476e-06
1.40333e-06
1.40202e-06
1.40085e-06
1.39979e-06
1.39883e-06
1.39795e-06
1.39714e-06
1.39639e-06
1.3957e-06
1.39506e-06
1.39449e-06
1.39396e-06
1.39348e-06
1.39304e-06
1.39263e-06
1.39227e-06
1.39193e-06
1.39162e-06
1.39132e-06
1.39105e-06
1.3908e-06
1.39056e-06
1.39034e-06
1.39012e-06
1.38991e-06
1.38973e-06
1.38958e-06
1.38946e-06
1.38935e-06
1.38925e-06
1.38914e-06
1.38903e-06
1.38892e-06
1.38882e-06
1.38872e-06
1.38864e-06
1.40552e-06
1.40407e-06
1.40276e-06
1.40156e-06
1.40049e-06
1.39952e-06
1.39863e-06
1.39782e-06
1.39706e-06
1.39636e-06
1.39573e-06
1.39516e-06
1.39464e-06
1.39416e-06
1.39372e-06
1.39332e-06
1.39295e-06
1.39261e-06
1.39229e-06
1.392e-06
1.39173e-06
1.39148e-06
1.39124e-06
1.39101e-06
1.3908e-06
1.3906e-06
1.39043e-06
1.39028e-06
1.39016e-06
1.39006e-06
1.38996e-06
1.38985e-06
1.38974e-06
1.38963e-06
1.38952e-06
1.38942e-06
1.38933e-06
1.38926e-06
1.40976e-06
1.4083e-06
1.40697e-06
1.40576e-06
1.40468e-06
1.4037e-06
1.4028e-06
1.40198e-06
1.40122e-06
1.40052e-06
1.39989e-06
1.39932e-06
1.3988e-06
1.39833e-06
1.3979e-06
1.39749e-06
1.39712e-06
1.39677e-06
1.39646e-06
1.39617e-06
1.3959e-06
1.39565e-06
1.3954e-06
1.39518e-06
1.39497e-06
1.39478e-06
1.39462e-06
1.39448e-06
1.39436e-06
1.39426e-06
1.39416e-06
1.39406e-06
1.39395e-06
1.39383e-06
1.39372e-06
1.39361e-06
1.39351e-06
1.39344e-06
1.4299e-06
1.42845e-06
1.42714e-06
1.42594e-06
1.42487e-06
1.4239e-06
1.42301e-06
1.4222e-06
1.42145e-06
1.42077e-06
1.42014e-06
1.41958e-06
1.41908e-06
1.41862e-06
1.4182e-06
1.4178e-06
1.41742e-06
1.41708e-06
1.41677e-06
1.41649e-06
1.41622e-06
1.41597e-06
1.41573e-06
1.41552e-06
1.41532e-06
1.41515e-06
1.41499e-06
1.41486e-06
1.41475e-06
1.41465e-06
1.41455e-06
1.41445e-06
1.41434e-06
1.41422e-06
1.41411e-06
1.414e-06
1.4139e-06
1.41382e-06
1.51202e-06
1.51068e-06
1.50946e-06
1.50835e-06
1.50736e-06
1.50645e-06
1.50563e-06
1.50487e-06
1.50418e-06
1.50354e-06
1.50296e-06
1.50244e-06
1.50196e-06
1.50153e-06
1.50113e-06
1.50076e-06
1.50041e-06
1.50009e-06
1.49979e-06
1.49952e-06
1.49928e-06
1.49904e-06
1.49882e-06
1.49862e-06
1.49844e-06
1.49828e-06
1.49814e-06
1.49802e-06
1.49791e-06
1.49781e-06
1.49772e-06
1.49762e-06
1.49752e-06
1.49741e-06
1.49731e-06
1.49721e-06
1.49712e-06
1.49705e-06
1.93662e-06
1.93484e-06
1.93321e-06
1.93172e-06
1.93035e-06
1.9291e-06
1.92794e-06
1.92688e-06
1.92591e-06
1.92502e-06
1.9242e-06
1.92345e-06
1.92275e-06
1.92211e-06
1.92151e-06
1.92096e-06
1.92046e-06
1.92e-06
1.91957e-06
1.91917e-06
1.91881e-06
1.91848e-06
1.91819e-06
1.91792e-06
1.91767e-06
1.91745e-06
1.91724e-06
1.91704e-06
1.91686e-06
1.9167e-06
1.91655e-06
1.91642e-06
1.91632e-06
1.91624e-06
1.91618e-06
1.91613e-06
1.9161e-06
1.91608e-06
2.16602e-06
2.16378e-06
2.16174e-06
2.15988e-06
2.15818e-06
2.15661e-06
2.15518e-06
2.15386e-06
2.15265e-06
2.15154e-06
2.15051e-06
2.14957e-06
2.1487e-06
2.1479e-06
2.14717e-06
2.1465e-06
2.14588e-06
2.14532e-06
2.14479e-06
2.14432e-06
2.14388e-06
2.14348e-06
2.14312e-06
2.1428e-06
2.1425e-06
2.14223e-06
2.14198e-06
2.14176e-06
2.14155e-06
2.14137e-06
2.1412e-06
2.14106e-06
2.14093e-06
2.14082e-06
2.14073e-06
2.14066e-06
2.14059e-06
2.14054e-06
1.20563e-06
1.20487e-06
1.20418e-06
1.20356e-06
1.20299e-06
1.20248e-06
1.20202e-06
1.2016e-06
1.20122e-06
1.20087e-06
1.20056e-06
1.20026e-06
1.19999e-06
1.19974e-06
1.19951e-06
1.1993e-06
1.1991e-06
1.19892e-06
1.19875e-06
1.19859e-06
1.19844e-06
1.1983e-06
1.19816e-06
1.19804e-06
1.19793e-06
1.19784e-06
1.19776e-06
1.19769e-06
1.19762e-06
1.19756e-06
1.19749e-06
1.19742e-06
1.19736e-06
1.19729e-06
1.19724e-06
1.19719e-06
1.19714e-06
1.19711e-06
1.01309e-06
1.01232e-06
1.01164e-06
1.01102e-06
1.01047e-06
1.00996e-06
1.00951e-06
1.00909e-06
1.00872e-06
1.00838e-06
1.00807e-06
1.00778e-06
1.00751e-06
1.00726e-06
1.00704e-06
1.00683e-06
1.00664e-06
1.00646e-06
1.0063e-06
1.00614e-06
1.00599e-06
1.00586e-06
1.00573e-06
1.00561e-06
1.0055e-06
1.00541e-06
1.00533e-06
1.00525e-06
1.00518e-06
1.00511e-06
1.00505e-06
1.00498e-06
1.00492e-06
1.00486e-06
1.0048e-06
1.00476e-06
1.00471e-06
1.00468e-06
9.64821e-07
9.64036e-07
9.63335e-07
9.62704e-07
9.62134e-07
9.61618e-07
9.6115e-07
9.60726e-07
9.60341e-07
9.59989e-07
9.59663e-07
9.59361e-07
9.59083e-07
9.58829e-07
9.58598e-07
9.58387e-07
9.58192e-07
9.58011e-07
9.57842e-07
9.57685e-07
9.57537e-07
9.57398e-07
9.5727e-07
9.57151e-07
9.57041e-07
9.5694e-07
9.56849e-07
9.56768e-07
9.56693e-07
9.56623e-07
9.56559e-07
9.56497e-07
9.56437e-07
9.56377e-07
9.56319e-07
9.56268e-07
9.56224e-07
9.56188e-07
9.53974e-07
9.53185e-07
9.52481e-07
9.51846e-07
9.51273e-07
9.50755e-07
9.50286e-07
9.49861e-07
9.49473e-07
9.49116e-07
9.48784e-07
9.48478e-07
9.48197e-07
9.47941e-07
9.47709e-07
9.47496e-07
9.47301e-07
9.47121e-07
9.46955e-07
9.468e-07
9.46653e-07
9.46516e-07
9.46391e-07
9.46274e-07
9.46163e-07
9.46057e-07
9.45961e-07
9.45874e-07
9.45797e-07
9.45729e-07
9.45668e-07
9.4561e-07
9.45553e-07
9.45495e-07
9.45437e-07
9.45384e-07
9.45337e-07
9.45297e-07
9.51189e-07
9.50483e-07
9.49845e-07
9.4927e-07
9.48751e-07
9.48284e-07
9.47859e-07
9.47469e-07
9.47108e-07
9.46774e-07
9.46467e-07
9.46187e-07
9.45932e-07
9.457e-07
9.45487e-07
9.45293e-07
9.45115e-07
9.44952e-07
9.44799e-07
9.44655e-07
9.44522e-07
9.444e-07
9.44285e-07
9.44173e-07
9.44065e-07
9.43965e-07
9.43875e-07
9.43798e-07
9.43732e-07
9.43675e-07
9.43622e-07
9.43567e-07
9.43511e-07
9.43454e-07
9.43398e-07
9.43348e-07
9.43304e-07
9.51202e-07
9.5049e-07
9.49846e-07
9.49265e-07
9.48744e-07
9.48275e-07
9.47847e-07
9.47454e-07
9.4709e-07
9.46754e-07
9.46448e-07
9.46169e-07
9.45916e-07
9.45685e-07
9.45474e-07
9.45279e-07
9.45102e-07
9.4494e-07
9.4479e-07
9.44648e-07
9.44517e-07
9.44397e-07
9.44282e-07
9.4417e-07
9.44062e-07
9.43961e-07
9.43872e-07
9.43796e-07
9.43733e-07
9.43679e-07
9.43628e-07
9.43576e-07
9.4352e-07
9.43463e-07
9.43406e-07
9.43352e-07
9.43304e-07
9.53215e-07
9.52497e-07
9.51846e-07
9.51259e-07
9.50732e-07
9.50258e-07
9.49827e-07
9.4943e-07
9.49064e-07
9.48727e-07
9.48421e-07
9.48144e-07
9.47894e-07
9.47666e-07
9.47457e-07
9.47262e-07
9.47084e-07
9.46921e-07
9.46771e-07
9.46632e-07
9.46502e-07
9.46381e-07
9.46265e-07
9.46153e-07
9.46048e-07
9.4595e-07
9.45864e-07
9.45791e-07
9.45731e-07
9.45679e-07
9.4563e-07
9.45579e-07
9.45523e-07
9.45465e-07
9.45406e-07
9.4535e-07
9.45299e-07
9.45253e-07
9.64072e-07
9.63353e-07
9.627e-07
9.6211e-07
9.61581e-07
9.61106e-07
9.60674e-07
9.60278e-07
9.59912e-07
9.59577e-07
9.59273e-07
9.59e-07
9.58755e-07
9.58532e-07
9.58326e-07
9.58133e-07
9.57954e-07
9.5779e-07
9.57641e-07
9.57503e-07
9.57374e-07
9.57252e-07
9.57136e-07
9.57027e-07
9.56925e-07
9.56834e-07
9.56753e-07
9.56685e-07
9.56628e-07
9.56578e-07
9.56531e-07
9.5648e-07
9.56425e-07
9.56365e-07
9.56305e-07
9.56247e-07
9.56192e-07
9.56141e-07
1.01235e-06
1.01165e-06
1.01101e-06
1.01044e-06
1.00992e-06
1.00946e-06
1.00903e-06
1.00865e-06
1.00829e-06
1.00797e-06
1.00767e-06
1.00741e-06
1.00717e-06
1.00696e-06
1.00676e-06
1.00657e-06
1.00639e-06
1.00623e-06
1.00609e-06
1.00595e-06
1.00583e-06
1.00571e-06
1.00559e-06
1.00549e-06
1.00539e-06
1.00531e-06
1.00523e-06
1.00517e-06
1.00512e-06
1.00507e-06
1.00503e-06
1.00498e-06
1.00493e-06
1.00487e-06
1.00481e-06
1.00475e-06
1.00469e-06
1.00464e-06
1.2049e-06
1.20419e-06
1.20355e-06
1.20297e-06
1.20245e-06
1.20198e-06
1.20156e-06
1.20116e-06
1.2008e-06
1.20047e-06
1.20018e-06
1.19991e-06
1.19967e-06
1.19945e-06
1.19925e-06
1.19906e-06
1.19888e-06
1.19871e-06
1.19856e-06
1.19842e-06
1.19829e-06
1.19816e-06
1.19804e-06
1.19792e-06
1.19782e-06
1.19773e-06
1.19766e-06
1.1976e-06
1.19756e-06
1.19752e-06
1.19748e-06
1.19743e-06
1.19737e-06
1.19731e-06
1.19725e-06
1.19719e-06
1.19712e-06
1.19707e-06
2.1637e-06
2.16166e-06
2.1598e-06
2.15811e-06
2.15656e-06
2.15513e-06
2.15382e-06
2.15262e-06
2.15153e-06
2.15052e-06
2.14959e-06
2.14874e-06
2.14796e-06
2.14723e-06
2.14656e-06
2.14595e-06
2.14539e-06
2.14487e-06
2.14439e-06
2.14396e-06
2.14355e-06
2.14319e-06
2.14286e-06
2.14256e-06
2.14229e-06
2.14204e-06
2.14181e-06
2.1416e-06
2.1414e-06
2.14122e-06
2.14105e-06
2.1409e-06
2.14077e-06
2.14067e-06
2.14058e-06
2.14052e-06
2.14048e-06
2.14045e-06
2.24841e-06
2.24606e-06
2.24392e-06
2.24197e-06
2.24018e-06
2.23854e-06
2.23703e-06
2.23565e-06
2.23438e-06
2.23321e-06
2.23213e-06
2.23114e-06
2.23024e-06
2.22941e-06
2.22865e-06
2.22795e-06
2.22731e-06
2.22672e-06
2.22618e-06
2.22568e-06
2.22523e-06
2.22482e-06
2.22444e-06
2.2241e-06
2.2238e-06
2.22351e-06
2.22325e-06
2.22302e-06
2.22281e-06
2.22261e-06
2.22244e-06
2.22229e-06
2.22216e-06
2.22205e-06
2.22195e-06
2.22187e-06
2.22181e-06
2.22175e-06
1.07452e-06
1.07398e-06
1.0735e-06
1.07307e-06
1.07268e-06
1.07233e-06
1.07201e-06
1.07172e-06
1.07145e-06
1.07121e-06
1.07099e-06
1.07079e-06
1.0706e-06
1.07043e-06
1.07027e-06
1.07013e-06
1.07e-06
1.06988e-06
1.06976e-06
1.06966e-06
1.06955e-06
1.06945e-06
1.06936e-06
1.06927e-06
1.06919e-06
1.06913e-06
1.06908e-06
1.06903e-06
1.06899e-06
1.06894e-06
1.0689e-06
1.06885e-06
1.06881e-06
1.06876e-06
1.06872e-06
1.06868e-06
1.06865e-06
1.06863e-06
8.23409e-07
8.22955e-07
8.22551e-07
8.22189e-07
8.21864e-07
8.2157e-07
8.21305e-07
8.21066e-07
8.20849e-07
8.20653e-07
8.20473e-07
8.20307e-07
8.20154e-07
8.20013e-07
8.19884e-07
8.19767e-07
8.19659e-07
8.19558e-07
8.19463e-07
8.19375e-07
8.19291e-07
8.19212e-07
8.19137e-07
8.19069e-07
8.19008e-07
8.18953e-07
8.18905e-07
8.18862e-07
8.18822e-07
8.18783e-07
8.18746e-07
8.18708e-07
8.18671e-07
8.18635e-07
8.18601e-07
8.18571e-07
8.18546e-07
8.18525e-07
7.57013e-07
7.56549e-07
7.56137e-07
7.55768e-07
7.55435e-07
7.55136e-07
7.54866e-07
7.54621e-07
7.544e-07
7.54199e-07
7.54013e-07
7.53841e-07
7.53683e-07
7.53539e-07
7.53408e-07
7.53289e-07
7.53178e-07
7.53076e-07
7.52981e-07
7.52892e-07
7.52808e-07
7.52729e-07
7.52656e-07
7.52589e-07
7.52526e-07
7.52469e-07
7.52417e-07
7.52371e-07
7.52328e-07
7.52288e-07
7.52251e-07
7.52215e-07
7.5218e-07
7.52145e-07
7.52111e-07
7.5208e-07
7.52054e-07
7.52031e-07
7.40752e-07
7.40282e-07
7.39865e-07
7.3949e-07
7.39154e-07
7.38851e-07
7.38577e-07
7.3833e-07
7.38105e-07
7.37899e-07
7.37709e-07
7.37533e-07
7.37373e-07
7.37227e-07
7.37094e-07
7.36973e-07
7.36861e-07
7.36759e-07
7.36664e-07
7.36575e-07
7.36492e-07
7.36414e-07
7.36343e-07
7.36276e-07
7.36212e-07
7.36152e-07
7.36097e-07
7.36048e-07
7.36003e-07
7.35963e-07
7.35928e-07
7.35894e-07
7.3586e-07
7.35826e-07
7.35792e-07
7.35761e-07
7.35732e-07
7.35707e-07
7.37e-07
7.3658e-07
7.36203e-07
7.35864e-07
7.35559e-07
7.35286e-07
7.35038e-07
7.34811e-07
7.34602e-07
7.3441e-07
7.34233e-07
7.34073e-07
7.33927e-07
7.33793e-07
7.33672e-07
7.3356e-07
7.33459e-07
7.33365e-07
7.33278e-07
7.33196e-07
7.3312e-07
7.3305e-07
7.32984e-07
7.3292e-07
7.32858e-07
7.32801e-07
7.3275e-07
7.32705e-07
7.32667e-07
7.32633e-07
7.32601e-07
7.32569e-07
7.32536e-07
7.32502e-07
7.32469e-07
7.32439e-07
7.32412e-07
7.37006e-07
7.36583e-07
7.36203e-07
7.35861e-07
7.35555e-07
7.3528e-07
7.35031e-07
7.34803e-07
7.34592e-07
7.34399e-07
7.34223e-07
7.34063e-07
7.33917e-07
7.33785e-07
7.33664e-07
7.33553e-07
7.33451e-07
7.33359e-07
7.33272e-07
7.33192e-07
7.33117e-07
7.33047e-07
7.32982e-07
7.32918e-07
7.32856e-07
7.32799e-07
7.32748e-07
7.32704e-07
7.32667e-07
7.32635e-07
7.32605e-07
7.32574e-07
7.32541e-07
7.32507e-07
7.32474e-07
7.32442e-07
7.32412e-07
7.40298e-07
7.39873e-07
7.3949e-07
7.39146e-07
7.38838e-07
7.38562e-07
7.38311e-07
7.38081e-07
7.3787e-07
7.37677e-07
7.37501e-07
7.37343e-07
7.372e-07
7.37069e-07
7.3695e-07
7.36839e-07
7.36737e-07
7.36644e-07
7.36559e-07
7.36479e-07
7.36405e-07
7.36336e-07
7.3627e-07
7.36206e-07
7.36146e-07
7.36091e-07
7.36042e-07
7.36e-07
7.35964e-07
7.35934e-07
7.35905e-07
7.35875e-07
7.35842e-07
7.35808e-07
7.35774e-07
7.3574e-07
7.35709e-07
7.3568e-07
7.56569e-07
7.56147e-07
7.55766e-07
7.55423e-07
7.55116e-07
7.54841e-07
7.54592e-07
7.54364e-07
7.54155e-07
7.53964e-07
7.53791e-07
7.53636e-07
7.53496e-07
7.53369e-07
7.53253e-07
7.53144e-07
7.53043e-07
7.5295e-07
7.52866e-07
7.52788e-07
7.52715e-07
7.52646e-07
7.5258e-07
7.52517e-07
7.5246e-07
7.52408e-07
7.52362e-07
7.52323e-07
7.52291e-07
7.52262e-07
7.52235e-07
7.52206e-07
7.52174e-07
7.52139e-07
7.52103e-07
7.52069e-07
7.52035e-07
7.52004e-07
8.22975e-07
8.2256e-07
8.22185e-07
8.21847e-07
8.21545e-07
8.21275e-07
8.2103e-07
8.20807e-07
8.20601e-07
8.20414e-07
8.20245e-07
8.20094e-07
8.19959e-07
8.19836e-07
8.19722e-07
8.19616e-07
8.19517e-07
8.19425e-07
8.19342e-07
8.19265e-07
8.19193e-07
8.19124e-07
8.19058e-07
8.18996e-07
8.18941e-07
8.18892e-07
8.18851e-07
8.18817e-07
8.18789e-07
8.18765e-07
8.1874e-07
8.18713e-07
8.18681e-07
8.18644e-07
8.18607e-07
8.18569e-07
8.18533e-07
8.18499e-07
1.074e-06
1.07351e-06
1.07306e-06
1.07266e-06
1.0723e-06
1.07198e-06
1.07168e-06
1.07141e-06
1.07116e-06
1.07094e-06
1.07073e-06
1.07054e-06
1.07038e-06
1.07023e-06
1.07009e-06
1.06996e-06
1.06984e-06
1.06973e-06
1.06963e-06
1.06953e-06
1.06944e-06
1.06935e-06
1.06926e-06
1.06918e-06
1.06911e-06
1.06905e-06
1.069e-06
1.06897e-06
1.06895e-06
1.06893e-06
1.06891e-06
1.06888e-06
1.06884e-06
1.06879e-06
1.06874e-06
1.06869e-06
1.06864e-06
1.0686e-06
2.24596e-06
2.24383e-06
2.24189e-06
2.24012e-06
2.23849e-06
2.23699e-06
2.23561e-06
2.23436e-06
2.23321e-06
2.23215e-06
2.23118e-06
2.23028e-06
2.22946e-06
2.2287e-06
2.228e-06
2.22737e-06
2.22678e-06
2.22625e-06
2.22575e-06
2.2253e-06
2.22488e-06
2.2245e-06
2.22416e-06
2.22386e-06
2.22358e-06
2.22332e-06
2.22308e-06
2.22286e-06
2.22265e-06
2.22246e-06
2.22229e-06
2.22213e-06
2.222e-06
2.22189e-06
2.2218e-06
2.22173e-06
2.22168e-06
2.22165e-06
2.28231e-06
2.27992e-06
2.27773e-06
2.27573e-06
2.27391e-06
2.27223e-06
2.2707e-06
2.26928e-06
2.26799e-06
2.26679e-06
2.26569e-06
2.26468e-06
2.26376e-06
2.26292e-06
2.26214e-06
2.26143e-06
2.26078e-06
2.26018e-06
2.25963e-06
2.25913e-06
2.25867e-06
2.25825e-06
2.25787e-06
2.25752e-06
2.25721e-06
2.25692e-06
2.25666e-06
2.25642e-06
2.2562e-06
2.25601e-06
2.25583e-06
2.25568e-06
2.25555e-06
2.25543e-06
2.25533e-06
2.25526e-06
2.25519e-06
2.25513e-06
1.01397e-06
1.01354e-06
1.01317e-06
1.01282e-06
1.01252e-06
1.01224e-06
1.01199e-06
1.01176e-06
1.01155e-06
1.01136e-06
1.01119e-06
1.01103e-06
1.01088e-06
1.01074e-06
1.01062e-06
1.01051e-06
1.0104e-06
1.01031e-06
1.01022e-06
1.01014e-06
1.01006e-06
1.00998e-06
1.0099e-06
1.00983e-06
1.00977e-06
1.00972e-06
1.00968e-06
1.00964e-06
1.00961e-06
1.00958e-06
1.00954e-06
1.00951e-06
1.00947e-06
1.00943e-06
1.0094e-06
1.00937e-06
1.00935e-06
1.00934e-06
7.28737e-07
7.28443e-07
7.28183e-07
7.2795e-07
7.27742e-07
7.27556e-07
7.27388e-07
7.27237e-07
7.271e-07
7.26977e-07
7.26864e-07
7.26761e-07
7.26665e-07
7.26578e-07
7.26498e-07
7.26425e-07
7.26358e-07
7.26295e-07
7.26237e-07
7.26183e-07
7.26131e-07
7.26081e-07
7.26033e-07
7.2599e-07
7.25951e-07
7.25918e-07
7.25888e-07
7.25861e-07
7.25836e-07
7.25812e-07
7.25789e-07
7.25765e-07
7.25741e-07
7.25718e-07
7.25697e-07
7.25678e-07
7.25663e-07
7.25649e-07
6.49966e-07
6.49671e-07
6.4941e-07
6.49178e-07
6.48971e-07
6.48785e-07
6.48617e-07
6.48466e-07
6.4833e-07
6.48207e-07
6.48094e-07
6.47989e-07
6.47894e-07
6.47807e-07
6.47728e-07
6.47655e-07
6.47589e-07
6.47527e-07
6.4747e-07
6.47416e-07
6.47366e-07
6.47319e-07
6.47275e-07
6.47234e-07
6.47196e-07
6.47162e-07
6.47131e-07
6.47103e-07
6.47077e-07
6.47053e-07
6.4703e-07
6.47008e-07
6.46987e-07
6.46965e-07
6.46945e-07
6.46926e-07
6.4691e-07
6.46895e-07
6.2941e-07
6.29111e-07
6.28845e-07
6.28609e-07
6.28397e-07
6.28208e-07
6.28037e-07
6.27884e-07
6.27745e-07
6.27618e-07
6.27501e-07
6.27394e-07
6.27296e-07
6.27208e-07
6.27127e-07
6.27053e-07
6.26986e-07
6.26923e-07
6.26866e-07
6.26813e-07
6.26762e-07
6.26716e-07
6.26672e-07
6.26632e-07
6.26594e-07
6.26558e-07
6.26525e-07
6.26495e-07
6.26468e-07
6.26444e-07
6.26422e-07
6.26401e-07
6.2638e-07
6.2636e-07
6.26339e-07
6.2632e-07
6.26302e-07
6.26286e-07
6.24664e-07
6.24396e-07
6.24157e-07
6.23944e-07
6.23753e-07
6.23581e-07
6.23426e-07
6.23286e-07
6.23157e-07
6.23039e-07
6.22931e-07
6.22832e-07
6.22743e-07
6.22662e-07
6.22588e-07
6.2252e-07
6.22458e-07
6.22401e-07
6.22348e-07
6.22299e-07
6.22253e-07
6.2221e-07
6.2217e-07
6.22132e-07
6.22095e-07
6.22061e-07
6.2203e-07
6.22003e-07
6.21979e-07
6.21958e-07
6.21938e-07
6.21918e-07
6.21898e-07
6.21878e-07
6.21858e-07
6.21839e-07
6.21822e-07
6.24667e-07
6.24398e-07
6.24158e-07
6.23942e-07
6.2375e-07
6.23578e-07
6.23423e-07
6.23281e-07
6.23151e-07
6.23033e-07
6.22925e-07
6.22827e-07
6.22738e-07
6.22657e-07
6.22584e-07
6.22516e-07
6.22454e-07
6.22398e-07
6.22345e-07
6.22296e-07
6.22251e-07
6.22209e-07
6.22169e-07
6.2213e-07
6.22094e-07
6.22059e-07
6.22029e-07
6.22002e-07
6.21979e-07
6.21959e-07
6.2194e-07
6.21921e-07
6.21901e-07
6.21881e-07
6.2186e-07
6.21841e-07
6.21822e-07
6.29119e-07
6.2885e-07
6.28609e-07
6.28393e-07
6.28201e-07
6.28028e-07
6.27873e-07
6.27731e-07
6.27601e-07
6.27483e-07
6.27376e-07
6.27279e-07
6.27192e-07
6.27112e-07
6.2704e-07
6.26973e-07
6.26911e-07
6.26855e-07
6.26803e-07
6.26755e-07
6.2671e-07
6.26668e-07
6.26628e-07
6.2659e-07
6.26554e-07
6.26521e-07
6.26492e-07
6.26466e-07
6.26445e-07
6.26426e-07
6.26408e-07
6.26389e-07
6.26369e-07
6.26349e-07
6.26328e-07
6.26307e-07
6.26288e-07
6.2627e-07
6.49682e-07
6.49416e-07
6.49177e-07
6.48963e-07
6.48773e-07
6.48602e-07
6.48449e-07
6.48309e-07
6.48181e-07
6.48065e-07
6.47959e-07
6.47865e-07
6.4778e-07
6.47703e-07
6.47633e-07
6.47567e-07
6.47506e-07
6.47451e-07
6.474e-07
6.47353e-07
6.47309e-07
6.47267e-07
6.47228e-07
6.4719e-07
6.47156e-07
6.47125e-07
6.47098e-07
6.47075e-07
6.47056e-07
6.47039e-07
6.47022e-07
6.47004e-07
6.46985e-07
6.46963e-07
6.46941e-07
6.46919e-07
6.46898e-07
6.46879e-07
7.28456e-07
7.28188e-07
7.27947e-07
7.27731e-07
7.27539e-07
7.27368e-07
7.27213e-07
7.27071e-07
7.26943e-07
7.26825e-07
7.2672e-07
7.26625e-07
7.26541e-07
7.26464e-07
7.26393e-07
7.26327e-07
7.26266e-07
7.2621e-07
7.26159e-07
7.26112e-07
7.26067e-07
7.26023e-07
7.25981e-07
7.25942e-07
7.25908e-07
7.25878e-07
7.25854e-07
7.25835e-07
7.2582e-07
7.25807e-07
7.25793e-07
7.25777e-07
7.25756e-07
7.25732e-07
7.25706e-07
7.2568e-07
7.25655e-07
7.25633e-07
1.01356e-06
1.01317e-06
1.01282e-06
1.0125e-06
1.01222e-06
1.01196e-06
1.01173e-06
1.01151e-06
1.01132e-06
1.01114e-06
1.01098e-06
1.01083e-06
1.0107e-06
1.01058e-06
1.01047e-06
1.01037e-06
1.01027e-06
1.01019e-06
1.01011e-06
1.01003e-06
1.00996e-06
1.00989e-06
1.00982e-06
1.00976e-06
1.00971e-06
1.00966e-06
1.00963e-06
1.0096e-06
1.00959e-06
1.00959e-06
1.00958e-06
1.00956e-06
1.00952e-06
1.00948e-06
1.00944e-06
1.00939e-06
1.00935e-06
1.00932e-06
2.27982e-06
2.27764e-06
2.27566e-06
2.27385e-06
2.27219e-06
2.27066e-06
2.26926e-06
2.26798e-06
2.26681e-06
2.26573e-06
2.26474e-06
2.26383e-06
2.26298e-06
2.26221e-06
2.26149e-06
2.26084e-06
2.26024e-06
2.2597e-06
2.25919e-06
2.25873e-06
2.25831e-06
2.25793e-06
2.25759e-06
2.25728e-06
2.257e-06
2.25674e-06
2.25649e-06
2.25626e-06
2.25605e-06
2.25585e-06
2.25568e-06
2.25552e-06
2.25538e-06
2.25526e-06
2.25517e-06
2.2551e-06
2.25505e-06
2.25503e-06
2.29618e-06
2.29377e-06
2.29157e-06
2.28956e-06
2.28772e-06
2.28604e-06
2.28449e-06
2.28307e-06
2.28176e-06
2.28056e-06
2.27946e-06
2.27844e-06
2.27751e-06
2.27667e-06
2.27589e-06
2.27518e-06
2.27453e-06
2.27392e-06
2.27337e-06
2.27287e-06
2.2724e-06
2.27198e-06
2.2716e-06
2.27125e-06
2.27094e-06
2.27065e-06
2.27039e-06
2.27015e-06
2.26993e-06
2.26974e-06
2.26956e-06
2.2694e-06
2.26927e-06
2.26915e-06
2.26906e-06
2.26898e-06
2.26891e-06
2.26885e-06
9.86475e-07
9.86114e-07
9.85792e-07
9.85502e-07
9.8524e-07
9.85004e-07
9.84789e-07
9.84595e-07
9.84418e-07
9.84257e-07
9.8411e-07
9.83974e-07
9.83848e-07
9.83731e-07
9.83625e-07
9.83531e-07
9.83447e-07
9.83368e-07
9.83293e-07
9.83223e-07
9.83155e-07
9.83084e-07
9.83014e-07
9.82951e-07
9.82899e-07
9.82857e-07
9.8282e-07
9.82787e-07
9.82756e-07
9.82729e-07
9.82702e-07
9.82672e-07
9.8264e-07
9.82607e-07
9.82582e-07
9.82562e-07
9.82546e-07
9.82534e-07
6.80889e-07
6.80687e-07
6.80509e-07
6.80352e-07
6.80212e-07
6.80087e-07
6.79975e-07
6.79874e-07
6.79784e-07
6.79703e-07
6.79628e-07
6.79561e-07
6.79499e-07
6.79441e-07
6.79389e-07
6.79341e-07
6.79298e-07
6.79258e-07
6.7922e-07
6.79184e-07
6.7915e-07
6.79117e-07
6.79084e-07
6.79055e-07
6.79029e-07
6.79007e-07
6.78988e-07
6.7897e-07
6.78954e-07
6.78938e-07
6.78923e-07
6.78907e-07
6.78892e-07
6.78876e-07
6.78862e-07
6.7885e-07
6.78841e-07
6.78832e-07
5.93567e-07
5.93374e-07
5.93203e-07
5.93053e-07
5.92919e-07
5.928e-07
5.92693e-07
5.92597e-07
5.92511e-07
5.92434e-07
5.92363e-07
5.92299e-07
5.9224e-07
5.92186e-07
5.92137e-07
5.92092e-07
5.92051e-07
5.92014e-07
5.91978e-07
5.91946e-07
5.91915e-07
5.91886e-07
5.91859e-07
5.91833e-07
5.9181e-07
5.9179e-07
5.91771e-07
5.91753e-07
5.91737e-07
5.91723e-07
5.91709e-07
5.91695e-07
5.91682e-07
5.91669e-07
5.91656e-07
5.91645e-07
5.91635e-07
5.91626e-07
5.6974e-07
5.69543e-07
5.69369e-07
5.69216e-07
5.69079e-07
5.68957e-07
5.68849e-07
5.68751e-07
5.68663e-07
5.68583e-07
5.68511e-07
5.68444e-07
5.68384e-07
5.68329e-07
5.68279e-07
5.68234e-07
5.68192e-07
5.68154e-07
5.68119e-07
5.68086e-07
5.68055e-07
5.68027e-07
5.68001e-07
5.67976e-07
5.67953e-07
5.67931e-07
5.67911e-07
5.67893e-07
5.67877e-07