/*--------------------------------*- C++ -*----------------------------------*\
| =========                 |                                                 |
| \\      /  F ield         | OpenFOAM: The Open Source CFD Toolbox           |
|  \\    /   O peration     | Version:  2.3.1                                 |
|   \\  /    A nd           | Web:      www.OpenFOAM.org                      |
|    \\/     M anipulation  |                                                 |
\*---------------------------------------------------------------------------*/
FoamFile
{
    version     2.0;
    format      ascii;
    class       volScalarField;
    location    "5";
    object      epsilon_0;
}
// * * * * * * * * * * * * * * * * * * * * * * * * * * * * * * * * * * * * * //

dimensions      [0 2 -3 0 0 0 0];

internalField   nonuniform List<scalar> 
38262
(
2.11565e-06
2.11165e-06
2.10801e-06
2.10468e-06
2.10164e-06
2.09886e-06
2.0963e-06
2.09396e-06
2.0918e-06
2.08982e-06
2.08799e-06
2.08631e-06
2.08476e-06
2.08334e-06
2.08203e-06
2.08083e-06
2.07972e-06
2.07871e-06
2.07777e-06
2.07691e-06
2.07612e-06
2.0754e-06
2.07475e-06
2.07416e-06
2.07363e-06
2.07314e-06
2.0727e-06
2.0723e-06
2.07194e-06
2.07161e-06
2.07131e-06
2.07104e-06
2.07081e-06
2.07061e-06
2.07044e-06
2.0703e-06
2.0702e-06
2.07011e-06
2.69992e-06
2.69552e-06
2.69151e-06
2.68784e-06
2.68449e-06
2.68143e-06
2.67861e-06
2.67602e-06
2.67364e-06
2.67144e-06
2.66942e-06
2.66756e-06
2.66586e-06
2.6643e-06
2.66286e-06
2.66154e-06
2.66033e-06
2.65921e-06
2.65819e-06
2.65725e-06
2.65641e-06
2.65564e-06
2.65496e-06
2.65433e-06
2.65377e-06
2.65325e-06
2.65278e-06
2.65235e-06
2.65195e-06
2.6516e-06
2.6513e-06
2.65103e-06
2.65081e-06
2.65064e-06
2.65049e-06
2.65038e-06
2.6503e-06
2.65024e-06
2.8672e-06
2.86304e-06
2.85924e-06
2.85577e-06
2.85259e-06
2.84969e-06
2.84702e-06
2.84456e-06
2.8423e-06
2.84022e-06
2.8383e-06
2.83655e-06
2.83495e-06
2.83348e-06
2.83213e-06
2.83088e-06
2.82973e-06
2.82868e-06
2.82772e-06
2.82684e-06
2.82605e-06
2.82533e-06
2.82469e-06
2.8241e-06
2.82357e-06
2.8231e-06
2.82266e-06
2.82226e-06
2.8219e-06
2.82158e-06
2.8213e-06
2.82106e-06
2.82085e-06
2.82069e-06
2.82056e-06
2.82047e-06
2.8204e-06
2.82034e-06
2.90362e-06
2.89952e-06
2.89577e-06
2.89234e-06
2.8892e-06
2.88632e-06
2.88369e-06
2.88127e-06
2.87903e-06
2.87698e-06
2.87509e-06
2.87338e-06
2.87181e-06
2.87037e-06
2.86904e-06
2.86781e-06
2.86668e-06
2.86564e-06
2.86469e-06
2.86383e-06
2.86304e-06
2.86233e-06
2.86169e-06
2.86111e-06
2.86059e-06
2.86012e-06
2.8597e-06
2.85932e-06
2.85898e-06
2.85867e-06
2.85839e-06
2.85814e-06
2.85793e-06
2.85777e-06
2.85764e-06
2.85755e-06
2.85748e-06
2.85743e-06
2.91003e-06
2.90593e-06
2.90218e-06
2.89876e-06
2.89562e-06
2.89275e-06
2.89011e-06
2.88768e-06
2.88545e-06
2.8834e-06
2.88153e-06
2.87983e-06
2.87827e-06
2.87683e-06
2.87551e-06
2.87428e-06
2.87316e-06
2.87212e-06
2.87117e-06
2.8703e-06
2.86951e-06
2.8688e-06
2.86814e-06
2.86755e-06
2.86703e-06
2.86657e-06
2.86616e-06
2.86579e-06
2.86546e-06
2.86515e-06
2.86487e-06
2.86461e-06
2.86438e-06
2.86421e-06
2.86408e-06
2.86398e-06
2.86392e-06
2.86387e-06
2.90687e-06
2.90312e-06
2.8997e-06
2.89657e-06
2.8937e-06
2.89106e-06
2.88863e-06
2.8864e-06
2.88436e-06
2.8825e-06
2.8808e-06
2.87924e-06
2.8778e-06
2.87648e-06
2.87527e-06
2.87414e-06
2.87311e-06
2.87215e-06
2.87127e-06
2.87048e-06
2.86976e-06
2.8691e-06
2.8685e-06
2.86797e-06
2.86751e-06
2.86711e-06
2.86675e-06
2.86642e-06
2.86611e-06
2.86582e-06
2.86555e-06
2.86531e-06
2.86513e-06
2.86499e-06
2.86489e-06
2.86483e-06
2.86479e-06
2.90682e-06
2.90308e-06
2.89966e-06
2.89655e-06
2.89369e-06
2.89105e-06
2.88862e-06
2.8864e-06
2.88438e-06
2.88253e-06
2.88083e-06
2.87927e-06
2.87784e-06
2.87652e-06
2.8753e-06
2.87418e-06
2.87315e-06
2.87219e-06
2.87131e-06
2.87051e-06
2.86979e-06
2.86912e-06
2.86852e-06
2.86799e-06
2.86753e-06
2.86713e-06
2.86677e-06
2.86645e-06
2.86613e-06
2.86583e-06
2.86555e-06
2.8653e-06
2.86511e-06
2.86496e-06
2.86486e-06
2.8648e-06
2.86477e-06
2.9058e-06
2.90206e-06
2.89866e-06
2.89556e-06
2.89271e-06
2.89009e-06
2.88768e-06
2.88547e-06
2.88345e-06
2.88161e-06
2.87992e-06
2.87837e-06
2.87693e-06
2.87561e-06
2.87439e-06
2.87327e-06
2.87224e-06
2.87128e-06
2.87041e-06
2.86961e-06
2.86888e-06
2.86821e-06
2.86761e-06
2.86709e-06
2.86663e-06
2.86622e-06
2.86586e-06
2.86552e-06
2.8652e-06
2.86489e-06
2.8646e-06
2.86435e-06
2.86415e-06
2.86399e-06
2.86389e-06
2.86383e-06
2.8638e-06
2.86382e-06
2.89934e-06
2.8956e-06
2.8922e-06
2.88911e-06
2.88627e-06
2.88366e-06
2.88125e-06
2.87905e-06
2.87704e-06
2.8752e-06
2.87352e-06
2.87197e-06
2.87052e-06
2.86919e-06
2.86796e-06
2.86684e-06
2.86581e-06
2.86487e-06
2.86399e-06
2.86319e-06
2.86246e-06
2.8618e-06
2.86121e-06
2.86068e-06
2.86021e-06
2.8598e-06
2.85942e-06
2.85907e-06
2.85874e-06
2.85842e-06
2.85813e-06
2.85787e-06
2.85766e-06
2.85751e-06
2.8574e-06
2.85734e-06
2.85731e-06
2.85735e-06
2.86284e-06
2.85906e-06
2.85562e-06
2.85248e-06
2.84961e-06
2.84696e-06
2.84453e-06
2.84231e-06
2.84027e-06
2.83841e-06
2.8367e-06
2.83513e-06
2.83366e-06
2.83231e-06
2.83106e-06
2.82992e-06
2.82888e-06
2.82793e-06
2.82705e-06
2.82623e-06
2.82549e-06
2.82482e-06
2.82423e-06
2.82369e-06
2.82321e-06
2.82278e-06
2.82238e-06
2.82201e-06
2.82166e-06
2.82134e-06
2.82103e-06
2.82077e-06
2.82055e-06
2.82039e-06
2.82028e-06
2.82021e-06
2.82019e-06
2.82023e-06
2.69531e-06
2.6913e-06
2.68766e-06
2.68434e-06
2.68129e-06
2.67849e-06
2.67592e-06
2.67356e-06
2.67141e-06
2.66944e-06
2.66763e-06
2.66596e-06
2.66442e-06
2.66299e-06
2.66167e-06
2.66046e-06
2.65936e-06
2.65835e-06
2.65743e-06
2.65657e-06
2.65579e-06
2.65509e-06
2.65445e-06
2.65389e-06
2.65339e-06
2.65292e-06
2.6525e-06
2.65209e-06
2.65172e-06
2.65136e-06
2.65104e-06
2.65075e-06
2.65051e-06
2.65033e-06
2.65019e-06
2.6501e-06
2.65006e-06
2.65009e-06
2.11151e-06
2.10785e-06
2.10452e-06
2.10148e-06
2.09871e-06
2.09617e-06
2.09383e-06
2.09169e-06
2.08973e-06
2.08793e-06
2.08628e-06
2.08477e-06
2.08337e-06
2.08209e-06
2.0809e-06
2.0798e-06
2.0788e-06
2.07787e-06
2.07702e-06
2.07624e-06
2.07552e-06
2.07486e-06
2.07427e-06
2.07373e-06
2.07324e-06
2.0728e-06
2.0724e-06
2.07204e-06
2.07169e-06
2.07138e-06
2.07108e-06
2.07081e-06
2.07057e-06
2.07036e-06
2.07019e-06
2.07007e-06
2.06999e-06
2.06995e-06
1.93947e-06
1.93751e-06
1.93572e-06
1.93408e-06
1.93257e-06
1.93119e-06
1.92992e-06
1.92875e-06
1.92767e-06
1.92668e-06
1.92576e-06
1.92492e-06
1.92414e-06
1.92344e-06
1.92279e-06
1.92219e-06
1.92164e-06
1.92114e-06
1.92067e-06
1.92025e-06
1.91986e-06
1.91951e-06
1.9192e-06
1.91892e-06
1.91866e-06
1.91842e-06
1.9182e-06
1.91801e-06
1.91783e-06
1.91767e-06
1.91753e-06
1.9174e-06
1.9173e-06
1.91721e-06
1.91713e-06
1.91706e-06
1.917e-06
1.91696e-06
1.51392e-06
1.51246e-06
1.51115e-06
1.50996e-06
1.50888e-06
1.5079e-06
1.507e-06
1.50619e-06
1.50545e-06
1.50477e-06
1.50415e-06
1.50358e-06
1.50305e-06
1.50256e-06
1.50211e-06
1.5017e-06
1.50131e-06
1.50096e-06
1.50063e-06
1.50032e-06
1.50004e-06
1.49977e-06
1.49952e-06
1.49929e-06
1.49909e-06
1.49891e-06
1.49875e-06
1.49861e-06
1.49847e-06
1.49834e-06
1.49822e-06
1.4981e-06
1.49799e-06
1.49788e-06
1.49779e-06
1.49771e-06
1.49764e-06
1.49758e-06
1.43179e-06
1.43023e-06
1.42882e-06
1.42755e-06
1.42639e-06
1.42534e-06
1.42439e-06
1.42352e-06
1.42273e-06
1.422e-06
1.42134e-06
1.42072e-06
1.42015e-06
1.41963e-06
1.41915e-06
1.41871e-06
1.4183e-06
1.41793e-06
1.41757e-06
1.41724e-06
1.41694e-06
1.41665e-06
1.41638e-06
1.41614e-06
1.41592e-06
1.41572e-06
1.41555e-06
1.41539e-06
1.41524e-06
1.41511e-06
1.41497e-06
1.41484e-06
1.41472e-06
1.41461e-06
1.4145e-06
1.41441e-06
1.41434e-06
1.41428e-06
1.41166e-06
1.41007e-06
1.40865e-06
1.40736e-06
1.40619e-06
1.40512e-06
1.40416e-06
1.40328e-06
1.40247e-06
1.40174e-06
1.40106e-06
1.40042e-06
1.39984e-06
1.39931e-06
1.39882e-06
1.39838e-06
1.39797e-06
1.39759e-06
1.39723e-06
1.3969e-06
1.39659e-06
1.39631e-06
1.39604e-06
1.39579e-06
1.39557e-06
1.39536e-06
1.39518e-06
1.39501e-06
1.39486e-06
1.39472e-06
1.39459e-06
1.39447e-06
1.39435e-06
1.39423e-06
1.39412e-06
1.39403e-06
1.39395e-06
1.39389e-06
1.40742e-06
1.40584e-06
1.40442e-06
1.40313e-06
1.40197e-06
1.40091e-06
1.39995e-06
1.39907e-06
1.39827e-06
1.39753e-06
1.39684e-06
1.39621e-06
1.39562e-06
1.39509e-06
1.39461e-06
1.39416e-06
1.39376e-06
1.39338e-06
1.39303e-06
1.39271e-06
1.39241e-06
1.39212e-06
1.39186e-06
1.39162e-06
1.3914e-06
1.39118e-06
1.39099e-06
1.39081e-06
1.39066e-06
1.39052e-06
1.3904e-06
1.39029e-06
1.39018e-06
1.39006e-06
1.38995e-06
1.38985e-06
1.38977e-06
1.3897e-06
1.40511e-06
1.40369e-06
1.4024e-06
1.40123e-06
1.40017e-06
1.39922e-06
1.39834e-06
1.39754e-06
1.39679e-06
1.3961e-06
1.39547e-06
1.39489e-06
1.39436e-06
1.39388e-06
1.39343e-06
1.39303e-06
1.39266e-06
1.39232e-06
1.392e-06
1.3917e-06
1.39143e-06
1.39117e-06
1.39094e-06
1.39071e-06
1.39049e-06
1.39029e-06
1.39011e-06
1.38995e-06
1.38982e-06
1.38971e-06
1.3896e-06
1.3895e-06
1.38939e-06
1.38928e-06
1.38918e-06
1.38908e-06
1.38901e-06
1.40513e-06
1.4037e-06
1.4024e-06
1.40122e-06
1.40016e-06
1.3992e-06
1.39832e-06
1.39751e-06
1.39676e-06
1.39607e-06
1.39543e-06
1.39486e-06
1.39433e-06
1.39385e-06
1.39341e-06
1.39301e-06
1.39264e-06
1.3923e-06
1.39199e-06
1.39169e-06
1.39142e-06
1.39117e-06
1.39093e-06
1.39071e-06
1.39049e-06
1.39028e-06
1.3901e-06
1.38995e-06
1.38983e-06
1.38972e-06
1.38962e-06
1.38951e-06
1.3894e-06
1.38929e-06
1.38919e-06
1.38909e-06
1.38901e-06
1.40589e-06
1.40444e-06
1.40313e-06
1.40193e-06
1.40086e-06
1.39989e-06
1.39901e-06
1.39819e-06
1.39743e-06
1.39673e-06
1.3961e-06
1.39553e-06
1.39501e-06
1.39453e-06
1.39409e-06
1.39369e-06
1.39332e-06
1.39298e-06
1.39266e-06
1.39237e-06
1.3921e-06
1.39185e-06
1.39161e-06
1.39138e-06
1.39117e-06
1.39097e-06
1.3908e-06
1.39065e-06
1.39053e-06
1.39043e-06
1.39033e-06
1.39022e-06
1.39011e-06
1.39e-06
1.38989e-06
1.38979e-06
1.3897e-06
1.38963e-06
1.41013e-06
1.40867e-06
1.40734e-06
1.40613e-06
1.40505e-06
1.40407e-06
1.40317e-06
1.40235e-06
1.40159e-06
1.40089e-06
1.40026e-06
1.39969e-06
1.39917e-06
1.3987e-06
1.39827e-06
1.39786e-06
1.39749e-06
1.39714e-06
1.39683e-06
1.39654e-06
1.39627e-06
1.39602e-06
1.39577e-06
1.39555e-06
1.39534e-06
1.39515e-06
1.39499e-06
1.39485e-06
1.39473e-06
1.39463e-06
1.39453e-06
1.39443e-06
1.39432e-06
1.3942e-06
1.39409e-06
1.39398e-06
1.39388e-06
1.39381e-06
1.43028e-06
1.42883e-06
1.42752e-06
1.42632e-06
1.42525e-06
1.42428e-06
1.4234e-06
1.42258e-06
1.42183e-06
1.42115e-06
1.42053e-06
1.41996e-06
1.41946e-06
1.419e-06
1.41858e-06
1.41818e-06
1.4178e-06
1.41746e-06
1.41715e-06
1.41687e-06
1.4166e-06
1.41635e-06
1.41611e-06
1.4159e-06
1.4157e-06
1.41553e-06
1.41537e-06
1.41524e-06
1.41513e-06
1.41503e-06
1.41493e-06
1.41483e-06
1.41472e-06
1.4146e-06
1.41449e-06
1.41438e-06
1.41428e-06
1.4142e-06
1.51249e-06
1.51115e-06
1.50993e-06
1.50882e-06
1.50782e-06
1.50692e-06
1.5061e-06
1.50534e-06
1.50464e-06
1.504e-06
1.50343e-06
1.5029e-06
1.50243e-06
1.50199e-06
1.50159e-06
1.50122e-06
1.50087e-06
1.50055e-06
1.50026e-06
1.49999e-06
1.49974e-06
1.49951e-06
1.49929e-06
1.49908e-06
1.4989e-06
1.49874e-06
1.4986e-06
1.49848e-06
1.49838e-06
1.49828e-06
1.49818e-06
1.49809e-06
1.49798e-06
1.49787e-06
1.49777e-06
1.49767e-06
1.49758e-06
1.49751e-06
1.93742e-06
1.93563e-06
1.93401e-06
1.93252e-06
1.93115e-06
1.92989e-06
1.92874e-06
1.92768e-06
1.92671e-06
1.92582e-06
1.925e-06
1.92425e-06
1.92355e-06
1.92291e-06
1.92231e-06
1.92176e-06
1.92126e-06
1.9208e-06
1.92037e-06
1.91997e-06
1.91961e-06
1.91928e-06
1.91899e-06
1.91872e-06
1.91847e-06
1.91825e-06
1.91804e-06
1.91784e-06
1.91766e-06
1.9175e-06
1.91735e-06
1.91722e-06
1.91712e-06
1.91703e-06
1.91698e-06
1.91693e-06
1.9169e-06
1.91688e-06
2.1668e-06
2.16457e-06
2.16253e-06
2.16067e-06
2.15896e-06
2.1574e-06
2.15597e-06
2.15465e-06
2.15344e-06
2.15233e-06
2.1513e-06
2.15035e-06
2.14949e-06
2.14869e-06
2.14796e-06
2.14729e-06
2.14667e-06
2.1461e-06
2.14558e-06
2.1451e-06
2.14467e-06
2.14427e-06
2.14391e-06
2.14358e-06
2.14329e-06
2.14302e-06
2.14277e-06
2.14254e-06
2.14234e-06
2.14216e-06
2.14199e-06
2.14185e-06
2.14172e-06
2.14161e-06
2.14152e-06
2.14144e-06
2.14138e-06
2.14133e-06
1.20585e-06
1.20509e-06
1.2044e-06
1.20378e-06
1.20321e-06
1.2027e-06
1.20224e-06
1.20182e-06
1.20144e-06
1.20109e-06
1.20077e-06
1.20048e-06
1.20021e-06
1.19996e-06
1.19973e-06
1.19951e-06
1.19932e-06
1.19914e-06
1.19897e-06
1.19881e-06
1.19866e-06
1.19852e-06
1.19838e-06
1.19826e-06
1.19815e-06
1.19806e-06
1.19798e-06
1.19791e-06
1.19784e-06
1.19777e-06
1.19771e-06
1.19764e-06
1.19758e-06
1.19751e-06
1.19745e-06
1.1974e-06
1.19736e-06
1.19733e-06
1.0132e-06
1.01244e-06
1.01176e-06
1.01114e-06
1.01059e-06
1.01008e-06
1.00963e-06
1.00921e-06
1.00884e-06
1.0085e-06
1.00819e-06
1.0079e-06
1.00763e-06
1.00738e-06
1.00716e-06
1.00695e-06
1.00676e-06
1.00658e-06
1.00642e-06
1.00626e-06
1.00611e-06
1.00598e-06
1.00585e-06
1.00573e-06
1.00562e-06
1.00553e-06
1.00545e-06
1.00537e-06
1.0053e-06
1.00523e-06
1.00517e-06
1.0051e-06
1.00504e-06
1.00498e-06
1.00493e-06
1.00488e-06
1.00483e-06
1.0048e-06
9.64933e-07
9.64148e-07
9.63448e-07
9.62817e-07
9.62247e-07
9.61731e-07
9.61263e-07
9.60839e-07
9.60454e-07
9.60102e-07
9.59776e-07
9.59474e-07
9.59196e-07
9.58942e-07
9.58711e-07
9.585e-07
9.58305e-07
9.58124e-07
9.57956e-07
9.57799e-07
9.5765e-07
9.57511e-07
9.57383e-07
9.57264e-07
9.57154e-07
9.57053e-07
9.56963e-07
9.56881e-07
9.56806e-07
9.56737e-07
9.56672e-07
9.56611e-07
9.5655e-07
9.5649e-07
9.56433e-07
9.56381e-07
9.56338e-07
9.56302e-07
9.54089e-07
9.533e-07
9.52596e-07
9.51962e-07
9.51389e-07
9.50871e-07
9.50402e-07
9.49977e-07
9.49589e-07
9.49232e-07
9.489e-07
9.48594e-07
9.48313e-07
9.48057e-07
9.47825e-07
9.47613e-07
9.47417e-07
9.47237e-07
9.47071e-07
9.46916e-07
9.46769e-07
9.46633e-07
9.46507e-07
9.46391e-07
9.46279e-07
9.46174e-07
9.46077e-07
9.45991e-07
9.45914e-07
9.45845e-07
9.45784e-07
9.45727e-07
9.4567e-07
9.45611e-07
9.45554e-07
9.45501e-07
9.45454e-07
9.45414e-07
9.51306e-07
9.506e-07
9.49962e-07
9.49387e-07
9.48869e-07
9.48401e-07
9.47976e-07
9.47586e-07
9.47225e-07
9.46891e-07
9.46584e-07
9.46304e-07
9.4605e-07
9.45817e-07
9.45605e-07
9.4541e-07
9.45233e-07
9.4507e-07
9.44917e-07
9.44773e-07
9.4464e-07
9.44518e-07
9.44403e-07
9.44291e-07
9.44183e-07
9.44083e-07
9.43993e-07
9.43916e-07
9.4385e-07
9.43793e-07
9.4374e-07
9.43686e-07
9.43629e-07
9.43572e-07
9.43516e-07
9.43466e-07
9.43422e-07
9.51318e-07
9.50607e-07
9.49963e-07
9.49382e-07
9.48861e-07
9.48392e-07
9.47965e-07
9.47571e-07
9.47207e-07
9.46872e-07
9.46565e-07
9.46287e-07
9.46034e-07
9.45803e-07
9.45591e-07
9.45397e-07
9.4522e-07
9.45058e-07
9.44908e-07
9.44766e-07
9.44635e-07
9.44514e-07
9.444e-07
9.44288e-07
9.4418e-07
9.44079e-07
9.4399e-07
9.43914e-07
9.43851e-07
9.43797e-07
9.43746e-07
9.43694e-07
9.43638e-07
9.43581e-07
9.43524e-07
9.4347e-07
9.43422e-07
9.5333e-07
9.52612e-07
9.51962e-07
9.51374e-07
9.50848e-07
9.50374e-07
9.49943e-07
9.49546e-07
9.4918e-07
9.48843e-07
9.48537e-07
9.4826e-07
9.4801e-07
9.47783e-07
9.47573e-07
9.47379e-07
9.472e-07
9.47038e-07
9.46888e-07
9.46748e-07
9.46618e-07
9.46497e-07
9.46381e-07
9.4627e-07
9.46164e-07
9.46067e-07
9.45981e-07
9.45908e-07
9.45847e-07
9.45796e-07
9.45747e-07
9.45696e-07
9.4564e-07
9.45582e-07
9.45523e-07
9.45467e-07
9.45416e-07
9.45369e-07
9.64184e-07
9.63465e-07
9.62812e-07
9.62223e-07
9.61694e-07
9.61219e-07
9.60787e-07
9.60391e-07
9.60025e-07
9.5969e-07
9.59386e-07
9.59113e-07
9.58868e-07
9.58645e-07
9.58439e-07
9.58246e-07
9.58067e-07
9.57903e-07
9.57754e-07
9.57616e-07
9.57488e-07
9.57366e-07
9.5725e-07
9.5714e-07
9.57039e-07
9.56947e-07
9.56867e-07
9.56798e-07
9.56741e-07
9.56692e-07
9.56644e-07
9.56594e-07
9.56538e-07
9.56478e-07
9.56418e-07
9.56361e-07
9.56306e-07
9.56255e-07
1.01247e-06
1.01177e-06
1.01113e-06
1.01056e-06
1.01004e-06
1.00958e-06
1.00915e-06
1.00877e-06
1.00841e-06
1.00809e-06
1.00779e-06
1.00753e-06
1.00729e-06
1.00708e-06
1.00688e-06
1.00669e-06
1.00651e-06
1.00635e-06
1.00621e-06
1.00607e-06
1.00595e-06
1.00583e-06
1.00571e-06
1.00561e-06
1.00551e-06
1.00543e-06
1.00535e-06
1.00529e-06
1.00524e-06
1.00519e-06
1.00515e-06
1.0051e-06
1.00505e-06
1.00499e-06
1.00493e-06
1.00487e-06
1.00481e-06
1.00476e-06
1.20511e-06
1.20441e-06
1.20376e-06
1.20318e-06
1.20266e-06
1.2022e-06
1.20177e-06
1.20138e-06
1.20102e-06
1.20069e-06
1.20039e-06
1.20013e-06
1.19989e-06
1.19967e-06
1.19947e-06
1.19928e-06
1.1991e-06
1.19893e-06
1.19878e-06
1.19864e-06
1.1985e-06
1.19838e-06
1.19826e-06
1.19814e-06
1.19804e-06
1.19795e-06
1.19788e-06
1.19782e-06
1.19777e-06
1.19773e-06
1.19769e-06
1.19765e-06
1.19759e-06
1.19753e-06
1.19747e-06
1.1974e-06
1.19734e-06
1.19729e-06
2.16448e-06
2.16245e-06
2.16059e-06
2.1589e-06
2.15734e-06
2.15592e-06
2.15461e-06
2.15341e-06
2.15231e-06
2.15131e-06
2.15038e-06
2.14953e-06
2.14874e-06
2.14802e-06
2.14735e-06
2.14674e-06
2.14618e-06
2.14566e-06
2.14518e-06
2.14474e-06
2.14434e-06
2.14398e-06
2.14364e-06
2.14335e-06
2.14307e-06
2.14283e-06
2.1426e-06
2.14238e-06
2.14219e-06
2.142e-06
2.14184e-06
2.14169e-06
2.14156e-06
2.14145e-06
2.14137e-06
2.14131e-06
2.14126e-06
2.14124e-06
2.24917e-06
2.24682e-06
2.24468e-06
2.24273e-06
2.24094e-06
2.2393e-06
2.23779e-06
2.23641e-06
2.23514e-06
2.23397e-06
2.23289e-06
2.2319e-06
2.231e-06
2.23017e-06
2.22941e-06
2.22872e-06
2.22807e-06
2.22748e-06
2.22694e-06
2.22645e-06
2.22599e-06
2.22558e-06
2.22521e-06
2.22487e-06
2.22456e-06
2.22428e-06
2.22402e-06
2.22378e-06
2.22357e-06
2.22338e-06
2.22321e-06
2.22305e-06
2.22292e-06
2.22281e-06
2.22271e-06
2.22263e-06
2.22257e-06
2.22251e-06
1.07465e-06
1.07412e-06
1.07364e-06
1.07321e-06
1.07282e-06
1.07246e-06
1.07214e-06
1.07185e-06
1.07159e-06
1.07135e-06
1.07113e-06
1.07092e-06
1.07074e-06
1.07057e-06
1.07041e-06
1.07027e-06
1.07013e-06
1.07001e-06
1.0699e-06
1.06979e-06
1.06969e-06
1.06959e-06
1.06949e-06
1.0694e-06
1.06933e-06
1.06927e-06
1.06921e-06
1.06917e-06
1.06912e-06
1.06908e-06
1.06904e-06
1.06899e-06
1.06894e-06
1.0689e-06
1.06885e-06
1.06882e-06
1.06879e-06
1.06877e-06
8.23441e-07
8.22988e-07
8.22584e-07
8.22222e-07
8.21897e-07
8.21603e-07
8.21338e-07
8.21099e-07
8.20883e-07
8.20686e-07
8.20507e-07
8.20341e-07
8.20187e-07
8.20047e-07
8.19918e-07
8.19801e-07
8.19692e-07
8.19591e-07
8.19497e-07
8.19409e-07
8.19325e-07
8.19246e-07
8.19171e-07
8.19103e-07
8.19042e-07
8.18987e-07
8.18939e-07
8.18896e-07
8.18856e-07
8.18817e-07
8.1878e-07
8.18742e-07
8.18705e-07
8.18669e-07
8.18635e-07
8.18605e-07
8.1858e-07
8.18559e-07
7.5704e-07
7.56576e-07
7.56164e-07
7.55795e-07
7.55463e-07
7.55164e-07
7.54893e-07
7.54649e-07
7.54428e-07
7.54227e-07
7.54041e-07
7.53869e-07
7.53712e-07
7.53567e-07
7.53437e-07
7.53317e-07
7.53207e-07
7.53104e-07
7.53009e-07
7.5292e-07
7.52837e-07
7.52758e-07
7.52685e-07
7.52618e-07
7.52555e-07
7.52498e-07
7.52446e-07
7.524e-07
7.52357e-07
7.52317e-07
7.5228e-07
7.52244e-07
7.52209e-07
7.52173e-07
7.5214e-07
7.52109e-07
7.52083e-07
7.5206e-07
7.40784e-07
7.40314e-07
7.39897e-07
7.39522e-07
7.39186e-07
7.38883e-07
7.3861e-07
7.38363e-07
7.38138e-07
7.37932e-07
7.37742e-07
7.37566e-07
7.37406e-07
7.3726e-07
7.37127e-07
7.37006e-07
7.36895e-07
7.36792e-07
7.36697e-07
7.36609e-07
7.36525e-07
7.36448e-07
7.36376e-07
7.36309e-07
7.36246e-07
7.36186e-07
7.36131e-07
7.36081e-07
7.36037e-07
7.35997e-07
7.35961e-07
7.35928e-07
7.35894e-07
7.3586e-07
7.35826e-07
7.35794e-07
7.35766e-07
7.35741e-07
7.37034e-07
7.36614e-07
7.36237e-07
7.35898e-07
7.35594e-07
7.3532e-07
7.35073e-07
7.34846e-07
7.34637e-07
7.34445e-07
7.34269e-07
7.34108e-07
7.33962e-07
7.33829e-07
7.33707e-07
7.33596e-07
7.33494e-07
7.33401e-07
7.33314e-07
7.33232e-07
7.33155e-07
7.33085e-07
7.33019e-07
7.32956e-07
7.32894e-07
7.32837e-07
7.32786e-07
7.32741e-07
7.32702e-07
7.32669e-07
7.32637e-07
7.32605e-07
7.32572e-07
7.32538e-07
7.32505e-07
7.32475e-07
7.32448e-07
7.3704e-07
7.36618e-07
7.36237e-07
7.35896e-07
7.3559e-07
7.35315e-07
7.35066e-07
7.34838e-07
7.34627e-07
7.34434e-07
7.34258e-07
7.34098e-07
7.33953e-07
7.33821e-07
7.337e-07
7.33588e-07
7.33487e-07
7.33394e-07
7.33308e-07
7.33227e-07
7.33153e-07
7.33083e-07
7.33017e-07
7.32954e-07
7.32892e-07
7.32835e-07
7.32784e-07
7.3274e-07
7.32703e-07
7.32671e-07
7.32641e-07
7.3261e-07
7.32577e-07
7.32543e-07
7.3251e-07
7.32478e-07
7.32449e-07
7.4033e-07
7.39905e-07
7.39523e-07
7.39178e-07
7.3887e-07
7.38594e-07
7.38344e-07
7.38114e-07
7.37903e-07
7.3771e-07
7.37534e-07
7.37376e-07
7.37233e-07
7.37103e-07
7.36983e-07
7.36872e-07
7.36771e-07
7.36678e-07
7.36592e-07
7.36513e-07
7.36439e-07
7.36369e-07
7.36303e-07
7.3624e-07
7.3618e-07
7.36124e-07
7.36075e-07
7.36033e-07
7.35998e-07
7.35968e-07
7.35939e-07
7.35909e-07
7.35876e-07
7.35842e-07
7.35807e-07
7.35774e-07
7.35743e-07
7.35714e-07
7.56596e-07
7.56174e-07
7.55793e-07
7.5545e-07
7.55143e-07
7.54869e-07
7.5462e-07
7.54392e-07
7.54183e-07
7.53992e-07
7.53819e-07
7.53664e-07
7.53524e-07
7.53398e-07
7.53281e-07
7.53172e-07
7.53071e-07
7.52979e-07
7.52894e-07
7.52816e-07
7.52743e-07
7.52674e-07
7.52608e-07
7.52546e-07
7.52488e-07
7.52436e-07
7.52391e-07
7.52352e-07
7.5232e-07
7.52291e-07
7.52264e-07
7.52235e-07
7.52202e-07
7.52168e-07
7.52132e-07
7.52098e-07
7.52064e-07
7.52033e-07
8.23007e-07
8.22592e-07
8.22217e-07
8.2188e-07
8.21578e-07
8.21308e-07
8.21064e-07
8.2084e-07
8.20635e-07
8.20448e-07
8.20279e-07
8.20128e-07
8.19992e-07
8.19869e-07
8.19756e-07
8.1965e-07
8.19551e-07
8.19459e-07
8.19376e-07
8.19299e-07
8.19227e-07
8.19158e-07
8.19092e-07
8.1903e-07
8.18975e-07
8.18926e-07
8.18885e-07
8.18851e-07
8.18823e-07
8.18799e-07
8.18774e-07
8.18747e-07
8.18715e-07
8.18678e-07
8.18641e-07
8.18603e-07
8.18567e-07
8.18534e-07
1.07414e-06
1.07364e-06
1.0732e-06
1.0728e-06
1.07244e-06
1.07211e-06
1.07182e-06
1.07155e-06
1.0713e-06
1.07107e-06
1.07087e-06
1.07068e-06
1.07051e-06
1.07036e-06
1.07023e-06
1.0701e-06
1.06998e-06
1.06987e-06
1.06976e-06
1.06967e-06
1.06958e-06
1.06949e-06
1.0694e-06
1.06932e-06
1.06925e-06
1.06919e-06
1.06914e-06
1.06911e-06
1.06908e-06
1.06907e-06
1.06905e-06
1.06902e-06
1.06898e-06
1.06893e-06
1.06888e-06
1.06883e-06
1.06878e-06
1.06874e-06
2.24673e-06
2.24459e-06
2.24265e-06
2.24088e-06
2.23925e-06
2.23775e-06
2.23637e-06
2.23512e-06
2.23397e-06
2.23291e-06
2.23194e-06
2.23105e-06
2.23022e-06
2.22946e-06
2.22876e-06
2.22813e-06
2.22754e-06
2.22701e-06
2.22651e-06
2.22606e-06
2.22564e-06
2.22527e-06
2.22493e-06
2.22462e-06
2.22434e-06
2.22408e-06
2.22384e-06
2.22362e-06
2.22342e-06
2.22323e-06
2.22305e-06
2.2229e-06
2.22276e-06
2.22265e-06
2.22256e-06
2.22249e-06
2.22244e-06
2.22241e-06
2.28306e-06
2.28066e-06
2.27847e-06
2.27648e-06
2.27465e-06
2.27297e-06
2.27144e-06
2.27003e-06
2.26873e-06
2.26753e-06
2.26644e-06
2.26543e-06
2.2645e-06
2.26366e-06
2.26289e-06
2.26218e-06
2.26152e-06
2.26093e-06
2.26038e-06
2.25987e-06
2.25941e-06
2.25899e-06
2.25861e-06
2.25827e-06
2.25795e-06
2.25767e-06
2.2574e-06
2.25717e-06
2.25695e-06
2.25675e-06
2.25658e-06
2.25642e-06
2.25629e-06
2.25617e-06
2.25608e-06
2.256e-06
2.25593e-06
2.25587e-06
1.01408e-06
1.01366e-06
1.01328e-06
1.01294e-06
1.01263e-06
1.01235e-06
1.0121e-06
1.01187e-06
1.01166e-06
1.01147e-06
1.0113e-06
1.01114e-06
1.01099e-06
1.01085e-06
1.01073e-06
1.01062e-06
1.01052e-06
1.01043e-06
1.01034e-06
1.01025e-06
1.01017e-06
1.01009e-06
1.01001e-06
1.00994e-06
1.00988e-06
1.00984e-06
1.00979e-06
1.00976e-06
1.00972e-06
1.00969e-06
1.00966e-06
1.00962e-06
1.00958e-06
1.00955e-06
1.00951e-06
1.00949e-06
1.00947e-06
1.00945e-06
7.28745e-07
7.28451e-07
7.28191e-07
7.27959e-07
7.27751e-07
7.27564e-07
7.27396e-07
7.27245e-07
7.27109e-07
7.26986e-07
7.26873e-07
7.2677e-07
7.26674e-07
7.26587e-07
7.26507e-07
7.26434e-07
7.26367e-07
7.26305e-07
7.26246e-07
7.26192e-07
7.2614e-07
7.2609e-07
7.26042e-07
7.25999e-07
7.25961e-07
7.25927e-07
7.25897e-07
7.2587e-07
7.25846e-07
7.25822e-07
7.25798e-07
7.25775e-07
7.25751e-07
7.25728e-07
7.25706e-07
7.25688e-07
7.25672e-07
7.25659e-07
6.49969e-07
6.49675e-07
6.49414e-07
6.49182e-07
6.48975e-07
6.48789e-07
6.48621e-07
6.48471e-07
6.48335e-07
6.48211e-07
6.48098e-07
6.47994e-07
6.47899e-07
6.47812e-07
6.47732e-07
6.4766e-07
6.47594e-07
6.47532e-07
6.47475e-07
6.47421e-07
6.47371e-07
6.47324e-07
6.4728e-07
6.47239e-07
6.47201e-07
6.47167e-07
6.47136e-07
6.47108e-07
6.47082e-07
6.47058e-07
6.47035e-07
6.47013e-07
6.46992e-07
6.4697e-07
6.4695e-07
6.46931e-07
6.46915e-07
6.46901e-07
6.2942e-07
6.2912e-07
6.28855e-07
6.28619e-07
6.28407e-07
6.28218e-07
6.28048e-07
6.27894e-07
6.27755e-07
6.27628e-07
6.27512e-07
6.27405e-07
6.27307e-07
6.27218e-07
6.27138e-07
6.27064e-07
6.26997e-07
6.26935e-07
6.26877e-07
6.26824e-07
6.26774e-07
6.26727e-07
6.26683e-07
6.26643e-07
6.26605e-07
6.26569e-07
6.26536e-07
6.26506e-07
6.2648e-07
6.26455e-07
6.26433e-07
6.26412e-07
6.26392e-07
6.26371e-07
6.2635e-07
6.26331e-07
6.26314e-07
6.26298e-07
6.24677e-07
6.24409e-07
6.24171e-07
6.23957e-07
6.23766e-07
6.23595e-07
6.2344e-07
6.23299e-07
6.23171e-07
6.23052e-07
6.22944e-07
6.22846e-07
6.22757e-07
6.22676e-07
6.22602e-07
6.22534e-07
6.22472e-07
6.22415e-07
6.22362e-07
6.22313e-07
6.22267e-07
6.22224e-07
6.22184e-07
6.22146e-07
6.22109e-07
6.22075e-07
6.22044e-07
6.22017e-07
6.21994e-07
6.21973e-07
6.21953e-07
6.21933e-07
6.21913e-07
6.21892e-07
6.21872e-07
6.21853e-07
6.21836e-07
6.2468e-07
6.24411e-07
6.24171e-07
6.23956e-07
6.23764e-07
6.23592e-07
6.23436e-07
6.23295e-07
6.23165e-07
6.23046e-07
6.22938e-07
6.22841e-07
6.22752e-07
6.22671e-07
6.22598e-07
6.2253e-07
6.22468e-07
6.22412e-07
6.22359e-07
6.2231e-07
6.22265e-07
6.22223e-07
6.22183e-07
6.22145e-07
6.22108e-07
6.22074e-07
6.22043e-07
6.22016e-07
6.21994e-07
6.21974e-07
6.21955e-07
6.21936e-07
6.21916e-07
6.21895e-07
6.21875e-07
6.21855e-07
6.21837e-07
6.29129e-07
6.2886e-07
6.28619e-07
6.28403e-07
6.28211e-07
6.28039e-07
6.27883e-07
6.27741e-07
6.27612e-07
6.27494e-07
6.27387e-07
6.2729e-07
6.27203e-07
6.27123e-07
6.27051e-07
6.26984e-07
6.26922e-07
6.26866e-07
6.26814e-07
6.26766e-07
6.26721e-07
6.26679e-07
6.26639e-07
6.26601e-07
6.26565e-07
6.26532e-07
6.26503e-07
6.26478e-07
6.26456e-07
6.26437e-07
6.26419e-07
6.26401e-07
6.26381e-07
6.2636e-07
6.26339e-07
6.26319e-07
6.26299e-07
6.26281e-07
6.49685e-07
6.4942e-07
6.49181e-07
6.48968e-07
6.48777e-07
6.48607e-07
6.48453e-07
6.48313e-07
6.48185e-07
6.48069e-07
6.47964e-07
6.4787e-07
6.47785e-07
6.47708e-07
6.47638e-07
6.47572e-07
6.47511e-07
6.47456e-07
6.47405e-07
6.47358e-07
6.47314e-07
6.47272e-07
6.47233e-07
6.47195e-07
6.47161e-07
6.4713e-07
6.47103e-07
6.4708e-07
6.47061e-07
6.47044e-07
6.47027e-07
6.4701e-07
6.4699e-07
6.46968e-07
6.46946e-07
6.46925e-07
6.46904e-07
6.46884e-07
7.28464e-07
7.28196e-07
7.27955e-07
7.2774e-07
7.27548e-07
7.27376e-07
7.27221e-07
7.2708e-07
7.26951e-07
7.26834e-07
7.26729e-07
7.26634e-07
7.2655e-07
7.26473e-07
7.26402e-07
7.26337e-07
7.26275e-07
7.26219e-07
7.26168e-07
7.26121e-07
7.26076e-07
7.26032e-07
7.2599e-07
7.25952e-07
7.25918e-07
7.25888e-07
7.25863e-07
7.25844e-07
7.25829e-07
7.25816e-07
7.25803e-07
7.25786e-07
7.25766e-07
7.25741e-07
7.25715e-07
7.25689e-07
7.25665e-07
7.25643e-07
1.01367e-06
1.01328e-06
1.01293e-06
1.01261e-06
1.01233e-06
1.01207e-06
1.01184e-06
1.01163e-06
1.01143e-06
1.01125e-06
1.01109e-06
1.01095e-06
1.01082e-06
1.0107e-06
1.01058e-06
1.01048e-06
1.01039e-06
1.0103e-06
1.01022e-06
1.01015e-06
1.01008e-06
1.01e-06
1.00994e-06
1.00987e-06
1.00982e-06
1.00978e-06
1.00974e-06
1.00972e-06
1.00971e-06
1.0097e-06
1.00969e-06
1.00967e-06
1.00964e-06
1.0096e-06
1.00955e-06
1.0095e-06
1.00946e-06
1.00943e-06
2.28056e-06
2.27838e-06
2.2764e-06
2.2746e-06
2.27293e-06
2.2714e-06
2.27e-06
2.26872e-06
2.26755e-06
2.26648e-06
2.26548e-06
2.26457e-06
2.26373e-06
2.26295e-06
2.26224e-06
2.26159e-06
2.26099e-06
2.26044e-06
2.25994e-06
2.25948e-06
2.25906e-06
2.25867e-06
2.25833e-06
2.25803e-06
2.25774e-06
2.25748e-06
2.25723e-06
2.257e-06
2.25679e-06
2.2566e-06
2.25642e-06
2.25626e-06
2.25612e-06
2.25601e-06
2.25592e-06
2.25585e-06
2.2558e-06
2.25577e-06
2.29691e-06
2.2945e-06
2.2923e-06
2.29029e-06
2.28845e-06
2.28677e-06
2.28522e-06
2.2838e-06
2.28249e-06
2.28129e-06
2.28019e-06
2.27918e-06
2.27825e-06
2.2774e-06
2.27662e-06
2.27591e-06
2.27526e-06
2.27466e-06
2.27411e-06
2.2736e-06
2.27314e-06
2.27271e-06
2.27233e-06
2.27199e-06
2.27167e-06
2.27138e-06
2.27112e-06
2.27088e-06
2.27066e-06
2.27047e-06
2.27029e-06
2.27014e-06
2.27e-06
2.26989e-06
2.26979e-06
2.26971e-06
2.26964e-06
2.26958e-06
9.86585e-07
9.86225e-07
9.85902e-07
9.85612e-07
9.85351e-07
9.85114e-07
9.849e-07
9.84706e-07
9.84529e-07
9.84368e-07
9.84221e-07
9.84085e-07
9.83959e-07
9.83842e-07
9.83736e-07
9.83643e-07
9.83558e-07
9.83479e-07
9.83404e-07
9.83335e-07
9.83266e-07
9.83196e-07
9.83126e-07
9.83063e-07
9.83011e-07
9.82969e-07
9.82932e-07
9.82898e-07
9.82868e-07
9.82841e-07
9.82813e-07
9.82784e-07
9.82751e-07
9.82719e-07
9.82694e-07
9.82674e-07
9.82658e-07
9.82646e-07
6.80894e-07
6.80692e-07
6.80515e-07
6.80357e-07
6.80217e-07
6.80092e-07
6.79981e-07
6.7988e-07
6.7979e-07
6.79709e-07
6.79635e-07
6.79567e-07
6.79505e-07
6.79448e-07
6.79395e-07
6.79348e-07
6.79305e-07
6.79264e-07
6.79226e-07
6.79191e-07
6.79157e-07
6.79123e-07
6.79091e-07
6.79062e-07
6.79036e-07
6.79014e-07
6.78995e-07
6.78977e-07
6.7896e-07
6.78945e-07
6.7893e-07
6.78914e-07
6.78898e-07
6.78883e-07
6.78869e-07
6.78857e-07
6.78847e-07
6.78839e-07
5.93569e-07
5.93376e-07
5.93206e-07
5.93055e-07
5.92921e-07
5.92802e-07
5.92695e-07
5.926e-07
5.92514e-07
5.92437e-07
5.92366e-07
5.92302e-07
5.92243e-07
5.92189e-07
5.9214e-07
5.92095e-07
5.92055e-07
5.92017e-07
5.91982e-07
5.91949e-07
5.91918e-07
5.91889e-07
5.91862e-07
5.91837e-07
5.91814e-07
5.91793e-07
5.91774e-07
5.91757e-07
5.91741e-07
5.91726e-07
5.91712e-07
5.91699e-07
5.91685e-07
5.91672e-07
5.9166e-07
5.91648e-07
5.91638e-07
5.9163e-07
5.69749e-07
5.69552e-07
5.69379e-07
5.69226e-07
5.69089e-07
5.68967e-07
5.68859e-07
5.68761e-07
5.68673e-07
5.68594e-07
5.68521e-07
5.68455e-07
5.68394e-07
5.68339e-07
5.6829e-07
5.68244e-07
5.68203e-07
5.68165e-07
5.68129e-07
5.68097e-07
5.68066e-07
5.68038e-07
5.68011e-07
5.67987e-07
5.67964e-07
5.67942e-07
5.67922e-07
5.67904e-07
5.67888e-07
5.67873e-07