/*--------------------------------*- C++ -*----------------------------------*\
| =========                 |                                                 |
| \\      /  F ield         | OpenFOAM: The Open Source CFD Toolbox           |
|  \\    /   O peration     | Version:  2.3.1                                 |
|   \\  /    A nd           | Web:      www.OpenFOAM.org                      |
|    \\/     M anipulation  |                                                 |
\*---------------------------------------------------------------------------*/
FoamFile
{
    version     2.0;
    format      ascii;
    class       volScalarField;
    location    "5";
    object      k;
}
// * * * * * * * * * * * * * * * * * * * * * * * * * * * * * * * * * * * * * //

dimensions      [0 2 -2 0 0 0 0];

internalField   nonuniform List<scalar> 
38262
(
9.58221e-06
9.57012e-06
9.55909e-06
9.54901e-06
9.5398e-06
9.53136e-06
9.52363e-06
9.51652e-06
9.50998e-06
9.50396e-06
9.49841e-06
9.49331e-06
9.48861e-06
9.48429e-06
9.48031e-06
9.47666e-06
9.47329e-06
9.47019e-06
9.46735e-06
9.46473e-06
9.46233e-06
9.46015e-06
9.45817e-06
9.45637e-06
9.45475e-06
9.45328e-06
9.45194e-06
9.45072e-06
9.44961e-06
9.4486e-06
9.44768e-06
9.44687e-06
9.44616e-06
9.44555e-06
9.44504e-06
9.44463e-06
9.44431e-06
9.44405e-06
1.12754e-05
1.12631e-05
1.12519e-05
1.12417e-05
1.12324e-05
1.12238e-05
1.12159e-05
1.12087e-05
1.1202e-05
1.11959e-05
1.11902e-05
1.1185e-05
1.11803e-05
1.11759e-05
1.11719e-05
1.11682e-05
1.11648e-05
1.11617e-05
1.11588e-05
1.11562e-05
1.11538e-05
1.11517e-05
1.11497e-05
1.1148e-05
1.11464e-05
1.1145e-05
1.11436e-05
1.11424e-05
1.11413e-05
1.11403e-05
1.11395e-05
1.11387e-05
1.11381e-05
1.11376e-05
1.11372e-05
1.11369e-05
1.11367e-05
1.11365e-05
1.17371e-05
1.17258e-05
1.17154e-05
1.17059e-05
1.16972e-05
1.16892e-05
1.16819e-05
1.16752e-05
1.1669e-05
1.16633e-05
1.16581e-05
1.16533e-05
1.16489e-05
1.16448e-05
1.16411e-05
1.16377e-05
1.16346e-05
1.16317e-05
1.1629e-05
1.16266e-05
1.16244e-05
1.16225e-05
1.16207e-05
1.16191e-05
1.16177e-05
1.16164e-05
1.16152e-05
1.16141e-05
1.16131e-05
1.16122e-05
1.16114e-05
1.16108e-05
1.16102e-05
1.16098e-05
1.16094e-05
1.16091e-05
1.16089e-05
1.16088e-05
1.18365e-05
1.18254e-05
1.18152e-05
1.18058e-05
1.17973e-05
1.17894e-05
1.17823e-05
1.17756e-05
1.17696e-05
1.1764e-05
1.17588e-05
1.17541e-05
1.17498e-05
1.17459e-05
1.17423e-05
1.17389e-05
1.17358e-05
1.1733e-05
1.17304e-05
1.17281e-05
1.17259e-05
1.1724e-05
1.17222e-05
1.17206e-05
1.17192e-05
1.17179e-05
1.17168e-05
1.17157e-05
1.17148e-05
1.1714e-05
1.17132e-05
1.17125e-05
1.1712e-05
1.17115e-05
1.17112e-05
1.17109e-05
1.17107e-05
1.17106e-05
1.1854e-05
1.18429e-05
1.18327e-05
1.18233e-05
1.18148e-05
1.1807e-05
1.17998e-05
1.17932e-05
1.17871e-05
1.17815e-05
1.17764e-05
1.17718e-05
1.17675e-05
1.17636e-05
1.176e-05
1.17566e-05
1.17536e-05
1.17508e-05
1.17482e-05
1.17458e-05
1.17436e-05
1.17417e-05
1.17399e-05
1.17383e-05
1.17368e-05
1.17356e-05
1.17345e-05
1.17335e-05
1.17326e-05
1.17317e-05
1.17309e-05
1.17302e-05
1.17296e-05
1.17291e-05
1.17288e-05
1.17285e-05
1.17284e-05
1.17282e-05
1.18454e-05
1.18352e-05
1.18259e-05
1.18174e-05
1.18096e-05
1.18024e-05
1.17958e-05
1.17897e-05
1.17841e-05
1.17791e-05
1.17744e-05
1.17702e-05
1.17663e-05
1.17627e-05
1.17593e-05
1.17563e-05
1.17535e-05
1.17508e-05
1.17484e-05
1.17463e-05
1.17443e-05
1.17425e-05
1.17409e-05
1.17394e-05
1.17382e-05
1.17371e-05
1.17361e-05
1.17352e-05
1.17344e-05
1.17336e-05
1.17328e-05
1.17322e-05
1.17317e-05
1.17313e-05
1.1731e-05
1.17308e-05
1.17308e-05
1.18453e-05
1.18351e-05
1.18258e-05
1.18173e-05
1.18095e-05
1.18024e-05
1.17958e-05
1.17897e-05
1.17842e-05
1.17791e-05
1.17745e-05
1.17703e-05
1.17664e-05
1.17628e-05
1.17594e-05
1.17564e-05
1.17536e-05
1.17509e-05
1.17485e-05
1.17464e-05
1.17444e-05
1.17426e-05
1.17409e-05
1.17395e-05
1.17382e-05
1.17371e-05
1.17362e-05
1.17353e-05
1.17344e-05
1.17336e-05
1.17328e-05
1.17321e-05
1.17316e-05
1.17312e-05
1.17309e-05
1.17308e-05
1.17307e-05
1.18425e-05
1.18323e-05
1.18231e-05
1.18146e-05
1.18069e-05
1.17997e-05
1.17932e-05
1.17871e-05
1.17817e-05
1.17766e-05
1.1772e-05
1.17678e-05
1.17639e-05
1.17603e-05
1.17569e-05
1.17539e-05
1.17511e-05
1.17485e-05
1.17461e-05
1.17439e-05
1.17419e-05
1.17401e-05
1.17384e-05
1.1737e-05
1.17357e-05
1.17346e-05
1.17336e-05
1.17327e-05
1.17318e-05
1.1731e-05
1.17302e-05
1.17295e-05
1.1729e-05
1.17286e-05
1.17283e-05
1.17281e-05
1.1728e-05
1.17281e-05
1.18249e-05
1.18147e-05
1.18054e-05
1.1797e-05
1.17893e-05
1.17822e-05
1.17756e-05
1.17696e-05
1.17641e-05
1.17591e-05
1.17545e-05
1.17503e-05
1.17463e-05
1.17427e-05
1.17393e-05
1.17363e-05
1.17335e-05
1.17309e-05
1.17285e-05
1.17263e-05
1.17243e-05
1.17225e-05
1.17209e-05
1.17195e-05
1.17182e-05
1.1717e-05
1.1716e-05
1.17151e-05
1.17142e-05
1.17133e-05
1.17125e-05
1.17118e-05
1.17112e-05
1.17108e-05
1.17105e-05
1.17103e-05
1.17103e-05
1.17104e-05
1.17252e-05
1.17149e-05
1.17054e-05
1.16969e-05
1.1689e-05
1.16818e-05
1.16751e-05
1.1669e-05
1.16634e-05
1.16584e-05
1.16537e-05
1.16494e-05
1.16453e-05
1.16416e-05
1.16382e-05
1.16351e-05
1.16322e-05
1.16296e-05
1.16272e-05
1.1625e-05
1.16229e-05
1.16211e-05
1.16195e-05
1.1618e-05
1.16167e-05
1.16155e-05
1.16144e-05
1.16134e-05
1.16124e-05
1.16115e-05
1.16107e-05
1.161e-05
1.16094e-05
1.16089e-05
1.16086e-05
1.16084e-05
1.16084e-05
1.16085e-05
1.12625e-05
1.12513e-05
1.12412e-05
1.12319e-05
1.12234e-05
1.12156e-05
1.12084e-05
1.12018e-05
1.11958e-05
1.11903e-05
1.11852e-05
1.11805e-05
1.11762e-05
1.11722e-05
1.11685e-05
1.11652e-05
1.11621e-05
1.11593e-05
1.11567e-05
1.11543e-05
1.11521e-05
1.11501e-05
1.11483e-05
1.11468e-05
1.11453e-05
1.1144e-05
1.11428e-05
1.11417e-05
1.11407e-05
1.11397e-05
1.11388e-05
1.11379e-05
1.11373e-05
1.11368e-05
1.11364e-05
1.11361e-05
1.1136e-05
1.11361e-05
9.56969e-06
9.55861e-06
9.54852e-06
9.53933e-06
9.53092e-06
9.52321e-06
9.51613e-06
9.50964e-06
9.50368e-06
9.49822e-06
9.49322e-06
9.48862e-06
9.48438e-06
9.48047e-06
9.47686e-06
9.47353e-06
9.47047e-06
9.46766e-06
9.46507e-06
9.46269e-06
9.46051e-06
9.45851e-06
9.45669e-06
9.45506e-06
9.45358e-06
9.45224e-06
9.45103e-06
9.4499e-06
9.44886e-06
9.44789e-06
9.44699e-06
9.44616e-06
9.44543e-06
9.4448e-06
9.44429e-06
9.44391e-06
9.44368e-06
9.44356e-06
1.43562e-05
1.43465e-05
1.43376e-05
1.43295e-05
1.43221e-05
1.43152e-05
1.43089e-05
1.43032e-05
1.42978e-05
1.42929e-05
1.42884e-05
1.42842e-05
1.42804e-05
1.42769e-05
1.42736e-05
1.42707e-05
1.4268e-05
1.42655e-05
1.42632e-05
1.42611e-05
1.42591e-05
1.42574e-05
1.42559e-05
1.42544e-05
1.42532e-05
1.4252e-05
1.42509e-05
1.42499e-05
1.42491e-05
1.42483e-05
1.42476e-05
1.42469e-05
1.42464e-05
1.4246e-05
1.42456e-05
1.42453e-05
1.4245e-05
1.42447e-05
1.86831e-05
1.86857e-05
1.8688e-05
1.869e-05
1.86919e-05
1.86935e-05
1.8695e-05
1.86962e-05
1.86974e-05
1.86984e-05
1.86993e-05
1.87002e-05
1.8701e-05
1.87018e-05
1.87026e-05
1.87032e-05
1.87039e-05
1.87045e-05
1.87051e-05
1.87057e-05
1.87063e-05
1.8707e-05
1.87076e-05
1.87081e-05
1.87086e-05
1.8709e-05
1.87092e-05
1.87095e-05
1.87097e-05
1.871e-05
1.87103e-05
1.87107e-05
1.87111e-05
1.87115e-05
1.87119e-05
1.87122e-05
1.87125e-05
1.87126e-05
1.99604e-05
1.99641e-05
1.99673e-05
1.99701e-05
1.99727e-05
1.99751e-05
1.99772e-05
1.99791e-05
1.99807e-05
1.99823e-05
1.99837e-05
1.99851e-05
1.99864e-05
1.99876e-05
1.99887e-05
1.99896e-05
1.99906e-05
1.99915e-05
1.99924e-05
1.99932e-05
1.9994e-05
1.99949e-05
1.99956e-05
1.99964e-05
1.9997e-05
1.99975e-05
1.9998e-05
1.99984e-05
1.99988e-05
1.99992e-05
1.99996e-05
2e-05
2.00005e-05
2.0001e-05
2.00014e-05
2.00018e-05
2.00021e-05
2.00024e-05
2.0277e-05
2.02807e-05
2.0284e-05
2.02869e-05
2.02896e-05
2.0292e-05
2.02942e-05
2.02961e-05
2.02979e-05
2.02995e-05
2.03011e-05
2.03026e-05
2.0304e-05
2.03053e-05
2.03064e-05
2.03074e-05
2.03084e-05
2.03093e-05
2.03102e-05
2.03111e-05
2.03119e-05
2.03127e-05
2.03135e-05
2.03142e-05
2.03149e-05
2.03155e-05
2.03161e-05
2.03165e-05
2.0317e-05
2.03174e-05
2.03178e-05
2.03182e-05
2.03186e-05
2.03191e-05
2.03196e-05
2.032e-05
2.03203e-05
2.03206e-05
2.03435e-05
2.03472e-05
2.03504e-05
2.03534e-05
2.0356e-05
2.03584e-05
2.03605e-05
2.03624e-05
2.03642e-05
2.03658e-05
2.03674e-05
2.0369e-05
2.03704e-05
2.03717e-05
2.03728e-05
2.03738e-05
2.03748e-05
2.03757e-05
2.03765e-05
2.03773e-05
2.03781e-05
2.03789e-05
2.03796e-05
2.03802e-05
2.03809e-05
2.03816e-05
2.03822e-05
2.03828e-05
2.03833e-05
2.03837e-05
2.0384e-05
2.03843e-05
2.03847e-05
2.03851e-05
2.03856e-05
2.0386e-05
2.03864e-05
2.03867e-05
2.03588e-05
2.03621e-05
2.0365e-05
2.03677e-05
2.037e-05
2.03721e-05
2.0374e-05
2.03758e-05
2.03775e-05
2.03792e-05
2.03807e-05
2.03821e-05
2.03834e-05
2.03845e-05
2.03855e-05
2.03865e-05
2.03873e-05
2.03881e-05
2.03888e-05
2.03896e-05
2.03903e-05
2.03909e-05
2.03915e-05
2.03922e-05
2.03929e-05
2.03936e-05
2.03943e-05
2.03947e-05
2.03951e-05
2.03953e-05
2.03956e-05
2.03959e-05
2.03963e-05
2.03968e-05
2.03973e-05
2.03977e-05
2.03981e-05
2.03586e-05
2.03619e-05
2.0365e-05
2.03677e-05
2.03701e-05
2.03723e-05
2.03742e-05
2.0376e-05
2.03778e-05
2.03795e-05
2.0381e-05
2.03824e-05
2.03836e-05
2.03847e-05
2.03857e-05
2.03867e-05
2.03875e-05
2.03882e-05
2.0389e-05
2.03897e-05
2.03904e-05
2.0391e-05
2.03916e-05
2.03923e-05
2.0393e-05
2.03937e-05
2.03943e-05
2.03948e-05
2.03951e-05
2.03953e-05
2.03955e-05
2.03958e-05
2.03962e-05
2.03966e-05
2.03971e-05
2.03976e-05
2.03981e-05
2.03467e-05
2.03501e-05
2.03533e-05
2.03562e-05
2.03587e-05
2.03609e-05
2.03629e-05
2.03648e-05
2.03666e-05
2.03683e-05
2.03699e-05
2.03712e-05
2.03724e-05
2.03735e-05
2.03745e-05
2.03754e-05
2.03763e-05
2.03771e-05
2.03778e-05
2.03785e-05
2.03791e-05
2.03797e-05
2.03804e-05
2.03811e-05
2.03818e-05
2.03824e-05
2.0383e-05
2.03834e-05
2.03836e-05
2.03838e-05
2.0384e-05
2.03842e-05
2.03846e-05
2.03851e-05
2.03857e-05
2.03862e-05
2.03867e-05
2.03871e-05
2.02801e-05
2.02837e-05
2.02869e-05
2.02899e-05
2.02925e-05
2.02948e-05
2.02969e-05
2.02989e-05
2.03007e-05
2.03024e-05
2.0304e-05
2.03053e-05
2.03065e-05
2.03075e-05
2.03084e-05
2.03094e-05
2.03103e-05
2.03111e-05
2.03118e-05
2.03125e-05
2.03131e-05
2.03138e-05
2.03145e-05
2.03151e-05
2.03158e-05
2.03163e-05
2.03168e-05
2.03171e-05
2.03173e-05
2.03175e-05
2.03176e-05
2.03179e-05
2.03183e-05
2.03188e-05
2.03194e-05
2.03199e-05
2.03205e-05
2.0321e-05
1.99635e-05
1.9967e-05
1.99702e-05
1.99731e-05
1.99757e-05
1.99779e-05
1.998e-05
1.99818e-05
1.99836e-05
1.99853e-05
1.99867e-05
1.9988e-05
1.9989e-05
1.999e-05
1.99909e-05
1.99918e-05
1.99926e-05
1.99934e-05
1.99941e-05
1.99948e-05
1.99954e-05
1.9996e-05
1.99967e-05
1.99973e-05
1.99978e-05
1.99983e-05
1.99986e-05
1.99989e-05
1.9999e-05
1.99992e-05
1.99993e-05
1.99996e-05
2e-05
2.00005e-05
2.0001e-05
2.00016e-05
2.00022e-05
2.00027e-05
1.86852e-05
1.86877e-05
1.86901e-05
1.86922e-05
1.8694e-05
1.86956e-05
1.86969e-05
1.86983e-05
1.86995e-05
1.87006e-05
1.87016e-05
1.87025e-05
1.87031e-05
1.87037e-05
1.87043e-05
1.87049e-05
1.87055e-05
1.8706e-05
1.87065e-05
1.8707e-05
1.87074e-05
1.87078e-05
1.87083e-05
1.87088e-05
1.87092e-05
1.87095e-05
1.87097e-05
1.87098e-05
1.87098e-05
1.87099e-05
1.87099e-05
1.87101e-05
1.87104e-05
1.87108e-05
1.87113e-05
1.87119e-05
1.87124e-05
1.87129e-05
1.4346e-05
1.43372e-05
1.43292e-05
1.43218e-05
1.4315e-05
1.43088e-05
1.43031e-05
1.42979e-05
1.42931e-05
1.42887e-05
1.42846e-05
1.42809e-05
1.42774e-05
1.42742e-05
1.42713e-05
1.42686e-05
1.42661e-05
1.42638e-05
1.42616e-05
1.42597e-05
1.42579e-05
1.42563e-05
1.42548e-05
1.42535e-05
1.42523e-05
1.42511e-05
1.42501e-05
1.42491e-05
1.42482e-05
1.42474e-05
1.42467e-05
1.42461e-05
1.42455e-05
1.42451e-05
1.42448e-05
1.42446e-05
1.42444e-05
1.42443e-05
1.54582e-05
1.54476e-05
1.54379e-05
1.5429e-05
1.54209e-05
1.54134e-05
1.54066e-05
1.54003e-05
1.53945e-05
1.53892e-05
1.53843e-05
1.53798e-05
1.53757e-05
1.53719e-05
1.53684e-05
1.53652e-05
1.53622e-05
1.53595e-05
1.5357e-05
1.53547e-05
1.53527e-05
1.53508e-05
1.5349e-05
1.53475e-05
1.53461e-05
1.53448e-05
1.53436e-05
1.53425e-05
1.53415e-05
1.53407e-05
1.53399e-05
1.53392e-05
1.53386e-05
1.53381e-05
1.53376e-05
1.53373e-05
1.5337e-05
1.53367e-05
2.16157e-05
2.16168e-05
2.16177e-05
2.16186e-05
2.16193e-05
2.162e-05
2.16206e-05
2.16212e-05
2.16217e-05
2.16221e-05
2.16225e-05
2.16229e-05
2.16233e-05
2.16236e-05
2.1624e-05
2.16243e-05
2.16246e-05
2.16249e-05
2.16252e-05
2.16254e-05
2.16258e-05
2.16261e-05
2.16264e-05
2.16267e-05
2.1627e-05
2.16272e-05
2.16273e-05
2.16274e-05
2.16275e-05
2.16276e-05
2.16278e-05
2.1628e-05
2.16282e-05
2.16285e-05
2.16287e-05
2.16289e-05
2.1629e-05
2.16292e-05
2.32349e-05
2.3237e-05
2.32389e-05
2.32406e-05
2.32422e-05
2.32436e-05
2.32449e-05
2.32461e-05
2.32472e-05
2.32482e-05
2.32491e-05
2.325e-05
2.32509e-05
2.32516e-05
2.32523e-05
2.3253e-05
2.32536e-05
2.32542e-05
2.32548e-05
2.32553e-05
2.32558e-05
2.32563e-05
2.32568e-05
2.32573e-05
2.32577e-05
2.3258e-05
2.32583e-05
2.32586e-05
2.32589e-05
2.32591e-05
2.32594e-05
2.32596e-05
2.32599e-05
2.32602e-05
2.32605e-05
2.32607e-05
2.32609e-05
2.32611e-05
2.36727e-05
2.3675e-05
2.3677e-05
2.36789e-05
2.36806e-05
2.36821e-05
2.36836e-05
2.36849e-05
2.36861e-05
2.36872e-05
2.36882e-05
2.36892e-05
2.36902e-05
2.3691e-05
2.36918e-05
2.36925e-05
2.36932e-05
2.36938e-05
2.36944e-05
2.3695e-05
2.36956e-05
2.36961e-05
2.36966e-05
2.36971e-05
2.36975e-05
2.3698e-05
2.36983e-05
2.36986e-05
2.36989e-05
2.36992e-05
2.36995e-05
2.36997e-05
2.37e-05
2.37003e-05
2.37006e-05
2.37008e-05
2.37011e-05
2.37012e-05
2.37792e-05
2.37815e-05
2.37835e-05
2.37854e-05
2.37871e-05
2.37887e-05
2.37901e-05
2.37914e-05
2.37927e-05
2.37938e-05
2.37949e-05
2.3796e-05
2.37969e-05
2.37978e-05
2.37986e-05
2.37993e-05
2.38e-05
2.38006e-05
2.38012e-05
2.38018e-05
2.38024e-05
2.38029e-05
2.38034e-05
2.38038e-05
2.38043e-05
2.38047e-05
2.38051e-05
2.38055e-05
2.38058e-05
2.38061e-05
2.38063e-05
2.38065e-05
2.38068e-05
2.38071e-05
2.38074e-05
2.38076e-05
2.38079e-05
2.38081e-05
2.38029e-05
2.3805e-05
2.38069e-05
2.38086e-05
2.38102e-05
2.38116e-05
2.3813e-05
2.38142e-05
2.38154e-05
2.38165e-05
2.38176e-05
2.38185e-05
2.38194e-05
2.38202e-05
2.38209e-05
2.38216e-05
2.38222e-05
2.38228e-05
2.38233e-05
2.38239e-05
2.38244e-05
2.38248e-05
2.38253e-05
2.38257e-05
2.38262e-05
2.38266e-05
2.3827e-05
2.38273e-05
2.38276e-05
2.38278e-05
2.3828e-05
2.38282e-05
2.38285e-05
2.38288e-05
2.38291e-05
2.38293e-05
2.38296e-05
2.38028e-05
2.38049e-05
2.38069e-05
2.38087e-05
2.38103e-05
2.38117e-05
2.38131e-05
2.38143e-05
2.38155e-05
2.38167e-05
2.38177e-05
2.38187e-05
2.38195e-05
2.38203e-05
2.3821e-05
2.38217e-05
2.38223e-05
2.38229e-05
2.38234e-05
2.38239e-05
2.38244e-05
2.38248e-05
2.38253e-05
2.38257e-05
2.38262e-05
2.38267e-05
2.3827e-05
2.38274e-05
2.38276e-05
2.38278e-05
2.38279e-05
2.38281e-05
2.38284e-05
2.38287e-05
2.3829e-05
2.38293e-05
2.38295e-05
2.37812e-05
2.37834e-05
2.37854e-05
2.37872e-05
2.37888e-05
2.37903e-05
2.37917e-05
2.3793e-05
2.37942e-05
2.37954e-05
2.37964e-05
2.37973e-05
2.37982e-05
2.37989e-05
2.37997e-05
2.38003e-05
2.38009e-05
2.38015e-05
2.3802e-05
2.38025e-05
2.3803e-05
2.38034e-05
2.38039e-05
2.38043e-05
2.38048e-05
2.38052e-05
2.38056e-05
2.38059e-05
2.38061e-05
2.38062e-05
2.38064e-05
2.38066e-05
2.38068e-05
2.38071e-05
2.38074e-05
2.38078e-05
2.3808e-05
2.38083e-05
2.36747e-05
2.36768e-05
2.36789e-05
2.36807e-05
2.36824e-05
2.36839e-05
2.36853e-05
2.36865e-05
2.36878e-05
2.36889e-05
2.36899e-05
2.36908e-05
2.36916e-05
2.36923e-05
2.3693e-05
2.36937e-05
2.36943e-05
2.36949e-05
2.36954e-05
2.36959e-05
2.36963e-05
2.36968e-05
2.36972e-05
2.36977e-05
2.36981e-05
2.36985e-05
2.36988e-05
2.3699e-05
2.36992e-05
2.36993e-05
2.36995e-05
2.36997e-05
2.36999e-05
2.37002e-05
2.37005e-05
2.37009e-05
2.37012e-05
2.37015e-05
2.32367e-05
2.32388e-05
2.32407e-05
2.32424e-05
2.3244e-05
2.32453e-05
2.32466e-05
2.32478e-05
2.32489e-05
2.32499e-05
2.32508e-05
2.32517e-05
2.32524e-05
2.3253e-05
2.32536e-05
2.32542e-05
2.32548e-05
2.32553e-05
2.32557e-05
2.32562e-05
2.32566e-05
2.3257e-05
2.32574e-05
2.32578e-05
2.32582e-05
2.32585e-05
2.32588e-05
2.32589e-05
2.32591e-05
2.32592e-05
2.32593e-05
2.32594e-05
2.32597e-05
2.326e-05
2.32603e-05
2.32606e-05
2.3261e-05
2.32613e-05
2.16164e-05
2.16175e-05
2.16186e-05
2.16195e-05
2.16203e-05
2.1621e-05
2.16216e-05
2.16222e-05
2.16227e-05
2.16232e-05
2.16237e-05
2.1624e-05
2.16243e-05
2.16246e-05
2.16248e-05
2.16251e-05
2.16253e-05
2.16256e-05
2.16258e-05
2.16261e-05
2.16263e-05
2.16266e-05
2.16268e-05
2.16271e-05
2.16274e-05
2.16275e-05
2.16276e-05
2.16276e-05
2.16276e-05
2.16275e-05
2.16275e-05
2.16276e-05
2.16277e-05
2.1628e-05
2.16283e-05
2.16286e-05
2.1629e-05
2.16293e-05
1.54472e-05
1.54375e-05
1.54286e-05
1.54205e-05
1.54131e-05
1.54063e-05
1.54001e-05
1.53944e-05
1.53891e-05
1.53843e-05
1.53799e-05
1.53759e-05
1.53721e-05
1.53687e-05
1.53655e-05
1.53625e-05
1.53599e-05
1.53574e-05
1.53551e-05
1.5353e-05
1.53511e-05
1.53493e-05
1.53478e-05
1.53463e-05
1.5345e-05
1.53439e-05
1.53428e-05
1.53417e-05
1.53408e-05
1.53399e-05
1.53391e-05
1.53384e-05
1.53378e-05
1.53373e-05
1.53369e-05
1.53366e-05
1.53364e-05
1.53363e-05
1.58481e-05
1.5837e-05
1.5827e-05
1.58178e-05
1.58093e-05
1.58016e-05
1.57945e-05
1.5788e-05
1.5782e-05
1.57765e-05
1.57714e-05
1.57668e-05
1.57625e-05
1.57586e-05
1.5755e-05
1.57517e-05
1.57487e-05
1.57459e-05
1.57434e-05
1.5741e-05
1.57389e-05
1.5737e-05
1.57352e-05
1.57336e-05
1.57321e-05
1.57308e-05
1.57296e-05
1.57285e-05
1.57275e-05
1.57266e-05
1.57258e-05
1.5725e-05
1.57244e-05
1.57239e-05
1.57234e-05
1.57231e-05
1.57228e-05
1.57225e-05
2.29154e-05
2.29152e-05
2.2915e-05
2.29149e-05
2.29148e-05
2.29147e-05
2.29146e-05
2.29145e-05
2.29144e-05
2.29143e-05
2.29143e-05
2.29142e-05
2.29142e-05
2.29142e-05
2.29142e-05
2.29142e-05
2.29142e-05
2.29142e-05
2.29142e-05
2.29142e-05
2.29143e-05
2.29144e-05
2.29145e-05
2.29147e-05
2.29147e-05
2.29148e-05
2.29148e-05
2.29148e-05
2.29147e-05
2.29148e-05
2.29148e-05
2.29149e-05
2.2915e-05
2.29152e-05
2.29153e-05
2.29154e-05
2.29155e-05
2.29155e-05
2.47356e-05
2.47365e-05
2.47373e-05
2.47381e-05
2.47388e-05
2.47395e-05
2.47401e-05
2.47407e-05
2.47412e-05
2.47417e-05
2.47422e-05
2.47427e-05
2.47431e-05
2.47436e-05
2.4744e-05
2.47443e-05
2.47447e-05
2.4745e-05
2.47453e-05
2.47456e-05
2.47459e-05
2.47462e-05
2.47465e-05
2.47468e-05
2.4747e-05
2.47472e-05
2.47474e-05
2.47476e-05
2.47477e-05
2.47479e-05
2.4748e-05
2.47482e-05
2.47484e-05
2.47485e-05
2.47487e-05
2.47488e-05
2.4749e-05
2.47491e-05
2.52534e-05
2.52545e-05
2.52554e-05
2.52564e-05
2.52573e-05
2.52581e-05
2.52589e-05
2.52596e-05
2.52603e-05
2.52609e-05
2.52615e-05
2.52621e-05
2.52627e-05
2.52632e-05
2.52637e-05
2.52641e-05
2.52645e-05
2.52649e-05
2.52653e-05
2.52657e-05
2.5266e-05
2.52663e-05
2.52667e-05
2.5267e-05
2.52672e-05
2.52675e-05
2.52677e-05
2.52679e-05
2.52681e-05
2.52683e-05
2.52685e-05
2.52686e-05
2.52688e-05
2.5269e-05
2.52692e-05
2.52693e-05
2.52695e-05
2.52696e-05
2.53921e-05
2.53932e-05
2.53942e-05
2.53952e-05
2.53961e-05
2.5397e-05
2.53978e-05
2.53985e-05
2.53992e-05
2.53999e-05
2.54006e-05
2.54012e-05
2.54018e-05
2.54024e-05
2.54029e-05
2.54033e-05
2.54037e-05
2.54042e-05
2.54045e-05
2.54049e-05
2.54053e-05
2.54056e-05
2.54059e-05
2.54062e-05
2.54065e-05
2.54068e-05
2.5407e-05
2.54073e-05
2.54075e-05
2.54076e-05
2.54078e-05
2.5408e-05
2.54081e-05
2.54083e-05
2.54085e-05
2.54087e-05
2.54088e-05
2.5409e-05
2.54243e-05
2.54253e-05
2.54263e-05
2.54272e-05
2.54281e-05
2.54289e-05
2.54297e-05
2.54304e-05
2.54311e-05
2.54318e-05
2.54324e-05
2.5433e-05
2.54336e-05
2.54341e-05
2.54345e-05
2.5435e-05
2.54354e-05
2.54357e-05
2.54361e-05
2.54364e-05
2.54368e-05
2.54371e-05
2.54374e-05
2.54376e-05
2.54379e-05
2.54382e-05
2.54385e-05
2.54387e-05
2.54388e-05
2.5439e-05
2.54391e-05
2.54393e-05
2.54395e-05
2.54396e-05
2.54398e-05
2.544e-05
2.54401e-05
2.54242e-05
2.54253e-05
2.54263e-05
2.54272e-05
2.54281e-05
2.54289e-05
2.54297e-05
2.54305e-05
2.54312e-05
2.54319e-05
2.54325e-05
2.54331e-05
2.54336e-05
2.54341e-05
2.54346e-05
2.5435e-05
2.54354e-05
2.54358e-05
2.54361e-05
2.54365e-05
2.54368e-05
2.54371e-05
2.54374e-05
2.54377e-05
2.5438e-05
2.54382e-05
2.54385e-05
2.54387e-05
2.54388e-05
2.5439e-05
2.54391e-05
2.54393e-05
2.54394e-05
2.54396e-05
2.54398e-05
2.544e-05
2.54401e-05
2.53931e-05
2.53942e-05
2.53952e-05
2.53962e-05
2.53971e-05
2.53979e-05
2.53987e-05
2.53994e-05
2.54001e-05
2.54008e-05
2.54015e-05
2.5402e-05
2.54026e-05
2.5403e-05
2.54035e-05
2.54039e-05
2.54043e-05
2.54047e-05
2.5405e-05
2.54053e-05
2.54057e-05
2.5406e-05
2.54062e-05
2.54065e-05
2.54068e-05
2.54071e-05
2.54073e-05
2.54075e-05
2.54076e-05
2.54078e-05
2.54079e-05
2.5408e-05
2.54082e-05
2.54084e-05
2.54086e-05
2.54088e-05
2.54089e-05
2.54091e-05
2.52543e-05
2.52554e-05
2.52564e-05
2.52573e-05
2.52582e-05
2.5259e-05
2.52598e-05
2.52605e-05
2.52612e-05
2.52619e-05
2.52625e-05
2.5263e-05
2.52635e-05
2.5264e-05
2.52644e-05
2.52648e-05
2.52652e-05
2.52655e-05
2.52659e-05
2.52662e-05
2.52665e-05
2.52667e-05
2.5267e-05
2.52673e-05
2.52676e-05
2.52678e-05
2.5268e-05
2.52682e-05
2.52683e-05
2.52684e-05
2.52685e-05
2.52686e-05
2.52688e-05
2.5269e-05
2.52692e-05
2.52694e-05
2.52696e-05
2.52697e-05
2.47363e-05
2.47372e-05
2.47381e-05
2.47389e-05
2.47396e-05
2.47403e-05
2.47409e-05
2.47416e-05
2.47421e-05
2.47427e-05
2.47432e-05
2.47436e-05
2.4744e-05
2.47443e-05
2.47447e-05
2.4745e-05
2.47453e-05
2.47456e-05
2.47459e-05
2.47461e-05
2.47464e-05
2.47466e-05
2.47469e-05
2.47471e-05
2.47473e-05
2.47475e-05
2.47477e-05
2.47478e-05
2.47478e-05
2.47479e-05
2.47479e-05
2.4748e-05
2.47482e-05
2.47484e-05
2.47486e-05
2.47488e-05
2.4749e-05
2.47492e-05
2.2915e-05
2.2915e-05
2.29149e-05
2.29149e-05
2.29149e-05
2.29148e-05
2.29148e-05
2.29147e-05
2.29147e-05
2.29147e-05
2.29147e-05
2.29147e-05
2.29147e-05
2.29146e-05
2.29145e-05
2.29145e-05
2.29145e-05
2.29145e-05
2.29145e-05
2.29145e-05
2.29146e-05
2.29146e-05
2.29148e-05
2.29149e-05
2.2915e-05
2.2915e-05
2.2915e-05
2.29149e-05
2.29147e-05
2.29146e-05
2.29145e-05
2.29145e-05
2.29145e-05
2.29147e-05
2.29149e-05
2.29151e-05
2.29154e-05
2.29156e-05
1.58366e-05
1.58265e-05
1.58174e-05
1.58091e-05
1.58014e-05
1.57943e-05
1.57879e-05
1.57819e-05
1.57765e-05
1.57715e-05
1.5767e-05
1.57627e-05
1.57588e-05
1.57553e-05
1.5752e-05
1.5749e-05
1.57462e-05
1.57437e-05
1.57414e-05
1.57392e-05
1.57373e-05
1.57355e-05
1.57339e-05
1.57324e-05
1.57311e-05
1.57299e-05
1.57288e-05
1.57277e-05
1.57268e-05
1.57259e-05
1.5725e-05
1.57243e-05
1.57237e-05
1.57231e-05
1.57227e-05
1.57224e-05
1.57222e-05
1.5722e-05
1.60072e-05
1.59959e-05
1.59857e-05
1.59764e-05
1.59678e-05
1.59599e-05
1.59527e-05
1.59461e-05
1.594e-05
1.59344e-05
1.59293e-05
1.59246e-05
1.59202e-05
1.59163e-05
1.59126e-05
1.59093e-05
1.59062e-05
1.59034e-05
1.59009e-05
1.58985e-05
1.58963e-05
1.58944e-05
1.58926e-05
1.5891e-05
1.58895e-05
1.58881e-05
1.58869e-05
1.58858e-05
1.58848e-05
1.58839e-05
1.5883e-05
1.58823e-05
1.58817e-05
1.58811e-05
1.58807e-05
1.58803e-05
1.588e-05
1.58797e-05
2.35243e-05
2.35232e-05
2.35223e-05
2.35215e-05
2.35207e-05
2.35201e-05
2.35195e-05
2.3519e-05
2.35185e-05
2.3518e-05
2.35176e-05
2.35173e-05
2.3517e-05
2.35168e-05
2.35165e-05
2.35163e-05
2.35161e-05
2.35159e-05
2.35157e-05
2.35156e-05
2.35155e-05
2.35155e-05
2.35155e-05
2.35155e-05
2.35155e-05
2.35154e-05
2.35153e-05
2.35153e-05
2.35152e-05
2.35151e-05
2.35151e-05
2.35151e-05
2.35152e-05
2.35153e-05
2.35153e-05
2.35154e-05
2.35154e-05
2.35154e-05
2.54863e-05
2.54863e-05
2.54864e-05
2.54865e-05
2.54866e-05
2.54868e-05
2.54869e-05
2.54871e-05
2.54872e-05
2.54874e-05
2.54876e-05
2.54878e-05
2.54879e-05
2.54881e-05
2.54883e-05
2.54885e-05
2.54886e-05
2.54888e-05
2.54889e-05
2.54891e-05
2.54892e-05
2.54894e-05
2.54896e-05
2.54897e-05
2.54898e-05
2.549e-05
2.549e-05
2.54901e-05
2.54902e-05
2.54903e-05
2.54904e-05
2.54905e-05
2.54906e-05
2.54907e-05
2.54908e-05
2.54909e-05
2.54909e-05
2.5491e-05
2.60635e-05
2.60637e-05
2.60639e-05
2.60642e-05
2.60645e-05
2.60648e-05
2.60651e-05
2.60654e-05
2.60657e-05
2.6066e-05
2.60663e-05
2.60666e-05
2.60669e-05
2.60672e-05
2.60675e-05
2.60677e-05
2.6068e-05
2.60682e-05
2.60684e-05
2.60686e-05
2.60688e-05
2.6069e-05
2.60692e-05
2.60694e-05
2.60696e-05
2.60697e-05
2.60699e-05
2.607e-05
2.60701e-05
2.60702e-05
2.60703e-05
2.60705e-05
2.60706e-05
2.60707e-05
2.60708e-05
2.60709e-05
2.6071e-05
2.60711e-05
2.62279e-05
2.62282e-05
2.62284e-05
2.62288e-05
2.62291e-05
2.62294e-05
2.62298e-05
2.62302e-05
2.62305e-05
2.62309e-05
2.62312e-05
2.62315e-05
2.62319e-05
2.62322e-05
2.62325e-05
2.62327e-05
2.6233e-05
2.62333e-05
2.62335e-05
2.62337e-05
2.62339e-05
2.62341e-05
2.62343e-05
2.62345e-05
2.62347e-05
2.62349e-05
2.6235e-05
2.62352e-05
2.62353e-05
2.62354e-05
2.62356e-05
2.62357e-05
2.62358e-05
2.62359e-05
2.6236e-05
2.62361e-05
2.62362e-05
2.62363e-05
2.62677e-05
2.62679e-05
2.62683e-05
2.62686e-05
2.6269e-05
2.62694e-05
2.62697e-05
2.62701e-05
2.62705e-05
2.62708e-05
2.62712e-05
2.62715e-05
2.62718e-05
2.62721e-05
2.62724e-05
2.62727e-05
2.62729e-05
2.62731e-05
2.62734e-05
2.62736e-05
2.62738e-05
2.6274e-05
2.62742e-05
2.62744e-05
2.62745e-05
2.62747e-05
2.62749e-05
2.6275e-05
2.62751e-05
2.62752e-05
2.62753e-05
2.62754e-05
2.62755e-05
2.62756e-05
2.62758e-05
2.62759e-05
2.6276e-05
2.62676e-05
2.62679e-05
2.62683e-05
2.62686e-05
2.6269e-05
2.62694e-05
2.62698e-05
2.62701e-05
2.62705e-05
2.62709e-05
2.62712e-05
2.62716e-05
2.62719e-05
2.62722e-05
2.62724e-05
2.62727e-05
2.62729e-05
2.62732e-05
2.62734e-05
2.62736e-05
2.62738e-05
2.6274e-05
2.62742e-05
2.62744e-05
2.62745e-05
2.62747e-05
2.62749e-05
2.6275e-05
2.62751e-05
2.62752e-05
2.62753e-05
2.62754e-05
2.62755e-05
2.62756e-05
2.62757e-05
2.62759e-05
2.6276e-05
2.62281e-05
2.62284e-05
2.62288e-05
2.62291e-05
2.62295e-05
2.62299e-05
2.62302e-05
2.62306e-05
2.6231e-05
2.62313e-05
2.62317e-05
2.6232e-05
2.62323e-05
2.62326e-05
2.62329e-05
2.62331e-05
2.62333e-05
2.62336e-05
2.62338e-05
2.6234e-05
2.62342e-05
2.62344e-05
2.62346e-05
2.62347e-05
2.62349e-05
2.62351e-05
2.62352e-05
2.62353e-05
2.62354e-05
2.62355e-05
2.62356e-05
2.62357e-05
2.62358e-05
2.62359e-05
2.6236e-05
2.62362e-05
2.62363e-05
2.62364e-05
2.60636e-05
2.60638e-05
2.60642e-05
2.60645e-05
2.60649e-05
2.60652e-05
2.60655e-05
2.60659e-05
2.60662e-05
2.60665e-05
2.60669e-05
2.60671e-05
2.60674e-05
2.60677e-05
2.60679e-05
2.60681e-05
2.60683e-05
2.60685e-05
2.60687e-05
2.60689e-05
2.60691e-05
2.60693e-05
2.60695e-05
2.60696e-05
2.60698e-05
2.60699e-05
2.607e-05
2.60701e-05
2.60702e-05
2.60703e-05
2.60703e-05
2.60704e-05
2.60705e-05
2.60707e-05
2.60708e-05
2.60709e-05
2.6071e-05
2.60712e-05
2.54862e-05
2.54863e-05
2.54865e-05
2.54867e-05
2.54869e-05
2.54871e-05
2.54873e-05
2.54875e-05
2.54877e-05
2.54879e-05
2.54881e-05
2.54883e-05
2.54884e-05
2.54886e-05
2.54887e-05
2.54888e-05
2.5489e-05
2.54891e-05
2.54893e-05
2.54894e-05
2.54895e-05
2.54896e-05
2.54898e-05
2.54899e-05
2.549e-05
2.54901e-05
2.54902e-05
2.54902e-05
2.54902e-05
2.54903e-05
2.54903e-05
2.54903e-05
2.54904e-05
2.54905e-05
2.54907e-05
2.54908e-05
2.5491e-05
2.54911e-05
2.3523e-05
2.35222e-05
2.35215e-05
2.35208e-05
2.35202e-05
2.35197e-05
2.35192e-05
2.35187e-05
2.35184e-05
2.3518e-05
2.35177e-05
2.35174e-05
2.35171e-05
2.35169e-05
2.35166e-05
2.35164e-05
2.35162e-05
2.35161e-05
2.35159e-05
2.35158e-05
2.35157e-05
2.35156e-05
2.35156e-05
2.35156e-05
2.35156e-05
2.35155e-05
2.35154e-05
2.35153e-05
2.35151e-05
2.35148e-05
2.35147e-05
2.35146e-05
2.35146e-05
2.35147e-05
2.35149e-05
2.35151e-05
2.35153e-05
2.35154e-05
1.59955e-05
1.59853e-05
1.5976e-05
1.59675e-05
1.59598e-05
1.59526e-05
1.5946e-05
1.594e-05
1.59345e-05
1.59295e-05
1.59248e-05
1.59205e-05
1.59166e-05
1.59129e-05
1.59096e-05
1.59065e-05
1.59037e-05
1.59012e-05
1.58988e-05
1.58966e-05
1.58947e-05
1.58929e-05
1.58913e-05
1.58898e-05
1.58885e-05
1.58873e-05
1.58861e-05
1.5885e-05
1.5884e-05
1.58831e-05
1.58823e-05
1.58815e-05
1.58809e-05
1.58804e-05
1.58799e-05
1.58796e-05
1.58794e-05
1.58792e-05
1.6072e-05
1.60608e-05
1.60505e-05
1.60411e-05
1.60325e-05
1.60246e-05
1.60174e-05
1.60107e-05
1.60046e-05
1.5999e-05
1.59938e-05
1.59891e-05
1.59847e-05
1.59808e-05
1.59771e-05
1.59738e-05
1.59707e-05
1.59679e-05
1.59653e-05
1.5963e-05
1.59608e-05
1.59588e-05
1.5957e-05
1.59554e-05
1.59539e-05
1.59526e-05
1.59513e-05
1.59502e-05
1.59492e-05
1.59483e-05
1.59475e-05
1.59467e-05
1.59461e-05
1.59456e-05
1.59451e-05
1.59448e-05
1.59444e-05
1.59441e-05
2.38088e-05
2.38073e-05
2.38059e-05
2.38046e-05
2.38035e-05
2.38025e-05
2.38016e-05
2.38008e-05
2.38e-05
2.37994e-05
2.37988e-05
2.37982e-05
2.37978e-05
2.37973e-05
2.3797e-05
2.37966e-05
2.37963e-05
2.3796e-05
2.37957e-05
2.37955e-05
2.37953e-05
2.37952e-05
2.37951e-05
2.37951e-05
2.3795e-05
2.37949e-05
2.37948e-05
2.37946e-05
2.37945e-05
2.37944e-05
2.37944e-05
2.37944e-05
2.37944e-05
2.37944e-05
2.37944e-05
2.37944e-05
2.37944e-05
2.37944e-05
2.58734e-05
2.58728e-05
2.58723e-05
2.5872e-05
2.58717e-05
2.58715e-05
2.58713e-05
2.58712e-05
2.58711e-05
2.5871e-05
2.58709e-05
2.58709e-05
2.58709e-05
2.58709e-05
2.58709e-05
2.5871e-05
2.5871e-05
2.5871e-05
2.58711e-05
2.58711e-05
2.58712e-05
2.58713e-05
2.58713e-05
2.58714e-05
2.58715e-05
2.58715e-05
2.58716e-05
2.58716e-05
2.58716e-05
2.58717e-05
2.58717e-05
2.58718e-05
2.58718e-05
2.58719e-05
2.58719e-05
2.5872e-05
2.5872e-05
2.5872e-05
2.64962e-05
2.64958e-05
2.64955e-05
2.64953e-05
2.64952e-05
2.64952e-05
2.64952e-05
2.64952e-05
2.64952e-05
2.64953e-05
2.64954e-05
2.64955e-05
2.64956e-05
2.64957e-05
2.64958e-05
2.64959e-05
2.64961e-05
2.64962e-05
2.64963e-05
2.64964e-05
2.64965e-05
2.64966e-05
2.64967e-05
2.64968e-05
2.64969e-05
2.6497e-05
2.64971e-05
2.64972e-05
2.64973e-05
2.64973e-05
2.64974e-05
2.64975e-05
2.64975e-05
2.64976e-05
2.64977e-05
2.64977e-05
2.64978e-05
2.64978e-05
2.66811e-05
2.66807e-05
2.66804e-05
2.66803e-05
2.66802e-05
2.66802e-05
2.66802e-05
2.66803e-05
2.66804e-05
2.66805e-05
2.66806e-05
2.66808e-05
2.66809e-05
2.66811e-05
2.66812e-05
2.66813e-05
2.66815e-05
2.66816e-05
2.66817e-05
2.66819e-05
2.6682e-05
2.66821e-05
2.66822e-05
2.66823e-05
2.66824e-05
2.66826e-05
2.66827e-05
2.66827e-05
2.66828e-05
2.66829e-05