/*--------------------------------*- C++ -*----------------------------------*\
| =========                 |                                                 |
| \\      /  F ield         | OpenFOAM: The Open Source CFD Toolbox           |
|  \\    /   O peration     | Version:  2.3.1                                 |
|   \\  /    A nd           | Web:      www.OpenFOAM.org                      |
|    \\/     M anipulation  |                                                 |
\*---------------------------------------------------------------------------*/
FoamFile
{
    version     2.0;
    format      ascii;
    class       volScalarField;
    location    "5";
    object      k_0;
}
// * * * * * * * * * * * * * * * * * * * * * * * * * * * * * * * * * * * * * //

dimensions      [0 2 -2 0 0 0 0];

internalField   nonuniform List<scalar> 
38262
(
9.58588e-06
9.57378e-06
9.56276e-06
9.55269e-06
9.54348e-06
9.53504e-06
9.52731e-06
9.5202e-06
9.51366e-06
9.50764e-06
9.5021e-06
9.49699e-06
9.49229e-06
9.48797e-06
9.484e-06
9.48035e-06
9.47698e-06
9.47389e-06
9.47104e-06
9.46842e-06
9.46602e-06
9.46384e-06
9.46186e-06
9.46007e-06
9.45844e-06
9.45697e-06
9.45563e-06
9.45441e-06
9.4533e-06
9.45229e-06
9.45138e-06
9.45057e-06
9.44986e-06
9.44924e-06
9.44873e-06
9.44833e-06
9.448e-06
9.44775e-06
1.12788e-05
1.12666e-05
1.12554e-05
1.12452e-05
1.12358e-05
1.12273e-05
1.12194e-05
1.12122e-05
1.12055e-05
1.11994e-05
1.11937e-05
1.11885e-05
1.11838e-05
1.11794e-05
1.11754e-05
1.11717e-05
1.11683e-05
1.11651e-05
1.11623e-05
1.11597e-05
1.11573e-05
1.11552e-05
1.11532e-05
1.11515e-05
1.11499e-05
1.11485e-05
1.11471e-05
1.11459e-05
1.11448e-05
1.11438e-05
1.1143e-05
1.11422e-05
1.11416e-05
1.11411e-05
1.11407e-05
1.11404e-05
1.11402e-05
1.114e-05
1.17404e-05
1.1729e-05
1.17186e-05
1.17091e-05
1.17004e-05
1.16925e-05
1.16852e-05
1.16785e-05
1.16723e-05
1.16666e-05
1.16613e-05
1.16565e-05
1.16521e-05
1.16481e-05
1.16444e-05
1.1641e-05
1.16378e-05
1.16349e-05
1.16323e-05
1.16299e-05
1.16277e-05
1.16257e-05
1.1624e-05
1.16224e-05
1.16209e-05
1.16196e-05
1.16184e-05
1.16173e-05
1.16163e-05
1.16154e-05
1.16147e-05
1.1614e-05
1.16135e-05
1.1613e-05
1.16127e-05
1.16124e-05
1.16122e-05
1.1612e-05
1.18397e-05
1.18285e-05
1.18183e-05
1.1809e-05
1.18004e-05
1.17926e-05
1.17854e-05
1.17788e-05
1.17727e-05
1.17671e-05
1.1762e-05
1.17573e-05
1.1753e-05
1.17491e-05
1.17454e-05
1.17421e-05
1.1739e-05
1.17362e-05
1.17336e-05
1.17312e-05
1.17291e-05
1.17271e-05
1.17254e-05
1.17238e-05
1.17224e-05
1.17211e-05
1.172e-05
1.17189e-05
1.1718e-05
1.17171e-05
1.17164e-05
1.17157e-05
1.17151e-05
1.17147e-05
1.17143e-05
1.17141e-05
1.17139e-05
1.17137e-05
1.18571e-05
1.1846e-05
1.18358e-05
1.18265e-05
1.18179e-05
1.18101e-05
1.18029e-05
1.17963e-05
1.17902e-05
1.17847e-05
1.17796e-05
1.17749e-05
1.17707e-05
1.17667e-05
1.17631e-05
1.17598e-05
1.17567e-05
1.17539e-05
1.17513e-05
1.17489e-05
1.17468e-05
1.17448e-05
1.1743e-05
1.17414e-05
1.174e-05
1.17387e-05
1.17376e-05
1.17366e-05
1.17357e-05
1.17349e-05
1.17341e-05
1.17334e-05
1.17328e-05
1.17323e-05
1.17319e-05
1.17317e-05
1.17315e-05
1.17314e-05
1.18485e-05
1.18383e-05
1.1829e-05
1.18205e-05
1.18127e-05
1.18055e-05
1.17989e-05
1.17928e-05
1.17873e-05
1.17822e-05
1.17776e-05
1.17733e-05
1.17694e-05
1.17658e-05
1.17625e-05
1.17594e-05
1.17566e-05
1.1754e-05
1.17516e-05
1.17494e-05
1.17474e-05
1.17456e-05
1.1744e-05
1.17426e-05
1.17413e-05
1.17402e-05
1.17392e-05
1.17383e-05
1.17375e-05
1.17367e-05
1.1736e-05
1.17353e-05
1.17348e-05
1.17344e-05
1.17342e-05
1.1734e-05
1.17339e-05
1.18484e-05
1.18382e-05
1.18289e-05
1.18205e-05
1.18127e-05
1.18055e-05
1.17989e-05
1.17928e-05
1.17873e-05
1.17823e-05
1.17777e-05
1.17734e-05
1.17695e-05
1.17659e-05
1.17626e-05
1.17595e-05
1.17567e-05
1.17541e-05
1.17517e-05
1.17495e-05
1.17475e-05
1.17457e-05
1.17441e-05
1.17426e-05
1.17414e-05
1.17403e-05
1.17393e-05
1.17384e-05
1.17375e-05
1.17367e-05
1.17359e-05
1.17353e-05
1.17347e-05
1.17343e-05
1.17341e-05
1.17339e-05
1.17338e-05
1.18456e-05
1.18355e-05
1.18262e-05
1.18178e-05
1.181e-05
1.18029e-05
1.17963e-05
1.17903e-05
1.17848e-05
1.17798e-05
1.17752e-05
1.17709e-05
1.1767e-05
1.17634e-05
1.17601e-05
1.1757e-05
1.17542e-05
1.17516e-05
1.17492e-05
1.1747e-05
1.1745e-05
1.17432e-05
1.17416e-05
1.17401e-05
1.17389e-05
1.17378e-05
1.17368e-05
1.17359e-05
1.1735e-05
1.17341e-05
1.17334e-05
1.17327e-05
1.17321e-05
1.17317e-05
1.17314e-05
1.17313e-05
1.17312e-05
1.17312e-05
1.1828e-05
1.18179e-05
1.18086e-05
1.18002e-05
1.17925e-05
1.17853e-05
1.17788e-05
1.17728e-05
1.17673e-05
1.17623e-05
1.17577e-05
1.17534e-05
1.17495e-05
1.17459e-05
1.17425e-05
1.17395e-05
1.17366e-05
1.17341e-05
1.17317e-05
1.17295e-05
1.17275e-05
1.17257e-05
1.17241e-05
1.17226e-05
1.17214e-05
1.17202e-05
1.17192e-05
1.17182e-05
1.17173e-05
1.17165e-05
1.17156e-05
1.17149e-05
1.17144e-05
1.1714e-05
1.17137e-05
1.17135e-05
1.17134e-05
1.17135e-05
1.17285e-05
1.17181e-05
1.17087e-05
1.17001e-05
1.16923e-05
1.1685e-05
1.16784e-05
1.16723e-05
1.16667e-05
1.16616e-05
1.16569e-05
1.16526e-05
1.16486e-05
1.16449e-05
1.16415e-05
1.16383e-05
1.16355e-05
1.16329e-05
1.16305e-05
1.16282e-05
1.16262e-05
1.16244e-05
1.16227e-05
1.16213e-05
1.16199e-05
1.16187e-05
1.16177e-05
1.16166e-05
1.16157e-05
1.16148e-05
1.1614e-05
1.16132e-05
1.16126e-05
1.16122e-05
1.16119e-05
1.16117e-05
1.16116e-05
1.16118e-05
1.1266e-05
1.12548e-05
1.12447e-05
1.12354e-05
1.12269e-05
1.12191e-05
1.12119e-05
1.12053e-05
1.11993e-05
1.11938e-05
1.11887e-05
1.1184e-05
1.11797e-05
1.11757e-05
1.1172e-05
1.11687e-05
1.11656e-05
1.11627e-05
1.11601e-05
1.11578e-05
1.11556e-05
1.11536e-05
1.11518e-05
1.11502e-05
1.11488e-05
1.11475e-05
1.11463e-05
1.11452e-05
1.11442e-05
1.11432e-05
1.11422e-05
1.11414e-05
1.11408e-05
1.11403e-05
1.11399e-05
1.11396e-05
1.11395e-05
1.11396e-05
9.57336e-06
9.56229e-06
9.5522e-06
9.543e-06
9.53459e-06
9.52689e-06
9.51981e-06
9.51332e-06
9.50736e-06
9.50191e-06
9.4969e-06
9.4923e-06
9.48807e-06
9.48416e-06
9.48055e-06
9.47722e-06
9.47416e-06
9.47135e-06
9.46876e-06
9.46638e-06
9.4642e-06
9.4622e-06
9.46039e-06
9.45875e-06
9.45727e-06
9.45594e-06
9.45472e-06
9.4536e-06
9.45256e-06
9.45159e-06
9.45069e-06
9.44986e-06
9.44912e-06
9.44849e-06
9.44798e-06
9.44761e-06
9.44737e-06
9.44725e-06
1.43606e-05
1.43509e-05
1.43421e-05
1.43339e-05
1.43265e-05
1.43197e-05
1.43134e-05
1.43076e-05
1.43023e-05
1.42973e-05
1.42928e-05
1.42886e-05
1.42848e-05
1.42813e-05
1.42781e-05
1.42751e-05
1.42724e-05
1.42699e-05
1.42676e-05
1.42655e-05
1.42636e-05
1.42619e-05
1.42603e-05
1.42589e-05
1.42576e-05
1.42564e-05
1.42554e-05
1.42544e-05
1.42535e-05
1.42527e-05
1.4252e-05
1.42514e-05
1.42509e-05
1.42504e-05
1.42501e-05
1.42497e-05
1.42494e-05
1.42492e-05
1.86876e-05
1.86902e-05
1.86925e-05
1.86945e-05
1.86964e-05
1.8698e-05
1.86994e-05
1.87007e-05
1.87019e-05
1.87029e-05
1.87038e-05
1.87046e-05
1.87055e-05
1.87063e-05
1.8707e-05
1.87077e-05
1.87084e-05
1.8709e-05
1.87096e-05
1.87102e-05
1.87108e-05
1.87114e-05
1.8712e-05
1.87126e-05
1.8713e-05
1.87134e-05
1.87137e-05
1.87139e-05
1.87142e-05
1.87144e-05
1.87148e-05
1.87151e-05
1.87155e-05
1.8716e-05
1.87164e-05
1.87167e-05
1.87169e-05
1.87171e-05
1.99645e-05
1.99681e-05
1.99713e-05
1.99741e-05
1.99767e-05
1.99791e-05
1.99812e-05
1.99831e-05
1.99847e-05
1.99863e-05
1.99877e-05
1.99891e-05
1.99904e-05
1.99916e-05
1.99926e-05
1.99936e-05
1.99946e-05
1.99955e-05
1.99963e-05
1.99972e-05
1.9998e-05
1.99988e-05
1.99996e-05
2.00003e-05
2.0001e-05
2.00015e-05
2.0002e-05
2.00024e-05
2.00027e-05
2.00031e-05
2.00036e-05
2.0004e-05
2.00045e-05
2.0005e-05
2.00054e-05
2.00058e-05
2.00061e-05
2.00063e-05
2.02808e-05
2.02845e-05
2.02878e-05
2.02907e-05
2.02933e-05
2.02958e-05
2.02979e-05
2.02999e-05
2.03017e-05
2.03033e-05
2.03048e-05
2.03063e-05
2.03078e-05
2.0309e-05
2.03102e-05
2.03112e-05
2.03122e-05
2.03131e-05
2.0314e-05
2.03148e-05
2.03156e-05
2.03165e-05
2.03172e-05
2.03179e-05
2.03186e-05
2.03192e-05
2.03198e-05
2.03203e-05
2.03207e-05
2.03211e-05
2.03215e-05
2.03219e-05
2.03223e-05
2.03228e-05
2.03233e-05
2.03237e-05
2.03241e-05
2.03243e-05
2.03472e-05
2.03509e-05
2.03541e-05
2.0357e-05
2.03597e-05
2.0362e-05
2.03642e-05
2.03661e-05
2.03678e-05
2.03695e-05
2.03711e-05
2.03727e-05
2.03741e-05
2.03753e-05
2.03765e-05
2.03775e-05
2.03785e-05
2.03793e-05
2.03802e-05
2.0381e-05
2.03818e-05
2.03825e-05
2.03832e-05
2.03839e-05
2.03846e-05
2.03853e-05
2.03859e-05
2.03864e-05
2.03869e-05
2.03873e-05
2.03876e-05
2.03879e-05
2.03883e-05
2.03888e-05
2.03892e-05
2.03897e-05
2.03901e-05
2.03904e-05
2.03625e-05
2.03657e-05
2.03687e-05
2.03713e-05
2.03737e-05
2.03758e-05
2.03777e-05
2.03795e-05
2.03812e-05
2.03828e-05
2.03844e-05
2.03857e-05
2.0387e-05
2.03881e-05
2.03892e-05
2.03901e-05
2.03909e-05
2.03917e-05
2.03924e-05
2.03932e-05
2.03939e-05
2.03946e-05
2.03952e-05
2.03959e-05
2.03966e-05
2.03973e-05
2.03979e-05
2.03984e-05
2.03987e-05
2.0399e-05
2.03992e-05
2.03995e-05
2.03999e-05
2.04004e-05
2.04009e-05
2.04013e-05
2.04017e-05
2.03623e-05
2.03656e-05
2.03687e-05
2.03714e-05
2.03738e-05
2.03759e-05
2.03778e-05
2.03797e-05
2.03815e-05
2.03831e-05
2.03847e-05
2.0386e-05
2.03872e-05
2.03884e-05
2.03894e-05
2.03903e-05
2.03911e-05
2.03919e-05
2.03926e-05
2.03933e-05
2.0394e-05
2.03946e-05
2.03952e-05
2.03959e-05
2.03966e-05
2.03973e-05
2.0398e-05
2.03984e-05
2.03987e-05
2.03989e-05
2.03991e-05
2.03994e-05
2.03998e-05
2.04003e-05
2.04008e-05
2.04013e-05
2.04017e-05
2.03504e-05
2.03538e-05
2.0357e-05
2.03599e-05
2.03624e-05
2.03646e-05
2.03666e-05
2.03685e-05
2.03703e-05
2.0372e-05
2.03735e-05
2.03749e-05
2.03761e-05
2.03771e-05
2.03781e-05
2.03791e-05
2.03799e-05
2.03807e-05
2.03814e-05
2.03821e-05
2.03828e-05
2.03834e-05
2.0384e-05
2.03847e-05
2.03854e-05
2.03861e-05
2.03866e-05
2.0387e-05
2.03873e-05
2.03875e-05
2.03876e-05
2.03879e-05
2.03883e-05
2.03888e-05
2.03893e-05
2.03898e-05
2.03903e-05
2.03907e-05
2.02839e-05
2.02874e-05
2.02907e-05
2.02937e-05
2.02963e-05
2.02986e-05
2.03007e-05
2.03026e-05
2.03045e-05
2.03062e-05
2.03077e-05
2.03091e-05
2.03102e-05
2.03112e-05
2.03122e-05
2.03131e-05
2.0314e-05
2.03148e-05
2.03155e-05
2.03162e-05
2.03169e-05
2.03175e-05
2.03182e-05
2.03189e-05
2.03195e-05
2.03201e-05
2.03205e-05
2.03209e-05
2.03211e-05
2.03212e-05
2.03214e-05
2.03216e-05
2.0322e-05
2.03225e-05
2.03231e-05
2.03237e-05
2.03242e-05
2.03247e-05
1.99675e-05
1.9971e-05
1.99742e-05
1.99771e-05
1.99797e-05
1.99819e-05
1.99839e-05
1.99858e-05
1.99876e-05
1.99893e-05
1.99907e-05
1.9992e-05
1.9993e-05
1.9994e-05
1.99949e-05
1.99957e-05
1.99966e-05
1.99974e-05
1.99981e-05
1.99988e-05
1.99994e-05
2e-05
2.00006e-05
2.00013e-05
2.00018e-05
2.00023e-05
2.00026e-05
2.00029e-05
2.0003e-05
2.00031e-05
2.00033e-05
2.00035e-05
2.00039e-05
2.00045e-05
2.0005e-05
2.00056e-05
2.00062e-05
2.00067e-05
1.86897e-05
1.86922e-05
1.86946e-05
1.86967e-05
1.86985e-05
1.87e-05
1.87014e-05
1.87027e-05
1.8704e-05
1.87051e-05
1.87061e-05
1.87069e-05
1.87076e-05
1.87082e-05
1.87088e-05
1.87094e-05
1.87099e-05
1.87105e-05
1.8711e-05
1.87114e-05
1.87119e-05
1.87123e-05
1.87128e-05
1.87133e-05
1.87137e-05
1.8714e-05
1.87142e-05
1.87143e-05
1.87143e-05
1.87143e-05
1.87144e-05
1.87145e-05
1.87149e-05
1.87153e-05
1.87158e-05
1.87163e-05
1.87169e-05
1.87174e-05
1.43505e-05
1.43416e-05
1.43336e-05
1.43262e-05
1.43195e-05
1.43133e-05
1.43076e-05
1.43023e-05
1.42975e-05
1.42931e-05
1.42891e-05
1.42853e-05
1.42819e-05
1.42787e-05
1.42757e-05
1.4273e-05
1.42705e-05
1.42682e-05
1.42661e-05
1.42642e-05
1.42624e-05
1.42607e-05
1.42593e-05
1.42579e-05
1.42567e-05
1.42556e-05
1.42546e-05
1.42536e-05
1.42527e-05
1.42519e-05
1.42511e-05
1.42505e-05
1.425e-05
1.42496e-05
1.42493e-05
1.42491e-05
1.42489e-05
1.42488e-05
1.54624e-05
1.54518e-05
1.54421e-05
1.54332e-05
1.54251e-05
1.54176e-05
1.54108e-05
1.54045e-05
1.53988e-05
1.53934e-05
1.53885e-05
1.5384e-05
1.53799e-05
1.53761e-05
1.53726e-05
1.53694e-05
1.53665e-05
1.53637e-05
1.53613e-05
1.5359e-05
1.53569e-05
1.5355e-05
1.53533e-05
1.53517e-05
1.53503e-05
1.5349e-05
1.53478e-05
1.53467e-05
1.53458e-05
1.53449e-05
1.53441e-05
1.53434e-05
1.53428e-05
1.53423e-05
1.53419e-05
1.53415e-05
1.53412e-05
1.53409e-05
2.16199e-05
2.16209e-05
2.16219e-05
2.16228e-05
2.16235e-05
2.16242e-05
2.16248e-05
2.16254e-05
2.16259e-05
2.16263e-05
2.16267e-05
2.16271e-05
2.16274e-05
2.16278e-05
2.16282e-05
2.16285e-05
2.16288e-05
2.1629e-05
2.16293e-05
2.16296e-05
2.16299e-05
2.16303e-05
2.16306e-05
2.16309e-05
2.16312e-05
2.16313e-05
2.16315e-05
2.16316e-05
2.16317e-05
2.16318e-05
2.16319e-05
2.16322e-05
2.16324e-05
2.16326e-05
2.16329e-05
2.16331e-05
2.16332e-05
2.16333e-05
2.32385e-05
2.32406e-05
2.32425e-05
2.32442e-05
2.32458e-05
2.32472e-05
2.32485e-05
2.32497e-05
2.32508e-05
2.32518e-05
2.32527e-05
2.32536e-05
2.32545e-05
2.32552e-05
2.32559e-05
2.32566e-05
2.32572e-05
2.32578e-05
2.32584e-05
2.32589e-05
2.32594e-05
2.32599e-05
2.32604e-05
2.32609e-05
2.32613e-05
2.32616e-05
2.32619e-05
2.32622e-05
2.32624e-05
2.32627e-05
2.3263e-05
2.32632e-05
2.32635e-05
2.32638e-05
2.32641e-05
2.32643e-05
2.32645e-05
2.32647e-05
2.3676e-05
2.36783e-05
2.36803e-05
2.36822e-05
2.36839e-05
2.36854e-05
2.36869e-05
2.36882e-05
2.36894e-05
2.36905e-05
2.36915e-05
2.36925e-05
2.36935e-05
2.36943e-05
2.36951e-05
2.36958e-05
2.36965e-05
2.36971e-05
2.36977e-05
2.36983e-05
2.36989e-05
2.36994e-05
2.36999e-05
2.37004e-05
2.37008e-05
2.37012e-05
2.37016e-05
2.37019e-05
2.37022e-05
2.37025e-05
2.37028e-05
2.3703e-05
2.37033e-05
2.37036e-05
2.37039e-05
2.37041e-05
2.37043e-05
2.37045e-05
2.37824e-05
2.37847e-05
2.37867e-05
2.37886e-05
2.37903e-05
2.37919e-05
2.37933e-05
2.37946e-05
2.37958e-05
2.3797e-05
2.37981e-05
2.37991e-05
2.38001e-05
2.3801e-05
2.38018e-05
2.38025e-05
2.38032e-05
2.38038e-05
2.38044e-05
2.3805e-05
2.38055e-05
2.3806e-05
2.38065e-05
2.3807e-05
2.38074e-05
2.38079e-05
2.38083e-05
2.38087e-05
2.3809e-05
2.38092e-05
2.38095e-05
2.38097e-05
2.381e-05
2.38102e-05
2.38105e-05
2.38108e-05
2.3811e-05
2.38112e-05
2.38061e-05
2.38082e-05
2.38101e-05
2.38118e-05
2.38134e-05
2.38148e-05
2.38161e-05
2.38174e-05
2.38185e-05
2.38197e-05
2.38207e-05
2.38217e-05
2.38225e-05
2.38233e-05
2.38241e-05
2.38248e-05
2.38254e-05
2.38259e-05
2.38265e-05
2.3827e-05
2.38275e-05
2.3828e-05
2.38284e-05
2.38289e-05
2.38293e-05
2.38298e-05
2.38301e-05
2.38305e-05
2.38307e-05
2.38309e-05
2.38311e-05
2.38314e-05
2.38316e-05
2.38319e-05
2.38322e-05
2.38325e-05
2.38327e-05
2.3806e-05
2.38081e-05
2.381e-05
2.38118e-05
2.38134e-05
2.38149e-05
2.38162e-05
2.38175e-05
2.38187e-05
2.38198e-05
2.38209e-05
2.38218e-05
2.38227e-05
2.38235e-05
2.38242e-05
2.38249e-05
2.38255e-05
2.3826e-05
2.38266e-05
2.38271e-05
2.38275e-05
2.3828e-05
2.38284e-05
2.38289e-05
2.38294e-05
2.38298e-05
2.38302e-05
2.38305e-05
2.38307e-05
2.38309e-05
2.38311e-05
2.38313e-05
2.38315e-05
2.38318e-05
2.38321e-05
2.38324e-05
2.38327e-05
2.37844e-05
2.37866e-05
2.37886e-05
2.37904e-05
2.3792e-05
2.37935e-05
2.37949e-05
2.37962e-05
2.37974e-05
2.37985e-05
2.37996e-05
2.38005e-05
2.38014e-05
2.38021e-05
2.38028e-05
2.38035e-05
2.38041e-05
2.38047e-05
2.38052e-05
2.38057e-05
2.38062e-05
2.38066e-05
2.38071e-05
2.38075e-05
2.3808e-05
2.38084e-05
2.38087e-05
2.3809e-05
2.38092e-05
2.38094e-05
2.38096e-05
2.38098e-05
2.381e-05
2.38103e-05
2.38106e-05
2.38109e-05
2.38112e-05
2.38115e-05
2.3678e-05
2.36802e-05
2.36822e-05
2.3684e-05
2.36857e-05
2.36872e-05
2.36885e-05
2.36898e-05
2.36911e-05
2.36922e-05
2.36932e-05
2.36941e-05
2.36949e-05
2.36956e-05
2.36963e-05
2.3697e-05
2.36976e-05
2.36982e-05
2.36987e-05
2.36992e-05
2.36996e-05
2.37001e-05
2.37005e-05
2.3701e-05
2.37014e-05
2.37017e-05
2.3702e-05
2.37023e-05
2.37025e-05
2.37026e-05
2.37028e-05
2.37029e-05
2.37032e-05
2.37035e-05
2.37038e-05
2.37041e-05
2.37045e-05
2.37048e-05
2.32403e-05
2.32424e-05
2.32443e-05
2.3246e-05
2.32476e-05
2.32489e-05
2.32502e-05
2.32514e-05
2.32525e-05
2.32535e-05
2.32544e-05
2.32553e-05
2.3256e-05
2.32566e-05
2.32572e-05
2.32578e-05
2.32583e-05
2.32589e-05
2.32593e-05
2.32598e-05
2.32602e-05
2.32606e-05
2.3261e-05
2.32614e-05
2.32618e-05
2.32621e-05
2.32623e-05
2.32625e-05
2.32626e-05
2.32627e-05
2.32629e-05
2.3263e-05
2.32633e-05
2.32636e-05
2.32639e-05
2.32642e-05
2.32646e-05
2.32649e-05
2.16206e-05
2.16217e-05
2.16228e-05
2.16237e-05
2.16245e-05
2.16252e-05
2.16258e-05
2.16263e-05
2.16269e-05
2.16274e-05
2.16279e-05
2.16282e-05
2.16285e-05
2.16287e-05
2.1629e-05
2.16292e-05
2.16295e-05
2.16298e-05
2.163e-05
2.16303e-05
2.16305e-05
2.16307e-05
2.1631e-05
2.16313e-05
2.16315e-05
2.16317e-05
2.16318e-05
2.16318e-05
2.16318e-05
2.16317e-05
2.16317e-05
2.16317e-05
2.16319e-05
2.16322e-05
2.16325e-05
2.16328e-05
2.16331e-05
2.16335e-05
1.54514e-05
1.54417e-05
1.54328e-05
1.54248e-05
1.54174e-05
1.54106e-05
1.54043e-05
1.53986e-05
1.53934e-05
1.53886e-05
1.53842e-05
1.53801e-05
1.53763e-05
1.53729e-05
1.53697e-05
1.53668e-05
1.53641e-05
1.53616e-05
1.53593e-05
1.53573e-05
1.53553e-05
1.53536e-05
1.5352e-05
1.53506e-05
1.53493e-05
1.53481e-05
1.5347e-05
1.5346e-05
1.5345e-05
1.53442e-05
1.53434e-05
1.53427e-05
1.5342e-05
1.53415e-05
1.53411e-05
1.53408e-05
1.53406e-05
1.53405e-05
1.58521e-05
1.58411e-05
1.5831e-05
1.58218e-05
1.58134e-05
1.58056e-05
1.57986e-05
1.57921e-05
1.57861e-05
1.57806e-05
1.57755e-05
1.57708e-05
1.57666e-05
1.57627e-05
1.57591e-05
1.57558e-05
1.57528e-05
1.575e-05
1.57474e-05
1.57451e-05
1.5743e-05
1.5741e-05
1.57392e-05
1.57376e-05
1.57362e-05
1.57349e-05
1.57336e-05
1.57325e-05
1.57315e-05
1.57306e-05
1.57298e-05
1.57291e-05
1.57285e-05
1.57279e-05
1.57275e-05
1.57271e-05
1.57268e-05
1.57265e-05
2.29192e-05
2.2919e-05
2.29188e-05
2.29187e-05
2.29186e-05
2.29185e-05
2.29184e-05
2.29183e-05
2.29182e-05
2.29181e-05
2.2918e-05
2.2918e-05
2.2918e-05
2.29179e-05
2.29179e-05
2.29179e-05
2.29179e-05
2.29179e-05
2.29179e-05
2.2918e-05
2.29181e-05
2.29182e-05
2.29183e-05
2.29184e-05
2.29185e-05
2.29185e-05
2.29185e-05
2.29185e-05
2.29185e-05
2.29185e-05
2.29186e-05
2.29187e-05
2.29188e-05
2.29189e-05
2.29191e-05
2.29192e-05
2.29192e-05
2.29193e-05
2.47388e-05
2.47396e-05
2.47404e-05
2.47412e-05
2.47419e-05
2.47426e-05
2.47432e-05
2.47438e-05
2.47444e-05
2.47449e-05
2.47453e-05
2.47458e-05
2.47463e-05
2.47467e-05
2.47471e-05
2.47474e-05
2.47478e-05
2.47481e-05
2.47484e-05
2.47487e-05
2.4749e-05
2.47493e-05
2.47496e-05
2.47499e-05
2.47502e-05
2.47504e-05
2.47505e-05
2.47507e-05
2.47508e-05
2.4751e-05
2.47511e-05
2.47513e-05
2.47515e-05
2.47517e-05
2.47518e-05
2.4752e-05
2.47521e-05
2.47522e-05
2.52562e-05
2.52573e-05
2.52582e-05
2.52592e-05
2.526e-05
2.52609e-05
2.52617e-05
2.52624e-05
2.52631e-05
2.52637e-05
2.52643e-05
2.52649e-05
2.52655e-05
2.5266e-05
2.52665e-05
2.52669e-05
2.52673e-05
2.52677e-05
2.52681e-05
2.52684e-05
2.52688e-05
2.52691e-05
2.52694e-05
2.52697e-05
2.527e-05
2.52703e-05
2.52705e-05
2.52707e-05
2.52709e-05
2.52711e-05
2.52713e-05
2.52714e-05
2.52716e-05
2.52718e-05
2.5272e-05
2.52721e-05
2.52723e-05
2.52724e-05
2.53948e-05
2.53959e-05
2.53969e-05
2.53978e-05
2.53988e-05
2.53996e-05
2.54004e-05
2.54012e-05
2.54019e-05
2.54026e-05
2.54032e-05
2.54039e-05
2.54045e-05
2.5405e-05
2.54055e-05
2.5406e-05
2.54064e-05
2.54068e-05
2.54072e-05
2.54075e-05
2.54079e-05
2.54082e-05
2.54085e-05
2.54088e-05
2.54091e-05
2.54094e-05
2.54097e-05
2.54099e-05
2.54101e-05
2.54103e-05
2.54105e-05
2.54106e-05
2.54108e-05
2.5411e-05
2.54111e-05
2.54113e-05
2.54115e-05
2.54116e-05
2.54269e-05
2.54279e-05
2.54289e-05
2.54298e-05
2.54307e-05
2.54315e-05
2.54323e-05
2.5433e-05
2.54337e-05
2.54344e-05
2.5435e-05
2.54356e-05
2.54362e-05
2.54367e-05
2.54371e-05
2.54376e-05
2.5438e-05
2.54383e-05
2.54387e-05
2.5439e-05
2.54394e-05
2.54397e-05
2.544e-05
2.54403e-05
2.54405e-05
2.54408e-05
2.54411e-05
2.54413e-05
2.54414e-05
2.54416e-05
2.54417e-05
2.54419e-05
2.54421e-05
2.54422e-05
2.54424e-05
2.54426e-05
2.54427e-05
2.54268e-05
2.54279e-05
2.54289e-05
2.54299e-05
2.54307e-05
2.54316e-05
2.54323e-05
2.54331e-05
2.54338e-05
2.54345e-05
2.54351e-05
2.54357e-05
2.54362e-05
2.54367e-05
2.54372e-05
2.54376e-05
2.5438e-05
2.54384e-05
2.54387e-05
2.54391e-05
2.54394e-05
2.54397e-05
2.544e-05
2.54403e-05
2.54406e-05
2.54408e-05
2.54411e-05
2.54413e-05
2.54414e-05
2.54416e-05
2.54417e-05
2.54419e-05
2.5442e-05
2.54422e-05
2.54424e-05
2.54426e-05
2.54427e-05
2.53957e-05
2.53968e-05
2.53978e-05
2.53988e-05
2.53997e-05
2.54005e-05
2.54013e-05
2.54021e-05
2.54028e-05
2.54035e-05
2.54041e-05
2.54047e-05
2.54052e-05
2.54057e-05
2.54061e-05
2.54066e-05
2.5407e-05
2.54073e-05
2.54077e-05
2.5408e-05
2.54083e-05
2.54086e-05
2.54089e-05
2.54092e-05
2.54095e-05
2.54097e-05
2.54099e-05
2.54101e-05
2.54103e-05
2.54104e-05
2.54105e-05
2.54107e-05
2.54108e-05
2.5411e-05
2.54112e-05
2.54114e-05
2.54116e-05
2.54117e-05
2.52571e-05
2.52582e-05
2.52592e-05
2.52601e-05
2.5261e-05
2.52618e-05
2.52626e-05
2.52633e-05
2.5264e-05
2.52647e-05
2.52653e-05
2.52658e-05
2.52663e-05
2.52668e-05
2.52672e-05
2.52676e-05
2.5268e-05
2.52683e-05
2.52686e-05
2.52689e-05
2.52692e-05
2.52695e-05
2.52698e-05
2.52701e-05
2.52703e-05
2.52706e-05
2.52708e-05
2.52709e-05
2.52711e-05
2.52712e-05
2.52713e-05
2.52714e-05
2.52716e-05
2.52717e-05
2.52719e-05
2.52721e-05
2.52723e-05
2.52725e-05
2.47395e-05
2.47403e-05
2.47412e-05
2.4742e-05
2.47428e-05
2.47434e-05
2.47441e-05
2.47447e-05
2.47453e-05
2.47458e-05
2.47463e-05
2.47467e-05
2.47471e-05
2.47475e-05
2.47478e-05
2.47481e-05
2.47484e-05
2.47487e-05
2.4749e-05
2.47493e-05
2.47495e-05
2.47498e-05
2.475e-05
2.47502e-05
2.47505e-05
2.47506e-05
2.47508e-05
2.47509e-05
2.47509e-05
2.4751e-05
2.47511e-05
2.47512e-05
2.47513e-05
2.47515e-05
2.47517e-05
2.47519e-05
2.47521e-05
2.47523e-05
2.29188e-05
2.29187e-05
2.29187e-05
2.29187e-05
2.29186e-05
2.29186e-05
2.29185e-05
2.29185e-05
2.29185e-05
2.29185e-05
2.29185e-05
2.29185e-05
2.29184e-05
2.29184e-05
2.29183e-05
2.29183e-05
2.29183e-05
2.29183e-05
2.29183e-05
2.29183e-05
2.29183e-05
2.29184e-05
2.29185e-05
2.29186e-05
2.29187e-05
2.29187e-05
2.29187e-05
2.29186e-05
2.29185e-05
2.29184e-05
2.29182e-05
2.29182e-05
2.29183e-05
2.29185e-05
2.29187e-05
2.29189e-05
2.29191e-05
2.29194e-05
1.58406e-05
1.58306e-05
1.58214e-05
1.58131e-05
1.58054e-05
1.57984e-05
1.57919e-05
1.5786e-05
1.57806e-05
1.57756e-05
1.5771e-05
1.57668e-05
1.57629e-05
1.57593e-05
1.5756e-05
1.5753e-05
1.57503e-05
1.57477e-05
1.57454e-05
1.57433e-05
1.57413e-05
1.57395e-05
1.57379e-05
1.57365e-05
1.57352e-05
1.57339e-05
1.57328e-05
1.57318e-05
1.57308e-05
1.57299e-05
1.57291e-05
1.57283e-05
1.57277e-05
1.57272e-05
1.57268e-05
1.57264e-05
1.57262e-05
1.57261e-05
1.60111e-05
1.59999e-05
1.59896e-05
1.59803e-05
1.59717e-05
1.59639e-05
1.59567e-05
1.59501e-05
1.5944e-05
1.59384e-05
1.59332e-05
1.59285e-05
1.59242e-05
1.59202e-05
1.59166e-05
1.59132e-05
1.59102e-05
1.59074e-05
1.59048e-05
1.59024e-05
1.59003e-05
1.58983e-05
1.58965e-05
1.58949e-05
1.58934e-05
1.58921e-05
1.58908e-05
1.58897e-05
1.58887e-05
1.58878e-05
1.5887e-05
1.58862e-05
1.58856e-05
1.58851e-05
1.58846e-05
1.58843e-05
1.58839e-05
1.58837e-05
2.35277e-05
2.35267e-05
2.35257e-05
2.35249e-05
2.35242e-05
2.35235e-05
2.35229e-05
2.35224e-05
2.35219e-05
2.35215e-05
2.35211e-05
2.35207e-05
2.35205e-05
2.35202e-05
2.352e-05
2.35197e-05
2.35195e-05
2.35193e-05
2.35192e-05
2.35191e-05
2.3519e-05
2.3519e-05
2.3519e-05
2.3519e-05
2.35189e-05
2.35189e-05
2.35188e-05
2.35187e-05
2.35186e-05
2.35186e-05
2.35186e-05
2.35186e-05
2.35186e-05
2.35187e-05
2.35188e-05
2.35188e-05
2.35188e-05
2.35188e-05
2.54891e-05
2.54891e-05
2.54892e-05
2.54892e-05
2.54894e-05
2.54895e-05
2.54897e-05
2.54898e-05
2.549e-05
2.54902e-05
2.54903e-05
2.54905e-05
2.54907e-05
2.54909e-05
2.54911e-05
2.54912e-05
2.54914e-05
2.54915e-05
2.54917e-05
2.54918e-05
2.5492e-05
2.54922e-05
2.54923e-05
2.54925e-05
2.54926e-05
2.54927e-05
2.54928e-05
2.54929e-05
2.5493e-05
2.54931e-05
2.54931e-05
2.54932e-05
2.54933e-05
2.54934e-05
2.54935e-05
2.54936e-05
2.54937e-05
2.54938e-05
2.60659e-05
2.60661e-05
2.60663e-05
2.60666e-05
2.60669e-05
2.60672e-05
2.60675e-05
2.60678e-05
2.60681e-05
2.60684e-05
2.60687e-05
2.6069e-05
2.60693e-05
2.60696e-05
2.60699e-05
2.60701e-05
2.60703e-05
2.60706e-05
2.60708e-05
2.6071e-05
2.60712e-05
2.60714e-05
2.60716e-05
2.60718e-05
2.6072e-05
2.60721e-05
2.60723e-05
2.60724e-05
2.60725e-05
2.60726e-05
2.60727e-05
2.60728e-05
2.6073e-05
2.60731e-05
2.60732e-05
2.60733e-05
2.60734e-05
2.60735e-05
2.62302e-05
2.62304e-05
2.62307e-05
2.6231e-05
2.62313e-05
2.62317e-05
2.6232e-05
2.62324e-05
2.62327e-05
2.62331e-05
2.62334e-05
2.62338e-05
2.62341e-05
2.62344e-05
2.62347e-05
2.6235e-05
2.62352e-05
2.62355e-05
2.62357e-05
2.62359e-05
2.62362e-05
2.62364e-05
2.62366e-05
2.62368e-05
2.62369e-05
2.62371e-05
2.62373e-05
2.62374e-05
2.62376e-05
2.62377e-05
2.62378e-05
2.62379e-05
2.6238e-05
2.62381e-05
2.62382e-05
2.62383e-05
2.62384e-05
2.62385e-05
2.62699e-05
2.62701e-05
2.62705e-05
2.62708e-05
2.62712e-05
2.62716e-05
2.62719e-05
2.62723e-05
2.62726e-05
2.6273e-05
2.62734e-05
2.62737e-05
2.6274e-05
2.62743e-05
2.62746e-05
2.62748e-05
2.62751e-05
2.62753e-05
2.62755e-05
2.62758e-05
2.6276e-05
2.62762e-05
2.62764e-05
2.62765e-05
2.62767e-05
2.62769e-05
2.6277e-05
2.62772e-05
2.62773e-05
2.62774e-05
2.62775e-05
2.62776e-05
2.62777e-05
2.62778e-05
2.62779e-05
2.62781e-05
2.62782e-05
2.62698e-05
2.62701e-05
2.62705e-05
2.62708e-05
2.62712e-05
2.62716e-05
2.62719e-05
2.62723e-05
2.62727e-05
2.62731e-05
2.62734e-05
2.62737e-05
2.62741e-05
2.62743e-05
2.62746e-05
2.62749e-05
2.62751e-05
2.62754e-05
2.62756e-05
2.62758e-05
2.6276e-05
2.62762e-05
2.62764e-05
2.62765e-05
2.62767e-05
2.62769e-05
2.62771e-05
2.62772e-05
2.62773e-05
2.62774e-05
2.62775e-05
2.62776e-05
2.62777e-05
2.62778e-05
2.62779e-05
2.6278e-05
2.62782e-05
2.62303e-05
2.62306e-05
2.6231e-05
2.62314e-05
2.62317e-05
2.62321e-05
2.62325e-05
2.62328e-05
2.62332e-05
2.62336e-05
2.62339e-05
2.62342e-05
2.62345e-05
2.62348e-05
2.62351e-05
2.62353e-05
2.62356e-05
2.62358e-05
2.6236e-05
2.62362e-05
2.62364e-05
2.62366e-05
2.62368e-05
2.6237e-05
2.62371e-05
2.62373e-05
2.62375e-05
2.62376e-05
2.62377e-05
2.62378e-05
2.62378e-05
2.62379e-05
2.6238e-05
2.62382e-05
2.62383e-05
2.62384e-05
2.62385e-05
2.62386e-05
2.6066e-05
2.60662e-05
2.60666e-05
2.60669e-05
2.60673e-05
2.60676e-05
2.60679e-05
2.60683e-05
2.60686e-05
2.60689e-05
2.60693e-05
2.60695e-05
2.60698e-05
2.607e-05
2.60703e-05
2.60705e-05
2.60707e-05
2.60709e-05
2.60711e-05
2.60713e-05
2.60715e-05
2.60717e-05
2.60718e-05
2.6072e-05
2.60722e-05
2.60723e-05
2.60724e-05
2.60725e-05
2.60726e-05
2.60727e-05
2.60727e-05
2.60728e-05
2.60729e-05
2.6073e-05
2.60732e-05
2.60733e-05
2.60734e-05
2.60735e-05
2.5489e-05
2.54891e-05
2.54893e-05
2.54895e-05
2.54896e-05
2.54898e-05
2.549e-05
2.54902e-05
2.54904e-05
2.54907e-05
2.54908e-05
2.5491e-05
2.54912e-05
2.54913e-05
2.54915e-05
2.54916e-05
2.54918e-05
2.54919e-05
2.5492e-05
2.54921e-05
2.54923e-05
2.54924e-05
2.54925e-05
2.54927e-05
2.54928e-05
2.54929e-05
2.54929e-05
2.5493e-05
2.5493e-05
2.5493e-05
2.5493e-05
2.54931e-05
2.54932e-05
2.54933e-05
2.54934e-05
2.54936e-05
2.54937e-05
2.54938e-05
2.35265e-05
2.35257e-05
2.35249e-05
2.35243e-05
2.35237e-05
2.35231e-05
2.35226e-05
2.35222e-05
2.35218e-05
2.35215e-05
2.35212e-05
2.35209e-05
2.35206e-05
2.35203e-05
2.35201e-05
2.35198e-05
2.35197e-05
2.35195e-05
2.35194e-05
2.35192e-05
2.35191e-05
2.35191e-05
2.35191e-05
2.35191e-05
2.3519e-05
2.3519e-05
2.35189e-05
2.35187e-05
2.35185e-05
2.35183e-05
2.35181e-05
2.3518e-05
2.35181e-05
2.35182e-05
2.35184e-05
2.35185e-05
2.35187e-05
2.35189e-05
1.59994e-05
1.59892e-05
1.59799e-05
1.59715e-05
1.59637e-05
1.59565e-05
1.59499e-05
1.59439e-05
1.59384e-05
1.59334e-05
1.59288e-05
1.59245e-05
1.59205e-05
1.59169e-05
1.59135e-05
1.59105e-05
1.59077e-05
1.59051e-05
1.59027e-05
1.59006e-05
1.58986e-05
1.58968e-05
1.58952e-05
1.58938e-05
1.58924e-05
1.58912e-05
1.589e-05
1.5889e-05
1.5888e-05
1.58871e-05
1.58862e-05
1.58855e-05
1.58848e-05
1.58843e-05
1.58839e-05
1.58835e-05
1.58833e-05
1.58832e-05
1.60758e-05
1.60646e-05
1.60543e-05
1.60449e-05
1.60363e-05
1.60285e-05
1.60212e-05
1.60146e-05
1.60085e-05
1.60029e-05
1.59977e-05
1.59929e-05
1.59886e-05
1.59846e-05
1.5981e-05
1.59777e-05
1.59746e-05
1.59718e-05
1.59692e-05
1.59668e-05
1.59647e-05
1.59627e-05
1.59609e-05
1.59593e-05
1.59578e-05
1.59565e-05
1.59552e-05
1.59541e-05
1.59531e-05
1.59522e-05
1.59513e-05
1.59506e-05
1.595e-05
1.59494e-05
1.5949e-05
1.59486e-05
1.59483e-05
1.5948e-05
2.38121e-05
2.38105e-05
2.38091e-05
2.38078e-05
2.38067e-05
2.38057e-05
2.38048e-05
2.3804e-05
2.38033e-05
2.38026e-05
2.3802e-05
2.38015e-05
2.3801e-05
2.38006e-05
2.38002e-05
2.37998e-05
2.37995e-05
2.37992e-05
2.37989e-05
2.37987e-05
2.37985e-05
2.37984e-05
2.37984e-05
2.37983e-05
2.37982e-05
2.37981e-05
2.3798e-05
2.37979e-05
2.37978e-05
2.37977e-05
2.37976e-05
2.37976e-05
2.37976e-05
2.37976e-05
2.37976e-05
2.37976e-05
2.37976e-05
2.37976e-05
2.58759e-05
2.58753e-05
2.58748e-05
2.58745e-05
2.58742e-05
2.5874e-05
2.58738e-05
2.58737e-05
2.58736e-05
2.58735e-05
2.58735e-05
2.58734e-05
2.58734e-05
2.58734e-05
2.58735e-05
2.58735e-05
2.58735e-05
2.58735e-05
2.58736e-05
2.58736e-05
2.58737e-05
2.58738e-05
2.58738e-05
2.58739e-05
2.5874e-05
2.5874e-05
2.58741e-05
2.58741e-05
2.58741e-05
2.58742e-05
2.58742e-05
2.58743e-05
2.58743e-05
2.58744e-05
2.58744e-05
2.58745e-05
2.58745e-05
2.58746e-05
2.64984e-05
2.64979e-05
2.64976e-05
2.64975e-05
2.64973e-05
2.64973e-05
2.64973e-05
2.64973e-05
2.64974e-05
2.64974e-05
2.64975e-05
2.64976e-05
2.64977e-05
2.64978e-05
2.6498e-05
2.64981e-05
2.64982e-05
2.64983e-05
2.64984e-05
2.64985e-05
2.64986e-05
2.64987e-05
2.64989e-05
2.6499e-05
2.64991e-05
2.64991e-05
2.64992e-05
2.64993e-05
2.64994e-05
2.64994e-05
2.64995e-05
2.64996e-05
2.64996e-05
2.64997e-05
2.64998e-05
2.64998e-05
2.64999e-05
2.64999e-05
2.6683e-05
2.66826e-05
2.66824e-05
2.66822e-05
2.66822e-05
2.66822e-05
2.66822e-05
2.66822e-05
2.66823e-05
2.66824e-05
2.66826e-05
2.66827e-05
2.66829e-05
2.6683e-05
2.66831e-05
2.66833e-05
2.66834e-05
2.66836e-05
2.66837e-05
2.66838e-05
2.66839e-05
2.66841e-05
2.66842e-05
2.66843e-05
2.66844e-05
2.66845e-05
2.66846e-05
2.66847e-05