/*--------------------------------*- C++ -*----------------------------------*\
| =========                 |                                                 |
| \\      /  F ield         | OpenFOAM: The Open Source CFD Toolbox           |
|  \\    /   O peration     | Version:  2.3.1                                 |
|   \\  /    A nd           | Web:      www.OpenFOAM.org                      |
|    \\/     M anipulation  |                                                 |
\*---------------------------------------------------------------------------*/
FoamFile
{
    version     2.0;
    format      ascii;
    class       volScalarField;
    location    "5";
    object      nut;
}
// * * * * * * * * * * * * * * * * * * * * * * * * * * * * * * * * * * * * * //

dimensions      [0 2 -1 0 0 0 0];

internalField   nonuniform List<scalar> 
38262
(
3.90797e-06
3.90549e-06
3.90324e-06
3.90118e-06
3.89929e-06
3.89756e-06
3.89598e-06
3.89452e-06
3.89318e-06
3.89195e-06
3.89081e-06
3.88976e-06
3.8888e-06
3.88791e-06
3.88709e-06
3.88634e-06
3.88565e-06
3.88501e-06
3.88443e-06
3.88389e-06
3.8834e-06
3.88295e-06
3.88254e-06
3.88217e-06
3.88184e-06
3.88154e-06
3.88126e-06
3.88101e-06
3.88078e-06
3.88057e-06
3.88039e-06
3.88022e-06
3.88007e-06
3.87995e-06
3.87984e-06
3.87976e-06
3.87969e-06
3.87964e-06
4.23967e-06
4.23736e-06
4.23525e-06
4.23332e-06
4.23156e-06
4.22994e-06
4.22846e-06
4.22709e-06
4.22584e-06
4.22468e-06
4.22361e-06
4.22263e-06
4.22173e-06
4.2209e-06
4.22014e-06
4.21944e-06
4.2188e-06
4.21821e-06
4.21766e-06
4.21717e-06
4.21672e-06
4.21631e-06
4.21595e-06
4.21562e-06
4.21532e-06
4.21505e-06
4.2148e-06
4.21457e-06
4.21436e-06
4.21417e-06
4.21401e-06
4.21387e-06
4.21375e-06
4.21366e-06
4.21358e-06
4.21353e-06
4.21348e-06
4.21345e-06
4.32581e-06
4.32371e-06
4.32179e-06
4.32004e-06
4.31843e-06
4.31696e-06
4.31561e-06
4.31437e-06
4.31323e-06
4.31217e-06
4.3112e-06
4.31031e-06
4.30949e-06
4.30875e-06
4.30806e-06
4.30743e-06
4.30684e-06
4.30631e-06
4.30582e-06
4.30538e-06
4.30497e-06
4.30461e-06
4.30428e-06
4.30398e-06
4.30371e-06
4.30347e-06
4.30325e-06
4.30305e-06
4.30286e-06
4.3027e-06
4.30256e-06
4.30243e-06
4.30233e-06
4.30225e-06
4.30218e-06
4.30214e-06
4.3021e-06
4.30207e-06
4.34415e-06
4.3421e-06
4.34023e-06
4.33851e-06
4.33694e-06
4.33549e-06
4.33417e-06
4.33296e-06
4.33183e-06
4.3308e-06
4.32985e-06
4.32899e-06
4.3282e-06
4.32748e-06
4.32681e-06
4.32619e-06
4.32562e-06
4.3251e-06
4.32462e-06
4.32418e-06
4.32379e-06
4.32343e-06
4.32311e-06
4.32281e-06
4.32255e-06
4.32232e-06
4.3221e-06
4.32191e-06
4.32174e-06
4.32158e-06
4.32144e-06
4.32132e-06
4.32121e-06
4.32113e-06
4.32107e-06
4.32102e-06
4.32098e-06
4.32096e-06
4.34737e-06
4.34533e-06
4.34346e-06
4.34174e-06
4.34017e-06
4.33874e-06
4.33741e-06
4.3362e-06
4.33508e-06
4.33405e-06
4.33311e-06
4.33226e-06
4.33147e-06
4.33075e-06
4.33008e-06
4.32947e-06
4.3289e-06
4.32838e-06
4.3279e-06
4.32747e-06
4.32707e-06
4.32671e-06
4.32638e-06
4.32608e-06
4.32582e-06
4.32559e-06
4.32538e-06
4.3252e-06
4.32503e-06
4.32487e-06
4.32473e-06
4.3246e-06
4.32449e-06
4.3244e-06
4.32433e-06
4.32429e-06
4.32425e-06
4.32423e-06
4.3458e-06
4.34393e-06
4.34222e-06
4.34065e-06
4.33922e-06
4.33789e-06
4.33668e-06
4.33556e-06
4.33453e-06
4.3336e-06
4.33275e-06
4.33196e-06
4.33124e-06
4.33058e-06
4.32997e-06
4.3294e-06
4.32888e-06
4.3284e-06
4.32796e-06
4.32756e-06
4.3272e-06
4.32686e-06
4.32656e-06
4.3263e-06
4.32606e-06
4.32586e-06
4.32568e-06
4.32552e-06
4.32536e-06
4.32522e-06
4.32508e-06
4.32496e-06
4.32487e-06
4.3248e-06
4.32475e-06
4.32472e-06
4.3247e-06
4.34578e-06
4.3439e-06
4.3422e-06
4.34064e-06
4.33921e-06
4.33789e-06
4.33667e-06
4.33556e-06
4.33454e-06
4.33362e-06
4.33276e-06
4.33198e-06
4.33126e-06
4.3306e-06
4.32999e-06
4.32942e-06
4.3289e-06
4.32842e-06
4.32798e-06
4.32758e-06
4.32721e-06
4.32688e-06
4.32657e-06
4.32631e-06
4.32608e-06
4.32587e-06
4.3257e-06
4.32553e-06
4.32537e-06
4.32522e-06
4.32508e-06
4.32496e-06
4.32486e-06
4.32478e-06
4.32473e-06
4.3247e-06
4.32469e-06
4.34526e-06
4.34339e-06
4.34169e-06
4.34014e-06
4.33872e-06
4.3374e-06
4.33619e-06
4.33509e-06
4.33408e-06
4.33315e-06
4.3323e-06
4.33152e-06
4.3308e-06
4.33013e-06
4.32952e-06
4.32896e-06
4.32844e-06
4.32796e-06
4.32752e-06
4.32712e-06
4.32675e-06
4.32641e-06
4.32611e-06
4.32585e-06
4.32562e-06
4.32541e-06
4.32523e-06
4.32506e-06
4.3249e-06
4.32474e-06
4.3246e-06
4.32447e-06
4.32437e-06
4.32429e-06
4.32424e-06
4.32421e-06
4.3242e-06
4.32421e-06
4.34201e-06
4.34014e-06
4.33844e-06
4.33689e-06
4.33547e-06
4.33416e-06
4.33295e-06
4.33184e-06
4.33083e-06
4.32991e-06
4.32906e-06
4.32828e-06
4.32756e-06
4.32688e-06
4.32627e-06
4.3257e-06
4.32518e-06
4.32471e-06
4.32427e-06
4.32386e-06
4.32349e-06
4.32316e-06
4.32286e-06
4.3226e-06
4.32236e-06
4.32215e-06
4.32196e-06
4.32179e-06
4.32162e-06
4.32146e-06
4.32131e-06
4.32118e-06
4.32107e-06
4.321e-06
4.32094e-06
4.32091e-06
4.3209e-06
4.32092e-06
4.32361e-06
4.3217e-06
4.31996e-06
4.31838e-06
4.31692e-06
4.31559e-06
4.31435e-06
4.31323e-06
4.31219e-06
4.31125e-06
4.31039e-06
4.30959e-06
4.30884e-06
4.30815e-06
4.30752e-06
4.30694e-06
4.30641e-06
4.30593e-06
4.30548e-06
4.30507e-06
4.30469e-06
4.30435e-06
4.30405e-06
4.30377e-06
4.30353e-06
4.30331e-06
4.30311e-06
4.30292e-06
4.30274e-06
4.30258e-06
4.30242e-06
4.30229e-06
4.30218e-06
4.3021e-06
4.30204e-06
4.30201e-06
4.30199e-06
4.30202e-06
4.23725e-06
4.23514e-06
4.23323e-06
4.23148e-06
4.22987e-06
4.2284e-06
4.22704e-06
4.2258e-06
4.22466e-06
4.22362e-06
4.22266e-06
4.22178e-06
4.22096e-06
4.22021e-06
4.21951e-06
4.21887e-06
4.21829e-06
4.21775e-06
4.21726e-06
4.21681e-06
4.21639e-06
4.21602e-06
4.21568e-06
4.21539e-06
4.21512e-06
4.21487e-06
4.21465e-06
4.21443e-06
4.21423e-06
4.21404e-06
4.21387e-06
4.21372e-06
4.21359e-06
4.2135e-06
4.21342e-06
4.21338e-06
4.21335e-06
4.21337e-06
3.90541e-06
3.90314e-06
3.90108e-06
3.89919e-06
3.89747e-06
3.89589e-06
3.89444e-06
3.89311e-06
3.89189e-06
3.89077e-06
3.88974e-06
3.8888e-06
3.88793e-06
3.88713e-06
3.88638e-06
3.8857e-06
3.88507e-06
3.88449e-06
3.88396e-06
3.88347e-06
3.88302e-06
3.88261e-06
3.88224e-06
3.8819e-06
3.8816e-06
3.88132e-06
3.88107e-06
3.88084e-06
3.88063e-06
3.88043e-06
3.88024e-06
3.88007e-06
3.87992e-06
3.87979e-06
3.87969e-06
3.87961e-06
3.87956e-06
3.87954e-06
9.56786e-06
9.56463e-06
9.56167e-06
9.55896e-06
9.55647e-06
9.55419e-06
9.55209e-06
9.55015e-06
9.54837e-06
9.54672e-06
9.5452e-06
9.54381e-06
9.54253e-06
9.54135e-06
9.54028e-06
9.53929e-06
9.53838e-06
9.53754e-06
9.53677e-06
9.53607e-06
9.53543e-06
9.53485e-06
9.53433e-06
9.53385e-06
9.53342e-06
9.53303e-06
9.53267e-06
9.53234e-06
9.53205e-06
9.53178e-06
9.53155e-06
9.53134e-06
9.53117e-06
9.53102e-06
9.53089e-06
9.53078e-06
9.53069e-06
9.53061e-06
2.07574e-05
2.07831e-05
2.08062e-05
2.08272e-05
2.08462e-05
2.08635e-05
2.08791e-05
2.08932e-05
2.0906e-05
2.09177e-05
2.09283e-05
2.09383e-05
2.09476e-05
2.09562e-05
2.09641e-05
2.09715e-05
2.09783e-05
2.09846e-05
2.09906e-05
2.09962e-05
2.10016e-05
2.10067e-05
2.10116e-05
2.1016e-05
2.10199e-05
2.10233e-05
2.10262e-05
2.10287e-05
2.10311e-05
2.10335e-05
2.1036e-05
2.10385e-05
2.1041e-05
2.10434e-05
2.10456e-05
2.10475e-05
2.1049e-05
2.10502e-05
2.50506e-05
2.50871e-05
2.51198e-05
2.51495e-05
2.51764e-05
2.52009e-05
2.52231e-05
2.52433e-05
2.52616e-05
2.52783e-05
2.52937e-05
2.53082e-05
2.53216e-05
2.5334e-05
2.53453e-05
2.53557e-05
2.53653e-05
2.53744e-05
2.53829e-05
2.53909e-05
2.53986e-05
2.54059e-05
2.54126e-05
2.54188e-05
2.54244e-05
2.54293e-05
2.54336e-05
2.54374e-05
2.5441e-05
2.54445e-05
2.5448e-05
2.54514e-05
2.54548e-05
2.54581e-05
2.54612e-05
2.54638e-05
2.54659e-05
2.54675e-05
2.62201e-05
2.62593e-05
2.62943e-05
2.6326e-05
2.63548e-05
2.6381e-05
2.64049e-05
2.64266e-05
2.64463e-05
2.64644e-05
2.64813e-05
2.64972e-05
2.6512e-05
2.65254e-05
2.65376e-05
2.65487e-05
2.6559e-05
2.65687e-05
2.65777e-05
2.65862e-05
2.65943e-05
2.6602e-05
2.6609e-05
2.66156e-05
2.66217e-05
2.66273e-05
2.66322e-05
2.66366e-05
2.66407e-05
2.66444e-05
2.6648e-05
2.66513e-05
2.66547e-05
2.66582e-05
2.66615e-05
2.66645e-05
2.66669e-05
2.66687e-05
2.64719e-05
2.65113e-05
2.65465e-05
2.65785e-05
2.66075e-05
2.66338e-05
2.66577e-05
2.66794e-05
2.66993e-05
2.67178e-05
2.67352e-05
2.67514e-05
2.67664e-05
2.67799e-05
2.67922e-05
2.68034e-05
2.68137e-05
2.68233e-05
2.68321e-05
2.68405e-05
2.68485e-05
2.68559e-05
2.68628e-05
2.68692e-05
2.68754e-05
2.68813e-05
2.68868e-05
2.68916e-05
2.68958e-05
2.68995e-05
2.69027e-05
2.69057e-05
2.69089e-05
2.69122e-05
2.69156e-05
2.69187e-05
2.69213e-05
2.69235e-05
2.65554e-05
2.65908e-05
2.6623e-05
2.66521e-05
2.66784e-05
2.67021e-05
2.67238e-05
2.67438e-05
2.67626e-05
2.67802e-05
2.67964e-05
2.68112e-05
2.68247e-05
2.6837e-05
2.68482e-05
2.68585e-05
2.68679e-05
2.68764e-05
2.68845e-05
2.68923e-05
2.68995e-05
2.69061e-05
2.69123e-05
2.69185e-05
2.69247e-05
2.69304e-05
2.69355e-05
2.69398e-05
2.69432e-05
2.69461e-05
2.69488e-05
2.69517e-05
2.69549e-05
2.69583e-05
2.69615e-05
2.69645e-05
2.69669e-05
2.65544e-05
2.65902e-05
2.66229e-05
2.66525e-05
2.6679e-05
2.67028e-05
2.67246e-05
2.6745e-05
2.6764e-05
2.67817e-05
2.67979e-05
2.68126e-05
2.68259e-05
2.6838e-05
2.68492e-05
2.68595e-05
2.68688e-05
2.68773e-05
2.68852e-05
2.68928e-05
2.68998e-05
2.69063e-05
2.69125e-05
2.69187e-05
2.69249e-05
2.69307e-05
2.69358e-05
2.69399e-05
2.69432e-05
2.69458e-05
2.69483e-05
2.69511e-05
2.69542e-05
2.69576e-05
2.6961e-05
2.69642e-05
2.69669e-05
2.65089e-05
2.65453e-05
2.65785e-05
2.66086e-05
2.66356e-05
2.66598e-05
2.6682e-05
2.67026e-05
2.67218e-05
2.67396e-05
2.67558e-05
2.67704e-05
2.67835e-05
2.67954e-05
2.68064e-05
2.68167e-05
2.68261e-05
2.68347e-05
2.68426e-05
2.68501e-05
2.6857e-05
2.68635e-05
2.68698e-05
2.6876e-05
2.6882e-05
2.68875e-05
2.68923e-05
2.68963e-05
2.68993e-05
2.69018e-05
2.69042e-05
2.69069e-05
2.691e-05
2.69135e-05
2.6917e-05
2.69204e-05
2.69234e-05
2.69259e-05
2.62565e-05
2.6293e-05
2.63264e-05
2.63567e-05
2.63839e-05
2.64083e-05
2.64305e-05
2.64511e-05
2.64703e-05
2.6488e-05
2.6504e-05
2.65183e-05
2.6531e-05
2.65426e-05
2.65533e-05
2.65635e-05
2.6573e-05
2.65817e-05
2.65896e-05
2.65969e-05
2.66037e-05
2.66103e-05
2.66166e-05
2.66227e-05
2.66283e-05
2.66333e-05
2.66377e-05
2.66412e-05
2.66441e-05
2.66464e-05
2.66487e-05
2.66513e-05
2.66545e-05
2.66581e-05
2.66617e-05
2.66652e-05
2.66685e-05
2.66713e-05
2.50848e-05
2.51189e-05
2.51502e-05
2.51787e-05
2.52042e-05
2.5227e-05
2.52477e-05
2.52669e-05
2.52848e-05
2.53011e-05
2.53159e-05
2.53291e-05
2.53408e-05
2.53513e-05
2.53612e-05
2.53706e-05
2.53795e-05
2.53876e-05
2.5395e-05
2.54017e-05
2.54081e-05
2.54141e-05
2.542e-05
2.54255e-05
2.54304e-05
2.54347e-05
2.54384e-05
2.54413e-05
2.54438e-05
2.54459e-05
2.5448e-05
2.54505e-05
2.54535e-05
2.54569e-05
2.54604e-05
2.54637e-05
2.54671e-05
2.54699e-05
2.07816e-05
2.08057e-05
2.08278e-05
2.08478e-05
2.08657e-05
2.08816e-05
2.08961e-05
2.09095e-05
2.0922e-05
2.09334e-05
2.09437e-05
2.09528e-05
2.0961e-05
2.09684e-05
2.09752e-05
2.09817e-05
2.0988e-05
2.09937e-05
2.09989e-05
2.10037e-05
2.10082e-05
2.10124e-05
2.10166e-05
2.10205e-05
2.1024e-05
2.1027e-05
2.10293e-05
2.10312e-05
2.10328e-05
2.10342e-05
2.10356e-05
2.10373e-05
2.10395e-05
2.10421e-05
2.10446e-05
2.10472e-05
2.10496e-05
2.10517e-05
9.56448e-06
9.56153e-06
9.55884e-06
9.55639e-06
9.55413e-06
9.55205e-06
9.55013e-06
9.54838e-06
9.54678e-06
9.54531e-06
9.54395e-06
9.5427e-06
9.54154e-06
9.54047e-06
9.53949e-06
9.53858e-06
9.53775e-06
9.53698e-06
9.53627e-06
9.53561e-06
9.53501e-06
9.53446e-06
9.53397e-06
9.53353e-06
9.53312e-06
9.53275e-06
9.5324e-06
9.53207e-06
9.53178e-06
9.5315e-06
9.53126e-06
9.53104e-06
9.53087e-06
9.53073e-06
9.53064e-06
9.53056e-06
9.53051e-06
9.53047e-06
9.92885e-06
9.92543e-06
9.9223e-06
9.91945e-06
9.91683e-06
9.91444e-06
9.91224e-06
9.91021e-06
9.90835e-06
9.90664e-06
9.90506e-06
9.9036e-06
9.90227e-06
9.90105e-06
9.89992e-06
9.89889e-06
9.89793e-06
9.89706e-06
9.89625e-06
9.89552e-06
9.89484e-06
9.89423e-06
9.89368e-06
9.89318e-06
9.89272e-06
9.8923e-06
9.89192e-06
9.89157e-06
9.89126e-06
9.89097e-06
9.89072e-06
9.8905e-06
9.8903e-06
9.89014e-06
9.89e-06
9.88988e-06
9.88978e-06
9.8897e-06
3.4879e-05
3.49047e-05
3.49277e-05
3.49485e-05
3.49674e-05
3.49845e-05
3.5e-05
3.50139e-05
3.50266e-05
3.50381e-05
3.50487e-05
3.50585e-05
3.50677e-05
3.50762e-05
3.50841e-05
3.50913e-05
3.5098e-05
3.51042e-05
3.51101e-05
3.51156e-05
3.51211e-05
3.51264e-05
3.51314e-05
3.5136e-05
3.514e-05
3.51433e-05
3.51461e-05
3.51485e-05
3.51508e-05
3.51531e-05
3.51556e-05
3.51582e-05
3.51609e-05
3.51636e-05
3.51661e-05
3.51682e-05
3.51699e-05
3.51713e-05
4.796e-05
4.80048e-05
4.8045e-05
4.80813e-05
4.81143e-05
4.81443e-05
4.81715e-05
4.81962e-05
4.82185e-05
4.82389e-05
4.82578e-05
4.82753e-05
4.82917e-05
4.83067e-05
4.83205e-05
4.83331e-05
4.83448e-05
4.83558e-05
4.8366e-05
4.83757e-05
4.8385e-05
4.83938e-05
4.8402e-05
4.84095e-05
4.84164e-05
4.84224e-05
4.84277e-05
4.84324e-05
4.84368e-05
4.84411e-05
4.84453e-05
4.84495e-05
4.84537e-05
4.84578e-05
4.84617e-05
4.8465e-05
4.84678e-05
4.84701e-05
5.22747e-05
5.23273e-05
5.23743e-05
5.24169e-05
5.24554e-05
5.24905e-05
5.25224e-05
5.25514e-05
5.25778e-05
5.2602e-05
5.26245e-05
5.26456e-05
5.26651e-05
5.26829e-05
5.26991e-05
5.27139e-05
5.27276e-05
5.27404e-05
5.27523e-05
5.27636e-05
5.27742e-05
5.27843e-05
5.27936e-05
5.28023e-05
5.28103e-05
5.28177e-05
5.28243e-05
5.28303e-05
5.28357e-05
5.28408e-05
5.28456e-05
5.28501e-05
5.28547e-05
5.28593e-05
5.28637e-05
5.28677e-05
5.28711e-05
5.28738e-05
5.33458e-05
5.34001e-05
5.34488e-05
5.34929e-05
5.35329e-05
5.35691e-05
5.36021e-05
5.3632e-05
5.36594e-05
5.36848e-05
5.37085e-05
5.37306e-05
5.37509e-05
5.37694e-05
5.37862e-05
5.38015e-05
5.38157e-05
5.38288e-05
5.38409e-05
5.38523e-05
5.38631e-05
5.38733e-05
5.38826e-05
5.38913e-05
5.38997e-05
5.39077e-05
5.39151e-05
5.39217e-05
5.39275e-05
5.39326e-05
5.39372e-05
5.39415e-05
5.39459e-05
5.39505e-05
5.3955e-05
5.39593e-05
5.39631e-05
5.39663e-05
5.36088e-05
5.3658e-05
5.37026e-05
5.3743e-05
5.37795e-05
5.38125e-05
5.38426e-05
5.38703e-05
5.38962e-05
5.39203e-05
5.39426e-05
5.39629e-05
5.39814e-05
5.39983e-05
5.40138e-05
5.40279e-05
5.40409e-05
5.40528e-05
5.4064e-05
5.40746e-05
5.40845e-05
5.40936e-05
5.41022e-05
5.41106e-05
5.41189e-05
5.41267e-05
5.41336e-05
5.41395e-05
5.41444e-05
5.41486e-05
5.41526e-05
5.41567e-05
5.41612e-05
5.41658e-05
5.41703e-05
5.41744e-05
5.4178e-05
5.36077e-05
5.36573e-05
5.37025e-05
5.37434e-05
5.37802e-05
5.38133e-05
5.38436e-05
5.38717e-05
5.38979e-05
5.39221e-05
5.39444e-05
5.39645e-05
5.39829e-05
5.39996e-05
5.4015e-05
5.40292e-05
5.40421e-05
5.40539e-05
5.40649e-05
5.40753e-05
5.4085e-05
5.40939e-05
5.41025e-05
5.4111e-05
5.41193e-05
5.4127e-05
5.41339e-05
5.41397e-05
5.41444e-05
5.41483e-05
5.4152e-05
5.4156e-05
5.41603e-05
5.41649e-05
5.41696e-05
5.4174e-05
5.41779e-05
5.33973e-05
5.34472e-05
5.34928e-05
5.35341e-05
5.35712e-05
5.36046e-05
5.3635e-05
5.36633e-05
5.36895e-05
5.37138e-05
5.37358e-05
5.37558e-05
5.37737e-05
5.37901e-05
5.38052e-05
5.38193e-05
5.38322e-05
5.3844e-05
5.38549e-05
5.38651e-05
5.38746e-05
5.38836e-05
5.38922e-05
5.39006e-05
5.39086e-05
5.39161e-05
5.39226e-05
5.39281e-05
5.39325e-05
5.39361e-05
5.39396e-05
5.39435e-05
5.39478e-05
5.39525e-05
5.39572e-05
5.39618e-05
5.39661e-05
5.39699e-05
5.2324e-05
5.23727e-05
5.24171e-05
5.24575e-05
5.24938e-05
5.25263e-05
5.2556e-05
5.25834e-05
5.26088e-05
5.26322e-05
5.26535e-05
5.26725e-05
5.26896e-05
5.2705e-05
5.27194e-05
5.27329e-05
5.27456e-05
5.27571e-05
5.27676e-05
5.27773e-05
5.27865e-05
5.27952e-05
5.28036e-05
5.28117e-05
5.28191e-05
5.28258e-05
5.28316e-05
5.28365e-05
5.28404e-05
5.28438e-05
5.28471e-05
5.28507e-05
5.28549e-05
5.28596e-05
5.28643e-05
5.2869e-05
5.28734e-05
5.28776e-05
4.8002e-05
4.80438e-05
4.8082e-05
4.81166e-05
4.81477e-05
4.81755e-05
4.82009e-05
4.82243e-05
4.82459e-05
4.82658e-05
4.82838e-05
4.82998e-05
4.83141e-05
4.8327e-05
4.83391e-05
4.83505e-05
4.83613e-05
4.83712e-05
4.83802e-05
4.83884e-05
4.83962e-05
4.84037e-05
4.84109e-05
4.84177e-05
4.84239e-05
4.84292e-05
4.84337e-05
4.84374e-05
4.84405e-05
4.84431e-05
4.84457e-05
4.84488e-05
4.84524e-05
4.84566e-05
4.84609e-05
4.84651e-05
4.84692e-05
4.84732e-05
3.49028e-05
3.49269e-05
3.4949e-05
3.49689e-05
3.49865e-05
3.50022e-05
3.50165e-05
3.50298e-05
3.50422e-05
3.50534e-05
3.50636e-05
3.50725e-05
3.50805e-05
3.50877e-05
3.50944e-05
3.51008e-05
3.51069e-05
3.51127e-05
3.5118e-05
3.51228e-05
3.51274e-05
3.5132e-05
3.51365e-05
3.51408e-05
3.51446e-05
3.51477e-05
3.515e-05
3.51518e-05
3.51531e-05
3.51541e-05
3.51552e-05
3.51567e-05
3.51589e-05
3.51615e-05
3.51644e-05
3.51673e-05
3.51702e-05
3.51728e-05
9.9253e-06
9.92218e-06
9.91933e-06
9.91673e-06
9.91435e-06
9.91216e-06
9.91015e-06
9.9083e-06
9.90662e-06
9.90507e-06
9.90364e-06
9.90233e-06
9.90112e-06
9.90001e-06
9.89898e-06
9.89804e-06
9.89717e-06
9.89637e-06
9.89564e-06
9.89496e-06
9.89434e-06
9.89378e-06
9.89327e-06
9.89281e-06
9.89239e-06
9.89201e-06
9.89165e-06
9.89132e-06
9.89102e-06
9.89074e-06
9.89048e-06
9.89025e-06
9.89005e-06
9.88989e-06
9.88976e-06
9.88967e-06
9.8896e-06
9.88956e-06
1.00536e-05
1.00501e-05
1.00469e-05
1.00439e-05
1.00412e-05
1.00388e-05
1.00365e-05
1.00345e-05
1.00326e-05
1.00308e-05
1.00292e-05
1.00277e-05
1.00263e-05
1.00251e-05
1.0024e-05
1.00229e-05
1.0022e-05
1.00211e-05
1.00203e-05
1.00195e-05
1.00188e-05
1.00182e-05
1.00176e-05
1.00171e-05
1.00167e-05
1.00162e-05
1.00159e-05
1.00155e-05
1.00152e-05
1.00149e-05
1.00146e-05
1.00144e-05
1.00142e-05
1.0014e-05
1.00139e-05
1.00138e-05
1.00137e-05
1.00136e-05
4.39829e-05
4.40041e-05
4.40231e-05
4.40403e-05
4.40559e-05
4.407e-05
4.40828e-05
4.40944e-05
4.4105e-05
4.41146e-05
4.41235e-05
4.41316e-05
4.41392e-05
4.41462e-05
4.41527e-05
4.41585e-05
4.41639e-05
4.41689e-05
4.41737e-05
4.41783e-05
4.41828e-05
4.41874e-05
4.41919e-05
4.4196e-05
4.41994e-05
4.42021e-05
4.42043e-05
4.42062e-05
4.4208e-05
4.42098e-05
4.42118e-05
4.4214e-05
4.42165e-05
4.42191e-05
4.42213e-05
4.42232e-05
4.42246e-05
4.42257e-05
6.68764e-05
6.69179e-05
6.69551e-05
6.69887e-05
6.70192e-05
6.70468e-05
6.70719e-05
6.70947e-05
6.71153e-05
6.71341e-05
6.71515e-05
6.71676e-05
6.71826e-05
6.71964e-05
6.72091e-05
6.72207e-05
6.72315e-05
6.72415e-05
6.7251e-05
6.72599e-05
6.72684e-05
6.72766e-05
6.72843e-05
6.72914e-05
6.72978e-05
6.73034e-05
6.73083e-05
6.73126e-05
6.73167e-05
6.73207e-05
6.73247e-05
6.73286e-05
6.73327e-05
6.73366e-05
6.73403e-05
6.73435e-05
6.73462e-05
6.73485e-05
7.58193e-05
7.58721e-05
7.59193e-05
7.5962e-05
7.60006e-05
7.60358e-05
7.60677e-05
7.60967e-05
7.61231e-05
7.61473e-05
7.61698e-05
7.61907e-05
7.621e-05
7.62278e-05
7.62439e-05
7.62587e-05
7.62723e-05
7.62851e-05
7.6297e-05
7.63082e-05
7.63188e-05
7.63288e-05
7.63381e-05
7.63468e-05
7.63548e-05
7.63622e-05
7.63688e-05
7.63748e-05
7.63803e-05
7.63854e-05
7.63902e-05
7.63949e-05
7.63995e-05
7.64042e-05
7.64087e-05
7.64128e-05
7.64163e-05
7.64193e-05
7.83372e-05
7.83936e-05
7.84441e-05
7.84898e-05
7.85312e-05
7.85687e-05
7.86028e-05
7.86338e-05
7.86621e-05
7.86884e-05
7.87128e-05
7.87354e-05
7.87562e-05
7.87752e-05
7.87925e-05
7.88083e-05
7.88229e-05
7.88364e-05
7.88489e-05
7.88606e-05
7.88717e-05
7.88822e-05
7.88918e-05
7.89008e-05
7.89094e-05
7.89176e-05
7.89251e-05
7.89319e-05
7.89379e-05
7.89433e-05
7.89481e-05
7.89527e-05
7.89574e-05
7.89621e-05
7.89669e-05
7.89714e-05
7.89754e-05
7.89789e-05
7.89355e-05
7.89869e-05
7.90335e-05
7.90757e-05
7.91138e-05
7.91483e-05
7.91798e-05
7.92088e-05
7.92357e-05
7.92606e-05
7.92837e-05
7.93047e-05
7.93239e-05
7.93415e-05
7.93575e-05
7.93723e-05
7.93858e-05
7.93982e-05
7.94099e-05
7.94209e-05
7.94312e-05
7.94407e-05
7.94497e-05
7.94584e-05
7.94669e-05
7.94748e-05
7.94819e-05
7.94881e-05
7.94934e-05
7.9498e-05
7.95023e-05
7.95067e-05
7.95114e-05
7.95162e-05
7.95209e-05
7.95253e-05
7.95291e-05
7.89345e-05
7.89863e-05
7.90334e-05
7.9076e-05
7.91145e-05
7.91491e-05
7.91808e-05
7.921e-05
7.92372e-05
7.92623e-05
7.92854e-05
7.93063e-05
7.93253e-05
7.93427e-05
7.93587e-05
7.93735e-05
7.93869e-05
7.93993e-05
7.94108e-05
7.94216e-05
7.94317e-05
7.94411e-05
7.945e-05
7.94588e-05
7.94672e-05
7.94752e-05
7.94823e-05
7.94883e-05
7.94934e-05
7.94977e-05
7.95017e-05
7.9506e-05
7.95106e-05
7.95154e-05
7.95202e-05
7.95248e-05
7.95291e-05
7.83911e-05
7.84427e-05
7.84897e-05
7.85323e-05
7.85706e-05
7.86052e-05
7.86367e-05
7.86658e-05
7.86928e-05
7.87176e-05
7.87403e-05
7.87608e-05
7.87794e-05
7.87963e-05
7.88119e-05
7.88263e-05
7.88397e-05
7.88519e-05
7.88632e-05
7.88737e-05
7.88835e-05
7.88928e-05
7.89017e-05
7.89103e-05
7.89185e-05
7.89261e-05
7.89328e-05
7.89384e-05
7.89431e-05
7.89472e-05
7.8951e-05
7.89551e-05
7.89596e-05
7.89644e-05
7.89693e-05
7.89741e-05
7.89786e-05
7.89827e-05
7.58691e-05
7.59178e-05
7.59622e-05
7.60025e-05
7.60387e-05
7.60713e-05
7.6101e-05
7.61284e-05
7.61537e-05
7.61769e-05
7.61981e-05
7.62171e-05
7.62341e-05
7.62496e-05
7.6264e-05
7.62774e-05
7.629e-05
7.63015e-05
7.6312e-05
7.63218e-05
7.6331e-05
7.63397e-05
7.63482e-05
7.63561e-05
7.63636e-05
7.63702e-05
7.63761e-05
7.6381e-05
7.6385e-05
7.63885e-05
7.63919e-05
7.63957e-05
7.63999e-05
7.64046e-05
7.64094e-05
7.64141e-05
7.64187e-05
7.6423e-05
6.69154e-05
6.6954e-05
6.69892e-05
6.70212e-05
6.70498e-05
6.70756e-05
6.7099e-05
6.71206e-05
6.71405e-05
6.71588e-05
6.71753e-05
6.719e-05
6.72032e-05
6.72152e-05
6.72263e-05
6.72367e-05
6.72466e-05
6.72557e-05
6.7264e-05
6.72717e-05
6.7279e-05
6.7286e-05
6.72928e-05
6.72992e-05
6.73049e-05
6.73099e-05
6.73141e-05
6.73174e-05
6.73201e-05
6.73224e-05
6.73247e-05
6.73275e-05
6.73309e-05
6.73349e-05
6.73392e-05
6.73434e-05
6.73475e-05
6.73513e-05
4.40026e-05
4.40225e-05
4.40407e-05
4.40571e-05
4.40718e-05
4.40849e-05
4.40968e-05
4.41079e-05
4.41181e-05
4.41275e-05
4.41359e-05
4.41434e-05
4.41502e-05
4.41561e-05
4.41615e-05
4.41667e-05
4.41717e-05
4.41764e-05
4.41806e-05
4.41846e-05
4.41885e-05
4.41925e-05
4.41966e-05
4.42004e-05
4.42036e-05
4.42061e-05
4.4208e-05
4.42091e-05
4.42096e-05
4.42098e-05
4.42102e-05
4.42112e-05
4.42131e-05
4.42157e-05
4.42186e-05
4.42216e-05
4.42246e-05
4.4227e-05
1.00499e-05
1.00467e-05
1.00438e-05
1.00412e-05
1.00387e-05
1.00365e-05
1.00344e-05
1.00325e-05
1.00308e-05
1.00292e-05
1.00278e-05
1.00264e-05
1.00252e-05
1.0024e-05
1.0023e-05
1.0022e-05
1.00212e-05
1.00204e-05
1.00196e-05
1.00189e-05
1.00183e-05
1.00177e-05
1.00172e-05
1.00168e-05
1.00163e-05
1.0016e-05
1.00156e-05
1.00153e-05
1.00149e-05
1.00147e-05
1.00144e-05
1.00142e-05
1.0014e-05
1.00138e-05
1.00137e-05
1.00136e-05
1.00135e-05
1.00134e-05
1.0104e-05
1.01005e-05
1.00973e-05
1.00943e-05
1.00916e-05
1.00891e-05
1.00868e-05
1.00847e-05
1.00828e-05
1.0081e-05
1.00794e-05
1.00779e-05
1.00765e-05
1.00753e-05
1.00741e-05
1.00731e-05
1.00721e-05
1.00712e-05
1.00704e-05
1.00696e-05
1.0069e-05
1.00683e-05
1.00678e-05
1.00673e-05
1.00668e-05
1.00664e-05
1.0066e-05
1.00656e-05
1.00653e-05
1.0065e-05
1.00647e-05
1.00645e-05
1.00643e-05
1.00641e-05
1.0064e-05
1.00639e-05
1.00638e-05
1.00637e-05
4.91192e-05
4.91353e-05
4.91498e-05
4.91628e-05
4.91747e-05
4.91855e-05
4.91953e-05
4.92042e-05
4.92123e-05
4.92196e-05
4.92265e-05
4.92328e-05
4.92388e-05
4.92445e-05
4.92496e-05
4.9254e-05
4.9258e-05
4.92618e-05
4.92655e-05
4.9269e-05
4.92726e-05
4.92764e-05
4.92803e-05
4.92838e-05
4.92866e-05
4.92886e-05
4.92903e-05
4.92918e-05
4.92931e-05
4.92945e-05
4.9296e-05
4.92978e-05
4.92999e-05
4.93022e-05
4.9304e-05
4.93054e-05
4.93064e-05
4.93072e-05
8.02206e-05
8.0253e-05
8.02821e-05
8.03083e-05
8.0332e-05
8.03536e-05
8.03731e-05
8.03909e-05
8.0407e-05
8.04217e-05
8.04353e-05
8.04479e-05
8.04596e-05
8.04704e-05
8.04804e-05
8.04895e-05
8.04979e-05
8.05057e-05
8.05132e-05
8.05202e-05
8.0527e-05
8.05335e-05
8.05398e-05
8.05456e-05
8.05507e-05
8.05552e-05
8.0559e-05
8.05625e-05
8.05658e-05
8.0569e-05
8.05721e-05
8.05753e-05
8.05786e-05
8.05819e-05
8.05849e-05
8.05875e-05
8.05897e-05
8.05915e-05
9.40625e-05
9.41065e-05
9.41459e-05
9.41815e-05
9.42138e-05
9.42431e-05
9.42697e-05
9.4294e-05
9.4316e-05
9.43362e-05
9.43549e-05
9.43722e-05
9.43883e-05
9.4403e-05
9.44165e-05
9.44288e-05
9.44402e-05
9.44509e-05
9.44608e-05
9.44702e-05
9.4479e-05
9.44874e-05
9.44953e-05
9.45025e-05
9.45093e-05
9.45154e-05
9.4521e-05
9.4526e-05
9.45307e-05
9.4535e-05
9.45391e-05
9.45431e-05
9.45471e-05
9.45511e-05
9.45548e-05
9.45583e-05
9.45614e-05
9.4564e-05
9.83642e-05
9.84128e-05
9.84563e-05
9.84957e-05
9.85314e-05
9.85638e-05
9.85932e-05
9.862e-05
9.86445e-05
9.86671e-05
9.8688e-05
9.87074e-05
9.87253e-05
9.87416e-05
9.87565e-05
9.87701e-05
9.87827e-05
9.87944e-05
9.88052e-05
9.88153e-05
9.88249e-05
9.88338e-05
9.88421e-05
9.88499e-05
9.88573e-05
9.88643e-05
9.88707e-05
9.88766e-05
9.88818e-05
9.88865e-05
9.88908e-05
9.88949e-05
9.8899e-05
9.89032e-05
9.89073e-05
9.89112e-05
9.89147e-05
9.89179e-05
9.9412e-05
9.94568e-05
9.94974e-05
9.95342e-05
9.95674e-05
9.95975e-05
9.9625e-05
9.96503e-05
9.96737e-05
9.96953e-05
9.97153e-05
9.97336e-05
9.97503e-05
9.97655e-05
9.97795e-05
9.97923e-05
9.98042e-05
9.9815e-05
9.98252e-05
9.98348e-05
9.98438e-05
9.98521e-05
9.98599e-05
9.98675e-05
9.98748e-05
9.98816e-05
9.98877e-05
9.98931e-05
9.98978e-05
9.9902e-05
9.99059e-05
9.99099e-05
9.9914e-05
9.99182e-05
9.99223e-05
9.99261e-05
9.99296e-05
9.94113e-05
9.94564e-05
9.94973e-05
9.95344e-05
9.95679e-05
9.95982e-05
9.96258e-05
9.96513e-05
9.96749e-05
9.96967e-05
9.97166e-05
9.97348e-05
9.97514e-05
9.97665e-05
9.97805e-05
9.97933e-05
9.9805e-05
9.98159e-05
9.98259e-05
9.98354e-05
9.98442e-05
9.98524e-05
9.98602e-05
9.98678e-05
9.98751e-05
9.98819e-05
9.9888e-05
9.98933e-05
9.98978e-05
9.99017e-05
9.99054e-05
9.99093e-05
9.99133e-05
9.99175e-05
9.99217e-05
9.99258e-05
9.99295e-05
9.84109e-05
9.84553e-05
9.84957e-05
9.85323e-05
9.85653e-05
9.85952e-05
9.86224e-05
9.86474e-05
9.86706e-05
9.86919e-05
9.87114e-05
9.8729e-05
9.8745e-05
9.87596e-05
9.87731e-05
9.87855e-05
9.8797e-05
9.88076e-05
9.88174e-05
9.88265e-05
9.8835e-05
9.88431e-05
9.88507e-05
9.88581e-05
9.88651e-05
9.88715e-05
9.88773e-05
9.88822e-05
9.88863e-05
9.889e-05
9.88934e-05
9.88971e-05
9.8901e-05
9.89052e-05
9.89095e-05
9.89136e-05
9.89175e-05
9.89212e-05
9.41042e-05
9.41448e-05
9.41818e-05
9.42153e-05
9.42455e-05
9.42727e-05
9.42975e-05
9.43203e-05
9.43414e-05
9.43607e-05
9.43783e-05
9.43941e-05
9.44084e-05
9.44214e-05
9.44334e-05
9.44446e-05
9.4455e-05
9.44646e-05
9.44735e-05
9.44816e-05
9.44894e-05
9.44967e-05
9.45038e-05
9.45105e-05
9.45167e-05
9.45222e-05
9.4527e-05
9.45311e-05
9.45345e-05
9.45374e-05
9.45403e-05
9.45435e-05
9.45472e-05
9.45512e-05
9.45553e-05
9.45594e-05
9.45634e-05
9.45671e-05
8.02509e-05
8.02811e-05
8.03088e-05
8.03338e-05
8.03562e-05
8.03763e-05
8.03947e-05
8.04116e-05
8.04272e-05
8.04415e-05
8.04544e-05
8.0466e-05
8.04763e-05
8.04858e-05
8.04945e-05
8.05027e-05
8.05104e-05
8.05175e-05
8.0524e-05
8.053e-05
8.05358e-05
8.05415e-05
8.0547e-05
8.05521e-05
8.05567e-05
8.05605e-05
8.05637e-05
8.05661e-05
8.05678e-05
8.05694e-05
8.0571e-05
8.05731e-05
8.0576e-05
8.05794e-05
8.05832e-05
8.0587e-05
8.05906e-05
8.05938e-05
4.91339e-05
4.91493e-05
4.91633e-05
4.9176e-05
4.91873e-05
4.91974e-05
4.92066e-05
4.92151e-05
4.92231e-05
4.92304e-05
4.92369e-05
4.92427e-05
4.92479e-05
4.92526e-05
4.9257e-05
4.92612e-05
4.92651e-05
4.92687e-05
4.92718e-05
4.92748e-05
4.92778e-05
4.92813e-05
4.92846e-05
4.92875e-05
4.929e-05
4.92919e-05
4.92933e-05
4.92936e-05
4.92934e-05
4.92928e-05
4.92926e-05
4.92932e-05
4.92948e-05
4.92974e-05
4.93004e-05
4.93035e-05
4.93063e-05
4.93083e-05
1.01003e-05
1.00971e-05
1.00942e-05
1.00915e-05
1.0089e-05
1.00868e-05
1.00847e-05
1.00828e-05
1.00811e-05
1.00795e-05
1.0078e-05
1.00766e-05
1.00754e-05
1.00742e-05
1.00732e-05
1.00722e-05
1.00713e-05
1.00705e-05
1.00697e-05
1.00691e-05
1.00684e-05
1.00679e-05
1.00673e-05
1.00669e-05
1.00665e-05
1.00661e-05
1.00657e-05
1.00654e-05
1.00651e-05
1.00648e-05
1.00645e-05
1.00643e-05
1.00641e-05
1.00639e-05
1.00637e-05
1.00636e-05
1.00636e-05
1.00635e-05
1.01246e-05
1.0121e-05
1.01178e-05
1.01148e-05
1.01121e-05
1.01096e-05
1.01073e-05
1.01052e-05
1.01033e-05
1.01015e-05
1.00999e-05
1.00984e-05
1.0097e-05
1.00957e-05
1.00946e-05
1.00935e-05
1.00926e-05
1.00917e-05
1.00909e-05
1.00901e-05
1.00894e-05
1.00888e-05
1.00882e-05
1.00877e-05
1.00873e-05
1.00868e-05
1.00864e-05
1.00861e-05
1.00858e-05
1.00855e-05
1.00852e-05
1.0085e-05
1.00848e-05
1.00846e-05
1.00845e-05
1.00843e-05
1.00842e-05
1.00842e-05
5.1717e-05
5.17291e-05
5.17399e-05
5.17496e-05
5.17585e-05
5.17666e-05
5.17739e-05
5.17806e-05
5.17867e-05
5.17922e-05
5.17974e-05
5.18022e-05
5.18068e-05
5.18111e-05
5.18151e-05
5.18184e-05
5.18214e-05
5.18243e-05
5.18271e-05
5.18298e-05
5.18327e-05
5.18359e-05
5.18393e-05
5.18424e-05
5.18447e-05
5.18464e-05
5.18479e-05
5.18491e-05
5.18503e-05
5.18514e-05
5.18525e-05
5.18539e-05
5.18557e-05
5.18575e-05
5.18589e-05
5.186e-05
5.18607e-05
5.18612e-05
8.84856e-05
8.85078e-05
8.85277e-05
8.85457e-05
8.8562e-05
8.85768e-05
8.85902e-05
8.86024e-05
8.86135e-05
8.86236e-05
8.8633e-05
8.86417e-05
8.86497e-05
8.86573e-05
8.86643e-05
8.86707e-05
8.86765e-05
8.8682e-05
8.86873e-05
8.86923e-05
8.86971e-05
8.8702e-05
8.87067e-05
8.87111e-05
8.87148e-05
8.87181e-05
8.87209e-05
8.87235e-05
8.87258e-05
8.87281e-05
8.87304e-05
8.87327e-05
8.87352e-05
8.87377e-05
8.87399e-05
8.87417e-05
8.87433e-05
8.87445e-05
0.000106449
0.00010648
0.000106508
0.000106534
0.000106557
0.000106578
0.000106597
0.000106615
0.00010663
0.000106645
0.000106658
0.000106671
0.000106682
0.000106693
0.000106703
0.000106712
0.00010672
0.000106728
0.000106735
0.000106742
0.000106748
0.000106754
0.00010676
0.000106766
0.00010677
0.000106775
0.000106779
0.000106783
0.000106786
0.000106789
0.000106792
0.000106795
0.000106798
0.000106801
0.000106804
0.000106807
0.000106809
0.000106811
0.000112453
0.000112489
0.000112521
0.00011255
0.000112577
0.000112601
0.000112622
0.000112642
0.000112661
0.000112677
0.000112693
0.000112707
0.00011272
0.000112732
0.000112744
0.000112754
0.000112763
0.000112772
0.00011278
0.000112787
0.000112795
0.000112801
0.000112807
0.000112813
0.000112819
0.000112824
0.000112829
0.000112833
0.000112837