/*--------------------------------*- C++ -*----------------------------------*\
| =========                 |                                                 |
| \\      /  F ield         | OpenFOAM: The Open Source CFD Toolbox           |
|  \\    /   O peration     | Version:  2.3.1                                 |
|   \\  /    A nd           | Web:      www.OpenFOAM.org                      |
|    \\/     M anipulation  |                                                 |
\*---------------------------------------------------------------------------*/
FoamFile
{
    version     2.0;
    format      ascii;
    class       surfaceScalarField;
    location    "5";
    object      phi;
}
// * * * * * * * * * * * * * * * * * * * * * * * * * * * * * * * * * * * * * //

dimensions      [0 3 -1 0 0 0 0];

internalField   nonuniform List<scalar> 
110041
(
1.0026e-06
3.43267e-09
9.36265e-09
9.90979e-07
3.13454e-09
8.48679e-09
9.80396e-07
2.87487e-09
7.70833e-09
9.70743e-07
2.64077e-09
7.01189e-09
9.61925e-07
2.42865e-09
6.38947e-09
9.53853e-07
2.23719e-09
5.83473e-09
9.46449e-07
2.0642e-09
5.33968e-09
9.39646e-07
1.90743e-09
4.89535e-09
9.33387e-07
1.76475e-09
4.49419e-09
9.27624e-07
1.63304e-09
4.13062e-09
9.22316e-07
1.50865e-09
3.799e-09
9.17433e-07
1.3904e-09
3.4922e-09
9.12949e-07
1.2811e-09
3.20377e-09
9.08832e-07
1.18491e-09
2.93131e-09
9.05053e-07
1.10326e-09
2.67601e-09
9.01581e-07
1.03339e-09
2.43875e-09
8.98392e-07
9.70822e-10
2.2183e-09
8.95466e-07
9.12795e-10
2.01317e-09
8.92785e-07
8.58023e-10
1.82266e-09
8.90337e-07
8.03951e-10
1.64441e-09
8.88115e-07
7.48126e-10
1.47365e-09
8.86115e-07
6.91716e-10
1.30785e-09
8.84328e-07
6.37778e-10
1.15001e-09
8.82735e-07
5.87579e-10
1.0053e-09
8.81317e-07
5.41939e-10
8.76088e-10
8.80052e-07
5.036e-10
7.60666e-10
8.78922e-07
4.75052e-10
6.55406e-10
8.7791e-07
4.55137e-10
5.57208e-10
8.77007e-07
4.39214e-10
4.63895e-10
8.76211e-07
4.22452e-10
3.73573e-10
8.75524e-07
4.01961e-10
2.8473e-10
8.74951e-07
3.75379e-10
1.97213e-10
8.74498e-07
3.40382e-10
1.12684e-10
8.74167e-07
2.97427e-10
3.42297e-11
8.73951e-07
2.50758e-10
-3.56669e-11
8.73842e-07
2.05393e-10
-9.58886e-11
8.73823e-07
1.65918e-10
-1.47246e-10
1.32753e-10
-1.9332e-10
1.03062e-06
3.51257e-09
1.29913e-08
1.01874e-06
3.197e-09
1.18182e-08
1.00792e-06
2.92535e-09
1.07732e-08
9.98048e-07
2.68304e-09
9.82968e-09
9.8903e-07
2.4635e-09
8.98244e-09
9.80778e-07
2.26313e-09
8.22678e-09
9.73211e-07
2.07953e-09
7.55174e-09
9.66262e-07
1.91072e-09
6.9456e-09
9.59872e-07
1.75344e-09
6.40093e-09
9.53991e-07
1.60309e-09
5.91064e-09
9.4858e-07
1.45732e-09
5.46255e-09
9.43608e-07
1.31938e-09
5.04329e-09
9.39046e-07
1.19644e-09
4.64709e-09
9.3486e-07
1.09459e-09
4.27588e-09
9.31017e-07
1.01502e-09
3.93166e-09
9.27485e-07
9.53526e-10
3.61157e-09
9.24241e-07
9.0364e-10
3.31059e-09
9.21266e-07
8.60921e-10
3.02714e-09
9.1854e-07
8.23147e-10
2.76129e-09
9.16049e-07
7.87317e-10
2.50725e-09
9.13789e-07
7.50541e-10
2.25731e-09
9.11755e-07
7.12641e-10
2.0139e-09
9.09931e-07
6.74126e-10
1.787e-09
9.08303e-07
6.33635e-10
1.58239e-09
9.06852e-07
5.9081e-10
1.40149e-09
9.05561e-07
5.4937e-10
1.24613e-09
9.04406e-07
5.14764e-10
1.11518e-09
9.0337e-07
4.8999e-10
1.00047e-09
9.02446e-07
4.74547e-10
8.89146e-10
9.01631e-07
4.66017e-10
7.70947e-10
9.00929e-07
4.60163e-10
6.44538e-10
9.00341e-07
4.49478e-10
5.13984e-10
8.99872e-07
4.25582e-10
3.82991e-10
8.99527e-07
3.85115e-10
2.57377e-10
8.99301e-07
3.31691e-10
1.4517e-10
8.99184e-07
2.72612e-10
5.00598e-11
8.99161e-07
2.15754e-10
-2.6457e-11
1.63455e-10
-8.69934e-11
1.03322e-06
2.3363e-09
1.4239e-08
1.02134e-06
2.10908e-09
1.29661e-08
1.01051e-06
1.91091e-09
1.18414e-08
1.00063e-06
1.73217e-09
1.08307e-08
9.91605e-07
1.56869e-09
9.92292e-09
9.83342e-07
1.41865e-09
9.10725e-09
9.75768e-07
1.28007e-09
8.3732e-09
9.68815e-07
1.14939e-09
7.71488e-09
9.6242e-07
1.02158e-09
7.12681e-09
9.56535e-07
8.9346e-10
6.59477e-09
9.51125e-07
7.68212e-10
6.09843e-09
9.46164e-07
6.54607e-10
5.62594e-09
9.41619e-07
5.61118e-10
5.18012e-09
9.37453e-07
4.91327e-10
4.7698e-09
9.33625e-07
4.44287e-10
4.39836e-09
9.30104e-07
4.1615e-10
4.05855e-09
9.26867e-07
4.02421e-10
3.73784e-09
9.23898e-07
3.99728e-10
3.43087e-09
9.21176e-07
4.04897e-10
3.13957e-09
9.1869e-07
4.13666e-10
2.86e-09
9.16433e-07
4.22746e-10
2.58479e-09
9.14398e-07
4.30707e-10
2.3174e-09
9.12569e-07
4.34749e-10
2.06756e-09
9.10935e-07
4.2931e-10
1.83913e-09
9.0948e-07
4.10944e-10
1.63421e-09
9.08189e-07
3.83036e-10
1.458e-09
9.07038e-07
3.54507e-10
1.31128e-09
9.06009e-07
3.34966e-10
1.18407e-09
9.05092e-07
3.30832e-10
1.06025e-09
9.04285e-07
3.43062e-10
9.30248e-10
9.03583e-07
3.6536e-10
7.96104e-10
9.02988e-07
3.84984e-10
6.5948e-10
9.02508e-07
3.88539e-10
5.17045e-10
9.02152e-07
3.68756e-10
3.72491e-10
9.0192e-07
3.26224e-10
2.37546e-10
9.01803e-07
2.67092e-10
1.2291e-10
9.01781e-07
2.00005e-10
3.71027e-11
1.32258e-10
-2.32658e-11
1.03348e-06
1.33043e-09
1.40435e-08
1.02162e-06
1.17729e-09
1.27929e-08
1.0108e-06
1.03134e-09
1.16963e-08
1.00093e-06
8.91499e-10
1.0714e-08
9.91904e-07
7.60825e-10
9.83078e-09
9.83647e-07
6.42468e-10
9.03411e-09
9.76076e-07
5.34412e-10
8.31602e-09
9.69122e-07
4.29864e-10
7.67333e-09
9.62725e-07
3.22979e-10
7.09631e-09
9.5684e-07
2.14904e-10
6.56302e-09
9.5144e-07
1.1461e-10
6.05348e-09
9.46496e-07
3.2623e-11
5.56584e-09
9.41972e-07
-2.64251e-11
5.11195e-09
9.37825e-07
-6.34999e-11
4.70213e-09
9.34013e-07
-8.17114e-11
4.33766e-09
9.30504e-07
-8.36539e-11
4.00845e-09
9.27278e-07
-7.00727e-11
3.69898e-09
9.24316e-07
-4.19608e-11
3.40359e-09
9.21599e-07
-3.07379e-12
3.12498e-09
9.19115e-07
4.01278e-11
2.85808e-09
9.16858e-07
8.47873e-11
2.59462e-09
9.14819e-07
1.29013e-10
2.34011e-09
9.12983e-07
1.68249e-10
2.10326e-09
9.11336e-07
1.94597e-10
1.88153e-09
9.09872e-07
2.02627e-10
1.67192e-09
9.08579e-07
1.95226e-10
1.4809e-09
9.07435e-07
1.83065e-10
1.31528e-09
9.06419e-07
1.79365e-10
1.17146e-09
9.05518e-07
1.9398e-10
1.03854e-09
9.04721e-07
2.28314e-10
9.11865e-10
9.04019e-07
2.73512e-10
7.93758e-10
9.03412e-07
3.1444e-10
6.77653e-10
9.02913e-07
3.36923e-10
5.50171e-10
9.02538e-07
3.32712e-10
4.10804e-10
9.02292e-07
2.99633e-10
2.72541e-10
9.02168e-07
2.41045e-10
1.50606e-10
9.02145e-07
1.64923e-10
5.77445e-11
8.29773e-11
-7.73355e-12
1.03343e-06
1.36771e-08
1.02158e-06
5.73024e-10
1.24611e-08
1.01076e-06
4.50245e-10
1.13949e-08
1.00089e-06
3.22591e-10
1.04361e-08
9.9188e-07
2.00349e-10
9.57504e-09
9.83628e-07
9.03817e-11
8.80361e-09
9.76058e-07
-9.02372e-12
8.11321e-09
9.69101e-07
-1.06406e-10
7.49409e-09
9.627e-07
-2.04344e-10
6.92763e-09
9.56822e-07
-2.97656e-10
6.39108e-09
9.51438e-07
-3.75418e-10
5.87425e-09
9.46514e-07
-4.29519e-10
5.38589e-09
9.42008e-07
-4.59048e-10
4.93862e-09
9.37876e-07
-4.6864e-10
4.53726e-09
9.34078e-07
-4.63624e-10
4.17986e-09
9.30583e-07
-4.46485e-10
3.85765e-09
9.2737e-07
-4.16453e-10
3.55968e-09
9.24417e-07
-3.72907e-10
3.28346e-09
9.21704e-07
-3.18334e-10
3.02802e-09
9.19221e-07
-2.57016e-10
2.78065e-09
9.16964e-07
-1.92139e-10
2.53372e-09
9.14921e-07
-1.26974e-10
2.29879e-09
9.13072e-07
-6.7183e-11
2.08425e-09
9.11409e-07
-1.95038e-11
1.87802e-09
9.0993e-07
1.29399e-11
1.66782e-09
9.08632e-07
3.2973e-11
1.46032e-09
9.07496e-07
4.87604e-11
1.27101e-09
9.06496e-07
7.1328e-11
1.10756e-09
9.05612e-07
1.09066e-10
9.6855e-10
9.04826e-07
1.61907e-10
8.53167e-10
9.04121e-07
2.20185e-10
7.58347e-10
9.03498e-07
2.6998e-10
6.66771e-10
9.02978e-07
2.99448e-10
5.58157e-10
9.02579e-07
3.0132e-10
4.30232e-10
9.02311e-07
2.72254e-10
2.94895e-10
9.02172e-07
2.14033e-10
1.66609e-10
9.02143e-07
1.33763e-10
5.95136e-11
4.41633e-11
-2.35932e-11
1.02149e-06
1.31611e-10
1.23091e-08
1.01067e-06
2.5262e-11
1.12431e-08
1.00081e-06
-9.40529e-11
1.02798e-08
9.91801e-07
-2.12981e-10
9.4176e-09
9.83558e-07
-3.22138e-10
8.65556e-09
9.75991e-07
-4.21329e-10
7.97994e-09
9.69031e-07
-5.14895e-10
7.3678e-09
9.62635e-07
-6.02945e-10
6.79515e-09
9.5677e-07
-6.78608e-10
6.24594e-09
9.51406e-07
-7.33266e-10
5.72214e-09
9.46501e-07
-7.62554e-10
5.23738e-09
9.4201e-07
-7.67645e-10
4.79958e-09
9.37889e-07
-7.53824e-10
4.40626e-09
9.34101e-07
-7.28022e-10
4.05218e-09
9.30618e-07
-6.95153e-10
3.73163e-09
9.27418e-07
-6.56104e-10
3.4406e-09
9.24474e-07
-6.09233e-10
3.17976e-09
9.21766e-07
-5.52903e-10
2.94283e-09
9.19285e-07
-4.87119e-10
2.71125e-09
9.17028e-07
-4.14769e-10
2.47893e-09
9.14981e-07
-3.4175e-10
2.26198e-09
9.13122e-07
-2.73882e-10
2.06625e-09
9.11444e-07
-2.13187e-10
1.87144e-09
9.09954e-07
-1.57966e-10
1.66031e-09
9.08653e-07
-1.05719e-10
1.4404e-09
9.07522e-07
-5.39067e-11
1.23309e-09
9.06537e-07
1.26613e-12
1.0558e-09
9.05666e-07
6.26705e-11
9.16508e-10
9.04884e-07
1.28322e-10
8.15853e-10
9.04172e-07
1.90346e-10
7.42525e-10
9.03532e-07
2.39172e-10
6.70167e-10
9.02989e-07
2.6687e-10
5.76025e-10
9.02564e-07
2.68006e-10
4.57673e-10
9.02272e-07
2.40161e-10
3.24188e-10
9.02114e-07
1.85018e-10
1.87274e-10
9.02077e-07
1.08134e-10
6.21732e-11
1.93217e-11
-4.29398e-11
1.0214e-06
-3.4859e-10
1.23715e-08
1.01057e-06
-4.22874e-10
1.12772e-08
1.00071e-06
-5.15737e-10
1.02834e-08
9.91711e-07
-6.14293e-10
9.39731e-09
9.83475e-07
-7.09212e-10
8.62224e-09
9.75912e-07
-7.96429e-10
7.93882e-09
9.68957e-07
-8.75066e-10
7.31478e-09
9.62572e-07
-9.42422e-10
6.72457e-09
9.56726e-07
-9.93082e-10
6.16073e-09
9.51383e-07
-1.02201e-09
5.63158e-09
9.46498e-07
-1.02758e-09
5.14962e-09
9.42023e-07
-1.01096e-09
4.71905e-09
9.37911e-07
-9.7687e-10
4.3343e-09
9.3413e-07
-9.32997e-10
3.98683e-09
9.30652e-07
-8.87174e-10
3.66967e-09
9.27457e-07
-8.42575e-10
3.38086e-09
9.24522e-07
-7.96887e-10
3.12342e-09
9.21821e-07
-7.43851e-10
2.8916e-09
9.19345e-07
-6.79558e-10
2.6681e-09
9.1709e-07
-6.0656e-10
2.44759e-09
9.15038e-07
-5.32197e-10
2.24237e-09
9.13172e-07
-4.60826e-10
2.05286e-09
9.11489e-07
-3.89646e-10
1.85879e-09
9.09998e-07
-3.13207e-10
1.64701e-09
9.08696e-07
-2.30017e-10
1.42633e-09
9.07568e-07
-1.4369e-10
1.21732e-09
9.06588e-07
-5.88034e-11
1.04011e-09
9.05722e-07
2.14628e-11
9.07653e-10
9.04936e-07
9.34824e-11
8.20543e-10
9.04212e-07
1.52503e-10
7.61922e-10
9.03555e-07
1.94659e-10
7.01347e-10
9.0299e-07
2.1626e-10
6.15912e-10
9.02541e-07
2.14292e-10
5.02238e-10
9.02226e-07
1.8812e-10
3.67035e-10
9.0205e-07
1.39976e-10
2.21186e-10
9.02004e-07
7.33361e-11
8.10957e-11
-6.31207e-12
-4.26387e-11
1.02132e-06
-1.04211e-09
1.26107e-08
1.01048e-06
-1.05357e-09
1.14745e-08
1.00061e-06
-1.08649e-09
1.04369e-08
9.91617e-07
-1.13215e-09
9.51006e-09
9.8339e-07
-1.18244e-09
8.70096e-09
9.75834e-07
-1.2304e-09
7.9893e-09
9.68891e-07
-1.27074e-09
7.33929e-09
9.62521e-07
-1.2989e-09
6.72621e-09
9.56693e-07
-1.31118e-09
6.14608e-09
9.51369e-07
-1.30582e-09
5.60744e-09
9.46503e-07
-1.28299e-09
5.12155e-09
9.42042e-07
-1.24427e-09
4.69428e-09
9.37939e-07
-1.19367e-09
4.32019e-09
9.34158e-07
-1.13747e-09
3.98497e-09
9.30679e-07
-1.08181e-09
3.67381e-09
9.27485e-07
-1.02988e-09
3.38114e-09
9.24556e-07
-9.79954e-10
3.11299e-09
9.21865e-07
-9.25841e-10
2.87285e-09
9.19396e-07
-8.62052e-10
2.65078e-09
9.17141e-07
-7.89466e-10
2.43823e-09
9.15086e-07
-7.13397e-10
2.23633e-09
9.1322e-07
-6.35632e-10
2.04046e-09
9.11544e-07
-5.51811e-10
1.83874e-09
9.10058e-07
-4.56769e-10
1.62877e-09
9.08759e-07
-3.50705e-10
1.41999e-09
9.0763e-07
-2.41314e-10
1.22638e-09
9.06646e-07
-1.3782e-10
1.06358e-09
9.05772e-07
-4.84865e-11
9.44136e-10
9.04975e-07
2.18558e-11
8.68292e-10
9.04237e-07
7.24142e-11
8.18197e-10
9.03563e-07
1.04261e-10
7.64248e-10
9.02978e-07
1.18479e-10
6.82841e-10
9.02509e-07
1.15171e-10
5.67854e-10
9.02176e-07
9.53003e-11
4.2579e-10
9.01985e-07
6.06174e-11
2.70524e-10
9.01928e-07
1.21588e-11
1.18299e-10
9.01993e-07
-4.7598e-11
-2.35769e-11
-1.11157e-10
-1.53861e-10
1.02123e-06
-2.06861e-09
1.29674e-08
1.01037e-06
-1.97465e-09
1.17811e-08
1.00049e-06
-1.90511e-09
1.06936e-08
9.915e-07
-1.8556e-09
9.71685e-09
9.83277e-07
-1.82187e-09
8.86245e-09
9.7573e-07
-1.79659e-09
8.11309e-09
9.68798e-07
-1.77098e-09
7.43222e-09
9.62443e-07
-1.7381e-09
6.79461e-09
9.5663e-07
-1.69454e-09
6.19579e-09
9.51322e-07
-1.6406e-09
5.64272e-09
9.46471e-07
-1.57933e-09
5.14777e-09
9.42021e-07
-1.51444e-09
4.71991e-09
9.37923e-07
-1.44842e-09
4.35292e-09
9.34141e-07
-1.38225e-09
4.02657e-09
9.30657e-07
-1.31621e-09
3.71837e-09
9.27461e-07
-1.2508e-09
3.41751e-09
9.24535e-07
-1.18633e-09
3.13251e-09
9.21852e-07
-1.12073e-09
2.87708e-09
9.19391e-07
-1.05028e-09
2.64938e-09
9.17138e-07
-9.73201e-10
2.43703e-09
9.15084e-07
-8.90196e-10
2.23123e-09
9.13223e-07
-8.00814e-10
2.02537e-09
9.11557e-07
-7.02426e-10
1.81657e-09
9.10082e-07
-5.93425e-10
1.61175e-09
9.08787e-07
-4.76511e-10
1.42085e-09
9.07654e-07
-3.5941e-10
1.251e-09
9.06658e-07
-2.52881e-10
1.11119e-09
9.05768e-07
-1.66785e-10
1.00891e-09
9.04953e-07
-1.06381e-10
9.42416e-10
9.04199e-07
-6.97168e-11
8.96577e-10
9.03509e-07
-5.0274e-11
8.44758e-10
9.02907e-07
-4.17547e-11
7.62196e-10
9.02423e-07
-4.064e-11
6.39943e-10
9.02077e-07
-4.59484e-11
4.86914e-10
9.01874e-07
-5.84746e-11
3.21805e-10
9.01807e-07
-7.93479e-11
1.58867e-10
9.01869e-07
-1.0741e-10
-1.81669e-12
-1.36994e-10
-1.59176e-10
1.02086e-06
-3.22429e-09
1.3118e-08
1.00998e-06
-2.99891e-09
1.18994e-08
1.0001e-06
-2.80125e-09
1.07818e-08
9.91096e-07
-2.6316e-09
9.77527e-09
9.82873e-07
-2.49133e-09
8.89311e-09
9.7533e-07
-2.37392e-09
8.11998e-09
9.68406e-07
-2.26683e-09
7.41957e-09
9.62061e-07
-2.16012e-09
6.76682e-09
9.5626e-07
-2.05058e-09
6.15771e-09
9.50961e-07
-1.94091e-09
5.59932e-09
9.46115e-07
-1.83714e-09
5.10328e-09
9.41669e-07
-1.74409e-09
4.67638e-09
9.37571e-07
-1.66165e-09
4.31036e-09
9.33789e-07
-1.58501e-09
3.98497e-09
9.30303e-07
-1.50768e-09
3.67737e-09
9.27105e-07
-1.42605e-09
3.37387e-09
9.24179e-07
-1.34207e-09
3.08132e-09
9.21501e-07
-1.25918e-09
2.81665e-09
9.19045e-07
-1.17709e-09
2.58288e-09
9.16796e-07
-1.09286e-09
2.36879e-09
9.14746e-07
-1.00364e-09
2.16338e-09
9.12893e-07
-9.06813e-10
1.9592e-09
9.11236e-07
-8.01068e-10
1.75568e-09
9.09768e-07
-6.88459e-10
1.56272e-09
9.08474e-07
-5.74556e-10
1.39164e-09
9.07334e-07
-4.67593e-10
1.24859e-09
9.06321e-07
-3.76822e-10
1.13676e-09
9.05409e-07
-3.09459e-10
1.05495e-09
9.04574e-07
-2.67689e-10
9.96234e-10
9.03803e-07
-2.4731e-10
9.48584e-10
9.031e-07
-2.38756e-10
8.91709e-10
9.02487e-07
-2.31554e-10
8.02804e-10
9.01993e-07
-2.19912e-10
6.7262e-10
9.0164e-07
-2.04681e-10
5.12421e-10
9.01429e-07
-1.90112e-10
3.42655e-10
9.01354e-07
-1.78358e-10
1.73543e-10
9.01414e-07
-1.67395e-10
4.33914e-13
-1.55037e-10
-1.74271e-10
1.01818e-06
-3.17958e-09
1.1921e-08
1.00731e-06
-2.92417e-09
1.07973e-08
9.97428e-07
-2.69258e-09
9.77121e-09
9.88435e-07
-2.48776e-09
8.84916e-09
9.80219e-07
-2.31402e-09
8.03882e-09
9.72687e-07
-2.16666e-09
7.32514e-09
9.65776e-07
-2.03364e-09
6.67729e-09
9.59446e-07
-1.90557e-09
6.07543e-09
9.53658e-07
-1.78052e-09
5.51796e-09
9.48368e-07
-1.66208e-09
5.01097e-09
9.43527e-07
-1.55588e-09
4.5604e-09
9.39081e-07
-1.4654e-09
4.16659e-09
9.34987e-07
-1.38892e-09
3.8215e-09
9.3121e-07
-1.32041e-09
3.5128e-09
9.27728e-07
-1.25201e-09
3.22623e-09
9.2453e-07
-1.17853e-09
2.95036e-09
9.21603e-07
-1.10147e-09
2.68656e-09
9.18924e-07
-1.02592e-09
2.44543e-09
9.16471e-07
-9.53991e-10
2.23061e-09
9.14225e-07
-8.83935e-10
2.03622e-09
9.1218e-07
-8.1268e-10
1.85475e-09
9.10331e-07
-7.36911e-10
1.67878e-09
9.08679e-07
-6.55191e-10
1.50592e-09
9.07217e-07
-5.70397e-10
1.3442e-09
9.05926e-07
-4.88727e-10
1.20501e-09
9.04781e-07
-4.1716e-10
1.09454e-09
9.03754e-07
-3.61375e-10
1.01155e-09
9.02821e-07
-3.23834e-10
9.47598e-10
9.01964e-07
-3.03492e-10
8.92643e-10
9.01174e-07
-2.95956e-10
8.38375e-10
9.00456e-07
-2.93136e-10
7.72754e-10
8.9983e-07
-2.85676e-10
6.80017e-10
8.99325e-07
-2.68585e-10
5.53633e-10
8.98961e-07
-2.44005e-10
4.03841e-10
8.9874e-07
-2.17136e-10
2.47242e-10
8.98661e-07
-1.89752e-10
9.08535e-11
8.98721e-07
-1.59284e-10
-6.8694e-11
-1.25847e-10
-2.27359e-10
9.90344e-07
8.5361e-09
9.79706e-07
7.71431e-09
9.70042e-07
6.97161e-09
9.61246e-07
6.30803e-09
9.53211e-07
5.7213e-09
9.45845e-07
5.19871e-09
9.39089e-07
4.7227e-09
9.329e-07
4.28296e-09
9.27241e-07
3.87864e-09
9.22067e-07
3.51203e-09
9.17328e-07
3.18292e-09
9.12976e-07
2.88731e-09
9.08967e-07
2.61998e-09
9.05269e-07
2.37735e-09
9.0186e-07
2.15682e-09
8.98727e-07
1.95499e-09
8.95855e-07
1.77035e-09
8.93225e-07
1.604e-09
8.90816e-07
1.45517e-09
8.88612e-07
1.32017e-09
8.86604e-07
1.19457e-09
8.84793e-07
1.07468e-09
8.83177e-07
9.60582e-10
8.81749e-07
8.57467e-10
8.80489e-07
7.71163e-10
8.79369e-07
7.03031e-10
8.78359e-07
6.48658e-10
8.77435e-07
6.00157e-10
8.76581e-07
5.50346e-10
8.7579e-07
4.94891e-10
8.75068e-07
4.28951e-10
8.74437e-07
3.4599e-10
8.73925e-07
2.43337e-10
8.73554e-07
1.26516e-10
8.73332e-07
5.14457e-12
8.73256e-07
-1.1406e-10
8.73324e-07
-2.2723e-10
-3.31075e-10
1.05375e-06
1.79166e-09
2.09705e-08
1.04158e-06
1.63603e-09
1.9019e-08
1.0305e-06
1.50489e-09
1.72821e-08
1.02039e-06
1.3872e-09
1.57288e-08
1.01116e-06
1.28176e-09
1.43388e-08
1.00271e-06
1.18925e-09
1.30944e-08
9.94968e-07
1.10853e-09
1.1978e-08
9.87854e-07
1.0374e-09
1.0972e-08
9.81312e-07
9.73928e-10
1.00614e-08
9.75293e-07
9.16006e-10
9.23387e-09
9.69754e-07
8.60851e-10
8.47743e-09
9.64661e-07
8.06694e-10
7.77886e-09
9.59983e-07
7.54629e-10
7.12685e-09
9.5569e-07
7.07712e-10
6.51657e-09
9.51749e-07
6.67953e-10
5.94876e-09
9.4813e-07
6.34387e-10
5.42352e-09
9.44807e-07
6.04259e-10
4.93719e-09
9.41759e-07
5.75609e-10
4.48574e-09
9.38967e-07
5.47213e-10
4.06714e-09
9.36418e-07
5.16567e-10
3.67727e-09
9.34102e-07
4.81196e-10
3.30817e-09
9.32013e-07
4.4207e-10
2.95481e-09
9.3014e-07
4.02968e-10
2.62032e-09
9.28466e-07
3.6757e-10
2.3113e-09
9.26973e-07
3.39119e-10
2.03026e-09
9.25639e-07
3.20336e-10
1.77373e-09
9.24447e-07
3.11452e-10
1.53583e-09
9.23383e-07
3.09208e-10
1.31247e-09
9.22437e-07
3.08242e-10
1.1017e-09
9.21605e-07
3.03489e-10
9.01797e-10
9.20888e-07
2.91662e-10
7.10688e-10
9.20287e-07
2.70735e-10
5.27383e-10
9.19806e-07
2.40181e-10
3.52731e-10
9.19448e-07
2.02587e-10
1.89771e-10
9.19208e-07
1.62973e-10
4.18414e-11
9.19075e-07
1.26379e-10
-8.9415e-11
9.19037e-07
9.65093e-11
-2.05922e-10
7.2953e-11
-3.12818e-10
1.08346e-06
2.15835e-09
2.64129e-08
1.07094e-06
1.96334e-09
2.40144e-08
1.05954e-06
1.80006e-09
2.18773e-08
1.04914e-06
1.65581e-09
1.99548e-08
1.03965e-06
1.52734e-09
1.82288e-08
1.03097e-06
1.41404e-09
1.66834e-08
1.02302e-06
1.31421e-09
1.52974e-08
1.01573e-06
1.22486e-09
1.40497e-08
1.00903e-06
1.14291e-09
1.29252e-08
1.00289e-06
1.06572e-09
1.19084e-08
9.9724e-07
9.91334e-10
1.09777e-08
9.92058e-07
9.19637e-10
1.01123e-08
9.87304e-07
8.53113e-10
9.30267e-09
9.82943e-07
7.95539e-10
8.54941e-09
9.78941e-07
7.49095e-10
7.85252e-09
9.75268e-07
7.12496e-10
7.20595e-09
9.719e-07
6.82165e-10
6.60131e-09
9.68813e-07
6.55068e-10
6.03463e-09
9.65988e-07
6.29173e-10
5.50382e-09
9.6341e-07
6.01604e-10
4.99986e-09
9.61067e-07
5.69401e-10
4.51242e-09
9.58946e-07
5.32497e-10
4.04467e-09
9.57034e-07
4.93733e-10
3.60865e-09
9.55316e-07
4.56616e-10
3.21092e-09
9.53779e-07
4.24649e-10
2.85342e-09
9.52406e-07
4.00867e-10
2.53859e-09
9.51182e-07
3.86333e-10
2.26396e-09
9.50095e-07
3.79524e-10
2.01726e-09
9.49135e-07
3.76921e-10
1.78031e-09
9.48297e-07
3.73937e-10
1.53894e-09
9.47576e-07
3.65753e-10
1.29114e-09
9.46971e-07
3.47746e-10
1.04131e-09
9.46484e-07
3.17121e-10
7.93269e-10
9.46114e-07
2.75297e-10
5.54695e-10
9.45858e-07
2.27283e-10
3.36703e-10
9.45711e-07
1.78856e-10
1.45131e-10
9.45663e-07
1.35352e-10
-1.77591e-11
9.78745e-11
-1.5615e-10
1.0855e-06
1.69371e-09
2.85132e-08
1.07295e-06
1.52954e-09
2.59466e-08
1.06153e-06
1.39075e-09
2.36731e-08
1.05111e-06
1.26814e-09
2.16339e-08
1.0416e-06
1.15879e-09
1.98021e-08
1.03291e-06
1.0618e-09
1.81548e-08
1.02495e-06
9.75143e-10
1.66718e-08
1.01765e-06
8.95548e-10
1.53388e-08
1.01096e-06
8.19972e-10
1.41413e-08
1.00482e-06
7.47007e-10
1.30536e-08
9.99188e-07
6.77047e-10
1.20442e-08
9.94026e-07
6.12033e-10
1.10956e-08
9.89295e-07
5.55078e-10
1.02093e-08
9.84956e-07
5.09224e-10
9.39418e-09
9.80977e-07
4.75835e-10
8.65146e-09
9.77325e-07
4.53653e-10
7.96929e-09
9.73976e-07
4.39571e-10
7.32958e-09
9.70907e-07
4.30509e-10
6.72355e-09
9.68101e-07
4.24121e-10
6.1511e-09
9.6554e-07
4.17841e-10
5.60498e-09
9.6321e-07
4.08975e-10
5.07521e-09
9.61097e-07
3.96217e-10
4.56633e-09
9.59188e-07
3.79888e-10
4.09042e-09
9.5747e-07
3.61012e-10
3.6526e-09
9.55931e-07
3.41374e-10
3.25632e-09
9.54559e-07
3.23655e-10
2.90806e-09
9.53338e-07
3.1068e-10
2.60743e-09
9.52257e-07
3.04521e-10
2.33982e-09
9.51306e-07
3.05286e-10
2.08294e-09
9.50477e-07
3.10255e-10
1.82326e-09
9.49763e-07
3.14279e-10
1.56144e-09
9.49162e-07
3.11066e-10
1.29726e-09
9.48675e-07
2.95501e-10
1.02608e-09
9.48302e-07
2.66273e-10
7.54109e-10
9.48043e-07
2.25978e-10
4.97619e-10
9.47894e-07
1.79439e-10
2.71672e-10
9.47847e-07
1.32357e-10
8.74246e-11
8.85116e-11
-6.21724e-11
1.08557e-06
1.0462e-09
2.84862e-08
1.07303e-06
9.30158e-10
2.59311e-08
1.06161e-06
8.26091e-10
2.36792e-08
1.0512e-06
7.31172e-10
2.16634e-08
1.04169e-06
6.44881e-10
1.98517e-08
1.033e-06
5.67469e-10
1.82195e-08
1.02504e-06
4.97254e-10
1.67494e-08
1.01775e-06
4.312e-10
1.54288e-08
1.01106e-06
3.67302e-10
1.42363e-08
1.00493e-06
3.05914e-10
1.31369e-08
9.99311e-07
2.49323e-10
1.21012e-08
9.94164e-07
2.00376e-10
1.11247e-08
9.89449e-07
1.61575e-10
1.02202e-08
9.85128e-07
1.34404e-10
9.39854e-09
9.81163e-07
1.18895e-10
8.65918e-09
9.77525e-07
1.13864e-10
7.98656e-09
9.74188e-07
1.1724e-10
7.35838e-09
9.7113e-07
1.26737e-10
6.76508e-09
9.68332e-07
1.40344e-10
6.20707e-09
9.65777e-07
1.55997e-10
5.67496e-09
9.63451e-07
1.71221e-10
5.15779e-09
9.61341e-07
1.83967e-10
4.66252e-09
9.59432e-07
1.92827e-10
4.19948e-09
9.57713e-07
1.96385e-10
3.76567e-09
9.56173e-07
1.94887e-10
3.35792e-09
9.54803e-07
1.90478e-10
2.98455e-09
9.53588e-07
1.87218e-10
2.65358e-09
9.52514e-07
1.89493e-10
2.35972e-09
9.51571e-07
1.99196e-10
2.08854e-09
9.50745e-07
2.14698e-10
1.83247e-09
9.50031e-07
2.31143e-10
1.59105e-09
9.49426e-07
2.41991e-10
1.35237e-09
9.48931e-07
2.4123e-10
1.09891e-09
9.48551e-07
2.25754e-10
8.31324e-10
9.48287e-07
1.95786e-10
5.67082e-10
9.48135e-07
1.54763e-10
3.27059e-10
9.48089e-07
1.07961e-10
1.28479e-10
6.13759e-11
-3.34274e-11
1.0855e-06
2.79861e-08
1.07296e-06
4.45221e-10
2.54785e-08
1.06155e-06
3.6623e-10
2.32683e-08
1.05114e-06
2.88991e-10
2.12855e-08
1.04164e-06
2.15889e-10
1.95054e-08
1.03295e-06
1.48526e-10
1.79092e-08
1.025e-06
8.64199e-11
1.64773e-08
1.01771e-06
2.81635e-11
1.51873e-08
1.01103e-06
-2.71138e-11
1.40071e-08
1.0049e-06
-7.79328e-11
1.29021e-08
9.99288e-07
-1.21196e-10
1.18558e-08
9.94152e-07
-1.54286e-10
1.08768e-08
9.89449e-07
-1.75826e-10
9.97929e-09
9.85138e-07
-1.86117e-10
9.16819e-09
9.81184e-07
-1.86464e-10
8.43946e-09
9.77555e-07
-1.78325e-10
7.77894e-09
9.74226e-07
-1.63008e-10
7.1692e-09
9.71174e-07
-1.41618e-10
6.60384e-09
9.68379e-07
-1.15082e-10
6.07826e-09
9.65826e-07
-8.4804e-11
5.57465e-09
9.63501e-07
-5.3091e-11
5.08301e-09
9.61389e-07
-2.24594e-11
4.61721e-09
9.59475e-07
4.86239e-12
4.18563e-09
9.5775e-07
2.7557e-11
3.77162e-09
9.56207e-07
4.50929e-11
3.36069e-09
9.54837e-07
5.88538e-11
2.96218e-09
9.53627e-07
7.19941e-11
2.59663e-09
9.5256e-07
8.82466e-11
2.27502e-09
9.51623e-07
1.09502e-10
1.99573e-09
9.508e-07
1.3458e-10
1.75583e-09
9.50083e-07
1.59469e-10
1.54719e-09
9.4947e-07
1.78503e-10
1.34373e-09
9.48965e-07
1.86241e-10
1.11839e-09
9.48573e-07
1.79406e-10
8.67893e-10
9.48299e-07
1.57359e-10
6.07096e-10
9.48142e-07
1.22185e-10
3.56478e-10
9.48095e-07
7.82249e-11
1.36528e-10
3.15829e-11
-4.96626e-11
1.0729e-06
5.52283e-11
2.52329e-08
1.06149e-06
-2.05002e-12
2.30248e-08
1.05109e-06
-6.44001e-11
2.10373e-08
1.04159e-06
-1.27715e-10
1.92576e-08
1.03291e-06
-1.8862e-10
1.76751e-08
1.02496e-06
-2.45741e-10
1.62629e-08
1.01767e-06
-2.98265e-10
1.49822e-08
1.01099e-06
-3.45163e-10
1.37941e-08
1.00487e-06
-3.84698e-10
1.26728e-08
9.99264e-07
-4.14455e-10
1.16173e-08
9.94138e-07
-4.32581e-10
1.06424e-08
9.89444e-07
-4.38905e-10
9.7568e-09
9.85141e-07
-4.35115e-10
8.95756e-09
9.81194e-07
-4.23743e-10
8.2365e-09
9.77572e-07
-4.06754e-10
7.58246e-09
9.74249e-07
-3.84924e-10
6.98583e-09
9.71201e-07
-3.58007e-10
6.44363e-09
9.68409e-07
-3.25487e-10
5.94512e-09
9.65858e-07
-2.87922e-10
5.46593e-09
9.63533e-07
-2.47405e-10
4.99829e-09
9.61418e-07
-2.06346e-10
4.5602e-09
9.595e-07
-1.66336e-10
4.15532e-09
9.57771e-07
-1.28175e-10
3.75691e-09
9.56224e-07
-9.21521e-11
3.34421e-09
9.54853e-07
-5.80329e-11
2.92813e-09
9.53646e-07
-2.50921e-11
2.5378e-09
9.52584e-07
7.61224e-12
2.19781e-09
9.51651e-07
4.03791e-11
1.9192e-09
9.50828e-07
7.21543e-11
1.70076e-09
9.50106e-07
1.00261e-10
1.52364e-09
9.49484e-07
1.21044e-10
1.34999e-09
9.48967e-07
1.31056e-10
1.14811e-09
9.48563e-07
1.28313e-10
9.12596e-10
9.48278e-07
1.12293e-10
6.54151e-10
9.48113e-07
8.39675e-11
3.90467e-10
9.48063e-07
4.59738e-11
1.44521e-10
2.97331e-12
-7.1951e-11
1.07285e-06
-3.54212e-10
2.5324e-08
1.06144e-06
-3.8048e-10
2.30738e-08
1.05103e-06
-4.17859e-10
2.1041e-08
1.04154e-06
-4.61318e-10
1.92247e-08
1.03286e-06
-5.07438e-10
1.76202e-08
1.02491e-06
-5.52529e-10
1.61933e-08
1.01763e-06
-5.93005e-10
1.48933e-08
1.01095e-06
-6.26016e-10
1.36797e-08
1.00484e-06
-6.4982e-10
1.25371e-08
9.9925e-07
-6.63202e-10
1.14723e-08
9.94133e-07
-6.65687e-10
1.04994e-08
9.89448e-07
-6.58223e-10
9.62386e-09
9.85152e-07
-6.43109e-10
8.83827e-09
9.81209e-07
-6.23063e-10
8.12876e-09
9.77591e-07
-5.99917e-10
7.48137e-09
9.74271e-07
-5.73907e-10
6.88898e-09
9.71228e-07
-5.43801e-10
6.35217e-09
9.68441e-07
-5.08276e-10
5.86205e-09
9.65892e-07
-4.67232e-10
5.39623e-09
9.63567e-07
-4.22063e-10
4.94687e-09
9.61452e-07
-3.7428e-10
4.52606e-09
9.59532e-07
-3.24345e-10
4.13066e-09
9.578e-07
-2.72242e-10
3.73434e-09
9.56252e-07
-2.18443e-10
3.32149e-09
9.5488e-07
-1.6435e-10
2.90452e-09
9.53673e-07
-1.12312e-10
2.51217e-09
9.52612e-07
-6.4934e-11
2.1734e-09
9.51678e-07
-2.37352e-11
1.90583e-09
9.50852e-07
1.03024e-11
1.708e-09
9.50124e-07
3.64337e-11
1.55386e-09
9.49493e-07
5.37586e-11
1.39992e-09
9.48965e-07
6.2024e-11
1.21271e-09
9.4855e-07
6.13829e-11
9.84509e-10
9.48254e-07
5.16546e-11
7.23116e-10
9.48081e-07
3.2601e-11
4.45631e-10
9.48027e-07
5.0259e-12
1.76519e-10
-2.78849e-11
-6.90755e-11
1.07282e-06
-8.87085e-10
2.57005e-08
1.0614e-06
-8.63255e-10
2.33842e-08
1.05099e-06
-8.54635e-10
2.12822e-08
1.04149e-06
-8.58542e-10
1.94015e-08
1.03282e-06
-8.72448e-10
1.77429e-08
1.02487e-06
-8.9068e-10
1.62708e-08
1.0176e-06
-9.06339e-10
1.49302e-08
1.01093e-06
-9.14736e-10
1.36813e-08
1.00483e-06
-9.14191e-10
1.25128e-08
9.99245e-07
-9.05014e-10
1.14319e-08
9.94137e-07
-8.88938e-10
1.04526e-08
9.89458e-07
-8.68001e-10
9.58279e-09
9.85166e-07
-8.43884e-10
8.81308e-09
9.81226e-07
-8.17668e-10
8.12029e-09
9.77609e-07
-7.8938e-10
7.48022e-09
9.74292e-07
-7.58081e-10
6.88176e-09
9.71253e-07
-7.22758e-10
6.33066e-09
9.68471e-07
-6.82768e-10
5.83026e-09
9.65925e-07
-6.37841e-10
5.36687e-09
9.63602e-07
-5.8813e-10
4.92758e-09
9.61487e-07
-5.33449e-10
4.51056e-09
9.59568e-07
-4.73054e-10
4.10747e-09
9.57839e-07
-4.06862e-10
3.70294e-09
9.56291e-07
-3.3647e-10
3.2943e-09
9.54918e-07
-2.65467e-10
2.89443e-09
9.53707e-07
-1.98894e-10
2.52387e-09
9.52642e-07
-1.42306e-10
2.20646e-09
9.51702e-07
-9.84179e-11
1.95888e-09
9.50869e-07
-6.78961e-11
1.77908e-09
9.50133e-07
-4.93997e-11
1.63983e-09
9.49493e-07
-3.98587e-11
1.49756e-09
9.48957e-07
-3.54455e-11
1.31697e-09
9.48533e-07
-3.35175e-11
1.08688e-09
9.48229e-07
-3.42699e-11
8.15342e-10
9.48049e-07
-3.9576e-11
5.22936e-10
9.47989e-07
-5.03129e-11
2.33443e-10
9.48045e-07
-6.5448e-11
-4.20571e-11
-8.25616e-11
-2.99473e-10
1.07281e-06
-1.54105e-09
2.61939e-08
1.06137e-06
-1.44738e-09
2.38035e-08
1.05096e-06
-1.37198e-09
2.16269e-08
1.04146e-06
-1.31611e-09
1.96725e-08
1.03278e-06
-1.27986e-09
1.79469e-08
1.02484e-06
-1.25611e-09
1.64188e-08
1.01757e-06
-1.23432e-09
1.50321e-08
1.01091e-06
-1.20734e-09
1.37466e-08
1.00481e-06
-1.17353e-09
1.25502e-08
9.99238e-07
-1.13571e-09
1.14492e-08
9.94135e-07
-1.09835e-09
1.04595e-08
9.8946e-07
-1.06415e-09
9.59133e-09
9.85169e-07
-1.03293e-09
8.83274e-09
9.81229e-07
-1.00249e-09
8.15206e-09
9.77612e-07
-9.69252e-10
7.51529e-09
9.74296e-07
-9.30474e-10
6.90544e-09
9.7126e-07
-8.86415e-10
6.3324e-09
9.6848e-07
-8.38597e-10
5.81261e-09
9.65937e-07
-7.87357e-10
5.34179e-09
9.63616e-07
-7.31707e-10
4.90212e-09
9.61503e-07
-6.69613e-10
4.48036e-09
9.59588e-07
-5.98949e-10
4.06641e-09
9.57861e-07
-5.19892e-10
3.65597e-09
9.56315e-07
-4.36023e-10
3.25764e-09
9.54939e-07
-3.53752e-10
2.88486e-09
9.53722e-07
-2.80815e-10
2.55002e-09
9.52647e-07
-2.23543e-10
2.26728e-09
9.51696e-07
-1.84754e-10
2.04642e-09
9.50852e-07
-1.63923e-10
1.88222e-09
9.50106e-07
-1.57373e-10
1.75052e-09
9.49458e-07
-1.58043e-10
1.61166e-09
9.48913e-07
-1.57663e-10
1.42912e-09
9.48482e-07
-1.51273e-10
1.18898e-09
9.48171e-07
-1.39864e-10
9.02734e-10
9.47985e-07
-1.27476e-10
5.96196e-10
9.4792e-07
-1.16452e-10
2.89738e-10
9.47974e-07
-1.07004e-10
-1.43405e-11
-9.97136e-11
-3.09664e-10
1.07266e-06
-2.01463e-09
2.61784e-08
1.06121e-06
-1.86038e-09
2.37607e-08
1.05079e-06
-1.72488e-09
2.15578e-08
1.04128e-06
-1.61397e-09
1.95757e-08
1.03261e-06
-1.53126e-09
1.78232e-08
1.02467e-06
-1.46882e-09
1.62716e-08
1.0174e-06
-1.41269e-09
1.48662e-08
1.01074e-06
-1.3536e-09
1.35679e-08
1.00465e-06
-1.29064e-09
1.23659e-08
9.99079e-07
-1.22919e-09
1.12662e-08
9.93977e-07
-1.17589e-09
1.02827e-08
9.89301e-07
-1.13349e-09
9.42229e-09
9.85008e-07
-1.09982e-09
8.67003e-09
9.81065e-07
-1.06946e-09
7.99484e-09
9.77446e-07
-1.03514e-09
7.36271e-09
9.74128e-07
-9.91991e-10
6.75338e-09
9.71089e-07
-9.41336e-10
6.17469e-09
9.68308e-07
-8.87353e-10
5.64699e-09
9.65763e-07
-8.32079e-10
5.17213e-09
9.6344e-07
-7.7458e-10
4.73443e-09
9.61327e-07
-7.11429e-10
4.31852e-09
9.59413e-07
-6.3862e-10
3.91319e-09
9.57687e-07
-5.55884e-10
3.51681e-09
9.56141e-07
-4.68681e-10
3.14194e-09
9.54761e-07
-3.86324e-10
2.8037e-09
9.53536e-07
-3.18505e-10
2.512e-09
9.52448e-07
-2.71289e-10
2.27252e-09
9.51481e-07
-2.45557e-10
2.08285e-09
9.5062e-07
-2.38837e-10
1.93138e-09
9.49859e-07
-2.45658e-10
1.79828e-09
9.49196e-07
-2.56227e-10
1.65253e-09