/*--------------------------------*- C++ -*----------------------------------*\
| =========                 |                                                 |
| \\      /  F ield         | OpenFOAM: The Open Source CFD Toolbox           |
|  \\    /   O peration     | Version:  2.3.1                                 |
|   \\  /    A nd           | Web:      www.OpenFOAM.org                      |
|    \\/     M anipulation  |                                                 |
\*---------------------------------------------------------------------------*/
FoamFile
{
    version     2.0;
    format      ascii;
    class       surfaceScalarField;
    location    "5";
    object      phi_0;
}
// * * * * * * * * * * * * * * * * * * * * * * * * * * * * * * * * * * * * * //

dimensions      [0 3 -1 0 0 0 0];

internalField   nonuniform List<scalar> 
110041
(
1.0026e-06
3.43096e-09
9.36076e-09
9.9098e-07
3.133e-09
8.48513e-09
9.804e-07
2.87348e-09
7.70687e-09
9.70749e-07
2.63951e-09
7.01061e-09
9.61934e-07
2.42751e-09
6.38833e-09
9.53864e-07
2.23616e-09
5.83372e-09
9.46462e-07
2.06327e-09
5.33878e-09
9.39661e-07
1.9066e-09
4.89454e-09
9.33403e-07
1.764e-09
4.49347e-09
9.27641e-07
1.63237e-09
4.12998e-09
9.22334e-07
1.50804e-09
3.79844e-09
9.17453e-07
1.38983e-09
3.4917e-09
9.12969e-07
1.28057e-09
3.20333e-09
9.08854e-07
1.18441e-09
2.9309e-09
9.05075e-07
1.10279e-09
2.67562e-09
9.01604e-07
1.03295e-09
2.43839e-09
8.98415e-07
9.70423e-10
2.21796e-09
8.9549e-07
9.12441e-10
2.01285e-09
8.9281e-07
8.57716e-10
1.82237e-09
8.90362e-07
8.03691e-10
1.64414e-09
8.88141e-07
7.47905e-10
1.47341e-09
8.86142e-07
6.91519e-10
1.30764e-09
8.84354e-07
6.37589e-10
1.14982e-09
8.82762e-07
5.87389e-10
1.00513e-09
8.81344e-07
5.41746e-10
8.75937e-10
8.8008e-07
5.03408e-10
7.60533e-10
8.7895e-07
4.74864e-10
6.55297e-10
8.77938e-07
4.54957e-10
5.57128e-10
8.77035e-07
4.39046e-10
4.63847e-10
8.76239e-07
4.22305e-10
3.73559e-10
8.75553e-07
4.01844e-10
2.84748e-10
8.7498e-07
3.753e-10
1.97264e-10
8.74527e-07
3.40341e-10
1.12763e-10
8.74195e-07
2.97425e-10
3.43274e-11
8.7398e-07
2.5079e-10
-3.55562e-11
8.7387e-07
2.05456e-10
-9.57692e-11
8.73851e-07
1.66013e-10
-1.47123e-10
1.3287e-10
-1.93187e-10
1.03061e-06
3.51048e-09
1.29879e-08
1.01873e-06
3.19514e-09
1.18152e-08
1.00791e-06
2.92369e-09
1.07705e-08
9.9804e-07
2.68155e-09
9.82722e-09
9.89026e-07
2.46216e-09
8.98022e-09
9.80775e-07
2.26193e-09
8.22478e-09
9.7321e-07
2.07846e-09
7.54994e-09
9.66263e-07
1.90977e-09
6.94399e-09
9.59875e-07
1.75258e-09
6.39949e-09
9.53995e-07
1.60232e-09
5.90935e-09
9.48585e-07
1.4566e-09
5.4614e-09
9.43614e-07
1.31871e-09
5.04226e-09
9.39053e-07
1.19581e-09
4.64615e-09
9.34868e-07
1.094e-09
4.27502e-09
9.31026e-07
1.01446e-09
3.93085e-09
9.27495e-07
9.53009e-10
3.6108e-09
9.24252e-07
9.03177e-10
3.30987e-09
9.21278e-07
8.60524e-10
3.02648e-09
9.18552e-07
8.22825e-10
2.76068e-09
9.16062e-07
7.87067e-10
2.5067e-09
9.13803e-07
7.50353e-10
2.25681e-09
9.11768e-07
7.12493e-10
2.01343e-09
9.09945e-07
6.73995e-10
1.78656e-09
9.08317e-07
6.33501e-10
1.58195e-09
9.06867e-07
5.9066e-10
1.40108e-09
9.05576e-07
5.49196e-10
1.24577e-09
9.04421e-07
5.14564e-10
1.11488e-09
9.03386e-07
4.8977e-10
1.00023e-09
9.02462e-07
4.74321e-10
8.88974e-10
9.01647e-07
4.65807e-10
7.70836e-10
9.00945e-07
4.59988e-10
6.44488e-10
9.00357e-07
4.49355e-10
5.13992e-10
8.99889e-07
4.25518e-10
3.83047e-10
8.99543e-07
3.85113e-10
2.57468e-10
8.99317e-07
3.31748e-10
1.45283e-10
8.992e-07
2.72723e-10
5.01898e-11
8.99176e-07
2.15913e-10
-2.63036e-11
1.6365e-10
-8.68182e-11
1.0332e-06
2.33454e-09
1.42349e-08
1.02132e-06
2.10752e-09
1.29624e-08
1.0105e-06
1.90954e-09
1.18381e-08
1.00062e-06
1.73096e-09
1.08278e-08
9.91598e-07
1.56762e-09
9.92021e-09
9.83337e-07
1.4177e-09
9.1048e-09
9.75765e-07
1.27924e-09
8.37101e-09
9.68813e-07
1.14866e-09
7.71293e-09
9.6242e-07
1.02093e-09
7.12506e-09
9.56536e-07
8.92865e-10
6.59321e-09
9.51128e-07
7.67657e-10
6.09702e-09
9.46168e-07
6.54081e-10
5.62467e-09
9.41624e-07
5.60619e-10
5.17896e-09
9.37459e-07
4.90859e-10
4.76871e-09
9.33632e-07
4.4386e-10
4.39731e-09
9.30112e-07
4.15776e-10
4.05755e-09
9.26876e-07
4.0211e-10
3.73689e-09
9.23907e-07
3.99489e-10
3.43001e-09
9.21186e-07
4.04735e-10
3.13879e-09
9.187e-07
4.13581e-10
2.8593e-09
9.16444e-07
4.22732e-10
2.58416e-09
9.14409e-07
4.30747e-10
2.31681e-09
9.12581e-07
4.34813e-10
2.06699e-09
9.10947e-07
4.29371e-10
1.83857e-09
9.09493e-07
4.10974e-10
1.63367e-09
9.08201e-07
3.83015e-10
1.45751e-09
9.07051e-07
3.54426e-10
1.31084e-09
9.06022e-07
3.34831e-10
1.1837e-09
9.05105e-07
3.30662e-10
1.05994e-09
9.04298e-07
3.42885e-10
9.30025e-10
9.03597e-07
3.65205e-10
7.95968e-10
9.03002e-07
3.84872e-10
6.59429e-10
9.02522e-07
3.88486e-10
5.17065e-10
9.02166e-07
3.68768e-10
3.72571e-10
9.01934e-07
3.26298e-10
2.3767e-10
9.01816e-07
2.67225e-10
1.23069e-10
9.01795e-07
2.00191e-10
3.72979e-11
1.32487e-10
-2.30335e-11
1.03346e-06
1.32929e-09
1.40391e-08
1.0216e-06
1.1763e-09
1.2789e-08
1.01079e-06
1.03049e-09
1.16928e-08
1.00092e-06
8.90766e-10
1.07108e-08
9.91897e-07
7.60192e-10
9.82793e-09
9.83641e-07
6.4192e-10
9.03153e-09
9.76073e-07
5.33938e-10
8.31372e-09
9.6912e-07
4.29454e-10
7.67129e-09
9.62724e-07
3.2262e-10
7.09449e-09
9.56841e-07
2.14581e-10
6.56138e-09
9.51443e-07
1.14311e-10
6.05199e-09
9.465e-07
3.23397e-11
5.56447e-09
9.41976e-07
-2.66892e-11
5.11068e-09
9.3783e-07
-6.37246e-11
4.70091e-09
9.34019e-07
-8.18817e-11
4.33648e-09
9.30512e-07
-8.37609e-11
4.00732e-09
9.27286e-07
-7.01171e-11
3.69792e-09
9.24325e-07
-4.19467e-11
3.40262e-09
9.21608e-07
-2.99933e-12
3.12412e-09
9.19124e-07
4.02649e-11
2.85733e-09
9.16868e-07
8.49902e-11
2.59396e-09
9.1483e-07
1.2927e-10
2.33951e-09
9.12994e-07
1.68534e-10
2.10269e-09
9.11347e-07
1.94877e-10
1.88096e-09
9.09884e-07
2.02869e-10
1.67137e-09
9.08591e-07
1.95404e-10
1.48036e-09
9.07448e-07
1.83168e-10
1.31477e-09
9.06432e-07
1.79397e-10
1.17099e-09
9.05531e-07
1.93959e-10
1.03813e-09
9.04734e-07
2.28263e-10
9.11528e-10
9.04032e-07
2.73459e-10
7.93521e-10
9.03425e-07
3.14409e-10
6.77522e-10
9.02926e-07
3.36929e-10
5.5014e-10
9.02552e-07
3.32761e-10
4.10863e-10
9.02305e-07
2.99725e-10
2.72669e-10
9.02181e-07
2.41179e-10
1.50789e-10
9.02158e-07
1.65101e-10
5.79817e-11
8.3199e-11
-7.45077e-12
1.03341e-06
1.36727e-08
1.02156e-06
5.7257e-10
1.24572e-08
1.01075e-06
4.49864e-10
1.13915e-08
1.00088e-06
3.22274e-10
1.04331e-08
9.91872e-07
2.00086e-10
9.57226e-09
9.83623e-07
9.01637e-11
8.80111e-09
9.76055e-07
-9.20729e-12
8.11098e-09
9.69099e-07
-1.06553e-10
7.49211e-09
9.627e-07
-2.04461e-10
6.92587e-09
9.56823e-07
-2.9775e-10
6.38949e-09
9.5144e-07
-3.75494e-10
5.87279e-09
9.46517e-07
-4.29575e-10
5.38454e-09
9.42012e-07
-4.59072e-10
4.93733e-09
9.37881e-07
-4.68609e-10
4.53602e-09
9.34084e-07
-4.63524e-10
4.17867e-09
9.3059e-07
-4.46319e-10
3.85651e-09
9.27377e-07
-4.16234e-10
3.55862e-09
9.24426e-07
-3.72649e-10
3.28251e-09
9.21714e-07
-3.1804e-10
3.02717e-09
9.19231e-07
-2.5668e-10
2.77992e-09
9.16974e-07
-1.91755e-10
2.53311e-09
9.14932e-07
-1.26547e-10
2.29826e-09
9.13083e-07
-6.67318e-11
2.08376e-09
9.1142e-07
-1.9059e-11
1.87754e-09
9.09942e-07
1.33486e-11
1.66733e-09
9.08644e-07
3.33236e-11
1.45983e-09
9.07508e-07
4.90425e-11
1.2705e-09
9.06509e-07
7.15449e-11
1.10705e-09
9.05625e-07
1.0923e-10
9.68078e-10
9.04839e-07
1.62032e-10
8.52758e-10
9.04134e-07
2.20289e-10
7.58035e-10
9.03512e-07
2.70079e-10
6.66578e-10
9.02991e-07
2.99549e-10
5.58086e-10
9.02592e-07
3.01425e-10
4.30272e-10
9.02324e-07
2.72366e-10
2.9502e-10
9.02184e-07
2.14157e-10
1.66801e-10
9.02156e-07
1.3391e-10
5.97728e-11
4.43444e-11
-2.32723e-11
1.02147e-06
1.31612e-10
1.23053e-08
1.01066e-06
2.52709e-11
1.12398e-08
1.0008e-06
-9.40376e-11
1.02768e-08
9.91794e-07
-2.12957e-10
9.4149e-09
9.83553e-07
-3.22104e-10
8.65313e-09
9.75987e-07
-4.21285e-10
7.97778e-09
9.69029e-07
-5.14838e-10
7.36589e-09
9.62634e-07
-6.02874e-10
6.79345e-09
9.56771e-07
-6.78523e-10
6.24441e-09
9.51408e-07
-7.33163e-10
5.72073e-09
9.46505e-07
-7.62421e-10
5.23604e-09
9.42015e-07
-7.67459e-10
4.7983e-09
9.37895e-07
-7.53566e-10
4.40504e-09
9.34108e-07
-7.27689e-10
4.05102e-09
9.30626e-07
-6.94759e-10
3.73055e-09
9.27425e-07
-6.5567e-10
3.43961e-09
9.24483e-07
-6.08777e-10
3.17885e-09
9.21775e-07
-5.52431e-10
2.94202e-09
9.19294e-07
-4.86629e-10
2.71056e-09
9.17039e-07
-4.14258e-10
2.47838e-09
9.14992e-07
-3.41219e-10
2.26153e-09
9.13132e-07
-2.7334e-10
2.06586e-09
9.11455e-07
-2.12651e-10
1.87106e-09
9.09966e-07
-1.57456e-10
1.65991e-09
9.08665e-07
-1.05249e-10
1.43996e-09
9.07534e-07
-5.34812e-11
1.23262e-09
9.06549e-07
1.64848e-12
1.05531e-09
9.05679e-07
6.30191e-11
9.16022e-10
9.04897e-07
1.28639e-10
8.15413e-10
9.04185e-07
1.90633e-10
7.42177e-10
9.03545e-07
2.39427e-10
6.69943e-10
9.03002e-07
2.67087e-10
5.75934e-10
9.02577e-07
2.68183e-10
4.57697e-10
9.02285e-07
2.40303e-10
3.24297e-10
9.02127e-07
1.85138e-10
1.87453e-10
9.0209e-07
1.08249e-10
6.24254e-11
1.94526e-11
-4.26148e-11
1.02138e-06
-3.4816e-10
1.23678e-08
1.01056e-06
-4.22491e-10
1.12738e-08
1.0007e-06
-5.15397e-10
1.02804e-08
9.91703e-07
-6.13986e-10
9.39461e-09
9.8347e-07
-7.08925e-10
8.61981e-09
9.75908e-07
-7.96156e-10
7.93666e-09
9.68955e-07
-8.74803e-10
7.31287e-09
9.62572e-07
-9.42165e-10
6.72287e-09
9.56727e-07
-9.92823e-10
6.1592e-09
9.51385e-07
-1.02174e-09
5.63016e-09
9.46502e-07
-1.02726e-09
5.14827e-09
9.42027e-07
-1.01058e-09
4.71777e-09
9.37917e-07
-9.76413e-10
4.3331e-09
9.34136e-07
-9.32473e-10
3.98573e-09
9.30659e-07
-8.86602e-10
3.66866e-09
9.27465e-07
-8.41977e-10
3.37994e-09
9.2453e-07
-7.96279e-10
3.12257e-09
9.2183e-07
-7.43243e-10
2.89083e-09
9.19355e-07
-6.78958e-10
2.66745e-09
9.171e-07
-6.05971e-10
2.44708e-09
9.15048e-07
-5.31617e-10
2.24199e-09
9.13183e-07
-4.60253e-10
2.05254e-09
9.11501e-07
-3.89081e-10
1.85848e-09
9.10009e-07
-3.12654e-10
1.64667e-09
9.08707e-07
-2.29478e-10
1.42595e-09
9.0758e-07
-1.43163e-10
1.21689e-09
9.066e-07
-5.8285e-11
1.03965e-09
9.05734e-07
2.19715e-11
9.07187e-10
9.04949e-07
9.39739e-11
8.20119e-10
9.04225e-07
1.52959e-10
7.61589e-10
9.03568e-07
1.95059e-10
7.01137e-10
9.03003e-07
2.16587e-10
6.15829e-10
9.02554e-07
2.14542e-10
5.02256e-10
9.02239e-07
1.88301e-10
3.67125e-10
9.02063e-07
1.40104e-10
2.21338e-10
9.02016e-07
7.34308e-11
8.13193e-11
-6.2236e-12
-4.23377e-11
1.0213e-06
-1.0412e-09
1.26069e-08
1.01046e-06
-1.05276e-09
1.14711e-08
1.0006e-06
-1.08576e-09
1.04338e-08
9.9161e-07
-1.13148e-09
9.50729e-09
9.83384e-07
-1.18183e-09
8.69846e-09
9.75831e-07
-1.22983e-09
7.98707e-09
9.68889e-07
-1.27021e-09
7.33731e-09
9.62521e-07
-1.2984e-09
6.72445e-09
9.56694e-07
-1.31069e-09
6.14449e-09
9.51372e-07
-1.30533e-09
5.60596e-09
9.46507e-07
-1.28246e-09
5.12016e-09
9.42047e-07
-1.24368e-09
4.69299e-09
9.37944e-07
-1.19303e-09
4.31901e-09
9.34165e-07
-1.13679e-09
3.98391e-09
9.30686e-07
-1.0811e-09
3.67286e-09
9.27493e-07
-1.02916e-09
3.38026e-09
9.24564e-07
-9.79235e-10
3.11219e-09
9.21874e-07
-9.25139e-10
2.87213e-09
9.19406e-07
-8.61381e-10
2.65018e-09
9.17151e-07
-7.88836e-10
2.43776e-09
9.15096e-07
-7.12805e-10
2.23598e-09
9.13231e-07
-6.35066e-10
2.04018e-09
9.11555e-07
-5.51258e-10
1.83848e-09
9.1007e-07
-4.56214e-10
1.62847e-09
9.08771e-07
-3.50138e-10
1.41964e-09
9.07642e-07
-2.40726e-10
1.22599e-09
9.06658e-07
-1.37212e-10
1.06316e-09
9.05784e-07
-4.78697e-11
9.43731e-10
9.04988e-07
2.2462e-11
8.67942e-10
9.0425e-07
7.298e-11
8.1794e-10
9.03576e-07
1.04754e-10
7.64104e-10
9.02991e-07
1.18877e-10
6.828e-10
9.02522e-07
1.15471e-10
5.67887e-10
9.02189e-07
9.55126e-11
4.25876e-10
9.01998e-07
6.07567e-11
2.70657e-10
9.01941e-07
1.22438e-11
1.18492e-10
9.02005e-07
-4.75387e-11
-2.33132e-11
-1.11091e-10
-1.53526e-10
1.02121e-06
-2.06718e-09
1.29636e-08
1.01036e-06
-1.97335e-09
1.17776e-08
1.00048e-06
-1.90393e-09
1.06904e-08
9.91492e-07
-1.85452e-09
9.71401e-09
9.83272e-07
-1.82087e-09
8.85988e-09
9.75727e-07
-1.79567e-09
8.1108e-09
9.68796e-07
-1.77014e-09
7.43019e-09
9.62443e-07
-1.73732e-09
6.79279e-09
9.56631e-07
-1.6938e-09
6.19414e-09
9.51325e-07
-1.63986e-09
5.64119e-09
9.46475e-07
-1.57859e-09
5.14635e-09
9.42026e-07
-1.51367e-09
4.71863e-09
9.37929e-07
-1.44763e-09
4.35179e-09
9.34148e-07
-1.38145e-09
4.02557e-09
9.30665e-07
-1.31541e-09
3.71748e-09
9.27469e-07
-1.25001e-09
3.4167e-09
9.24543e-07
-1.18555e-09
3.13177e-09
9.21862e-07
-1.11999e-09
2.87642e-09
9.19401e-07
-1.04959e-09
2.64884e-09
9.17148e-07
-9.72572e-10
2.43661e-09
9.15094e-07
-8.89624e-10
2.2309e-09
9.13234e-07
-8.00283e-10
2.0251e-09
9.11569e-07
-7.01911e-10
1.81632e-09
9.10094e-07
-5.929e-10
1.61148e-09
9.08799e-07
-4.75957e-10
1.42054e-09
9.07667e-07
-3.58818e-10
1.25066e-09
9.06671e-07
-2.52257e-10
1.11085e-09
9.0578e-07
-1.66148e-10
1.0086e-09
9.04966e-07
-1.0576e-10
9.42191e-10
9.04212e-07
-6.91469e-11
8.9645e-10
9.03522e-07
-4.9784e-11
8.44725e-10
9.0292e-07
-4.13604e-11
7.6223e-10
9.02436e-07
-4.03428e-11
6.4002e-10
9.0209e-07
-4.57394e-11
4.8702e-10
9.01887e-07
-5.83417e-11
3.2194e-10
9.0182e-07
-7.92762e-11
1.59042e-10
9.01881e-07
-1.07381e-10
-1.57931e-12
-1.36977e-10
-1.58859e-10
1.02084e-06
-3.22255e-09
1.31144e-08
1.00997e-06
-2.99732e-09
1.18962e-08
1.00009e-06
-2.79979e-09
1.07788e-08
9.91089e-07
-2.63025e-09
9.77258e-09
9.82868e-07
-2.4901e-09
8.89069e-09
9.75327e-07
-2.37278e-09
8.11782e-09
9.68405e-07
-2.26579e-09
7.41765e-09
9.62062e-07
-2.15916e-09
6.76509e-09
9.56261e-07
-2.04967e-09
6.15614e-09
9.50964e-07
-1.94004e-09
5.59788e-09
9.46119e-07
-1.83629e-09
5.10197e-09
9.41674e-07
-1.74325e-09
4.67522e-09
9.37578e-07
-1.66084e-09
4.30936e-09
9.33796e-07
-1.58422e-09
3.98411e-09
9.30311e-07
-1.50691e-09
3.67661e-09
9.27113e-07
-1.42531e-09
3.37319e-09
9.24188e-07
-1.34136e-09
3.0807e-09
9.21511e-07
-1.25851e-09
2.81611e-09
9.19055e-07
-1.17647e-09
2.58244e-09
9.16807e-07
-1.09231e-09
2.36844e-09
9.14757e-07
-1.00315e-09
2.1631e-09
9.12904e-07
-9.06365e-10
1.95897e-09
9.11247e-07
-8.00635e-10
1.75545e-09
9.0978e-07
-6.88013e-10
1.56248e-09
9.08487e-07
-5.74081e-10
1.39139e-09
9.07347e-07
-4.67084e-10
1.24834e-09
9.06334e-07
-3.76291e-10
1.13655e-09
9.05422e-07
-3.08928e-10
1.0548e-09
9.04587e-07
-2.67188e-10
9.96169e-10
9.03817e-07
-2.46863e-10
9.48606e-10
9.03113e-07
-2.38381e-10
8.91797e-10
9.025e-07
-2.31256e-10
8.02926e-10
9.02007e-07
-2.19689e-10
6.72757e-10
9.01653e-07
-2.04529e-10
5.12567e-10
9.01442e-07
-1.90022e-10
3.42812e-10
9.01367e-07
-1.7832e-10
1.73722e-10
9.01427e-07
-1.67395e-10
6.43688e-13
-1.55066e-10
-1.73973e-10
1.01817e-06
-3.17811e-09
1.19179e-08
1.0073e-06
-2.92282e-09
1.07946e-08
9.97421e-07
-2.69133e-09
9.76875e-09
9.88431e-07
-2.48661e-09
8.84695e-09
9.80217e-07
-2.31296e-09
8.03685e-09
9.72686e-07
-2.1657e-09
7.32338e-09
9.65777e-07
-2.03276e-09
6.67573e-09
9.59449e-07
-1.90476e-09
6.07403e-09
9.53662e-07
-1.77976e-09
5.51669e-09
9.48374e-07
-1.66135e-09
5.00982e-09
9.43533e-07
-1.5552e-09
4.55938e-09
9.39089e-07
-1.46475e-09
4.1657e-09
9.34996e-07
-1.38831e-09
3.82074e-09
9.31219e-07
-1.31984e-09
3.51216e-09
9.27738e-07
-1.25147e-09
3.22567e-09
9.24541e-07
-1.17802e-09
2.94987e-09
9.21615e-07
-1.10098e-09
2.68612e-09
9.18936e-07
-1.02547e-09
2.44506e-09
9.16483e-07
-9.53585e-10
2.2303e-09
9.14239e-07
-8.83576e-10
2.03597e-09
9.12193e-07
-8.12362e-10
1.85454e-09
9.10345e-07
-7.36619e-10
1.67859e-09
9.08693e-07
-6.54907e-10
1.50575e-09
9.07231e-07
-5.70107e-10
1.34403e-09
9.05941e-07
-4.88422e-10
1.20485e-09
9.04796e-07
-4.1684e-10
1.09441e-09
9.0377e-07
-3.61051e-10
1.01147e-09
9.02837e-07
-3.23522e-10
9.47583e-10
9.0198e-07
-3.03208e-10
8.92698e-10
9.0119e-07
-2.95714e-10
8.38489e-10
9.00472e-07
-2.9294e-10
7.72904e-10
8.99846e-07
-2.85524e-10
6.80178e-10
8.99341e-07
-2.68476e-10
5.53794e-10
8.98976e-07
-2.43936e-10
4.03999e-10
8.98756e-07
-2.17103e-10
2.474e-10
8.98677e-07
-1.89748e-10
9.10187e-11
8.98737e-07
-1.59307e-10
-6.84963e-11
-1.25893e-10
-2.27107e-10
9.90346e-07
8.53442e-09
9.7971e-07
7.71284e-09
9.70048e-07
6.97032e-09
9.61255e-07
6.3069e-09
9.53222e-07
5.72032e-09
9.45858e-07
5.19785e-09
9.39103e-07
4.72195e-09
9.32916e-07
4.28231e-09
9.27259e-07
3.87807e-09
9.22086e-07
3.51152e-09
9.17348e-07
3.18248e-09
9.12996e-07
2.88694e-09
9.08988e-07
2.61968e-09
9.05291e-07
2.37711e-09
9.01883e-07
2.15662e-09
8.9875e-07
1.95482e-09
8.95879e-07
1.77022e-09
8.9325e-07
1.60389e-09
8.90841e-07
1.4551e-09
8.88637e-07
1.32012e-09
8.86631e-07
1.19452e-09
8.84819e-07
1.07464e-09
8.83204e-07
9.60544e-10
8.81776e-07
8.5744e-10
8.80517e-07
7.71156e-10
8.79397e-07
7.03056e-10
8.78387e-07
6.4872e-10
8.77463e-07
6.00259e-10
8.7661e-07
5.50485e-10
8.75819e-07
4.95054e-10
8.75097e-07
4.29121e-10
8.74465e-07
3.46152e-10
8.73953e-07
2.43486e-10
8.73583e-07
1.2665e-10
8.7336e-07
5.26827e-12
8.73284e-07
-1.13933e-10
8.73352e-07
-2.27086e-10
-3.30896e-10
1.05372e-06
1.79057e-09
2.09658e-08
1.04156e-06
1.63504e-09
1.90148e-08
1.03048e-06
1.504e-09
1.72784e-08
1.02038e-06
1.38638e-09
1.57256e-08
1.01115e-06
1.28102e-09
1.43359e-08
1.00271e-06
1.18858e-09
1.30918e-08
9.94962e-07
1.10793e-09
1.19757e-08
9.87849e-07
1.03687e-09
1.097e-08
9.8131e-07
9.73455e-10
1.00596e-08
9.75292e-07
9.15584e-10
9.2322e-09
9.69754e-07
8.60471e-10
8.47594e-09
9.64662e-07
8.06348e-10
7.77751e-09
9.59985e-07
7.54309e-10
7.12564e-09
9.55693e-07
7.07408e-10
6.51547e-09
9.51753e-07
6.67661e-10
5.94774e-09
9.48135e-07
6.34108e-10
5.42257e-09
9.44813e-07
6.03998e-10
4.9363e-09
9.41765e-07
5.75373e-10
4.48493e-09
9.38974e-07
5.47006e-10
4.06641e-09
9.36425e-07
5.16387e-10
3.6766e-09
9.3411e-07
4.81036e-10
3.30759e-09
9.32022e-07
4.41918e-10
2.9543e-09
9.30149e-07
4.0281e-10
2.61987e-09
9.28476e-07
3.674e-10
2.31091e-09
9.26983e-07
3.38941e-10
2.02992e-09
9.2565e-07
3.20159e-10
1.77344e-09
9.24458e-07
3.11283e-10
1.53558e-09
9.23394e-07
3.09054e-10
1.31227e-09
9.22448e-07
3.08107e-10
1.10157e-09
9.21616e-07
3.03375e-10
9.01724e-10
9.20899e-07
2.91576e-10
7.10685e-10
9.20298e-07
2.70681e-10
5.27448e-10
9.19818e-07
2.40158e-10
3.52858e-10
9.1946e-07
2.02593e-10
1.89947e-10
9.19219e-07
1.63006e-10
4.20526e-11
9.19086e-07
1.26432e-10
-8.9173e-11
9.19048e-07
9.65818e-11
-2.05656e-10
7.30404e-11
-3.12525e-10
1.08343e-06
2.15691e-09
2.64057e-08
1.07091e-06
1.96205e-09
2.4008e-08
1.05951e-06
1.79891e-09
2.18715e-08
1.04912e-06
1.65477e-09
1.99496e-08
1.03963e-06
1.52641e-09
1.82241e-08
1.03095e-06
1.4132e-09
1.66792e-08
1.023e-06
1.31346e-09
1.52936e-08
1.01571e-06
1.2242e-09
1.40464e-08
1.00902e-06
1.14232e-09
1.29222e-08
1.00287e-06
1.06519e-09
1.19057e-08
9.9723e-07
9.90852e-10
1.09753e-08
9.92049e-07
9.1919e-10
1.01101e-08
9.87296e-07
8.52693e-10
9.30068e-09
9.82936e-07
7.95138e-10
8.54759e-09
9.78935e-07
7.48709e-10
7.85082e-09
9.75263e-07
7.1213e-10
7.20436e-09
9.71896e-07
6.8183e-10
6.59983e-09
9.68809e-07
6.54775e-10
6.03326e-09
9.65985e-07
6.28928e-10
5.50258e-09
9.63408e-07
6.01406e-10
4.99873e-09
9.61066e-07
5.6924e-10
4.51139e-09
9.58945e-07
5.32355e-10
4.04372e-09
9.57033e-07
4.93592e-10
3.60776e-09
9.55316e-07
4.56464e-10
3.21008e-09
9.53779e-07
4.2448e-10
2.85264e-09
9.52406e-07
4.00682e-10
2.5379e-09
9.51183e-07
3.86139e-10
2.26338e-09
9.50096e-07
3.79327e-10
2.0168e-09
9.49136e-07
3.76733e-10
1.77996e-09
9.48298e-07
3.73771e-10
1.53871e-09
9.47577e-07
3.65623e-10
1.29103e-09
9.46973e-07
3.47662e-10
1.0413e-09
9.46486e-07
3.17087e-10
7.93351e-10
9.46116e-07
2.75312e-10
5.54849e-10
9.4586e-07
2.27342e-10
3.36912e-10
9.45712e-07
1.78953e-10
1.45384e-10
9.45664e-07
1.35484e-10
-1.74613e-11
9.80279e-11
-1.55798e-10
1.08546e-06
1.6924e-09
2.85048e-08
1.07292e-06
1.52838e-09
2.59391e-08
1.0615e-06
1.38972e-09
2.36664e-08
1.05109e-06
1.26722e-09
2.16279e-08
1.04158e-06
1.15798e-09
1.97966e-08
1.03288e-06
1.06107e-09
1.81498e-08
1.02493e-06
9.74503e-10
1.66673e-08
1.01763e-06
8.94985e-10
1.53349e-08
1.01094e-06
8.19471e-10
1.41378e-08
1.00481e-06
7.46554e-10
1.30504e-08
9.99176e-07
6.76627e-10
1.20414e-08
9.94015e-07
6.11637e-10
1.1093e-08
9.89285e-07
5.54701e-10
1.0207e-08
9.84948e-07
5.08866e-10
9.39199e-09
9.80969e-07
4.755e-10
8.64939e-09
9.77318e-07
4.53347e-10
7.96732e-09
9.7397e-07
4.39305e-10
7.32774e-09
9.70903e-07
4.30292e-10
6.72185e-09
9.68097e-07
4.23958e-10
6.14957e-09
9.65536e-07
4.17733e-10
5.60361e-09
9.63207e-07
4.08915e-10
5.07397e-09
9.61094e-07
3.9619e-10
4.56518e-09
9.59186e-07
3.79874e-10
4.08931e-09
9.57468e-07
3.6099e-10
3.65152e-09
9.5593e-07
3.41328e-10
3.2553e-09
9.54557e-07
3.23575e-10
2.90714e-09
9.53337e-07
3.10565e-10
2.60661e-09
9.52257e-07
3.04378e-10
2.33913e-09
9.51306e-07
3.0513e-10
2.08238e-09
9.50477e-07
3.10105e-10
1.82284e-09
9.49763e-07
3.14156e-10
1.56118e-09
9.49162e-07
3.10986e-10
1.29716e-09
9.48674e-07
2.95474e-10
1.02612e-09
9.48302e-07
2.66299e-10
7.54251e-10
9.48043e-07
2.26052e-10
4.97848e-10
9.47893e-07
1.79557e-10
2.71972e-10
9.47846e-07
1.32513e-10
8.78004e-11
8.86971e-11
-6.17275e-11
1.08553e-06
1.04527e-09
2.84773e-08
1.07299e-06
9.29344e-10
2.59231e-08
1.06158e-06
8.25381e-10
2.36721e-08
1.05117e-06
7.30551e-10
2.1657e-08
1.04167e-06
6.44335e-10
1.98459e-08
1.03298e-06
5.66991e-10
1.82143e-08
1.02502e-06
4.96836e-10
1.67447e-08
1.01773e-06
4.30836e-10
1.54246e-08
1.01105e-06
3.66981e-10
1.42326e-08
1.00492e-06
3.05625e-10
1.31335e-08
9.99299e-07
2.49056e-10
1.20982e-08
9.94153e-07
2.00125e-10
1.11219e-08
9.8944e-07
1.61343e-10
1.02176e-08
9.85119e-07
1.34196e-10
9.39611e-09
9.81156e-07
1.18721e-10
8.65686e-09
9.77518e-07
1.13729e-10
7.98435e-09
9.74182e-07
1.17147e-10
7.35631e-09
9.71125e-07
1.26686e-10
6.7632e-09
9.68327e-07
1.40339e-10
6.2054e-09
9.65773e-07
1.56041e-10
5.67349e-09
9.63448e-07
1.71311e-10
5.15649e-09
9.61338e-07
1.84094e-10
4.66134e-09
9.5943e-07
1.92972e-10
4.19836e-09
9.5771e-07
1.96525e-10
3.76457e-09
9.56171e-07
1.95e-10
3.35686e-09
9.54801e-07
1.9055e-10
2.98354e-09
9.53587e-07
1.87243e-10
2.65263e-09
9.52514e-07
1.89474e-10
2.35885e-09
9.5157e-07
1.99148e-10
2.08778e-09
9.50745e-07
2.14639e-10
1.83186e-09
9.50031e-07
2.31094e-10
1.59062e-09
9.49425e-07
2.41968e-10
1.35213e-09
9.48931e-07
2.41243e-10
1.09886e-09
9.48551e-07
2.25806e-10
8.31435e-10
9.48286e-07
1.95873e-10
5.67321e-10
9.48134e-07
1.54883e-10
3.27403e-10
9.48088e-07
1.08114e-10
1.28929e-10
6.15566e-11
-3.28872e-11
1.08546e-06
2.79771e-08
1.07293e-06
4.44826e-10
2.54705e-08
1.06152e-06
3.65891e-10
2.32612e-08
1.05112e-06
2.88701e-10
2.12791e-08
1.04162e-06
2.1564e-10
1.94997e-08
1.03293e-06
1.48313e-10
1.79041e-08
1.02498e-06
8.62396e-11
1.64728e-08
1.01769e-06
2.80109e-11
1.51832e-08
1.01101e-06
-2.72424e-11
1.40035e-08
1.00489e-06
-7.8041e-11
1.28988e-08
9.99276e-07
-1.21289e-10
1.18528e-08
9.94141e-07
-1.54361e-10
1.08741e-08
9.89439e-07
-1.75876e-10
9.97667e-09
9.8513e-07
-1.8613e-10
9.16569e-09
9.81176e-07
-1.86433e-10
8.43707e-09
9.77548e-07
-1.78252e-10
7.77669e-09
9.7422e-07
-1.62898e-10
7.16711e-09
9.71168e-07
-1.41478e-10
6.60194e-09
9.68374e-07
-1.14911e-10
6.07658e-09
9.65822e-07
-8.46003e-11
5.57318e-09
9.63497e-07
-5.28527e-11
5.08176e-09
9.61386e-07
-2.21916e-11
4.61612e-09
9.59473e-07
5.14392e-12
4.18464e-09
9.57748e-07
2.78351e-11
3.77065e-09
9.56205e-07
4.53477e-11
3.35973e-09
9.54836e-07
5.90718e-11
2.96122e-09
9.53625e-07
7.21683e-11
2.59567e-09
9.52559e-07
8.83796e-11
2.27408e-09
9.51622e-07
1.09602e-10
1.99486e-09
9.508e-07
1.34661e-10
1.75508e-09
9.50083e-07
1.59544e-10
1.54662e-09
9.49469e-07
1.78581e-10
1.34338e-09
9.48964e-07
1.86327e-10
1.11826e-09
9.48573e-07
1.79501e-10
8.6797e-10
9.48299e-07
1.57463e-10
6.07329e-10
9.48141e-07
1.22301e-10
3.56838e-10
9.48094e-07
7.83564e-11
1.37018e-10
3.17355e-11
-4.90561e-11
1.07287e-06
5.52272e-11
2.52251e-08
1.06146e-06
-2.04394e-12
2.30178e-08
1.05106e-06
-6.43881e-11
2.10311e-08
1.04157e-06
-1.27698e-10
1.9252e-08
1.03289e-06
-1.88597e-10
1.76701e-08
1.02494e-06
-2.4571e-10
1.62584e-08
1.01765e-06
-2.98226e-10
1.49783e-08
1.01097e-06
-3.45116e-10
1.37906e-08
1.00485e-06
-3.84641e-10
1.26696e-08
9.99252e-07
-4.14384e-10
1.16144e-08
9.94127e-07
-4.32485e-10
1.06396e-08
9.89434e-07
-4.38773e-10
9.75417e-09
9.85133e-07
-4.34936e-10
8.95507e-09
9.81187e-07
-4.23517e-10
8.23416e-09
9.77565e-07
-4.06488e-10
7.58029e-09
9.74243e-07
-3.84629e-10
6.98383e-09
9.71196e-07
-3.57693e-10
6.4418e-09
9.68405e-07
-3.2516e-10
5.94349e-09
9.65854e-07
-2.87582e-10
5.46454e-09
9.63529e-07
-2.47051e-10
4.99714e-09
9.61415e-07
-2.05979e-10
4.55926e-09
9.59498e-07
-1.65963e-10
4.15448e-09
9.57768e-07
-1.27806e-10
3.7561e-09
9.56222e-07
-9.1799e-11
3.34339e-09
9.54852e-07
-5.77037e-11
2.92727e-09
9.53644e-07
-2.47895e-11
2.53689e-09
9.52583e-07
7.88994e-12
2.19688e-09
9.5165e-07
4.06343e-11
1.9183e-09
9.50828e-07
7.23906e-11
1.69995e-09
9.50106e-07
1.0048e-10
1.52301e-09
9.49484e-07
1.21242e-10
1.34959e-09
9.48967e-07
1.31231e-10
1.14795e-09
9.48563e-07
1.28464e-10
9.12647e-10
9.48278e-07
1.12423e-10
6.54359e-10
9.48113e-07
8.40815e-11
3.90808e-10
9.48062e-07
4.60816e-11
1.45002e-10
3.08666e-12
-7.13315e-11
1.07282e-06
-3.5384e-10
2.53162e-08
1.06141e-06
-3.80139e-10
2.30669e-08
1.05101e-06
-4.17551e-10
2.10348e-08
1.04151e-06
-4.61037e-10
1.92191e-08
1.03284e-06
-5.07176e-10
1.76152e-08
1.02489e-06
-5.52283e-10
1.61888e-08
1.01761e-06
-5.92771e-10
1.48893e-08
1.01094e-06
-6.25791e-10
1.36761e-08
1.00483e-06
-6.49595e-10
1.25339e-08
9.99238e-07
-6.62965e-10
1.14693e-08
9.94122e-07
-6.65421e-10
1.04966e-08
9.89438e-07
-6.57916e-10
9.62124e-09
9.85143e-07
-6.42756e-10
8.83582e-09
9.81202e-07
-6.22669e-10
8.1265e-09
9.77584e-07
-5.9949e-10
7.47931e-09
9.74266e-07
-5.73461e-10
6.88709e-09
9.71223e-07
-5.43347e-10
6.35044e-09
9.68436e-07
-5.07824e-10
5.86049e-09
9.65888e-07
-4.66789e-10
5.3949e-09
9.63564e-07
-4.2163e-10
4.94581e-09
9.61449e-07
-3.73855e-10
4.52522e-09
9.59529e-07
-3.23926e-10
4.12995e-09
9.57798e-07
-2.71828e-10
3.73366e-09
9.5625e-07
-2.18035e-10
3.32078e-09
9.54879e-07
-1.63947e-10
2.90375e-09
9.53671e-07
-1.11913e-10
2.51132e-09
9.52611e-07
-6.45389e-11
2.17252e-09
9.51677e-07
-2.33471e-11
1.90497e-09
9.50852e-07
1.06757e-11
1.70723e-09
9.50124e-07
3.67808e-11
1.55326e-09
9.49492e-07
5.40652e-11
1.39955e-09
9.48965e-07
6.22809e-11
1.21257e-09
9.48549e-07
6.15881e-11
9.84553e-10
9.48254e-07
5.18115e-11
7.23298e-10
9.4808e-07
3.27177e-11
4.45934e-10
9.48026e-07
5.11424e-12
1.76958e-10
-2.78037e-11
-6.84968e-11
1.07279e-06
-8.86334e-10
2.56927e-08
1.06137e-06
-8.62569e-10
2.33772e-08
1.05096e-06
-8.54009e-10
2.12759e-08
1.04147e-06
-8.57969e-10
1.93958e-08
1.0328e-06
-8.71921e-10
1.77377e-08
1.02486e-06
-8.90193e-10
1.62662e-08
1.01758e-06
-9.05886e-10
1.49261e-08
1.01092e-06
-9.14311e-10
1.36777e-08
1.00481e-06
-9.13778e-10
1.25095e-08
9.99233e-07
-9.04595e-10
1.14289e-08
9.94126e-07
-8.88497e-10
1.04498e-08
9.89449e-07
-8.67528e-10
9.58015e-09
9.85158e-07
-8.43378e-10
8.81068e-09
9.81218e-07
-8.17137e-10
8.11813e-09
9.77602e-07
-7.88831e-10
7.47826e-09
9.74286e-07
-7.57524e-10
6.87997e-09
9.71248e-07
-7.22206e-10
6.32902e-09
9.68466e-07
-6.82233e-10
5.82879e-09
9.65921e-07
-6.37334e-10
5.36562e-09
9.63598e-07
-5.87655e-10
4.92659e-09
9.61484e-07
-5.33002e-10
4.50979e-09
9.59566e-07
-4.72626e-10
4.10683e-09
9.57837e-07
-4.06441e-10
3.70234e-09
9.56289e-07
-3.36044e-10
3.29368e-09
9.54916e-07
-2.65028e-10
2.89374e-09
9.53706e-07
-1.98437e-10
2.5231e-09
9.52641e-07
-1.41834e-10
2.20567e-09
9.51701e-07
-9.7943e-11
1.95813e-09
9.50868e-07
-6.74359e-11
1.77844e-09
9.50133e-07
-4.89764e-11
1.63937e-09
9.49493e-07
-3.94914e-11
1.49731e-09
9.48956e-07
-3.51447e-11
1.3169e-09
9.48532e-07
-3.32845e-11
1.08696e-09
9.48228e-07
-3.41e-11
8.15524e-10
9.48048e-07
-3.94602e-11
5.23213e-10
9.47988e-07
-5.02379e-11
2.33832e-10
9.48044e-07
-6.53967e-11
-4.15348e-11
-8.25162e-11
-2.98817e-10
1.07278e-06
-1.53999e-09
2.61861e-08
1.06134e-06
-1.44639e-09
2.37965e-08
1.05093e-06
-1.37107e-09
2.16206e-08
1.04143e-06
-1.31527e-09
1.96667e-08
1.03276e-06
-1.27909e-09
1.79418e-08
1.02482e-06
-1.2554e-09
1.64142e-08
1.01755e-06
-1.23367e-09
1.5028e-08
1.01089e-06
-1.20672e-09
1.37429e-08
1.0048e-06
-1.17294e-09
1.25468e-08
9.99226e-07
-1.13512e-09
1.14461e-08
9.94125e-07
-1.09776e-09
1.04566e-08
9.89451e-07
-1.06355e-09
9.58875e-09
9.85161e-07
-1.03233e-09
8.83044e-09
9.81221e-07
-1.00189e-09
8.15003e-09
9.77605e-07
-9.68648e-10
7.51347e-09
9.7429e-07
-9.29876e-10
6.9038e-09
9.71255e-07
-8.85832e-10
6.3309e-09
9.68476e-07
-8.38043e-10
5.81128e-09
9.65934e-07
-7.86844e-10
5.34067e-09
9.63612e-07
-7.31241e-10
4.90122e-09
9.615e-07
-6.69188e-10
4.47965e-09
9.59585e-07
-5.9855e-10
4.06582e-09
9.57859e-07
-5.19498e-10
3.65541e-09
9.56313e-07
-4.35616e-10
3.25706e-09
9.54938e-07
-3.53319e-10
2.88424e-09
9.53721e-07
-2.80354e-10
2.54937e-09
9.52646e-07
-2.23062e-10
2.26664e-09
9.51695e-07
-1.84273e-10
2.04587e-09
9.50852e-07
-1.63465e-10
1.88181e-09
9.50106e-07
-1.56962e-10
1.7503e-09
9.49457e-07
-1.57694e-10
1.61161e-09
9.48913e-07
-1.57382e-10
1.42919e-09
9.48481e-07
-1.5106e-10
1.18915e-09
9.48171e-07
-1.39714e-10
9.02958e-10
9.47984e-07
-1.2738e-10
5.96482e-10
9.47919e-07
-1.164e-10
2.90107e-10
9.47973e-07
-1.06984e-10
-1.38597e-11
-9.97131e-11
-3.09038e-10
1.07263e-06
-2.01345e-09
2.6171e-08
1.06118e-06
-1.85928e-09
2.37541e-08
1.05076e-06
-1.72385e-09
2.15518e-08
1.04126e-06
-1.61301e-09
1.95703e-08
1.03259e-06
-1.53037e-09
1.78183e-08
1.02465e-06
-1.468e-09
1.62672e-08
1.01738e-06
-1.41194e-09
1.48623e-08
1.01073e-06
-1.35289e-09
1.35643e-08
1.00464e-06
-1.28997e-09
1.23626e-08
9.99067e-07
-1.22853e-09
1.12632e-08
9.93967e-07
-1.17525e-09
1.02801e-08
9.89291e-07
-1.13286e-09
9.41993e-09
9.85e-07
-1.09923e-09
8.66797e-09
9.81058e-07
-1.06889e-09
7.99304e-09
9.77439e-07
-1.03458e-09
7.36113e-09
9.74122e-07
-9.91449e-10
6.75196e-09
9.71084e-07
-9.40815e-10
6.17341e-09
9.68303e-07
-8.86866e-10
5.64587e-09
9.65759e-07
-8.31638e-10
5.17119e-09
9.63437e-07
-7.74188e-10
4.73366e-09
9.61324e-07
-7.11078e-10
4.31789e-09
9.5941e-07
-6.38291e-10
3.91265e-09
9.57686e-07
-5.55556e-10
3.51631e-09
9.56139e-07
-4.68336e-10
3.14143e-09
9.5476e-07
-3.85953e-10
2.80319e-09
9.53535e-07
-3.1811e-10
2.51152e-09
9.52447e-07
-2.70884e-10
2.2721e-09
9.5148e-07
-2.45164e-10
2.08256e-09
9.5062e-07
-2.38481e-10
1.93125e-09
9.49859e-07
-2.45354e-10
1.79831e-09
9.49196e-07
-2.5598e-10
1.65268e-09