/*--------------------------------*- C++ -*----------------------------------*\
| =========                 |                                                 |
| \\      /  F ield         | OpenFOAM: The Open Source CFD Toolbox           |
|  \\    /   O peration     | Version:  2.3.1                                 |
|   \\  /    A nd           | Web:      www.OpenFOAM.org                      |
|    \\/     M anipulation  |                                                 |
\*---------------------------------------------------------------------------*/
FoamFile
{
    version     2.0;
    format      ascii;
    class       volScalarField;
    location    "5";
    object      Sed;
}
// * * * * * * * * * * * * * * * * * * * * * * * * * * * * * * * * * * * * * //

dimensions      [0 0 0 0 0 0 0];

internalField   nonuniform List<scalar> 
38262
(
3.07221e-40
1.12487e-41
4.04617e-43
1.42983e-44
4.96429e-46
1.69388e-47
5.68168e-49
1.87385e-50
6.07789e-52
1.93922e-53
6.08783e-55
1.88091e-56
5.72075e-58
1.71326e-59
5.05335e-61
1.46829e-62
4.20353e-64
1.18597e-65
3.29821e-67
9.04317e-69
2.44506e-70
6.52044e-72
1.7154e-73
4.45283e-75
1.14067e-76
2.88407e-78
7.19853e-80
1.77395e-81
4.31684e-83
1.03752e-84
2.46321e-86
5.77769e-88
1.33914e-89
3.06747e-91
6.94513e-93
1.55447e-94
3.43987e-96
7.52683e-98
2.35096e-38
8.91278e-40
3.31477e-41
1.2096e-42
4.3315e-44
1.52264e-45
5.25632e-47
1.7825e-48
5.93976e-50
1.94546e-51
6.26487e-53
1.98412e-54
6.18184e-56
1.89531e-57
5.71959e-59
1.69934e-60
4.97196e-62
1.43289e-63
4.0685e-65
1.13839e-66
3.13964e-68
8.53693e-70
2.28899e-71
6.05323e-73
1.57912e-74
4.06443e-76
1.03233e-77
2.58793e-79
6.40438e-81
1.56487e-82
3.77601e-84
8.99953e-86
2.11889e-87
4.92913e-89
1.13309e-90
2.57426e-92
5.78081e-94
1.28331e-95
3.57997e-37
1.40763e-38
5.42102e-40
2.04555e-41
7.56452e-43
2.74281e-44
9.75572e-46
3.4053e-47
1.16693e-48
3.92717e-50
1.29841e-51
4.21877e-53
1.34756e-54
4.2328e-56
1.30783e-57
3.97591e-59
1.18962e-60
3.50411e-62
1.01639e-63
2.9038e-65
8.17333e-67
2.26706e-68
6.19805e-70
1.67057e-71
4.44001e-73
1.16385e-74
3.00944e-76
7.67781e-78
1.93303e-79
4.8037e-81
1.17851e-82
2.85489e-84
6.83003e-86
1.61401e-87
3.768e-89
8.69157e-91
1.98119e-92
4.4633e-94
1.3634e-36
5.54808e-38
2.20878e-39
8.60643e-41
3.28314e-42
1.2268e-43
4.49264e-45
1.61317e-46
5.68193e-48
1.9639e-49
6.66383e-51
2.2206e-52
7.26955e-54
2.33873e-55
7.39641e-57
2.3002e-58
7.03638e-60
2.11787e-61
6.27389e-63
1.82971e-64
5.25475e-66
1.48647e-67
4.14284e-69
1.13783e-70
3.08034e-72
8.22155e-74
2.16389e-75
5.61732e-77
1.43856e-78
3.63514e-80
9.0655e-82
2.23164e-83
5.42385e-85
1.30174e-86
3.08568e-88
7.2253e-90
1.67148e-91
3.82074e-93
2.26289e-36
9.3538e-38
3.78151e-39
1.49582e-40
5.79114e-42
2.19555e-43
8.15545e-45
2.96957e-46
1.06042e-47
3.71525e-49
1.2776e-50
4.31384e-52
1.43068e-53
4.66206e-55
1.49316e-56
4.70182e-58
1.45611e-59
4.43629e-61
1.33005e-62
3.92522e-64
1.14058e-65
3.26412e-67
9.20212e-69
2.55621e-70
6.99838e-72
1.88884e-73
5.02664e-75
1.31928e-76
3.41548e-78
8.7239e-80
2.19885e-81
5.47007e-83
1.34337e-84
3.25758e-86
7.80136e-88
1.84541e-89
4.3125e-91
9.9573e-93
1.10133e-37
4.47539e-39
1.77955e-40
6.92663e-42
2.63984e-43
9.85579e-45
3.60655e-46
1.29418e-47
4.55616e-49
1.57427e-50
5.34069e-52
1.77949e-53
5.82536e-55
1.8742e-56
5.92814e-58
1.84401e-59
5.64261e-61
1.69901e-62
5.0354e-64
1.46933e-65
4.22244e-67
1.19527e-68
3.33381e-70
9.16423e-72
2.48334e-73
6.63519e-75
1.74836e-76
4.54413e-78
1.16517e-79
2.94802e-81
7.36145e-83
1.81462e-84
4.41665e-86
1.06161e-87
2.52048e-89
5.91166e-91
1.36997e-92
1.10175e-37
4.47723e-39
1.78034e-40
6.92995e-42
2.64119e-43
9.86102e-45
3.60851e-46
1.29491e-47
4.55882e-49
1.57522e-50
5.34398e-52
1.7806e-53
5.82895e-55
1.87534e-56
5.93167e-58
1.84508e-59
5.64583e-61
1.69995e-62
5.03812e-64
1.47009e-65
4.22452e-67
1.19583e-68
3.33531e-70
9.1682e-72
2.48438e-73
6.63792e-75
1.74907e-76
4.54588e-78
1.16558e-79
2.94895e-81
7.36346e-83
1.81504e-84
4.41746e-86
1.06177e-87
2.5208e-89
5.9124e-91
1.37016e-92
9.3524e-38
3.78035e-39
1.49539e-40
5.79102e-42
2.19602e-43
8.15844e-45
2.97094e-46
1.061e-47
3.71766e-49
1.27857e-50
4.31753e-52
1.43201e-53
4.66657e-55
1.49463e-56
4.70649e-58
1.45757e-59
4.44076e-61
1.33139e-62
3.92913e-64
1.14168e-65
3.26714e-67
9.21023e-69
2.55838e-70
7.00419e-72
1.89038e-73
5.03071e-75
1.32033e-76
3.41809e-78
8.73e-80
2.20017e-81
5.4727e-83
1.34385e-84
3.25835e-86
7.80251e-88
1.84559e-89
4.31292e-91
9.95876e-93
2.27056e-94
5.54607e-38
2.20765e-39
8.60249e-41
3.28266e-42
1.22696e-43
4.49407e-45
1.61388e-46
5.68513e-48
1.96531e-49
6.66978e-51
2.22294e-52
7.27815e-54
2.34167e-55
7.406e-57
2.30323e-58
7.04579e-60
2.12075e-61
6.28253e-63
1.83223e-64
5.26183e-66
1.4884e-67
4.14801e-69
1.13921e-70
3.08398e-72
8.23111e-74
2.16638e-75
5.6237e-77
1.44013e-78
3.63875e-80
9.07313e-82
2.2331e-83
5.4263e-85
1.30209e-86
3.08607e-88
7.22565e-90
1.67156e-91
3.82125e-93
8.63323e-95
1.40693e-38
5.41771e-40
2.04443e-41
7.56279e-43
2.74297e-44
9.75813e-46
3.4066e-47
1.16755e-48
3.93002e-50
1.29965e-51
4.22377e-53
1.3494e-54
4.23912e-56
1.30987e-57
3.98231e-59
1.19158e-60
3.51007e-62
1.01816e-63
2.90892e-65
8.18765e-67
2.27093e-68
6.20826e-70
1.67324e-71
4.44692e-73
1.16563e-74
3.01399e-76
7.68918e-78
1.93576e-79
4.80989e-81
1.1798e-82
2.85731e-84
6.83399e-86
1.61456e-87
3.76857e-89
8.69197e-91
1.98126e-92
4.46388e-94
9.94231e-96
8.90685e-40
3.31228e-41
1.20879e-42
4.32984e-44
1.52243e-45
5.25643e-47
1.78278e-48
5.94169e-50
1.94652e-51
6.27e-53
1.9863e-54
6.19009e-56
1.89818e-57
5.72896e-59
1.70227e-60
4.9809e-62
1.43558e-63
4.07643e-65
1.14067e-66
3.14597e-68
8.55387e-70
2.29339e-71
6.06449e-73
1.58198e-74
4.07166e-76
1.03414e-77
2.59236e-79
6.41485e-81
1.5672e-82
3.78081e-84
9.00838e-86
2.1203e-87
4.93091e-89
1.13323e-90
2.57419e-92
5.78042e-94
1.28332e-95
2.81724e-97
1.12392e-41
4.04243e-43
1.42861e-44
4.96113e-46
1.69309e-47
5.67975e-49
1.87348e-50
6.07779e-52
1.93966e-53
6.09096e-55
1.88246e-56
5.72715e-58
1.71561e-59
5.06128e-61
1.47082e-62
4.21126e-64
1.18828e-65
3.30498e-67
9.06243e-69
2.45037e-70
6.53451e-72
1.71901e-73
4.46185e-75
1.1429e-76
2.88953e-78
7.21177e-80
1.77711e-81
4.32418e-83
1.03914e-84
2.46655e-86
5.78393e-88
1.34015e-89
3.06876e-91
6.94606e-93
1.55436e-94
3.43928e-96
7.52568e-98
1.62871e-99
7.91734e-39
2.99498e-40
1.11162e-41
4.04902e-43
1.44752e-44
5.08065e-46
1.75142e-47
5.93158e-49
1.97417e-50
6.45874e-52
2.07769e-53
6.57368e-55
2.04623e-56
6.26806e-58
1.88999e-59
5.61094e-61
1.64046e-62
4.72442e-64
1.34055e-65
3.74859e-67
1.03324e-68
2.80784e-70
7.52451e-72
1.98884e-73
5.18583e-75
1.33416e-76
3.38725e-78
8.48807e-80
2.09977e-81
5.12883e-83
1.23715e-84
2.94755e-86
6.93757e-88
1.61335e-89
3.70759e-91
8.4208e-93
1.89048e-94
4.19568e-96
5.0659e-37
1.98279e-38
7.60372e-40
2.85846e-41
1.05351e-42
3.80809e-44
1.35059e-45
4.70177e-47
1.60724e-48
5.3966e-50
1.78042e-51
5.77329e-53
1.84061e-54
5.77122e-56
1.78018e-57
5.40345e-59
1.61437e-60
4.74867e-62
1.37558e-63
3.92513e-65
1.10352e-66
3.05748e-68
8.35028e-70
2.24845e-71
5.97028e-73
1.56358e-74
4.03964e-76
1.02978e-77
2.59069e-79
6.43339e-81
1.57725e-82
3.81834e-84
9.12938e-86
2.15611e-87
5.03073e-89
1.1598e-90
2.64232e-92
5.9498e-94
7.18689e-36
2.91526e-37
1.15688e-38
4.49465e-40
1.70997e-41
6.37308e-43
2.32807e-44
8.3396e-46
2.9308e-47
1.01087e-48
3.42318e-50
1.13855e-51
3.72062e-53
1.19497e-54
3.77327e-56
1.17173e-57
3.57949e-59
1.07602e-60
3.18381e-62
9.27504e-64
2.66098e-65
7.52023e-67
2.09405e-68
5.74656e-70
1.55449e-71
4.14592e-73
1.09042e-74
2.8288e-76
7.23994e-78
1.82845e-79
4.55756e-81
1.12142e-82
2.72438e-84
6.53601e-86
1.54872e-87
3.62508e-89
8.38318e-91
1.91562e-92
2.75205e-35
1.154e-36
4.72885e-38
1.89524e-39
7.43088e-41
2.85154e-42
1.07157e-43
3.94549e-45
1.42406e-46
5.04085e-48
1.75068e-49
5.96773e-51
1.99744e-52
6.56674e-54
2.12123e-55
6.73488e-57
2.10242e-58
6.45499e-60
1.94978e-61
5.79586e-63
1.69595e-64
4.88636e-66
1.38658e-67
3.87615e-69
1.06771e-70
2.8987e-72
7.75802e-74
2.04733e-75
5.32857e-77
1.36808e-78
3.46561e-80
8.66371e-82
2.13783e-83
5.208e-85
1.25279e-86
2.97622e-88
6.98396e-90
1.61902e-91
4.64776e-35
1.97918e-36
8.23343e-38
3.34903e-39
1.33232e-40
5.18614e-42
1.97637e-43
7.37768e-45
2.69912e-46
9.68244e-48
3.40718e-49
1.17659e-50
3.98879e-52
1.32799e-53
4.34345e-55
1.39608e-56
4.41131e-58
1.3707e-59
4.18959e-61
1.26004e-62
3.72993e-64
1.08703e-65
3.11975e-67
8.81942e-69
2.45648e-70
6.74287e-72
1.82445e-73
4.86707e-75
1.28039e-76
3.32239e-78
8.50505e-80
2.14839e-81
5.35612e-83
1.3182e-84
3.20319e-86
7.68663e-88
1.82183e-89
4.26548e-91
2.35168e-36
9.83557e-38
4.02074e-39
1.60792e-40
6.29166e-42
2.40989e-43
9.04055e-45
3.32352e-46
1.19792e-47
4.23522e-49
1.46935e-50
5.00414e-52
1.67359e-53
5.49832e-55
1.7751e-56
5.63343e-58
1.75799e-59
5.3962e-61
1.62975e-62
4.84441e-64
1.41764e-65
4.08515e-67
1.15951e-68
3.24253e-70
8.93591e-72
2.42738e-73
6.50088e-75
1.71684e-76
4.47195e-78
1.14911e-79
2.91354e-81
7.29063e-83
1.80089e-84
4.39212e-86
1.0578e-87
2.51622e-89
5.91254e-91
2.35279e-36
9.84016e-38
4.02263e-39
1.6087e-40
6.29486e-42
2.41115e-43
9.04537e-45
3.32532e-46
1.19858e-47
4.23761e-49
1.47018e-50
5.00699e-52
1.67453e-53
5.50136e-55
1.77606e-56
5.63641e-58
1.7589e-59
5.39892e-61
1.63055e-62
4.84669e-64
1.41828e-65
4.08689e-67
1.15999e-68
3.24383e-70
8.93939e-72
2.4283e-73
6.50329e-75
1.71745e-76
4.47344e-78
1.14946e-79
2.91432e-81
7.29233e-83
1.80125e-84
4.39288e-86
1.05797e-87
2.5166e-89
5.9135e-91
1.97903e-36
8.23333e-38
3.34836e-39
1.33226e-40
5.18716e-42
1.97712e-43
7.38133e-45
2.70067e-46
9.68866e-48
3.4096e-49
1.1775e-50
3.99208e-52
1.32913e-53
4.34725e-55
1.39732e-56
4.41524e-58
1.37193e-59
4.19332e-61
1.26114e-62
3.73311e-64
1.08792e-65
3.12221e-67
8.82619e-69
2.45834e-70
6.74791e-72
1.8258e-73
4.87062e-75
1.2813e-76
3.32456e-78
8.50996e-80
2.14943e-81
5.35821e-83
1.31859e-84
3.20394e-86
7.68813e-88
1.82219e-89
4.26647e-91
9.85973e-93
1.15373e-36
4.72798e-38
1.89459e-39
7.4298e-41
2.85194e-42
1.07196e-43
3.94746e-45
1.42492e-46
5.04443e-48
1.75213e-49
5.97335e-51
1.9995e-52
6.57395e-54
2.12363e-55
6.74267e-57
2.10489e-58
6.46266e-60
1.95212e-61
5.80277e-63
1.69793e-64
4.89191e-66
1.38811e-67
3.88033e-69
1.06884e-70
2.90177e-72
7.76618e-74
2.04946e-75
5.3339e-77
1.36934e-78
3.4684e-80
8.66942e-82
2.13891e-83
5.2099e-85
1.25311e-86
2.97681e-88
6.98533e-90
1.61944e-91
3.70964e-93
2.91421e-37
1.15654e-38
4.49278e-40
1.70965e-41
6.37373e-43
2.32882e-44
8.34348e-46
2.93251e-47
1.01159e-48
3.42621e-50
1.13975e-51
3.72505e-53
1.19652e-54
3.77839e-56
1.17337e-57
3.58462e-59
1.0776e-60
3.18859e-62
9.28912e-64
2.665e-65
7.53141e-67
2.09709e-68
5.75475e-70
1.55668e-71
4.15171e-73
1.09194e-74
2.83266e-76
7.24941e-78
1.83065e-79
4.56233e-81
1.12237e-82
2.72613e-84
6.53897e-86
1.5492e-87
3.62588e-89
8.38496e-91
1.91617e-92
4.32786e-94
1.98174e-38
7.60009e-40
2.85692e-41
1.05321e-42
3.80802e-44
1.35081e-45
4.70315e-47
1.60792e-48
5.3998e-50
1.78184e-51
5.77916e-53
1.84283e-54
5.77902e-56
1.78277e-57
5.41167e-59
1.61692e-60
4.75647e-62
1.37793e-63
3.932e-65
1.10547e-66
3.06282e-68
8.36458e-70
2.25222e-71
5.98016e-73
1.56615e-74
4.04623e-76
1.03143e-77
2.59467e-79
6.44246e-81
1.57917e-82
3.82207e-84
9.13584e-86
2.15709e-87
5.03203e-89
1.15996e-90
2.64261e-92
5.95086e-94
1.32477e-95
2.99293e-40
1.1108e-41
4.04616e-43
1.44685e-44
5.0794e-46
1.75124e-47
5.93171e-49
1.97451e-50
6.46118e-52
2.079e-53
6.57957e-55
2.04855e-56
6.27643e-58
1.89279e-59
5.6199e-61
1.64323e-62
4.73284e-64
1.34306e-65
3.75584e-67
1.03527e-68
2.81334e-70
7.53893e-72
1.99255e-73
5.19527e-75
1.33655e-76
3.39319e-78
8.5026e-80
2.10321e-81
5.13654e-83
1.23876e-84
2.95062e-86
6.94272e-88
1.61408e-89
3.70833e-91
8.42107e-93
1.89041e-94
4.19571e-96
9.20816e-98
7.59221e-38
2.95984e-39
1.13102e-40
4.23748e-42
1.55682e-43
5.61071e-45
1.9844e-46
6.8903e-48
2.34959e-49
7.87094e-51
2.59105e-52
8.38448e-54
2.66783e-55
8.34929e-57
2.57083e-58
7.79013e-60
2.32368e-61
6.82459e-63
1.97403e-64
5.62483e-66
1.57924e-67
4.36988e-69
1.19199e-70
3.20583e-72
8.50286e-74
2.22447e-75
5.74123e-77
1.46213e-78
3.67493e-80
9.1176e-82
2.23337e-83
5.40217e-85
1.29057e-86
3.04556e-88
7.10063e-90
1.63581e-91
3.72419e-93
8.3803e-95
4.33332e-36
1.7472e-37
6.89471e-39
2.66501e-40
1.00912e-41
3.74459e-43
1.36232e-44
4.86148e-46
1.70238e-47
5.85205e-49
1.97549e-50
6.55093e-52
2.13471e-53
6.83792e-55
2.15372e-56
6.67213e-58
2.03365e-59
6.1002e-61
1.8013e-62
5.23736e-64
1.49981e-65
4.2312e-67
1.17624e-68
3.22274e-70
8.70459e-72
2.31821e-73
6.08874e-75
1.57747e-76
4.03224e-78
1.01711e-79
2.53231e-81
6.22403e-83
1.51047e-84
3.62007e-86
8.56946e-88
2.00396e-89
4.63007e-91
1.05709e-92
5.81735e-35
2.42926e-36
9.91311e-38
3.95768e-39
1.5462e-40
5.91347e-42
2.2151e-43
8.13104e-45
2.9263e-46
1.03301e-47
3.57836e-49
1.21681e-50
4.06329e-52
1.33292e-53
4.29681e-55
1.36159e-56
4.24273e-58
1.3004e-59
3.92161e-61
1.16395e-62
3.401e-64
9.7857e-66
2.77331e-67
7.74336e-69
2.13052e-70
5.77784e-72
1.54477e-73
4.07265e-75
1.05901e-76
2.71658e-78
6.87602e-80
1.71764e-81
4.23533e-83
1.03107e-84
2.47861e-86
5.88461e-88
1.38003e-89
3.19731e-91
2.24727e-34
9.69117e-36
4.07958e-37
1.67856e-38
6.75245e-40
2.65683e-41
1.02299e-42
3.85689e-44
1.4246e-45
5.15764e-47
1.83111e-48
6.37772e-50
2.18008e-51
7.31637e-53
2.41154e-54
7.80942e-56
2.48553e-57
7.7775e-59
2.39342e-60
7.2458e-62
2.1586e-63
6.32985e-65
1.82754e-66
5.19642e-68
1.4555e-69
4.01692e-71
1.09258e-72
2.92945e-74
7.74454e-76
2.01918e-77
5.19302e-79
1.31771e-80
3.29964e-82
8.15537e-84
1.98992e-85
4.79421e-87
1.14068e-88
2.68065e-90
3.86711e-34
1.69325e-35
7.23449e-37
3.02036e-38
1.23257e-39
4.91849e-41
1.92022e-42
7.33866e-44
2.74709e-45
1.00773e-46
3.62443e-48
1.27862e-49
4.42618e-51
1.50405e-52
5.01878e-54
1.6451e-55
5.29907e-57
1.67789e-58
5.22423e-60
1.59998e-61
4.82135e-63
1.42991e-64
4.17491e-66
1.20033e-67
3.39922e-69
9.48397e-71
2.60757e-72
7.0667e-74
1.88811e-75
4.97469e-77
1.29277e-78
3.31428e-80
8.38421e-82
2.09328e-83
5.15909e-85
1.25538e-86
3.01655e-88
7.15894e-90
2.03142e-35
8.72883e-37
3.662e-38
1.50199e-39
6.02454e-41
2.36398e-42
9.07941e-44
3.41513e-45
1.25872e-46
4.54822e-48
1.61189e-49
5.60517e-51
1.91322e-52
6.41244e-54
2.11114e-55
6.82964e-57
2.17176e-58
6.79045e-60
2.08832e-61
6.31882e-63
1.88166e-64
5.51609e-66
1.59228e-67
4.52707e-69
1.26805e-70
3.50006e-72
9.52216e-74
2.55394e-75
6.75452e-77
1.76189e-78
4.53374e-80
1.15113e-81
2.88452e-83
7.13494e-85
1.74243e-86
4.20191e-88
1.00077e-89
2.03254e-35
8.73344e-37
3.66384e-38
1.50274e-39
6.02756e-41
2.36519e-42
9.08411e-44
3.41691e-45
1.25938e-46
4.5506e-48
1.61273e-49
5.60806e-51
1.91419e-52
6.41563e-54
2.11217e-55
6.8329e-57
2.17277e-58
6.79352e-60
2.08923e-61
6.32149e-63
1.88243e-64
5.51824e-66
1.59288e-67
4.52873e-69
1.2685e-70
3.50129e-72
9.52542e-74
2.55479e-75
6.75663e-77
1.7624e-78
4.53495e-80
1.15141e-81
2.88514e-83
7.13634e-85
1.74275e-86
4.20266e-88
1.00095e-89
1.69302e-35
7.23648e-37
3.02024e-38
1.23252e-39
4.91919e-41
1.92087e-42
7.34216e-44
2.74864e-45
1.00836e-46
3.62682e-48
1.27951e-49
4.42937e-51
1.50517e-52
5.02259e-54
1.64638e-55
5.3032e-57
1.6792e-58
5.2283e-60
1.60121e-61
4.82495e-63
1.43094e-64
4.17784e-66
1.20116e-67
3.40153e-69
9.49039e-71
2.60933e-72
7.07141e-74
1.88934e-75
4.97773e-77
1.2935e-78
3.31593e-80
8.38781e-82
2.09405e-83
5.16072e-85
1.25574e-86
3.0174e-88
7.16116e-90
1.67686e-91
9.68891e-36
4.08014e-37
1.67826e-38
6.75152e-40
2.65708e-41
1.02333e-42
3.8588e-44
1.42545e-45
5.16115e-47
1.83248e-48
6.38292e-50
2.18199e-51
7.32315e-53
2.41386e-54
7.81713e-56
2.48803e-57
7.78544e-59
2.39587e-60
7.25322e-62
2.16077e-63
6.33611e-65
1.82932e-66
5.2014e-68
1.45689e-69
4.02076e-71
1.09362e-72
2.93223e-74
7.75167e-76
2.02093e-77
5.19709e-79
1.31861e-80
3.30152e-82
8.1592e-84
1.99069e-85
4.79586e-87
1.14106e-88
2.68168e-90
6.22585e-92
2.42851e-36
9.91338e-38
3.95671e-39
1.54594e-40
5.914e-42
2.21581e-43
8.13498e-45
2.92804e-46
1.03372e-47
3.58119e-49
1.2179e-50
4.06736e-52
1.33437e-53
4.30173e-55
1.36321e-56
4.24793e-58
1.30203e-59
3.92663e-61
1.16546e-62
3.40542e-64
9.79832e-66
2.77685e-67
7.75321e-69
2.13323e-70
5.78521e-72
1.54674e-73
4.07778e-75
1.0603e-76
2.71968e-78
6.88309e-80
1.71915e-81
4.23843e-83
1.03167e-84
2.47978e-86
5.88699e-88
1.38057e-89
3.19872e-91
7.32332e-93
1.74652e-37
6.89327e-39
2.66396e-40
1.0089e-41
3.74473e-43
1.36265e-44
4.86329e-46
1.70319e-47
5.85552e-49
1.97694e-50
6.55679e-52
2.13693e-53
6.84584e-55
2.1564e-56
6.68088e-58
2.03643e-59
6.10886e-61
1.80395e-62
5.24529e-64
1.50212e-65
4.23771e-67
1.17804e-68
3.22765e-70
8.71786e-72
2.32176e-73
6.09807e-75
1.57987e-76
4.03816e-78
1.01851e-79
2.53539e-81
6.23039e-83
1.51169e-84
3.62226e-86
8.57324e-88
2.00464e-89
4.63152e-91
1.05748e-92
2.38639e-94
2.95851e-39
1.13041e-40
4.23504e-42
1.55629e-43
5.61013e-45
1.9845e-46
6.8914e-48
2.35023e-49
7.87433e-51
2.59268e-52
8.39151e-54
2.67058e-55
8.35923e-57
2.5742e-58
7.80108e-60
2.32713e-61
6.83528e-63
1.97727e-64
5.63442e-66
1.582e-67
4.37756e-69
1.19406e-70
3.21137e-72
8.51743e-74
2.22827e-75
5.751e-77
1.46458e-78
3.68088e-80
9.13134e-82
2.23635e-83
5.40814e-85
1.29166e-86
3.04736e-88
7.10332e-90
1.63619e-91
3.72488e-93
8.38218e-95
1.86478e-96
3.58642e-37
1.43618e-38
5.63237e-40
2.16415e-41
8.14823e-43
3.00737e-44
1.08857e-45
3.86598e-47
1.34761e-48
4.61238e-50
1.55056e-51
5.12159e-53
1.66268e-54
5.30683e-56
1.66576e-57
5.14355e-59
1.56282e-60
4.67378e-62
1.37611e-63
3.99e-65
1.13956e-66
3.20661e-68
8.89215e-70
2.43058e-71
6.55006e-73
1.7406e-74
4.56205e-76
1.17954e-77
3.00918e-79
7.57618e-81
1.8828e-82
4.61945e-84
1.11915e-85
2.67777e-87
6.3287e-89
1.47767e-90
3.40899e-92
7.77183e-94
1.88137e-35
7.78887e-37
3.15312e-38
1.24945e-39
4.84718e-41
1.84159e-42
6.85548e-44
2.50174e-45
8.9538e-47
3.14423e-48
1.08375e-49
3.66785e-51
1.2193e-52
3.98267e-54
1.27862e-55
4.03601e-57
1.25296e-58
3.8267e-60
1.15011e-61
3.40251e-63
9.91106e-65
2.84324e-66
8.03494e-68
2.23733e-69
6.13976e-71
1.66089e-72
4.42985e-74
1.16518e-75
3.02303e-77
7.73805e-79
1.95455e-80
4.87276e-82
1.19922e-83
2.91403e-85
6.99258e-87
1.65728e-88
3.88007e-90
8.97495e-92
2.4582e-34
1.05322e-35
4.40562e-37
1.80186e-38
7.2078e-40
2.82095e-41
1.08071e-42
4.05497e-44
1.49092e-45
5.37432e-47
1.90015e-48
6.59216e-50
2.24494e-51
7.50723e-53
2.46607e-54
7.96029e-56
2.52579e-57
7.88044e-59
2.41837e-60
7.30198e-62
2.16985e-63
6.34755e-65
1.82845e-66
5.18761e-68
1.44998e-69
3.99367e-71
1.08416e-72
2.90152e-74
7.65714e-76
1.99302e-77
5.11743e-79
1.29652e-80
3.24174e-82
8.00081e-84
1.9495e-85
4.69055e-87
1.11456e-88
2.616e-90
9.66642e-34
4.27337e-35
1.84241e-36
7.75943e-38
3.19356e-39
1.28494e-40
5.0567e-42
1.94751e-43
7.34453e-45
2.71365e-46
9.82788e-48
3.49042e-49
1.21615e-50
4.15865e-52
1.39617e-53
4.60369e-55
1.49144e-56
4.74882e-58
1.48659e-59
4.57679e-61
1.38619e-62
4.13147e-64
1.21206e-65
3.50102e-67
9.95926e-69
2.79081e-70
7.70564e-72
2.09683e-73
5.62468e-75
1.48768e-76
3.88055e-78
9.98495e-80
2.53488e-81
6.35063e-83
1.57039e-84
3.83361e-86
9.24053e-88
2.1996e-89
1.69852e-33
7.62341e-35
3.33549e-36
1.42519e-37
5.94966e-39
2.42757e-40
9.68563e-42
3.781e-43
1.44497e-44
5.4091e-46
1.98437e-47
7.13766e-49
2.51829e-50
8.71854e-52
2.96303e-53
9.88871e-55
3.24199e-56
1.04449e-57
3.30797e-59
1.03021e-60
3.15591e-62
9.51245e-64
2.82193e-65
8.24148e-67
2.37017e-68
6.71401e-70
1.87377e-71
5.15329e-73
1.39697e-74
3.73358e-76
9.83993e-78
2.5579e-79
6.55987e-81
1.66003e-82
4.146e-84
1.02217e-85
2.48811e-87
5.98061e-89
9.23916e-35
4.0668e-36
1.74612e-37
7.32554e-39
3.00418e-40
1.2047e-41
4.7262e-43
1.81495e-44
6.82627e-46
2.51591e-47
9.09094e-49
3.22191e-50
1.12043e-51
3.82463e-53
1.28199e-54
4.22107e-56
1.36571e-57
4.34347e-59
1.35831e-60
4.17809e-62
1.26446e-63
3.76619e-65
1.1043e-66
3.18841e-68
9.06722e-70
2.54034e-71
7.01344e-73
1.90849e-74
5.11994e-76
1.35442e-77
3.53387e-79
9.09603e-81
2.3102e-82
5.79069e-84
1.43278e-85
3.50005e-87
8.44283e-89
9.2448e-35
4.06915e-36
1.74706e-37
7.32926e-39
3.00569e-40
1.20531e-41
4.7286e-43
1.81587e-44
6.82971e-46
2.51716e-47
9.09538e-49
3.22346e-50
1.12096e-51
3.82638e-53
1.28256e-54
4.22292e-56
1.36629e-57
4.34527e-59
1.35885e-60
4.17971e-62
1.26493e-63
3.76755e-65
1.10468e-66
3.18949e-68
9.07023e-70
2.54117e-71
7.01567e-73
1.90908e-74
5.12145e-76
1.3548e-77
3.53479e-79
9.09823e-81
2.31072e-82
5.79191e-84
1.43307e-85
3.50074e-87
8.44452e-89
7.62142e-35
3.33705e-36
1.42539e-37
5.94968e-39
2.42785e-40
9.68847e-42
3.7827e-43
1.44577e-44
5.41242e-46
1.98565e-47
7.14234e-49
2.51996e-50
8.72441e-52
2.96505e-53
9.89556e-55
3.24426e-56
1.04522e-57
3.31028e-59
1.03091e-60
3.15804e-62
9.51867e-64
2.82374e-65
8.24665e-67
2.37165e-68
6.71817e-70
1.87493e-71
5.15645e-73
1.39781e-74
3.73572e-76
9.84524e-78
2.55917e-79
6.56281e-81
1.6607e-82
4.14755e-84
1.02253e-85
2.48899e-87
5.98286e-89
1.4185e-90
4.27206e-35
1.84308e-36
7.75956e-38
3.19328e-39
1.28502e-40
5.05817e-42
1.94843e-43
7.34895e-45
2.71549e-46
9.83502e-48
3.49308e-49
1.21711e-50
4.16208e-52
1.39736e-53
4.60772e-55
1.49277e-56
4.75314e-58
1.48795e-59
4.58095e-61
1.38744e-62
4.13513e-64
1.21312e-65
3.50406e-67
9.96793e-69
2.79325e-70
7.71241e-72
2.09867e-73
5.62949e-75
1.48889e-76
3.88349e-78
9.99178e-80
2.53642e-81
6.35402e-83
1.57114e-84
3.83533e-86
9.24467e-88
2.20067e-89
5.17408e-91
1.05289e-35
4.40675e-37
1.80174e-38
7.20702e-40
2.8212e-41
1.08107e-42
4.05702e-44
1.49185e-45
5.37813e-47
1.90163e-48
6.59772e-50
2.24698e-51
7.51452e-53
2.46859e-54
7.96876e-56
2.52856e-57
7.88931e-59
2.42114e-60
7.31044e-62
2.17237e-63
6.35492e-65
1.83057e-66
5.19364e-68
1.45168e-69
3.99839e-71
1.08545e-72
2.90496e-74
7.66598e-76
1.9952e-77
5.12259e-79
1.29768e-80
3.24427e-82
8.00618e-84
1.95065e-85
4.69307e-87
1.11516e-88
2.6175e-90
6.06974e-92
7.78663e-37
3.15312e-38
1.24914e-39
4.84645e-41
1.84177e-42
6.85766e-44
2.5029e-45
8.95882e-47
3.14628e-48
1.08457e-49
3.67103e-51
1.22049e-52
3.98694e-54
1.28009e-55
4.04087e-57
1.25453e-58
3.83169e-60
1.15166e-61
3.40721e-63
9.92496e-65
2.84725e-66
8.04632e-68
2.24051e-69
6.14857e-71
1.6633e-72
4.43632e-74
1.16687e-75
3.02731e-77
7.74835e-79
1.9569e-80
4.87784e-82
1.20025e-83
2.91607e-85
6.99657e-87
1.6581e-88
3.88195e-90
8.97979e-92
2.05268e-93
1.43572e-38
5.63005e-40
2.16314e-41
8.14646e-43
3.0075e-44
1.08881e-45
3.86727e-47
1.3482e-48
4.61505e-50
1.55172e-51
5.12624e-53
1.66442e-54
5.31291e-56
1.66782e-57
5.15034e-59
1.56499e-60
4.6806e-62
1.37821e-63
3.99631e-65
1.1414e-66
3.21187e-68
8.90675e-70
2.43457e-71
6.56086e-73
1.74349e-74
4.56966e-76
1.1815e-77
3.01402e-79
7.58758e-81
1.88533e-82
4.62471e-84
1.12017e-85
2.67961e-87
6.33192e-89
1.47826e-90
3.41023e-92
7.77505e-94
1.75212e-95
9.73008e-37
3.98374e-38
1.59636e-39
6.26383e-41
2.40712e-42
9.06319e-44
3.345e-45
1.21072e-46
4.2994e-48
1.4985e-49
5.12798e-51
1.72358e-52
5.6919e-54
1.84741e-55
5.89507e-57
1.84996e-58
5.71091e-60
1.73477e-61
5.1867e-63
1.52675e-64
4.4257e-66
1.2637e-67
3.55514e-69
9.85641e-71
2.69352e-72
7.25689e-74
1.92797e-75
5.05196e-77
1.30593e-78
3.33095e-80
8.38472e-82
2.08337e-83
5.11074e-85
1.23799e-86
2.96166e-88
6.9986e-90
1.63383e-91
3.76863e-93
4.92897e-35
2.08501e-36
8.6188e-38
3.48565e-39
1.37946e-40
5.34403e-42
2.02756e-43
7.5379e-45
2.74732e-46
9.8208e-48
3.44463e-49
1.18594e-50
4.00928e-52
1.33137e-53
4.3442e-55
1.39328e-56
4.39362e-58
1.36269e-59
4.15808e-61
1.24862e-62
3.69086e-64
1.07424e-65
3.07934e-67
8.69564e-69
2.41952e-70
6.63498e-72
1.7936e-73
4.78062e-75
1.25664e-76
3.25835e-78
8.33555e-80
2.1043e-81
5.24331e-83
1.28975e-84
3.13244e-86
7.51295e-88
1.77975e-89
4.16479e-91
6.41936e-34
2.80818e-35
1.19856e-36
4.99946e-38
2.03886e-39
8.13199e-41
3.17365e-42
1.21258e-43
4.53822e-45
1.66461e-46
5.98675e-48
2.11208e-49
7.31207e-51
2.48511e-52
8.2944e-54
2.71962e-55
8.76328e-57
2.77589e-58
8.64678e-60
2.64944e-61
7.98783e-63
2.37027e-64
6.92435e-66
1.99196e-67
5.64426e-69
1.57566e-70
4.33463e-72
1.17537e-73
3.14214e-75
8.28332e-77
2.1538e-78
5.52485e-80
1.39842e-81
3.49335e-83
8.6142e-85
2.09716e-86
5.04162e-88
1.19701e-89
2.58903e-33
1.16787e-34
5.13425e-36
2.20388e-37
9.24181e-39
3.7874e-40
1.51758e-41
5.94879e-43
2.28258e-44
8.57793e-46
3.1588e-47
1.14037e-48
4.0378e-50
1.40277e-51
4.78347e-53
1.60166e-54
5.26777e-56
1.70241e-57
5.4079e-59
1.68913e-60
5.18916e-62
1.56842e-63
4.6653e-65
1.36605e-66
3.93853e-68
1.11839e-69
3.12859e-71
8.62396e-73
2.34298e-74
6.27532e-76
1.65732e-77
4.31694e-79
1.10927e-80
2.81241e-82
7.037e-84
1.73798e-85
4.23769e-87
1.02027e-88
4.65033e-33
2.12974e-34
9.50164e-36
4.13778e-37
1.75995e-38
7.31409e-40
2.97131e-41
1.18061e-42
4.59076e-44
1.74795e-45
6.52033e-47
2.38405e-48
8.54788e-50
3.00661e-51
1.03786e-52
3.5173e-54
1.17069e-55
3.8282e-57
1.2303e-58
3.88721e-60
1.20785e-61
3.692e-63
1.11048e-64
3.28763e-66
9.58271e-68
2.75068e-69
7.77761e-71
2.16676e-72
5.94888e-74
1.60999e-75
4.29604e-77
1.1305e-78
2.93445e-80
7.51489e-82
1.89911e-83
4.73685e-85
1.16634e-86
2.83548e-88
2.60746e-34
1.17062e-35
5.12304e-37
2.18974e-38
9.14633e-40
3.73456e-41
1.49131e-42
5.8273e-44
2.22938e-45
8.35512e-47
3.06895e-48
1.10534e-49
3.90529e-51
1.35404e-52
4.60888e-54
1.54064e-55
5.05944e-57
1.63285e-58
5.18058e-60
1.61635e-61
4.96077e-63
1.49812e-64
4.45295e-66
1.30307e-67
3.75509e-69
1.06589e-70
2.9809e-72
8.21541e-74
2.2318e-75
5.9776e-77
1.57884e-78
4.11328e-80
1.05722e-81
2.68141e-83
6.71216e-85
1.65862e-86
4.04657e-88
2.60915e-34
1.17134e-35
5.12592e-37
2.19088e-38
9.15094e-40
3.73642e-41
1.49205e-42
5.83021e-44
2.23048e-45
8.35916e-47
3.0704e-48
1.10585e-49
3.90702e-51
1.35463e-52
4.61083e-54
1.54127e-55
5.06146e-57
1.63348e-58
5.18252e-60
1.61693e-61
4.9625e-63
1.49862e-64
4.4544e-66
1.30348e-67
3.75626e-69
1.06621e-70
2.98179e-72
8.21779e-74
2.23243e-75
5.97919e-77
1.57924e-78
4.11427e-80
1.05746e-81
2.682e-83
6.71359e-85
1.65897e-86
4.04744e-88
2.12892e-34
9.50713e-36
4.13897e-37
1.76008e-38
7.3149e-40
2.97209e-41
1.1811e-42
4.59323e-44
1.74901e-45
6.52448e-47
2.38558e-48
8.55335e-50
3.00852e-51
1.03852e-52
3.51955e-54
1.17145e-55
3.83067e-57
1.23109e-58
3.88968e-60
1.2086e-61
3.69423e-63
1.11114e-64
3.28954e-66
9.58825e-68
2.75227e-69
7.78208e-71
2.16799e-72
5.95222e-74
1.61086e-75
4.29827e-77
1.13105e-78
2.93579e-80
7.51813e-82
1.89989e-83
4.73875e-85
1.16681e-86
2.83669e-88
6.80071e-90
1.16743e-34
5.13685e-36
2.20427e-37
9.24162e-39
3.78765e-40
1.51798e-41
5.95149e-43
2.28394e-44
8.58377e-46
3.16109e-47
1.14122e-48
4.04085e-50
1.40385e-51
4.78723e-53
1.60295e-54
5.27211e-56
1.70383e-57
5.41246e-59
1.69054e-60
5.19346e-62
1.5697e-63
4.66908e-65
1.36715e-66
3.94171e-68
1.1193e-69
3.13116e-71
8.63101e-73
2.34487e-74
6.28019e-76
1.65854e-77
4.31987e-79
1.10996e-80
2.81403e-82
7.0408e-84
1.73889e-85
4.23993e-87
1.02084e-88
2.42723e-90
2.80725e-35
1.19905e-36
4.99982e-38
2.03877e-39
8.13284e-41
3.1747e-42
1.21321e-43
4.5412e-45
1.66584e-46
5.9915e-48
2.11384e-49
7.31848e-51
2.4874e-52
8.30235e-54
2.72233e-55
8.7723e-57
2.77882e-58
8.65606e-60
2.65231e-61
7.9965e-63
2.37285e-64
6.93187e-66
1.99413e-67
5.6505e-69
1.57743e-70
4.33954e-72
1.17669e-73
3.14561e-75
8.29209e-77
2.15593e-78
5.52983e-80
1.39955e-81
3.49589e-83
8.61992e-85
2.09849e-86
5.04482e-88
1.19783e-89
2.80938e-91
2.08458e-36
8.6201e-38
3.48516e-39
1.37934e-40
5.34485e-42
2.02834e-43
7.54205e-45
2.74915e-46
9.82821e-48
3.44752e-49
1.18704e-50
4.01328e-52
1.33279e-53
4.34906e-55
1.3949e-56
4.39895e-58
1.3644e-59
4.16345e-61
1.25027e-62
3.6958e-64
1.07568e-65
3.08351e-67
8.7075e-69
2.42287e-70
6.64426e-72
1.79613e-73
4.78736e-75
1.25837e-76
3.26258e-78
8.34543e-80
2.1065e-81
5.24799e-83
1.29072e-84
3.13449e-86
7.51748e-88
1.78083e-89
4.1676e-91
9.63654e-93
3.98296e-38
1.59589e-39
6.26154e-41
2.40682e-42
9.06453e-44
3.34615e-45
1.2113e-46
4.30195e-48
1.49959e-49
5.13249e-51
1.72535e-52
5.69848e-54
1.84973e-55
5.9028e-57
1.85245e-58
5.71882e-60
1.73726e-61
5.19441e-63
1.52909e-64
4.43263e-66
1.2657e-67
3.56081e-69
9.8722e-71
2.69791e-72
7.26895e-74
1.9312e-75
5.06029e-77
1.30801e-78
3.33591e-80
8.39594e-82
2.08576e-83
5.11551e-85
1.2389e-86
2.96339e-88
7.00205e-90
1.63461e-91
3.7707e-93
8.59617e-95
1.743e-36
7.25933e-38
2.95761e-39
1.17942e-40
4.60436e-42
1.76048e-43
6.59586e-45
2.42272e-46
8.72812e-48
3.08533e-49
1.07057e-50
3.64763e-52
1.22081e-53
4.01485e-55
1.29783e-56
4.12498e-58
1.28948e-59
3.96571e-61
1.20024e-62
3.57584e-64
1.04899e-65
3.03076e-67
8.62632e-69
2.41929e-70
6.68693e-72
1.82194e-73
4.89443e-75
1.29664e-76
3.38829e-78
8.73512e-80
2.22214e-81
5.57924e-83
1.38281e-84
3.38385e-86
8.17706e-88
1.95159e-89
4.60097e-91
1.07162e-92
8.7939e-35
3.78129e-36
1.58816e-37
6.52361e-39
2.62139e-40
1.0308e-41
3.96851e-43
1.49666e-44
5.532e-46
2.00497e-47
7.12835e-49
2.48711e-50
8.51907e-52
2.86571e-53
9.47035e-55
3.07565e-56
9.81967e-58
3.08305e-59
9.52176e-61
2.89355e-62
8.65443e-64
2.54834e-65
7.38917e-67
2.11037e-68
5.93805e-70
1.64645e-71
4.49956e-73
1.21229e-74
3.22072e-76
8.4392e-78
2.18144e-79
5.56374e-81
1.40043e-82
3.4794e-84
8.53449e-86
2.06706e-87
4.94425e-89
1.16812e-90
1.15985e-33
5.15416e-35
2.23372e-36
9.45772e-38
3.91412e-39
1.58386e-40
6.26959e-42
2.42905e-43
9.21618e-45
3.42619e-46
1.24862e-47
4.46274e-49
1.56499e-50
5.3867e-52
1.82052e-53
6.04337e-55
1.97117e-56
6.31944e-58
1.99195e-59
6.1753e-61
1.88342e-62
5.65283e-64
1.67006e-65
4.85801e-67
1.39172e-68
3.92749e-70
1.09208e-71
2.99273e-73
8.08458e-75
2.15338e-76
5.65657e-78
1.46571e-79
3.74708e-81
9.45315e-83
2.35386e-84
5.78606e-86
1.40431e-87
3.36578e-89
4.81873e-33
2.20707e-34
9.8476e-36
4.28879e-37
1.82431e-38
7.58201e-40
3.08032e-41
1.22401e-42
4.7599e-44
1.81251e-45
6.76171e-47
2.4725e-48
8.86561e-50
3.11855e-51
1.07655e-52
3.64854e-54
1.2144e-55
3.97113e-57
1.27622e-58
4.03218e-60
1.25283e-61
3.82923e-63
1.15166e-64
3.40916e-66
9.93565e-68
2.85155e-69
8.06136e-71
2.24536e-72
6.16334e-74
1.66763e-75
4.44875e-77
1.17038e-78
3.03709e-80
7.77544e-82
1.96432e-83
4.89783e-85
1.20554e-86
2.92965e-88
8.84632e-33
4.11403e-34
1.86294e-35
8.23165e-37
3.55184e-38
1.49715e-39
6.16757e-41
2.48449e-42
9.79228e-44
3.77832e-45
1.42796e-46
5.2887e-48
1.92042e-49
6.83979e-51
2.39033e-52
8.19983e-54
2.76214e-55
9.13971e-57
2.97178e-58
9.49827e-60
2.98506e-61
9.22731e-63
2.80633e-64
8.39968e-66
2.47494e-67
7.18057e-69
2.05188e-70
5.77631e-72
1.60235e-73