/*--------------------------------*- C++ -*----------------------------------*\
| =========                 |                                                 |
| \\      /  F ield         | OpenFOAM: The Open Source CFD Toolbox           |
|  \\    /   O peration     | Version:  2.3.1                                 |
|   \\  /    A nd           | Web:      www.OpenFOAM.org                      |
|    \\/     M anipulation  |                                                 |
\*---------------------------------------------------------------------------*/
FoamFile
{
    version     2.0;
    format      ascii;
    class       volScalarField;
    location    "5";
    object      Sed_0;
}
// * * * * * * * * * * * * * * * * * * * * * * * * * * * * * * * * * * * * * //

dimensions      [0 0 0 0 0 0 0];

internalField   nonuniform List<scalar> 
38262
(
3.01445e-40
1.10316e-41
3.96619e-43
1.40089e-44
4.86147e-46
1.658e-47
5.55863e-49
1.83238e-50
5.94049e-52
1.89446e-53
5.94439e-55
1.83569e-56
5.58048e-58
1.67043e-59
4.9246e-61
1.43018e-62
4.09238e-64
1.15404e-65
3.20783e-67
8.79101e-69
2.37571e-70
6.33234e-72
1.66509e-73
4.32008e-75
1.10611e-76
2.79532e-78
6.97353e-80
1.71764e-81
4.17775e-83
1.00359e-84
2.38146e-86
5.58317e-88
1.29341e-89
2.96123e-91
6.70125e-93
1.49914e-94
3.31576e-96
7.25162e-98
2.30774e-38
8.74445e-40
3.25061e-41
1.18562e-42
4.24355e-44
1.491e-45
5.14459e-47
1.74376e-48
5.80785e-50
1.90132e-51
6.11974e-53
1.93721e-54
6.03271e-56
1.84867e-57
5.57611e-59
1.65589e-60
4.84246e-62
1.39488e-63
3.9586e-65
1.10709e-66
3.05181e-68
8.29399e-70
2.22274e-71
5.87513e-73
1.53189e-74
3.94093e-76
1.00047e-77
2.50679e-79
6.2005e-81
1.5143e-82
3.65216e-84
8.70002e-86
2.04735e-87
4.76033e-89
1.09374e-90
2.48362e-92
5.57446e-94
1.23688e-95
3.515e-37
1.38137e-38
5.31735e-40
2.00546e-41
7.41268e-43
2.68645e-44
9.55058e-46
3.33207e-47
1.14128e-48
3.83897e-50
1.26863e-51
4.11998e-53
1.31536e-54
4.12962e-56
1.27532e-57
3.87517e-59
1.1589e-60
3.41195e-62
9.89173e-64
2.82463e-65
7.94656e-67
2.20307e-68
6.0201e-70
1.62181e-71
4.30826e-73
1.12875e-74
2.91724e-76
7.43887e-78
1.87194e-79
4.64958e-81
1.14013e-82
2.76054e-84
6.60101e-86
1.55911e-87
3.63802e-89
8.38755e-91
1.91093e-92
4.30287e-94
1.33849e-36
5.44393e-38
2.16628e-39
8.43678e-41
3.21686e-42
1.20145e-43
4.39768e-45
1.57831e-46
5.55643e-48
1.91959e-49
6.51031e-51
2.16838e-52
7.09514e-54
2.2815e-55
7.2119e-57
2.24172e-58
6.85412e-60
2.06199e-61
6.10537e-63
1.77969e-64
5.10857e-66
1.44441e-67
4.02362e-69
1.10454e-70
2.98874e-72
7.97311e-74
2.09746e-75
5.44217e-77
1.39302e-78
3.5183e-80
8.76977e-82
2.15777e-83
5.2417e-85
1.2574e-86
2.97909e-88
6.97223e-90
1.61213e-91
3.68324e-93
2.2211e-36
9.17629e-38
3.70796e-39
1.46601e-40
5.67295e-42
2.14969e-43
7.98118e-45
2.9047e-46
1.03675e-47
3.63053e-49
1.24786e-50
4.21133e-52
1.396e-53
4.54678e-55
1.45552e-56
4.58103e-58
1.418e-59
4.31806e-61
1.29396e-62
3.81683e-64
1.10853e-65
3.17083e-67
8.93468e-69
2.48068e-70
6.78822e-72
1.8312e-73
4.87084e-75
1.27775e-76
3.30632e-78
8.44087e-80
2.12645e-81
5.28732e-83
1.29784e-84
3.1456e-86
7.52943e-88
1.7802e-89
4.15802e-91
9.59579e-93
1.08035e-37
4.38783e-39
1.74389e-40
6.78446e-42
2.58438e-43
9.64397e-45
3.52729e-46
1.26512e-47
4.45164e-49
1.5374e-50
5.21302e-52
1.7361e-53
5.68047e-55
1.82668e-56
5.77497e-58
1.79547e-59
5.49135e-61
1.65264e-62
4.89554e-64
1.42781e-65
4.10107e-67
1.16034e-68
3.23475e-70
8.88748e-72
2.40714e-73
6.42838e-75
1.69302e-76
4.39809e-78
1.12716e-79
2.85041e-81
7.11416e-83
1.75279e-84
4.264e-86
1.02441e-87
2.43092e-89
5.69875e-91
1.31996e-92
1.08076e-37
4.38963e-39
1.74466e-40
6.78772e-42
2.5857e-43
9.64908e-45
3.52921e-46
1.26583e-47
4.45424e-49
1.53833e-50
5.21623e-52
1.73717e-53
5.68398e-55
1.82779e-56
5.7784e-58
1.79652e-59
5.49448e-61
1.65356e-62
4.89819e-64
1.42855e-65
4.10309e-67
1.16088e-68
3.23621e-70
8.89134e-72
2.40815e-73
6.43103e-75
1.6937e-76
4.39978e-78
1.12756e-79
2.85132e-81
7.1161e-83
1.75318e-84
4.26479e-86
1.02456e-87
2.43123e-89
5.69946e-91
1.32014e-92
9.17524e-38
3.70681e-39
1.4656e-40
5.67286e-42
2.15016e-43
7.98412e-45
2.90603e-46
1.03731e-47
3.63287e-49
1.2488e-50
4.21492e-52
1.39729e-53
4.55118e-55
1.45695e-56
4.58558e-58
1.41942e-59
4.3224e-61
1.29527e-62
3.82062e-64
1.1096e-65
3.17376e-67
8.94255e-69
2.48279e-70
6.79386e-72
1.8327e-73
4.87478e-75
1.27877e-76
3.30885e-78
8.44676e-80
2.12772e-81
5.28986e-83
1.2983e-84
3.14635e-86
7.53053e-88
1.78037e-89
4.15841e-91
9.5972e-93
2.18703e-94
5.44215e-38
2.16517e-39
8.43293e-41
3.2164e-42
1.20161e-43
4.39908e-45
1.579e-46
5.55956e-48
1.92097e-49
6.51611e-51
2.17067e-52
7.10353e-54
2.28437e-55
7.22124e-57
2.24467e-58
6.86328e-60
2.0648e-61
6.11378e-63
1.78213e-64
5.11545e-66
1.44628e-67
4.02863e-69
1.10588e-70
2.99226e-72
7.98238e-74
2.09987e-75
5.44835e-77
1.39454e-78
3.5218e-80
8.77715e-82
2.15918e-83
5.24407e-85
1.25773e-86
2.97946e-88
6.97257e-90
1.61221e-91
3.68373e-93
8.31838e-95
1.38074e-38
5.3141e-40
2.00437e-41
7.411e-43
2.6866e-44
9.55295e-46
3.33335e-47
1.14188e-48
3.84175e-50
1.26984e-51
4.12486e-53
1.31716e-54
4.13578e-56
1.27731e-57
3.8814e-59
1.16081e-60
3.41775e-62
9.90895e-64
2.82961e-65
7.96048e-67
2.20683e-68
6.03002e-70
1.62439e-71
4.31496e-73
1.13048e-74
2.92164e-76
7.44988e-78
1.87459e-79
4.65556e-81
1.14138e-82
2.76287e-84
6.60484e-86
1.55964e-87
3.63857e-89
8.38794e-91
1.911e-92
4.30343e-94
9.58014e-96
8.73896e-40
3.24816e-41
1.18482e-42
4.24195e-44
1.4908e-45
5.14471e-47
1.74404e-48
5.80973e-50
1.90236e-51
6.12475e-53
1.93933e-54
6.04076e-56
1.85147e-57
5.58524e-59
1.65874e-60
4.85116e-62
1.39749e-63
3.96632e-65
1.10931e-66
3.05796e-68
8.31045e-70
2.22702e-71
5.88605e-73
1.53467e-74
3.94793e-76
1.00222e-77
2.51108e-79
6.21063e-81
1.51655e-82
3.6568e-84
8.70857e-86
2.04871e-87
4.76205e-89
1.09388e-90
2.48355e-92
5.57409e-94
1.23689e-95
2.71396e-97
1.10227e-41
3.96253e-43
1.3997e-44
4.8584e-46
1.65723e-47
5.55675e-49
1.83201e-50
5.94039e-52
1.89488e-53
5.94744e-55
1.8372e-56
5.58672e-58
1.67272e-59
4.93232e-61
1.43263e-62
4.09992e-64
1.15629e-65
3.21441e-67
8.80973e-69
2.38086e-70
6.346e-72
1.66859e-73
4.32884e-75
1.10827e-76
2.8006e-78
6.98635e-80
1.7207e-81
4.18485e-83
1.00516e-84
2.3847e-86
5.5892e-88
1.29438e-89
2.96249e-91
6.70216e-93
1.49903e-94
3.3152e-96
7.25053e-98
1.56837e-99
7.77199e-39
2.93849e-40
1.09013e-41
3.96883e-43
1.41816e-44
4.9752e-46
1.71424e-47
5.80284e-49
1.93038e-50
6.31239e-52
2.02962e-53
6.41843e-55
1.99692e-56
6.11402e-58
1.84263e-59
5.46765e-61
1.59778e-62
4.59923e-64
1.30438e-65
3.64565e-67
1.00436e-68
2.72802e-70
7.30698e-72
1.93039e-73
5.03091e-75
1.29366e-76
3.28279e-78
8.22222e-80
2.033e-81
4.96324e-83
1.19661e-84
2.84955e-86
6.70356e-88
1.55816e-89
3.57895e-91
8.12456e-93
1.82306e-94
4.04402e-96
4.97498e-37
1.94617e-38
7.45974e-40
2.80298e-41
1.03257e-42
3.73056e-44
1.32244e-45
4.60156e-47
1.57221e-48
5.27641e-50
1.73991e-51
5.63917e-53
1.79697e-54
5.63161e-56
1.73626e-57
5.26753e-59
1.57298e-60
4.62465e-62
1.339e-63
3.81884e-65
1.0731e-66
2.97173e-68
8.11206e-70
2.18322e-71
5.79419e-73
1.51671e-74
3.9166e-76
9.9792e-78
2.50928e-79
6.22812e-81
1.52616e-82
3.69282e-84
8.82487e-86
2.08315e-87
4.85807e-89
1.11943e-90
2.54909e-92
5.73698e-94
7.05971e-36
2.86215e-37
1.13526e-38
4.40853e-40
1.6764e-41
6.24488e-43
2.28013e-44
8.16388e-46
2.86765e-47
9.88599e-49
3.34614e-50
1.11238e-51
3.63331e-53
1.16636e-54
3.6811e-56
1.14255e-57
3.48861e-59
1.04818e-60
3.09991e-62
9.02617e-64
2.58829e-65
7.31119e-67
2.03483e-68
5.58127e-70
1.50903e-71
4.02267e-73
1.05748e-74
2.74198e-76
7.01423e-78
1.77056e-79
4.41108e-81
1.08483e-82
2.63419e-84
6.31648e-86
1.49596e-87
3.49982e-89
8.08947e-91
1.84758e-92
2.70309e-35
1.13287e-36
4.64003e-38
1.85876e-39
7.28429e-41
2.79393e-42
1.04941e-43
3.86201e-45
1.39326e-46
4.92941e-48
1.71114e-49
5.83012e-51
1.95042e-52
6.40904e-54
2.06927e-55
6.5667e-57
2.04891e-58
6.28761e-60
1.89829e-61
5.64001e-63
1.64953e-64
4.75028e-66
1.3473e-67
3.76448e-69
1.03643e-70
2.81241e-72
7.52332e-74
1.98441e-75
5.16224e-77
1.32472e-78
3.3541e-80
8.38077e-82
2.06698e-83
5.03291e-85
1.21007e-86
2.8733e-88
6.73907e-90
1.56147e-91
4.56417e-35
1.94254e-36
8.0771e-38
3.28385e-39
1.30575e-40
5.08022e-42
1.93505e-43
7.21991e-45
2.64011e-46
9.46609e-48
3.32941e-49
1.14917e-50
3.89391e-52
1.29576e-53
4.23595e-55
1.36086e-56
4.29788e-58
1.3348e-59
4.07783e-61
1.22581e-62
3.62683e-64
1.05646e-65
3.0305e-67
8.56286e-69
2.38383e-70
6.5402e-72
1.76873e-73
4.71607e-75
1.24005e-76
3.2161e-78
8.22885e-80
2.07758e-81
5.17701e-83
1.27348e-84
3.09298e-86
7.41845e-88
1.75739e-89
4.11254e-91
2.30801e-36
9.64767e-38
3.942e-39
1.57566e-40
6.16239e-42
2.3592e-43
8.84605e-45
3.25041e-46
1.17099e-47
4.13797e-49
1.43489e-50
4.8844e-52
1.63273e-53
5.36143e-55
1.73005e-56
5.48772e-58
1.71167e-59
5.2514e-61
1.58523e-62
4.70972e-64
1.37754e-65
3.9676e-67
1.12559e-68
3.14609e-70
8.66578e-72
2.35282e-73
6.29805e-75
1.66244e-76
4.32809e-78
1.11159e-79
2.81698e-81
7.04548e-83
1.73946e-84
4.24018e-86
1.02069e-87
2.42673e-89
5.6994e-91
2.30909e-36
9.65218e-38
3.94386e-39
1.57643e-40
6.16553e-42
2.36044e-43
8.85077e-45
3.25217e-46
1.17163e-47
4.1403e-49
1.43571e-50
4.88717e-52
1.63365e-53
5.36439e-55
1.73099e-56
5.49062e-58
1.71255e-59
5.25405e-61
1.586e-62
4.71193e-64
1.37816e-65
3.9693e-67
1.12605e-68
3.14735e-70
8.66916e-72
2.35372e-73
6.30038e-75
1.66303e-76
4.32953e-78
1.11193e-79
2.81774e-81
7.04712e-83
1.73981e-84
4.24091e-86
1.02085e-87
2.4271e-89
5.70032e-91
1.9425e-36
8.07698e-38
3.28319e-39
1.3057e-40
5.08123e-42
1.93579e-43
7.22348e-45
2.64162e-46
9.47217e-48
3.33177e-49
1.15006e-50
3.89712e-52
1.29687e-53
4.23966e-55
1.36206e-56
4.30171e-58
1.33599e-59
4.08146e-61
1.22689e-62
3.62992e-64
1.05733e-65
3.03289e-67
8.56943e-69
2.38563e-70
6.54508e-72
1.77004e-73
4.71952e-75
1.24093e-76
3.2182e-78
8.2336e-80
2.07859e-81
5.17903e-83
1.27386e-84
3.0937e-86
7.41989e-88
1.75773e-89
4.1135e-91
9.50147e-93
1.13266e-36
4.63917e-38
1.85811e-39
7.28325e-41
2.79433e-42
1.04979e-43
3.86395e-45
1.3941e-46
4.93291e-48
1.71256e-49
5.8356e-51
1.95244e-52
6.41607e-54
2.07162e-55
6.57428e-57
2.05132e-58
6.29508e-60
1.90056e-61
5.64674e-63
1.65146e-64
4.75568e-66
1.34879e-67
3.76853e-69
1.03754e-70
2.81538e-72
7.53123e-74
1.98647e-75
5.1674e-77
1.32594e-78
3.35679e-80
8.3863e-82
2.06803e-83
5.03475e-85
1.21038e-86
2.87387e-88
6.7404e-90
1.56188e-91
3.57599e-93
2.86128e-37
1.13493e-38
4.40669e-40
1.67608e-41
6.24554e-43
2.28087e-44
8.16768e-46
2.86932e-47
9.89312e-49
3.3491e-50
1.11355e-51
3.63764e-53
1.16787e-54
3.68609e-56
1.14415e-57
3.49361e-59
1.04972e-60
3.10456e-62
9.03986e-64
2.59221e-65
7.32206e-67
2.03779e-68
5.58923e-70
1.51115e-71
4.02829e-73
1.05895e-74
2.74572e-76
7.0234e-78
1.77269e-79
4.41569e-81
1.08576e-82
2.63588e-84
6.31934e-86
1.49642e-87
3.5006e-89
8.09119e-91
1.84811e-92
4.17206e-94
1.94525e-38
7.45618e-40
2.80147e-41
1.03227e-42
3.7305e-44
1.32266e-45
4.6029e-47
1.57287e-48
5.27954e-50
1.7413e-51
5.64491e-53
1.79914e-54
5.63922e-56
1.73878e-57
5.27554e-59
1.57547e-60
4.63225e-62
1.34128e-63
3.82552e-65
1.075e-66
2.97693e-68
8.12596e-70
2.18688e-71
5.80379e-73
1.5192e-74
3.92298e-76
9.99519e-78
2.51313e-79
6.2369e-81
1.52802e-82
3.69643e-84
8.83113e-86
2.08411e-87
4.85933e-89
1.11959e-90
2.54936e-92
5.73801e-94
1.27674e-95
2.93659e-40
1.08932e-41
3.96603e-43
1.41752e-44
4.97399e-46
1.71406e-47
5.80296e-49
1.93071e-50
6.31478e-52
2.0309e-53
6.42418e-55
1.99919e-56
6.12218e-58
1.84537e-59
5.47638e-61
1.60048e-62
4.60743e-64
1.30682e-65
3.6527e-67
1.00634e-68
2.73336e-70
7.32099e-72
1.93399e-73
5.04007e-75
1.29597e-76
3.28855e-78
8.2363e-80
2.03632e-81
4.97071e-83
1.19817e-84
2.85252e-86
6.70854e-88
1.55885e-89
3.57967e-91
8.12484e-93
1.823e-94
4.04406e-96
8.87089e-98
7.45542e-38
2.90502e-39
1.10954e-40
4.155e-42
1.52578e-43
5.49618e-45
1.94295e-46
6.7431e-48
2.29828e-49
7.69529e-51
2.53199e-52
8.18935e-54
2.60446e-55
8.14698e-57
2.5073e-58
7.59389e-60
2.26403e-61
6.64612e-63
1.92145e-64
5.47231e-66
1.53566e-67
4.24719e-69
1.15794e-70
3.11273e-72
8.25183e-74
2.15772e-75
5.5662e-77
1.41684e-78
3.55935e-80
8.82644e-82
2.16098e-83
5.22446e-85
1.24749e-86
2.94243e-88
6.85676e-90
1.57884e-91
3.59269e-93
8.08034e-95
4.25699e-36
1.7155e-37
6.76639e-39
2.61416e-40
9.8939e-42
3.66957e-43
1.33437e-44
4.75945e-46
1.66584e-47
5.72365e-49
1.9312e-50
6.40092e-52
2.08481e-53
6.67477e-55
2.1013e-56
6.50653e-58
1.9822e-59
5.94293e-61
1.75399e-62
5.09729e-64
1.45898e-65
4.11396e-67
1.14308e-68
3.13033e-70
8.4508e-72
2.2495e-73
5.90534e-75
1.5292e-76
3.9069e-78
9.85006e-80
2.45115e-81
6.02155e-83
1.46061e-84
3.49881e-86
8.27827e-88
1.9349e-89
4.46827e-91
1.01964e-92
5.71645e-35
2.38583e-36
9.73119e-38
3.88319e-39
1.51636e-40
5.79654e-42
2.17024e-43
7.96249e-45
2.86424e-46
1.01061e-47
3.49905e-49
1.18926e-50
3.96935e-52
1.30146e-53
4.19334e-55
1.32815e-56
4.13649e-58
1.26721e-59
3.81964e-61
1.13313e-62
3.30929e-64
9.5171e-66
2.69585e-67
7.52335e-69
2.06896e-70
5.60811e-72
1.49865e-73
3.94908e-75
1.02636e-76
2.63153e-78
6.65744e-80
1.66221e-81
4.09661e-83
9.96801e-85
2.39503e-86
5.68336e-88
1.33217e-89
3.08487e-91
2.20814e-34
9.51723e-36
4.00443e-37
1.64685e-38
6.62171e-40
2.60412e-41
1.00221e-42
3.77671e-44
1.3943e-45
5.04551e-47
1.79043e-48
6.23298e-50
2.12956e-51
7.14335e-53
2.35336e-54
7.61727e-56
2.42319e-57
7.57869e-59
2.33109e-60
7.05364e-62
2.10031e-63
6.15591e-65
1.77644e-66
5.04863e-68
1.4134e-69
3.89881e-71
1.05993e-72
2.8405e-74
7.50566e-76
1.95593e-77
5.02785e-79
1.27516e-80
3.19151e-82
7.8842e-84
1.92279e-85
4.63018e-87
1.1011e-88
2.58636e-90
3.79905e-34
1.66253e-35
7.09976e-37
2.96269e-38
1.20845e-39
4.81987e-41
1.88079e-42
7.18445e-44
2.68805e-45
9.85589e-47
3.54305e-48
1.2493e-49
4.32256e-51
1.46811e-52
4.89645e-54
1.60421e-55
5.16481e-57
1.63457e-58
5.08683e-60
1.55713e-61
4.68989e-63
1.39023e-64
4.05705e-66
1.16586e-67
3.29997e-69
9.20248e-71
2.52892e-72
6.85013e-74
1.82934e-75
4.81742e-77
1.25128e-78
3.20631e-80
8.10701e-82
2.02306e-83
4.98353e-85
1.21206e-86
2.91099e-88
6.90496e-90
1.99447e-35
8.56529e-37
3.59162e-38
1.47241e-39
5.90299e-41
2.31515e-42
8.88744e-44
3.34127e-45
1.23089e-46
4.44547e-48
1.5747e-49
5.47313e-51
1.86723e-52
6.25518e-54
2.05835e-55
6.65554e-57
2.11534e-58
6.61077e-60
2.03205e-61
6.14551e-63
1.82914e-64
5.35945e-66
1.54629e-67
4.39412e-69
1.23019e-70
3.39387e-72
9.22866e-74
2.47398e-75
6.53976e-77
1.70502e-78
4.3852e-80
1.11286e-81
2.78722e-83
6.8908e-85
1.68196e-86
4.05406e-88
9.65069e-90
1.99558e-35
8.56981e-37
3.59342e-38
1.47314e-39
5.90596e-41
2.31633e-42
8.89205e-44
3.34301e-45
1.23154e-46
4.44779e-48
1.57552e-49
5.47595e-51
1.86818e-52
6.2583e-54
2.05935e-55
6.65872e-57
2.11633e-58
6.61377e-60
2.03294e-61
6.1481e-63
1.82988e-64
5.36154e-66
1.54687e-67
4.39573e-69
1.23063e-70
3.39506e-72
9.23182e-74
2.4748e-75
6.54181e-77
1.70551e-78
4.38637e-80
1.11313e-81
2.78782e-83
6.89215e-85
1.68227e-86
4.05478e-88
9.65245e-90
1.66242e-35
7.10174e-37
2.96256e-38
1.20839e-39
4.82057e-41
1.88143e-42
7.18789e-44
2.68957e-45
9.86201e-47
3.54538e-48
1.25017e-49
4.32567e-51
1.4692e-52
4.90017e-54
1.60545e-55
5.16883e-57
1.63584e-58
5.09078e-60
1.55832e-61
4.69339e-63
1.39123e-64
4.0599e-66
1.16667e-67
3.30222e-69
9.20872e-71
2.53062e-72
6.8547e-74
1.83052e-75
4.82037e-77
1.25198e-78
3.2079e-80
8.11048e-82
2.02381e-83
4.98511e-85
1.2124e-86
2.91181e-88
6.9071e-90
1.61657e-91
9.51566e-36
4.00499e-37
1.64655e-38
6.6208e-40
2.60437e-41
1.00254e-42
3.77857e-44
1.39514e-45
5.04894e-47
1.79177e-48
6.23806e-50
2.13143e-51
7.14997e-53
2.35562e-54
7.6248e-56
2.42563e-57
7.58642e-59
2.33348e-60
7.06086e-62
2.10243e-63
6.162e-65
1.77817e-66
5.05347e-68
1.41475e-69
3.90254e-71
1.06094e-72
2.84319e-74
7.51257e-76
1.95762e-77
5.03178e-79
1.27603e-80
3.19333e-82
7.8879e-84
1.92354e-85
4.63178e-87
1.10147e-88
2.58735e-90
6.00385e-92
2.38525e-36
9.73147e-38
3.88222e-39
1.51612e-40
5.79708e-42
2.17094e-43
7.96636e-45
2.86594e-46
1.01131e-47
3.50182e-49
1.19033e-50
3.97332e-52
1.30287e-53
4.19814e-55
1.32973e-56
4.14155e-58
1.2688e-59
3.82453e-61
1.13459e-62
3.31359e-64
9.52938e-66
2.6993e-67
7.53292e-69
2.07159e-70
5.61526e-72
1.50056e-73
3.95405e-75
1.02761e-76
2.63454e-78
6.66428e-80
1.66367e-81
4.0996e-83
9.97385e-85
2.39616e-86
5.68566e-88
1.33269e-89
3.08623e-91
7.06226e-93
1.71494e-37
6.76499e-39
2.61313e-40
9.8917e-42
3.66973e-43
1.3347e-44
4.76122e-46
1.66663e-47
5.72703e-49
1.93262e-50
6.40664e-52
2.08697e-53
6.6825e-55
2.10392e-56
6.51506e-58
1.9849e-59
5.95136e-61
1.75657e-62
5.105e-64
1.46122e-65
4.12029e-67
1.14483e-68
3.1351e-70
8.46368e-72
2.25294e-73
5.91439e-75
1.53152e-76
3.91262e-78
9.86352e-80
2.45413e-81
6.0277e-83
1.46178e-84
3.50092e-86
8.28192e-88
1.93556e-89
4.46967e-91
1.02002e-92
2.30069e-94
2.90383e-39
1.10894e-40
4.15262e-42
1.52527e-43
5.49563e-45
1.94305e-46
6.74418e-48
2.29891e-49
7.69861e-51
2.53358e-52
8.19622e-54
2.60715e-55
8.15668e-57
2.51059e-58
7.60456e-60
2.26739e-61
6.65652e-63
1.92461e-64
5.48165e-66
1.53834e-67
4.25465e-69
1.15996e-70
3.1181e-72
8.26597e-74
2.1614e-75
5.57566e-77
1.41922e-78
3.56511e-80
8.83974e-82
2.16386e-83
5.23023e-85
1.24854e-86
2.94417e-88
6.85937e-90
1.57921e-91
3.59336e-93
8.08217e-95
1.79714e-96
3.52241e-37
1.40982e-38
5.52638e-40
2.12241e-41
7.98721e-43
2.94652e-44
1.06603e-45
3.78408e-47
1.31842e-48
4.51029e-50
1.5155e-51
5.00335e-53
1.6235e-54
5.17924e-56
1.62491e-57
5.01497e-59
1.523e-60
4.55246e-62
1.33973e-63
3.8826e-65
1.10833e-66
3.11722e-68
8.63997e-70
2.36048e-71
6.35799e-73
1.68873e-74
4.42388e-76
1.14325e-77
2.91515e-79
7.3358e-81
1.82215e-82
4.46843e-84
1.08202e-85
2.58765e-87
6.11267e-89
1.42652e-90
3.28934e-92
7.49528e-94
1.84856e-35
7.64892e-37
3.09497e-38
1.22583e-39
4.75324e-41
1.80502e-42
6.71609e-44
2.44969e-45
8.76323e-47
3.07581e-48
1.05965e-49
3.58454e-51
1.19102e-52
3.8884e-54
1.24774e-55
3.93661e-57
1.2215e-58
3.72878e-60
1.12013e-61
3.31218e-63
9.64317e-65
2.76502e-66
7.81003e-68
2.17363e-69
5.96198e-71
1.61199e-72
4.29731e-74
1.12976e-75
2.92967e-77
7.49535e-79
1.89231e-80
4.71523e-82
1.15987e-83
2.81702e-85
6.75642e-87
1.60051e-88
3.74529e-90
8.65885e-92
2.41604e-34
1.03459e-35
4.32559e-37
1.76829e-38
7.0701e-40
2.76571e-41
1.05904e-42
3.97171e-44
1.4596e-45
5.25885e-47
1.85842e-48
6.44423e-50
2.19349e-51
7.33159e-53
2.40719e-54
7.76643e-56
2.46307e-57
7.68097e-59
2.35599e-60
7.11014e-62
2.1118e-63
6.17467e-65
1.77777e-66
5.04133e-68
1.4084e-69
3.87721e-71
1.05202e-72
2.81411e-74
7.42278e-76
1.93106e-77
4.95587e-79
1.25496e-80
3.13628e-82
7.73666e-84
1.8842e-85
4.53117e-87
1.07616e-88
2.52459e-90
9.50025e-34
4.19759e-35
1.80886e-36
7.61452e-38
3.13243e-39
1.25973e-40
4.9551e-42
1.90745e-43
7.18998e-45
2.65525e-46
9.61174e-48
3.412e-49
1.18824e-50
4.06125e-52
1.36281e-53
4.49147e-55
1.45437e-56
4.62853e-58
1.44822e-59
4.45647e-61
1.34909e-62
4.0189e-64
1.17845e-65
3.40227e-67
9.67358e-69
2.70942e-70
7.47719e-72
2.03366e-73
5.45252e-75
1.44143e-76
3.75805e-78
9.66494e-80
2.45242e-81
6.14099e-83
1.51779e-84
3.70338e-86
8.92217e-88
2.12276e-89
1.66902e-33
7.4868e-35
3.2741e-36
1.39829e-37
5.83455e-39
2.37945e-40
9.48898e-42
3.70242e-43
1.41425e-44
5.2915e-46
1.94028e-47
6.97564e-49
2.45992e-50
8.51228e-52
2.8915e-53
9.64526e-55
3.16062e-56
1.01777e-57
3.22176e-59
1.00286e-60
3.07063e-62
9.2508e-64
2.74295e-65
8.00684e-67
2.30155e-68
6.51638e-70
1.81771e-71
4.99662e-73
1.35383e-74
3.61647e-76
9.52654e-78
2.4752e-79
6.34461e-81
1.60475e-82
4.00596e-84
9.87147e-86
2.40167e-87
5.76994e-89
9.07327e-35
3.99151e-36
1.71295e-37
7.1829e-39
2.94425e-40
1.18009e-41
4.62736e-43
1.77612e-44
6.67692e-46
2.45965e-47
8.88327e-49
3.14676e-50
1.09376e-51
3.73173e-53
1.25023e-54
4.11447e-56
1.33056e-57
4.22957e-59
1.32203e-60
4.06449e-62
1.22947e-63
3.66015e-65
1.07267e-66
3.09555e-68
8.79875e-70
2.4639e-71
6.79898e-73
1.84921e-74
4.95842e-76
1.31103e-77
3.41896e-79
8.79587e-81
2.23284e-82
5.59399e-84
1.38342e-85
3.37777e-87
8.14379e-89
9.07882e-35
3.99382e-36
1.71386e-37
7.18655e-39
2.94573e-40
1.18068e-41
4.6297e-43
1.77702e-44
6.68028e-46
2.46087e-47
8.88762e-49
3.14827e-50
1.09427e-51
3.73345e-53
1.25079e-54
4.11627e-56
1.33113e-57
4.23133e-59
1.32256e-60
4.06607e-62
1.22993e-63
3.66147e-65
1.07305e-66
3.0966e-68
8.80167e-70
2.4647e-71
6.80115e-73
1.84978e-74
4.95988e-76
1.3114e-77
3.41985e-79
8.79799e-81
2.23334e-82
5.59517e-84
1.38369e-85
3.37844e-87
8.14542e-89
7.48545e-35
3.27567e-36
1.39848e-37
5.83456e-39
2.37972e-40
9.49179e-42
3.70409e-43
1.41503e-44
5.29474e-46
1.94153e-47
6.98021e-49
2.46155e-50
8.51801e-52
2.89348e-53
9.65194e-55
3.16283e-56
1.01849e-57
3.22401e-59
1.00355e-60
3.07269e-62
9.25685e-64
2.7447e-65
8.01186e-67
2.30298e-68
6.52042e-70
1.81883e-71
4.99969e-73
1.35464e-74
3.61855e-76
9.53168e-78
2.47643e-79
6.34746e-81
1.60541e-82
4.00746e-84
9.87497e-86
2.40251e-87
5.77211e-89
1.36786e-90
4.19664e-35
1.80954e-36
7.61459e-38
3.13214e-39
1.25982e-40
4.95655e-42
1.90836e-43
7.19431e-45
2.65706e-46
9.61871e-48
3.41459e-49
1.18919e-50
4.0646e-52
1.36397e-53
4.49541e-55
1.45567e-56
4.63273e-58
1.44955e-59
4.46053e-61
1.3503e-62
4.02246e-64
1.17948e-65
3.40522e-67
9.68199e-69
2.71179e-70
7.48376e-72
2.03544e-73
5.45719e-75
1.44261e-76
3.76089e-78
9.67155e-80
2.45391e-81
6.14427e-83
1.51852e-84
3.70504e-86
8.92616e-88
2.12379e-89
4.99084e-91
1.03434e-35
4.32673e-37
1.76816e-38
7.06933e-40
2.76597e-41
1.05939e-42
3.97372e-44
1.46051e-45
5.26257e-47
1.85986e-48
6.44967e-50
2.19549e-51
7.33871e-53
2.40965e-54
7.77469e-56
2.46577e-57
7.6896e-59
2.35869e-60
7.11837e-62
2.11425e-63
6.18184e-65
1.77983e-66
5.04719e-68
1.41005e-69
3.8818e-71
1.05327e-72
2.81744e-74
7.43135e-76
1.93317e-77
4.96086e-79
1.25609e-80
3.13872e-82
7.74185e-84
1.88531e-85
4.53361e-87
1.07673e-88
2.52604e-90
5.85473e-92
7.64722e-37
3.09498e-38
1.22552e-39
4.75253e-41
1.80521e-42
6.71825e-44
2.45082e-45
8.76814e-47
3.07781e-48
1.06045e-49
3.58764e-51
1.19219e-52
3.89256e-54
1.24917e-55
3.94135e-57
1.22303e-58
3.73364e-60
1.12164e-61
3.31675e-63
9.65669e-65
2.76892e-66
7.82108e-68
2.17672e-69
5.97053e-71
1.61433e-72
4.30359e-74
1.1314e-75
2.93381e-77
7.50531e-79
1.89458e-80
4.72014e-82
1.16087e-83
2.81899e-85
6.76027e-87
1.6013e-88
3.7471e-90
8.66352e-92
1.97939e-93
1.40943e-38
5.52408e-40
2.12142e-41
7.9855e-43
2.94665e-44
1.06626e-45
3.78534e-47
1.319e-48
4.5129e-50
1.51663e-51
5.00789e-53
1.6252e-54
5.18517e-56
1.62693e-57
5.02158e-59
1.52512e-60
4.55909e-62
1.34177e-63
3.88873e-65
1.11013e-66
3.12232e-68
8.65415e-70
2.36436e-71
6.36848e-73
1.69153e-74
4.43127e-76
1.14515e-77
2.91983e-79
7.34682e-81
1.8246e-82
4.47351e-84
1.08301e-85
2.58943e-87
6.11577e-89
1.42708e-90
3.29053e-92
7.4984e-94
1.68893e-95
9.5564e-37
3.91062e-38
1.56631e-39
6.14303e-41
2.35957e-42
8.87984e-44
3.27574e-45
1.18508e-46
4.20632e-48
1.46535e-49
5.0121e-51
1.68381e-52
5.55786e-54
1.80303e-55
5.75063e-57
1.80375e-58
5.56552e-60
1.68978e-61
5.0497e-63
1.48569e-64
4.30455e-66
1.2285e-67
3.45441e-69
9.5724e-71
2.61461e-72
7.04081e-74
1.86964e-75
4.89668e-77
1.26516e-78
3.22536e-80
8.11492e-82
2.01533e-83
4.94137e-85
1.19637e-86
2.86066e-88
6.75658e-90
1.57654e-91
3.63468e-93
4.84309e-35
2.04757e-36
8.46e-38
3.4198e-39
1.35275e-40
5.23803e-42
1.98638e-43
7.38122e-45
2.68891e-46
9.60735e-48
3.36813e-49
1.15904e-50
3.91641e-52
1.2999e-53
4.23942e-55
1.35901e-56
4.28345e-58
1.32787e-59
4.04983e-61
1.21551e-62
3.59123e-64
1.04473e-65
2.99326e-67
8.44838e-69
2.34956e-70
6.43993e-72
1.74001e-73
4.63549e-75
1.21789e-76
3.1563e-78
8.07046e-80
2.03637e-81
5.07152e-83
1.24687e-84
3.0268e-86
7.25596e-88
1.71801e-89
4.01832e-91
6.30954e-34
2.75861e-35
1.17683e-36
4.90649e-38
1.99999e-39
7.9731e-41
3.11013e-42
1.18773e-43
4.44307e-45
1.62892e-46
5.85554e-48
2.06478e-49
7.14484e-51
2.42709e-52
8.09678e-54
2.65353e-55
8.5461e-57
2.70577e-58
8.4242e-60
2.57997e-61
7.77455e-63
2.30585e-64
6.73281e-66
1.9359e-67
5.4827e-69
1.52981e-70
4.2064e-72
1.14003e-73
3.04615e-75
8.02631e-77
2.08594e-78
5.34812e-80
1.35301e-81
3.37824e-83
8.32621e-85
2.02604e-86
4.86822e-88
1.15526e-89
2.5447e-33
1.14724e-34
5.04106e-36
2.16286e-37
9.06548e-39
3.71336e-40
1.48719e-41
5.82683e-43
2.2347e-44
8.39394e-46
3.08955e-47
1.11483e-48
3.94544e-50
1.37002e-51
4.6695e-53
1.56273e-54
5.13723e-56
1.65941e-57
5.26873e-59
1.64485e-60
5.05066e-62
1.52581e-63
4.53632e-65
1.32763e-66
3.82586e-68
1.08586e-69
3.03609e-71
8.36485e-73
2.27146e-74
6.08076e-76
1.60514e-77
4.17895e-79
1.07328e-80
2.71981e-82
6.80193e-84
1.67909e-85
4.09206e-87
9.84716e-89
4.56993e-33
2.09173e-34
9.32739e-36
4.05996e-37
1.72603e-38
7.16964e-40
2.9112e-41
1.15616e-42
4.49349e-44
1.71008e-45
6.37594e-47
2.33012e-48
8.35042e-50
2.93572e-51
1.01289e-52
3.43099e-54
1.1414e-55
3.73058e-57
1.19834e-58
3.78436e-60
1.17531e-61
3.59076e-63
1.0795e-64
3.19432e-66
9.30611e-68
2.66996e-69
7.54562e-71
2.10108e-72
5.76571e-74
1.55964e-75
4.15962e-77
1.09406e-78
2.83843e-80
7.2654e-82
1.83514e-83
4.57502e-85
1.12593e-86
2.73588e-88
2.56085e-34
1.14903e-35
5.02604e-37
2.14725e-38
8.96451e-40
3.65853e-41
1.46023e-42
5.70305e-44
2.18077e-45
8.16891e-47
2.99908e-48
1.07964e-49
3.81262e-51
1.32126e-52
4.49508e-54
1.50186e-55
4.92963e-57
1.59017e-58
5.04266e-60
1.57254e-61
4.82392e-63
1.45607e-64
4.3258e-66
1.26523e-67
3.64424e-69
1.03391e-70
2.89003e-72
7.96098e-74
2.1616e-75
5.78669e-77
1.52766e-78
3.97794e-80
1.02193e-81
2.59059e-83
6.48157e-85
1.60083e-86
3.90364e-88
2.56251e-34
1.14974e-35
5.02887e-37
2.14837e-38
8.96903e-40
3.66036e-41
1.46096e-42
5.7059e-44
2.18185e-45
8.17287e-47
3.00049e-48
1.08014e-49
3.81431e-51
1.32183e-52
4.49698e-54
1.50247e-55
4.9316e-57
1.59079e-58
5.04455e-60
1.57311e-61
4.8256e-63
1.45656e-64
4.32721e-66
1.26564e-67
3.64538e-69
1.03422e-70
2.89089e-72
7.96328e-74
2.16221e-75
5.78823e-77
1.52804e-78
3.97889e-80
1.02216e-81
2.59115e-83
6.48295e-85
1.60117e-86
3.90447e-88
2.0911e-34
9.33295e-36
4.0611e-37
1.72614e-38
7.17042e-40
2.91198e-41
1.15665e-42
4.49591e-44
1.71112e-45
6.38e-47
2.33161e-48
8.35575e-50
2.93758e-51
1.01354e-52
3.43319e-54
1.14214e-55
3.73299e-57
1.19911e-58
3.78676e-60
1.17604e-61
3.59293e-63
1.08014e-64
3.19617e-66
9.31149e-68
2.6715e-69
7.54996e-71
2.10228e-72
5.76894e-74
1.56048e-75
4.16178e-77
1.09459e-78
2.83973e-80
7.26852e-82
1.83589e-83
4.57686e-85
1.12638e-86
2.73705e-88
6.55863e-90
1.1469e-34
5.04369e-36
2.16322e-37
9.06525e-39
3.7136e-40
1.48758e-41
5.8295e-43
2.23604e-44
8.39965e-46
3.09178e-47
1.11566e-48
3.94842e-50
1.37107e-51
4.67317e-53
1.56399e-54
5.14146e-56
1.6608e-57
5.27317e-59
1.64623e-60
5.05484e-62
1.52705e-63
4.53998e-65
1.3287e-66
3.82896e-68
1.08674e-69
3.03858e-71
8.37169e-73
2.27329e-74
6.08548e-76
1.60632e-77
4.18179e-79
1.07395e-80
2.72138e-82
6.8056e-84
1.67997e-85
4.09423e-87
9.85273e-89
2.34149e-90
2.75792e-35
1.17732e-36
4.90681e-38
1.99989e-39
7.97395e-41
3.11116e-42
1.18835e-43
4.446e-45
1.63012e-46
5.86017e-48
2.0665e-49
7.1511e-51
2.42932e-52
8.10454e-54
2.65617e-55
8.55489e-57
2.70862e-58
8.43323e-60
2.58276e-61
7.78298e-63
2.30835e-64
6.74012e-66
1.93801e-67
5.48877e-69
1.53152e-70
4.21115e-72
1.14131e-73
3.04952e-75
8.0348e-77
2.088e-78
5.35293e-80
1.35411e-81
3.38069e-83
8.33174e-85
2.02732e-86
4.87131e-88
1.15605e-89
2.71005e-91
2.04729e-36
8.4613e-38
3.41931e-39
1.35264e-40
5.23885e-42
1.98715e-43
7.38529e-45
2.6907e-46
9.61458e-48
3.37095e-49
1.16011e-50
3.92032e-52
1.30128e-53
4.24416e-55
1.36059e-56
4.28864e-58
1.32953e-59
4.05505e-61
1.21712e-62
3.59603e-64
1.04613e-65
2.99731e-67
8.4599e-69
2.3528e-70
6.44894e-72
1.74247e-73
4.64201e-75
1.21956e-76
3.16039e-78
8.08002e-80
2.03849e-81
5.07604e-83
1.24781e-84
3.02877e-86
7.26033e-88
1.71906e-89
4.02103e-91
9.29299e-93
3.91002e-38
1.56586e-39
6.14077e-41
2.35928e-42
8.88118e-44
3.27688e-45
1.18565e-46
4.20882e-48
1.46641e-49
5.0165e-51
1.68554e-52
5.56429e-54
1.80528e-55
5.75816e-57
1.80617e-58
5.57323e-60
1.6922e-61
5.05719e-63
1.48796e-64
4.31129e-66
1.23045e-67
3.45992e-69
9.58774e-71
2.61888e-72
7.05251e-74
1.87276e-75
4.90475e-77
1.26718e-78
3.23017e-80
8.12576e-82
2.01764e-83
4.94598e-85
1.19724e-86
2.86233e-88
6.7599e-90
1.5773e-91
3.63667e-93
8.28649e-95
1.71168e-36
7.1252e-38
2.9016e-39
1.15653e-40
4.51284e-42
1.72465e-43
6.45852e-45
2.37113e-46
8.53812e-48
3.01671e-49
1.04625e-50
3.56304e-52
1.19192e-53
3.91792e-55
1.26587e-56
4.02145e-58
1.2565e-59
3.86239e-61
1.1684e-62
3.47924e-64
1.02015e-65
2.94597e-67
8.38085e-69
2.34928e-70
6.49022e-72
1.76747e-73
4.74574e-75
1.25663e-76
3.2821e-78
8.45717e-80
2.15037e-81
5.39636e-83
1.33682e-84
3.26968e-86
7.89725e-88
1.88387e-89
4.43911e-91
1.03341e-92
8.63979e-35
3.71301e-36
1.55873e-37
6.3997e-39
2.57036e-40
1.01025e-41
3.8875e-43
1.4654e-44
5.41382e-46
1.96119e-47
6.96929e-49
2.43043e-50
8.32086e-52
2.79767e-53
9.24096e-55
2.99968e-56
9.5724e-58
3.00394e-59
9.27286e-61
2.81652e-62
8.41988e-64
2.47805e-65
7.18182e-67
2.05013e-68
5.76571e-70
1.59787e-71
4.36465e-73
1.17536e-74
3.12105e-76
8.17399e-78
2.11184e-79
5.38355e-81
1.3544e-82
3.36337e-84
8.24579e-86
1.99614e-87
4.77225e-89
1.12693e-90
1.13992e-33
5.06275e-35
2.19303e-36
9.28103e-38
3.83916e-39
1.55278e-40
6.14357e-42
2.37907e-43
9.02215e-45
3.35243e-46
1.22115e-47
4.36241e-49
1.52906e-50
5.26045e-52
1.77698e-53
5.89594e-55
1.92214e-56
6.15921e-58
1.94049e-59
6.01282e-61
1.83296e-62
5.49867e-64
1.62372e-65
4.72086e-67
1.35176e-68
3.81283e-70
1.05967e-71
2.90249e-73
7.83692e-75
2.08638e-76
5.47785e-78
1.41869e-79
3.62509e-81
9.14086e-83
2.27497e-84
5.58936e-86
1.35589e-87
3.24813e-89
4.73596e-33
2.16794e-34
9.66823e-36
4.20868e-37
1.78939e-38
7.43329e-40
3.01843e-41
1.19883e-42
4.65974e-44
1.77351e-45
6.61299e-47
2.41694e-48
8.6622e-50
3.04552e-51
1.05083e-52
3.55962e-54
1.18422e-55
3.87055e-57
1.24329e-58
3.9262e-60
1.2193e-61
3.72493e-63
1.11974e-64
3.31304e-66
9.65076e-68
2.76842e-69
7.82249e-71
2.17775e-72
5.9748e-74
1.61582e-75
4.30839e-77
1.13289e-78
2.93836e-80
7.51894e-82
1.89858e-83
4.73156e-85
1.16403e-86
2.82739e-88
8.69293e-33
4.04038e-34
1.82867e-35
8.07634e-37
3.48316e-38
1.46749e-39
6.04243e-41
2.43289e-42
9.58419e-44
3.69622e-45
1.39624e-46
5.16872e-48
1.87594e-49
6.67808e-51
2.33267e-52
7.99811e-54
2.69286e-55
8.90609e-57
2.8944e-58
9.24637e-60
2.90446e-61
8.97374e-63
2.72786e-64
8.16078e-66
2.40336e-67
6.96943e-69
1.99056e-70
5.6009e-72
1.55292e-73
4.24378e-75