/*--------------------------------*- C++ -*----------------------------------*\
| =========                 |                                                 |
| \\      /  F ield         | OpenFOAM: The Open Source CFD Toolbox           |
|  \\    /   O peration     | Version:  2.3.1                                 |
|   \\  /    A nd           | Web:      www.OpenFOAM.org                      |
|    \\/     M anipulation  |                                                 |
\*---------------------------------------------------------------------------*/
FoamFile
{
    version     2.0;
    format      ascii;
    class       volVectorField;
    location    "5";
    object      U;
}
// * * * * * * * * * * * * * * * * * * * * * * * * * * * * * * * * * * * * * //

dimensions      [0 1 -1 0 0 0 0];

internalField   nonuniform List<vector> 
38262
(
(0.00398542 9.761e-06 8.03392e-06)
(0.00393729 8.92368e-06 7.27962e-06)
(0.00389351 8.18702e-06 6.6099e-06)
(0.00385361 7.51744e-06 6.00991e-06)
(0.00381718 6.90999e-06 5.47384e-06)
(0.00378387 6.36494e-06 4.99804e-06)
(0.00375334 5.87632e-06 4.57591e-06)
(0.00372532 5.43613e-06 4.19872e-06)
(0.00369955 5.03877e-06 3.859e-06)
(0.00367583 4.67752e-06 3.55179e-06)
(0.00365398 4.3419e-06 3.27218e-06)
(0.00363387 4.02403e-06 3.01321e-06)
(0.00361539 3.72614e-06 2.76801e-06)
(0.00359841 3.45668e-06 2.53412e-06)
(0.00358283 3.21916e-06 2.31335e-06)
(0.00356852 3.00766e-06 2.10729e-06)
(0.00355538 2.81284e-06 1.9152e-06)
(0.00354331 2.62973e-06 1.73599e-06)
(0.00353224 2.45572e-06 1.56948e-06)
(0.00352212 2.28325e-06 1.41345e-06)
(0.0035129 2.1053e-06 1.26244e-06)
(0.00350457 1.92683e-06 1.11346e-06)
(0.00349709 1.75933e-06 9.70471e-07)
(0.00349042 1.60845e-06 8.40423e-07)
(0.00348448 1.47662e-06 7.2663e-07)
(0.00347919 1.37012e-06 6.2714e-07)
(0.00347447 1.29349e-06 5.37724e-07)
(0.00347024 1.2403e-06 4.54763e-07)
(0.00346646 1.19392e-06 3.75567e-07)
(0.0034631 1.1381e-06 2.97606e-07)
(0.00346018 1.06574e-06 2.18819e-07)
(0.00345769 9.75497e-07 1.3903e-07)
(0.00345567 8.67355e-07 6.08138e-08)
(0.00345412 7.46469e-07 -1.17791e-08)
(0.00345304 6.24584e-07 -7.46555e-08)
(0.0034524 5.12549e-07 -1.26328e-07)
(0.00345215 4.19587e-07 -1.69099e-07)
(0.00345224 3.44926e-07 -2.0762e-07)
(0.00409658 1.45159e-05 1.2021e-05)
(0.00404739 1.32448e-05 1.09455e-05)
(0.00400263 1.21452e-05 9.98674e-06)
(0.00396182 1.11592e-05 9.11566e-06)
(0.00392457 1.02665e-05 8.33276e-06)
(0.00389051 9.45736e-06 7.63774e-06)
(0.00385931 8.72237e-06 7.01989e-06)
(0.00383068 8.0535e-06 6.46649e-06)
(0.00380437 7.44139e-06 5.97066e-06)
(0.00378016 6.87058e-06 5.52678e-06)
(0.00375789 6.32572e-06 5.12219e-06)
(0.0037374 5.80648e-06 4.74109e-06)
(0.00371859 5.33086e-06 4.37657e-06)
(0.00370133 4.92007e-06 4.03226e-06)
(0.00368549 4.58062e-06 3.7123e-06)
(0.00367094 4.29873e-06 3.41413e-06)
(0.00365757 4.05183e-06 3.13198e-06)
(0.0036453 3.82538e-06 2.86487e-06)
(0.00363405 3.61296e-06 2.61436e-06)
(0.00362375 3.40407e-06 2.37368e-06)
(0.00361438 3.18824e-06 2.1322e-06)
(0.0036059 2.96862e-06 1.89282e-06)
(0.00359829 2.75534e-06 1.66969e-06)
(0.00359148 2.55169e-06 1.47119e-06)
(0.0035854 2.36099e-06 1.29881e-06)
(0.00357999 2.19634e-06 1.15476e-06)
(0.00357517 2.07092e-06 1.03832e-06)
(0.00357085 1.98316e-06 9.3975e-07)
(0.00356698 1.91712e-06 8.42936e-07)
(0.00356355 1.85498e-06 7.34632e-07)
(0.00356056 1.78334e-06 6.12956e-07)
(0.00355801 1.68664e-06 4.83835e-07)
(0.00355593 1.54827e-06 3.52907e-07)
(0.00355432 1.36612e-06 2.27789e-07)
(0.00355319 1.15834e-06 1.18756e-07)
(0.00355252 9.50082e-07 2.94716e-08)
(0.00355224 7.65399e-07 -3.84541e-08)
(0.00355231 6.05676e-07 -8.63217e-08)
(0.00410679 1.04433e-05 1.31798e-05)
(0.00405763 9.47215e-06 1.20134e-05)
(0.00401287 8.64111e-06 1.09852e-05)
(0.00397204 7.90439e-06 1.0058e-05)
(0.00393475 7.23614e-06 9.22518e-06)
(0.00390065 6.62084e-06 8.47763e-06)
(0.00386942 6.05074e-06 7.80467e-06)
(0.00384076 5.51968e-06 7.20229e-06)
(0.00381443 5.01387e-06 6.66818e-06)
(0.00379021 4.51637e-06 6.18817e-06)
(0.00376793 4.0259e-06 5.73769e-06)
(0.00374747 3.56572e-06 5.30172e-06)
(0.00372871 3.16842e-06 4.88499e-06)
(0.00371153 2.85568e-06 4.50121e-06)
(0.00369575 2.62965e-06 4.15702e-06)
(0.00368126 2.4745e-06 3.84418e-06)
(0.00366792 2.3669e-06 3.54653e-06)
(0.00365568 2.28997e-06 3.25777e-06)
(0.00364445 2.23422e-06 2.98227e-06)
(0.00363417 2.1886e-06 2.71635e-06)
(0.00362481 2.14315e-06 2.45016e-06)
(0.00361634 2.09356e-06 2.18805e-06)
(0.00360872 2.03345e-06 1.94345e-06)
(0.00360188 1.94972e-06 1.72139e-06)
(0.00359579 1.83634e-06 1.52403e-06)
(0.00359037 1.7067e-06 1.3587e-06)
(0.00358555 1.58663e-06 1.22742e-06)
(0.00358125 1.49911e-06 1.1176e-06)
(0.00357742 1.45642e-06 1.00834e-06)
(0.00357402 1.45881e-06 8.8761e-07)
(0.00357104 1.48923e-06 7.59403e-07)
(0.00356848 1.50996e-06 6.2761e-07)
(0.00356636 1.47833e-06 4.87857e-07)
(0.00356471 1.3727e-06 3.43965e-07)
(0.00356355 1.20062e-06 2.11086e-07)
(0.00356286 9.88568e-07 1.02435e-07)
(0.00356259 7.68546e-07 2.84794e-08)
(0.00356266 5.56411e-07 -1.20178e-08)
(0.00410777 6.18817e-06 1.2733e-05)
(0.00405869 5.54033e-06 1.16105e-05)
(0.00401399 4.95897e-06 1.06318e-05)
(0.00397319 4.42159e-06 9.75364e-06)
(0.00393592 3.92482e-06 8.96383e-06)
(0.00390184 3.4712e-06 8.24983e-06)
(0.00387062 3.05417e-06 7.60482e-06)
(0.00384198 2.65433e-06 7.02992e-06)
(0.00381564 2.24998e-06 6.51838e-06)
(0.00379141 1.83578e-06 6.04516e-06)
(0.00376915 1.43547e-06 5.5849e-06)
(0.00374874 1.08772e-06 5.13564e-06)
(0.00373006 8.19676e-07 4.71478e-06)
(0.00371296 6.35817e-07 4.33774e-06)
(0.00369725 5.27092e-07 4.00777e-06)
(0.00368281 4.82044e-07 3.71274e-06)
(0.00366953 4.92038e-07 3.43282e-06)
(0.00365732 5.49881e-07 3.16154e-06)
(0.00364611 6.42368e-07 2.90477e-06)
(0.00363584 7.50553e-07 2.6578e-06)
(0.00362649 8.6058e-07 2.40954e-06)
(0.00361801 9.66831e-07 2.16732e-06)
(0.00361037 1.05575e-06 1.94364e-06)
(0.00360349 1.1009e-06 1.73465e-06)
(0.00359736 1.08388e-06 1.53526e-06)
(0.00359192 1.01545e-06 1.35429e-06)
(0.00358711 9.33249e-07 1.20178e-06)
(0.00358285 8.82587e-07 1.07316e-06)
(0.00357907 8.96671e-07 9.53728e-07)
(0.00357572 9.81798e-07 8.38033e-07)
(0.00357276 1.11011e-06 7.31797e-07)
(0.00357018 1.22882e-06 6.28577e-07)
(0.003568 1.28548e-06 5.10123e-07)
(0.00356627 1.2501e-06 3.74757e-07)
(0.00356505 1.11923e-06 2.39749e-07)
(0.00356432 9.10188e-07 1.24557e-07)
(0.00356403 6.52657e-07 4.4855e-08)
(0.0035641 3.82723e-07 1.62737e-09)
(0.00410757 3.33852e-06 1.22899e-05)
(0.00405852 2.89024e-06 1.12092e-05)
(0.00401382 2.42679e-06 1.02675e-05)
(0.00397304 1.96333e-06 9.41688e-06)
(0.00393581 1.52487e-06 8.65236e-06)
(0.00390176 1.13142e-06 7.96796e-06)
(0.00387055 7.75045e-07 7.35695e-06)
(0.0038419 4.27071e-07 6.81244e-06)
(0.00381555 6.69965e-08 6.31495e-06)
(0.00379133 -2.91945e-07 5.83736e-06)
(0.00376911 -6.09796e-07 5.36704e-06)
(0.00374877 -8.50311e-07 4.91677e-06)
(0.00373017 -1.00352e-06 4.50492e-06)
(0.00371313 -1.08216e-06 4.13895e-06)
(0.00369748 -1.10289e-06 3.81673e-06)
(0.0036831 -1.07214e-06 3.52801e-06)
(0.00366986 -9.86355e-07 3.26004e-06)
(0.0036577 -8.45358e-07 3.01157e-06)
(0.00364652 -6.63436e-07 2.78383e-06)
(0.00363626 -4.61307e-07 2.56068e-06)
(0.00362691 -2.51938e-07 2.33108e-06)
(0.00361842 -4.27183e-08 2.11146e-06)
(0.00361075 1.47567e-07 1.91548e-06)
(0.00360382 2.89336e-07 1.72718e-06)
(0.00359761 3.6376e-07 1.52848e-06)
(0.00359213 3.80595e-07 1.32774e-06)
(0.00358733 3.76962e-07 1.14568e-06)
(0.00358312 4.01643e-07 9.92006e-07)
(0.00357941 4.92078e-07 8.64245e-07)
(0.00357612 6.52042e-07 7.62296e-07)
(0.00357317 8.46034e-07 6.8527e-07)
(0.00357056 1.01855e-06 6.12334e-07)
(0.0035683 1.1208e-06 5.16251e-07)
(0.00356648 1.12355e-06 3.94226e-07)
(0.00356516 1.01648e-06 2.63045e-07)
(0.00356436 8.07662e-07 1.40724e-07)
(0.00356403 5.2352e-07 4.41334e-08)
(0.0035641 2.10063e-07 -2.21118e-08)
(0.00405819 1.21301e-06 1.10512e-05)
(0.00401346 7.9869e-07 1.01075e-05)
(0.00397268 3.49105e-07 9.24895e-06)
(0.00393547 -8.7044e-08 8.48065e-06)
(0.00390146 -4.80904e-07 7.8069e-06)
(0.00387028 -8.37092e-07 7.21455e-06)
(0.00384163 -1.17927e-06 6.67881e-06)
(0.00381528 -1.51554e-06 6.17282e-06)
(0.00379109 -1.82074e-06 5.67753e-06)
(0.00376894 -2.05672e-06 5.19728e-06)
(0.00374868 -2.20171e-06 4.75218e-06)
(0.00373015 -2.25925e-06 4.35362e-06)
(0.00371316 -2.24894e-06 3.99756e-06)
(0.00369756 -2.19253e-06 3.67705e-06)
(0.00368321 -2.1016e-06 3.38678e-06)
(0.00367003 -1.9742e-06 3.12448e-06)
(0.0036579 -1.80599e-06 2.89395e-06)
(0.00364675 -1.60017e-06 2.68883e-06)
(0.00363651 -1.3661e-06 2.48375e-06)
(0.00362716 -1.11415e-06 2.26958e-06)
(0.00361867 -8.60139e-07 2.07042e-06)
(0.00361096 -6.25652e-07 1.89786e-06)
(0.00360398 -4.2799e-07 1.72449e-06)
(0.00359773 -2.70896e-07 1.52489e-06)
(0.00359222 -1.44402e-07 1.30838e-06)
(0.00358742 -2.72666e-08 1.10305e-06)
(0.00358325 1.09448e-07 9.30889e-07)
(0.00357959 2.88494e-07 8.01732e-07)
(0.00357634 5.05663e-07 7.17786e-07)
(0.00357339 7.27241e-07 6.6708e-07)
(0.00357072 9.09323e-07 6.1643e-07)
(0.00356839 1.01616e-06 5.36226e-07)
(0.00356648 1.02464e-06 4.25061e-07)
(0.00356506 9.238e-07 2.96363e-07)
(0.00356417 7.18592e-07 1.63831e-07)
(0.00356379 4.31973e-07 4.53984e-08)
(0.00356385 1.05863e-07 -4.94866e-08)
(0.00405788 -2.783e-07 1.11277e-05)
(0.00401308 -6.19708e-07 1.01495e-05)
(0.00397228 -1.02111e-06 9.25414e-06)
(0.0039351 -1.42959e-06 8.45772e-06)
(0.00390112 -1.81218e-06 7.77019e-06)
(0.00386996 -2.16176e-06 7.1711e-06)
(0.00384133 -2.48463e-06 6.62248e-06)
(0.00381501 -2.77434e-06 6.09456e-06)
(0.00379088 -3.00735e-06 5.58093e-06)
(0.0037688 -3.1605e-06 5.09511e-06)
(0.00374863 -3.22419e-06 4.65509e-06)
(0.00373017 -3.20302e-06 4.26601e-06)
(0.00371323 -3.11519e-06 3.91961e-06)
(0.00369766 -2.98823e-06 3.60568e-06)
(0.00368334 -2.84552e-06 3.31813e-06)
(0.00367017 -2.6953e-06 3.05775e-06)
(0.00365808 -2.53019e-06 2.83125e-06)
(0.00364695 -2.33534e-06 2.63193e-06)
(0.00363674 -2.10155e-06 2.43558e-06)
(0.00362741 -1.83885e-06 2.23496e-06)
(0.0036189 -1.57331e-06 2.05011e-06)
(0.00361117 -1.32463e-06 1.88501e-06)
(0.00360417 -1.08988e-06 1.71171e-06)
(0.00359791 -8.53499e-07 1.51055e-06)
(0.00359239 -6.07776e-07 1.29286e-06)
(0.0035876 -3.55935e-07 1.08514e-06)
(0.00358344 -9.99327e-08 9.12258e-07)
(0.0035798 1.58504e-07 7.90693e-07)
(0.00357655 4.08265e-07 7.22834e-07)
(0.00357357 6.27884e-07 6.89191e-07)
(0.00357085 7.93129e-07 6.51161e-07)
(0.00356844 8.83218e-07 5.80191e-07)
(0.00356643 8.82613e-07 4.74519e-07)
(0.00356492 7.85212e-07 3.44219e-07)
(0.00356395 5.98064e-07 2.01501e-07)
(0.00356351 3.37637e-07 6.57896e-08)
(0.00356356 3.1822e-08 -5.06429e-08)
(0.00405763 -2.22235e-06 1.13895e-05)
(0.00401274 -2.41089e-06 1.03645e-05)
(0.00397191 -2.67156e-06 9.42046e-06)
(0.00393472 -2.96518e-06 8.57851e-06)
(0.00390077 -3.25807e-06 7.85317e-06)
(0.00386964 -3.52819e-06 7.22285e-06)
(0.00384104 -3.76314e-06 6.64484e-06)
(0.00381478 -3.9499e-06 6.09067e-06)
(0.00379071 -4.07353e-06 5.55896e-06)
(0.00376871 -4.12444e-06 5.06368e-06)
(0.00374861 -4.09962e-06 4.61976e-06)
(0.00373022 -4.00276e-06 4.23429e-06)
(0.00371332 -3.84938e-06 3.90085e-06)
(0.00369777 -3.66727e-06 3.60305e-06)
(0.00368345 -3.48456e-06 3.32435e-06)
(0.00367028 -3.31533e-06 3.05999e-06)
(0.0036582 -3.15106e-06 2.81971e-06)
(0.00364711 -2.96625e-06 2.60892e-06)
(0.00363693 -2.74126e-06 2.41412e-06)
(0.00362761 -2.48352e-06 2.22472e-06)
(0.0036191 -2.21845e-06 2.04524e-06)
(0.00361136 -1.95768e-06 1.87141e-06)
(0.00360437 -1.68498e-06 1.68637e-06)
(0.00359813 -1.37734e-06 1.4861e-06)
(0.00359264 -1.03259e-06 1.28332e-06)
(0.00358785 -6.71203e-07 1.0953e-06)
(0.00358368 -3.2094e-07 9.40008e-07)
(0.00358002 -6.02164e-09 8.33807e-07)
(0.00357672 2.55974e-07 7.7878e-07)
(0.0035737 4.56134e-07 7.53696e-07)
(0.00357092 5.90825e-07 7.22313e-07)
(0.00356843 6.54544e-07 6.55967e-07)
(0.00356635 6.41348e-07 5.49067e-07)
(0.00356476 5.52765e-07 4.1085e-07)
(0.00356372 3.97588e-07 2.57808e-07)
(0.00356323 1.84126e-07 1.09399e-07)
(0.00356325 -7.63565e-08 -2.65391e-08)
(0.00356373 -3.50585e-07 -1.47454e-07)
(0.00405731 -5.24191e-06 1.18174e-05)
(0.00401235 -5.13275e-06 1.07347e-05)
(0.00397146 -5.10449e-06 9.73314e-06)
(0.00393426 -5.13403e-06 8.83306e-06)
(0.00390031 -5.19716e-06 8.05461e-06)
(0.00386921 -5.26631e-06 7.38042e-06)
(0.00384065 -5.31614e-06 6.76675e-06)
(0.00381444 -5.32721e-06 6.18456e-06)
(0.00379044 -5.28798e-06 5.63184e-06)
(0.0037685 -5.19589e-06 5.11943e-06)
(0.00374846 -5.05575e-06 4.6632e-06)
(0.00373011 -4.87657e-06 4.27546e-06)
(0.00371325 -4.6709e-06 3.95056e-06)
(0.00369771 -4.4538e-06 3.66495e-06)
(0.00368337 -4.23975e-06 3.39159e-06)
(0.00367019 -4.03739e-06 3.11774e-06)
(0.00365811 -3.84301e-06 2.85553e-06)
(0.00364704 -3.63862e-06 2.62421e-06)
(0.00363689 -3.40625e-06 2.42245e-06)
(0.00362759 -3.14481e-06 2.23472e-06)
(0.00361909 -2.86562e-06 2.0506e-06)
(0.00361137 -2.57063e-06 1.86208e-06)
(0.00360441 -2.24573e-06 1.6651e-06)
(0.00359821 -1.87731e-06 1.46918e-06)
(0.00359274 -1.47103e-06 1.28785e-06)
(0.00358795 -1.05417e-06 1.12845e-06)
(0.00358375 -6.6587e-07 1.00077e-06)
(0.00358003 -3.41809e-07 9.14535e-07)
(0.00357667 -1.01599e-07 8.69543e-07)
(0.00357358 5.65747e-08 8.48879e-07)
(0.00357073 1.47922e-07 8.20265e-07)
(0.00356818 1.85349e-07 7.53316e-07)
(0.00356603 1.75394e-07 6.37727e-07)
(0.00356439 1.23183e-07 4.8551e-07)
(0.00356331 3.22703e-08 3.20486e-07)
(0.00356278 -9.80505e-08 1.60355e-07)
(0.00356277 -2.64504e-07 2.43736e-09)
(0.00356326 -4.41375e-07 -1.52003e-07)
(0.00405588 -9.47762e-06 1.2192e-05)
(0.00401085 -8.91764e-06 1.10543e-05)
(0.00396991 -8.45063e-06 1.00017e-05)
(0.00393267 -8.06839e-06 9.05214e-06)
(0.00389871 -7.76494e-06 8.2285e-06)
(0.00386762 -7.51576e-06 7.51602e-06)
(0.00383909 -7.28371e-06 6.87038e-06)
(0.00381292 -7.03886e-06 6.26175e-06)
(0.00378895 -6.76839e-06 5.68831e-06)
(0.00376705 -6.4768e-06 5.1613e-06)
(0.00374704 -6.18124e-06 4.69651e-06)
(0.00372871 -5.89893e-06 4.30435e-06)
(0.00371186 -5.63496e-06 3.97652e-06)
(0.00369632 -5.38121e-06 3.68878e-06)
(0.00368198 -5.12517e-06 3.41301e-06)
(0.00366879 -4.86182e-06 3.13222e-06)
(0.0036567 -4.59696e-06 2.85615e-06)
(0.00364565 -4.33411e-06 2.60889e-06)
(0.00363552 -4.06469e-06 2.39604e-06)
(0.00362623 -3.77724e-06 2.203e-06)
(0.00361775 -3.46556e-06 2.01551e-06)
(0.00361005 -3.12455e-06 1.82432e-06)
(0.00360312 -2.7496e-06 1.62883e-06)
(0.00359695 -2.3429e-06 1.44271e-06)
(0.0035915 -1.91806e-06 1.2813e-06)
(0.0035867 -1.50267e-06 1.15148e-06)
(0.00358246 -1.13414e-06 1.05611e-06)
(0.00357866 -8.473e-07 9.93946e-07)
(0.00357522 -6.57669e-07 9.57424e-07)
(0.00357205 -5.54111e-07 9.33307e-07)
(0.00356914 -5.06215e-07 8.97855e-07)
(0.00356654 -4.82033e-07 8.22696e-07)
(0.00356436 -4.63305e-07 6.95934e-07)
(0.00356268 -4.48548e-07 5.32593e-07)
(0.00356156 -4.46648e-07 3.59919e-07)
(0.003561 -4.64822e-07 1.90647e-07)
(0.00356098 -4.98138e-07 1.5182e-08)
(0.00356148 -5.31856e-07 -1.65017e-07)
(0.00404533 -1.34317e-05 1.10651e-05)
(0.0040003 -1.23904e-05 1.00125e-05)
(0.00395938 -1.14532e-05 9.04503e-06)
(0.00392216 -1.06303e-05 8.17545e-06)
(0.00388823 -9.93748e-06 7.41911e-06)
(0.00385717 -9.35273e-06 6.76083e-06)
(0.00382868 -8.82425e-06 6.16273e-06)
(0.00380256 -8.31121e-06 5.6011e-06)
(0.00377866 -7.8037e-06 5.07708e-06)
(0.0037568 -7.31636e-06 4.6011e-06)
(0.00373682 -6.87463e-06 4.18212e-06)
(0.0037185 -6.49556e-06 3.82165e-06)
(0.00370165 -6.17356e-06 3.51064e-06)
(0.00368612 -5.88271e-06 3.23469e-06)
(0.0036718 -5.58937e-06 2.97716e-06)
(0.00365862 -5.2728e-06 2.72402e-06)
(0.00364654 -4.94077e-06 2.47713e-06)
(0.00363547 -4.61421e-06 2.25166e-06)
(0.00362535 -4.29997e-06 2.05406e-06)
(0.00361607 -3.98874e-06 1.8773e-06)
(0.00360761 -3.66649e-06 1.71211e-06)
(0.00359992 -3.31958e-06 1.54922e-06)
(0.00359301 -2.94299e-06 1.38514e-06)
(0.00358687 -2.54926e-06 1.23047e-06)
(0.00358144 -2.16463e-06 1.10088e-06)
(0.00357663 -1.82024e-06 1.00474e-06)
(0.00357235 -1.54434e-06 9.40462e-07)
(0.00356848 -1.35313e-06 8.97417e-07)
(0.00356495 -1.2463e-06 8.63155e-07)
(0.00356171 -1.20505e-06 8.28656e-07)
(0.00355873 -1.19206e-06 7.80469e-07)
(0.00355608 -1.16495e-06 6.98945e-07)
(0.00355384 -1.10088e-06 5.75259e-07)
(0.00355212 -1.00745e-06 4.22858e-07)
(0.00355096 -9.05949e-07 2.63744e-07)
(0.00355037 -8.04449e-07 1.05982e-07)
(0.00355034 -6.93408e-07 -5.70742e-08)
(0.00355085 -5.72587e-07 -2.22846e-07)
(0.00393496 -9.05529e-06 7.33306e-06)
(0.00389088 -8.29221e-06 6.61412e-06)
(0.00385084 -7.59347e-06 5.96275e-06)
(0.00381444 -6.96955e-06 5.38221e-06)
(0.00378125 -6.43549e-06 4.87355e-06)
(0.00375088 -5.97998e-06 4.42422e-06)
(0.00372302 -5.56946e-06 4.01446e-06)
(0.00369748 -5.17814e-06 3.63331e-06)
(0.0036741 -4.80217e-06 3.28173e-06)
(0.00365273 -4.45232e-06 2.96417e-06)
(0.00363317 -4.14327e-06 2.68156e-06)
(0.00361524 -3.88252e-06 2.42993e-06)
(0.00359874 -3.66378e-06 2.20358e-06)
(0.00358353 -3.47013e-06 1.99877e-06)
(0.0035695 -3.27961e-06 1.81279e-06)
(0.00355659 -3.07625e-06 1.64154e-06)
(0.00354474 -2.86293e-06 1.48334e-06)
(0.00353388 -2.65486e-06 1.34063e-06)
(0.00352394 -2.46008e-06 1.21387e-06)
(0.00351483 -2.27545e-06 1.09968e-06)
(0.00350652 -2.09313e-06 9.93722e-07)
(0.00349898 -1.90328e-06 8.91644e-07)
(0.00349221 -1.70061e-06 7.9277e-07)
(0.00348621 -1.49296e-06 7.03027e-07)
(0.00348091 -1.29802e-06 6.30102e-07)
(0.00347621 -1.13422e-06 5.76936e-07)
(0.00347201 -1.01373e-06 5.3926e-07)
(0.0034682 -9.37994e-07 5.07787e-07)
(0.00346469 -9.00021e-07 4.74022e-07)
(0.00346145 -8.87569e-07 4.33311e-07)
(0.00345846 -8.80714e-07 3.80857e-07)
(0.00345578 -8.55539e-07 3.09193e-07)
(0.00345352 -7.99477e-07 2.14844e-07)
(0.00345177 -7.20053e-07 1.04256e-07)
(0.0034506 -6.3283e-07 -1.16058e-08)
(0.00345001 -5.42283e-07 -1.24581e-07)
(0.00345 -4.40155e-07 -2.32664e-07)
(0.00345054 -3.30154e-07 -3.3373e-07)
(0.00418849 4.60368e-06 2.56842e-05)
(0.00413809 4.21189e-06 2.32845e-05)
(0.00409227 3.87944e-06 2.11509e-05)
(0.00405051 3.57681e-06 1.92428e-05)
(0.00401238 3.30422e-06 1.75373e-05)
(0.00397751 3.06559e-06 1.60152e-05)
(0.00394557 2.85798e-06 1.46544e-05)
(0.00391627 2.6759e-06 1.34311e-05)
(0.00388933 2.51578e-06 1.23258e-05)
(0.00386456 2.37274e-06 1.13233e-05)
(0.00384175 2.23778e-06 1.04083e-05)
(0.00382078 2.10374e-06 9.562e-06)
(0.0038015 1.9724e-06 8.76831e-06)
(0.0037838 1.85216e-06 8.02101e-06)
(0.00376756 1.74877e-06 7.32246e-06)
(0.00375265 1.6596e-06 6.67423e-06)
(0.00373895 1.57726e-06 6.07255e-06)
(0.00372638 1.49724e-06 5.51314e-06)
(0.00371485 1.41724e-06 4.99377e-06)
(0.00370431 1.33064e-06 4.50812e-06)
(0.00369472 1.23073e-06 4.04453e-06)
(0.00368602 1.12145e-06 3.59681e-06)
(0.0036782 1.01442e-06 3.17168e-06)
(0.00367121 9.19509e-07 2.78086e-06)
(0.00366496 8.44959e-07 2.42952e-06)
(0.00365939 7.9835e-07 2.11341e-06)
(0.00365441 7.80229e-07 1.82368e-06)
(0.00364996 7.80082e-07 1.55283e-06)
(0.00364599 7.80646e-07 1.29586e-06)
(0.00364248 7.66893e-07 1.04857e-06)
(0.00363943 7.31658e-07 8.07587e-07)
(0.00363683 6.72295e-07 5.72467e-07)
(0.00363469 5.89321e-07 3.46542e-07)
(0.00363304 4.90974e-07 1.36595e-07)
(0.00363186 3.91251e-07 -5.05565e-08)
(0.00363112 3.01484e-07 -2.13976e-07)
(0.00363079 2.32042e-07 -3.56846e-07)
(0.00363081 1.81367e-07 -4.85782e-07)
(0.00430643 8.10846e-06 3.48066e-05)
(0.00425458 7.39566e-06 3.1654e-05)
(0.00420744 6.79744e-06 2.88462e-05)
(0.00416448 6.26484e-06 2.63162e-05)
(0.00412528 5.78913e-06 2.40453e-05)
(0.00408945 5.37112e-06 2.20165e-05)
(0.00405666 5.00569e-06 2.02009e-05)
(0.00402661 4.68264e-06 1.85692e-05)
(0.00399903 4.39173e-06 1.71014e-05)
(0.00397371 4.12285e-06 1.57775e-05)
(0.00395045 3.86549e-06 1.45665e-05)
(0.0039291 3.61455e-06 1.3436e-05)
(0.0039095 3.37617e-06 1.23722e-05)
(0.00389153 3.16362e-06 1.13784e-05)
(0.00387503 2.98532e-06 1.04577e-05)
(0.0038599 2.83689e-06 9.60211e-06)
(0.00384601 2.70605e-06 8.79941e-06)
(0.00383328 2.58344e-06 8.04496e-06)
(0.00382161 2.46281e-06 7.33746e-06)
(0.00381096 2.33312e-06 6.66286e-06)
(0.00380125 2.18335e-06 6.00389e-06)
(0.00379245 2.01619e-06 5.36631e-06)
(0.00378449 1.8467e-06 4.77191e-06)
(0.00377733 1.69118e-06 4.23314e-06)
(0.00377091 1.56423e-06 3.75361e-06)
(0.00376517 1.47736e-06 3.33759e-06)
(0.00376005 1.43175e-06 2.98169e-06)
(0.00375549 1.41528e-06 2.66632e-06)
(0.00375146 1.40767e-06 2.36158e-06)
(0.00374792 1.38814e-06 2.04383e-06)
(0.00374484 1.3403e-06 1.71006e-06)
(0.00374223 1.25225e-06 1.36898e-06)
(0.00374008 1.11972e-06 1.02832e-06)
(0.00373839 9.53156e-07 7.01237e-07)
(0.00373715 7.74206e-07 4.06242e-07)
(0.00373636 6.0387e-07 1.52794e-07)
(0.00373597 4.60022e-07 -5.43378e-08)
(0.00373597 3.42201e-07 -2.24735e-07)
(0.00431449 7.20234e-06 3.8137e-05)
(0.00426255 6.5318e-06 3.47161e-05)
(0.00421532 5.97162e-06 3.1691e-05)
(0.00417228 5.48057e-06 2.89759e-05)
(0.004133 5.04462e-06 2.65369e-05)
(0.00409711 4.65869e-06 2.43448e-05)
(0.00406427 4.31572e-06 2.2372e-05)
(0.0040342 4.00477e-06 2.06014e-05)
(0.00400662 3.71432e-06 1.90155e-05)
(0.00398132 3.43604e-06 1.75777e-05)
(0.0039581 3.16662e-06 1.62391e-05)
(0.00393682 2.90982e-06 1.49721e-05)
(0.00391731 2.67675e-06 1.3782e-05)
(0.00389943 2.48099e-06 1.26869e-05)
(0.00388302 2.32986e-06 1.16924e-05)
(0.00386797 2.21877e-06 1.07805e-05)
(0.00385417 2.13467e-06 9.9223e-06)
(0.00384151 2.06533e-06 9.10488e-06)
(0.00382992 2.00246e-06 8.33077e-06)
(0.00381933 1.93657e-06 7.58944e-06)
(0.00380969 1.85776e-06 6.8642e-06)
(0.00380093 1.76305e-06 6.16308e-06)
(0.00379299 1.65759e-06 5.50771e-06)
(0.00378584 1.54982e-06 4.9069e-06)
(0.00377942 1.44997e-06 4.36584e-06)
(0.00377367 1.36829e-06 3.8959e-06)
(0.00376856 1.31142e-06 3.49797e-06)
(0.00376402 1.28074e-06 3.14896e-06)
(0.00376002 1.27124e-06 2.81177e-06)
(0.00375651 1.2706e-06 2.46396e-06)
(0.00375346 1.2606e-06 2.10874e-06)
(0.00375087 1.22054e-06 1.74842e-06)
(0.00374873 1.1352e-06 1.37541e-06)
(0.00374703 1.00435e-06 9.9894e-07)
(0.00374579 8.41825e-07 6.45944e-07)
(0.00374498 6.67565e-07 3.41735e-07)
(0.00374459 5.02167e-07 1.06448e-07)
(0.00374459 3.53728e-07 -7.07376e-08)
(0.00431474 4.82034e-06 3.7871e-05)
(0.00426284 4.32471e-06 3.44873e-05)
(0.00421563 3.89921e-06 3.15147e-05)
(0.0041726 3.51963e-06 2.88532e-05)
(0.00413334 3.17915e-06 2.64607e-05)
(0.00409746 2.87628e-06 2.43041e-05)
(0.00406464 2.60381e-06 2.23613e-05)
(0.00403458 2.34945e-06 2.06198e-05)
(0.00400702 2.10341e-06 1.90517e-05)
(0.00398174 1.86407e-06 1.76032e-05)
(0.00395857 1.63722e-06 1.62275e-05)
(0.00393734 1.4326e-06 1.49196e-05)
(0.00391789 1.26115e-06 1.37048e-05)
(0.00390007 1.13128e-06 1.26049e-05)
(0.00388373 1.04545e-06 1.16215e-05)
(0.00386873 9.99327e-07 1.07301e-05)
(0.00385498 9.83848e-07 9.89476e-06)
(0.00384237 9.8919e-07 9.10166e-06)
(0.00383081 1.00691e-06 8.35454e-06)
(0.00382026 1.0284e-06 7.63986e-06)
(0.00381063 1.04444e-06 6.93901e-06)
(0.00380188 1.04874e-06 6.26447e-06)
(0.00379396 1.03836e-06 5.63506e-06)
(0.0037868 1.01221e-06 5.04536e-06)
(0.00378037 9.72762e-07 4.48943e-06)
(0.00377463 9.28932e-07 3.9818e-06)
(0.00376953 8.94246e-07 3.53724e-06)
(0.00376502 8.81945e-07 3.14738e-06)
(0.00376105 8.97592e-07 2.78768e-06)
(0.00375756 9.33961e-07 2.4467e-06)
(0.00375452 9.72717e-07 2.12716e-06)
(0.00375192 9.9e-07 1.81218e-06)
(0.00374976 9.64697e-07 1.47178e-06)
(0.00374803 8.87663e-07 1.10543e-06)
(0.00374676 7.63513e-07 7.42549e-07)
(0.00374594 6.06673e-07 4.18604e-07)
(0.00374554 4.37267e-07 1.63891e-07)
(0.00374556 2.74234e-07 -2.85585e-08)
(0.00431445 2.66267e-06 3.69908e-05)
(0.00426258 2.32823e-06 3.369e-05)
(0.00421539 2.0092e-06 3.07904e-05)
(0.00417238 1.70996e-06 2.81865e-05)
(0.00413314 1.43321e-06 2.58486e-05)
(0.00409728 1.18237e-06 2.37535e-05)
(0.00406448 9.52649e-07 2.18766e-05)
(0.00403442 7.35026e-07 2.01898e-05)
(0.00400687 5.24882e-07 1.8646e-05)
(0.0039816 3.2621e-07 1.71905e-05)
(0.00395846 1.48908e-07 1.57987e-05)
(0.00393726 3.75806e-09 1.44893e-05)
(0.00391786 -1.01905e-07 1.32893e-05)
(0.00390009 -1.66159e-07 1.22091e-05)
(0.00388379 -1.91355e-07 1.12435e-05)
(0.00386884 -1.81668e-07 1.0371e-05)
(0.00385511 -1.42602e-07 9.56512e-06)
(0.00384253 -8.05294e-08 8.81826e-06)
(0.00383099 -1.46763e-09 8.12553e-06)
(0.00382045 8.81213e-08 7.45747e-06)
(0.00381083 1.79746e-07 6.79753e-06)
(0.00380207 2.64774e-07 6.17095e-06)
(0.00379413 3.35654e-07 5.59435e-06)
(0.00378696 3.86366e-07 5.03979e-06)
(0.00378051 4.1551e-07 4.4811e-06)
(0.00377477 4.2993e-07 3.934e-06)
(0.00376968 4.43849e-07 3.4337e-06)
(0.00376519 4.73191e-07 2.99828e-06)
(0.00376124 5.26982e-07 2.62498e-06)
(0.00375777 6.01078e-07 2.3109e-06)
(0.00375474 6.79212e-07 2.04602e-06)
(0.00375211 7.38431e-07 1.7891e-06)
(0.00374991 7.56671e-07 1.49419e-06)
(0.00374814 7.21213e-07 1.15558e-06)
(0.00374682 6.31123e-07 7.99319e-07)
(0.00374597 4.95808e-07 4.5964e-07)
(0.00374557 3.32575e-07 1.70607e-07)
(0.00374559 1.64005e-07 -6.24588e-08)
(0.00426234 8.58584e-07 3.32995e-05)
(0.00421515 6.1305e-07 3.04027e-05)
(0.00417215 3.59931e-07 2.77905e-05)
(0.00413292 1.13914e-07 2.54524e-05)
(0.00409708 -1.16961e-07 2.33805e-05)
(0.00406429 -3.31329e-07 2.15382e-05)
(0.00403424 -5.30973e-07 1.98682e-05)
(0.0040067 -7.15043e-07 1.83109e-05)
(0.00398146 -8.77256e-07 1.68274e-05)
(0.00395834 -1.00779e-06 1.54204e-05)
(0.00393719 -1.09814e-06 1.41187e-05)
(0.00391782 -1.14566e-06 1.29398e-05)
(0.00390008 -1.15445e-06 1.18787e-05)
(0.00388382 -1.13181e-06 1.09233e-05)
(0.00386889 -1.08404e-06 1.00582e-05)
(0.00385519 -1.01471e-06 9.27166e-06)
(0.00384263 -9.25095e-07 8.56225e-06)
(0.00383111 -8.15698e-07 7.91367e-06)
(0.00382057 -6.90105e-07 7.28433e-06)
(0.00381096 -5.56491e-07 6.66149e-06)
(0.0038022 -4.24229e-07 6.07915e-06)
(0.00379424 -3.00366e-07 5.54683e-06)
(0.00378705 -1.89806e-07 5.01861e-06)
(0.00378059 -9.39894e-08 4.45755e-06)
(0.00377483 -9.50493e-09 3.88164e-06)
(0.00376975 7.15765e-08 3.33993e-06)
(0.00376527 1.58422e-07 2.87315e-06)
(0.00376134 2.56126e-07 2.50019e-06)
(0.00375788 3.60745e-07 2.22115e-06)
(0.00375484 4.59875e-07 2.00736e-06)
(0.00375219 5.35888e-07 1.79728e-06)
(0.00374994 5.71732e-07 1.53845e-06)
(0.00374812 5.57173e-07 1.22333e-06)
(0.00374676 4.89921e-07 8.71251e-07)
(0.00374587 3.75408e-07 5.10728e-07)
(0.00374545 2.26173e-07 1.78711e-07)
(0.00374547 6.18458e-08 -1.04889e-07)
(0.00426217 -4.67015e-07 3.34479e-05)
(0.00421495 -6.27869e-07 3.04833e-05)
(0.00417194 -8.20085e-07 2.77982e-05)
(0.00413271 -1.02319e-06 2.54022e-05)
(0.00409688 -1.2252e-06 2.32972e-05)
(0.00406411 -1.41675e-06 2.14338e-05)
(0.00403408 -1.5901e-06 1.97339e-05)
(0.00400656 -1.73936e-06 1.81352e-05)
(0.00398135 -1.85825e-06 1.66173e-05)
(0.00395827 -1.93942e-06 1.51965e-05)
(0.00393715 -1.97804e-06 1.38999e-05)
(0.00391782 -1.97554e-06 1.27377e-05)
(0.00390011 -1.93997e-06 1.16978e-05)
(0.00388387 -1.88201e-06 1.07595e-05)
(0.00386896 -1.80929e-06 9.90378e-06)
(0.00385528 -1.72366e-06 9.12326e-06)
(0.00384273 -1.622e-06 8.42211e-06)
(0.00383123 -1.50018e-06 7.78616e-06)
(0.0038207 -1.35874e-06 7.17718e-06)
(0.00381109 -1.20438e-06 6.58328e-06)
(0.00380233 -1.04467e-06 6.0289e-06)
(0.00379437 -8.83608e-07 5.51154e-06)
(0.00378717 -7.22315e-07 4.98588e-06)
(0.0037807 -5.6153e-07 4.42405e-06)
(0.00377494 -4.03045e-07 3.84662e-06)
(0.00376985 -2.49696e-07 3.30124e-06)
(0.00376538 -1.03807e-07 2.83554e-06)
(0.00376145 3.19085e-08 2.47965e-06)
(0.00375798 1.53176e-07 2.2333e-06)
(0.00375492 2.53718e-07 2.05532e-06)
(0.00375224 3.25251e-07 1.87488e-06)
(0.00374995 3.60312e-07 1.63803e-06)
(0.00374809 3.55128e-07 1.33425e-06)
(0.00374669 3.08389e-07 9.77625e-07)
(0.00374576 2.21571e-07 5.95147e-07)
(0.00374531 1.00764e-07 2.26472e-07)
(0.00374532 -4.01603e-08 -1.0262e-07)
(0.00426208 -2.07136e-06 3.40486e-05)
(0.00421481 -2.09697e-06 3.09799e-05)
(0.00417177 -2.17017e-06 2.81858e-05)
(0.00413254 -2.27547e-06 2.56886e-05)
(0.00409671 -2.4003e-06 2.34988e-05)
(0.00406395 -2.52713e-06 2.15649e-05)
(0.00403394 -2.63787e-06 1.98008e-05)
(0.00400645 -2.72102e-06 1.8146e-05)
(0.00398127 -2.77064e-06 1.65875e-05)
(0.00395823 -2.78415e-06 1.5142e-05)
(0.00393715 -2.76305e-06 1.38352e-05)
(0.00391785 -2.71293e-06 1.26811e-05)
(0.00390016 -2.64202e-06 1.16664e-05)
(0.00388393 -2.55868e-06 1.07558e-05)
(0.00386903 -2.46724e-06 9.91289e-06)
(0.00385535 -2.36656e-06 9.12245e-06)
(0.00384282 -2.25245e-06 8.39658e-06)
(0.00383133 -2.12057e-06 7.74212e-06)
(0.00382083 -1.9696e-06 7.1367e-06)
(0.00381122 -1.80216e-06 6.56025e-06)
(0.00380247 -1.62081e-06 6.01245e-06)
(0.00379451 -1.42547e-06 5.48086e-06)
(0.00378732 -1.21558e-06 4.93925e-06)
(0.00378086 -9.93768e-07 4.38296e-06)
(0.00377509 -7.68394e-07 3.8335e-06)
(0.00377 -5.52846e-07 3.32401e-06)
(0.00376551 -3.60591e-07 2.8927e-06)
(0.00376156 -2.01436e-07 2.56831e-06)
(0.00375806 -7.9773e-08 2.34966e-06)
(0.00375497 4.8688e-09 2.19362e-06)
(0.00375226 5.62181e-08 2.0302e-06)
(0.00374994 7.9841e-08 1.80318e-06)
(0.00374804 8.05509e-08 1.49593e-06)
(0.00374661 5.83203e-08 1.12255e-06)
(0.00374565 9.98223e-09 7.165e-07)
(0.00374518 -6.46038e-08 3.16856e-07)
(0.00374517 -1.58461e-07 -5.79366e-08)
(0.00374561 -2.57683e-07 -4.06338e-07)
(0.00426206 -4.2735e-06 3.49086e-05)
(0.00421473 -4.07547e-06 3.17172e-05)
(0.00417166 -3.938e-06 2.88005e-05)
(0.0041324 -3.85737e-06 2.61817e-05)
(0.00409657 -3.82799e-06 2.38816e-05)
(0.00406381 -3.82665e-06 2.18555e-05)
(0.00403382 -3.82297e-06 2.00158e-05)
(0.00400635 -3.79644e-06 1.83005e-05)
(0.0039812 -3.7406e-06 1.66956e-05)
(0.00395819 -3.6604e-06 1.52152e-05)
(0.00393713 -3.56681e-06 1.3888e-05)
(0.00391785 -3.46867e-06 1.27337e-05)
(0.00390017 -3.36938e-06 1.17357e-05)
(0.00388394 -3.26779e-06 1.08448e-05)
(0.00386904 -3.15832e-06 1.00072e-05)
(0.00385537 -3.0348e-06 9.19682e-06)
(0.00384284 -2.8958e-06 8.43213e-06)
(0.00383137 -2.74206e-06 7.74304e-06)
(0.00382087 -2.57273e-06 7.1243e-06)
(0.00381127 -2.3856e-06 6.54695e-06)
(0.00380253 -2.17668e-06 5.98969e-06)
(0.00379459 -1.94138e-06 5.43662e-06)
(0.0037874 -1.68005e-06 4.88129e-06)
(0.00378095 -1.4014e-06 4.33908e-06)
(0.00377518 -1.1228e-06 3.83255e-06)
(0.00377007 -8.67571e-07 3.38012e-06)
(0.00376555 -6.57066e-07 3.00399e-06)