/*--------------------------------*- C++ -*----------------------------------*\
| =========                 |                                                 |
| \\      /  F ield         | OpenFOAM: The Open Source CFD Toolbox           |
|  \\    /   O peration     | Version:  2.3.1                                 |
|   \\  /    A nd           | Web:      www.OpenFOAM.org                      |
|    \\/     M anipulation  |                                                 |
\*---------------------------------------------------------------------------*/
FoamFile
{
    version     2.0;
    format      ascii;
    class       volVectorField;
    location    "5";
    object      U_0;
}
// * * * * * * * * * * * * * * * * * * * * * * * * * * * * * * * * * * * * * //

dimensions      [0 1 -1 0 0 0 0];

internalField   nonuniform List<vector> 
38262
(
(0.00398541 9.75699e-06 8.03199e-06)
(0.00393729 8.92007e-06 7.27793e-06)
(0.00389352 8.18375e-06 6.60842e-06)
(0.00385363 7.51447e-06 6.00859e-06)
(0.00381721 6.90729e-06 5.47267e-06)
(0.00378391 6.3625e-06 4.99699e-06)
(0.00375339 5.87412e-06 4.57497e-06)
(0.00372537 5.43415e-06 4.19788e-06)
(0.00369961 5.03698e-06 3.85826e-06)
(0.00367589 4.67589e-06 3.55112e-06)
(0.00365405 4.3404e-06 3.27159e-06)
(0.00363395 4.02265e-06 3.01268e-06)
(0.00361546 3.72486e-06 2.76753e-06)
(0.00359849 3.45548e-06 2.53369e-06)
(0.00358292 3.21804e-06 2.31295e-06)
(0.00356861 3.00662e-06 2.10691e-06)
(0.00355547 2.81189e-06 1.91485e-06)
(0.0035434 2.62888e-06 1.73566e-06)
(0.00353234 2.45497e-06 1.56919e-06)
(0.00352222 2.2826e-06 1.41319e-06)
(0.003513 2.10474e-06 1.2622e-06)
(0.00350467 1.92633e-06 1.11325e-06)
(0.0034972 1.75887e-06 9.70287e-07)
(0.00349053 1.608e-06 8.40264e-07)
(0.00348459 1.47619e-06 7.26492e-07)
(0.0034793 1.3697e-06 6.27023e-07)
(0.00347458 1.29309e-06 5.37629e-07)
(0.00347035 1.23992e-06 4.54695e-07)
(0.00346657 1.19356e-06 3.75529e-07)
(0.00346322 1.13778e-06 2.976e-07)
(0.00346029 1.06548e-06 2.18844e-07)
(0.00345781 9.75309e-07 1.39085e-07)
(0.00345578 8.67246e-07 6.08973e-08)
(0.00345423 7.46439e-07 -1.16728e-08)
(0.00345315 6.24629e-07 -7.45379e-08)
(0.00345251 5.12662e-07 -1.26201e-07)
(0.00345226 4.19765e-07 -1.68963e-07)
(0.00345235 3.45152e-07 -2.07478e-07)
(0.0040965 1.45088e-05 1.2017e-05)
(0.00404733 1.32384e-05 1.09418e-05)
(0.00400259 1.21394e-05 9.98348e-06)
(0.00396179 1.1154e-05 9.11272e-06)
(0.00392455 1.02618e-05 8.33009e-06)
(0.0038905 9.45314e-06 7.63532e-06)
(0.0038593 8.71858e-06 7.0177e-06)
(0.00383068 8.05011e-06 6.46451e-06)
(0.00380438 7.43834e-06 5.96888e-06)
(0.00378018 6.86781e-06 5.52516e-06)
(0.0037579 6.32316e-06 5.12073e-06)
(0.00373742 5.80411e-06 4.73977e-06)
(0.00371861 5.32863e-06 4.37536e-06)
(0.00370136 4.91798e-06 4.03114e-06)
(0.00368552 4.57865e-06 3.71126e-06)
(0.00367097 4.2969e-06 3.41316e-06)
(0.00365761 4.05019e-06 3.13107e-06)
(0.00364534 3.82394e-06 2.86403e-06)
(0.00363409 3.61174e-06 2.6136e-06)
(0.0036238 3.40307e-06 2.37298e-06)
(0.00361443 3.18742e-06 2.13156e-06)
(0.00360596 2.96793e-06 1.89224e-06)
(0.00359834 2.7547e-06 1.66915e-06)
(0.00359153 2.55106e-06 1.4707e-06)
(0.00358546 2.36033e-06 1.29836e-06)
(0.00358005 2.19565e-06 1.15436e-06)
(0.00357523 2.0702e-06 1.03798e-06)
(0.00357091 1.98242e-06 9.39469e-07)
(0.00356704 1.91639e-06 8.42717e-07)
(0.00356362 1.85432e-06 7.34474e-07)
(0.00356062 1.78279e-06 6.12858e-07)
(0.00355808 1.68624e-06 4.83799e-07)
(0.00355599 1.54805e-06 3.52929e-07)
(0.00355438 1.3661e-06 2.27858e-07)
(0.00355326 1.15849e-06 1.18861e-07)
(0.00355258 9.50389e-07 2.96058e-08)
(0.00355231 7.6585e-07 -3.83021e-08)
(0.00355237 6.06239e-07 -8.61459e-08)
(0.00410671 1.04362e-05 1.31749e-05)
(0.00405756 9.46585e-06 1.2009e-05)
(0.00401281 8.63551e-06 1.09813e-05)
(0.00397199 7.8994e-06 1.00544e-05)
(0.00393472 7.23168e-06 9.22189e-06)
(0.00390062 6.61685e-06 8.47465e-06)
(0.0038694 6.04719e-06 7.80196e-06)
(0.00384075 5.51652e-06 7.19985e-06)
(0.00381443 5.01104e-06 6.66597e-06)
(0.00379021 4.51378e-06 6.18617e-06)
(0.00376793 4.0235e-06 5.73587e-06)
(0.00374748 3.56347e-06 5.30006e-06)
(0.00372873 3.16629e-06 4.88345e-06)
(0.00371155 2.85368e-06 4.49978e-06)
(0.00369578 2.62779e-06 4.15567e-06)
(0.00368129 2.47283e-06 3.8429e-06)
(0.00366796 2.36545e-06 3.54532e-06)
(0.00365571 2.28876e-06 3.25666e-06)
(0.00364448 2.23328e-06 2.98127e-06)
(0.00363421 2.18792e-06 2.71545e-06)
(0.00362485 2.14272e-06 2.44934e-06)
(0.00361639 2.09329e-06 2.1873e-06)
(0.00360876 2.03327e-06 1.94276e-06)
(0.00360193 1.94953e-06 1.72073e-06)
(0.00359584 1.83607e-06 1.52342e-06)
(0.00359042 1.7063e-06 1.35814e-06)
(0.0035856 1.58608e-06 1.22692e-06)
(0.0035813 1.49844e-06 1.11716e-06)
(0.00357747 1.45569e-06 1.00797e-06)
(0.00357407 1.4581e-06 8.87317e-07)
(0.0035711 1.48862e-06 7.59197e-07)
(0.00356854 1.50952e-06 6.27495e-07)
(0.00356642 1.47811e-06 4.87825e-07)
(0.00356477 1.3727e-06 3.44003e-07)
(0.0035636 1.20084e-06 2.11179e-07)
(0.00356292 9.88985e-07 1.02575e-07)
(0.00356264 7.69144e-07 2.86628e-08)
(0.00356271 5.57154e-07 -1.1805e-08)
(0.00410769 6.18298e-06 1.27279e-05)
(0.00405862 5.53578e-06 1.16059e-05)
(0.00401393 4.955e-06 1.06277e-05)
(0.00397314 4.41811e-06 9.74994e-06)
(0.00393589 3.92176e-06 8.96047e-06)
(0.00390181 3.46851e-06 8.24678e-06)
(0.00387061 3.05181e-06 7.60206e-06)
(0.00384197 2.65226e-06 7.02743e-06)
(0.00381564 2.24814e-06 6.51614e-06)
(0.00379141 1.83412e-06 6.04312e-06)
(0.00376916 1.43392e-06 5.58303e-06)
(0.00374875 1.08626e-06 5.13392e-06)
(0.00373008 8.18311e-07 4.71318e-06)
(0.00371297 6.34576e-07 4.33623e-06)
(0.00369728 5.26023e-07 4.00633e-06)
(0.00368284 4.8118e-07 3.71137e-06)
(0.00366956 4.91394e-07 3.43153e-06)
(0.00365735 5.49464e-07 3.16036e-06)
(0.00364614 6.42191e-07 2.90372e-06)
(0.00363588 7.50629e-07 2.65686e-06)
(0.00362653 8.60898e-07 2.40871e-06)
(0.00361805 9.67338e-07 2.16657e-06)
(0.00361041 1.05635e-06 1.94294e-06)
(0.00360354 1.10148e-06 1.73399e-06)
(0.0035974 1.08433e-06 1.53463e-06)
(0.00359196 1.01571e-06 1.35369e-06)
(0.00358716 9.33268e-07 1.20122e-06)
(0.0035829 8.82389e-07 1.07263e-06)
(0.00357912 8.96321e-07 9.53263e-07)
(0.00357577 9.81389e-07 8.37644e-07)
(0.00357282 1.10974e-06 7.31506e-07)
(0.00357023 1.22856e-06 6.28395e-07)
(0.00356805 1.2854e-06 5.10045e-07)
(0.00356633 1.2502e-06 3.74769e-07)
(0.0035651 1.11952e-06 2.39835e-07)
(0.00356437 9.10651e-07 1.24707e-07)
(0.00356408 6.53292e-07 4.50659e-08)
(0.00356415 3.83511e-07 1.88635e-09)
(0.00410749 3.33559e-06 1.2285e-05)
(0.00405845 2.88772e-06 1.12048e-05)
(0.00401377 2.42464e-06 1.02636e-05)
(0.003973 1.9615e-06 9.41333e-06)
(0.00393577 1.5233e-06 8.64914e-06)
(0.00390173 1.13008e-06 7.96505e-06)
(0.00387054 7.73912e-07 7.35433e-06)
(0.00384189 4.26111e-07 6.81009e-06)
(0.00381554 6.6178e-08 6.31283e-06)
(0.00379133 -2.9266e-07 5.83543e-06)
(0.00376911 -6.10439e-07 5.36526e-06)
(0.00374878 -8.50885e-07 4.91511e-06)
(0.00373018 -1.00399e-06 4.50336e-06)
(0.00371315 -1.08246e-06 4.13748e-06)
(0.00369751 -1.10299e-06 3.81533e-06)
(0.00368312 -1.07201e-06 3.52668e-06)
(0.00366989 -9.86026e-07 3.25879e-06)
(0.00365773 -8.44859e-07 3.01044e-06)
(0.00364655 -6.6277e-07 2.78282e-06)
(0.0036363 -4.60451e-07 2.55979e-06)
(0.00362695 -2.5088e-07 2.33031e-06)
(0.00361847 -4.14926e-08 2.1108e-06)
(0.00361079 1.48879e-07 1.91487e-06)
(0.00360386 2.90624e-07 1.7266e-06)
(0.00359766 3.64914e-07 1.52792e-06)
(0.00359218 3.81531e-07 1.32718e-06)
(0.00358738 3.77645e-07 1.14513e-06)
(0.00358317 4.02085e-07 9.91472e-07)
(0.00357946 4.92333e-07 8.63746e-07)
(0.00357617 6.52182e-07 7.61861e-07)
(0.00357322 8.46138e-07 6.84932e-07)
(0.00357061 1.01868e-06 6.1211e-07)
(0.00356835 1.121e-06 5.16143e-07)
(0.00356653 1.12383e-06 3.9422e-07)
(0.00356521 1.01684e-06 2.63124e-07)
(0.00356441 8.0812e-07 1.40878e-07)
(0.00356408 5.24094e-07 4.43613e-08)
(0.00356415 2.10773e-07 -2.18226e-08)
(0.00405812 1.21222e-06 1.10469e-05)
(0.00401341 7.9804e-07 1.01037e-05)
(0.00397264 3.48576e-07 9.24552e-06)
(0.00393544 -8.7462e-08 8.47755e-06)
(0.00390144 -4.81221e-07 7.8041e-06)
(0.00387027 -8.37314e-07 7.21202e-06)
(0.00384162 -1.17941e-06 6.67655e-06)
(0.00381528 -1.5156e-06 6.17078e-06)
(0.00379109 -1.82073e-06 5.67568e-06)
(0.00376894 -2.05665e-06 5.19558e-06)
(0.00374869 -2.20155e-06 4.75058e-06)
(0.00373016 -2.25894e-06 4.35211e-06)
(0.00371318 -2.2484e-06 3.99613e-06)
(0.00369758 -2.19174e-06 3.67571e-06)
(0.00368324 -2.10058e-06 3.38552e-06)
(0.00367006 -1.97302e-06 3.12331e-06)
(0.00365794 -1.8047e-06 2.89288e-06)
(0.00364679 -1.59879e-06 2.68788e-06)
(0.00363655 -1.36462e-06 2.48292e-06)
(0.0036272 -1.11254e-06 2.26889e-06)
(0.00361871 -8.58426e-07 2.06983e-06)
(0.003611 -6.23883e-07 1.89734e-06)
(0.00360403 -4.26245e-07 1.724e-06)
(0.00359778 -2.69262e-07 1.5244e-06)
(0.00359227 -1.42943e-07 1.30788e-06)
(0.00358747 -2.60069e-08 1.10254e-06)
(0.0035833 1.1052e-07 9.30372e-07)
(0.00357964 2.89408e-07 8.01231e-07)
(0.00357639 5.06456e-07 7.17338e-07)
(0.00357344 7.27945e-07 6.66721e-07)
(0.00357078 9.09959e-07 6.16185e-07)
(0.00356844 1.01673e-06 5.36098e-07)
(0.00356653 1.02514e-06 4.25037e-07)
(0.00356511 9.24251e-07 2.96425e-07)
(0.00356422 7.19025e-07 1.6397e-07)
(0.00356384 4.32437e-07 4.56171e-08)
(0.0035639 1.06418e-07 -4.91935e-08)
(0.00405781 -2.77569e-07 1.11235e-05)
(0.00401303 -6.1904e-07 1.01457e-05)
(0.00397224 -1.0205e-06 9.25071e-06)
(0.00393506 -1.42901e-06 8.45462e-06)
(0.00390109 -1.81162e-06 7.76739e-06)
(0.00386995 -2.16119e-06 7.16858e-06)
(0.00384132 -2.48406e-06 6.62023e-06)
(0.00381501 -2.77376e-06 6.09254e-06)
(0.00379088 -3.00673e-06 5.57909e-06)
(0.00376881 -3.15981e-06 5.09341e-06)
(0.00374864 -3.22338e-06 4.6535e-06)
(0.00373018 -3.202e-06 4.26452e-06)
(0.00371325 -3.11391e-06 3.91822e-06)
(0.00369768 -2.9867e-06 3.60439e-06)
(0.00368336 -2.8438e-06 3.31694e-06)
(0.0036702 -2.69346e-06 3.05665e-06)
(0.00365811 -2.52829e-06 2.83024e-06)
(0.00364699 -2.33341e-06 2.63102e-06)
(0.00363678 -2.09961e-06 2.43479e-06)
(0.00362744 -1.83688e-06 2.23431e-06)
(0.00361894 -1.57133e-06 2.04958e-06)
(0.00361121 -1.32264e-06 1.88456e-06)
(0.00360422 -1.08792e-06 1.71128e-06)
(0.00359795 -8.51606e-07 1.51012e-06)
(0.00359244 -6.05979e-07 1.29241e-06)
(0.00358764 -3.54237e-07 1.08466e-06)
(0.00358349 -9.83214e-08 9.11767e-07)
(0.00357985 1.60034e-07 7.90217e-07)
(0.0035766 4.09704e-07 7.22405e-07)
(0.00357362 6.29205e-07 6.88846e-07)
(0.0035709 7.94288e-07 6.50923e-07)
(0.00356849 8.84178e-07 5.80061e-07)
(0.00356648 8.83364e-07 4.74483e-07)
(0.00356497 7.85782e-07 3.44258e-07)
(0.003564 5.98503e-07 2.01611e-07)
(0.00356356 3.3801e-07 6.59789e-08)
(0.00356361 3.22195e-08 -5.03714e-08)
(0.00405756 -2.22003e-06 1.13852e-05)
(0.00401269 -2.4088e-06 1.03606e-05)
(0.00397186 -2.66969e-06 9.41692e-06)
(0.00393468 -2.96347e-06 8.57531e-06)
(0.00390074 -3.25649e-06 7.85028e-06)
(0.00386962 -3.52671e-06 7.22026e-06)
(0.00384103 -3.76175e-06 6.64252e-06)
(0.00381477 -3.94856e-06 6.08859e-06)
(0.00379071 -4.07221e-06 5.55707e-06)
(0.00376872 -4.12307e-06 5.06192e-06)
(0.00374862 -4.09812e-06 4.61814e-06)
(0.00373023 -4.00105e-06 4.23279e-06)
(0.00371334 -3.84742e-06 3.89948e-06)
(0.00369779 -3.66512e-06 3.6018e-06)
(0.00368347 -3.48228e-06 3.3232e-06)
(0.00367031 -3.31298e-06 3.05893e-06)
(0.00365823 -3.1487e-06 2.81874e-06)
(0.00364714 -2.96392e-06 2.60804e-06)
(0.00363697 -2.73899e-06 2.41337e-06)
(0.00362765 -2.48135e-06 2.2241e-06)
(0.00361914 -2.21636e-06 2.04474e-06)
(0.00361141 -1.95565e-06 1.87099e-06)
(0.00360442 -1.68299e-06 1.68598e-06)
(0.00359818 -1.37536e-06 1.4857e-06)
(0.00359268 -1.03061e-06 1.2829e-06)
(0.00358789 -6.69214e-07 1.09485e-06)
(0.00358373 -3.18931e-07 9.39559e-07)
(0.00358007 -4.01073e-09 8.33384e-07)
(0.00357678 2.57927e-07 7.78413e-07)
(0.00357375 4.57943e-07 7.53408e-07)
(0.00357097 5.92399e-07 7.22118e-07)
(0.00356848 6.55819e-07 6.55859e-07)
(0.0035664 6.42315e-07 5.49031e-07)
(0.00356481 5.53456e-07 4.10873e-07)
(0.00356377 3.98059e-07 2.57891e-07)
(0.00356328 1.84446e-07 1.09553e-07)
(0.0035633 -7.6091e-08 -2.63043e-08)
(0.00356378 -3.50264e-07 -1.47141e-07)
(0.00405724 -5.23771e-06 1.18129e-05)
(0.00401229 -5.12895e-06 1.07306e-05)
(0.00397142 -5.10104e-06 9.72945e-06)
(0.00393422 -5.13088e-06 8.82972e-06)
(0.00390028 -5.19425e-06 8.0516e-06)
(0.00386919 -5.26363e-06 7.37772e-06)
(0.00384064 -5.31366e-06 6.76433e-06)
(0.00381444 -5.32489e-06 6.18237e-06)
(0.00379044 -5.28575e-06 5.62985e-06)
(0.0037685 -5.19366e-06 5.1176e-06)
(0.00374847 -5.05344e-06 4.66153e-06)
(0.00373013 -4.87413e-06 4.27394e-06)
(0.00371327 -4.66832e-06 3.9492e-06)
(0.00369773 -4.45112e-06 3.66373e-06)
(0.0036834 -4.23702e-06 3.39048e-06)
(0.00367022 -4.03466e-06 3.11673e-06)
(0.00365814 -3.84032e-06 2.8546e-06)
(0.00364708 -3.63603e-06 2.62338e-06)
(0.00363693 -3.4038e-06 2.42173e-06)
(0.00362763 -3.14255e-06 2.23413e-06)
(0.00361913 -2.86352e-06 2.05011e-06)
(0.00361141 -2.56865e-06 1.86167e-06)
(0.00360445 -2.2438e-06 1.66471e-06)
(0.00359825 -1.87536e-06 1.46879e-06)
(0.00359279 -1.46901e-06 1.28745e-06)
(0.003588 -1.05205e-06 1.12804e-06)
(0.0035838 -6.63667e-07 1.00039e-06)
(0.00358008 -3.3957e-07 9.14195e-07)
(0.00357673 -9.94153e-08 8.69271e-07)
(0.00357363 5.85871e-08 8.48686e-07)
(0.00357078 1.49658e-07 8.20147e-07)
(0.00356823 1.86749e-07 7.53257e-07)
(0.00356609 1.76453e-07 6.37713e-07)
(0.00356444 1.23931e-07 4.85535e-07)
(0.00356336 3.27565e-08 3.20557e-07)
(0.00356283 -9.77663e-08 1.60485e-07)
(0.00356282 -2.64344e-07 2.64566e-09)
(0.00356331 -4.41223e-07 -1.51709e-07)
(0.00405582 -9.47175e-06 1.21876e-05)
(0.0040108 -8.91228e-06 1.10503e-05)
(0.00396987 -8.44572e-06 9.9981e-06)
(0.00393264 -8.06387e-06 9.04888e-06)
(0.00389869 -7.76079e-06 8.22557e-06)
(0.00386761 -7.51195e-06 7.51339e-06)
(0.00383908 -7.28021e-06 6.86803e-06)
(0.00381291 -7.03561e-06 6.25963e-06)
(0.00378896 -6.76531e-06 5.68638e-06)
(0.00376706 -6.47381e-06 5.15954e-06)
(0.00374706 -6.17828e-06 4.69491e-06)
(0.00372873 -5.89596e-06 4.30292e-06)
(0.00371188 -5.632e-06 3.97526e-06)
(0.00369634 -5.37828e-06 3.68766e-06)
(0.00368201 -5.12228e-06 3.41201e-06)
(0.00366882 -4.85899e-06 3.13131e-06)
(0.00365674 -4.59423e-06 2.85533e-06)
(0.00364568 -4.33152e-06 2.60816e-06)
(0.00363556 -4.0623e-06 2.39542e-06)
(0.00362627 -3.77507e-06 2.20248e-06)
(0.00361779 -3.46361e-06 2.01507e-06)
(0.00361009 -3.12274e-06 1.82393e-06)
(0.00360317 -2.74785e-06 1.62846e-06)
(0.003597 -2.34111e-06 1.44235e-06)
(0.00359155 -1.91618e-06 1.28095e-06)
(0.00358675 -1.50067e-06 1.15116e-06)
(0.00358251 -1.13206e-06 1.05583e-06)
(0.00357871 -8.45202e-07 9.93728e-07)
(0.00357527 -6.55657e-07 9.5728e-07)
(0.0035721 -5.5229e-07 9.33235e-07)
(0.00356919 -5.04663e-07 8.97836e-07)
(0.0035666 -4.80787e-07 8.22709e-07)
(0.00356441 -4.62364e-07 6.95968e-07)
(0.00356274 -4.47889e-07 5.3265e-07)
(0.00356162 -4.46237e-07 3.60006e-07)
(0.00356105 -4.64615e-07 1.90779e-07)
(0.00356103 -4.98077e-07 1.53936e-08)
(0.00356153 -5.31871e-07 -1.64742e-07)
(0.00404527 -1.34256e-05 1.10615e-05)
(0.00400025 -1.23849e-05 1.00093e-05)
(0.00395934 -1.14481e-05 9.04208e-06)
(0.00392214 -1.06256e-05 8.1728e-06)
(0.00388821 -9.93316e-06 7.41674e-06)
(0.00385716 -9.34877e-06 6.75871e-06)
(0.00382868 -8.82063e-06 6.16084e-06)
(0.00380257 -8.30786e-06 5.5994e-06)
(0.00377867 -7.80056e-06 5.07554e-06)
(0.00375682 -7.31337e-06 4.59971e-06)
(0.00373684 -6.87175e-06 4.18088e-06)
(0.00371853 -6.4928e-06 3.82056e-06)
(0.00370169 -6.1709e-06 3.50968e-06)
(0.00368616 -5.88017e-06 3.23385e-06)
(0.00367184 -5.58693e-06 2.97642e-06)
(0.00365866 -5.27046e-06 2.72336e-06)
(0.00364658 -4.93853e-06 2.47654e-06)
(0.00363552 -4.61212e-06 2.25115e-06)
(0.00362539 -4.29807e-06 2.05362e-06)
(0.00361612 -3.98704e-06 1.87693e-06)
(0.00360766 -3.66498e-06 1.71179e-06)
(0.00359997 -3.31819e-06 1.54893e-06)
(0.00359307 -2.94165e-06 1.38487e-06)
(0.00358692 -2.54789e-06 1.23022e-06)
(0.00358149 -2.16319e-06 1.10065e-06)
(0.00357669 -1.81873e-06 1.00455e-06)
(0.00357241 -1.54279e-06 9.40325e-07)
(0.00356854 -1.35161e-06 8.97341e-07)
(0.00356502 -1.24488e-06 8.6314e-07)
(0.00356177 -1.2038e-06 8.28691e-07)
(0.00355879 -1.19102e-06 7.80536e-07)
(0.00355614 -1.16412e-06 6.99024e-07)
(0.0035539 -1.10027e-06 5.75344e-07)
(0.00355218 -1.00704e-06 4.22953e-07)
(0.00355103 -9.05713e-07 2.63856e-07)
(0.00355043 -8.04364e-07 1.0612e-07)
(0.0035504 -6.93442e-07 -5.68949e-08)
(0.00355092 -5.72722e-07 -2.22602e-07)
(0.00393496 -9.05178e-06 7.33134e-06)
(0.00389089 -8.289e-06 6.61262e-06)
(0.00385087 -7.59052e-06 5.96144e-06)
(0.00381447 -6.96684e-06 5.38106e-06)
(0.00378129 -6.43302e-06 4.87254e-06)
(0.00375092 -5.97772e-06 4.42334e-06)
(0.00372307 -5.5674e-06 4.01369e-06)
(0.00369754 -5.17624e-06 3.63263e-06)
(0.00367417 -4.8004e-06 3.28114e-06)
(0.0036528 -4.45067e-06 2.96365e-06)
(0.00363325 -4.14171e-06 2.68111e-06)
(0.00361531 -3.88106e-06 2.42955e-06)
(0.00359882 -3.66242e-06 2.20327e-06)
(0.00358362 -3.46885e-06 1.99851e-06)
(0.00356959 -3.27841e-06 1.81257e-06)
(0.00355669 -3.0751e-06 1.64136e-06)
(0.00354484 -2.86185e-06 1.48319e-06)
(0.00353398 -2.65386e-06 1.34051e-06)
(0.00352404 -2.45918e-06 1.21379e-06)
(0.00351494 -2.27465e-06 1.09962e-06)
(0.00350662 -2.09242e-06 9.93671e-07)
(0.00349908 -1.90263e-06 8.91598e-07)
(0.00349232 -1.69999e-06 7.92727e-07)
(0.00348631 -1.49234e-06 7.02997e-07)
(0.00348101 -1.29739e-06 6.30092e-07)
(0.00347632 -1.13357e-06 5.76955e-07)
(0.00347212 -1.01309e-06 5.39312e-07)
(0.00346831 -9.37378e-07 5.07874e-07)
(0.0034648 -8.9946e-07 4.7414e-07)
(0.00346156 -8.87082e-07 4.3345e-07)
(0.00345857 -8.8031e-07 3.81003e-07)
(0.00345589 -8.55219e-07 3.09335e-07)
(0.00345363 -7.99241e-07 2.14977e-07)
(0.00345189 -7.19899e-07 1.04383e-07)
(0.00345071 -6.32752e-07 -1.14775e-08)
(0.00345012 -5.42269e-07 -1.24448e-07)
(0.00345011 -4.40199e-07 -2.32511e-07)
(0.00345065 -3.30252e-07 -3.33539e-07)
(0.00418839 4.60103e-06 2.56782e-05)
(0.00413801 4.20951e-06 2.32793e-05)
(0.0040922 3.87728e-06 2.11463e-05)
(0.00405045 3.57484e-06 1.92387e-05)
(0.00401233 3.30243e-06 1.75337e-05)
(0.00397748 3.06397e-06 1.6012e-05)
(0.00394555 2.85653e-06 1.46515e-05)
(0.00391625 2.6746e-06 1.34285e-05)
(0.00388932 2.51461e-06 1.23235e-05)
(0.00386455 2.37168e-06 1.13213e-05)
(0.00384175 2.23682e-06 1.04064e-05)
(0.00382078 2.10285e-06 9.56034e-06)
(0.00380151 1.97157e-06 8.76681e-06)
(0.00378381 1.85137e-06 8.01964e-06)
(0.00376757 1.74802e-06 7.32119e-06)
(0.00375266 1.6589e-06 6.67304e-06)
(0.00373897 1.57661e-06 6.07144e-06)
(0.0037264 1.49665e-06 5.51212e-06)
(0.00371488 1.41672e-06 4.99284e-06)
(0.00370434 1.33019e-06 4.50729e-06)
(0.00369475 1.23033e-06 4.04379e-06)
(0.00368606 1.12108e-06 3.59615e-06)
(0.00367824 1.01406e-06 3.17111e-06)
(0.00367124 9.19142e-07 2.78036e-06)
(0.003665 8.44588e-07 2.42908e-06)
(0.00365943 7.97983e-07 2.11302e-06)
(0.00365445 7.79874e-07 1.82335e-06)
(0.00365 7.79747e-07 1.55258e-06)
(0.00364603 7.80336e-07 1.29568e-06)
(0.00364253 7.66618e-07 1.04848e-06)
(0.00363947 7.31433e-07 8.07588e-07)
(0.00363687 6.7213e-07 5.72557e-07)
(0.00363474 5.89223e-07 3.46711e-07)
(0.00363308 4.90943e-07 1.36828e-07)
(0.0036319 3.91283e-07 -5.02807e-08)
(0.00363117 3.01572e-07 -2.13666e-07)
(0.00363083 2.32178e-07 -3.56509e-07)
(0.00363085 1.81541e-07 -4.85416e-07)
(0.00430629 8.10368e-06 3.47964e-05)
(0.00425445 7.39137e-06 3.1645e-05)
(0.00420733 6.79357e-06 2.88382e-05)
(0.00416438 6.26133e-06 2.6309e-05)
(0.00412519 5.78596e-06 2.40387e-05)
(0.00408937 5.36826e-06 2.20105e-05)
(0.00405659 5.00312e-06 2.01955e-05)
(0.00402654 4.68036e-06 1.85644e-05)
(0.00399897 4.38969e-06 1.7097e-05)
(0.00397366 4.12101e-06 1.57737e-05)
(0.00395041 3.86381e-06 1.4563e-05)
(0.00392906 3.613e-06 1.34328e-05)
(0.00390947 3.37473e-06 1.23693e-05)
(0.0038915 3.16225e-06 1.13758e-05)
(0.00387501 2.98401e-06 1.04552e-05)
(0.00385987 2.83565e-06 9.59981e-06)
(0.00384599 2.70492e-06 8.79727e-06)
(0.00383326 2.58243e-06 8.04299e-06)
(0.0038216 2.46193e-06 7.33565e-06)
(0.00381095 2.33238e-06 6.66122e-06)
(0.00380125 2.18271e-06 6.0024e-06)
(0.00379244 2.01561e-06 5.36494e-06)
(0.00378449 1.84613e-06 4.77063e-06)
(0.00377733 1.69058e-06 4.23193e-06)
(0.00377091 1.56359e-06 3.75249e-06)
(0.00376517 1.4767e-06 3.33659e-06)
(0.00376005 1.43108e-06 2.98085e-06)
(0.0037555 1.41464e-06 2.66564e-06)
(0.00375146 1.40708e-06 2.36107e-06)
(0.00374792 1.38762e-06 2.04348e-06)
(0.00374485 1.33989e-06 1.70987e-06)
(0.00374223 1.25197e-06 1.36894e-06)
(0.00374008 1.11959e-06 1.02841e-06)
(0.00373839 9.53168e-07 7.01432e-07)
(0.00373716 7.74345e-07 4.06515e-07)
(0.00373636 6.04121e-07 1.53131e-07)
(0.00373598 4.60374e-07 -5.39334e-08)
(0.00373597 3.42624e-07 -2.24262e-07)
(0.00431434 7.19741e-06 3.81249e-05)
(0.00426242 6.5274e-06 3.47053e-05)
(0.0042152 5.96769e-06 3.16814e-05)
(0.00417217 5.47704e-06 2.89671e-05)
(0.0041329 5.04144e-06 2.6529e-05)
(0.00409702 4.65584e-06 2.43376e-05)
(0.0040642 4.31318e-06 2.23656e-05)
(0.00403413 4.00251e-06 2.05956e-05)
(0.00400656 3.7123e-06 1.90104e-05)
(0.00398126 3.43422e-06 1.7573e-05)
(0.00395806 3.16496e-06 1.62349e-05)
(0.00393678 2.90826e-06 1.49683e-05)
(0.00391727 2.67529e-06 1.37785e-05)
(0.00389939 2.47961e-06 1.26837e-05)
(0.00388299 2.32856e-06 1.16893e-05)
(0.00386794 2.21757e-06 1.07776e-05)
(0.00385414 2.13359e-06 9.91955e-06)
(0.00384149 2.0644e-06 9.10235e-06)
(0.0038299 2.0017e-06 8.32848e-06)
(0.00381932 1.93597e-06 7.58739e-06)
(0.00380968 1.85731e-06 6.86234e-06)
(0.00380092 1.76269e-06 6.16138e-06)
(0.00379298 1.65726e-06 5.50608e-06)
(0.00378583 1.54946e-06 4.90534e-06)
(0.00377941 1.44954e-06 4.36436e-06)
(0.00377367 1.36778e-06 3.89454e-06)
(0.00376855 1.31085e-06 3.49677e-06)
(0.00376402 1.28013e-06 3.14793e-06)
(0.00376002 1.27063e-06 2.81092e-06)
(0.00375651 1.27005e-06 2.46331e-06)
(0.00375346 1.26016e-06 2.10832e-06)
(0.00375087 1.22026e-06 1.74822e-06)
(0.00374873 1.13509e-06 1.37541e-06)
(0.00374703 1.00442e-06 9.991e-07)
(0.00374578 8.42048e-07 6.46229e-07)
(0.00374498 6.67925e-07 3.42125e-07)
(0.00374459 5.02654e-07 1.06952e-07)
(0.00374459 3.54304e-07 -7.01332e-08)
(0.00431459 4.8163e-06 3.78581e-05)
(0.00426271 4.32113e-06 3.44759e-05)
(0.00421551 3.89604e-06 3.15044e-05)
(0.0041725 3.51682e-06 2.88439e-05)
(0.00413324 3.17664e-06 2.64524e-05)
(0.00409738 2.87406e-06 2.42965e-05)
(0.00406457 2.60185e-06 2.23545e-05)
(0.00403451 2.34772e-06 2.06138e-05)
(0.00400696 2.10187e-06 1.90463e-05)
(0.00398169 1.86268e-06 1.75983e-05)
(0.00395852 1.63594e-06 1.6223e-05)
(0.00393729 1.4314e-06 1.49155e-05)
(0.00391785 1.26003e-06 1.3701e-05)
(0.00390003 1.13026e-06 1.26013e-05)
(0.0038837 1.04453e-06 1.1618e-05)
(0.00386871 9.98527e-07 1.07268e-05)
(0.00385496 9.83185e-07 9.89169e-06)
(0.00384235 9.88684e-07 9.09885e-06)
(0.0038308 1.00658e-06 8.35204e-06)
(0.00382024 1.02825e-06 7.63765e-06)
(0.00381062 1.04445e-06 6.93707e-06)
(0.00380187 1.04887e-06 6.26271e-06)
(0.00379395 1.03854e-06 5.6334e-06)
(0.00378679 1.01237e-06 5.04376e-06)
(0.00378036 9.7283e-07 4.48789e-06)
(0.00377462 9.28875e-07 3.98032e-06)
(0.00376953 8.94055e-07 3.53585e-06)
(0.00376502 8.81643e-07 3.1461e-06)
(0.00376104 8.97226e-07 2.78654e-06)
(0.00375756 9.33598e-07 2.44577e-06)
(0.00375452 9.72426e-07 2.12649e-06)
(0.00375192 9.89836e-07 1.81179e-06)
(0.00374975 9.64684e-07 1.47165e-06)
(0.00374803 8.87801e-07 1.10554e-06)
(0.00374676 7.63791e-07 7.42835e-07)
(0.00374593 6.07079e-07 4.19045e-07)
(0.00374554 4.37792e-07 1.64488e-07)
(0.00374555 2.74856e-07 -2.78221e-08)
(0.0043143 2.6602e-06 3.69779e-05)
(0.00426244 2.32608e-06 3.36786e-05)
(0.00421528 2.00732e-06 3.07803e-05)
(0.00417228 1.70831e-06 2.81774e-05)
(0.00413304 1.43177e-06 2.58404e-05)
(0.0040972 1.18111e-06 2.37461e-05)
(0.0040644 9.51562e-07 2.187e-05)
(0.00403435 7.34091e-07 2.01839e-05)
(0.0040068 5.2407e-07 1.86407e-05)
(0.00398155 3.25487e-07 1.71857e-05)
(0.00395841 1.48251e-07 1.57944e-05)
(0.00393722 3.16963e-09 1.44852e-05)
(0.00391782 -1.02403e-07 1.32855e-05)
(0.00390005 -1.6654e-07 1.22054e-05)
(0.00388376 -1.91606e-07 1.124e-05)
(0.00386881 -1.81785e-07 1.03677e-05)
(0.00385509 -1.42588e-07 9.56205e-06)
(0.00384251 -8.03812e-08 8.81546e-06)
(0.00383097 -1.17781e-09 8.12305e-06)
(0.00382043 8.85572e-08 7.45531e-06)
(0.00381081 1.80318e-07 6.79568e-06)
(0.00380206 2.65452e-07 6.16935e-06)
(0.00379412 3.36384e-07 5.59288e-06)
(0.00378695 3.87077e-07 5.03837e-06)
(0.00378051 4.16133e-07 4.4797e-06)
(0.00377476 4.30417e-07 3.9326e-06)
(0.00376967 4.44183e-07 3.4323e-06)
(0.00376519 4.73384e-07 2.99691e-06)
(0.00376124 5.27076e-07 2.6237e-06)
(0.00375777 6.01131e-07 2.30979e-06)
(0.00375473 6.79283e-07 2.04517e-06)
(0.00375211 7.38557e-07 1.78857e-06)
(0.00374991 7.56867e-07 1.49397e-06)
(0.00374814 7.21485e-07 1.15563e-06)
(0.00374682 6.31469e-07 7.99593e-07)
(0.00374597 4.96228e-07 4.601e-07)
(0.00374557 3.33074e-07 1.71253e-07)
(0.00374558 1.64585e-07 -6.16435e-08)
(0.00426221 8.57866e-07 3.32883e-05)
(0.00421503 6.12448e-07 3.03927e-05)
(0.00417204 3.59422e-07 2.77816e-05)
(0.00413282 1.13491e-07 2.54444e-05)
(0.00409699 -1.17302e-07 2.33733e-05)
(0.00406421 -3.3159e-07 2.15318e-05)
(0.00403417 -5.31163e-07 1.98624e-05)
(0.00400664 -7.15175e-07 1.83058e-05)
(0.00398141 -8.77341e-07 1.68228e-05)
(0.00395829 -1.00782e-06 1.54161e-05)
(0.00393714 -1.09809e-06 1.41147e-05)
(0.00391778 -1.1455e-06 1.2936e-05)
(0.00390005 -1.15414e-06 1.18751e-05)
(0.00388379 -1.13135e-06 1.09199e-05)
(0.00386886 -1.08344e-06 1.00551e-05)
(0.00385517 -1.014e-06 9.26874e-06)
(0.0038426 -9.24289e-07 8.55958e-06)
(0.00383109 -8.14808e-07 7.91128e-06)
(0.00382056 -6.89134e-07 7.28227e-06)
(0.00381094 -5.5544e-07 6.65979e-06)
(0.00380218 -4.23112e-07 6.07775e-06)
(0.00379423 -2.99216e-07 5.54559e-06)
(0.00378704 -1.88676e-07 5.01743e-06)
(0.00378058 -9.29289e-08 4.45634e-06)
(0.00377483 -8.54947e-09 3.88038e-06)
(0.00376974 7.24134e-08 3.33861e-06)
(0.00376527 1.59147e-07 2.8718e-06)
(0.00376134 2.56761e-07 2.49887e-06)
(0.00375788 3.61321e-07 2.21997e-06)
(0.00375483 4.60413e-07 2.00644e-06)
(0.00375219 5.36395e-07 1.79668e-06)
(0.00374994 5.72206e-07 1.53818e-06)
(0.00374812 5.57619e-07 1.22334e-06)
(0.00374676 4.90346e-07 8.7149e-07)
(0.00374587 3.75825e-07 5.11157e-07)
(0.00374545 2.26607e-07 1.79338e-07)
(0.00374546 6.23301e-08 -1.04066e-07)
(0.00426204 -4.66388e-07 3.34368e-05)
(0.00421483 -6.2727e-07 3.04734e-05)
(0.00417183 -8.19521e-07 2.77893e-05)
(0.00413262 -1.02265e-06 2.53942e-05)
(0.0040968 -1.22468e-06 2.329e-05)
(0.00406403 -1.41624e-06 2.14273e-05)
(0.00403401 -1.5896e-06 1.97281e-05)
(0.00400649 -1.73886e-06 1.81301e-05)
(0.00398129 -1.85773e-06 1.66127e-05)
(0.00395822 -1.93885e-06 1.51922e-05)
(0.0039371 -1.97737e-06 1.38959e-05)
(0.00391778 -1.97474e-06 1.27339e-05)
(0.00390008 -1.93902e-06 1.16943e-05)
(0.00388384 -1.88091e-06 1.07562e-05)
(0.00386893 -1.80806e-06 9.90078e-06)
(0.00385525 -1.72234e-06 9.1205e-06)
(0.0038427 -1.62064e-06 8.41957e-06)
(0.00383121 -1.4988e-06 7.78388e-06)
(0.00382069 -1.35735e-06 7.17523e-06)
(0.00381108 -1.20298e-06 6.58171e-06)
(0.00380232 -1.04327e-06 6.02764e-06)
(0.00379436 -8.82207e-07 5.51047e-06)
(0.00378716 -7.20936e-07 4.98488e-06)
(0.00378069 -5.6019e-07 4.42301e-06)
(0.00377493 -4.01752e-07 3.84549e-06)
(0.00376985 -2.48452e-07 3.30001e-06)
(0.00376538 -1.02611e-07 2.83426e-06)
(0.00376145 3.30547e-08 2.47839e-06)
(0.00375798 1.54261e-07 2.23217e-06)
(0.00375492 2.54718e-07 2.05444e-06)
(0.00375224 3.26138e-07 1.87431e-06)
(0.00374995 3.6107e-07 1.63777e-06)
(0.00374809 3.55757e-07 1.33425e-06)
(0.00374669 3.089e-07 9.7782e-07)
(0.00374576 2.21989e-07 5.95514e-07)
(0.00374531 1.01128e-07 2.2703e-07)
(0.00374532 -3.97921e-08 -1.01854e-07)
(0.00426195 -2.06938e-06 3.40374e-05)
(0.0042147 -2.09515e-06 3.09698e-05)
(0.00417167 -2.1685e-06 2.81768e-05)
(0.00413244 -2.27393e-06 2.56804e-05)
(0.00409663 -2.39887e-06 2.34914e-05)
(0.00406387 -2.5258e-06 2.15583e-05)
(0.00403387 -2.63663e-06 1.97949e-05)
(0.00400639 -2.71983e-06 1.81408e-05)
(0.00398122 -2.76947e-06 1.65827e-05)
(0.00395818 -2.78295e-06 1.51376e-05)
(0.0039371 -2.76176e-06 1.38311e-05)
(0.00391781 -2.71152e-06 1.26773e-05)
(0.00390013 -2.64048e-06 1.16629e-05)
(0.0038839 -2.55703e-06 1.07527e-05)
(0.003869 -2.4655e-06 9.91003e-06)
(0.00385533 -2.36477e-06 9.11983e-06)
(0.0038428 -2.25066e-06 8.39417e-06)
(0.00383132 -2.11882e-06 7.73995e-06)
(0.00382081 -1.96791e-06 7.13485e-06)
(0.00381121 -1.80054e-06 6.55876e-06)
(0.00380246 -1.61925e-06 6.01128e-06)
(0.0037945 -1.42395e-06 5.47989e-06)
(0.00378731 -1.21409e-06 4.93835e-06)
(0.00378085 -9.92282e-07 4.38202e-06)
(0.00377509 -7.66893e-07 3.83247e-06)
(0.00376999 -5.51321e-07 3.32288e-06)
(0.00376551 -3.59051e-07 2.89155e-06)
(0.00376155 -1.99907e-07 2.56722e-06)
(0.00375806 -7.83074e-08 2.34872e-06)
(0.00375497 6.21047e-09 2.19293e-06)
(0.00375226 5.73871e-08 2.02979e-06)
(0.00374994 8.08116e-08 1.80302e-06)
(0.00374804 8.13189e-08 1.49597e-06)
(0.0037466 5.88976e-08 1.12273e-06)
(0.00374565 1.0398e-08 7.16817e-07)
(0.00374517 -6.4305e-08 3.17337e-07)
(0.00374517 -1.58217e-07 -5.72527e-08)
(0.00374561 -2.57437e-07 -4.05462e-07)
(0.00426192 -4.2702e-06 3.48973e-05)
(0.00421462 -4.07243e-06 3.1707e-05)
(0.00417155 -3.93519e-06 2.87913e-05)
(0.0041323 -3.85477e-06 2.61734e-05)
(0.00409648 -3.82559e-06 2.38741e-05)
(0.00406373 -3.82443e-06 2.18488e-05)
(0.00403375 -3.82092e-06 2.00098e-05)
(0.00400629 -3.7945e-06 1.82952e-05)
(0.00398115 -3.73873e-06 1.66907e-05)
(0.00395814 -3.65854e-06 1.52107e-05)
(0.00393709 -3.56491e-06 1.38838e-05)
(0.00391781 -3.46671e-06 1.273e-05)
(0.00390014 -3.36737e-06 1.17324e-05)
(0.00388391 -3.26574e-06 1.08418e-05)
(0.00386901 -3.15624e-06 1.00045e-05)
(0.00385534 -3.03272e-06 9.19438e-06)
(0.00384282 -2.89375e-06 8.4299e-06)
(0.00383135 -2.74011e-06 7.74105e-06)
(0.00382085 -2.5709e-06 7.12261e-06)
(0.00381126 -2.3839e-06 6.54558e-06)
(0.00380252 -2.1751e-06 5.9886e-06)
(0.00379458 -1.93987e-06 5.4357e-06)
(0.0037874 -1.67856e-06 4.88044e-06)
(0.00378094 -1.39989e-06 4.3382e-06)
(0.00377518 -1.12123e-06 3.83161e-06)
(0.00377006 -8.65929e-07 3.37914e-06)
(0.00376555 -6.55381e-07 3.00305e-06)
(0.00376155 -5.0149e-07 2.72055e-06)