/*--------------------------------*- C++ -*----------------------------------*\
| =========                 |                                                 |
| \\      /  F ield         | OpenFOAM: The Open Source CFD Toolbox           |
|  \\    /   O peration     | Version:  2.3.1                                 |
|   \\  /    A nd           | Web:      www.OpenFOAM.org                      |
|    \\/     M anipulation  |                                                 |
\*---------------------------------------------------------------------------*/
FoamFile
{
    version     2.0;
    format      ascii;
    class       volScalarField;
    location    "10";
    object      epsilon_0;
}
// * * * * * * * * * * * * * * * * * * * * * * * * * * * * * * * * * * * * * //

dimensions      [0 2 -3 0 0 0 0];

internalField   nonuniform List<scalar> 
38262
(
0.000242507
0.000237106
0.00023048
0.000216206
0.000222107
0.00022825
0.000220001
0.00021952
0.000232087
0.000232011
0.000195174
0.000164654
0.00015395
0.000149632
0.0001501
0.000152536
0.00015862
0.000192513
0.00137405
0.0151968
0.0431413
0.0536739
0.0607634
0.0840589
0.0929377
0.0950786
0.102232
0.122845
0.130676
0.141519
0.128367
0.167747
0.176915
0.204389
0.314779
0.408534
1.20656
8.30894
0.000337437
0.000324483
0.000303514
0.000308754
0.000316316
0.000299376
0.000260396
0.000194554
0.000165124
0.000164924
0.000148548
0.000146303
0.000164471
0.00019829
0.000200919
0.000188641
0.00018713
0.000210735
0.000297192
0.00178844
0.0092529
0.0178948
0.0248633
0.0386506
0.0373309
0.0417923
0.0369265
0.0341434
0.028731
0.0613193
0.0374206
0.108809
0.114095
0.132959
0.213633
0.482958
1.50667
16.401
0.00019619
0.0001763
0.00015694
0.000143924
0.000140895
0.00012524
0.000106397
8.95734e-05
7.08285e-05
6.05212e-05
5.39558e-05
5.02759e-05
5.04012e-05
5.63225e-05
5.69118e-05
5.76946e-05
7.40799e-05
0.00015008
0.000175846
0.000295845
0.000848936
0.00203372
0.00273762
0.00443955
0.00235645
0.00299869
0.00181642
0.00169807
0.00174755
0.00838486
0.00783521
0.0322812
0.0554065
0.139642
0.177252
0.39713
0.964912
14.1034
3.82261e-05
4.2959e-05
4.49954e-05
4.4861e-05
4.51996e-05
4.347e-05
3.85213e-05
3.61289e-05
3.35539e-05
3.06128e-05
3.14764e-05
3.30354e-05
3.28871e-05
3.21609e-05
3.34104e-05
3.98274e-05
4.4099e-05
5.84069e-05
9.68391e-05
0.000142369
0.00021464
0.000373047
0.000511694
0.000714225
0.000515081
0.000660753
0.000604085
0.000781071
0.0007938
0.00153581
0.0019245
0.0113261
0.0743756
0.0427654
0.0473784
0.140171
1.42658
14.8387
7.41285e-06
8.95296e-06
1.02209e-05
1.15505e-05
1.20546e-05
1.31137e-05
1.36881e-05
1.48147e-05
1.60648e-05
1.76003e-05
1.98074e-05
2.10673e-05
2.45773e-05
2.7846e-05
3.29235e-05
3.46093e-05
5.76772e-05
6.18657e-05
6.30527e-05
8.64646e-05
0.000130064
0.000165244
0.000223234
0.000282318
0.000260373
0.000302955
0.000519134
0.000460507
0.000868578
0.000960678
0.00111601
0.00329795
0.0264259
0.0170238
0.0292926
0.0886438
1.81039
12.664
5.30345e-06
5.90979e-06
6.81606e-06
7.50423e-06
8.86772e-06
9.82968e-06
1.13755e-05
1.25698e-05
1.47525e-05
1.66405e-05
1.81533e-05
2.18955e-05
2.334e-05
2.59646e-05
3.1418e-05
3.31144e-05
3.91744e-05
4.86666e-05
5.40988e-05
7.07338e-05
9.09487e-05
9.97136e-05
0.000126723
0.000143691
0.000185137
0.000219292
0.000386044
0.000421154
0.000723527
0.000764892
0.00111143
0.00164172
0.00394171
0.0125065
0.0256962
0.282411
2.50765
11.0712
5.08737e-06
5.60464e-06
6.21879e-06
7.01196e-06
7.70599e-06
9.10369e-06
9.97078e-06
1.1987e-05
1.31364e-05
1.55925e-05
1.82543e-05
1.94067e-05
2.37707e-05
2.60492e-05
3.01527e-05
3.5828e-05
4.26162e-05
4.50179e-05
5.42065e-05
6.18609e-05
8.05518e-05
9.42689e-05
0.000103145
0.000116389
0.000167371
0.000249079
0.000347162
0.000480455
0.000880824
0.0011946
0.00195747
0.00441604
0.00720822
0.0190405
0.0324381
0.168927
1.99161
11.8297
5.20185e-06
5.70468e-06
6.40335e-06
7.02367e-06
8.14754e-06
8.84892e-06
1.0437e-05
1.13737e-05
1.32084e-05
1.4558e-05
1.69874e-05
1.8312e-05
2.18927e-05
2.33429e-05
3.02699e-05
3.3621e-05
3.92061e-05
4.30796e-05
5.42483e-05
6.45947e-05
7.07301e-05
9.19941e-05
9.44254e-05
0.000107299
0.000212427
0.000564692
0.0011887
0.00172907
0.00220909
0.00324947
0.00694415
0.0194999
0.0360028
0.0415371
0.0398345
0.0861504
1.12189
12.0874
5.11069e-06
5.6303e-06
6.13117e-06
6.9741e-06
7.4827e-06
8.70138e-06
9.29496e-06
1.10621e-05
1.15815e-05
1.37263e-05
1.48194e-05
1.69497e-05
1.81944e-05
2.19473e-05
2.83127e-05
3.76838e-05
4.25145e-05
5.51015e-05
7.5585e-05
7.63753e-05
7.81836e-05
8.64865e-05
9.26038e-05
0.000100403
0.000132203
0.000255766
0.00054526
0.00101733
0.00143742
0.0017665
0.00294004
0.00472722
0.0125038
0.0199339
0.0262522
0.0403267
0.444591
10.0512
4.96518e-06
5.44208e-06
5.96517e-06
6.70393e-06
7.19466e-06
8.4164e-06
8.82858e-06
1.05996e-05
1.09829e-05
1.23959e-05
1.47411e-05
1.46298e-05
1.56732e-05
2.36464e-05
5.61621e-05
9.98439e-05
0.000169202
0.000338151
0.000321699
0.000256503
0.000197617
0.000136636
0.00013344
0.000114053
0.000199269
0.00067454
0.00121933
0.00199722
0.00232589
0.00376253
0.00558285
0.0134345
0.0213178
0.0401111
0.0759532
0.153967
0.656351
4.9705
4.42366e-06
4.91211e-06
5.21872e-06
6.02056e-06
6.31963e-06
7.48135e-06
7.58784e-06
9.07333e-06
9.3003e-06
9.86469e-06
1.15812e-05
1.10073e-05
1.21115e-05
9.84049e-05
0.000340896
0.00050979
0.000934671
0.00135874
0.00209716
0.00202488
0.00170863
0.00135271
0.00145348
0.00125062
0.000622058
0.000744175
0.00113428
0.00202597
0.00259913
0.00400101
0.00577149
0.0120447
0.0161458
0.027877
0.0437955
0.0879838
0.208785
1.55824
2.91207e-06
3.20113e-06
3.3501e-06
3.7721e-06
3.87349e-06
4.59147e-06
4.526e-06
5.51532e-06
5.59229e-06
5.77387e-06
7.0401e-06
6.47057e-06
2.09515e-05
0.000514791
0.00106029
0.00117583
0.00131555
0.00146663
0.00143604
0.00131316
0.00131183
0.00125538
0.0012913
0.00156067
0.00172456
0.00194576
0.00277618
0.00376423
0.00512828
0.00839678
0.0123988
0.0221759
0.0331152
0.0790471
0.32837
1.17624
2.88199
7.43343
0.000188352
0.000200043
0.000201505
0.000192021
0.000185784
0.000210711
0.000216841
0.000204722
0.000228818
0.00024184
0.000222385
0.000194891
0.000179059
0.000168469
0.000165105
0.00015957
0.000158344
0.000164666
0.000584358
0.0080883
0.0330331
0.0419346
0.0442314
0.0559151
0.0716739
0.0741362
0.0738354
0.0878299
0.10599
0.118451
0.122466
0.15111
0.158819
0.159938
0.197773
0.23585
1.49255
8.0412
0.00021616
0.000204995
0.000197647
0.000204983
0.000225916
0.000244901
0.000247195
0.000229564
0.000232783
0.000248345
0.000238245
0.000232007
0.000241763
0.000242253
0.000239665
0.000208704
0.00020212
0.000228676
0.000352077
0.00169953
0.0112354
0.0269005
0.038488
0.0446692
0.0518196
0.0568378
0.0467098
0.0603647
0.0519478
0.0599699
0.0876123
0.127705
0.108544
0.229389
0.22626
0.39432
1.34959
28.6672
0.000149094
0.000128972
0.000111004
9.67695e-05
8.80196e-05
7.78162e-05
6.8678e-05
6.27739e-05
6.01167e-05
6.00978e-05
5.86965e-05
6.82933e-05
8.46537e-05
9.41839e-05
9.57814e-05
7.58228e-05
8.09332e-05
0.000113706
0.000184398
0.000308229
0.00118555
0.00330172
0.0055668
0.00559641
0.00494566
0.0039339
0.00240529
0.00289345
0.00316335
0.00633256
0.0115424
0.0488063
0.0533325
0.13329
0.116835
0.580744
1.1651
6.33138
2.44839e-05
2.39553e-05
2.29038e-05
2.15459e-05
2.0532e-05
1.92778e-05
1.6865e-05
1.59536e-05
1.50522e-05
1.31776e-05
1.2355e-05
1.33713e-05
1.54844e-05
1.92436e-05
2.62106e-05
2.60451e-05
3.27451e-05
4.83861e-05
7.71148e-05
0.00014985
0.000195777
0.000383311
0.000642817
0.000585086
0.000576166
0.000466868
0.000606764
0.00064298
0.000821685
0.00129614
0.00539886
0.0588899
0.0274105
0.0296343
0.0397687
0.251407
0.835809
6.40046
3.66534e-06
4.02323e-06
4.38647e-06
4.48736e-06
4.72461e-06
4.96396e-06
4.96373e-06
5.21505e-06
5.35819e-06
5.47432e-06
5.88186e-06
6.28793e-06
6.54457e-06
7.43642e-06
8.97164e-06
1.04971e-05
1.61828e-05
2.59077e-05
4.77406e-05
6.90872e-05
0.000136199
0.000171571
0.000183819
0.000171151
0.000203909
0.000184775
0.000290101
0.000321742
0.000371038
0.000681449
0.00154038
0.00387494
0.0126878
0.0190741
0.0283987
0.114443
0.946826
3.25508
1.73145e-06
1.88896e-06
2.13355e-06
2.2854e-06
2.56127e-06
2.83961e-06
3.05137e-06
3.40546e-06
3.81355e-06
4.14762e-06
4.89497e-06
5.20899e-06
6.55541e-06
6.94791e-06
7.72623e-06
1.17333e-05
1.26811e-05
1.92284e-05
2.68894e-05
3.87688e-05
7.04375e-05
7.36547e-05
7.41186e-05
8.49829e-05
9.74226e-05
0.000162532
0.000183198
0.000276059
0.000751521
0.000627616
0.00161836
0.0018352
0.00457112
0.0206646
0.0456732
0.129908
1.13747
4.95111
1.50505e-06
1.59325e-06
1.74946e-06
1.88378e-06
2.11035e-06
2.35543e-06
2.71494e-06
2.96267e-06
3.56352e-06
3.82655e-06
4.54883e-06
5.11098e-06
5.4885e-06
6.30882e-06
8.69466e-06
9.22627e-06
1.06977e-05
1.58572e-05
1.80086e-05
2.70089e-05
2.92949e-05
3.664e-05
4.43954e-05
4.69383e-05
6.74054e-05
0.000109294
0.000245471
0.000223621
0.000977179
0.00078084
0.00294399
0.00379496
0.0110305
0.025807
0.0607454
0.0958496
0.544876
7.34697
1.47243e-06
1.56172e-06
1.70361e-06
1.82183e-06
2.00129e-06
2.21815e-06
2.39391e-06
2.78365e-06
3.05224e-06
3.31934e-06
4.26283e-06
4.73082e-06
5.21642e-06
7.22333e-06
9.85218e-06
1.18064e-05
1.57821e-05
1.84391e-05
1.98512e-05
2.54785e-05
2.71014e-05
3.10243e-05
6.57523e-05
6.30401e-05
0.000280284
0.00048197
0.00148504
0.00169345
0.00181517
0.00281465
0.00404104
0.0116298
0.0291017
0.0368692
0.06853
0.0546586
0.315021
7.20537
1.45504e-06
1.52523e-06
1.65455e-06
1.7613e-06
1.91719e-06
2.08047e-06
2.33606e-06
2.50211e-06
3.05281e-06
3.1938e-06
4.03291e-06
4.35224e-06
5.06583e-06
7.30862e-06
1.46967e-05
2.12338e-05
3.33351e-05
5.48613e-05
5.69721e-05
4.98711e-05
4.09842e-05
3.61612e-05
4.51968e-05
4.8528e-05
8.13662e-05
0.000159998
0.000426551
0.000513296
0.000802803
0.000839567
0.00108493
0.00235277
0.00529663
0.0127206
0.0287711
0.0293271
0.120459
5.25205
1.41758e-06
1.47509e-06
1.60244e-06
1.67333e-06
1.84102e-06
1.92764e-06
2.12713e-06
2.45126e-06
2.62067e-06
3.07566e-06
3.49512e-06
4.0743e-06
5.55916e-06
1.45379e-05
6.22789e-05
0.000171161
0.000396109
0.000591491
0.000548959
0.000408577
0.000314851
0.000214468
0.000182164
0.000158981
0.000264881
0.000600674
0.00119103
0.00161322
0.00187606
0.00252171
0.00345321
0.0114696
0.0195621
0.0443946
0.062951
0.103712
0.501186
3.7251
1.3583e-06
1.39772e-06
1.5118e-06
1.55942e-06
1.74403e-06
1.81196e-06
2.05023e-06
2.2118e-06
2.5203e-06
3.10142e-06
3.26709e-06
4.3057e-06
7.29251e-06
8.65075e-05
0.000452433
0.00118801
0.00185404
0.00296894
0.00349764
0.00326059
0.00331577
0.00283827
0.00280724
0.00265947
0.001932
0.00200958
0.00250246
0.00389501
0.0050513
0.00657601
0.00902443
0.0165726
0.0182487
0.0282949
0.0436335
0.0789463
0.285712
1.83041
1.97017e-06
2.08388e-06
2.22673e-06
2.36615e-06
2.50617e-06
2.77018e-06
2.84724e-06
3.22252e-06
3.3183e-06
3.51824e-06
4.06015e-06
3.917e-06
6.14849e-06
0.000320396
0.0011254
0.00141211
0.0016334
0.00214082
0.00224459
0.00190533
0.00193928
0.00175003
0.00142519
0.0013844
0.0014895
0.00173426
0.00242332
0.00332062
0.0043667
0.00672471
0.0103481
0.0167691
0.0232174
0.048678
0.17572
0.688485
1.79738
4.7417
0.000145574
0.000186287
0.000199621
0.000216
0.000224081
0.000246847
0.000258346
0.000253915
0.000270711
0.000282345
0.000266194
0.00023308
0.000213604
0.000200444
0.00019602
0.000188327
0.000179996
0.000179226
0.000404012
0.00603058
0.0351922
0.0495682
0.0531748
0.0579906
0.0771175
0.0841635
0.0856002
0.0946059
0.108997
0.126212
0.136516
0.141315
0.15546
0.15405
0.146211
0.280747
2.24265
7.94337
0.000161606
0.00014068
0.000138251
0.000169248
0.000210843
0.000226724
0.000248964
0.00025082
0.000251862
0.000263541
0.000252571
0.000226528
0.000221358
0.000222204
0.000226506
0.000215046
0.000196888
0.00020286
0.000295824
0.00121711
0.0104378
0.0291828
0.0404779
0.0422381
0.0432519
0.0445865
0.0421696
0.0503042
0.0349714
0.0351553
0.0494188
0.0461755
0.0539745
0.0839099
0.068154
0.388513
0.625609
5.56526
7.31088e-05
6.33086e-05
5.35634e-05
5.31423e-05
5.88895e-05
6.06009e-05
5.85698e-05
5.71466e-05
5.44231e-05
5.2821e-05
4.6839e-05
4.58801e-05
5.07948e-05
5.99004e-05
7.48827e-05
7.20058e-05
7.27568e-05
7.82813e-05
0.000110371
0.000196861
0.000879749
0.00304315
0.00521158
0.00541297
0.00483974
0.00359253
0.00278491
0.00259867
0.00210042
0.00389037
0.00369512
0.0326497
0.0397475
0.0788323
0.0457023
0.321718
1.37172
2.13523
1.0033e-05
1.05035e-05
1.07264e-05
1.1145e-05
1.21154e-05
1.31557e-05
1.29696e-05
1.27978e-05
1.2487e-05
1.17747e-05
1.06245e-05
1.08838e-05
1.23256e-05
1.37516e-05
1.58211e-05
1.68884e-05
2.0572e-05
2.65229e-05
3.92572e-05
6.09486e-05
9.82866e-05
0.000240187
0.000461617
0.000441216
0.000476403
0.000388537
0.000420856
0.000345964
0.000663128
0.00085349
0.00205026
0.0170498
0.00769629
0.025964
0.0329133
0.137786
0.69753
1.09726
2.24756e-06
2.56176e-06
2.93587e-06
3.26727e-06
3.64695e-06
4.18953e-06
4.49757e-06
4.76341e-06
4.86097e-06
5.06243e-06
5.19833e-06
5.27895e-06
5.55584e-06
6.07989e-06
7.14177e-06
7.87471e-06
1.01806e-05
1.42012e-05
2.91589e-05
3.34619e-05
4.30531e-05
6.07192e-05
7.96935e-05
8.43988e-05
0.000104064
0.000123619
0.000132019
0.000182715
0.000245436
0.000326131
0.000625814
0.00279215
0.00322288
0.0107087
0.0176427
0.088597
0.74075
0.3605
1.28204e-06
1.42249e-06
1.62745e-06
1.80531e-06
2.0475e-06
2.29036e-06
2.523e-06
2.81069e-06
3.04926e-06
3.36168e-06
3.73917e-06
3.96268e-06
4.54276e-06
4.8859e-06
5.57272e-06
7.13227e-06
8.50352e-06
1.20656e-05
1.76101e-05
2.01892e-05
2.52949e-05
3.31199e-05
3.51632e-05
4.44791e-05
4.70655e-05
9.21456e-05
7.9187e-05
0.000168428
0.000184221
0.000248686
0.000489666
0.00101424
0.00230399
0.00742591
0.0351542
0.0600163
0.331743
0.300207
1.08701e-06
1.16971e-06
1.28895e-06
1.43687e-06
1.59029e-06
1.86408e-06
2.0618e-06
2.32058e-06
2.64915e-06
2.84347e-06
3.26224e-06
3.62675e-06
3.83754e-06
4.43738e-06
6.11449e-06
6.82709e-06
7.99934e-06
1.07932e-05
1.3115e-05
1.69525e-05
1.78743e-05
2.01599e-05
2.71136e-05
2.98747e-05
4.75466e-05
5.40448e-05
7.29372e-05
8.71751e-05
0.000179629
0.00020372
0.000476112
0.000831521
0.00435368
0.00856145
0.0308606
0.0200774
0.0546082
0.607063
1.0439e-06
1.11656e-06
1.21791e-06
1.32414e-06
1.44243e-06
1.61837e-06
1.74484e-06
2.00576e-06
2.1992e-06
2.4031e-06
2.91748e-06
3.2648e-06
3.6088e-06
4.78471e-06
8.12954e-06
1.01619e-05
1.36997e-05
1.54886e-05
1.77851e-05
1.94818e-05
1.98344e-05
2.17916e-05
3.50817e-05
3.93698e-05
0.000117759
0.000122381
0.000157002
0.000220322
0.000219731
0.000340479
0.000667834
0.00160956
0.00723855
0.00780084
0.0355794
0.0205684
0.0563104
0.815774
1.02852e-06
1.08382e-06
1.16717e-06
1.26128e-06
1.34607e-06
1.51111e-06
1.61963e-06
1.79981e-06
2.05059e-06
2.20378e-06
2.70174e-06
3.13171e-06
3.80496e-06
6.67634e-06
1.62917e-05
2.65518e-05
4.60142e-05
7.08905e-05
7.01968e-05
5.75093e-05
4.77799e-05
3.7612e-05
4.08217e-05
4.46502e-05
6.0596e-05
7.6751e-05
0.000119352
0.000142921
0.000222806
0.00028227
0.000429473
0.00111702
0.00177295
0.00587134
0.017691
0.0162237
0.0387021
0.966831
1.03029e-06
1.07053e-06
1.1577e-06
1.20795e-06
1.31853e-06
1.38413e-06
1.52524e-06
1.68072e-06
1.81187e-06
2.13544e-06
2.47052e-06
2.97668e-06
4.76594e-06
1.75067e-05
8.37574e-05
0.000232807
0.000548325
0.000762995
0.000711488
0.000549325
0.000465934
0.000336583
0.000321664
0.000290887
0.000306491
0.000364128
0.000542242
0.000810243
0.000954704
0.00142192
0.00199328
0.00526156
0.00951106
0.0217715
0.0310031
0.048439
0.253156
1.72279
1.10068e-06
1.12939e-06
1.20913e-06
1.25807e-06
1.36193e-06
1.46308e-06
1.64789e-06
1.7163e-06
2.0294e-06
2.29432e-06
2.65166e-06
3.89664e-06
7.91001e-06
0.000114264
0.000618553
0.00162266
0.00247251
0.00406518
0.00428993
0.00434088
0.00449481
0.00424139
0.00449079
0.00490993
0.00507056
0.00572599
0.00704318
0.00874606
0.00948313
0.0120836
0.0142323
0.0254436
0.0238419
0.0263057
0.0386789
0.0751271
0.187325
1.00751
2.24882e-06
2.36087e-06
2.54666e-06
2.65236e-06
2.89344e-06
3.0828e-06
3.22259e-06
3.67072e-06
3.75114e-06
4.04186e-06
4.49206e-06
4.43226e-06
7.47829e-06
0.000421369
0.00154526
0.00201537
0.00238455
0.00308324
0.0032629
0.00294497
0.00298035
0.00278667
0.0025606
0.00290925
0.00340654
0.00398506
0.0054693
0.00710806
0.0080501
0.0113325
0.0161661
0.0243574
0.0303716
0.0553234
0.15828
0.649021
1.76973
4.11624
4.36598e-05
0.000121738
0.000172438
0.000209006
0.000239316
0.000250519
0.000266457
0.000270743
0.000286197
0.000298676
0.000287022
0.000251112
0.000226896
0.000211484
0.000204196
0.000197079
0.000187481
0.000181512
0.000245614
0.00271586
0.0279827
0.0502948
0.0574097
0.0615844
0.0763562
0.0896273
0.0933212
0.0985709
0.112016
0.124221
0.127089
0.118236
0.139756
0.114427
0.0873244
0.164233
1.36824
7.10822
5.91352e-05
9.15841e-05
0.000102704
0.000138722
0.000196812
0.000216534
0.000246305
0.000269749
0.000266589
0.000275881
0.000262319
0.000227063
0.000202155
0.000191761
0.000189524
0.000184832
0.000175398
0.000172864
0.000225897
0.000622647
0.00631008
0.0236919
0.037232
0.0390927
0.039543
0.0419589
0.0436454
0.0496264
0.035385
0.0351419
0.0390636
0.0290376
0.0406986
0.0311367
0.0262125
0.0880977
0.345337
1.65651
2.25929e-05
2.54448e-05
2.98196e-05
3.60472e-05
5.22672e-05
5.86434e-05
5.75767e-05
5.66727e-05
5.3576e-05
5.05742e-05
4.52698e-05
3.8429e-05
3.65527e-05
3.76193e-05
4.02834e-05
4.51232e-05
4.86418e-05
5.38113e-05
6.98994e-05
0.000111085
0.000435305
0.00192842
0.00382517
0.00456553
0.00456948
0.00373663
0.00306984
0.00292682
0.00256901
0.00221256
0.00274049
0.0147099
0.0197629
0.0136187
0.0147841
0.0591154
0.716936
0.676282
4.76047e-06
5.52349e-06
6.57049e-06
7.94703e-06
9.97021e-06
1.18192e-05
1.19755e-05
1.18896e-05
1.17278e-05
1.12592e-05
1.03982e-05
1.03681e-05
1.12866e-05
1.24044e-05
1.33212e-05
1.43342e-05
1.76962e-05
2.00905e-05
2.64721e-05
3.47964e-05
5.54876e-05
0.000137088
0.000288661
0.000335211
0.000409934
0.000371598
0.000360725
0.000370434
0.00061206
0.000668896
0.0009357
0.00690098
0.0032707
0.00866496
0.00883493
0.0448913
0.305124
0.200394
1.738e-06
1.98652e-06
2.34678e-06
2.82045e-06
3.24334e-06
3.97786e-06
4.48717e-06
4.6818e-06
4.93185e-06
5.21401e-06
5.2843e-06
5.40027e-06
5.65823e-06
6.04408e-06
6.76421e-06
7.62821e-06
9.42899e-06
1.20701e-05
1.91473e-05
2.15837e-05
2.53196e-05
3.32945e-05
4.78386e-05
6.16654e-05
7.86029e-05
0.000114537
0.000115608
0.000175953
0.000211729
0.000241884
0.000326426
0.00134044
0.00145441
0.00389662
0.0119077
0.0519747
0.130335
0.0666744
1.13618e-06
1.28069e-06
1.47807e-06
1.69897e-06
1.94382e-06
2.23154e-06
2.52405e-06
2.81306e-06
3.06275e-06
3.43078e-06
3.70687e-06
3.97146e-06
4.45697e-06
4.80659e-06
5.58618e-06
6.69741e-06
7.94665e-06
1.06024e-05
1.4418e-05
1.58011e-05
1.7925e-05
2.26632e-05
2.58299e-05
3.22136e-05
3.61347e-05
5.73914e-05
5.65362e-05
0.000101774
0.000104932
0.000223108
0.000249723
0.000546523
0.00111062
0.00279009
0.0204527
0.0252786
0.0726358
0.0511005
9.76977e-07
1.07118e-06
1.1946e-06
1.36631e-06
1.5288e-06
1.82022e-06
2.02279e-06
2.2993e-06
2.58038e-06
2.80399e-06
3.17267e-06
3.5048e-06
3.74722e-06
4.35879e-06
5.85837e-06
6.85066e-06
8.09344e-06
1.06263e-05
1.28014e-05
1.52438e-05
1.60212e-05
1.78042e-05
2.18626e-05
2.6532e-05
3.66102e-05
4.0152e-05
4.95021e-05
5.69982e-05
8.16928e-05
0.000109884
0.000264422
0.000343161
0.00180388
0.00285222
0.0113506
0.00602375
0.00937724
0.0539022
9.32901e-07
1.01265e-06
1.11242e-06
1.2352e-06
1.35232e-06
1.54202e-06
1.68218e-06
1.92538e-06
2.14323e-06
2.34506e-06
2.79434e-06
3.15498e-06
3.53577e-06
4.71376e-06
8.22826e-06
1.15308e-05
1.39265e-05
1.67893e-05
1.86991e-05
1.96203e-05
1.95253e-05
2.02935e-05
2.28234e-05
2.76105e-05
5.12696e-05
5.41369e-05
5.5649e-05
6.70299e-05
7.60581e-05
0.000120064
0.000305293
0.000442629
0.00176945
0.00257105
0.0102775
0.00629463
0.0157294
0.0854129
9.21665e-07
9.84494e-07
1.06304e-06
1.17089e-06
1.25257e-06
1.42965e-06
1.53497e-06
1.72334e-06
1.95539e-06
2.1175e-06
2.57587e-06
3.05996e-06
3.85013e-06
7.71791e-06
2.01453e-05
3.50771e-05
6.03217e-05
8.43919e-05
8.08597e-05
6.59767e-05
5.48222e-05
4.4575e-05
4.35259e-05
4.58979e-05
5.57598e-05
6.84759e-05
9.6076e-05
0.000113805
0.00017025
0.000236346
0.000307783
0.000992861
0.0011049
0.00227172
0.00962238
0.00854195
0.0174102
0.156005
9.41631e-07
9.89654e-07
1.06736e-06
1.13564e-06
1.22277e-06
1.31841e-06
1.46096e-06
1.56354e-06
1.77548e-06
2.03255e-06
2.39678e-06
3.02523e-06
5.07923e-06
2.70729e-05
0.000117455
0.00031697
0.000712201
0.000883689
0.000812787
0.000667443
0.00059542
0.000486526
0.000509728
0.00051893
0.000576662
0.00071568
0.00113354
0.00130862
0.00151077
0.00190266
0.00274072
0.00437065
0.00836885
0.0103772
0.0161542
0.0260831
0.119875
0.672161
1.0691e-06
1.10309e-06
1.17318e-06
1.25302e-06
1.30306e-06
1.47221e-06
1.59442e-06
1.68441e-06
2.19244e-06
2.27547e-06
2.68805e-06
4.31085e-06
1.08732e-05
0.000194039
0.000869247
0.00206055
0.00316703
0.00493457
0.00495384
0.00551957
0.00575593
0.00582779
0.00676573
0.00743708
0.00867827
0.010542
0.0129647
0.0137192
0.0147712
0.0179271
0.0220852
0.029864
0.031853
0.0294909
0.0392112
0.080988
0.163766
0.579101
2.38139e-06
2.50809e-06
2.68649e-06
2.8046e-06
3.06315e-06
3.19775e-06
3.47531e-06
3.81228e-06
3.89906e-06
4.33507e-06
4.63667e-06
4.69485e-06
1.75611e-05
0.000668993
0.00197601
0.00253937
0.00311377
0.00391256
0.00408756
0.00387624
0.00404493
0.00403385
0.00410161
0.00534407
0.00633157
0.00754779
0.0099692
0.0114638
0.0123073
0.0164058
0.0221487
0.0295921
0.0345378
0.0575457
0.127668
0.48476
1.62307
3.40228
7.24175e-06
1.95144e-05
7.89037e-05
0.000172993
0.000239227
0.000251075
0.000262711
0.000273839
0.000296542
0.000312868
0.000305874
0.00026698
0.000237242
0.00021904
0.000207839
0.000200733
0.000191808
0.00018615
0.000193849
0.000629451
0.00954577
0.034895
0.0498917
0.0628555
0.0786666
0.0932116
0.0992692
0.102497
0.111786
0.118301
0.116574
0.110042
0.110173
0.0745612
0.065551
0.151381
1.36536
5.66448
1.82991e-05
2.325e-05
4.0918e-05
7.85686e-05
0.000163587
0.000215506
0.000259175
0.000297111
0.000295385
0.000305243
0.000286448
0.000242709
0.000208982
0.000191052
0.000176988
0.000167364
0.000158357
0.000156049
0.00018632
0.000321166
0.0018439
0.0102326
0.0230766
0.0336651
0.0385345
0.0419614
0.0480943
0.0548836
0.0406256
0.0392974
0.0383364
0.025809
0.0286118
0.0156269
0.017195
0.0330354
0.300894
0.987148
1.03816e-05
1.10909e-05
1.39205e-05
1.96333e-05
3.15362e-05
4.60755e-05
4.71756e-05
5.11535e-05
5.28433e-05
5.15478e-05
4.79061e-05
4.13237e-05
3.65561e-05
3.48608e-05
3.40014e-05
3.49679e-05
3.70232e-05
4.14916e-05
5.25027e-05
7.82036e-05
0.000174794
0.000700584
0.00180708
0.00305693
0.0043236
0.00404004
0.00372597
0.00384287
0.00330107
0.0025754
0.00253109
0.00513636
0.00856351
0.00524059
0.00761624
0.0291689
0.362824
0.314234
3.00488e-06
3.49746e-06
4.37154e-06
5.66235e-06
7.25385e-06
9.22766e-06
9.82624e-06
1.01177e-05
1.07764e-05
1.08545e-05
1.06773e-05
1.06798e-05
1.11643e-05
1.20409e-05
1.291e-05
1.37795e-05
1.63141e-05
1.86906e-05
2.36223e-05
2.94325e-05
4.14363e-05
7.47782e-05
0.000149775
0.000224743
0.000356369
0.000371156
0.000391629
0.000473295
0.000650925
0.000590501
0.0007323
0.00188117
0.001608
0.00255592
0.00433436
0.0161979
0.109839
0.101912
1.47366e-06
1.69116e-06
2.0246e-06
2.50397e-06
2.95304e-06
3.76271e-06
4.40911e-06
4.65459e-06
5.04875e-06
5.45422e-06
5.5841e-06
5.7584e-06
6.08996e-06
6.48974e-06
7.19412e-06
8.05438e-06
9.48182e-06
1.18692e-05
1.68652e-05
1.91158e-05
2.21506e-05
2.74415e-05
3.75298e-05
5.06008e-05
7.1794e-05
0.000109619
0.000118725
0.000184254
0.000201833
0.00029884
0.000309766
0.000642404
0.000794547
0.00298434
0.00563687
0.0266106
0.0345253
0.0263607
1.05928e-06
1.21199e-06
1.41191e-06
1.66025e-06
1.92292e-06
2.25307e-06
2.60471e-06
2.92061e-06
3.23395e-06
3.64183e-06
3.94079e-06
4.24816e-06
4.72831e-06
5.14274e-06
6.02758e-06
7.12422e-06
8.38945e-06
1.06046e-05
1.36703e-05
1.51793e-05
1.67739e-05
2.06438e-05
2.40022e-05
2.95782e-05
3.40371e-05
5.07934e-05
5.31042e-05
8.32262e-05
9.21786e-05
0.000190948
0.000178663
0.000656635
0.000699488
0.00152197
0.00821247
0.0113926
0.0236972
0.0240013
9.32749e-07
1.03713e-06
1.17165e-06
1.35959e-06
1.54354e-06
1.84855e-06
2.09154e-06
2.38283e-06
2.68165e-06
2.9462e-06
3.32558e-06
3.67939e-06
3.98702e-06
4.67729e-06
6.11608e-06
7.42894e-06
8.83902e-06
1.12153e-05
1.34644e-05
1.53904e-05
1.626e-05
1.84388e-05
2.13884e-05
2.66795e-05
3.34063e-05
3.79445e-05
4.53506e-05
5.20031e-05
6.85918e-05
9.2279e-05
0.000171734
0.000216848
0.000851897
0.00126488
0.00394539
0.00305668
0.00453513
0.014627
8.9149e-07
9.79125e-07
1.08463e-06
1.22145e-06
1.34686e-06
1.55233e-06
1.71857e-06
1.96967e-06
2.23309e-06
2.45826e-06
2.91819e-06
3.32162e-06
3.78259e-06
5.13743e-06
8.88165e-06
1.31933e-05
1.49924e-05
1.83002e-05
2.00983e-05
2.10341e-05
2.09653e-05
2.15486e-05
2.28665e-05
2.61738e-05
3.72517e-05
4.47538e-05
4.59645e-05
5.6112e-05
6.04435e-05
8.97324e-05
0.000151609
0.000227341
0.000732313
0.00105088
0.00299416
0.00268071
0.00751941
0.0219302
8.85238e-07
9.56075e-07
1.03789e-06
1.15669e-06
1.24416e-06
1.43336e-06
1.55193e-06
1.75248e-06
2.02435e-06
2.2024e-06
2.69445e-06
3.23893e-06
4.20789e-06
9.8787e-06
2.72075e-05
4.51595e-05
7.68459e-05
9.24963e-05
8.65313e-05
7.15662e-05
6.138e-05
5.30628e-05
5.3878e-05
5.66842e-05
6.6911e-05
8.43411e-05
0.000125038
0.000137886
0.000188228
0.000217355
0.00030402
0.000565533
0.000733277
0.00126135
0.00537882
0.00405915
0.0091503
0.0447653
9.15753e-07
9.72753e-07
1.0463e-06
1.13303e-06
1.20397e-06
1.33966e-06
1.46739e-06
1.58343e-06
1.88475e-06
2.0754e-06
2.55049e-06
3.30142e-06
6.15804e-06
5.00366e-05
0.000185764
0.00041278
0.000887194
0.000977738
0.000879718
0.000794765
0.000728537
0.000678503
0.00075356
0.000804655
0.000964153
0.00119057
0.00176778
0.00182926
0.00214993
0.00245449
0.00372097
0.00404575
0.00683788
0.00903255
0.0112081
0.016518
0.0646883
0.260975
1.0683e-06
1.11064e-06
1.17422e-06
1.26943e-06
1.30898e-06
1.49257e-06
1.57294e-06
1.71377e-06
2.2775e-06
2.34893e-06
2.92985e-06
4.80681e-06
2.20727e-05
0.000384749
0.00126901
0.00242895
0.00396664
0.005621
0.00565619
0.00684184
0.00705356
0.00762995
0.00935303
0.0101086
0.0119875
0.0146698
0.0173115
0.0175591
0.0191557
0.0226046
0.0290724
0.030741
0.037497
0.0349316
0.0426995
0.0772216
0.162635
0.363958
2.44169e-06
2.58216e-06
2.73271e-06
2.91856e-06
3.0931e-06
3.29408e-06
3.58238e-06
3.77325e-06
3.99341e-06
4.5213e-06
4.66082e-06
5.00888e-06
7.29609e-05
0.00114512
0.00241192
0.00299919
0.00389226
0.00468575
0.00483781
0.00478515
0.00525357
0.00550357
0.00622791
0.00822332
0.00957542
0.0116879
0.0145566
0.0157202
0.0166676
0.0212841
0.0274109
0.0328536
0.0369899
0.0568928
0.108
0.311321
1.19425
2.87505
3.79118e-06
8.08618e-06
1.41432e-05
6.15671e-05
0.000219729
0.000248851
0.000258363
0.000285194
0.000316884
0.000340239
0.000335575
0.000287398
0.000252657
0.000231487
0.000218053
0.000210388
0.000202014
0.000197729
0.000195487
0.000239946
0.00160147
0.00998889
0.02336
0.0536838
0.0857645
0.0968061
0.103351
0.106299
0.11073
0.115254
0.114199
0.103467
0.0834712
0.0565832
0.0617593
0.218271
1.49986
4.56742
7.95873e-06
1.0266e-05
1.51166e-05
3.20243e-05
8.95861e-05
0.000174713
0.000248337
0.000349775
0.000364175
0.000363125
0.000334144
0.000280132
0.000238935
0.00021209
0.00019193
0.00017834
0.000166616
0.000164432
0.000183012
0.000243781
0.000540232
0.00230309
0.00723333
0.0187725
0.0366015
0.0443177
0.0530185
0.0618157
0.0502377
0.0468201
0.051113
0.0337749
0.0225506
0.0109669
0.0103685
0.0181962
0.152131
0.801121
5.07446e-06
5.60692e-06
6.96235e-06
9.77271e-06
1.59338e-05
2.62974e-05
3.15038e-05
4.63028e-05
5.67991e-05
5.8077e-05
5.57412e-05
4.97497e-05
4.36311e-05
4.02653e-05
3.8261e-05
3.79267e-05
3.90055e-05
4.24674e-05
5.17287e-05
7.43775e-05
0.000118038
0.000242505
0.000577694
0.00142965
0.00338956
0.00455909
0.00461834
0.00512853
0.00448913
0.00323797
0.00328486
0.00309134
0.00368064
0.00262129
0.00335169
0.00945102
0.0928093
0.153479
2.08083e-06
2.54846e-06
3.1392e-06
4.15924e-06
5.40345e-06
7.18797e-06
8.40831e-06
9.5017e-06
1.08865e-05
1.17205e-05
1.1933e-05
1.2072e-05
1.25227e-05
1.30764e-05
1.38587e-05
1.46885e-05
1.6809e-05
1.91643e-05
2.35216e-05
2.88884e-05
3.91418e-05
5.69277e-05
9.50755e-05
0.000159971
0.000309294
0.000438333
0.000500647
0.000689883
0.000740624
0.000701316
0.000726627
0.000895185
0.00109457
0.00186937
0.00200826
0.00622117
0.0272626
0.0265054
1.29072e-06
1.5162e-06
1.8465e-06
2.31669e-06
2.80782e-06
3.67613e-06
4.43112e-06
4.82575e-06
5.35498e-06
5.86655e-06
6.08665e-06
6.342e-06
6.75059e-06
7.17712e-06
7.93676e-06
8.86988e-06
1.01384e-05
1.24118e-05
1.65293e-05
1.88464e-05
2.18987e-05
2.6788e-05
3.513e-05
4.70686e-05
7.0003e-05
0.000116967
0.000140328
0.000223614
0.000236785
0.00032798
0.000302001
0.000760109
0.000619017
0.00189683
0.0027413
0.0109654
0.0146775
0.0121896
1.00726e-06
1.16846e-06
1.38224e-06
1.65055e-06
1.93865e-06
2.3162e-06
2.71889e-06
3.08187e-06
3.46478e-06
3.90625e-06
4.25825e-06
4.61311e-06
5.10731e-06
5.61239e-06
6.57341e-06
7.77582e-06
9.15006e-06
1.11295e-05
1.38945e-05
1.55728e-05
1.71636e-05
2.08758e-05
2.4241e-05
2.95762e-05
3.50239e-05
4.99236e-05
5.68192e-05
8.07998e-05
9.71194e-05
0.000146332
0.000153909
0.000326344
0.000403666
0.000802399
0.00270578
0.00476408
0.00996897
0.0080941
9.10077e-07
1.0227e-06
1.16857e-06
1.36872e-06
1.57793e-06
1.89695e-06
2.18101e-06
2.49153e-06
2.82346e-06
3.12925e-06
3.5385e-06
3.93618e-06
4.33432e-06
5.15906e-06
6.54458e-06
8.11661e-06
9.76847e-06
1.21175e-05
1.43849e-05
1.62073e-05
1.72445e-05
1.97966e-05
2.24549e-05
2.73569e-05
3.24466e-05
3.88591e-05
4.69184e-05
5.41645e-05
7.15087e-05
9.25462e-05
0.000139668
0.000178981
0.000604929
0.000729161
0.00152985
0.0020103
0.00330996
0.00629168
8.74136e-07
9.68207e-07
1.07992e-06
1.22623e-06
1.36573e-06
1.58629e-06
1.78046e-06
2.05022e-06
2.35626e-06
2.61927e-06
3.11624e-06
3.5908e-06
4.16518e-06
5.80708e-06
9.66453e-06
1.40566e-05
1.60529e-05
1.97752e-05
2.19004e-05
2.30265e-05
2.31109e-05
2.38386e-05
2.52982e-05
2.8036e-05
3.53443e-05
4.15122e-05
4.5379e-05
5.25524e-05
5.90144e-05
8.81263e-05
0.000102648
0.000159569
0.000438434
0.000550362
0.00126914
0.0017111
0.00419195
0.00898207
8.72948e-07
9.49599e-07
1.03539e-06