/*--------------------------------*- C++ -*----------------------------------*\
| =========                 |                                                 |
| \\      /  F ield         | OpenFOAM: The Open Source CFD Toolbox           |
|  \\    /   O peration     | Version:  2.3.1                                 |
|   \\  /    A nd           | Web:      www.OpenFOAM.org                      |
|    \\/     M anipulation  |                                                 |
\*---------------------------------------------------------------------------*/
FoamFile
{
    version     2.0;
    format      ascii;
    class       volScalarField;
    location    "10";
    object      epsilon;
}
// * * * * * * * * * * * * * * * * * * * * * * * * * * * * * * * * * * * * * //

dimensions      [0 2 -3 0 0 0 0];

internalField   nonuniform List<scalar> 
38262
(
0.000242294
0.000236877
0.000230236
0.000215998
0.000221926
0.000228055
0.00021981
0.00021933
0.00023186
0.000231767
0.000194927
0.000164497
0.000153826
0.000149521
0.000149992
0.000152423
0.00015859
0.000195354
0.00143679
0.0156338
0.0433212
0.0536312
0.0608372
0.0838934
0.092327
0.0943732
0.101646
0.121824
0.129265
0.140169
0.127012
0.165952
0.175129
0.202122
0.310329
0.402084
1.20108
8.36415
0.000337211
0.000324244
0.000303265
0.000308519
0.00031607
0.000299154
0.000260261
0.000194479
0.000164996
0.000164736
0.000148374
0.000146141
0.000164307
0.000198074
0.000200702
0.000188443
0.000186945
0.000210616
0.000301832
0.00185385
0.00939649
0.0179925
0.0249771
0.0387587
0.0373849
0.0417225
0.0367927
0.0339611
0.028465
0.0609703
0.0372949
0.108789
0.113923
0.132241
0.211479
0.479515
1.50313
16.6132
0.00019612
0.000176214
0.000156857
0.000143851
0.000140814
0.000125164
0.00010633
8.95491e-05
7.08024e-05
6.04832e-05
5.39178e-05
5.02414e-05
5.03674e-05
5.63067e-05
5.69144e-05
5.77063e-05
7.41274e-05
0.000150186
0.000176127
0.00029922
0.000864292
0.00205308
0.00275018
0.00445541
0.00236203
0.00299097
0.00181299
0.00169395
0.0017476
0.00843122
0.00785156
0.0322074
0.0550544
0.138432
0.17467
0.393897
0.964766
14.2807
3.82443e-05
4.29657e-05
4.49951e-05
4.48578e-05
4.51909e-05
4.34615e-05
3.85115e-05
3.61199e-05
3.35505e-05
3.0606e-05
3.14674e-05
3.30339e-05
3.28883e-05
3.21602e-05
3.34044e-05
3.98151e-05
4.40897e-05
5.84181e-05
9.69115e-05
0.000142662
0.000215723
0.000375221
0.000513372
0.000716609
0.00051632
0.000660306
0.000604629
0.000782868
0.000794601
0.00153555
0.00193641
0.0113772
0.0737609
0.0427283
0.0467903
0.138296
1.45548
14.9769
7.41606e-06
8.95601e-06
1.02233e-05
1.15527e-05
1.2056e-05
1.31143e-05
1.36888e-05
1.48153e-05
1.60657e-05
1.76009e-05
1.98089e-05
2.1068e-05
2.45757e-05
2.78424e-05
3.29337e-05
3.46098e-05
5.76761e-05
6.19023e-05
6.31036e-05
8.64546e-05
0.000130183
0.000165544
0.000223475
0.000282836
0.000260723
0.00030305
0.000520002
0.000461129
0.000868729
0.000962992
0.00111914
0.00330274
0.0263281
0.0170683
0.0290785
0.0875721
1.85044
12.9506
5.3041e-06
5.91048e-06
6.81703e-06
7.50507e-06
8.8687e-06
9.8308e-06
1.13768e-05
1.25709e-05
1.4753e-05
1.66434e-05
1.81549e-05
2.18976e-05
2.33438e-05
2.59639e-05
3.1424e-05
3.31179e-05
3.91724e-05
4.86949e-05
5.41177e-05
7.07292e-05
9.10195e-05
9.9804e-05
0.000126805
0.000143809
0.000185168
0.000219293
0.000385914
0.000421192
0.000724048
0.000765385
0.00111356
0.00164748
0.00395323
0.012558
0.0255256
0.287038
2.52554
11.0667
5.08779e-06
5.60515e-06
6.21937e-06
7.01281e-06
7.70666e-06
9.10483e-06
9.97199e-06
1.19885e-05
1.3138e-05
1.55929e-05
1.82581e-05
1.94094e-05
2.37715e-05
2.60516e-05
3.0156e-05
3.58295e-05
4.26329e-05
4.5036e-05
5.4213e-05
6.18661e-05
8.0565e-05
9.43057e-05
0.000103206
0.000116391
0.00016727
0.000249124
0.000347506
0.000480522
0.00088056
0.00119557
0.00195842
0.00442739
0.00722741
0.0189951
0.032356
0.17593
2.04492
11.6983
5.20226e-06
5.70512e-06
6.40399e-06
7.02423e-06
8.14846e-06
8.84982e-06
1.04379e-05
1.1375e-05
1.32094e-05
1.4559e-05
1.69895e-05
1.83137e-05
2.18959e-05
2.33445e-05
3.02734e-05
3.36315e-05
3.92205e-05
4.30915e-05
5.42422e-05
6.46091e-05
7.07385e-05
9.20213e-05
9.44736e-05
0.000107344
0.000212007
0.000563843
0.00118842
0.00172731
0.00220827
0.00325095
0.00696472
0.019539
0.0359176
0.0413889
0.039894
0.0901522
1.18485
12.0864
5.11103e-06
5.63075e-06
6.13156e-06
6.97476e-06
7.48336e-06
8.70217e-06
9.29562e-06
1.10632e-05
1.15826e-05
1.37268e-05
1.48207e-05
1.69517e-05
1.81952e-05
2.19493e-05
2.8326e-05
3.77052e-05
4.25356e-05
5.50413e-05
7.5556e-05
7.63849e-05
7.81952e-05
8.65175e-05
9.26261e-05
0.00010045
0.000132139
0.000255187
0.000544607
0.00101527
0.00143576
0.00176396
0.00293788
0.0047341
0.0124888
0.0198508
0.0261504
0.0408292
0.488264
10.4426
4.96548e-06
5.44245e-06
5.9655e-06
6.70452e-06
7.19511e-06
8.4171e-06
8.82908e-06
1.06004e-05
1.0984e-05
1.23942e-05
1.47431e-05
1.46312e-05
1.56684e-05
2.3679e-05
5.62419e-05
9.98991e-05
0.000169309
0.000337927
0.000321545
0.000256372
0.000197591
0.000136626
0.000133454
0.000114105
0.00019909
0.000673854
0.00121813
0.00199393
0.00232134
0.00375422
0.00557455
0.0134069
0.0212798
0.0401787
0.0762762
0.157103
0.693325
5.3589
4.42384e-06
4.91246e-06
5.219e-06
6.02096e-06
6.31994e-06
7.48202e-06
7.58821e-06
9.0733e-06
9.30089e-06
9.86412e-06
1.15803e-05
1.10061e-05
1.21279e-05
9.88934e-05
0.000341083
0.000510123
0.000934865
0.00135911
0.00209651
0.00202373
0.00170791
0.00135111
0.00145233
0.00125017
0.000621835
0.0007434
0.0011327
0.0020229
0.00259451
0.00399199
0.00575762
0.0120137
0.016078
0.0277543
0.0437287
0.0884108
0.212369
1.55647
2.91213e-06
3.20128e-06
3.3502e-06
3.77229e-06
3.87354e-06
4.5918e-06
4.52617e-06
5.51541e-06
5.59285e-06
5.77351e-06
7.0393e-06
6.46988e-06
2.11252e-05
0.00051662
0.00106014
0.00117525
0.00131571
0.00146644
0.00143511
0.00131223
0.00131066
0.00125376
0.00128962
0.00155782
0.00171987
0.00193984
0.00276709
0.0037527
0.00511458
0.00837304
0.0123649
0.0221509
0.0333248
0.0813378
0.339629
1.18383
2.86416
7.38931
0.000188199
0.000199866
0.000201316
0.00019182
0.000185621
0.000210546
0.000216643
0.000204522
0.000228614
0.000241594
0.000222139
0.000194692
0.000178894
0.000168317
0.000164954
0.00015942
0.000158203
0.000165348
0.000609455
0.00840041
0.033253
0.0418917
0.0441547
0.0560511
0.0713363
0.0736129
0.0733115
0.087405
0.105205
0.117344
0.121243
0.149605
0.157139
0.158029
0.195807
0.236785
1.50089
8.06188
0.000215947
0.000204799
0.000197456
0.000204805
0.000225731
0.000244718
0.000247009
0.000229388
0.000232562
0.000248059
0.000237987
0.0002318
0.000241579
0.000242107
0.000239566
0.000208685
0.000202203
0.00022922
0.000356288
0.00176765
0.0114668
0.0271181
0.0385608
0.0446878
0.0517838
0.0566425
0.0464657
0.0599802
0.0515782
0.0596567
0.0866151
0.127576
0.107849
0.226343
0.224008
0.390257
1.35109
29.1963
0.000149028
0.0001289
0.000110941
9.67121e-05
8.79571e-05
7.77582e-05
6.86259e-05
6.27244e-05
6.00639e-05
6.00422e-05
5.8637e-05
6.82274e-05
8.45982e-05
9.41585e-05
9.5793e-05
7.58674e-05
8.10443e-05
0.00011406
0.000185091
0.000312891
0.00121366
0.00333692
0.0056014
0.00558678
0.00493677
0.00392203
0.00239836
0.00287881
0.00316461
0.00637982
0.011534
0.0487715
0.0530573
0.132783
0.115519
0.576031
1.16835
6.43203
2.44895e-05
2.39541e-05
2.28987e-05
2.15392e-05
2.05232e-05
1.92687e-05
1.68557e-05
1.59443e-05
1.50453e-05
1.31729e-05
1.2348e-05
1.33636e-05
1.54781e-05
1.923e-05
2.62152e-05
2.60631e-05
3.27662e-05
4.84533e-05
7.72822e-05
0.00015029
0.000197708
0.000386417
0.000645961
0.000585341
0.000576032
0.000466497
0.000607523
0.00064506
0.000822003
0.00129806
0.0054643
0.0589205
0.0268956
0.0295155
0.0395113
0.249639
0.837493
6.56171
3.66649e-06
4.0235e-06
4.38627e-06
4.48679e-06
4.7235e-06
4.96309e-06
4.96281e-06
5.21381e-06
5.35747e-06
5.47366e-06
5.88135e-06
6.28959e-06
6.54479e-06
7.43477e-06
8.97709e-06
1.0505e-05
1.6185e-05
2.59083e-05
4.77315e-05
6.90956e-05
0.000136161
0.000171869
0.000184298
0.000171334
0.000204188
0.000185467
0.000289675
0.0003221
0.000371668
0.00068281
0.00154117
0.00388054
0.0126952
0.0189707
0.0281568
0.113382
0.952381
3.328
1.73168e-06
1.88913e-06
2.13372e-06
2.28554e-06
2.56128e-06
2.83975e-06
3.05156e-06
3.40551e-06
3.81373e-06
4.14777e-06
4.89537e-06
5.20942e-06
6.55689e-06
6.95068e-06
7.72801e-06
1.17329e-05
1.269e-05
1.92225e-05
2.69077e-05
3.87855e-05
7.04641e-05
7.37802e-05
7.41831e-05
8.50265e-05
9.73047e-05
0.000162654
0.000183392
0.000275987
0.000753268
0.000628329
0.00162323
0.00184194
0.00456181
0.0206796
0.0456845
0.131977
1.15688
4.90373
1.50512e-06
1.59331e-06
1.74955e-06
1.88392e-06
2.11048e-06
2.35559e-06
2.71525e-06
2.96292e-06
3.56386e-06
3.82687e-06
4.54904e-06
5.11286e-06
5.49001e-06
6.30877e-06
8.69716e-06
9.23203e-06
1.07054e-05
1.58681e-05
1.80155e-05
2.70196e-05
2.93284e-05
3.66638e-05
4.44426e-05
4.69388e-05
6.7382e-05
0.000109005
0.000246218
0.000223744
0.000977747
0.000782257
0.0029469
0.00379612
0.0110256
0.0257691
0.0605397
0.0973578
0.572314
7.30982
1.47249e-06
1.56178e-06
1.70369e-06
1.82195e-06
2.00138e-06
2.21837e-06
2.39413e-06
2.78386e-06
3.05274e-06
3.31953e-06
4.26321e-06
4.73261e-06
5.21766e-06
7.22345e-06
9.86159e-06
1.18135e-05
1.57829e-05
1.84461e-05
1.98521e-05
2.54767e-05
2.71125e-05
3.10401e-05
6.57972e-05
6.30731e-05
0.000279839
0.000481239
0.00148362
0.00169307
0.00181452
0.00281608
0.00404841
0.011661
0.0290694
0.0366989
0.0684224
0.0554105
0.337927
7.40144
1.45508e-06
1.52527e-06
1.65459e-06
1.7614e-06
1.91729e-06
2.08055e-06
2.3363e-06
2.50235e-06
3.05348e-06
3.1942e-06
4.03294e-06
4.35338e-06
5.06804e-06
7.3155e-06
1.47107e-05
2.12592e-05
3.33503e-05
5.47514e-05
5.68875e-05
4.98388e-05
4.0976e-05
3.61686e-05
4.52061e-05
4.85595e-05
8.1255e-05
0.000159612
0.000425796
0.000511949
0.000800814
0.000837874
0.00108408
0.00235139
0.00530272
0.0126903
0.0286418
0.029514
0.129343
5.63384
1.4176e-06
1.47511e-06
1.60247e-06
1.67337e-06
1.84109e-06
1.92773e-06
2.12717e-06
2.45172e-06
2.62095e-06
3.07522e-06
3.49588e-06
4.07595e-06
5.56336e-06
1.45986e-05
6.23711e-05
0.000171571
0.00039647
0.000590269
0.000548154
0.000408307
0.000314569
0.000214271
0.000182021
0.000158918
0.000264711
0.000599583
0.00119059
0.00161075
0.00187361
0.00251914
0.00345027
0.0114541
0.0195465
0.0444452
0.0634158
0.10737
0.527709
3.94429
1.35829e-06
1.39771e-06
1.51181e-06
1.55944e-06
1.74408e-06
1.81206e-06
2.0503e-06
2.21196e-06
2.52083e-06
3.10217e-06
3.26775e-06
4.30838e-06
7.30402e-06
8.70614e-05
0.00045323
0.00118906
0.00185399
0.0029697
0.0034935
0.0032583
0.00331187
0.00283394
0.00280368
0.00265641
0.00192899
0.00200587
0.00249713
0.00388681
0.005042
0.00656406
0.00900529
0.0165386
0.0181765
0.0281863
0.0436731
0.0795986
0.290927
1.82966
1.97016e-06
2.08386e-06
2.22673e-06
2.36619e-06
2.50612e-06
2.77029e-06
2.8473e-06
3.22257e-06
3.31839e-06
3.51796e-06
4.06006e-06
3.91681e-06
6.18531e-06
0.000322119
0.00112573
0.00141154
0.00163381
0.00214045
0.00224341
0.00190416
0.00193863
0.00174757
0.00142299
0.0013821
0.00148519
0.00172857
0.00241487
0.00330901
0.00435283
0.00670442
0.0103162
0.016731
0.0232798
0.0497606
0.182538
0.699523
1.78901
4.72044
0.000145437
0.000186121
0.000199454
0.000215819
0.000223874
0.000246657
0.000258125
0.000253685
0.000270479
0.000282081
0.000265928
0.000232849
0.000213404
0.00020026
0.000195836
0.000188133
0.000179821
0.000179442
0.000418646
0.00631736
0.0355915
0.0495403
0.0530394
0.0580229
0.0769401
0.0836154
0.0849716
0.0941175
0.108289
0.12504
0.135213
0.139941
0.153783
0.152297
0.144888
0.285337
2.27224
7.97159
0.000161462
0.000140539
0.000138137
0.000169128
0.000210677
0.000226556
0.000248791
0.000250626
0.000251644
0.000263276
0.000252331
0.000226334
0.000221186
0.00022206
0.000226428
0.000215057
0.000197024
0.000203451
0.000299008
0.00126821
0.0107178
0.0294555
0.0404989
0.0421623
0.0431985
0.044474
0.0419418
0.0500404
0.0347622
0.0348642
0.0490532
0.0460735
0.053549
0.0833657
0.0681242
0.392498
0.629879
5.63765
7.30865e-05
6.32828e-05
5.35367e-05
5.31155e-05
5.88523e-05
6.05556e-05
5.853e-05
5.71054e-05
5.43795e-05
5.27803e-05
4.68064e-05
4.58431e-05
5.0757e-05
5.98703e-05
7.48978e-05
7.20497e-05
7.28732e-05
7.85559e-05
0.000110982
0.000200135
0.000906157
0.00308557
0.00524012
0.00540583
0.00483218
0.00358127
0.00277425
0.00258696
0.00209287
0.00390564
0.00369402
0.0326613
0.0397319
0.0796233
0.0455135
0.318133
1.38673
2.1374
1.00352e-05
1.05025e-05
1.07241e-05
1.1142e-05
1.2111e-05
1.31493e-05
1.29632e-05
1.27915e-05
1.24811e-05
1.17704e-05
1.062e-05
1.08784e-05
1.232e-05
1.37472e-05
1.58239e-05
1.69026e-05
2.06048e-05
2.65663e-05
3.93458e-05
6.12565e-05
9.97619e-05
0.000243255
0.000464502
0.000441177
0.000475616
0.000388421
0.00042106
0.000345943
0.000662648
0.000856259
0.00206251
0.0172655
0.00769793
0.0257033
0.032619
0.134552
0.705747
1.1167
2.24811e-06
2.56201e-06
2.93588e-06
3.2671e-06
3.64647e-06
4.18881e-06
4.49665e-06
4.76236e-06
4.8599e-06
5.06125e-06
5.19748e-06
5.27837e-06
5.55521e-06
6.07993e-06
7.14191e-06
7.87728e-06
1.01928e-05
1.42064e-05
2.91663e-05
3.35024e-05
4.31024e-05
6.09039e-05
8.00542e-05
8.46133e-05
0.0001041
0.000124064
0.000132311
0.000182966
0.000245212
0.000327469
0.000625951
0.00279278
0.00322424
0.0107162
0.0176735
0.0880074
0.74954
0.361768
1.28221e-06
1.42263e-06
1.62757e-06
1.80541e-06
2.0475e-06
2.29037e-06
2.52296e-06
2.81059e-06
3.04916e-06
3.36137e-06
3.73895e-06
3.96245e-06
4.54274e-06
4.88654e-06
5.57407e-06
7.1346e-06
8.50854e-06
1.20685e-05
1.76282e-05
2.02107e-05
2.53134e-05
3.31597e-05
3.52018e-05
4.45159e-05
4.70572e-05
9.23055e-05
7.936e-05
0.000168586
0.000184544
0.000249083
0.000490952
0.0010179
0.00231058
0.0074385
0.0350886
0.0605248
0.343223
0.29693
1.08706e-06
1.16977e-06
1.28901e-06
1.43697e-06
1.59035e-06
1.86413e-06
2.06191e-06
2.32049e-06
2.64922e-06
2.84342e-06
3.26205e-06
3.62742e-06
3.83829e-06
4.4376e-06
6.11672e-06
6.83216e-06
8.00495e-06
1.08006e-05
1.31209e-05
1.69604e-05
1.78841e-05
2.01683e-05
2.7143e-05
2.9909e-05
4.76006e-05
5.40399e-05
7.30405e-05
8.72441e-05
0.000179845
0.000203852
0.000476663
0.000831596
0.00435666
0.00857151
0.0307573
0.0203043
0.0575517
0.593263
1.04394e-06
1.1166e-06
1.21795e-06
1.3242e-06
1.44246e-06
1.61846e-06
1.74491e-06
2.00579e-06
2.19941e-06
2.40303e-06
2.91729e-06
3.26557e-06
3.60973e-06
4.78637e-06
8.13816e-06
1.0171e-05
1.37056e-05
1.54885e-05
1.77783e-05
1.94795e-05
1.98344e-05
2.17989e-05
3.50929e-05
3.93906e-05
0.000117614
0.000122293
0.000156931
0.000220342
0.000219784
0.000340367
0.000668835
0.00161173
0.00720776
0.00777586
0.0356768
0.020751
0.0590443
0.811721
1.02853e-06
1.08384e-06
1.16718e-06
1.26133e-06
1.34609e-06
1.51114e-06
1.61971e-06
1.79979e-06
2.05084e-06
2.20386e-06
2.70174e-06
3.13288e-06
3.80746e-06
6.68555e-06
1.63108e-05
2.65824e-05
4.60391e-05
7.0756e-05
7.00792e-05
5.74645e-05
4.77465e-05
3.76017e-05
4.08164e-05
4.46684e-05
6.05552e-05
7.6681e-05
0.0001193
0.000142814
0.000222668
0.000282333
0.000429303
0.00111773
0.00177515
0.00586283
0.0176095
0.0162536
0.0396426
1.01911
1.0303e-06
1.07053e-06
1.1577e-06
1.20796e-06
1.31854e-06
1.38415e-06
1.52522e-06
1.68084e-06
1.81197e-06
2.13517e-06
2.47089e-06
2.97815e-06
4.77226e-06
1.75854e-05
8.38817e-05
0.000233271
0.000548689
0.000761619
0.000710399
0.00054884
0.000465382
0.000336183
0.000321305
0.000290623
0.000306194
0.000363666
0.000541473
0.000809452
0.000953922
0.00142078
0.00199134
0.00525323
0.0095103
0.0217956
0.0311137
0.0496695
0.264134
1.79258
1.10066e-06
1.12937e-06
1.2091e-06
1.25809e-06
1.36195e-06
1.46311e-06
1.64797e-06
1.71631e-06
2.0294e-06
2.29464e-06
2.6524e-06
3.89997e-06
7.92723e-06
0.000114945
0.000619616
0.00162374
0.00247278
0.00406461
0.00428478
0.00433762
0.00448882
0.00423531
0.0044845
0.00490133
0.00506035
0.00571237
0.00702496
0.00872452
0.00945996
0.0120538
0.0141992
0.0253732
0.0237883
0.026319
0.0391064
0.0754752
0.188982
1.0211
2.24882e-06
2.36084e-06
2.54669e-06
2.65239e-06
2.89345e-06
3.08296e-06
3.2226e-06
3.67071e-06
3.75124e-06
4.04151e-06
4.49213e-06
4.43208e-06
7.52487e-06
0.000423524
0.00154588
0.00201472
0.00238487
0.00308257
0.00326086
0.00294287
0.00297849
0.00278291
0.00255689
0.00290383
0.00339616
0.00397123
0.00544955
0.00708014
0.00801932
0.0112958
0.0161146
0.0242841
0.0303869
0.0560814
0.164498
0.665151
1.76315
4.08569
4.357e-05
0.000121608
0.000172335
0.000208879
0.000239114
0.000250314
0.000266233
0.000270507
0.000285961
0.000298413
0.000286754
0.000250877
0.000226691
0.000211295
0.000204012
0.000196893
0.000187293
0.000181435
0.000250373
0.00286387
0.0285926
0.0503697
0.0573063
0.0614662
0.0763088
0.0891169
0.0926466
0.0979886
0.111303
0.12311
0.125921
0.117064
0.138245
0.113356
0.0865565
0.166868
1.39053
7.11462
5.90693e-05
9.14696e-05
0.000102616
0.000138648
0.000196669
0.000216379
0.000246151
0.000269549
0.000266372
0.000275628
0.000262084
0.000226877
0.000201998
0.000191629
0.000189448
0.000184863
0.00017556
0.000173363
0.000227717
0.00064538
0.00654982
0.0240327
0.0373119
0.0390091
0.0394939
0.0419109
0.0434608
0.0493617
0.0351796
0.0348497
0.0388232
0.0289245
0.0403264
0.0309965
0.0261117
0.0887804
0.34423
1.64954
2.2588e-05
2.54337e-05
2.98005e-05
3.60274e-05
5.22354e-05
5.85958e-05
5.75396e-05
5.66364e-05
5.35406e-05
5.0542e-05
4.52459e-05
3.84095e-05
3.65335e-05
3.76049e-05
4.02834e-05
4.51529e-05
4.87146e-05
5.39908e-05
7.0346e-05
0.000112569
0.000450887
0.00196628
0.00385059
0.0045693
0.00456082
0.00372851
0.00305749
0.00291203
0.0025574
0.00220748
0.00273569
0.0147781
0.0199089
0.013773
0.0147086
0.0584048
0.714932
0.679833
4.76146e-06
5.52361e-06
6.56898e-06
7.94468e-06
9.96623e-06
1.18125e-05
1.19696e-05
1.18837e-05
1.17226e-05
1.12555e-05
1.03947e-05
1.03641e-05
1.12814e-05
1.24024e-05
1.33227e-05
1.43412e-05
1.77198e-05
2.01236e-05
2.6535e-05
3.49641e-05
5.62194e-05
0.000139243
0.000291226
0.000335793
0.000409251
0.000371729
0.000360918
0.000370218
0.000610787
0.000670219
0.000937298
0.00693869
0.00328572
0.00867492
0.00877261
0.0441994
0.303833
0.1998
1.73836e-06
1.9868e-06
2.34686e-06
2.82038e-06
3.24315e-06
3.97694e-06
4.48623e-06
4.68089e-06
4.93057e-06
5.21274e-06
5.28325e-06
5.39938e-06
5.65747e-06
6.04396e-06
6.76469e-06
7.63052e-06
9.44013e-06
1.20796e-05
1.91664e-05
2.16187e-05
2.53668e-05
3.34197e-05
4.80791e-05
6.19106e-05
7.87305e-05
0.000114896
0.00011587
0.000176082
0.000211617
0.000241888
0.000326002
0.00134824
0.00145868
0.00389827
0.0119215
0.0514685
0.13471
0.0673072
1.13634e-06
1.28084e-06
1.47819e-06
1.69907e-06
1.94387e-06
2.23152e-06
2.52396e-06
2.81295e-06
3.06252e-06
3.4303e-06
3.7065e-06
3.97087e-06
4.45659e-06
4.80682e-06
5.58755e-06
6.70031e-06
7.95086e-06
1.06078e-05
1.44319e-05
1.58167e-05
1.79366e-05
2.26782e-05
2.58554e-05
3.22526e-05
3.61541e-05
5.7508e-05
5.6683e-05
0.000102001
0.000105155
0.000223666
0.000250418
0.000546756
0.00111308
0.00279507
0.0204399
0.0254625
0.075427
0.0516764
9.77043e-07
1.07126e-06
1.19467e-06
1.36641e-06
1.52886e-06
1.82025e-06
2.02283e-06
2.29918e-06
2.58036e-06
2.80378e-06
3.17241e-06
3.50507e-06
3.74765e-06
4.35908e-06
5.86042e-06
6.85575e-06
8.09866e-06
1.06327e-05
1.28066e-05
1.5248e-05
1.60253e-05
1.78062e-05
2.18755e-05
2.65689e-05
3.66804e-05
4.01907e-05
4.95761e-05
5.70659e-05
8.17923e-05
0.000109939
0.000264699
0.000343476
0.00180172
0.00285832
0.0113175
0.00604833
0.0095347
0.0528971
9.32944e-07
1.0127e-06
1.11246e-06
1.23526e-06
1.35236e-06
1.54208e-06
1.68224e-06
1.92537e-06
2.14335e-06
2.34493e-06
2.79406e-06
3.15544e-06
3.53668e-06
4.71627e-06
8.23691e-06
1.15419e-05
1.39324e-05
1.67861e-05
1.86911e-05
1.96142e-05
1.95198e-05
2.02924e-05
2.28246e-05
2.76207e-05
5.12631e-05
5.41666e-05
5.56773e-05
6.71101e-05
7.61329e-05
0.000120137
0.000305761
0.000443402
0.0017629
0.0025626
0.0103277
0.00634632
0.0159813
0.084909
9.21688e-07
9.84525e-07
1.06306e-06
1.17094e-06
1.25261e-06
1.42967e-06
1.53502e-06
1.72329e-06
1.95554e-06
2.11752e-06
2.57583e-06
3.06108e-06
3.85293e-06
7.73121e-06
2.01705e-05
3.51161e-05
6.03454e-05
8.42499e-05
8.0732e-05
6.59174e-05
5.47798e-05
4.4548e-05
4.35102e-05
4.58902e-05
5.57363e-05
6.84569e-05
9.60797e-05
0.000113815
0.000170281
0.000236559
0.00030792
0.000995417
0.00110825
0.00226626
0.00956695
0.00853116
0.0175093
0.162354
9.41641e-07
9.89663e-07
1.06737e-06
1.13567e-06
1.22278e-06
1.31842e-06
1.46099e-06
1.56358e-06
1.77554e-06
2.03239e-06
2.39702e-06
3.02708e-06
5.08634e-06
2.71914e-05
0.000117629
0.000317423
0.000712521
0.000882347
0.000811649
0.000666732
0.00059463
0.000485907
0.000509122
0.00051825
0.000575846
0.000714548
0.00113167
0.00130701
0.00150909
0.0019004
0.00273744
0.00436286
0.00837513
0.0103831
0.0161855
0.0264873
0.124006
0.702486
1.06908e-06
1.10307e-06
1.17315e-06
1.25308e-06
1.30309e-06
1.47219e-06
1.59457e-06
1.68444e-06
2.19237e-06
2.2758e-06
2.68899e-06
4.31439e-06
1.09161e-05
0.00019497
0.000870699
0.00206128
0.00316767
0.00493168
0.00494834
0.00551514
0.00574779
0.00581982
0.00675568
0.00742218
0.00865874
0.0105161
0.0129309
0.0136835
0.0147331
0.0178786
0.0220317
0.0297856
0.0317905
0.0295581
0.0396966
0.0822601
0.164251
0.585229
2.38139e-06
2.50809e-06
2.68653e-06
2.80463e-06
3.0632e-06
3.19781e-06
3.47528e-06
3.8125e-06
3.89919e-06
4.33482e-06
4.6368e-06
4.69483e-06
1.77241e-05
0.000671607
0.00197654
0.00253853
0.0031141
0.00391132
0.00408473
0.00387375
0.00404151
0.00402857
0.0040955
0.00533327
0.00631317
0.00752402
0.00993482
0.0114177
0.0122583
0.0163505
0.0220684
0.0294989
0.0345228
0.0579555
0.131586
0.505417
1.62989
3.36745
7.2339e-06
1.94902e-05
7.89399e-05
0.000172974
0.00023904
0.000250853
0.000262492
0.000273607
0.0002963
0.000312601
0.000305598
0.000266739
0.000237035
0.00021885
0.000207659
0.000200553
0.000191624
0.000185984
0.000194406
0.000660935
0.0099551
0.0352543
0.049933
0.0629088
0.0785412
0.0927503
0.0986151
0.101822
0.111073
0.117289
0.115479
0.108926
0.109026
0.0738642
0.0650348
0.153385
1.38351
5.64303
1.82834e-05
2.32232e-05
4.08961e-05
7.85487e-05
0.000163492
0.000215366
0.000259009
0.000296929
0.000295167
0.000304983
0.000286205
0.000242514
0.000208817
0.000190917
0.000176899
0.00016735
0.000158453
0.000156379
0.000187277
0.000326959
0.00192494
0.0104721
0.0233022
0.0337491
0.038501
0.0419339
0.0479882
0.0546077
0.0403771
0.0390214
0.0380786
0.025582
0.0283622
0.0155297
0.0170134
0.0330564
0.298603
0.983814
1.03808e-05
1.10869e-05
1.39074e-05
1.96154e-05
3.15069e-05
4.6034e-05
4.71463e-05
5.11233e-05
5.28116e-05
5.15189e-05
4.78837e-05
4.13075e-05
3.65418e-05
3.48505e-05
3.39992e-05
3.49765e-05
3.70531e-05
4.15871e-05
5.27868e-05
7.87979e-05
0.000178979
0.000717168
0.00183002
0.00307644
0.00432942
0.00403519
0.00371358
0.00382405
0.00328565
0.00256346
0.00252222
0.00514483
0.00863453
0.00527387
0.00751768
0.0292799
0.362437
0.316368
3.00572e-06
3.4978e-06
4.37015e-06
5.65983e-06
7.25007e-06
9.22089e-06
9.82124e-06
1.01133e-05
1.07723e-05
1.08511e-05
1.06743e-05
1.06767e-05
1.11607e-05
1.2039e-05
1.29109e-05
1.3784e-05
1.63294e-05
1.87138e-05
2.36689e-05
2.95387e-05
4.17218e-05
7.56576e-05
0.000151237
0.000225924
0.000356768
0.000371397
0.000391719
0.000472516
0.000650021
0.00058987
0.000730361
0.00189373
0.00161315
0.0025618
0.00431244
0.0161102
0.108752
0.103065
1.47397e-06
1.69145e-06
2.02468e-06
2.50391e-06
2.95292e-06
3.76191e-06
4.4083e-06
4.65382e-06
5.04745e-06
5.45289e-06
5.58303e-06
5.75736e-06
6.08907e-06
6.48936e-06
7.19467e-06
8.05703e-06
9.4899e-06
1.18778e-05
1.68827e-05
1.91434e-05
2.2185e-05
2.75085e-05
3.76733e-05
5.08161e-05
7.20154e-05
0.000110004
0.000118994
0.00018427
0.000201745
0.000298519
0.000309076
0.000643736
0.000795999
0.00297915
0.00564238
0.0265818
0.0349239
0.0264416
1.05944e-06
1.21215e-06
1.41204e-06
1.66038e-06
1.923e-06
2.25306e-06
2.60464e-06
2.92052e-06
3.23367e-06
3.64129e-06
3.94031e-06
4.2475e-06
4.72771e-06
5.14277e-06
6.02889e-06
7.12705e-06
8.39345e-06
1.06099e-05
1.36803e-05
1.51914e-05
1.67839e-05
2.06533e-05
2.40241e-05
2.96151e-05
3.40631e-05
5.08973e-05
5.32398e-05
8.34081e-05
9.23729e-05
0.00019147
0.000179054
0.000656723
0.000700953
0.00151983
0.00819992
0.0114249
0.0241908
0.0241694
9.32826e-07
1.03722e-06
1.17174e-06
1.3597e-06
1.54363e-06
1.84858e-06
2.09156e-06
2.38272e-06
2.68156e-06
2.94593e-06
3.32526e-06
3.67943e-06
3.98724e-06
4.67747e-06
6.11806e-06
7.43363e-06
8.84416e-06
1.12204e-05
1.34681e-05
1.53937e-05
1.6262e-05
1.84386e-05
2.13936e-05
2.6717e-05
3.34715e-05
3.7993e-05
4.54296e-05
5.20744e-05
6.86761e-05
9.23122e-05
0.000171839
0.000217069
0.000850248
0.00126608
0.00393224
0.00305649
0.00454604
0.0146568
8.91542e-07
9.79186e-07
1.08469e-06
1.22152e-06
1.34691e-06
1.55239e-06
1.71864e-06
1.96964e-06
2.23317e-06
2.4581e-06
2.91791e-06
3.32193e-06
3.78346e-06
5.14069e-06
8.89122e-06
1.32049e-05
1.49987e-05
1.82963e-05
2.00892e-05
2.10254e-05
2.09575e-05
2.15431e-05
2.28627e-05
2.61768e-05
3.72633e-05
4.48006e-05
4.60053e-05
5.62e-05
6.05165e-05
8.97725e-05
0.000151879
0.00022766
0.000730911
0.00104845
0.00300475
0.00269036
0.0075421
0.0220372
8.85269e-07
9.56116e-07
1.03792e-06
1.15675e-06
1.2442e-06
1.43338e-06
1.55199e-06
1.75242e-06
2.02446e-06
2.20241e-06
2.69442e-06
3.23991e-06
4.21116e-06
9.90038e-06
2.72497e-05
4.52014e-05
7.68504e-05
9.23681e-05
8.64136e-05
7.14962e-05
6.13272e-05
5.30254e-05
5.38454e-05
5.66584e-05
6.68758e-05
8.43209e-05
0.000125046
0.00013792
0.000188285
0.000217502
0.000304103
0.00056579
0.000733911
0.00126208
0.00535326
0.00405343
0.0091261
0.0456004
9.15768e-07
9.72772e-07
1.04631e-06
1.13307e-06
1.20399e-06
1.33967e-06
1.46746e-06
1.58344e-06
1.88476e-06
2.07539e-06
2.55058e-06
3.30359e-06
6.17364e-06
5.02389e-05
0.000186021
0.000413207
0.000887328
0.000976408
0.000878593
0.000793887
0.000727509
0.000677637
0.000752604
0.000803456
0.000962556
0.00118854
0.00176497
0.00182678
0.00214754
0.00245118
0.00371616
0.00404135
0.00684029
0.00903285
0.0112142
0.0166497
0.065879
0.270463
1.06829e-06
1.11064e-06
1.17418e-06
1.26949e-06
1.30901e-06
1.49257e-06
1.57305e-06
1.71382e-06
2.27762e-06
2.3493e-06
2.93065e-06
4.81154e-06
2.22245e-05
0.00038608
0.0012706
0.00242962
0.00396733
0.00561597
0.00565121
0.00683562
0.00704361
0.00761972
0.00933792
0.0100877
0.01196
0.0146337
0.0172648
0.0175123
0.0191057
0.0225434
0.0289962
0.0306703
0.0374293
0.0350017
0.0430992
0.078673
0.161814
0.366601
2.44169e-06
2.58218e-06
2.73273e-06
2.91861e-06
3.09316e-06
3.29411e-06
3.58246e-06
3.77348e-06
3.99332e-06
4.52126e-06
4.66086e-06
5.0099e-06
7.35946e-05
0.00114789
0.00241207
0.00299849
0.00389243
0.00468371
0.00483431
0.00478172
0.00524939
0.00549639
0.0062186
0.00820622
0.00954982
0.0116559
0.0145056
0.0156579
0.0166028
0.0212125
0.0273097
0.032743
0.0369409
0.0571222
0.109881
0.324456
1.22898
2.85908
3.79357e-06
8.09845e-06
1.41551e-05
6.15993e-05
0.000219566
0.000248633
0.000258152
0.00028497
0.000316624
0.00033995
0.000335269
0.000287141
0.000252442
0.000231291
0.000217862
0.000210193
0.000201809
0.000197512
0.000195376
0.0002431
0.00167902
0.0101977
0.0236249
0.0543078
0.0856048
0.0963011
0.10271
0.105582
0.110026
0.114337
0.113191
0.102421
0.0825851
0.0560629
0.0616237
0.222568
1.5167
4.55111
7.95844e-06
1.02667e-05
1.51191e-05
3.20342e-05
8.95667e-05
0.000174645
0.00024817
0.000349592
0.000363905
0.00036283
0.000333868
0.000279909
0.000238744
0.000211928
0.000191807
0.000178272
0.00016663
0.000164587
0.000183507
0.000245452
0.000553788
0.00235982
0.00735667
0.0190613
0.036769
0.0442962
0.0529677
0.0615547
0.049918
0.0465606
0.0507402
0.0334168
0.0223279
0.0109084
0.0103487
0.0182518
0.151947
0.795628
5.07538e-06
5.60794e-06
6.96199e-06
9.77204e-06
1.59313e-05
2.62851e-05
3.14901e-05
4.62804e-05
5.67689e-05
5.80503e-05
5.57177e-05
4.97327e-05
4.36169e-05
4.02547e-05
3.8255e-05
3.79308e-05
3.9019e-05
4.25304e-05
5.19171e-05
7.48492e-05
0.000119004
0.000245943
0.000585565
0.00144939
0.00342217
0.00456079
0.00460735
0.0051042
0.00446862
0.00322237
0.00326834
0.00308049
0.00368847
0.00262513
0.00334163
0.00949094
0.0927598
0.152836
2.08153e-06
2.54908e-06
3.13937e-06
4.15947e-06
5.40344e-06
7.18664e-06
8.40725e-06
9.50019e-06
1.08839e-05
1.17181e-05
1.19307e-05
1.20695e-05
1.25199e-05
1.30748e-05
1.38593e-05
1.4692e-05
1.68203e-05
1.91841e-05
2.35613e-05
2.8971e-05
3.93057e-05
5.72407e-05
9.56496e-05
0.000161054
0.000311206
0.000438889
0.00050093
0.000688821
0.000739507
0.000700237
0.000724842
0.00089562
0.00109411
0.00186891
0.00200224
0.00621466
0.0271141
0.0265586
1.291e-06
1.51651e-06
1.8467e-06
2.31687e-06
2.80802e-06
3.67585e-06
4.43073e-06
4.82535e-06
5.35395e-06
5.86536e-06
6.08565e-06
6.34091e-06
6.74961e-06
7.17664e-06
7.93723e-06
8.87242e-06
1.01445e-05
1.24188e-05
1.65439e-05
1.88691e-05
2.19269e-05
2.68284e-05
3.52148e-05
4.72399e-05
7.0267e-05
0.000117413
0.0001406
0.000223577
0.000236637
0.000327482
0.000301403
0.000757352
0.000619252
0.00189219
0.00274159
0.0109673
0.0147249
0.0121849
1.00742e-06
1.16862e-06
1.38237e-06
1.6507e-06
1.93878e-06
2.31624e-06
2.71889e-06
3.08183e-06
3.4645e-06
3.90572e-06
4.25771e-06
4.61242e-06
5.10667e-06
5.61236e-06
6.57461e-06
7.77831e-06
9.15367e-06
1.11342e-05
1.39019e-05
1.55827e-05
1.71716e-05
2.08833e-05
2.426e-05
2.96092e-05
3.50552e-05
5.00058e-05
5.69354e-05
8.09366e-05
9.72847e-05
0.000146593
0.000154106
0.000326585
0.000404518
0.000801486
0.00270012
0.00475669
0.010081
0.00814355
9.1016e-07
1.0228e-06
1.16866e-06
1.36884e-06
1.57802e-06
1.89699e-06
2.18102e-06
2.49143e-06
2.82335e-06
3.12896e-06
3.53814e-06
3.93609e-06
4.3344e-06
5.15927e-06
6.54641e-06
8.12063e-06
9.77314e-06
1.21212e-05
1.43868e-05
1.62088e-05
1.72453e-05
1.9795e-05
2.24567e-05
2.73858e-05
3.25043e-05
3.89192e-05
4.70087e-05
5.42409e-05
7.15915e-05
9.25784e-05
0.000139691
0.000179035
0.000603694
0.000729552
0.00152712
0.00200895
0.00331017
0.00630532
8.74193e-07
9.68275e-07
1.07999e-06
1.22631e-06
1.3658e-06
1.58635e-06
1.78053e-06
2.0502e-06
2.35631e-06
2.61909e-06
3.11598e-06
3.59099e-06
4.16601e-06
5.8112e-06
9.67533e-06
1.4068e-05
1.60582e-05
1.977e-05
2.18891e-05
2.30152e-05
2.31001e-05
2.38289e-05
2.52912e-05
2.80356e-05
3.53554e-05
4.15421e-05
4.54166e-05
5.2624e-05
5.90716e-05
8.82132e-05
0.000102788
0.000159674
0.000437968
0.000550284
0.00127039
0.0017144
0.00419758
0.00898169
8.72985e-07
9.49645e-07
1.03543e-06