/*--------------------------------*- C++ -*----------------------------------*\
| =========                 |                                                 |
| \\      /  F ield         | OpenFOAM: The Open Source CFD Toolbox           |
|  \\    /   O peration     | Version:  2.3.1                                 |
|   \\  /    A nd           | Web:      www.OpenFOAM.org                      |
|    \\/     M anipulation  |                                                 |
\*---------------------------------------------------------------------------*/
FoamFile
{
    version     2.0;
    format      ascii;
    class       volScalarField;
    location    "10";
    object      k;
}
// * * * * * * * * * * * * * * * * * * * * * * * * * * * * * * * * * * * * * //

dimensions      [0 2 -2 0 0 0 0];

internalField   nonuniform List<scalar> 
38262
(
0.000226003
0.000222607
0.000218413
0.000209326
0.000213161
0.000217063
0.000211796
0.000211489
0.000219451
0.000219381
0.000195441
0.000174568
0.000166953
0.00016383
0.000164177
0.000165944
0.00017046
0.000197993
0.000764199
0.00370903
0.00719706
0.0082698
0.00900852
0.0111335
0.0118313
0.0119987
0.0126225
0.0142153
0.0147634
0.0155965
0.014594
0.0174406
0.0180854
0.0198851
0.0264078
0.0313528
0.0655187
0.240779
0.000281762
0.000274479
0.000262493
0.000265527
0.000269838
0.000260128
0.000237101
0.000195262
0.000174944
0.000174715
0.000162942
0.00016131
0.00017443
0.000197562
0.000199308
0.000191111
0.000190106
0.0002059
0.000264762
0.000900187
0.00261829
0.00401031
0.00498744
0.00667663
0.00651173
0.00699097
0.0064202
0.00607931
0.00538957
0.0089777
0.00647973
0.0132582
0.0136597
0.0150463
0.0205091
0.0354687
0.0762291
0.382071
0.000196362
0.000182821
0.000169171
0.000159688
0.000157424
0.000145531
0.000130536
0.000116442
9.95567e-05
8.96155e-05
8.30026e-05
7.91863e-05
7.93195e-05
8.54618e-05
8.60954e-05
8.69019e-05
0.000102723
0.000164483
0.000183036
0.00026242
0.000534531
0.000946039
0.00114577
0.00157929
0.00103365
0.00120571
0.000863967
0.000825451
0.000844272
0.00241946
0.00230179
0.0058804
0.00838325
0.015476
0.0179976
0.0310867
0.0567975
0.345692
6.607e-05
7.13857e-05
7.36079e-05
7.34548e-05
7.38117e-05
7.19162e-05
6.63436e-05
6.35681e-05
6.05226e-05
5.6923e-05
5.79835e-05
5.99021e-05
5.97295e-05
5.88423e-05
6.03435e-05
6.78298e-05
7.26068e-05
8.76145e-05
0.000122828
0.000159095
0.000210034
0.000303917
0.000373896
0.000467017
0.0003751
0.000441005
0.000416304
0.000495039
0.00049952
0.000774342
0.000907865
0.00295226
0.0101751
0.00710716
0.00749204
0.0154185
0.0757279
0.355625
2.21342e-05
2.50993e-05
2.74124e-05
2.97391e-05
3.05953e-05
3.23591e-05
3.32975e-05
3.50994e-05
3.70483e-05
3.93717e-05
4.26002e-05
4.43855e-05
4.91814e-05
5.3446e-05
5.97957e-05
6.17949e-05
8.68573e-05
9.10891e-05
9.22779e-05
0.000113756
0.000149553
0.000175648
0.000214433
0.000251029
0.000237688
0.000262575
0.000376692
0.00034762
0.000529813
0.00056836
0.00062842
0.00129161
0.00513604
0.0038641
0.00547502
0.0113811
0.0892053
0.325929
1.76981e-05
1.90224e-05
2.09213e-05
2.23059e-05
2.4932e-05
2.6704e-05
2.94351e-05
3.14596e-05
3.50011e-05
3.79341e-05
4.01951e-05
4.55452e-05
4.75314e-05
5.10176e-05
5.79494e-05
6.00099e-05
6.71101e-05
7.76213e-05
8.32687e-05
9.9509e-05
0.000117799
0.000125272
0.000146928
0.000159804
0.00018905
0.000211592
0.000308349
0.000326961
0.000469404
0.000487078
0.000625946
0.000813617
0.00145765
0.00315251
0.0050214
0.0256023
0.108524
0.289171
1.72132e-05
1.83612e-05
1.96792e-05
2.13197e-05
2.27032e-05
2.53728e-05
2.69592e-05
3.04812e-05
3.23995e-05
3.6317e-05
4.03505e-05
4.20275e-05
4.81058e-05
5.11368e-05
5.63766e-05
6.32397e-05
7.10281e-05
7.36734e-05
8.33533e-05
9.10214e-05
0.00010855
0.000120585
0.000128075
0.000138708
0.000176568
0.000230398
0.0002878
0.000357003
0.000534436
0.000655803
0.000911109
0.00157162
0.00217907
0.00413544
0.0058983
0.0187823
0.0953462
0.297445
1.74704e-05
1.85787e-05
2.00669e-05
2.13422e-05
2.35632e-05
2.48964e-05
2.7792e-05
2.94318e-05
3.25159e-05
3.46942e-05
3.84568e-05
4.04292e-05
4.55445e-05
4.75291e-05
5.65231e-05
6.06375e-05
6.71845e-05
7.1531e-05
8.33695e-05
9.37015e-05
9.95304e-05
0.000118622
0.000120738
0.000131461
0.000206595
0.000396705
0.000652719
0.000837063
0.000986451
0.00127732
0.00212641
0.0042268
0.00632374
0.00694504
0.00680222
0.0120773
0.0674972
0.306187
1.72653e-05
1.8417e-05
1.94932e-05
2.12421e-05
2.22625e-05
2.46185e-05
2.57251e-05
2.88914e-05
2.97886e-05
3.33586e-05
3.51094e-05
3.83997e-05
4.02532e-05
4.56169e-05
5.40855e-05
6.54518e-05
7.09252e-05
8.4129e-05
0.000103963
0.000104759
0.00010641
0.000113849
0.000119136
0.000125774
0.0001509
0.000233723
0.000387712
0.000586935
0.000739925
0.000848611
0.00119294
0.00164213
0.00312937
0.00425348
0.00511266
0.00696775
0.0384187
0.28378
1.69359e-05
1.80039e-05
1.91395e-05
2.06897e-05
2.16867e-05
2.40778e-05
2.48567e-05
2.80794e-05
2.87532e-05
3.11591e-05
3.4988e-05
3.48094e-05
3.64258e-05
4.8026e-05
8.54968e-05
0.000125321
0.000178154
0.000282159
0.000273002
0.000234734
0.000197374
0.000154342
0.000151962
0.000136927
0.000198265
0.000446911
0.00066321
0.000920713
0.00101871
0.00140335
0.00182745
0.0032791
0.00446289
0.00683434
0.010499
0.0172039
0.0474797
0.188322
1.56805e-05
1.68153e-05
1.75075e-05
1.92581e-05
1.98902e-05
2.22599e-05
2.24694e-05
2.53119e-05
2.57346e-05
2.67612e-05
2.97811e-05
2.87875e-05
3.07435e-05
0.00012486
0.000284152
0.000371647
0.000556389
0.000714058
0.000952915
0.000930561
0.000831121
0.00071054
0.000745794
0.000675076
0.0004238
0.000477146
0.000631641
0.000929695
0.00109728
0.00146194
0.00186604
0.00304666
0.00369576
0.00531757
0.0072156
0.0115914
0.0209649
0.0783742
1.18658e-05
1.2639e-05
1.30279e-05
1.41005e-05
1.43513e-05
1.60753e-05
1.59214e-05
1.81638e-05
1.83345e-05
1.87251e-05
2.13698e-05
2.02014e-05
4.47211e-05
0.000375547
0.000604896
0.000647766
0.000698702
0.000750967
0.00073996
0.000697064
0.000696421
0.000675932
0.000688752
0.000780923
0.000833663
0.000903109
0.00114422
0.00140213
0.00172406
0.00239454
0.00310549
0.00458607
0.00605449
0.0111474
0.0289715
0.0653427
0.116811
0.219725
0.000303158
0.000315545
0.000317057
0.000306983
0.000300369
0.000326711
0.000332958
0.000320406
0.000345118
0.00035803
0.00033852
0.000310045
0.00029306
0.000281395
0.000277631
0.000271381
0.00027001
0.000279113
0.000683861
0.00391702
0.00959309
0.0111326
0.0115249
0.0135494
0.0158338
0.0161434
0.0160995
0.0181295
0.0204766
0.0219941
0.022469
0.0258494
0.0266983
0.026774
0.03093
0.0354594
0.121499
0.371905
0.000388303
0.000388605
0.000381808
0.000390121
0.000408186
0.000429359
0.000433992
0.000393963
0.000376943
0.000384729
0.000368951
0.000366605
0.000391959
0.00040551
0.000410418
0.000373216
0.000355251
0.000391883
0.000522683
0.00133224
0.00437322
0.00833804
0.0110062
0.0126808
0.0142403
0.0152742
0.0129409
0.0153511
0.0137332
0.0148536
0.0193287
0.0249302
0.0228386
0.0357461
0.0350416
0.0448404
0.0988146
0.814172
0.000252759
0.000239443
0.000225697
0.000210507
0.000204094
0.000190388
0.000173065
0.0001621
0.000142924
0.000135856
0.00012691
0.000138091
0.000153621
0.000168615
0.000177821
0.000151629
0.000157271
0.000198155
0.000301827
0.00043641
0.000840064
0.00154615
0.00236158
0.00246206
0.00225706
0.00189055
0.001289
0.00151054
0.00180323
0.00257139
0.00436841
0.0117983
0.0109152
0.0218347
0.0224355
0.0684542
0.090903
0.38657
5.82207e-05
6.01091e-05
6.09708e-05
6.10677e-05
6.21445e-05
6.16251e-05
5.92396e-05
5.89411e-05
5.72396e-05
5.53351e-05
5.59306e-05
5.83766e-05
5.93955e-05
6.32043e-05
7.98318e-05
8.87556e-05
0.000104705
0.000121602
0.00015793
0.000262486
0.000300777
0.000414952
0.000542487
0.000517974
0.000522301
0.00051328
0.000686999
0.000819143
0.00109684
0.0016193
0.00381734
0.016702
0.0108896
0.00816633
0.0103106
0.037824
0.0638205
0.213222
2.50409e-05
2.58629e-05
2.78114e-05
2.86159e-05
3.0613e-05
3.29925e-05
3.44318e-05
3.89219e-05
4.10312e-05
4.39931e-05
4.84879e-05
5.05446e-05
5.41063e-05
6.16276e-05
6.81817e-05
7.97072e-05
0.000127027
0.000124663
0.000120321
0.000141581
0.000248041
0.000301249
0.00032305
0.000323783
0.000370996
0.00039337
0.000607235
0.000605664
0.000767896
0.00112128
0.00170423
0.00319465
0.00550013
0.00597509
0.00790009
0.0172365
0.0622102
0.141933
2.39759e-05
2.52684e-05
2.75243e-05
2.92081e-05
3.18505e-05
3.51453e-05
3.71754e-05
4.10922e-05
4.47081e-05
4.75073e-05
5.41608e-05
5.65083e-05
6.00986e-05
6.83522e-05
7.16539e-05
8.52697e-05
9.32071e-05
0.000129692
0.000132782
0.000148149
0.000195626
0.000188221
0.000199437
0.000207556
0.000265281
0.000320498
0.000478479
0.000539223
0.000985166
0.000834806
0.00173459
0.0016495
0.00318465
0.00703119
0.00970715
0.0156897
0.0672239
0.190329
2.25861e-05
2.36244e-05
2.56592e-05
2.71203e-05
3.02151e-05
3.24052e-05
3.69221e-05
3.93736e-05
4.51266e-05
4.74427e-05
5.29635e-05
5.77172e-05
6.01759e-05
6.53333e-05
8.13583e-05
8.48488e-05
9.11737e-05
0.000114912
0.000124422
0.000138771
0.000152184
0.000162257
0.000186762
0.000190302
0.000282283
0.000354752
0.000583647
0.000575901
0.00122348
0.00106936
0.0022673
0.00267307
0.00556383
0.00755397
0.0133537
0.016675
0.0398658
0.258333
2.26746e-05
2.37713e-05
2.54989e-05
2.69836e-05
2.901e-05
3.16963e-05
3.33754e-05
3.78093e-05
3.96237e-05
4.25431e-05
5.05187e-05
5.39451e-05
5.69323e-05
7.05172e-05
8.87958e-05
8.89409e-05
9.89648e-05
0.000104854
0.000117634
0.000119583
0.00013504
0.000151421
0.000240678
0.000198704
0.00034591
0.000554282
0.00118946
0.00128929
0.00137334
0.00182804
0.00244117
0.00454498
0.00788218
0.00920821
0.0149728
0.0119159
0.0272199
0.256534
2.19421e-05
2.26826e-05
2.43409e-05
2.52476e-05
2.74015e-05
2.85937e-05
3.12784e-05
3.29874e-05
3.72402e-05
3.88327e-05
4.5551e-05
4.7049e-05
5.16428e-05
6.82898e-05
7.98972e-05
8.48668e-05
9.30454e-05
0.000110745
0.000124817
0.000122609
0.000125964
0.000132201
0.000160204
0.000166587
0.000189612
0.000254664
0.000459609
0.000527311
0.000709254
0.000766741
0.000937458
0.00152298
0.00237089
0.00402765
0.00776123
0.00941806
0.0180159
0.204578
2.07156e-05
2.13001e-05
2.27415e-05
2.33642e-05
2.52115e-05
2.59041e-05
2.74567e-05
3.13043e-05
3.16279e-05
3.60564e-05
3.87059e-05
4.00876e-05
4.83359e-05
6.88354e-05
0.000118864
0.000229816
0.000409115
0.000610377
0.000585296
0.000485409
0.00040114
0.000303265
0.000286412
0.000233878
0.000321326
0.000563933
0.00092862
0.00117164
0.00133629
0.00180878
0.00225648
0.00495741
0.00728827
0.0119947
0.0166099
0.0221852
0.0458328
0.163411
1.75946e-05
1.78746e-05
1.90275e-05
1.91795e-05
2.10161e-05
2.11204e-05
2.23414e-05
2.50523e-05
2.40464e-05
2.97071e-05
2.86186e-05
3.09363e-05
4.22582e-05
0.000158107
0.000494257
0.00105533
0.00157172
0.00237595
0.00278351
0.0026775
0.00259954
0.00226038
0.00224071
0.00206467
0.00144324
0.0014705
0.00173376
0.00245352
0.00312743
0.00379333
0.00501754
0.00784374
0.00666156
0.00817117
0.011988
0.0199503
0.0438561
0.119588
1.45156e-05
1.50688e-05
1.57501e-05
1.64011e-05
1.70411e-05
1.82193e-05
1.85551e-05
2.01515e-05
2.05493e-05
2.13635e-05
2.35063e-05
2.29497e-05
3.12534e-05
0.00043564
0.000999716
0.00116192
0.00128148
0.00153387
0.00158227
0.00141836
0.0014357
0.00133875
0.00116727
0.00114471
0.00119991
0.0013273
0.00165849
0.00204603
0.00245693
0.00327719
0.00436775
0.00603279
0.00754699
0.0126975
0.0305063
0.0735109
0.13562
0.259047
0.000255272
0.000300905
0.000315122
0.000332131
0.000340324
0.000363077
0.000374223
0.000369907
0.00038607
0.000397012
0.00038169
0.000349343
0.000329627
0.000315953
0.000311278
0.00030304
0.000294062
0.000294123
0.000530193
0.00325933
0.0100691
0.0124533
0.0130154
0.0138493
0.0166794
0.017581
0.0177609
0.0190424
0.0208885
0.0229462
0.0241707
0.024728
0.0263131
0.0261324
0.0253199
0.0404847
0.161048
0.369431
0.000315589
0.000292576
0.0002968
0.000340752
0.000392752
0.00042895
0.000472209
0.000476114
0.000470561
0.00047638
0.000456099
0.000413527
0.000406813
0.000411514
0.000426525
0.000416454
0.000387047
0.000402455
0.000511985
0.00115354
0.00418946
0.00884619
0.0115001
0.0124765
0.0131565
0.0133819
0.0127924
0.0146429
0.0112419
0.0107236
0.01329
0.0126645
0.0144578
0.0186156
0.0160447
0.0527962
0.0684739
0.309103
0.000160368
0.000151662
0.000143046
0.000145033
0.000159057
0.000165682
0.00016195
0.000160116
0.000154648
0.00014876
0.000133008
0.000128428
0.000134718
0.000145433
0.000173459
0.000172026
0.000177411
0.000192433
0.000251434
0.000371835
0.000713076
0.00142909
0.00225706
0.00244857
0.00226266
0.00180455
0.00152555
0.00145352
0.0015019
0.00229473
0.0024419
0.00917141
0.0098413
0.0172579
0.012146
0.0440821
0.115884
0.154736
5.1417e-05
5.19372e-05
5.41194e-05
5.57915e-05
6.03341e-05
6.30506e-05
6.3919e-05
6.63118e-05
6.65689e-05
6.74424e-05
6.8962e-05
7.30642e-05
7.82777e-05
8.07347e-05
8.79311e-05
9.59633e-05
0.000111506
0.000125891
0.000155489
0.000198811
0.000241651
0.000334721
0.000444922
0.000437146
0.000484722
0.000485736
0.000594604
0.000608488
0.00104804
0.00129767
0.00249252
0.00827433
0.00497219
0.00882239
0.0107127
0.0258164
0.0656687
0.0711834
3.32241e-05
3.47939e-05
3.80709e-05
3.99589e-05
4.43083e-05
4.79724e-05
5.11326e-05
5.61917e-05
5.83852e-05
6.29204e-05
6.70196e-05
6.89516e-05
7.39051e-05
7.97493e-05
8.98799e-05
9.84145e-05
0.000120648
0.00013157
0.000154727
0.000161683
0.000187732
0.000218618
0.000254638
0.000285002
0.000308918
0.000410421
0.000455553
0.00057862
0.00074155
0.000850944
0.00128707
0.00337462
0.00325376
0.00491394
0.00672263
0.0154936
0.0674597
0.0341029
3.07836e-05
3.29597e-05
3.62425e-05
3.89609e-05
4.31039e-05
4.67676e-05
5.04813e-05
5.50859e-05
5.8851e-05
6.39049e-05
6.92981e-05
7.29845e-05
7.97795e-05
8.48538e-05
9.24989e-05
0.000106353
0.000119142
0.000149111
0.000163913
0.000168797
0.000186832
0.000197403
0.000208631
0.000238196
0.000254604
0.000388871
0.000381409
0.000557811
0.000592158
0.000702372
0.00110563
0.00155676
0.00282911
0.00412904
0.00904404
0.0122236
0.0315328
0.0242707
2.86322e-05
3.04958e-05
3.31481e-05
3.60408e-05
3.96655e-05
4.41857e-05
4.83063e-05
5.30011e-05
5.80428e-05
6.1855e-05
6.75068e-05
7.30819e-05
7.60409e-05
8.34671e-05
0.000102182
0.000108938
0.000118259
0.000139375
0.00015528
0.000167355
0.000175636
0.000182589
0.000216586
0.000226943
0.000315721
0.000326984
0.000382836
0.000425004
0.000571034
0.000622321
0.000952462
0.00129416
0.00343049
0.00400566
0.00874858
0.00676201
0.00963325
0.0374623
2.82148e-05
2.99281e-05
3.22328e-05
3.45434e-05
3.73619e-05
4.0676e-05
4.34681e-05
4.84937e-05
5.13902e-05
5.57184e-05
6.28593e-05
6.74296e-05
7.14729e-05
8.5225e-05
0.00011611
0.000121379
0.000132805
0.000135422
0.000144991
0.000153976
0.000163132
0.000177745
0.000247772
0.000247361
0.000287476
0.000308378
0.000381747
0.000434376
0.00046309
0.000589048
0.000904361
0.00144664
0.00349846
0.00359053
0.00989744
0.00730582
0.0103928
0.0494127
2.69809e-05
2.826e-05
3.02115e-05
3.19306e-05
3.42429e-05
3.69611e-05
3.90872e-05
4.29357e-05
4.59879e-05
4.88373e-05
5.60881e-05
6.04724e-05
6.72566e-05
9.23232e-05
0.000115018
0.000120995
0.000131289
0.000148784
0.000161338
0.000161441
0.000166015
0.000170482
0.000192964
0.00020682
0.000216353
0.000231532
0.000297364
0.000331483
0.000416879
0.000508539
0.000685775
0.00128622
0.00160678
0.00318083
0.00631072
0.00684078
0.0115874
0.0605157
2.51006e-05
2.59734e-05
2.77933e-05
2.87108e-05
3.09702e-05
3.20088e-05
3.42185e-05
3.73829e-05
3.81823e-05
4.30808e-05
4.61778e-05
4.90588e-05
6.07725e-05
8.84982e-05
0.000153694
0.000309206
0.000557042
0.000808782
0.000775021
0.000655953
0.00058173
0.000456199
0.000445554
0.00040936
0.00041395
0.000454543
0.000603396
0.000800217
0.000915733
0.00126412
0.00164496
0.00337245
0.00522326
0.00904124
0.0120785
0.0165974
0.0381234
0.112827
2.10204e-05
2.14437e-05
2.27788e-05
2.31613e-05
2.51561e-05
2.54152e-05
2.77198e-05
2.85589e-05
2.8627e-05
3.33241e-05
3.28257e-05
3.71984e-05
5.46865e-05
0.000195917
0.000621552
0.0013517
0.00206683
0.00325589
0.00348169
0.00350166
0.00346364
0.00323561
0.00333437
0.00343207
0.00342841
0.00367478
0.00427946
0.00499773
0.00535513
0.00645571
0.00747252
0.0112791
0.0100437
0.00975589
0.012942
0.021045
0.0368923
0.0993755
1.5854e-05
1.63761e-05
1.72249e-05
1.76983e-05
1.87549e-05
1.95658e-05
2.01515e-05
2.19787e-05
2.22995e-05
2.34336e-05
2.51464e-05
2.49209e-05
3.56227e-05
0.000522746
0.00123521
0.00147304
0.00164887
0.00195604
0.00203018
0.00189584
0.00191122
0.00182569
0.00172534
0.00187753
0.00208244
0.00231066
0.0028531
0.00339632
0.00369069
0.00463951
0.00587969
0.00772948
0.00899902
0.0136708
0.0284843
0.0714962
0.134372
0.234846
0.000114202
0.000226546
0.000285915
0.000325023
0.000355619
0.000366646
0.000382023
0.000386093
0.000400673
0.000412207
0.000401384
0.000367164
0.000343177
0.00032746
0.00031989
0.000312394
0.000302145
0.000295939
0.000372101
0.00193217
0.00876275
0.0126092
0.0137111
0.0143663
0.0166084
0.0183541
0.018816
0.0195511
0.0212762
0.022715
0.023056
0.0219506
0.0245085
0.0214925
0.0179632
0.0283156
0.116362
0.341924
0.000156951
0.000205529
0.000221759
0.00026804
0.000340613
0.000391432
0.00045957
0.000511265
0.000511377
0.000522446
0.000500537
0.000443505
0.000408918
0.000396062
0.000395432
0.000392672
0.000378669
0.000386114
0.000460366
0.000822906
0.00301146
0.00748062
0.0105952
0.0114741
0.0119036
0.0123937
0.0129809
0.0145812
0.0113484
0.0107459
0.0113298
0.0096511
0.0120604
0.00936967
0.0088964
0.0198831
0.0467497
0.14954
7.46166e-05
8.86816e-05
0.000100321
0.000113107
0.000143096
0.000157553
0.000156189
0.000155684
0.000152824
0.000148625
0.00013979
0.000128268
0.000129636
0.000134259
0.000145451
0.000157192
0.000170616
0.000187417
0.000224798
0.000301739
0.000511409
0.00104807
0.00168086
0.00203645
0.00211819
0.00185916
0.00164515
0.00161692
0.00167515
0.00165098
0.00200144
0.00737736
0.0071945
0.00602536
0.0066137
0.0147079
0.0720897
0.0893148
4.87368e-05
5.08344e-05
5.5285e-05
5.84075e-05
6.45284e-05
6.73588e-05
6.90652e-05
7.07155e-05
7.27141e-05
7.55068e-05
7.76777e-05
8.18997e-05
9.32094e-05
9.99638e-05
0.000107713
0.000115483
0.000133519
0.000143592
0.000170064
0.000195099
0.000233531
0.000294576
0.000385379
0.000405702
0.000473619
0.000497316
0.00055669
0.000638431
0.00098009
0.00112544
0.00156764
0.00627728
0.00356433
0.0053993
0.00552094
0.012902
0.0443238
0.0338293
3.85622e-05
4.09069e-05
4.51215e-05
4.8239e-05
5.38772e-05
5.8538e-05
6.33243e-05
6.74464e-05
7.08291e-05
7.60858e-05
7.98e-05
8.30941e-05
8.80768e-05
9.36439e-05
0.000102324
0.000113829
0.000130856
0.00014851
0.00017586
0.000184826
0.000201912
0.000220884
0.000255136
0.000305669
0.000330807
0.000447636
0.00046314
0.00063531
0.000667721
0.000745007
0.000910881
0.00225397
0.00227382
0.00330985
0.00585957
0.0123719
0.024761
0.017535
3.51434e-05
3.8089e-05
4.2074e-05
4.58594e-05
5.07907e-05
5.53313e-05
6.01706e-05
6.53794e-05
6.96792e-05
7.58247e-05
8.07952e-05
8.58963e-05
9.33112e-05
9.87479e-05
0.000109794
0.00012286
0.000136252
0.000162824
0.000183853
0.000189015
0.00020181
0.000215585
0.000234242
0.000259452
0.00027678
0.000366463
0.000365531
0.000508761
0.000505111
0.000778269
0.000830225
0.0013025
0.0019021
0.00280231
0.00689396
0.00910171
0.0131114
0.013521
3.28316e-05
3.53218e-05
3.8557e-05
4.24051e-05
4.67338e-05
5.23614e-05
5.71474e-05
6.2699e-05
6.79928e-05
7.27214e-05
7.88168e-05
8.49569e-05
8.89293e-05
9.79037e-05
0.000117313
0.000126965
0.000138536
0.000159108
0.000175526
0.000187723
0.000193734
0.000202988
0.000227628
0.000255168
0.00031016
0.00031851
0.000358068
0.000382746
0.000456939
0.000527501
0.000912267
0.000955477
0.00223018
0.00240454
0.00451409
0.00348359
0.00469395
0.00968167
3.19281e-05
3.41266e-05
3.68356e-05
3.98394e-05
4.3123e-05
4.72047e-05
5.08963e-05
5.61974e-05
6.04657e-05
6.52332e-05
7.26008e-05
7.84808e-05
8.36594e-05
9.88252e-05
0.000133585
0.000143144
0.000150976
0.000153762
0.000161689
0.000175695
0.000181196
0.000189696
0.000208465
0.00023212
0.000280767
0.000296351
0.000309751
0.000345943
0.000372762
0.000470065
0.00088182
0.000900248
0.00155676
0.00200742
0.00437187
0.00357565
0.0060617
0.0141397
3.03463e-05
3.20447e-05
3.42081e-05
3.66115e-05
3.90883e-05
4.26643e-05
4.52096e-05
4.95069e-05
5.34563e-05
5.6717e-05
6.45999e-05
7.07451e-05
7.89515e-05
0.000108098
0.000135489
0.000144427
0.000157044
0.000176092
0.000182609
0.000184856
0.000189007
0.000192154
0.000200802
0.000214017
0.000228297
0.000260228
0.000304531
0.000340101
0.000430485
0.000536793
0.000621185
0.00126903
0.00127783
0.00187437
0.00451231
0.00469664
0.00796112
0.0243315
2.78795e-05
2.90653e-05
3.09679e-05
3.22699e-05
3.46417e-05
3.6114e-05
3.90807e-05
4.11619e-05
4.34878e-05
4.84737e-05
5.194e-05
5.69764e-05
7.05069e-05
0.000106124
0.000189167
0.000395442
0.000705924
0.00094119
0.000889613
0.000779253
0.000712237
0.000604995
0.000618794
0.00061345
0.000646906
0.000737899
0.00102571
0.00114352
0.00129622
0.00154559
0.00204714
0.00298238
0.00495495
0.00603675
0.00818776
0.0121549
0.0295482
0.0688908
2.30542e-05
2.3626e-05
2.49749e-05
2.56386e-05
2.72497e-05
2.78573e-05
3.07217e-05
3.04611e-05
3.35022e-05
3.56959e-05
3.59102e-05
4.41773e-05
6.88834e-05
0.000274646
0.000806004
0.00162533
0.00256497
0.00387746
0.00396881
0.00423128
0.0042254
0.00417813
0.0045707
0.00477986
0.0052121
0.00593166
0.00687731
0.00717656
0.00761877
0.00879994
0.0104418
0.012896
0.0131459
0.0120546
0.0144548
0.0227713
0.0351137
0.078483
1.64711e-05
1.70503e-05
1.78499e-05
1.83692e-05
1.94816e-05
2.00483e-05
2.11915e-05
2.25421e-05
2.28821e-05
2.45546e-05
2.56837e-05
2.5897e-05
6.31938e-05
0.000710266
0.00145497
0.0017184
0.00196981
0.00229239
0.00235904
0.00227717
0.00234212
0.00233636
0.00236187
0.00281548
0.00314862
0.00353874
0.00425825
0.00467026
0.00489687
0.00593613
0.00724861
0.00879881
0.0097909
0.0139072
0.0244226
0.0602729
0.128126
0.20597
3.45216e-05
6.68354e-05
0.000170022
0.000286719
0.000355559
0.000367154
0.000378437
0.000389044
0.000410277
0.00042518
0.00041879
0.000382491
0.000353546
0.000335228
0.000323699
0.000316264
0.000306792
0.00030076
0.000310642
0.00072543
0.00439926
0.00999829
0.0125308
0.014618
0.0169198
0.0188595
0.0196242
0.0200481
0.0212468
0.0219994
0.0217598
0.0209178
0.0209263
0.0161544
0.0148559
0.0267125
0.115709
0.291989
8.33854e-05
9.25486e-05
0.000122106
0.000177503
0.000290175
0.000361344
0.000447597
0.00053616
0.000554559
0.000573473
0.000545888
0.000482574
0.000429335
0.000403139
0.000384943
0.000375868
0.000363968
0.000371634
0.00041685
0.000577609
0.00145886
0.00418464
0.00756487
0.010101
0.0112825
0.0120786
0.0136194
0.0154066
0.0126474
0.0123208
0.0119482
0.00876398
0.00957243
0.00580262
0.00681055
0.0111633
0.0439636
0.107522
6.90579e-05
7.00984e-05
7.42165e-05
8.23201e-05
9.93029e-05
0.000124453
0.000127713
0.000135684
0.000147667
0.000148416
0.000145731
0.000137695
0.000136359
0.000138352
0.000143397
0.000150774
0.000162469
0.000181428
0.000213115
0.000273282
0.000378389
0.000635176
0.00105851
0.00151231
0.00201915
0.00201485
0.00193958
0.00202021
0.0019565
0.00172459
0.00182925
0.00373042
0.00447495
0.00373333
0.00508895
0.0117147
0.0548155
0.0646474
4.79578e-05
5.21274e-05
5.6373e-05
5.96859e-05
6.51887e-05
6.85048e-05
7.10128e-05
7.28041e-05
7.66584e-05
8.06966e-05
8.41577e-05
8.94051e-05
0.000101003
0.000109423
0.000119555
0.000127035
0.000144558
0.000159069
0.000184934
0.00020524
0.000239944
0.000284603
0.000355245
0.000399866
0.000495857
0.000551371
0.000646007
0.000758527
0.00100677
0.00101562
0.00122885
0.00251823
0.00222922
0.00297474
0.00436057
0.00777897
0.0258846
0.0293035
4.11762e-05
4.45506e-05
4.9592e-05
5.40777e-05
6.04365e-05
6.65639e-05
7.25718e-05
7.62781e-05
8.05536e-05
8.6042e-05
8.95106e-05
9.4048e-05
9.94006e-05
0.000105466
0.000114978
0.000126222
0.000140187
0.000161505
0.000191694
0.000202523
0.000217485
0.000236334
0.000266523
0.000311296
0.000349779
0.000453105
0.000473332
0.0006131
0.000629448
0.000848626
0.000855136
0.00135819
0.00155949
0.00340154
0.00437317
0.00918813
0.0142863
0.0138333
3.78779e-05
4.15015e-05
4.61376e-05
5.08868e-05
5.6523e-05
6.20719e-05
6.77482e-05
7.33511e-05
7.83412e-05
8.48636e-05
9.01723e-05
9.60146e-05
0.00010392
0.000110269
0.000122921
0.000136207
0.000150326
0.000172355
0.000194712
0.000202944
0.000213358
0.000230884
0.000249331
0.000273999
0.000289554
0.000360119
0.000360334
0.000445839
0.000457608
0.000698499
0.000645649
0.00135142
0.00143314
0.00235504
0.00425736
0.00796656
0.0116024
0.0139066
3.5727e-05
3.87032e-05
4.2456e-05
4.70214e-05
5.20648e-05
5.84453e-05
6.40137e-05
7.00238e-05
7.58594e-05
8.1204e-05
8.78094e-05
9.44644e-05
9.93279e-05
0.000109286
0.000127653
0.000139939
0.000152648
0.000171402
0.000187701
0.000199738
0.000205025
0.000218201
0.000236067
0.000269725
0.000304754
0.000318477
0.000348207
0.000366615
0.000418447
0.000476238
0.0006954
0.000735111
0.00155016
0.00183002
0.00244936
0.0027988
0.0040038
0.00814691
3.44972e-05
3.70604e-05
4.01027e-05
4.36442e-05
4.73616e-05
5.21006e-05
5.65218e-05
6.21838e-05
6.75729e-05
7.26753e-05
8.04594e-05
8.71653e-05
9.30334e-05
0.00010877
0.000142481
0.000155677
0.000159601
0.000163467
0.000172154
0.00018668
0.000190368
0.000198547
0.000206665
0.000226302
0.000280103
0.000315351
0.000311585
0.000348621
0.000346883
0.000432806
0.000595905
0.000675502
0.00112593
0.00140793
0.0022179
0.00246397
0.00469831
0.00985371
3.26652e-05
3.4666e-05
3.70207e-05
3.98916e-05
4.26012e-05
4.67377e-05
4.98065e-05
5.43389e-05
5.93933e-05
6.27916e-05
7.11704e-05
7.82307e-05
8.67931e-05
0.000117929
0.000146023
0.000158693
0.000173796
0.000193484
0.000195241
0.000198749
0.000202047
0.000206069
0.000215789
0.000228367
0.000251798
0.000302732
0.000348672
0.0003703
0.000422353
0.000466213
0.000555293
0.000826186
0.000940415
0.00129014
0.0032095
0.00295369
0.00547721
0.0165403
2.9702e-05
3.11362e-05
3.30367e-05
3.48401e-05
3.69618e-05
3.92366e-05
4.22637e-05
4.42018e-05
4.8594e-05
5.17648e-05
5.66618e-05
6.29389e-05
7.85365e-05
0.000130036
0.000241806
0.00048847
0.000869817
0.0010425
0.000966331
0.000897692
0.000832871
0.00077423
0.000822501
0.000845247
0.00093823
0.00108663
0.00146168
0.00149915
0.00169662
0.00185814
0.00255764
0.00275883
0.00418039
0.00556928
0.00656804
0.0088491
0.0228625
0.0465868
2.4256e-05
2.49653e-05
2.62665e-05
2.73235e-05
2.82978e-05
2.97786e-05
3.21678e-05
3.20327e-05
3.71705e-05
3.68194e-05
3.87579e-05
4.93681e-05
9.41947e-05
0.00043554
0.00109544
0.00186853
0.00311061
0.00434232
0.00442583
0.00495453
0.00494962
0.00514938
0.00583915
0.00607901
0.00675654
0.00775157
0.00870194
0.0088128
0.00941416
0.0106317
0.0128122
0.013398
0.0152846
0.0144224
0.0164312
0.0233932
0.0352901
0.062462
1.67481e-05
1.73845e-05
1.80538e-05
1.88636e-05
1.96085e-05
2.04487e-05
2.16254e-05
2.2388e-05
2.3248e-05
2.52546e-05
2.57721e-05
2.7047e-05
0.000163183
0.0010143
0.0016613
0.00192029
0.00228558
0.00258482
0.0026394
0.00262025
0.00278826
0.00287403
0.00312017
0.00375233
0.00414976
0.0047392
0.00548022
0.00576489
0.00599492
0.00706123
0.0083547
0.00943121
0.0102362
0.0137418
0.0214635
0.0448927
0.107918
0.185207
2.24764e-05
3.72874e-05
5.40798e-05
0.000144116
0.000335986
0.000364986
0.000374259
0.000399759
0.000428829
0.00044963
0.000445476
0.000401756
0.000368711
0.000347818
0.000334214
0.000326312
0.000317558
0.000313015
0.000310883
0.000363264
0.00134822
0.00440508
0.0076643
0.0133502
0.0179147
0.0193344
0.0201695
0.0205362
0.0211137
0.0216378
0.0214799
0.0200769
0.0173869
0.0134432
0.0143903
0.0343793
0.122806
0.252981
6.04582e-05
6.69681e-05
7.56736e-05
0.00010475
0.000190186
0.000308834
0.000421753
0.000585624
0.000643664
0.000649327
0.000610213
0.000536144
0.000475729
0.000436579
0.000407717
0.000392537
0.000378476
0.000385541
0.000414136
0.000498158
0.000770491
0.00165162
0.00339783
0.00668393
0.0104476
0.0120652
0.0142054
0.0164156
0.014396
0.0141604
0.0150366
0.0113287
0.00827499
0.00442061
0.00455341
0.00728628
0.0258931
0.0881813
5.90226e-05
6.22309e-05
6.36644e-05
6.79918e-05
7.88646e-05
9.2786e-05
0.000101165
0.000125973
0.000149247
0.000161674
0.000160337
0.00015474
0.000150289
0.000150921
0.000153761
0.000159262
0.000169062
0.000184915
0.000213416
0.000261804
0.000342102
0.000451142
0.000655238
0.00104207
0.00178118
0.00219424
0.00224752
0.00249843
0.00233759
0.0019362
0.00198323
0.00212081
0.00265268
0.00247683
0.00310864
0.00631553
0.0277798
0.0382955
4.72384e-05
5.32451e-05
5.73143e-05
6.20314e-05
6.84264e-05
7.14985e-05
7.48734e-05
7.75989e-05
8.1902e-05
8.67958e-05
9.15769e-05
9.72864e-05
0.000107783
0.00011603
0.000126996
0.000134646
0.000150942
0.000166378
0.000189885
0.000209805
0.000239446
0.000279228
0.000343357
0.000402854
0.00053205
0.000685652
0.000793643
0.000993179
0.00107298
0.0010759
0.00114117
0.00140405
0.00171233
0.00263278
0.00268619
0.0049723
0.0132182
0.014799
4.23476e-05
4.68886e-05
5.27988e-05
5.8552e-05
6.57871e-05
7.33165e-05
7.96246e-05
8.31681e-05
8.76195e-05
9.29836e-05
9.67146e-05
0.000102057
0.000108223
0.000114966
0.000125386
0.000136714
0.000148805
0.000169643
0.00019834
0.00021056
0.000224186
0.000244097
0.000268594
0.000306937
0.000354245
0.000456623
0.000493104
0.000627067
0.000644363
0.000852498
0.000814198
0.0014242
0.00133255
0.0027009
0.00324389
0.00645548
0.0101502
0.00989518
3.95276e-05
4.37474e-05
4.90198e-05
5.46443e-05
6.09852e-05
6.74062e-05
7.35757e-05
7.94091e-05
8.4952e-05
9.16177e-05
9.74398e-05
0.000103891
0.000112143
0.000119463
0.000132401
0.000146139
0.000160105
0.000178913
0.000199918
0.000210053
0.000219394
0.000238466
0.000254376
0.000278501
0.000294551
0.000347697
0.000354728
0.000404586
0.000432945
0.000534395
0.000544145
0.000866598
0.00100335
0.00163455
0.00279051
0.0055838
0.00858446
0.00758138
3.76576e-05
4.10107e-05
4.52144e-05
5.03439e-05
5.60393e-05
6.29942e-05
6.92363e-05
7.5573e-05
8.19122e-05
8.77951e-05
9.48054e-05
0.000101887
0.000107626
0.000117929
0.000134391
0.000148365
0.000161217
0.000177971
0.000193222
0.000204794
0.000210381
0.00022535
0.000239302
0.000269323
0.000292866
0.000316063
0.0003432
0.000357641
0.000401917
0.000445467
0.000555402
0.000625869
0.00131531
0.00146568
0.00177693
0.00267055
0.00382913
0.00587973
3.62542e-05
3.90825e-05
4.24015e-05
4.63511e-05
5.04872e-05
5.57377e-05
6.07876e-05
6.68279e-05