/*--------------------------------*- C++ -*----------------------------------*\
| =========                 |                                                 |
| \\      /  F ield         | OpenFOAM: The Open Source CFD Toolbox           |
|  \\    /   O peration     | Version:  2.3.1                                 |
|   \\  /    A nd           | Web:      www.OpenFOAM.org                      |
|    \\/     M anipulation  |                                                 |
\*---------------------------------------------------------------------------*/
FoamFile
{
    version     2.0;
    format      ascii;
    class       volScalarField;
    location    "10";
    object      k_0;
}
// * * * * * * * * * * * * * * * * * * * * * * * * * * * * * * * * * * * * * //

dimensions      [0 2 -2 0 0 0 0];

internalField   nonuniform List<scalar> 
38262
(
0.000226141
0.000222757
0.000218574
0.000209467
0.000213282
0.000217192
0.000211925
0.000211616
0.000219601
0.000219542
0.000195613
0.000174685
0.000167046
0.000163914
0.000164259
0.000166029
0.000170478
0.000195899
0.000740875
0.00363797
0.00717711
0.00827487
0.00900041
0.0111507
0.011886
0.012061
0.0126729
0.014299
0.0148755
0.0157006
0.0147021
0.0175713
0.0182133
0.0200398
0.0266705
0.0316977
0.0657451
0.239753
0.000281893
0.000274619
0.000262642
0.000265667
0.000269984
0.000260263
0.000237186
0.000195313
0.000175038
0.000174854
0.000163075
0.000161435
0.000174551
0.000197712
0.000199458
0.000191251
0.000190236
0.000205973
0.000261814
0.000878076
0.00259096
0.00399524
0.00497177
0.00666391
0.0065055
0.00699944
0.00643661
0.00610198
0.00542447
0.00901354
0.00649505
0.0132599
0.0136739
0.0151029
0.0206535
0.0356466
0.0763508
0.378836
0.000196411
0.000182884
0.000169233
0.000159744
0.000157487
0.000145592
0.000130593
0.000116464
9.95822e-05
8.96546e-05
8.30433e-05
7.92242e-05
7.93566e-05
8.54784e-05
8.60923e-05
8.68891e-05
0.000102676
0.0001644
0.000182824
0.000260302
0.000527947
0.000939912
0.00114215
0.00157546
0.00103199
0.00120788
0.000865126
0.00082683
0.000844197
0.00241033
0.00229855
0.00589006
0.00842062
0.0155707
0.0181815
0.0312659
0.0568108
0.342491
6.60482e-05
7.1378e-05
7.36082e-05
7.34584e-05
7.38216e-05
7.1926e-05
6.63554e-05
6.35791e-05
6.0527e-05
5.69317e-05
5.7995e-05
5.9904e-05
5.97279e-05
5.88431e-05
6.03511e-05
6.78445e-05
7.26175e-05
8.76021e-05
0.000122763
0.000158863
0.00020929
0.000302697
0.000373053
0.000465948
0.00037448
0.000441211
0.000416047
0.000494245
0.000499171
0.00077445
0.000903957
0.00294334
0.0102337
0.00711148
0.00755534
0.0155605
0.0747288
0.353535
2.21275e-05
2.50934e-05
2.7408e-05
2.97352e-05
3.05928e-05
3.23579e-05
3.32962e-05
3.50986e-05
3.70467e-05
3.93707e-05
4.2598e-05
4.43845e-05
4.91836e-05
5.34508e-05
5.97828e-05
6.17943e-05
8.68588e-05
9.10516e-05
9.22258e-05
0.000113765
0.000149458
0.000175425
0.000214274
0.000250711
0.000237467
0.000262518
0.000376259
0.000347295
0.000529752
0.000567412
0.0006272
0.00129042
0.00514947
0.00385724
0.00550213
0.0114743
0.0876999
0.32088
1.76966e-05
1.90209e-05
2.09193e-05
2.23042e-05
2.493e-05
2.67019e-05
2.94327e-05
3.14577e-05
3.50002e-05
3.79295e-05
4.01925e-05
4.55422e-05
4.7526e-05
5.10187e-05
5.79417e-05
6.00055e-05
6.71125e-05
7.75899e-05
8.32484e-05
9.95136e-05
0.000117735
0.000125193
0.000146862
0.000159713
0.000189028
0.000211592
0.00030842
0.000326941
0.000469168
0.000486859
0.000625113
0.000811639
0.00145474
0.00314361
0.0050443
0.0253188
0.107908
0.288954
1.72122e-05
1.83601e-05
1.9678e-05
2.13179e-05
2.27018e-05
2.53706e-05
2.6957e-05
3.04785e-05
3.23968e-05
3.63163e-05
4.03447e-05
4.20234e-05
4.81047e-05
5.11336e-05
5.63723e-05
6.32378e-05
7.10089e-05
7.36528e-05
8.33461e-05
9.10161e-05
0.000108538
0.000120552
0.000128022
0.000138706
0.000176642
0.00023037
0.000287602
0.000356965
0.000534551
0.000655439
0.000910795
0.00156885
0.00217506
0.00414232
0.00590816
0.0182688
0.0937419
0.299847
1.74694e-05
1.85777e-05
2.00655e-05
2.1341e-05
2.35613e-05
2.48946e-05
2.77902e-05
2.94295e-05
3.25141e-05
3.46926e-05
3.84535e-05
4.04266e-05
4.55398e-05
4.75269e-05
5.65185e-05
6.06244e-05
6.71673e-05
7.15172e-05
8.3376e-05
9.36869e-05
9.95222e-05
0.000118597
0.000120695
0.000131422
0.000206879
0.00039712
0.000652823
0.000837651
0.0009867
0.0012769
0.00212203
0.00422102
0.00633414
0.00696208
0.00679341
0.0116986
0.0651516
0.306441
1.72645e-05
1.84159e-05
1.94923e-05
2.12407e-05
2.22611e-05
2.4617e-05
2.57238e-05
2.88894e-05
2.97866e-05
3.33577e-05
3.51072e-05
3.83966e-05
4.0252e-05
4.56139e-05
5.40679e-05
6.5426e-05
7.09008e-05
8.41929e-05
0.000103991
0.00010475
0.000106399
0.00011382
0.000119117
0.000125733
0.000150951
0.000234093
0.000388036
0.000587764
0.000740521
0.000849458
0.00119354
0.00164049
0.00313206
0.00426582
0.00512627
0.00689917
0.0360789
0.277986
1.69352e-05
1.8003e-05
1.91388e-05
2.06885e-05
2.16858e-05
2.40764e-05
2.48557e-05
2.80779e-05
2.87512e-05
3.11622e-05
3.49846e-05
3.48072e-05
3.64334e-05
4.79798e-05
8.54128e-05
0.000125273
0.000178075
0.000282292
0.000273093
0.000234817
0.000197391
0.00015435
0.000151951
0.000136884
0.000198389
0.000447226
0.00066366
0.00092177
0.0010201
0.0014055
0.00182932
0.00328373
0.00446815
0.0068257
0.0104651
0.016941
0.04558
0.178183
1.56801e-05
1.68144e-05
1.75068e-05
1.92572e-05
1.98896e-05
2.22585e-05
2.24686e-05
2.5312e-05
2.57335e-05
2.67622e-05
2.97827e-05
2.87897e-05
3.07142e-05
0.000124431
0.000284046
0.000371478
0.000556309
0.000713924
0.000953121
0.000930932
0.000831366
0.000711122
0.000746207
0.000675246
0.000423903
0.000477491
0.000632255
0.000930678
0.00109864
0.00146423
0.00186915
0.00305211
0.00370656
0.0053338
0.00722206
0.0115475
0.0207114
0.0781468
1.18656e-05
1.26386e-05
1.30276e-05
1.41e-05
1.43512e-05
1.60745e-05
1.5921e-05
1.81636e-05
1.83332e-05
1.87259e-05
2.13715e-05
2.02029e-05
4.44648e-05
0.000374625
0.000604957
0.000647991
0.000698644
0.000751034
0.000740297
0.000697411
0.000696855
0.00067654
0.000689377
0.000781917
0.000835244
0.000905024
0.00114683
0.00140512
0.00172725
0.00239923
0.00311131
0.00458927
0.00602552
0.0109231
0.0283239
0.0651141
0.117349
0.220742
0.00030333
0.00031574
0.000317265
0.000307207
0.000300553
0.000326889
0.00033317
0.000320624
0.000345333
0.000358284
0.000338781
0.000310266
0.000293247
0.000281571
0.000277808
0.000271559
0.000270176
0.00027825
0.000663943
0.00381683
0.00955117
0.0111409
0.0115386
0.0135278
0.0158871
0.0162233
0.016179
0.0181912
0.0205839
0.0221382
0.022626
0.0260296
0.0268963
0.0269978
0.031145
0.0353513
0.121079
0.371359
0.000388528
0.00038883
0.000382041
0.000390348
0.000408417
0.000429573
0.000434193
0.000394134
0.000377207
0.000385061
0.000369261
0.000366859
0.000392192
0.000405678
0.000410528
0.000373256
0.000355201
0.000391321
0.000518846
0.00130236
0.00430959
0.00828446
0.0109832
0.012669
0.0142403
0.0153058
0.0129879
0.015421
0.0137963
0.0149036
0.0194734
0.0249503
0.0229382
0.0360591
0.0352547
0.0450106
0.0990494
0.808901
0.000252785
0.000239502
0.000225765
0.000210575
0.000204177
0.000190483
0.000173155
0.000162176
0.00014299
0.000135927
0.000126984
0.000138157
0.000153672
0.000168641
0.000177785
0.000151562
0.000157115
0.000197685
0.000300996
0.000433344
0.000829938
0.00153292
0.00234929
0.0024629
0.00225913
0.00189441
0.00129112
0.00151517
0.00180055
0.00256133
0.0043693
0.0117895
0.0109521
0.0218856
0.0226058
0.068692
0.0905932
0.379424
5.82043e-05
6.01046e-05
6.09719e-05
6.10719e-05
6.2155e-05
6.16377e-05
5.92552e-05
5.89553e-05
5.72495e-05
5.53424e-05
5.59377e-05
5.83739e-05
5.93945e-05
6.32139e-05
7.98522e-05
8.8739e-05
0.00010469
0.00012154
0.000157726
0.000261953
0.00029977
0.000413992
0.000541473
0.000517879
0.000522279
0.000513235
0.000686383
0.000817495
0.00109678
0.00161876
0.00378593
0.0167371
0.010957
0.00818791
0.0103365
0.0378417
0.0635313
0.210079
2.50386e-05
2.58616e-05
2.78106e-05
2.86149e-05
3.06131e-05
3.29899e-05
3.44302e-05
3.89222e-05
4.10289e-05
4.3993e-05
4.84829e-05
5.05375e-05
5.41082e-05
6.16287e-05
6.81633e-05
7.9687e-05
0.00012704
0.000124592
0.000120305
0.000141601
0.000248268
0.000301107
0.000322785
0.000323637
0.000370777
0.000392654
0.000607165
0.000605596
0.000767857
0.00111937
0.00170337
0.00319724
0.00548659
0.00599802
0.0079384
0.0173079
0.0617369
0.139722
2.39743e-05
2.52671e-05
2.75229e-05
2.92062e-05
3.18494e-05
3.5143e-05
3.7173e-05
4.10915e-05
4.4706e-05
4.75066e-05
5.41604e-05
5.65053e-05
6.01015e-05
6.83435e-05
7.16418e-05
8.52756e-05
9.31753e-05
0.000129698
0.000132775
0.000148211
0.000195618
0.000188073
0.000199396
0.000207473
0.000265523
0.000320544
0.000478172
0.000539115
0.000983619
0.000834131
0.00173109
0.0016463
0.00320039
0.0070175
0.00970332
0.0155498
0.0663219
0.191126
2.25853e-05
2.36236e-05
2.56578e-05
2.71187e-05
3.02132e-05
3.24032e-05
3.69195e-05
3.93715e-05
4.51244e-05
4.74409e-05
5.29645e-05
5.77078e-05
6.01679e-05
6.53365e-05
8.13522e-05
8.4815e-05
9.11243e-05
0.000114855
0.000124399
0.000138797
0.000152118
0.000162199
0.000186622
0.000190305
0.000282231
0.000355025
0.000582598
0.000575605
0.00122358
0.00106886
0.00226639
0.00267363
0.00556488
0.00755727
0.0133787
0.0165885
0.0386185
0.257763
2.26739e-05
2.37705e-05
2.54979e-05
2.69822e-05
2.90091e-05
3.16941e-05
3.33735e-05
3.78077e-05
3.9621e-05
4.25444e-05
5.05172e-05
5.39333e-05
5.69263e-05
7.05341e-05
8.87461e-05
8.88967e-05
9.89611e-05
0.00010484
0.000117616
0.000119575
0.000135031
0.000151387
0.00024051
0.000198582
0.000346104
0.000554943
0.00119014
0.00128944
0.0013736
0.00182733
0.00243918
0.00453666
0.00788201
0.0092325
0.0149965
0.0118563
0.0260481
0.249892
2.19417e-05
2.26823e-05
2.43404e-05
2.52469e-05
2.74006e-05
2.85927e-05
3.12772e-05
3.29857e-05
3.72355e-05
3.8831e-05
4.55518e-05
4.70434e-05
5.16333e-05
6.82607e-05
7.98779e-05
8.48267e-05
9.30178e-05
0.00011085
0.000124858
0.000122632
0.000125981
0.000132195
0.000160151
0.000166461
0.000189571
0.000254911
0.000460145
0.00052814
0.000710512
0.000767728
0.000938071
0.00152434
0.00236883
0.00403048
0.00778648
0.00939697
0.0174965
0.194233
2.07155e-05
2.13e-05
2.27412e-05
2.3364e-05
2.52112e-05
2.59035e-05
2.74571e-05
3.13003e-05
3.16266e-05
3.60642e-05
3.87008e-05
4.00828e-05
4.83346e-05
6.87752e-05
0.000118765
0.00022936
0.000408724
0.000611293
0.000585927
0.000485663
0.000401374
0.000303417
0.0002865
0.00023387
0.000321342
0.000564441
0.00092883
0.00117252
0.00133722
0.00180994
0.00225742
0.00496042
0.00729361
0.0119879
0.0165362
0.0218963
0.0448736
0.156968
1.75949e-05
1.78749e-05
1.90275e-05
1.91797e-05
2.1016e-05
2.11197e-05
2.23433e-05
2.50498e-05
2.40456e-05
2.97078e-05
2.86162e-05
3.09279e-05
4.22318e-05
0.000157535
0.000493424
0.00105451
0.0015715
0.00237515
0.00278571
0.00267879
0.00260162
0.00226292
0.00224278
0.0020662
0.00144456
0.00147226
0.0017363
0.00245675
0.00313083
0.00379834
0.00502692
0.00785754
0.00667849
0.00819262
0.011993
0.019899
0.0435656
0.119822
1.45157e-05
1.50689e-05
1.575e-05
1.64009e-05
1.70414e-05
1.82188e-05
1.85549e-05
2.01514e-05
2.05489e-05
2.13647e-05
2.35067e-05
2.29505e-05
3.11227e-05
0.000434024
0.00099952
0.00116225
0.00128126
0.00153405
0.00158286
0.00141897
0.00143604
0.00134007
0.00116853
0.00114603
0.00120233
0.00133033
0.00166252
0.00205101
0.00246235
0.00328405
0.00437707
0.00604206
0.00753048
0.0124957
0.0297216
0.0727843
0.136117
0.259911
0.000255439
0.000301092
0.000315305
0.000332325
0.000340543
0.000363272
0.000374446
0.00037014
0.0003863
0.00039727
0.000381955
0.000349585
0.000329841
0.000316155
0.000311481
0.000303258
0.000294259
0.000293845
0.000516893
0.00315641
0.00999387
0.0124588
0.0130387
0.0138432
0.0167085
0.0176615
0.0178519
0.019111
0.0209842
0.023096
0.0243322
0.0248962
0.026512
0.0263409
0.0254795
0.0400321
0.159639
0.368581
0.000315785
0.000292775
0.000296959
0.000340911
0.000392948
0.000429147
0.000472424
0.000476353
0.000470838
0.000476707
0.000456401
0.000413785
0.000407039
0.000411709
0.000426618
0.000416422
0.000386851
0.000401775
0.000508996
0.00112828
0.00411343
0.00877893
0.0114851
0.012479
0.013156
0.0134
0.0128354
0.0146913
0.0112794
0.0107824
0.0133441
0.0126704
0.0145408
0.0186777
0.0160378
0.0524669
0.0680571
0.30819
0.000160379
0.000151686
0.000143078
0.000145067
0.000159118
0.000165762
0.00016202
0.000160189
0.000154722
0.000148825
0.000133052
0.000128478
0.00013476
0.00014546
0.000173432
0.00017194
0.000177237
0.000192014
0.000250314
0.000369149
0.000703416
0.00141585
0.00224513
0.00244888
0.0022639
0.00180807
0.00152911
0.00145791
0.00150379
0.00228664
0.0024396
0.00916527
0.0098552
0.0171628
0.0121663
0.0445064
0.114787
0.154029
5.1411e-05
5.19351e-05
5.41209e-05
5.57936e-05
6.03398e-05
6.30591e-05
6.39305e-05
6.63231e-05
6.65779e-05
6.74505e-05
6.89695e-05
7.3073e-05
7.82743e-05
8.07325e-05
8.79315e-05
9.59329e-05
0.000111433
0.000125852
0.000155377
0.000198347
0.000240785
0.0003337
0.000443935
0.000437148
0.000485173
0.000485608
0.000594188
0.000608105
0.0010472
0.00129424
0.00248619
0.00823066
0.00496582
0.00888251
0.0107575
0.026217
0.0650671
0.0708501
3.32209e-05
3.47913e-05
3.80684e-05
3.99564e-05
4.43071e-05
4.79692e-05
5.11329e-05
5.61927e-05
5.83865e-05
6.29246e-05
6.70198e-05
6.89508e-05
7.39078e-05
7.97445e-05
8.98881e-05
9.84216e-05
0.000120562
0.000131547
0.0001547
0.00016164
0.000187759
0.000218523
0.000254431
0.000284688
0.000308675
0.000409642
0.000454827
0.00057807
0.000742063
0.000848478
0.00128736
0.00337797
0.00325217
0.0049153
0.00670872
0.0155458
0.0671143
0.0340336
3.07813e-05
3.29577e-05
3.62405e-05
3.8959e-05
4.31028e-05
4.67658e-05
5.04808e-05
5.50859e-05
5.88516e-05
6.39085e-05
6.93016e-05
7.29898e-05
7.97846e-05
8.48504e-05
9.24872e-05
0.000106342
0.00011911
0.000149078
0.000163857
0.000168767
0.000186846
0.000197347
0.000208578
0.000238033
0.000254569
0.000388414
0.000380788
0.000557213
0.000591406
0.000701571
0.00110375
0.00155404
0.00282815
0.00412119
0.00905023
0.0121862
0.0307945
0.0242999
2.86309e-05
3.04943e-05
3.31463e-05
3.60386e-05
3.96638e-05
4.41839e-05
4.83048e-05
5.30017e-05
5.80423e-05
6.18568e-05
6.75104e-05
7.3077e-05
7.60349e-05
8.3468e-05
0.000102161
0.000108888
0.000118206
0.000139313
0.000155228
0.000167345
0.000175602
0.000182562
0.000216464
0.000226773
0.000315468
0.000326831
0.000382536
0.000424804
0.000570729
0.000622284
0.000952447
0.00129461
0.00342946
0.00400203
0.00876257
0.00671423
0.00943975
0.0380146
2.82138e-05
2.9927e-05
3.22315e-05
3.45419e-05
3.73608e-05
4.06742e-05
4.34673e-05
4.84928e-05
5.13881e-05
5.57228e-05
6.28618e-05
6.74227e-05
7.14653e-05
8.52189e-05
0.000116051
0.000121318
0.000132757
0.000135383
0.000144981
0.000153981
0.000163148
0.0001777
0.000247696
0.000247226
0.000287458
0.000308416
0.000381862
0.000434305
0.000463035
0.000589126
0.000903644
0.00144611
0.00350843
0.00359655
0.00987785
0.00725932
0.0102275
0.0493563
2.69804e-05
2.82595e-05
3.02109e-05
3.19296e-05
3.42423e-05
3.69599e-05
3.90866e-05
4.29356e-05
4.59849e-05
4.88387e-05
5.60891e-05
6.04603e-05
6.72356e-05
9.22935e-05
0.000115007
0.000120943
0.000131236
0.000148874
0.000161399
0.000161481
0.000166048
0.000170484
0.000192928
0.000206672
0.000216322
0.000231553
0.000297467
0.000331592
0.000416982
0.000508426
0.000685883
0.00128612
0.0016055
0.00317977
0.00632717
0.00683624
0.0115052
0.0587044
2.51004e-05
2.59733e-05
2.77931e-05
2.87105e-05
3.09701e-05
3.20086e-05
3.42199e-05
3.73806e-05
3.81819e-05
4.3088e-05
4.61751e-05
4.90507e-05
6.07516e-05
8.84318e-05
0.000153581
0.000308689
0.000556594
0.000809767
0.000775819
0.000656388
0.000582209
0.000456524
0.000445813
0.000409465
0.000414073
0.000454777
0.000603866
0.000800525
0.000915957
0.00126443
0.00164546
0.00337541
0.00522164
0.00904004
0.0120467
0.0164299
0.0374869
0.110588
2.10206e-05
2.1444e-05
2.27789e-05
2.31615e-05
2.5156e-05
2.5415e-05
2.77213e-05
2.85577e-05
2.86286e-05
3.33262e-05
3.28225e-05
3.71874e-05
5.46452e-05
0.000195268
0.00062054
0.00135082
0.00206607
0.00325572
0.00348443
0.00350355
0.00346691
0.00323896
0.00333761
0.00343626
0.00343315
0.00368049
0.00428718
0.00500576
0.0053636
0.00646652
0.00748449
0.0112999
0.0100613
0.00975516
0.0128864
0.0210174
0.0367752
0.0988545
1.5854e-05
1.63762e-05
1.72248e-05
1.76982e-05
1.87549e-05
1.95651e-05
2.01515e-05
2.19787e-05
2.2299e-05
2.3435e-05
2.51461e-05
2.49215e-05
3.54679e-05
0.000520901
0.00123487
0.00147337
0.00164871
0.00195634
0.00203107
0.00189678
0.00191205
0.00182741
0.00172708
0.00187997
0.00208687
0.00231625
0.00286029
0.00340563
0.00370051
0.00464995
0.00589271
0.00774553
0.00899416
0.0135326
0.0277296
0.0703801
0.134802
0.236055
0.000114365
0.000226714
0.000286035
0.000325162
0.000355828
0.000366854
0.000382247
0.000386327
0.000400904
0.00041246
0.000401645
0.000367403
0.000343393
0.000327664
0.000320091
0.0003126
0.000302355
0.000296017
0.000366912
0.00186268
0.00863651
0.0125975
0.013729
0.0143856
0.016617
0.0184279
0.0189114
0.0196315
0.0213718
0.0228577
0.0232043
0.022103
0.0246946
0.0216338
0.0180732
0.0279953
0.115068
0.341668
0.000157058
0.000205707
0.000221874
0.000268127
0.000340766
0.000391597
0.000459759
0.000511508
0.000511647
0.000522767
0.000500835
0.000443752
0.000409133
0.00039624
0.000395525
0.000392619
0.000378415
0.000385454
0.000458154
0.00080797
0.00294129
0.00739945
0.0105708
0.0114821
0.011908
0.0123969
0.0130112
0.0146263
0.0113818
0.0108012
0.0113579
0.00965994
0.0121299
0.00938719
0.00891233
0.0198196
0.0469366
0.150196
7.46144e-05
8.86902e-05
0.000100352
0.000113137
0.000143148
0.000157633
0.000156247
0.000155742
0.000152882
0.000148675
0.000139825
0.000128299
0.000129667
0.000134281
0.000145445
0.000157139
0.000170492
0.000187109
0.000224017
0.000300061
0.0005049
0.00103614
0.00167017
0.00203304
0.00211955
0.00186161
0.00164955
0.00162252
0.00167854
0.00165082
0.00200134
0.00736086
0.00716044
0.00598372
0.00661798
0.014816
0.0722
0.088825
4.87321e-05
5.08313e-05
5.52855e-05
5.84095e-05
6.45338e-05
6.73678e-05
6.90736e-05
7.07233e-05
7.27213e-05
7.55129e-05
7.76846e-05
8.19114e-05
9.32263e-05
9.99666e-05
0.000107714
0.000115467
0.00013345
0.000143538
0.000169969
0.000194759
0.000232872
0.000293695
0.000384562
0.000405408
0.000474004
0.000497068
0.000556105
0.000638011
0.000980627
0.00112275
0.0015647
0.00626815
0.00355203
0.00539457
0.0055391
0.0130191
0.0443973
0.0339047
3.85587e-05
4.09038e-05
4.51188e-05
4.82371e-05
5.38759e-05
5.8537e-05
6.33262e-05
6.74486e-05
7.08341e-05
7.60935e-05
7.98054e-05
8.30985e-05
8.80827e-05
9.36443e-05
0.000102327
0.000113825
0.000130772
0.000148465
0.000175804
0.000184749
0.000201836
0.000220723
0.000254908
0.000305101
0.00033028
0.000446821
0.000462361
0.000634459
0.000667615
0.000744858
0.00091151
0.00224615
0.00226897
0.00331254
0.00585955
0.0124471
0.0243714
0.0174144
3.51405e-05
3.80864e-05
4.20717e-05
4.58574e-05
5.07895e-05
5.533e-05
6.01711e-05
6.53804e-05
6.96818e-05
7.58312e-05
8.08017e-05
8.59064e-05
9.33193e-05
9.87488e-05
0.00010978
0.000122835
0.000136218
0.000162772
0.00018378
0.000188959
0.00020179
0.000215537
0.000234154
0.000259239
0.000276636
0.000365974
0.000364866
0.00050783
0.000504253
0.000776918
0.000828573
0.00130223
0.00190023
0.00280057
0.00689225
0.00907436
0.0129194
0.0133903
3.28298e-05
3.53197e-05
3.85549e-05
4.24028e-05
4.67321e-05
5.23601e-05
5.71469e-05
6.27008e-05
6.79941e-05
7.27257e-05
7.88226e-05
8.49558e-05
8.89264e-05
9.79039e-05
0.000117287
0.00012691
0.000138477
0.000159042
0.000175472
0.000187704
0.00019371
0.000202973
0.000227548
0.000254938
0.000309742
0.000318234
0.000357728
0.000382444
0.000456612
0.000527408
0.000912079
0.000955004
0.00223183
0.00240255
0.00451948
0.00347647
0.00467778
0.0097237
3.19268e-05
3.41252e-05
3.68342e-05
3.98379e-05
4.31218e-05
4.72032e-05
5.08955e-05
5.61974e-05
6.04645e-05
6.52376e-05
7.26057e-05
7.84769e-05
8.36501e-05
9.88087e-05
0.000133525
0.000143072
0.000150913
0.000153709
0.00016168
0.000175701
0.00018121
0.000189675
0.000208437
0.00023204
0.000280605
0.000296186
0.000309684
0.000345722
0.000372568
0.000469963
0.000881297
0.000899428
0.00156022
0.00201147
0.00435801
0.00355958
0.00604831
0.0141921
3.03456e-05
3.2044e-05
3.42073e-05
3.66103e-05
3.90877e-05
4.26633e-05
4.52088e-05
4.95077e-05
5.34544e-05
5.67188e-05
6.46018e-05
7.07303e-05
7.89273e-05
0.000108072
0.000135476
0.000144361
0.000156986
0.000176165
0.000182674
0.000184899
0.000189026
0.000192157
0.000200791
0.000213944
0.000228292
0.000260229
0.000304505
0.000340089
0.000430496
0.000536585
0.000621061
0.00126697
0.00127568
0.00187669
0.00452761
0.00470099
0.00795789
0.0240546
2.78792e-05
2.90651e-05
3.09676e-05
3.22695e-05
3.46415e-05
3.61139e-05
3.90811e-05
4.1161e-05
4.34887e-05
4.84789e-05
5.19385e-05
5.69649e-05
7.04721e-05
0.000106032
0.000189017
0.000394915
0.000705519
0.00094215
0.00089044
0.000779846
0.000712894
0.000605488
0.00061925
0.000613893
0.000647382
0.000738513
0.00102667
0.00114415
0.00129674
0.00154627
0.00204784
0.00298514
0.004951
0.00603347
0.00817204
0.0120625
0.0291933
0.0675021
2.30544e-05
2.36262e-05
2.49751e-05
2.56387e-05
2.72496e-05
2.78577e-05
3.07213e-05
3.04608e-05
3.3508e-05
3.56953e-05
3.5906e-05
4.41674e-05
6.87941e-05
0.00027385
0.000804729
0.0016245
0.00256379
0.00387864
0.00397172
0.00423381
0.00422969
0.00418223
0.00457558
0.00478655
0.00522016
0.00594162
0.0068896
0.00718872
0.00763151
0.00881573
0.0104581
0.0129179
0.013168
0.012047
0.0143788
0.0226131
0.0351169
0.0783602
1.64711e-05
1.70503e-05
1.78497e-05
1.8369e-05
1.94814e-05
2.0048e-05
2.11916e-05
2.25412e-05
2.28816e-05
2.45556e-05
2.56832e-05
2.5897e-05
6.27885e-05
0.000708348
0.0014547
0.0017188
0.00196966
0.0022929
0.00236018
0.00227819
0.0023435
0.0023385
0.00236433
0.00281945
0.00315501
0.00354653
0.00426851
0.00468335
0.00491046
0.00595008
0.00726691
0.00881806
0.00979281
0.0138325
0.0238951
0.0586052
0.127921
0.207509
3.45476e-05
6.6893e-05
0.000169968
0.000286742
0.000355754
0.00036738
0.000378657
0.000389273
0.00041051
0.000425432
0.000419054
0.000382732
0.000353762
0.00033543
0.000323895
0.000316462
0.000306998
0.000300945
0.000309963
0.000700824
0.00427432
0.00993065
0.0125245
0.0146098
0.0169395
0.0189255
0.0197151
0.0201402
0.0213423
0.0221313
0.0219031
0.0210664
0.0210793
0.0162602
0.0149371
0.0264662
0.114681
0.29276
8.34172e-05
9.26011e-05
0.000122129
0.000177519
0.000290276
0.000361471
0.000447774
0.000536363
0.000554832
0.000573784
0.000546183
0.000482819
0.00042955
0.000403318
0.000385052
0.000375866
0.00036379
0.000371197
0.00041554
0.00057195
0.00142567
0.00411783
0.00750724
0.0100797
0.0112824
0.0120732
0.0136305
0.0154502
0.0126867
0.0123651
0.0119847
0.008801
0.00962245
0.00581674
0.00685134
0.0111818
0.04437
0.107724
6.90561e-05
7.01037e-05
7.42349e-05
8.23419e-05
9.93309e-05
0.000124512
0.000127754
0.000135723
0.000147713
0.000148454
0.000145763
0.000137718
0.000136382
0.00013837
0.000143404
0.000150755
0.000162418
0.000181233
0.000212611
0.000272281
0.000375638
0.000628934
0.00105106
0.00150607
0.00201611
0.00201653
0.00194326
0.00202644
0.00196116
0.00172706
0.00183151
0.00372156
0.00445069
0.00371707
0.00510924
0.0116797
0.0549014
0.0639949
4.79509e-05
5.21229e-05
5.63736e-05
5.96874e-05
6.51915e-05
6.85117e-05
7.10178e-05
7.2809e-05
7.66654e-05
8.07013e-05
8.4163e-05
8.94192e-05
0.000101022
0.000109434
0.000119558
0.000127026
0.00014451
0.000159019
0.000184815
0.000204957
0.000239418
0.00028399
0.000354599
0.000399318
0.000495726
0.000550962
0.000645728
0.000758454
0.00100721
0.00101564
0.00123042
0.00250563
0.00222423
0.00297061
0.004369
0.00780631
0.0260305
0.0290604
4.11722e-05
4.45466e-05
4.95894e-05
5.40761e-05
6.04351e-05
6.65645e-05
7.25757e-05
7.62826e-05
8.05625e-05
8.60531e-05
8.95202e-05
9.4058e-05
9.941e-05
0.000105472
0.000114981
0.000126209
0.000140128
0.000161459
0.000191629
0.000202427
0.000217393
0.000236177
0.00026624
0.000310675
0.0003491
0.000452126
0.000472527
0.000612537
0.000629289
0.000848952
0.000856165
0.00135625
0.00155751
0.00340591
0.0043749
0.00920034
0.0142174
0.0137726
3.78744e-05
4.14983e-05
4.61351e-05
5.08847e-05
5.65216e-05
6.20712e-05
6.77495e-05
7.33534e-05
7.83459e-05
8.48724e-05
9.01816e-05
9.60274e-05
0.000103932
0.000110273
0.000122908
0.00013618
0.000150292
0.000172305
0.000194644
0.000202878
0.000213316
0.00023083
0.000249227
0.00027379
0.000289403
0.000359643
0.000359719
0.000445098
0.000456872
0.000697077
0.000644459
0.00135115
0.00143122
0.00236176
0.00426267
0.00795691
0.0115332
0.0138061
3.57248e-05
3.87007e-05
4.24536e-05
4.7019e-05
5.20629e-05
5.84443e-05
6.4014e-05
7.00265e-05
7.58622e-05
8.12099e-05
8.78169e-05
9.44666e-05
9.93279e-05
0.000109286
0.000127628
0.000139886
0.000152586
0.000171341
0.000187655
0.00019971
0.000205004
0.000218189
0.000236013
0.000269482
0.000304337
0.000318169
0.000347805
0.000366263
0.000418096
0.000476161
0.000695138
0.000734692
0.00155231
0.00183013
0.00245082
0.00280032
0.00400229
0.00811121
3.44957e-05
3.70587e-05
4.01011e-05
4.36425e-05
4.73601e-05
5.20991e-05
5.65208e-05
6.21843e-05
6.75726e-05
7.26799e-05
8.04655e-05
8.71636e-05
9.30241e-05
0.000108751
0.000142422
0.000155604
0.00015953
0.000163409
0.000172143
0.000186677
0.000190367
0.000198533
0.000206655
0.00022626
0.000280006
0.000315127
0.000311424
0.00034828
0.000346691
0.000432795
0.000595297
0.000675058
0.00112762
0.00141041
0.0022144
0.00246029
0.00469894
0.00984137
3.26644e-05
3.4665e-05
3.70198e-05
3.98903e-05
4.26004e-05
4.67369e-05
4.98055e-05
5.43401e-05
5.93921e-05
6.27932e-05
7.11727e-05
7.82153e-05
8.67664e-05
0.000117904
0.000146001
0.000158614
0.000173754
0.000193542
0.000195299
0.000198781
0.000202061
0.000206074
0.000215787
0.000228349
0.00025182
0.000302735
0.000348617
0.000370222
0.000422312
0.000466129
0.000555296
0.000826028
0.000940202
0.00129007
0.00321718
0.00295571
0.00549254
0.0164209
2.97017e-05
3.11359e-05
3.30364e-05
3.48396e-05
3.69615e-05
3.92366e-05
4.22632e-05
4.42019e-05
4.85956e-05
5.17683e-05
5.66608e-05
6.29266e-05
7.84924e-05
0.000129876
0.000241591
0.000487947
0.000869504
0.00104346
0.000967137
0.000898413
0.000833703
0.000774897
0.000823193
0.00084603
0.000939168
0.00108773
0.001463
0.00150013
0.00169725
0.0018591
0.00255881
0.00275956
0.00417751
0.00556475
0.00656206
0.00880715
0.022678
0.0460302
2.4256e-05
2.49654e-05
2.62667e-05
2.73232e-05
2.82977e-05
2.97802e-05
3.2166e-05
3.20322e-05
3.71736e-05
3.68188e-05
3.87559e-05
4.93535e-05
9.39512e-05
0.000434493
0.00109407
0.00186758
0.00310926
0.0043447
0.00442847
0.00495792
0.00495456
0.00515442
0.00584597
0.0060878
0.00676729
0.00776478
0.00871785
0.00882832
0.0094301
0.0106506
0.012834
0.0134179
0.0153064
0.0144226
0.0163734
0.023224
0.0353857
0.0623982
1.6748e-05
1.73845e-05
1.80537e-05
1.88634e-05
1.96082e-05
2.04485e-05
2.1625e-05
2.23871e-05
2.32484e-05
2.52547e-05
2.57719e-05
2.70431e-05
0.000162206
0.0010126
0.00166123
0.00192061
0.00228551
0.00258561
0.00264074
0.00262156
0.00278982
0.00287666
0.00312343
0.00375778
0.00415751
0.00474826
0.00549364
0.00578085
0.00601115
0.00707779
0.00837621
0.00945327
0.0102449
0.0136995
0.0211894
0.0436121
0.105974
0.186061
2.24665e-05
3.72481e-05
5.40479e-05
0.000144063
0.00033616
0.000365209
0.000374472
0.000399977
0.000429074
0.000449897
0.000445758
0.000402007
0.00036893
0.000348023
0.000334418
0.000326524
0.000317783
0.000313255
0.000310993
0.000359771
0.00130479
0.00434347
0.00760471
0.0132458
0.0179405
0.0194055
0.0202572
0.020633
0.021208
0.0217584
0.0216128
0.0202192
0.0175161
0.0135296
0.0144101
0.0339217
0.121928
0.253657
6.04552e-05
6.69656e-05
7.56553e-05
0.000104717
0.000190187
0.000308873
0.000421904
0.000585809
0.000643967
0.000649663
0.000610529
0.000536405
0.000475953
0.000436771
0.000407863
0.000392607
0.000378418
0.000385354
0.000413448
0.000496163
0.00076143
0.00162904
0.00336069
0.00661417
0.0104127
0.012055
0.0142015
0.0164514
0.0144453
0.0142016
0.0151038
0.011403
0.00832657
0.00442796
0.00455694
0.00728659
0.025958
0.0886921
5.90168e-05
6.22247e-05
6.36593e-05
6.79894e-05
7.88675e-05
9.27952e-05
0.000101175
0.000125992
0.000149281
0.000161703
0.000160363
0.00015476
0.000150308
0.000150938
0.000153773
0.000159259
0.000169046
0.000184785
0.000213062
0.00026101
0.000340937
0.000449267
0.000652126
0.00103523
0.00177169
0.00219281
0.00225038
0.00250524
0.00234287
0.00193985
0.00198742
0.00212151
0.00264491
0.00247036
0.00310946
0.00629519
0.0277684
0.038374
4.72297e-05
5.32388e-05
5.73127e-05
6.20309e-05
6.84259e-05
7.14988e-05
7.48741e-05
7.76013e-05
8.19068e-05
8.68006e-05
9.15837e-05
9.73009e-05
0.0001078
0.000116044
0.000127005
0.000134645
0.000150914
0.000166329
0.000189771
0.000209575
0.000239036
0.000278765
0.000342806
0.000402125
0.000531186
0.00068506
0.000793399
0.000993751
0.0010738
0.00107651
0.00114253
0.00140234
0.00171174
0.00263301
0.00269083
0.00497973
0.013268
0.0147759
4.23429e-05
4.68835e-05
5.27963e-05
5.85512e-05
6.57866e-05
7.33198e-05
7.9631e-05
8.31756e-05
8.76314e-05
9.29975e-05
9.67274e-05
0.000102071
0.000108236
0.000114977
0.000125393
0.000136703
0.000148767
0.000169612
0.000198284
0.00021047
0.000224106
0.000243982
0.000268358
0.000306405
0.000353521
0.000455515
0.000492385
0.000626833
0.000644397
0.000852739
0.000815003
0.00142687
0.00133197
0.00270501
0.00324524
0.00646299
0.0101343
0.00988447
3.95238e-05
4.37436e-05
4.9017e-05
5.46422e-05
6.0984e-05
6.74065e-05
7.35782e-05
7.94131e-05
8.49587e-05
9.16282e-05
9.74515e-05
0.000103905
0.000112156
0.000119469
0.000132392
0.000146114
0.000160074
0.00017887
0.000199863
0.00020999
0.000219351
0.000238414
0.000254283
0.000278329
0.000294409
0.000347356
0.000354229
0.000404038
0.000432388
0.000533574
0.000543473
0.000866027
0.00100173
0.00163671
0.00279581
0.00559298
0.00853539
0.0075446
3.76552e-05
4.10079e-05
4.52118e-05
5.03414e-05
5.60374e-05
6.29936e-05
6.92374e-05
7.55765e-05
8.19165e-05
8.78024e-05
9.48142e-05
0.000101892
0.000107629
0.000117927
0.000134371
0.000148317
0.000161157
0.000177917
0.000193184
0.000204762
0.000210359
0.00022534
0.000239262
0.00026913
0.000292511
0.000315718
0.000342763
0.000357289
0.000401596
0.000445365
0.000555345
0.000625741
0.00131707
0.00146556
0.00177701
0.00267201
0.0038284
0.00586802
3.62525e-05
3.90807e-05
4.23998e-05
4.63493e-05
5.04856e-05
5.57363e-05
6.07866e-05
6.68287e-05
7.30595e-05
7.85666e-05