/*--------------------------------*- C++ -*----------------------------------*\
| =========                 |                                                 |
| \\      /  F ield         | OpenFOAM: The Open Source CFD Toolbox           |
|  \\    /   O peration     | Version:  2.3.1                                 |
|   \\  /    A nd           | Web:      www.OpenFOAM.org                      |
|    \\/     M anipulation  |                                                 |
\*---------------------------------------------------------------------------*/
FoamFile
{
    version     2.0;
    format      ascii;
    class       volScalarField;
    location    "10";
    object      nut;
}
// * * * * * * * * * * * * * * * * * * * * * * * * * * * * * * * * * * * * * //

dimensions      [0 2 -1 0 0 0 0];

internalField   nonuniform List<scalar> 
38262
(
1.89726e-05
1.88277e-05
1.86477e-05
1.82575e-05
1.84268e-05
1.85941e-05
1.83668e-05
1.83535e-05
1.86936e-05
1.86891e-05
1.76361e-05
1.66731e-05
1.6308e-05
1.61557e-05
1.61733e-05
1.62597e-05
1.64897e-05
1.806e-05
3.65816e-05
7.91955e-05
0.00010761
0.000114767
0.000120055
0.000132978
0.000136451
0.000137298
0.000141072
0.000149286
0.000151753
0.000156186
0.000150919
0.000164963
0.00016809
0.000176069
0.000202248
0.000220028
0.000321664
0.000623819
2.11887e-05
2.09116e-05
2.04482e-05
2.05673e-05
2.07331e-05
2.03575e-05
1.94401e-05
1.76442e-05
1.66942e-05
1.66769e-05
1.61047e-05
1.60249e-05
1.66658e-05
1.77347e-05
1.78131e-05
1.74435e-05
1.73988e-05
1.81161e-05
2.0902e-05
3.934e-05
6.56616e-05
8.04468e-05
8.96306e-05
0.000103511
0.00010208
0.000105426
0.000100828
9.79424e-05
9.18417e-05
0.000118975
0.000101323
0.00014542
0.000147406
0.000154075
0.000179007
0.000236118
0.000347927
0.000790821
1.76943e-05
1.70709e-05
1.64207e-05
1.59542e-05
1.58394e-05
1.52289e-05
1.44227e-05
1.36269e-05
1.2599e-05
1.19502e-05
1.14999e-05
1.12326e-05
1.12422e-05
1.16742e-05
1.17214e-05
1.17782e-05
1.28114e-05
1.62127e-05
1.71195e-05
2.07131e-05
2.97527e-05
3.92333e-05
4.2961e-05
5.03822e-05
4.07106e-05
4.37435e-05
3.70547e-05
3.62014e-05
3.67084e-05
6.2487e-05
6.07321e-05
9.66275e-05
0.000114888
0.000155713
0.000166898
0.000220805
0.000300939
0.000753135
1.02727e-05
1.06744e-05
1.08374e-05
1.08254e-05
1.08503e-05
1.07101e-05
1.02861e-05
1.00687e-05
9.82606e-06
9.52819e-06
9.61589e-06
9.77613e-06
9.76288e-06
9.68953e-06
9.8107e-06
1.04001e-05
1.07612e-05
1.18262e-05
1.40107e-05
1.59678e-05
1.84045e-05
2.21546e-05
2.45083e-05
2.73922e-05
2.45255e-05
2.65085e-05
2.57974e-05
2.8173e-05
2.82618e-05
3.51433e-05
3.83078e-05
6.89472e-05
0.000126326
0.000106395
0.000107966
0.000154709
0.000354607
0.000759982
5.94559e-06
6.33071e-06
6.61526e-06
6.88993e-06
6.9879e-06
7.18602e-06
7.28952e-06
7.48399e-06
7.68915e-06
7.9264e-06
8.2453e-06
8.41593e-06
8.85805e-06
9.2335e-06
9.77108e-06
9.93001e-06
1.17722e-05
1.20634e-05
1.21446e-05
1.34712e-05
1.54626e-05
1.67731e-05
1.85181e-05
2.00518e-05
1.95019e-05
2.04755e-05
2.4559e-05
2.35846e-05
2.90805e-05
3.01902e-05
3.17583e-05
4.54605e-05
9.01739e-05
7.87315e-05
9.27775e-05
0.00013312
0.000387035
0.000738244
5.31479e-06
5.51001e-06
5.77865e-06
5.96661e-06
6.30805e-06
6.5284e-06
6.85416e-06
7.08573e-06
7.47351e-06
7.78145e-06
8.00929e-06
8.52572e-06
8.71026e-06
9.02221e-06
9.61785e-06
9.78648e-06
1.03476e-05
1.11358e-05
1.1531e-05
1.25999e-05
1.37211e-05
1.41516e-05
1.53219e-05
1.59821e-05
1.73712e-05
1.83746e-05
2.21736e-05
2.28431e-05
2.73886e-05
2.78971e-05
3.16667e-05
3.61628e-05
4.83727e-05
7.12256e-05
8.89027e-05
0.000205524
0.000419699
0.000680039
5.24125e-06
5.41327e-06
5.60419e-06
5.83328e-06
6.01936e-06
6.36368e-06
6.55958e-06
6.97494e-06
7.19104e-06
7.61263e-06
8.02574e-06
8.19025e-06
8.76156e-06
9.03391e-06
9.48563e-06
1.00457e-05
1.06502e-05
1.08469e-05
1.15341e-05
1.20525e-05
1.3163e-05
1.38768e-05
1.43044e-05
1.48774e-05
1.67744e-05
1.91771e-05
2.14517e-05
2.38711e-05
2.91927e-05
3.23754e-05
3.81484e-05
5.02097e-05
5.91291e-05
8.10299e-05
9.67703e-05
0.000180467
0.000400104
0.000680664
5.28024e-06
5.44515e-06
5.65917e-06
5.8361e-06
6.13246e-06
6.30349e-06
6.65989e-06
6.85371e-06
7.20361e-06
7.44089e-06
7.83447e-06
8.03261e-06
8.52614e-06
8.70917e-06
9.49801e-06
9.83963e-06
1.03578e-05
1.06866e-05
1.15324e-05
1.22304e-05
1.26037e-05
1.3762e-05
1.38873e-05
1.44897e-05
1.81189e-05
2.512e-05
3.22646e-05
3.6508e-05
3.96589e-05
4.51682e-05
5.84297e-05
8.22932e-05
0.000100204
0.000104884
0.000104385
0.000145614
0.00034606
0.000698107
5.2491e-06
5.42142e-06
5.57747e-06
5.82249e-06
5.96065e-06
6.26814e-06
6.40733e-06
6.79042e-06
6.89501e-06
7.29606e-06
7.48548e-06
7.82861e-06
8.01469e-06
8.53243e-06
9.29436e-06
1.02255e-05
1.06437e-05
1.1573e-05
1.28745e-05
1.29306e-05
1.30325e-05
1.34832e-05
1.37911e-05
1.41733e-05
1.55093e-05
1.92659e-05
2.48415e-05
3.05381e-05
3.43192e-05
3.67427e-05
4.35958e-05
5.12649e-05
7.05727e-05
8.20262e-05
8.99618e-05
0.000107018
0.000272065
0.000694059
5.19874e-06
5.3602e-06
5.52659e-06
5.74625e-06
5.88292e-06
6.19887e-06
6.29817e-06
6.69414e-06
6.77416e-06
7.05012e-06
7.47292e-06
7.45344e-06
7.62142e-06
8.7666e-06
1.16972e-05
1.41491e-05
1.68715e-05
2.12035e-05
2.08608e-05
1.9343e-05
1.77441e-05
1.5692e-05
1.55733e-05
1.47883e-05
1.77699e-05
2.66758e-05
3.24975e-05
3.82632e-05
4.02353e-05
4.7212e-05
5.39168e-05
7.21815e-05
8.42378e-05
0.000104626
0.000130062
0.000169556
0.000292632
0.000595621
5.00225e-06
5.18026e-06
5.28571e-06
5.54375e-06
5.63391e-06
5.9603e-06
5.98804e-06
6.35518e-06
6.40847e-06
6.53422e-06
6.89293e-06
6.77673e-06
7.01397e-06
1.4188e-05
2.13052e-05
2.43685e-05
2.98024e-05
3.37642e-05
3.8981e-05
3.85106e-05
3.64004e-05
3.36301e-05
3.4468e-05
3.2808e-05
2.59949e-05
2.75627e-05
3.17007e-05
3.84546e-05
4.17659e-05
4.81848e-05
5.44303e-05
6.95366e-05
7.64571e-05
9.16935e-05
0.000107157
0.000136775
0.000186267
0.000355178
4.35135e-06
4.49102e-06
4.55951e-06
4.74361e-06
4.78541e-06
5.06501e-06
5.04052e-06
5.38365e-06
5.40937e-06
5.46576e-06
5.8387e-06
5.67688e-06
8.52056e-06
2.45697e-05
3.10629e-05
3.21329e-05
3.3394e-05
3.46114e-05
3.4338e-05
3.33257e-05
3.3304e-05
3.27969e-05
3.31061e-05
3.52324e-05
3.63687e-05
3.78406e-05
4.25831e-05
4.71493e-05
5.23042e-05
6.16316e-05
7.01958e-05
8.54541e-05
9.89989e-05
0.000137499
0.000222423
0.0003246
0.000428762
0.000588026
4.39504e-05
4.4836e-05
4.49407e-05
4.42158e-05
4.37449e-05
4.56272e-05
4.60551e-05
4.51756e-05
4.68896e-05
4.77525e-05
4.64288e-05
4.44371e-05
4.32074e-05
4.23395e-05
4.20548e-05
4.15776e-05
4.14749e-05
4.24039e-05
6.90616e-05
0.000164382
0.000249074
0.000266263
0.000270733
0.000294782
0.000316303
0.000318623
0.000318196
0.000338438
0.000358691
0.000371019
0.000374761
0.000401973
0.000408249
0.000408256
0.000439718
0.000477916
0.000885192
0.00154408
6.28403e-05
6.63639e-05
6.64451e-05
6.68808e-05
6.64306e-05
6.77983e-05
6.86268e-05
6.08951e-05
5.49865e-05
5.37029e-05
5.14786e-05
5.21828e-05
5.72355e-05
6.11277e-05
6.32804e-05
6.00719e-05
5.61726e-05
6.02982e-05
6.90108e-05
9.03666e-05
0.000150108
0.000230734
0.000282727
0.000323853
0.00035244
0.000370697
0.000324366
0.000353601
0.000329096
0.000332849
0.000388197
0.000438454
0.000435276
0.00050808
0.000493341
0.000463693
0.000650428
0.00204337
3.85823e-05
4.00307e-05
4.1324e-05
4.12377e-05
4.26217e-05
4.19544e-05
3.92802e-05
3.77025e-05
3.06082e-05
2.76658e-05
2.47208e-05
2.51543e-05
2.51062e-05
2.71752e-05
2.97081e-05
2.72743e-05
2.74675e-05
3.09827e-05
4.42969e-05
5.47822e-05
5.23325e-05
6.44768e-05
8.96088e-05
9.76514e-05
9.28719e-05
8.20178e-05
6.23494e-05
7.1334e-05
9.24751e-05
9.32758e-05
0.000148906
0.000256873
0.000202097
0.000323142
0.000392159
0.000732144
0.000636539
0.00209098
1.24571e-05
1.35751e-05
1.46109e-05
1.55824e-05
1.69357e-05
1.7738e-05
1.87378e-05
1.96098e-05
1.95991e-05
2.092e-05
2.28005e-05
2.29506e-05
2.05131e-05
1.86963e-05
2.18797e-05
2.72024e-05
3.01125e-05
2.74665e-05
2.90465e-05
4.12596e-05
4.1182e-05
4.01034e-05
4.1003e-05
4.12524e-05
4.26224e-05
5.08279e-05
6.99185e-05
9.36186e-05
0.000131722
0.000181802
0.00024001
0.000426103
0.000396815
0.000203351
0.000242154
0.000515783
0.000437705
0.000623576
1.53918e-05
1.49621e-05
1.58706e-05
1.64256e-05
1.78563e-05
1.97387e-05
2.14998e-05
2.61502e-05
2.82821e-05
3.18224e-05
3.59776e-05
3.6557e-05
4.02571e-05
4.59753e-05
4.66061e-05
5.44302e-05
8.97269e-05
5.39856e-05
2.72973e-05
2.61099e-05
4.06665e-05
4.75223e-05
5.09636e-05
5.5069e-05
6.06667e-05
7.50894e-05
0.000114563
0.000102498
0.000142788
0.000165717
0.00016961
0.000236699
0.000214461
0.000169375
0.000199491
0.000235829
0.000365725
0.000544787
2.98761e-05
3.04184e-05
3.19551e-05
3.3594e-05
3.56465e-05
3.91467e-05
4.07598e-05
4.46252e-05
4.71699e-05
4.89721e-05
5.39296e-05
5.51667e-05
4.95762e-05
6.04951e-05
5.97935e-05
5.57735e-05
6.1614e-05
7.87508e-05
5.89719e-05
5.09295e-05
4.88795e-05
4.32155e-05
4.82557e-05
4.55995e-05
6.50912e-05
5.68365e-05
0.000112354
9.4818e-05
0.000115961
9.9822e-05
0.000166822
0.000132946
0.000200092
0.000215158
0.000185634
0.000167871
0.000351562
0.000664855
3.05039e-05
3.15255e-05
3.38691e-05
3.51372e-05
3.89322e-05
4.01211e-05
4.51861e-05
4.70905e-05
5.14264e-05
5.29345e-05
5.54979e-05
5.86394e-05
5.93628e-05
6.0893e-05
6.84966e-05
7.01838e-05
6.98844e-05
7.48936e-05
7.73378e-05
6.41447e-05
7.10707e-05
6.46266e-05
7.0635e-05
6.9438e-05
0.000106431
0.000103907
0.000124516
0.000133409
0.000137788
0.000131565
0.000156999
0.000169404
0.00025269
0.000199294
0.000265098
0.000257042
0.000249925
0.000821669
3.14247e-05
3.25633e-05
3.43474e-05
3.59672e-05
3.78448e-05
4.07591e-05
4.18743e-05
4.62159e-05
4.62874e-05
4.90709e-05
5.38778e-05
5.53408e-05
5.59094e-05
6.19566e-05
7.19582e-05
6.02654e-05
5.58493e-05
5.36421e-05
6.27332e-05
5.05174e-05
6.05335e-05
6.64804e-05
7.92335e-05
5.63391e-05
3.84823e-05
5.7457e-05
8.58269e-05
8.83621e-05
9.35484e-05
0.000106799
0.000132482
0.00015943
0.000192353
0.000207941
0.000294885
0.000230625
0.00019733
0.000800234
2.97792e-05
3.03588e-05
3.22274e-05
3.25707e-05
3.52456e-05
3.53676e-05
3.76881e-05
3.91371e-05
4.08762e-05
4.24889e-05
4.63038e-05
4.57633e-05
4.73612e-05
5.73733e-05
3.90546e-05
3.0491e-05
2.33632e-05
2.01602e-05
2.46476e-05
2.71469e-05
3.485e-05
4.34894e-05
5.10968e-05
5.14343e-05
3.98221e-05
3.65687e-05
4.46497e-05
4.8882e-05
5.65346e-05
6.31482e-05
7.29602e-05
8.87779e-05
9.54041e-05
0.000115047
0.00018928
0.000270482
0.000225845
0.000668585
2.72449e-05
2.7681e-05
2.90462e-05
2.93598e-05
3.10718e-05
3.13281e-05
3.1896e-05
3.59731e-05
3.43498e-05
3.80479e-05
3.85691e-05
3.54841e-05
3.7796e-05
2.92116e-05
2.03875e-05
2.77052e-05
3.79947e-05
5.68052e-05
5.62459e-05
5.19363e-05
4.60383e-05
3.86299e-05
4.05605e-05
3.09777e-05
3.51044e-05
4.77363e-05
6.51864e-05
7.67017e-05
8.57759e-05
0.000116886
0.000132816
0.000193105
0.00024458
0.000291338
0.000391542
0.000412558
0.000358262
0.000609306
2.05122e-05
2.0573e-05
2.1553e-05
2.12299e-05
2.27919e-05
2.21551e-05
2.19102e-05
2.55363e-05
2.06443e-05
2.56035e-05
2.25575e-05
1.99924e-05
2.20041e-05
2.58417e-05
4.85098e-05
8.42968e-05
0.000119918
0.000171082
0.000199602
0.000198021
0.000183638
0.000162261
0.00016117
0.000144427
9.71826e-05
9.70224e-05
0.000108337
0.000139388
0.000174588
0.000197293
0.000251609
0.000334805
0.000219727
0.000213193
0.000296159
0.000450025
0.000595
0.000703477
9.62523e-06
9.80693e-06
1.00262e-05
1.02315e-05
1.04289e-05
1.0784e-05
1.08827e-05
1.13412e-05
1.14527e-05
1.16761e-05
1.22484e-05
1.21022e-05
1.42127e-05
5.3025e-05
7.9903e-05
8.60797e-05
9.04622e-05
9.89266e-05
0.000100438
9.50845e-05
9.56919e-05
9.23014e-05
8.61755e-05
8.53278e-05
8.72481e-05
9.17262e-05
0.000102512
0.00011386
0.000124812
0.000144174
0.000166432
0.000195774
0.000220197
0.000291606
0.000458845
0.000695255
0.000925291
0.00127943
4.03248e-05
4.37831e-05
4.48082e-05
4.60015e-05
4.65611e-05
4.81001e-05
4.88285e-05
4.85437e-05
4.95954e-05
5.02893e-05
4.93059e-05
4.71708e-05
4.58232e-05
4.48635e-05
4.45292e-05
4.39318e-05
4.32791e-05
4.33887e-05
6.04315e-05
0.000151343
0.000256375
0.000281742
0.000287448
0.000297509
0.000325425
0.000332691
0.000334115
0.000346751
0.000362638
0.000378979
0.000388869
0.000393254
0.000405209
0.000403561
0.00039823
0.000516969
0.0010273
0.00154087
5.55157e-05
5.48181e-05
5.73934e-05
6.17881e-05
6.58965e-05
7.30937e-05
8.06634e-05
8.14025e-05
7.91934e-05
7.7578e-05
7.41977e-05
6.79987e-05
6.73402e-05
6.86343e-05
7.23105e-05
7.25812e-05
6.84306e-05
7.16503e-05
7.88995e-05
9.44323e-05
0.000147385
0.000239105
0.000293903
0.000332279
0.000360627
0.000362386
0.000351154
0.000385634
0.0003272
0.000296855
0.000324058
0.000313304
0.000351314
0.000374118
0.000340097
0.000639161
0.000669939
0.00152528
3.16695e-05
3.27123e-05
3.43988e-05
3.56412e-05
3.86888e-05
4.07982e-05
4.03299e-05
4.0405e-05
3.95816e-05
3.77351e-05
3.40169e-05
3.23809e-05
3.21811e-05
3.17948e-05
3.61548e-05
3.69655e-05
3.8872e-05
4.24251e-05
5.12671e-05
6.21759e-05
5.05023e-05
5.95699e-05
8.74959e-05
9.98171e-05
9.53541e-05
8.1836e-05
7.55002e-05
7.35016e-05
9.70021e-05
0.000121342
0.000145278
0.000231783
0.000219385
0.000336651
0.000291721
0.000549741
0.00087157
0.00100819
2.37099e-05
2.31158e-05
2.45804e-05
2.5143e-05
2.70514e-05
2.72095e-05
2.83655e-05
3.09388e-05
3.19544e-05
3.47792e-05
4.03032e-05
4.41657e-05
4.47619e-05
4.26726e-05
4.39759e-05
4.90342e-05
5.4309e-05
5.36905e-05
5.53025e-05
5.80724e-05
5.26813e-05
4.14521e-05
3.83551e-05
3.89837e-05
4.44603e-05
5.46689e-05
7.55709e-05
9.63255e-05
0.00014918
0.000176998
0.000271095
0.000356887
0.000289044
0.000272538
0.000316643
0.000445802
0.000549934
0.00040838
4.41908e-05
4.25272e-05
4.44316e-05
4.39852e-05
4.84552e-05
4.94464e-05
5.23299e-05
5.96712e-05
6.31278e-05
7.03992e-05
7.77774e-05
8.10646e-05
8.84895e-05
9.41451e-05
0.000101801
0.000110658
0.000128526
0.000109666
7.38743e-05
7.02259e-05
7.35897e-05
7.06266e-05
7.28961e-05
8.6397e-05
8.25052e-05
0.000122196
0.000141164
0.000164687
0.000201828
0.00019901
0.000238182
0.000366991
0.00029552
0.000202798
0.000230143
0.000245486
0.000546433
0.000289331
6.65155e-05
6.87254e-05
7.26341e-05
7.56702e-05
8.16678e-05
8.59462e-05
9.09063e-05
9.71687e-05
0.000102228
0.000109344
0.000115594
0.000120987
0.000126098
0.000132612
0.000138148
0.000142684
0.000150146
0.000165809
0.000137171
0.00012688
0.000124106
0.000105764
0.000111284
0.000114709
0.000123978
0.000147443
0.000164977
0.00016611
0.000171009
0.000178251
0.000224091
0.000214279
0.00031176
0.000206279
0.000209798
0.00022218
0.00026073
0.000178547
6.78734e-05
7.1552e-05
7.6719e-05
8.13545e-05
8.90383e-05
9.42606e-05
0.000101854
0.000108951
0.000114452
0.000121102
0.000125732
0.000132515
0.000135581
0.000141294
0.000153628
0.000156331
0.000157235
0.000161868
0.000165391
0.000148622
0.00015524
0.000148773
0.000155542
0.000154979
0.000188468
0.000178066
0.000180595
0.000186334
0.000163181
0.000170984
0.000171288
0.000181261
0.000243109
0.000168474
0.000223959
0.000202677
0.000145121
0.000212904
6.86312e-05
7.21944e-05
7.6773e-05
8.10993e-05
8.70954e-05
9.20065e-05
9.74567e-05
0.000105518
0.000108068
0.000116273
0.000121899
0.00012531
0.000127365
0.000136575
0.000149092
0.000130368
0.000115818
0.000106564
0.000106422
0.000109539
0.000120754
0.000130437
0.000157444
0.000139801
6.32394e-05
6.99851e-05
8.35768e-05
7.70683e-05
8.78167e-05
9.17479e-05
0.000110054
0.000116861
0.000152826
0.000149214
0.000247117
0.000231495
0.000164638
0.000270715
6.36998e-05
6.63166e-05
7.03799e-05
7.27489e-05
7.83986e-05
8.13629e-05
8.48933e-05
9.21844e-05
9.28107e-05
9.74006e-05
0.000104795
0.000105054
0.000106925
0.000114743
7.2996e-05
4.95656e-05
3.36956e-05
2.81575e-05
3.34291e-05
4.08196e-05
5.19515e-05
6.95647e-05
8.21033e-05
8.61842e-05
6.95694e-05
6.2918e-05
6.67085e-05
6.92459e-05
7.02433e-05
8.24381e-05
9.8592e-05
0.00013321
0.000130893
0.000155316
0.000203542
0.000259122
0.000304828
0.000323412
5.50362e-05
5.67151e-05
6.00519e-05
6.14159e-05
6.54694e-05
6.6619e-05
6.90925e-05
7.48274e-05
7.2413e-05
7.82307e-05
7.76705e-05
7.27327e-05
6.96519e-05
4.00828e-05
2.53449e-05
3.68875e-05
5.0897e-05
7.72979e-05
7.60969e-05
7.05574e-05
6.54449e-05
5.57154e-05
5.56065e-05
5.18947e-05
5.03666e-05
5.11317e-05
6.05161e-05
7.11979e-05
7.91165e-05
0.000101226
0.000122294
0.000194852
0.000258185
0.000337543
0.000422008
0.000499151
0.000495223
0.00063913
3.61304e-05
3.66445e-05
3.86226e-05
3.83758e-05
4.18183e-05
3.97331e-05
4.19637e-05
4.27691e-05
3.63434e-05
4.35557e-05
3.65621e-05
3.19322e-05
3.39532e-05
3.00538e-05
5.61143e-05
0.000101272
0.000155477
0.000234727
0.000254621
0.000254413
0.000240534
0.00022247
0.000223129
0.000216292
0.000209049
0.000212759
0.000234627
0.00025766
0.000272831
0.000311176
0.000353925
0.000451251
0.000381651
0.000325467
0.000385474
0.000528125
0.000648178
0.000870428
1.00592e-05
1.02235e-05
1.04853e-05
1.06284e-05
1.0941e-05
1.11756e-05
1.1341e-05
1.1844e-05
1.19304e-05
1.22286e-05
1.2669e-05
1.26113e-05
1.51774e-05
5.80691e-05
8.88275e-05
9.693e-05
0.000102601
0.000111709
0.000113757
0.000109919
0.000110375
0.000107795
0.00010478
0.000109256
0.000114921
0.000121001
0.000134436
0.000146629
0.000152869
0.000171502
0.000193078
0.000221422
0.000239854
0.000299924
0.000443909
0.000691653
0.000921667
0.00121491
2.69401e-05
3.79832e-05
4.26918e-05
4.55174e-05
4.76e-05
4.83338e-05
4.93356e-05
4.95961e-05
5.05263e-05
5.12455e-05
5.05655e-05
4.83617e-05
4.67567e-05
4.56741e-05
4.51427e-05
4.46085e-05
4.38683e-05
4.34436e-05
4.97708e-05
0.000117322
0.000241697
0.000284087
0.000295248
0.000302203
0.00032533
0.00034021
0.000343927
0.000351082
0.000366036
0.000377204
0.000379936
0.000370434
0.000391046
0.00036675
0.000335513
0.000432435
0.000876368
0.00147894
3.75329e-05
4.15636e-05
4.3131e-05
4.66367e-05
5.30921e-05
6.37296e-05
7.72227e-05
8.72764e-05
8.83559e-05
8.91253e-05
8.60349e-05
7.80279e-05
7.45021e-05
7.36729e-05
7.42841e-05
7.50674e-05
7.35084e-05
7.73956e-05
8.37633e-05
9.44339e-05
0.000124614
0.000209564
0.000270775
0.000303751
0.000322903
0.00032985
0.000348942
0.000387649
0.000329476
0.000298214
0.000297574
0.000289821
0.000324623
0.000254905
0.000272794
0.000400769
0.000571415
0.00122009
2.21838e-05
2.78291e-05
3.03951e-05
3.19587e-05
3.52804e-05
3.81269e-05
3.8157e-05
3.85155e-05
3.92593e-05
3.93344e-05
3.88702e-05
3.85515e-05
4.13999e-05
4.31406e-05
4.72664e-05
4.92511e-05
5.37806e-05
5.85518e-05
6.46532e-05
7.27925e-05
5.2205e-05
5.02775e-05
6.60352e-05
8.1685e-05
8.85379e-05
8.34337e-05
7.96689e-05
8.08019e-05
9.87537e-05
0.000111129
0.000131784
0.000331455
0.000233989
0.000237235
0.000267646
0.000333346
0.000654221
0.00105606
4.48969e-05
4.21052e-05
4.18754e-05
3.86459e-05
3.76023e-05
3.45692e-05
3.5866e-05
3.78721e-05
4.05936e-05
4.55879e-05
5.22424e-05
5.82472e-05
6.93106e-05
7.25141e-05
7.8377e-05
8.36941e-05
9.05458e-05
9.22139e-05
9.80957e-05
9.79784e-05
8.7306e-05
5.60872e-05
4.58974e-05
4.41149e-05
4.93301e-05
5.988e-05
7.72788e-05
9.9086e-05
0.000141542
0.000170086
0.00023597
0.000511103
0.000347991
0.000302449
0.000312709
0.000338955
0.000581944
0.000515506
7.69889e-05
7.58022e-05
7.80768e-05
7.42559e-05
8.05536e-05
7.75478e-05
8.04456e-05
8.74643e-05
9.15734e-05
9.99502e-05
0.000108479
0.00011509
0.000123408
0.000130581
0.000139299
0.000152824
0.00016325
0.000164324
0.000145223
0.000142213
0.000144643
0.000131392
0.000121851
0.000135825
0.000125098
0.000156959
0.000166608
0.0002063
0.000189619
0.000206513
0.000229058
0.000339136
0.000319003
0.000252922
0.000259205
0.000267655
0.000409618
0.000411142
9.78192e-05
0.00010194
0.000107781
0.0001114
0.000119438
0.000123476
0.000129101
0.000136761
0.000142682
0.000150845
0.000158507
0.000167227
0.000175836
0.000182575
0.000194168
0.000202755
0.000210142
0.000224933
0.000210795
0.000203292
0.000204356
0.000184447
0.000190994
0.000187841
0.000190701
0.000210172
0.000212147
0.000228385
0.000218367
0.000243725
0.000247725
0.000279255
0.000292539
0.000252861
0.000209268
0.000292811
0.000205123
0.000318397
9.92919e-05
0.000104817
0.000111995
0.000118439
0.000128569
0.000135561
0.000145303
0.000153883
0.000161246
0.000169756
0.000176234
0.000185329
0.000189921
0.0001979
0.00021135
0.00021162
0.000213281
0.000214279
0.000216517
0.000208
0.00021079
0.000208263
0.000213174
0.000220557
0.000236037
0.000227176
0.000232756
0.00023104
0.000229745
0.000227792
0.000282966
0.000239214
0.000248447
0.000182052
0.000162043
0.000180576
0.000207975
0.000159482
9.83408e-05
0.000103502
0.000109773
0.00011564
0.000123757
0.000130049
0.000138589
0.000147625
0.000153521
0.000163324
0.000169781
0.000175675
0.000178105
0.000186371
0.000194983
0.000159775
0.000147243
0.000126762
0.000125882
0.000141641
0.000151379
0.000159597
0.000171358
0.000175563
0.000138398
0.000145923
0.000155092
0.000160495
0.000164261
0.000165532
0.000228887
0.000164501
0.000123725
0.000141527
0.000166561
0.000181313
0.000206928
0.000211919
8.99226e-05
9.38705e-05
9.90697e-05
0.000103025
0.00010978
0.000114587
0.000119836
0.000128002
0.000131514
0.000136723
0.00014581
0.00014715
0.000145604
0.000136028
8.19091e-05
5.34609e-05
3.67823e-05
3.31246e-05
3.7174e-05
4.66563e-05
5.86918e-05
7.45954e-05
8.34043e-05
8.983e-05
8.41596e-05
8.90297e-05
8.68707e-05
9.14659e-05
9.79471e-05
0.000109627
0.000112784
0.000145606
0.000132601
0.000139522
0.000191543
0.000232707
0.000325779
0.000328186
7.42892e-05
7.68252e-05
8.08631e-05
8.25246e-05
8.83268e-05
8.90305e-05
9.40847e-05
9.75247e-05
9.58623e-05
0.000104051
0.000101292
9.65179e-05
8.79631e-05
3.72766e-05
2.7379e-05
4.43374e-05
6.29449e-05
9.0356e-05
8.77559e-05
8.19689e-05
7.67794e-05
6.77942e-05
6.76883e-05
6.53523e-05
6.54061e-05
6.85811e-05
8.36703e-05
9.00434e-05
0.000100204
0.000113131
0.000137783
0.000183484
0.000263833
0.000315879
0.000372775
0.000502001
0.000633667
0.000608033
4.47437e-05
4.55427e-05
4.78517e-05
4.72121e-05
5.12852e-05
4.74411e-05
5.32708e-05
4.95767e-05
4.6076e-05
5.03901e-05
4.31608e-05
4.07119e-05
3.91205e-05
3.48194e-05
6.71505e-05
0.000115342
0.000186925
0.000274374
0.000286486
0.000292166
0.000279562
0.000269958
0.000278316
0.00027704
0.000282367
0.00030112
0.000329194
0.000338748
0.000354584
0.000389823
0.000445394
0.000502515
0.000489243
0.000442456
0.00047371
0.00056732
0.000675596
0.000947257
1.02532e-05
1.04319e-05
1.06738e-05
1.08279e-05
1.11511e-05
1.13122e-05
1.16299e-05
1.19956e-05
1.20854e-05
1.25181e-05
1.28038e-05
1.28564e-05
2.0278e-05
6.76034e-05
9.63924e-05
0.000104691
0.000112139
0.00012092
0.000122617
0.000120476
0.000122157
0.000121947
0.000122588
0.000133768
0.000141331
0.000149793
0.000164265
0.000171927
0.000176056
0.000193964
0.00021428
0.000236203
0.000249909
0.000300348
0.00040796
0.000646901
0.00090648
0.00113383
1.4827e-05
2.06272e-05
3.29578e-05
4.27735e-05
4.75989e-05
4.83638e-05
4.91038e-05
4.97867e-05
5.11287e-05
5.20471e-05
5.16518e-05
4.93626e-05
4.74595e-05
4.62142e-05
4.54124e-05
4.48863e-05
4.42061e-05
4.3773e-05
4.46738e-05
7.16596e-05
0.000174967
0.000255201
0.000283017
0.000305709
0.000328047
0.000345135
0.000351466
0.000355262
0.000365783
0.000371371
0.000369021
0.000361529
0.000361492
0.000317974
0.000305417
0.000418686
0.000870946
0.00135976
3.42267e-05
3.3194e-05
3.28122e-05
3.61006e-05
4.63517e-05
5.45641e-05
6.96148e-05
8.71323e-05
9.37715e-05
9.70493e-05
9.37073e-05
8.64238e-05
7.94457e-05
7.66141e-05
7.53893e-05
7.5978e-05
7.52433e-05
7.94864e-05
8.35058e-05
9.18371e-05
9.95065e-05
0.000150495
0.000221029
0.00027209
0.000297564
0.00031312
0.000347877
0.000391201
0.000356542
0.000350123
0.000337415
0.000270216
0.000290768
0.000195132
0.000245367
0.00033929
0.000582552
0.00105762
4.13467e-05
3.98887e-05
3.5645e-05
3.10926e-05
2.81683e-05
3.02815e-05
3.11364e-05
3.24103e-05
3.71605e-05
3.84802e-05
3.99171e-05
4.13096e-05
4.5795e-05
4.94313e-05
5.44322e-05
5.84954e-05
6.41151e-05
7.12351e-05
7.74361e-05
8.53002e-05
7.19977e-05
5.06301e-05
5.51033e-05
6.69077e-05
8.47524e-05
9.05448e-05
9.11726e-05
9.60535e-05
0.000104853
0.000104421
0.000119401
0.000243437
0.000208728
0.000237852
0.000310038
0.000421828
0.000746135
0.00118892
6.88672e-05
6.99164e-05
6.54468e-05
5.66478e-05
5.27527e-05
4.58048e-05
4.62114e-05
4.71694e-05
4.9097e-05
5.40107e-05
5.97158e-05
6.73797e-05
8.22656e-05
8.95095e-05
9.96371e-05
0.000105369
0.000115175
0.00012169
0.000130046
0.000128344
0.000124194
9.63539e-05
7.51e-05
6.36956e-05
6.20255e-05
7.36702e-05
9.5883e-05
0.000109589
0.000140339
0.000157378
0.00018608
0.000301381
0.000277251
0.000310882
0.000396831
0.000338053
0.000554482
0.000749844
0.000103526
0.000105607
0.000109322
0.000105114
0.000111324
0.000106001
0.000107525
0.000112521
0.000115702
0.00012219
0.000129158
0.000138267
0.000146039
0.000154264
0.000165372
0.000177965
0.000186378
0.000197642
0.000195893
0.000192829
0.000191886
0.000182738
0.000169699
0.000171628
0.000152899
0.00016797
0.000169453
0.000183591
0.00017675
0.000217121
0.000212935
0.000257904
0.000274976
0.000349543
0.000305051
0.000285833
0.000525967
0.000651338
0.000121881
0.000127884
0.000135677
0.000140361
0.000149525
0.000153908
0.000158595
0.000165804
0.000170816
0.000178004
0.00018572
0.000195337
0.000205585
0.000212791
0.000225557
0.00023428
0.000242308
0.000251988
0.000249421
0.000244005
0.0002441
0.000232296
0.000232888
0.000228154
0.000221522
0.000229319
0.000219491
0.000214482
0.000204026
0.000229336
0.000209532
0.000250289
0.000263714
0.000328431
0.000198936
0.000499957
0.000500827
0.000720144
0.00012315
0.000129976
0.000138449
0.00014635
0.000158048
0.000166304
0.000176326
0.000185209
0.00019314
0.000201454
0.000208689
0.000218272
0.000222696
0.000229804
0.000239713
0.000237093
0.000237119
0.00023565
0.000235433
0.00023325
0.000232638
0.000232397
0.000234439
0.000245074
0.000249727
0.000240267
0.000240203
0.000232294
0.000229465
0.000221122
0.000253274
0.000224054
0.00025436
0.000238063
0.000137311
0.000230655
0.000317361
0.000407558
0.000120135
0.00012624
0.00013344
0.000140345
0.000149884
0.000157372
0.000167298
0.000176689
0.00018402
0.000193383
0.000199676
0.000205844
0.000205888
0.000207126
0.000205492
0.000165178
0.000152848
0.000131444
0.000132774
0.000149175
0.00015563
0.000164687
0.000168131
0.000176078
0.000189495
0.000199778
0.000189927
0.000194632
0.000178951
0.000187796
0.000210425
0.000180389
0.0001561
0.00017016
0.000147339
0.000203097
0.000263411
0.000396539
0.000108477
0.00011312
0.000118841
0.000123813
0.000131279
0.000137156
0.000143855
0.000151645
0.000156823
0.000161119
0.00016919
0.000170006
0.000160995
0.000126425
7.04243e-05
5.01428e-05
3.53732e-05
3.64764e-05
3.9701e-05
4.97241e-05
5.99093e-05
7.20749e-05
7.78307e-05
8.28408e-05
8.53251e-05
9.7819e-05
8.74995e-05
8.94793e-05
8.52666e-05
8.99391e-05
9.12571e-05
0.000108578
0.000108452
0.000118694
0.00017318
0.000193709
0.000295853
0.000539959
8.6702e-05
8.96938e-05
9.38804e-05
9.6415e-05
0.000102124
0.000103425
0.00010955
0.00011105
0.00011276
0.000116201
0.000113288
0.000107918
8.99174e-05
3.02923e-05
2.82889e-05
5.19698e-05
7.67386e-05
0.000100176
9.56548e-05
9.13562e-05
8.58143e-05
7.96132e-05
8.09e-05
8.0029e-05
8.23067e-05
8.94107e-05
0.000108946
0.000110725
0.000120634
0.000126773
0.000158426
0.000169499
0.000229934
0.00030904
0.000346215
0.000423286
0.000714073
0.000722207
4.95669e-05
5.05061e-05
5.28825e-05
5.29282e-05
5.5056e-05
5.3471e-05
5.92029e-05
5.38847e-05
5.45957e-05
5.19349e-05
4.61317e-05
4.55882e-05
3.59306e-05
4.42203e-05
8.49975e-05
0.000129332
0.000219501
0.000302176
0.000311954
0.000323198
0.000313033
0.000313194
0.000328618
0.000329698
0.000343527
0.000369546
0.000394741
0.000399143
0.000417488
0.000451258
0.000509505
0.000526754
0.000561747
0.000534843
0.000563785
0.000626032
0.000692677
0.000957813
1.0339e-05
1.05337e-05
1.07346e-05
1.09728e-05
1.11873e-05
1.14244e-05
1.17487e-05
1.19545e-05
1.21809e-05
1.26959e-05
1.28255e-05
1.31417e-05
3.25646e-05
8.06625e-05
0.000102979
0.000110682
0.000120785
0.000128385
0.000129694
0.000129224
0.000133291
0.000135253
0.000140898
0.000154419
0.000162291
0.000173422
0.000186338
0.000191026
0.000194817
0.000211549
0.000230032
0.000244488
0.000255278
0.000297528
0.000377329
0.000559034
0.000852872
0.00107976
1.19853e-05
1.54513e-05
1.85951e-05
3.03451e-05
4.62723e-05
4.82211e-05
4.88328e-05
5.04708e-05
5.22717e-05
5.35228e-05
5.32717e-05
5.05909e-05
4.84679e-05
4.70747e-05
4.61434e-05
4.55924e-05
4.49725e-05
4.46457e-05
4.4521e-05
4.88543e-05
9.7434e-05
0.000171257
0.000223778
0.000295362
0.000337413
0.00034936
0.000356467
0.000359495
0.00036465
0.000368536
0.000366853
0.000354198
0.000329447
0.000290118
0.000302436
0.00047794
0.000894909
0.00126561
4.13357e-05
3.93141e-05
3.40883e-05
3.08276e-05
3.63458e-05
4.91517e-05
6.45073e-05
8.82916e-05
0.000102464
0.000104584
0.000100376
9.24248e-05
8.53159e-05
8.09432e-05
7.80003e-05
7.77896e-05
7.73688e-05
8.12808e-05
8.41155e-05
9.09935e-05
9.64793e-05
0.000104036
0.000141243
0.000210937
0.000267175
0.000295761
0.000342877
0.000393999
0.000373654
0.000387591
0.00040104
0.000345652
0.000276013
0.00016123
0.000180314
0.000261787
0.000397118
0.0008796
6.17747e-05
6.21514e-05
5.23964e-05
4.25765e-05
3.51364e-05
2.94779e-05
2.92504e-05
3.08602e-05
3.53138e-05
4.05243e-05
4.15255e-05
4.33319e-05
4.66059e-05
5.09242e-05
5.56222e-05
6.0183e-05
6.5926e-05
7.23579e-05
7.89562e-05
8.24155e-05
8.85099e-05
7.4479e-05
6.59881e-05
6.74301e-05
8.34365e-05
9.501e-05
9.8673e-05
0.000110065
0.000110053
0.000104705
0.000108308
0.00013141
0.000171699
0.000210322
0.00026027
0.000378227
0.000748757
0.000863601
9.6483e-05
0.000100096
9.41728e-05
8.32583e-05
7.79864e-05
6.40192e-05
6.00127e-05
5.70454e-05
5.54687e-05
5.78608e-05
6.32629e-05
7.05763e-05
8.35109e-05
9.26716e-05
0.000104734
0.000111058
0.000121908
0.000129864
0.000137728
0.000136745
0.000131281
0.00012259
0.000110931
9.06915e-05
8.18653e-05
9.6404e-05
0.000113166
0.000128882
0.000140115
0.000148778
0.000161696
0.000198099
0.000241189
0.000333797
0.00032434
0.000358047
0.000579953
0.000742172
0.000125018
0.000130476
0.000135861
0.000133175
0.000138715
0.00013161
0.000128784
0.000129011
0.000129053
0.000132666
0.000138331
0.000147834
0.000156171
0.000165753
0.000178269
0.000189595
0.000196448
0.000208562
0.000214004
0.000211467