/*--------------------------------*- C++ -*----------------------------------*\
| =========                 |                                                 |
| \\      /  F ield         | OpenFOAM: The Open Source CFD Toolbox           |
|  \\    /   O peration     | Version:  2.3.1                                 |
|   \\  /    A nd           | Web:      www.OpenFOAM.org                      |
|    \\/     M anipulation  |                                                 |
\*---------------------------------------------------------------------------*/
FoamFile
{
    version     2.0;
    format      ascii;
    class       volScalarField;
    location    "10";
    object      p;
}
// * * * * * * * * * * * * * * * * * * * * * * * * * * * * * * * * * * * * * //

dimensions      [0 2 -2 0 0 0 0];

internalField   nonuniform List<scalar> 
38262
(
-8.07944
-8.07991
-8.0802
-8.0803
-8.08066
-8.08089
-8.08052
-8.08028
-8.08019
-8.07983
-8.07921
-8.0785
-8.07754
-8.07606
-8.07381
-8.06989
-8.06339
-8.05254
-8.04034
-8.04862
-8.09189
-8.13877
-8.14328
-8.14547
-8.15993
-8.15422
-8.1309
-8.11034
-8.06179
-8.07343
-8.06689
-8.01828
-8.06796
-8.0954
-8.06514
-8.12877
-8.43088
-7.09324
-8.07977
-8.07991
-8.08003
-8.08022
-8.08076
-8.08088
-8.08052
-8.08033
-8.0802
-8.07989
-8.07935
-8.07873
-8.07796
-8.07675
-8.07501
-8.07234
-8.06875
-8.06499
-8.06343
-8.08098
-8.13226
-8.16016
-8.14085
-8.14262
-8.16084
-8.15835
-8.1419
-8.11746
-8.10318
-8.08645
-8.06622
-8.09666
-8.05576
-8.07615
-8.05016
-8.18806
-8.98769
-9.53011
-8.07984
-8.07996
-8.08007
-8.08018
-8.08029
-8.08044
-8.0804
-8.08027
-8.08015
-8.07997
-8.07953
-8.07903
-8.07844
-8.07752
-8.0763
-8.07456
-8.07257
-8.07074
-8.07075
-8.07691
-8.09055
-8.10236
-8.10973
-8.11619
-8.12423
-8.12272
-8.11754
-8.10707
-8.11744
-8.08746
-8.09469
-8.07849
-8.0364
-8.07178
-8.17063
-8.02973
-8.11212
-10.0658
-8.07976
-8.08
-8.08016
-8.08031
-8.08051
-8.08063
-8.08053
-8.08044
-8.08037
-8.08023
-8.07987
-8.07945
-8.07891
-8.07838
-8.07772
-8.07671
-8.07568
-8.07541
-8.07769
-8.0842
-8.09726
-8.11197
-8.11822
-8.12257
-8.12666
-8.12719
-8.12419
-8.11925
-8.10734
-8.07474
-8.09899
-8.06067
-8.09637
-8.07986
-8.10289
-8.08753
-8.06432
-7.90492
-8.0797
-8.07983
-8.07994
-8.08005
-8.08015
-8.08024
-8.08028
-8.08029
-8.08023
-8.08018
-8.08003
-8.07986
-8.0797
-8.07953
-8.0793
-8.07889
-8.079
-8.07895
-8.08057
-8.08475
-8.09041
-8.09509
-8.09789
-8.1
-8.10189
-8.10152
-8.1004
-8.09524
-8.09017
-8.08987
-8.09161
-8.09193
-8.09028
-8.07809
-8.1435
-8.11593
-8.00587
-7.42797
-8.07971
-8.07986
-8.08
-8.08014
-8.08026
-8.08035
-8.08041
-8.08041
-8.08042
-8.08041
-8.08035
-8.08031
-8.08023
-8.08026
-8.08031
-8.0805
-8.081
-8.08181
-8.08334
-8.0859
-8.09024
-8.09533
-8.0998
-8.10371
-8.10524
-8.10654
-8.10331
-8.09949
-8.09707
-8.08849
-8.08714
-8.0821
-8.08068
-8.08467
-8.1318
-8.11045
-8.1267
-7.92947
-8.07966
-8.07976
-8.07987
-8.07996
-8.08006
-8.08014
-8.08022
-8.08028
-8.08031
-8.08039
-8.08041
-8.08053
-8.08084
-8.08126
-8.08189
-8.0827
-8.08299
-8.08385
-8.08507
-8.08672
-8.08939
-8.09183
-8.09318
-8.09382
-8.09368
-8.09242
-8.08862
-8.08646
-8.08296
-8.08344
-8.0819
-8.08506
-8.08151
-8.08494
-8.11502
-8.10324
-8.13988
-8.50761
-8.07969
-8.0798
-8.07991
-8.08002
-8.08013
-8.08022
-8.08029
-8.08036
-8.0804
-8.08047
-8.08052
-8.08068
-8.08096
-8.0814
-8.08233
-8.0832
-8.08437
-8.0856
-8.08666
-8.08741
-8.08866
-8.08974
-8.09053
-8.09018
-8.09186
-8.09309
-8.09111
-8.08699
-8.08238
-8.07757
-8.07508
-8.07522
-8.0852
-8.0888
-8.08022
-8.08464
-8.08986
-8.60185
-8.07965
-8.07974
-8.07984
-8.07993
-8.08003
-8.08011
-8.0802
-8.08027
-8.08032
-8.08045
-8.08045
-8.0808
-8.08142
-8.08254
-8.08492
-8.08598
-8.08621
-8.08755
-8.08822
-8.08802
-8.08872
-8.08905
-8.08943
-8.0903
-8.08918
-8.08714
-8.0835
-8.08024
-8.07615
-8.07129
-8.0666
-8.06065
-8.06845
-8.09165
-8.12647
-8.14025
-8.07732
-8.14073
-8.07968
-8.07976
-8.07987
-8.07996
-8.08006
-8.08014
-8.08021
-8.08029
-8.08026
-8.08027
-8.08011
-8.08021
-8.08043
-8.08155
-8.08415
-8.08584
-8.08846
-8.09103
-8.09068
-8.0895
-8.089
-8.08801
-8.08606
-8.08484
-8.08584
-8.08596
-8.08246
-8.07758
-8.07133
-8.06581
-8.05906
-8.05156
-8.03993
-8.03007
-8.01321
-8.00577
-7.87169
-7.25697
-8.07966
-8.07974
-8.07985
-8.07992
-8.08003
-8.0801
-8.08017
-8.08023
-8.08017
-8.08024
-8.07985
-8.08011
-8.08004
-8.08433
-8.09193
-8.08904
-8.08871
-8.09331
-8.09134
-8.08903
-8.08975
-8.08805
-8.08686
-8.08677
-8.08526
-8.08357
-8.08104
-8.07613
-8.0688
-8.06271
-8.05183
-8.04437
-8.0391
-8.06174
-8.13913
-8.26116
-8.14943
-7.59772
-8.07967
-8.07975
-8.07985
-8.07993
-8.08002
-8.0801
-8.08014
-8.08017
-8.08
-8.07987
-8.07912
-8.07855
-8.07679
-8.07986
-8.0864
-8.08913
-8.09041
-8.09394
-8.09142
-8.08902
-8.08896
-8.08732
-8.0848
-8.08384
-8.08145
-8.07845
-8.07423
-8.06878
-8.05893
-8.05119
-8.02955
-8.01719
-8.00065
-7.97034
-7.94407
-7.85363
-7.72026
-7.85928
-8.18978
-8.19031
-8.19057
-8.19067
-8.19104
-8.19126
-8.1909
-8.19071
-8.19061
-8.19024
-8.18962
-8.18889
-8.18795
-8.18652
-8.18437
-8.18066
-8.1745
-8.16434
-8.15201
-8.15748
-8.19956
-8.2484
-8.25501
-8.25589
-8.27002
-8.26664
-8.24198
-8.21855
-8.19497
-8.17518
-8.17095
-8.15297
-8.16905
-8.20384
-8.1653
-8.32047
-8.32176
-8.64024
-8.19034
-8.19056
-8.19058
-8.19075
-8.19131
-8.19135
-8.19094
-8.19075
-8.19064
-8.19032
-8.18977
-8.18911
-8.18833
-8.18717
-8.18551
-8.18296
-8.17952
-8.17585
-8.1737
-8.1876
-8.23688
-8.27245
-8.25834
-8.25875
-8.27529
-8.27669
-8.25938
-8.23357
-8.21631
-8.20897
-8.18155
-8.21296
-8.20248
-8.19735
-8.24809
-8.54416
-9.20569
-8.85872
-8.1903
-8.19038
-8.19049
-8.19058
-8.19071
-8.19085
-8.19082
-8.19068
-8.19053
-8.19036
-8.18996
-8.1894
-8.1888
-8.18792
-8.18672
-8.18509
-8.18324
-8.1815
-8.18133
-8.18707
-8.20085
-8.21406
-8.22135
-8.22715
-8.2347
-8.23439
-8.23012
-8.22187
-8.22456
-8.22717
-8.2218
-8.20332
-8.21061
-8.21605
-8.30816
-8.20043
-8.79457
-9.10268
-8.19013
-8.19036
-8.19053
-8.19067
-8.19087
-8.191
-8.1909
-8.19082
-8.19074
-8.19062
-8.19031
-8.18987
-8.18936
-8.18879
-8.1882
-8.18728
-8.18631
-8.18624
-8.18824
-8.19427
-8.20675
-8.2215
-8.2287
-8.2337
-8.23756
-8.23899
-8.23645
-8.22889
-8.21922
-8.19479
-8.20149
-8.18071
-8.22766
-8.19544
-8.25898
-8.32252
-8.46537
-9.25341
-8.19006
-8.19019
-8.19031
-8.19042
-8.19052
-8.19061
-8.19066
-8.19067
-8.19061
-8.19056
-8.19042
-8.19022
-8.19012
-8.18995
-8.18971
-8.18938
-8.18968
-8.18974
-8.19133
-8.1952
-8.20054
-8.20539
-8.20829
-8.21047
-8.21154
-8.21365
-8.21042
-8.20667
-8.2037
-8.20071
-8.1967
-8.21175
-8.22812
-8.20663
-8.27341
-8.26738
-8.32799
-8.2886
-8.19008
-8.19023
-8.19037
-8.19051
-8.19063
-8.19073
-8.19078
-8.1908
-8.19081
-8.19079
-8.19075
-8.19072
-8.19061
-8.19068
-8.19073
-8.19086
-8.19138
-8.19222
-8.19373
-8.19637
-8.20041
-8.20538
-8.21004
-8.21384
-8.21608
-8.21711
-8.21444
-8.2115
-8.20721
-8.20031
-8.1996
-8.19756
-8.19328
-8.20133
-8.25215
-8.25077
-8.31448
-8.43999
-8.19002
-8.19013
-8.19024
-8.19033
-8.19043
-8.19052
-8.1906
-8.19066
-8.1907
-8.19077
-8.1908
-8.19092
-8.19122
-8.19165
-8.19227
-8.19312
-8.19341
-8.19424
-8.19551
-8.19709
-8.1997
-8.20196
-8.2035
-8.20371
-8.20408
-8.20269
-8.19916
-8.1975
-8.19359
-8.1937
-8.18941
-8.19672
-8.19585
-8.19431
-8.23004
-8.24276
-8.2992
-8.73313
-8.19006
-8.19017
-8.19028
-8.1904
-8.1905
-8.1906
-8.19067
-8.19074
-8.19078
-8.19086
-8.19091
-8.19107
-8.19135
-8.19178
-8.19275
-8.19358
-8.19478
-8.19592
-8.19705
-8.19775
-8.19912
-8.19999
-8.2012
-8.20069
-8.20274
-8.20485
-8.20242
-8.19907
-8.19398
-8.19061
-8.18659
-8.18786
-8.20012
-8.18825
-8.18083
-8.21765
-8.23797
-8.97346
-8.19002
-8.19011
-8.19021
-8.1903
-8.19041
-8.19048
-8.19058
-8.19066
-8.19069
-8.19083
-8.19084
-8.19117
-8.19179
-8.19293
-8.19523
-8.19635
-8.19667
-8.19793
-8.19852
-8.19837
-8.19903
-8.19942
-8.19974
-8.2005
-8.19944
-8.1976
-8.19436
-8.19113
-8.18727
-8.18279
-8.17929
-8.1747
-8.18273
-8.20388
-8.23363
-8.26443
-8.27704
-8.59157
-8.19004
-8.19013
-8.19024
-8.19033
-8.19043
-8.19051
-8.19058
-8.19067
-8.19063
-8.19067
-8.19052
-8.19059
-8.19084
-8.19195
-8.19461
-8.19642
-8.199
-8.20139
-8.20094
-8.19972
-8.19926
-8.19841
-8.19687
-8.19616
-8.19769
-8.19689
-8.19372
-8.18912
-8.18329
-8.17714
-8.17116
-8.16357
-8.15161
-8.14826
-8.13157
-8.09489
-8.0337
-7.74906
-8.19003
-8.19011
-8.19021
-8.19029
-8.1904
-8.19047
-8.19055
-8.19062
-8.19055
-8.19064
-8.19025
-8.19049
-8.19046
-8.1944
-8.20191
-8.19962
-8.19943
-8.20371
-8.20181
-8.19959
-8.20003
-8.19838
-8.1976
-8.19774
-8.19648
-8.19477
-8.19229
-8.18799
-8.18134
-8.17591
-8.16531
-8.15764
-8.15215
-8.17197
-8.25601
-8.38323
-8.3906
-7.98335
-8.19003
-8.19011
-8.19022
-8.19029
-8.1904
-8.19047
-8.19052
-8.19055
-8.19039
-8.19026
-8.18951
-8.18901
-8.18724
-8.19021
-8.19663
-8.19966
-8.20106
-8.20427
-8.20167
-8.19924
-8.19911
-8.19748
-8.19526
-8.19393
-8.19166
-8.18917
-8.18551
-8.18032
-8.17086
-8.16287
-8.14391
-8.12892
-8.11527
-8.08887
-8.06886
-8.02048
-7.89457
-7.95638
-8.30006
-8.30056
-8.30097
-8.30113
-8.30146
-8.30166
-8.30131
-8.30116
-8.30101
-8.30061
-8.30004
-8.29933
-8.2984
-8.29703
-8.29498
-8.29156
-8.28604
-8.27685
-8.26432
-8.26524
-8.30386
-8.35645
-8.36546
-8.3653
-8.38049
-8.38239
-8.36225
-8.33592
-8.30858
-8.28672
-8.28055
-8.26232
-8.27687
-8.27909
-8.27317
-8.35655
-8.45154
-7.87402
-8.30053
-8.301
-8.30102
-8.30116
-8.3018
-8.30179
-8.30133
-8.30121
-8.30111
-8.30077
-8.30023
-8.29957
-8.29877
-8.29763
-8.29606
-8.29374
-8.29055
-8.28704
-8.28461
-8.29401
-8.33836
-8.37841
-8.37275
-8.37293
-8.39029
-8.39515
-8.37737
-8.35112
-8.33176
-8.30765
-8.29258
-8.31475
-8.31425
-8.28334
-8.3684
-8.30381
-9.14373
-9.0496
-8.30053
-8.30068
-8.30082
-8.30094
-8.30109
-8.30126
-8.30122
-8.30113
-8.30099
-8.30078
-8.3004
-8.29987
-8.29924
-8.29839
-8.29726
-8.29571
-8.29398
-8.29238
-8.29225
-8.29713
-8.31037
-8.32447
-8.33156
-8.33569
-8.34329
-8.3454
-8.33976
-8.33058
-8.33195
-8.30745
-8.32685
-8.3238
-8.32233
-8.31569
-8.35854
-8.34874
-8.13698
-8.74191
-8.30046
-8.30071
-8.30089
-8.30103
-8.30124
-8.30138
-8.30129
-8.30121
-8.30114
-8.30101
-8.30073
-8.30034
-8.29984
-8.29928
-8.29864
-8.29788
-8.29708
-8.29698
-8.29875
-8.30409
-8.31549
-8.3298
-8.33793
-8.34372
-8.34828
-8.35045
-8.34791
-8.34068
-8.33063
-8.31351
-8.31469
-8.29909
-8.32013
-8.31099
-8.36075
-8.41711
-8.49552
-8.217
-8.30042
-8.30055
-8.30068
-8.30079
-8.30089
-8.30099
-8.30104
-8.30106
-8.30102
-8.30096
-8.30083
-8.30065
-8.3005
-8.30034
-8.30014
-8.29987
-8.3
-8.30024
-8.30174
-8.30528
-8.31039
-8.31528
-8.3182
-8.32009
-8.32139
-8.32272
-8.32074
-8.31682
-8.31348
-8.30878
-8.30748
-8.311
-8.31778
-8.3111
-8.35882
-8.3479
-8.2718
-8.2336
-8.30045
-8.3006
-8.30075
-8.30088
-8.30101
-8.30112
-8.30117
-8.30119
-8.3012
-8.3012
-8.30116
-8.30113
-8.30105
-8.3011
-8.30117
-8.30132
-8.30182
-8.30267
-8.30416
-8.30661
-8.31049
-8.31515
-8.31983
-8.32346
-8.32636
-8.32656
-8.32551
-8.32157
-8.31794
-8.311
-8.30992
-8.30302
-8.30653
-8.30436
-8.3375
-8.32694
-8.34909
-8.39837
-8.30039
-8.3005
-8.30061
-8.30071
-8.30081
-8.3009
-8.30099
-8.30106
-8.3011
-8.30118
-8.30121
-8.30134
-8.30163
-8.30206
-8.3027
-8.30348
-8.30383
-8.30464
-8.30587
-8.3074
-8.30985
-8.31205
-8.31368
-8.31392
-8.31406
-8.31277
-8.31031
-8.30805
-8.30478
-8.30375
-8.30116
-8.30409
-8.30445
-8.3049
-8.33053
-8.34577
-8.34795
-8.54481
-8.30043
-8.30054
-8.30066
-8.30077
-8.30088
-8.30098
-8.30106
-8.30113
-8.30118
-8.30127
-8.30133
-8.30148
-8.30176
-8.30222
-8.30314
-8.30401
-8.30518
-8.3063
-8.30735
-8.30806
-8.30936
-8.31028
-8.31131
-8.3115
-8.31238
-8.31354
-8.3121
-8.30838
-8.30482
-8.29998
-8.29803
-8.29606
-8.30074
-8.2989
-8.29907
-8.31268
-8.3236
-8.45575
-8.30039
-8.30048
-8.30058
-8.30067
-8.30078
-8.30087
-8.30096
-8.30105
-8.30109
-8.30123
-8.30126
-8.30157
-8.30218
-8.30331
-8.30557
-8.30669
-8.30711
-8.30829
-8.3088
-8.30871
-8.30928
-8.30972
-8.31006
-8.31053
-8.30982
-8.30805
-8.30489
-8.30167
-8.29783
-8.29364
-8.28952
-8.28666
-8.29091
-8.30559
-8.33989
-8.37303
-8.4072
-8.50578
-8.30041
-8.3005
-8.30061
-8.3007
-8.3008
-8.30089
-8.30096
-8.30105
-8.30103
-8.30108
-8.30093
-8.30098
-8.30124
-8.3024
-8.30508
-8.30703
-8.30958
-8.31171
-8.31105
-8.3098
-8.30946
-8.30856
-8.30755
-8.30636
-8.30644
-8.3058
-8.30311
-8.29907
-8.29374
-8.28847
-8.28259
-8.27476
-8.26548
-8.25994
-8.24187
-8.21834
-8.16691
-8.0226
-8.30039
-8.30047
-8.30058
-8.30066
-8.30078
-8.30084
-8.30093
-8.30101
-8.30095
-8.30104
-8.30067
-8.30087
-8.30084
-8.30481
-8.31198
-8.30995
-8.31026
-8.31409
-8.31197
-8.30994
-8.31023
-8.30868
-8.30808
-8.30827
-8.3068
-8.30472
-8.30211
-8.29744
-8.29183
-8.28606
-8.27766
-8.26867
-8.26331
-8.27841
-8.34022
-8.4766
-8.57254
-8.30012
-8.3004
-8.30048
-8.30059
-8.30066
-8.30077
-8.30084
-8.3009
-8.30094
-8.30081
-8.30067
-8.29993
-8.2993
-8.29762
-8.3006
-8.30701
-8.31025
-8.31179
-8.31449
-8.31184
-8.30956
-8.30925
-8.30767
-8.30587
-8.30439
-8.30206
-8.29963
-8.29628
-8.29107
-8.28255
-8.27416
-8.25826
-8.24189
-8.23057
-8.20991
-8.19397
-8.1756
-8.09678
-8.04305
-8.41032
-8.41093
-8.41135
-8.41139
-8.41181
-8.41209
-8.4117
-8.41163
-8.41148
-8.41105
-8.4105
-8.40978
-8.40889
-8.40761
-8.40576
-8.40273
-8.39798
-8.39031
-8.37948
-8.37694
-8.41316
-8.46444
-8.47491
-8.4726
-8.49253
-8.49864
-8.48541
-8.4601
-8.42979
-8.40715
-8.40122
-8.3804
-8.3855
-8.40182
-8.36791
-8.46005
-8.3899
-8.18954
-8.41072
-8.41128
-8.41157
-8.41148
-8.41227
-8.41228
-8.41172
-8.41167
-8.41161
-8.41125
-8.41072
-8.41006
-8.40926
-8.40819
-8.40675
-8.40466
-8.40186
-8.39873
-8.39652
-8.40172
-8.43349
-8.47714
-8.4816
-8.48564
-8.50615
-8.51421
-8.49835
-8.47175
-8.44826
-8.42474
-8.41305
-8.41472
-8.42199
-8.41428
-8.46806
-8.54923
-9.00966
-9.02508
-8.41083
-8.41101
-8.41122
-8.41131
-8.41147
-8.41166
-8.41163
-8.41157
-8.41146
-8.41123
-8.41086
-8.41036
-8.40975
-8.40893
-8.4079
-8.4065
-8.40498
-8.40358
-8.40355
-8.40753
-8.41936
-8.43414
-8.44082
-8.44419
-8.45134
-8.45644
-8.45336
-8.44637
-8.44111
-8.42549
-8.43185
-8.42076
-8.4305
-8.42097
-8.49037
-8.43646
-8.89643
-8.79887
-8.41083
-8.41108
-8.41129
-8.41141
-8.41163
-8.41178
-8.41169
-8.41162
-8.41156
-8.41143
-8.41116
-8.4108
-8.41033
-8.40982
-8.40924
-8.40856
-8.40788
-8.4079
-8.40949
-8.4141
-8.42392
-8.43703
-8.4459
-8.45248
-8.45886
-8.46202
-8.4605
-8.45306
-8.44345
-8.43034
-8.42544
-8.41124
-8.42932
-8.42405
-8.47582
-8.52352
-8.56775
-8.6762
-8.41078
-8.41092
-8.41105
-8.41117
-8.41127
-8.41138
-8.41144
-8.41147
-8.41144
-8.41138
-8.41126
-8.4111
-8.41095
-8.41079
-8.41062
-8.41042
-8.41053
-8.41091
-8.41237
-8.41559
-8.42032
-8.42503
-8.42803
-8.42985
-8.43113
-8.43288
-8.4316
-8.42807
-8.4248
-8.42136
-8.41936
-8.41972
-8.43165
-8.42343
-8.45892
-8.48202
-8.50679
-8.53474
-8.41082
-8.41097
-8.41112
-8.41126
-8.41139
-8.41151
-8.41156
-8.41159
-8.41161
-8.41161
-8.41158
-8.41155
-8.41151
-8.41156
-8.41165
-8.41183
-8.41233
-8.41314
-8.41459
-8.41691
-8.42043
-8.42476
-8.4293
-8.43306
-8.43627
-8.43727
-8.43642
-8.43323
-8.42911
-8.42394
-8.421
-8.41625
-8.41891
-8.41787
-8.44214
-8.44564
-8.44743
-8.56131
-8.41076
-8.41087
-8.41098
-8.41109
-8.41119
-8.41129
-8.41138
-8.41146
-8.41151
-8.41159
-8.41164
-8.41177
-8.41204
-8.41248
-8.41313
-8.41386
-8.41427
-8.41505
-8.41622
-8.41771
-8.41995
-8.4221
-8.42374
-8.4241
-8.42405
-8.42293
-8.42078
-8.41873
-8.41577
-8.41361
-8.41145
-8.41203
-8.41493
-8.4161
-8.44146
-8.45973
-8.47942
-8.5946
-8.4108
-8.41091
-8.41103
-8.41114
-8.41126
-8.41136
-8.41145
-8.41153
-8.41159
-8.41168
-8.41175
-8.41191
-8.41219
-8.41265
-8.41356
-8.41447
-8.41562
-8.41666
-8.41764
-8.41833
-8.41958
-8.42046
-8.42154
-8.4219
-8.42276
-8.42416
-8.42281
-8.41979
-8.41605
-8.41216
-8.40958
-8.40746
-8.41174
-8.41109
-8.41057
-8.41971
-8.43148
-8.54975
-8.41076
-8.41085
-8.41096
-8.41105
-8.41116
-8.41125
-8.41135
-8.41145
-8.41151
-8.41165
-8.41169
-8.412
-8.41258
-8.41371
-8.41593
-8.41701
-8.41757
-8.41864
-8.41904
-8.41898
-8.41953
-8.41995
-8.42031
-8.42071
-8.42005
-8.41843
-8.41558
-8.41254
-8.40869
-8.40479
-8.40127
-8.3984
-8.40056
-8.41613
-8.44536
-8.47989
-8.53205
-8.5566
-8.41078
-8.41087
-8.41098
-8.41107
-8.41118
-8.41127
-8.41135
-8.41145
-8.41144
-8.41151
-8.41137
-8.41141
-8.41163
-8.41288
-8.41557
-8.41769
-8.4202
-8.42196
-8.42107
-8.41991
-8.41964
-8.41882
-8.41808
-8.41709
-8.41715
-8.41609
-8.41382
-8.40992
-8.4053
-8.39988
-8.39409
-8.38738
-8.37936
-8.37386
-8.35942
-8.33661
-8.30043
-8.19009
-8.41076
-8.41084
-8.41095
-8.41103
-8.41115
-8.41122
-8.41132
-8.4114
-8.41137
-8.41146
-8.41112
-8.41126
-8.41123
-8.41542
-8.42203
-8.42009
-8.42116
-8.4244
-8.42198
-8.42025
-8.42038
-8.41894
-8.41855
-8.41868
-8.41728
-8.41526
-8.41273
-8.4084
-8.40374
-8.39835
-8.39063
-8.38058
-8.37385
-8.38518
-8.42995
-8.54447
-8.70465
-8.56081
-8.41076
-8.41084
-8.41095
-8.41103
-8.41115
-8.41121
-8.41129
-8.41134
-8.41124
-8.41111
-8.41037
-8.40952
-8.40812
-8.41123
-8.41755
-8.42083
-8.42258
-8.42456
-8.42182
-8.41988
-8.41936
-8.41788
-8.41646
-8.41495
-8.41274
-8.41038
-8.4072
-8.4021
-8.3945
-8.38626
-8.3728
-8.35644
-8.34531
-8.3304
-8.31696
-8.31446
-8.29156
-8.21376
-8.5207
-8.52101
-8.52169
-8.52189
-8.52213
-8.52242
-8.52204
-8.52204
-8.52194
-8.52149
-8.52098
-8.52028
-8.51943
-8.51826
-8.51661
-8.514
-8.5101
-8.50425
-8.49691
-8.49322
-8.52478
-8.57187
-8.5805
-8.57602
-8.60164
-8.61497
-8.60656
-8.58479
-8.55214
-8.52696
-8.51841
-8.50141
-8.49603
-8.49417
-8.5026
-8.52783
-8.60504
-8.44761
-8.52111
-8.52147
-8.52182
-8.52197
-8.52273
-8.52274
-8.52208
-8.5221
-8.52211
-8.52174
-8.52122
-8.52056
-8.51979
-8.51881
-8.51751
-8.51569
-8.51337
-8.51077
-8.50918
-8.51218
-8.53392
-8.56957
-8.58188
-8.59226
-8.62244
-8.63443
-8.61887
-8.59321
-8.56754
-8.53942
-8.52911
-8.52029
-8.52328
-8.50751
-8.56302
-8.5652
-8.86462
-9.09623
-8.5211
-8.52133
-8.52159
-8.52171
-8.52186
-8.52204
-8.52203
-8.522
-8.52193
-8.5217
-8.52134
-8.52086
-8.52028
-8.51953
-8.51859
-8.51736
-8.51608
-8.51494
-8.51509
-8.51839
-8.52834
-8.54177
-8.54829
-8.55132
-8.55802
-8.56632
-8.56657
-8.56022
-8.55388
-8.53558
-8.53874
-8.52687
-8.53053
-8.52857
-8.54724
-8.58543
-8.43036
-8.71799
-8.52119
-8.52144
-8.52166
-8.52179
-8.52201
-8.52219
-8.52209
-8.52203
-8.52199
-8.52186
-8.5216
-8.52126
-8.52085
-8.52038
-8.51985
-8.51929
-8.51875
-8.51882
-8.52024
-8.52417
-8.53234
-8.54358
-8.55244
-8.55992
-8.56865
-8.57368
-8.57285
-8.56613
-8.55645
-8.54564
-8.53911
-8.52918
-8.53973
-8.53164
-8.57278
-8.60677
-8.6563
-8.61945
-8.52113
-8.52128
-8.52143
-8.52155
-8.52166
-8.52177
-8.52184
-8.52188
-8.52186
-8.52181
-8.52171
-8.52156
-8.52141
-8.52127
-8.52115
-8.521
-8.5211
-8.52152
-8.52294
-8.52578
-8.53009
-8.53456
-8.53755
-8.53936
-8.54079
-8.54243
-8.54226
-8.53911
-8.53617
-8.53131
-8.52955
-8.52962
-8.5354
-8.5328
-8.5533
-8.57321
-8.50702
-8.54779
-8.52119
-8.52134
-8.5215
-8.52164
-8.52177
-8.52189
-8.52196
-8.52199
-8.52202
-8.52203
-8.522
-8.52199
-8.52197
-8.52203
-8.52214
-8.52236
-8.52285
-8.52362
-8.52498
-8.5271
-8.53028
-8.5342
-8.53845
-8.54222
-8.54584
-8.54747
-8.54723
-8.54429
-8.54037
-8.53583
-8.5321
-8.5282
-8.53001
-8.5302
-8.54414
-8.55065
-8.54038
-8.57236
-8.52113
-8.52124
-8.52136
-8.52147
-8.52158
-8.52168
-8.52178
-8.52187
-8.52193
-8.52202
-8.52208
-8.52222
-8.52248
-8.52292
-8.52357
-8.52424
-8.5247
-8.52544
-8.52654
-8.52795
-8.52999
-8.53203
-8.53367
-8.5342
-8.53411
-8.5331
-8.53131
-8.52931
-8.52676
-8.52399
-8.52217
-8.5213
-8.52425
-8.52607
-8.54507
-8.56327
-8.57368
-8.63172
-8.52117
-8.52128
-8.5214
-8.52152
-8.52163
-8.52174
-8.52184
-8.52193
-8.522
-8.52211
-8.52219
-8.52235
-8.52263
-8.5231
-8.524
-8.52493
-8.52605
-8.52702
-8.52789
-8.52857
-8.52971
-8.5306
-8.5316
-8.53211
-8.53286
-8.53371
-8.53292
-8.5302
-8.52679
-8.5231
-8.52029
-8.51826
-8.51897
-8.52066
-8.5208
-8.5269
-8.53223
-8.57005
-8.52112
-8.52122
-8.52133
-8.52142
-8.52154
-8.52164
-8.52175
-8.52186
-8.52194
-8.52208
-8.52215
-8.52245
-8.52301
-8.52416
-8.52629
-8.52732
-8.52799
-8.52895
-8.52925
-8.52923
-8.52973
-8.53014
-8.53052
-8.53082
-8.5303
-8.52877
-8.52625
-8.52324
-8.51953
-8.51588
-8.51219
-8.50956
-8.51045
-8.52354
-8.54659
-8.58371
-8.63527
-8.65355
-8.52114
-8.52124
-8.52134
-8.52144
-8.52155
-8.52165
-8.52175
-8.52185
-8.52188
-8.52196
-8.52184
-8.52186
-8.52202
-8.52341
-8.52608
-8.52832
-8.53076
-8.53209
-8.531
-8.53
-8.52976
-8.52902
-8.52853
-8.5276
-8.52699
-8.52585
-8.52367
-8.52005
-8.51596
-8.51103
-8.50562
-8.49934
-8.49178
-8.48647
-8.47418
-8.45598
-8.432
-8.36586
-8.52112
-8.52121
-8.52132
-8.5214
-8.52152
-8.5216
-8.52171
-8.5218
-8.52181
-8.52189
-8.52161
-8.52164
-8.52163
-8.52617
-8.5321
-8.53021
-8.53199
-8.53453
-8.53189
-8.53052
-8.53049
-8.52918
-8.52899
-8.52899
-8.52762
-8.52564
-8.52294
-8.51863
-8.51444
-8.50998
-8.50272
-8.49289
-8.48489
-8.49278
-8.52381
-8.60586
-8.78911
-8.76943
-8.52113
-8.52121
-8.52132
-8.52139
-8.52152
-8.52159
-8.52169
-8.52175
-8.5217
-8.52157
-8.52084
-8.51959
-8.51844
-8.52191
-8.5282
-8.53137
-8.53329
-8.53454
-8.53172
-8.53016
-8.52946
-8.5281
-8.52698
-8.52551
-8.52343
-8.52115
-8.518
-8.51305
-8.50635
-8.49876
-8.48718
-8.47212
-8.46017
-8.44914
-8.43824
-8.44021
-8.45298
-8.40011
-8.63122
-8.63214
-8.63242
-8.63192
-8.63238
-8.63271
-8.63237
-8.63241
-8.63238
-8.63195
-8.63147
-8.6308
-8.63
-8.62895
-8.62753
-8.62536
-8.6223
-8.61806
-8.6137
-8.61169
-8.63558
-8.67426
-8.6778
-8.6716
-8.70089
-8.73059
-8.72494
-8.7083
-8.67631
-8.64718
-8.63635
-8.62087
-8.61265
-8.60571
-8.60038
-8.65561
-8.65282
-8.67597
-8.63147
-8.63214
-8.63231
-8.63205
-8.63309
-8.63328
-8.63247
-8.63247
-8.63259
-8.63222
-8.63171
-8.63107
-8.63035
-8.62945
-8.62832
-8.62678
-8.62492
-8.62291
-8.62195
-8.62442
-8.63873
-8.66403
-8.67552
-8.68942
-8.73237
-8.75793
-8.7382
-8.71497
-8.68778
-8.65785
-8.64708
-8.63519
-8.62943
-8.62765
-8.65661
-8.70919
-8.93127
-9.19922
-8.63146
-8.63179
-8.63205
-8.63206
-8.63222
-8.63243
-8.63243
-8.63242
-8.63239
-8.63217
-8.63183
-8.63137
-8.63083
-8.63015
-8.62933
-8.62828
-8.62721
-8.62637
-8.62669
-8.62951
-8.63754
-8.64887
-8.65457
-8.65752
-8.66502
-8.67436
-8.67892
-8.67518
-8.66803
-8.65241
-8.64898
-8.63985
-8.63581
-8.63844
-8.66215
-8.67086
-8.80173
-8.78475
-8.63157
-8.63185
-8.63208
-8.63215
-8.63239
-8.6326
-8.63252
-8.63246
-8.63242
-8.63229
-8.63205
-8.63174
-8.63136
-8.63095
-8.63048
-8.63001
-8.6296
-8.62973
-8.63102
-8.63435
-8.64102
-8.65024
-8.6583
-8.66598
-8.67659
-8.68514
-8.68523
-8.6791
-8.66994
-8.65954
-8.652
-8.64375
-8.65145
-8.64481
-8.67717
-8.70134
-8.75424
-8.76497
-8.63149
-8.63166
-8.63182
-8.63193
-8.63205
-8.63217
-8.63225
-8.63229
-8.6323
-8.63226
-8.63216
-8.63203
-8.6319
-8.63178
-8.6317
-8.63161
-8.63173
-8.63218
-8.63349
-8.63601
-8.63984
-8.64393
-8.64686
-8.6487
-8.6503
-8.65153
-8.65269
-8.65049
-8.64778
-8.64306
-8.64092
-8.63994
-8.64596
-8.64131
-8.66423
-8.67448
-8.69655
-8.70273
-8.63156
-8.63172
-8.63188
-8.63201
-8.63215
-8.63229
-8.63236
-8.6324
-8.63244
-8.63245
-8.63244
-8.63244
-8.63245
-8.63252
-8.63265
-8.63292
-8.63337
-8.6341
-8.63536
-8.63728
-8.6401
-8.64355
-8.64741
-8.65112
-8.65501
-8.65767
-8.65809
-8.65538
-8.65168
-8.64768
-8.64356
-8.64092
-8.64157
-8.64322
-8.65379
-8.6634
-8.66689
-8.70014
-8.63149
-8.63161
-8.63173
-8.63185
-8.63196
-8.63207
-8.63218
-8.63228
-8.63236
-8.63245
-8.63253
-8.63268
-8.63294
-8.63337
-8.63401
-8.63461
-8.63512
-8.63583
-8.63684
-8.63814
-8.63999
-8.6419
-8.64352
-8.64423
-8.64421
-8.64333
-8.64162
-8.63981
-8.63773
-8.63494
-8.63299
-8.63184
-8.63426
-8.63682
-8.65244
-8.66904
-8.68868
-8.72097
-8.63153
-8.63165
-8.63177
-8.63189
-8.63201
-8.63212
-8.63223
-8.63233
-8.63242
-8.63254
-8.63265
-8.63282
-8.63308
-8.63356
-8.63446
-8.6354
-8.63648
-8.63736
-8.63812
-8.63877
-8.63981
-8.64068
-8.64164
-8.64219
-8.64294
-8.64369
-8.6432
-8.64114
-8.63791
-8.63462
-8.6314
-8.62988
-8.63011
-8.63142
-8.63147
-8.63656
-8.64183
-8.66672
-8.63149
-8.63159
-8.6317
-8.6318
-8.63192
-8.63203
-8.63214
-8.63227
-8.63237
-8.63252
-8.63263
-8.63293
-8.63345
-8.63459
-8.63666
-8.63763
-8.63838
-8.63922
-8.63943
-8.63945
-8.63991
-8.64029
-8.64068
-8.64095
-8.64052
-8.63917
-8.63687
-8.63399
-8.63044
-8.62706
-8.62342
-8.62126
-8.62147
-8.63153
-8.65081
-8.6855
-8.73625
-8.75344
-8.63151
-8.6316
-8.63171
-8.63181
-8.63193
-8.63203
-8.63214
-8.63226
-8.63233
-8.63243
-8.63236
-8.63237
-8.63239
-8.63391
-8.63657
-8.63887
-8.6412
-8.64209
-8.64089
-8.64009
-8.63988
-8.63928
-8.63896
-8.6382
-8.63751
-8.63627
-8.63414
-8.63081
-8.62709
-8.62248
-8.61749
-8.61183
-8.60422
-8.60108
-8.59231
-8.57666
-8.56166
-8.53667
-8.63149
-8.63158
-8.63168
-8.63177
-8.63189
-8.63199
-8.6321
-8.63222
-8.63227
-8.63236
-8.63213
-8.63204
-8.63201
-8.63705
-8.64222
-8.64031
-8.64266
-8.64449
-8.64176
-8.64077
-8.64058
-8.63945
-8.6394
-8.63927
-8.63799
-8.63611
-8.6333
-8.62931
-8.62585
-8.62189
-8.61487
-8.6062
-8.59714
-8.60191
-8.62329
-8.67984
-8.84131
-8.91701
-8.63149
-8.63158
-8.63168
-8.63176
-8.63189
-8.63197
-8.63209
-8.63218
-8.63218
-8.63209
-8.63136
-8.62974
-8.62855
-8.63264
-8.63892
-8.64174
-8.64384
-8.64437
-8.64156
-8.64039
-8.63955
-8.63836
-8.63747
-8.63607
-8.63415
-8.63194
-8.62875
-8.624
-8.61815
-8.6114
-8.6013
-8.5881
-8.57582
-8.56673
-8.55872
-8.55831
-8.58032
-8.57364
-8.74175
-8.74319
-8.74365
-8.74268
-8.74253
-8.74299
-8.74277
-8.74276
-8.74279
-8.7424
-8.74195
-8.74133
-8.74058
-8.73966
-8.73846
-8.7367
-8.73437
-8.73141
-8.72894
-8.72843
-8.74339
-8.77096
-8.77049
-8.76008
-8.79263
-8.8374
-8.84211
-8.82944
-8.80076
-8.76681
-8.75417
-8.73858
-8.72661
-8.71613
-8.71611
-8.73422
-8.77914
-8.81724
-8.74186
-8.74263
-8.74277
-8.74246
-8.7433
-8.74372
-8.74306
-8.74294
-8.74308
-8.74268
-8.74217
-8.74159
-8.74092
-8.74013
-8.73915
-8.73788
-8.73641
-8.73493
-8.73445
-8.73665
-8.74626
-8.76313
-8.77118
-8.78221
-8.8296
-8.87942
-8.85766
-8.83501
-8.80944
-8.7767
-8.76434
-8.75128
-8.74112
-8.73167
-8.75627
-8.78753
-8.94532
-9.28771
-8.74181
-8.7422
-8.7425
-8.74251
-8.74262
-8.74288
-8.74286
-8.74285
-8.74286
-8.74264
-8.74231
-8.74188
-8.74138
-8.74078
-8.74007
-8.73921
-8.73836
-8.73776
-8.73819
-8.74061
-8.74686
-8.75575
-8.7605
-8.76314
-8.77149
-8.78199
-8.78958
-8.78907
-8.783
-8.7667
-8.76182
-8.75371
-8.74704
-8.74523
-8.75154
-8.77907
-8.73608
-8.85049
-8.74194
-8.74225
-8.74247
-8.74253
-8.74276
-8.74301
-8.74295
-8.74289
-8.74287
-8.74274
-8.74251
-8.74222
-8.74189
-8.74152
-8.74112
-8.74073
-8.74045
-8.74061
-8.74176
-8.74455
-8.74991
-8.75722
-8.76413
-8.77137
-8.78286
-8.79537
-8.79736
-8.79206
-8.78335
-8.77346
-8.76518
-8.75816
-8.76159
-8.75588
-8.77878
-8.79426
-8.84855
-8.87205
-8.74185
-8.74203
-8.7422
-8.74232
-8.74244
-8.74258
-8.74266
-8.74272
-8.74273
-8.7427
-8.74263
-8.74252
-8.7424
-8.74231
-8.74226
-8.74223
-8.74236
-8.74282
-8.74401
-8.74621
-8.74954
-8.75318
-8.75597
-8.75787
-8.75973
-8.76126
-8.76278
-8.76172
-8.75951
-8.75461
-8.75214
-8.74987
-8.75295
-8.75059
-8.76574
-8.77435
-8.7585
-8.78785
-8.74192
-8.74209
-8.74225
-8.74239
-8.74253
-8.74268
-8.74276
-8.74282
-8.74286
-8.74289
-8.74289
-8.7429
-8.74293
-8.74301
-8.74317
-8.74346
-8.7439
-8.74458
-8.74572
-8.74743
-8.7499
-8.75288
-8.75628
-8.75981
-8.76384
-8.7672
-8.76856
-8.76638
-8.76297
-8.75935
-8.75514
-8.7532
-8.75281
-8.75525
-8.7623
-8.77272
-8.77498
-8.7935
-8.74186
-8.74198
-8.74211
-8.74223
-8.74234
-8.74246
-8.74258
-8.74269
-8.74279
-8.74289
-8.743
-8.74315
-8.74341
-8.74384
-8.74447
-8.74502
-8.74554
-8.7462
-8.74713
-8.74831
-8.74996
-8.75172
-8.75332
-8.75417
-8.75433
-8.75362
-8.75219
-8.75056
-8.74869
-8.74605
-8.74395
-8.74281
-8.74408
-8.74712
-8.75877
-8.77404
-8.78994
-8.81132
-8.7419
-8.74201
-8.74214
-8.74226
-8.74239
-8.74251
-8.74262
-8.74274
-8.74285
-8.74299
-8.74312
-8.7433
-8.74356
-8.74405
-8.74494
-8.74587
-8.74689
-8.74768
-8.74833
-8.74895
-8.74989
-8.75074
-8.75163
-8.75221
-8.7529
-8.7535
-8.75333
-8.75162
-8.74878
-8.74562
-8.74254
-8.74107
-8.73984
-8.74166
-8.74165
-8.74616
-8.74946
-8.76331
-8.74186
-8.74196
-8.74207
-8.74217
-8.74229
-8.74241
-8.74254
-8.74268
-8.74282
-8.74299
-8.74314
-8.74345
-8.74394
-8.74511
-8.74703
-8.74793
-8.74876
-8.74946
-8.74958
-8.74965
-8.75007
-8.75042
-8.75082
-8.75105
-8.75074
-8.74959
-8.74747
-8.74474
-8.74148
-8.73825
-8.73467
-8.73236
-8.73155
-8.73985
-8.75593
-8.78658
-8.83244
-8.8534
-8.74187
-8.74197
-8.74208
-8.74218
-8.7423
-8.74241
-8.74254
-8.74268
-8.7428
-8.74294
-8.74293
-8.74292
-8.74291
-8.74441
-8.74702
-8.74934
-8.75148
-8.75196
-8.75076
-8.7502
-8.75002
-8.74958
-8.74937
-8.74869
-8.74785
-8.74651
-8.74445
-8.74138
-8.73791
-8.7339
-8.72911
-8.72411
-8.71733
-8.71416
-8.70745
-8.69779
-8.68767
-8.68466
-8.74186
-8.74195
-8.74205
-8.74214
-8.74226
-8.74237
-8.7425
-8.74265
-8.74274
-8.7429
-8.74277
-8.74261
-8.7425
-8.74766
-8.75211
-8.75034
-8.75312
-8.7543
-8.75159
-8.75099
-8.75067
-8.74974
-8.74981
-8.74953
-8.7484
-8.74659
-8.74367
-8.73988
-8.73687
-8.73364
-8.7271
-8.71931
-8.71033
-8.71254
-8.72759
-8.76882
-8.88865
-9.01248
-8.74186
-8.74194
-8.74205
-8.74213
-8.74226
-8.74235
-8.74249
-8.74262
-8.74271
-8.74273
-8.7421
-8.74027
-8.7388
-8.74323
-8.74951
-8.7521
-8.75418
-8.7541
-8.75139
-8.75059
-8.74967
-8.74869
-8.74794
-8.74661
-8.74488
-8.74271
-8.73948
-8.73497
-8.72991
-8.72402
-8.71519
-8.70379
-8.69166
-8.68381
-8.67803
-8.67738
-8.69284
-8.72505
-8.85232
-8.85433
-8.85483
-8.85321
-8.85292
-8.85358
-8.85327
-8.85318
-8.85321
-8.85286
-8.85242
-8.85186
-8.85118
-8.85039
-8.84938
-8.84799
-8.84624
-8.84423
-8.84284
-8.84312
-8.85174
-8.86782
-8.8627
-8.85104
-8.88236
-8.9345
-8.95871
-8.94787
-8.92345
-8.8869
-8.87161
-8.85631
-8.84089
-8.82682
-8.82385
-8.83698
-8.87375
-8.96484
-8.85229
-8.85343
-8.85333
-8.85293
-8.85361
-8.85416
-8.85366
-8.85348
-8.85358
-8.85312
-8.85262
-8.8521
-8.8515
-8.85081
-8.84999
-8.84897
-8.84782
-8.84677
-8.8466
-8.84848
-8.85498
-8.86576
-8.87039
-8.87657
-8.91993
-8.98817
-8.98011
-8.95262
-8.93057
-8.89712
-8.8817
-8.86879
-8.85597
-8.84597
-8.8591
-8.89358
-9.02794
-9.41826
-8.85216
-8.85264
-8.85296
-8.85291
-8.85305
-8.85336
-8.85335
-8.85331
-8.85333
-8.8531
-8.85279
-8.8524