/*--------------------------------*- C++ -*----------------------------------*\
| =========                 |                                                 |
| \\      /  F ield         | OpenFOAM: The Open Source CFD Toolbox           |
|  \\    /   O peration     | Version:  2.3.1                                 |
|   \\  /    A nd           | Web:      www.OpenFOAM.org                      |
|    \\/     M anipulation  |                                                 |
\*---------------------------------------------------------------------------*/
FoamFile
{
    version     2.0;
    format      ascii;
    class       volScalarField;
    location    "10";
    object      p_rgh;
}
// * * * * * * * * * * * * * * * * * * * * * * * * * * * * * * * * * * * * * //

dimensions      [0 2 -2 0 0 0 0];

internalField   nonuniform List<scalar> 
38262
(
-8.02426
-8.02473
-8.02502
-8.02512
-8.02548
-8.02571
-8.02534
-8.0251
-8.02501
-8.02465
-8.02403
-8.02332
-8.02236
-8.02088
-8.01863
-8.01471
-8.00821
-7.99736
-7.98516
-7.99343
-8.03671
-8.08359
-8.0881
-8.09029
-8.10475
-8.09904
-8.07572
-8.05516
-8.00661
-8.01825
-8.01171
-7.9631
-8.01278
-8.04022
-8.00996
-8.07359
-8.3757
-7.03806
-8.02458
-8.02473
-8.02485
-8.02503
-8.02558
-8.0257
-8.02534
-8.02515
-8.02502
-8.02471
-8.02417
-8.02355
-8.02278
-8.02157
-8.01983
-8.01716
-8.01357
-8.00981
-8.00825
-8.0258
-8.07707
-8.10498
-8.08567
-8.08744
-8.10566
-8.10317
-8.08672
-8.06228
-8.048
-8.03126
-8.01104
-8.04148
-8.00057
-8.02097
-7.99498
-8.13288
-8.93251
-9.47492
-8.02466
-8.02477
-8.02489
-8.025
-8.02511
-8.02526
-8.02522
-8.02509
-8.02497
-8.02479
-8.02435
-8.02385
-8.02326
-8.02233
-8.02112
-8.01937
-8.01739
-8.01555
-8.01557
-8.02173
-8.03537
-8.04718
-8.05455
-8.06101
-8.06904
-8.06754
-8.06236
-8.05189
-8.06226
-8.03228
-8.03951
-8.02331
-7.98122
-8.0166
-8.11545
-7.97455
-8.05694
-10.0106
-8.02458
-8.02482
-8.02498
-8.02513
-8.02533
-8.02545
-8.02535
-8.02525
-8.02518
-8.02505
-8.02469
-8.02426
-8.02373
-8.0232
-8.02254
-8.02153
-8.0205
-8.02023
-8.02251
-8.02902
-8.04208
-8.05679
-8.06304
-8.06739
-8.07147
-8.07201
-8.06901
-8.06407
-8.05216
-8.01956
-8.04381
-8.00549
-8.04119
-8.02468
-8.04771
-8.03235
-8.00914
-7.84974
-8.02452
-8.02465
-8.02476
-8.02487
-8.02497
-8.02506
-8.0251
-8.02511
-8.02505
-8.025
-8.02485
-8.02468
-8.02451
-8.02435
-8.02412
-8.02371
-8.02382
-8.02377
-8.02538
-8.02957
-8.03523
-8.03991
-8.0427
-8.04482
-8.04671
-8.04634
-8.04521
-8.04006
-8.03499
-8.03469
-8.03643
-8.03675
-8.0351
-8.02291
-8.08831
-8.06075
-7.95069
-7.37279
-8.02453
-8.02468
-8.02482
-8.02495
-8.02507
-8.02517
-8.02522
-8.02523
-8.02524
-8.02523
-8.02517
-8.02513
-8.02505
-8.02508
-8.02513
-8.02532
-8.02582
-8.02663
-8.02816
-8.03072
-8.03506
-8.04014
-8.04462
-8.04853
-8.05006
-8.05136
-8.04813
-8.04431
-8.04189
-8.0333
-8.03196
-8.02692
-8.0255
-8.02949
-8.07662
-8.05527
-8.07152
-7.87429
-8.02448
-8.02458
-8.02469
-8.02478
-8.02488
-8.02496
-8.02504
-8.0251
-8.02513
-8.02521
-8.02523
-8.02535
-8.02566
-8.02608
-8.02671
-8.02751
-8.02781
-8.02867
-8.02989
-8.03154
-8.03421
-8.03665
-8.038
-8.03864
-8.0385
-8.03724
-8.03344
-8.03128
-8.02777
-8.02826
-8.02672
-8.02988
-8.02633
-8.02976
-8.05984
-8.04806
-8.0847
-8.45243
-8.02451
-8.02462
-8.02473
-8.02484
-8.02494
-8.02504
-8.02511
-8.02517
-8.02522
-8.02529
-8.02534
-8.0255
-8.02578
-8.02622
-8.02715
-8.02802
-8.02919
-8.03041
-8.03148
-8.03223
-8.03348
-8.03456
-8.03535
-8.035
-8.03667
-8.03791
-8.03593
-8.03181
-8.0272
-8.02239
-8.0199
-8.02004
-8.03002
-8.03362
-8.02504
-8.02946
-8.03467
-8.54667
-8.02447
-8.02456
-8.02466
-8.02475
-8.02485
-8.02493
-8.02502
-8.02509
-8.02514
-8.02527
-8.02527
-8.02562
-8.02624
-8.02736
-8.02973
-8.0308
-8.03103
-8.03237
-8.03304
-8.03284
-8.03353
-8.03387
-8.03425
-8.03512
-8.03399
-8.03196
-8.02832
-8.02506
-8.02097
-8.01611
-8.01142
-8.00547
-8.01327
-8.03647
-8.07129
-8.08507
-8.02214
-8.08555
-8.0245
-8.02458
-8.02469
-8.02478
-8.02488
-8.02496
-8.02503
-8.02511
-8.02507
-8.02509
-8.02493
-8.02503
-8.02525
-8.02637
-8.02897
-8.03066
-8.03328
-8.03585
-8.03549
-8.03432
-8.03382
-8.03283
-8.03088
-8.02966
-8.03066
-8.03078
-8.02728
-8.02239
-8.01615
-8.01062
-8.00388
-7.99638
-7.98474
-7.97489
-7.95803
-7.95059
-7.81651
-7.20179
-8.02448
-8.02456
-8.02466
-8.02474
-8.02485
-8.02492
-8.02499
-8.02505
-8.02499
-8.02506
-8.02467
-8.02492
-8.02486
-8.02915
-8.03675
-8.03386
-8.03353
-8.03813
-8.03616
-8.03385
-8.03457
-8.03287
-8.03168
-8.03158
-8.03008
-8.02839
-8.02586
-8.02095
-8.01362
-8.00753
-7.99665
-7.98919
-7.98392
-8.00656
-8.08395
-8.20598
-8.09425
-7.54254
-8.02449
-8.02457
-8.02467
-8.02474
-8.02484
-8.02492
-8.02496
-8.02499
-8.02482
-8.02468
-8.02394
-8.02337
-8.02161
-8.02467
-8.03121
-8.03395
-8.03523
-8.03876
-8.03624
-8.03384
-8.03378
-8.03213
-8.02961
-8.02866
-8.02627
-8.02326
-8.01904
-8.0136
-8.00375
-7.99601
-7.97437
-7.962
-7.94547
-7.91516
-7.88889
-7.79845
-7.66508
-7.8041
-8.02424
-8.02476
-8.02503
-8.02512
-8.0255
-8.02571
-8.02536
-8.02516
-8.02507
-8.0247
-8.02408
-8.02335
-8.02241
-8.02097
-8.01882
-8.01512
-8.00896
-7.9988
-7.98646
-7.99193
-8.03402
-8.08285
-8.08946
-8.09035
-8.10447
-8.1011
-8.07644
-8.05301
-8.02942
-8.00963
-8.0054
-7.98743
-8.0035
-8.03829
-7.99976
-8.15493
-8.15622
-8.47469
-8.0248
-8.02502
-8.02504
-8.0252
-8.02576
-8.0258
-8.0254
-8.02521
-8.0251
-8.02478
-8.02422
-8.02357
-8.02279
-8.02162
-8.01997
-8.01742
-8.01398
-8.01031
-8.00815
-8.02205
-8.07133
-8.10691
-8.0928
-8.09321
-8.10975
-8.11115
-8.09384
-8.06803
-8.05076
-8.04343
-8.016
-8.04742
-8.03693
-8.03181
-8.08255
-8.37861
-9.04014
-8.69318
-8.02475
-8.02484
-8.02494
-8.02504
-8.02517
-8.02531
-8.02527
-8.02514
-8.02499
-8.02482
-8.02441
-8.02386
-8.02326
-8.02238
-8.02118
-8.01955
-8.0177
-8.01596
-8.01578
-8.02153
-8.03531
-8.04852
-8.05581
-8.0616
-8.06916
-8.06885
-8.06458
-8.05632
-8.05902
-8.06163
-8.05626
-8.03778
-8.04507
-8.05051
-8.14261
-8.03489
-8.62903
-8.93713
-8.02458
-8.02482
-8.02499
-8.02513
-8.02533
-8.02545
-8.02536
-8.02527
-8.0252
-8.02507
-8.02476
-8.02433
-8.02382
-8.02324
-8.02265
-8.02173
-8.02076
-8.02069
-8.0227
-8.02872
-8.04121
-8.05596
-8.06316
-8.06815
-8.07201
-8.07345
-8.0709
-8.06335
-8.05368
-8.02924
-8.03594
-8.01517
-8.06212
-8.0299
-8.09343
-8.15698
-8.29983
-9.08786
-8.02452
-8.02465
-8.02477
-8.02487
-8.02498
-8.02507
-8.02511
-8.02512
-8.02507
-8.02501
-8.02487
-8.02468
-8.02458
-8.02441
-8.02416
-8.02384
-8.02414
-8.0242
-8.02578
-8.02966
-8.035
-8.03984
-8.04274
-8.04493
-8.046
-8.04811
-8.04487
-8.04112
-8.03815
-8.03517
-8.03116
-8.04621
-8.06257
-8.04109
-8.10786
-8.10183
-8.16245
-8.12306
-8.02454
-8.02469
-8.02483
-8.02497
-8.02509
-8.02519
-8.02524
-8.02525
-8.02526
-8.02525
-8.02521
-8.02517
-8.02507
-8.02514
-8.02518
-8.02532
-8.02583
-8.02668
-8.02819
-8.03083
-8.03487
-8.03984
-8.0445
-8.0483
-8.05054
-8.05157
-8.0489
-8.04596
-8.04167
-8.03477
-8.03405
-8.03202
-8.02773
-8.03579
-8.08661
-8.08522
-8.14893
-8.27445
-8.02448
-8.02458
-8.02469
-8.02479
-8.02489
-8.02498
-8.02506
-8.02512
-8.02516
-8.02522
-8.02526
-8.02538
-8.02568
-8.0261
-8.02673
-8.02758
-8.02787
-8.0287
-8.02996
-8.03155
-8.03415
-8.03642
-8.03796
-8.03817
-8.03854
-8.03714
-8.03362
-8.03195
-8.02805
-8.02816
-8.02387
-8.03117
-8.03031
-8.02876
-8.06449
-8.07722
-8.13366
-8.56759
-8.02452
-8.02463
-8.02474
-8.02485
-8.02496
-8.02505
-8.02513
-8.0252
-8.02524
-8.02532
-8.02537
-8.02553
-8.0258
-8.02624
-8.02721
-8.02804
-8.02923
-8.03038
-8.03151
-8.0322
-8.03358
-8.03445
-8.03566
-8.03515
-8.0372
-8.0393
-8.03687
-8.03353
-8.02843
-8.02507
-8.02104
-8.02231
-8.03458
-8.02271
-8.01529
-8.05211
-8.07243
-8.80792
-8.02448
-8.02456
-8.02467
-8.02475
-8.02486
-8.02494
-8.02503
-8.02511
-8.02515
-8.02529
-8.0253
-8.02562
-8.02624
-8.02738
-8.02968
-8.03081
-8.03112
-8.03238
-8.03298
-8.03283
-8.03348
-8.03388
-8.0342
-8.03495
-8.0339
-8.03205
-8.02882
-8.02559
-8.02173
-8.01724
-8.01375
-8.00916
-8.01719
-8.03834
-8.06809
-8.09888
-8.11149
-8.42603
-8.0245
-8.02459
-8.02469
-8.02478
-8.02488
-8.02497
-8.02503
-8.02512
-8.02509
-8.02512
-8.02497
-8.02504
-8.0253
-8.0264
-8.02907
-8.03088
-8.03346
-8.03585
-8.0354
-8.03418
-8.03371
-8.03287
-8.03133
-8.03062
-8.03214
-8.03134
-8.02818
-8.02357
-8.01774
-8.0116
-8.00562
-7.99802
-7.98607
-7.98272
-7.96602
-7.92935
-7.86815
-7.58352
-8.02448
-8.02456
-8.02467
-8.02475
-8.02486
-8.02493
-8.025
-8.02508
-8.02501
-8.0251
-8.02471
-8.02494
-8.02491
-8.02885
-8.03637
-8.03407
-8.03389
-8.03816
-8.03626
-8.03404
-8.03448
-8.03284
-8.03205
-8.0322
-8.03094
-8.02923
-8.02675
-8.02245
-8.01579
-8.01036
-7.99977
-7.99209
-7.98661
-8.00642
-8.09046
-8.21769
-8.22506
-7.8178
-8.02449
-8.02457
-8.02467
-8.02475
-8.02486
-8.02493
-8.02497
-8.02501
-8.02485
-8.02472
-8.02397
-8.02346
-8.02169
-8.02467
-8.03108
-8.03411
-8.03551
-8.03872
-8.03612
-8.0337
-8.03356
-8.03194
-8.02971
-8.02838
-8.02612
-8.02362
-8.01996
-8.01477
-8.00532
-7.99733
-7.97836
-7.96338
-7.94973
-7.92332
-7.90331
-7.85493
-7.72902
-7.79084
-8.02416
-8.02465
-8.02506
-8.02522
-8.02555
-8.02576
-8.02541
-8.02525
-8.0251
-8.02471
-8.02414
-8.02342
-8.0225
-8.02112
-8.01908
-8.01565
-8.01014
-8.00094
-7.98842
-7.98933
-8.02795
-8.08055
-8.08955
-8.08939
-8.10459
-8.10648
-8.08634
-8.06001
-8.03268
-8.01082
-8.00465
-7.98641
-8.00097
-8.00318
-7.99726
-8.08064
-8.17564
-7.59812
-8.02463
-8.02509
-8.02512
-8.02525
-8.02589
-8.02589
-8.02542
-8.0253
-8.02521
-8.02486
-8.02432
-8.02367
-8.02286
-8.02172
-8.02016
-8.01783
-8.01464
-8.01113
-8.0087
-8.0181
-8.06245
-8.1025
-8.09684
-8.09702
-8.11438
-8.11925
-8.10147
-8.07521
-8.05586
-8.03174
-8.01668
-8.03885
-8.03834
-8.00744
-8.0925
-8.0279
-8.86782
-8.7737
-8.02462
-8.02477
-8.02492
-8.02503
-8.02518
-8.02535
-8.02532
-8.02522
-8.02509
-8.02487
-8.02449
-8.02396
-8.02333
-8.02248
-8.02135
-8.0198
-8.01808
-8.01647
-8.01634
-8.02123
-8.03446
-8.04856
-8.05566
-8.05978
-8.06738
-8.06949
-8.06386
-8.05467
-8.05605
-8.03154
-8.05094
-8.04789
-8.04643
-8.03978
-8.08263
-8.07283
-7.86107
-8.46601
-8.02455
-8.02481
-8.02499
-8.02512
-8.02533
-8.02547
-8.02538
-8.02531
-8.02524
-8.0251
-8.02482
-8.02443
-8.02394
-8.02337
-8.02274
-8.02198
-8.02118
-8.02108
-8.02285
-8.02819
-8.03958
-8.05389
-8.06202
-8.06781
-8.07237
-8.07454
-8.07201
-8.06477
-8.05473
-8.03761
-8.03878
-8.02319
-8.04422
-8.03509
-8.08485
-8.1412
-8.21961
-7.94109
-8.02451
-8.02464
-8.02477
-8.02488
-8.02499
-8.02509
-8.02514
-8.02516
-8.02511
-8.02505
-8.02492
-8.02475
-8.02459
-8.02444
-8.02424
-8.02396
-8.0241
-8.02433
-8.02583
-8.02938
-8.03448
-8.03937
-8.0423
-8.04419
-8.04548
-8.04681
-8.04483
-8.04091
-8.03758
-8.03287
-8.03157
-8.0351
-8.04188
-8.03519
-8.08291
-8.07199
-7.9959
-7.9577
-8.02454
-8.0247
-8.02484
-8.02498
-8.0251
-8.02521
-8.02527
-8.02529
-8.0253
-8.02529
-8.02525
-8.02523
-8.02515
-8.0252
-8.02526
-8.02542
-8.02591
-8.02676
-8.02825
-8.03071
-8.03458
-8.03924
-8.04393
-8.04756
-8.05045
-8.05066
-8.04961
-8.04567
-8.04204
-8.0351
-8.03401
-8.02712
-8.03062
-8.02846
-8.06159
-8.05103
-8.07318
-8.12247
-8.02448
-8.02459
-8.0247
-8.0248
-8.02491
-8.025
-8.02508
-8.02515
-8.0252
-8.02527
-8.02531
-8.02543
-8.02572
-8.02615
-8.02679
-8.02757
-8.02792
-8.02873
-8.02996
-8.03149
-8.03395
-8.03614
-8.03778
-8.03801
-8.03815
-8.03687
-8.0344
-8.03215
-8.02888
-8.02785
-8.02525
-8.02819
-8.02855
-8.02899
-8.05462
-8.06986
-8.07205
-8.26891
-8.02452
-8.02463
-8.02475
-8.02486
-8.02497
-8.02507
-8.02515
-8.02523
-8.02528
-8.02536
-8.02542
-8.02558
-8.02586
-8.02631
-8.02723
-8.02811
-8.02928
-8.03039
-8.03145
-8.03215
-8.03345
-8.03438
-8.03541
-8.0356
-8.03647
-8.03763
-8.03619
-8.03248
-8.02891
-8.02407
-8.02212
-8.02016
-8.02483
-8.02299
-8.02316
-8.03677
-8.04769
-8.17985
-8.02448
-8.02457
-8.02468
-8.02477
-8.02488
-8.02496
-8.02506
-8.02514
-8.02519
-8.02533
-8.02535
-8.02567
-8.02627
-8.02741
-8.02966
-8.03078
-8.0312
-8.03239
-8.03289
-8.0328
-8.03337
-8.03381
-8.03416
-8.03462
-8.03392
-8.03214
-8.02899
-8.02576
-8.02193
-8.01774
-8.01361
-8.01076
-8.015
-8.02969
-8.06398
-8.09712
-8.1313
-8.22987
-8.0245
-8.02459
-8.0247
-8.02479
-8.0249
-8.02498
-8.02506
-8.02515
-8.02512
-8.02518
-8.02503
-8.02508
-8.02533
-8.02649
-8.02917
-8.03113
-8.03367
-8.03581
-8.03514
-8.0339
-8.03356
-8.03265
-8.03164
-8.03046
-8.03054
-8.0299
-8.0272
-8.02316
-8.01783
-8.01257
-8.00668
-7.99886
-7.98958
-7.98403
-7.96596
-7.94244
-7.89101
-7.74669
-8.02449
-8.02457
-8.02468
-8.02475
-8.02487
-8.02494
-8.02502
-8.0251
-8.02504
-8.02514
-8.02477
-8.02496
-8.02493
-8.0289
-8.03608
-8.03404
-8.03436
-8.03819
-8.03607
-8.03403
-8.03433
-8.03278
-8.03217
-8.03236
-8.03089
-8.02882
-8.02621
-8.02153
-8.01592
-8.01015
-8.00176
-7.99276
-7.9874
-8.0025
-8.06431
-8.20069
-8.29664
-8.02422
-8.02449
-8.02457
-8.02468
-8.02475
-8.02487
-8.02493
-8.02499
-8.02503
-8.0249
-8.02477
-8.02402
-8.02339
-8.02171
-8.02469
-8.03111
-8.03434
-8.03589
-8.03858
-8.03593
-8.03366
-8.03335
-8.03177
-8.02996
-8.02848
-8.02616
-8.02372
-8.02038
-8.01516
-8.00664
-7.99825
-7.98235
-7.96598
-7.95467
-7.93401
-7.91807
-7.89969
-7.82088
-7.76714
-8.02405
-8.02466
-8.02508
-8.02512
-8.02554
-8.02582
-8.02543
-8.02536
-8.02521
-8.02478
-8.02423
-8.02352
-8.02262
-8.02134
-8.01949
-8.01646
-8.01171
-8.00404
-7.99321
-7.99067
-8.02689
-8.07817
-8.08864
-8.08633
-8.10627
-8.11237
-8.09914
-8.07383
-8.04353
-8.02088
-8.01495
-7.99413
-7.99923
-8.01555
-7.98164
-8.07378
-8.00364
-7.80327
-8.02445
-8.02501
-8.0253
-8.02521
-8.026
-8.02601
-8.02545
-8.0254
-8.02534
-8.02498
-8.02445
-8.02379
-8.02299
-8.02193
-8.02048
-8.01839
-8.01559
-8.01247
-8.01025
-8.01546
-8.04722
-8.09087
-8.09533
-8.09938
-8.11988
-8.12794
-8.11208
-8.08548
-8.06199
-8.03847
-8.02678
-8.02845
-8.03572
-8.02801
-8.08179
-8.16296
-8.62339
-8.63881
-8.02456
-8.02474
-8.02495
-8.02504
-8.0252
-8.02539
-8.02537
-8.0253
-8.02519
-8.02496
-8.02459
-8.02409
-8.02348
-8.02267
-8.02163
-8.02023
-8.01871
-8.01731
-8.01728
-8.02127
-8.03309
-8.04787
-8.05455
-8.05792
-8.06507
-8.07017
-8.06709
-8.0601
-8.05484
-8.03922
-8.04558
-8.03449
-8.04423
-8.0347
-8.1041
-8.05019
-8.51016
-8.4126
-8.02456
-8.02481
-8.02503
-8.02514
-8.02536
-8.02552
-8.02542
-8.02536
-8.02529
-8.02516
-8.02489
-8.02453
-8.02406
-8.02355
-8.02297
-8.02229
-8.02162
-8.02163
-8.02322
-8.02783
-8.03765
-8.05076
-8.05963
-8.06621
-8.07259
-8.07575
-8.07423
-8.06679
-8.05718
-8.04407
-8.03917
-8.02497
-8.04305
-8.03778
-8.08955
-8.13725
-8.18148
-8.28993
-8.02451
-8.02465
-8.02479
-8.0249
-8.02501
-8.02511
-8.02517
-8.0252
-8.02517
-8.02511
-8.02499
-8.02483
-8.02468
-8.02452
-8.02436
-8.02415
-8.02426
-8.02464
-8.02611
-8.02932
-8.03405
-8.03876
-8.04176
-8.04358
-8.04486
-8.04661
-8.04533
-8.04181
-8.03853
-8.03509
-8.03309
-8.03345
-8.04538
-8.03716
-8.07265
-8.09575
-8.12052
-8.14847
-8.02455
-8.0247
-8.02486
-8.02499
-8.02512
-8.02524
-8.02529
-8.02532
-8.02534
-8.02534
-8.02531
-8.02529
-8.02524
-8.02529
-8.02538
-8.02556
-8.02606
-8.02687
-8.02832
-8.03064
-8.03416
-8.03849
-8.04303
-8.04679
-8.05
-8.051
-8.05016
-8.04696
-8.04284
-8.03767
-8.03473
-8.02998
-8.03264
-8.0316
-8.05587
-8.05937
-8.06116
-8.17504
-8.02449
-8.0246
-8.02471
-8.02482
-8.02493
-8.02502
-8.02511
-8.02519
-8.02525
-8.02532
-8.02537
-8.0255
-8.02578
-8.02621
-8.02686
-8.02759
-8.028
-8.02878
-8.02995
-8.03145
-8.03368
-8.03583
-8.03747
-8.03783
-8.03778
-8.03666
-8.03451
-8.03246
-8.0295
-8.02734
-8.02518
-8.02576
-8.02866
-8.02983
-8.05519
-8.07346
-8.09315
-8.20834
-8.02453
-8.02464
-8.02476
-8.02487
-8.02499
-8.02509
-8.02518
-8.02526
-8.02532
-8.02541
-8.02548
-8.02564
-8.02592
-8.02639
-8.02729
-8.0282
-8.02935
-8.03039
-8.03137
-8.03206
-8.03332
-8.03419
-8.03528
-8.03563
-8.0365
-8.03789
-8.03654
-8.03352
-8.02978
-8.02589
-8.02332
-8.02119
-8.02547
-8.02482
-8.0243
-8.03345
-8.04522
-8.16348
-8.02449
-8.02458
-8.02469
-8.02478
-8.02489
-8.02498
-8.02509
-8.02518
-8.02524
-8.02538
-8.02543
-8.02573
-8.02631
-8.02744
-8.02966
-8.03074
-8.0313
-8.03237
-8.03277
-8.03271
-8.03326
-8.03369
-8.03404
-8.03444
-8.03378
-8.03216
-8.02931
-8.02627
-8.02243
-8.01852
-8.015
-8.01213
-8.01429
-8.02986
-8.05909
-8.09362
-8.14578
-8.17033
-8.02451
-8.0246
-8.02471
-8.0248
-8.02491
-8.025
-8.02508
-8.02518
-8.02518
-8.02524
-8.0251
-8.02514
-8.02536
-8.02661
-8.0293
-8.03142
-8.03393
-8.03569
-8.0348
-8.03364
-8.03337
-8.03255
-8.03181
-8.03082
-8.03088
-8.02983
-8.02755
-8.02365
-8.01903
-8.01361
-8.00782
-8.00111
-7.99309
-7.98759
-7.97316
-7.95034
-7.91416
-7.80382
-8.02449
-8.02457
-8.02468
-8.02476
-8.02488
-8.02495
-8.02505
-8.02513
-8.0251
-8.02519
-8.02485
-8.025
-8.02496
-8.02915
-8.03576
-8.03382
-8.03489
-8.03813
-8.03571
-8.03398
-8.03411
-8.03267
-8.03228
-8.03241
-8.03101
-8.029
-8.02646
-8.02213
-8.01747
-8.01208
-8.00437
-7.99432
-7.98758
-7.99891
-8.04368
-8.1582
-8.31839
-8.17454
-8.02449
-8.02457
-8.02468
-8.02476
-8.02488
-8.02494
-8.02503
-8.02507
-8.02497
-8.02484
-8.0241
-8.02325
-8.02186
-8.02496
-8.03128
-8.03456
-8.03631
-8.0383
-8.03556
-8.03361
-8.03309
-8.03161
-8.03019
-8.02868
-8.02647
-8.02411
-8.02093
-8.01583
-8.00823
-8
-7.98653
-7.97017
-7.95904
-7.94413
-7.9307
-7.92819
-7.90529
-7.82749
-8.02407
-8.02438
-8.02506
-8.02526
-8.0255
-8.02579
-8.02541
-8.02541
-8.02531
-8.02486
-8.02435
-8.02365
-8.0228
-8.02163
-8.01998
-8.01737
-8.01347
-8.00762
-8.00028
-7.99659
-8.02815
-8.07524
-8.08386
-8.07939
-8.10501
-8.11834
-8.10993
-8.08816
-8.05551
-8.03033
-8.02177
-8.00478
-7.9994
-7.99754
-8.00597
-8.0312
-8.1084
-7.95098
-8.02447
-8.02484
-8.02519
-8.02534
-8.0261
-8.02611
-8.02545
-8.02546
-8.02548
-8.02511
-8.02459
-8.02393
-8.02316
-8.02217
-8.02088
-8.01906
-8.01674
-8.01414
-8.01255
-8.01555
-8.03729
-8.07294
-8.08525
-8.09563
-8.1258
-8.1378
-8.12224
-8.09658
-8.07091
-8.04278
-8.03248
-8.02366
-8.02665
-8.01088
-8.06638
-8.06857
-8.36799
-8.5996
-8.02447
-8.0247
-8.02496
-8.02508
-8.02522
-8.02541
-8.0254
-8.02537
-8.0253
-8.02507
-8.02471
-8.02423
-8.02365
-8.02289
-8.02196
-8.02073
-8.01944
-8.01831
-8.01846
-8.02176
-8.03171
-8.04514
-8.05166
-8.05469
-8.06139
-8.06969
-8.06994
-8.06359
-8.05725
-8.03895
-8.04211
-8.03024
-8.0339
-8.03194
-8.05061
-8.0888
-7.93373
-8.22136
-8.02456
-8.02481
-8.02503
-8.02515
-8.02538
-8.02556
-8.02546
-8.0254
-8.02536
-8.02522
-8.02497
-8.02463
-8.02421
-8.02375
-8.02321
-8.02265
-8.02212
-8.02218
-8.02361
-8.02754
-8.03571
-8.04695
-8.05581
-8.06329
-8.07202
-8.07705
-8.07622
-8.0695
-8.05982
-8.049
-8.04248
-8.03254
-8.04309
-8.03501
-8.07615
-8.11014
-8.15967
-8.12281
-8.0245
-8.02465
-8.0248
-8.02492
-8.02503
-8.02514
-8.02521
-8.02524
-8.02523
-8.02518
-8.02508
-8.02493
-8.02478
-8.02464
-8.02452
-8.02437
-8.02447
-8.02489
-8.0263
-8.02915
-8.03346
-8.03792
-8.04092
-8.04273
-8.04416
-8.0458
-8.04563
-8.04248
-8.03954
-8.03468
-8.03292
-8.03299
-8.03877
-8.03617
-8.05667
-8.07658
-8.01039
-8.05116
-8.02456
-8.02471
-8.02487
-8.025
-8.02514
-8.02526
-8.02533
-8.02536
-8.02539
-8.0254
-8.02537
-8.02536
-8.02534
-8.0254
-8.02551
-8.02573
-8.02622
-8.02699
-8.02835
-8.03047
-8.03365
-8.03756
-8.04182
-8.04559
-8.04921
-8.05083
-8.0506
-8.04766
-8.04374
-8.0392
-8.03547
-8.03156
-8.03338
-8.03357
-8.04751
-8.05402
-8.04375
-8.07573
-8.0245
-8.02461
-8.02473
-8.02483
-8.02494
-8.02505
-8.02515
-8.02524
-8.0253
-8.02538
-8.02545
-8.02559
-8.02585
-8.02629
-8.02694
-8.02761
-8.02807
-8.02881
-8.02991
-8.03131
-8.03335
-8.0354
-8.03704
-8.03757
-8.03748
-8.03647
-8.03468
-8.03268
-8.03013
-8.02736
-8.02554
-8.02467
-8.02762
-8.02944
-8.04844
-8.06664
-8.07705
-8.13509
-8.02453
-8.02465
-8.02477
-8.02489
-8.025
-8.02511
-8.02521
-8.0253
-8.02537
-8.02547
-8.02556
-8.02572
-8.026
-8.02647
-8.02737
-8.0283
-8.02942
-8.03039
-8.03126
-8.03193
-8.03308
-8.03397
-8.03497
-8.03548
-8.03623
-8.03708
-8.03628
-8.03356
-8.03016
-8.02647
-8.02366
-8.02163
-8.02234
-8.02402
-8.02417
-8.03027
-8.0356
-8.07342
-8.02449
-8.02459
-8.0247
-8.02479
-8.02491
-8.02501
-8.02512
-8.02523
-8.0253
-8.02544
-8.02552
-8.02582
-8.02637
-8.02753
-8.02966
-8.03069
-8.03136
-8.03232
-8.03262
-8.0326
-8.0331
-8.03351
-8.03389
-8.03418
-8.03367
-8.03214
-8.02962
-8.02661
-8.0229
-8.01925
-8.01556
-8.01293
-8.01382
-8.02691
-8.04996
-8.08708
-8.13864
-8.15691
-8.02451
-8.0246
-8.02471
-8.02481
-8.02492
-8.02501
-8.02511
-8.02521
-8.02525
-8.02532
-8.02521
-8.02523
-8.02539
-8.02678
-8.02945
-8.03168
-8.03413
-8.03546
-8.03437
-8.03336
-8.03313
-8.03239
-8.0319
-8.03097
-8.03035
-8.02922
-8.02703
-8.02342
-8.01933
-8.0144
-8.00899
-8.00271
-7.99515
-7.98983
-7.97755
-7.95935
-7.93537
-7.86923
-8.02449
-8.02458
-8.02468
-8.02477
-8.02489
-8.02497
-8.02508
-8.02516
-8.02518
-8.02526
-8.02498
-8.02501
-8.025
-8.02954
-8.03547
-8.03358
-8.03536
-8.0379
-8.03526
-8.03389
-8.03386
-8.03255
-8.03236
-8.03236
-8.03099
-8.02901
-8.02631
-8.022
-8.0178
-8.01335
-8.00609
-7.99626
-7.98826
-7.99615
-8.02718
-8.10923
-8.29248
-8.2728
-8.0245
-8.02458
-8.02469
-8.02476
-8.02489
-8.02496
-8.02506
-8.02512
-8.02507
-8.02494
-8.02421
-8.02296
-8.02181
-8.02528
-8.03157
-8.03474
-8.03665
-8.03791
-8.03509
-8.03353
-8.03283
-8.03147
-8.03035
-8.02888
-8.0268
-8.02452
-8.02137
-8.01642
-8.00972
-8.00213
-7.99055
-7.97549
-7.96354
-7.95251
-7.9416
-7.94358
-7.95635
-7.90348
-8.02422
-8.02515
-8.02542
-8.02492
-8.02538
-8.02572
-8.02537
-8.02542
-8.02539
-8.02495
-8.02447
-8.0238
-8.023
-8.02196
-8.02053
-8.01837
-8.0153
-8.01107
-8.00671
-8.0047
-8.02858
-8.06727
-8.0708
-8.0646
-8.09389
-8.12359
-8.11794
-8.10131
-8.06931
-8.04019
-8.02936
-8.01388
-8.00565
-7.99872
-7.99339
-8.04862
-8.04583
-8.06898
-8.02447
-8.02515
-8.02532
-8.02506
-8.0261
-8.02629
-8.02547
-8.02548
-8.0256
-8.02523
-8.02471
-8.02408
-8.02335
-8.02246
-8.02133
-8.01979
-8.01793
-8.01591
-8.01496
-8.01742
-8.03174
-8.05703
-8.06852
-8.08243
-8.12537
-8.15094
-8.13121
-8.10798
-8.08078
-8.05086
-8.04009
-8.0282
-8.02244
-8.02065
-8.04962
-8.1022
-8.32427
-8.59222
-8.02447
-8.0248
-8.02506
-8.02507
-8.02523
-8.02544
-8.02543
-8.02542
-8.0254
-8.02518
-8.02483
-8.02438
-8.02383
-8.02316
-8.02233
-8.02129
-8.02022
-8.01938
-8.0197
-8.02252
-8.03055
-8.04188
-8.04758
-8.05053
-8.05802
-8.06736
-8.07192
-8.06819
-8.06103
-8.04542
-8.04199
-8.03286
-8.02881
-8.03144
-8.05515
-8.06387
-8.19474
-8.17775
-8.02457
-8.02486
-8.02509
-8.02516
-8.02539
-8.02561
-8.02552
-8.02546
-8.02543
-8.0253
-8.02506
-8.02474
-8.02437
-8.02396
-8.02349
-8.02302
-8.02261
-8.02273
-8.02402
-8.02736
-8.03403
-8.04324
-8.05131
-8.05899
-8.0696
-8.07815
-8.07824
-8.07211
-8.06294
-8.05255
-8.04501
-8.03676
-8.04446
-8.03782
-8.07017
-8.09435
-8.14725
-8.15798
-8.0245
-8.02466
-8.02482
-8.02494
-8.02506
-8.02518
-8.02525
-8.0253
-8.0253
-8.02526
-8.02517
-8.02504
-8.02491
-8.02479
-8.0247
-8.02461
-8.02473
-8.02519
-8.0265
-8.02902
-8.03285
-8.03693
-8.03987
-8.04171
-8.04331
-8.04454
-8.0457
-8.04349
-8.04079
-8.03607
-8.03392
-8.03295
-8.03897
-8.03432
-8.05724
-8.06748
-8.08956
-8.09573
-8.02456
-8.02472
-8.02488
-8.02502
-8.02516
-8.02529
-8.02536
-8.02541
-8.02544
-8.02546
-8.02545
-8.02545
-8.02545
-8.02552
-8.02566
-8.02593
-8.02638
-8.02711
-8.02837
-8.03029
-8.03311
-8.03655
-8.04042
-8.04413
-8.04802
-8.05068
-8.0511
-8.04838
-8.04469
-8.04069
-8.03656
-8.03392
-8.03458
-8.03623
-8.0468
-8.05641
-8.0599
-8.09314
-8.0245
-8.02462
-8.02474
-8.02485
-8.02497
-8.02508
-8.02519
-8.02528
-8.02536
-8.02546
-8.02554
-8.02568
-8.02594
-8.02638
-8.02702
-8.02762
-8.02813
-8.02883
-8.02985
-8.03115
-8.03299
-8.03491
-8.03653
-8.03724
-8.03722
-8.03634
-8.03462
-8.03282
-8.03074
-8.02794
-8.02599
-8.02484
-8.02726
-8.02983
-8.04545
-8.06204
-8.08169
-8.11398
-8.02454
-8.02465
-8.02478
-8.0249
-8.02502
-8.02513
-8.02524
-8.02534
-8.02543
-8.02555
-8.02565
-8.02582
-8.02609
-8.02657
-8.02747
-8.0284
-8.02949
-8.03036
-8.03112
-8.03177
-8.03281
-8.03369
-8.03464
-8.0352
-8.03595
-8.0367
-8.03621
-8.03415
-8.03091
-8.02763
-8.02441
-8.02289
-8.02312
-8.02442
-8.02448
-8.02957
-8.03484
-8.05972
-8.0245
-8.0246
-8.0247
-8.02481
-8.02492
-8.02503
-8.02515
-8.02527
-8.02538
-8.02553
-8.02564
-8.02594
-8.02645
-8.0276
-8.02967
-8.03064
-8.03139
-8.03223
-8.03243
-8.03245
-8.03291
-8.0333
-8.03369
-8.03395
-8.03353
-8.03218
-8.02988
-8.02699
-8.02345
-8.02007
-8.01643
-8.01426
-8.01447
-8.02454
-8.04381
-8.0785
-8.12926
-8.14644
-8.02451
-8.02461
-8.02472
-8.02482
-8.02493
-8.02503
-8.02515
-8.02526
-8.02534
-8.02544
-8.02536
-8.02537
-8.0254
-8.02692
-8.02958
-8.03188
-8.0342
-8.03509
-8.03389
-8.03309
-8.03289
-8.03229
-8.03197
-8.03121
-8.03052
-8.02928
-8.02715
-8.02382
-8.0201
-8.01549
-8.01049
-8.00484
-7.99722
-7.99408
-7.98532
-7.96966
-7.95466
-7.92967
-8.0245
-8.02458
-8.02469
-8.02478
-8.02489
-8.02499
-8.02511
-8.02522
-8.02528
-8.02537
-8.02514
-8.02504
-8.02502
-8.03006
-8.03523
-8.03332
-8.03566
-8.03749
-8.03476
-8.03377
-8.03358
-8.03245
-8.03241
-8.03227
-8.031
-8.02912
-8.0263
-8.02232
-8.01886
-8.0149
-8.00787
-7.99921
-7.99015
-7.99492
-8.01629
-8.07285
-8.23431
-8.31002
-8.0245
-8.02458
-8.02469
-8.02477
-8.02489
-8.02498
-8.0251
-8.02519
-8.02519
-8.0251
-8.02436
-8.02275
-8.02155
-8.02564
-8.03193
-8.03475
-8.03685
-8.03738
-8.03457
-8.0334
-8.03256
-8.03137
-8.03048
-8.02907
-8.02715
-8.02494
-8.02175
-8.01701
-8.01116
-8.0044
-7.99431
-7.98111
-7.96883
-7.95973
-7.95173
-7.95131
-7.97333
-7.96665
-8.0244
-8.02583
-8.0263
-8.02532
-8.02517
-8.02563
-8.02542
-8.0254
-8.02544
-8.02505
-8.02459
-8.02397
-8.02323
-8.02231
-8.0211
-8.01935
-8.01701
-8.01406
-8.01159
-8.01107
-8.02603
-8.0536
-8.05313
-8.04273
-8.07527
-8.12004
-8.12475
-8.11208
-8.0834
-8.04946
-8.03681
-8.02123
-8.00926
-7.99877
-7.99875
-8.01686
-8.06179
-8.09989
-8.0245
-8.02527
-8.02541
-8.0251
-8.02594
-8.02636
-8.02571
-8.02558
-8.02572
-8.02532
-8.02482
-8.02423
-8.02356
-8.02277
-8.0218
-8.02053
-8.01905
-8.01758
-8.0171
-8.0193
-8.0289
-8.04577
-8.05382
-8.06486
-8.11224
-8.16206
-8.14031
-8.11765
-8.09208
-8.05935
-8.04698
-8.03392
-8.02376
-8.01432
-8.03891
-8.07018
-8.22797
-8.57035
-8.02446
-8.02484
-8.02515
-8.02515
-8.02526
-8.02552
-8.02551
-8.02549
-8.0255
-8.02528
-8.02495
-8.02453
-8.02403
-8.02342
-8.02271
-8.02185
-8.02101
-8.0204
-8.02083
-8.02325
-8.0295
-8.03839
-8.04314
-8.04578
-8.05414
-8.06463
-8.07223
-8.07171
-8.06565
-8.04934
-8.04446
-8.03636
-8.02968
-8.02788
-8.03418
-8.06172
-8.01873
-8.13313
-8.02458
-8.02489
-8.02512
-8.02518
-8.02541
-8.02565
-8.0256
-8.02554
-8.02551
-8.02538
-8.02515
-8.02487
-8.02453
-8.02417
-8.02376
-8.02337
-8.02309
-8.02325
-8.0244
-8.02719
-8.03255
-8.03987
-8.04678
-8.05401
-8.06551
-8.07801
-8.08
-8.07471
-8.066
-8.0561
-8.04782
-8.04081
-8.04423
-8.03852
-8.06142
-8.07691
-8.13119
-8.1547
-8.0245
-8.02467
-8.02485
-8.02497
-8.02509
-8.02522
-8.02531
-8.02536
-8.02538
-8.02535
-8.02527
-8.02516
-8.02505
-8.02495
-8.02491
-8.02487
-8.025
-8.02546
-8.02666
-8.02886
-8.03219
-8.03582
-8.03862
-8.04052
-8.04237
-8.0439
-8.04542
-8.04437
-8.04215
-8.03726
-8.03478
-8.03251
-8.0356
-8.03324
-8.04838
-8.05699
-8.04114
-8.07049
-8.02457
-8.02473
-8.0249
-8.02503
-8.02517
-8.02532
-8.02541
-8.02546
-8.0255
-8.02553
-8.02554
-8.02555
-8.02557
-8.02565
-8.02581
-8.02611
-8.02654
-8.02722
-8.02836
-8.03008
-8.03255
-8.03552
-8.03893
-8.04246
-8.04648
-8.04984
-8.0512
-8.04902
-8.04562
-8.042
-8.03779
-8.03584
-8.03545
-8.0379
-8.04495
-8.05537
-8.05763
-8.07614
-8.02451
-8.02463
-8.02475
-8.02487
-8.02499
-8.02511
-8.02522
-8.02533
-8.02543
-8.02554
-8.02564
-8.02579
-8.02606
-8.02648
-8.02711
-8.02767
-8.02818
-8.02885
-8.02977
-8.03096
-8.03261
-8.03436
-8.03596
-8.03682
-8.03697
-8.03626
-8.03483
-8.03321
-8.03133
-8.0287
-8.02659
-8.02545
-8.02672
-8.02977
-8.04141
-8.05669
-8.07259
-8.09397
-8.02454
-8.02466
-8.02478
-8.0249
-8.02503
-8.02515
-8.02527
-8.02539
-8.0255
-8.02563
-8.02576
-8.02594
-8.0262
-8.02669
-8.02758
-8.02851
-8.02954
-8.03032
-8.03098
-8.0316
-8.03253
-8.03338
-8.03428
-8.03485
-8.03554
-8.03615
-8.03598
-8.03426
-8.03142
-8.02827
-8.02518
-8.02371
-8.02249
-8.02431
-8.02429
-8.0288
-8.03211
-8.04596
-8.0245
-8.02461
-8.02471
-8.02482
-8.02494
-8.02506
-8.02519
-8.02533
-8.02546
-8.02564
-8.02578
-8.02609
-8.02658
-8.02776
-8.02967
-8.03057
-8.03141
-8.0321
-8.03223
-8.03229
-8.03271
-8.03307
-8.03347
-8.0337
-8.03339
-8.03224
-8.03012
-8.02738
-8.02412
-8.02089
-8.01732
-8.01501
-8.0142
-8.02249
-8.03857
-8.06923
-8.11508
-8.13604
-8.02452
-8.02461
-8.02472
-8.02482
-8.02494
-8.02505
-8.02518
-8.02532
-8.02544
-8.02558
-8.02557
-8.02556
-8.02555
-8.02705
-8.02967
-8.03199
-8.03413
-8.0346
-8.0334
-8.03284
-8.03266
-8.03223
-8.03201
-8.03133
-8.03049
-8.02916
-8.02709
-8.02402
-8.02055
-8.01655
-8.01176
-8.00675
-7.99997
-7.9968
-7.99009
-7.98043
-7.97032
-7.9673
-8.0245
-8.02459
-8.02469
-8.02478
-8.02491
-8.02501
-8.02514
-8.02529
-8.02539
-8.02554
-8.02541
-8.02525
-8.02515
-8.0303
-8.03475
-8.03299
-8.03577
-8.03695
-8.03423
-8.03364
-8.03331
-8.03238
-8.03245
-8.03218
-8.03104
-8.02924
-8.02631
-8.02252
-8.01951
-8.01628
-8.00974
-8.00195
-7.99297
-7.99519
-8.01023
-8.05146
-8.1713
-8.29512
-8.0245
-8.02459
-8.02469
-8.02478
-8.0249
-8.025
-8.02513
-8.02527
-8.02535
-8.02537
-8.02475
-8.02291
-8.02144
-8.02588
-8.03215
-8.03474
-8.03682
-8.03674
-8.03404
-8.03323
-8.03231
-8.03133
-8.03058
-8.02925
-8.02752
-8.02536
-8.02212
-8.01761
-8.01255
-8.00666
-7.99783
-7.98643
-7.9743
-7.96645
-7.96068
-7.96003
-7.97548
-8.0077
-8.0246
-8.02661
-8.02711
-8.02549
-8.0252
-8.02586
-8.02555
-8.02546
-8.02549
-8.02514
-8.0247
-8.02414
-8.02346
-8.02267
-8.02166
-8.02027
-8.01853
-8.01651
-8.01512
-8.01541
-8.02402
-8.0401
-8.03498
-8.02332
-8.05465
-8.10678
-8.13099
-8.12015
-8.09573
-8.05918
-8.04389
-8.02859
-8.01318
-7.9991
-7.99613
-8.00926
-8.04603
-8.13712
-8.02457
-8.02571
-8.02561
-8.02521
-8.02589
-8.02644
-8.02594
-8.02576
-8.02586
-8.0254
-8.02491
-8.02438
-8.02378
-8.02309
-8.02227
-8.02125
-8.0201
-8.01906
-8.01888
-8.02076
-8.02727
-8.03804
-8.04267
-8.04885
-8.09221
-8.16045
-8.15239
-8.1249
-8.10285
-8.0694
-8.05398
-8.04107
-8.02825
-8.01825
-8.03138
-8.06587
-8.20022
-8.59054
-8.02444
-8.02492
-8.02524
-8.02519
-8.02533
-8.02564
-8.02563
-8.02559
-8.02561