/*--------------------------------*- C++ -*----------------------------------*\
| =========                 |                                                 |
| \\      /  F ield         | OpenFOAM: The Open Source CFD Toolbox           |
|  \\    /   O peration     | Version:  2.3.1                                 |
|   \\  /    A nd           | Web:      www.OpenFOAM.org                      |
|    \\/     M anipulation  |                                                 |
\*---------------------------------------------------------------------------*/
FoamFile
{
    version     2.0;
    format      ascii;
    class       surfaceScalarField;
    location    "10";
    object      phi;
}
// * * * * * * * * * * * * * * * * * * * * * * * * * * * * * * * * * * * * * //

dimensions      [0 3 -1 0 0 0 0];

internalField   nonuniform List<scalar> 
110130
(
-1.41878e-05
9.19165e-07
-1.88875e-06
-1.33265e-05
-7.45091e-07
-1.16201e-07
-1.168e-05
-9.70174e-07
-6.76285e-07
-1.18728e-05
-9.87831e-07
1.18059e-06
-1.43266e-05
-1.0807e-06
3.53455e-06
-1.43126e-05
-1.9745e-06
1.96046e-06
-1.28453e-05
-2.64906e-06
1.18179e-06
-1.34827e-05
-2.1034e-06
2.74077e-06
-1.2886e-05
-1.55482e-06
9.58083e-07
-1.0422e-05
-1.12773e-06
-1.33621e-06
-9.06718e-06
-7.02278e-07
-6.52567e-07
-8.80422e-06
4.27796e-07
-6.9075e-07
-8.71169e-06
1.02013e-06
-1.11267e-06
-9.1254e-06
1.29272e-06
-8.7901e-07
-1.02391e-05
1.91545e-06
-8.01793e-07
-1.31363e-05
3.01953e-06
-1.22295e-07
-2.04261e-05
6.56432e-06
7.25465e-07
-3.87792e-05
1.26539e-05
5.69925e-06
-7.75779e-05
2.55623e-05
1.32364e-05
-0.000126506
3.74552e-05
1.14728e-05
-0.000147576
2.39386e-05
-2.86893e-06
-0.000142623
-3.78498e-06
-1.16713e-06
-0.000153716
-1.30804e-05
2.41726e-05
-0.000169933
-9.94969e-06
2.61668e-05
-0.000160612
-1.93123e-05
9.99176e-06
-0.00014731
-2.84397e-05
1.51375e-05
-0.000149213
-3.24771e-05
3.43801e-05
-0.000149275
-3.34625e-05
3.35242e-05
-0.000122785
-5.27996e-05
2.63099e-05
-9.81126e-05
-9.03487e-06
-1.56376e-05
-8.35092e-05
-5.91617e-05
4.45582e-05
-6.32953e-05
-3.70778e-05
1.6864e-05
-5.34991e-05
-1.86883e-05
8.89205e-06
-7.68215e-05
-4.53971e-05
6.87195e-05
-2.85479e-05
-7.06844e-05
2.24108e-05
4.86691e-05
-1.20925e-05
-6.51245e-05
0.000123532
0.000190834
-0.000265697
-0.000520072
0.000461324
-1.12009e-06
5.37743e-06
-8.39688e-06
1.49026e-06
3.82928e-06
-7.18472e-06
3.67597e-06
2.50114e-06
-5.65702e-06
6.56276e-06
1.66387e-06
-5.53848e-06
8.4278e-06
7.69019e-07
-3.71476e-06
9.00319e-06
-1.09944e-06
-1.45044e-06
9.27039e-06
-2.26616e-06
-6.50105e-07
7.27934e-06
-2.12331e-06
2.01097e-06
3.85983e-06
-1.86387e-06
3.72856e-06
1.77296e-06
-2.47334e-06
3.43247e-06
1.03518e-06
-3.25025e-06
3.28576e-06
1.07471e-06
-1.85404e-06
2.2423e-06
1.76842e-06
-2.90883e-07
6.17304e-07
1.65949e-06
1.3533e-06
4.83579e-08
1.5236e-06
1.96565e-06
8.56835e-08
7.70988e-07
2.48199e-06
1.29015e-06
-1.37169e-06
6.57267e-06
2.13432e-06
-3.87355e-06
1.39224e-05
1.23332e-06
-4.54939e-06
2.2204e-05
4.03411e-06
-1.55372e-07
3.31951e-05
-1.33922e-07
3.97469e-06
3.40437e-05
-1.42352e-05
6.40856e-06
2.20486e-05
-2.82675e-05
1.00005e-05
1.31533e-05
-2.98256e-05
2.4355e-05
1.15151e-05
-3.58192e-05
4.61252e-05
-1.09717e-05
-3.01108e-05
5.46844e-05
-1.21838e-05
-2.48152e-05
6.87224e-05
-2.03053e-05
-2.62099e-05
8.74577e-05
-3.49868e-05
-1.72109e-05
0.000110348
-4.86166e-05
-2.70729e-05
8.45425e-05
4.50884e-05
-2.83182e-05
0.000121389
-8.17897e-05
-1.42183e-05
0.000115384
4.27141e-05
-7.37875e-05
0.000115928
1.75258e-05
-3.67577e-05
0.0001132
-5.16648e-05
8.99618e-06
0.000152516
-8.49777e-06
-0.000101503
-8.24244e-05
9.26955e-05
0.000130152
0.000222477
0.000247208
-0.000361275
-0.000488693
-0.000396771
-1.41663e-06
3.82114e-06
-9.58012e-08
5.09346e-07
3.03906e-06
-1.13576e-06
2.28514e-06
2.53211e-06
-1.80676e-06
4.12916e-06
2.05378e-06
-2.23394e-06
6.33679e-06
1.31776e-06
-2.75637e-06
7.52947e-06
-1.71193e-07
-2.12092e-06
8.71804e-06
-1.1124e-06
-2.34233e-06
9.76232e-06
-1.29654e-06
-1.87105e-06
8.43068e-06
-1.6341e-06
1.10187e-06
6.76495e-06
-2.53266e-06
1.72504e-06
4.87467e-06
-2.904e-06
1.54402e-06
2.93505e-06
-1.50999e-06
1.59557e-06
2.54314e-06
-1.87833e-06
1.97935e-06
2.76081e-06
-9.56852e-07
2.09248e-06
3.66526e-06
-8.68057e-07
1.92927e-06
3.06301e-06
-4.63624e-07
3.54786e-06
2.49514e-06
2.47496e-06
4.66559e-06
1.87112e-06
1.04533e-05
4.0931e-06
3.43116e-06
1.78865e-05
2.7574e-06
8.54715e-06
2.59304e-05
2.14865e-06
1.46749e-05
2.69505e-05
9.65475e-07
2.00808e-05
2.03052e-05
-3.66259e-06
2.30623e-05
1.1254e-05
-1.0822e-06
2.93405e-05
9.62653e-06
-4.38973e-06
3.12964e-05
-1.09043e-05
-2.02324e-06
3.52293e-05
-4.65e-06
-1.14667e-05
2.82043e-05
-3.28648e-05
1.95846e-05
8.89229e-06
-2.03181e-05
4.64329e-06
3.59446e-05
-4.82136e-05
-2.74554e-05
1.65571e-05
-2.35689e-05
8.80449e-05
1.99531e-05
-2.37466e-05
-6.14392e-05
6.30794e-05
-2.24059e-05
2.19937e-05
-4.96109e-06
-1.23368e-05
9.7903e-05
-3.69914e-05
-1.80946e-05
-1.5399e-06
7.041e-05
-3.7292e-05
-7.86071e-05
0.000154889
5.45685e-05
-4.63516e-05
2.88741e-05
0.000122906
0.000250316
0.000484533
-0.000787386
5.74364e-06
2.25368e-06
7.9256e-07
6.69901e-06
1.82374e-06
2.59943e-07
7.86412e-06
1.44145e-06
-7.4448e-08
9.32354e-06
1.01608e-06
-4.2172e-07
1.08801e-05
4.79189e-07
-7.18018e-07
1.18007e-05
-1.56167e-07
-9.35636e-07
1.27544e-05
-1.10997e-06
-9.5609e-07
1.40463e-05
-1.57202e-06
-1.01645e-06
1.45187e-05
-1.83379e-06
-2.72725e-07
1.59031e-05
-2.36108e-06
-1.55595e-06
1.74734e-05
-2.83518e-06
-1.63911e-06
1.72017e-05
-1.61756e-06
3.7924e-07
1.51853e-05
-2.52966e-06
2.66773e-06
1.31236e-05
-1.47363e-06
2.57853e-06
1.3907e-05
-2.91117e-06
1.2597e-06
1.37413e-05
1.24466e-06
-1.54259e-06
1.04483e-05
7.90713e-07
4.97727e-06
8.57966e-06
5.50868e-06
6.81329e-06
9.09015e-06
1.35298e-05
3.8463e-06
1.64967e-05
1.7685e-05
8.38929e-07
2.58861e-05
2.02931e-05
-2.73202e-06
2.88149e-05
2.023e-05
-2.85357e-06
3.44291e-05
1.35296e-05
-7.8897e-06
4.09307e-05
1.18436e-05
-8.71876e-06
4.24798e-05
-6.53814e-06
-5.91527e-06
4.13724e-05
1.09032e-05
-1.44458e-05
5.10261e-05
-3.76979e-05
-4.82067e-06
4.52583e-05
8.53437e-06
-2.30847e-05
3.07601e-05
-3.63535e-05
2.63817e-06
5.27189e-05
-2.68185e-05
-1.87093e-05
4.8958e-06
1.84054e-05
5.67122e-06
1.08989e-05
-5.08423e-05
2.24333e-05
5.92042e-05
3.46262e-05
-9.52683e-05
3.48822e-05
-9.92071e-06
1.61481e-05
9.91987e-05
-6.49184e-05
-3.66901e-05
9.84635e-05
2.04622e-05
3.48415e-05
-0.00014301
0.000220628
0.000143752
0.00055845
1.89288e-05
8.5591e-06
1.39127e-06
1.884e-07
9.20664e-06
1.18303e-06
-6.82834e-09
9.98595e-06
9.05206e-07
-2.4307e-07
1.07801e-05
6.06839e-07
-3.84886e-07
1.16846e-05
7.21997e-08
-4.97556e-07
1.26393e-05
-3.62435e-07
-7.48456e-07
1.3302e-05
-1.25683e-06
-5.15806e-07
1.39252e-05
-1.31703e-06
-8.78196e-07
1.47669e-05
-2.14551e-06
-5.29958e-07
1.55415e-05
-2.36287e-06
-7.7287e-07
1.53707e-05
-2.62797e-06
-3.63602e-08
1.63825e-05
-2.99308e-06
3.63696e-07
1.83069e-05
-1.86287e-06
-2.59113e-06
2.11128e-05
-2.07609e-06
-2.20345e-06
1.91693e-05
-1.10348e-06
1.35767e-07
2.05061e-05
1.91266e-06
-2.00484e-06
2.70719e-05
7.68188e-07
-6.54328e-06
2.22163e-05
7.37547e-06
2.9889e-06
1.59415e-05
1.05472e-05
9.25732e-06
1.41112e-05
1.55098e-05
4.00555e-06
1.56219e-05
1.84268e-05
3.55633e-07
2.03714e-05
1.51912e-05
2.89262e-07
2.53578e-05
1.15479e-05
-3.00473e-06
2.88582e-05
1.22995e-05
-3.95626e-06
3.13891e-05
-3.28138e-06
-5.78768e-06
3.30249e-05
1.14815e-05
-2.21409e-06
2.87538e-05
-1.17612e-05
-2.16655e-05
3.26877e-05
-3.4573e-06
8.05777e-06
2.7293e-05
-8.58658e-06
-2.23723e-05
3.01625e-05
-1.18055e-05
-1.78825e-05
4.88157e-05
-1.2434e-05
1.21862e-05
6.72274e-05
-1.18776e-05
-5.73763e-05
6.57114e-05
2.85381e-05
7.60405e-06
4.54316e-05
-4.61947e-05
5.65538e-05
9.20135e-05
-3.00039e-05
-8.14964e-05
2.82923e-05
5.48686e-05
2.93149e-05
-0.000192003
0.00029171
0.000149213
0.000558843
-3.41131e-05
8.84696e-06
9.19002e-07
-4.17356e-07
9.77724e-06
7.8829e-07
-5.35536e-07
1.0663e-05
6.23582e-07
-6.0409e-07
1.17055e-05
3.48562e-07
-7.84289e-07
1.24838e-05
4.30018e-08
-7.49052e-07
1.33881e-05
-3.01754e-07
-9.65029e-07
1.40317e-05
-1.06496e-06
-8.35435e-07
1.45423e-05
-9.26426e-07
-9.0126e-07
1.56209e-05
-2.22483e-06
-9.99209e-07
1.55582e-05
-1.67265e-06
-6.27573e-07
1.64035e-05
-2.66159e-06
-8.11711e-07
1.72866e-05
-2.67316e-06
-1.20295e-06
1.68469e-05
-2.47069e-06
1.04749e-06
1.88871e-05
-3.0466e-06
-1.06964e-06
1.90608e-05
-1.22452e-06
-5.27349e-08
2.005e-05
-1.67017e-07
1.09054e-06
2.14207e-05
-9.10375e-07
3.07797e-07
2.11793e-05
7.97293e-06
-3.56017e-07
2.14838e-05
7.09692e-06
3.14574e-06
2.06623e-05
1.31737e-05
3.15754e-06
2.32842e-05
1.51928e-05
6.12086e-07
2.71418e-05
8.28681e-06
3.04683e-06
2.98911e-05
1.10398e-05
-2.24122e-06
2.87171e-05
8.63537e-06
4.83816e-06
3.23715e-05
2.71408e-06
-9.64986e-06
2.93865e-05
3.81523e-06
1.06513e-05
3.03827e-05
9.02507e-07
-1.36599e-05
2.26841e-05
-7.32698e-06
1.15683e-05
2.07379e-05
1.35405e-06
-7.99443e-06
2.14522e-05
-1.93831e-05
6.86326e-06
1.95551e-05
-5.50524e-06
-5.03174e-06
2.70885e-05
-4.14226e-05
2.20116e-05
4.99467e-05
-2.22213e-05
2.79013e-05
7.41477e-05
-3.13699e-05
-3.90258e-05
1.43672e-05
3.39556e-05
-4.17906e-06
-9.42338e-05
7.95333e-05
8.39363e-05
-0.000147405
0.000271484
7.33968e-05
0.000623337
-0.0001163
8.79186e-06
6.51935e-07
-4.10786e-07
9.4669e-06
5.57276e-07
-4.44019e-07
1.01981e-05
4.85868e-07
-5.93504e-07
1.08858e-05
1.75021e-07
-5.14134e-07
1.17183e-05
-3.07939e-08
-7.58714e-07
1.2326e-05
-3.12793e-07
-5.96634e-07
1.31669e-05
-1.11397e-06
-7.91879e-07
1.37172e-05
-7.50489e-07
-7.26307e-07
1.43166e-05
-2.19742e-06
-6.26776e-07
1.54885e-05
-2.0611e-06
-7.83497e-07
1.54836e-05
-2.1611e-06
-4.95488e-07
1.71849e-05
-4.10885e-06
-2.65659e-07
1.89182e-05
-3.13039e-06
-1.07366e-06
1.95882e-05
-3.41759e-06
-2.98978e-07
2.15819e-05
-3.20298e-06
-1.52172e-08
2.42394e-05
-1.0694e-06
-1.75508e-06
2.34482e-05
2.92466e-08
-1.48482e-07
2.3668e-05
7.5316e-06
2.21605e-07
2.57742e-05
5.49681e-06
-5.06127e-07
2.52162e-05
9.97795e-06
3.75376e-06
2.99685e-05
1.35948e-05
-3.15426e-06
3.22356e-05
5.87756e-06
1.42131e-07
3.15369e-05
1.28037e-05
-1.06523e-06
3.45171e-05
5.9457e-06
-2.90531e-07
4.09853e-05
8.98127e-06
-1.27354e-05
4.86054e-05
9.72618e-06
-1.3531e-05
4.6566e-05
8.52307e-06
-5.58115e-06
5.11173e-05
6.74104e-06
-1.86193e-05
5.37622e-05
3.75788e-06
-5.04874e-06
5.42357e-05
2.57297e-06
-2.24296e-05
5.67947e-05
2.31614e-06
-1.03803e-05
4.75742e-05
3.60371e-06
-3.58059e-05
2.7802e-05
6.95421e-06
-9.4034e-06
9.28738e-06
-1.24639e-05
-3.91363e-07
-1.49714e-05
4.82332e-05
9.98118e-06
-6.55964e-05
7.81537e-05
5.20046e-05
-9.04539e-05
0.000214321
8.20205e-05
0.00073221
-8.69142e-05
8.75329e-06
5.39523e-07
-5.92172e-07
9.52857e-06
4.25496e-07
-6.43498e-07
1.02608e-05
4.56207e-07
-7.02609e-07
1.11202e-05
9.34274e-08
-7.77766e-07
1.1729e-05
1.42169e-07
-7.8176e-07
1.25851e-05
-2.25855e-07
-9.43087e-07
1.31853e-05
-9.14752e-07
-7.99366e-07
1.36684e-05
-1.88227e-07
-1.04535e-06
1.45568e-05
-2.2975e-06
-7.88351e-07
1.51033e-05
-1.55802e-06
-1.04958e-06
1.53262e-05
-1.76308e-06
-6.20952e-07
1.72494e-05
-5.24924e-06
-7.82775e-07
1.75988e-05
-2.83566e-06
-6.44114e-07
1.95941e-05
-5.66601e-06
2.53136e-07
2.3247e-05
-5.29526e-06
-1.56069e-06
2.45445e-05
-3.75791e-06
1.39107e-06
2.5134e-05
-4.13357e-07
-1.46904e-07
2.64209e-05
5.20173e-06
1.04294e-06
2.946e-05
4.09329e-06
-1.63559e-06
2.66969e-05
1.02562e-05
2.48492e-06
2.92345e-05
1.24582e-05
-1.40111e-06
2.47725e-05
1.07743e-05
-4.34765e-07
2.35865e-05
1.37159e-05
2.73835e-07
1.64601e-05
6.9543e-06
6.11776e-06
-5.62028e-08
1.52268e-05
1.02707e-05
-3.51279e-06
1.33789e-05
-1.96136e-07
-6.45454e-06
1.84661e-05
-7.00125e-06
-6.86188e-06
1.50868e-05
-7.93839e-06
-1.1958e-05
2.01917e-05
-1.13377e-05
-2.06913e-05
1.59546e-05
-4.64833e-06
-3.48698e-05
2.26177e-05
-6.12317e-06
-5.1246e-05
1.66999e-05
3.28004e-06
-5.76068e-05
2.68213e-05
-1.35063e-05
-5.40013e-05
2.09448e-05
-3.70142e-05
-5.34214e-05
2.91572e-05
1.8496e-05
-6.33385e-05
3.69684e-05
5.11025e-05
-8.99267e-05
0.000113267
0.000127642
0.000770912
-1.50227e-05
8.7015e-06
4.07059e-07
-4.90879e-07
9.31415e-06
2.82756e-07
-4.69901e-07
9.99619e-06
4.09732e-07
-6.35573e-07
1.06272e-05
-6.4005e-08
-4.73561e-07
1.1348e-05
2.06848e-07
-7.8554e-07
1.1864e-05
-2.35108e-07
-5.06677e-07
1.27312e-05
-1.08963e-06
-6.9239e-07
1.29084e-05
4.2495e-07
-7.90349e-07
1.37146e-05
-2.95075e-06
-1.52957e-07
1.43668e-05
-1.16509e-06
-1.04508e-06
1.49752e-05
-2.16873e-06
-2.02823e-07
1.60288e-05
-6.21759e-06
-8.51712e-08
1.80055e-05
-4.70313e-06
-1.0928e-07
2.25021e-05
-9.065e-06
-1.09757e-06
2.47114e-05
-8.32872e-06
8.24104e-07
2.56231e-05
-4.36303e-06
-3.06502e-07
2.70694e-05
-2.15138e-06
2.91736e-07
2.92358e-05
1.48855e-06
1.5467e-06
2.90738e-05
4.4867e-06
-2.31315e-07
2.83191e-05
9.2535e-06
1.75729e-06
2.94054e-05
1.12385e-05
1.33409e-07
2.89667e-05
1.37605e-05
-2.54749e-06
3.15314e-05
9.82921e-06
1.32199e-06
3.21913e-05
8.69599e-06
-2.40158e-06
3.57125e-05
1.66237e-05
-4.91805e-06
3.51474e-05
1.50214e-05
-1.07741e-06
3.28054e-05
1.89009e-05
1.90712e-06
3.5213e-05
1.31222e-05
-4.43073e-07
3.27944e-05
1.95284e-05
3.08193e-06
3.53855e-05
1.46341e-05
-1.27053e-06
2.9947e-05
2.51619e-05
2.89432e-06
2.6537e-05
1.40739e-05
6.03599e-06
2.85898e-05
9.54028e-06
1.52282e-05
1.1858e-05
1.75203e-05
2.01563e-05
-4.81833e-06
3.39002e-05
1.19334e-05
-2.5235e-05
5.76486e-05
-2.63499e-07
-9.97405e-05
0.000110647
7.71258e-05
0.000590786
0.000180974
8.68198e-06
3.60239e-07
-5.7402e-07
9.3291e-06
2.17002e-07
-5.81359e-07
1.00107e-05
4.1642e-07
-6.88243e-07
1.06061e-05
-1.30657e-08
-6.46338e-07
1.14105e-05
1.73151e-07
-7.70742e-07
1.17124e-05
3.16245e-07
-8.53274e-07
1.25987e-05
-1.4231e-06
-5.52818e-07
1.3102e-05
1.36344e-06
-1.44177e-06
1.28645e-05
-2.52708e-06
-1.86187e-07
1.40706e-05
-1.0802e-06
-1.29097e-06
1.40039e-05
-1.32096e-06
-7.81105e-07
1.34766e-05
-5.86316e-06
1.72872e-07
1.60297e-05
-6.94319e-06
-3.12968e-07
2.00651e-05
-1.30402e-05
-6.02373e-08
2.17495e-05
-1.10201e-05
1.00694e-06
2.46395e-05
-8.30885e-06
1.05584e-06
2.71621e-05
-8.17535e-06
3.50137e-06
2.66102e-05
-1.97498e-06
4.01537e-06
2.44283e-05
4.24832e-06
2.42027e-06
2.68854e-05
6.21432e-06
5.82072e-07
2.68874e-05
1.0348e-05
8.88555e-07
2.7271e-05
1.30858e-05
2.9109e-07
2.34166e-05
1.27695e-05
9.1412e-07
2.74912e-06
1.30212e-05
1.63423e-05
-1.01132e-05
2.32031e-05
6.28288e-06
-1.46205e-05
2.39825e-05
-4.45373e-06
-1.59206e-05
2.64738e-05
-6.27269e-06
-1.4741e-05
2.54791e-05
-1.35365e-05
-1.41542e-05
2.83217e-05
-9.38011e-06
-1.54766e-05
2.69492e-05
-1.09926e-05
-2.26468e-05
4.0725e-05
-8.3929e-06
-2.5395e-05
2.22671e-05
-5.44505e-06
-4.23105e-05
2.49116e-05
1.54418e-06
-8.3111e-05
4.16077e-05
1.67131e-05
-0.000102188
6.13954e-05
-8.41795e-06
-0.000133883
9.74309e-05
-8.08759e-06
-0.000164276
5.14064e-05
8.96332e-05
0.000157353
0.000317278
8.67401e-06
2.08559e-07
-4.75045e-07
9.18236e-06
1.26945e-07
-4.18285e-07
9.96956e-06
2.41615e-07
-6.12394e-07
1.03202e-05
1.50747e-08
-3.78766e-07
1.11863e-05
3.84809e-08
-7.31497e-07
1.16791e-05
2.97895e-07
-4.74424e-07
1.16548e-05
-1.0587e-06
-3.40114e-07
1.3144e-05
1.26089e-06
-1.38666e-06
1.21603e-05
-2.31304e-06
7.69726e-07
1.23493e-05
2.84581e-07
-1.55378e-06
1.36304e-05
-2.4796e-06
-1.22537e-07
1.1509e-05
-4.60753e-06
8.65787e-07
1.44348e-05
-1.00604e-05
1.91482e-07
1.84643e-05
-1.74017e-05
3.32024e-07
1.3341e-05
-5.40051e-06
-4.96205e-07
6.41147e-06
1.53342e-06
-2.91279e-06
1.26049e-06
-3.86259e-06
8.38226e-07
-3.94038e-07
-1.78151e-06
1.46106e-06
4.91273e-07
6.40535e-06
-3.04234e-06
6.57887e-06
3.80233e-06
-3.67562e-06
1.35013e-05
5.59915e-06
-2.17356e-06
1.86904e-05
9.65173e-06
-1.75502e-06
2.69486e-05
9.82882e-06
-5.3175e-06
2.68768e-05
8.65289e-06
4.44006e-06
2.22351e-05
1.55127e-05
1.23321e-05
1.90089e-05
1.72446e-05
9.96413e-06
1.68566e-05
2.08687e-05
7.75735e-06
1.55604e-05
2.3153e-05
3.62227e-06
1.90936e-05
2.37558e-05
1.03271e-06
1.74205e-05
2.15808e-05
7.04145e-06
2.47495e-05
3.02723e-05
3.12379e-06
2.70154e-05
1.16092e-05
8.39194e-06
9.80845e-06
1.44014e-05
2.77171e-05
1.48472e-05
1.37889e-05
2.278e-05
4.29614e-05
2.01853e-05
1.30958e-05
0.00012796
8.51446e-05
-7.27122e-05
9.48553e-05
0.000128054
-4.35427e-05
0.000186744
5.77027e-05
8.54639e-06
-4.40818e-07
8.9573e-06
-2.83963e-07
9.9374e-06
-7.38482e-07
9.80638e-06
1.46089e-07
1.12566e-05
-1.41177e-06
1.08789e-05
6.75657e-07
1.11979e-05
-1.37773e-06
1.28844e-05
-4.25596e-07
1.02198e-05
3.51554e-07
1.10678e-05
-5.6341e-07
8.67739e-06
-8.91982e-08
2.60721e-06
1.46265e-06
-8.57046e-06
1.11725e-06
-2.78359e-05
1.86369e-06
-3.41478e-05
9.11447e-07
-3.40071e-05
1.3927e-06
-4.08357e-05
2.96598e-06
-3.9378e-05
-3.23924e-06
-3.07011e-05
-2.27149e-06
-3.04133e-05
3.51448e-06
-2.5581e-05
7.6689e-07
-1.83788e-05
2.44953e-06
-1.8745e-05
1.0195e-05
-2.27382e-05
1.2646e-05
-2.35051e-05
1.62797e-05
-2.66509e-05
2.03904e-05
-2.9604e-05
2.38218e-05
-3.02531e-05
2.38021e-05
-3.40802e-05
2.75829e-05
-4.41995e-05
3.17001e-05
-5.14376e-05
3.75105e-05
-7.25325e-05
3.27041e-05
-0.000104151
4.60196e-05
-0.000149417
5.90553e-05
-0.000217949
8.87176e-05
-0.00026148
0.000128675
-0.000270488
0.000137063
0.000149001
-1.09452e-05
3.04602e-06
-6.36782e-06
-9.95097e-06
-6.50113e-07
-4.60327e-07
-9.83493e-06
-8.58823e-07
6.6506e-08
-9.28709e-06
-4.88095e-07
1.12084e-06
-1.03064e-05
-9.89512e-07
5.54339e-06
-1.09359e-05
-2.17969e-06
4.76966e-06
-9.29375e-06
-2.70596e-06
2.24558e-06
-8.64331e-06
-2.41705e-06
4.50737e-06
-8.17632e-06
-2.65752e-06
3.14862e-06
-6.51554e-06
-2.78069e-06
-2.16304e-07
-5.08323e-06
-2.69908e-06
6.14203e-07
-4.39432e-06
-1.94867e-06
5.69013e-07
-4.0385e-06
-9.46737e-07
-5.21762e-07
-4.04463e-06
-2.25266e-07
-6.47612e-07
-4.55618e-06
3.57395e-07
-6.47635e-07
-6.64988e-06
8.82217e-07
1.08918e-06
-1.27256e-05
3.47674e-06
3.32444e-06
-2.7089e-05
9.71844e-06
1.03442e-05
-5.91248e-05
2.20622e-05
2.321e-05
-0.000112207
3.78849e-05
2.66701e-05
-0.000151989
3.22416e-05
4.67128e-06
-0.000148731
3.67179e-06
-8.09677e-06
-0.000136164
-1.18396e-05
2.34449e-05
-0.000144078
-1.16651e-05
4.5746e-05
-0.000148181
-1.8022e-05
3.21175e-05
-0.000138644
-3.06719e-05
3.62718e-05
-0.000132814
-4.03853e-05
6.89351e-05
-0.000130328
-3.92531e-05
7.02914e-05
-0.000108738
-3.66208e-05
4.1341e-05
-9.44649e-05
-4.95486e-05
1.9638e-05
-8.89958e-05
-2.17367e-05
6.08258e-05
-7.20754e-05
-2.19899e-05
2.19335e-05
-6.00474e-05
-2.67383e-05
2.36024e-05
-2.38177e-05
-1.03848e-05
4.28746e-05
4.23405e-05
-6.48228e-05
2.10754e-05
6.5995e-05
0.000120605
-0.000209384
-5.74496e-05
-0.000124441
-1.78112e-05
0.000148638
0.000399739
2.06991e-06
2.67019e-06
-1.09671e-05
3.96918e-06
1.23909e-06
-1.09732e-05
5.14598e-06
4.88744e-07
-8.18138e-06
6.74966e-06
1.27598e-07
-7.75786e-06
7.65467e-06
-3.51126e-07
-5.25816e-06
7.6614e-06
-1.82559e-06
-1.81127e-06
8.25981e-06
-2.77613e-06
-1.17834e-06
8.79024e-06
-2.72568e-06
1.78916e-06
8.09046e-06
-2.77858e-06
4.5494e-06
7.097e-06
-2.9831e-06
4.62834e-06
6.58567e-06
-3.95047e-06
5.04847e-06
6.29578e-06
-4.15691e-06
4.74044e-06
6.29178e-06
-3.20098e-06
2.87554e-06
5.96363e-06
-1.69356e-06
1.8448e-06
5.45346e-06
1.29866e-07
8.23381e-07
4.81994e-06
5.72994e-07
2.23289e-06
3.5093e-06
2.46627e-06
4.45543e-06
1.52119e-06
8.34002e-06
4.59985e-06
1.29478e-06
1.76348e-05
8.68786e-06
4.10785e-06
2.89748e-05
5.96313e-06
2.48807e-06
3.21845e-05
-1.25583e-05
-2.03588e-06
2.11881e-05
-4.12599e-05
-2.3664e-06
1.01429e-05
-5.14775e-05
5.74129e-06
4.35286e-07
-5.60273e-05
2.15249e-05
-1.40084e-05
-4.9908e-05
3.50807e-05
-2.29395e-05
-4.61034e-05
4.87434e-05
-4.26566e-05
-3.76012e-05
5.53267e-05
-3.70827e-05
-2.59645e-05
7.19046e-05
-3.70363e-05
-4.32353e-05
7.41512e-05
-4.29131e-05
-3.72002e-05
8.74758e-05
-7.63834e-06
-4.16413e-05
6.77051e-05
6.91532e-06
-8.2922e-05
7.25496e-05
-8.84392e-07
-6.74562e-05
0.000114134
2.32034e-05
-6.61764e-05
0.00013988
-6.80925e-05
-0.000123979
0.0002858
0.000187345
-8.25082e-05
0.000309594
-7.33806e-05
-0.000436129
2.41723e-05
-0.0002163
3.24453e-06
1.48511e-06
-2.90697e-09
4.86208e-06
6.83856e-07
-2.19807e-06
6.4382e-06
3.81324e-07
-3.27546e-06
7.93169e-06
1.9734e-07
-3.79717e-06
9.64152e-06
-3.05313e-07
-4.51202e-06
1.07949e-05
-1.26078e-06
-3.8391e-06
1.14881e-05
-2.00174e-06
-3.8099e-06
1.22455e-05
-1.94672e-06
-3.40747e-06
1.23593e-05
-2.00442e-06
2.13913e-07
1.2375e-05
-2.5625e-06
1.28878e-06
1.22247e-05
-3.52455e-06
1.26842e-06
1.08249e-05
-2.99894e-06
1.83743e-06
9.32965e-06
-2.2116e-06
2.48519e-06
8.0315e-06
-1.59017e-06
3.28724e-06
7.65616e-06
1.69859e-08
2.41748e-06
7.5171e-06
6.50525e-07
3.6094e-06
7.07021e-06
2.41032e-06
5.16842e-06
7.34561e-06
5.22066e-06
6.93707e-06
8.97982e-06
1.18106e-05
6.9474e-06
1.37804e-05
2.00377e-05
6.28512e-06
2.00277e-05
2.23627e-05
4.53995e-06
2.31874e-05
1.69656e-05
-2.59974e-06
2.68029e-05
9.72822e-06
-4.28302e-06
3.28218e-05
8.73457e-07
-1.08468e-05
3.53557e-05
-5.46664e-06
-1.30989e-05
3.86761e-05
-1.58741e-05
-2.18525e-05
3.62008e-05
-2.28694e-05
2.27266e-06
4.31353e-05
-2.80149e-05
-1.13591e-05
4.41134e-05
-3.92164e-05
-2.62533e-05
5.04133e-05
-2.6525e-05
6.53569e-05
7.8252e-05
-3.43893e-05
-6.2527e-05
5.57525e-05
-1.40799e-05
6.54883e-05
6.4267e-05
-3.78619e-05
0.000126366
7.99194e-05
-4.64173e-05
5.24284e-05
0.000108198
-9.026e-05
-8.47185e-05
0.000212101
4.37626e-05
-6.67141e-06
0.000227954
0.000137093
2.39894e-05
-0.000186792
-0.000460124
8.17976e-06
1.14759e-06
1.04119e-08
9.24677e-06
7.53139e-07
-8.76353e-07
1.04197e-05
4.88993e-07
-1.35503e-06
1.17394e-05
1.9468e-07
-1.73875e-06
1.31075e-05
-1.77457e-07
-2.21402e-06
1.38793e-05
-7.10291e-07
-2.2579e-06
1.43654e-05
-1.50433e-06
-1.93964e-06
1.55291e-05
-1.7387e-06
-2.38817e-06
1.61766e-05
-1.92708e-06
-9.97571e-07
1.65549e-05
-2.50024e-06
-1.99644e-06
1.71244e-05
-3.0484e-06
-2.68475e-06
1.7781e-05
-1.98572e-06
-1.29059e-06
1.81114e-05
-1.61928e-06
1.74499e-06
1.74822e-05
-8.26647e-07
2.44418e-06
1.73069e-05
-8.57938e-07
2.30989e-06
1.64037e-05
9.37848e-07
-9.26643e-07
1.61373e-05
3.20159e-06
4.45242e-06
1.67419e-05
4.3422e-06
7.08716e-06
1.79779e-05
8.49348e-06
5.92736e-06
2.3035e-05
1.2852e-05
2.96764e-06
3.01834e-05
1.37542e-05
-1.27194e-06
3.48414e-05
1.40069e-05
-4.55292e-06
3.89456e-05
1.01624e-05
-1.24281e-05
4.40122e-05
2.94204e-06
-1.58539e-05
4.6868e-05
3.616e-06
-1.78537e-05
5.16653e-05
-1.42089e-05
-2.09083e-05
5.05731e-05
-5.78342e-06
-2.08144e-05
4.39352e-05
-1.84298e-05
-2.60319e-05
4.15163e-05
-2.46161e-05
-9.54317e-06
3.08166e-05
-5.19001e-06
-2.93446e-05
1.98166e-05
-3.10933e-05
1.33753e-05
2.23882e-05
-2.75607e-05
3.33425e-05
1.41594e-05
-3.77044e-05
-8.71969e-05
2.50691e-05
-5.81624e-05
1.69835e-05
5.07995e-05
-6.656e-05
-8.61206e-05
0.00015292
3.25656e-05
-5.60823e-05
0.00014571
0.000132338
0.000155717
-8.77754e-05
7.98045e-05
9.12989e-06
1.08471e-06
-5.1072e-07
9.85499e-06
8.9751e-07
-8.76294e-07
1.06881e-05
6.6781e-07
-1.25504e-06
1.14871e-05
3.97765e-07
-1.38691e-06
1.24509e-05
-1.90249e-08
-1.61983e-06
1.33352e-05
-4.87318e-07
-1.85567e-06
1.39483e-05
-1.16136e-06
-1.47195e-06
1.47612e-05
-1.43304e-06
-1.99674e-06
1.54419e-05
-1.91111e-06
-1.22657e-06
1.59365e-05
-2.41594e-06
-1.35179e-06
1.64847e-05
-2.72979e-06
-9.03178e-07
1.76688e-05
-2.73876e-06
-6.73743e-08
1.78657e-05
-2.49707e-06
-1.91022e-06
1.91454e-05
-1.90275e-06
-2.4071e-06
2.03613e-05
-1.19847e-06
-7.39524e-07
2.06917e-05
5.79062e-07
-1.9765e-06
2.18678e-05
1.48497e-06
-6.00272e-06
2.1402e-05
5.82051e-06
1.97635e-06
2.24536e-05
8.80847e-06
7.89072e-06
2.46185e-05
1.10974e-05
3.59524e-06
2.61533e-05
1.23258e-05
2.4919e-07
2.89884e-05
1.2022e-05
-5.60847e-07
3.22115e-05
8.48824e-06
-4.5537e-06
3.48046e-05
3.22026e-06
-6.82758e-06
3.80276e-05
2.96441e-06
-8.35908e-06
3.62164e-05
-3.17594e-06
-1.14359e-05
3.72411e-05
-7.42865e-06
-2.10449e-05
3.55576e-05
-1.0728e-05
2.03943e-06
3.21865e-05
-1.35171e-05
-3.01002e-05
3.55074e-05
-1.7553e-05
-8.84034e-06
4.27089e-05
-1.50131e-05
-1.10955e-05
4.06504e-05
-3.59815e-05
-4.6897e-05
5.44197e-05
-2.58826e-05
-1.79871e-05
4.39932e-05
-3.27505e-05
4.15683e-05
4.30002e-05
-2.82915e-05
-0.000118772
3.9119e-05
1.46422e-05
5.11194e-05
6.7115e-05
0.000168157
8.53981e-05
-8.1035e-05
-9.70607e-05
9.13942e-06
8.31206e-07
-1.06831e-06
1.00571e-05
7.24592e-07
-1.2803e-06
1.0999e-05
5.85365e-07
-1.46356e-06
1.19455e-05
3.38904e-07
-1.67192e-06
1.28502e-05
8.12561e-08
-1.75399e-06
1.3634e-05
-3.25328e-07
-1.91088e-06
1.43264e-05
-8.47195e-07
-1.84197e-06
1.49436e-05
-1.11939e-06
-1.83211e-06
1.57451e-05
-1.821e-06
-1.89084e-06
1.62377e-05
-1.93716e-06
-1.59891e-06
1.67257e-05
-2.45475e-06
-1.57476e-06
1.73912e-05
-2.85535e-06
-1.7519e-06
1.82999e-05
-2.25935e-06
-9.88888e-08
1.94135e-05
-2.74415e-06
-1.34182e-06
2.00986e-05
-1.36023e-06
-5.76104e-07
2.14692e-05
-7.77493e-09
3.0676e-07
2.25874e-05
9.27079e-07
-2.52488e-07
2.30019e-05
5.34342e-06
-2.93433e-07
2.45961e-05
7.925e-06
2.43499e-06
2.6185e-05
1.00675e-05
2.59859e-06
2.83745e-05
1.15026e-05
-7.54185e-07
3.17733e-05
1.03879e-05
1.2821e-06
3.40009e-05
7.80637e-06
-3.78694e-06
3.57294e-05
7.43774e-06
-1.10786e-06
3.9323e-05
1.5816e-06
-1.18606e-05
3.84887e-05
6.23599e-06
2.07367e-06
4.05564e-05
-4.41686e-06
-1.87393e-05
3.80765e-05
6.55597e-07
2.66464e-06
3.6134e-05
-4.43181e-06
-1.51372e-05
3.64559e-05
-1.34909e-05
2.47923e-06
2.61606e-05
5.83581e-06
-1.55854e-05
2.85215e-05
-2.79607e-05
1.16299e-05
2.91673e-05
-3.19534e-06
4.56826e-06
-3.04586e-06
-1.12599e-05
-2.83032e-05
-2.4486e-05
-2.32096e-05
1.21791e-05
-7.05635e-06
1.82613e-05
6.28875e-05
5.30871e-05
4.86767e-05
0.000132734
2.3417e-05
-0.000213616
9.06941e-06
6.58012e-07
-9.26777e-07
9.7975e-06
5.82399e-07
-1.02992e-06
1.05258e-05
4.99386e-07
-1.23582e-06
1.13383e-05
2.3222e-07
-1.21993e-06
1.21085e-05
3.28092e-08
-1.48051e-06
1.2928e-05
-3.33049e-07
-1.40839e-06
1.3679e-05
-8.40793e-07
-1.54931e-06
1.43595e-05
-9.57436e-07
-1.56868e-06
1.51116e-05
-1.87115e-06
-1.32878e-06
1.58933e-05
-1.95757e-06
-1.54479e-06
1.6546e-05
-2.47683e-06
-1.12609e-06
1.78644e-05
-3.51979e-06
-9.19621e-07
1.90618e-05
-3.21566e-06
-1.31471e-06
2.05255e-05
-3.54236e-06
-9.64515e-07
2.2744e-05
-3.19854e-06
-3.95362e-07
2.37259e-05
-1.03478e-06
-1.70999e-06
2.44499e-05
7.11181e-07
-6.56593e-07
2.52663e-05
4.99316e-06
-2.44569e-07
2.63652e-05
6.89228e-06
-5.72265e-07
2.86659e-05
9.25385e-06
2.26663e-06
2.93624e-05
1.08754e-05
-3.22361e-06
3.2516e-05
8.61297e-06
-1.23646e-06
3.36034e-05
9.86793e-06
-4.21421e-06
3.52273e-05
6.55313e-06
-1.02987e-06
3.5818e-05
2.97054e-06
-1.4715e-05
3.50586e-05
7.17778e-06
-1.37134e-05
3.59132e-05
7.34485e-07
-1.15871e-05
3.40744e-05
1.87976e-06
-1.80047e-05
3.37693e-05
-2.57593e-06
-6.59952e-06
2.89273e-05
-6.513e-06
-2.45656e-05
3.06153e-05
-4.84463e-06
-1.38782e-06
1.19193e-05
-7.47796e-06
-3.75926e-05
6.18875e-06
6.1842e-06
-1.30524e-05
8.94403e-07
-1.80416e-05
1.16847e-05
-1.47588e-05
-8.23285e-06
1.06577e-05
2.25205e-05
2.01165e-05
1.28702e-05
7.96363e-05
2.282e-05
5.07614e-05
6.80879e-05
-7.02821e-05
9.04006e-06
5.19974e-07
-1.17515e-06
9.81319e-06
4.33822e-07
-1.26806e-06
1.05872e-05
4.20446e-07
-1.39765e-06
1.13923e-05
1.39893e-07
-1.49061e-06
1.21291e-05
1.09149e-07
-1.59488e-06
1.28558e-05
-2.83411e-07
-1.71938e-06
1.35976e-05
-7.09706e-07
-1.6723e-06
1.41445e-05
-6.3901e-07
-1.91071e-06
1.49359e-05
-1.87989e-06
-1.57097e-06
1.55557e-05
-1.75362e-06
-1.87328e-06
1.61986e-05
-2.35582e-06
-1.38489e-06
1.7436e-05
-4.31263e-06
-1.2274e-06
1.84867e-05
-3.82986e-06
-1.08062e-06
2.07942e-05
-5.18997e-06
-4.06699e-07
2.29954e-05
-5.76761e-06
-1.19282e-06
2.50827e-05
-2.95496e-06
1.22391e-06
2.67667e-05
-1.21349e-06
9.37382e-08
2.78368e-05
4.07382e-06
8.92223e-07
2.89854e-05
5.62927e-06
-1.52113e-06
2.85579e-05
1.02447e-05
1.92157e-06
3.00693e-05
1.05659e-05
-2.60301e-06
2.73745e-05
1.11591e-05
-2.8605e-07
2.83046e-05
1.19886e-05
-2.7769e-06
3.05576e-05
7.00787e-06
3.41003e-06
2.53201e-05
9.36292e-06
9.11582e-06
2.50616e-05
8.40156e-06
-1.16145e-06
2.42199e-05
6.69241e-06
-1.21175e-05
2.35884e-05
2.54315e-06
-7.97029e-06
2.31445e-05
1.99788e-06
-1.54676e-05
2.20108e-05
-3.54616e-07
-9.67302e-06
2.0362e-05
-1.19252e-05
2.60611e-06
9.50491e-06
4.40339e-06
2.25581e-06
1.54515e-05
-1.29801e-05
-2.88544e-07
5.56081e-06
-2.74184e-05
-1.77468e-05
-2.13005e-05
8.7313e-06
2.83932e-05
4.39687e-07
2.21322e-05
2.73465e-05
4.78336e-05
-1.3208e-06
0.000104389
7.61112e-05
1.02554e-05
8.9852e-06
3.95719e-07
-9.93554e-07
9.65899e-06
3.02723e-07
-1.01259e-06
1.03095e-05
3.59204e-07
-1.22485e-06
1.10663e-05
1.3941e-08
-1.10438e-06
1.17035e-05
1.33716e-07
-1.44727e-06
1.24486e-05
-2.89996e-07
-1.24526e-06
1.3131e-05
-7.09709e-07
-1.37479e-06
1.36248e-05
-3.0736e-07
-1.6158e-06
1.44215e-05
-2.05662e-06
-7.72942e-07
1.49144e-05
-1.54261e-06
-1.74894e-06
1.56965e-05
-2.53407e-06
-8.06658e-07
1.69514e-05
-5.42648e-06
-2.26276e-07
1.87949e-05
-5.15327e-06
-6.29371e-07
2.27867e-05
-9.08388e-06
-1.19545e-06
2.52783e-05
-8.63527e-06
1.20019e-06
2.64675e-05
-4.45655e-06
5.83915e-09
2.82459e-05
-2.72063e-06
2.05329e-08
2.96831e-05
1.84179e-06
2.34151e-06
2.95641e-05
5.74856e-06
-2.31565e-07
3.02436e-05
9.65518e-06
1.66728e-06
3.14835e-05
1.04311e-05
-9.71658e-07
2.99765e-05
1.25536e-05
-2.4351e-06
3.25254e-05
1.07064e-05
5.53799e-08
3.41812e-05
7.21191e-06
-4.26139e-06
3.40057e-05
1.17264e-05
-7.10601e-06
3.25045e-05
1.01521e-05
-1.32671e-06
3.17443e-05
1.14073e-05
-2.04764e-06
3.43961e-05
6.66084e-06
-7.21251e-06
3.08353e-05
6.7906e-06
1.84996e-06
3.45592e-05
3.6414e-06
-8.99044e-06
3.20709e-05
1.91577e-06
-8.45827e-06
2.64612e-05
5.6684e-06
1.03806e-05
4.39279e-05
-7.74147e-06
-7.47709e-06
4.39329e-05
-8.63823e-06
1.37113e-06
2.92476e-05
1.55521e-05
1.97978e-05
2.26279e-05
3.82895e-05
-9.80112e-06
2.78596e-05
4.40567e-05
2.65166e-05
0.000117421
0.000151185
8.97294e-06
3.07501e-07
-1.11942e-06
9.64727e-06
1.95044e-07
-1.14801e-06
1.03197e-05
3.28982e-07
-1.33043e-06
1.10094e-05
-4.05836e-08
-1.28152e-06
1.16866e-05
2.08519e-07
-1.52274e-06
1.22712e-05
-1.38707e-07
-1.58918e-06
1.29589e-05
-6.55415e-07
-1.29481e-06
1.33957e-05
2.03835e-07
-2.38978e-06
1.37726e-05
-2.01017e-06
-6.0956e-07
1.41853e-05
-1.05939e-06
-2.1869e-06
1.44929e-05
-2.35294e-06