/*--------------------------------*- C++ -*----------------------------------*\
| =========                 |                                                 |
| \\      /  F ield         | OpenFOAM: The Open Source CFD Toolbox           |
|  \\    /   O peration     | Version:  2.3.1                                 |
|   \\  /    A nd           | Web:      www.OpenFOAM.org                      |
|    \\/     M anipulation  |                                                 |
\*---------------------------------------------------------------------------*/
FoamFile
{
    version     2.0;
    format      ascii;
    class       surfaceScalarField;
    location    "10";
    object      phi_0;
}
// * * * * * * * * * * * * * * * * * * * * * * * * * * * * * * * * * * * * * //

dimensions      [0 3 -1 0 0 0 0];

internalField   nonuniform List<scalar> 
110130
(
-1.41982e-05
9.2118e-07
-1.89084e-06
-1.33375e-05
-7.45518e-07
-1.15163e-07
-1.16882e-05
-9.71308e-07
-6.78042e-07
-1.18761e-05
-9.88284e-07
1.17627e-06
-1.43308e-05
-1.08037e-06
3.53507e-06
-1.43207e-05
-1.97382e-06
1.96365e-06
-1.28509e-05
-2.6499e-06
1.18017e-06
-1.34862e-05
-2.10346e-06
2.73876e-06
-1.28907e-05
-1.55463e-06
9.59054e-07
-1.04232e-05
-1.12899e-06
-1.33843e-06
-9.06222e-06
-7.04006e-07
-6.57012e-07
-8.79399e-06
4.25687e-07
-6.93917e-07
-8.69435e-06
1.01645e-06
-1.1161e-06
-9.0953e-06
1.28534e-06
-8.84383e-07
-1.01846e-05
1.90114e-06
-8.11795e-07
-1.30322e-05
2.9901e-06
-1.4257e-07
-2.02082e-05
6.50049e-06
6.755e-07
-3.83085e-05
1.25076e-05
5.59277e-06
-7.6781e-05
2.53044e-05
1.3168e-05
-0.000125943
3.742e-05
1.17422e-05
-0.000147757
2.44093e-05
-2.59604e-06
-0.00014286
-3.45853e-06
-1.43766e-06
-0.000153655
-1.30943e-05
2.38889e-05
-0.000170323
-9.92447e-06
2.65926e-05
-0.000161499
-1.90908e-05
1.02666e-05
-0.000147929
-2.83687e-05
1.47985e-05
-0.000149779
-3.25164e-05
3.43665e-05
-0.00015035
-3.35083e-05
3.40799e-05
-0.000124038
-5.27744e-05
2.6462e-05
-9.91795e-05
-9.21392e-06
-1.56446e-05
-8.45848e-05
-5.95954e-05
4.50007e-05
-6.4284e-05
-3.70789e-05
1.67781e-05
-5.44646e-05
-1.88632e-05
9.04376e-06
-7.7939e-05
-4.61013e-05
6.95758e-05
-3.13147e-05
-7.0586e-05
2.39617e-05
4.54527e-05
-1.17635e-05
-6.50039e-05
0.000122413
0.00019238
-0.00026934
-0.000520488
0.000465042
-1.12636e-06
5.37805e-06
-8.39663e-06
1.48574e-06
3.83019e-06
-7.18782e-06
3.67247e-06
2.50196e-06
-5.66e-06
6.56025e-06
1.66466e-06
-5.54072e-06
8.42736e-06
7.70387e-07
-3.71788e-06
9.00373e-06
-1.09882e-06
-1.45136e-06
9.26855e-06
-2.26666e-06
-6.48059e-07
7.27557e-06
-2.12337e-06
2.01289e-06
3.85881e-06
-1.86477e-06
3.72691e-06
1.77611e-06
-2.47576e-06
3.42947e-06
1.0417e-06
-3.2526e-06
3.283e-06
1.0851e-06
-1.85734e-06
2.23963e-06
1.78393e-06
-2.96502e-07
6.14124e-07
1.68301e-06
1.34276e-06
4.34993e-08
1.5589e-06
1.94696e-06
7.82844e-08
8.22117e-07
2.44944e-06
1.27745e-06
-1.30659e-06
6.51518e-06
2.11401e-06
-3.81894e-06
1.38185e-05
1.20148e-06
-4.55832e-06
2.20294e-05
4.01446e-06
-1.9874e-07
3.3072e-05
-1.16e-08
3.94649e-06
3.41822e-05
-1.39181e-05
6.42414e-06
2.22739e-05
-2.82101e-05
9.94223e-06
1.3275e-05
-2.98874e-05
2.4226e-05
1.16389e-05
-3.58472e-05
4.60217e-05
-1.07551e-05
-3.01314e-05
5.46261e-05
-1.19847e-05
-2.49883e-05
6.87645e-05
-2.02461e-05
-2.64087e-05
8.76571e-05
-3.50526e-05
-1.73483e-05
0.000110434
-4.83934e-05
-2.71582e-05
8.49776e-05
4.48218e-05
-2.85789e-05
0.000121887
-8.2251e-05
-1.4254e-05
0.000115267
4.33919e-05
-7.3851e-05
0.000116254
1.69268e-05
-3.67769e-05
0.000113311
-5.22854e-05
9.12715e-06
0.000152877
-7.90919e-06
-0.000102242
-8.24438e-05
9.34903e-05
0.000130066
0.000222397
0.000246707
-0.000359167
-0.000485445
-0.000401518
-1.41824e-06
3.82098e-06
-9.31145e-08
5.0737e-07
3.03921e-06
-1.13463e-06
2.28345e-06
2.53239e-06
-1.80651e-06
4.12784e-06
2.05407e-06
-2.2338e-06
6.33624e-06
1.31871e-06
-2.75673e-06
7.53009e-06
-1.70968e-07
-2.1217e-06
8.71957e-06
-1.11286e-06
-2.34328e-06
9.76254e-06
-1.29733e-06
-1.86901e-06
8.42908e-06
-1.63604e-06
1.10473e-06
6.7637e-06
-2.53582e-06
1.72544e-06
4.87516e-06
-2.90661e-06
1.54255e-06
2.93916e-06
-1.51627e-06
1.59493e-06
2.55228e-06
-1.88846e-06
1.97884e-06
2.77615e-06
-9.70968e-07
2.08986e-06
3.68633e-06
-8.89546e-07
1.92633e-06
3.08988e-06
-4.95664e-07
3.54156e-06
2.52229e-06
2.42896e-06
4.6538e-06
1.87961e-06
1.0382e-05
4.07919e-06
3.38499e-06
1.7783e-05
2.74101e-06
8.45906e-06
2.58359e-05
2.16206e-06
1.46127e-05
2.70182e-05
1.01036e-06
2.00359e-05
2.0495e-05
-3.6443e-06
2.30226e-05
1.13682e-05
-1.07983e-06
2.93019e-05
9.70379e-06
-4.34419e-06
3.133e-05
-1.07573e-05
-2.02595e-06
3.53219e-05
-4.53705e-06
-1.14395e-05
2.82851e-05
-3.2743e-05
1.95337e-05
9.16471e-06
-2.03238e-05
4.39158e-06
3.60553e-05
-4.81833e-05
-2.71007e-05
1.629e-05
-2.36388e-05
8.82259e-05
1.99178e-05
-2.39246e-05
-6.19542e-05
6.29603e-05
-2.22937e-05
2.2643e-05
-5.42185e-06
-1.2625e-05
9.79339e-05
-3.68191e-05
-1.85206e-05
-2.36748e-06
7.11761e-05
-3.64445e-05
-7.94599e-05
0.00015537
5.56192e-05
-4.63223e-05
2.72632e-05
0.000122173
0.00025264
0.000482741
-0.000783047
5.74513e-06
2.25386e-06
7.92547e-07
6.70039e-06
1.82401e-06
2.59943e-07
7.8656e-06
1.4418e-06
-7.46108e-08
9.32506e-06
1.0163e-06
-4.21704e-07
1.08822e-05
4.79507e-07
-7.17894e-07
1.18031e-05
-1.56052e-07
-9.35896e-07
1.27577e-05
-1.11069e-06
-9.56679e-07
1.40494e-05
-1.57292e-06
-1.0162e-06
1.45229e-05
-1.83537e-06
-2.74092e-07
1.59099e-05
-2.36414e-06
-1.55872e-06
1.74795e-05
-2.83785e-06
-1.63833e-06
1.72033e-05
-1.62335e-06
3.83214e-07
1.51852e-05
-2.53891e-06
2.66856e-06
1.31284e-05
-1.48881e-06
2.57471e-06
1.39179e-05
-2.92772e-06
1.24861e-06
1.37502e-05
1.22059e-06
-1.54857e-06
1.0454e-05
7.50995e-07
4.97417e-06
8.57006e-06
5.46999e-06
6.79594e-06
9.03391e-06
1.34796e-05
3.83955e-06
1.63775e-05
1.76454e-05
8.46907e-07
2.57658e-05
2.03231e-05
-2.69316e-06
2.87632e-05
2.03077e-05
-2.8101e-06
3.44062e-05
1.36191e-05
-7.89388e-06
4.09079e-05
1.19211e-05
-8.71899e-06
4.2464e-05
-6.37591e-06
-5.93747e-06
4.14541e-05
1.09599e-05
-1.44871e-05
5.11094e-05
-3.7597e-05
-4.80136e-06
4.52283e-05
8.5704e-06
-2.30131e-05
3.09102e-05
-3.64744e-05
2.60928e-06
5.28499e-05
-2.67066e-05
-1.88718e-05
4.78122e-06
1.83157e-05
5.82835e-06
1.12128e-05
-5.09456e-05
2.22203e-05
5.93257e-05
3.47283e-05
-9.54663e-05
3.52962e-05
-1.05847e-05
1.60936e-05
0.000100126
-6.42917e-05
-3.69829e-05
9.97352e-05
2.19609e-05
3.40495e-05
-0.000142396
0.000219896
0.000144408
0.000550162
2.45735e-05
8.5595e-06
1.39128e-06
1.88353e-07
9.20714e-06
1.18329e-06
-6.92889e-09
9.98663e-06
9.05544e-07
-2.43232e-07
1.07809e-05
6.07016e-07
-3.8501e-07
1.16859e-05
7.24223e-08
-4.97863e-07
1.26409e-05
-3.62623e-07
-7.4847e-07
1.33038e-05
-1.25737e-06
-5.1616e-07
1.39276e-05
-1.31816e-06
-8.78653e-07
1.47702e-05
-2.14751e-06
-5.30453e-07
1.55445e-05
-2.36525e-06
-7.73141e-07
1.53744e-05
-2.63208e-06
-3.56762e-08
1.63893e-05
-2.99767e-06
3.59382e-07
1.83185e-05
-1.86993e-06
-2.59814e-06
2.11183e-05
-2.08802e-06
-2.20056e-06
1.91726e-05
-1.11601e-06
1.33955e-07
2.05279e-05
1.88862e-06
-2.02334e-06
2.70784e-05
7.45427e-07
-6.54493e-06
2.21842e-05
7.35712e-06
3.00707e-06
1.58949e-05
1.05174e-05
9.25149e-06
1.4048e-05
1.54968e-05
3.99542e-06
1.55706e-05
1.84316e-05
3.68989e-07
2.03482e-05
1.52306e-05
2.99467e-07
2.53411e-05
1.16279e-05
-3.0017e-06
2.8847e-05
1.23579e-05
-3.94269e-06
3.14012e-05
-3.18723e-06
-5.74286e-06
3.30565e-05
1.15807e-05
-2.27606e-06
2.88049e-05
-1.1746e-05
-2.15994e-05
3.27404e-05
-3.37912e-06
8.01399e-06
2.73014e-05
-8.5609e-06
-2.24745e-05
3.02147e-05
-1.18061e-05
-1.78138e-05
4.88151e-05
-1.24801e-05
1.21955e-05
6.71612e-05
-1.1708e-05
-5.75837e-05
6.54074e-05
2.84152e-05
8.06698e-06
4.55829e-05
-4.68231e-05
5.60629e-05
9.25775e-05
-2.97546e-05
-8.15317e-05
2.99459e-05
5.47855e-05
2.98069e-05
-0.00018578
0.000287272
0.000148349
0.000555568
-3.76093e-05
8.84693e-06
9.19109e-07
-4.17575e-07
9.77743e-06
7.88497e-07
-5.35705e-07
1.06636e-05
6.23763e-07
-6.04351e-07
1.17063e-05
3.48686e-07
-7.84453e-07
1.24849e-05
4.3074e-08
-7.49239e-07
1.33899e-05
-3.02203e-07
-9.65355e-07
1.40332e-05
-1.06521e-06
-8.35535e-07
1.45449e-05
-9.27806e-07
-9.01965e-07
1.56231e-05
-2.22631e-06
-9.99448e-07
1.55603e-05
-1.67452e-06
-6.2788e-07
1.64072e-05
-2.66546e-06
-8.13602e-07
1.72879e-05
-2.67682e-06
-1.20156e-06
1.68497e-05
-2.47849e-06
1.04685e-06
1.88908e-05
-3.05507e-06
-1.07412e-06
1.90617e-05
-1.23591e-06
-5.10001e-08
2.00484e-05
-1.89534e-07
1.09148e-06
2.14096e-05
-9.20934e-07
3.0519e-07
2.1162e-05
7.95992e-06
-3.5526e-07
2.14601e-05
7.07501e-06
3.14431e-06
2.06321e-05
1.31734e-05
3.15142e-06
2.32564e-05
1.51885e-05
6.18758e-07
2.71157e-05
8.31172e-06
3.05957e-06
2.9861e-05
1.11022e-05
-2.21969e-06
2.86997e-05
8.67918e-06
4.84006e-06
3.23736e-05
2.77765e-06
-9.63879e-06
2.9411e-05
3.88838e-06
1.06549e-05
3.04124e-05
9.39257e-07
-1.36866e-05
2.27102e-05
-7.25233e-06
1.15754e-05
2.07797e-05
1.37371e-06
-8.00412e-06
2.14688e-05
-1.93414e-05
6.84615e-06
1.95573e-05
-5.53942e-06
-5.02915e-06
2.71195e-05
-4.13455e-05
2.20753e-05
5.00772e-05
-2.21168e-05
2.75743e-05
7.4024e-05
-3.14912e-05
-3.92786e-05
1.41872e-05
3.43263e-05
-4.24405e-06
-9.34319e-05
7.7943e-05
8.44616e-05
-0.000143416
0.000263342
7.39141e-05
0.00062971
-0.000122631
8.79186e-06
6.51952e-07
-4.10797e-07
9.46705e-06
5.57421e-07
-4.44115e-07
1.01984e-05
4.85938e-07
-5.93528e-07
1.08863e-05
1.75047e-07
-5.14292e-07
1.1719e-05
-3.07698e-08
-7.58827e-07
1.2327e-05
-3.13424e-07
-5.96757e-07
1.31681e-05
-1.11411e-06
-7.92271e-07
1.37184e-05
-7.5163e-07
-7.26423e-07
1.43188e-05
-2.19923e-06
-6.27494e-07
1.54899e-05
-2.06171e-06
-7.83848e-07
1.54851e-05
-2.16492e-06
-4.95801e-07
1.71873e-05
-4.11133e-06
-2.67654e-07
1.89171e-05
-3.13395e-06
-1.0744e-06
1.95854e-05
-3.42509e-06
-2.98256e-07
2.15847e-05
-3.21608e-06
-1.90978e-08
2.42382e-05
-1.08479e-06
-1.7583e-06
2.34388e-05
2.4818e-08
-1.46283e-07
2.36623e-05
7.51585e-06
2.20564e-07
2.57632e-05
5.47703e-06
-5.02985e-07
2.52037e-05
9.98458e-06
3.74833e-06
2.99649e-05
1.35882e-05
-3.16098e-06
3.22182e-05
5.90145e-06
1.57025e-07
3.15279e-05
1.28495e-05
-1.05701e-06
3.45436e-05
5.97573e-06
-3.1223e-07
4.10456e-05
9.04072e-06
-1.27651e-05
4.86455e-05
9.78529e-06
-1.34968e-05
4.66078e-05
8.59165e-06
-5.61463e-06
5.11897e-05
6.80512e-06
-1.86394e-05
5.3819e-05
3.81699e-06
-5.07249e-06
5.42731e-05
2.62591e-06
-2.24215e-05
5.67839e-05
2.33376e-06
-1.0384e-05
4.75315e-05
3.60578e-06
-3.56989e-05
2.77264e-05
7.06901e-06
-9.38069e-06
9.02584e-06
-1.23943e-05
-3.96333e-07
-1.51257e-05
4.83909e-05
1.00869e-05
-6.51241e-05
7.67851e-05
5.11564e-05
-9.09067e-05
0.000204816
8.43082e-05
0.000736829
-8.28335e-05
8.75333e-06
5.39529e-07
-5.92239e-07
9.52872e-06
4.25626e-07
-6.43588e-07
1.02612e-05
4.56148e-07
-7.02737e-07
1.11207e-05
9.34655e-08
-7.77886e-07
1.17297e-05
1.4219e-07
-7.81987e-07
1.25863e-05
-2.26638e-07
-9.43303e-07
1.31862e-05
-9.14382e-07
-7.99665e-07
1.36699e-05
-1.89544e-07
-1.04583e-06
1.45585e-05
-2.2988e-06
-7.8899e-07
1.51039e-05
-1.55704e-06
-1.05006e-06
1.53279e-05
-1.76738e-06
-6.21578e-07
1.72504e-05
-5.24961e-06
-7.842e-07
1.75966e-05
-2.83625e-06
-6.43869e-07
1.9594e-05
-5.67319e-06
2.50639e-07
2.3246e-05
-5.30662e-06
-1.56143e-06
2.45349e-05
-3.76696e-06
1.39328e-06
2.51264e-05
-4.17334e-07
-1.49413e-07
2.64247e-05
5.17698e-06
1.04059e-06
2.94531e-05
4.0801e-06
-1.63148e-06
2.66861e-05
1.02653e-05
2.48628e-06
2.9222e-05
1.24572e-05
-1.40484e-06
2.4751e-05
1.08009e-05
-4.2842e-07
2.35726e-05
1.37357e-05
2.92159e-07
1.64284e-05
6.98911e-06
6.13088e-06
-7.69889e-08
1.52754e-05
1.02706e-05
-3.50696e-06
1.34335e-05
-2.18248e-07
-6.43103e-06
1.85271e-05
-7.0114e-06
-6.81278e-06
1.51476e-05
-7.96073e-06
-1.18875e-05
2.02578e-05
-1.13661e-05
-2.05955e-05
1.60088e-05
-4.67483e-06
-3.47684e-05
2.26799e-05
-6.17335e-06
-5.12396e-05
1.67362e-05
3.34078e-06
-5.77795e-05
2.69688e-05
-1.33599e-05
-5.41752e-05
2.10268e-05
-3.70255e-05
-5.34117e-05
2.92389e-05
1.83886e-05
-6.33207e-05
3.67911e-05
4.99029e-05
-9.26769e-05
0.000105159
0.000129013
0.000758573
-1.17678e-06
8.70151e-06
4.0702e-07
-4.90894e-07
9.31427e-06
2.82891e-07
-4.70027e-07
9.99641e-06
4.09586e-07
-6.35579e-07
1.06276e-05
-6.39495e-08
-4.73743e-07
1.13485e-05
2.06962e-07
-7.85667e-07
1.18649e-05
-2.36211e-07
-5.06809e-07
1.2732e-05
-1.08844e-06
-6.93064e-07
1.29093e-05
4.2337e-07
-7.90226e-07
1.37162e-05
-2.95186e-06
-1.5387e-07
1.43674e-05
-1.16242e-06
-1.04578e-06
1.49745e-05
-2.17189e-06
-2.02622e-07
1.60276e-05
-6.21658e-06
-8.61177e-08
1.80012e-05
-4.69833e-06
-1.11475e-07
2.24947e-05
-9.07013e-06
-1.09662e-06
2.47101e-05
-8.34805e-06
8.26035e-07
2.56196e-05
-4.36826e-06
-3.08137e-07
2.70679e-05
-2.15719e-06
2.91552e-07
2.92387e-05
1.46102e-06
1.54511e-06
2.90647e-05
4.48007e-06
-2.25941e-07
2.8315e-05
9.25806e-06
1.75694e-06
2.93996e-05
1.12457e-05
1.26863e-07
2.89726e-05
1.37712e-05
-2.54327e-06
3.15435e-05
9.83934e-06
1.32549e-06
3.22049e-05
8.73045e-06
-2.40273e-06
3.57388e-05
1.66576e-05
-4.91609e-06
3.51637e-05
1.50751e-05
-1.06655e-06
3.2847e-05
1.89516e-05
1.89228e-06
3.5272e-05
1.3177e-05
-4.54414e-07
3.28663e-05
1.9607e-05
3.05651e-06
3.54794e-05
1.4706e-05
-1.3103e-06
2.99948e-05
2.52987e-05
2.8658e-06
2.65732e-05
1.42355e-05
5.92231e-06
2.84583e-05
9.81445e-06
1.52692e-05
1.1474e-05
1.76643e-05
2.03469e-05
-5.0042e-06
3.37527e-05
1.19644e-05
-2.43614e-05
5.69328e-05
-7.84545e-07
-9.83518e-05
0.000105147
7.40025e-05
0.000567133
0.000189217
8.68203e-06
3.60165e-07
-5.74041e-07
9.32925e-06
2.17124e-07
-5.81455e-07
1.00108e-05
4.16275e-07
-6.88287e-07
1.06065e-05
-1.31668e-08
-6.46469e-07
1.14109e-05
1.73641e-07
-7.71011e-07
1.17131e-05
3.14755e-07
-8.53233e-07
1.26e-05
-1.42168e-06
-5.53665e-07
1.31022e-05
1.36285e-06
-1.44164e-06
1.28665e-05
-2.5293e-06
-1.86837e-07
1.40734e-05
-1.07643e-06
-1.2929e-06
1.40037e-05
-1.32116e-06
-7.81059e-07
1.34779e-05
-5.86283e-06
1.72047e-07
1.6026e-05
-6.93115e-06
-3.15242e-07
2.0056e-05
-1.30387e-05
-6.15219e-08
2.17441e-05
-1.10426e-05
1.00649e-06
2.4635e-05
-8.31346e-06
1.0543e-06
2.71599e-05
-8.18393e-06
3.5018e-06
2.66054e-05
-1.99951e-06
4.01509e-06
2.4425e-05
4.24278e-06
2.41768e-06
2.6886e-05
6.2141e-06
5.82925e-07
2.68885e-05
1.03517e-05
8.91584e-07
2.72735e-05
1.30916e-05
2.946e-07
2.34037e-05
1.27835e-05
9.25682e-07
2.73783e-06
1.30469e-05
1.63494e-05
-1.01125e-05
2.32358e-05
6.2721e-06
-1.46207e-05
2.4034e-05
-4.45065e-06
-1.59214e-05
2.6533e-05
-6.28071e-06
-1.47494e-05
2.55562e-05
-1.35512e-05
-1.41445e-05
2.84133e-05
-9.41117e-06
-1.54426e-05
2.70478e-05
-1.10437e-05
-2.25843e-05
4.08657e-05
-8.4253e-06
-2.52049e-05
2.23734e-05
-5.51732e-06
-4.18486e-05
2.50787e-05
1.37945e-06
-8.24039e-05
4.16063e-05
1.66132e-05
-0.000100798
6.0698e-05
-8.55082e-06
-0.000130473
9.55623e-05
-8.95449e-06
-0.000158866
4.91319e-05
8.44078e-05
0.000141865
0.000310773
8.67399e-06
2.08514e-07
-4.75059e-07
9.18254e-06
1.27018e-07
-4.18449e-07
9.96965e-06
2.41555e-07
-6.12386e-07
1.03205e-05
1.49831e-08
-3.79007e-07
1.1187e-05
3.88864e-08
-7.31732e-07
1.16791e-05
2.96882e-07
-4.74277e-07
1.16564e-05
-1.05753e-06
-3.41392e-07
1.31451e-05
1.26004e-06
-1.38594e-06
1.21606e-05
-2.31346e-06
7.687e-07
1.23528e-05
2.87416e-07
-1.556e-06
1.36315e-05
-2.47842e-06
-1.21448e-07
1.1506e-05
-4.60212e-06
8.64742e-07
1.44267e-05
-1.00399e-05
1.88054e-07
1.84643e-05
-1.74121e-05
3.35892e-07
1.33489e-05
-5.44237e-06
-4.84869e-07
6.41854e-06
1.53463e-06
-2.91775e-06
1.26303e-06
-3.85003e-06
8.21609e-07
-3.94142e-07
-1.80423e-06
1.46189e-06
4.86549e-07
6.40124e-06
-3.03915e-06
6.56559e-06
3.81389e-06
-3.67883e-06
1.34924e-05
5.59076e-06
-2.1659e-06
1.86886e-05
9.65164e-06
-1.75623e-06
2.69475e-05
9.84185e-06
-5.31736e-06
2.68826e-05
8.65905e-06
4.45276e-06
2.22528e-05
1.55193e-05
1.23463e-05
1.90421e-05
1.72694e-05
9.9754e-06
1.6901e-05
2.09003e-05
7.77366e-06
1.56141e-05
2.32081e-05
3.6351e-06
1.91622e-05
2.38328e-05
1.03239e-06
1.75058e-05
2.16681e-05
7.03606e-06
2.48787e-05
3.04132e-05
3.07959e-06
2.70121e-05
1.18373e-05
8.40272e-06
9.52265e-06
1.48035e-05
2.77647e-05
1.41988e-05
1.40957e-05
2.28344e-05
4.29762e-05
1.91208e-05
1.27998e-05
0.000129416
8.21369e-05
-7.3014e-05
9.69343e-05
0.000127606
-4.59924e-05
0.000185015
4.68927e-05
8.54636e-06
-4.40777e-07
8.95766e-06
-2.84282e-07
9.93737e-06
-7.38161e-07
9.80707e-06
1.45285e-07
1.12574e-05
-1.41142e-06
1.08787e-05
6.75534e-07
1.12006e-05
-1.37942e-06
1.28851e-05
-4.24412e-07
1.02217e-05
3.49864e-07
1.10746e-05
-5.65469e-07
8.68536e-06
-8.91556e-08
2.62134e-06
1.4619e-06
-8.53254e-06
1.11395e-06
-2.78097e-05
1.8651e-06
-3.41666e-05
9.14545e-07
-3.40109e-05
1.37893e-06
-4.08322e-05
2.97126e-06
-3.94187e-05
-3.21775e-06
-3.07322e-05
-2.28527e-06
-3.04349e-05
3.51654e-06
-2.56245e-05
7.80381e-07
-1.84126e-05
2.43979e-06
-1.87665e-05
1.01957e-05
-2.27701e-05
1.26627e-05
-2.35451e-05
1.62943e-05
-2.66863e-05
2.04105e-05
-2.9636e-05
2.385e-05
-3.0256e-05
2.38281e-05
-3.403e-05
2.76068e-05
-4.41048e-05
3.17429e-05
-5.12299e-05
3.75383e-05
-7.20736e-05
3.2681e-05
-0.000103113
4.5843e-05
-0.000147582
5.85649e-05
-0.000216426
8.79648e-05
-0.00026271
0.00012842
-0.000272711
0.000137607
0.000147942
-1.09534e-05
3.04752e-06
-6.37261e-06
-9.95851e-06
-6.49646e-07
-4.60434e-07
-9.84132e-06
-8.60237e-07
6.50126e-08
-9.29152e-06
-4.88699e-07
1.11517e-06
-1.03094e-05
-9.89155e-07
5.54208e-06
-1.09411e-05
-2.17964e-06
4.77498e-06
-9.29869e-06
-2.7072e-06
2.24499e-06
-8.64626e-06
-2.41736e-06
4.50369e-06
-8.17905e-06
-2.65739e-06
3.14923e-06
-6.51588e-06
-2.7824e-06
-2.19189e-07
-5.07931e-06
-2.70198e-06
6.0839e-07
-4.38561e-06
-1.95153e-06
5.63921e-07
-4.02307e-06
-9.50426e-07
-5.2822e-07
-4.01765e-06
-2.31778e-07
-6.5802e-07
-4.50781e-06
3.443e-07
-6.6594e-07
-6.55984e-06
8.54996e-07
1.05447e-06
-1.25493e-05
3.41769e-06
3.24729e-06
-2.67247e-05
9.58433e-06
1.01838e-05
-5.83908e-05
2.17996e-05
2.30345e-05
-0.000111373
3.77345e-05
2.699e-05
-0.000151859
3.26214e-05
5.26875e-06
-0.000149258
4.21746e-06
-8.25622e-06
-0.000136481
-1.17473e-05
2.28589e-05
-0.000144243
-1.16513e-05
4.60062e-05
-0.000148736
-1.78204e-05
3.25797e-05
-0.000139321
-3.05162e-05
3.59002e-05
-0.000133392
-4.03529e-05
6.879e-05
-0.000131099
-3.92694e-05
7.1056e-05
-0.000109735
-3.67819e-05
4.18805e-05
-9.54227e-05
-4.98237e-05
1.98666e-05
-8.97756e-05
-2.18393e-05
6.11929e-05
-7.28645e-05
-2.23369e-05
2.22039e-05
-6.0966e-05
-2.69448e-05
2.409e-05
-2.45351e-05
-1.07388e-05
4.38837e-05
4.19359e-05
-6.40093e-05
2.15e-05
6.67438e-05
0.000119902
-0.000209714
-5.7768e-05
-0.000124
-2.08287e-05
0.000145402
0.000406603
2.06635e-06
2.67036e-06
-1.09666e-05
3.96709e-06
1.23945e-06
-1.09777e-05
5.14474e-06
4.8879e-07
-8.18668e-06
6.74904e-06
1.2742e-07
-7.76113e-06
7.65534e-06
-3.5022e-07
-5.26311e-06
7.66244e-06
-1.82543e-06
-1.81267e-06
8.26003e-06
-2.77701e-06
-1.17584e-06
8.79048e-06
-2.72605e-06
1.79113e-06
8.09214e-06
-2.77967e-06
4.54752e-06
7.10104e-06
-2.98633e-06
4.6245e-06
6.5921e-06
-3.95507e-06
5.04503e-06
6.30549e-06
-4.16161e-06
4.73633e-06
6.30632e-06
-3.20677e-06
2.86963e-06
5.98556e-06
-1.70341e-06
1.83589e-06
5.48557e-06
1.13047e-07
8.09529e-07
4.86661e-06
5.41127e-07
2.21028e-06
3.56841e-06
2.41087e-06
4.41904e-06
1.56546e-06
8.24064e-06
4.54811e-06
1.28571e-06
1.74666e-05
8.62723e-06
4.09426e-06
2.88184e-05
6.0959e-06
2.57232e-06
3.22845e-05
-1.20593e-05
-1.92602e-06
2.14537e-05
-4.0948e-05
-2.38769e-06
1.03165e-05
-5.14895e-05
5.58079e-06
5.68785e-07
-5.60357e-05
2.13845e-05
-1.37525e-05
-5.0003e-05
3.50094e-05
-2.27714e-05
-4.63581e-05
4.8686e-05
-4.26e-05
-3.78381e-05
5.53079e-05
-3.70763e-05
-2.61633e-05
7.19162e-05
-3.71737e-05
-4.33748e-05
7.42195e-05
-4.32857e-05
-3.74203e-05
8.77256e-05
-7.64231e-06
-4.19571e-05
6.78646e-05
6.77506e-06
-8.31019e-05
7.28987e-05
-9.67286e-07
-6.77885e-05
0.000114787
2.27691e-05
-6.62694e-05
0.000139182
-6.64011e-05
-0.000124246
0.000284689
0.000186761
-8.22983e-05
0.000309885
-7.2022e-05
-0.000436341
2.22628e-05
-0.000221679
3.24412e-06
1.48555e-06
8.90276e-10
4.86106e-06
6.844e-07
-2.19651e-06
6.43744e-06
3.81761e-07
-3.27586e-06
7.93098e-06
1.97628e-07
-3.79755e-06
9.64163e-06
-3.04513e-07
-4.51308e-06
1.07956e-05
-1.26068e-06
-3.84042e-06
1.1489e-05
-2.00223e-06
-3.81147e-06
1.22471e-05
-1.94707e-06
-3.40606e-06
1.23616e-05
-2.00586e-06
2.16387e-07
1.23784e-05
-2.56614e-06
1.28851e-06
1.2228e-05
-3.529e-06
1.26682e-06
1.08292e-05
-3.00371e-06
1.83587e-06
9.33797e-06
-2.21956e-06
2.48282e-06
8.04607e-06
-1.60279e-06
3.28114e-06
7.67721e-06
1.30833e-09
2.40693e-06
7.54416e-06
6.20571e-07
3.59516e-06
7.09794e-06
2.36506e-06
5.14583e-06
7.35913e-06
5.15038e-06
6.90828e-06
8.94167e-06
1.17133e-05
6.91176e-06
1.36894e-05
1.99401e-05
6.29264e-06
1.99704e-05
2.24007e-05
4.61326e-06
2.31645e-05
1.71539e-05
-2.53863e-06
2.67786e-05
9.86328e-06
-4.24072e-06
3.27546e-05
1.00604e-06
-1.07574e-05
3.5348e-05
-5.32788e-06
-1.3044e-05
3.87086e-05
-1.57223e-05
-2.18492e-05
3.62836e-05
-2.28277e-05
2.18635e-06
4.31558e-05
-2.79946e-05
-1.15623e-05
4.39823e-05
-3.91793e-05
-2.59216e-05
5.0522e-05
-2.67797e-05
6.51801e-05
7.8384e-05
-3.45206e-05
-6.29379e-05
5.55405e-05
-1.39267e-05
6.61882e-05
6.43377e-05
-3.81377e-05
0.000126307
8.03497e-05
-4.67964e-05
5.11861e-05
0.000108742
-8.98618e-05
-8.43916e-05
0.000211548
4.3693e-05
-6.06073e-06
0.00022932
0.0001367
2.61465e-05
-0.000189324
-0.000458922
8.18002e-06
1.14814e-06
1.02463e-08
9.24727e-06
7.53693e-07
-8.766e-07
1.04205e-05
4.89562e-07
-1.35567e-06
1.17404e-05
1.95046e-07
-1.73899e-06
1.31093e-05
-1.77011e-07
-2.21429e-06
1.38812e-05
-7.10275e-07
-2.25823e-06
1.43681e-05
-1.50501e-06
-1.94081e-06
1.55327e-05
-1.73943e-06
-2.38838e-06
1.618e-05
-1.92888e-06
-9.98446e-07
1.65593e-05
-2.5036e-06
-2.00049e-06
1.71304e-05
-3.05156e-06
-2.68685e-06
1.7788e-05
-1.98987e-06
-1.28822e-06
1.81183e-05
-1.62718e-06
1.74587e-06
1.74904e-05
-8.39303e-07
2.43906e-06
1.73172e-05
-8.75046e-07
2.29817e-06
1.64143e-05
9.14197e-07
-9.39319e-07
1.61482e-05
3.16497e-06
4.44035e-06
1.67333e-05
4.29964e-06
7.06158e-06
1.79306e-05
8.44652e-06
5.90904e-06
2.29305e-05
1.28132e-05
2.97386e-06
3.00742e-05
1.37734e-05
-1.20958e-06
3.47927e-05
1.40894e-05
-4.46402e-06
3.8913e-05
1.02436e-05
-1.23945e-05
4.39858e-05
3.04813e-06
-1.58339e-05
4.68744e-05
3.70335e-06
-1.78573e-05
5.17142e-05
-1.40787e-05
-2.09706e-05
5.06297e-05
-5.70966e-06
-2.08349e-05
4.40776e-05
-1.84019e-05
-2.60537e-05
4.16834e-05
-2.45729e-05
-9.60278e-06
3.08177e-05
-5.22661e-06
-2.95592e-05
1.98803e-05
-3.11903e-05
1.34354e-05
2.2345e-05
-2.73e-05
3.3129e-05
1.38724e-05
-3.79301e-05
-8.72014e-05
2.46758e-05
-5.83225e-05
1.68163e-05
5.08177e-05
-6.67926e-05
-8.6194e-05
0.000150385
3.33075e-05
-5.51323e-05
0.000142753
0.000131545
0.000157194
-9.01278e-05
8.03145e-05
9.12992e-06
1.0849e-06
-5.10565e-07
9.85514e-06
8.97895e-07
-8.76355e-07
1.06885e-05
6.68225e-07
-1.25529e-06
1.14877e-05
3.98011e-07
-1.38715e-06
1.2452e-05
-1.89069e-08
-1.62029e-06
1.33365e-05
-4.87469e-07
-1.85577e-06
1.39501e-05
-1.16205e-06
-1.47268e-06
1.47637e-05
-1.4341e-06
-1.99765e-06
1.54445e-05
-1.91307e-06
-1.22706e-06
1.59397e-05
-2.41885e-06
-1.35309e-06
1.64895e-05
-2.73347e-06
-9.03525e-07
1.76735e-05
-2.74378e-06
-7.06807e-08
1.78701e-05
-2.50462e-06
-1.91735e-06
1.91523e-05
-1.91332e-06
-2.40878e-06
2.0368e-05
-1.21311e-06
-7.436e-07
2.06967e-05
5.57909e-07
-1.9958e-06
2.18658e-05
1.4615e-06
-6.0106e-06
2.1388e-05
5.79833e-06
1.9862e-06
2.24247e-05
8.78163e-06
7.87969e-06
2.45682e-05
1.108e-05
3.58518e-06
2.61091e-05
1.2337e-05
2.64428e-07
2.89651e-05
1.20739e-05
-5.41084e-07
3.21989e-05
8.54821e-06
-4.5401e-06
3.47962e-05
3.30795e-06
-6.79986e-06
3.8028e-05
3.05996e-06
-8.3313e-06
3.62462e-05
-3.10761e-06
-1.14653e-05
3.72925e-05
-7.35499e-06
-2.10003e-05
3.56043e-05
-1.0672e-05
1.97229e-06
3.22134e-05
-1.34835e-05
-3.0173e-05
3.54927e-05
-1.75428e-05
-8.77688e-06
4.2662e-05
-1.50346e-05
-1.11296e-05
4.06993e-05
-3.59428e-05
-4.6978e-05
5.43238e-05
-2.58379e-05
-1.76497e-05
4.36322e-05
-3.26746e-05
4.11066e-05
4.23446e-05
-2.81856e-05
-0.000118851
3.82458e-05
1.49532e-05
5.226e-05
6.8049e-05
0.000164998
8.50931e-05
-8.03578e-05
-0.000102119
9.13929e-06
8.31349e-07
-1.06858e-06
1.00572e-05
7.24815e-07
-1.28057e-06
1.09995e-05
5.85555e-07
-1.46395e-06
1.19463e-05
3.3905e-07
-1.67227e-06
1.28513e-05
8.12527e-08
-1.7544e-06
1.36356e-05
-3.25638e-07
-1.91145e-06
1.43281e-05
-8.47701e-07
-1.84243e-06
1.49457e-05
-1.12059e-06
-1.83309e-06
1.57475e-05
-1.82252e-06
-1.89183e-06
1.62399e-05
-1.93931e-06
-1.59978e-06
1.67281e-05
-2.45835e-06
-1.57694e-06
1.73942e-05
-2.85919e-06
-1.75221e-06
1.83033e-05
-2.26606e-06
-1.00792e-07
1.94157e-05
-2.75322e-06
-1.3466e-06
2.01003e-05
-1.37122e-06
-5.77498e-07
2.14686e-05
-2.27966e-08
3.03901e-07
2.25806e-05
9.10717e-07
-2.56065e-07
2.29895e-05
5.32831e-06
-2.941e-07
2.45747e-05
7.9079e-06
2.43276e-06
2.61505e-05
1.00619e-05
2.59379e-06
2.83337e-05
1.15143e-05
-7.41757e-07
3.17376e-05
1.04204e-05
1.30919e-06
3.3972e-05
7.85134e-06
-3.75722e-06
3.57161e-05
7.49275e-06
-1.08875e-06
3.93294e-05
1.64665e-06
-1.18388e-05
3.85122e-05
6.29345e-06
2.07109e-06
4.05945e-05
-4.35074e-06
-1.87731e-05
3.81154e-05
7.15339e-07
2.66708e-06
3.61947e-05
-4.39701e-06
-1.51699e-05
3.64761e-05
-1.34313e-05
2.45321e-06
2.61685e-05
5.86022e-06
-1.56164e-05
2.86017e-05
-2.79912e-05
1.16905e-05
2.91858e-05
-3.07661e-06
4.22892e-06
-3.2556e-06
-1.12205e-05
-2.82914e-05
-2.49898e-05
-2.30472e-05
1.23517e-05
-6.51633e-06
1.78282e-05
6.31131e-05
5.47108e-05
4.46257e-05
0.000133059
2.30419e-05
-0.000215733
9.06939e-06
6.58051e-07
-9.26796e-07
9.7976e-06
5.82542e-07
-1.03005e-06
1.05261e-05
4.99478e-07
-1.23593e-06
1.13387e-05
2.32276e-07
-1.22017e-06
1.21092e-05
3.27349e-08
-1.48078e-06
1.2929e-05
-3.3348e-07
-1.40869e-06
1.36802e-05
-8.41161e-07
-1.54999e-06
1.43609e-05
-9.58539e-07
-1.56917e-06
1.51133e-05
-1.87257e-06
-1.32988e-06
1.58949e-05
-1.95895e-06
-1.54584e-06
1.65477e-05
-2.47994e-06
-1.12706e-06
1.78654e-05
-3.52244e-06
-9.22018e-07
1.90612e-05
-3.21977e-06
-1.3165e-06
2.05247e-05
-3.54984e-06
-9.65133e-07
2.27438e-05
-3.21061e-06
-3.98806e-07
2.37239e-05
-1.04834e-06
-1.71291e-06
2.44443e-05
7.00831e-07
-6.56726e-07
2.52592e-05
4.97951e-06
-2.45613e-07
2.63555e-05
6.87827e-06
-5.69589e-07
2.86486e-05
9.25405e-06
2.26304e-06
2.93462e-05
1.088e-05
-3.22435e-06
3.25117e-05
8.63491e-06
-1.22295e-06
3.36027e-05
9.90257e-06
-4.19932e-06
3.52398e-05
6.58385e-06
-1.04041e-06
3.58377e-05
3.02412e-06
-1.47404e-05
3.50893e-05
7.23902e-06
-1.3694e-05
3.59482e-05
7.95095e-07
-1.16194e-05
3.4096e-05
1.95271e-06
-1.80246e-05
3.37894e-05
-2.52469e-06
-6.63816e-06
2.89313e-05
-6.4533e-06
-2.45415e-05
3.05751e-05
-4.77527e-06
-1.39224e-06
1.18493e-05
-7.4328e-06
-3.75315e-05
6.0318e-06
6.34844e-06
-1.29882e-05
4.75404e-07
-1.78485e-05
1.17881e-05
-1.5063e-05
-8.22841e-06
1.08065e-05
2.18043e-05
1.96411e-05
1.24762e-05
7.91203e-05
2.08058e-05
5.08122e-05
6.34462e-05
-6.21134e-05
9.04004e-06
5.20004e-07
-1.17528e-06
9.8133e-06
4.33932e-07
-1.26824e-06
1.05875e-05
4.20435e-07
-1.39788e-06
1.13928e-05
1.39927e-07
-1.49089e-06
1.21298e-05
1.09096e-07
-1.59528e-06
1.28567e-05
-2.83915e-07
-1.71981e-06
1.35986e-05
-7.09744e-07
-1.673e-06
1.41458e-05
-6.40058e-07
-1.91147e-06
1.49373e-05
-1.88089e-06
-1.57219e-06
1.55567e-05
-1.75386e-06
-1.87457e-06
1.61998e-05
-2.35848e-06
-1.38614e-06
1.74367e-05
-4.31388e-06
-1.22963e-06
1.8486e-05
-3.83104e-06
-1.0819e-06
2.07923e-05
-5.19591e-06
-4.09545e-07
2.29923e-05
-5.77839e-06
-1.19368e-06
2.50778e-05
-2.96491e-06
1.22434e-06
2.67612e-05
-1.22238e-06
9.04276e-08
2.78343e-05
4.05732e-06
8.89673e-07
2.89776e-05
5.61932e-06
-1.51584e-06
2.85484e-05
1.02463e-05
1.92323e-06
3.00571e-05
1.05687e-05
-2.60216e-06
2.73593e-05
1.11825e-05
-2.78207e-07
2.83003e-05
1.20111e-05
-2.75742e-06
3.05492e-05
7.03221e-06
3.43361e-06
2.5312e-05
9.41088e-06
9.12116e-06
2.50726e-05
8.44565e-06
-1.18546e-06
2.42431e-05
6.73594e-06
-1.21228e-05
2.36216e-05
2.59294e-06
-7.97949e-06
2.31852e-05
2.05631e-06
-1.55107e-05
2.20389e-05
-2.94759e-07
-9.68706e-06
2.03539e-05
-1.18433e-05
2.57975e-06
9.47934e-06
4.54385e-06
2.23864e-06
1.54127e-05
-1.28563e-05
-8.85254e-08
5.5459e-06
-2.73084e-05
-1.76988e-05
-2.15102e-05
8.88261e-06
2.83336e-05
-2.15792e-06
2.25235e-05
2.76683e-05
4.49734e-05
-1.33007e-06
0.000104018
7.18832e-05
1.91689e-05
8.98519e-06
3.95701e-07
-9.93609e-07
9.65905e-06
3.02818e-07
-1.01278e-06
1.03097e-05
3.59131e-07
-1.22493e-06
1.10666e-05
1.39672e-08
-1.10466e-06
1.17039e-05
1.33705e-07
-1.44756e-06
1.24493e-05
-2.90614e-07
-1.24554e-06
1.31316e-05
-7.09348e-07
-1.3758e-06
1.36258e-05
-3.08355e-07
-1.61606e-06
1.44226e-05
-2.05723e-06
-7.74402e-07
1.49151e-05
-1.54165e-06
-1.75045e-06
1.56963e-05
-2.53541e-06
-8.06899e-07
1.69502e-05
-5.42555e-06
-2.2838e-07
1.879e-05
-5.15022e-06
-6.32046e-07
2.27795e-05
-9.08757e-06
-1.19448e-06
2.52773e-05
-8.65264e-06
1.20251e-06
2.6465e-05
-4.46376e-06
2.96142e-09
2.82431e-05
-2.72854e-06
1.96155e-08
2.96833e-05
1.82073e-06
2.34156e-06
2.95604e-05
5.74222e-06
-2.26008e-07
3.02417e-05
9.65497e-06
1.66697e-06
3.1476e-05
1.04371e-05
-9.75829e-07
2.99763e-05
1.25668e-05
-2.4278e-06
3.25391e-05
1.07168e-05
5.69789e-08
3.41934e-05
7.23916e-06
-4.26403e-06
3.40262e-05
1.17566e-05
-7.09456e-06
3.25298e-05
1.01911e-05
-1.31562e-06
3.17891e-05
1.14477e-05
-2.0787e-06
3.44443e-05
6.70758e-06
-7.2243e-06
3.08774e-05
6.8512e-06
1.82855e-06
3.46217e-05
3.70569e-06
-9.05505e-06
3.20741e-05
2.0301e-06
-8.45998e-06
2.64058e-05
5.85483e-06
1.02796e-05
4.38358e-05
-7.52852e-06
-7.48858e-06
4.36601e-05
-8.4476e-06
1.66179e-06
2.88167e-05
1.56372e-05
2.00532e-05
2.23001e-05
3.82169e-05
-9.96137e-06
2.64389e-05
4.37558e-05
2.47779e-05
0.000112039
0.000155012
8.97295e-06
3.07459e-07
-1.11948e-06
9.64735e-06
1.95145e-07
-1.14819e-06
1.03199e-05
3.28866e-07
-1.33054e-06
1.10097e-05
-4.05577e-08
-1.28178e-06
1.1687e-05
2.08603e-07
-1.52319e-06
1.22719e-05
-1.39444e-07
-1.58929e-06
1.29598e-05
-6.54713e-07
-1.29622e-06
1.33967e-05
2.03093e-07
-2.38995e-06
1.37742e-05
-2.01061e-06
-6.1096e-07
1.41873e-05
-1.05757e-06
-2.19008e-06
1.44935e-05
-2.35289e-06
-1.26986e-06
1.44766e-05