/*--------------------------------*- C++ -*----------------------------------*\
| =========                 |                                                 |
| \\      /  F ield         | OpenFOAM: The Open Source CFD Toolbox           |
|  \\    /   O peration     | Version:  2.3.1                                 |
|   \\  /    A nd           | Web:      www.OpenFOAM.org                      |
|    \\/     M anipulation  |                                                 |
\*---------------------------------------------------------------------------*/
FoamFile
{
    version     2.0;
    format      ascii;
    class       volScalarField;
    location    "10";
    object      Sed;
}
// * * * * * * * * * * * * * * * * * * * * * * * * * * * * * * * * * * * * * //

dimensions      [0 0 0 0 0 0 0];

internalField   nonuniform List<scalar> 
38262
(
1.36792e-183
1.21446e-184
1.05912e-185
7.05731e-187
5.99106e-188
8.34696e-189
1.23683e-189
1.12028e-190
1.02037e-191
1.53684e-192
1.9477e-193
2.07036e-194
2.58904e-195
3.10572e-196
4.38774e-197
5.88645e-198
7.56999e-199
7.21009e-200
6.03818e-201
7.62296e-202
1.76208e-202
9.9543e-203
8.30669e-203
2.74137e-203
1.3696e-203
9.08334e-204
6.27952e-204
3.5098e-204
2.76833e-204
9.86796e-205
1.03975e-204
4.21596e-205
1.4994e-205
9.7646e-206
3.76807e-206
4.72111e-207
3.72958e-207
5.41186e-207
1.37132e-181
1.18652e-182
8.59004e-184
7.0358e-185
5.99297e-186
5.79842e-187
6.9042e-188
7.02726e-189
6.17824e-190
6.07573e-191
7.80988e-192
8.6871e-193
1.10833e-193
1.556e-194
2.14114e-195
2.58459e-196
3.00291e-197
4.0216e-198
3.83623e-199
4.15868e-200
8.73452e-201
4.48063e-201
2.1612e-201
9.32055e-202
2.97463e-202
1.29176e-202
8.02413e-203
3.99736e-203
2.92392e-203
1.08783e-203
6.84898e-204
3.01591e-204
1.12005e-204
3.84897e-205
1.73266e-205
5.27118e-206
1.01726e-206
7.63407e-207
1.61179e-181
2.11834e-182
2.75451e-183
3.36075e-184
4.49418e-185
5.89441e-186
8.49654e-187
1.07681e-187
9.66066e-189
1.08558e-189
1.43792e-190
1.40396e-191
1.64004e-192
1.66975e-193
2.35902e-194
3.63399e-195
3.55674e-196
3.45172e-197
3.89538e-198
5.20962e-199
7.84854e-200
2.03603e-200
5.23519e-201
1.84187e-201
8.2786e-202
3.57963e-202
2.70267e-202
9.92845e-203
7.80886e-203
1.73991e-203
1.3497e-203
2.72936e-204
8.29975e-205
2.14645e-205
1.08669e-205
6.5875e-206
2.28874e-206
5.77035e-207
5.25245e-180
4.28738e-181
4.20778e-182
4.58797e-183
5.53289e-184
7.12145e-185
9.39237e-186
1.2686e-186
1.59252e-187
2.53545e-188
4.08982e-189
4.992e-190
6.35842e-191
7.40708e-192
1.09195e-192
1.62336e-193
2.33427e-194
2.1853e-195
1.68663e-196
1.63881e-197
2.97087e-198
5.06011e-199
1.59878e-199
4.69617e-200
1.43969e-200
5.61461e-201
2.64721e-201
9.49978e-202
3.11e-202
1.16212e-202
2.46875e-203
5.47845e-204
2.7442e-204
6.87793e-205
1.42681e-205
6.25731e-206
1.91044e-206
3.33695e-207
9.75374e-179
7.48755e-180
6.54204e-181
6.16989e-182
6.34844e-183
7.46472e-184
9.40485e-185
1.30124e-185
1.79065e-186
2.60723e-187
3.6119e-188
4.91151e-189
8.65486e-190
1.44667e-190
2.11837e-191
3.51862e-192
8.49211e-193
1.20685e-193
1.12127e-194
7.02716e-196
4.92578e-197
5.22698e-198
1.24904e-198
3.00239e-199
8.57319e-200
1.96933e-200
1.18241e-200
1.67685e-201
8.32149e-202
1.82861e-202
2.96716e-203
1.72166e-203
3.70481e-204
9.29656e-205
1.97862e-205
5.67023e-206
1.08452e-206
2.15765e-207
7.73089e-178
6.34616e-179
5.73392e-180
5.67299e-181
5.9986e-182
6.84684e-183
7.92597e-184
9.59506e-185
1.19291e-185
1.48753e-186
1.92469e-187
2.59819e-188
3.00489e-189
4.4338e-190
6.22937e-191
8.12004e-192
1.23656e-192
2.06379e-193
2.68496e-194
3.16755e-195
3.65454e-196
4.82647e-197
8.84034e-198
1.2908e-198
4.4381e-199
6.4062e-200
2.81399e-200
5.41359e-201
1.09156e-201
4.09744e-202
8.10723e-203
3.3351e-203
6.01253e-204
1.61122e-204
3.40702e-205
2.00768e-206
3.65131e-207
1.30872e-207
7.7344e-178
6.43422e-179
5.85808e-180
5.55459e-181
5.85387e-182
6.27605e-183
7.35506e-184
8.85648e-185
1.09121e-185
1.40326e-186
1.82262e-187
2.35479e-188
3.45818e-189
4.90301e-190
7.31145e-191
1.30473e-191
2.09962e-192
3.19098e-193
5.14313e-194
7.50045e-195
1.37928e-195
2.28808e-196
4.02757e-197
6.898e-198
2.1916e-198
5.71659e-199
1.38275e-199
3.64806e-200
8.53307e-201
2.13098e-201
4.90847e-202
1.06518e-202
1.85661e-203
1.89354e-204
1.23499e-205
4.44375e-207
1.09334e-207
1.0806e-207
5.5389e-178
4.60284e-179
4.13954e-180
3.95936e-181
4.02527e-182
4.33532e-183
4.74021e-184
5.63307e-185
6.38928e-186
7.93614e-187
9.71593e-188
1.1763e-188
1.5394e-189
1.93521e-190
3.15671e-191
4.45576e-192
7.03387e-193
1.19827e-193
2.3239e-194
4.04298e-195
8.00484e-196
1.40418e-196
2.27863e-197
2.97823e-198
4.10927e-199
7.4295e-200
2.03536e-200
4.42406e-201
8.32281e-202
1.24189e-202
1.86619e-203
3.68946e-204
1.02696e-204
6.86163e-206
1.46218e-206
8.98763e-208
3.24273e-208
8.46692e-208
1.24435e-178
1.02311e-179
9.19695e-181
8.33707e-182
8.464e-183
8.43152e-184
8.96258e-185
1.03209e-185
1.05935e-186
1.33151e-187
1.54155e-188
1.68046e-189
2.08119e-190
2.95667e-191
3.61939e-192
5.19716e-193
7.30331e-194
1.24335e-194
2.29923e-195
5.05957e-196
1.2046e-196
2.87222e-197
5.50103e-198
1.07783e-198
2.32117e-199
4.41017e-200
9.00165e-201
1.90197e-201
4.41128e-202
9.82283e-203
2.05592e-203
3.92585e-204
8.758e-205
1.45496e-205
1.17536e-206
1.8541e-207
3.11078e-208
5.36131e-208
1.36556e-179
1.13379e-180
1.02821e-181
9.38212e-183
9.39763e-184
9.63949e-185
9.54552e-186
1.20947e-186
1.15499e-187
1.41998e-188
1.62707e-189
1.47081e-190
1.51961e-191
1.50152e-192
1.55454e-193
1.92522e-194
2.76936e-195
5.4283e-196
1.40626e-196
4.38264e-197
1.26001e-197
3.4854e-198
6.93469e-199
1.1023e-199
1.96592e-200
4.26445e-201
1.11916e-201
2.7058e-202
6.65621e-203
1.48664e-203
5.20099e-204
7.88784e-205
1.33219e-205
2.29494e-206
2.7659e-207
6.18353e-208
1.54243e-208
2.31569e-208
5.07022e-181
4.16308e-182
3.88668e-183
3.35243e-184
3.42647e-185
3.42969e-186
3.24891e-187
4.80811e-188
3.81467e-189
4.80927e-190
4.52188e-191
3.66075e-192
3.02746e-193
2.75454e-194
4.04087e-195
7.66757e-196
8.24798e-197
1.73505e-197
1.65807e-197
5.8267e-198
1.7567e-198
5.23179e-199
1.47711e-199
2.86142e-200
5.58748e-201
1.11148e-201
2.73519e-202
7.19606e-203
2.12301e-203
5.57083e-204
2.22074e-204
5.80355e-205
1.16175e-205
1.28271e-206
1.94306e-207
1.19539e-207
5.37241e-208
1.80738e-208
5.55228e-183
4.50684e-184
4.52489e-185
3.52041e-186
4.1207e-187
3.72083e-188
4.11087e-189
7.12668e-190
5.72912e-191
6.25349e-192
5.71545e-193
3.71847e-194
1.5325e-195
1.71839e-196
3.22522e-197
8.77059e-198
8.81661e-199
5.39704e-199
7.66884e-199
1.51503e-199
5.26103e-200
2.17463e-200
5.95342e-201
1.03868e-201
3.01064e-202
7.00444e-203
2.08236e-203
6.34372e-204
1.94885e-204
5.36249e-205
2.39925e-205
3.69652e-206
8.1292e-207
7.41589e-208
1.98582e-208
2.69307e-208
2.27927e-208
1.98954e-208
3.26807e-182
2.43766e-183
1.90504e-184
1.15337e-185
9.52275e-187
1.35875e-187
2.03717e-188
2.16519e-189
2.66052e-190
3.86063e-191
5.55045e-192
6.88646e-193
8.07242e-194
9.25157e-195
1.20823e-195
1.52522e-196
1.79779e-197
1.87177e-198
1.49961e-199
1.47879e-200
2.5033e-201
8.66505e-202
4.63517e-202
1.53619e-202
6.64953e-203
4.5607e-203
2.8809e-203
1.36915e-203
8.49566e-204
3.86861e-204
1.01606e-204
4.19643e-205
1.5418e-205
6.1103e-206
3.59685e-206
7.1025e-207
5.32935e-207
4.20055e-207
2.08765e-180
1.79054e-181
1.29159e-182
9.26872e-184
7.27961e-185
7.33748e-186
9.36592e-187
1.0848e-187
1.19316e-188
1.42638e-189
2.00023e-190
2.73201e-191
3.45286e-192
4.19073e-193
5.21694e-194
6.53574e-195
7.72609e-196
9.36425e-197
9.32076e-198
9.03062e-199
1.23423e-199
4.00113e-200
1.46622e-200
4.71202e-201
1.40064e-201
7.07713e-202
4.15074e-202
1.90115e-202
1.06627e-202
3.9368e-203
1.31412e-203
4.77096e-204
1.37285e-204
4.22118e-205
1.73607e-205
4.7533e-206
2.07159e-206
7.56378e-207
6.4954e-180
7.17094e-181
8.18784e-182
8.87197e-183
1.03365e-183
1.30259e-184
1.71503e-185
2.12086e-186
2.21098e-187
2.58719e-188
3.64673e-189
4.64691e-190
5.1087e-191
5.432e-192
5.60246e-193
6.80416e-194
8.35899e-195
9.9121e-196
1.2517e-196
1.64613e-197
2.16416e-198
3.84695e-199
8.86354e-200
2.69576e-200
8.9376e-201
5.15183e-201
1.81829e-201
9.03607e-202
4.131e-202
6.79115e-203
4.20836e-203
9.19735e-204
1.83744e-204
5.80378e-205
2.05106e-205
7.53378e-206
3.28042e-206
6.69885e-207
3.03452e-178
2.26808e-179
1.96096e-180
1.8492e-181
1.94478e-182
2.17289e-183
2.50664e-184
3.05736e-185
3.62629e-186
4.96589e-187
7.29524e-188
9.45248e-189
1.12899e-189
1.36172e-190
1.78996e-191
2.65713e-192
3.48963e-193
4.03095e-194
4.44781e-195
5.29779e-196
7.59191e-197
1.21936e-197
2.76581e-198
7.21775e-199
1.87604e-199
6.78329e-200
1.95686e-200
6.59941e-201
1.83307e-201
5.3058e-202
9.21884e-203
1.76349e-203
6.64975e-204
7.54442e-205
1.42146e-205
4.26573e-206
2.37542e-206
3.97652e-207
3.6556e-177
2.76307e-178
2.30923e-179
2.04615e-180
1.99368e-181
2.12857e-182
2.41317e-183
3.00382e-184
3.7484e-185
4.97679e-186
6.67798e-187
8.79664e-188
1.28245e-188
1.8599e-189
2.6419e-190
4.07577e-191
7.05057e-192
8.84384e-193
8.67139e-194
9.24073e-195
1.16405e-195
1.55936e-196
2.75202e-197
5.70379e-198
1.1748e-198
3.02636e-199
8.30533e-200
1.57732e-200
4.85606e-201
9.18881e-202
1.78004e-202
4.87449e-203
8.7601e-204
1.47742e-204
2.22442e-205
3.51924e-206
1.05152e-206
1.51344e-207
1.8774e-176
1.49473e-177
1.29965e-178
1.22032e-179
1.23181e-180
1.31667e-181
1.45151e-182
1.6604e-183
1.95404e-184
2.35643e-185
2.91744e-186
3.69596e-187
4.55846e-188
6.2522e-189
8.6494e-190
1.19308e-190
1.77324e-191
2.72773e-192
3.64323e-193
4.88892e-194
7.06734e-195
9.6087e-196
1.61702e-196
2.54768e-197
5.58709e-198
9.18635e-199
2.59217e-199
4.45304e-200
1.03338e-200
1.90883e-201
3.84314e-202
5.77837e-203
1.0261e-203
1.61672e-204
5.03046e-206
8.82629e-207
2.73163e-207
6.81222e-208
1.90058e-176
1.53454e-177
1.3399e-178
1.23528e-179
1.23991e-180
1.29277e-181
1.43816e-182
1.66056e-183
1.95855e-184
2.4064e-185
2.98332e-186
3.79299e-187
5.08559e-188
6.95599e-189
1.00637e-189
1.59443e-190
2.44639e-191
3.73782e-192
5.80935e-193
8.44648e-194
1.44157e-194
2.28493e-195
4.00521e-196
6.7613e-197
1.48413e-197
2.91305e-198
5.55579e-199
1.12922e-199
1.94585e-200
3.60995e-201
5.34019e-202
8.95057e-203
9.08698e-204
5.69627e-205
3.45761e-206
3.33067e-207
6.82879e-208
3.86407e-208
1.26298e-176
1.01831e-177
8.83661e-179
8.14172e-180
7.98739e-181
8.20998e-182
8.72603e-183
9.83715e-184
1.09742e-184
1.30217e-185
1.55006e-186
1.8533e-187
2.31285e-188
2.97236e-189
4.32185e-190
6.07863e-191
9.22371e-192
1.49935e-192
2.64446e-193
4.38363e-194
8.01317e-195
1.36638e-195
2.3086e-196
3.34676e-197
4.42074e-198
7.57829e-199
1.43386e-199
2.64183e-200
4.7898e-201
7.43454e-202
1.06004e-202
1.3713e-203
1.88348e-204
3.24257e-205
2.75002e-206
2.28017e-207
2.38389e-208
2.77157e-208
2.97382e-177
2.39225e-178
2.07441e-179
1.85491e-180
1.80758e-181
1.78551e-182
1.85617e-183
2.05382e-184
2.17279e-185
2.55066e-186
2.92991e-187
3.25792e-188
3.93727e-189
5.10025e-190
6.24964e-191
8.38301e-192
1.13268e-192
1.76138e-193
3.18944e-194
6.26369e-195
1.31953e-195
2.81523e-196
5.30583e-197
9.97044e-198
1.90086e-198
3.1843e-199
5.43966e-200
1.00504e-200
1.7892e-201
3.61909e-202
7.44701e-203
1.26594e-203
2.19761e-204
4.45329e-205
7.47169e-206
1.34615e-206
1.94732e-207
3.30237e-208
3.32823e-178
2.70453e-179
2.37625e-180
2.12724e-181
2.0731e-182
2.05219e-183
2.0743e-184
2.36573e-185
2.35833e-186
2.75957e-187
3.00654e-188
2.86985e-189
3.03257e-190
2.94269e-191
2.96472e-192
3.4945e-193
4.49992e-194
7.93307e-195
2.00558e-195
5.46698e-196
1.38428e-196
3.32631e-197
6.84824e-198
9.74612e-199
1.98742e-199
4.08413e-200
9.10336e-201
2.01068e-201
3.97396e-202
6.94465e-203
1.47238e-203
2.82365e-204
4.50983e-205
5.89419e-206
1.60852e-206
3.46919e-207
4.53113e-208
1.6047e-208
1.35341e-179
1.09729e-180
9.90118e-182
8.55728e-183
8.6402e-184
8.22252e-185
8.20091e-186
9.7539e-187
8.58767e-188
1.06822e-188
1.0442e-189
8.82629e-191
8.19889e-192
6.99186e-193
7.89487e-194
1.11159e-194
1.19725e-195
2.7768e-196
1.84813e-196
5.69545e-197
1.59873e-197
4.22537e-198
1.04703e-198
1.86031e-199
3.43707e-200
6.90455e-201
1.64551e-201
4.18294e-202
1.10803e-202
2.51717e-203
6.86154e-204
1.63536e-204
2.97997e-205
4.25648e-206
9.05107e-207
4.05436e-207
1.41766e-207
3.90691e-208
1.64425e-181
1.32231e-182
1.27453e-183
1.03647e-184
1.20644e-185
1.0353e-186
1.11386e-187
1.41624e-188
1.27316e-189
1.37339e-190
1.36377e-191
1.01503e-192
6.33167e-194
4.98223e-195
7.53972e-196
1.4441e-196
1.82428e-197
8.35246e-198
9.45171e-198
1.99156e-198
5.94482e-199
1.74945e-199
3.52778e-200
5.75699e-201
1.17613e-201
2.24336e-202
6.16954e-203
1.80744e-203
4.9441e-204
1.14586e-204
4.07175e-205
6.47466e-206
1.04253e-206
1.41262e-207
3.33576e-208
4.04358e-208
3.57737e-208
2.20326e-208
2.84182e-181
1.57347e-182
1.10421e-183
5.73518e-185
3.98432e-186
7.15466e-187
1.11698e-187
1.30992e-188
1.93332e-189
3.13022e-190
4.90186e-191
6.98904e-192
9.3906e-193
1.16124e-193
1.5079e-194
1.79151e-195
1.95166e-196
1.96641e-197
1.52418e-198
1.23362e-199
1.59347e-200
3.77652e-201
1.32996e-201
4.37902e-202
1.69226e-202
1.11219e-202
7.80556e-203
3.28857e-203
1.86696e-203
6.07586e-204
1.39832e-204
5.58867e-205
1.4868e-205
4.93579e-206
1.78325e-206
6.77351e-207
2.57664e-207
3.10917e-207
2.2165e-179
1.56806e-180
9.83123e-182
5.91982e-183
4.16397e-184
4.15358e-185
5.43918e-186
6.8093e-187
8.87288e-188
1.2039e-188
1.73873e-189
2.53124e-190
3.57663e-191
4.73521e-192
6.16458e-193
7.46171e-194
8.65411e-195
1.02524e-195
1.03991e-196
9.64539e-198
1.00575e-198
2.12287e-199
5.92054e-200
1.53121e-200
4.21104e-201
2.04609e-201
1.1958e-201
4.64521e-202
2.31376e-202
7.3339e-203
1.95581e-203
6.33312e-204
1.47492e-204
3.87677e-205
1.23647e-205
4.52404e-206
1.02231e-206
3.37868e-207
1.49775e-178
1.31086e-179
1.23513e-180
1.13903e-181
1.11363e-182
1.23357e-183
1.47854e-184
1.75023e-185
1.99754e-186
2.46002e-187
3.39842e-188
4.68012e-189
5.94303e-190
7.1588e-191
8.56648e-192
9.71765e-193
1.14429e-193
1.35342e-194
1.6505e-195
2.04061e-196
2.48805e-197
3.72122e-198
7.19786e-199
1.798e-199
5.10955e-200
2.2108e-200
8.78641e-201
3.26743e-201
1.19465e-201
2.25198e-202
8.23452e-203
1.38039e-203
2.79011e-204
8.48461e-205
2.57354e-205
5.45963e-206
1.70854e-206
2.05719e-207
6.2917e-177
4.4249e-178
3.50421e-179
2.96512e-180
2.76116e-181
2.73629e-182
2.84817e-183
3.16487e-184
3.56948e-185
4.45145e-186
5.92878e-187
7.66876e-188
9.38332e-189
1.16697e-189
1.50837e-190
2.10814e-191
2.67457e-192
3.2872e-193
4.03864e-194
5.12768e-195
7.1263e-196
1.09479e-196
2.1172e-197
4.7661e-198
1.11295e-198
3.14449e-199
8.35709e-200
2.35803e-200
5.9572e-201
1.41411e-201
2.63125e-202
4.84568e-203
1.23822e-203
1.65782e-204
2.68284e-205
3.06777e-206
1.3141e-206
2.19385e-207
5.04289e-176
3.74336e-177
3.00999e-178
2.54983e-179
2.36336e-180
2.33836e-181
2.45923e-182
2.78597e-183
3.22341e-184
3.93479e-185
4.93556e-186
6.2364e-187
8.25402e-188
1.10903e-188
1.49703e-189
2.12131e-190
3.07619e-191
3.93312e-192
4.60048e-193
5.89808e-194
8.25349e-195
1.19206e-195
1.95086e-196
3.60436e-197
6.6667e-198
1.44856e-198
3.09368e-199
6.19456e-200
1.41725e-200
2.48632e-201
5.02392e-202
9.07539e-203
1.53804e-203
2.17516e-204
3.63054e-205
2.99404e-206
5.58921e-207
1.17234e-207
1.82601e-175
1.4046e-176
1.17061e-177
1.04576e-178
1.00299e-179
1.01275e-180
1.06039e-181
1.15027e-182
1.2851e-183
1.47912e-184
1.7451e-185
2.11428e-186
2.60111e-187
3.38082e-188
4.52359e-189
6.22411e-190
8.91188e-191
1.29456e-191
1.80407e-192
2.54336e-193
3.80513e-194
5.56572e-195
9.00478e-196
1.50107e-196
2.7551e-197
4.87224e-198
1.02145e-198
1.82025e-199
3.56895e-200
6.24299e-201
1.10925e-201
1.64045e-202
2.70751e-203
3.28928e-204
8.43783e-206
7.9792e-207
1.87992e-207
9.89992e-208
1.87815e-175
1.46028e-176
1.21797e-177
1.07837e-178
1.02686e-179
1.0263e-180
1.08111e-181
1.18591e-182
1.33263e-183
1.55588e-184
1.84512e-185
2.25343e-186
2.86231e-187
3.75819e-188
5.19058e-189
7.63201e-190
1.12391e-190
1.66323e-191
2.4925e-192
3.68331e-193
5.83749e-194
9.08888e-195
1.49695e-195
2.46856e-196
4.60732e-197
8.2677e-198
1.45876e-198
2.64977e-199
4.44545e-200
7.73589e-201
1.19299e-201
1.88631e-202
2.01478e-203
1.54412e-204
1.1392e-205
1.06399e-206
1.81895e-207
3.46124e-208
1.17883e-175
9.16989e-177
7.63297e-178
6.73817e-179
6.32506e-180
6.20227e-181
6.34438e-182
6.79028e-183
7.36208e-184
8.36578e-185
9.59595e-186
1.1196e-186
1.35363e-187
1.69302e-188
2.30673e-189
3.19856e-190
4.73263e-191
7.33262e-192
1.20075e-192
1.94387e-193
3.3041e-194
5.36912e-195
8.76636e-196
1.35392e-196
1.95349e-197
3.23252e-198
5.68582e-199
9.24424e-200
1.52404e-200
2.1444e-201
2.7882e-202
3.46738e-203
4.51991e-204
7.41263e-205
9.04127e-206
9.36547e-207
8.19575e-208
2.45367e-208
2.89681e-176
2.2627e-177
1.88674e-178
1.64262e-179
1.53319e-180
1.47604e-181
1.4875e-182
1.57665e-183
1.65642e-184
1.85922e-185
2.07284e-186
2.30015e-187
2.69305e-188
3.24839e-189
3.94599e-190
5.14946e-191
6.89164e-192
1.03004e-192
1.79725e-193
3.29222e-194
6.34472e-195
1.20844e-195
2.18519e-196
3.98463e-197
7.00005e-198
1.15187e-198
1.98048e-199
3.64122e-200
6.35647e-201
1.23381e-201
2.28228e-202
3.61117e-203
6.61926e-204
1.24569e-204
2.39428e-205
4.11139e-206
6.02345e-207
5.58011e-208
3.35829e-177
2.65941e-178
2.25526e-179
1.97036e-180
1.85471e-181
1.77886e-182
1.78197e-183
1.90405e-184
1.91572e-185
2.14833e-186
2.26615e-187
2.23452e-188
2.33358e-189
2.20424e-190
2.17299e-191
2.46779e-192
3.02794e-193
4.96283e-194
1.21036e-194
2.93479e-195
6.86887e-196
1.46618e-196
2.89008e-197
4.64558e-198
8.52979e-199
1.66518e-199
3.30642e-200
6.49856e-201
1.15966e-201
1.80166e-202
4.18186e-203
6.4969e-204
1.18413e-204
2.12768e-205
3.74683e-206
7.40387e-207
1.06132e-207
1.56688e-208
1.51121e-178
1.20559e-179
1.05072e-180
9.03358e-182
8.83121e-183
8.23103e-184
8.35833e-185
9.00079e-186
8.37734e-187
9.80918e-188
9.48446e-189
8.25292e-190
7.70618e-191
6.18822e-192
5.88017e-193
6.53951e-194
6.8069e-195
1.77716e-195
9.35567e-196
2.55359e-196
6.6379e-197
1.59578e-197
3.492e-198
6.4554e-199
1.20839e-199
2.38695e-200
5.20636e-201
1.18758e-201
2.73466e-202
5.86046e-203
1.36924e-203
2.95385e-204
5.5728e-205
1.05343e-205
2.30192e-206
7.28074e-207
1.98023e-207
4.33665e-208
2.04059e-180
1.62759e-181
1.50613e-182
1.26181e-183
1.40992e-184
1.24166e-185
1.32568e-186
1.37939e-187
1.31225e-188
1.405e-189
1.3775e-190
1.03189e-191
6.92158e-193
4.22508e-194
5.26553e-195
7.90812e-196
1.11732e-196
5.28578e-197
4.64886e-197
9.01527e-198
2.4288e-198
6.03414e-199
1.06409e-199
1.96847e-200
3.93726e-201
7.1966e-202
1.81607e-202
4.85168e-203
1.13763e-203
2.57013e-204
7.096e-205
1.27033e-205
1.78844e-206
3.10528e-207
6.58475e-208
3.86717e-208
3.86236e-208
2.21359e-208
1.73779e-180
8.97374e-182
4.3016e-183
2.46899e-184
1.79949e-185
2.78968e-186
3.77786e-187
4.2352e-188
7.1856e-189
1.31451e-189
2.26616e-190
3.44351e-191
5.10177e-192
7.09614e-193
9.99253e-194
1.26007e-194
1.35341e-195
1.311e-196
1.02912e-197
7.27094e-199
7.63881e-200
1.32268e-200
2.93829e-201
7.04131e-202
2.45871e-202
1.40685e-202
9.70099e-203
4.21818e-203
2.05663e-203
6.06e-204
1.58787e-204
7.6429e-205
1.4314e-205
3.47821e-206
1.10916e-206
2.11376e-207
2.10633e-207
2.23397e-207
1.93059e-178
1.048e-179
5.60538e-181
2.93378e-182
2.0248e-183
1.76743e-184
2.10772e-185
2.56904e-186
3.68536e-187
5.45912e-188
8.23713e-189
1.22927e-189
1.84119e-190
2.62559e-191
3.72472e-192
4.83956e-193
5.8128e-194
6.88238e-195
7.19591e-196
6.70414e-197
6.24488e-198
8.95713e-199
1.83969e-199
3.85186e-200
8.21277e-201
3.13671e-201
1.66394e-201
6.19719e-202
2.70202e-202
8.39668e-203
1.92077e-203
7.16064e-204
1.46895e-204
3.1161e-205
9.45987e-206
2.30765e-206
8.00944e-207
1.97416e-207
2.12752e-177
1.54496e-178
1.20285e-179
9.31832e-181
7.57251e-182
6.9944e-183
7.52863e-184
8.41636e-185
9.87518e-186
1.25706e-186
1.72174e-187
2.38298e-188
3.25526e-189
4.27683e-190
5.67022e-191
7.05822e-192
8.74806e-193
1.04788e-193
1.24885e-194
1.46496e-195
1.72454e-196
2.33198e-197
3.80395e-198
7.52285e-199
1.64309e-199
5.36713e-200
1.91187e-200
5.7966e-201
1.758e-201
4.42112e-202
1.02459e-202
2.1969e-203
4.17238e-204
1.14622e-204
2.85287e-205
5.3896e-206
1.29311e-206
1.86364e-207
5.1007e-176
3.52636e-177
2.68501e-178
2.14793e-179
1.87762e-180
1.73469e-181
1.69763e-182
1.76995e-183
1.91503e-184
2.25673e-185
2.7957e-186
3.47364e-187
4.28703e-188
5.39931e-189
6.9329e-190
9.18597e-191
1.16122e-191
1.46579e-192
1.86479e-193
2.41345e-194
3.31268e-195
4.92558e-196
8.60335e-197
1.69747e-197
3.54117e-198
8.44969e-199
2.06743e-199
4.82254e-200
1.04826e-200
2.14501e-201
4.01781e-202
7.59432e-203
1.46558e-203
2.12047e-204
3.46831e-205
3.97194e-206
6.64656e-207
1.23662e-207
3.28735e-175
2.3882e-176
1.86667e-177
1.53913e-178
1.37432e-179
1.30125e-180
1.30498e-181
1.38908e-182
1.5232e-183
1.74641e-184
2.06269e-185
2.48632e-186
3.09109e-187
3.93238e-188
5.08208e-189
6.82059e-190
9.24326e-191
1.19172e-191
1.51966e-192
2.03329e-193
2.85954e-194
4.15819e-195
6.54514e-196
1.11332e-196
1.94462e-197
3.71559e-198
7.30567e-199
1.4079e-199
2.8549e-200
5.0533e-201
9.12718e-202
1.47906e-202
2.48599e-203
3.63862e-204
5.21242e-205
4.54111e-206
7.89626e-207
1.72615e-207
9.82415e-175
7.30726e-176
5.86389e-177
5.03257e-178
4.62101e-179
4.4731e-180
4.48707e-181
4.66108e-182
4.98664e-183
5.49498e-184
6.21811e-185
7.24067e-186
8.65583e-187
1.08255e-187
1.40127e-188
1.87621e-189
2.59317e-190
3.63016e-191
5.08366e-192
7.20702e-193
1.05925e-193
1.56567e-194
2.46314e-195
4.02611e-196
6.97697e-197
1.22282e-197
2.31398e-198
4.03579e-199
7.27836e-200
1.21728e-200
1.97815e-201
2.89165e-202
4.29747e-203
5.03968e-204
3.18228e-205
2.79612e-206
5.2156e-207
1.92365e-207
1.02619e-174
7.6851e-176
6.14969e-177
5.23128e-178
4.76085e-179
4.56499e-180
4.59897e-181
4.82235e-182
5.20278e-183
5.81148e-184
6.63135e-185
7.80117e-186
9.51138e-187
1.20199e-187
1.59474e-188
2.23008e-189
3.16256e-190
4.52723e-191
6.56411e-192
9.55348e-193
1.44505e-193
2.19064e-194
3.45712e-195
5.54489e-196
9.55005e-197
1.61927e-197
2.75114e-198
4.71205e-199
7.76429e-200
1.28048e-200
1.95429e-201
2.87996e-202
3.51569e-203
3.34226e-204
3.03298e-205
3.85943e-206
5.79951e-207
8.49159e-208
6.19588e-175
4.65317e-176
3.72479e-177
3.15991e-178
2.845e-179
2.6803e-180
2.63965e-181
2.70884e-182
2.84575e-183
3.1114e-184
3.45358e-185
3.92479e-186
4.60729e-187
5.58439e-188
7.27455e-189
9.81664e-190
1.41208e-190
2.11342e-191
3.31121e-192
5.18219e-193
8.34637e-194
1.30407e-194
2.04394e-195
3.13175e-196
4.82727e-197
8.10553e-198
1.37352e-198
2.22013e-199
3.47354e-200
4.91799e-201
6.60268e-202
8.72304e-203
1.21155e-203
1.38626e-204
1.59152e-205
1.9679e-206
2.33753e-207
4.07952e-208
1.56367e-175
1.18326e-176
9.51044e-178
8.022e-179
7.19994e-180
6.71248e-181
6.55499e-182
6.67268e-183
6.87492e-184
7.43895e-185
8.04163e-186
8.7906e-187
9.9618e-188
1.13638e-188
1.34808e-189
1.71431e-190
2.28271e-191
3.37358e-192
5.71893e-193
1.00048e-193
1.80684e-194
3.20116e-195
5.50956e-196
9.59809e-197
1.64077e-197
2.75355e-198
4.77886e-199
8.62084e-200
1.46385e-200
2.673e-201
4.50457e-202
7.27958e-203
1.22857e-203
1.78219e-204
2.89162e-205
4.9883e-206
7.90964e-207
1.00653e-207
1.8626e-176
1.43354e-177
1.17399e-178
9.97191e-180
9.05496e-181
8.42325e-182
8.24799e-183
8.4024e-184
8.41088e-185
9.08883e-186
9.32605e-187
9.28457e-188
9.45722e-189
8.54254e-190
8.13534e-191
8.97668e-192
1.09065e-192
1.78063e-193
4.17952e-194
9.32522e-195
2.02343e-195
4.0213e-196
7.45355e-197
1.27414e-197
2.2854e-198
4.31031e-199
7.91382e-200
1.51368e-200
2.57191e-201
4.22619e-202
7.62616e-203
1.25935e-203
2.11498e-204
3.90984e-205
6.37703e-206
9.19995e-207
1.30796e-207
2.00282e-208
8.96414e-178
6.99269e-179
5.88444e-180
4.97335e-181
4.66314e-182
4.24713e-183
4.2733e-184
4.32404e-185
4.15414e-186
4.60306e-187
4.33869e-188
3.88213e-189
3.50578e-190
2.603e-191
2.2052e-192
2.13525e-193
2.40432e-194
7.34622e-195
3.09239e-195
7.58937e-196
1.81192e-196
3.99225e-197
7.90843e-198
1.48245e-198
2.74416e-199
5.30741e-200
1.08388e-200
2.34591e-201
4.91091e-202
1.00437e-202
2.00881e-203
4.16218e-204
7.63197e-205
1.54177e-205
3.48645e-206
8.53762e-207
2.08405e-207
4.33681e-208
1.31689e-179
1.03625e-180
9.13709e-182
7.6675e-183
7.93152e-184
6.97588e-185
7.71708e-186
7.57075e-187
7.10625e-188
7.35739e-189
6.91253e-190
5.1114e-191
3.31618e-192
1.86348e-193
2.05708e-194
2.7073e-195
4.46725e-196
2.3596e-196
1.42301e-196
2.63403e-197
6.50811e-198
1.41501e-198
2.35683e-199
4.74959e-200
9.11113e-201
1.72561e-201
4.12806e-202
1.00686e-202
2.08971e-203
4.68664e-204
1.05331e-204
2.16158e-205
2.9723e-206
5.52848e-207
1.21204e-207
3.88028e-208
3.11848e-208
2.09657e-208
1.0468e-179
5.09413e-181
1.82057e-182
1.2244e-183
1.01044e-184
1.56516e-185
1.47472e-186
1.14931e-187
1.96813e-188
3.85285e-189
7.18145e-190
1.11391e-190
1.65287e-191
2.37422e-192
3.39744e-193
4.50091e-194
5.18445e-195
5.14354e-196
4.36442e-197
3.08609e-198
2.72708e-199
3.98763e-200
6.88547e-201
1.18236e-201
2.52888e-202
1.2207e-202
8.06706e-203
3.79181e-203
1.75126e-203
4.87799e-204
1.37966e-204
5.48124e-205
1.1138e-205
1.98001e-206
5.7956e-207
1.03183e-207
1.13482e-207
1.48677e-207
7.44344e-178
4.27175e-179
2.55884e-180
1.5559e-181
1.18099e-182
1.05634e-183
9.65865e-185
9.26199e-186
1.22995e-186
1.80737e-187
2.73483e-188
4.04764e-189
5.98489e-190
8.58741e-191
1.22648e-191
1.6548e-192
2.06788e-193
2.52235e-194
2.80925e-195
2.8022e-196
2.63784e-197
3.14949e-198
4.77885e-199
7.59815e-200
1.27565e-200
3.12948e-201
1.41724e-201
5.36153e-202
2.15313e-202
6.04558e-203
1.43484e-203
4.99776e-204
1.08272e-204
1.80042e-205
4.21335e-206
7.35182e-207
1.89778e-207
4.89014e-208
1.51853e-176
1.02713e-177
7.31525e-179
5.24231e-180
3.94128e-181
3.25975e-182
3.17418e-183
3.30621e-184
3.77807e-185
4.69078e-186
6.16813e-187
8.21828e-188
1.10342e-188
1.4567e-189
1.93532e-190
2.47774e-191
3.12801e-192
3.85046e-193
4.66668e-194
5.51567e-195
6.57264e-196
8.6279e-197
1.27592e-197
2.08252e-198
3.65522e-199
8.07034e-200
2.24634e-200
6.06356e-201
1.74346e-201
4.18947e-202
9.06854e-203
2.25053e-203
4.57174e-204
1.04657e-204
1.9273e-205
2.1686e-206
4.83657e-207
5.41959e-208
2.26762e-175
1.57407e-176
1.18786e-177
9.39055e-179
8.02148e-180
7.24214e-181
6.83653e-182
6.8086e-183
7.08089e-184
7.88985e-185
9.17816e-186
1.08526e-186
1.29764e-187
1.58744e-188
1.97979e-189
2.51733e-190
3.15366e-191
3.97506e-192
5.06664e-193
6.53921e-194
8.78925e-195
1.2708e-195
2.05805e-196
3.66264e-197
6.84764e-198
1.36129e-198
2.79162e-199
5.74484e-200
1.16515e-200
2.23108e-201
3.99923e-202
7.41662e-203
1.13534e-203
1.78692e-204
2.49225e-205
3.17981e-206
4.53046e-207
7.91998e-208
1.3102e-174
9.30953e-176
7.12915e-177
5.79348e-178
5.04746e-179
4.65787e-180
4.51924e-181
4.60203e-182
4.83989e-183
5.28591e-184
5.94453e-185
6.85832e-186
8.14689e-187
9.94027e-188
1.24228e-188
1.60193e-189
2.0841e-190
2.65749e-191
3.43138e-192
4.56382e-193
6.28979e-194
8.97682e-195
1.36127e-195
2.18523e-196
3.62669e-197
6.38388e-198
1.14473e-198
2.04175e-199
3.65447e-200
6.29503e-201
1.05205e-201
1.70903e-202
2.57944e-203
3.99882e-204
5.84751e-205
6.79003e-206
9.59612e-207
1.42972e-207
3.55628e-174
2.56803e-175
1.99659e-176
1.66066e-177
1.47436e-178
1.38193e-179
1.3412e-180
1.34507e-181
1.389e-182
1.4772e-183
1.61479e-184
1.81913e-185
2.11555e-186
2.56411e-187
3.22133e-188
4.19289e-189
5.61893e-190
7.62943e-191
1.04666e-191
1.45662e-192
2.08318e-193
3.02538e-194
4.60821e-195
7.29355e-196
1.21191e-196
2.06603e-197
3.67346e-198
6.1138e-199
1.01247e-199
1.58888e-200
2.40195e-201
3.44857e-202
4.76315e-203
5.66686e-204
6.49996e-205
8.19526e-206
1.29805e-206
2.16756e-207
3.76886e-174
2.73309e-175
2.11336e-176
1.73896e-177
1.52677e-178
1.4157e-179
1.37683e-180
1.39328e-181
1.45375e-182
1.56814e-183
1.73337e-184
1.97654e-185
2.33319e-186
2.85417e-187
3.66198e-188
4.9287e-189
6.75954e-190
9.38625e-191
1.31949e-191
1.86942e-192
2.72356e-193
4.0051e-194
6.09462e-195
9.47748e-196
1.54874e-196
2.5245e-197
4.14971e-198
6.79195e-199
1.08134e-199
1.68223e-200
2.49182e-201
3.48449e-202
4.53304e-203
4.89162e-204
5.40836e-205
7.22941e-206
9.4641e-207
1.15325e-207
2.21838e-174
1.61653e-175
1.25244e-176
1.02826e-177
8.94992e-179
8.1664e-180
7.79236e-181
7.73965e-182
7.90754e-183
8.38156e-184
9.05026e-185
1.0031e-185
1.14546e-186
1.34842e-187
1.6931e-188
2.23201e-189
3.12696e-190
4.56061e-191
6.89276e-192
1.04098e-192
1.60026e-193
2.41307e-194
3.65802e-195
5.49526e-196
8.41407e-197
1.37758e-197
2.24916e-198
3.52019e-199
5.17346e-200
7.03247e-201
9.05794e-202
1.14381e-202
1.46684e-203
1.58542e-204
1.71805e-205
1.91196e-206
2.27979e-207
3.43247e-208
5.68302e-175
4.18163e-176
3.25887e-177
2.67153e-178
2.32264e-179
2.10506e-180
1.99876e-181
1.972e-182
1.98778e-183
2.08591e-184
2.19423e-185
2.35261e-186
2.58121e-187
2.81639e-188
3.25195e-189
4.04688e-190
5.37607e-191
7.94951e-192
1.31766e-192
2.22069e-193
3.8014e-194
6.37926e-195
1.05266e-195
1.75972e-196
2.93448e-197
4.88211e-198
8.32129e-199
1.43664e-199
2.37479e-200
4.01594e-201
6.30748e-202
9.82385e-203
1.40527e-203
1.70185e-204
2.37457e-205
3.89115e-206
6.30199e-207
8.51044e-208
6.88982e-176
5.16769e-177
4.10813e-178
3.4036e-179
2.99532e-180
2.71705e-181
2.59443e-182
2.55454e-183
2.53567e-184
2.64367e-185
2.6469e-186
2.62424e-187
2.56845e-188
2.20426e-189
2.01412e-190
2.18385e-191
2.69235e-192
4.59575e-193
1.03655e-193
2.16326e-194
4.37799e-195
8.13814e-196
1.43104e-196
2.42839e-197
4.19394e-198
7.53146e-199
1.32501e-199
2.44178e-200
3.92626e-201
6.64292e-202
1.02616e-202
1.88368e-203
2.89967e-204
4.79887e-205
7.51193e-206
9.81998e-207
1.21297e-207
1.95774e-208
3.46376e-177
2.64413e-178
2.15745e-179
1.79571e-180
1.6153e-181
1.45552e-182
1.42851e-183
1.38919e-184
1.36488e-185
1.42549e-186
1.31757e-187
1.19803e-188
1.00965e-189
6.88398e-191
5.25799e-192
4.69792e-193
6.49753e-194
2.17548e-194
7.53073e-195
1.68896e-195
3.71054e-196
7.47629e-197
1.38089e-197
2.54207e-198
4.61054e-199
8.69181e-200
1.70779e-200
3.52052e-201
6.82351e-202
1.32569e-202
2.42466e-203
4.92301e-204
8.80346e-205
1.7171e-205
3.76995e-206
8.39153e-207
1.79697e-207
3.60839e-208
5.37476e-179
4.17289e-180
3.51261e-181
2.94897e-182
2.75204e-183
2.47104e-184
2.58787e-185
2.48261e-186
2.40991e-187
2.45303e-188
2.19404e-189
1.61395e-190
9.09907e-192
5.4966e-193
5.48571e-194
6.47883e-195
1.34504e-195
7.7955e-196
3.08831e-196