/*--------------------------------*- C++ -*----------------------------------*\
| =========                 |                                                 |
| \\      /  F ield         | OpenFOAM: The Open Source CFD Toolbox           |
|  \\    /   O peration     | Version:  2.3.1                                 |
|   \\  /    A nd           | Web:      www.OpenFOAM.org                      |
|    \\/     M anipulation  |                                                 |
\*---------------------------------------------------------------------------*/
FoamFile
{
    version     2.0;
    format      ascii;
    class       volScalarField;
    location    "10";
    object      Sed_0;
}
// * * * * * * * * * * * * * * * * * * * * * * * * * * * * * * * * * * * * * //

dimensions      [0 0 0 0 0 0 0];

internalField   nonuniform List<scalar> 
38262
(
1.34117e-183
1.19026e-184
1.0387e-185
6.91863e-187
5.87005e-188
8.17524e-189
1.21166e-189
1.09711e-190
9.99263e-192
1.5069e-192
1.9117e-193
2.03186e-194
2.54163e-195
3.05221e-196
4.32043e-197
5.81652e-198
7.51692e-199
7.17478e-200
5.99992e-201
7.51034e-202
1.70749e-202
9.51637e-203
8.01698e-203
2.65202e-203
1.31187e-203
8.70681e-204
6.04695e-204
3.37548e-204
2.65775e-204
9.56674e-205
1.01014e-204
4.0875e-205
1.4671e-205
9.58077e-206
3.64052e-206
4.5484e-207
3.61939e-207
5.25738e-207
1.34381e-181
1.16311e-182
8.4197e-184
6.89521e-185
5.87279e-186
5.6812e-187
6.76328e-188
6.88185e-189
6.05027e-190
5.95449e-191
7.6575e-192
8.52113e-193
1.08809e-193
1.52843e-194
2.10649e-195
2.54751e-196
2.96776e-197
3.99253e-198
3.81577e-199
4.12668e-200
8.48664e-201
4.31927e-201
2.09145e-201
9.05306e-202
2.87414e-202
1.24278e-202
7.72792e-203
3.85783e-203
2.81744e-203
1.0503e-203
6.65667e-204
2.93181e-204
1.0891e-204
3.76e-205
1.69389e-205
5.1686e-206
9.85774e-207
7.40539e-207
1.57921e-181
2.07589e-182
2.69965e-183
3.29353e-184
4.40356e-185
5.77566e-186
8.32619e-187
1.05478e-187
9.46277e-189
1.0637e-189
1.40894e-190
1.3763e-191
1.60934e-192
1.64147e-193
2.32549e-194
3.59451e-195
3.51734e-196
3.41229e-197
3.85111e-198
5.1509e-199
7.73606e-200
1.98933e-200
5.09947e-201
1.7902e-201
7.98148e-202
3.43432e-202
2.60486e-202
9.62652e-203
7.5432e-203
1.68539e-203
1.31836e-203
2.66442e-204
8.12298e-205
2.12521e-205
1.0736e-205
6.49268e-206
2.2457e-206
5.61546e-207
5.15609e-180
4.20678e-181
4.12763e-182
4.49922e-183
5.42424e-184
6.98054e-185
9.20605e-186
1.24318e-186
1.56073e-187
2.48537e-188
4.00761e-189
4.88976e-190
6.23066e-191
7.26433e-192
1.07228e-192
1.59546e-193
2.30186e-194
2.15235e-195
1.65948e-196
1.6117e-197
2.91135e-198
4.93155e-199
1.55839e-199
4.56881e-200
1.39784e-200
5.45059e-201
2.56597e-201
9.2029e-202
3.03005e-202
1.13376e-202
2.40681e-203
5.35849e-204
2.68088e-204
6.7264e-205
1.3948e-205
6.1425e-206
1.87848e-206
3.26433e-207
9.57001e-179
7.34466e-180
6.41589e-181
6.0496e-182
6.2234e-183
7.31567e-184
9.21618e-185
1.27509e-185
1.75466e-186
2.55481e-187
3.53901e-188
4.81468e-189
8.48802e-190
1.41836e-190
2.07715e-191
3.45474e-192
8.33347e-193
1.18363e-193
1.09824e-194
6.87269e-196
4.81163e-197
5.1044e-198
1.22091e-198
2.93038e-199
8.34738e-200
1.92425e-200
1.14989e-200
1.63253e-201
8.12059e-202
1.7794e-202
2.8896e-203
1.67602e-203
3.59645e-204
9.03772e-205
1.91884e-205
5.52993e-206
1.05559e-206
2.11536e-207
7.58456e-178
6.22478e-179
5.62362e-180
5.56315e-181
5.88164e-182
6.71249e-183
7.7695e-184
9.4051e-185
1.16919e-185
1.45783e-186
1.88633e-187
2.54581e-188
2.94428e-189
4.34549e-190
6.10314e-191
7.95577e-192
1.21171e-192
2.02148e-193
2.62965e-194
3.10279e-195
3.57866e-196
4.72498e-197
8.63169e-198
1.25932e-198
4.32189e-199
6.23902e-200
2.74142e-200
5.25885e-201
1.06278e-201
3.99574e-202
7.91584e-203
3.25543e-203
5.86319e-204
1.57645e-204
3.3205e-205
1.93671e-206
3.4632e-207
1.2908e-207
7.58759e-178
6.31095e-179
5.74508e-180
5.44683e-181
5.7394e-182
6.15237e-183
7.20943e-184
8.68002e-185
1.06942e-185
1.37515e-186
1.78598e-187
2.30763e-188
3.3885e-189
4.80294e-190
7.16248e-191
1.27789e-191
2.05528e-192
3.12292e-193
5.03309e-194
7.34062e-195
1.35043e-195
2.23854e-196
3.93614e-197
6.74616e-198
2.14316e-198
5.58418e-199
1.35138e-199
3.5664e-200
8.34594e-201
2.08445e-201
4.80119e-202
1.04169e-202
1.81567e-203
1.85274e-204
1.20179e-205
4.30725e-207
1.0123e-207
1.07359e-207
5.43402e-178
4.51491e-179
4.06004e-180
3.88291e-181
3.9471e-182
4.25052e-183
4.64704e-184
5.52171e-185
6.26265e-186
7.77864e-187
9.52157e-188
1.15275e-188
1.50831e-189
1.8962e-190
3.09155e-191
4.3613e-192
6.88302e-193
1.17195e-193
2.27174e-194
3.95235e-195
7.82691e-196
1.37221e-196
2.22477e-197
2.90784e-198
4.01742e-199
7.28292e-200
1.99577e-200
4.34455e-201
8.18635e-202
1.22406e-202
1.83247e-203
3.60987e-204
1.01416e-204
6.72787e-206
1.4302e-206
8.75884e-208
2.98727e-208
8.17675e-208
1.22078e-178
1.00357e-179
9.02018e-181
8.17606e-182
8.29935e-183
8.26609e-184
8.78646e-185
1.0116e-185
1.03828e-186
1.30505e-187
1.51057e-188
1.64669e-189
2.03948e-190
2.89595e-191
3.54322e-192
5.0869e-193
7.14649e-194
1.21503e-194
2.24473e-195
4.94202e-196
1.17703e-196
2.80604e-197
5.37297e-198
1.05274e-198
2.26669e-199
4.30788e-200
8.80229e-201
1.86282e-201
4.32661e-202
9.65054e-203
2.02063e-203
3.86123e-204
8.63532e-205
1.4319e-205
1.14405e-206
1.83634e-207
3.0052e-208
5.00253e-208
1.33962e-179
1.1121e-180
1.00841e-181
9.20059e-183
9.21486e-184
9.45016e-185
9.35834e-186
1.1854e-186
1.13194e-187
1.39212e-188
1.59483e-189
1.44172e-190
1.49042e-191
1.47288e-192
1.52325e-193
1.88494e-194
2.70963e-195
5.29791e-196
1.37262e-196
4.27976e-197
1.23069e-197
3.4033e-198
6.76936e-199
1.07642e-199
1.92071e-200
4.17087e-201
1.09526e-201
2.65054e-202
6.53177e-203
1.45824e-203
5.12016e-204
7.78897e-205
1.32268e-205
2.27808e-206
2.71948e-207
6.09769e-208
1.47938e-208
2.12512e-208
4.97348e-181
4.08318e-182
3.81152e-183
3.28733e-184
3.35974e-185
3.36156e-186
3.185e-187
4.71142e-188
3.73818e-189
4.7149e-190
4.4325e-191
3.58888e-192
2.97014e-193
2.69915e-194
3.95214e-195
7.50358e-196
8.08235e-197
1.69343e-197
1.61726e-197
5.6894e-198
1.71414e-198
5.10539e-199
1.44132e-199
2.79177e-200
5.45286e-201
1.08596e-201
2.67558e-202
7.04666e-203
2.0816e-203
5.46627e-204
2.18341e-204
5.71213e-205
1.14358e-205
1.25786e-206
1.89576e-207
1.16392e-207
5.21143e-208
1.74662e-208
5.44567e-183
4.42011e-184
4.43678e-185
3.4518e-186
4.0401e-187
3.64583e-188
4.02948e-189
6.98029e-190
5.61229e-191
6.13775e-192
5.6093e-193
3.65034e-194
1.50572e-195
1.68152e-196
3.15468e-197
8.57234e-198
8.61997e-199
5.25714e-199
7.47623e-199
1.48018e-199
5.12553e-200
2.12051e-200
5.81026e-201
1.01307e-201
2.93659e-202
6.84437e-203
2.03705e-203
6.2156e-204
1.91291e-204
5.2692e-205
2.36361e-205
3.65461e-206
8.06606e-207
7.42806e-208
1.90671e-208
2.54434e-208
2.2132e-208
1.95371e-208
3.2043e-182
2.38905e-183
1.86833e-184
1.13094e-185
9.33241e-187
1.3312e-187
1.99638e-188
2.1213e-189
2.60636e-190
3.7852e-191
5.44578e-192
6.75765e-193
7.92525e-194
9.09543e-195
1.18969e-195
1.50633e-196
1.7801e-197
1.86104e-198
1.49494e-199
1.46241e-200
2.44698e-201
8.38457e-202
4.46752e-202
1.48691e-202
6.3669e-203
4.35789e-203
2.76729e-203
1.3152e-203
8.18865e-204
3.74401e-204
9.87004e-205
4.10058e-205
1.50485e-205
5.98046e-206
3.45064e-206
6.89955e-207
5.16174e-207
4.09776e-207
2.04632e-180
1.75517e-181
1.26619e-182
9.08526e-184
7.1345e-185
7.19017e-186
9.1776e-187
1.0628e-187
1.16903e-188
1.39824e-189
1.96158e-190
2.67954e-191
3.38766e-192
4.11493e-193
5.13077e-194
6.43898e-195
7.6301e-196
9.27573e-197
9.26994e-198
8.98489e-199
1.20919e-199
3.87706e-200
1.42376e-200
4.58433e-201
1.35207e-201
6.7874e-202
3.99063e-202
1.8317e-202
1.02929e-202
3.81188e-203
1.27422e-203
4.64256e-204
1.33869e-204
4.12898e-205
1.69286e-205
4.63222e-206
2.01343e-206
7.34869e-207
6.36821e-180
7.0295e-181
8.02686e-182
8.6967e-183
1.013e-183
1.27652e-184
1.68078e-185
2.07809e-186
2.16613e-187
2.53555e-188
3.57464e-189
4.55485e-190
5.00925e-191
5.33192e-192
5.51063e-193
6.70584e-194
8.24598e-195
9.78979e-196
1.23709e-196
1.62728e-197
2.13629e-198
3.77081e-199
8.64817e-200
2.62301e-200
8.62605e-201
4.95648e-201
1.75569e-201
8.75657e-202
3.99378e-202
6.6056e-203
4.10742e-203
8.94254e-204
1.79237e-204
5.70063e-205
2.00879e-205
7.39045e-206
3.21334e-206
6.55279e-207
2.97856e-178
2.22535e-179
1.92359e-180
1.81355e-181
1.90681e-182
2.13007e-183
2.45706e-184
2.99646e-185
3.55398e-186
4.86764e-187
7.15024e-188
9.26289e-189
1.10654e-189
1.33536e-190
1.75717e-191
2.61026e-192
3.42929e-193
3.96456e-194
4.37703e-195
5.21226e-196
7.45241e-197
1.19202e-197
2.69874e-198
7.02747e-199
1.82465e-199
6.58652e-200
1.89824e-200
6.40965e-201
1.78401e-201
5.17551e-202
8.9892e-203
1.72653e-203
6.48434e-204
7.31001e-205
1.37307e-205
4.14662e-206
2.30397e-206
3.79095e-207
3.58682e-177
2.71043e-178
2.26483e-179
2.00646e-180
1.95465e-181
2.08643e-182
2.36518e-183
2.94392e-184
3.67356e-185
4.87761e-186
6.54478e-187
8.62258e-188
1.25738e-188
1.82351e-189
2.59094e-190
3.99987e-191
6.91858e-192
8.67455e-193
8.5049e-194
9.06412e-195
1.14088e-195
1.5263e-196
2.69236e-197
5.57139e-198
1.14622e-198
2.95251e-199
8.0868e-200
1.53797e-200
4.73635e-201
8.95287e-202
1.73358e-202
4.74904e-203
8.51582e-204
1.43679e-204
2.14833e-205
3.40456e-206
1.0072e-206
1.4606e-207
1.8421e-176
1.46632e-177
1.2748e-178
1.19686e-179
1.20799e-180
1.29104e-181
1.42311e-182
1.62778e-183
1.9155e-184
2.30979e-185
2.8596e-186
3.62235e-187
4.4678e-188
6.12803e-189
8.47632e-190
1.16925e-190
1.73783e-191
2.67264e-192
3.56963e-193
4.79065e-194
6.92178e-195
9.40141e-196
1.57987e-196
2.48561e-197
5.44443e-198
8.95005e-199
2.52495e-199
4.33653e-200
1.00703e-200
1.86163e-201
3.74787e-202
5.64437e-203
1.00654e-203
1.58263e-204
4.90424e-206
8.5598e-207
2.56149e-207
6.56583e-208
1.86481e-176
1.50536e-177
1.31426e-178
1.21151e-179
1.21589e-180
1.26753e-181
1.40994e-182
1.62779e-183
1.91977e-184
2.3586e-185
2.92388e-186
3.71735e-187
4.98363e-188
6.81542e-189
9.85912e-190
1.56169e-190
2.3955e-191
3.65935e-192
5.68642e-193
8.26826e-194
1.41084e-194
2.23475e-195
3.91531e-196
6.60886e-197
1.45061e-197
2.84564e-198
5.43078e-199
1.10381e-199
1.90272e-200
3.53054e-201
5.2235e-202
8.75063e-203
8.88124e-204
5.55585e-205
3.3715e-206
3.26141e-207
6.52103e-208
3.76714e-208
1.23926e-176
9.99001e-178
8.66808e-179
7.98568e-180
7.83342e-181
8.05062e-182
8.55577e-183
9.64402e-184
1.07579e-184
1.27644e-185
1.51925e-186
1.81634e-187
2.26645e-188
2.91251e-189
4.23318e-190
5.951e-191
9.02668e-192
1.46673e-192
2.58592e-193
4.28627e-194
7.8349e-195
1.3355e-195
2.2551e-196
3.26807e-197
4.3181e-198
7.40988e-199
1.40295e-199
2.58811e-200
4.69334e-201
7.28683e-202
1.03972e-202
1.3435e-203
1.84607e-204
3.18157e-205
2.71188e-206
2.26156e-207
2.30664e-208
2.70551e-208
2.91791e-177
2.34685e-178
2.0348e-179
1.81932e-180
1.77267e-181
1.75075e-182
1.81988e-183
2.01333e-184
2.1298e-185
2.50017e-186
2.87149e-187
3.19276e-188
3.85821e-189
4.99669e-190
6.12016e-191
8.20739e-192
1.10859e-192
1.72237e-193
3.11658e-194
6.12068e-195
1.28946e-195
2.75065e-196
5.18283e-197
9.73917e-198
1.85637e-198
3.11009e-199
5.3183e-200
9.83483e-201
1.75264e-201
3.54889e-202
7.3071e-203
1.24322e-203
2.15998e-204
4.37133e-205
7.31134e-206
1.31971e-206
1.93615e-207
3.15089e-208
3.26547e-178
2.65309e-179
2.33078e-180
2.08635e-181
2.03301e-182
2.01217e-183
2.03377e-184
2.31904e-185
2.31166e-186
2.70535e-187
2.94706e-188
2.8133e-189
2.97366e-190
2.88587e-191
2.90518e-192
3.42197e-193
4.40372e-194
7.74761e-195
1.95848e-195
5.3395e-196
1.35199e-196
3.24861e-197
6.68558e-198
9.51795e-199
1.9417e-199
3.99133e-200
8.90246e-201
1.96755e-201
3.89269e-202
6.81168e-203
1.44675e-203
2.78293e-204
4.45377e-205
5.82262e-206
1.58574e-206
3.41169e-207
4.4803e-208
1.51077e-208
1.32777e-179
1.07635e-180
9.71084e-182
8.39209e-183
8.47239e-184
8.06135e-185
8.0406e-186
9.55966e-187
8.41679e-188
1.04728e-188
1.02358e-189
8.65291e-191
8.04169e-192
6.85478e-193
7.73072e-194
1.0884e-194
1.17213e-195
2.70933e-196
1.80351e-196
5.56172e-197
1.56037e-197
4.12426e-198
1.02188e-198
1.81535e-199
3.35456e-200
6.7425e-201
1.608e-201
4.09073e-202
1.08472e-202
2.4669e-203
6.73722e-204
1.60763e-204
2.93097e-205
4.18081e-206
8.86013e-207
3.94354e-207
1.37932e-207
3.8038e-208
1.61289e-181
1.29699e-182
1.24985e-183
1.01636e-184
1.18281e-185
1.01487e-186
1.09205e-187
1.38757e-188
1.24758e-189
1.34766e-190
1.33803e-191
9.95989e-193
6.21698e-194
4.87944e-195
7.37802e-196
1.41166e-196
1.78402e-197
8.14038e-198
9.21951e-198
1.94498e-198
5.79576e-199
1.70684e-199
3.44285e-200
5.61402e-201
1.14717e-201
2.19106e-202
6.03066e-203
1.76938e-203
4.84792e-204
1.12525e-204
4.01224e-205
6.42111e-206
1.04228e-206
1.42593e-207
3.23446e-208
3.756e-208
3.4343e-208
2.15229e-208
2.78673e-181
1.54278e-182
1.08312e-183
5.62259e-185
3.90482e-186
7.01032e-187
1.09495e-187
1.28392e-188
1.89457e-189
3.06902e-190
4.80856e-191
6.85805e-192
9.21794e-193
1.14116e-193
1.48483e-194
1.77011e-195
1.93332e-196
1.95484e-197
1.52182e-198
1.22432e-199
1.56523e-200
3.66517e-201
1.28111e-201
4.23906e-202
1.62104e-202
1.05998e-202
7.47137e-203
3.15885e-203
1.8015e-203
5.86901e-204
1.35765e-204
5.4573e-205
1.45075e-205
4.82828e-206
1.74683e-206
6.66255e-207
2.49824e-207
3.03683e-207
2.17308e-179
1.53728e-180
9.63854e-182
5.80279e-183
4.08109e-184
4.07037e-185
5.33095e-186
6.67338e-187
8.69615e-188
1.1803e-188
1.70524e-189
2.4831e-190
3.5096e-191
4.64947e-192
6.05942e-193
7.34791e-194
8.54033e-195
1.01451e-195
1.03286e-196
9.59881e-198
9.93265e-199
2.06851e-199
5.7635e-200
1.49164e-200
4.06732e-201
1.96124e-201
1.14786e-201
4.47004e-202
2.23518e-202
7.10076e-203
1.89656e-203
6.16369e-204
1.43791e-204
3.79241e-205
1.21191e-205
4.4094e-206
9.93913e-207
3.27172e-207
1.46916e-178
1.28544e-179
1.21111e-180
1.11675e-181
1.0916e-182
1.20905e-183
1.44921e-184
1.71534e-185
1.95765e-186
2.41141e-187
3.33202e-188
4.58906e-189
5.82849e-190
7.0251e-191
8.41575e-192
9.55412e-193
1.12631e-193
1.33436e-194
1.62997e-195
2.01678e-196
2.45755e-197
3.65814e-198
7.03935e-199
1.75276e-199
4.94201e-200
2.13061e-200
8.47959e-201
3.16109e-201
1.15725e-201
2.19408e-202
8.02269e-203
1.34397e-203
2.7356e-204
8.33556e-205
2.50858e-205
5.3266e-206
1.67093e-206
1.9866e-207
6.17503e-177
4.34144e-178
3.43746e-179
2.90815e-180
2.70759e-181
2.68274e-182
2.79221e-183
3.10233e-184
3.49877e-185
4.36368e-186
5.81199e-187
7.51737e-188
9.19909e-189
1.14454e-189
1.48042e-190
2.06984e-191
2.62692e-192
3.23125e-193
3.97241e-194
5.04334e-195
6.99837e-196
1.0716e-196
2.06754e-197
4.64411e-198
1.08293e-198
3.05473e-199
8.11396e-200
2.29169e-200
5.79621e-201
1.3782e-201
2.56809e-202
4.74634e-203
1.20934e-203
1.61288e-204
2.59392e-205
2.94258e-206
1.26065e-206
2.07356e-207
4.94853e-176
3.67247e-177
2.95249e-178
2.50079e-179
2.31756e-180
2.2926e-181
2.41087e-182
2.731e-183
3.15968e-184
3.85708e-185
4.83814e-186
6.11372e-187
8.09262e-188
1.08741e-188
1.46815e-189
2.08127e-190
3.01824e-191
3.85859e-192
4.51435e-193
5.78783e-194
8.09261e-195
1.16736e-195
1.90891e-196
3.5222e-197
6.5073e-198
1.41283e-198
3.01426e-199
6.0383e-200
1.38106e-200
2.42282e-201
4.89445e-202
8.8407e-203
1.49685e-203
2.11496e-204
3.52281e-205
2.89133e-206
5.37569e-207
1.14394e-207
1.79193e-175
1.37809e-176
1.14837e-177
1.02581e-178
9.83752e-180
9.93209e-181
1.03982e-181
1.12785e-182
1.25995e-183
1.45008e-184
1.71075e-185
2.07253e-186
2.54968e-187
3.31392e-188
4.4337e-189
6.10035e-190
8.73439e-191
1.26861e-191
1.76777e-192
2.49185e-193
3.72598e-194
5.44412e-195
8.79893e-196
1.4651e-196
2.68647e-197
4.74898e-198
9.95454e-199
1.77358e-199
3.48008e-200
6.09248e-201
1.08306e-201
1.60349e-202
2.64975e-203
3.2128e-204
8.22826e-206
7.83371e-207
1.81938e-207
9.65223e-208
1.84311e-175
1.43273e-176
1.19483e-177
1.05779e-178
1.00714e-179
1.00645e-180
1.06009e-181
1.16271e-182
1.30646e-183
1.52522e-184
1.80863e-185
2.20875e-186
2.80527e-187
3.68277e-188
5.08553e-189
7.47619e-190
1.10078e-190
1.62871e-191
2.44026e-192
3.60559e-193
5.71235e-194
8.88921e-195
1.46347e-195
2.41293e-196
4.50311e-197
8.07853e-198
1.4258e-198
2.59067e-199
4.34786e-200
7.56806e-201
1.1677e-201
1.84638e-202
1.97214e-203
1.51069e-204
1.11046e-205
1.0466e-206
1.7972e-207
3.34287e-208
1.15688e-175
8.99727e-177
7.48838e-178
6.60994e-179
6.20403e-180
6.08279e-181
6.22145e-182
6.65787e-183
7.21782e-184
8.20121e-185
9.40621e-186
1.09738e-186
1.3266e-187
1.65899e-188
2.25969e-189
3.1322e-190
4.63247e-191
7.17443e-192
1.17447e-192
1.90106e-193
3.23079e-194
5.24837e-195
8.566e-196
1.32252e-196
1.90808e-197
3.15849e-198
5.55751e-199
9.04041e-200
1.49137e-200
2.09911e-201
2.73069e-202
3.39684e-203
4.42214e-204
7.26663e-205
8.89362e-206
9.28563e-207
8.19522e-208
2.37995e-208
2.84276e-176
2.22005e-177
1.85095e-178
1.61131e-179
1.50379e-180
1.44752e-181
1.45859e-182
1.54578e-183
1.62384e-184
1.82255e-185
2.03173e-186
2.25435e-187
2.63909e-188
3.18292e-189
3.86506e-190
5.0426e-191
6.74615e-192
1.00751e-192
1.75704e-193
3.2181e-194
6.201e-195
1.18081e-195
2.135e-196
3.89271e-197
6.83766e-198
1.12537e-198
1.93665e-199
3.56277e-200
6.22452e-201
1.20928e-201
2.2376e-202
3.54396e-203
6.50143e-204
1.22159e-204
2.34277e-205
4.01271e-206
5.872e-207
5.44839e-208
3.2954e-177
2.60913e-178
2.21236e-179
1.93271e-180
1.81904e-181
1.7444e-182
1.74729e-183
1.86668e-184
1.87801e-185
2.10612e-186
2.22141e-187
2.19056e-188
2.28789e-189
2.16119e-190
2.12941e-191
2.41703e-192
2.96392e-193
4.84892e-194
1.18233e-194
2.86696e-195
6.70934e-196
1.43199e-196
2.82242e-197
4.53735e-198
8.33324e-199
1.62717e-199
3.23294e-200
6.35844e-201
1.13574e-201
1.76714e-202
4.11077e-203
6.40084e-204
1.16825e-204
2.10018e-205
3.70413e-206
7.25807e-207
1.03421e-207
1.5153e-208
1.48275e-178
1.1827e-179
1.03063e-180
8.86016e-182
8.66046e-183
8.07067e-184
8.19525e-185
8.8231e-186
8.21227e-187
9.61706e-188
9.29751e-189
8.0918e-190
7.5583e-191
6.06756e-192
5.75986e-193
6.40553e-194
6.66249e-195
1.73235e-195
9.13249e-196
2.49384e-196
6.4796e-197
1.55776e-197
3.4088e-198
6.30101e-199
1.17964e-199
2.33125e-200
5.0884e-201
1.16166e-201
2.67779e-202
5.74418e-203
1.34441e-203
2.90447e-204
5.48727e-205
1.03731e-205
2.2615e-206
7.10015e-207
1.92766e-207
4.21713e-208
2.0019e-180
1.59657e-181
1.47713e-182
1.23744e-183
1.38237e-184
1.21725e-185
1.29997e-186
1.35224e-187
1.2864e-188
1.37788e-189
1.35111e-190
1.01234e-191
6.79526e-193
4.13971e-194
5.15437e-195
7.7369e-196
1.09204e-196
5.14377e-197
4.53758e-197
8.80381e-198
2.36869e-198
5.88802e-199
1.0384e-199
1.91991e-200
3.84141e-201
7.02915e-202
1.7755e-202
4.75051e-203
1.11566e-203
2.52357e-204
6.99249e-205
1.2593e-205
1.77895e-206
3.11538e-207
6.5181e-208
3.6065e-208
3.65574e-208
2.15633e-208
1.7041e-180
8.79823e-182
4.21737e-183
2.41989e-184
1.76354e-185
2.73327e-186
3.70422e-187
4.15226e-188
7.04308e-189
1.28893e-189
2.22308e-190
3.37929e-191
5.00871e-192
6.97328e-193
9.83457e-194
1.24402e-194
1.34249e-195
1.30307e-196
1.02747e-197
7.23889e-199
7.5272e-200
1.29214e-200
2.86177e-201
6.8111e-202
2.35596e-202
1.34002e-202
9.24574e-203
4.0456e-203
1.98594e-203
5.85314e-204
1.54132e-204
7.44356e-205
1.39373e-205
3.39883e-206
1.08833e-206
2.07886e-207
2.0434e-207
2.18712e-207
1.89334e-178
1.02751e-179
5.49519e-181
2.87538e-182
1.98422e-183
1.73196e-184
2.06587e-185
2.51815e-186
3.61264e-187
5.35278e-188
8.07905e-189
1.20604e-189
1.80701e-190
2.57837e-191
3.66111e-192
4.7644e-193
5.7345e-194
6.80371e-195
7.1355e-196
6.66591e-197
6.18504e-198
8.7771e-199
1.79551e-199
3.75872e-200
7.9518e-201
3.00852e-201
1.59521e-201
5.95605e-202
2.60977e-202
8.12134e-203
1.86298e-203
6.97563e-204
1.43035e-204
3.03581e-205
9.23221e-206
2.26316e-206
7.81444e-207
1.92153e-207
2.08748e-177
1.51538e-178
1.17962e-179
9.13705e-181
7.42365e-182
6.85577e-183
7.37988e-184
8.2497e-185
9.67979e-186
1.23241e-186
1.68831e-187
2.33716e-188
3.19347e-189
4.19762e-190
5.56938e-191
6.93905e-192
8.60655e-193
1.03224e-193
1.23214e-194
1.44647e-195
1.70197e-196
2.29344e-197
3.72734e-198
7.34963e-199
1.59648e-199
5.18027e-200
1.84541e-200
5.60101e-201
1.70356e-201
4.29541e-202
9.96756e-203
2.14344e-203
4.08789e-204
1.12188e-204
2.78483e-205
5.24997e-206
1.25726e-206
1.81366e-207
5.00627e-176
3.46003e-177
2.63396e-178
2.1068e-179
1.84134e-180
1.70091e-181
1.66445e-182
1.73521e-183
1.87738e-184
2.21251e-185
2.74102e-186
3.40584e-187
4.20395e-188
5.29621e-189
6.80359e-190
9.01698e-191
1.14033e-191
1.4403e-192
1.83321e-193
2.37228e-194
3.25157e-195
4.82222e-196
8.40551e-197
1.65521e-197
3.44664e-198
8.2124e-199
2.00842e-199
4.68754e-200
1.01985e-200
2.08943e-201
3.9184e-202
7.41829e-203
1.43112e-203
2.06723e-204
3.37067e-205
3.83889e-206
6.39124e-207
1.18846e-207
3.22627e-175
2.34327e-176
1.83125e-177
1.50975e-178
1.34793e-179
1.27604e-180
1.27958e-181
1.36194e-182
1.49338e-183
1.71223e-184
2.02235e-185
2.4378e-186
3.03097e-187
3.85614e-188
4.98425e-189
6.69096e-190
9.06838e-191
1.16919e-191
1.49119e-192
1.99492e-193
2.8034e-194
4.07181e-195
6.40344e-196
1.0881e-196
1.89859e-197
3.62432e-198
7.11836e-199
1.37163e-199
2.78105e-200
4.92378e-201
8.89393e-202
1.44201e-202
2.42314e-203
3.54248e-204
5.06901e-205
4.40347e-206
7.70362e-207
1.68059e-207
9.6421e-175
7.17019e-176
5.75312e-177
4.9371e-178
4.53295e-179
4.38739e-180
4.40065e-181
4.57089e-182
4.88974e-183
5.38781e-184
6.09648e-185
7.09862e-186
8.48568e-187
1.06123e-187
1.37357e-188
1.83903e-189
2.54163e-190
3.55762e-191
4.9814e-192
7.06032e-193
1.03711e-193
1.53157e-194
2.40725e-195
3.93117e-196
6.80684e-197
1.19255e-197
2.25647e-198
3.93562e-199
7.10217e-200
1.18854e-200
1.93239e-201
2.82684e-202
4.2015e-203
4.92209e-204
3.10516e-205
2.75632e-206
5.18266e-207
1.88428e-207
1.00719e-174
7.54113e-176
6.03365e-177
5.13208e-178
4.67008e-179
4.47738e-180
4.51019e-181
4.72872e-182
5.1013e-183
5.69766e-184
6.501e-185
7.64729e-186
9.32282e-187
1.17799e-187
1.56262e-188
2.1848e-189
3.09792e-190
4.43388e-191
6.42742e-192
9.35227e-193
1.41408e-193
2.14261e-194
3.37999e-195
5.42007e-196
9.33386e-197
1.58236e-197
2.68888e-198
4.60639e-199
7.59279e-200
1.25266e-200
1.9128e-201
2.81913e-202
3.44171e-203
3.26873e-204
2.95882e-205
3.77808e-206
5.67839e-207
8.20033e-208
6.08131e-175
4.56615e-176
3.65465e-177
3.10013e-178
2.79089e-179
2.62899e-180
2.5888e-181
2.65632e-182
2.79028e-183
3.05045e-184
3.38559e-185
3.8472e-186
4.51564e-187
5.47248e-188
7.12687e-189
9.61436e-190
1.3824e-190
2.06817e-191
3.23938e-192
5.06881e-193
8.16183e-194
1.27485e-194
1.99753e-195
3.05981e-196
4.71591e-197
7.9194e-198
1.34226e-198
2.17048e-199
3.39732e-200
4.81216e-201
6.46351e-202
8.54328e-203
1.18583e-203
1.35779e-204
1.56187e-205
1.93546e-206
2.29879e-207
3.94448e-208
1.53469e-175
1.1611e-176
9.33107e-178
7.86995e-179
7.06268e-180
6.58359e-181
6.42829e-182
6.54276e-183
6.74039e-184
7.29276e-185
7.8828e-186
8.61616e-187
9.76276e-188
1.11358e-188
1.32061e-189
1.67897e-190
2.23477e-191
3.3004e-192
5.59255e-193
9.78137e-194
1.76607e-194
3.12818e-195
5.38339e-196
9.37737e-197
1.60297e-197
2.69086e-198
4.67312e-199
8.43415e-200
1.43312e-200
2.6189e-201
4.41545e-202
7.14146e-203
1.20513e-203
1.74589e-204
2.82779e-205
4.86493e-206
7.68492e-207
9.75255e-208
1.82793e-176
1.40659e-177
1.15178e-178
9.78236e-180
8.88178e-181
8.26097e-182
8.08817e-183
8.23829e-184
8.24606e-185
8.91049e-186
9.14237e-187
9.10226e-188
9.27188e-189
8.37472e-190
7.97215e-191
8.79264e-192
1.0677e-192
1.7402e-193
4.0837e-194
9.11072e-195
1.97652e-195
3.92759e-196
7.27953e-197
1.24445e-197
2.23256e-198
4.21191e-199
7.73776e-200
1.48106e-200
2.51856e-201
4.14375e-202
7.48919e-203
1.23968e-203
2.08406e-204
3.85467e-205
6.29118e-206
9.05045e-207
1.27319e-207
1.96094e-208
8.7963e-178
6.86059e-179
5.77252e-180
4.87837e-181
4.57344e-182
4.16488e-183
4.19016e-184
4.23908e-185
4.07271e-186
4.51286e-187
4.25333e-188
3.80677e-189
3.43861e-190
2.55209e-191
2.16037e-192
2.09183e-193
2.35227e-194
7.1642e-195
3.01939e-195
7.41198e-196
1.76884e-196
3.89732e-197
7.72037e-198
1.44714e-198
2.67931e-199
5.1847e-200
1.0596e-200
2.2954e-201
4.8097e-202
9.84574e-203
1.97224e-203
4.09341e-204
7.51861e-205
1.52021e-205
3.43309e-206
8.35929e-207
2.03029e-207
4.22072e-208
1.29206e-179
1.01658e-180
8.96218e-182
7.52025e-183
7.7774e-184
6.8396e-185
7.5666e-186
7.42171e-187
6.96676e-188
7.21381e-189
6.77849e-190
5.01435e-191
3.25616e-192
1.82584e-193
2.01387e-194
2.65074e-195
4.36339e-196
2.29664e-196
1.38984e-196
2.57198e-197
6.34833e-198
1.38083e-198
2.29971e-199
4.63322e-200
8.89265e-201
1.68577e-201
4.03722e-202
9.86163e-203
2.0494e-203
4.60033e-204
1.03742e-204
2.14003e-205
2.94619e-206
5.5044e-207
1.20821e-207
3.7429e-208
2.90457e-208
2.04021e-208
1.02615e-179
4.98984e-181
1.78396e-182
1.19991e-183
9.90272e-185
1.53329e-185
1.44603e-186
1.12681e-187
1.92931e-188
3.77823e-189
7.04528e-190
1.09318e-190
1.62289e-191
2.33301e-192
3.34274e-193
4.43913e-194
5.13708e-195
5.10966e-196
4.34838e-197
3.07875e-198
2.6929e-199
3.90851e-200
6.73509e-201
1.15375e-201
2.44229e-202
1.16158e-202
7.664e-203
3.63251e-203
1.69177e-203
4.71327e-204
1.33772e-204
5.33052e-205
1.08321e-205
1.93212e-206
5.69246e-207
1.01447e-207
1.0954e-207
1.45941e-207
7.30158e-178
4.18866e-179
2.50843e-180
1.5248e-181
1.15729e-182
1.03517e-183
9.46507e-185
9.07775e-186
1.20575e-186
1.77232e-187
2.68255e-188
3.97147e-189
5.87427e-190
8.43318e-191
1.2054e-191
1.62842e-192
2.03873e-193
2.49024e-194
2.77982e-195
2.77979e-196
2.61246e-197
3.09936e-198
4.68514e-199
7.43162e-200
1.2441e-200
3.00376e-201
1.3562e-201
5.14462e-202
2.07686e-202
5.84356e-203
1.39086e-203
4.85628e-204
1.05265e-204
1.74775e-205
4.11298e-206
7.17204e-207
1.8435e-207
4.75918e-208
1.49018e-176
1.00761e-177
7.1744e-179
5.14037e-180
3.86372e-181
3.19511e-182
3.11145e-183
3.24089e-184
3.70366e-185
4.59921e-186
6.0489e-187
8.06114e-188
1.0826e-188
1.42977e-189
1.90059e-190
2.43526e-191
3.07582e-192
3.78974e-193
4.59806e-194
5.43777e-195
6.47449e-196
8.47806e-197
1.25093e-197
2.03785e-198
3.56737e-199
7.82503e-200
2.17e-200
5.85709e-201
1.68818e-201
4.06448e-202
8.81618e-203
2.19412e-203
4.46691e-204
1.02122e-204
1.87898e-205
2.11954e-206
4.72195e-207
5.27953e-208
2.22577e-175
1.54455e-176
1.16535e-177
9.21154e-179
7.86732e-180
7.10197e-181
6.70384e-182
6.67605e-183
6.94287e-184
7.73643e-185
9.00008e-186
1.06427e-186
1.2727e-187
1.55728e-188
1.94279e-189
2.47083e-190
3.09641e-191
3.90436e-192
4.97773e-193
6.42328e-194
8.6232e-195
1.24416e-195
2.01133e-196
3.57367e-197
6.67101e-198
1.32454e-198
2.71417e-199
5.58498e-200
1.13338e-200
2.17255e-201
3.8991e-202
7.23639e-203
1.10803e-203
1.74453e-204
2.42361e-205
3.08069e-206
4.39063e-207
7.67218e-208
1.286e-174
9.13532e-176
6.99457e-177
5.68355e-178
4.9512e-179
4.56844e-180
4.43208e-181
4.51298e-182
4.74601e-183
5.18334e-184
5.82922e-185
6.72542e-186
7.98934e-187
9.74851e-188
1.21844e-188
1.57142e-189
2.04459e-190
2.60719e-191
3.36659e-192
4.47666e-193
6.16554e-194
8.79044e-195
1.33184e-195
2.1361e-196
3.54192e-197
6.22889e-198
1.1159e-198
1.98948e-199
3.56015e-200
6.13324e-201
1.0251e-201
1.66639e-202
2.51369e-203
3.89684e-204
5.6918e-205
6.604e-206
9.35665e-207
1.38857e-207
3.49075e-174
2.52011e-175
1.95905e-176
1.6293e-177
1.4464e-178
1.3556e-179
1.31552e-180
1.3192e-181
1.36217e-182
1.44855e-183
1.58337e-184
1.78363e-185
2.07415e-186
2.5138e-187
3.15789e-188
4.11006e-189
5.50744e-190
7.47725e-191
1.02561e-191
1.42693e-192
2.03967e-193
2.95993e-194
4.50481e-195
7.12411e-196
1.18281e-196
2.01553e-197
3.58341e-198
5.96432e-199
9.88151e-200
1.55142e-200
2.34672e-201
3.37123e-202
4.65468e-203
5.53729e-204
6.35382e-205
8.02311e-206
1.27254e-206
2.11309e-207
3.69951e-174
2.68218e-175
2.07369e-176
1.70614e-177
1.49782e-178
1.38869e-179
1.3504e-180
1.36637e-181
1.42554e-182
1.53758e-183
1.69945e-184
1.93771e-185
2.28711e-186
2.79739e-187
3.58851e-188
4.82901e-189
6.62198e-190
9.19356e-191
1.29213e-191
1.83014e-192
2.66532e-193
3.91761e-194
5.95918e-195
9.26469e-196
1.51374e-196
2.46719e-197
4.05596e-198
6.63972e-199
1.05746e-199
1.64579e-200
2.43904e-201
3.41152e-202
4.43887e-203
4.78716e-204
5.28866e-205
7.0708e-206
9.23763e-207
1.11894e-207
2.17759e-174
1.58645e-175
1.22897e-176
1.00889e-177
8.78049e-179
8.01082e-180
7.64295e-181
7.59025e-182
7.75401e-183
8.21792e-184
8.87265e-185
9.83322e-186
1.12273e-186
1.32145e-187
1.65882e-188
2.18618e-189
3.06153e-190
4.46345e-191
6.74405e-192
1.0183e-192
1.56498e-193
2.35916e-194
3.5753e-195
5.36973e-196
8.22115e-197
1.34605e-197
2.19791e-198
3.4411e-199
5.05902e-200
6.88005e-201
8.86569e-202
1.11992e-202
1.436e-203
1.55265e-204
1.68433e-205
1.87642e-206
2.23249e-207
3.33387e-208
5.57825e-175
4.10367e-176
3.19768e-177
2.62112e-178
2.27856e-179
2.06483e-180
1.9603e-181
1.93377e-182
1.94902e-183
2.04502e-184
2.151e-185
2.30603e-186
2.52971e-187
2.75999e-188
3.18602e-189
3.96388e-190
5.26304e-191
7.77787e-192
1.28877e-192
2.17135e-193
3.71586e-194
6.23411e-195
1.02856e-195
1.71928e-196
2.86706e-197
4.77119e-198
8.13646e-199
1.40535e-199
2.32443e-200
3.93291e-201
6.18058e-202
9.62951e-203
1.37695e-203
1.66521e-204
2.32133e-205
3.79648e-206
6.13118e-207
8.24552e-208
6.76223e-176
5.07097e-177
4.03073e-178
3.33917e-179
2.93828e-180
2.66493e-181
2.54433e-182
2.50482e-183
2.48611e-184
2.59184e-185
2.59485e-186
2.57276e-187
2.51832e-188
2.16101e-189
1.97379e-190
2.13918e-191
2.63589e-192
4.49234e-193
1.01298e-193
2.11366e-194
4.27657e-195
7.94832e-196
1.39757e-196
2.37169e-197
4.09682e-198
7.35954e-199
1.29554e-199
2.38912e-200
3.8446e-201
6.51072e-202
1.0072e-202
1.85295e-203
2.85601e-204
4.72666e-205
7.40101e-206
9.67516e-207
1.18383e-207
1.9034e-208
3.39919e-177
2.59438e-178
2.1166e-179
1.76155e-180
1.58436e-181
1.42746e-182
1.40078e-183
1.362e-184
1.33815e-185
1.39752e-186
1.29169e-187
1.17487e-188
9.90478e-190
6.74879e-191
5.15161e-192
4.60234e-193
6.35578e-194
2.12281e-194
7.35452e-195
1.64952e-195
3.62241e-196
7.29841e-197
1.34801e-197
2.48155e-198
4.50199e-199
8.49198e-200
1.66981e-200
3.44525e-201
6.68306e-202
1.29941e-202
2.37999e-203
4.84099e-204
8.67049e-205
1.69274e-205
3.7137e-206
8.23939e-207
1.74925e-207
3.51003e-208
5.27387e-179
4.09397e-180
3.44571e-181
2.89254e-182
2.69887e-183
2.42308e-184
2.53728e-185
2.43371e-186
2.36261e-187
2.40508e-188
2.15155e-189
1.58377e-190
8.94139e-192
5.38581e-193
5.3713e-194
6.34336e-195
1.31388e-195
7.58783e-196
3.01793e-196
5.63719e-197
1.28047e-197