/*--------------------------------*- C++ -*----------------------------------*\
| =========                 |                                                 |
| \\      /  F ield         | OpenFOAM: The Open Source CFD Toolbox           |
|  \\    /   O peration     | Version:  2.3.1                                 |
|   \\  /    A nd           | Web:      www.OpenFOAM.org                      |
|    \\/     M anipulation  |                                                 |
\*---------------------------------------------------------------------------*/
FoamFile
{
    version     2.0;
    format      ascii;
    class       volVectorField;
    location    "10";
    object      U;
}
// * * * * * * * * * * * * * * * * * * * * * * * * * * * * * * * * * * * * * //

dimensions      [0 1 -1 0 0 0 0];

internalField   nonuniform List<vector> 
38262
(
(-0.0567787 -0.0163042 -0.00057812)
(-0.0560977 -0.0208508 -0.000900387)
(-0.0494164 -0.0150364 -0.00205133)
(-0.0420213 -0.0112085 0.00168634)
(-0.0524849 -0.0103873 0.00415447)
(-0.0617464 -0.011874 0.00128154)
(-0.0501376 -0.0122206 0.00098501)
(-0.0509295 -0.0093191 0.00275347)
(-0.0565033 -0.00989403 -0.000625879)
(-0.0454573 -0.00750997 -0.00356658)
(-0.0363523 -0.00182237 -0.00228496)
(-0.0355882 0.00184429 -0.00164345)
(-0.0344862 0.000740734 -0.00141871)
(-0.0347201 -0.000889552 -0.00103146)
(-0.0382835 0.000277955 -0.00132886)
(-0.0434702 0.00509529 -0.00157511)
(-0.0619477 0.0136692 -0.00119502)
(-0.0995854 0.0355421 0.00529728)
(-0.198518 0.0722006 0.0120159)
(-0.401118 0.0978392 0.00477406)
(-0.605055 -0.0194094 -0.0119863)
(-0.590619 -0.184258 -0.000226583)
(-0.535042 -0.2182 0.0304369)
(-0.657357 -0.169854 0.0221871)
(-0.695981 -0.197988 -0.000242961)
(-0.588548 -0.258366 0.0103317)
(-0.566549 -0.267963 0.0345149)
(-0.624703 -0.2985 0.0295513)
(-0.514472 -0.339155 0.0126283)
(-0.493057 -0.418567 -0.0503602)
(-0.273537 -0.326543 0.0510664)
(-0.346738 -0.340215 -0.000384088)
(-0.186685 -0.490985 0.000482282)
(-0.229396 -0.399248 0.101762)
(-0.343904 -0.449463 -0.0168924)
(0.147453 -0.574933 0.107739)
(0.134821 -0.883989 -0.665311)
(0.594052 1.01998 -0.105103)
(-0.0110062 0.0225992 -0.01207)
(0.00211803 0.0155345 -0.00954742)
(0.00978715 0.00833201 -0.00811245)
(0.0196354 0.00429872 -0.00808228)
(0.0314167 0.00237464 -0.00562839)
(0.0347996 -0.00253654 -0.00270811)
(0.0372103 -0.00688647 -0.00113775)
(0.0361279 -0.00589018 0.00321361)
(0.0208686 -0.00132819 0.00495259)
(0.00949872 -0.000620089 0.00400144)
(0.00470796 -0.00327788 0.00342339)
(0.00336682 0.00111609 0.00125488)
(0.00491874 0.0063311 -0.00105486)
(0.00892826 0.00981757 -0.00136644)
(0.00387229 0.0129102 -0.000123084)
(0.00817422 0.0155117 0.00104788)
(-0.00196365 0.0309418 0.000724973)
(-0.0083746 0.049533 -0.00140354)
(-0.0195376 0.0995109 0.00336915)
(-0.0133821 0.151726 -0.0038975)
(0.0109788 0.17063 -0.0203529)
(0.0167403 0.150736 -0.0361488)
(0.0413041 0.11794 -0.0359297)
(0.0398539 0.0937283 -0.0513645)
(0.142186 0.0508268 -0.0363712)
(0.217589 0.0430323 -0.0252172)
(0.218354 0.0222875 -0.0429785)
(0.33693 0.0484268 -0.0283316)
(0.342005 -0.0590756 -0.0157306)
(0.532888 0.348825 -0.0829202)
(0.157965 -0.0915633 -0.00559589)
(0.758595 0.0473001 -0.134052)
(0.196581 0.363776 -0.0775517)
(0.679558 0.0886629 0.0831203)
(0.266004 -0.0195349 -0.267846)
(1.03802 0.468429 0.237019)
(-1.78507 2.0282 -0.917199)
(3.84094 -5.25062 -0.903619)
(-0.00950607 0.0160431 -0.000739478)
(-0.00157525 0.0116633 -0.00166653)
(0.00558005 0.00927892 -0.00245168)
(0.0124783 0.00765615 -0.00299325)
(0.0203253 0.00346163 -0.00357335)
(0.0293061 -0.00492088 -0.00244554)
(0.0304034 -0.00894481 -0.00314336)
(0.0388951 -0.00895236 -0.00182862)
(0.0378695 -0.0116818 0.00274119)
(0.0282835 -0.0167924 0.0027816)
(0.0255952 -0.0197651 0.00226567)
(0.0128421 -0.0143508 0.00208276)
(0.0100489 -0.0084624 0.0019767)
(0.0101744 -0.000118889 0.00135397)
(0.0113207 0.00105242 0.00266335)
(0.0179455 0.0021726 0.00551819)
(0.00632886 0.016196 0.00572727)
(0.0140785 0.0525458 0.00187752)
(0.00167555 0.0649568 0.000180979)
(0.0264011 0.0984922 4.48358e-06)
(0.0383987 0.0956223 -0.00117277)
(0.074679 0.0270785 -0.00836837)
(0.0860968 -0.0131547 4.50949e-05)
(0.0984959 -0.00242429 -0.00666246)
(0.127616 -0.119074 0.00257264)
(0.12255 -0.119064 -0.0172406)
(0.152684 -0.153951 0.0325973)
(0.0797894 -0.283657 0.0158942)
(-0.0181585 -0.278565 -0.0392179)
(0.321096 -0.0221598 0.061551)
(-0.201291 -0.512001 -0.131953)
(0.361413 0.280862 -0.0128435)
(0.165623 -0.225878 0.0428032)
(-0.208899 -0.466979 -0.174034)
(-0.120323 -0.058834 -0.213738)
(0.741125 0.263999 -0.148876)
(0.658503 -0.00466612 0.231963)
(-0.568676 1.78444 -1.94813)
(0.0204967 0.0115273 0.00134228)
(0.0246251 0.00973317 0.000757492)
(0.0285291 0.00844264 0.000292101)
(0.0338902 0.00661938 -0.000193484)
(0.0393982 0.00547726 -0.000496802)
(0.0460733 0.00353731 -0.000763174)
(0.0477744 0.000708521 -0.00112336)
(0.0533346 -0.000598164 -0.000564566)
(0.0571777 -0.000335826 -2.79647e-05)
(0.056989 -0.00167036 -0.00275442)
(0.0692589 -0.00129922 -0.00168364)
(0.0689942 0.00353041 0.0026776)
(0.0673823 -0.0046398 0.00490132)
(0.0519385 -0.00653433 0.00332255)
(0.0512043 -0.00712625 -0.000670859)
(0.0592097 -0.00535846 -0.00316948)
(0.0504694 0.00195089 0.00951955)
(0.0334045 0.0224985 0.00875633)
(0.0353556 0.0602585 0.00198193)
(0.0382247 0.0795484 -0.00203569)
(0.0915758 0.0823771 -0.00673564)
(0.107306 0.101956 -0.00338847)
(0.119899 0.0833327 -0.0119538)
(0.155562 0.0623347 -0.0109295)
(0.167974 0.0319083 -0.00045578)
(0.167544 0.0795858 -0.0235958)
(0.156843 -0.0966475 -0.00134212)
(0.241034 0.12618 -0.0313192)
(0.110254 -0.066934 -3.65341e-05)
(0.150058 -0.136309 -0.0152952)
(0.238348 0.345473 -0.0109384)
(-0.190627 -0.428927 0.0153865)
(0.263028 0.122475 -0.231625)
(0.232335 0.338576 0.052115)
(0.0239279 -0.171217 -0.1136)
(0.74511 0.0833251 0.04477)
(-0.012958 0.771612 0.0614418)
(-1.22505 2.16921 -0.928827)
(0.0322551 0.00450531 0.000664596)
(0.0352408 0.00358725 0.000499912)
(0.0375292 0.00216957 0.0002619)
(0.0414371 0.000935069 3.22276e-05)
(0.04374 -0.00180634 -4.21531e-05)
(0.0483329 -0.00450491 -0.000406246)
(0.0514294 -0.00829847 -0.000230613)
(0.0537346 -0.0102692 -0.000436531)
(0.0566556 -0.0123452 -0.000449917)
(0.0595534 -0.0147472 -0.0007529)
(0.0636733 -0.0185661 0.00076265)
(0.0576967 -0.015037 0.000889154)
(0.0713997 -0.0138359 -0.00576176)
(0.0730325 -0.0043541 -0.00351861)
(0.0941837 -0.0141664 0.0016908)
(0.0575587 0.0139576 -0.00358808)
(0.102983 0.00334344 -0.0124713)
(0.113459 0.0168337 0.00503204)
(0.0631735 0.0386117 0.0135393)
(0.0618161 0.0502745 0.00474142)
(0.048679 0.0693007 -0.000645764)
(0.0730652 0.0529155 0.000776589)
(0.0878567 0.022661 -0.00565981)
(0.112337 0.0313391 -0.00642651)
(0.115049 -0.0719729 -0.00743789)
(0.134326 0.00745226 -0.000460149)
(0.122503 -0.155636 -0.0386751)
(0.108823 -0.0568617 0.0137837)
(0.151666 -0.179773 -0.0399748)
(0.0617555 -0.066128 -0.0403642)
(0.177756 -0.208096 0.0529061)
(0.202597 0.0417704 -0.125181)
(0.325176 0.14148 -0.00877716)
(0.221607 -0.406033 0.0747565)
(0.1055 -0.327376 -0.117202)
(0.642892 0.069493 -0.0585555)
(-0.458234 0.839117 0.090519)
(-0.937903 1.59902 -0.433319)
(0.0330682 0.00526773 -0.000240845)
(0.0366495 0.0046243 -0.000353591)
(0.040513 0.00405242 -0.000356529)
(0.0436056 0.00317694 -0.000635644)
(0.0487612 0.00223715 -0.000436339)
(0.0496672 0.00172464 -0.000885494)
(0.056138 -0.000997184 -0.000537091)
(0.0550359 0.000574626 -0.000823571)
(0.0597387 -0.00337328 -0.000921498)
(0.0635882 -0.00251089 -0.000204592)
(0.0595904 -0.000567012 -0.000886551)
(0.0700625 -0.00665118 -0.00160884)
(0.0670849 0.00081721 0.00297007)
(0.0654808 -0.0100276 -0.00198962)
(0.0840011 0.00669901 0.000299015)
(0.0666432 0.000171775 0.00271578)
(0.092133 0.0024667 0.000936965)
(0.0770071 0.0353539 -0.000683413)
(0.091197 0.0356172 0.00582672)
(0.0800956 0.0610514 0.00427325)
(0.0818142 0.059071 0.00262682)
(0.10231 0.0492587 0.0058713)
(0.111477 0.0529366 -0.00359557)
(0.122116 0.0484655 0.0123125)
(0.10715 0.0444523 -0.0156256)
(0.144579 0.0657881 0.0203296)
(0.0909639 0.0635667 -0.0192003)
(0.148896 0.0278088 0.0215366)
(0.026238 0.111517 -0.00702014)
(0.143328 -0.0163144 0.0108872)
(0.0205771 0.116181 -0.00198522)
(0.139045 -0.117604 0.0294208)
(0.073758 0.0664146 0.0803475)
(0.336864 0.0641393 -0.0913623)
(0.21719 0.125906 -0.0564577)
(-0.0900559 0.325516 0.0831629)
(-0.652661 1.15859 -0.0613237)
(-0.58051 2.12038 -0.430158)
(0.0332355 0.00142264 -0.000320201)
(0.0362599 0.00116636 -0.000319954)
(0.0383924 0.000569641 -0.000511784)
(0.0423572 -0.000541059 -0.000332134)
(0.0434581 -0.0018751 -0.000719138)
(0.0492854 -0.00372401 -0.000367956)
(0.0479014 -0.00632327 -0.000761104)
(0.056256 -0.00694847 -0.00050869)
(0.0523823 -0.0121232 -0.000600604)
(0.060337 -0.00913999 -0.000595505)
(0.062595 -0.0180727 -0.000401175)
(0.0597418 -0.0121567 7.96592e-05)
(0.0760269 -0.0188502 -0.00173089)
(0.0740064 -0.0123654 0.000190005)
(0.0805347 -0.0159541 0.000354999)
(0.088557 -0.00160958 -0.00329856)
(0.104693 -0.00925146 2.46109e-06)
(0.0799786 0.0221044 0.000794454)
(0.107494 0.0158388 -0.0012748)
(0.0976835 0.0325399 0.00723112)
(0.100031 0.0488621 -0.00599609)
(0.136455 0.0116231 0.00109537)
(0.118533 0.0299442 0.0014124)
(0.129937 0.0178057 -0.00119359)
(0.140574 -0.0221032 -0.0200991)
(0.180883 -0.0344256 -0.0233716)
(0.208487 -0.05508 0.00254771)
(0.154726 -0.0747642 -0.0378515)
(0.255167 -0.0993921 -0.00721691)
(0.162757 -0.118199 -0.0336502)
(0.273211 -0.154219 -0.0284328)
(0.166141 -0.189513 -0.0619098)
(0.216721 -0.225462 -0.0159074)
(0.0125768 -0.278197 -0.0154295)
(0.0521861 0.117605 0.00885126)
(-0.158474 0.236159 0.0980758)
(-0.306724 0.829639 0.06934)
(-0.532802 2.33035 -0.42479)
(0.0331084 0.00310977 -0.000538608)
(0.0360398 0.00267731 -0.000593015)
(0.0391381 0.00275967 -0.000625121)
(0.0418468 0.00169512 -0.000751207)
(0.0459194 0.00161536 -0.00064141)
(0.0466586 0.00135542 -0.000994918)
(0.0527947 -0.00186686 -0.000600156)
(0.0513821 0.001408 -0.00108414)
(0.0568274 -0.00387163 -0.000666267)
(0.057975 -0.00580643 -0.00110575)
(0.0618536 0.00238492 -0.000345105)
(0.0590805 -0.017312 -0.000995946)
(0.0776057 -0.00291452 -0.000752797)
(0.0622835 -0.0111103 0.00118204)
(0.0914 -0.00573015 -0.00329413)
(0.092835 -0.00526938 0.0026896)
(0.100414 0.00951715 -0.000671791)
(0.0976356 0.0323073 0.00215595)
(0.110132 0.0235616 -0.00333429)
(0.124512 0.0390206 0.00469336)
(0.0856605 0.0493342 -0.00227326)
(0.145225 0.0310446 -0.000633617)
(0.0488063 0.0614243 0.00159659)
(0.140652 0.0241959 0.014143)
(-0.012829 0.0827009 0.013395)
(0.012213 0.0986071 -0.00670411)
(-0.0393601 0.110341 -0.0132763)
(-0.0105569 0.118517 -0.0241862)
(-0.0437409 0.123078 -0.0208769)
(-0.0489705 0.135924 -0.0146533)
(-0.115126 0.17005 -0.0267543)
(-0.15468 0.217091 -0.00074895)
(-0.260794 0.270298 -0.0745692)
(-0.202948 0.18486 -0.0863982)
(-0.215484 0.251373 0.0509733)
(-0.217583 0.355495 0.0893216)
(-0.224454 0.752386 0.149091)
(-0.608648 3.05432 -0.272486)
(0.0329152 0.000838234 -0.000441901)
(0.035957 0.00045815 -0.000381425)
(0.0374414 0.00060577 -0.000612764)
(0.0417695 -0.000970345 -0.000314987)
(0.0419195 -0.000531623 -0.000814646)
(0.048019 -0.0028689 -0.000284392)
(0.0454398 -0.00448315 -0.00066514)
(0.0553513 -0.00267061 -0.000685528)
(0.0468449 -0.0122789 0.000202594)
(0.06093 -0.00529596 -0.00118068)
(0.0534928 -0.0149573 0.000134496)
(0.0644887 -0.020781 -3.59208e-05)
(0.0627758 -0.0181146 0.000300303)
(0.0809008 -0.0308212 -0.00180891)
(0.0942679 -0.0339793 0.00126672)
(0.0999396 -0.0231342 -0.000565633)
(0.105252 -0.0125647 0.000740179)
(0.106228 0.00568132 0.00158532)
(0.123285 0.00631942 -0.00027034)
(0.109074 0.035285 0.00324842)
(0.113167 0.0386896 0.000834488)
(0.120437 0.0441801 -0.00423115)
(0.107919 0.0337086 0.00284987)
(0.138296 0.0224776 -0.00328769)
(0.117438 0.0244182 -0.00297807)
(0.162629 0.00119062 -0.00201072)
(0.11812 0.0276537 0.00451114)
(0.138505 -0.00615842 0.00561781)
(0.13997 0.0254054 0.00133993)
(0.120597 -0.0200316 0.00459468)
(0.155159 -0.00513528 0.0138554)
(0.0889118 -0.0926869 0.00162771)
(0.122737 -0.0710576 0.0452326)
(0.0998435 -0.0450546 0.00895737)
(-0.0130099 -0.0727869 0.00302595)
(-0.0313693 -0.126867 0.0036564)
(-0.156425 0.00837224 0.140753)
(-0.598857 2.37389 0.0316131)
(0.0329041 0.00199084 -0.000534712)
(0.0358038 0.0014894 -0.00053611)
(0.0377207 0.00223022 -0.000643643)
(0.0415512 0.000474273 -0.000595746)
(0.0420354 0.00194132 -0.000694261)
(0.0482713 0.00111123 -0.000859549)
(0.0442211 -0.00342794 -0.000339591)
(0.0549463 0.00560712 -0.00158179)
(0.0490308 -0.00891528 -3.36173e-05)
(0.0520083 -0.00281245 -0.00137636)
(0.0600215 -0.000200396 -0.000911441)
(0.0501497 -0.0226087 2.46202e-05)
(0.0573859 -0.0143223 0.000110869)
(0.0706163 -0.0312352 -0.000125541)
(0.0854312 -0.0218597 0.000535555)
(0.0884443 -0.0060935 0.000518606)
(0.106478 -0.00358563 0.00402141)
(0.104953 0.00425733 0.0039742)
(0.107498 0.0244671 0.0029984)
(0.0878596 0.0288938 -0.000136614)
(0.122782 0.0414074 0.00278042)
(0.0881492 0.0556672 -0.00118608)
(0.12975 0.0392781 0.003957)
(0.0574584 0.0433847 0.0252097)
(-0.0367647 0.0970983 0.000655151)
(-0.0449973 0.10289 -0.0150036)
(-0.0683803 0.103713 -0.0136482)
(-0.0584139 0.0990846 -0.0254619)
(-0.056055 0.115733 -0.0219513)
(-0.0573047 0.125915 -0.0285873)
(-0.0637575 0.181694 -0.00741644)
(-0.11814 0.188876 -0.0315144)
(-0.078602 0.143841 0.00783551)
(-0.261154 0.188243 0.0260709)
(-0.386829 0.354913 -0.028671)
(-0.457014 0.601375 -0.00588908)
(-0.673931 0.868271 0.140649)
(-0.455407 2.12163 0.316543)
(0.0325947 0.000633898 -0.000426435)
(0.0361176 0.000105754 -0.000378272)
(0.0361896 0.000804593 -0.000528778)
(0.0428573 -0.000553954 -0.000358706)
(0.0383749 -0.000665853 -0.000603427)
(0.0502721 0.00120984 -0.000376144)
(0.0417652 -0.0066414 -0.000323354)
(0.0500921 0.0042273 -0.00124214)
(0.0543419 -0.00922436 0.000910898)
(0.0408013 -0.00514826 -0.00179199)
(0.058045 -0.00953433 0.000250978)
(0.0484613 -0.0204062 0.000747166)
(0.044996 -0.036957 0.00107823)
(0.0698755 -0.066016 5.22805e-05)
(0.0703263 -0.062295 -0.0020103)
(0.0396904 -0.0558572 -0.00397822)
(0.0125516 -0.0528368 -0.000137142)
(-0.00394662 -0.018398 0.000957318)
(0.00138711 0.00659399 -0.00310246)
(0.00294732 0.016818 -0.00463972)
(0.0469409 0.0308345 -0.0020172)
(0.0617829 0.0358311 -0.000438123)
(0.0872625 0.0484032 -0.00924601)
(0.12307 0.0449741 0.0077027)
(0.0903239 0.0640668 0.0166868)
(0.0838537 0.06533 0.0111742)
(0.0646046 0.0805862 0.00788154)
(0.0676976 0.0776206 0.000281377)
(0.0579765 0.08028 -0.000249707)
(0.0891799 0.0602997 0.0062546)
(0.0522749 0.100279 0.000334729)
(0.140183 -0.0348026 0.0140062)
(0.0824761 0.0212117 0.0279251)
(0.000187797 0.0759079 0.0234964)
(0.122602 0.0191295 0.00968882)
(0.178906 -0.0177993 -0.111161)
(0.767252 -0.586976 -0.0468439)
(0.0221864 -1.14358 0.190363)
(0.0319282 0.000823671 -0.000383844)
(0.0357828 0.00077485 -0.000242738)
(0.0347452 0.000886252 -0.000691693)
(0.0440224 0.00065213 0.000304283)
(0.033231 0.000931493 -0.00160439)
(0.0557202 0.000875265 0.00120649)
(0.0302582 -0.000842865 -0.00185692)
(0.057696 0.00486443 -0.000114146)
(0.0447048 -0.00700022 0.000576506)
(0.0351376 0.00734316 -0.000646937)
(0.0533395 -0.00753806 -3.58433e-05)
(0.0139243 -0.0111581 0.00217254)
(0.0080994 -0.032035 0.00202372)
(-0.0761405 -0.053072 0.000308796)
(-0.14879 0.027407 -0.00118732)
(-0.121 0.067584 0.00239272)
(-0.143353 0.0240637 0.00272885)
(-0.185812 0.00615959 -0.00497797)
(-0.12038 0.0397547 -0.00196623)
(-0.118745 0.00979376 0.00368216)
(-0.125528 0.0103495 -0.0010812)
(-0.0771525 0.0344178 0.000149043)
(-0.0655826 0.0242054 0.00879898)
(-0.0851193 0.0196669 0.013551)
(-0.0949381 0.0503205 0.0180704)
(-0.0920933 0.0618753 0.0210534)
(-0.117222 0.0740017 0.0253101)
(-0.120209 0.0937886 0.024949)
(-0.113717 0.0963642 0.0275247)
(-0.163699 0.100911 0.0323587)
(-0.17432 0.127445 0.0377644)
(-0.241581 0.12593 0.0342598)
(-0.342124 0.0932594 0.046694)
(-0.472173 0.0419828 0.0581817)
(-0.726429 0.159518 0.0813848)
(-0.98181 0.728402 0.102731)
(-0.984167 1.63798 0.108235)
(-1.42505 2.52882 0.16116)
(-0.0482512 0.0076166 -0.0062513)
(-0.0391094 -0.0124721 0.00043388)
(-0.0394219 -0.00971629 -0.000313375)
(-0.0375171 -0.00477672 0.00264219)
(-0.0365411 -0.00845304 0.00851853)
(-0.0456798 -0.0125322 0.00581324)
(-0.0397158 -0.0122276 0.00320615)
(-0.0334833 -0.00926521 0.00690446)
(-0.0354721 -0.0116537 0.00394349)
(-0.0292279 -0.0137568 -0.00132705)
(-0.0218661 -0.0108916 -0.000101464)
(-0.0184413 -0.0052507 -0.000788641)
(-0.0166342 -0.00146146 -0.00251612)
(-0.0155277 -0.000446244 -0.00216225)
(-0.0170121 -0.000917898 -0.00165152)
(-0.0195699 -0.000185408 0.00106065)
(-0.0340394 0.00665843 0.00365251)
(-0.0666854 0.0281007 0.0144055)
(-0.140765 0.0677607 0.0341805)
(-0.314234 0.116628 0.0357973)
(-0.577098 0.0429437 0.00171622)
(-0.653209 -0.118697 -0.00443387)
(-0.522634 -0.180521 0.0531149)
(-0.532312 -0.136587 0.0684869)
(-0.615365 -0.140563 0.0354321)
(-0.57017 -0.197351 0.0448628)
(-0.514335 -0.230144 0.0936944)
(-0.530532 -0.247623 0.0962716)
(-0.490595 -0.266285 0.069387)
(-0.363465 -0.283932 0.000694235)
(-0.399499 -0.296123 0.112677)
(-0.28043 -0.25765 0.0503738)
(-0.304736 -0.365346 0.0356082)
(-0.188614 -0.351009 0.127219)
(0.0282929 -0.264774 0.0953077)
(0.267007 -0.809993 -0.384058)
(0.296741 0.270004 -0.163722)
(-0.909875 -0.946858 1.2936)
(0.00249732 0.013445 -0.0186674)
(0.0136836 0.00759936 -0.0167424)
(0.0180729 0.00347033 -0.0125276)
(0.0230134 0.001153 -0.0121203)
(0.0294462 0.00102035 -0.00795888)
(0.0309022 -0.00344532 -0.0026147)
(0.0304317 -0.00732988 -0.00126409)
(0.0347455 -0.00819016 0.00387528)
(0.0341173 -0.00754891 0.00820076)
(0.0296341 -0.00629156 0.00807947)
(0.0268383 -0.00854473 0.0082674)
(0.0252368 -0.00883702 0.00687048)
(0.0240817 -0.00547272 0.00332496)
(0.0253872 -0.00128978 0.00153611)
(0.0211616 0.00326719 0.000402387)
(0.0221061 0.00599945 0.00343239)
(0.0159445 0.0166083 0.00672061)
(0.012336 0.03691 0.0056569)
(0.00135649 0.080217 0.0114569)
(0.0106627 0.137269 0.00354623)
(0.01693 0.166009 -0.0283103)
(-0.000814316 0.137168 -0.0688913)
(-0.0114007 0.0880582 -0.076609)
(-0.00599312 0.0461227 -0.0821428)
(0.0469051 0.00169105 -0.074356)
(0.118755 -0.0364035 -0.0681096)
(0.162571 -0.0757047 -0.0553001)
(0.232107 -0.0468916 -0.0360912)
(0.203359 -0.00787304 -0.0820195)
(0.352188 -0.0865701 -0.0294397)
(0.258997 0.145681 -0.0491896)
(0.400147 0.0817754 -0.143164)
(0.155588 0.161512 -0.0714283)
(0.432485 0.281572 -0.0583316)
(0.515266 -0.224602 -0.140028)
(0.643343 1.56561 0.111026)
(1.40149 -1.33685 -0.5)
(1.4341 1.94879 -0.23447)
(0.00989445 0.00600306 0.000336589)
(0.0159621 0.00154484 -0.00254819)
(0.022486 0.000143296 -0.00415903)
(0.028447 -0.000153408 -0.00512654)
(0.0343711 -0.00325837 -0.00644081)
(0.0412979 -0.00904786 -0.00525141)
(0.044217 -0.0121106 -0.00534192)
(0.0469706 -0.0109243 -0.00490719)
(0.0495662 -0.0118617 0.00128781)
(0.0474813 -0.0146693 0.00332084)
(0.0507445 -0.0194421 0.00314562)
(0.0462653 -0.0207113 0.00373508)
(0.0387045 -0.017478 0.00521153)
(0.0350563 -0.0107354 0.00608049)
(0.0279827 -0.00232449 0.004202)
(0.032827 -0.00183656 0.00692591)
(0.0263888 0.00123177 0.0105418)
(0.0304328 0.0246028 0.0123546)
(0.0294112 0.050606 0.00984041)
(0.0434225 0.0804779 0.00786958)
(0.063008 0.0847132 0.00436533)
(0.0910312 0.0341056 -0.00577764)
(0.0941231 -0.00506319 -0.00450537)
(0.119642 -0.0407951 -0.0103004)
(0.1361 -0.0895047 -0.0105051)
(0.142363 -0.110623 -0.0253662)
(0.160982 -0.207489 0.0337044)
(0.133065 -0.20246 -0.00164531)
(0.204177 -0.249187 -0.0552549)
(0.137838 -0.230705 0.22096)
(0.253124 -0.209393 -0.105052)
(0.384204 -0.0257139 0.0834984)
(0.0465496 -0.165766 0.267207)
(0.485435 -0.128291 0.163905)
(0.0944994 -0.279976 -0.0994713)
(0.868625 -0.0813321 -0.0385499)
(0.652955 0.921365 0.416056)
(1.21757 -1.79002 -0.488812)
(0.0296736 0.00480062 0.00142213)
(0.0346424 0.00316476 0.000142737)
(0.0386229 0.00243303 -0.000571034)
(0.0440364 0.00143813 -0.00133892)
(0.0483244 0.000859584 -0.0020455)
(0.0546956 -0.000377504 -0.00253713)
(0.0556174 -0.00254426 -0.00226144)
(0.0582086 -0.003309 -0.00303621)
(0.0640613 -0.00285143 -0.000929872)
(0.0631972 -0.00402925 -0.00287504)
(0.0680544 -0.00611412 -0.00428971)
(0.0676831 -0.000987127 -0.00134054)
(0.0726058 0.00191395 0.00446666)
(0.0701024 -0.000390446 0.00597614)
(0.0671946 0.0024416 0.00504405)
(0.0702042 0.00643969 -0.0024998)
(0.060635 0.0164552 0.00794252)
(0.0673943 0.012604 0.0148755)
(0.0666024 0.031803 0.0114239)
(0.0778538 0.0571672 0.00500267)
(0.104384 0.0627872 -0.00280483)
(0.128356 0.0728614 -0.00698554)
(0.145331 0.0648264 -0.0173322)
(0.16547 0.0440851 -0.0215434)
(0.183504 0.0436202 -0.021405)
(0.1847 -0.0148669 -0.0297595)
(0.219522 0.0302257 -0.017105)
(0.182998 -0.0107959 -0.0483218)
(0.157067 -0.0365306 0.00863576)
(0.185855 0.0585522 -0.0565481)
(0.0428492 -0.0178497 0.0348982)
(0.129171 -0.0640143 0.0599294)
(0.0275425 -0.11584 -0.134297)
(0.101597 -0.18252 0.0027306)
(0.0790667 -0.32536 -0.0390335)
(0.340903 0.335526 0.0461079)
(0.96196 0.0887349 0.34313)
(0.0054499 0.318567 0.868366)
(0.0343886 0.00330124 -9.65928e-06)
(0.0376421 0.00239721 -0.000526087)
(0.0402151 0.00124344 -0.00113149)
(0.0442876 8.21848e-05 -0.00139882)
(0.0464748 -0.00197763 -0.00174779)
(0.0516544 -0.00438414 -0.00227389)
(0.0536551 -0.00781625 -0.00159748)
(0.0565298 -0.00873975 -0.00269273)
(0.0604399 -0.0104879 -0.00142857)
(0.0611637 -0.0133578 -0.00196771)
(0.0650633 -0.015205 -0.000886277)
(0.0656698 -0.0129218 0.000458238)
(0.0732818 -0.0137796 -0.00367866)
(0.06814 -0.00579446 -0.00449099)
(0.0835555 -0.00882786 -0.0012183)
(0.0776134 2.381e-05 -0.00375909)
(0.0844011 0.00552702 -0.0115906)
(0.0905124 0.0182365 0.00510181)
(0.0792551 0.0304027 0.0185547)
(0.0977483 0.0374734 0.00907194)
(0.0966153 0.0407475 0.00186833)
(0.107755 0.0354432 0.000139683)
(0.120913 0.0157742 -0.00550225)
(0.132456 -0.018384 -0.0083691)
(0.145505 -0.0124987 -0.0124839)
(0.149664 -0.0763649 -0.00863706)
(0.140633 -0.0648011 -0.0373379)
(0.154037 -0.109153 0.0134661)
(0.124292 -0.129263 -0.0442268)
(0.132129 -0.100894 -0.025782)
(0.15745 -0.204813 -0.00540819)
(0.170518 -0.150733 -0.0941538)
(0.136846 -0.156531 0.0270752)
(0.322401 -0.251107 0.110273)
(-0.00454948 -0.17644 -0.198422)
(0.370654 -0.0728973 0.142986)
(-0.0891809 0.819061 0.338845)
(0.669667 -0.786998 0.224002)
(0.0341746 0.00429411 -0.00126885)
(0.0378747 0.00380218 -0.00157923)
(0.041502 0.00331442 -0.00182296)
(0.0452909 0.0025779 -0.00219253)
(0.0490259 0.00179901 -0.00225885)
(0.0522841 0.000680475 -0.00259599)
(0.0555722 -0.000786398 -0.00247059)
(0.0578449 -0.00179853 -0.00243403)
(0.0601809 -0.00353324 -0.00268442)
(0.0641389 -0.00429325 -0.00206055)
(0.0642422 -0.00469092 -0.00206344)
(0.0679427 -0.00700053 -0.00274235)
(0.0701145 -0.00368945 0.000842532)
(0.0737574 -0.00738835 -0.00191907)
(0.0800894 0.000677337 -0.000497623)
(0.0788649 0.00438963 0.00126441)
(0.0906052 0.00564525 0.000200356)
(0.0883873 0.0238397 -0.000584459)
(0.0942175 0.0328237 0.00533843)
(0.101134 0.0422379 0.00662484)
(0.105975 0.0446644 -0.000356115)
(0.118341 0.0449802 0.00491144)
(0.131301 0.0390209 -0.00469557)
(0.135686 0.0372101 0.00454625)
(0.147728 0.0293231 -0.0198685)
(0.159329 0.0494621 0.0162879)
(0.148283 0.00508451 -0.030636)
(0.169519 0.0247661 0.0174699)
(0.132616 0.0249772 -0.0207908)
(0.157609 -0.0276943 0.0120939)
(0.125257 0.0913674 -0.0175769)
(0.0837523 -0.0896937 0.0425882)
(0.14819 -0.0131406 0.0199769)
(0.093128 0.0202152 -0.0571295)
(-0.123526 -0.0150321 0.0366449)
(-0.0509834 0.16774 0.185146)
(0.00013634 0.339673 0.278443)
(0.366798 0.10916 -0.104682)
(0.0343525 0.00176832 -0.00115663)
(0.0373209 0.00152993 -0.00127588)
(0.039962 0.00103192 -0.00161932)
(0.0433523 -1.16153e-05 -0.00151434)
(0.0460655 -0.00114308 -0.00200557)
(0.0497356 -0.00284026 -0.00177435)
(0.0522337 -0.00501085 -0.0020856)
(0.0559479 -0.00592446 -0.00209436)
(0.0576943 -0.00912282 -0.00166342)
(0.0614311 -0.00921626 -0.00217384)
(0.0645889 -0.0124836 -0.00138869)
(0.0662776 -0.0130695 -0.00103822)
(0.0748551 -0.0128321 -0.00212015)
(0.0762301 -0.012781 -0.00123872)
(0.0860107 -0.0109047 -0.000400203)
(0.0922807 -0.00452424 -0.00310471)
(0.0967718 0.000642668 -0.000562877)
(0.0964917 0.0141389 -2.28954e-05)
(0.102655 0.0241374 -0.000626472)
(0.10724 0.0297258 0.00597866)
(0.117502 0.0370194 -0.00546013)
(0.114983 0.0308783 -0.000523162)
(0.140109 0.0201338 -0.00532723)
(0.127616 0.0202541 0.000339565)
(0.14765 -0.0156281 -0.026094)
(0.136316 0.000296326 -0.0244248)
(0.144816 -0.0320755 -0.0219273)
(0.134555 -0.0183149 -0.0302168)
(0.13966 -0.0524471 -0.0103621)
(0.12132 -0.0641484 -0.0457018)
(0.114609 -0.0457933 -0.00559114)
(0.118909 -0.118109 -0.070334)
(-0.0233894 -0.0132155 -0.0208995)
(0.0778192 -0.0966118 0.0144105)
(-0.0724847 -0.157825 0.0216345)
(-0.0331753 -0.0413199 0.0675166)
(0.24183 0.0052696 0.182396)
(0.278469 0.0331153 0.0425004)
(0.0341935 0.00280469 -0.00159365)
(0.0372184 0.00248913 -0.00172368)
(0.0402196 0.00239091 -0.00190455)
(0.0433675 0.00155871 -0.0020496)
(0.0465753 0.00133562 -0.00217209)
(0.0491615 0.000321942 -0.002406)
(0.052538 -0.00119632 -0.0022699)
(0.0547365 -0.00111994 -0.00269364)
(0.0573179 -0.00451331 -0.00215899)
(0.0603777 -0.00499729 -0.00268217)
(0.0630225 -0.00546611 -0.00188257)
(0.0647787 -0.0122057 -0.00182961)
(0.0733397 -0.00955123 -0.00155329)
(0.0735729 -0.011591 -0.000249588)
(0.0895219 -0.010799 -0.00239942)
(0.0931067 -0.00211602 0.00234309)
(0.104107 0.00474466 0.000115871)
(0.107697 0.0220924 0.00166252)
(0.11097 0.0253063 -0.00265455)
(0.120111 0.0365993 0.00424592)
(0.103632 0.0414145 -0.00296606)
(0.135823 0.0314442 -0.000824201)
(0.0777393 0.0491119 -0.00080392)
(0.149826 0.0251103 0.00808043)
(0.0884182 0.0345974 0.0217079)
(0.107965 0.0459934 0.00565412)
(0.0932021 0.0355654 -0.0131871)
(0.0964403 0.0291869 -0.00625318)
(0.0930506 0.0315052 -0.0212762)
(0.0869346 0.0149929 -0.0038788)
(0.0909195 0.00857935 0.00393619)
(0.0741404 0.0649378 0.0107648)
(-0.00557849 0.0527528 0.0207475)
(0.134831 -0.031973 -0.0355094)
(-0.0865547 0.110727 0.0228447)
(-0.0887048 0.201763 0.0775146)
(0.103929 0.176123 0.262098)
(0.173322 0.443847 0.17829)
(0.0341187 0.00100272 -0.00132349)
(0.0369787 0.000706845 -0.00130913)
(0.0391587 0.000715348 -0.00167335)
(0.0425174 -0.000488983 -0.0013868)
(0.0446554 -0.000496085 -0.00201277)
(0.0480635 -0.00223443 -0.00154385)
(0.0500604 -0.00371561 -0.00182729)
(0.0537643 -0.00329203 -0.00216722)
(0.0542568 -0.00868128 -0.000732123)
(0.0591037 -0.0074378 -0.00255868)
(0.0595848 -0.0113159 -0.000868525)
(0.0643007 -0.0191084 -0.00024881)
(0.0702019 -0.0186674 -0.000676368)
(0.0796162 -0.0268595 -0.00215049)
(0.0979598 -0.0322747 0.00176671)
(0.100692 -0.0203466 -0.000568616)
(0.111064 -0.0135915 0.00023887)
(0.10984 0.00769796 0.00386063)
(0.123386 0.0156909 -0.000526576)
(0.112703 0.0374709 0.00305801)
(0.124857 0.0336746 -0.000371715)
(0.12484 0.0464823 -0.00501178)
(0.112287 0.0344275 0.00198706)
(0.141814 0.0223269 -0.0053573)
(0.130375 0.0335793 -0.0141667)
(0.136197 0.018062 -0.00193203)
(0.123076 0.0161922 0.00185939)
(0.125774 -0.00875686 -0.00742495)
(0.145338 -0.0155982 0.00896424)
(0.100679 -0.0170364 -0.00967002)
(0.168524 -0.0910107 -0.00483055)
(0.092069 -0.0312501 0.0178674)
(0.118254 -0.140577 0.00474052)
(0.223697 -0.180063 0.0572837)
(0.118659 -0.0653677 0.0415384)
(0.113885 -0.0727573 -0.00616777)
(0.0856529 -0.193683 0.097846)
(0.114595 0.100914 0.472506)
(0.0340498 0.00174644 -0.0015311)
(0.0369461 0.00138093 -0.00155657)
(0.0391053 0.0017659 -0.00183335)
(0.0425944 0.000569774 -0.00173394)
(0.0442008 0.00139768 -0.00207838)
(0.0482267 7.71543e-05 -0.00222085)
(0.0488239 -0.00145238 -0.00161522)
(0.0531316 0.00102211 -0.00360298)
(0.0532312 -0.006105 -0.000617606)
(0.0549469 -0.00334955 -0.00327783)
(0.0579204 -0.00645397 -0.00193413)
(0.0564197 -0.0187279 0.000596439)
(0.0589089 -0.0169644 -0.001281)
(0.0755767 -0.0354288 -7.65472e-05)
(0.0877882 -0.0258341 0.00295263)
(0.0943285 -0.00959684 0.00309074)
(0.105134 -0.00670752 0.00821397)
(0.109041 0.00469107 0.0102005)
(0.105366 0.02399 0.00549095)
(0.102809 0.0297685 0.00221218)
(0.108473 0.0408288 0.00047262)
(0.109508 0.0446387 0.00211722)
(0.109592 0.044581 -0.000960306)
(0.105128 0.0321869 0.0310013)
(0.0958505 0.0505003 0.0198543)
(0.0959036 0.0512551 -0.00208134)
(0.0880424 0.0618545 -0.0102202)
(0.112982 0.0542747 -0.0249856)
(0.0838192 0.063659 -0.0134342)
(0.0967471 0.0437581 -0.0118098)
(0.0448142 0.104724 -0.0241194)
(0.0568316 0.0702614 0.0108182)
(0.0337974 0.0911854 -0.00201952)
(-0.0835594 0.130766 0.0282919)
(-0.139101 0.203361 -0.00546057)
(-0.22173 0.401709 -0.0150969)
(-0.360809 0.576043 0.154592)
(-0.0652651 0.872762 0.676534)
(0.0338308 0.000497579 -0.00128326)
(0.0371563 5.4782e-05 -0.00112851)
(0.0379207 0.000637811 -0.0016761)
(0.0435204 -0.000835503 -0.0010099)
(0.041311 0.000133815 -0.00203188)
(0.0501553 -0.00102158 -0.00134371)
(0.0458104 -0.00316932 -0.000883193)
(0.0519798 0.000456706 -0.0037818)
(0.0540765 -0.00833565 0.00181578)
(0.0495692 -0.00445653 -0.00382194)
(0.0567143 -0.0107285 -0.000698795)
(0.0512438 -0.0225051 0.00231163)
(0.0512024 -0.0326835 -0.000440606)
(0.0781248 -0.0632308 0.00129823)
(0.0705579 -0.0638169 0.000405144)
(0.0351476 -0.0518444 -0.00681073)
(0.0035809 -0.0403704 0.00297833)
(-0.00892377 -0.00781997 0.00419186)
(-0.00314529 0.019284 -0.00812852)
(0.00867141 0.0281023 -0.00888844)
(0.0356086 0.0370061 -0.00577317)
(0.0629641 0.041773 -0.00574271)
(0.0765729 0.0476828 -0.0103504)
(0.102932 0.0449562 0.00736058)
(0.116928 0.0411018 0.0256509)
(0.130018 0.0245642 0.0227428)
(0.130217 0.0264508 0.0182702)
(0.147727 0.0176903 0.0112931)
(0.131868 0.0177876 0.00319323)
(0.159041 -0.0110638 0.0165934)
(0.127102 0.00714968 0.00954533)
(0.150781 -0.0913755 0.0136598)
(0.138271 -0.0589722 0.0671721)