/*--------------------------------*- C++ -*----------------------------------*\
| =========                 |                                                 |
| \\      /  F ield         | OpenFOAM: The Open Source CFD Toolbox           |
|  \\    /   O peration     | Version:  2.3.1                                 |
|   \\  /    A nd           | Web:      www.OpenFOAM.org                      |
|    \\/     M anipulation  |                                                 |
\*---------------------------------------------------------------------------*/
FoamFile
{
    version     2.0;
    format      ascii;
    class       volVectorField;
    location    "10";
    object      U_0;
}
// * * * * * * * * * * * * * * * * * * * * * * * * * * * * * * * * * * * * * //

dimensions      [0 1 -1 0 0 0 0];

internalField   nonuniform List<vector> 
38262
(
(-0.056818 -0.0162967 -0.000577523)
(-0.056143 -0.0208611 -0.000900313)
(-0.0494588 -0.0150498 -0.00205526)
(-0.0420412 -0.0112154 0.00168072)
(-0.0524909 -0.0103916 0.00415622)
(-0.0617766 -0.0118745 0.00128541)
(-0.0501694 -0.0122267 0.000981802)
(-0.0509393 -0.00932504 0.00275189)
(-0.0565233 -0.00989917 -0.000623909)
(-0.0454753 -0.00751946 -0.00357032)
(-0.036342 -0.0018317 -0.00229162)
(-0.0355578 0.00183849 -0.00164676)
(-0.0344348 0.00073298 -0.00142139)
(-0.0346318 -0.000907176 -0.00103613)
(-0.0381297 0.000241954 -0.00133883)
(-0.0431861 0.00501803 -0.00159807)
(-0.0614054 0.0134839 -0.00124877)
(-0.0984774 0.0350482 0.00518334)
(-0.1961 0.0713276 0.0120093)
(-0.397128 0.0984158 0.00514721)
(-0.603912 -0.0164392 -0.0118107)
(-0.59329 -0.182408 -0.000725719)
(-0.535214 -0.218963 0.0302071)
(-0.656367 -0.170403 0.0227981)
(-0.699404 -0.197288 -2.48519e-05)
(-0.592541 -0.258482 0.00975134)
(-0.567822 -0.268767 0.0345073)
(-0.627369 -0.299004 0.0302071)
(-0.520221 -0.340389 0.0125262)
(-0.497655 -0.420597 -0.0504431)
(-0.276583 -0.328826 0.0513346)
(-0.351843 -0.343052 -0.000863122)
(-0.190021 -0.492662 0.000465633)
(-0.232612 -0.401224 0.102592)
(-0.350287 -0.451841 -0.0142448)
(0.134507 -0.577049 0.104691)
(0.125044 -0.866616 -0.673367)
(0.59868 0.970427 -0.105372)
(-0.0110345 0.0226057 -0.0120701)
(0.00209606 0.015541 -0.00955176)
(0.00977322 0.00833743 -0.00811689)
(0.0196225 0.00430259 -0.00808521)
(0.0314092 0.00238084 -0.00563229)
(0.0348016 -0.00253183 -0.0027097)
(0.037214 -0.00688652 -0.00113442)
(0.0361121 -0.00588482 0.00321696)
(0.0208534 -0.00132205 0.00494937)
(0.00950573 -0.000620041 0.00399667)
(0.00472664 -0.00328101 0.00341985)
(0.00339941 0.00110716 0.00125192)
(0.00496763 0.00631345 -0.001058)
(0.00900199 0.00978468 -0.00137109)
(0.00398292 0.0128491 -0.000129885)
(0.00834221 0.015391 0.00103516)
(-0.00174333 0.0307 0.000706294)
(-0.00810351 0.0490489 -0.00143953)
(-0.0194356 0.098651 0.00334905)
(-0.0135069 0.150988 -0.0036999)
(0.0107003 0.170933 -0.0199864)
(0.0166768 0.1515 -0.036072)
(0.0414844 0.118489 -0.036029)
(0.039433 0.0944312 -0.051404)
(0.141607 0.0517431 -0.0363133)
(0.21707 0.0436348 -0.0254123)
(0.218327 0.0227216 -0.0433045)
(0.337312 0.0483847 -0.0284558)
(0.343145 -0.0577856 -0.0159992)
(0.532477 0.349587 -0.0834465)
(0.16175 -0.0931296 -0.0052379)
(0.758693 0.0500818 -0.134433)
(0.19568 0.36456 -0.0769334)
(0.682822 0.0855789 0.0826549)
(0.263161 -0.0165919 -0.269818)
(1.04457 0.472959 0.237204)
(-1.79114 2.02167 -0.913359)
(3.84342 -5.21032 -0.899292)
(-0.00951098 0.0160421 -0.000736847)
(-0.00158316 0.0116635 -0.00166531)
(0.00557254 0.00927924 -0.00245134)
(0.0124724 0.00765624 -0.00299291)
(0.0203214 0.00346579 -0.00357363)
(0.029305 -0.00492083 -0.00244669)
(0.0304087 -0.00894796 -0.00314438)
(0.038903 -0.00895795 -0.00182391)
(0.0378624 -0.0116938 0.00274621)
(0.0282777 -0.0168091 0.00278173)
(0.0255915 -0.0197805 0.00226336)
(0.01285 -0.014367 0.00208183)
(0.0100735 -0.00848548 0.001976)
(0.0102224 -0.000161149 0.00135186)
(0.0113925 0.0009786 0.00266249)
(0.018038 0.00205583 0.00551272)
(0.00643978 0.0160066 0.0057157)
(0.0141774 0.0522513 0.00186738)
(0.00163495 0.064507 0.000164709)
(0.0261 0.0982031 2.59704e-05)
(0.0380636 0.0961905 -0.00111614)
(0.0744717 0.0280707 -0.00834939)
(0.0859073 -0.0126943 3.72242e-05)
(0.0983607 -0.00220471 -0.00661254)
(0.127498 -0.118549 0.00252916)
(0.122841 -0.118304 -0.0171932)
(0.153108 -0.153893 0.0325906)
(0.0800055 -0.283863 0.0155276)
(-0.0163322 -0.277934 -0.0388086)
(0.320194 -0.0246433 0.0621363)
(-0.202458 -0.513341 -0.132548)
(0.36243 0.283125 -0.0126099)
(0.163742 -0.231222 0.042263)
(-0.21103 -0.468738 -0.175981)
(-0.116626 -0.0567705 -0.21659)
(0.743928 0.265511 -0.150317)
(0.658464 -0.00270018 0.233665)
(-0.576137 1.78956 -1.94016)
(0.020503 0.0115276 0.00134236)
(0.0246301 0.00973423 0.000757653)
(0.0285353 0.00844412 0.00029199)
(0.0338958 0.00662106 -0.000193391)
(0.0394049 0.0054794 -0.00049646)
(0.0460816 0.00353886 -0.000763679)
(0.0477859 0.000708077 -0.00112366)
(0.05335 -0.000598462 -0.000563591)
(0.0571862 -0.000338056 -3.12456e-05)
(0.0570125 -0.00167652 -0.00275778)
(0.06929 -0.00130213 -0.00167761)
(0.0690125 0.00350493 0.00268623)
(0.0673763 -0.00468763 0.00490055)
(0.051941 -0.00659171 0.00331419)
(0.0512402 -0.00720342 -0.000686196)
(0.0592566 -0.0054655 -0.00316764)
(0.0504913 0.00180833 0.00952193)
(0.0334166 0.022291 0.00873369)
(0.0352478 0.0600043 0.00198196)
(0.0378972 0.0792676 -0.00202648)
(0.0910778 0.082382 -0.0066927)
(0.106861 0.102229 -0.00333838)
(0.119773 0.083592 -0.0119852)
(0.155535 0.0626413 -0.0109155)
(0.167901 0.0324988 -0.000513408)
(0.167492 0.0796961 -0.0236539)
(0.15747 -0.0958925 -0.00124574)
(0.241079 0.126262 -0.0311345)
(0.110144 -0.067825 -6.27249e-05)
(0.151335 -0.134649 -0.0154958)
(0.238094 0.345272 -0.0107056)
(-0.191362 -0.430343 0.0152493)
(0.265938 0.125546 -0.231875)
(0.23075 0.337903 0.0525963)
(0.0285697 -0.167768 -0.116023)
(0.746512 0.0887505 0.040749)
(-0.00568931 0.765573 0.0618204)
(-1.22024 2.15089 -0.905386)
(0.0322564 0.00450491 0.000664276)
(0.0352422 0.00358806 0.000499633)
(0.0375318 0.00217079 0.000261578)
(0.0414399 0.00093525 3.20364e-05)
(0.0437438 -0.00180595 -4.25853e-05)
(0.0483391 -0.00450558 -0.000406435)
(0.051435 -0.00830278 -0.000230904)
(0.0537434 -0.0102749 -0.000436979)
(0.0566665 -0.0123538 -0.000450979)
(0.0595683 -0.0147624 -0.000752138)
(0.0636827 -0.0185818 0.0007644)
(0.0577153 -0.0150542 0.000879927)
(0.0714338 -0.0138544 -0.00577314)
(0.0730915 -0.0044057 -0.00350666)
(0.0941724 -0.0142078 0.00169021)
(0.0575799 0.0138953 -0.00362187)
(0.103129 0.00321205 -0.0124652)
(0.113367 0.0167532 0.0050677)
(0.0630009 0.0384878 0.0135354)
(0.0616351 0.0502355 0.00472799)
(0.048408 0.0694578 -0.000621291)
(0.0729166 0.0531868 0.00078702)
(0.0877917 0.0230759 -0.00566527)
(0.112258 0.0316085 -0.0064073)
(0.115088 -0.0714912 -0.00736917)
(0.134358 0.00778101 -0.00059779)
(0.122699 -0.155636 -0.0385368)
(0.10905 -0.0566385 0.0137488)
(0.151772 -0.179632 -0.0402005)
(0.0617465 -0.0667566 -0.0401835)
(0.178274 -0.208485 0.0528552)
(0.201961 0.0422932 -0.125639)
(0.325469 0.139287 -0.00797558)
(0.21908 -0.410403 0.0744546)
(0.10899 -0.326258 -0.118151)
(0.6447 0.0754545 -0.0591123)
(-0.447809 0.836128 0.0885193)
(-0.906065 1.55569 -0.435378)
(0.0330677 0.00526838 -0.000241172)
(0.0366498 0.00462528 -0.000353816)
(0.0405141 0.00405339 -0.000356907)
(0.0436091 0.00317778 -0.000635796)
(0.0487642 0.00223814 -0.00043657)
(0.0496733 0.00172372 -0.000885848)
(0.0561457 -0.000997147 -0.00053704)
(0.0550409 0.00057191 -0.000824637)
(0.0597539 -0.00337947 -0.000921083)
(0.0635911 -0.00251312 -0.000204985)
(0.0596032 -0.000581399 -0.000889812)
(0.0700799 -0.0066675 -0.00160403)
(0.0670786 0.000785227 0.00296969)
(0.0655068 -0.0100619 -0.00199805)
(0.0840032 0.00665187 0.000305406)
(0.0666436 5.76664e-05 0.0027189)
(0.0921217 0.00243053 0.000931201)
(0.07692 0.0353015 -0.000679802)
(0.0911477 0.035534 0.00582329)
(0.0799613 0.0610308 0.00426391)
(0.0817171 0.0590446 0.00263565)
(0.102221 0.0493003 0.00587553)
(0.111355 0.0530803 -0.00356118)
(0.121999 0.0486036 0.0123079)
(0.107115 0.0447057 -0.0156138)
(0.144637 0.0661217 0.0203316)
(0.09108 0.0636542 -0.019236)
(0.148965 0.0281756 0.0215545)
(0.026418 0.111551 -0.00703996)
(0.143456 -0.015994 0.0108537)
(0.0205605 0.116152 -0.00195877)
(0.139168 -0.116924 0.0295756)
(0.0738293 0.0674917 0.0799791)
(0.337916 0.0636754 -0.09206)
(0.21519 0.126442 -0.0567382)
(-0.0895499 0.318209 0.0849157)
(-0.640774 1.13262 -0.0585081)
(-0.569528 2.13249 -0.449876)
(0.0332354 0.00142276 -0.000320227)
(0.0362598 0.00116695 -0.000320102)
(0.0383937 0.000570127 -0.000511772)
(0.0423582 -0.000540841 -0.000332358)
(0.0434614 -0.00187547 -0.000719196)
(0.0492877 -0.00372603 -0.00036808)
(0.0479067 -0.00632484 -0.000761506)
(0.0562614 -0.00695522 -0.000508671)
(0.0523854 -0.0121272 -0.000601556)
(0.0603514 -0.00915077 -0.000595337)
(0.0625913 -0.0180852 -0.000401394)
(0.0597559 -0.0121653 7.64873e-05)
(0.0760332 -0.0188733 -0.0017309)
(0.0739926 -0.0123909 0.000192522)
(0.0805262 -0.0159895 0.000348304)
(0.0885851 -0.00166792 -0.00330328)
(0.104654 -0.0092946 9.1509e-06)
(0.079945 0.0220598 0.000792762)
(0.107483 0.0157624 -0.00126937)
(0.0976115 0.03255 0.00722237)
(0.100018 0.0488337 -0.00601445)
(0.136461 0.0116942 0.00112553)
(0.118381 0.0302344 0.00141835)
(0.130017 0.0179797 -0.00124298)
(0.140683 -0.0218741 -0.0201418)
(0.181257 -0.0341974 -0.0232656)
(0.208446 -0.0548603 0.00250506)
(0.155073 -0.0746043 -0.0379069)
(0.255404 -0.099262 -0.00721823)
(0.162938 -0.118135 -0.0336481)
(0.27337 -0.154347 -0.028487)
(0.165859 -0.189668 -0.0615878)
(0.216539 -0.225598 -0.0157546)
(0.012352 -0.278164 -0.0155309)
(0.0504618 0.120087 0.00887076)
(-0.158397 0.232349 0.096651)
(-0.30086 0.799002 0.0775116)
(-0.545264 2.3799 -0.420894)
(0.0331084 0.00310974 -0.000538683)
(0.0360403 0.00267769 -0.000593096)
(0.0391388 0.00275957 -0.000625274)
(0.0418492 0.00169501 -0.000751278)
(0.0459209 0.00161588 -0.000641691)
(0.046663 0.0013527 -0.000995105)
(0.0527989 -0.0018665 -0.000600337)
(0.051385 0.00140631 -0.00108476)
(0.0568363 -0.00388097 -0.000666889)
(0.0579798 -0.00580022 -0.00110594)
(0.0618534 0.00236944 -0.000345713)
(0.0590932 -0.0173237 -0.000997889)
(0.0776018 -0.00291733 -0.000750839)
(0.0622696 -0.0111382 0.00117791)
(0.0914141 -0.00578624 -0.00329496)
(0.0928062 -0.00531642 0.00269517)
(0.100369 0.00952398 -0.000675991)
(0.0976236 0.0322392 0.00215166)
(0.11017 0.0234955 -0.00332856)
(0.124423 0.0390605 0.00469645)
(0.0856767 0.049322 -0.00228341)
(0.145113 0.0311652 -0.000622328)
(0.0487456 0.0615266 0.00161778)
(0.140607 0.0242994 0.0141616)
(-0.0130334 0.0828985 0.013379)
(0.0122309 0.0987865 -0.00676297)
(-0.0393376 0.110578 -0.013303)
(-0.0103975 0.118779 -0.0242542)
(-0.0435198 0.123333 -0.0209195)
(-0.0486436 0.13619 -0.0147583)
(-0.114707 0.170258 -0.0268565)
(-0.154284 0.21725 -0.000539347)
(-0.261186 0.271161 -0.074462)
(-0.204048 0.185071 -0.0865528)
(-0.216102 0.25012 0.0507246)
(-0.217052 0.350635 0.0872805)
(-0.226878 0.715568 0.153632)
(-0.621522 3.04778 -0.250726)
(0.0329154 0.000838345 -0.000441906)
(0.0359568 0.000458755 -0.000381596)
(0.0374426 0.000605517 -0.000612719)
(0.04177 -0.000969897 -0.000315234)
(0.041922 -0.000531923 -0.000814721)
(0.04802 -0.00287152 -0.000284507)
(0.0454454 -0.0044808 -0.000666004)
(0.0553522 -0.00267798 -0.000685079)
(0.046849 -0.0122786 0.000201485)
(0.0609386 -0.00529419 -0.0011812)
(0.053489 -0.0149702 0.000135112)
(0.0644867 -0.020771 -3.64661e-05)
(0.0627678 -0.0181161 0.000296927)
(0.0808782 -0.0308459 -0.00180716)
(0.0942349 -0.0340073 0.00126995)
(0.0999413 -0.0231566 -0.000567066)
(0.105232 -0.012604 0.000739821)
(0.106238 0.00556996 0.00158097)
(0.123287 0.00629087 -0.000260877)
(0.109004 0.0353115 0.00324785)
(0.113219 0.0386974 0.000821984)
(0.120341 0.0442428 -0.00422675)
(0.108049 0.0337348 0.00285742)
(0.13827 0.0226093 -0.00328509)
(0.117557 0.0245277 -0.00298096)
(0.16271 0.00139557 -0.00200553)
(0.118173 0.0278582 0.00450921)
(0.13877 -0.00597376 0.00559245)
(0.140171 0.0256442 0.0012949)
(0.120956 -0.0198815 0.00457074)
(0.155492 -0.00484251 0.0137785)
(0.0889569 -0.0924905 0.00145588)
(0.122974 -0.0705664 0.0453403)
(0.0985787 -0.043744 0.00902489)
(-0.014779 -0.0707391 0.00289875)
(-0.0313326 -0.12337 0.00216411)
(-0.1538 -0.0110282 0.136466)
(-0.581857 2.28706 0.0599812)
(0.0329043 0.00199043 -0.00053473)
(0.0358038 0.00148971 -0.000536212)
(0.0377218 0.0022294 -0.000643682)
(0.0415516 0.000474216 -0.00059587)
(0.0420387 0.00194236 -0.00069458)
(0.0482713 0.00110577 -0.000859395)
(0.0442262 -0.00342177 -0.000340554)
(0.0549524 0.00560331 -0.00158148)
(0.0490256 -0.0089241 -3.40505e-05)
(0.052029 -0.00279563 -0.00137837)
(0.0600223 -0.000210077 -0.000911607)
(0.0501474 -0.0226118 2.44675e-05)
(0.0573955 -0.0142859 0.000107545)
(0.0705856 -0.0312473 -0.000127967)
(0.0853883 -0.0219647 0.00053557)
(0.0884367 -0.00610129 0.000518481)
(0.106475 -0.00358682 0.00402344)
(0.104936 0.00417938 0.0039719)
(0.107461 0.0244499 0.00299281)
(0.0878791 0.0288985 -0.000136004)
(0.122772 0.0414444 0.00278161)
(0.0881619 0.0556864 -0.0011827)
(0.129759 0.0393305 0.0039789)
(0.0573509 0.0435092 0.0252132)
(-0.0367452 0.0972508 0.000628319)
(-0.0450117 0.103097 -0.0149963)
(-0.0683595 0.103926 -0.0136674)
(-0.0584547 0.0993617 -0.0255003)
(-0.0560767 0.116071 -0.0220387)
(-0.0571922 0.126268 -0.0286682)
(-0.0635924 0.182317 -0.00747433)
(-0.117807 0.189643 -0.0317095)
(-0.0774466 0.144607 0.00762781)
(-0.258599 0.18761 0.0260956)
(-0.383996 0.351098 -0.0288437)
(-0.448215 0.591956 -0.00757579)
(-0.655132 0.845376 0.132895)
(-0.433887 2.02596 0.319608)
(0.0325953 0.000633803 -0.000426462)
(0.0361167 0.00010634 -0.000378434)
(0.0361919 0.000804406 -0.000528793)
(0.0428557 -0.00055456 -0.000358977)
(0.0383789 -0.000663296 -0.000603585)
(0.0502734 0.00120455 -0.000376165)
(0.0417635 -0.00663748 -0.000324519)
(0.0501077 0.00422708 -0.00124108)
(0.0543338 -0.00923061 0.000909321)
(0.0408124 -0.0051376 -0.00179384)
(0.0580597 -0.00952641 0.000252364)
(0.0484581 -0.0204 0.000745903)
(0.044968 -0.036908 0.00107214)
(0.0698747 -0.0659875 6.2431e-05)
(0.0703231 -0.0623556 -0.00199728)
(0.0397454 -0.0558951 -0.00398565)
(0.012573 -0.0528948 -0.000155537)
(-0.00394876 -0.0184835 0.000953788)
(0.00138571 0.00656856 -0.00310009)
(0.00291099 0.0168136 -0.00464216)
(0.0468737 0.030825 -0.00200834)
(0.0617704 0.0358464 -0.000441573)
(0.0872671 0.0484442 -0.00924312)
(0.123067 0.0450258 0.00772044)
(0.0903515 0.0641328 0.0166978)
(0.0839603 0.0654557 0.0111907)
(0.0647663 0.0807588 0.00790256)
(0.0678774 0.0778671 0.000294252)
(0.058228 0.0805764 -0.000241278)
(0.089474 0.0606489 0.00624202)
(0.0526182 0.100684 0.000296117)
(0.140811 -0.0344078 0.0140468)
(0.0818198 0.0221194 0.0279247)
(-0.00154073 0.0769645 0.0235158)
(0.119902 0.0189234 0.00916381)
(0.18203 -0.0210618 -0.110763)
(0.773677 -0.579915 -0.04994)
(0.0219155 -1.1541 0.17572)
(0.0319292 0.000823441 -0.000383809)
(0.0357815 0.000774774 -0.000243084)
(0.0347493 0.000885999 -0.000691273)
(0.0440182 0.000652104 0.000303231)
(0.0332404 0.000931774 -0.00160364)
(0.0557173 0.000873396 0.0012061)
(0.0302592 -0.000838476 -0.00185878)
(0.0577161 0.00485823 -0.000112235)
(0.0446896 -0.00699712 0.000574403)
(0.0351686 0.00735327 -0.000649385)
(0.0533611 -0.00753793 -3.51787e-05)
(0.0139623 -0.0111283 0.002169)
(0.00817523 -0.0319402 0.00202201)
(-0.0758859 -0.0531788 0.000316865)
(-0.148837 0.0271816 -0.00119076)
(-0.121159 0.0676366 0.0023732)
(-0.143203 0.0242124 0.00274098)
(-0.185937 0.00608225 -0.00495652)
(-0.120605 0.0397524 -0.00198487)
(-0.11874 0.00987746 0.00368857)
(-0.125712 0.0102966 -0.00106353)
(-0.0773325 0.0344058 0.000134196)
(-0.0656625 0.024262 0.00879377)
(-0.0852068 0.0196616 0.013564)
(-0.0951252 0.050306 0.0180841)
(-0.0922228 0.0619364 0.021071)
(-0.117359 0.0740661 0.0253387)
(-0.120333 0.0939455 0.0249849)
(-0.113604 0.0966249 0.0275561)
(-0.163411 0.101176 0.0323988)
(-0.173857 0.128028 0.0377947)
(-0.240432 0.127143 0.0342344)
(-0.33974 0.095149 0.0465184)
(-0.46665 0.0431574 0.0577956)
(-0.716264 0.150982 0.0809656)
(-0.980182 0.708858 0.102746)
(-0.995145 1.63067 0.107468)
(-1.43603 2.53618 0.158185)
(-0.0482812 0.00762572 -0.00625938)
(-0.0391458 -0.0124706 0.00043782)
(-0.0394474 -0.00972718 -0.000315337)
(-0.0375405 -0.00478024 0.00263233)
(-0.0365522 -0.00845394 0.00851881)
(-0.0456947 -0.0125355 0.0058211)
(-0.0397401 -0.0122343 0.00320336)
(-0.0334952 -0.00926774 0.0068989)
(-0.0354851 -0.0116544 0.00394488)
(-0.0292374 -0.0137649 -0.00133147)
(-0.0218579 -0.0109031 -0.000110884)
(-0.0184168 -0.00525966 -0.000796421)
(-0.016589 -0.0014703 -0.00252553)
(-0.0154489 -0.00046171 -0.00217687)
(-0.0168739 -0.000948474 -0.00167747)
(-0.0193189 -0.000253551 0.0010073)
(-0.0335757 0.0064927 0.00353552)
(-0.0658 0.02766 0.01415)
(-0.13895 0.0668084 0.0339443)
(-0.310187 0.116515 0.0363564)
(-0.573887 0.0454912 0.00254765)
(-0.655465 -0.116307 -0.00494198)
(-0.525438 -0.180731 0.0523371)
(-0.531712 -0.137332 0.069321)
(-0.616687 -0.14002 0.0361457)
(-0.573534 -0.196819 0.0442136)
(-0.516643 -0.230458 0.0936083)
(-0.532697 -0.248202 0.0974969)
(-0.494433 -0.26728 0.0699895)
(-0.367712 -0.285633 0.000834376)
(-0.402798 -0.297838 0.113559)
(-0.283072 -0.259597 0.0505507)
(-0.308778 -0.367371 0.0362715)
(-0.190765 -0.352304 0.129422)
(0.024581 -0.268512 0.0971111)
(0.26886 -0.811264 -0.381096)
(0.293248 0.266087 -0.169722)
(-0.908827 -0.961719 1.30522)
(0.00248121 0.0134463 -0.0186664)
(0.0136712 0.00760114 -0.0167494)
(0.0180687 0.00347074 -0.0125341)
(0.0230094 0.0011521 -0.0121256)
(0.0294446 0.00102344 -0.00796644)
(0.0309066 -0.00344223 -0.00261648)
(0.0304369 -0.00733205 -0.0012599)
(0.0347452 -0.00818976 0.00387899)
(0.0341179 -0.00754773 0.00819793)
(0.0296464 -0.00629625 0.00807336)
(0.0268595 -0.00855412 0.00826168)
(0.0252672 -0.00884843 0.00686405)
(0.0241279 -0.00549 0.00331651)
(0.0254566 -0.00132186 0.00152362)
(0.0212639 0.0032092 0.000383723)
(0.0222589 0.00588476 0.0034004)
(0.0161439 0.016379 0.00666873)
(0.012578 0.036454 0.00558156)
(0.00145666 0.0793978 0.0113845)
(0.0105009 0.136402 0.00384105)
(0.0171021 0.166176 -0.0275473)
(-0.000461443 0.13818 -0.0685781)
(-0.0110208 0.0888859 -0.0767516)
(-0.00641469 0.0469626 -0.0822132)
(0.0461211 0.00263478 -0.074472)
(0.118294 -0.0358138 -0.0685309)
(0.162342 -0.0752404 -0.0557294)
(0.231906 -0.0465799 -0.0364696)
(0.203353 -0.00819267 -0.0820609)
(0.352514 -0.0868904 -0.0298957)
(0.259147 0.146362 -0.0496991)
(0.401869 0.0810612 -0.143166)
(0.155433 0.162189 -0.0720814)
(0.434859 0.279903 -0.0575164)
(0.51744 -0.214839 -0.140993)
(0.637506 1.56293 0.111222)
(1.39783 -1.32899 -0.496952)
(1.43993 1.93756 -0.252091)
(0.00989463 0.00600343 0.000343905)
(0.0159586 0.00154596 -0.00254525)
(0.0224823 0.000143523 -0.00415847)
(0.028444 -0.000153866 -0.00512646)
(0.0343694 -0.00325524 -0.00644195)
(0.0412996 -0.00904927 -0.0052531)
(0.0442198 -0.0121144 -0.00534434)
(0.0469768 -0.0109272 -0.00490437)
(0.0495712 -0.01187 0.0012932)
(0.0474935 -0.014687 0.00332193)
(0.0507602 -0.0194664 0.00314295)
(0.0462765 -0.0207359 0.00373383)
(0.0387269 -0.0175031 0.00521014)
(0.0351008 -0.0107729 0.00607257)
(0.0280517 -0.0023909 0.00418985)
(0.0329215 -0.00195352 0.00690817)
(0.0264997 0.00105347 0.0105111)
(0.0305311 0.0243201 0.0123165)
(0.0293999 0.0501728 0.00979666)
(0.0431606 0.0801054 0.00789817)
(0.0626801 0.085112 0.00448395)
(0.0908562 0.0351178 -0.00572732)
(0.0940415 -0.00450227 -0.00448939)
(0.119487 -0.0404274 -0.010196)
(0.135877 -0.0887468 -0.0104732)
(0.142422 -0.11004 -0.0253231)
(0.161149 -0.20743 0.0335278)
(0.133545 -0.202529 -0.00209821)
(0.20407 -0.249484 -0.0543958)
(0.136895 -0.232727 0.220942)
(0.254818 -0.210088 -0.106483)
(0.383596 -0.0260826 0.0853653)
(0.0457973 -0.166975 0.267833)
(0.486446 -0.129486 0.162107)
(0.0971753 -0.276594 -0.0994147)
(0.870329 -0.0840984 -0.037436)
(0.646789 0.92154 0.420758)
(1.23645 -1.79107 -0.487396)
(0.0296744 0.00480345 0.00142208)
(0.0346431 0.0031673 0.000142546)
(0.0386262 0.00243568 -0.000571524)
(0.0440398 0.00144048 -0.00133898)
(0.0483295 0.000862277 -0.00204544)
(0.0547035 -0.00037585 -0.00253751)
(0.0556254 -0.00254439 -0.00226314)
(0.0582231 -0.00330883 -0.00303621)
(0.064074 -0.00285382 -0.000931434)
(0.0632107 -0.00403799 -0.00288173)
(0.0680768 -0.00612153 -0.00429283)
(0.0677095 -0.000995378 -0.0013341)
(0.0726338 0.00188363 0.00447039)
(0.0701257 -0.000442053 0.00597078)
(0.0672351 0.00237747 0.00502208)
(0.070244 0.00634626 -0.00252221)
(0.060675 0.0163064 0.00792762)
(0.0674163 0.0123945 0.0148371)
(0.0665008 0.0315651 0.0114005)
(0.077586 0.0569242 0.0050187)
(0.103928 0.0627544 -0.00270961)
(0.127976 0.0731233 -0.00686414)
(0.145178 0.06513 -0.0173127)
(0.165388 0.0444871 -0.0215504)
(0.183418 0.0439496 -0.0214306)
(0.184854 -0.0143302 -0.0298532)
(0.219712 0.0304044 -0.0171272)
(0.183221 -0.0106991 -0.0482699)
(0.158046 -0.036283 0.00855716)
(0.186145 0.0587223 -0.0569409)
(0.0425622 -0.0180343 0.035276)
(0.13009 -0.0625045 0.0594994)
(0.026157 -0.116749 -0.134725)
(0.100668 -0.183896 0.00213405)
(0.0767355 -0.32692 -0.0379037)
(0.342838 0.338199 0.0477806)
(0.938143 0.084322 0.345628)
(0.0094676 0.304977 0.865886)
(0.0343884 0.00330179 -9.55313e-06)
(0.0376421 0.00239872 -0.000526189)
(0.0402163 0.00124508 -0.00113175)
(0.0442894 8.26587e-05 -0.00139906)
(0.046478 -0.00197721 -0.00174845)
(0.0516601 -0.00438538 -0.00227377)
(0.0536597 -0.00782051 -0.00159844)
(0.0565397 -0.00874476 -0.00269393)
(0.0604503 -0.0104979 -0.00142925)
(0.0611738 -0.0133725 -0.00196936)
(0.0650797 -0.0152196 -0.000885645)
(0.0656908 -0.012943 0.00045174)
(0.073296 -0.0138061 -0.00369251)
(0.0681622 -0.00583437 -0.00449222)
(0.0835901 -0.00888896 -0.00122421)
(0.0776161 -4.8827e-05 -0.00379281)
(0.0844359 0.00541805 -0.0116016)
(0.0904635 0.0181357 0.00512972)
(0.0791794 0.0302867 0.0185383)
(0.0976136 0.0374101 0.00904989)
(0.0963998 0.0408774 0.00189203)
(0.107616 0.0357644 0.000164859)
(0.120836 0.0160808 -0.0054863)
(0.132432 -0.017962 -0.00833965)
(0.145462 -0.0121488 -0.0124042)
(0.149714 -0.0760077 -0.00873563)
(0.1408 -0.0644781 -0.0372418)
(0.154245 -0.109002 0.0133517)
(0.124426 -0.129117 -0.0443721)
(0.132269 -0.101274 -0.0256748)
(0.157183 -0.205115 -0.00533887)
(0.170389 -0.150426 -0.0944755)
(0.137329 -0.156801 0.027698)
(0.321285 -0.250961 0.108971)
(-0.00641455 -0.176317 -0.197453)
(0.367187 -0.0698411 0.145628)
(-0.0925411 0.817095 0.338997)
(0.679295 -0.787225 0.210844)
(0.0341739 0.00429506 -0.00126932)
(0.0378746 0.00380331 -0.00157964)
(0.0415031 0.00331551 -0.00182354)
(0.0452935 0.00257896 -0.00219299)
(0.0490294 0.00179954 -0.00225933)
(0.0522894 0.000680383 -0.00259683)
(0.055579 -0.000787423 -0.00247103)
(0.0578518 -0.00180147 -0.00243553)
(0.060191 -0.00353768 -0.00268572)
(0.0641481 -0.00429986 -0.00206133)
(0.06425 -0.00470315 -0.00206703)
(0.067956 -0.00701569 -0.0027419)
(0.0701244 -0.0037171 0.000840506)
(0.0737722 -0.00742499 -0.00192703)
(0.0800922 0.00063517 -0.000497661)
(0.0788692 0.00430317 0.00126319)
(0.0905961 0.00558178 0.000196094)
(0.0883382 0.0237795 -0.000584626)
(0.0941653 0.0327515 0.00533568)
(0.101021 0.0422026 0.00661231)
(0.105828 0.0446897 -0.000340495)
(0.118197 0.0450546 0.00495075)
(0.131163 0.0391336 -0.00465219)
(0.135594 0.0373697 0.00455895)
(0.147713 0.0295955 -0.0198368)
(0.159383 0.0496347 0.016293)
(0.1484 0.00530215 -0.0306918)
(0.169689 0.0250012 0.0174817)
(0.132796 0.0250425 -0.0208233)
(0.15782 -0.0274049 0.0120649)
(0.125231 0.0914719 -0.0175895)
(0.083911 -0.089653 0.0426429)
(0.148635 -0.0125946 0.0192779)
(0.0929251 0.0202796 -0.0572052)
(-0.125184 -0.0144757 0.0367239)
(-0.0533055 0.166222 0.185367)
(0.00779867 0.320292 0.278478)
(0.367152 0.111142 -0.108484)
(0.0343522 0.0017684 -0.00115665)
(0.0373209 0.00153048 -0.00127609)
(0.0399628 0.00103236 -0.00161943)
(0.0433538 -1.14591e-05 -0.0015147)
(0.0460676 -0.00114355 -0.00200592)
(0.0497388 -0.00284215 -0.00177469)
(0.052238 -0.00501314 -0.00208661)
(0.0559529 -0.0059297 -0.00209483)
(0.0576998 -0.00912881 -0.00166506)
(0.0614392 -0.00922459 -0.0021752)
(0.0645935 -0.0124963 -0.00138963)
(0.0662851 -0.0130807 -0.00104222)
(0.0748565 -0.0128518 -0.00212271)
(0.0762253 -0.0128084 -0.0012386)
(0.0860087 -0.010942 -0.000406599)
(0.0922802 -0.00457504 -0.00311009)
(0.0967539 0.000591708 -0.000560774)
(0.0964679 0.0140872 -2.47119e-05)
(0.102623 0.0240825 -0.000620536)
(0.107199 0.0297112 0.00596836)
(0.117414 0.0370546 -0.00546691)
(0.114955 0.0309641 -0.00049739)
(0.140094 0.0203326 -0.00530393)
(0.127622 0.0204878 0.000315861)
(0.14773 -0.0153947 -0.0261535)
(0.136409 0.000560482 -0.0243972)
(0.144975 -0.0318454 -0.0220049)
(0.134656 -0.0180457 -0.0302382)
(0.139735 -0.0522647 -0.0104444)
(0.121396 -0.0639505 -0.0456602)
(0.114562 -0.0456877 -0.00555909)
(0.118645 -0.118353 -0.0702271)
(-0.0238242 -0.0128025 -0.0209351)
(0.077082 -0.0961463 0.0145681)
(-0.0744053 -0.156972 0.0218966)
(-0.0336939 -0.0422479 0.066119)
(0.237298 -0.00313748 0.182213)
(0.27709 0.026661 0.0550705)
(0.0341933 0.00280485 -0.00159384)
(0.0372186 0.00248954 -0.00172394)
(0.0402203 0.00239102 -0.00190487)
(0.0433692 0.00155886 -0.00204998)
(0.0465773 0.00133557 -0.00217267)
(0.0491647 0.000320558 -0.0024066)
(0.052542 -0.00119685 -0.00227083)
(0.0547405 -0.00112285 -0.00269475)
(0.0573235 -0.00451772 -0.00216071)
(0.0603835 -0.00499911 -0.00268379)
(0.0630255 -0.00547628 -0.00188426)
(0.0647849 -0.0122155 -0.00183285)
(0.0733398 -0.00956138 -0.00155437)
(0.0735666 -0.0116171 -0.000254579)
(0.0895138 -0.0108461 -0.00240109)
(0.0930871 -0.00215914 0.00234545)
(0.104089 0.0047198 0.000110177)
(0.107672 0.022046 0.00165813)
(0.110972 0.02526 -0.00264549)
(0.120051 0.0366174 0.00424839)
(0.103619 0.0414193 -0.0029697)
(0.135744 0.0315376 -0.000813159)
(0.0776894 0.0492255 -0.000764509)
(0.14985 0.0251537 0.00811193)
(0.0883195 0.0347344 0.0217213)
(0.108003 0.0461465 0.00561805)
(0.0932431 0.0357019 -0.0131947)
(0.0965752 0.0293862 -0.00626783)
(0.0931791 0.0317031 -0.0213406)
(0.0871096 0.0151922 -0.00388085)
(0.0909708 0.00896563 0.00385648)
(0.0740652 0.065405 0.010767)
(-0.00574761 0.053383 0.0211451)
(0.134662 -0.0315969 -0.0353797)
(-0.0868541 0.109988 0.0226879)
(-0.0891146 0.20033 0.0766025)
(0.0904236 0.169898 0.261317)
(0.171579 0.431882 0.201421)
(0.0341186 0.0010028 -0.00132356)
(0.0369786 0.000707275 -0.00130942)
(0.0391593 0.000715237 -0.00167344)
(0.0425184 -0.000488822 -0.00138722)
(0.0446567 -0.000496357 -0.00201317)
(0.0480655 -0.00223648 -0.00154421)
(0.0500633 -0.00371524 -0.00182887)
(0.0537669 -0.00329637 -0.00216726)
(0.0542606 -0.00868384 -0.000734243)
(0.0591086 -0.00743698 -0.00256065)
(0.0595852 -0.0113226 -0.000868391)
(0.0642987 -0.0191066 -0.000251542)
(0.0701937 -0.0186658 -0.000680708)
(0.0795892 -0.0268769 -0.00214885)
(0.0979324 -0.0323073 0.00177064)
(0.100692 -0.020379 -0.00057296)
(0.111054 -0.0136348 0.000238518)
(0.109831 0.00762478 0.00385898)
(0.123386 0.0156663 -0.000517176)
(0.112679 0.0374654 0.00305776)
(0.12488 0.0336918 -0.000382285)
(0.12476 0.0465499 -0.00500112)
(0.112352 0.0344614 0.00199324)
(0.141859 0.0224424 -0.00536558)
(0.130431 0.0337303 -0.0141537)
(0.13629 0.0182258 -0.00189685)
(0.123188 0.016379 0.00181201)
(0.126004 -0.00857819 -0.00744216)
(0.145486 -0.0153489 0.00892389)
(0.100864 -0.0168572 -0.0097881)
(0.168794 -0.0907778 -0.00484456)
(0.0918146 -0.0306228 0.0176511)
(0.118081 -0.140124 0.00479187)
(0.223118 -0.179229 0.0578867)
(0.11718 -0.0635579 0.0418114)
(0.112471 -0.0689456 -0.00698522)
(0.0789125 -0.187328 0.0920734)
(0.122974 0.0777475 0.475244)
(0.0340498 0.00174621 -0.00153118)
(0.036946 0.00138114 -0.00155683)
(0.039106 0.00176546 -0.00183349)
(0.0425952 0.000569771 -0.00173431)
(0.0442024 0.00139782 -0.00207906)
(0.0482287 7.46509e-05 -0.00222089)
(0.0488264 -0.00145021 -0.00161735)
(0.0531365 0.00101915 -0.00360287)
(0.0532336 -0.00610711 -0.000619417)
(0.0549565 -0.00334389 -0.00328276)
(0.0579252 -0.00645729 -0.00193388)
(0.0564202 -0.0187234 0.000593616)
(0.0589145 -0.0169431 -0.00128594)
(0.0755379 -0.035438 -7.87458e-05)
(0.0877476 -0.0259208 0.00295117)
(0.0943196 -0.00960858 0.0030856)
(0.105134 -0.0067201 0.00821313)
(0.109031 0.0046185 0.010201)
(0.105347 0.0239701 0.00548677)
(0.102808 0.0297713 0.00221369)
(0.108443 0.0408484 0.000482284)
(0.10951 0.0446707 0.00212565)
(0.109594 0.0446284 -0.000941901)
(0.105133 0.0322758 0.0310212)
(0.0959113 0.0505954 0.0198441)
(0.0959388 0.0513811 -0.00207714)
(0.0881996 0.0619688 -0.0102339)
(0.113134 0.0544374 -0.0250009)
(0.0840013 0.0638562 -0.0134629)
(0.096987 0.0440088 -0.0119152)
(0.0450493 0.105225 -0.0241814)
(0.0573301 0.0707887 0.010757)
(0.0343789 0.0919238 -0.00242048)
(-0.0821288 0.13092 0.0279663)
(-0.137189 0.201747 -0.00575796)
(-0.217132 0.396549 -0.0165589)
(-0.348293 0.566169 0.145076)
(-0.0607527 0.851212 0.656223)
(0.0338311 0.000497526 -0.0012833)
(0.0371556 5.53083e-05 -0.00112895)
(0.0379221 0.000637451 -0.00167607)
(0.0435198 -0.00083531 -0.0010105)
(0.0413128 0.000134321 -0.00203259)
(0.0501577 -0.0010242 -0.00134318)
(0.0458089 -0.00316653 -0.000886739)
(0.05199 0.000454444 -0.00378027)
(0.0540747 -0.00833624 0.00181373)
(0.0495778 -0.00444879 -0.00382808)
(0.0567213 -0.0107251 -0.000696237)
(0.0512497 -0.0224945 0.00230954)
(0.0511814 -0.0326384 -0.00044664)
(0.0780844 -0.0632101 0.00130242)
(0.0705943 -0.0638844 0.000430745)
(0.0352254 -0.0518914 -0.00682012)
(0.0035909 -0.0404303 0.0029389)
(-0.00895042 -0.00790121 0.00419954)
(-0.00318595 0.0192598 -0.00811882)
(0.00860651 0.028107 -0.008898)
(0.0355425 0.0370025 -0.00575585)
(0.0629409 0.0417931 -0.00574259)
(0.0765505 0.0477222 -0.0103526)
(0.102953 0.0449936 0.00738699)
(0.116979 0.0411349 0.0256881)
(0.130127 0.02463 0.0227644)
(0.130401 0.0265425 0.0183031)
(0.14796 0.0178206 0.011322)
(0.132181 0.0179505 0.00318367)
(0.159506 -0.0108853 0.0165855)
(0.127491 0.0074791 0.00943285)
(0.151482 -0.0911098 0.0136629)
(0.138243 -0.0583544 0.0673582)