/*--------------------------------*- C++ -*----------------------------------*\
| =========                 |                                                 |
| \\      /  F ield         | OpenFOAM: The Open Source CFD Toolbox           |
|  \\    /   O peration     | Version:  2.3.1                                 |
|   \\  /    A nd           | Web:      www.OpenFOAM.org                      |
|    \\/     M anipulation  |                                                 |
\*---------------------------------------------------------------------------*/
FoamFile
{
    version     2.0;
    format      ascii;
    class       volScalarField;
    location    "5";
    object      epsilon_0;
}
// * * * * * * * * * * * * * * * * * * * * * * * * * * * * * * * * * * * * * //

dimensions      [0 2 -3 0 0 0 0];

internalField   nonuniform List<scalar> 
37692
(
2.07005e-06
2.07e-06
2.06998e-06
2.06998e-06
2.07e-06
2.07005e-06
2.07012e-06
2.07022e-06
2.07036e-06
2.07055e-06
2.07077e-06
2.07102e-06
2.07132e-06
2.07165e-06
2.07203e-06
2.07244e-06
2.0729e-06
2.0734e-06
2.07396e-06
2.07458e-06
2.07525e-06
2.07598e-06
2.07677e-06
2.07763e-06
2.07857e-06
2.0796e-06
2.08072e-06
2.08194e-06
2.08326e-06
2.08469e-06
2.08622e-06
2.08786e-06
2.08963e-06
2.09154e-06
2.0936e-06
2.09583e-06
2.09824e-06
2.10086e-06
2.6502e-06
2.65019e-06
2.65021e-06
2.65026e-06
2.65033e-06
2.65043e-06
2.65056e-06
2.65076e-06
2.65101e-06
2.65132e-06
2.65167e-06
2.65207e-06
2.65252e-06
2.65302e-06
2.65357e-06
2.65417e-06
2.65483e-06
2.65557e-06
2.65638e-06
2.65726e-06
2.65822e-06
2.65924e-06
2.66035e-06
2.66156e-06
2.66288e-06
2.66432e-06
2.66589e-06
2.66759e-06
2.66944e-06
2.67143e-06
2.67356e-06
2.67585e-06
2.67831e-06
2.68098e-06
2.68387e-06
2.687e-06
2.69039e-06
2.69407e-06
2.82031e-06
2.82032e-06
2.82036e-06
2.82043e-06
2.82052e-06
2.82064e-06
2.8208e-06
2.82102e-06
2.82129e-06
2.82162e-06
2.822e-06
2.82243e-06
2.82291e-06
2.82345e-06
2.82404e-06
2.82468e-06
2.82538e-06
2.82615e-06
2.82701e-06
2.82792e-06
2.8289e-06
2.82995e-06
2.83109e-06
2.83234e-06
2.83371e-06
2.8352e-06
2.83683e-06
2.83859e-06
2.8405e-06
2.84256e-06
2.84475e-06
2.8471e-06
2.84963e-06
2.85238e-06
2.85537e-06
2.85861e-06
2.86212e-06
2.86593e-06
2.8574e-06
2.85742e-06
2.85747e-06
2.85755e-06
2.85765e-06
2.85778e-06
2.85795e-06
2.85817e-06
2.85845e-06
2.85877e-06
2.85915e-06
2.85958e-06
2.86007e-06
2.86063e-06
2.86123e-06
2.86189e-06
2.8626e-06
2.86339e-06
2.86424e-06
2.86514e-06
2.86611e-06
2.86714e-06
2.86827e-06
2.86953e-06
2.87092e-06
2.87243e-06
2.87408e-06
2.87586e-06
2.87779e-06
2.87985e-06
2.88204e-06
2.8844e-06
2.88694e-06
2.8897e-06
2.89271e-06
2.89596e-06
2.89949e-06
2.90332e-06
2.86386e-06
2.86387e-06
2.86392e-06
2.86401e-06
2.86412e-06
2.86426e-06
2.86444e-06
2.86466e-06
2.86492e-06
2.86523e-06
2.8656e-06
2.86603e-06
2.86653e-06
2.86709e-06
2.8677e-06
2.86837e-06
2.86909e-06
2.86987e-06
2.87071e-06
2.8716e-06
2.87254e-06
2.87356e-06
2.87469e-06
2.87595e-06
2.87734e-06
2.87886e-06
2.88051e-06
2.8823e-06
2.88423e-06
2.88628e-06
2.88848e-06
2.89083e-06
2.89338e-06
2.89614e-06
2.89914e-06
2.90239e-06
2.90591e-06
2.90974e-06
2.86479e-06
2.86481e-06
2.86486e-06
2.86495e-06
2.86508e-06
2.86523e-06
2.86541e-06
2.86562e-06
2.86587e-06
2.86617e-06
2.86653e-06
2.86696e-06
2.86747e-06
2.86803e-06
2.86865e-06
2.86931e-06
2.87004e-06
2.87081e-06
2.87164e-06
2.87252e-06
2.87344e-06
2.87446e-06
2.87558e-06
2.87684e-06
2.87823e-06
2.87975e-06
2.8814e-06
2.88319e-06
2.88511e-06
2.88716e-06
2.88936e-06
2.89172e-06
2.89427e-06
2.89704e-06
2.90003e-06
2.90327e-06
2.90678e-06
2.9106e-06
2.86478e-06
2.86481e-06
2.86488e-06
2.86498e-06
2.8651e-06
2.86526e-06
2.86544e-06
2.86565e-06
2.86589e-06
2.86618e-06
2.86654e-06
2.86698e-06
2.86749e-06
2.86805e-06
2.86866e-06
2.86933e-06
2.87004e-06
2.87081e-06
2.87164e-06
2.87251e-06
2.87343e-06
2.87444e-06
2.87557e-06
2.87683e-06
2.87821e-06
2.87973e-06
2.88137e-06
2.88315e-06
2.88506e-06
2.88711e-06
2.88931e-06
2.89169e-06
2.89425e-06
2.89701e-06
2.89999e-06
2.90323e-06
2.90674e-06
2.91056e-06
2.86388e-06
2.86396e-06
2.86406e-06
2.86419e-06
2.86435e-06
2.86454e-06
2.86474e-06
2.86498e-06
2.86528e-06
2.86565e-06
2.8661e-06
2.86661e-06
2.86716e-06
2.86775e-06
2.8684e-06
2.86911e-06
2.86987e-06
2.8707e-06
2.87157e-06
2.8725e-06
2.87352e-06
2.87464e-06
2.87589e-06
2.87727e-06
2.87878e-06
2.88042e-06
2.88218e-06
2.88409e-06
2.88614e-06
2.88835e-06
2.89074e-06
2.8933e-06
2.89606e-06
2.89904e-06
2.90227e-06
2.90578e-06
2.9096e-06
2.85742e-06
2.85751e-06
2.85762e-06
2.85775e-06
2.8579e-06
2.85809e-06
2.8583e-06
2.85855e-06
2.85886e-06
2.85925e-06
2.8597e-06
2.8602e-06
2.86074e-06
2.86132e-06
2.86194e-06
2.86264e-06
2.8634e-06
2.86422e-06
2.86509e-06
2.86603e-06
2.86706e-06
2.86819e-06
2.86943e-06
2.8708e-06
2.8723e-06
2.87393e-06
2.87569e-06
2.87759e-06
2.87964e-06
2.88185e-06
2.88424e-06
2.88681e-06
2.88957e-06
2.89255e-06
2.89579e-06
2.89929e-06
2.90311e-06
2.82031e-06
2.8204e-06
2.8205e-06
2.82062e-06
2.82077e-06
2.82096e-06
2.82118e-06
2.82144e-06
2.82176e-06
2.82214e-06
2.82258e-06
2.82307e-06
2.82359e-06
2.82415e-06
2.82476e-06
2.82544e-06
2.82618e-06
2.82699e-06
2.82786e-06
2.82881e-06
2.82984e-06
2.83097e-06
2.8322e-06
2.83356e-06
2.83504e-06
2.83665e-06
2.8384e-06
2.84028e-06
2.84231e-06
2.84451e-06
2.84689e-06
2.84945e-06
2.85222e-06
2.85519e-06
2.85841e-06
2.8619e-06
2.86569e-06
2.65014e-06
2.65021e-06
2.65029e-06
2.65039e-06
2.65052e-06
2.65069e-06
2.6509e-06
2.65115e-06
2.65145e-06
2.65181e-06
2.65222e-06
2.65267e-06
2.65317e-06
2.6537e-06
2.65429e-06
2.65493e-06
2.65563e-06
2.65641e-06
2.65725e-06
2.65818e-06
2.65919e-06
2.66029e-06
2.66148e-06
2.66279e-06
2.66421e-06
2.66576e-06
2.66745e-06
2.66927e-06
2.67123e-06
2.67336e-06
2.67566e-06
2.67815e-06
2.68084e-06
2.68373e-06
2.68685e-06
2.69023e-06
2.69389e-06
2.06994e-06
2.06994e-06
2.06997e-06
2.07001e-06
2.07007e-06
2.07016e-06
2.07028e-06
2.07043e-06
2.07061e-06
2.07084e-06
2.0711e-06
2.07141e-06
2.07175e-06
2.07213e-06
2.07254e-06
2.073e-06
2.0735e-06
2.07405e-06
2.07465e-06
2.0753e-06
2.07602e-06
2.07681e-06
2.07766e-06
2.07858e-06
2.0796e-06
2.0807e-06
2.0819e-06
2.0832e-06
2.08461e-06
2.08613e-06
2.08778e-06
2.08956e-06
2.09148e-06
2.09354e-06
2.09578e-06
2.09819e-06
2.1008e-06
1.91692e-06
1.91689e-06
1.91688e-06
1.91687e-06
1.91688e-06
1.9169e-06
1.91693e-06
1.91698e-06
1.91705e-06
1.91715e-06
1.91727e-06
1.9174e-06
1.91756e-06
1.91773e-06
1.91793e-06
1.91814e-06
1.91837e-06
1.91864e-06
1.91892e-06
1.91924e-06
1.91958e-06
1.91995e-06
1.92036e-06
1.9208e-06
1.92128e-06
1.92181e-06
1.92239e-06
1.92301e-06
1.92369e-06
1.92442e-06
1.92521e-06
1.92605e-06
1.92696e-06
1.92795e-06
1.92901e-06
1.93016e-06
1.93141e-06
1.93276e-06
1.49754e-06
1.4975e-06
1.49746e-06
1.49743e-06
1.49741e-06
1.49739e-06
1.49737e-06
1.49735e-06
1.49733e-06
1.49731e-06
1.4973e-06
1.4973e-06
1.49731e-06
1.49732e-06
1.49734e-06
1.49736e-06
1.49739e-06
1.49742e-06
1.49745e-06
1.49749e-06
1.49754e-06
1.4976e-06
1.49766e-06
1.49772e-06
1.49779e-06
1.49787e-06
1.49796e-06
1.49806e-06
1.49817e-06
1.49829e-06
1.49842e-06
1.49856e-06
1.49872e-06
1.49888e-06
1.49906e-06
1.49925e-06
1.49945e-06
1.49968e-06
1.41423e-06
1.41418e-06
1.41414e-06
1.4141e-06
1.41407e-06
1.41405e-06
1.41402e-06
1.414e-06
1.41397e-06
1.41395e-06
1.41394e-06
1.41393e-06
1.41392e-06
1.41392e-06
1.41393e-06
1.41394e-06
1.41396e-06
1.41398e-06
1.414e-06
1.41403e-06
1.41407e-06
1.41411e-06
1.41416e-06
1.4142e-06
1.41426e-06
1.41432e-06
1.41439e-06
1.41446e-06
1.41455e-06
1.41464e-06
1.41475e-06
1.41487e-06
1.41499e-06
1.41513e-06
1.41527e-06
1.41542e-06
1.41558e-06
1.41576e-06
1.39383e-06
1.39378e-06
1.39374e-06
1.3937e-06
1.39367e-06
1.39364e-06
1.39362e-06
1.39359e-06
1.39357e-06
1.39355e-06
1.39353e-06
1.39352e-06
1.39351e-06
1.39351e-06
1.39351e-06
1.39352e-06
1.39354e-06
1.39356e-06
1.39358e-06
1.39362e-06
1.39365e-06
1.3937e-06
1.39374e-06
1.39378e-06
1.39383e-06
1.39389e-06
1.39395e-06
1.39402e-06
1.39411e-06
1.3942e-06
1.39431e-06
1.39442e-06
1.39455e-06
1.39468e-06
1.39481e-06
1.39496e-06
1.39512e-06
1.39529e-06
1.38965e-06
1.3896e-06
1.38956e-06
1.38952e-06
1.38948e-06
1.38946e-06
1.38943e-06
1.38941e-06
1.38939e-06
1.38937e-06
1.38936e-06
1.38934e-06
1.38933e-06
1.38933e-06
1.38933e-06
1.38934e-06
1.38936e-06
1.38938e-06
1.38941e-06
1.38944e-06
1.38948e-06
1.38953e-06
1.38957e-06
1.38961e-06
1.38966e-06
1.38971e-06
1.38977e-06
1.38984e-06
1.38993e-06
1.39002e-06
1.39013e-06
1.39025e-06
1.39037e-06
1.3905e-06
1.39063e-06
1.39078e-06
1.39094e-06
1.39111e-06
1.38895e-06
1.3889e-06
1.38886e-06
1.38882e-06
1.38879e-06
1.38876e-06
1.38874e-06
1.38872e-06
1.3887e-06
1.38869e-06
1.38867e-06
1.38866e-06
1.38865e-06
1.38864e-06
1.38865e-06
1.38866e-06
1.38867e-06
1.3887e-06
1.38873e-06
1.38876e-06
1.38881e-06
1.38885e-06
1.3889e-06
1.38894e-06
1.38898e-06
1.38904e-06
1.3891e-06
1.38917e-06
1.38925e-06
1.38935e-06
1.38945e-06
1.38957e-06
1.38969e-06
1.38982e-06
1.38996e-06
1.3901e-06
1.39026e-06
1.39044e-06
1.38894e-06
1.38889e-06
1.38885e-06
1.38881e-06
1.38878e-06
1.38875e-06
1.38873e-06
1.38871e-06
1.3887e-06
1.38869e-06
1.38867e-06
1.38866e-06
1.38865e-06
1.38864e-06
1.38865e-06
1.38866e-06
1.38868e-06
1.3887e-06
1.38873e-06
1.38877e-06
1.38882e-06
1.38886e-06
1.3889e-06
1.38894e-06
1.38899e-06
1.38904e-06
1.38911e-06
1.38918e-06
1.38926e-06
1.38936e-06
1.38946e-06
1.38957e-06
1.38969e-06
1.38982e-06
1.38996e-06
1.39011e-06
1.39027e-06
1.39044e-06
1.38957e-06
1.38953e-06
1.38949e-06
1.38946e-06
1.38943e-06
1.38941e-06
1.38939e-06
1.38938e-06
1.38937e-06
1.38935e-06
1.38934e-06
1.38933e-06
1.38933e-06
1.38934e-06
1.38935e-06
1.38937e-06
1.38939e-06
1.38942e-06
1.38946e-06
1.3895e-06
1.38955e-06
1.38959e-06
1.38964e-06
1.38968e-06
1.38974e-06
1.3898e-06
1.38987e-06
1.38996e-06
1.39005e-06
1.39015e-06
1.39026e-06
1.39038e-06
1.39051e-06
1.39065e-06
1.3908e-06
1.39096e-06
1.39113e-06
1.39374e-06
1.3937e-06
1.39366e-06
1.39363e-06
1.39361e-06
1.39359e-06
1.39357e-06
1.39355e-06
1.39354e-06
1.39352e-06
1.39351e-06
1.39351e-06
1.39351e-06
1.39352e-06
1.39354e-06
1.39356e-06
1.39358e-06
1.39361e-06
1.39365e-06
1.39369e-06
1.39373e-06
1.39378e-06
1.39382e-06
1.39387e-06
1.39393e-06
1.39399e-06
1.39407e-06
1.39415e-06
1.39424e-06
1.39434e-06
1.39445e-06
1.39457e-06
1.3947e-06
1.39484e-06
1.39499e-06
1.39515e-06
1.39532e-06
1.41414e-06
1.41409e-06
1.41406e-06
1.41403e-06
1.41401e-06
1.41399e-06
1.41397e-06
1.41395e-06
1.41393e-06
1.41392e-06
1.41391e-06
1.41391e-06
1.41392e-06
1.41394e-06
1.41396e-06
1.41398e-06
1.41401e-06
1.41404e-06
1.41407e-06
1.41411e-06
1.41416e-06
1.4142e-06
1.41425e-06
1.41431e-06
1.41437e-06
1.41443e-06
1.41451e-06
1.4146e-06
1.41469e-06
1.41479e-06
1.4149e-06
1.41502e-06
1.41516e-06
1.4153e-06
1.41546e-06
1.41562e-06
1.4158e-06
1.49746e-06
1.49742e-06
1.4974e-06
1.49738e-06
1.49736e-06
1.49734e-06
1.49732e-06
1.49731e-06
1.4973e-06
1.4973e-06
1.4973e-06
1.49731e-06
1.49732e-06
1.49735e-06
1.49738e-06
1.49741e-06
1.49744e-06
1.49748e-06
1.49753e-06
1.49758e-06
1.49763e-06
1.49769e-06
1.49776e-06
1.49783e-06
1.49791e-06
1.498e-06
1.49809e-06
1.4982e-06
1.49832e-06
1.49845e-06
1.49858e-06
1.49873e-06
1.4989e-06
1.49908e-06
1.49927e-06
1.49948e-06
1.4997e-06
1.91687e-06
1.91687e-06
1.91687e-06
1.91689e-06
1.91692e-06
1.91696e-06
1.91702e-06
1.91709e-06
1.91719e-06
1.91731e-06
1.91745e-06
1.91761e-06
1.91779e-06
1.91798e-06
1.91819e-06
1.91842e-06
1.91868e-06
1.91896e-06
1.91927e-06
1.9196e-06
1.91997e-06
1.92038e-06
1.92082e-06
1.9213e-06
1.92182e-06
1.92239e-06
1.92301e-06
1.92368e-06
1.9244e-06
1.92519e-06
1.92603e-06
1.92695e-06
1.92793e-06
1.929e-06
1.93015e-06
1.93139e-06
1.93274e-06
2.14129e-06
2.14126e-06
2.14124e-06
2.14123e-06
2.14123e-06
2.14125e-06
2.14128e-06
2.14133e-06
2.1414e-06
2.1415e-06
2.14162e-06
2.14176e-06
2.14192e-06
2.1421e-06
2.1423e-06
2.14251e-06
2.14275e-06
2.14302e-06
2.14331e-06
2.14363e-06
2.14398e-06
2.14435e-06
2.14476e-06
2.1452e-06
2.14569e-06
2.14622e-06
2.1468e-06
2.14743e-06
2.14811e-06
2.14885e-06
2.14964e-06
2.1505e-06
2.15141e-06
2.15241e-06
2.15348e-06
2.15465e-06
2.15591e-06
2.15729e-06
1.1973e-06
1.19727e-06
1.19725e-06
1.19723e-06
1.19721e-06
1.19719e-06
1.19718e-06
1.19715e-06
1.19711e-06
1.19708e-06
1.19706e-06
1.19704e-06
1.19702e-06
1.197e-06
1.19699e-06
1.19698e-06
1.19696e-06
1.19695e-06
1.19694e-06
1.19693e-06
1.19692e-06
1.19691e-06
1.19691e-06
1.1969e-06
1.19689e-06
1.19688e-06
1.19688e-06
1.19687e-06
1.19687e-06
1.19687e-06
1.19687e-06
1.19688e-06
1.19688e-06
1.19688e-06
1.19689e-06
1.19689e-06
1.19689e-06
1.19689e-06
1.00477e-06
1.00474e-06
1.00471e-06
1.00468e-06
1.00466e-06
1.00463e-06
1.00461e-06
1.00458e-06
1.00454e-06
1.00451e-06
1.00447e-06
1.00444e-06
1.00441e-06
1.00437e-06
1.00434e-06
1.00431e-06
1.00428e-06
1.00425e-06
1.00422e-06
1.00418e-06
1.00415e-06
1.00412e-06
1.00409e-06
1.00405e-06
1.00401e-06
1.00396e-06
1.00392e-06
1.00387e-06
1.00382e-06
1.00377e-06
1.00372e-06
1.00367e-06
1.00361e-06
1.00355e-06
1.00348e-06
1.0034e-06
1.00331e-06
1.00322e-06
9.56269e-07
9.56235e-07
9.56203e-07
9.56173e-07
9.56145e-07
9.56117e-07
9.56088e-07
9.56057e-07
9.56022e-07
9.55988e-07
9.55952e-07
9.55916e-07
9.55879e-07
9.55842e-07
9.55807e-07
9.55773e-07
9.55739e-07
9.55704e-07
9.5567e-07
9.55636e-07
9.55605e-07
9.55572e-07
9.55533e-07
9.55488e-07
9.55438e-07
9.55386e-07
9.55331e-07
9.55274e-07
9.55216e-07
9.55158e-07
9.55101e-07
9.55041e-07
9.54974e-07
9.54899e-07
9.54815e-07
9.54723e-07
9.54623e-07
9.54515e-07
9.45379e-07
9.45345e-07
9.45313e-07
9.45281e-07
9.45251e-07
9.45222e-07
9.45192e-07
9.45162e-07
9.45131e-07
9.45098e-07
9.45063e-07
9.45026e-07
9.44987e-07
9.44948e-07
9.44911e-07
9.44876e-07
9.44841e-07
9.44807e-07
9.44775e-07
9.44745e-07
9.44716e-07
9.44683e-07
9.44643e-07
9.44596e-07
9.44543e-07
9.44487e-07
9.44429e-07
9.4437e-07
9.4431e-07
9.44251e-07
9.44192e-07
9.4413e-07
9.4406e-07
9.43982e-07
9.43896e-07
9.43802e-07
9.43699e-07
9.43588e-07
9.43384e-07
9.4335e-07
9.43317e-07
9.43285e-07
9.43254e-07
9.43224e-07
9.43195e-07
9.43167e-07
9.43139e-07
9.43108e-07
9.43074e-07
9.43036e-07
9.42997e-07
9.42958e-07
9.42921e-07
9.42885e-07
9.42851e-07
9.42819e-07
9.42789e-07
9.42761e-07
9.42734e-07
9.42702e-07
9.42662e-07
9.42614e-07
9.42561e-07
9.42504e-07
9.42445e-07
9.42386e-07
9.42326e-07
9.42267e-07
9.42206e-07
9.42142e-07
9.42071e-07
9.41994e-07
9.41908e-07
9.41815e-07
9.41713e-07
9.416e-07
9.43381e-07
9.43344e-07
9.4331e-07
9.43277e-07
9.43245e-07
9.43216e-07
9.43188e-07
9.43162e-07
9.43135e-07
9.43106e-07
9.43071e-07
9.43033e-07
9.42994e-07
9.42956e-07
9.42921e-07
9.42887e-07
9.42855e-07
9.42823e-07
9.42794e-07
9.42768e-07
9.42741e-07
9.42708e-07
9.42668e-07
9.42621e-07
9.42568e-07
9.42512e-07
9.42454e-07
9.42396e-07
9.42337e-07
9.42277e-07
9.42215e-07
9.42148e-07
9.42077e-07
9.42e-07
9.41916e-07
9.41824e-07
9.41722e-07
9.41608e-07
9.45329e-07
9.45292e-07
9.45259e-07
9.45228e-07
9.45199e-07
9.45172e-07
9.45146e-07
9.4512e-07
9.4509e-07
9.45054e-07
9.45016e-07
9.44978e-07
9.44944e-07
9.44912e-07
9.44881e-07
9.44851e-07
9.4482e-07
9.44791e-07
9.44763e-07
9.44735e-07
9.44703e-07
9.44663e-07
9.44617e-07
9.44566e-07
9.44512e-07
9.44456e-07
9.44399e-07
9.44341e-07
9.4428e-07
9.44216e-07
9.44148e-07
9.44077e-07
9.44001e-07
9.43918e-07
9.43827e-07
9.43726e-07
9.43613e-07
9.56211e-07
9.56173e-07
9.56141e-07
9.56112e-07
9.56084e-07
9.56057e-07
9.5603e-07
9.56003e-07
9.55972e-07
9.55936e-07
9.55899e-07
9.55865e-07
9.55834e-07
9.55807e-07
9.5578e-07
9.55752e-07
9.55723e-07
9.55694e-07
9.55666e-07
9.55638e-07
9.55605e-07
9.55567e-07
9.55523e-07
9.55476e-07
9.55425e-07
9.55371e-07
9.55317e-07
9.5526e-07
9.55201e-07
9.55138e-07
9.55072e-07
9.55002e-07
9.54928e-07
9.54848e-07
9.5476e-07
9.54663e-07
9.54554e-07
1.00471e-06
1.00468e-06
1.00465e-06
1.00462e-06
1.0046e-06
1.00457e-06
1.00454e-06
1.00451e-06
1.00448e-06
1.00445e-06
1.00442e-06
1.00439e-06
1.00436e-06
1.00434e-06
1.00432e-06
1.0043e-06
1.00427e-06
1.00425e-06
1.00422e-06
1.00419e-06
1.00416e-06
1.00413e-06
1.00409e-06
1.00405e-06
1.00401e-06
1.00396e-06
1.00392e-06
1.00387e-06
1.00382e-06
1.00376e-06
1.00371e-06
1.00364e-06
1.00358e-06
1.00351e-06
1.00344e-06
1.00336e-06
1.00327e-06
1.19725e-06
1.19722e-06
1.1972e-06
1.19718e-06
1.19716e-06
1.19713e-06
1.19711e-06
1.19709e-06
1.19707e-06
1.19704e-06
1.19702e-06
1.19701e-06
1.19699e-06
1.19699e-06
1.19698e-06
1.19698e-06
1.19697e-06
1.19696e-06
1.19696e-06
1.19695e-06
1.19694e-06
1.19694e-06
1.19693e-06
1.19692e-06
1.19692e-06
1.19691e-06
1.19691e-06
1.1969e-06
1.1969e-06
1.1969e-06
1.1969e-06
1.1969e-06
1.1969e-06
1.19691e-06
1.19691e-06
1.19692e-06
1.19693e-06
2.14122e-06
2.14122e-06
2.14122e-06
2.14124e-06
2.14126e-06
2.14131e-06
2.14136e-06
2.14144e-06
2.14154e-06
2.14167e-06
2.14181e-06
2.14198e-06
2.14216e-06
2.14235e-06
2.14256e-06
2.1428e-06
2.14305e-06
2.14333e-06
2.14364e-06
2.14398e-06
2.14436e-06
2.14477e-06
2.14521e-06
2.1457e-06
2.14623e-06
2.14681e-06
2.14743e-06
2.14811e-06
2.14884e-06
2.14962e-06
2.15048e-06
2.1514e-06
2.1524e-06
2.15347e-06
2.15463e-06
2.15589e-06
2.15726e-06
2.22247e-06
2.22243e-06
2.22241e-06
2.2224e-06
2.2224e-06
2.22241e-06
2.22244e-06
2.22249e-06
2.22256e-06
2.22265e-06
2.22277e-06
2.22291e-06
2.22307e-06
2.22325e-06
2.22344e-06
2.22365e-06
2.22389e-06
2.22415e-06
2.22444e-06
2.22476e-06
2.2251e-06
2.22547e-06
2.22586e-06
2.2263e-06
2.22678e-06
2.2273e-06
2.22787e-06
2.22849e-06
2.22917e-06
2.2299e-06
2.23068e-06
2.23151e-06
2.23242e-06
2.2334e-06
2.23447e-06
2.23562e-06
2.23687e-06
2.23823e-06
1.06875e-06
1.06873e-06
1.06872e-06
1.06871e-06
1.0687e-06
1.06869e-06
1.06868e-06
1.06866e-06
1.06863e-06
1.0686e-06
1.06858e-06
1.06857e-06
1.06855e-06
1.06854e-06
1.06853e-06
1.06852e-06
1.06852e-06
1.06851e-06
1.0685e-06
1.06849e-06
1.06849e-06
1.06849e-06
1.06849e-06
1.06849e-06
1.06849e-06
1.06849e-06
1.06849e-06
1.06849e-06
1.06849e-06
1.0685e-06
1.06851e-06
1.06852e-06
1.06853e-06
1.06855e-06
1.06857e-06
1.06859e-06
1.06861e-06
1.06863e-06
8.1854e-07
8.18521e-07
8.18503e-07
8.18486e-07
8.18471e-07
8.18455e-07
8.18436e-07
8.18413e-07
8.18386e-07
8.18359e-07
8.18333e-07
8.18307e-07
8.18281e-07
8.18254e-07
8.18229e-07
8.18204e-07
8.18178e-07
8.18151e-07
8.18122e-07
8.18092e-07
8.18064e-07
8.18034e-07
8.18003e-07
8.17968e-07
8.1793e-07
8.17889e-07
8.17846e-07
8.178e-07
8.17753e-07
8.17705e-07
8.17655e-07
8.17604e-07
8.17548e-07
8.17486e-07
8.17418e-07
8.17343e-07
8.17263e-07
8.17176e-07
7.52039e-07
7.52018e-07
7.51998e-07
7.51978e-07
7.51959e-07
7.51939e-07
7.51919e-07
7.51895e-07
7.5187e-07
7.51844e-07
7.51817e-07
7.51788e-07
7.51759e-07
7.51729e-07
7.517e-07
7.51671e-07
7.51641e-07
7.5161e-07
7.51579e-07
7.51547e-07
7.51516e-07
7.51483e-07
7.51446e-07
7.51404e-07
7.51358e-07
7.51309e-07
7.51257e-07
7.51202e-07
7.51145e-07
7.51087e-07
7.51027e-07
7.50964e-07
7.50895e-07
7.50819e-07
7.50735e-07
7.50643e-07
7.50544e-07
7.50437e-07
7.35719e-07
7.35697e-07
7.35675e-07
7.35654e-07
7.35633e-07
7.35613e-07
7.35591e-07
7.35569e-07
7.35545e-07
7.3552e-07
7.35493e-07
7.35464e-07
7.35433e-07
7.35402e-07
7.35371e-07
7.35341e-07
7.3531e-07
7.35279e-07
7.35249e-07
7.35219e-07
7.35189e-07
7.35156e-07
7.35117e-07
7.35073e-07
7.35024e-07
7.34971e-07
7.34916e-07
7.34858e-07
7.34799e-07
7.34739e-07
7.34676e-07
7.3461e-07
7.34538e-07
7.34458e-07
7.3437e-07
7.34275e-07
7.34172e-07
7.3406e-07
7.32424e-07
7.32401e-07
7.32379e-07
7.32357e-07
7.32336e-07
7.32314e-07
7.32293e-07
7.32272e-07
7.3225e-07
7.32226e-07
7.32199e-07
7.3217e-07
7.32139e-07
7.32107e-07
7.32077e-07
7.32046e-07
7.32016e-07
7.31986e-07
7.31957e-07
7.31928e-07
7.31899e-07
7.31866e-07
7.31827e-07
7.31782e-07
7.31733e-07
7.3168e-07
7.31624e-07
7.31566e-07
7.31506e-07
7.31445e-07
7.31381e-07
7.31313e-07
7.3124e-07
7.31159e-07
7.31072e-07
7.30976e-07
7.30873e-07
7.30759e-07
7.32422e-07
7.32398e-07
7.32375e-07
7.32352e-07
7.3233e-07
7.32309e-07
7.32289e-07
7.32268e-07
7.32248e-07
7.32224e-07
7.32197e-07
7.32168e-07
7.32137e-07
7.32106e-07
7.32077e-07
7.32047e-07
7.32018e-07
7.31989e-07
7.3196e-07
7.31932e-07
7.31903e-07
7.3187e-07
7.31832e-07
7.31787e-07
7.31738e-07
7.31685e-07
7.3163e-07
7.31572e-07
7.31513e-07
7.31452e-07
7.31387e-07
7.31318e-07
7.31243e-07
7.31163e-07
7.31077e-07
7.30982e-07
7.30879e-07
7.30765e-07
7.35688e-07
7.35663e-07
7.3564e-07
7.35619e-07
7.35598e-07
7.35578e-07
7.35558e-07
7.35537e-07
7.35514e-07
7.35486e-07
7.35457e-07
7.35427e-07
7.35399e-07
7.35371e-07
7.35344e-07
7.35316e-07
7.35288e-07
7.35259e-07
7.35231e-07
7.35202e-07
7.35169e-07
7.35131e-07
7.35087e-07
7.35039e-07
7.34988e-07
7.34934e-07
7.34878e-07
7.34819e-07
7.34758e-07
7.34693e-07
7.34623e-07
7.34549e-07
7.3447e-07
7.34385e-07
7.34292e-07
7.34189e-07
7.34077e-07
7.52005e-07
7.5198e-07
7.51958e-07
7.51937e-07
7.51917e-07
7.51897e-07
7.51877e-07
7.51856e-07
7.51832e-07
7.51805e-07
7.51776e-07
7.51749e-07
7.51723e-07
7.51699e-07
7.51675e-07
7.51649e-07
7.51623e-07
7.51595e-07
7.51568e-07
7.51538e-07
7.51506e-07
7.51469e-07
7.51428e-07
7.51383e-07
7.51335e-07
7.51284e-07
7.51231e-07
7.51175e-07
7.51116e-07
7.51053e-07
7.50985e-07
7.50914e-07
7.50839e-07
7.50757e-07
7.50669e-07
7.50572e-07
7.50465e-07
8.18505e-07
8.18482e-07
8.18462e-07
8.18444e-07
8.18426e-07
8.18407e-07
8.18387e-07
8.18366e-07
8.18342e-07
8.18317e-07
8.18291e-07
8.18268e-07
8.18246e-07
8.18227e-07
8.18208e-07
8.18188e-07
8.18166e-07
8.18143e-07
8.18119e-07
8.18093e-07
8.18064e-07
8.18032e-07
8.17998e-07
8.17961e-07
8.17921e-07
8.17878e-07
8.17834e-07
8.17787e-07
8.17738e-07
8.17686e-07
8.1763e-07
8.17571e-07
8.17509e-07
8.17443e-07
8.17373e-07
8.17296e-07
8.1721e-07
1.06871e-06
1.06869e-06
1.06868e-06
1.06867e-06
1.06865e-06
1.06864e-06
1.06862e-06
1.0686e-06
1.06859e-06
1.06857e-06
1.06856e-06
1.06854e-06
1.06854e-06
1.06853e-06
1.06853e-06
1.06853e-06
1.06853e-06
1.06853e-06
1.06852e-06
1.06852e-06
1.06852e-06
1.06852e-06
1.06851e-06
1.06851e-06
1.06851e-06
1.06851e-06
1.06851e-06
1.06852e-06
1.06852e-06
1.06853e-06
1.06854e-06
1.06855e-06
1.06857e-06
1.06859e-06
1.06862e-06
1.06865e-06
1.06868e-06
2.2224e-06
2.22239e-06
2.22239e-06
2.2224e-06
2.22243e-06
2.22247e-06
2.22252e-06
2.2226e-06
2.2227e-06
2.22282e-06
2.22297e-06
2.22313e-06
2.2233e-06
2.22349e-06
2.2237e-06
2.22393e-06
2.22417e-06
2.22445e-06
2.22475e-06
2.22509e-06
2.22546e-06
2.22586e-06
2.2263e-06
2.22678e-06
2.2273e-06
2.22787e-06
2.22848e-06
2.22915e-06
2.22987e-06
2.23064e-06
2.23148e-06
2.23239e-06
2.23338e-06
2.23445e-06
2.2356e-06
2.23685e-06
2.2382e-06
2.25582e-06
2.25579e-06
2.25576e-06
2.25575e-06
2.25574e-06
2.25576e-06
2.25578e-06
2.25583e-06
2.25589e-06
2.25599e-06
2.2561e-06
2.25624e-06
2.25639e-06
2.25657e-06
2.25676e-06
2.25696e-06
2.25719e-06
2.25745e-06
2.25773e-06
2.25805e-06
2.25838e-06
2.25874e-06
2.25913e-06
2.25956e-06
2.26002e-06
2.26054e-06
2.2611e-06
2.26171e-06
2.26238e-06
2.2631e-06
2.26386e-06
2.26469e-06
2.26558e-06
2.26655e-06
2.2676e-06
2.26873e-06
2.26997e-06
2.2713e-06
1.00944e-06
1.00943e-06
1.00943e-06
1.00942e-06
1.00942e-06
1.00942e-06
1.00941e-06
1.00939e-06
1.00937e-06
1.00934e-06
1.00933e-06
1.00932e-06
1.00931e-06
1.00931e-06
1.00931e-06
1.00931e-06
1.0093e-06
1.0093e-06
1.0093e-06
1.00931e-06
1.00931e-06
1.00932e-06
1.00933e-06
1.00934e-06
1.00935e-06
1.00936e-06
1.00938e-06
1.00939e-06
1.00941e-06
1.00943e-06
1.00946e-06
1.00949e-06
1.00953e-06
1.00958e-06
1.00963e-06
1.00968e-06
1.00973e-06
1.00979e-06
7.25647e-07
7.25636e-07
7.25626e-07
7.25616e-07
7.25607e-07
7.25597e-07
7.25584e-07
7.25568e-07
7.25549e-07
7.2553e-07
7.25512e-07
7.25495e-07
7.25477e-07
7.2546e-07
7.25443e-07
7.25426e-07
7.25409e-07
7.25391e-07
7.25371e-07
7.25351e-07
7.25332e-07
7.25313e-07
7.25292e-07
7.2527e-07
7.25245e-07
7.25218e-07
7.2519e-07
7.2516e-07
7.25129e-07
7.25098e-07
7.25067e-07
7.25034e-07
7.24999e-07
7.24961e-07
7.2492e-07
7.24875e-07
7.24825e-07
7.24772e-07
6.46887e-07
6.46874e-07
6.46862e-07
6.46849e-07
6.46837e-07
6.46824e-07
6.4681e-07
6.46795e-07
6.46778e-07
6.4676e-07
6.46742e-07
6.46723e-07
6.46703e-07
6.46683e-07
6.46663e-07
6.46643e-07
6.46622e-07
6.46601e-07
6.46579e-07
6.46556e-07
6.46534e-07
6.4651e-07
6.46484e-07
6.46455e-07
6.46423e-07
6.46389e-07
6.46352e-07
6.46314e-07
6.46274e-07
6.46233e-07
6.4619e-07
6.46146e-07
6.46097e-07
6.46044e-07
6.45985e-07
6.45922e-07
6.45854e-07
6.45781e-07
6.26283e-07
6.26269e-07
6.26256e-07
6.26242e-07
6.26228e-07
6.26215e-07
6.262e-07
6.26185e-07
6.26169e-07
6.26152e-07
6.26134e-07
6.26114e-07
6.26094e-07
6.26072e-07
6.26051e-07
6.2603e-07
6.26009e-07
6.25987e-07
6.25965e-07
6.25943e-07
6.25921e-07
6.25896e-07
6.25868e-07
6.25837e-07
6.25803e-07
6.25766e-07
6.25727e-07
6.25686e-07
6.25643e-07
6.25599e-07
6.25554e-07
6.25506e-07
6.25453e-07
6.25396e-07
6.25334e-07
6.25266e-07
6.25193e-07
6.25114e-07
6.21821e-07
6.21806e-07
6.21792e-07
6.21778e-07
6.21763e-07
6.21749e-07
6.21735e-07
6.21721e-07
6.21706e-07
6.21689e-07
6.21671e-07
6.21651e-07
6.2163e-07
6.21609e-07
6.21588e-07
6.21566e-07
6.21545e-07
6.21524e-07
6.21502e-07
6.21481e-07
6.21459e-07
6.21435e-07
6.21407e-07
6.21375e-07
6.2134e-07
6.21302e-07
6.21262e-07
6.21221e-07
6.21178e-07
6.21133e-07
6.21087e-07
6.21037e-07
6.20983e-07
6.20925e-07
6.20862e-07
6.20794e-07
6.2072e-07
6.2064e-07
6.2182e-07
6.21805e-07
6.2179e-07
6.21775e-07
6.21761e-07
6.21746e-07
6.21732e-07
6.21718e-07
6.21704e-07
6.21688e-07
6.2167e-07
6.2165e-07
6.21629e-07
6.21608e-07
6.21588e-07
6.21567e-07
6.21546e-07
6.21525e-07
6.21505e-07
6.21484e-07
6.21462e-07
6.21437e-07
6.21409e-07
6.21377e-07
6.21343e-07
6.21305e-07
6.21266e-07
6.21225e-07
6.21182e-07
6.21137e-07
6.2109e-07
6.2104e-07
6.20986e-07
6.20928e-07
6.20865e-07
6.20798e-07
6.20724e-07
6.20643e-07
6.26264e-07
6.26249e-07
6.26234e-07
6.2622e-07
6.26206e-07
6.26192e-07
6.26178e-07
6.26164e-07
6.26148e-07
6.2613e-07
6.2611e-07
6.2609e-07
6.2607e-07
6.26051e-07
6.26032e-07
6.26012e-07
6.25992e-07
6.25972e-07
6.25951e-07
6.25929e-07
6.25905e-07
6.25877e-07
6.25846e-07
6.25812e-07
6.25776e-07
6.25738e-07
6.25697e-07
6.25655e-07
6.25611e-07
6.25564e-07
6.25514e-07
6.25461e-07
6.25404e-07
6.25343e-07
6.25277e-07
6.25204e-07
6.25125e-07
6.46866e-07
6.46851e-07
6.46837e-07
6.46823e-07
6.4681e-07
6.46797e-07
6.46783e-07
6.46768e-07
6.46752e-07
6.46734e-07
6.46715e-07
6.46697e-07
6.46679e-07
6.46662e-07
6.46645e-07
6.46628e-07
6.46609e-07
6.4659e-07
6.4657e-07
6.46548e-07
6.46525e-07
6.46499e-07
6.46471e-07
6.46439e-07
6.46405e-07
6.4637e-07
6.46332e-07
6.46293e-07
6.46251e-07
6.46207e-07
6.4616e-07
6.4611e-07
6.46057e-07
6.46e-07
6.45939e-07
6.45873e-07
6.458e-07
7.25625e-07
7.2561e-07
7.25598e-07
7.25587e-07
7.25575e-07
7.25562e-07
7.25549e-07
7.25534e-07
7.25519e-07
7.25501e-07
7.25484e-07
7.25468e-07
7.25454e-07
7.25441e-07
7.25429e-07
7.25416e-07
7.25402e-07
7.25387e-07
7.25371e-07
7.25353e-07
7.25334e-07
7.25313e-07
7.25291e-07
7.25267e-07
7.25241e-07
7.25213e-07
7.25184e-07
7.25154e-07
7.25122e-07
7.25089e-07
7.25053e-07
7.25017e-07
7.24979e-07
7.2494e-07
7.24898e-07
7.24852e-07
7.248e-07
1.00941e-06
1.0094e-06
1.00939e-06
1.00938e-06
1.00938e-06
1.00937e-06
1.00935e-06
1.00934e-06
1.00933e-06
1.00932e-06
1.00931e-06
1.00931e-06
1.0093e-06
1.00931e-06
1.00931e-06
1.00932e-06
1.00932e-06
1.00933e-06
1.00933e-06
1.00934e-06
1.00935e-06
1.00935e-06
1.00936e-06
1.00937e-06
1.00939e-06
1.0094e-06
1.00942e-06
1.00944e-06
1.00946e-06
1.00948e-06
1.00952e-06
1.00956e-06
1.0096e-06
1.00966e-06
1.00972e-06
1.00978e-06
1.00984e-06
2.25576e-06
2.25574e-06
2.25574e-06
2.25575e-06
2.25577e-06
2.25581e-06
2.25586e-06
2.25594e-06
2.25603e-06
2.25615e-06
2.2563e-06
2.25645e-06
2.25662e-06
2.25681e-06
2.25701e-06
2.25722e-06
2.25747e-06
2.25774e-06
2.25804e-06
2.25837e-06
2.25873e-06
2.25913e-06
2.25955e-06
2.26002e-06
2.26053e-06
2.26109e-06
2.26169e-06
2.26234e-06
2.26305e-06
2.26382e-06
2.26465e-06
2.26555e-06
2.26652e-06
2.26758e-06
2.26871e-06
2.26994e-06
2.27127e-06
2.26953e-06
2.26949e-06
2.26946e-06
2.26944e-06
2.26944e-06
2.26945e-06
2.26947e-06
2.26952e-06
2.26958e-06
2.26967e-06
2.26979e-06
2.26992e-06
2.27008e-06
2.27024e-06
2.27043e-06
2.27063e-06
2.27086e-06
2.27111e-06
2.27139e-06
2.27169e-06
2.27202e-06
2.27237e-06
2.27276e-06
2.27318e-06
2.27364e-06
2.27415e-06
2.2747e-06
2.27531e-06
2.27597e-06
2.27668e-06
2.27744e-06
2.27825e-06
2.27913e-06
2.28008e-06
2.28111e-06
2.28223e-06
2.28344e-06
2.28476e-06
9.82638e-07
9.82637e-07
9.82638e-07
9.82639e-07
9.8264e-07
9.82638e-07
9.8263e-07
9.82613e-07
9.82589e-07
9.82572e-07
9.82564e-07
9.82558e-07
9.82555e-07
9.82555e-07
9.82557e-07
9.82562e-07
9.82567e-07
9.82572e-07
9.82578e-07
9.82586e-07
9.82597e-07
9.82612e-07
9.8263e-07
9.82649e-07
9.82668e-07
9.82688e-07
9.8271e-07
9.82735e-07
9.82764e-07
9.82798e-07
9.82839e-07
9.82886e-07
9.82944e-07
9.83009e-07
9.83078e-07
9.83149e-07
9.83224e-07
9.83304e-07
6.78833e-07
6.78827e-07
6.78822e-07
6.78817e-07
6.78812e-07
6.78806e-07
6.78798e-07
6.78786e-07
6.78773e-07
6.78759e-07
6.78748e-07
6.78736e-07
6.78725e-07
6.78715e-07
6.78705e-07
6.78695e-07
6.78685e-07
6.78674e-07
6.78662e-07
6.78651e-07
6.7864e-07
6.78629e-07
6.78618e-07
6.78606e-07
6.78592e-07
6.78577e-07
6.78561e-07
6.78545e-07
6.78528e-07
6.78512e-07
6.78497e-07
6.78482e-07
6.78466e-07
6.7845e-07
6.78432e-07
6.78412e-07
6.7839e-07
6.78367e-07
5.91622e-07
5.91614e-07
5.91606e-07
5.91599e-07
5.91591e-07
5.91584e-07
5.91575e-07
5.91565e-07
5.91553e-07
5.91542e-07
5.9153e-07
5.91518e-07
5.91506e-07
5.91493e-07
5.91481e-07
5.91468e-07
5.91455e-07
5.91441e-07
5.91427e-07
5.91413e-07
5.91399e-07
5.91384e-07
5.91367e-07
5.91349e-07
5.91329e-07
5.91308e-07
5.91285e-07
5.91261e-07
5.91236e-07
5.91211e-07
5.91185e-07
5.91158e-07
5.91128e-07
5.91097e-07
5.91062e-07
5.91025e-07
5.90985e-07
5.90943e-07
5.67768e-07
5.67759e-07
5.6775e-07
5.67742e-07
5.67733e-07
5.67724e-07
5.67715e-07
5.67706e-07
5.67695e-07
5.67684e-07
5.67673e-07
5.67661e-07
5.67648e-07
5.67634e-07
5.67621e-07
5.67607e-07
5.67594e-07
5.67579e-07
5.67565e-07
5.67551e-07
5.67536e-07
5.6752e-07
5.67502e-07
5.67482e-07
5.6746e-07
5.67437e-07
5.67412e-07
5.67386e-07
5.67359e-07
5.67331e-07
5.67302e-07
5.67271e-07
5.67238e-07
5.67202e-07
5.67163e-07
5.67122e-07
5.67077e-07
5.67029e-07
5.62345e-07
5.62336e-07
5.62327e-07
5.62318e-07
5.62309e-07
5.623e-07