/*--------------------------------*- C++ -*----------------------------------*\
| =========                 |                                                 |
| \\      /  F ield         | OpenFOAM: The Open Source CFD Toolbox           |
|  \\    /   O peration     | Version:  2.3.1                                 |
|   \\  /    A nd           | Web:      www.OpenFOAM.org                      |
|    \\/     M anipulation  |                                                 |
\*---------------------------------------------------------------------------*/
FoamFile
{
    version     2.0;
    format      ascii;
    class       volScalarField;
    location    "5";
    object      epsilon;
}
// * * * * * * * * * * * * * * * * * * * * * * * * * * * * * * * * * * * * * //

dimensions      [0 2 -3 0 0 0 0];

internalField   nonuniform List<scalar> 
37692
(
2.06897e-06
2.06893e-06
2.0689e-06
2.0689e-06
2.06892e-06
2.06897e-06
2.06904e-06
2.06914e-06
2.06929e-06
2.06947e-06
2.06969e-06
2.06995e-06
2.07024e-06
2.07058e-06
2.07095e-06
2.07137e-06
2.07182e-06
2.07233e-06
2.07289e-06
2.07351e-06
2.07418e-06
2.07491e-06
2.0757e-06
2.07656e-06
2.0775e-06
2.07853e-06
2.07965e-06
2.08087e-06
2.08219e-06
2.08362e-06
2.08516e-06
2.0868e-06
2.08857e-06
2.09048e-06
2.09254e-06
2.09477e-06
2.09719e-06
2.09981e-06
2.6491e-06
2.64909e-06
2.64911e-06
2.64916e-06
2.64923e-06
2.64932e-06
2.64946e-06
2.64965e-06
2.64991e-06
2.65022e-06
2.65057e-06
2.65096e-06
2.65141e-06
2.65192e-06
2.65247e-06
2.65307e-06
2.65373e-06
2.65447e-06
2.65528e-06
2.65617e-06
2.65712e-06
2.65815e-06
2.65926e-06
2.66047e-06
2.66179e-06
2.66323e-06
2.6648e-06
2.6665e-06
2.66835e-06
2.67034e-06
2.67247e-06
2.67476e-06
2.67723e-06
2.6799e-06
2.68279e-06
2.68592e-06
2.68932e-06
2.693e-06
2.81926e-06
2.81927e-06
2.81931e-06
2.81938e-06
2.81947e-06
2.81958e-06
2.81974e-06
2.81996e-06
2.82024e-06
2.82057e-06
2.82095e-06
2.82137e-06
2.82186e-06
2.8224e-06
2.82299e-06
2.82363e-06
2.82433e-06
2.82511e-06
2.82596e-06
2.82688e-06
2.82786e-06
2.8289e-06
2.83004e-06
2.8313e-06
2.83267e-06
2.83416e-06
2.83579e-06
2.83756e-06
2.83947e-06
2.84152e-06
2.84371e-06
2.84606e-06
2.8486e-06
2.85136e-06
2.85435e-06
2.85759e-06
2.8611e-06
2.86491e-06
2.85637e-06
2.85639e-06
2.85644e-06
2.85652e-06
2.85662e-06
2.85675e-06
2.85692e-06
2.85715e-06
2.85742e-06
2.85775e-06
2.85812e-06
2.85855e-06
2.85905e-06
2.8596e-06
2.86021e-06
2.86087e-06
2.86158e-06
2.86236e-06
2.86322e-06
2.86412e-06
2.86509e-06
2.86612e-06
2.86726e-06
2.86852e-06
2.8699e-06
2.87142e-06
2.87306e-06
2.87485e-06
2.87678e-06
2.87884e-06
2.88104e-06
2.88339e-06
2.88594e-06
2.8887e-06
2.89171e-06
2.89497e-06
2.8985e-06
2.90233e-06
2.86283e-06
2.86285e-06
2.8629e-06
2.86299e-06
2.8631e-06
2.86324e-06
2.86342e-06
2.86364e-06
2.8639e-06
2.86421e-06
2.86458e-06
2.86501e-06
2.86551e-06
2.86607e-06
2.86669e-06
2.86735e-06
2.86807e-06
2.86886e-06
2.8697e-06
2.87059e-06
2.87153e-06
2.87255e-06
2.87368e-06
2.87494e-06
2.87633e-06
2.87785e-06
2.8795e-06
2.88129e-06
2.88322e-06
2.88528e-06
2.88748e-06
2.88983e-06
2.89238e-06
2.89515e-06
2.89815e-06
2.9014e-06
2.90493e-06
2.90875e-06
2.86377e-06
2.86379e-06
2.86384e-06
2.86393e-06
2.86406e-06
2.86421e-06
2.86439e-06
2.8646e-06
2.86485e-06
2.86515e-06
2.86551e-06
2.86595e-06
2.86645e-06
2.86701e-06
2.86763e-06
2.8683e-06
2.86902e-06
2.8698e-06
2.87063e-06
2.8715e-06
2.87243e-06
2.87344e-06
2.87457e-06
2.87583e-06
2.87722e-06
2.87874e-06
2.8804e-06
2.88218e-06
2.88411e-06
2.88616e-06
2.88836e-06
2.89072e-06
2.89328e-06
2.89604e-06
2.89904e-06
2.90228e-06
2.9058e-06
2.90962e-06
2.86376e-06
2.86379e-06
2.86386e-06
2.86396e-06
2.86409e-06
2.86424e-06
2.86443e-06
2.86463e-06
2.86487e-06
2.86516e-06
2.86553e-06
2.86597e-06
2.86648e-06
2.86704e-06
2.86765e-06
2.86831e-06
2.86903e-06
2.8698e-06
2.87062e-06
2.87149e-06
2.87242e-06
2.87343e-06
2.87456e-06
2.87582e-06
2.8772e-06
2.87872e-06
2.88037e-06
2.88214e-06
2.88406e-06
2.88611e-06
2.88832e-06
2.89069e-06
2.89326e-06
2.89602e-06
2.899e-06
2.90224e-06
2.90575e-06
2.90958e-06
2.86285e-06
2.86294e-06
2.86304e-06
2.86317e-06
2.86333e-06
2.86352e-06
2.86372e-06
2.86396e-06
2.86426e-06
2.86463e-06
2.86508e-06
2.86559e-06
2.86614e-06
2.86674e-06
2.86738e-06
2.86809e-06
2.86886e-06
2.86968e-06
2.87056e-06
2.87149e-06
2.87251e-06
2.87363e-06
2.87488e-06
2.87626e-06
2.87777e-06
2.87941e-06
2.88118e-06
2.88308e-06
2.88514e-06
2.88735e-06
2.88974e-06
2.89231e-06
2.89507e-06
2.89805e-06
2.90128e-06
2.9048e-06
2.90862e-06
2.85639e-06
2.85649e-06
2.85659e-06
2.85672e-06
2.85688e-06
2.85706e-06
2.85728e-06
2.85753e-06
2.85784e-06
2.85822e-06
2.85867e-06
2.85917e-06
2.85971e-06
2.86029e-06
2.86092e-06
2.86161e-06
2.86237e-06
2.8632e-06
2.86407e-06
2.86501e-06
2.86604e-06
2.86717e-06
2.86841e-06
2.86978e-06
2.87128e-06
2.87291e-06
2.87468e-06
2.87658e-06
2.87863e-06
2.88084e-06
2.88323e-06
2.8858e-06
2.88857e-06
2.89156e-06
2.89479e-06
2.8983e-06
2.90212e-06
2.81925e-06
2.81935e-06
2.81945e-06
2.81957e-06
2.81972e-06
2.8199e-06
2.82012e-06
2.82039e-06
2.8207e-06
2.82109e-06
2.82153e-06
2.82202e-06
2.82254e-06
2.8231e-06
2.82371e-06
2.82439e-06
2.82513e-06
2.82594e-06
2.82681e-06
2.82776e-06
2.82879e-06
2.82992e-06
2.83116e-06
2.83252e-06
2.834e-06
2.83561e-06
2.83736e-06
2.83924e-06
2.84128e-06
2.84348e-06
2.84586e-06
2.84842e-06
2.85119e-06
2.85417e-06
2.85739e-06
2.86088e-06
2.86467e-06
2.64904e-06
2.64911e-06
2.64919e-06
2.64928e-06
2.64941e-06
2.64958e-06
2.64979e-06
2.65005e-06
2.65035e-06
2.6507e-06
2.65111e-06
2.65157e-06
2.65206e-06
2.6526e-06
2.65319e-06
2.65383e-06
2.65453e-06
2.65531e-06
2.65615e-06
2.65708e-06
2.65809e-06
2.65919e-06
2.66039e-06
2.66169e-06
2.66312e-06
2.66467e-06
2.66636e-06
2.66818e-06
2.67015e-06
2.67228e-06
2.67458e-06
2.67707e-06
2.67976e-06
2.68265e-06
2.68578e-06
2.68916e-06
2.69282e-06
2.06886e-06
2.06887e-06
2.06889e-06
2.06893e-06
2.069e-06
2.06909e-06
2.0692e-06
2.06935e-06
2.06953e-06
2.06976e-06
2.07003e-06
2.07033e-06
2.07068e-06
2.07105e-06
2.07147e-06
2.07192e-06
2.07242e-06
2.07297e-06
2.07357e-06
2.07423e-06
2.07495e-06
2.07573e-06
2.07659e-06
2.07751e-06
2.07853e-06
2.07963e-06
2.08083e-06
2.08213e-06
2.08354e-06
2.08507e-06
2.08671e-06
2.08849e-06
2.09041e-06
2.09249e-06
2.09472e-06
2.09713e-06
2.09974e-06
1.91612e-06
1.91609e-06
1.91608e-06
1.91607e-06
1.91608e-06
1.9161e-06
1.91613e-06
1.91618e-06
1.91626e-06
1.91635e-06
1.91647e-06
1.9166e-06
1.91676e-06
1.91693e-06
1.91713e-06
1.91734e-06
1.91758e-06
1.91784e-06
1.91813e-06
1.91844e-06
1.91879e-06
1.91916e-06
1.91956e-06
1.92001e-06
1.92049e-06
1.92102e-06
1.92159e-06
1.92222e-06
1.9229e-06
1.92363e-06
1.92442e-06
1.92526e-06
1.92617e-06
1.92716e-06
1.92822e-06
1.92937e-06
1.93062e-06
1.93198e-06
1.49708e-06
1.49703e-06
1.497e-06
1.49697e-06
1.49694e-06
1.49692e-06
1.49691e-06
1.49688e-06
1.49686e-06
1.49685e-06
1.49684e-06
1.49684e-06
1.49685e-06
1.49686e-06
1.49688e-06
1.4969e-06
1.49693e-06
1.49696e-06
1.49699e-06
1.49703e-06
1.49708e-06
1.49713e-06
1.49719e-06
1.49726e-06
1.49733e-06
1.49741e-06
1.4975e-06
1.4976e-06
1.49771e-06
1.49783e-06
1.49796e-06
1.4981e-06
1.49826e-06
1.49842e-06
1.4986e-06
1.49879e-06
1.499e-06
1.49922e-06
1.41385e-06
1.4138e-06
1.41376e-06
1.41372e-06
1.41369e-06
1.41367e-06
1.41364e-06
1.41362e-06
1.41359e-06
1.41357e-06
1.41356e-06
1.41355e-06
1.41354e-06
1.41354e-06
1.41355e-06
1.41356e-06
1.41358e-06
1.4136e-06
1.41362e-06
1.41365e-06
1.41369e-06
1.41373e-06
1.41378e-06
1.41383e-06
1.41388e-06
1.41394e-06
1.41401e-06
1.41408e-06
1.41417e-06
1.41427e-06
1.41437e-06
1.41449e-06
1.41462e-06
1.41475e-06
1.41489e-06
1.41504e-06
1.41521e-06
1.41538e-06
1.39347e-06
1.39342e-06
1.39337e-06
1.39333e-06
1.3933e-06
1.39327e-06
1.39325e-06
1.39322e-06
1.3932e-06
1.39318e-06
1.39317e-06
1.39315e-06
1.39314e-06
1.39314e-06
1.39315e-06
1.39316e-06
1.39317e-06
1.39319e-06
1.39321e-06
1.39325e-06
1.39329e-06
1.39333e-06
1.39337e-06
1.39342e-06
1.39347e-06
1.39352e-06
1.39358e-06
1.39366e-06
1.39374e-06
1.39383e-06
1.39394e-06
1.39406e-06
1.39418e-06
1.39431e-06
1.39445e-06
1.39459e-06
1.39475e-06
1.39492e-06
1.38928e-06
1.38923e-06
1.38919e-06
1.38915e-06
1.38912e-06
1.38909e-06
1.38906e-06
1.38904e-06
1.38902e-06
1.389e-06
1.38899e-06
1.38897e-06
1.38896e-06
1.38896e-06
1.38896e-06
1.38897e-06
1.38899e-06
1.38901e-06
1.38904e-06
1.38907e-06
1.38911e-06
1.38916e-06
1.3892e-06
1.38924e-06
1.38929e-06
1.38934e-06
1.38941e-06
1.38948e-06
1.38956e-06
1.38965e-06
1.38976e-06
1.38988e-06
1.39e-06
1.39013e-06
1.39027e-06
1.39041e-06
1.39057e-06
1.39074e-06
1.38858e-06
1.38853e-06
1.38849e-06
1.38845e-06
1.38842e-06
1.38839e-06
1.38837e-06
1.38835e-06
1.38833e-06
1.38832e-06
1.3883e-06
1.38829e-06
1.38828e-06
1.38827e-06
1.38828e-06
1.38829e-06
1.3883e-06
1.38833e-06
1.38836e-06
1.3884e-06
1.38844e-06
1.38848e-06
1.38853e-06
1.38857e-06
1.38861e-06
1.38867e-06
1.38873e-06
1.3888e-06
1.38888e-06
1.38898e-06
1.38908e-06
1.3892e-06
1.38932e-06
1.38945e-06
1.38959e-06
1.38974e-06
1.3899e-06
1.39007e-06
1.38857e-06
1.38852e-06
1.38848e-06
1.38844e-06
1.38841e-06
1.38838e-06
1.38836e-06
1.38834e-06
1.38833e-06
1.38832e-06
1.3883e-06
1.38829e-06
1.38828e-06
1.38827e-06
1.38828e-06
1.38829e-06
1.38831e-06
1.38833e-06
1.38836e-06
1.3884e-06
1.38845e-06
1.38849e-06
1.38853e-06
1.38858e-06
1.38862e-06
1.38868e-06
1.38874e-06
1.38881e-06
1.38889e-06
1.38899e-06
1.38909e-06
1.3892e-06
1.38933e-06
1.38946e-06
1.3896e-06
1.38975e-06
1.38991e-06
1.39008e-06
1.3892e-06
1.38916e-06
1.38912e-06
1.38909e-06
1.38906e-06
1.38904e-06
1.38902e-06
1.38901e-06
1.389e-06
1.38898e-06
1.38897e-06
1.38896e-06
1.38896e-06
1.38897e-06
1.38898e-06
1.389e-06
1.38902e-06
1.38906e-06
1.38909e-06
1.38914e-06
1.38918e-06
1.38922e-06
1.38927e-06
1.38932e-06
1.38937e-06
1.38943e-06
1.38951e-06
1.38959e-06
1.38968e-06
1.38978e-06
1.38989e-06
1.39002e-06
1.39015e-06
1.39029e-06
1.39044e-06
1.3906e-06
1.39077e-06
1.39338e-06
1.39333e-06
1.39329e-06
1.39326e-06
1.39324e-06
1.39322e-06
1.3932e-06
1.39318e-06
1.39317e-06
1.39315e-06
1.39314e-06
1.39314e-06
1.39314e-06
1.39315e-06
1.39317e-06
1.39319e-06
1.39321e-06
1.39324e-06
1.39328e-06
1.39332e-06
1.39336e-06
1.39341e-06
1.39345e-06
1.39351e-06
1.39356e-06
1.39363e-06
1.3937e-06
1.39378e-06
1.39388e-06
1.39398e-06
1.39409e-06
1.39421e-06
1.39434e-06
1.39448e-06
1.39463e-06
1.39479e-06
1.39496e-06
1.41376e-06
1.41371e-06
1.41368e-06
1.41365e-06
1.41363e-06
1.41361e-06
1.41359e-06
1.41357e-06
1.41356e-06
1.41354e-06
1.41353e-06
1.41353e-06
1.41354e-06
1.41356e-06
1.41358e-06
1.4136e-06
1.41363e-06
1.41366e-06
1.4137e-06
1.41373e-06
1.41378e-06
1.41382e-06
1.41387e-06
1.41393e-06
1.41399e-06
1.41406e-06
1.41413e-06
1.41422e-06
1.41431e-06
1.41441e-06
1.41453e-06
1.41465e-06
1.41478e-06
1.41492e-06
1.41508e-06
1.41525e-06
1.41542e-06
1.497e-06
1.49696e-06
1.49693e-06
1.49691e-06
1.49689e-06
1.49687e-06
1.49686e-06
1.49685e-06
1.49684e-06
1.49683e-06
1.49684e-06
1.49684e-06
1.49686e-06
1.49689e-06
1.49691e-06
1.49695e-06
1.49698e-06
1.49702e-06
1.49707e-06
1.49711e-06
1.49717e-06
1.49723e-06
1.49729e-06
1.49737e-06
1.49745e-06
1.49754e-06
1.49763e-06
1.49774e-06
1.49786e-06
1.49799e-06
1.49812e-06
1.49828e-06
1.49844e-06
1.49862e-06
1.49881e-06
1.49902e-06
1.49924e-06
1.91607e-06
1.91607e-06
1.91607e-06
1.91609e-06
1.91612e-06
1.91616e-06
1.91622e-06
1.91629e-06
1.91639e-06
1.91651e-06
1.91665e-06
1.91681e-06
1.91699e-06
1.91718e-06
1.9174e-06
1.91763e-06
1.91788e-06
1.91816e-06
1.91847e-06
1.91881e-06
1.91918e-06
1.91958e-06
1.92002e-06
1.9205e-06
1.92103e-06
1.9216e-06
1.92222e-06
1.92289e-06
1.92361e-06
1.92439e-06
1.92524e-06
1.92616e-06
1.92714e-06
1.92821e-06
1.92936e-06
1.9306e-06
1.93195e-06
2.1405e-06
2.14047e-06
2.14045e-06
2.14044e-06
2.14045e-06
2.14046e-06
2.14049e-06
2.14054e-06
2.14062e-06
2.14071e-06
2.14083e-06
2.14097e-06
2.14113e-06
2.14131e-06
2.14151e-06
2.14173e-06
2.14197e-06
2.14223e-06
2.14253e-06
2.14285e-06
2.14319e-06
2.14357e-06
2.14397e-06
2.14442e-06
2.1449e-06
2.14544e-06
2.14602e-06
2.14665e-06
2.14733e-06
2.14807e-06
2.14886e-06
2.14972e-06
2.15064e-06
2.15163e-06
2.15271e-06
2.15387e-06
2.15514e-06
2.15651e-06
1.19708e-06
1.19705e-06
1.19703e-06
1.19701e-06
1.19699e-06
1.19698e-06
1.19696e-06
1.19693e-06
1.1969e-06
1.19687e-06
1.19684e-06
1.19682e-06
1.1968e-06
1.19678e-06
1.19677e-06
1.19676e-06
1.19675e-06
1.19673e-06
1.19672e-06
1.19671e-06
1.1967e-06
1.19669e-06
1.19669e-06
1.19668e-06
1.19667e-06
1.19667e-06
1.19666e-06
1.19666e-06
1.19665e-06
1.19665e-06
1.19665e-06
1.19666e-06
1.19666e-06
1.19667e-06
1.19667e-06
1.19667e-06
1.19667e-06
1.19667e-06
1.00465e-06
1.00462e-06
1.00459e-06
1.00456e-06
1.00454e-06
1.00451e-06
1.00449e-06
1.00446e-06
1.00442e-06
1.00439e-06
1.00435e-06
1.00432e-06
1.00428e-06
1.00425e-06
1.00422e-06
1.00419e-06
1.00416e-06
1.00413e-06
1.0041e-06
1.00406e-06
1.00403e-06
1.004e-06
1.00397e-06
1.00393e-06
1.00389e-06
1.00384e-06
1.0038e-06
1.00375e-06
1.0037e-06
1.00365e-06
1.0036e-06
1.00355e-06
1.00349e-06
1.00343e-06
1.00336e-06
1.00328e-06
1.00319e-06
1.0031e-06
9.56155e-07
9.56122e-07
9.56089e-07
9.56059e-07
9.56031e-07
9.56004e-07
9.55975e-07
9.55943e-07
9.55909e-07
9.55874e-07
9.55839e-07
9.55803e-07
9.55765e-07
9.55728e-07
9.55693e-07
9.55659e-07
9.55625e-07
9.55591e-07
9.55556e-07
9.55523e-07
9.55491e-07
9.55458e-07
9.55419e-07
9.55374e-07
9.55324e-07
9.55272e-07
9.55217e-07
9.5516e-07
9.55102e-07
9.55044e-07
9.54987e-07
9.54927e-07
9.5486e-07
9.54785e-07
9.547e-07
9.54609e-07
9.54509e-07
9.54401e-07
9.45262e-07
9.45228e-07
9.45196e-07
9.45165e-07
9.45134e-07
9.45105e-07
9.45076e-07
9.45046e-07
9.45014e-07
9.44981e-07
9.44946e-07
9.44909e-07
9.4487e-07
9.44831e-07
9.44794e-07
9.44759e-07
9.44724e-07
9.4469e-07
9.44658e-07
9.44628e-07
9.44599e-07
9.44566e-07
9.44527e-07
9.44479e-07
9.44426e-07
9.4437e-07
9.44312e-07
9.44253e-07
9.44193e-07
9.44134e-07
9.44075e-07
9.44013e-07
9.43943e-07
9.43865e-07
9.43779e-07
9.43685e-07
9.43582e-07
9.4347e-07
9.43266e-07
9.43232e-07
9.43199e-07
9.43167e-07
9.43135e-07
9.43106e-07
9.43077e-07
9.43049e-07
9.43021e-07
9.4299e-07
9.42956e-07
9.42918e-07
9.42878e-07
9.42839e-07
9.42802e-07
9.42767e-07
9.42733e-07
9.427e-07
9.4267e-07
9.42643e-07
9.42616e-07
9.42584e-07
9.42544e-07
9.42496e-07
9.42442e-07
9.42385e-07
9.42327e-07
9.42267e-07
9.42207e-07
9.42148e-07
9.42088e-07
9.42023e-07
9.41953e-07
9.41875e-07
9.4179e-07
9.41696e-07
9.41594e-07
9.41481e-07
9.43263e-07
9.43226e-07
9.43192e-07
9.43159e-07
9.43127e-07
9.43097e-07
9.4307e-07
9.43044e-07
9.43017e-07
9.42988e-07
9.42953e-07
9.42915e-07
9.42875e-07
9.42838e-07
9.42803e-07
9.42769e-07
9.42736e-07
9.42705e-07
9.42676e-07
9.42649e-07
9.42622e-07
9.4259e-07
9.4255e-07
9.42502e-07
9.4245e-07
9.42394e-07
9.42336e-07
9.42278e-07
9.42219e-07
9.42159e-07
9.42096e-07
9.42029e-07
9.41958e-07
9.41881e-07
9.41797e-07
9.41705e-07
9.41603e-07
9.41489e-07
9.45212e-07
9.45175e-07
9.45142e-07
9.45111e-07
9.45082e-07
9.45055e-07
9.45029e-07
9.45003e-07
9.44973e-07
9.44938e-07
9.44899e-07
9.44861e-07
9.44827e-07
9.44795e-07
9.44764e-07
9.44734e-07
9.44703e-07
9.44674e-07
9.44647e-07
9.44619e-07
9.44586e-07
9.44546e-07
9.445e-07
9.44449e-07
9.44395e-07
9.44339e-07
9.44282e-07
9.44224e-07
9.44163e-07
9.44099e-07
9.44031e-07
9.4396e-07
9.43884e-07
9.43801e-07
9.4371e-07
9.43608e-07
9.43495e-07
9.56097e-07
9.5606e-07
9.56027e-07
9.55998e-07
9.5597e-07
9.55943e-07
9.55917e-07
9.55889e-07
9.55858e-07
9.55823e-07
9.55785e-07
9.55751e-07
9.55721e-07
9.55693e-07
9.55666e-07
9.55638e-07
9.55609e-07
9.5558e-07
9.55553e-07
9.55524e-07
9.55491e-07
9.55453e-07
9.5541e-07
9.55362e-07
9.55311e-07
9.55257e-07
9.55203e-07
9.55146e-07
9.55087e-07
9.55024e-07
9.54958e-07
9.54888e-07
9.54814e-07
9.54734e-07
9.54646e-07
9.54549e-07
9.5444e-07
1.00459e-06
1.00456e-06
1.00453e-06
1.0045e-06
1.00448e-06
1.00445e-06
1.00442e-06
1.00439e-06
1.00436e-06
1.00433e-06
1.0043e-06
1.00427e-06
1.00424e-06
1.00422e-06
1.0042e-06
1.00418e-06
1.00415e-06
1.00413e-06
1.0041e-06
1.00407e-06
1.00404e-06
1.00401e-06
1.00397e-06
1.00393e-06
1.00389e-06
1.00384e-06
1.0038e-06
1.00375e-06
1.0037e-06
1.00364e-06
1.00359e-06
1.00352e-06
1.00346e-06
1.00339e-06
1.00332e-06
1.00324e-06
1.00315e-06
1.19703e-06
1.197e-06
1.19698e-06
1.19696e-06
1.19694e-06
1.19692e-06
1.19689e-06
1.19687e-06
1.19685e-06
1.19683e-06
1.1968e-06
1.19679e-06
1.19678e-06
1.19677e-06
1.19676e-06
1.19676e-06
1.19675e-06
1.19675e-06
1.19674e-06
1.19673e-06
1.19673e-06
1.19672e-06
1.19671e-06
1.19671e-06
1.1967e-06
1.19669e-06
1.19669e-06
1.19669e-06
1.19668e-06
1.19668e-06
1.19668e-06
1.19668e-06
1.19668e-06
1.19669e-06
1.1967e-06
1.1967e-06
1.19671e-06
2.14043e-06
2.14043e-06
2.14043e-06
2.14045e-06
2.14048e-06
2.14052e-06
2.14058e-06
2.14066e-06
2.14076e-06
2.14088e-06
2.14103e-06
2.14119e-06
2.14137e-06
2.14157e-06
2.14178e-06
2.14201e-06
2.14227e-06
2.14255e-06
2.14286e-06
2.1432e-06
2.14357e-06
2.14398e-06
2.14443e-06
2.14492e-06
2.14545e-06
2.14602e-06
2.14665e-06
2.14732e-06
2.14805e-06
2.14884e-06
2.1497e-06
2.15062e-06
2.15162e-06
2.1527e-06
2.15386e-06
2.15512e-06
2.15648e-06
2.22171e-06
2.22167e-06
2.22165e-06
2.22164e-06
2.22164e-06
2.22165e-06
2.22168e-06
2.22173e-06
2.2218e-06
2.22189e-06
2.22201e-06
2.22215e-06
2.22231e-06
2.22248e-06
2.22268e-06
2.22289e-06
2.22313e-06
2.22339e-06
2.22368e-06
2.224e-06
2.22434e-06
2.22471e-06
2.2251e-06
2.22554e-06
2.22602e-06
2.22654e-06
2.22711e-06
2.22774e-06
2.22841e-06
2.22914e-06
2.22992e-06
2.23076e-06
2.23166e-06
2.23265e-06
2.23372e-06
2.23487e-06
2.23613e-06
2.23748e-06
1.06861e-06
1.06859e-06
1.06858e-06
1.06857e-06
1.06856e-06
1.06856e-06
1.06854e-06
1.06852e-06
1.06849e-06
1.06847e-06
1.06845e-06
1.06843e-06
1.06842e-06
1.06841e-06
1.0684e-06
1.06839e-06
1.06838e-06
1.06837e-06
1.06836e-06
1.06836e-06
1.06835e-06
1.06835e-06
1.06835e-06
1.06835e-06
1.06835e-06
1.06835e-06
1.06835e-06
1.06835e-06
1.06835e-06
1.06836e-06
1.06837e-06
1.06838e-06
1.0684e-06
1.06842e-06
1.06844e-06
1.06846e-06
1.06847e-06
1.0685e-06
8.18506e-07
8.18487e-07
8.18469e-07
8.18452e-07
8.18436e-07
8.1842e-07
8.18402e-07
8.18379e-07
8.18352e-07
8.18325e-07
8.18299e-07
8.18273e-07
8.18246e-07
8.1822e-07
8.18195e-07
8.1817e-07
8.18144e-07
8.18116e-07
8.18087e-07
8.18058e-07
8.18029e-07
8.18e-07
8.17968e-07
8.17933e-07
8.17895e-07
8.17854e-07
8.17811e-07
8.17766e-07
8.17718e-07
8.1767e-07
8.17621e-07
8.17569e-07
8.17513e-07
8.17451e-07
8.17383e-07
8.17308e-07
8.17228e-07
8.1714e-07
7.5201e-07
7.51989e-07
7.51969e-07
7.51949e-07
7.5193e-07
7.5191e-07
7.5189e-07
7.51866e-07
7.51841e-07
7.51815e-07
7.51788e-07
7.51759e-07
7.5173e-07
7.517e-07
7.5167e-07
7.51641e-07
7.51612e-07
7.51581e-07
7.51549e-07
7.51518e-07
7.51487e-07
7.51454e-07
7.51417e-07
7.51375e-07
7.51329e-07
7.51279e-07
7.51227e-07
7.51172e-07
7.51115e-07
7.51057e-07
7.50998e-07
7.50935e-07
7.50865e-07
7.50789e-07
7.50705e-07
7.50613e-07
7.50514e-07
7.50407e-07
7.35685e-07
7.35663e-07
7.35642e-07
7.3562e-07
7.35599e-07
7.35579e-07
7.35557e-07
7.35535e-07
7.35511e-07
7.35486e-07
7.35459e-07
7.3543e-07
7.35399e-07
7.35368e-07
7.35337e-07
7.35307e-07
7.35276e-07
7.35245e-07
7.35214e-07
7.35185e-07
7.35154e-07
7.35121e-07
7.35083e-07
7.35038e-07
7.34989e-07
7.34937e-07
7.34882e-07
7.34824e-07
7.34765e-07
7.34704e-07
7.34642e-07
7.34575e-07
7.34503e-07
7.34423e-07
7.34335e-07
7.3424e-07
7.34137e-07
7.34025e-07
7.32388e-07
7.32365e-07
7.32343e-07
7.32321e-07
7.32299e-07
7.32278e-07
7.32257e-07
7.32236e-07
7.32214e-07
7.3219e-07
7.32163e-07
7.32134e-07
7.32103e-07
7.32071e-07
7.3204e-07
7.3201e-07
7.3198e-07
7.31949e-07
7.3192e-07
7.31892e-07
7.31863e-07
7.3183e-07
7.31791e-07
7.31746e-07
7.31696e-07
7.31643e-07
7.31587e-07
7.31529e-07
7.31469e-07
7.31408e-07
7.31344e-07
7.31276e-07
7.31203e-07
7.31122e-07
7.31034e-07
7.30939e-07
7.30835e-07
7.30722e-07
7.32386e-07
7.32362e-07
7.32339e-07
7.32316e-07
7.32294e-07
7.32273e-07
7.32252e-07
7.32232e-07
7.32211e-07
7.32188e-07
7.32161e-07
7.32132e-07
7.32101e-07
7.3207e-07
7.3204e-07
7.32011e-07
7.31982e-07
7.31952e-07
7.31924e-07
7.31896e-07
7.31867e-07
7.31834e-07
7.31795e-07
7.3175e-07
7.31701e-07
7.31648e-07
7.31593e-07
7.31536e-07
7.31476e-07
7.31415e-07
7.3135e-07
7.31281e-07
7.31206e-07
7.31126e-07
7.3104e-07
7.30945e-07
7.30841e-07
7.30728e-07
7.35654e-07
7.35629e-07
7.35607e-07
7.35585e-07
7.35564e-07
7.35544e-07
7.35524e-07
7.35503e-07
7.3548e-07
7.35453e-07
7.35423e-07
7.35393e-07
7.35365e-07
7.35337e-07
7.3531e-07
7.35282e-07
7.35253e-07
7.35225e-07
7.35197e-07
7.35168e-07
7.35135e-07
7.35096e-07
7.35053e-07
7.35005e-07
7.34954e-07
7.34899e-07
7.34843e-07
7.34785e-07
7.34723e-07
7.34658e-07
7.34588e-07
7.34514e-07
7.34435e-07
7.3435e-07
7.34257e-07
7.34154e-07
7.34042e-07
7.51976e-07
7.51951e-07
7.51929e-07
7.51908e-07
7.51888e-07
7.51868e-07
7.51848e-07
7.51827e-07
7.51803e-07
7.51776e-07
7.51747e-07
7.5172e-07
7.51694e-07
7.5167e-07
7.51646e-07
7.5162e-07
7.51593e-07
7.51566e-07
7.51538e-07
7.51509e-07
7.51477e-07
7.5144e-07
7.51399e-07
7.51354e-07
7.51306e-07
7.51254e-07
7.51201e-07
7.51145e-07
7.51086e-07
7.51023e-07
7.50956e-07
7.50884e-07
7.50809e-07
7.50727e-07
7.50639e-07
7.50542e-07
7.50434e-07
8.18471e-07
8.18448e-07
8.18428e-07
8.1841e-07
8.18392e-07
8.18373e-07
8.18353e-07
8.18332e-07
8.18308e-07
8.18283e-07
8.18257e-07
8.18233e-07
8.18212e-07
8.18193e-07
8.18174e-07
8.18153e-07
8.18132e-07
8.18108e-07
8.18084e-07
8.18058e-07
8.1803e-07
8.17998e-07
8.17964e-07
8.17927e-07
8.17886e-07
8.17844e-07
8.17799e-07
8.17752e-07
8.17703e-07
8.17651e-07
8.17595e-07
8.17536e-07
8.17474e-07
8.17408e-07
8.17338e-07
8.17261e-07
8.17175e-07
1.06858e-06
1.06856e-06
1.06854e-06
1.06853e-06
1.06852e-06
1.0685e-06
1.06848e-06
1.06847e-06
1.06845e-06
1.06843e-06
1.06842e-06
1.06841e-06
1.0684e-06
1.06839e-06
1.06839e-06
1.06839e-06
1.06839e-06
1.06839e-06
1.06839e-06
1.06838e-06
1.06838e-06
1.06838e-06
1.06838e-06
1.06838e-06
1.06838e-06
1.06838e-06
1.06838e-06
1.06838e-06
1.06839e-06
1.06839e-06
1.0684e-06
1.06841e-06
1.06843e-06
1.06846e-06
1.06849e-06
1.06851e-06
1.06854e-06
2.22164e-06
2.22163e-06
2.22163e-06
2.22164e-06
2.22166e-06
2.2217e-06
2.22176e-06
2.22184e-06
2.22194e-06
2.22206e-06
2.22221e-06
2.22237e-06
2.22254e-06
2.22273e-06
2.22294e-06
2.22317e-06
2.22341e-06
2.22369e-06
2.22399e-06
2.22433e-06
2.2247e-06
2.2251e-06
2.22554e-06
2.22602e-06
2.22654e-06
2.22711e-06
2.22773e-06
2.22839e-06
2.22911e-06
2.22989e-06
2.23073e-06
2.23164e-06
2.23263e-06
2.2337e-06
2.23485e-06
2.2361e-06
2.23746e-06
2.25508e-06
2.25504e-06
2.25502e-06
2.255e-06
2.255e-06
2.25501e-06
2.25504e-06
2.25508e-06
2.25515e-06
2.25524e-06
2.25536e-06
2.2555e-06
2.25565e-06
2.25582e-06
2.25601e-06
2.25622e-06
2.25645e-06
2.25671e-06
2.25699e-06
2.2573e-06
2.25764e-06
2.258e-06
2.25839e-06
2.25882e-06
2.25928e-06
2.2598e-06
2.26036e-06
2.26097e-06
2.26164e-06
2.26236e-06
2.26313e-06
2.26395e-06
2.26484e-06
2.26581e-06
2.26686e-06
2.268e-06
2.26923e-06
2.27057e-06
1.00932e-06
1.00932e-06
1.00931e-06
1.00931e-06
1.00931e-06
1.0093e-06
1.0093e-06
1.00928e-06
1.00925e-06
1.00923e-06
1.00922e-06
1.00921e-06
1.0092e-06
1.00919e-06
1.00919e-06
1.00919e-06
1.00919e-06
1.00919e-06
1.00919e-06
1.00919e-06
1.0092e-06
1.0092e-06
1.00921e-06
1.00923e-06
1.00924e-06
1.00925e-06
1.00926e-06
1.00928e-06
1.00929e-06
1.00932e-06
1.00934e-06
1.00938e-06
1.00942e-06
1.00947e-06
1.00952e-06
1.00957e-06
1.00962e-06
1.00967e-06
7.25637e-07
7.25627e-07
7.25616e-07
7.25607e-07
7.25597e-07
7.25587e-07
7.25575e-07
7.25559e-07
7.2554e-07
7.25521e-07
7.25503e-07
7.25485e-07
7.25467e-07
7.2545e-07
7.25433e-07
7.25416e-07
7.25399e-07
7.25381e-07
7.25361e-07
7.25342e-07
7.25322e-07
7.25303e-07
7.25283e-07
7.2526e-07
7.25235e-07
7.25208e-07
7.2518e-07
7.2515e-07
7.25119e-07
7.25088e-07
7.25056e-07
7.25024e-07
7.24989e-07
7.24951e-07
7.2491e-07
7.24864e-07
7.24815e-07
7.24762e-07
6.46882e-07
6.46869e-07
6.46856e-07
6.46844e-07
6.46831e-07
6.46819e-07
6.46805e-07
6.4679e-07
6.46772e-07
6.46755e-07
6.46736e-07
6.46717e-07
6.46698e-07
6.46677e-07
6.46657e-07
6.46637e-07
6.46617e-07
6.46595e-07
6.46573e-07
6.46551e-07
6.46528e-07
6.46505e-07
6.46479e-07
6.46449e-07
6.46417e-07
6.46383e-07
6.46346e-07
6.46308e-07
6.46268e-07
6.46227e-07
6.46184e-07
6.4614e-07
6.46091e-07
6.46037e-07
6.45979e-07
6.45916e-07
6.45848e-07
6.45775e-07
6.26272e-07
6.26258e-07
6.26244e-07
6.2623e-07
6.26217e-07
6.26203e-07
6.26189e-07
6.26174e-07
6.26158e-07
6.26141e-07
6.26122e-07
6.26103e-07
6.26082e-07
6.26061e-07
6.2604e-07
6.26019e-07
6.25997e-07
6.25975e-07
6.25953e-07
6.25931e-07
6.25909e-07
6.25884e-07
6.25857e-07
6.25825e-07
6.25791e-07
6.25754e-07
6.25715e-07
6.25674e-07
6.25631e-07
6.25587e-07
6.25542e-07
6.25493e-07
6.25441e-07
6.25384e-07
6.25321e-07
6.25253e-07
6.25181e-07
6.25102e-07
6.21806e-07
6.21792e-07
6.21778e-07
6.21763e-07
6.21749e-07
6.21735e-07
6.21721e-07
6.21706e-07
6.21691e-07
6.21675e-07
6.21656e-07
6.21637e-07
6.21616e-07
6.21594e-07
6.21573e-07
6.21552e-07
6.2153e-07
6.21509e-07
6.21488e-07
6.21466e-07
6.21444e-07
6.2142e-07
6.21392e-07
6.2136e-07
6.21325e-07
6.21287e-07
6.21247e-07
6.21206e-07
6.21162e-07
6.21118e-07
6.21071e-07
6.21022e-07
6.20968e-07
6.2091e-07
6.20847e-07
6.20778e-07
6.20704e-07
6.20624e-07
6.21806e-07
6.2179e-07
6.21775e-07
6.2176e-07
6.21746e-07
6.21732e-07
6.21718e-07
6.21704e-07
6.21689e-07
6.21673e-07
6.21655e-07
6.21635e-07
6.21614e-07
6.21594e-07
6.21573e-07
6.21552e-07
6.21532e-07
6.21511e-07
6.2149e-07
6.21469e-07
6.21447e-07
6.21422e-07
6.21394e-07
6.21363e-07
6.21328e-07
6.2129e-07
6.21251e-07
6.2121e-07
6.21167e-07
6.21122e-07
6.21075e-07
6.21024e-07
6.2097e-07
6.20912e-07
6.2085e-07
6.20782e-07
6.20708e-07
6.20628e-07
6.26253e-07
6.26237e-07
6.26223e-07
6.26208e-07
6.26194e-07
6.26181e-07
6.26167e-07
6.26153e-07
6.26136e-07
6.26118e-07
6.26098e-07
6.26078e-07
6.26059e-07
6.2604e-07
6.2602e-07
6.26001e-07
6.2598e-07
6.2596e-07
6.25939e-07
6.25917e-07
6.25893e-07
6.25865e-07
6.25834e-07
6.258e-07
6.25764e-07
6.25726e-07
6.25685e-07
6.25643e-07
6.25599e-07
6.25552e-07
6.25502e-07
6.25448e-07
6.25392e-07
6.2533e-07
6.25264e-07
6.25192e-07
6.25113e-07
6.46861e-07
6.46845e-07
6.46831e-07
6.46818e-07
6.46805e-07
6.46791e-07
6.46778e-07
6.46763e-07
6.46747e-07
6.46729e-07
6.4671e-07
6.46691e-07
6.46674e-07
6.46657e-07
6.4664e-07
6.46622e-07
6.46603e-07
6.46584e-07
6.46564e-07
6.46543e-07
6.4652e-07
6.46494e-07
6.46465e-07
6.46433e-07
6.464e-07
6.46364e-07
6.46326e-07
6.46287e-07
6.46245e-07
6.46201e-07
6.46154e-07
6.46104e-07
6.46051e-07
6.45994e-07
6.45933e-07
6.45866e-07
6.45793e-07
7.25615e-07
7.25601e-07
7.25588e-07
7.25577e-07
7.25566e-07
7.25553e-07
7.25539e-07
7.25525e-07
7.25509e-07
7.25492e-07
7.25475e-07
7.25459e-07
7.25445e-07
7.25432e-07
7.25419e-07
7.25406e-07
7.25392e-07
7.25377e-07
7.25361e-07
7.25343e-07
7.25324e-07
7.25303e-07
7.25281e-07
7.25257e-07
7.25231e-07
7.25203e-07
7.25174e-07
7.25144e-07
7.25112e-07
7.25079e-07
7.25043e-07
7.25007e-07
7.24969e-07
7.24929e-07
7.24887e-07
7.24842e-07
7.2479e-07
1.0093e-06
1.00928e-06
1.00928e-06
1.00927e-06
1.00926e-06
1.00925e-06
1.00924e-06
1.00923e-06
1.00922e-06
1.00921e-06
1.0092e-06
1.00919e-06
1.00919e-06
1.00919e-06
1.0092e-06
1.0092e-06
1.00921e-06
1.00921e-06
1.00922e-06
1.00922e-06
1.00923e-06
1.00924e-06
1.00925e-06
1.00926e-06
1.00927e-06
1.00929e-06
1.0093e-06
1.00932e-06
1.00934e-06
1.00937e-06
1.0094e-06
1.00944e-06
1.00949e-06
1.00954e-06
1.0096e-06
1.00967e-06
1.00973e-06
2.25501e-06
2.255e-06
2.25499e-06
2.255e-06
2.25502e-06
2.25506e-06
2.25512e-06
2.25519e-06
2.25529e-06
2.25541e-06
2.25555e-06
2.25571e-06
2.25588e-06
2.25606e-06
2.25626e-06
2.25648e-06
2.25672e-06
2.25699e-06
2.25729e-06
2.25763e-06
2.25799e-06
2.25838e-06
2.25881e-06
2.25928e-06
2.25979e-06
2.26035e-06
2.26095e-06
2.26161e-06
2.26231e-06
2.26308e-06
2.26391e-06
2.26481e-06
2.26579e-06
2.26684e-06
2.26798e-06
2.26921e-06
2.27054e-06
2.26879e-06
2.26875e-06
2.26873e-06
2.26871e-06
2.26871e-06
2.26871e-06
2.26874e-06
2.26878e-06
2.26885e-06
2.26894e-06
2.26906e-06
2.26919e-06
2.26934e-06
2.26951e-06
2.2697e-06
2.2699e-06
2.27012e-06
2.27037e-06
2.27065e-06
2.27096e-06
2.27129e-06
2.27164e-06
2.27203e-06
2.27245e-06
2.27291e-06
2.27342e-06
2.27397e-06
2.27458e-06
2.27524e-06
2.27595e-06
2.27671e-06
2.27752e-06
2.2784e-06
2.27936e-06
2.28039e-06
2.28151e-06
2.28272e-06
2.28404e-06
9.82526e-07
9.82525e-07
9.82526e-07
9.82527e-07
9.82528e-07
9.82526e-07
9.82519e-07
9.82502e-07
9.82478e-07
9.8246e-07
9.82452e-07
9.82446e-07
9.82444e-07
9.82443e-07
9.82446e-07
9.8245e-07
9.82455e-07
9.8246e-07
9.82466e-07
9.82474e-07
9.82485e-07
9.82501e-07
9.82518e-07
9.82537e-07
9.82556e-07
9.82576e-07
9.82598e-07
9.82623e-07
9.82652e-07
9.82687e-07
9.82728e-07
9.82775e-07
9.82833e-07
9.82898e-07
9.82967e-07
9.83038e-07
9.83113e-07
9.83193e-07
6.78826e-07
6.7882e-07
6.78815e-07
6.7881e-07
6.78805e-07
6.78799e-07
6.78791e-07
6.78779e-07
6.78766e-07
6.78753e-07
6.78741e-07
6.78729e-07
6.78718e-07
6.78708e-07
6.78698e-07
6.78688e-07
6.78678e-07
6.78667e-07
6.78655e-07
6.78644e-07
6.78633e-07
6.78622e-07
6.78611e-07
6.78599e-07
6.78585e-07
6.7857e-07
6.78554e-07
6.78538e-07
6.78521e-07
6.78505e-07
6.7849e-07
6.78475e-07
6.78459e-07
6.78443e-07
6.78425e-07
6.78405e-07
6.78383e-07
6.78359e-07
5.91618e-07
5.9161e-07
5.91603e-07
5.91595e-07
5.91588e-07
5.9158e-07
5.91571e-07
5.91561e-07
5.9155e-07
5.91538e-07
5.91527e-07
5.91515e-07
5.91502e-07
5.91489e-07
5.91477e-07
5.91464e-07
5.91451e-07
5.91438e-07
5.91424e-07
5.91409e-07
5.91395e-07
5.9138e-07
5.91363e-07
5.91345e-07
5.91325e-07
5.91304e-07
5.91281e-07
5.91257e-07
5.91232e-07
5.91207e-07
5.91181e-07
5.91154e-07
5.91124e-07
5.91092e-07
5.91058e-07
5.91021e-07
5.90981e-07
5.90938e-07
5.67757e-07
5.67748e-07
5.67739e-07
5.67731e-07
5.67722e-07
5.67714e-07
5.67704e-07
5.67695e-07
5.67684e-07
5.67674e-07
5.67662e-07
5.6765e-07
5.67637e-07
5.67623e-07
5.6761e-07
5.67596e-07
5.67582e-07
5.67568e-07
5.67554e-07
5.6754e-07
5.67525e-07
5.67509e-07
5.67491e-07
5.67471e-07
5.67449e-07
5.67425e-07
5.674e-07
5.67374e-07
5.67347e-07
5.67319e-07
5.6729e-07
5.67259e-07
5.67226e-07
5.6719e-07
5.67152e-07
5.6711e-07
5.67065e-07
5.67017e-07
5.62331e-07
5.62322e-07
5.62313e-07
5.62304e-07
5.62294e-07
5.62285e-07
5.62276e-07