/*--------------------------------*- C++ -*----------------------------------*\
| =========                 |                                                 |
| \\      /  F ield         | OpenFOAM: The Open Source CFD Toolbox           |
|  \\    /   O peration     | Version:  2.3.1                                 |
|   \\  /    A nd           | Web:      www.OpenFOAM.org                      |
|    \\/     M anipulation  |                                                 |
\*---------------------------------------------------------------------------*/
FoamFile
{
    version     2.0;
    format      ascii;
    class       volScalarField;
    location    "5";
    object      k;
}
// * * * * * * * * * * * * * * * * * * * * * * * * * * * * * * * * * * * * * //

dimensions      [0 2 -2 0 0 0 0];

internalField   nonuniform List<scalar> 
37692
(
9.44386e-06
9.44372e-06
9.44365e-06
9.44365e-06
9.44372e-06
9.44385e-06
9.44407e-06
9.44439e-06
9.44483e-06
9.44538e-06
9.44605e-06
9.44684e-06
9.44774e-06
9.44876e-06
9.4499e-06
9.45116e-06
9.45255e-06
9.45409e-06
9.45581e-06
9.45769e-06
9.45973e-06
9.46195e-06
9.46436e-06
9.46698e-06
9.46984e-06
9.47297e-06
9.47638e-06
9.48009e-06
9.48411e-06
9.48845e-06
9.49312e-06
9.49812e-06
9.50349e-06
9.50929e-06
9.51555e-06
9.52232e-06
9.52966e-06
9.53761e-06
1.11364e-05
1.11364e-05
1.11365e-05
1.11366e-05
1.11368e-05
1.11371e-05
1.11374e-05
1.1138e-05
1.11387e-05
1.11396e-05
1.11406e-05
1.11417e-05
1.11429e-05
1.11443e-05
1.11459e-05
1.11476e-05
1.11494e-05
1.11515e-05
1.11538e-05
1.11563e-05
1.11589e-05
1.11618e-05
1.11649e-05
1.11683e-05
1.1172e-05
1.1176e-05
1.11804e-05
1.11852e-05
1.11904e-05
1.1196e-05
1.12019e-05
1.12083e-05
1.12152e-05
1.12227e-05
1.12308e-05
1.12395e-05
1.1249e-05
1.12593e-05
1.16087e-05
1.16087e-05
1.16089e-05
1.1609e-05
1.16093e-05
1.16096e-05
1.16101e-05
1.16107e-05
1.16114e-05
1.16123e-05
1.16134e-05
1.16145e-05
1.16159e-05
1.16174e-05
1.1619e-05
1.16207e-05
1.16227e-05
1.16248e-05
1.16271e-05
1.16297e-05
1.16323e-05
1.16352e-05
1.16383e-05
1.16418e-05
1.16456e-05
1.16497e-05
1.16541e-05
1.1659e-05
1.16642e-05
1.16698e-05
1.16758e-05
1.16823e-05
1.16892e-05
1.16968e-05
1.1705e-05
1.17138e-05
1.17235e-05
1.17339e-05
1.17105e-05
1.17106e-05
1.17107e-05
1.17109e-05
1.17112e-05
1.17115e-05
1.1712e-05
1.17126e-05
1.17134e-05
1.17143e-05
1.17153e-05
1.17165e-05
1.17178e-05
1.17193e-05
1.1721e-05
1.17228e-05
1.17248e-05
1.17269e-05
1.17292e-05
1.17317e-05
1.17343e-05
1.17372e-05
1.17403e-05
1.17437e-05
1.17475e-05
1.17516e-05
1.17561e-05
1.1761e-05
1.17663e-05
1.17719e-05
1.17779e-05
1.17843e-05
1.17913e-05
1.17988e-05
1.1807e-05
1.18159e-05
1.18255e-05
1.18359e-05
1.17282e-05
1.17282e-05
1.17284e-05
1.17286e-05
1.17289e-05
1.17293e-05
1.17298e-05
1.17304e-05
1.17311e-05
1.1732e-05
1.1733e-05
1.17341e-05
1.17355e-05
1.1737e-05
1.17387e-05
1.17405e-05
1.17425e-05
1.17447e-05
1.1747e-05
1.17494e-05
1.1752e-05
1.17547e-05
1.17578e-05
1.17613e-05
1.17651e-05
1.17692e-05
1.17737e-05
1.17786e-05
1.17839e-05
1.17895e-05
1.17955e-05
1.18019e-05
1.18089e-05
1.18164e-05
1.18246e-05
1.18334e-05
1.1843e-05
1.18534e-05
1.17307e-05
1.17308e-05
1.1731e-05
1.17312e-05
1.17315e-05
1.1732e-05
1.17325e-05
1.1733e-05
1.17337e-05
1.17345e-05
1.17355e-05
1.17367e-05
1.17381e-05
1.17396e-05
1.17413e-05
1.17431e-05
1.17451e-05
1.17472e-05
1.17495e-05
1.17519e-05
1.17544e-05
1.17572e-05
1.17603e-05
1.17637e-05
1.17675e-05
1.17717e-05
1.17762e-05
1.1781e-05
1.17863e-05
1.17919e-05
1.17979e-05
1.18043e-05
1.18113e-05
1.18188e-05
1.1827e-05
1.18358e-05
1.18454e-05
1.18558e-05
1.17307e-05
1.17308e-05
1.1731e-05
1.17313e-05
1.17316e-05
1.1732e-05
1.17325e-05
1.17331e-05
1.17338e-05
1.17346e-05
1.17356e-05
1.17368e-05
1.17381e-05
1.17397e-05
1.17414e-05
1.17432e-05
1.17451e-05
1.17472e-05
1.17495e-05
1.17519e-05
1.17544e-05
1.17572e-05
1.17602e-05
1.17637e-05
1.17675e-05
1.17716e-05
1.17761e-05
1.17809e-05
1.17862e-05
1.17918e-05
1.17978e-05
1.18043e-05
1.18112e-05
1.18188e-05
1.18269e-05
1.18357e-05
1.18453e-05
1.18557e-05
1.17282e-05
1.17285e-05
1.17288e-05
1.17291e-05
1.17296e-05
1.17301e-05
1.17306e-05
1.17313e-05
1.17321e-05
1.17331e-05
1.17343e-05
1.17357e-05
1.17372e-05
1.17389e-05
1.17406e-05
1.17426e-05
1.17447e-05
1.17469e-05
1.17493e-05
1.17518e-05
1.17546e-05
1.17577e-05
1.17611e-05
1.17649e-05
1.1769e-05
1.17735e-05
1.17783e-05
1.17835e-05
1.17891e-05
1.17951e-05
1.18017e-05
1.18087e-05
1.18162e-05
1.18243e-05
1.18331e-05
1.18427e-05
1.18531e-05
1.17106e-05
1.17108e-05
1.17111e-05
1.17115e-05
1.17119e-05
1.17124e-05
1.1713e-05
1.17137e-05
1.17145e-05
1.17156e-05
1.17168e-05
1.17182e-05
1.17196e-05
1.17212e-05
1.1723e-05
1.17248e-05
1.17269e-05
1.17292e-05
1.17316e-05
1.17341e-05
1.17369e-05
1.174e-05
1.17434e-05
1.17472e-05
1.17513e-05
1.17557e-05
1.17605e-05
1.17657e-05
1.17713e-05
1.17774e-05
1.17839e-05
1.17909e-05
1.17985e-05
1.18066e-05
1.18154e-05
1.1825e-05
1.18354e-05
1.16087e-05
1.1609e-05
1.16092e-05
1.16096e-05
1.161e-05
1.16105e-05
1.16111e-05
1.16118e-05
1.16127e-05
1.16138e-05
1.1615e-05
1.16163e-05
1.16177e-05
1.16193e-05
1.1621e-05
1.16228e-05
1.16249e-05
1.16271e-05
1.16295e-05
1.16321e-05
1.16349e-05
1.1638e-05
1.16414e-05
1.16451e-05
1.16492e-05
1.16536e-05
1.16584e-05
1.16636e-05
1.16692e-05
1.16752e-05
1.16817e-05
1.16888e-05
1.16963e-05
1.17045e-05
1.17133e-05
1.17229e-05
1.17332e-05
1.11363e-05
1.11365e-05
1.11367e-05
1.11369e-05
1.11373e-05
1.11378e-05
1.11384e-05
1.11391e-05
1.11399e-05
1.11409e-05
1.11421e-05
1.11434e-05
1.11448e-05
1.11463e-05
1.11479e-05
1.11497e-05
1.11517e-05
1.11538e-05
1.11562e-05
1.11588e-05
1.11616e-05
1.11647e-05
1.11681e-05
1.11717e-05
1.11757e-05
1.11801e-05
1.11848e-05
1.11899e-05
1.11954e-05
1.12014e-05
1.12078e-05
1.12148e-05
1.12223e-05
1.12304e-05
1.12391e-05
1.12486e-05
1.12588e-05
9.44352e-06
9.44354e-06
9.44362e-06
9.44375e-06
9.44394e-06
9.44421e-06
9.44456e-06
9.44502e-06
9.44558e-06
9.44626e-06
9.44708e-06
9.44801e-06
9.44906e-06
9.45021e-06
9.45147e-06
9.45286e-06
9.45438e-06
9.45605e-06
9.45788e-06
9.45989e-06
9.46208e-06
9.46446e-06
9.46705e-06
9.46988e-06
9.47296e-06
9.47632e-06
9.47997e-06
9.48393e-06
9.48821e-06
9.49285e-06
9.49785e-06
9.50326e-06
9.5091e-06
9.51539e-06
9.52216e-06
9.52948e-06
9.5374e-06
1.42446e-05
1.42444e-05
1.42443e-05
1.42443e-05
1.42444e-05
1.42445e-05
1.42446e-05
1.42449e-05
1.42452e-05
1.42457e-05
1.42463e-05
1.4247e-05
1.42477e-05
1.42486e-05
1.42496e-05
1.42506e-05
1.42518e-05
1.42531e-05
1.42545e-05
1.42561e-05
1.42578e-05
1.42596e-05
1.42616e-05
1.42638e-05
1.42662e-05
1.42689e-05
1.42717e-05
1.42748e-05
1.42782e-05
1.42818e-05
1.42857e-05
1.42899e-05
1.42944e-05
1.42993e-05
1.43046e-05
1.43103e-05
1.43164e-05
1.43232e-05
1.87128e-05
1.8713e-05
1.87131e-05
1.87133e-05
1.87135e-05
1.87136e-05
1.87138e-05
1.87142e-05
1.87146e-05
1.87151e-05
1.87155e-05
1.8716e-05
1.87165e-05
1.8717e-05
1.87175e-05
1.8718e-05
1.87186e-05
1.87192e-05
1.87199e-05
1.87207e-05
1.87214e-05
1.87222e-05
1.87231e-05
1.87241e-05
1.87251e-05
1.87262e-05
1.87275e-05
1.87288e-05
1.87302e-05
1.87317e-05
1.87332e-05
1.87349e-05
1.87367e-05
1.87387e-05
1.87409e-05
1.87432e-05
1.87458e-05
1.87487e-05
2.00026e-05
2.00028e-05
2.0003e-05
2.00033e-05
2.00035e-05
2.00037e-05
2.0004e-05
2.00044e-05
2.00048e-05
2.00053e-05
2.00058e-05
2.00063e-05
2.00069e-05
2.00074e-05
2.0008e-05
2.00086e-05
2.00092e-05
2.00099e-05
2.00107e-05
2.00114e-05
2.00122e-05
2.0013e-05
2.0014e-05
2.0015e-05
2.00161e-05
2.00173e-05
2.00186e-05
2.002e-05
2.00215e-05
2.0023e-05
2.00246e-05
2.00263e-05
2.00282e-05
2.00303e-05
2.00326e-05
2.00352e-05
2.00379e-05
2.00409e-05
2.03208e-05
2.0321e-05
2.03213e-05
2.03216e-05
2.03218e-05
2.03221e-05
2.03224e-05
2.03228e-05
2.03232e-05
2.03237e-05
2.03242e-05
2.03247e-05
2.03253e-05
2.03259e-05
2.03266e-05
2.03272e-05
2.03278e-05
2.03285e-05
2.03293e-05
2.033e-05
2.03308e-05
2.03316e-05
2.03325e-05
2.03335e-05
2.03347e-05
2.0336e-05
2.03373e-05
2.03388e-05
2.03403e-05
2.03419e-05
2.03435e-05
2.03453e-05
2.03472e-05
2.03494e-05
2.03518e-05
2.03544e-05
2.03572e-05
2.03603e-05
2.0387e-05
2.03872e-05
2.03875e-05
2.03877e-05
2.0388e-05
2.03883e-05
2.03886e-05
2.0389e-05
2.03894e-05
2.03898e-05
2.03903e-05
2.03908e-05
2.03914e-05
2.03921e-05
2.03927e-05
2.03934e-05
2.0394e-05
2.03947e-05
2.03954e-05
2.03961e-05
2.03968e-05
2.03976e-05
2.03985e-05
2.03996e-05
2.04008e-05
2.04021e-05
2.04035e-05
2.04049e-05
2.04065e-05
2.04081e-05
2.04097e-05
2.04115e-05
2.04134e-05
2.04156e-05
2.04179e-05
2.04205e-05
2.04234e-05
2.04265e-05
2.03984e-05
2.03986e-05
2.03989e-05
2.03991e-05
2.03994e-05
2.03997e-05
2.04001e-05
2.04004e-05
2.04007e-05
2.04011e-05
2.04016e-05
2.04021e-05
2.04028e-05
2.04034e-05
2.0404e-05
2.04047e-05
2.04053e-05
2.0406e-05
2.04067e-05
2.04073e-05
2.0408e-05
2.04087e-05
2.04097e-05
2.04107e-05
2.04119e-05
2.04133e-05
2.04146e-05
2.04161e-05
2.04176e-05
2.04192e-05
2.04209e-05
2.04227e-05
2.04246e-05
2.04268e-05
2.04291e-05
2.04317e-05
2.04345e-05
2.04376e-05
2.03984e-05
2.03987e-05
2.0399e-05
2.03993e-05
2.03996e-05
2.03999e-05
2.04002e-05
2.04004e-05
2.04008e-05
2.04011e-05
2.04016e-05
2.04022e-05
2.04028e-05
2.04034e-05
2.0404e-05
2.04047e-05
2.04053e-05
2.04059e-05
2.04066e-05
2.04072e-05
2.04079e-05
2.04087e-05
2.04096e-05
2.04107e-05
2.04119e-05
2.04131e-05
2.04145e-05
2.0416e-05
2.04175e-05
2.04191e-05
2.04208e-05
2.04226e-05
2.04246e-05
2.04267e-05
2.0429e-05
2.04316e-05
2.04344e-05
2.04375e-05
2.03874e-05
2.03878e-05
2.03881e-05
2.03883e-05
2.03886e-05
2.03889e-05
2.03892e-05
2.03895e-05
2.03899e-05
2.03904e-05
2.0391e-05
2.03916e-05
2.03922e-05
2.03927e-05
2.03933e-05
2.03939e-05
2.03946e-05
2.03952e-05
2.03959e-05
2.03965e-05
2.03973e-05
2.03982e-05
2.03993e-05
2.04005e-05
2.04017e-05
2.04031e-05
2.04045e-05
2.0406e-05
2.04076e-05
2.04093e-05
2.04112e-05
2.04132e-05
2.04153e-05
2.04176e-05
2.04202e-05
2.0423e-05
2.04261e-05
2.03214e-05
2.03217e-05
2.0322e-05
2.03223e-05
2.03226e-05
2.03229e-05
2.03232e-05
2.03235e-05
2.03239e-05
2.03244e-05
2.0325e-05
2.03255e-05
2.03261e-05
2.03266e-05
2.03271e-05
2.03277e-05
2.03283e-05
2.0329e-05
2.03296e-05
2.03303e-05
2.03311e-05
2.0332e-05
2.03331e-05
2.03342e-05
2.03354e-05
2.03368e-05
2.03382e-05
2.03397e-05
2.03413e-05
2.0343e-05
2.03449e-05
2.03468e-05
2.0349e-05
2.03513e-05
2.03538e-05
2.03566e-05
2.03597e-05
2.00032e-05
2.00035e-05
2.00037e-05
2.0004e-05
2.00042e-05
2.00045e-05
2.00048e-05
2.00052e-05
2.00056e-05
2.00061e-05
2.00067e-05
2.00072e-05
2.00076e-05
2.00081e-05
2.00086e-05
2.00091e-05
2.00097e-05
2.00103e-05
2.0011e-05
2.00117e-05
2.00125e-05
2.00134e-05
2.00144e-05
2.00155e-05
2.00166e-05
2.00179e-05
2.00193e-05
2.00207e-05
2.00223e-05
2.0024e-05
2.00258e-05
2.00277e-05
2.00298e-05
2.00321e-05
2.00346e-05
2.00373e-05
2.00403e-05
1.87133e-05
1.87135e-05
1.87137e-05
1.87139e-05
1.87141e-05
1.87143e-05
1.87147e-05
1.8715e-05
1.87154e-05
1.87158e-05
1.87163e-05
1.87167e-05
1.87172e-05
1.87176e-05
1.8718e-05
1.87185e-05
1.8719e-05
1.87196e-05
1.87203e-05
1.8721e-05
1.87218e-05
1.87227e-05
1.87236e-05
1.87246e-05
1.87257e-05
1.87269e-05
1.87282e-05
1.87296e-05
1.87311e-05
1.87327e-05
1.87344e-05
1.87363e-05
1.87383e-05
1.87405e-05
1.87428e-05
1.87453e-05
1.87481e-05
1.42443e-05
1.42443e-05
1.42443e-05
1.42444e-05
1.42446e-05
1.42448e-05
1.4245e-05
1.42454e-05
1.42459e-05
1.42465e-05
1.42472e-05
1.4248e-05
1.42489e-05
1.42498e-05
1.42509e-05
1.4252e-05
1.42533e-05
1.42547e-05
1.42562e-05
1.42579e-05
1.42597e-05
1.42617e-05
1.42639e-05
1.42663e-05
1.42689e-05
1.42717e-05
1.42748e-05
1.42781e-05
1.42817e-05
1.42856e-05
1.42898e-05
1.42943e-05
1.42992e-05
1.43045e-05
1.43102e-05
1.43163e-05
1.4323e-05
1.53365e-05
1.53364e-05
1.53363e-05
1.53362e-05
1.53363e-05
1.53363e-05
1.53365e-05
1.53367e-05
1.53371e-05
1.53375e-05
1.53381e-05
1.53388e-05
1.53395e-05
1.53404e-05
1.53413e-05
1.53424e-05
1.53435e-05
1.53448e-05
1.53462e-05
1.53477e-05
1.53494e-05
1.53512e-05
1.53531e-05
1.53552e-05
1.53576e-05
1.53601e-05
1.53629e-05
1.53659e-05
1.53692e-05
1.53727e-05
1.53765e-05
1.53806e-05
1.5385e-05
1.53897e-05
1.53948e-05
1.54004e-05
1.54065e-05
1.5413e-05
2.16293e-05
2.16293e-05
2.16294e-05
2.16295e-05
2.16296e-05
2.16297e-05
2.16298e-05
2.16301e-05
2.16304e-05
2.16307e-05
2.1631e-05
2.16313e-05
2.16316e-05
2.1632e-05
2.16323e-05
2.16326e-05
2.1633e-05
2.16334e-05
2.16338e-05
2.16343e-05
2.16348e-05
2.16353e-05
2.16358e-05
2.16364e-05
2.1637e-05
2.16377e-05
2.16385e-05
2.16393e-05
2.16402e-05
2.16411e-05
2.16421e-05
2.16431e-05
2.16442e-05
2.16454e-05
2.16468e-05
2.16482e-05
2.16499e-05
2.16517e-05
2.32612e-05
2.32614e-05
2.32615e-05
2.32617e-05
2.32618e-05
2.3262e-05
2.32621e-05
2.32624e-05
2.32627e-05
2.3263e-05
2.32633e-05
2.32636e-05
2.3264e-05
2.32643e-05
2.32647e-05
2.3265e-05
2.32654e-05
2.32658e-05
2.32662e-05
2.32667e-05
2.32672e-05
2.32676e-05
2.32682e-05
2.32688e-05
2.32694e-05
2.32701e-05
2.32709e-05
2.32717e-05
2.32725e-05
2.32734e-05
2.32744e-05
2.32754e-05
2.32765e-05
2.32777e-05
2.32791e-05
2.32806e-05
2.32823e-05
2.32841e-05
2.37014e-05
2.37016e-05
2.37017e-05
2.37019e-05
2.37021e-05
2.37023e-05
2.37025e-05
2.37027e-05
2.3703e-05
2.37033e-05
2.37036e-05
2.3704e-05
2.37043e-05
2.37047e-05
2.37051e-05
2.37055e-05
2.37059e-05
2.37063e-05
2.37067e-05
2.37072e-05
2.37076e-05
2.37081e-05
2.37086e-05
2.37092e-05
2.37099e-05
2.37107e-05
2.37115e-05
2.37123e-05
2.37132e-05
2.37142e-05
2.37152e-05
2.37162e-05
2.37174e-05
2.37187e-05
2.37201e-05
2.37217e-05
2.37234e-05
2.37253e-05
2.38082e-05
2.38084e-05
2.38086e-05
2.38088e-05
2.3809e-05
2.38092e-05
2.38094e-05
2.38096e-05
2.38099e-05
2.38102e-05
2.38105e-05
2.38108e-05
2.38112e-05
2.38116e-05
2.3812e-05
2.38124e-05
2.38128e-05
2.38132e-05
2.38136e-05
2.3814e-05
2.38144e-05
2.38149e-05
2.38155e-05
2.38161e-05
2.38168e-05
2.38176e-05
2.38184e-05
2.38193e-05
2.38202e-05
2.38212e-05
2.38222e-05
2.38232e-05
2.38244e-05
2.38257e-05
2.38272e-05
2.38288e-05
2.38305e-05
2.38325e-05
2.38297e-05
2.38299e-05
2.38301e-05
2.38303e-05
2.38305e-05
2.38307e-05
2.38309e-05
2.38312e-05
2.38314e-05
2.38316e-05
2.38319e-05
2.38323e-05
2.38327e-05
2.38331e-05
2.38335e-05
2.38339e-05
2.38343e-05
2.38347e-05
2.38351e-05
2.38354e-05
2.38358e-05
2.38363e-05
2.38369e-05
2.38375e-05
2.38382e-05
2.3839e-05
2.38398e-05
2.38407e-05
2.38416e-05
2.38426e-05
2.38436e-05
2.38447e-05
2.38459e-05
2.38472e-05
2.38486e-05
2.38502e-05
2.3852e-05
2.38539e-05
2.38298e-05
2.383e-05
2.38302e-05
2.38304e-05
2.38306e-05
2.38308e-05
2.3831e-05
2.38312e-05
2.38314e-05
2.38317e-05
2.3832e-05
2.38323e-05
2.38327e-05
2.38331e-05
2.38335e-05
2.38338e-05
2.38342e-05
2.38346e-05
2.3835e-05
2.38354e-05
2.38358e-05
2.38363e-05
2.38368e-05
2.38375e-05
2.38382e-05
2.38389e-05
2.38398e-05
2.38406e-05
2.38415e-05
2.38425e-05
2.38435e-05
2.38446e-05
2.38458e-05
2.38471e-05
2.38486e-05
2.38502e-05
2.38519e-05
2.38539e-05
2.38085e-05
2.38088e-05
2.3809e-05
2.38092e-05
2.38094e-05
2.38096e-05
2.38098e-05
2.381e-05
2.38102e-05
2.38106e-05
2.38109e-05
2.38113e-05
2.38116e-05
2.3812e-05
2.38123e-05
2.38127e-05
2.38131e-05
2.38135e-05
2.38139e-05
2.38143e-05
2.38147e-05
2.38153e-05
2.38159e-05
2.38166e-05
2.38174e-05
2.38182e-05
2.3819e-05
2.38199e-05
2.38209e-05
2.38219e-05
2.38231e-05
2.38243e-05
2.38256e-05
2.3827e-05
2.38285e-05
2.38303e-05
2.38322e-05
2.37018e-05
2.3702e-05
2.37022e-05
2.37024e-05
2.37026e-05
2.37028e-05
2.3703e-05
2.37032e-05
2.37035e-05
2.37038e-05
2.37041e-05
2.37045e-05
2.37048e-05
2.37051e-05
2.37054e-05
2.37058e-05
2.37061e-05
2.37065e-05
2.37069e-05
2.37073e-05
2.37078e-05
2.37083e-05
2.37089e-05
2.37096e-05
2.37103e-05
2.37111e-05
2.3712e-05
2.37129e-05
2.37138e-05
2.37148e-05
2.37159e-05
2.37171e-05
2.37184e-05
2.37198e-05
2.37213e-05
2.37231e-05
2.3725e-05
2.32616e-05
2.32618e-05
2.3262e-05
2.32621e-05
2.32623e-05
2.32625e-05
2.32627e-05
2.32629e-05
2.32632e-05
2.32635e-05
2.32638e-05
2.32641e-05
2.32644e-05
2.32647e-05
2.3265e-05
2.32653e-05
2.32656e-05
2.3266e-05
2.32664e-05
2.32668e-05
2.32673e-05
2.32678e-05
2.32684e-05
2.3269e-05
2.32697e-05
2.32704e-05
2.32712e-05
2.32721e-05
2.3273e-05
2.3274e-05
2.3275e-05
2.32762e-05
2.32774e-05
2.32788e-05
2.32802e-05
2.32819e-05
2.32837e-05
2.16295e-05
2.16297e-05
2.16298e-05
2.16299e-05
2.163e-05
2.16302e-05
2.16304e-05
2.16307e-05
2.16309e-05
2.16312e-05
2.16315e-05
2.16318e-05
2.16321e-05
2.16324e-05
2.16326e-05
2.16329e-05
2.16332e-05
2.16336e-05
2.1634e-05
2.16345e-05
2.16349e-05
2.16355e-05
2.16361e-05
2.16367e-05
2.16374e-05
2.16381e-05
2.16389e-05
2.16398e-05
2.16407e-05
2.16417e-05
2.16428e-05
2.16439e-05
2.16452e-05
2.16465e-05
2.16479e-05
2.16495e-05
2.16513e-05
1.53362e-05
1.53362e-05
1.53362e-05
1.53363e-05
1.53364e-05
1.53366e-05
1.53369e-05
1.53373e-05
1.53377e-05
1.53383e-05
1.5339e-05
1.53398e-05
1.53407e-05
1.53416e-05
1.53426e-05
1.53437e-05
1.5345e-05
1.53463e-05
1.53478e-05
1.53494e-05
1.53512e-05
1.53532e-05
1.53553e-05
1.53576e-05
1.53602e-05
1.53629e-05
1.53659e-05
1.53691e-05
1.53726e-05
1.53764e-05
1.53805e-05
1.53849e-05
1.53897e-05
1.53948e-05
1.54003e-05
1.54063e-05
1.54129e-05
1.57223e-05
1.57221e-05
1.5722e-05
1.5722e-05
1.5722e-05
1.5722e-05
1.57222e-05
1.57224e-05
1.57227e-05
1.57232e-05
1.57237e-05
1.57244e-05
1.57251e-05
1.5726e-05
1.57269e-05
1.57279e-05
1.5729e-05
1.57302e-05
1.57316e-05
1.57331e-05
1.57347e-05
1.57365e-05
1.57383e-05
1.57404e-05
1.57427e-05
1.57451e-05
1.57478e-05
1.57508e-05
1.57539e-05
1.57574e-05
1.57611e-05
1.5765e-05
1.57693e-05
1.57739e-05
1.5779e-05
1.57844e-05
1.57903e-05
1.57967e-05
2.29156e-05
2.29156e-05
2.29156e-05
2.29156e-05
2.29157e-05
2.29157e-05
2.29158e-05
2.29159e-05
2.29162e-05
2.29164e-05
2.29167e-05
2.29169e-05
2.29171e-05
2.29173e-05
2.29176e-05
2.29178e-05
2.29181e-05
2.29183e-05
2.29187e-05
2.2919e-05
2.29193e-05
2.29197e-05
2.292e-05
2.29205e-05
2.29209e-05
2.29214e-05
2.29219e-05
2.29225e-05
2.29231e-05
2.29238e-05
2.29245e-05
2.29252e-05
2.2926e-05
2.29268e-05
2.29278e-05
2.29288e-05
2.293e-05
2.29313e-05
2.47491e-05
2.47492e-05
2.47493e-05
2.47494e-05
2.47495e-05
2.47496e-05
2.47497e-05
2.47499e-05
2.47501e-05
2.47503e-05
2.47505e-05
2.47507e-05
2.47509e-05
2.47512e-05
2.47514e-05
2.47516e-05
2.47519e-05
2.47521e-05
2.47524e-05
2.47527e-05
2.4753e-05
2.47533e-05
2.47537e-05
2.47541e-05
2.47545e-05
2.4755e-05
2.47554e-05
2.4756e-05
2.47566e-05
2.47572e-05
2.47578e-05
2.47585e-05
2.47592e-05
2.47601e-05
2.4761e-05
2.47621e-05
2.47632e-05
2.47645e-05
2.52697e-05
2.52698e-05
2.52699e-05
2.52701e-05
2.52702e-05
2.52703e-05
2.52704e-05
2.52706e-05
2.52708e-05
2.5271e-05
2.52712e-05
2.52714e-05
2.52716e-05
2.52719e-05
2.52721e-05
2.52724e-05
2.52726e-05
2.52729e-05
2.52732e-05
2.52735e-05
2.52738e-05
2.52741e-05
2.52745e-05
2.52749e-05
2.52753e-05
2.52758e-05
2.52763e-05
2.52769e-05
2.52775e-05
2.52782e-05
2.52788e-05
2.52796e-05
2.52804e-05
2.52813e-05
2.52823e-05
2.52834e-05
2.52846e-05
2.5286e-05
2.54091e-05
2.54092e-05
2.54093e-05
2.54095e-05
2.54096e-05
2.54097e-05
2.54099e-05
2.541e-05
2.54102e-05
2.54104e-05
2.54106e-05
2.54108e-05
2.5411e-05
2.54113e-05
2.54116e-05
2.54118e-05
2.54121e-05
2.54124e-05
2.54126e-05
2.54129e-05
2.54132e-05
2.54135e-05
2.54139e-05
2.54143e-05
2.54148e-05
2.54153e-05
2.54158e-05
2.54164e-05
2.54171e-05
2.54177e-05
2.54184e-05
2.54191e-05
2.542e-05
2.54209e-05
2.54219e-05
2.54231e-05
2.54243e-05
2.54257e-05
2.54403e-05
2.54404e-05
2.54405e-05
2.54407e-05
2.54408e-05
2.5441e-05
2.54411e-05
2.54412e-05
2.54414e-05
2.54416e-05
2.54418e-05
2.5442e-05
2.54423e-05
2.54425e-05
2.54428e-05
2.5443e-05
2.54433e-05
2.54436e-05
2.54438e-05
2.54441e-05
2.54444e-05
2.54447e-05
2.54451e-05
2.54455e-05
2.5446e-05
2.54465e-05
2.5447e-05
2.54476e-05
2.54483e-05
2.54489e-05
2.54496e-05
2.54504e-05
2.54512e-05
2.54522e-05
2.54532e-05
2.54543e-05
2.54556e-05
2.5457e-05
2.54403e-05
2.54404e-05
2.54406e-05
2.54407e-05
2.54409e-05
2.5441e-05
2.54411e-05
2.54413e-05
2.54414e-05
2.54416e-05
2.54418e-05
2.5442e-05
2.54423e-05
2.54425e-05
2.54428e-05
2.5443e-05
2.54433e-05
2.54435e-05
2.54438e-05
2.54441e-05
2.54443e-05
2.54447e-05
2.5445e-05
2.54454e-05
2.54459e-05
2.54464e-05
2.5447e-05
2.54476e-05
2.54482e-05
2.54489e-05
2.54496e-05
2.54503e-05
2.54512e-05
2.54521e-05
2.54531e-05
2.54543e-05
2.54556e-05
2.5457e-05
2.54093e-05
2.54094e-05
2.54096e-05
2.54097e-05
2.54098e-05
2.541e-05
2.54101e-05
2.54103e-05
2.54104e-05
2.54106e-05
2.54109e-05
2.54111e-05
2.54113e-05
2.54116e-05
2.54118e-05
2.5412e-05
2.54123e-05
2.54125e-05
2.54128e-05
2.54131e-05
2.54134e-05
2.54138e-05
2.54142e-05
2.54147e-05
2.54152e-05
2.54157e-05
2.54163e-05
2.54169e-05
2.54176e-05
2.54183e-05
2.5419e-05
2.54199e-05
2.54208e-05
2.54218e-05
2.5423e-05
2.54242e-05
2.54256e-05
2.52699e-05
2.52701e-05
2.52702e-05
2.52703e-05
2.52705e-05
2.52706e-05
2.52707e-05
2.52709e-05
2.52711e-05
2.52713e-05
2.52715e-05
2.52717e-05
2.52719e-05
2.52721e-05
2.52723e-05
2.52726e-05
2.52728e-05
2.52731e-05
2.52733e-05
2.52736e-05
2.52739e-05
2.52743e-05
2.52747e-05
2.52751e-05
2.52756e-05
2.52761e-05
2.52767e-05
2.52773e-05
2.52779e-05
2.52786e-05
2.52794e-05
2.52802e-05
2.52811e-05
2.52821e-05
2.52832e-05
2.52844e-05
2.52858e-05
2.47494e-05
2.47495e-05
2.47496e-05
2.47497e-05
2.47498e-05
2.475e-05
2.47501e-05
2.47503e-05
2.47504e-05
2.47506e-05
2.47508e-05
2.4751e-05
2.47512e-05
2.47514e-05
2.47516e-05
2.47518e-05
2.4752e-05
2.47523e-05
2.47525e-05
2.47528e-05
2.47531e-05
2.47534e-05
2.47538e-05
2.47542e-05
2.47547e-05
2.47552e-05
2.47557e-05
2.47563e-05
2.47569e-05
2.47576e-05
2.47583e-05
2.47591e-05
2.47599e-05
2.47608e-05
2.47618e-05
2.4763e-05
2.47642e-05
2.29157e-05
2.29158e-05
2.29159e-05
2.29159e-05
2.2916e-05
2.29161e-05
2.29163e-05
2.29164e-05
2.29166e-05
2.29168e-05
2.2917e-05
2.29173e-05
2.29174e-05
2.29176e-05
2.29178e-05
2.2918e-05
2.29182e-05
2.29185e-05
2.29187e-05
2.29191e-05
2.29194e-05
2.29198e-05
2.29202e-05
2.29207e-05
2.29212e-05
2.29217e-05
2.29223e-05
2.29229e-05
2.29235e-05
2.29242e-05
2.2925e-05
2.29258e-05
2.29267e-05
2.29276e-05
2.29286e-05
2.29297e-05
2.29309e-05
1.5722e-05
1.57219e-05
1.57219e-05
1.5722e-05
1.57221e-05
1.57223e-05
1.57225e-05
1.57229e-05
1.57234e-05
1.5724e-05
1.57247e-05
1.57254e-05
1.57262e-05
1.57271e-05
1.57281e-05
1.57292e-05
1.57304e-05
1.57317e-05
1.57331e-05
1.57347e-05
1.57364e-05
1.57383e-05
1.57404e-05
1.57427e-05
1.57451e-05
1.57478e-05
1.57507e-05
1.57539e-05
1.57572e-05
1.57609e-05
1.57649e-05
1.57692e-05
1.57738e-05
1.57789e-05
1.57843e-05
1.57902e-05
1.57966e-05
1.58795e-05
1.58793e-05
1.58792e-05
1.58791e-05
1.58791e-05
1.58792e-05
1.58793e-05
1.58795e-05
1.58798e-05
1.58803e-05
1.58808e-05
1.58815e-05
1.58822e-05
1.5883e-05
1.58839e-05
1.58849e-05
1.58859e-05
1.58872e-05
1.58885e-05
1.58899e-05
1.58915e-05
1.58932e-05
1.5895e-05
1.58971e-05
1.58993e-05
1.59017e-05
1.59043e-05
1.59072e-05
1.59103e-05
1.59137e-05
1.59173e-05
1.59212e-05
1.59254e-05
1.59299e-05
1.59348e-05
1.59402e-05
1.5946e-05
1.59522e-05
2.35154e-05
2.35154e-05
2.35153e-05
2.35153e-05
2.35153e-05
2.35153e-05
2.35153e-05
2.35155e-05
2.35157e-05
2.35159e-05
2.3516e-05
2.35162e-05
2.35164e-05
2.35165e-05
2.35167e-05
2.35169e-05
2.35171e-05
2.35173e-05
2.35175e-05
2.35177e-05
2.3518e-05
2.35182e-05
2.35185e-05
2.35188e-05
2.35191e-05
2.35195e-05
2.35199e-05
2.35204e-05
2.35208e-05
2.35213e-05
2.35218e-05
2.35224e-05
2.35229e-05
2.35235e-05
2.35242e-05
2.3525e-05
2.35259e-05
2.35269e-05
2.5491e-05
2.54911e-05
2.54911e-05
2.54912e-05
2.54912e-05
2.54913e-05
2.54914e-05
2.54915e-05
2.54916e-05
2.54918e-05
2.54919e-05
2.54921e-05
2.54922e-05
2.54924e-05
2.54925e-05
2.54927e-05
2.54928e-05
2.5493e-05
2.54932e-05
2.54934e-05
2.54936e-05
2.54938e-05
2.54941e-05
2.54943e-05
2.54946e-05
2.54949e-05
2.54953e-05
2.54956e-05
2.5496e-05
2.54965e-05
2.54969e-05
2.54974e-05
2.5498e-05
2.54986e-05
2.54992e-05
2.55e-05
2.55009e-05
2.55018e-05
2.60711e-05
2.60712e-05
2.60713e-05
2.60714e-05
2.60714e-05
2.60715e-05
2.60716e-05
2.60717e-05
2.60718e-05
2.6072e-05
2.60721e-05
2.60723e-05
2.60724e-05
2.60726e-05
2.60727e-05
2.60729e-05
2.60731e-05
2.60733e-05
2.60734e-05
2.60736e-05
2.60738e-05
2.60741e-05
2.60743e-05
2.60746e-05
2.60749e-05
2.60752e-05
2.60756e-05
2.6076e-05
2.60764e-05
2.60769e-05
2.60774e-05
2.60779e-05
2.60785e-05
2.60792e-05
2.60799e-05
2.60808e-05
2.60817e-05
2.60827e-05
2.62364e-05
2.62365e-05
2.62366e-05
2.62366e-05
2.62367e-05
2.62368e-05
2.62369e-05
2.6237e-05
2.62371e-05
2.62373e-05
2.62374e-05
2.62375e-05
2.62377e-05
2.62379e-05
2.6238e-05
2.62382e-05
2.62384e-05
2.62386e-05
2.62388e-05
2.6239e-05
2.62392e-05
2.62394e-05
2.62396e-05
2.62399e-05
2.62403e-05
2.62406e-05
2.6241e-05
2.62414e-05
2.62419e-05
2.62423e-05
2.62428e-05
2.62434e-05
2.6244e-05
2.62447e-05
2.62455e-05
2.62464e-05
2.62473e-05
2.62484e-05
2.62761e-05
2.62762e-05
2.62762e-05
2.62763e-05
2.62764e-05
2.62765e-05
2.62766e-05
2.62767e-05
2.62768e-05
2.6277e-05
2.62771e-05
2.62772e-05
2.62774e-05
2.62776e-05
2.62777e-05
2.62779e-05
2.62781e-05
2.62783e-05
2.62785e-05
2.62786e-05
2.62788e-05
2.62791e-05
2.62793e-05
2.62796e-05
2.628e-05
2.62803e-05
2.62807e-05
2.62811e-05
2.62816e-05
2.6282e-05
2.62826e-05
2.62831e-05
2.62838e-05
2.62845e-05
2.62853e-05
2.62861e-05
2.62871e-05
2.62882e-05
2.62761e-05
2.62762e-05
2.62763e-05
2.62764e-05
2.62765e-05
2.62765e-05
2.62766e-05
2.62767e-05
2.62768e-05
2.6277e-05
2.62771e-05
2.62772e-05
2.62774e-05
2.62776e-05
2.62777e-05
2.62779e-05
2.62781e-05
2.62783e-05
2.62784e-05
2.62786e-05
2.62788e-05
2.62791e-05
2.62793e-05
2.62796e-05
2.62799e-05
2.62803e-05
2.62807e-05
2.62811e-05
2.62815e-05
2.6282e-05
2.62825e-05
2.62831e-05
2.62837e-05
2.62844e-05
2.62852e-05
2.62861e-05
2.62871e-05
2.62882e-05
2.62365e-05
2.62366e-05
2.62367e-05
2.62368e-05
2.62369e-05
2.6237e-05
2.62371e-05
2.62372e-05
2.62373e-05
2.62374e-05
2.62376e-05
2.62377e-05
2.62379e-05
2.6238e-05
2.62382e-05
2.62384e-05
2.62385e-05
2.62387e-05
2.62389e-05
2.62391e-05
2.62393e-05
2.62396e-05
2.62399e-05
2.62402e-05
2.62405e-05
2.62409e-05
2.62413e-05
2.62418e-05
2.62422e-05
2.62428e-05
2.62433e-05
2.6244e-05
2.62446e-05
2.62454e-05
2.62463e-05
2.62472e-05
2.62483e-05
2.60713e-05
2.60714e-05
2.60715e-05
2.60715e-05
2.60716e-05
2.60717e-05
2.60718e-05
2.60719e-05
2.6072e-05
2.60722e-05
2.60723e-05
2.60725e-05
2.60726e-05
2.60727e-05
2.60729e-05
2.6073e-05
2.60732e-05
2.60734e-05
2.60735e-05
2.60737e-05
2.6074e-05
2.60742e-05
2.60745e-05
2.60748e-05
2.60751e-05
2.60755e-05
2.60759e-05
2.60763e-05
2.60768e-05
2.60773e-05
2.60778e-05
2.60784e-05
2.60791e-05
2.60798e-05
2.60806e-05
2.60816e-05
2.60826e-05
2.54912e-05
2.54913e-05
2.54913e-05
2.54914e-05
2.54915e-05
2.54916e-05
2.54916e-05
2.54917e-05
2.54919e-05
2.5492e-05
2.54921e-05
2.54923e-05
2.54924e-05
2.54925e-05
2.54926e-05
2.54928e-05
2.54929e-05
2.54931e-05
2.54933e-05
2.54934e-05
2.54937e-05
2.54939e-05
2.54942e-05
2.54944e-05
2.54947e-05
2.54951e-05
2.54955e-05
2.54959e-05
2.54963e-05
2.54968e-05
2.54973e-05
2.54978e-05
2.54984e-05
2.54991e-05
2.54998e-05
2.55007e-05
2.55016e-05
2.35155e-05
2.35155e-05
2.35155e-05
2.35155e-05
2.35156e-05
2.35157e-05
2.35158e-05
2.35159e-05
2.3516e-05
2.35162e-05
2.35163e-05
2.35165e-05
2.35166e-05
2.35167e-05
2.35169e-05
2.3517e-05
2.35171e-05
2.35173e-05
2.35175e-05
2.35178e-05
2.3518e-05
2.35183e-05
2.35186e-05
2.35189e-05
2.35193e-05
2.35197e-05
2.35201e-05
2.35206e-05
2.35211e-05
2.35216e-05
2.35222e-05
2.35228e-05
2.35234e-05
2.3524e-05
2.35247e-05
2.35255e-05
2.35265e-05
1.58792e-05
1.58791e-05
1.58791e-05
1.58791e-05
1.58792e-05
1.58794e-05
1.58797e-05
1.588e-05
1.58805e-05
1.58811e-05
1.58817e-05
1.58825e-05
1.58833e-05
1.58841e-05
1.58851e-05
1.58861e-05
1.58872e-05
1.58885e-05
1.58899e-05
1.58915e-05
1.58932e-05
1.5895e-05
1.5897e-05
1.58992e-05
1.59016e-05
1.59043e-05
1.59071e-05
1.59102e-05
1.59135e-05
1.59171e-05
1.5921e-05
1.59252e-05
1.59298e-05
1.59347e-05
1.59401e-05
1.59458e-05
1.59521e-05
1.59439e-05
1.59437e-05
1.59436e-05
1.59435e-05
1.59435e-05
1.59435e-05
1.59436e-05
1.59438e-05
1.59442e-05
1.59446e-05
1.59451e-05
1.59458e-05
1.59465e-05
1.59473e-05
1.59481e-05
1.59491e-05
1.59501e-05
1.59513e-05
1.59526e-05
1.59541e-05
1.59556e-05
1.59573e-05
1.59591e-05
1.5961e-05
1.59632e-05
1.59656e-05
1.59682e-05
1.5971e-05
1.59741e-05
1.59775e-05
1.5981e-05
1.59848e-05
1.59889e-05
1.59934e-05
1.59982e-05
1.60035e-05
1.60092e-05
1.60153e-05
2.37943e-05
2.37942e-05
2.37942e-05
2.37941e-05
2.37941e-05
2.37941e-05
2.37941e-05
2.37942e-05
2.37944e-05
2.37946e-05
2.37947e-05
2.37948e-05
2.37949e-05
2.37951e-05
2.37952e-05
2.37953e-05
2.37954e-05
2.37956e-05
2.37958e-05
2.3796e-05
2.37962e-05
2.37963e-05
2.37965e-05
2.37968e-05
2.3797e-05
2.37973e-05
2.37977e-05
2.3798e-05
2.37984e-05
2.37988e-05
2.37992e-05
2.37996e-05
2.38e-05
2.38005e-05
2.3801e-05
2.38016e-05
2.38023e-05
2.38031e-05
2.58721e-05
2.58721e-05
2.58721e-05
2.58721e-05
2.58721e-05
2.58722e-05
2.58722e-05
2.58723e-05
2.58724e-05
2.58725e-05
2.58726e-05
2.58727e-05
2.58728e-05
2.58729e-05
2.5873e-05
2.58731e-05
2.58732e-05
2.58733e-05
2.58735e-05
2.58736e-05
2.58737e-05
2.58739e-05
2.58741e-05
2.58742e-05
2.58744e-05
2.58747e-05
2.58749e-05
2.58752e-05
2.58755e-05
2.58758e-05
2.58761e-05
2.58765e-05
2.58769e-05
2.58773e-05
2.58778e-05
2.58784e-05
2.58791e-05
2.58798e-05
2.64979e-05
2.64979e-05
2.6498e-05
2.6498e-05
2.64981e-05
2.64981e-05
2.64982e-05
2.64982e-05
2.64983e-05
2.64984e-05
2.64985e-05
2.64986e-05
2.64987e-05
2.64988e-05
2.64989e-05
2.6499e-05
2.64991e-05
2.64993e-05
2.64994e-05
2.64995e-05
2.64997e-05
2.64998e-05
2.65e-05
2.65002e-05
2.65004e-05
2.65007e-05
2.65009e-05
2.65012e-05
2.65015e-05
2.65019e-05
2.65022e-05
2.65026e-05
2.65031e-05
2.65036e-05
2.65042e-05
2.65048e-05
2.65056e-05
2.65064e-05
2.66835e-05
2.66836e-05
2.66836e-05
2.66837e-05
2.66837e-05
2.66838e-05
2.66839e-05
2.66839e-05
2.6684e-05
2.66841e-05
2.66842e-05
2.66843e-05
2.66844e-05
2.66845e-05
2.66846e-05
2.66847e-05
2.66848e-05
2.6685e-05
2.66851e-05
2.66852e-05
2.66854e-05
2.66855e-05
2.66857e-05
2.66859e-05
2.66862e-05
2.66864e-05
2.66867e-05
2.6687e-05
2.66873e-05
2.66877e-05
2.6688e-05
2.66885e-05
2.6689e-05
2.66895e-05
2.66901e-05
2.66908e-05
2.66916e-05
2.66924e-05
2.67302e-05
2.67302e-05
2.67303e-05
2.67303e-05