/*--------------------------------*- C++ -*----------------------------------*\
| =========                 |                                                 |
| \\      /  F ield         | OpenFOAM: The Open Source CFD Toolbox           |
|  \\    /   O peration     | Version:  2.3.1                                 |
|   \\  /    A nd           | Web:      www.OpenFOAM.org                      |
|    \\/     M anipulation  |                                                 |
\*---------------------------------------------------------------------------*/
FoamFile
{
    version     2.0;
    format      ascii;
    class       volScalarField;
    location    "5";
    object      k_0;
}
// * * * * * * * * * * * * * * * * * * * * * * * * * * * * * * * * * * * * * //

dimensions      [0 2 -2 0 0 0 0];

internalField   nonuniform List<scalar> 
37692
(
9.44755e-06
9.44741e-06
9.44734e-06
9.44734e-06
9.44741e-06
9.44754e-06
9.44776e-06
9.44808e-06
9.44852e-06
9.44907e-06
9.44974e-06
9.45052e-06
9.45142e-06
9.45244e-06
9.45358e-06
9.45484e-06
9.45623e-06
9.45777e-06
9.45948e-06
9.46136e-06
9.46341e-06
9.46562e-06
9.46802e-06
9.47064e-06
9.4735e-06
9.47663e-06
9.48003e-06
9.48374e-06
9.48776e-06
9.4921e-06
9.49676e-06
9.50175e-06
9.50712e-06
9.51291e-06
9.51916e-06
9.52593e-06
9.53326e-06
9.5412e-06
1.11399e-05
1.11399e-05
1.11399e-05
1.11401e-05
1.11403e-05
1.11405e-05
1.11409e-05
1.11415e-05
1.11422e-05
1.1143e-05
1.1144e-05
1.11451e-05
1.11464e-05
1.11478e-05
1.11494e-05
1.1151e-05
1.11529e-05
1.1155e-05
1.11572e-05
1.11597e-05
1.11624e-05
1.11653e-05
1.11684e-05
1.11718e-05
1.11755e-05
1.11795e-05
1.11839e-05
1.11886e-05
1.11938e-05
1.11994e-05
1.12053e-05
1.12117e-05
1.12186e-05
1.12261e-05
1.12342e-05
1.12429e-05
1.12524e-05
1.12627e-05
1.1612e-05
1.1612e-05
1.16121e-05
1.16123e-05
1.16126e-05
1.16129e-05
1.16133e-05
1.16139e-05
1.16147e-05
1.16156e-05
1.16166e-05
1.16178e-05
1.16191e-05
1.16206e-05
1.16222e-05
1.1624e-05
1.16259e-05
1.1628e-05
1.16304e-05
1.16329e-05
1.16356e-05
1.16384e-05
1.16416e-05
1.1645e-05
1.16488e-05
1.16529e-05
1.16573e-05
1.16622e-05
1.16674e-05
1.1673e-05
1.1679e-05
1.16855e-05
1.16924e-05
1.17e-05
1.17081e-05
1.1717e-05
1.17266e-05
1.1737e-05
1.17137e-05
1.17137e-05
1.17138e-05
1.17141e-05
1.17143e-05
1.17147e-05
1.17152e-05
1.17158e-05
1.17165e-05
1.17174e-05
1.17184e-05
1.17196e-05
1.1721e-05
1.17225e-05
1.17242e-05
1.1726e-05
1.17279e-05
1.173e-05
1.17324e-05
1.17348e-05
1.17375e-05
1.17403e-05
1.17434e-05
1.17468e-05
1.17506e-05
1.17548e-05
1.17593e-05
1.17641e-05
1.17694e-05
1.1775e-05
1.1781e-05
1.17874e-05
1.17944e-05
1.18019e-05
1.18101e-05
1.18189e-05
1.18286e-05
1.1839e-05
1.17313e-05
1.17314e-05
1.17315e-05
1.17317e-05
1.17321e-05
1.17324e-05
1.17329e-05
1.17335e-05
1.17342e-05
1.17351e-05
1.17361e-05
1.17373e-05
1.17386e-05
1.17402e-05
1.17419e-05
1.17437e-05
1.17456e-05
1.17478e-05
1.17501e-05
1.17525e-05
1.17551e-05
1.17578e-05
1.17609e-05
1.17644e-05
1.17682e-05
1.17723e-05
1.17768e-05
1.17817e-05
1.1787e-05
1.17926e-05
1.17986e-05
1.1805e-05
1.18119e-05
1.18194e-05
1.18276e-05
1.18364e-05
1.1846e-05
1.18564e-05
1.17339e-05
1.17339e-05
1.17341e-05
1.17343e-05
1.17347e-05
1.17351e-05
1.17356e-05
1.17362e-05
1.17368e-05
1.17377e-05
1.17386e-05
1.17398e-05
1.17412e-05
1.17427e-05
1.17444e-05
1.17463e-05
1.17482e-05
1.17504e-05
1.17526e-05
1.1755e-05
1.17575e-05
1.17603e-05
1.17634e-05
1.17668e-05
1.17706e-05
1.17747e-05
1.17793e-05
1.17841e-05
1.17894e-05
1.1795e-05
1.1801e-05
1.18074e-05
1.18144e-05
1.18219e-05
1.183e-05
1.18388e-05
1.18484e-05
1.18588e-05
1.17338e-05
1.17339e-05
1.17341e-05
1.17344e-05
1.17347e-05
1.17352e-05
1.17357e-05
1.17362e-05
1.17369e-05
1.17377e-05
1.17387e-05
1.17399e-05
1.17413e-05
1.17428e-05
1.17445e-05
1.17463e-05
1.17482e-05
1.17503e-05
1.17526e-05
1.1755e-05
1.17575e-05
1.17603e-05
1.17633e-05
1.17668e-05
1.17706e-05
1.17747e-05
1.17792e-05
1.1784e-05
1.17892e-05
1.17948e-05
1.18008e-05
1.18073e-05
1.18143e-05
1.18218e-05
1.18299e-05
1.18387e-05
1.18483e-05
1.18587e-05
1.17314e-05
1.17316e-05
1.17319e-05
1.17323e-05
1.17327e-05
1.17332e-05
1.17338e-05
1.17344e-05
1.17352e-05
1.17362e-05
1.17375e-05
1.17389e-05
1.17404e-05
1.1742e-05
1.17438e-05
1.17457e-05
1.17478e-05
1.175e-05
1.17524e-05
1.1755e-05
1.17577e-05
1.17608e-05
1.17642e-05
1.1768e-05
1.17721e-05
1.17766e-05
1.17814e-05
1.17866e-05
1.17922e-05
1.17982e-05
1.18047e-05
1.18117e-05
1.18192e-05
1.18273e-05
1.18361e-05
1.18457e-05
1.18561e-05
1.17137e-05
1.1714e-05
1.17143e-05
1.17146e-05
1.1715e-05
1.17156e-05
1.17161e-05
1.17168e-05
1.17177e-05
1.17187e-05
1.172e-05
1.17213e-05
1.17228e-05
1.17244e-05
1.17261e-05
1.1728e-05
1.17301e-05
1.17323e-05
1.17347e-05
1.17373e-05
1.17401e-05
1.17432e-05
1.17466e-05
1.17503e-05
1.17544e-05
1.17588e-05
1.17637e-05
1.17688e-05
1.17744e-05
1.17805e-05
1.1787e-05
1.1794e-05
1.18015e-05
1.18097e-05
1.18185e-05
1.1828e-05
1.18384e-05
1.1612e-05
1.16122e-05
1.16125e-05
1.16128e-05
1.16132e-05
1.16137e-05
1.16144e-05
1.16151e-05
1.1616e-05
1.1617e-05
1.16182e-05
1.16196e-05
1.1621e-05
1.16225e-05
1.16242e-05
1.16261e-05
1.16281e-05
1.16303e-05
1.16327e-05
1.16353e-05
1.16381e-05
1.16412e-05
1.16446e-05
1.16484e-05
1.16524e-05
1.16568e-05
1.16616e-05
1.16668e-05
1.16724e-05
1.16784e-05
1.16849e-05
1.16919e-05
1.16995e-05
1.17076e-05
1.17164e-05
1.1726e-05
1.17363e-05
1.11397e-05
1.11399e-05
1.11402e-05
1.11404e-05
1.11408e-05
1.11413e-05
1.11419e-05
1.11426e-05
1.11434e-05
1.11444e-05
1.11456e-05
1.11468e-05
1.11482e-05
1.11497e-05
1.11514e-05
1.11532e-05
1.11551e-05
1.11573e-05
1.11597e-05
1.11623e-05
1.11651e-05
1.11682e-05
1.11715e-05
1.11752e-05
1.11792e-05
1.11835e-05
1.11882e-05
1.11933e-05
1.11988e-05
1.12048e-05
1.12112e-05
1.12182e-05
1.12257e-05
1.12338e-05
1.12425e-05
1.12519e-05
1.12621e-05
9.44721e-06
9.44724e-06
9.44731e-06
9.44744e-06
9.44763e-06
9.4479e-06
9.44825e-06
9.4487e-06
9.44927e-06
9.44995e-06
9.45076e-06
9.4517e-06
9.45274e-06
9.45389e-06
9.45516e-06
9.45654e-06
9.45806e-06
9.45973e-06
9.46156e-06
9.46356e-06
9.46575e-06
9.46813e-06
9.47072e-06
9.47354e-06
9.47662e-06
9.47997e-06
9.48362e-06
9.48758e-06
9.49186e-06
9.49648e-06
9.50149e-06
9.50689e-06
9.51272e-06
9.519e-06
9.52577e-06
9.53308e-06
9.54099e-06
1.4249e-05
1.42489e-05
1.42488e-05
1.42488e-05
1.42488e-05
1.42489e-05
1.42491e-05
1.42493e-05
1.42497e-05
1.42502e-05
1.42507e-05
1.42514e-05
1.42522e-05
1.4253e-05
1.4254e-05
1.42551e-05
1.42562e-05
1.42575e-05
1.4259e-05
1.42605e-05
1.42622e-05
1.42641e-05
1.42661e-05
1.42683e-05
1.42707e-05
1.42733e-05
1.42761e-05
1.42792e-05
1.42826e-05
1.42862e-05
1.42901e-05
1.42943e-05
1.42988e-05
1.43037e-05
1.43089e-05
1.43146e-05
1.43208e-05
1.43275e-05
1.87173e-05
1.87174e-05
1.87176e-05
1.87178e-05
1.87179e-05
1.87181e-05
1.87183e-05
1.87187e-05
1.87191e-05
1.87196e-05
1.872e-05
1.87205e-05
1.87209e-05
1.87214e-05
1.8722e-05
1.87225e-05
1.8723e-05
1.87237e-05
1.87244e-05
1.87251e-05
1.87259e-05
1.87267e-05
1.87276e-05
1.87285e-05
1.87296e-05
1.87307e-05
1.87319e-05
1.87332e-05
1.87346e-05
1.87361e-05
1.87377e-05
1.87393e-05
1.87411e-05
1.87431e-05
1.87453e-05
1.87477e-05
1.87503e-05
1.87531e-05
2.00065e-05
2.00068e-05
2.0007e-05
2.00072e-05
2.00075e-05
2.00077e-05
2.0008e-05
2.00083e-05
2.00088e-05
2.00093e-05
2.00098e-05
2.00103e-05
2.00108e-05
2.00114e-05
2.0012e-05
2.00126e-05
2.00132e-05
2.00139e-05
2.00146e-05
2.00154e-05
2.00162e-05
2.0017e-05
2.00179e-05
2.00189e-05
2.00201e-05
2.00213e-05
2.00225e-05
2.00239e-05
2.00254e-05
2.0027e-05
2.00286e-05
2.00303e-05
2.00322e-05
2.00343e-05
2.00366e-05
2.00391e-05
2.00419e-05
2.00449e-05
2.03245e-05
2.03248e-05
2.0325e-05
2.03253e-05
2.03256e-05
2.03258e-05
2.03261e-05
2.03265e-05
2.0327e-05
2.03274e-05
2.03279e-05
2.03284e-05
2.0329e-05
2.03297e-05
2.03303e-05
2.03309e-05
2.03315e-05
2.03322e-05
2.0333e-05
2.03337e-05
2.03345e-05
2.03353e-05
2.03362e-05
2.03373e-05
2.03384e-05
2.03397e-05
2.03411e-05
2.03425e-05
2.0344e-05
2.03456e-05
2.03472e-05
2.0349e-05
2.03509e-05
2.03531e-05
2.03554e-05
2.0358e-05
2.03609e-05
2.0364e-05
2.03906e-05
2.03909e-05
2.03911e-05
2.03914e-05
2.03917e-05
2.0392e-05
2.03923e-05
2.03926e-05
2.0393e-05
2.03935e-05
2.03939e-05
2.03945e-05
2.03951e-05
2.03957e-05
2.03964e-05
2.0397e-05
2.03977e-05
2.03984e-05
2.03991e-05
2.03997e-05
2.04004e-05
2.04012e-05
2.04021e-05
2.04032e-05
2.04044e-05
2.04057e-05
2.04071e-05
2.04086e-05
2.04101e-05
2.04117e-05
2.04133e-05
2.04151e-05
2.0417e-05
2.04192e-05
2.04215e-05
2.04241e-05
2.0427e-05
2.04301e-05
2.0402e-05
2.04022e-05
2.04025e-05
2.04028e-05
2.04031e-05
2.04034e-05
2.04037e-05
2.0404e-05
2.04043e-05
2.04047e-05
2.04052e-05
2.04058e-05
2.04064e-05
2.0407e-05
2.04077e-05
2.04083e-05
2.0409e-05
2.04096e-05
2.04103e-05
2.04109e-05
2.04116e-05
2.04123e-05
2.04133e-05
2.04144e-05
2.04156e-05
2.04169e-05
2.04183e-05
2.04197e-05
2.04212e-05
2.04228e-05
2.04245e-05
2.04263e-05
2.04282e-05
2.04304e-05
2.04327e-05
2.04353e-05
2.04381e-05
2.04412e-05
2.0402e-05
2.04023e-05
2.04026e-05
2.04029e-05
2.04032e-05
2.04035e-05
2.04038e-05
2.04041e-05
2.04044e-05
2.04048e-05
2.04052e-05
2.04058e-05
2.04064e-05
2.0407e-05
2.04077e-05
2.04083e-05
2.04089e-05
2.04096e-05
2.04102e-05
2.04108e-05
2.04115e-05
2.04123e-05
2.04132e-05
2.04143e-05
2.04155e-05
2.04168e-05
2.04181e-05
2.04196e-05
2.04211e-05
2.04227e-05
2.04244e-05
2.04262e-05
2.04281e-05
2.04303e-05
2.04326e-05
2.04352e-05
2.0438e-05
2.04411e-05
2.03911e-05
2.03914e-05
2.03917e-05
2.0392e-05
2.03923e-05
2.03926e-05
2.03929e-05
2.03932e-05
2.03936e-05
2.03941e-05
2.03946e-05
2.03952e-05
2.03958e-05
2.03964e-05
2.03969e-05
2.03976e-05
2.03982e-05
2.03988e-05
2.03995e-05
2.04002e-05
2.0401e-05
2.04019e-05
2.04029e-05
2.04041e-05
2.04054e-05
2.04067e-05
2.04081e-05
2.04096e-05
2.04112e-05
2.0413e-05
2.04148e-05
2.04168e-05
2.04189e-05
2.04212e-05
2.04238e-05
2.04266e-05
2.04297e-05
2.03251e-05
2.03255e-05
2.03257e-05
2.0326e-05
2.03263e-05
2.03266e-05
2.03269e-05
2.03272e-05
2.03276e-05
2.03281e-05
2.03287e-05
2.03293e-05
2.03298e-05
2.03303e-05
2.03308e-05
2.03314e-05
2.0332e-05
2.03327e-05
2.03333e-05
2.0334e-05
2.03348e-05
2.03357e-05
2.03368e-05
2.03379e-05
2.03392e-05
2.03405e-05
2.03419e-05
2.03434e-05
2.0345e-05
2.03467e-05
2.03485e-05
2.03505e-05
2.03527e-05
2.0355e-05
2.03575e-05
2.03603e-05
2.03634e-05
2.00071e-05
2.00075e-05
2.00077e-05
2.00079e-05
2.00082e-05
2.00085e-05
2.00088e-05
2.00092e-05
2.00096e-05
2.00101e-05
2.00106e-05
2.00111e-05
2.00116e-05
2.0012e-05
2.00125e-05
2.0013e-05
2.00136e-05
2.00143e-05
2.00149e-05
2.00157e-05
2.00165e-05
2.00173e-05
2.00183e-05
2.00194e-05
2.00206e-05
2.00219e-05
2.00232e-05
2.00247e-05
2.00262e-05
2.00279e-05
2.00297e-05
2.00317e-05
2.00338e-05
2.0036e-05
2.00385e-05
2.00412e-05
2.00442e-05
1.87177e-05
1.8718e-05
1.87182e-05
1.87183e-05
1.87185e-05
1.87188e-05
1.87191e-05
1.87195e-05
1.87199e-05
1.87203e-05
1.87208e-05
1.87212e-05
1.87216e-05
1.87221e-05
1.87225e-05
1.8723e-05
1.87235e-05
1.87241e-05
1.87247e-05
1.87254e-05
1.87262e-05
1.87271e-05
1.8728e-05
1.87291e-05
1.87302e-05
1.87314e-05
1.87327e-05
1.8734e-05
1.87355e-05
1.87371e-05
1.87389e-05
1.87407e-05
1.87427e-05
1.87449e-05
1.87472e-05
1.87498e-05
1.87526e-05
1.42488e-05
1.42488e-05
1.42488e-05
1.42489e-05
1.4249e-05
1.42492e-05
1.42495e-05
1.42499e-05
1.42504e-05
1.42509e-05
1.42516e-05
1.42524e-05
1.42533e-05
1.42543e-05
1.42553e-05
1.42565e-05
1.42578e-05
1.42591e-05
1.42607e-05
1.42623e-05
1.42642e-05
1.42662e-05
1.42684e-05
1.42707e-05
1.42733e-05
1.42762e-05
1.42792e-05
1.42825e-05
1.42861e-05
1.429e-05
1.42942e-05
1.42987e-05
1.43036e-05
1.43089e-05
1.43146e-05
1.43207e-05
1.43274e-05
1.53407e-05
1.53406e-05
1.53405e-05
1.53405e-05
1.53405e-05
1.53406e-05
1.53407e-05
1.5341e-05
1.53413e-05
1.53418e-05
1.53423e-05
1.5343e-05
1.53438e-05
1.53446e-05
1.53456e-05
1.53466e-05
1.53478e-05
1.5349e-05
1.53504e-05
1.5352e-05
1.53536e-05
1.53554e-05
1.53573e-05
1.53595e-05
1.53618e-05
1.53643e-05
1.53671e-05
1.53701e-05
1.53734e-05
1.53769e-05
1.53807e-05
1.53848e-05
1.53891e-05
1.53939e-05
1.5399e-05
1.54046e-05
1.54106e-05
1.54172e-05
2.16334e-05
2.16335e-05
2.16336e-05
2.16337e-05
2.16338e-05
2.16339e-05
2.1634e-05
2.16342e-05
2.16346e-05
2.16349e-05
2.16352e-05
2.16355e-05
2.16358e-05
2.16361e-05
2.16365e-05
2.16368e-05
2.16372e-05
2.16376e-05
2.1638e-05
2.16385e-05
2.1639e-05
2.16394e-05
2.164e-05
2.16406e-05
2.16412e-05
2.16419e-05
2.16427e-05
2.16435e-05
2.16443e-05
2.16452e-05
2.16462e-05
2.16472e-05
2.16483e-05
2.16496e-05
2.16509e-05
2.16524e-05
2.1654e-05
2.16558e-05
2.32648e-05
2.32649e-05
2.32651e-05
2.32653e-05
2.32654e-05
2.32655e-05
2.32657e-05
2.3266e-05
2.32663e-05
2.32666e-05
2.32669e-05
2.32672e-05
2.32676e-05
2.32679e-05
2.32683e-05
2.32686e-05
2.3269e-05
2.32694e-05
2.32698e-05
2.32703e-05
2.32707e-05
2.32712e-05
2.32717e-05
2.32723e-05
2.3273e-05
2.32737e-05
2.32744e-05
2.32752e-05
2.32761e-05
2.3277e-05
2.32779e-05
2.3279e-05
2.32801e-05
2.32813e-05
2.32827e-05
2.32842e-05
2.32858e-05
2.32876e-05
2.37047e-05
2.37048e-05
2.3705e-05
2.37052e-05
2.37054e-05
2.37056e-05
2.37058e-05
2.3706e-05
2.37063e-05
2.37066e-05
2.37069e-05
2.37072e-05
2.37076e-05
2.3708e-05
2.37084e-05
2.37087e-05
2.37091e-05
2.37096e-05
2.371e-05
2.37104e-05
2.37109e-05
2.37113e-05
2.37119e-05
2.37125e-05
2.37132e-05
2.3714e-05
2.37148e-05
2.37156e-05
2.37165e-05
2.37174e-05
2.37184e-05
2.37195e-05
2.37206e-05
2.37219e-05
2.37234e-05
2.37249e-05
2.37267e-05
2.37286e-05
2.38114e-05
2.38116e-05
2.38118e-05
2.3812e-05
2.38122e-05
2.38124e-05
2.38126e-05
2.38128e-05
2.38131e-05
2.38133e-05
2.38136e-05
2.3814e-05
2.38144e-05
2.38148e-05
2.38151e-05
2.38155e-05
2.38159e-05
2.38164e-05
2.38168e-05
2.38172e-05
2.38176e-05
2.38181e-05
2.38186e-05
2.38193e-05
2.382e-05
2.38207e-05
2.38216e-05
2.38225e-05
2.38234e-05
2.38243e-05
2.38253e-05
2.38264e-05
2.38275e-05
2.38289e-05
2.38303e-05
2.38319e-05
2.38337e-05
2.38356e-05
2.38329e-05
2.38331e-05
2.38333e-05
2.38335e-05
2.38337e-05
2.38339e-05
2.38341e-05
2.38343e-05
2.38345e-05
2.38348e-05
2.38351e-05
2.38354e-05
2.38358e-05
2.38362e-05
2.38366e-05
2.3837e-05
2.38374e-05
2.38378e-05
2.38382e-05
2.38386e-05
2.3839e-05
2.38394e-05
2.384e-05
2.38406e-05
2.38414e-05
2.38421e-05
2.3843e-05
2.38438e-05
2.38448e-05
2.38457e-05
2.38467e-05
2.38478e-05
2.3849e-05
2.38503e-05
2.38517e-05
2.38533e-05
2.38551e-05
2.3857e-05
2.38329e-05
2.38331e-05
2.38333e-05
2.38335e-05
2.38337e-05
2.38339e-05
2.38341e-05
2.38343e-05
2.38345e-05
2.38348e-05
2.38351e-05
2.38355e-05
2.38358e-05
2.38362e-05
2.38366e-05
2.3837e-05
2.38374e-05
2.38378e-05
2.38381e-05
2.38385e-05
2.38389e-05
2.38394e-05
2.38399e-05
2.38406e-05
2.38413e-05
2.38421e-05
2.38429e-05
2.38438e-05
2.38447e-05
2.38456e-05
2.38466e-05
2.38477e-05
2.38489e-05
2.38502e-05
2.38517e-05
2.38533e-05
2.3855e-05
2.3857e-05
2.38117e-05
2.38119e-05
2.38121e-05
2.38123e-05
2.38125e-05
2.38127e-05
2.38129e-05
2.38132e-05
2.38134e-05
2.38137e-05
2.38141e-05
2.38144e-05
2.38148e-05
2.38152e-05
2.38155e-05
2.38159e-05
2.38163e-05
2.38166e-05
2.3817e-05
2.38174e-05
2.38179e-05
2.38184e-05
2.38191e-05
2.38198e-05
2.38205e-05
2.38213e-05
2.38222e-05
2.38231e-05
2.38241e-05
2.38251e-05
2.38262e-05
2.38274e-05
2.38287e-05
2.38301e-05
2.38317e-05
2.38334e-05
2.38354e-05
2.3705e-05
2.37053e-05
2.37055e-05
2.37057e-05
2.37058e-05
2.3706e-05
2.37062e-05
2.37065e-05
2.37067e-05
2.3707e-05
2.37074e-05
2.37077e-05
2.37081e-05
2.37084e-05
2.37087e-05
2.3709e-05
2.37094e-05
2.37098e-05
2.37102e-05
2.37106e-05
2.37111e-05
2.37116e-05
2.37122e-05
2.37129e-05
2.37136e-05
2.37144e-05
2.37152e-05
2.37161e-05
2.37171e-05
2.37181e-05
2.37192e-05
2.37204e-05
2.37217e-05
2.37231e-05
2.37246e-05
2.37263e-05
2.37282e-05
2.32652e-05
2.32654e-05
2.32655e-05
2.32657e-05
2.32659e-05
2.32661e-05
2.32663e-05
2.32665e-05
2.32668e-05
2.32671e-05
2.32674e-05
2.32677e-05
2.3268e-05
2.32683e-05
2.32686e-05
2.32689e-05
2.32692e-05
2.32696e-05
2.327e-05
2.32704e-05
2.32709e-05
2.32714e-05
2.3272e-05
2.32726e-05
2.32733e-05
2.3274e-05
2.32748e-05
2.32757e-05
2.32766e-05
2.32775e-05
2.32786e-05
2.32798e-05
2.3281e-05
2.32823e-05
2.32838e-05
2.32854e-05
2.32872e-05
2.16337e-05
2.16339e-05
2.1634e-05
2.16341e-05
2.16342e-05
2.16344e-05
2.16346e-05
2.16348e-05
2.16351e-05
2.16354e-05
2.16357e-05
2.1636e-05
2.16363e-05
2.16365e-05
2.16368e-05
2.16371e-05
2.16374e-05
2.16378e-05
2.16382e-05
2.16386e-05
2.16391e-05
2.16396e-05
2.16402e-05
2.16409e-05
2.16416e-05
2.16423e-05
2.16431e-05
2.1644e-05
2.16449e-05
2.16459e-05
2.16469e-05
2.16481e-05
2.16493e-05
2.16507e-05
2.16521e-05
2.16537e-05
2.16554e-05
1.53404e-05
1.53404e-05
1.53404e-05
1.53405e-05
1.53406e-05
1.53408e-05
1.53411e-05
1.53415e-05
1.5342e-05
1.53426e-05
1.53433e-05
1.5344e-05
1.53449e-05
1.53458e-05
1.53469e-05
1.5348e-05
1.53492e-05
1.53505e-05
1.5352e-05
1.53536e-05
1.53554e-05
1.53574e-05
1.53595e-05
1.53618e-05
1.53644e-05
1.53671e-05
1.53701e-05
1.53733e-05
1.53768e-05
1.53806e-05
1.53847e-05
1.53891e-05
1.53938e-05
1.5399e-05
1.54045e-05
1.54105e-05
1.5417e-05
1.57263e-05
1.57262e-05
1.57261e-05
1.5726e-05
1.5726e-05
1.57261e-05
1.57262e-05
1.57264e-05
1.57268e-05
1.57272e-05
1.57278e-05
1.57284e-05
1.57292e-05
1.573e-05
1.57309e-05
1.57319e-05
1.5733e-05
1.57343e-05
1.57356e-05
1.57371e-05
1.57388e-05
1.57405e-05
1.57424e-05
1.57444e-05
1.57467e-05
1.57491e-05
1.57518e-05
1.57548e-05
1.5758e-05
1.57614e-05
1.57651e-05
1.5769e-05
1.57733e-05
1.57779e-05
1.5783e-05
1.57884e-05
1.57943e-05
1.58007e-05
2.29193e-05
2.29194e-05
2.29194e-05
2.29194e-05
2.29194e-05
2.29194e-05
2.29195e-05
2.29197e-05
2.292e-05
2.29202e-05
2.29204e-05
2.29206e-05
2.29209e-05
2.29211e-05
2.29213e-05
2.29216e-05
2.29218e-05
2.29221e-05
2.29224e-05
2.29227e-05
2.29231e-05
2.29234e-05
2.29238e-05
2.29242e-05
2.29247e-05
2.29252e-05
2.29257e-05
2.29263e-05
2.29269e-05
2.29275e-05
2.29282e-05
2.2929e-05
2.29297e-05
2.29306e-05
2.29315e-05
2.29326e-05
2.29337e-05
2.2935e-05
2.47523e-05
2.47524e-05
2.47525e-05
2.47525e-05
2.47526e-05
2.47527e-05
2.47529e-05
2.4753e-05
2.47532e-05
2.47534e-05
2.47536e-05
2.47538e-05
2.47541e-05
2.47543e-05
2.47545e-05
2.47547e-05
2.4755e-05
2.47552e-05
2.47555e-05
2.47558e-05
2.47561e-05
2.47564e-05
2.47568e-05
2.47572e-05
2.47576e-05
2.47581e-05
2.47586e-05
2.47591e-05
2.47597e-05
2.47603e-05
2.47609e-05
2.47616e-05
2.47623e-05
2.47632e-05
2.47641e-05
2.47652e-05
2.47663e-05
2.47676e-05
2.52725e-05
2.52726e-05
2.52727e-05
2.52728e-05
2.52729e-05
2.52731e-05
2.52732e-05
2.52734e-05
2.52736e-05
2.52737e-05
2.5274e-05
2.52742e-05
2.52744e-05
2.52747e-05
2.52749e-05
2.52751e-05
2.52754e-05
2.52757e-05
2.5276e-05
2.52763e-05
2.52766e-05
2.52769e-05
2.52772e-05
2.52776e-05
2.52781e-05
2.52786e-05
2.52791e-05
2.52797e-05
2.52803e-05
2.52809e-05
2.52816e-05
2.52823e-05
2.52831e-05
2.5284e-05
2.5285e-05
2.52861e-05
2.52874e-05
2.52887e-05
2.54117e-05
2.54118e-05
2.5412e-05
2.54121e-05
2.54122e-05
2.54124e-05
2.54125e-05
2.54127e-05
2.54128e-05
2.5413e-05
2.54132e-05
2.54134e-05
2.54137e-05
2.54139e-05
2.54142e-05
2.54145e-05
2.54147e-05
2.5415e-05
2.54153e-05
2.54155e-05
2.54158e-05
2.54161e-05
2.54165e-05
2.54169e-05
2.54174e-05
2.54179e-05
2.54185e-05
2.54191e-05
2.54197e-05
2.54203e-05
2.5421e-05
2.54218e-05
2.54226e-05
2.54235e-05
2.54246e-05
2.54257e-05
2.5427e-05
2.54284e-05
2.54429e-05
2.5443e-05
2.54431e-05
2.54433e-05
2.54434e-05
2.54435e-05
2.54437e-05
2.54438e-05
2.5444e-05
2.54442e-05
2.54444e-05
2.54446e-05
2.54448e-05
2.54451e-05
2.54454e-05
2.54456e-05
2.54459e-05
2.54461e-05
2.54464e-05
2.54467e-05
2.5447e-05
2.54473e-05
2.54476e-05
2.54481e-05
2.54486e-05
2.54491e-05
2.54496e-05
2.54502e-05
2.54508e-05
2.54515e-05
2.54522e-05
2.5453e-05
2.54538e-05
2.54547e-05
2.54558e-05
2.54569e-05
2.54582e-05
2.54596e-05
2.54429e-05
2.5443e-05
2.54432e-05
2.54433e-05
2.54434e-05
2.54436e-05
2.54437e-05
2.54439e-05
2.5444e-05
2.54442e-05
2.54444e-05
2.54446e-05
2.54449e-05
2.54451e-05
2.54454e-05
2.54456e-05
2.54459e-05
2.54461e-05
2.54464e-05
2.54466e-05
2.54469e-05
2.54472e-05
2.54476e-05
2.5448e-05
2.54485e-05
2.5449e-05
2.54496e-05
2.54502e-05
2.54508e-05
2.54514e-05
2.54522e-05
2.54529e-05
2.54538e-05
2.54547e-05
2.54557e-05
2.54569e-05
2.54581e-05
2.54595e-05
2.54119e-05
2.54121e-05
2.54122e-05
2.54123e-05
2.54125e-05
2.54126e-05
2.54127e-05
2.54129e-05
2.54131e-05
2.54133e-05
2.54135e-05
2.54137e-05
2.5414e-05
2.54142e-05
2.54144e-05
2.54147e-05
2.54149e-05
2.54152e-05
2.54154e-05
2.54157e-05
2.5416e-05
2.54164e-05
2.54168e-05
2.54173e-05
2.54178e-05
2.54183e-05
2.54189e-05
2.54195e-05
2.54202e-05
2.54209e-05
2.54217e-05
2.54225e-05
2.54234e-05
2.54244e-05
2.54256e-05
2.54268e-05
2.54282e-05
2.52727e-05
2.52728e-05
2.5273e-05
2.52731e-05
2.52732e-05
2.52734e-05
2.52735e-05
2.52737e-05
2.52738e-05
2.5274e-05
2.52743e-05
2.52745e-05
2.52747e-05
2.52749e-05
2.52751e-05
2.52753e-05
2.52756e-05
2.52758e-05
2.52761e-05
2.52764e-05
2.52767e-05
2.52771e-05
2.52775e-05
2.52779e-05
2.52784e-05
2.52789e-05
2.52795e-05
2.52801e-05
2.52807e-05
2.52814e-05
2.52822e-05
2.5283e-05
2.52839e-05
2.52849e-05
2.52859e-05
2.52872e-05
2.52885e-05
2.47525e-05
2.47526e-05
2.47527e-05
2.47528e-05
2.47529e-05
2.47531e-05
2.47532e-05
2.47534e-05
2.47535e-05
2.47538e-05
2.4754e-05
2.47542e-05
2.47544e-05
2.47545e-05
2.47547e-05
2.47549e-05
2.47551e-05
2.47554e-05
2.47556e-05
2.47559e-05
2.47562e-05
2.47566e-05
2.47569e-05
2.47573e-05
2.47578e-05
2.47583e-05
2.47588e-05
2.47594e-05
2.476e-05
2.47607e-05
2.47614e-05
2.47622e-05
2.4763e-05
2.47639e-05
2.47649e-05
2.4766e-05
2.47673e-05
2.29195e-05
2.29196e-05
2.29196e-05
2.29197e-05
2.29198e-05
2.29199e-05
2.292e-05
2.29202e-05
2.29204e-05
2.29206e-05
2.29208e-05
2.2921e-05
2.29212e-05
2.29214e-05
2.29216e-05
2.29218e-05
2.2922e-05
2.29222e-05
2.29225e-05
2.29228e-05
2.29232e-05
2.29236e-05
2.2924e-05
2.29244e-05
2.29249e-05
2.29254e-05
2.2926e-05
2.29266e-05
2.29273e-05
2.2928e-05
2.29287e-05
2.29296e-05
2.29304e-05
2.29313e-05
2.29323e-05
2.29334e-05
2.29347e-05
1.5726e-05
1.5726e-05
1.5726e-05
1.5726e-05
1.57261e-05
1.57263e-05
1.57266e-05
1.5727e-05
1.57274e-05
1.5728e-05
1.57287e-05
1.57295e-05
1.57303e-05
1.57312e-05
1.57321e-05
1.57332e-05
1.57344e-05
1.57357e-05
1.57371e-05
1.57387e-05
1.57405e-05
1.57424e-05
1.57444e-05
1.57467e-05
1.57491e-05
1.57518e-05
1.57547e-05
1.57579e-05
1.57613e-05
1.57649e-05
1.57689e-05
1.57732e-05
1.57778e-05
1.57829e-05
1.57883e-05
1.57942e-05
1.58006e-05
1.58834e-05
1.58833e-05
1.58831e-05
1.58831e-05
1.58831e-05
1.58831e-05
1.58832e-05
1.58834e-05
1.58838e-05
1.58842e-05
1.58847e-05
1.58854e-05
1.58861e-05
1.58869e-05
1.58878e-05
1.58888e-05
1.58899e-05
1.58911e-05
1.58924e-05
1.58939e-05
1.58954e-05
1.58971e-05
1.5899e-05
1.5901e-05
1.59032e-05
1.59056e-05
1.59082e-05
1.59111e-05
1.59142e-05
1.59176e-05
1.59212e-05
1.59251e-05
1.59292e-05
1.59338e-05
1.59387e-05
1.5944e-05
1.59498e-05
1.59561e-05
2.35188e-05
2.35188e-05
2.35188e-05
2.35187e-05
2.35187e-05
2.35187e-05
2.35188e-05
2.35189e-05
2.35191e-05
2.35193e-05
2.35195e-05
2.35196e-05
2.35198e-05
2.352e-05
2.35201e-05
2.35203e-05
2.35205e-05
2.35207e-05
2.35209e-05
2.35212e-05
2.35214e-05
2.35217e-05
2.35219e-05
2.35222e-05
2.35226e-05
2.35229e-05
2.35234e-05
2.35238e-05
2.35243e-05
2.35248e-05
2.35253e-05
2.35258e-05
2.35264e-05
2.3527e-05
2.35277e-05
2.35284e-05
2.35293e-05
2.35303e-05
2.54938e-05
2.54939e-05
2.54939e-05
2.5494e-05
2.5494e-05
2.54941e-05
2.54941e-05
2.54943e-05
2.54944e-05
2.54945e-05
2.54947e-05
2.54948e-05
2.5495e-05
2.54951e-05
2.54953e-05
2.54954e-05
2.54956e-05
2.54958e-05
2.5496e-05
2.54962e-05
2.54964e-05
2.54966e-05
2.54968e-05
2.54971e-05
2.54974e-05
2.54977e-05
2.5498e-05
2.54984e-05
2.54988e-05
2.54992e-05
2.54997e-05
2.55002e-05
2.55007e-05
2.55013e-05
2.5502e-05
2.55027e-05
2.55036e-05
2.55045e-05
2.60735e-05
2.60736e-05
2.60737e-05
2.60737e-05
2.60738e-05
2.60739e-05
2.6074e-05
2.60741e-05
2.60742e-05
2.60744e-05
2.60745e-05
2.60746e-05
2.60748e-05
2.6075e-05
2.60751e-05
2.60753e-05
2.60755e-05
2.60756e-05
2.60758e-05
2.6076e-05
2.60762e-05
2.60765e-05
2.60767e-05
2.6077e-05
2.60773e-05
2.60776e-05
2.6078e-05
2.60784e-05
2.60788e-05
2.60793e-05
2.60798e-05
2.60803e-05
2.60809e-05
2.60816e-05
2.60823e-05
2.60831e-05
2.60841e-05
2.60851e-05
2.62386e-05
2.62387e-05
2.62388e-05
2.62389e-05
2.6239e-05
2.6239e-05
2.62391e-05
2.62393e-05
2.62394e-05
2.62395e-05
2.62396e-05
2.62398e-05
2.62399e-05
2.62401e-05
2.62403e-05
2.62404e-05
2.62406e-05
2.62408e-05
2.6241e-05
2.62412e-05
2.62414e-05
2.62416e-05
2.62419e-05
2.62422e-05
2.62425e-05
2.62428e-05
2.62432e-05
2.62436e-05
2.62441e-05
2.62445e-05
2.62451e-05
2.62456e-05
2.62462e-05
2.62469e-05
2.62477e-05
2.62486e-05
2.62495e-05
2.62506e-05
2.62782e-05
2.62783e-05
2.62784e-05
2.62785e-05
2.62786e-05
2.62787e-05
2.62788e-05
2.62789e-05
2.6279e-05
2.62791e-05
2.62793e-05
2.62794e-05
2.62796e-05
2.62797e-05
2.62799e-05
2.62801e-05
2.62803e-05
2.62804e-05
2.62806e-05
2.62808e-05
2.6281e-05
2.62812e-05
2.62815e-05
2.62818e-05
2.62821e-05
2.62825e-05
2.62829e-05
2.62833e-05
2.62837e-05
2.62842e-05
2.62847e-05
2.62853e-05
2.62859e-05
2.62866e-05
2.62874e-05
2.62883e-05
2.62893e-05
2.62904e-05
2.62783e-05
2.62784e-05
2.62784e-05
2.62785e-05
2.62786e-05
2.62787e-05
2.62788e-05
2.62789e-05
2.6279e-05
2.62791e-05
2.62793e-05
2.62794e-05
2.62796e-05
2.62797e-05
2.62799e-05
2.62801e-05
2.62803e-05
2.62804e-05
2.62806e-05
2.62808e-05
2.6281e-05
2.62812e-05
2.62815e-05
2.62818e-05
2.62821e-05
2.62825e-05
2.62828e-05
2.62833e-05
2.62837e-05
2.62842e-05
2.62847e-05
2.62853e-05
2.62859e-05
2.62866e-05
2.62874e-05
2.62883e-05
2.62892e-05
2.62903e-05
2.62387e-05
2.62388e-05
2.62389e-05
2.6239e-05
2.62391e-05
2.62392e-05
2.62393e-05
2.62394e-05
2.62395e-05
2.62397e-05
2.62398e-05
2.624e-05
2.62401e-05
2.62403e-05
2.62404e-05
2.62406e-05
2.62408e-05
2.62409e-05
2.62411e-05
2.62413e-05
2.62416e-05
2.62418e-05
2.62421e-05
2.62424e-05
2.62428e-05
2.62431e-05
2.62435e-05
2.6244e-05
2.62445e-05
2.6245e-05
2.62455e-05
2.62462e-05
2.62469e-05
2.62476e-05
2.62485e-05
2.62495e-05
2.62505e-05
2.60737e-05
2.60738e-05
2.60738e-05
2.60739e-05
2.6074e-05
2.60741e-05
2.60742e-05
2.60743e-05
2.60744e-05
2.60746e-05
2.60747e-05
2.60748e-05
2.6075e-05
2.60751e-05
2.60753e-05
2.60754e-05
2.60756e-05
2.60757e-05
2.60759e-05
2.60761e-05
2.60763e-05
2.60766e-05
2.60769e-05
2.60772e-05
2.60775e-05
2.60779e-05
2.60783e-05
2.60787e-05
2.60791e-05
2.60796e-05
2.60802e-05
2.60808e-05
2.60815e-05
2.60822e-05
2.6083e-05
2.60839e-05
2.6085e-05
2.54939e-05
2.5494e-05
2.54941e-05
2.54942e-05
2.54942e-05
2.54943e-05
2.54944e-05
2.54945e-05
2.54946e-05
2.54948e-05
2.54949e-05
2.5495e-05
2.54952e-05
2.54953e-05
2.54954e-05
2.54955e-05
2.54957e-05
2.54958e-05
2.5496e-05
2.54962e-05
2.54964e-05
2.54966e-05
2.54969e-05
2.54972e-05
2.54975e-05
2.54978e-05
2.54982e-05
2.54986e-05
2.5499e-05
2.54995e-05
2.55e-05
2.55006e-05
2.55012e-05
2.55018e-05
2.55026e-05
2.55034e-05
2.55043e-05
2.35189e-05
2.3519e-05
2.3519e-05
2.3519e-05
2.3519e-05
2.35191e-05
2.35192e-05
2.35193e-05
2.35194e-05
2.35196e-05
2.35198e-05
2.35199e-05
2.35201e-05
2.35202e-05
2.35203e-05
2.35204e-05
2.35206e-05
2.35208e-05
2.3521e-05
2.35212e-05
2.35215e-05
2.35217e-05
2.3522e-05
2.35224e-05
2.35227e-05
2.35231e-05
2.35236e-05
2.3524e-05
2.35245e-05
2.3525e-05
2.35256e-05
2.35262e-05
2.35268e-05
2.35274e-05
2.35282e-05
2.3529e-05
2.35299e-05
1.58831e-05
1.58831e-05
1.5883e-05
1.58831e-05
1.58832e-05
1.58833e-05
1.58836e-05
1.5884e-05
1.58844e-05
1.5885e-05
1.58856e-05
1.58864e-05
1.58872e-05
1.5888e-05
1.5889e-05
1.589e-05
1.58911e-05
1.58924e-05
1.58938e-05
1.58954e-05
1.58971e-05
1.58989e-05
1.5901e-05
1.59032e-05
1.59056e-05
1.59082e-05
1.5911e-05
1.59141e-05
1.59174e-05
1.5921e-05
1.59249e-05
1.59291e-05
1.59337e-05
1.59386e-05
1.59439e-05
1.59497e-05
1.5956e-05
1.59478e-05
1.59476e-05
1.59474e-05
1.59474e-05
1.59473e-05
1.59474e-05
1.59475e-05
1.59477e-05
1.5948e-05
1.59484e-05
1.5949e-05
1.59496e-05
1.59503e-05
1.59511e-05
1.5952e-05
1.59529e-05
1.5954e-05
1.59552e-05
1.59565e-05
1.59579e-05
1.59595e-05
1.59611e-05
1.59629e-05
1.59649e-05
1.5967e-05
1.59694e-05
1.5972e-05
1.59749e-05
1.5978e-05
1.59813e-05
1.59848e-05
1.59886e-05
1.59928e-05
1.59972e-05
1.60021e-05
1.60073e-05
1.6013e-05
1.60191e-05
2.37975e-05
2.37975e-05
2.37974e-05
2.37973e-05
2.37973e-05
2.37973e-05
2.37973e-05
2.37974e-05
2.37976e-05
2.37978e-05
2.37979e-05
2.3798e-05
2.37982e-05
2.37983e-05
2.37984e-05
2.37985e-05
2.37987e-05
2.37988e-05
2.3799e-05
2.37992e-05
2.37994e-05
2.37996e-05
2.37998e-05
2.38e-05
2.38003e-05
2.38006e-05
2.38009e-05
2.38012e-05
2.38016e-05
2.3802e-05
2.38024e-05
2.38028e-05
2.38032e-05
2.38037e-05
2.38042e-05
2.38048e-05
2.38055e-05
2.38063e-05
2.58746e-05
2.58746e-05
2.58746e-05
2.58746e-05
2.58747e-05
2.58747e-05
2.58747e-05
2.58748e-05
2.58749e-05
2.5875e-05
2.58751e-05
2.58752e-05
2.58753e-05
2.58754e-05
2.58755e-05
2.58756e-05
2.58757e-05
2.58758e-05
2.5876e-05
2.58761e-05
2.58763e-05
2.58764e-05
2.58766e-05
2.58767e-05
2.58769e-05
2.58772e-05
2.58774e-05
2.58777e-05
2.5878e-05
2.58783e-05
2.58786e-05
2.5879e-05
2.58794e-05
2.58798e-05
2.58803e-05
2.58809e-05
2.58816e-05
2.58823e-05
2.65e-05
2.65e-05
2.65001e-05
2.65001e-05
2.65002e-05
2.65002e-05
2.65003e-05
2.65004e-05
2.65004e-05
2.65005e-05
2.65006e-05
2.65007e-05
2.65008e-05
2.65009e-05
2.6501e-05
2.65011e-05
2.65013e-05
2.65014e-05
2.65015e-05
2.65017e-05
2.65018e-05
2.6502e-05
2.65021e-05
2.65023e-05
2.65025e-05
2.65028e-05
2.6503e-05
2.65033e-05
2.65036e-05
2.6504e-05
2.65043e-05
2.65047e-05
2.65052e-05
2.65057e-05
2.65063e-05
2.65069e-05
2.65077e-05
2.65085e-05
2.66854e-05
2.66855e-05
2.66856e-05
2.66856e-05
2.66857e-05
2.66857e-05
2.66858e-05
2.66859e-05
2.66859e-05
2.6686e-05
2.66861e-05
2.66862e-05
2.66863e-05
2.66864e-05
2.66865e-05
2.66867e-05
2.66868e-05
2.66869e-05
2.6687e-05
2.66872e-05
2.66873e-05
2.66875e-05
2.66877e-05
2.66879e-05
2.66881e-05
2.66883e-05
2.66886e-05
2.66889e-05
2.66892e-05
2.66896e-05
2.669e-05
2.66904e-05
2.66909e-05
2.66914e-05
2.6692e-05
2.66927e-05
2.66935e-05
2.66944e-05
2.6732e-05
2.67321e-05
2.67322e-05
2.67322e-05
2.67323e-05
2.67324e-05
2.67324e-05
2.67325e-05
2.67326e-05