/*--------------------------------*- C++ -*----------------------------------*\
| =========                 |                                                 |
| \\      /  F ield         | OpenFOAM: The Open Source CFD Toolbox           |
|  \\    /   O peration     | Version:  2.3.1                                 |
|   \\  /    A nd           | Web:      www.OpenFOAM.org                      |
|    \\/     M anipulation  |                                                 |
\*---------------------------------------------------------------------------*/
FoamFile
{
    version     2.0;
    format      ascii;
    class       volScalarField;
    location    "5";
    object      nut;
}
// * * * * * * * * * * * * * * * * * * * * * * * * * * * * * * * * * * * * * //

dimensions      [0 2 -1 0 0 0 0];

internalField   nonuniform List<scalar> 
37692
(
3.8796e-06
3.87957e-06
3.87956e-06
3.87956e-06
3.87957e-06
3.8796e-06
3.87965e-06
3.87971e-06
3.8798e-06
3.87992e-06
3.88006e-06
3.88022e-06
3.8804e-06
3.88061e-06
3.88085e-06
3.88111e-06
3.8814e-06
3.88171e-06
3.88207e-06
3.88245e-06
3.88288e-06
3.88333e-06
3.88383e-06
3.88437e-06
3.88496e-06
3.8856e-06
3.88631e-06
3.88707e-06
3.8879e-06
3.88879e-06
3.88975e-06
3.89078e-06
3.89189e-06
3.89308e-06
3.89436e-06
3.89576e-06
3.89726e-06
3.89889e-06
4.21343e-06
4.21343e-06
4.21344e-06
4.21346e-06
4.2135e-06
4.21355e-06
4.21363e-06
4.21373e-06
4.21387e-06
4.21403e-06
4.21422e-06
4.21443e-06
4.21467e-06
4.21494e-06
4.21523e-06
4.21555e-06
4.2159e-06
4.2163e-06
4.21673e-06
4.2172e-06
4.21771e-06
4.21825e-06
4.21884e-06
4.21949e-06
4.22019e-06
4.22095e-06
4.22179e-06
4.22269e-06
4.22367e-06
4.22473e-06
4.22586e-06
4.22707e-06
4.22837e-06
4.22979e-06
4.23132e-06
4.23297e-06
4.23476e-06
4.23671e-06
4.30206e-06
4.30206e-06
4.30208e-06
4.30212e-06
4.30217e-06
4.30223e-06
4.30231e-06
4.30242e-06
4.30256e-06
4.30273e-06
4.30292e-06
4.30314e-06
4.30339e-06
4.30367e-06
4.30397e-06
4.3043e-06
4.30465e-06
4.30505e-06
4.30548e-06
4.30595e-06
4.30645e-06
4.30699e-06
4.30757e-06
4.30821e-06
4.30891e-06
4.30967e-06
4.3105e-06
4.3114e-06
4.31237e-06
4.31341e-06
4.31453e-06
4.31572e-06
4.31701e-06
4.31841e-06
4.31993e-06
4.32157e-06
4.32335e-06
4.32528e-06
4.32095e-06
4.32095e-06
4.32098e-06
4.32102e-06
4.32107e-06
4.32114e-06
4.32123e-06
4.32134e-06
4.32148e-06
4.32164e-06
4.32183e-06
4.32205e-06
4.3223e-06
4.32259e-06
4.32289e-06
4.32323e-06
4.32359e-06
4.32398e-06
4.32441e-06
4.32487e-06
4.32536e-06
4.32588e-06
4.32646e-06
4.3271e-06
4.3278e-06
4.32856e-06
4.32939e-06
4.33029e-06
4.33127e-06
4.33231e-06
4.33341e-06
4.3346e-06
4.33588e-06
4.33727e-06
4.33879e-06
4.34042e-06
4.34219e-06
4.34412e-06
4.32422e-06
4.32423e-06
4.32426e-06
4.3243e-06
4.32436e-06
4.32443e-06
4.32452e-06
4.32463e-06
4.32477e-06
4.32492e-06
4.32511e-06
4.32533e-06
4.32558e-06
4.32587e-06
4.32618e-06
4.32651e-06
4.32688e-06
4.32727e-06
4.3277e-06
4.32815e-06
4.32862e-06
4.32914e-06
4.32971e-06
4.33034e-06
4.33105e-06
4.33181e-06
4.33265e-06
4.33355e-06
4.33452e-06
4.33556e-06
4.33666e-06
4.33785e-06
4.33913e-06
4.34052e-06
4.34203e-06
4.34366e-06
4.34542e-06
4.34734e-06
4.3247e-06
4.32471e-06
4.32474e-06
4.32478e-06
4.32485e-06
4.32492e-06
4.32502e-06
4.32512e-06
4.32525e-06
4.3254e-06
4.32558e-06
4.3258e-06
4.32606e-06
4.32634e-06
4.32666e-06
4.32699e-06
4.32736e-06
4.32775e-06
4.32817e-06
4.32861e-06
4.32908e-06
4.32959e-06
4.33016e-06
4.3308e-06
4.3315e-06
4.33227e-06
4.3331e-06
4.334e-06
4.33497e-06
4.336e-06
4.33711e-06
4.3383e-06
4.33958e-06
4.34097e-06
4.34247e-06
4.3441e-06
4.34586e-06
4.34778e-06
4.32469e-06
4.32471e-06
4.32474e-06
4.32479e-06
4.32486e-06
4.32494e-06
4.32503e-06
4.32514e-06
4.32526e-06
4.32541e-06
4.32559e-06
4.32581e-06
4.32607e-06
4.32636e-06
4.32666e-06
4.327e-06
4.32736e-06
4.32775e-06
4.32817e-06
4.32861e-06
4.32907e-06
4.32959e-06
4.33016e-06
4.33079e-06
4.33149e-06
4.33225e-06
4.33308e-06
4.33398e-06
4.33494e-06
4.33598e-06
4.33709e-06
4.33828e-06
4.33957e-06
4.34096e-06
4.34246e-06
4.34408e-06
4.34584e-06
4.34776e-06
4.32423e-06
4.32428e-06
4.32433e-06
4.3244e-06
4.32448e-06
4.32457e-06
4.32468e-06
4.3248e-06
4.32495e-06
4.32514e-06
4.32536e-06
4.32562e-06
4.3259e-06
4.3262e-06
4.32653e-06
4.32689e-06
4.32727e-06
4.32769e-06
4.32813e-06
4.3286e-06
4.32912e-06
4.32969e-06
4.33032e-06
4.33101e-06
4.33177e-06
4.3326e-06
4.33349e-06
4.33445e-06
4.33548e-06
4.3366e-06
4.3378e-06
4.33909e-06
4.34048e-06
4.34198e-06
4.3436e-06
4.34536e-06
4.34728e-06
4.32096e-06
4.321e-06
4.32106e-06
4.32112e-06
4.3212e-06
4.3213e-06
4.32141e-06
4.32153e-06
4.32169e-06
4.32188e-06
4.32211e-06
4.32237e-06
4.32264e-06
4.32293e-06
4.32325e-06
4.3236e-06
4.32399e-06
4.32441e-06
4.32485e-06
4.32532e-06
4.32584e-06
4.32641e-06
4.32704e-06
4.32774e-06
4.32849e-06
4.32932e-06
4.33021e-06
4.33116e-06
4.3322e-06
4.33332e-06
4.33452e-06
4.33581e-06
4.33721e-06
4.33871e-06
4.34033e-06
4.3421e-06
4.34401e-06
4.30206e-06
4.3021e-06
4.30216e-06
4.30222e-06
4.30229e-06
4.30239e-06
4.3025e-06
4.30264e-06
4.3028e-06
4.303e-06
4.30322e-06
4.30347e-06
4.30374e-06
4.30403e-06
4.30434e-06
4.30468e-06
4.30506e-06
4.30548e-06
4.30592e-06
4.3064e-06
4.30693e-06
4.30751e-06
4.30814e-06
4.30883e-06
4.30958e-06
4.31041e-06
4.3113e-06
4.31226e-06
4.31329e-06
4.31441e-06
4.31562e-06
4.31692e-06
4.31833e-06
4.31984e-06
4.32147e-06
4.32324e-06
4.32516e-06
4.2134e-06
4.21344e-06
4.21348e-06
4.21353e-06
4.2136e-06
4.21369e-06
4.2138e-06
4.21394e-06
4.2141e-06
4.21429e-06
4.21451e-06
4.21475e-06
4.21502e-06
4.2153e-06
4.21561e-06
4.21595e-06
4.21633e-06
4.21674e-06
4.21719e-06
4.21768e-06
4.21822e-06
4.21881e-06
4.21944e-06
4.22014e-06
4.22089e-06
4.22172e-06
4.22261e-06
4.22358e-06
4.22462e-06
4.22575e-06
4.22697e-06
4.22829e-06
4.22971e-06
4.23124e-06
4.2329e-06
4.23468e-06
4.23661e-06
3.87953e-06
3.87954e-06
3.87955e-06
3.87958e-06
3.87962e-06
3.87967e-06
3.87975e-06
3.87984e-06
3.87996e-06
3.8801e-06
3.88027e-06
3.88046e-06
3.88068e-06
3.88091e-06
3.88117e-06
3.88146e-06
3.88177e-06
3.88212e-06
3.8825e-06
3.88291e-06
3.88336e-06
3.88385e-06
3.88439e-06
3.88497e-06
3.8856e-06
3.88629e-06
3.88705e-06
3.88786e-06
3.88874e-06
3.8897e-06
3.89073e-06
3.89184e-06
3.89304e-06
3.89433e-06
3.89572e-06
3.89723e-06
3.89885e-06
9.53055e-06
9.5305e-06
9.53047e-06
9.53047e-06
9.53048e-06
9.53051e-06
9.53057e-06
9.53065e-06
9.53077e-06
9.53093e-06
9.53113e-06
9.53135e-06
9.53161e-06
9.5319e-06
9.53223e-06
9.53258e-06
9.53298e-06
9.53341e-06
9.53389e-06
9.53442e-06
9.53499e-06
9.53561e-06
9.53629e-06
9.53702e-06
9.53783e-06
9.53871e-06
9.53966e-06
9.54071e-06
9.54184e-06
9.54306e-06
9.54436e-06
9.54577e-06
9.54728e-06
9.54891e-06
9.55068e-06
9.55259e-06
9.55466e-06
9.55691e-06
2.10512e-05
2.10521e-05
2.1053e-05
2.10538e-05
2.10545e-05
2.10551e-05
2.10559e-05
2.1057e-05
2.10583e-05
2.10595e-05
2.10606e-05
2.10617e-05
2.10627e-05
2.10636e-05
2.10645e-05
2.10654e-05
2.10663e-05
2.10673e-05
2.10684e-05
2.10695e-05
2.10706e-05
2.10716e-05
2.10727e-05
2.10739e-05
2.10752e-05
2.10767e-05
2.10782e-05
2.10797e-05
2.10814e-05
2.1083e-05
2.10847e-05
2.10864e-05
2.10883e-05
2.10904e-05
2.10929e-05
2.10956e-05
2.10985e-05
2.11018e-05
2.54689e-05
2.54704e-05
2.54718e-05
2.5473e-05
2.54741e-05
2.54751e-05
2.54763e-05
2.54777e-05
2.54793e-05
2.54809e-05
2.54824e-05
2.54839e-05
2.54854e-05
2.54869e-05
2.54882e-05
2.54895e-05
2.54907e-05
2.54921e-05
2.54936e-05
2.54951e-05
2.54964e-05
2.54978e-05
2.54992e-05
2.5501e-05
2.55029e-05
2.55048e-05
2.55069e-05
2.55091e-05
2.55113e-05
2.55135e-05
2.55157e-05
2.55179e-05
2.55205e-05
2.55234e-05
2.55268e-05
2.55305e-05
2.55345e-05
2.5539e-05
2.66703e-05
2.66719e-05
2.66735e-05
2.66749e-05
2.66762e-05
2.66774e-05
2.66787e-05
2.66802e-05
2.66817e-05
2.66834e-05
2.66849e-05
2.66866e-05
2.66883e-05
2.669e-05
2.66915e-05
2.6693e-05
2.66944e-05
2.66959e-05
2.66973e-05
2.66987e-05
2.66999e-05
2.67012e-05
2.67028e-05
2.67047e-05
2.67068e-05
2.67091e-05
2.67115e-05
2.67139e-05
2.67163e-05
2.67187e-05
2.67209e-05
2.67233e-05
2.6726e-05
2.67292e-05
2.67328e-05
2.67368e-05
2.67412e-05
2.67461e-05
2.69252e-05
2.69268e-05
2.69283e-05
2.69297e-05
2.69311e-05
2.69325e-05
2.69338e-05
2.69351e-05
2.69366e-05
2.6938e-05
2.69396e-05
2.69413e-05
2.69431e-05
2.69449e-05
2.69465e-05
2.6948e-05
2.69495e-05
2.69509e-05
2.69522e-05
2.69533e-05
2.69543e-05
2.69555e-05
2.69571e-05
2.69591e-05
2.69614e-05
2.69638e-05
2.69663e-05
2.69688e-05
2.69713e-05
2.69736e-05
2.69758e-05
2.69782e-05
2.6981e-05
2.69842e-05
2.69878e-05
2.69919e-05
2.69963e-05
2.70012e-05
2.69688e-05
2.69704e-05
2.69719e-05
2.69734e-05
2.69748e-05
2.69762e-05
2.69774e-05
2.69787e-05
2.69799e-05
2.69812e-05
2.69828e-05
2.69845e-05
2.69863e-05
2.69881e-05
2.69897e-05
2.69912e-05
2.69926e-05
2.6994e-05
2.69951e-05
2.69961e-05
2.6997e-05
2.69981e-05
2.69997e-05
2.70018e-05
2.70041e-05
2.70065e-05
2.7009e-05
2.70115e-05
2.70139e-05
2.70162e-05
2.70186e-05
2.70211e-05
2.70239e-05
2.70271e-05
2.70306e-05
2.70345e-05
2.70389e-05
2.70438e-05
2.6969e-05
2.69707e-05
2.69723e-05
2.69739e-05
2.69753e-05
2.69766e-05
2.69778e-05
2.69789e-05
2.698e-05
2.69813e-05
2.69829e-05
2.69846e-05
2.69865e-05
2.69881e-05
2.69897e-05
2.69911e-05
2.69924e-05
2.69937e-05
2.69948e-05
2.69957e-05
2.69966e-05
2.69978e-05
2.69994e-05
2.70014e-05
2.70037e-05
2.70061e-05
2.70085e-05
2.70109e-05
2.70133e-05
2.70156e-05
2.70181e-05
2.70208e-05
2.70236e-05
2.70267e-05
2.70302e-05
2.7034e-05
2.70384e-05
2.70433e-05
2.69279e-05
2.69296e-05
2.69311e-05
2.69325e-05
2.69338e-05
2.6935e-05
2.6936e-05
2.69371e-05
2.69384e-05
2.694e-05
2.69418e-05
2.69436e-05
2.69451e-05
2.69464e-05
2.69477e-05
2.69489e-05
2.69501e-05
2.69513e-05
2.69522e-05
2.69532e-05
2.69544e-05
2.6956e-05
2.6958e-05
2.69601e-05
2.69624e-05
2.69648e-05
2.69671e-05
2.69695e-05
2.69719e-05
2.69745e-05
2.69772e-05
2.69801e-05
2.69832e-05
2.69866e-05
2.69904e-05
2.69948e-05
2.69997e-05
2.66736e-05
2.66753e-05
2.66768e-05
2.66781e-05
2.66793e-05
2.66805e-05
2.66816e-05
2.66827e-05
2.66841e-05
2.66858e-05
2.66875e-05
2.6689e-05
2.66903e-05
2.66914e-05
2.66925e-05
2.66936e-05
2.66948e-05
2.6696e-05
2.6697e-05
2.66981e-05
2.66994e-05
2.67009e-05
2.67027e-05
2.67047e-05
2.67069e-05
2.67092e-05
2.67115e-05
2.67138e-05
2.67162e-05
2.67188e-05
2.67216e-05
2.67245e-05
2.67276e-05
2.67309e-05
2.67347e-05
2.6739e-05
2.67438e-05
2.54721e-05
2.54738e-05
2.5475e-05
2.54761e-05
2.54772e-05
2.54783e-05
2.54795e-05
2.54807e-05
2.5482e-05
2.54835e-05
2.5485e-05
2.54863e-05
2.54874e-05
2.54882e-05
2.54891e-05
2.549e-05
2.5491e-05
2.54921e-05
2.54931e-05
2.54942e-05
2.54955e-05
2.5497e-05
2.54986e-05
2.55004e-05
2.55023e-05
2.55043e-05
2.55064e-05
2.55086e-05
2.55109e-05
2.55133e-05
2.55159e-05
2.55187e-05
2.55216e-05
2.55248e-05
2.55283e-05
2.55322e-05
2.55366e-05
2.10533e-05
2.10544e-05
2.10552e-05
2.10559e-05
2.10566e-05
2.10575e-05
2.10584e-05
2.10594e-05
2.10604e-05
2.10614e-05
2.10624e-05
2.10633e-05
2.1064e-05
2.10646e-05
2.10652e-05
2.10658e-05
2.10665e-05
2.10673e-05
2.10681e-05
2.1069e-05
2.10701e-05
2.10712e-05
2.10724e-05
2.10736e-05
2.1075e-05
2.10765e-05
2.1078e-05
2.10796e-05
2.10813e-05
2.10831e-05
2.10851e-05
2.10872e-05
2.10894e-05
2.10918e-05
2.10943e-05
2.10971e-05
2.11002e-05
9.53046e-06
9.53046e-06
9.53047e-06
9.5305e-06
9.53054e-06
9.53061e-06
9.53071e-06
9.53083e-06
9.531e-06
9.5312e-06
9.53143e-06
9.5317e-06
9.532e-06
9.53232e-06
9.53267e-06
9.53306e-06
9.53349e-06
9.53395e-06
9.53447e-06
9.53503e-06
9.53564e-06
9.53632e-06
9.53705e-06
9.53785e-06
9.53872e-06
9.53967e-06
9.5407e-06
9.54182e-06
9.54302e-06
9.54432e-06
9.54573e-06
9.54725e-06
9.54889e-06
9.55066e-06
9.55257e-06
9.55463e-06
9.55687e-06
9.88964e-06
9.88959e-06
9.88956e-06
9.88955e-06
9.88956e-06
9.88958e-06
9.88963e-06
9.88971e-06
9.88982e-06
9.88997e-06
9.89015e-06
9.89037e-06
9.89062e-06
9.8909e-06
9.89121e-06
9.89154e-06
9.89191e-06
9.89232e-06
9.89278e-06
9.89327e-06
9.89381e-06
9.89439e-06
9.89502e-06
9.8957e-06
9.89646e-06
9.89728e-06
9.89818e-06
9.89915e-06
9.90021e-06
9.90135e-06
9.90258e-06
9.90389e-06
9.90531e-06
9.90685e-06
9.90851e-06
9.91031e-06
9.91226e-06
9.91437e-06
3.51725e-05
3.51736e-05
3.51746e-05
3.51754e-05
3.51762e-05
3.51769e-05
3.51779e-05
3.51795e-05
3.51815e-05
3.51835e-05
3.51852e-05
3.51868e-05
3.51884e-05
3.519e-05
3.51915e-05
3.51929e-05
3.51944e-05
3.51961e-05
3.51979e-05
3.51998e-05
3.52016e-05
3.52034e-05
3.52053e-05
3.52074e-05
3.52097e-05
3.52122e-05
3.52148e-05
3.52176e-05
3.52206e-05
3.52236e-05
3.52266e-05
3.52298e-05
3.52333e-05
3.52372e-05
3.52415e-05
3.52463e-05
3.52516e-05
3.52573e-05
4.84721e-05
4.84743e-05
4.84764e-05
4.84783e-05
4.84801e-05
4.84819e-05
4.84839e-05
4.84865e-05
4.84894e-05
4.84924e-05
4.84953e-05
4.84983e-05
4.85013e-05
4.85043e-05
4.85073e-05
4.85102e-05
4.85132e-05
4.85164e-05
4.85199e-05
4.85233e-05
4.85268e-05
4.85303e-05
4.85341e-05
4.85385e-05
4.85432e-05
4.85483e-05
4.85536e-05
4.85594e-05
4.85653e-05
4.85715e-05
4.85778e-05
4.85845e-05
4.85919e-05
4.86002e-05
4.86094e-05
4.86195e-05
4.86305e-05
4.86426e-05
5.28764e-05
5.2879e-05
5.28816e-05
5.28841e-05
5.28864e-05
5.28887e-05
5.28913e-05
5.28941e-05
5.28972e-05
5.29005e-05
5.29039e-05
5.29074e-05
5.29111e-05
5.29148e-05
5.29185e-05
5.2922e-05
5.29256e-05
5.29294e-05
5.29333e-05
5.29371e-05
5.29408e-05
5.29448e-05
5.29494e-05
5.29547e-05
5.29606e-05
5.29668e-05
5.29735e-05
5.29804e-05
5.29877e-05
5.29951e-05
5.30026e-05
5.30106e-05
5.30195e-05
5.30295e-05
5.30406e-05
5.30528e-05
5.30661e-05
5.30807e-05
5.39691e-05
5.39718e-05
5.39745e-05
5.39771e-05
5.39797e-05
5.39823e-05
5.3985e-05
5.39877e-05
5.39907e-05
5.39939e-05
5.39972e-05
5.40009e-05
5.40049e-05
5.40089e-05
5.40128e-05
5.40166e-05
5.40204e-05
5.40242e-05
5.4028e-05
5.40315e-05
5.40351e-05
5.40391e-05
5.40439e-05
5.40495e-05
5.40558e-05
5.40625e-05
5.40696e-05
5.4077e-05
5.40846e-05
5.40922e-05
5.41001e-05
5.41085e-05
5.41179e-05
5.41283e-05
5.41399e-05
5.41526e-05
5.41665e-05
5.41817e-05
5.4181e-05
5.41838e-05
5.41865e-05
5.41893e-05
5.4192e-05
5.41947e-05
5.41973e-05
5.41999e-05
5.42026e-05
5.42055e-05
5.42089e-05
5.42126e-05
5.42167e-05
5.42207e-05
5.42246e-05
5.42284e-05
5.42322e-05
5.42359e-05
5.42394e-05
5.42428e-05
5.42462e-05
5.42501e-05
5.42549e-05
5.42607e-05
5.4267e-05
5.42738e-05
5.4281e-05
5.42884e-05
5.4296e-05
5.43038e-05
5.43119e-05
5.43205e-05
5.433e-05
5.43405e-05
5.4352e-05
5.43647e-05
5.43787e-05
5.4394e-05
5.41813e-05
5.41843e-05
5.41872e-05
5.41901e-05
5.41928e-05
5.41955e-05
5.4198e-05
5.42004e-05
5.42029e-05
5.42057e-05
5.42091e-05
5.4213e-05
5.42169e-05
5.42208e-05
5.42246e-05
5.42282e-05
5.42319e-05
5.42354e-05
5.42389e-05
5.42421e-05
5.42455e-05
5.42495e-05
5.42543e-05
5.426e-05
5.42663e-05
5.42731e-05
5.42801e-05
5.42874e-05
5.4295e-05
5.43028e-05
5.4311e-05
5.43199e-05
5.43295e-05
5.43399e-05
5.43513e-05
5.43638e-05
5.43778e-05
5.43932e-05
5.39733e-05
5.39764e-05
5.39793e-05
5.39819e-05
5.39845e-05
5.3987e-05
5.39893e-05
5.39918e-05
5.39946e-05
5.39981e-05
5.40019e-05
5.40057e-05
5.40093e-05
5.40127e-05
5.40161e-05
5.40195e-05
5.4023e-05
5.40264e-05
5.40298e-05
5.40332e-05
5.40372e-05
5.4042e-05
5.40474e-05
5.40535e-05
5.40601e-05
5.4067e-05
5.40741e-05
5.40815e-05
5.40894e-05
5.40977e-05
5.41067e-05
5.41163e-05
5.41265e-05
5.41377e-05
5.41501e-05
5.41639e-05
5.41792e-05
5.28812e-05
5.28843e-05
5.2887e-05
5.28894e-05
5.28918e-05
5.28942e-05
5.28966e-05
5.28991e-05
5.2902e-05
5.29054e-05
5.2909e-05
5.29125e-05
5.29156e-05
5.29185e-05
5.29214e-05
5.29245e-05
5.29277e-05
5.29311e-05
5.29344e-05
5.29378e-05
5.29417e-05
5.29462e-05
5.29514e-05
5.2957e-05
5.29631e-05
5.29696e-05
5.29764e-05
5.29834e-05
5.2991e-05
5.2999e-05
5.30076e-05
5.30169e-05
5.30267e-05
5.30374e-05
5.30492e-05
5.30623e-05
5.30769e-05
4.84765e-05
4.84791e-05
4.84812e-05
4.84831e-05
4.84851e-05
4.84872e-05
4.84894e-05
4.84917e-05
4.84943e-05
4.84972e-05
4.85002e-05
4.85029e-05
4.85053e-05
4.85075e-05
4.85097e-05
4.85121e-05
4.85147e-05
4.85174e-05
4.85203e-05
4.85233e-05
4.85267e-05
4.85306e-05
4.85348e-05
4.85393e-05
4.85443e-05
4.85496e-05
4.85553e-05
4.85611e-05
4.85674e-05
4.85741e-05
4.85813e-05
4.85891e-05
4.85974e-05
4.86063e-05
4.8616e-05
4.86267e-05
4.86386e-05
3.51749e-05
3.51763e-05
3.51773e-05
3.51782e-05
3.51792e-05
3.51804e-05
3.51818e-05
3.51832e-05
3.51847e-05
3.51864e-05
3.5188e-05
3.51894e-05
3.51906e-05
3.51917e-05
3.51928e-05
3.51938e-05
3.51951e-05
3.51964e-05
3.51979e-05
3.51995e-05
3.52013e-05
3.52033e-05
3.52054e-05
3.52076e-05
3.52101e-05
3.52127e-05
3.52155e-05
3.52183e-05
3.52214e-05
3.52246e-05
3.52282e-05
3.5232e-05
3.52359e-05
3.52401e-05
3.52445e-05
3.52494e-05
3.5255e-05
9.88954e-06
9.88953e-06
9.88954e-06
9.88956e-06
9.8896e-06
9.88967e-06
9.88976e-06
9.88988e-06
9.89004e-06
9.89023e-06
9.89046e-06
9.89071e-06
9.89099e-06
9.89129e-06
9.89162e-06
9.89198e-06
9.89238e-06
9.89281e-06
9.89329e-06
9.89382e-06
9.8944e-06
9.89503e-06
9.89572e-06
9.89647e-06
9.89729e-06
9.89819e-06
9.89915e-06
9.9002e-06
9.90133e-06
9.90255e-06
9.90387e-06
9.90529e-06
9.90683e-06
9.90849e-06
9.91028e-06
9.91222e-06
9.91433e-06
1.00135e-05
1.00135e-05
1.00134e-05
1.00134e-05
1.00134e-05
1.00134e-05
1.00135e-05
1.00136e-05
1.00137e-05
1.00138e-05
1.0014e-05
1.00142e-05
1.00144e-05
1.00147e-05
1.0015e-05
1.00153e-05
1.00157e-05
1.00161e-05
1.00165e-05
1.0017e-05
1.00175e-05
1.00181e-05
1.00187e-05
1.00193e-05
1.002e-05
1.00208e-05
1.00217e-05
1.00226e-05
1.00236e-05
1.00247e-05
1.00259e-05
1.00272e-05
1.00285e-05
1.003e-05
1.00316e-05
1.00334e-05
1.00353e-05
1.00373e-05
4.42267e-05
4.42275e-05
4.42281e-05
4.42285e-05
4.42289e-05
4.42294e-05
4.42302e-05
4.42318e-05
4.4234e-05
4.4236e-05
4.42376e-05
4.42391e-05
4.42406e-05
4.4242e-05
4.42433e-05
4.42446e-05
4.42458e-05
4.42473e-05
4.42488e-05
4.42504e-05
4.42518e-05
4.42532e-05
4.42547e-05
4.42563e-05
4.42581e-05
4.426e-05
4.42621e-05
4.42643e-05
4.42666e-05
4.42689e-05
4.42711e-05
4.42734e-05
4.42759e-05
4.42783e-05
4.42811e-05
4.42844e-05
4.42881e-05
4.42922e-05
6.73506e-05
6.73526e-05
6.73546e-05
6.73565e-05
6.73583e-05
6.73601e-05
6.73623e-05
6.73651e-05
6.73684e-05
6.73717e-05
6.7375e-05
6.73783e-05
6.73817e-05
6.73851e-05
6.73884e-05
6.73917e-05
6.73952e-05
6.73989e-05
6.74029e-05
6.74069e-05
6.74109e-05
6.7415e-05
6.74195e-05
6.74245e-05
6.74299e-05
6.74358e-05
6.74421e-05
6.74488e-05
6.74558e-05
6.74631e-05
6.74706e-05
6.74786e-05
6.74874e-05
6.74971e-05
6.75079e-05
6.75197e-05
6.75326e-05
6.75468e-05
7.64221e-05
7.64249e-05
7.64278e-05
7.64305e-05
7.64331e-05
7.64358e-05
7.64388e-05
7.64421e-05
7.64458e-05
7.64497e-05
7.64537e-05
7.64579e-05
7.64623e-05
7.64668e-05
7.64713e-05
7.64758e-05
7.64803e-05
7.64851e-05
7.64901e-05
7.6495e-05
7.65e-05
7.65053e-05
7.65113e-05
7.6518e-05
7.65255e-05
7.65335e-05
7.6542e-05
7.65511e-05
7.65605e-05
7.65703e-05
7.65804e-05
7.65913e-05
7.66032e-05
7.66165e-05
7.66312e-05
7.66473e-05
7.66649e-05
7.66841e-05
7.89821e-05
7.89852e-05
7.89882e-05
7.89913e-05
7.89944e-05
7.89974e-05
7.90006e-05
7.9004e-05
7.90076e-05
7.90115e-05
7.90157e-05
7.90202e-05
7.9025e-05
7.90299e-05
7.90348e-05
7.90397e-05
7.90446e-05
7.90497e-05
7.90547e-05
7.90596e-05
7.90647e-05
7.90702e-05
7.90767e-05
7.90841e-05
7.90923e-05
7.91011e-05
7.91105e-05
7.91204e-05
7.91306e-05
7.91412e-05
7.91522e-05
7.91641e-05
7.91771e-05
7.91915e-05
7.92074e-05
7.92248e-05
7.92438e-05
7.92646e-05
7.95326e-05
7.95359e-05
7.95391e-05
7.95423e-05
7.95455e-05
7.95487e-05
7.95519e-05
7.95551e-05
7.95585e-05
7.95622e-05
7.95664e-05
7.9571e-05
7.95759e-05
7.95809e-05
7.95859e-05
7.95908e-05
7.95958e-05
7.96007e-05
7.96056e-05
7.96103e-05
7.96152e-05
7.96208e-05
7.96274e-05
7.9635e-05
7.96434e-05
7.96524e-05
7.9662e-05
7.9672e-05
7.96824e-05
7.96932e-05
7.97045e-05
7.97167e-05
7.97301e-05
7.97447e-05
7.97607e-05
7.97783e-05
7.97976e-05
7.98188e-05
7.95328e-05
7.95364e-05
7.95397e-05
7.95431e-05
7.95463e-05
7.95495e-05
7.95526e-05
7.95557e-05
7.95589e-05
7.95625e-05
7.95667e-05
7.95714e-05
7.95762e-05
7.95811e-05
7.95859e-05
7.95906e-05
7.95954e-05
7.96002e-05
7.9605e-05
7.96096e-05
7.96146e-05
7.96201e-05
7.96267e-05
7.96342e-05
7.96426e-05
7.96515e-05
7.9661e-05
7.96709e-05
7.96813e-05
7.96921e-05
7.97036e-05
7.9716e-05
7.97295e-05
7.9744e-05
7.97599e-05
7.97774e-05
7.97966e-05
7.98179e-05
7.89866e-05
7.89901e-05
7.89934e-05
7.89966e-05
7.89997e-05
7.90027e-05
7.90057e-05
7.90089e-05
7.90125e-05
7.90167e-05
7.90213e-05
7.9026e-05
7.90305e-05
7.90348e-05
7.90392e-05
7.90437e-05
7.90484e-05
7.9053e-05
7.90577e-05
7.90626e-05
7.90681e-05
7.90746e-05
7.90818e-05
7.90899e-05
7.90986e-05
7.91077e-05
7.91174e-05
7.91275e-05
7.91382e-05
7.91497e-05
7.9162e-05
7.91753e-05
7.91895e-05
7.9205e-05
7.92221e-05
7.9241e-05
7.92619e-05
7.64269e-05
7.64304e-05
7.64334e-05
7.64363e-05
7.64391e-05
7.64419e-05
7.64448e-05
7.64479e-05
7.64514e-05
7.64554e-05
7.64597e-05
7.64638e-05
7.64677e-05
7.64714e-05
7.64751e-05
7.64791e-05
7.64833e-05
7.64876e-05
7.6492e-05
7.64967e-05
7.65019e-05
7.65078e-05
7.65144e-05
7.65217e-05
7.65296e-05
7.65379e-05
7.65468e-05
7.65561e-05
7.6566e-05
7.65767e-05
7.65881e-05
7.66004e-05
7.66135e-05
7.66278e-05
7.66435e-05
7.66608e-05
7.668e-05
6.73546e-05
6.73573e-05
6.73595e-05
6.73615e-05
6.73636e-05
6.73659e-05
6.73683e-05
6.73709e-05
6.73738e-05
6.7377e-05
6.73803e-05
6.73833e-05
6.73861e-05
6.73887e-05
6.73913e-05
6.7394e-05
6.7397e-05
6.74002e-05
6.74036e-05
6.74072e-05
6.74113e-05
6.74158e-05
6.74207e-05
6.7426e-05
6.74318e-05
6.7438e-05
6.74446e-05
6.74515e-05
6.74589e-05
6.74668e-05
6.74753e-05
6.74844e-05
6.74942e-05
6.75046e-05
6.75159e-05
6.75284e-05
6.75424e-05
4.42287e-05
4.42299e-05
4.42307e-05
4.42314e-05
4.42322e-05
4.42333e-05
4.42346e-05
4.42359e-05
4.42373e-05
4.42388e-05
4.42403e-05
4.42416e-05
4.42427e-05
4.42435e-05
4.42443e-05
4.42451e-05
4.4246e-05
4.42471e-05
4.42482e-05
4.42496e-05
4.4251e-05
4.42526e-05
4.42542e-05
4.4256e-05
4.42579e-05
4.426e-05
4.42622e-05
4.42644e-05
4.42667e-05
4.42692e-05
4.42718e-05
4.42745e-05
4.42772e-05
4.42796e-05
4.42821e-05
4.42852e-05
4.4289e-05
1.00134e-05
1.00134e-05
1.00134e-05
1.00134e-05
1.00135e-05
1.00135e-05
1.00136e-05
1.00137e-05
1.00139e-05
1.00141e-05
1.00143e-05
1.00145e-05
1.00148e-05
1.00151e-05
1.00154e-05
1.00157e-05
1.00161e-05
1.00165e-05
1.0017e-05
1.00175e-05
1.00181e-05
1.00187e-05
1.00193e-05
1.002e-05
1.00208e-05
1.00217e-05
1.00226e-05
1.00236e-05
1.00247e-05
1.00259e-05
1.00271e-05
1.00285e-05
1.003e-05
1.00316e-05
1.00333e-05
1.00352e-05
1.00373e-05
1.00636e-05
1.00636e-05
1.00635e-05
1.00635e-05
1.00635e-05
1.00635e-05
1.00636e-05
1.00636e-05
1.00637e-05
1.00639e-05
1.0064e-05
1.00642e-05
1.00645e-05
1.00647e-05
1.0065e-05
1.00653e-05
1.00657e-05
1.00661e-05
1.00665e-05
1.00669e-05
1.00674e-05
1.0068e-05
1.00686e-05
1.00692e-05
1.00699e-05
1.00707e-05
1.00715e-05
1.00724e-05
1.00734e-05
1.00745e-05
1.00756e-05
1.00769e-05
1.00782e-05
1.00796e-05
1.00812e-05
1.00829e-05
1.00847e-05
1.00867e-05
4.93078e-05
4.93081e-05
4.93082e-05
4.93082e-05
4.93082e-05
4.93084e-05
4.9309e-05
4.93105e-05
4.93126e-05
4.93145e-05
4.93158e-05
4.9317e-05
4.9318e-05
4.9319e-05
4.93198e-05
4.93206e-05
4.93214e-05
4.93223e-05
4.93233e-05
4.93242e-05
4.9325e-05
4.93256e-05
4.93263e-05
4.9327e-05
4.93279e-05
4.93289e-05
4.93299e-05
4.93311e-05
4.93321e-05
4.93331e-05
4.93339e-05
4.93346e-05
4.93348e-05
4.9335e-05
4.93355e-05
4.93364e-05
4.93375e-05
4.93389e-05
8.05932e-05
8.05947e-05
8.05961e-05
8.05975e-05
8.05989e-05
8.06004e-05
8.06023e-05
8.06048e-05
8.06078e-05
8.06108e-05
8.06136e-05
8.06165e-05
8.06194e-05
8.06223e-05
8.06251e-05
8.06279e-05
8.06309e-05
8.06341e-05
8.06374e-05
8.06409e-05
8.06443e-05
8.06478e-05
8.06516e-05
8.06558e-05
8.06604e-05
8.06654e-05
8.06707e-05
8.06764e-05
8.06824e-05
8.06886e-05
8.06949e-05
8.07017e-05
8.0709e-05
8.0717e-05
8.0726e-05
8.07359e-05
8.07467e-05
8.07587e-05
9.45665e-05
9.45689e-05
9.45713e-05
9.45737e-05
9.45761e-05
9.45785e-05
9.45812e-05
9.45843e-05
9.45876e-05
9.45912e-05
9.45949e-05
9.45987e-05
9.46027e-05
9.46068e-05
9.46109e-05
9.46151e-05
9.46193e-05
9.46238e-05
9.46284e-05
9.46331e-05
9.46379e-05
9.4643e-05
9.46487e-05
9.4655e-05
9.46619e-05
9.46694e-05
9.46774e-05
9.46859e-05
9.46949e-05
9.47042e-05
9.4714e-05
9.47244e-05
9.47359e-05
9.47486e-05
9.47626e-05
9.47779e-05
9.47946e-05
9.48129e-05
9.89208e-05
9.89236e-05
9.89264e-05
9.89292e-05
9.89321e-05
9.89349e-05
9.89379e-05
9.89411e-05
9.89445e-05
9.89481e-05
9.8952e-05
9.89563e-05
9.89607e-05
9.89653e-05
9.897e-05
9.89746e-05
9.89793e-05
9.89842e-05
9.89891e-05
9.89941e-05
9.89991e-05
9.90047e-05
9.9011e-05
9.90182e-05
9.90261e-05
9.90346e-05
9.90437e-05
9.90533e-05
9.90634e-05
9.90739e-05
9.90849e-05
9.90968e-05
9.91098e-05
9.91242e-05
9.914e-05
9.91572e-05
9.91761e-05
9.91968e-05
9.99328e-05
9.99358e-05
9.99388e-05
9.99418e-05
9.99448e-05
9.99478e-05
9.99508e-05
9.99539e-05
9.99572e-05
9.99607e-05
9.99647e-05
9.9969e-05
9.99736e-05
9.99783e-05
9.9983e-05
9.99877e-05
9.99925e-05
9.99974e-05
0.000100002
0.000100007
0.000100012
0.000100018
0.000100024
0.000100032
0.00010004
0.000100049
0.000100058
0.000100068
0.000100078
0.000100089
0.000100101
0.000100113
0.000100126
0.000100141
0.000100157
0.000100175
0.000100194
0.000100216
9.99329e-05
9.99362e-05
9.99393e-05
9.99424e-05
9.99454e-05
9.99484e-05
9.99514e-05
9.99544e-05
9.99575e-05
9.9961e-05
9.99649e-05
9.99693e-05
9.99739e-05
9.99784e-05
9.9983e-05
9.99876e-05
9.99922e-05
9.9997e-05
0.000100002
0.000100007
0.000100012
0.000100017
0.000100024
0.000100031
0.000100039
0.000100048
0.000100057
0.000100067
0.000100077
0.000100088
0.0001001
0.000100112
0.000100126
0.000100141
0.000100157
0.000100174
0.000100194
0.000100215
9.89247e-05
9.89279e-05
9.89309e-05
9.89339e-05
9.89368e-05
9.89397e-05
9.89426e-05
9.89456e-05
9.8949e-05
9.89529e-05
9.89572e-05
9.89615e-05
9.89658e-05
9.897e-05
9.89742e-05
9.89786e-05
9.89831e-05
9.89877e-05
9.89924e-05
9.89973e-05
9.90029e-05
9.90092e-05
9.90163e-05
9.9024e-05
9.90324e-05
9.90414e-05
9.90508e-05
9.90608e-05
9.90714e-05
9.90828e-05
9.9095e-05
9.91082e-05
9.91225e-05
9.9138e-05
9.9155e-05
9.91737e-05
9.91945e-05
9.45705e-05
9.45735e-05
9.45762e-05
9.45788e-05
9.45814e-05
9.4584e-05
9.45867e-05
9.45895e-05
9.45928e-05
9.45964e-05
9.46002e-05
9.4604e-05
9.46076e-05
9.4611e-05
9.46146e-05
9.46183e-05
9.46222e-05
9.46263e-05
9.46305e-05
9.4635e-05
9.464e-05
9.46456e-05
9.46518e-05
9.46586e-05
9.4666e-05
9.46739e-05
9.46822e-05
9.46911e-05
9.47005e-05
9.47107e-05
9.47216e-05
9.47333e-05
9.47459e-05
9.47595e-05
9.47745e-05
9.4791e-05
9.48092e-05
8.05965e-05
8.05986e-05
8.06004e-05
8.06021e-05
8.06038e-05
8.06058e-05
8.06079e-05
8.06101e-05
8.06126e-05
8.06154e-05
8.06182e-05
8.06208e-05
8.06232e-05
8.06253e-05
8.06275e-05
8.06298e-05
8.06322e-05
8.06349e-05
8.06378e-05
8.0641e-05
8.06445e-05
8.06483e-05
8.06524e-05
8.06569e-05
8.06618e-05
8.0667e-05
8.06726e-05
8.06784e-05
8.06847e-05
8.06914e-05
8.06986e-05
8.07062e-05
8.07142e-05
8.07228e-05
8.07322e-05
8.07426e-05
8.07543e-05
4.93095e-05
4.93103e-05
4.93109e-05
4.93112e-05
4.93117e-05
4.93125e-05
4.93135e-05
4.93145e-05
4.93157e-05
4.93169e-05
4.9318e-05
4.93189e-05
4.93196e-05
4.932e-05
4.93203e-05
4.93206e-05
4.93209e-05
4.93214e-05
4.9322e-05
4.93227e-05
4.93235e-05
4.93243e-05
4.93251e-05
4.93259e-05
4.93268e-05
4.93278e-05
4.93289e-05
4.93299e-05
4.93308e-05
4.93317e-05
4.93324e-05
4.9333e-05
4.93334e-05
4.93334e-05
4.93334e-05
4.93338e-05
4.93347e-05
1.00635e-05
1.00635e-05
1.00635e-05
1.00635e-05
1.00635e-05
1.00636e-05
1.00637e-05
1.00638e-05
1.00639e-05
1.00641e-05
1.00643e-05
1.00646e-05
1.00648e-05
1.00651e-05
1.00654e-05
1.00657e-05
1.00661e-05
1.00665e-05
1.00669e-05
1.00674e-05
1.0068e-05
1.00686e-05
1.00692e-05
1.00699e-05
1.00707e-05
1.00715e-05
1.00724e-05
1.00734e-05
1.00744e-05
1.00756e-05
1.00768e-05
1.00782e-05
1.00796e-05
1.00812e-05
1.00829e-05
1.00847e-05
1.00867e-05
1.00841e-05
1.0084e-05
1.0084e-05
1.00839e-05
1.00839e-05
1.0084e-05
1.0084e-05
1.00841e-05
1.00842e-05
1.00843e-05
1.00845e-05
1.00847e-05
1.00849e-05
1.00851e-05
1.00854e-05
1.00857e-05
1.00861e-05
1.00864e-05
1.00868e-05
1.00873e-05
1.00878e-05
1.00883e-05
1.00889e-05
1.00895e-05
1.00902e-05
1.0091e-05
1.00918e-05
1.00927e-05
1.00937e-05
1.00947e-05
1.00959e-05
1.00971e-05
1.00984e-05
1.00998e-05
1.01013e-05
1.0103e-05
1.01048e-05
1.01067e-05
5.18614e-05
5.18612e-05
5.18608e-05
5.18605e-05
5.18603e-05
5.18603e-05
5.18609e-05
5.18623e-05
5.18644e-05
5.1866e-05
5.1867e-05
5.18678e-05
5.18685e-05
5.18691e-05
5.18695e-05
5.18698e-05
5.18701e-05
5.18705e-05
5.1871e-05
5.18714e-05
5.18716e-05
5.18717e-05
5.18716e-05
5.18716e-05
5.18717e-05
5.1872e-05
5.18722e-05
5.18725e-05
5.18726e-05
5.18725e-05
5.18721e-05
5.18714e-05
5.18701e-05
5.18687e-05
5.18673e-05
5.18662e-05
5.18652e-05
5.18644e-05
8.87455e-05
8.87463e-05
8.87471e-05
8.87479e-05
8.87488e-05
8.87498e-05
8.87513e-05
8.87533e-05
8.87558e-05
8.87582e-05
8.87604e-05
8.87625e-05
8.87646e-05
8.87667e-05
8.87687e-05
8.87707e-05
8.87727e-05
8.8775e-05
8.87774e-05
8.87799e-05
8.87823e-05
8.87847e-05
8.87873e-05
8.87901e-05
8.87933e-05
8.87968e-05
8.88006e-05
8.88046e-05
8.88087e-05
8.8813e-05
8.88173e-05
8.88217e-05
8.88266e-05
8.88318e-05
8.88377e-05
8.88442e-05
8.88516e-05
8.88597e-05
0.000106813
0.000106815
0.000106816
0.000106818
0.00010682
0.000106822
0.000106824
0.000106826
0.000106829
0.000106832
0.000106834
0.000106837
0.00010684
0.000106844
0.000106847
0.00010685
0.000106853
0.000106857
0.00010686
0.000106864
0.000106868
0.000106872
0.000106876
0.000106881
0.000106886
0.000106892
0.000106898
0.000106905
0.000106912
0.000106919
0.000106927
0.000106935
0.000106944
0.000106954
0.000106965
0.000106977
0.00010699
0.000107004
0.000112867
0.000112869
0.000112871
0.000112873
0.000112875
0.000112878
0.00011288
0.000112883
0.000112885
0.000112888
0.000112891
0.000112895
0.000112898
0.000112902
0.000112905
0.000112909
0.000112913
0.000112917
0.00011292
0.000112925
0.000112929
0.000112933
0.000112938
0.000112944
0.00011295
0.000112957
0.000112964
0.000112972
0.00011298
0.000112989
0.000112998
0.000113008
0.000113018
0.00011303
0.000113043
0.000113057
0.000113073
0.00011309
0.000114355
0.000114357
0.000114359
0.000114362
0.000114364
0.000114366
0.000114369