/*--------------------------------*- C++ -*----------------------------------*\
| =========                 |                                                 |
| \\      /  F ield         | OpenFOAM: The Open Source CFD Toolbox           |
|  \\    /   O peration     | Version:  2.3.1                                 |
|   \\  /    A nd           | Web:      www.OpenFOAM.org                      |
|    \\/     M anipulation  |                                                 |
\*---------------------------------------------------------------------------*/
FoamFile
{
    version     2.0;
    format      ascii;
    class       surfaceScalarField;
    location    "5";
    object      phi;
}
// * * * * * * * * * * * * * * * * * * * * * * * * * * * * * * * * * * * * * //

dimensions      [0 3 -1 0 0 0 0];

internalField   nonuniform List<scalar> 
108425
(
8.74019e-07
1.01702e-10
-2.36973e-10
8.7423e-07
7.11064e-11
-2.82307e-10
8.74523e-07
4.26615e-11
-3.35009e-10
8.749e-07
2.02271e-11
-3.97647e-10
8.75365e-07
5.69318e-12
-4.70958e-10
8.75925e-07
-3.57709e-12
-5.5635e-10
8.76598e-07
-1.51469e-11
-6.57418e-10
8.7741e-07
-3.57235e-11
-7.76786e-10
8.78388e-07
-6.66939e-11
-9.10707e-10
8.79543e-07
-1.05592e-10
-1.05015e-09
8.80882e-07
-1.50145e-10
-1.18825e-09
8.82406e-07
-2.00319e-10
-1.32375e-09
8.84121e-07
-2.55909e-10
-1.45925e-09
8.86032e-07
-3.1228e-10
-1.59816e-09
8.88138e-07
-3.62527e-10
-1.74412e-09
8.90445e-07
-4.03919e-10
-1.903e-09
8.92966e-07
-4.38427e-10
-2.08256e-09
8.95723e-07
-4.68452e-10
-2.28895e-09
8.9874e-07
-4.93504e-10
-2.52318e-09
9.02031e-07
-5.10636e-10
-2.78017e-09
9.05604e-07
-5.19943e-10
-3.05296e-09
9.09472e-07
-5.28829e-10
-3.33964e-09
9.13665e-07
-5.47458e-10
-3.64536e-09
9.18223e-07
-5.80085e-10
-3.97736e-09
9.23186e-07
-6.22978e-10
-4.34008e-09
9.28591e-07
-6.70319e-10
-4.73474e-09
9.34471e-07
-7.18854e-10
-5.16164e-09
9.40859e-07
-7.66946e-10
-5.62066e-09
9.47781e-07
-8.12285e-10
-6.10993e-09
9.55259e-07
-8.51892e-10
-6.6262e-09
9.63313e-07
-8.85976e-10
-7.16805e-09
9.71975e-07
-9.21607e-10
-7.74005e-09
9.81296e-07
-9.68607e-10
-8.35289e-09
9.91346e-07
-1.03212e-09
-9.01795e-09
1.0022e-06
-1.11105e-09
-9.74374e-09
1.01394e-06
-1.20173e-09
-1.05357e-08
1.02664e-06
-1.30268e-09
-1.13992e-08
-1.41538e-09
-1.234e-08
8.99351e-07
1.12288e-10
-1.44615e-10
8.99567e-07
6.20043e-11
-2.07309e-10
8.99871e-07
1.55291e-11
-2.76892e-10
9.00265e-07
-2.23935e-11
-3.51329e-10
9.0075e-07
-5.00704e-11
-4.28693e-10
9.01329e-07
-6.91827e-11
-5.13249e-10
9.02019e-07
-8.517e-11
-6.20046e-10
9.02848e-07
-1.03834e-10
-7.60924e-10
9.03839e-07
-1.28691e-10
-9.29738e-10
9.05006e-07
-1.61779e-10
-1.11063e-09
9.06352e-07
-2.05043e-10
-1.29122e-09
9.07882e-07
-2.59793e-10
-1.47016e-09
9.09604e-07
-3.23677e-10
-1.6539e-09
9.11524e-07
-3.88609e-10
-1.84364e-09
9.13642e-07
-4.4535e-10
-2.0354e-09
9.15961e-07
-4.89136e-10
-2.23423e-09
9.18496e-07
-5.19257e-10
-2.45395e-09
9.21269e-07
-5.35721e-10
-2.70551e-09
9.24302e-07
-5.37414e-10
-2.98921e-09
9.27608e-07
-5.24419e-10
-3.29252e-09
9.31193e-07
-5.03777e-10
-3.60121e-09
9.35071e-07
-4.90254e-10
-3.91645e-09
9.39275e-07
-4.97422e-10
-4.25347e-09
9.43847e-07
-5.28573e-10
-4.62386e-09
9.48828e-07
-5.77088e-10
-5.02728e-09
9.54253e-07
-6.34014e-10
-5.46075e-09
9.60153e-07
-6.92867e-10
-5.9263e-09
9.66562e-07
-7.49073e-10
-6.4266e-09
9.73508e-07
-7.98414e-10
-6.95995e-09
9.81013e-07
-8.37909e-10
-7.51956e-09
9.89099e-07
-8.70026e-10
-8.10112e-09
9.97797e-07
-9.04436e-10
-8.71572e-09
1.00717e-06
-9.51862e-10
-9.38495e-09
1.01727e-06
-1.01732e-09
-1.01237e-08
1.0282e-06
-1.09994e-09
-1.09364e-08
1.04002e-06
-1.19653e-09
-1.18232e-08
1.05281e-06
-1.30602e-09
-1.27879e-08
-1.43027e-09
-1.38399e-08
9.01969e-07
6.6894e-11
-8.77437e-11
9.02192e-07
6.52313e-12
-1.67602e-10
9.02508e-07
-4.67029e-11
-2.53843e-10
9.02917e-07
-9.19403e-11
-3.38892e-10
9.03416e-07
-1.2746e-10
-4.21439e-10
9.04008e-07
-1.51514e-10
-5.10057e-10
9.04711e-07
-1.6393e-10
-6.24094e-10
9.05549e-07
-1.67548e-10
-7.74824e-10
9.06544e-07
-1.68859e-10
-9.54829e-10
9.07708e-07
-1.76293e-10
-1.14885e-09
9.09046e-07
-1.96416e-10
-1.34659e-09
9.10567e-07
-2.3068e-10
-1.55079e-09
9.12286e-07
-2.74185e-10
-1.76844e-09
9.14209e-07
-3.18059e-10
-1.99331e-09
9.16333e-07
-3.53781e-10
-2.21579e-09
9.18661e-07
-3.75911e-10
-2.44097e-09
9.21206e-07
-3.80369e-10
-2.68377e-09
9.2399e-07
-3.64149e-10
-2.95538e-09
9.27031e-07
-3.26656e-10
-3.25232e-09
9.30336e-07
-2.73231e-10
-3.55615e-09
9.33906e-07
-2.18042e-10
-3.85561e-09
9.37759e-07
-1.78494e-10
-4.16512e-09
9.41938e-07
-1.65606e-10
-4.51046e-09
9.46491e-07
-1.79626e-10
-4.90181e-09
9.51458e-07
-2.13073e-10
-5.33107e-09
9.56872e-07
-2.56668e-10
-5.79093e-09
9.62763e-07
-3.02365e-10
-6.2824e-09
9.69166e-07
-3.43953e-10
-6.80723e-09
9.76106e-07
-3.77393e-10
-7.3611e-09
9.83602e-07
-4.02142e-10
-7.93242e-09
9.91673e-07
-4.22794e-10
-8.51768e-09
1.00035e-06
-4.46986e-10
-9.13773e-09
1.0097e-06
-4.8003e-10
-9.82233e-09
1.0198e-06
-5.235e-10
-1.0588e-08
1.03071e-06
-5.77382e-10
-1.14368e-08
1.04252e-06
-6.41857e-10
-1.23637e-08
1.0553e-06
-7.18087e-10
-1.33708e-08
-8.08252e-10
-1.44695e-08
9.0234e-07
6.66618e-12
-7.72057e-11
9.0257e-07
-5.945e-11
-1.64005e-10
9.02894e-07
-1.1523e-10
-2.55628e-10
9.03311e-07
-1.62673e-10
-3.47007e-10
9.03822e-07
-1.99782e-10
-4.37995e-10
9.04427e-07
-2.22126e-10
-5.35037e-10
9.05142e-07
-2.26459e-10
-6.52061e-10
9.05986e-07
-2.14598e-10
-7.96637e-10
9.06977e-07
-1.95076e-10
-9.654e-10
9.08131e-07
-1.79606e-10
-1.15021e-09
9.09457e-07
-1.76772e-10
-1.34615e-09
9.10972e-07
-1.86058e-10
-1.55911e-09
9.1269e-07
-2.00525e-10
-1.79225e-09
9.14618e-07
-2.12589e-10
-2.03329e-09
9.16752e-07
-2.16987e-10
-2.27089e-09
9.19094e-07
-2.09236e-10
-2.50861e-09
9.21656e-07
-1.84729e-10
-2.75766e-09
9.24458e-07
-1.40104e-10
-3.02529e-09
9.27511e-07
-7.65643e-11
-3.30328e-09
9.30815e-07
-3.14073e-12
-3.57402e-09
9.34369e-07
6.67237e-11
-3.83882e-09
9.38198e-07
1.18055e-10
-4.12587e-09
9.42353e-07
1.45214e-10
-4.46615e-09
9.46889e-07
1.50329e-10
-4.86529e-09
9.51845e-07
1.39533e-10
-5.30907e-09
9.57255e-07
1.1992e-10
-5.78613e-09
9.63148e-07
9.8175e-11
-6.29345e-09
9.69554e-07
7.89926e-11
-6.82901e-09
9.76498e-07
6.34431e-11
-7.38467e-09
9.83993e-07
4.8668e-11
-7.94661e-09
9.92057e-07
3.02999e-11
-8.51658e-09
1.00073e-06
6.65284e-12
-9.12392e-09
1.01007e-06
-1.90346e-11
-9.8014e-09
1.02015e-06
-4.47662e-11
-1.05637e-08
1.03106e-06
-7.22483e-11
-1.14104e-08
1.04286e-06
-1.0623e-10
-1.23351e-08
1.05563e-06
-1.50859e-10
-1.33396e-08
-2.08522e-10
-1.44375e-08
9.02353e-07
-4.06935e-11
-1.00147e-10
9.02591e-07
-1.13587e-10
-1.83652e-10
9.02921e-07
-1.72909e-10
-2.72457e-10
9.03347e-07
-2.19991e-10
-3.6847e-10
9.0387e-07
-2.5338e-10
-4.69345e-10
9.04492e-07
-2.69905e-10
-5.74494e-10
9.05222e-07
-2.66947e-10
-6.89568e-10
9.06074e-07
-2.46076e-10
-8.19752e-10
9.07062e-07
-2.15609e-10
-9.67967e-10
9.08205e-07
-1.87557e-10
-1.13536e-09
9.09522e-07
-1.68343e-10
-1.32465e-09
9.11032e-07
-1.55062e-10
-1.54108e-09
9.12752e-07
-1.39833e-10
-1.78064e-09
9.14685e-07
-1.17433e-10
-2.02835e-09
9.16829e-07
-8.65748e-11
-2.27433e-09
9.19185e-07
-4.67646e-11
-2.51908e-09
9.21765e-07
3.37296e-12
-2.76822e-09
9.24584e-07
6.57191e-11
-3.02405e-09
9.27645e-07
1.37419e-10
-3.2756e-09
9.30943e-07
2.10771e-10
-3.51182e-09
9.3448e-07
2.75737e-10
-3.74581e-09
9.38288e-07
3.25942e-10
-4.01589e-09
9.42424e-07
3.6126e-10
-4.3525e-09
9.46946e-07
3.84743e-10
-4.75587e-09
9.51894e-07
3.99382e-10
-5.20828e-09
9.57302e-07
4.08116e-10
-5.69555e-09
9.63196e-07
4.14041e-10
-6.21056e-09
9.69605e-07
4.18223e-10
-6.74801e-09
9.76549e-07
4.17528e-10
-7.29812e-09
9.84041e-07
4.06563e-10
-7.8498e-09
9.92099e-07
3.8379e-10
-8.41185e-09
1.00077e-06
3.55385e-10
-9.01631e-09
1.01011e-06
3.31159e-10
-9.6904e-09
1.02019e-06
3.15701e-10
-1.04442e-08
1.03109e-06
3.05093e-10
-1.12776e-08
1.04288e-06
2.90756e-10
-1.21878e-08
1.05564e-06
2.66234e-10
-1.31797e-08
2.29314e-10
-1.42654e-08
9.02305e-07
-6.88968e-11
-1.3137e-10
9.02553e-07
-1.46645e-10
-2.1486e-10
9.02892e-07
-2.07831e-10
-3.04412e-10
9.03329e-07
-2.50951e-10
-4.06091e-10
9.03867e-07
-2.76805e-10
-5.14039e-10
9.04506e-07
-2.86481e-10
-6.22683e-10
9.05251e-07
-2.80001e-10
-7.32174e-10
9.0611e-07
-2.58712e-10
-8.46216e-10
9.07096e-07
-2.28523e-10
-9.73557e-10
9.08232e-07
-1.97418e-10
-1.12549e-09
9.09543e-07
-1.681e-10
-1.31118e-09
9.11054e-07
-1.35048e-10
-1.53148e-09
9.12779e-07
-9.08711e-11
-1.77415e-09
9.14719e-07
-3.37512e-11
-2.02331e-09
9.16871e-07
3.2478e-11
-2.27085e-09
9.19237e-07
1.02605e-10
-2.51563e-09
9.21828e-07
1.72907e-10
-2.76003e-09
9.24654e-07
2.41793e-10
-3.00223e-09
9.27716e-07
3.07341e-10
-3.23206e-09
9.31006e-07
3.66469e-10
-3.44567e-09
9.3453e-07
4.17125e-10
-3.66529e-09
9.38326e-07
4.60886e-10
-3.93079e-09
9.42453e-07
5.01834e-10
-4.26772e-09
9.46967e-07
5.42155e-10
-4.67187e-09
9.51911e-07
5.80726e-10
-5.12525e-09
9.57316e-07
6.15771e-10
-5.61303e-09
9.6321e-07
6.46191e-10
-6.1254e-09
9.69614e-07
6.69358e-10
-6.65556e-09
9.76549e-07
6.79367e-10
-7.19669e-09
9.8403e-07
6.70811e-10
-7.74563e-09
9.92084e-07
6.45889e-10
-8.31578e-09
1.00076e-06
6.15825e-10
-8.93216e-09
1.0101e-06
5.93224e-10
-9.61023e-09
1.02019e-06
5.82976e-10
-1.03553e-08
1.03109e-06
5.80596e-10
-1.11726e-08
1.04287e-06
5.77183e-10
-1.20686e-08
1.05562e-06
5.6611e-10
-1.30526e-08
5.44636e-10
-1.41337e-08
9.0224e-07
-1.47993e-10
9.02501e-07
-1.6235e-10
-2.45482e-10
9.02856e-07
-2.1691e-10
-3.45637e-10
9.03308e-07
-2.50214e-10
-4.52786e-10
9.03859e-07
-2.66246e-10
-5.6188e-10
9.04512e-07
-2.70116e-10
-6.69334e-10
9.0527e-07
-2.64034e-10
-7.73606e-10
9.06136e-07
-2.4843e-10
-8.76341e-10
9.07123e-07
-2.24955e-10
-9.9011e-10
9.08256e-07
-1.95473e-10
-1.13524e-09
9.0957e-07
-1.57768e-10
-1.32445e-09
9.11091e-07
-1.05561e-10
-1.55055e-09
9.12827e-07
-3.45358e-11
-1.7924e-09
9.14774e-07
5.23078e-11
-2.03339e-09
9.16929e-07
1.46726e-10
-2.26932e-09
9.19296e-07
2.39344e-10
-2.50317e-09
9.21885e-07
3.22334e-10
-2.73851e-09
9.24708e-07
3.91911e-10
-2.97281e-09
9.27764e-07
4.472e-10
-3.19597e-09
9.31046e-07
4.9023e-10
-3.40641e-09
9.34565e-07
5.26262e-10
-3.62759e-09
9.38359e-07
5.63204e-10
-3.89644e-09
9.42486e-07
6.0791e-10
-4.23309e-09
9.46999e-07
6.61348e-10
-4.63237e-09
9.5194e-07
7.18813e-10
-5.07936e-09
9.57342e-07
7.74123e-10
-5.56009e-09
9.63229e-07
8.22251e-10
-6.063e-09
9.69622e-07
8.58315e-10
-6.58155e-09
9.7654e-07
8.76629e-10
-7.11557e-09
9.84008e-07
8.74189e-10
-7.67083e-09
9.92058e-07
8.55511e-10
-8.25992e-09
1.00074e-06
8.31582e-10
-8.89482e-09
1.0101e-06
8.13237e-10
-9.57885e-09
1.02019e-06
8.05339e-10
-1.03166e-08
1.03109e-06
8.06358e-10
-1.11214e-08
1.04286e-06
8.11242e-10
-1.20092e-08
1.0556e-06
8.15564e-10
-1.29933e-08
8.15172e-10
-1.40813e-08
9.02446e-07
-1.65962e-10
-2.73285e-10
9.02819e-07
-2.0293e-10
-3.87313e-10
9.03286e-07
-2.21131e-10
-4.96022e-10
9.03847e-07
-2.26453e-10
-6.01045e-10
9.04508e-07
-2.25102e-10
-7.05983e-10
9.05274e-07
-2.19762e-10
-8.09609e-10
9.06146e-07
-2.09522e-10
-9.11132e-10
9.07137e-07
-1.91274e-10
-1.02461e-09
9.08277e-07
-1.60252e-10
-1.17501e-09
9.09603e-07
-1.10786e-10
-1.37353e-09
9.1114e-07
-3.91843e-11
-1.60372e-09
9.12891e-07
5.24515e-11
-1.83702e-09
9.14844e-07
1.57026e-10
-2.05847e-09
9.16997e-07
2.652e-10
-2.27117e-09
9.19354e-07
3.67611e-10
-2.48573e-09
9.21931e-07
4.55971e-10
-2.71054e-09
9.24742e-07
5.25249e-10
-2.94378e-09
9.27788e-07
5.74051e-10
-3.17319e-09
9.31066e-07
6.0615e-10
-3.39364e-09
9.34586e-07
6.31258e-10
-3.62525e-09
9.38387e-07
6.6206e-10
-3.89998e-09
9.42521e-07
7.07912e-10
-4.23398e-09
9.47037e-07
7.69674e-10
-4.62435e-09
9.51977e-07
8.40612e-10
-5.06114e-09
9.57372e-07
9.11013e-10
-5.53266e-09
9.63249e-07
9.72503e-10
-6.02706e-09
9.69627e-07
1.01924e-09
-6.53861e-09
9.76528e-07
1.04772e-09
-7.07219e-09
9.83982e-07
1.05784e-09
-7.63805e-09
9.92029e-07
1.05383e-09
-8.24519e-09
1.00071e-06
1.04292e-09
-8.89568e-09
1.01008e-06
1.03272e-09
-9.58665e-09
1.02018e-06
1.02908e-09
-1.03246e-08
1.03108e-06
1.03557e-09
-1.11274e-08
1.04285e-06
1.0529e-09
-1.20153e-08
1.05559e-06
1.07984e-09
-1.30036e-08
1.11164e-09
-1.41006e-08
9.02347e-07
-1.60084e-10
-2.99463e-10
9.02737e-07
-1.72233e-10
-4.20629e-10
9.03215e-07
-1.73516e-10
-5.25047e-10
9.0378e-07
-1.68414e-10
-6.23633e-10
9.04443e-07
-1.60781e-10
-7.27231e-10
9.05211e-07
-1.52127e-10
-8.35905e-10
9.06089e-07
-1.40358e-10
-9.47171e-10
9.0709e-07
-1.18753e-10
-1.07349e-09
9.08246e-07
-7.82644e-11
-1.23728e-09
9.09592e-07
-1.31177e-11
-1.4438e-09
9.11148e-07
7.44922e-11
-1.66992e-09
9.12911e-07
1.76535e-10
-1.88666e-09
9.14868e-07
2.83755e-10
-2.08369e-09
9.17015e-07
3.8887e-10
-2.27071e-09
9.1936e-07
4.86834e-10
-2.46421e-09
9.2192e-07
5.72713e-10
-2.67691e-09
9.24713e-07
6.40975e-10
-2.90901e-09
9.27746e-07
6.87699e-10
-3.14672e-09
9.31019e-07
7.15319e-10
-3.38164e-09
9.34544e-07
7.34892e-10
-3.62918e-09
9.38358e-07
7.61923e-10
-3.91382e-09
9.42505e-07
8.08098e-10
-4.2472e-09
9.47028e-07
8.74845e-10
-4.62851e-09
9.51967e-07
9.55131e-10
-5.05335e-09
9.57356e-07
1.03773e-09
-5.51532e-09
9.63221e-07
1.11227e-09
-6.00494e-09
9.69585e-07
1.17234e-09
-6.51671e-09
9.76472e-07
1.2157e-09
-7.05515e-09
9.83916e-07
1.24383e-09
-7.62975e-09
9.91958e-07
1.26018e-09
-8.24839e-09
1.00064e-06
1.26881e-09
-8.91115e-09
1.01002e-06
1.27491e-09
-9.61478e-09
1.02012e-06
1.28515e-09
-1.03656e-08
1.03103e-06
1.30695e-09
-1.11789e-08
1.04281e-06
1.34578e-09
-1.2074e-08
1.05556e-06
1.40361e-09
-1.30665e-08
1.4777e-09
-1.41669e-08
9.01911e-07
-1.42222e-10
-3.23342e-10
9.02311e-07
-1.3022e-10
-4.41314e-10
9.02792e-07
-1.18447e-10
-5.36659e-10
9.03358e-07
-1.05977e-10
-6.28036e-10
9.04019e-07
-9.1681e-11
-7.30485e-10
9.04788e-07
-7.49129e-11
-8.45879e-10
9.05672e-07
-5.34269e-11
-9.71082e-10
9.06687e-07
-2.0458e-11
-1.1133e-09
9.07862e-07
3.28883e-11
-1.28611e-09
9.09227e-07
1.09471e-10
-1.48786e-09
9.10796e-07
2.01959e-10
-1.69658e-09
9.12565e-07
2.98542e-10
-1.8901e-09
9.14522e-07
3.90579e-10
-2.06387e-09
9.16664e-07
4.75237e-10
-2.22901e-09
9.19e-07
5.52856e-10
-2.40165e-09
9.21546e-07
6.23007e-10
-2.59628e-09
9.24322e-07
6.81905e-10
-2.81729e-09
9.27341e-07
7.24463e-10
-3.05507e-09
9.30607e-07
7.5146e-10
-3.30302e-09
9.3414e-07
7.73197e-10
-3.5712e-09
9.37971e-07
8.03759e-10
-3.87236e-09
9.42136e-07
8.52458e-10
-4.20932e-09
9.46671e-07
9.20643e-10
-4.58111e-09
9.51613e-07
1.00319e-09
-4.98971e-09
9.56996e-07
1.09096e-09
-5.43675e-09
9.62852e-07
1.17433e-09
-5.91773e-09
9.69206e-07
1.24633e-09
-6.42759e-09
9.76084e-07
1.30438e-09
-6.96729e-09
9.83521e-07
1.35072e-09
-7.54391e-09
9.91559e-07
1.38941e-09
-8.16716e-09
1.00024e-06
1.4237e-09
-8.83973e-09
1.00962e-06
1.45686e-09
-9.55964e-09
1.01974e-06
1.49377e-09
-1.03295e-08
1.03067e-06
1.54143e-09
-1.11573e-08
1.04246e-06
1.60702e-09
-1.20578e-08
1.05522e-06
1.69559e-09
-1.30467e-08
1.80879e-09
-1.41379e-08
8.99232e-07
-9.74848e-11
-3.57547e-10
8.99636e-07
-7.77375e-11
-4.55531e-10
9.00116e-07
-6.42928e-11
-5.34757e-10
9.00677e-07
-5.23506e-11
-6.14583e-10
9.01332e-07
-3.7831e-11
-7.08726e-10
9.02096e-07
-1.90828e-11
-8.19909e-10
9.02983e-07
4.93452e-12
-9.45135e-10
9.04009e-07
3.91392e-11
-1.08587e-09
9.052e-07
8.71273e-11
-1.24499e-09
9.06578e-07
1.48748e-10
-1.41791e-09
9.08155e-07
2.1675e-10
-1.59161e-09
9.09927e-07
2.82031e-10
-1.75555e-09
9.11888e-07
3.39237e-10
-1.90883e-09
9.14033e-07
3.8793e-10
-2.05781e-09
9.16367e-07
4.30685e-10
-2.21267e-09
9.18907e-07
4.70195e-10
-2.38635e-09
9.2167e-07
5.05922e-10
-2.58747e-09
9.24675e-07
5.34648e-10
-2.81503e-09
9.27937e-07
5.56496e-10
-3.06702e-09
9.31478e-07
5.77977e-10
-3.34623e-09
9.35328e-07
6.07105e-10
-3.65273e-09
9.39514e-07
6.47887e-10
-3.98178e-09
9.44067e-07
7.00287e-10
-4.33204e-09
9.49018e-07
7.62164e-10
-4.71045e-09
9.54405e-07
8.2918e-10
-5.12499e-09
9.6026e-07
8.95375e-10
-5.57651e-09
9.66614e-07
9.55471e-10
-6.06249e-09
9.73493e-07
1.00711e-09
-6.58213e-09
9.80932e-07
1.05229e-09
-7.14028e-09
9.88973e-07
1.09521e-09
-7.74672e-09
9.97663e-07
1.1386e-09
-8.40546e-09
1.00705e-06
1.1837e-09
-9.11529e-09
1.01719e-06
1.23201e-09
-9.87519e-09
1.02813e-06
1.28671e-09
-1.0687e-08
1.03994e-06
1.35301e-09
-1.15606e-08
1.05271e-06
1.43633e-09
-1.251e-08
1.54101e-09
-1.35493e-08
8.73848e-07
-4.15666e-10
8.74252e-07
-4.82544e-10
8.74731e-07
-5.42908e-10
8.75286e-07
-6.07564e-10
8.75932e-07
-6.83496e-10
8.76685e-07
-7.72225e-10
8.77562e-07
-8.71863e-10
8.78582e-07
-9.80656e-10
8.79768e-07
-1.099e-09
8.81142e-07
-1.2251e-09
8.82713e-07
-1.35492e-09
8.84481e-07
-1.48535e-09
8.86437e-07
-1.61672e-09
8.88577e-07
-1.75219e-09
8.90904e-07
-1.8968e-09
8.93432e-07
-2.05721e-09
8.96178e-07
-2.24027e-09
8.99163e-07
-2.4501e-09
9.02407e-07
-2.68747e-09
9.05934e-07
-2.94942e-09
9.09771e-07
-3.23022e-09
9.13945e-07
-3.52544e-09
9.18481e-07
-3.83604e-09
9.23412e-07
-4.16912e-09
9.28774e-07
-4.53303e-09
9.34602e-07
-4.93208e-09
9.40925e-07
-5.36745e-09
9.47771e-07
-5.83946e-09
9.55174e-07
-6.35046e-09
9.63175e-07
-6.90531e-09
9.7182e-07
-7.50637e-09
9.81157e-07
-8.15366e-09
9.91236e-07
-8.84733e-09
1.00211e-06
-9.58941e-09
1.01385e-06
-1.03866e-08
1.02654e-06
-1.12477e-08
-1.21811e-08
9.1921e-07
5.34034e-11
-4.16937e-10
9.19418e-07
3.68227e-11
-5.26671e-10
9.19711e-07
2.30999e-11
-6.50976e-10
9.20093e-07
1.46981e-11
-7.94697e-10
9.20569e-07
1.29631e-11
-9.59833e-10
9.21146e-07
1.45322e-11
-1.14824e-09
9.21842e-07
1.07325e-11
-1.36398e-09
9.2268e-07
-5.83279e-12
-1.60922e-09
9.23682e-07
-3.56372e-11
-1.87711e-09
9.24861e-07
-7.42111e-11
-2.15428e-09
9.26221e-07
-1.17182e-10
-2.43141e-09
9.27768e-07
-1.63407e-10
-2.70703e-09
9.29506e-07
-2.1238e-10
-2.98551e-09
9.31441e-07
-2.59869e-10
-3.27324e-09
9.33575e-07
-3.0023e-10
-3.57774e-09
9.35914e-07
-3.32295e-10
-3.9097e-09
9.38473e-07
-3.59214e-10
-4.28184e-09
9.41271e-07
-3.84061e-10
-4.70367e-09
9.44332e-07
-4.06323e-10
-5.17716e-09
9.47669e-07
-4.21711e-10
-5.69553e-09
9.51293e-07
-4.27537e-10
-6.24987e-09
9.55221e-07
-4.28392e-10
-6.83898e-09
9.59481e-07
-4.33321e-10
-7.47181e-09
9.64111e-07
-4.47394e-10
-8.1603e-09
9.69152e-07
-4.6856e-10
-8.91223e-09
9.7464e-07
-4.92434e-10
-9.73019e-09
9.80609e-07
-5.16528e-10
-1.06146e-08
9.87093e-07
-5.39584e-10
-1.15645e-08
9.94119e-07
-5.59395e-10
-1.25765e-08
1.00171e-06
-5.7254e-10
-1.36463e-08
1.00989e-06
-5.78243e-10
-1.47731e-08
1.0187e-06
-5.82465e-10
-1.59664e-08
1.02819e-06
-5.94511e-10
-1.72452e-08
1.03842e-06
-6.19836e-10
-1.86302e-08
1.04948e-06
-6.5773e-10
-2.01389e-08
1.06143e-06
-7.0472e-10
-2.1784e-08
1.07436e-06
-7.59136e-10
-2.35765e-08
-8.21826e-10
-2.55288e-08
9.45842e-07
6.53429e-11
-2.90851e-10
9.46068e-07
3.76122e-11
-4.34012e-10
9.46388e-07
1.42794e-11
-5.88412e-10
9.46806e-07
-2.14177e-12
-7.52559e-10
9.47327e-07
-1.11712e-11
-9.25231e-10
9.47958e-07
-1.58722e-11
-1.11355e-09
9.48711e-07
-2.46362e-11
-1.33787e-09
9.49602e-07
-4.50536e-11
-1.61269e-09
9.50644e-07
-7.84728e-11
-1.92966e-09
9.5185e-07
-1.21908e-10
-2.26889e-09
9.53228e-07
-1.7237e-10
-2.61385e-09
9.54785e-07
-2.28388e-10
-2.96232e-09
9.5653e-07
-2.8789e-10
-3.32257e-09
9.58467e-07
-3.45093e-10
-3.69623e-09
9.60605e-07
-3.93484e-10
-4.07973e-09
9.62952e-07
-4.31185e-10
-4.48215e-09
9.65522e-07
-4.60184e-10
-4.92296e-09
9.68332e-07
-4.82395e-10
-5.41707e-09
9.71398e-07
-4.97267e-10
-5.96487e-09
9.74736e-07
-5.02185e-10
-6.5501e-09
9.78361e-07
-4.9748e-10
-7.15596e-09
9.82294e-07
-4.90659e-10
-7.7868e-09
9.86564e-07
-4.92387e-10
-8.46468e-09
9.91207e-07
-5.08113e-10
-9.20615e-09
9.96258e-07
-5.35286e-10
-1.00118e-08
1.00175e-06
-5.68168e-10
-1.0879e-08
1.00772e-06
-6.02326e-10
-1.18113e-08
1.0142e-06
-6.34452e-10
-1.2812e-08
1.02122e-06
-6.60998e-10
-1.38794e-08
1.02882e-06
-6.78604e-10
-1.50057e-08
1.03701e-06
-6.87592e-10
-1.61883e-08
1.04586e-06
-6.95163e-10
-1.74465e-08
1.0554e-06
-7.11476e-10
-1.88131e-08
1.06571e-06
-7.42569e-10
-2.03122e-08
1.07686e-06
-7.88541e-10
-2.19547e-08
1.08893e-06
-8.4661e-10
-2.37454e-08
1.10199e-06
-9.15458e-10
-2.56938e-08
-9.96141e-10
-2.78161e-08
9.48038e-07
4.87326e-11
-2.13971e-10
9.48278e-07
1.41246e-11
-3.84886e-10
9.48618e-07
-1.50294e-11
-5.64617e-10
9.4906e-07
-3.74942e-11
-7.45336e-10
9.49607e-07
-5.26876e-11
-9.27015e-10
9.50266e-07
-6.2167e-11
-1.12264e-09
9.51047e-07
-7.09778e-11
-1.3584e-09
9.5196e-07
-8.44076e-11
-1.64897e-09
9.53018e-07
-1.0504e-10
-1.98567e-09
9.5423e-07
-1.33488e-10
-2.34963e-09
9.55608e-07
-1.69349e-10
-2.72718e-09
9.57161e-07
-2.11393e-10
-3.12113e-09
9.589e-07
-2.56623e-10
-3.53893e-09
9.60833e-07
-2.99367e-10
-3.97159e-09
9.62966e-07
-3.34026e-10
-4.40818e-09
9.65309e-07
-3.58287e-10
-4.8572e-09
9.67876e-07
-3.71985e-10
-5.33876e-09
9.70681e-07
-3.75303e-10
-5.86761e-09
9.73738e-07
-3.68467e-10
-6.43853e-09
9.7706e-07
-3.52248e-10
-7.02813e-09
9.80663e-07
-3.30526e-10
-7.62501e-09
9.8457e-07
-3.11622e-10
-8.25129e-09
9.88814e-07
-3.044e-10
-8.94274e-09
9.93431e-07
-3.12544e-10
-9.71428e-09
9.98455e-07
-3.3321e-10
-1.0557e-08
1.00392e-06
-3.60823e-10
-1.14625e-08
1.00986e-06
-3.90273e-10
-1.24321e-08
1.0163e-06
-4.17299e-10
-1.34677e-08
1.02328e-06
-4.38622e-10
-1.45643e-08
1.03083e-06
-4.52432e-10
-1.57085e-08
1.03899e-06
-4.59954e-10
-1.69003e-08
1.04779e-06
-4.66753e-10
-1.81726e-08
1.05731e-06
-4.79657e-10
-1.95688e-08
1.06759e-06
-5.02759e-10
-2.11152e-08
1.07872e-06
-5.36992e-10
-2.28188e-08
1.09077e-06
-5.81665e-10
-2.46776e-08
1.10382e-06
-6.36682e-10
-2.66984e-08
-7.03375e-10
-2.89003e-08
9.48291e-07
1.7864e-11
-1.95988e-10
9.48541e-07
-2.083e-11
-3.78632e-10
9.48891e-07
-5.29813e-11
-5.68306e-10
9.49345e-07
-7.83545e-11
-7.60112e-10
9.49906e-07
-9.6146e-11
-9.54701e-10
9.50577e-07
-1.06205e-10
-1.1623e-09
9.51367e-07
-1.10941e-10
-1.40242e-09
9.52286e-07
-1.13932e-10
-1.68604e-09
9.53345e-07
-1.18676e-10
-2.01043e-09
9.54555e-07
-1.27979e-10
-2.36598e-09
9.55929e-07
-1.42921e-10
-2.74661e-09
9.5748e-07
-1.62565e-10
-3.15871e-09
9.59218e-07
-1.84001e-10
-3.60352e-09
9.61152e-07
-2.02643e-10
-4.06401e-09
9.63289e-07
-2.14554e-10
-4.52673e-09
9.65637e-07
-2.177e-10
-4.99721e-09
9.68209e-07
-2.10974e-10
-5.4905e-09
9.71018e-07
-1.9398e-10
-6.01582e-09
9.74076e-07
-1.68177e-10
-6.56154e-09
9.77393e-07
-1.36408e-10
-7.10667e-09
9.80984e-07
-1.03697e-10
-7.65654e-09
9.84875e-07
-7.65536e-11
-8.25221e-09
9.89102e-07
-6.05328e-11
-8.93721e-09
9.93703e-07
-5.72549e-11
-9.72139e-09
9.98713e-07
-6.42344e-11
-1.05879e-08
1.00416e-06
-7.73929e-11
-1.15217e-08
1.01009e-06
-9.27501e-11
-1.25175e-08
1.01652e-06
-1.07095e-10
-1.35714e-08
1.02349e-06
-1.18783e-10
-1.46731e-08
1.03103e-06
-1.27489e-10
-1.58068e-08
1.03917e-06
-1.34034e-10
-1.69808e-08
1.04796e-06
-1.40727e-10
-1.82393e-08
1.05745e-06
-1.50101e-10
-1.96295e-08
1.06773e-06
-1.63777e-10
-2.11756e-08
1.07884e-06
-1.83192e-10
-2.28817e-08
1.09088e-06
-2.09753e-10
-2.47436e-08
1.10392e-06
-2.4466e-10
-2.67683e-08
-2.89571e-10
-2.89775e-08
9.48306e-07
-1.36566e-11
-2.23643e-10
9.48561e-07
-5.47408e-11
-4.05025e-10
9.48918e-07
-8.82653e-11
-5.94277e-10
9.4938e-07
-1.14089e-10
-7.94328e-10
9.49948e-07
-1.31402e-10
-1.00268e-09
9.50628e-07
-1.39618e-10
-1.22049e-09
9.51424e-07
-1.39754e-10
-1.45697e-09
9.52345e-07
-1.34234e-10
-1.72064e-09
9.53402e-07
-1.26645e-10
-2.01711e-09
9.54609e-07
-1.20475e-10
-2.34922e-09
9.55979e-07
-1.16627e-10
-2.72138e-09
9.57529e-07
-1.14124e-10
-3.13908e-09
9.59269e-07
-1.10566e-10
-3.59411e-09
9.61206e-07
-1.03021e-10
-4.06573e-09
9.63349e-07
-8.99606e-11
-4.54107e-09
9.65704e-07
-7.11539e-11
-5.02082e-09
9.68283e-07
-4.63263e-11
-5.51256e-09
9.71099e-07
-1.57491e-11
-6.01828e-09
9.7416e-07
1.93859e-11
-6.52416e-09
9.77475e-07
5.63823e-11
-7.01872e-09
9.81057e-07
9.15297e-11
-7.52388e-09
9.84937e-07
1.2139e-10
-8.09384e-09
9.89153e-07
1.43738e-10
-8.77229e-09
9.93744e-07
1.58458e-10
-9.56228e-09
9.98746e-07
1.66982e-10
-1.04419e-08
1.00419e-06
1.71031e-10
-1.13915e-08
1.01012e-06
1.72233e-10
-1.23993e-08
1.01655e-06
1.71457e-10
-1.34569e-08
1.02351e-06
1.68269e-10
-1.45511e-08
1.03104e-06
1.62255e-10
-1.56707e-08
1.03918e-06
1.54016e-10
-1.68332e-08
1.04796e-06
1.44675e-10
-1.80859e-08
1.05746e-06
1.35511e-10
-1.94694e-08
1.06772e-06
1.26665e-10
-2.10018e-08
1.07883e-06
1.16353e-10
-2.26876e-08
1.09086e-06
1.0196e-10
-2.4528e-08
1.10389e-06
8.15505e-11
-2.6534e-08
5.34454e-11
-2.87262e-08
9.48281e-07
-4.02031e-11
-2.64657e-10
9.48541e-07
-7.99808e-11
-4.50439e-10
9.48905e-07
-1.12155e-10
-6.44117e-10
9.49374e-07
-1.35854e-10
-8.53298e-10
9.49951e-07
-1.50466e-10
-1.07153e-09
9.50638e-07
-1.55731e-10
-1.29363e-09
9.5144e-07
-1.52373e-10
-1.52151e-09
9.52363e-07
-1.42137e-10
-1.76204e-09
9.5342e-07
-1.2758e-10
-2.02902e-09
9.54624e-07
-1.10588e-10
-2.33933e-09
9.55993e-07
-9.12721e-11
-2.70575e-09
9.57544e-07
-6.8705e-11
-3.12759e-09
9.59286e-07
-4.15696e-11
-3.58605e-09
9.61228e-07
-9.30668e-12
-4.05878e-09
9.63375e-07
2.67662e-11
-4.53441e-09
9.65735e-07
6.47487e-11
-5.0118e-09
9.6832e-07
1.03213e-10
-5.49425e-09
9.71139e-07
1.41288e-10
-5.97875e-09
9.74201e-07
1.77918e-10
-6.45218e-09
9.77512e-07
2.12104e-10
-6.9127e-09
9.8109e-07
2.4343e-10
-7.39457e-09
9.84963e-07
2.72121e-10
-7.95524e-09
9.89173e-07
2.98745e-10
-8.63223e-09
9.93759e-07
3.23837e-10
-9.42275e-09
9.98757e-07
3.47226e-10
-1.0304e-08
1.0042e-06
3.68031e-10
-1.12548e-08
1.01012e-06
3.85096e-10
-1.22598e-08
1.01655e-06
3.96679e-10
-1.33084e-08
1.02351e-06
4.00767e-10
-1.43913e-08
1.03104e-06
3.97005e-10
-1.55078e-08
1.03917e-06
3.87503e-10
-1.66807e-08
1.04796e-06
3.75694e-10
-1.79476e-08
1.05745e-06
3.65142e-10
-1.93338e-08
1.06772e-06
3.57392e-10
-2.0852e-08
1.07882e-06
3.51076e-10
-2.25142e-08
1.09085e-06
3.43696e-10
-2.43332e-08
1.10387e-06
3.33473e-10
-2.63264e-08
3.18757e-10
-2.85113e-08
9.48247e-07
-2.892e-10
9.48514e-07
-9.48252e-11
-4.97543e-10
9.48885e-07
-1.21127e-10
-7.0775e-10
9.49362e-07
-1.39698e-10
-9.25681e-10
9.49946e-07
-1.49926e-10
-1.14658e-09
9.50641e-07
-1.51873e-10
-1.36747e-09
9.51449e-07
-1.46176e-10
-1.58781e-09
9.52376e-07
-1.33622e-10
-1.81245e-09
9.53434e-07
-1.14683e-10
-2.06098e-09
9.54639e-07
-8.89146e-11
-2.36212e-09
9.56011e-07
-5.54089e-11
-2.73243e-09
9.57567e-07
-1.39793e-11
-3.16035e-09
9.59314e-07
3.40665e-11
-3.61544e-09
9.61259e-07
8.67166e-11
-4.07442e-09
9.63407e-07
1.40825e-10
-4.53167e-09
9.65768e-07
1.92692e-10
-4.99168e-09
9.68352e-07
2.39728e-10
-5.45921e-09
9.7117e-07
2.80543e-10
-5.93019e-09
9.74229e-07
3.14633e-10
-6.39204e-09
9.77538e-07
3.43214e-10
-6.84602e-09
9.81113e-07
3.69199e-10
-7.32835e-09
9.84985e-07
3.95903e-10
-7.89256e-09
9.89194e-07
4.25844e-10
-8.56868e-09
9.93778e-07
4.59667e-10
-9.35231e-09
9.98774e-07
4.95695e-10
-1.02242e-08
1.00422e-06
5.30754e-10
-1.11644e-08
1.01013e-06
5.61262e-10
-1.21562e-08
1.01655e-06
5.83541e-10
-1.31896e-08
1.02351e-06
5.94761e-10
-1.42645e-08
1.03103e-06
5.95013e-10
-1.5391e-08
1.03916e-06
5.87503e-10
-1.65899e-08
1.04795e-06
5.76366e-10
-1.78817e-08
1.05744e-06
5.65852e-10
-1.92761e-08
1.06771e-06
5.58476e-10
-2.0785e-08
1.07882e-06
5.54312e-10
-2.24305e-08
1.09084e-06
5.52592e-10
-2.4238e-08
1.10386e-06
5.52835e-10
-2.6231e-08
5.53377e-10
-2.84249e-08
9.48484e-07
-1.00263e-10
-5.40526e-10
9.48862e-07
-1.15681e-10
-7.71062e-10
9.49345e-07
-1.26356e-10
-9.92972e-10
9.49936e-07
-1.30999e-10
-1.21029e-09
9.50636e-07
-1.29075e-10
-1.42879e-09
9.51449e-07
-1.20563e-10
-1.64864e-09
9.52382e-07
-1.04932e-10
-1.87233e-09
9.53444e-07
-8.0291e-11
-2.12171e-09
9.54655e-07
-4.40026e-11
-2.43069e-09
9.56034e-07
4.92874e-12
-2.81257e-09
9.57596e-07
6.37861e-11
-3.24325e-09
9.59348e-07
1.28704e-10
-3.68378e-09
9.61294e-07
1.9508e-10
-4.11324e-09
9.63441e-07
2.59194e-10
-4.53605e-09
9.65797e-07
3.1745e-10
-4.96701e-09
9.68376e-07
3.67718e-10
-5.41744e-09
9.71189e-07
4.08517e-10
-5.8846e-09
9.74244e-07
4.39542e-10
-6.35322e-09
9.7755e-07
4.63458e-10
-6.82026e-09
9.81126e-07
4.85517e-10
-7.31749e-09
9.85002e-07
5.11212e-10
-7.89081e-09
9.89214e-07
5.44275e-10
-8.56428e-09
9.938e-07
5.85269e-10
-9.33595e-09
9.98795e-07
6.31553e-10
-1.01927e-08
1.00423e-06
6.7846e-10
-1.11186e-08
1.01014e-06
7.20687e-10
-1.20975e-08
1.01656e-06
7.53263e-10
-1.31214e-08
1.0235e-06
7.73065e-10
-1.41971e-08
1.03102e-06
7.80836e-10
-1.534e-08
1.03915e-06
7.79973e-10
-1.65657e-08
1.04794e-06
7.74334e-10
-1.78814e-08
1.05744e-06
7.67986e-10
-1.92884e-08
1.06771e-06
7.639e-10
-2.08005e-08
1.07881e-06
7.64111e-10
-2.24452e-08
1.09084e-06
7.70581e-10
-2.42542e-08
1.10385e-06
7.85076e-10
-2.62544e-08
8.06852e-10
-2.84625e-08
9.48419e-07
-9.69888e-11
-5.79621e-10
9.48802e-07
-9.85492e-11
-8.21118e-10
9.4929e-07
-1.00377e-10
-1.03897e-09
9.49884e-07
-9.92648e-11
-1.24913e-09
9.50587e-07
-9.27929e-11
-1.46664e-09
9.51404e-07
-7.96186e-11
-1.69393e-09
9.52342e-07
-5.807e-11
-1.93171e-09
9.53412e-07
-2.4613e-11
-2.19905e-09
9.54631e-07
2.42381e-11
-2.52515e-09
9.56019e-07
8.83221e-11
-2.91514e-09
9.57588e-07
1.6232e-10
-3.33732e-09
9.59344e-07
2.38077e-10
-3.7519e-09
9.61291e-07
3.09293e-10
-4.14446e-09
9.63434e-07
3.73119e-10
-4.52823e-09
9.65785e-07
4.28847e-10
-4.92667e-09
9.68357e-07
4.7617e-10
-5.35721e-09
9.71163e-07
5.13901e-10
-5.82022e-09
9.74213e-07
5.41623e-10
-6.2989e-09
9.77518e-07
5.62679e-10
-6.78639e-09
9.81099e-07
5.83423e-10
-7.30715e-09
9.84981e-07
6.1006e-10
-7.89562e-09
9.89201e-07
6.46423e-10
-8.5691e-09
9.93793e-07
6.93053e-10
-9.32804e-09
9.98791e-07
7.4722e-10
-1.01669e-08
1.00423e-06
8.03689e-10
-1.10773e-08
1.01013e-06
8.56267e-10
-1.20469e-08
1.01654e-06
8.98972e-10
-1.30693e-08
1.02348e-06
9.28315e-10
-1.41512e-08
1.03099e-06
9.45788e-10
-1.53072e-08
1.03912e-06
9.55282e-10
-1.65515e-08
1.04791e-06
9.60262e-10
-1.78876e-08
1.05742e-06
9.63855e-10
-1.93155e-08
1.06769e-06
9.68625e-10
-2.08476e-08
1.07881e-06
9.78023e-10
-2.25081e-08
1.09084e-06
9.96701e-10
-2.43281e-08
1.10386e-06
1.02923e-09
-2.63353e-08
1.07767e-09
-2.85509e-08
9.48111e-07
-8.25697e-11
-6.16842e-10
9.48496e-07
-7.25228e-11
-8.52318e-10
9.48985e-07
-6.84585e-11
-1.05694e-09
9.49578e-07
-6.41461e-11
-1.25609e-09
9.50279e-07
-5.45431e-11
-1.47053e-09
9.51096e-07
-3.69139e-11
-1.70531e-09
9.52036e-07
-9.47967e-12
-1.95959e-09
9.53112e-07
3.15166e-11
-2.2449e-09
9.54339e-07
8.89437e-11
-2.57826e-09
9.55734e-07
1.61042e-10
-2.95611e-09
9.57309e-07
2.39626e-10
-3.34866e-09
9.59069e-07