/*--------------------------------*- C++ -*----------------------------------*\
| =========                 |                                                 |
| \\      /  F ield         | OpenFOAM: The Open Source CFD Toolbox           |
|  \\    /   O peration     | Version:  2.3.1                                 |
|   \\  /    A nd           | Web:      www.OpenFOAM.org                      |
|    \\/     M anipulation  |                                                 |
\*---------------------------------------------------------------------------*/
FoamFile
{
    version     2.0;
    format      ascii;
    class       surfaceScalarField;
    location    "5";
    object      phi_0;
}
// * * * * * * * * * * * * * * * * * * * * * * * * * * * * * * * * * * * * * //

dimensions      [0 3 -1 0 0 0 0];

internalField   nonuniform List<scalar> 
108425
(
8.74047e-07
1.0183e-10
-2.3683e-10
8.74258e-07
7.12376e-11
-2.82156e-10
8.7455e-07
4.27927e-11
-3.34849e-10
8.74927e-07
2.03611e-11
-3.97473e-10
8.75392e-07
5.83641e-12
-4.70758e-10
8.75951e-07
-3.4136e-12
-5.56114e-10
8.76623e-07
-1.49573e-11
-6.57142e-10
8.77435e-07
-3.55051e-11
-7.76473e-10
8.78412e-07
-6.64507e-11
-9.10362e-10
8.79567e-07
-1.05331e-10
-1.04977e-09
8.80905e-07
-1.49872e-10
-1.18784e-09
8.82428e-07
-2.00035e-10
-1.32329e-09
8.84143e-07
-2.55612e-10
-1.45874e-09
8.86052e-07
-3.11963e-10
-1.59757e-09
8.88158e-07
-3.62186e-10
-1.74346e-09
8.90464e-07
-4.0355e-10
-1.90226e-09
8.92983e-07
-4.38023e-10
-2.08175e-09
8.95739e-07
-4.68004e-10
-2.28808e-09
8.98755e-07
-4.93004e-10
-2.52225e-09
9.02044e-07
-5.10078e-10
-2.77916e-09
9.05615e-07
-5.1933e-10
-3.05185e-09
9.09482e-07
-5.28172e-10
-3.33843e-09
9.13672e-07
-5.46767e-10
-3.64402e-09
9.18228e-07
-5.79368e-10
-3.97589e-09
9.23188e-07
-6.22238e-10
-4.33846e-09
9.28591e-07
-6.69552e-10
-4.73297e-09
9.34469e-07
-7.18051e-10
-5.15973e-09
9.40853e-07
-7.66096e-10
-5.6186e-09
9.47772e-07
-8.11378e-10
-6.1077e-09
9.55247e-07
-8.5092e-10
-6.62378e-09
9.63298e-07
-8.84938e-10
-7.16541e-09
9.71955e-07
-9.20503e-10
-7.73718e-09
9.81272e-07
-9.67436e-10
-8.34977e-09
9.91318e-07
-1.03088e-09
-9.01458e-09
1.00217e-06
-1.10973e-09
-9.74011e-09
1.0139e-06
-1.20032e-09
-1.05318e-08
1.0266e-06
-1.30116e-09
-1.1395e-08
-1.41372e-09
-1.23355e-08
8.99366e-07
1.12504e-10
-1.44426e-10
8.99582e-07
6.22294e-11
-2.07114e-10
8.99886e-07
1.57556e-11
-2.76691e-10
9.00279e-07
-2.21662e-11
-3.51109e-10
9.00763e-07
-4.98364e-11
-4.28435e-10
9.01342e-07
-6.89332e-11
-5.12924e-10
9.02031e-07
-8.48992e-11
-6.19643e-10
9.0286e-07
-1.0354e-10
-7.60447e-10
9.03851e-07
-1.28377e-10
-9.29199e-10
9.05017e-07
-1.61451e-10
-1.11004e-09
9.06363e-07
-2.04707e-10
-1.29058e-09
9.07892e-07
-2.59452e-10
-1.46946e-09
9.09612e-07
-3.2333e-10
-1.65312e-09
9.11531e-07
-3.88253e-10
-1.84276e-09
9.13649e-07
-4.44977e-10
-2.03441e-09
9.15967e-07
-4.88734e-10
-2.23314e-09
9.185e-07
-5.18808e-10
-2.45277e-09
9.21272e-07
-5.35202e-10
-2.70424e-09
9.24304e-07
-5.36807e-10
-2.98786e-09
9.27608e-07
-5.23712e-10
-3.29107e-09
9.31192e-07
-5.0298e-10
-3.59963e-09
9.35068e-07
-4.89391e-10
-3.91474e-09
9.39269e-07
-4.96525e-10
-4.2516e-09
9.43839e-07
-5.2767e-10
-4.62181e-09
9.48818e-07
-5.76196e-10
-5.02503e-09
9.5424e-07
-6.33132e-10
-5.45829e-09
9.60137e-07
-6.91977e-10
-5.92363e-09
9.66543e-07
-7.4815e-10
-6.42371e-09
9.73486e-07
-7.97439e-10
-6.95683e-09
9.80988e-07
-8.36873e-10
-7.51618e-09
9.8907e-07
-8.68935e-10
-8.09743e-09
9.97764e-07
-9.03297e-10
-8.7117e-09
1.00713e-06
-9.50678e-10
-9.38059e-09
1.01723e-06
-1.01608e-09
-1.0119e-08
1.02815e-06
-1.09863e-09
-1.09313e-08
1.03996e-06
-1.19514e-09
-1.18177e-08
1.05275e-06
-1.30453e-09
-1.2782e-08
-1.42864e-09
-1.38336e-08
9.01982e-07
6.71546e-11
-8.74991e-11
9.02204e-07
6.7993e-12
-1.67357e-10
9.0252e-07
-4.64198e-11
-2.53599e-10
9.02928e-07
-9.16557e-11
-3.38636e-10
9.03427e-07
-1.27174e-10
-4.21142e-10
9.04019e-07
-1.51224e-10
-5.09683e-10
9.04721e-07
-1.63633e-10
-6.23628e-10
9.05559e-07
-1.67243e-10
-7.74272e-10
9.06554e-07
-1.68545e-10
-9.54207e-10
9.07716e-07
-1.75973e-10
-1.14817e-09
9.09053e-07
-1.96099e-10
-1.34586e-09
9.10574e-07
-2.30375e-10
-1.54999e-09
9.12292e-07
-2.73898e-10
-1.76755e-09
9.14214e-07
-3.17793e-10
-1.99231e-09
9.16338e-07
-3.53528e-10
-2.21466e-09
9.18664e-07
-3.75649e-10
-2.43973e-09
9.21208e-07
-3.80067e-10
-2.68242e-09
9.2399e-07
-3.63774e-10
-2.95392e-09
9.2703e-07
-3.26179e-10
-3.25074e-09
9.30334e-07
-2.7264e-10
-3.55443e-09
9.33902e-07
-2.17349e-10
-3.85374e-09
9.37753e-07
-1.7773e-10
-4.16308e-09
9.4193e-07
-1.64819e-10
-4.50825e-09
9.46481e-07
-1.7886e-10
-4.89942e-09
9.51445e-07
-2.12359e-10
-5.32849e-09
9.56856e-07
-2.56005e-10
-5.78815e-09
9.62745e-07
-3.0173e-10
-6.27942e-09
9.69145e-07
-3.43313e-10
-6.80401e-09
9.76081e-07
-3.76729e-10
-7.35761e-09
9.83575e-07
-4.01454e-10
-7.92862e-09
9.91641e-07
-4.22097e-10
-8.51354e-09
1.00032e-06
-4.46295e-10
-9.13323e-09
1.00966e-06
-4.79349e-10
-9.81745e-09
1.01975e-06
-5.22821e-10
-1.05828e-08
1.03066e-06
-5.76691e-10
-1.14311e-08
1.04247e-06
-6.41135e-10
-1.23576e-08
1.05524e-06
-7.17313e-10
-1.33643e-08
-8.07393e-10
-1.44624e-08
9.02352e-07
6.92511e-12
-7.69034e-11
9.02581e-07
-5.91646e-11
-1.63707e-10
9.02905e-07
-1.14927e-10
-2.55342e-10
9.03323e-07
-1.62362e-10
-3.46718e-10
9.03833e-07
-1.9947e-10
-4.37672e-10
9.04438e-07
-2.21815e-10
-5.34644e-10
9.05152e-07
-2.2615e-10
-6.5158e-10
9.05995e-07
-2.1429e-10
-7.96072e-10
9.06986e-07
-1.94768e-10
-9.64767e-10
9.08139e-07
-1.79302e-10
-1.14952e-09
9.09465e-07
-1.76482e-10
-1.34541e-09
9.10978e-07
-1.85799e-10
-1.5583e-09
9.12696e-07
-2.00313e-10
-1.79135e-09
9.14623e-07
-2.12431e-10
-2.03228e-09
9.16756e-07
-2.16871e-10
-2.26976e-09
9.19097e-07
-2.09136e-10
-2.50737e-09
9.21658e-07
-1.84612e-10
-2.7563e-09
9.24458e-07
-1.39935e-10
-3.0238e-09
9.2751e-07
-7.63143e-11
-3.30162e-09
9.30812e-07
-2.80232e-12
-3.57216e-09
9.34364e-07
6.71565e-11
-3.83676e-09
9.38191e-07
1.18546e-10
-4.12363e-09
9.42345e-07
1.45719e-10
-4.46373e-09
9.46878e-07
1.50802e-10
-4.86272e-09
9.51832e-07
1.39946e-10
-5.30637e-09
9.57239e-07
1.20273e-10
-5.78329e-09
9.63129e-07
9.84898e-11
-6.29042e-09
9.69532e-07
7.92942e-11
-6.82576e-09
9.76473e-07
6.3741e-11
-7.38113e-09
9.83965e-07
4.89519e-11
-7.94275e-09
9.92025e-07
3.05498e-11
-8.51238e-09
1.00069e-06
6.85865e-12
-9.11938e-09
1.01003e-06
-1.88982e-11
-9.79649e-09
1.02011e-06
-4.46836e-11
-1.05584e-08
1.03101e-06
-7.22021e-11
-1.14047e-08
1.0428e-06
-1.06202e-10
-1.2329e-08
1.05557e-06
-1.50833e-10
-1.33331e-08
-2.08467e-10
-1.44304e-08
9.02365e-07
-4.04729e-11
-9.98005e-11
9.02603e-07
-1.13329e-10
-1.83309e-10
9.02933e-07
-1.72621e-10
-2.72129e-10
9.03358e-07
-2.19682e-10
-3.68149e-10
9.03881e-07
-2.53062e-10
-4.68997e-10
9.04502e-07
-2.69587e-10
-5.74083e-10
9.05232e-07
-2.66636e-10
-6.89076e-10
9.06083e-07
-2.45773e-10
-8.19179e-10
9.07071e-07
-2.15317e-10
-9.67322e-10
9.08213e-07
-1.87281e-10
-1.13464e-09
9.09529e-07
-1.68095e-10
-1.32387e-09
9.11038e-07
-1.54861e-10
-1.54024e-09
9.12757e-07
-1.39694e-10
-1.77973e-09
9.14689e-07
-1.17361e-10
-2.02736e-09
9.16832e-07
-8.65593e-11
-2.27326e-09
9.19188e-07
-4.67838e-11
-2.51791e-09
9.21767e-07
3.35016e-12
-2.76693e-09
9.24584e-07
6.5711e-11
-3.0226e-09
9.27644e-07
1.37448e-10
-3.27396e-09
9.3094e-07
2.10847e-10
-3.50994e-09
9.34475e-07
2.7586e-10
-3.74368e-09
9.38281e-07
3.26096e-10
-4.01354e-09
9.42415e-07
3.61417e-10
-4.34998e-09
9.46935e-07
3.84877e-10
-4.75324e-09
9.51881e-07
3.99479e-10
-5.20556e-09
9.57286e-07
4.08179e-10
-5.69274e-09
9.63178e-07
4.14078e-10
-6.2076e-09
9.69583e-07
4.18238e-10
-6.74481e-09
9.76524e-07
4.17515e-10
-7.29463e-09
9.84013e-07
4.06504e-10
-7.84598e-09
9.92067e-07
3.83663e-10
-8.40771e-09
1.00073e-06
3.55177e-10
-9.01184e-09
1.01007e-06
3.30863e-10
-9.68561e-09
1.02015e-06
3.15327e-10
-1.04391e-08
1.03104e-06
3.04656e-10
-1.1272e-08
1.04283e-06
2.90273e-10
-1.21819e-08
1.05558e-06
2.65718e-10
-1.31733e-08
2.28788e-10
-1.42585e-08
9.02317e-07
-6.87298e-11
-1.31007e-10
9.02564e-07
-1.46434e-10
-2.14492e-10
9.02903e-07
-2.07577e-10
-3.04055e-10
9.0334e-07
-2.50667e-10
-4.05738e-10
9.03877e-07
-2.76504e-10
-5.13659e-10
9.04516e-07
-2.86179e-10
-6.22246e-10
9.05261e-07
-2.79709e-10
-7.3166e-10
9.06119e-07
-2.58438e-10
-8.45619e-10
9.07105e-07
-2.28276e-10
-9.72878e-10
9.0824e-07
-1.97205e-10
-1.12473e-09
9.0955e-07
-1.67933e-10
-1.31035e-09
9.1106e-07
-1.34936e-10
-1.5306e-09
9.12785e-07
-9.0821e-11
-1.77322e-09
9.14724e-07
-3.37612e-11
-2.02234e-09
9.16874e-07
3.24176e-11
-2.26982e-09
9.1924e-07
1.02508e-10
-2.51452e-09
9.21829e-07
1.72788e-10
-2.75881e-09
9.24654e-07
2.41659e-10
-3.00085e-09
9.27715e-07
3.07194e-10
-3.23047e-09
9.31003e-07
3.66312e-10
-3.44382e-09
9.34525e-07
4.16957e-10
-3.66316e-09
9.38319e-07
4.60708e-10
-3.92842e-09
9.42444e-07
5.01647e-10
-4.26518e-09
9.46956e-07
5.41963e-10
-4.66924e-09
9.51897e-07
5.80536e-10
-5.12257e-09
9.573e-07
6.15583e-10
-5.61027e-09
9.63191e-07
6.45998e-10
-6.12249e-09
9.69592e-07
6.69141e-10
-6.65241e-09
9.76524e-07
6.79106e-10
-7.19325e-09
9.84002e-07
6.70483e-10
-7.74187e-09
9.92052e-07
6.45478e-10
-8.31172e-09
1.00072e-06
6.15323e-10
-8.9278e-09
1.01006e-06
5.92631e-10
-9.60558e-09
1.02015e-06
5.82299e-10
-1.03503e-08
1.03104e-06
5.79847e-10
-1.11673e-08
1.04282e-06
5.76377e-10
-1.20629e-08
1.05556e-06
5.65259e-10
-1.30465e-08
5.43753e-10
-1.41271e-08
9.02252e-07
-1.47637e-10
9.02513e-07
-1.62194e-10
-2.45103e-10
9.02867e-07
-2.16709e-10
-3.45254e-10
9.03319e-07
-2.49976e-10
-4.52397e-10
9.0387e-07
-2.65987e-10
-5.61464e-10
9.04522e-07
-2.69854e-10
-6.68863e-10
9.0528e-07
-2.63787e-10
-7.73058e-10
9.06145e-07
-2.48215e-10
-8.75707e-10
9.07131e-07
-2.24789e-10
-9.89388e-10
9.08264e-07
-1.95366e-10
-1.13443e-09
9.09577e-07
-1.57724e-10
-1.32357e-09
9.11097e-07
-1.05576e-10
-1.54963e-09
9.12832e-07
-3.46025e-11
-1.79145e-09
9.14779e-07
5.22015e-11
-2.03241e-09
9.16933e-07
1.4659e-10
-2.26831e-09
9.19298e-07
2.39183e-10
-2.50208e-09
9.21886e-07
3.22146e-10
-2.73732e-09
9.24708e-07
3.91682e-10
-2.97147e-09
9.27763e-07
4.46916e-10
-3.19442e-09
9.31044e-07
4.89879e-10
-3.4046e-09
9.3456e-07
5.25845e-10
-3.62551e-09
9.38352e-07
5.62736e-10
-3.89412e-09
9.42477e-07
6.07422e-10
-4.2306e-09
9.46988e-07
6.6087e-10
-4.62978e-09
9.51927e-07
7.18366e-10
-5.07671e-09
9.57326e-07
7.73706e-10
-5.55735e-09
9.6321e-07
8.21843e-10
-6.06009e-09
9.696e-07
8.57881e-10
-6.5784e-09
9.76515e-07
8.76137e-10
-7.11212e-09
9.83979e-07
8.73616e-10
-7.66708e-09
9.92026e-07
8.54848e-10
-8.25588e-09
1.0007e-06
8.30831e-10
-8.89051e-09
1.01006e-06
8.12401e-10
-9.57426e-09
1.02014e-06
8.04425e-10
-1.03117e-08
1.03104e-06
8.05376e-10
-1.11162e-08
1.04281e-06
8.10201e-10
-1.20036e-08
1.05554e-06
8.14469e-10
-1.29872e-08
8.14026e-10
-1.40749e-08
9.02458e-07
-1.65868e-10
-2.72903e-10
9.02831e-07
-2.02796e-10
-3.86907e-10
9.03297e-07
-2.20962e-10
-4.95599e-10
9.03858e-07
-2.26261e-10
-6.00591e-10
9.04518e-07
-2.24906e-10
-7.0547e-10
9.05283e-07
-2.19589e-10
-8.09017e-10
9.06155e-07
-2.09397e-10
-9.10454e-10
9.07145e-07
-1.91217e-10
-1.02385e-09
9.08284e-07
-1.60275e-10
-1.17417e-09
9.0961e-07
-1.10884e-10
-1.37264e-09
9.11147e-07
-3.93426e-11
-1.60279e-09
9.12896e-07
5.22556e-11
-1.83606e-09
9.14849e-07
1.5681e-10
-2.05749e-09
9.17e-07
2.64975e-10
-2.27015e-09
9.19357e-07
3.67374e-10
-2.48463e-09
9.21933e-07
4.55702e-10
-2.70933e-09
9.24742e-07
5.24921e-10
-2.94242e-09
9.27787e-07
5.73635e-10
-3.17164e-09
9.31063e-07
6.05627e-10
-3.39185e-09
9.34581e-07
6.3063e-10
-3.62322e-09
9.3838e-07
6.61357e-10
-3.89774e-09
9.42512e-07
7.07178e-10
-4.23157e-09
9.47026e-07
7.68955e-10
-4.62183e-09
9.51963e-07
8.39933e-10
-5.05851e-09
9.57356e-07
9.10369e-10
-5.5299e-09
9.6323e-07
9.71864e-10
-6.02411e-09
9.69605e-07
1.01857e-09
-6.53541e-09
9.76503e-07
1.04697e-09
-7.0687e-09
9.83954e-07
1.057e-09
-7.63427e-09
9.91997e-07
1.0529e-09
-8.24114e-09
1.00068e-06
1.04191e-09
-8.89136e-09
1.01004e-06
1.03163e-09
-9.58206e-09
1.02014e-06
1.02793e-09
-1.03197e-08
1.03103e-06
1.03435e-09
-1.11221e-08
1.0428e-06
1.0516e-09
-1.20096e-08
1.05553e-06
1.07847e-09
-1.29976e-08
1.11019e-09
-1.40941e-08
9.02359e-07
-1.60057e-10
-2.99083e-10
9.02749e-07
-1.7218e-10
-4.20207e-10
9.03226e-07
-1.73434e-10
-5.24594e-10
9.03791e-07
-1.68314e-10
-6.23136e-10
9.04453e-07
-1.60686e-10
-7.26665e-10
9.05221e-07
-1.52063e-10
-8.35258e-10
9.06099e-07
-1.40352e-10
-9.46449e-10
9.07099e-07
-1.1882e-10
-1.07271e-09
9.08253e-07
-7.84125e-11
-1.23645e-09
9.09599e-07
-1.33384e-11
-1.44294e-09
9.11154e-07
7.42174e-11
-1.66903e-09
9.12916e-07
1.7623e-10
-1.88574e-09
9.14872e-07
2.83441e-10
-2.08273e-09
9.17018e-07
3.88551e-10
-2.26968e-09
9.19362e-07
4.86499e-10
-2.46308e-09
9.21921e-07
5.72335e-10
-2.67564e-09
9.24713e-07
6.40523e-10
-2.9076e-09
9.27745e-07
6.87141e-10
-3.14514e-09
9.31016e-07
7.14639e-10
-3.37987e-09
9.34539e-07
7.34098e-10
-3.62722e-09
9.38351e-07
7.61048e-10
-3.91168e-09
9.42496e-07
8.07187e-10
-4.2449e-09
9.47017e-07
8.73937e-10
-4.62605e-09
9.51954e-07
9.54247e-10
-5.05075e-09
9.5734e-07
1.03686e-09
-5.51254e-09
9.63202e-07
1.11139e-09
-6.00194e-09
9.69563e-07
1.1714e-09
-6.51346e-09
9.76447e-07
1.21467e-09
-7.05163e-09
9.83887e-07
1.24272e-09
-7.62595e-09
9.91925e-07
1.25897e-09
-8.24432e-09
1.00061e-06
1.26751e-09
-8.90682e-09
1.00997e-06
1.27354e-09
-9.61016e-09
1.02008e-06
1.28371e-09
-1.03606e-08
1.03098e-06
1.30543e-09
-1.11736e-08
1.04276e-06
1.34416e-09
-1.20683e-08
1.05549e-06
1.40189e-09
-1.30604e-08
1.47586e-09
-1.41602e-08
9.01924e-07
-1.42259e-10
-3.22976e-10
9.02323e-07
-1.30247e-10
-4.40894e-10
9.02804e-07
-1.18458e-10
-5.36191e-10
9.03369e-07
-1.05984e-10
-6.27508e-10
9.0403e-07
-9.17034e-11
-7.29881e-10
9.04798e-07
-7.49715e-11
-8.452e-10
9.05682e-07
-5.35363e-11
-9.7035e-10
9.06696e-07
-2.06228e-11
-1.11254e-09
9.0787e-07
3.26636e-11
-1.28534e-09
9.09235e-07
1.09193e-10
-1.48708e-09
9.10803e-07
2.01642e-10
-1.69579e-09
9.12571e-07
2.982e-10
-1.88927e-09
9.14527e-07
3.90221e-10
-2.06296e-09
9.16668e-07
4.74858e-10
-2.228e-09
9.19003e-07
5.52442e-10
-2.40051e-09
9.21548e-07
6.22537e-10
-2.59501e-09
9.24323e-07
6.81355e-10
-2.81588e-09
9.2734e-07
7.23813e-10
-3.05352e-09
9.30605e-07
7.50704e-10
-3.30134e-09
9.34136e-07
7.72344e-10
-3.56937e-09
9.37965e-07
8.02833e-10
-3.87037e-09
9.42128e-07
8.5149e-10
-4.20716e-09
9.46661e-07
9.1966e-10
-4.57878e-09
9.516e-07
1.0022e-09
-4.98719e-09
9.56981e-07
1.08995e-09
-5.43403e-09
9.62834e-07
1.17329e-09
-5.91478e-09
9.69184e-07
1.24521e-09
-6.4244e-09
9.7606e-07
1.30318e-09
-6.96385e-09
9.83493e-07
1.34942e-09
-7.54022e-09
9.91527e-07
1.38802e-09
-8.16321e-09
1.00021e-06
1.42223e-09
-8.8355e-09
1.00958e-06
1.4553e-09
-9.55511e-09
1.0197e-06
1.49212e-09
-1.03246e-08
1.03062e-06
1.53968e-09
-1.1152e-08
1.04241e-06
1.60516e-09
-1.20521e-08
1.05516e-06
1.69359e-09
-1.30407e-08
1.80664e-09
-1.41314e-08
8.99247e-07
-9.75435e-11
-3.57232e-10
8.9965e-07
-7.77977e-11
-4.55159e-10
9.0013e-07
-6.43511e-11
-5.34327e-10
9.00691e-07
-5.24141e-11
-6.14091e-10
9.01345e-07
-3.79119e-11
-7.08168e-10
9.02109e-07
-1.91886e-11
-8.19296e-10
9.02995e-07
4.79951e-12
-9.4449e-10
9.04021e-07
3.89723e-11
-1.08522e-09
9.05211e-07
8.69326e-11
-1.24433e-09
9.06588e-07
1.48529e-10
-1.41726e-09
9.08165e-07
2.1651e-10
-1.59095e-09
9.09936e-07
2.81771e-10
-1.75484e-09
9.11895e-07
3.38954e-10
-1.90803e-09
9.14039e-07
3.87617e-10
-2.05691e-09
9.16373e-07
4.30331e-10
-2.21165e-09
9.18911e-07
4.6979e-10
-2.38522e-09
9.21673e-07
5.05457e-10
-2.58622e-09
9.24677e-07
5.34118e-10
-2.81369e-09
9.27937e-07
5.55901e-10
-3.06558e-09
9.31477e-07
5.77321e-10
-3.34468e-09
9.35324e-07
6.06398e-10
-3.65104e-09
9.39508e-07
6.47143e-10
-3.97993e-09
9.44059e-07
6.99517e-10
-4.33001e-09
9.49008e-07
7.61371e-10
-4.70823e-09
9.54392e-07
8.28355e-10
-5.12256e-09
9.60244e-07
8.94506e-10
-5.57387e-09
9.66595e-07
9.54543e-10
-6.05964e-09
9.73471e-07
1.00612e-09
-6.57906e-09
9.80906e-07
1.05122e-09
-7.13699e-09
9.88943e-07
1.09406e-09
-7.74319e-09
9.9763e-07
1.13739e-09
-8.40167e-09
1.00701e-06
1.18241e-09
-9.11121e-09
1.01715e-06
1.23063e-09
-9.8708e-09
1.02808e-06
1.28525e-09
-1.06823e-08
1.03989e-06
1.35143e-09
-1.15555e-08
1.05266e-06
1.43464e-09
-1.25045e-08
1.53919e-09
-1.35434e-08
8.73875e-07
-4.15439e-10
8.7428e-07
-4.82266e-10
8.74758e-07
-5.4258e-10
8.75313e-07
-6.07188e-10
8.75958e-07
-6.83078e-10
8.7671e-07
-7.71774e-10
8.77586e-07
-8.71394e-10
8.78606e-07
-9.80182e-10
8.79791e-07
-1.09853e-09
8.81164e-07
-1.22463e-09
8.82735e-07
-1.35444e-09
8.84502e-07
-1.48483e-09
8.86457e-07
-1.61615e-09
8.88596e-07
-1.75155e-09
8.90923e-07
-1.89609e-09
8.93449e-07
-2.05643e-09
8.96194e-07
-2.23942e-09
8.99177e-07
-2.4492e-09
9.02419e-07
-2.6865e-09
9.05945e-07
-2.94837e-09
9.0978e-07
-3.22906e-09
9.13952e-07
-3.52415e-09
9.18486e-07
-3.83462e-09
9.23415e-07
-4.16754e-09
9.28774e-07
-4.53128e-09
9.34599e-07
-4.93017e-09
9.40919e-07
-5.36539e-09
9.47762e-07
-5.83724e-09
9.55162e-07
-6.34808e-09
9.63159e-07
-6.90276e-09
9.718e-07
-7.50362e-09
9.81133e-07
-8.15069e-09
9.91207e-07
-8.84414e-09
1.00208e-06
-9.58597e-09
1.01381e-06
-1.03829e-08
1.02649e-06
-1.12438e-08
-1.21768e-08
9.19221e-07
5.34963e-11
-4.16615e-10
9.19428e-07
3.69129e-11
-5.26322e-10
9.1972e-07
2.31825e-11
-6.50597e-10
9.20102e-07
1.47764e-11
-7.94275e-10
9.20578e-07
1.30494e-11
-9.59353e-10
9.21155e-07
1.46428e-11
-1.1477e-09
9.2185e-07
1.0875e-11
-1.36335e-09
9.22688e-07
-5.66046e-12
-1.60853e-09
9.23689e-07
-3.54418e-11
-1.87634e-09
9.24867e-07
-7.40038e-11
-2.15345e-09
9.26227e-07
-1.1697e-10
-2.4305e-09
9.27773e-07
-1.6319e-10
-2.70601e-09
9.2951e-07
-2.12154e-10
-2.98436e-09
9.31444e-07
-2.59628e-10
-3.27194e-09
9.33577e-07
-2.99971e-10
-3.57627e-09
9.35915e-07
-3.32016e-10
-3.90807e-09
9.38472e-07
-3.58914e-10
-4.28006e-09
9.4127e-07
-3.83738e-10
-4.70174e-09
9.44328e-07
-4.05975e-10
-5.17507e-09
9.47664e-07
-4.21335e-10
-5.69325e-09
9.51286e-07
-4.27134e-10
-6.24737e-09
9.55212e-07
-4.27968e-10
-6.83623e-09
9.5947e-07
-4.32881e-10
-7.46878e-09
9.64098e-07
-4.4694e-10
-8.15698e-09
9.69136e-07
-4.68091e-10
-8.9086e-09
9.74621e-07
-4.91947e-10
-9.72624e-09
9.80588e-07
-5.16019e-10
-1.06103e-08
9.87068e-07
-5.39049e-10
-1.15599e-08
9.94091e-07
-5.58828e-10
-1.25716e-08
1.00168e-06
-5.71934e-10
-1.36409e-08
1.00986e-06
-5.77594e-10
-1.47673e-08
1.01866e-06
-5.81773e-10
-1.596e-08
1.02815e-06
-5.9378e-10
-1.72383e-08
1.03837e-06
-6.19068e-10
-1.86227e-08
1.04942e-06
-6.56924e-10
-2.01308e-08
1.06137e-06
-7.03865e-10
-2.17753e-08
1.0743e-06
-7.58217e-10
-2.35671e-08
-8.20827e-10
-2.55187e-08
9.45842e-07
6.55079e-11
-2.90464e-10
9.46068e-07
3.77775e-11
-4.33599e-10
9.46388e-07
1.44354e-11
-5.8797e-10
9.46806e-07
-1.98756e-12
-7.52073e-10
9.47326e-07
-1.10111e-11
-9.24662e-10
9.47956e-07
-1.56901e-11
-1.11286e-09
9.48709e-07
-2.44233e-11
-1.33703e-09
9.49599e-07
-4.48109e-11
-1.61172e-09
9.50641e-07
-7.82075e-11
-1.92856e-09
9.51847e-07
-1.21629e-10
-2.26768e-09
9.53224e-07
-1.72086e-10
-2.61254e-09
9.5478e-07
-2.28101e-10
-2.96088e-09
9.56523e-07
-2.87596e-10
-3.32097e-09
9.5846e-07
-3.44787e-10
-3.69443e-09
9.60597e-07
-3.9316e-10
-4.07773e-09
9.62942e-07
-4.30839e-10
-4.47995e-09
9.65511e-07
-4.59806e-10
-4.92057e-09
9.6832e-07
-4.81976e-10
-5.4145e-09
9.71385e-07
-4.96795e-10
-5.96211e-09
9.74721e-07
-5.01654e-10
-6.54712e-09
9.78344e-07
-4.96896e-10
-7.15273e-09
9.82274e-07
-4.90036e-10
-7.78329e-09
9.86543e-07
-4.91745e-10
-8.46084e-09
9.91183e-07
-5.07466e-10
-9.20194e-09
9.96232e-07
-5.34642e-10
-1.00072e-08
1.00172e-06
-5.67526e-10
-1.0874e-08
1.00769e-06
-6.01677e-10
-1.18058e-08
1.01417e-06
-6.33782e-10
-1.28062e-08
1.02119e-06
-6.60295e-10
-1.38731e-08
1.02877e-06
-6.7786e-10
-1.49988e-08
1.03697e-06
-6.86806e-10
-1.61808e-08
1.04581e-06
-6.94339e-10
-1.74383e-08
1.05535e-06
-7.10618e-10
-1.88042e-08
1.06565e-06
-7.41679e-10
-2.03027e-08
1.0768e-06
-7.87614e-10
-2.19444e-08
1.08886e-06
-8.45633e-10
-2.37342e-08
1.10191e-06
-9.1441e-10
-2.56818e-08
-9.94998e-10
-2.78031e-08
9.48036e-07
4.89339e-11
-2.13486e-10
9.48277e-07
1.43296e-11
-3.84383e-10
9.48617e-07
-1.48293e-11
-5.64098e-10
9.49058e-07
-3.72958e-11
-7.44781e-10
9.49605e-07
-5.24859e-11
-9.26372e-10
9.50263e-07
-6.19531e-11
-1.12185e-09
9.51043e-07
-7.07457e-11
-1.35744e-09
9.51956e-07
-8.41563e-11
-1.64785e-09
9.53013e-07
-1.04772e-10
-1.9844e-09
9.54225e-07
-1.33212e-10
-2.34825e-09
9.55602e-07
-1.6907e-10
-2.72569e-09
9.57154e-07
-2.11119e-10
-3.1195e-09
9.58892e-07
-2.56358e-10
-3.53712e-09
9.60824e-07
-2.99108e-10
-3.96956e-09
9.62956e-07
-3.33768e-10
-4.40592e-09
9.65298e-07
-3.58019e-10
-4.85471e-09
9.67864e-07
-3.71688e-10
-5.33606e-09
9.70667e-07
-3.74957e-10
-5.86469e-09
9.73723e-07
-3.68055e-10
-6.43537e-09
9.77044e-07
-3.5176e-10
-7.02469e-09
9.80644e-07
-3.29969e-10
-7.62127e-09
9.84549e-07
-3.11018e-10
-8.24722e-09
9.88791e-07
-3.0378e-10
-8.93834e-09
9.93406e-07
-3.11936e-10
-9.70951e-09
9.98427e-07
-3.3263e-10
-1.05518e-08
1.00389e-06
-3.60272e-10
-1.1457e-08
1.00982e-06
-3.89739e-10
-1.24261e-08
1.01626e-06
-4.16761e-10
-1.34613e-08
1.02324e-06
-4.38067e-10
-1.45573e-08
1.03079e-06
-4.51857e-10
-1.57009e-08
1.03894e-06
-4.59366e-10
-1.6892e-08
1.04774e-06
-4.66159e-10
-1.81637e-08
1.05725e-06
-4.79062e-10
-1.95591e-08
1.06753e-06
-5.02163e-10
-2.11047e-08
1.07866e-06
-5.36386e-10
-2.28075e-08
1.0907e-06
-5.81035e-10
-2.46654e-08
1.10374e-06
-6.3601e-10
-2.66853e-08
-7.02632e-10
-2.88861e-08
9.4829e-07
1.80642e-11
-1.95399e-10
9.48539e-07
-2.06179e-11
-3.78033e-10
9.48889e-07
-5.27616e-11
-5.67718e-10
9.49343e-07
-7.81342e-11
-7.59498e-10
9.49903e-07
-9.59238e-11
-9.5401e-10
9.50574e-07
-1.05978e-10
-1.16147e-09
9.51363e-07
-1.10707e-10
-1.40142e-09
9.52282e-07
-1.13688e-10
-1.68488e-09
9.5334e-07
-1.18424e-10
-2.00913e-09
9.54549e-07
-1.27724e-10
-2.36456e-09
9.55923e-07
-1.42673e-10
-2.74508e-09
9.57473e-07
-1.62336e-10
-3.15703e-09
9.5921e-07
-1.83799e-10
-3.60166e-09
9.61143e-07
-2.0247e-10
-4.06195e-09
9.63279e-07
-2.14403e-10
-4.52445e-09
9.65626e-07
-2.17556e-10
-4.99469e-09
9.68196e-07
-2.10816e-10
-5.48775e-09
9.71004e-07
-1.93786e-10
-6.0128e-09
9.7406e-07
-1.67927e-10
-6.55821e-09
9.77376e-07
-1.36092e-10
-7.10296e-09
9.80965e-07
-1.03323e-10
-7.65245e-09
9.84854e-07
-7.61394e-11
-8.24775e-09
9.89079e-07
-6.01081e-11
-8.9324e-09
9.93677e-07
-5.68488e-11
-9.71628e-09
9.98685e-07
-6.38639e-11
-1.05824e-08
1.00413e-06
-7.70581e-11
-1.1516e-08
1.01006e-06
-9.24393e-11
-1.25114e-08
1.01649e-06
-1.06795e-10
-1.35649e-08
1.02345e-06
-1.18488e-10
-1.46659e-08
1.03098e-06
-1.27203e-10
-1.57991e-08
1.03912e-06
-1.33768e-10
-1.69724e-08
1.0479e-06
-1.40491e-10
-1.82302e-08
1.0574e-06
-1.49897e-10
-1.96196e-08
1.06767e-06
-1.63603e-10
-2.1165e-08
1.07878e-06
-1.83037e-10
-2.28703e-08
1.09081e-06
-2.09607e-10
-2.47313e-08
1.10384e-06
-2.44506e-10
-2.67551e-08
-2.89382e-10
-2.89632e-08
9.48304e-07
-1.34846e-11
-2.22978e-10
9.48559e-07
-5.45498e-11
-4.0435e-10
9.48916e-07
-8.80595e-11
-5.93606e-10
9.49377e-07
-1.13872e-10
-7.93655e-10
9.49945e-07
-1.31179e-10
-1.00194e-09
9.50624e-07
-1.39393e-10
-1.21962e-09
9.5142e-07
-1.39529e-10
-1.45594e-09
9.52341e-07
-1.34009e-10
-1.71945e-09
9.53397e-07
-1.26422e-10
-2.01578e-09
9.54603e-07
-1.2026e-10
-2.34775e-09
9.55972e-07
-1.1643e-10
-2.71978e-09
9.57521e-07
-1.13957e-10
-3.13735e-09
9.5926e-07
-1.10438e-10
-3.59224e-09
9.61197e-07
-1.02934e-10
-4.0637e-09
9.63338e-07
-8.99085e-11
-4.53887e-09
9.65692e-07
-7.11229e-11
-5.01841e-09
9.68271e-07
-4.62991e-11
-5.50991e-09
9.71085e-07
-1.57084e-11
-6.01533e-09
9.74145e-07
1.94522e-11
-6.52083e-09
9.77457e-07
5.64809e-11
-7.01495e-09
9.81038e-07
9.16597e-11
-7.51965e-09
9.84916e-07
1.2154e-10
-8.08918e-09
9.8913e-07
1.4389e-10
-8.76728e-09
9.93718e-07
1.58597e-10
-9.55702e-09
9.98718e-07
1.671e-10
-1.04364e-08
1.00416e-06
1.71127e-10
-1.13858e-08
1.01008e-06
1.72311e-10
-1.23933e-08
1.01651e-06
1.71519e-10
-1.34504e-08
1.02347e-06
1.6831e-10
-1.4544e-08
1.031e-06
1.62265e-10
-1.56629e-08
1.03913e-06
1.53983e-10
-1.68248e-08
1.04791e-06
1.4459e-10
-1.80769e-08
1.0574e-06
1.3537e-10
-1.94597e-08
1.06766e-06
1.26476e-10
-2.09914e-08
1.07877e-06
1.16123e-10
-2.26764e-08
1.09079e-06
1.01702e-10
-2.4516e-08
1.10381e-06
8.12775e-11
-2.65211e-08
5.31785e-11
-2.87123e-08
9.48279e-07
-4.00709e-11
-2.63963e-10
9.4854e-07
-7.98262e-11
-4.49719e-10
9.48903e-07
-1.11978e-10
-6.434e-10
9.49372e-07
-1.35659e-10
-8.52566e-10
9.49948e-07
-1.50264e-10
-1.07073e-09
9.50634e-07
-1.55529e-10
-1.29271e-09
9.51436e-07
-1.52176e-10
-1.52044e-09
9.52359e-07
-1.41952e-10
-1.76081e-09
9.53415e-07
-1.27412e-10
-2.02763e-09
9.54618e-07
-1.10442e-10
-2.33778e-09
9.55986e-07
-9.11563e-11
-2.70406e-09
9.57536e-07
-6.86254e-11
-3.12578e-09
9.59278e-07
-4.15296e-11
-3.58414e-09
9.61219e-07
-9.30505e-12
-4.05678e-09
9.63365e-07
2.67347e-11
-4.53227e-09
9.65724e-07
6.4693e-11
-5.00949e-09
9.68307e-07
1.03141e-10
-5.49172e-09
9.71125e-07
1.41203e-10
-5.97591e-09
9.74186e-07
1.77822e-10
-6.44893e-09
9.77495e-07
2.11998e-10
-6.90898e-09
9.81071e-07
2.43315e-10
-7.39034e-09
9.84942e-07
2.71997e-10
-7.95054e-09
9.8915e-07
2.98615e-10
-8.62719e-09
9.93733e-07
3.23705e-10
-9.41748e-09
9.98729e-07
3.47094e-10
-1.02985e-08
1.00417e-06
3.67899e-10
-1.12491e-08
1.01009e-06
3.84959e-10
-1.22539e-08
1.01651e-06
3.96526e-10
-1.33019e-08
1.02347e-06
4.00582e-10
-1.43843e-08
1.031e-06
3.96776e-10
-1.55002e-08
1.03912e-06
3.87219e-10
-1.66725e-08
1.0479e-06
3.75348e-10
-1.79388e-08
1.05739e-06
3.64734e-10
-1.93243e-08
1.06765e-06
3.56929e-10
-2.08418e-08
1.07876e-06
3.50564e-10
-2.25033e-08
1.09077e-06
3.43145e-10
-2.43215e-08
1.10379e-06
3.32892e-10
-2.63138e-08
3.18159e-10
-2.84977e-08
9.48246e-07
-2.88513e-10
9.48512e-07
-9.47176e-11
-4.968e-10
9.48883e-07
-1.20996e-10
-7.06984e-10
9.4936e-07
-1.39546e-10
-9.24887e-10
9.49943e-07
-1.49764e-10
-1.14572e-09
9.50637e-07
-1.51712e-10
-1.36649e-09
9.51445e-07
-1.46028e-10
-1.58669e-09
9.52372e-07
-1.33499e-10
-1.81115e-09
9.53429e-07
-1.14595e-10
-2.05951e-09
9.54633e-07
-8.88647e-11
-2.36049e-09
9.56005e-07
-5.54008e-11
-2.73066e-09
9.57559e-07
-1.40097e-11
-3.15847e-09
9.59306e-07
3.40039e-11
-3.6135e-09
9.6125e-07
8.66262e-11
-4.07241e-09
9.63397e-07
1.40713e-10
-4.52955e-09
9.65756e-07
1.92559e-10
-4.98941e-09
9.68339e-07
2.39571e-10
-5.45672e-09
9.71156e-07
2.80353e-10
-5.9274e-09
9.74214e-07
3.14399e-10
-6.38886e-09
9.77521e-07
3.42931e-10
-6.84236e-09
9.81094e-07
3.68867e-10
-7.32418e-09
9.84964e-07
3.95534e-10
-7.88794e-09
9.8917e-07
4.25459e-10
-8.56371e-09
9.93752e-07
4.59288e-10
-9.34711e-09
9.98746e-07
4.95334e-10
-1.02188e-08
1.00418e-06
5.30409e-10
-1.11588e-08
1.0101e-06
5.6092e-10
-1.21503e-08
1.01652e-06
5.83181e-10
-1.31832e-08
1.02347e-06
5.94362e-10
-1.42575e-08
1.03099e-06
5.94559e-10
-1.53833e-08
1.03911e-06
5.86989e-10
-1.65817e-08
1.0479e-06
5.7579e-10
-1.7873e-08
1.05739e-06
5.65218e-10
-1.92667e-08
1.06765e-06
5.57788e-10
-2.07749e-08
1.07875e-06
5.53577e-10
-2.24198e-08
1.09076e-06
5.51815e-10
-2.42265e-08
1.10378e-06
5.5202e-10
-2.62186e-08
5.52526e-10
-2.84115e-08
9.48482e-07
-1.00209e-10
-5.39777e-10
9.4886e-07
-1.15608e-10
-7.70258e-10
9.49343e-07
-1.26264e-10
-9.9212e-10
9.49933e-07
-1.30896e-10
-1.20936e-09
9.50632e-07
-1.28976e-10
-1.42775e-09
9.51445e-07
-1.20484e-10
-1.64744e-09
9.52377e-07
-1.04891e-10
-1.87096e-09
9.53439e-07
-8.02955e-11
-2.12019e-09
9.54649e-07
-4.40595e-11
-2.42902e-09
9.56027e-07
4.82353e-12
-2.81078e-09
9.57588e-07
6.36467e-11
-3.24137e-09
9.59339e-07
1.28538e-10
-3.68184e-09
9.61285e-07
1.94897e-10
-4.11122e-09
9.6343e-07
2.58997e-10
-4.53393e-09
9.65786e-07
3.17235e-10
-4.96472e-09
9.68363e-07
3.67472e-10
-5.41492e-09
9.71175e-07
4.08221e-10
-5.88178e-09
9.74229e-07
4.39178e-10
-6.35004e-09
9.77533e-07
4.63016e-10
-6.81664e-09
9.81107e-07
4.85001e-10
-7.31342e-09
9.84981e-07
5.10642e-10
-7.88633e-09
9.8919e-07
5.43681e-10
-8.55945e-09
9.93774e-07
5.8468e-10
-9.33086e-09
9.98767e-07
6.30985e-10
-1.01874e-08
1.0042e-06
6.77911e-10
-1.1113e-08
1.01011e-06
7.20139e-10
-1.20915e-08
1.01652e-06
7.52691e-10
-1.31149e-08
1.02346e-06
7.72444e-10
-1.419e-08
1.03098e-06
7.80156e-10
-1.53323e-08
1.0391e-06
7.79233e-10
-1.65575e-08
1.04788e-06
7.73536e-10
-1.78726e-08
1.05738e-06
7.67135e-10
-1.92791e-08
1.06765e-06
7.63e-10
-2.07905e-08
1.07875e-06
7.63162e-10
-2.24345e-08
1.09076e-06
7.69583e-10
-2.42427e-08
1.10378e-06
7.84025e-10
-2.6242e-08
8.05743e-10
-2.84491e-08
9.48417e-07
-9.69917e-11
-5.78877e-10
9.488e-07
-9.85412e-11
-8.2029e-10
9.49288e-07
-1.00354e-10
-1.03807e-09
9.49881e-07
-9.92367e-11
-1.24813e-09
9.50584e-07
-9.27755e-11
-1.4655e-09
9.514e-07
-7.96284e-11
-1.69265e-09
9.52337e-07
-5.81201e-11
-1.93028e-09
9.53407e-07
-2.47106e-11
-2.1975e-09
9.54625e-07
2.40942e-11
-2.52351e-09
9.56013e-07
8.81366e-11
-2.91342e-09
9.57581e-07
1.62105e-10
-3.33553e-09
9.59336e-07
2.37843e-10
-3.75004e-09
9.61281e-07
3.09044e-10
-4.14249e-09
9.63424e-07
3.72853e-10
-4.5261e-09
9.65774e-07
4.28553e-10
-4.92433e-09
9.68344e-07
4.75832e-10
-5.35462e-09
9.71149e-07
5.13501e-10
-5.81734e-09
9.74197e-07
5.41144e-10
-6.29569e-09
9.77501e-07
5.62115e-10
-6.78283e-09
9.8108e-07
5.8278e-10
-7.30321e-09
9.8496e-07
6.09358e-10
-7.89133e-09
9.89178e-07
6.45691e-10
-8.56447e-09
9.93767e-07
6.92319e-10
-9.3231e-09
9.98763e-07
7.46497e-10
-1.01617e-08
1.0042e-06
8.02973e-10
-1.10717e-08
1.0101e-06
8.55539e-10
-1.20409e-08
1.0165e-06
8.9821e-10
-1.30627e-08
1.02344e-06
9.27499e-10
-1.41441e-08
1.03095e-06
9.44913e-10
-1.52996e-08
1.03907e-06
9.54349e-10
-1.65433e-08
1.04786e-06
9.59275e-10
-1.78788e-08
1.05736e-06
9.62818e-10
-1.93061e-08
1.06763e-06
9.67536e-10
-2.08376e-08
1.07874e-06
9.76878e-10
-2.24973e-08
1.09077e-06
9.95494e-10
-2.43165e-08
1.10378e-06
1.02796e-09
-2.63228e-08
1.07631e-09
-2.85375e-08
9.4811e-07
-8.26175e-11
-6.1613e-10
9.48495e-07
-7.25674e-11
-8.51504e-10
9.48983e-07
-6.84973e-11
-1.05603e-09
9.49575e-07
-6.41893e-11
-1.25506e-09
9.50276e-07
-5.46052e-11
-1.46935e-09
9.51093e-07
-3.70045e-11
-1.704e-09
9.52032e-07
-9.5984e-12
-1.95818e-09
9.53107e-07
3.1366e-11
-2.24342e-09
9.54333e-07
8.87668e-11
-2.57673e-09
9.55728e-07
1.60844e-10
-2.95455e-09
9.57302e-07
2.39412e-10
-3.34704e-09
9.59061e-07
3.1404e-10