/*--------------------------------*- C++ -*----------------------------------*\
| =========                 |                                                 |
| \\      /  F ield         | OpenFOAM: The Open Source CFD Toolbox           |
|  \\    /   O peration     | Version:  2.3.1                                 |
|   \\  /    A nd           | Web:      www.OpenFOAM.org                      |
|    \\/     M anipulation  |                                                 |
\*---------------------------------------------------------------------------*/
FoamFile
{
    version     2.0;
    format      ascii;
    class       volScalarField;
    location    "5";
    object      Sed;
}
// * * * * * * * * * * * * * * * * * * * * * * * * * * * * * * * * * * * * * //

dimensions      [0 0 0 0 0 0 0];

internalField   nonuniform List<scalar> 
37692
(
1.58923e-99
3.39801e-101
7.18626e-103
1.50501e-104
3.11944e-106
6.39781e-108
1.29849e-109
2.60836e-111
5.18695e-113
1.02132e-114
1.99165e-116
3.84728e-118
7.36328e-120
1.39646e-121
2.6247e-123
4.88947e-125
9.0287e-127
1.65282e-128
2.99998e-130
5.39961e-132
9.63862e-134
1.70664e-135
2.99795e-137
5.22578e-139
9.04089e-141
1.55272e-142
2.64778e-144
4.48406e-146
7.54309e-148
1.26067e-149
2.09373e-151
3.45622e-153
5.67233e-155
9.25821e-157
1.50325e-158
2.42889e-160
3.90659e-162
6.25684e-164
2.74974e-97
5.96269e-99
1.2781e-100
2.71276e-102
5.69861e-104
1.18441e-105
2.43568e-107
4.95667e-109
9.98346e-111
1.99052e-112
3.92941e-114
7.68174e-116
1.4875e-117
2.85368e-119
5.4246e-121
1.02188e-122
1.90791e-124
3.53094e-126
6.4782e-128
1.17843e-129
2.12564e-131
3.80256e-133
6.74744e-135
1.18786e-136
2.07509e-138
3.59786e-140
6.19259e-142
1.05831e-143
1.79619e-145
3.02816e-147
5.07205e-149
8.44238e-151
1.3968e-152
2.29782e-154
3.75957e-156
6.11971e-158
9.91361e-160
1.59878e-161
9.70622e-96
2.13511e-97
4.64048e-99
9.98509e-101
2.12629e-102
4.47944e-104
9.33567e-106
1.92507e-107
3.92813e-109
7.93281e-111
1.58577e-112
3.13841e-114
6.15089e-116
1.19404e-117
2.29629e-119
4.37559e-121
8.26237e-123
1.54629e-124
2.86843e-126
5.27495e-128
9.61743e-130
1.73872e-131
3.11748e-133
5.54458e-135
9.7838e-137
1.71318e-138
2.97744e-140
5.13704e-142
8.80038e-144
1.49725e-145
2.53035e-147
4.24874e-149
7.09003e-151
1.17616e-152
1.94017e-154
3.18346e-156
5.1973e-158
8.4454e-160
8.42927e-95
1.88059e-96
4.14428e-98
9.03983e-100
1.95115e-101
4.1657e-103
8.79701e-105
1.83775e-106
3.79841e-108
7.76859e-110
1.57243e-111
3.15042e-113
6.24929e-115
1.22759e-116
2.38848e-118
4.60377e-120
8.79222e-122
1.66394e-123
3.12094e-125
5.80213e-127
1.06928e-128
1.95374e-130
3.53985e-132
6.36111e-134
1.13395e-135
2.00562e-137
3.52031e-139
6.13304e-141
1.06076e-142
1.82176e-144
3.1073e-146
5.26496e-148
8.86428e-150
1.48337e-151
2.46799e-153
4.08363e-155
6.72195e-157
1.10111e-158
2.21841e-94
4.99854e-96
1.11237e-97
2.45014e-99
5.33988e-101
1.1511e-102
2.45424e-104
5.17597e-106
1.07994e-107
2.22945e-109
4.55463e-111
9.20969e-113
1.84359e-114
3.65433e-116
7.17396e-118
1.39508e-119
2.68783e-121
5.13129e-123
9.70794e-125
1.82033e-126
3.38333e-128
6.23419e-130
1.13903e-131
2.06392e-133
3.70969e-135
6.61527e-137
1.17059e-138
2.05583e-140
3.58411e-142
6.20394e-144
1.06644e-145
1.8209e-147
3.08912e-149
5.20837e-151
8.72995e-153
1.4551e-154
2.41253e-156
3.98016e-158
3.06294e-94
6.92638e-96
1.54691e-97
3.41942e-99
7.47882e-101
1.61789e-102
3.46156e-104
7.32576e-106
1.53374e-107
3.17709e-109
6.5126e-111
1.32132e-112
2.65387e-114
5.2779e-116
1.03954e-117
2.02814e-119
3.92016e-121
7.50795e-123
1.42496e-124
2.68036e-126
4.99744e-128
9.23713e-130
1.69293e-131
3.07709e-133
5.54777e-135
9.92326e-137
1.76127e-138
3.10253e-140
5.42505e-142
9.41833e-144
1.62375e-145
2.78061e-147
4.73095e-149
7.99949e-151
1.34463e-152
2.24749e-154
3.73665e-156
6.18158e-158
3.06344e-94
6.92774e-96
1.54722e-97
3.42008e-99
7.48032e-101
1.61823e-102
3.46234e-104
7.32747e-106
1.5341e-107
3.17787e-109
6.51428e-111
1.32168e-112
2.65462e-114
5.27935e-116
1.0398e-117
2.02858e-119
3.92088e-121
7.50906e-123
1.42512e-124
2.68059e-126
4.9978e-128
9.2377e-130
1.69303e-131
3.07725e-133
5.54802e-135
9.9236e-137
1.76131e-138
3.10255e-140
5.42498e-142
9.41811e-144
1.62371e-145
2.78058e-147
4.73097e-149
7.99957e-151
1.34464e-152
2.24748e-154
3.73659e-156
6.18147e-158
4.99732e-96
1.11311e-97
2.44919e-99
5.33486e-101
1.15e-102
2.45234e-104
5.17299e-106
1.07951e-107
2.22898e-109
4.55457e-111
9.21129e-113
1.84415e-114
3.65559e-116
7.17614e-118
1.39537e-119
2.68803e-121
5.13102e-123
9.70634e-125
1.81987e-126
3.38233e-128
6.23226e-130
1.13869e-131
2.06333e-133
3.70868e-135
6.61351e-137
1.17027e-138
2.05525e-140
3.58301e-142
6.20197e-144
1.06612e-145
1.82043e-147
3.08845e-149
5.20737e-151
8.72824e-153
1.45478e-154
2.41195e-156
3.97915e-158
1.88226e-96
4.15201e-98
9.04724e-100
1.95164e-101
4.16662e-103
8.80048e-105
1.83883e-106
3.80134e-108
7.77607e-110
1.57426e-111
3.15466e-113
6.25833e-115
1.22935e-116
2.39163e-118
4.60902e-120
8.80049e-122
1.66519e-123
3.12274e-125
5.80469e-127
1.06966e-128
1.95432e-130
3.54083e-132
6.36282e-134
1.13424e-135
2.00612e-137
3.52112e-139
6.13425e-141
1.06093e-142
1.82198e-144
3.10767e-146
5.26576e-148
8.86596e-150
1.48368e-151
2.46847e-153
4.0843e-155
6.72279e-157
1.10121e-158
2.13732e-97
4.6498e-99
9.99532e-101
2.1275e-102
4.48232e-104
9.34414e-106
1.92735e-107
3.9338e-109
7.94621e-111
1.5888e-112
3.14491e-114
6.16397e-116
1.1965e-117
2.30067e-119
4.38303e-121
8.2747e-123
1.5483e-124
2.87169e-126
5.28019e-128
9.62603e-130
1.74017e-131
3.12001e-133
5.54899e-135
9.79139e-137
1.71448e-138
2.97961e-140
5.14058e-142
8.80599e-144
1.49813e-145
2.53177e-147
4.25115e-149
7.09421e-151
1.17687e-152
1.94133e-154
3.18526e-156
5.20003e-158
8.44951e-160
5.96849e-99
1.2803e-100
2.71498e-102
5.7018e-104
1.18534e-105
2.43848e-107
4.96417e-109
1.00018e-110
1.99471e-112
3.93846e-114
7.70023e-116
1.49108e-117
2.86025e-119
5.43622e-121
1.02389e-122
1.91132e-124
3.53671e-126
6.4879e-128
1.18005e-129
2.12838e-131
3.80727e-133
6.75565e-135
1.18929e-136
2.07755e-138
3.60203e-140
6.19958e-142
1.05945e-143
1.798e-145
3.03099e-147
5.07652e-149
8.44966e-151
1.39802e-152
2.29986e-154
3.76288e-156
6.12493e-158
9.92163e-160
1.6e-161
3.40065e-101
7.19441e-103
1.50562e-104
3.12078e-106
6.40295e-108
1.3001e-109
2.61266e-111
5.19735e-113
1.02363e-114
1.99645e-116
3.85677e-118
7.38115e-120
1.39971e-121
2.63042e-123
4.89945e-125
9.04602e-127
1.6558e-128
3.00506e-130
5.40817e-132
9.65308e-134
1.70913e-135
3.00229e-137
5.23333e-139
9.05388e-141
1.55492e-142
2.65145e-144
4.49002e-146
7.55246e-148
1.26211e-149
2.09595e-151
3.45977e-153
5.67815e-155
9.26776e-157
1.50478e-158
2.43125e-160
3.91016e-162
6.26221e-164
8.9866e-98
1.9486e-99
4.17586e-101
8.86106e-103
1.861e-104
3.8671e-106
7.95087e-108
1.61769e-109
3.25763e-111
6.49399e-113
1.28175e-114
2.50538e-116
4.85077e-118
9.30463e-120
1.76849e-121
3.331e-123
6.21827e-125
1.15064e-126
2.11078e-128
3.8391e-130
6.92393e-132
1.23844e-133
2.19723e-135
3.86755e-137
6.75529e-139
1.17108e-140
2.01536e-142
3.44372e-144
5.84388e-146
9.85059e-148
1.64967e-149
2.74542e-151
4.54157e-153
7.46989e-155
1.22197e-156
1.98872e-158
3.22103e-160
5.19361e-162
1.29289e-95
2.84475e-97
6.17938e-99
1.32875e-100
2.82804e-102
5.95528e-104
1.24067e-105
2.55736e-107
5.21643e-109
1.05307e-110
2.10434e-112
4.16323e-114
8.1564e-116
1.58276e-117
3.0427e-119
5.79564e-121
1.09396e-122
2.04654e-124
3.79497e-126
6.97612e-128
1.27142e-129
2.29771e-131
4.11817e-133
7.3214e-135
1.29137e-136
2.26024e-138
3.9264e-140
6.77107e-142
1.15939e-143
1.97152e-145
3.33013e-147
5.58868e-149
9.32085e-151
1.54532e-152
2.54754e-154
4.17727e-156
6.81501e-158
1.10658e-159
4.22427e-94
9.43149e-96
2.07743e-97
4.52804e-99
9.76827e-101
2.08488e-102
4.40179e-104
9.19368e-106
1.89984e-107
3.88479e-109
7.86138e-111
1.57465e-112
3.12259e-114
6.13177e-116
1.19259e-117
2.29778e-119
4.38647e-121
8.29802e-123
1.55575e-124
2.89111e-126
5.3259e-128
9.72716e-130
1.76162e-131
3.16411e-133
5.63745e-135
9.96518e-137
1.74801e-138
3.0433e-140
5.25985e-142
9.02646e-144
1.53839e-145
2.60449e-147
4.38121e-149
7.32485e-151
1.21747e-152
2.01233e-154
3.30866e-156
5.4132e-158
3.62134e-93
8.20009e-95
1.83115e-96
4.04528e-98
8.84375e-100
1.91263e-101
4.09116e-103
8.65569e-105
1.81157e-106
3.75112e-108
7.68557e-110
1.55836e-111
3.12763e-113
6.21457e-115
1.22278e-116
2.38297e-118
4.60048e-120
8.7998e-122
1.66797e-123
3.13329e-125
5.83393e-127
1.07678e-128
1.97048e-130
3.57578e-132
6.43573e-134
1.14904e-135
2.03546e-137
3.57819e-139
6.24342e-141
1.0815e-142
1.8602e-144
3.17782e-146
5.39315e-148
9.09531e-150
1.52467e-151
2.5412e-153
4.21249e-155
6.9472e-157
9.6336e-93
2.2029e-94
4.9671e-96
1.10789e-97
2.4453e-99
5.33895e-101
1.15286e-102
2.46209e-104
5.20112e-106
1.08697e-107
2.24759e-109
4.59903e-111
9.31402e-113
1.86732e-114
3.70684e-116
7.28755e-118
1.41918e-119
2.73808e-121
5.23443e-123
9.91651e-125
1.86195e-126
3.46544e-128
6.39443e-130
1.16996e-131
2.12298e-133
3.82121e-135
6.82362e-137
1.20912e-138
2.1264e-140
3.71216e-142
6.43435e-144
1.10759e-145
1.89392e-147
3.21785e-149
5.43388e-151
9.12262e-153
1.52308e-154
2.52961e-156
1.33999e-92
3.07509e-94
6.95824e-96
1.55746e-97
3.44963e-99
7.558e-101
1.63768e-102
3.5095e-104
7.43901e-106
1.55991e-107
3.23639e-109
6.64445e-111
1.35011e-112
2.71569e-114
5.40854e-116
1.06675e-117
2.08406e-119
4.03364e-121
7.73549e-123
1.47006e-124
2.76881e-126
5.16925e-128
9.56772e-130
1.75594e-131
3.19601e-133
5.77003e-135
1.03347e-136
1.83674e-138
3.23974e-140
5.67243e-142
9.8609e-144
1.70236e-145
2.91934e-147
4.97424e-149
8.42354e-151
1.41812e-152
2.37418e-154
3.95395e-156
1.34021e-92
3.07575e-94
6.95973e-96
1.55776e-97
3.45024e-99
7.55934e-101
1.63798e-102
3.51017e-104
7.44046e-106
1.56023e-107
3.23709e-109
6.64601e-111
1.35045e-112
2.71638e-114
5.40985e-116
1.06698e-117
2.08444e-119
4.03425e-121
7.7364e-123
1.47019e-124
2.76901e-126
5.16955e-128
9.56821e-130
1.75602e-131
3.19614e-133
5.77024e-135
1.0335e-136
1.83678e-138
3.23976e-140
5.67244e-142
9.86095e-144
1.70239e-145
2.91942e-147
4.97438e-149
8.42377e-151
1.41815e-152
2.37422e-154
3.954e-156
2.19958e-94
4.9713e-96
1.1081e-97
2.4437e-99
5.33376e-101
1.1518e-102
2.46023e-104
5.19809e-106
1.08652e-107
2.24709e-109
4.59893e-111
9.31543e-113
1.86781e-114
3.70789e-116
7.28929e-118
1.41938e-119
2.73814e-121
5.2339e-123
9.91451e-125
1.86145e-126
3.4644e-128
6.39248e-130
1.16962e-131
2.12239e-133
3.82021e-135
6.8219e-137
1.20882e-138
2.12586e-140
3.71124e-142
6.43292e-144
1.10739e-145
1.89364e-147
3.21744e-149
5.4332e-151
9.12138e-153
1.52285e-154
2.52921e-156
8.19776e-95
1.83499e-96
4.05094e-98
8.84824e-100
1.91294e-101
4.09195e-103
8.65865e-105
1.81247e-106
3.75363e-108
7.69226e-110
1.56004e-111
3.13151e-113
6.22271e-115
1.22434e-116
2.38573e-118
4.60499e-120
8.80674e-122
1.66898e-123
3.1347e-125
5.83592e-127
1.07708e-128
1.97098e-130
3.57665e-132
6.43731e-134
1.14932e-135
2.03596e-137
3.57903e-139
6.24478e-141
1.08172e-142
1.86061e-144
3.17861e-146
5.39466e-148
9.09801e-150
1.52511e-151
2.54188e-153
4.21349e-155
6.94868e-157
9.43148e-96
2.08216e-97
4.53509e-99
9.77583e-101
2.08605e-102
4.40482e-104
9.20203e-106
1.90199e-107
3.89008e-109
7.87398e-111
1.57751e-112
3.12867e-114
6.1438e-116
1.19481e-117
2.30168e-119
4.393e-121
8.30866e-123
1.55746e-124
2.89383e-126
5.33035e-128
9.73472e-130
1.76295e-131
3.16647e-133
5.64162e-135
9.97251e-137
1.74928e-138
3.04545e-140
5.26343e-142
9.03236e-144
1.53939e-145
2.6062e-147
4.38418e-149
7.32991e-151
1.2183e-152
2.01365e-154
3.31072e-156
5.41639e-158
2.84548e-97
6.19228e-99
1.33041e-100
2.82995e-102
5.95934e-104
1.24184e-105
2.56056e-107
5.22447e-109
1.05499e-110
2.10869e-112
4.17256e-114
8.17523e-116
1.58633e-117
3.04914e-119
5.80679e-121
1.09585e-122
2.04968e-124
3.80016e-126
6.98472e-128
1.27287e-129
2.30023e-131
4.12262e-133
7.32929e-135
1.29275e-136
2.26265e-138
3.93052e-140
6.77797e-142
1.16052e-143
1.97335e-145
3.33311e-147
5.59363e-149
9.3292e-151
1.54672e-152
2.54983e-154
4.1809e-156
6.82065e-158
1.10746e-159
1.94984e-99
4.18256e-101
8.86761e-103
1.86189e-104
3.86985e-106
7.95947e-108
1.62005e-109
3.26354e-111
6.50767e-113
1.28473e-114
2.51148e-116
4.86258e-118
9.32635e-120
1.77233e-121
3.33761e-123
6.22951e-125
1.15254e-126
2.11394e-128
3.84437e-130
6.93284e-132
1.23999e-133
2.19996e-135
3.87236e-137
6.7637e-139
1.17253e-140
2.0178e-142
3.44775e-144
5.85034e-146
9.86072e-148
1.65128e-149
2.74803e-151
4.54592e-153
7.4771e-155
1.22313e-156
1.99054e-158
3.2238e-160
5.19781e-162
1.82027e-96
4.00085e-98
8.68581e-100
1.86684e-101
3.97123e-103
8.35794e-105
1.74024e-106
3.58515e-108
7.30896e-110
1.47478e-111
2.94567e-113
5.82519e-115
1.14077e-116
2.2128e-118
4.25222e-120
8.09637e-122
1.52766e-123
2.85681e-125
5.29553e-127
9.73103e-129
1.77288e-130
3.20282e-132
5.73839e-134
1.01984e-135
1.79822e-137
3.14635e-139
5.464e-141
9.4198e-143
1.61245e-144
2.74113e-146
4.62876e-148
7.76579e-150
1.29481e-151
2.14606e-153
3.53689e-155
5.7979e-157
9.45635e-159
1.53505e-160
2.32861e-94
5.19656e-96
1.14376e-97
2.49083e-99
5.36908e-101
1.14508e-102
2.41587e-104
5.04235e-106
1.04129e-107
2.12785e-109
4.30327e-111
8.61421e-113
1.70718e-114
3.35034e-116
6.51227e-118
1.25399e-119
2.39247e-121
4.52327e-123
8.47556e-125
1.57414e-126
2.89821e-128
5.29031e-130
9.57558e-132
1.71893e-133
3.06083e-135
5.40742e-137
9.47968e-139
1.64944e-140
2.84907e-142
4.88633e-144
8.32273e-146
1.40815e-147
2.36724e-149
3.95511e-151
6.56929e-153
1.08504e-154
1.78268e-156
2.91432e-158
7.14529e-93
1.61851e-94
3.61289e-96
7.97473e-98
1.74206e-99
3.76527e-101
8.05013e-103
1.70242e-104
3.56151e-106
7.37153e-108
1.5097e-109
3.0598e-111
6.13821e-113
1.21906e-114
2.39741e-116
4.66961e-118
9.01011e-120
1.72252e-121
3.26318e-123
6.12659e-125
1.14011e-126
2.10318e-128
3.8466e-130
6.97618e-132
1.2548e-133
2.23884e-135
3.96319e-137
6.96186e-139
1.2138e-140
2.10089e-142
3.61058e-144
6.16269e-146
1.04494e-147
1.76055e-149
2.94824e-151
4.9086e-153
8.12751e-155
1.33874e-156
6.07501e-92
1.3956e-93
3.15822e-95
7.06444e-97
1.56356e-98
3.42372e-100
7.415e-102
1.58825e-103
3.36479e-105
7.05159e-107
1.46205e-108
2.99943e-110
6.08951e-112
1.2237e-113
2.43447e-115
4.79591e-117
9.35761e-119
1.80871e-120
3.46382e-122
6.57327e-124
1.23624e-125
2.30448e-127
4.25852e-129
7.80242e-131
1.4176e-132
2.55453e-134
4.56642e-136
8.09899e-138
1.42547e-139
2.49028e-141
4.31902e-143
7.43825e-145
1.27236e-146
2.1623e-148
3.6518e-150
6.13057e-152
1.02335e-153
1.69904e-155
1.63795e-91
3.79967e-93
8.68155e-95
1.96044e-96
4.38007e-98
9.68144e-100
2.11645e-101
4.57555e-103
9.78319e-105
2.06909e-106
4.32913e-108
8.96186e-110
1.83583e-111
3.72204e-113
7.47015e-115
1.48447e-116
2.92149e-118
5.69521e-120
1.09993e-121
2.10488e-123
3.99169e-125
7.50266e-127
1.39786e-128
2.58209e-130
4.72943e-132
8.59107e-134
1.54797e-135
2.76718e-137
4.90852e-139
8.64145e-141
1.51021e-142
2.62058e-144
4.51623e-146
7.73181e-148
1.31531e-149
2.22403e-151
3.73884e-153
6.25101e-155
2.29759e-91
5.34879e-93
1.22638e-94
2.77899e-96
6.23037e-98
1.38187e-99
3.03124e-101
6.57553e-103
1.41069e-104
2.99355e-106
6.28426e-108
1.30524e-109
2.6826e-111
5.45663e-113
1.0987e-114
2.19037e-116
4.32445e-118
8.45679e-120
1.63839e-121
3.14505e-123
5.98272e-125
1.12795e-126
2.10799e-128
3.90568e-130
7.17544e-132
1.30736e-133
2.3627e-135
4.23615e-137
7.53638e-139
1.33067e-140
2.33228e-142
4.05877e-144
7.0148e-146
1.20435e-147
2.05456e-149
3.48364e-151
5.8725e-153
9.84502e-155
2.29793e-91
5.34993e-93
1.22666e-94
2.77955e-96
6.23141e-98
1.38208e-99
3.03169e-101
6.57653e-103
1.41091e-104
2.99404e-106
6.28536e-108
1.30549e-109
2.68318e-111
5.45786e-113
1.09895e-114
2.19084e-116
4.32527e-118
8.45814e-120
1.6386e-121
3.14537e-123
5.98319e-125
1.12802e-126
2.1081e-128
3.90587e-130
7.17576e-132
1.30741e-133
2.36279e-135
4.23629e-137
7.5366e-139
1.3307e-140
2.33235e-142
4.05894e-144
7.01514e-146
1.20441e-147
2.05466e-149
3.48381e-151
5.87276e-153
9.84543e-155
3.78926e-93
8.68646e-95
1.96163e-96
4.379e-98
9.67332e-100
2.11435e-101
4.57145e-103
9.77599e-105
2.0679e-106
4.32738e-108
8.9599e-110
1.83578e-111
3.7225e-113
7.47178e-115
1.48483e-116
2.92205e-118
5.69579e-120
1.09991e-121
2.10463e-123
3.99089e-125
7.50074e-127
1.39747e-128
2.58137e-130
4.72818e-132
8.58896e-134
1.54763e-135
2.7666e-137
4.90756e-139
8.63993e-141
1.50998e-142
2.62029e-144
4.51587e-146
7.73139e-148
1.31525e-149
2.22392e-151
3.73864e-153
6.25064e-155
1.39361e-93
3.16416e-95
7.0775e-97
1.56498e-98
3.42461e-100
7.41557e-102
1.58848e-103
3.36573e-105
7.0546e-107
1.46293e-108
3.00183e-110
6.09555e-112
1.22508e-113
2.43736e-115
4.8014e-117
9.36724e-119
1.81028e-120
3.46619e-122
6.57668e-124
1.23672e-125
2.30519e-127
4.25966e-129
7.8044e-131
1.41797e-132
2.55521e-134
4.5677e-136
8.10132e-138
1.42589e-139
2.49102e-141
4.3204e-143
7.44086e-145
1.27285e-146
2.16317e-148
3.65328e-150
6.13297e-152
1.02373e-153
1.69965e-155
1.61693e-94
3.62083e-96
7.9908e-98
1.74399e-99
3.76756e-101
8.0546e-103
1.70362e-104
3.56468e-106
7.37957e-108
1.51169e-109
3.06453e-111
6.14884e-113
1.22129e-114
2.40177e-116
4.67761e-118
9.024e-120
1.72482e-121
3.26692e-123
6.13257e-125
1.14108e-126
2.10484e-128
3.84951e-130
6.98143e-132
1.25575e-133
2.24055e-135
3.96625e-137
6.96724e-139
1.21473e-140
2.10248e-142
3.61334e-144
6.16752e-146
1.04578e-147
1.76199e-149
2.95066e-151
4.91253e-153
8.13381e-155
1.33974e-156
5.19478e-96
1.14635e-97
2.49507e-99
5.37398e-101
1.14586e-102
2.41786e-104
5.04775e-106
1.04267e-107
2.1312e-109
4.31116e-111
8.63193e-113
1.71093e-114
3.35778e-116
6.52619e-118
1.25647e-119
2.39671e-121
4.53036e-123
8.48726e-125
1.57608e-126
2.90149e-128
5.29604e-130
9.58586e-132
1.72079e-133
3.06417e-135
5.41335e-137
9.49007e-139
1.65123e-140
2.85209e-142
4.89139e-144
8.33124e-146
1.4096e-147
2.36971e-149
3.95929e-151
6.57619e-153
1.08616e-154
1.78445e-156
2.91711e-158
4.00345e-98
8.70331e-100
1.86892e-101
3.97376e-103
8.36391e-105
1.74199e-106
3.58994e-108
7.32114e-110
1.47767e-111
2.9522e-113
5.83915e-115
1.14358e-116
2.21813e-118
4.26185e-120
8.11312e-122
1.5305e-123
2.86156e-125
5.3034e-127
9.74413e-129
1.77512e-130
3.20676e-132
5.74547e-134
1.02112e-135
1.8005e-137
3.15036e-139
5.47092e-141
9.43149e-143
1.61438e-144
2.74427e-146
4.63389e-148
7.77437e-150
1.29626e-151
2.1485e-153
3.54087e-155
5.80424e-157
9.46624e-159
1.53659e-160
1.71045e-95
3.80808e-97
8.37029e-99
1.82103e-100
3.92099e-102
8.35239e-104
1.76002e-105
3.66906e-107
7.56808e-109
1.54478e-110
3.12078e-112
6.24079e-114
1.23561e-115
2.42262e-117
4.70473e-119
9.05129e-121
1.72539e-122
3.25931e-124
6.10215e-126
1.13242e-127
2.08328e-129
3.79978e-131
6.87242e-133
1.23276e-134
2.19353e-136
3.87249e-138
6.78423e-140
1.17967e-141
2.03637e-143
3.49037e-145
5.94146e-147
1.00466e-148
1.68796e-150
2.81865e-152
4.67918e-154
7.72455e-156
1.26848e-157
2.07269e-159
2.00266e-93
4.52852e-95
1.00932e-96
2.22479e-98
4.85346e-100
1.0476e-101
2.23676e-103
4.72402e-105
9.87014e-107
2.04037e-108
4.17367e-110
8.4491e-112
1.69302e-113
3.35863e-115
6.5979e-117
1.28376e-118
2.47446e-120
4.72575e-122
8.94362e-124
1.6775e-125
3.11865e-127
5.74755e-129
1.0502e-130
1.90285e-132
3.41944e-134
6.09543e-136
1.07803e-137
1.892e-139
3.29577e-141
5.69935e-143
9.78628e-145
1.6689e-146
2.82726e-148
4.75923e-150
7.9627e-152
1.32452e-153
2.19109e-155
3.60575e-157
5.91984e-92
1.35898e-93
3.07248e-95
6.86412e-97
1.51726e-98
3.31841e-100
7.17915e-102
1.53617e-103
3.25125e-105
6.80707e-107
1.41001e-108
2.88996e-110
5.86178e-112
1.17683e-113
2.33904e-115
4.60356e-117
8.97387e-119
1.73292e-120
3.31559e-122
6.28619e-124
1.18117e-125
2.19983e-127
4.06144e-129
7.43446e-131
1.34948e-132
2.42944e-134
4.33857e-136
7.68721e-138
1.35162e-139
2.35881e-141
4.08671e-143
7.03059e-145
1.2013e-146
2.03922e-148
3.43986e-150
5.76769e-152
9.61547e-154
1.59431e-155
5.04628e-91
1.17484e-92
2.69278e-94
6.09579e-96
1.36494e-97
3.02375e-99
6.62558e-101
1.43575e-102
3.07689e-104
6.52195e-106
1.36752e-107
2.83684e-109
5.82287e-111
1.18279e-112
2.37809e-114
4.73362e-116
9.33037e-118
1.82154e-119
3.52283e-121
6.75036e-123
1.28176e-124
2.41205e-126
4.49912e-128
8.31944e-130
1.52529e-131
2.77314e-133
5.00066e-135
8.94534e-137
1.58768e-138
2.79648e-140
4.88914e-142
8.48635e-144
1.46278e-145
2.50448e-147
4.26038e-149
7.20255e-151
1.21047e-152
2.02291e-154
1.38506e-90
3.25607e-92
7.53484e-94
1.72185e-95
3.8916e-97
8.70141e-99
1.92435e-100
4.20854e-102
9.10192e-104
1.94688e-105
4.11916e-107
8.62186e-109
1.78553e-110
3.65909e-112
7.4215e-114
1.4901e-115
2.96235e-117
5.83246e-119
1.13748e-120
2.1978e-122
4.20772e-124
7.98331e-126
1.50126e-127
2.79854e-129
5.17216e-131
9.47863e-133
1.72276e-134
3.10589e-136
5.55534e-138
9.86012e-140
1.73696e-141
3.03759e-143
5.27474e-145
9.09732e-147
1.55875e-148
2.65404e-150
4.49185e-152
7.55881e-154
1.96192e-90
4.62851e-92
1.07482e-93
2.46463e-95
5.58946e-97
1.25404e-98
2.78278e-100
6.10651e-102
1.32511e-103
2.84383e-105
6.03689e-107
1.26776e-108
2.63409e-110
5.41565e-112
1.10198e-113
2.21966e-115
4.42676e-117
8.74311e-119
1.71045e-120
3.31511e-122
6.36636e-124
1.21159e-125
2.28534e-127
4.27308e-129
7.92117e-131
1.45601e-132
2.65422e-134
4.79935e-136
8.60957e-138
1.53256e-139
2.70759e-141
4.74865e-143
8.26952e-145
1.43027e-146
2.45752e-148
4.19594e-150
7.12094e-152
1.20155e-153
1.9622e-90
4.62947e-92
1.07508e-93
2.46516e-95
5.59042e-97
1.25421e-98
2.78312e-100
6.10725e-102
1.32527e-103
2.8442e-105
6.03774e-107
1.26796e-108
2.63455e-110
5.4167e-112
1.1022e-113
2.22011e-115
4.4276e-117
8.74459e-119
1.7107e-120
3.31549e-122
6.36694e-124
1.21168e-125
2.28548e-127
4.27331e-129
7.92158e-131
1.45608e-132
2.65435e-134
4.79958e-136
8.60999e-138
1.53264e-139
2.70774e-141
4.74895e-143
8.27011e-145
1.43038e-146
2.45771e-148
4.19626e-150
7.12147e-152
1.20164e-153
3.2442e-92
7.53536e-94
1.72319e-95
3.89213e-97
8.69618e-99
1.9225e-100
4.2044e-102
9.0941e-104
1.94551e-105
4.11691e-107
8.61857e-109
1.78517e-110
3.65898e-112
7.42231e-114
1.49038e-115
2.96296e-117
5.83339e-119
1.13757e-120
2.19775e-122
4.20723e-124
7.98183e-126
1.50092e-127
2.79786e-129
5.17092e-131
9.47652e-133
1.72242e-134
3.10536e-136
5.55454e-138
9.85897e-140
1.73682e-141
3.03745e-143
5.27468e-145
9.09746e-147
1.5588e-148
2.65414e-150
4.49202e-152
7.55911e-154
1.17219e-92
2.69672e-94
6.10841e-96
1.36672e-97
3.02519e-99
6.62607e-101
1.43577e-102
3.07723e-104
6.52354e-106
1.36806e-107
2.83844e-109
5.82727e-111
1.18389e-112
2.38059e-114
4.73878e-116
9.34013e-118
1.82323e-119
3.52557e-121
6.75453e-123
1.28237e-124
2.41296e-126
4.50054e-128
8.32185e-130
1.52573e-131
2.77397e-133
5.00225e-135
8.94839e-137
1.58826e-138
2.79756e-140
4.89118e-142
8.49019e-144
1.46349e-145
2.50576e-147
4.26259e-149
7.20628e-151
1.21109e-152
2.02392e-154
1.35672e-93
3.07851e-95
6.87998e-97
1.5195e-98
3.32096e-100
7.18291e-102
1.53705e-103
3.25361e-105
6.8132e-107
1.41155e-108
2.89374e-110
5.87067e-112
1.1788e-113
2.34311e-115
4.61145e-117
8.98822e-119
1.7354e-120
3.31971e-122
6.2929e-124
1.18227e-125
2.2017e-127
4.06471e-129
7.44036e-131
1.35056e-132
2.43143e-134
4.34221e-136
7.69377e-138
1.35279e-139
2.36088e-141
4.09038e-143
7.03709e-145
1.20245e-146
2.0412e-148
3.44323e-150
5.77329e-152
9.62467e-154
1.59582e-155
4.52522e-95
1.01169e-96
2.22941e-98
4.8593e-100
1.04842e-101
2.23851e-103
4.7286e-105
9.88184e-107
2.04324e-108
4.18052e-110
8.46497e-112
1.69652e-113
3.3659e-115
6.6121e-117
1.28638e-118
2.47909e-120
4.73364e-122
8.95679e-124
1.67969e-125
3.12239e-127
5.75411e-129
1.05138e-130
1.90502e-132
3.42341e-134
6.10261e-136
1.07932e-137
1.89426e-139
3.2997e-141
5.70612e-143
9.79792e-145
1.67091e-146
2.83074e-148
4.76519e-150
7.97271e-152
1.32617e-153
2.19376e-155
3.61007e-157
3.81062e-97
8.38976e-99
1.82369e-100
3.92427e-102
8.35887e-104
1.76176e-105
3.67371e-107
7.57981e-109
1.54761e-110
3.12732e-112
6.25525e-114
1.23864e-115
2.42857e-117
4.71582e-119
9.07109e-121
1.7288e-122
3.26504e-124
6.11168e-126
1.13402e-127
2.08603e-129
3.80469e-131
6.88139e-133
1.2344e-134
2.19652e-136
3.87783e-138
6.79363e-140
1.18129e-141
2.0391e-143
3.49493e-145
5.94914e-147
1.00597e-148
1.6902e-150
2.82243e-152
4.68549e-154
7.7349e-156
1.27015e-157
2.07538e-159
8.39151e-95
1.8899e-96
4.20083e-98
9.24028e-100
2.01145e-101
4.3316e-103
9.22661e-105
1.94412e-106
4.05272e-108
8.35934e-110
1.7063e-111
3.44712e-113
6.89363e-115
1.36496e-116
2.67645e-118
5.19828e-120
1.00023e-121
1.90701e-123
3.60309e-125
6.74716e-127
1.25238e-128
2.30447e-130
4.20432e-132
7.60644e-134
1.36492e-135
2.42969e-137
4.29139e-139
7.52193e-141
1.30866e-142
2.26035e-144
3.87668e-146
6.60362e-148
1.11751e-149
1.8792e-151
3.14097e-153
5.21971e-155
8.6268e-157
1.41843e-158
9.4002e-93
2.15052e-94
4.84735e-96
1.08018e-97
2.38195e-99
5.19687e-101
1.12153e-102
2.39393e-104
5.05456e-106
1.0558e-107
2.182e-109
4.4623e-111
9.03143e-113
1.80938e-114
3.58894e-116
7.04961e-118
1.37156e-119
2.64362e-121
5.04877e-123
9.55502e-125
1.79221e-126
3.33206e-128
6.14133e-130
1.12228e-131
2.03379e-133
3.65551e-135
6.51788e-137
1.15309e-138
2.02441e-140
3.52777e-142
6.10316e-144
1.04847e-145
1.789e-147
3.03269e-149
5.1088e-151
8.55468e-153
1.42432e-154
2.35859e-156
2.73902e-91
6.36184e-93
1.45478e-94
3.28557e-96
7.33988e-98
1.62233e-99
3.54703e-101
7.66996e-103
1.6403e-104
3.46982e-106
7.26102e-108
1.50331e-109
3.07973e-111
6.24397e-113
1.25306e-114
2.48968e-116
4.89858e-118
9.54648e-120
1.84307e-121
3.52563e-123
6.68321e-125
1.25558e-126
2.33813e-128
4.31642e-130
7.90086e-132
1.43413e-133
2.58194e-135
4.61125e-137
8.17131e-139
1.43698e-140
2.50831e-142
4.3469e-144
7.48082e-146
1.27877e-147
2.17182e-149
3.66571e-151
6.15054e-153
1.02616e-154
2.36623e-90
5.57346e-92
1.29209e-93
2.95679e-95
6.69027e-97
1.49753e-98
3.31563e-100
7.25984e-102
1.57194e-103
3.36613e-105
7.12967e-107
1.49386e-108
3.09674e-110
6.35202e-112
1.28945e-113
2.591e-115
5.15461e-117
1.01552e-118
1.98166e-120
3.83088e-122
7.33778e-124
1.3928e-125
2.62019e-127
4.886e-129
9.03264e-131
1.6557e-132
3.00972e-134
5.42655e-136
9.70628e-138
1.72265e-139
3.03422e-141
5.30511e-143
9.20961e-145
1.58779e-146
2.71929e-148
4.62748e-150
7.82667e-152
1.31605e-153
6.63799e-90
1.57879e-91
3.69541e-93
8.53647e-95
1.94954e-96
4.40423e-98
9.84128e-100
2.17465e-101
4.75173e-103
1.02677e-104
2.19438e-106
4.63904e-108
9.70231e-110
2.00774e-111
4.11142e-113
8.33311e-115
1.67204e-116
3.32205e-118
6.53698e-120
1.27421e-121
2.46078e-123
4.70907e-125
8.93083e-127
1.67881e-128
3.12845e-130
5.78008e-132
1.05898e-133
1.92424e-135
3.4684e-137
6.20272e-139
1.10079e-140
1.93904e-142
3.39102e-144
5.88898e-146
1.01583e-147
1.74095e-149
2.9652e-151
5.02041e-153
9.50519e-90
2.26876e-91
5.329e-93
1.23526e-94
2.83071e-96
6.41661e-98
1.43866e-99
3.18977e-101
6.99325e-103
1.51617e-104
3.25107e-106
6.89565e-108
1.44693e-109
3.00398e-111
6.17147e-113
1.25487e-114
2.52592e-116
5.03439e-118
9.93741e-120
1.94304e-121
3.76398e-123
7.22501e-125
1.37441e-126
2.59145e-128
4.8437e-130
8.97602e-132
1.64941e-133
3.00599e-135
5.43418e-137
9.7466e-139
1.73473e-140
3.06453e-142
5.37461e-144
9.36016e-146
1.61912e-147
2.78258e-149
4.75232e-151
8.06807e-153
9.50653e-90
2.26921e-91
5.3303e-93
1.23555e-94
2.83123e-96
6.41748e-98
1.43881e-99
3.19009e-101
6.99395e-103
1.51633e-104
3.25144e-106
6.89652e-108
1.44714e-109
3.00448e-111
6.17258e-113
1.25511e-114
2.52639e-116
5.03527e-118
9.93894e-120
1.94329e-121
3.76439e-123
7.22564e-125
1.37451e-126
2.59162e-128
4.84399e-130
8.97654e-132
1.64951e-133
3.00617e-135
5.43453e-137
9.74727e-139
1.73486e-140
3.06479e-142
5.3751e-144
9.36106e-146
1.61928e-147
2.78287e-149
4.7528e-151
8.06889e-153
1.57211e-91
3.6939e-93
8.543e-95
1.9503e-96
4.40264e-98
9.83274e-100
2.17243e-101
4.74724e-103
1.02595e-104
2.19295e-106
4.63673e-108
9.69904e-110
2.0074e-111
4.11138e-113
8.33405e-115
1.67234e-116
3.32267e-118
6.53788e-120
1.27429e-121
2.46071e-123
4.70857e-125
8.92938e-127
1.67849e-128
3.12781e-130
5.77897e-132
1.0588e-133
1.92397e-135
3.46804e-137
6.2023e-139
1.10076e-140
1.93906e-142
3.3912e-144
5.88945e-146
1.01593e-147
1.74115e-149
2.96556e-151
5.02106e-153
5.55804e-92
1.29347e-93
2.96306e-95
6.70088e-97
1.4986e-98
3.31611e-100
7.25955e-102
1.57194e-103
3.36652e-105
7.13143e-107
1.49445e-108
3.0985e-110
6.35678e-112
1.29062e-113
2.5936e-115
5.15989e-117
1.0165e-118
1.98335e-120
3.83362e-122
7.34202e-124
1.39345e-125
2.6212e-127
4.88767e-129
9.03561e-131
1.65626e-132
3.01081e-134
5.42866e-136
9.71037e-138
1.72344e-139
3.03573e-141
5.30798e-143
9.21495e-145
1.58875e-146
2.72099e-148
4.63042e-150
7.83165e-152
1.31689e-153
6.34865e-93
1.45732e-94
3.2937e-96
7.35284e-98
1.62389e-99
3.54903e-101
7.67393e-103
1.64134e-104
3.47253e-106
7.26788e-108
1.50501e-109
3.08385e-111
6.25347e-113
1.25513e-114
2.49387e-116
4.90658e-118
9.56089e-120
1.84555e-121
3.52979e-123
6.69013e-125
1.25675e-126
2.34019e-128
4.32013e-130
7.90768e-132
1.4354e-133
2.58428e-135
4.61556e-137
8.17916e-139
1.43839e-140
2.51086e-142
4.35149e-144
7.48898e-146
1.2802e-147
2.17429e-149
3.6699e-151
6.15756e-153
1.02733e-154
2.1485e-94
4.85895e-96
1.08272e-97
2.38544e-99
5.20158e-101
1.12243e-102
2.39615e-104
5.06017e-106
1.05717e-107
2.18529e-109
4.47003e-111
9.04895e-113
1.81315e-114
3.59661e-116
7.06434e-118
1.37425e-119
2.64833e-121
5.0568e-123
9.56861e-125
1.79454e-126
3.33618e-128
6.14879e-130
1.12366e-131
2.03633e-133
3.66016e-135
6.52632e-137
1.1546e-138
2.02708e-140
3.53245e-142
6.11136e-144
1.04991e-145
1.79153e-147
3.03707e-149
5.11629e-151
8.56724e-153
1.4264e-154
2.36202e-156
1.89123e-96
4.21154e-98
9.25634e-100
2.01351e-101
4.33533e-103
9.23595e-105
1.94654e-106
4.05874e-108
8.37384e-110
1.70969e-111
3.45476e-113
6.91008e-115
1.36831e-116
2.68292e-118
5.21015e-120
1.00232e-121
1.91059e-123
3.60911e-125
6.75733e-127
1.25415e-128
2.30766e-130
4.2102e-132
7.61735e-134
1.36692e-135
2.43332e-137
4.29784e-139
7.53317e-141
1.31059e-142
2.26363e-144
3.88237e-146
6.61354e-148
1.11923e-149
1.88215e-151
3.14598e-153
5.22807e-155
8.64056e-157
1.42068e-158
2.40915e-94
5.47791e-96
1.22906e-97
2.72847e-99
5.99395e-101
1.30258e-102
2.79976e-104
5.95236e-106
1.25189e-107
2.605e-109
5.36379e-111
1.09297e-112
2.20434e-114
4.40122e-116
8.7012e-118
1.70368e-119
3.30438e-121
6.34979e-123
1.2091e-124
2.28167e-126
4.26752e-128
7.91201e-130
1.45428e-131
2.65049e-133