/*--------------------------------*- C++ -*----------------------------------*\
| =========                 |                                                 |
| \\      /  F ield         | OpenFOAM: The Open Source CFD Toolbox           |
|  \\    /   O peration     | Version:  2.3.1                                 |
|   \\  /    A nd           | Web:      www.OpenFOAM.org                      |
|    \\/     M anipulation  |                                                 |
\*---------------------------------------------------------------------------*/
FoamFile
{
    version     2.0;
    format      ascii;
    class       volScalarField;
    location    "5";
    object      Sed_0;
}
// * * * * * * * * * * * * * * * * * * * * * * * * * * * * * * * * * * * * * //

dimensions      [0 0 0 0 0 0 0];

internalField   nonuniform List<scalar> 
37692
(
1.53049e-99
3.27039e-101
6.91297e-103
1.44707e-104
2.99785e-106
6.14531e-108
1.2466e-109
2.50286e-111
4.9746e-113
9.79009e-115
1.90817e-116
3.68416e-118
7.04753e-120
1.33591e-121
2.50962e-123
4.67275e-125
8.62414e-127
1.57795e-128
2.86263e-130
5.14976e-132
9.18792e-134
1.626e-135
2.85483e-137
4.97373e-139
8.60039e-141
1.4763e-142
2.51617e-144
4.25895e-146
7.16069e-148
1.19614e-149
1.98551e-151
3.27586e-153
5.37349e-155
8.76582e-157
1.42254e-158
2.29726e-160
3.6929e-162
5.91141e-164
2.6492e-97
5.74101e-99
1.22997e-100
2.60935e-102
5.47867e-104
1.13812e-105
2.3393e-107
4.7581e-109
9.57862e-111
1.90882e-112
3.76622e-114
7.35896e-116
1.42428e-117
2.73101e-119
5.18882e-121
9.76974e-123
1.82314e-124
3.37235e-126
6.18409e-128
1.12435e-129
2.02706e-131
3.62435e-133
6.42791e-135
1.13102e-136
1.97478e-138
3.42217e-140
5.88715e-142
1.00559e-143
1.70582e-145
2.87431e-147
4.81184e-149
8.00507e-151
1.32375e-152
2.17651e-154
3.55919e-156
5.79046e-158
9.37524e-160
1.51115e-161
9.35365e-96
2.05622e-97
4.46679e-99
9.60678e-101
2.04473e-102
4.30544e-104
8.96849e-106
1.84841e-107
3.76979e-109
7.60913e-111
1.52028e-112
3.00728e-114
5.8909e-116
1.14299e-117
2.19702e-119
4.18431e-121
7.89721e-123
1.4772e-124
2.73889e-126
5.03414e-128
9.1737e-130
1.65765e-131
2.9706e-133
5.28062e-135
9.31321e-137
1.62994e-138
2.8313e-140
4.88237e-142
8.35974e-144
1.42154e-145
2.40115e-147
4.02969e-149
6.72096e-151
1.11435e-152
1.83724e-154
3.01297e-156
4.91634e-158
7.98457e-160
8.12272e-95
1.81103e-96
3.98898e-98
8.69695e-100
1.87623e-101
4.00374e-103
8.45071e-105
1.76451e-106
3.64518e-108
7.45138e-110
1.50745e-111
3.01869e-113
5.98494e-115
1.17507e-116
2.28513e-118
4.40236e-120
8.40336e-122
1.58955e-123
2.9799e-125
5.53711e-127
1.01992e-128
1.86259e-130
3.37298e-132
6.05813e-134
1.07938e-135
1.90812e-137
3.34745e-139
5.82887e-141
1.00763e-142
1.72961e-144
2.94858e-146
4.99343e-148
8.40271e-150
1.40539e-151
2.33701e-153
3.86488e-155
6.35848e-157
1.04102e-158
2.13702e-94
4.81203e-96
1.07033e-97
2.35641e-99
5.13311e-101
1.10597e-102
2.35683e-104
4.96799e-106
1.03602e-107
2.13768e-109
4.36491e-111
8.82154e-113
1.76499e-114
3.49675e-116
6.86113e-118
1.33358e-119
2.56804e-121
4.90013e-123
9.26591e-125
1.73656e-126
3.22599e-128
5.94123e-130
1.08495e-131
1.96491e-133
3.52991e-135
6.29142e-137
1.1127e-138
1.95316e-140
3.40335e-142
5.88799e-144
1.0116e-145
1.72636e-147
2.9272e-149
4.93278e-151
8.26367e-153
1.37665e-154
2.28126e-156
3.76157e-158
2.94998e-94
6.66657e-96
1.48813e-97
3.28792e-99
7.18772e-101
1.55413e-102
3.32346e-104
7.02989e-106
1.47104e-107
3.04565e-109
6.23996e-111
1.26535e-112
2.54016e-114
5.04917e-116
9.93981e-118
1.93828e-119
3.74458e-121
7.16804e-123
1.35976e-124
2.55641e-126
4.76391e-128
8.80096e-130
1.61217e-131
2.92878e-133
5.27764e-135
9.43518e-137
1.67377e-138
2.94687e-140
5.15017e-142
8.93646e-144
1.53987e-145
2.63558e-147
4.48185e-149
7.57429e-151
1.27249e-152
2.12578e-154
3.53241e-156
5.84059e-158
2.95046e-94
6.66788e-96
1.48843e-97
3.28856e-99
7.18915e-101
1.55446e-102
3.32421e-104
7.03155e-106
1.47139e-107
3.0464e-109
6.24157e-111
1.2657e-112
2.54087e-114
5.05055e-116
9.94232e-118
1.9387e-119
3.74526e-121
7.1691e-123
1.35991e-124
2.55664e-126
4.76426e-128
8.80151e-130
1.61226e-131
2.92893e-133
5.27787e-135
9.43551e-137
1.67381e-138
2.94688e-140
5.15011e-142
8.93626e-144
1.53983e-145
2.63556e-147
4.48187e-149
7.57437e-151
1.27249e-152
2.12577e-154
3.53236e-156
5.84048e-158
4.81158e-96
1.07104e-97
2.35544e-99
5.1282e-101
1.10491e-102
2.35501e-104
4.96516e-106
1.03561e-107
2.13724e-109
4.36489e-111
8.82313e-113
1.76553e-114
3.49796e-116
6.86321e-118
1.33384e-119
2.56822e-121
4.89984e-123
9.26434e-125
1.73612e-126
3.22503e-128
5.9394e-130
1.08462e-131
1.96436e-133
3.52895e-135
6.28976e-137
1.11241e-138
1.95261e-140
3.40232e-142
5.88613e-144
1.0113e-145
1.72592e-147
2.92657e-149
4.93183e-151
8.26205e-153
1.37635e-154
2.28071e-156
3.76061e-158
1.81291e-96
3.99643e-98
8.70384e-100
1.87668e-101
4.00463e-103
8.4541e-105
1.76556e-106
3.64802e-108
7.45862e-110
1.50922e-111
3.02278e-113
5.99363e-115
1.17675e-116
2.28815e-118
4.40737e-120
8.41121e-122
1.59073e-123
2.98161e-125
5.53954e-127
1.02028e-128
1.86315e-130
3.37393e-132
6.05977e-134
1.07967e-135
1.9086e-137
3.34823e-139
5.83003e-141
1.00779e-142
1.72982e-144
2.94894e-146
4.99419e-148
8.40431e-150
1.40569e-151
2.33748e-153
3.86551e-155
6.35928e-157
1.04111e-158
2.05866e-97
4.47576e-99
9.61636e-101
2.04587e-102
4.30822e-104
8.97668e-106
1.85061e-107
3.77526e-109
7.62206e-111
1.5232e-112
3.01353e-114
5.90344e-116
1.14534e-117
2.20119e-119
4.1914e-121
7.90895e-123
1.47912e-124
2.74199e-126
5.03915e-128
9.18193e-130
1.65904e-131
2.97302e-133
5.28483e-135
9.32046e-137
1.63117e-138
2.83337e-140
4.88575e-142
8.36509e-144
1.42238e-145
2.4025e-147
4.03198e-149
6.72494e-151
1.11502e-152
1.83834e-154
3.01468e-156
4.91893e-158
7.98847e-160
5.74742e-99
1.23209e-100
2.61143e-102
5.4817e-104
1.13902e-105
2.34201e-107
4.76535e-109
9.5963e-111
1.91286e-112
3.77491e-114
7.3767e-116
1.4277e-117
2.7373e-119
5.19991e-121
9.78885e-123
1.82639e-124
3.37786e-126
6.19336e-128
1.1259e-129
2.02968e-131
3.62885e-133
6.43576e-135
1.13239e-136
1.97713e-138
3.42616e-140
5.89381e-142
1.00667e-143
1.70755e-145
2.87701e-147
4.8161e-149
8.012e-151
1.32491e-152
2.17844e-154
3.56234e-156
5.79542e-158
9.38285e-160
1.51231e-161
3.27334e-101
6.92076e-103
1.44764e-104
2.99914e-106
6.15029e-108
1.24816e-109
2.50701e-111
4.98463e-113
9.81232e-115
1.91278e-116
3.69325e-118
7.06463e-120
1.33901e-121
2.51509e-123
4.68228e-125
8.64069e-127
1.58081e-128
2.8675e-130
5.15796e-132
9.20176e-134
1.62838e-135
2.85898e-137
4.98095e-139
8.6128e-141
1.4784e-142
2.51967e-144
4.26464e-146
7.16961e-148
1.19751e-149
1.98763e-151
3.27924e-153
5.37903e-155
8.7749e-157
1.424e-158
2.29951e-160
3.6963e-162
5.91652e-164
8.65842e-98
1.87622e-99
4.01875e-101
8.52358e-103
1.78923e-104
3.7161e-106
7.63652e-108
1.55294e-109
3.12564e-111
6.22768e-113
1.22856e-114
2.40019e-116
4.64476e-118
8.90499e-120
1.69168e-121
3.18473e-123
5.94221e-125
1.099e-126
2.01503e-128
3.66307e-130
6.60306e-132
1.18044e-133
2.09325e-135
3.68262e-137
6.42898e-139
1.11394e-140
1.91602e-142
3.27228e-144
5.55007e-146
9.35045e-148
1.5651e-149
2.6033e-151
4.30422e-153
7.07576e-155
1.15688e-156
1.8818e-158
3.04622e-160
4.90911e-162
1.24621e-95
2.74019e-97
5.94915e-99
1.27863e-100
2.72004e-102
5.72499e-104
1.19209e-105
2.45597e-107
5.00705e-109
1.01029e-110
2.01781e-112
3.99e-114
7.81304e-116
1.51536e-117
2.91167e-119
5.54328e-121
1.0458e-122
1.95546e-124
3.62422e-126
6.65886e-128
1.21298e-129
2.19097e-131
3.92484e-133
6.9741e-135
1.22947e-136
2.1508e-138
3.73435e-140
6.43654e-142
1.10154e-143
1.87217e-145
3.16066e-147
5.30151e-149
8.83726e-151
1.46437e-152
2.41282e-154
3.95427e-156
6.44777e-158
1.04639e-159
4.07288e-94
9.08724e-96
2.00053e-97
4.35834e-99
9.39767e-101
2.00479e-102
4.23055e-104
8.83153e-106
1.82407e-107
3.72796e-109
7.54014e-111
1.50953e-112
2.99193e-114
5.87222e-116
1.14153e-117
2.1983e-119
4.19445e-121
7.93077e-123
1.48615e-124
2.76036e-126
5.08244e-128
9.27776e-130
1.67937e-131
3.01483e-133
5.3687e-135
9.48523e-137
1.66296e-138
2.89373e-140
4.99874e-142
8.57391e-144
1.4605e-145
2.47133e-147
4.15503e-149
6.94306e-151
1.15341e-152
1.90544e-154
3.13124e-156
5.12018e-158
3.49148e-93
7.90059e-95
1.76332e-96
3.89356e-98
8.508e-100
1.83911e-101
3.93193e-103
8.3146e-105
1.73929e-106
3.59963e-108
7.37142e-110
1.49389e-111
2.99672e-113
5.95142e-115
1.17041e-116
2.27976e-118
4.39901e-120
8.41021e-122
1.59332e-123
2.99155e-125
5.56719e-127
1.02703e-128
1.87847e-130
3.40705e-132
6.1289e-134
1.09369e-135
1.93641e-137
3.40232e-139
5.93346e-141
1.02727e-142
1.76602e-144
3.01534e-146
5.11473e-148
8.62124e-150
1.44444e-151
2.40621e-153
3.9866e-155
6.57118e-157
9.28516e-93
2.12175e-94
4.78153e-96
1.06599e-97
2.3517e-99
5.13204e-101
1.10762e-102
2.36428e-104
4.99195e-106
1.04272e-107
2.155e-109
4.40729e-111
8.92114e-113
1.78764e-114
3.54686e-116
6.96951e-118
1.35656e-119
2.61595e-121
4.99842e-123
9.46461e-125
1.7762e-126
3.30416e-128
6.0937e-130
1.11437e-131
2.02106e-133
3.63588e-135
6.48931e-137
1.14928e-138
2.02012e-140
3.52479e-142
6.10641e-144
1.05059e-145
1.79552e-147
3.04905e-149
5.14613e-151
8.63498e-153
1.4409e-154
2.39186e-156
1.29126e-92
2.96121e-94
6.69689e-96
1.49824e-97
3.31688e-99
7.26356e-101
1.57308e-102
3.36936e-104
7.1383e-106
1.49609e-107
3.10238e-109
6.36603e-111
1.29288e-112
2.59923e-114
5.17395e-116
1.01996e-117
1.99164e-119
3.85283e-121
7.38499e-123
1.40274e-124
2.64067e-126
4.9275e-128
9.11558e-130
1.6721e-131
3.04184e-133
5.48885e-135
9.82598e-137
1.74542e-138
3.07706e-140
5.38479e-142
9.35598e-144
1.61435e-145
2.76696e-147
4.71211e-149
7.97545e-151
1.34198e-152
2.24551e-154
3.73766e-156
1.29147e-92
2.96184e-94
6.69832e-96
1.49853e-97
3.31746e-99
7.26485e-101
1.57337e-102
3.37e-104
7.1397e-106
1.49639e-107
3.10305e-109
6.36754e-111
1.2932e-112
2.59988e-114
5.1752e-116
1.02018e-117
1.99201e-119
3.8534e-121
7.38586e-123
1.40286e-124
2.64086e-126
4.92778e-128
9.11605e-130
1.67218e-131
3.04197e-133
5.48905e-135
9.82627e-137
1.74545e-138
3.07709e-140
5.38481e-142
9.35604e-144
1.61438e-145
2.76703e-147
4.71225e-149
7.97567e-151
1.342e-152
2.24554e-154
3.7377e-156
2.11897e-94
4.78577e-96
1.06616e-97
2.35009e-99
5.127e-101
1.1066e-102
2.36251e-104
4.98907e-106
1.0423e-107
2.15453e-109
4.40723e-111
8.92255e-113
1.78811e-114
3.54787e-116
6.97116e-118
1.35675e-119
2.61599e-121
4.9979e-123
9.46267e-125
1.77572e-126
3.30316e-128
6.09185e-130
1.11404e-131
2.0205e-133
3.63493e-135
6.48769e-137
1.149e-138
2.01962e-140
3.52393e-142
6.10506e-144
1.0504e-145
1.79525e-147
3.04866e-149
5.14549e-151
8.6338e-153
1.44068e-154
2.39147e-156
7.89988e-95
1.76708e-96
3.89891e-98
8.51211e-100
1.83939e-101
3.9327e-103
8.31749e-105
1.74017e-106
3.60207e-108
7.3779e-110
1.49552e-111
3.00045e-113
5.95924e-115
1.17191e-116
2.28239e-118
4.40331e-120
8.4168e-122
1.59428e-123
2.99289e-125
5.56908e-127
1.02731e-128
1.87894e-130
3.40789e-132
6.13041e-134
1.09397e-135
1.93689e-137
3.40312e-139
5.93477e-141
1.02749e-142
1.7664e-144
3.0161e-146
5.11617e-148
8.62382e-150
1.44486e-151
2.40686e-153
3.98756e-155
6.57259e-157
9.08897e-96
2.00516e-97
4.36503e-99
9.40473e-101
2.0059e-102
4.23348e-104
8.83962e-106
1.82615e-107
3.73307e-109
7.5523e-111
1.51229e-112
2.99777e-114
5.88375e-116
1.14366e-117
2.20202e-119
4.20068e-121
7.9409e-123
1.48777e-124
2.76295e-126
5.08669e-128
9.28499e-130
1.68064e-131
3.01709e-133
5.3727e-135
9.49224e-137
1.66417e-138
2.89578e-140
5.00216e-142
8.57955e-144
1.46145e-145
2.47296e-147
4.15786e-149
6.94787e-151
1.1542e-152
1.90669e-154
3.13319e-156
5.12321e-158
2.74139e-97
5.9617e-99
1.2802e-100
2.72184e-102
5.72889e-104
1.19322e-105
2.45906e-107
5.01482e-109
1.01214e-110
2.022e-112
3.99897e-114
7.8311e-116
1.51878e-117
2.91783e-119
5.55392e-121
1.0476e-122
1.95845e-124
3.62918e-126
6.66708e-128
1.21437e-129
2.19338e-131
3.9291e-133
6.98165e-135
1.2308e-136
2.1531e-138
3.73829e-140
6.44313e-142
1.10262e-143
1.87391e-145
3.1635e-147
5.30622e-149
8.8452e-151
1.4657e-152
2.415e-154
3.95772e-156
6.45312e-158
1.04722e-159
1.87771e-99
4.02521e-101
8.52971e-103
1.79009e-104
3.71876e-106
7.64485e-108
1.55522e-109
3.13135e-111
6.24086e-113
1.23142e-114
2.40604e-116
4.65608e-118
8.92576e-120
1.69535e-121
3.19104e-123
5.95294e-125
1.10081e-126
2.01805e-128
3.66811e-130
6.61159e-132
1.18192e-133
2.09586e-135
3.68724e-137
6.43702e-139
1.11532e-140
1.91836e-142
3.27613e-144
5.55623e-146
9.36013e-148
1.56663e-149
2.60579e-151
4.30836e-153
7.08263e-155
1.15799e-156
1.88353e-158
3.04886e-160
4.91311e-162
1.75446e-96
3.85367e-98
8.36202e-100
1.79639e-101
3.8195e-103
8.03457e-105
1.67206e-106
3.44294e-108
7.01545e-110
1.41483e-111
2.82448e-113
5.58269e-115
1.09273e-116
2.11854e-118
4.06904e-120
7.74369e-122
1.46038e-123
2.72962e-125
5.05719e-127
9.28832e-129
1.69136e-130
3.05398e-132
5.4689e-134
9.71446e-136
1.71201e-137
2.99396e-139
5.19667e-141
8.95427e-143
1.53197e-144
2.60296e-146
4.39314e-148
7.36664e-150
1.22761e-151
2.03362e-153
3.34981e-155
5.48832e-157
8.94665e-159
1.45153e-160
2.24541e-94
5.00741e-96
1.10152e-97
2.3977e-99
5.16585e-101
1.10119e-102
2.32211e-104
4.84419e-106
9.99855e-108
2.04214e-109
4.12781e-111
8.25876e-113
1.63591e-114
3.20883e-116
6.23405e-118
1.19981e-119
2.28795e-121
4.32349e-123
8.09714e-125
1.5031e-126
2.76599e-128
5.04638e-130
9.12939e-132
1.63799e-133
2.91521e-135
5.14749e-137
9.01933e-139
1.56852e-140
2.7079e-142
4.64181e-144
7.90212e-146
1.33629e-147
2.24526e-149
3.74934e-151
6.22423e-153
1.02751e-154
1.68726e-156
2.75685e-158
6.89209e-93
1.56006e-94
3.48042e-96
7.67857e-98
1.67656e-99
3.62195e-101
7.73984e-103
1.63597e-104
3.42076e-106
7.0766e-108
1.44856e-109
2.93437e-111
5.88358e-113
1.1679e-114
2.29561e-116
4.46909e-118
8.61886e-120
1.64689e-121
3.11834e-123
5.8517e-125
1.0884e-126
2.00677e-128
3.66839e-130
6.64957e-132
1.19543e-133
2.13182e-135
3.7718e-137
6.62223e-139
1.15399e-140
1.99632e-142
3.42909e-144
5.84986e-146
9.91374e-148
1.66943e-149
2.79419e-151
4.64965e-153
7.69468e-155
1.26677e-156
5.85974e-92
1.34519e-93
3.04239e-95
6.80199e-97
1.50476e-98
3.29338e-100
7.12917e-102
1.52626e-103
3.23181e-105
6.76947e-107
1.40284e-108
2.87648e-110
5.83691e-112
1.17234e-113
2.33111e-115
4.58997e-117
8.95127e-119
1.7293e-120
3.31008e-122
6.27835e-124
1.18017e-125
2.19885e-127
4.06126e-129
7.43718e-131
1.35055e-132
2.43245e-134
4.34595e-136
7.70398e-138
1.35525e-139
2.36636e-141
4.10197e-143
7.06077e-145
1.20716e-146
2.05043e-148
3.46104e-150
5.80726e-152
9.68868e-154
1.60774e-155
1.57942e-91
3.66129e-93
8.36049e-95
1.887e-96
4.21399e-98
9.30987e-100
2.03421e-101
4.39554e-103
9.39352e-105
1.98567e-106
4.15246e-108
8.59172e-110
1.75911e-111
3.56465e-113
7.15062e-115
1.42025e-116
2.79369e-118
5.44333e-120
1.05075e-121
2.00976e-123
3.80938e-125
7.15635e-127
1.33266e-128
2.46039e-130
4.5042e-132
8.17773e-134
1.47274e-135
2.63132e-137
4.66511e-139
8.20866e-141
1.43383e-142
2.48675e-144
4.28334e-146
7.32927e-148
1.24618e-149
2.10602e-151
3.53859e-153
5.91307e-155
2.21504e-91
5.15293e-93
1.18078e-94
2.67433e-96
5.99288e-98
1.32855e-99
2.91284e-101
6.31548e-103
1.35421e-104
2.87223e-106
6.02647e-108
1.25106e-109
2.56991e-111
5.22472e-113
1.05147e-114
2.09513e-116
4.13432e-118
8.0809e-120
1.56477e-121
3.00222e-123
5.70813e-125
1.07563e-126
2.00918e-128
3.72071e-130
6.83208e-132
1.24415e-133
2.24731e-135
4.02718e-137
7.16089e-139
1.26371e-140
2.21377e-142
3.85052e-144
6.6514e-146
1.14136e-147
1.94607e-149
3.29795e-151
5.55654e-153
9.31038e-155
2.21537e-91
5.15404e-93
1.18105e-94
2.67486e-96
5.99387e-98
1.32875e-99
2.91327e-101
6.31645e-103
1.35442e-104
2.8727e-106
6.02754e-108
1.2513e-109
2.57047e-111
5.2259e-113
1.0517e-114
2.09558e-116
4.1351e-118
8.08218e-120
1.56497e-121
3.00252e-123
5.70857e-125
1.0757e-126
2.00929e-128
3.72089e-130
6.83239e-132
1.24421e-133
2.2474e-135
4.02732e-137
7.16111e-139
1.26375e-140
2.21384e-142
3.85068e-144
6.65172e-146
1.14142e-147
1.94617e-149
3.29811e-151
5.55679e-153
9.31077e-155
3.65203e-93
8.36591e-95
1.88814e-96
4.21284e-98
9.30187e-100
2.03218e-101
4.39161e-103
9.38665e-105
1.98454e-106
4.1508e-108
8.5899e-110
1.75906e-111
3.56512e-113
7.1522e-115
1.42059e-116
2.79422e-118
5.44386e-120
1.05073e-121
2.00951e-123
3.8086e-125
7.1545e-127
1.33229e-128
2.45971e-130
4.50301e-132
8.17574e-134
1.47241e-135
2.63078e-137
4.66421e-139
8.20723e-141
1.43361e-142
2.48647e-144
4.28301e-146
7.32887e-148
1.24612e-149
2.10592e-151
3.5384e-153
5.91272e-155
1.34356e-93
3.04836e-95
6.81451e-97
1.50608e-98
3.29417e-100
7.12968e-102
1.52648e-103
3.23273e-105
6.7724e-107
1.40369e-108
2.87881e-110
5.84276e-112
1.17367e-113
2.33388e-115
4.59523e-117
8.96045e-119
1.73079e-120
3.31233e-122
6.28158e-124
1.18063e-125
2.19953e-127
4.06235e-129
7.43909e-131
1.3509e-132
2.43311e-134
4.34718e-136
7.70621e-138
1.35565e-139
2.36708e-141
4.1033e-143
7.06327e-145
1.20762e-146
2.05125e-148
3.46244e-150
5.80954e-152
9.69229e-154
1.60831e-155
1.55886e-94
3.48832e-96
7.69395e-98
1.67838e-99
3.6241e-101
7.74412e-103
1.63713e-104
3.42382e-106
7.08437e-108
1.45047e-109
2.93893e-111
5.89381e-113
1.17004e-114
2.2998e-116
4.47674e-118
8.63211e-120
1.64909e-121
3.1219e-123
5.85739e-125
1.08933e-126
2.00835e-128
3.67118e-130
6.65458e-132
1.19634e-133
2.13346e-135
3.77472e-137
6.62736e-139
1.15488e-140
1.99785e-142
3.43172e-144
5.85446e-146
9.92176e-148
1.6708e-149
2.79648e-151
4.65338e-153
7.70065e-155
1.26772e-156
5.0067e-96
1.10407e-97
2.40173e-99
5.17046e-101
1.10194e-102
2.32402e-104
4.8494e-106
1.00119e-107
2.04538e-109
4.13542e-111
8.27582e-113
1.63951e-114
3.21596e-116
6.24737e-118
1.20218e-119
2.292e-121
4.33025e-123
8.10829e-125
1.50494e-126
2.76912e-128
5.05186e-130
9.13921e-132
1.63976e-133
2.91839e-135
5.15315e-137
9.02924e-139
1.57023e-140
2.71079e-142
4.64663e-144
7.91022e-146
1.33767e-147
2.2476e-149
3.7533e-151
6.23078e-153
1.02856e-154
1.68893e-156
2.75949e-158
3.85681e-98
8.37895e-100
1.79835e-101
3.82188e-103
8.04031e-105
1.67376e-106
3.44756e-108
7.02721e-110
1.41762e-111
2.83078e-113
5.59611e-115
1.09542e-116
2.12364e-118
4.07824e-120
7.75967e-122
1.46309e-123
2.73414e-125
5.06469e-127
9.30083e-129
1.6935e-130
3.05775e-132
5.47568e-134
9.72667e-136
1.71418e-137
2.99778e-139
5.20327e-141
8.96542e-143
1.5338e-144
2.60594e-146
4.39802e-148
7.37479e-150
1.22899e-151
2.03593e-153
3.35359e-155
5.49432e-157
8.95602e-159
1.45299e-160
1.64898e-95
3.66879e-97
8.05997e-99
1.75269e-100
3.77201e-102
8.03103e-104
1.69145e-105
3.52433e-107
7.26584e-109
1.48233e-110
2.99308e-112
5.98237e-114
1.18385e-115
2.31995e-117
4.50307e-119
8.65898e-121
1.64977e-122
3.1149e-124
5.82885e-126
1.08115e-127
1.98795e-129
3.62406e-131
6.55124e-133
1.17454e-134
2.08887e-136
3.68582e-138
6.45386e-140
1.12164e-141
1.9352e-143
3.31524e-145
5.64041e-147
9.5326e-149
1.60076e-150
2.67163e-152
4.43279e-154
7.31394e-156
1.20041e-157
1.96043e-159
1.93157e-93
4.3647e-95
9.72258e-97
2.14206e-98
4.67075e-100
1.00767e-101
2.15043e-103
4.5394e-105
9.47958e-107
1.95863e-108
4.00442e-110
8.10234e-112
1.62271e-113
3.2175e-115
6.31746e-117
1.22858e-118
2.36691e-120
4.51806e-122
8.54626e-124
1.60216e-125
2.97708e-127
5.48383e-129
1.0015e-130
1.81368e-132
3.25753e-134
5.80382e-136
1.02593e-137
1.79962e-139
3.13323e-141
5.41547e-143
9.29399e-145
1.58412e-146
2.68223e-148
4.51274e-150
7.54634e-152
1.2546e-153
2.07433e-155
3.41179e-157
5.71158e-92
1.31025e-93
2.96053e-95
6.61067e-97
1.46055e-98
3.19283e-100
6.90407e-102
1.47656e-103
3.12351e-105
6.53632e-107
1.35324e-108
2.77218e-110
5.62e-112
1.12771e-113
2.24027e-115
4.40695e-117
8.58627e-119
1.65724e-120
3.16919e-122
6.00561e-124
1.12788e-125
2.09951e-127
3.87425e-129
7.08818e-131
1.28596e-132
2.3139e-134
4.13011e-136
7.31406e-138
1.28535e-139
2.24199e-141
3.88229e-143
6.67544e-145
1.14002e-146
1.93419e-148
3.26097e-150
5.46487e-152
9.10582e-154
1.50901e-155
4.86888e-91
1.13274e-92
2.5947e-94
5.87074e-96
1.31393e-97
2.90935e-99
6.37181e-101
1.38006e-102
2.95606e-104
6.26266e-106
1.31249e-107
2.72129e-109
5.58283e-111
1.13345e-112
2.27773e-114
4.53154e-116
8.92754e-118
1.74202e-119
3.36734e-121
6.44918e-123
1.22395e-124
2.3021e-126
4.29186e-128
7.93215e-130
1.45354e-131
2.64133e-133
4.76052e-135
8.51138e-137
1.50988e-138
2.65807e-140
4.64474e-142
8.05793e-144
1.38821e-145
2.37557e-147
4.03896e-149
6.82464e-151
1.14635e-152
1.91475e-154
1.33597e-90
3.13844e-92
7.25817e-94
1.65776e-95
3.74497e-97
8.36959e-99
1.85006e-100
4.04406e-102
8.74176e-104
1.86889e-105
3.95214e-107
8.26805e-109
1.71139e-110
3.50534e-112
7.10601e-114
1.42602e-115
2.83353e-117
5.57601e-119
1.08692e-120
2.09905e-122
4.01664e-124
7.61691e-126
1.43164e-127
2.66738e-129
4.92723e-131
9.02513e-133
1.63949e-134
2.95425e-136
5.28137e-138
9.36899e-140
1.64958e-141
2.88329e-143
5.00419e-145
8.62619e-147
1.47725e-148
2.51395e-150
4.25252e-152
7.15229e-154
1.892e-90
4.46039e-92
1.03514e-93
2.3724e-95
5.37773e-97
1.20596e-98
2.67479e-100
5.86659e-102
1.2724e-103
2.72932e-105
5.79085e-107
1.21547e-108
2.52414e-110
5.18692e-112
1.05489e-113
2.12373e-115
4.23329e-117
8.35675e-119
1.63404e-120
3.16541e-122
6.07581e-124
1.15571e-125
2.17882e-127
4.07184e-129
7.54425e-131
1.38601e-132
2.52531e-134
4.5639e-136
8.18295e-138
1.45587e-139
2.57075e-141
4.5063e-143
7.84338e-145
1.35586e-146
2.32844e-148
3.97345e-150
6.73979e-152
1.13664e-153
1.89228e-90
4.46132e-92
1.03539e-93
2.37291e-95
5.37865e-97
1.20613e-98
2.67511e-100
5.8673e-102
1.27256e-103
2.72967e-105
5.79166e-107
1.21566e-108
2.52459e-110
5.18793e-112
1.05511e-113
2.12416e-115
4.23409e-117
8.35816e-119
1.63427e-120
3.16578e-122
6.07636e-124
1.15579e-125
2.17896e-127
4.07206e-129
7.54464e-131
1.38608e-132
2.52544e-134
4.56412e-136
8.18335e-138
1.45594e-139
2.57089e-141
4.50659e-143
7.84394e-145
1.35596e-146
2.32862e-148
3.97376e-150
6.7403e-152
1.13672e-153
3.12766e-92
7.25949e-94
1.65908e-95
3.74539e-97
8.36433e-99
1.84826e-100
4.04006e-102
8.73428e-104
1.86758e-105
3.95e-107
8.26494e-109
1.71105e-110
3.50525e-112
7.10682e-114
1.4263e-115
2.83411e-117
5.5769e-119
1.087e-120
2.09899e-122
4.01616e-124
7.61547e-126
1.43131e-127
2.66673e-129
4.92606e-131
9.02314e-133
1.63917e-134
2.95374e-136
5.28061e-138
9.36791e-140
1.64945e-141
2.88316e-143
5.00414e-145
8.62633e-147
1.4773e-148
2.51405e-150
4.25268e-152
7.15257e-154
1.13043e-92
2.59879e-94
5.88299e-96
1.3156e-97
2.91066e-99
6.37219e-101
1.38009e-102
2.95641e-104
6.26423e-106
1.31301e-107
2.72285e-109
5.5871e-111
1.13451e-112
2.28013e-114
4.53649e-116
8.93687e-118
1.74363e-119
3.36994e-121
6.45313e-123
1.22453e-124
2.30296e-126
4.29321e-128
7.93444e-130
1.45396e-131
2.64212e-133
4.76205e-135
8.5143e-137
1.51043e-138
2.6591e-140
4.64668e-142
8.06158e-144
1.38889e-145
2.37678e-147
4.04106e-149
6.82818e-151
1.14694e-152
1.9157e-154
1.30835e-93
2.96663e-95
6.62598e-97
1.46266e-98
3.19522e-100
6.90763e-102
1.47742e-103
3.1258e-105
6.54224e-107
1.35473e-108
2.77583e-110
5.62858e-112
1.12961e-113
2.24418e-115
4.41449e-117
8.59997e-119
1.6596e-120
3.17311e-122
6.01198e-124
1.12892e-125
2.10129e-127
3.87737e-129
7.09381e-131
1.287e-132
2.3158e-134
4.13358e-136
7.32032e-138
1.28646e-139
2.24396e-141
3.88578e-143
6.68162e-145
1.14111e-146
1.93607e-148
3.26416e-150
5.47018e-152
9.11453e-154
1.51043e-155
4.36243e-95
9.74603e-97
2.14647e-98
4.67624e-100
1.00844e-101
2.15211e-103
4.54382e-105
9.49087e-107
1.9614e-108
4.01104e-110
8.11763e-112
1.62607e-113
3.22448e-115
6.33105e-117
1.23108e-118
2.37132e-120
4.52557e-122
8.55879e-124
1.60425e-125
2.98063e-127
5.49009e-129
1.00263e-130
1.81575e-132
3.26131e-134
5.81066e-136
1.02715e-137
1.80178e-139
3.13697e-141
5.4219e-143
9.30505e-145
1.58603e-146
2.68553e-148
4.51839e-150
7.55581e-152
1.25616e-153
2.07685e-155
3.41587e-157
3.67187e-97
8.07885e-99
1.7552e-100
3.77509e-102
8.03723e-104
1.69313e-105
3.52881e-107
7.27715e-109
1.48506e-110
2.99938e-112
5.99627e-114
1.18675e-115
2.32565e-117
4.51368e-119
8.67787e-121
1.65302e-122
3.12037e-124
5.83793e-126
1.08267e-127
1.99057e-129
3.62874e-131
6.5598e-133
1.17611e-134
2.09172e-136
3.69091e-138
6.46281e-140
1.12318e-141
1.93779e-143
3.31957e-145
5.6477e-147
9.54502e-149
1.60288e-150
2.67521e-152
4.43876e-154
7.32371e-156
1.20199e-157
1.96297e-159
8.09032e-95
1.82085e-96
4.04523e-98
8.89382e-100
1.9351e-101
4.16514e-103
8.86758e-105
1.86752e-106
3.89108e-108
8.02183e-110
1.63658e-111
3.30456e-113
6.60518e-115
1.30718e-116
2.56187e-118
4.97323e-120
9.56448e-122
1.82262e-123
3.44191e-125
6.44208e-127
1.19514e-128
2.19804e-130
4.00809e-132
7.24771e-134
1.29988e-135
2.31273e-137
4.08269e-139
7.15243e-141
1.24373e-142
2.14709e-144
3.68052e-146
6.26621e-148
1.05986e-149
1.78132e-151
2.97581e-153
4.94264e-155
8.16456e-157
1.34171e-158
9.06711e-93
2.07286e-94
4.66962e-96
1.04006e-97
2.2924e-99
4.99908e-101
1.07831e-102
2.30052e-104
4.85486e-106
1.01357e-107
2.09366e-109
4.27945e-111
8.65694e-113
1.73346e-114
3.43663e-116
6.74701e-118
1.31203e-119
2.52761e-121
4.82478e-123
9.12652e-125
1.71098e-126
3.17941e-128
5.85699e-130
1.06978e-131
1.93764e-133
3.48091e-135
6.20336e-137
1.09688e-138
1.92473e-140
3.35233e-142
5.79664e-144
9.95299e-146
1.69739e-147
2.87587e-149
4.8421e-151
8.10383e-153
1.34854e-154
2.23193e-156
2.64291e-91
6.13426e-93
1.40188e-94
3.16447e-96
7.06597e-98
1.56105e-99
3.41138e-101
7.37295e-103
1.57599e-104
3.33209e-106
6.96924e-108
1.44216e-109
2.95296e-111
5.98388e-113
1.20025e-114
2.38355e-116
4.68739e-118
9.13031e-120
1.76184e-121
3.36855e-123
6.38223e-125
1.19842e-126
2.23057e-128
4.11575e-130
7.52969e-132
1.36606e-133
2.45811e-135
4.38785e-137
7.77141e-139
1.36594e-140
2.38308e-142
4.12774e-144
7.09995e-146
1.21303e-147
2.0591e-149
3.47362e-151
5.82517e-153
9.7136e-155
2.28332e-90
5.37439e-92
1.24517e-93
2.84788e-95
6.44075e-97
1.441e-98
3.18894e-100
6.97897e-102
1.51037e-103
3.23264e-105
6.84346e-107
1.43316e-108
2.9694e-110
6.08771e-112
1.23516e-113
2.48065e-115
4.93258e-117
9.71283e-119
1.89439e-120
3.66034e-122
7.0076e-124
1.32946e-125
2.49976e-127
4.65906e-129
8.6087e-131
1.57719e-132
2.86553e-134
5.1639e-136
9.23172e-138
1.63758e-139
2.88288e-141
5.0379e-143
8.74119e-145
1.50624e-146
2.57828e-148
4.38523e-150
7.41304e-152
1.24584e-153
6.40357e-90
1.52196e-91
3.56015e-93
8.21958e-95
1.87627e-96
4.23669e-98
9.46236e-100
2.08989e-101
4.56422e-103
9.85752e-105
2.10565e-106
4.44919e-108
9.30051e-110
1.92361e-111
3.93711e-113
7.97574e-115
1.59952e-116
3.17636e-118
6.24714e-120
1.2171e-121
2.3493e-123
4.49348e-125
8.51764e-127
1.60033e-128
2.98067e-130
5.50423e-132
1.00792e-133
1.83052e-135
3.29778e-137
5.89453e-139
1.04555e-140
1.84078e-142
3.21752e-144
5.58475e-146
9.62849e-148
1.64929e-149
2.80759e-151
4.75107e-153
9.16767e-90
2.18664e-91
5.13288e-93
1.18916e-94
2.72373e-96
6.17121e-98
1.38297e-99
3.06478e-101
6.71583e-103
1.45528e-104
3.11892e-106
6.61199e-108
1.3867e-109
2.87746e-111
5.90849e-113
1.20078e-114
2.41581e-116
4.81248e-118
9.49457e-120
1.85551e-121
3.59262e-123
6.89259e-125
1.31051e-126
2.46971e-128
4.61379e-130
8.54557e-132
1.56951e-133
2.85888e-135
5.16557e-137
9.26002e-139
1.64727e-140
2.90851e-142
5.09832e-144
8.87435e-146
1.53428e-147
2.6354e-149
4.49857e-151
7.63324e-153
9.169e-90
2.18709e-91
5.13414e-93
1.18943e-94
2.72423e-96
6.17203e-98
1.38312e-99
3.06509e-101
6.71651e-103
1.45544e-104
3.11928e-106
6.61283e-108
1.3869e-109
2.87793e-111
5.90956e-113
1.20101e-114
2.41626e-116
4.81332e-118
9.49603e-120
1.85576e-121
3.593e-123
6.89319e-125
1.31061e-126
2.46986e-128
4.61406e-130
8.54606e-132
1.5696e-133
2.85905e-135
5.1659e-137
9.26066e-139
1.6474e-140
2.90876e-142
5.09879e-144
8.87521e-146
1.53444e-147
2.63566e-149
4.49903e-151
7.63402e-153
1.51584e-91
3.55915e-93
8.22618e-95
1.87696e-96
4.23503e-98
9.45395e-100
2.08774e-101
4.55991e-103
9.84967e-105
2.10429e-106
4.447e-108
9.29742e-110
1.9233e-111
3.9371e-113
7.97669e-115
1.59981e-116
3.17694e-118
6.24798e-120
1.21717e-121
2.34922e-123
4.49298e-125
8.51623e-127
1.60002e-128
2.98007e-130
5.50318e-132
1.00775e-133
1.83027e-135
3.29744e-137
5.89414e-139
1.04552e-140
1.84081e-142
3.21769e-144
5.58521e-146
9.62947e-148
1.64948e-149
2.80794e-151
4.75168e-153
5.36065e-92
1.24665e-93
2.85402e-95
6.45083e-97
1.44199e-98
3.18933e-100
6.97865e-102
1.51037e-103
3.23303e-105
6.84519e-107
1.43374e-108
2.97111e-110
6.09232e-112
1.23629e-113
2.48315e-115
4.93764e-117
9.72223e-119
1.896e-120
3.66294e-122
7.0116e-124
1.33007e-125
2.50071e-127
4.66065e-129
8.61154e-131
1.57772e-132
2.86656e-134
5.16592e-136
9.23563e-138
1.63833e-139
2.88432e-141
5.04063e-143
8.74626e-145
1.50716e-146
2.5799e-148
4.38801e-150
7.41776e-152
1.24664e-153
6.12287e-93
1.40449e-94
3.17235e-96
7.07826e-98
1.5625e-99
3.41325e-101
7.37675e-103
1.57699e-104
3.3347e-106
6.97587e-108
1.44381e-109
2.95693e-111
5.99303e-113
1.20224e-114
2.38757e-116
4.69503e-118
9.14405e-120
1.7642e-121
3.3725e-123
6.3888e-125
1.19954e-126
2.23252e-128
4.11928e-130
7.5362e-132
1.36727e-133
2.46035e-135
4.39195e-137
7.77888e-139
1.36729e-140
2.38551e-142
4.1321e-144
7.10769e-146
1.21439e-147
2.06144e-149
3.47758e-151
5.83181e-153
9.72464e-155
2.07135e-94
4.68115e-96
1.0425e-97
2.29568e-99
5.0035e-101
1.07917e-102
2.30265e-104
4.86027e-106
1.01489e-107
2.09683e-109
4.2869e-111
8.67379e-113
1.73709e-114
3.44397e-116
6.76109e-118
1.31459e-119
2.53209e-121
4.83242e-123
9.13943e-125
1.71319e-126
3.18332e-128
5.86409e-130
1.07108e-131
1.94006e-133
3.48533e-135
6.21139e-137
1.09831e-138
1.92727e-140
3.35677e-142
5.80441e-144
9.96662e-146
1.69978e-147
2.88002e-149
4.84917e-151
8.11569e-153
1.3505e-154
2.23516e-156
1.82245e-96
4.05564e-98
8.90902e-100
1.93704e-101
4.16869e-103
8.87657e-105
1.86985e-106
3.89688e-108
8.0358e-110
1.63983e-111
3.31191e-113
6.62097e-115
1.31039e-116
2.56805e-118
4.98456e-120
9.58443e-122
1.82602e-123
3.44764e-125
6.45176e-127
1.19683e-128
2.20107e-130
4.0137e-132
7.2581e-134
1.30179e-135
2.31618e-137
4.08883e-139
7.16312e-141
1.24556e-142
2.15021e-144
3.68592e-146
6.27561e-148
1.06148e-149
1.78411e-151
2.98054e-153
4.95053e-155
8.17754e-157
1.34384e-158
2.32241e-94
5.27714e-96
1.18339e-97
2.62585e-99
5.76577e-101
1.25238e-102
2.69051e-104
5.7172e-106
1.20182e-107
2.49955e-109
5.14404e-111
1.04765e-112
2.11188e-114
4.21446e-116
8.32776e-118
1.62974e-119
3.15939e-121
6.06813e-123
1.15489e-124
2.17826e-126
4.07207e-128
7.5458e-130
1.38626e-131
2.52523e-133
4.562e-135