/*--------------------------------*- C++ -*----------------------------------*\
| =========                 |                                                 |
| \\      /  F ield         | OpenFOAM: The Open Source CFD Toolbox           |
|  \\    /   O peration     | Version:  2.3.1                                 |
|   \\  /    A nd           | Web:      www.OpenFOAM.org                      |
|    \\/     M anipulation  |                                                 |
\*---------------------------------------------------------------------------*/
FoamFile
{
    version     2.0;
    format      ascii;
    class       volVectorField;
    location    "5";
    object      U;
}
// * * * * * * * * * * * * * * * * * * * * * * * * * * * * * * * * * * * * * //

dimensions      [0 1 -1 0 0 0 0];

internalField   nonuniform List<vector> 
37692
(
(0.00345263 2.77838e-07 -2.42286e-07)
(0.00345331 2.12606e-07 -2.77431e-07)
(0.00345431 1.51606e-07 -3.19715e-07)
(0.00345563 1.04111e-07 -3.71662e-07)
(0.00345729 7.58371e-08 -4.33535e-07)
(0.00345932 5.98662e-08 -5.07097e-07)
(0.00346175 3.37585e-08 -5.96808e-07)
(0.00346468 -2.36662e-08 -7.06349e-07)
(0.00346821 -1.14368e-07 -8.32305e-07)
(0.00347242 -2.26846e-07 -9.64549e-07)
(0.00347735 -3.49848e-07 -1.09425e-06)
(0.003483 -4.81311e-07 -1.21982e-06)
(0.0034894 -6.23115e-07 -1.34417e-06)
(0.00349656 -7.66578e-07 -1.47072e-06)
(0.00350449 -8.95447e-07 -1.60295e-06)
(0.00351321 -1.0044e-06 -1.74661e-06)
(0.00352274 -1.10189e-06 -1.91006e-06)
(0.00353316 -1.19747e-06 -2.10045e-06)
(0.00354457 -1.29114e-06 -2.31897e-06)
(0.00355702 -1.3719e-06 -2.55951e-06)
(0.00357058 -1.43195e-06 -2.81347e-06)
(0.00358527 -1.48313e-06 -3.07776e-06)
(0.00360119 -1.54945e-06 -3.35756e-06)
(0.00361846 -1.64363e-06 -3.66083e-06)
(0.00363726 -1.75848e-06 -3.99237e-06)
(0.00365773 -1.88131e-06 -4.35324e-06)
(0.00368001 -2.00671e-06 -4.74372e-06)
(0.00370423 -2.13354e-06 -5.164e-06)
(0.00373051 -2.25789e-06 -5.6122e-06)
(0.00375895 -2.37183e-06 -6.08443e-06)
(0.00378963 -2.47344e-06 -6.57848e-06)
(0.00382263 -2.57905e-06 -7.09841e-06)
(0.00385814 -2.71417e-06 -7.65507e-06)
(0.00389638 -2.89263e-06 -8.2603e-06)
(0.00393764 -3.11104e-06 -8.922e-06)
(0.00398224 -3.35927e-06 -9.64455e-06)
(0.00403048 -3.63333e-06 -1.04327e-05)
(0.0040827 -3.9371e-06 -1.12913e-05)
(0.00355269 4.51966e-07 -1.31238e-07)
(0.00355338 2.98743e-07 -1.81139e-07)
(0.00355441 1.55995e-07 -2.38939e-07)
(0.00355579 4.24587e-08 -3.00967e-07)
(0.00355752 -3.37879e-08 -3.63643e-07)
(0.00355962 -8.41207e-08 -4.31574e-07)
(0.00356213 -1.38708e-07 -5.24338e-07)
(0.00356513 -2.25945e-07 -6.59051e-07)
(0.00356872 -3.53515e-07 -8.28416e-07)
(0.00357298 -5.15314e-07 -1.01018e-06)
(0.00357794 -7.06619e-07 -1.18776e-06)
(0.00358362 -9.29391e-07 -1.36005e-06)
(0.00359004 -1.18037e-06 -1.53605e-06)
(0.00359723 -1.43528e-06 -1.71727e-06)
(0.00360521 -1.66121e-06 -1.89688e-06)
(0.00361397 -1.84402e-06 -2.07966e-06)
(0.00362356 -1.98927e-06 -2.2835e-06)
(0.00363404 -2.10444e-06 -2.52307e-06)
(0.0036455 -2.18609e-06 -2.79896e-06)
(0.00365802 -2.22445e-06 -3.09448e-06)
(0.00367162 -2.22817e-06 -3.38941e-06)
(0.00368636 -2.23794e-06 -3.68345e-06)
(0.00370231 -2.30174e-06 -3.99577e-06)
(0.00371964 -2.43687e-06 -4.34115e-06)
(0.0037385 -2.62399e-06 -4.71835e-06)
(0.00375904 -2.83451e-06 -5.12242e-06)
(0.0037814 -3.05072e-06 -5.55573e-06)
(0.0038057 -3.2621e-06 -6.0223e-06)
(0.00383207 -3.45615e-06 -6.51996e-06)
(0.0038606 -3.61972e-06 -7.03919e-06)
(0.00389139 -3.75631e-06 -7.57232e-06)
(0.00392453 -3.89968e-06 -8.13083e-06)
(0.00396019 -4.09388e-06 -8.74097e-06)
(0.00399864 -4.3615e-06 -9.42014e-06)
(0.00404016 -4.69788e-06 -1.0171e-05)
(0.00408505 -5.08722e-06 -1.09909e-05)
(0.00413362 -5.52283e-06 -1.18822e-05)
(0.00418622 -6.01134e-06 -1.2855e-05)
(0.00356303 3.46401e-07 -5.95154e-08)
(0.00356374 1.42482e-07 -1.28412e-07)
(0.0035648 -4.4484e-08 -2.05931e-07)
(0.00356623 -2.01039e-07 -2.79997e-07)
(0.00356802 -3.21091e-07 -3.47536e-07)
(0.00357018 -4.05992e-07 -4.18682e-07)
(0.00357274 -4.64405e-07 -5.19005e-07)
(0.00357578 -5.09322e-07 -6.64282e-07)
(0.0035794 -5.5795e-07 -8.43904e-07)
(0.00358366 -6.30795e-07 -1.03637e-06)
(0.0035886 -7.46323e-07 -1.22818e-06)
(0.00359424 -9.11942e-07 -1.4241e-06)
(0.00360064 -1.11428e-06 -1.63523e-06)
(0.00360783 -1.32021e-06 -1.85353e-06)
(0.00361582 -1.49684e-06 -2.06411e-06)
(0.00362461 -1.6244e-06 -2.2722e-06)
(0.00363424 -1.69247e-06 -2.49791e-06)
(0.00364476 -1.69378e-06 -2.75661e-06)
(0.00365626 -1.62393e-06 -3.04444e-06)
(0.00366879 -1.49326e-06 -3.33608e-06)
(0.00368237 -1.34277e-06 -3.61381e-06)
(0.00369702 -1.2365e-06 -3.89494e-06)
(0.00371288 -1.22295e-06 -4.21322e-06)
(0.00373011 -1.30831e-06 -4.58125e-06)
(0.0037489 -1.46493e-06 -4.98668e-06)
(0.0037694 -1.65772e-06 -5.41863e-06)
(0.00379172 -1.8583e-06 -5.87906e-06)
(0.00381599 -2.04481e-06 -6.3713e-06)
(0.00384233 -2.19992e-06 -6.88973e-06)
(0.00387084 -2.31569e-06 -7.41787e-06)
(0.00390158 -2.40609e-06 -7.94762e-06)
(0.00393465 -2.50599e-06 -8.50299e-06)
(0.00397024 -2.64741e-06 -9.12155e-06)
(0.00400862 -2.84345e-06 -9.82258e-06)
(0.00405009 -3.09238e-06 -1.06054e-05)
(0.00409494 -3.38726e-06 -1.14607e-05)
(0.00414348 -3.72724e-06 -1.23885e-05)
(0.00419604 -4.11911e-06 -1.34021e-05)
(0.00356449 1.28119e-07 -4.95956e-08)
(0.00356522 -9.62395e-08 -1.26242e-07)
(0.00356631 -2.90278e-07 -2.09016e-07)
(0.00356777 -4.57265e-07 -2.89576e-07)
(0.00356961 -5.90874e-07 -3.67089e-07)
(0.00357181 -6.77577e-07 -4.49053e-07)
(0.00357442 -7.07894e-07 -5.5362e-07)
(0.00357749 -6.89165e-07 -6.9043e-07)
(0.00358112 -6.50138e-07 -8.53448e-07)
(0.00358535 -6.30277e-07 -1.03101e-06)
(0.00359024 -6.57878e-07 -1.2166e-06)
(0.00359585 -7.35696e-07 -1.41932e-06)
(0.00360224 -8.41452e-07 -1.64604e-06)
(0.00360944 -9.44654e-07 -1.881e-06)
(0.00361746 -1.02086e-06 -2.10702e-06)
(0.0036263 -1.04998e-06 -2.32817e-06)
(0.00363598 -1.01336e-06 -2.55971e-06)
(0.00364657 -8.96902e-07 -2.81205e-06)
(0.00365813 -7.01125e-07 -3.07518e-06)
(0.00367069 -4.54515e-07 -3.32412e-06)
(0.00368423 -2.14148e-07 -3.55715e-06)
(0.00369881 -3.8896e-08 -3.80945e-06)
(0.00371457 3.92221e-08 -4.12095e-06)
(0.00373172 2.41957e-08 -4.49748e-06)
(0.00375045 -5.80971e-08 -4.91829e-06)
(0.00377092 -1.76321e-07 -5.36816e-06)
(0.00379323 -3.01687e-07 -5.84523e-06)
(0.00381751 -4.12225e-07 -6.34852e-06)
(0.00384387 -4.96723e-07 -6.86752e-06)
(0.00387238 -5.59046e-07 -7.38213e-06)
(0.00390311 -6.17467e-07 -7.89016e-06)
(0.00393615 -6.91306e-07 -8.42684e-06)
(0.0039717 -7.87238e-07 -9.03361e-06)
(0.00401004 -9.02878e-07 -9.72701e-06)
(0.00405147 -1.03966e-06 -1.05035e-05)
(0.00409629 -1.20595e-06 -1.13515e-05)
(0.00414478 -1.41123e-06 -1.22706e-05)
(0.00419731 -1.66418e-06 -1.32774e-05)
(0.00356452 -8.05396e-08 -8.13311e-08)
(0.00356528 -3.26998e-07 -1.51626e-07)
(0.00356641 -5.30849e-07 -2.28177e-07)
(0.0035679 -7.01265e-07 -3.13206e-07)
(0.00356977 -8.31008e-07 -4.03511e-07)
(0.00357203 -9.02969e-07 -4.97153e-07)
(0.0035747 -9.0366e-07 -6.00647e-07)
(0.00357783 -8.38709e-07 -7.19593e-07)
(0.00358146 -7.40256e-07 -8.56312e-07)
(0.00358567 -6.52926e-07 -1.01152e-06)
(0.00359052 -6.05993e-07 -1.18838e-06)
(0.0035961 -5.94811e-07 -1.39522e-06)
(0.00360247 -5.92306e-07 -1.62946e-06)
(0.00360969 -5.74974e-07 -1.87141e-06)
(0.00361774 -5.2986e-07 -2.10716e-06)
(0.00362663 -4.45383e-07 -2.33766e-06)
(0.00363638 -3.07545e-07 -2.5709e-06)
(0.00364704 -1.06444e-07 -2.81091e-06)
(0.00365865 1.51223e-07 -3.04299e-06)
(0.00367121 4.3178e-07 -3.24963e-06)
(0.0036847 6.85027e-07 -3.44484e-06)
(0.0036992 8.73793e-07 -3.67741e-06)
(0.00371488 9.8823e-07 -3.98573e-06)
(0.00373197 1.0394e-06 -4.36794e-06)
(0.00375066 1.04502e-06 -4.7989e-06)
(0.0037711 1.02401e-06 -5.26085e-06)
(0.00379342 9.94895e-07 -5.7473e-06)
(0.00381771 9.69005e-07 -6.25309e-06)
(0.00384408 9.42788e-07 -6.76559e-06)
(0.00387258 8.99953e-07 -7.26765e-06)
(0.00390329 8.28023e-07 -7.76625e-06)
(0.00393631 7.35567e-07 -8.30084e-06)
(0.00397185 6.46953e-07 -8.9056e-06)
(0.00401019 5.77305e-07 -9.59055e-06)
(0.00405161 5.16646e-07 -1.03521e-05)
(0.0040964 4.38931e-07 -1.11837e-05)
(0.00414486 3.2398e-07 -1.20883e-05)
(0.00419734 1.63561e-07 -1.3081e-05)
(0.0035643 -2.0863e-07 -1.22507e-07)
(0.00356511 -4.81254e-07 -1.89292e-07)
(0.00356627 -7.00172e-07 -2.64026e-07)
(0.00356781 -8.6487e-07 -3.5543e-07)
(0.00356973 -9.72684e-07 -4.55063e-07)
(0.00357205 -1.01863e-06 -5.54081e-07)
(0.00357479 -9.97699e-07 -6.51495e-07)
(0.00357796 -9.15828e-07 -7.50592e-07)
(0.0035816 -8.00348e-07 -8.61249e-07)
(0.00358579 -6.88409e-07 -9.97184e-07)
(0.00359061 -5.98532e-07 -1.17015e-06)
(0.00359618 -5.14956e-07 -1.38308e-06)
(0.00360257 -4.08614e-07 -1.62183e-06)
(0.00360981 -2.65838e-07 -1.86585e-06)
(0.00361789 -9.04923e-08 -2.10466e-06)
(0.00362681 1.09387e-07 -2.33689e-06)
(0.0036366 3.30508e-07 -2.56584e-06)
(0.0036473 5.71532e-07 -2.79022e-06)
(0.00365893 8.23476e-07 -2.99631e-06)
(0.00367147 1.06465e-06 -3.17605e-06)
(0.00368493 1.27314e-06 -3.35562e-06)
(0.00369938 1.44128e-06 -3.5849e-06)
(0.00371501 1.57795e-06 -3.89523e-06)
(0.00373207 1.69373e-06 -4.27889e-06)
(0.00375073 1.79207e-06 -4.71099e-06)
(0.00377116 1.87489e-06 -5.17364e-06)
(0.00379347 1.94571e-06 -5.65668e-06)
(0.00381775 2.00085e-06 -6.15284e-06)
(0.00384409 2.02165e-06 -6.65336e-06)
(0.00387256 1.9861e-06 -7.15143e-06)
(0.00390323 1.89574e-06 -7.66091e-06)
(0.00393625 1.78586e-06 -8.21254e-06)
(0.00397183 1.70107e-06 -8.82447e-06)
(0.00401019 1.65959e-06 -9.49997e-06)
(0.00405161 1.64382e-06 -1.02422e-05)
(0.00409638 1.61877e-06 -1.10568e-05)
(0.0041448 1.55873e-06 -1.19532e-05)
(0.00419724 1.45621e-06 -1.29407e-05)
(0.00356403 -2.82102e-07 -1.41931e-07)
(0.00356488 -5.62038e-07 -2.24203e-07)
(0.0035661 -7.78044e-07 -3.11179e-07)
(0.00356769 -9.19967e-07 -4.08987e-07)
(0.00356967 -9.96157e-07 -5.09592e-07)
(0.00357205 -1.01931e-06 -6.07033e-07)
(0.00357484 -9.94462e-07 -6.98229e-07)
(0.00357805 -9.25219e-07 -7.83188e-07)
(0.0035817 -8.2621e-07 -8.76262e-07)
(0.00358589 -7.1692e-07 -1.00324e-06)
(0.00359071 -5.9811e-07 -1.18152e-06)
(0.00359631 -4.46437e-07 -1.40345e-06)
(0.00360274 -2.38499e-07 -1.64264e-06)
(0.00361001 2.52885e-08 -1.87774e-06)
(0.00361812 3.21536e-07 -2.10324e-06)
(0.00362705 6.20287e-07 -2.32293e-06)
(0.00363683 8.99476e-07 -2.542e-06)
(0.00364752 1.14871e-06 -2.75805e-06)
(0.00365913 1.36362e-06 -2.95682e-06)
(0.00367165 1.5435e-06 -3.13374e-06)
(0.00368508 1.69597e-06 -3.31651e-06)
(0.00369951 1.83977e-06 -3.55082e-06)
(0.00371515 1.99482e-06 -3.86107e-06)
(0.0037322 2.16601e-06 -4.23854e-06)
(0.00375086 2.34183e-06 -4.66305e-06)
(0.00377127 2.50782e-06 -5.11783e-06)
(0.00379356 2.65292e-06 -5.58938e-06)
(0.00381781 2.7624e-06 -6.07022e-06)
(0.00384409 2.81313e-06 -6.56016e-06)
(0.0038725 2.78863e-06 -7.06497e-06)
(0.00390313 2.70275e-06 -7.59871e-06)
(0.00393616 2.5996e-06 -8.17484e-06)
(0.00397177 2.52384e-06 -8.79464e-06)
(0.00401017 2.49209e-06 -9.46004e-06)
(0.0040516 2.49061e-06 -1.01854e-05)
(0.00409635 2.49152e-06 -1.09893e-05)
(0.00414474 2.47353e-06 -1.1886e-05)
(0.00419715 2.42495e-06 -1.2883e-05)
(0.00356463 -5.92474e-07 -2.55714e-07)
(0.00356592 -7.64343e-07 -3.59938e-07)
(0.00356758 -8.59328e-07 -4.58684e-07)
(0.00356961 -8.97466e-07 -5.5269e-07)
(0.00357202 -9.02191e-07 -6.46209e-07)
(0.00357484 -8.839e-07 -7.36381e-07)
(0.00357807 -8.41935e-07 -8.19191e-07)
(0.00358175 -7.7349e-07 -9.10701e-07)
(0.00358596 -6.72474e-07 -1.04371e-06)
(0.00359082 -5.22555e-07 -1.23477e-06)
(0.00359647 -3.02637e-07 -1.46421e-06)
(0.00360296 -5.72784e-09 -1.69467e-06)
(0.00361028 3.49751e-07 -1.90639e-06)
(0.00361839 7.2686e-07 -2.10354e-06)
(0.0036273 1.08626e-06 -2.29999e-06)
(0.00363704 1.3981e-06 -2.50735e-06)
(0.00364768 1.64603e-06 -2.72345e-06)
(0.00365924 1.82815e-06 -2.93123e-06)
(0.00367173 1.9578e-06 -3.12133e-06)
(0.00368516 2.06372e-06 -3.3168e-06)
(0.00369961 2.18399e-06 -3.55759e-06)
(0.00371527 2.34778e-06 -3.86346e-06)
(0.00373234 2.55701e-06 -4.22908e-06)
(0.003751 2.78961e-06 -4.64144e-06)
(0.00377141 3.01677e-06 -5.08603e-06)
(0.00379366 3.21409e-06 -5.54773e-06)
(0.00381786 3.362e-06 -6.01932e-06)
(0.00384408 3.44391e-06 -6.50708e-06)
(0.00387242 3.45434e-06 -7.02375e-06)
(0.00390303 3.40979e-06 -7.57932e-06)
(0.00393606 3.34397e-06 -8.17381e-06)
(0.00397169 3.28999e-06 -8.80004e-06)
(0.00401013 3.26645e-06 -9.46281e-06)
(0.00405158 3.2764e-06 -1.01835e-05)
(0.00409633 3.31171e-06 -1.09865e-05)
(0.00414471 3.36207e-06 -1.18875e-05)
(0.00419709 3.40953e-06 -1.28946e-05)
(0.0035642 -5.88303e-07 -2.87056e-07)
(0.00356556 -6.79219e-07 -3.99687e-07)
(0.00356727 -7.13859e-07 -4.91506e-07)
(0.00356933 -7.13795e-07 -5.75805e-07)
(0.00357176 -6.99344e-07 -6.66791e-07)
(0.00357459 -6.79012e-07 -7.62777e-07)
(0.00357784 -6.4721e-07 -8.57142e-07)
(0.00358155 -5.85021e-07 -9.6437e-07)
(0.0035858 -4.64816e-07 -1.1152e-06)
(0.00359074 -2.62821e-07 -1.31879e-06)
(0.00359646 2.59456e-08 -1.54512e-06)
(0.00360302 3.82412e-07 -1.75613e-06)
(0.00361036 7.74074e-07 -1.93854e-06)
(0.00361847 1.16799e-06 -2.10505e-06)
(0.00362734 1.53534e-06 -2.27698e-06)
(0.00363703 1.85187e-06 -2.47101e-06)
(0.0036476 2.09822e-06 -2.68726e-06)
(0.0036591 2.26606e-06 -2.90637e-06)
(0.00367156 2.36841e-06 -3.11417e-06)
(0.00368498 2.44386e-06 -3.32817e-06)
(0.00369947 2.54428e-06 -3.58005e-06)
(0.00371518 2.70771e-06 -3.88409e-06)
(0.00373229 2.93848e-06 -4.23798e-06)
(0.00375097 3.21046e-06 -4.6361e-06)
(0.00377136 3.48451e-06 -5.07019e-06)
(0.00379358 3.72596e-06 -5.52751e-06)
(0.00381772 3.91297e-06 -6.00025e-06)
(0.00384388 4.03662e-06 -6.49396e-06)
(0.00387218 4.10047e-06 -7.02061e-06)
(0.00390275 4.11784e-06 -7.58852e-06)
(0.00393578 4.1072e-06 -8.19565e-06)
(0.00397142 4.09003e-06 -8.83486e-06)
(0.00400988 4.08935e-06 -9.51147e-06)
(0.00405137 4.1272e-06 -1.02441e-05)
(0.00409616 4.21674e-06 -1.10547e-05)
(0.00414456 4.35974e-06 -1.19597e-05)
(0.00419694 4.54031e-06 -1.2968e-05)
(0.00356246 -5.49559e-07 -3.13947e-07)
(0.00356385 -5.45594e-07 -4.2362e-07)
(0.00356559 -5.20559e-07 -5.04038e-07)
(0.00356767 -4.84631e-07 -5.79477e-07)
(0.00357009 -4.44716e-07 -6.69551e-07)
(0.00357291 -4.03111e-07 -7.74854e-07)
(0.00357618 -3.50752e-07 -8.88496e-07)
(0.00357993 -2.58957e-07 -1.01884e-06)
(0.00358425 -9.14199e-08 -1.18489e-06)
(0.00358926 1.69533e-07 -1.3863e-06)
(0.00359505 5.05592e-07 -1.59438e-06)
(0.00360164 8.75938e-07 -1.77947e-06)
(0.003609 1.24617e-06 -1.93566e-06)
(0.0036171 1.59993e-06 -2.07782e-06)
(0.00362594 1.92991e-06 -2.22661e-06)
(0.00363558 2.22495e-06 -2.40018e-06)
(0.00364609 2.46511e-06 -2.60372e-06)
(0.00365753 2.63107e-06 -2.82299e-06)
(0.00366994 2.72738e-06 -3.04672e-06)
(0.00368337 2.79469e-06 -3.28757e-06)
(0.0036979 2.89117e-06 -3.56244e-06)
(0.00371369 3.05859e-06 -3.87341e-06)
(0.00373086 3.30424e-06 -4.21809e-06)
(0.00374957 3.60458e-06 -4.5988e-06)
(0.00376995 3.91967e-06 -5.01776e-06)
(0.00379214 4.21124e-06 -5.46857e-06)
(0.00381625 4.45458e-06 -5.94301e-06)
(0.00384237 4.64181e-06 -6.44155e-06)
(0.00387063 4.77994e-06 -6.97232e-06)
(0.00390119 4.88064e-06 -7.54654e-06)
(0.0039342 4.95483e-06 -8.16709e-06)
(0.00396986 5.01793e-06 -8.82886e-06)
(0.00400835 5.09393e-06 -9.53306e-06)
(0.00404989 5.21356e-06 -1.0288e-05)
(0.00409474 5.40258e-06 -1.11092e-05)
(0.0041432 5.67346e-06 -1.20146e-05)
(0.00419562 6.02254e-06 -1.30149e-05)
(0.00355186 -4.64802e-07 -3.52806e-07)
(0.00355328 -3.85976e-07 -4.41273e-07)
(0.00355503 -3.28239e-07 -5.0525e-07)
(0.00355709 -2.75527e-07 -5.69906e-07)
(0.00355949 -2.13309e-07 -6.52916e-07)
(0.00356229 -1.34964e-07 -7.56711e-07)
(0.00356555 -3.38796e-08 -8.75759e-07)
(0.00356933 1.10072e-07 -1.01126e-06)
(0.0035737 3.2241e-07 -1.1674e-06)
(0.00357877 6.04965e-07 -1.33843e-06)
(0.00358461 9.25678e-07 -1.50728e-06)
(0.00359122 1.24119e-06 -1.66023e-06)
(0.00359859 1.52442e-06 -1.79632e-06)
(0.0036067 1.77148e-06 -1.92357e-06)
(0.00361555 1.99208e-06 -2.05429e-06)
(0.00362517 2.19454e-06 -2.20424e-06)
(0.00363564 2.37213e-06 -2.38401e-06)
(0.00364703 2.50814e-06 -2.59125e-06)
(0.00365941 2.60345e-06 -2.82266e-06)
(0.00367284 2.69044e-06 -3.08231e-06)
(0.00368743 2.8109e-06 -3.36976e-06)
(0.00370329 2.98904e-06 -3.67725e-06)
(0.00372054 3.22716e-06 -4.00155e-06)
(0.00373931 3.51244e-06 -4.35084e-06)
(0.00375972 3.82004e-06 -4.73573e-06)
(0.00378191 4.11984e-06 -5.15644e-06)
(0.00380602 4.38689e-06 -5.60804e-06)
(0.00383214 4.6109e-06 -6.08861e-06)
(0.00386041 4.80077e-06 -6.60293e-06)
(0.00389097 4.97385e-06 -7.16345e-06)
(0.003924 5.14227e-06 -7.77549e-06)
(0.0039597 5.31354e-06 -8.43507e-06)
(0.00399824 5.49837e-06 -9.1388e-06)
(0.00403985 5.71575e-06 -9.8861e-06)
(0.00408478 5.9908e-06 -1.0687e-05)
(0.0041333 6.3469e-06 -1.15577e-05)
(0.00418577 6.79972e-06 -1.25106e-05)
(0.00345158 -2.36897e-07 -4.12475e-07)
(0.00345301 -1.75171e-07 -4.69514e-07)
(0.00345476 -1.37172e-07 -5.18433e-07)
(0.0034568 -1.04801e-07 -5.72017e-07)
(0.00345918 -6.32352e-08 -6.38435e-07)
(0.00346194 -6.69327e-09 -7.19215e-07)
(0.00346515 6.60528e-08 -8.11878e-07)
(0.0034689 1.60706e-07 -9.13885e-07)
(0.00347325 2.86399e-07 -1.02522e-06)
(0.0034783 4.39121e-07 -1.1431e-06)
(0.00348412 5.99406e-07 -1.2625e-06)
(0.00349071 7.45973e-07 -1.38012e-06)
(0.00349807 8.67879e-07 -1.49656e-06)
(0.00350616 9.65764e-07 -1.61502e-06)
(0.00351498 1.04808e-06 -1.74034e-06)
(0.00352457 1.12543e-06 -1.88003e-06)
(0.00353499 1.20039e-06 -2.04208e-06)
(0.0035463 1.26664e-06 -2.23112e-06)
(0.0035586 1.32421e-06 -2.44823e-06)
(0.00357197 1.38732e-06 -2.6904e-06)
(0.00358651 1.47125e-06 -2.95061e-06)
(0.00360233 1.58021e-06 -3.22247e-06)
(0.00361952 1.7116e-06 -3.50558e-06)
(0.00363822 1.86308e-06 -3.80779e-06)
(0.00365854 2.02866e-06 -4.13893e-06)
(0.00368063 2.19598e-06 -4.50306e-06)
(0.00370462 2.35241e-06 -4.90071e-06)
(0.00373063 2.49147e-06 -5.33137e-06)
(0.00375876 2.61832e-06 -5.79712e-06)
(0.00378918 2.74557e-06 -6.30421e-06)
(0.00382204 2.88066e-06 -6.85517e-06)
(0.00385755 3.02473e-06 -7.4489e-06)
(0.00389588 3.17769e-06 -8.08422e-06)
(0.00393725 3.34322e-06 -8.76128e-06)
(0.0039819 3.53288e-06 -9.48656e-06)
(0.00403011 3.76181e-06 -1.02695e-05)
(0.00408223 4.0448e-06 -1.11179e-05)
(0.00363116 1.39915e-07 -6.08827e-07)
(0.00363182 1.03287e-07 -7.3719e-07)
(0.00363281 7.25194e-08 -8.84918e-07)
(0.00363414 5.60547e-08 -1.0587e-06)
(0.00363583 5.91133e-08 -1.26085e-06)
(0.00363791 7.22891e-08 -1.49479e-06)
(0.00364042 6.98599e-08 -1.76888e-06)
(0.00364345 3.00105e-08 -2.08876e-06)
(0.00364708 -4.75005e-08 -2.4443e-06)
(0.00365138 -1.4786e-07 -2.81339e-06)
(0.00365639 -2.569e-07 -3.18025e-06)
(0.00366213 -3.72348e-07 -3.54199e-06)
(0.00366862 -4.95775e-07 -3.90509e-06)
(0.00367588 -6.16581e-07 -4.27826e-06)
(0.00368391 -7.18584e-07 -4.67117e-06)
(0.00369274 -7.98827e-07 -5.09911e-06)
(0.00370241 -8.67861e-07 -5.58166e-06)
(0.00371299 -9.36573e-07 -6.13366e-06)
(0.00372456 -1.00424e-06 -6.75758e-06)
(0.00373719 -1.05639e-06 -7.44127e-06)
(0.00375093 -1.08123e-06 -8.1685e-06)
(0.00376584 -1.08898e-06 -8.93564e-06)
(0.003782 -1.10461e-06 -9.75588e-06)
(0.00379955 -1.14196e-06 -1.06472e-05)
(0.00381864 -1.19461e-06 -1.16207e-05)
(0.00383942 -1.25098e-06 -1.26797e-05)
(0.00386204 -1.30629e-06 -1.38252e-05)
(0.00388662 -1.35971e-06 -1.50565e-05)
(0.0039133 -1.40683e-06 -1.63687e-05)
(0.00394216 -1.4375e-06 -1.77541e-05)
(0.00397331 -1.44772e-06 -1.92098e-05)
(0.00400686 -1.45322e-06 -2.07482e-05)
(0.00404298 -1.47984e-06 -2.23969e-05)
(0.0040819 -1.54248e-06 -2.41848e-05)
(0.00412391 -1.63798e-06 -2.61347e-05)
(0.00416931 -1.75506e-06 -2.82618e-05)
(0.00421844 -1.88819e-06 -3.05805e-05)
(0.00427162 -2.03972e-06 -3.3107e-05)
(0.00373633 2.43586e-07 -3.88835e-07)
(0.00373704 1.61096e-07 -5.6533e-07)
(0.00373812 9.29516e-08 -7.58813e-07)
(0.00373958 4.88307e-08 -9.65459e-07)
(0.00374142 3.2925e-08 -1.18192e-06)
(0.00374369 3.05609e-08 -1.4189e-06)
(0.00374642 6.4422e-09 -1.71097e-06)
(0.00374967 -7.0814e-08 -2.08355e-06)
(0.00375349 -2.04266e-07 -2.52195e-06)
(0.00375792 -3.76681e-07 -2.99138e-06)
(0.00376302 -5.718e-07 -3.46401e-06)
(0.00376881 -7.83767e-07 -3.93614e-06)
(0.00377533 -1.00742e-06 -4.42196e-06)
(0.0037826 -1.2232e-06 -4.92421e-06)
(0.00379064 -1.40703e-06 -5.43532e-06)
(0.00379949 -1.55347e-06 -5.96871e-06)
(0.0038092 -1.67433e-06 -6.5563e-06)
(0.00381982 -1.78056e-06 -7.22274e-06)
(0.00383142 -1.86934e-06 -7.96856e-06)
(0.00384406 -1.92496e-06 -8.76541e-06)
(0.0038578 -1.94026e-06 -9.58246e-06)
(0.00387271 -1.93767e-06 -1.04243e-05)
(0.0038889 -1.95632e-06 -1.13264e-05)
(0.00390649 -2.0182e-06 -1.23156e-05)
(0.00392562 -2.1152e-06 -1.3392e-05)
(0.00394643 -2.22775e-06 -1.45497e-05)
(0.00396906 -2.34286e-06 -1.5794e-05)
(0.00399363 -2.45237e-06 -1.71301e-05)
(0.00402028 -2.54493e-06 -1.85543e-05)
(0.00404913 -2.6065e-06 -2.00515e-05)
(0.00408029 -2.63563e-06 -2.16141e-05)
(0.00411392 -2.65884e-06 -2.32704e-05)
(0.00415021 -2.71638e-06 -2.50717e-05)
(0.0041894 -2.83206e-06 -2.70546e-05)
(0.00423174 -3.00399e-06 -2.9232e-05)
(0.00427755 -3.2186e-06 -3.16072e-05)
(0.00432713 -3.46943e-06 -3.41921e-05)
(0.00438082 -3.76031e-06 -3.70097e-05)
(0.00374498 2.21538e-07 -2.55849e-07)
(0.00374574 1.07635e-07 -4.7497e-07)
(0.00374688 1.02477e-08 -7.08599e-07)
(0.00374843 -6.37109e-08 -9.41386e-07)
(0.00375037 -1.11294e-07 -1.17158e-06)
(0.00375275 -1.41897e-07 -1.41994e-06)
(0.0037556 -1.79542e-07 -1.73058e-06)
(0.00375894 -2.46666e-07 -2.12835e-06)
(0.00376283 -3.49846e-07 -2.59708e-06)
(0.00376731 -4.85291e-07 -3.10326e-06)
(0.00377241 -6.47857e-07 -3.62342e-06)
(0.0037782 -8.33085e-07 -4.16285e-06)
(0.0037847 -1.03153e-06 -4.73568e-06)
(0.00379194 -1.22157e-06 -5.32737e-06)
(0.00379996 -1.3808e-06 -5.91807e-06)
(0.0038088 -1.50133e-06 -6.52095e-06)
(0.00381849 -1.58567e-06 -7.16977e-06)
(0.0038291 -1.63669e-06 -7.8894e-06)
(0.00384067 -1.65331e-06 -8.67121e-06)
(0.00385326 -1.63252e-06 -9.47415e-06)
(0.00386692 -1.58341e-06 -1.02754e-05)
(0.00388174 -1.53679e-06 -1.11097e-05)
(0.00389783 -1.52935e-06 -1.20359e-05)
(0.00391531 -1.57803e-06 -1.3078e-05)
(0.00393433 -1.67276e-06 -1.42194e-05)
(0.00395503 -1.79224e-06 -1.54446e-05)
(0.00397753 -1.91799e-06 -1.67552e-05)
(0.00400197 -2.03482e-06 -1.81542e-05)
(0.00402846 -2.12903e-06 -1.96317e-05)
(0.00405713 -2.19082e-06 -2.11625e-05)
(0.00408813 -2.22383e-06 -2.2742e-05)
(0.0041216 -2.25267e-06 -2.44212e-05)
(0.00415775 -2.30929e-06 -2.62697e-05)
(0.00419683 -2.41265e-06 -2.83281e-05)
(0.00423909 -2.56511e-06 -3.06037e-05)
(0.00428482 -2.7603e-06 -3.30883e-05)
(0.00433434 -2.99548e-06 -3.57893e-05)
(0.00438799 -3.27454e-06 -3.87348e-05)
(0.00374597 1.24019e-07 -2.27963e-07)
(0.00374676 -7.35772e-09 -4.64217e-07)
(0.00374794 -1.17609e-07 -7.1181e-07)
(0.00374953 -2.04668e-07 -9.60684e-07)
(0.00375153 -2.65767e-07 -1.21112e-06)
(0.00375396 -3.02801e-07 -1.47893e-06)
(0.00375684 -3.28081e-07 -1.79614e-06)
(0.00376022 -3.5696e-07 -2.1803e-06)
(0.00376412 -4.0089e-07 -2.62517e-06)
(0.00376859 -4.67817e-07 -3.11306e-06)
(0.00377369 -5.59474e-07 -3.63296e-06)
(0.00377946 -6.71603e-07 -4.1971e-06)
(0.00378595 -7.93601e-07 -4.81001e-06)
(0.0037932 -9.06579e-07 -5.44312e-06)
(0.00380123 -9.92893e-07 -6.07269e-06)
(0.00381008 -1.04418e-06 -6.7076e-06)
(0.0038198 -1.05681e-06 -7.37306e-06)
(0.00383042 -1.02943e-06 -8.08484e-06)
(0.003842 -9.64615e-07 -8.82327e-06)
(0.00385458 -8.70541e-07 -9.54998e-06)
(0.00386821 -7.65659e-07 -1.02712e-05)
(0.00388297 -6.78105e-07 -1.10533e-05)
(0.00389899 -6.34127e-07 -1.1968e-05)
(0.00391641 -6.43053e-07 -1.30297e-05)
(0.00393537 -6.94799e-07 -1.42079e-05)
(0.00395602 -7.71126e-07 -1.54769e-05)
(0.00397847 -8.5443e-07 -1.68278e-05)
(0.00400286 -9.29776e-07 -1.82544e-05)
(0.00402931 -9.87533e-07 -1.97377e-05)
(0.00405793 -1.02444e-06 -2.12481e-05)
(0.00408886 -1.04536e-06 -2.27942e-05)
(0.00412227 -1.06509e-06 -2.44462e-05)
(0.00415835 -1.10039e-06 -2.62805e-05)
(0.00419737 -1.16124e-06 -2.83338e-05)
(0.00423957 -1.25195e-06 -3.06082e-05)
(0.00428526 -1.3742e-06 -3.30915e-05)
(0.00433473 -1.53017e-06 -3.57917e-05)
(0.00438832 -1.72532e-06 -3.87407e-05)
(0.00374601 3.54716e-09 -2.79021e-07)
(0.00374682 -1.40957e-07 -5.09645e-07)
(0.00374803 -2.59688e-07 -7.53121e-07)
(0.00374965 -3.52798e-07 -1.01397e-06)
(0.00375168 -4.17541e-07 -1.28712e-06)
(0.00375414 -4.51881e-07 -1.57247e-06)
(0.00375705 -4.60474e-07 -1.88381e-06)
(0.00376044 -4.53303e-07 -2.23403e-06)
(0.00376435 -4.43902e-07 -2.63115e-06)
(0.00376881 -4.44796e-07 -3.07864e-06)
(0.00377389 -4.60926e-07 -3.58329e-06)
(0.00377966 -4.89205e-07 -4.15575e-06)
(0.00378615 -5.19971e-07 -4.78426e-06)
(0.0037934 -5.39123e-07 -5.43436e-06)
(0.00380146 -5.3627e-07 -6.08441e-06)
(0.00381033 -5.06758e-07 -6.73532e-06)
(0.00382008 -4.46914e-07 -7.39948e-06)
(0.00383073 -3.5573e-07 -8.08099e-06)
(0.00384233 -2.38346e-07 -8.75526e-06)
(0.00385491 -1.06576e-07 -9.39982e-06)
(0.00386852 2.18876e-08 -1.0048e-05)
(0.00388324 1.28165e-07 -1.07888e-05)
(0.00389922 1.98668e-07 -1.16934e-05)
(0.00391659 2.31067e-07 -1.27646e-05)
(0.00393552 2.33006e-07 -1.39635e-05)
(0.00395614 2.15322e-07 -1.5257e-05)
(0.00397858 1.88833e-07 -1.66261e-05)
(0.00400296 1.61656e-07 -1.80569e-05)
(0.0040294 1.35901e-07 -1.95267e-05)
(0.00405801 1.10562e-07 -2.10126e-05)
(0.00408892 8.46423e-08 -2.25393e-05)
(0.0041223 5.65509e-08 -2.41825e-05)
(0.00415837 2.52688e-08 -2.60069e-05)
(0.00419736 -1.128e-08 -2.80382e-05)
(0.00423954 -5.93303e-08 -3.02791e-05)
(0.0042852 -1.27135e-07 -3.27269e-05)
(0.00433464 -2.20814e-07 -3.53956e-05)
(0.0043882 -3.46632e-07 -3.83146e-05)
(0.0037459 -1.00691e-07 -3.50482e-07)
(0.00374673 -2.48651e-07 -5.84454e-07)
(0.00374797 -3.686e-07 -8.32279e-07)
(0.00374961 -4.58934e-07 -1.10707e-06)
(0.00375167 -5.17224e-07 -1.39635e-06)
(0.00375417 -5.41553e-07 -1.68894e-06)
(0.00375711 -5.34477e-07 -1.98623e-06)
(0.00376051 -5.03622e-07 -2.29806e-06)
(0.00376442 -4.61057e-07 -2.64601e-06)
(0.00376888 -4.16852e-07 -3.05715e-06)
(0.00377395 -3.73573e-07 -3.55275e-06)
(0.00377971 -3.27493e-07 -4.13311e-06)
(0.00378621 -2.71247e-07 -4.76826e-06)
(0.00379348 -1.98103e-07 -5.42158e-06)
(0.00380155 -1.07606e-07 -6.07425e-06)
(0.00381045 -2.99004e-09 -6.72361e-06)
(0.00382021 1.14072e-07 -7.37494e-06)
(0.00383088 2.41591e-07 -8.02318e-06)
(0.00384249 3.74554e-07 -8.64526e-06)
(0.00385506 5.05273e-07 -9.23536e-06)
(0.00386866 6.26233e-07 -9.84745e-06)
(0.00388336 7.3195e-07 -1.0575e-05)
(0.00389931 8.20234e-07 -1.14787e-05)
(0.00391666 8.92479e-07 -1.2551e-05)
(0.00393557 9.51034e-07 -1.37523e-05)
(0.00395618 9.97252e-07 -1.5047e-05)
(0.00397861 1.032e-06 -1.64101e-05)
(0.00400298 1.05336e-06 -1.78243e-05)
(0.0040294 1.05617e-06 -1.92736e-05)
(0.004058 1.03847e-06 -2.07535e-05)
(0.0040889 1.00553e-06 -2.22984e-05)
(0.00412228 9.66788e-07 -2.39676e-05)
(0.00415835 9.32148e-07 -2.57989e-05)
(0.00419734 9.05147e-07 -2.78081e-05)
(0.00423951 8.79482e-07 -3.00106e-05)
(0.00428515 8.44666e-07 -3.24241e-05)
(0.00433456 7.93165e-07 -3.50726e-05)
(0.0043881 7.19573e-07 -3.79803e-05)
(0.00374576 -1.85584e-07 -3.90881e-07)
(0.00374661 -3.19802e-07 -6.59776e-07)
(0.00374787 -4.28283e-07 -9.33515e-07)
(0.00374955 -5.06376e-07 -1.22161e-06)
(0.00375164 -5.52076e-07 -1.51408e-06)
(0.00375417 -5.65383e-07 -1.80395e-06)
(0.00375713 -5.48802e-07 -2.08856e-06)
(0.00376055 -5.0712e-07 -2.37371e-06)
(0.00376447 -4.46434e-07 -2.69033e-06)
(0.00376894 -3.69916e-07 -3.08591e-06)
(0.00377402 -2.75817e-07 -3.58895e-06)
(0.00377979 -1.61365e-07 -4.18128e-06)
(0.00378631 -2.45122e-08 -4.8131e-06)
(0.0037936 1.31734e-07 -5.44599e-06)
(0.00380168 2.97926e-07 -6.07033e-06)
(0.00381058 4.63013e-07 -6.69295e-06)
(0.00382034 6.19402e-07 -7.32165e-06)
(0.003831 7.62865e-07 -7.94972e-06)
(0.0038426 8.90871e-07 -8.55499e-06)
(0.00385517 1.00361e-06 -9.13657e-06)
(0.00386875 1.10586e-06 -9.75116e-06)
(0.00388345 1.20468e-06 -1.04857e-05)
(0.00389939 1.30603e-06 -1.13882e-05)
(0.00391674 1.41218e-06 -1.24491e-05)
(0.00393564 1.51959e-06 -1.36351e-05)
(0.00395624 1.62084e-06 -1.49124e-05)
(0.00397865 1.70709e-06 -1.6253e-05)
(0.004003 1.768e-06 -1.76406e-05)
(0.0040294 1.79459e-06 -1.90748e-05)
(0.00405797 1.78633e-06 -2.05707e-05)
(0.00408886 1.75274e-06 -2.21595e-05)
(0.00412224 1.70834e-06 -2.3871e-05)
(0.00415832 1.66806e-06 -2.57159e-05)
(0.00419732 1.63961e-06 -2.77087e-05)
(0.00423949 1.6201e-06 -2.98831e-05)
(0.00428512 1.60257e-06 -3.22776e-05)
(0.00433452 1.5822e-06 -3.49262e-05)
(0.00438804 1.55295e-06 -3.78493e-05)
(0.00374648 -3.53768e-07 -7.28282e-07)
(0.00374776 -4.32104e-07 -1.03476e-06)
(0.00374947 -4.86105e-07 -1.3276e-06)
(0.00375159 -5.13435e-07 -1.61205e-06)
(0.00375414 -5.14336e-07 -1.89676e-06)
(0.00375712 -4.90526e-07 -2.18001e-06)
(0.00376057 -4.42709e-07 -2.46286e-06)
(0.0037645 -3.68215e-07 -2.77991e-06)
(0.00376899 -2.60908e-07 -3.18842e-06)
(0.0037741 -1.16422e-07 -3.71221e-06)
(0.0037799 6.32002e-08 -4.31182e-06)
(0.00378643 2.69226e-07 -4.92181e-06)
(0.00379373 4.88716e-07 -5.50785e-06)
(0.00380181 7.06734e-07 -6.07699e-06)
(0.0038107 9.09964e-07 -6.6535e-06)
(0.00382044 1.0887e-06 -7.2561e-06)
(0.00383109 1.23713e-06 -7.88028e-06)
(0.00384267 1.35404e-06 -8.49915e-06)
(0.00385522 1.44678e-06 -9.10366e-06)
(0.0038688 1.53077e-06 -9.743e-06)
(0.00388351 1.62273e-06 -1.04921e-05)
(0.00389947 1.73461e-06 -1.13894e-05)
(0.00391682 1.86871e-06 -1.24301e-05)
(0.00393573 2.01681e-06 -1.35916e-05)
(0.00395632 2.16442e-06 -1.4846e-05)
(0.00397871 2.29504e-06 -1.61658e-05)
(0.00400303 2.39299e-06 -1.75374e-05)
(0.0040294 2.44784e-06 -1.89722e-05)
(0.00405794 2.46084e-06 -2.04945e-05)
(0.00408882 2.4432e-06 -2.21266e-05)
(0.0041222 2.40956e-06 -2.3876e-05)
(0.00415828 2.37584e-06 -2.57395e-05)
(0.00419729 2.35266e-06 -2.77354e-05)
(0.00423947 2.34354e-06 -2.99069e-05)
(0.00428511 2.34993e-06 -3.2303e-05)
(0.00433451 2.37328e-06 -3.4963e-05)
(0.00438804 2.40767e-06 -3.79082e-05)
(0.00374621 -3.59289e-07 -7.91141e-07)
(0.00374752 -3.90504e-07 -1.115e-06)
(0.00374924 -4.12642e-07 -1.3994e-06)
(0.00375137 -4.18677e-07 -1.67043e-06)
(0.00375394 -4.04139e-07 -1.95285e-06)
(0.00375694 -3.66846e-07 -2.2484e-06)
(0.0037604 -3.02622e-07 -2.55473e-06)
(0.00376436 -2.01148e-07 -2.90231e-06)