/*--------------------------------*- C++ -*----------------------------------*\
| =========                 |                                                 |
| \\      /  F ield         | OpenFOAM: The Open Source CFD Toolbox           |
|  \\    /   O peration     | Version:  2.3.1                                 |
|   \\  /    A nd           | Web:      www.OpenFOAM.org                      |
|    \\/     M anipulation  |                                                 |
\*---------------------------------------------------------------------------*/
FoamFile
{
    version     2.0;
    format      ascii;
    class       volVectorField;
    location    "5";
    object      U_0;
}
// * * * * * * * * * * * * * * * * * * * * * * * * * * * * * * * * * * * * * //

dimensions      [0 1 -1 0 0 0 0];

internalField   nonuniform List<vector> 
37692
(
(0.00345273 2.78093e-07 -2.42135e-07)
(0.00345342 2.12875e-07 -2.7727e-07)
(0.00345441 1.51882e-07 -3.19544e-07)
(0.00345573 1.04399e-07 -3.71475e-07)
(0.0034574 7.6153e-08 -4.3332e-07)
(0.00345942 6.02269e-08 -5.06846e-07)
(0.00346185 3.41739e-08 -5.96519e-07)
(0.00346478 -2.31965e-08 -7.06024e-07)
(0.00346831 -1.13848e-07 -8.31945e-07)
(0.00347252 -2.26282e-07 -9.64155e-07)
(0.00347744 -3.49245e-07 -1.09382e-06)
(0.00348309 -4.80672e-07 -1.21934e-06)
(0.00348948 -6.22432e-07 -1.34363e-06)
(0.00349664 -7.65843e-07 -1.4701e-06)
(0.00350457 -8.94649e-07 -1.60226e-06)
(0.00351328 -1.00354e-06 -1.74584e-06)
(0.00352281 -1.10093e-06 -1.90923e-06)
(0.00353323 -1.19641e-06 -2.09955e-06)
(0.00354463 -1.28996e-06 -2.318e-06)
(0.00355708 -1.37059e-06 -2.55846e-06)
(0.00357063 -1.43051e-06 -2.81232e-06)
(0.00358531 -1.48157e-06 -3.0765e-06)
(0.00360122 -1.5478e-06 -3.35616e-06)
(0.00361849 -1.64191e-06 -3.6593e-06)
(0.00363727 -1.75668e-06 -3.99068e-06)
(0.00365773 -1.87943e-06 -4.3514e-06)
(0.00368 -2.00473e-06 -4.74173e-06)
(0.00370422 -2.13144e-06 -5.16185e-06)
(0.00373049 -2.25563e-06 -5.60988e-06)
(0.00375891 -2.3694e-06 -6.08191e-06)
(0.00378957 -2.47083e-06 -6.57574e-06)
(0.00382256 -2.57627e-06 -7.09542e-06)
(0.00385805 -2.71122e-06 -7.65183e-06)
(0.00389628 -2.88948e-06 -8.2568e-06)
(0.00393752 -3.10769e-06 -8.91822e-06)
(0.0039821 -3.35567e-06 -9.64047e-06)
(0.00403032 -3.62944e-06 -1.04284e-05)
(0.00408252 -3.93288e-06 -1.12866e-05)
(0.00355275 4.52593e-07 -1.31048e-07)
(0.00355344 2.99395e-07 -1.8094e-07)
(0.00355447 1.5665e-07 -2.38733e-07)
(0.00355585 4.31213e-08 -3.00739e-07)
(0.00355758 -3.30898e-08 -3.63372e-07)
(0.00355968 -8.33537e-08 -4.31238e-07)
(0.00356218 -1.3785e-07 -5.23926e-07)
(0.00356518 -2.24994e-07 -6.58565e-07)
(0.00356877 -3.52481e-07 -8.27865e-07)
(0.00357303 -5.14214e-07 -1.00957e-06)
(0.00357798 -7.05469e-07 -1.18709e-06)
(0.00358366 -9.282e-07 -1.3593e-06)
(0.00359008 -1.17913e-06 -1.53521e-06)
(0.00359726 -1.43398e-06 -1.71632e-06)
(0.00360523 -1.65983e-06 -1.89582e-06)
(0.00361399 -1.84252e-06 -2.07848e-06)
(0.00362358 -1.98762e-06 -2.28222e-06)
(0.00363405 -2.10256e-06 -2.52169e-06)
(0.00364551 -2.18395e-06 -2.79747e-06)
(0.00365802 -2.22202e-06 -3.09287e-06)
(0.00367162 -2.22546e-06 -3.38766e-06)
(0.00368635 -2.23502e-06 -3.68153e-06)
(0.0037023 -2.29868e-06 -3.99368e-06)
(0.00371961 -2.43374e-06 -4.33886e-06)
(0.00373846 -2.62083e-06 -4.71585e-06)
(0.00375899 -2.8313e-06 -5.11969e-06)
(0.00378134 -3.04741e-06 -5.55277e-06)
(0.00380563 -3.25862e-06 -6.01911e-06)
(0.00383199 -3.45246e-06 -6.51651e-06)
(0.00386051 -3.61577e-06 -7.03544e-06)
(0.00389128 -3.75211e-06 -7.56824e-06)
(0.0039244 -3.89525e-06 -8.1264e-06)
(0.00396005 -4.08923e-06 -8.73617e-06)
(0.00399848 -4.3566e-06 -9.41496e-06)
(0.00403998 -4.69269e-06 -1.01655e-05)
(0.00408485 -5.08168e-06 -1.09849e-05)
(0.0041334 -5.51686e-06 -1.18757e-05)
(0.00418597 -6.00484e-06 -1.2848e-05)
(0.00356308 3.4724e-07 -5.92859e-08)
(0.00356379 1.43368e-07 -1.28181e-07)
(0.00356485 -4.35866e-08 -2.057e-07)
(0.00356628 -2.00139e-07 -2.79749e-07)
(0.00356807 -3.20176e-07 -3.47242e-07)
(0.00357022 -4.0504e-07 -4.1831e-07)
(0.00357278 -4.63397e-07 -5.18544e-07)
(0.00357582 -5.08249e-07 -6.63737e-07)
(0.00357944 -5.56818e-07 -8.43283e-07)
(0.00358369 -6.2962e-07 -1.03568e-06)
(0.00358863 -7.45129e-07 -1.22742e-06)
(0.00359427 -9.10753e-07 -1.42326e-06)
(0.00360067 -1.11311e-06 -1.63428e-06)
(0.00360785 -1.31906e-06 -1.85245e-06)
(0.00361584 -1.49567e-06 -2.06289e-06)
(0.00362463 -1.62316e-06 -2.27086e-06)
(0.00363425 -1.69106e-06 -2.49644e-06)
(0.00364476 -1.69211e-06 -2.75502e-06)
(0.00365626 -1.62192e-06 -3.04271e-06)
(0.00366879 -1.49088e-06 -3.33419e-06)
(0.00368235 -1.34004e-06 -3.61174e-06)
(0.003697 -1.23354e-06 -3.89269e-06)
(0.00371285 -1.21988e-06 -4.21079e-06)
(0.00373008 -1.30527e-06 -4.57862e-06)
(0.00374886 -1.46199e-06 -4.98383e-06)
(0.00376934 -1.65488e-06 -5.41556e-06)
(0.00379165 -1.85548e-06 -5.87575e-06)
(0.00381591 -2.04191e-06 -6.36774e-06)
(0.00384224 -2.19688e-06 -6.88588e-06)
(0.00387074 -2.31249e-06 -7.41369e-06)
(0.00390146 -2.40277e-06 -7.94308e-06)
(0.00393452 -2.50258e-06 -8.49806e-06)
(0.00397009 -2.64393e-06 -9.11622e-06)
(0.00400846 -2.83988e-06 -9.81683e-06)
(0.0040499 -3.08866e-06 -1.05992e-05)
(0.00409473 -3.38333e-06 -1.1454e-05)
(0.00414325 -3.72301e-06 -1.23813e-05)
(0.00419579 -4.11447e-06 -1.33943e-05)
(0.00356454 1.29031e-07 -4.9322e-08)
(0.00356526 -9.5246e-08 -1.25974e-07)
(0.00356635 -2.89242e-07 -2.08757e-07)
(0.00356782 -4.56213e-07 -2.89306e-07)
(0.00356965 -5.89815e-07 -3.66778e-07)
(0.00357185 -6.76512e-07 -4.48668e-07)
(0.00357446 -7.06817e-07 -5.53149e-07)
(0.00357753 -6.88072e-07 -6.89874e-07)
(0.00358115 -6.49029e-07 -8.52816e-07)
(0.00358538 -6.29166e-07 -1.0303e-06)
(0.00359027 -6.56796e-07 -1.21583e-06)
(0.00359588 -7.34691e-07 -1.41846e-06)
(0.00360226 -8.40564e-07 -1.64508e-06)
(0.00360946 -9.43894e-07 -1.87993e-06)
(0.00361747 -1.02019e-06 -2.10581e-06)
(0.00362631 -1.04932e-06 -2.32683e-06)
(0.00363599 -1.01259e-06 -2.55824e-06)
(0.00364658 -8.95918e-07 -2.81044e-06)
(0.00365813 -6.9982e-07 -3.07339e-06)
(0.00367068 -4.52845e-07 -3.32213e-06)
(0.00368421 -2.12149e-07 -3.55495e-06)
(0.00369878 -3.66763e-08 -3.80706e-06)
(0.00371454 4.15017e-08 -4.11838e-06)
(0.00373168 2.63758e-08 -4.49474e-06)
(0.0037504 -5.61132e-08 -4.91538e-06)
(0.00377086 -1.7453e-07 -5.36508e-06)
(0.00379316 -3.00008e-07 -5.84193e-06)
(0.00381743 -4.10561e-07 -6.34497e-06)
(0.00384378 -4.95028e-07 -6.86367e-06)
(0.00387228 -5.57342e-07 -7.37795e-06)
(0.00390299 -6.15819e-07 -7.88562e-06)
(0.00393601 -6.89772e-07 -8.42195e-06)
(0.00397155 -7.85821e-07 -9.02833e-06)
(0.00400987 -9.0155e-07 -9.72132e-06)
(0.00405128 -1.03837e-06 -1.04974e-05)
(0.00409608 -1.20463e-06 -1.13449e-05)
(0.00414455 -1.40983e-06 -1.22635e-05)
(0.00419705 -1.66258e-06 -1.32697e-05)
(0.00356457 -7.96933e-08 -8.10183e-08)
(0.00356533 -3.26035e-07 -1.51317e-07)
(0.00356645 -5.29799e-07 -2.27878e-07)
(0.00356794 -7.00163e-07 -3.12903e-07)
(0.00356982 -8.29885e-07 -4.03172e-07)
(0.00357208 -9.01849e-07 -4.96747e-07)
(0.00357474 -9.02554e-07 -6.00158e-07)
(0.00357786 -8.37619e-07 -7.1902e-07)
(0.00358149 -7.39186e-07 -8.55661e-07)
(0.0035857 -6.51894e-07 -1.0108e-06)
(0.00359055 -6.05043e-07 -1.18758e-06)
(0.00359612 -5.94002e-07 -1.39435e-06)
(0.0036025 -5.91692e-07 -1.62851e-06)
(0.00360971 -5.74572e-07 -1.87036e-06)
(0.00361775 -5.29632e-07 -2.10601e-06)
(0.00362664 -4.45246e-07 -2.3364e-06)
(0.00363638 -3.07391e-07 -2.56951e-06)
(0.00364704 -1.06162e-07 -2.80935e-06)
(0.00365865 1.51716e-07 -3.04123e-06)
(0.0036712 4.32524e-07 -3.24764e-06)
(0.00368469 6.85998e-07 -3.44261e-06)
(0.00369918 8.74911e-07 -3.67497e-06)
(0.00371485 9.8937e-07 -3.98311e-06)
(0.00373193 1.04044e-06 -4.36518e-06)
(0.00375061 1.04589e-06 -4.79602e-06)
(0.00377104 1.02472e-06 -5.25783e-06)
(0.00379335 9.95485e-07 -5.74409e-06)
(0.00381763 9.6953e-07 -6.24963e-06)
(0.00384398 9.43249e-07 -6.76182e-06)
(0.00387248 9.00298e-07 -7.26355e-06)
(0.00390317 8.28174e-07 -7.76181e-06)
(0.00393617 7.35464e-07 -8.29606e-06)
(0.0039717 6.46595e-07 -8.90048e-06)
(0.00401002 5.7672e-07 -9.58505e-06)
(0.00405142 5.15886e-07 -1.03462e-05)
(0.00409619 4.38052e-07 -1.11774e-05)
(0.00414463 3.23038e-07 -1.20815e-05)
(0.00419709 1.62649e-07 -1.30736e-05)
(0.00356435 -2.0794e-07 -1.22176e-07)
(0.00356516 -4.80417e-07 -1.88954e-07)
(0.00356632 -6.99204e-07 -2.63693e-07)
(0.00356785 -8.6381e-07 -3.55089e-07)
(0.00356977 -9.71579e-07 -4.54688e-07)
(0.0035721 -1.01752e-06 -5.53642e-07)
(0.00357483 -9.96619e-07 -6.50976e-07)
(0.00357799 -9.14796e-07 -7.49986e-07)
(0.00358163 -7.99384e-07 -8.6056e-07)
(0.00358582 -6.87541e-07 -9.96416e-07)
(0.00359064 -5.978e-07 -1.1693e-06)
(0.00359621 -5.14409e-07 -1.38217e-06)
(0.00360259 -4.08289e-07 -1.62086e-06)
(0.00360983 -2.65738e-07 -1.86482e-06)
(0.00361791 -9.05812e-08 -2.10355e-06)
(0.00362682 1.09172e-07 -2.33568e-06)
(0.00363661 3.30239e-07 -2.56451e-06)
(0.0036473 5.71271e-07 -2.78873e-06)
(0.00365892 8.23262e-07 -2.99461e-06)
(0.00367146 1.0645e-06 -3.1741e-06)
(0.00368491 1.27305e-06 -3.35342e-06)
(0.00369936 1.44122e-06 -3.58248e-06)
(0.00371498 1.57788e-06 -3.89263e-06)
(0.00373203 1.69361e-06 -4.27616e-06)
(0.00375068 1.79188e-06 -4.70816e-06)
(0.00377111 1.87464e-06 -5.17068e-06)
(0.0037934 1.94541e-06 -5.65354e-06)
(0.00381767 2.00047e-06 -6.14945e-06)
(0.003844 2.02114e-06 -6.64966e-06)
(0.00387245 1.98538e-06 -7.1474e-06)
(0.00390311 1.89475e-06 -7.65657e-06)
(0.00393612 1.78457e-06 -8.20789e-06)
(0.00397167 1.69946e-06 -8.81949e-06)
(0.00401002 1.65768e-06 -9.49465e-06)
(0.00405142 1.64168e-06 -1.02365e-05)
(0.00409617 1.61644e-06 -1.10507e-05)
(0.00414457 1.55625e-06 -1.19466e-05)
(0.00419699 1.45365e-06 -1.29336e-05)
(0.00356408 -2.81598e-07 -1.41601e-07)
(0.00356493 -5.6138e-07 -2.23846e-07)
(0.00356614 -7.77228e-07 -3.10812e-07)
(0.00356774 -9.19029e-07 -4.08605e-07)
(0.00356972 -9.95152e-07 -5.09174e-07)
(0.00357209 -1.01829e-06 -6.06554e-07)
(0.00357488 -9.9349e-07 -6.9767e-07)
(0.00357808 -9.24339e-07 -7.82542e-07)
(0.00358174 -8.25465e-07 -8.75529e-07)
(0.00358592 -7.16345e-07 -1.00243e-06)
(0.00359074 -5.9773e-07 -1.18063e-06)
(0.00359633 -4.46262e-07 -1.40251e-06)
(0.00360276 -2.38526e-07 -1.64165e-06)
(0.00361003 2.50833e-08 -1.8767e-06)
(0.00361813 3.21188e-07 -2.10215e-06)
(0.00362706 6.19831e-07 -2.32174e-06)
(0.00363684 8.98931e-07 -2.5407e-06)
(0.00364752 1.14807e-06 -2.75659e-06)
(0.00365913 1.36285e-06 -2.95515e-06)
(0.00367164 1.54259e-06 -3.13183e-06)
(0.00368506 1.69493e-06 -3.31436e-06)
(0.00369949 1.83862e-06 -3.54844e-06)
(0.00371511 1.99363e-06 -3.85851e-06)
(0.00373216 2.16483e-06 -4.23585e-06)
(0.00375081 2.3407e-06 -4.66026e-06)
(0.00377122 2.50675e-06 -5.1149e-06)
(0.00379349 2.65185e-06 -5.58625e-06)
(0.00381773 2.76124e-06 -6.06683e-06)
(0.003844 2.81178e-06 -6.55647e-06)
(0.00387239 2.78702e-06 -7.06096e-06)
(0.00390302 2.70084e-06 -7.5944e-06)
(0.00393603 2.59737e-06 -8.17023e-06)
(0.00397162 2.5213e-06 -8.78973e-06)
(0.00401 2.48927e-06 -9.45479e-06)
(0.00405142 2.48755e-06 -1.01797e-05)
(0.00409614 2.48825e-06 -1.09833e-05)
(0.00414451 2.47008e-06 -1.18795e-05)
(0.0041969 2.42136e-06 -1.2876e-05)
(0.00356467 -5.92025e-07 -2.55349e-07)
(0.00356596 -7.63741e-07 -3.59542e-07)
(0.00356762 -8.58594e-07 -4.5826e-07)
(0.00356965 -8.96653e-07 -5.52225e-07)
(0.00357206 -9.01367e-07 -6.45683e-07)
(0.00357488 -8.83144e-07 -7.35776e-07)
(0.00357811 -8.41323e-07 -8.18501e-07)
(0.00358179 -7.73086e-07 -9.09931e-07)
(0.00358599 -6.72315e-07 -1.04287e-06)
(0.00359085 -5.22639e-07 -1.23386e-06)
(0.0035965 -3.02933e-07 -1.46325e-06)
(0.00360298 -6.18328e-09 -1.69366e-06)
(0.0036103 3.49191e-07 -1.90534e-06)
(0.0036184 7.26228e-07 -2.10243e-06)
(0.00362731 1.08556e-06 -2.29879e-06)
(0.00363705 1.39729e-06 -2.50602e-06)
(0.00364768 1.64504e-06 -2.72197e-06)
(0.00365924 1.8269e-06 -2.92956e-06)
(0.00367172 1.95624e-06 -3.11945e-06)
(0.00368514 2.06186e-06 -3.3147e-06)
(0.00369959 2.18191e-06 -3.55528e-06)
(0.00371524 2.34563e-06 -3.86096e-06)
(0.0037323 2.5549e-06 -4.22643e-06)
(0.00375095 2.78763e-06 -4.63866e-06)
(0.00377135 3.0149e-06 -5.08308e-06)
(0.00379359 3.21223e-06 -5.54457e-06)
(0.00381778 3.36003e-06 -6.01588e-06)
(0.00384399 3.4417e-06 -6.50335e-06)
(0.00387232 3.45184e-06 -7.01971e-06)
(0.00390291 3.40697e-06 -7.57499e-06)
(0.00393592 3.34085e-06 -8.16919e-06)
(0.00397154 3.28659e-06 -8.79511e-06)
(0.00400996 3.26279e-06 -9.45753e-06)
(0.00405139 3.27251e-06 -1.01779e-05)
(0.00409612 3.30759e-06 -1.09805e-05)
(0.00414448 3.35773e-06 -1.18809e-05)
(0.00419684 3.40495e-06 -1.28876e-05)
(0.00356425 -5.88082e-07 -2.86692e-07)
(0.0035656 -6.7888e-07 -3.99271e-07)
(0.00356732 -7.13405e-07 -4.91047e-07)
(0.00356938 -7.13269e-07 -5.75294e-07)
(0.0035718 -6.98825e-07 -6.66212e-07)
(0.00357463 -6.78592e-07 -7.62121e-07)
(0.00357788 -6.46977e-07 -8.5641e-07)
(0.00358158 -5.8504e-07 -9.63574e-07)
(0.00358583 -4.65118e-07 -1.11435e-06)
(0.00359077 -2.63384e-07 -1.31789e-06)
(0.00359649 2.51844e-08 -1.54417e-06)
(0.00360304 3.81532e-07 -1.75513e-06)
(0.00361038 7.73139e-07 -1.93748e-06)
(0.00361849 1.16703e-06 -2.10391e-06)
(0.00362735 1.53432e-06 -2.27574e-06)
(0.00363703 1.8507e-06 -2.46964e-06)
(0.0036476 2.09681e-06 -2.68574e-06)
(0.0036591 2.2643e-06 -2.90468e-06)
(0.00367155 2.36625e-06 -3.11229e-06)
(0.00368496 2.44132e-06 -3.32611e-06)
(0.00369945 2.54148e-06 -3.5778e-06)
(0.00371515 2.70479e-06 -3.88166e-06)
(0.00373225 2.93559e-06 -4.23537e-06)
(0.00375092 3.20768e-06 -4.63332e-06)
(0.0037713 3.48182e-06 -5.0672e-06)
(0.00379351 3.72325e-06 -5.52428e-06)
(0.00381764 3.91009e-06 -5.99674e-06)
(0.00384379 4.03347e-06 -6.49017e-06)
(0.00387207 4.09699e-06 -7.01652e-06)
(0.00390263 4.11404e-06 -7.58414e-06)
(0.00393564 4.1031e-06 -8.19097e-06)
(0.00397127 4.08567e-06 -8.82986e-06)
(0.00400972 4.08474e-06 -9.50611e-06)
(0.00405118 4.12232e-06 -1.02384e-05)
(0.00409595 4.21157e-06 -1.10485e-05)
(0.00414433 4.35426e-06 -1.1953e-05)
(0.00419669 4.53448e-06 -1.29608e-05)
(0.00356251 -5.49572e-07 -3.13593e-07)
(0.0035639 -5.45546e-07 -4.23199e-07)
(0.00356564 -5.20437e-07 -5.03557e-07)
(0.00356771 -4.84475e-07 -5.78932e-07)
(0.00357013 -4.44602e-07 -6.68934e-07)
(0.00357296 -4.03122e-07 -7.74165e-07)
(0.00357622 -3.5096e-07 -8.87747e-07)
(0.00357996 -2.59407e-07 -1.01806e-06)
(0.00358428 -9.21148e-08 -1.18408e-06)
(0.00358929 1.68619e-07 -1.38546e-06)
(0.00359508 5.04515e-07 -1.59349e-06)
(0.00360167 8.74762e-07 -1.77852e-06)
(0.00360902 1.24493e-06 -1.93464e-06)
(0.00361712 1.59864e-06 -2.07669e-06)
(0.00362595 1.92852e-06 -2.22536e-06)
(0.00363559 2.22338e-06 -2.39879e-06)
(0.00364609 2.46326e-06 -2.60219e-06)
(0.00365753 2.62885e-06 -2.82132e-06)
(0.00366994 2.72475e-06 -3.04491e-06)
(0.00368336 2.79168e-06 -3.2856e-06)
(0.00369788 2.88789e-06 -3.56031e-06)
(0.00371366 3.05517e-06 -3.87109e-06)
(0.00373082 3.30079e-06 -4.21557e-06)
(0.00374952 3.60116e-06 -4.59608e-06)
(0.0037699 3.91624e-06 -5.0148e-06)
(0.00379207 4.2077e-06 -5.46536e-06)
(0.00381617 4.45082e-06 -5.93953e-06)
(0.00384228 4.63774e-06 -6.4378e-06)
(0.00387053 4.77553e-06 -6.96828e-06)
(0.00390107 4.87589e-06 -7.5422e-06)
(0.00393407 4.94977e-06 -8.16245e-06)
(0.00396971 5.01258e-06 -8.82387e-06)
(0.00400819 5.08828e-06 -9.52769e-06)
(0.00404971 5.20757e-06 -1.02822e-05)
(0.00409453 5.39621e-06 -1.1103e-05)
(0.00414297 5.66666e-06 -1.20079e-05)
(0.00419536 6.01527e-06 -1.30077e-05)
(0.00355192 -4.64981e-07 -3.52492e-07)
(0.00355334 -3.8615e-07 -4.40892e-07)
(0.00355508 -3.28395e-07 -5.04805e-07)
(0.00355714 -2.75695e-07 -5.69398e-07)
(0.00355954 -2.13549e-07 -6.52346e-07)
(0.00356234 -1.35329e-07 -7.56085e-07)
(0.0035656 -3.43993e-08 -8.75095e-07)
(0.00356937 1.09395e-07 -1.01057e-06)
(0.00357375 3.21584e-07 -1.16669e-06)
(0.00357881 6.04004e-07 -1.3377e-06)
(0.00358464 9.24605e-07 -1.50653e-06)
(0.00359125 1.24003e-06 -1.65941e-06)
(0.00359862 1.52317e-06 -1.79542e-06)
(0.00360673 1.77013e-06 -1.92256e-06)
(0.00361557 1.99059e-06 -2.05317e-06)
(0.00362519 2.19285e-06 -2.20301e-06)
(0.00363566 2.37019e-06 -2.38266e-06)
(0.00364704 2.50589e-06 -2.58979e-06)
(0.00365941 2.60089e-06 -2.82109e-06)
(0.00367284 2.68757e-06 -3.08061e-06)
(0.00368742 2.8078e-06 -3.36791e-06)
(0.00370327 2.98578e-06 -3.67522e-06)
(0.00372052 3.22382e-06 -3.99933e-06)
(0.00373927 3.50903e-06 -4.34841e-06)
(0.00375967 3.81653e-06 -4.73307e-06)
(0.00378185 4.11616e-06 -5.15356e-06)
(0.00380595 4.38297e-06 -5.60491e-06)
(0.00383206 4.60667e-06 -6.08524e-06)
(0.00386032 4.79622e-06 -6.5993e-06)
(0.00389086 4.96898e-06 -7.15955e-06)
(0.00392388 5.13709e-06 -7.7713e-06)
(0.00395956 5.30803e-06 -8.43055e-06)
(0.00399808 5.49252e-06 -9.13393e-06)
(0.00403968 5.70951e-06 -9.88084e-06)
(0.00408458 5.98413e-06 -1.06814e-05)
(0.00413308 6.33975e-06 -1.15516e-05)
(0.00418552 6.79205e-06 -1.2504e-05)
(0.00345169 -2.37032e-07 -4.12237e-07)
(0.00345312 -1.7532e-07 -4.69229e-07)
(0.00345487 -1.3733e-07 -5.18101e-07)
(0.00345691 -1.0498e-07 -5.7164e-07)
(0.00345928 -6.34592e-08 -6.38018e-07)
(0.00346204 -6.98268e-09 -7.18766e-07)
(0.00346525 6.56967e-08 -8.11408e-07)
(0.00346899 1.60294e-07 -9.13405e-07)
(0.00347334 2.8593e-07 -1.02473e-06)
(0.00347839 4.38597e-07 -1.1426e-06)
(0.0034842 5.98828e-07 -1.26198e-06)
(0.0034908 7.45341e-07 -1.37957e-06)
(0.00349815 8.67188e-07 -1.49597e-06)
(0.00350624 9.65003e-07 -1.61435e-06)
(0.00351506 1.04723e-06 -1.7396e-06)
(0.00352464 1.12448e-06 -1.87922e-06)
(0.00353505 1.19932e-06 -2.04121e-06)
(0.00354636 1.26542e-06 -2.23018e-06)
(0.00355865 1.32286e-06 -2.44721e-06)
(0.00357202 1.38582e-06 -2.6893e-06)
(0.00358655 1.46963e-06 -2.9494e-06)
(0.00360236 1.5785e-06 -3.22114e-06)
(0.00361955 1.70982e-06 -3.5041e-06)
(0.00363823 1.86122e-06 -3.80615e-06)
(0.00365854 2.02671e-06 -4.13712e-06)
(0.00368063 2.19391e-06 -4.50109e-06)
(0.00370461 2.35019e-06 -4.89857e-06)
(0.0037306 2.48908e-06 -5.32907e-06)
(0.00375872 2.61575e-06 -5.79464e-06)
(0.00378912 2.74281e-06 -6.30156e-06)
(0.00382197 2.87771e-06 -6.8523e-06)
(0.00385746 3.02158e-06 -7.44582e-06)
(0.00389578 3.17432e-06 -8.08089e-06)
(0.00393713 3.3396e-06 -8.75768e-06)
(0.00398176 3.529e-06 -9.48269e-06)
(0.00402995 3.75764e-06 -1.02653e-05)
(0.00408204 4.04031e-06 -1.11134e-05)
(0.0036312 1.40107e-07 -6.08429e-07)
(0.00363186 1.0348e-07 -7.36763e-07)
(0.00363285 7.27018e-08 -8.84457e-07)
(0.00363418 5.62345e-08 -1.05819e-06)
(0.00363587 5.93122e-08 -1.26027e-06)
(0.00363794 7.25291e-08 -1.49412e-06)
(0.00364045 7.0153e-08 -1.7681e-06)
(0.00364348 3.03543e-08 -2.08789e-06)
(0.00364711 -4.71164e-08 -2.44334e-06)
(0.00365141 -1.47446e-07 -2.81235e-06)
(0.00365641 -2.56463e-07 -3.17911e-06)
(0.00366215 -3.71891e-07 -3.54072e-06)
(0.00366864 -4.95291e-07 -3.90365e-06)
(0.00367589 -6.1606e-07 -4.27662e-06)
(0.00368392 -7.18019e-07 -4.66931e-06)
(0.00369275 -7.98213e-07 -5.09705e-06)
(0.00370241 -8.67194e-07 -5.57941e-06)
(0.00371298 -9.35846e-07 -6.13123e-06)
(0.00372455 -1.00344e-06 -6.75495e-06)
(0.00373717 -1.05551e-06 -7.43841e-06)
(0.00375091 -1.08027e-06 -8.16536e-06)
(0.00376581 -1.08796e-06 -8.93218e-06)
(0.00378196 -1.10354e-06 -9.75207e-06)
(0.0037995 -1.14086e-06 -1.0643e-05)
(0.00381858 -1.19348e-06 -1.16161e-05)
(0.00383935 -1.24981e-06 -1.26747e-05)
(0.00386196 -1.30508e-06 -1.38198e-05)
(0.00388653 -1.35843e-06 -1.50507e-05)
(0.0039132 -1.40547e-06 -1.63624e-05)
(0.00394205 -1.43605e-06 -1.77473e-05)
(0.00397318 -1.44617e-06 -1.92024e-05)
(0.00400671 -1.45156e-06 -2.07402e-05)
(0.00404281 -1.4781e-06 -2.23881e-05)
(0.00408172 -1.54066e-06 -2.41753e-05)
(0.00412371 -1.63606e-06 -2.61245e-05)
(0.00416909 -1.75301e-06 -2.82508e-05)
(0.00421819 -1.88598e-06 -3.05686e-05)
(0.00427135 -2.03731e-06 -3.30942e-05)
(0.00373633 2.44046e-07 -3.88317e-07)
(0.00373704 1.61554e-07 -5.64783e-07)
(0.00373812 9.33834e-08 -7.58234e-07)
(0.00373957 4.92499e-08 -9.64821e-07)
(0.00374142 3.33754e-08 -1.18117e-06)
(0.00374369 3.10933e-08 -1.41797e-06)
(0.00374642 7.08684e-09 -1.70984e-06)
(0.00374966 -7.00599e-08 -2.08224e-06)
(0.00375348 -2.03425e-07 -2.52048e-06)
(0.00375791 -3.75781e-07 -2.98976e-06)
(0.003763 -5.70865e-07 -3.46225e-06)
(0.00376879 -7.82807e-07 -3.93419e-06)
(0.00377531 -1.00643e-06 -4.41979e-06)
(0.00378257 -1.22216e-06 -4.92177e-06)
(0.00379061 -1.40593e-06 -5.43258e-06)
(0.00379946 -1.55228e-06 -5.96569e-06)
(0.00380916 -1.67305e-06 -6.55301e-06)
(0.00381978 -1.77915e-06 -7.21922e-06)
(0.00383137 -1.86779e-06 -7.96477e-06)
(0.003844 -1.92323e-06 -8.76132e-06)
(0.00385773 -1.93839e-06 -9.57801e-06)
(0.00387264 -1.93568e-06 -1.04195e-05)
(0.00388882 -1.95426e-06 -1.13211e-05)
(0.0039064 -2.0161e-06 -1.23098e-05)
(0.00392552 -2.11308e-06 -1.33856e-05)
(0.00394632 -2.22558e-06 -1.45428e-05)
(0.00396894 -2.34063e-06 -1.57865e-05)
(0.0039935 -2.45003e-06 -1.7122e-05)
(0.00402014 -2.54246e-06 -1.85455e-05)
(0.00404897 -2.60388e-06 -2.0042e-05)
(0.00408011 -2.63284e-06 -2.16037e-05)
(0.00411373 -2.6559e-06 -2.32591e-05)
(0.00415 -2.7133e-06 -2.50595e-05)
(0.00418917 -2.82885e-06 -2.70414e-05)
(0.0042315 -3.00063e-06 -2.92178e-05)
(0.00427728 -3.21505e-06 -3.15919e-05)
(0.00432683 -3.46562e-06 -3.41756e-05)
(0.00438051 -3.75617e-06 -3.69919e-05)
(0.00374498 2.22166e-07 -2.55193e-07)
(0.00374573 1.08271e-07 -4.743e-07)
(0.00374688 1.08631e-08 -7.07917e-07)
(0.00374842 -6.31077e-08 -9.40654e-07)
(0.00375036 -1.10668e-07 -1.17072e-06)
(0.00375274 -1.41202e-07 -1.41888e-06)
(0.00375558 -1.78749e-07 -1.72928e-06)
(0.00375893 -2.45774e-07 -2.12683e-06)
(0.00376281 -3.4887e-07 -2.59538e-06)
(0.00376729 -4.84262e-07 -3.1014e-06)
(0.00377239 -6.46806e-07 -3.6214e-06)
(0.00377817 -8.3203e-07 -4.16063e-06)
(0.00378467 -1.03047e-06 -4.7332e-06)
(0.00379191 -1.2205e-06 -5.32458e-06)
(0.00379993 -1.37969e-06 -5.91493e-06)
(0.00380876 -1.50016e-06 -6.51748e-06)
(0.00381845 -1.58439e-06 -7.166e-06)
(0.00382905 -1.63526e-06 -7.88532e-06)
(0.00384062 -1.65169e-06 -8.66679e-06)
(0.0038532 -1.63067e-06 -9.46933e-06)
(0.00386685 -1.58136e-06 -1.02702e-05)
(0.00388166 -1.5346e-06 -1.1104e-05)
(0.00389774 -1.5271e-06 -1.20297e-05)
(0.00391522 -1.57578e-06 -1.30713e-05)
(0.00393423 -1.67054e-06 -1.42122e-05)
(0.00395491 -1.79005e-06 -1.54367e-05)
(0.0039774 -1.91579e-06 -1.67468e-05)
(0.00400183 -2.03256e-06 -1.81452e-05)
(0.00402831 -2.12667e-06 -1.96219e-05)
(0.00405697 -2.18835e-06 -2.11518e-05)
(0.00408795 -2.22125e-06 -2.27304e-05)
(0.0041214 -2.25e-06 -2.44086e-05)
(0.00415754 -2.30655e-06 -2.62561e-05)
(0.0041966 -2.40985e-06 -2.83133e-05)
(0.00423884 -2.56221e-06 -3.05878e-05)
(0.00428455 -2.75726e-06 -3.30712e-05)
(0.00433405 -2.99223e-06 -3.57709e-05)
(0.00438767 -3.27099e-06 -3.87149e-05)
(0.00374596 1.24705e-07 -2.2717e-07)
(0.00374675 -6.63603e-09 -4.63427e-07)
(0.00374793 -1.16876e-07 -7.11038e-07)
(0.00374952 -2.03935e-07 -9.59875e-07)
(0.00375152 -2.6502e-07 -1.21019e-06)
(0.00375394 -3.02019e-07 -1.47781e-06)
(0.00375683 -3.27247e-07 -1.79478e-06)
(0.0037602 -3.56071e-07 -2.17873e-06)
(0.0037641 -3.99955e-07 -2.6234e-06)
(0.00376857 -4.6686e-07 -3.11113e-06)
(0.00377367 -5.58528e-07 -3.63086e-06)
(0.00377943 -6.70697e-07 -4.1948e-06)
(0.00378592 -7.92751e-07 -4.80746e-06)
(0.00379317 -9.05782e-07 -5.44028e-06)
(0.00380119 -9.92125e-07 -6.06952e-06)
(0.00381004 -1.0434e-06 -6.7041e-06)
(0.00381975 -1.05595e-06 -7.36923e-06)
(0.00383037 -1.02843e-06 -8.08064e-06)
(0.00384194 -9.63411e-07 -8.81862e-06)
(0.00385451 -8.69105e-07 -9.5448e-06)
(0.00386814 -7.64016e-07 -1.02654e-05)
(0.00388289 -6.76324e-07 -1.10471e-05)
(0.00389891 -6.32305e-07 -1.19612e-05)
(0.00391632 -6.41278e-07 -1.30225e-05)
(0.00393527 -6.93115e-07 -1.42003e-05)
(0.0039559 -7.69531e-07 -1.54688e-05)
(0.00397835 -8.52889e-07 -1.68192e-05)
(0.00400273 -9.28244e-07 -1.82452e-05)
(0.00402916 -9.85983e-07 -1.97277e-05)
(0.00405777 -1.02288e-06 -2.12373e-05)
(0.00408868 -1.0438e-06 -2.27824e-05)
(0.00412207 -1.06357e-06 -2.44334e-05)
(0.00415814 -1.09891e-06 -2.62667e-05)
(0.00419714 -1.1598e-06 -2.83189e-05)
(0.00423932 -1.25052e-06 -3.05921e-05)
(0.00428498 -1.37274e-06 -3.30742e-05)
(0.00433443 -1.52861e-06 -3.57731e-05)
(0.004388 -1.72356e-06 -3.87206e-05)
(0.00374601 4.19498e-09 -2.7813e-07)
(0.00374681 -1.4025e-07 -5.08752e-07)
(0.00374802 -2.58939e-07 -7.52237e-07)
(0.00374964 -3.52026e-07 -1.01308e-06)
(0.00375167 -4.16753e-07 -1.28613e-06)
(0.00375413 -4.51079e-07 -1.5713e-06)
(0.00375704 -4.59657e-07 -1.88242e-06)
(0.00376043 -4.52471e-07 -2.23241e-06)
(0.00376433 -4.43064e-07 -2.62933e-06)
(0.00376879 -4.43976e-07 -3.07663e-06)
(0.00377387 -4.60157e-07 -3.58111e-06)
(0.00377963 -4.88522e-07 -4.15339e-06)
(0.00378612 -5.19399e-07 -4.7817e-06)
(0.00379337 -5.38664e-07 -5.43158e-06)
(0.00380142 -5.35901e-07 -6.08137e-06)
(0.00381029 -5.06429e-07 -6.73199e-06)
(0.00382003 -4.46563e-07 -7.39581e-06)
(0.00383068 -3.55291e-07 -8.07691e-06)
(0.00384227 -2.37765e-07 -8.75065e-06)
(0.00385484 -1.0583e-07 -9.39459e-06)
(0.00386844 2.27765e-08 -1.00421e-05)
(0.00388316 1.29142e-07 -1.07823e-05)
(0.00389913 1.99658e-07 -1.16864e-05)
(0.00391649 2.32005e-07 -1.27572e-05)
(0.00393541 2.33856e-07 -1.39558e-05)
(0.00395602 2.1608e-07 -1.5249e-05)
(0.00397845 1.8952e-07 -1.66177e-05)
(0.00400282 1.62294e-07 -1.80478e-05)
(0.00402925 1.36492e-07 -1.95168e-05)
(0.00405784 1.1108e-07 -2.10018e-05)
(0.00408874 8.50486e-08 -2.25276e-05)
(0.00412211 5.68114e-08 -2.417e-05)
(0.00415816 2.53781e-08 -2.59934e-05)
(0.00419713 -1.13058e-08 -2.80237e-05)
(0.00423929 -5.94609e-08 -3.02634e-05)
(0.00428492 -1.27329e-07 -3.27101e-05)
(0.00433434 -2.21019e-07 -3.53775e-05)
(0.00438787 -3.46763e-07 -3.82952e-05)
(0.00374589 -1.00146e-07 -3.49554e-07)
(0.00374672 -2.48032e-07 -5.83496e-07)
(0.00374796 -3.67917e-07 -8.31323e-07)
(0.0037496 -4.58203e-07 -1.10609e-06)
(0.00375166 -5.16466e-07 -1.39527e-06)
(0.00375416 -5.40788e-07 -1.6877e-06)
(0.00375709 -5.33723e-07 -1.98477e-06)
(0.00376049 -5.02893e-07 -2.29637e-06)
(0.0037644 -4.60372e-07 -2.6441e-06)
(0.00376885 -4.16233e-07 -3.05502e-06)
(0.00377393 -3.73046e-07 -3.55043e-06)
(0.00377968 -3.27087e-07 -4.13064e-06)
(0.00378618 -2.70976e-07 -4.76565e-06)
(0.00379345 -1.97966e-07 -5.41883e-06)
(0.00380151 -1.07579e-07 -6.07131e-06)
(0.00381041 -3.03353e-09 -6.72042e-06)
(0.00382016 1.13999e-07 -7.37143e-06)
(0.00383083 2.41525e-07 -8.01925e-06)
(0.00384243 3.7452e-07 -8.64077e-06)
(0.003855 5.05276e-07 -9.23021e-06)
(0.00386858 6.26265e-07 -9.84159e-06)
(0.00388328 7.31992e-07 -1.05685e-05)
(0.00389922 8.20266e-07 -1.14717e-05)
(0.00391656 8.92484e-07 -1.25437e-05)
(0.00393546 9.51001e-07 -1.37447e-05)
(0.00395606 9.97176e-07 -1.50391e-05)
(0.00397848 1.03188e-06 -1.64018e-05)
(0.00400284 1.05318e-06 -1.78153e-05)
(0.00402925 1.05589e-06 -1.92638e-05)
(0.00405783 1.03806e-06 -2.07429e-05)
(0.00408872 1.00494e-06 -2.22869e-05)
(0.00412209 9.66002e-07 -2.39553e-05)
(0.00415814 9.31156e-07 -2.57858e-05)
(0.00419711 9.03971e-07 -2.7794e-05)
(0.00423926 8.78152e-07 -2.99954e-05)
(0.00428487 8.43218e-07 -3.24078e-05)
(0.00433426 7.91637e-07 -3.50551e-05)
(0.00438778 7.1802e-07 -3.79615e-05)
(0.00374575 -1.85181e-07 -3.89961e-07)
(0.0037466 -3.19327e-07 -6.5878e-07)
(0.00374787 -4.27727e-07 -9.32485e-07)
(0.00374954 -5.05754e-07 -1.22054e-06)
(0.00375163 -5.51418e-07 -1.51291e-06)
(0.00375415 -5.64726e-07 -1.80261e-06)
(0.00375712 -5.48181e-07 -2.08701e-06)
(0.00376054 -5.06568e-07 -2.37192e-06)
(0.00376445 -4.45979e-07 -2.68831e-06)
(0.00376891 -3.69575e-07 -3.08366e-06)
(0.003774 -2.75606e-07 -3.58652e-06)
(0.00377977 -1.61289e-07 -4.17871e-06)
(0.00378628 -2.45657e-08 -4.81043e-06)
(0.00379356 1.31566e-07 -5.44322e-06)
(0.00380164 2.97666e-07 -6.06742e-06)
(0.00381053 4.62678e-07 -6.68983e-06)
(0.00382029 6.18997e-07 -7.31822e-06)
(0.00383095 7.62383e-07 -7.94587e-06)
(0.00384254 8.90297e-07 -8.55059e-06)
(0.0038551 1.00293e-06 -9.13152e-06)
(0.00386868 1.10509e-06 -9.74541e-06)
(0.00388337 1.20384e-06 -1.04793e-05)
(0.00389931 1.30515e-06 -1.13813e-05)
(0.00391664 1.4113e-06 -1.24419e-05)
(0.00393553 1.51874e-06 -1.36276e-05)
(0.00395612 1.62e-06 -1.49046e-05)
(0.00397853 1.70623e-06 -1.62447e-05)
(0.00400286 1.76708e-06 -1.76317e-05)
(0.00402925 1.79354e-06 -1.9065e-05)
(0.00405781 1.78511e-06 -2.056e-05)
(0.00408868 1.75132e-06 -2.21481e-05)
(0.00412205 1.7067e-06 -2.38588e-05)
(0.0041581 1.66622e-06 -2.57029e-05)
(0.00419708 1.63758e-06 -2.76947e-05)
(0.00423924 1.6179e-06 -2.98681e-05)
(0.00428484 1.60024e-06 -3.22615e-05)
(0.00433422 1.57975e-06 -3.49089e-05)
(0.00438772 1.55039e-06 -3.78307e-05)
(0.00374647 -3.53477e-07 -7.27273e-07)
(0.00374776 -4.31736e-07 -1.03367e-06)
(0.00374946 -4.85666e-07 -1.32644e-06)
(0.00375158 -5.12958e-07 -1.61078e-06)
(0.00375412 -5.1387e-07 -1.89532e-06)
(0.00375711 -4.90126e-07 -2.17835e-06)
(0.00376055 -4.42419e-07 -2.46097e-06)
(0.00376448 -3.68065e-07 -2.7778e-06)
(0.00376897 -2.60916e-07 -3.1861e-06)
(0.00377407 -1.16583e-07 -3.70973e-06)
(0.00377987 6.29059e-08 -4.30923e-06)
(0.0037864 2.68827e-07 -4.91912e-06)
(0.0037937 4.88237e-07 -5.50506e-06)
(0.00380177 7.06186e-07 -6.07405e-06)
(0.00381066 9.09338e-07 -6.65032e-06)
(0.0038204 1.08797e-06 -7.2526e-06)
(0.00383104 1.23625e-06 -7.87638e-06)
(0.00384261 1.35296e-06 -8.49474e-06)
(0.00385516 1.44548e-06 -9.09866e-06)
(0.00386873 1.52928e-06 -9.73737e-06)
(0.00388343 1.62109e-06 -1.04858e-05)
(0.00389938 1.73291e-06 -1.13827e-05)
(0.00391673 1.86702e-06 -1.2423e-05)
(0.00393562 2.01518e-06 -1.35842e-05)
(0.0039562 2.16284e-06 -1.48382e-05)
(0.00397859 2.29344e-06 -1.61574e-05)
(0.0040029 2.39132e-06 -1.75284e-05)
(0.00402925 2.44601e-06 -1.89624e-05)
(0.00405778 2.45882e-06 -2.04838e-05)
(0.00408864 2.44097e-06 -2.21151e-05)
(0.004122 2.40712e-06 -2.38637e-05)
(0.00415807 2.37321e-06 -2.57264e-05)
(0.00419706 2.34986e-06 -2.77214e-05)
(0.00423922 2.34056e-06 -2.9892e-05)
(0.00428484 2.34679e-06 -3.22869e-05)
(0.00433422 2.36996e-06 -3.49457e-05)
(0.00438771 2.40418e-06 -3.78895e-05)
(0.00374621 -3.592e-07 -7.90141e-07)
(0.00374751 -3.90362e-07 -1.11387e-06)
(0.00374923 -4.12443e-07 -1.39817e-06)
(0.00375136 -4.18457e-07 -1.66906e-06)
(0.00375393 -4.03952e-07 -1.95128e-06)
(0.00375692 -3.66749e-07 -2.24662e-06)
(0.00376038 -3.02656e-07 -2.55275e-06)
(0.00376434 -2.01339e-07 -2.90016e-06)