/*--------------------------------*- C++ -*----------------------------------*\
| =========                 |                                                 |
| \\      /  F ield         | OpenFOAM: The Open Source CFD Toolbox           |
|  \\    /   O peration     | Version:  2.3.1                                 |
|   \\  /    A nd           | Web:      www.OpenFOAM.org                      |
|    \\/     M anipulation  |                                                 |
\*---------------------------------------------------------------------------*/
FoamFile
{
    version     2.0;
    format      ascii;
    class       volScalarField;
    location    "5";
    object      epsilon;
}
// * * * * * * * * * * * * * * * * * * * * * * * * * * * * * * * * * * * * * //

dimensions      [0 2 -3 0 0 0 0];

internalField   nonuniform List<scalar> 
38262
(
3.03184e-06
3.1373e-06
3.25471e-06
3.38516e-06
3.5291e-06
3.68698e-06
3.87127e-06
4.07764e-06
4.30362e-06
4.54983e-06
4.81297e-06
5.09427e-06
5.37582e-06
5.66851e-06
6.10217e-06
3.99596e-05
0.00214201
0.0182108
0.0242904
0.024036
0.0236979
0.023654
0.0262179
0.0385472
0.0438281
0.0460776
0.0524401
0.0814365
0.160805
0.414322
0.592794
0.904991
1.19958
2.03168
3.26992
5.75354
12.6609
26.9482
4.03355e-06
4.19654e-06
4.38092e-06
4.58922e-06
4.82402e-06
5.08784e-06
5.38297e-06
5.71123e-06
6.07325e-06
6.46842e-06
6.8914e-06
7.34049e-06
7.78742e-06
8.24146e-06
8.59497e-06
9.95173e-06
0.00010527
0.00251742
0.006699
0.0115735
0.0187139
0.0232671
0.0232283
0.0248175
0.0202691
0.013988
0.00975893
0.0119494
0.013306
0.0308068
0.0332158
0.16553
0.173196
0.249824
0.532505
0.690705
2.5306
7.8533
4.26191e-06
4.43108e-06
4.62282e-06
4.83997e-06
5.08553e-06
5.36255e-06
5.67401e-06
6.02282e-06
6.41092e-06
6.84077e-06
7.31055e-06
7.82682e-06
8.36944e-06
8.98597e-06
9.54628e-06
1.03772e-05
1.28323e-05
8.24541e-05
0.000455574
0.00113266
0.00229415
0.00678336
0.00528656
0.00598249
0.00312573
0.00188678
0.000843231
0.000722023
0.00143664
0.00486223
0.00657482
0.0217113
0.0344526
0.0845264
0.131744
0.17805
0.480875
3.01937
4.30312e-06
4.47299e-06
4.66598e-06
4.88525e-06
5.13412e-06
5.41594e-06
5.73385e-06
6.09076e-06
6.48879e-06
6.93095e-06
7.41645e-06
7.95256e-06
8.52843e-06
9.17932e-06
9.86438e-06
1.07608e-05
1.15885e-05
1.48692e-05
2.90976e-05
7.07258e-05
9.65373e-05
0.00058894
0.000329237
0.000820553
0.000539812
0.00042595
0.000230903
0.000322823
0.000401665
0.00102415
0.00370918
0.0185875
0.0235326
0.0806079
0.0492752
0.0899585
0.130508
0.813296
4.30095e-06
4.46995e-06
4.66249e-06
4.88204e-06
5.13235e-06
5.41752e-06
5.74176e-06
6.10963e-06
6.52455e-06
6.99223e-06
7.5125e-06
8.10574e-06
8.73826e-06
9.53896e-06
1.0227e-05
1.14704e-05
1.21581e-05
1.40045e-05
1.54491e-05
1.98694e-05
2.28421e-05
5.64145e-05
4.19878e-05
9.85357e-05
7.78286e-05
8.95193e-05
0.000116797
0.000421992
0.000388173
0.00183708
0.00194549
0.00693164
0.00674352
0.0341823
0.0354735
0.0506453
0.185861
0.656517
4.29045e-06
4.45808e-06
4.64964e-06
4.86895e-06
5.12021e-06
5.40774e-06
5.73559e-06
6.10768e-06
6.52749e-06
6.99855e-06
7.52651e-06
8.11527e-06
8.7693e-06
9.55741e-06
1.0346e-05
1.14956e-05
1.26464e-05
1.40396e-05
1.57642e-05
1.79793e-05
1.98276e-05
2.48018e-05
2.69327e-05
3.32276e-05
4.50277e-05
5.56773e-05
8.11676e-05
0.000226942
0.000354961
0.00116763
0.00223671
0.00243463
0.00424628
0.010173
0.0534615
0.503863
0.837465
1.60216
4.27884e-06
4.44487e-06
4.63525e-06
4.8543e-06
5.10698e-06
5.39893e-06
5.73602e-06
6.12421e-06
6.57048e-06
7.07282e-06
7.66466e-06
8.2908e-06
9.06148e-06
1.00329e-05
1.07545e-05
1.25826e-05
1.3478e-05
1.55198e-05
1.71289e-05
1.89858e-05
2.19109e-05
2.56348e-05
2.74509e-05
3.31844e-05
6.08049e-05
9.58923e-05
0.000236464
0.000257393
0.000844478
0.0010768
0.00214419
0.0029931
0.00455858
0.0087911
0.0228814
0.39315
0.868201
0.927077
4.26658e-06
4.43076e-06
4.61963e-06
4.83798e-06
5.09126e-06
5.38547e-06
5.72676e-06
6.11999e-06
6.57426e-06
7.07427e-06
7.69029e-06
8.25725e-06
9.13734e-06
9.87234e-06
1.09807e-05
1.26621e-05
1.40557e-05
1.61949e-05
1.97857e-05
2.06597e-05
2.6021e-05
2.7336e-05
3.19245e-05
3.61288e-05
7.51979e-05
0.000269858
0.000918691
0.00111657
0.00295279
0.00310398
0.00745227
0.00988521
0.0156188
0.0230528
0.0370215
0.0460333
0.25853
0.660992
4.24675e-06
4.40817e-06
4.59436e-06
4.81065e-06
5.06356e-06
5.36087e-06
5.7108e-06
6.12072e-06
6.60166e-06
7.13443e-06
7.7982e-06
8.43465e-06
9.27236e-06
1.04548e-05
1.12718e-05
1.38428e-05
1.50142e-05
1.8313e-05
1.9838e-05
2.41124e-05
2.69715e-05
3.21603e-05
3.45494e-05
3.96675e-05
5.35985e-05
0.000107542
0.000304787
0.000484715
0.00106192
0.00167997
0.00384939
0.00637772
0.00884039
0.0119077
0.0204878
0.021234
0.0295541
1.00565
4.17999e-06
4.335e-06
4.51347e-06
4.72058e-06
4.96264e-06
5.24716e-06
5.58192e-06
5.97379e-06
6.42721e-06
6.9355e-06
7.49274e-06
8.08889e-06
8.67768e-06
9.15509e-06
1.07431e-05
1.53175e-05
1.9077e-05
3.08782e-05
5.58228e-05
8.78425e-05
8.73524e-05
7.86381e-05
6.55832e-05
5.41632e-05
9.2431e-05
0.000357967
0.000816621
0.0010505
0.00186979
0.00325075
0.00667573
0.009748
0.0191622
0.0295186
0.0526696
0.102379
0.131785
1.58432
3.91549e-06
4.05332e-06
4.21017e-06
4.38994e-06
4.59739e-06
4.83838e-06
5.11749e-06
5.44054e-06
5.80117e-06
6.20371e-06
6.60761e-06
6.97683e-06
7.40089e-06
7.44313e-06
2.20939e-05
3.63956e-05
0.000100129
0.000222012
0.000341862
0.000382255
0.000477922
0.000443808
0.000505987
0.00037991
0.000226425
0.000330177
0.000655051
0.000984043
0.00147712
0.00243143
0.00510147
0.00857206
0.0149718
0.0229869
0.0396772
0.0718973
0.175223
1.00713
2.95472e-06
3.04743e-06
3.1523e-06
3.27164e-06
3.40807e-06
3.56453e-06
3.74005e-06
3.95013e-06
4.18529e-06
4.43779e-06
4.68464e-06
4.93189e-06
5.0037e-06
5.37421e-06
7.92159e-05
0.000200439
0.000219819
0.000327892
0.000381514
0.000329348
0.000373875
0.000530878
0.000544047
0.000540086
0.000618858
0.000693849
0.00103544
0.0015291
0.00281094
0.00675568
0.0134748
0.0239029
0.0610865
0.156809
0.252127
0.366723
0.820694
2.05849
2.41476e-06
2.46966e-06
2.53086e-06
2.59888e-06
2.67425e-06
2.75747e-06
2.84914e-06
2.94946e-06
3.05851e-06
3.1765e-06
3.30233e-06
3.43577e-06
3.56912e-06
3.69892e-06
3.89696e-06
2.53799e-05
0.00157176
0.0131944
0.0172906
0.0168975
0.0153453
0.0158219
0.0193665
0.0247865
0.0335684
0.0359947
0.0403389
0.058053
0.096155
0.222638
0.392818
0.582473
0.7557
1.20309
1.86437
3.07888
5.79229
6.8648
1.61398e-06
1.63211e-06
1.65329e-06
1.67791e-06
1.70635e-06
1.73892e-06
1.77597e-06
1.81775e-06
1.8653e-06
1.91985e-06
1.98526e-06
2.06582e-06
2.19153e-06
2.42916e-06
3.05468e-06
6.16649e-06
0.000153722
0.00337807
0.0128192
0.0217064
0.0219854
0.0216995
0.0220046
0.0222166
0.0224143
0.0244935
0.0212952
0.0299374
0.055772
0.0775866
0.0958751
0.337212
0.195824
0.271485
0.751151
0.746758
4.92739
5.21021
1.52235e-06
1.54084e-06
1.56272e-06
1.58849e-06
1.61864e-06
1.65365e-06
1.69399e-06
1.73998e-06
1.79241e-06
1.85148e-06
1.92051e-06
1.9998e-06
2.10611e-06
2.26283e-06
2.57667e-06
3.32774e-06
8.9601e-06
0.000197644
0.00110217
0.0029724
0.00432827
0.00582562
0.00592433
0.00416695
0.00241199
0.0020683
0.00128019
0.00137584
0.00249578
0.00694004
0.00999396
0.0549766
0.0502036
0.0807868
0.231472
0.185655
0.401063
2.7672
1.50114e-06
1.51992e-06
1.54231e-06
1.56889e-06
1.60025e-06
1.63691e-06
1.67947e-06
1.72842e-06
1.7849e-06
1.84925e-06
1.92449e-06
2.0123e-06
2.12344e-06
2.27133e-06
2.53338e-06
2.95777e-06
3.92373e-06
1.09585e-05
6.32211e-05
0.000156692
0.00035012
0.00049046
0.000723583
0.000586096
0.000417473
0.000282111
0.000325328
0.000327155
0.000705545
0.00339739
0.00698405
0.0272338
0.0270521
0.0496453
0.0511118
0.0860309
0.257436
0.797756
1.49504e-06
1.51366e-06
1.53604e-06
1.56289e-06
1.59496e-06
1.63305e-06
1.67804e-06
1.73028e-06
1.79149e-06
1.86046e-06
1.94345e-06
2.03575e-06
2.15296e-06
2.29267e-06
2.49125e-06
2.7627e-06
3.21345e-06
3.82444e-06
6.46959e-06
1.25177e-05
2.86782e-05
4.13995e-05
7.29739e-05
7.09465e-05
7.20293e-05
7.15013e-05
9.92796e-05
0.000215373
0.000613184
0.000830812
0.0014159
0.00663998
0.0084708
0.0111483
0.02367
0.098306
0.306592
0.708316
1.49177e-06
1.51004e-06
1.53221e-06
1.55909e-06
1.59155e-06
1.63038e-06
1.67661e-06
1.7307e-06
1.79518e-06
1.86807e-06
1.95797e-06
2.05876e-06
2.18558e-06
2.3632e-06
2.55389e-06
2.88775e-06
3.32775e-06
3.60244e-06
4.33816e-06
4.71759e-06
6.1695e-06
7.64563e-06
1.11555e-05
1.3199e-05
1.90359e-05
3.3511e-05
9.68649e-05
0.000121075
0.000318776
0.00112057
0.00118893
0.00216987
0.00371969
0.00990272
0.0168632
0.357945
0.900801
1.23238
1.48872e-06
1.50655e-06
1.52845e-06
1.55544e-06
1.58878e-06
1.62968e-06
1.67978e-06
1.7389e-06
1.81197e-06
1.88895e-06
2.00047e-06
2.09114e-06
2.26656e-06
2.43627e-06
2.64475e-06
3.05762e-06
3.35671e-06
3.67572e-06
4.62479e-06
4.68236e-06
5.64523e-06
6.56421e-06
7.52323e-06
1.18033e-05
2.85575e-05
4.11449e-05
0.000127244
0.000322802
0.00045029
0.00124727
0.00169476
0.00278817
0.00331885
0.00908418
0.0150093
0.207134
0.785227
0.80982
1.48638e-06
1.50378e-06
1.52544e-06
1.55256e-06
1.58651e-06
1.62862e-06
1.68086e-06
1.74287e-06
1.82104e-06
1.90119e-06
2.0253e-06
2.12008e-06
2.32816e-06
2.52366e-06
2.90518e-06
3.85328e-06
4.19842e-06
5.0421e-06
5.75078e-06
6.21516e-06
7.15459e-06
1.06096e-05
9.14036e-06
1.42286e-05
6.46719e-05
0.000264553
0.000960239
0.00128841
0.00211336
0.00262721
0.00442795
0.00615189
0.00998206
0.0139255
0.0296163
0.0303717
0.115229
0.918169
1.4882e-06
1.50524e-06
1.52684e-06
1.55457e-06
1.59049e-06
1.63666e-06
1.6959e-06
1.76698e-06
1.8595e-06
1.94883e-06
2.1007e-06
2.21363e-06
2.47183e-06
2.76905e-06
3.52829e-06
4.63244e-06
5.09324e-06
6.92216e-06
7.89412e-06
1.10619e-05
1.13955e-05
1.292e-05
1.30578e-05
1.44813e-05
2.57198e-05
6.61082e-05
0.000195979
0.000321613
0.000518842
0.000900445
0.00163558
0.00327783
0.00283816
0.00336024
0.00727786
0.0118484
0.0367218
0.42884
1.50882e-06
1.5258e-06
1.54751e-06
1.57573e-06
1.61286e-06
1.66154e-06
1.7248e-06
1.80325e-06
1.90069e-06
2.01005e-06
2.13573e-06
2.30857e-06
2.46763e-06
2.95672e-06
6.08749e-06
1.03636e-05
2.39994e-05
5.63001e-05
7.70037e-05
7.69162e-05
7.45911e-05
5.73236e-05
5.16804e-05
4.92614e-05
0.000103459
0.000264238
0.000859395
0.00112976
0.00170313
0.00286614
0.00493879
0.00864684
0.0167989
0.0203422
0.0268139
0.0517511
0.169813
3.92907
1.61153e-06
1.63179e-06
1.65766e-06
1.69128e-06
1.73546e-06
1.79304e-06
1.86753e-06
1.95818e-06
2.06774e-06
2.18791e-06
2.30566e-06
2.47316e-06
2.85718e-06
4.15367e-06
2.61207e-05
6.87002e-05
0.000249705
0.000474499
0.000576056
0.000627073
0.000793789
0.000822068
0.000843089
0.000803198
0.000635238
0.00068491
0.000986476
0.00146449
0.00223033
0.00324717
0.0053879
0.0091605
0.01484
0.027703
0.0425541
0.0728347
0.207889
1.02917
2.36796e-06
2.4146e-06
2.4672e-06
2.52686e-06
2.59486e-06
2.6726e-06
2.76108e-06
2.86073e-06
2.97051e-06
3.08716e-06
3.19684e-06
3.31797e-06
3.35453e-06
4.08318e-06
7.87662e-05
0.000190723
0.000225229
0.000312012
0.000447549
0.000429426
0.000415046
0.000575271
0.000583279
0.000487464
0.000486855
0.000567861
0.000755651
0.00110628
0.00206481
0.0050573
0.0101562
0.0175393
0.0479608
0.131417
0.202383
0.318837
0.70245
1.57517
2.65274e-06
2.71028e-06
2.7746e-06
2.8463e-06
2.92594e-06
3.014e-06
3.11088e-06
3.21686e-06
3.33224e-06
3.45716e-06
3.59053e-06
3.73229e-06
3.87662e-06
4.02362e-06
4.17747e-06
1.28433e-05
0.000987881
0.0116652
0.0154859
0.0117411
0.00947593
0.0117302
0.023497
0.0280678
0.0416354
0.0475711
0.0528048
0.071314
0.0992505
0.199105
0.363304
0.502531
0.734455
1.15867
1.56045
2.66732
3.71817
4.53097
1.24033e-06
1.2505e-06
1.26273e-06
1.27725e-06
1.29428e-06
1.31393e-06
1.33631e-06
1.36152e-06
1.39083e-06
1.42533e-06
1.46903e-06
1.52683e-06
1.62426e-06
1.81344e-06
2.35627e-06
4.93142e-06
8.8607e-05
0.00254566
0.00879978
0.0130523
0.0141906
0.0144279
0.0159236
0.0170469
0.0205284
0.0267562
0.0237047
0.0381402
0.0477915
0.0403606
0.0838185
0.0813639
0.0856876
0.138329
0.236813
0.3769
0.738798
1.79949
1.02626e-06
1.03575e-06
1.04751e-06
1.06185e-06
1.07901e-06
1.09917e-06
1.12243e-06
1.14869e-06
1.17828e-06
1.21114e-06
1.24973e-06
1.29518e-06
1.36141e-06
1.4647e-06
1.70064e-06
2.30927e-06
6.26716e-06
0.000130724
0.000746475
0.00131556
0.00201635
0.00212419
0.00324179
0.00249777
0.00184868
0.00182937
0.00133238
0.00155438
0.00178992
0.00571637
0.00478463
0.0232966
0.0329845
0.0642021
0.165245
0.140047
0.694658
3.74808
9.7586e-07
9.85861e-07
9.98419e-07
1.0139e-06
1.03263e-06
1.05477e-06
1.08053e-06
1.10992e-06
1.1435e-06
1.18115e-06
1.22523e-06
1.27757e-06
1.34832e-06
1.44949e-06
1.64232e-06
1.98283e-06
2.883e-06
7.59366e-06
4.18184e-05
8.02402e-05
0.000173436
0.000190724
0.000393701
0.000341049
0.000238597
0.000230826
0.000283408
0.00029816
0.000489756
0.00142361
0.00193236
0.0072907
0.0132574
0.0123525
0.0482412
0.0445736
0.32555
1.78597
9.63963e-07
9.742e-07
9.87251e-07
1.00362e-06
1.02382e-06
1.04826e-06
1.07731e-06
1.11068e-06
1.1491e-06
1.19144e-06
1.24165e-06
1.29853e-06
1.37121e-06
1.46908e-06
1.61918e-06
1.82383e-06
2.25253e-06
2.72464e-06
4.64593e-06
7.81515e-06
1.65748e-05
2.08465e-05
4.26161e-05
5.48186e-05
5.40406e-05
6.17612e-05
9.75832e-05
0.000118961
0.000405213
0.000545637
0.000652645
0.00128976
0.00349186
0.00431977
0.00913262
0.0922945
0.340404
0.535106
9.60775e-07
9.71134e-07
9.84599e-07
1.00181e-06
1.02335e-06
1.04962e-06
1.08111e-06
1.11767e-06
1.16088e-06
1.20873e-06
1.26766e-06
1.33413e-06
1.42203e-06
1.55077e-06
1.71607e-06
1.97682e-06
2.35189e-06
2.58207e-06
3.1448e-06
3.49317e-06
4.49705e-06
5.5878e-06
7.75238e-06
1.24545e-05
1.34589e-05
2.56104e-05
5.70058e-05
6.08896e-05
0.000250849
0.000300767
0.000427599
0.000777101
0.00169677
0.00421405
0.0082662
0.145261
0.391717
0.306445
9.59504e-07
9.70018e-07
9.84005e-07
1.00237e-06
1.02615e-06
1.0562e-06
1.09344e-06
1.13699e-06
1.18937e-06
1.24312e-06
1.31729e-06
1.3826e-06
1.49882e-06
1.63873e-06
1.81639e-06
2.17904e-06
2.47939e-06
2.76078e-06
3.42728e-06
3.56054e-06
4.13522e-06
4.84116e-06
5.84335e-06
1.03431e-05
1.80664e-05
2.09858e-05
3.71027e-05
6.29832e-05
9.59141e-05
0.000182699
0.000339871
0.000548659
0.000961834
0.00324281
0.0094071
0.0497884
0.370032
0.398308
9.60536e-07
9.71294e-07
9.85986e-07
1.00578e-06
1.03196e-06
1.0656e-06
1.108e-06
1.15816e-06
1.22013e-06
1.28239e-06
1.3747e-06
1.4496e-06
1.60845e-06
1.80292e-06
2.19189e-06
3.11227e-06
3.37207e-06
3.97329e-06
4.40815e-06
4.50422e-06
4.96741e-06
5.64986e-06
6.00669e-06
9.10287e-06
2.43272e-05
4.563e-05
9.45383e-05
0.000126846
0.000215595
0.00028128
0.000678373
0.000842099
0.00149691
0.00438141
0.0159803
0.021695
0.0595527
0.126901
9.72432e-07
9.83817e-07
9.99808e-07
1.02214e-06
1.05295e-06
1.09427e-06
1.1483e-06
1.21389e-06
1.29651e-06
1.37712e-06
1.49997e-06
1.59852e-06
1.81189e-06
2.13496e-06
3.02674e-06
4.42413e-06
5.39862e-06
8.05875e-06
9.30199e-06
1.07657e-05
1.07769e-05
1.05991e-05
1.12256e-05
1.25394e-05
1.81146e-05
2.95436e-05
5.81323e-05
9.16021e-05
0.000136527
0.000285706
0.000416343
0.000557099
0.000761751
0.0011587
0.00359331
0.0084881
0.0300796
0.18961
1.02876e-06
1.04187e-06
1.0604e-06
1.08658e-06
1.12338e-06
1.17406e-06
1.2426e-06
1.33032e-06
1.43854e-06
1.55592e-06
1.67994e-06
1.83787e-06
2.02711e-06
2.66142e-06
7.88806e-06
1.66102e-05
3.52045e-05
7.49255e-05
9.04445e-05
8.53091e-05
7.86096e-05
6.89838e-05
7.06454e-05
7.35734e-05
8.934e-05
0.000138805
0.000232522
0.000405989
0.000570434
0.000877516
0.0016211
0.00273682
0.00505565
0.00697712
0.0137015
0.0333273
0.195697
1.19776
1.26825e-06
1.28981e-06
1.319e-06
1.35887e-06
1.41361e-06
1.48828e-06
1.58834e-06
1.71162e-06
1.85248e-06
1.99326e-06
2.14347e-06
2.31997e-06
2.76048e-06
5.61374e-06
4.86591e-05
0.000139456
0.000462348
0.000718203
0.000786788
0.000878802
0.0010936
0.0011679
0.00131391
0.00149436
0.00156825
0.00186946
0.00222554
0.00301775
0.00367114
0.00494455
0.007804
0.0114856
0.0177896
0.0338959
0.0671148
0.0895058
0.177446
0.535392
2.59458e-06
2.64059e-06
2.69229e-06
2.75074e-06
2.81726e-06
2.89331e-06
2.98024e-06
3.07875e-06
3.19001e-06
3.30519e-06
3.43752e-06
3.5401e-06
3.76119e-06
8.4833e-06
0.000159947
0.000307902
0.000358103
0.000478749
0.000667825
0.000691868
0.000780332
0.000973986
0.000977833
0.000910312
0.000997981
0.00118916
0.00133397
0.00184966
0.00302245
0.00755333
0.0158179
0.0251003
0.0643481
0.189096
0.327625
0.430757
0.705149
1.50481
2.73397e-06
2.79253e-06
2.85817e-06
2.93153e-06
3.01322e-06
3.10375e-06
3.20353e-06
3.3129e-06
3.43229e-06
3.56184e-06
3.70058e-06
3.84863e-06
4.00081e-06
4.15963e-06
4.31014e-06
5.04676e-06
9.9193e-05
0.00505761
0.0113911
0.00669189
0.00285634
0.00513671
0.0248955
0.0335084
0.0476918
0.0569117
0.0617524
0.0784492
0.0943803
0.150511
0.257213
0.315112
0.590365
1.08876
1.48907
2.12371
2.60011
2.94391
1.11901e-06
1.12985e-06
1.14279e-06
1.15807e-06
1.17588e-06
1.19635e-06
1.21957e-06
1.24575e-06
1.27623e-06
1.31211e-06
1.35724e-06
1.41687e-06
1.51343e-06
1.69179e-06
2.15498e-06
3.80335e-06
1.96652e-05
0.000660805
0.00304656
0.00300416
0.00312452
0.00352324
0.00871701
0.016574
0.022693
0.0349102
0.0320111
0.0419903
0.0531208
0.0354313
0.0793984
0.0405142
0.0540025
0.151995
0.186186
0.25793
0.437053
1.07742
8.45645e-07
8.55761e-07
8.68198e-07
8.83232e-07
9.01081e-07
9.21867e-07
9.45616e-07
9.7213e-07
1.00158e-06
1.03399e-06
1.07142e-06
1.11578e-06
1.17895e-06
1.27896e-06
1.4957e-06
2.01398e-06
4.00291e-06
2.99767e-05
0.000215206
0.00031253
0.000464977
0.000427014
0.000895395
0.00190264
0.00196277
0.0023707
0.0019276
0.00161308
0.00190915
0.00227152
0.00277997
0.00935076
0.0204047
0.0242343
0.0834161
0.0768151
0.364511
2.14243
7.77507e-07
7.88354e-07
8.01858e-07
8.18374e-07
8.38179e-07
8.61413e-07
8.88145e-07
9.18287e-07
9.52218e-07
9.89747e-07
1.03284e-06
1.08373e-06
1.15134e-06
1.24952e-06
1.42896e-06
1.74798e-06
2.52385e-06
4.46847e-06
1.44627e-05
2.54896e-05
4.84213e-05
5.49123e-05
0.000108051
0.000206243
0.000194279
0.000266491
0.000288512
0.000288556
0.000327641
0.000772068
0.000788479
0.00310766
0.00749051
0.00555376
0.0227661
0.0290734
0.127103
0.855019
7.60741e-07
7.72087e-07
7.86434e-07
8.04299e-07
8.26178e-07
8.52388e-07
8.83129e-07
9.1798e-07
9.57197e-07
9.99932e-07
1.0491e-06
1.10536e-06
1.17584e-06
1.27412e-06
1.42124e-06
1.63613e-06
2.04045e-06
2.47114e-06
3.54867e-06
4.76123e-06
7.8895e-06
1.04596e-05
1.76827e-05
4.06189e-05
4.79775e-05
6.99972e-05
0.000104033
9.87742e-05
0.000201883
0.000248431
0.000334025
0.000687467
0.00175325
0.00242186
0.00765387
0.0455503
0.149454
0.140158
7.56956e-07
7.68721e-07
7.83876e-07
8.03084e-07
8.26954e-07
8.55881e-07
8.90232e-07
9.29789e-07
9.75689e-07
1.02629e-06
1.08672e-06
1.1555e-06
1.24503e-06
1.37469e-06
1.54758e-06
1.80657e-06
2.1598e-06
2.40945e-06
2.93965e-06
3.25116e-06
4.00465e-06
4.90565e-06
6.44836e-06
1.10945e-05
1.28912e-05
2.08967e-05
4.12528e-05
4.58923e-05
8.55462e-05
0.000149249
0.000208863
0.000359764
0.000821067
0.00184152
0.00474127
0.0607917
0.242837
0.0870102
7.56481e-07
7.68717e-07
7.84869e-07
8.05954e-07
8.33099e-07
8.67224e-07
9.09144e-07
9.5797e-07
1.01525e-06
1.07473e-06
1.15013e-06
1.22426e-06
1.33713e-06
1.49127e-06
1.68652e-06
2.07567e-06
2.42245e-06
2.71578e-06
3.312e-06
3.48209e-06
3.98644e-06
4.62893e-06
5.62655e-06
9.73252e-06
1.51046e-05
1.71928e-05
2.44428e-05
3.58455e-05
4.58484e-05
7.18537e-05
0.00014414
0.000230448
0.00047489
0.00192542
0.00676187
0.0253314
0.147307
0.132186
7.59911e-07
7.72797e-07
7.90245e-07
8.13627e-07
8.44481e-07
8.84183e-07
9.34286e-07
9.94268e-07
1.06751e-06
1.14338e-06
1.24577e-06
1.33822e-06
1.50648e-06
1.7504e-06
2.1892e-06
3.15277e-06
3.52599e-06
4.03148e-06
4.56867e-06
4.64829e-06
5.05183e-06
5.47427e-06
5.84299e-06
8.19854e-06
1.55296e-05
1.80643e-05
2.55616e-05
2.94282e-05
4.34269e-05
6.00792e-05
0.000120395
0.000221188
0.00054069
0.0024611
0.0137866
0.0257359
0.0509783
0.0636583
7.78889e-07
7.92944e-07
8.12511e-07
8.39702e-07
8.77202e-07
9.27948e-07
9.95391e-07
1.07974e-06
1.18384e-06
1.28568e-06
1.42308e-06
1.54484e-06
1.7824e-06
2.22046e-06
3.40817e-06
5.62683e-06
7.54268e-06
1.04938e-05
1.19168e-05
1.18804e-05
1.20394e-05
1.20995e-05
1.30754e-05
1.52617e-05
2.12542e-05
3.11509e-05
4.42791e-05
7.07511e-05
9.14994e-05
0.000164974
0.000288928
0.000389693
0.000626137
0.000853428
0.00260771
0.00923765
0.0205286
0.11934
8.5631e-07
8.72986e-07
8.96385e-07
9.29406e-07
9.76208e-07
1.04224e-06
1.13405e-06
1.25104e-06
1.38957e-06
1.53712e-06
1.70204e-06
1.87334e-06
2.2284e-06
3.80048e-06
1.37291e-05
3.35985e-05
6.15098e-05
0.000101821
0.000102561
9.86178e-05
9.92112e-05
0.000103307
0.000123324
0.000147072
0.000184317
0.000319351
0.000434598
0.000681038
0.000840989
0.00115952
0.00204159
0.00309581
0.00504462
0.00611229
0.0112482
0.023679
0.128384
0.712945
1.16172e-06
1.18868e-06
1.22532e-06
1.27592e-06
1.34688e-06
1.44407e-06
1.57148e-06
1.72882e-06
1.91528e-06
2.10445e-06
2.32095e-06
2.56575e-06
3.52039e-06
1.56127e-05
0.000103671
0.000301889
0.000758519
0.000993426
0.00103659
0.00127247
0.00155401
0.00178074
0.00225631
0.00269259
0.00314833
0.00409331
0.00465167
0.00567392
0.00645171
0.00832042
0.0130828
0.0189783
0.0289304
0.051852
0.100801
0.0959485
0.136874
0.40458
2.6688e-06
2.71356e-06
2.76371e-06
2.82029e-06
2.88466e-06
2.95858e-06
3.04397e-06
3.14375e-06
3.25594e-06
3.38265e-06
3.55339e-06
3.88644e-06
5.18233e-06
3.65224e-05
0.000292876
0.000439875
0.000509023
0.000720533
0.000971098
0.00103865
0.00126856
0.00156353
0.00165663
0.00179055
0.00220032
0.00240219
0.00245365
0.00289656
0.00406428
0.00997044
0.0214538
0.0314033
0.0679884
0.202537
0.390709
0.481812
0.674615
1.3385
2.76414e-06
2.82308e-06
2.88928e-06
2.9634e-06
3.04606e-06
3.13781e-06
3.23909e-06
3.35031e-06
3.47193e-06
3.6041e-06
3.74594e-06
3.89768e-06
4.05483e-06
4.22109e-06
4.38306e-06
4.59575e-06
8.35336e-06
0.000450395
0.00351019
0.00321117
0.000837941
0.00317078
0.0235688
0.0400665
0.0533867
0.06452
0.0680774
0.080309
0.0880076
0.113347
0.157994
0.182184
0.350994
0.815715
1.41324
1.61328
1.73095
2.59673
1.07109e-06
1.08293e-06
1.09695e-06
1.11341e-06
1.1325e-06
1.15437e-06
1.17912e-06
1.20701e-06
1.23941e-06
1.27751e-06
1.32486e-06
1.38677e-06
1.48185e-06
1.64706e-06
2.02385e-06
3.08153e-06
7.85362e-06
7.39279e-05
0.000537983
0.000582419
0.000522064
0.000859435
0.00695726
0.0211732
0.030533
0.0449901
0.0396969
0.0499603
0.0495216
0.0385226
0.0449737
0.0254566
0.0429056
0.105257
0.177768
0.188188
0.302871
0.501408
7.65862e-07
7.7726e-07
7.91099e-07
8.0766e-07
8.27162e-07
8.49715e-07
8.75313e-07
9.03727e-07
9.35065e-07
9.69439e-07
1.00869e-06
1.05513e-06
1.1189e-06
1.21772e-06
1.41332e-06
1.83741e-06
3.11723e-06
8.06055e-06
3.69809e-05
6.31546e-05
9.27856e-05
0.000110473
0.000567918
0.00229592
0.00324361
0.00390886
0.00303025
0.00243342
0.0020735
0.00182827
0.00171853
0.0042028
0.0126862
0.0109588
0.0264318
0.0798344
0.45102
1.11547
6.86223e-07
6.98564e-07
7.13735e-07
7.32103e-07
7.53949e-07
7.79412e-07
8.08514e-07
8.41145e-07
8.77571e-07
9.17617e-07
9.62971e-07
1.01616e-06
1.08494e-06
1.18364e-06
1.35191e-06
1.64146e-06
2.27616e-06
3.44613e-06
6.37861e-06
9.56814e-06
1.63818e-05
2.2341e-05
6.13906e-05
0.000215081
0.00025465
0.00041368
0.000404496
0.000317579
0.000321178
0.000368888
0.000497077
0.00222413
0.00314207
0.00249201
0.00797416
0.0224697
0.0671456
0.21918
6.65743e-07
6.78797e-07
6.95101e-07
7.15205e-07
7.39624e-07
7.68656e-07
8.02448e-07
8.40509e-07
8.8282e-07
9.28713e-07
9.80556e-07
1.04005e-06
1.11355e-06
1.21576e-06
1.36368e-06
1.58476e-06
1.95391e-06
2.36272e-06
3.11391e-06
3.77431e-06
5.45232e-06
7.39085e-06
1.31224e-05
3.76764e-05
5.26034e-05
8.59279e-05
0.000117822
0.000106062
0.000145153
0.000184717
0.000223938
0.000488239
0.000892671
0.0015282
0.00667602
0.0552368
0.0680264
0.0648598
6.61344e-07
6.75035e-07
6.92443e-07
7.14301e-07
7.41287e-07
7.73873e-07
8.12444e-07
8.56873e-07
9.07986e-07
9.64498e-07
1.03047e-06
1.10591e-06
1.20174e-06
1.33724e-06
1.51636e-06
1.77588e-06
2.10889e-06
2.38287e-06
2.89801e-06
3.23654e-06
3.93287e-06
4.78795e-06
6.34957e-06
1.08255e-05
1.34612e-05
2.04461e-05
3.80089e-05
4.26309e-05
6.12478e-05
0.000117337
0.000142809
0.000247617
0.000486243
0.00112323
0.00407408
0.0450547
0.117673
0.0520216
6.61428e-07
6.75843e-07
6.94643e-07
7.18995e-07
7.50212e-07
7.89462e-07
8.37794e-07
8.94505e-07
9.60251e-07
1.02907e-06
1.11092e-06
1.19579e-06
1.31463e-06
1.48751e-06
1.70876e-06
2.12639e-06
2.51565e-06
2.83651e-06
3.38471e-06
3.60168e-06
4.10117e-06
4.75833e-06
5.74954e-06
9.18563e-06
1.4014e-05
1.64737e-05
2.4037e-05
3.04854e-05
4.16493e-05
5.99993e-05
0.000110802
0.00017005
0.000359142
0.00138379
0.00569956
0.0224184
0.0697996
0.0595311
6.66783e-07
6.82162e-07
7.02748e-07
7.30179e-07
7.6641e-07
8.1352e-07
8.73881e-07
9.47224e-07
1.03463e-06
1.12644e-06
1.24427e-06
1.36473e-06
1.55981e-06
1.88981e-06
2.39289e-06
3.42651e-06
3.92428e-06
4.40693e-06
5.00789e-06
5.13988e-06
5.54427e-06
6.03068e-06
6.39998e-06
8.27636e-06
1.31632e-05
1.56223e-05
2.03578e-05
2.30235e-05
3.1574e-05
4.49735e-05
7.94786e-05
0.000149747
0.000390053
0.00166034
0.0090979
0.0306013
0.0460798
0.0420908
6.91079e-07
7.0806e-07
7.31478e-07
7.63972e-07
8.09248e-07
8.72056e-07
9.5681e-07
1.06135e-06
1.1895e-06
1.3246e-06
1.49482e-06
1.6612e-06
1.9916e-06
2.75978e-06
4.5539e-06
8.08024e-06
1.10623e-05
1.36461e-05
1.42958e-05
1.40252e-05
1.42882e-05
1.51261e-05
1.76284e-05
2.13935e-05
2.93626e-05
4.64929e-05
6.27061e-05
9.315e-05
0.000116984
0.000192277
0.000299608
0.000544581
0.000760995
0.000852854
0.00188303
0.00728432
0.0144252
0.0704184
7.82242e-07
8.02465e-07
8.30748e-07
8.70998e-07
9.29392e-07
1.01291e-06
1.12692e-06
1.27623e-06
1.46179e-06
1.67071e-06
1.89295e-06
2.22858e-06
3.19913e-06
9.65528e-06
3.15824e-05
7.20375e-05
0.000108611
0.000132612
0.000128984
0.000132849
0.000143987
0.000170749
0.000238301
0.000298564
0.000389676
0.000630048
0.00080119
0.00109764
0.0013011
0.00182602
0.00308158
0.00442471
0.00678072
0.00677519
0.0100854
0.0169042
0.0704453
0.402747
1.12278e-06
1.15424e-06
1.19762e-06
1.25834e-06
1.34271e-06
1.46033e-06
1.62279e-06
1.83527e-06
2.0884e-06
2.38129e-06
2.69263e-06
3.52749e-06
9.39842e-06
7.70443e-05
0.00024318
0.000549706
0.00108408
0.00119909
0.00140651
0.0018979
0.00221779
0.00279583
0.00371545
0.00437253
0.00511314
0.00629185
0.00700374
0.00800674
0.00905559
0.0117522
0.0181101
0.0260715
0.0382017
0.0593741
0.107744
0.0969008
0.112099
0.269254
2.69402e-06
2.73755e-06
2.78622e-06
2.84114e-06
2.90393e-06
2.97688e-06
3.06329e-06
3.16566e-06
3.28113e-06
3.52766e-06
4.14875e-06
5.90376e-06
1.89486e-05
0.000160246
0.000484283
0.000613991
0.000748254
0.00102815
0.00138302
0.00154784
0.00194277
0.002424
0.00272598
0.00325099
0.00386848
0.00405551
0.00403282
0.00421481
0.00524119
0.0120218
0.0263382
0.0370591
0.0655103
0.191063
0.400124
0.503176
0.61471
1.16414
2.77513e-06
2.83431e-06
2.90086e-06
2.97545e-06
3.05872e-06
3.15123e-06
3.25353e-06
3.36595e-06
3.48893e-06
3.62264e-06
3.76629e-06
3.92015e-06
4.08042e-06
4.25103e-06
4.4202e-06
4.62176e-06
4.98366e-06
2.52561e-05
0.000350803
0.000423032
0.000204448
0.00381226
0.0264214
0.0454338
0.0583771
0.0705238
0.0736487
0.0797417
0.0827556
0.0910405
0.107713
0.1191
0.190592
0.438448
1.19074
1.3552
1.22464
1.99562
1.05165e-06
1.06406e-06
1.0787e-06
1.09583e-06
1.11567e-06
1.13837e-06
1.16405e-06
1.19296e-06
1.22647e-06
1.2659e-06
1.31447e-06
1.37726e-06
1.46934e-06
1.6205e-06
1.9241e-06
2.63191e-06
4.77801e-06
1.41683e-05
6.04572e-05
9.12269e-05
0.000116936
0.000707356
0.00836807
0.0274626
0.039659
0.0498461
0.0486187
0.0516564
0.0527529
0.0430725
0.0347109
0.0215166
0.0305229
0.066468
0.142722
0.181192
0.163997
0.331242
7.29407e-07
7.41754e-07
7.56634e-07
7.7434e-07
7.95093e-07
8.1901e-07
8.46072e-07
8.76034e-07
9.08982e-07
9.45091e-07
9.8601e-07
1.03426e-06
1.09835e-06
1.19463e-06
1.36824e-06
1.71089e-06
2.51024e-06
4.52272e-06
9.43195e-06
1.50356e-05
2.6249e-05
6.15173e-05
0.000710248
0.00319395
0.00542037
0.00574182
0.00445167
0.00318019
0.00280792
0.00209655
0.00162923
0.00219325
0.00599818
0.00390066
0.00815158
0.0326594
0.266624
0.373389
6.42421e-07
6.55934e-07
6.72417e-07
6.92257e-07
7.15759e-07
7.43077e-07
7.74214e-07
8.09071e-07
8.47767e-07
8.90163e-07
9.37758e-07
9.93213e-07
1.06316e-06
1.1615e-06
1.31819e-06
1.57706e-06
2.07807e-06
2.91583e-06
4.39473e-06
5.71362e-06
8.94879e-06
1.50305e-05
6.62071e-05
0.000286811
0.000484893
0.0006587
0.000584396
0.000416077
0.000371334
0.000334159
0.000411399
0.000931853
0.00113541
0.00118187
0.00325916
0.00946046
0.0258567
0.0710942
6.1931e-07
6.33724e-07
6.51598e-07
6.7353e-07
7.00074e-07
7.31551e-07
7.68115e-07
8.09181e-07
8.54538e-07
9.03481e-07
9.58106e-07
1.02087e-06
1.09745e-06
1.20254e-06
1.3498e-06
1.56904e-06
1.9019e-06
2.30298e-06
2.88234e-06
3.45234e-06
4.64534e-06
6.38368e-06
1.24822e-05
3.89629e-05
6.44322e-05
0.000109059
0.000129775
0.000119506
0.00013054
0.000183247
0.000190797
0.000319823
0.000519919
0.00103224
0.00400979
0.0281645
0.0374023
0.0297079
6.14428e-07
6.29656e-07
6.48891e-07
6.72954e-07
7.02639e-07
7.38582e-07
7.81231e-07
8.3052e-07
8.86936e-07
9.48968e-07
1.02005e-06
1.10159e-06
1.20312e-06
1.34478e-06
1.52854e-06
1.78675e-06
2.10401e-06
2.41195e-06
2.88365e-06
3.29941e-06
3.94262e-06
4.8518e-06
6.50002e-06
1.08628e-05
1.4279e-05
2.15429e-05
3.52719e-05
4.07324e-05
5.18646e-05
9.15314e-05
0.000114102
0.00019688
0.000332986
0.00075929
0.00250575
0.0197675
0.0394463
0.0231727
6.14952e-07
6.31123e-07
6.52111e-07
6.79281e-07
7.14276e-07
7.58678e-07
8.13768e-07
8.78288e-07
9.51793e-07
1.02916e-06
1.11938e-06
1.21714e-06
1.34829e-06
1.54411e-06
1.79973e-06
2.23707e-06
2.65439e-06
3.00929e-06
3.51543e-06
3.79079e-06
4.27433e-06
4.97386e-06
5.932e-06
8.76483e-06
1.33202e-05
1.68107e-05
2.49485e-05
3.13071e-05
4.29875e-05
5.93884e-05
0.000102917
0.000155605
0.000313202
0.00105036
0.00389993
0.0176708
0.0329424
0.0260189
6.21818e-07
6.39231e-07
6.62473e-07
6.93576e-07
7.35147e-07
7.90119e-07
8.60452e-07
9.45875e-07
1.04998e-06
1.16464e-06
1.30776e-06
1.46634e-06
1.71823e-06
2.15282e-06
2.75212e-06
3.84129e-06
4.44017e-06
4.92917e-06
5.5392e-06
5.73979e-06
6.16885e-06
6.74502e-06
7.19643e-06
8.78876e-06
1.2656e-05
1.5317e-05
2.03382e-05
2.33487e-05
3.15766e-05