/*--------------------------------*- C++ -*----------------------------------*\
| =========                 |                                                 |
| \\      /  F ield         | OpenFOAM: The Open Source CFD Toolbox           |
|  \\    /   O peration     | Version:  2.3.1                                 |
|   \\  /    A nd           | Web:      www.OpenFOAM.org                      |
|    \\/     M anipulation  |                                                 |
\*---------------------------------------------------------------------------*/
FoamFile
{
    version     2.0;
    format      ascii;
    class       volScalarField;
    location    "5";
    object      epsilon_0;
}
// * * * * * * * * * * * * * * * * * * * * * * * * * * * * * * * * * * * * * //

dimensions      [0 2 -3 0 0 0 0];

internalField   nonuniform List<scalar> 
38262
(
3.03232e-06
3.13774e-06
3.25511e-06
3.38552e-06
3.52944e-06
3.68733e-06
3.87163e-06
4.07804e-06
4.30409e-06
4.55042e-06
4.8138e-06
5.09551e-06
5.37777e-06
5.67183e-06
6.07571e-06
3.59833e-05
0.00195192
0.0179102
0.0244216
0.0242228
0.0238411
0.0237701
0.0261585
0.038582
0.0442306
0.0465218
0.0524756
0.0795146
0.153489
0.403742
0.596208
0.912669
1.21096
2.061
3.3263
5.95482
13.1676
28.5712
4.0338e-06
4.1967e-06
4.381e-06
4.58922e-06
4.82394e-06
5.0877e-06
5.38279e-06
5.71106e-06
6.07318e-06
6.46858e-06
6.89203e-06
7.34192e-06
7.79028e-06
8.24657e-06
8.60266e-06
9.841e-06
9.48131e-05
0.00239795
0.00666753
0.0114633
0.0186205
0.0233016
0.0232732
0.0249369
0.0203528
0.0140926
0.0098232
0.0119768
0.0131755
0.0304824
0.0325173
0.160689
0.170973
0.259683
0.53323
0.699291
2.50355
7.80602
4.26203e-06
4.4311e-06
4.62274e-06
4.83979e-06
5.08525e-06
5.36218e-06
5.67358e-06
6.02235e-06
6.41048e-06
6.84044e-06
7.31047e-06
7.82714e-06
8.37042e-06
8.98756e-06
9.54859e-06
1.03792e-05
1.26208e-05
7.74913e-05
0.000444787
0.00111671
0.00223868
0.00668728
0.00526026
0.0060181
0.00313701
0.00189474
0.000848743
0.000723392
0.00142813
0.00481866
0.00652821
0.0216218
0.034418
0.0857795
0.132174
0.177854
0.478273
2.97159
4.30318e-06
4.47294e-06
4.66583e-06
4.88499e-06
5.13374e-06
5.41546e-06
5.73327e-06
6.09012e-06
6.48812e-06
6.93031e-06
7.41593e-06
7.95222e-06
8.52834e-06
9.17933e-06
9.86409e-06
1.07589e-05
1.15783e-05
1.47178e-05
2.86129e-05
6.95595e-05
9.47607e-05
0.000576758
0.000323596
0.000821986
0.000539296
0.000424061
0.000230967
0.000322419
0.000400121
0.00101931
0.00366318
0.0185625
0.0237888
0.0815592
0.0491723
0.0896814
0.131396
0.774862
4.30098e-06
4.46988e-06
4.6623e-06
4.88172e-06
5.13191e-06
5.41693e-06
5.74105e-06
6.1088e-06
6.52365e-06
6.99128e-06
7.51159e-06
8.10484e-06
8.73753e-06
9.53793e-06
1.02262e-05
1.14676e-05
1.21554e-05
1.39948e-05
1.54168e-05
1.97823e-05
2.27445e-05
5.56154e-05
4.16291e-05
9.82766e-05
7.75683e-05
8.90778e-05
0.000117039
0.000417698
0.000385683
0.00183456
0.0019372
0.00692218
0.00672868
0.0342725
0.0350173
0.0509934
0.188998
0.675928
4.29048e-06
4.45799e-06
4.64942e-06
4.8686e-06
5.1197e-06
5.40708e-06
5.73479e-06
6.10674e-06
6.52642e-06
6.99738e-06
7.52525e-06
8.11391e-06
8.76787e-06
9.55553e-06
1.03437e-05
1.14921e-05
1.26412e-05
1.40319e-05
1.57547e-05
1.79604e-05
1.98069e-05
2.47369e-05
2.68798e-05
3.31725e-05
4.49969e-05
5.56012e-05
8.10296e-05
0.000226349
0.000353662
0.00117196
0.00223078
0.0024354
0.00427574
0.0101786
0.0527738
0.516966
0.866858
1.67754
4.27885e-06
4.44476e-06
4.635e-06
4.85389e-06
5.1064e-06
5.39816e-06
5.73505e-06
6.12304e-06
6.56912e-06
7.07134e-06
7.66303e-06
8.28904e-06
9.05999e-06
1.00303e-05
1.07523e-05
1.25804e-05
1.3474e-05
1.5516e-05
1.71224e-05
1.89774e-05
2.19112e-05
2.5609e-05
2.74278e-05
3.31695e-05
6.06922e-05
9.57278e-05
0.000235415
0.000256484
0.000843443
0.00107419
0.00214861
0.00299322
0.00458094
0.00885339
0.0217403
0.379882
0.89756
0.977185
4.26659e-06
4.43064e-06
4.61936e-06
4.83753e-06
5.09062e-06
5.38461e-06
5.72567e-06
6.11868e-06
6.57271e-06
7.0726e-06
7.68829e-06
8.25526e-06
9.13514e-06
9.86933e-06
1.09787e-05
1.26565e-05
1.4049e-05
1.61928e-05
1.97713e-05
2.06489e-05
2.60094e-05
2.73195e-05
3.19011e-05
3.61175e-05
7.5493e-05
0.000270339
0.000917857
0.00111759
0.00296194
0.0031227
0.00750891
0.00992473
0.0157155
0.0232254
0.036912
0.0423518
0.24322
0.646591
4.24677e-06
4.40806e-06
4.59409e-06
4.81018e-06
5.06287e-06
5.35992e-06
5.70956e-06
6.1192e-06
6.59984e-06
7.13246e-06
7.79597e-06
8.43216e-06
9.2706e-06
1.04511e-05
1.12677e-05
1.38393e-05
1.50107e-05
1.83085e-05
1.98312e-05
2.41112e-05
2.69657e-05
3.21527e-05
3.45373e-05
3.96577e-05
5.36721e-05
0.000107851
0.000305572
0.000486024
0.00106543
0.0016869
0.00387207
0.00639347
0.00887498
0.0120096
0.0204903
0.021215
0.0294708
1.00974
4.18008e-06
4.33495e-06
4.51326e-06
4.72018e-06
4.962e-06
5.24626e-06
5.58073e-06
5.9723e-06
6.42543e-06
6.93349e-06
7.4906e-06
8.08663e-06
8.6751e-06
9.15313e-06
1.07383e-05
1.53248e-05
1.9084e-05
3.08933e-05
5.59443e-05
8.80359e-05
8.74904e-05
7.87121e-05
6.55856e-05
5.41427e-05
9.27424e-05
0.000358798
0.000818069
0.00105255
0.00187307
0.0032653
0.00671351
0.00981596
0.0192951
0.0297547
0.052997
0.103678
0.135337
1.5636
3.91573e-06
4.05344e-06
4.21015e-06
4.38975e-06
4.597e-06
4.83774e-06
5.11658e-06
5.43934e-06
5.79971e-06
6.202e-06
6.60566e-06
6.97507e-06
7.39859e-06
7.44111e-06
2.20334e-05
3.64947e-05
0.000100263
0.00022216
0.000342225
0.000382655
0.000478506
0.00044455
0.000506443
0.000379189
0.000226778
0.000331028
0.000657044
0.000986947
0.00148162
0.00244042
0.00512802
0.00863171
0.0150437
0.0230925
0.0397844
0.0725077
0.178323
1.03148
2.95519e-06
3.04783e-06
3.15261e-06
3.27185e-06
3.40818e-06
3.56452e-06
3.73993e-06
3.94991e-06
4.18499e-06
4.43745e-06
4.68439e-06
4.93143e-06
5.00399e-06
5.3731e-06
7.91389e-05
0.000200688
0.000220048
0.000328128
0.000382015
0.000329954
0.000373835
0.000531949
0.000545582
0.000541775
0.000621421
0.00069704
0.00103871
0.00153139
0.0028045
0.00673907
0.0134752
0.0237257
0.0604422
0.15911
0.261729
0.380238
0.850609
2.15307
2.41522e-06
2.4701e-06
2.53126e-06
2.59927e-06
2.67461e-06
2.75781e-06
2.84947e-06
2.94979e-06
3.05885e-06
3.17688e-06
3.30278e-06
3.4364e-06
3.57014e-06
3.70074e-06
3.88251e-06
2.2477e-05
0.00141329
0.0129615
0.017399
0.0170777
0.0155032
0.0159118
0.019401
0.0246759
0.0338115
0.0364123
0.040575
0.0576367
0.0925774
0.21475
0.387235
0.581666
0.75907
1.22106
1.89276
3.15647
6.04202
7.20203
1.61426e-06
1.63237e-06
1.65353e-06
1.67813e-06
1.70654e-06
1.7391e-06
1.77612e-06
1.81788e-06
1.86536e-06
1.91981e-06
1.985e-06
2.06504e-06
2.18885e-06
2.42066e-06
3.0252e-06
5.89751e-06
0.000134701
0.00318356
0.0124937
0.0216721
0.0221172
0.0218208
0.0220975
0.0223387
0.0225232
0.0245837
0.0212475
0.0297999
0.0548838
0.0748631
0.0940397
0.337248
0.194082
0.283973
0.754107
0.759021
4.87125
5.13257
1.52254e-06
1.54101e-06
1.56287e-06
1.58862e-06
1.61874e-06
1.65372e-06
1.69404e-06
1.74e-06
1.79239e-06
1.8514e-06
1.9203e-06
1.9993e-06
2.10482e-06
2.25885e-06
2.56614e-06
3.29274e-06
8.31773e-06
0.000182098
0.00106486
0.00293627
0.00430496
0.00579532
0.00594597
0.00419592
0.00243638
0.00208633
0.00128309
0.00137919
0.00247465
0.00688342
0.00989937
0.0550892
0.0498138
0.0834627
0.241269
0.186786
0.393764
2.70184
1.50131e-06
1.52007e-06
1.54244e-06
1.56899e-06
1.60032e-06
1.63695e-06
1.67948e-06
1.72839e-06
1.78481e-06
1.84909e-06
1.92421e-06
2.01176e-06
2.12237e-06
2.26867e-06
2.5271e-06
2.94361e-06
3.8831e-06
1.03283e-05
6.0926e-05
0.000153727
0.000345603
0.000484208
0.000721519
0.000586986
0.000419179
0.000283523
0.00032742
0.000326463
0.00069532
0.00334241
0.00696073
0.027576
0.0273306
0.0512842
0.0517364
0.0857278
0.259455
0.780346
1.49522e-06
1.51381e-06
1.53617e-06
1.56298e-06
1.59502e-06
1.63307e-06
1.67802e-06
1.73023e-06
1.79138e-06
1.86029e-06
1.94317e-06
2.03529e-06
2.15214e-06
2.29122e-06
2.48833e-06
2.75685e-06
3.20364e-06
3.79821e-06
6.35105e-06
1.22896e-05
2.81743e-05
4.08254e-05
7.23533e-05
7.08876e-05
7.20027e-05
7.13903e-05
9.96145e-05
0.000213532
0.000611298
0.000824844
0.00140599
0.00664303
0.00848348
0.0111845
0.0238987
0.0982848
0.308725
0.724074
1.49194e-06
1.51019e-06
1.53233e-06
1.55918e-06
1.5916e-06
1.63038e-06
1.67658e-06
1.73061e-06
1.79503e-06
1.86784e-06
1.95763e-06
2.05823e-06
2.1848e-06
2.36183e-06
2.5516e-06
2.88441e-06
3.3217e-06
3.59653e-06
4.33126e-06
4.70243e-06
6.13545e-06
7.5942e-06
1.10763e-05
1.31413e-05
1.90413e-05
3.35924e-05
9.66581e-05
0.000120185
0.000317826
0.00111797
0.00119449
0.00218716
0.00373466
0.00989445
0.016613
0.365138
0.934049
1.29767
1.4889e-06
1.50669e-06
1.52856e-06
1.55552e-06
1.58881e-06
1.62966e-06
1.67971e-06
1.73878e-06
1.81178e-06
1.88873e-06
2.00012e-06
2.0907e-06
2.26598e-06
2.43519e-06
2.64325e-06
3.05549e-06
3.3533e-06
3.67333e-06
4.62218e-06
4.67834e-06
5.64667e-06
6.55289e-06
7.50593e-06
1.17829e-05
2.84412e-05
4.11263e-05
0.000128414
0.000319819
0.000448083
0.00125082
0.00170389
0.00279136
0.00333706
0.00923926
0.0147056
0.190273
0.795428
0.83168
1.48656e-06
1.50392e-06
1.52555e-06
1.55262e-06
1.58652e-06
1.62859e-06
1.68076e-06
1.74271e-06
1.82079e-06
1.9009e-06
2.02487e-06
2.11958e-06
2.32751e-06
2.52261e-06
2.9036e-06
3.84972e-06
4.19545e-06
5.04099e-06
5.74637e-06
6.21127e-06
7.15417e-06
1.06146e-05
9.1376e-06
1.42614e-05
6.49857e-05
0.000265616
0.000961297
0.00128996
0.00212289
0.00264231
0.00446215
0.00620183
0.0100318
0.0139823
0.0291635
0.0285417
0.107018
0.863422
1.48838e-06
1.50539e-06
1.52695e-06
1.55462e-06
1.59048e-06
1.63659e-06
1.69576e-06
1.76679e-06
1.85923e-06
1.94857e-06
2.10032e-06
2.21322e-06
2.47136e-06
2.76803e-06
3.52573e-06
4.63236e-06
5.09363e-06
6.91997e-06
7.89674e-06
1.10779e-05
1.14064e-05
1.29289e-05
1.30634e-05
1.44966e-05
2.58187e-05
6.64704e-05
0.00019728
0.000323129
0.000520558
0.00090504
0.00164431
0.00328259
0.00285125
0.0033744
0.00726265
0.0117045
0.0369797
0.443689
1.50902e-06
1.52596e-06
1.54763e-06
1.5758e-06
1.61286e-06
1.66148e-06
1.72467e-06
1.80306e-06
1.90047e-06
2.00983e-06
2.13559e-06
2.30835e-06
2.46738e-06
2.95633e-06
6.07842e-06
1.03756e-05
2.40732e-05
5.64272e-05
7.72893e-05
7.71787e-05
7.47553e-05
5.73738e-05
5.17534e-05
4.93034e-05
0.000103787
0.000265171
0.000862008
0.00113138
0.00170398
0.00287249
0.00496282
0.00871441
0.016986
0.0206667
0.0270692
0.0531839
0.170014
3.98256
1.6118e-06
1.63203e-06
1.65787e-06
1.69144e-06
1.73557e-06
1.7931e-06
1.86755e-06
1.95821e-06
2.06785e-06
2.18813e-06
2.30607e-06
2.47385e-06
2.85658e-06
4.15113e-06
2.60913e-05
6.88042e-05
0.000250189
0.000475078
0.000577096
0.00062796
0.000794604
0.00082402
0.000845183
0.000804364
0.000636531
0.000687007
0.000990149
0.00146925
0.00223567
0.00325255
0.00539981
0.00920263
0.0149021
0.0277127
0.0429621
0.0740901
0.212271
1.05597
2.36842e-06
2.41502e-06
2.46757e-06
2.52717e-06
2.59512e-06
2.67279e-06
2.7612e-06
2.86079e-06
2.97051e-06
3.08713e-06
3.19685e-06
3.31791e-06
3.35466e-06
4.08258e-06
7.87377e-05
0.00019098
0.000225547
0.000312142
0.000448002
0.000430077
0.000415297
0.000576071
0.000584458
0.000488745
0.000489108
0.000570777
0.000758544
0.00110793
0.00205824
0.00504039
0.0101512
0.0173246
0.0471253
0.132795
0.210031
0.328552
0.723507
1.62939
2.65316e-06
2.71067e-06
2.77497e-06
2.84664e-06
2.92625e-06
3.01429e-06
3.11116e-06
3.21713e-06
3.33252e-06
3.45747e-06
3.59092e-06
3.73282e-06
3.87743e-06
4.02493e-06
4.17446e-06
1.15648e-05
0.000866325
0.0113904
0.0155955
0.0120211
0.00966682
0.0117354
0.023493
0.0280258
0.0417593
0.0480476
0.0531647
0.0712885
0.0969407
0.191722
0.355909
0.497373
0.729835
1.17389
1.59845
2.73842
3.89847
4.83451
1.24046e-06
1.25062e-06
1.26284e-06
1.27735e-06
1.29436e-06
1.31401e-06
1.33639e-06
1.36159e-06
1.39085e-06
1.42525e-06
1.46872e-06
1.52596e-06
1.62184e-06
1.80594e-06
2.32874e-06
4.72504e-06
7.67487e-05
0.00237942
0.0086144
0.0130307
0.0142293
0.0145481
0.016042
0.0170825
0.0205365
0.0267778
0.0236507
0.0379751
0.0469823
0.0393972
0.0820742
0.0810769
0.0847661
0.137423
0.237159
0.379389
0.743392
1.79013
1.02631e-06
1.03579e-06
1.04754e-06
1.06187e-06
1.07902e-06
1.09918e-06
1.12244e-06
1.14871e-06
1.17829e-06
1.21113e-06
1.24963e-06
1.29484e-06
1.36036e-06
1.46166e-06
1.69176e-06
2.2769e-06
5.86042e-06
0.000119136
0.000724694
0.00130785
0.00200494
0.00211347
0.00326458
0.00251185
0.001862
0.00184081
0.00133708
0.001551
0.00177086
0.00562435
0.00472081
0.0239457
0.0329246
0.0660411
0.16693
0.141686
0.711418
3.70568
9.759e-07
9.85889e-07
9.98435e-07
1.01391e-06
1.03262e-06
1.05476e-06
1.08052e-06
1.1099e-06
1.14347e-06
1.18109e-06
1.22509e-06
1.27723e-06
1.34747e-06
1.44743e-06
1.63709e-06
1.96991e-06
2.84449e-06
7.16914e-06
4.02069e-05
7.92346e-05
0.000171692
0.00018874
0.000393946
0.000341336
0.00023894
0.000232068
0.000284553
0.000296201
0.000486486
0.00141419
0.00193951
0.00739428
0.0131952
0.0126266
0.0490659
0.0441369
0.322429
1.77246
9.64004e-07
9.74227e-07
9.87263e-07
1.00361e-06
1.0238e-06
1.04823e-06
1.07727e-06
1.11064e-06
1.14905e-06
1.19137e-06
1.24153e-06
1.29826e-06
1.37062e-06
1.46785e-06
1.61637e-06
1.81882e-06
2.2426e-06
2.70323e-06
4.56327e-06
7.7004e-06
1.63378e-05
2.05863e-05
4.23419e-05
5.44924e-05
5.37755e-05
6.17102e-05
9.76113e-05
0.000118332
0.000404673
0.000544264
0.000651843
0.00129483
0.00348684
0.00429075
0.00911182
0.0916438
0.341788
0.51106
9.60815e-07
9.71159e-07
9.84605e-07
1.0018e-06
1.02332e-06
1.04957e-06
1.08105e-06
1.11759e-06
1.16078e-06
1.2086e-06
1.26747e-06
1.3338e-06
1.42147e-06
1.5497e-06
1.71402e-06
1.97367e-06
2.34644e-06
2.57608e-06
3.13809e-06
3.48186e-06
4.47471e-06
5.55181e-06
7.70613e-06
1.23595e-05
1.33976e-05
2.56962e-05
5.65761e-05
6.04568e-05
0.000251227
0.000299969
0.000428047
0.000779899
0.00170786
0.00416603
0.00809858
0.1471
0.409654
0.307275
9.59542e-07
9.70037e-07
9.84003e-07
1.00234e-06
1.0261e-06
1.05612e-06
1.09334e-06
1.13687e-06
1.18925e-06
1.243e-06
1.31712e-06
1.38238e-06
1.49848e-06
1.63799e-06
1.81506e-06
2.17704e-06
2.47632e-06
2.75872e-06
3.42524e-06
3.55742e-06
4.13261e-06
4.83142e-06
5.82697e-06
1.03035e-05
1.79513e-05
2.092e-05
3.71576e-05
6.26237e-05
9.56086e-05
0.000182859
0.000340977
0.000550755
0.00096611
0.00326394
0.00923086
0.0461591
0.355971
0.396548
9.60569e-07
9.71306e-07
9.85972e-07
1.00573e-06
1.03188e-06
1.06549e-06
1.10786e-06
1.158e-06
1.21994e-06
1.28221e-06
1.37448e-06
1.44935e-06
1.60814e-06
1.80224e-06
2.19065e-06
3.10957e-06
3.37051e-06
3.97343e-06
4.4073e-06
4.5052e-06
4.97039e-06
5.64877e-06
6.00492e-06
9.10845e-06
2.43877e-05
4.56384e-05
9.45137e-05
0.000126767
0.000215785
0.000282235
0.000682512
0.00084885
0.00150771
0.0044018
0.0159213
0.0212401
0.0569913
0.12542
9.72457e-07
9.83818e-07
9.99777e-07
1.02206e-06
1.05284e-06
1.0941e-06
1.1481e-06
1.21368e-06
1.2963e-06
1.37699e-06
1.49988e-06
1.59846e-06
1.81189e-06
2.13459e-06
3.0257e-06
4.42535e-06
5.40304e-06
8.0654e-06
9.31292e-06
1.07833e-05
1.07903e-05
1.06111e-05
1.12348e-05
1.25501e-05
1.81535e-05
2.96166e-05
5.8299e-05
9.17257e-05
0.000136788
0.000286857
0.000415825
0.000556663
0.000761747
0.0011585
0.00356026
0.00842991
0.0302788
0.195027
1.02879e-06
1.04187e-06
1.06036e-06
1.0865e-06
1.12325e-06
1.17387e-06
1.24235e-06
1.33007e-06
1.43836e-06
1.55588e-06
1.68012e-06
1.83824e-06
2.02738e-06
2.66131e-06
7.88855e-06
1.6637e-05
3.538e-05
7.51995e-05
9.07282e-05
8.55454e-05
7.87347e-05
6.91232e-05
7.07892e-05
7.37011e-05
8.95647e-05
0.000139347
0.000233125
0.00040658
0.00057058
0.000877202
0.0016196
0.00274468
0.00506847
0.00705216
0.0138496
0.0339806
0.197439
1.21472
1.26835e-06
1.28987e-06
1.31902e-06
1.35885e-06
1.41353e-06
1.48815e-06
1.58819e-06
1.71156e-06
1.85263e-06
1.99373e-06
2.14423e-06
2.321e-06
2.76098e-06
5.61122e-06
4.86922e-05
0.000139657
0.000463151
0.000719136
0.000788353
0.000880322
0.0010958
0.00117135
0.00131811
0.00149923
0.00157449
0.00187791
0.00223406
0.00302722
0.00367662
0.00493792
0.00777485
0.0114645
0.0177122
0.0338332
0.0674848
0.091219
0.17933
0.547816
2.59502e-06
2.64098e-06
2.69263e-06
2.75103e-06
2.81748e-06
2.89346e-06
2.98031e-06
3.07874e-06
3.18992e-06
3.30507e-06
3.43735e-06
3.54008e-06
3.76154e-06
8.48114e-06
0.000160015
0.000308347
0.0003586
0.000478986
0.000668507
0.000692789
0.000781027
0.000976225
0.000980664
0.000913595
0.00100354
0.0011963
0.00134069
0.00185473
0.00301203
0.00751879
0.0158261
0.0247866
0.062498
0.18803
0.335962
0.44341
0.724903
1.55266
2.73436e-06
2.79289e-06
2.8585e-06
2.93183e-06
3.01349e-06
3.104e-06
3.20376e-06
3.31312e-06
3.43252e-06
3.56209e-06
3.70089e-06
3.84906e-06
4.00146e-06
4.16063e-06
4.3113e-06
4.95814e-06
8.54431e-05
0.00472174
0.011425
0.00694969
0.00294946
0.0050036
0.024736
0.0335849
0.0477371
0.0574032
0.0622253
0.078726
0.0932835
0.145724
0.250116
0.305785
0.566108
1.07857
1.53374
2.18901
2.70055
3.15761
1.11907e-06
1.1299e-06
1.14283e-06
1.1581e-06
1.1759e-06
1.19637e-06
1.21958e-06
1.24575e-06
1.27618e-06
1.31196e-06
1.35686e-06
1.41597e-06
1.5111e-06
1.68515e-06
2.13321e-06
3.69505e-06
1.78674e-05
0.000594428
0.00299668
0.00303058
0.00313171
0.00354295
0.00862449
0.01654
0.0225746
0.0348465
0.0319371
0.041861
0.0526342
0.0349549
0.0783787
0.0400224
0.0524305
0.153454
0.186628
0.266014
0.443885
1.11613
8.45622e-07
8.5573e-07
8.68158e-07
8.83186e-07
9.01032e-07
9.21819e-07
9.45576e-07
9.72101e-07
1.00156e-06
1.03395e-06
1.0713e-06
1.11543e-06
1.17795e-06
1.27615e-06
1.48772e-06
1.98859e-06
3.86867e-06
2.71431e-05
0.000207338
0.000311692
0.000462742
0.000425836
0.000890597
0.00189823
0.00196745
0.00237807
0.0019297
0.00160979
0.0018999
0.00223214
0.00274916
0.00961305
0.0203852
0.0242328
0.0820052
0.0770229
0.378729
2.10906
7.77478e-07
7.88315e-07
8.01809e-07
8.18317e-07
8.38117e-07
8.61351e-07
8.88085e-07
9.18232e-07
9.52161e-07
9.89675e-07
1.0327e-06
1.08341e-06
1.15054e-06
1.2476e-06
1.42416e-06
1.73641e-06
2.49409e-06
4.34632e-06
1.39493e-05
2.51835e-05
4.79692e-05
5.43407e-05
0.000107668
0.0002051
0.000193614
0.00026765
0.000288892
0.000287063
0.000325878
0.00076826
0.000786773
0.00315348
0.00742404
0.00563166
0.0227899
0.0287574
0.123991
0.802929
7.60714e-07
7.72048e-07
7.86382e-07
8.04234e-07
8.26102e-07
8.52305e-07
8.83045e-07
9.17903e-07
9.57124e-07
9.99849e-07
1.04897e-06
1.1051e-06
1.17527e-06
1.27291e-06
1.41851e-06
1.63126e-06
2.03113e-06
2.45701e-06
3.51666e-06
4.71697e-06
7.81253e-06
1.03447e-05
1.75367e-05
4.01151e-05
4.76106e-05
7.00197e-05
0.000103979
9.86418e-05
0.000202715
0.000247312
0.000333841
0.000691848
0.00174713
0.00240455
0.00764992
0.0453011
0.15054
0.133424
7.56928e-07
7.68678e-07
7.83816e-07
8.03007e-07
8.26863e-07
8.55777e-07
8.90119e-07
9.29665e-07
9.7555e-07
1.02613e-06
1.08652e-06
1.15519e-06
1.24451e-06
1.3737e-06
1.54566e-06
1.80356e-06
2.15483e-06
2.40382e-06
2.93401e-06
3.24371e-06
3.99223e-06
4.8799e-06
6.41288e-06
1.10057e-05
1.28098e-05
2.08646e-05
4.10592e-05
4.56384e-05
8.55184e-05
0.00014864
0.000208874
0.000360892
0.000827578
0.00183457
0.00473543
0.0608752
0.248624
0.0874402
7.56449e-07
7.68667e-07
7.84797e-07
8.05858e-07
8.32976e-07
8.67077e-07
9.08979e-07
9.57802e-07
1.01509e-06
1.07459e-06
1.14996e-06
1.22405e-06
1.33681e-06
1.49058e-06
1.68527e-06
2.07376e-06
2.41966e-06
2.71425e-06
3.31023e-06
3.47958e-06
3.9828e-06
4.61939e-06
5.60899e-06
9.68118e-06
1.4994e-05
1.71176e-05
2.44105e-05
3.5755e-05
4.57902e-05
7.19415e-05
0.000144569
0.000231351
0.000477424
0.00193269
0.00673136
0.0248111
0.142143
0.131073
7.59871e-07
7.72735e-07
7.90157e-07
8.13506e-07
8.44325e-07
8.83993e-07
9.34064e-07
9.9403e-07
1.06726e-06
1.14315e-06
1.24556e-06
1.33803e-06
1.50626e-06
1.7498e-06
2.18827e-06
3.15124e-06
3.52535e-06
4.0325e-06
4.56954e-06
4.65013e-06
5.05624e-06
5.47326e-06
5.84152e-06
8.19746e-06
1.54974e-05
1.80274e-05
2.54976e-05
2.93611e-05
4.33846e-05
6.00831e-05
0.000120608
0.000222071
0.000542225
0.00246459
0.0136981
0.0256716
0.0503261
0.0632378
7.78837e-07
7.92866e-07
8.12398e-07
8.39544e-07
8.76993e-07
9.27684e-07
9.95078e-07
1.07942e-06
1.18356e-06
1.28553e-06
1.42304e-06
1.54492e-06
1.78251e-06
2.22048e-06
3.40997e-06
5.63122e-06
7.55363e-06
1.05067e-05
1.19326e-05
1.18977e-05
1.20568e-05
1.21169e-05
1.30925e-05
1.52795e-05
2.12778e-05
3.11896e-05
4.4305e-05
7.06771e-05
9.14192e-05
0.000164791
0.00028756
0.000388495
0.000625789
0.000850694
0.00257678
0.00912692
0.0205802
0.120744
8.56252e-07
8.72897e-07
8.96255e-07
9.29221e-07
9.75954e-07
1.04191e-06
1.13365e-06
1.25067e-06
1.38932e-06
1.53709e-06
1.70228e-06
1.87392e-06
2.2292e-06
3.80179e-06
1.3757e-05
3.36471e-05
6.17629e-05
0.000102092
0.00010282
9.88411e-05
9.94362e-05
0.000103584
0.000123696
0.0001475
0.000185049
0.000320753
0.000435935
0.000682282
0.000841348
0.00115641
0.00203458
0.00309087
0.00502225
0.00611155
0.0113139
0.0240717
0.130905
0.728595
1.16172e-06
1.18865e-06
1.22524e-06
1.27577e-06
1.34666e-06
1.44379e-06
1.57119e-06
1.72863e-06
1.91538e-06
2.10501e-06
2.32195e-06
2.56709e-06
3.52156e-06
1.56251e-05
0.000103882
0.000302278
0.000759669
0.000995156
0.00103852
0.00127527
0.00155895
0.00178735
0.00226486
0.00270453
0.0031656
0.00411336
0.00467099
0.0056931
0.00646275
0.00831107
0.0130314
0.0189177
0.0286922
0.0514423
0.101168
0.0976913
0.139315
0.413896
2.66921e-06
2.71393e-06
2.76403e-06
2.82056e-06
2.88486e-06
2.9587e-06
3.044e-06
3.14368e-06
3.25579e-06
3.38243e-06
3.5533e-06
3.88726e-06
5.18527e-06
3.6559e-05
0.000293203
0.0004405
0.000509664
0.000720996
0.000972302
0.00104021
0.00127057
0.00156801
0.00166239
0.00179897
0.00221398
0.00241877
0.00247054
0.00290978
0.00405134
0.0099089
0.0214737
0.0311712
0.0658833
0.198729
0.39687
0.495559
0.691828
1.37799
2.76451e-06
2.82342e-06
2.88958e-06
2.96367e-06
3.0463e-06
3.13803e-06
3.23929e-06
3.3505e-06
3.47212e-06
3.60431e-06
3.74619e-06
3.89803e-06
4.05535e-06
4.22185e-06
4.38398e-06
4.59323e-06
7.81117e-06
0.000399666
0.00341024
0.00327647
0.000879513
0.00303383
0.0232153
0.0400825
0.05338
0.0651075
0.0687333
0.0807535
0.0879786
0.111405
0.154819
0.177016
0.329944
0.764939
1.44355
1.66484
1.78216
2.74215
1.07112e-06
1.08295e-06
1.09696e-06
1.11341e-06
1.1325e-06
1.15436e-06
1.17911e-06
1.20698e-06
1.23934e-06
1.27733e-06
1.32447e-06
1.38588e-06
1.47972e-06
1.64152e-06
2.00784e-06
3.02239e-06
7.4987e-06
6.64372e-05
0.000519557
0.000589503
0.000521905
0.000833658
0.00677851
0.0209884
0.0303611
0.0448342
0.0397727
0.0498956
0.049398
0.0383604
0.044693
0.0251842
0.0404227
0.0979479
0.181488
0.192612
0.305647
0.508718
7.65812e-07
7.77201e-07
7.91032e-07
8.07588e-07
8.27086e-07
8.49641e-07
8.75248e-07
9.03674e-07
9.3502e-07
9.69381e-07
1.00856e-06
1.05478e-06
1.11795e-06
1.21523e-06
1.40661e-06
1.81889e-06
3.04939e-06
7.68059e-06
3.54385e-05
6.25823e-05
9.21951e-05
0.000108787
0.000549208
0.00227014
0.00324583
0.0039166
0.00303723
0.00243378
0.0020733
0.00182619
0.00171146
0.00426213
0.0126184
0.0107312
0.0255941
0.0791969
0.450437
1.0913
6.86167e-07
6.98498e-07
7.13659e-07
7.32018e-07
7.5386e-07
7.79324e-07
8.0843e-07
8.41067e-07
8.77495e-07
9.17528e-07
9.62824e-07
1.01585e-06
1.08419e-06
1.18189e-06
1.34772e-06
1.63197e-06
2.25394e-06
3.39869e-06
6.26095e-06
9.46041e-06
1.62368e-05
2.1996e-05
5.98793e-05
0.000211688
0.000253311
0.000414814
0.000404557
0.000316708
0.00032048
0.000367468
0.000497694
0.00224974
0.00311693
0.00252124
0.00801004
0.0222356
0.0659925
0.206648
6.65689e-07
6.78731e-07
6.95022e-07
7.15113e-07
7.39521e-07
7.68546e-07
8.02337e-07
8.40407e-07
8.82726e-07
9.28612e-07
9.80408e-07
1.03978e-06
1.11299e-06
1.2146e-06
1.36117e-06
1.58027e-06
1.94592e-06
2.35191e-06
3.09935e-06
3.75367e-06
5.41456e-06
7.31122e-06
1.29339e-05
3.69709e-05
5.2118e-05
8.58499e-05
0.000117657
0.000105974
0.000145691
0.000184607
0.000224077
0.000490459
0.000889401
0.00151732
0.00667512
0.0553478
0.0677295
0.0640667
6.61289e-07
6.74965e-07
6.92355e-07
7.14195e-07
7.41165e-07
7.73737e-07
8.12298e-07
8.56716e-07
9.07816e-07
9.64312e-07
1.03025e-06
1.10561e-06
1.20125e-06
1.33631e-06
1.51461e-06
1.77318e-06
2.10456e-06
2.37779e-06
2.89291e-06
3.23054e-06
3.92274e-06
4.76586e-06
6.31155e-06
1.07237e-05
1.33637e-05
2.03745e-05
3.78343e-05
4.2382e-05
6.11185e-05
0.000116919
0.000142729
0.000248421
0.000488643
0.00112387
0.0040962
0.0454176
0.118615
0.0525953
6.61368e-07
6.75763e-07
6.94539e-07
7.18864e-07
7.50052e-07
7.89274e-07
8.37584e-07
8.94289e-07
9.60047e-07
1.02889e-06
1.11074e-06
1.19557e-06
1.31432e-06
1.48685e-06
1.70762e-06
2.12474e-06
2.51344e-06
2.83542e-06
3.38342e-06
3.5996e-06
4.09764e-06
4.74848e-06
5.7304e-06
9.13174e-06
1.39058e-05
1.63929e-05
2.39849e-05
3.04194e-05
4.163e-05
6.00917e-05
0.000111246
0.000170644
0.000361033
0.0013881
0.0056871
0.0224864
0.0684512
0.0590571
6.66713e-07
6.82068e-07
7.02623e-07
7.30017e-07
7.66206e-07
8.13272e-07
8.7359e-07
9.46913e-07
1.03432e-06
1.12617e-06
1.24403e-06
1.36454e-06
1.55968e-06
1.88941e-06
2.39254e-06
3.42634e-06
3.92463e-06
4.40911e-06
5.01031e-06
5.14281e-06
5.54962e-06
6.03165e-06
6.39874e-06
8.27172e-06
1.31304e-05
1.55853e-05
2.02972e-05
2.29572e-05
3.15136e-05
4.48868e-05
7.94368e-05
0.000149821
0.000390644
0.00166238
0.00900255
0.0303311
0.0455548
0.0418612
6.90994e-07
7.07945e-07
7.31322e-07
7.63764e-07
8.08973e-07
8.71705e-07
9.56402e-07
1.06094e-06
1.18915e-06
1.32441e-06
1.49481e-06
1.66141e-06
1.99202e-06
2.76099e-06
4.56143e-06
8.09086e-06
1.10794e-05
1.36657e-05
1.43164e-05
1.40463e-05
1.43109e-05
1.51522e-05
1.76602e-05
2.14294e-05
2.94082e-05
4.65576e-05
6.2722e-05
9.30756e-05
0.00011683
0.000191512
0.00029815
0.000542384
0.000757456
0.000849875
0.00186713
0.00711744
0.0143194
0.0710035
7.82146e-07
8.02334e-07
8.30567e-07
8.70747e-07
9.29046e-07
1.01247e-06
1.1264e-06
1.2757e-06
1.46142e-06
1.67065e-06
1.89329e-06
2.22947e-06
3.20163e-06
9.66621e-06
3.16709e-05
7.21565e-05
0.00010891
0.000132936
0.000129272
0.000133165
0.000144398
0.00017135
0.000239209
0.000299704
0.000391453
0.000632791
0.00080353
0.00109942
0.00130141
0.00181953
0.00307044
0.00441408
0.0067548
0.00675068
0.0101056
0.0170582
0.0716016
0.410157
1.12275e-06
1.15416e-06
1.19748e-06
1.25812e-06
1.34239e-06
1.45991e-06
1.62232e-06
1.8349e-06
2.08846e-06
2.38191e-06
2.69402e-06
3.53069e-06
9.4107e-06
7.7178e-05
0.000243838
0.000550178
0.00108583
0.00120141
0.00140941
0.0019034
0.00222613
0.00280748
0.0037314
0.00439435
0.00514166
0.00632302
0.00703407
0.00803423
0.00907352
0.0117484
0.0180537
0.0260095
0.0380075
0.0585578
0.108031
0.0989039
0.114093
0.274999
2.69442e-06
2.73791e-06
2.78653e-06
2.8414e-06
2.90412e-06
2.97698e-06
3.06329e-06
3.16556e-06
3.28091e-06
3.52734e-06
4.14957e-06
5.90988e-06
1.89991e-05
0.0001605
0.000484907
0.000614849
0.000749156
0.00102884
0.00138504
0.00155078
0.00194727
0.00243161
0.00273653
0.00326707
0.00389348
0.00408473
0.00406329
0.00424006
0.00522978
0.0119294
0.0263442
0.0369996
0.0635762
0.185952
0.403515
0.51703
0.630206
1.19749
2.77549e-06
2.83464e-06
2.90115e-06
2.97571e-06
3.05895e-06
3.15143e-06
3.25372e-06
3.36612e-06
3.48909e-06
3.62282e-06
3.76651e-06
3.92044e-06
4.08085e-06
4.25163e-06
4.42091e-06
4.62197e-06
4.95933e-06
2.25869e-05
0.000332515
0.00043022
0.000200216
0.00359205
0.026
0.0453956
0.0583659
0.0711499
0.0744546
0.0803442
0.0832067
0.0906343
0.106721
0.117398
0.180931
0.394269
1.16109
1.39422
1.25475
2.09544
1.05167e-06
1.06407e-06
1.0787e-06
1.09582e-06
1.11565e-06
1.13835e-06
1.16403e-06
1.19292e-06
1.22638e-06
1.26571e-06
1.31407e-06
1.37642e-06
1.46744e-06
1.61601e-06
1.91248e-06
2.59834e-06
4.65576e-06
1.34383e-05
5.81382e-05
9.06697e-05
0.000114707
0.000657272
0.00807847
0.0271097
0.0395705
0.0496915
0.0487807
0.0517132
0.0528732
0.0430909
0.0345346
0.0213962
0.0295633
0.0601385
0.139047
0.188785
0.164839
0.336763
7.29348e-07
7.41686e-07
7.56558e-07
7.74257e-07
7.95007e-07
8.18925e-07
8.45994e-07
8.75969e-07
9.08923e-07
9.45019e-07
9.85868e-07
1.03392e-06
1.09747e-06
1.19246e-06
1.36285e-06
1.69773e-06
2.47339e-06
4.43519e-06
9.21144e-06
1.48103e-05
2.58786e-05
5.8413e-05
0.000676706
0.00314127
0.00540972
0.0057603
0.00446603
0.00319172
0.00281777
0.00210109
0.00162859
0.0021999
0.00592063
0.00381922
0.00782826
0.0321043
0.266687
0.35847
6.42357e-07
6.55859e-07
6.72331e-07
6.92162e-07
7.15659e-07
7.42977e-07
7.74117e-07
8.0898e-07
8.47677e-07
8.90061e-07
9.376e-07
9.929e-07
1.06247e-06
1.15994e-06
1.31466e-06
1.56965e-06
2.06225e-06
2.88766e-06
4.35487e-06
5.672e-06
8.87344e-06
1.46834e-05
6.35817e-05
0.000280245
0.000482916
0.000659769
0.000584103
0.000415557
0.000370916
0.000334125
0.000413014
0.000936367
0.00112828
0.00119234
0.0033051
0.00937279
0.0253768
0.0684258
6.19249e-07
6.33649e-07
6.51508e-07
6.73426e-07
6.99958e-07
7.31427e-07
7.67989e-07
8.09063e-07
8.54427e-07
9.03363e-07
9.57942e-07
1.02059e-06
1.0969e-06
1.20145e-06
1.34758e-06
1.56507e-06
1.89533e-06
2.29436e-06
2.87282e-06
3.43976e-06
4.61766e-06
6.31216e-06
1.22361e-05
3.80396e-05
6.3718e-05
0.000108839
0.00012951
0.00011938
0.000130746
0.000183825
0.000191191
0.000320753
0.000519282
0.00102767
0.00400838
0.0280551
0.0369709
0.0295015
6.14364e-07
6.29576e-07
6.48791e-07
6.72835e-07
7.025e-07
7.38426e-07
7.81061e-07
8.30338e-07
8.8674e-07
9.48758e-07
1.01981e-06
1.10127e-06
1.20265e-06
1.34394e-06
1.52702e-06
1.78447e-06
2.10045e-06
2.40772e-06
2.87883e-06
3.29362e-06
3.9328e-06
4.83061e-06
6.45621e-06
1.07456e-05
1.41636e-05
2.14524e-05
3.50688e-05
4.04733e-05
5.16662e-05
9.12728e-05
0.000114037
0.0001975
0.000334042
0.000761137
0.00251813
0.0199455
0.0395806
0.023184
6.14882e-07
6.31032e-07
6.51994e-07
6.79132e-07
7.14092e-07
7.58458e-07
8.1352e-07
8.78036e-07
9.51556e-07
1.02895e-06
1.11917e-06
1.2169e-06
1.34798e-06
1.54354e-06
1.7988e-06
2.2358e-06
2.65283e-06
3.00855e-06
3.51482e-06
3.78906e-06
4.27124e-06
4.96453e-06
5.91213e-06
8.71268e-06
1.32152e-05
1.67214e-05
2.48722e-05
3.12441e-05
4.29719e-05
5.95009e-05
0.000103353
0.000156158
0.000314869
0.00105555
0.00389119
0.0176455
0.0324562
0.0258083
6.21737e-07
6.39122e-07
6.6233e-07
6.93389e-07
7.34907e-07
7.89821e-07
8.60108e-07
9.45501e-07
1.04959e-06
1.1643e-06
1.30749e-06
1.46617e-06
1.71825e-06
2.15282e-06
2.75269e-06
3.84249e-06
4.44177e-06
4.9326e-06
5.5431e-06
5.74417e-06
6.17552e-06
6.74812e-06
7.1964e-06
8.78215e-06
1.26268e-05
1.52832e-05
2.02801e-05
2.32893e-05
3.15117e-05
4.52692e-05
7.43338e-05
0.000137432
0.0003324