/*--------------------------------*- C++ -*----------------------------------*\
| =========                 |                                                 |
| \\      /  F ield         | OpenFOAM: The Open Source CFD Toolbox           |
|  \\    /   O peration     | Version:  2.3.1                                 |
|   \\  /    A nd           | Web:      www.OpenFOAM.org                      |
|    \\/     M anipulation  |                                                 |
\*---------------------------------------------------------------------------*/
FoamFile
{
    version     2.0;
    format      ascii;
    class       volScalarField;
    location    "5";
    object      k;
}
// * * * * * * * * * * * * * * * * * * * * * * * * * * * * * * * * * * * * * //

dimensions      [0 2 -2 0 0 0 0];

internalField   nonuniform List<scalar> 
38262
(
1.21871e-05
1.24683e-05
1.27777e-05
1.3117e-05
1.34863e-05
1.38857e-05
1.43446e-05
1.48499e-05
1.53935e-05
1.59749e-05
1.65844e-05
1.72236e-05
1.78509e-05
1.84899e-05
1.95056e-05
7.3684e-05
0.00103503
0.00407299
0.00486007
0.00481811
0.00477907
0.00477734
0.00514557
0.00663157
0.00718347
0.00742683
0.00815637
0.0111485
0.0178087
0.0328964
0.0408165
0.0540825
0.0651792
0.0922015
0.126396
0.181825
0.306724
0.501241
1.47431e-05
1.51378e-05
1.55783e-05
1.60685e-05
1.66122e-05
1.72126e-05
1.78721e-05
1.85914e-05
1.93687e-05
2.01994e-05
2.10697e-05
2.19736e-05
2.28537e-05
2.3729e-05
2.43981e-05
2.71791e-05
0.000140371
0.00111485
0.00207481
0.00299846
0.00411603
0.00473661
0.00472991
0.00493249
0.00431219
0.00335922
0.00264461
0.00303723
0.00329333
0.00576819
0.00610403
0.0179144
0.0182534
0.022509
0.0380868
0.0449968
0.108799
0.231437
1.52948e-05
1.56972e-05
1.6147e-05
1.66491e-05
1.72078e-05
1.78273e-05
1.85112e-05
1.92623e-05
2.0081e-05
2.09685e-05
2.19172e-05
2.29364e-05
2.39832e-05
2.51459e-05
2.61795e-05
2.76796e-05
3.23313e-05
0.000115396
0.000350513
0.000638974
0.00103091
0.002107
0.00177193
0.00190894
0.00124044
0.000885645
0.000516855
0.000467673
0.000744135
0.0016809
0.00205279
0.00454149
0.00616613
0.0110837
0.015038
0.0184367
0.0358426
0.122745
1.53934e-05
1.57962e-05
1.62476e-05
1.6753e-05
1.73175e-05
1.79458e-05
1.86415e-05
1.94073e-05
2.02438e-05
2.11531e-05
2.21294e-05
2.31829e-05
2.42884e-05
2.55088e-05
2.67633e-05
2.83644e-05
2.98179e-05
3.54688e-05
5.573e-05
0.000100751
0.00012419
0.00041525
0.000281005
0.000509272
0.000385971
0.000330492
0.00021896
0.000274077
0.000317678
0.000593304
0.00140714
0.00408615
0.00473881
0.0107612
0.00783113
0.0117055
0.0149394
0.0524312
1.53883e-05
1.57891e-05
1.62396e-05
1.67458e-05
1.73137e-05
1.79495e-05
1.86589e-05
1.94478e-05
2.03187e-05
2.12783e-05
2.23209e-05
2.34809e-05
2.46865e-05
2.61729e-05
2.74163e-05
2.95992e-05
3.07707e-05
3.38243e-05
3.61501e-05
4.2827e-05
4.69955e-05
8.65139e-05
7.07462e-05
0.000124367
0.000106327
0.000116869
0.000138825
0.00032989
0.000311118
0.000873653
0.000909632
0.00211697
0.00208029
0.00611395
0.00633642
0.00793219
0.0187587
0.0429968
1.53632e-05
1.57612e-05
1.62098e-05
1.67159e-05
1.72865e-05
1.79281e-05
1.86458e-05
1.94439e-05
2.03251e-05
2.12916e-05
2.23494e-05
2.35003e-05
2.47464e-05
2.62084e-05
2.76313e-05
2.96439e-05
3.15932e-05
3.38766e-05
3.65987e-05
3.99648e-05
4.26585e-05
4.95833e-05
5.23578e-05
6.02125e-05
7.36812e-05
8.49271e-05
0.00010922
0.000216911
0.000292498
0.00064336
0.000997082
0.00105271
0.00151799
0.00273036
0.00832425
0.0361169
0.0504806
0.0770207
1.53355e-05
1.573e-05
1.61764e-05
1.66825e-05
1.72569e-05
1.79089e-05
1.86471e-05
1.94795e-05
2.0415e-05
2.14427e-05
2.26229e-05
2.38387e-05
2.52931e-05
2.70719e-05
2.83537e-05
3.14815e-05
3.29607e-05
3.62095e-05
3.86746e-05
4.14236e-05
4.556e-05
5.06253e-05
5.29824e-05
6.01063e-05
9.00972e-05
0.000122057
0.000223236
0.000236071
0.000520309
0.000612367
0.000965999
0.00120848
0.00159391
0.00246545
0.00488348
0.0319034
0.051634
0.0532571
1.53062e-05
1.56968e-05
1.61401e-05
1.66452e-05
1.72216e-05
1.78793e-05
1.86273e-05
1.94709e-05
2.04232e-05
2.14461e-05
2.26741e-05
2.37749e-05
2.54355e-05
2.67832e-05
2.87495e-05
3.16203e-05
3.39007e-05
3.72487e-05
4.25881e-05
4.38264e-05
5.11105e-05
5.28246e-05
5.85874e-05
6.3605e-05
0.000103358
0.000242654
0.000550237
0.000625792
0.00119478
0.00123255
0.00220736
0.00267203
0.00361902
0.00468505
0.00648374
0.00798976
0.0245747
0.044811
1.52588e-05
1.56434e-05
1.60812e-05
1.65825e-05
1.71593e-05
1.78251e-05
1.85931e-05
1.9473e-05
2.04805e-05
2.15681e-05
2.28861e-05
2.41152e-05
2.56845e-05
2.78276e-05
2.92593e-05
3.35518e-05
3.54183e-05
4.04331e-05
4.26508e-05
4.85654e-05
5.23387e-05
5.88537e-05
6.17386e-05
6.76893e-05
8.26306e-05
0.000131301
0.000263011
0.000358309
0.000604132
0.000819728
0.00142282
0.00199734
0.00248058
0.00301541
0.00435635
0.00446546
0.00557665
0.0581116
1.50983e-05
1.54696e-05
1.58918e-05
1.63747e-05
1.69304e-05
1.7572e-05
1.83123e-05
1.91601e-05
2.01182e-05
2.11655e-05
2.22845e-05
2.34513e-05
2.45763e-05
2.5468e-05
2.83389e-05
3.58747e-05
4.15306e-05
5.7248e-05
8.48494e-05
0.00011479
0.000114416
0.000106725
9.46235e-05
8.33191e-05
0.000118651
0.000292834
0.000507674
0.000600407
0.000881926
0.00127253
0.00205415
0.00264137
0.00414486
0.00552425
0.00813784
0.0126102
0.0147869
0.0796857
1.4454e-05
1.47915e-05
1.51711e-05
1.56004e-05
1.60886e-05
1.66466e-05
1.72814e-05
1.80018e-05
1.87892e-05
1.9649e-05
2.04932e-05
2.12489e-05
2.21025e-05
2.21858e-05
4.59081e-05
6.37735e-05
0.000125337
0.000213231
0.000284252
0.000306228
0.00035535
0.000338118
0.000369217
0.000305648
0.000215907
0.000277423
0.000437865
0.000574378
0.000752953
0.00104917
0.00171757
0.00242442
0.00352184
0.00468784
0.00675468
0.0099936
0.0179734
0.0574473
1.19796e-05
1.22292e-05
1.25084e-05
1.28225e-05
1.31769e-05
1.35775e-05
1.40199e-05
1.45404e-05
1.5112e-05
1.5714e-05
1.62911e-05
1.68599e-05
1.70212e-05
1.7855e-05
0.000107399
0.000199097
0.000211765
0.000276525
0.00030577
0.00027711
0.000301996
0.000380908
0.000386951
0.000384984
0.000421244
0.000454468
0.000594123
0.000771429
0.00116092
0.00208315
0.00329501
0.0048552
0.00908787
0.0167167
0.0225743
0.0290175
0.0496505
0.0910348
1.66223e-05
1.68735e-05
1.71512e-05
1.74574e-05
1.77935e-05
1.81609e-05
1.85613e-05
1.89945e-05
1.94599e-05
1.9957e-05
2.04803e-05
2.10277e-05
2.15666e-05
2.20829e-05
2.29517e-05
8.75687e-05
0.0013492
0.00521872
0.00614687
0.00603309
0.00565976
0.00579751
0.00665232
0.00787666
0.00955741
0.00998291
0.010823
0.0139452
0.0199691
0.0348201
0.0499956
0.0644192
0.0762721
0.103168
0.138168
0.191496
0.288467
0.322757
2.01582e-05
2.03508e-05
2.05679e-05
2.08108e-05
2.10798e-05
2.13738e-05
2.16914e-05
2.20298e-05
2.23879e-05
2.27602e-05
2.3162e-05
2.35906e-05
2.41932e-05
2.51697e-05
2.7947e-05
4.08529e-05
0.000210533
0.00167705
0.00459141
0.00696883
0.00730166
0.00739938
0.00758696
0.0077986
0.0078034
0.00847817
0.00746784
0.00952391
0.0148614
0.0173012
0.0191959
0.0453057
0.0307367
0.0356102
0.0767705
0.0807759
0.243888
0.314359
2.16418e-05
2.18724e-05
2.21359e-05
2.24353e-05
2.27724e-05
2.31481e-05
2.35624e-05
2.40123e-05
2.44997e-05
2.50148e-05
2.55897e-05
2.61821e-05
2.69892e-05
2.78759e-05
2.98394e-05
3.35554e-05
4.76094e-05
0.000159545
0.000525322
0.00117849
0.00171688
0.00231764
0.00250335
0.00198465
0.00129106
0.00113356
0.000783424
0.000807794
0.00131704
0.00267622
0.00404502
0.0119932
0.0114792
0.0156574
0.0334177
0.0343708
0.0445946
0.131966
2.20418e-05
2.22911e-05
2.25787e-05
2.29087e-05
2.32842e-05
2.37069e-05
2.41774e-05
2.46938e-05
2.5261e-05
2.5869e-05
2.65502e-05
2.72841e-05
2.82157e-05
2.92977e-05
3.12464e-05
3.38001e-05
4.01305e-05
4.90856e-05
7.80336e-05
0.00011391
0.000194885
0.000259026
0.000374638
0.000339615
0.000285131
0.000249681
0.000346445
0.00043175
0.000851555
0.00274279
0.00468341
0.012123
0.0123986
0.0166043
0.0144854
0.0187092
0.0350588
0.0587835
2.21341e-05
2.23942e-05
2.26972e-05
2.30489e-05
2.34544e-05
2.39172e-05
2.44409e-05
2.50199e-05
2.56661e-05
2.63452e-05
2.71469e-05
2.79225e-05
2.90411e-05
2.99932e-05
3.20033e-05
3.3538e-05
3.78422e-05
4.01745e-05
5.04695e-05
5.18567e-05
6.68547e-05
7.30932e-05
8.88226e-05
9.38879e-05
0.000126099
0.000150317
0.000290575
0.00066617
0.000917569
0.00160364
0.00186803
0.00451854
0.00543622
0.00643875
0.0103768
0.0150218
0.0380225
0.0621139
2.21606e-05
2.24309e-05
2.27496e-05
2.31239e-05
2.35605e-05
2.4063e-05
2.46351e-05
2.52696e-05
2.59853e-05
2.67354e-05
2.76353e-05
2.85158e-05
2.97442e-05
3.11387e-05
3.30176e-05
3.57508e-05
3.91808e-05
4.14729e-05
4.7139e-05
4.83708e-05
5.6287e-05
5.96739e-05
7.02549e-05
8.11176e-05
0.000124936
0.00017991
0.000342868
0.000439578
0.000655984
0.00145903
0.00168973
0.00195339
0.00307784
0.00546688
0.00649547
0.0325086
0.0697368
0.0855759
2.21775e-05
2.24601e-05
2.27982e-05
2.32027e-05
2.36853e-05
2.42529e-05
2.49151e-05
2.56534e-05
2.65123e-05
2.73321e-05
2.85012e-05
2.92713e-05
3.10261e-05
3.22092e-05
3.47117e-05
3.77003e-05
4.06023e-05
4.36038e-05
5.01215e-05
5.17112e-05
5.90783e-05
6.46837e-05
7.26506e-05
0.000104352
0.000216018
0.000254854
0.000432309
0.000640944
0.000802995
0.00138014
0.001559
0.0022504
0.00258566
0.00487992
0.0064462
0.0212668
0.0537528
0.0549082
2.21816e-05
2.24769e-05
2.28357e-05
2.32721e-05
2.3801e-05
2.44353e-05
2.51889e-05
2.60389e-05
2.70406e-05
2.79796e-05
2.93566e-05
3.02233e-05
3.22445e-05
3.39803e-05
3.75529e-05
4.53671e-05
4.73445e-05
5.4586e-05
5.48238e-05
6.09267e-05
6.57817e-05
8.20737e-05
8.28165e-05
8.61239e-05
0.000164268
0.0004056
0.000989659
0.00112788
0.00149662
0.00169686
0.00252321
0.00333568
0.00426394
0.00604201
0.0109603
0.0060818
0.0129924
0.0626277
2.21009e-05
2.24019e-05
2.2774e-05
2.32371e-05
2.38144e-05
2.45236e-05
2.53845e-05
2.63538e-05
2.75031e-05
2.84737e-05
2.99821e-05
3.07938e-05
3.29437e-05
3.49998e-05
4.18714e-05
4.41583e-05
4.60447e-05
5.28653e-05
5.61695e-05
6.73606e-05
7.09421e-05
8.20274e-05
8.5808e-05
9.24605e-05
0.000112064
0.000172368
0.000321938
0.00041166
0.000515633
0.000719206
0.00107225
0.00184695
0.0017444
0.00201787
0.00407544
0.00513492
0.0089849
0.0411663
2.16613e-05
2.19397e-05
2.22864e-05
2.27237e-05
2.32782e-05
2.39746e-05
2.48328e-05
2.58263e-05
2.69349e-05
2.799e-05
2.90056e-05
3.00634e-05
3.06871e-05
3.30291e-05
4.36901e-05
4.82557e-05
6.78166e-05
0.000115478
0.000143962
0.000144781
0.00014059
0.000128066
0.000126261
0.00011465
0.000185011
0.00036045
0.000795304
0.000939206
0.00125936
0.00177166
0.0027682
0.00387457
0.00600234
0.00692355
0.0111868
0.0159723
0.0213544
0.2316
2.00461e-05
2.02449e-05
2.04901e-05
2.07969e-05
2.11823e-05
2.16559e-05
2.22196e-05
2.28242e-05
2.34281e-05
2.3918e-05
2.41188e-05
2.44694e-05
2.50997e-05
3.0175e-05
7.23428e-05
0.000138974
0.000400234
0.000676046
0.000754675
0.000811693
0.000968847
0.000942996
0.000952258
0.000894791
0.00068415
0.000714796
0.000928295
0.00129278
0.00175089
0.00229059
0.00286392
0.00371651
0.00495681
0.00879309
0.011876
0.0190034
0.0336863
0.0965785
1.64068e-05
1.66218e-05
1.68626e-05
1.71336e-05
1.744e-05
1.7787e-05
1.81778e-05
1.86129e-05
1.90864e-05
1.9583e-05
2.00439e-05
2.05474e-05
2.06972e-05
2.35983e-05
0.000169763
0.000305726
0.000341552
0.000424764
0.000540007
0.000525131
0.000513692
0.000638211
0.00064382
0.000570963
0.000569647
0.00063096
0.000764095
0.000986914
0.00150132
0.00272816
0.00433415
0.0062938
0.0123386
0.0236547
0.0309527
0.0421512
0.0713769
0.121881
1.76976e-05
1.79528e-05
1.82359e-05
1.85489e-05
1.88935e-05
1.92708e-05
1.96817e-05
2.01262e-05
2.06047e-05
2.11164e-05
2.16558e-05
2.22215e-05
2.27896e-05
2.336e-05
2.3976e-05
5.50737e-05
0.00100856
0.00482742
0.00570648
0.00468623
0.00407405
0.00476949
0.00757767
0.00854244
0.0110663
0.0120353
0.0129388
0.0159037
0.0201825
0.0323762
0.0476902
0.0587707
0.0753682
0.100654
0.121987
0.173977
0.21368
0.241239
2.30009e-05
2.3221e-05
2.34745e-05
2.37634e-05
2.40881e-05
2.44473e-05
2.48379e-05
2.52547e-05
2.56934e-05
2.61465e-05
2.6631e-05
2.71586e-05
2.79178e-05
2.92623e-05
3.32934e-05
5.01606e-05
0.000182892
0.00137213
0.00352054
0.00487961
0.00538887
0.00560917
0.00598363
0.0063019
0.00747915
0.00956566
0.00858762
0.0119046
0.0139
0.0109745
0.0175316
0.0176642
0.018613
0.0246851
0.0383735
0.0552709
0.0802225
0.155925
2.49403e-05
2.52316e-05
2.55712e-05
2.59629e-05
2.64089e-05
2.69092e-05
2.74614e-05
2.80581e-05
2.86975e-05
2.93692e-05
3.01033e-05
3.08965e-05
3.19548e-05
3.34177e-05
3.6585e-05
4.36343e-05
6.65101e-05
0.000152332
0.000416338
0.000649528
0.000944764
0.00104671
0.00162717
0.00133833
0.00103545
0.00105207
0.000864323
0.000946848
0.00114878
0.00270135
0.00267735
0.00765628
0.0101533
0.0152231
0.0316991
0.0347626
0.0693002
0.211185
2.55393e-05
2.58679e-05
2.62549e-05
2.67061e-05
2.72256e-05
2.7814e-05
2.84696e-05
2.91871e-05
2.99689e-05
3.08046e-05
3.17303e-05
3.27583e-05
3.40703e-05
3.57943e-05
3.89432e-05
4.39168e-05
5.61081e-05
7.18873e-05
0.000104524
0.000117806
0.000171923
0.000187147
0.000288322
0.000303538
0.000284973
0.000288184
0.00042465
0.000510775
0.000866434
0.00193052
0.00244489
0.00590491
0.0106178
0.0084092
0.0174031
0.0154813
0.0430017
0.135242
2.57055e-05
2.60549e-05
2.64715e-05
2.69642e-05
2.75406e-05
2.82051e-05
2.89594e-05
2.97913e-05
3.07046e-05
3.16683e-05
3.27543e-05
3.39069e-05
3.5379e-05
3.71087e-05
3.99292e-05
4.32086e-05
5.03334e-05
5.59672e-05
7.06086e-05
7.32663e-05
9.15769e-05
9.93657e-05
0.000118704
0.000159339
0.000210719
0.000250156
0.000425112
0.000546401
0.001127
0.00146764
0.0015745
0.00228667
0.00431579
0.00478283
0.00651936
0.0146411
0.0429351
0.0604739
2.57541e-05
2.61212e-05
2.65649e-05
2.70973e-05
2.77288e-05
2.84639e-05
2.93054e-05
3.02416e-05
3.1289e-05
3.23989e-05
3.36859e-05
3.50321e-05
3.68411e-05
3.90692e-05
4.23525e-05
4.6596e-05
5.27312e-05
5.63078e-05
6.47368e-05
6.80631e-05
7.79055e-05
8.71762e-05
9.89162e-05
0.00013472
0.000153742
0.000235483
0.000403001
0.000422062
0.000808475
0.000908345
0.00125211
0.0016173
0.00306204
0.00454355
0.00555094
0.0174214
0.0400176
0.0338221
2.57739e-05
2.61592e-05
2.66336e-05
2.7216e-05
2.7926e-05
2.87768e-05
2.97736e-05
3.08894e-05
3.21485e-05
3.33961e-05
3.49616e-05
3.62577e-05
3.86058e-05
4.08257e-05
4.45424e-05
4.99865e-05
5.48913e-05
5.92877e-05
6.88248e-05
7.13434e-05
7.93862e-05
8.86008e-05
0.000101194
0.000152434
0.000221518
0.000235287
0.000301896
0.000370514
0.000440651
0.000579894
0.000805933
0.00114636
0.00166464
0.00325728
0.00652163
0.00938291
0.0331174
0.0367379
2.57575e-05
2.61596e-05
2.66639e-05
2.72952e-05
2.80791e-05
2.9034e-05
3.01812e-05
3.14845e-05
3.29806e-05
3.44282e-05
3.63374e-05
3.77355e-05
4.07332e-05
4.37853e-05
4.99567e-05
6.12569e-05
6.38046e-05
6.97741e-05
7.17425e-05
7.36187e-05
7.97406e-05
8.66938e-05
9.26883e-05
0.000115616
0.00016497
0.000218542
0.000269268
0.000305257
0.00036705
0.00043981
0.000751518
0.000953611
0.00143951
0.00303732
0.00745421
0.00634787
0.00934213
0.0215986
2.55941e-05
2.59971e-05
2.65134e-05
2.71781e-05
2.80313e-05
2.91051e-05
3.04201e-05
3.19123e-05
3.35999e-05
3.50966e-05
3.70759e-05
3.83676e-05
4.14496e-05
4.48905e-05
5.40656e-05
5.86757e-05
6.17563e-05
7.15211e-05
7.58473e-05
8.47679e-05
8.91797e-05
9.35337e-05
0.000102784
0.000111522
0.000135367
0.000160053
0.000212048
0.000259323
0.00030623
0.000429345
0.000571359
0.000656583
0.000883405
0.00116102
0.00252788
0.00417823
0.00915576
0.0302568
2.49341e-05
2.529e-05
2.5753e-05
2.63598e-05
2.7156e-05
2.81834e-05
2.94677e-05
3.09551e-05
3.25645e-05
3.40554e-05
3.53613e-05
3.67357e-05
3.77573e-05
4.09798e-05
5.54413e-05
6.74752e-05
9.55451e-05
0.000157393
0.000187285
0.000184738
0.000175135
0.000167596
0.000174014
0.000177453
0.000198563
0.000265106
0.000372762
0.000539763
0.000686546
0.000933251
0.0015116
0.00208945
0.00327654
0.00401412
0.00687076
0.0113136
0.0267617
0.117321
2.28182e-05
2.30388e-05
2.33237e-05
2.36963e-05
2.41818e-05
2.47986e-05
2.5551e-05
2.63671e-05
2.71644e-05
2.77472e-05
2.80696e-05
2.82696e-05
2.94599e-05
3.86297e-05
0.000109895
0.000244565
0.000676461
0.000973255
0.00104957
0.00112323
0.00127931
0.00129923
0.00138473
0.00147385
0.00151607
0.00173328
0.00198959
0.00250554
0.00289553
0.00351384
0.00480008
0.00570842
0.0074764
0.0119905
0.018692
0.0231721
0.0326812
0.0707905
1.74379e-05
1.76437e-05
1.78735e-05
1.81316e-05
1.84231e-05
1.87535e-05
1.91277e-05
1.95473e-05
2.00158e-05
2.04949e-05
2.10385e-05
2.14543e-05
2.23369e-05
3.84258e-05
0.000272067
0.0004207
0.000465288
0.00056504
0.000705143
0.000721799
0.000782342
0.000905989
0.00090797
0.00086522
0.000918574
0.00103208
0.00111509
0.00138897
0.00193591
0.00356785
0.00581924
0.007998
0.0151451
0.0305051
0.0430441
0.0515545
0.0716698
0.118444
1.80573e-05
1.83144e-05
1.86005e-05
1.89176e-05
1.92676e-05
1.96517e-05
2.00708e-05
2.05251e-05
2.10154e-05
2.15409e-05
2.20964e-05
2.26814e-05
2.32745e-05
2.38851e-05
2.44576e-05
2.76011e-05
0.000221645
0.00285675
0.00466228
0.00318603
0.00181511
0.00280605
0.00790968
0.00958352
0.0121348
0.0135782
0.0143514
0.016892
0.0193507
0.0267902
0.03813
0.0437452
0.0668901
0.097908
0.117539
0.149044
0.169374
0.180117
2.43119e-05
2.4558e-05
2.4844e-05
2.51725e-05
2.55443e-05
2.59579e-05
2.641e-05
2.68941e-05
2.74049e-05
2.79349e-05
2.85007e-05
2.91236e-05
2.99867e-05
3.14625e-05
3.53702e-05
4.85685e-05
0.000116106
0.000582556
0.00160474
0.00162325
0.00166901
0.00186248
0.00356012
0.00594434
0.00801531
0.011571
0.0106876
0.0129002
0.0150694
0.0101696
0.0176922
0.0110761
0.0140545
0.02542
0.0319735
0.0426148
0.0633226
0.116194
2.65738e-05
2.69195e-05
2.73255e-05
2.77968e-05
2.83357e-05
2.89417e-05
2.96105e-05
3.03322e-05
3.11012e-05
3.19079e-05
3.2781e-05
3.3744e-05
3.50018e-05
3.68349e-05
4.05435e-05
4.83858e-05
7.08532e-05
0.000120146
0.000227219
0.000271842
0.000355062
0.000357201
0.000587252
0.000974137
0.00102463
0.00127118
0.00111096
0.000978742
0.00110222
0.00170843
0.00181935
0.00537191
0.00926565
0.0107587
0.029093
0.0253282
0.0487059
0.163902
2.73258e-05
2.77272e-05
2.82032e-05
2.87612e-05
2.94058e-05
3.01368e-05
3.09505e-05
3.18392e-05
3.28031e-05
3.38324e-05
3.49633e-05
3.62338e-05
3.78359e-05
4.00181e-05
4.38044e-05
4.99831e-05
6.3827e-05
8.35462e-05
0.000115743
0.000121403
0.000158647
0.000168692
0.000217829
0.000303135
0.000310361
0.000365056
0.000480447
0.000554094
0.00070425
0.00147365
0.00160439
0.00439886
0.00864723
0.00654765
0.0140891
0.0139316
0.029849
0.111202
2.75575e-05
2.799e-05
2.85094e-05
2.91276e-05
2.98544e-05
3.06943e-05
3.16466e-05
3.26936e-05
3.38309e-05
3.50312e-05
3.63568e-05
3.78107e-05
3.96054e-05
4.19004e-05
4.53524e-05
4.99188e-05
5.82657e-05
6.59231e-05
8.1318e-05
8.69321e-05
0.000106307
0.000121838
0.000147169
0.000247091
0.000300537
0.000346733
0.000531527
0.000566395
0.000893993
0.00105258
0.00131089
0.00210314
0.00357036
0.00414652
0.00671652
0.0127557
0.025279
0.0342446
2.7627e-05
2.80835e-05
2.86407e-05
2.93145e-05
3.01181e-05
3.10578e-05
3.21354e-05
3.33364e-05
3.46729e-05
3.60995e-05
3.7721e-05
3.94771e-05
4.17605e-05
4.46801e-05
4.88677e-05
5.42513e-05
6.14135e-05
6.62077e-05
7.6023e-05
8.09597e-05
9.25139e-05
0.000104943
0.000121571
0.000169739
0.000190776
0.000250731
0.00039677
0.000433939
0.000578566
0.000846981
0.00106881
0.00143414
0.00249025
0.00328944
0.00451067
0.0119715
0.0297281
0.0205907
2.76464e-05
2.81259e-05
2.87226e-05
2.9463e-05
3.03742e-05
3.14747e-05
3.27665e-05
3.42158e-05
3.58268e-05
3.74534e-05
3.93726e-05
4.11778e-05
4.39714e-05
4.7102e-05
5.18025e-05
5.85485e-05
6.48628e-05
7.01982e-05
8.03149e-05
8.37308e-05
9.22824e-05
0.000102983
0.00011786
0.000171625
0.000229526
0.000245942
0.000298249
0.000373995
0.000405799
0.000502364
0.000770811
0.000987989
0.00143833
0.00283748
0.00564783
0.00743151
0.0172087
0.0210393
2.76044e-05
2.81019e-05
2.87343e-05
2.95359e-05
3.05428e-05
3.17809e-05
3.32783e-05
3.49937e-05
3.69443e-05
3.88873e-05
4.13046e-05
4.33151e-05
4.71111e-05
5.12867e-05
5.89512e-05
7.04856e-05
7.38665e-05
7.82921e-05
8.29714e-05
8.51018e-05
9.21066e-05
9.92946e-05
0.000104725
0.000132974
0.000187412
0.000192391
0.000214212
0.000223126
0.000256356
0.000300352
0.000437152
0.000635866
0.00107575
0.00234584
0.00682906
0.00873005
0.0104783
0.0192467
2.73638e-05
2.78547e-05
2.84939e-05
2.93305e-05
3.04215e-05
3.18155e-05
3.35401e-05
3.5522e-05
3.77409e-05
3.97843e-05
4.22795e-05
4.40098e-05
4.79441e-05
5.17575e-05
6.06068e-05
6.85924e-05
7.2886e-05
8.24469e-05
9.05032e-05
9.45162e-05
0.000102078
0.000106451
0.000114242
0.000127441
0.000160614
0.000174992
0.000209147
0.000236916
0.000266606
0.000358671
0.000478554
0.000572078
0.000815064
0.00102633
0.00205828
0.00449564
0.00829483
0.028144
2.65344e-05
2.69544e-05
2.75103e-05
2.82536e-05
2.92487e-05
3.05573e-05
3.22171e-05
3.41644e-05
3.62801e-05
3.82356e-05
4.00159e-05
4.14615e-05
4.30463e-05
4.78515e-05
6.52308e-05
0.000102217
0.000142837
0.000205119
0.000216508
0.00021395
0.000215679
0.000220169
0.000241331
0.000267345
0.000308138
0.000439497
0.000550251
0.000773288
0.000910415
0.00116762
0.00192378
0.00259888
0.00372937
0.00405081
0.0061417
0.00957916
0.0237325
0.0917595
2.40638e-05
2.4301e-05
2.46138e-05
2.50305e-05
2.55857e-05
2.63108e-05
2.72115e-05
2.82185e-05
2.92199e-05
2.99753e-05
3.05601e-05
3.08353e-05
3.3669e-05
6.09978e-05
0.000185224
0.000444307
0.00101077
0.00126001
0.00130912
0.00149132
0.0016503
0.00178469
0.00207535
0.00231374
0.00256269
0.00310832
0.00345193
0.00400107
0.00442794
0.00527781
0.0071307
0.00885205
0.0120096
0.0170619
0.0266971
0.0246862
0.0293677
0.0624756
1.7769e-05
1.79674e-05
1.81884e-05
1.84361e-05
1.87159e-05
1.90347e-05
1.93996e-05
1.98217e-05
2.02909e-05
2.08143e-05
2.15083e-05
2.2828e-05
2.76482e-05
0.000101596
0.000406998
0.000533652
0.000588278
0.000741984
0.000904911
0.000946215
0.00108108
0.00124158
0.00128979
0.00135717
0.00155529
0.00164818
0.00167168
0.00187054
0.00235816
0.00429831
0.00712744
0.00925236
0.0157491
0.0322675
0.0487271
0.055582
0.0697054
0.10974
1.819e-05
1.84479e-05
1.87353e-05
1.90546e-05
1.94075e-05
1.97954e-05
2.02192e-05
2.06795e-05
2.1177e-05
2.17111e-05
2.22769e-05
2.28741e-05
2.34842e-05
2.41209e-05
2.47336e-05
2.55443e-05
4.01932e-05
0.000591773
0.00217624
0.00197874
0.000792116
0.00205996
0.00767717
0.0108097
0.0130927
0.0147573
0.0152923
0.0171268
0.0182972
0.0219323
0.0274204
0.0303803
0.0481536
0.0839461
0.114043
0.123948
0.130032
0.167477
2.49278e-05
2.51905e-05
2.54975e-05
2.58518e-05
2.62545e-05
2.67044e-05
2.71977e-05
2.77276e-05
2.82883e-05
2.88727e-05
2.94949e-05
3.01811e-05
3.10852e-05
3.25344e-05
3.5822e-05
4.48917e-05
7.80226e-05
0.000202852
0.000521318
0.000541956
0.000520851
0.000769959
0.00292223
0.00696656
0.00995479
0.0139113
0.012608
0.0145992
0.0145111
0.0119798
0.0124055
0.00799009
0.0120883
0.0190688
0.0285941
0.0306853
0.0502371
0.073615
2.74365e-05
2.78223e-05
2.8277e-05
2.88063e-05
2.94131e-05
3.00963e-05
3.08506e-05
3.16638e-05
3.25278e-05
3.34343e-05
3.44097e-05
3.54929e-05
3.68725e-05
3.88709e-05
4.25892e-05
4.98455e-05
6.70383e-05
0.000101947
0.000148244
0.000163021
0.000219753
0.000241733
0.000450139
0.00105875
0.00146167
0.00188232
0.00155125
0.00127314
0.00115849
0.00118447
0.00131707
0.00384203
0.00824856
0.00773985
0.0140325
0.0265997
0.0688274
0.138262
2.83132e-05
2.877e-05
2.93135e-05
2.99521e-05
3.06913e-05
3.15301e-05
3.24632e-05
3.34812e-05
3.45823e-05
3.57574e-05
3.70405e-05
3.8485e-05
4.02756e-05
4.27108e-05
4.66821e-05
5.30139e-05
6.58624e-05
8.42886e-05
0.000113672
0.000121839
0.000154518
0.000179132
0.000257861
0.000350429
0.000366933
0.00046177
0.00055075
0.00053723
0.000620669
0.000793306
0.00120474
0.00403617
0.00513289
0.0042773
0.0085459
0.0122751
0.0241946
0.0547536
2.86013e-05
2.90981e-05
2.96971e-05
3.04126e-05
3.12559e-05
3.22321e-05
3.33382e-05
3.45522e-05
3.5862e-05
3.72436e-05
3.87551e-05
4.04357e-05
4.2481e-05
4.51488e-05
4.89807e-05
5.42146e-05
6.26839e-05
7.12335e-05
8.5272e-05
9.34659e-05
0.000113936
0.000134781
0.000178301
0.000307398
0.000343678
0.000398736
0.000576533
0.000599436
0.000792533
0.000981847
0.00115964
0.00192645
0.00269782
0.00339427
0.00637315
0.0187639
0.0192116
0.0275663
2.86899e-05
2.92166e-05
2.98629e-05
3.06485e-05
3.1589e-05
3.26929e-05
3.39616e-05
3.53793e-05
3.69536e-05
3.86437e-05
4.05447e-05
4.26392e-05
4.52871e-05
4.86961e-05
5.33703e-05
5.93313e-05
6.67543e-05
7.25371e-05
8.26561e-05
8.91836e-05
0.000101727
0.000116245
0.000138676
0.000192976
0.000214563
0.000264936
0.000398944
0.000442414
0.000556018
0.000857588
0.000971794
0.00137665
0.00200033
0.00272415
0.00440447
0.0133577
0.022494
0.0201514
2.87092e-05
2.92632e-05
2.99574e-05
3.08249e-05
3.19011e-05
3.32105e-05
3.47527e-05
3.64938e-05
3.84203e-05
4.03888e-05
4.26378e-05
4.48801e-05
4.80205e-05
5.18108e-05
5.70708e-05
6.43584e-05
7.15112e-05
7.75706e-05
8.73689e-05
9.17471e-05
0.000100806
0.000112429
0.000128141
0.000177624
0.000232856
0.000255213
0.000324086
0.000370918
0.000449546
0.000537422
0.000790224
0.000973962
0.00138545
0.00260298
0.00534174
0.00810936
0.0140601
0.0189817
2.86445e-05
2.92175e-05
2.99525e-05
3.08936e-05
3.20878e-05
3.3572e-05
3.53879e-05
3.7495e-05
3.99015e-05
4.23613e-05
4.53046e-05
4.79311e-05
5.22187e-05
5.73639e-05
6.52088e-05
7.56141e-05
7.95588e-05
8.35404e-05
9.03362e-05
9.36216e-05
0.000101406
0.000109994
0.000114483
0.000136708
0.000185169
0.000195754
0.000218001
0.000224746
0.000265031
0.000301304
0.000449556
0.000613944
0.00102988
0.00203084
0.0056223
0.0112424
0.0130172
0.0178347
2.83394e-05
2.88999e-05
2.96387e-05
3.06195e-05
3.19187e-05
3.36092e-05
3.57381e-05
3.8243e-05
4.10672e-05
4.37276e-05
4.67329e-05
4.87529e-05
5.29619e-05
5.73773e-05
6.50847e-05
7.62385e-05
8.23543e-05
9.14998e-05
9.92259e-05
0.000102595
0.000110507
0.000118527
0.000125444
0.000139006
0.000170618
0.000194015
0.000226381
0.000248926
0.000281624
0.000359826
0.000462208
0.000687673
0.000897048
0.00104964
0.00182743
0.00417008
0.00770589
0.0232339
2.73733e-05
2.78428e-05
2.84736e-05
2.93322e-05
3.05055e-05
3.20842e-05
3.41381e-05
3.66131e-05
3.93196e-05
4.1854e-05
4.39897e-05
4.5451e-05
4.81983e-05
6.04776e-05
9.04164e-05
0.000163088
0.000218947
0.000261832
0.000261304
0.000264309
0.00027414
0.000299485
0.000364088
0.000416433
0.000501881
0.000716982
0.000871516
0.00110894
0.00127339
0.0016474
0.00258759
0.003444
0.00464621
0.00446965
0.00575619
0.00808054
0.0185923
0.0652187
2.46328e-05
2.48795e-05
2.521e-05
2.56597e-05
2.62788e-05
2.71116e-05
2.81849e-05
2.94491e-05
3.07332e-05
3.19583e-05
3.26328e-05
3.47482e-05
4.8926e-05
0.000153462
0.000369611
0.000735198
0.00133083
0.00147847
0.00164369
0.00196956
0.00214355
0.00249384
0.00300974
0.00333708
0.00372037
0.00436114
0.00474757
0.00525482
0.00577784
0.00690451
0.00900969
0.0110639
0.0147219
0.0192658
0.0283845
0.0247603
0.0267767
0.0490965
1.78809e-05
1.80732e-05
1.8287e-05
1.85269e-05
1.87992e-05
1.91131e-05
1.94818e-05
1.99139e-05
2.03958e-05
2.14054e-05
2.38442e-05
3.01474e-05
6.55161e-05
0.000272171
0.000569047
0.000666532
0.000760574
0.000940417
0.00114527
0.00123414
0.00143558
0.00166278
0.00179718
0.00201946
0.00226515
0.00233631
0.002327
0.00239939
0.00279187
0.00487478
0.00817508
0.0102868
0.0153557
0.0312286
0.0497676
0.0572399
0.0655434
0.100049
1.82382e-05
1.84968e-05
1.87854e-05
1.91063e-05
1.94613e-05
1.98519e-05
2.02794e-05
2.07439e-05
2.12462e-05
2.17857e-05
2.23577e-05
2.29622e-05
2.35833e-05
2.42355e-05
2.4874e-05
2.5627e-05
2.70659e-05
8.65455e-05
0.00047724
0.000513354
0.000326922
0.00235493
0.00828847
0.0117658
0.0138979
0.0156605
0.016098
0.0170207
0.0174776
0.0187712
0.0210655
0.0226403
0.0319226
0.0576112
0.104569
0.110484
0.103775
0.141074
2.5208e-05
2.548e-05
2.57991e-05
2.61686e-05
2.65901e-05
2.70622e-05
2.75809e-05
2.81395e-05
2.87312e-05
2.93494e-05
3.00054e-05
3.07274e-05
3.16359e-05
3.30041e-05
3.5662e-05
4.18004e-05
5.85746e-05
0.000105574
0.000184682
0.000212792
0.000262742
0.000702962
0.00331923
0.00851487
0.0119657
0.0148859
0.0146213
0.015205
0.0151926
0.0132791
0.0105447
0.00700568
0.0100134
0.0146847
0.0210261
0.0266194
0.0321738
0.0563232
2.78915e-05
2.83028e-05
2.8789e-05
2.93564e-05
3.00082e-05
3.07432e-05
3.15552e-05
3.24307e-05
3.33593e-05
3.43338e-05
3.53788e-05
3.65401e-05
3.79821e-05
4.00179e-05
4.34959e-05
4.97615e-05
6.25298e-05
8.50496e-05
0.000115306
0.000128529
0.000177396
0.000226081
0.000504448
0.00132079
0.00236101
0.0025759
0.00206571
0.00154302
0.00139491
0.00118977
0.00122778
0.00220156
0.00514619
0.00377011
0.00640486
0.0147423
0.0537483
0.0795394
2.88641e-05
2.93582e-05
2.99475e-05
3.06418e-05
3.14469e-05
3.23617e-05
3.33795e-05
3.449e-05
3.56893e-05
3.69692e-05
3.83601e-05
3.99235e-05
4.1827e-05
4.4375e-05
4.82796e-05
5.43076e-05
6.52725e-05
8.07315e-05
0.000103516
0.00011548
0.000146444
0.000186811
0.000305638
0.000376301
0.000440032
0.000580129
0.000599497
0.000550776
0.000589428
0.000683266
0.000999042
0.00224327
0.00259268
0.00267106
0.00498888
0.00838224
0.0155101
0.032858
2.91967e-05
2.97381e-05
3.03929e-05
3.11778e-05
3.21059e-05
3.31827e-05
3.4404e-05
3.5744e-05
3.71846e-05
3.87034e-05
4.03579e-05
4.22092e-05
4.44409e-05
4.73429e-05
5.1361e-05
5.68414e-05
6.48769e-05
7.37811e-05
8.58859e-05
9.61847e-05
0.000115375
0.000139505
0.000194188
0.000319783
0.000343467
0.000408026
0.000568498
0.000610015
0.000720694
0.00101267
0.00109713
0.00159021
0.00208418
0.00284154
0.00533956
0.0153547
0.0174628
0.0192627
2.93011e-05
2.98773e-05
3.05878e-05
3.14559e-05
3.25e-05
3.37317e-05
3.5153e-05
3.67489e-05
3.85241e-05
4.04414e-05
4.25854e-05
4.49592e-05
4.78758e-05
5.15822e-05
5.64442e-05
6.25877e-05
6.99843e-05
7.65484e-05
8.62736e-05
9.45276e-05
0.000106828
0.00012322
0.000148933
0.000203247
0.000222745
0.000268812
0.000382341
0.000434149
0.000518722
0.000759144
0.000884142
0.00128194
0.00160697
0.00229105
0.00387534
0.0103434
0.0153829
0.0144462
2.93209e-05
2.99285e-05
3.0695e-05
3.16603e-05
3.28692e-05
3.43532e-05
3.61159e-05
3.81273e-05
4.03589e-05
4.26577e-05
4.52164e-05
4.78112e-05
5.11876e-05
5.53609e-05
6.08564e-05
6.82925e-05
7.58061e-05
8.24002e-05
9.16977e-05
9.72876e-05
0.000106095
0.000118451
0.00013348
0.00017613
0.000229059
0.000261845
0.000337395
0.000385499
0.000474985
0.000562171
0.00079791
0.000979326
0.00135852
0.00240834
0.00461236
0.0086087
0.0126206
0.01395
2.9239e-05