/*--------------------------------*- C++ -*----------------------------------*\
| =========                 |                                                 |
| \\      /  F ield         | OpenFOAM: The Open Source CFD Toolbox           |
|  \\    /   O peration     | Version:  2.3.1                                 |
|   \\  /    A nd           | Web:      www.OpenFOAM.org                      |
|    \\/     M anipulation  |                                                 |
\*---------------------------------------------------------------------------*/
FoamFile
{
    version     2.0;
    format      ascii;
    class       volScalarField;
    location    "5";
    object      k_0;
}
// * * * * * * * * * * * * * * * * * * * * * * * * * * * * * * * * * * * * * //

dimensions      [0 2 -2 0 0 0 0];

internalField   nonuniform List<scalar> 
38262
(
1.21886e-05
1.24696e-05
1.27788e-05
1.3118e-05
1.34873e-05
1.38866e-05
1.43456e-05
1.4851e-05
1.53947e-05
1.59764e-05
1.65866e-05
1.72268e-05
1.78558e-05
1.84982e-05
1.943e-05
6.80086e-05
0.000966861
0.0040275
0.00488022
0.00484609
0.00480054
0.0047946
0.00513509
0.00663965
0.00723299
0.00747841
0.0081519
0.0109319
0.0172061
0.0323376
0.04106
0.0544393
0.0656905
0.093337
0.128186
0.186827
0.316076
0.523001
1.47437e-05
1.51383e-05
1.55785e-05
1.60685e-05
1.6612e-05
1.72123e-05
1.78716e-05
1.8591e-05
1.93685e-05
2.01999e-05
2.10711e-05
2.19769e-05
2.28601e-05
2.37403e-05
2.44144e-05
2.69204e-05
0.000129724
0.00107676
0.00206771
0.00297709
0.00410134
0.00474218
0.0047369
0.00495057
0.00432553
0.00337795
0.00265716
0.00304121
0.00326724
0.00571804
0.00601238
0.0175415
0.018079
0.0230802
0.0382266
0.0454651
0.108052
0.229889
1.52951e-05
1.56972e-05
1.61468e-05
1.66486e-05
1.72071e-05
1.78264e-05
1.85101e-05
1.92612e-05
2.008e-05
2.09678e-05
2.19171e-05
2.29372e-05
2.39854e-05
2.51493e-05
2.61842e-05
2.76824e-05
3.18922e-05
0.000110228
0.0003445
0.000632241
0.00101212
0.00208503
0.00176576
0.00191751
0.0012439
0.000888444
0.000519335
0.000468292
0.000740823
0.00166996
0.00204208
0.00452836
0.00616071
0.0112067
0.015065
0.0184153
0.035714
0.121552
1.53936e-05
1.5796e-05
1.62472e-05
1.67523e-05
1.73165e-05
1.79445e-05
1.86401e-05
1.94058e-05
2.02422e-05
2.11517e-05
2.21283e-05
2.31822e-05
2.42882e-05
2.55088e-05
2.67627e-05
2.83605e-05
2.97968e-05
3.51837e-05
5.50454e-05
9.95103e-05
0.000122447
0.000408818
0.000277432
0.000509981
0.000385755
0.000329399
0.000218996
0.000273816
0.000316757
0.000591187
0.00139423
0.00408285
0.00477819
0.0108576
0.00782051
0.0116818
0.0149707
0.050697
1.53884e-05
1.57889e-05
1.62391e-05
1.6745e-05
1.73125e-05
1.7948e-05
1.86572e-05
1.94458e-05
2.03166e-05
2.12762e-05
2.23189e-05
2.34789e-05
2.4685e-05
2.61708e-05
2.74147e-05
2.95938e-05
3.07653e-05
3.38061e-05
3.60927e-05
4.26847e-05
4.68425e-05
8.55875e-05
7.02908e-05
0.000124131
0.000106066
0.000116438
0.000139029
0.000327355
0.000309623
0.000872774
0.000906779
0.00211531
0.00207686
0.00612845
0.00628182
0.00796482
0.01895
0.0439522
1.53633e-05
1.57609e-05
1.62092e-05
1.6715e-05
1.72852e-05
1.79264e-05
1.86438e-05
1.94417e-05
2.03226e-05
2.1289e-05
2.23466e-05
2.34973e-05
2.47434e-05
2.62045e-05
2.76268e-05
2.96372e-05
3.15835e-05
3.38626e-05
3.65818e-05
3.9933e-05
4.26249e-05
4.94848e-05
5.228e-05
6.0138e-05
7.36438e-05
8.48403e-05
0.000109078
0.000216484
0.0002917
0.00064519
0.000995152
0.00105302
0.00152577
0.0027318
0.00825741
0.0368432
0.0516965
0.0796686
1.53356e-05
1.57298e-05
1.61758e-05
1.66815e-05
1.72554e-05
1.79069e-05
1.86448e-05
1.94767e-05
2.04118e-05
2.14393e-05
2.26193e-05
2.38349e-05
2.529e-05
2.70667e-05
2.83494e-05
3.14773e-05
3.29534e-05
3.62027e-05
3.86637e-05
4.14097e-05
4.55606e-05
5.05867e-05
5.29486e-05
6.00858e-05
8.99722e-05
0.0001219
0.000222498
0.00023544
0.000519847
0.00061128
0.000967516
0.00120845
0.00159969
0.00247844
0.00468963
0.0312264
0.0529537
0.0553215
1.53063e-05
1.56965e-05
1.61394e-05
1.6644e-05
1.722e-05
1.78772e-05
1.86247e-05
1.94678e-05
2.04196e-05
2.14423e-05
2.26697e-05
2.37706e-05
2.5431e-05
2.67771e-05
2.87455e-05
3.16098e-05
3.38885e-05
3.72451e-05
4.25648e-05
4.38092e-05
5.10935e-05
5.28007e-05
5.85553e-05
6.35895e-05
0.000103662
0.000242981
0.000549873
0.000626238
0.00119758
0.00123812
0.00221994
0.00268003
0.00363564
0.00471302
0.00646327
0.00747362
0.0236133
0.0441517
1.52588e-05
1.56431e-05
1.60805e-05
1.65813e-05
1.71575e-05
1.78227e-05
1.85901e-05
1.94693e-05
2.04763e-05
2.15637e-05
2.28812e-05
2.41099e-05
2.56809e-05
2.78203e-05
2.92513e-05
3.35453e-05
3.54121e-05
4.04256e-05
4.26398e-05
4.85635e-05
5.23302e-05
5.88432e-05
6.17224e-05
6.76767e-05
8.27151e-05
0.000131584
0.000263521
0.000359038
0.000605637
0.000822276
0.00142915
0.00200106
0.00248769
0.00303413
0.00435658
0.00446174
0.00556196
0.0584045
1.50985e-05
1.54695e-05
1.58912e-05
1.63737e-05
1.69287e-05
1.75698e-05
1.83093e-05
1.91565e-05
2.0114e-05
2.11609e-05
2.22797e-05
2.34464e-05
2.45708e-05
2.54639e-05
2.83294e-05
3.58874e-05
4.15422e-05
5.72688e-05
8.4988e-05
0.000114979
0.000114551
0.0001068
9.46262e-05
8.32951e-05
0.000118949
0.000293345
0.000508351
0.000601287
0.000883104
0.00127685
0.00206292
0.00265518
0.00416658
0.00555751
0.00817566
0.0127337
0.0150681
0.079076
1.44546e-05
1.47919e-05
1.51711e-05
1.55999e-05
1.60876e-05
1.6645e-05
1.72791e-05
1.79988e-05
1.87857e-05
1.96449e-05
2.04886e-05
2.12449e-05
2.20973e-05
2.21813e-05
4.5814e-05
6.39022e-05
0.000125465
0.000213338
0.000284479
0.000306468
0.000355676
0.000338542
0.000369467
0.000305213
0.000216155
0.000277959
0.000438867
0.000575651
0.000754675
0.0010521
0.0017243
0.0024371
0.00353454
0.00470402
0.00676878
0.0100606
0.0182198
0.0584621
1.1981e-05
1.22304e-05
1.25093e-05
1.28231e-05
1.31772e-05
1.35774e-05
1.40196e-05
1.45398e-05
1.51112e-05
1.57131e-05
1.62905e-05
1.68588e-05
1.7022e-05
1.78522e-05
0.000107323
0.000199284
0.00021193
0.000276675
0.000306072
0.000277494
0.000301973
0.000381487
0.00038777
0.000385885
0.000422549
0.00045603
0.000595523
0.000772278
0.00115891
0.00207936
0.00329482
0.00482818
0.00902499
0.0169198
0.0232218
0.0298109
0.051004
0.0941562
1.66247e-05
1.68757e-05
1.71533e-05
1.74593e-05
1.77952e-05
1.81626e-05
1.85629e-05
1.89961e-05
1.94615e-05
1.99588e-05
2.04825e-05
2.10306e-05
2.15713e-05
2.20912e-05
2.28729e-05
7.97682e-05
0.00124861
0.00515739
0.00617604
0.00608208
0.00570366
0.00582115
0.00666096
0.00785199
0.00961148
0.0100692
0.0108639
0.013848
0.0193858
0.0339289
0.0495409
0.06442
0.0766307
0.104481
0.139913
0.195478
0.297899
0.333622
2.01612e-05
2.03536e-05
2.05707e-05
2.08135e-05
2.10824e-05
2.13766e-05
2.16942e-05
2.20328e-05
2.23912e-05
2.27637e-05
2.31655e-05
2.35928e-05
2.41895e-05
2.51416e-05
2.78201e-05
3.99026e-05
0.000194516
0.0016036
0.00449942
0.00694894
0.00732331
0.00742231
0.00760511
0.00782308
0.00782704
0.00849597
0.00745287
0.00949707
0.0146691
0.0168413
0.0189159
0.0453818
0.0305724
0.0364336
0.0770544
0.0818078
0.243378
0.306244
2.16439e-05
2.18743e-05
2.21378e-05
2.2437e-05
2.2774e-05
2.31497e-05
2.35641e-05
2.40141e-05
2.45016e-05
2.5017e-05
2.55918e-05
2.61833e-05
2.69863e-05
2.78616e-05
2.97931e-05
3.33892e-05
4.67033e-05
0.000152007
0.00051064
0.00116328
0.00170436
0.00230141
0.00250407
0.00199123
0.00130038
0.00114024
0.000784105
0.000808806
0.00130797
0.00266477
0.00401786
0.0120169
0.0114211
0.01589
0.0345149
0.0345687
0.0441359
0.129652
2.20435e-05
2.22926e-05
2.258e-05
2.29098e-05
2.32851e-05
2.37077e-05
2.41782e-05
2.46945e-05
2.52618e-05
2.58697e-05
2.65506e-05
2.72834e-05
2.82116e-05
2.92855e-05
3.12132e-05
3.37232e-05
3.9945e-05
4.86669e-05
7.70536e-05
0.000112731
0.000192885
0.000256155
0.000372701
0.000339633
0.000285403
0.000249959
0.000348151
0.000431052
0.000842111
0.00271122
0.00467985
0.0122672
0.0124812
0.016823
0.0146043
0.0187191
0.0349459
0.0581685
2.21356e-05
2.23954e-05
2.26982e-05
2.30497e-05
2.34549e-05
2.39175e-05
2.44411e-05
2.50201e-05
2.56663e-05
2.63455e-05
2.71468e-05
2.79218e-05
2.9038e-05
2.99866e-05
3.19852e-05
3.35058e-05
3.7776e-05
4.00958e-05
5.03579e-05
5.17392e-05
6.6739e-05
7.28682e-05
8.85461e-05
9.38575e-05
0.000126007
0.000150112
0.000292194
0.000660238
0.000915862
0.00159908
0.00185863
0.00453327
0.00543391
0.0064541
0.0104534
0.0149619
0.0379765
0.0626858
2.2162e-05
2.2432e-05
2.27504e-05
2.31244e-05
2.35607e-05
2.40629e-05
2.46348e-05
2.52692e-05
2.59847e-05
2.67346e-05
2.76341e-05
2.85139e-05
2.97408e-05
3.11313e-05
3.30034e-05
3.57309e-05
3.9145e-05
4.14429e-05
4.70995e-05
4.83348e-05
5.62462e-05
5.95972e-05
7.01868e-05
8.09906e-05
0.00012492
0.000179941
0.000342572
0.000437694
0.000653665
0.00146007
0.00169414
0.00195887
0.00308749
0.00548878
0.00649337
0.0326638
0.0708865
0.0880494
2.21788e-05
2.24611e-05
2.27989e-05
2.3203e-05
2.36851e-05
2.42523e-05
2.49142e-05
2.56523e-05
2.65112e-05
2.73315e-05
2.85001e-05
2.92702e-05
3.10247e-05
3.22056e-05
3.47041e-05
3.76885e-05
4.05819e-05
4.35947e-05
5.01112e-05
5.17028e-05
5.90929e-05
6.46243e-05
7.2567e-05
0.000104273
0.000215425
0.000254589
0.000433465
0.000637909
0.000801049
0.00138198
0.00156365
0.00225429
0.00259393
0.00493263
0.00643971
0.0200812
0.0539342
0.0556436
2.21829e-05
2.24778e-05
2.28361e-05
2.32721e-05
2.38004e-05
2.44342e-05
2.51874e-05
2.60372e-05
2.70387e-05
2.79782e-05
2.93548e-05
3.02217e-05
3.22432e-05
3.39764e-05
3.75465e-05
4.53431e-05
4.73322e-05
5.45732e-05
5.48082e-05
6.09072e-05
6.57419e-05
8.21278e-05
8.2811e-05
8.61414e-05
0.000164657
0.00040711
0.000990264
0.00112827
0.00150079
0.00170328
0.00253917
0.00335131
0.00427429
0.00606105
0.010855
0.00590334
0.0124097
0.0596488
2.21022e-05
2.24028e-05
2.27744e-05
2.32369e-05
2.38136e-05
2.45221e-05
2.53826e-05
2.63518e-05
2.75012e-05
2.84732e-05
2.99818e-05
3.07939e-05
3.29447e-05
3.49979e-05
4.18554e-05
4.41483e-05
4.60387e-05
5.28486e-05
5.61708e-05
6.74029e-05
7.09694e-05
8.20687e-05
8.58244e-05
9.24938e-05
0.000112217
0.000172871
0.0003231
0.000412675
0.000516719
0.000721388
0.00107585
0.00184734
0.00174754
0.00202095
0.0040637
0.00511297
0.0089881
0.0416843
2.16631e-05
2.1941e-05
2.22873e-05
2.2724e-05
2.32778e-05
2.39735e-05
2.48313e-05
2.58248e-05
2.6934e-05
2.79903e-05
2.90078e-05
3.00656e-05
3.06901e-05
3.30316e-05
4.36582e-05
4.82605e-05
6.79144e-05
0.000115651
0.000144323
0.000145098
0.000140762
0.000128185
0.000126339
0.000114701
0.000185369
0.00036132
0.00079667
0.000939707
0.00125897
0.0017734
0.00277559
0.00389319
0.00604268
0.00698924
0.0112322
0.0162757
0.0212609
0.233241
2.00488e-05
2.02473e-05
2.04922e-05
2.07986e-05
2.11835e-05
2.16568e-05
2.22203e-05
2.28251e-05
2.343e-05
2.39207e-05
2.4123e-05
2.44744e-05
2.51004e-05
3.01682e-05
7.22664e-05
0.000139101
0.000400657
0.000676674
0.000755583
0.000812574
0.000969701
0.000944625
0.000953882
0.000895526
0.000684789
0.000716135
0.000930657
0.00129498
0.00175254
0.00229182
0.00286536
0.00372406
0.00497178
0.00879179
0.0119166
0.0192474
0.0340993
0.0982003
1.64092e-05
1.66239e-05
1.68645e-05
1.71352e-05
1.74413e-05
1.77879e-05
1.81784e-05
1.86132e-05
1.90864e-05
1.95828e-05
2.0044e-05
2.05471e-05
2.06978e-05
2.35958e-05
0.000169719
0.000306036
0.000341916
0.000424897
0.000540418
0.000525729
0.000513926
0.000638878
0.000644793
0.000572091
0.000571614
0.00063338
0.000766274
0.000987976
0.0014977
0.00272134
0.0043317
0.00623511
0.0121925
0.0238747
0.0318385
0.0431071
0.0729872
0.125041
1.76997e-05
1.79547e-05
1.82377e-05
1.85506e-05
1.8895e-05
1.92722e-05
1.9683e-05
2.01275e-05
2.0606e-05
2.11178e-05
2.16575e-05
2.22239e-05
2.27932e-05
2.33658e-05
2.39577e-05
5.06547e-05
0.000916163
0.00475078
0.00573843
0.00477136
0.00413604
0.0047684
0.00757724
0.00853051
0.0110955
0.0121264
0.0130003
0.0158837
0.0197997
0.0314937
0.0470273
0.0583819
0.0751877
0.101893
0.124261
0.177645
0.221678
0.252909
2.30035e-05
2.32235e-05
2.3477e-05
2.37658e-05
2.40906e-05
2.44498e-05
2.48407e-05
2.52579e-05
2.56971e-05
2.61507e-05
2.66353e-05
2.7161e-05
2.79111e-05
2.92188e-05
3.30977e-05
4.90142e-05
0.000170858
0.00130642
0.00345879
0.00486609
0.00539205
0.00564007
0.00601489
0.00630566
0.00747481
0.0095616
0.0085663
0.011867
0.0137245
0.0107591
0.0172272
0.017652
0.0185041
0.0245966
0.0383296
0.0553884
0.0804872
0.156718
2.49419e-05
2.5233e-05
2.55725e-05
2.59641e-05
2.64101e-05
2.69105e-05
2.74629e-05
2.80601e-05
2.87001e-05
2.93722e-05
3.01062e-05
3.08973e-05
3.19476e-05
3.3387e-05
3.64858e-05
4.32943e-05
6.5335e-05
0.000146619
0.000407165
0.000645424
0.000938493
0.00104034
0.00163207
0.00134378
0.00104
0.00105634
0.000865576
0.000944394
0.0011407
0.00267454
0.00265198
0.0077872
0.0101316
0.0154069
0.0320581
0.0351671
0.0702023
0.209711
2.55403e-05
2.58687e-05
2.62554e-05
2.67065e-05
2.72259e-05
2.78143e-05
2.84701e-05
2.91878e-05
2.99698e-05
3.08056e-05
3.17308e-05
3.27566e-05
3.40618e-05
3.57688e-05
3.88725e-05
4.37482e-05
5.56948e-05
7.13983e-05
0.000103775
0.00011729
0.000171259
0.000186105
0.000287816
0.000303412
0.000284487
0.000288112
0.000425215
0.0005081
0.000861865
0.00192071
0.00244632
0.00597334
0.0105818
0.00847881
0.0175705
0.015413
0.0425486
0.134697
2.57062e-05
2.60553e-05
2.64716e-05
2.6964e-05
2.75402e-05
2.82046e-05
2.89588e-05
2.97909e-05
3.07046e-05
3.16685e-05
3.27541e-05
3.39052e-05
3.53727e-05
3.70934e-05
3.98903e-05
4.31368e-05
5.01948e-05
5.58024e-05
7.04335e-05
7.31459e-05
9.15229e-05
9.91537e-05
0.000118563
0.000158936
0.000209794
0.00024949
0.00042495
0.000544384
0.00112631
0.00146634
0.00157346
0.00229654
0.00430685
0.00475553
0.0065037
0.0145523
0.0428018
0.0586964
2.57546e-05
2.61214e-05
2.65647e-05
2.70967e-05
2.77278e-05
2.84627e-05
2.9304e-05
3.02401e-05
3.12875e-05
3.23973e-05
3.36839e-05
3.50288e-05
3.68345e-05
3.90551e-05
4.23229e-05
4.65528e-05
5.26589e-05
5.62315e-05
6.46726e-05
6.79965e-05
7.78383e-05
8.69824e-05
9.87575e-05
0.0001343
0.000153326
0.000235849
0.000400889
0.00042023
0.000808475
0.000907123
0.00125239
0.0016186
0.00307725
0.00451582
0.00549175
0.0174119
0.040899
0.0335926
2.57743e-05
2.61591e-05
2.6633e-05
2.72149e-05
2.79244e-05
2.87747e-05
2.97711e-05
3.08871e-05
3.21464e-05
3.33948e-05
3.49602e-05
3.62563e-05
3.86028e-05
4.08174e-05
4.45252e-05
4.99606e-05
5.48523e-05
5.92655e-05
6.88054e-05
7.13203e-05
7.93682e-05
8.8498e-05
0.000101035
0.0001521
0.000220575
0.000234715
0.000301769
0.000369482
0.000440067
0.000580348
0.000808059
0.00115063
0.0016687
0.00326867
0.00644296
0.00905866
0.0319026
0.0363984
2.57578e-05
2.61594e-05
2.66631e-05
2.72937e-05
2.80769e-05
2.90311e-05
3.01779e-05
3.14811e-05
3.29773e-05
3.4426e-05
3.63354e-05
3.7734e-05
4.07319e-05
4.37781e-05
4.99428e-05
6.12208e-05
6.37816e-05
6.97575e-05
7.17216e-05
7.36153e-05
7.97461e-05
8.66777e-05
9.26716e-05
0.000115587
0.000164893
0.000218328
0.000269072
0.000304836
0.000366885
0.000440373
0.00075433
0.000957984
0.00144308
0.00304084
0.00742571
0.00631158
0.00921292
0.0214202
2.55946e-05
2.5997e-05
2.65126e-05
2.71764e-05
2.80287e-05
2.91016e-05
3.04161e-05
3.19086e-05
3.35972e-05
3.50961e-05
3.70767e-05
3.8369e-05
4.14521e-05
4.48872e-05
5.40477e-05
5.86554e-05
6.17472e-05
7.1514e-05
7.58531e-05
8.48123e-05
8.92066e-05
9.35883e-05
0.000102787
0.000111546
0.00013544
0.000160179
0.000212199
0.000259382
0.000306398
0.000430334
0.000570573
0.000656118
0.000883453
0.00116096
0.002514
0.00417842
0.00919742
0.0305492
2.49352e-05
2.52905e-05
2.57529e-05
2.63588e-05
2.7154e-05
2.81805e-05
2.94643e-05
3.09521e-05
3.25631e-05
3.40565e-05
3.53654e-05
3.67415e-05
3.77614e-05
4.09806e-05
5.54253e-05
6.7496e-05
9.57829e-05
0.000157766
0.000187656
0.000185043
0.000175277
0.000167786
0.000174189
0.000177588
0.000198809
0.000265684
0.000373264
0.000540035
0.000686242
0.000931956
0.00150877
0.00209122
0.00328027
0.0040357
0.00692893
0.0114937
0.0268595
0.117764
2.28206e-05
2.30408e-05
2.33253e-05
2.36972e-05
2.41822e-05
2.47984e-05
2.55506e-05
2.63673e-05
2.7166e-05
2.77506e-05
2.80743e-05
2.82749e-05
2.94603e-05
3.86214e-05
0.000109926
0.000244793
0.000677173
0.000974115
0.00105098
0.0011246
0.00128112
0.00130173
0.00138795
0.00147709
0.00152037
0.00173884
0.00199468
0.00251017
0.00289684
0.0035111
0.00478737
0.00569523
0.00745117
0.0119638
0.0187426
0.0235278
0.0329123
0.071725
1.74401e-05
1.76456e-05
1.78752e-05
1.8133e-05
1.84242e-05
1.87543e-05
1.91281e-05
1.95473e-05
2.00154e-05
2.04944e-05
2.10378e-05
2.14542e-05
2.23384e-05
3.8419e-05
0.000272157
0.000421158
0.000465774
0.000565251
0.000705686
0.000722523
0.000782869
0.000907552
0.00090994
0.000867554
0.000922397
0.00103672
0.00111927
0.00139176
0.00193082
0.00355573
0.00582016
0.00791812
0.0148318
0.0304293
0.0438956
0.0526815
0.073174
0.12129
1.80592e-05
1.83162e-05
1.86021e-05
1.89191e-05
1.92689e-05
1.96529e-05
2.00719e-05
2.05262e-05
2.10164e-05
2.1542e-05
2.20978e-05
2.26834e-05
2.32774e-05
2.38895e-05
2.44623e-05
2.71755e-05
0.00019792
0.00272145
0.00467607
0.00327996
0.00185942
0.00274975
0.00787498
0.00960002
0.0121469
0.0136659
0.0144302
0.0169263
0.0191465
0.0261345
0.0373564
0.0427707
0.0650005
0.0977515
0.120443
0.152604
0.174648
0.189723
2.43141e-05
2.45601e-05
2.4846e-05
2.51744e-05
2.55463e-05
2.596e-05
2.64124e-05
2.6897e-05
2.74084e-05
2.7939e-05
2.85048e-05
2.91254e-05
2.99789e-05
3.14189e-05
3.51961e-05
4.77551e-05
0.000111292
0.000547458
0.00158227
0.00163242
0.00167098
0.00186722
0.00353322
0.00592463
0.00797291
0.0115417
0.01066
0.0128635
0.0149648
0.0100573
0.0175059
0.0109886
0.0138187
0.0255225
0.0319798
0.0431072
0.0639167
0.120129
2.65748e-05
2.69203e-05
2.73262e-05
2.77973e-05
2.83363e-05
2.89425e-05
2.96117e-05
3.0334e-05
3.11037e-05
3.19109e-05
3.27837e-05
3.37439e-05
3.49915e-05
3.67962e-05
4.04252e-05
4.80383e-05
6.97817e-05
0.000117807
0.00022338
0.000271442
0.00035382
0.000356098
0.000584985
0.000971023
0.00102522
0.0012729
0.00111003
0.000975484
0.00109646
0.0016826
0.00180508
0.00546864
0.00923573
0.010744
0.028763
0.0252622
0.0495845
0.163634
2.7326e-05
2.77272e-05
2.82029e-05
2.87607e-05
2.94053e-05
3.01364e-05
3.09504e-05
3.18394e-05
3.28036e-05
3.38331e-05
3.49633e-05
3.62308e-05
3.7824e-05
3.99846e-05
4.37162e-05
4.97814e-05
6.33605e-05
8.29063e-05
0.000115248
0.000121053
0.000158545
0.000168065
0.000217388
0.000302482
0.000309557
0.000365646
0.000480099
0.000551736
0.000700196
0.00146514
0.00160047
0.00444372
0.00859619
0.00658324
0.0141057
0.0138498
0.0293363
0.107451
2.75574e-05
2.79895e-05
2.85085e-05
2.91264e-05
2.98529e-05
3.06927e-05
3.16451e-05
3.26926e-05
3.38303e-05
3.50307e-05
3.63557e-05
3.78073e-05
3.95959e-05
4.18784e-05
4.5301e-05
4.98253e-05
5.80964e-05
6.57204e-05
8.11179e-05
8.67692e-05
0.000106178
0.000121402
0.000146667
0.000245584
0.000298911
0.000345905
0.000531822
0.000566241
0.000895786
0.00104992
0.00131125
0.00211607
0.00355896
0.00412109
0.00670554
0.0127128
0.0252207
0.0334368
2.76266e-05
2.80826e-05
2.86394e-05
2.93127e-05
3.01159e-05
3.10553e-05
3.21328e-05
3.33338e-05
3.46702e-05
3.60968e-05
3.77177e-05
3.94721e-05
4.17511e-05
4.46612e-05
4.88293e-05
5.4195e-05
6.13256e-05
6.61127e-05
7.59403e-05
8.08741e-05
9.24065e-05
0.000104669
0.000121267
0.000169118
0.000190057
0.000250326
0.000395892
0.000432724
0.000578072
0.000845024
0.00106866
0.00143669
0.00250382
0.0032834
0.0045065
0.0119727
0.0299811
0.0206084
2.76458e-05
2.81248e-05
2.87208e-05
2.94606e-05
3.0371e-05
3.1471e-05
3.27625e-05
3.4212e-05
3.58236e-05
3.7451e-05
3.93704e-05
4.11751e-05
4.39665e-05
4.70903e-05
5.17794e-05
5.85145e-05
6.4817e-05
7.01734e-05
8.02869e-05
8.3696e-05
9.22366e-05
0.000102849
0.000117623
0.000171052
0.000228439
0.000245225
0.000298059
0.000373599
0.00040563
0.000503085
0.000773222
0.000991361
0.0014428
0.00284075
0.005613
0.00736629
0.0167964
0.0209303
2.76038e-05
2.81006e-05
2.87322e-05
2.9533e-05
3.0539e-05
3.17762e-05
3.3273e-05
3.49884e-05
3.69394e-05
3.88836e-05
4.13018e-05
4.33134e-05
4.71097e-05
5.1277e-05
5.89335e-05
7.04508e-05
7.38396e-05
7.82748e-05
8.2954e-05
8.50952e-05
9.21227e-05
9.92555e-05
0.000104698
0.000132989
0.000187018
0.00019204
0.000213842
0.0002228
0.000256143
0.000300425
0.000437612
0.000637204
0.00107584
0.00234129
0.00679199
0.008749
0.0105269
0.0191372
2.73634e-05
2.78536e-05
2.84919e-05
2.93274e-05
3.04171e-05
3.18101e-05
3.3534e-05
3.55164e-05
3.77368e-05
3.97832e-05
4.22807e-05
4.40124e-05
4.79476e-05
5.17538e-05
6.05973e-05
6.85724e-05
7.28751e-05
8.24502e-05
9.05138e-05
9.45511e-05
0.000102126
0.000106494
0.000114266
0.000127504
0.000160653
0.000175021
0.000209119
0.000236747
0.000266534
0.000358608
0.000477535
0.000571259
0.000815187
0.00102585
0.00204853
0.00447003
0.00834676
0.0282338
2.65348e-05
2.69541e-05
2.75092e-05
2.82513e-05
2.92452e-05
3.05525e-05
3.22117e-05
3.41596e-05
3.62775e-05
3.82366e-05
4.00205e-05
4.14694e-05
4.30524e-05
4.78528e-05
6.52674e-05
0.000102248
0.000143145
0.000205462
0.000216838
0.000214234
0.000215962
0.000220493
0.000241728
0.000267775
0.00030878
0.000440599
0.000551149
0.000773706
0.000909794
0.00116424
0.00191618
0.0025925
0.00371677
0.00405132
0.0061839
0.0097149
0.0239931
0.0925552
2.40657e-05
2.43026e-05
2.46147e-05
2.50308e-05
2.55853e-05
2.63097e-05
2.72101e-05
2.82178e-05
2.92211e-05
2.99788e-05
3.05649e-05
3.08405e-05
3.36679e-05
6.10215e-05
0.000185489
0.00044467
0.00101174
0.00126145
0.00131083
0.00149364
0.00165392
0.00178925
0.00208097
0.00232092
0.00257236
0.00311886
0.00346116
0.00400901
0.00443169
0.00527559
0.00711817
0.00883603
0.0119559
0.0169831
0.0267376
0.025003
0.0297167
0.0633339
1.77711e-05
1.79692e-05
1.81899e-05
1.84374e-05
1.87169e-05
1.90352e-05
1.93998e-05
1.98214e-05
2.02902e-05
2.08133e-05
2.15079e-05
2.28317e-05
2.766e-05
0.000101674
0.000407341
0.000534223
0.000588836
0.000742345
0.000905757
0.000947287
0.00108237
0.00124425
0.00129316
0.00136195
0.00156253
0.00165669
0.00168026
0.00187683
0.0023523
0.00427871
0.00713137
0.00919362
0.015386
0.0318546
0.0493634
0.056766
0.0710461
0.11218
1.81918e-05
1.84495e-05
1.87368e-05
1.90559e-05
1.94086e-05
1.97964e-05
2.02202e-05
2.06804e-05
2.11779e-05
2.1712e-05
2.2278e-05
2.28757e-05
2.34865e-05
2.41242e-05
2.47374e-05
2.55314e-05
3.80257e-05
0.000542707
0.00213332
0.00201038
0.000820941
0.00199349
0.00759268
0.0108149
0.0130956
0.0148582
0.0153994
0.0171928
0.0182747
0.0216327
0.0269938
0.0296832
0.0459589
0.0806359
0.116318
0.127051
0.133156
0.174497
2.49296e-05
2.51922e-05
2.5499e-05
2.58532e-05
2.6256e-05
2.6706e-05
2.71996e-05
2.773e-05
2.82913e-05
2.88763e-05
2.94984e-05
3.01825e-05
3.10778e-05
3.2498e-05
3.56917e-05
4.44041e-05
7.59735e-05
0.000194872
0.000510272
0.000545985
0.000519823
0.00075408
0.00286721
0.00690522
0.00989241
0.0138603
0.0126105
0.0145767
0.0144794
0.0119392
0.0123324
0.00791842
0.0116991
0.0183244
0.0290569
0.0310441
0.0503396
0.0742441
2.7437e-05
2.78226e-05
2.82771e-05
2.88064e-05
2.94131e-05
3.00966e-05
3.08513e-05
3.16652e-05
3.25299e-05
3.34369e-05
3.44119e-05
3.54918e-05
3.68608e-05
3.88316e-05
4.24774e-05
4.95576e-05
6.6274e-05
0.000100628
0.000147028
0.000162336
0.000218854
0.000239757
0.000442911
0.00104915
0.00145802
0.00188225
0.00155099
0.00127082
0.00115625
0.0011788
0.00131284
0.00387966
0.00822884
0.0076623
0.0137637
0.0263344
0.0686996
0.137821
2.83129e-05
2.87694e-05
2.93126e-05
2.9951e-05
3.06901e-05
3.1529e-05
3.24624e-05
3.34808e-05
3.45823e-05
3.57576e-05
3.70398e-05
3.8481e-05
4.02621e-05
4.26753e-05
4.65939e-05
5.28234e-05
6.54593e-05
8.36807e-05
0.000113176
0.000121547
0.000154357
0.000177974
0.00025636
0.000348847
0.000366129
0.000462745
0.000549796
0.000535697
0.000618963
0.000789333
0.00120483
0.00407181
0.00510805
0.00430803
0.00860428
0.0121982
0.023973
0.0534505
2.86005e-05
2.90969e-05
2.96954e-05
3.04105e-05
3.12536e-05
3.22296e-05
3.33359e-05
3.45503e-05
3.58607e-05
3.72424e-05
3.8753e-05
4.04308e-05
4.24693e-05
4.51233e-05
4.89259e-05
5.41179e-05
6.25166e-05
7.10326e-05
8.50827e-05
9.32706e-05
0.000113659
0.000134115
0.000177276
0.000305078
0.000342089
0.00039851
0.000576851
0.000599518
0.00079422
0.000981417
0.00116053
0.00193374
0.00269103
0.00337357
0.00637499
0.0187809
0.0191295
0.0275245
2.86888e-05
2.92149e-05
2.98607e-05
3.06457e-05
3.15858e-05
3.26893e-05
3.39579e-05
3.53755e-05
3.69497e-05
3.86396e-05
4.05401e-05
4.26327e-05
4.5276e-05
4.86751e-05
5.33297e-05
5.92708e-05
6.66677e-05
7.24418e-05
8.25659e-05
8.90867e-05
0.00010158
0.000115917
0.000138226
0.000192078
0.000213726
0.000264397
0.00039825
0.000441171
0.000555421
0.000855913
0.000971562
0.00138028
0.0020071
0.0027235
0.00441522
0.0134272
0.0225655
0.0202717
2.87079e-05
2.92613e-05
2.99547e-05
3.08214e-05
3.18967e-05
3.32054e-05
3.47472e-05
3.64885e-05
3.84156e-05
4.03851e-05
4.26343e-05
4.48761e-05
4.80145e-05
5.17979e-05
5.70466e-05
6.43241e-05
7.14674e-05
7.75404e-05
8.73369e-05
9.1704e-05
0.000100742
0.000112277
0.000127842
0.000176911
0.000231699
0.000254401
0.000323737
0.000370546
0.000449636
0.000538307
0.000793076
0.000977023
0.00138995
0.0026056
0.00532677
0.00813414
0.0140209
0.0189644
2.86431e-05
2.92154e-05
2.99495e-05
3.08895e-05
3.20825e-05
3.35657e-05
3.53808e-05
3.74877e-05
3.98947e-05
4.23559e-05
4.53009e-05
4.79294e-05
5.22182e-05
5.73553e-05
6.51927e-05
7.55867e-05
7.9534e-05
8.35326e-05
9.0326e-05
9.36169e-05
0.000101427
0.000109955
0.000114445
0.000136675
0.000184812
0.000195392
0.000217577
0.000224404
0.000264799
0.000301277
0.000450108
0.000614748
0.0010301
0.00202651
0.00557874
0.0111827
0.0130048
0.0177916
2.83383e-05
2.88979e-05
2.96357e-05
3.06151e-05
3.19128e-05
3.36017e-05
3.57297e-05
3.8235e-05
4.10614e-05
4.37258e-05
4.67348e-05
4.87576e-05
5.29673e-05
5.73743e-05
6.50882e-05
7.62337e-05
8.23536e-05
9.15163e-05
9.92422e-05
0.000102626
0.00011057
0.000118578
0.00012549
0.000139074
0.000170668
0.000194046
0.000226268
0.000248778
0.000281518
0.000359203
0.000461176
0.000686167
0.00089492
0.00104865
0.00182133
0.00412554
0.00769672
0.0233418
2.73732e-05
2.78419e-05
2.84716e-05
2.93289e-05
3.05005e-05
3.20776e-05
3.41304e-05
3.66061e-05
3.93156e-05
4.18548e-05
4.39951e-05
4.54604e-05
4.82095e-05
6.04951e-05
9.05051e-05
0.00016331
0.000219327
0.00026223
0.000261669
0.000264692
0.000274595
0.000300097
0.000364945
0.000417415
0.0005033
0.000718934
0.00087281
0.00110926
0.00127228
0.00164221
0.00257663
0.00343434
0.00462989
0.00446169
0.00578105
0.00815645
0.0188148
0.0658359
2.46345e-05
2.48807e-05
2.52106e-05
2.56595e-05
2.62776e-05
2.71095e-05
2.81825e-05
2.94474e-05
3.07342e-05
3.19617e-05
3.26384e-05
3.47581e-05
4.89575e-05
0.000153645
0.000370319
0.000735388
0.0013322
0.00148036
0.00164608
0.0019736
0.00214917
0.00250119
0.00301897
0.00334875
0.00373483
0.00437579
0.00476073
0.00526542
0.00578428
0.00690504
0.00899883
0.0110492
0.014681
0.0191519
0.028418
0.0251087
0.027084
0.0497357
1.78828e-05
1.8075e-05
1.82886e-05
1.85281e-05
1.88001e-05
1.91136e-05
1.94818e-05
1.99134e-05
2.03948e-05
2.1404e-05
2.38478e-05
3.01709e-05
6.5648e-05
0.000272497
0.000569599
0.000667233
0.000761265
0.000940894
0.00114654
0.00123591
0.00143808
0.0016667
0.0018024
0.00202697
0.00227613
0.00234891
0.00234014
0.00241003
0.00278691
0.00484709
0.00817636
0.0102667
0.0150098
0.0306399
0.0501533
0.0584319
0.0667754
0.102213
1.824e-05
1.84984e-05
1.87868e-05
1.91075e-05
1.94624e-05
1.98529e-05
2.02802e-05
2.07447e-05
2.1247e-05
2.17865e-05
2.23586e-05
2.29635e-05
2.35852e-05
2.42381e-05
2.4877e-05
2.56276e-05
2.69485e-05
7.95085e-05
0.000459422
0.000520497
0.000320547
0.00225402
0.00819359
0.0117604
0.0138995
0.0157662
0.0162285
0.0171117
0.0175402
0.0186922
0.0209097
0.0223585
0.0305896
0.0533067
0.103764
0.113111
0.105724
0.146405
2.52096e-05
2.54815e-05
2.58003e-05
2.61698e-05
2.65913e-05
2.70636e-05
2.75825e-05
2.81415e-05
2.87338e-05
2.93525e-05
3.00084e-05
3.07285e-05
3.16296e-05
3.29759e-05
3.55697e-05
4.1522e-05
5.76654e-05
0.000103168
0.000181877
0.00021226
0.00025904
0.000674217
0.00323276
0.00841357
0.0119197
0.0148292
0.0146361
0.0152048
0.0152084
0.0132756
0.0104813
0.00695664
0.00980514
0.0138257
0.0208162
0.0272424
0.032128
0.0565284
2.78917e-05
2.83028e-05
2.87888e-05
2.9356e-05
3.00078e-05
3.0743e-05
3.15555e-05
3.24316e-05
3.33609e-05
3.43359e-05
3.53802e-05
3.65383e-05
3.79705e-05
3.9982e-05
4.34008e-05
4.95428e-05
6.20413e-05
8.41839e-05
0.000114678
0.000127738
0.000176206
0.000222756
0.000492377
0.001301
0.00234862
0.00257797
0.00206724
0.00154395
0.00139561
0.00118872
0.00122652
0.00220421
0.00509956
0.00373933
0.00629117
0.0145982
0.0537398
0.0784111
2.88633e-05
2.93571e-05
2.99461e-05
3.06401e-05
3.14451e-05
3.236e-05
3.33781e-05
3.44889e-05
3.56886e-05
3.69686e-05
3.83586e-05
3.99186e-05
4.18132e-05
4.4341e-05
4.82005e-05
5.41466e-05
6.49579e-05
8.02605e-05
0.000103084
0.000115184
0.00014596
0.000185101
0.000303521
0.000373898
0.000439791
0.000581094
0.000599085
0.00054919
0.000587659
0.000681914
0.00100101
0.00224914
0.00258724
0.0026892
0.00504722
0.00835208
0.0153695
0.0323219
2.91954e-05
2.97363e-05
3.03907e-05
3.11751e-05
3.21028e-05
3.31795e-05
3.44008e-05
3.57413e-05
3.71824e-05
3.87012e-05
4.03546e-05
4.2203e-05
4.44279e-05
4.73167e-05
5.13083e-05
5.67523e-05
6.47301e-05
7.3606e-05
8.57221e-05
9.59997e-05
0.000114993
0.000138684
0.000192949
0.000317253
0.000342013
0.000408378
0.000568864
0.000610115
0.000721883
0.00101444
0.00109873
0.00159413
0.00208249
0.00283197
0.00534125
0.0153346
0.0173603
0.0192535
2.92995e-05
2.9875e-05
3.05849e-05
3.14524e-05
3.24958e-05
3.37271e-05
3.51482e-05
3.67438e-05
3.85189e-05
4.04359e-05
4.25794e-05
4.49515e-05
4.7864e-05
5.15613e-05
5.64058e-05
6.25296e-05
6.99077e-05
7.64633e-05
8.61826e-05
9.4421e-05
0.000106655
0.000122858
0.000148374
0.000202266
0.000221955
0.000268331
0.000381583
0.000432768
0.000517835
0.000757851
0.00088431
0.00128518
0.00161005
0.00229272
0.00388658
0.0103924
0.0154368
0.0144537
2.93191e-05
2.99259e-05
3.06915e-05
3.16558e-05
3.28637e-05
3.43468e-05
3.61088e-05
3.81203e-05
4.03526e-05
4.26525e-05
4.52118e-05
4.78063e-05
5.11811e-05
5.53487e-05
6.08346e-05
6.82621e-05
7.57668e-05
8.2367e-05
9.16658e-05
9.72396e-05
0.000106024
0.000118293
0.000133156
0.000175371
0.000227901
0.000260984
0.000336882
0.000385158
0.000475167
0.000563174
0.000800889
0.000982362
0.0013632
0.00241447
0.00460387
0.00859699
0.012593
0.0139139
2.92371e-05
2.98644e-05
3.06763e-05
3.17273e-05
3.30779e-05