/*--------------------------------*- C++ -*----------------------------------*\
| =========                 |                                                 |
| \\      /  F ield         | OpenFOAM: The Open Source CFD Toolbox           |
|  \\    /   O peration     | Version:  2.3.1                                 |
|   \\  /    A nd           | Web:      www.OpenFOAM.org                      |
|    \\/     M anipulation  |                                                 |
\*---------------------------------------------------------------------------*/
FoamFile
{
    version     2.0;
    format      ascii;
    class       volScalarField;
    location    "5";
    object      nut;
}
// * * * * * * * * * * * * * * * * * * * * * * * * * * * * * * * * * * * * * //

dimensions      [0 2 -1 0 0 0 0];

internalField   nonuniform List<scalar> 
38262
(
4.409e-06
4.45967e-06
4.51474e-06
4.57437e-06
4.63839e-06
4.70657e-06
4.78371e-06
4.86722e-06
4.95544e-06
5.04803e-06
5.14318e-06
5.24094e-06
5.33478e-06
5.42804e-06
5.61145e-06
1.22283e-05
4.50121e-05
8.19858e-05
8.75168e-05
8.69228e-05
8.67401e-05
8.68381e-05
9.08891e-05
0.000102679
0.000105964
0.000107736
0.000114175
0.000137358
0.000177503
0.000235073
0.000252935
0.000290878
0.000318736
0.000376584
0.000439715
0.000517148
0.000668766
0.000839087
4.84988e-06
4.9145e-06
4.98561e-06
5.06355e-06
5.14859e-06
5.24088e-06
5.34035e-06
5.44674e-06
5.55932e-06
5.67705e-06
5.79762e-06
5.91998e-06
6.03619e-06
6.14892e-06
6.23318e-06
6.68058e-06
1.68458e-05
4.44344e-05
5.78347e-05
6.99159e-05
8.14769e-05
8.67832e-05
8.66825e-05
8.823e-05
8.25667e-05
7.26044e-05
6.45005e-05
6.94791e-05
7.33609e-05
9.72018e-05
0.000100956
0.00017449
0.000173137
0.000182525
0.000245171
0.000263823
0.000420984
0.000613843
4.93999e-06
5.00467e-06
5.076e-06
5.15442e-06
5.2403e-06
5.33388e-06
5.43527e-06
5.54445e-06
5.66099e-06
5.7846e-06
5.91376e-06
6.04935e-06
6.18532e-06
6.33305e-06
6.46144e-06
6.64481e-06
7.33136e-06
1.4535e-05
2.42713e-05
3.24421e-05
4.16927e-05
5.89013e-05
5.34516e-05
5.48205e-05
4.4304e-05
3.74146e-05
2.85124e-05
2.72631e-05
3.46895e-05
5.22989e-05
5.76828e-05
8.54974e-05
9.93222e-05
0.000130804
0.000154488
0.000171818
0.000240441
0.000449088
4.95596e-06
5.02051e-06
5.09187e-06
5.17059e-06
5.25709e-06
5.3517e-06
5.45451e-06
5.56545e-06
5.68411e-06
5.8103e-06
5.94273e-06
6.08235e-06
6.22545e-06
6.37986e-06
6.5351e-06
6.7289e-06
6.90506e-06
7.61458e-06
9.60646e-06
1.29172e-05
1.43788e-05
2.63506e-05
2.15854e-05
2.8447e-05
2.48375e-05
2.30784e-05
1.86872e-05
2.09423e-05
2.26127e-05
3.09339e-05
4.80442e-05
8.08444e-05
8.58836e-05
0.000129295
0.000112012
0.000137082
0.000153912
0.00030421
4.95516e-06
5.01942e-06
5.09066e-06
5.16953e-06
5.25659e-06
5.35236e-06
5.45721e-06
5.57145e-06
5.69484e-06
5.82775e-06
5.96873e-06
6.12178e-06
6.27679e-06
6.46317e-06
6.61469e-06
6.87425e-06
7.00891e-06
7.35245e-06
7.61301e-06
8.30795e-06
8.70201e-06
1.19405e-05
1.07281e-05
1.41273e-05
1.30735e-05
1.37317e-05
1.48506e-05
2.321e-05
2.24423e-05
3.73932e-05
3.82777e-05
5.81886e-05
5.7757e-05
9.84202e-05
0.000101865
0.000111812
0.000170396
0.000253437
4.95114e-06
5.015e-06
5.08603e-06
5.16497e-06
5.25253e-06
5.34925e-06
5.4554e-06
5.57102e-06
5.69592e-06
5.82979e-06
5.97285e-06
6.1247e-06
6.28496e-06
6.4682e-06
6.64162e-06
6.87991e-06
7.10338e-06
7.35677e-06
7.64716e-06
7.99509e-06
8.26007e-06
8.92136e-06
9.16066e-06
9.82011e-06
1.08512e-05
1.16589e-05
1.3227e-05
1.86591e-05
2.16924e-05
3.19039e-05
4.00031e-05
4.09663e-05
4.88393e-05
6.59526e-05
0.000116652
0.000232997
0.000273858
0.000333235
4.94668e-06
5.01006e-06
5.08082e-06
5.15986e-06
5.24812e-06
5.34651e-06
5.45577e-06
5.57635e-06
5.70877e-06
5.85071e-06
6.00959e-06
6.16895e-06
6.35401e-06
6.57434e-06
6.72776e-06
7.08896e-06
7.25455e-06
7.60327e-06
7.85894e-06
8.1341e-06
8.5261e-06
8.99803e-06
9.20342e-06
9.79826e-06
1.20151e-05
1.39824e-05
1.89673e-05
1.94864e-05
2.88521e-05
3.13423e-05
3.91682e-05
4.39139e-05
5.01583e-05
6.22287e-05
9.38031e-05
0.000233002
0.000276372
0.000275348
4.94197e-06
5.00478e-06
5.07515e-06
5.15414e-06
5.24283e-06
5.3422e-06
5.45299e-06
5.57525e-06
5.71011e-06
5.85136e-06
6.01671e-06
6.16089e-06
6.37243e-06
6.53955e-06
6.77441e-06
7.10671e-06
7.35879e-06
7.71056e-06
8.25026e-06
8.3674e-06
9.03524e-06
9.18716e-06
9.67669e-06
1.00779e-05
1.27857e-05
1.96373e-05
2.96601e-05
3.15659e-05
4.35094e-05
4.4049e-05
5.88439e-05
6.50037e-05
7.54705e-05
8.56934e-05
0.000102197
0.000124807
0.000210237
0.000273411
4.93428e-06
4.99626e-06
5.06589e-06
5.14446e-06
5.23339e-06
5.3342e-06
5.44814e-06
5.57576e-06
5.71837e-06
5.86824e-06
6.04496e-06
6.20522e-06
6.40318e-06
6.6662e-06
6.8356e-06
7.31896e-06
7.51962e-06
8.03445e-06
8.25274e-06
8.8035e-06
9.14079e-06
9.69327e-06
9.92925e-06
1.03956e-05
1.14649e-05
1.44278e-05
2.04264e-05
2.38381e-05
3.09323e-05
3.59981e-05
4.73318e-05
5.62962e-05
6.26436e-05
6.8724e-05
8.33669e-05
8.45167e-05
9.47046e-05
0.00030222
4.90818e-06
4.96835e-06
5.03589e-06
5.11206e-06
5.19831e-06
5.29617e-06
5.40683e-06
5.53081e-06
5.66757e-06
5.8133e-06
5.96498e-06
6.1191e-06
6.26427e-06
6.37632e-06
6.72788e-06
7.56189e-06
8.13709e-06
9.55236e-06
1.16072e-05
1.35003e-05
1.34878e-05
1.3036e-05
1.22871e-05
1.15353e-05
1.37077e-05
2.15596e-05
2.84048e-05
3.08841e-05
3.74381e-05
4.48325e-05
5.68866e-05
6.44148e-05
8.06896e-05
9.30451e-05
0.000113162
0.000139791
0.000149324
0.000360712
4.80209e-06
4.85801e-06
4.92014e-06
4.98948e-06
5.0672e-06
5.15459e-06
5.25222e-06
5.36084e-06
5.47703e-06
5.60109e-06
5.72027e-06
5.82451e-06
5.94073e-06
5.95166e-06
8.58517e-06
1.00571e-05
1.41201e-05
1.84317e-05
2.12715e-05
2.20789e-05
2.37793e-05
2.31838e-05
2.42474e-05
2.21313e-05
1.85289e-05
2.09788e-05
2.6342e-05
3.01734e-05
3.45432e-05
4.07451e-05
5.20444e-05
6.17125e-05
7.45604e-05
8.60416e-05
0.000103493
0.000125018
0.000165925
0.000294913
4.37131e-06
4.41674e-06
4.46704e-06
4.52293e-06
4.58519e-06
4.65455e-06
4.72992e-06
4.81706e-06
4.91092e-06
5.00781e-06
5.0988e-06
5.18729e-06
5.21116e-06
5.33884e-06
1.31049e-05
1.77988e-05
1.83606e-05
2.09884e-05
2.20557e-05
2.09843e-05
2.19542e-05
2.45973e-05
2.47696e-05
2.46982e-05
2.58058e-05
2.67906e-05
3.06812e-05
3.50267e-05
4.31514e-05
5.78117e-05
7.25157e-05
8.87577e-05
0.000121681
0.000160389
0.000181909
0.000206645
0.000270339
0.000362334
1.02979e-05
1.03756e-05
1.04608e-05
1.05539e-05
1.06552e-05
1.07648e-05
1.08829e-05
1.10092e-05
1.11432e-05
1.12846e-05
1.14313e-05
1.15825e-05
1.17286e-05
1.18654e-05
1.21659e-05
2.71926e-05
0.000104234
0.000185772
0.000196671
0.000193865
0.000187872
0.000191191
0.000205654
0.000225274
0.000244901
0.000249183
0.000261346
0.000301486
0.000373238
0.000490121
0.000572684
0.000641205
0.000692826
0.00079622
0.00092156
0.00107193
0.00129296
0.00136573
2.26594e-05
2.28378e-05
2.30289e-05
2.32301e-05
2.34372e-05
2.36443e-05
2.38441e-05
2.40287e-05
2.41837e-05
2.42844e-05
2.43207e-05
2.42454e-05
2.4037e-05
2.34716e-05
2.30115e-05
2.43584e-05
2.59505e-05
7.49315e-05
0.000148004
0.00020136
0.000218249
0.000227083
0.000235432
0.000246376
0.000244503
0.000264117
0.000235695
0.000272683
0.000356407
0.000347222
0.000345901
0.000547829
0.000434202
0.000420383
0.000706162
0.000786368
0.00108644
0.00170702
2.76894e-05
2.79433e-05
2.822e-05
2.85181e-05
2.88343e-05
2.91629e-05
2.94965e-05
2.98239e-05
3.01388e-05
3.04171e-05
3.06871e-05
3.08508e-05
3.11273e-05
3.09065e-05
3.11002e-05
3.04521e-05
2.27675e-05
1.15912e-05
2.25344e-05
4.20522e-05
6.12925e-05
8.29837e-05
9.52019e-05
8.50732e-05
6.21954e-05
5.59135e-05
4.31481e-05
4.26849e-05
6.25505e-05
9.28804e-05
0.000147349
0.00023547
0.000236229
0.000273112
0.000434207
0.000572684
0.000446267
0.000566408
2.91283e-05
2.94229e-05
2.97488e-05
3.01057e-05
3.04914e-05
3.09005e-05
3.1325e-05
3.17518e-05
3.21759e-05
3.25691e-05
3.29656e-05
3.32944e-05
3.37431e-05
3.40117e-05
3.46852e-05
3.47628e-05
3.69396e-05
1.97878e-05
8.6685e-06
7.45273e-06
9.76297e-06
1.23119e-05
1.74573e-05
1.77112e-05
1.75269e-05
1.98881e-05
3.32039e-05
5.12808e-05
9.25004e-05
0.000199289
0.000282657
0.000485688
0.000511432
0.000499813
0.000369475
0.000366183
0.000429701
0.000389837
2.94926e-05
2.98184e-05
3.01845e-05
3.05926e-05
3.10413e-05
3.15256e-05
3.20386e-05
3.25609e-05
3.30939e-05
3.35758e-05
3.41279e-05
3.44689e-05
3.5256e-05
3.53141e-05
3.70011e-05
3.66424e-05
4.01074e-05
3.79818e-05
3.54343e-05
1.93342e-05
1.40267e-05
1.16145e-05
9.7302e-06
1.11823e-05
1.98682e-05
2.84411e-05
7.65418e-05
0.000185447
0.000123575
0.000278583
0.000221808
0.00027674
0.000313988
0.000334686
0.00040942
0.000206588
0.000424389
0.000490222
2.9628e-05
2.99881e-05
3.03998e-05
3.08668e-05
3.13899e-05
3.19634e-05
3.25774e-05
3.32062e-05
3.38524e-05
3.44366e-05
3.51046e-05
3.55474e-05
3.64317e-05
3.69271e-05
3.84177e-05
3.98342e-05
4.15182e-05
4.2971e-05
4.60997e-05
4.46365e-05
4.62177e-05
4.19178e-05
3.98207e-05
4.48676e-05
7.37984e-05
8.69294e-05
0.000109227
0.000143634
0.000121491
0.000170974
0.000216132
0.000158265
0.000229207
0.000271623
0.000225177
0.000265719
0.00048589
0.000534811
2.97339e-05
3.01359e-05
3.06052e-05
3.11506e-05
3.17788e-05
3.24839e-05
3.32594e-05
3.40609e-05
3.49129e-05
3.55932e-05
3.65456e-05
3.68759e-05
3.82235e-05
3.83244e-05
4.10024e-05
4.18359e-05
4.42008e-05
4.65531e-05
4.88876e-05
5.13981e-05
5.56439e-05
5.73653e-05
6.31419e-05
8.30312e-05
0.000147063
0.000142072
0.000132189
0.000114537
0.000128877
0.000137445
0.00012907
0.000163472
0.0001813
0.000235929
0.000249167
0.000196515
0.000331169
0.000335064
2.9792e-05
3.02367e-05
3.07663e-05
3.13955e-05
3.2136e-05
3.29957e-05
3.39726e-05
3.50125e-05
3.61374e-05
3.70597e-05
3.82969e-05
3.87768e-05
4.0192e-05
4.1178e-05
4.36874e-05
4.80723e-05
4.80503e-05
5.31854e-05
4.70386e-05
5.37533e-05
5.44337e-05
5.71415e-05
6.75324e-05
4.69167e-05
3.75518e-05
5.59663e-05
9.17982e-05
8.8861e-05
9.53879e-05
9.86372e-05
0.000129404
0.000162781
0.000163925
0.000235936
0.000365054
0.000109607
0.000131844
0.000384461
2.95394e-05
3.00059e-05
3.05723e-05
3.12606e-05
3.20917e-05
3.30713e-05
3.41964e-05
3.5375e-05
3.66108e-05
3.74418e-05
3.85128e-05
3.85535e-05
3.95157e-05
3.98147e-05
4.47211e-05
3.78842e-05
3.74635e-05
3.63364e-05
3.59699e-05
3.69168e-05
3.97482e-05
4.68705e-05
5.0749e-05
5.31309e-05
4.39445e-05
4.04483e-05
4.75966e-05
4.74226e-05
4.61199e-05
5.17001e-05
6.32651e-05
9.36622e-05
9.64941e-05
0.000109058
0.000205394
0.000200286
0.000197854
0.000355656
2.79881e-05
2.83925e-05
2.88861e-05
2.94931e-05
3.02374e-05
3.11339e-05
3.21776e-05
3.32899e-05
3.43528e-05
3.50785e-05
3.54535e-05
3.52351e-05
3.43459e-05
3.32067e-05
2.82209e-05
2.02223e-05
1.7247e-05
2.13174e-05
2.42229e-05
2.45271e-05
2.38485e-05
2.57499e-05
2.77625e-05
2.40151e-05
2.97764e-05
4.42526e-05
6.62393e-05
7.02715e-05
8.38092e-05
9.85609e-05
0.000139642
0.000156254
0.00019302
0.000212081
0.000420043
0.000443668
0.000241684
0.00122866
2.24421e-05
2.26053e-05
2.27948e-05
2.30157e-05
2.32688e-05
2.354e-05
2.37929e-05
2.39431e-05
2.38903e-05
2.35323e-05
2.27069e-05
2.17889e-05
1.98446e-05
1.97289e-05
1.80322e-05
2.53019e-05
5.77355e-05
8.66881e-05
8.8981e-05
9.45601e-05
0.000106426
9.73541e-05
9.68007e-05
8.97146e-05
6.63146e-05
6.71388e-05
7.8619e-05
0.000102708
0.000123707
0.000145422
0.000137007
0.000135704
0.00014901
0.000251188
0.000298292
0.00044624
0.000491268
0.00081567
1.02309e-05
1.0298e-05
1.03725e-05
1.04559e-05
1.05493e-05
1.0654e-05
1.07708e-05
1.08992e-05
1.10372e-05
1.118e-05
1.13106e-05
1.14521e-05
1.1493e-05
1.22746e-05
3.29297e-05
4.41066e-05
4.66158e-05
5.20436e-05
5.8641e-05
5.77948e-05
5.72205e-05
6.37233e-05
6.3958e-05
6.01889e-05
5.99865e-05
6.30964e-05
6.9537e-05
7.92385e-05
9.82442e-05
0.000132453
0.000166463
0.000203262
0.000285684
0.0003832
0.000426056
0.000501527
0.000652743
0.000848762
1.06261e-05
1.07027e-05
1.07869e-05
1.08792e-05
1.098e-05
1.10892e-05
1.12069e-05
1.13328e-05
1.14667e-05
1.16081e-05
1.17552e-05
1.19073e-05
1.20576e-05
1.22059e-05
1.23846e-05
2.12548e-05
9.267e-05
0.000179796
0.000189254
0.000168338
0.000157643
0.000174535
0.000219939
0.000233991
0.000264717
0.000274037
0.000285337
0.0003192
0.000369369
0.000473818
0.000563419
0.000618588
0.00069607
0.000786951
0.000858257
0.0010213
0.0011052
0.00115597
3.83879e-05
3.88078e-05
3.92759e-05
3.97909e-05
4.0348e-05
4.09385e-05
4.15494e-05
4.21601e-05
4.27179e-05
4.31671e-05
4.34499e-05
4.34776e-05
4.31865e-05
4.24968e-05
4.23385e-05
4.59195e-05
3.39754e-05
6.65629e-05
0.000126762
0.000164182
0.000184178
0.000196262
0.000202363
0.000209672
0.000245241
0.000307785
0.000279998
0.000334417
0.000363851
0.000268567
0.000330023
0.000345142
0.000363878
0.000396459
0.000559629
0.000729475
0.000783988
0.00121597
5.4549e-05
5.53194e-05
5.61805e-05
5.71328e-05
5.81726e-05
5.92898e-05
6.04681e-05
6.16812e-05
6.29046e-05
6.40961e-05
6.52613e-05
6.6333e-05
6.75033e-05
6.86194e-05
7.0833e-05
7.42035e-05
6.35253e-05
1.5976e-05
2.08987e-05
2.8862e-05
3.98403e-05
4.64199e-05
7.35058e-05
6.45381e-05
5.2196e-05
5.4454e-05
5.04623e-05
5.19093e-05
6.6356e-05
0.000114891
0.000134835
0.000226457
0.000281282
0.000324864
0.000547277
0.000776591
0.000622216
0.00107093
6.0155e-05
6.10872e-05
6.21371e-05
6.33092e-05
6.46034e-05
6.60099e-05
6.75101e-05
6.9077e-05
7.06885e-05
7.23049e-05
7.39561e-05
7.5596e-05
7.74821e-05
7.95526e-05
8.3109e-05
8.75425e-05
9.82766e-05
6.12485e-05
2.3513e-05
1.55663e-05
1.5338e-05
1.65272e-05
1.90034e-05
2.43138e-05
3.06326e-05
3.23816e-05
5.72655e-05
7.87502e-05
0.000137954
0.000235615
0.000278402
0.000430428
0.00076534
0.000515224
0.000565036
0.000483926
0.000511207
0.000921699
6.16926e-05
6.27154e-05
6.38811e-05
6.52003e-05
6.66758e-05
6.83012e-05
7.00618e-05
7.19171e-05
7.38404e-05
7.57569e-05
7.77641e-05
7.96832e-05
8.21545e-05
8.4362e-05
8.86191e-05
9.21296e-05
0.000101224
0.000103467
9.65795e-05
6.18179e-05
4.55371e-05
4.26269e-05
2.97578e-05
4.16832e-05
7.39486e-05
9.11901e-05
0.000166677
0.000225872
0.000282103
0.000355284
0.000341862
0.000364871
0.000480071
0.000476597
0.000418849
0.000209032
0.000487385
0.000615089
6.21318e-05
6.32339e-05
6.4506e-05
6.59645e-05
6.76209e-05
6.94703e-05
7.14939e-05
7.36441e-05
7.58996e-05
7.81576e-05
8.05627e-05
8.27899e-05
8.59014e-05
8.8586e-05
9.40732e-05
9.88491e-05
0.000106405
0.000110513
0.000119937
0.000119357
0.000121465
0.000122405
0.000113591
0.000131154
0.000158059
0.00019487
0.000256411
0.000263301
0.000234511
0.000246895
0.000329984
0.000302934
0.000497325
0.000440894
0.000335483
0.000188044
0.000367936
0.000335962
6.23096e-05
6.34908e-05
6.48789e-05
6.65065e-05
6.83991e-05
7.05635e-05
7.29639e-05
7.55279e-05
7.82069e-05
8.07457e-05
8.35109e-05
8.55752e-05
8.94947e-05
9.15382e-05
9.83064e-05
0.000103201
0.000109371
0.000114588
0.000124389
0.000128657
0.000137162
0.000145938
0.000157722
0.00020219
0.000244449
0.000237417
0.000221081
0.000196167
0.000182201
0.000165654
0.000171999
0.000215568
0.000259289
0.000294463
0.00040691
0.000159144
0.000266757
0.000304967
6.21637e-05
6.34094e-05
6.48963e-05
6.66677e-05
6.87619e-05
7.11969e-05
7.39904e-05
7.70315e-05
8.02329e-05
8.31864e-05
8.64457e-05
8.84088e-05
9.28395e-05
9.57024e-05
0.000102473
0.000108511
0.000108655
0.000110276
0.000105085
0.000108293
0.000115205
0.000119724
0.000128723
0.000132161
0.000100684
9.42022e-05
6.90248e-05
6.61145e-05
5.62411e-05
6.1892e-05
7.49296e-05
9.71901e-05
0.000124589
0.000189501
0.00031294
0.000167163
0.000131896
0.000330848
6.06267e-05
6.18269e-05
6.32788e-05
6.50388e-05
6.71614e-05
6.96716e-05
7.25283e-05
7.55053e-05
7.83685e-05
8.05008e-05
8.2479e-05
8.28806e-05
8.53396e-05
8.49498e-05
8.69179e-05
7.00376e-05
6.35802e-05
5.71272e-05
5.56604e-05
6.00707e-05
6.64172e-05
7.42865e-05
8.47001e-05
8.92656e-05
9.10416e-05
7.80386e-05
6.96134e-05
6.60721e-05
6.18188e-05
5.80678e-05
7.05681e-05
6.9645e-05
9.22039e-05
0.000104701
0.000160052
0.000185105
0.000250818
0.000434535
5.43895e-05
5.52493e-05
5.62899e-05
5.75525e-05
5.90805e-05
6.08887e-05
6.28935e-05
6.48265e-05
6.6345e-05
6.70856e-05
6.6989e-05
6.60854e-05
6.32946e-05
5.67896e-05
3.50703e-05
2.46693e-05
2.33379e-05
2.97568e-05
3.49031e-05
3.60047e-05
3.51166e-05
3.66457e-05
3.85768e-05
3.85202e-05
3.97186e-05
4.55698e-05
5.37827e-05
6.45853e-05
7.43663e-05
8.93272e-05
0.000126854
0.000143569
0.000191116
0.000207848
0.000310088
0.000345655
0.000329372
0.00103425
3.69487e-05
3.7037e-05
3.71188e-05
3.71897e-05
3.72298e-05
3.71889e-05
3.69926e-05
3.65562e-05
3.585e-05
3.47629e-05
3.30825e-05
3.10026e-05
2.82957e-05
2.3924e-05
2.23376e-05
3.86006e-05
8.90757e-05
0.000118699
0.00012601
0.000129209
0.000134691
0.00013008
0.000131344
0.000130826
0.000131906
0.000144632
0.00016008
0.000187224
0.000205541
0.000224739
0.000265719
0.000255341
0.000282788
0.000381739
0.000468527
0.000539913
0.000541716
0.000842405
1.05478e-05
1.06101e-05
1.06792e-05
1.07563e-05
1.08427e-05
1.09399e-05
1.10489e-05
1.11697e-05
1.13031e-05
1.14377e-05
1.15885e-05
1.17019e-05
1.19388e-05
1.56648e-05
4.16505e-05
5.17339e-05
5.44099e-05
6.00197e-05
6.70092e-05
6.77723e-05
7.05922e-05
7.58466e-05
7.58789e-05
7.40125e-05
7.60937e-05
8.06185e-05
8.38912e-05
9.38725e-05
0.000111597
0.000151676
0.000192676
0.000229365
0.000320812
0.000442897
0.00050897
0.00055532
0.000655592
0.000839056
1.07338e-05
1.08101e-05
1.08944e-05
1.0987e-05
1.10883e-05
1.11985e-05
1.13173e-05
1.14448e-05
1.15806e-05
1.17245e-05
1.18745e-05
1.20303e-05
1.21859e-05
1.23436e-05
1.24904e-05
1.35857e-05
4.45737e-05
0.000145225
0.000171741
0.000136519
0.00010381
0.000137958
0.000226173
0.000246683
0.000277884
0.00029156
0.000300176
0.000327354
0.000357071
0.000429168
0.000508725
0.000546561
0.000682095
0.000792406
0.000835008
0.00094141
0.000992983
0.000991802
4.75386e-05
4.80404e-05
4.86093e-05
4.92449e-05
4.99423e-05
5.06904e-05
5.14726e-05
5.22551e-05
5.29629e-05
5.35265e-05
5.38641e-05
5.38768e-05
5.34734e-05
5.26603e-05
5.22485e-05
5.58194e-05
6.16953e-05
4.62216e-05
7.60746e-05
7.89385e-05
8.02373e-05
8.86106e-05
0.000130859
0.000191877
0.000254795
0.000345167
0.000321143
0.000356685
0.000384743
0.000262699
0.000354808
0.000272527
0.000329199
0.000382618
0.000494169
0.000633668
0.000825706
0.00112779
7.51556e-05
7.6212e-05
7.74036e-05
7.87329e-05
8.01948e-05
8.17753e-05
8.34488e-05
8.51776e-05
8.6918e-05
8.86185e-05
9.0267e-05
9.18458e-05
9.35249e-05
9.54784e-05
9.89097e-05
0.000104622
0.000112872
4.33391e-05
2.15912e-05
2.12807e-05
2.44016e-05
2.68923e-05
3.46639e-05
4.48876e-05
4.81399e-05
6.13446e-05
5.7627e-05
5.34471e-05
5.72714e-05
0.000115643
0.000107161
0.000277749
0.000378672
0.000429864
0.000913208
0.000751633
0.000585728
0.00112851
8.64336e-05
8.77672e-05
8.92774e-05
9.09712e-05
9.28481e-05
9.4891e-05
9.70723e-05
9.93546e-05
0.000101703
0.000104084
0.000106521
0.000109031
0.000111905
0.000115348
0.000120853
0.000128634
0.000145274
0.000140584
8.33649e-05
5.20404e-05
4.67813e-05
4.66404e-05
3.95226e-05
4.0099e-05
4.4622e-05
4.50067e-05
7.20064e-05
9.5759e-05
0.000136238
0.000253149
0.000293813
0.000560388
0.000898431
0.000694747
0.000784734
0.000600829
0.000630879
0.00130163
8.98435e-05
9.13232e-05
9.30155e-05
9.4937e-05
9.70924e-05
9.94765e-05
0.000102064
0.000104794
0.000107614
0.000110454
0.000113396
0.000116404
0.000120061
0.000124014
0.000130249
0.000137073
0.000149741
0.000158278
0.000167707
0.000142851
0.000128918
0.00012773
0.000110237
0.000135278
0.000169434
0.000154579
0.000244411
0.000292306
0.000356296
0.000401375
0.000463017
0.000579065
0.000654369
0.000638942
0.000530458
0.000321485
0.000384818
0.000753028
9.07483e-05
9.23369e-05
9.41809e-05
9.63043e-05
9.87227e-05
0.000101431
0.000104401
0.000107571
0.000110895
0.000114281
0.000117839
0.000121384
0.000126065
0.000130697
0.000138878
0.000146625
0.000157165
0.000163735
0.000176945
0.000181444
0.00019235
0.000202048
0.000206279
0.000233721
0.000254095
0.000270759
0.000343453
0.000369283
0.000352166
0.000432593
0.000492245
0.000514524
0.000679752
0.000528825
0.000386216
0.000212177
0.000327538
0.000438547
9.09329e-05
9.26164e-05
9.46001e-05
9.69363e-05
9.96677e-05
0.00010281
0.000106284
0.000109988
0.000113785
0.000117469
0.000121307
0.000124651
0.00013014
0.000133895
0.000143204
0.000148633
0.000156307
0.000163306
0.000175285
0.000181206
0.000192263
0.000206201
0.000222195
0.000272381
0.000313906
0.000316638
0.000327528
0.000351187
0.000323251
0.000316105
0.000370982
0.000381218
0.000392072
0.000376342
0.00042456
0.000196218
0.000180932
0.000301384
9.02477e-05
9.19703e-05
9.40331e-05
9.6498e-05
9.94193e-05
0.000102809
0.00010668
0.000110846
0.000115071
0.000119033
0.000123254
0.000126181
0.000132595
0.000135243
0.000142871
0.000141825
0.00013927
0.00013684
0.000135615
0.000140226
0.000151139
0.000162094
0.000168931
0.000194107
0.000203552
0.000184412
0.000161562
0.000152258
0.000136198
0.000135138
0.000142857
0.000164518
0.000192627
0.000201238
0.000304445
0.000266524
0.000193838
0.000523719
8.65208e-05
8.80635e-05
8.99328e-05
9.22055e-05
9.49519e-05
9.81741e-05
0.000101713
0.000105176
0.000108287
0.000110798
0.000113051
0.000112838
0.000116067
0.000108579
9.69982e-05
7.52541e-05
6.33878e-05
5.82985e-05
6.186e-05
6.76742e-05
7.78944e-05
8.42897e-05
8.9834e-05
9.57769e-05
0.000109236
8.84727e-05
8.89091e-05
7.14e-05
6.99139e-05
7.01811e-05
7.13368e-05
7.55843e-05
9.54898e-05
0.000111083
0.000146215
0.000196908
0.000301645
0.000597346
7.39996e-05
7.49022e-05
7.5987e-05
7.73009e-05
7.88702e-05
8.06313e-05
8.23726e-05
8.3969e-05
8.52506e-05
8.55992e-05
8.46715e-05
8.25877e-05
7.48377e-05
5.42245e-05
2.78938e-05
2.79875e-05
2.98524e-05
3.71893e-05
4.11348e-05
4.17744e-05
4.21987e-05
4.22307e-05
4.2503e-05
4.37377e-05
4.63628e-05
5.44358e-05
6.27013e-05
7.90229e-05
8.87016e-05
0.000105821
0.000163149
0.000196354
0.000248133
0.000241614
0.000301814
0.000348767
0.000394836
0.00106289
4.48609e-05
4.47121e-05
4.44989e-05
4.41935e-05
4.37429e-05
4.31444e-05
4.2407e-05
4.14535e-05
4.01206e-05
3.84264e-05
3.62148e-05
3.33522e-05
2.89809e-05
2.14482e-05
2.97838e-05
5.88521e-05
0.000121221
0.000143832
0.000148797
0.000157303
0.00015773
0.000160978
0.000171802
0.000178937
0.000187738
0.000212432
0.000230546
0.000253929
0.000273508
0.000301304
0.000349788
0.000371597
0.000448686
0.000505281
0.000636367
0.000571628
0.000567104
0.000868279
1.06477e-05
1.07071e-05
1.0773e-05
1.08464e-05
1.09287e-05
1.10217e-05
1.11273e-05
1.12481e-05
1.13807e-05
1.15268e-05
1.17169e-05
1.20678e-05
1.32755e-05
2.54354e-05
5.09031e-05
5.8268e-05
6.11887e-05
6.87667e-05
7.58912e-05
7.75808e-05
8.29181e-05
8.87332e-05
9.03772e-05
9.25811e-05
9.89414e-05
0.000101776
0.000102503
0.000108716
0.000123142
0.000166772
0.00021311
0.000245342
0.000328338
0.000462667
0.000546929
0.000577076
0.000648214
0.000809754
1.07733e-05
1.08495e-05
1.09339e-05
1.10268e-05
1.11286e-05
1.12394e-05
1.13592e-05
1.14879e-05
1.16253e-05
1.17709e-05
1.19231e-05
1.20816e-05
1.22411e-05
1.24052e-05
1.25614e-05
1.27783e-05
1.74055e-05
6.99775e-05
0.00012143
0.000109738
6.73918e-05
0.000120446
0.000225065
0.000262475
0.000288982
0.000303783
0.000309162
0.000328722
0.000342365
0.000381945
0.0004283
0.000455947
0.000594566
0.000777508
0.000828252
0.000857065
0.000879141
0.000972127
5.22139e-05
5.27372e-05
5.33396e-05
5.40218e-05
5.47787e-05
5.55983e-05
5.64609e-05
5.73266e-05
5.81086e-05
5.87292e-05
5.90969e-05
5.91168e-05
5.86875e-05
5.78389e-05
5.7064e-05
5.88585e-05
6.97611e-05
5.00947e-05
4.54652e-05
4.53873e-05
4.67677e-05
6.20819e-05
0.000110467
0.000206297
0.000292104
0.000387134
0.000360395
0.000383949
0.000382689
0.000335292
0.000307974
0.000225707
0.000306523
0.000310913
0.000413943
0.000450309
0.000749953
0.000972713
8.84605e-05
8.96316e-05
9.09659e-05
9.24676e-05
9.41311e-05
9.59391e-05
9.78601e-05
9.98462e-05
0.000101838
0.000103778
0.000105645
0.000107453
0.000109359
0.000111672
0.000115505
0.0001217
0.000129753
0.000116045
5.34834e-05
3.78726e-05
4.68414e-05
4.76057e-05
3.21107e-05
4.39413e-05
5.92805e-05
8.15792e-05
7.14706e-05
5.99481e-05
5.82536e-05
6.90634e-05
9.08452e-05
0.0003161
0.000482688
0.000491979
0.000670484
0.000797638
0.000945301
0.00154239
0.000105137
0.000106639
0.000108353
0.000110288
0.000112443
0.000114796
0.000117311
0.000119943
0.00012265
0.000125405
0.000128228
0.000131178
0.000134561
0.000138707
0.000145076
0.000154096
0.00017152
0.000185545
0.000182317
0.000139634
0.00013117
0.000129267
9.74791e-05
5.13855e-05
4.75853e-05
4.63906e-05
6.74898e-05
8.1792e-05
0.000107949
0.000153543
0.000262788
0.000659205
0.000754661
0.000660743
0.000824278
0.000603526
0.000784623
0.00123102
0.000110588
0.000112262
0.000114188
0.000116391
0.000118876
0.000121643
0.000124655
0.000127835
0.000131111
0.00013442
0.000137857
0.000141487
0.000145856
0.0001509
0.000158335
0.000166921
0.000180988
0.000193285
0.00021016
0.00020831
0.000214282
0.000221211
0.00021804
0.000225723
0.000202084
0.000166525
0.000253901
0.000304908
0.00038945
0.000469702
0.000540457
0.000684108
0.000733796
0.000678509
0.000547561
0.000573667
0.000488308
0.00105444
0.000112014
0.000113808
0.00011591
0.000118353
0.000121151
0.000124302
0.000127769
0.00013147
0.000135356
0.000139347
0.000143574
0.000147958
0.000153596
0.000159596
0.00016906
0.000178401
0.000190173
0.00019873
0.000212174
0.000221173
0.000236815
0.000254005
0.000272586
0.000309602
0.000307802
0.000308968
0.000376861
0.000413215
0.000454287
0.000564111
0.000595164
0.000688822
0.000740611
0.000594611
0.000428548
0.000356421
0.00038699
0.000702534
0.000112151
0.000114036
0.000116276
0.000118938
0.000122087
0.000125737
0.000129743
0.000133998
0.00013835
0.000142666
0.000147282
0.000151599
0.000157868
0.000162415
0.000171549
0.000175311
0.000182953
0.000190921
0.000202971
0.00021034
0.000223001
0.000239082
0.000257031
0.000309125
0.000348222
0.000355843
0.000393263
0.000406167
0.000436701
0.000433239
0.000507218
0.000502053
0.000481013
0.00044067
0.000450575
0.000264004
0.000254896
0.000544715
0.000110749
0.000112627
0.000114897
0.000117639
0.00012091
0.000124689
0.000128974
0.000133578
0.000138495
0.000143374
0.000148461
0.000151507
0.000157334
0.000156712
0.000159931
0.000150175
0.000145164
0.000142528
0.00014666
0.000153476
0.000166927
0.000180557
0.000184308
0.000203231
0.000234431
0.000220761
0.000210101
0.00019745
0.000200219
0.000181675
0.000228855
0.000226539
0.000244735
0.000223563
0.000312701
0.000371721
0.000330953
0.000680122
0.000104591
0.000106161
0.000108084
0.000110449
0.000113306
0.000116577
0.000120138
0.000124018
0.000127605
0.000129918
0.000131493
0.000128772
0.000126756
0.000107361
8.37174e-05
6.47391e-05
5.51783e-05
5.52171e-05
6.19846e-05
6.75433e-05
7.69213e-05
8.35888e-05
8.034e-05
8.12886e-05
8.9227e-05
7.28661e-05
7.35549e-05
5.98688e-05
6.10176e-05
6.0604e-05
6.41747e-05
7.81527e-05
9.51683e-05
0.000116264
0.000159612
0.000214853
0.000370481
0.000689923
8.62099e-05
8.69448e-05
8.78329e-05
8.8903e-05
9.01155e-05
9.14646e-05
9.30738e-05
9.45341e-05
9.51864e-05
9.43657e-05
9.20035e-05
8.34259e-05
6.53545e-05
3.40931e-05
2.32966e-05
3.32298e-05
3.97235e-05
4.65271e-05
4.7643e-05
4.73269e-05
4.69749e-05
4.72754e-05
5.00645e-05
5.2275e-05
5.81756e-05
7.3432e-05
8.53213e-05
0.000100833
0.000112165
0.000133763
0.000195551
0.000241259
0.000286526
0.00026538
0.000295679
0.00034764
0.000441626
0.000950505
4.86379e-05
4.8265e-05
4.77606e-05
4.7092e-05
4.62884e-05
4.53005e-05
4.40568e-05
4.25291e-05
4.07046e-05
3.86009e-05
3.55939e-05
3.08064e-05
2.29228e-05
2.75108e-05
5.05598e-05
8.84954e-05
0.000147038
0.000164064
0.000172879
0.000183953
0.000186461
0.000200202
0.000219427
0.000229215
0.000243627
0.000272059
0.000289638
0.000310386
0.000331785
0.00036508
0.000403405
0.000422563
0.00051061
0.000562623
0.000672995
0.000569414
0.000575645
0.000805717
1.06812e-05
1.07387e-05
1.08022e-05
1.08731e-05
1.0953e-05
1.10445e-05
1.11509e-05
1.12744e-05
1.14104e-05
1.16897e-05
1.23337e-05
1.38553e-05
2.03874e-05
4.16042e-05
6.01783e-05
6.51212e-05
6.95787e-05
7.74153e-05
8.53556e-05
8.85619e-05
9.54723e-05
0.000102655
0.000106636
0.000112901
0.00011937
0.000121132
0.000120845
0.000122932
0.000133845
0.000177904
0.000228371
0.000256983
0.000323943
0.000459381
0.00055711
0.00058603
0.000628971
0.000773857
1.07876e-05
1.0864e-05
1.09486e-05
1.10419e-05
1.11441e-05
1.12555e-05
1.13762e-05
1.15058e-05
1.16443e-05
1.17912e-05
1.19449e-05
1.21051e-05
1.22673e-05
1.24352e-05
1.25977e-05
1.27888e-05
1.32294e-05
2.6691e-05
5.84322e-05
5.60665e-05
4.70488e-05
0.000130923
0.00023401
0.000274225
0.000297782
0.000312982
0.000316679
0.000326974
0.000332208
0.000348332
0.000370783
0.000387343
0.000481209
0.000681301
0.000826485
0.000810665
0.000791445
0.000897546
5.43812e-05
5.49131e-05
5.55329e-05
5.62419e-05
5.70357e-05
5.79012e-05
5.88148e-05
5.97381e-05
6.0575e-05
6.12412e-05
6.16443e-05
6.16989e-05
6.13029e-05
6.04961e-05
5.94876e-05
5.97491e-05
6.46271e-05
7.08004e-05
5.07741e-05
4.46713e-05
5.31318e-05
6.28736e-05
0.000118493
0.000237606
0.00032492
0.000400094
0.00039574
0.000402799
0.000393788
0.000368453
0.000288302
0.000205291
0.000295651
0.000291986
0.000278783
0.000351967
0.000568084
0.00086193
9.59878e-05
9.71947e-05
9.85848e-05
0.000100165
0.00010193
0.00010386
0.00010592
0.000108052
0.000110185
0.000112257
0.000114248
0.000116185
0.000118212
0.000120647
0.000124445
0.000130259
0.000140185
0.000143942
0.000126867
9.88834e-05
0.0001079
7.47777e-05
3.22453e-05
4.91562e-05
9.25571e-05
0.000104005
8.62701e-05
6.738e-05
6.23661e-05
6.07664e-05
8.32716e-05
0.000198892
0.000397369
0.000327953
0.000452919
0.000598912
0.000975154
0.00152492
0.000116718
0.000118261
0.00012004
0.000122068
0.000124346
0.000126844
0.000129522
0.000132325
0.00013522
0.000138182
0.000141225
0.00014443
0.0001481
0.000152581
0.000159145
0.000168312
0.00018452
0.000201171
0.000219445
0.000210061
0.000215687
0.000208965
0.000126985
4.44341e-05
3.5939e-05
4.59837e-05
5.53489e-05
6.56173e-05
8.42053e-05
0.000125739
0.000218346
0.000486024
0.00053283
0.0005433
0.000687296
0.000668421
0.000837332
0.00136675
0.00012388
0.000125593
0.000127587
0.000129891
0.000132516
0.000135464
0.000138686
0.000142103
0.000145626
0.000149218
0.000152998
0.000157068
0.000161965
0.000167747
0.000175889
0.000185327
0.000199175
0.000212736