/*--------------------------------*- C++ -*----------------------------------*\
| =========                 |                                                 |
| \\      /  F ield         | OpenFOAM: The Open Source CFD Toolbox           |
|  \\    /   O peration     | Version:  2.3.1                                 |
|   \\  /    A nd           | Web:      www.OpenFOAM.org                      |
|    \\/     M anipulation  |                                                 |
\*---------------------------------------------------------------------------*/
FoamFile
{
    version     2.0;
    format      ascii;
    class       volScalarField;
    location    "5";
    object      p;
}
// * * * * * * * * * * * * * * * * * * * * * * * * * * * * * * * * * * * * * //

dimensions      [0 2 -2 0 0 0 0];

internalField   nonuniform List<scalar> 
38262
(
-1.37578
-1.37581
-1.37584
-1.37585
-1.37583
-1.37578
-1.37567
-1.37549
-1.37519
-1.37472
-1.37396
-1.37275
-1.37071
-1.36711
-1.36087
-1.35023
-1.34075
-1.36828
-1.41316
-1.40685
-1.37298
-1.37455
-1.40307
-1.41337
-1.41098
-1.39216
-1.35172
-1.33025
-1.30399
-1.3464
-1.38493
-1.37465
-1.34189
-1.30095
-1.21556
-0.935859
-0.62441
1.27196
-1.37578
-1.37582
-1.37585
-1.37586
-1.37585
-1.3758
-1.37571
-1.37554
-1.37527
-1.37486
-1.37422
-1.37326
-1.37183
-1.36976
-1.36716
-1.36506
-1.36805
-1.398
-1.42868
-1.39317
-1.37095
-1.38431
-1.41722
-1.42636
-1.41642
-1.40379
-1.38885
-1.37612
-1.39863
-1.45709
-1.47189
-1.53139
-1.53051
-1.5884
-1.51546
-1.2775
-1.18171
-1.17412
-1.37579
-1.37583
-1.37586
-1.37588
-1.37588
-1.37586
-1.37579
-1.37566
-1.37544
-1.3751
-1.3746
-1.3739
-1.37293
-1.37169
-1.37034
-1.36946
-1.37076
-1.37832
-1.38505
-1.385
-1.38347
-1.38874
-1.39667
-1.39938
-1.3998
-1.39683
-1.39246
-1.3846
-1.39755
-1.38847
-1.4065
-1.39343
-1.36885
-1.41084
-1.34516
-1.30933
-1.47641
-1.1322
-1.3758
-1.37584
-1.37588
-1.37592
-1.37593
-1.37592
-1.37588
-1.37578
-1.37563
-1.37539
-1.37505
-1.37458
-1.374
-1.37338
-1.37295
-1.37316
-1.37504
-1.38038
-1.38814
-1.38778
-1.38478
-1.38876
-1.39712
-1.40433
-1.40527
-1.40222
-1.39869
-1.39305
-1.40096
-1.39749
-1.41965
-1.4145
-1.41298
-1.45261
-1.41314
-1.35536
-1.51547
-0.843216
-1.37581
-1.37586
-1.37591
-1.37596
-1.376
-1.37602
-1.37602
-1.37598
-1.37588
-1.37573
-1.37552
-1.37524
-1.37495
-1.37471
-1.3747
-1.37515
-1.37653
-1.37906
-1.38188
-1.38284
-1.38357
-1.38564
-1.38846
-1.39019
-1.39215
-1.39141
-1.39081
-1.39108
-1.39285
-1.39418
-1.39441
-1.39872
-1.39998
-1.39551
-1.37994
-1.38332
-1.3389
-0.946751
-1.37582
-1.37588
-1.37594
-1.376
-1.37606
-1.37611
-1.37613
-1.37613
-1.37611
-1.37605
-1.37595
-1.37583
-1.37572
-1.37571
-1.37589
-1.37643
-1.37751
-1.3792
-1.38133
-1.38285
-1.38406
-1.38569
-1.38886
-1.3918
-1.39372
-1.39377
-1.39345
-1.39197
-1.39119
-1.39223
-1.3956
-1.39109
-1.38566
-1.37618
-1.36152
-1.47777
-1.44826
-1.18212
-1.37583
-1.3759
-1.37597
-1.37605
-1.37613
-1.37622
-1.37629
-1.37636
-1.37639
-1.37639
-1.37638
-1.37636
-1.37639
-1.3765
-1.3768
-1.37736
-1.37824
-1.37941
-1.38078
-1.38193
-1.38294
-1.38414
-1.38536
-1.3865
-1.3875
-1.38731
-1.38778
-1.3882
-1.38939
-1.39073
-1.3921
-1.39113
-1.3853
-1.37656
-1.3272
-1.32807
-1.40436
-1.24032
-1.37584
-1.37592
-1.376
-1.3761
-1.3762
-1.3763
-1.3764
-1.3765
-1.37657
-1.37664
-1.37671
-1.37677
-1.37688
-1.37707
-1.37742
-1.37798
-1.37871
-1.37963
-1.38065
-1.38167
-1.38261
-1.38352
-1.38462
-1.385
-1.38639
-1.38797
-1.38893
-1.38887
-1.38952
-1.39056
-1.39062
-1.39385
-1.38969
-1.38179
-1.38081
-1.35549
-1.41128
-1.44012
-1.37585
-1.37593
-1.37603
-1.37614
-1.37626
-1.3764
-1.37655
-1.3767
-1.37685
-1.37697
-1.37706
-1.37716
-1.37732
-1.37756
-1.37807
-1.37881
-1.37927
-1.37993
-1.38078
-1.38161
-1.38228
-1.38308
-1.38377
-1.38437
-1.38437
-1.38414
-1.38387
-1.38452
-1.38591
-1.39021
-1.39291
-1.40125
-1.40575
-1.40898
-1.42125
-1.4362
-1.48026
-1.44261
-1.37586
-1.37595
-1.37605
-1.37617
-1.3763
-1.37646
-1.37663
-1.3768
-1.37697
-1.37711
-1.37723
-1.37734
-1.37749
-1.37771
-1.37821
-1.3789
-1.37945
-1.38024
-1.38122
-1.3819
-1.38239
-1.38281
-1.38258
-1.38209
-1.38306
-1.38404
-1.38374
-1.38372
-1.38488
-1.38829
-1.39328
-1.39783
-1.40422
-1.41015
-1.40485
-1.38516
-1.4369
-1.3839
-1.37587
-1.37596
-1.37606
-1.37619
-1.37635
-1.37652
-1.37673
-1.37694
-1.37714
-1.37732
-1.37746
-1.37755
-1.37773
-1.37779
-1.37965
-1.38129
-1.37999
-1.38049
-1.38206
-1.38207
-1.38233
-1.38315
-1.38344
-1.38232
-1.38186
-1.38209
-1.3815
-1.38152
-1.38193
-1.38709
-1.39667
-1.40894
-1.42196
-1.45082
-1.45783
-1.3813
-1.36876
-1.38578
-1.37587
-1.37596
-1.37607
-1.3762
-1.37636
-1.37655
-1.37676
-1.37698
-1.3772
-1.37738
-1.37751
-1.37751
-1.37751
-1.37717
-1.37854
-1.38013
-1.38008
-1.38045
-1.38209
-1.38224
-1.38215
-1.38274
-1.3823
-1.38129
-1.38033
-1.379
-1.37773
-1.37663
-1.37604
-1.38022
-1.38677
-1.38865
-1.39213
-1.40081
-1.38079
-1.3316
-1.21875
-1.21773
-1.48614
-1.48618
-1.4862
-1.48621
-1.4862
-1.48615
-1.48604
-1.48586
-1.48557
-1.4851
-1.48437
-1.48319
-1.48123
-1.47777
-1.47168
-1.46064
-1.45045
-1.47897
-1.5272
-1.52453
-1.48865
-1.48643
-1.51183
-1.52402
-1.52312
-1.50665
-1.46991
-1.44091
-1.43475
-1.45777
-1.50683
-1.51531
-1.48701
-1.47065
-1.40566
-1.2538
-1.09677
-0.923624
-1.48615
-1.48618
-1.48621
-1.48623
-1.48622
-1.48617
-1.48608
-1.48592
-1.48565
-1.48524
-1.48462
-1.48368
-1.4823
-1.4803
-1.47778
-1.47562
-1.47784
-1.50642
-1.53631
-1.50566
-1.48478
-1.49674
-1.53084
-1.54107
-1.53029
-1.5185
-1.50356
-1.48453
-1.51044
-1.56333
-1.57437
-1.62983
-1.68986
-1.75198
-1.73224
-1.49387
-1.50099
-1.89756
-1.48615
-1.48619
-1.48623
-1.48625
-1.48625
-1.48623
-1.48616
-1.48604
-1.48582
-1.48548
-1.485
-1.4843
-1.48336
-1.48217
-1.48087
-1.48001
-1.48119
-1.48882
-1.49701
-1.49809
-1.4962
-1.49968
-1.50626
-1.51064
-1.51152
-1.50847
-1.50278
-1.50062
-1.51657
-1.51331
-1.51096
-1.51757
-1.52091
-1.53395
-1.51147
-1.46097
-1.65909
-2.09504
-1.48616
-1.48621
-1.48625
-1.48628
-1.4863
-1.4863
-1.48625
-1.48615
-1.48601
-1.48577
-1.48543
-1.48497
-1.48441
-1.48381
-1.4834
-1.4836
-1.4854
-1.49046
-1.49804
-1.49797
-1.49559
-1.49879
-1.50739
-1.51498
-1.51565
-1.51301
-1.51043
-1.50659
-1.50961
-1.50903
-1.52228
-1.52484
-1.52035
-1.57275
-1.5499
-1.54019
-1.56378
-1.50004
-1.48617
-1.48623
-1.48628
-1.48633
-1.48636
-1.48639
-1.48639
-1.48635
-1.48626
-1.48611
-1.4859
-1.48563
-1.48535
-1.48511
-1.48511
-1.48555
-1.48689
-1.48935
-1.49219
-1.49317
-1.49399
-1.49592
-1.49866
-1.50045
-1.50222
-1.50253
-1.50232
-1.5013
-1.50116
-1.50516
-1.50354
-1.51256
-1.51027
-1.51694
-1.49193
-1.48843
-1.45467
-1.2586
-1.48619
-1.48625
-1.48631
-1.48637
-1.48643
-1.48648
-1.48651
-1.48651
-1.48649
-1.48643
-1.48633
-1.48621
-1.48611
-1.48609
-1.48628
-1.48681
-1.48787
-1.48951
-1.49159
-1.4931
-1.49434
-1.49605
-1.49916
-1.50225
-1.50422
-1.50462
-1.50419
-1.50349
-1.50525
-1.50431
-1.50873
-1.50454
-1.49975
-1.49989
-1.47927
-1.57053
-1.59913
-1.39489
-1.4862
-1.48627
-1.48634
-1.48642
-1.4865
-1.48659
-1.48667
-1.48673
-1.48678
-1.48677
-1.48676
-1.48674
-1.48677
-1.48688
-1.48718
-1.48773
-1.4886
-1.48975
-1.49109
-1.49226
-1.49326
-1.49447
-1.49572
-1.49676
-1.49768
-1.49793
-1.4986
-1.49843
-1.50023
-1.50066
-1.50195
-1.5014
-1.49809
-1.48885
-1.46408
-1.46756
-1.59702
-1.53226
-1.48621
-1.48628
-1.48637
-1.48646
-1.48657
-1.48667
-1.48678
-1.48687
-1.48696
-1.48703
-1.48709
-1.48716
-1.48726
-1.48745
-1.48779
-1.48834
-1.48907
-1.48998
-1.49099
-1.492
-1.49293
-1.49383
-1.49509
-1.49563
-1.49698
-1.49907
-1.4991
-1.49985
-1.49965
-1.50127
-1.50393
-1.50523
-1.5008
-1.4955
-1.49395
-1.49696
-1.52789
-1.5364
-1.48622
-1.4863
-1.48639
-1.4865
-1.48663
-1.48677
-1.48693
-1.48708
-1.48723
-1.48735
-1.48744
-1.48754
-1.48769
-1.48794
-1.48844
-1.48915
-1.48967
-1.49032
-1.49117
-1.49197
-1.49264
-1.49341
-1.4941
-1.49474
-1.4948
-1.49465
-1.4947
-1.49509
-1.49692
-1.50027
-1.50459
-1.51328
-1.51712
-1.51943
-1.52528
-1.54287
-1.5678
-1.61443
-1.48623
-1.48631
-1.48641
-1.48653
-1.48667
-1.48683
-1.48701
-1.48719
-1.48736
-1.4875
-1.48762
-1.48773
-1.48787
-1.48808
-1.48859
-1.48929
-1.48993
-1.49068
-1.49166
-1.4923
-1.4927
-1.49311
-1.49307
-1.49288
-1.49389
-1.49473
-1.49428
-1.49411
-1.4951
-1.4985
-1.50401
-1.51023
-1.51962
-1.52569
-1.52763
-1.5028
-1.52544
-1.59687
-1.48623
-1.48632
-1.48643
-1.48656
-1.48671
-1.4869
-1.4871
-1.48732
-1.48753
-1.48771
-1.48785
-1.48793
-1.48811
-1.48821
-1.49
-1.4914
-1.49055
-1.49107
-1.49245
-1.49244
-1.49274
-1.49343
-1.49371
-1.49279
-1.49251
-1.49271
-1.49207
-1.49194
-1.49237
-1.49756
-1.50831
-1.52282
-1.54098
-1.57568
-1.59073
-1.51951
-1.45346
-1.55314
-1.48624
-1.48633
-1.48644
-1.48657
-1.48673
-1.48692
-1.48713
-1.48737
-1.4876
-1.48778
-1.48791
-1.48791
-1.48786
-1.48761
-1.4889
-1.4905
-1.4906
-1.491
-1.49256
-1.49263
-1.4925
-1.49292
-1.49243
-1.49128
-1.49056
-1.48955
-1.48843
-1.48721
-1.48606
-1.4895
-1.49677
-1.50101
-1.50617
-1.5227
-1.51369
-1.46375
-1.37043
-1.37498
-1.59651
-1.59654
-1.59657
-1.59658
-1.59657
-1.59652
-1.59642
-1.59625
-1.59596
-1.59551
-1.59481
-1.5937
-1.59188
-1.58878
-1.58339
-1.5738
-1.5629
-1.59388
-1.65157
-1.65227
-1.60748
-1.59586
-1.62034
-1.63935
-1.63768
-1.62532
-1.59162
-1.56075
-1.5523
-1.56701
-1.61444
-1.61532
-1.59725
-1.62442
-1.56218
-1.43744
-1.1894
-0.936964
-1.59651
-1.59655
-1.59658
-1.5966
-1.59659
-1.59655
-1.59646
-1.5963
-1.59605
-1.59565
-1.59505
-1.59416
-1.59286
-1.59102
-1.58873
-1.58681
-1.58792
-1.61249
-1.64599
-1.61933
-1.59716
-1.60664
-1.64181
-1.65842
-1.64504
-1.63514
-1.6199
-1.59833
-1.60809
-1.64499
-1.66427
-1.71516
-1.76973
-1.89726
-1.90824
-1.73489
-1.73309
-2.00981
-1.59652
-1.59656
-1.5966
-1.59662
-1.59663
-1.5966
-1.59654
-1.59642
-1.59621
-1.59589
-1.59542
-1.59475
-1.59385
-1.59275
-1.59157
-1.59083
-1.59189
-1.59906
-1.60821
-1.60925
-1.60593
-1.60718
-1.61445
-1.62112
-1.62385
-1.62149
-1.61483
-1.60316
-1.61863
-1.62054
-1.62558
-1.65093
-1.63155
-1.62967
-1.62551
-1.56279
-1.89493
-1.63764
-1.59653
-1.59658
-1.59662
-1.59666
-1.59668
-1.59667
-1.59663
-1.59654
-1.5964
-1.59617
-1.59584
-1.5954
-1.59487
-1.59431
-1.59393
-1.59413
-1.5958
-1.60038
-1.60749
-1.60788
-1.60548
-1.60848
-1.6172
-1.62563
-1.62665
-1.62468
-1.62088
-1.6173
-1.61866
-1.61956
-1.62896
-1.63472
-1.64114
-1.68288
-1.65513
-1.64648
-1.66867
-1.52385
-1.59654
-1.59659
-1.59665
-1.5967
-1.59674
-1.59676
-1.59677
-1.59674
-1.59665
-1.59651
-1.5963
-1.59605
-1.59577
-1.59555
-1.59556
-1.59598
-1.59726
-1.59959
-1.60236
-1.60338
-1.60411
-1.60589
-1.60872
-1.6106
-1.61257
-1.61275
-1.61246
-1.61056
-1.6124
-1.61297
-1.61331
-1.62171
-1.61736
-1.61872
-1.59967
-1.58967
-1.5663
-1.4202
-1.59655
-1.59661
-1.59668
-1.59674
-1.5968
-1.59686
-1.59689
-1.59689
-1.59687
-1.59682
-1.59673
-1.59661
-1.59652
-1.5965
-1.59669
-1.5972
-1.59822
-1.59978
-1.60175
-1.60323
-1.60446
-1.60618
-1.60931
-1.61254
-1.61484
-1.61539
-1.61441
-1.61414
-1.61337
-1.61286
-1.61658
-1.61218
-1.60992
-1.60486
-1.58839
-1.60579
-1.62
-1.45336
-1.59656
-1.59663
-1.59671
-1.59679
-1.59688
-1.59696
-1.59705
-1.59712
-1.59717
-1.59717
-1.59715
-1.59714
-1.59717
-1.59728
-1.59757
-1.59811
-1.59895
-1.60006
-1.60136
-1.60252
-1.60353
-1.60473
-1.60604
-1.6071
-1.60799
-1.60831
-1.60868
-1.60879
-1.60921
-1.61087
-1.61199
-1.61221
-1.61074
-1.60337
-1.59544
-1.57329
-1.63752
-1.56946
-1.59657
-1.59665
-1.59674
-1.59683
-1.59694
-1.59705
-1.59716
-1.59726
-1.59735
-1.59743
-1.59749
-1.59755
-1.59765
-1.59784
-1.59818
-1.59872
-1.59944
-1.60033
-1.60131
-1.60229
-1.60321
-1.60411
-1.60536
-1.60606
-1.60731
-1.60855
-1.60921
-1.60934
-1.60959
-1.6111
-1.61165
-1.61309
-1.61068
-1.60638
-1.60739
-1.60636
-1.63163
-1.62949
-1.59658
-1.59667
-1.59676
-1.59687
-1.597
-1.59715
-1.59731
-1.59748
-1.59763
-1.59775
-1.59784
-1.59794
-1.59809
-1.59834
-1.59882
-1.59949
-1.60005
-1.60069
-1.60153
-1.60229
-1.60297
-1.60372
-1.60442
-1.60502
-1.60518
-1.60512
-1.60497
-1.60552
-1.6065
-1.60995
-1.61348
-1.61966
-1.62467
-1.6276
-1.6334
-1.64085
-1.66822
-1.6142
-1.59659
-1.59668
-1.59678
-1.5969
-1.59705
-1.59721
-1.5974
-1.59759
-1.59777
-1.59792
-1.59804
-1.59814
-1.59827
-1.59848
-1.599
-1.59974
-1.60045
-1.60113
-1.60204
-1.6026
-1.60292
-1.60331
-1.60341
-1.6032
-1.60381
-1.60451
-1.60441
-1.6045
-1.6053
-1.60812
-1.61301
-1.61878
-1.62599
-1.63257
-1.63476
-1.60909
-1.64419
-1.6654
-1.59659
-1.59668
-1.59679
-1.59692
-1.59708
-1.59727
-1.59749
-1.59772
-1.59795
-1.59813
-1.59826
-1.59835
-1.59851
-1.59869
-1.60031
-1.60148
-1.60101
-1.60163
-1.6028
-1.60276
-1.60302
-1.60361
-1.60379
-1.60326
-1.60289
-1.60282
-1.60214
-1.60204
-1.60253
-1.60731
-1.61744
-1.63219
-1.64918
-1.6855
-1.70328
-1.64405
-1.60002
-1.66023
-1.5966
-1.59669
-1.5968
-1.59693
-1.59709
-1.59729
-1.59752
-1.59777
-1.59802
-1.59822
-1.59834
-1.59835
-1.59825
-1.59809
-1.59929
-1.60091
-1.60112
-1.6015
-1.60284
-1.60285
-1.60275
-1.60304
-1.60259
-1.60155
-1.60084
-1.60002
-1.59897
-1.59768
-1.59616
-1.59882
-1.6058
-1.61118
-1.61631
-1.63493
-1.63962
-1.59494
-1.49925
-1.50714
-1.70687
-1.70691
-1.70694
-1.70695
-1.70694
-1.7069
-1.70681
-1.70664
-1.70637
-1.70594
-1.70529
-1.70426
-1.70265
-1.70002
-1.69572
-1.68953
-1.68177
-1.70982
-1.76601
-1.7691
-1.72113
-1.70188
-1.72877
-1.75568
-1.75354
-1.74587
-1.71652
-1.68706
-1.67575
-1.68351
-1.72216
-1.7166
-1.69416
-1.75411
-1.73658
-1.62741
-1.44146
-1.34103
-1.70688
-1.70692
-1.70695
-1.70697
-1.70696
-1.70693
-1.70684
-1.7067
-1.70645
-1.70607
-1.70551
-1.70468
-1.70349
-1.70187
-1.69994
-1.69849
-1.69931
-1.7163
-1.74475
-1.7301
-1.70882
-1.7147
-1.75044
-1.7775
-1.76035
-1.753
-1.73836
-1.71403
-1.71536
-1.73412
-1.75102
-1.78499
-1.82069
-1.97587
-2.0509
-1.9202
-1.78886
-1.89479
-1.70689
-1.70693
-1.70697
-1.70699
-1.707
-1.70698
-1.70692
-1.70681
-1.70661
-1.7063
-1.70586
-1.70524
-1.70443
-1.70342
-1.70241
-1.70186
-1.70294
-1.70906
-1.71811
-1.71899
-1.71471
-1.71555
-1.72329
-1.73177
-1.73662
-1.73601
-1.72945
-1.72227
-1.72354
-1.72247
-1.73623
-1.73872
-1.73095
-1.7338
-1.70662
-1.71816
-1.86589
-1.92576
-1.7069
-1.70695
-1.70699
-1.70703
-1.70705
-1.70705
-1.70702
-1.70693
-1.7068
-1.70658
-1.70627
-1.70586
-1.70536
-1.70485
-1.70452
-1.70473
-1.70625
-1.71016
-1.71608
-1.71705
-1.7153
-1.71792
-1.72675
-1.73673
-1.73842
-1.73664
-1.73332
-1.72953
-1.72847
-1.73202
-1.73444
-1.74289
-1.75251
-1.78317
-1.77116
-1.76585
-1.78402
-1.63448
-1.70691
-1.70696
-1.70702
-1.70707
-1.70711
-1.70714
-1.70715
-1.70713
-1.70705
-1.70691
-1.70672
-1.70648
-1.70622
-1.70602
-1.70603
-1.70645
-1.70763
-1.70974
-1.71233
-1.71339
-1.7141
-1.71579
-1.71876
-1.72109
-1.72295
-1.72386
-1.72342
-1.72211
-1.72274
-1.7232
-1.72465
-1.72921
-1.72547
-1.72746
-1.7125
-1.69856
-1.67924
-1.55617
-1.70692
-1.70698
-1.70705
-1.70712
-1.70718
-1.70724
-1.70727
-1.70729
-1.70727
-1.70722
-1.70714
-1.70703
-1.70694
-1.70694
-1.70712
-1.7076
-1.70856
-1.71001
-1.71181
-1.71322
-1.71445
-1.71618
-1.71931
-1.72277
-1.72545
-1.72617
-1.72545
-1.72504
-1.7251
-1.72427
-1.72678
-1.72377
-1.72218
-1.7173
-1.71099
-1.72931
-1.7457
-1.65404
-1.70693
-1.707
-1.70708
-1.70716
-1.70725
-1.70735
-1.70744
-1.70751
-1.70757
-1.70757
-1.70756
-1.70755
-1.70758
-1.70769
-1.70798
-1.70849
-1.70929
-1.71034
-1.71157
-1.7127
-1.71373
-1.71493
-1.71631
-1.71747
-1.71829
-1.71869
-1.71915
-1.71937
-1.72012
-1.72114
-1.72235
-1.72263
-1.72219
-1.71669
-1.71831
-1.68486
-1.7155
-1.68366
-1.70694
-1.70702
-1.70711
-1.70721
-1.70732
-1.70743
-1.70755
-1.70766
-1.70775
-1.70783
-1.7079
-1.70796
-1.70806
-1.70824
-1.70858
-1.70911
-1.70981
-1.71066
-1.7116
-1.71255
-1.71344
-1.71436
-1.71558
-1.71653
-1.71774
-1.71909
-1.71939
-1.71976
-1.71984
-1.72107
-1.72242
-1.72286
-1.72084
-1.71692
-1.715
-1.71135
-1.72836
-1.72563
-1.70695
-1.70703
-1.70713
-1.70724
-1.70738
-1.70753
-1.7077
-1.70788
-1.70804
-1.70817
-1.70826
-1.70835
-1.7085
-1.70875
-1.70921
-1.70983
-1.71042
-1.71107
-1.71186
-1.7126
-1.71327
-1.71399
-1.71469
-1.71528
-1.7155
-1.7155
-1.71543
-1.71584
-1.71705
-1.71941
-1.72345
-1.7289
-1.73364
-1.73653
-1.74046
-1.74309
-1.76205
-1.73539
-1.70695
-1.70704
-1.70714
-1.70727
-1.70742
-1.70759
-1.70779
-1.708
-1.70819
-1.70835
-1.70847
-1.70856
-1.7087
-1.70891
-1.70944
-1.71024
-1.71095
-1.71159
-1.71238
-1.71287
-1.71315
-1.71353
-1.71373
-1.71362
-1.71405
-1.71463
-1.71457
-1.71473
-1.71525
-1.71783
-1.72225
-1.72767
-1.73348
-1.74098
-1.74315
-1.72298
-1.74302
-1.77839
-1.70695
-1.70704
-1.70715
-1.70729
-1.70745
-1.70765
-1.70789
-1.70814
-1.70839
-1.70858
-1.70871
-1.70878
-1.70893
-1.70925
-1.71061
-1.71155
-1.71139
-1.71217
-1.71309
-1.71308
-1.71334
-1.71374
-1.71389
-1.71357
-1.71318
-1.71294
-1.71233
-1.71213
-1.71253
-1.71671
-1.72638
-1.7401
-1.75442
-1.79172
-1.82426
-1.77983
-1.71884
-1.7716
-1.70695
-1.70705
-1.70716
-1.70729
-1.70746
-1.70767
-1.70792
-1.7082
-1.70848
-1.7087
-1.70883
-1.70882
-1.70871
-1.70862
-1.70969
-1.71139
-1.71167
-1.71208
-1.71312
-1.71309
-1.71296
-1.7131
-1.71275
-1.71187
-1.71118
-1.71048
-1.70949
-1.70812
-1.70646
-1.70831
-1.7147
-1.72065
-1.72521
-1.74314
-1.75984
-1.72563
-1.63716
-1.62671
-1.81724
-1.81728
-1.81731
-1.81733
-1.81732
-1.81728
-1.8172
-1.81704
-1.81679
-1.81639
-1.81579
-1.81487
-1.81347
-1.81132
-1.80812
-1.80431
-1.79985
-1.819
-1.86234
-1.86786
-1.82369
-1.80831
-1.84017
-1.87006
-1.86976
-1.866
-1.8415
-1.81264
-1.79969
-1.8023
-1.82475
-1.81424
-1.78628
-1.84306
-1.88373
-1.84493
-1.6878
-1.65032
-1.81725
-1.81729
-1.81732
-1.81734
-1.81734
-1.81731
-1.81723
-1.8171
-1.81687
-1.81651
-1.81599
-1.81523
-1.81418
-1.81279
-1.81123
-1.81019
-1.81113
-1.82161
-1.84196
-1.83429
-1.81748
-1.82237
-1.85844
-1.89497
-1.8754
-1.87055
-1.85802
-1.83153
-1.82499
-1.83255
-1.8408
-1.85694
-1.87038
-2.01004
-2.15015
-2.09939
-1.93455
-1.88583
-1.81725
-1.8173
-1.81734
-1.81737
-1.81738
-1.81736
-1.81731
-1.81721
-1.81702
-1.81674
-1.81632
-1.81575
-1.81502
-1.81414
-1.81331
-1.81295
-1.81401
-1.81883
-1.82636
-1.82707
-1.82285
-1.82378
-1.83267
-1.84293
-1.84921
-1.85029
-1.84468
-1.83238
-1.83356
-1.83058
-1.84118
-1.84304
-1.83101
-1.8363
-1.81886
-1.80211
-1.87034
-1.69809
-1.81726
-1.81731
-1.81736
-1.8174
-1.81743
-1.81743
-1.81741
-1.81733
-1.81721
-1.81701
-1.81672
-1.81633
-1.81588
-1.81542
-1.81515
-1.81536
-1.8167
-1.81989
-1.82456
-1.82571
-1.82462
-1.82707
-1.83591
-1.84742
-1.85026
-1.84904
-1.8457
-1.84207
-1.83933
-1.84174
-1.84358
-1.84985
-1.85829
-1.87972
-1.88323
-1.88464
-1.9033
-1.77953
-1.81727
-1.81733
-1.81739
-1.81744
-1.81749
-1.81753
-1.81754
-1.81753
-1.81745
-1.81733
-1.81715
-1.81693
-1.81669
-1.81651
-1.81653
-1.81692
-1.81799
-1.81983
-1.82211
-1.82317
-1.82388
-1.82555
-1.82875
-1.83158
-1.83349
-1.8348
-1.83455
-1.83296
-1.83277
-1.83335
-1.83407
-1.83652
-1.83401
-1.83466
-1.82339
-1.80148
-1.79405
-1.69417
-1.81729
-1.81735
-1.81742
-1.81749
-1.81756
-1.81762
-1.81766
-1.81768
-1.81768
-1.81764
-1.81756
-1.81746
-1.81738
-1.81738
-1.81756
-1.81802
-1.81889
-1.82019
-1.82179
-1.8231
-1.82431
-1.82605
-1.82917
-1.83286
-1.83588
-1.83691
-1.83635
-1.83593
-1.83541
-1.83494
-1.83621
-1.83418
-1.83308
-1.82899
-1.82629
-1.82697
-1.82918
-1.75839
-1.8173
-1.81737
-1.81745
-1.81754
-1.81763
-1.81773
-1.81783
-1.81791
-1.81798
-1.818
-1.81798
-1.81797
-1.818
-1.81811
-1.81839
-1.81888
-1.81963
-1.8206
-1.82174
-1.82282
-1.82385
-1.82506
-1.82653
-1.8278
-1.82864
-1.82911
-1.82956
-1.82988
-1.83038
-1.8313
-1.83233
-1.83283
-1.83278
-1.82918
-1.8298
-1.80202
-1.80962
-1.78893
-1.8173
-1.81738
-1.81747
-1.81758
-1.81769
-1.81782
-1.81794
-1.81807
-1.81817
-1.81824
-1.81832
-1.81838
-1.81848
-1.81865
-1.81899
-1.8195
-1.82018
-1.82098
-1.82187
-1.82276
-1.82364
-1.82456
-1.82576
-1.82685
-1.8281
-1.82924
-1.82963
-1.82977
-1.82998
-1.83084
-1.83184
-1.83219
-1.83062
-1.82753
-1.82438
-1.81866
-1.82191
-1.81965
-1.81731
-1.81739
-1.81749
-1.81761
-1.81775
-1.81792
-1.8181
-1.81829
-1.81847
-1.8186
-1.81869
-1.81878
-1.81892
-1.81917
-1.81961
-1.82019
-1.82079
-1.82142
-1.82217
-1.82287
-1.82354
-1.82423
-1.82493
-1.82552
-1.82579
-1.82583
-1.82575
-1.82612
-1.82702
-1.82912
-1.83284
-1.83744
-1.84187
-1.84523
-1.84932
-1.85076
-1.86101
-1.83788
-1.81731
-1.8174
-1.8175
-1.81763
-1.81779
-1.81797
-1.81819
-1.81842
-1.81863
-1.8188
-1.81892
-1.81901
-1.81914
-1.81935
-1.8199
-1.82075
-1.82143
-1.82199
-1.82266
-1.8231
-1.82339
-1.82375
-1.82403
-1.824
-1.82422
-1.82457
-1.82455
-1.82469
-1.82509
-1.82736
-1.83118
-1.83621
-1.84097
-1.84822
-1.85152
-1.8378
-1.84661
-1.87751
-1.81731
-1.8174
-1.81751
-1.81765
-1.81782
-1.81804
-1.81829
-1.81858
-1.81885
-1.81906
-1.81918
-1.81927
-1.81938
-1.81983
-1.82094
-1.82164
-1.82188
-1.82264
-1.82332
-1.82341
-1.82362
-1.8239
-1.82402
-1.8238
-1.82338
-1.82299
-1.82238
-1.82206
-1.82223
-1.82582
-1.83472
-1.84725
-1.85828
-1.89026
-1.9362
-1.91254
-1.85137
-1.87998
-1.81731
-1.8174
-1.81751
-1.81765
-1.81782
-1.81804
-1.81833
-1.81865
-1.81899
-1.81924
-1.81937
-1.81937
-1.8193
-1.81924
-1.82019
-1.8219
-1.82222
-1.82256
-1.82329
-1.82332
-1.82316
-1.82321
-1.82293
-1.82218
-1.82154
-1.82088
-1.81993
-1.81852
-1.81679
-1.81797
-1.82371
-1.83005
-1.83353
-1.84962
-1.87356
-1.8551
-1.77585
-1.74618
-1.92761
-1.92765
-1.92768
-1.9277
-1.9277
-1.92767
-1.92759
-1.92745
-1.92722
-1.92685
-1.92631
-1.92549
-1.9243
-1.92258
-1.92025
-1.91783
-1.91588
-1.9267
-1.95201
-1.95445
-1.92159
-1.91671
-1.95305
-1.98464
-1.98587
-1.98559
-1.96599
-1.93768
-1.92323
-1.92023
-1.92926
-1.91714
-1.88553
-1.91193
-1.97436
-2.02343
-1.89572
-1.78023
-1.92761
-1.92766
-1.92769
-1.92772
-1.92772
-1.9277
-1.92763
-1.9275
-1.92729
-1.92697
-1.92649
-1.92581
-1.92489
-1.92373
-1.9225
-1.92177
-1.92272
-1.92931
-1.94209
-1.93885
-1.9252
-1.93003
-1.96685
-2.00925
-1.9911
-1.98711
-1.97833
-1.95096
-1.94055
-1.93969
-1.94158
-1.946
-1.93965
-2.03318
-2.19377
-2.24384
-2.02232
-1.93647
-1.92762
-1.92767
-1.92771
-1.92774
-1.92776
-1.92775
-1.92771
-1.92761
-1.92744
-1.92718
-1.9268
-1.92629
-1.92563
-1.92488
-1.92421
-1.92398
-1.92495
-1.92853
-1.93406
-1.93434
-1.93076
-1.93211
-1.94236
-1.95409
-1.96069
-1.96436
-1.96017
-1.95004
-1.94591
-1.94225
-1.94653
-1.94408
-1.93502
-1.93789
-1.9314
-1.91527
-1.93255
-1.9252
-1.92763
-1.92768
-1.92773
-1.92778
-1.92781
-1.92782
-1.9278
-1.92773
-1.92762
-1.92744
-1.92717
-1.92682
-1.92642
-1.92602
-1.92579
-1.92599
-1.92712
-1.92962
-1.93309
-1.93415
-1.93361
-1.93593
-1.94484
-1.95761
-1.96213
-1.96143
-1.95837
-1.95466
-1.95048
-1.95152
-1.95169
-1.95591
-1.96153
-1.97593
-1.9852
-1.99422
-2.00493
-1.91714
-1.92764
-1.9277
-1.92776
-1.92782
-1.92787
-1.92791
-1.92794
-1.92793
-1.92787
-1.92776
-1.92759
-1.92739
-1.92717
-1.92702
-1.92704
-1.9274
-1.92833
-1.92988
-1.93177
-1.93278
-1.93351
-1.9352
-1.93864
-1.94199
-1.94405
-1.94563
-1.94569
-1.94445
-1.94345
-1.94377
-1.94366
-1.94484
-1.94287
-1.94247
-1.93462
-1.91591
-1.91317
-1.84347
-1.92765
-1.92772
-1.92779
-1.92786
-1.92794
-1.928
-1.92806
-1.92809
-1.92809
-1.92806
-1.92799
-1.9279
-1.92783
-1.92784
-1.928
-1.92843
-1.92921
-1.93035
-1.93173
-1.93291
-1.93409
-1.93582
-1.93892
-1.9428
-1.94615
-1.94758
-1.94725
-1.94679
-1.94598
-1.94554
-1.94588
-1.94447
-1.9435
-1.94039
-1.93808
-1.9362
-1.93619
-1.89621
-1.92766
-1.92773
-1.92782
-1.92791
-1.92801
-1.92812
-1.92822
-1.92832
-1.92839
-1.92842
-1.92841
-1.92841
-1.92843
-1.92855
-1.92881
-1.92926
-1.92995
-1.93084
-1.93188
-1.93289
-1.93391
-1.93513
-1.93668
-1.93808
-1.939
-1.93952
-1.9399
-1.94035
-1.94076
-1.9415
-1.94238
-1.94291
-1.94305
-1.9408
-1.93979
-1.91978
-1.92096
-1.9069
-1.92767
-1.92775
-1.92784
-1.92795
-1.92807
-1.9282
-1.92834
-1.92848
-1.92859
-1.92867
-1.92875
-1.92881
-1.9289
-1.92908
-1.9294
-1.9299
-1.93054
-1.93128
-1.93211
-1.93295
-1.9338
-1.93472
-1.93591
-1.9371
-1.93837
-1.93949
-1.93997
-1.94004
-1.94017
-1.94084
-1.94182
-1.94211
-1.94099
-1.93869
-1.93548
-1.93039
-1.92786
-1.92607
-1.92767
-1.92776
-1.92786
-1.92798
-1.92813
-1.92831
-1.92851
-1.92872
-1.92891
-1.92905
-1.92914
-1.92922
-1.92936
-1.92961
-1.93001
-1.93057
-1.93116
-1.93177
-1.93247
-1.93313
-1.93378
-1.93445
-1.93516
-1.93575
-1.93605
-1.93612
-1.93606
-1.93633
-1.93707
-1.93884
-1.94222
-1.94636
-1.95052
-1.95421
-1.95877
-1.96148
-1.96846
-1.95066
-1.92767
-1.92776
-1.92786
-1.92799
-1.92816
-1.92836
-1.9286
-1.92885
-1.92909
-1.92927
-1.92939
-1.92947
-1.92957
-1.92982
-1.93038
-1.93123
-1.93186
-1.93235
-1.93291
-1.93334
-1.93367
-1.93402
-1.93433
-1.93437
-1.93446
-1.93465
-1.9346
-1.93466
-1.93501
-1.93685
-1.94026
-1.94486
-1.94912
-1.95583
-1.96062
-1.9531
-1.9538
-1.97925
-1.92767
-1.92776
-1.92787
-1.92801
-1.92819
-1.92842
-1.92871
-1.92904
-1.92936
-1.92957
-1.92969
-1.92972
-1.92989
-1.93042
-1.93119
-1.93186
-1.93238
-1.933
-1.93357
-1.93373
-1.93391
-1.93411
-1.9342
-1.934
-1.93355
-1.93307
-1.93244
-1.932
-1.93193
-1.93478
-1.94272
-1.95445
-1.96325
-1.98594
-2.04096
-2.0427
-1.98465
-1.98679
-1.92767
-1.92776
-1.92786
-1.928
-1.92818
-1.92842
-1.92875
-1.92914
-1.92955
-1.92985
-1.93001
-1.92995
-1.92984
-1.92998
-1.93091
-1.93227
-1.9327
-1.93297
-1.93349
-1.93354
-1.93339
-1.9334
-1.93313
-1.93248
-1.93188
-1.93123
-1.9303
-1.92889
-1.92718
-1.92783
-1.93288
-1.93967
-1.9424
-1.95394
-1.97852
-1.9815
-1.91489
-1.86996
-2.03798
-2.03802
-2.03806
-2.03808
-2.03808
-2.03806
-2.03799
-2.03786
-2.03765
-2.03732
-2.03683
-2.03613
-2.03512
-2.03375
-2.03206
-2.03046
-2.02971
-2.03544
-2.04857
-2.04826
-2.02215
-2.02088
-2.05841
-2.09746
-2.10092
-2.10369
-2.09004
-2.06245
-2.04674
-2.03818
-2.0378
-2.02528
-1.99639
-1.99413
-2.0413
-2.14676
-2.06177
-1.93597
-2.03798
-2.03803
-2.03807
-2.03809
-2.0381
-2.03809
-2.03803
-2.03792
-2.03772
-2.03743
-2.037
-2.0364
-2.03561
-2.03464
-2.03368
-2.03314
-2.03395
-2.03809
-2.0456
-2.04348
-2.03262
-2.03688
-2.07439
-2.12071
-2.10645
-2.10326
-2.09829
-2.0714
-2.05827
-2.05093
-2.04791
-2.04694
-2.03721
-2.07879
-2.20012
-2.34062
-2.19579
-2.03875
-2.03799
-2.03804
-2.03808
-2.03812
-2.03814
-2.03814
-2.03811
-2.03802
-2.03787
-2.03763
-2.03729
-2.03683
-2.03626
-2.03562
-2.03508
-2.03492
-2.03572
-2.03823
-2.0419
-2.04182
-2.03877
-2.04018
-2.05134
-2.06441
-2.07192
-2.07732
-2.07566
-2.06554
-2.06
-2.05417
-2.05458
-2.0503
-2.04027
-2.04147
-2.03968
-2.03212
-2.03599
-1.96479
-2.038
-2.03805
-2.03811
-2.03815
-2.03819
-2.03821
-2.0382
-2.03815
-2.03805
-2.03788
-2.03764
-2.03733
-2.03696
-2.03662
-2.03643
-2.0366
-2.0375
-2.03937
-2.04181
-2.04263
-2.04241
-2.0446
-2.05341
-2.0671
-2.07328
-2.0739
-2.07093
-2.06727
-2.06228
-2.06167
-2.06028
-2.06228
-2.06525
-2.07399
-2.08417
-2.09915
-2.10304
-2.04422
-2.03801
-2.03807
-2.03813
-2.0382
-2.03825
-2.0383
-2.03833
-2.03834
-2.03829
-2.03819
-2.03804
-2.03786
-2.03767
-2.03753
-2.03755
-2.03787
-2.03864
-2.0399
-2.04141
-2.0423
-2.04303
-2.04474
-2.04838
-2.05221
-2.05454
-2.05608
-2.05683
-2.0558
-2.05459
-2.05398
-2.05353
-2.054
-2.05189
-2.05087
-2.04537
-2.03016
-2.02199
-1.97061
-2.03802
-2.03809
-2.03816
-2.03824
-2.03832
-2.03839
-2.03845
-2.03849
-2.0385
-2.03849
-2.03843
-2.03835
-2.03829
-2.0383
-2.03846
-2.03884
-2.03952
-2.0405
-2.04165
-2.0427
-2.04382
-2.04552
-2.04858
-2.05256
-2.05623
-2.05821
-2.05816
-2.05761
-2.05658
-2.05601
-2.05571
-2.05459
-2.05359
-2.05129
-2.04924
-2.04668
-2.04312
-2.01675
-2.03802
-2.0381
-2.03818
-2.03828
-2.03839
-2.03851
-2.03863
-2.03874
-2.03882
-2.03885
-2.03885
-2.03885
-2.03887
-2.03898
-2.03923
-2.03965
-2.04027
-2.04107
-2.042
-2.04293
-2.04393
-2.04515
-2.04677
-2.04831
-2.04935
-2.04993
-2.05026
-2.05079
-2.05114
-2.0517
-2.05238
-2.05287
-2.05313
-2.05183
-2.05039
-2.03649
-2.0342
-2.02175
-2.03803
-2.03811
-2.0382
-2.03832
-2.03844
-2.03859
-2.03874
-2.03889
-2.03902
-2.03911
-2.03919
-2.03925
-2.03934
-2.03951
-2.03982
-2.04029
-2.04089
-2.04158
-2.04234
-2.04313
-2.04395
-2.04487
-2.04604
-2.04728
-2.04858
-2.04969
-2.05023
-2.05035
-2.05038
-2.05086
-2.05166
-2.05204
-2.0513
-2.04978
-2.04691
-2.04329
-2.03821
-2.03581
-2.03803
-2.03811
-2.03822
-2.03835
-2.0385
-2.0387
-2.03892
-2.03916
-2.03937
-2.03952
-2.0396
-2.03968
-2.0398
-2.04004
-2.04042
-2.04095
-2.04152
-2.0421
-2.04276
-2.04339
-2.04402
-2.04467
-2.04536
-2.04596
-2.04631
-2.04641
-2.04634
-2.04649
-2.04707
-2.04859
-2.05147
-2.05535
-2.05929
-2.06299
-2.0677
-2.07254
-2.07981
-2.06679
-2.03803
-2.03811
-2.03822
-2.03835
-2.03852
-2.03874
-2.03901
-2.0393
-2.03957
-2.03976
-2.03987
-2.03994
-2.04006
-2.04031
-2.04087
-2.04167
-2.04224
-2.04267
-2.04319
-2.04361
-2.04398
-2.04433
-2.04463
-2.0447
-2.0447
-2.04473
-2.04463
-2.04459
-2.04483
-2.04632
-2.04933
-2.05361
-2.05753
-2.06337
-2.06866
-2.06681
-2.06321
-2.07892
-2.03802
-2.03811
-2.03822
-2.03836
-2.03855
-2.03881
-2.03914
-2.03953
-2.0399
-2.04013
-2.0402
-2.04026
-2.04047
-2.04088
-2.04144
-2.04221
-2.04281
-2.04333
-2.04386
-2.04405
-2.04421
-2.04437
-2.04441
-2.0442
-2.04373
-2.0432
-2.04255
-2.04198
-2.04165
-2.04372
-2.05046
-2.06177
-2.06983
-2.08244
-2.1284
-2.16154
-2.12178
-2.09462
-2.03802
-2.03811
-2.03821
-2.03835
-2.03854
-2.0388
-2.03918
-2.03968
-2.0402
-2.04056
-2.0406
-2.04051
-2.04041
-2.04059
-2.04159
-2.04267
-2.04307
-2.04333
-2.04375
-2.04377
-2.04367
-2.04365
-2.04337
-2.04279
-2.04222
-2.04156
-2.04064
-2.03928
-2.03765
-2.03789
-2.04213
-2.04933
-2.05245
-2.05855
-2.08336
-2.10204
-2.05291
-1.99853
-2.14835
-2.14839
-2.14843
-2.14846
-2.14847
-2.14845
-2.1484
-2.14828
-2.14809
-2.1478
-2.14737
-2.14676
-2.14592
-2.14482
-2.14357
-2.14245
-2.14213
-2.14502
-2.151
-2.14724
-2.12484
-2.12141
-2.15851
-2.20397
-2.2151
-2.21942
-2.21243
-2.18667
-2.16981
-2.15695
-2.14983
-2.13647
-2.11341
-2.0985
-2.11084
-2.22396
-2.20013
-2.07515
-2.14835
-2.1484
-2.14844
-2.14847
-2.14849
-2.14848
-2.14843
-2.14833
-2.14816
-2.1479
-2.14752
-2.14699
-2.14632
-2.14551
-2.14474
-2.14431
-2.14487
-2.14732
-2.15118
-2.14885
-2.13994
-2.14254
-2.18022
-2.23064
-2.22071
-2.21851
-2.21743
-2.19249
-2.17761
-2.16619
-2.15866
-2.15441
-2.14258
-2.1599
-2.219
-2.39042
-2.31906
-2.1717
-2.14836
-2.14841
-2.14846
-2.1485
-2.14853
-2.14853
-2.14851
-2.14844
-2.1483
-2.14809
-2.14778
-2.14738
-2.14688
-2.14634