/*--------------------------------*- C++ -*----------------------------------*\
| =========                 |                                                 |
| \\      /  F ield         | OpenFOAM: The Open Source CFD Toolbox           |
|  \\    /   O peration     | Version:  2.3.1                                 |
|   \\  /    A nd           | Web:      www.OpenFOAM.org                      |
|    \\/     M anipulation  |                                                 |
\*---------------------------------------------------------------------------*/
FoamFile
{
    version     2.0;
    format      ascii;
    class       volScalarField;
    location    "5";
    object      p_rgh;
}
// * * * * * * * * * * * * * * * * * * * * * * * * * * * * * * * * * * * * * //

dimensions      [0 2 -2 0 0 0 0];

internalField   nonuniform List<scalar> 
38262
(
-1.3206
-1.32063
-1.32066
-1.32067
-1.32065
-1.3206
-1.32049
-1.32031
-1.32001
-1.31953
-1.31878
-1.31757
-1.31553
-1.31193
-1.30569
-1.29505
-1.28557
-1.3131
-1.35798
-1.35167
-1.3178
-1.31937
-1.34789
-1.35819
-1.3558
-1.33698
-1.29654
-1.27507
-1.24881
-1.29122
-1.32975
-1.31947
-1.28671
-1.24577
-1.16038
-0.880678
-0.569228
1.32714
-1.3206
-1.32064
-1.32066
-1.32068
-1.32067
-1.32062
-1.32053
-1.32036
-1.32009
-1.31967
-1.31904
-1.31808
-1.31665
-1.31458
-1.31198
-1.30988
-1.31287
-1.34282
-1.3735
-1.33799
-1.31577
-1.32913
-1.36203
-1.37118
-1.36124
-1.34861
-1.33366
-1.32094
-1.34345
-1.40191
-1.41671
-1.47621
-1.47533
-1.53322
-1.46028
-1.22232
-1.12653
-1.11894
-1.32061
-1.32065
-1.32068
-1.3207
-1.3207
-1.32068
-1.32061
-1.32048
-1.32026
-1.31992
-1.31942
-1.31871
-1.31775
-1.31651
-1.31516
-1.31428
-1.31558
-1.32313
-1.32987
-1.32982
-1.32829
-1.33356
-1.34149
-1.3442
-1.34462
-1.34165
-1.33728
-1.32941
-1.34237
-1.33329
-1.35132
-1.33825
-1.31367
-1.35566
-1.28998
-1.25415
-1.42123
-1.07702
-1.32061
-1.32066
-1.3207
-1.32073
-1.32075
-1.32074
-1.3207
-1.3206
-1.32045
-1.32021
-1.31986
-1.31939
-1.31882
-1.3182
-1.31777
-1.31798
-1.31986
-1.3252
-1.33296
-1.3326
-1.3296
-1.33358
-1.34194
-1.34915
-1.35008
-1.34704
-1.3435
-1.33787
-1.34578
-1.34231
-1.36446
-1.35932
-1.3578
-1.39742
-1.35795
-1.30018
-1.46029
-0.788034
-1.32063
-1.32068
-1.32073
-1.32078
-1.32081
-1.32084
-1.32084
-1.3208
-1.3207
-1.32055
-1.32034
-1.32006
-1.31977
-1.31952
-1.31952
-1.31997
-1.32135
-1.32388
-1.3267
-1.32765
-1.32839
-1.33046
-1.33328
-1.335
-1.33697
-1.33622
-1.33563
-1.3359
-1.33767
-1.339
-1.33923
-1.34354
-1.3448
-1.34032
-1.32476
-1.32814
-1.28371
-0.89157
-1.32064
-1.3207
-1.32076
-1.32082
-1.32088
-1.32093
-1.32095
-1.32095
-1.32093
-1.32087
-1.32077
-1.32065
-1.32054
-1.32052
-1.32071
-1.32125
-1.32233
-1.32401
-1.32615
-1.32767
-1.32888
-1.3305
-1.33368
-1.33662
-1.33854
-1.33859
-1.33827
-1.33679
-1.33601
-1.33705
-1.34042
-1.33591
-1.33047
-1.321
-1.30634
-1.42259
-1.39308
-1.12694
-1.32065
-1.32072
-1.32079
-1.32087
-1.32095
-1.32103
-1.32111
-1.32118
-1.32121
-1.32121
-1.3212
-1.32118
-1.3212
-1.32132
-1.32162
-1.32218
-1.32306
-1.32423
-1.3256
-1.32675
-1.32776
-1.32896
-1.33018
-1.33132
-1.33232
-1.33213
-1.3326
-1.33302
-1.3342
-1.33555
-1.33692
-1.33595
-1.33012
-1.32138
-1.27201
-1.27288
-1.34918
-1.18513
-1.32066
-1.32074
-1.32082
-1.32091
-1.32102
-1.32112
-1.32122
-1.32131
-1.32139
-1.32146
-1.32153
-1.32159
-1.32169
-1.32189
-1.32224
-1.32279
-1.32352
-1.32445
-1.32547
-1.32649
-1.32743
-1.32834
-1.32944
-1.32982
-1.33121
-1.33279
-1.33375
-1.33368
-1.33434
-1.33538
-1.33544
-1.33867
-1.33451
-1.32661
-1.32563
-1.30031
-1.3561
-1.38494
-1.32067
-1.32075
-1.32085
-1.32095
-1.32108
-1.32122
-1.32137
-1.32152
-1.32166
-1.32179
-1.32188
-1.32198
-1.32213
-1.32238
-1.32289
-1.32363
-1.32409
-1.32475
-1.3256
-1.32643
-1.3271
-1.3279
-1.32859
-1.32919
-1.32918
-1.32896
-1.32869
-1.32934
-1.33073
-1.33503
-1.33773
-1.34607
-1.35056
-1.3538
-1.36607
-1.38102
-1.42508
-1.38743
-1.32068
-1.32077
-1.32087
-1.32098
-1.32112
-1.32128
-1.32145
-1.32162
-1.32179
-1.32193
-1.32205
-1.32216
-1.32231
-1.32253
-1.32303
-1.32372
-1.32427
-1.32505
-1.32604
-1.32672
-1.32721
-1.32763
-1.3274
-1.32691
-1.32788
-1.32886
-1.32856
-1.32854
-1.32969
-1.33311
-1.3381
-1.34265
-1.34904
-1.35497
-1.34967
-1.32998
-1.38172
-1.32872
-1.32069
-1.32078
-1.32088
-1.32101
-1.32116
-1.32134
-1.32154
-1.32176
-1.32196
-1.32214
-1.32227
-1.32236
-1.32255
-1.32261
-1.32447
-1.32611
-1.32481
-1.32531
-1.32688
-1.32689
-1.32714
-1.32797
-1.32826
-1.32714
-1.32668
-1.32691
-1.32632
-1.32634
-1.32675
-1.33191
-1.34149
-1.35376
-1.36678
-1.39564
-1.40265
-1.32611
-1.31358
-1.3306
-1.32069
-1.32078
-1.32089
-1.32102
-1.32118
-1.32137
-1.32158
-1.3218
-1.32202
-1.3222
-1.32232
-1.32233
-1.32233
-1.32199
-1.32336
-1.32495
-1.3249
-1.32527
-1.32691
-1.32706
-1.32697
-1.32756
-1.32712
-1.32611
-1.32515
-1.32382
-1.32255
-1.32145
-1.32086
-1.32504
-1.33159
-1.33347
-1.33695
-1.34563
-1.32561
-1.27642
-1.16357
-1.16255
-1.3206
-1.32063
-1.32066
-1.32067
-1.32065
-1.3206
-1.3205
-1.32032
-1.32003
-1.31956
-1.31883
-1.31764
-1.31568
-1.31223
-1.30613
-1.2951
-1.2849
-1.31342
-1.36165
-1.35899
-1.3231
-1.32089
-1.34629
-1.35847
-1.35758
-1.34111
-1.30436
-1.27537
-1.26921
-1.29222
-1.34128
-1.34977
-1.32147
-1.3051
-1.24012
-1.08825
-0.931228
-0.758081
-1.3206
-1.32064
-1.32067
-1.32068
-1.32067
-1.32063
-1.32054
-1.32037
-1.32011
-1.3197
-1.31907
-1.31814
-1.31675
-1.31476
-1.31224
-1.31008
-1.3123
-1.34088
-1.37076
-1.34012
-1.31924
-1.33119
-1.3653
-1.37553
-1.36475
-1.35295
-1.33801
-1.31899
-1.34489
-1.39779
-1.40883
-1.46429
-1.52431
-1.58643
-1.5667
-1.32833
-1.33545
-1.73202
-1.32061
-1.32065
-1.32068
-1.32071
-1.32071
-1.32068
-1.32062
-1.3205
-1.32027
-1.31994
-1.31945
-1.31876
-1.31782
-1.31662
-1.31533
-1.31447
-1.31565
-1.32327
-1.33146
-1.33254
-1.33066
-1.33414
-1.34071
-1.3451
-1.34598
-1.34292
-1.33724
-1.33508
-1.35103
-1.34777
-1.34541
-1.35202
-1.35536
-1.3684
-1.34593
-1.29542
-1.49354
-1.9295
-1.32062
-1.32066
-1.32071
-1.32074
-1.32076
-1.32075
-1.32071
-1.32061
-1.32047
-1.32023
-1.31989
-1.31943
-1.31887
-1.31827
-1.31786
-1.31805
-1.31986
-1.32492
-1.3325
-1.33243
-1.33005
-1.33325
-1.34184
-1.34943
-1.35011
-1.34747
-1.34489
-1.34104
-1.34407
-1.34349
-1.35673
-1.35929
-1.35481
-1.4072
-1.38436
-1.37465
-1.39824
-1.3345
-1.32063
-1.32068
-1.32074
-1.32078
-1.32082
-1.32084
-1.32085
-1.32081
-1.32072
-1.32057
-1.32036
-1.32009
-1.3198
-1.31957
-1.31957
-1.32
-1.32135
-1.32381
-1.32664
-1.32762
-1.32844
-1.33037
-1.33312
-1.3349
-1.33668
-1.33699
-1.33677
-1.33575
-1.33561
-1.33962
-1.338
-1.34701
-1.34473
-1.35139
-1.32639
-1.32288
-1.28913
-1.09306
-1.32064
-1.3207
-1.32077
-1.32083
-1.32089
-1.32094
-1.32096
-1.32097
-1.32094
-1.32088
-1.32079
-1.32067
-1.32057
-1.32055
-1.32074
-1.32126
-1.32232
-1.32397
-1.32604
-1.32756
-1.32879
-1.33051
-1.33361
-1.33671
-1.33867
-1.33907
-1.33865
-1.33795
-1.3397
-1.33876
-1.34319
-1.339
-1.3342
-1.33435
-1.31372
-1.40498
-1.43359
-1.22934
-1.32065
-1.32072
-1.3208
-1.32088
-1.32096
-1.32104
-1.32112
-1.32119
-1.32123
-1.32123
-1.32121
-1.3212
-1.32122
-1.32134
-1.32164
-1.32219
-1.32305
-1.32421
-1.32554
-1.32672
-1.32772
-1.32893
-1.33017
-1.33121
-1.33213
-1.33238
-1.33306
-1.33289
-1.33469
-1.33511
-1.3364
-1.33586
-1.33255
-1.3233
-1.29854
-1.30202
-1.43147
-1.36672
-1.32066
-1.32074
-1.32083
-1.32092
-1.32102
-1.32113
-1.32124
-1.32133
-1.32141
-1.32148
-1.32155
-1.32161
-1.32171
-1.3219
-1.32225
-1.3228
-1.32353
-1.32444
-1.32544
-1.32646
-1.32738
-1.32829
-1.32955
-1.33009
-1.33143
-1.33353
-1.33356
-1.33431
-1.33411
-1.33573
-1.33839
-1.33969
-1.33526
-1.32995
-1.32841
-1.33142
-1.36234
-1.37085
-1.32067
-1.32076
-1.32085
-1.32096
-1.32109
-1.32123
-1.32138
-1.32154
-1.32169
-1.32181
-1.3219
-1.322
-1.32215
-1.3224
-1.3229
-1.32361
-1.32412
-1.32477
-1.32562
-1.32642
-1.32709
-1.32787
-1.32855
-1.3292
-1.32925
-1.32911
-1.32915
-1.32954
-1.33138
-1.33473
-1.33904
-1.34773
-1.35158
-1.35389
-1.35973
-1.37733
-1.40225
-1.44889
-1.32068
-1.32077
-1.32087
-1.32099
-1.32113
-1.32129
-1.32146
-1.32165
-1.32182
-1.32196
-1.32208
-1.32218
-1.32233
-1.32254
-1.32305
-1.32375
-1.32439
-1.32514
-1.32612
-1.32676
-1.32715
-1.32756
-1.32753
-1.32734
-1.32834
-1.32919
-1.32873
-1.32856
-1.32956
-1.33296
-1.33847
-1.34469
-1.35408
-1.36015
-1.36209
-1.33726
-1.3599
-1.43133
-1.32069
-1.32078
-1.32089
-1.32101
-1.32117
-1.32135
-1.32156
-1.32178
-1.32199
-1.32217
-1.3223
-1.32239
-1.32257
-1.32266
-1.32445
-1.32586
-1.32501
-1.32553
-1.32691
-1.3269
-1.32719
-1.32788
-1.32816
-1.32724
-1.32697
-1.32717
-1.32652
-1.3264
-1.32682
-1.33201
-1.34276
-1.35728
-1.37544
-1.41014
-1.42519
-1.35397
-1.28791
-1.3876
-1.32069
-1.32078
-1.32089
-1.32102
-1.32118
-1.32137
-1.32159
-1.32182
-1.32205
-1.32224
-1.32236
-1.32237
-1.32231
-1.32207
-1.32336
-1.32495
-1.32505
-1.32546
-1.32702
-1.32709
-1.32695
-1.32738
-1.32689
-1.32573
-1.32501
-1.32401
-1.32289
-1.32167
-1.32051
-1.32396
-1.33122
-1.33546
-1.34063
-1.35716
-1.34814
-1.29821
-1.20488
-1.20944
-1.3206
-1.32064
-1.32066
-1.32068
-1.32066
-1.32061
-1.32052
-1.32034
-1.32006
-1.31961
-1.31891
-1.31779
-1.31598
-1.31287
-1.30749
-1.29789
-1.28699
-1.31798
-1.37566
-1.37636
-1.33157
-1.31995
-1.34443
-1.36345
-1.36178
-1.34942
-1.31572
-1.28484
-1.2764
-1.2911
-1.33854
-1.33941
-1.32135
-1.34851
-1.28628
-1.16153
-0.913493
-0.661057
-1.32061
-1.32064
-1.32067
-1.32069
-1.32068
-1.32064
-1.32055
-1.3204
-1.32014
-1.31974
-1.31914
-1.31825
-1.31695
-1.31511
-1.31282
-1.3109
-1.31201
-1.33658
-1.37008
-1.34343
-1.32125
-1.33073
-1.3659
-1.38251
-1.36914
-1.35923
-1.34399
-1.32242
-1.33218
-1.36908
-1.38836
-1.43925
-1.49383
-1.62136
-1.63233
-1.45898
-1.45718
-1.7339
-1.32061
-1.32066
-1.32069
-1.32071
-1.32072
-1.3207
-1.32063
-1.32052
-1.3203
-1.31998
-1.31951
-1.31885
-1.31795
-1.31684
-1.31567
-1.31492
-1.31598
-1.32315
-1.3323
-1.33335
-1.33002
-1.33127
-1.33854
-1.34522
-1.34794
-1.34558
-1.33892
-1.32725
-1.34273
-1.34464
-1.34967
-1.37502
-1.35565
-1.35377
-1.3496
-1.28689
-1.61902
-1.36173
-1.32062
-1.32067
-1.32071
-1.32075
-1.32077
-1.32077
-1.32072
-1.32063
-1.32049
-1.32027
-1.31994
-1.3195
-1.31896
-1.3184
-1.31802
-1.31822
-1.3199
-1.32447
-1.33158
-1.33197
-1.32957
-1.33257
-1.34129
-1.34972
-1.35075
-1.34877
-1.34498
-1.34139
-1.34276
-1.34366
-1.35306
-1.35881
-1.36523
-1.40697
-1.37923
-1.37058
-1.39276
-1.24795
-1.32063
-1.32069
-1.32074
-1.32079
-1.32083
-1.32086
-1.32086
-1.32083
-1.32074
-1.3206
-1.3204
-1.32014
-1.31986
-1.31964
-1.31965
-1.32008
-1.32136
-1.32368
-1.32645
-1.32748
-1.32821
-1.32999
-1.33281
-1.3347
-1.33667
-1.33684
-1.33656
-1.33465
-1.33649
-1.33707
-1.3374
-1.3458
-1.34145
-1.34281
-1.32376
-1.31376
-1.2904
-1.1443
-1.32065
-1.32071
-1.32077
-1.32084
-1.3209
-1.32095
-1.32098
-1.32099
-1.32097
-1.32091
-1.32082
-1.32071
-1.32061
-1.3206
-1.32078
-1.32129
-1.32231
-1.32387
-1.32584
-1.32732
-1.32856
-1.33028
-1.3334
-1.33664
-1.33894
-1.33949
-1.3385
-1.33824
-1.33746
-1.33695
-1.34067
-1.33627
-1.33402
-1.32896
-1.31249
-1.32989
-1.3441
-1.17746
-1.32066
-1.32073
-1.3208
-1.32088
-1.32097
-1.32106
-1.32114
-1.32121
-1.32126
-1.32126
-1.32125
-1.32123
-1.32126
-1.32137
-1.32167
-1.3222
-1.32304
-1.32416
-1.32545
-1.32661
-1.32763
-1.32883
-1.33013
-1.33119
-1.33209
-1.33241
-1.33278
-1.33288
-1.33331
-1.33496
-1.33608
-1.3363
-1.33483
-1.32747
-1.31953
-1.29738
-1.36162
-1.29355
-1.32067
-1.32075
-1.32083
-1.32093
-1.32103
-1.32115
-1.32126
-1.32136
-1.32144
-1.32152
-1.32159
-1.32165
-1.32174
-1.32193
-1.32227
-1.32282
-1.32354
-1.32442
-1.3254
-1.32639
-1.3273
-1.32821
-1.32945
-1.33015
-1.3314
-1.33264
-1.3333
-1.33343
-1.33369
-1.3352
-1.33574
-1.33718
-1.33477
-1.33047
-1.33149
-1.33046
-1.35572
-1.35359
-1.32068
-1.32076
-1.32086
-1.32097
-1.3211
-1.32125
-1.32141
-1.32157
-1.32172
-1.32185
-1.32194
-1.32203
-1.32218
-1.32243
-1.32291
-1.32359
-1.32414
-1.32479
-1.32562
-1.32639
-1.32706
-1.32781
-1.32851
-1.32911
-1.32927
-1.32921
-1.32906
-1.32961
-1.33059
-1.33404
-1.33757
-1.34375
-1.34876
-1.3517
-1.3575
-1.36495
-1.39231
-1.33829
-1.32068
-1.32077
-1.32087
-1.321
-1.32114
-1.32131
-1.32149
-1.32168
-1.32186
-1.32201
-1.32213
-1.32223
-1.32237
-1.32258
-1.3231
-1.32383
-1.32454
-1.32523
-1.32614
-1.3267
-1.32701
-1.3274
-1.3275
-1.3273
-1.32791
-1.3286
-1.3285
-1.32859
-1.32939
-1.33221
-1.3371
-1.34288
-1.35008
-1.35666
-1.35885
-1.33319
-1.36829
-1.38949
-1.32069
-1.32078
-1.32089
-1.32102
-1.32118
-1.32137
-1.32158
-1.32182
-1.32204
-1.32222
-1.32236
-1.32244
-1.3226
-1.32278
-1.3244
-1.32557
-1.3251
-1.32572
-1.32689
-1.32685
-1.32711
-1.3277
-1.32788
-1.32735
-1.32698
-1.32691
-1.32624
-1.32614
-1.32663
-1.3314
-1.34153
-1.35629
-1.37328
-1.40959
-1.42737
-1.36814
-1.32411
-1.38433
-1.32069
-1.32078
-1.32089
-1.32102
-1.32119
-1.32138
-1.32161
-1.32187
-1.32211
-1.32231
-1.32244
-1.32244
-1.32235
-1.32218
-1.32338
-1.325
-1.32522
-1.3256
-1.32693
-1.32694
-1.32684
-1.32713
-1.32668
-1.32564
-1.32493
-1.32411
-1.32306
-1.32178
-1.32025
-1.32291
-1.3299
-1.33527
-1.34041
-1.35903
-1.36371
-1.31903
-1.22334
-1.23124
-1.32061
-1.32064
-1.32067
-1.32068
-1.32067
-1.32063
-1.32054
-1.32037
-1.3201
-1.31968
-1.31902
-1.31799
-1.31638
-1.31375
-1.30945
-1.30326
-1.2955
-1.32355
-1.37974
-1.38283
-1.33486
-1.31561
-1.3425
-1.36941
-1.36728
-1.3596
-1.33025
-1.3008
-1.28948
-1.29724
-1.33589
-1.33034
-1.30789
-1.36784
-1.35031
-1.24115
-1.05519
-0.954765
-1.32061
-1.32065
-1.32068
-1.3207
-1.32069
-1.32066
-1.32057
-1.32043
-1.32018
-1.3198
-1.31924
-1.31841
-1.31723
-1.3156
-1.31367
-1.31223
-1.31304
-1.33003
-1.35849
-1.34383
-1.32255
-1.32843
-1.36417
-1.39123
-1.37409
-1.36673
-1.3521
-1.32776
-1.32909
-1.34785
-1.36476
-1.39872
-1.43442
-1.5896
-1.66463
-1.53394
-1.40259
-1.50852
-1.32062
-1.32066
-1.3207
-1.32072
-1.32073
-1.32071
-1.32066
-1.32054
-1.32034
-1.32003
-1.31959
-1.31897
-1.31816
-1.31715
-1.31614
-1.31559
-1.31667
-1.32279
-1.33184
-1.33272
-1.32844
-1.32928
-1.33702
-1.3455
-1.35035
-1.34974
-1.34318
-1.336
-1.33727
-1.3362
-1.34996
-1.35245
-1.34469
-1.34753
-1.32035
-1.33189
-1.47962
-1.53949
-1.32063
-1.32068
-1.32072
-1.32076
-1.32078
-1.32078
-1.32075
-1.32066
-1.32053
-1.32032
-1.32
-1.31959
-1.31909
-1.31858
-1.31825
-1.31846
-1.31999
-1.32389
-1.32981
-1.33078
-1.32903
-1.33166
-1.34048
-1.35046
-1.35215
-1.35037
-1.34705
-1.34326
-1.3422
-1.34576
-1.34817
-1.35662
-1.36624
-1.3969
-1.38489
-1.37958
-1.39775
-1.24821
-1.32064
-1.32069
-1.32075
-1.3208
-1.32085
-1.32088
-1.32088
-1.32086
-1.32078
-1.32064
-1.32045
-1.32021
-1.31995
-1.31975
-1.31976
-1.32018
-1.32136
-1.32348
-1.32606
-1.32712
-1.32783
-1.32952
-1.3325
-1.33482
-1.33669
-1.33759
-1.33715
-1.33584
-1.33647
-1.33693
-1.33838
-1.34295
-1.3392
-1.34119
-1.32624
-1.31229
-1.29297
-1.1699
-1.32065
-1.32071
-1.32078
-1.32085
-1.32091
-1.32097
-1.32101
-1.32102
-1.321
-1.32096
-1.32087
-1.32076
-1.32067
-1.32067
-1.32085
-1.32134
-1.32229
-1.32374
-1.32554
-1.32695
-1.32818
-1.32991
-1.33304
-1.3365
-1.33918
-1.3399
-1.33919
-1.33877
-1.33883
-1.338
-1.34051
-1.33751
-1.33591
-1.33103
-1.32472
-1.34305
-1.35944
-1.26777
-1.32066
-1.32073
-1.32081
-1.32089
-1.32098
-1.32108
-1.32117
-1.32125
-1.3213
-1.3213
-1.3213
-1.32128
-1.32131
-1.32142
-1.32171
-1.32222
-1.32302
-1.32408
-1.3253
-1.32643
-1.32746
-1.32866
-1.33005
-1.3312
-1.33202
-1.33242
-1.33288
-1.3331
-1.33386
-1.33487
-1.33608
-1.33637
-1.33593
-1.33042
-1.33204
-1.2986
-1.32924
-1.29739
-1.32067
-1.32075
-1.32084
-1.32094
-1.32105
-1.32116
-1.32128
-1.32139
-1.32149
-1.32156
-1.32163
-1.32169
-1.32179
-1.32197
-1.32231
-1.32284
-1.32354
-1.32439
-1.32534
-1.32628
-1.32717
-1.32809
-1.32931
-1.33026
-1.33147
-1.33282
-1.33312
-1.33349
-1.33358
-1.3348
-1.33615
-1.33659
-1.33457
-1.33065
-1.32873
-1.32508
-1.34209
-1.33936
-1.32068
-1.32076
-1.32086
-1.32097
-1.32111
-1.32127
-1.32144
-1.32161
-1.32177
-1.3219
-1.32199
-1.32208
-1.32223
-1.32248
-1.32294
-1.32357
-1.32415
-1.3248
-1.32559
-1.32633
-1.327
-1.32772
-1.32842
-1.32901
-1.32923
-1.32923
-1.32916
-1.32957
-1.33078
-1.33314
-1.33718
-1.34263
-1.34737
-1.35026
-1.35419
-1.35682
-1.37579
-1.34912
-1.32068
-1.32077
-1.32087
-1.321
-1.32115
-1.32132
-1.32152
-1.32173
-1.32192
-1.32208
-1.3222
-1.32229
-1.32243
-1.32264
-1.32317
-1.32397
-1.32469
-1.32532
-1.32611
-1.3266
-1.32688
-1.32726
-1.32746
-1.32736
-1.32778
-1.32836
-1.3283
-1.32846
-1.32898
-1.33156
-1.33598
-1.3414
-1.34721
-1.35471
-1.35688
-1.33671
-1.35675
-1.39212
-1.32069
-1.32078
-1.32088
-1.32102
-1.32118
-1.32138
-1.32162
-1.32187
-1.32212
-1.32231
-1.32244
-1.32251
-1.32266
-1.32298
-1.32434
-1.32528
-1.32512
-1.3259
-1.32682
-1.32682
-1.32707
-1.32747
-1.32762
-1.3273
-1.32691
-1.32667
-1.32607
-1.32586
-1.32626
-1.33044
-1.34011
-1.35383
-1.36815
-1.40545
-1.43799
-1.39356
-1.33257
-1.38533
-1.32069
-1.32078
-1.32089
-1.32102
-1.32119
-1.3214
-1.32165
-1.32193
-1.32221
-1.32243
-1.32256
-1.32256
-1.32245
-1.32235
-1.32342
-1.32512
-1.3254
-1.32581
-1.32685
-1.32682
-1.32669
-1.32683
-1.32649
-1.3256
-1.32492
-1.32421
-1.32322
-1.32185
-1.32019
-1.32204
-1.32843
-1.33438
-1.33895
-1.35687
-1.37357
-1.33936
-1.25089
-1.24044
-1.32061
-1.32065
-1.32068
-1.32069
-1.32069
-1.32065
-1.32056
-1.32041
-1.32016
-1.31976
-1.31916
-1.31824
-1.31684
-1.31469
-1.31149
-1.30768
-1.30322
-1.32236
-1.36571
-1.37123
-1.32706
-1.31168
-1.34354
-1.37343
-1.37313
-1.36937
-1.34487
-1.31601
-1.30306
-1.30567
-1.32812
-1.31761
-1.28965
-1.34643
-1.3871
-1.3483
-1.19117
-1.15369
-1.32061
-1.32066
-1.32069
-1.32071
-1.32071
-1.32068
-1.3206
-1.32046
-1.32024
-1.31988
-1.31936
-1.3186
-1.31755
-1.31616
-1.3146
-1.31356
-1.3145
-1.32498
-1.34533
-1.33766
-1.32085
-1.32574
-1.36181
-1.39834
-1.37877
-1.37392
-1.36139
-1.3349
-1.32836
-1.33592
-1.34417
-1.36031
-1.37375
-1.51341
-1.65352
-1.60275
-1.43792
-1.3892
-1.32062
-1.32067
-1.32071
-1.32074
-1.32075
-1.32073
-1.32068
-1.32058
-1.32039
-1.3201
-1.31969
-1.31912
-1.31839
-1.31751
-1.31668
-1.31631
-1.31737
-1.32219
-1.32973
-1.33044
-1.32622
-1.32715
-1.33604
-1.3463
-1.35258
-1.35366
-1.34805
-1.33575
-1.33693
-1.33395
-1.34455
-1.34641
-1.33438
-1.33967
-1.32223
-1.30548
-1.37371
-1.20145
-1.32063
-1.32068
-1.32073
-1.32077
-1.3208
-1.3208
-1.32077
-1.3207
-1.32058
-1.32038
-1.32009
-1.3197
-1.31925
-1.31879
-1.31852
-1.31873
-1.32007
-1.32326
-1.32793
-1.32908
-1.32799
-1.33044
-1.33928
-1.35079
-1.35363
-1.35241
-1.34907
-1.34544
-1.3427
-1.34511
-1.34695
-1.35322
-1.36166
-1.38309
-1.38659
-1.38801
-1.40667
-1.2829
-1.32064
-1.3207
-1.32076
-1.32081
-1.32086
-1.3209
-1.32091
-1.32089
-1.32082
-1.3207
-1.32052
-1.32029
-1.32006
-1.31988
-1.3199
-1.32029
-1.32136
-1.3232
-1.32547
-1.32654
-1.32725
-1.32892
-1.33212
-1.33495
-1.33686
-1.33817
-1.33792
-1.33633
-1.33613
-1.33672
-1.33744
-1.33989
-1.33738
-1.33803
-1.32676
-1.30485
-1.29742
-1.19754
-1.32065
-1.32072
-1.32079
-1.32086
-1.32093
-1.32099
-1.32103
-1.32105
-1.32105
-1.32101
-1.32093
-1.32083
-1.32075
-1.32075
-1.32093
-1.32138
-1.32226
-1.32356
-1.32516
-1.32646
-1.32768
-1.32942
-1.33254
-1.33623
-1.33925
-1.34028
-1.33972
-1.3393
-1.33878
-1.33831
-1.33958
-1.33755
-1.33645
-1.33236
-1.32966
-1.33034
-1.33255
-1.26175
-1.32066
-1.32074
-1.32082
-1.3209
-1.321
-1.3211
-1.3212
-1.32128
-1.32135
-1.32137
-1.32135
-1.32134
-1.32137
-1.32148
-1.32176
-1.32225
-1.323
-1.32397
-1.32511
-1.32619
-1.32722
-1.32843
-1.3299
-1.33117
-1.33201
-1.33247
-1.33293
-1.33325
-1.33375
-1.33467
-1.3357
-1.3362
-1.33615
-1.33255
-1.33317
-1.30539
-1.31299
-1.2923
-1.32067
-1.32075
-1.32084
-1.32094
-1.32106
-1.32118
-1.32131
-1.32143
-1.32154
-1.32161
-1.32169
-1.32175
-1.32184
-1.32202
-1.32236
-1.32287
-1.32355
-1.32435
-1.32524
-1.32613
-1.32701
-1.32792
-1.32913
-1.33022
-1.33147
-1.3326
-1.333
-1.33314
-1.33335
-1.33421
-1.33521
-1.33556
-1.33399
-1.3309
-1.32775
-1.32202
-1.32528
-1.32302
-1.32068
-1.32076
-1.32086
-1.32098
-1.32112
-1.32129
-1.32147
-1.32166
-1.32184
-1.32197
-1.32206
-1.32215
-1.32229
-1.32254
-1.32298
-1.32356
-1.32416
-1.32479
-1.32554
-1.32624
-1.32691
-1.3276
-1.3283
-1.32889
-1.32915
-1.3292
-1.32912
-1.32949
-1.33039
-1.33249
-1.33621
-1.3408
-1.34523
-1.3486
-1.35268
-1.35413
-1.36438
-1.34125
-1.32068
-1.32077
-1.32087
-1.321
-1.32116
-1.32134
-1.32156
-1.32179
-1.322
-1.32217
-1.32229
-1.32238
-1.32251
-1.32272
-1.32327
-1.32412
-1.3248
-1.32536
-1.32603
-1.32647
-1.32676
-1.32712
-1.3274
-1.32737
-1.32758
-1.32794
-1.32792
-1.32806
-1.32846
-1.33073
-1.33455
-1.33958
-1.34434
-1.35159
-1.35489
-1.34117
-1.34998
-1.38088
-1.32068
-1.32077
-1.32088
-1.32102
-1.32119
-1.3214
-1.32166
-1.32195
-1.32222
-1.32243
-1.32255
-1.32264
-1.32275
-1.3232
-1.32431
-1.32501
-1.32525
-1.326
-1.32669
-1.32678
-1.32699
-1.32727
-1.32739
-1.32717
-1.32675
-1.32636
-1.32575
-1.32543
-1.3256
-1.32919
-1.33809
-1.35062
-1.36165
-1.39362
-1.43956
-1.41591
-1.35474
-1.38335
-1.32068
-1.32077
-1.32088
-1.32102
-1.32119
-1.32141
-1.32169
-1.32202
-1.32235
-1.32261
-1.32274
-1.32274
-1.32266
-1.32261
-1.32356
-1.32527
-1.32559
-1.32593
-1.32665
-1.32669
-1.32653
-1.32658
-1.3263
-1.32555
-1.32491
-1.32425
-1.32329
-1.32189
-1.32016
-1.32134
-1.32708
-1.33341
-1.3369
-1.35299
-1.37693
-1.35847
-1.27921
-1.24955
-1.32061
-1.32066
-1.32069
-1.32071
-1.32071
-1.32068
-1.3206
-1.32046
-1.32022
-1.31986
-1.31931
-1.3185
-1.31731
-1.31558
-1.31326
-1.31083
-1.30889
-1.3197
-1.34502
-1.34745
-1.31459
-1.30972
-1.34606
-1.37765
-1.37888
-1.3786
-1.359
-1.33068
-1.31624
-1.31323
-1.32226
-1.31015
-1.27853
-1.30494
-1.36737
-1.41644
-1.28872
-1.17323
-1.32062
-1.32066
-1.3207
-1.32072
-1.32073
-1.3207
-1.32063
-1.32051
-1.3203
-1.31997
-1.3195
-1.31882
-1.3179
-1.31673
-1.31551
-1.31477
-1.31573
-1.32231
-1.33509
-1.33186
-1.31821
-1.32304
-1.35986
-1.40226
-1.38411
-1.38011
-1.37134
-1.34396
-1.33356
-1.3327
-1.33459
-1.33901
-1.33266
-1.42618
-1.58678
-1.63685
-1.41533
-1.32948
-1.32063
-1.32067
-1.32072
-1.32075
-1.32077
-1.32076
-1.32071
-1.32062
-1.32045
-1.32018
-1.31981
-1.31929
-1.31864
-1.31789
-1.31722
-1.31699
-1.31796
-1.32154
-1.32707
-1.32735
-1.32377
-1.32511
-1.33536
-1.3471
-1.35369
-1.35737
-1.35317
-1.34305
-1.33892
-1.33525
-1.33953
-1.33708
-1.32802
-1.3309
-1.32441
-1.30827
-1.32556
-1.3182
-1.32064
-1.32069
-1.32074
-1.32078
-1.32082
-1.32083
-1.32081
-1.32074
-1.32063
-1.32045
-1.32018
-1.31983
-1.31942
-1.31902
-1.3188
-1.319
-1.32013
-1.32262
-1.3261
-1.32716
-1.32662
-1.32894
-1.33785
-1.35062
-1.35513
-1.35444
-1.35137
-1.34766
-1.34348
-1.34452
-1.3447
-1.34892
-1.35453
-1.36894
-1.37821
-1.38723
-1.39794
-1.31015
-1.32065
-1.32071
-1.32077
-1.32083
-1.32088
-1.32092
-1.32094
-1.32093
-1.32087
-1.32076
-1.3206
-1.32039
-1.32018
-1.32002
-1.32005
-1.3204
-1.32133
-1.32288
-1.32478
-1.32578
-1.32651
-1.32821
-1.33165
-1.33499
-1.33706
-1.33863
-1.3387
-1.33745
-1.33645
-1.33678
-1.33666
-1.33785
-1.33588
-1.33548
-1.32762
-1.30891
-1.30618
-1.23647
-1.32066
-1.32072
-1.3208
-1.32087
-1.32094
-1.32101
-1.32106
-1.32109
-1.32109
-1.32107
-1.321
-1.32091
-1.32084
-1.32084
-1.32101
-1.32143
-1.32222
-1.32336
-1.32473
-1.32591
-1.3271
-1.32882
-1.33193
-1.33581
-1.33916
-1.34059
-1.34026
-1.3398
-1.33898
-1.33855
-1.33889
-1.33747
-1.33651
-1.33339
-1.33108
-1.32921
-1.3292
-1.28921
-1.32067
-1.32074
-1.32082
-1.32091
-1.32102
-1.32112
-1.32123
-1.32133
-1.3214
-1.32143
-1.32142
-1.32141
-1.32144
-1.32155
-1.32181
-1.32227
-1.32296
-1.32385
-1.32488
-1.32589
-1.32692
-1.32814
-1.32969
-1.33109
-1.332
-1.33253
-1.33291
-1.33336
-1.33377
-1.3345
-1.33539
-1.33591
-1.33606
-1.33381
-1.3328
-1.31279
-1.31396
-1.29991
-1.32067
-1.32075
-1.32085
-1.32095
-1.32107
-1.32121
-1.32135
-1.32148
-1.32159
-1.32168
-1.32176
-1.32182
-1.32191
-1.32208
-1.32241
-1.3229
-1.32355
-1.32429
-1.32512
-1.32596
-1.32681
-1.32773
-1.32892
-1.3301
-1.33138
-1.33249
-1.33297
-1.33305
-1.33318
-1.33384
-1.33482
-1.33511
-1.33399
-1.3317
-1.32848
-1.3234
-1.32087
-1.31907
-1.32068
-1.32076
-1.32086
-1.32099
-1.32114
-1.32131
-1.32152
-1.32173
-1.32192
-1.32206
-1.32215
-1.32223
-1.32236
-1.32261
-1.32302
-1.32357
-1.32416
-1.32477
-1.32547
-1.32614
-1.32679
-1.32746
-1.32816
-1.32876
-1.32906
-1.32913
-1.32906
-1.32934
-1.33007
-1.33184
-1.33522
-1.33936
-1.34353
-1.34722
-1.35178
-1.35449
-1.36147
-1.34366
-1.32068
-1.32076
-1.32087
-1.321
-1.32116
-1.32136
-1.3216
-1.32186
-1.3221
-1.32228
-1.32239
-1.32248
-1.32258
-1.32283
-1.32339
-1.32424
-1.32486
-1.32535
-1.32592
-1.32635
-1.32667
-1.32703
-1.32734
-1.32738
-1.32747
-1.32766
-1.3276
-1.32766
-1.32802
-1.32986
-1.33327
-1.33786
-1.34213
-1.34884
-1.35363
-1.3461
-1.3468
-1.37226
-1.32068
-1.32076
-1.32087
-1.32101
-1.32119
-1.32143
-1.32172
-1.32205
-1.32236
-1.32258
-1.3227
-1.32273
-1.3229
-1.32343
-1.32419
-1.32486
-1.32539
-1.32601
-1.32658
-1.32674
-1.32692
-1.32712
-1.3272
-1.32701
-1.32656
-1.32608
-1.32545
-1.325
-1.32493
-1.32779
-1.33573
-1.34746
-1.35625
-1.37895
-1.43397
-1.43571
-1.37766
-1.3798
-1.32067
-1.32076
-1.32087
-1.32101
-1.32119
-1.32143
-1.32175
-1.32215
-1.32256
-1.32286
-1.32302
-1.32296
-1.32285
-1.32299
-1.32392
-1.32528
-1.32571
-1.32598
-1.3265
-1.32654
-1.3264
-1.3264
-1.32614
-1.32549
-1.32489
-1.32424
-1.3233
-1.3219
-1.32018
-1.32084
-1.32589
-1.33268
-1.33541
-1.34695
-1.37153
-1.3745
-1.3079
-1.26297
-1.32062
-1.32066
-1.3207
-1.32072
-1.32073
-1.3207
-1.32064
-1.32051
-1.3203
-1.31997
-1.31948
-1.31877
-1.31776
-1.3164
-1.3147
-1.3131
-1.31235
-1.31808
-1.33121
-1.3309
-1.30479
-1.30352
-1.34105
-1.3801
-1.38357
-1.38633
-1.37269
-1.3451
-1.32938
-1.32083
-1.32044
-1.30792
-1.27903
-1.27678
-1.32394
-1.4294
-1.34441
-1.21861
-1.32062
-1.32067
-1.32071
-1.32074
-1.32075
-1.32073
-1.32067
-1.32056
-1.32037
-1.32007
-1.31964
-1.31905
-1.31825
-1.31728
-1.31632
-1.31578
-1.31659
-1.32074
-1.32824
-1.32613
-1.31526
-1.31953
-1.35703
-1.40335
-1.3891
-1.3859
-1.38093
-1.35404
-1.34091
-1.33357
-1.33055
-1.32959
-1.31985
-1.36144
-1.48276
-1.62326
-1.47844
-1.32139
-1.32063
-1.32068
-1.32073
-1.32076
-1.32079
-1.32078
-1.32075
-1.32067
-1.32051
-1.32027
-1.31993
-1.31947
-1.3189
-1.31826
-1.31772
-1.31757
-1.31837
-1.32088
-1.32454
-1.32447
-1.32141
-1.32282
-1.33399
-1.34706
-1.35456
-1.35997
-1.3583
-1.34818
-1.34264
-1.33681
-1.33722
-1.33294
-1.32292
-1.32411
-1.32232
-1.31477
-1.31864
-1.24743
-1.32064
-1.3207
-1.32075
-1.3208
-1.32084
-1.32085
-1.32084
-1.32079
-1.32069
-1.32053
-1.32028
-1.31997
-1.31961
-1.31926
-1.31907
-1.31924
-1.32015
-1.32201
-1.32446
-1.32527
-1.32506
-1.32724
-1.33605
-1.34975
-1.35592
-1.35654
-1.35358
-1.34991
-1.34493
-1.34431
-1.34292
-1.34492
-1.34789
-1.35664
-1.36681
-1.38179
-1.38569
-1.32686
-1.32065
-1.32071
-1.32078
-1.32084
-1.3209
-1.32095
-1.32098
-1.32098
-1.32094
-1.32084
-1.32069
-1.3205
-1.32031
-1.32017
-1.3202
-1.32051
-1.32129
-1.32254
-1.32405
-1.32494
-1.32568
-1.32738
-1.33102
-1.33485
-1.33719
-1.33872
-1.33947
-1.33844
-1.33724
-1.33663
-1.33617
-1.33664
-1.33454
-1.33351
-1.32802
-1.3128
-1.30464
-1.25325
-1.32066
-1.32073
-1.3208
-1.32088
-1.32096
-1.32104
-1.3211
-1.32114
-1.32114
-1.32113
-1.32107
-1.321
-1.32093
-1.32094
-1.3211
-1.32148
-1.32217
-1.32314
-1.3243
-1.32534
-1.32647
-1.32816
-1.33122
-1.3352
-1.33887
-1.34085
-1.3408
-1.34026
-1.33923
-1.33865
-1.33835
-1.33724
-1.33624
-1.33393
-1.33189
-1.32932
-1.32577
-1.29939
-1.32067
-1.32074
-1.32083
-1.32092
-1.32103
-1.32115
-1.32127
-1.32138
-1.32146
-1.3215
-1.3215
-1.32149
-1.32152
-1.32163
-1.32187
-1.32229
-1.32292
-1.32371
-1.32464
-1.32557
-1.32658
-1.3278
-1.32942
-1.33096
-1.33199
-1.33258
-1.3329
-1.33343
-1.33378
-1.33434
-1.33502
-1.33551
-1.33577
-1.33448
-1.33303
-1.31914
-1.31684
-1.30439
-1.32067
-1.32075
-1.32085
-1.32096
-1.32109
-1.32123
-1.32139
-1.32154
-1.32166
-1.32175
-1.32183
-1.32189
-1.32198
-1.32215
-1.32246
-1.32293
-1.32354
-1.32422
-1.32498
-1.32577
-1.3266
-1.32751
-1.32868
-1.32992
-1.33122
-1.33234
-1.33287
-1.33299
-1.33302
-1.33351
-1.33431
-1.33468
-1.33395
-1.33243
-1.32956
-1.32593
-1.32086
-1.31845
-1.32067
-1.32076
-1.32086
-1.32099
-1.32115
-1.32134
-1.32157
-1.3218
-1.32201
-1.32216
-1.32225
-1.32232
-1.32245
-1.32268
-1.32306
-1.32359
-1.32416
-1.32475
-1.3254
-1.32603
-1.32667
-1.32731
-1.32801
-1.32861
-1.32895
-1.32905
-1.32898
-1.32913
-1.32971
-1.33124
-1.33412
-1.338
-1.34193
-1.34564
-1.35034
-1.35518
-1.36246
-1.34944
-1.32067
-1.32076
-1.32086
-1.321
-1.32117
-1.32139
-1.32165
-1.32195
-1.32222
-1.32241
-1.32251
-1.32258
-1.3227
-1.32295
-1.32352
-1.32432
-1.32488
-1.32531
-1.32583
-1.32626
-1.32662
-1.32697
-1.32728
-1.32734
-1.32734
-1.32737
-1.32727
-1.32723
-1.32748
-1.32896
-1.33198
-1.33625
-1.34018
-1.34601
-1.35131
-1.34946
-1.34586
-1.36156
-1.32067
-1.32075
-1.32086
-1.32101
-1.32119
-1.32145
-1.32179
-1.32218
-1.32254
-1.32277
-1.32285
-1.3229
-1.32312
-1.32352
-1.32408
-1.32485
-1.32545
-1.32598
-1.3265
-1.32669
-1.32686
-1.32701
-1.32706
-1.32684
-1.32637
-1.32584
-1.32519
-1.32463
-1.3243
-1.32636
-1.3331
-1.34442
-1.35248
-1.36509
-1.41105
-1.44418
-1.40442
-1.37726
-1.32066
-1.32075
-1.32086
-1.32099
-1.32118
-1.32144
-1.32182
-1.32232
-1.32285
-1.3232
-1.32324
-1.32316
-1.32305
-1.32323
-1.32423
-1.32531
-1.32571
-1.32597
-1.3264
-1.32642
-1.32631
-1.32629
-1.32601
-1.32543
-1.32486
-1.3242
-1.32328
-1.32192
-1.32029
-1.32053
-1.32478
-1.33197
-1.3351
-1.3412
-1.36601
-1.38469
-1.33555
-1.28118
-1.32063
-1.32067
-1.32071
-1.32074
-1.32075
-1.32073
-1.32068
-1.32057
-1.32038
-1.32008
-1.31965
-1.31904
-1.3182
-1.31711
-1.31585
-1.31473
-1.31441
-1.3173
-1.32328
-1.31952
-1.29712
-1.29369
-1.33079
-1.37626
-1.38738
-1.3917
-1.38471
-1.35895
-1.3421
-1.32923
-1.32211
-1.30875
-1.28569
-1.27078
-1.28312
-1.39624
-1.37241
-1.24743
-1.32063
-1.32068
-1.32072
-1.32075
-1.32077
-1.32076
-1.32071
-1.32061
-1.32045
-1.32018
-1.3198
-1.31927
-1.3186
-1.31779
-1.31702
-1.3166
-1.31715
-1.3196
-1.32346
-1.32113
-1.31222
-1.31482
-1.3525
-1.40292
-1.393
-1.39079
-1.38971
-1.36477
-1.3499
-1.33847
-1.33095
-1.3267
-1.31486
-1.33218
-1.39128
-1.5627
-1.49134
-1.34398
-1.32064
-1.32069
-1.32074
-1.32078
-1.32081
-1.32082
-1.32079
-1.32072
-1.32059
-1.32037
-1.32007