/*--------------------------------*- C++ -*----------------------------------*\
| =========                 |                                                 |
| \\      /  F ield         | OpenFOAM: The Open Source CFD Toolbox           |
|  \\    /   O peration     | Version:  2.3.1                                 |
|   \\  /    A nd           | Web:      www.OpenFOAM.org                      |
|    \\/     M anipulation  |                                                 |
\*---------------------------------------------------------------------------*/
FoamFile
{
    version     2.0;
    format      ascii;
    class       surfaceScalarField;
    location    "5";
    object      phi;
}
// * * * * * * * * * * * * * * * * * * * * * * * * * * * * * * * * * * * * * //

dimensions      [0 3 -1 0 0 0 0];

internalField   nonuniform List<scalar> 
110130
(
5.20252e-06
-9.15197e-08
-2.65566e-07
5.5817e-06
-9.93117e-08
-2.79876e-07
5.97904e-06
-1.04818e-07
-2.92517e-07
6.38805e-06
-1.06425e-07
-3.02584e-07
6.79906e-06
-1.02105e-07
-3.0891e-07
7.19824e-06
-8.94001e-08
-3.0978e-07
7.56629e-06
-6.45767e-08
-3.03473e-07
7.87483e-06
-2.16531e-08
-2.86886e-07
8.08288e-06
4.77988e-08
-2.55848e-07
8.1236e-06
1.57002e-07
-1.97718e-07
7.87551e-06
3.41673e-07
-9.35876e-08
7.09596e-06
6.69372e-07
1.10175e-07
5.26371e-06
1.31292e-06
5.19334e-07
1.15334e-06
2.67291e-06
1.43745e-06
-7.96729e-06
5.7909e-06
3.32973e-06
-2.91683e-05
1.34896e-05
7.71143e-06
-7.33454e-05
2.91176e-05
1.50595e-05
-0.000125331
3.07672e-05
2.12183e-05
-0.000140855
-1.45434e-06
1.69788e-05
-0.000121925
-1.39236e-05
-5.00647e-06
-9.7468e-05
6.35324e-06
-3.08105e-05
-8.82441e-05
1.86e-05
-2.78239e-05
-0.000111307
5.4295e-06
1.76338e-05
-0.000129186
-9.96544e-06
2.78443e-05
-0.000124774
-2.08645e-05
1.64518e-05
-0.000136373
-2.03844e-05
3.19837e-05
-0.000148176
-2.66012e-05
3.84043e-05
-0.000184085
-2.65803e-06
3.85666e-05
-0.000241626
-2.8054e-05
8.55958e-05
-0.000286932
-6.73095e-06
5.20366e-05
-0.000296184
-5.41451e-05
6.33976e-05
-0.000292083
-4.49152e-05
4.08139e-05
-0.000292952
-6.08147e-05
6.1684e-05
-0.000318882
-7.44177e-05
0.000100347
-0.000319495
-8.78847e-05
8.84978e-05
-0.000285508
-0.000141865
0.000107878
-0.000260726
-8.22419e-05
5.746e-05
-0.000126318
-1.4674e-05
5.25262e-06
-1.48382e-07
-3.033e-07
5.63599e-06
-1.62025e-07
-3.20658e-07
6.03896e-06
-1.71351e-07
-3.36433e-07
6.45534e-06
-1.73158e-07
-3.49649e-07
6.87548e-06
-1.63134e-07
-3.59113e-07
7.28529e-06
-1.35886e-07
-3.63322e-07
7.66641e-06
-8.55194e-08
-3.60176e-07
7.99907e-06
-6.90888e-09
-3.4741e-07
8.24597e-06
1.19817e-07
-3.18919e-07
8.35879e-06
3.12792e-07
-2.68602e-07
8.26625e-06
6.15804e-07
-1.81598e-07
7.85881e-06
1.0993e-06
-2.24837e-08
6.98755e-06
1.92374e-06
2.6045e-07
5.50287e-06
3.35009e-06
8.07501e-07
3.53642e-06
5.99803e-06
1.75931e-06
2.77466e-06
1.09806e-05
3.27073e-06
6.12726e-06
2.01238e-05
5.6412e-06
5.5542e-06
2.69264e-05
4.41388e-06
-1.02139e-05
1.98737e-05
-5.55997e-06
-2.89378e-05
1.74077e-05
-1.26074e-05
-3.29389e-05
2.27461e-05
-1.23917e-05
-1.42765e-05
2.82387e-05
-2.83011e-05
7.25509e-06
1.18249e-05
-2.79271e-05
2.15254e-05
2.88799e-06
-2.71237e-05
3.84277e-05
-1.61333e-05
-2.16335e-05
4.79168e-05
-2.46725e-05
-5.20098e-06
5.74739e-05
-2.32249e-05
-1.29334e-05
5.64267e-05
-1.81552e-06
2.0468e-07
9.54079e-05
-5.09937e-05
-1.60415e-05
7.07306e-05
3.38472e-05
-1.59009e-05
0.000129477
-6.38039e-05
-4.90873e-05
0.000161986
1.96344e-05
-9.70593e-05
0.00017778
3.50477e-05
-0.000111656
0.000251046
-9.67598e-06
-0.000138008
0.000250573
3.37748e-05
-0.000121187
0.000340435
-3.65475e-05
-0.000195179
0.000308371
0.000222114
-0.000272291
0.00052522
-0.000573553
5.2441e-06
-1.86668e-07
-3.23614e-07
5.63113e-06
-2.05907e-07
-3.43157e-07
6.04042e-06
-2.19474e-07
-3.61166e-07
6.46678e-06
-2.23001e-07
-3.76514e-07
6.90254e-06
-2.11057e-07
-3.87838e-07
7.33859e-06
-1.7837e-07
-3.93562e-07
7.75906e-06
-1.13899e-07
-3.92093e-07
8.13477e-06
-1.21867e-09
-3.81406e-07
8.44686e-06
1.67372e-07
-3.5964e-07
8.66319e-06
4.14687e-07
-3.18227e-07
8.74481e-06
7.882e-07
-2.54013e-07
8.63846e-06
1.3389e-06
-1.33262e-07
8.30751e-06
2.21434e-06
4.03591e-08
7.67903e-06
3.56291e-06
4.15655e-07
6.97831e-06
5.75181e-06
9.46946e-07
6.87843e-06
9.09286e-06
1.98767e-06
9.71771e-06
1.39857e-05
3.29878e-06
1.38244e-05
1.84507e-05
4.36904e-06
1.27584e-05
1.36389e-05
7.30074e-06
1.08654e-05
1.15789e-05
7.72173e-06
6.48845e-06
9.23079e-06
1.78923e-05
1.0432e-05
2.27882e-05
1.50691e-06
1.72129e-05
4.28442e-06
7.59654e-07
2.16182e-05
8.76541e-06
-1.02827e-05
2.69669e-05
-9.49119e-06
-1.19909e-05
2.00065e-05
-7.78822e-06
-9.92393e-06
2.75497e-05
-2.09623e-05
-9.80583e-06
9.39131e-06
-2.77615e-05
4.41044e-05
2.9203e-05
-5.2338e-06
-6.55716e-05
3.09111e-05
-2.11161e-05
5.32552e-05
2.34617e-05
-2.18372e-05
-3.45172e-05
7.16999e-05
-2.89699e-05
3.66068e-07
3.36306e-05
-8.1887e-06
8.13058e-05
-5.00632e-06
-2.66309e-05
5.55918e-05
-3.39694e-06
-4.43765e-05
7.65419e-05
0.000100263
-8.24243e-05
-5.77829e-05
0.000250176
-3.6077e-05
0.000108278
0.000421304
8.75718e-05
5.22908e-06
-2.19666e-07
-3.31114e-07
5.62105e-06
-2.45409e-07
-3.52466e-07
6.03896e-06
-2.64947e-07
-3.72429e-07
6.47841e-06
-2.72714e-07
-3.89737e-07
6.93131e-06
-2.61197e-07
-4.02764e-07
7.3838e-06
-2.21249e-07
-4.09612e-07
7.8215e-06
-1.43397e-07
-4.08206e-07
8.23769e-06
-2.12264e-08
-3.96178e-07
8.60751e-06
1.71167e-07
-3.73612e-07
8.91056e-06
4.45493e-07
-3.3386e-07
9.13012e-06
8.44529e-07
-2.75884e-07
9.25957e-06
1.39056e-06
-1.81108e-07
9.31195e-06
2.21176e-06
-4.98014e-08
9.35834e-06
3.34642e-06
1.70099e-07
9.6549e-06
4.98916e-06
4.66086e-07
1.06186e-05
7.20212e-06
9.2703e-07
1.35925e-05
9.77749e-06
1.23437e-06
1.83381e-05
1.21265e-05
1.57858e-06
2.03895e-05
1.14359e-05
1.51598e-07
2.04595e-05
1.14624e-05
4.65239e-08
2.04803e-05
9.07172e-06
1.38269e-07
2.83425e-05
1.61187e-05
-1.19263e-06
3.34285e-05
3.27585e-06
-4.07746e-06
3.67076e-05
8.32509e-06
-2.83875e-06
4.38008e-05
-9.46375e-06
-7.12065e-06
3.97204e-05
1.07097e-05
-1.44175e-05
3.19635e-05
-2.51868e-05
1.19813e-05
4.94131e-05
-2.59544e-05
-1.92567e-05
2.93086e-05
1.37961e-05
1.07459e-06
4.21936e-05
-3.59058e-05
1.90461e-06
2.79226e-05
7.20163e-06
-1.47678e-05
3.30893e-05
-2.50205e-05
-9.11614e-06
7.53383e-05
-4.73615e-05
-3.07624e-06
7.41333e-05
4.3267e-05
-6.86929e-05
1.86119e-05
-4.16497e-05
5.27946e-05
4.8247e-05
-7.51065e-06
-0.000104549
0.000102479
-6.07852e-05
-2.95237e-05
8.46174e-05
0.000287032
5.20828e-06
-2.47081e-07
-3.38783e-07
5.60565e-06
-2.80046e-07
-3.62732e-07
6.03362e-06
-3.07379e-07
-3.85541e-07
6.48976e-06
-3.23151e-07
-4.05707e-07
6.97001e-06
-3.20218e-07
-4.21221e-07
7.46969e-06
-2.9115e-07
-4.29781e-07
7.97504e-06
-2.18938e-07
-4.29813e-07
8.46256e-06
-9.03412e-08
-4.18404e-07
8.91779e-06
1.09337e-07
-3.93395e-07
9.33788e-06
3.78878e-07
-3.53475e-07
9.72648e-06
7.67894e-07
-3.11965e-07
1.00895e-05
1.25731e-06
-2.29746e-07
1.04879e-05
1.99483e-06
-1.81456e-07
1.09503e-05
2.88386e-06
7.41776e-11
1.17332e-05
4.20293e-06
3.38496e-09
1.27462e-05
5.7831e-06
4.0596e-07
1.48353e-05
7.52859e-06
1.5987e-07
1.69467e-05
9.20537e-06
8.09704e-07
1.91513e-05
9.58288e-06
-3.51515e-07
2.04587e-05
8.72589e-06
1.42903e-06
2.19781e-05
9.2936e-06
-1.74124e-06
2.59581e-05
9.62015e-06
2.51851e-06
2.72019e-05
6.65178e-06
-4.61968e-06
2.85002e-05
6.20859e-06
8.18158e-07
3.2371e-05
-3.01714e-06
-1.03174e-05
3.4256e-05
4.68367e-06
4.14102e-06
2.30195e-05
-7.46548e-06
-6.48484e-06
3.03893e-05
-5.96933e-06
-2.73548e-05
4.3596e-05
-1.92636e-05
1.9853e-05
2.65287e-05
1.52935e-05
-3.4132e-05
5.47726e-05
-2.82887e-05
7.24639e-06
4.88311e-05
1.05867e-05
-2.96656e-05
2.54212e-05
-1.62494e-05
-7.70214e-06
6.30486e-05
2.16116e-05
-1.59719e-05
8.71838e-05
-4.46221e-05
-2.11629e-05
8.98931e-05
1.86738e-05
-2.88938e-05
-8.5943e-06
0.000110225
-7.25229e-05
5.94022e-05
-4.97642e-05
5.18132e-06
-2.63295e-07
-3.51324e-07
5.58365e-06
-3.03133e-07
-3.79236e-07
6.02158e-06
-3.38698e-07
-4.06612e-07
6.49351e-06
-3.63385e-07
-4.31703e-07
6.99311e-06
-3.67817e-07
-4.51992e-07
7.50711e-06
-3.41158e-07
-4.63996e-07
8.02424e-06
-2.72203e-07
-4.63864e-07
8.53624e-06
-1.53191e-07
-4.49149e-07
9.0425e-06
2.54298e-08
-4.22361e-07
9.51899e-06
2.8168e-07
-3.7929e-07
9.97953e-06
6.36463e-07
-3.29107e-07
1.04508e-05
1.03807e-06
-2.52044e-07
1.09754e-05
1.65694e-06
-1.86659e-07
1.16597e-05
2.28695e-06
-8.74208e-08
1.24862e-05
3.35e-06
2.63949e-08
1.37732e-05
4.4464e-06
4.97694e-08
1.51885e-05
5.85424e-06
2.59028e-07
1.72466e-05
7.09241e-06
5.48036e-08
1.95482e-05
7.34887e-06
-6.75664e-08
2.05805e-05
8.1143e-06
-4.20708e-07
2.27521e-05
8.47802e-06
-1.35598e-06
2.56894e-05
6.95618e-06
-2.7335e-07
2.92412e-05
7.31303e-06
-4.21305e-06
2.96285e-05
5.43882e-06
3.82491e-07
3.19332e-05
6.39718e-07
-5.96156e-06
3.56878e-05
1.18098e-06
-2.51972e-07
2.71149e-05
-6.16613e-06
7.27355e-06
3.12453e-05
5.81747e-06
-1.59172e-05
2.42079e-05
-2.65005e-05
1.42744e-05
2.61459e-05
1.53361e-05
-1.98047e-06
2.95056e-05
-1.41076e-05
-1.75409e-05
3.35206e-05
-5.94544e-06
1.25171e-05
2.5391e-05
-4.17371e-06
-3.94608e-06
7.6584e-06
4.41048e-06
3.49337e-05
-3.66671e-05
-1.43269e-05
1.40302e-05
-7.7848e-05
8.42166e-05
-2.43618e-05
-9.96719e-05
0.000201867
-6.98184e-05
6.51149e-05
-0.000102565
5.14848e-06
-2.6139e-07
-3.69521e-07
5.55454e-06
-3.06123e-07
-4.03067e-07
6.00192e-06
-3.49062e-07
-4.37014e-07
6.49251e-06
-3.84821e-07
-4.69157e-07
7.02713e-06
-4.06337e-07
-4.96092e-07
7.60156e-06
-4.0202e-07
-5.13571e-07
8.20386e-06
-3.57594e-07
-5.16913e-07
8.81348e-06
-2.6281e-07
-5.00001e-07
9.40537e-06
-1.01117e-07
-4.65342e-07
9.97854e-06
1.06177e-07
-3.9767e-07
1.05809e-05
3.85906e-07
-3.51783e-07
1.11925e-05
6.6925e-07
-2.42822e-07
1.20199e-05
1.09608e-06
-2.66464e-07
1.28457e-05
1.51882e-06
-5.76771e-08
1.42174e-05
2.21936e-06
-2.41137e-07
1.53449e-05
3.30146e-06
1.74481e-08
1.66399e-05
4.78554e-06
-2.26228e-07
1.85259e-05
5.78736e-06
-5.81007e-07
1.96211e-05
5.96275e-06
2.90936e-07
2.10356e-05
8.29776e-06
-1.59793e-06
2.37011e-05
6.30246e-06
-4.89965e-07
2.42593e-05
8.00433e-06
-1.60637e-06
2.66241e-05
6.27649e-06
-1.3282e-06
3.01658e-05
4.34897e-06
-2.45193e-06
3.25605e-05
4.6316e-06
-6.38657e-06
3.65705e-05
7.93709e-06
-1.07661e-05
4.35384e-05
-4.71052e-07
-1.26629e-05
3.93848e-05
7.69155e-06
2.27954e-06
4.12803e-05
-4.44361e-06
-2.39525e-05
4.77121e-05
1.51328e-05
-6.22851e-06
5.40403e-05
7.29137e-06
-2.77271e-05
4.39943e-05
1.52136e-05
-1.11131e-05
4.94345e-05
1.31117e-05
-2.27255e-05
3.96103e-05
2.49493e-05
-1.07147e-05
-4.43796e-05
2.72799e-05
4.23832e-05
-0.000132156
6.84797e-05
0.000103513
-0.000157821
0.000113122
0.000114411
-0.000268811
0.000177612
5.11131e-06
-2.34615e-07
-3.92887e-07
5.51905e-06
-2.79925e-07
-4.33936e-07
5.97269e-06
-3.25496e-07
-4.77209e-07
6.47356e-06
-3.65125e-07
-5.20558e-07
7.01824e-06
-3.91116e-07
-5.59904e-07
7.5982e-06
-3.93045e-07
-5.8894e-07
8.19911e-06
-3.58666e-07
-5.99834e-07
8.80184e-06
-2.80433e-07
-5.85108e-07
9.39624e-06
-1.51924e-07
-5.4359e-07
9.97323e-06
4.91378e-09
-4.75731e-07
1.05495e-05
2.14919e-07
-4.05267e-07
1.11281e-05
3.85893e-07
-2.95237e-07
1.18901e-05
5.5955e-07
-2.25449e-07
1.27969e-05
7.02008e-07
-9.00417e-08
1.41099e-05
9.05542e-07
8.62201e-10
1.56119e-05
1.67824e-06
1.21157e-07
1.65804e-05
3.37235e-06
4.44728e-07
1.91595e-05
3.29078e-06
-8.25603e-08
1.89107e-05
5.0037e-06
1.20792e-06
2.16744e-05
6.40754e-06
-8.73558e-07
2.23437e-05
5.86549e-06
-2.32274e-07
2.03902e-05
8.42977e-06
1.528e-06
2.39087e-05
7.83018e-06
-5.07219e-06
1.75196e-05
4.54756e-06
6.19058e-06
4.5209e-06
9.13284e-06
8.49742e-06
-2.90057e-06
1.15224e-05
3.83614e-06
-5.75251e-06
8.73413e-06
-6.35324e-06
-6.61934e-06
1.04931e-05
-1.93467e-06
-6.25501e-06
1.0787e-05
-1.55949e-05
-5.94356e-06
2.1148e-05
-6.32668e-06
-1.14322e-05
2.35734e-05
-1.07934e-05
-2.12603e-05
5.05825e-05
-2.55407e-05
-1.99565e-05
3.79553e-05
-2.61474e-05
-2.21649e-05
4.54082e-05
-1.82505e-05
-1.74202e-05
5.63389e-05
-3.38037e-05
-2.79159e-05
-1.97042e-06
8.09458e-05
-2.08171e-05
1.39476e-05
9.2076e-05
-0.000365252
3.61752e-05
5.07337e-06
-1.79243e-07
-4.1865e-07
5.48112e-06
-2.19251e-07
-4.68416e-07
5.9405e-06
-2.62216e-07
-5.22664e-07
6.45884e-06
-3.04998e-07
-5.78465e-07
7.04008e-06
-3.41719e-07
-6.30636e-07
7.68049e-06
-3.63068e-07
-6.70387e-07
8.36649e-06
-3.57917e-07
-6.86753e-07
9.06769e-06
-3.17475e-07
-6.64156e-07
9.76217e-06
-2.43095e-07
-6.03306e-07
1.03973e-05
-1.3891e-07
-4.91338e-07
1.10858e-05
-9.25604e-08
-3.81041e-07
1.17337e-05
-4.91535e-08
-2.12833e-07
1.28381e-05
-3.89413e-07
-1.55423e-07
1.39805e-05
-5.09344e-07
6.89337e-08
1.64137e-05
-1.57377e-06
4.60963e-08
1.72165e-05
6.66796e-07
2.08719e-07
1.84869e-05
2.87736e-06
-7.7544e-07
1.95387e-05
1.86368e-06
3.75302e-07
2.07494e-05
3.77383e-06
1.91477e-08
2.16689e-05
4.79898e-06
6.89113e-07
2.31708e-05
5.38946e-06
-1.02589e-06
2.41427e-05
7.85002e-06
-3.92168e-07
2.53072e-05
6.78793e-06
-1.22221e-07
2.7139e-05
7.50274e-06
-4.78698e-06
2.80658e-05
9.84804e-06
-1.64197e-06
2.87394e-05
1.20411e-05
-1.19229e-06
2.90284e-05
7.88771e-06
5.57386e-07
2.74895e-05
8.22799e-06
3.804e-06
2.6443e-05
5.09768e-06
6.73584e-06
2.77631e-05
1.44804e-05
5.34745e-06
2.7721e-05
1.81887e-05
5.42678e-06
3.58527e-05
4.21951e-05
2.5561e-07
5.06658e-05
3.90236e-05
-1.58813e-05
7.82636e-05
5.32207e-05
-3.54104e-05
0.000102732
7.38811e-05
-4.20108e-05
0.000102347
4.87669e-05
-5.03519e-05
6.36017e-05
5.21578e-05
5.34983e-07
-0.000301201
-4.51479e-05
5.03894e-06
-1.0139e-07
-4.37094e-07
5.44363e-06
-1.2874e-07
-4.95207e-07
5.90112e-06
-1.58589e-07
-5.61114e-07
6.41762e-06
-1.88538e-07
-6.32963e-07
6.99576e-06
-2.14085e-07
-7.05769e-07
7.63066e-06
-2.28624e-07
-7.69341e-07
8.30431e-06
-2.23854e-07
-8.07721e-07
8.98128e-06
-1.93641e-07
-8.00799e-07
9.61526e-06
-1.42319e-07
-7.34753e-07
1.01652e-05
-7.92178e-08
-6.09674e-07
1.06131e-05
-8.74591e-08
-4.52933e-07
1.10477e-05
-2.19288e-07
-2.64499e-07
1.14679e-05
-7.1156e-07
-9.80165e-08
1.26868e-05
-1.70161e-06
-2.66724e-08
1.51776e-05
-4.60687e-06
5.42339e-07
1.59751e-05
-1.34314e-06
1.21243e-06
1.82503e-05
-1.21209e-06
1.8142e-06
1.92565e-05
-2.66485e-06
3.52232e-06
2.09157e-05
-1.70557e-06
3.82027e-06
2.15165e-05
3.64836e-07
3.83331e-06
2.06341e-05
7.56998e-07
5.51487e-06
2.1397e-05
6.33618e-06
7.50912e-07
1.95009e-05
6.24945e-06
2.43457e-06
7.38852e-06
8.61118e-06
1.1004e-05
-5.23632e-06
1.61747e-05
6.29814e-06
-8.84182e-06
1.74543e-05
-1.8077e-06
-1.07456e-05
1.50809e-05
-5.28938e-06
-1.25439e-05
1.37667e-05
-3.7404e-06
-1.47151e-05
1.07502e-05
-3.48135e-06
-1.43948e-05
1.42914e-05
-1.31227e-07
-1.53186e-05
2.73794e-05
-8.26695e-06
-1.98716e-05
4.90406e-05
-2.29247e-06
-3.07125e-05
6.52297e-05
-1.53652e-05
-4.41138e-05
9.53219e-05
-2.86999e-05
-2.85813e-05
0.000110387
-5.20382e-05
-2.812e-05
0.000117758
-6.94521e-05
3.52526e-05
6.05343e-05
-7.17492e-05
-0.000268434
-7.6621e-05
5.01366e-06
-3.0778e-08
-4.26944e-07
5.41716e-06
-4.39913e-08
-4.88258e-07
5.87796e-06
-6.00091e-08
-5.59379e-07
6.40657e-06
-7.93947e-08
-6.3775e-07
7.00981e-06
-9.96983e-08
-7.17629e-07
7.6855e-06
-1.18543e-07
-7.85769e-07
8.41538e-06
-1.32085e-07
-8.21649e-07
9.15392e-06
-1.34995e-07
-7.97182e-07
9.83899e-06
-1.3418e-07
-6.9321e-07
1.0426e-05
-1.42428e-07
-5.23846e-07
1.0818e-05
-2.20489e-07
-2.58884e-07
1.1503e-05
-6.31808e-07
-2.72491e-07
1.13249e-05
-1.27441e-06
7.40968e-07
1.51525e-05
-4.34823e-06
-1.18105e-06
1.73501e-05
-9.6333e-06
2.8288e-06
1.52399e-05
1.11516e-06
-3.48071e-07
1.52807e-05
4.33034e-06
-5.58321e-06
1.40547e-05
-2.376e-06
9.37107e-07
1.15328e-05
-1.22503e-06
2.04136e-06
9.46332e-06
1.90852e-06
5.25824e-07
1.10004e-05
-6.27069e-07
-1.53041e-07
1.55887e-05
8.3567e-07
9.12266e-07
2.09159e-05
6.07842e-06
-5.15617e-06
2.06399e-05
7.75332e-06
1.13386e-06
1.75348e-05
1.17764e-05
7.50341e-06
1.34727e-05
1.48188e-05
6.69757e-06
1.07249e-05
1.40163e-05
3.81236e-06
1.0133e-05
1.28897e-05
1.46888e-06
8.84858e-06
9.50625e-06
2.52835e-06
8.76193e-06
6.53698e-06
7.84106e-06
8.69548e-06
1.44389e-05
1.30069e-05
1.51229e-05
2.6135e-05
1.64782e-05
2.06154e-05
3.32603e-05
2.6477e-05
6.37592e-05
5.4337e-05
-2.1589e-06
5.36974e-05
8.69878e-05
3.34608e-05
0.000101178
0.000101923
-3.16465e-05
0.000189193
9.26935e-05
-0.000120173
6.02406e-05
-0.000246443
4.94945e-06
-3.82993e-07
5.34801e-06
-4.42552e-07
5.80237e-06
-5.14372e-07
6.32187e-06
-5.98896e-07
6.91406e-06
-6.91885e-07
7.57791e-06
-7.82392e-07
8.29305e-06
-8.47225e-07
9.00777e-06
-8.49716e-07
9.6253e-06
-7.51714e-07
1.0027e-05
-5.4415e-07
1.00592e-05
-2.52631e-07
9.31819e-06
1.09173e-07
8.14174e-06
-9.79665e-08
3.50507e-06
2.88446e-07
-9.28094e-06
3.1527e-06
-1.12021e-05
3.03636e-06
-1.00227e-05
3.15086e-06
-1.57994e-05
3.40079e-06
-1.14893e-05
-5.5352e-06
-9.43675e-06
-1.44008e-07
-1.63698e-05
6.306e-06
-1.70962e-05
1.56203e-06
-1.262e-05
1.60229e-06
-1.31153e-05
8.24858e-06
-1.49565e-05
1.36176e-05
-1.58708e-05
1.5733e-05
-1.92436e-05
1.73891e-05
-2.47722e-05
1.84183e-05
-3.33688e-05
1.81029e-05
-4.70057e-05
2.01739e-05
-6.31462e-05
3.05794e-05
-8.18078e-05
4.47966e-05
-0.000105189
5.66417e-05
-0.000122698
7.18454e-05
-0.000122218
8.65083e-05
-8.80927e-05
6.77978e-05
-8.9102e-05
9.37027e-05
3.5297e-05
5.32573e-06
-7.70761e-08
-5.52365e-07
5.71239e-06
-8.39683e-08
-5.82567e-07
6.11794e-06
-8.86048e-08
-6.09461e-07
6.53597e-06
-8.93598e-08
-6.31261e-07
6.95696e-06
-8.41938e-08
-6.45704e-07
7.36773e-06
-7.08094e-08
-6.49735e-07
7.74978e-06
-4.57236e-08
-6.39801e-07
8.07464e-06
-1.39142e-09
-6.10362e-07
8.30297e-06
6.76027e-08
-5.51778e-07
8.37054e-06
1.77038e-07
-4.42321e-07
8.16259e-06
3.59319e-07
-2.44963e-07
7.45348e-06
6.7966e-07
1.39633e-07
5.76156e-06
1.29848e-06
9.12763e-07
1.91516e-06
2.59561e-06
2.68824e-06
-7.03945e-06
5.54897e-06
6.73537e-06
-3.04234e-05
1.2982e-05
1.81134e-05
-8.38208e-05
2.84908e-05
3.9966e-05
-0.000144192
3.07748e-05
5.08145e-05
-0.000156781
3.29993e-06
2.62684e-05
-0.000130084
-9.07866e-06
-2.2625e-05
-0.000103032
8.5369e-06
-6.63999e-05
-8.45054e-05
2.01371e-05
-6.64872e-05
-9.35436e-05
2.75161e-06
2.39204e-05
-0.000117965
-1.24259e-05
6.46912e-05
-0.000121706
-1.98646e-05
4.00576e-05
-0.000128996
-2.18267e-05
6.1101e-05
-0.000138732
-2.5303e-05
7.34433e-05
-0.000162596
-1.81332e-05
8.05631e-05
-0.000206965
8.35599e-06
0.000121609
-0.000245985
-1.36982e-05
0.000104755
-0.000268492
-1.96307e-05
0.000105535
-0.000258907
-1.73574e-05
4.85857e-05
-0.000247985
-5.14481e-05
0.00010221
-0.000238938
-8.37881e-05
0.000175088
-0.000210281
-0.000114898
0.000174738
-0.000169616
-0.000155757
0.00022297
-8.47985e-05
-0.000179574
0.000152216
-0.000316041
2.92789e-05
5.39272e-06
-1.38454e-07
-6.1088e-07
5.78585e-06
-1.51839e-07
-6.4592e-07
6.19962e-06
-1.60983e-07
-6.77821e-07
6.62797e-06
-1.62665e-07
-7.0469e-07
7.06143e-06
-1.52475e-07
-7.2429e-07
7.48613e-06
-1.25021e-07
-7.33815e-07
7.88395e-06
-7.45519e-08
-7.29171e-07
8.23616e-06
2.91544e-09
-7.03922e-07
8.50552e-06
1.31464e-07
-6.52143e-07
8.64665e-06
3.23827e-07
-5.56518e-07
8.59153e-06
6.23659e-07
-3.90817e-07
8.23791e-06
1.0995e-06
-8.87091e-08
7.44963e-06
1.90361e-06
4.43609e-07
6.08367e-06
3.28171e-06
1.48735e-06
4.22755e-06
5.82011e-06
3.3443e-06
3.12624e-06
1.05824e-05
6.7716e-06
4.81197e-06
1.96225e-05
1.28238e-05
-6.37267e-07
2.65735e-05
1.40644e-05
-1.86443e-05
1.93247e-05
-3.57774e-06
-3.49949e-05
8.85114e-06
-1.41866e-05
-3.16803e-05
9.12158e-06
-1.62911e-05
-9.65006e-06
1.09059e-05
-4.11001e-05
1.24853e-05
4.72522e-06
-5.20361e-05
2.3491e-05
-8.51885e-06
-4.20364e-05
3.09351e-05
-2.17996e-05
-2.71426e-05
3.6474e-05
-1.90769e-05
-1.34896e-05
4.98082e-05
-3.56817e-05
-1.58889e-05
5.11594e-05
-2.17371e-05
2.4574e-06
6.19014e-05
-3.66096e-07
-1.80614e-05
9.01596e-05
-7.34828e-06
-5.05089e-05
8.18126e-05
-8.0418e-06
-5.23293e-05
9.86677e-05
2.37214e-05
-0.000154993
0.000121878
-2.43743e-05
-0.00016194
0.000139428
-5.85109e-05
-0.000180836
0.00015348
-1.53866e-05
-0.000234749
0.000135745
-0.000107919
-0.000225281
4.31757e-05
1.05001e-05
-0.000369797
-3.16708e-05
-0.000704765
5.3828e-06
-1.85418e-07
-6.47255e-07
5.77954e-06
-2.05318e-07
-6.86413e-07
6.19959e-06
-2.19688e-07
-7.2251e-07
6.63788e-06
-2.24138e-07
-7.53334e-07
7.08693e-06
-2.13184e-07
-7.76176e-07
7.53769e-06
-1.81409e-07
-7.8794e-07
7.97425e-06
-1.17649e-07
-7.85551e-07
8.36772e-06
-6.32641e-09
-7.65631e-07
8.69993e-06
1.61855e-07
-7.2225e-07
8.93999e-06
4.07999e-07
-6.42457e-07
9.04915e-06
7.76571e-07
-5.16078e-07
8.98285e-06
1.32152e-06
-2.88977e-07
8.69778e-06
2.17428e-06
5.47487e-08
8.16186e-06
3.49112e-06
7.42174e-07
7.5383e-06
5.5956e-06
1.79501e-06
7.51558e-06
8.79141e-06
3.80141e-06
1.04058e-05
1.35405e-05
6.49052e-06
1.44049e-05
1.76786e-05
9.26485e-06
1.50218e-05
1.45329e-05
1.14757e-05
1.22805e-05
7.92284e-06
1.13913e-05
1.17998e-05
9.79063e-06
1.77039e-05
1.47307e-05
9.78207e-06
-3.00129e-07
2.01098e-05
7.98037e-06
-7.87462e-06
2.794e-05
-2.83104e-06
-2.38007e-05
2.88884e-05
-9.95162e-06
-2.47873e-05
3.13884e-05
-1.28184e-05
-1.86825e-05
2.24749e-05
-2.18838e-05
-1.46902e-05
4.09923e-05
-1.06564e-05
1.45063e-05
6.54146e-05
-3.05465e-05
-5.98134e-05
4.48438e-05
-2.53577e-06
6.90135e-05
5.54768e-05
-2.42021e-05
-2.89899e-05
8.20081e-05
-9.58662e-06
7.14278e-06
4.70331e-05
-1.48214e-05
0.000106728
5.31005e-05
-5.64515e-05
4.7465e-05
6.9591e-05
-5.24421e-05
9.71069e-05
0.000139295
-0.000108648
-0.000126758
0.000300096
-5.6317e-05
1.42943e-05
-7.66025e-05
0.000186499
5.36646e-06
-2.23845e-07
-6.65388e-07
5.76805e-06
-2.51042e-07
-7.08333e-07
6.19669e-06
-2.72269e-07
-7.48481e-07
6.64805e-06
-2.81911e-07
-7.83324e-07
7.11421e-06
-2.72371e-07
-8.09736e-07
7.58159e-06
-2.34297e-07
-8.24107e-07
8.03634e-06
-1.57986e-07
-8.2262e-07
8.47159e-06
-3.62993e-08
-8.01452e-07
8.86374e-06
1.53496e-07
-7.57407e-07
9.19302e-06
4.27298e-07
-6.82441e-07
9.44358e-06
8.21725e-07
-5.71598e-07
9.61165e-06
1.36606e-06
-3.93715e-07
9.7106e-06
2.16982e-06
-1.44289e-07
9.8173e-06
3.28781e-06
2.66705e-07
1.0169e-05
4.89231e-06
8.17711e-07
1.1172e-05
7.02776e-06
1.68763e-06
1.40728e-05
9.53302e-06
2.3411e-06
1.85927e-05
1.17902e-05
2.94704e-06
2.14517e-05
1.12994e-05
5.26112e-07
2.07874e-05
9.75151e-06
-1.11786e-06
2.32851e-05
9.98479e-06
-2.55365e-06
2.98619e-05
8.38157e-06
-6.36889e-06
3.61473e-05
7.30933e-06
-9.69178e-06
4.14013e-05
1.08206e-06
-1.20058e-05
4.19651e-05
-1.14785e-06
-1.64883e-05
4.09181e-05
-1.0743e-05
-1.54459e-05
4.65554e-05
-1.35494e-05
-1.9904e-06
3.87718e-05
-1.67646e-06
-2.04531e-05
3.0196e-05
-2.85474e-05
7.65128e-06
4.72328e-05
-6.06126e-07
-1.70618e-05
3.21199e-05
-2.16343e-05
-2.22279e-06
4.31331e-05
-2.72638e-05
-2.45211e-06
5.96297e-05
-1.74424e-05
-1.69518e-05
5.95599e-05
-4.01516e-05
-8.4923e-05
8.41724e-05
-5.63874e-05
3.21275e-05
8.54712e-05
-7.63107e-05
-0.000138185
3.07385e-05
2.73879e-05
-5.84958e-05
-7.82734e-06
0.000194374
5.34439e-06
-2.54349e-07
-6.82904e-07
5.75126e-06
-2.89392e-07
-7.3125e-07
6.18996e-06
-3.19172e-07
-7.77339e-07
6.65818e-06
-3.37691e-07
-8.18146e-07
7.15195e-06
-3.37682e-07
-8.49678e-07
7.66633e-06
-3.1123e-07
-8.67235e-07
8.18743e-06
-2.41674e-07
-8.67221e-07
8.6923e-06
-1.15223e-07
-8.44349e-07
9.16418e-06
8.41015e-08
-7.95881e-07
9.60335e-06
3.54296e-07
-7.19643e-07
1.0007e-05
7.37424e-07
-6.31345e-07
1.03971e-05
1.23313e-06
-4.86913e-07
1.07997e-05
1.94463e-06
-3.58842e-07
1.13175e-05
2.84849e-06
-7.83777e-08
1.20463e-05
4.10806e-06
5.88404e-08
1.31999e-05
5.69112e-06
5.88926e-07
1.50746e-05
7.32595e-06
4.92304e-07
1.74263e-05
9.13841e-06
1.10981e-06
1.95592e-05
9.03094e-06
-2.15983e-07
2.08209e-05
9.19509e-06
7.23754e-07
2.28152e-05
8.39053e-06
-2.14124e-06
2.61917e-05
8.54797e-06
-1.02444e-06
2.77397e-05
7.46283e-06
-6.32109e-06
3.04901e-05
3.22339e-06
-4.07362e-06
3.20852e-05
-5.81596e-07
-1.24788e-05
3.23843e-05
-3.34917e-06
-3.55194e-06
3.12675e-05
-6.31664e-06
-1.26007e-05
3.37797e-05
-9.7662e-06
-2.17773e-05
3.49445e-05
-1.07823e-05
9.23155e-07
3.34765e-05
-8.19019e-06
-2.50799e-05
3.44436e-05
-1.22597e-05
-3.09526e-06
2.68581e-05
-1.42669e-05
-3.50771e-05
3.51907e-05
-1.47109e-05
-1.87663e-05
4.14756e-05
-2.76118e-05
-3.47966e-05
6.85589e-05
-3.2876e-05
-7.17575e-05
5.25394e-05
-4.84217e-05
-4.07633e-05
7.32494e-06
7.63476e-05
-7.62681e-05
-3.33291e-05
-3.85801e-05
5.31579e-06
-2.72598e-07
-7.08782e-07
5.72736e-06
-3.15032e-07
-7.6517e-07
6.17582e-06
-3.53725e-07
-8.20517e-07
6.65973e-06
-3.82016e-07
-8.7129e-07
7.17283e-06
-3.90331e-07
-9.12442e-07
7.70253e-06
-3.67412e-07
-9.37511e-07
8.23786e-06
-3.01551e-07
-9.39318e-07
8.77045e-06
-1.83949e-07
-9.13013e-07
9.2999e-06
-6.91349e-09
-8.60797e-07
9.80415e-06
2.50568e-07
-7.79806e-07
1.02948e-05
5.98979e-07
-6.81274e-07
1.08025e-05
1.01486e-06
-5.41483e-07
1.13726e-05
1.60048e-06
-4.12607e-07
1.20844e-05
2.2715e-06
-2.223e-07
1.30112e-05
3.26491e-06
-5.72082e-08
1.42378e-05
4.41248e-06
1.01831e-07
1.58287e-05
5.76606e-06
2.27941e-07
1.78058e-05
7.11228e-06
1.03856e-07
1.9962e-05
7.28399e-06
-4.76794e-07
2.14232e-05
8.43016e-06
-1.11701e-06
2.34999e-05
7.82744e-06
-2.86958e-06
2.63928e-05
7.91891e-06
-2.53712e-06
2.96297e-05
6.9692e-06
-6.95638e-06
3.25205e-05
4.82327e-06
-4.1082e-06
3.38808e-05
1.59488e-06
-9.49828e-06
3.51397e-05
8.32856e-07
-5.69289e-06
3.57085e-05
2.76967e-06
-2.3816e-06
3.70057e-05
-1.07644e-05
-1.62162e-05
3.59408e-05
5.14183e-06
-5.84806e-07
3.85596e-05
-9.42725e-06
-3.36219e-06
3.09734e-05
2.18251e-06
-2.43969e-05
3.43855e-05
-5.86692e-06
7.05118e-07
2.71464e-05
5.58019e-06
-1.69982e-05
3.35322e-05
-7.20202e-06
8.13817e-06
3.16428e-05
-2.05231e-05
3.56668e-06
-3.77844e-05
4.04529e-06
-7.40167e-06
-6.25184e-05
2.99987e-05
1.26452e-06
-0.000100959
-5.89726e-05
5.2809e-06
-2.72487e-07
-7.45053e-07
5.69588e-06
-3.2037e-07
-8.12711e-07
6.15359e-06
-3.67207e-07
-8.81248e-07
6.65627e-06
-4.07637e-07
-9.46214e-07
7.20479e-06
-4.34315e-07
-1.00063e-06
7.7947e-06
-4.35268e-07
-1.03562e-06
8.41336e-06
-3.95828e-07
-1.04129e-06
9.04044e-06
-3.0423e-07
-1.0068e-06
9.64849e-06
-1.46108e-07
-9.34196e-07
1.02404e-05
6.96566e-08
-8.08683e-07
1.0844e-05
3.41064e-07
-6.97421e-07
1.14961e-05
6.46315e-07
-5.26392e-07
1.22662e-05
1.03873e-06
-4.74797e-07
1.32134e-05
1.507e-06
-2.40403e-07
1.43927e-05
2.1611e-06
-3.16625e-07
1.57064e-05
3.25535e-06
-1.39114e-07
1.69694e-05
4.68616e-06
-4.09349e-07
1.85401e-05
5.68023e-06
-7.19604e-07
2.02477e-05
6.31728e-06
-4.49953e-07
2.13115e-05
7.7213e-06
-1.95288e-06
2.32974e-05
7.18485e-06
-1.83327e-06
2.49327e-05
7.54888e-06
-2.87169e-06
2.68016e-05
7.32614e-06
-3.554e-06
2.92267e-05
3.97331e-06
-4.0271e-06
3.00021e-05
3.06794e-06
-8.63499e-06
2.9661e-05
2.29153e-06
-1.18837e-05
2.94094e-05
1.86489e-06
-1.15066e-05
3.23119e-05
-2.8099e-06
-8.57752e-06
3.00206e-05
-3.58356e-06
-1.29358e-05
3.17232e-05
-1.21269e-06
-1.61456e-05
3.19819e-05
-9.60288e-06
-1.62004e-05
2.98246e-05
8.02557e-07
-1.56253e-05
3.50311e-05
-2.82451e-06
-1.95274e-05
2.05413e-05
5.91165e-06
-9.33852e-06
1.50144e-05
1.18343e-05
1.55527e-05
-2.44018e-05
4.0422e-05
0.000106552
-6.28294e-05
2.11743e-05
0.000161663
-8.45923e-05
0.000112065
5.24142e-06
-2.48309e-07
-7.90515e-07
5.65759e-06
-2.97445e-07
-8.73025e-07
6.12106e-06
-3.47794e-07
-9.60094e-07
6.6337e-06
-3.93478e-07
-1.04736e-06
7.19279e-06
-4.26547e-07
-1.12676e-06
7.7902e-06
-4.35891e-07
-1.18573e-06
8.41221e-06
-4.08701e-07
-1.20897e-06
9.04009e-06
-3.35479e-07
-1.18174e-06
9.66149e-06
-2.10306e-07
-1.1008e-06
1.02712e-05
-4.62745e-08
-9.69519e-07
1.0879e-05
1.47337e-07
-8.19369e-07
1.15141e-05
3.35666e-07
-6.19619e-07
1.2303e-05
4.76485e-07
-4.52105e-07
1.32921e-05
6.56483e-07
-2.28665e-07
1.46689e-05
7.96839e-07
-1.16407e-08
1.61485e-05
1.69218e-06
2.04691e-07
1.74412e-05
3.30499e-06
5.33184e-07
1.92476e-05
3.66899e-06
1.2227e-07
2.04498e-05
5.3854e-06
9.37585e-07
2.1719e-05
6.48491e-06
-9.06293e-07
2.28845e-05
6.73376e-06
-9.46697e-07
2.30753e-05
8.42195e-06
4.64099e-07
2.34475e-05
7.45247e-06
-5.57074e-06
2.463e-05
5.29867e-06
3.68274e-06
2.35641e-05
6.50683e-06
6.12443e-06
2.38809e-05
5.18109e-06
6.29733e-07
2.22864e-05
1.8307e-06
-4.72449e-06
2.66095e-05
1.91661e-06
-1.09843e-05
2.47237e-05
-9.82637e-06
-7.46638e-06
2.89266e-05
4.39503e-06
-1.61372e-05
3.115e-05
-1.33431e-05
-9.27664e-06
2.62706e-05
8.41426e-06
-2.8273e-05
3.07188e-05
-6.16284e-06
-2.72573e-05
2.29285e-05
1.3869e-05
-1.84176e-05
1.13384e-05
1.12155e-05
-2.15947e-05
-4.05612e-06
5.99096e-05
7.68527e-05
1.2027e-05
-6.68118e-06
0.000103848
-4.20781e-05
-2.77394e-05
5.20146e-06
-1.98401e-07
-8.38705e-07
5.61716e-06
-2.434e-07
-9.3816e-07
6.08612e-06
-2.92865e-07
-1.04655e-06
6.61621e-06
-3.43935e-07
-1.1581e-06
7.21187e-06
-3.90816e-07
-1.26202e-06
7.86983e-06
-4.23951e-07
-1.34029e-06
8.57501e-06
-4.31393e-07
-1.36924e-06
9.29796e-06
-4.02591e-07
-1.31999e-06
1.00072e-05
-3.36888e-07
-1.18595e-06
1.06697e-05
-2.38711e-07
-9.61364e-07
1.13407e-05
-1.87383e-07
-7.17404e-07
1.20564e-05
-1.69891e-07
-4.22912e-07
1.30356e-05
-4.26219e-07
-2.31975e-07
1.43533e-05
-6.91944e-07
9.97368e-08
1.64919e-05
-1.55581e-06
2.60105e-07
1.75551e-05
6.12811e-07
2.24896e-07
1.85725e-05
2.4375e-06
-9.25403e-07
1.99606e-05
2.4094e-06
2.46845e-07
2.11303e-05
4.43619e-06
-2.01392e-07
2.21022e-05
6.34183e-06
-1.39721e-07
2.34121e-05
6.47129e-06
-2.07328e-06
2.44155e-05
9.0076e-06
-1.98118e-06
2.5811e-05
7.93823e-06
-2.00353e-06
2.62228e-05
6.50558e-06
-6.40571e-06
2.58293e-05
8.25695e-06
-2.99859e-06
2.74181e-05
7.8826e-06
-5.48253e-06
2.73636e-05
5.17255e-06
-2.73004e-06
3.01435e-05
3.91743e-06
-9.76687e-07
2.9384e-05
-1.71244e-06
-6.18606e-07
3.52038e-05
2.47776e-07
3.67496e-06
3.96658e-05
-4.93431e-06
-7.44403e-06
4.42702e-05
8.36161e-06
-4.29609e-06
5.50189e-05
6.70351e-06
-3.94964e-05
6.42971e-05
2.47011e-05
-5.55207e-05
6.56286e-05
3.06108e-05
-6.27376e-05
7.40308e-05
6.14651e-05
-6.03096e-05
6.93368e-05
5.20692e-05
-5.35214e-05
1.39063e-05
-6.26096e-05
5.16613e-06
-1.29615e-07
-8.71575e-07
5.57825e-06
-1.63309e-07
-9.87416e-07
6.04465e-06
-2.013e-07
-1.11908e-06
6.57247e-06
-2.41584e-07
-1.26314e-06
7.16569e-06
-2.80127e-07
-1.40968e-06
7.82074e-06
-3.10274e-07
-1.53807e-06
8.52015e-06
-3.22908e-07
-1.61562e-06
9.22816e-06
-3.097e-07
-1.6017e-06
9.89564e-06
-2.71746e-07
-1.46738e-06