/*--------------------------------*- C++ -*----------------------------------*\
| =========                 |                                                 |
| \\      /  F ield         | OpenFOAM: The Open Source CFD Toolbox           |
|  \\    /   O peration     | Version:  2.3.1                                 |
|   \\  /    A nd           | Web:      www.OpenFOAM.org                      |
|    \\/     M anipulation  |                                                 |
\*---------------------------------------------------------------------------*/
FoamFile
{
    version     2.0;
    format      ascii;
    class       surfaceScalarField;
    location    "5";
    object      phi_0;
}
// * * * * * * * * * * * * * * * * * * * * * * * * * * * * * * * * * * * * * //

dimensions      [0 3 -1 0 0 0 0];

internalField   nonuniform List<scalar> 
110130
(
5.20263e-06
-9.16226e-08
-2.6573e-07
5.5822e-06
-9.94773e-08
-2.80093e-07
5.98008e-06
-1.05072e-07
-2.92802e-07
6.38984e-06
-1.068e-07
-3.0296e-07
6.80189e-06
-1.02646e-07
-3.09408e-07
7.2025e-06
-9.01695e-08
-3.10445e-07
7.57257e-06
-6.56847e-08
-3.04384e-07
7.88403e-06
-2.32825e-08
-2.88179e-07
8.09637e-06
4.53733e-08
-2.57707e-07
8.1439e-06
1.5307e-07
-2.00601e-07
7.90737e-06
3.34913e-07
-9.83853e-08
7.14953e-06
6.56614e-07
1.01225e-07
5.3613e-06
1.28654e-06
5.01694e-07
1.34716e-06
2.61328e-06
1.40086e-06
-7.56659e-06
5.65082e-06
3.26293e-06
-2.83167e-05
1.31431e-05
7.60705e-06
-7.19584e-05
2.86409e-05
1.50008e-05
-0.000124516
3.1343e-05
2.12148e-05
-0.000141351
-3.60254e-07
1.71954e-05
-0.000122813
-1.40845e-05
-4.45356e-06
-9.80751e-05
5.51138e-06
-3.02496e-05
-8.82466e-05
1.83775e-05
-2.8206e-05
-0.000110916
5.83437e-06
1.68346e-05
-0.00012945
-9.79982e-06
2.83341e-05
-0.000125009
-2.08238e-05
1.63828e-05
-0.000135831
-2.05811e-05
3.14036e-05
-0.000146778
-2.70583e-05
3.80053e-05
-0.00018084
-3.47416e-06
3.75358e-05
-0.000238301
-2.83053e-05
8.57662e-05
-0.00028736
-5.08515e-06
5.4144e-05
-0.000300912
-5.25705e-05
6.61227e-05
-0.000296766
-4.51586e-05
4.10124e-05
-0.000296617
-5.99426e-05
5.9794e-05
-0.000325513
-7.2754e-05
0.00010165
-0.00032674
-9.17288e-05
9.29566e-05
-0.000295031
-0.000144178
0.000112469
-0.000271786
-9.16294e-05
6.83845e-05
-0.000128907
-9.74077e-06
5.25263e-06
-1.48606e-07
-3.03428e-07
5.63636e-06
-1.62372e-07
-3.20836e-07
6.03984e-06
-1.71869e-07
-3.36679e-07
6.45694e-06
-1.73913e-07
-3.49983e-07
6.87808e-06
-1.64218e-07
-3.59566e-07
7.28926e-06
-1.37417e-07
-3.63939e-07
7.67227e-06
-8.76653e-08
-3.61029e-07
8.00739e-06
-9.7871e-09
-3.48611e-07
8.25805e-06
1.15322e-07
-3.20615e-07
8.37619e-06
3.06086e-07
-2.71148e-07
8.29154e-06
6.05196e-07
-1.85637e-07
7.89577e-06
1.08156e-06
-2.91739e-08
7.04105e-06
1.89277e-06
2.48482e-07
5.5741e-06
3.29395e-06
7.86274e-07
3.60564e-06
5.89309e-06
1.72619e-06
2.73262e-06
1.07875e-05
3.22866e-06
5.90303e-06
1.98396e-05
5.63089e-06
5.69328e-06
2.70066e-05
4.5462e-06
-9.6429e-06
2.02529e-05
-5.27693e-06
-2.83357e-05
1.73784e-05
-1.27701e-05
-3.29452e-05
2.25525e-05
-1.24316e-05
-1.47e-05
2.82447e-05
-2.81124e-05
6.97295e-06
1.20834e-05
-2.7922e-05
2.14087e-05
3.10693e-06
-2.73425e-05
3.84091e-05
-1.60799e-05
-2.17444e-05
4.79532e-05
-2.47067e-05
-5.4185e-06
5.7443e-05
-2.3391e-05
-1.31571e-05
5.63237e-05
-2.47618e-06
1.21275e-07
9.47039e-05
-5.10107e-05
-1.56748e-05
7.03822e-05
3.42638e-05
-1.50272e-05
0.000129796
-6.33737e-05
-4.86109e-05
0.000159055
2.04805e-05
-9.48977e-05
0.000177626
3.52501e-05
-0.000113764
0.000251726
-8.03438e-06
-0.000138819
0.000253752
3.04223e-05
-0.000124178
0.000347401
-3.46886e-05
-0.000203138
0.000313081
0.000220379
-0.000277689
0.000539661
-0.000583668
5.24401e-06
-1.87006e-07
-3.23721e-07
5.63136e-06
-2.06417e-07
-3.43313e-07
6.04111e-06
-2.20227e-07
-3.61387e-07
6.4681e-06
-2.24084e-07
-3.76822e-07
6.90472e-06
-2.12581e-07
-3.88262e-07
7.34191e-06
-1.80459e-07
-3.9414e-07
7.76392e-06
-1.16808e-07
-3.92867e-07
8.14225e-06
-5.686e-09
-3.82437e-07
8.45706e-06
1.61659e-07
-3.61144e-07
8.67726e-06
4.06297e-07
-3.20417e-07
8.76403e-06
7.75716e-07
-2.57287e-07
8.66421e-06
1.31976e-06
-1.38376e-07
8.34037e-06
2.18433e-06
3.22779e-08
7.71692e-06
3.51536e-06
4.02042e-07
7.00622e-06
5.67767e-06
9.26125e-07
6.84754e-06
8.98469e-06
1.96148e-06
9.56849e-06
1.38418e-05
3.27682e-06
1.37643e-05
1.84475e-05
4.36322e-06
1.28609e-05
1.39412e-05
7.21507e-06
1.10347e-05
1.16301e-05
7.57451e-06
6.61893e-06
9.12785e-06
1.78405e-05
1.04799e-05
2.27092e-05
1.67456e-06
1.72131e-05
4.4187e-06
9.31456e-07
2.16395e-05
9.00905e-06
-1.03284e-05
2.70626e-05
-9.39428e-06
-1.21088e-05
2.01918e-05
-7.83558e-06
-1.00003e-05
2.76187e-05
-2.11255e-05
-9.69225e-06
9.12505e-06
-2.7808e-05
4.38255e-05
2.89377e-05
-5.30504e-06
-6.55183e-05
3.0359e-05
-2.10157e-05
5.38582e-05
2.33544e-05
-2.14308e-05
-3.49382e-05
7.1558e-05
-2.83138e-05
5.90721e-07
3.27148e-05
-7.52662e-06
8.162e-05
-5.54505e-06
-2.58936e-05
5.6119e-05
-1.74598e-06
-4.60731e-05
7.26963e-05
0.00010586
-8.51869e-05
-5.71076e-05
0.000245746
-2.92112e-05
0.000109704
0.000407362
0.000111874
5.22885e-06
-2.20089e-07
-3.31206e-07
5.62108e-06
-2.46045e-07
-3.52604e-07
6.03937e-06
-2.6588e-07
-3.7263e-07
6.47936e-06
-2.74057e-07
-3.90022e-07
6.93304e-06
-2.63096e-07
-4.03162e-07
7.38662e-06
-2.23887e-07
-4.10159e-07
7.82576e-06
-1.46985e-07
-4.08954e-07
8.2432e-06
-2.59027e-08
-3.97223e-07
8.61541e-06
1.64381e-07
-3.74933e-07
8.92114e-06
4.36253e-07
-3.35692e-07
9.14372e-06
8.31596e-07
-2.78455e-07
9.27608e-06
1.37221e-06
-1.84822e-07
9.33004e-06
2.18552e-06
-5.51514e-08
9.37364e-06
3.30954e-06
1.62217e-07
9.65568e-06
4.93996e-06
4.55665e-07
1.05841e-05
7.14049e-06
9.15736e-07
1.34837e-05
9.71464e-06
1.2276e-06
1.82147e-05
1.21207e-05
1.59583e-06
2.04373e-05
1.15324e-05
1.861e-07
2.05024e-05
1.15036e-05
6.13655e-08
2.04758e-05
9.08753e-06
6.69909e-08
2.82526e-05
1.60925e-05
-1.16018e-06
3.33536e-05
3.3743e-06
-4.05657e-06
3.67909e-05
8.43161e-06
-2.8599e-06
4.38706e-05
-9.2594e-06
-7.21453e-06
3.96914e-05
1.06627e-05
-1.43191e-05
3.2129e-05
-2.54039e-05
1.18407e-05
4.94555e-05
-2.5781e-05
-1.93535e-05
2.91908e-05
1.37493e-05
1.2103e-06
4.20044e-05
-3.58907e-05
2.06149e-06
2.76288e-05
7.36888e-06
-1.44241e-05
3.33211e-05
-2.51957e-05
-8.81041e-06
7.59413e-05
-4.64278e-05
-3.71913e-06
7.454e-05
4.38437e-05
-6.83359e-05
1.85751e-05
-4.26966e-05
5.25884e-05
5.26326e-05
-9.78603e-06
-0.000109458
9.48429e-05
-5.21536e-05
-1.92678e-05
6.53118e-05
0.000289918
5.20787e-06
-2.47552e-07
-3.3886e-07
5.60543e-06
-2.80754e-07
-3.62853e-07
6.03369e-06
-3.08418e-07
-3.85723e-07
6.49025e-06
-3.24643e-07
-4.05972e-07
6.97105e-06
-3.22301e-07
-4.21597e-07
7.47149e-06
-2.94029e-07
-4.30298e-07
7.97791e-06
-2.22911e-07
-4.30496e-07
8.4671e-06
-9.58307e-08
-4.19257e-07
8.92376e-06
1.02235e-07
-3.94516e-07
9.34555e-06
3.69535e-07
-3.55068e-07
9.73576e-06
7.55409e-07
-3.14024e-07
1.00997e-05
1.24075e-06
-2.32521e-07
1.04973e-05
1.97292e-06
-1.84991e-07
1.09558e-05
2.85566e-06
-4.54519e-09
1.17281e-05
4.16901e-06
-1.39967e-09
1.27234e-05
5.74507e-06
4.00095e-07
1.47827e-05
7.49703e-06
1.58354e-07
1.68947e-05
9.19604e-06
8.12645e-07
1.91415e-05
9.62645e-06
-3.4084e-07
2.04493e-05
8.76639e-06
1.42944e-06
2.19582e-05
9.31263e-06
-1.73398e-06
2.59182e-05
9.60934e-06
2.52315e-06
2.71699e-05
6.72421e-06
-4.60158e-06
2.85173e-05
6.27639e-06
8.07754e-07
3.24226e-05
-2.90693e-06
-1.02577e-05
3.42281e-05
4.73265e-06
4.12453e-06
2.29875e-05
-7.48744e-06
-6.67589e-06
3.04385e-05
-6.04115e-06
-2.71909e-05
4.33824e-05
-1.91278e-05
1.99332e-05
2.65087e-05
1.52986e-05
-3.43157e-05
5.49234e-05
-2.84465e-05
7.40073e-06
4.86815e-05
1.10455e-05
-2.99992e-05
2.57339e-05
-1.61661e-05
-7.31409e-06
6.42225e-05
2.1622e-05
-1.6267e-05
8.84436e-05
-4.6561e-05
-2.03566e-05
9.11393e-05
1.76232e-05
-3.01049e-05
-4.58355e-06
0.000117993
-7.44235e-05
6.02882e-05
-6.83176e-05
5.18072e-06
-2.63776e-07
-3.5138e-07
5.58316e-06
-3.03859e-07
-3.79332e-07
6.02127e-06
-3.3977e-07
-4.06767e-07
6.49351e-06
-3.64938e-07
-4.3194e-07
6.99357e-06
-3.7002e-07
-4.52346e-07
7.50826e-06
-3.44202e-07
-4.64508e-07
8.0262e-06
-2.76287e-07
-4.6457e-07
8.53887e-06
-1.5846e-07
-4.50042e-07
9.04636e-06
1.76316e-08
-4.22889e-07
9.52389e-06
2.72659e-07
-3.80645e-07
9.9852e-06
6.24878e-07
-3.30782e-07
1.04564e-05
1.02358e-06
-2.54054e-07
1.09795e-05
1.63881e-06
-1.89013e-07
1.16599e-05
2.26531e-06
-8.99716e-08
1.24797e-05
3.32557e-06
2.36219e-08
1.37554e-05
4.42142e-06
4.79268e-08
1.51568e-05
5.836e-06
2.59602e-07
1.72092e-05
7.08602e-06
5.76322e-08
1.95238e-05
7.36594e-06
-5.40914e-08
2.05665e-05
8.13971e-06
-4.16031e-07
2.27295e-05
8.48701e-06
-1.3374e-06
2.56431e-05
6.97986e-06
-2.84122e-07
2.91859e-05
7.3665e-06
-4.18508e-06
2.96066e-05
5.48247e-06
3.73266e-07
3.19697e-05
6.95283e-07
-5.96536e-06
3.5668e-05
1.22891e-06
-1.94497e-07
2.71061e-05
-6.098e-06
7.17244e-06
3.12919e-05
5.74907e-06
-1.59761e-05
2.41708e-05
-2.64891e-05
1.44824e-05
2.60762e-05
1.54972e-05
-2.10403e-06
2.94185e-05
-1.44003e-05
-1.73885e-05
3.3554e-05
-5.69437e-06
1.26044e-05
2.54401e-05
-4.06418e-06
-3.98798e-06
7.72051e-06
4.80892e-06
3.45326e-05
-3.78149e-05
-1.47938e-05
1.37683e-05
-8.20649e-05
8.12879e-05
-1.94147e-05
-9.85377e-05
0.000202428
-6.79622e-05
7.73775e-05
-0.000113946
5.14768e-06
-2.61846e-07
-3.69547e-07
5.55376e-06
-3.06814e-07
-4.0313e-07
6.00122e-06
-3.50088e-07
-4.37134e-07
6.49195e-06
-3.86305e-07
-4.69363e-07
7.02678e-06
-4.08437e-07
-4.96421e-07
7.60159e-06
-4.04944e-07
-5.14059e-07
8.20447e-06
-3.61575e-07
-5.17598e-07
8.81508e-06
-2.68113e-07
-5.00955e-07
9.40808e-06
-1.08256e-07
-4.67116e-07
9.98181e-06
9.80789e-08
-3.99147e-07
1.05845e-05
3.75539e-07
-3.53323e-07
1.11959e-05
6.56751e-07
-2.44616e-07
1.20216e-05
1.08123e-06
-2.68144e-07
1.28448e-05
1.50187e-06
-5.96885e-08
1.42119e-05
2.20135e-06
-2.42921e-07
1.53323e-05
3.28426e-06
1.67725e-08
1.66219e-05
4.77377e-06
-2.27408e-07
1.85042e-05
5.78008e-06
-5.76345e-07
1.96008e-05
5.97321e-06
2.96107e-07
2.10301e-05
8.30657e-06
-1.59611e-06
2.36857e-05
6.31205e-06
-4.80614e-07
2.42345e-05
8.03131e-06
-1.60027e-06
2.66239e-05
6.30211e-06
-1.32496e-06
3.01766e-05
4.39265e-06
-2.46289e-06
3.25782e-05
4.7045e-06
-6.41087e-06
3.66548e-05
7.98014e-06
-1.08278e-05
4.35647e-05
-4.29645e-07
-1.25783e-05
3.93828e-05
7.71957e-06
2.21137e-06
4.13826e-05
-4.46616e-06
-2.40227e-05
4.78518e-05
1.52169e-05
-6.18887e-06
5.40297e-05
7.25772e-06
-2.7836e-05
4.40176e-05
1.53413e-05
-1.10235e-05
4.98886e-05
1.30676e-05
-2.30028e-05
4.04694e-05
2.48718e-05
-1.06437e-05
-4.0909e-05
2.65395e-05
4.00451e-05
-0.000130508
6.59774e-05
0.000104909
-0.000159918
0.000110206
0.000121632
-0.000256254
0.000176055
5.11031e-06
-2.35023e-07
-3.92876e-07
5.518e-06
-2.80544e-07
-4.33954e-07
5.97161e-06
-3.26424e-07
-4.77277e-07
6.47251e-06
-3.6649e-07
-5.20711e-07
7.01733e-06
-3.93071e-07
-5.60192e-07
7.59759e-06
-3.95778e-07
-5.89428e-07
8.19897e-06
-3.62364e-07
-6.00584e-07
8.80228e-06
-2.85258e-07
-5.86169e-07
9.39702e-06
-1.57977e-07
-5.45017e-07
9.9741e-06
-1.33499e-09
-4.7767e-07
1.05508e-05
2.05724e-07
-4.06838e-07
1.11288e-05
3.75399e-07
-2.9674e-07
1.18894e-05
5.47543e-07
-2.26855e-07
1.27938e-05
6.8864e-07
-9.1161e-08
1.41045e-05
8.90899e-07
-2.38643e-10
1.5602e-05
1.66504e-06
1.21665e-07
1.65704e-05
3.3618e-06
4.43559e-07
1.91429e-05
3.28522e-06
-7.75833e-08
1.88983e-05
5.0095e-06
1.20826e-06
2.16679e-05
6.40824e-06
-8.71282e-07
2.23128e-05
5.8814e-06
-2.14172e-07
2.03719e-05
8.45442e-06
1.51777e-06
2.38831e-05
7.8437e-06
-5.05281e-06
1.74463e-05
4.59101e-06
6.23841e-06
4.46287e-06
9.19873e-06
8.48923e-06
-2.93536e-06
1.15746e-05
3.80372e-06
-5.80704e-06
8.79106e-06
-6.34901e-06
-6.72258e-06
1.05573e-05
-1.92214e-06
-6.40031e-06
1.0851e-05
-1.56394e-05
-6.08613e-06
2.11676e-05
-6.26481e-06
-1.1554e-05
2.36173e-05
-1.08917e-05
-2.12814e-05
5.05676e-05
-2.54989e-05
-1.99185e-05
3.77551e-05
-2.60503e-05
-2.1794e-05
4.53408e-05
-1.85936e-05
-1.61445e-05
5.5528e-05
-3.4638e-05
-2.6173e-05
-2.26737e-06
7.82732e-05
-2.31418e-05
1.33251e-05
9.38494e-05
-0.000365589
4.61738e-05
5.0722e-06
-1.79587e-07
-4.186e-07
5.47981e-06
-2.19765e-07
-4.68386e-07
5.93904e-06
-2.62977e-07
-5.22682e-07
6.45724e-06
-3.06113e-07
-5.78576e-07
7.0384e-06
-3.43332e-07
-6.30901e-07
7.67887e-06
-3.65357e-07
-6.70885e-07
8.36512e-06
-3.61067e-07
-6.87554e-07
9.06682e-06
-3.21659e-07
-6.65295e-07
9.7619e-06
-2.48395e-07
-6.04666e-07
1.03984e-05
-1.45333e-07
-4.92475e-07
1.10867e-05
-1.00121e-07
-3.82493e-07
1.17345e-05
-5.8035e-08
-2.14316e-07
1.28378e-05
-3.99102e-07
-1.56739e-07
1.39782e-05
-5.19147e-07
6.73962e-08
1.64098e-05
-1.58582e-06
4.5149e-08
1.72114e-05
6.55501e-07
2.07933e-07
1.84789e-05
2.87189e-06
-7.77612e-07
1.95263e-05
1.86002e-06
3.77787e-07
2.07433e-05
3.77214e-06
2.03948e-08
2.16619e-05
4.79784e-06
6.91816e-07
2.31624e-05
5.40295e-06
-1.02203e-06
2.41402e-05
7.86057e-06
-3.84e-07
2.53063e-05
6.80359e-06
-1.25939e-07
2.71371e-05
7.54272e-06
-4.7825e-06
2.80687e-05
9.8978e-06
-1.63068e-06
2.87482e-05
1.20944e-05
-1.19924e-06
2.90228e-05
7.95389e-06
5.6252e-07
2.74627e-05
8.29392e-06
3.82352e-06
2.64009e-05
5.15169e-06
6.76111e-06
2.76898e-05
1.44868e-05
5.39183e-06
2.76941e-05
1.81769e-05
5.43614e-06
3.59658e-05
4.20161e-05
2.79771e-07
5.09018e-05
3.87739e-05
-1.59548e-05
7.86003e-05
5.30413e-05
-3.5399e-05
0.000102301
7.3378e-05
-4.15509e-05
0.000100501
4.96e-05
-5.0067e-05
5.95504e-05
5.1866e-05
2.40958e-06
-0.000311477
-3.89827e-05
5.03762e-06
-1.01655e-07
-4.37011e-07
5.44212e-06
-1.29129e-07
-4.95133e-07
5.89938e-06
-1.59159e-07
-5.61078e-07
6.41565e-06
-1.89372e-07
-6.33016e-07
6.99361e-06
-2.15294e-07
-7.05997e-07
7.62846e-06
-2.30342e-07
-7.69862e-07
8.30228e-06
-2.26218e-07
-8.08671e-07
8.97965e-06
-1.96763e-07
-8.02266e-07
9.61418e-06
-1.46227e-07
-7.367e-07
1.01646e-05
-8.38115e-08
-6.11904e-07
1.06125e-05
-9.28871e-08
-4.55203e-07
1.10461e-05
-2.2499e-07
-2.66572e-07
1.14658e-05
-7.1855e-07
-1.00241e-07
1.26817e-05
-1.70855e-06
-2.65225e-08
1.51699e-05
-4.6144e-06
5.40371e-07
1.59709e-05
-1.35859e-06
1.21304e-06
1.82432e-05
-1.21461e-06
1.81426e-06
1.92485e-05
-2.67152e-06
3.52624e-06
2.09124e-05
-1.71282e-06
3.82105e-06
2.15027e-05
3.64227e-07
3.84325e-06
2.0618e-05
7.69533e-07
5.5182e-06
2.13891e-05
6.34174e-06
7.47718e-07
1.94775e-05
6.25414e-06
2.46103e-06
7.34639e-06
8.65995e-06
1.10139e-05
-5.2725e-06
1.62375e-05
6.27917e-06
-8.8881e-06
1.75292e-05
-1.8192e-06
-1.08121e-05
1.51704e-05
-5.29248e-06
-1.26359e-05
1.38658e-05
-3.74813e-06
-1.48863e-05
1.08477e-05
-3.44552e-06
-1.46583e-05
1.43462e-05
-8.74502e-08
-1.56187e-05
2.7371e-05
-8.23368e-06
-2.01812e-05
4.88755e-05
-2.29687e-06
-3.10244e-05
6.48866e-05
-1.52695e-05
-4.42411e-05
9.46926e-05
-2.84345e-05
-2.91814e-05
0.00010989
-5.15712e-05
-2.82171e-05
0.000118515
-6.98796e-05
3.57691e-05
5.9643e-05
-7.17632e-05
-0.000278299
-7.68582e-05
5.01224e-06
-3.09318e-08
-4.26858e-07
5.41549e-06
-4.42083e-08
-4.88175e-07
5.87598e-06
-6.03185e-08
-5.5933e-07
6.40424e-06
-7.98397e-08
-6.37795e-07
7.00717e-06
-1.00343e-07
-7.17872e-07
7.68266e-06
-1.19473e-07
-7.8636e-07
8.4126e-06
-1.33401e-07
-8.22757e-07
9.15154e-06
-1.36794e-07
-7.98909e-07
9.83738e-06
-1.36547e-07
-6.95527e-07
1.04251e-05
-1.4526e-07
-5.26279e-07
1.0818e-05
-2.24087e-07
-2.61716e-07
1.15015e-05
-6.34898e-07
-2.7361e-07
1.13253e-05
-1.27912e-06
7.36809e-07
1.51494e-05
-4.34975e-06
-1.18291e-06
1.73412e-05
-9.63892e-06
2.83274e-06
1.52353e-05
1.09432e-06
-3.47038e-07
1.52717e-05
4.34382e-06
-5.59482e-06
1.40407e-05
-2.3727e-06
9.32247e-07
1.15193e-05
-1.23438e-06
2.04291e-06
9.44901e-06
1.91629e-06
5.18222e-07
1.09904e-05
-6.12489e-07
-1.5938e-07
1.5592e-05
8.3252e-07
9.07602e-07
2.09118e-05
6.07771e-06
-5.14334e-06
2.06178e-05
7.78107e-06
1.17286e-06
1.75183e-05
1.18071e-05
7.52994e-06
1.34578e-05
1.48692e-05
6.72044e-06
1.06967e-05
1.40972e-05
3.83437e-06
1.0065e-05
1.29973e-05
1.50017e-06
8.70256e-06
9.64244e-06
2.56769e-06
8.50943e-06
6.62998e-06
7.90933e-06
8.33703e-06
1.44497e-05
1.30937e-05
1.46309e-05
2.60514e-05
1.65302e-05
2.0381e-05
3.28516e-05
2.6285e-05
6.42358e-05
5.30348e-05
-2.19708e-06
5.41182e-05
8.62848e-05
3.37224e-05
0.000103707
0.000102794
-3.38677e-05
0.000193433
9.46102e-05
-0.000124693
5.99247e-05
-0.000251846
4.94803e-06
-3.82935e-07
5.34631e-06
-4.42494e-07
5.80034e-06
-5.14342e-07
6.31945e-06
-5.98954e-07
6.91125e-06
-6.92145e-07
7.57482e-06
-7.83037e-07
8.28992e-06
-8.48504e-07
9.00496e-06
-8.51828e-07
9.62312e-06
-7.54716e-07
1.00257e-05
-5.47802e-07
1.00575e-05
-2.55946e-07
9.31794e-06
1.0469e-07
8.13621e-06
-9.73991e-08
3.5061e-06
2.80369e-07
-9.28919e-06
3.15636e-06
-1.12324e-05
3.03755e-06
-1.00333e-05
3.14473e-06
-1.58212e-05
3.41521e-06
-1.1519e-05
-5.53661e-06
-9.43014e-06
-1.72585e-07
-1.63657e-05
6.32309e-06
-1.71295e-05
1.59626e-06
-1.26668e-05
1.61507e-06
-1.31609e-05
8.27519e-06
-1.50136e-05
1.36598e-05
-1.59186e-05
1.57741e-05
-1.92703e-05
1.74489e-05
-2.4787e-05
1.8514e-05
-3.33834e-05
1.82389e-05
-4.70309e-05
2.02775e-05
-6.31639e-05
3.05827e-05
-8.1906e-05
4.47935e-05
-0.000105777
5.67227e-05
-0.000124649
7.19061e-05
-0.000125184
8.68207e-05
-9.12964e-05
6.89059e-05
-9.25395e-05
9.58532e-05
3.51706e-05
5.32574e-06
-7.71926e-08
-5.52672e-07
5.71277e-06
-8.41479e-08
-5.82978e-07
6.11885e-06
-8.88729e-08
-6.10009e-07
6.53763e-06
-8.97503e-08
-6.31989e-07
6.95965e-06
-8.47509e-08
-6.46672e-07
7.37182e-06
-7.15899e-08
-6.51034e-07
7.75586e-06
-4.68494e-08
-6.41571e-07
8.0836e-06
-3.13979e-09
-6.12779e-07
8.3161e-06
6.51696e-08
-5.55374e-07
8.39025e-06
1.73139e-07
-4.47887e-07
8.19338e-06
3.52694e-07
-2.54217e-07
7.50472e-06
6.67263e-07
1.22623e-07
5.85462e-06
1.27317e-06
8.78627e-07
2.10486e-06
2.53872e-06
2.61191e-06
-6.60487e-06
5.41343e-06
6.55922e-06
-2.9281e-05
1.26279e-05
1.76553e-05
-8.1805e-05
2.79974e-05
3.95275e-05
-0.000143113
3.13299e-05
5.11928e-05
-0.000157749
4.4513e-06
2.73798e-05
-0.000131495
-9.15634e-06
-2.15506e-05
-0.000104035
7.81147e-06
-6.5521e-05
-8.49752e-05
1.99375e-05
-6.72037e-05
-9.32648e-05
3.25185e-06
2.18724e-05
-0.000117907
-1.23228e-05
6.5299e-05
-0.00012191
-1.98227e-05
4.02087e-05
-0.000128722
-2.20076e-05
6.02233e-05
-0.000137892
-2.5798e-05
7.29733e-05
-0.000160418
-1.89251e-05
7.89867e-05
-0.000203516
7.76774e-06
0.000121097
-0.000244233
-1.30138e-05
0.000107875
-0.000270319
-1.81787e-05
0.000110387
-0.000262557
-1.65322e-05
4.97829e-05
-0.00025214
-4.96026e-05
9.89797e-05
-0.000244854
-8.07325e-05
0.000175096
-0.000218031
-0.000115407
0.00018154
-0.000179593
-0.000160222
0.000234254
-9.9075e-05
-0.000184963
0.000172829
-0.00034625
4.16495e-05
5.39262e-06
-1.38689e-07
-6.11131e-07
5.78611e-06
-1.52197e-07
-6.46273e-07
6.20038e-06
-1.61513e-07
-6.78306e-07
6.62943e-06
-1.63433e-07
-7.0535e-07
7.06386e-06
-1.53574e-07
-7.25182e-07
7.48993e-06
-1.26565e-07
-7.35027e-07
7.88961e-06
-7.67015e-08
-7.3086e-07
8.24422e-06
2.642e-10
-7.06627e-07
8.51727e-06
1.26991e-07
-6.55481e-07
8.66355e-06
3.17179e-07
-5.61474e-07
8.61601e-06
6.13217e-07
-3.98617e-07
8.27354e-06
1.0822e-06
-1.01637e-07
7.50087e-06
1.87367e-06
4.20652e-07
6.15218e-06
3.22781e-06
1.44588e-06
4.30066e-06
5.71911e-06
3.27204e-06
3.11506e-06
1.03914e-05
6.65074e-06
4.71406e-06
1.93217e-05
1.27076e-05
-4.04501e-07
2.6635e-05
1.43597e-05
-1.79972e-05
1.97998e-05
-3.03271e-06
-3.46209e-05
9.08699e-06
-1.43897e-05
-3.19577e-05
9.0551e-06
-1.63385e-05
-1.02343e-05
1.0845e-05
-4.07433e-05
1.21629e-05
4.94495e-06
-5.20124e-05
2.33993e-05
-8.32048e-06
-4.25812e-05
3.09051e-05
-2.16696e-05
-2.74033e-05
3.65864e-05
-1.91682e-05
-1.39392e-05
4.98611e-05
-3.59724e-05
-1.62573e-05
5.09327e-05
-2.20776e-05
2.20212e-06
6.17534e-05
-8.81472e-07
-1.78463e-05
9.00291e-05
-7.67521e-06
-4.86415e-05
8.16387e-05
-7.25926e-06
-5.114e-05
9.86476e-05
2.49795e-05
-0.000153418
0.00012061
-2.46406e-05
-0.000160688
0.000140951
-5.55803e-05
-0.000184312
0.000154918
-1.42371e-05
-0.000239315
0.000133994
-0.000112577
-0.00022986
3.74386e-05
1.20725e-05
-0.000378168
-4.85078e-05
-0.000722698
5.3826e-06
-1.85759e-07
-6.47468e-07
5.77965e-06
-2.05833e-07
-6.86724e-07
6.20015e-06
-2.20444e-07
-7.2295e-07
6.63906e-06
-2.25226e-07
-7.53948e-07
7.08896e-06
-2.14713e-07
-7.7702e-07
7.54085e-06
-1.83508e-07
-7.89086e-07
7.97893e-06
-1.20563e-07
-7.87081e-07
8.37496e-06
-1.05879e-08
-7.67618e-07
8.70985e-06
1.56161e-07
-7.25203e-07
8.95367e-06
3.99667e-07
-6.46732e-07
9.06781e-06
7.64238e-07
-5.2244e-07
9.00778e-06
1.30271e-06
-2.98861e-07
8.72924e-06
2.14492e-06
3.95714e-08
8.1979e-06
3.44505e-06
7.16143e-07
7.56516e-06
5.52414e-06
1.75383e-06
7.48862e-06
8.68703e-06
3.74238e-06
1.02639e-05
1.33972e-05
6.42606e-06
1.43439e-05
1.7666e-05
9.25212e-06
1.51107e-05
1.48169e-05
1.14312e-05
1.24107e-05
8.04368e-06
1.13178e-05
1.18565e-05
9.75889e-06
1.76909e-05
1.47076e-05
9.75482e-06
-8.63159e-08
2.0057e-05
8.16397e-06
-7.6369e-06
2.79117e-05
-2.66289e-06
-2.38408e-05
2.89384e-05
-9.87309e-06
-2.4932e-05
3.14683e-05
-1.27993e-05
-1.88991e-05
2.25053e-05
-2.19332e-05
-1.47685e-05
4.10692e-05
-1.09366e-05
1.41206e-05
6.49479e-05
-3.07096e-05
-5.95688e-05
4.4269e-05
-2.40959e-06
6.92714e-05
5.57987e-05
-2.40884e-05
-2.96387e-05
8.204e-05
-8.8448e-06
8.17369e-06
4.70326e-05
-1.47217e-05
0.000106708
5.51713e-05
-5.50022e-05
4.74023e-05
7.22523e-05
-5.16361e-05
9.30143e-05
0.000144922
-0.000109528
-0.000132825
0.000301224
-5.50033e-05
2.04772e-05
-7.9221e-05
0.000191985
5.36612e-06
-2.24265e-07
-6.6557e-07
5.76797e-06
-2.51674e-07
-7.08608e-07
6.19697e-06
-2.73198e-07
-7.48881e-07
6.64887e-06
-2.8325e-07
-7.83893e-07
7.11579e-06
-2.74268e-07
-8.10528e-07
7.58424e-06
-2.36934e-07
-8.2519e-07
8.04039e-06
-1.61577e-07
-8.24086e-07
8.47689e-06
-4.10449e-08
-8.03263e-07
8.87137e-06
1.46743e-07
-7.60002e-07
9.20328e-06
4.18104e-07
-6.86031e-07
9.45676e-06
8.08912e-07
-5.76612e-07
9.62761e-06
1.34795e-06
-4.00913e-07
9.72793e-06
2.14406e-06
-1.54614e-07
9.83178e-06
3.25177e-06
2.51645e-07
1.01695e-05
4.8443e-06
7.97803e-07
1.11397e-05
6.96809e-06
1.66448e-06
1.39681e-05
9.47158e-06
2.3247e-06
1.84729e-05
1.17848e-05
2.97222e-06
2.14841e-05
1.1393e-05
5.9881e-07
2.08365e-05
9.82219e-06
-1.06959e-06
2.32532e-05
9.99231e-06
-2.5831e-06
2.97381e-05
8.41967e-06
-6.30988e-06
3.60886e-05
7.3973e-06
-9.64039e-06
4.14246e-05
1.18786e-06
-1.20467e-05
4.19971e-05
-1.09591e-06
-1.65642e-05
4.10617e-05
-1.0698e-05
-1.5485e-05
4.66155e-05
-1.34737e-05
-2.17256e-06
3.86494e-05
-1.89344e-06
-2.04305e-05
3.0196e-05
-2.85674e-05
7.52145e-06
4.71326e-05
-3.36873e-07
-1.69479e-05
3.19239e-05
-2.16633e-05
-1.64052e-06
4.3151e-05
-2.68946e-05
-1.98779e-06
5.93729e-05
-1.70309e-05
-1.76318e-05
5.98241e-05
-3.98371e-05
-8.39522e-05
8.40798e-05
-5.64693e-05
3.31659e-05
8.4796e-05
-7.56781e-05
-0.000144025
3.04684e-05
3.18476e-05
-5.17912e-05
-5.6417e-06
0.000190682
5.34387e-06
-2.54813e-07
-6.83053e-07
5.75092e-06
-2.9009e-07
-7.31487e-07
6.1899e-06
-3.20201e-07
-7.77698e-07
6.65852e-06
-3.39173e-07
-8.18672e-07
7.15284e-06
-3.39758e-07
-8.50425e-07
7.66798e-06
-3.14106e-07
-8.68264e-07
8.19014e-06
-2.45643e-07
-8.68592e-07
8.69665e-06
-1.20688e-07
-8.46118e-07
9.16992e-06
7.71857e-08
-7.98234e-07
9.61076e-06
3.44978e-07
-7.22779e-07
1.0016e-05
7.25017e-07
-6.35385e-07
1.0407e-05
1.2167e-06
-4.92255e-07
1.08088e-05
1.92301e-06
-3.65701e-07
1.13224e-05
2.82076e-06
-8.71301e-08
1.20413e-05
4.0749e-06
4.90679e-08
1.31772e-05
5.65393e-06
5.78312e-07
1.50237e-05
7.29519e-06
4.88324e-07
1.73746e-05
9.1283e-06
1.11828e-06
1.9546e-05
9.07323e-06
-1.925e-07
2.08144e-05
9.24039e-06
7.42836e-07
2.27874e-05
8.40375e-06
-2.1184e-06
2.61451e-05
8.57249e-06
-9.87385e-07
2.77145e-05
7.51362e-06
-6.28735e-06
3.0474e-05
3.31674e-06
-4.08059e-06
3.2094e-05
-5.19185e-07
-1.24544e-05
3.24041e-05
-3.29702e-06
-3.58657e-06
3.12719e-05
-6.30024e-06
-1.27171e-05
3.37009e-05
-9.78179e-06
-2.17316e-05
3.4854e-05
-1.07525e-05
9.65202e-07
3.35202e-05
-8.15475e-06
-2.5164e-05
3.44284e-05
-1.2192e-05
-2.9787e-06
2.68225e-05
-1.40889e-05
-3.5199e-05
3.54666e-05
-1.466e-05
-1.83291e-05
4.22379e-05
-2.75197e-05
-3.53558e-05
7.0387e-05
-3.33696e-05
-7.16054e-05
5.50121e-05
-4.89541e-05
-4.14541e-05
1.09067e-05
7.83736e-05
-7.68441e-05
-3.37502e-05
-5.13471e-05
5.31507e-06
-2.73068e-07
-7.08888e-07
5.72675e-06
-3.15745e-07
-7.65357e-07
6.17539e-06
-3.54783e-07
-8.2082e-07
6.65959e-06
-3.83555e-07
-8.71758e-07
7.17315e-06
-3.92523e-07
-9.13141e-07
7.7035e-06
-3.70452e-07
-9.38515e-07
8.23963e-06
-3.05643e-07
-9.40702e-07
8.77299e-06
-1.89273e-07
-9.14815e-07
9.30342e-06
-1.31834e-08
-8.62948e-07
9.80878e-06
2.41511e-07
-7.82536e-07
1.03002e-05
5.87433e-07
-6.84572e-07
1.08078e-05
1.00041e-06
-5.45414e-07
1.13764e-05
1.58253e-06
-4.17163e-07
1.20845e-05
2.25004e-06
-2.27347e-07
1.30045e-05
3.24078e-06
-6.22097e-08
1.42205e-05
4.3878e-06
9.80799e-08
1.57986e-05
5.74789e-06
2.28806e-07
1.77683e-05
7.10509e-06
1.11138e-07
1.99394e-05
7.30169e-06
-4.5368e-07
2.141e-05
8.45146e-06
-1.09777e-06
2.34747e-05
7.8421e-06
-2.84036e-06
2.63444e-05
7.9439e-06
-2.52525e-06
2.95836e-05
7.01289e-06
-6.92356e-06
3.25028e-05
4.87153e-06
-4.10073e-06
3.38925e-05
1.6516e-06
-9.52583e-06
3.51653e-05
9.02148e-07
-5.66644e-06
3.57351e-05
2.75573e-06
-2.4534e-06
3.69945e-05
-1.07256e-05
-1.62916e-05
3.59479e-05
5.21594e-06
-4.39382e-07
3.85655e-05
-9.44549e-06
-3.43089e-06
3.10109e-05
2.26443e-06
-2.42904e-05
3.45282e-05
-5.81335e-06
8.11633e-07
2.73448e-05
5.65057e-06
-1.71151e-05
3.35252e-05
-7.23015e-06
8.06258e-06
3.11578e-05
-2.00664e-05
2.83251e-06
-3.80982e-05
3.60987e-06
-2.72263e-06
-6.1389e-05
2.84606e-05
5.2415e-06
-0.00010499
-6.56502e-05
5.27998e-06
-2.72929e-07
-7.45101e-07
5.69498e-06
-3.21044e-07
-8.1283e-07
6.15276e-06
-3.68214e-07
-8.81479e-07
6.65556e-06
-4.09101e-07
-9.46616e-07
7.20429e-06
-4.364e-07
-1.00128e-06
7.79456e-06
-4.38186e-07
-1.03659e-06
8.41379e-06
-3.99812e-07
-1.04266e-06
9.04174e-06
-3.09537e-07
-1.00863e-06
9.65113e-06
-1.53096e-07
-9.36597e-07
1.02435e-05
6.15386e-08
-8.11521e-07
1.08474e-05
3.30686e-07
-7.00484e-07
1.14992e-05
6.3378e-07
-5.29765e-07
1.22678e-05
1.02393e-06
-4.7822e-07
1.32122e-05
1.4901e-06
-2.44092e-07
1.43869e-05
2.14315e-06
-3.20057e-07
1.56943e-05
3.23823e-06
-1.41007e-07
1.69506e-05
4.67388e-06
-4.09761e-07
1.85191e-05
5.67363e-06
-7.13341e-07
2.0231e-05
6.32504e-06
-4.39147e-07
2.12996e-05
7.73059e-06
-1.94378e-06
2.32827e-05
7.19657e-06
-1.81818e-06
2.49142e-05
7.57121e-06
-2.85908e-06
2.67933e-05
7.35151e-06
-3.54268e-06
2.92251e-05
4.01334e-06
-4.03656e-06
3.00028e-05
3.12424e-06
-8.66118e-06
2.96433e-05
2.3477e-06
-1.19139e-05
2.94076e-05
1.90649e-06
-1.14934e-05
3.22764e-05
-2.79845e-06
-8.58453e-06
2.99787e-05
-3.51528e-06
-1.29939e-05
3.17077e-05
-1.21832e-06
-1.6145e-05
3.19646e-05
-9.60156e-06
-1.62269e-05
2.98978e-05
8.64608e-07
-1.56346e-05
3.52433e-05
-2.95103e-06
-1.97467e-05
2.10708e-05
5.79716e-06
-9.4985e-06
1.62678e-05
1.14604e-05
1.33212e-05
-2.20593e-05
4.04601e-05
0.000106386
-5.85275e-05
2.01803e-05
0.00016638
-8.67984e-05
0.000110019
5.24032e-06
-2.48699e-07
-7.90489e-07
5.65641e-06
-2.98041e-07
-8.73055e-07
6.11984e-06
-3.48695e-07
-9.60224e-07
6.6325e-06
-3.94812e-07
-1.04766e-06
7.19171e-06
-4.28475e-07
-1.12732e-06
7.78939e-06
-4.38606e-07
-1.18669e-06
8.41184e-06
-4.12399e-07
-1.21045e-06
9.04026e-06
-3.40332e-07
-1.1838e-06
9.66197e-06
-2.164e-07
-1.10342e-06
1.02719e-05
-5.3533e-08
-9.7256e-07
1.08801e-05
1.38075e-07
-8.22409e-07
1.15146e-05
3.25111e-07
-6.22567e-07
1.23022e-05
4.64416e-07
-4.54895e-07
1.3289e-05
6.43097e-07
-2.30991e-07
1.46633e-05
7.82083e-07
-1.34247e-08
1.61395e-05
1.6789e-06
2.048e-07
1.74297e-05
3.29411e-06
5.3309e-07
1.92338e-05
3.66368e-06
1.28265e-07
2.04362e-05
5.38885e-06
9.42041e-07
2.17074e-05
6.48897e-06
-9.00821e-07
2.28672e-05
6.74909e-06
-9.26557e-07
2.30505e-05
8.4433e-06
4.62433e-07
2.34265e-05
7.47099e-06
-5.54829e-06
2.46067e-05
5.33732e-06
3.73422e-06
2.35479e-05
6.55349e-06
6.11875e-06
2.3867e-05
5.21854e-06
6.13757e-07
2.22813e-05
1.88586e-06
-4.74266e-06
2.65861e-05
1.92845e-06
-1.09538e-05
2.46534e-05
-9.7541e-06
-7.46796e-06
2.88786e-05
4.39477e-06
-1.6103e-05
3.10502e-05
-1.33908e-05
-9.27402e-06
2.62298e-05
8.42122e-06
-2.82352e-05
3.07903e-05
-6.38655e-06
-2.71753e-05
2.30467e-05
1.35683e-05
-1.86211e-05
1.12468e-05
1.08658e-05
-2.22435e-05
-3.64464e-06
5.90234e-05
7.46014e-05
1.26004e-05
-5.70915e-06
0.000103494
-3.99563e-05
-2.4509e-05
5.20018e-06
-1.98717e-07
-8.38602e-07
5.61573e-06
-2.4388e-07
-9.38096e-07
6.08452e-06
-2.93586e-07
-1.04658e-06
6.61445e-06
-3.45006e-07
-1.15831e-06
7.21001e-06
-3.92385e-07
-1.26255e-06
7.86802e-06
-4.26205e-07
-1.34129e-06
8.57345e-06
-4.34527e-07
-1.37086e-06
9.29691e-06
-4.06788e-07
-1.3223e-06
1.00069e-05
-3.42239e-07
-1.18878e-06
1.06704e-05
-2.45231e-07
-9.6434e-07
1.13415e-05
-1.95049e-07
-7.20452e-07
1.20568e-05
-1.78548e-07
-4.25903e-07
1.30353e-05
-4.36238e-07
-2.34626e-07
1.43507e-05
-7.01995e-07
9.70606e-08
1.64879e-05
-1.56785e-06
2.57893e-07
1.75494e-05
6.01946e-07
2.23443e-07
1.8564e-05
2.43029e-06
-9.28483e-07
1.99499e-05
2.40568e-06
2.49956e-07
2.11221e-05
4.4359e-06
-1.98864e-07
2.2095e-05
6.34308e-06
-1.35174e-07
2.34041e-05
6.48505e-06
-2.06711e-06
2.44104e-05
9.02336e-06
-1.97035e-06
2.58082e-05
7.95004e-06
-2.00285e-06
2.62184e-05
6.5425e-06
-6.39784e-06
2.58331e-05
8.29918e-06
-2.991e-06
2.74218e-05
7.92322e-06
-5.49269e-06
2.73623e-05
5.22232e-06
-2.71441e-06
3.01241e-05
3.96037e-06
-9.70254e-07
2.93675e-05
-1.67114e-06
-5.65207e-07
3.51879e-05
2.41346e-07
3.72486e-06
3.95983e-05
-4.967e-06
-7.39806e-06
4.432e-05
8.25246e-06
-4.2732e-06
5.51598e-05
6.47281e-06
-3.96539e-05
6.44834e-05
2.43477e-05
-5.5502e-05
6.57691e-05
3.05289e-05
-6.24998e-05
7.35974e-05
6.16226e-05
-6.04945e-05
6.82195e-05
5.40645e-05
-5.19862e-05
1.34849e-05
-5.65816e-05
5.16471e-06
-1.29844e-07
-8.71407e-07
5.57661e-06
-1.63654e-07
-9.87266e-07
6.04277e-06
-2.01818e-07
-1.119e-06
6.57034e-06
-2.42358e-07
-1.26323e-06
7.16334e-06
-2.81274e-07
-1.41012e-06
7.81831e-06
-3.11937e-07
-1.53909e-06
8.51786e-06
-3.25244e-07
-1.6175e-06
9.22627e-06
-3.12848e-07
-1.60462e-06
9.89434e-06
-2.75768e-07
-1.47124e-06
1.04811e-05
-2.21605e-07
-1.22232e-06