/*--------------------------------*- C++ -*----------------------------------*\
| =========                 |                                                 |
| \\      /  F ield         | OpenFOAM: The Open Source CFD Toolbox           |
|  \\    /   O peration     | Version:  2.3.1                                 |
|   \\  /    A nd           | Web:      www.OpenFOAM.org                      |
|    \\/     M anipulation  |                                                 |
\*---------------------------------------------------------------------------*/
FoamFile
{
    version     2.0;
    format      ascii;
    class       volScalarField;
    location    "5";
    object      Sed;
}
// * * * * * * * * * * * * * * * * * * * * * * * * * * * * * * * * * * * * * //

dimensions      [0 0 0 0 0 0 0];

internalField   nonuniform List<scalar> 
38262
(
2.48265e-230
7.14396e-232
2.13009e-233
6.59303e-235
2.11834e-236
7.04572e-238
2.41199e-239
8.41304e-241
2.9878e-242
1.08857e-243
3.99785e-245
1.43747e-246
4.79593e-248
1.35879e-249
2.80468e-251
4.25776e-253
2.45169e-254
1.88198e-255
1.78782e-256
8.29408e-257
9.94883e-258
7.93052e-259
4.34423e-260
2.0517e-260
7.99936e-261
1.7952e-261
5.45225e-262
6.63731e-263
3.36801e-263
3.59719e-264
3.33056e-264
1.48781e-264
6.4187e-265
2.86953e-265
1.49809e-265
6.70905e-266
2.06167e-266
7.05493e-267
5.14024e-228
1.43998e-229
4.18437e-231
1.26414e-232
3.97433e-234
1.29862e-235
4.39349e-237
1.52957e-238
5.47594e-240
2.0036e-241
7.39587e-243
2.69687e-244
9.41452e-246
2.95378e-247
8.18328e-249
1.88769e-250
3.73935e-252
1.59804e-253
1.61085e-254
2.97324e-255
2.4474e-256
3.10899e-257
4.37814e-258
9.60669e-259
2.58136e-259
4.97839e-260
1.42663e-260
2.46979e-261
1.01042e-261
2.06663e-262
5.4752e-263
1.85917e-263
6.35925e-264
2.19554e-264
8.40771e-265
3.33578e-265
1.28293e-265
2.86488e-266
2.48619e-226
6.82777e-228
1.94618e-229
5.77348e-231
1.7857e-232
5.75887e-234
1.9332e-235
6.72788e-237
2.41823e-238
8.91142e-240
3.33742e-241
1.25105e-242
4.62685e-244
1.62355e-245
5.2692e-247
1.59834e-248
4.4852e-250
1.2775e-251
5.62004e-253
3.02552e-254
1.766e-255
1.18634e-256
1.27237e-257
3.85001e-258
1.33733e-258
2.48429e-259
4.5148e-260
7.81841e-261
4.39539e-261
3.64629e-262
8.58081e-263
1.22147e-263
2.62016e-264
6.83151e-265
2.10507e-265
1.16064e-265
7.39239e-266
2.97497e-266
3.31439e-225
8.98945e-227
2.53156e-228
7.42583e-230
2.27393e-231
7.27303e-233
2.42607e-234
8.41092e-236
3.01796e-237
1.11403e-238
4.20045e-240
1.60164e-241
6.12868e-243
2.31773e-244
8.62678e-246
3.12982e-247
1.21777e-248
4.95655e-250
2.36783e-251
1.29591e-252
8.07408e-254
5.60308e-255
6.76314e-256
7.91891e-257
1.62677e-257
3.23862e-258
3.45925e-259
9.95876e-260
1.09876e-260
2.35538e-261
3.81658e-262
7.91561e-263
1.66343e-263
5.6158e-264
7.96268e-265
2.13309e-265
4.44021e-266
1.97741e-266
1.32921e-224
3.59072e-226
1.00793e-227
2.95074e-229
9.03444e-231
2.89686e-232
9.72839e-234
3.41419e-235
1.24692e-236
4.70924e-238
1.83394e-239
7.29561e-241
2.98341e-242
1.2285e-243
5.28345e-245
2.2541e-246
1.06152e-247
4.95922e-249
2.88091e-250
1.46745e-251
9.88631e-253
5.43069e-254
5.44e-255
3.58687e-256
6.59276e-257
5.12246e-258
1.20602e-258
4.20978e-259
3.58442e-260
1.03954e-260
9.1373e-262
2.11787e-262
2.4964e-263
3.44107e-264
6.13654e-265
1.18816e-265
2.96603e-266
2.38618e-267
2.11972e-224
5.71051e-226
1.60042e-227
4.68607e-229
1.43835e-230
4.63482e-232
1.56649e-233
5.53855e-235
2.04166e-236
7.81267e-238
3.09374e-239
1.25888e-240
5.30004e-242
2.29617e-243
1.0412e-244
4.9974e-246
2.53016e-247
1.39972e-248
8.61592e-250
5.81778e-251
4.42529e-252
3.18574e-253
3.32563e-254
2.63308e-255
4.12866e-256
4.11691e-257
5.08814e-258
1.17983e-258
1.15107e-259
1.12128e-260
2.13933e-261
1.70408e-262
2.19483e-263
2.14816e-264
1.74171e-265
1.11943e-266
5.42125e-267
4.43308e-268
2.05506e-224
5.52622e-226
1.54821e-227
4.54149e-229
1.40088e-230
4.55683e-232
1.56444e-233
5.65678e-235
2.14697e-236
8.47703e-238
3.48757e-239
1.47529e-240
6.58456e-242
3.01502e-243
1.51149e-244
7.92254e-246
4.53601e-247
2.81368e-248
1.73727e-249
1.31365e-250
9.4152e-252
7.83242e-253
6.50134e-254
6.72017e-255
1.04707e-255
1.50344e-256
1.88772e-257
1.87249e-258
2.32468e-259
2.30568e-260
3.01054e-261
3.60176e-262
3.91558e-263
4.54882e-264
4.10735e-265
6.47808e-267
9.61342e-268
9.83276e-269
1.1976e-224
3.20915e-226
8.97136e-228
2.63155e-229
8.13843e-231
2.66084e-232
9.19924e-234
3.35328e-235
1.28303e-236
5.11081e-238
2.11954e-239
9.02502e-241
4.01265e-242
1.85661e-243
9.21047e-245
5.0212e-246
2.84932e-247
1.81092e-248
1.10546e-249
8.09088e-251
5.83257e-252
4.0355e-253
3.96759e-254
2.47042e-255
1.3164e-256
9.16303e-258
7.84028e-259
9.93642e-260
8.40986e-261
1.77392e-261
1.39562e-262
2.9003e-263
2.54483e-264
4.47515e-265
4.31709e-266
2.29993e-267
1.56473e-268
2.31171e-269
2.77984e-225
7.42523e-227
2.07152e-228
6.07585e-230
1.88499e-231
6.21126e-233
2.17638e-234
8.07812e-236
3.15577e-237
1.27966e-238
5.3718e-240
2.29781e-241
1.02027e-242
4.70746e-244
2.37404e-245
1.2703e-246
7.59276e-248
4.20686e-249
2.52356e-250
1.56007e-251
1.13441e-252
8.65773e-254
6.8481e-255
6.67561e-256
5.26992e-257
4.15659e-258
3.15896e-259
2.47495e-260
1.84077e-261
1.96768e-262
1.93435e-263
4.23202e-264
5.93771e-265
1.3027e-265
2.76759e-266
5.1314e-267
6.92003e-268
4.01178e-269
1.91531e-226
5.12536e-228
1.43335e-229
4.21883e-231
1.3153e-232
4.36124e-234
1.53835e-235
5.74073e-237
2.24114e-238
9.00291e-240
3.66503e-241
1.48728e-242
5.9689e-244
2.38553e-245
9.14066e-247
4.02055e-248
2.24004e-249
1.27793e-250
8.99366e-252
6.91955e-253
5.38271e-254
4.64454e-255
3.71642e-256
2.94549e-257
1.91823e-258
1.75637e-259
1.50795e-260
1.07357e-261
6.33819e-263
7.38844e-264
9.71644e-265
3.25527e-265
4.44856e-266
1.26241e-266
3.46654e-267
9.60467e-268
1.15636e-268
1.77966e-269
3.50734e-228
9.41515e-230
2.63965e-231
7.78677e-233
2.433e-234
8.08034e-236
2.84867e-237
1.05717e-238
4.06815e-240
1.59458e-241
6.2085e-243
2.44384e-244
8.66959e-246
3.74075e-247
1.52484e-248
8.62085e-250
7.82531e-251
4.09379e-252
2.28541e-253
1.97432e-254
2.12008e-255
2.57149e-256
4.24219e-257
3.78842e-258
3.11213e-259
2.59051e-260
2.12955e-261
1.83766e-262
1.547e-263
1.38113e-264
1.40283e-265
3.57811e-266
6.18834e-267
2.22721e-267
7.75236e-268
2.77094e-268
8.29953e-269
2.41734e-269
1.50183e-230
4.1062e-232
1.17443e-233
3.5439e-235
1.13635e-236
3.88607e-238
1.41398e-239
5.41344e-241
2.13684e-242
8.46783e-244
3.27208e-245
1.19464e-246
4.15686e-248
1.26828e-249
3.62109e-251
4.078e-252
9.79678e-253
1.28454e-254
1.5794e-255
2.31548e-256
1.26543e-257
2.32547e-258
7.78477e-259
8.19443e-260
8.82785e-261
9.12252e-262
7.57419e-263
6.32424e-264
4.33606e-265
2.77679e-266
4.25736e-267
1.36752e-267
2.88254e-268
1.37702e-268
7.27952e-269
3.40955e-269
1.62109e-269
1.11484e-269
1.68384e-228
4.73088e-230
1.37805e-231
4.16871e-233
1.31012e-234
4.26954e-236
1.43638e-237
4.94617e-239
1.7552e-240
6.38231e-242
2.34495e-243
8.49585e-245
2.90902e-246
8.99127e-248
2.10026e-249
3.45079e-251
1.24265e-252
6.13516e-254
4.80281e-255
1.51821e-255
1.92021e-256
1.23215e-257
7.5588e-259
2.30323e-259
7.40005e-260
1.61243e-260
4.58061e-261
6.25366e-262
6.24463e-263
1.84342e-263
5.03265e-264
1.917e-264
1.22126e-264
4.51e-265
1.91508e-265
6.25858e-266
1.7883e-266
5.28645e-267
2.98946e-226
8.19563e-228
2.33182e-229
6.89784e-231
2.12372e-232
6.80026e-234
2.2582e-235
7.73764e-237
2.73712e-238
9.92032e-240
3.64196e-241
1.33011e-242
4.71035e-244
1.55634e-245
4.67308e-247
1.19695e-248
2.39919e-250
6.94359e-252
4.45371e-253
5.67241e-254
4.34785e-255
4.3276e-256
5.6102e-257
1.04289e-257
2.56295e-258
4.81852e-259
1.36939e-259
2.14092e-260
4.19983e-261
9.02653e-262
2.01613e-262
5.1731e-263
1.38232e-263
3.71614e-264
1.03419e-264
3.25402e-265
7.74797e-266
1.04076e-266
1.33969e-224
3.601e-226
1.00512e-227
2.91933e-229
8.83791e-231
2.78981e-232
9.17167e-234
3.12992e-235
1.10499e-236
4.0103e-238
1.48391e-239
5.52777e-241
2.04572e-242
7.31787e-244
2.5208e-245
8.18421e-247
2.50909e-248
6.7715e-250
2.44744e-251
1.17149e-252
5.62273e-254
3.91391e-255
4.32692e-256
9.30732e-257
2.48546e-257
4.27009e-258
7.76699e-259
6.38641e-260
2.98396e-260
2.82956e-261
5.93235e-262
9.11098e-263
1.36392e-263
3.96091e-264
6.87673e-265
4.20077e-265
1.12535e-265
3.68428e-266
1.74602e-223
4.63137e-225
1.27607e-226
3.66091e-228
1.09591e-229
3.42574e-231
1.11715e-232
3.79066e-234
1.33356e-235
4.83967e-237
1.8001e-238
6.80447e-240
2.59648e-241
9.8932e-243
3.76298e-244
1.44805e-245
5.94694e-247
2.52044e-248
1.13986e-249
6.16232e-251
3.53084e-252
2.53418e-253
2.34159e-254
2.8419e-255
4.24798e-256
5.87009e-257
6.61454e-258
1.15781e-258
1.39496e-259
2.11917e-260
3.3594e-261
5.01282e-262
1.05107e-262
2.27639e-263
2.84054e-264
7.63996e-265
1.21953e-265
1.42364e-266
7.02593e-223
1.85486e-224
5.08985e-226
1.45593e-227
4.3529e-229
1.36236e-230
4.46562e-232
1.53068e-233
5.46693e-235
2.0233e-236
7.73196e-238
3.03038e-239
1.22026e-240
4.99786e-242
2.12305e-243
9.17445e-245
4.28268e-246
2.09122e-247
1.16677e-248
6.1703e-250
3.66844e-251
2.20629e-252
1.71053e-253
1.34969e-254
1.64255e-255
1.5975e-256
2.55163e-257
4.65688e-258
4.99041e-259
7.71876e-260
8.74781e-261
1.29438e-261
1.42785e-262
2.09839e-263
3.49132e-264
4.67382e-265
5.96425e-266
3.24316e-267
1.12816e-222
2.96887e-224
8.12884e-226
2.3238e-227
6.95851e-229
2.18651e-230
7.2084e-232
2.48896e-233
8.97715e-235
3.36992e-236
1.31235e-237
5.27407e-239
2.19726e-240
9.46131e-242
4.28403e-243
2.04631e-244
1.04533e-245
5.72457e-247
3.48566e-248
2.27695e-249
1.63595e-250
1.20432e-251
1.03762e-252
9.20556e-254
1.06275e-254
1.1507e-255
1.27197e-256
1.74801e-257
1.6261e-258
1.69302e-259
2.32507e-260
1.90259e-261
2.45883e-262
2.10226e-263
2.13781e-264
1.27043e-265
8.16125e-267
2.6015e-268
1.09307e-222
2.86923e-224
7.8458e-226
2.24443e-227
6.74538e-229
2.13653e-230
7.1421e-232
2.51685e-233
9.3212e-235
3.60312e-236
1.45097e-237
6.03958e-239
2.63704e-240
1.19306e-241
5.81121e-243
2.99413e-244
1.6606e-245
9.74335e-247
6.04944e-248
4.1268e-249
2.89263e-250
2.19401e-251
1.76452e-252
1.60438e-253
1.77e-254
1.8792e-255
1.7838e-256
1.50841e-257
1.4485e-258
1.2812e-259
1.1962e-260
1.15411e-261
1.23307e-262
1.29273e-263
9.86223e-265
4.04841e-266
9.84275e-268
6.02137e-269
6.32208e-223
1.65222e-224
4.50276e-226
1.28598e-227
3.86725e-229
1.2285e-230
4.12751e-232
1.46442e-233
5.46667e-235
2.13252e-236
8.6771e-238
3.64475e-239
1.60052e-240
7.33393e-242
3.59327e-243
1.90843e-244
1.06469e-245
6.32402e-247
3.80831e-248
2.53605e-249
1.73686e-250
1.198e-251
9.55399e-253
6.13771e-254
3.94379e-255
2.80326e-256
2.40536e-257
1.97466e-258
1.58502e-259
1.353e-260
1.08697e-261
1.21549e-262
1.06794e-263
1.16851e-264
1.13571e-265
6.47327e-267
1.68516e-268
3.09045e-269
1.46083e-223
3.80274e-225
1.03305e-226
2.94553e-228
8.86836e-230
2.83257e-231
9.61803e-233
3.46367e-234
1.31512e-235
5.20449e-237
2.13456e-238
8.96454e-240
3.9077e-241
1.76216e-242
8.50627e-244
4.33551e-245
2.35394e-246
1.25921e-247
7.29281e-249
4.52111e-250
3.0837e-251
2.25609e-252
1.70998e-253
1.38794e-254
1.02604e-255
7.5009e-257
5.32869e-258
3.62913e-259
2.4289e-260
1.74121e-261
1.46057e-262
1.64549e-263
2.47586e-264
4.651e-265
7.87722e-266
1.09326e-266
1.43619e-267
1.42403e-268
1.03128e-224
2.68892e-226
7.31729e-228
2.0911e-229
6.31558e-231
2.02545e-232
6.90835e-234
2.49678e-235
9.47374e-237
3.71935e-238
1.48866e-239
5.98993e-241
2.39006e-242
9.48893e-244
3.62635e-245
1.56822e-246
8.03446e-248
4.41811e-249
2.91862e-250
2.17643e-251
1.6059e-252
1.37107e-253
1.07252e-254
7.39674e-256
5.64107e-257
4.56916e-258
3.70377e-259
2.64764e-260
1.64574e-261
8.81712e-263
6.92235e-264
7.35678e-265
1.00308e-265
3.04378e-266
7.76784e-267
2.6967e-267
3.48298e-268
2.84765e-269
2.0695e-226
5.41816e-228
1.47908e-229
4.2385e-231
1.28355e-232
4.1263e-234
1.40904e-235
5.08281e-237
1.91337e-238
7.39163e-240
2.86557e-241
1.11578e-242
4.12676e-244
1.61522e-245
6.22229e-247
3.07279e-248
1.91086e-249
9.06566e-251
5.93325e-252
6.99373e-253
7.21478e-254
7.87738e-255
9.74768e-256
8.63355e-257
7.12623e-258
6.23389e-259
5.56795e-260
5.02647e-261
4.25468e-262
3.31613e-263
2.60315e-264
2.15174e-265
2.06779e-266
4.33601e-267
1.23771e-267
5.63207e-268
1.55029e-268
2.92235e-269
1.07267e-228
2.85937e-230
7.954e-232
2.32686e-233
7.2106e-235
2.37787e-236
8.34377e-238
3.09104e-239
1.18956e-240
4.63904e-242
1.7879e-243
6.56004e-245
2.28012e-246
7.06316e-248
1.77357e-249
1.7737e-250
2.17901e-251
5.73907e-253
5.36149e-254
9.38431e-255
8.04241e-256
1.20862e-256
2.06644e-257
1.7297e-258
1.33716e-259
1.26806e-260
1.03409e-261
8.88023e-263
5.93194e-264
2.90647e-265
2.23142e-266
3.08848e-267
4.07357e-268
1.38968e-268
8.7881e-269
5.23923e-269
1.66199e-269
1.03527e-269
4.21351e-227
1.15931e-228
3.30852e-230
9.80992e-232
3.02376e-233
9.67565e-235
3.20254e-236
1.09106e-237
3.85191e-239
1.395e-240
5.11804e-242
1.86488e-243
6.53406e-245
2.10197e-246
5.44611e-248
9.26529e-250
2.5185e-251
1.01064e-252
6.90173e-254
1.92041e-254
1.95364e-255
8.21569e-257
4.74382e-258
9.29734e-259
2.68875e-259
6.48052e-260
1.81805e-260
2.4549e-261
2.34943e-262
5.22106e-263
7.34523e-264
2.43006e-264
7.69416e-265
3.16658e-265
1.6262e-265
4.83422e-266
1.5941e-266
3.11016e-267
6.68141e-225
1.79283e-226
4.99465e-228
1.44679e-229
4.36241e-231
1.3687e-232
4.45864e-234
1.50239e-235
5.24102e-237
1.87787e-238
6.8408e-240
2.49607e-241
8.9363e-243
3.05239e-244
9.65316e-246
2.72381e-247
6.62305e-249
1.69325e-250
8.68136e-252
7.64155e-253
5.2625e-254
3.74671e-255
3.99569e-256
5.92546e-257
1.21526e-257
2.26956e-258
6.30881e-259
8.84835e-260
1.52935e-260
2.67604e-261
4.4515e-262
1.04816e-262
2.2785e-263
4.63225e-264
1.18525e-264
3.0211e-265
6.79125e-266
7.94028e-267
2.78588e-223
7.31966e-225
1.99768e-226
5.67186e-228
1.67794e-229
5.17496e-231
1.66252e-232
5.5486e-234
1.9185e-235
6.83381e-237
2.48911e-238
9.17483e-240
3.38268e-241
1.2251e-242
4.33598e-244
1.47814e-245
4.99348e-247
1.54475e-248
5.75527e-250
2.73423e-251
1.28536e-252
8.48208e-254
7.1426e-255
9.85111e-256
2.12949e-256
3.23701e-257
5.94842e-258
5.54133e-259
1.24903e-259
8.81949e-261
2.09518e-261
3.19477e-262
4.68702e-263
9.25043e-264
1.99712e-264
6.86595e-265
1.10642e-265
1.53206e-266
3.55124e-222
9.19489e-224
2.47338e-225
6.92445e-227
2.02152e-228
6.15956e-230
1.95769e-231
6.47753e-233
2.22478e-234
7.89843e-236
2.88173e-237
1.07297e-238
4.05256e-240
1.54156e-241
5.91392e-243
2.31334e-244
9.6493e-246
4.31684e-247
2.10661e-248
1.16457e-249
6.67567e-251
4.52234e-252
3.57766e-253
3.88712e-254
4.83593e-255
5.5893e-256
6.57845e-257
8.52758e-258
1.00189e-258
1.42244e-259
1.7059e-260
2.12995e-261
3.72351e-262
6.19967e-263
7.96051e-264
1.48908e-264
1.60186e-265
8.5584e-267
1.43512e-221
3.69455e-223
9.88608e-225
2.75576e-226
8.02239e-228
2.44306e-229
7.78822e-231
2.59643e-232
9.02459e-234
3.25502e-235
1.21372e-236
4.65562e-238
1.83587e-239
7.41309e-241
3.09558e-242
1.33368e-243
6.13043e-245
3.0013e-246
1.65155e-247
9.27973e-249
5.53352e-250
3.52783e-251
2.49739e-252
1.98741e-253
1.97423e-254
1.88318e-255
2.26685e-256
2.69629e-257
3.05972e-258
3.30576e-259
3.79984e-260
4.99307e-261
5.77619e-262
7.89299e-263
1.0313e-263
8.64219e-265
2.99124e-266
2.30504e-267
2.32046e-221
5.95083e-223
1.58753e-224
4.41797e-226
1.28656e-227
3.92822e-229
1.25798e-230
4.22104e-232
1.48096e-233
5.41752e-235
2.05948e-236
8.10551e-238
3.31021e-239
1.40229e-240
6.24236e-242
2.93065e-243
1.46971e-244
7.85907e-246
4.60475e-247
2.89768e-248
1.96434e-249
1.40535e-250
1.11635e-251
9.60825e-253
9.5395e-254
9.42973e-255
9.71747e-256
1.05993e-256
9.95151e-258
9.5964e-259
1.06787e-259
9.78208e-261
1.10678e-261
1.03555e-262
9.62973e-264
6.3909e-265
8.22787e-267
3.92012e-268
2.2458e-221
5.74003e-223
1.52764e-224
4.24846e-226
1.23974e-227
3.80872e-229
1.23411e-230
4.21577e-232
1.51427e-233
5.68851e-235
2.22669e-236
9.04192e-238
3.83847e-239
1.6974e-240
7.99101e-242
3.98404e-243
2.11574e-244
1.18328e-245
7.05341e-247
4.49382e-248
2.99332e-249
2.12077e-250
1.59661e-251
1.31355e-252
1.19461e-253
1.08598e-254
9.61491e-256
8.24821e-257
7.15091e-258
6.28917e-259
5.60194e-260
5.3952e-261
5.47738e-262
5.22774e-263
4.14398e-264
2.20813e-265
2.77214e-267
9.41745e-269
1.28769e-221
3.27365e-223
8.67186e-225
2.40361e-226
7.00336e-228
2.15259e-229
6.99315e-231
2.40011e-232
8.67731e-234
3.28721e-235
1.30088e-236
5.33933e-238
2.29112e-239
1.02583e-240
4.88509e-242
2.47863e-243
1.32572e-244
7.41354e-246
4.31736e-247
2.68587e-248
1.7396e-249
1.16525e-250
8.3958e-252
5.70555e-253
4.03217e-254
3.05648e-255
2.36148e-256
1.83346e-257
1.27683e-258
9.49582e-260
6.71123e-261
5.51873e-262
4.40179e-263
3.48838e-264
2.65512e-265
1.83456e-266
4.26587e-268
6.48475e-269
2.95705e-222
7.4839e-224
1.97427e-225
5.45587e-227
1.58878e-228
4.89974e-230
1.60476e-231
5.57603e-233
2.04535e-234
7.84888e-236
3.12778e-237
1.28142e-238
5.44875e-240
2.38293e-241
1.09171e-242
5.28665e-244
2.67938e-245
1.38047e-246
7.71006e-248
4.65221e-249
3.02097e-250
2.07302e-251
1.48496e-252
1.10389e-253
7.90716e-255
5.61872e-256
3.81583e-257
2.49638e-258
1.69868e-259
1.15737e-260
9.88404e-262
9.2987e-263
1.20608e-263
1.6624e-264
2.08013e-265
2.33966e-266
2.73201e-267
2.48811e-268
2.13503e-223
5.41378e-225
1.43043e-226
3.95958e-228
1.15547e-229
3.57321e-231
1.17408e-232
4.09213e-234
1.50231e-235
5.73645e-237
2.24537e-238
8.89204e-240
3.50017e-241
1.36101e-242
5.14336e-244
2.16115e-245
1.07632e-246
5.70652e-248
3.57798e-249
2.55719e-250
1.82836e-251
1.43251e-252
1.1109e-253
7.49348e-255
5.3961e-256
4.16519e-257
3.20211e-258
2.22304e-259
1.44301e-260
8.27334e-262
5.87084e-263
4.22576e-264
4.53627e-265
8.35736e-266
1.85449e-266
4.93575e-267
6.16098e-268
5.33189e-269
4.63501e-225
1.18149e-226
3.13425e-228
8.70617e-230
2.54937e-231
7.91259e-233
2.60937e-234
9.11632e-236
3.34132e-237
1.26489e-238
4.85006e-240
1.8626e-241
6.95875e-243
2.58663e-244
9.40072e-246
4.08736e-247
1.9585e-248
8.87291e-250
7.59978e-251
8.60321e-252
8.27348e-253
8.1326e-254
8.60465e-255
7.33349e-256
5.86732e-257
4.82102e-258
3.9616e-259
3.21328e-260
2.47523e-261
1.77597e-262
1.35676e-263
1.11479e-264
1.0066e-265
1.3556e-266
2.64302e-267
9.46399e-268
2.38833e-268
3.92215e-269
2.70884e-227
7.01881e-229
1.89229e-230
5.34657e-232
1.59457e-233
5.04722e-235
1.69888e-236
6.05524e-238
2.25712e-239
8.60459e-241
3.27153e-242
1.19242e-243
4.0906e-245
1.20186e-246
2.609e-248
2.56332e-249
1.76725e-250
6.33108e-252
8.53504e-253
1.23588e-253
1.14229e-254
1.42804e-255
1.71094e-256
1.36651e-257
1.02926e-258
8.49268e-260
6.20178e-261
4.67972e-262
2.73185e-263
1.74077e-264
1.40438e-265
1.1038e-266
1.12084e-267
2.41879e-268
1.34808e-268
8.17166e-269
2.27325e-269
8.13446e-270
4.88099e-226
1.31576e-227
3.67912e-229
1.06884e-230
3.22824e-232
1.01256e-233
3.28779e-235
1.10314e-236
3.8362e-238
1.37045e-239
4.97236e-241
1.80188e-242
6.35376e-244
2.09116e-245
5.89538e-247
1.16425e-248
2.66789e-250
1.06542e-251
7.12325e-253
1.31379e-253
1.4125e-254
3.74414e-256
2.19982e-257
2.59788e-258
5.87636e-259
1.66445e-259
4.82368e-260
7.10287e-261
8.16389e-262
1.48487e-262
1.40234e-263
3.8506e-264
5.96399e-265
1.64953e-265
1.09842e-265
3.86174e-266
1.13411e-266
2.15159e-267
7.11644e-224
1.86958e-225
5.09933e-227
1.44586e-228
4.26643e-230
1.30989e-231
4.17693e-233
1.37946e-234
4.72096e-236
1.66221e-237
5.96617e-239
2.15558e-240
7.70823e-242
2.66502e-243
8.69552e-245
2.62801e-246
7.81795e-248
2.35304e-249
1.16975e-250
8.29369e-252
5.50764e-253
2.78537e-254
2.34366e-255
2.58346e-256
3.29882e-257
6.32494e-258
1.73777e-258
2.63054e-259
4.09267e-260
7.52168e-261
9.12624e-262
1.94605e-262
3.13715e-263
4.7482e-264
1.11391e-264
2.52418e-265
3.80192e-266
3.64442e-267
2.83134e-222
7.27314e-224
1.94061e-225
5.38449e-227
1.55593e-228
4.68528e-230
1.46933e-231
4.78786e-233
1.61742e-234
5.63635e-236
2.01266e-237
7.3001e-239
2.66304e-240
9.64423e-242
3.44553e-243
1.20757e-244
4.3313e-246
1.5996e-247
6.72734e-249
3.41651e-250
1.77622e-251
1.10643e-252
7.11584e-254
6.61011e-255
9.57252e-256
1.32449e-256
2.32707e-257
2.97546e-258
4.21292e-259
4.63407e-260
6.56487e-261
9.44214e-262
1.22886e-262
2.05065e-263
3.77903e-264
8.45683e-265
1.15912e-265
8.96154e-267
3.56951e-221
9.02343e-223
2.3695e-224
6.47216e-226
1.84223e-227
5.4695e-229
1.69316e-230
5.45659e-232
1.82628e-233
6.32542e-235
2.25556e-236
8.23151e-238
3.0584e-239
1.15113e-240
4.39606e-242
1.7181e-243
7.1342e-245
3.26361e-246
1.70494e-247
9.69603e-249
5.64334e-250
3.64353e-251
2.65777e-252
2.51545e-253
2.69722e-254
2.79991e-255
3.0996e-256
3.58089e-257
3.71419e-258
4.68525e-259
4.74094e-260
5.76792e-261
8.43934e-262
1.14733e-262
1.41283e-263
1.91366e-264
1.93741e-265
9.77282e-267
1.45493e-220
3.65306e-222
9.53108e-224
2.58862e-225
7.33615e-227
2.17321e-228
6.73492e-230
2.18206e-231
7.37171e-233
2.58609e-234
9.38742e-236
3.51191e-237
1.35233e-238
5.35148e-240
2.19044e-241
9.30253e-243
4.19134e-244
2.01765e-245
1.08432e-246
6.2084e-248
3.75615e-249
2.41028e-250
1.67929e-251
1.29821e-252
1.13864e-253
9.93024e-255
9.96194e-256
1.02797e-256
1.05745e-257
1.08018e-258
1.16094e-259
1.33701e-260
1.50452e-261
1.85478e-262
2.05696e-263
1.81909e-264
5.51642e-266
3.22042e-267
2.37091e-220
5.92596e-222
1.5401e-223
4.17166e-225
1.18123e-226
3.50373e-228
1.08943e-229
3.54883e-231
1.20919e-232
4.29945e-234
1.59047e-235
6.1029e-237
2.43181e-238
1.00732e-239
4.37772e-241
2.00562e-242
9.77458e-244
5.0686e-245
2.84376e-246
1.71311e-247
1.1049e-248
7.57057e-250
5.70355e-251
4.69051e-252
4.28002e-253
3.92956e-254
3.709e-255
3.65442e-256
3.40173e-257
3.19445e-258
3.18794e-259
2.94709e-260
2.96764e-261
2.73986e-262
2.30955e-263
1.66763e-264
2.32994e-266
1.56505e-267
2.29196e-220
5.7051e-222
1.47771e-223
3.99507e-225
1.13193e-226
3.37291e-228
1.05922e-229
3.50595e-231
1.22041e-232
4.44753e-234
1.68987e-235
6.67396e-237
2.75111e-238
1.18369e-239
5.38507e-241
2.58525e-242
1.31353e-243
7.0229e-245
3.98832e-246
2.40386e-247
1.52159e-248
1.01878e-249
7.25055e-251
5.53759e-252
4.57445e-253
3.84865e-254
3.26984e-255
2.80642e-256
2.43088e-257
2.1074e-258
1.87934e-259
1.72777e-260
1.61205e-261
1.38389e-262
9.71814e-264
4.74734e-265
8.88516e-267
5.75055e-268
1.30116e-220
3.21883e-222
8.28881e-224
2.23001e-225
6.29689e-227
1.87321e-228
5.88504e-230
1.95326e-231
6.83491e-233
2.5107e-234
9.64891e-236
3.85659e-237
1.60949e-238
6.99916e-240
3.21453e-241
1.55566e-242
7.91891e-244
4.20876e-245
2.35157e-246
1.39413e-247
8.62365e-249
5.57152e-250
3.80165e-251
2.59089e-252
1.90493e-253
1.47857e-254
1.14484e-255
8.7502e-257
6.24402e-258
4.51936e-259
3.25847e-260
2.47163e-261
1.87758e-262
1.16882e-263
6.16383e-265
4.27949e-266
1.39596e-267
1.53877e-268
2.95584e-221
7.27636e-223
1.86456e-224
4.99599e-226
1.40798e-227
4.19567e-229
1.32665e-230
4.45251e-232
1.57998e-233
5.88019e-235
2.27695e-236
9.07824e-238
3.74406e-239
1.57968e-240
6.86531e-242
3.14303e-243
1.50957e-244
7.538e-246
4.10647e-247
2.41063e-248
1.50624e-249
9.88e-251
6.71547e-252
4.7e-253
3.29316e-254
2.30597e-255
1.56932e-256
1.04496e-257
7.2044e-259
5.02169e-260
4.117e-261
3.6411e-262
3.93639e-263
4.54981e-264
4.99694e-265
4.97596e-266
4.90706e-267
3.91117e-268
2.15553e-222
5.31736e-224
1.36439e-225
3.65937e-227
1.03226e-228
3.08009e-230
9.75938e-232
3.28456e-233
1.16815e-234
4.34005e-236
1.65941e-237
6.41392e-239
2.46002e-240
9.15377e-242
3.32867e-243
1.33982e-244
6.45669e-246
3.38068e-247
2.09294e-248
1.45122e-249
1.0179e-250
7.57246e-252
5.65913e-253
3.87645e-254
2.77756e-255
2.06009e-256
1.51536e-257
1.01028e-258
6.42025e-260
3.83156e-261
2.59589e-262
1.84816e-263
1.62929e-264
2.03435e-265
3.54319e-266
8.2904e-267
1.03783e-267
8.05983e-269
4.90916e-224
1.21805e-225
3.13844e-227
8.44603e-229
2.39036e-230
7.1596e-232
2.27918e-233
7.7107e-235
2.75119e-236
1.01935e-237
3.8437e-239
1.44579e-240
5.30301e-242
1.86926e-243
6.14929e-245
2.25508e-246
1.01537e-247
5.66973e-249
5.29329e-250
5.33038e-251
4.80851e-252
4.33844e-253
4.03007e-254
3.25102e-255
2.45757e-256
1.86342e-257
1.40019e-258
1.02737e-259
7.10869e-261
4.7297e-262
3.41838e-263
2.70338e-264
2.42096e-265
2.74951e-266
4.53201e-267
1.26616e-267
2.75771e-268
4.05984e-269
3.1067e-226
7.81686e-228
2.04023e-229
5.56097e-231
1.59422e-232
4.83953e-234
1.56344e-235
5.37429e-237
1.94641e-238
7.27055e-240
2.72865e-241
9.81562e-243
3.36523e-244
8.40811e-246
1.98697e-247
1.52985e-248
6.947e-250
4.42026e-251
7.26623e-252
8.04332e-253
7.5395e-254
7.91856e-255
7.55137e-256
5.88301e-257
4.3618e-258
3.24051e-259
2.19257e-260
1.48476e-261
8.11468e-263
5.62834e-264
4.46936e-265
3.46814e-266
3.40861e-267
4.85214e-268
1.93876e-268
1.02284e-268
2.55157e-269
7.02891e-270
2.97973e-225
7.89694e-227
2.17081e-228
6.19952e-230
1.84066e-231
5.67598e-233
1.81258e-234
5.98638e-236
2.05023e-237
7.22275e-239
2.59064e-240
9.32694e-242
3.30157e-243
1.1106e-244
3.36089e-246
8.35317e-248
1.75102e-249
6.35485e-251
4.23792e-252
3.66641e-253
3.95949e-254
1.32074e-255
8.15015e-257
6.72171e-258
1.07399e-258
2.80366e-259
9.58792e-260
1.5989e-260
2.22163e-261
2.96902e-262
3.24699e-263
5.45589e-264
6.08247e-265
1.14007e-265
5.45901e-266
2.83112e-266
9.4165e-267
1.94275e-267
4.15155e-223
1.07125e-224
2.86958e-226
7.98924e-228
2.31441e-229
6.97534e-231
2.18367e-232
7.08333e-234
2.38236e-235
8.25393e-237
2.92167e-238
1.04523e-239
3.72754e-241
1.30048e-242
4.36057e-244
1.39507e-245
4.51926e-247
1.65605e-248
8.2058e-250
5.1883e-251
2.88888e-252
1.50345e-253
9.88581e-255
8.26396e-256
6.05417e-257
1.0905e-257
3.20685e-258
5.00358e-259
7.85641e-260
1.11207e-260
1.43983e-261
2.35754e-262
3.11541e-263
4.376e-264
7.95971e-265
1.61974e-265
2.96394e-266
3.13436e-267
1.61135e-221
4.05987e-223
1.06233e-224
2.88982e-226
8.1842e-228
2.41469e-229
7.41856e-231
2.36845e-232
7.84178e-234
2.68094e-235
9.40783e-237
3.36316e-238
1.21473e-239
4.39063e-241
1.57988e-242
5.66007e-244
2.09211e-245
8.489e-247
4.00418e-248
2.12971e-249
1.17985e-250
6.60759e-252
3.71399e-253
2.74144e-254
2.6121e-255
3.16606e-256
5.4151e-257
6.7592e-258
9.10277e-259
9.85112e-260
1.23523e-260
1.55489e-261
1.91154e-262
2.80926e-263
4.32013e-264
6.67731e-265
7.3371e-266
5.63158e-267
2.03141e-220
5.02982e-222
1.29343e-223
3.45829e-225
9.63134e-227
2.79675e-228
8.46574e-230
2.66775e-231
8.73331e-233
2.96104e-234
1.035e-235
3.71051e-237
1.35827e-238
5.05878e-240
1.92071e-241
7.48787e-243
3.09009e-244
1.39687e-245
7.33235e-247
4.20802e-248
2.45749e-249
1.52745e-250
1.04709e-251
8.8103e-253
8.49204e-254
8.19488e-255
8.52857e-256
8.94854e-257
8.85621e-258
9.69744e-259
9.19418e-260
1.02525e-260
1.21911e-261
1.37031e-262
1.5814e-263
1.95541e-264
1.90293e-265
9.88458e-267
8.38784e-220
2.06054e-221
5.25833e-223
1.39613e-224
3.86576e-226
1.11836e-227
3.38361e-229
1.0701e-230
3.52946e-232
1.2094e-233
4.29113e-235
1.57125e-236
5.92957e-238
2.30505e-239
9.27669e-241
3.88337e-242
1.71867e-243
8.11949e-245
4.21276e-246
2.35698e-247
1.39768e-248
8.77342e-250
5.97032e-251
4.45081e-252
3.576e-253
2.89377e-254
2.60937e-255
2.45559e-256
2.36383e-257
2.3498e-258
2.37903e-259
2.51757e-260
2.70518e-261
3.00654e-262
2.8448e-263
2.01654e-264
8.22864e-266
5.24335e-267
1.37847e-219
3.36842e-221
8.55476e-223
2.26294e-224
6.25336e-226
1.80926e-227
5.48585e-229
1.7427e-230
5.79244e-232
2.01046e-233
7.26707e-235
2.72848e-236
1.06458e-237
4.3228e-239
1.83915e-240
8.23736e-242
3.91115e-243
1.97081e-244
1.06465e-245
6.14595e-247
3.77861e-248
2.47056e-249
1.76556e-250
1.38499e-251
1.18874e-252
1.03632e-253
9.19579e-255
8.41834e-256
7.50275e-257
6.816e-258
6.35242e-259
5.73777e-260
5.42491e-261
4.77294e-262
3.68134e-263
2.16601e-264
9.63132e-266
5.44009e-267
1.33061e-219
3.23576e-221
8.18267e-223
2.15802e-224
5.95987e-226
1.7301e-227
5.29172e-229
1.70622e-230
5.78912e-232
2.0584e-233
7.63661e-235
2.94805e-236
1.18656e-237
4.98381e-239
2.20114e-240
1.02211e-241
4.99918e-243
2.57085e-244
1.40003e-245
8.06549e-247
4.88552e-248
3.12285e-249
2.11996e-250
1.53386e-251
1.18811e-252
9.4533e-254
7.68724e-255
6.36451e-256
5.35531e-257
4.56513e-258
3.95892e-259
3.52256e-260
3.10998e-261
2.50709e-262
1.64145e-263
5.74434e-265
2.13396e-266
1.61769e-267
7.46785e-220
1.8034e-221
4.52907e-223
1.18698e-224
3.2615e-226
9.43428e-228
2.88164e-229
9.30497e-231
3.17247e-232
1.13779e-233
4.27579e-235
1.67295e-236
6.81257e-238
2.88141e-239
1.27686e-240
5.93047e-242
2.8893e-243
1.47318e-244
7.92813e-246
4.51948e-247
2.69338e-248
1.67975e-249
1.10036e-250
7.30956e-252
5.21337e-253
3.90238e-254
2.93957e-255
2.16505e-256
1.54104e-257
1.084e-258
7.75521e-260
5.72727e-261
4.15298e-262
2.48934e-263
1.23225e-264
5.65479e-266
2.68889e-267
2.48571e-268
1.66949e-220
4.01025e-222
1.00149e-223
2.61148e-225
7.15314e-227
2.07027e-228
6.35963e-230
2.07736e-231
7.1955e-233
2.61982e-234
9.92573e-236
3.86556e-237
1.54342e-238
6.25533e-240
2.59602e-241
1.13001e-242
5.22508e-244
2.55531e-245
1.36447e-246
7.80716e-248
4.721e-249
2.98451e-250
1.95036e-251
1.30039e-252
8.77266e-254
5.97023e-255
3.99624e-256
2.67104e-257
1.8175e-258
1.28301e-259
1.02152e-260
8.50319e-262
8.35308e-263
8.13166e-264
7.47645e-265
6.66565e-266
6.09833e-267
4.3979e-268
1.21411e-221
2.92224e-223
7.30359e-225
1.9043e-226
5.21295e-228
1.50808e-229
4.63756e-231
1.51974e-232
5.28272e-234
1.92297e-235
7.20071e-237
2.70061e-238
9.93267e-240
3.45294e-241
1.18577e-242
4.70503e-244
2.24617e-245
1.19476e-246
7.37316e-248
4.97714e-249
3.43405e-250
2.45793e-251
1.77521e-252
1.22285e-253
8.52096e-255
6.00713e-256
4.13634e-257
2.667e-258
1.62661e-259
9.578e-261
6.16136e-262
4.28033e-263
3.49263e-264
3.58385e-265
4.13213e-266
8.9336e-267
1.17321e-267
8.91094e-269
2.82668e-223
6.84196e-225
1.71598e-226
4.48442e-228
1.23013e-229
3.5689e-231
1.10254e-232
3.63623e-234
1.27207e-235
4.63707e-237
1.71916e-238
6.26498e-240
2.19733e-241
6.62566e-243
1.84177e-244
6.14758e-246
3.32454e-247
2.34683e-248
2.15614e-249
1.94821e-250
1.64238e-251
1.37503e-252
1.15265e-253
8.78234e-255
6.33619e-256
4.53082e-257
3.17581e-258
2.16231e-259
1.38203e-260
8.63138e-262
5.83662e-263
4.3336e-264
3.71324e-265
3.77015e-266
5.18626e-267
1.23638e-267
2.61319e-268
3.60641e-269
1.85662e-225
4.5475e-227
1.15178e-228
3.03588e-230
8.3945e-232
2.45518e-233
7.65278e-235
2.55301e-236
9.0603e-238
3.35154e-239
1.2558e-240
4.51445e-242
1.36594e-243
1.91957e-245
7.53449e-247
3.90564e-248
2.49859e-249
2.52761e-250
3.18019e-251
3.10286e-252