/*--------------------------------*- C++ -*----------------------------------*\
| =========                 |                                                 |
| \\      /  F ield         | OpenFOAM: The Open Source CFD Toolbox           |
|  \\    /   O peration     | Version:  2.3.1                                 |
|   \\  /    A nd           | Web:      www.OpenFOAM.org                      |
|    \\/     M anipulation  |                                                 |
\*---------------------------------------------------------------------------*/
FoamFile
{
    version     2.0;
    format      ascii;
    class       volScalarField;
    location    "5";
    object      Sed_0;
}
// * * * * * * * * * * * * * * * * * * * * * * * * * * * * * * * * * * * * * //

dimensions      [0 0 0 0 0 0 0];

internalField   nonuniform List<scalar> 
38262
(
2.29063e-230
6.58469e-232
1.96161e-233
6.06764e-235
1.94879e-236
6.481e-238
2.21901e-239
7.74376e-241
2.74979e-242
1.00221e-243
3.68418e-245
1.32751e-246
4.45004e-248
1.26918e-249
2.67379e-251
3.9817e-253
2.2055e-254
1.7081e-255
1.57896e-256
7.19419e-257
8.73953e-258
7.13609e-259
3.87052e-260
1.79421e-260
7.04022e-261
1.59696e-261
4.92662e-262
6.22779e-263
3.11585e-263
3.03443e-264
2.84742e-264
1.31527e-264
5.53784e-265
2.49537e-265
1.35844e-265
6.01672e-266
1.90464e-266
6.29316e-267
4.74508e-228
1.32789e-229
3.85503e-231
1.16376e-232
3.65685e-234
1.19453e-235
4.04106e-237
1.4071e-238
5.03736e-240
1.84377e-241
6.81152e-243
2.4878e-244
8.71138e-246
2.74849e-247
7.6553e-249
1.78056e-250
3.51256e-252
1.44789e-253
1.4197e-254
2.66244e-255
2.22442e-256
2.79466e-257
3.88639e-258
8.53807e-259
2.28016e-259
4.40627e-260
1.27247e-260
2.21958e-261
9.10025e-262
1.84109e-262
4.85148e-263
1.63755e-263
5.61627e-264
1.93895e-264
7.43863e-265
2.98569e-265
1.14416e-265
2.56165e-266
2.29584e-226
6.29832e-228
1.79349e-229
5.31611e-231
1.6432e-232
5.29695e-234
1.77769e-235
6.1863e-237
2.22359e-238
8.19612e-240
3.07125e-241
1.15248e-242
4.2699e-244
1.50289e-245
4.89678e-247
1.48942e-248
4.19697e-250
1.18221e-251
5.14644e-253
2.76445e-254
1.61828e-255
1.08058e-256
1.14287e-257
3.42875e-258
1.19128e-258
2.21661e-259
4.04225e-260
7.0309e-261
3.95887e-261
3.26696e-262
7.70195e-263
1.08985e-263
2.33504e-264
5.96959e-265
1.87134e-265
1.04768e-265
6.60334e-266
2.64176e-266
3.06085e-225
8.29286e-227
2.33302e-228
6.83741e-230
2.09227e-231
6.68848e-233
2.2303e-234
7.73069e-236
2.77366e-237
1.02395e-238
3.86186e-240
1.47335e-241
5.64286e-243
2.13684e-244
7.9664e-246
2.89184e-247
1.12304e-248
4.5732e-250
2.16243e-251
1.18193e-252
7.41403e-254
5.10477e-255
6.11348e-256
7.13817e-257
1.46731e-257
2.90336e-258
3.11285e-259
8.9694e-260
9.88989e-261
2.11726e-261
3.40386e-262
7.11522e-263
1.5047e-263
5.0036e-264
7.09829e-265
1.93491e-265
4.14328e-266
1.71855e-266
1.22714e-224
3.31137e-226
9.28546e-228
2.71584e-229
8.30892e-231
2.66262e-232
8.93769e-234
3.13569e-235
1.145e-236
4.32394e-238
1.68393e-239
6.69989e-241
2.74051e-242
1.1289e-243
4.85618e-245
2.07193e-246
9.74504e-248
4.54212e-249
2.6345e-250
1.3422e-251
9.04253e-253
4.96342e-254
4.94743e-255
3.25689e-256
5.93693e-257
4.6158e-258
1.09731e-258
3.76928e-259
3.2137e-260
9.3616e-261
8.20424e-262
1.90706e-262
2.22548e-263
3.07986e-264
5.4543e-265
1.04648e-265
2.65164e-266
2.06498e-267
1.95633e-224
5.26445e-226
1.47381e-227
4.3112e-229
1.32221e-230
4.25775e-232
1.43831e-233
5.08331e-235
1.87324e-236
7.16613e-238
2.83707e-239
1.15422e-240
4.85846e-242
2.10431e-243
9.53784e-245
4.57424e-246
2.31268e-247
1.27689e-248
7.83377e-250
5.28133e-251
4.01043e-252
2.88763e-253
3.00287e-254
2.37385e-255
3.71414e-256
3.6874e-257
4.56194e-258
1.06102e-258
1.03426e-259
1.01194e-260
1.91717e-261
1.52223e-262
1.97186e-263
1.94328e-264
1.61196e-265
9.43106e-267
4.82283e-267
4.11576e-268
1.89653e-224
5.09405e-226
1.42553e-227
4.17741e-229
1.28745e-230
4.18473e-232
1.43579e-233
5.18889e-235
1.96851e-236
7.76991e-238
3.19554e-239
1.35131e-240
6.02889e-242
2.7594e-243
1.38248e-244
7.23982e-246
4.14054e-247
2.5641e-248
1.58048e-249
1.19357e-250
8.54215e-252
7.09537e-253
5.88156e-254
6.08006e-255
9.46427e-256
1.3589e-256
1.70238e-257
1.68901e-258
2.09684e-259
2.0816e-260
2.7198e-261
3.24752e-262
3.53155e-263
4.11989e-264
3.79923e-265
6.12673e-267
8.47041e-268
9.72371e-269
1.10543e-224
2.95868e-226
8.26158e-228
2.42078e-229
7.47961e-231
2.44348e-232
8.44204e-234
3.07549e-235
1.17613e-236
4.68262e-238
1.94091e-239
8.26e-241
3.67037e-242
1.69703e-243
8.41206e-245
4.58076e-246
2.59702e-247
1.64792e-248
1.00487e-249
7.34538e-251
5.28298e-252
3.65234e-253
3.58399e-254
2.22878e-255
1.18691e-256
8.28929e-258
7.08261e-259
8.9624e-260
7.58127e-261
1.60108e-261
1.25362e-262
2.61604e-263
2.27818e-264
4.02127e-265
3.83553e-266
2.23293e-267
1.3805e-268
1.97647e-269
2.56643e-225
6.84691e-227
1.90789e-228
5.5897e-230
1.73244e-231
5.70354e-233
1.99693e-234
7.40703e-236
2.89184e-237
1.17199e-238
4.9172e-240
2.10211e-241
9.3276e-243
4.30055e-244
2.16661e-245
1.15804e-246
6.91501e-248
3.8263e-249
2.29253e-250
1.41576e-251
1.02841e-252
7.84054e-254
6.19869e-255
6.03831e-256
4.7624e-257
3.75812e-258
2.85688e-259
2.23807e-260
1.66338e-261
1.7757e-262
1.73989e-263
3.80699e-264
5.32719e-265
1.16573e-265
2.44824e-266
4.51333e-267
5.97944e-268
3.28538e-269
1.76801e-226
4.72532e-228
1.31985e-229
3.88034e-231
1.20854e-232
4.00362e-234
1.41109e-235
5.26219e-237
2.05308e-238
8.24282e-240
3.35373e-241
1.36013e-242
5.45501e-244
2.17815e-245
8.33831e-247
3.65957e-248
2.03652e-249
1.16049e-250
8.16071e-252
6.27452e-253
4.87879e-254
4.20719e-255
3.36428e-256
2.66718e-257
1.73671e-258
1.59357e-259
1.36917e-260
9.75136e-262
5.73764e-263
6.66029e-264
8.72447e-265
2.9112e-265
3.96222e-266
1.11944e-266
3.03277e-267
8.398e-268
9.8566e-269
1.56741e-269
3.23633e-228
8.67663e-230
2.42957e-231
7.15884e-233
2.23452e-234
7.41451e-236
2.61188e-237
9.6863e-239
3.72521e-240
1.45933e-241
5.67902e-243
2.23385e-244
7.92136e-246
3.41522e-247
1.39038e-248
7.84889e-250
7.12011e-251
3.71959e-252
2.07238e-253
1.79009e-254
1.92366e-255
2.3311e-256
3.83854e-257
3.42775e-258
2.81522e-259
2.34683e-260
1.93283e-261
1.66866e-262
1.40264e-263
1.24864e-264
1.26093e-265
3.19526e-266
5.49494e-267
1.96388e-267
6.78734e-268
2.42628e-268
7.29645e-269
2.15564e-269
1.38497e-230
3.78174e-232
1.08028e-233
3.25609e-235
1.04303e-236
3.56386e-238
1.29577e-239
4.95776e-241
1.95595e-242
7.74765e-244
2.99238e-245
1.09214e-246
3.7965e-248
1.15805e-249
3.29921e-251
3.66907e-252
8.92747e-253
1.16655e-254
1.43043e-255
2.10588e-256
1.14767e-257
2.10469e-258
7.0392e-259
7.42545e-260
7.9965e-261
8.2828e-262
6.90295e-263
5.77979e-264
3.97554e-265
2.54023e-266
3.84249e-267
1.22279e-267
2.5394e-268
1.18573e-268
6.2807e-269
3.00458e-269
1.50536e-269
1.05405e-269
1.55451e-228
4.36308e-230
1.26976e-231
3.83837e-233
1.20573e-234
3.92847e-236
1.32168e-237
4.55269e-239
1.61521e-240
5.87476e-242
2.16022e-243
7.84049e-245
2.69458e-246
8.37442e-248
1.98864e-249
3.23363e-251
1.13999e-252
5.60399e-254
4.27154e-255
1.31522e-255
1.69191e-256
1.10582e-257
6.7896e-259
2.02755e-259
6.51809e-260
1.43623e-260
4.1407e-261
5.76949e-262
5.70968e-263
1.6266e-263
4.29768e-264
1.66522e-264
1.04693e-264
3.87713e-265
1.70395e-265
5.57874e-266
1.6084e-266
4.83283e-267
2.76128e-226
7.5623e-228
2.14956e-229
6.35355e-231
1.95497e-232
6.25751e-234
2.07764e-235
7.11933e-237
2.51824e-238
9.12943e-240
3.35388e-241
1.22653e-242
4.35429e-244
1.44342e-245
4.35752e-247
1.12386e-248
2.27123e-250
6.3698e-252
3.98216e-253
5.09831e-254
3.94153e-255
3.89098e-256
4.98883e-257
9.26757e-258
2.26635e-258
4.27081e-259
1.2246e-259
1.92458e-260
3.80287e-261
8.10139e-262
1.795e-262
4.5954e-263
1.2348e-263
3.29818e-264
9.23352e-265
2.90827e-265
6.87594e-266
9.32967e-267
1.23789e-224
3.32393e-226
9.26859e-228
2.68966e-229
8.1369e-231
2.5672e-232
8.43706e-234
2.87886e-235
1.01632e-236
3.68908e-238
1.36565e-239
5.09151e-241
1.88691e-242
6.76541e-244
2.33555e-245
7.60124e-247
2.34153e-248
6.29556e-250
2.25414e-251
1.07537e-252
5.16547e-254
3.55661e-255
3.869e-256
8.26126e-257
2.21209e-257
3.81094e-258
6.97384e-259
5.80627e-260
2.69419e-260
2.53616e-261
5.33396e-262
8.16488e-263
1.22889e-263
3.47126e-264
6.23077e-265
3.77633e-265
1.00781e-265
3.23493e-266
1.6135e-223
4.27541e-225
1.17679e-226
3.37298e-228
1.00894e-229
3.15198e-231
1.02745e-232
3.48536e-234
1.22599e-235
4.44943e-237
1.65528e-238
6.25966e-240
2.39019e-241
9.11575e-243
3.47076e-244
1.33524e-245
5.47269e-247
2.32395e-248
1.04504e-249
5.63553e-251
3.23329e-252
2.30788e-253
2.11729e-254
2.56184e-255
3.82438e-256
5.27946e-257
5.97911e-258
1.04581e-258
1.25698e-259
1.90869e-260
3.01045e-261
4.49816e-262
9.46662e-263
2.02025e-263
2.52217e-264
6.85077e-265
1.09253e-265
1.28524e-266
6.49079e-223
1.71178e-224
4.69231e-226
1.34093e-227
4.00579e-229
1.25288e-230
4.10461e-232
1.40641e-233
5.02194e-235
1.85838e-236
7.10152e-238
2.7835e-239
1.12101e-240
4.59217e-242
1.95073e-243
8.42709e-245
3.92834e-246
1.9137e-247
1.06654e-248
5.64053e-250
3.35404e-251
2.0134e-252
1.55548e-253
1.22478e-254
1.48371e-255
1.4409e-256
2.30494e-257
4.19089e-258
4.48232e-259
6.94393e-260
7.85674e-261
1.16255e-261
1.27434e-262
1.87886e-263
3.12041e-264
4.1981e-265
5.43999e-266
3.02862e-267
1.04191e-222
2.73894e-224
7.49121e-226
2.13937e-227
6.40067e-229
2.00976e-230
6.62181e-232
2.28537e-233
8.23985e-235
3.09218e-236
1.20389e-237
4.83708e-239
2.01469e-240
8.67223e-242
3.92457e-243
1.87299e-244
9.55439e-246
5.22221e-247
3.1715e-248
2.06837e-249
1.48459e-250
1.09151e-251
9.38274e-253
8.30636e-254
9.57326e-255
1.03459e-255
1.14486e-256
1.57372e-257
1.45965e-258
1.5226e-259
2.08726e-260
1.70635e-261
2.21236e-262
1.8996e-263
1.95137e-264
1.11904e-265
7.28559e-267
2.34412e-268
1.00945e-222
2.64679e-224
7.22949e-226
2.06596e-227
6.20322e-229
1.96321e-230
6.55821e-232
2.30977e-233
8.55024e-235
3.30392e-236
1.33002e-237
5.53417e-239
2.41537e-240
1.09224e-241
5.31657e-243
2.73679e-244
1.51611e-245
8.88245e-247
5.50623e-248
3.75132e-249
2.62604e-250
1.98912e-251
1.5976e-252
1.45146e-253
1.59931e-254
1.69638e-255
1.60735e-256
1.35933e-257
1.30481e-258
1.15241e-259
1.07573e-260
1.03784e-261
1.10999e-262
1.16488e-263
9.0548e-265
3.83683e-266
8.82711e-268
5.68324e-269
5.83961e-223
1.5244e-224
4.14964e-226
1.18383e-227
3.55657e-229
1.12882e-230
3.78981e-232
1.34375e-233
5.01347e-235
1.95471e-236
7.94938e-238
3.33729e-239
1.46464e-240
6.70652e-242
3.28312e-243
1.74184e-244
9.70725e-246
5.75805e-247
3.46356e-248
2.30365e-249
1.57529e-250
1.08563e-251
8.64351e-253
5.5444e-254
3.5598e-255
2.53226e-256
2.17224e-257
1.77983e-258
1.42758e-259
1.21501e-260
9.75255e-262
1.08812e-262
9.52836e-264
1.04203e-264
1.00963e-265
6.00417e-267
1.56237e-268
2.80249e-269
1.34962e-223
3.50915e-225
9.52162e-227
2.7118e-228
8.15611e-230
2.60262e-231
8.82988e-233
3.17754e-234
1.20572e-235
4.76887e-237
1.95483e-238
8.20485e-240
3.57415e-241
1.61052e-242
7.76639e-244
3.95391e-245
2.14437e-246
1.14567e-247
6.62768e-249
4.10461e-250
2.79707e-251
2.04472e-252
1.5486e-253
1.25612e-254
9.27931e-256
6.78421e-257
4.81927e-258
3.28064e-259
2.19337e-260
1.57029e-261
1.31528e-262
1.47748e-263
2.22135e-264
4.15255e-265
6.99279e-266
9.73569e-267
1.26051e-267
1.22017e-268
9.52612e-225
2.48084e-226
6.74283e-228
1.92468e-229
5.80675e-231
1.86047e-232
6.34025e-234
2.28976e-235
8.68262e-237
3.40675e-238
1.36275e-239
5.47989e-241
2.18505e-242
8.66767e-244
3.30899e-245
1.42827e-246
7.30759e-248
4.01415e-249
2.64968e-250
1.97441e-251
1.45623e-252
1.24263e-253
9.70882e-255
6.69876e-256
5.11023e-257
4.14143e-258
3.35808e-259
2.40021e-260
1.48811e-261
7.94128e-263
6.20866e-264
6.55523e-265
8.85371e-266
2.67611e-266
6.78731e-267
2.37762e-267
3.05909e-268
2.44832e-269
1.91083e-226
4.99661e-228
1.36231e-229
3.89929e-231
1.17957e-232
3.78841e-234
1.29256e-235
4.6592e-237
1.75277e-238
6.76716e-240
2.62201e-241
1.02029e-242
3.7708e-244
1.47496e-245
5.67558e-247
2.79864e-248
1.73847e-249
8.23314e-251
5.37816e-252
6.3427e-253
6.54362e-254
7.14156e-255
8.82677e-256
7.81089e-257
6.44876e-258
5.64503e-259
5.04615e-260
4.55827e-261
3.85858e-262
3.00477e-263
2.35227e-264
1.93646e-265
1.84881e-266
3.82573e-267
1.08159e-267
4.97372e-268
1.37874e-268
2.59563e-269
9.89841e-229
2.63521e-230
7.32124e-232
2.13927e-233
6.62239e-235
2.18188e-236
7.64983e-238
2.83196e-239
1.08919e-240
4.2454e-242
1.63532e-243
5.99737e-245
2.08294e-246
6.44634e-248
1.61589e-249
1.60587e-250
1.98378e-251
5.21073e-253
4.85706e-254
8.51485e-255
7.29757e-256
1.09464e-256
1.87047e-257
1.56521e-258
1.21024e-259
1.15024e-260
9.40646e-262
8.10044e-263
5.43649e-264
2.64517e-265
2.02216e-266
2.78513e-267
3.60646e-268
1.18282e-268
7.55583e-269
4.63023e-269
1.50611e-269
9.56091e-270
3.89193e-227
1.06974e-228
3.05005e-230
9.03667e-232
2.78391e-233
8.90542e-235
2.94744e-236
1.00402e-237
3.54458e-239
1.28398e-240
4.71392e-242
1.72011e-243
6.04322e-245
1.95387e-246
5.12513e-248
8.74216e-250
2.33541e-251
9.27366e-253
6.17248e-254
1.65399e-254
1.74142e-255
7.37776e-257
4.28458e-258
8.17694e-259
2.36842e-259
5.74789e-260
1.63732e-260
2.25629e-261
2.21209e-262
4.71894e-263
6.40138e-264
2.15849e-264
6.53548e-265
2.65495e-265
1.42879e-265
4.30626e-266
1.44938e-266
2.95063e-267
6.17469e-225
1.65519e-226
4.60672e-228
1.33328e-229
4.01749e-231
1.2599e-232
4.10322e-234
1.38245e-235
4.82245e-237
1.72823e-238
6.29906e-240
2.30085e-241
8.25306e-243
2.82673e-244
8.97733e-246
2.54512e-247
6.24061e-249
1.56726e-250
7.84697e-252
6.87843e-253
4.76579e-254
3.37353e-255
3.55466e-256
5.27357e-257
1.07545e-257
2.00878e-258
5.63807e-259
7.96656e-260
1.38673e-260
2.40766e-261
3.99016e-262
9.38649e-263
2.03962e-263
4.13194e-264
1.05375e-264
2.70289e-265
6.12859e-266
7.14962e-267
2.57562e-223
6.76043e-225
1.84323e-226
5.22856e-228
1.54562e-229
4.76408e-231
1.52991e-232
5.10498e-234
1.76493e-235
6.28735e-237
2.29083e-238
8.44938e-240
3.11854e-241
1.13126e-242
4.01083e-244
1.36937e-245
4.63376e-247
1.43542e-248
5.29756e-250
2.50885e-251
1.18078e-252
7.71774e-254
6.42804e-255
8.78325e-256
1.89587e-256
2.88456e-257
5.33577e-258
5.02193e-259
1.12939e-259
7.93126e-261
1.89093e-261
2.85217e-262
4.19369e-263
8.12589e-264
1.78481e-264
6.1226e-265
9.73332e-266
1.32175e-266
3.28365e-222
8.49349e-224
2.28241e-225
6.38372e-227
1.86213e-228
5.67013e-230
1.80124e-231
5.95788e-233
2.0459e-234
7.26315e-236
2.65028e-237
9.87083e-239
3.72993e-240
1.41972e-241
5.44897e-243
2.13091e-244
8.86991e-246
3.96432e-247
1.92854e-248
1.0631e-249
6.09684e-251
4.1149e-252
3.23609e-253
3.50447e-254
4.35318e-255
5.02968e-256
5.93422e-257
7.69891e-258
9.05454e-259
1.28353e-259
1.53064e-260
1.91001e-261
3.34592e-262
5.50429e-263
7.06921e-264
1.33816e-264
1.44084e-265
7.71067e-267
1.32663e-221
3.41178e-223
9.12004e-225
2.53972e-226
7.38709e-228
2.24795e-229
7.16196e-231
2.3866e-232
8.29292e-234
2.9906e-235
1.11504e-236
4.2771e-238
1.68668e-239
6.81085e-241
2.84366e-242
1.22447e-243
5.62035e-245
2.74479e-246
1.5073e-247
8.46428e-249
5.04728e-250
3.21248e-251
2.26783e-252
1.80085e-253
1.78352e-254
1.69726e-255
2.04346e-256
2.43084e-257
2.75511e-258
2.9752e-259
3.41575e-260
4.48195e-261
5.17183e-262
7.07195e-263
9.23473e-264
7.79771e-265
2.66464e-266
2.09741e-267
2.1444e-221
5.49361e-223
1.46401e-224
4.07005e-226
1.18416e-227
3.61269e-229
1.15618e-230
3.87744e-232
1.35985e-233
4.97275e-235
1.88988e-236
7.43608e-238
3.03593e-239
1.2856e-240
5.71941e-242
2.6827e-243
1.34353e-244
7.17118e-246
4.19234e-247
2.63376e-248
1.78341e-249
1.27399e-250
1.00984e-251
8.67449e-253
8.59888e-254
8.49243e-255
8.75478e-256
9.54988e-257
8.95549e-258
8.6349e-259
9.59667e-260
8.78385e-261
9.95807e-262
9.32439e-263
8.70822e-264
5.70348e-265
7.26509e-267
3.54662e-268
2.0753e-221
5.29861e-223
1.40863e-224
3.9133e-226
1.14083e-227
3.5018e-229
1.13381e-230
3.87072e-232
1.38962e-233
5.21817e-235
2.04184e-236
8.28824e-238
3.51701e-239
1.55444e-240
7.31292e-242
3.64267e-243
1.93225e-244
1.07916e-245
6.42315e-247
4.08686e-248
2.71893e-249
1.92386e-250
1.44639e-251
1.1886e-252
1.07961e-253
9.80343e-255
8.67072e-256
7.43484e-257
6.4445e-258
5.6629e-259
5.04224e-260
4.85705e-261
4.93109e-262
4.70539e-263
3.74583e-264
2.00767e-265
2.62128e-267
8.88432e-269
1.19018e-221
3.02247e-223
7.9975e-225
2.21424e-226
6.44499e-228
1.97914e-229
6.42446e-231
2.20341e-232
7.96145e-234
3.0144e-235
1.19227e-236
4.89095e-238
2.09748e-239
9.38467e-241
4.4653e-242
2.26332e-243
1.20922e-244
6.75361e-246
3.92825e-247
2.44096e-248
1.57904e-249
1.05654e-250
7.60179e-252
5.15894e-253
3.64231e-254
2.75931e-255
2.13078e-256
1.6526e-257
1.1495e-258
8.53399e-260
6.01756e-261
4.93869e-262
3.93078e-263
3.10387e-264
2.34344e-265
1.6616e-266
4.08501e-268
6.08882e-269
2.73366e-222
6.91081e-224
1.82098e-225
5.02642e-227
1.46214e-228
4.50471e-230
1.47407e-231
5.11794e-233
1.87607e-234
7.19506e-236
2.86563e-237
1.17332e-238
4.98579e-240
2.17876e-241
9.97158e-243
4.8234e-244
2.44173e-245
1.25648e-246
7.00967e-248
4.22545e-249
2.7414e-250
1.87961e-251
1.34541e-252
9.99484e-254
7.15494e-255
5.08341e-256
3.45156e-257
2.25716e-258
1.53442e-259
1.04435e-260
8.90599e-262
8.36026e-263
1.08289e-263
1.48559e-264
1.84959e-265
2.08606e-266
2.42338e-267
2.18976e-268
1.97338e-223
4.99812e-225
1.31903e-226
3.64689e-228
1.06305e-229
3.28406e-231
1.07809e-232
3.75457e-234
1.37743e-235
5.25632e-237
2.05621e-238
8.13776e-240
3.20099e-241
1.24364e-242
4.69484e-244
1.96937e-245
9.79423e-247
5.18674e-248
3.24919e-249
2.32055e-250
1.65829e-251
1.29867e-252
1.00625e-253
6.78639e-255
4.8879e-256
3.77421e-257
2.90209e-258
2.01457e-259
1.30535e-260
7.46095e-262
5.27363e-263
3.77816e-264
4.02216e-265
7.33298e-266
1.61795e-266
4.34e-267
5.45627e-268
4.71939e-269
4.28218e-225
1.09025e-226
2.88865e-228
8.0144e-230
2.34422e-231
7.26849e-233
2.39479e-234
8.35994e-236
3.06194e-237
1.15839e-238
4.43903e-240
1.70367e-241
6.3606e-243
2.36265e-244
8.57662e-246
3.72377e-247
1.7815e-248
8.05229e-250
6.89139e-251
7.80406e-252
7.50295e-253
7.37189e-254
7.79421e-255
6.63902e-256
5.31138e-257
4.36566e-258
3.59004e-259
2.91427e-260
2.24615e-261
1.61115e-262
1.22887e-263
1.00752e-264
9.06281e-266
1.20498e-266
2.32577e-267
8.35799e-268
2.11775e-268
3.47076e-269
2.50113e-227
6.47253e-229
1.74283e-230
4.91847e-232
1.46531e-233
4.63355e-235
1.55826e-236
5.54964e-238
2.06723e-239
7.87596e-241
2.99275e-242
1.09021e-243
3.73726e-245
1.09712e-246
2.37846e-248
2.32836e-249
1.60843e-250
5.74399e-252
7.73038e-253
1.12106e-253
1.03536e-254
1.2933e-255
1.54926e-256
1.23681e-257
9.3178e-259
7.70376e-260
5.64048e-261
4.27032e-262
2.50544e-263
1.58019e-264
1.2735e-265
9.97964e-267
1.00417e-267
2.06009e-268
1.1591e-268
7.23481e-269
2.02899e-269
7.44046e-270
4.51033e-226
1.21462e-227
3.3931e-229
9.84963e-231
2.97317e-232
9.32213e-234
3.02652e-235
1.01522e-236
3.53033e-238
1.26142e-239
4.57935e-241
1.66141e-242
5.87171e-244
1.94043e-245
5.51639e-247
1.10991e-248
2.47665e-250
9.72925e-252
6.39935e-253
1.11239e-253
1.26037e-254
3.36564e-256
1.98564e-257
2.26888e-258
5.17001e-259
1.46714e-259
4.32502e-260
6.50085e-261
7.65142e-262
1.36159e-262
1.26056e-263
3.57112e-264
5.39181e-265
1.403e-265
9.16941e-266
3.42118e-266
1.04295e-266
2.04224e-267
6.57952e-224
1.7268e-225
4.70535e-227
1.33298e-228
3.93057e-230
1.20615e-231
3.84493e-233
1.26954e-234
4.34448e-236
1.52987e-237
5.49349e-239
1.98649e-240
7.1142e-242
2.46524e-243
8.06997e-245
2.44638e-246
7.28229e-248
2.1804e-249
1.06363e-250
7.45817e-252
4.98702e-253
2.50924e-254
2.09136e-255
2.31237e-256
2.9242e-257
5.58365e-258
1.54928e-258
2.36777e-259
3.71093e-260
6.79237e-261
8.21401e-262
1.7585e-262
2.83509e-263
4.22644e-264
9.92093e-265
2.23159e-265
3.40394e-266
3.19991e-267
2.61883e-222
6.72065e-224
1.79144e-225
4.96597e-227
1.43385e-228
4.3149e-230
1.35255e-231
4.40617e-233
1.48823e-234
5.18631e-236
1.85241e-237
6.72217e-239
2.45422e-240
8.89863e-242
3.18334e-243
1.11672e-244
4.00169e-246
1.47768e-247
6.17565e-249
3.12182e-250
1.62324e-251
1.00759e-252
6.43464e-254
5.94606e-255
8.53497e-256
1.17885e-256
2.08359e-257
2.68256e-258
3.80557e-259
4.18768e-260
5.93744e-261
8.47781e-262
1.10111e-262
1.83323e-263
3.38572e-264
7.51219e-265
1.01387e-265
7.86714e-267
3.30212e-221
8.33932e-223
2.18769e-224
5.96979e-226
1.69779e-227
5.03705e-229
1.55842e-230
5.02036e-232
1.67985e-233
5.81773e-235
2.07465e-236
7.57279e-238
2.81459e-239
1.0598e-240
4.0483e-242
1.58158e-243
6.55465e-245
2.98767e-246
1.55605e-247
8.83611e-249
5.14598e-250
3.31392e-251
2.40654e-252
2.26847e-253
2.42964e-254
2.52087e-255
2.79499e-256
3.23129e-257
3.35556e-258
4.22806e-259
4.2621e-260
5.1834e-261
7.58414e-262
1.02355e-262
1.26004e-263
1.71603e-264
1.73954e-265
9.03657e-267
1.34561e-220
3.37525e-222
8.79745e-224
2.38698e-225
6.75866e-227
2.00058e-228
6.19592e-230
2.00642e-231
6.77606e-233
2.37661e-234
8.62595e-236
3.22687e-237
1.24253e-238
4.91662e-240
2.01192e-241
8.53892e-243
3.84187e-244
1.845e-245
9.8881e-247
5.65458e-248
3.41976e-249
2.19134e-250
1.52326e-251
1.17525e-252
1.02864e-253
8.95207e-255
8.98344e-256
9.27249e-257
9.53279e-258
9.73409e-259
1.04464e-259
1.20145e-260
1.35095e-261
1.66384e-262
1.84509e-263
1.63477e-264
5.13896e-266
2.97286e-267
2.19215e-220
5.47362e-222
1.42108e-223
3.8453e-225
1.08779e-226
3.22388e-228
1.0017e-229
3.26118e-231
1.11067e-232
3.94762e-234
1.45988e-235
5.60022e-237
2.2308e-238
9.23663e-240
4.01168e-241
1.83624e-242
8.9375e-244
4.62668e-245
2.59064e-246
1.55805e-247
1.00356e-248
6.86524e-250
5.16133e-251
4.23642e-252
3.8605e-253
3.54197e-254
3.34417e-255
3.29552e-256
3.06547e-257
2.87755e-258
2.86883e-259
2.65043e-260
2.67103e-261
2.46555e-262
2.07969e-263
1.48301e-264
2.08145e-266
1.44018e-267
2.11906e-220
5.26928e-222
1.36339e-223
3.68202e-225
1.04219e-226
3.1027e-228
9.73588e-230
3.22032e-231
1.12036e-232
4.08111e-234
1.55006e-235
6.11946e-237
2.52144e-238
1.0843e-239
4.92949e-241
2.36443e-242
1.2e-243
6.40735e-245
3.63357e-246
2.18716e-247
1.38274e-248
9.24637e-250
6.57134e-251
5.01202e-252
4.13507e-253
3.47497e-254
2.94998e-255
2.53078e-256
2.19112e-257
1.89827e-258
1.69214e-259
1.55542e-260
1.45052e-261
1.24333e-262
8.71796e-264
4.22171e-265
8.23459e-267
5.41209e-268
1.20326e-220
2.97353e-222
7.64878e-224
2.05552e-225
5.79812e-227
1.72318e-228
5.40904e-230
1.79394e-231
6.2734e-233
2.30315e-234
8.84637e-236
3.53393e-237
1.47397e-238
6.40545e-240
2.93938e-241
1.42108e-242
7.22591e-244
3.83585e-245
2.14065e-246
1.26762e-247
7.83204e-249
5.05433e-250
3.44418e-251
2.34456e-252
1.72234e-253
1.33589e-254
1.03372e-255
7.89447e-257
5.62753e-258
4.06775e-259
2.92743e-260
2.21739e-261
1.68117e-262
1.04265e-263
5.4601e-265
3.79333e-266
1.28812e-267
1.40777e-268
2.73396e-221
6.72288e-223
1.72078e-224
4.60542e-226
1.29647e-227
3.85942e-229
1.21919e-230
4.08845e-232
1.44976e-233
5.39227e-235
2.08683e-236
8.3154e-238
3.4272e-239
1.44485e-240
6.27282e-242
2.86861e-243
1.37616e-244
6.86363e-246
3.73505e-247
2.19046e-248
1.36746e-249
8.96191e-251
6.08677e-252
4.25734e-253
2.98145e-254
2.08728e-255
1.42017e-256
9.45227e-258
6.51203e-259
4.535e-260
3.71298e-261
3.27699e-262
3.53656e-263
4.07136e-264
4.45576e-265
4.43819e-266
4.37242e-267
3.4755e-268
1.99333e-222
4.91173e-224
1.25884e-225
3.37227e-227
9.50201e-229
2.83225e-230
8.96545e-232
3.01477e-233
1.07141e-234
3.97802e-236
1.52006e-237
5.87169e-239
2.25043e-240
8.36685e-242
3.03911e-243
1.22125e-244
5.87711e-246
3.07359e-247
1.90115e-248
1.31733e-249
9.23465e-251
6.86674e-252
5.12843e-253
3.5119e-254
2.51653e-255
1.86682e-256
1.37335e-257
9.15605e-259
5.81514e-260
3.46242e-261
2.33749e-262
1.65691e-263
1.45476e-264
1.7918e-265
3.09278e-266
7.27004e-267
9.1702e-268
7.14897e-269
4.53762e-224
1.12456e-225
2.89404e-227
7.77899e-229
2.1991e-230
6.57978e-232
2.09258e-233
7.07328e-235
2.52187e-236
9.33769e-238
3.51883e-239
1.32279e-240
4.84835e-242
1.70763e-243
5.60986e-245
2.05417e-246
9.2294e-248
5.14603e-249
4.80231e-250
4.83577e-251
4.36042e-252
3.93245e-253
3.65098e-254
2.94374e-255
2.22505e-256
1.68778e-257
1.26938e-258
9.32375e-260
6.46007e-261
4.29646e-262
3.10075e-263
2.44831e-264
2.18808e-265
2.45662e-266
3.99862e-267
1.11399e-267
2.44097e-268
3.59261e-269
2.86985e-226
7.21209e-228
1.88006e-229
5.11831e-231
1.4657e-232
4.44478e-234
1.43454e-235
4.92689e-237
1.78302e-238
6.65591e-240
2.49649e-241
8.9758e-243
3.07479e-244
7.67165e-246
1.81198e-247
1.39165e-248
6.31424e-250
4.01008e-251
6.58667e-252
7.29311e-253
6.83104e-254
7.17166e-255
6.83804e-256
5.32572e-257
3.95057e-258
2.94073e-259
1.99508e-260
1.35583e-261
7.39495e-263
5.11221e-264
4.06079e-265
3.14684e-266
3.0766e-267
4.28038e-268
1.6476e-268
8.98282e-269
2.26946e-269
6.38839e-270
2.75413e-225
7.29174e-227
2.00254e-228
5.71434e-230
1.69556e-231
5.2264e-233
1.66872e-234
5.50963e-236
1.88682e-237
6.64795e-239
2.38554e-240
8.59664e-242
3.04849e-243
1.02873e-244
3.1309e-246
7.85436e-248
1.64362e-249
5.82113e-251
3.81276e-252
3.2765e-253
3.58215e-254
1.19528e-255
7.365e-257
6.00747e-258
9.5721e-259
2.45313e-259
8.52016e-260
1.44841e-260
2.05113e-261
2.74032e-262
2.96842e-263
5.12817e-264
5.6364e-265
1.00236e-265
4.45614e-266
2.48469e-266
8.73563e-267
1.85764e-267
3.83934e-223
9.89717e-225
2.6486e-226
7.36746e-228
2.13272e-229
6.42416e-231
2.0104e-232
6.51952e-234
2.19249e-235
7.59669e-237
2.68992e-238
9.62975e-240
3.43817e-241
1.2017e-242
4.03905e-244
1.29476e-245
4.18884e-247
1.52745e-248
7.45538e-250
4.69932e-251
2.6334e-252
1.36752e-253
8.89837e-255
7.42429e-256
5.43286e-257
9.59144e-258
2.84498e-258
4.49205e-259
7.09784e-260
1.0047e-260
1.3011e-261
2.13699e-262
2.83721e-263
3.96689e-264
7.08102e-265
1.44848e-265
2.67731e-266
2.87287e-267
1.49084e-221
3.7526e-223
9.80983e-225
2.66601e-226
7.54416e-228
2.22434e-229
6.83028e-231
2.17994e-232
7.21608e-234
2.46696e-235
8.65835e-237
3.0964e-238
1.11907e-239
4.0484e-241
1.4581e-242
5.22623e-244
1.92953e-245
7.79731e-247
3.65915e-248
1.94018e-249
1.07641e-250
6.02234e-252
3.36965e-253
2.47075e-254
2.33436e-255
2.81828e-256
4.83846e-257
6.08057e-258
8.2184e-259
8.89996e-260
1.11601e-260
1.40156e-261
1.72574e-262
2.5371e-263
3.88518e-264
5.94978e-265
6.5348e-266
5.04723e-267
1.87983e-220
4.65002e-222
1.1946e-223
3.19095e-225
8.87904e-227
2.57637e-228
7.7939e-230
2.45493e-231
8.03414e-233
2.7236e-234
9.52007e-236
3.41338e-237
1.24978e-238
4.65588e-240
1.76791e-241
6.88902e-243
2.83808e-244
1.27825e-245
6.68209e-247
3.82985e-248
2.23848e-249
1.3892e-250
9.49534e-252
7.95559e-253
7.65365e-254
7.37877e-255
7.68566e-256
8.07293e-257
8.00189e-258
8.75819e-259
8.29245e-260
9.24125e-261
1.09757e-261
1.22691e-262
1.41545e-263
1.75488e-264
1.7119e-265
9.09173e-267
7.76022e-220
1.90452e-221
4.85542e-223
1.28786e-224
3.56271e-226
1.02985e-227
3.11368e-229
9.84198e-231
3.24485e-232
1.11158e-233
3.94341e-235
1.44378e-236
5.44806e-238
2.11757e-239
8.51937e-241
3.56393e-242
1.5752e-243
7.4259e-245
3.84306e-246
2.14673e-247
1.27184e-248
7.97191e-250
5.41462e-251
4.02961e-252
3.23253e-253
2.61124e-254
2.35455e-255
2.21615e-256
2.13304e-257
2.11884e-258
2.1426e-259
2.26507e-260
2.43311e-261
2.70032e-262
2.55499e-263
1.81558e-264
7.56602e-266
4.83409e-267
1.27497e-219
3.11243e-221
7.89673e-223
2.08671e-224
5.76083e-226
1.66532e-227
5.04562e-229
1.60184e-230
5.32156e-232
1.84625e-233
6.67131e-235
2.50403e-236
9.76682e-238
3.96416e-239
1.68552e-240
7.54254e-242
3.57686e-243
1.79957e-244
9.70436e-246
5.59336e-247
3.4343e-248
2.24183e-249
1.59876e-250
1.25166e-251
1.07292e-252
9.34782e-254
8.29578e-255
7.5952e-256
6.76663e-257
6.14512e-258
5.72163e-259
5.16511e-260
4.88443e-261
4.29273e-262
3.30444e-263
1.92112e-264
8.54041e-266
4.97469e-267
1.23066e-219
2.98969e-221
7.55262e-223
1.98972e-224
5.48949e-226
1.59206e-227
4.86544e-229
1.56764e-230
5.31574e-232
1.88918e-233
7.00603e-235
2.70355e-236
1.08767e-237
4.56608e-239
2.01528e-240
9.34998e-242
4.56816e-243
2.3462e-244
1.27596e-245
7.34128e-247
4.44148e-248
2.83543e-249
1.92213e-250
1.38866e-251
1.07422e-252
8.53742e-254
6.9367e-255
5.74042e-256
4.82811e-257
4.11338e-258
3.56553e-259
3.17178e-260
2.79825e-261
2.25186e-262
1.47088e-263
5.11173e-265
1.92159e-266
1.46714e-267
6.90843e-220
1.6666e-221
4.18107e-223
1.09456e-224
3.00435e-226
8.68187e-228
2.64943e-229
8.54835e-231
2.91252e-232
1.04395e-233
3.92091e-235
1.53329e-236
6.2403e-238
2.6376e-239
1.16785e-240
5.41888e-242
2.6372e-243
1.34309e-244
7.21965e-246
4.11094e-247
2.44718e-248
1.52446e-249
9.97358e-251
6.61759e-252
4.71573e-253
3.52717e-254
2.6552e-255
1.95414e-256
1.38956e-257
9.76232e-259
6.97512e-260
5.14633e-261
3.72505e-262
2.22474e-263
1.0953e-264
4.99164e-266
2.40686e-267
2.21648e-268
1.5447e-220
3.70658e-222
9.24636e-224
2.40829e-225
6.5892e-227
1.90503e-228
5.84628e-230
1.908e-231
6.6039e-233
2.40291e-234
9.09877e-236
3.5415e-237
1.41311e-238
5.72259e-240
2.37246e-241
1.03155e-242
4.76446e-244
2.32739e-245
1.24145e-246
7.09635e-248
4.28737e-249
2.70806e-250
1.76832e-251
1.17825e-252
7.94481e-254
5.40564e-255
3.61778e-256
2.41705e-257
1.64374e-258
1.15949e-259
9.2179e-261
7.65926e-262
7.51144e-263
7.28864e-264
6.67749e-265
5.94746e-266
5.43285e-267
3.90684e-268
1.12311e-221
2.70028e-223
6.74112e-225
1.75557e-226
4.80029e-228
1.38718e-229
4.26145e-231
1.39521e-232
4.84602e-234
1.76283e-235
6.59711e-237
2.47273e-238
9.08795e-240
3.15658e-241
1.08275e-242
4.28926e-244
2.04492e-245
1.08645e-246
6.69882e-248
4.51874e-249
3.11592e-250
2.22909e-251
1.60905e-252
1.10799e-253
7.71999e-255
5.44303e-256
3.74851e-257
2.41721e-258
1.47396e-259
8.66314e-261
5.55483e-262
3.84384e-263
3.12536e-264
3.1746e-265
3.61588e-266
7.81688e-267
1.03503e-267
7.88266e-269
2.61356e-223
6.31892e-225
1.58292e-226
4.13172e-228
1.13208e-229
3.28082e-231
1.0125e-232
3.33618e-234
1.16617e-235
4.24821e-237
1.57405e-238
5.73274e-240
2.00902e-241
6.05203e-243
1.6797e-244
5.59754e-246
3.02109e-247
2.13063e-248
1.95653e-249
1.76728e-250
1.48907e-251
1.24608e-252
1.04414e-253
7.95273e-255
5.73796e-256
4.10546e-257
2.88069e-258
1.9638e-259
1.25732e-260
7.84835e-262
5.29781e-263
3.92676e-264
3.36111e-265
3.38428e-266
4.58684e-267
1.08522e-267
2.30656e-268
3.1842e-269
1.7156e-225
4.19706e-227
1.06172e-228
2.79517e-230
7.72018e-232
2.25551e-233
7.02316e-235
2.34072e-236
8.29999e-238
3.06817e-239
1.14905e-240
4.12801e-242
1.24711e-243
1.75272e-245
6.87102e-247
3.55299e-248
2.26981e-249