/*--------------------------------*- C++ -*----------------------------------*\
| =========                 |                                                 |
| \\      /  F ield         | OpenFOAM: The Open Source CFD Toolbox           |
|  \\    /   O peration     | Version:  2.3.1                                 |
|   \\  /    A nd           | Web:      www.OpenFOAM.org                      |
|    \\/     M anipulation  |                                                 |
\*---------------------------------------------------------------------------*/
FoamFile
{
    version     2.0;
    format      ascii;
    class       volVectorField;
    location    "5";
    object      U;
}
// * * * * * * * * * * * * * * * * * * * * * * * * * * * * * * * * * * * * * //

dimensions      [0 1 -1 0 0 0 0];

internalField   nonuniform List<vector> 
38262
(
(0.0198263 -0.00019813 -0.000243157)
(0.0212793 -0.000214525 -0.000256259)
(0.0228119 -0.000226821 -0.000267857)
(0.0244037 -0.000232084 -0.000277126)
(0.0260235 -0.000226685 -0.00028295)
(0.0276269 -0.000206659 -0.000283506)
(0.029146 -0.000169782 -0.000277378)
(0.0304927 -0.000113775 -0.00026192)
(0.0315278 -1.73029e-05 -0.000233108)
(0.0320616 0.000150371 -0.000179206)
(0.0317093 0.000453246 -8.17615e-05)
(0.0299207 0.00105962 0.000111003)
(0.0251964 0.00235445 0.00048527)
(0.0152203 0.00548914 0.00132472)
(-0.00707451 0.0135377 0.00301277)
(-0.0548135 0.0376998 0.00592888)
(-0.160689 0.0875419 0.00833631)
(-0.414359 0.0454402 0.0138601)
(-0.615722 -0.154012 0.0144613)
(-0.517465 -0.221109 -0.00138997)
(-0.40425 -0.076371 -0.0183557)
(-0.348051 0.00574331 -0.0164381)
(-0.379543 -0.0675655 0.0222206)
(-0.511558 -0.118017 0.0239802)
(-0.506716 -0.14611 0.00985302)
(-0.493223 -0.153005 0.0306535)
(-0.551076 -0.157545 0.0284098)
(-0.655054 -0.170956 0.0292493)
(-0.74332 -0.144272 0.0638541)
(-1.18852 -0.303837 0.0252369)
(-1.13079 -0.514832 0.0212249)
(-1.19887 -0.661902 0.00281061)
(-1.10794 -0.836584 -0.00378358)
(-1.27216 -1.19948 0.0303211)
(-1.30726 -1.5703 -0.0247)
(-1.29541 -1.98776 -0.0860739)
(-1.2778 -2.60371 -0.227902)
(-0.215562 -3.27656 -0.714944)
(0.0200175 -0.000450307 -0.000281158)
(0.0214848 -0.000489429 -0.000297185)
(0.0230367 -0.000516508 -0.000311706)
(0.0246541 -0.000522948 -0.000323795)
(0.0263064 -0.000497305 -0.000332319)
(0.0279478 -0.000423726 -0.00033583)
(0.0295145 -0.000277685 -0.000332253)
(0.0309333 -2.85204e-05 -0.000319716)
(0.0320896 0.000356517 -0.000292332)
(0.0328321 0.000946464 -0.000244625)
(0.0328997 0.00190121 -0.000162681)
(0.0320289 0.00349601 -1.25831e-05)
(0.0295622 0.00646179 0.000251868)
(0.0252831 0.0122014 0.000744973)
(0.0184289 0.0243449 0.00165905)
(0.0111495 0.0498385 0.00288648)
(0.0146989 0.10155 0.004515)
(0.0300869 0.148796 0.00103916)
(0.00331882 0.14083 -0.00924069)
(-0.0700624 0.122571 -0.0206667)
(-0.144541 0.126154 -0.0202477)
(-0.123398 0.121569 -0.0408519)
(-0.00232743 0.0975514 -0.030141)
(0.0585001 0.0354106 -0.0370879)
(0.120864 -0.0148969 -0.0344101)
(0.186089 -0.00479596 -0.000534276)
(0.188451 -0.0540473 -0.0207445)
(0.28503 0.143205 -0.00114077)
(0.175725 -0.0926601 -0.0423912)
(0.550308 0.235358 -0.00902008)
(0.0326882 0.0717725 -0.104715)
(0.935831 0.268915 -0.0396663)
(0.420294 0.312228 -0.247269)
(0.886026 0.549844 -0.221675)
(1.12504 0.805821 -0.085524)
(0.901622 0.813381 -0.334634)
(1.71274 1.8708 -0.159969)
(1.12131 1.9755 -1.14531)
(0.0199801 -0.000606416 -0.000298329)
(0.021458 -0.000665243 -0.000316142)
(0.0230295 -0.000705742 -0.000332484)
(0.0246789 -0.000714307 -0.000346307)
(0.0263813 -0.000673622 -0.000356324)
(0.0281042 -0.000562967 -0.000361104)
(0.0297984 -0.000360133 -0.000359178)
(0.0313806 -3.63799e-05 -0.000348784)
(0.0327457 0.000467851 -0.000328318)
(0.0338168 0.00122931 -0.000289329)
(0.034399 0.00240129 -0.000230597)
(0.0344508 0.00421929 -0.000115693)
(0.0335055 0.00715364 4.16401e-05)
(0.031996 0.0120685 0.000396239)
(0.0287965 0.0200745 0.000861867)
(0.0276963 0.0332334 0.00183144)
(0.0293288 0.0526343 0.00306062)
(0.0467492 0.0648692 0.00301054)
(0.0567999 0.0257047 0.00665169)
(0.0452872 0.00976635 0.00431286)
(0.0456115 0.0238817 0.0198792)
(0.00570156 0.0743469 -0.00352221)
(0.0720571 -2.70336e-05 0.00468609)
(0.0642633 -0.00708555 -0.0142518)
(0.103895 -0.0864911 -0.0130497)
(0.10845 -0.156886 -0.0116437)
(0.0488137 -0.0966656 -0.0155009)
(0.18104 -0.151032 0.060539)
(-0.11656 -0.238321 -0.126696)
(0.366709 0.0536947 0.0056093)
(-0.144341 -0.464341 -0.0858167)
(0.342425 -0.0793184 0.0204126)
(0.257484 0.00938263 0.0431943)
(-0.0283962 -0.579468 0.0240094)
(0.00288745 -0.489955 0.0283036)
(-0.0205542 -1.01729 -0.0942333)
(0.665396 -0.158785 0.411761)
(1.57168 2.35201 -0.933034)
(0.0199163 -0.000729519 -0.000302789)
(0.0214081 -0.000809804 -0.000322068)
(0.0230061 -0.000868095 -0.000340029)
(0.0246978 -0.000886228 -0.000355497)
(0.0264589 -0.000840222 -0.000366961)
(0.0282483 -0.000698709 -0.000372644)
(0.0300095 -0.000419579 -0.000370534)
(0.031703 4.05392e-05 -0.000358332)
(0.0332585 0.000749321 -0.00033627)
(0.0346092 0.00175355 -0.000298097)
(0.0356362 0.00323568 -0.000243089)
(0.0363782 0.0053037 -0.000153072)
(0.0366894 0.00853218 -2.79625e-05)
(0.0370601 0.0130787 0.000176034)
(0.0373303 0.0203896 0.000457966)
(0.0402644 0.0302919 0.000893299)
(0.0455036 0.0440245 0.00113054)
(0.0633084 0.0566328 0.00165776)
(0.0753636 0.0570352 -0.000380043)
(0.0838659 0.0647325 0.000857644)
(0.0851084 0.0449383 -0.000193562)
(0.0781596 0.0908377 0.00126276)
(0.144515 0.0246422 -0.00475473)
(0.112178 0.0584419 -0.00274273)
(0.17623 0.0087581 -0.00467665)
(0.175947 0.0935178 -0.0215273)
(0.134348 -0.0632232 0.0212709)
(0.128592 -0.0552295 -0.0390824)
(0.24491 0.198037 -0.0208508)
(0.00387374 -0.226207 0.00712477)
(0.305041 0.282964 -0.0416683)
(-0.0694823 -0.165341 -0.0309873)
(0.349519 -0.0907967 0.0150027)
(0.194678 0.342801 -0.0928608)
(0.430526 0.108556 0.0471661)
(-0.254341 0.385992 -0.226002)
(0.514302 -0.0893012 0.00817475)
(0.496236 0.868023 0.125654)
(0.0198298 -0.000841659 -0.000308937)
(0.0213361 -0.000947436 -0.000330519)
(0.0229645 -0.00103137 -0.000350984)
(0.0247091 -0.00107248 -0.000368935)
(0.026557 -0.00104387 -0.000382531)
(0.0284917 -0.000915598 -0.000389618)
(0.030475 -0.00065435 -0.000388929)
(0.0324454 -0.000223678 -0.000377729)
(0.0343027 0.000421579 -0.000354262)
(0.0360688 0.00134526 -0.000315222)
(0.0376066 0.00267648 -0.000279858)
(0.0392346 0.00447033 -0.000193091)
(0.0404658 0.00706582 -0.000172455)
(0.0427489 0.0106612 4.94789e-05)
(0.0440083 0.0153304 -5.27243e-05)
(0.0496508 0.0221211 0.00050827)
(0.051608 0.0279247 -4.01174e-05)
(0.0662051 0.03353 0.0011113)
(0.065158 0.0309742 -0.000974234)
(0.0855599 0.0233656 0.00289511)
(0.0778185 0.0232075 -0.00422819)
(0.0965223 0.0291863 0.00718171)
(0.107396 0.00276876 -0.00788143)
(0.107873 0.00980716 0.00403153)
(0.113229 -0.0673651 -0.0137033)
(0.146786 -0.00803022 0.00945804)
(0.121656 -0.103325 -0.00851058)
(0.0624818 -0.120223 -0.0570091)
(0.175405 -0.0916882 0.0592659)
(0.173033 -0.0223081 -0.0851752)
(0.0392118 -0.220327 0.0290737)
(0.387263 0.00319674 -0.0567606)
(0.00105849 -0.223682 -0.00609073)
(0.200709 0.00630991 -0.046277)
(0.325924 -0.388389 0.0241315)
(0.311743 -0.43904 0.0114285)
(0.335487 -0.274102 -0.100204)
(-0.366282 -0.330874 -0.256777)
(0.0197205 -0.000923854 -0.000320231)
(0.0212389 -0.00105595 -0.000345413)
(0.0228961 -0.0011701 -0.000370012)
(0.0246906 -0.00124315 -0.000392446)
(0.0266062 -0.00124229 -0.000410419)
(0.0286073 -0.00112526 -0.000420674)
(0.0306439 -0.000846207 -0.000419396)
(0.0326861 -0.000363487 -0.000404249)
(0.0346916 0.000400703 -0.000377525)
(0.0366651 0.00142401 -0.000335469)
(0.0384796 0.00288862 -0.000288232)
(0.0404078 0.00460749 -0.00021144)
(0.0422639 0.00732746 -0.000147759)
(0.0447494 0.0101482 -6.48262e-05)
(0.0477545 0.0150953 0.00010278)
(0.051427 0.0197386 -1.65935e-05)
(0.0579026 0.026476 0.000467733)
(0.062663 0.0312731 -6.89057e-05)
(0.0728572 0.0338757 0.000195491)
(0.0807834 0.0350927 -0.000265133)
(0.0816286 0.0400592 -0.00121058)
(0.100623 0.03604 0.000919867)
(0.100235 0.0399281 -0.00506164)
(0.131191 0.028312 0.0037259)
(0.0996161 0.0417146 -0.00771063)
(0.154352 0.03612 0.00312767)
(0.126509 0.043883 0.0196001)
(0.0891103 0.0738845 -0.0300236)
(0.160527 -0.0517516 0.0235941)
(0.0345358 0.132228 -0.0117931)
(0.163509 0.00382154 -0.0389037)
(0.0777183 0.076155 0.0187559)
(0.179357 0.116293 -0.00542183)
(0.0161145 0.147855 0.0598375)
(0.0612751 0.0859625 -0.00565827)
(-0.404408 0.534801 -0.100998)
(-0.195664 0.944921 -0.342372)
(-0.53136 0.698161 -0.493134)
(0.0195906 -0.000954369 -0.000336993)
(0.021116 -0.00110879 -0.000367348)
(0.0227988 -0.00125267 -0.000397974)
(0.0246487 -0.00136388 -0.000426828)
(0.0266703 -0.00141318 -0.000450803)
(0.0288582 -0.00136607 -0.000466066)
(0.0311742 -0.00117756 -0.000468585)
(0.033582 -0.000813475 -0.000452253)
(0.0359303 -0.000238801 -0.000421329)
(0.0383215 0.00049872 -0.000353834)
(0.0404744 0.00153363 -0.000323027)
(0.0432764 0.00265792 -0.000188211)
(0.0452521 0.00431353 -0.000285719)
(0.0500844 0.00598143 5.69471e-05)
(0.051591 0.00855727 -0.000365307)
(0.0608519 0.0117542 0.000181053)
(0.0604236 0.0150412 -0.000225131)
(0.071574 0.0195355 -0.000951673)
(0.0742994 0.0191468 0.00128896)
(0.0801895 0.0245149 -0.00281276)
(0.085945 0.0227177 0.000401755)
(0.101445 0.0157428 -0.0017998)
(0.0911158 0.0158021 -0.000470538)
(0.117831 0.0144298 -0.0029713)
(0.118121 -0.0355877 -0.006667)
(0.142482 -0.025386 -0.0181122)
(0.145213 -0.0829522 -0.0284439)
(0.202348 -0.0286136 0.0206661)
(0.105858 -0.132093 -0.0712607)
(0.222343 -0.0202603 0.00671083)
(0.149787 -0.0992709 -0.069256)
(0.281277 -0.121275 -0.012182)
(0.0633931 -0.149248 -0.0561723)
(0.304885 -0.121349 -0.0211165)
(0.0367566 -0.169606 0.0718491)
(-0.372638 0.159243 0.0876877)
(-0.754584 0.612819 -0.0421764)
(-0.382971 -0.144801 0.0768671)
(0.0194469 -0.000907694 -0.000358868)
(0.020972 -0.00107311 -0.000396167)
(0.0226696 -0.00123631 -0.000435405)
(0.0245512 -0.00137568 -0.000474618)
(0.0266121 -0.00145737 -0.000510083)
(0.0288307 -0.00144162 -0.000536005)
(0.031158 -0.00128257 -0.000544991)
(0.0335504 -0.000953927 -0.000530062)
(0.0359038 -0.000400602 -0.000490205)
(0.0382825 0.000318474 -0.000424173)
(0.0404695 0.00131646 -0.000361046)
(0.0429768 0.00223713 -0.000247009)
(0.0451813 0.00368559 -0.000200265)
(0.049059 0.00508971 -4.01576e-05)
(0.0524386 0.00769211 1.84093e-06)
(0.0587556 0.0124497 0.000127015)
(0.0648083 0.0197558 0.00062444)
(0.0663186 0.0221659 -0.000422236)
(0.0851409 0.0235989 0.00221648)
(0.0634725 0.0340395 -0.00180735)
(0.10811 0.0211356 0.000188671)
(0.0683697 0.0402003 0.0033291)
(0.0910179 0.0268675 -0.00924081)
(0.100994 0.0147755 0.0109151)
(0.035352 0.0658087 0.0140905)
(-0.000358922 0.077032 0.00227888)
(-0.023196 0.0783674 -0.014193)
(-0.0205697 0.0790149 -0.00160909)
(-0.0326827 0.0977311 -0.0391299)
(-0.01804 0.125653 -0.00490599)
(-0.0262284 0.152483 -0.0439167)
(-0.0697267 0.231494 -0.0521176)
(-0.0933344 0.248162 -0.0671249)
(-0.0578253 0.311096 -0.051763)
(-0.129997 0.339472 -0.0736986)
(0.0107842 0.280441 0.0799241)
(-0.25322 0.169184 0.0958489)
(0.0758979 -1.85077 0.104725)
(0.019303 -0.000761893 -0.000383998)
(0.020822 -0.000920513 -0.000429542)
(0.0225299 -0.00108707 -0.000479173)
(0.0244557 -0.0012471 -0.000530172)
(0.0266208 -0.00137524 -0.000577848)
(0.02903 -0.00143305 -0.000614244)
(0.0316348 -0.00137429 -0.00063002)
(0.034401 -0.00116161 -0.000609678)
(0.0371126 -0.000787856 -0.00055795)
(0.0399052 -0.00029365 -0.000450385)
(0.0422229 0.000123654 -0.000366953)
(0.0455774 0.00039135 -0.000177576)
(0.0474251 0.000137793 -0.000190961)
(0.0545628 -0.000297303 0.000135163)
(0.0562891 -0.00157855 -0.000119712)
(0.0720475 -0.00110992 0.000424182)
(0.0652801 0.00367269 -0.00117715)
(0.0814493 0.00113209 0.000644417)
(0.071962 0.0123843 3.23678e-05)
(0.0911213 0.0120593 0.00150053)
(0.0812415 0.0213575 -0.000863377)
(0.100949 0.019326 0.000758847)
(0.089132 0.0280607 0.00115261)
(0.109298 0.015904 -0.00662706)
(0.106609 0.00142874 -0.00157247)
(0.113984 0.0101384 0.00225009)
(0.115769 -0.0109712 0.00226014)
(0.112333 0.000757212 0.00976005)
(0.108663 -0.0164359 0.0110198)
(0.0951791 0.0258856 0.0100139)
(0.131148 0.0100671 0.0103765)
(0.080358 0.115464 -0.00611558)
(0.20757 0.00550497 -0.00989373)
(0.201111 -0.0115853 -0.0459898)
(0.401436 0.0376416 -0.0262482)
(0.423511 -0.305031 -0.105295)
(0.33551 -0.0944266 0.0552605)
(0.159492 -0.820277 -0.254817)
(0.0191757 -0.000512609 -0.000404122)
(0.0206805 -0.000637611 -0.00045781)
(0.0223784 -0.000773212 -0.000518658)
(0.0242971 -0.000908022 -0.000584934)
(0.0264536 -0.00102328 -0.000652092)
(0.028845 -0.00109398 -0.000710865)
(0.0314218 -0.00109084 -0.000746836)
(0.0341003 -0.000994892 -0.000741672)
(0.036717 -0.000829215 -0.00068248)
(0.0391018 -0.000594774 -0.000568709)
(0.0411384 -0.000701364 -0.000427544)
(0.042842 -0.000676568 -0.000234353)
(0.0446675 -0.00271924 -0.000150883)
(0.0466145 -0.00312104 9.39448e-05)
(0.0538906 -0.00877705 0.000320461)
(0.0649705 0.00658482 0.00110368)
(0.0623054 0.0175834 0.00169323)
(0.0824274 0.0121378 0.00350043)
(0.0682716 0.0148082 0.00358131)
(0.0969597 0.0214799 0.00461912)
(0.0737569 0.0162419 0.00688387)
(0.0877643 0.0376581 -0.000886714)
(0.0825949 0.0224246 0.0053048)
(0.0741862 0.0404708 0.0161603)
(-0.0173808 0.0682902 0.00297427)
(-0.0252646 0.0716441 -0.00625563)
(-0.0428445 0.0633979 -0.0103245)
(-0.0405569 0.0546688 -0.00494664)
(-0.0567894 0.0503252 -0.0002873)
(-0.0605274 0.0802305 -0.00351906)
(-0.0561022 0.12443 -0.0185225)
(-0.0613272 0.201907 -0.0082315)
(-0.0933331 0.291825 -0.0256857)
(-0.157837 0.421688 -0.0621815)
(-0.188107 0.538041 -0.100247)
(-0.0107729 0.700608 -0.118422)
(-0.247403 0.468991 -0.0971991)
(0.518957 -1.29598 -0.342664)
(0.0190824 -0.000211637 -0.000396214)
(0.0205787 -0.000284727 -0.000452989)
(0.0222795 -0.00036864 -0.000518966)
(0.0242264 -0.00045749 -0.000591257)
(0.0264532 -0.000538655 -0.000664827)
(0.0289745 -0.000588596 -0.000727806)
(0.0317361 -0.00057442 -0.000762242)
(0.0346546 -0.000466507 -0.000741959)
(0.0374983 -0.000268166 -0.000652204)
(0.0400465 -4.16155e-05 -0.000494832)
(0.0422457 -6.95878e-07 -0.000258426)
(0.0436049 -0.0010193 -0.000270055)
(0.0467125 -0.00267774 0.000754504)
(0.0449567 -0.00956809 -0.00139613)
(0.0723093 -0.0262049 0.00244756)
(0.0614331 -0.0176173 -0.000279705)
(0.0631102 -0.0267297 -0.00685295)
(0.0568812 -0.0315446 -0.000298312)
(0.0512757 -0.0276992 0.0016592)
(0.041941 -0.0187868 0.000855815)
(0.0337097 -0.0109078 -0.000671225)
(0.051718 0.00608796 0.00118859)
(0.0695218 0.019611 -0.0081853)
(0.0989092 0.0180508 0.00329742)
(0.0636471 0.0454753 0.0108668)
(0.0724428 0.0523782 0.00789542)
(0.036084 0.0441586 0.00243761)
(0.0475821 0.0412788 -0.000852956)
(0.0356159 0.0246012 0.00290404)
(0.0346254 0.016925 0.0122307)
(0.0337974 0.0604752 0.0155721)
(0.0327609 0.124272 0.0127673)
(0.0949638 0.141133 0.0223805)
(0.0549744 0.201947 -0.0159668)
(0.414912 0.173175 0.0356738)
(0.053576 0.0801425 -0.083069)
(0.73442 -0.0622553 -0.0999311)
(0.659088 -0.733714 -0.561408)
(0.018838 -1.22075e-05 -0.000348641)
(0.0203167 -3.3814e-05 -0.000402423)
(0.0219958 -6.2709e-05 -0.000466856)
(0.023913 -0.000101878 -0.000542768)
(0.0261017 -0.000157336 -0.000625857)
(0.0285766 -0.00023279 -0.000705921)
(0.0312932 -0.000334499 -0.000761709)
(0.0341254 -0.000455377 -0.000760953)
(0.0368241 -0.000641877 -0.00066895)
(0.0390163 -0.000914892 -0.000481472)
(0.039826 -0.0014834 -0.000183968)
(0.0401674 -0.00327059 9.14326e-06)
(0.0325695 -0.0059407 8.82386e-05)
(0.0337437 -0.0202424 -0.000447701)
(-0.00716061 -0.0395832 0.00243722)
(-0.068162 0.026718 0.00482278)
(-0.018132 0.058217 0.00391976)
(-0.0595217 0.0150339 0.00117226)
(-0.0684961 0.0194607 -0.011124)
(-0.0207079 0.0321175 -0.0041498)
(-0.0523406 0.006637 0.00704987)
(-0.0794511 0.000367474 0.00144096)
(-0.0558233 0.0259304 -0.00101833)
(-0.0424903 0.0393635 0.00857399)
(-0.0617803 0.0408653 0.0156611)
(-0.0565379 0.0572765 0.0168855)
(-0.0683677 0.0601404 0.0169236)
(-0.0843853 0.0557025 0.0174093)
(-0.106771 0.047959 0.0174254)
(-0.159953 0.0344088 0.0217932)
(-0.21933 0.0518029 0.0317638)
(-0.281463 0.0807118 0.0439987)
(-0.35306 0.121293 0.0529322)
(-0.485565 0.228763 0.0616094)
(-0.511907 0.515562 0.075133)
(-0.500141 0.703623 0.0376159)
(-0.123261 0.80256 0.0734635)
(-0.643611 1.23407 0.00752841)
(0.0202982 -0.000154194 -0.000712607)
(0.0217793 -0.000167792 -0.000751049)
(0.0233429 -0.000177232 -0.000785019)
(0.0249689 -0.00017954 -0.000812114)
(0.0266265 -0.00017107 -0.000829263)
(0.0282716 -0.000147966 -0.000832131)
(0.0298421 -0.000107628 -0.00081611)
(0.031249 -4.79574e-05 -0.000773284)
(0.0323562 5.36588e-05 -0.000691344)
(0.0329806 0.000224954 -0.000538928)
(0.0327557 0.000528935 -0.000265143)
(0.031164 0.00112332 0.000273681)
(0.0268063 0.00237635 0.00134079)
(0.0175115 0.00534692 0.00379355)
(-0.00364916 0.0129627 0.00924532)
(-0.0511988 0.0362062 0.0236184)
(-0.173763 0.0865728 0.0489534)
(-0.48293 0.0498827 0.0660085)
(-0.69901 -0.111407 0.0502318)
(-0.560977 -0.122341 -0.0147381)
(-0.426082 0.0327523 -0.0905795)
(-0.368753 0.0919104 -0.0876099)
(-0.325467 -0.0256445 0.0427361)
(-0.42789 -0.10557 0.0797096)
(-0.49745 -0.124023 0.0507956)
(-0.474939 -0.13448 0.0851649)
(-0.521146 -0.135002 0.103716)
(-0.580675 -0.13064 0.117002)
(-0.703386 -0.100642 0.215155)
(-0.89838 -0.174724 0.154638)
(-1.09665 -0.346695 0.184167)
(-1.05875 -0.379386 0.115724)
(-0.933505 -0.512393 0.193103)
(-1.06611 -0.862092 0.285935)
(-0.860214 -1.1724 0.287529)
(-0.823011 -1.5329 0.373578)
(-0.414269 -1.85479 0.322147)
(0.0278559 -2.71083 0.352065)
(0.0205504 -0.000397245 -0.000812147)
(0.0220543 -0.000433589 -0.000858758)
(0.0236469 -0.000457982 -0.000901198)
(0.0253099 -0.000461755 -0.000936907)
(0.0270129 -0.00043338 -0.000962799)
(0.0287113 -0.000357088 -0.000974949)
(0.0303416 -0.000208303 -0.000967681)
(0.031833 4.30548e-05 -0.000933399)
(0.0330732 0.000428269 -0.000860869)
(0.0339145 0.00101498 -0.000728709)
(0.0341112 0.00195282 -0.000499825)
(0.0334096 0.00351128 -7.68371e-05)
(0.0312068 0.00635963 0.000663473)
(0.027302 0.011857 0.00211039)
(0.0209254 0.0233385 0.00466227)
(0.0140283 0.0478861 0.00920886)
(0.0148534 0.098433 0.0167553)
(0.0201638 0.145922 0.015667)
(-0.0279482 0.126169 -0.00772975)
(-0.10233 0.0644323 -0.0239576)
(-0.158404 0.0340663 -0.0277415)
(-0.0954996 0.045217 -0.0654935)
(0.0081824 0.0379092 -0.0754871)
(0.087336 0.00282342 -0.0632428)
(0.108948 -0.0304419 -0.0461116)
(0.136356 -0.0345086 -0.0198827)
(0.145708 -0.0661778 -0.028474)
(0.270275 -0.016695 0.00241942)
(0.127947 0.143496 -0.0226914)
(0.341148 0.047807 -0.0561154)
(0.401291 0.177027 -0.0652086)
(0.217647 0.21799 -0.296839)
(0.595877 0.0623037 -0.210552)
(0.327632 0.140555 -0.314535)
(0.704354 0.195507 -0.415766)
(0.631355 0.274222 -0.411357)
(0.480494 0.395354 -0.952443)
(-0.184571 0.101837 -1.30477)
(0.020507 -0.00058816 -0.000868216)
(0.0220211 -0.000647779 -0.00092091)
(0.0236332 -0.000689446 -0.000969554)
(0.025328 -0.000699465 -0.00101115)
(0.0270813 -0.000660318 -0.00104206)
(0.0288608 -0.000551043 -0.00105806)
(0.0306176 -0.000349265 -0.00105494)
(0.032268 -2.5341e-05 -0.00102786)
(0.0337108 0.000477989 -0.000970102)
(0.0348663 0.00123931 -0.000861244)
(0.0355585 0.00240645 -0.000690621)
(0.0357203 0.00420668 -0.000373375)
(0.0349887 0.00710474 0.000102296)
(0.0336319 0.011871 0.00106707)
(0.030979 0.0197241 0.00249479)
(0.0299069 0.0322128 0.00531705)
(0.0322609 0.0517249 0.00899008)
(0.0500415 0.063659 0.0125748)
(0.0577816 0.0338119 0.017584)
(0.0605446 0.00246229 0.0203387)
(0.0415123 0.0229925 0.0389778)
(0.0536525 0.0304653 0.00749187)
(0.0587471 0.00527116 -0.00241436)
(0.0973111 -0.050344 -0.0244742)
(0.120534 -0.108602 -0.0310563)
(0.106918 -0.0880676 -0.0236137)
(0.147548 -0.168416 -0.017691)
(0.0378304 -0.130257 0.0822717)
(0.267435 -0.142703 -0.12799)
(0.268759 -0.0801727 0.163142)
(0.0785208 -0.214635 -0.0258959)
(0.366244 -0.0014821 -0.0199301)
(0.280343 -0.177636 0.205222)
(0.0688766 -0.454921 0.149068)
(0.373473 -0.250497 0.202989)
(0.24458 -0.931068 -0.149497)
(0.792382 -0.308384 -0.0765329)
(1.31905 -0.311984 0.99921)
(0.0204379 -0.000737033 -0.000890499)
(0.0219654 -0.000821326 -0.000948186)
(0.0236036 -0.000884299 -0.00100219)
(0.0253405 -0.000907651 -0.00104915)
(0.0271526 -0.000867115 -0.00108477)
(0.0289995 -0.000730948 -0.00110405)
(0.0308259 -0.000457293 -0.00110163)
(0.0325925 -2.43836e-06 -0.00107166)
(0.034232 0.000699614 -0.00101163)
(0.0356776 0.0016957 -0.000907597)
(0.0368211 0.00314716 -0.000755115)
(0.037693 0.00519304 -0.00050577)
(0.0381817 0.00829835 -0.000158938)
(0.0387366 0.0127778 0.000423241)
(0.0392692 0.019672 0.00118859)
(0.0423492 0.0293079 0.00241875)
(0.0476697 0.0422075 0.00331277)
(0.0650515 0.0534137 0.0042074)
(0.0758578 0.0561689 0.000936227)
(0.0919116 0.0484159 -0.000730032)
(0.0784773 0.051361 0.000527586)
(0.109293 0.0420787 -0.00563485)
(0.123711 0.0429522 -0.0104601)
(0.153819 0.0240054 -0.00787116)
(0.17315 0.0273526 -0.0196785)
(0.163906 -0.0134617 -0.0296187)
(0.155378 0.000144235 0.0187261)
(0.22138 0.0517103 -0.0346947)
(0.0751336 -0.0643587 0.0254943)
(0.175998 0.0567319 -0.00146882)
(0.179656 0.0168694 -0.00439185)
(0.081771 -0.0845676 -0.000746498)
(0.282966 0.0461453 -0.0219646)
(0.145767 -0.0169159 -0.161759)
(0.361763 -0.191941 0.113967)
(0.266074 0.073161 -0.21377)
(0.401976 -0.0305493 -0.0907181)
(-0.14296 -0.083563 0.607453)
(0.0203466 -0.00086331 -0.000911884)
(0.021888 -0.000975405 -0.000976628)
(0.023556 -0.0010667 -0.0010384)
(0.0253456 -0.00111604 -0.00109317)
(0.0272445 -0.00109618 -0.00113555)
(0.0292361 -0.000976276 -0.00115931)
(0.0312822 -0.000721827 -0.00116002)
(0.0333197 -0.000295041 -0.00113012)
(0.0352511 0.000348413 -0.00106539)
(0.0370791 0.0012761 -0.00096082)
(0.0387143 0.00260617 -0.000846934)
(0.0403593 0.00441077 -0.000638852)
(0.0417971 0.00700676 -0.000486987)
(0.0438684 0.0105437 -5.25987e-05)
(0.0458039 0.0153337 6.26708e-05)
(0.0502789 0.0217776 0.000930241)
(0.054527 0.0278766 0.000604756)
(0.0652019 0.0339787 0.00180484)
(0.0699946 0.0301184 -0.000355752)
(0.0841062 0.0262553 0.00204257)
(0.0813012 0.0231706 -0.00239419)
(0.100489 0.0209892 0.00145262)
(0.10464 0.0152244 -0.0087574)
(0.115397 -0.0129403 -0.00115211)
(0.123195 -0.0324266 -0.0218929)
(0.131415 -0.054348 0.00399374)
(0.122545 -0.0872897 -0.0166863)
(0.12717 -0.0605325 -0.0429507)
(0.144124 -0.129157 0.0161755)
(0.125073 -0.0607511 -0.0423768)
(0.149657 -0.154582 -0.00110783)
(0.110084 -0.103233 -0.0564388)
(0.1134 -0.167577 -0.0234324)
(0.146723 -0.234336 -0.0220041)
(0.20557 -0.173682 -0.103146)
(0.297568 -0.551324 -0.105647)
(0.0789001 0.228423 -0.15403)
(0.0036588 0.0217544 -0.00152214)
(0.0202312 -0.000954142 -0.000945763)
(0.0217835 -0.00109457 -0.0010212)
(0.0234794 -0.00121853 -0.0010953)
(0.0253181 -0.00130259 -0.00116334)
(0.0272849 -0.0013134 -0.0012186)
(0.0293455 -0.00120789 -0.00125201)
(0.0314518 -0.000939556 -0.00125346)
(0.0335722 -0.000464201 -0.00121617)
(0.0356689 0.00028818 -0.00114493)
(0.0377379 0.00131534 -0.00103259)
(0.0396791 0.0027379 -0.000899698)
(0.041714 0.00449012 -0.000699582)
(0.0437476 0.00701978 -0.000527901)
(0.0463882 0.0100019 -0.000253226)
(0.0494466 0.0143895 -7.8227e-06)
(0.0538483 0.0193977 0.000191875)
(0.059122 0.0250589 0.000470422)
(0.0664246 0.0305674 0.000265705)
(0.0736133 0.0311328 -0.00043275)
(0.0833225 0.0356165 -0.00125147)
(0.0858923 0.0337729 -0.00374936)
(0.101933 0.0367824 -0.00202865)
(0.105281 0.0329885 -0.0102428)
(0.128628 0.0313348 -0.00251673)
(0.125237 0.0264369 -0.0140317)
(0.142933 0.0261566 -0.00417625)
(0.13683 0.036836 0.00522953)
(0.147942 -0.0152924 -0.0295688)
(0.138401 0.0445221 0.0211529)
(0.154255 -0.000636801 0.00300741)
(0.139082 0.0568511 -0.0294902)
(0.11412 0.00513873 0.0205066)
(0.153787 0.0685154 -0.0114901)
(0.0485733 0.0311954 0.0481162)
(0.250812 -0.0583287 0.0478497)
(-0.0388555 0.142307 4.04714e-05)
(-0.297094 0.229832 0.0395923)
(-0.133157 -0.313183 0.0446269)
(0.0200938 -0.00099094 -0.000994587)
(0.0216517 -0.00115562 -0.00108518)
(0.023372 -0.00131194 -0.00117698)
(0.0252656 -0.00143763 -0.00126406)
(0.027338 -0.00150278 -0.00133723)
(0.0295843 -0.00147125 -0.00138487)
(0.0319672 -0.00129578 -0.00139429)
(0.0344424 -0.000938238 -0.00134976)
(0.0368736 -0.000363856 -0.00125666)
(0.0393033 0.000390781 -0.00108292)
(0.0415833 0.00142216 -0.000947095)
(0.0442388 0.00261442 -0.000688895)
(0.0466968 0.00422635 -0.000676132)
(0.0505613 0.00602204 -0.000264697)
(0.0539796 0.00866461 -0.000505837)
(0.0599596 0.0118664 -0.000115319)
(0.0641557 0.0158349 -0.000587956)
(0.0703391 0.0202923 -0.00115324)
(0.0758954 0.0212906 -0.000203147)
(0.0832251 0.0260612 -0.00301577)
(0.0856104 0.0241065 -0.00214923)
(0.0980702 0.0220133 -0.00403193)
(0.0992282 0.0201849 -0.00437233)
(0.111762 0.00692893 -0.00543278)
(0.117695 -0.012528 -0.0154232)
(0.120833 -0.0182099 -0.0214086)
(0.112445 -0.0139546 -0.0185008)
(0.123907 -0.0553163 -0.012264)
(0.12677 -0.00346592 -0.0179204)
(0.11448 -0.0624746 -0.0278434)
(0.132279 -0.037761 -0.0276045)
(0.123239 -0.0472403 -0.027344)
(0.107314 -0.0313467 -0.0288061)
(0.164487 -0.0821993 -0.0153067)
(0.0052 -0.0826175 0.0620396)
(0.135088 -0.0958215 0.24246)
(-0.368895 0.0109112 0.362587)
(-0.112566 -0.454601 0.416364)
(0.019942 -0.00095088 -0.00105699)
(0.0214977 -0.00112864 -0.00116771)
(0.0232306 -0.00130722 -0.00128457)
(0.0251541 -0.00146485 -0.00140177)
(0.0272662 -0.00156726 -0.00150847)
(0.0295483 -0.00157294 -0.00158775)
(0.0319548 -0.00143473 -0.0016189)
(0.0344406 -0.00111907 -0.00158183)
(0.0369054 -0.000581425 -0.00147335)
(0.0393908 0.000150992 -0.00129512)
(0.0417384 0.00110038 -0.00110079)
(0.0443195 0.00211167 -0.000818706)
(0.0468667 0.0033534 -0.000612721)
(0.0506194 0.00495886 -0.000282235)
(0.0547381 0.00715228 1.82282e-06)
(0.0609459 0.011969 0.000316099)
(0.0667569 0.0182345 0.000965029)
(0.0711714 0.0206624 0.000124829)
(0.0809943 0.0239926 0.00208826)
(0.0797552 0.0285681 -0.00137048)
(0.0923008 0.0261215 -0.000996815)
(0.0889931 0.0308029 0.00220174)
(0.0913673 0.0297266 -0.00946101)
(0.0966936 0.0193572 0.0102903)
(0.0962929 0.0319248 0.0152004)
(0.086307 0.0316531 0.00988818)
(0.106013 0.0248864 -0.0082848)
(0.0672492 0.0322247 -0.00632604)
(0.147251 -0.0245267 -0.0154677)
(0.0459644 0.052453 -0.0190173)
(0.181479 -0.0356112 0.0005135)
(0.0599375 0.0522227 -0.044011)
(0.15237 0.0140052 -0.0298083)
(0.0952685 0.126474 -0.0185313)
(0.0810853 0.157411 -0.048738)
(0.014722 0.346771 0.175857)
(-0.0532447 0.169782 0.205237)
(0.149494 -0.0700654 0.0145227)
(0.0197912 -0.00081726 -0.00112491)
(0.0213388 -0.000991237 -0.00125886)
(0.0230804 -0.00117754 -0.00140496)
(0.0250473 -0.00136214 -0.00155541)
(0.0272633 -0.00151961 -0.00169606)
(0.0297346 -0.00160994 -0.00180317)
(0.0324174 -0.00158368 -0.00184653)
(0.0352618 -0.00139721 -0.00178578)
(0.0380791 -0.00103861 -0.00161798)
(0.0408901 -0.000543984 -0.00132039)
(0.0434016 -0.000122227 -0.00101074)
(0.0464126 0.000171133 -0.00059116)
(0.0491037 -0.000105621 -0.000372956)
(0.0544164 -0.000483329 0.00011541)
(0.059261 -0.00178271 0.000284936)
(0.0698858 -0.000490132 0.000350354)
(0.06987 0.00476082 -0.00167457)
(0.0776038 0.00533413 0.000641638)
(0.0791101 0.0147003 1.91547e-05)
(0.0871996 0.0180857 0.000884999)
(0.0884271 0.0223245 -0.00285031)
(0.0957011 0.0285924 -0.00215392)
(0.0975286 0.0231947 -0.0015502)
(0.104774 0.0171415 -0.0107769)
(0.103745 0.0166968 -0.00448893)
(0.100002 0.00901504 -0.00673831)
(0.117907 -0.00969726 -0.000662848)
(0.100742 -0.0162954 0.00321871)
(0.1379 -0.0428197 0.011073)
(0.0946488 -0.0199672 0.00908772)
(0.18843 -0.0592567 0.00656861)
(0.116927 0.00204578 0.00629409)
(0.237173 -0.0648944 -0.0510929)
(0.202034 -0.0386387 -0.0842821)
(0.305109 -0.086685 -0.113957)
(0.213264 0.0439801 -0.0826994)
(0.361205 -0.234475 -0.0483918)
(0.141275 -0.274681 0.0455316)
(0.0196615 -0.000594791 -0.00117159)
(0.0211931 -0.000740026 -0.00132761)
(0.0229225 -0.000902015 -0.00150472)
(0.0248799 -0.00107043 -0.00169806)
(0.0270872 -0.00122778 -0.00189422)
(0.029547 -0.0013484 -0.00206572)
(0.0322162 -0.00140004 -0.00216955)
(0.0350115 -0.00135704 -0.00215161)
(0.0377624 -0.00123237 -0.00197463)
(0.0402839 -0.00103303 -0.00163925)
(0.0424778 -0.00110446 -0.00121519)
(0.04424 -0.00127496 -0.000726596)
(0.0465403 -0.00273276 -0.000206198)
(0.0480561 -0.00419287 -0.00018209)
(0.0566468 -0.0084716 0.00161787)
(0.0660167 0.00549964 0.00330129)
(0.0670742 0.0132603 0.00458552)
(0.0804025 0.0119807 0.00882028)
(0.0740334 0.0169996 0.00970561)
(0.092939 0.0262945 0.00870914)
(0.0854523 0.023185 0.0125719)
(0.0943201 0.0367704 0.00349311)
(0.0844905 0.0352846 0.00295745)
(0.0936965 0.0313977 0.0215112)
(0.0755097 0.0403434 0.0180253)
(0.072911 0.0435688 -0.000962678)
(0.0762759 0.0437895 -0.00942556)
(0.067838 0.0419615 -0.00867867)
(0.0679144 0.0297706 -0.0118786)
(0.0600377 0.0220493 0.00296827)
(0.0627883 0.0268898 -0.0129723)
(0.0478222 0.0650834 -0.00181064)
(0.0683167 0.120007 -0.0363854)
(0.0361049 0.234273 -0.0498569)
(0.0554438 0.331536 -0.103686)
(-0.0243258 0.440774 -0.141811)
(0.134951 0.623121 -0.126524)
(-0.0915147 0.382937 0.0016274)
(0.0195698 -0.000331923 -0.00114277)
(0.0210914 -0.00042973 -0.00130719)
(0.0228222 -0.000545506 -0.00149793)
(0.0248063 -0.000675865 -0.00170875)
(0.0270815 -0.000809643 -0.00192368)
(0.0296674 -0.000924019 -0.0021068)
(0.032517 -0.000983498 -0.00220154)
(0.0355393 -0.000950001 -0.00213343)
(0.0385053 -0.000814346 -0.00184906)
(0.0411411 -0.000622385 -0.00139656)
(0.0433961 -0.000605649 -0.000682712)
(0.0449826 -0.00152906 -0.000706934)
(0.0470536 -0.00369372 0.00185092)
(0.0503913 -0.00981872 -0.00274672)
(0.0638016 -0.027087 0.00749925)
(0.0649364 -0.0197097 -0.000819436)
(0.0463349 -0.0209126 -0.0136913)
(0.0382007 -0.0203029 0.00340363)
(0.0356106 -0.0125142 0.00543521)
(0.0432477 0.00363273 0.000938026)
(0.0482393 0.0116782 3.75592e-05)