/*--------------------------------*- C++ -*----------------------------------*\
| =========                 |                                                 |
| \\      /  F ield         | OpenFOAM: The Open Source CFD Toolbox           |
|  \\    /   O peration     | Version:  2.3.1                                 |
|   \\  /    A nd           | Web:      www.OpenFOAM.org                      |
|    \\/     M anipulation  |                                                 |
\*---------------------------------------------------------------------------*/
FoamFile
{
    version     2.0;
    format      ascii;
    class       volVectorField;
    location    "5";
    object      U_0;
}
// * * * * * * * * * * * * * * * * * * * * * * * * * * * * * * * * * * * * * //

dimensions      [0 1 -1 0 0 0 0];

internalField   nonuniform List<vector> 
38262
(
(0.0198262 -0.000198296 -0.000243295)
(0.0212805 -0.000214803 -0.000256444)
(0.0228149 -0.000227258 -0.000268104)
(0.0244093 -0.000232739 -0.000277455)
(0.0260326 -0.000227639 -0.00028339)
(0.0276409 -0.000208009 -0.000284097)
(0.0291667 -0.000171656 -0.000278195)
(0.030523 -0.000116421 -0.000263091)
(0.0315722 -2.17298e-05 -0.000234796)
(0.0321272 0.000143092 -0.000181847)
(0.0318097 0.00044014 -8.6224e-05)
(0.0300814 0.00103338 0.000102931)
(0.0254732 0.00229629 0.000469241)
(0.0157193 0.00534569 0.00129157)
(-0.00609911 0.0131537 0.00295916)
(-0.052867 0.0365544 0.00593756)
(-0.156257 0.0863705 0.0084467)
(-0.406721 0.0500378 0.0137824)
(-0.616088 -0.148205 0.0144437)
(-0.522788 -0.223638 -0.0012316)
(-0.4064 -0.0824242 -0.0178886)
(-0.349468 0.00451296 -0.0167387)
(-0.377957 -0.0658244 0.0216824)
(-0.510672 -0.117322 0.0245464)
(-0.509472 -0.146246 0.00964634)
(-0.492437 -0.154146 0.0299688)
(-0.547921 -0.159807 0.0281391)
(-0.647863 -0.17473 0.0282727)
(-0.724926 -0.143222 0.064892)
(-1.17744 -0.291118 0.0279523)
(-1.14527 -0.50492 0.0237914)
(-1.22285 -0.662252 0.00140669)
(-1.12195 -0.831063 -0.00582518)
(-1.2892 -1.19692 0.0316702)
(-1.33781 -1.58488 -0.0235502)
(-1.33752 -2.03337 -0.0868419)
(-1.30128 -2.67463 -0.2411)
(-0.262768 -3.42627 -0.76453)
(0.0200171 -0.000450888 -0.000281249)
(0.0214856 -0.000490341 -0.000297322)
(0.0230392 -0.000517884 -0.000311902)
(0.024659 -0.000524966 -0.000324072)
(0.0263146 -0.000500214 -0.000332705)
(0.0279607 -0.000427902 -0.000336368)
(0.0295338 -0.000283767 -0.000333008)
(0.0309611 -3.75605e-05 -0.00032078)
(0.0321295 0.000343924 -0.000293867)
(0.0328896 0.000927064 -0.000246943)
(0.0329828 0.00186896 -0.00016639)
(0.0321492 0.00343805 -1.89134e-05)
(0.0297366 0.00634912 0.000240971)
(0.0255214 0.0119649 0.00072559)
(0.0187018 0.0238432 0.00162873)
(0.0113314 0.0487786 0.00285622)
(0.0141336 0.0997663 0.00456618)
(0.0299042 0.148472 0.001197)
(0.00419358 0.142109 -0.00880535)
(-0.0669651 0.122948 -0.0207482)
(-0.142493 0.125954 -0.0202834)
(-0.124997 0.12178 -0.0406747)
(-0.00412809 0.0985898 -0.0301261)
(0.0577764 0.036037 -0.0372631)
(0.120639 -0.0144783 -0.0344067)
(0.186234 -0.00497533 -0.000696573)
(0.188286 -0.0548492 -0.0210369)
(0.284559 0.140579 -0.00130199)
(0.17624 -0.0950431 -0.0413322)
(0.546874 0.237255 -0.00888926)
(0.030351 0.0730242 -0.103675)
(0.941166 0.267212 -0.0358973)
(0.393752 0.31368 -0.256245)
(0.909487 0.558567 -0.215381)
(1.10961 0.786727 -0.0920892)
(0.927509 0.833009 -0.342734)
(1.73994 1.85365 -0.157043)
(1.12719 2.09696 -1.17449)
(0.0199793 -0.000607423 -0.000298399)
(0.0214583 -0.000666781 -0.000316256)
(0.0230313 -0.000708023 -0.000332656)
(0.0246829 -0.000717607 -0.000346557)
(0.0263882 -0.000678306 -0.00035668)
(0.028115 -0.000569516 -0.000361601)
(0.0298145 -0.000369162 -0.000359854)
(0.0314048 -4.88671e-05 -0.000349703)
(0.0327804 0.000449332 -0.000329664)
(0.0338643 0.00120186 -0.000291311)
(0.0344641 0.00235935 -0.000233575)
(0.0345384 0.00415257 -0.000120412)
(0.0336199 0.0070441 3.43888e-05)
(0.0321325 0.0118834 0.000383813)
(0.0289315 0.0197713 0.000842784)
(0.0277455 0.0327771 0.0018079)
(0.0290248 0.0520498 0.00304646)
(0.0462126 0.0652719 0.00304024)
(0.0567239 0.0275833 0.00657329)
(0.0458921 0.00979539 0.00414549)
(0.0463904 0.0226987 0.0198469)
(0.00616665 0.0738537 -0.00335864)
(0.0719474 0.000663916 0.00486793)
(0.0642215 -0.0059396 -0.0143264)
(0.104095 -0.086513 -0.0132002)
(0.108898 -0.156897 -0.0116821)
(0.0499366 -0.0970353 -0.0152821)
(0.180242 -0.152817 0.060771)
(-0.117569 -0.237519 -0.126665)
(0.365587 0.0544384 0.00580039)
(-0.147657 -0.461998 -0.0863053)
(0.345319 -0.07068 0.0204706)
(0.252464 0.00925428 0.0431082)
(-0.0292742 -0.579651 0.0238216)
(-0.000610922 -0.496561 0.0241858)
(-0.00742024 -1.01981 -0.0864216)
(0.689957 -0.131249 0.370585)
(1.52647 2.36981 -0.920608)
(0.019915 -0.000730885 -0.000302848)
(0.0214077 -0.000811866 -0.000322167)
(0.023007 -0.000871131 -0.000340185)
(0.0247005 -0.000890603 -0.000355728)
(0.0264642 -0.000846416 -0.000367295)
(0.0282573 -0.000707373 -0.000373114)
(0.0300234 -0.000431538 -0.00037119)
(0.0317222 2.42907e-05 -0.000359266)
(0.0332848 0.000726653 -0.00033745)
(0.0346455 0.00172177 -0.000299749)
(0.0356836 0.00319 -0.000245424)
(0.0364372 0.00523664 -0.000156473)
(0.036757 0.00843153 -3.29559e-05)
(0.0371248 0.0129283 0.000168882)
(0.0373676 0.0201694 0.000448325)
(0.0402143 0.0299974 0.000882841)
(0.0452495 0.0436958 0.00112372)
(0.0627837 0.0565267 0.00167966)
(0.0750805 0.0572938 -0.000349556)
(0.0841951 0.0648656 0.000874555)
(0.0851258 0.0450415 -0.000302523)
(0.0782714 0.0907613 0.00132752)
(0.143969 0.0249408 -0.00477502)
(0.112064 0.0589413 -0.00274595)
(0.176859 0.00952258 -0.00482456)
(0.175861 0.0931402 -0.0212924)
(0.134229 -0.0641738 0.0210652)
(0.129849 -0.0536973 -0.0390527)
(0.244139 0.197446 -0.0202632)
(0.00384003 -0.225811 0.0074772)
(0.30343 0.283719 -0.0415539)
(-0.0701138 -0.169044 -0.0305512)
(0.35219 -0.0848842 0.0146221)
(0.195712 0.347729 -0.0913696)
(0.43424 0.10141 0.0457357)
(-0.265933 0.365043 -0.232672)
(0.555326 -0.0697033 0.0248783)
(0.394294 0.74343 0.173592)
(0.0198279 -0.000843262 -0.000308983)
(0.0213349 -0.000949847 -0.000330604)
(0.0229642 -0.00103492 -0.000351123)
(0.0247102 -0.00107759 -0.00036915)
(0.02656 -0.00105107 -0.000382847)
(0.0284973 -0.000925527 -0.000390062)
(0.0304842 -0.000667922 -0.000389524)
(0.0324599 -0.000242233 -0.00037848)
(0.0343234 0.000396809 -0.000355274)
(0.0360955 0.00131178 -0.000316671)
(0.03764 0.00263065 -0.000281715)
(0.0392726 0.00440731 -0.000195661)
(0.0405053 0.00697947 -0.000175648)
(0.0427768 0.0105445 4.48407e-05)
(0.0440141 0.0151833 -5.75598e-05)
(0.0495946 0.0219499 0.000502369)
(0.0514771 0.0277789 -4.06727e-05)
(0.0659699 0.033544 0.00111159)
(0.0650259 0.0312816 -0.000959799)
(0.0855237 0.0235525 0.00288525)
(0.0777247 0.0232669 -0.00421855)
(0.0964937 0.0290529 0.00717644)
(0.107197 0.00315854 -0.00787507)
(0.107748 0.0100638 0.00402491)
(0.113529 -0.0667862 -0.0135885)
(0.146854 -0.00801675 0.00946566)
(0.121297 -0.103857 -0.00886956)
(0.0626024 -0.120474 -0.0565994)
(0.175739 -0.0914719 0.0592811)
(0.171128 -0.0230772 -0.0856001)
(0.0407472 -0.219906 0.0295087)
(0.387139 0.00526239 -0.0574189)
(0.000163218 -0.223658 -0.00546676)
(0.204406 0.0061347 -0.0461568)
(0.332758 -0.394574 0.0266516)
(0.311459 -0.439474 0.0101167)
(0.35443 -0.247631 -0.106652)
(-0.362277 -0.340746 -0.290575)
(0.019718 -0.000925556 -0.000320259)
(0.0212367 -0.00105852 -0.000345476)
(0.0228946 -0.00117389 -0.000370127)
(0.02469 -0.00124862 -0.000392634)
(0.0266071 -0.00125006 -0.000410712)
(0.0286104 -0.00113605 -0.000421112)
(0.03065 -0.000860881 -0.000420015)
(0.0326951 -0.000383058 -0.000405047)
(0.0347044 0.000374634 -0.000378001)
(0.0366822 0.00139089 -0.000336687)
(0.0385003 0.00284561 -0.000289745)
(0.0404298 0.00455253 -0.000213268)
(0.0422831 0.00725671 -0.000149955)
(0.0447588 0.0100615 -6.70684e-05)
(0.0477414 0.0149947 9.99927e-05)
(0.0513827 0.0196325 -1.80678e-05)
(0.0578071 0.0263968 0.00046829)
(0.0625208 0.0312574 -6.80314e-05)
(0.0727546 0.0339422 0.000211049)
(0.0806707 0.0351789 -0.000267434)
(0.0815912 0.0401093 -0.0011837)
(0.100478 0.0361138 0.000885014)
(0.100074 0.0400856 -0.00501554)
(0.13096 0.0285412 0.00369712)
(0.0996405 0.041996 -0.00771406)
(0.154556 0.0364245 0.00326606)
(0.126181 0.0442283 0.0194396)
(0.0892843 0.0735293 -0.030092)
(0.160716 -0.0510449 0.0240222)
(0.0341551 0.133094 -0.012072)
(0.163299 0.00240453 -0.0386201)
(0.0773446 0.077754 0.0188452)
(0.179749 0.117051 -0.00561681)
(0.0160142 0.149203 0.0590079)
(0.062422 0.0818453 -0.00581699)
(-0.415817 0.52997 -0.0924102)
(-0.211827 0.974193 -0.34309)
(-0.524685 0.722292 -0.516296)
(0.0195874 -0.000956045 -0.000336992)
(0.0211129 -0.00111132 -0.000367378)
(0.0227959 -0.00125643 -0.000398054)
(0.0246462 -0.00136933 -0.000426985)
(0.0266685 -0.00142092 -0.000451072)
(0.0288576 -0.0013768 -0.000466478)
(0.0311755 -0.0011921 -0.000469174)
(0.0335863 -0.000832566 -0.000453089)
(0.0359387 -0.00026274 -0.000422889)
(0.038333 0.000468193 -0.000355207)
(0.0404883 0.0014942 -0.000324389)
(0.043289 0.00260923 -0.000189958)
(0.045264 0.00425413 -0.000287105)
(0.0500838 0.00591168 5.48637e-05)
(0.0515816 0.00848069 -0.00036693)
(0.0608148 0.0116779 0.000180944)
(0.060362 0.0149881 -0.000228237)
(0.0715022 0.0195105 -0.000944181)
(0.0742204 0.0191893 0.00129224)
(0.0801004 0.0245965 -0.00281512)
(0.0859728 0.022728 0.000415131)
(0.101304 0.0158374 -0.00179337)
(0.0910721 0.0160122 -0.000475236)
(0.117859 0.0145031 -0.00298777)
(0.118191 -0.0354128 -0.00669794)
(0.142528 -0.0253064 -0.018266)
(0.145861 -0.0828292 -0.0281461)
(0.201928 -0.028732 0.0204657)
(0.106244 -0.132603 -0.0713556)
(0.222798 -0.0199272 0.0068414)
(0.15045 -0.0999111 -0.0695917)
(0.28074 -0.121079 -0.0119547)
(0.063951 -0.149255 -0.0567773)
(0.307848 -0.12032 -0.0205491)
(0.0398015 -0.170665 0.0685504)
(-0.348502 0.142469 0.0940518)
(-0.758954 0.593061 -0.0290068)
(-0.401894 -0.0729452 0.0712004)
(0.019443 -0.000909241 -0.00035883)
(0.0209679 -0.00107545 -0.000396152)
(0.0226653 -0.00123981 -0.000435434)
(0.024547 -0.0013808 -0.00047472)
(0.0266083 -0.00146473 -0.000510306)
(0.0288277 -0.00145188 -0.000536408)
(0.0311565 -0.00129642 -0.000545633)
(0.0335509 -0.000972071 -0.000530993)
(0.0359062 -0.000424185 -0.000491476)
(0.0382855 0.00028847 -0.000425914)
(0.0404738 0.0012813 -0.000362411)
(0.0429803 0.00219632 -0.000248378)
(0.0451822 0.00363861 -0.000201483)
(0.0490513 0.00503798 -4.12003e-05)
(0.0524213 0.00763827 1.11036e-06)
(0.0587308 0.0124002 0.000128027)
(0.0647544 0.019724 0.00062146)
(0.0662994 0.022142 -0.000414129)
(0.0850337 0.0236415 0.00221328)
(0.0634791 0.0340377 -0.00180599)
(0.108051 0.0211986 0.000217302)
(0.0681723 0.0403059 0.00330339)
(0.0910881 0.0268549 -0.00920546)
(0.100712 0.0150224 0.0109934)
(0.0350486 0.0661341 0.0140612)
(-0.000495601 0.0772558 0.00222567)
(-0.0233415 0.0785958 -0.014173)
(-0.0208454 0.0793096 -0.00164037)
(-0.0332346 0.0980539 -0.0391643)
(-0.0186186 0.125908 -0.00486409)
(-0.0267468 0.152825 -0.0441212)
(-0.0701818 0.23213 -0.0519086)
(-0.0929903 0.247967 -0.0671597)
(-0.0579836 0.309826 -0.0524836)
(-0.126753 0.336191 -0.075239)
(0.0156848 0.278059 0.0772295)
(-0.24195 0.165909 0.0996302)
(0.0545086 -1.81851 0.129384)
(0.0192986 -0.00076324 -0.000383918)
(0.0208171 -0.000922541 -0.000429477)
(0.0225244 -0.00109009 -0.000479147)
(0.0244497 -0.00125154 -0.000530227)
(0.0266143 -0.00138166 -0.000578039)
(0.0290235 -0.00144216 -0.000614642)
(0.0316289 -0.00138682 -0.000630688)
(0.0343964 -0.00117822 -0.000610658)
(0.0371104 -0.000808913 -0.000559119)
(0.0399061 -0.000318839 -0.000451393)
(0.0422274 9.52521e-05 -0.000368234)
(0.0455786 0.000358768 -0.000179002)
(0.0474295 0.000100577 -0.000192089)
(0.0545526 -0.000339271 0.000133436)
(0.0562849 -0.00162552 -0.000120258)
(0.0720246 -0.00114961 0.000422906)
(0.0652585 0.00363222 -0.00117929)
(0.081413 0.00111862 0.000647794)
(0.0719015 0.0123844 3.28612e-05)
(0.0911331 0.0120626 0.00150393)
(0.0811723 0.0213977 -0.000857671)
(0.100957 0.0193859 0.000766997)
(0.0890994 0.0281581 0.0011447)
(0.109331 0.015964 -0.00661801)
(0.106557 0.0015809 -0.00155096)
(0.114038 0.0102773 0.00223908)
(0.115785 -0.0107915 0.00226199)
(0.112271 0.00093234 0.00979137)
(0.108507 -0.0162785 0.0110594)
(0.0950389 0.0258577 0.0100686)
(0.130688 0.0100676 0.0103123)
(0.0806843 0.114753 -0.00600022)
(0.208124 0.00422224 -0.00988111)
(0.202176 -0.0109911 -0.0459082)
(0.402664 0.0351335 -0.0263484)
(0.417743 -0.304824 -0.103976)
(0.327375 -0.0955224 0.0562312)
(0.139389 -0.865955 -0.237265)
(0.0191708 -0.000513702 -0.000404007)
(0.0206749 -0.000639232 -0.000457698)
(0.022372 -0.000775618 -0.000518575)
(0.0242897 -0.000911563 -0.000584925)
(0.0264455 -0.0010284 -0.000652235)
(0.0288365 -0.00110121 -0.000711268)
(0.0314135 -0.00110072 -0.000747622)
(0.034093 -0.00100789 -0.000742928)
(0.0367116 -0.000845414 -0.000684182)
(0.0390983 -0.000614334 -0.000570709)
(0.0411359 -0.000724335 -0.000429558)
(0.0428378 -0.000703124 -0.000236402)
(0.0446585 -0.00274925 -0.000152677)
(0.0466038 -0.00314669 9.40809e-05)
(0.0538666 -0.00881792 0.00031793)
(0.0649354 0.00653391 0.00110475)
(0.0623035 0.017582 0.00169292)
(0.0823773 0.0121282 0.00350384)
(0.068262 0.0147954 0.00358273)
(0.0969376 0.0214743 0.00463426)
(0.0736686 0.0163042 0.00688156)
(0.0877335 0.037676 -0.000887625)
(0.0825591 0.0224379 0.00535026)
(0.0740217 0.0406907 0.0161611)
(-0.0175403 0.0685232 0.00295437)
(-0.0253842 0.071904 -0.00625927)
(-0.0431025 0.0636912 -0.0103396)
(-0.0408267 0.0549664 -0.00498408)
(-0.0572494 0.0505492 -0.000252599)
(-0.0614031 0.0802923 -0.00345636)
(-0.0573241 0.124335 -0.0185185)
(-0.0624145 0.201297 -0.00825304)
(-0.0945056 0.291241 -0.0253961)
(-0.159086 0.419926 -0.0616309)
(-0.187583 0.536931 -0.0993655)
(-0.0150662 0.706137 -0.118205)
(-0.244344 0.462945 -0.0976164)
(0.517963 -1.32968 -0.345305)
(0.0190772 -0.000212403 -0.000396099)
(0.0205726 -0.000285827 -0.000452871)
(0.0222723 -0.000370241 -0.000518872)
(0.0242179 -0.000459838 -0.000591244)
(0.0264434 -0.000542099 -0.000664985)
(0.0289636 -0.000593591 -0.000728273)
(0.031725 -0.000581474 -0.000763169)
(0.0346443 -0.000476057 -0.000743449)
(0.0374902 -0.00028052 -0.000654241)
(0.0400416 -5.62209e-05 -0.000497002)
(0.0422435 -1.83088e-05 -0.00026112)
(0.0436028 -0.00103481 -0.000270629)
(0.0467094 -0.00269788 0.000749429)
(0.0449466 -0.00959222 -0.00139602)
(0.0723206 -0.0262055 0.00245101)
(0.0613667 -0.017674 -0.000281356)
(0.0631127 -0.0267455 -0.00685787)
(0.0568393 -0.0315819 -0.000304626)
(0.0512233 -0.0277351 0.00165993)
(0.0418685 -0.0187888 0.000847119)
(0.0336705 -0.0108855 -0.000682404)
(0.0516941 0.00611495 0.00117457)
(0.069567 0.0196381 -0.00816519)
(0.0988233 0.0181831 0.00335483)
(0.0635542 0.0456801 0.0108964)
(0.0724123 0.0526076 0.007919)
(0.0359889 0.0444701 0.00246572)
(0.0474424 0.0416795 -0.000815819)
(0.035188 0.0250698 0.00294401)
(0.0339193 0.0172728 0.012299)
(0.0325812 0.0605802 0.0156745)
(0.0311402 0.123832 0.0127657)
(0.0928652 0.139566 0.0222077)
(0.0555914 0.199195 -0.0156155)
(0.417505 0.170132 0.0361948)
(0.0539682 0.0781034 -0.0856274)
(0.755323 -0.0616966 -0.107374)
(0.665385 -0.770125 -0.571269)
(0.0188328 -1.25162e-05 -0.000348571)
(0.0203105 -3.42345e-05 -0.000402351)
(0.0219884 -6.32877e-05 -0.000466808)
(0.0239042 -0.000102682 -0.000542795)
(0.0260914 -0.000158457 -0.000626065)
(0.028565 -0.000234375 -0.000706473)
(0.031281 -0.000336722 -0.000762827)
(0.0341136 -0.000458466 -0.000762819)
(0.0368144 -0.000646082 -0.000671638)
(0.0390084 -0.000920038 -0.000484709)
(0.0398237 -0.00149099 -0.000187165)
(0.0401559 -0.00327708 5.33366e-06)
(0.0325803 -0.005956 8.94765e-05)
(0.0336768 -0.0202341 -0.000456563)
(-0.00707689 -0.039641 0.0024368)
(-0.0682992 0.0266074 0.0048233)
(-0.0182539 0.0583276 0.0039207)
(-0.05948 0.0150937 0.00119502)
(-0.0686957 0.0194289 -0.0111219)
(-0.0207646 0.0321761 -0.00420618)
(-0.0522303 0.00671631 0.00705462)
(-0.0795147 0.000314211 0.00148612)
(-0.0560472 0.0258897 -0.00100928)
(-0.0426358 0.0394233 0.00859081)
(-0.0619798 0.0408749 0.0156987)
(-0.056813 0.0573954 0.0169358)
(-0.0684715 0.0603943 0.0169935)
(-0.0845161 0.0560662 0.01751)
(-0.106805 0.0484736 0.0175412)
(-0.159971 0.0347418 0.021889)
(-0.219426 0.0517555 0.0317911)
(-0.281855 0.0804977 0.0440862)
(-0.353245 0.119753 0.0531257)
(-0.488377 0.221921 0.0616815)
(-0.526123 0.513992 0.0753645)
(-0.511666 0.714305 0.0387248)
(-0.132736 0.818801 0.0745969)
(-0.668881 1.26827 0.00857724)
(0.0202977 -0.000154392 -0.000713029)
(0.0217801 -0.000168104 -0.000751612)
(0.0233455 -0.000177705 -0.000785765)
(0.024974 -0.000180236 -0.000813102)
(0.0266351 -0.000172067 -0.000830574)
(0.0282849 -0.000149366 -0.000833887)
(0.029862 -0.000109556 -0.000818506)
(0.0312785 -5.0643e-05 -0.000776607)
(0.0323993 4.9206e-05 -0.000696229)
(0.0330444 0.000217726 -0.000546515)
(0.032853 0.000516087 -0.000277824)
(0.0313188 0.00109785 0.000250538)
(0.027071 0.00232075 0.00129412)
(0.017992 0.00521075 0.00369113)
(-0.00266756 0.012593 0.00902572)
(-0.04901 0.0350254 0.0231498)
(-0.167323 0.085355 0.0486209)
(-0.472348 0.0544613 0.0660135)
(-0.700227 -0.106627 0.0508265)
(-0.56907 -0.125672 -0.01296)
(-0.429907 0.0274107 -0.0887809)
(-0.371581 0.0915137 -0.0885903)
(-0.326074 -0.0229517 0.0403883)
(-0.42571 -0.104932 0.0806825)
(-0.498899 -0.124078 0.050811)
(-0.475167 -0.135276 0.0838322)
(-0.519104 -0.137219 0.102767)
(-0.576963 -0.134372 0.114248)
(-0.69028 -0.101944 0.214789)
(-0.882233 -0.167112 0.15938)
(-1.09874 -0.338242 0.190984)
(-1.07318 -0.376794 0.117487)
(-0.946732 -0.497054 0.189158)
(-1.08522 -0.846088 0.28955)
(-0.888479 -1.17985 0.299502)
(-0.861861 -1.5625 0.388707)
(-0.431629 -1.91756 0.362933)
(-0.0770543 -2.83661 0.399569)
(0.0205495 -0.000397873 -0.000812469)
(0.0220546 -0.000434551 -0.000859214)
(0.0236489 -0.00045941 -0.000901831)
(0.0253142 -0.000463829 -0.000937774)
(0.0270206 -0.00043635 -0.00096398)
(0.0287235 -0.000361326 -0.000976564)
(0.0303601 -0.000214431 -0.000969935)
(0.0318599 3.40208e-05 -0.000936867)
(0.0331119 0.000415722 -0.000865367)
(0.0339704 0.000995782 -0.000735437)
(0.0341917 0.00192119 -0.0005105)
(0.0335258 0.00345492 -9.48753e-05)
(0.0313745 0.00625144 0.000632104)
(0.0275307 0.0116312 0.00205372)
(0.0211932 0.0228546 0.00456656)
(0.0142444 0.046823 0.00906304)
(0.0144945 0.096566 0.0166695)
(0.0207828 0.145509 0.0161082)
(-0.0262352 0.128193 -0.00715586)
(-0.0995821 0.0664508 -0.0243471)
(-0.15773 0.034126 -0.0278104)
(-0.0978971 0.0447527 -0.0649607)
(0.0058286 0.0384318 -0.0753995)
(0.0867769 0.00305012 -0.0638932)
(0.108824 -0.0301075 -0.0464577)
(0.136383 -0.0349524 -0.020519)
(0.146349 -0.0673921 -0.029011)
(0.269725 -0.0184242 0.002223)
(0.127386 0.141725 -0.0224706)
(0.342799 0.0460821 -0.0526852)
(0.396443 0.179811 -0.0637138)
(0.220651 0.222279 -0.292183)
(0.596257 0.0620693 -0.20846)
(0.318845 0.147477 -0.321645)
(0.723016 0.195091 -0.422308)
(0.622979 0.261426 -0.427793)
(0.471569 0.403121 -0.978491)
(-0.217226 0.00465688 -1.31964)
(0.0205058 -0.000589194 -0.000868475)
(0.0220209 -0.000649346 -0.000921299)
(0.0236345 -0.000691757 -0.000970115)
(0.0253314 -0.000702799 -0.00101194)
(0.0270876 -0.000665038 -0.00104316)
(0.0288709 -0.000557629 -0.00105957)
(0.0306329 -0.00035833 -0.00105697)
(0.0322914 -3.7869e-05 -0.00103054)
(0.0337444 0.000459515 -0.00097407)
(0.0349124 0.00121203 -0.000867032)
(0.0356218 0.00236501 -0.000699288)
(0.0358053 0.00414126 -0.000386987)
(0.0350988 0.00699793 8.14841e-05)
(0.0337623 0.011692 0.00103125)
(0.0311075 0.0194312 0.00243845)
(0.0299565 0.0317681 0.00523903)
(0.0319697 0.0511228 0.00891196)
(0.0494974 0.0639727 0.0125663)
(0.0577542 0.0355641 0.0174265)
(0.0610464 0.00279098 0.020046)
(0.0420176 0.0224194 0.0388375)
(0.0537994 0.0301771 0.00783534)
(0.0584514 0.00631736 -0.00201398)
(0.0971698 -0.0493674 -0.0245487)
(0.120399 -0.108004 -0.0313065)
(0.107376 -0.0882009 -0.0238587)
(0.147681 -0.169209 -0.0175727)
(0.0377033 -0.131287 0.0811792)
(0.268441 -0.143789 -0.127797)
(0.264202 -0.0806528 0.165089)
(0.077883 -0.212859 -0.0271443)
(0.370269 0.00409363 -0.0193671)
(0.275843 -0.179683 0.206379)
(0.0734166 -0.442676 0.150198)
(0.387494 -0.24267 0.195516)
(0.25138 -0.941532 -0.156471)
(0.822894 -0.298483 -0.0434051)
(1.30453 -0.330431 1.0412)
(0.0204362 -0.000738398 -0.000890716)
(0.0219646 -0.000823385 -0.000948525)
(0.0236039 -0.000887333 -0.0010027)
(0.0253426 -0.000912025 -0.00104988)
(0.0271573 -0.00087331 -0.0010858)
(0.0290078 -0.000739611 -0.00110547)
(0.0308391 -0.00046924 -0.00110358)
(0.0326108 -1.86343e-05 -0.00107418)
(0.0342574 0.000677092 -0.0010151)
(0.0357126 0.00166416 -0.000912437)
(0.0368671 0.00310205 -0.000761916)
(0.0377499 0.00512704 -0.000515621)
(0.0382469 0.00819983 -0.00017328)
(0.0387984 0.0126314 0.000402653)
(0.0393045 0.0194592 0.00116113)
(0.0423 0.0290238 0.00238719)
(0.0474311 0.0418851 0.00329074)
(0.0645337 0.0533323 0.00424647)
(0.0756082 0.0564394 0.00102711)
(0.092099 0.0487246 -0.000687921)
(0.0786187 0.0514806 0.000418561)
(0.109038 0.0422472 -0.00558564)
(0.123273 0.0432763 -0.0103747)
(0.153735 0.0244314 -0.00794955)
(0.173226 0.0273494 -0.0198669)
(0.164056 -0.0132225 -0.0295508)
(0.156352 0.000486114 0.0184689)
(0.220806 0.0506713 -0.034945)
(0.074753 -0.0641873 0.0253785)
(0.176621 0.0582827 -0.00129816)
(0.178007 0.0161759 -0.00325968)
(0.0822053 -0.0842004 -8.73207e-06)
(0.282454 0.0492158 -0.0236547)
(0.144148 -0.0183809 -0.160266)
(0.366367 -0.194945 0.115038)
(0.254765 0.0754473 -0.22632)
(0.41423 -0.0257203 -0.0764779)
(-0.144229 -0.0749592 0.58427)
(0.0203443 -0.000864893 -0.000912059)
(0.0218863 -0.000977794 -0.000976918)
(0.0235552 -0.00107023 -0.00103885)
(0.0253461 -0.00112112 -0.00109384)
(0.0272469 -0.00110335 -0.00113652)
(0.0292411 -0.000986197 -0.00116066)
(0.0312908 -0.000735404 -0.00116182)
(0.0333335 -0.000313577 -0.00113243)
(0.0352709 0.000323907 -0.00106848)
(0.0371049 0.0012427 -0.000965043)
(0.0387465 0.00256058 -0.000852393)
(0.0403962 0.00434834 -0.000646165)
(0.0418347 0.00692149 -0.000496391)
(0.0438955 0.0104294 -6.51317e-05)
(0.0458073 0.0151895 4.89974e-05)
(0.0502263 0.0216109 0.000915153)
(0.0543937 0.0277345 0.000599465)
(0.0649772 0.0339854 0.00181457)
(0.069858 0.030406 -0.00032826)
(0.0840449 0.026489 0.00205623)
(0.0812513 0.0231794 -0.00238053)
(0.100357 0.0210832 0.00148025)
(0.104472 0.0154719 -0.00870395)
(0.115321 -0.0124953 -0.00118338)
(0.123183 -0.0321298 -0.021797)
(0.131457 -0.0542812 0.0039406)
(0.122645 -0.0871037 -0.0170003)
(0.127078 -0.0608898 -0.0427867)
(0.143571 -0.129432 0.0163444)
(0.125088 -0.0605374 -0.0426526)
(0.149873 -0.154325 -0.000907366)
(0.109863 -0.102017 -0.0568726)
(0.113394 -0.16813 -0.0225614)
(0.148976 -0.23108 -0.0231872)
(0.209956 -0.174743 -0.102336)
(0.304988 -0.551801 -0.107407)
(0.0924799 0.239964 -0.15322)
(0.0238042 0.0245297 -0.0286613)
(0.0202282 -0.000955812 -0.000945881)
(0.0217809 -0.0010971 -0.00102143)
(0.0234774 -0.00122227 -0.00109568)
(0.025317 -0.00130803 -0.00116394)
(0.0272852 -0.00132114 -0.0012195)
(0.029348 -0.00121866 -0.00125333)
(0.0314571 -0.000954225 -0.0012553)
(0.0335807 -0.00048382 -0.00121855)
(0.0356807 0.000261851 -0.00114729)
(0.0377538 0.00128225 -0.00103622)
(0.0396987 0.00269522 -0.000904122)
(0.041735 0.0044355 -0.000704902)
(0.0437659 0.00695019 -0.000534109)
(0.0463964 0.0099162 -0.000260119)
(0.0494346 0.0142912 -1.49555e-05)
(0.0538022 0.0192932 0.000186805)
(0.0590323 0.0249811 0.000471654)
(0.0662879 0.030547 0.000274589)
(0.0735006 0.0312074 -0.00040035)
(0.0832338 0.0356926 -0.00123041)
(0.0858359 0.0338284 -0.00370697)
(0.101786 0.0368737 -0.00203256)
(0.105103 0.0331412 -0.0101872)
(0.128501 0.0315222 -0.00251964)
(0.125176 0.0266892 -0.0140606)
(0.143051 0.0264792 -0.0040803)
(0.136924 0.0367444 0.00505776)
(0.147969 -0.0150908 -0.0297048)
(0.138319 0.0449981 0.0213911)
(0.154455 -0.000521372 0.00280757)
(0.138884 0.0571854 -0.0291807)
(0.114754 0.00543781 0.0207286)
(0.153835 0.0695254 -0.011486)
(0.0503094 0.0302677 0.0476188)
(0.249697 -0.0578757 0.0467635)
(-0.0424776 0.138404 0.00987433)
(-0.294522 0.233774 0.0482515)
(-0.128307 -0.313644 0.0319968)
(0.0200902 -0.000992571 -0.000994625)
(0.0216482 -0.0011581 -0.00108531)
(0.0233686 -0.00131564 -0.00117726)
(0.0252625 -0.00144303 -0.00126457)
(0.0273356 -0.00151047 -0.00133806)
(0.029583 -0.00148195 -0.00138613)
(0.0319677 -0.00131034 -0.00139607)
(0.0344457 -0.000957438 -0.0013522)
(0.0368812 -0.000388258 -0.00126034)
(0.0393143 0.00035983 -0.00108679)
(0.0415962 0.00138264 -0.000951211)
(0.0442513 0.00256563 -0.000693546)
(0.0467067 0.0041671 -0.000680731)
(0.050562 0.00595266 -0.000269853)
(0.0539666 0.00858832 -0.000510633)
(0.059925 0.0117907 -0.000117772)
(0.0640959 0.0157809 -0.000589268)
(0.0702594 0.0202669 -0.00114383)
(0.0758265 0.021332 -0.000187883)
(0.0831534 0.0261224 -0.00300601)
(0.0855703 0.024151 -0.0021283)
(0.0980003 0.0220978 -0.00401588)
(0.0991661 0.0203293 -0.00435609)
(0.111745 0.00708269 -0.0054558)
(0.117702 -0.0123317 -0.0154807)
(0.120798 -0.0179684 -0.0214748)
(0.112393 -0.0139619 -0.0184743)
(0.123931 -0.0552192 -0.0123211)
(0.126479 -0.00335542 -0.0180762)
(0.114461 -0.0626994 -0.027826)
(0.132195 -0.037473 -0.0276655)
(0.123311 -0.047283 -0.0273213)
(0.107763 -0.0319028 -0.0292088)
(0.166052 -0.0821433 -0.0155185)
(0.00601997 -0.0822476 0.0574498)
(0.145487 -0.0958274 0.241694)
(-0.357666 -0.00209063 0.372135)
(-0.0976548 -0.479839 0.415244)
(0.0199378 -0.000952369 -0.00105692)
(0.0214932 -0.00113091 -0.00116772)
(0.0232259 -0.00131064 -0.00128471)
(0.0251493 -0.0014699 -0.00140212)
(0.0272617 -0.00157456 -0.00150919)
(0.0295446 -0.00158316 -0.001589)
(0.0319524 -0.00144859 -0.00162083)
(0.0344401 -0.00113727 -0.00158457)
(0.0369066 -0.000604786 -0.00147692)
(0.039393 0.000121097 -0.00129951)
(0.041742 0.00106535 -0.00110483)
(0.0443225 0.00207079 -0.000822629)
(0.0468666 0.00330666 -0.000616463)
(0.0506119 0.00490725 -0.000285242)
(0.0547209 0.00709852 -6.33557e-07)
(0.0609192 0.0119199 0.000316783)
(0.0667121 0.0182 0.000963716)
(0.0711306 0.0206433 0.000134684)
(0.0809309 0.0240168 0.00209256)
(0.079707 0.0285879 -0.00136379)
(0.0922563 0.0261671 -0.000962073)
(0.0888849 0.0308869 0.00219053)
(0.0912956 0.0297788 -0.00942323)
(0.0965949 0.0194948 0.0103836)
(0.0961834 0.0321086 0.0151998)
(0.0863193 0.031785 0.00983838)
(0.105866 0.0251652 -0.00830243)
(0.0673625 0.032208 -0.00624729)
(0.146961 -0.0241419 -0.0155617)
(0.0456933 0.052633 -0.0188254)
(0.181486 -0.0358704 0.000377975)
(0.059196 0.0527253 -0.0439966)
(0.152738 0.0137594 -0.0294461)
(0.0954321 0.125838 -0.0189849)
(0.0815471 0.155233 -0.0499396)
(0.01302 0.345348 0.170556)
(-0.0476102 0.174831 0.205944)
(0.152905 -0.0527138 0.0226724)
(0.0197864 -0.000818524 -0.00112473)
(0.0213335 -0.000993164 -0.00125874)
(0.0230745 -0.00118044 -0.00140495)
(0.0250407 -0.00136646 -0.00155565)
(0.0272562 -0.00152592 -0.00169671)
(0.0297273 -0.00161897 -0.00180444)
(0.0324107 -0.00159619 -0.00184861)
(0.0352565 -0.0014139 -0.00178878)
(0.0380762 -0.00105981 -0.00162165)
(0.0408906 -0.000569263 -0.00132401)
(0.0434048 -0.000150961 -0.00101478)
(0.0464143 0.000138121 -0.000595198)
(0.0491049 -0.000143395 -0.000376579)
(0.0544097 -0.0005254 0.000111555)
(0.0592514 -0.00183039 0.000281897)
(0.0698667 -0.00053122 0.000348573)
(0.0698411 0.00472031 -0.00167981)
(0.0775693 0.00531698 0.000647193)
(0.0790613 0.0147024 2.28685e-05)
(0.0871826 0.018093 0.000891775)
(0.0883846 0.0223768 -0.00284185)
(0.0956827 0.0286521 -0.00213328)
(0.0975057 0.0232513 -0.00155454)
(0.104779 0.0172744 -0.0107695)
(0.103702 0.0168521 -0.00446848)
(0.100052 0.00914794 -0.00674969)
(0.117894 -0.00955959 -0.000645533)
(0.100737 -0.0161904 0.00325476)
(0.137751 -0.0426909 0.0111191)
(0.0946987 -0.0201293 0.00920198)
(0.188228 -0.0593389 0.00667063)
(0.116728 0.00159386 0.00624991)
(0.237686 -0.0663872 -0.0513313)
(0.202469 -0.0401809 -0.0842608)
(0.305732 -0.0870687 -0.112403)
(0.213854 0.0399295 -0.0831227)
(0.356034 -0.232102 -0.0425852)
(0.142098 -0.279643 0.0535967)
(0.0196563 -0.000595765 -0.00117133)
(0.0211871 -0.000741503 -0.00132737)
(0.0229156 -0.000904248 -0.00150457)
(0.024872 -0.00107377 -0.00169814)
(0.0270784 -0.00123269 -0.00189475)
(0.0295376 -0.00135545 -0.00206704)
(0.0322068 -0.00140982 -0.002172)
(0.0350031 -0.00137009 -0.00215545)
(0.0377559 -0.00124887 -0.00197975)
(0.0402795 -0.00105313 -0.00164509)
(0.0424744 -0.0011284 -0.00122112)
(0.0442356 -0.00130134 -0.000731792)
(0.046531 -0.00276456 -0.000212378)
(0.0480423 -0.00422059 -0.000181755)
(0.0566314 -0.0085115 0.00161307)
(0.0659816 0.00545409 0.00330201)
(0.0670654 0.0132465 0.00458712)
(0.0803567 0.0119733 0.00883176)
(0.074011 0.0169964 0.00970843)
(0.0929088 0.0263013 0.00873043)
(0.0854053 0.0232366 0.0125852)
(0.0942599 0.0368254 0.00348246)
(0.0844696 0.0353128 0.00300692)
(0.0936585 0.0315263 0.0215516)
(0.075485 0.0404964 0.0179878)
(0.0728974 0.0437373 -0.00099832)
(0.0762028 0.0440056 -0.00942051)
(0.0677231 0.0421591 -0.00867616)
(0.0676718 0.0299527 -0.01179)
(0.0596404 0.0221578 0.00308652)
(0.0620459 0.026747 -0.0128332)
(0.046978 0.0646968 -0.00177721)
(0.0670027 0.119716 -0.0362309)
(0.0344269 0.233218 -0.0493523)
(0.0549139 0.331558 -0.102699)
(-0.0237775 0.445897 -0.142319)
(0.129928 0.63271 -0.125138)
(-0.0900888 0.381676 0.00327862)
(0.0195642 -0.000332552 -0.00114251)
(0.0210849 -0.000430665 -0.00130693)
(0.0228145 -0.00054691 -0.00149775)
(0.0247972 -0.000677986 -0.00170881)
(0.0270709 -0.00081284 -0.00192427)
(0.0296557 -0.000928782 -0.00210833)
(0.032505 -0.000990395 -0.00220447)
(0.035528 -0.000959548 -0.00213804)
(0.0384963 -0.00082692 -0.00185528)
(0.0411354 -0.000637494 -0.00140312)
(0.0433938 -0.000623499 -0.000690205)
(0.0449776 -0.00154633 -0.000710481)
(0.0470586 -0.00371241 0.00184131)
(0.050352 -0.00984082 -0.0027531)
(0.0638346 -0.0271058 0.00750885)
(0.0648588 -0.0197418 -0.00081517)
(0.0463117 -0.0209465 -0.0137243)
(0.0381316 -0.0203236 0.00339414)
(0.0355518 -0.0125338 0.00544061)
(0.0431813 0.00365036 0.000921652)