/*--------------------------------*- C++ -*----------------------------------*\
| =========                 |                                                 |
| \\      /  F ield         | OpenFOAM: The Open Source CFD Toolbox           |
|  \\    /   O peration     | Version:  2.3.1                                 |
|   \\  /    A nd           | Web:      www.OpenFOAM.org                      |
|    \\/     M anipulation  |                                                 |
\*---------------------------------------------------------------------------*/
FoamFile
{
    version     2.0;
    format      ascii;
    class       volScalarField;
    location    "15";
    object      epsilon_0;
}
// * * * * * * * * * * * * * * * * * * * * * * * * * * * * * * * * * * * * * //

dimensions      [0 2 -3 0 0 0 0];

internalField   nonuniform List<scalar> 
38262
(
0.00101651
0.00115746
0.00122177
0.00122435
0.00117063
0.00112009
0.00103955
0.000934356
0.000915285
0.000984019
0.00116355
0.00126157
0.00145251
0.00159712
0.00194491
0.00259292
0.00302118
0.00334357
0.00359248
0.00363367
0.00396247
0.00511454
0.00738539
0.00963372
0.00982698
0.00943432
0.00908479
0.00919997
0.0107924
0.0124957
0.0149574
0.0179093
0.0212153
0.0342097
0.11952
0.21094
1.21386
10.1019
0.000765119
0.00150948
0.00171315
0.00160984
0.00152633
0.00161642
0.00179462
0.00180648
0.00170787
0.00165935
0.00172893
0.00194786
0.00201907
0.00204588
0.00225454
0.00228339
0.00250759
0.0028315
0.0035136
0.00385562
0.00413644
0.00492205
0.00597739
0.006477
0.00641074
0.00562803
0.00540907
0.00608555
0.00931329
0.0106111
0.0141359
0.018537
0.021956
0.0343836
0.206351
1.11002
3.0326
13.2676
0.000222001
0.000241669
0.000231956
0.000285753
0.000652461
0.00130674
0.0015047
0.00156648
0.00161068
0.00162524
0.00160745
0.00157905
0.0015612
0.00151719
0.00146335
0.00139489
0.00133286
0.00122947
0.00117624
0.0011316
0.00106326
0.0010111
0.00107347
0.0010596
0.00100354
0.00125863
0.00282614
0.0049452
0.00664168
0.00747374
0.00668487
0.010429
0.0115423
0.0282661
0.0585279
0.32577
0.664801
10.2413
0.000101706
9.45989e-05
7.889e-05
7.64198e-05
6.71014e-05
8.47456e-05
0.000287536
0.00102228
0.00136868
0.00147047
0.00153368
0.00154908
0.00150483
0.00144255
0.00133098
0.00122997
0.00112874
0.000989284
0.000837434
0.000823973
0.000708733
0.000678508
0.000676801
0.000728269
0.00074592
0.000778621
0.00101301
0.00104496
0.00201344
0.00179472
0.00262364
0.00322671
0.00457557
0.0155715
0.0178665
0.0724075
1.37132
10.5064
4.17625e-05
4.01945e-05
3.41398e-05
3.06464e-05
2.57836e-05
2.66291e-05
2.9405e-05
6.42764e-05
0.000482996
0.00108003
0.00130159
0.00135848
0.00131245
0.00129007
0.00120464
0.00103453
0.000938402
0.000789737
0.000641836
0.000589123
0.000574648
0.000523232
0.000487275
0.000520553
0.000529691
0.000665768
0.000605293
0.00106341
0.00133481
0.00106504
0.00324654
0.00332929
0.00386955
0.00615681
0.0134191
0.114306
1.77321
10.8159
1.64177e-05
1.74388e-05
1.70577e-05
1.58839e-05
1.57469e-05
1.57404e-05
1.60078e-05
1.83856e-05
3.90869e-05
0.00013455
0.000507108
0.000801726
0.000913377
0.000879626
0.000784982
0.000597493
0.000487632
0.000378357
0.000332894
0.000331679
0.000380666
0.000357298
0.00043238
0.000374648
0.000483109
0.000553274
0.000550793
0.000689419
0.000673198
0.000686271
0.00311509
0.00251605
0.00721733
0.00935876
0.0223344
0.0919904
1.19891
10.001
7.25697e-06
8.51701e-06
9.29911e-06
9.48723e-06
1.05922e-05
1.12086e-05
1.2662e-05
1.36295e-05
1.67532e-05
2.12769e-05
4.47328e-05
9.80299e-05
0.000238985
0.000242635
0.000248505
0.000249403
0.000225887
0.000170793
0.000152507
0.000156671
0.000229972
0.000245389
0.000274584
0.00027081
0.000281422
0.00027447
0.000330245
0.000296337
0.000384762
0.000583933
0.00183185
0.0026369
0.00453155
0.0111987
0.0355371
0.172041
0.988084
6.68047
6.27186e-06
6.79719e-06
7.95353e-06
8.46656e-06
9.71864e-06
1.11185e-05
1.16997e-05
1.43198e-05
1.54884e-05
1.83323e-05
2.08032e-05
2.63131e-05
4.95863e-05
4.78785e-05
4.81175e-05
6.64296e-05
7.69662e-05
7.71853e-05
7.96322e-05
8.65994e-05
0.000118317
0.000146295
0.000181511
0.000188845
0.000213464
0.000216121
0.000239874
0.000268106
0.00025356
0.000311894
0.000728424
0.00424657
0.0095699
0.0487718
0.0530839
0.280761
1.30883
5.60805
5.7666e-06
6.669e-06
7.15036e-06
7.95946e-06
9.21611e-06
1.00047e-05
1.07636e-05
1.31431e-05
1.38811e-05
1.59823e-05
1.96185e-05
2.0419e-05
2.6201e-05
3.11056e-05
3.37745e-05
4.22989e-05
4.65885e-05
6.01116e-05
7.90653e-05
8.53079e-05
0.000101441
0.000107473
0.000156246
0.000159087
0.000212711
0.000265461
0.000348671
0.000426902
0.000451806
0.000513799
0.000730162
0.00143266
0.00475106
0.0366468
0.120904
0.538745
2.45781
7.27215
5.51953e-06
6.2312e-06
7.22174e-06
7.43703e-06
8.72906e-06
9.45292e-06
1.0441e-05
1.14666e-05
1.27933e-05
1.40324e-05
1.60252e-05
1.91592e-05
2.65794e-05
3.0242e-05
4.14887e-05
4.94167e-05
6.91546e-05
8.65082e-05
0.000140068
0.000183679
0.000181532
0.000192711
0.000260272
0.000307768
0.000468032
0.000520619
0.000719266
0.000788875
0.00089908
0.000735689
0.0027547
0.0138232
0.0337247
0.0744136
0.263457
0.940064
3.37519
9.60631
4.86632e-06
5.31079e-06
6.50424e-06
6.52313e-06
7.48513e-06
8.25964e-06
8.96429e-06
9.61328e-06
1.09816e-05
1.58178e-05
2.01856e-05
3.37331e-05
5.43759e-05
6.16278e-05
7.8193e-05
8.93869e-05
9.61527e-05
0.000116176
0.000189821
0.000263502
0.00029486
0.000336603
0.000471038
0.000529911
0.000664018
0.000587035
0.000929585
0.00156821
0.00451036
0.00479208
0.0038712
0.00839123
0.0258263
0.0956638
0.332297
1.14739
3.69661
9.5733
3.08559e-06
3.48307e-06
3.91087e-06
3.90965e-06
4.47883e-06
5.01859e-06
4.93633e-06
5.48841e-06
1.14302e-05
4.34219e-05
4.74673e-05
4.76242e-05
5.52629e-05
6.59276e-05
7.44127e-05
6.60377e-05
7.62824e-05
0.00010378
0.000105656
8.49739e-05
0.000135255
0.000237892
0.000253224
0.000161529
0.000189499
0.000436088
0.00213534
0.00887393
0.036699
0.0521544
0.0570369
0.105137
0.229686
0.442443
0.939005
2.11264
4.41437
8.80612
0.000774854
0.00093033
0.000966577
0.000924455
0.000917888
0.000916443
0.00081389
0.00063977
0.000570141
0.000640373
0.000935381
0.0011006
0.00131565
0.00162808
0.00180691
0.00264726
0.00347341
0.00389443
0.00465396
0.00473326
0.00465348
0.00555224
0.00740164
0.0104173
0.0112006
0.0105329
0.00965906
0.0103793
0.0112305
0.0127825
0.014599
0.0174553
0.0198568
0.0214499
0.0342268
0.0974286
0.944502
13.0023
0.000869157
0.00180037
0.00236678
0.00171884
0.00158105
0.00174456
0.00182112
0.00160628
0.00130752
0.00106224
0.00106095
0.00128159
0.00167538
0.00207135
0.00257979
0.00307916
0.00377079
0.00432523
0.00505644
0.00561715
0.0061411
0.0074635
0.00924249
0.0111687
0.0122197
0.0122339
0.0110885
0.0122328
0.0134036
0.0158771
0.0162525
0.02121
0.020443
0.0345221
0.105117
0.596592
3.99485
69.3031
0.000230334
0.000295398
0.000340769
0.000386413
0.000559591
0.00115025
0.00132363
0.00133029
0.00140089
0.0013842
0.0011901
0.000958937
0.000929739
0.00087234
0.000842085
0.000836961
0.000843623
0.000842705
0.000876304
0.000866612
0.000916269
0.00107467
0.00121646
0.00134081
0.00152935
0.00269341
0.00324918
0.0047497
0.00387799
0.00489895
0.00509817
0.00926874
0.0082745
0.0203403
0.0754838
0.605441
1.36959
6.59337
7.12694e-05
6.84611e-05
6.60911e-05
6.08433e-05
5.95078e-05
7.45546e-05
0.000139931
0.000479181
0.0009668
0.00118734
0.00119075
0.00112745
0.000997051
0.000877094
0.000758028
0.000738149
0.000649737
0.000590378
0.000569256
0.000437529
0.000479128
0.000435863
0.000407096
0.000339694
0.00040252
0.000381558
0.000618062
0.000685042
0.00145274
0.00118546
0.00527684
0.0033817
0.00467789
0.0165169
0.0222291
0.0552522
0.228433
4.92971
2.93231e-05
2.72884e-05
2.19006e-05
1.99834e-05
1.47383e-05
1.52159e-05
1.61782e-05
2.65381e-05
0.000148425
0.000511923
0.000813036
0.00115201
0.00107345
0.00111642
0.00104771
0.00093554
0.00081401
0.000683777
0.000503462
0.000503694
0.000471937
0.000373401
0.000435265
0.000436232
0.000382403
0.000367408
0.000426219
0.000752992
0.000581355
0.000774352
0.00173768
0.00149684
0.00208411
0.00530947
0.0113506
0.0501199
0.674226
7.69016
8.50724e-06
8.40827e-06
7.76889e-06
6.74732e-06
5.39124e-06
5.76675e-06
5.3771e-06
6.62384e-06
1.47667e-05
3.63581e-05
0.000175001
0.000337282
0.000537589
0.000667843
0.000620108
0.000562252
0.000485931
0.000346298
0.00023776
0.000231278
0.000208501
0.000305458
0.000270592
0.000393991
0.000255659
0.000345148
0.000273579
0.00028423
0.000452927
0.000507611
0.00178007
0.00191244
0.00428494
0.010182
0.0216097
0.0535645
0.548764
7.04101
2.85094e-06
2.99531e-06
2.96794e-06
2.96747e-06
2.92102e-06
3.2139e-06
3.27946e-06
4.06359e-06
4.82626e-06
6.76849e-06
1.36003e-05
2.7714e-05
7.78268e-05
8.08597e-05
0.000100742
0.000103355
8.90362e-05
6.2103e-05
6.63711e-05
7.68591e-05
9.99686e-05
0.000143294
0.000161401
0.000126857
0.000145302
0.000268848
0.000205167
0.00035824
0.000607431
0.000980367
0.00205306
0.00168649
0.00250509
0.0118087
0.033615
0.208677
0.985762
6.25975
1.78944e-06
1.89801e-06
2.10772e-06
2.21041e-06
2.33356e-06
2.74536e-06
2.97151e-06
3.2967e-06
4.40218e-06
5.08195e-06
5.48262e-06
7.82135e-06
1.83685e-05
1.48615e-05
1.5034e-05
2.29593e-05
2.61965e-05
2.37707e-05
2.40046e-05
2.87091e-05
4.83971e-05
8.82735e-05
8.82666e-05
8.63607e-05
9.08915e-05
0.000121993
0.00011949
0.000142258
0.000175371
0.000214278
0.000656189
0.00332605
0.0111463
0.0266501
0.0362988
0.210067
1.43779
6.50681
1.62611e-06
1.68417e-06
1.90218e-06
2.00067e-06
2.12073e-06
2.41217e-06
2.66835e-06
2.84906e-06
3.9465e-06
4.32437e-06
4.53445e-06
7.06306e-06
9.14878e-06
9.39462e-06
1.01483e-05
1.15635e-05
1.91844e-05
2.32792e-05
3.75186e-05
4.00726e-05
4.67771e-05
5.57342e-05
7.33842e-05
0.000114734
0.000127125
0.000157968
0.000237368
0.000300415
0.000332801
0.000453792
0.000572094
0.00120073
0.00357153
0.0317325
0.223455
0.490837
2.79647
9.44702
1.47709e-06
1.55687e-06
1.69538e-06
1.89633e-06
1.98755e-06
2.2467e-06
2.35841e-06
2.54536e-06
3.41766e-06
3.65158e-06
4.21725e-06
6.46002e-06
8.79236e-06
1.04817e-05
1.55031e-05
2.42239e-05
4.26182e-05
7.2048e-05
0.000116328
0.000127296
0.000149339
0.000161284
0.000229397
0.000263604
0.000382179
0.000455486
0.000735819
0.000915784
0.00109253
0.00110395
0.00225898
0.00742334
0.0155666
0.0663275
0.280188
0.767781
2.94331
9.27683
1.38423e-06
1.43966e-06
1.66049e-06
1.83012e-06
1.83695e-06
2.11357e-06
2.16479e-06
2.34463e-06
3.49071e-06
4.96586e-06
9.87161e-06
2.51679e-05
3.3622e-05
4.35008e-05
6.93286e-05
8.81826e-05
0.000134038
0.000146711
0.000190184
0.00023148
0.000276755
0.000325674
0.000427266
0.000447505
0.000597943
0.000690279
0.00159856
0.00331084
0.00871344
0.0193443
0.0138586
0.0226795
0.0385403
0.140361
0.392149
1.10003
3.41229
9.21278
1.82673e-06
2.02147e-06
2.18907e-06
2.24925e-06
2.61286e-06
2.67383e-06
2.98611e-06
3.00639e-06
4.13586e-06
9.28357e-06
3.04257e-05
3.32721e-05
4.29003e-05
5.53195e-05
7.2182e-05
7.91542e-05
8.94118e-05
0.000113397
0.000130803
0.000108907
0.000110665
0.00021992
0.00026879
0.000194356
0.000268263
0.0004708
0.0018147
0.00669356
0.023906
0.0400125
0.0480814
0.0849267
0.170469
0.311116
0.613305
1.32206
2.90864
6.16739
0.000743629
0.000902323
0.000973586
0.000954642
0.000924706
0.000919315
0.000848054
0.000656756
0.000444426
0.000398342
0.000775885
0.00140839
0.00166829
0.00206459
0.00252117
0.00346133
0.00470124
0.00567604
0.00677429
0.00713186
0.0073032
0.00891352
0.0123815
0.0181165
0.0203776
0.0207264
0.0205482
0.0210464
0.0210716
0.0229009
0.0240077
0.0272274
0.0277964
0.0310146
0.038308
0.117826
0.881716
4.17628
0.00065729
0.00124985
0.00196835
0.00175917
0.00143515
0.0013613
0.00128203
0.001086
0.000918296
0.000823283
0.000866202
0.00116014
0.00159398
0.0020849
0.00298275
0.00365429
0.0047272
0.00578054
0.00666264
0.00766326
0.00862521
0.0108994
0.01401
0.0168619
0.0191697
0.0206284
0.0208921
0.02165
0.0219134
0.0234313
0.0224752
0.026531
0.0227494
0.0403495
0.130852
0.47282
0.966528
14.7561
0.000109636
0.000192108
0.000234088
0.000253163
0.00030617
0.000437231
0.000467478
0.000372974
0.000346346
0.000375767
0.000356127
0.000348552
0.000363381
0.000396516
0.000452563
0.000525658
0.000597209
0.000668771
0.000720503
0.000795276
0.000890045
0.00110281
0.00141011
0.00165055
0.00174553
0.00201207
0.00224851
0.00257478
0.00275635
0.00347258
0.00362294
0.00600327
0.00503204
0.017802
0.0440436
0.33559
0.57114
4.87456
2.43146e-05
2.72458e-05
3.15108e-05
2.87021e-05
2.87607e-05
3.06677e-05
4.31567e-05
9.4819e-05
0.000161303
0.00022081
0.000237899
0.000246031
0.000231209
0.000219733
0.000216019
0.000217552
0.000206385
0.000193496
0.000184801
0.000160516
0.000169107
0.00016943
0.000177981
0.00018697
0.000205311
0.000237066
0.000306175
0.000310984
0.000351553
0.000644935
0.00111067
0.00106625
0.00138316
0.00625986
0.00844879
0.0435111
0.172537
0.602503
1.02681e-05
9.96857e-06
9.25185e-06
8.68341e-06
7.75412e-06
7.38255e-06
7.72499e-06
9.46643e-06
2.42562e-05
7.68545e-05
0.000156416
0.00018758
0.000216847
0.000283838
0.000296974
0.000290991
0.000252248
0.000227248
0.000165079
0.000163532
0.00012983
0.000118853
0.000120561
0.000127018
0.000128673
0.000113417
0.000185258
0.000173087
0.000184595
0.000601954
0.000506391
0.000776044
0.000984464
0.0026291
0.0118127
0.021511
0.0828881
1.15014
3.72055e-06
3.74518e-06
3.71339e-06
3.5739e-06
3.34681e-06
3.45651e-06
3.47201e-06
4.00093e-06
5.68281e-06
9.68221e-06
3.28266e-05
5.79084e-05
0.000106386
0.000142874
0.000174516
0.000166436
0.000144272
9.39707e-05
7.76542e-05
6.80429e-05
6.28888e-05
7.06191e-05
7.27904e-05
9.66885e-05
8.30771e-05
9.38719e-05
0.00010085
9.83287e-05
0.000179989
0.000238554
0.000338535
0.000928067
0.00116843
0.00685846
0.00744695
0.0112392
0.0853527
1.34614
1.70207e-06
1.78462e-06
1.90122e-06
1.97131e-06
2.0063e-06
2.18407e-06
2.27918e-06
2.68615e-06
2.97906e-06
3.84495e-06
5.73181e-06
8.76716e-06
1.67264e-05
1.84133e-05
2.70145e-05
2.89787e-05
2.55549e-05
2.1843e-05
2.38618e-05
2.7619e-05
3.78216e-05
4.58735e-05
5.3518e-05
5.08252e-05
6.97775e-05
7.70571e-05
7.54301e-05
9.60075e-05
0.00014449
0.00017204
0.00062695
0.000506853
0.000690369
0.00353006
0.0131216
0.0336521
0.282504
2.24212
1.2299e-06
1.29167e-06
1.42214e-06
1.51606e-06
1.57618e-06
1.79711e-06
1.89759e-06
2.13135e-06
2.46769e-06
3.18664e-06
3.50328e-06
4.78398e-06
8.35008e-06
7.93362e-06
8.27533e-06
1.17252e-05
1.28132e-05
1.35431e-05
1.47165e-05
1.77571e-05
2.75157e-05
4.07307e-05
4.53736e-05
4.88899e-05
5.71019e-05
7.689e-05
9.07325e-05
0.000116518
0.000137218
0.000176983
0.000591604
0.000809487
0.00174827
0.00465879
0.0133104
0.0378138
0.41574
2.50533
1.0976e-06
1.13527e-06
1.26436e-06
1.33388e-06
1.40214e-06
1.58025e-06
1.71943e-06
1.85927e-06
2.21484e-06
2.77913e-06
3.00531e-06
4.13468e-06
6.02216e-06
6.30401e-06
6.56104e-06
7.44833e-06
1.02611e-05
1.658e-05
2.83946e-05
3.17965e-05
3.7404e-05
4.53766e-05
6.51158e-05
0.000101923
0.000123832
0.000164775
0.00026494
0.000284722
0.000331755
0.000319091
0.000360823
0.000602572
0.00154328
0.0132225
0.09119
0.20299
1.02653
3.30117
1.01157e-06
1.05036e-06
1.14592e-06
1.22538e-06
1.27555e-06
1.41988e-06
1.51025e-06
1.61686e-06
1.87271e-06
2.4744e-06
2.82578e-06
3.69306e-06
5.88577e-06
6.98958e-06
8.96519e-06
1.43109e-05
2.98026e-05
6.26934e-05
0.000103582
0.000120819
0.00015284
0.000176529
0.00024228
0.000308776
0.000421771
0.000533607
0.000891538
0.00114543
0.00164106
0.00151023
0.00164826
0.00271616
0.00687925
0.0448404
0.109823
0.351496
1.08717
2.95464
9.99484e-07
1.04048e-06
1.14077e-06
1.23668e-06
1.26399e-06
1.3546e-06
1.56706e-06
1.70979e-06
2.11927e-06
2.8945e-06
4.60785e-06
9.80406e-06
1.70059e-05
2.46869e-05
4.0893e-05
6.94444e-05
0.000124445
0.000148359
0.000203424
0.000246968
0.0003093
0.000356565
0.000476544
0.000518418
0.000645876
0.00100397
0.00248536
0.00540474
0.0140611
0.0278623
0.0327326
0.0547124
0.100101
0.176221
0.292092
0.77905
1.95745
3.85036
2.08829e-06
2.34914e-06
2.4715e-06
2.58715e-06
2.95736e-06
3.04044e-06
3.29471e-06
3.43894e-06
3.70859e-06
4.66373e-06
1.35181e-05
1.48603e-05
2.10355e-05
4.89926e-05
7.4408e-05
9.37495e-05
0.00011007
0.000137385
0.000164678
0.00015938
0.000162323
0.000261127
0.000323967
0.000293937
0.000383468
0.000887916
0.00306135
0.0101479
0.0325812
0.0602232
0.0760908
0.121626
0.219976
0.383046
0.660018
1.34212
2.8442
5.61071
0.000642865
0.000766229
0.000810881
0.000785177
0.000721961
0.000698779
0.000652497
0.000526159
0.00036677
0.000297808
0.00058027
0.00150344
0.00190239
0.00233023
0.00306658
0.00421782
0.0057746
0.00722285
0.00860572
0.00924805
0.00979937
0.0125207
0.0180356
0.025951
0.0295327
0.030662
0.0308121
0.0308153
0.0301142
0.0307192
0.0307294
0.032608
0.0304693
0.0320572
0.0310618
0.0821616
0.428211
1.74817
0.000328214
0.000687818
0.00109878
0.00120892
0.00104356
0.000968798
0.000895168
0.000764244
0.000633756
0.000551128
0.000570052
0.00093958
0.00156892
0.00211926
0.00345413
0.00444888
0.00579194
0.00741326
0.0084376
0.00994296
0.0115105
0.0149232
0.0192763
0.0230733
0.0259285
0.0280109
0.0282683
0.0291703
0.0279095
0.0277933
0.0254509
0.0263883
0.0215841
0.0265717
0.0628358
0.15077
0.333133
1.24228
4.40973e-05
8.35688e-05
0.000135252
0.000130358
0.000147201
0.000180794
0.000185256
0.000163356
0.000139963
0.000141502
0.000151698
0.0001791
0.000215655
0.000262098
0.000344387
0.000454138
0.000560929
0.000712378
0.00083074
0.00102037
0.00123922
0.00158418
0.00212703
0.00252485
0.00266265
0.00311641
0.00323551
0.00358334
0.00364425
0.00376252
0.00363395
0.00448446
0.00355394
0.00738663
0.00909251
0.0773053
0.276433
1.01549
9.32848e-06
1.10535e-05
1.47023e-05
1.52495e-05
1.53236e-05
1.59171e-05
1.87682e-05
2.60965e-05
2.90026e-05
3.90137e-05
4.37211e-05
5.27385e-05
5.48266e-05
5.93936e-05
6.65857e-05
7.65778e-05
8.19908e-05
8.84694e-05
9.14479e-05
9.91938e-05
0.000109203
0.000124259
0.000152847
0.000176122
0.000188452
0.000225006
0.000242674
0.000278278
0.000304336
0.000424606
0.000527718
0.000645105
0.000789211
0.00204685
0.00364899
0.0239044
0.0339012
0.165358
4.77407e-06
4.86245e-06
4.9692e-06
5.12532e-06
5.17989e-06
5.27349e-06
5.47888e-06
6.33774e-06
9.29464e-06
1.58628e-05
3.33472e-05
3.57215e-05
3.92712e-05
4.97223e-05
6.40992e-05
6.77164e-05
6.47046e-05
5.88772e-05
5.08096e-05
5.19432e-05
4.88442e-05
5.13263e-05
5.36449e-05
6.19192e-05
6.29544e-05
6.64582e-05
9.4391e-05
9.52892e-05
0.000115855
0.000326979
0.000279837
0.000424545
0.000591331
0.00142349
0.00258141
0.00706858
0.0251594
0.163559
2.30987e-06
2.40974e-06
2.5536e-06
2.63176e-06
2.68153e-06
2.86675e-06
3.01089e-06
3.53713e-06
4.20172e-06
5.86771e-06
1.13655e-05
1.63038e-05
2.30098e-05
2.7437e-05
4.00606e-05
4.16739e-05
3.91667e-05
3.22883e-05
3.08392e-05
3.0877e-05
3.30628e-05
3.63692e-05
3.80704e-05
4.61427e-05
4.7342e-05
5.1877e-05
6.34698e-05
6.6835e-05
0.000104494
0.00015752
0.000188357
0.00045536
0.000519514
0.00158635
0.00223167
0.00374117
0.0167046
0.180819
1.38251e-06
1.45824e-06
1.61071e-06
1.72452e-06
1.80031e-06
2.01758e-06
2.13831e-06
2.46949e-06
2.77218e-06
3.43039e-06
4.36582e-06
6.64727e-06
8.41421e-06
9.37002e-06
1.29898e-05
1.5769e-05
1.53579e-05
1.48863e-05
1.61162e-05
1.88174e-05
2.60946e-05
2.92295e-05
3.42613e-05
3.60393e-05
4.81851e-05
5.3649e-05
5.80877e-05
7.6746e-05
9.20908e-05
0.000108796
0.000277586
0.00027189
0.000371285
0.000876694
0.00324333
0.007168
0.0605411
0.463634
1.08837e-06
1.14592e-06
1.26845e-06
1.37405e-06
1.43797e-06
1.64619e-06
1.74904e-06
1.98851e-06
2.24594e-06
2.8157e-06
3.19234e-06
4.38795e-06
6.24567e-06
6.32469e-06
6.76622e-06
8.93454e-06
1.04168e-05
1.15765e-05
1.30979e-05
1.56639e-05
2.28855e-05
2.824e-05
3.54679e-05
4.36499e-05
5.11136e-05
6.97644e-05
9.14449e-05
0.000116509
0.000131508
0.000161068
0.000408297
0.000394179
0.000525938
0.0013834
0.00433883
0.0102618
0.0815356
0.515857
9.83705e-07
1.02229e-06
1.13753e-06
1.20977e-06
1.27822e-06
1.45565e-06
1.56657e-06
1.72894e-06
2.02347e-06
2.57847e-06
2.87337e-06
3.7977e-06
5.22075e-06
5.70297e-06
5.9366e-06
6.80527e-06
9.12811e-06
1.54716e-05
2.51056e-05
2.87742e-05
3.61354e-05
4.56616e-05
6.63736e-05
0.000107006
0.000133742
0.000178737
0.000303703
0.000342579
0.000416911
0.000375601
0.00039579
0.000551751
0.00113693
0.00540656
0.0187577
0.0745554
0.257212
0.630558
9.28822e-07
9.60308e-07
1.05178e-06
1.1235e-06
1.16444e-06
1.32415e-06
1.39531e-06
1.5167e-06
1.82245e-06
2.52335e-06
2.87522e-06
3.43927e-06
4.79576e-06
6.01482e-06
7.57099e-06
1.12851e-05
2.27406e-05
5.37531e-05
9.01841e-05
0.000111192
0.00015225
0.000189222
0.000256784
0.000348568
0.000446821
0.000654685
0.00117072
0.0015833
0.00240207
0.00221242
0.00229577
0.00357174
0.00821445
0.0453697
0.0594954
0.188523
0.341385
0.597437
9.7557e-07
1.00544e-06
1.09281e-06
1.18514e-06
1.22134e-06
1.41348e-06
1.60809e-06
1.81356e-06
2.66513e-06
3.5205e-06
5.17752e-06
5.68434e-06
8.32187e-06
1.54677e-05
2.71681e-05
5.03054e-05
0.000107228
0.00014596
0.000212087
0.000280989
0.000367781
0.000415428
0.000537437
0.000592102
0.000773436
0.00147511
0.00364418
0.0078681
0.0201579
0.0347614
0.0483504
0.0740417
0.136817
0.280418
0.277014
0.479378
0.953148
1.15394
2.28024e-06
2.54617e-06
2.63334e-06
2.83799e-06
3.16902e-06
3.28336e-06
3.57536e-06
4.00201e-06
4.06501e-06
4.64469e-06
6.77145e-06
7.72173e-06
1.15908e-05
3.36099e-05
7.01435e-05
9.96579e-05
0.00012676
0.000156902
0.000188346
0.000190922
0.00020645
0.000316306
0.000369629
0.000368712
0.00053174
0.0014472
0.00449291
0.0137497
0.0417011
0.07754
0.10074
0.147603
0.244068
0.399774
0.651864
1.27661
2.50049
4.21634
0.000499936
0.000561572
0.00060756
0.000606342
0.000543886
0.000504652
0.000473624
0.000399308
0.000300486
0.000237382
0.000488697
0.00154498
0.00215205
0.00265366
0.00362635
0.00509435
0.00694013
0.0087802
0.0103158
0.0112542
0.0123925
0.0165766
0.0243101
0.0336192
0.0376631
0.0388759
0.0389473
0.0382941
0.0364985
0.03579
0.0340844
0.0336906
0.0300308
0.0276059
0.026691
0.0786987
0.226991
0.909255
0.000177248
0.000325979
0.000567209
0.000685973
0.000630998
0.000583521
0.000534323
0.000474328
0.000415777
0.000387265
0.000436103
0.000858971
0.00170583
0.00248771
0.00422516
0.00564706
0.00708451
0.00919362
0.01029
0.0122517
0.0145549
0.0190686
0.0244643
0.0288218
0.0318029
0.0334328
0.0335753
0.0333069
0.0308642
0.0294154
0.0255298
0.0238358
0.0186978
0.0180026
0.0200329
0.108905
0.152694
0.284207
2.38381e-05
3.99218e-05
6.66331e-05
6.95736e-05
7.6266e-05
8.57441e-05
9.07297e-05
8.80991e-05
8.34974e-05
8.83399e-05
0.000104899
0.000142704
0.000200047
0.000274759
0.000420263
0.000617833
0.000783784
0.00104868
0.00125962
0.00155499
0.00190919
0.00244729
0.00318227
0.00363039
0.00390072
0.00427574
0.00430386
0.00443554
0.00428689
0.00415623
0.00358508
0.00368984
0.00287222
0.00380605
0.00370476
0.019962
0.0754215
0.242495
5.63907e-06
7.1237e-06
9.63409e-06
1.17742e-05
1.17772e-05
1.22369e-05
1.38847e-05
1.7764e-05
2.05387e-05
2.72531e-05
3.05249e-05
3.76395e-05
4.08821e-05
4.76154e-05
5.49121e-05
6.69213e-05
7.61879e-05
8.84923e-05
9.74962e-05
0.000117831
0.000136754
0.00016739
0.000209932
0.000242165
0.000259145
0.000300939
0.000310029
0.000340216
0.000353593
0.000418777
0.000458207
0.000523938
0.000616851
0.00107812
0.00182626
0.00669927
0.0237902
0.0500998
3.1596e-06
3.41477e-06
3.76687e-06
4.26912e-06
4.54525e-06
4.81951e-06
5.13907e-06
6.11782e-06
7.46981e-06
1.03023e-05
1.64186e-05
2.04295e-05
2.14433e-05
2.33322e-05
2.84087e-05
3.31775e-05
3.35321e-05
3.28298e-05
3.27015e-05
3.48529e-05
3.67713e-05
4.10033e-05
4.44546e-05
4.97464e-05
5.4812e-05
5.85877e-05
7.59541e-05
8.4235e-05
0.000103393
0.000204832
0.00022227
0.000325053
0.00045006
0.000798081
0.00119686
0.00357578
0.0111196
0.0376086
1.77419e-06
1.89866e-06
2.11547e-06
2.32041e-06
2.46128e-06
2.72809e-06
2.95336e-06
3.49451e-06
4.1978e-06
5.14641e-06
7.66415e-06
1.09249e-05
1.23286e-05
1.39874e-05
1.91581e-05
2.26515e-05
2.23757e-05
2.1233e-05
2.16617e-05
2.30214e-05
2.69646e-05
2.95224e-05
3.17078e-05
3.67485e-05
3.95817e-05
4.64413e-05
5.66831e-05
6.23061e-05
9.72821e-05
0.000135726
0.000166279
0.00033012
0.000373559
0.000717177
0.00128395
0.00234484
0.00660927
0.0293187
1.24926e-06
1.33019e-06
1.49494e-06
1.64187e-06
1.74963e-06
2.00517e-06
2.16017e-06
2.49964e-06
2.89254e-06
3.49148e-06
4.20541e-06
6.20928e-06
7.22785e-06
7.8187e-06
9.78176e-06
1.25428e-05
1.3227e-05
1.34728e-05
1.49206e-05
1.73253e-05
2.32623e-05
2.57914e-05
3.07359e-05
3.31419e-05
4.18013e-05
5.0359e-05
5.6104e-05
7.38495e-05
9.02796e-05
0.000106379
0.000192476
0.000223805
0.000329166
0.000583337
0.00176457
0.00358618
0.0138131
0.0655953
1.03625e-06
1.09652e-06
1.22342e-06
1.33776e-06
1.4159e-06
1.63314e-06
1.75324e-06
2.00644e-06
2.30605e-06
2.80591e-06
3.25281e-06
4.43841e-06
5.74328e-06
6.02516e-06
6.57397e-06
8.30933e-06
1.046e-05
1.16734e-05
1.38146e-05
1.58922e-05
2.16009e-05
2.61923e-05
3.51341e-05
4.53125e-05
5.35746e-05
7.03008e-05
0.000102763
0.000119059
0.000145944
0.000171815
0.000263461
0.000311904
0.000422118
0.00080384
0.00217515
0.00601502
0.0195592
0.072067
9.5393e-07
9.96687e-07
1.11212e-06
1.18959e-06
1.26695e-06
1.44972e-06
1.56744e-06
1.75164e-06
2.0429e-06
2.64192e-06
3.03182e-06
4.00469e-06
5.11732e-06
5.79136e-06
6.24304e-06
7.38001e-06
1.0161e-05
1.75526e-05
2.49777e-05
2.8611e-05
3.63669e-05
4.76429e-05
7.19152e-05
0.000110227
0.000145246
0.000201588
0.0003515
0.000416545
0.000545173
0.000482715
0.000484959
0.0006023
0.00103459
0.00329094
0.00945771
0.0389833
0.062191
0.0908835
9.15728e-07
9.47249e-07
1.04058e-06
1.11502e-06
1.15857e-06
1.34365e-06
1.42006e-06
1.59676e-06
1.96078e-06
2.79545e-06
3.23356e-06
4.11805e-06
5.35056e-06
6.79766e-06
8.81168e-06
1.31965e-05
2.45793e-05
5.61741e-05
8.48815e-05
0.000108625
0.000153813
0.000200894
0.000272005
0.000369131
0.000493172
0.000824241
0.00155664
0.00215774
0.00333459
0.00309754
0.00333541
0.0043792
0.0083086
0.0306242
0.0713664
0.164982
0.185791
0.166526
9.88796e-07
1.01941e-06
1.10258e-06
1.22123e-06
1.27243e-06
1.73066e-06
1.88465e-06
2.64173e-06
3.42533e-06
5.13035e-06
7.42982e-06
8.13741e-06
9.61243e-06
1.53408e-05
2.9238e-05
5.52467e-05
0.000112256
0.000158155
0.000233311
0.000344287
0.000435736
0.000482506
0.000595518
0.000665737
0.000991549
0.00216353
0.00501462
0.0105492
0.026079
0.0420612
0.0594446
0.0806059
0.138798
0.286774
0.333146
0.444217
0.598326
0.62884
2.40833e-06
2.62607e-06
2.74607e-06
2.96661e-06
3.35593e-06
3.44218e-06
4.01382e-06
4.02652e-06
4.54517e-06
7.43259e-06
8.21682e-06
9.05807e-06
1.32666e-05
3.3314e-05
7.29462e-05
0.000109053
0.000145888
0.000178568
0.000211031
0.00021986
0.000258254
0.000369294
0.00041182
0.000432686
0.000767063
0.00218308
0.00600932
0.0171237
0.0497038
0.0917481
0.12006
0.163649
0.250168
0.390639
0.616322
1.09978
1.90235
2.71439
0.000311964
0.000386316
0.000421161
0.000443462
0.000411517
0.000374755
0.000348434
0.000295857
0.0002218
0.000195853
0.000558266
0.00168649
0.00247532
0.00309932
0.00434686
0.0061531
0.00824422
0.0103539
0.0119737
0.013208
0.0152143
0.0210487
0.0308041
0.0403629
0.0440327
0.0449218
0.044677
0.0429984
0.0400589
0.0379174
0.0344952
0.0327743
0.0280486
0.0228104
0.0261479
0.0763149
0.22364
0.909153
0.000108374
0.00017195
0.000240366
0.000353505
0.000354339
0.000346326
0.000328475
0.000319104
0.000302365
0.000303293
0.00039079
0.000931172
0.00203319
0.00321115
0.00531715
0.00712242
0.00857098
0.0109977
0.0121307
0.0145196
0.017667
0.0231586
0.0292999
0.0338753
0.0365224
0.0375425
0.0368591
0.0351899
0.0315016
0.0288093
0.0236148
0.0205635
0.0160704
0.0124627
0.011994
0.0369277
0.0803722
0.153151
1.53119e-05
2.85774e-05
3.70657e-05
4.54466e-05
4.8397e-05
5.06675e-05
5.43379e-05
6.0949e-05
6.79358e-05
7.85267e-05
0.00010125
0.000154219
0.000249852
0.000414147
0.000690898
0.000992573
0.00123348
0.00161657
0.00189372
0.00227188
0.00277168
0.00348963
0.00433709
0.00485498
0.00510504
0.0053528
0.00520898
0.00509409
0.00462945
0.00427807
0.0034307
0.00323431
0.00251476
0.00239115
0.00256927
0.0051914
0.0200752
0.0704121
4.41997e-06
6.34661e-06
8.86025e-06
1.12933e-05
1.15504e-05
1.22409e-05
1.42333e-05
1.8738e-05
2.18254e-05
2.69567e-05
3.29684e-05
4.34989e-05
4.97395e-05
6.27126e-05
7.6231e-05
9.72916e-05
0.00011399
0.000139435
0.00015667
0.000186423
0.00021418
0.000254225
0.000306973
0.000336041
0.000350121
0.000385848
0.000384295
0.000405263
0.000413056
0.000443517
0.000467244
0.000512936
0.000564372
0.000870916
0.00106267
0.002649
0.00721025
0.0191454
2.39014e-06
2.82638e-06
3.48658e-06
4.18993e-06
4.54567e-06
4.94831e-06
5.62909e-06
7.1655e-06
8.53964e-06
1.02306e-05
1.37652e-05
1.68673e-05
1.85569e-05
2.05391e-05
2.37532e-05
2.7849e-05
2.96293e-05
3.0268e-05
3.11879e-05
3.41178e-05
3.68502e-05
4.11843e-05
4.51851e-05
4.97904e-05
5.48623e-05
6.01281e-05
7.42556e-05
8.82912e-05
0.000112022
0.000185602
0.000214292
0.000299021
0.00040019
0.00056606
0.000868768
0.00209134
0.00650273
0.0132462
1.49877e-06
1.64872e-06
1.94534e-06
2.23518e-06
2.43006e-06
2.74326e-06
3.13942e-06
3.79852e-06
4.75157e-06
5.48023e-06
7.03483e-06
9.54629e-06
1.06182e-05
1.16053e-05
1.42761e-05
1.73625e-05
1.81781e-05
1.82837e-05
1.92848e-05
2.09664e-05
2.47869e-05
2.73417e-05
3.035e-05
3.45476e-05
3.85683e-05
4.52147e-05
5.6952e-05
6.73093e-05
0.000102777
0.000144727
0.000180836
0.000292509
0.000342091
0.000502216
0.000892306
0.0016194
0.00420853
0.010987
1.16955e-06
1.25865e-06
1.43851e-06
1.61138e-06
1.74598e-06
2.03461e-06
2.24786e-06
2.64546e-06
3.15722e-06
3.73964e-06
4.36129e-06
6.06708e-06
7.06581e-06
7.55477e-06
8.88602e-06
1.10898e-05
1.26663e-05
1.32758e-05
1.50651e-05
1.71201e-05
2.19199e-05
2.43551e-05
2.93379e-05
3.24009e-05
4.07672e-05
4.85019e-05
5.70199e-05
7.44369e-05
9.53879e-05
0.000116506
0.000181108
0.000230564
0.000370788
0.000605651
0.00137152
0.0024843
0.00674296
0.0177981
1.01033e-06
1.07473e-06
1.2087e-06
1.3288e-06
1.42519e-06
1.65324e-06
1.80169e-06
2.08978e-06
2.42741e-06
2.93176e-06
3.45004e-06
4.57511e-06
5.69228e-06
6.13911e-06
6.78725e-06
8.40556e-06
1.11788e-05
1.25875e-05
1.50626e-05
1.69964e-05
2.18019e-05
2.65594e-05
3.61948e-05
4.57449e-05
5.89817e-05
7.42818e-05
0.000113681
0.000129993
0.000167893
0.000194483
0.000255862
0.000309388
0.000404124
0.000691417
0.00141844
0.00471447
0.0102837
0.0188715
9.46158e-07
9.93433e-07
1.1119e-06