/*--------------------------------*- C++ -*----------------------------------*\
| =========                 |                                                 |
| \\      /  F ield         | OpenFOAM: The Open Source CFD Toolbox           |
|  \\    /   O peration     | Version:  2.3.1                                 |
|   \\  /    A nd           | Web:      www.OpenFOAM.org                      |
|    \\/     M anipulation  |                                                 |
\*---------------------------------------------------------------------------*/
FoamFile
{
    version     2.0;
    format      ascii;
    class       volScalarField;
    location    "15";
    object      epsilon;
}
// * * * * * * * * * * * * * * * * * * * * * * * * * * * * * * * * * * * * * //

dimensions      [0 2 -3 0 0 0 0];

internalField   nonuniform List<scalar> 
38262
(
0.00101546
0.00115616
0.00121998
0.0012223
0.0011684
0.00111802
0.00103732
0.00093278
0.000913895
0.00098293
0.00116183
0.00125988
0.00145091
0.00159595
0.00194506
0.00259245
0.00301663
0.00333687
0.00358263
0.00362318
0.00395281
0.00510594
0.00737601
0.00958268
0.00976343
0.00936589
0.00901893
0.00913651
0.0107208
0.0124037
0.0148384
0.0177611
0.0210317
0.0338598
0.117305
0.202809
1.24418
11.5245
0.000766966
0.00150985
0.00171014
0.00160628
0.00152371
0.00161492
0.00179214
0.00180353
0.00170516
0.00165717
0.00172752
0.00194578
0.00201585
0.00204344
0.00225204
0.00228034
0.00250482
0.0028278
0.00350866
0.00385076
0.00412977
0.0049096
0.0059601
0.00645825
0.00638375
0.005602
0.00539434
0.00606596
0.00928253
0.0105686
0.0140464
0.0184293
0.0217554
0.0347232
0.218907
1.14693
3.05791
12.9797
0.000222148
0.000241953
0.000231977
0.000286082
0.000654933
0.00130663
0.00150267
0.00156402
0.00160787
0.00162225
0.00160451
0.00157599
0.00155812
0.00151442
0.0014607
0.00139258
0.00133094
0.00122767
0.0011743
0.00112989
0.00106204
0.00100976
0.00107142
0.00105753
0.00100194
0.00125834
0.00283188
0.00493409
0.00660818
0.00743699
0.00665206
0.0103671
0.0114489
0.0279205
0.0610386
0.35874
0.686035
10.1909
0.000101732
9.46533e-05
7.89376e-05
7.64489e-05
6.70939e-05
8.5006e-05
0.000289389
0.00102285
0.0013664
0.00146751
0.0015304
0.00154558
0.00150157
0.00143955
0.00132832
0.00122766
0.00112691
0.000987954
0.000835993
0.000822624
0.000708036
0.000677661
0.000675758
0.000727248
0.000745223
0.00077797
0.0010135
0.00104406
0.0020105
0.00179363
0.00261815
0.00321845
0.00455106
0.0154113
0.0180283
0.0752041
1.38171
10.3007
4.17775e-05
4.02114e-05
3.41533e-05
3.06606e-05
2.57922e-05
2.66411e-05
2.94541e-05
6.46135e-05
0.000484661
0.00107906
0.00129902
0.00135566
0.00130981
0.00128754
0.00120264
0.00103297
0.00093704
0.000788769
0.000640892
0.000588338
0.000573857
0.000522712
0.000486691
0.000519725
0.000528836
0.000665466
0.00060527
0.00106018
0.00133599
0.00106589
0.00323609
0.00332174
0.00386677
0.00615174
0.013311
0.119878
1.86303
10.6851
1.64251e-05
1.74465e-05
1.70652e-05
1.58898e-05
1.57514e-05
1.57456e-05
1.60131e-05
1.83991e-05
3.92146e-05
0.000135143
0.00050784
0.00080144
0.000912224
0.000878504
0.000784047
0.000596812
0.000487065
0.000377868
0.000332246
0.000330951
0.000379988
0.000356664
0.000431803
0.000374195
0.000481958
0.000553155
0.000550734
0.000689331
0.000674648
0.000685962
0.00311329
0.00251375
0.00720161
0.00927177
0.021883
0.0928911
1.3018
10.1303
7.25869e-06
8.51869e-06
9.30186e-06
9.4894e-06
1.05932e-05
1.12099e-05
1.26632e-05
1.36307e-05
1.67585e-05
2.13035e-05
4.48399e-05
9.81695e-05
0.000239264
0.000242875
0.000248507
0.000249266
0.000225807
0.000170746
0.000152326
0.000156297
0.000229282
0.000244851
0.000274185
0.000270506
0.000281086
0.000274174
0.000330363
0.000296657
0.000385366
0.000584048
0.00183986
0.00263789
0.00452408
0.0112077
0.034734
0.168007
1.01815
7.08394
6.27221e-06
6.7975e-06
7.95422e-06
8.46726e-06
9.71823e-06
1.11204e-05
1.17009e-05
1.43194e-05
1.54894e-05
1.83331e-05
2.08061e-05
2.63161e-05
4.96453e-05
4.79502e-05
4.81469e-05
6.63347e-05
7.69571e-05
7.71808e-05
7.96331e-05
8.65899e-05
0.000118056
0.000145958
0.000181253
0.000188626
0.000213342
0.000216112
0.00023979
0.000268298
0.000253683
0.00031217
0.000729404
0.00422866
0.00947052
0.0481593
0.051941
0.267834
1.25818
5.57301
5.76673e-06
6.66911e-06
7.15082e-06
7.95925e-06
9.2164e-06
1.00066e-05
1.07638e-05
1.31433e-05
1.38829e-05
1.59798e-05
1.96255e-05
2.04234e-05
2.61972e-05
3.11155e-05
3.37779e-05
4.22969e-05
4.65851e-05
6.0053e-05
7.90659e-05
8.53429e-05
0.000101458
0.000107413
0.000156145
0.000159071
0.000212598
0.000265781
0.000349045
0.000427553
0.000452447
0.000514592
0.000733136
0.00143502
0.004701
0.0358937
0.116763
0.517804
2.3387
6.85977
5.51973e-06
6.23084e-06
7.22264e-06
7.43778e-06
8.72872e-06
9.4536e-06
1.04418e-05
1.1467e-05
1.27951e-05
1.40327e-05
1.6028e-05
1.91492e-05
2.65773e-05
3.02403e-05
4.14742e-05
4.93952e-05
6.91109e-05
8.64246e-05
0.000139864
0.000183794
0.000181659
0.000192785
0.000260255
0.000307814
0.000468158
0.000520594
0.000719686
0.000789787
0.000899847
0.000739795
0.00278416
0.013849
0.0335316
0.0735476
0.260047
0.924335
3.30489
9.26909
4.86653e-06
5.31041e-06
6.50507e-06
6.52412e-06
7.48448e-06
8.26049e-06
8.96477e-06
9.61437e-06
1.09794e-05
1.58059e-05
2.01692e-05
3.36747e-05
5.43336e-05
6.15877e-05
7.81267e-05
8.9325e-05
9.60734e-05
0.000116043
0.000189543
0.00026319
0.000294516
0.00033619
0.00047052
0.000529017
0.000663418
0.000587079
0.000932875
0.00158901
0.00455136
0.00478501
0.00389252
0.00843213
0.0255447
0.0929251
0.322822
1.10836
3.56825
9.24382
3.0858e-06
3.48257e-06
3.91143e-06
3.91003e-06
4.47813e-06
5.01973e-06
4.93673e-06
5.48875e-06
1.14033e-05
4.33415e-05
4.74082e-05
4.75636e-05
5.51954e-05
6.58454e-05
7.43447e-05
6.59926e-05
7.62037e-05
0.000103681
0.000105582
8.49192e-05
0.000135148
0.000237653
0.00025299
0.000161311
0.000189632
0.000440654
0.00218003
0.00919648
0.0371864
0.0517117
0.056619
0.105721
0.230568
0.443623
0.944201
2.11104
4.38808
8.67764
0.000774544
0.000929461
0.000964887
0.000922891
0.0009164
0.000914745
0.00081193
0.000638339
0.00056927
0.000639923
0.000934744
0.00109865
0.00131463
0.00162687
0.00180664
0.00264913
0.0034716
0.0038908
0.00464344
0.00471913
0.00463902
0.00554032
0.00739607
0.0103752
0.0111389
0.0104588
0.00958475
0.0102994
0.011149
0.0126869
0.0144827
0.0173092
0.0196977
0.0213138
0.0340354
0.0971484
0.939291
14.1933
0.000870145
0.00180413
0.00235953
0.0017129
0.00157784
0.00174235
0.00181764
0.0016023
0.00130459
0.00106022
0.00106005
0.00128067
0.00167411
0.00206975
0.00257759
0.0030765
0.00376622
0.00431766
0.00504428
0.00560039
0.00612286
0.00743897
0.00921097
0.0111251
0.0121423
0.0121513
0.0110153
0.0121477
0.0132978
0.0157554
0.0161147
0.0210119
0.0202421
0.0346422
0.108572
0.62375
3.89536
61.3684
0.000230553
0.000295909
0.000341006
0.000386342
0.000561064
0.00115169
0.00132181
0.00132797
0.0013972
0.0013805
0.00118682
0.000956534
0.000927756
0.000870465
0.000840348
0.000835408
0.000842019
0.000841016
0.000874489
0.000864713
0.000914081
0.00107182
0.00121328
0.0013367
0.00152433
0.00269212
0.00323725
0.00471893
0.00385225
0.00486042
0.0050638
0.00921169
0.00819098
0.0202081
0.0768448
0.631716
1.38538
6.64573
7.12905e-05
6.85303e-05
6.61413e-05
6.08544e-05
5.95624e-05
7.46888e-05
0.000140635
0.000480513
0.000965315
0.00118413
0.00118677
0.00112354
0.000993979
0.000874499
0.000755841
0.000736203
0.000648465
0.000589014
0.000568105
0.000436771
0.00047819
0.000435119
0.000406816
0.000339382
0.000402173
0.000381244
0.000617706
0.000684327
0.0014513
0.00118253
0.00524703
0.00337994
0.00461836
0.016356
0.0225051
0.0565517
0.23886
4.87092
2.93363e-05
2.73026e-05
2.19124e-05
1.99958e-05
1.47509e-05
1.52297e-05
1.62071e-05
2.66502e-05
0.000149197
0.000512655
0.00081158
0.00114954
0.00107076
0.00111329
0.00104527
0.000933748
0.00081258
0.000682976
0.000502516
0.000502738
0.000471169
0.000372814
0.000434305
0.000435609
0.00038231
0.000367103
0.000425919
0.000751397
0.000579532
0.000773172
0.00174012
0.00149344
0.00207231
0.00531336
0.0112782
0.0494662
0.724197
7.92342
8.51254e-06
8.41368e-06
7.77413e-06
6.75256e-06
5.39416e-06
5.77155e-06
5.38279e-06
6.63145e-06
1.48107e-05
3.65435e-05
0.000175617
0.000337747
0.000537428
0.000667442
0.000619477
0.000561597
0.000485493
0.000346091
0.000237367
0.000230803
0.000207872
0.000304468
0.00026967
0.000393026
0.000255111
0.000344961
0.000273957
0.000283922
0.000454047
0.000508775
0.00177384
0.00190704
0.00425512
0.010061
0.0211955
0.0526266
0.576643
7.37096
2.85206e-06
2.99666e-06
2.96909e-06
2.96864e-06
2.92189e-06
3.21499e-06
3.28013e-06
4.0642e-06
4.83063e-06
6.77778e-06
1.36308e-05
2.77652e-05
7.79362e-05
8.0976e-05
0.000100791
0.000103418
8.91441e-05
6.20467e-05
6.62468e-05
7.66525e-05
9.95826e-05
0.000142721
0.000161123
0.000126585
0.000144801
0.000269465
0.000205756
0.000358873
0.000610201
0.000977438
0.0020421
0.00168422
0.00250211
0.0118056
0.0330466
0.204345
0.97454
6.38099
1.7897e-06
1.89819e-06
2.108e-06
2.21079e-06
2.33374e-06
2.74565e-06
2.97249e-06
3.29712e-06
4.40111e-06
5.08461e-06
5.48447e-06
7.81527e-06
1.83912e-05
1.48874e-05
1.50416e-05
2.29197e-05
2.62022e-05
2.37757e-05
2.40052e-05
2.86603e-05
4.8191e-05
8.80571e-05
8.81468e-05
8.6349e-05
9.0779e-05
0.000121969
0.000119667
0.000142294
0.000175997
0.000215556
0.000657406
0.00331667
0.0110372
0.0260543
0.0354844
0.20326
1.37138
6.30672
1.62624e-06
1.68426e-06
1.9021e-06
2.00082e-06
2.12082e-06
2.41209e-06
2.66872e-06
2.84924e-06
3.9476e-06
4.32668e-06
4.53463e-06
7.05355e-06
9.15315e-06
9.40027e-06
1.01539e-05
1.15581e-05
1.91687e-05
2.32552e-05
3.75125e-05
4.0109e-05
4.6796e-05
5.57495e-05
7.33364e-05
0.000114834
0.000127331
0.000158237
0.000238024
0.000301452
0.000333713
0.000453967
0.000576224
0.00120576
0.00357116
0.0310882
0.216423
0.475852
2.68981
8.94957
1.47713e-06
1.55689e-06
1.69531e-06
1.89654e-06
1.98764e-06
2.24646e-06
2.35841e-06
2.54532e-06
3.41856e-06
3.65194e-06
4.21596e-06
6.45001e-06
8.78752e-06
1.04757e-05
1.54823e-05
2.41859e-05
4.25546e-05
7.18902e-05
0.000116271
0.000127306
0.000149441
0.000161355
0.000229495
0.000263746
0.00038253
0.000456104
0.000736774
0.000918363
0.00109497
0.00111192
0.00228185
0.00742726
0.0154625
0.0654772
0.273745
0.748709
2.85479
8.9081
1.38438e-06
1.43976e-06
1.66018e-06
1.83023e-06
1.83704e-06
2.11347e-06
2.16473e-06
2.34419e-06
3.49096e-06
4.95914e-06
9.85051e-06
2.51118e-05
3.35633e-05
4.34241e-05
6.91962e-05
8.80246e-05
0.000133874
0.000146555
0.000189927
0.000231198
0.000276399
0.000325248
0.000426948
0.000447111
0.000597639
0.000692323
0.00160754
0.00335769
0.00884942
0.0195
0.0139251
0.022903
0.0388415
0.135909
0.37787
1.05702
3.29495
8.84556
1.82674e-06
2.02134e-06
2.18924e-06
2.24928e-06
2.61278e-06
2.67388e-06
2.98627e-06
3.00677e-06
4.13201e-06
9.26014e-06
3.03614e-05
3.3223e-05
4.28225e-05
5.524e-05
7.20859e-05
7.90695e-05
8.93182e-05
0.000113271
0.000130687
0.000108831
0.000110552
0.000219656
0.000268543
0.000194225
0.000268423
0.000475094
0.00185066
0.00689056
0.0242821
0.0399126
0.0479742
0.0857023
0.171786
0.312877
0.619965
1.33495
2.91705
6.15302
0.000743268
0.000901676
0.000972253
0.000952935
0.000923142
0.000917664
0.000846131
0.000655001
0.000443452
0.000397999
0.000776812
0.00140688
0.0016666
0.00206318
0.00252042
0.00346246
0.0046998
0.00567069
0.00675883
0.00711126
0.00728183
0.00889687
0.0123732
0.0180507
0.0202561
0.0205796
0.0203857
0.0208751
0.0208993
0.0227135
0.0238045
0.0270018
0.0275883
0.0308336
0.0382902
0.117017
0.874674
4.25932
0.000658211
0.0012526
0.00196562
0.00175299
0.00143115
0.00135836
0.00127903
0.00108333
0.000916297
0.000821604
0.00086558
0.00115952
0.00159285
0.00208384
0.00298049
0.00365049
0.00472277
0.00576947
0.00664571
0.00763997
0.008599
0.0108646
0.0139627
0.0167864
0.0190446
0.0204823
0.0207339
0.021472
0.0217268
0.0232271
0.0222792
0.0262791
0.0225529
0.04
0.13403
0.475866
0.936957
14.9957
0.000109855
0.000192529
0.000234044
0.000253189
0.000306145
0.00043748
0.000466473
0.000372191
0.000345637
0.000374843
0.000355231
0.000347724
0.000362607
0.000395818
0.000451851
0.000524771
0.000596238
0.000667521
0.000718922
0.000793304
0.000887664
0.00109946
0.00140548
0.00164431
0.00173682
0.00199975
0.00223527
0.00255957
0.00273891
0.00344872
0.00360177
0.005965
0.00500425
0.0174781
0.0445178
0.342312
0.578081
4.89019
2.43211e-05
2.72751e-05
3.15293e-05
2.8699e-05
2.87673e-05
3.06866e-05
4.32448e-05
9.50598e-05
0.000160965
0.000219865
0.000236906
0.000244885
0.000230304
0.000218954
0.000215376
0.000217027
0.000206054
0.000193195
0.000184547
0.000160318
0.000168849
0.000169168
0.000177722
0.000186646
0.000204956
0.000236496
0.00030533
0.000310389
0.000350618
0.00064194
0.00111175
0.00106529
0.00137369
0.0062322
0.00845562
0.0435731
0.182101
0.602765
1.02694e-05
9.9706e-06
9.25428e-06
8.68619e-06
7.75779e-06
7.38602e-06
7.73128e-06
9.48517e-06
2.43656e-05
7.698e-05
0.000156216
0.000187134
0.000216148
0.000282891
0.000296272
0.00029047
0.000252013
0.000227086
0.000164929
0.000163382
0.000129736
0.000118661
0.000120312
0.000126817
0.000128597
0.000113341
0.000185049
0.000173026
0.00018424
0.000600749
0.00050665
0.000771704
0.000977529
0.00262715
0.0118028
0.0215607
0.0839271
1.14243
3.72192e-06
3.7466e-06
3.71478e-06
3.57538e-06
3.34799e-06
3.4582e-06
3.47403e-06
4.00377e-06
5.69228e-06
9.7058e-06
3.29573e-05
5.80264e-05
0.000106398
0.000142886
0.000174491
0.000166436
0.000144298
9.39711e-05
7.75623e-05
6.79497e-05
6.27792e-05
7.0443e-05
7.25991e-05
9.65013e-05
8.29632e-05
9.37828e-05
0.000100875
9.82598e-05
0.000180113
0.000239585
0.000338378
0.00092534
0.00116512
0.00681339
0.00740975
0.0111196
0.0858348
1.34006
1.70252e-06
1.78511e-06
1.90164e-06
1.97189e-06
2.00682e-06
2.18459e-06
2.27966e-06
2.68693e-06
2.98049e-06
3.84643e-06
5.73978e-06
8.77781e-06
1.67505e-05
1.84265e-05
2.70105e-05
2.90015e-05
2.55764e-05
2.18327e-05
2.3824e-05
2.75643e-05
3.77354e-05
4.57713e-05
5.34735e-05
5.07754e-05
6.96123e-05
7.7103e-05
7.54699e-05
9.5912e-05
0.000144842
0.000172083
0.000626671
0.000507648
0.000689919
0.00358911
0.0131289
0.0331537
0.275997
2.22741
1.23007e-06
1.29182e-06
1.42225e-06
1.51635e-06
1.57637e-06
1.7973e-06
1.89789e-06
2.13169e-06
2.46774e-06
3.18818e-06
3.50458e-06
4.77947e-06
8.35636e-06
7.9419e-06
8.27781e-06
1.17136e-05
1.2811e-05
1.35427e-05
1.47158e-05
1.77446e-05
2.74476e-05
4.06794e-05
4.53596e-05
4.89185e-05
5.7117e-05
7.68874e-05
9.08542e-05
0.000116665
0.000137651
0.000177686
0.00059251
0.000806599
0.00173707
0.0046188
0.012922
0.0368479
0.401807
2.45819
1.09769e-06
1.13534e-06
1.26435e-06
1.33403e-06
1.40223e-06
1.58025e-06
1.71967e-06
1.85936e-06
2.21481e-06
2.78025e-06
3.00543e-06
4.12902e-06
6.0224e-06
6.30777e-06
6.56336e-06
7.44564e-06
1.02507e-05
1.65442e-05
2.83972e-05
3.18219e-05
3.74471e-05
4.54233e-05
6.51108e-05
0.000102088
0.000124106
0.000165079
0.000265735
0.000285707
0.000332235
0.000320507
0.000363038
0.000605048
0.00154018
0.013061
0.0885281
0.196248
0.998881
3.22548
1.01162e-06
1.05038e-06
1.14588e-06
1.22549e-06
1.27564e-06
1.41987e-06
1.5104e-06
1.61695e-06
1.8727e-06
2.47468e-06
2.82547e-06
3.6888e-06
5.8809e-06
6.98726e-06
8.95721e-06
1.42801e-05
2.97256e-05
6.25331e-05
0.000103496
0.000120796
0.000152895
0.000176573
0.000242355
0.000308866
0.000422181
0.000534893
0.000893188
0.00114927
0.00164673
0.00151809
0.0016558
0.00274715
0.00698601
0.0449473
0.107886
0.341815
1.06007
2.89822
9.9952e-07
1.04049e-06
1.14065e-06
1.23678e-06
1.2641e-06
1.35454e-06
1.56697e-06
1.7099e-06
2.11909e-06
2.8923e-06
4.60214e-06
9.78184e-06
1.69675e-05
2.46371e-05
4.07945e-05
6.92496e-05
0.000124229
0.000148135
0.000203124
0.000246672
0.000308882
0.000356126
0.000476148
0.000518055
0.000645979
0.00100816
0.00250293
0.00548133
0.0142811
0.0280632
0.0329716
0.0552424
0.10205
0.176528
0.284134
0.755135
1.88678
3.7061
2.08827e-06
2.34903e-06
2.47161e-06
2.58712e-06
2.95733e-06
3.04054e-06
3.2948e-06
3.43932e-06
3.70833e-06
4.66069e-06
1.35015e-05
1.48512e-05
2.09684e-05
4.88637e-05
7.42855e-05
9.36245e-05
0.00010994
0.00013722
0.000164518
0.00015925
0.000162161
0.000260805
0.000323657
0.000293753
0.000384124
0.000896186
0.00311811
0.0104167
0.0330984
0.0602291
0.0759546
0.122548
0.22225
0.387073
0.671994
1.36883
2.87422
5.65133
0.000642427
0.000765696
0.00080976
0.000783782
0.0007207
0.000697526
0.000651103
0.000524927
0.000365951
0.000297519
0.000581828
0.00150281
0.00190022
0.00232885
0.00306588
0.0042183
0.00577301
0.00721512
0.00858661
0.00922157
0.00977374
0.0125013
0.0180167
0.0258542
0.029354
0.0304411
0.0305687
0.0305655
0.0298659
0.0304663
0.0304748
0.0323485
0.0302539
0.031863
0.0309069
0.0819305
0.431021
1.74707
0.000328844
0.000689031
0.00109835
0.00120584
0.00104091
0.000966545
0.000892893
0.000762269
0.000632275
0.000550038
0.000569904
0.000940041
0.00156809
0.00211879
0.00345276
0.00444318
0.00578687
0.00739801
0.00841572
0.00991369
0.0114765
0.0148793
0.0192096
0.0229618
0.0257544
0.0278113
0.028045
0.0289265
0.0276775
0.0275587
0.0252412
0.0261627
0.0214224
0.0263379
0.0631169
0.148951
0.324549
1.27752
4.41624e-05
8.38399e-05
0.000135289
0.000130391
0.000147159
0.000180655
0.000184821
0.000163001
0.000139675
0.000141226
0.000151501
0.000178959
0.000215385
0.000261882
0.000344214
0.000453605
0.000560286
0.000711362
0.000829062
0.00101804
0.00123595
0.0015797
0.00211966
0.00251463
0.00264776
0.00309587
0.00321431
0.00355845
0.00361984
0.00373757
0.00361256
0.00445949
0.00353635
0.0073376
0.00916168
0.078886
0.274292
1.01341
9.32933e-06
1.1063e-05
1.47168e-05
1.52492e-05
1.53253e-05
1.59187e-05
1.87742e-05
2.61192e-05
2.89746e-05
3.89235e-05
4.36351e-05
5.26305e-05
5.4723e-05
5.92821e-05
6.64815e-05
7.64937e-05
8.1926e-05
8.84193e-05
9.13747e-05
9.90763e-05
0.000109046
0.000124049
0.000152528
0.00017575
0.000187933
0.00022416
0.000241857
0.000277343
0.00030334
0.000423258
0.000526838
0.000643727
0.000785499
0.00203916
0.003633
0.0238046
0.0342551
0.167187
4.77414e-06
4.86279e-06
4.96993e-06
5.12643e-06
5.18142e-06
5.27526e-06
5.48142e-06
6.34411e-06
9.31384e-06
1.58764e-05
3.33167e-05
3.57216e-05
3.92443e-05
4.96009e-05
6.3978e-05
6.76531e-05
6.46736e-05
5.88675e-05
5.07722e-05
5.19009e-05
4.87995e-05
5.12624e-05
5.35706e-05
6.18495e-05
6.29044e-05
6.63773e-05
9.42997e-05
9.52401e-05
0.000115689
0.000326721
0.000279989
0.000422601
0.000588236
0.00142113
0.00258018
0.00706473
0.025188
0.161674
2.31042e-06
2.41032e-06
2.55417e-06
2.63245e-06
2.68221e-06
2.86771e-06
3.01212e-06
3.53907e-06
4.20517e-06
5.8738e-06
1.13885e-05
1.63291e-05
2.30227e-05
2.74247e-05
4.00073e-05
4.16577e-05
3.91678e-05
3.22906e-05
3.08133e-05
3.08436e-05
3.30185e-05
3.63234e-05
3.80244e-05
4.60916e-05
4.73055e-05
5.1852e-05
6.34972e-05
6.68556e-05
0.000104566
0.000158072
0.000188497
0.000453862
0.000518421
0.00158193
0.0022194
0.00371464
0.016475
0.178198
1.38277e-06
1.4585e-06
1.61093e-06
1.72493e-06
1.8007e-06
2.01799e-06
2.13879e-06
2.47022e-06
2.77334e-06
3.43164e-06
4.36827e-06
6.65207e-06
8.425e-06
9.37453e-06
1.29802e-05
1.57705e-05
1.53649e-05
1.48848e-05
1.61051e-05
1.87943e-05
2.60557e-05
2.92013e-05
3.42483e-05
3.60223e-05
4.81333e-05
5.36647e-05
5.81094e-05
7.66994e-05
9.22e-05
0.000108829
0.000277835
0.00027238
0.000371176
0.000881227
0.00325866
0.00710407
0.0593695
0.462295
1.08848e-06
1.14604e-06
1.26852e-06
1.37429e-06
1.43815e-06
1.64636e-06
1.74932e-06
1.98884e-06
2.24637e-06
2.81685e-06
3.19307e-06
4.38454e-06
6.24986e-06
6.32917e-06
6.76728e-06
8.9273e-06
1.04145e-05
1.15759e-05
1.30992e-05
1.56569e-05
2.28615e-05
2.82278e-05
3.5462e-05
4.37014e-05
5.11545e-05
6.97727e-05
9.16318e-05
0.000116699
0.000131838
0.000161551
0.000409502
0.000393538
0.000524302
0.0013757
0.00428998
0.0101313
0.0794855
0.511752
9.83786e-07
1.02236e-06
1.13754e-06
1.20993e-06
1.27832e-06
1.45572e-06
1.56684e-06
1.72898e-06
2.02353e-06
2.57926e-06
2.87328e-06
3.79411e-06
5.21984e-06
5.70581e-06
5.93831e-06
6.803e-06
9.11935e-06
1.544e-05
2.51087e-05
2.87914e-05
3.61727e-05
4.57031e-05
6.6378e-05
0.000107155
0.000134034
0.00017921
0.000304736
0.000343994
0.000417838
0.000377105
0.000397864
0.000553008
0.00113722
0.00537698
0.0183708
0.0723556
0.251446
0.625383
9.28869e-07
9.60341e-07
1.05175e-06
1.12363e-06
1.16455e-06
1.3242e-06
1.39552e-06
1.51678e-06
1.82234e-06
2.5238e-06
2.8756e-06
3.43824e-06
4.79145e-06
6.01247e-06
7.56471e-06
1.12661e-05
2.26783e-05
5.35834e-05
9.00981e-05
0.000111163
0.000152285
0.000189226
0.000256867
0.000348681
0.000447374
0.000656841
0.0011739
0.00158947
0.00241076
0.00222071
0.00230481
0.00361215
0.00836201
0.0459774
0.0596029
0.186039
0.336872
0.593592
9.75603e-07
1.00545e-06
1.09269e-06
1.18533e-06
1.22149e-06
1.41348e-06
1.60838e-06
1.81381e-06
2.66321e-06
3.52014e-06
5.17855e-06
5.68474e-06
8.30415e-06
1.54273e-05
2.71011e-05
5.01529e-05
0.000106954
0.000145673
0.000211738
0.000280628
0.000367272
0.000414918
0.000536949
0.000591749
0.000774333
0.0014822
0.00367087
0.00797849
0.0204636
0.0349619
0.0485715
0.0747476
0.138599
0.283292
0.277019
0.474614
0.935308
1.13365
2.28011e-06
2.54621e-06
2.63343e-06
2.83784e-06
3.16929e-06
3.28362e-06
3.57541e-06
4.00249e-06
4.06575e-06
4.64531e-06
6.77185e-06
7.72068e-06
1.15649e-05
3.34728e-05
6.99957e-05
9.94998e-05
0.000126592
0.000156705
0.00018815
0.00019075
0.000206229
0.000315916
0.000369267
0.000368522
0.000533383
0.00146042
0.00457156
0.0140953
0.042345
0.0776166
0.100474
0.148277
0.246313
0.404518
0.664894
1.31003
2.5731
4.35349
0.000499746
0.000561248
0.000606827
0.000605373
0.000542906
0.000503754
0.0004727
0.000398483
0.000299875
0.000237109
0.000490107
0.0015454
0.00214982
0.00265218
0.00362615
0.00509465
0.00693771
0.0087696
0.0102933
0.0112236
0.0123652
0.0165563
0.0242795
0.03348
0.0374282
0.0385968
0.0386509
0.0379898
0.0362045
0.0355029
0.0338174
0.0334377
0.029822
0.027456
0.0265609
0.0784423
0.228488
0.90333
0.000177412
0.000326677
0.000567273
0.000684658
0.000629702
0.000582306
0.000533093
0.000473268
0.000414965
0.000386726
0.000436185
0.000859845
0.00170595
0.00248695
0.00422439
0.00563886
0.00707741
0.00917405
0.0102632
0.0122179
0.0145149
0.0190173
0.0243771
0.0286743
0.0315876
0.0331901
0.0333045
0.0330353
0.0306141
0.0291789
0.025336
0.023654
0.0185765
0.0178761
0.0200563
0.10754
0.150987
0.282157
2.38624e-05
3.99889e-05
6.67523e-05
6.95798e-05
7.62418e-05
8.56715e-05
9.05597e-05
8.79393e-05
8.3375e-05
8.82324e-05
0.000104831
0.000142708
0.000199865
0.000274658
0.000420278
0.000617338
0.000783053
0.00104729
0.00125705
0.00155163
0.00190439
0.00244081
0.00317161
0.00361486
0.00387743
0.0042485
0.00427483
0.00440501
0.00425841
0.00413004
0.00356591
0.00367186
0.00286129
0.0037988
0.003708
0.0200185
0.0753299
0.240097
5.63963e-06
7.12665e-06
9.64274e-06
1.17779e-05
1.17807e-05
1.22397e-05
1.38866e-05
1.77752e-05
2.05422e-05
2.72416e-05
3.05139e-05
3.76247e-05
4.08599e-05
4.75803e-05
5.48778e-05
6.68816e-05
7.61392e-05
8.8448e-05
9.74142e-05
0.000117674
0.000136546
0.000167092
0.000209459
0.000241544
0.000258289
0.00029972
0.000308774
0.000338816
0.000352298
0.000417544
0.000457466
0.000523158
0.000614911
0.00107473
0.00182024
0.00676023
0.0239607
0.0504767
3.15983e-06
3.41498e-06
3.76738e-06
4.27025e-06
4.54678e-06
4.82163e-06
5.14118e-06
6.12176e-06
7.47899e-06
1.03132e-05
1.64241e-05
2.04373e-05
2.14457e-05
2.33181e-05
2.83608e-05
3.31443e-05
3.35131e-05
3.28173e-05
3.2683e-05
3.48217e-05
3.67358e-05
4.09605e-05
4.4408e-05
4.97006e-05
5.47644e-05
5.85242e-05
7.58768e-05
8.41718e-05
0.000103283
0.000204884
0.000222455
0.000324195
0.000448685
0.000795774
0.00119306
0.00357114
0.0110795
0.0376657
1.7745e-06
1.89901e-06
2.11581e-06
2.32093e-06
2.46179e-06
2.72892e-06
2.95449e-06
3.49619e-06
4.2006e-06
5.14982e-06
7.66993e-06
1.09389e-05
1.23413e-05
1.39885e-05
1.91326e-05
2.26419e-05
2.23736e-05
2.12293e-05
2.16488e-05
2.29984e-05
2.69336e-05
2.94993e-05
3.1686e-05
3.67289e-05
3.95616e-05
4.64141e-05
5.67235e-05
6.23334e-05
9.73588e-05
0.000136179
0.000166379
0.000329672
0.000373009
0.000714711
0.00127666
0.00233608
0.0065565
0.0290681
1.24945e-06
1.33038e-06
1.49508e-06
1.6422e-06
1.74996e-06
2.00556e-06
2.16069e-06
2.50031e-06
2.89377e-06
3.49324e-06
4.20691e-06
6.21136e-06
7.23504e-06
7.82226e-06
9.77484e-06
1.25384e-05
1.32299e-05
1.34733e-05
1.49136e-05
1.73112e-05
2.32395e-05
2.57743e-05
3.07285e-05
3.31347e-05
4.17693e-05
5.0369e-05
5.61338e-05
7.38321e-05
9.03657e-05
0.000106435
0.000192636
0.000224218
0.000329404
0.00058391
0.00176369
0.00358198
0.0136658
0.0655005
1.03635e-06
1.09662e-06
1.22347e-06
1.33798e-06
1.41608e-06
1.63331e-06
1.75355e-06
2.0068e-06
2.30659e-06
2.80705e-06
3.2533e-06
4.43644e-06
5.74582e-06
6.02826e-06
6.57468e-06
8.30266e-06
1.04572e-05
1.16734e-05
1.3817e-05
1.58903e-05
2.15897e-05
2.6186e-05
3.51254e-05
4.53592e-05
5.36287e-05
7.0314e-05
0.000103006
0.000119288
0.000146291
0.000172262
0.000264145
0.00031123
0.00042165
0.000802182
0.00216673
0.00595522
0.0193638
0.071639
9.54003e-07
9.96752e-07
1.11214e-06
1.18974e-06
1.26705e-06
1.44983e-06
1.56774e-06
1.75173e-06
2.04307e-06
2.6425e-06
3.03152e-06
4.00212e-06
5.1164e-06
5.79315e-06
6.24392e-06
7.37703e-06
1.01501e-05
1.75276e-05
2.49858e-05
2.86299e-05
3.63994e-05
4.76785e-05
7.19272e-05
0.000110363
0.00014552
0.000202205
0.000352878
0.000418481
0.000546726
0.000484251
0.000486554
0.000603045
0.00103478
0.0032945
0.00939854
0.0382963
0.0617142
0.0908449
9.15774e-07
9.47285e-07
1.04055e-06
1.11516e-06
1.15869e-06
1.34376e-06
1.42032e-06
1.5968e-06
1.96076e-06
2.79611e-06
3.23386e-06
4.11616e-06
5.34681e-06
6.79383e-06
8.80361e-06
1.31749e-05
2.45165e-05
5.60163e-05
8.48178e-05
0.000108616
0.000153839
0.000200896
0.000272099
0.00036926
0.00049409
0.000827491
0.001562
0.00216703
0.00334667
0.00310599
0.00334194
0.00441339
0.00844478
0.0312406
0.0717223
0.164308
0.186074
0.167615
9.8883e-07
1.01943e-06
1.10243e-06
1.22152e-06
1.27275e-06
1.73142e-06
1.88551e-06
2.64138e-06
3.42606e-06
5.13266e-06
7.42854e-06
8.13827e-06
9.60428e-06
1.53063e-05
2.91676e-05
5.50745e-05
0.000111974
0.000157833
0.000232906
0.000343807
0.000435129
0.000481916
0.000594933
0.000665481
0.000993763
0.00217443
0.00505048
0.0106936
0.0264528
0.0422707
0.0596056
0.0812832
0.140621
0.289945
0.336025
0.447505
0.603325
0.643793
2.40829e-06
2.62611e-06
2.74617e-06
2.9664e-06
3.35635e-06
3.44258e-06
4.01445e-06
4.02703e-06
4.5466e-06
7.42806e-06
8.21951e-06
9.06012e-06
1.32466e-05
3.31879e-05
7.27863e-05
0.00010887
0.000145684
0.000178344
0.000210807
0.000219641
0.000257941
0.00036884
0.000411403
0.00043265
0.000770134
0.00220162
0.00610779
0.0175383
0.050471
0.0918934
0.119663
0.163946
0.251815
0.395318
0.629288
1.13288
1.97964
2.88179
0.000312262
0.000386163
0.000420794
0.000442884
0.000410827
0.000374093
0.000347788
0.000295272
0.000221407
0.000195879
0.000559876
0.00168724
0.00247311
0.00309793
0.00434726
0.0061532
0.0082404
0.0103406
0.0119474
0.0131757
0.0151875
0.0210284
0.030758
0.0401769
0.0437552
0.0446101
0.0443477
0.0426673
0.0397471
0.0376278
0.0342362
0.0325388
0.0278647
0.0226916
0.026019
0.0762803
0.225318
0.911467
0.000108569
0.000172109
0.000240528
0.000353096
0.000353711
0.000345707
0.000327837
0.000318536
0.000301908
0.000302966
0.000391219
0.000932449
0.00203376
0.00321041
0.00531662
0.00711189
0.00856083
0.0109741
0.0120994
0.0144836
0.0176238
0.0231005
0.0291911
0.0336958
0.0362754
0.0372669
0.0365652
0.034909
0.0312547
0.0285885
0.0234476
0.020421
0.0159757
0.0124228
0.0119576
0.0367657
0.079966
0.150749
1.53344e-05
2.86032e-05
3.71069e-05
4.54564e-05
4.83906e-05
5.06434e-05
5.42876e-05
6.09045e-05
6.79053e-05
7.85003e-05
0.000101223
0.000154272
0.000249864
0.000414131
0.000690657
0.000991748
0.00123214
0.00161426
0.00188984
0.00226727
0.00276531
0.00348129
0.0043229
0.00483359
0.00507471
0.00531803
0.00517379
0.00506019
0.00459997
0.00425267
0.00341377
0.00322056
0.00250624
0.00238947
0.00257223
0.00518946
0.0198571
0.070352
4.42072e-06
6.34847e-06
8.86486e-06
1.12981e-05
1.15549e-05
1.22447e-05
1.42362e-05
1.87441e-05
2.18374e-05
2.69649e-05
3.29852e-05
4.35146e-05
4.97446e-05
6.27052e-05
7.62335e-05
9.72564e-05
0.000113912
0.000139345
0.000156495
0.00018617
0.00021386
0.00025379
0.000306302
0.00033516
0.000348853
0.000384138
0.000382638
0.000403537
0.000411588
0.000442343
0.000466431
0.000512504
0.000563476
0.000869421
0.00106036
0.00265376
0.00718277
0.0192568
2.39043e-06
2.82668e-06
3.48714e-06
4.19125e-06
4.54739e-06
4.95058e-06
5.63119e-06
7.16915e-06
8.54805e-06
1.02378e-05
1.37709e-05
1.68765e-05
1.8565e-05
2.0536e-05
2.37324e-05
2.78255e-05
2.96132e-05
3.02548e-05
3.11693e-05
3.40865e-05
3.68164e-05
4.11455e-05
4.51461e-05
4.97475e-05
5.48171e-05
6.00586e-05
7.41747e-05
8.82354e-05
0.000111943
0.000185676
0.000214514
0.000298736
0.000399751
0.000564881
0.000865547
0.00208463
0.00647951
0.0132048
1.49896e-06
1.64894e-06
1.94559e-06
2.23567e-06
2.43059e-06
2.74397e-06
3.14043e-06
3.79996e-06
4.75429e-06
5.48349e-06
7.03806e-06
9.55382e-06
1.0627e-05
1.1608e-05
1.4263e-05
1.73526e-05
1.81759e-05
1.82802e-05
1.92742e-05
2.09503e-05
2.47644e-05
2.73243e-05
3.03342e-05
3.45339e-05
3.85536e-05
4.51921e-05
5.69784e-05
6.73409e-05
0.000102875
0.000145106
0.000180966
0.000292398
0.000341772
0.000500939
0.000888603
0.0016116
0.00418055
0.0109254
1.16969e-06
1.25879e-06
1.43862e-06
1.61169e-06
1.74629e-06
2.03498e-06
2.24843e-06
2.64608e-06
3.15844e-06
3.74168e-06
4.36255e-06
6.06764e-06
7.07098e-06
7.55792e-06
8.88215e-06
1.10836e-05
1.26664e-05
1.32761e-05
1.50612e-05
1.71118e-05
2.19057e-05
2.43431e-05
2.93313e-05
3.23951e-05
4.07502e-05
4.85103e-05
5.70502e-05
7.4446e-05
9.54661e-05
0.000116584
0.000181251
0.000230904
0.000371209
0.000605397
0.00137038
0.00247844
0.00670542
0.0177636
1.01041e-06
1.07481e-06
1.20875e-06
1.329e-06
1.42535e-06
1.65342e-06
1.80205e-06
2.09017e-06
2.42803e-06
2.9329e-06
3.45029e-06
4.57393e-06
5.69399e-06
6.14185e-06
6.78751e-06
8.39862e-06
1.11753e-05
1.25886e-05
1.50661e-05
1.69974e-05
2.17961e-05
2.65561e-05
3.61932e-05
4.57818e-05
5.90309e-05
7.43662e-05
0.000113921
0.000130289
0.000168249
0.000194964
0.000256247
0.000308946
0.000403795
0.000692196
0.00141815
0.0047065
0.010268
0.0188092
9.46224e-07
9.93495e-07