/*--------------------------------*- C++ -*----------------------------------*\
| =========                 |                                                 |
| \\      /  F ield         | OpenFOAM: The Open Source CFD Toolbox           |
|  \\    /   O peration     | Version:  2.3.1                                 |
|   \\  /    A nd           | Web:      www.OpenFOAM.org                      |
|    \\/     M anipulation  |                                                 |
\*---------------------------------------------------------------------------*/
FoamFile
{
    version     2.0;
    format      ascii;
    class       volScalarField;
    location    "15";
    object      k;
}
// * * * * * * * * * * * * * * * * * * * * * * * * * * * * * * * * * * * * * //

dimensions      [0 2 -2 0 0 0 0];

internalField   nonuniform List<scalar> 
38262
(
0.000587379
0.000640407
0.0006636
0.000664329
0.000644547
0.000625905
0.000595284
0.000554773
0.00054733
0.000574735
0.000642325
0.000678055
0.000745099
0.000794189
0.000906701
0.00109789
0.00121339
0.00129732
0.00135951
0.0013696
0.00145196
0.00172311
0.00220259
0.00261453
0.00264501
0.00257118
0.00250731
0.00252974
0.00281489
0.00310049
0.00349244
0.0039362
0.00440435
0.00604059
0.0137454
0.0195449
0.0687139
0.322891
0.000488424
0.00076591
0.000830979
0.000796714
0.000769463
0.000800353
0.000857585
0.000861051
0.000829481
0.000814011
0.0008372
0.000906134
0.000927398
0.000936121
0.000998851
0.00100704
0.00107227
0.00116239
0.00134209
0.00142811
0.0014959
0.00167757
0.00190852
0.00201343
0.00199598
0.0018289
0.00178601
0.00193059
0.00256353
0.00279369
0.00337117
0.00404179
0.00450313
0.00625163
0.0220946
0.0651746
0.123037
0.315511
0.000213534
0.000226126
0.000219689
0.000252847
0.000440065
0.000695378
0.000762576
0.000783062
0.000797523
0.000802216
0.000796364
0.000786837
0.000780852
0.000766267
0.00074805
0.000724695
0.000703257
0.000666381
0.000646833
0.00063049
0.000605154
0.000585045
0.000608358
0.000603072
0.00058191
0.000678068
0.00116642
0.00168344
0.00204116
0.00220869
0.00205042
0.00275409
0.00293756
0.0053056
0.00934743
0.0315557
0.0463147
0.272431
0.000126825
0.000120901
0.00010712
0.000104839
9.60657e-05
0.000112754
0.000255802
0.00059092
0.000715569
0.00075025
0.000771468
0.00077649
0.000761733
0.000740663
0.000702042
0.000666173
0.000629328
0.000576589
0.000515688
0.000510207
0.000461881
0.000448485
0.000447545
0.00047005
0.000477934
0.000491868
0.000587299
0.000598432
0.000925844
0.000858565
0.00110355
0.00126591
0.00159151
0.00357429
0.00403153
0.0106765
0.0723427
0.271567
7.00748e-05
6.83156e-05
6.12682e-05
5.70193e-05
5.08063e-05
5.19199e-05
5.55646e-05
9.40629e-05
0.000359938
0.000611713
0.000691686
0.000711598
0.000695491
0.000687616
0.000657199
0.000593899
0.000556559
0.000496265
0.000432039
0.000408128
0.000401389
0.00037728
0.000359687
0.000375673
0.000380043
0.000443353
0.000416329
0.000603574
0.000706264
0.00060752
0.00126992
0.00129311
0.00143266
0.0019522
0.00324879
0.0146913
0.0910558
0.279234
3.761e-05
3.91532e-05
3.85807e-05
3.67861e-05
3.65698e-05
3.65622e-05
3.6975e-05
4.05747e-05
6.73262e-05
0.000153738
0.000370768
0.000501892
0.000546766
0.000533203
0.000494295
0.000412098
0.00035988
0.000303822
0.000278709
0.000277931
0.000304844
0.000292239
0.000332073
0.000301868
0.00035703
0.000392021
0.000390908
0.000454004
0.000448314
0.000452433
0.00124006
0.00107498
0.00216633
0.00255047
0.00448433
0.0120747
0.0736793
0.273018
2.18172e-05
2.42733e-05
2.57411e-05
2.60846e-05
2.80671e-05
2.91466e-05
3.16139e-05
3.3204e-05
3.81133e-05
4.4757e-05
7.35715e-05
0.000123955
0.000224446
0.000226669
0.00022999
0.000230361
0.000215704
0.000179044
0.00016581
0.000168527
0.000217474
0.000227351
0.000245302
0.000243163
0.000249451
0.000245367
0.000278141
0.000259028
0.0003085
0.000406619
0.000876512
0.0011112
0.00158967
0.00291597
0.00609104
0.0174556
0.0605274
0.224213
1.97901e-05
2.088e-05
2.31869e-05
2.41735e-05
2.64968e-05
2.89924e-05
2.99912e-05
3.43101e-05
3.61572e-05
4.04565e-05
4.40206e-05
5.14835e-05
7.86666e-05
7.68838e-05
7.70426e-05
9.52445e-05
0.000105263
0.000105472
0.0001077
0.000113875
0.000139794
0.000161019
0.000186155
0.000191207
0.000207656
0.000209535
0.00022452
0.000242176
0.000233263
0.000267945
0.000471982
0.00151673
0.00258439
0.00762934
0.00796949
0.0233644
0.0663159
0.182925
1.87115e-05
2.06158e-05
2.15978e-05
2.31947e-05
2.55781e-05
2.70232e-05
2.83662e-05
3.24058e-05
3.36134e-05
3.69101e-05
4.2346e-05
4.34817e-05
5.13183e-05
5.75756e-05
6.08047e-05
7.06327e-05
7.53281e-05
8.91634e-05
0.000107187
0.000112822
0.000126589
0.000131424
0.000168638
0.00017081
0.00020718
0.000240748
0.000288681
0.000330602
0.00034328
0.000374067
0.000474522
0.000741198
0.00161984
0.0062329
0.0135317
0.0363668
0.09847
0.201488
1.81736e-05
1.97013e-05
2.17431e-05
2.21723e-05
2.46663e-05
2.60158e-05
2.77986e-05
2.95891e-05
3.1834e-05
3.38519e-05
3.69936e-05
4.16307e-05
5.1816e-05
5.6475e-05
6.96979e-05
7.83063e-05
9.79432e-05
0.000113656
0.000156604
0.000188181
0.000186731
0.000194234
0.000237171
0.000265293
0.000350888
0.000376533
0.000467494
0.000497589
0.000542636
0.000477956
0.00116065
0.00335972
0.00602443
0.010126
0.0234816
0.0545526
0.127041
0.249732
1.671e-05
1.77097e-05
2.0278e-05
2.0318e-05
2.22619e-05
2.37787e-05
2.51108e-05
2.63108e-05
2.8739e-05
3.66252e-05
4.30867e-05
6.05967e-05
8.34205e-05
9.06982e-05
0.000106269
0.000116208
0.000121978
0.000138309
0.000191782
0.000238749
0.000257339
0.000281062
0.000351702
0.00038011
0.000442294
0.000407993
0.000557058
0.000800437
0.00160823
0.00165034
0.0014458
0.00241911
0.00500512
0.0116753
0.0267754
0.0607188
0.132342
0.249283
1.23334e-05
1.33671e-05
1.44462e-05
1.44422e-05
1.58063e-05
1.70612e-05
1.68708e-05
1.81059e-05
2.9426e-05
7.16929e-05
7.61453e-05
7.63102e-05
8.42719e-05
9.47887e-05
0.000102805
9.49706e-05
0.000104503
0.000128323
0.000129911
0.000112359
0.000153144
0.000223074
0.000232585
0.000172245
0.000192162
0.000339658
0.000994089
0.00262572
0.00653949
0.00802418
0.00853468
0.0130646
0.0219383
0.0339
0.0561514
0.095427
0.154666
0.242313
0.000778758
0.000879054
0.000900697
0.00087441
0.00087035
0.000869148
0.000802401
0.000683603
0.000633695
0.000685526
0.000882553
0.000982115
0.00110778
0.00127691
0.00136995
0.0017693
0.00211681
0.00228324
0.00256635
0.00259275
0.0025631
0.00288729
0.00350413
0.00438028
0.00458762
0.00439387
0.00414347
0.00434697
0.00458437
0.00499596
0.00545491
0.00614159
0.00669607
0.00706749
0.00966074
0.0194669
0.0878891
0.563769
0.000871121
0.00120922
0.00158088
0.00142017
0.00136349
0.00146358
0.00150537
0.00140205
0.00129147
0.00119552
0.00119937
0.0013439
0.00160681
0.0018895
0.00226929
0.00258274
0.00295699
0.00326743
0.00361975
0.00386298
0.00410218
0.00471361
0.00545832
0.00609272
0.00622519
0.0061064
0.00552269
0.00586977
0.00664112
0.00729133
0.00760368
0.00910958
0.00894491
0.011642
0.019583
0.0544697
0.196242
1.16876
0.000359917
0.000398915
0.000432876
0.000441524
0.000511409
0.000740696
0.000830282
0.000897102
0.00104334
0.00113922
0.00109032
0.00103272
0.00104778
0.00103314
0.00101946
0.00101652
0.0010121
0.000994999
0.00100816
0.000983427
0.00101694
0.00112844
0.00120629
0.00128127
0.00133168
0.00188294
0.00216929
0.00264671
0.00257238
0.00295243
0.00304031
0.00457393
0.00427342
0.00811967
0.018251
0.0700329
0.0961787
0.335418
0.000168214
0.000164405
0.000153918
0.000145863
0.000138528
0.000151363
0.000191039
0.000361963
0.00060647
0.000804193
0.000948915
0.000983647
0.000942954
0.00089855
0.000838636
0.000827611
0.000770861
0.000716436
0.000687519
0.000592859
0.000622397
0.000593931
0.000564348
0.000555205
0.000586843
0.000622173
0.000801245
0.000858109
0.00145672
0.00113209
0.00273741
0.00221705
0.00266127
0.00587879
0.00721913
0.0102505
0.0270085
0.205638
8.03334e-05
7.88424e-05
7.0916e-05
6.78481e-05
5.72342e-05
5.76056e-05
5.79077e-05
6.89144e-05
0.000158873
0.000369137
0.000561871
0.00080419
0.000840265
0.000952284
0.000926549
0.000873839
0.000799943
0.000709386
0.00056796
0.000567899
0.000553176
0.000489276
0.000555282
0.00056609
0.000511981
0.000589836
0.000543725
0.000928625
0.000867751
0.000830446
0.00171863
0.00160851
0.00198255
0.00319004
0.0060455
0.0115261
0.0525992
0.297203
3.37169e-05
3.58401e-05
3.56172e-05
3.58279e-05
3.56711e-05
3.91841e-05
3.99121e-05
4.25166e-05
6.65285e-05
8.36298e-05
0.000180739
0.00027843
0.000412106
0.000494544
0.00048017
0.000469535
0.000442233
0.00036349
0.000274133
0.000280292
0.000272652
0.000385776
0.000386207
0.000506006
0.000417148
0.000515738
0.000532148
0.000593501
0.000753173
0.000855928
0.00188918
0.00166672
0.00341386
0.00386015
0.00634528
0.0109
0.0480746
0.285913
2.37088e-05
2.5506e-05
2.634e-05
2.86761e-05
2.97813e-05
3.26651e-05
3.4594e-05
4.03481e-05
4.25584e-05
4.79087e-05
6.55355e-05
7.49177e-05
0.000119807
0.000126297
0.000140865
0.000146144
0.000144155
0.00013224
0.000132325
0.000144091
0.000155932
0.000207212
0.000252114
0.000250765
0.000247244
0.000378581
0.000366367
0.00053892
0.000740417
0.00103049
0.00180018
0.00174132
0.00228136
0.00500467
0.00701134
0.0259459
0.082021
0.283286
2.32157e-05
2.45104e-05
2.64276e-05
2.74662e-05
3.01185e-05
3.13126e-05
3.57193e-05
3.7794e-05
4.27469e-05
5.01507e-05
5.16621e-05
5.5385e-05
7.82685e-05
7.94931e-05
7.93459e-05
8.37972e-05
9.64365e-05
9.68912e-05
9.9321e-05
0.000105413
0.000115321
0.000155201
0.000167139
0.000187584
0.000199327
0.000240266
0.000266968
0.000279363
0.000340399
0.000445228
0.000623405
0.0018396
0.00411712
0.0077323
0.00824145
0.0259839
0.106736
0.302353
2.20897e-05
2.28675e-05
2.47965e-05
2.56993e-05
2.77099e-05
2.8553e-05
3.20389e-05
3.34916e-05
3.60614e-05
4.47207e-05
4.54599e-05
5.12133e-05
6.56137e-05
6.55395e-05
6.93664e-05
7.37195e-05
7.66163e-05
8.53367e-05
0.000103973
0.000118934
0.000124245
0.000146339
0.000165848
0.000202916
0.000250896
0.000371148
0.000390313
0.000506535
0.000542563
0.00071832
0.000794846
0.0011041
0.00186826
0.00610031
0.0286037
0.0475151
0.171494
0.402925
1.98205e-05
2.15069e-05
2.19808e-05
2.36093e-05
2.50797e-05
2.60001e-05
2.70761e-05
2.98213e-05
3.02316e-05
3.36542e-05
3.62533e-05
4.19566e-05
4.9862e-05
5.27613e-05
6.24154e-05
7.66481e-05
0.000102532
0.000148976
0.000246827
0.000291002
0.000314105
0.00033965
0.000434178
0.000496709
0.000671143
0.000762159
0.00096534
0.00120257
0.00126934
0.00108315
0.00164234
0.0038513
0.00641681
0.0132965
0.0356821
0.0762048
0.187443
0.404381
1.59557e-05
1.79082e-05
1.79266e-05
1.92253e-05
2.01566e-05
2.03453e-05
2.11245e-05
2.24019e-05
2.54423e-05
3.10389e-05
4.53447e-05
8.41003e-05
0.000103522
0.000119226
0.000162378
0.00018768
0.000252641
0.000288294
0.000387772
0.00048227
0.000533413
0.000585512
0.000714302
0.000744553
0.000915531
0.000934086
0.0015766
0.00262556
0.00516312
0.00876162
0.00631843
0.00890124
0.0110089
0.0191329
0.0416062
0.0822354
0.195485
0.396617
1.38024e-05
1.47652e-05
1.55736e-05
1.58563e-05
1.75211e-05
1.77939e-05
1.91546e-05
1.92432e-05
2.37669e-05
4.06524e-05
8.97474e-05
9.5348e-05
0.000112898
0.000133824
0.000159821
0.000170016
0.000184411
0.000216048
0.000237702
0.00021043
0.000212592
0.000335949
0.000384187
0.000309615
0.000384525
0.000566346
0.00141347
0.00341817
0.00783164
0.0107671
0.0121782
0.0180795
0.0287047
0.0427404
0.0676125
0.112458
0.188449
0.308517
0.000757604
0.000861587
0.000905535
0.000893219
0.000874568
0.000871035
0.000824866
0.000695218
0.000536227
0.000499433
0.000781211
0.00115875
0.00129736
0.00149614
0.00171023
0.00211446
0.00259091
0.00293503
0.00329607
0.00340814
0.00346233
0.00396019
0.00493857
0.00633809
0.00683241
0.00689917
0.00685152
0.00695955
0.00696471
0.00736213
0.00759447
0.00826132
0.00838553
0.00904279
0.0104919
0.0219816
0.084058
0.247194
0.000847128
0.00109036
0.0014722
0.00147641
0.00136783
0.00135162
0.00130497
0.00118464
0.00109034
0.0010353
0.00107509
0.00128499
0.00164418
0.00202868
0.00267201
0.00312142
0.00373134
0.00427004
0.00467091
0.00511037
0.00555028
0.00656813
0.00780054
0.00876905
0.00931032
0.00962792
0.00956215
0.00964705
0.00984084
0.0103826
0.0102494
0.0116209
0.0106668
0.0152811
0.0307743
0.063261
0.105858
0.445559
0.000249773
0.000339573
0.000362752
0.000370431
0.000398419
0.000474739
0.000474863
0.000413927
0.000401406
0.000438192
0.000451915
0.000501153
0.000546689
0.000596421
0.000662552
0.000735705
0.000801601
0.000859764
0.000887907
0.000935395
0.00100623
0.0011654
0.00136341
0.00149772
0.00150307
0.00161003
0.00175135
0.00185697
0.0019694
0.00236357
0.00250389
0.00367309
0.00334078
0.00778942
0.0146831
0.0420713
0.0788695
0.336776
9.00902e-05
9.75936e-05
0.000104401
0.000100209
0.000101188
0.000103334
0.000118056
0.000151272
0.000184536
0.000222904
0.000250694
0.00029434
0.000296553
0.000305856
0.000324311
0.000344851
0.000348227
0.000347157
0.000341893
0.000330487
0.000350407
0.000361129
0.000378136
0.000400869
0.000429635
0.000481026
0.000568103
0.000581452
0.000642031
0.000935937
0.00125488
0.00127594
0.00152049
0.00332374
0.00438819
0.00967541
0.0324688
0.0603281
5.00946e-05
5.18058e-05
5.23351e-05
5.32236e-05
5.28701e-05
5.31683e-05
5.5185e-05
5.91995e-05
7.75729e-05
0.000116908
0.000164756
0.00020572
0.000248875
0.000330636
0.000362336
0.000367147
0.000353247
0.000340481
0.000296884
0.000306526
0.000289604
0.00029169
0.000308328
0.000342859
0.000370464
0.000373643
0.000472478
0.000502386
0.000563649
0.000901708
0.000937255
0.00119968
0.00141443
0.0024663
0.00783786
0.00863655
0.014444
0.080536
3.56884e-05
3.7355e-05
3.93298e-05
4.10221e-05
4.26174e-05
4.67629e-05
4.84409e-05
5.41613e-05
6.53851e-05
7.68198e-05
0.00011558
0.000129614
0.000162717
0.000194261
0.000236033
0.000227957
0.000214926
0.000196828
0.000195348
0.00020442
0.000206783
0.000231498
0.00025055
0.000312513
0.000305638
0.000329697
0.000390923
0.000400549
0.00061273
0.000772884
0.00085113
0.00143069
0.00166852
0.0034117
0.00404449
0.0051408
0.0141819
0.0960565
3.07866e-05
3.22728e-05
3.45733e-05
3.68237e-05
3.85071e-05
4.24153e-05
4.45074e-05
5.04658e-05
5.31782e-05
6.14086e-05
7.58729e-05
8.1422e-05
9.91469e-05
0.000106607
0.000121673
0.000128607
0.000127709
0.000129485
0.00013593
0.000156289
0.000169241
0.00018993
0.000206072
0.000211106
0.000244339
0.00027747
0.000291348
0.000356348
0.000462278
0.000509692
0.001088
0.0010166
0.00122541
0.00311061
0.00438751
0.00737453
0.0340352
0.148864
2.94465e-05
3.0877e-05
3.3335e-05
3.49879e-05
3.70549e-05
4.03281e-05
4.26723e-05
4.69432e-05
5.03307e-05
5.98189e-05
6.363e-05
7.38917e-05
9.68229e-05
9.69829e-05
9.86641e-05
0.00011478
0.000116274
0.000119174
0.000120376
0.000134041
0.000145339
0.000169142
0.000183095
0.000193518
0.000221184
0.000269779
0.000298066
0.000353273
0.000416566
0.000513598
0.000880798
0.00101812
0.00150771
0.00277916
0.00395869
0.00811404
0.0450564
0.166861
2.72801e-05
2.83333e-05
3.07801e-05
3.20078e-05
3.40753e-05
3.59646e-05
3.91694e-05
4.19433e-05
4.50488e-05
5.39252e-05
5.67605e-05
6.63122e-05
8.25556e-05
8.3115e-05
8.29963e-05
8.64711e-05
9.11688e-05
0.000105205
0.000116135
0.000132422
0.00014312
0.00016334
0.000202911
0.000264979
0.000313591
0.000414854
0.000521255
0.000568465
0.000633015
0.000647542
0.000690548
0.000957862
0.00159324
0.00369255
0.015175
0.0294588
0.0958805
0.210047
2.41726e-05
2.57052e-05
2.67636e-05
2.83609e-05
2.9562e-05
3.12875e-05
3.29699e-05
3.49404e-05
3.71302e-05
4.31888e-05
4.63137e-05
5.2129e-05
6.17273e-05
6.39138e-05
6.77237e-05
7.81055e-05
0.00010377
0.000156811
0.000250473
0.000305847
0.000365799
0.000415241
0.000529736
0.000640381
0.000829708
0.000947903
0.00125343
0.00153756
0.00187284
0.00155945
0.00150925
0.00202515
0.00372417
0.0121069
0.0197805
0.0490763
0.104931
0.196145
1.92425e-05
2.06715e-05
2.10746e-05
2.24962e-05
2.31534e-05
2.37675e-05
2.6219e-05
2.70071e-05
2.92068e-05
3.25144e-05
3.99345e-05
5.88439e-05
7.49692e-05
9.11634e-05
0.000131405
0.000172284
0.000260523
0.000315568
0.000443714
0.000565522
0.000635865
0.000694304
0.00084693
0.000899633
0.00105159
0.00131862
0.00227175
0.0038723
0.00747957
0.0122919
0.0142517
0.0211617
0.0307332
0.0348308
0.0386827
0.0768432
0.150773
0.234045
1.509e-05
1.6321e-05
1.68851e-05
1.74064e-05
1.90298e-05
1.93857e-05
2.04518e-05
2.10469e-05
2.21275e-05
2.57587e-05
5.2322e-05
5.57798e-05
7.00651e-05
0.000123205
0.000163016
0.00019025
0.000211779
0.000245502
0.000277113
0.000271199
0.000274456
0.000376683
0.000435091
0.000407964
0.000488725
0.000864741
0.00199941
0.00449285
0.00963172
0.0141909
0.0165478
0.0229243
0.0341558
0.0494491
0.0718048
0.115385
0.187644
0.293473
0.000687327
0.000772639
0.000801591
0.000784121
0.000741479
0.000725473
0.000692736
0.000599976
0.000471758
0.000411335
0.000645027
0.00121143
0.00141578
0.00162207
0.00194894
0.00241156
0.00297174
0.00344596
0.0038665
0.00405288
0.0042139
0.00496935
0.0063427
0.00805281
0.00874891
0.00895582
0.00897616
0.00897413
0.00883574
0.00895386
0.0089552
0.00932094
0.00892017
0.00924097
0.00906239
0.017383
0.0528857
0.134179
0.000534468
0.000891159
0.00111749
0.00119536
0.00112419
0.0011021
0.00105798
0.000970166
0.000880802
0.000833175
0.000858629
0.00112885
0.00161988
0.00206573
0.00300204
0.00362737
0.00438578
0.00517288
0.00562431
0.00628445
0.00697662
0.00840162
0.00999932
0.0111971
0.0118944
0.0124305
0.0123435
0.0124445
0.0121322
0.0121534
0.011624
0.0120894
0.0109039
0.0126152
0.0212255
0.033256
0.056698
0.103575
0.00012778
0.000208471
0.000265717
0.000258427
0.000273212
0.000299178
0.000293818
0.000273953
0.000258254
0.000266747
0.000296165
0.000368231
0.000420736
0.000474418
0.000560864
0.000663872
0.000763718
0.000886882
0.000964525
0.00110528
0.00126314
0.00150639
0.0018459
0.00204833
0.00205109
0.00221879
0.00224939
0.00236818
0.0023941
0.00247963
0.00250597
0.00300577
0.00273406
0.00444688
0.00539097
0.0169158
0.0597475
0.124867
5.88905e-05
6.60764e-05
7.47277e-05
7.60842e-05
7.83563e-05
8.08709e-05
8.93872e-05
0.000103989
0.000108775
0.000121498
0.000130456
0.000153345
0.000163572
0.000173481
0.000192007
0.00021884
0.000236368
0.000249631
0.000257565
0.000277784
0.000299325
0.000328305
0.000363144
0.000395335
0.000416646
0.000450616
0.00050154
0.000542987
0.000583512
0.000752296
0.000908474
0.00102595
0.00123646
0.0020679
0.00332756
0.00736099
0.0140218
0.0322541
4.49069e-05
4.76741e-05
5.01809e-05
5.23117e-05
5.38645e-05
5.66896e-05
5.87284e-05
6.41054e-05
8.05975e-05
8.98876e-05
0.000105631
0.000128302
0.00013629
0.000146223
0.00017358
0.000200238
0.000210287
0.000216013
0.000218881
0.000237965
0.000244408
0.000263891
0.000275827
0.000309505
0.000318612
0.000340293
0.000423017
0.000428226
0.000489278
0.0008452
0.000811311
0.000957008
0.00121013
0.00219262
0.00315909
0.00510711
0.00988558
0.0234821
3.99359e-05
4.17292e-05
4.45666e-05
4.66763e-05
4.84735e-05
5.2763e-05
5.50336e-05
6.17382e-05
6.82957e-05
8.20187e-05
0.000111254
0.00013173
0.000137042
0.000146865
0.000173761
0.000188062
0.000189594
0.00019199
0.000197581
0.000213301
0.000231747
0.000249474
0.000256594
0.00029074
0.000295779
0.000311052
0.000356795
0.000373502
0.000509921
0.000659662
0.000695014
0.00110218
0.00121319
0.00205499
0.0028204
0.0038125
0.00695311
0.0242566
3.59097e-05
3.76001e-05
4.06453e-05
4.31055e-05
4.5109e-05
4.97295e-05
5.20438e-05
5.76118e-05
6.17961e-05
7.08043e-05
8.10938e-05
0.000102042
0.000111567
0.000118259
0.000136901
0.00015375
0.000153309
0.000153854
0.000160961
0.000181317
0.000214253
0.000224539
0.000230474
0.000236708
0.000270306
0.000297395
0.000314117
0.000375864
0.000423841
0.000471806
0.000811746
0.00080948
0.000993347
0.00164184
0.00257335
0.00409657
0.0126187
0.0502957
3.37676e-05
3.5366e-05
3.82344e-05
4.04761e-05
4.23372e-05
4.676e-05
4.89818e-05
5.38435e-05
5.80243e-05
6.74409e-05
7.30398e-05
8.84329e-05
0.000107097
0.000107836
0.000110963
0.000128681
0.000133726
0.000135134
0.000137845
0.000147921
0.00017145
0.000190116
0.00020939
0.000226042
0.000246361
0.000297806
0.000334002
0.000394638
0.000434678
0.000518931
0.000867515
0.000876398
0.00104571
0.00188806
0.00282447
0.00480632
0.0160009
0.0556315
3.1128e-05
3.23128e-05
3.51249e-05
3.67581e-05
3.86679e-05
4.20781e-05
4.46797e-05
4.82717e-05
5.29588e-05
6.22348e-05
6.64617e-05
7.87364e-05
9.24623e-05
9.39826e-05
9.29701e-05
9.57825e-05
0.000105213
0.000119833
0.000131492
0.000140583
0.000158254
0.000182167
0.000229503
0.000308009
0.000361319
0.000443293
0.000617052
0.000667861
0.000755758
0.000740543
0.000790692
0.00102309
0.00160451
0.00317964
0.0055653
0.0145883
0.0368239
0.0653128
2.74083e-05
2.85352e-05
3.04492e-05
3.21932e-05
3.3132e-05
3.61775e-05
3.76056e-05
3.98275e-05
4.60877e-05
5.1577e-05
5.60947e-05
6.20654e-05
6.71546e-05
7.02727e-05
7.35345e-05
8.09153e-05
0.000103013
0.000156921
0.000240438
0.000297053
0.000380266
0.000455533
0.000576662
0.000724016
0.000896436
0.00109885
0.00153381
0.00194944
0.00247098
0.00211379
0.00191459
0.00248877
0.00445116
0.0165911
0.016496
0.036158
0.0518437
0.0683514
2.17556e-05
2.27315e-05
2.35131e-05
2.56696e-05
2.58653e-05
2.85334e-05
3.07291e-05
3.21471e-05
4.14643e-05
4.33764e-05
5.17318e-05
5.22758e-05
5.57629e-05
6.87937e-05
0.000103192
0.000146675
0.00024122
0.000319763
0.00048088
0.000632523
0.000729159
0.000790587
0.000948563
0.0010108
0.00118579
0.00171063
0.00302912
0.00510729
0.00963414
0.0145496
0.0189568
0.026621
0.0399291
0.0573307
0.0477505
0.0649851
0.0986578
0.106863
1.6e-05
1.72228e-05
1.76142e-05
1.85131e-05
1.99299e-05
2.04063e-05
2.1597e-05
2.32861e-05
2.35318e-05
2.57173e-05
3.30617e-05
3.60769e-05
4.71561e-05
9.56358e-05
0.000156624
0.00019809
0.000232632
0.000268213
0.000303039
0.000305856
0.000322144
0.000428036
0.000475053
0.000474584
0.000608928
0.00119732
0.00257837
0.00549099
0.0113478
0.0168156
0.0199264
0.0259731
0.0365548
0.0509872
0.0714154
0.112571
0.176576
0.250784
0.000581491
0.000628178
0.000661428
0.000660176
0.000613848
0.000583979
0.000559654
0.00049938
0.000413172
0.00035353
0.000575409
0.00123485
0.00153732
0.00176898
0.00217996
0.00273483
0.00335889
0.00392424
0.00436335
0.00462057
0.00493075
0.00599433
0.00773707
0.00956419
0.010286
0.0104916
0.010498
0.0103753
0.0100469
0.00991691
0.00960188
0.00953225
0.00883583
0.00837157
0.0081922
0.016879
0.0346786
0.0858679
0.000331241
0.00056331
0.000793711
0.000885958
0.000842775
0.000816371
0.000787155
0.000749693
0.000713113
0.000708194
0.000751452
0.00106815
0.0016934
0.00229587
0.00345785
0.00432248
0.00512737
0.00611823
0.00659937
0.00744817
0.00842051
0.0101776
0.0120066
0.0132907
0.0140212
0.0144307
0.0142747
0.0140985
0.0134039
0.0130141
0.0119708
0.0116442
0.0102892
0.0104473
0.0103849
0.0292338
0.0337144
0.0512887
9.03952e-05
0.000130363
0.000180658
0.000186013
0.000195903
0.000209129
0.000213335
0.000213326
0.000217806
0.000234003
0.000270553
0.000345941
0.000421109
0.000507208
0.000648713
0.000824818
0.000976191
0.00118931
0.00133551
0.00154815
0.00178325
0.00213172
0.00254409
0.00272961
0.00275322
0.00285953
0.00281407
0.00282879
0.0027468
0.00271518
0.00252227
0.00266014
0.0024294
0.00314533
0.00344572
0.00979254
0.0257942
0.0551235
5.26748e-05
5.86252e-05
6.59266e-05
7.04062e-05
7.1978e-05
7.49712e-05
8.22317e-05
9.64979e-05
0.000106334
0.000129244
0.000138928
0.000160652
0.000171386
0.000185007
0.000199647
0.000226577
0.000247979
0.000267034
0.000279288
0.000311169
0.000337415
0.000378295
0.000422849
0.000453198
0.000478886
0.000502849
0.00053541
0.000576684
0.000599125
0.000731267
0.000819306
0.000925912
0.00113334
0.0017227
0.00272181
0.00552978
0.0161878
0.0199958
4.6696e-05
4.96289e-05
5.22944e-05
5.42496e-05
5.60315e-05
5.9959e-05
6.25487e-05
6.92749e-05
7.84339e-05
9.49315e-05
0.000117213
0.000141125
0.000146115
0.000149833
0.000163197
0.000192237
0.000202475
0.000205535
0.000211642
0.000231836
0.000243791
0.000266008
0.000279886
0.000299232
0.000321692
0.000333475
0.000392928
0.000410266
0.000457921
0.000721791
0.000731051
0.000856764
0.00111821
0.00173167
0.00226812
0.00432546
0.00875387
0.0138482
4.22025e-05
4.44941e-05
4.77541e-05
5.00289e-05
5.19585e-05
5.63878e-05
5.9115e-05
6.50381e-05
7.21753e-05
8.11147e-05
0.000102445
0.000129919
0.000136308
0.000145552
0.000170743
0.000192837
0.000196803
0.000199327
0.000207915
0.000225171
0.000247
0.00026257
0.000268801
0.000291602
0.000298128
0.000322663
0.00035188
0.000369088
0.00048626
0.000583012
0.000637502
0.000938369
0.00104294
0.0015968
0.00260493
0.00365966
0.00599085
0.0109482
3.92271e-05
4.12699e-05
4.46517e-05
4.73616e-05
4.96822e-05
5.47157e-05
5.73395e-05
6.27316e-05
6.79827e-05
7.6619e-05
8.56975e-05
0.000109265
0.000119542
0.000125216
0.000142888
0.000164671
0.000169114
0.000170013
0.000177589
0.000196886
0.000230876
0.000239428
0.000251878
0.000258507
0.000284831
0.000316735
0.000330162
0.000381559
0.000429659
0.000475223
0.00067142
0.000739211
0.000961742
0.00142165
0.00284064
0.00407692
0.00717182
0.0157011
3.67458e-05
3.85648e-05
4.17223e-05
4.4293e-05
4.63931e-05
5.12873e-05
5.38599e-05
5.90324e-05
6.41995e-05
7.31954e-05
8.0161e-05
9.73631e-05
0.000112894
0.000115185
0.00011951
0.000135194
0.000145825
0.000147929
0.000152374
0.00016126
0.000182655
0.000206654
0.00023174
0.000254617
0.000271743
0.000315786
0.000365198
0.000410734
0.000465194
0.000543887
0.00074932
0.000857757
0.00105046
0.00158547
0.00264371
0.0044331
0.00877844
0.0170436
3.38696e-05
3.52058e-05
3.82714e-05
4.02062e-05
4.22838e-05
4.64045e-05
4.92048e-05
5.3177e-05
5.89374e-05
6.85599e-05
7.40225e-05
8.80685e-05
9.89199e-05
0.000101147
0.000100818
0.000103515
0.000116131
0.000130835
0.000142829
0.000150987
0.000168601
0.00019904
0.000252623
0.000333287
0.000400821
0.000486936
0.000686539
0.000767013
0.000907747
0.000874545
0.000913084
0.00110047
0.00159049
0.0034231
0.00481305
0.00990214
0.0159953
0.0220096
2.97018e-05
3.07172e-05
3.29909e-05
3.49525e-05
3.59386e-05
3.98701e-05
4.14317e-05
4.45524e-05
5.24801e-05
5.84287e-05
6.2109e-05
6.99088e-05
7.4616e-05
7.70388e-05
8.01502e-05
8.74955e-05
0.000110469
0.000170934
0.000239218
0.000295369
0.000387907
0.000482448
0.00061149
0.000777114
0.00094708
0.00127575
0.00185789
0.0024034
0.00311252
0.00271008
0.00255093
0.00292342
0.00458185
0.0125303
0.0224956
0.0365543
0.0387855
0.0360081
2.3456e-05
2.41746e-05
2.52536e-05
2.80435e-05
2.80287e-05
3.52986e-05
3.62762e-05
4.22687e-05
5.4887e-05
5.73847e-05
6.21069e-05
6.21546e-05
6.18877e-05
7.21105e-05
0.000107661
0.0001529
0.000246321
0.00034849
0.000536636
0.000719945
0.000823875
0.000887179
0.00103843
0.00111084
0.00139448
0.00220093
0.00383165
0.00631406
0.011488
0.0165187
0.021721
0.0282741
0.0413346
0.0637852
0.0617045
0.0687044
0.0801174
0.0904542
1.65947e-05
1.75812e-05
1.81134e-05
1.90678e-05
2.07073e-05
2.10603e-05
2.33331e-05
2.33812e-05
2.5355e-05
3.51465e-05
3.76277e-05
4.01483e-05
5.16513e-05
9.51141e-05
0.000160749
0.000210324
0.000255457
0.000292367
0.000326898
0.000335983
0.000373927
0.000474598
0.000510524
0.000528332
0.000778425
0.0015734
0.00312507
0.00634797
0.0127567
0.0188269
0.0223758
0.0277143
0.0370267
0.0502194
0.0689304
0.102716
0.149902
0.19483
0.000425427
0.000489648
0.000518317
0.000536127
0.000509789
0.000478898
0.000456146
0.000408948
0.000337584
0.000311562
0.000628788
0.00130948
0.001688
0.00196217
0.00246042
0.00310151
0.00376686
0.0043797
0.00481905
0.00514296
0.00565692
0.00703156
0.00905674
0.0107967
0.0114142
0.011557
0.0115078
0.0112125
0.0106942
0.0103117
0.00968336
0.0093629
0.00844733
0.00737399
0.00808001
0.0166074
0.0343912
0.086836
0.000235817
0.000354109
0.000469788
0.000621363
0.000619039
0.000616964
0.000614153
0.000619134
0.000619975
0.000632495
0.000710148
0.00111021
0.00187646
0.00273135
0.00406944
0.00514776
0.00595768
0.00706419
0.00755799
0.00856748
0.00982671
0.0118309
0.0137658
0.0150488
0.0156903
0.0158998
0.0155355
0.0149858
0.0139282
0.0131335
0.0116985
0.0109436
0.00950494
0.00864265
0.00763535
0.0148107
0.0235915
0.0342033
7.5867e-05
0.000107048
0.000130357
0.000155344
0.000162082
0.00016775
0.000178633
0.000195132
0.000215497
0.000244633
0.000307746
0.000390877
0.000511905
0.000667593
0.000908786
0.00117663
0.00139289
0.00169004
0.00187258
0.00212601
0.0024317
0.00285627
0.00327672
0.00344297
0.00342754
0.00343866
0.00330305
0.00322029
0.00298209
0.00284412
0.0025154
0.00250493
0.00229033
0.00252296
0.00287377
0.00464618
0.0118168
0.029648
5.05792e-05
5.7075e-05
6.41626e-05
6.99182e-05
7.18317e-05
7.58156e-05
8.53709e-05
0.000102511
0.000115347
0.00013319
0.000154649
0.000189002
0.00020753
0.000232901
0.00025028
0.000278639
0.000303032
0.000334745
0.000351866
0.000390838
0.000421247
0.000464003
0.00051265
0.000533424
0.000545919
0.000568785
0.000582563
0.000619697
0.000645647
0.000736987
0.000811538
0.000926671
0.00110016
0.00166899
0.00203246
0.00368991
0.0079108
0.0138915
4.66602e-05
4.99094e-05
5.27745e-05
5.47208e-05
5.67036e-05
6.11939e-05
6.48968e-05
7.25517e-05
7.94742e-05
8.94927e-05
0.00010781
0.000123089
0.000136272
0.000142534
0.000156292
0.000180253
0.000194532
0.000200449
0.000209087
0.000229725
0.000243886
0.000264042
0.000278445
0.000294811
0.00031541
0.000330364
0.000376369
0.000404976
0.000455446
0.000628997
0.00067933
0.000826794
0.00107411
0.00145953
0.00198251
0.00349187
0.00747204
0.0102772
4.31628e-05
4.57442e-05
4.90752e-05
5.13992e-05
5.35911e-05
5.82406e-05
6.14481e-05
6.6443e-05
7.37839e-05
8.00864e-05
9.30882e-05
0.000116184
0.000126298
0.000134417
0.000155332
0.000180783
0.000191338
0.00019491
0.000206002
0.000222178
0.000245091
0.000261744
0.000269403
0.000287154
0.000296682
0.000318424
0.000349849
0.00037407
0.000474768
0.000565659
0.000631204
0.000857014
0.000991111
0.0013743
0.00213423
0.00315328
0.00582725
0.00888928
4.12121e-05
4.35623e-05
4.70784e-05
4.99363e-05
5.2632e-05
5.77613e-05
6.08181e-05
6.60443e-05
7.19168e-05
7.9845e-05
8.7848e-05
0.00010896
0.000121025
0.000126711
0.000141648
0.000162978
0.000173193
0.000175686
0.000184795
0.000201078
0.000230017
0.000240551
0.000256056
0.000264955
0.000290503
0.000314554
0.000333913
0.000380167
0.000429203
0.000480152
0.000630152
0.00073787
0.00104482
0.00150704
0.00273549
0.00385233
0.00665949
0.0103808
3.87357e-05
4.07841e-05
4.4115e-05
4.68721e-05
4.94156e-05
5.44395e-05
5.75078e-05
6.28987e-05
6.84602e-05