/*--------------------------------*- C++ -*----------------------------------*\
| =========                 |                                                 |
| \\      /  F ield         | OpenFOAM: The Open Source CFD Toolbox           |
|  \\    /   O peration     | Version:  2.3.1                                 |
|   \\  /    A nd           | Web:      www.OpenFOAM.org                      |
|    \\/     M anipulation  |                                                 |
\*---------------------------------------------------------------------------*/
FoamFile
{
    version     2.0;
    format      ascii;
    class       volScalarField;
    location    "15";
    object      k_0;
}
// * * * * * * * * * * * * * * * * * * * * * * * * * * * * * * * * * * * * * //

dimensions      [0 2 -2 0 0 0 0];

internalField   nonuniform List<scalar> 
38262
(
0.000587837
0.000640955
0.000664333
0.000665173
0.000645473
0.000626781
0.000596246
0.000555481
0.000547958
0.000575217
0.000643049
0.00067874
0.00074572
0.000794626
0.000906647
0.00109805
0.00121478
0.0012993
0.00136234
0.0013726
0.00145463
0.00172531
0.00220477
0.00262507
0.00265798
0.00258533
0.00252108
0.00254294
0.00282902
0.00311781
0.00351351
0.00396091
0.00443335
0.00608984
0.0139431
0.0200851
0.067309
0.296869
0.000487529
0.000765784
0.00083209
0.00079805
0.000770462
0.000800911
0.000858481
0.000862116
0.000830475
0.00081482
0.000837719
0.00090687
0.000928516
0.000936966
0.000999693
0.00100805
0.00107317
0.00116354
0.00134352
0.00142949
0.00149773
0.00168079
0.00191272
0.00201787
0.00200232
0.00183532
0.00178968
0.0019353
0.00256997
0.00280217
0.00338735
0.00405965
0.00453448
0.00619293
0.0211344
0.063754
0.122584
0.321361
0.000213425
0.000225928
0.000219675
0.000252625
0.000438814
0.000695428
0.000763355
0.000783992
0.000798577
0.000803331
0.000797464
0.000787988
0.000782018
0.000767327
0.000749073
0.0007256
0.000704026
0.00066712
0.000647642
0.000631211
0.00060568
0.000585635
0.000609241
0.000603965
0.00058261
0.000678184
0.00116466
0.00168638
0.00204898
0.00221691
0.00205804
0.00276644
0.00295568
0.00535507
0.00902026
0.0293767
0.0452599
0.273501
0.000126801
0.000120848
0.000107071
0.000104809
9.60738e-05
0.000112491
0.000254569
0.000590685
0.000716475
0.000751397
0.000772717
0.000777818
0.000762981
0.000741826
0.000703103
0.000667117
0.000630099
0.000577175
0.000516359
0.000510839
0.000462225
0.000448909
0.000448068
0.000470549
0.000478271
0.000492181
0.000587083
0.000598825
0.00092687
0.000858959
0.0011053
0.00126837
0.00159793
0.00360338
0.00400054
0.0103668
0.0721817
0.275462
7.00559e-05
6.8294e-05
6.12499e-05
5.69994e-05
5.07935e-05
5.19021e-05
5.54942e-05
9.36912e-05
0.000359011
0.000612134
0.000692724
0.000712717
0.000696554
0.000688637
0.000658022
0.000594577
0.000557171
0.000496725
0.00043252
0.00040854
0.000401808
0.000377565
0.000360013
0.000376125
0.000380508
0.000443507
0.000416341
0.000604972
0.000705804
0.000607144
0.00127301
0.00129537
0.00143345
0.00195351
0.00326806
0.0141463
0.0880973
0.282272
3.75972e-05
3.91401e-05
3.85678e-05
3.67758e-05
3.65619e-05
3.6553e-05
3.69658e-05
4.05521e-05
6.71607e-05
0.000153231
0.000370369
0.000502031
0.00054729
0.000533718
0.000494741
0.000412453
0.000360198
0.000304119
0.000279119
0.000278393
0.000305255
0.000292633
0.00033241
0.000302145
0.000357676
0.000392085
0.000390941
0.000454048
0.000447577
0.000452567
0.00124059
0.00107572
0.00216988
0.00256798
0.00455219
0.0119344
0.0693711
0.272415
2.18133e-05
2.42697e-05
2.57353e-05
2.60801e-05
2.80651e-05
2.9144e-05
3.16115e-05
3.32018e-05
3.81043e-05
4.47147e-05
7.34388e-05
0.000123823
0.000224251
0.000226502
0.00022999
0.000230458
0.000215762
0.000179081
0.000165958
0.00016883
0.00021797
0.000227729
0.000245572
0.00024337
0.000249675
0.000245565
0.000278064
0.000258813
0.000308128
0.000406551
0.000873653
0.00111085
0.00159161
0.00291403
0.00619421
0.0177161
0.0588876
0.214618
1.97893e-05
2.08793e-05
2.31854e-05
2.41719e-05
2.64977e-05
2.89887e-05
2.9989e-05
3.43109e-05
3.61554e-05
4.04552e-05
4.4016e-05
5.14791e-05
7.85963e-05
7.67969e-05
7.70067e-05
9.53477e-05
0.000105273
0.000105477
0.000107699
0.000113884
0.000140026
0.0001613
0.000186354
0.000191375
0.000207746
0.000209541
0.00022458
0.000242044
0.000233173
0.000267759
0.000471479
0.00152155
0.00260455
0.00770199
0.00810009
0.0241765
0.0678127
0.182898
1.87112e-05
2.06155e-05
2.15967e-05
2.31952e-05
2.55775e-05
2.70193e-05
2.83657e-05
3.24055e-05
3.36101e-05
3.69145e-05
4.23347e-05
4.34746e-05
5.13239e-05
5.75618e-05
6.08001e-05
7.06353e-05
7.53322e-05
8.9229e-05
0.000107187
0.000112788
0.000126573
0.000131478
0.000168721
0.000170822
0.000207263
0.000240528
0.00028845
0.000330225
0.000342921
0.000373644
0.000473085
0.000740267
0.00163284
0.00633133
0.0139001
0.0375197
0.102518
0.210066
1.81731e-05
1.97022e-05
2.1741e-05
2.21707e-05
2.4667e-05
2.60144e-05
2.7797e-05
2.95881e-05
3.18307e-05
3.38514e-05
3.69887e-05
4.1647e-05
5.18192e-05
5.64773e-05
6.97164e-05
7.8332e-05
9.79898e-05
0.000113739
0.000156778
0.000188092
0.000186633
0.000194177
0.000237182
0.000265262
0.000350815
0.000376544
0.000467281
0.000497153
0.000542328
0.000475945
0.00115154
0.00335554
0.00605043
0.010214
0.0237056
0.0552123
0.129098
0.256748
1.67095e-05
1.77107e-05
2.02761e-05
2.03157e-05
2.22634e-05
2.37768e-05
2.51098e-05
2.63086e-05
2.87433e-05
3.66462e-05
4.31131e-05
6.06762e-05
8.34697e-05
9.07428e-05
0.000106337
0.000116269
0.000122054
0.000138429
0.000191994
0.000238963
0.000257566
0.000281323
0.000351994
0.000380594
0.000442596
0.000407957
0.000555519
0.000792322
0.001598
0.00165223
0.0014398
0.0024105
0.00504681
0.0119373
0.0273816
0.0623166
0.135869
0.256282
1.23328e-05
1.33685e-05
1.44446e-05
1.44412e-05
1.58082e-05
1.70583e-05
1.68698e-05
1.8105e-05
2.94784e-05
7.17936e-05
7.6217e-05
7.63835e-05
8.43499e-05
9.48782e-05
0.000102877
9.50196e-05
0.000104584
0.000128415
0.00012998
0.000112414
0.000153235
0.000223243
0.000232747
0.000172422
0.000192054
0.000336936
0.000978268
0.00255406
0.00648244
0.00807623
0.00857942
0.0130094
0.0218784
0.0338448
0.0560006
0.0957519
0.155955
0.245707
0.000778993
0.000879678
0.000901891
0.000875528
0.000871418
0.000870368
0.000803863
0.000684759
0.000634427
0.00068589
0.000883009
0.000983429
0.00110842
0.00127763
0.0013701
0.00176837
0.00211766
0.00228487
0.00257077
0.00259863
0.00256913
0.00289197
0.0035062
0.00439375
0.00460679
0.00441731
0.00416764
0.00437232
0.00460957
0.00502427
0.00548786
0.00618046
0.00673669
0.00710029
0.00970041
0.0195191
0.088587
0.541449
0.000871357
0.00120719
0.00158293
0.00142311
0.00136527
0.00146477
0.0015072
0.00140412
0.00129318
0.00119695
0.00120004
0.00134439
0.00160742
0.00189027
0.00227044
0.00258437
0.00295943
0.00327148
0.00362592
0.00387084
0.00411065
0.00472464
0.00547175
0.00610981
0.00625469
0.00613545
0.0055483
0.0058989
0.00667725
0.00732749
0.00764744
0.00916767
0.00900854
0.0116629
0.0193636
0.0527529
0.19941
1.27669
0.000359743
0.000398559
0.000432635
0.000441616
0.000510799
0.000739999
0.000830521
0.000897603
0.00104473
0.00114093
0.00109208
0.0010344
0.00104938
0.00103467
0.00102094
0.00101792
0.0010135
0.000996493
0.00100965
0.000984942
0.00101862
0.00113046
0.00120848
0.00128391
0.00133478
0.00188406
0.00217429
0.00265695
0.00258311
0.00296482
0.00305305
0.00459181
0.00430142
0.00816774
0.0181722
0.0679391
0.0944552
0.33728
0.000168186
0.00016434
0.000153861
0.000145832
0.000138444
0.00015124
0.000190556
0.000361227
0.000606875
0.000805284
0.000951008
0.000986121
0.000944958
0.000900424
0.000840269
0.000829071
0.000771885
0.000717461
0.000688452
0.000593637
0.000623294
0.000594632
0.000564794
0.000555622
0.000587382
0.000622576
0.000801057
0.000858759
0.0014577
0.00113323
0.00275051
0.0022196
0.00267941
0.00591443
0.00713665
0.0100681
0.0262158
0.205057
8.02986e-05
7.88081e-05
7.08873e-05
6.78185e-05
5.72065e-05
5.75745e-05
5.78468e-05
6.87889e-05
0.00015839
0.000368639
0.000562358
0.000805014
0.000841665
0.000954148
0.000928016
0.000874997
0.000800889
0.000709908
0.000568723
0.000568743
0.000553948
0.0004899
0.000556212
0.000566584
0.000512524
0.000590217
0.000543754
0.000930752
0.000868702
0.00083124
0.00171931
0.00161115
0.00198747
0.00319422
0.00607553
0.0116327
0.0505015
0.288434
3.37075e-05
3.58288e-05
3.56072e-05
3.5818e-05
3.56635e-05
3.91755e-05
3.98988e-05
4.2506e-05
6.64543e-05
8.34485e-05
0.000180355
0.000278139
0.000412057
0.000494613
0.000480465
0.000469854
0.0004425
0.000363539
0.000274431
0.000280692
0.000273212
0.000386827
0.000387177
0.000506972
0.000417793
0.000516105
0.000532015
0.000594008
0.000751658
0.000854875
0.00189083
0.00166996
0.00342434
0.00388661
0.00640825
0.0110254
0.0469436
0.277773
2.37086e-05
2.55053e-05
2.63398e-05
2.86758e-05
2.97811e-05
3.2664e-05
3.45966e-05
4.03482e-05
4.25484e-05
4.79081e-05
6.5475e-05
7.48607e-05
0.000119765
0.000126231
0.000140802
0.000146093
0.000144098
0.000132217
0.000132367
0.000144216
0.000156119
0.000207875
0.000252542
0.000251044
0.000247584
0.000378133
0.000365959
0.000537937
0.000738152
0.00103246
0.00180656
0.0017422
0.00228054
0.00498914
0.00707283
0.0262986
0.0830685
0.281509
2.32153e-05
2.45109e-05
2.64267e-05
2.74657e-05
3.01184e-05
3.13118e-05
3.57166e-05
3.77905e-05
4.27572e-05
5.01454e-05
5.16505e-05
5.53921e-05
7.82824e-05
7.94739e-05
7.93358e-05
8.38293e-05
9.64771e-05
9.69183e-05
9.93342e-05
0.000105414
0.000115394
0.000155452
0.000167295
0.000187607
0.000199375
0.000240365
0.000266701
0.000279048
0.000339945
0.00044368
0.000622509
0.00184145
0.00414105
0.00780627
0.00835129
0.0265738
0.110244
0.31066
2.20892e-05
2.28674e-05
2.4797e-05
2.56992e-05
2.77081e-05
2.85525e-05
3.20401e-05
3.34886e-05
3.60604e-05
4.47179e-05
4.54538e-05
5.12427e-05
6.56101e-05
6.55282e-05
6.93569e-05
7.37191e-05
7.66204e-05
8.5391e-05
0.000104013
0.000118817
0.000124139
0.000146257
0.00016574
0.000202735
0.000250785
0.000370599
0.000389357
0.000505524
0.000541437
0.000717684
0.000791881
0.00110121
0.00186685
0.00617859
0.0292314
0.0485593
0.175626
0.41619
1.98202e-05
2.15073e-05
2.19803e-05
2.36094e-05
2.50778e-05
2.60005e-05
2.70776e-05
2.98184e-05
3.02288e-05
3.36583e-05
3.62533e-05
4.19759e-05
4.98605e-05
5.27588e-05
6.24376e-05
7.66942e-05
0.000102607
0.000149265
0.000247027
0.000290927
0.000313869
0.00033949
0.000433914
0.000496391
0.000670633
0.00076167
0.000963811
0.00120084
0.00126895
0.00107854
0.0016306
0.00384668
0.00642064
0.0133702
0.036143
0.0772445
0.191006
0.415137
1.59558e-05
1.79085e-05
1.7926e-05
1.92272e-05
2.01552e-05
2.0345e-05
2.11254e-05
2.24033e-05
2.54448e-05
3.10582e-05
4.53938e-05
8.42175e-05
0.000103614
0.000119338
0.00016257
0.000187902
0.000252896
0.000288584
0.000388246
0.00048271
0.000533882
0.00058602
0.000714748
0.000745114
0.000915886
0.000932491
0.00157217
0.00260602
0.00511306
0.00871331
0.00628168
0.00881239
0.0108695
0.0193967
0.0425164
0.084037
0.19942
0.406769
1.38024e-05
1.4766e-05
1.55727e-05
1.58562e-05
1.75215e-05
1.77936e-05
1.91538e-05
1.92414e-05
2.37836e-05
4.073e-05
8.98912e-05
9.54544e-05
0.000113053
0.000133969
0.000159982
0.000170154
0.000184557
0.000216229
0.000237861
0.000210542
0.000212756
0.000336252
0.000384455
0.00030977
0.00038434
0.000562371
0.00139226
0.00334456
0.00774511
0.0107872
0.0121948
0.0179541
0.0285427
0.0425682
0.0671554
0.111981
0.188567
0.310143
0.000757879
0.000862058
0.000906475
0.000894428
0.000875686
0.000872219
0.000826282
0.000696623
0.000537115
0.000499756
0.000780513
0.00115969
0.00129835
0.00149691
0.00171061
0.00211394
0.00259153
0.00293716
0.0033018
0.0034156
0.00347
0.00396577
0.00494112
0.00635574
0.00686342
0.00693629
0.00689265
0.00700254
0.00700794
0.00740785
0.00764322
0.00831314
0.00843309
0.00908209
0.0104929
0.0220971
0.0844761
0.242696
0.000846726
0.00108944
0.00147298
0.00147902
0.00137
0.0013534
0.00130686
0.00118639
0.00109171
0.00103656
0.00107558
0.00128511
0.00164466
0.00202899
0.00267302
0.00312349
0.00373377
0.00427579
0.00467919
0.00512104
0.00556178
0.00658251
0.00781925
0.00879687
0.00935347
0.00967729
0.00961331
0.00970186
0.0098988
0.0104439
0.0103112
0.0116958
0.0107288
0.0153801
0.0304774
0.0628817
0.111001
0.443306
0.000249501
0.000339272
0.000362731
0.000370407
0.000398369
0.000474771
0.000475476
0.000414389
0.000401764
0.000438728
0.00045247
0.000501821
0.00054734
0.00059701
0.00066321
0.00073654
0.000802541
0.000860925
0.000889252
0.000937012
0.00100807
0.00116775
0.00136642
0.0015017
0.00150804
0.00161683
0.00175796
0.00186365
0.00197698
0.00237314
0.00251231
0.00368696
0.00335031
0.00787605
0.0146112
0.0414673
0.0788936
0.342406
9.00779e-05
9.75518e-05
0.000104383
0.000100219
0.000101184
0.000103305
0.000117966
0.000151126
0.000184693
0.000223461
0.00025129
0.000295145
0.000297193
0.000306469
0.000324885
0.00034529
0.000348559
0.000347435
0.000342114
0.000330746
0.000350761
0.000361449
0.000378457
0.000401233
0.00042996
0.000481538
0.000568749
0.00058188
0.000642876
0.00093763
0.00125481
0.0012767
0.00152576
0.0033323
0.00438674
0.00962904
0.0313114
0.0602628
5.00914e-05
5.17985e-05
5.23283e-05
5.32155e-05
5.286e-05
5.31586e-05
5.51635e-05
5.91577e-05
7.74954e-05
0.00011681
0.000164762
0.000206003
0.000249407
0.000331332
0.000362816
0.000367461
0.00035344
0.000340574
0.000296993
0.000306674
0.000289763
0.000291893
0.000308703
0.00034313
0.000370604
0.0003738
0.000472841
0.000502769
0.00056444
0.000902153
0.00093723
0.00120231
0.0014194
0.00246849
0.00785904
0.00861415
0.0143987
0.0810452
3.56864e-05
3.73531e-05
3.93276e-05
4.10188e-05
4.26148e-05
4.67577e-05
4.84339e-05
5.41591e-05
6.53307e-05
7.67735e-05
0.0001155
0.000129537
0.000162754
0.000194237
0.000236029
0.000227904
0.000214918
0.000196882
0.000195454
0.00020453
0.000206876
0.000231724
0.000250853
0.000312788
0.000305842
0.000329874
0.000390964
0.000400768
0.000613102
0.000770053
0.000850708
0.00143424
0.00167174
0.0034266
0.00405398
0.00515671
0.0141806
0.0963925
3.07862e-05
3.22725e-05
3.45739e-05
3.68221e-05
3.85061e-05
4.24142e-05
4.45066e-05
5.04608e-05
5.31695e-05
6.14173e-05
7.58265e-05
8.13843e-05
9.91611e-05
0.000106641
0.000121698
0.000128567
0.000127691
0.000129494
0.000135997
0.000156435
0.000169318
0.000190066
0.00020612
0.000211185
0.000244653
0.000277468
0.000291377
0.00035669
0.000461643
0.000509558
0.00108757
0.00101527
0.00122492
0.00307473
0.00437762
0.00743315
0.0345762
0.149332
2.94456e-05
3.08768e-05
3.33345e-05
3.49855e-05
3.70551e-05
4.03254e-05
4.26706e-05
4.69386e-05
5.03272e-05
5.98098e-05
6.36201e-05
7.39244e-05
9.68117e-05
9.69534e-05
9.86574e-05
0.000114813
0.000116289
0.000119175
0.000120389
0.000134108
0.000145393
0.000169211
0.000183101
0.00019346
0.000221222
0.000269807
0.000297956
0.000353168
0.000415834
0.000512403
0.000879029
0.00101952
0.00151353
0.00277699
0.00400112
0.00823662
0.0461217
0.16852
2.7279e-05
2.83329e-05
3.07802e-05
3.20062e-05
3.4074e-05
3.5963e-05
3.91683e-05
4.194e-05
4.50458e-05
5.3919e-05
5.67597e-05
6.63554e-05
8.25559e-05
8.30899e-05
8.298e-05
8.64886e-05
9.11876e-05
0.000105252
0.000116152
0.000132383
0.000143044
0.000163247
0.000202828
0.000264666
0.000313066
0.000414389
0.000520162
0.000567252
0.000632393
0.000645785
0.000687958
0.000955448
0.00159641
0.00370991
0.0154643
0.0301507
0.0977735
0.212575
2.41722e-05
2.57052e-05
2.6763e-05
2.836e-05
2.95599e-05
3.12863e-05
3.29682e-05
3.49367e-05
3.71276e-05
4.31855e-05
4.63127e-05
5.21486e-05
6.17282e-05
6.3902e-05
6.7724e-05
7.81451e-05
0.000103881
0.00015712
0.000250696
0.000305848
0.000365649
0.000415163
0.000529569
0.000640229
0.000829226
0.000946707
0.00125089
0.00153424
0.00187046
0.00155651
0.00150573
0.00200954
0.0036811
0.0120209
0.0199271
0.0499217
0.106761
0.198449
1.92423e-05
2.06719e-05
2.10745e-05
2.24961e-05
2.31511e-05
2.37664e-05
2.62189e-05
2.70038e-05
2.92011e-05
3.2528e-05
3.99572e-05
5.88951e-05
7.50416e-05
9.12619e-05
0.00013158
0.00017255
0.000260904
0.000316003
0.000444339
0.00056607
0.000636459
0.00069492
0.000847501
0.000900256
0.00105203
0.00131572
0.00226372
0.00384656
0.00740976
0.0122248
0.0141694
0.0210101
0.0302239
0.0345457
0.0391428
0.0784583
0.153806
0.238839
1.50901e-05
1.63216e-05
1.68846e-05
1.74066e-05
1.90299e-05
1.93852e-05
2.04514e-05
2.10451e-05
2.21287e-05
2.57713e-05
5.2371e-05
5.58056e-05
7.02338e-05
0.000123451
0.00016322
0.000190442
0.000211969
0.000245724
0.000277318
0.000271366
0.000274663
0.000377034
0.000435405
0.000408154
0.000488072
0.000858555
0.00197135
0.00440545
0.00952154
0.0141919
0.0165655
0.0227881
0.0338895
0.0490567
0.070862
0.113868
0.186716
0.293047
0.000687679
0.000773049
0.00080243
0.000785175
0.000742459
0.000726457
0.000693856
0.000601039
0.000472554
0.000411635
0.000643724
0.00121182
0.00141701
0.0016228
0.00194927
0.00241136
0.00297238
0.00344878
0.00387303
0.00406169
0.00422225
0.00497516
0.00634775
0.00807589
0.00878918
0.00900485
0.00902999
0.00902937
0.00889105
0.00900981
0.0090115
0.00937718
0.00896791
0.00928312
0.00909647
0.0174234
0.052703
0.133981
0.000533582
0.000890725
0.00111776
0.00119702
0.00112579
0.00110361
0.00105961
0.000971677
0.000881965
0.000834064
0.000858878
0.00112845
0.00161996
0.00206557
0.00300231
0.00363013
0.00438827
0.00518024
0.00563428
0.00629702
0.00699045
0.00841841
0.0100238
0.0112349
0.0119501
0.0124939
0.0124117
0.0125166
0.0122024
0.0122242
0.0116897
0.0121604
0.0109616
0.0126916
0.0211629
0.0334619
0.0577878
0.104018
0.000127639
0.000208141
0.000265674
0.000258392
0.00027326
0.000299354
0.000294163
0.000274261
0.000258461
0.000266931
0.000296255
0.000368272
0.000420991
0.000474586
0.000560991
0.000664342
0.000764282
0.000887727
0.000965796
0.00110698
0.00126533
0.00150923
0.00185039
0.00205435
0.00205899
0.00222926
0.00225943
0.00237869
0.00240415
0.00248966
0.00251442
0.00301498
0.00274236
0.00446385
0.00537652
0.0168314
0.060709
0.125915
5.88907e-05
6.60598e-05
7.47089e-05
7.60896e-05
7.83605e-05
8.08698e-05
8.93623e-05
0.000103948
0.000108793
0.000121545
0.000130509
0.000153424
0.000163625
0.000173572
0.000192153
0.000218971
0.000236465
0.000249689
0.000257645
0.000277949
0.000299558
0.000328562
0.00036347
0.000395685
0.000417091
0.000451295
0.000502117
0.000543616
0.000584304
0.00075356
0.00090916
0.00102704
0.00123968
0.00207354
0.00334028
0.00739005
0.0139686
0.0317874
4.49078e-05
4.76746e-05
5.01802e-05
5.2309e-05
5.38611e-05
5.66837e-05
5.87154e-05
6.40715e-05
8.05042e-05
8.98369e-05
0.000105671
0.000128249
0.000136206
0.000146184
0.000173705
0.000200312
0.000210329
0.000216024
0.000218926
0.000238075
0.000244521
0.000264018
0.000275973
0.000309642
0.000318716
0.000340522
0.000423239
0.000428373
0.000489801
0.000845921
0.000811288
0.000958878
0.00121335
0.00219611
0.00316313
0.00511101
0.00986843
0.0235735
3.99342e-05
4.17278e-05
4.45652e-05
4.66733e-05
4.84719e-05
5.27592e-05
5.50264e-05
6.17243e-05
6.82693e-05
8.19878e-05
0.000111191
0.000131675
0.000137021
0.000146906
0.00017389
0.000188093
0.000189611
0.000192013
0.000197645
0.000213446
0.000231846
0.000249553
0.000256704
0.000290899
0.000295898
0.000311144
0.000356764
0.000373489
0.000509846
0.000658103
0.000694556
0.00110495
0.00121541
0.00206074
0.00282953
0.00382623
0.00699609
0.0244866
3.59086e-05
3.75993e-05
4.06453e-05
4.31026e-05
4.51074e-05
4.97276e-05
5.20404e-05
5.7605e-05
6.17845e-05
7.07953e-05
8.10764e-05
0.000102008
0.000111522
0.000118256
0.000136969
0.000153747
0.000153286
0.000153854
0.000161031
0.000181523
0.000214396
0.00022462
0.000230494
0.000236744
0.000270506
0.000297414
0.000314157
0.000376121
0.00042359
0.000471764
0.000810971
0.000808488
0.000993274
0.00163873
0.00256611
0.00411442
0.0127671
0.0502791
3.37664e-05
3.53652e-05
3.8234e-05
4.04727e-05
4.23359e-05
4.6758e-05
4.89778e-05
5.38386e-05
5.80181e-05
6.7428e-05
7.30328e-05
8.84665e-05
0.000107068
0.000107803
0.000110958
0.000128731
0.00013373
0.000135138
0.000137856
0.000147994
0.000171553
0.000190167
0.000209394
0.000225957
0.00024636
0.000297906
0.000333841
0.000394412
0.000434075
0.000517944
0.000866004
0.000877071
0.00104732
0.00189136
0.00282688
0.0048288
0.0162501
0.055837
3.11267e-05
3.2312e-05
3.51248e-05
3.67552e-05
3.86669e-05
4.20755e-05
4.46753e-05
4.82696e-05
5.29554e-05
6.22242e-05
6.64628e-05
7.87747e-05
9.24637e-05
9.39556e-05
9.2952e-05
9.57911e-05
0.000105254
0.000119874
0.000131479
0.000140558
0.0001582
0.00018211
0.000229501
0.000307741
0.000360762
0.000442773
0.000615821
0.000666122
0.000754682
0.000738832
0.000788222
0.00102199
0.00160594
0.00318553
0.0056033
0.0148675
0.0373728
0.0655894
2.74074e-05
2.85349e-05
3.04494e-05
3.21905e-05
3.31293e-05
3.61757e-05
3.76007e-05
3.98251e-05
4.60873e-05
5.15611e-05
5.60949e-05
6.20641e-05
6.71576e-05
7.02692e-05
7.35386e-05
8.09451e-05
0.000103115
0.000157233
0.00024064
0.000297073
0.000380199
0.000455514
0.000576513
0.000723859
0.000895788
0.00109694
0.00152986
0.00194343
0.00246743
0.0021117
0.00191225
0.00247023
0.00439461
0.0164192
0.0163842
0.0363539
0.052192
0.0685419
2.17553e-05
2.27311e-05
2.35139e-05
2.56674e-05
2.5862e-05
2.85317e-05
3.07204e-05
3.21424e-05
4.14671e-05
4.33692e-05
5.17304e-05
5.22523e-05
5.57792e-05
6.88774e-05
0.000103362
0.000146943
0.000241669
0.00032036
0.000481608
0.00063317
0.00072986
0.000791289
0.000949251
0.00101146
0.00118547
0.00170643
0.0030183
0.00507531
0.00954854
0.0144789
0.018876
0.0264561
0.0395472
0.0569505
0.0476142
0.0653018
0.0994147
0.107273
1.60007e-05
1.72226e-05
1.76137e-05
1.85138e-05
1.99286e-05
2.04051e-05
2.15967e-05
2.32839e-05
2.35286e-05
2.57146e-05
3.30604e-05
3.60806e-05
4.72351e-05
9.59321e-05
0.000156874
0.000198328
0.000232866
0.000268468
0.000303277
0.000306065
0.000322405
0.000428434
0.000475404
0.000474765
0.000607476
0.00118893
0.00254417
0.00538955
0.0112212
0.0168063
0.0199621
0.0258753
0.0362934
0.0505198
0.070362
0.110583
0.173437
0.24626
0.00058166
0.000628453
0.000662033
0.000660975
0.000614685
0.000584766
0.00056048
0.00050016
0.000413806
0.000353836
0.000574157
0.00123461
0.00153852
0.00176972
0.00218005
0.00273472
0.0033598
0.00392786
0.00437058
0.0046301
0.00493897
0.00599991
0.00774455
0.00959459
0.0103348
0.0105488
0.0105587
0.0104379
0.0101083
0.00997729
0.00965896
0.00958652
0.00888234
0.0084061
0.00822238
0.0169253
0.0345206
0.0863113
0.000330879
0.000562475
0.000793807
0.000887013
0.000843796
0.000817373
0.000788234
0.000750674
0.000713884
0.000708725
0.000751511
0.00106749
0.00169274
0.00229564
0.00345753
0.00432619
0.00513056
0.00612706
0.00661086
0.0074618
0.00843569
0.0101962
0.0120366
0.0133374
0.0140868
0.0145045
0.014354
0.0141782
0.0134794
0.0130866
0.0120339
0.0117061
0.0103377
0.0105004
0.0103699
0.0295051
0.0339631
0.0517693
9.03635e-05
0.000130163
0.000180517
0.000185993
0.000195927
0.000209229
0.000213537
0.000213479
0.000217905
0.000234075
0.000270544
0.000345878
0.00042132
0.000507225
0.000648593
0.000825159
0.000976706
0.00119032
0.00133728
0.00155038
0.00178619
0.00213555
0.00255024
0.00273819
0.00276477
0.00287294
0.00282709
0.00284137
0.00275847
0.00272585
0.00252982
0.00266716
0.00243457
0.00314914
0.00344632
0.00981853
0.025895
0.0556306
5.26783e-05
5.86245e-05
6.59134e-05
7.04007e-05
7.19764e-05
7.49679e-05
8.22241e-05
9.64434e-05
0.000106304
0.00012925
0.000138923
0.00016065
0.000171371
0.000185003
0.000199701
0.000226667
0.000248055
0.00026708
0.000279376
0.00031137
0.000337669
0.00037861
0.000423269
0.000453753
0.000479546
0.000503686
0.000536328
0.00057763
0.000599983
0.000732208
0.000819581
0.000926663
0.00113561
0.00172682
0.00273075
0.00551389
0.0161366
0.0198116
4.66964e-05
4.96309e-05
5.22957e-05
5.42475e-05
5.60292e-05
5.99529e-05
6.25395e-05
6.92493e-05
7.83723e-05
9.48576e-05
0.000117199
0.000141114
0.000146078
0.000149823
0.000163318
0.000192378
0.000202535
0.000205578
0.000211702
0.000231956
0.000243902
0.00026612
0.000279981
0.000299335
0.000321791
0.00033364
0.000393132
0.000410386
0.000458196
0.000721878
0.000730549
0.000857768
0.00112033
0.00173515
0.00227312
0.00432917
0.00876249
0.0137969
4.22012e-05
4.44928e-05
4.77532e-05
5.00266e-05
5.19581e-05
5.63856e-05
5.91076e-05
6.50243e-05
7.21527e-05
8.10907e-05
0.000102415
0.000129842
0.000136239
0.000145555
0.00017088
0.000192906
0.000196824
0.000199357
0.000208005
0.000225317
0.00024712
0.000262643
0.00026889
0.000291706
0.000298241
0.000322799
0.000351787
0.000369031
0.000486056
0.000581699
0.000637123
0.000939343
0.00104414
0.00160158
0.00261448
0.00366474
0.00600424
0.0109948
3.92258e-05
4.12689e-05
4.46514e-05
4.73585e-05
4.96805e-05
5.47131e-05
5.73346e-05
6.27242e-05
6.79692e-05
7.66017e-05
8.56871e-05
0.000109254
0.000119484
0.000125194
0.000142954
0.000164701
0.000169093
0.000170015
0.000177658
0.000197077
0.000231028
0.000239525
0.00025192
0.00025855
0.000285006
0.000316781
0.00033017
0.000381728
0.000429486
0.000475108
0.000670964
0.000738329
0.000961275
0.00142109
0.00284337
0.00407791
0.00720131
0.0157178
3.67445e-05
3.85637e-05
4.17217e-05
4.42894e-05
4.63914e-05
5.12849e-05
5.38547e-05
5.90267e-05
6.41916e-05
7.31803e-05
8.01566e-05
9.73898e-05
0.000112869
0.000115154
0.000119506
0.00013525
0.000145836
0.000147933
0.000152383
0.000161305
0.000182751
0.000206724
0.000231788
0.000254552
0.000271711
0.000315895
0.000364963
0.000410474
0.000464626
0.00054297
0.000747957
0.000859102
0.00105097
0.0015871
0.00264406
0.00444722
0.008807
0.0170914
3.38681e-05
3.52047e-05
3.82711e-05
4.02026e-05
4.22824e-05
4.64013e-05
4.91986e-05
5.31747e-05
5.89327e-05
6.8548e-05
7.40259e-05
8.81025e-05
9.89179e-05
0.000101118
0.000100796
0.00010352
0.000116186
0.000130864
0.000142803
0.000150949
0.000168556
0.000199008
0.000252632
0.000333059
0.00040029
0.000486135
0.000685162
0.000764914
0.000906166
0.000873158
0.000911173
0.00109944
0.00159138
0.00342578
0.00480417
0.00996977
0.0160113
0.0220015
2.97007e-05
3.07164e-05
3.29913e-05
3.49488e-05
3.59354e-05
3.98675e-05
4.1426e-05
4.45501e-05
5.24795e-05
5.8406e-05
6.21058e-05
6.99144e-05
7.46151e-05
7.7037e-05
8.01551e-05
8.75275e-05
0.000110584
0.000171235
0.000239355
0.000295363
0.000387879
0.00048245
0.000611355
0.000776896
0.000946233
0.00127287
0.00185257
0.00239396
0.00310757
0.00270919
0.00255149
0.00290845
0.00452963
0.0123408
0.0223989
0.0366012
0.0387013
0.0357826
2.34554e-05
2.41737e-05
2.52551e-05
2.80387e-05
2.80226e-05
3.5288e-05
3.62605e-05
4.22746e-05
5.48608e-05
5.7352e-05
6.20932e-05
6.21239e-05
6.18895e-05
7.21773e-05
0.000107838
0.000153171
0.000246814
0.000349209
0.000537428
0.000720698
0.000824679
0.000887968
0.00103924
0.00111141
0.0013932
0.00219516
0.00381843
0.00627639
0.0113923
0.0164457
0.0216512
0.0281137
0.0409975
0.063374
0.0611397
0.0681925
0.0794678
0.0888272
1.65949e-05
1.75811e-05
1.81129e-05
1.90688e-05
2.07053e-05
2.10584e-05
2.33303e-05
2.3379e-05
2.5349e-05
3.51631e-05
3.76184e-05
4.01414e-05
5.17097e-05
9.53871e-05
0.000161016
0.000210592
0.000255728
0.000292645
0.00032716
0.000336236
0.000374269
0.000475038
0.000510914
0.000528357
0.000776033
0.00156314
0.00308621
0.00623487
0.0126143
0.0188087
0.022429
0.0276676
0.0368319
0.0497509
0.067827
0.100375
0.145622
0.187045
0.000425124
0.000489798
0.00051866
0.000536657
0.000510437
0.000479538
0.000456786
0.00040956
0.000338036
0.000311527
0.000627429
0.00130905
0.00168914
0.00196284
0.00246025
0.00310149
0.00376821
0.00438398
0.00482708
0.0051525
0.00566448
0.00703677
0.00906725
0.0108348
0.0114689
0.0116178
0.0115722
0.011278
0.0107574
0.0103715
0.00973852
0.00941393
0.00848931
0.00740309
0.00811018
0.0166129
0.0342006
0.0868288
0.000235496
0.000353748
0.000469534
0.000621803
0.000619677
0.000617621
0.000614847
0.000619763
0.000620478
0.00063296
0.000709978
0.00110927
0.00187539
0.00273063
0.00406888
0.00515218
0.00596201
0.00707422
0.00757067
0.00858121
0.0098423
0.0118511
0.0138009
0.0151029
0.015763
0.0159809
0.0156206
0.0150682
0.0140037
0.013203
0.0117563
0.0109968
0.00954636
0.00866473
0.00764715
0.0148593
0.0237098
0.0346182
7.58297e-05
0.000107002
0.000130235
0.00015531
0.000162081
0.000167783
0.000178703
0.000195176
0.000215487
0.000244599
0.000307606
0.000390751
0.000511915
0.000667477
0.000908711
0.0011771
0.00139376
0.00169162
0.00187511
0.00212885
0.00243535
0.00286097
0.00328452
0.00345422
0.00344225
0.00345476
0.00331853
0.00323452
0.00299406
0.00285439
0.00252228
0.00251055
0.00229404
0.0025245
0.00287068
0.00465149
0.0119231
0.0296547
5.05836e-05
5.70789e-05
6.41556e-05
6.99082e-05
7.18255e-05
7.58092e-05
8.53653e-05
0.000102483
0.000115298
0.000133147
0.00015457
0.000188938
0.000207482
0.000232898
0.000250293
0.000278732
0.000303161
0.000334862
0.000352049
0.00039113
0.000421573
0.000464411
0.000513222
0.000534154
0.000546886
0.000569986
0.000583733
0.00062084
0.00064659
0.000737728
0.000811874
0.000927078
0.00110154
0.0016716
0.00203581
0.0036874
0.00793961
0.0137851
4.66603e-05
4.99111e-05
5.27763e-05
5.47196e-05
5.67025e-05
6.11898e-05
6.48898e-05
7.25327e-05
7.94348e-05
8.94619e-05
0.000107795
0.000123074
0.000136244
0.000142527
0.000156376
0.000180364
0.000194593
0.00020049
0.000209157
0.000229848
0.000243992
0.000264141
0.000278524
0.000294902
0.000315491
0.00033052
0.000376546
0.00040503
0.000455605
0.000628787
0.000678764
0.000827318
0.00107506
0.00146185
0.00198718
0.00349807
0.00747874
0.0102803
4.31622e-05
4.57436e-05
4.9075e-05
5.1398e-05
5.3592e-05
5.82398e-05
6.14407e-05
6.64329e-05
7.37685e-05
8.00685e-05
9.30767e-05
0.000116152
0.000126249
0.000134411
0.000155437
0.000180868
0.000191357
0.000194935
0.000206086
0.000222312
0.000245221
0.000261829
0.00026949
0.000287244
0.000296785
0.000318524
0.000349776
0.000373969
0.000474493
0.000564567
0.000630781
0.00085726
0.000991739
0.00137743
0.00213908
0.00316267
0.00584546
0.0089056
4.12109e-05
4.35613e-05
4.70781e-05
4.99335e-05
5.26309e-05
5.77583e-05
6.08119e-05
6.60379e-05
7.19055e-05
7.98273e-05
8.78429e-05
0.000108967
0.000120983
0.000126689
0.000141697
0.000163027
0.00017319
0.000175694
0.000184855
0.000201219
0.000230155
0.000240651
0.000256114
0.000265015
0.000290623
0.000314607
0.000333914
0.000380236
0.000429059
0.000479987
0.000629762
0.000737067
0.00104382
0.0015073
0.00273762
0.0038587
0.00667824
0.0103939
3.87344e-05
4.0783e-05
4.41142e-05
4.68686e-05
4.94141e-05
5.44361e-05
5.75008e-05
6.28926e-05