/*--------------------------------*- C++ -*----------------------------------*\
| =========                 |                                                 |
| \\      /  F ield         | OpenFOAM: The Open Source CFD Toolbox           |
|  \\    /   O peration     | Version:  2.3.1                                 |
|   \\  /    A nd           | Web:      www.OpenFOAM.org                      |
|    \\/     M anipulation  |                                                 |
\*---------------------------------------------------------------------------*/
FoamFile
{
    version     2.0;
    format      ascii;
    class       volScalarField;
    location    "15";
    object      nut;
}
// * * * * * * * * * * * * * * * * * * * * * * * * * * * * * * * * * * * * * //

dimensions      [0 2 -1 0 0 0 0];

internalField   nonuniform List<scalar> 
38262
(
3.05786e-05
3.19255e-05
3.24863e-05
3.24961e-05
3.20006e-05
3.15363e-05
3.07451e-05
2.96957e-05
2.95015e-05
3.02451e-05
3.19603e-05
3.28429e-05
3.44375e-05
3.55689e-05
3.80398e-05
4.18459e-05
4.39256e-05
4.5394e-05
4.64308e-05
4.65954e-05
4.80003e-05
5.23353e-05
5.91952e-05
6.4201e-05
6.44901e-05
6.35272e-05
6.27341e-05
6.30396e-05
6.65173e-05
6.97516e-05
7.39797e-05
7.85106e-05
8.30104e-05
9.69878e-05
0.000144958
0.000169521
0.000341544
0.0008142
2.79936e-05
3.49674e-05
3.63406e-05
3.55653e-05
3.49716e-05
3.56988e-05
3.69339e-05
3.69978e-05
3.63153e-05
3.59861e-05
3.65156e-05
3.79782e-05
3.83986e-05
3.85963e-05
3.9872e-05
4.00252e-05
4.1312e-05
4.3003e-05
4.6202e-05
4.76675e-05
4.87662e-05
5.15891e-05
5.50028e-05
5.64939e-05
5.61667e-05
5.37378e-05
5.32197e-05
5.52997e-05
6.37165e-05
6.64634e-05
7.28181e-05
7.97779e-05
8.38888e-05
0.0001013
0.000200704
0.000333321
0.000445544
0.00069025
1.84728e-05
1.90202e-05
1.87247e-05
2.01126e-05
2.66121e-05
3.33066e-05
3.48292e-05
3.52852e-05
3.56023e-05
3.57032e-05
3.55733e-05
3.53555e-05
3.52192e-05
3.48944e-05
3.4478e-05
3.39416e-05
3.34436e-05
3.25542e-05
3.20662e-05
3.16637e-05
3.10337e-05
3.05073e-05
3.10887e-05
3.0952e-05
3.04167e-05
3.28846e-05
4.32394e-05
5.16932e-05
5.67432e-05
5.90356e-05
5.68816e-05
6.58476e-05
6.78348e-05
9.07379e-05
0.000128832
0.000249815
0.000281406
0.000655451
1.42296e-05
1.38984e-05
1.30827e-05
1.29394e-05
1.23793e-05
1.34604e-05
2.03501e-05
3.07248e-05
3.37263e-05
3.45203e-05
3.50004e-05
3.51092e-05
3.47778e-05
3.4297e-05
3.33937e-05
3.2534e-05
3.16306e-05
3.02858e-05
2.86294e-05
2.84796e-05
2.71173e-05
2.67132e-05
2.66763e-05
2.73431e-05
2.75862e-05
2.79883e-05
3.06292e-05
3.08707e-05
3.8372e-05
3.69875e-05
4.18631e-05
4.4813e-05
5.00894e-05
7.46072e-05
8.11388e-05
0.000136413
0.000340892
0.000644357
1.05785e-05
1.04456e-05
9.89191e-06
9.54347e-06
9.00721e-06
9.10665e-06
9.43392e-06
1.23241e-05
2.4058e-05
3.121e-05
3.31471e-05
3.36172e-05
3.32367e-05
3.30502e-05
3.23221e-05
3.07312e-05
2.97514e-05
2.81009e-05
2.62122e-05
2.54806e-05
2.5268e-05
2.4508e-05
2.39243e-05
2.44394e-05
2.45803e-05
2.65837e-05
2.57731e-05
3.09262e-05
3.36028e-05
3.11638e-05
4.48515e-05
4.53054e-05
4.77728e-05
5.57561e-05
7.13633e-05
0.00016204
0.000400533
0.000656754
7.75071e-06
7.90804e-06
7.85001e-06
7.66466e-06
7.64132e-06
7.64093e-06
7.68394e-06
8.05301e-06
1.04031e-05
1.57402e-05
2.43624e-05
2.82874e-05
2.94946e-05
2.91262e-05
2.80461e-05
2.56097e-05
2.39316e-05
2.19857e-05
2.10418e-05
2.10065e-05
2.20104e-05
2.15506e-05
2.2984e-05
2.19169e-05
2.38036e-05
2.50043e-05
2.49718e-05
2.69113e-05
2.68121e-05
2.68566e-05
4.44534e-05
4.13735e-05
5.8649e-05
6.31422e-05
8.2705e-05
0.000141262
0.00037531
0.000662224
5.90179e-06
6.22485e-06
6.41101e-06
6.45314e-06
6.69287e-06
6.82052e-06
7.1032e-06
7.27956e-06
7.80119e-06
8.46278e-06
1.08642e-05
1.40862e-05
1.89492e-05
1.90391e-05
1.91568e-05
1.91601e-05
1.85447e-05
1.68971e-05
1.62439e-05
1.63542e-05
1.85647e-05
1.89991e-05
1.97515e-05
1.96726e-05
1.99239e-05
1.97628e-05
2.10756e-05
2.03554e-05
2.2227e-05
2.54782e-05
3.75815e-05
4.21276e-05
5.02717e-05
6.828e-05
9.61325e-05
0.000163225
0.000323844
0.000638689
5.61976e-06
5.77237e-06
6.08319e-06
6.21122e-06
6.50194e-06
6.80288e-06
6.91849e-06
7.39882e-06
7.59622e-06
8.03496e-06
8.38231e-06
9.06477e-06
1.12188e-05
1.10949e-05
1.10952e-05
1.23078e-05
1.29582e-05
1.29719e-05
1.31093e-05
1.34781e-05
1.48982e-05
1.5987e-05
1.7207e-05
1.74441e-05
1.8191e-05
1.82842e-05
1.892e-05
1.96737e-05
1.93037e-05
2.06987e-05
2.74868e-05
4.89614e-05
6.34722e-05
0.000108777
0.000110051
0.000183438
0.000314584
0.000540381
5.46428e-06
5.73554e-06
5.87088e-06
6.08344e-06
6.38875e-06
6.56795e-06
6.72788e-06
7.19094e-06
7.32465e-06
7.67294e-06
8.22334e-06
8.33156e-06
9.04757e-06
9.58832e-06
9.85111e-06
1.06156e-05
1.09625e-05
1.19146e-05
1.3078e-05
1.34235e-05
1.42151e-05
1.44722e-05
1.63917e-05
1.65073e-05
1.8171e-05
1.96265e-05
2.14881e-05
2.30072e-05
2.34408e-05
2.44725e-05
2.7642e-05
3.4455e-05
5.0234e-05
9.74103e-05
0.000141138
0.000229873
0.000373143
0.000532635
5.38523e-06
5.60643e-06
5.89099e-06
5.9487e-06
6.27337e-06
6.44349e-06
6.66064e-06
6.87153e-06
7.12822e-06
7.34966e-06
7.6845e-06
8.14551e-06
9.09199e-06
9.49224e-06
1.05416e-05
1.11725e-05
1.24923e-05
1.34521e-05
1.57814e-05
1.73405e-05
1.7275e-05
1.76124e-05
1.94521e-05
2.05781e-05
2.36694e-05
2.45103e-05
2.73308e-05
2.82146e-05
2.94504e-05
2.77912e-05
4.35459e-05
7.33548e-05
9.74136e-05
0.000125473
0.000190829
0.000289763
0.000439514
0.000605558
5.16389e-06
5.31542e-06
5.68909e-06
5.69484e-06
5.95943e-06
6.16043e-06
6.33029e-06
6.48022e-06
6.77027e-06
7.63809e-06
8.284e-06
9.81379e-06
1.15271e-05
1.20211e-05
1.30093e-05
1.36065e-05
1.3938e-05
1.48363e-05
1.74643e-05
1.94919e-05
2.0237e-05
2.11477e-05
2.366e-05
2.45805e-05
2.65385e-05
2.55183e-05
2.99378e-05
3.62885e-05
5.11444e-05
5.12281e-05
4.83313e-05
6.24619e-05
8.82611e-05
0.000132022
0.000199872
0.00029937
0.000441759
0.000605027
4.43653e-06
4.61758e-06
4.80192e-06
4.801e-06
5.02117e-06
5.21896e-06
5.18888e-06
5.37536e-06
6.834e-06
1.06731e-05
1.10072e-05
1.10188e-05
1.15799e-05
1.22809e-05
1.27945e-05
1.23006e-05
1.2898e-05
1.4294e-05
1.43861e-05
1.33799e-05
1.56182e-05
1.88451e-05
1.92443e-05
1.65529e-05
1.75253e-05
2.35629e-05
4.07972e-05
6.7471e-05
0.000103501
0.000112061
0.000115786
0.000145304
0.000187866
0.000233146
0.000300538
0.000388229
0.000490638
0.00060897
7.04696e-05
7.48242e-05
7.567e-05
7.45628e-05
7.43953e-05
7.43242e-05
7.13685e-05
6.58869e-05
6.3487e-05
6.60941e-05
7.49949e-05
7.90146e-05
8.40127e-05
9.02009e-05
9.34931e-05
0.000106351
0.000116165
0.000120589
0.000127654
0.000128204
0.000127452
0.000135422
0.000149417
0.000166436
0.000170049
0.000166132
0.000161209
0.000165121
0.000169655
0.000177062
0.000184913
0.000196122
0.000204864
0.000210917
0.000246793
0.000351075
0.000740138
0.00201541
7.84888e-05
7.29434e-05
9.53272e-05
0.000105972
0.000106044
0.000110647
0.000112207
0.000110414
0.000115064
0.000121327
0.000122129
0.000126924
0.000138799
0.000155245
0.000179808
0.000195141
0.000208947
0.000222539
0.000233776
0.000239811
0.000247353
0.000268805
0.000291109
0.000300305
0.000287242
0.000276179
0.000249199
0.000255264
0.000298502
0.000303687
0.0003229
0.000355446
0.000355745
0.000352123
0.000317893
0.000428097
0.000889775
0.00200331
5.05679e-05
4.83999e-05
4.94547e-05
4.54129e-05
4.19534e-05
4.28734e-05
4.69379e-05
5.45429e-05
7.01195e-05
8.46098e-05
9.015e-05
0.000100347
0.0001065
0.000110359
0.000111308
0.000111321
0.000109488
0.000105946
0.000104603
0.000100659
0.000101823
0.000106924
0.000107941
0.000110532
0.000104703
0.000118528
0.000130828
0.000133602
0.000154596
0.000161408
0.000164286
0.000204401
0.000200659
0.000293625
0.000390122
0.000698754
0.000600942
0.0015236
3.57217e-05
3.54968e-05
3.22367e-05
3.1466e-05
2.89966e-05
2.76076e-05
2.33558e-05
2.45395e-05
3.4292e-05
4.91547e-05
6.8286e-05
7.75056e-05
8.05093e-05
8.30935e-05
8.3745e-05
8.37332e-05
8.24723e-05
7.84281e-05
7.48829e-05
7.24256e-05
7.29082e-05
7.29636e-05
7.04594e-05
8.1745e-05
7.70679e-05
9.13823e-05
9.35386e-05
9.68421e-05
0.000131595
9.75428e-05
0.000128532
0.000130883
0.000138017
0.000190169
0.000208416
0.000167219
0.000274852
0.000781338
1.97984e-05
2.04908e-05
2.06558e-05
2.07196e-05
1.99864e-05
1.96101e-05
1.86213e-05
1.60384e-05
1.52258e-05
2.39217e-05
3.50094e-05
5.06333e-05
5.9345e-05
7.33106e-05
7.39181e-05
7.35996e-05
7.08752e-05
6.63136e-05
5.77734e-05
5.77355e-05
5.84512e-05
5.77908e-05
6.38962e-05
6.62089e-05
6.17072e-05
8.52936e-05
6.24705e-05
0.000103289
0.000116938
8.02766e-05
0.000152767
0.000155919
0.000170702
0.000172371
0.000291654
0.000241712
0.000343831
0.00100331
1.20193e-05
1.37402e-05
1.46862e-05
1.71087e-05
2.12302e-05
2.39425e-05
2.66345e-05
2.45331e-05
2.68956e-05
1.72248e-05
1.67409e-05
2.06577e-05
2.84407e-05
3.29791e-05
3.34971e-05
3.53308e-05
3.62544e-05
3.43587e-05
2.84935e-05
3.06353e-05
3.21856e-05
4.39918e-05
4.97793e-05
5.86316e-05
6.13897e-05
6.93954e-05
9.30304e-05
0.000111657
0.000112443
0.000129596
0.000181083
0.000131102
0.000246503
0.000133293
0.000170962
0.000203185
0.000360717
0.000998125
1.7738e-05
1.95384e-05
2.10305e-05
2.49302e-05
2.73191e-05
2.98698e-05
3.28363e-05
3.60507e-05
3.3745e-05
3.04778e-05
2.83579e-05
1.81933e-05
1.65755e-05
1.77285e-05
1.77185e-05
1.85868e-05
2.09801e-05
2.53659e-05
2.37883e-05
2.43776e-05
2.19751e-05
2.7076e-05
3.55042e-05
4.4709e-05
3.79945e-05
4.78695e-05
5.87114e-05
7.28368e-05
8.08579e-05
9.77783e-05
0.000142823
0.000162032
0.000187207
0.000190943
0.000133881
0.000296496
0.000621288
0.0011319
2.71035e-05
2.84842e-05
2.98186e-05
3.0711e-05
3.49828e-05
3.21392e-05
3.86304e-05
3.899e-05
3.73671e-05
4.45184e-05
4.37977e-05
3.5325e-05
2.99783e-05
3.82016e-05
3.767e-05
2.75736e-05
3.19439e-05
3.55367e-05
3.69845e-05
3.48937e-05
2.48367e-05
2.46188e-05
2.85228e-05
3.66756e-05
3.93903e-05
4.25967e-05
5.3603e-05
4.9362e-05
5.92537e-05
8.27651e-05
5.32046e-05
9.18304e-05
0.00013822
0.000206529
0.000172271
0.00029895
0.000747674
0.00130457
2.70047e-05
2.7943e-05
2.90932e-05
2.97081e-05
3.25843e-05
3.04196e-05
3.46175e-05
3.54311e-05
2.9648e-05
4.16011e-05
4.10163e-05
3.34657e-05
4.23312e-05
4.11252e-05
4.26489e-05
4.23174e-05
2.75608e-05
2.81834e-05
2.59361e-05
3.17405e-05
2.96887e-05
3.45719e-05
3.37553e-05
3.22703e-05
4.44936e-05
7.83483e-05
5.76034e-05
7.66024e-05
7.93907e-05
0.000102295
9.86771e-05
9.09913e-05
8.79642e-05
0.000107734
0.000340237
0.000427006
0.000984057
0.00163263
2.39359e-05
2.67387e-05
2.56496e-05
2.64514e-05
2.84806e-05
2.70827e-05
2.79768e-05
3.1445e-05
2.40615e-05
2.79125e-05
2.8057e-05
2.45631e-05
2.54634e-05
2.39161e-05
2.2646e-05
2.18617e-05
2.22339e-05
2.77848e-05
4.71582e-05
5.98669e-05
5.94185e-05
6.43461e-05
7.39274e-05
8.419e-05
0.000105976
0.000114622
0.000113833
0.000141725
0.000132434
9.49602e-05
0.000106385
0.000179733
0.000239663
0.000243011
0.000418597
0.000698063
0.00110766
0.00165211
1.65509e-05
2.00472e-05
1.74214e-05
1.81754e-05
1.99049e-05
1.76268e-05
1.85529e-05
1.92672e-05
1.66883e-05
1.74844e-05
1.87861e-05
2.5349e-05
2.8737e-05
2.94613e-05
3.42936e-05
3.60141e-05
4.29096e-05
5.10406e-05
7.12538e-05
9.05396e-05
9.26475e-05
9.48635e-05
0.000107555
0.000111588
0.000126226
0.000113425
0.000139164
0.000184776
0.000271114
0.000354305
0.000258026
0.000311351
0.000280825
0.000242412
0.000412303
0.000575806
0.00104381
0.00160051
9.38594e-06
9.70697e-06
9.9708e-06
1.00601e-05
1.05745e-05
1.06572e-05
1.10575e-05
1.1084e-05
1.23034e-05
1.60619e-05
2.38762e-05
2.46279e-05
2.67884e-05
2.9178e-05
3.18902e-05
3.29015e-05
3.42668e-05
3.70873e-05
3.89114e-05
3.6619e-05
3.67933e-05
4.62429e-05
4.9467e-05
4.44201e-05
4.9576e-05
6.07613e-05
9.71597e-05
0.000152607
0.000227332
0.000261417
0.000278226
0.000343258
0.000431677
0.000525469
0.000663635
0.000852635
0.00109569
0.00139223
6.94994e-05
7.40952e-05
7.59057e-05
7.53521e-05
7.45694e-05
7.44098e-05
7.23722e-05
6.64114e-05
5.83571e-05
5.64046e-05
7.07071e-05
8.58941e-05
9.08935e-05
9.76446e-05
0.000104443
0.000116213
0.000128548
0.00013672
0.000144666
0.000147004
0.000148163
0.000158649
0.000177403
0.000200292
0.000207412
0.000208161
0.000207248
0.000208822
0.00020889
0.000214766
0.000218061
0.000227483
0.000229392
0.000238684
0.000258738
0.000371632
0.000727034
0.00129116
9.81241e-05
8.54228e-05
9.92374e-05
0.000111911
0.000117658
0.000121042
0.000119828
0.000116588
0.00011677
0.000117412
0.000120177
0.000128162
0.000152745
0.000177749
0.000215591
0.000240213
0.000265324
0.000284426
0.000295464
0.000307649
0.000322421
0.000357365
0.000392214
0.000412278
0.000409638
0.000407314
0.000396891
0.000390085
0.000401153
0.000417692
0.000424364
0.000462502
0.000454051
0.000525401
0.000635941
0.000756886
0.00107639
0.00119148
5.11107e-05
5.3903e-05
5.06015e-05
4.87767e-05
4.66656e-05
4.63654e-05
4.35063e-05
4.14309e-05
4.19556e-05
4.61023e-05
5.17423e-05
6.50052e-05
7.41801e-05
8.08823e-05
8.74353e-05
9.28284e-05
9.69927e-05
9.96635e-05
9.86953e-05
9.92642e-05
0.000102658
0.000111177
0.000119034
0.000122778
0.000117071
0.000116663
0.000123497
0.000121252
0.000127448
0.000145787
0.00015666
0.000203561
0.000200724
0.000312435
0.000435857
0.000465364
0.000968439
0.00208737
3.00341e-05
3.14281e-05
3.11127e-05
3.1491e-05
3.20335e-05
3.13171e-05
2.90058e-05
2.16651e-05
1.90403e-05
2.03387e-05
2.38755e-05
3.18404e-05
3.43673e-05
3.84523e-05
4.3951e-05
4.93166e-05
5.29648e-05
5.61434e-05
5.70051e-05
6.13155e-05
6.5447e-05
6.9382e-05
7.24096e-05
7.74869e-05
8.10552e-05
8.80552e-05
9.51321e-05
9.80312e-05
0.000105809
0.000122812
0.000127478
0.000137542
0.000151469
0.000159535
0.00020496
0.000193358
0.000521029
0.000543419
2.19928e-05
2.42258e-05
2.6637e-05
2.93509e-05
3.24283e-05
3.44459e-05
3.54514e-05
3.32532e-05
2.22272e-05
1.59792e-05
1.56385e-05
2.03537e-05
2.57901e-05
3.47795e-05
3.98819e-05
4.17658e-05
4.45633e-05
4.5945e-05
4.80972e-05
5.17574e-05
5.81825e-05
6.45328e-05
7.11144e-05
8.34249e-05
9.60516e-05
0.000110859
0.000108572
0.000131282
0.000155195
0.00012181
0.000156045
0.000167851
0.000184194
0.000208377
0.00046844
0.000311358
0.000223726
0.000510968
3.07986e-05
3.35199e-05
3.74759e-05
4.236e-05
4.88238e-05
5.69108e-05
6.07902e-05
6.59405e-05
6.75948e-05
5.47213e-05
3.64804e-05
2.60568e-05
2.23962e-05
2.37696e-05
2.87351e-05
2.80998e-05
2.88111e-05
3.71039e-05
4.42801e-05
5.5348e-05
6.12992e-05
6.84697e-05
7.78216e-05
9.1085e-05
0.000101338
0.000104316
0.000136346
0.000146952
0.000187601
0.000224394
0.000192678
0.000199082
0.000215048
0.000153752
0.000198685
0.000213903
0.000210887
0.000619688
5.01041e-05
5.2511e-05
5.65713e-05
6.18893e-05
6.64989e-05
7.41168e-05
7.82053e-05
8.53061e-05
8.53929e-05
8.82356e-05
9.02654e-05
6.79735e-05
5.2817e-05
5.55101e-05
4.93288e-05
5.13272e-05
5.7391e-05
6.91152e-05
6.98005e-05
7.97543e-05
6.83131e-05
7.09312e-05
7.14726e-05
7.89932e-05
7.7187e-05
8.9868e-05
0.000101226
0.000119157
0.000132787
0.000135869
0.000170004
0.000183223
0.000195888
0.000242631
0.000131963
0.000147632
0.000377743
0.000895406
6.34426e-05
6.64217e-05
7.0318e-05
7.26574e-05
7.83926e-05
8.14398e-05
8.63503e-05
9.30391e-05
9.23865e-05
0.000101013
0.000103975
0.000102814
0.000100968
0.000106588
0.000105839
0.000101224
9.49788e-05
9.43843e-05
8.86206e-05
9.11281e-05
6.92634e-05
6.3295e-05
6.65161e-05
6.8899e-05
7.70873e-05
8.5193e-05
8.80082e-05
9.62772e-05
0.000113457
0.000133609
0.000117842
0.000115659
0.000117777
0.000150501
0.000109148
0.000160807
0.000454714
0.00101938
6.10176e-05
6.36373e-05
6.74396e-05
6.91177e-05
7.4525e-05
7.36659e-05
8.02958e-05
8.51537e-05
8.24655e-05
9.41331e-05
9.64782e-05
9.58478e-05
0.000101851
9.85657e-05
9.44569e-05
9.03822e-05
7.29761e-05
6.02097e-05
4.27454e-05
4.95951e-05
4.92296e-05
5.28628e-05
5.69113e-05
6.18998e-05
7.1314e-05
9.38299e-05
9.20225e-05
0.000101795
0.000108549
0.000117744
0.000118217
0.000136477
0.000148332
9.39545e-05
0.000234108
0.000397984
0.000828303
0.00123107
5.19841e-05
5.66155e-05
5.62591e-05
5.90709e-05
6.1657e-05
6.2049e-05
6.4772e-05
6.79519e-05
6.62564e-05
6.78369e-05
6.83238e-05
6.63003e-05
5.83114e-05
5.26169e-05
4.60841e-05
3.8448e-05
3.2603e-05
3.53906e-05
5.45557e-05
6.96947e-05
7.87653e-05
8.78858e-05
0.00010421
0.000119495
0.000146755
0.000151183
0.000158308
0.000185133
0.000191701
0.000144174
0.000123809
0.000134362
0.000178679
0.000293496
0.0003264
0.000634153
0.000934788
0.00119472
3.33406e-05
3.69614e-05
3.50436e-05
3.68272e-05
3.81672e-05
3.75334e-05
3.94833e-05
3.8391e-05
3.62294e-05
3.28965e-05
3.11873e-05
3.18585e-05
2.9812e-05
3.03595e-05
3.80946e-05
3.85756e-05
4.91713e-05
6.0502e-05
8.72347e-05
0.000116687
0.000117809
0.000121825
0.00013558
0.000140604
0.000154069
0.000155222
0.000185573
0.000246204
0.00035256
0.000484557
0.000554417
0.000729574
0.000833004
0.000618522
0.000473972
0.000703766
0.00108434
0.00133022
9.8138e-06
1.02058e-05
1.03818e-05
1.05401e-05
1.10207e-05
1.11238e-05
1.14255e-05
1.15917e-05
1.18831e-05
1.28126e-05
1.82486e-05
1.88553e-05
2.10708e-05
2.79582e-05
3.21959e-05
3.47939e-05
3.6716e-05
3.95306e-05
4.20091e-05
4.15661e-05
4.18063e-05
4.89642e-05
5.26402e-05
5.09921e-05
5.59628e-05
7.5096e-05
0.000115387
0.000174403
0.000252257
0.000300924
0.000324466
0.000385948
0.00047242
0.000568548
0.000690533
0.000875373
0.00110254
0.0013716
6.61829e-05
7.01681e-05
7.14153e-05
7.06013e-05
6.86571e-05
6.79086e-05
6.63328e-05
6.17179e-05
5.47342e-05
5.11823e-05
6.43581e-05
8.7889e-05
9.49365e-05
0.000101681
0.000111503
0.00012408
0.000137678
0.000148122
0.000156695
0.000160312
0.000163513
0.000177781
0.000200963
0.000225739
0.000234684
0.000237133
0.000237217
0.000237135
0.000235263
0.000236834
0.000236838
0.000241717
0.000236705
0.000241208
0.000239151
0.000331931
0.000584009
0.000927476
7.81799e-05
0.000103732
0.000102326
0.000106648
0.000109273
0.0001131
0.000112823
0.000111129
0.000110432
0.000113585
0.000116426
0.000122002
0.000150605
0.00018126
0.000234914
0.000266521
0.000299152
0.000325532
0.000338291
0.000358544
0.000381701
0.00042696
0.000468453
0.000491419
0.000494399
0.000500034
0.000488951
0.00048184
0.000478621
0.000482372
0.000481776
0.000502773
0.000499499
0.000543812
0.00064241
0.000668253
0.000891452
0.000755758
3.32749e-05
4.66534e-05
4.69699e-05
4.60969e-05
4.56515e-05
4.45912e-05
4.20386e-05
4.14385e-05
4.29751e-05
4.53446e-05
5.21069e-05
6.81915e-05
7.39684e-05
7.735e-05
8.22487e-05
8.74447e-05
9.36912e-05
9.95138e-05
0.000100991
0.000108
0.000116183
0.000129284
0.000144675
0.000150166
0.000143
0.000143117
0.000141673
0.000141843
0.000142507
0.000148057
0.000156451
0.000182334
0.000190241
0.000242549
0.000285497
0.000326457
0.0011713
0.0013847
3.34566e-05
3.55192e-05
3.41502e-05
3.41654e-05
3.60564e-05
3.69759e-05
3.83029e-05
3.72611e-05
3.67521e-05
3.41324e-05
3.51023e-05
4.02109e-05
4.40039e-05
4.56903e-05
4.99086e-05
5.6347e-05
6.13762e-05
6.34294e-05
6.53416e-05
7.00949e-05
7.39468e-05
7.81998e-05
7.78127e-05
8.00347e-05
8.31329e-05
8.15262e-05
9.3604e-05
9.56762e-05
0.000101021
0.000120341
0.000140991
0.000147162
0.00017517
0.000188734
0.000274302
0.000204858
0.000516566
0.00056003
3.80167e-05
4.20651e-05
4.56004e-05
4.80425e-05
5.03964e-05
5.48284e-05
5.66299e-05
5.82991e-05
6.27707e-05
4.58025e-05
3.01414e-05
4.14741e-05
4.25983e-05
3.8796e-05
4.23848e-05
5.33393e-05
6.15379e-05
7.13387e-05
8.49247e-05
9.81962e-05
0.000110169
0.000122262
0.000127818
0.000139393
0.00014524
0.00015701
0.000170784
0.000173288
0.000186234
0.000196782
0.000211581
0.000195049
0.000224055
0.000304464
0.00034811
0.000332275
0.000349183
0.000306955
6.21268e-05
6.50199e-05
6.99859e-05
7.44861e-05
7.88422e-05
8.73709e-05
9.04952e-05
9.69305e-05
9.98265e-05
0.000103074
9.78157e-05
9.56415e-05
7.34164e-05
7.07841e-05
6.79216e-05
7.64101e-05
8.25968e-05
0.000102736
0.000114023
0.000132759
0.000146391
0.000154208
0.000155838
0.000165056
0.000166443
0.000167936
0.000180437
0.000187798
0.0002238
0.00024776
0.000230635
0.000240892
0.000255516
0.000240255
0.000322574
0.000352165
0.000264104
0.000297167
8.39297e-05
8.72394e-05
9.22967e-05
9.69473e-05
0.000101702
0.000110294
0.000113975
0.000120929
0.000123926
0.00013148
0.00013549
0.000140877
0.000132967
0.000134264
0.000129949
0.000134904
0.000137672
0.000143125
0.000144783
0.000157433
0.00015856
0.000155391
0.000139588
0.00013999
0.000136618
0.000148327
0.000152819
0.000165772
0.000175355
0.000184088
0.00021345
0.000216511
0.000239257
0.000275308
0.000182895
0.000212606
0.000241386
0.000492476
9.42804e-05
9.82236e-05
0.000103718
0.000107291
0.000112171
0.000119527
0.000123436
0.000131193
0.00013489
0.00014532
0.000150367
0.000160526
0.000165167
0.000165358
0.000163751
0.000166937
0.000154538
0.000141977
0.000130551
0.000125776
0.000115722
0.00011524
0.000111273
0.000105227
0.000106783
0.000114399
0.000109571
0.000120108
0.000128984
0.000150021
0.000165402
0.000175655
0.000187708
0.000233211
0.000167364
0.000205212
0.000289897
0.000544282
8.86433e-05
9.19158e-05
9.76126e-05
0.000100505
0.00010527
0.000109465
0.000114667
0.000121293
0.000124741
0.000135149
0.000138359
0.000147056
0.000147406
0.000139322
0.000130998
0.000121371
0.000109249
8.3705e-05
6.1975e-05
6.178e-05
6.23118e-05
6.53489e-05
7.14161e-05
7.96815e-05
8.76617e-05
9.86879e-05
0.000112451
0.000116698
0.000123027
0.000130882
0.000141424
0.000170347
0.000203742
0.000169223
0.000151737
0.000264716
0.000485353
0.000613894
7.2787e-05
7.63097e-05
7.93387e-05
8.30132e-05
8.48359e-05
8.89543e-05
9.12036e-05
9.41212e-05
0.000104902
9.48634e-05
9.84821e-05
0.000100834
8.47085e-05
7.39201e-05
6.43329e-05
5.23033e-05
4.21132e-05
4.13595e-05
5.77477e-05
7.14415e-05
8.54595e-05
9.86967e-05
0.000116514
0.000135304
0.000161663
0.000165447
0.000180367
0.000215186
0.000227943
0.000181082
0.000143139
0.000154329
0.000213244
0.000538827
0.000410897
0.000632482
0.000718074
0.000708351
4.36627e-05
4.6253e-05
4.55374e-05
5.00313e-05
4.92934e-05
5.18394e-05
5.2839e-05
5.12783e-05
5.81012e-05
4.81048e-05
4.65104e-05
4.32647e-05
3.37006e-05
2.7609e-05
3.53632e-05
3.86062e-05
4.89634e-05
6.31712e-05
9.82917e-05
0.000128311
0.000130286
0.000135575
0.000150814
0.000155395
0.000163428
0.000177684
0.000224961
0.000294241
0.000408213
0.00054494
0.000665875
0.000853282
0.00103529
0.0010442
0.000740781
0.00080081
0.000936593
0.0009066
1.01048e-05
1.04848e-05
1.06034e-05
1.08695e-05
1.12795e-05
1.14135e-05
1.17409e-05
1.21928e-05
1.22578e-05
1.28138e-05
1.45274e-05
1.51721e-05
1.73051e-05
2.45919e-05
3.15417e-05
3.54933e-05
3.84748e-05
4.13162e-05
4.39272e-05
4.41378e-05
4.52891e-05
5.21953e-05
5.5003e-05
5.50054e-05
6.25656e-05
8.83462e-05
0.000130878
0.000192517
0.000273694
0.000327878
0.000355667
0.000409464
0.000488251
0.000578398
0.000690357
0.000870597
0.00109056
0.00130019
6.08947e-05
6.3278e-05
6.48847e-05
6.47946e-05
6.24655e-05
6.09282e-05
5.96342e-05
5.63242e-05
5.12346e-05
4.74403e-05
6.08001e-05
8.88037e-05
9.89391e-05
0.00010619
0.000117949
0.000132126
0.000146359
0.000158042
0.000166467
0.000171199
0.000176957
0.000195327
0.000221899
0.000245898
0.000254411
0.000256669
0.000256623
0.000255022
0.000250923
0.000249305
0.000245366
0.000244566
0.000235614
0.000229731
0.000227406
0.000326879
0.000473698
0.000734611
5.56608e-05
8.74215e-05
9.99484e-05
0.00010318
0.000101515
0.000103007
0.000104607
0.000106881
0.000110293
0.00011672
0.000116513
0.000119422
0.000151285
0.000190753
0.000254737
0.000298206
0.000334317
0.000367226
0.000381914
0.000408644
0.000439647
0.000490214
0.00053223
0.000554424
0.000560142
0.000564689
0.000550649
0.000541515
0.000528184
0.000522399
0.000509041
0.000515895
0.000512908
0.000549511
0.000483942
0.000715228
0.000677541
0.000839066
3.0819e-05
3.8248e-05
4.40037e-05
4.47554e-05
4.53035e-05
4.59444e-05
4.52305e-05
4.65746e-05
5.1209e-05
5.58545e-05
6.28429e-05
7.5474e-05
7.98535e-05
8.42989e-05
9.01179e-05
9.91825e-05
0.000109527
0.000121554
0.000127698
0.00013902
0.000150284
0.00016756
0.000183666
0.000185503
0.000175947
0.00017322
0.000166723
0.000163492
0.00015946
0.000160652
0.000160567
0.000173447
0.000185644
0.000234385
0.00028818
0.000431123
0.00079491
0.00113902
4.4279e-05
4.34035e-05
4.05661e-05
3.78788e-05
3.95794e-05
4.13295e-05
4.38253e-05
4.7148e-05
4.95385e-05
5.51865e-05
5.69276e-05
6.17365e-05
6.46989e-05
6.47431e-05
6.53687e-05
6.90821e-05
7.26885e-05
7.25586e-05
7.20653e-05
7.40549e-05
7.50398e-05
7.70814e-05
7.6827e-05
7.65283e-05
7.99102e-05
7.59279e-05
8.35555e-05
8.83394e-05
9.16995e-05
0.000115264
0.000132061
0.000147485
0.000187996
0.00024852
0.000366294
0.000407096
0.000984283
0.000712904
6.21064e-05
6.49117e-05
6.53301e-05
6.20272e-05
6.21446e-05
6.71053e-05
6.84884e-05
7.05534e-05
7.403e-05
7.86451e-05
7.52861e-05
8.77058e-05
8.95964e-05
8.66492e-05
8.45175e-05
0.000100347
0.000110096
0.000115854
0.000123345
0.000138917
0.000145609
0.000155477
0.000158761
0.000162142
0.000170069
0.000171014
0.00018313
0.000179973
0.000182723
0.000228853
0.00021622
0.000203779
0.000250809
0.000339145
0.000388072
0.00047152
0.000622478
0.00045823
9.03323e-05
9.38254e-05
9.70038e-05
9.7056e-05
9.86971e-05
0.000104863
0.000106452
0.000108889
0.000111611
0.000114987
0.000123149
0.000138871
0.000135494
0.000136304
0.000137137
0.000147811
0.0001558
0.000168437
0.000179713
0.000198414
0.000203865
0.000210339
0.000205229
0.00020836
0.000202197
0.000201879
0.000196457
0.00019669
0.000218577
0.00022464
0.000219841
0.000240385
0.000262447
0.00032108
0.000478367
0.000515985
0.000492661
0.000371114
0.00011084
0.000115222
0.00012002
0.000122933
0.000126945
0.000134348
0.000136949
0.000141651
0.000143739
0.000151247
0.000157114
0.00017299
0.000177763
0.000180397
0.000187985
0.000194641
0.000194555
0.000193077
0.000190324
0.000201532
0.000206429
0.000200172
0.000185815
0.000181511
0.000174808
0.000179255
0.000174772
0.000177468
0.00018386
0.000190965
0.000210617
0.000219335
0.000252715
0.000311517
0.000411769
0.000417622
0.000338739
0.000338734
0.00011726
0.000122058
0.000128051
0.000131966
0.000136793
0.000144942
0.000148887
0.000156286
0.000160818
0.000171775
0.000177765
0.000192308
0.000199633
0.000198081
0.000195514
0.000198124
0.000183016
0.000168713
0.000151236
0.000147288
0.000139078
0.000146778
0.000137602
0.000128632
0.000123926
0.00012764
0.00011653
0.000127282
0.000133135
0.000154551
0.000191309
0.00021276
0.000235532
0.000282022
0.000290313
0.000297002
0.000358168
0.000364935
0.000108221
0.000111914
0.000118531
0.000122285
0.000126998
0.000133674
0.00013899
0.000145285
0.000153018
0.000160091
0.000162671
0.000174419
0.000172126
0.000158939
0.000146508
0.000130728
0.000119582
8.78957e-05
7.34818e-05
7.16644e-05
7.02859e-05
7.47829e-05
7.98535e-05
9.05853e-05
9.93623e-05
0.000105535
0.000120212
0.000126524
0.000135645
0.000142146
0.000154217
0.000180737
0.000220017
0.000320104
0.000221831
0.000230432
0.000373117
0.000479917
8.67002e-05
8.96446e-05
9.41391e-05
9.85966e-05
0.000100323
0.000106467
0.000108773
0.000111875
0.000126417
0.000109886
0.000107357
0.00010686
9.37154e-05
7.86224e-05
6.56735e-05
5.22959e-05
4.47986e-05
4.69442e-05
6.07217e-05
7.22898e-05
8.80299e-05
0.000104273
0.000123678
0.000147191
0.000163384
0.000177016
0.000198885
0.0002399
0.000260527
0.000212818
0.000175243
0.000174283
0.000223736
0.00045232
0.000635012
0.000731915
0.000727608
0.000696194
5.00759e-05
5.15948e-05
5.20638e-05
5.79437e-05
5.55525e-05
6.47671e-05
6.28142e-05
6.08763e-05
7.91383e-05
5.77422e-05
4.67325e-05
4.27226e-05
3.5891e-05
3.05751e-05
3.57649e-05
3.82037e-05
4.87671e-05
6.92511e-05
0.000111281
0.000135683
0.000140394
0.000146992
0.000163128
0.000166881
0.00017611
0.000200497
0.000261626
0.000335534
0.000449013
0.00058097
0.000712384
0.000885153
0.0010935
0.00126289
0.00101978
0.000949322
0.000957514
0.00114381
1.02914e-05
1.05932e-05
1.07526e-05
1.10309e-05
1.1498e-05
1.15954e-05
1.22056e-05
1.22178e-05
1.27258e-05
1.49669e-05
1.55029e-05
1.60119e-05
1.8126e-05
2.45331e-05
3.19514e-05
3.6569e-05
4.0315e-05
4.31363e-05
4.56226e-05
4.62556e-05
4.87859e-05
5.49611e-05
5.70174e-05
5.80657e-05
7.08126e-05
0.0001012
0.000143906
0.000206788
0.000290187
0.00034715
0.000376562
0.000421645
0.000489995
0.000574168
0.00067954
0.000838177
0.00102158
0.00118547
5.21643e-05
5.5878e-05
5.74598e-05
5.84101e-05
5.69332e-05
5.51758e-05
5.38438e-05
5.09749e-05
4.63251e-05
4.46008e-05
6.35564e-05
9.14671e-05
0.000103692
0.000111852
0.000125327
0.000140698
0.000154972
0.000166949
0.000174941
0.000180675
0.000189634
0.000211612
0.000240009
0.000261127
0.000267982
0.000269461
0.000268753
0.000265185
0.00025896
0.00025433
0.000246496
0.000242472
0.000230477
0.000215666
0.000225827
0.00032541
0.000472432
0.000744562
4.60985e-05
6.55709e-05
8.25811e-05
9.84102e-05
9.75058e-05
9.90954e-05
0.000103547
0.000108306
0.000114582
0.00011884
0.000116017
0.000118967
0.000155819
0.00020914
0.000280335
0.000335347
0.000373147
0.000409258
0.000424905
0.000456111
0.000493128
0.000545329
0.000584243
0.000604883
0.000610791
0.000610525
0.000594049
0.00057898
0.000558619
0.000543012
0.000525292
0.000527816
0.000508957
0.000541147
0.000438791
0.000536973
0.000626395
0.000698433
3.37817e-05
3.60568e-05
4.12153e-05
4.7779e-05
4.88597e-05
5.00084e-05
5.29015e-05
5.62663e-05
6.1549e-05
6.86119e-05
8.42068e-05
8.91326e-05
9.43884e-05
9.68566e-05
0.000107622
0.000125637
0.000141714
0.000159243
0.000166992
0.000179419
0.00019245
0.000210912
0.000223535
0.000220719
0.000208351
0.000200111
0.000189786
0.000184444
0.000173992
0.00017119
0.00016681
0.000175349
0.000188371
0.000239751
0.000288959
0.00037438
0.000632889
0.00112449
5.20828e-05
4.61812e-05
4.1796e-05
3.89418e-05
4.01891e-05
4.22485e-05
4.60753e-05
5.04573e-05
5.48342e-05
5.92093e-05
6.52556e-05
7.38824e-05
7.79217e-05
7.78544e-05
7.39518e-05
7.1847e-05
7.25519e-05
7.23735e-05
7.12028e-05
7.38459e-05
7.46771e-05
7.63499e-05
7.72208e-05
7.64073e-05
7.68878e-05
7.57969e-05
7.98251e-05
8.56482e-05
9.11528e-05
0.00011051
0.000127079
0.000150798
0.000193322
0.000288348
0.000350619
0.000461755
0.000784135
0.000901903
8.19708e-05
7.93106e-05
7.18822e-05
6.42989e-05
6.36357e-05
6.80774e-05
6.73113e-05
6.60801e-05
6.6501e-05
7.0406e-05
7.5963e-05
8.07973e-05
9.00243e-05
8.90363e-05
9.26349e-05
0.000105091
0.000115011
0.000119524
0.000126232
0.00013934
0.000145403
0.000152499
0.000154562