/*--------------------------------*- C++ -*----------------------------------*\
| =========                 |                                                 |
| \\      /  F ield         | OpenFOAM: The Open Source CFD Toolbox           |
|  \\    /   O peration     | Version:  2.3.1                                 |
|   \\  /    A nd           | Web:      www.OpenFOAM.org                      |
|    \\/     M anipulation  |                                                 |
\*---------------------------------------------------------------------------*/
FoamFile
{
    version     2.0;
    format      ascii;
    class       volScalarField;
    location    "15";
    object      p;
}
// * * * * * * * * * * * * * * * * * * * * * * * * * * * * * * * * * * * * * //

dimensions      [0 2 -2 0 0 0 0];

internalField   nonuniform List<scalar> 
38262
(
0.806809
0.806222
0.805616
0.805749
0.805923
0.805778
0.805826
0.805924
0.805732
0.805065
0.803322
0.801194
0.799859
0.798616
0.797555
0.796584
0.795851
0.79628
0.797176
0.798396
0.799623
0.798374
0.797066
0.796625
0.799889
0.80574
0.811501
0.815233
0.818831
0.818554
0.820991
0.813589
0.818941
0.756414
0.676547
0.576387
0.458835
0.0354839
0.808658
0.807219
0.805048
0.804816
0.805339
0.805016
0.804763
0.804958
0.804817
0.803942
0.802305
0.800505
0.800302
0.799775
0.79874
0.797751
0.796496
0.796146
0.796924
0.798083
0.798942
0.79738
0.79466
0.792574
0.796325
0.802685
0.806647
0.809914
0.813477
0.815666
0.819446
0.819886
0.847739
0.866578
0.874144
0.524047
0.697371
1.12669
0.80701
0.80664
0.806919
0.807077
0.806354
0.804984
0.804058
0.803581
0.803675
0.803541
0.802842
0.802215
0.801328
0.800286
0.799215
0.798359
0.797931
0.79794
0.798165
0.798695
0.798678
0.798453
0.79832
0.80017
0.800855
0.801023
0.801618
0.804832
0.810157
0.811787
0.813644
0.818761
0.829495
0.852497
0.963547
0.857702
0.68172
0.586999
0.80708
0.806827
0.806292
0.80599
0.806417
0.807249
0.806836
0.804362
0.802482
0.801869
0.801583
0.800878
0.800479
0.800134
0.799691
0.799188
0.798885
0.79882
0.798639
0.798698
0.798869
0.7982
0.797128
0.796619
0.795941
0.797971
0.801621
0.806175
0.807125
0.810015
0.813069
0.819147
0.827864
0.841416
0.894589
0.896922
0.656636
1.05908
0.807011
0.806813
0.806695
0.806614
0.806489
0.806223
0.806152
0.806617
0.805191
0.802964
0.801477
0.800871
0.800563
0.800251
0.799949
0.799633
0.799405
0.799364
0.799401
0.799154
0.799227
0.799159
0.7989
0.798868
0.799444
0.799446
0.799737
0.798442
0.800693
0.801855
0.803029
0.810329
0.816793
0.845506
0.891556
0.906367
0.864854
0.825112
0.80699
0.806809
0.806608
0.806407
0.8063
0.806218
0.806016
0.805708
0.805291
0.80503
0.803837
0.802089
0.801173
0.800693
0.800335
0.800091
0.799902
0.800101
0.799998
0.799853
0.799566
0.799302
0.798911
0.798334
0.79698
0.796841
0.797192
0.799406
0.801019
0.803227
0.804759
0.814822
0.819446
0.83226
0.858078
0.968956
1.02528
0.877359
0.807073
0.806915
0.806765
0.806602
0.806429
0.806206
0.805914
0.805697
0.80525
0.804761
0.804272
0.803656
0.80268
0.802042
0.801742
0.801079
0.800628
0.800857
0.800926
0.800853
0.80049
0.800225
0.799646
0.799678
0.798642
0.795918
0.794082
0.79
0.784666
0.782641
0.780042
0.790191
0.802369
0.822203
0.857187
0.92566
1.02641
1.0656
0.807021
0.806872
0.806709
0.806531
0.806332
0.806141
0.805858
0.805569
0.805173
0.804758
0.804263
0.803701
0.803055
0.802459
0.802306
0.801949
0.801567
0.801538
0.801591
0.80172
0.801613
0.801026
0.800597
0.799702
0.798641
0.79684
0.793665
0.792453
0.790705
0.792649
0.796783
0.792222
0.798303
0.789361
0.839031
0.891809
0.959711
1.17109
0.807064
0.806913
0.806779
0.806592
0.806407
0.806178
0.805906
0.805603
0.805248
0.804801
0.804311
0.803928
0.803443
0.803053
0.802711
0.802515
0.802388
0.802224
0.802275
0.802226
0.802328
0.802209
0.801845
0.800936
0.798873
0.794898
0.786768
0.773904
0.758595
0.74652
0.750814
0.768248
0.77346
0.749288
0.723454
0.760114
0.81366
0.955144
0.807037
0.806885
0.806755
0.806561
0.806375
0.806158
0.805906
0.805644
0.805312
0.804902
0.80442
0.804035
0.803695
0.803396
0.803159
0.80303
0.802935
0.802751
0.802687
0.80281
0.803082
0.8033
0.803249
0.802737
0.801148
0.797742
0.791975
0.78526
0.784191
0.778386
0.777752
0.767915
0.756945
0.768911
0.764834
0.793157
0.888277
1.06381
0.807054
0.806893
0.806775
0.806572
0.806405
0.806186
0.805931
0.805703
0.805299
0.804707
0.804336
0.804126
0.80382
0.803533
0.80336
0.803344
0.803253
0.803081
0.803094
0.803464
0.80379
0.804122
0.804473
0.804517
0.802967
0.798147
0.783183
0.756706
0.705814
0.697929
0.750796
0.766154
0.696723
0.620834
0.620267
0.646723
0.843854
1.15944
0.807052
0.8069
0.806772
0.806568
0.806405
0.806213
0.805952
0.805936
0.805472
0.804882
0.804362
0.803927
0.803897
0.803722
0.803525
0.803422
0.80334
0.803348
0.80345
0.803812
0.804011
0.804621
0.805664
0.806336
0.807892
0.806694
0.799939
0.783167
0.755998
0.750088
0.805175
0.845423
0.805175
0.781583
0.856454
1.08114
1.54855
2.07589
0.696405
0.695846
0.695262
0.69524
0.695363
0.695134
0.69512
0.695353
0.695252
0.694712
0.693031
0.69078
0.689384
0.68826
0.68713
0.68625
0.685675
0.686057
0.686929
0.688088
0.689157
0.688053
0.686864
0.686632
0.690215
0.696089
0.700954
0.704433
0.70734
0.70783
0.709329
0.70381
0.70698
0.645419
0.591662
0.392433
0.262431
2.00429
0.697978
0.696576
0.694311
0.694327
0.695011
0.694619
0.694325
0.694576
0.69447
0.69348
0.691204
0.688672
0.68929
0.689127
0.687888
0.687182
0.686245
0.685784
0.686509
0.687563
0.68824
0.686664
0.683781
0.681834
0.684899
0.690774
0.693931
0.697857
0.700382
0.702557
0.705693
0.706129
0.722473
0.697838
0.682801
0.208698
0.234152
-0.00720324
0.696679
0.696165
0.696195
0.696522
0.695852
0.694264
0.692916
0.692858
0.69343
0.693216
0.692175
0.691339
0.690521
0.689565
0.688524
0.687733
0.687345
0.687357
0.687611
0.68808
0.688139
0.68785
0.687497
0.688605
0.689622
0.688464
0.689176
0.693314
0.697075
0.700612
0.700965
0.706346
0.713402
0.719295
0.77175
0.520517
0.727987
0.349686
0.696665
0.696414
0.695939
0.695671
0.695877
0.696177
0.69589
0.693219
0.691145
0.691576
0.691275
0.690413
0.689933
0.689535
0.689081
0.68858
0.688305
0.688249
0.688196
0.687992
0.688365
0.687651
0.686771
0.686054
0.686021
0.687629
0.689801
0.694152
0.696223
0.696869
0.700354
0.709503
0.712659
0.715974
0.76177
0.614993
0.463492
0.49666
0.696631
0.696445
0.696319
0.696232
0.696083
0.695825
0.695565
0.695643
0.694262
0.691785
0.69049
0.69031
0.690078
0.68973
0.68941
0.689092
0.688863
0.688855
0.688979
0.688723
0.6887
0.688762
0.688496
0.688312
0.688376
0.688217
0.688111
0.687915
0.688291
0.687706
0.691655
0.698771
0.705212
0.725386
0.745795
0.713344
0.505404
0.236971
0.696625
0.69645
0.696251
0.696052
0.695922
0.695803
0.695556
0.69517
0.694579
0.694243
0.692976
0.691364
0.690556
0.690156
0.689796
0.689685
0.689542
0.689655
0.689536
0.689474
0.689153
0.689022
0.688588
0.688079
0.686501
0.686378
0.686672
0.687915
0.689082
0.690677
0.694336
0.701318
0.707338
0.711509
0.729003
0.765338
0.775109
0.366969
0.696711
0.696555
0.696407
0.696242
0.69606
0.69584
0.695537
0.695271
0.694823
0.69425
0.693677
0.693097
0.692277
0.691695
0.691309
0.69069
0.69039
0.690536
0.690642
0.690422
0.689961
0.689808
0.68928
0.68892
0.688291
0.685761
0.683725
0.678682
0.674514
0.67271
0.668799
0.679615
0.687817
0.707755
0.721381
0.771275
0.834931
0.787865
0.696656
0.696508
0.696346
0.696169
0.695961
0.695774
0.695477
0.695186
0.694769
0.694326
0.693788
0.693215
0.692675
0.692071
0.691851
0.691588
0.691272
0.691197
0.691177
0.691232
0.69123
0.690733
0.690255
0.689306
0.688175
0.68609
0.683048
0.682086
0.680093
0.681328
0.682152
0.679846
0.680974
0.681397
0.712502
0.75567
0.807401
0.966131
0.696703
0.69655
0.696417
0.696228
0.69604
0.695814
0.695538
0.69523
0.694881
0.694423
0.693927
0.693541
0.693066
0.692679
0.692336
0.692146
0.692045
0.691861
0.691898
0.691822
0.692003
0.691889
0.691639
0.69063
0.688473
0.684323
0.676438
0.663594
0.648205
0.640416
0.645361
0.658045
0.665018
0.616678
0.610332
0.636567
0.67496
0.794672
0.696678
0.696521
0.696392
0.696199
0.69601
0.695794
0.695539
0.695266
0.694934
0.694536
0.694056
0.693648
0.693307
0.693023
0.692795
0.692666
0.692566
0.692419
0.692311
0.692459
0.69276
0.692923
0.692929
0.692359
0.690852
0.68736
0.681392
0.674841
0.671276
0.664506
0.659229
0.653939
0.654944
0.665189
0.645508
0.649562
0.704611
0.833077
0.696693
0.696527
0.696416
0.696211
0.696038
0.695815
0.695572
0.695307
0.694988
0.694477
0.693996
0.69367
0.693393
0.693131
0.692961
0.692941
0.692883
0.692723
0.692713
0.693076
0.693435
0.693765
0.694103
0.694121
0.692698
0.687925
0.673439
0.647168
0.594748
0.581909
0.631832
0.643111
0.576459
0.487386
0.463109
0.430422
0.480192
0.660859
0.696689
0.696533
0.696411
0.696209
0.696028
0.695833
0.695561
0.695515
0.694951
0.694625
0.694044
0.693424
0.693458
0.693356
0.693138
0.693043
0.692948
0.692946
0.693015
0.693426
0.693611
0.694169
0.695254
0.696168
0.697658
0.696579
0.689619
0.671919
0.644319
0.642322
0.69837
0.741074
0.704229
0.647361
0.691999
0.817475
1.08185
1.38757
0.586063
0.585628
0.585065
0.584909
0.585008
0.584863
0.584749
0.584807
0.584619
0.584373
0.583045
0.580399
0.578788
0.577916
0.576604
0.575878
0.575385
0.575655
0.576582
0.57754
0.578336
0.577324
0.576168
0.576178
0.579861
0.585681
0.590366
0.593876
0.59672
0.597464
0.598723
0.595059
0.596765
0.559289
0.550395
0.34727
0.346556
0.764602
0.587116
0.586374
0.584507
0.58411
0.584691
0.584516
0.584253
0.584295
0.584059
0.583308
0.58156
0.578058
0.578294
0.578856
0.577387
0.576636
0.575978
0.575488
0.576244
0.577177
0.577601
0.575948
0.573078
0.571477
0.5746
0.580084
0.584321
0.588685
0.590803
0.593519
0.595302
0.59692
0.604584
0.592934
0.583491
0.438091
0.171856
0.505318
0.586372
0.585907
0.585714
0.585916
0.585569
0.584714
0.584006
0.583543
0.583304
0.582811
0.5819
0.580879
0.579974
0.579063
0.578024
0.577242
0.576894
0.576892
0.57717
0.577551
0.577574
0.577186
0.57669
0.577402
0.578761
0.580335
0.5817
0.58468
0.587079
0.590309
0.589608
0.595015
0.597659
0.606496
0.632236
0.548681
0.760055
0.452145
0.586291
0.586058
0.585636
0.585351
0.585437
0.585572
0.585427
0.584297
0.583003
0.582148
0.581267
0.58026
0.579631
0.579251
0.578765
0.57824
0.577954
0.577865
0.577864
0.577703
0.577893
0.57721
0.576482
0.575852
0.576401
0.577483
0.579752
0.583051
0.585293
0.589416
0.592263
0.597616
0.600338
0.608787
0.609272
0.632836
0.514291
0.644301
0.586315
0.586121
0.585974
0.585864
0.585706
0.585456
0.58517
0.58502
0.584219
0.582948
0.581711
0.580741
0.580174
0.579673
0.579221
0.578858
0.578609
0.578547
0.578628
0.578488
0.578351
0.578297
0.578083
0.577974
0.578441
0.577931
0.579634
0.578825
0.578468
0.580681
0.581661
0.586887
0.592674
0.608061
0.626792
0.629101
0.630988
0.583783
0.586269
0.586099
0.585904
0.585701
0.585548
0.585403
0.585155
0.584789
0.584204
0.583655
0.58285
0.581705
0.5809
0.580372
0.579914
0.579558
0.579357
0.579403
0.579395
0.579233
0.579054
0.578719
0.578222
0.577824
0.576626
0.576585
0.576238
0.577176
0.579546
0.581523
0.585018
0.592207
0.594592
0.609884
0.619054
0.648356
0.642744
0.591398
0.586352
0.586198
0.586048
0.585881
0.585692
0.585468
0.585163
0.584867
0.584415
0.583896
0.583234
0.582681
0.581964
0.581376
0.581051
0.580593
0.58026
0.580184
0.58029
0.580167
0.579985
0.579647
0.579291
0.578673
0.578084
0.575946
0.573456
0.569122
0.564896
0.56269
0.562076
0.569489
0.577358
0.593977
0.614409
0.655664
0.679251
0.693734
0.586294
0.586147
0.585987
0.585807
0.585599
0.585403
0.585109
0.584804
0.584392
0.583944
0.583401
0.582844
0.582323
0.581767
0.581483
0.581231
0.580985
0.580874
0.580871
0.580854
0.580925
0.580568
0.580088
0.579202
0.577736
0.57583
0.572895
0.57178
0.570247
0.570386
0.574032
0.57294
0.577669
0.583739
0.596694
0.622602
0.652451
0.763574
0.58634
0.586188
0.586055
0.585866
0.585676
0.58545
0.585172
0.584858
0.584507
0.584064
0.583556
0.583175
0.582693
0.582306
0.581983
0.581765
0.581702
0.581516
0.581568
0.581528
0.581712
0.581575
0.58134
0.580453
0.578371
0.574117
0.566645
0.553891
0.538956
0.53205
0.537019
0.547239
0.549478
0.53453
0.500788
0.522592
0.541259
0.627469
0.586316
0.58616
0.586032
0.585839
0.58565
0.585431
0.585179
0.584893
0.584567
0.584182
0.583685
0.58331
0.582948
0.582652
0.582416
0.582292
0.5822
0.582074
0.581974
0.582152
0.582457
0.5826
0.582653
0.5821
0.580567
0.577106
0.570928
0.564084
0.55937
0.55303
0.558163
0.556256
0.551536
0.552382
0.535308
0.522413
0.553265
0.657857
0.586333
0.586169
0.586057
0.585852
0.585678
0.585455
0.585211
0.584938
0.584622
0.584182
0.583697
0.583454
0.583044
0.58271
0.582535
0.582534
0.58252
0.582372
0.58237
0.582736
0.58315
0.583448
0.583855
0.583982
0.582663
0.577839
0.564383
0.5384
0.486113
0.471059
0.518402
0.542599
0.489174
0.392027
0.322144
0.249458
0.203168
0.286307
0.586329
0.586172
0.586053
0.585852
0.585679
0.585469
0.585237
0.585055
0.584686
0.584328
0.583615
0.583184
0.583049
0.582979
0.582737
0.582667
0.582585
0.58256
0.582602
0.58304
0.583394
0.583944
0.585007
0.586183
0.587454
0.586306
0.579341
0.561213
0.532187
0.531082
0.586717
0.636897
0.621661
0.547422
0.539149
0.586317
0.686763
0.821099
0.47561
0.475281
0.474839
0.474632
0.474647
0.474542
0.474423
0.474412
0.474159
0.473851
0.472631
0.469909
0.468158
0.46749
0.465997
0.465361
0.465055
0.465256
0.466186
0.466909
0.467379
0.46639
0.465268
0.465604
0.469314
0.474853
0.479422
0.483012
0.485732
0.486818
0.487658
0.48605
0.485225
0.46032
0.467205
0.392732
0.403002
0.743514
0.476168
0.475969
0.474591
0.474158
0.474446
0.474252
0.474021
0.474003
0.473698
0.472977
0.471352
0.467582
0.467057
0.468223
0.466667
0.465826
0.46554
0.465149
0.465926
0.466714
0.466763
0.464996
0.462199
0.461085
0.464201
0.469298
0.473442
0.477566
0.479806
0.482133
0.483563
0.485949
0.48827
0.478709
0.487637
0.326382
0.243708
0.434999
0.476031
0.475644
0.475334
0.47537
0.475153
0.474479
0.473663
0.473352
0.473117
0.472604
0.471642
0.470378
0.469308
0.468403
0.467331
0.466585
0.466347
0.466382
0.466686
0.466971
0.466893
0.466359
0.465793
0.466166
0.467685
0.469383
0.471128
0.474027
0.476162
0.478932
0.478627
0.483826
0.484437
0.492565
0.510149
0.474732
0.459944
0.458197
0.475886
0.475685
0.475329
0.475046
0.475039
0.474991
0.474765
0.473916
0.472685
0.47198
0.47117
0.470038
0.469219
0.468786
0.468264
0.46775
0.467492
0.467392
0.467439
0.4673
0.46732
0.466695
0.465941
0.465488
0.465894
0.467304
0.469315
0.471983
0.474378
0.477243
0.480424
0.486381
0.487553
0.49356
0.496611
0.476465
0.410779
0.293259
0.475971
0.475785
0.475623
0.475492
0.475319
0.475058
0.474709
0.474411
0.473682
0.47245
0.471321
0.470536
0.469967
0.469441
0.46895
0.468551
0.468279
0.468195
0.46823
0.468159
0.467941
0.467822
0.467598
0.467518
0.467738
0.467804
0.468651
0.468406
0.468267
0.469721
0.470682
0.475233
0.480178
0.493607
0.501866
0.50097
0.44463
0.407976
0.475904
0.475742
0.475553
0.475352
0.475182
0.475007
0.47473
0.474329
0.473708
0.473122
0.472378
0.471351
0.470546
0.47
0.469593
0.469284
0.469079
0.469008
0.46898
0.468818
0.468648
0.468357
0.467858
0.467458
0.466495
0.466106
0.465832
0.466529
0.468625
0.470893
0.474095
0.479271
0.48223
0.489626
0.496551
0.505
0.488451
0.407865
0.475991
0.475841
0.47569
0.47552
0.475327
0.475096
0.474789
0.474458
0.473994
0.473436
0.472763
0.472193
0.471533
0.470976
0.470633
0.470206
0.469947
0.469842
0.469911
0.469761
0.469583
0.469268
0.468918
0.46831
0.467677
0.465633
0.4633
0.458997
0.454495
0.452535
0.452527
0.459285
0.466519
0.479378
0.491295
0.506804
0.519905
0.521078
0.475935
0.475789
0.475632
0.47545
0.475245
0.475034
0.474745
0.474424
0.474004
0.473545
0.472993
0.472445
0.471933
0.471418
0.47111
0.470856
0.470672
0.470551
0.470537
0.470499
0.470553
0.470245
0.469775
0.468916
0.467425
0.465462
0.462689
0.461306
0.460196
0.459565
0.462826
0.462803
0.466107
0.469143
0.483461
0.496084
0.512659
0.580507
0.475979
0.47583
0.475695
0.475507
0.475317
0.475085
0.47481
0.474493
0.474129
0.473706
0.473191
0.472776
0.472323
0.471935
0.47162
0.471402
0.471351
0.4712
0.471255
0.471233
0.471398
0.471281
0.47107
0.470191
0.468225
0.464033
0.456895
0.444525
0.42954
0.42313
0.428314
0.437204
0.441382
0.420206
0.393173
0.400677
0.410541
0.460501
0.475957
0.475805
0.475675
0.475481
0.475296
0.47507
0.474817
0.474532
0.474184
0.473827
0.473325
0.472915
0.472587
0.472294
0.472045
0.471916
0.471831
0.471731
0.471659
0.47186
0.47217
0.472319
0.47241
0.471898
0.470364
0.466873
0.460601
0.453424
0.447424
0.44131
0.447187
0.451119
0.448331
0.447662
0.435877
0.421601
0.433763
0.508634
0.475973
0.475815
0.475701
0.475491
0.475326
0.475086
0.474858
0.47457
0.474263
0.473881
0.473349
0.472972
0.472694
0.472378
0.472129
0.472117
0.472143
0.472043
0.472059
0.472434
0.472874
0.473175
0.473681
0.473926
0.472706
0.46786
0.455607
0.43053
0.378178
0.360298
0.404567
0.435458
0.391985
0.292464
0.197185
0.107123
0.0151799
0.0126267
0.475971
0.475816
0.475697
0.475495
0.475304
0.475086
0.47486
0.47469
0.474271
0.473922
0.473269
0.472786
0.472782
0.472704
0.472397
0.472296
0.472213
0.472175
0.472208
0.472669
0.473138
0.47371
0.474854
0.476174
0.477326
0.47586
0.468935
0.450577
0.420133
0.417451
0.470133
0.524506
0.531183
0.47359
0.418706
0.409931
0.410235
0.457409
0.365162
0.364957
0.364658
0.364384
0.364354
0.364274
0.364142
0.364035
0.36368
0.363255
0.362134
0.359399
0.357624
0.356964
0.355375
0.354783
0.354673
0.35487
0.355746
0.356237
0.356401
0.355394
0.354339
0.354989
0.358697
0.363966
0.368471
0.372187
0.374838
0.376231
0.376978
0.376665
0.374968
0.361732
0.358253
0.303732
0.214035
0.480422
0.365103
0.365419
0.364643
0.364182
0.364245
0.36409
0.363869
0.363754
0.363355
0.362574
0.361025
0.357343
0.356246
0.357585
0.355997
0.355009
0.355034
0.354787
0.355554
0.356171
0.355888
0.35397
0.351326
0.350691
0.353866
0.358668
0.362885
0.367141
0.369455
0.371872
0.372868
0.375507
0.374979
0.370687
0.369615
0.327416
0.265517
0.30901
0.365642
0.365354
0.365058
0.364961
0.36478
0.3644
0.36389
0.363475
0.362983
0.362297
0.361265
0.359894
0.358759
0.357855
0.35675
0.356013
0.355874
0.355934
0.356221
0.356405
0.356197
0.355521
0.354908
0.355181
0.356851
0.359149
0.361339
0.364171
0.36603
0.368705
0.368352
0.372399
0.37248
0.377607
0.389779
0.362546
0.427607
0.372026
0.365499
0.365318
0.365031
0.364767
0.364692
0.364595
0.364349
0.363775
0.362889
0.362003
0.360981
0.35973
0.35878
0.358309
0.357751
0.357226
0.357011
0.356924
0.356977
0.356871
0.356769
0.356126
0.355464
0.355021
0.355756
0.356979
0.358867
0.361293
0.363283
0.366743
0.369569
0.374236
0.375337
0.381106
0.378877
0.384876
0.322754
0.38619
0.365636
0.365455
0.365286
0.365139
0.364958
0.36471
0.364368
0.364031
0.363402
0.362542
0.361549
0.360568
0.359821
0.359178
0.358619
0.358194
0.357932
0.357831
0.35783
0.357755
0.357537
0.357322
0.357106
0.357012
0.357374
0.357502
0.358422
0.358452
0.358292
0.359544
0.360182
0.363713
0.368059
0.377659
0.384642
0.384723
0.38282
0.353717
0.36555
0.365392
0.36521
0.365014
0.364832
0.364637
0.364351
0.363957
0.363382
0.362748
0.362016
0.361122
0.360348
0.359771
0.359345
0.35899
0.358766
0.358657
0.358634
0.358469
0.358313
0.357986
0.357521
0.357062
0.356314
0.355904
0.355535
0.355946
0.357895
0.360297
0.363221
0.367882
0.370115
0.377796
0.3824
0.388081
0.374283
0.353214
0.365635
0.365488
0.365337
0.365166
0.364971
0.364734
0.364426
0.364079
0.363615
0.363078
0.362424
0.36182
0.361183
0.360633
0.36026
0.359888
0.359652
0.359518
0.359539
0.359412
0.359286
0.358969
0.358647
0.357996
0.357293
0.355523
0.353196
0.349163
0.34486
0.342672
0.34332
0.348997
0.355246
0.365008
0.374772
0.386857
0.389164
0.392752
0.365581
0.365437
0.365282
0.3651
0.364897
0.364676
0.364389
0.364058
0.363637
0.363174
0.362625
0.362089
0.361579
0.361094
0.360773
0.360517
0.36036
0.360238
0.360225
0.360174
0.36021
0.359942
0.359517
0.358681
0.357195
0.355187
0.352517
0.350834
0.349944
0.348689
0.352096
0.353818
0.357375
0.362095
0.369286
0.378059
0.390186
0.427571
0.365621
0.365475
0.365339
0.365152
0.364964
0.364725
0.364455
0.364134
0.363762
0.363353
0.362837
0.362415
0.361967
0.361577
0.361269
0.361055
0.361007
0.36089
0.360946
0.360942
0.361102
0.361002
0.360816
0.359967
0.358112
0.354039
0.347282
0.335442
0.320611
0.314059
0.318618
0.32753
0.331915
0.322887
0.292683
0.284345
0.284701
0.308586
0.365601
0.365452
0.365322
0.365127
0.364949
0.364713
0.364465
0.364175
0.363815
0.363473
0.362982
0.362599
0.362243
0.361933
0.361688
0.361549
0.36147
0.361394
0.361368
0.361582
0.361896
0.362072
0.362199
0.361748
0.360202
0.356693
0.350487
0.342905
0.335921
0.329574
0.338442
0.346688
0.345493
0.343881
0.336973
0.331303
0.342359
0.375858
0.365616
0.365462
0.365346
0.365136
0.364977
0.364717
0.364507
0.364207
0.363882
0.363511
0.363002
0.362708
0.362337
0.36202
0.361751
0.361702
0.361772
0.36173
0.361775
0.362152
0.362597
0.362949
0.363557
0.363924
0.362734
0.357941
0.347158
0.32339
0.271701
0.250285
0.291464
0.330192
0.30244
0.212468
0.106374
0.0179077
-0.0647545
-0.111886
0.365615
0.365463
0.365347
0.365146
0.364974
0.364726
0.3645
0.364293
0.363881
0.363527
0.363068
0.362761
0.362483
0.36223
0.362047
0.361929
0.361835
0.3618
0.361866
0.362336
0.36291
0.363521
0.364793
0.366181
0.367192
0.365352
0.358631
0.340609
0.308982
0.303106
0.351636
0.406987
0.429916
0.400021
0.33537
0.292973
0.272396
0.311169
0.254943
0.254562
0.254397
0.25413
0.254055
0.253988
0.253836
0.25367
0.253224
0.25262
0.251316
0.248728
0.24707
0.24634
0.244736
0.244198
0.244278
0.244506
0.245274
0.245552
0.245443
0.244389
0.243413
0.244321
0.247979
0.252988
0.257456
0.261276
0.263936
0.26555
0.266338
0.266825
0.264971
0.25919
0.259136
0.215676
0.222067
0.271659
0.254572
0.25469
0.254425
0.254049
0.25407
0.253932
0.253694
0.253501
0.252995
0.252128
0.250468
0.246906
0.245612
0.246869
0.245272
0.24422
0.244525
0.244435
0.245162
0.245598
0.244998
0.242951
0.240488
0.240256
0.243417
0.24792
0.252114
0.256271
0.258702
0.261064
0.262019
0.264726
0.263219
0.261387
0.258605
0.221525
0.194856
0.176836
0.255263
0.25501
0.254779
0.254624
0.254426
0.254129
0.253672
0.253234
0.252676
0.251905
0.250802
0.249363
0.248176
0.24724
0.246121
0.245433
0.245406
0.245495
0.245753
0.245843
0.245488
0.2447
0.244035
0.24429
0.245959
0.248321
0.250684
0.253426
0.255351
0.257772
0.257855
0.261543
0.260856
0.266038
0.268633
0.255897
0.255583
0.261942
0.255141
0.254957
0.254721
0.254486
0.254373
0.254244
0.25396
0.253439
0.252598
0.251678
0.25062
0.249315
0.248317
0.247818
0.247226
0.246699
0.246526
0.246461
0.246512
0.246417
0.246201
0.245544
0.244861
0.244554
0.245232
0.246545
0.248342
0.250464
0.25241
0.255303
0.258106
0.262194
0.262847
0.267327
0.264108
0.257914
0.226624
0.201194
0.255289
0.255118
0.254953
0.254799
0.254612
0.254368
0.254024
0.253633
0.253018
0.252178
0.251212
0.250272
0.249486
0.248815
0.248236
0.247804
0.247559
0.247459
0.247438
0.247352
0.247119
0.246838
0.246613
0.24652
0.246851
0.247114
0.247858
0.248131
0.24808
0.248941
0.249474
0.252305
0.255797
0.263463
0.266988
0.267154
0.251759
0.249294
0.255203
0.255049
0.254874
0.254684
0.254496
0.254287
0.253992
0.253591
0.25302
0.252364
0.251625
0.250775
0.250009
0.249423
0.248986
0.248637
0.248425
0.248304
0.248263
0.24811
0.247943
0.24761
0.247172
0.246696
0.246095
0.245607
0.245233
0.245429
0.247114
0.249382
0.252005
0.255857
0.258091
0.263278
0.265968
0.266418
0.25516
0.2397
0.255281
0.255139
0.254989
0.254818
0.254622
0.254382
0.254075
0.253714
0.253249
0.252708
0.252064
0.251446
0.250824
0.250286
0.249895
0.249547
0.249334
0.249196
0.249188
0.249073
0.248953
0.24865
0.24832
0.24768
0.246941
0.245323
0.243119
0.239347
0.235147
0.232896
0.233637
0.238243
0.243673
0.25113
0.256473
0.261513
0.260883
0.264086
0.25523
0.25509
0.254938
0.254756
0.254556
0.254326
0.254042
0.253703
0.253281
0.252815
0.252266
0.251732
0.251228
0.250766
0.250439
0.250187
0.250045
0.249926
0.249912
0.24986
0.249878
0.24964
0.249243
0.248423
0.246986
0.24495
0.242339
0.240395
0.239419
0.237814
0.240954
0.243701
0.246856
0.249869
0.255502
0.260966
0.269423
0.28649
0.255265
0.255123
0.254987
0.254801
0.254616
0.254372
0.254106
0.25378
0.253404
0.253008
0.252489
0.252055
0.251612
0.251229
0.250931
0.250723
0.250676
0.250583
0.25064
0.250655
0.250807
0.25073
0.250566
0.249751
0.247985
0.244096
0.237757
0.226597
0.212109
0.204913
0.208649
0.217669
0.223019
0.216772
0.193569
0.178369
0.17048
0.177762
0.255247
0.255102
0.254972
0.254779
0.254605
0.254362
0.254123
0.253822
0.253458
0.253138
0.252643
0.252252
0.2519
0.251589
0.251347
0.251195
0.251115
0.251064
0.251093
0.251313
0.251629
0.251844
0.252004
0.251611
0.250051
0.246584
0.240567
0.232675
0.224731
0.217877
0.227356
0.238614
0.240798
0.238962
0.235042
0.233292
0.245753
0.253388
0.255261
0.25511
0.254993
0.254786
0.254632
0.254364
0.25416
0.253832
0.253534
0.253172
0.25265
0.252314
0.251967
0.251676
0.251409
0.251334
0.251409
0.251403
0.251502
0.251878
0.252316
0.25276
0.253472
0.253921
0.252692
0.248064
0.238904
0.216878
0.166596
0.140573
0.177148
0.222343
0.211206
0.143418
0.0372444
-0.0578897
-0.116828
-0.170599
0.25526
0.25511
0.254995
0.254805
0.254652
0.254427
0.254177
0.253867
0.253519
0.253263
0.252708
0.25237
0.252146
0.251868
0.251705
0.251553
0.251449
0.251447
0.25158
0.252047
0.25267
0.25338
0.254796
0.256194
0.256961
0.254837
0.24849
0.231433
0.199163
0.188818
0.232094
0.286695
0.318856
0.315223
0.271159
0.213874
0.206896
0.245285
0.14464
0.144228
0.144103
0.143855
0.14377
0.143735
0.143554
0.143321
0.142777
0.141911
0.140591
0.138164
0.13651
0.135649
0.134096
0.133639
0.133903
0.134163
0.134794
0.134878
0.13453
0.133409
0.132508
0.133598
0.137156
0.14191
0.14634
0.150239
0.152951
0.154736
0.155631
0.156535
0.155016
0.151918
0.151226
0.122704
0.107944
0.162045
0.144433
0.144196
0.144039
0.143765
0.143835
0.143767
0.143519
0.143243
0.142612
0.141576
0.139725
0.136512
0.135238
0.136219
0.134554
0.133524
0.13404
0.134116
0.134759
0.135011
0.134121
0.131986
0.129726
0.12975
0.132839
0.137057
0.141199
0.145319
0.147853
0.150208
0.151165
0.153688
0.152098
0.15215
0.146446
0.125128
0.100887
0.0783264
0.144928
0.144672
0.144487
0.144311
0.1441
0.143865
0.143498
0.143064
0.142418
0.141498
0.140275
0.138781
0.137594
0.136628
0.135536
0.134915
0.134984
0.13509
0.135303
0.135298
0.134801
0.133911
0.133216
0.133455
0.135122
0.137509
0.139994
0.142793
0.144636
0.147068
0.147427
0.150366
0.149781
0.153039
0.155553
0.141704
0.15883
0.145573
0.144821
0.144625
0.144412
0.144202
0.14407
0.143927
0.143626
0.143135
0.142368
0.14141
0.140249
0.138908
0.137866
0.137322
0.136697
0.136183
0.136051
0.136015
0.136057
0.13595
0.135645
0.134941
0.134293
0.134009
0.134764
0.136004
0.137698
0.139727
0.141445
0.144101
0.146634
0.15011
0.150692
0.154383
0.150773
0.145933
0.124126
0.117739
0.14495
0.144787
0.144629
0.14447
0.144283
0.144045
0.143713
0.143308
0.142709
0.14193
0.141018
0.140024
0.139164
0.138442
0.137841
0.137411
0.137186
0.137092
0.137055
0.136948
0.136692
0.136362
0.136121
0.136017
0.136344
0.13666
0.137355
0.137754
0.137809
0.138492
0.13878
0.141024
0.143854
0.149439
0.151842
0.151394
0.147289
0.140979
0.144863
0.144714
0.144546
0.144363
0.144171
0.143953
0.143654
0.143248
0.142689
0.14202
0.141266
0.14044
0.139689
0.139097
0.138648
0.138299
0.138091
0.137965
0.13791
0.137762
0.137581
0.137242
0.136822
0.136341
0.135819
0.135318
0.134926
0.134947
0.136301
0.138312
0.140442
0.143898
0.146094
0.150126
0.151688
0.150677
0.142186
0.132897
0.144931
0.144793
0.144646
0.144476
0.144281
0.144039
0.143734
0.143366
0.1429
0.14236
0.141725
0.14111
0.140484
0.139946
0.139544
0.139212
0.139013
0.138876
0.138846
0.138738
0.138618
0.138326
0.137993
0.13737
0.13661
0.135127
0.133071
0.129558
0.125496
0.123129
0.123917
0.127422
0.132103
0.137866
0.141792
0.143595
0.14195
0.141489
0.144883
0.144746
0.144597
0.144417
0.14422
0.143985
0.143702
0.143358
0.142936
0.142468
0.141919
0.141383
0.140887
0.140438
0.140109
0.13986
0.139725
0.139614
0.1396
0.13955
0.13955
0.139337
0.138961
0.138166
0.136781
0.134746
0.132187
0.130009
0.128707
0.126956
0.129795
0.13334
0.136759
0.139393
0.142787
0.146825
0.152123
0.158418
0.144912
0.144773
0.144638
0.144454
0.144271
0.144024
0.143763
0.143433
0.143056
0.142668
0.142148
0.141708
0.141267
0.140893
0.140604
0.140399
0.140348
0.140274
0.140333
0.140365
0.140509
0.14046
0.140308
0.139535
0.137839
0.13419
0.128318
0.117945
0.10405
0.0958266
0.0984157
0.107443
0.113712
0.110802
0.0949081
0.0769297
0.0625909
0.0627642
0.144895
0.144754
0.144625
0.144433
0.144264
0.144015
0.143784
0.143472
0.143118
0.142807
0.142311
0.141926
0.141571
0.141258
0.141012
0.140848
0.14077
0.14075
0.140827
0.141046
0.141365
0.141621
0.141811
0.141465
0.139893
0.136556
0.13086
0.122813
0.113995
0.106422
0.115714
0.129624
0.134976
0.134326
0.131849
0.130535
0.142649
0.133007
0.144907
0.14476
0.144643
0.144439
0.14429
0.144012
0.143818
0.143472
0.143204
0.142846
0.142357
0.142003
0.141597
0.141335
0.141085
0.140991
0.141059
0.141081
0.14123
0.141599
0.14205
0.142594
0.143403
0.14387
0.142559
0.138236
0.130724
0.11084
0.0628729
0.0313219
0.0617829
0.111757
0.115275
0.0722373
-0.0156732
-0.125288
-0.181874
-0.204978
0.144906
0.14476
0.144644
0.14445
0.144307
0.144061
0.143837
0.143508
0.143199
0.142971
0.142356
0.142032
0.141817
0.141481
0.141333
0.141169
0.141082
0.141125
0.141324
0.141795
0.142437
0.143284
0.144799
0.146214
0.146612
0.144345
0.138553
0.122967
0.0908071
0.0752678
0.112147
0.165122
0.201681
0.216824
0.202499
0.155437
0.140388
0.168887
0.0344308
0.0339109
0.0338161
0.0335791
0.0334868
0.0335184
0.0333182
0.0330302
0.0323549
0.0310909
0.0296051
0.0275251
0.0259564
0.0249426
0.0234839
0.0231319
0.0235604
0.0238376
0.0243236
0.0242316
0.0236781
0.0224801
0.0216323
0.0228261
0.0262229
0.0307188
0.0350958
0.039042
0.0418329
0.0437708
0.0447881
0.0459272
0.0447727
0.0440813
0.0424374
0.0239019
0.0213129
0.0310712
0.0344042
0.0339672
0.0336954
0.0334042
0.0335196
0.0335533
0.0333142
0.0329815
0.0322273
0.0309659
0.0288397
0.0260129
0.0249584
0.0255339
0.0238482
0.0229294
0.023609
0.0238076
0.0243613
0.0244314
0.0232821
0.0210788
0.0189981
0.0192478
0.0221136
0.0260548
0.0301192
0.0341779
0.0368105
0.039147
0.0402155
0.0424779
0.0412212
0.0415314
0.0362312
0.016208
0.00570488
-0.0326128