/*--------------------------------*- C++ -*----------------------------------*\
| =========                 |                                                 |
| \\      /  F ield         | OpenFOAM: The Open Source CFD Toolbox           |
|  \\    /   O peration     | Version:  2.3.1                                 |
|   \\  /    A nd           | Web:      www.OpenFOAM.org                      |
|    \\/     M anipulation  |                                                 |
\*---------------------------------------------------------------------------*/
FoamFile
{
    version     2.0;
    format      ascii;
    class       volScalarField;
    location    "15";
    object      p_rgh;
}
// * * * * * * * * * * * * * * * * * * * * * * * * * * * * * * * * * * * * * //

dimensions      [0 2 -2 0 0 0 0];

internalField   nonuniform List<scalar> 
38262
(
0.86199
0.861403
0.860797
0.86093
0.861104
0.860959
0.861007
0.861105
0.860913
0.860246
0.858504
0.856376
0.85504
0.853798
0.852736
0.851766
0.851032
0.851462
0.852357
0.853577
0.854804
0.853556
0.852247
0.851807
0.85507
0.860921
0.866682
0.870415
0.874013
0.873735
0.876173
0.86877
0.874123
0.811595
0.731728
0.631568
0.514016
0.0906651
0.86384
0.8624
0.860229
0.859997
0.86052
0.860197
0.859945
0.860139
0.859998
0.859123
0.857486
0.855686
0.855484
0.854956
0.853922
0.852932
0.851677
0.851327
0.852105
0.853265
0.854124
0.852561
0.849842
0.847755
0.851506
0.857866
0.861829
0.865095
0.868658
0.870848
0.874627
0.875068
0.90292
0.921759
0.929325
0.579228
0.752552
1.18187
0.862191
0.861821
0.8621
0.862258
0.861535
0.860165
0.859239
0.858762
0.858857
0.858723
0.858023
0.857396
0.856509
0.855467
0.854396
0.85354
0.853112
0.853121
0.853346
0.853877
0.853859
0.853634
0.853501
0.855351
0.856036
0.856204
0.856799
0.860014
0.865338
0.866968
0.868825
0.873942
0.884676
0.907679
1.01873
0.912883
0.736901
0.64218
0.862261
0.862008
0.861473
0.861171
0.861599
0.862431
0.862017
0.859543
0.857663
0.857051
0.856764
0.85606
0.85566
0.855315
0.854872
0.854369
0.854066
0.854001
0.85382
0.853879
0.85405
0.853381
0.852309
0.8518
0.851122
0.853152
0.856802
0.861356
0.862306
0.865196
0.86825
0.874329
0.883045
0.896597
0.94977
0.952103
0.711817
1.11426
0.862193
0.861994
0.861877
0.861795
0.86167
0.861404
0.861334
0.861799
0.860373
0.858145
0.856658
0.856052
0.855744
0.855432
0.85513
0.854814
0.854586
0.854545
0.854582
0.854335
0.854408
0.854341
0.854081
0.854049
0.854625
0.854627
0.854919
0.853623
0.855875
0.857037
0.85821
0.865511
0.871975
0.900688
0.946738
0.961549
0.920035
0.880294
0.862171
0.86199
0.861789
0.861588
0.861481
0.861399
0.861197
0.860889
0.860472
0.860211
0.859018
0.85727
0.856355
0.855875
0.855516
0.855273
0.855083
0.855282
0.855179
0.855034
0.854747
0.854484
0.854093
0.853516
0.852161
0.852023
0.852373
0.854587
0.856201
0.858408
0.85994
0.870004
0.874627
0.887441
0.913259
1.02414
1.08047
0.932541
0.862254
0.862096
0.861946
0.861783
0.86161
0.861388
0.861095
0.860879
0.860431
0.859943
0.859454
0.858837
0.857861
0.857223
0.856923
0.856261
0.855809
0.856038
0.856107
0.856034
0.855672
0.855406
0.854827
0.854859
0.853823
0.851099
0.849263
0.845181
0.839847
0.837822
0.835223
0.845373
0.85755
0.877384
0.912368
0.980842
1.08159
1.12078
0.862202
0.862053
0.86189
0.861712
0.861514
0.861322
0.861039
0.86075
0.860354
0.859939
0.859445
0.858882
0.858236
0.85764
0.857488
0.857131
0.856748
0.85672
0.856772
0.856901
0.856794
0.856207
0.855778
0.854883
0.853822
0.852022
0.848846
0.847634
0.845886
0.84783
0.851965
0.847403
0.853485
0.844543
0.894213
0.94699
1.01489
1.22627
0.862246
0.862094
0.86196
0.861773
0.861588
0.861359
0.861087
0.860784
0.86043
0.859982
0.859492
0.859109
0.858625
0.858235
0.857892
0.857696
0.857569
0.857405
0.857456
0.857408
0.857509
0.857391
0.857026
0.856117
0.854055
0.850079
0.841949
0.829085
0.813777
0.801701
0.805995
0.82343
0.828641
0.804469
0.778635
0.815296
0.868841
1.01033
0.862219
0.862066
0.861936
0.861742
0.861557
0.861339
0.861087
0.860825
0.860494
0.860084
0.859602
0.859217
0.858876
0.858577
0.85834
0.858211
0.858116
0.857932
0.857868
0.857991
0.858264
0.858481
0.85843
0.857918
0.856329
0.852923
0.847156
0.840442
0.839373
0.833567
0.832933
0.823096
0.812126
0.824093
0.820015
0.848338
0.943458
1.11899
0.862235
0.862075
0.861956
0.861754
0.861586
0.861367
0.861112
0.860884
0.86048
0.859888
0.859517
0.859308
0.859001
0.858714
0.858542
0.858525
0.858434
0.858263
0.858275
0.858645
0.858972
0.859304
0.859654
0.859698
0.858148
0.853328
0.838365
0.811887
0.760995
0.75311
0.805978
0.821336
0.751904
0.676016
0.675448
0.701904
0.899035
1.21462
0.862234
0.862081
0.861953
0.86175
0.861587
0.861394
0.861133
0.861118
0.860653
0.860063
0.859544
0.859108
0.859078
0.858903
0.858706
0.858603
0.858521
0.858529
0.858631
0.858993
0.859193
0.859802
0.860846
0.861517
0.863074
0.861875
0.85512
0.838348
0.81118
0.805269
0.860357
0.900604
0.860356
0.836765
0.911635
1.13632
1.60373
2.13107
0.861949
0.861389
0.860806
0.860784
0.860907
0.860677
0.860664
0.860897
0.860795
0.860256
0.858575
0.856324
0.854928
0.853804
0.852673
0.851794
0.851219
0.851601
0.852473
0.853631
0.854701
0.853596
0.852408
0.852175
0.855759
0.861632
0.866498
0.869976
0.872884
0.873374
0.874873
0.869354
0.872523
0.810962
0.757206
0.557977
0.427975
2.16984
0.863522
0.86212
0.859855
0.85987
0.860555
0.860163
0.859868
0.86012
0.860013
0.859024
0.856748
0.854216
0.854834
0.854671
0.853432
0.852726
0.851789
0.851328
0.852052
0.853107
0.853783
0.852208
0.849324
0.847377
0.850442
0.856318
0.859475
0.863401
0.865925
0.8681
0.871237
0.871673
0.888017
0.863382
0.848344
0.374242
0.399696
0.158341
0.862223
0.861709
0.861739
0.862066
0.861396
0.859808
0.85846
0.858402
0.858974
0.85876
0.857719
0.856882
0.856065
0.855109
0.854068
0.853276
0.852889
0.8529
0.853154
0.853624
0.853683
0.853394
0.85304
0.854148
0.855166
0.854008
0.85472
0.858858
0.862619
0.866155
0.866508
0.871889
0.878946
0.884839
0.937294
0.68606
0.893531
0.51523
0.862209
0.861958
0.861483
0.861215
0.86142
0.861721
0.861434
0.858763
0.856689
0.857119
0.856819
0.855957
0.855476
0.855079
0.854625
0.854123
0.853849
0.853792
0.85374
0.853536
0.853909
0.853195
0.852315
0.851598
0.851565
0.853173
0.855345
0.859696
0.861767
0.862412
0.865898
0.875046
0.878203
0.881518
0.927314
0.780537
0.629035
0.662203
0.862175
0.861989
0.861863
0.861776
0.861627
0.861369
0.861109
0.861187
0.859806
0.857329
0.856033
0.855854
0.855622
0.855273
0.854953
0.854636
0.854407
0.854399
0.854523
0.854267
0.854244
0.854306
0.85404
0.853856
0.85392
0.85376
0.853655
0.853459
0.853834
0.85325
0.857198
0.864315
0.870756
0.890929
0.911338
0.878888
0.670948
0.402514
0.862169
0.861994
0.861795
0.861596
0.861466
0.861346
0.8611
0.860714
0.860123
0.859787
0.858519
0.856908
0.8561
0.855699
0.85534
0.855229
0.855086
0.855199
0.85508
0.855017
0.854696
0.854566
0.854131
0.853623
0.852045
0.851922
0.852215
0.853459
0.854626
0.856221
0.85988
0.866861
0.872881
0.877052
0.894547
0.930882
0.940653
0.532513
0.862255
0.862099
0.861951
0.861786
0.861604
0.861384
0.861081
0.860814
0.860366
0.859794
0.85922
0.858641
0.857821
0.857239
0.856853
0.856233
0.855934
0.85608
0.856186
0.855966
0.855504
0.855352
0.854824
0.854463
0.853835
0.851305
0.849269
0.844226
0.840058
0.838254
0.834342
0.845159
0.853361
0.873299
0.886924
0.936818
1.00047
0.953409
0.862199
0.862052
0.86189
0.861712
0.861504
0.861317
0.861021
0.860729
0.860313
0.859869
0.859332
0.858759
0.858218
0.857615
0.857395
0.857132
0.856816
0.856741
0.856721
0.856776
0.856774
0.856277
0.855799
0.85485
0.853719
0.851634
0.848592
0.84763
0.845637
0.846871
0.847696
0.84539
0.846518
0.846941
0.878045
0.921214
0.972945
1.13167
0.862246
0.862093
0.861961
0.861772
0.861584
0.861358
0.861082
0.860774
0.860424
0.859967
0.859471
0.859085
0.85861
0.858222
0.85788
0.857689
0.857589
0.857405
0.857441
0.857366
0.857547
0.857433
0.857183
0.856174
0.854017
0.849867
0.841982
0.829138
0.813749
0.805959
0.810905
0.823589
0.830562
0.782222
0.775876
0.802111
0.840504
0.960216
0.862221
0.862064
0.861935
0.861743
0.861554
0.861338
0.861083
0.86081
0.860478
0.86008
0.8596
0.859192
0.858851
0.858566
0.858339
0.85821
0.858109
0.857963
0.857854
0.858002
0.858304
0.858467
0.858473
0.857903
0.856395
0.852904
0.846936
0.840384
0.836819
0.830049
0.824773
0.819483
0.820488
0.830733
0.811052
0.815106
0.870154
0.99862
0.862237
0.86207
0.861959
0.861755
0.861582
0.861359
0.861116
0.860851
0.860532
0.86002
0.859539
0.859214
0.858937
0.858675
0.858505
0.858485
0.858426
0.858267
0.858257
0.858619
0.858979
0.859309
0.859647
0.859664
0.858242
0.853469
0.838983
0.812712
0.760292
0.747453
0.797376
0.808655
0.742003
0.65293
0.628653
0.595966
0.645736
0.826403
0.862233
0.862077
0.861954
0.861752
0.861572
0.861376
0.861104
0.861059
0.860495
0.860169
0.859588
0.858968
0.859001
0.858899
0.858682
0.858587
0.858492
0.85849
0.858558
0.85897
0.859155
0.859712
0.860797
0.861712
0.863201
0.862122
0.855163
0.837463
0.809863
0.807866
0.863914
0.906618
0.869773
0.812905
0.857543
0.983019
1.2474
1.55312
0.861969
0.861534
0.860971
0.860815
0.860914
0.860769
0.860655
0.860713
0.860525
0.860279
0.858951
0.856306
0.854694
0.853822
0.852511
0.851784
0.851291
0.851562
0.852488
0.853446
0.854242
0.85323
0.852075
0.852084
0.855768
0.861588
0.866273
0.869782
0.872626
0.87337
0.874629
0.870965
0.872671
0.835195
0.826301
0.623176
0.622462
1.04051
0.863022
0.86228
0.860413
0.860017
0.860597
0.860422
0.86016
0.860201
0.859966
0.859214
0.857466
0.853964
0.854201
0.854762
0.853293
0.852542
0.851884
0.851394
0.85215
0.853083
0.853508
0.851854
0.848984
0.847383
0.850506
0.85599
0.860227
0.864591
0.866709
0.869425
0.871209
0.872826
0.88049
0.86884
0.859397
0.713997
0.447762
0.781224
0.862278
0.861813
0.861621
0.861823
0.861475
0.86062
0.859912
0.859449
0.85921
0.858718
0.857806
0.856785
0.855881
0.854969
0.85393
0.853148
0.8528
0.852799
0.853076
0.853457
0.85348
0.853092
0.852597
0.853308
0.854667
0.856241
0.857606
0.860586
0.862985
0.866216
0.865515
0.870921
0.873566
0.882402
0.908142
0.824588
1.03596
0.728051
0.862197
0.861964
0.861542
0.861257
0.861343
0.861478
0.861333
0.860204
0.85891
0.858054
0.857174
0.856166
0.855537
0.855158
0.854671
0.854146
0.85386
0.853771
0.853771
0.853609
0.8538
0.853116
0.852388
0.851758
0.852307
0.853389
0.855659
0.858957
0.861199
0.865322
0.868169
0.873523
0.876244
0.884694
0.885178
0.908742
0.790197
0.920207
0.862222
0.862027
0.86188
0.86177
0.861612
0.861362
0.861076
0.860926
0.860125
0.858854
0.857617
0.856647
0.85608
0.855579
0.855128
0.854765
0.854516
0.854453
0.854534
0.854395
0.854257
0.854203
0.853989
0.85388
0.854348
0.853837
0.85554
0.854731
0.854374
0.856587
0.857567
0.862793
0.86858
0.883968
0.902698
0.905007
0.906894
0.859689
0.862176
0.862006
0.86181
0.861607
0.861455
0.861309
0.861061
0.860695
0.86011
0.859561
0.858756
0.857611
0.856807
0.856278
0.855821
0.855465
0.855263
0.855309
0.855301
0.855139
0.85496
0.854625
0.854128
0.85373
0.852533
0.852491
0.852144
0.853083
0.855452
0.857429
0.860924
0.868113
0.870498
0.88579
0.89496
0.924263
0.918651
0.867304
0.862259
0.862104
0.861954
0.861787
0.861598
0.861374
0.861069
0.860774
0.860321
0.859803
0.85914
0.858587
0.85787
0.857282
0.856957
0.856499
0.856166
0.85609
0.856196
0.856073
0.855891
0.855554
0.855197
0.854579
0.85399
0.851852
0.849362
0.845028
0.840803
0.838596
0.837982
0.845395
0.853264
0.869883
0.890315
0.93157
0.955157
0.96964
0.8622
0.862053
0.861893
0.861713
0.861505
0.861309
0.861016
0.86071
0.860298
0.85985
0.859307
0.858751
0.858229
0.857673
0.857389
0.857137
0.856891
0.85678
0.856777
0.856761
0.856831
0.856474
0.855995
0.855108
0.853642
0.851736
0.848801
0.847686
0.846153
0.846292
0.849938
0.848846
0.853575
0.859645
0.8726
0.898508
0.928357
1.03948
0.862246
0.862095
0.861961
0.861773
0.861582
0.861356
0.861078
0.860764
0.860413
0.85997
0.859462
0.859082
0.8586
0.858212
0.857889
0.857671
0.857608
0.857422
0.857474
0.857434
0.857618
0.857482
0.857246
0.85636
0.854278
0.850023
0.842551
0.829797
0.814862
0.807956
0.812925
0.823145
0.825384
0.810436
0.776694
0.798499
0.817165
0.903375
0.862223
0.862067
0.861938
0.861745
0.861556
0.861337
0.861085
0.860799
0.860473
0.860088
0.859591
0.859216
0.858854
0.858558
0.858322
0.858198
0.858107
0.857981
0.857881
0.858058
0.858364
0.858507
0.858559
0.858006
0.856474
0.853012
0.846834
0.83999
0.835276
0.828936
0.834069
0.832163
0.827442
0.828289
0.811215
0.798319
0.829172
0.933763
0.862239
0.862075
0.861964
0.861758
0.861584
0.861361
0.861117
0.860844
0.860528
0.860088
0.859604
0.85936
0.85895
0.858616
0.858442
0.85844
0.858426
0.858279
0.858276
0.858642
0.859056
0.859354
0.859761
0.859888
0.858569
0.853745
0.840289
0.814306
0.76202
0.746965
0.794308
0.818505
0.76508
0.667934
0.59805
0.525365
0.479075
0.562214
0.862236
0.862078
0.861959
0.861758
0.861585
0.861375
0.861144
0.860961
0.860592
0.860234
0.859521
0.85909
0.858955
0.858886
0.858643
0.858573
0.858491
0.858466
0.858508
0.858946
0.8593
0.85985
0.860913
0.862089
0.86336
0.862212
0.855248
0.837119
0.808094
0.806989
0.862623
0.912803
0.897567
0.823328
0.815055
0.862223
0.96267
1.09701
0.861879
0.86155
0.861107
0.8609
0.860916
0.860811
0.860692
0.860681
0.860428
0.86012
0.858899
0.856178
0.854427
0.853759
0.852266
0.85163
0.851324
0.851525
0.852455
0.853178
0.853647
0.852659
0.851537
0.851873
0.855583
0.861122
0.86569
0.869281
0.872001
0.873087
0.873927
0.872318
0.871493
0.846588
0.853473
0.779001
0.789271
1.12978
0.862437
0.862237
0.86086
0.860427
0.860714
0.860521
0.86029
0.860272
0.859966
0.859245
0.857621
0.85385
0.853326
0.854492
0.852936
0.852094
0.851809
0.851418
0.852195
0.852982
0.853032
0.851265
0.848468
0.847353
0.85047
0.855567
0.85971
0.863835
0.866074
0.868402
0.869832
0.872218
0.874539
0.864977
0.873906
0.712651
0.629976
0.821268
0.8623
0.861913
0.861602
0.861639
0.861421
0.860748
0.859932
0.859621
0.859386
0.858872
0.857911
0.856647
0.855576
0.854671
0.853599
0.852854
0.852616
0.852651
0.852955
0.85324
0.853162
0.852628
0.852062
0.852435
0.853953
0.855651
0.857397
0.860296
0.862431
0.865201
0.864896
0.870095
0.870706
0.878834
0.896417
0.861
0.846213
0.844466
0.862155
0.861953
0.861597
0.861314
0.861308
0.86126
0.861034
0.860185
0.858954
0.858249
0.857439
0.856307
0.855487
0.855055
0.854533
0.854019
0.853761
0.85366
0.853708
0.853569
0.853589
0.852964
0.85221
0.851757
0.852163
0.853573
0.855584
0.858251
0.860647
0.863511
0.866693
0.87265
0.873822
0.879829
0.882879
0.862734
0.797047
0.679528
0.86224
0.862054
0.861891
0.86176
0.861588
0.861327
0.860978
0.860679
0.859951
0.858719
0.857589
0.856805
0.856236
0.855709
0.855219
0.85482
0.854548
0.854464
0.854499
0.854428
0.85421
0.854091
0.853867
0.853787
0.854007
0.854072
0.854919
0.854675
0.854536
0.85599
0.85695
0.861502
0.866447
0.879875
0.888134
0.887238
0.830899
0.794244
0.862173
0.862011
0.861821
0.861621
0.861451
0.861276
0.860999
0.860598
0.859976
0.859391
0.858646
0.85762
0.856814
0.856269
0.855862
0.855553
0.855347
0.855276
0.855249
0.855087
0.854917
0.854625
0.854127
0.853727
0.852763
0.852375
0.852101
0.852798
0.854894
0.857162
0.860364
0.86554
0.868499
0.875894
0.88282
0.891269
0.874719
0.794134
0.86226
0.86211
0.861959
0.861789
0.861596
0.861365
0.861057
0.860727
0.860262
0.859705
0.859032
0.858461
0.857802
0.857245
0.856902
0.856475
0.856216
0.856111
0.85618
0.85603
0.855851
0.855537
0.855186
0.854579
0.853946
0.851902
0.849569
0.845266
0.840764
0.838803
0.838795
0.845554
0.852788
0.865647
0.877564
0.893073
0.906174
0.907347
0.862204
0.862058
0.861901
0.861719
0.861513
0.861303
0.861014
0.860693
0.860273
0.859814
0.859262
0.858713
0.858202
0.857687
0.857379
0.857124
0.856941
0.856819
0.856806
0.856768
0.856822
0.856514
0.856044
0.855184
0.853693
0.851731
0.848958
0.847575
0.846465
0.845833
0.849094
0.849072
0.852376
0.855412
0.86973
0.882353
0.898928
0.966776
0.862248
0.862099
0.861964
0.861776
0.861586
0.861354
0.861079
0.860762
0.860398
0.859975
0.85946
0.859045
0.858592
0.858204
0.857889
0.857671
0.857619
0.857469
0.857524
0.857502
0.857667
0.85755
0.857339
0.856459
0.854494
0.850301
0.843164
0.830794
0.815808
0.809399
0.814582
0.823473
0.827651
0.806474
0.779441
0.786946
0.79681
0.84677
0.862226
0.862074
0.861944
0.861749
0.861565
0.861338
0.861086
0.8608
0.860453
0.860096
0.859594
0.859183
0.858855
0.858563
0.858314
0.858185
0.8581
0.858
0.857928
0.858129
0.858439
0.858588
0.858679
0.858167
0.856633
0.853142
0.84687
0.839692
0.833692
0.827579
0.833456
0.837388
0.8346
0.833931
0.822146
0.80787
0.820031
0.894903
0.862242
0.862084
0.86197
0.86176
0.861594
0.861355
0.861127
0.860838
0.860532
0.86015
0.859618
0.859241
0.858963
0.858646
0.858398
0.858386
0.858412
0.858312
0.858328
0.858703
0.859143
0.859444
0.85995
0.860194
0.858975
0.854129
0.841876
0.816799
0.764447
0.746567
0.790836
0.821726
0.778253
0.678733
0.583453
0.493392
0.401449
0.398895
0.86224
0.862085
0.861965
0.861764
0.861573
0.861354
0.861128
0.860959
0.86054
0.860191
0.859537
0.859054
0.859051
0.858973
0.858666
0.858565
0.858481
0.858443
0.858477
0.858938
0.859407
0.859979
0.861123
0.862443
0.863594
0.862129
0.855204
0.836846
0.806402
0.80372
0.856402
0.910775
0.917451
0.859858
0.804975
0.7962
0.796503
0.843678
0.861793
0.861588
0.86129
0.861015
0.860985
0.860905
0.860774
0.860666
0.860311
0.859887
0.858765
0.85603
0.854255
0.853595
0.852006
0.851414
0.851305
0.851502
0.852377
0.852869
0.853032
0.852026
0.85097
0.85162
0.855328
0.860597
0.865102
0.868818
0.87147
0.872863
0.873609
0.873296
0.871599
0.858363
0.854884
0.800364
0.710667
0.977054
0.861734
0.86205
0.861274
0.860813
0.860877
0.860721
0.8605
0.860385
0.859986
0.859206
0.857656
0.853974
0.852877
0.854216
0.852628
0.85164
0.851665
0.851418
0.852185
0.852802
0.852519
0.850601
0.847957
0.847322
0.850497
0.8553
0.859516
0.863772
0.866086
0.868504
0.869499
0.872138
0.871611
0.867318
0.866246
0.824047
0.762148
0.805641
0.862273
0.861985
0.86169
0.861592
0.861411
0.861032
0.860521
0.860106
0.859614
0.858928
0.857896
0.856525
0.85539
0.854486
0.853381
0.852644
0.852505
0.852566
0.852853
0.853036
0.852828
0.852153
0.851539
0.851813
0.853483
0.85578
0.85797
0.860802
0.862661
0.865336
0.864983
0.86903
0.869112
0.874238
0.88641
0.859178
0.924238
0.868658
0.86213
0.861949
0.861662
0.861399
0.861323
0.861226
0.86098
0.860406
0.85952
0.858634
0.857612
0.856362
0.855411
0.854941
0.854382
0.853857
0.853642
0.853555
0.853609
0.853502
0.853401
0.852757
0.852095
0.851653
0.852388
0.85361
0.855498
0.857924
0.859914
0.863374
0.8662
0.870868
0.871968
0.877738
0.875509
0.881508
0.819385
0.882821
0.862267
0.862086
0.861917
0.861771
0.86159
0.861341
0.860999
0.860663
0.860033
0.859173
0.858181
0.857199
0.856452
0.85581
0.85525
0.854825
0.854563
0.854462
0.854462
0.854386
0.854168
0.853953
0.853737
0.853643
0.854005
0.854134
0.855053
0.855083
0.854923
0.856175
0.856813
0.860345
0.864691
0.874291
0.881274
0.881354
0.879452
0.850348
0.862181
0.862023
0.861841
0.861645
0.861463
0.861269
0.860983
0.860588
0.860014
0.859379
0.858647
0.857753
0.856979
0.856402
0.855976
0.855621
0.855398
0.855288
0.855265
0.8551
0.854945
0.854617
0.854152
0.853694
0.852945
0.852535
0.852166
0.852578
0.854526
0.856928
0.859853
0.864513
0.866746
0.874427
0.879031
0.884713
0.870914
0.849845
0.862266
0.862119
0.861968
0.861797
0.861602
0.861365
0.861058
0.86071
0.860246
0.859709
0.859056
0.858451
0.857814
0.857264
0.856892
0.856519
0.856284
0.856149
0.856171
0.856043
0.855917
0.8556
0.855278
0.854627
0.853924
0.852154
0.849827
0.845794
0.841491
0.839303
0.839951
0.845628
0.851877
0.861639
0.871403
0.883488
0.885796
0.889383
0.862212
0.862068
0.861914
0.861731
0.861529
0.861307
0.861021
0.860689
0.860269
0.859805
0.859256
0.85872
0.85821
0.857726
0.857405
0.857149
0.856992
0.856869
0.856856
0.856805
0.856842
0.856573
0.856148
0.855312
0.853826
0.851818
0.849149
0.847466
0.846575
0.84532
0.848728
0.85045
0.854006
0.858726
0.865918
0.87469
0.886817
0.924202
0.862252
0.862106
0.86197
0.861783
0.861595
0.861357
0.861086
0.860765
0.860393
0.859984
0.859468
0.859046
0.858598
0.858208
0.8579
0.857687
0.857638
0.857521
0.857578
0.857574
0.857733
0.857633
0.857447
0.856598
0.854743
0.85067
0.843913
0.832073
0.817242
0.81069
0.815249
0.824162
0.828546
0.819518
0.789314
0.780976
0.781333
0.805217
0.862232
0.862083
0.861954
0.861758
0.86158
0.861344
0.861096
0.860807
0.860446
0.860104
0.859613
0.859231
0.858874
0.858565
0.858319
0.85818
0.858101
0.858026
0.857999
0.858214
0.858527
0.858704
0.85883
0.858379
0.856833
0.853324
0.847119
0.839537
0.832552
0.826205
0.835074
0.843319
0.842124
0.840512
0.833605
0.827934
0.83899
0.872489
0.862247
0.862093
0.861977
0.861767
0.861609
0.861348
0.861138
0.860838
0.860513
0.860142
0.859633
0.859339
0.858969
0.858651
0.858382
0.858333
0.858404
0.858361
0.858407
0.858784
0.859228
0.85958
0.860189
0.860555
0.859365
0.854572
0.843789
0.820021
0.768332
0.746916
0.788095
0.826823
0.799071
0.709099
0.603005
0.514539
0.431877
0.384745
0.862247
0.862094
0.861978
0.861777
0.861605
0.861357
0.861132
0.860925
0.860512
0.860158
0.859699
0.859393
0.859115
0.858861
0.858678
0.85856
0.858466
0.858431
0.858497
0.858967
0.859541
0.860152
0.861425
0.862812
0.863824
0.861983
0.855263
0.83724
0.805613
0.799737
0.848267
0.903618
0.926547
0.896652
0.832001
0.789604
0.769028
0.807801
0.861937
0.861556
0.86139
0.861124
0.861049
0.860981
0.86083
0.860663
0.860217
0.859614
0.85831
0.855722
0.854063
0.853334
0.85173
0.851192
0.851272
0.851499
0.852268
0.852546
0.852436
0.851383
0.850407
0.851315
0.854973
0.859982
0.86445
0.86827
0.87093
0.872543
0.873331
0.873818
0.871965
0.866184
0.86613
0.82267
0.82906
0.878653
0.861565
0.861684
0.861418
0.861043
0.861064
0.860925
0.860688
0.860494
0.859989
0.859122
0.857461
0.8539
0.852606
0.853863
0.852266
0.851214
0.851518
0.851429
0.852155
0.852591
0.851992
0.849945
0.847482
0.847249
0.850411
0.854913
0.859108
0.863265
0.865696
0.868058
0.869013
0.87172
0.870213
0.868381
0.865599
0.828519
0.80185
0.78383
0.862256
0.862004
0.861773
0.861618
0.86142
0.861123
0.860666
0.860228
0.859669
0.858898
0.857795
0.856357
0.85517
0.854234
0.853115
0.852427
0.8524
0.852489
0.852747
0.852836
0.852482
0.851694
0.851028
0.851283
0.852953
0.855315
0.857678
0.860419
0.862345
0.864766
0.864849
0.868536
0.86785
0.873031
0.875627
0.862891
0.862576
0.868936
0.862135
0.861951
0.861715
0.86148
0.861367
0.861238
0.860954
0.860433
0.859592
0.858672
0.857614
0.856309
0.855311
0.854812
0.85422
0.853693
0.853519
0.853455
0.853506
0.853411
0.853195
0.852538
0.851855
0.851548
0.852226
0.853539
0.855336
0.857458
0.859404
0.862297
0.8651
0.869188
0.86984
0.874321
0.871102
0.864908
0.833618
0.808188
0.862283
0.862112
0.861947
0.861793
0.861606
0.861362
0.861017
0.860627
0.860012
0.859172
0.858206
0.857266
0.85648
0.855808
0.85523
0.854798
0.854552
0.854453
0.854431
0.854345
0.854113
0.853832
0.853607
0.853514
0.853845
0.854107
0.854852
0.855125
0.855073
0.855935
0.856468
0.859298
0.862791
0.870457
0.873982
0.874148
0.858753
0.856288
0.862196
0.862043
0.861868
0.861678
0.861489
0.861281
0.860986
0.860585
0.860014
0.859358
0.858619
0.857769
0.857003
0.856417
0.85598
0.855631
0.855418
0.855298
0.855257
0.855104
0.854937
0.854603
0.854166
0.85369
0.853089
0.852601
0.852227
0.852423
0.854108
0.856376
0.858999
0.862851
0.865085
0.870272
0.872962
0.873412
0.862154
0.846694
0.862275
0.862132
0.861982
0.861811
0.861616
0.861376
0.861069
0.860708
0.860243
0.859702
0.859058
0.858439
0.857817
0.857279
0.856889
0.856541
0.856328
0.85619
0.856181
0.856067
0.855947
0.855644
0.855314
0.854673
0.853935
0.852316
0.850112
0.84634
0.84214
0.83989
0.840631
0.845237
0.850667
0.858124
0.863466
0.868507
0.867877
0.87108
0.862224
0.862083
0.861931
0.86175
0.86155
0.86132
0.861035
0.860697
0.860275
0.859808
0.85926
0.858726
0.858222
0.85776
0.857433
0.85718
0.857039
0.85692
0.856906
0.856854
0.856872
0.856634
0.856237
0.855417
0.85398
0.851943
0.849333
0.847389
0.846412
0.844807
0.847948
0.850695
0.85385
0.856863
0.862495
0.86796
0.876417
0.893483
0.862259
0.862117
0.861981
0.861794
0.86161
0.861366
0.8611
0.860774
0.860398
0.860001
0.859483
0.859049
0.858606
0.858223
0.857925
0.857716
0.85767
0.857577
0.857634
0.857649
0.857801
0.857724
0.85756
0.856745
0.854979
0.851089
0.844751
0.833591
0.819102
0.811906
0.815642
0.824663
0.830013
0.823765
0.800563
0.785363
0.777474
0.784756
0.862241
0.862096
0.861966
0.861772
0.861599
0.861356
0.861117
0.860816
0.860452
0.860132
0.859637
0.859246
0.858893
0.858583
0.858341
0.858189
0.858109
0.858057
0.858087
0.858307
0.858622
0.858838
0.858998
0.858604
0.857045
0.853578
0.847561
0.839669
0.831725
0.824871
0.83435
0.845608
0.847791
0.845956
0.842036
0.840286
0.852747
0.860382
0.862255
0.862104
0.861987
0.86178
0.861625
0.861358
0.861154
0.860826
0.860528
0.860166
0.859644
0.859307
0.858961
0.858669
0.858403
0.858328
0.858403
0.858397
0.858495
0.858871
0.85931
0.859754
0.860465
0.860915
0.859686
0.855058
0.845898
0.823872
0.773589
0.747567
0.784142
0.829337
0.8182
0.750411
0.644238
0.549104
0.490166
0.436395
0.862254
0.862104
0.861989
0.861798
0.861646
0.861421
0.861171
0.860861
0.860513
0.860257
0.859702
0.859363
0.85914
0.858862
0.858699
0.858547
0.858443
0.858441
0.858574
0.859041
0.859664
0.860374
0.861789
0.863188
0.863955
0.861831
0.855484
0.838427
0.806156
0.795812
0.839088
0.893689
0.92585
0.922217
0.878153
0.820868
0.81389
0.852279
0.861996
0.861584
0.86146
0.861211
0.861127
0.861092
0.860911
0.860677
0.860133
0.859267
0.857948
0.85552
0.853866
0.853005
0.851452
0.850995
0.85126
0.851519
0.85215
0.852234
0.851887
0.850765
0.849864
0.850954
0.854512
0.859266
0.863697
0.867595
0.870307
0.872092
0.872987
0.873891
0.872372
0.869275
0.868583
0.84006
0.825301
0.879402
0.861789
0.861552
0.861395
0.861121
0.861191
0.861123
0.860876
0.860599
0.859968
0.858932
0.857082
0.853869
0.852595
0.853575
0.85191
0.850881
0.851396
0.851473
0.852115
0.852368
0.851478
0.849342
0.847083
0.847106
0.850195
0.854414
0.858556
0.862675
0.86521
0.867564
0.868521
0.871045
0.869455
0.869506
0.863802
0.842484
0.818243
0.795683
0.862284
0.862028
0.861844
0.861667
0.861456
0.861221
0.860855
0.86042
0.859774
0.858854
0.857632
0.856137
0.854951
0.853985
0.852893
0.852271
0.85234
0.852447
0.852659
0.852655
0.852158
0.851267
0.850573
0.850811
0.852478
0.854866
0.857351
0.860149
0.861992
0.864424
0.864783
0.867723
0.867137
0.870395
0.872909
0.85906
0.876186
0.862929
0.862177
0.861981
0.861768
0.861558
0.861427
0.861283
0.860982
0.860491
0.859724
0.858766
0.857605
0.856264
0.855222
0.854678
0.854053
0.85354
0.853407
0.853371
0.853413
0.853306
0.853001
0.852298
0.85165
0.851366
0.852121
0.85336
0.855055
0.857083
0.858801
0.861457
0.86399
0.867466
0.868048
0.871739
0.868129
0.86329
0.841483
0.835095
0.862306
0.862144
0.861985
0.861827
0.861639
0.861401
0.861069
0.860664
0.860066
0.859287
0.858375
0.85738
0.856521
0.855798
0.855197
0.854767
0.854542
0.854449
0.854411
0.854304
0.854049
0.853718
0.853477
0.853373
0.8537
0.854016
0.854711
0.85511
0.855165
0.855848
0.856137
0.85838
0.861211
0.866795
0.869199
0.86875
0.864645
0.858335
0.862219
0.86207
0.861902
0.861719
0.861527
0.861309
0.86101
0.860604
0.860045
0.859377
0.858622
0.857796
0.857046
0.856453
0.856004
0.855655
0.855447
0.855321
0.855266
0.855118
0.854937
0.854598
0.854178
0.853698
0.853175
0.852674
0.852283
0.852304
0.853657
0.855669
0.857798
0.861255
0.86345
0.867483
0.869044
0.868033
0.859542
0.850253
0.862288
0.862149
0.862002
0.861832
0.861637
0.861396
0.861091
0.860722
0.860256
0.859716
0.859082
0.858466
0.85784
0.857302
0.8569
0.856568
0.856369
0.856233
0.856202
0.856094
0.855974
0.855683
0.855349
0.854726
0.853966
0.852483
0.850427
0.846914
0.842852
0.840485
0.841273
0.844778
0.849459
0.855222
0.859149
0.860951
0.859306
0.858846
0.86224
0.862102
0.861953
0.861774
0.861576
0.861341
0.861058
0.860714
0.860292
0.859825
0.859275
0.858739
0.858243
0.857794
0.857466
0.857216
0.857081
0.85697
0.856956
0.856906
0.856906
0.856693
0.856317
0.855522
0.854138
0.852102
0.849544
0.847366
0.846063
0.844312
0.847152
0.850696
0.854115
0.856749
0.860143
0.864181
0.869479
0.875774
0.862268
0.86213
0.861994
0.86181
0.861628
0.861381
0.861119
0.86079
0.860412
0.860024
0.859504
0.859064
0.858624
0.858249
0.857961
0.857755
0.857705
0.85763
0.85769
0.857722
0.857865
0.857816
0.857664
0.856891
0.855195
0.851547
0.845674
0.835301
0.821406
0.813183
0.815772
0.8248
0.831068
0.828158
0.812264
0.794286
0.779947
0.78012
0.862252
0.86211
0.861981
0.86179
0.86162
0.861371
0.86114
0.860829
0.860474
0.860163
0.859667
0.859283
0.858928
0.858614
0.858368
0.858204
0.858126
0.858107
0.858183
0.858402
0.858721
0.858978
0.859168
0.858821
0.85725
0.853912
0.848216
0.840169
0.831352
0.823778
0.83307
0.84698
0.852333
0.851683
0.849205
0.847891
0.860005
0.850363
0.862263
0.862116
0.862
0.861795
0.861646
0.861368
0.861174
0.860828
0.86056
0.860203
0.859713
0.85936
0.858953
0.858692
0.858441
0.858347
0.858415
0.858438
0.858586
0.858955
0.859406
0.859951
0.860759
0.861226
0.859915
0.855592
0.84808
0.828196
0.780229
0.748678
0.779139
0.829114
0.832631
0.789594
0.701683
0.592068
0.535483
0.512379
0.862262
0.862116
0.862
0.861806
0.861663
0.861418
0.861193
0.860864
0.860555
0.860327
0.859712
0.859389
0.859173
0.858838
0.858689
0.858525
0.858439
0.858482
0.85868
0.859151
0.859793
0.860641
0.862155
0.86357
0.863968
0.861701
0.855909
0.840324
0.808163
0.792624
0.829503
0.882479
0.919038
0.934181
0.919855
0.872793
0.857744
0.886243
0.86215
0.86163
0.861535
0.861298
0.861206
0.861237
0.861037
0.860749
0.860074
0.85881
0.857324
0.855244
0.853675
0.852661
0.851203
0.850851
0.851279
0.851556
0.852042
0.85195
0.851397
0.850199
0.849351
0.850545
0.853942
0.858438
0.862815
0.866761
0.869552
0.87149
0.872507
0.873646
0.872491
0.8718
0.870156
0.851621
0.849032
0.85879
0.862123
0.861686
0.861414
0.861123
0.861238
0.861272
0.861033
0.8607
0.859946
0.858685
0.856558
0.853732
0.852677
0.853253
0.851567
0.850648
0.851328
0.851526
0.85208
0.85215
0.851001
0.848798
0.846717
0.846967
0.849832
0.853774
0.857838
0.861897
0.864529
0.866866
0.867934
0.870197
0.86894
0.86925
0.86395
0.843927
0.833424
0.795106
0.862329
0.862073
0.861913
0.861723
0.861512
0.861315
0.860975
0.86052
0.859801
0.858748
0.857404
0.855887
0.854712
0.853714
0.852686