/*--------------------------------*- C++ -*----------------------------------*\
| =========                 |                                                 |
| \\      /  F ield         | OpenFOAM: The Open Source CFD Toolbox           |
|  \\    /   O peration     | Version:  2.3.1                                 |
|   \\  /    A nd           | Web:      www.OpenFOAM.org                      |
|    \\/     M anipulation  |                                                 |
\*---------------------------------------------------------------------------*/
FoamFile
{
    version     2.0;
    format      ascii;
    class       surfaceScalarField;
    location    "15";
    object      phi;
}
// * * * * * * * * * * * * * * * * * * * * * * * * * * * * * * * * * * * * * //

dimensions      [0 3 -1 0 0 0 0];

internalField   nonuniform List<scalar> 
110130
(
-3.26093e-05
-2.35842e-06
1.62254e-06
-3.19803e-05
2.96208e-07
-9.25207e-07
-3.40107e-05
6.71442e-06
-4.68405e-06
-3.45775e-05
5.73845e-06
-5.17167e-06
-2.92616e-05
-6.46651e-07
-4.6692e-06
-2.62912e-05
3.86579e-06
-6.83622e-06
-2.73576e-05
9.98352e-06
-8.91715e-06
-2.70858e-05
9.52118e-06
-9.79292e-06
-2.56976e-05
8.05242e-06
-9.44065e-06
-2.46278e-05
6.95994e-06
-8.02978e-06
-2.53557e-05
2.94296e-06
-2.21502e-06
-3.14542e-05
-1.02569e-06
7.12418e-06
-3.4947e-05
-1.61134e-07
3.65396e-06
-3.51259e-05
-6.31172e-07
8.10052e-07
-4.06139e-05
-1.36708e-06
6.85508e-06
-4.18959e-05
-2.78914e-07
1.56092e-06
-3.9126e-05
-2.50111e-06
-2.68774e-07
-3.88953e-05
-5.50921e-06
5.27853e-06
-3.32498e-05
-7.562e-06
1.91653e-06
-2.79098e-05
-9.48859e-06
4.14856e-06
-2.89017e-05
-7.82311e-06
8.81495e-06
-3.30455e-05
-4.85513e-06
8.99898e-06
-3.98933e-05
-5.99825e-06
1.2846e-05
-4.15789e-05
-1.04443e-05
1.213e-05
-3.39866e-05
-1.90857e-05
1.14934e-05
-2.55994e-05
-2.47278e-05
1.63406e-05
-1.86206e-05
-2.92271e-05
2.22483e-05
-9.64779e-06
-3.05207e-05
2.15478e-05
-2.90486e-06
-2.87574e-05
2.20144e-05
8.37301e-07
-2.43494e-05
2.06072e-05
6.60503e-06
-2.64786e-05
2.07108e-05
5.77079e-06
-1.89087e-05
1.9743e-05
1.54002e-05
-3.74511e-05
2.78217e-05
-3.76428e-06
-1.92359e-05
3.84004e-05
-2.58254e-05
2.94079e-05
-7.34683e-06
0.000138548
0.000100514
-0.000264888
-0.000110563
0.000239586
9.52597e-06
0.000148187
-0.000587116
-2.32954e-05
3.02729e-06
7.93977e-06
-3.67449e-05
1.41398e-06
1.23317e-05
-3.38727e-05
7.43023e-07
3.09918e-06
-2.44973e-05
-5.01035e-07
-3.13594e-06
-2.22848e-05
-1.20325e-06
-1.65586e-06
-2.21527e-05
5.46816e-06
-1.73448e-06
-2.0251e-05
1.44645e-05
-6.38275e-06
-1.72691e-05
1.64001e-05
-9.86072e-06
-1.16902e-05
1.43208e-05
-1.18473e-05
-3.30891e-06
1.33874e-05
-1.48088e-05
4.71934e-06
1.23674e-05
-1.74527e-05
8.59416e-06
9.11796e-06
-1.40185e-05
8.72778e-06
5.99753e-06
-6.29229e-06
9.41197e-06
3.51247e-06
-4.82784e-06
1.05318e-05
1.06746e-06
-3.55432e-06
1.21025e-05
-1.6209e-06
-2.28707e-07
1.43613e-05
-3.86655e-06
-8.93432e-07
1.69601e-05
-6.53271e-06
-1.57526e-06
2.03753e-05
-7.97531e-06
-3.00189e-06
2.34562e-05
-9.15498e-06
-3.41455e-06
2.70771e-05
-9.09796e-06
-2.34605e-06
3.09311e-05
-7.66862e-06
-1.04045e-06
3.63698e-05
-1.11334e-05
-3.03619e-07
3.9669e-05
-1.52985e-05
1.55493e-06
3.69373e-05
-2.10768e-05
4.72277e-06
3.50962e-05
-3.20455e-05
9.15884e-06
2.88042e-05
-3.50787e-05
1.21436e-05
2.30685e-05
-3.25813e-05
7.7963e-06
2.99584e-05
-3.0081e-05
-5.56624e-06
2.74945e-05
-2.38346e-05
1.94915e-06
3.73933e-05
-2.74211e-05
-8.95626e-06
3.20106e-05
-1.59042e-05
2.37808e-06
2.98457e-05
-3.16773e-05
-3.60889e-06
-4.29127e-05
-1.81949e-07
5.37044e-05
-0.00018781
6.59471e-05
0.000108358
-0.000312929
0.00022888
-3.2456e-06
0.000124523
4.30334e-05
-0.0002409
-0.000368984
0.000288153
7.10911e-07
5.23291e-06
-3.38246e-06
-5.24468e-07
5.23532e-06
-2.58595e-06
-5.20742e-06
4.09194e-06
1.33403e-06
-1.46046e-05
1.87745e-06
7.01873e-06
-2.58471e-05
8.68759e-08
9.95234e-06
-2.84515e-05
1.78112e-06
6.29141e-06
-2.03482e-05
5.90227e-06
4.59034e-07
-1.0894e-05
1.21205e-05
-5.17475e-06
-5.89735e-06
1.80073e-05
-8.68318e-06
-3.26275e-06
1.91017e-05
-8.34883e-06
1.52062e-06
1.74683e-05
-9.88423e-06
6.96756e-06
1.41977e-05
-1.05266e-05
1.12668e-05
1.05803e-05
-8.88199e-06
1.47172e-05
7.72079e-06
-7.6588e-06
1.69413e-05
5.08117e-06
-6.23776e-06
1.85241e-05
2.51767e-06
-5.72139e-06
1.96108e-05
1.8035e-07
-5.13363e-06
1.93105e-05
-2.14107e-06
-4.09135e-06
1.88143e-05
-3.23749e-06
-4.24152e-06
1.95299e-05
-5.34492e-06
-4.5257e-06
1.86238e-05
-3.88231e-06
-4.30957e-06
1.81857e-05
-5.3145e-06
-1.91597e-06
1.646e-05
-6.46985e-06
-2.93789e-06
1.08896e-05
-8.74709e-06
-9.8099e-07
-7.66965e-06
-1.03949e-05
7.87737e-06
-1.91315e-05
-2.24301e-05
1.84643e-06
-1.98363e-05
-1.79617e-05
-1.64122e-05
-1.09246e-05
-1.96954e-05
-2.17976e-05
-1.36801e-06
-1.11026e-05
-2.8535e-05
1.15392e-05
-1.00945e-05
-2.66473e-05
1.50452e-05
-1.07105e-05
-2.02167e-05
2.13221e-05
-6.15926e-06
-1.60218e-05
2.84881e-05
-1.88457e-05
-1.99975e-05
1.33608e-05
2.45433e-05
-9.59797e-06
-2.73739e-05
5.65418e-05
5.01399e-05
0.000152104
5.53598e-05
-5.95761e-06
0.000118051
-7.72295e-05
0.000154316
0.000546089
-0.000542874
2.05141e-06
5.65471e-06
-2.05027e-06
4.25915e-06
5.13364e-06
-2.10606e-06
5.7754e-06
3.77879e-06
-1.2031e-06
5.59765e-06
3.80022e-06
-1.74502e-06
3.32423e-06
2.41828e-06
-5.798e-08
-1.87949e-06
3.634e-06
3.35083e-06
-1.15153e-05
2.7066e-06
1.28315e-05
-1.72783e-05
4.70938e-06
1.31741e-05
-1.0545e-05
1.12237e-05
5.03067e-08
-9.53295e-07
1.68587e-05
-7.34871e-06
4.25528e-06
2.02466e-05
-7.98685e-06
7.95122e-06
1.89061e-05
-8.4044e-06
1.08406e-05
1.60396e-05
-8.34865e-06
1.35651e-05
1.39243e-05
-8.928e-06
1.48518e-05
1.15691e-05
-7.77455e-06
1.56176e-05
8.60017e-06
-6.84827e-06
1.72525e-05
5.5721e-06
-7.02671e-06
1.66148e-05
4.34478e-06
-5.84811e-06
1.77557e-05
-5.31301e-07
-3.84716e-06
1.98019e-05
2.24763e-06
-9.63867e-06
2.02006e-05
-2.18701e-06
-2.09403e-06
2.54846e-05
-4.0574e-06
-6.54113e-06
2.87703e-05
-6.82397e-06
-2.93159e-06
3.77431e-05
-1.27245e-06
-1.64474e-05
3.52281e-05
-6.67169e-06
-1.20821e-06
4.87751e-05
-1.14694e-05
-2.45077e-05
5.02411e-05
1.46045e-06
-2.08882e-05
5.52989e-05
-2.05176e-05
-4.23553e-06
5.4919e-05
9.47134e-06
-2.01941e-05
5.84665e-05
-6.19353e-06
-7.44854e-06
5.59228e-05
-2.102e-05
1.28533e-05
5.40293e-05
8.30673e-06
-1.25726e-05
6.87226e-05
-1.96225e-05
-1.39166e-05
4.20854e-05
4.62524e-05
4.92819e-06
4.27994e-05
2.74731e-05
2.83547e-05
-1.24952e-05
-9.91777e-05
0.000209832
-0.000149026
0.000244246
-0.000184944
0.000722699
-0.000126622
3.18606e-06
4.327e-06
1.15781e-07
4.86362e-06
4.19599e-06
-7.39916e-07
5.6911e-06
3.40231e-06
-4.50995e-07
7.08269e-06
2.84077e-06
-4.32148e-07
8.07017e-06
1.26588e-06
1.64923e-07
7.97668e-06
2.94373e-06
7.8376e-07
6.76936e-06
2.45205e-06
1.46187e-06
7.66793e-09
3.9518e-06
7.51926e-06
-8.31901e-06
6.73529e-06
1.28151e-05
-9.13224e-06
8.8295e-06
8.84239e-06
-4.19101e-06
1.44722e-05
8.3309e-07
1.75462e-06
1.5516e-05
-2.55555e-06
6.06219e-06
1.53463e-05
-3.61427e-06
9.28153e-06
1.39709e-05
-3.26602e-06
1.13746e-05
1.23156e-05
-2.8396e-06
1.19728e-05
9.22323e-06
-1.22132e-06
1.30796e-05
6.51326e-06
-2.04787e-06
1.40215e-05
4.05901e-06
-6.56179e-07
1.60486e-05
-3.85374e-07
-2.173e-06
1.46586e-05
1.95216e-06
1.68542e-06
1.82349e-05
-9.3901e-07
-4.8243e-06
1.87521e-05
-4.24483e-06
-3.29749e-07
1.79457e-05
-3.99068e-06
-2.02693e-06
2.09119e-05
-3.71741e-06
-5.21178e-07
2.03781e-05
-1.17514e-05
5.61349e-06
2.48625e-05
-9.76525e-07
-1.49772e-05
2.03622e-05
-1.47398e-05
2.07006e-05
2.66509e-05
-1.99734e-05
-6.83294e-06
4.11259e-05
9.04283e-06
-1.40465e-05
1.83578e-05
-1.96371e-05
3.62118e-05
1.64925e-05
-4.1367e-06
-1.5018e-05
3.54328e-05
2.79278e-06
-1.34264e-05
3.61998e-05
-1.15953e-06
-1.92299e-05
3.8231e-05
2.64975e-05
1.77237e-05
2.94614e-05
5.12467e-05
-1.5004e-05
-6.84759e-05
-4.50575e-06
3.26532e-06
-0.000181139
0.000264207
9.27023e-05
0.000767991
-5.17557e-05
6.52584e-06
2.51181e-06
1.07534e-06
7.59602e-06
2.7615e-06
3.64314e-07
8.57939e-06
2.16801e-06
2.50929e-07
1.00547e-05
1.65244e-06
-2.87002e-07
1.0451e-05
1.38932e-06
-5.19677e-07
1.06334e-05
2.31587e-06
4.4538e-07
1.26929e-05
5.97972e-07
-2.05404e-07
1.16507e-05
2.4727e-06
2.52133e-06
9.69821e-06
4.70312e-06
3.98463e-06
5.65836e-06
4.17831e-06
8.69105e-06
2.10558e-07
7.30903e-06
1.2611e-05
-1.10525e-06
7.74673e-06
9.08512e-06
-1.64233e-06
1.04896e-05
5.3938e-06
2.30415e-07
7.96022e-06
4.13797e-06
2.60786e-06
6.66172e-06
3.27645e-06
4.26841e-06
5.49434e-06
2.06834e-06
6.8801e-06
2.57223e-06
1.32934e-06
1.10213e-05
-1.15368e-06
1.07153e-06
1.16703e-05
-2.68843e-06
1.65406e-06
1.73542e-05
-3.76197e-06
3.01805e-08
1.66845e-05
1.39315e-06
-1.66249e-06
1.89552e-05
-3.77755e-06
-2.73792e-06
1.94596e-05
1.3862e-06
-5.88129e-06
2.22353e-05
-9.5906e-06
3.09748e-06
3.30154e-05
-9.36749e-06
-1.3164e-05
2.67085e-05
7.08591e-06
-1.75551e-06
3.66694e-05
-1.25918e-05
-1.2109e-05
3.9843e-05
-3.01673e-06
-2.01303e-05
3.14867e-05
1.7758e-05
-3.58857e-07
3.0181e-05
-1.90694e-05
7.37936e-07
2.17891e-05
4.01222e-05
-3.5867e-05
1.5233e-05
-4.68233e-06
1.40312e-05
1.06628e-05
2.4052e-05
-2.06413e-05
2.87672e-05
-4.91829e-05
5.7576e-05
3.41797e-05
7.31432e-05
-2.7309e-05
-3.35854e-05
8.98617e-05
-2.66024e-05
-0.000125194
0.000256135
9.96802e-05
0.000706241
6.61126e-05
8.60825e-06
1.44403e-06
4.96182e-07
9.43943e-06
1.79672e-06
1.33609e-07
9.90566e-06
1.62535e-06
7.6431e-08
1.07879e-05
8.38175e-07
-6.79955e-08
1.15649e-05
1.16271e-06
-5.50357e-07
1.22518e-05
1.43295e-06
1.96027e-07
1.2742e-05
8.33198e-07
-7.25425e-07
1.40593e-05
6.86716e-07
4.68655e-07
1.4919e-05
3.03751e-06
8.05924e-07
1.47033e-05
2.41889e-06
1.97511e-06
1.61758e-05
2.01171e-06
3.82483e-06
1.38017e-05
3.06048e-06
7.06035e-06
1.2498e-05
6.90897e-06
4.88429e-06
1.47706e-05
2.00178e-06
3.68582e-06
1.47044e-05
1.46725e-07
6.58126e-06
1.42823e-05
1.22785e-06
4.68855e-06
1.67943e-05
8.40373e-07
-7.80156e-07
2.04252e-05
-3.8548e-06
-9.29729e-07
1.84519e-05
-4.9937e-06
4.27856e-06
1.73566e-05
-6.077e-06
3.41028e-06
1.70251e-05
-2.2641e-06
3.98875e-06
1.79643e-05
-2.48468e-06
-2.23204e-06
2.04427e-05
-2.75426e-06
1.66202e-06
2.79032e-05
-4.73313e-06
-1.23179e-05
1.79079e-05
-6.81617e-06
7.44401e-06
2.81426e-05
-3.2615e-06
1.12689e-07
3.11248e-05
-6.91303e-06
-8.66101e-06
3.8659e-05
-8.92095e-06
-1.62995e-06
3.80864e-05
1.00566e-05
8.27399e-06
3.50001e-05
-6.68449e-06
-9.29863e-06
5.03697e-05
3.06942e-05
-5.94151e-06
5.07291e-05
3.04455e-05
-3.54873e-05
4.99666e-05
5.59687e-05
-3.11542e-05
2.79039e-05
8.33719e-06
-3.54574e-05
4.87667e-06
5.29339e-05
4.32366e-05
-3.39829e-05
0.000121453
7.26841e-06
-8.30657e-05
0.000255269
4.99482e-05
0.000579224
0.000118647
9.24965e-06
8.21537e-07
-8.18703e-08
9.87247e-06
1.44989e-06
-2.7599e-07
1.06357e-05
1.26326e-06
-4.0111e-07
1.11855e-05
4.57685e-07
-1.69318e-07
1.23178e-05
1.30518e-06
-1.27482e-06
1.22897e-05
1.15479e-06
3.06323e-07
1.36926e-05
8.17918e-07
-1.38769e-06
1.50671e-05
-3.72402e-07
-3.15373e-07
1.48713e-05
3.02512e-06
2.08218e-07
1.72682e-05
3.27251e-07
-3.05251e-07
1.97317e-05
-4.44691e-07
-7.11738e-09
1.93898e-05
1.17686e-06
2.22553e-06
1.93716e-05
3.58801e-06
3.33918e-06
2.24046e-05
-7.37191e-07
-2.94036e-07
2.52357e-05
-3.85837e-06
1.17394e-06
2.357e-05
-7.16963e-07
3.61057e-06
2.32403e-05
1.78209e-07
9.91815e-07
2.55848e-05
-5.19363e-06
-1.00562e-06
2.78461e-05
-5.13071e-06
-2.12432e-06
2.926e-05
-8.38173e-06
8.90837e-07
2.3142e-05
-2.35735e-06
6.2113e-06
2.05493e-05
-2.3227e-06
2.4307e-06
2.36869e-05
-6.69959e-06
8.07678e-07
2.69239e-05
-2.50673e-06
-5.46338e-06
2.85805e-05
-6.71169e-06
-1.76101e-06
2.97478e-05
-8.74408e-06
4.31521e-06
3.47641e-05
-5.50054e-06
-6.42874e-06
2.8707e-05
-7.09154e-06
4.22762e-06
3.14444e-05
6.41046e-06
9.08781e-07
3.1881e-05
4.41161e-06
-1.15327e-05
1.99445e-06
2.62892e-05
3.42915e-05
5.55677e-07
2.7341e-05
4.54328e-06
1.22045e-05
3.37461e-05
1.05739e-05
2.12022e-05
8.09215e-05
-8.1582e-05
2.45445e-05
9.62157e-05
-4.66241e-05
-1.18687e-05
0.00018257
-2.47042e-05
-3.35717e-05
0.000316301
-3.93287e-05
0.000537954
2.99169e-05
9.26818e-06
1.20818e-07
-6.02033e-08
9.82915e-06
1.47026e-06
-5.81339e-07
1.04057e-05
7.66667e-07
-7.9975e-08
1.11256e-05
1.5728e-07
-4.19521e-07
1.20112e-05
1.22588e-06
-8.06286e-07
1.22592e-05
8.16481e-07
9.03505e-08
1.36607e-05
2.04307e-07
-7.87851e-07
1.42919e-05
-2.55573e-08
-9.78117e-07
1.482e-05
1.25612e-06
1.2409e-06
1.82098e-05
-1.30683e-06
-1.75569e-06
1.77167e-05
7.88684e-07
-7.40267e-07
1.83364e-05
-5.38176e-07
1.0953e-06
2.2234e-05
-1.00665e-07
-2.08865e-07
2.15943e-05
-7.36572e-07
6.39031e-07
2.29002e-05
-4.10511e-06
-1.05914e-06
2.43161e-05
-1.14471e-06
-9.88173e-07
2.42075e-05
-3.40225e-06
3.6891e-06
2.60154e-05
-4.93385e-06
-2.06773e-06
2.36566e-05
-5.38547e-06
2.61362e-06
2.57243e-05
-6.01877e-06
-4.43068e-06
2.44815e-05
-2.22651e-06
1.11192e-06
2.69422e-05
-2.74147e-06
-2.04189e-06
2.64397e-05
-6.67646e-06
4.79322e-07
2.57804e-05
-6.20575e-06
4.35833e-06
3.21912e-05
-9.81895e-06
-3.30353e-06
4.02034e-05
-1.02329e-05
-6.52335e-06
3.95123e-05
-1.37639e-05
8.95439e-06
5.13315e-05
-7.6201e-06
-1.12906e-05
5.57138e-05
1.60455e-06
4.23576e-07
5.94299e-05
1.37925e-05
-1.3097e-05
6.785e-05
5.12791e-05
-3.341e-05
5.79775e-05
4.85155e-05
-1.1302e-05
5.01769e-05
3.48155e-05
6.73119e-06
2.50063e-05
6.83263e-05
3.77658e-05
-3.33782e-06
0.000134296
-9.73587e-06
-3.76319e-05
0.000228235
-1.13707e-05
-5.15891e-05
0.000363093
-3.28345e-05
0.000537854
-2.96252e-05
9.11456e-06
-3.00988e-07
-4.76592e-08
1.01291e-05
1.37021e-06
-9.1451e-07
1.04236e-05
6.82057e-07
-2.0987e-07
1.10107e-05
1.14721e-08
-4.41332e-07
1.22195e-05
1.07526e-06
-1.05815e-06
1.24989e-05
7.06562e-07
-1.69528e-07
1.30709e-05
1.03162e-07
-4.70784e-07
1.42112e-05
3.40267e-07
-1.50613e-06
1.50594e-05
-9.53344e-07
1.36121e-06
1.69947e-05
-2.08717e-06
-1.15495e-06
1.77732e-05
8.79702e-08
-7.77407e-08
1.83896e-05
-1.70895e-06
5.5433e-07
2.02606e-05
-1.57135e-06
-4.00291e-07
2.04453e-05
-1.24024e-06
3.18913e-07
2.00107e-05
-3.08586e-06
-5.84596e-07
2.14632e-05
-3.05581e-06
4.58587e-07
2.19757e-05
-5.04916e-06
1.13446e-06
1.99011e-05
-4.36357e-06
1.50429e-06
1.98622e-05
-4.79487e-06
-5.51734e-07
2.06117e-05
-3.39062e-06
-3.37768e-06
2.11684e-05
-3.66487e-06
8.81696e-07
2.32462e-05
-3.53799e-06
-1.2813e-06
2.207e-05
-6.2245e-06
7.24299e-07
2.40645e-05
-7.1481e-06
-1.05212e-06
2.37042e-05
-9.82705e-06
3.68368e-07
2.64303e-05
-8.99562e-06
-3.96341e-06
2.82751e-05
-1.79478e-05
2.3391e-06
2.61979e-05
-3.04669e-06
-2.49623e-06
2.24819e-05
-6.99451e-07
6.02003e-06
-1.8446e-05
3.29616e-05
2.17589e-05
-5.27039e-05
7.56513e-05
9.8856e-06
-4.87712e-05
7.95026e-05
-3.49198e-05
-2.7951e-05
7.28074e-05
-5.88121e-05
-2.40489e-05
9.51099e-05
-3.06857e-05
-4.49626e-05
0.000166861
-1.16521e-05
-6.6479e-05
0.000278907
-2.91554e-05
-7.39295e-05
0.000430994
-6.04505e-05
0.000562914
-6.81308e-05
8.76109e-06
-5.93622e-07
3.45519e-07
9.97285e-06
1.27459e-06
-1.11613e-06
1.04816e-05
-2.99381e-08
2.03199e-07
1.06101e-05
2.42345e-07
-3.59358e-07
1.21954e-05
6.23867e-07
-1.13391e-06
1.22325e-05
2.44759e-07
4.24786e-07
1.30932e-05
8.81492e-09
-7.66367e-07
1.40309e-05
-4.65823e-08
-5.50862e-07
1.42547e-05
-3.08567e-06
1.90849e-06
1.58341e-05
-1.00122e-06
-2.66531e-06
1.61032e-05
6.21611e-07
-8.02727e-07
1.6474e-05
6.89145e-07
-2.76894e-06
1.8142e-05
-6.89284e-08
-3.17041e-06
1.73901e-05
-3.78953e-07
-1.09339e-07
1.55827e-05
-8.54442e-07
-4.24047e-07
1.2401e-05
-1.44027e-06
1.56618e-06
9.00736e-06
-2.47899e-06
8.23439e-07
8.02992e-06
-3.06983e-06
-3.16307e-07
7.76092e-06
-2.24572e-06
-2.28016e-06
8.92003e-06
-2.08751e-06
-2.46221e-06
1.00698e-05
-3.07834e-06
-1.73636e-06
1.0651e-05
-2.74605e-06
-1.3731e-06
1.20331e-05
-3.25284e-06
-4.3537e-06
1.25334e-05
-3.99611e-06
-3.65231e-06
1.78066e-05
-7.73057e-06
-7.36972e-06
2.23205e-05
-1.52507e-05
1.7411e-06
2.45714e-05
-1.76609e-05
-2.53778e-06
4.13596e-05
-1.56683e-05
-4.16654e-06
4.97273e-05
-7.1239e-06
-1.9433e-06
4.82429e-05
2.79577e-05
6.48836e-06
4.51004e-05
5.52148e-05
2.35791e-05
4.74625e-05
4.77268e-05
2.94137e-05
4.15095e-05
4.80672e-05
3.06931e-05
1.70757e-05
9.88741e-05
2.06695e-05
-1.19843e-05
0.00015661
3.93115e-05
-4.417e-05
0.000249299
6.17942e-05
-6.43826e-05
0.000400921
5.02857e-05
0.000505477
3.52109e-05
8.17439e-06
-2.35868e-07
1.02138e-05
-7.64835e-07
9.99549e-06
1.88383e-07
1.0014e-05
2.23818e-07
1.24667e-05
-1.82877e-06
1.07953e-05
1.91616e-06
1.26242e-05
-1.82013e-06
1.14832e-05
1.09441e-06
1.74139e-06
6.65615e-06
1.19737e-06
-4.57202e-07
1.89325e-06
-7.42758e-08
7.36406e-07
1.84599e-06
2.01932e-06
-1.35184e-06
2.94576e-06
-1.3054e-06
3.98708e-06
-1.89576e-06
3.46304e-06
-9.16229e-07
3.35652e-06
-2.37247e-06
3.69382e-06
-3.40713e-06
4.49316e-06
-3.04506e-06
3.64891e-07
2.04076e-06
-5.33412e-06
2.62067e-06
-1.6437e-06
-6.43647e-06
1.61551e-06
-6.51205e-06
-2.97578e-06
5.95177e-07
-8.02682e-06
-2.67952e-06
-2.96103e-05
6.33282e-06
-5.81297e-05
1.08585e-05
-9.57224e-05
2.19244e-05
-0.000142581
3.97352e-05
-0.000155831
4.12073e-05
-0.000148451
4.7835e-05
-0.000156105
5.538e-05
-0.00019247
8.44327e-05
-0.00023703
0.000143434
-0.000269646
0.000189226
-0.000279607
0.00025926
-0.000220511
0.000341824
0.0003969
-2.301e-05
-4.56731e-06
4.83582e-06
-2.25648e-05
-4.45933e-06
3.08887e-06
-2.40071e-05
-1.14335e-06
-2.09833e-06
-2.38822e-05
8.06422e-07
-6.10304e-06
-2.02065e-05
-1.14633e-06
-7.1986e-06
-1.66317e-05
-1.53251e-06
-8.87851e-06
-1.47763e-05
6.35247e-07
-1.14078e-05
-1.47656e-05
2.41675e-06
-1.22203e-05
-1.85367e-05
5.63017e-06
-1.12997e-05
-2.32777e-05
9.43577e-06
-1.27246e-05
-2.49349e-05
8.06271e-06
-8.62048e-06
-2.75871e-05
2.76127e-07
9.50024e-06
-3.18338e-05
-9.35512e-07
8.83618e-06
-3.2885e-05
-3.44762e-07
2.206e-06
-3.52742e-05
-1.64059e-06
1.08848e-05
-3.83978e-05
-1.53543e-06
6.22004e-06
-3.85532e-05
-2.64265e-06
2.52918e-06
-3.7607e-05
-5.05315e-06
9.38554e-06
-3.40366e-05
-7.12655e-06
5.47267e-06
-3.08406e-05
-8.13334e-06
9.08588e-06
-3.23962e-05
-6.35292e-06
1.67235e-05
-3.84033e-05
-3.91314e-06
1.89192e-05
-4.51421e-05
-4.6906e-06
2.42754e-05
-4.60281e-05
-9.16965e-06
2.21857e-05
-3.93906e-05
-1.63887e-05
2.12447e-05
-3.12424e-05
-1.79902e-05
2.61825e-05
-2.1828e-05
-1.82046e-05
3.10384e-05
-1.23308e-05
-1.76469e-05
2.96976e-05
-5.9204e-06
-1.64061e-05
3.20102e-05
-1.28711e-06
-1.35453e-05
2.95193e-05
3.23156e-06
-1.40987e-05
3.02909e-05
6.59494e-06
-8.49057e-06
2.48702e-05
2.79774e-05
-2.77101e-05
3.41494e-05
5.56471e-05
-1.0401e-05
2.11317e-05
9.16749e-05
-2.63425e-05
-1.70322e-05
7.79545e-05
0.000103237
-0.000354405
0.000223229
-0.000155886
2.01374e-05
-0.000425545
-0.000108991
-9.32356e-06
2.64559e-06
5.21236e-06
-1.81918e-05
1.31511e-06
1.54255e-05
-2.25504e-05
-1.99366e-06
8.30813e-06
-1.82347e-05
-4.53467e-06
-2.11058e-06
-1.34697e-05
-5.12348e-06
-2.44373e-06
-1.12589e-05
-4.01418e-06
-1.46353e-06
-8.81011e-06
-3.25411e-06
-4.94223e-06
-4.74975e-06
-2.42409e-06
-9.08023e-06
-5.30822e-07
1.14594e-06
-1.1582e-05
3.54749e-06
5.50856e-06
-1.49599e-05
7.76504e-06
7.08565e-06
-2.06932e-05
8.87542e-06
4.58842e-06
-1.94411e-05
7.8493e-06
2.37852e-06
-8.58019e-06
8.13411e-06
9.48085e-07
-6.4055e-06
9.14343e-06
-1.18137e-06
-5.02286e-06
1.04231e-05
-3.24671e-06
2.02902e-07
1.211e-05
-5.24169e-06
1.87167e-08
1.3937e-05
-7.37313e-06
-1.08225e-06
1.59027e-05
-9.18396e-06
-2.91023e-06
1.79887e-05
-9.72188e-06
-3.91196e-06
2.10395e-05
-9.49425e-06
-2.25556e-06
2.47967e-05
-8.46913e-06
-2.41622e-07
2.87226e-05
-1.06238e-05
1.70359e-06
3.16082e-05
-1.34254e-05
2.92512e-06
3.39256e-05
-1.7827e-05
3.84367e-06
3.70259e-05
-1.76957e-05
5.76416e-06
3.92116e-05
-1.7825e-05
9.57822e-06
3.90075e-05
-1.51654e-05
5.51894e-06
4.08229e-05
-1.76447e-05
-6.14301e-06
3.81967e-05
-1.03927e-05
1.42267e-06
4.15706e-05
-1.57852e-05
-1.06436e-05
3.66315e-05
-1.2037e-06
3.03481e-08
3.45057e-05
-2.56799e-05
-3.5133e-06
7.11807e-05
1.08069e-05
-4.17858e-06
6.26963e-05
5.65157e-06
8.48481e-05
7.09456e-05
0.000107574
-1.58316e-05
0.000238138
-0.000210459
-0.000353519
-0.000356323
9.69256e-05
3.95389e-06
2.96758e-06
-5.07916e-06
4.04011e-06
3.29982e-06
-4.65688e-06
3.23057e-06
1.91687e-06
-1.76697e-06
1.68296e-06
1.03836e-07
3.92784e-06
-1.55111e-06
-1.05851e-06
9.12144e-06
-3.98922e-06
-3.05108e-06
7.76642e-06
-3.17043e-06
-5.90077e-06
2.2869e-06
-1.07401e-06
-6.4952e-06
-3.20007e-06
1.04609e-06
-2.96561e-06
-6.69173e-06
5.53784e-06
5.48986e-07
-7.881e-06
1.03495e-05
3.97739e-06
-1.15876e-05
1.38803e-05
3.25385e-06
-1.27229e-05
1.66493e-05
1.61327e-06
-1.08857e-05
1.90077e-05
6.16027e-07
-9.68509e-06
2.08931e-05
-8.42981e-07
-8.46156e-06
2.22294e-05
-2.64511e-06
-7.65928e-06
2.34417e-05
-4.47505e-06
-7.1126e-06
2.42257e-05
-5.91502e-06
-6.3334e-06
2.49622e-05
-7.2135e-06
-6.94853e-06
2.66233e-05
-8.66792e-06
-7.24077e-06
2.75276e-05
-7.62568e-06
-7.08239e-06
2.94526e-05
-7.4356e-06
-4.87452e-06
3.0266e-05
-9.42414e-06
-4.95093e-06
3.00843e-05
-1.05506e-05
-3.67407e-06
3.15832e-05
-1.49934e-05
3.54491e-06
2.92526e-05
-1.21058e-05
-1.41297e-06
3.35182e-05
-2.41335e-05
-1.43693e-05
3.58916e-05
-1.85085e-05
-2.08279e-05
3.63634e-05
-1.98818e-05
-2.67698e-05
3.70118e-05
-1.9932e-05
-1.77564e-05
4.20486e-05
-1.42552e-05
-2.67836e-05
3.36909e-05
-3.89351e-06
-4.97432e-06
4.3803e-05
-2.267e-05
-3.31195e-05
2.59031e-05
1.2253e-05
6.85581e-06
9.44554e-05
2.89154e-05
-4.16761e-05
9.21768e-05
-1.90055e-05
0.000122901
0.000116349
-3.00341e-05
-5.02811e-05
-0.000229797
-0.000508502
5.25613e-06
2.62211e-06
-2.87202e-06
7.06552e-06
2.56848e-06
-3.18411e-06
8.73754e-06
1.76961e-06
-2.72787e-06
9.13705e-06
1.46874e-06
-3.50943e-06
9.17389e-06
1.06351e-06
-2.21684e-06
9.37071e-06
7.81396e-07
-6.78466e-07
9.839e-06
2.10371e-07
6.25211e-06
8.46668e-06
-2.03782e-06
1.00891e-05
5.78523e-06
-3.00071e-06
2.76686e-06
5.17914e-06
-3.38289e-06
-2.81074e-06
8.05903e-06
-6.46801e-08
-6.82467e-06
1.22993e-05
7.48894e-07
-1.01397e-05
1.5355e-05
1.07427e-06
-1.08653e-05
1.74654e-05
9.34209e-07
-1.13566e-05
1.92815e-05
2.64287e-07
-1.06979e-05
2.06055e-05
-1.01841e-06
-9.799e-06
2.19012e-05
-3.1177e-06
-9.67972e-06
2.31805e-05
-3.52312e-06
-9.51931e-06
2.51934e-05
-6.18556e-06
-6.88805e-06
2.58122e-05
-6.74975e-06
-1.21756e-05
2.83213e-05
-5.63864e-06
-6.59013e-06
3.13306e-05
-7.3732e-06
-9.61287e-06
3.64745e-05
-1.02057e-05
-7.29386e-06
3.51719e-05
-9.86817e-06
-1.58273e-05
4.08103e-05
-1.41311e-05
-7.70885e-06
3.97399e-05
-9.98097e-06
-2.55621e-05
3.24711e-05
-1.80754e-05
-1.96775e-05
3.40932e-05
-1.48578e-05
-9.50836e-06
2.53842e-05
-8.62248e-06
-2.27444e-05
3.10759e-05
-2.2129e-05
-1.09432e-05
3.76388e-05
-9.9722e-06
2.00735e-06
3.81212e-05
1.84211e-06
-1.87906e-05
3.77457e-05
-1.13893e-05
-2.48217e-05
4.57903e-05
-5.82397e-07
9.71899e-06
7.74672e-05
2.34472e-05
2.14598e-06
0.000154467
-1.8879e-05
0.000132705
0.000167945
-7.91029e-05
-0.000149353
7.83015e-05
-0.000261067
6.67635e-06
1.75961e-06
1.69157e-07
7.74973e-06
1.84595e-06
-1.09076e-06
8.56772e-06
1.58365e-06
-1.08301e-06
9.57073e-06
1.14222e-06
-1.10864e-06
1.07027e-05
6.81744e-07
-5.85289e-07
1.12907e-05
8.40983e-07
1.36164e-07
1.17904e-05
1.21597e-06
-4.33649e-08
1.14891e-05
1.02197e-06
4.76076e-06
1.17105e-05
5.54542e-07
9.03844e-06
1.05499e-05
-1.72084e-06
8.3409e-06
8.69198e-06
-1.54577e-06
4.1721e-06
9.18788e-06
-2.08451e-06
-2.18055e-07
1.03457e-05
-8.40187e-07
-2.85761e-06
1.20502e-05
-7.99956e-07
-3.23635e-06
1.40089e-05
-1.14103e-06
-3.39303e-06
1.58333e-05
-1.78999e-06
-2.27411e-06
1.66355e-05
-2.60928e-06
-3.35843e-06
1.92659e-05
-4.17138e-06
-2.63832e-06
2.10539e-05
-7.201e-06
-2.94562e-06
2.22899e-05
-6.36672e-06
6.64436e-08
2.55357e-05
-8.19163e-06
-5.51713e-06
2.6698e-05
-6.70948e-06
-2.15575e-06
2.71625e-05
-8.96121e-06
-3.73595e-06
2.7496e-05
-7.79179e-06
-2.93102e-06
2.80209e-05
-1.07168e-05
1.67422e-06
3.35278e-05
-1.44119e-05
-1.60531e-05
3.22285e-05
-8.69112e-06
1.26156e-05
3.20877e-05
-1.35988e-05
-7.95115e-06
3.93512e-05
-9.54677e-06
-2.03857e-05
3.56729e-05
-7.37292e-06
2.5134e-05
3.87162e-05
-1.19086e-05
-1.61249e-05
3.84052e-05
7.15234e-07
-1.19885e-05
3.70579e-05
-8.29362e-06
-2.09783e-05
3.21046e-05
6.84664e-06
1.52479e-05
3.87452e-05
3.05344e-05
-2.87318e-05
4.49817e-05
-4.01994e-05
1.83493e-05
5.02293e-05
-1.62242e-06
9.97427e-06
8.25757e-05
-8.02226e-06
8.7922e-06
1.4989e-06
6.39472e-07
9.63861e-06
1.51768e-06
-1.53828e-07
1.05848e-05
1.33611e-06
-4.47741e-07
1.14635e-05
1.02154e-06
-1.04502e-06
1.19647e-05
1.14132e-06
-1.48044e-06
1.26267e-05
1.2556e-06
-6.31209e-07
1.37277e-05
9.82584e-07
-1.07304e-06
1.46482e-05
1.57424e-06
1.04851e-06
1.54144e-05
2.11988e-06
1.65316e-06
1.57614e-05
1.83595e-06
4.78723e-06
1.61794e-05
5.93789e-07
1.00535e-05
1.5448e-05
-6.70075e-07
8.40208e-06
1.39912e-05
1.57713e-07
5.85267e-06
1.37616e-05
-1.26664e-06
4.83429e-06
1.4303e-05
-2.85243e-06
4.44642e-06
1.53449e-05
-3.76214e-06
2.99857e-06
1.68799e-05
-3.68713e-06
8.72218e-07
2.05372e-05
-6.0139e-06
-7.43208e-07
2.19776e-05
-7.48945e-06
5.02085e-07
2.51889e-05
-8.47389e-06
-1.07396e-06
2.68973e-05
-1.0072e-05
-1.49047e-06
2.84431e-05
-7.65974e-06
-3.33354e-06
2.87083e-05
-7.99912e-06
-7.10852e-06
3.29945e-05
-7.37807e-06
-1.60247e-06
3.32211e-05
-1.03092e-05
-1.37982e-05
3.60091e-05
-1.25193e-05
-6.43615e-06
3.72536e-05
-7.49157e-06
-1.4553e-05
3.43942e-05
-1.02253e-05
-2.06444e-05
3.58376e-05
-8.98503e-06
-2.364e-06
3.74688e-05
4.41906e-06
-1.26852e-05
3.03735e-05
-8.59737e-06
-3.2083e-05
3.59316e-05
3.94029e-06
5.24806e-06
4.04253e-05
-7.23511e-06
-2.61935e-05
4.05525e-05
4.29853e-05
2.13101e-05
4.25726e-05
1.22517e-05
-1.10464e-05
3.64594e-05
-1.34894e-05
-4.71993e-05
6.04167e-05
6.17345e-05
1.23659e-05
0.000179397
1.1847e-05
9.44961e-06
1.19524e-06
1.01273e-07
1.0103e-05
1.36094e-06
-3.6301e-07
1.07752e-05
1.18268e-06
-4.42422e-07
1.14746e-05
9.17463e-07
-6.63313e-07
1.21884e-05
1.02924e-06
-1.15206e-06
1.30899e-05
1.03904e-06
-4.88936e-07
1.36585e-05
9.66369e-07
-1.27773e-06
1.5019e-05
1.01336e-06
-3.31e-07
1.61954e-05
1.46042e-06
2.88956e-07
1.71131e-05
1.84994e-06
1.04343e-06
1.96874e-05
5.3425e-07
1.31006e-06
2.02577e-05
4.11795e-07
5.40817e-06
2.0659e-05
1.34767e-06
3.29307e-06
2.27035e-05
-9.27857e-07
1.30259e-06
2.47238e-05
-2.86934e-06
4.57787e-06
2.5532e-05
-3.25929e-06
3.37743e-06
2.53559e-05
-3.66089e-06
-6.30318e-07
2.65913e-05
-4.76201e-06
-3.41695e-06
2.76077e-05
-5.57723e-06
1.34994e-06
2.91591e-05
-6.99211e-06
3.77068e-07
2.89086e-05
-8.19273e-06
2.35995e-06
2.82623e-05
-6.24245e-06
-3.00303e-06
3.01136e-05
-7.3533e-06
-8.35099e-07
3.125e-05
-9.80382e-06
-1.10286e-05
3.29386e-05
-7.4254e-06
2.87167e-06
3.476e-05
-1.04868e-05
-3.74112e-06
3.78489e-05
-1.07717e-05
-8.46983e-06
4.22222e-05
-9.49732e-06
-6.73126e-06
4.50064e-05
4.47404e-07
-3.94267e-06
5.23304e-05
2.3744e-06
-1.45779e-05
4.86269e-05
6.69254e-06
-1.75279e-05
3.88853e-05
1.86375e-05
-4.04429e-05
1.77779e-05
1.77005e-05
-3.49824e-05
3.17224e-05
1.33668e-05
-1.97834e-05
3.31269e-05
1.76618e-05
3.6422e-05
5.08134e-06
3.1998e-05
-1.01734e-05
1.06509e-05
0.000118839
-1.27258e-05
0.000249679
4.11929e-05
9.67621e-06
8.99428e-07
-5.18864e-07
1.02996e-05
1.28455e-06
-8.22991e-07
1.10724e-05
9.58159e-07
-9.49357e-07
1.17843e-05
9.06416e-07
-8.70165e-07
1.24877e-05
9.41341e-07
-1.89034e-06
1.32958e-05
1.10936e-06
-5.72102e-07
1.41443e-05
7.04105e-07
-1.97397e-06
1.54143e-05
5.99256e-07
-1.17126e-06
1.61747e-05
1.37171e-06
-4.63451e-07
1.80167e-05
6.38149e-07
-9.35438e-07
1.95668e-05
-1.23038e-07
-8.99938e-07
2.06764e-05
3.90847e-07
1.1369e-06
2.2364e-05
1.1416e-06
1.85756e-06
2.34875e-05
-9.28886e-07
-1.41647e-06
2.52331e-05
-2.95956e-06
-4.81442e-07
2.64463e-05
-1.8416e-06
9.79732e-07
2.63535e-05
-2.80483e-06
2.28501e-07
2.77007e-05
-4.40593e-06
-2.70893e-06
2.78952e-05
-5.48793e-06
-2.40804e-06
2.94258e-05
-5.15363e-06
-2.47831e-06
2.99004e-05
-5.41983e-06
2.96377e-06
2.97032e-05
-3.52103e-06
-9.35142e-08
3.19817e-05
-7.41856e-06
-1.40556e-06
3.20159e-05
-1.01516e-05
-5.1498e-06
3.43811e-05
-6.09469e-06
-5.45692e-06
3.67214e-05
-9.89254e-06
1.3806e-06
3.80316e-05
-8.89281e-06
-9.61774e-06
3.57139e-05
-3.70138e-06
7.49362e-07
3.4645e-05
5.43454e-06
-3.00947e-06
3.04908e-05
4.79386e-06
-9.79793e-06
2.04108e-05
2.40047e-05
2.70593e-05
2.07178e-05
2.24423e-05
4.31527e-07
3.1065e-05
2.06996e-05
-2.77232e-06
4.06683e-05
-2.18736e-05
-5.59451e-05
4.75592e-05
3.33071e-05
-6.91603e-05
2.19265e-05
8.37848e-05
-5.08583e-05
-1.22512e-05
0.000174123
-6.04349e-05
0.000292731
-1.58362e-05
9.65672e-06
5.09475e-07
-4.08551e-07
1.01815e-05
1.15613e-06
-9.77717e-07
1.09657e-05
6.6672e-07
-5.72735e-07
1.15961e-05
7.05302e-07
-8.48791e-07
1.24171e-05
7.51035e-07
-1.43698e-06
1.31142e-05
9.04408e-07
-4.01823e-07
1.41031e-05
3.15299e-07
-1.38796e-06
1.50573e-05
2.6171e-07
-1.59476e-06
1.61345e-05
9.64697e-07
5.70706e-07
1.81884e-05
-1.14395e-06
-2.02743e-06
1.87137e-05
8.37056e-08
-1.47236e-06
2.00279e-05
-2.83052e-07
4.55039e-07
2.25714e-05
-6.38131e-07
-9.72617e-07
2.33556e-05
-9.42683e-07
-1.31406e-07
2.37884e-05
-2.92476e-06
-1.52674e-06
2.49508e-05
-2.03643e-06
-1.95578e-06
2.5657e-05
-3.38194e-06
3.56001e-06
2.68855e-05
-4.93262e-06
-2.76947e-06
2.65243e-05
-5.29007e-06
2.77693e-06
2.6999e-05
-5.1082e-06
-4.95076e-06
2.71294e-05
-4.4371e-06
-1.28928e-09
2.88941e-05
-4.09755e-06
-3.23001e-06
2.93149e-05
-7.26677e-06
-9.32671e-08
3.01618e-05
-8.12363e-06
1.48342e-06
3.30951e-05
-9.82946e-06
-2.50207e-06
3.74814e-05
-1.16404e-05
-9.16175e-06
4.38128e-05
-1.33829e-05
7.11304e-06
5.0836e-05
-7.1795e-06
-1.48356e-05
5.94902e-05
-2.37589e-07
-2.55855e-06
5.70166e-05
1.29352e-05
-1.87646e-05
4.24011e-05
3.25969e-05
-2.73868e-05
4.00495e-05
3.19451e-05
-1.84531e-05
5.4038e-05
1.60685e-05
-2.62626e-06
3.15146e-05
8.89405e-06
2.95215e-05
1.0354e-05
6.06989e-05
-1.5967e-05
-9.99471e-06
0.000131069
-3.83058e-05
-3.99038e-05
0.000215709
-4.45118e-05
0.000306836
-5.25584e-05
9.66403e-06
2.10009e-07
-4.24333e-07
1.0293e-05
9.6466e-07
-1.35203e-06
1.10052e-05
4.25435e-07
-6.80808e-07
1.16398e-05
5.06666e-07
-8.7724e-07
1.248e-05
6.0347e-07
-1.75077e-06
1.3106e-05
6.01035e-07
-4.92211e-07
1.38581e-05
3.35971e-07
-1.2435e-06
1.48905e-05
-1.93092e-07
-2.08372e-06
1.58712e-05
3.44944e-07
1.00025e-06
1.75713e-05