/*--------------------------------*- C++ -*----------------------------------*\
| =========                 |                                                 |
| \\      /  F ield         | OpenFOAM: The Open Source CFD Toolbox           |
|  \\    /   O peration     | Version:  2.3.1                                 |
|   \\  /    A nd           | Web:      www.OpenFOAM.org                      |
|    \\/     M anipulation  |                                                 |
\*---------------------------------------------------------------------------*/
FoamFile
{
    version     2.0;
    format      ascii;
    class       surfaceScalarField;
    location    "15";
    object      phi_0;
}
// * * * * * * * * * * * * * * * * * * * * * * * * * * * * * * * * * * * * * //

dimensions      [0 3 -1 0 0 0 0];

internalField   nonuniform List<scalar> 
110130
(
-3.26445e-05
-2.36521e-06
1.62622e-06
-3.20034e-05
2.67457e-07
-9.08551e-07
-3.40198e-05
6.68756e-06
-4.67117e-06
-3.46212e-05
5.78159e-06
-5.18019e-06
-2.93215e-05
-6.31274e-07
-4.6684e-06
-2.632e-05
3.82825e-06
-6.82975e-06
-2.7378e-05
9.9798e-06
-8.92175e-06
-2.71175e-05
9.54219e-06
-9.80275e-06
-2.57286e-05
8.06623e-06
-9.4551e-06
-2.46573e-05
6.97829e-06
-8.04957e-06
-2.53666e-05
2.96825e-06
-2.25895e-06
-3.14568e-05
-1.02522e-06
7.1154e-06
-3.49704e-05
-1.66174e-07
3.67976e-06
-3.51334e-05
-6.28923e-07
7.91951e-07
-4.06187e-05
-1.37564e-06
6.8609e-06
-4.19496e-05
-2.73194e-07
1.60414e-06
-3.9191e-05
-2.47215e-06
-2.86521e-07
-3.89873e-05
-5.48598e-06
5.28233e-06
-3.33717e-05
-7.54938e-06
1.93382e-06
-2.80026e-05
-9.49471e-06
4.12555e-06
-2.89638e-05
-7.84267e-06
8.80392e-06
-3.30877e-05
-4.87008e-06
8.994e-06
-3.99692e-05
-5.99383e-06
1.28753e-05
-4.17731e-05
-1.03894e-05
1.21934e-05
-3.42346e-05
-1.90748e-05
1.15362e-05
-2.5842e-05
-2.4766e-05
1.63734e-05
-1.88187e-05
-2.93217e-05
2.22984e-05
-9.79223e-06
-3.06457e-05
2.16192e-05
-3.03285e-06
-2.88788e-05
2.21194e-05
7.23634e-07
-2.44498e-05
2.06933e-05
6.45029e-06
-2.65349e-05
2.08082e-05
5.42728e-06
-1.88669e-05
1.98899e-05
1.45865e-05
-3.721e-05
2.80508e-05
-6.37983e-06
-1.80164e-05
3.89827e-05
-2.73563e-05
2.91339e-05
-8.15744e-06
0.000133759
9.59036e-05
-0.000257019
-0.000114022
0.000245115
2.66532e-06
0.000125395
-0.000580558
-2.32139e-05
3.02991e-06
7.89679e-06
-3.67375e-05
1.42124e-06
1.23698e-05
-3.39575e-05
7.45322e-07
3.16229e-06
-2.45588e-05
-4.85863e-07
-3.13129e-06
-2.2314e-05
-1.21231e-06
-1.66381e-06
-2.21879e-05
5.41812e-06
-1.71596e-06
-2.02853e-05
1.44415e-05
-6.36426e-06
-1.73035e-05
1.64232e-05
-9.86273e-06
-1.17365e-05
1.43496e-05
-1.18504e-05
-3.35617e-06
1.34101e-05
-1.48121e-05
4.68778e-06
1.23944e-05
-1.74701e-05
8.58532e-06
9.14504e-06
-1.40678e-05
8.7234e-06
6.01603e-06
-6.32028e-06
9.4025e-06
3.52717e-06
-4.8352e-06
1.0519e-05
1.08253e-06
-3.57462e-06
1.20875e-05
-1.60557e-06
-2.36122e-07
1.43475e-05
-3.84475e-06
-8.87459e-07
1.69532e-05
-6.51508e-06
-1.57657e-06
2.0376e-05
-7.96749e-06
-3.00467e-06
2.34536e-05
-9.15778e-06
-3.41461e-06
2.70679e-05
-9.10082e-06
-2.35611e-06
3.09255e-05
-7.66438e-06
-1.06332e-06
3.6391e-05
-1.11321e-05
-3.27211e-07
3.97069e-05
-1.52746e-05
1.5694e-06
3.70108e-05
-2.10919e-05
4.71328e-06
3.51931e-05
-3.21099e-05
9.16156e-06
2.88727e-05
-3.52411e-05
1.22399e-05
2.31368e-05
-3.2756e-05
7.84618e-06
3.00153e-05
-3.02249e-05
-5.53232e-06
2.75367e-05
-2.39731e-05
2.00184e-06
3.7532e-05
-2.75175e-05
-9.01267e-06
3.22616e-05
-1.59623e-05
2.36592e-06
3.09122e-05
-3.17761e-05
-4.0845e-06
-3.87492e-05
4.85777e-07
5.11592e-05
-0.000182268
6.48151e-05
0.000107838
-0.000314658
0.000219685
8.60892e-06
0.000130172
4.50945e-05
-0.00024481
-0.000389732
0.000271681
7.1429e-07
5.22868e-06
-3.38293e-06
-5.08643e-07
5.23654e-06
-2.59236e-06
-5.17787e-06
4.10099e-06
1.31356e-06
-1.45543e-05
1.88905e-06
7.00154e-06
-2.58172e-05
8.84337e-08
9.96217e-06
-2.84923e-05
1.764e-06
6.3292e-06
-2.04253e-05
5.87911e-06
4.95367e-07
-1.09456e-05
1.21013e-05
-5.1579e-06
-5.92526e-06
1.80145e-05
-8.6852e-06
-3.28972e-06
1.91326e-05
-8.35804e-06
1.4886e-06
1.75048e-05
-9.88867e-06
6.941e-06
1.42346e-05
-1.0542e-05
1.12493e-05
1.06075e-05
-8.89977e-06
1.47034e-05
7.74419e-06
-7.67117e-06
1.69294e-05
5.10436e-06
-6.24783e-06
1.85161e-05
2.53738e-06
-5.72962e-06
1.96065e-05
2.00416e-07
-5.13556e-06
1.93075e-05
-2.12182e-06
-4.09427e-06
1.88158e-05
-3.22686e-06
-4.24886e-06
1.9525e-05
-5.3374e-06
-4.52958e-06
1.86123e-05
-3.87819e-06
-4.30997e-06
1.8181e-05
-5.31393e-06
-1.91912e-06
1.64746e-05
-6.463e-06
-2.96284e-06
1.09327e-05
-8.73828e-06
-9.94439e-07
-7.60096e-06
-1.04095e-05
7.85126e-06
-1.91482e-05
-2.24791e-05
1.91647e-06
-1.99994e-05
-1.80406e-05
-1.63493e-05
-1.11257e-05
-1.98055e-05
-2.18242e-05
-1.52137e-06
-1.12036e-05
-2.86256e-05
1.14549e-05
-1.02133e-05
-2.67361e-05
1.50065e-05
-1.0737e-05
-2.03322e-05
2.15331e-05
-6.3215e-06
-1.61674e-05
2.88394e-05
-1.88084e-05
-2.0274e-05
1.48781e-05
2.50668e-05
-1.06196e-05
-1.95399e-05
5.40423e-05
4.51907e-05
0.000160325
4.75588e-05
-7.7392e-06
0.000129288
-8.17392e-05
0.000157871
0.000561989
-0.000570765
2.0471e-06
5.65379e-06
-2.05103e-06
4.25509e-06
5.1347e-06
-2.10615e-06
5.77676e-06
3.78025e-06
-1.20092e-06
5.60684e-06
3.80003e-06
-1.74107e-06
3.34227e-06
2.41605e-06
-6.3045e-08
-1.84507e-06
3.63572e-06
3.31562e-06
-1.14821e-05
2.70356e-06
1.28126e-05
-1.73028e-05
4.69677e-06
1.32253e-05
-1.06143e-05
1.12093e-05
1.16676e-07
-1.00024e-06
1.6858e-05
-7.33944e-06
4.22512e-06
2.02662e-05
-7.98681e-06
7.92849e-06
1.89367e-05
-8.40541e-06
1.08228e-05
1.60675e-05
-8.35425e-06
1.3548e-05
1.39505e-05
-8.93161e-06
1.48348e-05
1.15921e-05
-7.77449e-06
1.56052e-05
8.61862e-06
-6.85169e-06
1.72431e-05
5.59271e-06
-7.03018e-06
1.66068e-05
4.35776e-06
-5.8433e-06
1.77551e-05
-5.1518e-07
-3.85996e-06
1.97997e-05
2.26378e-06
-9.64578e-06
2.01996e-05
-2.19197e-06
-2.08617e-06
2.54928e-05
-4.05701e-06
-6.55011e-06
2.88007e-05
-6.79805e-06
-2.97282e-06
3.77581e-05
-1.25472e-06
-1.64409e-05
3.52443e-05
-6.70466e-06
-1.19104e-06
4.8831e-05
-1.14849e-05
-2.45809e-05
5.02968e-05
1.39171e-06
-2.0898e-05
5.53899e-05
-2.05638e-05
-4.3349e-06
5.50346e-05
9.45362e-06
-2.03018e-05
5.86557e-05
-6.39185e-06
-7.44266e-06
5.60602e-05
-2.09982e-05
1.28568e-05
5.43931e-05
8.11539e-06
-1.27698e-05
6.9062e-05
-1.93894e-05
-1.40879e-05
4.29469e-05
4.6531e-05
4.6508e-06
4.33424e-05
2.61026e-05
2.75443e-05
-1.43748e-05
-0.000102385
0.000207661
-0.000149084
0.000234441
-0.000181471
0.000738171
-0.000125846
3.18635e-06
4.32559e-06
1.16933e-07
4.86445e-06
4.19508e-06
-7.38475e-07
5.69199e-06
3.40292e-06
-4.5022e-07
7.08318e-06
2.84046e-06
-4.31615e-07
8.06964e-06
1.26523e-06
1.64368e-07
7.98279e-06
2.93985e-06
7.82713e-07
6.78611e-06
2.44585e-06
1.45439e-06
3.68297e-08
3.95386e-06
7.49219e-06
-8.30739e-06
6.73227e-06
1.28212e-05
-9.16135e-06
8.82264e-06
8.88933e-06
-4.23869e-06
1.44761e-05
8.67413e-07
1.71623e-06
1.55263e-05
-2.54454e-06
6.0296e-06
1.53615e-05
-3.60742e-06
9.25374e-06
1.39873e-05
-3.26085e-06
1.13519e-05
1.23318e-05
-2.83788e-06
1.19567e-05
9.23629e-06
-1.22249e-06
1.30726e-05
6.52788e-06
-2.05104e-06
1.40208e-05
4.06946e-06
-6.59893e-07
1.60454e-05
-3.66732e-07
-2.17312e-06
1.46564e-05
1.97537e-06
1.67745e-06
1.82417e-05
-9.37162e-07
-4.84014e-06
1.87493e-05
-4.23886e-06
-3.25749e-07
1.79509e-05
-3.97323e-06
-2.02635e-06
2.09291e-05
-3.71897e-06
-5.14036e-07
2.03871e-05
-1.17256e-05
5.56301e-06
2.48719e-05
-9.89793e-07
-1.498e-05
2.0339e-05
-1.48536e-05
2.07782e-05
2.66754e-05
-2.00011e-05
-6.89905e-06
4.10977e-05
8.92102e-06
-1.38897e-05
1.83577e-05
-1.98837e-05
3.62319e-05
1.67061e-05
-4.18398e-06
-1.51626e-05
3.58138e-05
2.58422e-06
-1.35765e-05
3.67038e-05
-1.11959e-06
-1.91598e-05
3.90674e-05
2.69529e-05
1.72145e-05
3.12081e-05
5.12386e-05
-1.72766e-05
-6.56805e-05
-6.46179e-06
9.65344e-07
-0.00018156
0.000251936
9.83843e-05
0.000769206
-4.13099e-05
6.52746e-06
2.5111e-06
1.07516e-06
7.59673e-06
2.76129e-06
3.64535e-07
8.58115e-06
2.16722e-06
2.51283e-07
1.00569e-05
1.65167e-06
-2.8698e-07
1.04511e-05
1.39017e-06
-5.1914e-07
1.06348e-05
2.31328e-06
4.4285e-07
1.26917e-05
5.95953e-07
-2.06935e-07
1.16537e-05
2.474e-06
2.51781e-06
9.71417e-06
4.70109e-06
3.97073e-06
5.67637e-06
4.17894e-06
8.6815e-06
2.26861e-07
7.3057e-06
1.262e-05
-1.1018e-06
7.7522e-06
9.10276e-06
-1.6495e-06
1.04979e-05
5.41131e-06
2.20741e-07
7.96287e-06
4.15414e-06
2.59781e-06
6.67125e-06
3.28353e-06
4.26285e-06
5.50361e-06
2.06765e-06
6.88089e-06
2.578e-06
1.33184e-06
1.10217e-05
-1.14595e-06
1.07462e-06
1.16764e-05
-2.6723e-06
1.65089e-06
1.73591e-05
-3.72641e-06
1.90643e-08
1.66805e-05
1.41671e-06
-1.67525e-06
1.89474e-05
-3.75813e-06
-2.74771e-06
1.94475e-05
1.38865e-06
-5.86197e-06
2.22457e-05
-9.61085e-06
3.09372e-06
3.29924e-05
-9.29655e-06
-1.31758e-05
2.66938e-05
7.05006e-06
-1.74122e-06
3.67298e-05
-1.27267e-05
-1.21629e-05
3.98587e-05
-2.99578e-06
-2.01343e-05
3.15453e-05
1.75135e-05
-2.79026e-07
3.03184e-05
-1.91946e-05
5.37733e-07
2.18995e-05
4.00485e-05
-3.58136e-05
1.53129e-05
-4.85558e-06
1.40265e-05
1.07856e-05
2.40982e-05
-2.06906e-05
2.94454e-05
-4.91256e-05
5.74187e-05
3.59276e-05
7.34429e-05
-2.86865e-05
-2.94165e-05
8.98144e-05
-3.09321e-05
-0.00011937
0.000247923
9.39663e-05
0.000685742
8.58259e-05
8.60843e-06
1.44356e-06
4.95889e-07
9.43933e-06
1.79695e-06
1.33432e-07
9.90539e-06
1.62444e-06
7.67131e-08
1.07875e-05
8.37897e-07
-6.83764e-08
1.15637e-05
1.16397e-06
-5.49928e-07
1.22497e-05
1.43153e-06
1.95772e-07
1.27404e-05
8.30764e-07
-7.25597e-07
1.40576e-05
6.89349e-07
4.67508e-07
1.49149e-05
3.04034e-06
8.03456e-07
1.47087e-05
2.41394e-06
1.97115e-06
1.61861e-05
2.00843e-06
3.81987e-06
1.3808e-05
3.07572e-06
7.05455e-06
1.25159e-05
6.91244e-06
4.87757e-06
1.47896e-05
1.99237e-06
3.69687e-06
1.4712e-05
1.57145e-07
6.59172e-06
1.42903e-05
1.24881e-06
4.67648e-06
1.68089e-05
8.47365e-07
-7.88019e-07
2.04258e-05
-3.85548e-06
-9.07383e-07
1.84334e-05
-4.98486e-06
4.30504e-06
1.73401e-05
-6.04574e-06
3.41264e-06
1.70136e-05
-2.22859e-06
3.97177e-06
1.79599e-05
-2.46275e-06
-2.24166e-06
2.04515e-05
-2.7331e-06
1.63014e-06
2.78751e-05
-4.73121e-06
-1.23032e-05
1.78838e-05
-6.80476e-06
7.49955e-06
2.81317e-05
-3.26717e-06
6.92448e-08
3.10831e-05
-6.99998e-06
-8.6781e-06
3.86313e-05
-8.9628e-06
-1.58115e-06
3.7999e-05
9.84189e-06
8.30387e-06
3.50647e-05
-6.95141e-06
-9.3088e-06
5.04919e-05
3.0485e-05
-5.86374e-06
5.08927e-05
3.02995e-05
-3.55559e-05
5.0281e-05
5.59931e-05
-3.12832e-05
2.85321e-05
8.30005e-06
-3.56767e-05
6.14164e-06
5.28729e-05
4.29604e-05
-3.05057e-05
0.000122369
4.09307e-06
-7.70615e-05
0.000254031
4.04483e-05
0.000561356
0.000115218
9.24905e-06
8.21457e-07
-8.19898e-08
9.87166e-06
1.45061e-06
-2.76262e-07
1.06346e-05
1.26204e-06
-4.0051e-07
1.1185e-05
4.57712e-07
-1.70266e-07
1.23162e-05
1.3067e-06
-1.27389e-06
1.22876e-05
1.15372e-06
3.06427e-07
1.36925e-05
8.15096e-07
-1.38932e-06
1.50623e-05
-3.67728e-07
-3.12636e-07
1.48685e-05
3.02759e-06
2.06524e-07
1.72725e-05
3.19515e-07
-3.09583e-07
1.97281e-05
-4.40957e-07
-6.25847e-09
1.93835e-05
1.1919e-06
2.22852e-06
1.9379e-05
3.58693e-06
3.32993e-06
2.24219e-05
-7.50313e-07
-3.00224e-07
2.52382e-05
-3.84666e-06
1.1875e-06
2.35602e-05
-6.87433e-07
3.61429e-06
2.32458e-05
1.82179e-07
9.79619e-07
2.56007e-05
-5.19731e-06
-1.01313e-06
2.78614e-05
-5.12887e-06
-2.11665e-06
2.92415e-05
-8.35781e-06
9.31982e-07
2.31017e-05
-2.31291e-06
6.22412e-06
2.05309e-05
-2.31193e-06
2.41998e-06
2.36833e-05
-6.66993e-06
7.84367e-07
2.69176e-05
-2.47682e-06
-5.4887e-06
2.8548e-05
-6.7256e-06
-1.7095e-06
2.97285e-05
-8.73723e-06
4.28952e-06
3.47211e-05
-5.54199e-06
-6.45058e-06
2.86528e-05
-7.1821e-06
4.28756e-06
3.14657e-05
6.21676e-06
8.12261e-07
3.18675e-05
4.13223e-06
-1.14854e-05
1.93418e-06
2.62313e-05
3.4187e-05
4.74118e-07
2.71671e-05
4.59247e-06
1.22865e-05
3.3703e-05
1.04777e-05
2.17048e-05
8.09205e-05
-8.20388e-05
2.50949e-05
9.66861e-05
-4.72033e-05
-1.05853e-05
0.000184107
-2.60583e-05
-3.08575e-05
0.000320039
-4.57357e-05
0.000534546
1.53722e-05
9.26755e-06
1.21034e-07
-6.03708e-08
9.8281e-06
1.47127e-06
-5.81215e-07
1.04046e-05
7.64776e-07
-7.92478e-08
1.11248e-05
1.57949e-07
-4.20448e-07
1.2009e-05
1.22746e-06
-8.04976e-07
1.22574e-05
8.14647e-07
9.07051e-08
1.36593e-05
2.02909e-07
-7.89703e-07
1.42877e-05
-2.23465e-08
-9.73791e-07
1.48218e-05
1.25399e-06
1.23951e-06
1.82094e-05
-1.30702e-06
-1.76101e-06
1.77088e-05
7.92527e-07
-7.32961e-07
1.83423e-05
-5.37543e-07
1.09595e-06
2.22379e-05
-9.69719e-08
-2.11699e-07
2.15924e-05
-7.41092e-07
6.36271e-07
2.29081e-05
-4.09849e-06
-1.06381e-06
2.43198e-05
-1.12895e-06
-9.70253e-07
2.42151e-05
-3.40155e-06
3.68851e-06
2.60207e-05
-4.92957e-06
-2.07333e-06
2.36652e-05
-5.37903e-06
2.60558e-06
2.57375e-05
-5.99823e-06
-4.43188e-06
2.44888e-05
-2.19372e-06
1.12951e-06
2.69455e-05
-2.7304e-06
-2.03821e-06
2.64191e-05
-6.65713e-06
5.13642e-07
2.57659e-05
-6.17355e-06
4.34993e-06
3.21883e-05
-9.79346e-06
-3.35458e-06
4.01066e-05
-1.02096e-05
-6.44587e-06
3.93742e-05
-1.37439e-05
8.93433e-06
5.11767e-05
-7.67888e-06
-1.13057e-05
5.55753e-05
1.39845e-06
4.19704e-07
5.93226e-05
1.34011e-05
-1.30161e-05
6.7591e-05
5.11082e-05
-3.31454e-05
5.74381e-05
4.85243e-05
-1.12042e-05
4.934e-05
3.50661e-05
6.7349e-06
2.37672e-05
6.81948e-05
3.82985e-05
-4.59939e-06
0.000134835
-9.78204e-06
-3.89359e-05
0.000230196
-1.17519e-05
-5.33419e-05
0.000370083
-3.56378e-05
0.000544288
-3.94549e-05
9.11407e-06
-3.00941e-07
-4.77587e-08
1.01283e-05
1.37161e-06
-9.14589e-07
1.04218e-05
6.80027e-07
-2.08787e-07
1.10102e-05
1.18972e-08
-4.42314e-07
1.22182e-05
1.07672e-06
-1.05727e-06
1.2496e-05
7.05086e-07
-1.68226e-07
1.30692e-05
1.0277e-07
-4.73089e-07
1.42092e-05
3.40398e-07
-1.50271e-06
1.50589e-05
-9.57065e-07
1.36135e-06
1.6994e-05
-2.0849e-06
-1.1572e-06
1.77697e-05
8.94032e-08
-7.25762e-08
1.83914e-05
-1.71299e-06
5.53705e-07
2.02619e-05
-1.5665e-06
-4.00919e-07
2.04422e-05
-1.23967e-06
3.18272e-07
2.00142e-05
-3.08603e-06
-5.84523e-07
2.14752e-05
-3.0531e-06
4.63175e-07
2.19812e-05
-5.04655e-06
1.13907e-06
1.99074e-05
-4.35556e-06
1.49973e-06
1.98782e-05
-4.78539e-06
-5.6445e-07
2.06296e-05
-3.37669e-06
-3.37287e-06
2.1191e-05
-3.65072e-06
8.95583e-07
2.32667e-05
-3.52534e-06
-1.28077e-06
2.20799e-05
-6.20754e-06
7.37155e-07
2.40632e-05
-7.11711e-06
-1.03968e-06
2.36675e-05
-9.77355e-06
3.75811e-07
2.63809e-05
-8.95526e-06
-3.96786e-06
2.82007e-05
-1.79225e-05
2.35883e-06
2.61155e-05
-3.09201e-06
-2.5017e-06
2.25198e-05
-9.7416e-07
5.96833e-06
-1.81731e-05
3.24293e-05
2.16646e-05
-5.2834e-05
7.53978e-05
1.03713e-05
-4.93012e-05
7.9443e-05
-3.44516e-05
-2.81754e-05
7.24672e-05
-5.85268e-05
-2.41181e-05
9.49361e-05
-3.07986e-05
-4.4621e-05
0.000166506
-1.11687e-05
-6.4957e-05
0.000279341
-2.88097e-05
-7.35673e-05
0.000439638
-6.0945e-05
0.000573719
-7.21051e-05
8.7604e-06
-5.93311e-07
3.45081e-07
9.97267e-06
1.27541e-06
-1.11607e-06
1.04794e-05
-3.15157e-08
2.04809e-07
1.06092e-05
2.43394e-07
-3.61321e-07
1.21941e-05
6.23996e-07
-1.13217e-06
1.22298e-05
2.44067e-07
4.25309e-07
1.30917e-05
8.65464e-09
-7.67765e-07
1.40277e-05
-4.91173e-08
-5.46506e-07
1.42535e-05
-3.08822e-06
1.90543e-06
1.58326e-05
-9.99623e-07
-2.66442e-06
1.60984e-05
6.24719e-07
-8.01072e-07
1.64747e-05
6.87982e-07
-2.77735e-06
1.81415e-05
-6.86395e-08
-3.16459e-06
1.73839e-05
-3.78323e-07
-1.03827e-07
1.55751e-05
-8.54673e-07
-4.22509e-07
1.23952e-05
-1.44061e-06
1.56743e-06
9.00753e-06
-2.47947e-06
8.20564e-07
8.03691e-06
-3.0663e-06
-3.18635e-07
7.77238e-06
-2.23959e-06
-2.28128e-06
8.93655e-06
-2.08062e-06
-2.46024e-06
1.00912e-05
-3.07413e-06
-1.73129e-06
1.06739e-05
-2.73755e-06
-1.37043e-06
1.20484e-05
-3.23475e-06
-4.34733e-06
1.25484e-05
-3.96725e-06
-3.64987e-06
1.77701e-05
-7.66315e-06
-7.33207e-06
2.22114e-05
-1.51409e-05
1.74433e-06
2.43221e-05
-1.75068e-05
-2.52637e-06
4.09184e-05
-1.55289e-05
-4.15938e-06
4.96595e-05
-7.74686e-06
-1.96835e-06
4.84437e-05
2.7213e-05
6.4321e-06
4.48641e-05
5.53953e-05
2.35822e-05
4.60138e-05
4.83806e-05
2.99128e-05
3.84598e-05
4.83577e-05
3.16635e-05
1.29131e-05
9.93281e-05
2.11546e-05
-1.71324e-05
0.000156804
3.97484e-05
-5.00357e-05
0.000249156
6.30883e-05
-6.97115e-05
0.000407284
5.20294e-05
0.000517363
3.47237e-05
8.17441e-06
-2.37305e-07
1.02138e-05
-7.63997e-07
9.99204e-06
1.90253e-07
1.00146e-05
2.20867e-07
1.24642e-05
-1.82567e-06
1.07925e-05
1.91583e-06
1.26231e-05
-1.822e-06
1.14688e-05
1.10516e-06
1.72321e-06
6.65742e-06
1.18522e-06
-4.6163e-07
1.88359e-06
-7.36469e-08
7.30371e-07
1.8412e-06
2.01445e-06
-1.35272e-06
2.94219e-06
-1.30606e-06
3.98533e-06
-1.89782e-06
3.46138e-06
-9.16663e-07
3.3561e-06
-2.37419e-06
3.69716e-06
-3.40737e-06
4.50005e-06
-3.04247e-06
3.75265e-07
2.04417e-06
-5.32386e-06
2.62499e-06
-1.62801e-06
-6.4334e-06
1.6431e-06
-6.50585e-06
-2.9436e-06
6.19442e-07
-7.91666e-06
-2.69009e-06
-2.93742e-05
6.31658e-06
-5.76135e-05
1.07325e-05
-9.47051e-05
2.15628e-05
-0.000142054
3.96023e-05
-0.0001565
4.16585e-05
-0.000149422
4.83171e-05
-0.000156823
5.57818e-05
-0.000193275
8.48096e-05
-0.000238123
0.000144176
-0.000272035
0.000190715
-0.00028507
0.000262192
-0.000227456
0.00034967
0.000407536
-2.3036e-05
-4.56811e-06
4.83868e-06
-2.25786e-05
-4.47452e-06
3.10861e-06
-2.40187e-05
-1.16229e-06
-2.06876e-06
-2.39131e-05
8.09613e-07
-6.09547e-06
-2.02476e-05
-1.13435e-06
-7.19955e-06
-1.66634e-05
-1.54164e-06
-8.87223e-06
-1.48008e-05
6.25016e-07
-1.14095e-05
-1.47799e-05
2.41131e-06
-1.22349e-05
-1.85444e-05
5.62297e-06
-1.13136e-05
-2.33004e-05
9.44065e-06
-1.27342e-05
-2.4962e-05
8.09487e-06
-8.69221e-06
-2.75999e-05
3.02014e-07
9.45132e-06
-3.1855e-05
-9.40983e-07
8.87585e-06
-3.29142e-05
-3.42184e-07
2.19326e-06
-3.52926e-05
-1.63943e-06
1.08788e-05
-3.84343e-05
-1.53104e-06
6.27682e-06
-3.86173e-05
-2.62063e-06
2.51718e-06
-3.77021e-05
-5.02964e-06
9.39674e-06
-3.41496e-05
-7.11338e-06
5.49474e-06
-3.09347e-05
-8.13698e-06
9.04757e-06
-3.24646e-05
-6.36819e-06
1.6702e-05
-3.84694e-05
-3.92006e-06
1.89188e-05
-4.5262e-05
-4.67139e-06
2.43393e-05
-4.62529e-05
-9.12122e-06
2.23055e-05
-3.96706e-05
-1.63795e-05
2.13334e-05
-3.1521e-05
-1.8029e-05
2.62529e-05
-2.20713e-05
-1.82708e-05
3.11194e-05
-1.25269e-05
-1.7725e-05
2.97999e-05
-6.08547e-06
-1.64704e-05
3.21484e-05
-1.4461e-06
-1.35918e-05
2.96458e-05
3.06139e-06
-1.41084e-05
3.04092e-05
6.2818e-06
-8.43435e-06
2.51038e-05
2.7612e-05
-2.75751e-05
3.42956e-05
5.38309e-05
-9.54911e-06
2.23129e-05
8.73067e-05
-2.53912e-05
-1.6242e-05
7.98143e-05
0.000106062
-0.000355589
0.000212994
-0.000163823
3.33089e-05
-0.000387294
-0.000129787
-9.28823e-06
2.64136e-06
5.14756e-06
-1.81581e-05
1.32844e-06
1.54367e-05
-2.25749e-05
-1.97615e-06
8.39295e-06
-1.82873e-05
-4.52733e-06
-2.08194e-06
-1.35062e-05
-5.12494e-06
-2.45436e-06
-1.1287e-05
-4.02376e-06
-1.45304e-06
-8.84192e-06
-3.26177e-06
-4.92254e-06
-4.78205e-06
-2.43533e-06
-9.07597e-06
-5.57749e-07
1.1356e-06
-1.15874e-05
3.52135e-06
5.51347e-06
-1.49641e-05
7.74396e-06
7.10722e-06
-2.07051e-05
8.86863e-06
4.61338e-06
-1.95038e-05
7.83975e-06
2.39363e-06
-8.62602e-06
8.1174e-06
9.60046e-07
-6.41508e-06
9.12641e-06
-1.16814e-06
-5.05493e-06
1.04043e-05
-3.23424e-06
1.89146e-07
1.20948e-05
-5.22224e-06
2.37228e-08
1.39259e-05
-7.3568e-06
-1.08053e-06
1.58905e-05
-9.17522e-06
-2.9074e-06
1.79726e-05
-9.71923e-06
-3.91449e-06
2.10192e-05
-9.49419e-06
-2.2767e-06
2.47794e-05
-8.46346e-06
-2.80165e-07
2.87203e-05
-1.06134e-05
1.67396e-06
3.16263e-05
-1.34039e-05
2.9461e-06
3.3948e-05
-1.78382e-05
3.85025e-06
3.70541e-05
-1.77492e-05
5.7756e-06
3.92634e-05
-1.7901e-05
9.66073e-06
3.90765e-05
-1.52381e-05
5.54621e-06
4.08988e-05
-1.77071e-05
-6.11793e-06
3.82816e-05
-1.04266e-05
1.45386e-06
4.16859e-05
-1.58135e-05
-1.07118e-05
3.67166e-05
-1.16102e-06
6.18103e-08
3.49094e-05
-2.57271e-05
-4.12525e-06
7.04873e-05
1.13989e-05
-5.3666e-06
6.02952e-05
7.68309e-06
8.49557e-05
7.52535e-05
0.000107315
-7.60233e-06
0.000236519
-0.000217288
-0.000352611
-0.00033372
9.21106e-05
3.95128e-06
2.96299e-06
-5.08084e-06
4.04375e-06
3.30182e-06
-4.65821e-06
3.23423e-06
1.92471e-06
-1.77778e-06
1.69203e-06
1.08668e-07
3.90774e-06
-1.53815e-06
-1.05299e-06
9.1204e-06
-3.99383e-06
-3.03991e-06
7.80103e-06
-3.19177e-06
-5.89352e-06
2.32506e-06
-1.09908e-06
-6.50981e-06
-3.17611e-06
1.01603e-06
-2.98082e-06
-6.6839e-06
5.5041e-06
5.48793e-07
-7.88143e-06
1.0323e-05
3.98992e-06
-1.15903e-05
1.38603e-05
3.27644e-06
-1.27423e-05
1.66333e-05
1.62955e-06
-1.09088e-05
1.89931e-05
6.31013e-07
-9.70188e-06
2.08805e-05
-8.26115e-07
-8.47726e-06
2.22193e-05
-2.62989e-06
-7.67281e-06
2.3437e-05
-4.45833e-06
-7.11712e-06
2.42234e-05
-5.89885e-06
-6.33864e-06
2.4962e-05
-7.20362e-06
-6.95911e-06
2.66211e-05
-8.66084e-06
-7.24705e-06
2.75241e-05
-7.61664e-06
-7.0905e-06
2.94568e-05
-7.42996e-06
-4.88531e-06
3.02795e-05
-9.41777e-06
-4.98118e-06
3.01194e-05
-1.05468e-05
-3.69145e-06
3.16134e-05
-1.5002e-05
3.52114e-06
2.9276e-05
-1.21212e-05
-1.37413e-06
3.35466e-05
-2.4207e-05
-1.43139e-05
3.59063e-05
-1.85709e-05
-2.08512e-05
3.63916e-05
-2.00085e-05
-2.68095e-05
3.70977e-05
-2.00276e-05
-1.78411e-05
4.21546e-05
-1.43183e-05
-2.68844e-05
3.38652e-05
-3.95725e-06
-5.08174e-06
4.41482e-05
-2.28553e-05
-3.34289e-05
2.58985e-05
1.27081e-05
6.3209e-06
9.52949e-05
2.83875e-05
-4.491e-05
8.8162e-05
-1.91942e-05
0.000125903
0.000117986
-2.78963e-05
-6.13444e-05
-0.000238439
-0.000519021
5.25198e-06
2.62133e-06
-2.87369e-06
7.06134e-06
2.56985e-06
-3.18355e-06
8.73685e-06
1.77195e-06
-2.72367e-06
9.13971e-06
1.46908e-06
-3.50434e-06
9.17912e-06
1.06295e-06
-2.2184e-06
9.36954e-06
7.83701e-07
-6.98414e-07
9.8415e-06
2.14909e-07
6.23218e-06
8.46705e-06
-2.0286e-06
1.01185e-05
5.77097e-06
-2.98957e-06
2.82151e-06
5.14888e-06
-3.38689e-06
-2.78166e-06
8.0249e-06
-6.19179e-08
-6.811e-06
1.22745e-05
7.58781e-07
-1.01373e-05
1.53338e-05
1.08785e-06
-1.08719e-05
1.74455e-05
9.4895e-07
-1.13613e-05
1.92659e-05
2.80683e-07
-1.07017e-05
2.05949e-05
-1.00498e-06
-9.80558e-06
2.1897e-05
-3.10253e-06
-9.68806e-06
2.31829e-05
-3.51003e-06
-9.51804e-06
2.51966e-05
-6.17531e-06
-6.90194e-06
2.58172e-05
-6.73647e-06
-1.21908e-05
2.83293e-05
-5.62361e-06
-6.59134e-06
3.13494e-05
-7.37131e-06
-9.62881e-06
3.64847e-05
-1.01972e-05
-7.32877e-06
3.51966e-05
-9.8638e-06
-1.58359e-05
4.08688e-05
-1.41442e-05
-7.72104e-06
3.97571e-05
-9.9889e-06
-2.56016e-05
3.25233e-05
-1.8185e-05
-1.96861e-05
3.41457e-05
-1.49089e-05
-9.61931e-06
2.53909e-05
-8.73051e-06
-2.2825e-05
3.11164e-05
-2.22795e-05
-1.09162e-05
3.76918e-05
-1.00016e-05
1.96468e-06
3.82114e-05
1.7764e-06
-1.90229e-05
3.7832e-05
-1.15934e-05
-2.49704e-05
4.61074e-05
-5.04524e-07
9.58797e-06
7.80343e-05
2.30159e-05
9.88992e-07
0.000152296
-1.6168e-05
0.000130373
0.000170343
-7.89536e-05
-0.00014846
7.10087e-05
-0.000262291
6.67577e-06
1.75908e-06
1.7078e-07
7.74985e-06
1.846e-06
-1.0887e-06
8.56816e-06
1.58478e-06
-1.08136e-06
9.57038e-06
1.14313e-06
-1.1079e-06
1.07009e-05
6.81481e-07
-5.84635e-07
1.12908e-05
8.40498e-07
1.35938e-07
1.1791e-05
1.2134e-06
-4.43129e-08
1.14835e-05
1.02697e-06
4.74413e-06
1.17124e-05
5.65762e-07
9.03708e-06
1.05488e-05
-1.71106e-06
8.37705e-06
8.68248e-06
-1.53692e-06
4.20874e-06
9.17291e-06
-2.07782e-06
-1.98372e-07
1.03289e-05
-8.31169e-07
-2.8444e-06
1.20356e-05
-7.92288e-07
-3.22636e-06
1.39992e-05
-1.13116e-06
-3.38954e-06
1.58277e-05
-1.77901e-06
-2.27701e-06
1.66368e-05
-2.59811e-06
-3.36455e-06
1.92731e-05
-4.16448e-06
-2.64178e-06
2.10595e-05
-7.19083e-06
-2.94393e-06
2.22978e-05
-6.35259e-06
5.51877e-08
2.55434e-05
-8.17298e-06
-5.53631e-06
2.67005e-05
-6.69388e-06
-2.16031e-06
2.71688e-05
-8.94896e-06
-3.74288e-06
2.75029e-05
-7.78256e-06
-2.92929e-06
2.80381e-05
-1.0748e-05
1.63165e-06
3.35468e-05
-1.44297e-05
-1.60479e-05
3.2205e-05
-8.73541e-06
1.26704e-05
3.21246e-05
-1.36979e-05
-8.02962e-06
3.939e-05
-9.63037e-06
-2.02552e-05
3.56962e-05
-7.5219e-06
2.5168e-05
3.8868e-05
-1.20212e-05
-1.63148e-05
3.86207e-05
6.06529e-07
-1.21593e-05
3.73707e-05
-8.45716e-06
-2.1046e-05
3.24173e-05
6.99157e-06
1.46718e-05
3.80787e-05
3.04093e-05
-3.03315e-05
4.42377e-05
-3.92679e-05
1.79063e-05
5.36718e-05
-2.14713e-06
1.21438e-05
7.80869e-05
-1.52408e-06
8.79209e-06
1.49894e-06
6.39189e-07
9.63812e-06
1.51818e-06
-1.53682e-07
1.05849e-05
1.33632e-06
-4.47013e-07
1.1464e-05
1.02181e-06
-1.04474e-06
1.19644e-05
1.14177e-06
-1.47986e-06
1.26258e-05
1.25481e-06
-6.32911e-07
1.37237e-05
9.82873e-07
-1.07431e-06
1.46463e-05
1.57474e-06
1.04749e-06
1.54124e-05
2.12186e-06
1.64853e-06
1.57592e-05
1.84348e-06
4.78015e-06
1.61868e-05
5.9946e-07
1.0056e-05
1.54556e-05
-6.56365e-07
8.41251e-06
1.39986e-05
1.68618e-07
5.86848e-06
1.3769e-05
-1.26136e-06
4.85287e-06
1.43076e-05
-2.84581e-06
4.45954e-06
1.53488e-05
-3.75144e-06
2.99893e-06
1.68885e-05
-3.67567e-06
8.69633e-07
2.05463e-05
-6.00856e-06
-7.39023e-07
2.19847e-05
-7.48368e-06
5.05348e-07
2.51932e-05
-8.46573e-06
-1.07635e-06
2.68972e-05
-1.00544e-05
-1.49783e-06
2.84352e-05
-7.63111e-06
-3.34844e-06
2.8711e-05
-7.9837e-06
-7.10304e-06
3.29983e-05
-7.36853e-06
-1.60765e-06
3.32124e-05
-1.03302e-05
-1.38077e-05
3.60193e-05
-1.25468e-05
-6.43107e-06
3.72653e-05
-7.5398e-06
-1.46045e-05
3.4398e-05
-1.03282e-05
-2.06367e-05
3.58811e-05
-9.07314e-06
-2.31937e-06
3.74879e-05
4.23376e-06
-1.28247e-05
3.04235e-05
-8.72353e-06
-3.20469e-05
3.61119e-05
3.72109e-06
5.22346e-06
4.05978e-05
-7.30419e-06
-2.63294e-05
4.10325e-05
4.29108e-05
2.10648e-05
4.33922e-05
1.15337e-05
-1.21707e-05
3.69602e-05
-1.35317e-05
-5.02364e-05
5.77668e-05
6.30081e-05
8.00444e-06
0.00017967
1.71335e-05
9.44898e-06
1.19521e-06
1.01255e-07
1.01022e-05
1.36122e-06
-3.62848e-07
1.07745e-05
1.18256e-06
-4.41777e-07
1.14735e-05
9.17793e-07
-6.63381e-07
1.21869e-05
1.02967e-06
-1.15121e-06
1.30876e-05
1.03851e-06
-4.88651e-07
1.36565e-05
9.65919e-07
-1.27758e-06
1.50161e-05
1.0141e-06
-3.31405e-07
1.61899e-05
1.4635e-06
2.88052e-07
1.71136e-05
1.85004e-06
1.0408e-06
1.96879e-05
5.35113e-07
1.30992e-06
2.02541e-05
4.26197e-07
5.40583e-06
2.06631e-05
1.35693e-06
3.28026e-06
2.27143e-05
-9.26685e-07
1.31104e-06
2.47318e-05
-2.86274e-06
4.59114e-06
2.55304e-05
-3.24574e-06
3.37215e-06
2.53551e-05
-3.64752e-06
-6.40867e-07
2.65967e-05
-4.75347e-06
-3.40412e-06
2.76156e-05
-5.57014e-06
1.37259e-06
2.91627e-05
-6.98904e-06
3.88889e-07
2.88989e-05
-8.17634e-06
2.35747e-06
2.82568e-05
-6.21974e-06
-3.0109e-06
3.01091e-05
-7.3487e-06
-8.5716e-07
3.12361e-05
-9.78179e-06
-1.1017e-05
3.29217e-05
-7.41889e-06
2.90261e-06
3.47359e-05
-1.05116e-05
-3.78013e-06
3.78077e-05
-1.0817e-05
-8.47277e-06
4.21624e-05
-9.57491e-06
-6.6891e-06
4.49965e-05
3.58963e-07
-3.96236e-06
5.23693e-05
2.16466e-06
-1.46124e-05
4.87098e-05
6.52111e-06
-1.74488e-05
3.90089e-05
1.84326e-05
-4.05665e-05
1.80556e-05
1.73236e-05
-3.49577e-05
3.24458e-05
1.29293e-05
-2.00853e-05
3.41782e-05
1.71253e-05
3.56363e-05
6.23304e-06
3.17913e-05
-1.32848e-05
9.59829e-06
0.000119723
-1.96313e-05
0.000250602
3.65155e-05
9.67549e-06
8.99514e-07
-5.18823e-07
1.02987e-05
1.28478e-06
-8.23014e-07
1.10714e-05
9.57817e-07
-9.48545e-07
1.17832e-05
9.06507e-07
-8.70686e-07
1.24863e-05
9.41902e-07
-1.88927e-06
1.32939e-05
1.10893e-06
-5.71551e-07
1.41425e-05
7.03318e-07
-1.97533e-06
1.54114e-05
6.01123e-07
-1.16861e-06
1.61726e-05
1.37278e-06
-4.63938e-07
1.80158e-05
6.36748e-07
-9.39471e-07
1.95631e-05
-1.20528e-07
-8.97929e-07
2.06755e-05
3.99996e-07
1.14231e-06
2.23663e-05
1.14506e-06
1.85099e-06
2.34919e-05
-9.31267e-07
-1.42126e-06
2.52395e-05
-2.95181e-06
-4.71024e-07
2.64477e-05
-1.82685e-06
9.87217e-07
2.63579e-05
-2.79844e-06
2.20388e-07
2.7707e-05
-4.40122e-06
-2.71455e-06
2.79025e-05
-5.47707e-06
-2.40523e-06
2.94359e-05
-5.14037e-06
-2.45006e-06
2.99014e-05
-5.39792e-06
2.98025e-06
2.97046e-05
-3.50414e-06
-9.88682e-08
3.19763e-05
-7.41996e-06
-1.41607e-06
3.20008e-05
-1.01224e-05
-5.17259e-06
3.43667e-05
-6.0757e-06
-5.41858e-06
3.66962e-05
-9.92144e-06
1.36989e-06
3.7989e-05
-8.92366e-06
-9.63675e-06
3.56757e-05
-3.77278e-06
7.98721e-07
3.4644e-05
5.23074e-06
-3.02778e-06
3.04909e-05
4.5581e-06
-9.72578e-06
2.03879e-05
2.38159e-05
2.69952e-05
2.07548e-05
2.21648e-05
4.93336e-07
3.12657e-05
2.00467e-05
-2.75631e-06
4.11037e-05
-2.25473e-05
-5.64003e-05
4.82108e-05
3.30267e-05
-7.02117e-05
2.26821e-05
8.38394e-05
-5.25777e-05
-1.38443e-05
0.000175427
-6.49139e-05
0.000293452
-2.81063e-05
9.65593e-06
5.09653e-07
-4.0852e-07
1.01806e-05
1.15641e-06
-9.77475e-07
1.09647e-05
6.66136e-07
-5.71687e-07
1.15948e-05
7.05455e-07
-8.49463e-07
1.24154e-05
7.51723e-07
-1.43549e-06
1.31122e-05
9.03689e-07
-4.00813e-07
1.41012e-05
3.14269e-07
-1.38967e-06
1.50549e-05
2.64138e-07
-1.59045e-06
1.61338e-05
9.6284e-07
5.7049e-07
1.81867e-05
-1.14479e-06
-2.03235e-06
1.87107e-05
8.80008e-08
-1.46546e-06
2.00317e-05
-2.8167e-07
4.56541e-07
2.25752e-05
-6.344e-07
-9.7567e-07
2.33545e-05
-9.41885e-07
-1.32449e-07
2.37912e-05
-2.92035e-06
-1.53196e-06
2.49578e-05
-2.02623e-06
-1.93746e-06
2.56659e-05
-3.37973e-06
3.56163e-06
2.68934e-05
-4.9274e-06
-2.77456e-06
2.65292e-05
-5.28003e-06
2.77272e-06
2.70072e-05
-5.09223e-06
-4.95799e-06
2.71417e-05
-4.41666e-06
1.37124e-08
2.89051e-05
-4.08255e-06
-3.22319e-06
2.93173e-05
-7.25453e-06
-6.39822e-08
3.01563e-05
-8.09684e-06
1.48537e-06
3.3061e-05
-9.79687e-06
-2.53812e-06
3.73957e-05
-1.16127e-05
-9.08926e-06
4.36573e-05
-1.33608e-05
7.10982e-06
5.06609e-05
-7.23761e-06
-1.48445e-05
5.94294e-05
-6.09539e-07
-2.50847e-06
5.70158e-05
1.26468e-05
-1.86912e-05
4.25064e-05
3.24065e-05
-2.72265e-05
3.99367e-05
3.18596e-05
-1.83293e-05
5.34277e-05
1.57901e-05
-2.49949e-06
3.08813e-05
8.19127e-06
3.01063e-05
9.85407e-06
6.02676e-05
-1.59958e-05
-1.01584e-05
0.000131154
-3.90542e-05
-4.13773e-05
0.000217785
-4.67763e-05
0.000308367
-6.04365e-05
9.66329e-06
2.10232e-07
-4.24274e-07
1.02921e-05
9.64994e-07
-1.352e-06
1.10041e-05
4.24735e-07
-6.79342e-07
1.16386e-05
5.06852e-07
-8.78248e-07
1.24785e-05
6.03912e-07
-1.74939e-06
1.31039e-05
6.00641e-07
-4.90495e-07
1.38562e-05
3.34734e-07
-1.24595e-06
1.48883e-05
-1.91231e-07
-2.07936e-06
1.58698e-05
3.41754e-07