/*--------------------------------*- C++ -*----------------------------------*\
| =========                 |                                                 |
| \\      /  F ield         | OpenFOAM: The Open Source CFD Toolbox           |
|  \\    /   O peration     | Version:  2.3.1                                 |
|   \\  /    A nd           | Web:      www.OpenFOAM.org                      |
|    \\/     M anipulation  |                                                 |
\*---------------------------------------------------------------------------*/
FoamFile
{
    version     2.0;
    format      ascii;
    class       volScalarField;
    location    "15";
    object      Sed;
}
// * * * * * * * * * * * * * * * * * * * * * * * * * * * * * * * * * * * * * //

dimensions      [0 0 0 0 0 0 0];

internalField   nonuniform List<scalar> 
38262
(
1.68408e-157
1.30793e-158
1.73933e-159
3.3774e-160
8.43191e-161
2.45854e-161
6.86283e-162
1.68699e-162
3.24343e-163
5.98428e-164
1.06681e-164
2.96363e-165
6.67225e-166
2.13944e-166
8.53261e-167
2.93222e-167
1.88295e-167
1.26045e-167
7.31555e-168
3.60308e-168
1.18468e-168
3.55055e-169
1.65127e-169
1.05917e-169
8.05837e-170
5.62498e-170
3.81079e-170
2.19727e-170
1.27151e-170
5.3609e-171
2.86153e-171
1.06147e-171
6.79658e-172
9.61569e-173
3.10422e-173
3.84879e-173
3.6019e-173
2.93417e-173
3.76079e-156
2.05798e-157
2.67616e-158
7.74915e-159
1.61993e-159
2.9605e-160
8.74006e-161
2.87111e-161
8.39479e-162
2.36638e-162
6.7215e-163
2.08407e-163
5.00013e-164
1.29989e-164
4.34599e-165
1.53368e-165
6.32748e-166
2.86015e-166
1.30927e-166
5.82723e-167
2.25006e-167
8.28445e-168
3.46314e-168
1.54897e-168
6.81278e-169
3.85299e-169
2.15877e-169
1.08093e-169
6.01122e-170
2.59409e-170
1.24728e-170
5.21261e-171
2.43895e-171
7.14385e-172
6.33691e-173
4.6426e-173
5.34137e-173
4.31616e-173
6.82341e-155
9.99599e-156
7.84131e-157
6.36512e-158
6.12029e-159
9.29075e-160
1.99506e-160
8.3743e-161
3.29717e-161
8.57215e-162
2.63743e-162
9.37133e-163
3.12093e-163
1.03113e-163
3.3993e-164
1.1963e-164
4.14129e-165
1.41209e-165
4.82303e-166
1.88648e-166
5.90158e-167
1.9058e-167
7.36699e-168
3.31519e-168
1.0582e-168
8.91742e-169
4.8453e-169
2.25932e-169
1.1802e-169
4.57752e-170
1.83762e-170
7.42454e-171
3.53522e-171
1.08189e-171
2.91497e-172
1.68477e-172
1.17488e-172
2.93568e-173
5.69213e-154
8.72341e-155
1.149e-155
1.97109e-156
2.54097e-157
2.66518e-158
1.9134e-159
2.03729e-160
3.93459e-161
2.05188e-161
8.94055e-162
3.69103e-162
1.35361e-162
4.73932e-163
1.45205e-163
4.35591e-164
1.38652e-164
4.11128e-165
1.13256e-165
4.99419e-166
1.30686e-166
5.28344e-167
1.91267e-167
1.26353e-167
3.77102e-168
2.83003e-168
1.40777e-168
5.16442e-169
2.64691e-169
1.03899e-169
3.90997e-170
1.67595e-170
7.16146e-171
2.88189e-171
9.33058e-172
2.47251e-172
5.63917e-173
2.31331e-173
1.05549e-153
2.15642e-154
3.53352e-155
6.02957e-156
9.46934e-157
1.31651e-157
1.96677e-158
2.5038e-159
2.22762e-160
3.6777e-161
7.78556e-162
3.09748e-162
1.13132e-162
3.83882e-163
1.20123e-163
3.30789e-164
1.10393e-164
3.10182e-165
1.05306e-165
2.69224e-166
1.66173e-166
4.94114e-167
2.01135e-167
6.34495e-168
2.75035e-168
2.21543e-168
6.90977e-169
3.93128e-169
1.60617e-169
5.05328e-170
2.17371e-170
8.5344e-171
3.45285e-171
2.13271e-171
8.09133e-172
1.97069e-172
3.35057e-173
1.90197e-173
1.12944e-152
1.59116e-153
2.5128e-154
4.98416e-155
1.0672e-155
1.75188e-156
3.66843e-157
5.69208e-158
8.33439e-159
1.05164e-159
1.07884e-160
1.219e-161
2.14767e-162
4.55089e-163
1.08225e-163
2.81401e-164
8.33846e-165
2.96354e-165
9.11599e-166
3.94822e-166
1.92739e-166
9.15268e-167
4.30961e-167
1.13198e-167
8.48291e-168
2.83087e-168
1.40095e-168
8.04716e-169
2.4725e-169
7.20373e-170
4.10039e-170
8.98648e-171
2.75473e-171
9.5065e-172
5.01476e-172
1.85116e-172
3.09545e-173
1.71441e-173
5.89092e-152
7.89451e-153
1.15111e-153
1.87271e-154
3.39248e-155
5.5195e-156
1.08604e-156
1.82439e-157
3.05594e-158
5.19298e-159
8.67043e-160
1.39236e-160
2.0089e-161
3.70748e-162
7.83709e-163
1.67599e-163
5.76609e-164
1.93534e-164
4.84172e-165
1.14652e-165
2.28667e-166
9.76941e-167
2.53708e-167
2.03876e-167
4.54143e-168
1.26188e-168
5.9426e-169
1.87834e-169
8.69067e-170
2.83763e-170
2.33493e-170
1.24048e-170
4.50207e-171
1.4716e-171
3.67883e-172
9.80056e-173
2.62283e-173
1.45037e-173
9.14284e-152
1.26588e-152
1.85434e-153
2.77182e-154
5.02282e-155
7.42821e-156
1.44225e-156
2.51419e-157
4.32166e-158
8.5116e-159
1.7575e-159
3.31573e-160
6.0176e-161
1.47519e-161
3.49975e-162
8.00387e-163
1.84839e-163
5.02244e-164
1.41017e-164
3.23766e-165
7.0143e-166
1.27093e-166
2.66045e-167
1.13978e-167
2.97008e-168
7.10614e-169
3.17715e-169
8.33757e-170
3.19735e-170
1.37943e-170
5.62906e-171
3.43539e-171
2.1302e-171
5.55789e-172
2.01289e-172
5.7618e-173
1.84818e-173
1.10764e-173
3.39555e-152
5.09897e-153
7.12772e-154
1.07471e-154
1.86759e-155
2.8259e-156
5.06703e-157
9.22068e-158
1.50575e-158
3.41134e-159
7.17718e-160
1.26428e-160
3.03663e-161
6.77541e-162
1.58025e-162
3.83664e-163
7.48708e-164
1.64511e-164
3.12908e-165
7.72057e-166
1.70581e-166
4.27594e-167
8.76417e-168
1.88361e-168
5.4612e-169
1.91583e-169
4.82865e-170
2.28684e-170
8.82448e-171
4.50688e-171
3.67905e-171
1.68528e-171
8.04362e-172
3.43139e-172
9.66031e-173
2.76508e-173
1.21096e-173
8.31029e-174
5.37165e-153
8.91137e-154
1.23892e-154
1.82309e-155
3.28071e-156
5.0578e-157
8.23972e-158
1.57385e-158
2.29075e-159
4.34684e-160
8.53634e-161
1.44137e-161
2.99863e-162
5.93436e-163
1.19007e-163
2.21002e-164
4.00285e-165
7.70655e-166
1.90821e-166
5.92529e-167
1.3318e-167
3.61172e-168
8.27953e-169
2.16032e-169
5.92663e-170
2.11664e-170
4.8891e-171
2.2149e-171
7.8305e-172
3.96106e-172
7.95533e-172
4.34145e-172
2.1158e-172
9.26289e-173
3.84481e-173
1.40367e-173
7.92977e-174
6.2185e-174
3.03038e-154
6.13954e-155
7.84232e-156
1.11599e-156
2.20663e-157
3.15838e-158
5.1243e-159
8.58798e-160
1.06863e-160
2.27561e-161
4.14814e-162
9.76784e-163
2.27251e-163
3.98955e-164
7.17405e-165
1.06605e-165
1.4954e-166
2.6391e-167
9.18188e-168
3.32e-168
8.35914e-169
2.19307e-169
7.18389e-170
2.08819e-170
7.21298e-171
1.49945e-171
3.86103e-172
2.09765e-172
1.19535e-172
9.97704e-173
1.90728e-172
1.59838e-172
1.02322e-172
4.98664e-173
2.073e-173
8.6123e-174
6.56705e-174
5.68953e-174
6.47206e-156
1.64834e-156
1.83304e-157
2.46193e-158
5.68293e-159
7.24446e-160
1.15651e-160
1.41063e-161
1.52025e-162
1.78313e-163
4.85238e-164
1.02731e-164
2.12928e-165
3.97065e-166
9.0009e-167
1.46661e-167
3.19145e-168
8.06936e-169
2.50351e-169
4.60552e-170
9.95145e-171
7.09898e-171
2.35916e-171
3.50849e-172
1.4297e-172
1.77269e-173
6.68899e-174
5.8747e-174
1.12142e-173
2.85758e-173
3.73426e-173
3.01401e-173
1.6556e-173
9.55652e-174
5.18723e-174
3.92941e-174
4.16393e-174
4.91974e-174
3.10716e-156
2.60458e-157
2.78396e-158
5.20529e-159
1.30033e-159
3.37155e-160
8.19743e-161
1.9466e-161
3.53348e-162
6.32965e-163
1.14449e-163
2.35952e-164
7.53493e-165
2.1291e-165
8.1358e-166
3.32371e-166
1.51287e-166
7.29808e-167
3.72152e-167
1.47813e-167
4.55224e-168
1.35155e-168
5.43167e-169
3.05337e-169
1.92163e-169
9.43807e-170
5.24118e-170
2.80216e-170
1.54359e-170
6.36121e-171
3.01296e-171
1.05495e-171
6.97467e-172
1.58084e-172
6.48707e-173
5.29178e-173
4.87075e-173
3.16026e-173
5.96398e-155
3.90589e-156
6.07728e-157
1.35617e-157
2.62941e-158
4.94392e-159
1.20537e-159
3.40865e-160
8.44602e-161
1.94482e-161
4.51725e-162
1.23457e-162
3.06177e-163
8.12059e-164
2.72886e-164
9.8144e-165
3.76646e-165
1.50797e-165
6.09112e-166
2.40079e-166
8.47331e-167
2.883e-167
1.09409e-167
4.58739e-168
1.98749e-168
8.75717e-169
4.4009e-169
2.06984e-169
1.06216e-169
4.36875e-170
1.85396e-170
6.42798e-171
2.69101e-171
8.18148e-172
2.17968e-172
7.23334e-173
7.54322e-173
4.54999e-173
1.03042e-153
1.53821e-154
1.85665e-155
1.73169e-156
1.87658e-157
3.28807e-158
6.57575e-159
1.52189e-159
3.96777e-160
9.72049e-161
2.74671e-161
8.4079e-162
2.57688e-162
7.88307e-163
2.48143e-163
8.30579e-164
2.78414e-164
9.2335e-165
3.05695e-165
1.15288e-165
3.7184e-166
1.20539e-166
4.35986e-167
1.83116e-167
6.55965e-168
2.89572e-168
1.75403e-168
7.37009e-169
3.29977e-169
1.17423e-169
4.06663e-170
1.3397e-170
4.79544e-171
1.51209e-171
5.26585e-172
2.2554e-172
1.07222e-172
2.48551e-173
1.12365e-152
1.61052e-153
2.27217e-154
3.73652e-155
5.54142e-156
7.90372e-157
8.0721e-158
8.70499e-159
1.30069e-159
3.24927e-160
1.06744e-160
3.81699e-161
1.248e-161
3.86845e-162
1.12785e-162
3.27871e-163
1.00032e-163
3.05556e-164
9.05444e-165
3.33509e-165
1.02319e-165
3.78295e-166
1.37481e-166
6.15695e-167
2.08433e-167
1.11398e-167
3.97752e-168
1.32869e-168
5.30978e-169
1.40355e-169
4.44261e-170
1.8427e-170
6.56502e-171
2.07328e-171
7.96389e-172
3.05025e-172
1.02009e-172
3.05375e-173
3.88205e-152
6.26042e-153
9.8225e-154
1.59115e-154
2.5348e-155
3.94703e-156
6.4195e-157
8.419e-158
9.39687e-159
1.38137e-159
2.21311e-160
5.29561e-161
1.57695e-161
4.60049e-162
1.33796e-162
3.73074e-163
1.21048e-163
3.70475e-164
1.22652e-164
3.51913e-165
1.60171e-165
5.35002e-166
2.11718e-166
6.99081e-167
2.40339e-167
1.31081e-167
3.06917e-168
1.47696e-168
6.00799e-169
1.32133e-169
6.44243e-170
2.30309e-170
7.84178e-171
2.3194e-171
7.17591e-172
2.24753e-172
5.7136e-173
2.03205e-173
4.53685e-151
5.78464e-152
8.26845e-153
1.35438e-153
2.3813e-154
3.98281e-155
7.04301e-156
1.10642e-156
1.78622e-157
2.57724e-158
3.26878e-159
4.73965e-160
7.58915e-161
1.38397e-161
3.00749e-162
7.53673e-163
2.14889e-163
8.06344e-164
2.4117e-164
8.64178e-165
3.02144e-165
1.13327e-165
4.2235e-166
1.26962e-166
5.53522e-167
1.74528e-167
7.27664e-168
2.85489e-168
8.02819e-169
2.8718e-169
1.09266e-169
2.47316e-170
8.76214e-171
1.82154e-171
6.99639e-172
2.48694e-172
5.86741e-173
1.74385e-173
1.29162e-150
1.67166e-151
2.31098e-152
3.4626e-153
5.53215e-154
8.83503e-155
1.53231e-155
2.59232e-156
4.44482e-157
7.68696e-158
1.38649e-158
2.32086e-159
4.14654e-160
8.60528e-161
1.77426e-161
4.14123e-162
1.17781e-162
3.5504e-163
8.30385e-164
2.13402e-164
5.05945e-165
1.49372e-165
4.00233e-166
1.58072e-166
3.46114e-167
1.07115e-167
3.98805e-168
1.28052e-168
3.8877e-169
1.68858e-169
6.48514e-170
2.67384e-170
7.95733e-171
1.76593e-171
4.29637e-172
1.05391e-172
3.43765e-173
1.13761e-173
1.43231e-150
1.91653e-151
2.69405e-152
3.93786e-153
6.36566e-154
9.74571e-155
1.69185e-155
2.89978e-156
5.00041e-157
9.40965e-158
1.87519e-158
3.52593e-159
6.84354e-160
1.65066e-160
3.78078e-161
8.31592e-162
1.96915e-162
4.98858e-163
1.2315e-163
2.91884e-164
5.90692e-165
1.37109e-165
3.35229e-166
9.45318e-167
2.69503e-167
6.48701e-168
2.23481e-168
5.93089e-169
2.04714e-169
7.48495e-170
1.36634e-170
6.05888e-171
1.92189e-171
6.81134e-172
2.45008e-172
7.10029e-173
1.90365e-173
6.62744e-174
5.1839e-151
7.28927e-152
1.01586e-152
1.51298e-153
2.42747e-154
3.75088e-155
6.3966e-156
1.13433e-156
1.89402e-157
3.82113e-158
7.76135e-159
1.47562e-159
3.28679e-160
7.25732e-161
1.60973e-161
3.58986e-162
6.58832e-163
1.41187e-163
2.61898e-164
6.26374e-165
1.27445e-165
3.06243e-166
6.37494e-167
1.30815e-167
3.69155e-168
1.16022e-168
2.65325e-169
1.24942e-169
4.62556e-170
2.34265e-170
1.17257e-170
4.36821e-171
1.26487e-171
2.86857e-172
8.5337e-173
2.92367e-173
1.0183e-173
4.61715e-174
8.64443e-152
1.29285e-152
1.79637e-153
2.70394e-154
4.43458e-155
6.90132e-156
1.14243e-156
2.04171e-157
3.24718e-158
5.93746e-159
1.14618e-159
2.14882e-160
4.32027e-161
8.59243e-162
1.70605e-162
3.159e-163
5.4798e-164
9.86148e-165
2.14939e-165
5.46231e-166
1.15816e-166
2.80457e-167
6.29778e-168
1.56938e-168
4.34282e-169
1.31238e-169
3.20952e-170
1.23172e-170
4.24922e-171
1.85307e-171
2.09411e-171
1.088e-171
3.30675e-172
5.61156e-173
2.93337e-173
1.28492e-173
5.80338e-174
3.26064e-174
5.46751e-153
9.30965e-154
1.22309e-154
1.87634e-155
3.23873e-156
4.78877e-157
7.98828e-158
1.32172e-158
1.90161e-159
3.37069e-160
5.86984e-161
1.18581e-161
2.54022e-162
4.71389e-163
9.09699e-164
1.49772e-164
2.4074e-165
4.13266e-166
1.12678e-166
3.48581e-167
8.29733e-168
2.04321e-168
5.6203e-169
1.49767e-169
4.59127e-170
9.73003e-171
2.59064e-171
1.14896e-171
5.18345e-172
4.10506e-172
4.01096e-172
2.68802e-172
1.18298e-172
4.34735e-173
1.73952e-173
7.33494e-174
4.45371e-174
3.20468e-174
1.12421e-154
2.29275e-155
2.72866e-156
4.12606e-157
8.09137e-158
1.04995e-158
1.72758e-159
2.39049e-160
2.87257e-161
4.50967e-162
6.39441e-163
1.37559e-163
4.07438e-164
6.97736e-165
1.4574e-165
2.65311e-166
5.33319e-167
1.16466e-167
3.46284e-168
8.65133e-169
1.94439e-169
7.11579e-170
2.19054e-170
4.70655e-171
1.42873e-171
1.85857e-172
5.30982e-173
2.721e-173
2.48321e-173
4.73093e-173
5.28343e-173
3.04844e-173
1.25874e-173
7.67466e-174
4.5449e-174
3.53625e-174
3.58691e-174
4.08136e-174
1.87592e-155
1.91526e-156
2.10384e-157
3.90701e-158
9.23055e-159
2.26006e-159
5.39621e-160
1.17478e-160
1.89035e-161
2.95982e-162
4.60001e-163
8.54507e-164
3.20881e-164
8.05059e-165
2.8064e-165
1.15525e-165
4.72862e-166
2.10702e-166
9.28623e-167
3.3612e-167
9.94689e-168
2.886e-168
1.13864e-168
6.03513e-169
3.44173e-169
1.58223e-169
7.5973e-170
3.62003e-170
1.60238e-170
6.39227e-171
2.71999e-171
9.73175e-172
5.79092e-172
1.78298e-172
7.0833e-173
5.58507e-173
3.19248e-173
1.46261e-173
4.35302e-154
3.57499e-155
4.35627e-156
1.0113e-156
2.04616e-157
3.90476e-158
8.75975e-159
2.19409e-159
4.89434e-160
1.01791e-160
1.88049e-161
4.21371e-162
1.07906e-162
2.8445e-163
9.09615e-164
3.16283e-164
1.1383e-164
4.23037e-165
1.58593e-165
5.62288e-166
1.86764e-166
6.0527e-167
2.15932e-167
8.62806e-168
3.6778e-168
1.55289e-168
6.80452e-169
2.90582e-169
1.21979e-169
4.57929e-170
1.74427e-170
5.86568e-171
2.27244e-171
7.11002e-172
2.19964e-172
1.6181e-172
6.35317e-173
3.0358e-173
8.39147e-153
1.18299e-153
1.52861e-154
1.78531e-155
2.30787e-156
3.81324e-157
7.57524e-158
1.71684e-158
3.80528e-159
8.38237e-160
1.88282e-160
4.61788e-161
1.27656e-161
3.58448e-162
1.0642e-162
3.32232e-163
1.05501e-163
3.36983e-164
1.10084e-164
3.65467e-165
1.18269e-165
3.79066e-166
1.27676e-166
4.73017e-167
1.70957e-167
6.80516e-168
3.00925e-168
1.16632e-168
4.32073e-169
1.47836e-169
4.82003e-170
1.46778e-170
4.83118e-171
1.48611e-171
5.14048e-172
2.39425e-172
8.46516e-173
1.52067e-173
1.31427e-151
1.69044e-152
2.26192e-153
3.40255e-154
5.04355e-155
7.58054e-156
9.96764e-157
1.31791e-157
2.35249e-158
5.1208e-159
1.19086e-159
3.13384e-160
8.54162e-161
2.28732e-161
6.11843e-162
1.69044e-162
4.88446e-163
1.44964e-163
4.26935e-164
1.41588e-164
4.37453e-165
1.48432e-165
4.99472e-166
1.92352e-166
6.6301e-167
2.70558e-167
9.20493e-168
3.08354e-168
1.07867e-168
3.11437e-169
9.46591e-170
2.87939e-170
7.98211e-171
1.97919e-171
6.09531e-172
2.51614e-172
6.08773e-173
1.44567e-173
7.50034e-151
9.93378e-152
1.38473e-152
2.01047e-153
2.97269e-154
4.52203e-155
7.14096e-156
1.01893e-156
1.40911e-157
2.07934e-158
3.4983e-159
8.46289e-160
2.06175e-160
4.95456e-161
1.27678e-161
3.44198e-162
1.019e-162
3.04771e-163
9.48489e-164
2.85424e-164
9.98842e-165
3.23166e-165
1.08202e-165
3.54102e-166
1.12159e-166
4.18861e-167
1.11619e-167
3.89387e-168
1.31902e-168
3.22105e-169
1.15937e-169
3.46294e-170
9.6486e-171
2.60096e-171
7.40515e-172
2.04074e-172
5.30698e-173
1.15324e-173
5.85387e-150
7.13472e-151
9.43575e-152
1.35303e-152
2.03718e-153
3.11441e-154
4.91409e-155
7.67708e-156
1.24607e-156
2.02477e-157
3.16899e-158
5.70208e-159
1.07277e-159
2.17708e-160
4.75682e-161
1.17204e-161
3.22603e-162
9.54631e-163
2.70018e-163
7.98031e-164
2.35049e-164
7.00902e-165
2.11588e-165
6.14817e-166
2.00928e-166
6.08905e-167
2.01783e-167
6.52778e-168
1.86732e-168
6.0319e-169
1.84228e-169
4.615e-170
1.30076e-170
3.06558e-171
9.64232e-172
2.80155e-172
6.30536e-173
1.07803e-173
1.04287e-149
1.311e-150
1.73937e-151
2.44076e-152
3.59946e-153
5.45842e-154
8.72974e-155
1.41346e-155
2.3603e-156
4.08576e-157
7.59901e-158
1.38607e-158
2.77417e-159
6.05411e-160
1.28401e-160
2.99861e-161
7.5263e-162
1.93126e-162
4.5861e-163
1.16677e-163
2.95186e-164
8.16191e-165
2.17629e-165
6.40203e-166
1.58522e-166
4.59584e-167
1.38836e-167
4.18075e-168
1.27279e-168
4.33084e-169
1.4111e-169
4.45129e-170
1.13476e-170
2.50296e-171
5.93557e-172
1.47113e-172
3.55569e-173
6.92311e-174
9.37813e-150
1.21066e-150
1.63648e-151
2.31152e-152
3.46556e-153
5.24117e-154
8.46349e-155
1.39404e-155
2.35927e-156
4.24088e-157
8.08232e-158
1.56178e-158
3.17968e-159
7.0835e-160
1.57484e-160
3.5641e-161
8.14136e-162
1.93323e-162
4.50041e-163
1.06934e-163
2.3872e-164
5.78268e-165
1.43011e-165
3.63501e-166
9.68956e-167
2.48643e-167
7.26208e-168
2.05649e-168
6.36538e-169
2.00017e-169
4.40734e-170
1.32255e-170
3.50454e-171
1.11147e-171
2.99705e-172
7.0929e-173
1.53812e-173
3.78847e-174
3.35198e-150
4.49535e-151
6.14425e-152
8.89787e-153
1.35061e-153
2.07529e-154
3.38607e-155
5.75872e-156
9.81597e-157
1.82889e-157
3.55034e-158
6.91911e-159
1.44937e-159
3.0911e-160
6.66482e-161
1.42836e-161
2.77903e-162
5.85379e-163
1.12778e-163
2.56349e-164
5.35462e-165
1.21665e-165
2.61238e-166
5.7921e-167
1.46125e-167
4.09234e-168
1.01355e-168
3.98706e-169
1.38691e-169
6.46068e-170
2.8205e-170
1.01665e-170
2.88325e-171
4.39407e-172
1.09602e-172
3.33792e-173
9.26006e-174
3.21634e-174
5.95039e-151
8.32861e-152
1.1485e-152
1.70573e-153
2.64061e-154
4.10869e-155
6.71548e-156
1.14471e-156
1.93794e-157
3.42697e-158
6.52849e-159
1.25804e-159
2.45208e-160
4.84185e-161
9.66927e-162
1.83492e-162
3.30637e-163
5.81761e-164
1.14139e-164
2.5019e-165
5.1734e-166
1.16098e-166
2.59335e-167
6.24128e-168
1.61836e-168
4.29404e-169
1.10989e-169
3.72717e-170
1.27391e-170
6.16979e-171
3.95284e-171
2.04101e-171
7.01925e-172
9.78093e-173
2.84109e-173
1.22062e-173
5.05775e-174
2.22449e-174
4.37359e-152
6.65073e-153
8.90213e-154
1.38454e-154
2.19789e-155
3.37098e-156
5.59088e-157
9.18839e-158
1.4749e-158
2.50779e-159
4.52126e-160
8.23469e-161
1.51821e-161
2.78062e-162
5.43747e-163
9.3967e-164
1.53668e-164
2.55499e-165
5.88175e-166
1.55457e-166
3.49173e-167
8.24387e-168
2.1176e-168
5.33165e-169
1.46058e-169
3.03933e-170
8.08247e-171
3.15601e-171
1.28183e-171
1.06378e-171
8.34072e-172
5.05495e-172
2.11943e-172
6.25578e-173
1.94887e-173
7.17699e-174
3.44739e-174
1.99598e-174
1.02932e-153
1.73884e-154
2.16397e-155
3.53075e-156
5.90638e-157
8.27458e-158
1.37873e-158
2.11756e-159
2.83345e-160
5.16584e-161
8.18318e-162
1.47758e-162
3.24845e-163
4.79223e-164
8.88481e-165
1.5899e-165
3.11372e-166
6.4566e-167
1.74973e-167
4.44391e-168
9.77884e-169
2.94876e-169
8.32641e-170
1.91979e-170
4.51506e-171
6.36964e-172
1.7949e-172
7.6908e-173
5.73857e-173
9.15689e-173
9.36308e-173
4.30893e-173
1.42067e-173
6.26158e-174
4.08604e-174
2.89485e-174
2.78603e-174
2.98394e-174
6.95314e-155
8.94787e-156
1.04261e-156
1.72407e-157
3.85521e-158
9.10221e-159
2.08851e-159
4.20672e-160
6.5541e-161
8.63696e-162
1.20898e-162
2.04615e-163
6.87185e-164
1.73886e-164
5.3191e-165
2.34166e-165
9.23272e-166
3.89048e-166
1.54419e-166
5.09248e-167
1.44094e-167
4.20347e-168
1.67934e-168
8.55605e-169
4.53418e-169
2.00087e-169
8.89625e-170
3.79135e-170
1.53863e-170
5.84544e-171
2.22629e-171
8.44985e-172
4.1083e-172
1.50379e-172
5.15801e-173
4.14353e-173
2.57897e-173
7.74664e-174
2.10931e-153
2.04947e-154
2.40217e-155
4.67713e-156
9.66004e-157
1.869e-157
3.96759e-158
8.75494e-159
1.71408e-159
3.19118e-160
5.3515e-161
1.02598e-161
2.39902e-162
5.94455e-163
1.76944e-163
6.27073e-164
2.18678e-164
7.67134e-165
2.67619e-165
8.74566e-166
2.74463e-166
8.63598e-167
2.99401e-167
1.16994e-167
4.91877e-168
1.99168e-168
8.14998e-169
3.17835e-169
1.21367e-169
4.26298e-170
1.48948e-170
5.0301e-171
1.71838e-171
5.90089e-172
1.78521e-172
1.36753e-172
5.39861e-173
1.27603e-173
5.1723e-152
6.53642e-153
8.2861e-154
1.0433e-154
1.42352e-155
2.2603e-156
4.35745e-157
9.15871e-158
1.82683e-158
3.57651e-159
6.97014e-160
1.47322e-160
3.75603e-161
9.88191e-162
2.71218e-162
8.03257e-163
2.42854e-163
7.34486e-164
2.26497e-164
6.95718e-165
2.11765e-165
6.51657e-166
2.1002e-166
7.39051e-167
2.72949e-167
1.00465e-167
3.84419e-168
1.35769e-168
4.67245e-169
1.50655e-169
4.7256e-170
1.41577e-170
3.9748e-171
1.21221e-171
3.502e-172
1.64155e-172
4.74369e-173
9.92984e-174
9.74547e-151
1.15108e-151
1.42773e-152
1.93037e-153
2.68512e-154
3.88416e-155
5.67175e-156
8.77613e-157
1.5984e-157
3.07648e-158
6.27983e-159
1.41299e-159
3.41272e-160
8.29316e-161
2.06523e-161
5.44237e-162
1.49285e-162
4.18678e-163
1.19205e-163
3.57681e-164
1.06007e-164
3.30633e-165
1.04728e-165
3.58697e-166
1.20706e-166
4.19358e-167
1.39031e-167
4.43663e-168
1.39344e-168
4.01907e-169
1.13906e-169
3.01767e-170
7.39359e-171
1.80817e-171
5.08575e-172
1.78728e-172
4.47374e-173
1.086e-173
6.11812e-150
7.41567e-151
9.466e-152
1.24735e-152
1.69201e-153
2.40846e-154
3.59207e-155
5.26499e-156
8.14562e-157
1.334e-157
2.36651e-158
5.09996e-159
1.14036e-159
2.60151e-160
6.33273e-161
1.65397e-161
4.54194e-162
1.26071e-162
3.53272e-163
1.00911e-163
3.04385e-164
9.02273e-165
2.73641e-165
8.43943e-166
2.55398e-166
8.12778e-167
2.2942e-167
6.98892e-168
2.03441e-168
5.34772e-169
1.5453e-169
4.13401e-170
1.04018e-170
2.56362e-171
6.63478e-172
1.65956e-172
4.02882e-173
6.68476e-174
3.05557e-149
3.64336e-150
4.60547e-151
6.14678e-152
8.52678e-153
1.21532e-153
1.79516e-154
2.69453e-155
4.26052e-156
7.03373e-157
1.20998e-157
2.33908e-158
4.79433e-159
1.03251e-159
2.31584e-160
5.50225e-161
1.37224e-161
3.52209e-162
9.00038e-163
2.36451e-163
6.29462e-164
1.72513e-164
4.81276e-165
1.34333e-165
3.96152e-166
1.15344e-166
3.46499e-167
1.02249e-167
2.84643e-168
8.16122e-169
2.21127e-169
5.64781e-170
1.47342e-170
3.77722e-171
1.01074e-171
2.53904e-172
5.48889e-173
8.71144e-174
4.44837e-149
5.44894e-150
6.99047e-151
9.38698e-152
1.31464e-152
1.90321e-153
2.88446e-154
4.4779e-155
7.21928e-156
1.21629e-156
2.19367e-157
4.10433e-158
8.32487e-159
1.77321e-159
3.83391e-160
8.73791e-161
2.0559e-161
4.95853e-162
1.17154e-162
2.88813e-163
7.26549e-164
1.91101e-164
4.99265e-165
1.3533e-165
3.50239e-166
9.75409e-167
2.75292e-167
7.96069e-168
2.33438e-168
7.11048e-169
2.0579e-169
5.48274e-170
1.30338e-170
2.9235e-171
6.66817e-172
1.57202e-172
2.95395e-173
4.65667e-174
3.59679e-149
4.50618e-150
5.89284e-151
8.06007e-152
1.15294e-152
1.6932e-153
2.6157e-154
4.1521e-155
6.83612e-156
1.18614e-156
2.1768e-157
4.14301e-158
8.32922e-159
1.77341e-159
3.82985e-160
8.47765e-161
1.89491e-161
4.36033e-162
9.92671e-163
2.31794e-163
5.31651e-164
1.28674e-164
3.14066e-165
7.81334e-166
2.00623e-166
5.19662e-167
1.43551e-167
4.08004e-168
1.19532e-168
3.55594e-169
9.19804e-170
2.58753e-170
6.53752e-171
1.59456e-171
3.54285e-172
7.38188e-173
1.28079e-173
2.61325e-174
1.28213e-149
1.65704e-150
2.2064e-151
3.10427e-152
4.52745e-153
6.82978e-154
1.07795e-154
1.76619e-155
2.97913e-156
5.30086e-157
9.91287e-158
1.90875e-158
3.86089e-159
7.97933e-160
1.67685e-160
3.50084e-161
6.98674e-162
1.44799e-162
2.89851e-163
6.37595e-164
1.34234e-164
2.99295e-165
6.48083e-166
1.47368e-166
3.56761e-167
9.40577e-168
2.43316e-168
8.49248e-169
2.82371e-169
1.23129e-169
4.91318e-170
1.74205e-170
4.95011e-171
1.04812e-171
2.68746e-172
5.97304e-173
1.23573e-173
3.17028e-174
2.36966e-150
3.17631e-151
4.30334e-152
6.25461e-153
9.30004e-154
1.43349e-154
2.2939e-155
3.77187e-156
6.48993e-157
1.11028e-157
2.05067e-158
3.94442e-159
7.49522e-160
1.44586e-160
2.86496e-161
5.48265e-162
1.01672e-162
1.818e-163
3.49544e-164
7.19399e-165
1.45284e-165
3.12808e-166
6.89801e-167
1.61988e-167
4.01709e-168
9.94728e-169
2.59836e-169
8.13721e-170
2.68059e-170
1.33887e-170
7.16512e-171
3.21439e-171
1.01905e-171
1.98514e-172
4.69151e-173
1.37732e-173
5.18335e-174
1.90117e-174
1.9059e-151
2.71663e-152
3.63617e-153
5.62121e-154
8.43248e-155
1.32799e-155
2.17643e-156
3.50611e-157
6.13062e-158
9.87295e-159
1.7914e-159
3.41718e-160
5.91796e-161
1.02818e-161
1.94588e-162
3.4329e-163
5.56842e-164
9.01562e-165
1.89463e-165
4.47013e-166
9.66446e-167
2.23161e-167
5.52381e-168
1.34773e-168
3.34017e-169
6.80096e-170
1.81029e-170
6.45279e-171
2.47566e-171
1.96782e-171
1.36996e-171
7.52612e-172
2.91001e-172
8.75698e-173
2.62555e-173
8.4119e-174
3.30767e-174
1.50677e-174
5.01649e-153
7.57239e-154
9.59331e-155
1.65189e-155
2.49437e-156
3.98918e-157
6.56826e-158
1.05604e-158
1.6695e-159
2.87649e-160
4.41041e-161
9.65499e-162
1.91002e-162
2.59736e-163
3.66613e-164
5.79631e-165
1.05142e-165
2.10396e-166
5.44087e-167
1.32734e-167
2.90484e-168
8.08706e-169
2.19769e-169
5.06331e-170
9.60967e-171
1.52861e-171
4.42769e-172
1.69418e-172
1.1168e-172
1.55358e-172
1.52861e-172
6.59455e-173
1.81436e-173
6.49234e-174
3.72369e-174
2.42194e-174
2.15183e-174
2.17833e-174
1.6854e-154
2.78969e-155
3.46204e-156
5.31051e-157
1.09907e-157
2.50163e-158
5.69843e-159
1.06918e-159
1.51078e-160
1.54823e-161
2.01416e-162
3.10469e-163
8.23943e-164
2.14778e-164
5.98402e-165
2.65904e-165
1.08687e-165
4.45315e-166
1.67448e-166
5.24368e-167
1.47373e-167
4.50835e-168
1.87825e-168
9.37131e-169
4.72189e-169
2.06327e-169
8.88452e-170
3.62741e-170
1.37406e-170
4.98326e-171
1.80405e-171
6.92025e-172
2.72877e-172
1.08995e-172
2.47164e-173
1.59873e-173
1.78247e-173
4.99016e-174
8.2356e-153
7.89664e-154
9.35572e-155
1.48873e-155
3.04101e-156
6.01901e-157
1.21144e-157
2.3503e-158
4.10933e-159
6.45687e-160
9.40873e-161
1.54457e-161
3.15073e-162
7.02211e-163
1.92239e-163
6.94784e-164
2.43961e-164
8.42456e-165
2.86424e-165
9.08602e-166
2.80402e-166
8.81842e-167
3.09185e-167
1.21419e-167
5.06208e-168
2.03045e-168
8.06726e-169
3.03317e-169
1.08467e-169
3.66078e-170
1.20171e-170
3.99571e-171
1.21188e-171
4.33297e-172
1.09231e-172
6.46564e-173
2.09718e-173
4.45256e-174
2.40197e-151
2.67835e-152
3.0959e-153
3.77748e-154
5.0594e-155
7.77372e-156
1.34245e-156
2.45588e-157
4.42094e-158
7.72249e-159
1.3181e-159
2.42706e-160
5.48977e-161
1.30881e-161
3.34109e-162
9.50612e-163
2.81058e-163
8.32217e-164
2.52451e-164
7.58018e-165
2.27878e-165
6.94741e-166
2.24685e-166
7.90685e-167
2.91726e-167
1.06478e-167
3.8985e-168
1.35286e-168
4.442e-169
1.37412e-169
4.06453e-170
1.16407e-170
2.90202e-171
8.37753e-172
2.1123e-172
6.4179e-173
1.68351e-173
3.09428e-174
4.12124e-150
4.59833e-151
5.32201e-152
6.57447e-153
8.55653e-154
1.17019e-154
1.65379e-155
2.48891e-156
4.15277e-157
7.25834e-158
1.31972e-158
2.59244e-159
5.54525e-160
1.22598e-160
2.88611e-161
7.4146e-162
2.00566e-162
5.5426e-163
1.57728e-163
4.60252e-164
1.35399e-164
4.10252e-165
1.28243e-165
4.21916e-166
1.40135e-166
4.66258e-167
1.50555e-167
4.73585e-168
1.42347e-168
3.97891e-169
1.06907e-169
2.5579e-170
5.75195e-171
1.40436e-171
3.52131e-172
1.04879e-172
2.35675e-173
4.70482e-174
2.51396e-149
2.89986e-150
3.4715e-151
4.25829e-152
5.42119e-153
7.27325e-154
1.02315e-154
1.45809e-155
2.20567e-156
3.54396e-157
6.25212e-158
1.26228e-158
2.69942e-159
6.05138e-160
1.42672e-160
3.53704e-161
9.15248e-162
2.40721e-162
6.42589e-163
1.75207e-163
4.92641e-164
1.39735e-164
4.05244e-165
1.20171e-165
3.5431e-166
1.05189e-166
2.98436e-167
8.4873e-168
2.30781e-168
6.038e-169
1.58962e-169
3.87061e-170
8.89759e-171
2.004e-171
4.65875e-172
1.04376e-172
2.12906e-173
3.25784e-174
9.76501e-149
1.13838e-149
1.38803e-150
1.7627e-151
2.3195e-152
3.15079e-153
4.43658e-154
6.40172e-155
9.7107e-156
1.54844e-156
2.62366e-157
4.92305e-158
9.96806e-159
2.11709e-159
4.69389e-160
1.08818e-160
2.61632e-161
6.42031e-162
1.58507e-162
4.00553e-163
1.02956e-163
2.71859e-164
7.31735e-165
1.99508e-165
5.56484e-166
1.55003e-166
4.37176e-167
1.20617e-167
3.25847e-168
8.7877e-169
2.25919e-169
5.56518e-170
1.33409e-170
3.1391e-171
7.44644e-172
1.62838e-172
2.99907e-173
4.37732e-174
1.31073e-148
1.56636e-149
1.95248e-150
2.53409e-151
3.41816e-152
4.77361e-153
6.95081e-154
1.04188e-154
1.62359e-155
2.6488e-156
4.61402e-157
8.44617e-158
1.66673e-158
3.44997e-159
7.3516e-160
1.635e-160
3.73387e-161
8.72699e-162
2.03327e-162
4.8813e-163
1.19867e-163
3.04676e-164
7.806e-165
2.05155e-165
5.33095e-166
1.44432e-166
3.93044e-167
1.08559e-167
3.01044e-168
8.39581e-169
2.26042e-169
5.63697e-170
1.28682e-170
2.67995e-171
5.67431e-172
1.1803e-172
2.0249e-173
2.88323e-174
1.00193e-148
1.22385e-149
1.55745e-150
2.07126e-151
2.86648e-152
4.09678e-153
6.11899e-154
9.42905e-155
1.50968e-155
2.5385e-156
4.51198e-157
8.3789e-158
1.64457e-158
3.38957e-159
7.13989e-160
1.54112e-160
3.37511e-161
7.6012e-162
1.70971e-162
3.93863e-163
9.02553e-164
2.15094e-164
5.18155e-165
1.27647e-165
3.21708e-166
8.31731e-167
2.23971e-167
6.25993e-168
1.75426e-168
4.92821e-169
1.28447e-169
3.3225e-170
7.75814e-171
1.67188e-171
3.49398e-172
6.79069e-173
1.27921e-173
2.38203e-174
3.58175e-149
4.4994e-150
5.85e-151
8.0207e-152
1.13641e-152
1.67865e-153
2.57895e-154
4.10986e-155
6.80276e-156
1.17108e-156
2.12287e-157
3.99601e-158
7.87232e-159
1.58562e-159
3.24768e-160
6.62038e-161
1.31317e-161
2.67533e-162
5.42955e-163
1.17613e-163
2.49005e-164
5.51304e-165
1.20383e-165
2.7522e-166
6.53817e-167
1.66534e-167
4.33842e-168
1.39658e-168
4.50187e-169
1.77356e-169
6.40907e-170
2.09617e-170
5.91161e-171
1.44658e-171
3.465e-172
6.96113e-173
1.59539e-173
3.69781e-174
6.79087e-150
8.8399e-151
1.17429e-151
1.66914e-152
2.41107e-153
3.66743e-154
5.7384e-155
9.21639e-156
1.56938e-156
2.62197e-157
4.66625e-158
8.64318e-159
1.61171e-159
3.04745e-160
5.88617e-161
1.10367e-161
2.02734e-162
3.65695e-163
7.06757e-164
1.43339e-164
2.8965e-165
6.19114e-166
1.36565e-166
3.17545e-167
7.61638e-168
1.81961e-168
4.70173e-169
1.39521e-169
4.43681e-170
2.06295e-170
9.72782e-171
3.9646e-171
1.24131e-171
2.98628e-172
6.09355e-173
1.44063e-173
4.49314e-174
1.57697e-174
5.78283e-151
7.92886e-152
1.05528e-152
1.601e-153
2.31036e-154
3.71098e-155
5.91669e-156
9.43724e-157
1.70941e-157
2.68338e-158
4.6203e-159
8.15129e-160
1.37168e-160
2.37362e-161
4.37157e-162
7.43827e-163
1.17171e-163
1.91166e-164
3.9964e-165
9.03265e-166
1.96323e-166
4.55872e-167
1.11002e-167
2.66009e-168
6.05835e-169
1.22656e-169
3.23976e-170
1.06555e-170
3.9195e-171
2.75972e-171
1.77318e-171
9.0083e-172
3.31066e-172
1.0148e-172
2.89701e-173
8.71187e-174
3.0482e-174
1.16312e-174
1.6197e-152
2.32596e-153
3.0012e-154
5.11436e-155
7.42838e-156
1.28478e-156
2.08578e-157
3.17304e-158
6.10322e-159
9.90143e-160
1.496e-160
2.83135e-161
4.96308e-162
6.46351e-163
8.48193e-164
1.23603e-164
2.1429e-165
4.37681e-166
1.13858e-166