/*--------------------------------*- C++ -*----------------------------------*\
| =========                 |                                                 |
| \\      /  F ield         | OpenFOAM: The Open Source CFD Toolbox           |
|  \\    /   O peration     | Version:  2.3.1                                 |
|   \\  /    A nd           | Web:      www.OpenFOAM.org                      |
|    \\/     M anipulation  |                                                 |
\*---------------------------------------------------------------------------*/
FoamFile
{
    version     2.0;
    format      ascii;
    class       volScalarField;
    location    "15";
    object      Sed_0;
}
// * * * * * * * * * * * * * * * * * * * * * * * * * * * * * * * * * * * * * //

dimensions      [0 0 0 0 0 0 0];

internalField   nonuniform List<scalar> 
38262
(
1.6598e-157
1.28724e-158
1.70513e-159
3.30542e-160
8.23939e-161
2.40513e-161
6.72108e-162
1.65384e-162
3.18175e-163
5.86844e-164
1.04621e-164
2.8995e-165
6.5443e-166
2.09465e-166
8.35939e-167
2.86097e-167
1.82988e-167
1.22652e-167
7.13294e-168
3.51958e-168
1.15913e-168
3.4762e-169
1.61161e-169
1.03082e-169
7.86183e-170
5.49865e-170
3.73276e-170
2.15788e-170
1.24965e-170
5.27277e-171
2.81529e-171
1.04491e-171
6.67158e-172
9.25997e-173
3.06808e-173
3.74885e-173
3.59838e-173
2.8872e-173
3.71508e-156
2.02587e-157
2.61795e-158
7.56976e-159
1.58718e-159
2.8965e-160
8.5415e-161
2.80929e-161
8.2159e-162
2.31569e-162
6.57341e-163
2.04013e-163
4.89802e-164
1.27223e-164
4.25177e-165
1.49975e-165
6.17827e-166
2.79246e-166
1.27898e-166
5.6933e-167
2.1994e-167
8.1025e-168
3.38913e-168
1.51429e-168
6.66286e-169
3.7708e-169
2.11427e-169
1.06072e-169
5.90469e-170
2.54945e-170
1.2263e-170
5.1322e-171
2.39949e-171
7.10876e-172
6.40356e-173
4.61316e-173
5.29222e-173
4.31725e-173
6.69563e-155
9.81501e-156
7.71145e-157
6.25411e-158
6.00603e-159
9.10048e-160
1.94887e-160
8.17049e-161
3.22156e-161
8.3901e-162
2.57711e-162
9.15822e-163
3.05133e-163
1.00814e-163
3.32313e-164
1.16962e-164
4.04764e-165
1.37972e-165
4.71551e-166
1.84447e-166
5.76906e-167
1.86375e-167
7.21612e-168
3.24261e-168
1.03573e-168
8.73622e-169
4.74109e-169
2.21504e-169
1.15913e-169
4.49334e-170
1.80484e-170
7.31514e-171
3.47167e-171
1.06723e-171
2.9589e-172
1.75017e-172
1.1647e-172
2.93032e-173
5.58976e-154
8.56629e-155
1.12724e-155
1.93184e-156
2.49335e-157
2.62146e-158
1.88189e-159
1.99761e-160
3.8368e-161
1.99612e-161
8.71744e-162
3.60159e-162
1.32184e-162
4.62912e-163
1.41823e-163
4.25644e-164
1.35536e-164
4.01818e-165
1.10812e-165
4.88827e-166
1.27833e-166
5.17304e-167
1.87618e-167
1.23699e-167
3.69071e-168
2.77315e-168
1.3782e-168
5.06338e-169
2.59835e-169
1.01955e-169
3.84217e-170
1.64798e-170
7.05751e-171
2.83702e-171
9.22297e-172
2.44747e-172
5.40002e-173
2.30863e-173
1.0361e-153
2.1162e-154
3.46728e-155
5.91735e-156
9.29541e-157
1.29265e-157
1.93145e-158
2.46106e-159
2.19076e-160
3.60175e-161
7.61176e-162
3.02114e-162
1.10348e-162
3.74673e-163
1.17324e-163
3.23374e-164
1.08004e-164
3.03535e-165
1.0308e-165
2.63724e-166
1.62987e-166
4.83985e-167
1.96838e-167
6.21197e-168
2.69442e-168
2.16918e-168
6.76189e-169
3.85667e-169
1.56876e-169
4.94946e-170
2.1384e-170
8.38237e-171
3.39329e-171
2.10088e-171
7.95853e-172
1.97246e-172
3.28961e-173
1.91122e-173
1.11015e-152
1.56349e-153
2.46847e-154
4.89536e-155
1.04784e-155
1.72105e-156
3.60482e-157
5.59214e-158
8.18892e-159
1.03395e-159
1.06101e-160
1.19739e-161
2.1054e-162
4.45757e-163
1.06018e-163
2.75631e-164
8.16864e-165
2.89977e-165
8.91942e-166
3.8702e-166
1.8909e-166
8.97627e-167
4.21609e-167
1.10772e-167
8.30678e-168
2.77475e-168
1.3743e-168
7.88712e-169
2.42241e-169
7.08164e-170
4.0203e-170
8.82243e-171
2.69506e-171
9.29866e-172
4.91727e-172
1.83623e-172
3.07174e-173
1.71107e-173
5.78787e-152
7.75542e-153
1.13061e-153
1.8392e-154
3.33074e-155
5.4183e-156
1.0659e-156
1.79034e-157
2.99938e-158
5.09717e-159
8.51163e-160
1.36687e-160
1.9726e-161
3.64236e-162
7.69504e-163
1.6444e-163
5.65689e-164
1.89144e-164
4.73285e-165
1.11959e-165
2.23228e-166
9.57199e-167
2.49023e-167
1.99588e-167
4.4249e-168
1.23809e-168
5.82663e-169
1.83884e-169
8.46571e-170
2.76869e-170
2.28187e-170
1.21398e-170
4.40369e-171
1.44087e-171
3.5944e-172
9.52858e-173
2.58099e-173
1.4204e-173
8.97721e-152
1.24276e-152
1.82003e-153
2.72048e-154
4.92831e-155
7.28719e-156
1.41492e-156
2.46536e-157
4.23748e-158
8.34813e-159
1.72309e-159
3.2487e-160
5.89752e-161
1.44713e-161
3.43234e-162
7.84403e-163
1.81213e-163
4.92498e-164
1.38131e-164
3.16965e-165
6.85824e-166
1.24165e-166
2.60826e-167
1.11865e-167
2.9054e-168
6.95958e-169
3.11604e-169
8.17098e-170
3.13919e-170
1.34881e-170
5.48693e-171
3.3379e-171
2.07975e-171
5.4383e-172
1.96052e-172
5.53063e-173
1.78703e-173
1.06946e-173
3.33324e-152
5.0045e-153
6.99337e-154
1.05446e-154
1.83181e-155
2.77088e-156
4.96834e-157
9.03572e-158
1.47548e-158
3.34372e-159
7.0278e-160
1.23813e-160
2.97553e-161
6.63841e-162
1.54842e-162
3.75576e-163
7.32855e-164
1.61102e-164
3.06466e-165
7.56576e-166
1.67302e-166
4.19184e-167
8.58893e-168
1.84691e-168
5.36798e-169
1.87668e-169
4.72574e-170
2.23833e-170
8.60567e-171
4.38089e-171
3.57128e-171
1.62827e-171
7.8226e-172
3.33667e-172
9.30575e-173
2.64308e-173
1.16612e-173
8.07206e-174
5.27192e-153
8.74492e-154
1.21521e-154
1.78832e-155
3.21727e-156
4.95765e-157
8.07672e-158
1.54186e-158
2.24336e-159
4.25772e-160
8.35539e-161
1.41043e-161
2.93472e-162
5.80632e-163
1.16401e-163
2.16131e-164
3.91615e-165
7.54473e-166
1.87115e-166
5.80583e-167
1.30573e-167
3.54197e-168
8.12019e-169
2.11946e-169
5.82048e-170
2.07991e-170
4.80344e-171
2.17684e-171
7.67042e-172
3.8018e-172
7.6662e-172
4.20526e-172
2.0767e-172
9.04364e-173
3.7278e-173
1.34861e-173
7.71797e-174
6.11812e-174
2.97364e-154
6.02446e-155
7.68918e-156
1.09457e-156
2.16348e-157
3.09491e-158
5.02055e-159
8.40742e-160
1.04579e-160
2.22655e-161
4.05811e-162
9.56181e-163
2.22265e-163
3.89966e-164
7.01042e-165
1.04153e-165
1.46168e-166
2.58351e-167
9.00258e-168
3.25433e-168
8.19443e-169
2.15129e-169
7.04982e-170
2.05182e-170
7.08645e-171
1.47503e-171
3.79699e-172
2.0636e-172
1.17408e-172
9.6444e-173
1.83088e-172
1.54283e-172
9.97198e-173
4.83122e-173
1.99353e-173
8.23645e-174
6.38793e-174
5.63504e-174
6.34927e-156
1.61716e-156
1.79746e-157
2.41565e-158
5.57039e-159
7.09641e-160
1.13261e-160
1.38083e-161
1.48675e-162
1.74434e-163
4.75333e-164
1.00456e-164
2.08225e-165
3.8822e-166
8.80063e-167
1.43343e-167
3.12049e-168
7.89703e-169
2.45183e-169
4.51255e-170
9.7548e-171
6.95958e-171
2.31357e-171
3.44709e-172
1.40764e-172
1.747e-173
6.56561e-174
5.68859e-174
1.06638e-173
2.73807e-173
3.60821e-173
2.95909e-173
1.64122e-173
9.35633e-174
4.99933e-174
3.73607e-174
3.97471e-174
4.80813e-174
3.05974e-156
2.56411e-157
2.73114e-158
5.09421e-159
1.27178e-159
3.30069e-160
8.02685e-161
1.90786e-161
3.4658e-162
6.20478e-163
1.12175e-163
2.31066e-164
7.37637e-165
2.08281e-165
7.95268e-166
3.24467e-166
1.47431e-166
7.11074e-167
3.62984e-167
1.44413e-167
4.45383e-168
1.32203e-168
5.29729e-169
2.97188e-169
1.87399e-169
9.22187e-170
5.13097e-170
2.74855e-170
1.51488e-170
6.24609e-171
2.9594e-171
1.03762e-171
6.84372e-172
1.53626e-172
6.31255e-173
5.2165e-173
4.81509e-173
2.95939e-173
5.88211e-155
3.84229e-156
5.94042e-157
1.32677e-157
2.57637e-158
4.84046e-159
1.17913e-159
3.3355e-160
8.27027e-161
1.90437e-161
4.4198e-162
1.20821e-162
2.99733e-163
7.94467e-164
2.66789e-164
9.59411e-165
3.67868e-165
1.47261e-165
5.95054e-166
2.34589e-166
8.28301e-167
2.81878e-167
1.06974e-167
4.48071e-168
1.94204e-168
8.56251e-169
4.30542e-169
2.02795e-169
1.04188e-169
4.28788e-170
1.82058e-170
6.3183e-171
2.64551e-171
8.02853e-172
2.14885e-172
7.05884e-173
7.41582e-173
4.47213e-173
1.01133e-153
1.50973e-154
1.82277e-155
1.70085e-156
1.84096e-157
3.21948e-158
6.4394e-159
1.48781e-159
3.87975e-160
9.50412e-161
2.68456e-161
8.21736e-162
2.51902e-162
7.70682e-163
2.42549e-163
8.11891e-164
2.72107e-164
9.02346e-165
2.98894e-165
1.12721e-165
3.63591e-166
1.17886e-166
4.26651e-167
1.79117e-167
6.41764e-168
2.83316e-168
1.7164e-168
7.22172e-169
3.2385e-169
1.15235e-169
3.99378e-170
1.3167e-170
4.71466e-171
1.48872e-171
5.23806e-172
2.24036e-172
1.04338e-172
2.40641e-173
1.10351e-152
1.58143e-153
2.2295e-154
3.66424e-155
5.4361e-156
7.76594e-157
7.93286e-158
8.54047e-159
1.27286e-159
3.16691e-160
1.04138e-160
3.72613e-161
1.21904e-161
3.77944e-162
1.10204e-162
3.20493e-163
9.78209e-164
2.98785e-164
8.85819e-165
3.2644e-165
1.00132e-165
3.70328e-166
1.34664e-166
6.02667e-167
2.0414e-167
1.0912e-167
3.89379e-168
1.30375e-168
5.20937e-169
1.37601e-169
4.36269e-170
1.81138e-170
6.4411e-171
2.03469e-171
7.81763e-172
2.98824e-172
9.83189e-173
3.01006e-173
3.81234e-152
6.1458e-153
9.64095e-154
1.56183e-154
2.48809e-155
3.87398e-156
6.30008e-157
8.26806e-158
9.23028e-159
1.35359e-159
2.16505e-160
5.17203e-161
1.53929e-161
4.49232e-162
1.30756e-162
3.64899e-163
1.18463e-163
3.6257e-164
1.20034e-164
3.44708e-165
1.56956e-165
5.23938e-166
2.07242e-166
6.84251e-167
2.35697e-167
1.2838e-167
3.0041e-168
1.44869e-168
5.87999e-169
1.29496e-169
6.32612e-170
2.26173e-170
7.69443e-171
2.27872e-171
7.04199e-172
2.20245e-172
5.64527e-173
1.98582e-173
4.45805e-151
5.6829e-152
8.12108e-153
1.32999e-153
2.33804e-154
3.91078e-155
6.91565e-156
1.08627e-156
1.75346e-157
2.53053e-158
3.20996e-159
4.65233e-160
7.44482e-161
1.35651e-161
2.94675e-162
7.38301e-163
2.10507e-163
7.8937e-164
2.36038e-164
8.46035e-165
2.95848e-165
1.11008e-165
4.13488e-166
1.24329e-166
5.42089e-167
1.70933e-167
7.13409e-168
2.79658e-168
7.86239e-169
2.81828e-169
1.07031e-169
2.4237e-170
8.58423e-171
1.78134e-171
6.86929e-172
2.44419e-172
5.81455e-173
1.69216e-173
1.26877e-150
1.64182e-151
2.26937e-152
3.39983e-153
5.43072e-154
8.6715e-155
1.50365e-155
2.54338e-156
4.36018e-157
7.5402e-158
1.3599e-158
2.27612e-159
4.06797e-160
8.44168e-161
1.73991e-161
4.06076e-162
1.15479e-162
3.47669e-163
8.12623e-164
2.088e-164
4.95026e-165
1.46222e-165
3.92172e-166
1.54765e-166
3.38567e-167
1.04994e-167
3.90854e-168
1.25262e-168
3.79993e-169
1.64959e-169
6.32748e-170
2.61234e-170
7.77957e-171
1.73189e-171
4.20318e-172
1.02974e-172
3.35958e-173
1.08284e-173
1.40649e-150
1.88166e-151
2.64451e-152
3.86503e-153
6.24668e-154
9.56177e-155
1.65976e-155
2.84383e-156
4.90306e-157
9.22682e-158
1.8382e-158
3.45481e-159
6.70809e-160
1.61832e-160
3.70486e-161
8.14753e-162
1.92972e-162
4.8888e-163
1.20661e-163
2.85729e-164
5.78135e-165
1.34271e-165
3.28498e-166
9.2726e-167
2.64046e-167
6.35876e-168
2.19221e-168
5.81118e-169
2.00796e-169
7.32291e-170
1.33513e-170
5.87759e-171
1.86122e-171
6.61881e-172
2.38664e-172
6.88804e-173
1.83912e-173
6.31059e-174
5.08941e-151
7.15499e-152
9.96922e-153
1.48462e-153
2.38135e-154
3.67863e-155
6.27275e-156
1.11196e-156
1.85642e-157
3.74538e-158
7.60373e-159
1.44567e-159
3.22091e-160
7.11107e-161
1.57714e-161
3.51513e-162
6.45105e-163
1.38277e-163
2.56596e-164
6.13872e-165
1.24881e-165
3.0016e-166
6.24421e-167
1.28281e-167
3.62584e-168
1.13703e-168
2.59949e-169
1.22381e-169
4.50758e-170
2.27901e-170
1.14131e-170
4.24759e-171
1.23014e-171
2.77657e-172
8.25239e-173
2.82164e-173
9.84198e-174
4.46827e-174
8.48539e-152
1.26882e-152
1.76245e-153
2.6527e-154
4.34936e-155
6.76647e-156
1.11998e-156
2.00086e-157
3.18107e-158
5.81645e-159
1.12247e-159
2.10362e-160
4.22899e-161
8.40962e-162
1.66929e-162
3.08985e-163
5.35964e-164
9.65237e-165
2.10612e-165
5.35154e-166
1.13439e-166
2.7485e-167
6.17154e-168
1.53926e-168
4.26367e-169
1.28921e-169
3.1518e-170
1.20944e-170
4.16535e-171
1.79192e-171
2.01105e-171
1.05536e-171
3.22319e-172
5.46718e-173
2.85918e-173
1.24438e-173
5.64719e-174
3.19192e-174
5.36624e-153
9.13541e-154
1.19962e-154
1.84056e-155
3.1757e-156
4.69372e-157
7.82803e-158
1.29452e-158
1.86131e-159
3.29905e-160
5.74362e-161
1.16059e-161
2.48525e-162
4.61052e-163
8.89504e-164
1.46402e-164
2.35331e-165
4.0442e-166
1.10428e-166
3.41618e-167
8.13148e-168
2.00348e-168
5.51344e-169
1.4707e-169
4.51202e-170
9.57434e-171
2.54916e-171
1.13027e-171
5.0822e-172
3.97199e-172
3.8583e-172
2.59267e-172
1.14625e-172
4.21135e-173
1.68486e-173
7.07278e-174
4.32228e-174
3.1446e-174
1.10319e-154
2.24942e-155
2.67594e-156
4.048e-157
7.93225e-158
1.02878e-158
1.69201e-159
2.33921e-160
2.81086e-161
4.41161e-162
6.2532e-163
1.34753e-163
3.98458e-164
6.8214e-165
1.42506e-165
2.59381e-166
5.21489e-167
1.13979e-167
3.39236e-168
8.47651e-169
1.90547e-169
6.97676e-170
2.14872e-170
4.62111e-171
1.40689e-171
1.83242e-172
5.23909e-173
2.65848e-173
2.37655e-173
4.52532e-173
5.10192e-173
3.01365e-173
1.24238e-173
7.5107e-174
4.39928e-174
3.35691e-174
3.40529e-174
3.94583e-174
1.84453e-155
1.88415e-156
2.06455e-157
3.82575e-158
9.03521e-159
2.21281e-159
5.28539e-160
1.15155e-160
1.85481e-161
2.90233e-162
4.51099e-163
8.36888e-164
3.13817e-164
7.88086e-165
2.74218e-165
1.12817e-165
4.61071e-166
2.0538e-166
9.06144e-167
3.28398e-167
9.72877e-168
2.81994e-168
1.10942e-168
5.87297e-169
3.35472e-169
1.54505e-169
7.43255e-170
3.54779e-170
1.5713e-170
6.27319e-171
2.67004e-171
9.56744e-172
5.67887e-172
1.73759e-172
6.92146e-173
5.52097e-173
3.15112e-173
1.40618e-173
4.28649e-154
3.51714e-155
4.26274e-156
9.89875e-157
2.00501e-157
3.82449e-158
8.57383e-159
2.14812e-159
4.79338e-160
9.97059e-161
1.84156e-161
4.12477e-162
1.05583e-162
2.78286e-163
8.89406e-164
3.09191e-164
1.1121e-164
4.1321e-165
1.54943e-165
5.49484e-166
1.82571e-166
5.91581e-167
2.10972e-167
8.42259e-168
3.59095e-168
1.51729e-168
6.65442e-169
2.84579e-169
1.19585e-169
4.4927e-170
1.71237e-170
5.76301e-171
2.23205e-171
6.97332e-172
2.15933e-172
1.58939e-172
6.27206e-173
2.89514e-173
8.23875e-153
1.16128e-153
1.50018e-154
1.75237e-155
2.26395e-156
3.73525e-157
7.41647e-158
1.68044e-158
3.72367e-159
8.20118e-160
1.8419e-160
4.51539e-161
1.24809e-161
3.50503e-162
1.04062e-162
3.24893e-163
1.03161e-163
3.29478e-164
1.07647e-164
3.57398e-165
1.15667e-165
3.70699e-166
1.24876e-166
4.62488e-167
1.67174e-167
6.65571e-168
2.94464e-168
1.14254e-168
4.23717e-169
1.45078e-169
4.73308e-170
1.44158e-170
4.74604e-171
1.45998e-171
5.05427e-172
2.36383e-172
8.27871e-173
1.4511e-173
1.29082e-151
1.66003e-152
2.22004e-153
3.3382e-154
4.94893e-155
7.44059e-156
9.78841e-157
1.29268e-157
2.30111e-158
5.00479e-159
1.16366e-159
3.0624e-160
8.34912e-161
2.23605e-161
5.98203e-162
1.65316e-162
4.77788e-163
1.41802e-163
4.17718e-164
1.38567e-164
4.28125e-165
1.45272e-165
4.88928e-166
1.88249e-166
6.48984e-167
2.64927e-167
9.01432e-168
3.02338e-168
1.05779e-168
3.05433e-169
9.29327e-170
2.82685e-170
7.83053e-171
1.94077e-171
5.97014e-172
2.43833e-172
5.91558e-173
1.42863e-173
7.36732e-151
9.75464e-152
1.35949e-152
1.97368e-153
2.91803e-154
4.43826e-155
7.00714e-156
9.99991e-157
1.38293e-157
2.03776e-158
3.42467e-159
8.27899e-160
2.01544e-160
4.84258e-161
1.24855e-161
3.36743e-162
9.97267e-163
2.98294e-163
9.28331e-164
2.7946e-164
9.78109e-165
3.16362e-165
1.05908e-165
3.46614e-166
1.09856e-166
4.10179e-167
1.09267e-167
3.81582e-168
1.29158e-168
3.15596e-169
1.13756e-169
3.39639e-170
9.46394e-171
2.55573e-171
7.27456e-172
2.00033e-172
5.18578e-173
1.11447e-173
5.75072e-150
7.00764e-151
9.26587e-152
1.32843e-152
1.99994e-153
3.05739e-154
4.82366e-155
7.53431e-156
1.2225e-156
1.98632e-157
3.10891e-158
5.59179e-159
1.05143e-159
2.13294e-160
4.6599e-161
1.1482e-161
3.16053e-162
9.35047e-163
2.64441e-163
7.81623e-164
2.30223e-164
6.86531e-165
2.07227e-165
6.02184e-166
1.96822e-166
5.96528e-167
1.9775e-167
6.39536e-168
1.82985e-168
5.91556e-169
1.80549e-169
4.52449e-170
1.27539e-170
3.00662e-171
9.46666e-172
2.74547e-172
6.14877e-173
1.03157e-173
1.02436e-149
1.28748e-150
1.7079e-151
2.39626e-152
3.5332e-153
5.35702e-154
8.56591e-155
1.38667e-155
2.31506e-156
4.00671e-157
7.45032e-158
1.35875e-158
2.71999e-159
5.93455e-160
1.25841e-160
2.93886e-161
7.37584e-162
1.89205e-162
4.49171e-163
1.14293e-163
2.89181e-164
7.99618e-165
2.13227e-165
6.27123e-166
1.55254e-166
4.50377e-167
1.36003e-167
4.09083e-168
1.24427e-168
4.23091e-169
1.37723e-169
4.34939e-170
1.10918e-170
2.4505e-171
5.80773e-172
1.43535e-172
3.4562e-173
6.6177e-174
9.20993e-150
1.18872e-150
1.60654e-151
2.26891e-152
3.40109e-153
5.14277e-154
8.30327e-155
1.36731e-155
2.31356e-156
4.15826e-157
7.92301e-158
1.53057e-158
3.11635e-159
6.94231e-160
1.54319e-160
3.49207e-161
7.9772e-162
1.89431e-162
4.40977e-163
1.0477e-163
2.33903e-164
5.6679e-165
1.40204e-165
3.56515e-166
9.50181e-167
2.43842e-167
7.12352e-168
2.01604e-168
6.23905e-169
1.95786e-169
4.31316e-170
1.28923e-170
3.41474e-171
1.08246e-171
2.91573e-172
6.8806e-173
1.49299e-173
3.65512e-174
3.29127e-150
4.41298e-151
6.03051e-152
8.73184e-153
1.32513e-153
2.03565e-154
3.32084e-155
5.64626e-156
9.62228e-157
1.79265e-157
3.47917e-158
6.77995e-159
1.4203e-159
3.02892e-160
6.53004e-161
1.39902e-161
2.72195e-162
5.73407e-163
1.10503e-163
2.51268e-164
5.24856e-165
1.19283e-165
2.56102e-166
5.68192e-167
1.43445e-167
4.01395e-168
9.93876e-169
3.90626e-169
1.35366e-169
6.29407e-170
2.74548e-170
9.90593e-171
2.81107e-171
4.25261e-172
1.05892e-172
3.21996e-173
8.98415e-174
3.13621e-174
5.84172e-151
8.17472e-152
1.12703e-152
1.67359e-153
2.59021e-154
4.02922e-155
6.58437e-156
1.12205e-156
1.89895e-157
3.35758e-158
6.39508e-159
1.23196e-159
2.40092e-160
4.74065e-161
9.4652e-162
1.79573e-162
3.23506e-163
5.6942e-164
1.11799e-164
2.45104e-165
5.06864e-166
1.13803e-166
2.54275e-167
6.12397e-168
1.58894e-168
4.21904e-169
1.09046e-169
3.65937e-170
1.24797e-170
5.97662e-171
3.81984e-171
1.97956e-171
6.85018e-172
9.51022e-173
2.7619e-173
1.18552e-173
4.93e-174
2.18443e-174
4.29311e-152
6.52667e-153
8.7335e-154
1.35824e-154
2.15537e-155
3.30476e-156
5.47961e-157
9.00196e-158
1.44407e-158
2.45528e-159
4.42572e-160
8.05818e-161
1.48534e-161
2.72056e-162
5.31915e-163
9.18825e-164
1.50244e-164
2.4999e-165
5.76189e-166
1.52329e-166
3.42191e-167
8.0837e-168
2.0775e-168
5.23552e-169
1.43582e-169
2.99133e-170
7.95606e-171
3.10594e-171
1.25578e-171
1.02678e-171
8.03789e-172
4.89834e-172
2.05618e-172
6.04116e-173
1.8887e-173
6.96558e-174
3.35567e-174
1.94768e-174
1.01035e-153
1.70605e-154
2.12246e-155
3.46352e-156
5.79063e-157
8.10949e-158
1.35067e-158
2.07321e-159
2.77324e-160
5.05394e-161
8.00472e-162
1.44584e-162
3.17584e-163
4.68298e-164
8.68612e-165
1.55446e-165
3.04522e-166
6.31918e-167
1.71406e-167
4.35389e-168
9.58297e-169
2.89137e-169
8.16811e-170
1.88576e-170
4.44881e-171
6.28023e-172
1.77243e-172
7.54316e-173
5.50691e-173
8.73413e-173
9.03343e-173
4.28155e-173
1.39751e-173
6.12127e-174
4.01068e-174
2.74507e-174
2.62508e-174
2.83423e-174
6.8247e-155
8.79192e-156
1.02389e-156
1.68953e-157
3.77668e-158
8.917e-159
2.04646e-159
4.12475e-160
6.43155e-161
8.47451e-162
1.18628e-162
2.00417e-163
6.71268e-164
1.70396e-164
5.19765e-165
2.28692e-165
9.00537e-166
3.79351e-166
1.50719e-166
4.97589e-167
1.40879e-167
4.10304e-168
1.63487e-168
8.32401e-169
4.41809e-169
1.95314e-169
8.6989e-170
3.7128e-170
1.50835e-170
5.73491e-171
2.18586e-171
8.30521e-172
4.03112e-172
1.47115e-172
5.08474e-173
4.13318e-173
2.56067e-173
7.60196e-174
2.07447e-153
2.01421e-154
2.3565e-155
4.58063e-156
9.46913e-157
1.83147e-157
3.88577e-158
8.57633e-159
1.67988e-159
3.12809e-160
5.24492e-161
1.00502e-161
2.34802e-162
5.81924e-163
1.73051e-163
6.13094e-164
2.13698e-164
7.49424e-165
2.61491e-165
8.54682e-166
2.68246e-166
8.43712e-167
2.92306e-167
1.14138e-167
4.79945e-168
1.94513e-168
7.96782e-169
3.1113e-169
1.18929e-169
4.1809e-170
1.46193e-170
4.94011e-171
1.68701e-171
5.79159e-172
1.75733e-172
1.34913e-172
5.30245e-173
1.21963e-173
5.08049e-152
6.4183e-153
8.13383e-154
1.02405e-154
1.39666e-155
2.21505e-156
4.26686e-157
8.96988e-158
1.78956e-158
3.50331e-159
6.82764e-160
1.44227e-160
3.6756e-161
9.67134e-162
2.6541e-162
7.8592e-163
2.37558e-163
7.18299e-164
2.21499e-164
6.80341e-165
2.07079e-165
6.3709e-166
2.05261e-166
7.22064e-167
2.66672e-167
9.81985e-168
3.76003e-168
1.32907e-168
4.57805e-169
1.47731e-169
4.63646e-170
1.38956e-170
3.90232e-171
1.19024e-171
3.44507e-172
1.60497e-172
4.60216e-173
9.60452e-174
9.57214e-151
1.13048e-151
1.40165e-152
1.89454e-153
2.63538e-154
3.81223e-155
5.56595e-156
8.60628e-157
1.56612e-157
3.01297e-158
6.14832e-159
1.3832e-159
3.34069e-160
8.11765e-161
2.02143e-161
5.3269e-162
1.46109e-162
4.09709e-163
1.16656e-163
3.50041e-164
1.0374e-164
3.23525e-165
1.02471e-165
3.50922e-166
1.18105e-166
4.10446e-167
1.36128e-167
4.34699e-168
1.36583e-168
3.94087e-169
1.11754e-169
2.9609e-170
7.25176e-171
1.77344e-171
4.98817e-172
1.73958e-172
4.34901e-173
1.06051e-173
6.00983e-150
7.28269e-151
9.29461e-152
1.22462e-152
1.66098e-153
2.36389e-154
3.52472e-155
5.1656e-156
7.98922e-157
1.30698e-157
2.31712e-158
4.99311e-159
1.11597e-159
2.54522e-160
6.19668e-161
1.61882e-161
4.44601e-162
1.23412e-162
3.45829e-163
9.87983e-164
2.98034e-164
8.83371e-165
2.67908e-165
8.26332e-166
2.50128e-166
7.96018e-167
2.24691e-167
6.8473e-168
1.99271e-168
5.2401e-169
1.51486e-169
4.05383e-170
1.0203e-170
2.5175e-171
6.51166e-172
1.62437e-172
3.92862e-173
6.49999e-174
3.00162e-149
3.57831e-150
4.52244e-151
6.03499e-152
8.37083e-153
1.193e-153
1.76194e-154
2.64402e-155
4.17938e-156
6.89801e-157
1.18638e-157
2.29275e-158
4.69776e-159
1.0115e-159
2.2685e-160
5.39003e-161
1.3443e-161
3.45013e-162
8.81629e-163
2.31637e-163
6.16702e-164
1.69024e-164
4.7153e-165
1.31619e-165
3.8816e-166
1.13018e-166
3.39537e-167
1.0018e-167
2.78925e-168
7.99966e-169
2.16721e-169
5.53639e-170
1.44464e-170
3.70422e-171
9.91302e-172
2.4873e-172
5.35162e-173
8.41423e-174
4.36951e-149
5.35122e-150
6.86402e-151
9.21582e-152
1.29046e-152
1.86788e-153
2.83038e-154
4.39306e-155
7.0809e-156
1.1927e-156
2.15065e-157
4.02325e-158
8.16012e-159
1.73785e-159
3.75717e-160
8.56291e-161
2.01467e-161
4.85859e-162
1.14786e-162
2.83013e-163
7.12048e-164
1.87292e-164
4.89306e-165
1.32616e-165
3.43202e-166
9.55876e-167
2.69662e-167
7.79099e-168
2.28249e-168
6.9486e-169
2.0105e-169
5.35986e-170
1.27468e-170
2.86127e-171
6.52458e-172
1.53501e-172
2.88172e-173
4.52734e-174
3.53256e-149
4.42479e-150
5.78546e-151
7.91196e-152
1.13156e-152
1.66153e-153
2.56632e-154
4.0728e-155
6.7042e-156
1.16306e-156
2.13399e-157
4.06078e-158
8.16353e-159
1.73802e-159
3.75304e-160
8.30712e-161
1.85684e-161
4.27289e-162
9.7279e-163
2.27157e-163
5.21102e-164
1.2615e-164
3.07955e-165
7.66317e-166
1.96769e-166
5.0968e-167
1.408e-167
4.00003e-168
1.17134e-168
3.48066e-169
8.99994e-170
2.52908e-170
6.38965e-171
1.5583e-171
3.45674e-172
7.17897e-173
1.24523e-173
2.55558e-174
1.25905e-149
1.62684e-150
2.1658e-151
3.04663e-152
4.44249e-153
6.70021e-154
1.05729e-154
1.73195e-155
2.92077e-156
5.19621e-157
9.71548e-158
1.87056e-158
3.7835e-159
7.81895e-160
1.64299e-160
3.42935e-161
6.8442e-162
1.41861e-162
2.84029e-163
6.24976e-164
1.31594e-164
2.93481e-165
6.35607e-166
1.44606e-166
3.50215e-167
9.22995e-168
2.38686e-168
8.32091e-169
2.75882e-169
1.20033e-169
4.78543e-170
1.69839e-170
4.83132e-171
1.02231e-171
2.61178e-172
5.79849e-173
1.20342e-173
3.12211e-174
2.32663e-150
3.11791e-151
4.22342e-152
6.13736e-153
9.12353e-154
1.40597e-154
2.24934e-155
3.69777e-156
6.36067e-157
1.08791e-157
2.00912e-158
3.86348e-159
7.33992e-160
1.41592e-160
2.80527e-161
5.3673e-162
9.95178e-163
1.77979e-163
3.42362e-164
7.04775e-165
1.42362e-165
3.06663e-166
6.76542e-167
1.5898e-167
3.94483e-168
9.77593e-169
2.5536e-169
7.98938e-170
2.62545e-170
1.29733e-170
6.93218e-171
3.12483e-171
9.94666e-172
1.94096e-172
4.56828e-173
1.33632e-173
5.06513e-174
1.87689e-174
1.87101e-151
2.66616e-152
3.56788e-153
5.51482e-154
8.27006e-155
1.30212e-155
2.13328e-156
3.43567e-157
6.00426e-158
9.66765e-159
1.75428e-159
3.34478e-160
5.78976e-161
1.00609e-161
1.90414e-162
3.35786e-163
5.44524e-164
8.82112e-165
1.85562e-165
4.37977e-166
9.47176e-167
2.18832e-167
5.4199e-168
1.32357e-168
3.28451e-169
6.69575e-170
1.78268e-170
6.35138e-171
2.4241e-171
1.89635e-171
1.32059e-171
7.30775e-172
2.83363e-172
8.51263e-173
2.55237e-173
8.21399e-174
3.23503e-174
1.48441e-174
4.92433e-153
7.42973e-154
9.41045e-155
1.6203e-155
2.44559e-156
3.91028e-157
6.43662e-158
1.03428e-158
1.63275e-159
2.814e-160
4.31741e-161
9.43826e-162
1.86699e-162
2.53663e-163
3.58238e-164
5.6665e-165
1.02838e-165
2.05963e-166
5.33004e-167
1.30049e-167
2.8469e-168
7.93028e-169
2.15621e-169
4.97642e-170
9.46963e-171
1.50727e-171
4.37437e-172
1.66433e-172
1.07281e-172
1.47721e-172
1.47357e-172
6.56765e-173
1.79153e-173
6.34789e-174
3.65604e-174
2.32334e-174
2.01459e-174
2.03302e-174
1.64822e-154
2.73811e-155
3.39969e-156
5.20862e-157
1.07767e-157
2.45252e-158
5.58704e-159
1.04895e-159
1.48359e-160
1.51981e-161
1.97644e-162
3.04219e-163
8.04341e-164
2.10464e-164
5.84747e-165
2.5949e-165
1.05999e-165
4.34238e-166
1.63458e-166
5.12351e-167
1.44007e-167
4.39607e-168
1.82726e-168
9.11545e-169
4.60054e-169
2.01367e-169
8.68584e-170
3.55144e-170
1.34669e-170
4.88883e-171
1.77157e-171
6.79939e-172
2.67942e-172
1.06849e-172
2.42973e-173
1.58278e-173
1.77247e-173
4.91866e-174
8.0974e-153
7.75751e-154
9.18136e-155
1.45918e-155
2.98229e-156
5.9026e-157
1.18764e-157
2.30418e-158
4.02986e-159
6.33408e-160
9.22753e-161
1.51381e-161
3.08505e-162
6.87407e-163
1.87946e-163
6.79009e-164
2.38356e-164
8.22893e-165
2.79842e-165
8.8787e-166
2.73987e-166
8.61162e-167
3.01677e-167
1.18398e-167
4.93761e-168
1.98252e-168
7.88599e-169
2.96868e-169
1.06265e-169
3.58949e-170
1.17919e-170
3.92249e-171
1.18946e-171
4.25175e-172
1.06788e-172
6.41106e-173
2.07205e-173
4.30396e-174
2.35994e-151
2.63084e-152
3.04011e-153
3.70872e-154
4.9657e-155
7.62528e-156
1.31596e-156
2.40695e-157
4.33366e-158
7.57089e-159
1.29217e-159
2.37785e-160
5.37406e-161
1.28107e-161
3.26952e-162
9.29997e-163
2.74899e-163
8.13776e-164
2.46844e-164
7.41161e-165
2.22789e-165
6.78992e-166
2.19491e-166
7.72156e-167
2.84911e-167
1.0405e-167
3.81256e-168
1.32422e-168
4.35095e-169
1.34687e-169
3.98618e-170
1.1418e-170
2.84702e-171
8.2185e-172
2.06872e-172
6.27491e-173
1.63459e-173
2.99717e-174
4.04828e-150
4.5164e-151
5.22586e-152
6.45437e-153
8.4002e-154
1.14876e-154
1.62328e-155
2.44187e-156
4.07206e-157
7.11507e-158
1.29347e-158
2.54008e-159
5.43135e-160
1.20049e-160
2.82552e-161
7.25771e-162
1.96288e-162
5.42351e-163
1.54338e-163
4.50361e-164
1.3248e-164
4.01344e-165
1.25439e-165
4.12663e-166
1.37081e-166
4.56245e-167
1.4739e-167
4.6391e-168
1.39494e-168
3.90107e-169
1.04852e-169
2.50817e-170
5.64112e-171
1.37721e-171
3.4532e-172
1.02466e-172
2.29746e-173
4.58773e-174
2.46964e-149
2.84809e-150
3.40899e-151
4.18112e-152
5.32231e-153
7.13952e-154
1.0041e-154
1.43066e-155
2.16347e-156
3.47411e-157
6.12596e-158
1.23648e-158
2.6434e-159
5.92489e-160
1.39684e-160
3.46315e-161
8.96155e-162
2.35695e-162
6.29171e-163
1.71554e-163
4.82366e-164
1.36809e-164
3.96751e-165
1.17655e-165
3.46937e-166
1.03011e-166
2.92295e-167
8.31408e-168
2.2607e-168
5.91594e-169
1.55778e-169
3.79409e-170
8.72599e-171
1.96652e-171
4.56846e-172
1.02099e-172
2.074e-173
3.1585e-174
9.59293e-149
1.11808e-149
1.36306e-150
1.73074e-151
2.2772e-152
3.09302e-153
4.35454e-154
6.28194e-155
9.52625e-156
1.51859e-156
2.57247e-157
4.82567e-158
9.76825e-159
2.07429e-159
4.59865e-160
1.0661e-160
2.56321e-161
6.28961e-162
1.5528e-162
3.92426e-163
1.00876e-163
2.66377e-164
7.16983e-165
1.95493e-165
5.45275e-166
1.51881e-166
4.28359e-167
1.18174e-167
3.19301e-168
8.6126e-169
2.21425e-169
5.45511e-170
1.30788e-170
3.07791e-171
7.29724e-172
1.59193e-172
2.92026e-173
4.24548e-174
1.28755e-148
1.53833e-149
1.91724e-150
2.48799e-151
3.35543e-152
4.68521e-153
6.82079e-154
1.02219e-154
1.59254e-155
2.59758e-156
4.52382e-157
8.27984e-158
1.63377e-158
3.38128e-159
7.20471e-160
1.6023e-160
3.65913e-161
8.55193e-162
1.99243e-162
4.78365e-163
1.17483e-163
2.9863e-164
7.65104e-165
2.01071e-165
5.22458e-166
1.41539e-166
3.85017e-167
1.06264e-167
2.9443e-168
8.20694e-169
2.20915e-169
5.51159e-170
1.25889e-170
2.62348e-171
5.55304e-172
1.15341e-172
1.97449e-173
2.80976e-174
9.84105e-149
1.20182e-149
1.52917e-150
2.03332e-151
2.81351e-152
4.02039e-153
6.0038e-154
9.24958e-155
1.48064e-155
2.48923e-156
4.42354e-157
8.21341e-158
1.61197e-158
3.3221e-159
6.99715e-160
1.51024e-160
3.30756e-161
7.44933e-162
1.67562e-162
3.86027e-163
8.84704e-164
2.1088e-164
5.08083e-165
1.25188e-165
3.15525e-166
8.15722e-167
2.19643e-167
6.13657e-168
1.71875e-168
4.82371e-169
1.25689e-169
3.25082e-170
7.59169e-171
1.63553e-171
3.41342e-172
6.625e-173
1.24947e-173
2.3366e-174
3.51756e-149
4.41775e-150
5.74284e-151
7.87239e-152
1.11518e-152
1.64696e-153
2.52973e-154
4.03057e-155
6.67015e-156
1.14803e-156
2.08078e-157
3.9164e-158
7.71494e-159
1.5538e-159
3.18216e-160
6.48564e-161
1.28643e-161
2.6213e-162
5.32106e-163
1.15291e-163
2.44129e-164
5.40649e-165
1.18087e-165
2.70091e-166
6.41823e-167
1.63453e-167
4.25658e-168
1.36859e-168
4.39991e-169
1.73e-169
6.24716e-170
2.04562e-170
5.77907e-171
1.41468e-171
3.38242e-172
6.78937e-173
1.56206e-173
3.64589e-174
6.66812e-150
8.67803e-151
1.15258e-151
1.63798e-152
2.36552e-153
3.5974e-154
5.62745e-155
9.0363e-156
1.53834e-156
2.56935e-157
4.57192e-158
8.46666e-159
1.57849e-159
2.98453e-160
5.76388e-161
1.08054e-161
1.9847e-162
3.58074e-163
6.92297e-164
1.40438e-164
2.83864e-165
6.07032e-166
1.33965e-166
3.11693e-167
7.4808e-168
1.78847e-168
4.62176e-169
1.37016e-169
4.34539e-170
2.00011e-170
9.41821e-171
3.85857e-171
1.21305e-171
2.92992e-172
5.95467e-173
1.40768e-173
4.42017e-174
1.55749e-174
5.67737e-151
7.78209e-152
1.03557e-152
1.57078e-153
2.26607e-154
3.63913e-155
5.79989e-156
9.2493e-157
1.67468e-157
2.62801e-158
4.52455e-159
7.97886e-160
1.34228e-160
2.32313e-161
4.27839e-162
7.27646e-163
1.14599e-163
1.8709e-164
3.91449e-165
8.85067e-166
1.92433e-166
4.47075e-167
1.0893e-167
2.61283e-168
5.95933e-169
1.20787e-169
3.1915e-170
1.049e-170
3.83698e-171
2.65756e-171
1.70894e-171
8.75282e-172
3.23216e-172
9.92344e-173
2.82381e-173
8.50389e-174
2.99403e-174
1.15293e-174
1.58998e-152
2.28231e-153
2.94469e-154
5.01664e-155
7.28349e-156
1.25958e-156
2.04423e-157
3.1083e-158
5.97222e-159
9.68932e-160
1.46545e-160
2.77111e-161
4.85396e-162
6.31538e-163
8.28981e-164
1.20842e-164
2.09661e-165
4.28631e-166