/*--------------------------------*- C++ -*----------------------------------*\
| =========                 |                                                 |
| \\      /  F ield         | OpenFOAM: The Open Source CFD Toolbox           |
|  \\    /   O peration     | Version:  2.3.1                                 |
|   \\  /    A nd           | Web:      www.OpenFOAM.org                      |
|    \\/     M anipulation  |                                                 |
\*---------------------------------------------------------------------------*/
FoamFile
{
    version     2.0;
    format      ascii;
    class       volVectorField;
    location    "15";
    object      U;
}
// * * * * * * * * * * * * * * * * * * * * * * * * * * * * * * * * * * * * * //

dimensions      [0 1 -1 0 0 0 0];

internalField   nonuniform List<vector> 
38262
(
(-0.130084 -0.0202639 -0.00240551)
(-0.127327 0.0115935 -0.00688802)
(-0.126963 0.0502447 -0.0104318)
(-0.142077 0.0350078 -0.00657012)
(-0.129131 -0.0153394 -0.00566052)
(-0.103438 -0.0130578 -0.0114353)
(-0.104981 0.00951234 -0.0139284)
(-0.109802 0.0168744 -0.0133394)
(-0.103355 0.0159895 -0.0118462)
(-0.0981512 0.00519988 -0.00673023)
(-0.0961112 -0.0243101 0.00313047)
(-0.106761 -0.0465374 0.0089877)
(-0.139975 -0.0320886 0.0019469)
(-0.135451 -0.0254174 0.00151392)
(-0.142719 -0.0181095 0.00849478)
(-0.176834 0.000166674 -0.00101658)
(-0.156402 -0.00563996 -0.00153939)
(-0.153199 -0.0201241 0.00686327)
(-0.152925 -0.02923 0.00140783)
(-0.110442 -0.0382676 0.00436996)
(-0.106539 -0.0278365 0.00983111)
(-0.125155 -0.014251 0.00864535)
(-0.135242 -0.0129155 0.0136842)
(-0.184341 -0.0387363 0.0138954)
(-0.14589 -0.0936218 0.0135873)
(-0.119561 -0.11861 0.0214147)
(-0.0792039 -0.133292 0.0271435)
(-0.0706009 -0.137695 0.0254241)
(-0.00282473 -0.133781 0.0208208)
(-0.0221792 -0.125785 0.0222853)
(0.0300683 -0.12573 0.0178392)
(0.0169884 -0.124665 0.0238173)
(0.0376987 -0.163241 0.0295612)
(0.0699887 -0.135956 0.0539841)
(-0.0904944 -0.0626512 -0.0500933)
(-0.142525 -0.210304 -0.135506)
(1.35582 -0.265567 -0.0156393)
(-2.36989 6.5277 -0.260192)
(-0.051494 0.00499522 0.0134458)
(-0.13263 -0.00912776 0.0119331)
(-0.161968 -0.00420076 -0.00312039)
(-0.106027 0.0037699 -0.00572561)
(-0.0846702 0.0102221 -0.00209433)
(-0.0924716 0.0396612 -0.00572923)
(-0.084041 0.0601972 -0.0161839)
(-0.0744244 0.0501244 -0.0202632)
(-0.0609062 0.0405135 -0.0200795)
(-0.0311237 0.0429002 -0.0247038)
(0.00458691 0.0440826 -0.0272242)
(0.0314753 0.0384321 -0.0204331)
(0.0380678 0.0308453 -0.0100543)
(0.0317485 0.0213745 -0.00696621)
(0.0415426 0.00905832 -0.00488828)
(0.0426067 -0.00185825 -0.000323653)
(0.0516874 -0.0120379 -0.00134479)
(0.0606454 -0.0205779 -0.00248374)
(0.0741566 -0.0262915 -0.00491373)
(0.0878579 -0.0309501 -0.00512721)
(0.100418 -0.0292068 -0.00383592)
(0.111914 -0.0220382 -0.0019244)
(0.131223 -0.0329537 -0.0021449)
(0.150385 -0.0412803 0.00109273)
(0.164432 -0.0490458 0.00682091)
(0.132778 -0.0626527 0.0170582)
(0.14615 -0.0801775 0.0132525)
(0.0786802 -0.0855583 0.00826334)
(0.106041 -0.0777612 -0.0170251)
(0.127979 -0.0511479 -0.00339063)
(0.0934797 -0.0634324 -0.0214831)
(0.188735 -0.00570237 0.00139935)
(0.0795275 -0.0821844 -0.0228702)
(0.138471 0.0264522 0.116277)
(-0.428647 0.314815 0.137712)
(-1.18515 0.925893 -0.2015)
(-1.45488 1.89634 -0.607134)
(2.70598 -5.21687 -0.234617)
(0.00162834 0.0148672 -0.00394601)
(0.00369033 0.0183899 -0.00262781)
(-0.00757955 0.0103446 0.00444713)
(-0.0327356 -0.00655924 0.0129175)
(-0.0827375 -0.0180194 0.0134027)
(-0.123389 -0.0017283 0.0030503)
(-0.102906 0.0401511 -0.00872499)
(-0.0583013 0.0640724 -0.0222285)
(-0.0266429 0.0607866 -0.0256025)
(-0.019245 0.0548532 -0.0163973)
(-0.00716702 0.0469044 -0.0146434)
(0.019441 0.029699 -0.0153353)
(0.0355901 0.0136668 -0.0136134)
(0.0528945 0.00397904 -0.0117082)
(0.0626869 -0.00182999 -0.00899647)
(0.0704683 -0.0101971 -0.00842677)
(0.0764177 -0.014745 -0.00736698)
(0.0782303 -0.0242055 -0.00546839)
(0.0739537 -0.0287308 -0.00511249)
(0.0763181 -0.0326363 -0.00599895)
(0.0770438 -0.0351644 -0.00445883)
(0.0696128 -0.0304774 -0.000756216)
(0.0718269 -0.0417025 -0.00354359)
(0.0610379 -0.0597337 0.00022862)
(0.0239704 -0.0927916 0.0153267)
(-0.0843828 -0.16048 0.00195748)
(-0.0697115 -0.17356 -0.0501233)
(-0.0864625 -0.153 -0.0512543)
(0.00381971 -0.133803 -0.0678994)
(-0.0157806 -0.122715 -0.0743594)
(0.10407 -0.139262 -0.0355146)
(0.0177137 -0.112348 -0.0523505)
(0.143408 -0.162982 -0.0268516)
(0.0755102 -0.0313259 -0.0852734)
(0.0596331 0.127301 0.219241)
(-0.286998 0.798167 -0.315741)
(1.55617 -1.56738 0.539985)
(-0.760732 2.10337 -1.25585)
(0.00418672 0.0237836 -0.00305837)
(0.0122392 0.0200077 -0.00279739)
(0.0208086 0.0172048 -0.000820513)
(0.0240635 0.0185769 -0.00118989)
(0.0206613 0.018506 0.00166306)
(0.00659277 0.0157813 0.00843357)
(-0.0209059 0.00471907 0.0246844)
(-0.0723042 0.0239625 0.0137128)
(-0.0661202 0.0640177 -0.0187522)
(-0.0158345 0.0775673 -0.0317135)
(0.00871907 0.0745911 -0.0223152)
(0.0241809 0.0681224 -0.0151093)
(0.0390131 0.059371 -0.0126752)
(0.047275 0.0498795 -0.0138152)
(0.0601961 0.0381095 -0.0109859)
(0.0563178 0.0287131 -0.00966499)
(0.0675534 0.016081 -0.0104261)
(0.0696013 0.00846668 -0.00750287)
(0.0605154 0.00480973 -0.003899)
(0.0806596 -0.00656695 -0.0163436)
(0.0776576 0.00752317 0.00102847)
(0.0805494 -0.00906336 -0.00968803)
(0.120252 -0.00756043 -0.000874684)
(0.108148 -0.0080065 -0.0307237)
(0.185746 0.0125882 -0.00167704)
(0.0930519 -0.00516465 -0.0328735)
(0.291115 0.0490427 -0.0508739)
(0.11264 0.0201764 -0.00784627)
(0.316848 0.057562 -0.0246706)
(0.121492 0.0549627 -0.0313903)
(0.336101 0.0685223 0.0176775)
(0.112731 0.0722725 0.00392253)
(0.304799 0.0384576 -0.0221392)
(0.2342 0.196278 -0.0146103)
(0.117279 0.252878 0.0885818)
(0.263325 -0.445772 0.136159)
(-0.412045 0.941235 -0.527004)
(-0.611579 2.27314 -0.943051)
(0.00944441 0.0163806 -0.000648307)
(0.0154841 0.0160926 -0.00147325)
(0.0228459 0.0107785 -0.000582376)
(0.0223972 0.00990315 -0.000480855)
(0.0339112 -0.00077548 0.000574043)
(0.029288 0.00844314 0.00150292)
(0.0328992 0.0131273 0.00356191)
(0.0222744 0.0115709 0.0141313)
(-0.0223081 0.0198032 0.021114)
(-0.0449919 0.0452865 0.00464787)
(-0.0279455 0.0680771 -0.0137382)
(-0.00444917 0.0677026 -0.0162806)
(0.0185804 0.0564767 -0.0138551)
(0.0291159 0.050118 -0.0105183)
(0.0444918 0.0440172 -0.00751515)
(0.0451223 0.0319708 -0.00351484)
(0.049008 0.0229979 -0.00482729)
(0.0547379 0.0218934 -0.00163962)
(0.0569621 -0.00839404 -0.0056889)
(0.0684717 0.0229374 0.00292573)
(0.0485378 -0.0227912 -0.0104714)
(0.0956235 -0.0185904 0.00111169)
(0.0512273 -0.0386394 -0.00197938)
(0.0904489 0.000383155 -0.00011114)
(0.0767791 -0.055801 0.00939138)
(0.0826783 -0.0721593 -0.0266362)
(0.116509 -0.0386797 0.0321012)
(0.0402781 -0.17481 -0.0202836)
(0.174798 0.00563947 -0.0224489)
(0.149202 -0.103862 0.0516804)
(-0.00647658 -0.227902 -0.0398962)
(0.139481 -0.0189785 -0.0325922)
(0.127447 -0.187654 -0.0319946)
(0.167989 0.151402 0.026957)
(0.135026 -0.0360014 -0.0310807)
(0.0881445 -0.262633 -0.0746404)
(-0.652882 0.922913 0.0290415)
(-0.702573 2.57372 -0.627697)
(0.0244807 0.014199 0.00158095)
(0.0269493 0.0135901 0.0005927)
(0.0332001 0.0128023 0.00066614)
(0.0341476 0.00952718 -9.79675e-05)
(0.0452646 0.00940993 -0.000217654)
(0.0377589 0.0132654 0.00140056)
(0.0464416 0.00491943 3.23373e-05)
(0.0543052 0.0149088 0.00469605)
(0.0367888 0.0263511 0.00847231)
(0.0412623 0.019868 0.0171738)
(0.00346457 0.0385447 0.0178572)
(-0.00205963 0.0446222 0.00829614)
(-0.00640846 0.0525746 0.000984094)
(-0.00625712 0.0482891 -0.00144044)
(0.00806697 0.0423745 -0.0026265)
(0.0127357 0.0328723 -0.00142266)
(0.0205201 0.0229351 0.00050702)
(0.0347468 0.00731143 0.000930797)
(0.0514984 0.00547001 0.000164612)
(0.0413032 -0.00916796 -0.00215079)
(0.0951545 0.0157612 -0.0076717)
(0.0373656 -0.0128378 -0.00532873)
(0.112911 0.0087965 -0.00927819)
(0.0420903 -0.0287584 0.0106588)
(0.130778 -0.0328064 -0.0249596)
(0.132521 0.0641206 -0.00475024)
(0.0761523 -0.0684438 -0.0201714)
(0.216143 0.0407507 -0.0389669)
(0.100456 0.0652181 -0.00939092)
(0.151288 -0.0246867 0.0107951)
(0.0794742 0.204067 -0.0748584)
(0.100668 0.0435067 0.0179696)
(0.0132628 0.18211 -0.0153359)
(0.0715537 0.0263109 0.101106)
(0.135443 0.375945 -0.158862)
(0.162511 0.244911 -0.117441)
(-0.410501 0.921691 0.1524)
(-0.5378 2.79923 -0.146189)
(0.0327686 0.0040677 0.00103632)
(0.0350101 0.00648377 0.000548746)
(0.0397412 0.0031029 0.00048523)
(0.0383664 0.00273042 0.000322438)
(0.047166 0.000894501 -0.000513826)
(0.0442702 0.00347175 0.000840537)
(0.0520394 -0.000729199 -0.000909591)
(0.0493933 0.0034066 0.00122301)
(0.0612214 0.00766966 0.00154092)
(0.0568064 0.00853112 0.00352433)
(0.059229 0.0121162 0.00860357)
(0.0693553 0.0121586 0.0118567)
(0.038434 0.0241793 0.00866499)
(0.0608264 0.0101391 0.00833046)
(0.057142 0.00667597 0.0109434)
(0.0577563 0.00713922 0.00566213)
(0.0543923 -0.00437143 -0.00253328)
(0.079846 -0.015376 0.00225706)
(0.081275 -0.0240931 0.0108775)
(0.0640974 -0.0172068 0.00760677)
(0.0720966 -0.00548576 0.00362476)
(0.0635434 -0.0133007 -0.00683319)
(0.0766518 0.00149627 0.00129563)
(0.0873228 -0.037168 -0.0256932)
(0.133558 -0.0308286 0.0158367)
(0.00524175 -0.0126885 -0.0011186)
(0.221157 -0.0222387 -0.0158899)
(0.0251154 -0.0658908 -0.00132038)
(0.276081 0.049942 0.0199833)
(0.0290805 -0.125667 -0.0104344)
(0.238352 0.0590366 -0.0085774)
(0.169575 -0.0843262 -0.0601887)
(0.223416 -0.0233677 -0.0523206)
(0.178562 -0.360598 -0.0903577)
(0.0361735 0.17192 0.0151454)
(0.00291748 0.360647 -0.0434792)
(-0.281682 0.843013 0.127831)
(-0.29904 2.28683 0.145271)
(0.0358315 0.00597392 0.000154775)
(0.0370873 0.00604288 -3.78962e-05)
(0.0410553 0.00816182 -0.000265112)
(0.0428756 0.00298945 0.000280376)
(0.0452934 0.0070916 -0.00172189)
(0.0524766 0.00652906 0.00123008)
(0.0442183 0.00657105 -0.00205821)
(0.0645068 0.00129707 0.000134108)
(0.0540178 0.013616 0.000695219)
(0.0638532 0.009045 -0.000313666)
(0.0728351 0.00194731 0.000484584)
(0.083092 0.00868516 0.00405516)
(0.0694123 0.023896 0.00653081)
(0.0825739 0.00348886 0.000334404)
(0.0960825 -0.00578281 0.00322798)
(0.102169 0.00172323 0.00816693)
(0.0831384 0.0105751 0.00205169)
(0.101552 -0.0124482 -0.00037306)
(0.100712 -0.0120855 -0.00434289)
(0.120654 -0.0256092 0.0050627)
(0.110316 -0.0102054 0.0124243)
(0.0708677 -0.0049172 0.00490596)
(0.0929587 -0.0214359 0.000959369)
(0.0932055 0.00188973 -0.013196)
(0.121154 -0.0193945 0.000749851)
(0.104581 -0.00891633 0.00668413)
(0.126415 -0.0235732 -0.00954471)
(0.152255 0.00988117 0.0086398)
(0.0702494 0.0325716 0.00235156)
(0.18178 0.0890587 -0.0197809)
(0.0780307 0.184816 0.0456506)
(-0.0649287 0.319256 0.003204)
(0.0709007 0.441801 0.0107593)
(0.0122374 0.413931 -0.242663)
(0.171365 0.22786 -0.0368091)
(0.0123558 0.53794 -0.073652)
(-0.12318 0.992634 -0.0474971)
(-0.0776314 1.83528 0.0799999)
(0.0339651 5.33465e-05 0.000145349)
(0.0389484 0.00451419 -0.000679493)
(0.0390715 0.00108434 0.000270963)
(0.0428037 0.000419419 -0.000444983)
(0.0454382 0.00249005 -0.000810142)
(0.0492793 0.00190036 0.000458839)
(0.0476875 -0.000583422 -0.000889555)
(0.0605012 -0.00385295 -0.00113835)
(0.0527562 0.00828057 0.00248958)
(0.0639105 -0.0067417 -0.00301353)
(0.0795118 -0.00516336 -0.000752935)
(0.0612397 -1.45965e-05 0.00210625)
(0.082809 0.00203763 0.000383053)
(0.0934477 -0.00848104 0.00138915)
(0.0765184 -0.0220837 -0.0016994)
(0.105043 -0.006976 -0.000547411)
(0.0868868 -0.0092262 0.00579715)
(0.103728 -0.0241877 -0.00265528)
(0.102691 -0.0240025 0.00321867)
(0.0835029 -0.0349964 -0.00747574)
(0.121032 -0.00698912 0.00298054)
(0.0715675 -0.0111864 -0.00206806)
(0.142387 -0.0258161 0.00215438)
(0.0672414 -0.0192295 0.00899261)
(0.136408 -0.0298847 -0.00835787)
(0.121421 -0.0568958 -0.00909726)
(0.196011 -0.0201255 0.0140275)
(0.114204 -0.0689838 -0.0166011)
(0.292979 0.00233418 0.00186272)
(0.135125 -0.0680941 -0.0138479)
(0.329063 -0.0238127 -0.0507949)
(0.221637 -0.140732 -0.00730582)
(0.251688 -0.213535 0.0422774)
(0.141427 0.166455 0.00932788)
(0.0406237 0.394896 -0.0221962)
(-0.0600929 0.686414 -0.0183976)
(-0.254981 1.16988 -0.0717524)
(-0.0955226 1.83362 -0.0529743)
(0.0349084 0.000755605 0.000214067)
(0.0367606 0.00579516 -0.00117984)
(0.043681 0.00424063 9.34222e-06)
(0.0382923 0.00063644 -0.000421734)
(0.0490147 0.00604988 -0.00117123)
(0.0473663 0.00379495 -0.000125853)
(0.0514554 0.00198743 -0.000134375)
(0.0521573 0.00366713 -0.002108)
(0.0604158 0.000802329 0.00229055)
(0.0583533 -0.00228173 -0.00135672)
(0.0751612 0.0109831 0.000222889)
(0.0658508 -0.00392698 0.00144799)
(0.0790256 -0.00275976 4.18434e-05)
(0.0814264 0.00320185 0.00103594)
(0.0795573 -0.00673647 -0.000358091)
(0.0791965 -0.00103688 0.00110239)
(0.090292 -0.0152317 0.00187205)
(0.0824148 -0.0111583 0.00212395)
(0.0748697 -0.014924 -0.000880378)
(0.0824047 -0.00808005 -0.00525597)
(0.0813684 -0.00883268 0.0028506)
(0.0854235 -0.00832959 -0.00189286)
(0.0989711 -0.0213432 0.00208242)
(0.0764246 -0.024273 -0.000120374)
(0.114722 -0.0380438 0.0031259)
(0.0738486 -0.0124645 -0.00678306)
(0.132736 -0.0699017 0.00555689)
(0.0860395 0.0248884 -0.00584276)
(0.126938 0.0160327 0.007904)
(0.0451723 0.188816 0.0318897)
(-0.184609 0.425943 -0.0092575)
(-0.23604 0.503609 -0.100697)
(-0.158554 0.469895 -0.128673)
(-0.0485946 0.369633 -0.031247)
(-0.152701 0.646951 -0.0324122)
(-0.220876 1.02827 -0.0439326)
(-0.311667 1.45219 -0.120924)
(-0.212783 2.03063 -0.147786)
(0.0358333 -0.00284147 0.000596931)
(0.0329858 0.00408809 -0.00139217)
(0.0463026 0.000720766 0.000505909)
(0.0360188 -0.000542441 -0.000434478)
(0.0482583 0.00176112 -0.00128013)
(0.047821 0.00132375 0.000778021)
(0.0485775 -0.00122799 -0.00111867)
(0.0555712 -0.00133984 -2.35814e-05)
(0.0553669 -0.00782391 0.00329136)
(0.0562378 -0.013117 -0.00535299)
(0.069446 -0.0104285 -0.00155056)
(0.0586751 -0.00796625 -0.00382509)
(0.0707355 -0.00861943 -0.002991)
(0.0728138 -0.0122944 0.000604206)
(0.0641052 -0.0156306 -0.000519596)
(0.0598711 -0.020615 0.00214985)
(0.0377355 -0.0206933 0.000492745)
(0.0327876 -0.02024 -0.000640013)
(0.0302026 -0.0190474 -0.00271145)
(0.0318523 -0.0156469 -0.00203196)
(0.0386747 -0.0167955 -0.00202365)
(0.040355 -0.0169554 -0.00113529)
(0.0444927 -0.0235386 -0.00625164)
(0.0520544 -0.0272023 -0.00502206)
(0.047441 -0.034537 -0.00944881)
(0.0976678 -0.0558207 0.00264057)
(0.0764867 -0.0695348 -0.00625526)
(0.125081 -0.0542681 -0.00262352)
(0.184097 -0.0275681 -0.0075427)
(0.191139 0.00711645 0.0133193)
(0.216896 0.0674242 0.0378623)
(0.161667 0.0293321 0.0438469)
(0.192579 -0.00102974 0.0307426)
(0.113251 0.217743 -0.0359712)
(0.025877 0.414959 0.0285123)
(-0.145666 0.768429 0.0326452)
(-0.183934 1.35703 -0.0351826)
(-0.261691 1.68118 -0.0528518)
(0.0279097 -0.00144366 -0.000513186)
(0.0363339 0.00498494 -0.000687146)
(0.0448121 -0.000949302 0.000293313)
(0.0336915 0.0022389 0.000559046)
(0.0458173 0.00262742 -0.00281592)
(0.0526515 0.00045604 0.00357451)
(0.0318628 0.00129567 -0.00439668)
(0.0691352 0.00107143 0.0042997)
(0.0207937 -0.0137381 0.00646584)
(-0.00724138 0.00629541 -0.00786339)
(0.0166147 0.0149808 0.00122879)
(-0.00195099 0.0126324 0.00736738)
(0.00803397 0.00815103 -0.000913785)
(0.0077049 0.00972225 -0.00400594)
(0.0153429 0.0096829 -0.00244541)
(0.0163991 0.0101395 -0.000185385)
(0.010733 0.00276568 -0.00341399)
(0.0158173 -0.00132893 -0.00473548)
(0.0130053 0.00335362 -0.00314931)
(0.0231025 0.00072741 0.00395073)
(-0.0204295 -0.00555535 0.00273586)
(-0.0219293 -0.00237897 -0.0107717)
(0.00941967 0.00113085 -0.00887455)
(0.00269294 -0.000210623 0.00320856)
(-0.0248708 -0.0173394 -0.00416119)
(-0.0368247 -0.0463785 0.00441797)
(-0.19826 -0.0448972 0.0106047)
(-0.253883 -0.0421197 0.0161406)
(-0.514802 -0.00661262 0.033595)
(-0.645083 0.223184 0.0401578)
(-0.550858 0.365558 0.0503371)
(-0.579843 0.349669 0.0556961)
(-0.701822 0.394155 0.0795075)
(-0.871758 0.581865 0.12298)
(-1.03387 0.83744 0.174842)
(-1.15124 1.22899 0.198252)
(-0.983395 1.84244 0.234418)
(-0.638209 2.34822 0.234577)
(-0.0936897 -0.0402804 0.00801145)
(-0.0878626 -0.0272749 0.00342924)
(-0.0917156 0.00704786 -0.00663303)
(-0.0982059 0.0257762 -0.0124188)
(-0.08896 0.00840518 -0.0115809)
(-0.071542 -0.00816719 -0.01384)
(-0.0607175 -0.00709923 -0.0189408)
(-0.0547864 0.00104955 -0.0222577)
(-0.0612891 0.0177713 -0.0217451)
(-0.0839789 0.0346559 -0.0221064)
(-0.0993638 0.0176895 -0.0113718)
(-0.100229 -0.0305534 0.0160743)
(-0.117316 -0.0311303 0.0109337)
(-0.132668 -0.0172521 0.00133128)
(-0.128289 -0.0157127 0.0162005)
(-0.149497 -0.00478515 0.0066975)
(-0.155286 -0.0044288 0.000713275)
(-0.149733 -0.0158261 0.0125114)
(-0.146438 -0.025097 0.005712)
(-0.12285 -0.0289612 0.0108707)
(-0.117615 -0.0186758 0.0222047)
(-0.141241 -0.00578442 0.0242779)
(-0.162423 -0.0079269 0.0332811)
(-0.198621 -0.0353414 0.0306821)
(-0.165901 -0.0769912 0.0290904)
(-0.141278 -0.0924186 0.0389381)
(-0.103399 -0.100034 0.052092)
(-0.0700957 -0.103076 0.0498153)
(-0.0251002 -0.0974302 0.0548314)
(-0.0236853 -0.0933967 0.0496667)
(0.0150501 -0.0923496 0.0528799)
(0.00767883 -0.0991879 0.0453815)
(0.0536742 -0.127612 0.0645805)
(0.145198 -0.1637 0.0684671)
(0.341581 -0.0198115 0.021838)
(0.303198 -0.467436 -0.900872)
(0.176818 0.127928 0.029282)
(2.11258 -3.28918 -1.08149)
(-0.0216033 0.00962306 0.0144124)
(-0.0522991 -0.00322945 0.0308107)
(-0.0945965 -0.0161294 0.0132656)
(-0.0825569 -0.0208196 -0.00594503)
(-0.0590733 -0.0171487 -0.00383241)
(-0.0487201 -0.00319646 -0.000769748)
(-0.0412803 0.0115309 -0.00729004)
(-0.0271948 0.0164811 -0.0154252)
(-0.00967525 0.0217691 -0.0220323)
(0.00569349 0.0307623 -0.0290718)
(0.0217087 0.0372138 -0.0376484)
(0.0374909 0.0318767 -0.0322329)
(0.035038 0.0239344 -0.0132793)
(0.027848 0.0150767 -0.0110177)
(0.0349452 0.00449484 -0.00854147)
(0.0383281 -0.00557186 -0.000598154)
(0.0436295 -0.0141557 -0.00171846)
(0.0508311 -0.0215397 -0.00325096)
(0.0601078 -0.0272852 -0.00610806)
(0.0666187 -0.0305337 -0.00744991)
(0.0777026 -0.0279872 -0.00494238)
(0.0876114 -0.0237869 -0.00205616)
(0.106174 -0.0284186 0.000846402)
(0.116692 -0.0352385 0.00398233)
(0.133549 -0.0466255 0.00865593)
(0.139549 -0.0411315 0.0134723)
(0.150879 -0.035267 0.0265044)
(0.162122 -0.0279195 0.0169362)
(0.143573 -0.0251656 -0.00537118)
(0.179281 -0.00779047 0.0087044)
(0.124982 -0.0107685 -0.0138409)
(0.194818 0.0390527 0.00518722)
(0.113609 -0.0566009 0.00575407)
(0.135192 0.100852 0.0415101)
(0.510014 -0.14519 0.191146)
(-0.118677 1.08619 0.148148)
(0.707989 -1.40041 -0.439456)
(1.27729 -0.218374 0.898767)
(0.0132538 0.0078238 -0.00818126)
(0.0173094 0.0119075 -0.00697581)
(0.014501 0.0032531 -6.86438e-05)
(0.011888 -0.00924061 0.0116576)
(0.00153984 -0.0179884 0.0213356)
(-0.0143457 -0.0266269 0.0180347)
(-0.0180738 -0.0364942 0.00981426)
(-0.00638154 -0.034956 0.00245796)
(-0.00154419 -0.0131579 -0.0056774)
(0.00991074 0.0100747 -0.0130132)
(0.032905 0.0157904 -0.021724)
(0.0488596 0.00357161 -0.0235582)
(0.0614188 -0.00575171 -0.0191474)
(0.0699251 -0.00817241 -0.0165128)
(0.0793735 -0.0129587 -0.0140258)
(0.0850992 -0.0182105 -0.0126271)
(0.0911293 -0.0229869 -0.0115078)
(0.0936883 -0.0293052 -0.00962442)
(0.0974833 -0.0363959 -0.0105002)
(0.101235 -0.0370972 -0.0106644)
(0.109115 -0.0388262 -0.0112475)
(0.107963 -0.0342294 -0.00633009)
(0.122487 -0.0427569 -0.00744648)
(0.118699 -0.0533947 -0.00427926)
(0.122042 -0.0727468 0.0114438)
(0.123488 -0.0819377 0.00303499)
(0.104506 -0.0928631 -0.0130741)
(0.164624 -0.0832405 -0.0305575)
(0.119351 -0.0988421 -0.039455)
(0.172513 -0.0633074 -0.023523)
(0.112215 -0.105727 -0.0403181)
(0.227708 -0.0486433 -0.00778177)
(0.0316545 -0.138906 -0.0487509)
(0.314598 -0.0190542 0.0415596)
(-0.0694967 0.185302 -0.0724308)
(0.707613 -0.197857 0.261495)
(0.149569 0.139109 0.0643612)
(0.60785 -2.10206 -0.707763)
(0.017884 0.0141694 -0.00444517)
(0.0239959 0.0123999 -0.00491585)
(0.0311332 0.00941432 -0.00357435)
(0.037156 0.00967049 -0.00491409)
(0.0358367 0.00996815 -0.00192922)
(0.0373837 0.00643681 0.00267446)
(0.0384465 -0.00267998 0.019503)
(0.0370374 -0.0105799 0.0305311)
(0.028162 -0.00993571 0.0186487)
(0.0193243 -0.00674527 0.00446346)
(0.021879 0.0113594 -0.00678649)
(0.0406757 0.0179608 -0.0156827)
(0.0568682 0.0163458 -0.0179183)
(0.065162 0.0122621 -0.0189812)
(0.0731874 0.00703884 -0.0176251)
(0.0782683 -0.000129266 -0.015561)
(0.0850772 -0.00845222 -0.0153878)
(0.0886315 -0.0134886 -0.0139953)
(0.093964 -0.0161019 -0.0102002)
(0.103634 -0.0262603 -0.0191935)
(0.103044 -0.0155768 -0.00874734)
(0.118555 -0.0207541 -0.0142462)
(0.129686 -0.0279533 -0.00983084)
(0.156729 -0.0271769 -0.0291984)
(0.118674 -0.0406382 -0.00249317)
(0.205176 -0.00635948 -0.0539888)
(0.105313 -0.0740796 -0.0271135)
(0.156539 -0.0422402 -0.00874072)
(0.110116 -0.0370812 -0.048861)
(0.0863185 -0.0750908 0.00132302)
(0.157158 0.00996376 0.0240426)
(0.149837 0.0245233 -0.0459881)
(0.142359 -0.0143596 -0.032104)
(0.14891 0.0962057 0.0266846)
(0.257041 0.0183084 0.00753897)
(0.304486 0.0326843 0.475703)
(0.966957 -0.429211 -0.233166)
(0.23281 0.489004 0.323508)
(0.0242543 0.00462827 0.00101726)
(0.0282831 0.00560222 -0.00124781)
(0.0328099 0.0038109 -0.00108892)
(0.0351593 0.00159366 -0.00111465)
(0.0408217 -0.00201822 -3.29275e-05)
(0.0434838 -0.00148379 0.00119196)
(0.0448331 0.00378594 0.00132112)
(0.0501472 -0.00259887 0.0115576)
(0.0413778 -0.00931225 0.0227361)
(0.0489083 -0.0171592 0.0245494)
(0.0338913 -0.0120188 0.0160043)
(0.0360888 -0.0127976 0.00640125)
(0.0370308 -0.00834552 0.000272206)
(0.0442291 -0.00544502 -0.00174434)
(0.0512791 -0.00527601 -0.00313954)
(0.0590708 -0.00738917 -0.0011776)
(0.0654677 -0.0143032 -0.00290149)
(0.0664686 -0.0121469 -0.000910412)
(0.0869317 -0.0272604 -0.00228805)
(0.0779106 -0.0208976 0.00278904)
(0.0991728 -0.0243948 -0.00729693)
(0.103935 -0.030074 -0.0022459)
(0.105473 -0.0420321 -0.0053967)
(0.109027 -0.0394975 -0.00194995)
(0.109342 -0.0548639 0.00925967)
(0.113215 -0.0619494 -0.0289971)
(0.149854 -0.0551012 0.0374751)
(0.105464 -0.0698239 -0.00560143)
(0.151585 -0.0295918 -0.0309999)
(0.152932 -0.0915418 0.0688266)
(0.132946 -0.0873303 -0.0164237)
(0.173201 -0.0144529 -0.0158955)
(0.119654 -0.073042 -0.0355852)
(0.18347 -0.098419 0.0303317)
(0.0760507 0.155934 -0.0372153)
(0.249435 -0.154394 0.0755501)
(0.107736 -0.0870268 0.182457)
(0.192692 -0.00857867 0.331714)
(0.0333301 0.00774147 0.00220787)
(0.0360668 0.0073625 0.000688314)
(0.0402053 0.00703229 0.000213573)
(0.0430066 0.00605213 -0.000912532)
(0.0475293 0.00657836 -0.00167597)
(0.0474929 0.00761373 0.000114145)
(0.0523333 0.0051968 -0.000844216)
(0.0566993 0.00906241 0.00390477)
(0.0578343 0.012705 0.00503118)
(0.065752 0.00610625 0.0128308)
(0.0585582 0.00220781 0.0254183)
(0.0674499 -0.00163561 0.0225298)
(0.0552328 0.00197506 0.0171242)
(0.0561039 -0.000625601 0.0153306)
(0.0519587 -0.00333756 0.0135863)
(0.0619492 -0.00569691 0.00844658)
(0.0584792 -0.0044636 0.00402096)
(0.0760405 -0.0177049 0.00264896)
(0.0851013 -0.0251526 0.00536724)
(0.0896022 -0.0249837 0.00223666)
(0.108315 -0.0346005 0.00139812)
(0.105533 -0.0191082 -0.00420707)
(0.118365 -0.0238288 -0.0114161)
(0.110641 -0.0184098 0.00064453)
(0.146217 -0.0256613 -0.0233623)
(0.119069 -0.0441458 -0.00201635)
(0.16359 -0.00683925 -0.0238085)
(0.132491 -0.020883 -0.0353754)
(0.140684 -0.0317744 0.00762978)
(0.139473 0.0459999 -0.00893157)
(0.155311 0.0120917 -0.0555742)
(0.0901333 0.0217121 0.027652)
(0.195666 0.02116 -0.0580452)
(0.114026 0.140396 0.0866539)
(0.197478 0.0513592 0.0470158)
(0.150851 -0.144758 -0.0108139)
(0.183262 0.0893406 0.135458)
(0.215802 0.639842 0.245161)
(0.0359754 0.00321552 0.000717145)
(0.0384591 0.00373779 -7.78518e-05)
(0.041552 0.00283816 -0.000203221)
(0.0434352 0.00159372 -0.000558249)
(0.0474539 0.0019143 -0.001476)
(0.0490704 0.0015548 -0.000132124)
(0.0539127 0.00179611 -0.00172152)
(0.0546226 0.00263511 0.000361157)
(0.0640061 0.0028188 0.00122177)
(0.0637882 0.0060514 0.0031834)
(0.0709969 0.00164375 0.00451557)
(0.0853062 -0.00261999 0.0126598)
(0.0735582 -0.000554709 0.00840494)
(0.090358 -0.00767056 0.00465927)
(0.0898336 -0.0159545 0.011961)
(0.103946 -0.0205548 0.0105402)
(0.0982276 -0.0214758 -0.000190717)
(0.103538 -0.024548 -0.00546994)
(0.107164 -0.0270165 0.00462578)
(0.109875 -0.0351638 0.00413449)
(0.119521 -0.0377042 0.00987008)
(0.110582 -0.0347563 -0.00149945)
(0.111202 -0.0323969 0.00430733)
(0.128518 -0.0326768 -0.0196002)
(0.119981 -0.0445391 0.0100899)
(0.136645 -0.0437555 0.00149495)
(0.142882 -0.0482466 -0.0147)
(0.15184 -0.058695 -0.00539444)
(0.181231 -0.0404467 0.00802918)
(0.179069 -0.0206965 -0.0230013)
(0.222704 -0.0841862 -0.0150008)
(0.172809 0.000667032 -0.0675427)
(0.124892 -0.0798469 -0.0650439)
(0.0243579 0.182785 -0.0357328)
(0.209926 0.0385735 0.117815)
(0.0543219 0.0386927 0.0612064)
(-0.0114644 0.313968 0.0241289)
(0.110746 0.709475 0.199162)
(0.0368984 0.0050713 -0.000455782)
(0.0394093 0.00571712 -0.000959663)
(0.0420968 0.00531489 -0.00117904)
(0.0453462 0.00468193 -0.000887802)
(0.0474845 0.00513555 -0.00288825)
(0.0516761 0.00564697 -0.000139338)
(0.0528986 0.00492369 -0.00298007)
(0.0594257 0.00435001 -0.00129327)
(0.0618814 0.00723357 -3.06588e-06)
(0.0662033 0.00723365 -0.000861312)
(0.0759292 0.00192892 -0.000526285)
(0.0787422 0.00516065 0.00356724)
(0.0845216 0.00957709 0.00521295)
(0.0909463 0.000550529 -0.00146625)
(0.0959446 -0.00520751 0.000750549)
(0.10278 -0.00249122 0.00462628)
(0.105497 -0.00473727 0.00157939)
(0.103494 -0.00992384 -0.00326336)
(0.115195 -0.0136515 -0.00348302)
(0.106351 -0.0141821 -0.0021011)
(0.126089 -0.0195933 0.0093471)
(0.108525 -0.0102367 0.00357702)
(0.127522 -0.0206659 0.00177631)
(0.125196 -0.0388747 -0.00684304)
(0.129718 -0.0102083 -0.00717988)
(0.140581 -0.0290025 0.00786966)
(0.145578 -0.0247117 -0.014303)
(0.158993 -0.00100427 0.00608208)
(0.119053 0.0458398 0.000846288)
(0.159241 0.0433616 -0.0223729)
(0.0833156 0.142571 0.0684729)
(0.0735482 0.144789 0.0104041)
(0.0961592 0.214072 0.0204564)
(0.13549 -0.0894008 -0.0558372)
(0.199259 0.103529 -0.144776)
(0.174921 0.209936 -0.025639)
(-0.0218257 0.54474 -0.104631)
(-0.036518 1.03645 0.016213)
(0.0366223 0.0015207 -0.000356289)
(0.0393606 0.00364781 -0.00140936)
(0.0414483 0.00172675 -0.00055037)
(0.0448487 0.00198331 -0.00106831)
(0.0470824 0.00181103 -0.00209145)
(0.0509302 0.00245773 -0.000131849)
(0.0526906 0.000253517 -0.00195455)
(0.058938 5.02241e-05 -0.00239148)
(0.0604148 0.00279264 0.00194278)
(0.0666316 -0.00267283 -0.00334791)
(0.0765772 -0.00278515 -0.00195186)
(0.0720287 -0.00218283 0.00170612)
(0.0854183 -0.00124391 -0.00115853)
(0.0934538 -0.00687381 0.000848118)
(0.0904029 -0.0159982 -0.00216388)
(0.0981984 -0.0109185 -0.00293806)
(0.0989987 -0.0149823 0.00748835)
(0.102696 -0.0211699 -0.00480612)
(0.110894 -0.0247988 0.00595114)
(0.0973533 -0.0231345 -0.00867999)
(0.117583 -0.0196616 0.00102708)
(0.0956221 -0.0143804 -0.00511552)
(0.134103 -0.0313782 -0.000266713)
(0.0982415 -0.0325128 0.00630962)
(0.140561 -0.0345369 -0.00388725)
(0.123861 -0.0450067 -0.0149247)
(0.174287 -0.0441012 0.0171178)
(0.169107 -0.0316262 -0.0245931)
(0.231655 -0.0168435 -0.000622274)
(0.228423 -0.0193098 -0.0289678)
(0.219284 0.00699381 -0.0615499)
(0.12298 0.00207168 -0.0313939)
(0.213153 -0.0716483 -0.0148094)
(0.184166 -0.0917395 0.101809)
(0.0674909 0.0977206 -0.0160917)
(0.0180632 0.334296 -0.0291895)
(-0.106954 0.630075 -0.0601236)
(-0.160223 0.94024 -0.072303)
(0.0370916 0.00200686 -0.000378082)
(0.0388983 0.00444392 -0.00211139)
(0.0428331 0.00289137 -0.000768313)
(0.0437568 0.00291385 -0.00115571)
(0.0484785 0.00338712 -0.00264097)
(0.0500396 0.00385915 -0.000484954)
(0.0535309 0.00192185 -0.00157663)
(0.0562428 0.00178829 -0.00333421)
(0.0616349 0.00398898 0.0024774)
(0.0637494 -0.00528545 -0.00281943)
(0.074368 0.00344009 -0.000495449)
(0.0743439 7.89688e-05 0.000439559)
(0.0811096 -0.00326436 -0.00153285)
(0.0857964 0.000151817 7.58698e-05)
(0.087544 -0.00449188 -0.00168718)
(0.0854815 -0.0033666 0.000565563)
(0.0954699 -0.00935109 0.0021341)
(0.0908743 -0.0139027 0.00334524)
(0.0894606 -0.013481 -0.00116797)
(0.0854065 -0.0130588 -0.00690859)
(0.0844656 -0.0121206 0.000355738)
(0.0879612 -0.0149947 -0.00280099)
(0.0932688 -0.0205869 0.000463234)
(0.0827839 -0.0247699 -0.00378628)
(0.104226 -0.0334685 -0.00174746)
(0.096442 -0.0342234 -0.00769408)
(0.11601 -0.0436625 0.00242552)
(0.121487 -0.00975673 -0.00282091)
(0.111062 0.0194934 0.0116269)
(0.140164 0.132158 0.0410312)
(0.0189123 0.250215 0.0372294)
(0.0566447 0.238861 -0.0347991)
(0.0044301 0.200064 -0.071001)
(0.0349932 0.178684 -0.0678578)
(-0.0310078 0.394971 -0.0151781)
(-0.132524 0.679534 -0.075686)
(-0.146076 0.999406 -0.129157)
(-0.265229 1.35168 -0.143623)
(0.0377139 -0.000458205 0.000643408)
(0.037184 0.00252133 -0.0026402)
(0.0448077 0.000225686 0.000231389)
(0.0416473 0.000774799 -0.000856307)
(0.0499632 0.00102623 -0.00280317)
(0.0483152 0.000499126 0.000699795)
(0.0543436 0.000543305 -0.00158398)
(0.0542164 -0.00324085 -0.00201776)
(0.0627971 -0.001454 0.00371147)
(0.0621915 -0.0100862 -0.00384222)
(0.0726608 -0.00739345 -0.0013812)
(0.0655955 -0.00422075 -0.00647547)
(0.0694853 -0.00507427 -0.00859189)
(0.0767193 -0.00760445 -0.0010098)
(0.0742462 -0.0100508 -0.00101576)
(0.0719217 -0.0152107 0.00333569)
(0.0592067 -0.0178725 0.00240211)
(0.0480317 -0.0197067 -0.000498303)
(0.0433044 -0.0170283 -0.00556784)
(0.0454775 -0.0137557 -0.00692164)
(0.0483566 -0.0129488 -0.00430679)
(0.050715 -0.0144316 -0.00385043)
(0.0513627 -0.0192703 -0.00957629)
(0.0526999 -0.0266589 -0.00843117)
(0.0547406 -0.032859 -0.0172054)
(0.0812187 -0.0611196 0.00347145)
(0.0772183 -0.0687774 -0.00296757)
(0.103099 -0.0582312 -0.0119802)
(0.155597 -0.0355216 -0.000499766)
(0.150508 0.0202517 0.00621289)
(0.260606 0.0167037 0.0385197)
(0.221682 -0.0829119 0.0470073)
(0.372929 -0.239823 0.0626517)
(0.217881 -0.161171 0.093891)