/*--------------------------------*- C++ -*----------------------------------*\
| =========                 |                                                 |
| \\      /  F ield         | OpenFOAM: The Open Source CFD Toolbox           |
|  \\    /   O peration     | Version:  2.3.1                                 |
|   \\  /    A nd           | Web:      www.OpenFOAM.org                      |
|    \\/     M anipulation  |                                                 |
\*---------------------------------------------------------------------------*/
FoamFile
{
    version     2.0;
    format      ascii;
    class       volVectorField;
    location    "15";
    object      U_0;
}
// * * * * * * * * * * * * * * * * * * * * * * * * * * * * * * * * * * * * * //

dimensions      [0 1 -1 0 0 0 0];

internalField   nonuniform List<vector> 
38262
(
(-0.13023 -0.0203966 -0.00240253)
(-0.127449 0.0113257 -0.00686509)
(-0.127011 0.0501421 -0.0104374)
(-0.142128 0.0353179 -0.00659833)
(-0.129413 -0.0151562 -0.00564841)
(-0.103623 -0.0131817 -0.0114206)
(-0.105034 0.00945531 -0.013948)
(-0.109909 0.0168914 -0.0133593)
(-0.103499 0.0160259 -0.0118733)
(-0.0982561 0.00528843 -0.00677316)
(-0.0962122 -0.0241855 0.0030885)
(-0.106754 -0.0465858 0.00900619)
(-0.140008 -0.0321931 0.00196854)
(-0.135596 -0.0254656 0.00148048)
(-0.14264 -0.0182278 0.00852066)
(-0.176934 0.000147775 -0.000960767)
(-0.156717 -0.00548537 -0.00157641)
(-0.153426 -0.0199973 0.00686542)
(-0.153421 -0.0291567 0.00143467)
(-0.110925 -0.0383134 0.00434218)
(-0.10679 -0.0279815 0.00982219)
(-0.125384 -0.0143627 0.00863452)
(-0.135308 -0.0128512 0.0136976)
(-0.184872 -0.0384146 0.0139478)
(-0.146957 -0.0934851 0.0136152)
(-0.120495 -0.118817 0.0214342)
(-0.0801568 -0.133694 0.027213)
(-0.0712216 -0.138192 0.0255143)
(-0.00332459 -0.134297 0.020949)
(-0.0227196 -0.126239 0.0223839)
(0.029589 -0.126094 0.0179295)
(0.0163555 -0.124842 0.0239675)
(0.0353046 -0.162498 0.0298378)
(0.0651693 -0.131907 0.0539813)
(-0.100655 -0.0521758 -0.0472776)
(-0.153981 -0.18593 -0.10854)
(1.34467 -0.313396 -0.0377801)
(-2.40419 6.64581 -0.190009)
(-0.0511874 0.00507109 0.0134019)
(-0.132241 -0.00908427 0.0120269)
(-0.162299 -0.00427177 -0.00306154)
(-0.106414 0.00376868 -0.00574414)
(-0.0847603 0.0101573 -0.00209442)
(-0.0925874 0.0395269 -0.00568162)
(-0.0842108 0.0602368 -0.0161565)
(-0.0745305 0.05026 -0.0202892)
(-0.0610709 0.0405803 -0.0200935)
(-0.0313233 0.0429459 -0.0247021)
(0.00442663 0.044139 -0.0272451)
(0.0313906 0.0384863 -0.0204972)
(0.0380715 0.0309082 -0.0100892)
(0.0317216 0.0214339 -0.00697741)
(0.0414897 0.00911257 -0.00491181)
(0.0425651 -0.00180313 -0.000333468)
(0.0516244 -0.0119767 -0.00133802)
(0.0605869 -0.0205304 -0.00248537)
(0.0741406 -0.0262751 -0.00492123)
(0.0878661 -0.0309523 -0.00512104)
(0.100389 -0.0291991 -0.00384097)
(0.111897 -0.0220263 -0.00195181)
(0.131252 -0.0329699 -0.00218164)
(0.150527 -0.0411768 0.00111287)
(0.164476 -0.0491035 0.00680049)
(0.133288 -0.0627507 0.0170623)
(0.146495 -0.0804472 0.0134124)
(0.0788541 -0.085951 0.00838247)
(0.106402 -0.0781262 -0.0169527)
(0.128125 -0.0514368 -0.00331008)
(0.0936155 -0.0635945 -0.0215814)
(0.189967 -0.00561283 0.00132169)
(0.0803555 -0.0817486 -0.0235137)
(0.143567 0.0294103 0.111528)
(-0.402618 0.303156 0.142868)
(-1.14904 0.885167 -0.198472)
(-1.53907 1.95246 -0.641441)
(2.85785 -5.50256 -0.234452)
(0.00161854 0.0148203 -0.00394716)
(0.00372734 0.0183938 -0.00263898)
(-0.0074977 0.0104241 0.00440994)
(-0.0325868 -0.00646721 0.0128942)
(-0.0824794 -0.0180175 0.0134449)
(-0.123398 -0.00192896 0.00312959)
(-0.103237 0.0399582 -0.00866843)
(-0.0585764 0.0641047 -0.0222002)
(-0.0267824 0.0609189 -0.0256424)
(-0.0193211 0.0549685 -0.0164394)
(-0.00730422 0.0470335 -0.01465)
(0.019321 0.0298332 -0.0153508)
(0.0355045 0.0137408 -0.0136377)
(0.0528411 0.00403018 -0.0117259)
(0.062633 -0.00177658 -0.00900956)
(0.0704299 -0.0101429 -0.00843698)
(0.0763972 -0.0146691 -0.00736721)
(0.0782063 -0.0241367 -0.0054701)
(0.0739552 -0.0286894 -0.0051221)
(0.0763254 -0.0326462 -0.00600112)
(0.0770007 -0.0351835 -0.00445107)
(0.069573 -0.0304673 -0.000758221)
(0.071845 -0.0416996 -0.00357968)
(0.0611097 -0.0597036 0.000209312)
(0.0242445 -0.0928346 0.0152997)
(-0.0840763 -0.160744 0.00213191)
(-0.0701601 -0.174305 -0.0499919)
(-0.0873163 -0.153855 -0.0512996)
(0.00310852 -0.134465 -0.068177)
(-0.0163107 -0.123427 -0.0745453)
(0.1039 -0.139797 -0.0357103)
(0.0177956 -0.112762 -0.0526954)
(0.144693 -0.163904 -0.0274003)
(0.0798409 -0.0307603 -0.087441)
(0.06608 0.125305 0.214118)
(-0.226831 0.751475 -0.321192)
(1.57479 -1.59297 0.558875)
(-0.724937 2.1857 -1.32123)
(0.00417509 0.0237929 -0.00305902)
(0.0122184 0.0200177 -0.00279768)
(0.0208004 0.0172008 -0.000820104)
(0.0240815 0.018569 -0.00118626)
(0.020712 0.0185118 0.00165275)
(0.00667783 0.0158383 0.00836741)
(-0.02072 0.00473051 0.024673)
(-0.0722095 0.0238114 0.0138547)
(-0.0664256 0.0639443 -0.0186713)
(-0.0160785 0.0776746 -0.0317223)
(0.00859904 0.0747251 -0.0223419)
(0.024066 0.0682545 -0.0151156)
(0.0389425 0.0594869 -0.012682)
(0.047207 0.0499919 -0.0138191)
(0.0601322 0.038212 -0.0109815)
(0.0562468 0.0288009 -0.0096673)
(0.067532 0.0161536 -0.0104268)
(0.0695438 0.00853774 -0.00748831)
(0.0605062 0.00484265 -0.00392011)
(0.0806688 -0.00650606 -0.0163419)
(0.0776307 0.00756006 0.00105444)
(0.0805649 -0.00906895 -0.00969952)
(0.120336 -0.00750231 -0.000958292)
(0.108285 -0.00795116 -0.0306955)
(0.185737 0.0125293 -0.00161864)
(0.0931465 -0.00531381 -0.0329849)
(0.291427 0.0490784 -0.050923)
(0.112783 0.0202335 -0.0078916)
(0.317434 0.0575201 -0.0248931)
(0.121826 0.0548522 -0.0315016)
(0.337305 0.0688925 0.017935)
(0.112787 0.0716013 0.00373135)
(0.307345 0.0396697 -0.0226822)
(0.235665 0.198909 -0.0147018)
(0.120517 0.245359 0.0860321)
(0.265136 -0.450707 0.140051)
(-0.430101 0.92782 -0.501174)
(-0.604781 2.34398 -0.968376)
(0.00944616 0.016372 -0.000646789)
(0.0154861 0.0160875 -0.00147102)
(0.022848 0.0107871 -0.000581574)
(0.0224017 0.00990695 -0.000480171)
(0.0339104 -0.000787589 0.000572592)
(0.02929 0.00841421 0.00149972)
(0.0329412 0.0130964 0.00354447)
(0.0223524 0.0116043 0.0140833)
(-0.0221809 0.0197687 0.0211554)
(-0.0450263 0.0451875 0.00475851)
(-0.0281502 0.0681051 -0.0136884)
(-0.00461889 0.0677946 -0.0162727)
(0.0184435 0.0565715 -0.0138537)
(0.0289941 0.0502035 -0.010513)
(0.044395 0.0440904 -0.00751074)
(0.0450422 0.0320196 -0.00351568)
(0.0489602 0.0230716 -0.00483123)
(0.0547292 0.0219168 -0.00164765)
(0.0569636 -0.00831419 -0.00568741)
(0.0684442 0.0229937 0.00292134)
(0.0485504 -0.0228603 -0.0104898)
(0.0956628 -0.0185802 0.00113633)
(0.0511628 -0.0385208 -0.00197734)
(0.0905684 0.00044162 -0.000101104)
(0.0767888 -0.0559751 0.00930855)
(0.0827483 -0.0721041 -0.026623)
(0.116502 -0.0391559 0.0322346)
(0.0401377 -0.175155 -0.0204185)
(0.175107 0.00555461 -0.0221257)
(0.148709 -0.10526 0.0517312)
(-0.00579615 -0.228134 -0.0401476)
(0.140287 -0.019646 -0.0327889)
(0.129586 -0.187167 -0.0317527)
(0.170178 0.150889 0.0267135)
(0.13763 -0.0390111 -0.0362458)
(0.0974071 -0.277453 -0.0804736)
(-0.639515 0.869125 0.0510373)
(-0.709006 2.62303 -0.584993)
(0.0244886 0.0141959 0.00158116)
(0.0269551 0.0135899 0.000593632)
(0.0332012 0.0127996 0.000666653)
(0.0341595 0.00952147 -9.7887e-05)
(0.0452672 0.00941534 -0.000216254)
(0.0377556 0.0132587 0.00139674)
(0.0464572 0.0049112 2.95328e-05)
(0.0542835 0.0149066 0.00468947)
(0.0368287 0.0263552 0.00844157)
(0.0413476 0.0198919 0.0171579)
(0.0035362 0.0385303 0.0178938)
(-0.00200884 0.0446065 0.00834704)
(-0.00643511 0.0526027 0.00101825)
(-0.00628751 0.0483196 -0.00142139)
(0.00802065 0.0424165 -0.00261947)
(0.0127033 0.0329165 -0.00141783)
(0.020511 0.0229667 0.000513492)
(0.0347594 0.0073585 0.000924428)
(0.0514862 0.00552732 0.000143964)
(0.041366 -0.009059 -0.00218252)
(0.0951313 0.015844 -0.00769271)
(0.037357 -0.0128045 -0.00532469)
(0.112859 0.00880641 -0.00922203)
(0.0420402 -0.0288281 0.0106665)
(0.130915 -0.0324364 -0.0250089)
(0.132212 0.063963 -0.00471743)
(0.0763567 -0.0688391 -0.020243)
(0.216355 0.0408421 -0.0389879)
(0.100439 0.0643975 -0.00917359)
(0.151772 -0.024921 0.0105277)
(0.080026 0.203996 -0.0747412)
(0.101043 0.0425184 0.0180665)
(0.0135 0.181852 -0.0152832)
(0.072483 0.0298659 0.101053)
(0.13986 0.378762 -0.162166)
(0.170451 0.245824 -0.12651)
(-0.389704 0.881124 0.147903)
(-0.500603 2.74637 -0.0848509)
(0.0327677 0.00406593 0.00103563)
(0.0350127 0.00648234 0.000548281)
(0.0397377 0.00309952 0.000485414)
(0.0383674 0.00273082 0.000321574)
(0.0471622 0.000895948 -0.000513236)
(0.0442639 0.00346266 0.000839759)
(0.0520305 -0.000737114 -0.000909887)
(0.0493871 0.00341371 0.00122131)
(0.0612181 0.00766566 0.00153518)
(0.0567792 0.00852141 0.00351671)
(0.0592937 0.0121054 0.00858957)
(0.0693704 0.0121976 0.0118444)
(0.0384729 0.0242016 0.00866644)
(0.0609338 0.0101231 0.0083492)
(0.057179 0.00669871 0.0109503)
(0.0577787 0.00716034 0.0056402)
(0.0544441 -0.00435842 -0.00253055)
(0.079906 -0.0153666 0.00230649)
(0.0812203 -0.0240357 0.0109114)
(0.0639981 -0.0170682 0.00757773)
(0.0720694 -0.00539918 0.00357325)
(0.0634788 -0.0131966 -0.00685413)
(0.076683 0.00150744 0.00123801)
(0.0873547 -0.0372396 -0.0256182)
(0.133281 -0.030706 0.0159344)
(0.00534654 -0.0127534 -0.00121455)
(0.220961 -0.022671 -0.0159066)
(0.0250221 -0.0658032 -0.00123053)
(0.276049 0.0490865 0.0200068)
(0.0283574 -0.126405 -0.0104713)
(0.239631 0.0585959 -0.0083463)
(0.169244 -0.0846982 -0.060201)
(0.225006 -0.0228988 -0.0524837)
(0.179997 -0.363581 -0.0898351)
(0.0402922 0.171148 0.0154648)
(0.00853606 0.361037 -0.0483132)
(-0.263922 0.825005 0.112883)
(-0.265337 2.18523 0.159733)
(0.0358298 0.00597228 0.000154487)
(0.0370844 0.00604596 -3.85272e-05)
(0.0410521 0.00815884 -0.000264272)
(0.0428696 0.00298687 0.000278433)
(0.045296 0.00709853 -0.00172013)
(0.0524603 0.00652734 0.00122989)
(0.0442183 0.00656153 -0.00206109)
(0.0645064 0.00130902 0.000139056)
(0.0539793 0.0136377 0.000691451)
(0.0638689 0.00901899 -0.000321254)
(0.0728546 0.00194768 0.00048555)
(0.0830438 0.00875967 0.00405826)
(0.06941 0.0239017 0.0065135)
(0.0826383 0.00343972 0.000321433)
(0.0961544 -0.00573556 0.00325217)
(0.102113 0.00184556 0.00816619)
(0.0831241 0.010609 0.00202723)
(0.101609 -0.0124652 -0.000390499)
(0.100782 -0.0120814 -0.00432037)
(0.120707 -0.025524 0.00514666)
(0.110107 -0.0100441 0.0124299)
(0.0707591 -0.00486453 0.00487129)
(0.0929189 -0.0212993 0.00089589)
(0.09322 0.00197815 -0.0132236)
(0.121089 -0.0194369 0.000856331)
(0.104364 -0.00891694 0.0066238)
(0.1265 -0.0237852 -0.00956822)
(0.151826 0.00946245 0.00873097)
(0.0702765 0.0317614 0.00217888)
(0.181958 0.0880544 -0.0196472)
(0.0777056 0.183656 0.0455895)
(-0.0650138 0.318586 0.00326271)
(0.0702318 0.441522 0.0104561)
(0.0135546 0.416192 -0.242614)
(0.17433 0.226616 -0.0368402)
(0.0132042 0.541604 -0.0755985)
(-0.114256 1.00182 -0.0591681)
(-0.0667378 1.79912 0.0561395)
(0.0339627 5.45654e-05 0.000144881)
(0.0389459 0.00451651 -0.0006793)
(0.0390657 0.00107862 0.000271857)
(0.0428005 0.000422377 -0.000446693)
(0.0454352 0.00249438 -0.000807982)
(0.0492645 0.00189452 0.000458744)
(0.0476889 -0.000594393 -0.000892432)
(0.0604894 -0.00383238 -0.00113117)
(0.0527348 0.00827674 0.00248601)
(0.0639453 -0.00677092 -0.00302194)
(0.0794769 -0.00513796 -0.000739859)
(0.0612114 1.87973e-05 0.0021071)
(0.0828836 0.00202457 0.000377474)
(0.0934059 -0.00852344 0.00138177)
(0.076545 -0.0220457 -0.00170507)
(0.105079 -0.00688261 -0.000518823)
(0.0868753 -0.00923107 0.00579494)
(0.103805 -0.0241965 -0.00266558)
(0.102648 -0.023995 0.00320113)
(0.0836193 -0.0349099 -0.00746458)
(0.121019 -0.00682746 0.00301062)
(0.0716311 -0.0111622 -0.00206319)
(0.142347 -0.0257374 0.00221308)
(0.0670988 -0.0191064 0.00896066)
(0.136407 -0.0299263 -0.00845054)
(0.12139 -0.056804 -0.00895307)
(0.195253 -0.0201703 0.013997)
(0.113937 -0.0691708 -0.0166103)
(0.29226 0.00202091 0.00187702)
(0.134729 -0.0686775 -0.0138089)
(0.328377 -0.0230101 -0.0503103)
(0.219887 -0.141353 -0.00712303)
(0.249348 -0.213295 0.0418961)
(0.138191 0.167091 0.0101561)
(0.0346545 0.40149 -0.0227544)
(-0.0635648 0.697659 -0.018466)
(-0.260712 1.19319 -0.078615)
(-0.109132 1.86068 -0.0752084)
(0.0349033 0.000755848 0.000213756)
(0.036762 0.00579986 -0.00117997)
(0.0436733 0.00423298 1.08067e-05)
(0.0382861 0.000638075 -0.000423303)
(0.0490171 0.00605651 -0.00117024)
(0.0473533 0.00378772 -0.000123907)
(0.0514463 0.00198856 -0.000137989)
(0.052153 0.00366987 -0.00210325)
(0.0604054 0.000790733 0.0022904)
(0.0583588 -0.00225442 -0.00135974)
(0.0751493 0.0109844 0.000230615)
(0.0658371 -0.00395556 0.00144694)
(0.0790512 -0.00271991 3.99287e-05)
(0.0814132 0.00321396 0.00103415)
(0.0795438 -0.00672828 -0.000358636)
(0.0792396 -0.0010198 0.00110857)
(0.090339 -0.0152223 0.00187762)
(0.0824112 -0.0111217 0.00211633)
(0.0749262 -0.0148848 -0.000900214)
(0.0824748 -0.00802126 -0.00524565)
(0.0814401 -0.00876368 0.00287089)
(0.0855194 -0.00828208 -0.00189585)
(0.0990344 -0.0212909 0.00210409)
(0.0764269 -0.0241709 -9.92799e-05)
(0.114691 -0.0378296 0.00312054)
(0.0735848 -0.0124274 -0.00678945)
(0.132625 -0.0698195 0.00559773)
(0.0856626 0.0245417 -0.00586629)
(0.126516 0.014326 0.0078369)
(0.0460226 0.186171 0.0318297)
(-0.18343 0.424099 -0.0082143)
(-0.237997 0.504497 -0.0995656)
(-0.160185 0.469444 -0.12819)
(-0.0489536 0.365015 -0.0312119)
(-0.151875 0.640334 -0.0318231)
(-0.219323 1.02274 -0.0429706)
(-0.301047 1.46471 -0.123152)
(-0.226932 2.03462 -0.157424)
(0.0358234 -0.0028413 0.000596199)
(0.0329903 0.00409359 -0.00139187)
(0.0462966 0.000713938 0.000507797)
(0.036007 -0.000540814 -0.000437173)
(0.0482633 0.00176504 -0.00127757)
(0.0478048 0.00132031 0.000777885)
(0.0485743 -0.00123197 -0.00111965)
(0.0555626 -0.00134117 -1.64971e-05)
(0.0553503 -0.00783858 0.00328277)
(0.0562455 -0.0131265 -0.00535143)
(0.0694286 -0.0104194 -0.00154567)
(0.0586544 -0.00796715 -0.00383462)
(0.0707594 -0.0086255 -0.00298007)
(0.0727899 -0.012302 0.000609122)
(0.0640794 -0.0156399 -0.00051914)
(0.0598375 -0.0206128 0.00215004)
(0.0377206 -0.0206837 0.000489107)
(0.0328045 -0.0202175 -0.000640466)
(0.0302422 -0.0190183 -0.0027104)
(0.0319021 -0.0156085 -0.00202925)
(0.0387574 -0.0167663 -0.00201859)
(0.0404355 -0.0169153 -0.00113321)
(0.04459 -0.0234717 -0.00624441)
(0.0520654 -0.0270875 -0.00502483)
(0.0474883 -0.0343506 -0.00938711)
(0.0972832 -0.0555131 0.00263817)
(0.0759085 -0.0692706 -0.0062472)
(0.123637 -0.0541443 -0.00259426)
(0.183333 -0.028401 -0.00758117)
(0.190703 0.00641695 0.0131687)
(0.2179 0.0669878 0.0379246)
(0.159267 0.0283957 0.0445186)
(0.184858 -0.00104906 0.031523)
(0.09762 0.223143 -0.0363701)
(0.00711148 0.422136 0.0292656)
(-0.17099 0.780059 0.0334961)
(-0.205201 1.40479 -0.0355742)
(-0.28272 1.74699 -0.0585113)
(0.0278952 -0.00144174 -0.000515162)
(0.0363488 0.00498506 -0.000685763)
(0.0447972 -0.00095419 0.000295402)
(0.0336792 0.00224468 0.00055464)
(0.0458342 0.00262432 -0.00281034)
(0.0526139 0.000454429 0.00357262)
(0.0318794 0.00129832 -0.00439726)
(0.0691077 0.00105557 0.00431551)
(0.0207092 -0.0137429 0.00645984)
(-0.0072979 0.00631493 -0.00786235)
(0.0165745 0.0149927 0.00123671)
(-0.00198378 0.0126266 0.00735945)
(0.00801629 0.00815965 -0.000920155)
(0.00768428 0.00973391 -0.0040092)
(0.0153363 0.00969063 -0.00244438)
(0.0163919 0.0101354 -0.00018491)
(0.0107266 0.00275341 -0.00341685)
(0.0158204 -0.00132709 -0.00473483)
(0.013028 0.00336553 -0.00314556)
(0.0231341 0.000736314 0.00395309)
(-0.0203803 -0.00555431 0.00274235)
(-0.0218982 -0.0023607 -0.0107653)
(0.00950863 0.00118554 -0.00886754)
(0.00281984 -0.000135001 0.00323154)
(-0.0247676 -0.0170935 -0.00416376)
(-0.0360906 -0.0460117 0.00441194)
(-0.197309 -0.044271 0.0105292)
(-0.250584 -0.0415456 0.0158736)
(-0.509163 -0.00999338 0.0333386)
(-0.646674 0.218062 0.0403139)
(-0.555874 0.367623 0.0507175)
(-0.582497 0.355138 0.0561628)
(-0.704242 0.395615 0.08008)
(-0.875819 0.57929 0.124021)
(-1.0377 0.831495 0.177186)
(-1.16525 1.21743 0.202017)
(-1.01475 1.84713 0.242861)
(-0.657709 2.38336 0.239171)
(-0.0938084 -0.0403213 0.00802134)
(-0.0879389 -0.0274606 0.00346891)
(-0.0917443 0.00686025 -0.00658135)
(-0.0982862 0.0257961 -0.0124187)
(-0.0891191 0.00853442 -0.0115887)
(-0.0716945 -0.00814987 -0.0138273)
(-0.0608259 -0.00713622 -0.0189363)
(-0.05487 0.00100562 -0.0222739)
(-0.061316 0.0177143 -0.0217723)
(-0.0840219 0.0346717 -0.0221361)
(-0.0994737 0.0178612 -0.0114896)
(-0.100338 -0.0304604 0.0160234)
(-0.117328 -0.0312395 0.0110002)
(-0.132814 -0.0172967 0.00129948)
(-0.128375 -0.0157626 0.0161966)
(-0.149547 -0.00480468 0.00679395)
(-0.155515 -0.00432062 0.000688618)
(-0.150033 -0.0157027 0.012522)
(-0.146887 -0.0250379 0.00574753)
(-0.12331 -0.0290072 0.0108132)
(-0.117898 -0.0187907 0.0221722)
(-0.141483 -0.00583982 0.0242684)
(-0.162666 -0.00779635 0.0333647)
(-0.199325 -0.0350577 0.0308516)
(-0.167042 -0.0769177 0.0292122)
(-0.142369 -0.0926196 0.039033)
(-0.104479 -0.100372 0.0522137)
(-0.070921 -0.103477 0.0499788)
(-0.0258025 -0.097808 0.0550755)
(-0.0243 -0.0937447 0.0498799)
(0.0144295 -0.0925937 0.0531146)
(0.00709963 -0.0993434 0.0457564)
(0.0515039 -0.127242 0.0649603)
(0.143548 -0.161614 0.0702536)
(0.33186 -0.0185531 0.0176457)
(0.270045 -0.465465 -0.895207)
(0.270353 0.0846002 0.0287283)
(1.90874 -3.10329 -1.13896)
(-0.0215477 0.00964624 0.0143021)
(-0.0520269 -0.00314566 0.0308585)
(-0.0945984 -0.0160762 0.0134283)
(-0.0827998 -0.0208144 -0.0059097)
(-0.0592398 -0.0171881 -0.00386324)
(-0.0488287 -0.00327814 -0.000748268)
(-0.0413994 0.011498 -0.0072494)
(-0.0273287 0.0164872 -0.0154095)
(-0.00979592 0.0217808 -0.0220351)
(0.00560277 0.0307883 -0.0290818)
(0.0216085 0.0372798 -0.0376787)
(0.0374307 0.0319484 -0.0323404)
(0.0350296 0.0240008 -0.0133446)
(0.0277937 0.0151358 -0.0110309)
(0.0348682 0.00454865 -0.00858996)
(0.0382707 -0.00552407 -0.000616897)
(0.0435606 -0.0141006 -0.00170717)
(0.0507728 -0.0214873 -0.0032527)
(0.0600613 -0.0272502 -0.00610914)
(0.0665653 -0.0305149 -0.00745351)
(0.077629 -0.0279774 -0.00497176)
(0.0875445 -0.0237732 -0.00211154)
(0.106132 -0.0283921 0.000792981)
(0.116712 -0.035146 0.0040146)
(0.133593 -0.0466259 0.00865075)
(0.139669 -0.0412247 0.0134867)
(0.151075 -0.0353987 0.0266871)
(0.162333 -0.0280698 0.0169978)
(0.143887 -0.0252501 -0.00530343)
(0.179622 -0.00778121 0.00880052)
(0.125227 -0.0106139 -0.0139356)
(0.195779 0.0394255 0.00525819)
(0.113234 -0.0562018 0.00463265)
(0.136924 0.103917 0.0383748)
(0.505474 -0.138632 0.186064)
(-0.131469 1.10319 0.177642)
(0.728106 -1.43662 -0.422248)
(1.28297 -0.0708007 0.862619)
(0.013235 0.00778131 -0.00818312)
(0.0173128 0.011913 -0.00698365)
(0.0145155 0.00330807 -9.94216e-05)
(0.0118989 -0.00920429 0.011618)
(0.00160642 -0.0179577 0.0213335)
(-0.0143038 -0.0266007 0.0180954)
(-0.0181525 -0.0365076 0.00987438)
(-0.00647477 -0.0350408 0.00249655)
(-0.00164628 -0.0132504 -0.00565034)
(0.00977629 0.0100808 -0.0130064)
(0.0327788 0.0158696 -0.0217301)
(0.0487691 0.00367345 -0.023596)
(0.0613526 -0.0057064 -0.019186)
(0.0698659 -0.00814249 -0.0165385)
(0.0793185 -0.0129167 -0.0140479)
(0.0850546 -0.0181695 -0.0126454)
(0.0911 -0.0229285 -0.011512)
(0.0936709 -0.0292491 -0.00963171)
(0.0974805 -0.036365 -0.0105158)
(0.101237 -0.0370908 -0.0106744)
(0.1091 -0.0388322 -0.011256)
(0.107959 -0.0342111 -0.00633909)
(0.122539 -0.0427299 -0.007498)
(0.118729 -0.0533615 -0.00430686)
(0.122282 -0.0728211 0.0113847)
(0.123528 -0.0821412 0.00309492)
(0.104628 -0.0931565 -0.0129613)
(0.164708 -0.0836154 -0.030602)
(0.119392 -0.0991947 -0.0394947)
(0.172719 -0.0635607 -0.0236518)
(0.112641 -0.106103 -0.0405344)
(0.228329 -0.0486844 -0.00793959)
(0.0319341 -0.139616 -0.0490627)
(0.31893 -0.0169869 0.0400479)
(-0.0756879 0.188891 -0.0821801)
(0.727625 -0.21472 0.261396)
(0.095058 0.141357 0.0501191)
(0.663681 -2.1671 -0.702359)
(0.0178737 0.0141731 -0.00444713)
(0.0239769 0.012411 -0.00491528)
(0.0311219 0.00942101 -0.00356756)
(0.0371587 0.00966494 -0.00490381)
(0.0358548 0.00997394 -0.00193766)
(0.0373923 0.00647065 0.00262467)
(0.0384275 -0.00263154 0.0194538)
(0.0370895 -0.0105758 0.0305834)
(0.0281179 -0.00993932 0.0187313)
(0.0192381 -0.00674985 0.00450941)
(0.0217363 0.0113708 -0.00676026)
(0.0405523 0.0180197 -0.0156803)
(0.0567866 0.0164123 -0.017931)
(0.0650789 0.0123352 -0.0189888)
(0.0731165 0.00711329 -0.0176279)
(0.078216 -6.41234e-05 -0.0155688)
(0.0850498 -0.00838937 -0.0153975)
(0.0886235 -0.0134274 -0.0139901)
(0.0939808 -0.0160678 -0.0102251)
(0.10365 -0.0262182 -0.0192175)
(0.103067 -0.0155152 -0.00874378)
(0.118593 -0.0207316 -0.014267)
(0.129814 -0.0279265 -0.00989875)
(0.15668 -0.0271684 -0.0291996)
(0.118913 -0.040629 -0.00249551)
(0.205369 -0.00634689 -0.0541165)
(0.105247 -0.0743809 -0.0270799)
(0.157034 -0.042319 -0.00905083)
(0.110014 -0.0376376 -0.0490335)
(0.0864887 -0.075503 0.00146965)
(0.157387 0.00992996 0.0238184)
(0.150104 0.0241518 -0.0464792)
(0.142551 -0.0148811 -0.0321755)
(0.150881 0.0969802 0.0260265)
(0.256726 0.014682 0.00685735)
(0.309773 0.0464289 0.466316)
(0.956894 -0.41457 -0.241657)
(0.240214 0.482837 0.341137)
(0.0242534 0.00462218 0.00101982)
(0.0282818 0.00560025 -0.0012446)
(0.0328106 0.00381819 -0.00108678)
(0.03516 0.00159993 -0.00111348)
(0.0408195 -0.0020242 -3.3091e-05)
(0.0434743 -0.00149476 0.00119127)
(0.0448424 0.00376768 0.00131556)
(0.0501292 -0.00255671 0.0115183)
(0.0413765 -0.00924767 0.0227248)
(0.0489277 -0.0171614 0.0246111)
(0.0338539 -0.0120021 0.016068)
(0.0360454 -0.012782 0.00643552)
(0.0369608 -0.00830921 0.000297614)
(0.0441667 -0.00540708 -0.00172837)
(0.0512279 -0.00523342 -0.00313544)
(0.0590456 -0.00735504 -0.0011796)
(0.0654484 -0.0142553 -0.00290719)
(0.0664995 -0.0121113 -0.00091475)
(0.0869552 -0.0272175 -0.00228948)
(0.07793 -0.0208459 0.00276413)
(0.0992214 -0.0243461 -0.00733484)
(0.103949 -0.0300805 -0.00225671)
(0.105474 -0.0419999 -0.00539875)
(0.109082 -0.0394786 -0.00193319)
(0.109334 -0.0549623 0.00917489)
(0.113383 -0.0619911 -0.02901)
(0.149804 -0.0554706 0.0376131)
(0.10536 -0.0700908 -0.00571394)
(0.152014 -0.0298066 -0.03072)
(0.152792 -0.0922272 0.0688754)
(0.133328 -0.0875402 -0.016713)
(0.173864 -0.0145041 -0.0161703)
(0.120613 -0.0740309 -0.0355236)
(0.185109 -0.0987848 0.028997)
(0.0749476 0.157326 -0.0406159)
(0.242036 -0.148822 0.0734318)
(0.112513 -0.0962936 0.181007)
(0.209909 -0.0312895 0.341763)
(0.0333309 0.00774235 0.00220706)
(0.036066 0.00736537 0.000688234)
(0.0402034 0.0070339 0.000214247)
(0.043008 0.00605245 -0.000912562)
(0.0475289 0.00658176 -0.0016751)
(0.0474898 0.00761317 0.000109566)
(0.0523294 0.00519955 -0.000846767)
(0.0566753 0.00906257 0.00390103)
(0.0578396 0.0127154 0.00501664)
(0.0657275 0.00616303 0.0128162)
(0.0585876 0.0022431 0.0254194)
(0.0674814 -0.00160264 0.0225459)
(0.0552513 0.00200582 0.0171551)
(0.0561394 -0.000607042 0.0153701)
(0.0519826 -0.00330702 0.0136065)
(0.0619631 -0.00565131 0.00844092)
(0.0584972 -0.00443208 0.00402334)
(0.0760887 -0.0176969 0.00266632)
(0.0851226 -0.0251242 0.00537725)
(0.0896359 -0.0249347 0.00223508)
(0.108321 -0.0345151 0.00137433)
(0.105522 -0.0189899 -0.00424646)
(0.118316 -0.0237718 -0.0114039)
(0.11071 -0.0183646 0.000623776)
(0.146179 -0.0257908 -0.0233574)
(0.119052 -0.0442485 -0.00199543)
(0.163684 -0.00686259 -0.0239326)
(0.132471 -0.021346 -0.0353522)
(0.140776 -0.0321577 0.00776258)
(0.139723 0.0456571 -0.00922181)
(0.155243 0.0115513 -0.0554873)
(0.0906668 0.02082 0.027582)
(0.196554 0.0210672 -0.0581738)
(0.114584 0.1417 0.0863343)
(0.200474 0.0485445 0.0454859)
(0.15313 -0.144914 -0.0179579)
(0.179064 0.0944234 0.122284)
(0.226391 0.629258 0.24861)
(0.0359732 0.00321516 0.000716778)
(0.0384567 0.00373856 -7.80121e-05)
(0.0415484 0.00283788 -0.000202443)
(0.0434322 0.00159557 -0.000558789)
(0.0474483 0.00191476 -0.00147493)
(0.0490632 0.00155074 -0.000132225)
(0.0539025 0.00179402 -0.00172155)
(0.0546157 0.00263577 0.000359296)
(0.0639922 0.00282978 0.00121912)
(0.0637625 0.00605312 0.00317835)
(0.0710236 0.00164681 0.00451381)
(0.0852809 -0.00256561 0.0126528)
(0.0735583 -0.000502739 0.00837946)
(0.0903939 -0.00765589 0.004678)
(0.0898727 -0.0159428 0.011991)
(0.10397 -0.0205259 0.0105215)
(0.0981973 -0.0214231 -0.000220763)
(0.103561 -0.0245147 -0.00544102)
(0.107177 -0.0270049 0.0046795)
(0.109918 -0.0351667 0.00416994)
(0.11952 -0.0376647 0.00986489)
(0.110501 -0.0346691 -0.00151303)
(0.111242 -0.0323377 0.0042565)
(0.12845 -0.0326468 -0.0196107)
(0.119892 -0.0445591 0.0101779)
(0.136609 -0.0438209 0.00144076)
(0.142737 -0.0484742 -0.0147318)
(0.151699 -0.0589581 -0.00529191)
(0.180975 -0.0407534 0.00803503)
(0.179158 -0.0215247 -0.0230551)
(0.223027 -0.0846027 -0.0149036)
(0.173029 0.000143953 -0.0677402)
(0.125697 -0.0803254 -0.0651733)
(0.0259754 0.181051 -0.0366178)
(0.213901 0.0359291 0.116601)
(0.0579508 0.0378629 0.0571787)
(-0.0103859 0.317465 0.00954103)
(0.105451 0.705664 0.180579)
(0.0368963 0.00507139 -0.000455889)
(0.0394058 0.00571828 -0.00095997)
(0.0420934 0.00531434 -0.00117771)
(0.0453416 0.00468217 -0.000889242)
(0.0474805 0.00513784 -0.00288646)
(0.0516688 0.00564689 -0.000138713)
(0.052891 0.00492253 -0.00298297)
(0.0594191 0.00435536 -0.00128818)
(0.0618649 0.00724413 -4.93455e-06)
(0.0662021 0.00723126 -0.000869437)
(0.0759246 0.00193525 -0.000522946)
(0.0787207 0.00520617 0.00357587)
(0.0845322 0.00959187 0.00519759)
(0.0909554 0.000545499 -0.00147609)
(0.0959708 -0.00516974 0.000774171)
(0.1028 -0.00243053 0.00463965)
(0.105495 -0.00470139 0.00155918)
(0.103528 -0.00989894 -0.00327416)
(0.115211 -0.0136116 -0.00347742)
(0.106399 -0.0141511 -0.00204034)
(0.126103 -0.0195209 0.00938515)
(0.108518 -0.0101659 0.00357218)
(0.127534 -0.0206987 0.00175852)
(0.125153 -0.0387484 -0.0069021)
(0.129639 -0.0101377 -0.00709683)
(0.140533 -0.0291616 0.00784321)
(0.145452 -0.0248646 -0.0143532)
(0.158758 -0.00132396 0.00619511)
(0.11903 0.0449958 0.000737372)
(0.159267 0.0424245 -0.0222559)
(0.0831936 0.141614 0.0682449)
(0.0735524 0.143838 0.0105389)
(0.096677 0.211731 0.0204841)
(0.13648 -0.0915712 -0.0571402)
(0.201969 0.101456 -0.146693)
(0.1772 0.208551 -0.0279421)
(-0.0179403 0.547628 -0.113469)
(-0.0520322 1.041 -0.0100322)
(0.0366199 0.00152136 -0.000356432)
(0.0393568 0.00364855 -0.00140908)
(0.0414446 0.00172489 -0.000548686)
(0.0448439 0.00198396 -0.00106992)
(0.047077 0.00181295 -0.00208883)
(0.0509218 0.00245489 -0.000130481)
(0.0526839 0.000248904 -0.00195825)
(0.05893 5.8082e-05 -0.0023831)
(0.0604034 0.0027897 0.00194136)
(0.066637 -0.00268066 -0.00335825)
(0.0765608 -0.00277445 -0.00193834)
(0.0720204 -0.00216193 0.00170781)
(0.0854563 -0.00123343 -0.00116337)
(0.0934478 -0.00688546 0.000845668)
(0.0903992 -0.0159804 -0.00217506)
(0.0982265 -0.0108702 -0.0029024)
(0.0990188 -0.0149719 0.0074888)
(0.102749 -0.0211599 -0.00481601)
(0.110902 -0.0247624 0.00594147)
(0.0973835 -0.0230735 -0.00869489)
(0.117617 -0.0195719 0.00105982)
(0.0956799 -0.0143297 -0.00510818)
(0.134123 -0.0313539 -0.00019709)
(0.0982302 -0.0324293 0.00631166)
(0.140499 -0.0344587 -0.00397582)
(0.123645 -0.0450166 -0.0147816)
(0.173803 -0.0441087 0.0170889)
(0.168411 -0.0317977 -0.0246245)
(0.231362 -0.017211 -0.000577926)
(0.228059 -0.0197585 -0.028775)
(0.219407 0.00665327 -0.0611467)
(0.12341 0.00100489 -0.0311816)
(0.211889 -0.0736034 -0.014409)
(0.181154 -0.093738 0.102735)
(0.065153 0.0993293 -0.0157454)
(0.0159196 0.338613 -0.030329)
(-0.105363 0.640422 -0.0634157)
(-0.176251 0.950543 -0.0867238)
(0.0370886 0.00200739 -0.000378139)
(0.0388955 0.00444507 -0.00211149)
(0.0428288 0.00288906 -0.000765854)
(0.0437516 0.00291418 -0.00115774)
(0.0484748 0.00338992 -0.00263874)
(0.0500311 0.00385679 -0.000482169)
(0.0535231 0.00191917 -0.00158129)
(0.0562362 0.00179768 -0.00332642)
(0.061625 0.0039789 0.00247799)
(0.0637476 -0.00528364 -0.00282431)
(0.0743631 0.00346082 -0.000485053)
(0.0743376 6.82675e-05 0.000438489)
(0.0811243 -0.00324756 -0.00153281)
(0.0858006 0.000170391 7.55232e-05)
(0.0875353 -0.0044789 -0.00168635)
(0.0855091 -0.00334465 0.000575918)
(0.0955087 -0.00934664 0.00214529)
(0.0908909 -0.0138812 0.00333613)
(0.0894993 -0.013446 -0.00119403)
(0.0854415 -0.0130058 -0.00690084)
(0.0845355 -0.0120682 0.000385195)
(0.0880358 -0.0149428 -0.00279561)
(0.0933169 -0.020525 0.000486517)
(0.0827905 -0.024665 -0.00376158)
(0.104224 -0.0333244 -0.00171522)
(0.0961912 -0.0340555 -0.00770461)
(0.115832 -0.0435984 0.00246007)
(0.121195 -0.0101152 -0.00283246)
(0.110599 0.017918 0.0115094)
(0.139696 0.130239 0.0408202)
(0.0190241 0.249416 0.0378663)
(0.0557162 0.239469 -0.0340629)
(0.00239794 0.199179 -0.0705175)
(0.0338218 0.174156 -0.068068)
(-0.0318232 0.387526 -0.0138482)
(-0.133508 0.670788 -0.0748608)
(-0.139546 0.995959 -0.129188)
(-0.269763 1.34627 -0.149812)
(0.0377084 -0.000457049 0.000642576)
(0.0371828 0.00252275 -0.0026402)
(0.0448032 0.000223142 0.00023542)
(0.0416408 0.000775853 -0.000860657)
(0.0499607 0.00102667 -0.0027993)
(0.0483051 0.000498586 0.000701879)
(0.0543362 0.000537047 -0.00158787)
(0.0542113 -0.00323636 -0.00200881)
(0.0627877 -0.00146715 0.00370864)
(0.062188 -0.0100941 -0.00384175)
(0.0726558 -0.0073817 -0.00138102)
(0.0655706 -0.00422472 -0.00649541)
(0.0695013 -0.00507499 -0.00858033)
(0.0767246 -0.00760377 -0.000994243)
(0.0742357 -0.0100589 -0.00101034)
(0.0719003 -0.0152159 0.00334021)
(0.0591788 -0.0178703 0.00239577)
(0.0480268 -0.0196906 -0.000506125)
(0.0433325 -0.0169969 -0.0055725)
(0.0455205 -0.0137192 -0.00691655)
(0.0484256 -0.0129163 -0.00429343)
(0.0507883 -0.0143915 -0.0038426)
(0.0514415 -0.0192034 -0.00955958)
(0.0527325 -0.0265357 -0.0084173)
(0.0546925 -0.0326427 -0.0171299)
(0.0810288 -0.0608045 0.00348225)
(0.0767152 -0.068428 -0.00293487)
(0.101774 -0.0581431 -0.0119811)
(0.155083 -0.0362929 -0.000559206)
(0.150286 0.0195658 0.00620439)
(0.261055 0.0172517 0.0385521)
(0.21964 -0.083072 0.0481937)
(0.368268 -0.240978 0.0653714)
(0.206685 -0.159909 0.0960793)
(0.0318909 0.159876 0.090523)