/*--------------------------------*- C++ -*----------------------------------*\
| =========                 |                                                 |
| \\      /  F ield         | OpenFOAM: The Open Source CFD Toolbox           |
|  \\    /   O peration     | Version:  2.3.1                                 |
|   \\  /    A nd           | Web:      www.OpenFOAM.org                      |
|    \\/     M anipulation  |                                                 |
\*---------------------------------------------------------------------------*/
FoamFile
{
    version     2.0;
    format      ascii;
    class       volVectorField;
    location    "0";
    object      U;
}
// * * * * * * * * * * * * * * * * * * * * * * * * * * * * * * * * * * * * * //

dimensions      [0 1 -1 0 0 0 0];

internalField   uniform (0 0 0);

boundaryField
{
    top
    {
        type            symmetryPlane;
    }
    inlet
    {
        type            fixedValue;
        value           nonuniform 0();
    }
    outlet
    {
        type            fixedValue;
        value           nonuniform 0();
    }
    outletConnectMaster
    {
        type            fixedValue;
        value           nonuniform 0();
    }
    walls
    {
        type            fixedValue;
        value           uniform (0 0 0);
    }
    procBoundary5to4
    {
        type            processor;
        value           uniform (0 0 0);
    }
    procBoundary5to7
    {
        type            processor;
        value           uniform (0 0 0);
    }
}


// ************************************************************************* //
