/*--------------------------------*- C++ -*----------------------------------*\
| =========                 |                                                 |
| \\      /  F ield         | OpenFOAM: The Open Source CFD Toolbox           |
|  \\    /   O peration     | Version:  2.3.1                                 |
|   \\  /    A nd           | Web:      www.OpenFOAM.org                      |
|    \\/     M anipulation  |                                                 |
\*---------------------------------------------------------------------------*/
FoamFile
{
    version     2.0;
    format      ascii;
    class       volScalarField;
    location    "5";
    object      epsilon;
}
// * * * * * * * * * * * * * * * * * * * * * * * * * * * * * * * * * * * * * //

dimensions      [0 2 -3 0 0 0 0];

internalField   nonuniform List<scalar> 
37758
(
1.25782e-05
1.32816e-05
1.43481e-05
1.61608e-05
1.83434e-05
1.89038e-05
1.8204e-05
1.53656e-05
9.86829e-06
6.14921e-06
4.32985e-06
3.52427e-06
1.29621e-05
1.53254e-05
1.72448e-05
1.97189e-05
2.47379e-05
2.64928e-05
2.55997e-05
2.26521e-05
1.7681e-05
1.07099e-05
6.37344e-06
4.62364e-06
1.29072e-05
1.54307e-05
1.72257e-05
1.98e-05
2.47718e-05
2.65209e-05
2.58051e-05
2.33511e-05
1.97274e-05
1.27871e-05
7.15578e-06
4.91811e-06
1.28724e-05
1.54962e-05
1.72448e-05
1.97417e-05
2.4664e-05
2.62231e-05
2.55013e-05
2.3249e-05
2.02057e-05
1.38813e-05
7.5148e-06
5.00945e-06
1.28617e-05
1.5525e-05
1.72469e-05
1.97021e-05
2.45781e-05
2.61075e-05
2.54062e-05
2.32742e-05
2.04249e-05
1.43131e-05
7.66382e-06
5.04574e-06
1.28548e-05
1.5537e-05
1.72549e-05
1.96977e-05
2.45411e-05
2.60545e-05
2.53614e-05
2.32749e-05
2.0498e-05
1.44699e-05
7.7166e-06
5.05666e-06
1.28548e-05
1.5537e-05
1.72549e-05
1.96977e-05
2.45411e-05
2.60546e-05
2.53614e-05
2.3275e-05
2.04983e-05
1.44704e-05
7.71686e-06
5.05678e-06
1.28617e-05
1.5525e-05
1.72469e-05
1.97021e-05
2.45781e-05
2.61076e-05
2.54064e-05
2.32746e-05
2.04256e-05
1.43145e-05
7.66454e-06
5.04608e-06
1.28724e-05
1.54962e-05
1.72448e-05
1.97417e-05
2.46641e-05
2.62233e-05
2.55017e-05
2.32496e-05
2.02068e-05
1.38832e-05
7.51587e-06
5.00998e-06
1.29072e-05
1.54307e-05
1.72257e-05
1.98e-05
2.47718e-05
2.65212e-05
2.58055e-05
2.33519e-05
1.97287e-05
1.27892e-05
7.15697e-06
4.91874e-06
1.29621e-05
1.53254e-05
1.72448e-05
1.97188e-05
2.47379e-05
2.6493e-05
2.56001e-05
2.26528e-05
1.76825e-05
1.07115e-05
6.37443e-06
4.62424e-06
1.25782e-05
1.32817e-05
1.4348e-05
1.61607e-05
1.83434e-05
1.89039e-05
1.82043e-05
1.53664e-05
9.86946e-06
6.15002e-06
4.33038e-06
3.52464e-06
6.1529e-06
6.42266e-06
7.35395e-06
8.40633e-06
9.20692e-06
9.45847e-06
9.34024e-06
8.90539e-06
7.92971e-06
5.60093e-06
3.42375e-06
2.61247e-06
1.20598e-06
1.97296e-06
5.19994e-06
5.83673e-06
8.16229e-06
1.24972e-05
1.44254e-05
1.44183e-05
1.34739e-05
9.91769e-06
5.18776e-06
3.11043e-06
1.12521e-06
1.89108e-06
4.58153e-06
5.22269e-06
7.54909e-06
1.22558e-05
1.40745e-05
1.47771e-05
1.42274e-05
1.14517e-05
5.94401e-06
3.35577e-06
1.09677e-06
1.8974e-06
4.24513e-06
4.90597e-06
7.33535e-06
1.21221e-05
1.3507e-05
1.46891e-05
1.44556e-05
1.22152e-05
6.39795e-06
3.45523e-06
1.08606e-06
1.89973e-06
4.09485e-06
4.752e-06
7.16828e-06
1.18881e-05
1.31982e-05
1.45956e-05
1.45508e-05
1.2532e-05
6.62518e-06
3.49728e-06
1.08255e-06
1.89885e-06
4.03682e-06
4.69412e-06
7.10588e-06
1.1777e-05
1.30641e-05
1.45179e-05
1.46055e-05
1.2637e-05
6.70362e-06
3.51091e-06
1.08255e-06
1.89884e-06
4.03689e-06
4.69416e-06
7.10586e-06
1.17769e-05
1.3064e-05
1.45177e-05
1.46056e-05
1.26372e-05
6.70384e-06
3.51098e-06
1.08606e-06
1.8997e-06
4.09506e-06
4.75215e-06
7.16819e-06
1.18879e-05
1.31978e-05
1.45953e-05
1.4551e-05
1.25326e-05
6.6258e-06
3.49747e-06
1.09678e-06
1.89735e-06
4.24541e-06
4.90617e-06
7.3352e-06
1.21219e-05
1.35064e-05
1.46888e-05
1.44556e-05
1.22161e-05
6.39887e-06
3.45551e-06
1.12522e-06
1.89103e-06
4.58182e-06
5.22289e-06
7.54888e-06
1.22556e-05
1.40737e-05
1.47767e-05
1.42275e-05
1.14529e-05
5.94482e-06
3.35607e-06
1.20598e-06
1.97291e-06
5.20008e-06
5.83681e-06
8.16198e-06
1.24968e-05
1.44247e-05
1.44178e-05
1.34737e-05
9.91861e-06
5.18843e-06
3.11069e-06
6.1529e-06
6.42266e-06
7.3539e-06
8.40642e-06
9.20698e-06
9.45853e-06
9.34032e-06
8.90554e-06
7.93001e-06
5.60152e-06
3.42416e-06
2.61272e-06
6.04165e-06
6.48326e-06
1.0052e-05
1.42639e-05
1.30425e-05
1.07092e-05
9.45218e-06
8.7398e-06
7.75699e-06
5.48138e-06
3.67704e-06
2.98754e-06
9.7833e-07
4.30364e-06
2.28116e-05
2.30612e-05
1.68731e-05
1.52212e-05
1.34166e-05
1.25419e-05
1.22796e-05
1.03506e-05
5.54095e-06
2.93147e-06
1.01272e-06
4.72237e-06
2.35469e-05
2.35938e-05
1.71976e-05
1.46773e-05
1.29008e-05
1.28542e-05
1.37819e-05
1.22381e-05
6.7142e-06
3.19443e-06
1.02632e-06
4.92283e-06
2.27544e-05
2.26109e-05
1.64757e-05
1.39798e-05
1.23924e-05
1.2776e-05
1.45285e-05
1.31944e-05
7.35683e-06
3.34408e-06
1.02925e-06
5.02073e-06
2.22346e-05
2.20728e-05
1.61119e-05
1.35518e-05
1.21189e-05
1.27115e-05
1.48532e-05
1.36274e-05
7.66143e-06
3.41611e-06
1.02922e-06
5.0354e-06
2.20188e-05
2.18912e-05
1.6036e-05
1.33823e-05
1.20036e-05
1.26739e-05
1.49734e-05
1.3783e-05
7.7731e-06
3.44164e-06
1.02922e-06
5.03542e-06
2.20193e-05
2.18917e-05
1.60364e-05
1.33824e-05
1.20036e-05
1.26739e-05
1.49736e-05
1.37833e-05
7.77337e-06
3.44173e-06
1.02926e-06
5.02078e-06
2.22359e-05
2.20745e-05
1.61132e-05
1.35519e-05
1.21189e-05
1.27115e-05
1.48537e-05
1.36282e-05
7.6622e-06
3.41634e-06
1.02632e-06
4.92287e-06
2.27562e-05
2.26133e-05
1.64776e-05
1.398e-05
1.23923e-05
1.27761e-05
1.45292e-05
1.31956e-05
7.35795e-06
3.34443e-06
1.01272e-06
4.72238e-06
2.35487e-05
2.35967e-05
1.71999e-05
1.46775e-05
1.29006e-05
1.28541e-05
1.37826e-05
1.22394e-05
6.71543e-06
3.19481e-06
9.78331e-07
4.3036e-06
2.28127e-05
2.30636e-05
1.68748e-05
1.52214e-05
1.3416e-05
1.25416e-05
1.22798e-05
1.03517e-05
5.54197e-06
2.93182e-06
6.04165e-06
6.48326e-06
1.00518e-05
1.42647e-05
1.30432e-05
1.07095e-05
9.45231e-06
8.73989e-06
7.75727e-06
5.48199e-06
3.67745e-06
2.98779e-06
6.14467e-06
7.50159e-06
2.16486e-05
3.8598e-05
3.06516e-05
1.59362e-05
1.05783e-05
8.85277e-06
7.75102e-06
5.6207e-06
4.03027e-06
3.25429e-06
9.656e-06
5.78816e-05
0.00011552
0.00011089
6.62767e-05
2.88917e-05
1.69213e-05
1.44035e-05
1.40079e-05
1.21618e-05
6.44192e-06
2.99729e-06
1.27547e-05
7.03019e-05
0.000133435
0.00012516
7.27961e-05
2.98651e-05
1.71399e-05
1.56996e-05
1.65499e-05
1.51552e-05
8.0979e-06
3.27701e-06
1.34471e-05
7.57989e-05
0.000137878
0.000127677
7.26375e-05
2.9175e-05
1.70063e-05
1.62371e-05
1.79588e-05
1.66814e-05
8.88364e-06
3.44477e-06
1.36022e-05
7.86669e-05
0.000138622
0.000127641
7.23789e-05
2.89558e-05
1.70231e-05
1.65019e-05
1.86426e-05
1.74e-05
9.25314e-06
3.53205e-06
1.36163e-05
7.93989e-05
0.000139095
0.000127981
7.27907e-05
2.90227e-05
1.70617e-05
1.66042e-05
1.88882e-05
1.76604e-05
9.39001e-06
3.56466e-06
1.36163e-05
7.93991e-05
0.000139097
0.000127983
7.2793e-05
2.90234e-05
1.70621e-05
1.66045e-05
1.88887e-05
1.76609e-05
9.39028e-06
3.56474e-06
1.36023e-05
7.86674e-05
0.000138628
0.000127648
7.2386e-05
2.8958e-05
1.7024e-05
1.65028e-05
1.8644e-05
1.74014e-05
9.25387e-06
3.53227e-06
1.34472e-05
7.57994e-05
0.000137886
0.000127687
7.26479e-05
2.91781e-05
1.70075e-05
1.62383e-05
1.79607e-05
1.66834e-05
8.88476e-06
3.44511e-06
1.27548e-05
7.03021e-05
0.000133443
0.000125171
7.28083e-05
2.98685e-05
1.7141e-05
1.57007e-05
1.65518e-05
1.51573e-05
8.09929e-06
3.27741e-06
9.65612e-06
5.78821e-05
0.000115527
0.0001109
6.62877e-05
2.88945e-05
1.69217e-05
1.44039e-05
1.40089e-05
1.21636e-05
6.44337e-06
2.9977e-06
6.14466e-06
7.50161e-06
2.16484e-05
3.86014e-05
3.06553e-05
1.59377e-05
1.05788e-05
8.85295e-06
7.75146e-06
5.62152e-06
4.0308e-06
3.25458e-06
1.08122e-05
2.29846e-05
5.30031e-05
7.27872e-05
6.37022e-05
2.99769e-05
1.35563e-05
9.50937e-06
8.33493e-06
6.79983e-06
4.67602e-06
3.48095e-06
0.000244242
0.00023177
0.000184967
0.000170309
0.00013203
5.8888e-05
2.65209e-05
2.06534e-05
1.97758e-05
1.54227e-05
6.91205e-06
3.0093e-06
0.000355281
0.000311043
0.00022884
0.000202445
0.000145707
6.51993e-05
3.029e-05
2.53162e-05
2.51107e-05
1.92996e-05
8.26042e-06
3.21943e-06
0.000374275
0.000329681
0.00024373
0.000212343
0.000147643
6.70685e-05
3.30139e-05
2.83012e-05
2.7844e-05
2.09399e-05
8.90722e-06
3.36427e-06
0.000376034
0.000332248
0.000247162
0.000214157
0.00014743
6.8284e-05
3.47012e-05
2.98035e-05
2.91162e-05
2.16866e-05
9.23413e-06
3.4478e-06
0.000375696
0.00033316
0.000248895
0.000214985
0.000147348
6.9028e-05
3.54896e-05
3.03904e-05
2.95617e-05
2.19386e-05
9.35601e-06
3.48061e-06
0.000375696
0.000333161
0.000248895
0.000214986
0.00014735
6.90302e-05
3.54913e-05
3.03918e-05
2.95627e-05
2.1939e-05
9.35621e-06
3.48067e-06
0.000376036
0.000332251
0.000247164
0.000214159
0.000147435
6.82904e-05
3.47062e-05
2.98076e-05
2.91191e-05
2.16877e-05
9.23468e-06
3.44797e-06
0.000374277
0.000329685
0.000243733
0.000212346
0.000147652
6.70776e-05
3.30208e-05
2.8307e-05
2.78483e-05
2.09416e-05
8.90803e-06
3.36453e-06
0.000355282
0.000311049
0.000228844
0.000202449
0.000145717
6.52088e-05
3.02957e-05
2.53218e-05
2.51154e-05
1.93018e-05
8.26143e-06
3.21975e-06
0.000244243
0.000231781
0.000184978
0.000170316
0.000132041
5.88956e-05
2.6524e-05
2.06562e-05
1.9779e-05
1.54252e-05
6.91319e-06
3.00967e-06
1.08122e-05
2.29867e-05
5.30068e-05
7.2792e-05
6.37085e-05
2.99815e-05
1.35576e-05
9.50987e-06
8.3358e-06
6.80138e-06
4.67685e-06
3.48129e-06
1.30629e-05
2.58258e-05
5.1926e-05
7.32524e-05
7.09487e-05
4.325e-05
1.80941e-05
1.10695e-05
1.03144e-05
8.7685e-06
5.08594e-06
3.56266e-06
7.06753e-05
7.87497e-05
7.64403e-05
9.49643e-05
0.000109671
8.06002e-05
4.58742e-05
3.59376e-05
2.8307e-05
1.62375e-05
6.83727e-06
2.90379e-06
9.53528e-05
0.000100022
9.42313e-05
0.000111798
0.00012232
9.1511e-05
5.759e-05
4.56483e-05
3.47477e-05
1.96567e-05
7.99748e-06
3.02035e-06
9.71231e-05
0.000102531
9.83452e-05
0.000116555
0.000124774
9.41835e-05
6.1667e-05
4.8664e-05
3.70084e-05
2.10885e-05
8.55161e-06
3.12543e-06
9.49643e-05
0.000100876
9.879e-05
0.00011791
0.000124963
9.49929e-05
6.32952e-05
4.99227e-05
3.80011e-05
2.17645e-05
8.83122e-06
3.19459e-06
9.38375e-05
9.9949e-05
9.87691e-05
0.000118102
0.000124656
9.50228e-05
6.3724e-05
5.02649e-05
3.83056e-05
2.20017e-05
8.93827e-06
3.2239e-06
9.38375e-05
9.99489e-05
9.87689e-05
0.000118102
0.000124657
9.50246e-05
6.3726e-05
5.02663e-05
3.83063e-05
2.2002e-05
8.93839e-06
3.22393e-06
9.49643e-05
0.000100875
9.87896e-05
0.000117909
0.000124966
9.4998e-05
6.33011e-05
4.99268e-05
3.80031e-05
2.17653e-05
8.83154e-06
3.19468e-06
9.71229e-05
0.00010253
9.83448e-05
0.000116554
0.000124778
9.41915e-05
6.16762e-05
4.86704e-05
3.70116e-05
2.10898e-05
8.55215e-06
3.12557e-06
9.53519e-05
0.000100022
9.42313e-05
0.000111796
0.000122326
9.15209e-05
5.76019e-05
4.56565e-05
3.47518e-05
1.96586e-05
7.99824e-06
3.02055e-06
7.06737e-05
7.87519e-05
7.64428e-05
9.49645e-05
0.000109677
8.06094e-05
4.58833e-05
3.59445e-05
2.8311e-05
1.62397e-05
6.83823e-06
2.90406e-06
1.30631e-05
2.58284e-05
5.193e-05
7.32565e-05
7.0954e-05
4.3256e-05
1.80965e-05
1.10707e-05
1.03161e-05
8.77052e-06
5.08688e-06
3.563e-06
1.34469e-05
2.87101e-05
4.85817e-05
6.58948e-05
6.74405e-05
4.69922e-05
2.05465e-05
1.45719e-05
1.3814e-05
9.35783e-06
5.03161e-06
3.54205e-06
2.79517e-05
3.84847e-05
4.59481e-05
6.45285e-05
8.96939e-05
7.96817e-05
5.87251e-05
4.54173e-05
3.06913e-05
1.57839e-05
6.33245e-06
2.67048e-06
3.23813e-05
4.42687e-05
5.16455e-05
7.16549e-05
9.81267e-05
8.93942e-05
6.94767e-05
5.37377e-05
3.62299e-05
1.86757e-05
7.15295e-06
2.69274e-06
3.19733e-05
4.41921e-05
5.24681e-05
7.34516e-05
9.90429e-05
9.08725e-05
7.09172e-05
5.52578e-05
3.79761e-05
1.98342e-05
7.5454e-06
2.75392e-06
3.09601e-05
4.31584e-05
5.22949e-05
7.39365e-05
9.86704e-05
9.10733e-05
7.12822e-05
5.57993e-05
3.87434e-05
2.03924e-05
7.75886e-06
2.8036e-06
3.04934e-05
4.25923e-05
5.20887e-05
7.38923e-05
9.80139e-05
9.07642e-05
7.11666e-05
5.58534e-05
3.89746e-05
2.05993e-05
7.8461e-06
2.82655e-06
3.04933e-05
4.25921e-05
5.20885e-05
7.38919e-05
9.80139e-05
9.07654e-05
7.11676e-05
5.58541e-05
3.8975e-05
2.05994e-05
7.84613e-06
2.82655e-06
3.09599e-05
4.31578e-05
5.22942e-05
7.39354e-05
9.86706e-05
9.10766e-05
7.12855e-05
5.58013e-05
3.87444e-05
2.03929e-05
7.75893e-06
2.80362e-06
3.19729e-05
4.4191e-05
5.24671e-05
7.34501e-05
9.90433e-05
9.08778e-05
7.09223e-05
5.52611e-05
3.79779e-05
1.98349e-05
7.54556e-06
2.75396e-06
3.23806e-05
4.42675e-05
5.16446e-05
7.16533e-05
9.81276e-05
8.94007e-05
6.94835e-05
5.37421e-05
3.62324e-05
1.86769e-05
7.15329e-06
2.69282e-06
2.79507e-05
3.84845e-05
4.59485e-05
6.4528e-05
8.9696e-05
7.96882e-05
5.87328e-05
4.54223e-05
3.06944e-05
1.57858e-05
6.33309e-06
2.67065e-06
1.34473e-05
2.87128e-05
4.85856e-05
6.5898e-05
6.74448e-05
4.69982e-05
2.05499e-05
1.45746e-05
1.38166e-05
9.35992e-06
5.03245e-06
3.54236e-06
1.22792e-05
2.71573e-05
4.53356e-05
5.89875e-05
6.15859e-05
4.49668e-05
2.38978e-05
2.01763e-05
1.57763e-05
8.81071e-06
4.78593e-06
3.4664e-06
2.03307e-05
2.60985e-05
3.68438e-05
5.20581e-05
7.28202e-05
7.39834e-05
5.9974e-05
4.57009e-05
2.96686e-05
1.40031e-05
5.35921e-06
2.37277e-06
2.08764e-05
2.78137e-05
3.85167e-05
5.50706e-05
7.70933e-05
8.13293e-05
6.87551e-05
5.29847e-05
3.44173e-05
1.59878e-05
5.90045e-06
2.31675e-06
2.02919e-05
2.74999e-05
3.83851e-05
5.54189e-05
7.67102e-05
8.09537e-05
6.93194e-05
5.41627e-05
3.58638e-05
1.67811e-05
6.17349e-06
2.34222e-06
1.97216e-05
2.6962e-05
3.79991e-05
5.52169e-05
7.59384e-05
8.02059e-05
6.92497e-05
5.45294e-05
3.64918e-05
1.71926e-05
6.33176e-06
2.37428e-06
1.94826e-05
2.66742e-05
3.77646e-05
5.49937e-05
7.53182e-05
7.9554e-05
6.89858e-05
5.4533e-05
3.66884e-05
1.73579e-05
6.39942e-06
2.39076e-06
1.94825e-05
2.6674e-05
3.77643e-05
5.49933e-05
7.53179e-05
7.95542e-05
6.89864e-05
5.45334e-05
3.66886e-05
1.73579e-05
6.3994e-06
2.39075e-06
1.97214e-05
2.69614e-05
3.79983e-05
5.52158e-05
7.59376e-05
8.02065e-05
6.92514e-05
5.45305e-05
3.64921e-05
1.71925e-05
6.33169e-06
2.37426e-06
2.02914e-05
2.7499e-05
3.83838e-05
5.54173e-05
7.6709e-05
8.09547e-05
6.93222e-05
5.41645e-05
3.58646e-05
1.67811e-05
6.17343e-06
2.34218e-06
2.08757e-05
2.78126e-05
3.85153e-05
5.50689e-05
7.70921e-05
8.13314e-05
6.87591e-05
5.29874e-05
3.44187e-05
1.59881e-05
5.90051e-06
2.31674e-06
2.03298e-05
2.6098e-05
3.68436e-05
5.20574e-05
7.28201e-05
7.39873e-05
5.99789e-05
4.57046e-05
2.9671e-05
1.40042e-05
5.35957e-06
2.37285e-06
1.228e-05
2.71608e-05
4.53399e-05
5.89909e-05
6.15896e-05
4.49723e-05
2.39019e-05
2.01797e-05
1.57791e-05
8.81252e-06
4.7866e-06
3.46666e-06
1.02383e-05
2.32111e-05
4.15121e-05
5.26883e-05
5.48288e-05
4.08631e-05
2.83506e-05
2.33091e-05
1.54491e-05
7.53439e-06
4.33577e-06
3.33166e-06
1.66245e-05
2.19523e-05
3.33163e-05
4.60727e-05
5.97633e-05
6.43099e-05
5.69035e-05
4.32786e-05
2.58981e-05
1.10427e-05
4.27781e-06
2.07057e-06
1.65724e-05
2.24348e-05
3.36413e-05
4.74313e-05
6.21261e-05
6.88137e-05
6.33309e-05
4.87751e-05
2.90376e-05
1.24654e-05
4.61767e-06
1.95313e-06
1.60901e-05
2.20979e-05
3.31624e-05
4.71369e-05
6.14798e-05
6.80434e-05
6.3006e-05
4.94639e-05
2.9983e-05
1.30569e-05
4.80359e-06
1.95097e-06
1.57292e-05
2.17387e-05
3.2673e-05
4.66149e-05
6.07061e-05
6.71767e-05
6.25066e-05
4.96049e-05
3.04175e-05
1.3372e-05
4.91608e-06
1.96845e-06
1.55855e-05
2.15557e-05
3.2421e-05
4.6308e-05
6.022e-05
6.66009e-05
6.21357e-05
4.95675e-05
3.05776e-05
1.35045e-05
4.96571e-06
1.97911e-06
1.55854e-05
2.15555e-05
3.24207e-05
4.63076e-05
6.02196e-05
6.66007e-05
6.21356e-05
4.95673e-05
3.05774e-05
1.35043e-05
4.96566e-06
1.97909e-06
1.57289e-05
2.17381e-05
3.26721e-05
4.66137e-05
6.07049e-05
6.7176e-05
6.25062e-05
4.96044e-05
3.04168e-05
1.33716e-05
4.91594e-06
1.96839e-06
1.60896e-05
2.20969e-05
3.3161e-05
4.71351e-05
6.1478e-05
6.80425e-05
6.30056e-05
4.94633e-05
2.99821e-05
1.30564e-05
4.8034e-06
1.9509e-06
1.65718e-05
2.24337e-05
3.36397e-05
4.74294e-05
6.21242e-05
6.88133e-05
6.3331e-05
4.87753e-05
2.90371e-05
1.24651e-05
4.61756e-06
1.95307e-06
1.66238e-05
2.19518e-05
3.33158e-05
4.60719e-05
5.97622e-05
6.43111e-05
5.69068e-05
4.3281e-05
2.58992e-05
1.10432e-05
4.27797e-06
2.07059e-06
1.02387e-05
2.32145e-05
4.15166e-05
5.26923e-05
5.48326e-05
4.08681e-05
2.83547e-05
2.33125e-05
1.54517e-05
7.53563e-06
4.33622e-06
3.33185e-06
9.25613e-06
1.94062e-05
3.60789e-05
4.55724e-05
4.75874e-05
3.74325e-05
3.01313e-05
2.32084e-05
1.30513e-05
6.11419e-06
3.91342e-06
3.19742e-06
1.37666e-05
1.91615e-05
3.00841e-05
4.11016e-05
5.04152e-05
5.46984e-05
4.95762e-05
3.66451e-05
1.96413e-05
8.05869e-06
3.31489e-06
1.8076e-06
1.36993e-05
1.9482e-05
3.02082e-05
4.19067e-05
5.20907e-05
5.74423e-05
5.33304e-05
3.98603e-05
2.19608e-05
9.08395e-06
3.49554e-06
1.63834e-06
1.33828e-05
1.92142e-05
2.97111e-05
4.13932e-05
5.14455e-05
5.66783e-05
5.30702e-05
4.0408e-05
2.27518e-05
9.52705e-06
3.61521e-06
1.61409e-06
1.31408e-05
1.89402e-05
2.92388e-05
4.07926e-05
5.07335e-05
5.59088e-05
5.26624e-05
4.05604e-05
2.31357e-05
9.76461e-06
3.69181e-06
1.61994e-06
1.30443e-05
1.88042e-05
2.90016e-05
4.04713e-05
5.03311e-05
5.54564e-05
5.23892e-05
4.05761e-05
2.3292e-05
9.86654e-06
3.72634e-06
1.62582e-06
1.30442e-05
1.8804e-05
2.90013e-05
4.04708e-05
5.03306e-05
5.54559e-05
5.23887e-05
4.05756e-05
2.32917e-05
9.86639e-06
3.72628e-06
1.62579e-06
1.31405e-05
1.89396e-05
2.92378e-05
4.07913e-05
5.0732e-05
5.59074e-05
5.2661e-05
4.0559e-05
2.31348e-05
9.76417e-06
3.69164e-06
1.61988e-06
1.33823e-05
1.92132e-05
2.97095e-05
4.13912e-05
5.14433e-05
5.66762e-05
5.30683e-05
4.04062e-05
2.27506e-05
9.52647e-06
3.61499e-06
1.61401e-06
1.36987e-05
1.94808e-05
3.02065e-05
4.19045e-05
5.20883e-05
5.74403e-05
5.33287e-05
3.98586e-05
2.19598e-05
9.08352e-06
3.49537e-06
1.63827e-06
1.3766e-05
1.9161e-05
3.00833e-05
4.11004e-05
5.0414e-05
5.4698e-05
4.95767e-05
3.66452e-05
1.96416e-05
8.05888e-06
3.31492e-06
1.80758e-06
9.25651e-06
1.94086e-05
3.60838e-05
4.55773e-05
4.75919e-05
3.74373e-05
3.01349e-05
2.32116e-05
1.30533e-05
6.11496e-06
3.91372e-06
3.19758e-06
7.34202e-06
1.52835e-05
2.88866e-05
3.85502e-05
4.12494e-05
3.54056e-05
2.9534e-05
2.04809e-05
9.25064e-06
4.94515e-06
3.57359e-06
3.07761e-06
1.04715e-05
1.63223e-05
2.61342e-05
3.57953e-05
4.25148e-05
4.55346e-05
4.0294e-05
2.76016e-05
1.36418e-05
5.60824e-06
2.5715e-06
1.60043e-06
1.07531e-05
1.67432e-05
2.63758e-05
3.63497e-05
4.37082e-05
4.72937e-05
4.28001e-05
3.0138e-05
1.54506e-05
6.30472e-06
2.61746e-06
1.38636e-06
1.06286e-05
1.65803e-05
2.59905e-05
3.58198e-05
4.31197e-05
4.66613e-05
4.27113e-05
3.07376e-05
1.61242e-05
6.62679e-06
2.68337e-06
1.34361e-06
1.04971e-05
1.63855e-05
2.56076e-05
3.52691e-05
4.25132e-05
4.60469e-05
4.24677e-05
3.09568e-05
1.64554e-05
6.79968e-06
2.73176e-06
1.34015e-06
1.04429e-05
1.62872e-05
2.54138e-05
3.4982e-05
4.21863e-05
4.57089e-05
4.23068e-05
3.10295e-05
1.65948e-05
6.8737e-06
2.75426e-06
1.34223e-06
1.04428e-05
1.6287e-05
2.54135e-05
3.49816e-05
4.21858e-05
4.57082e-05
4.23062e-05
3.10289e-05
1.65944e-05
6.87356e-06
2.75421e-06
1.34221e-06
1.04968e-05
1.63848e-05
2.56066e-05
3.52677e-05
4.25115e-05
4.60451e-05
4.24658e-05
3.09553e-05
1.64545e-05
6.79928e-06
2.73162e-06
1.3401e-06
1.06281e-05
1.65793e-05
2.59889e-05
3.58177e-05
4.31172e-05
4.66586e-05
4.27087e-05
3.07354e-05
1.6123e-05
6.62625e-06
2.68317e-06
1.34353e-06
1.07526e-05
1.67421e-05
2.6374e-05
3.63473e-05
4.37054e-05
4.72909e-05
4.27975e-05
3.01359e-05
1.54495e-05
6.30429e-06
2.61729e-06
1.38629e-06
1.0471e-05
1.63219e-05
2.61334e-05
3.5794e-05
4.25134e-05
4.55336e-05
4.02934e-05
2.76012e-05
1.36418e-05
5.60826e-06
2.57148e-06
1.60038e-06
7.34233e-06
1.52856e-05
2.88914e-05
3.85551e-05
4.12541e-05
3.54093e-05
2.95373e-05
2.04834e-05
9.25184e-06
4.94561e-06
3.5738e-06
3.07774e-06
6.09296e-06
1.1015e-05
2.03705e-05
3.06567e-05
3.46068e-05
3.21031e-05
2.55251e-05
1.33643e-05
6.51859e-06
4.14864e-06
3.31826e-06
2.9754e-06
7.76031e-06
1.30796e-05
2.12425e-05
2.95618e-05
3.44926e-05
3.62151e-05
3.02446e-05
1.88611e-05
8.85727e-06
3.86134e-06
2.05028e-06
1.44694e-06
8.01829e-06
1.36725e-05
2.18281e-05
3.00878e-05
3.53546e-05
3.74313e-05
3.22251e-05
2.10525e-05
1.0194e-05
4.26798e-06
1.98289e-06
1.19522e-06
7.99661e-06
1.36346e-05
2.16406e-05
2.96976e-05
3.49285e-05
3.70358e-05
3.23927e-05
2.17097e-05
1.07362e-05
4.48281e-06
2.00396e-06
1.13679e-06
7.94097e-06
1.35243e-05
2.13923e-05
2.92871e-05
3.44879e-05
3.66256e-05
3.23383e-05
2.19839e-05
1.10038e-05
4.60078e-06
2.03001e-06
1.12583e-06
7.91616e-06
1.3464e-05
2.12596e-05
2.90715e-05
3.42525e-05
3.64031e-05
3.2284e-05
2.20908e-05
1.11158e-05
4.65091e-06
2.04326e-06
1.12496e-06
7.91607e-06
1.34638e-05
2.12593e-05
2.9071e-05
3.42519e-05
3.64024e-05
3.22833e-05
2.20903e-05
1.11155e-05
4.6508e-06
2.04322e-06
1.12495e-06
7.94072e-06
1.35237e-05
2.13913e-05
2.92857e-05
3.44861e-05
3.66237e-05
3.23364e-05
2.19824e-05
1.10031e-05
4.60047e-06
2.0299e-06
1.12579e-06
7.99622e-06
1.36336e-05
2.1639e-05
2.96955e-05
3.49259e-05
3.70329e-05
3.23899e-05
2.17077e-05
1.07352e-05
4.4824e-06
2.0038e-06
1.13672e-06
8.01787e-06
1.36715e-05
2.18264e-05
3.00855e-05
3.53518e-05
3.74283e-05
3.22223e-05
2.10506e-05
1.01931e-05
4.26763e-06
1.98275e-06
1.19515e-06
7.75999e-06
1.30794e-05
2.12419e-05
2.95606e-05
3.44911e-05
3.62136e-05
3.02435e-05
1.88606e-05
8.85717e-06
3.8613e-06
2.05023e-06
1.44688e-06
6.09301e-06
1.10164e-05
2.03741e-05
3.06605e-05
3.461e-05
3.21057e-05
2.55275e-05
1.33658e-05
6.51926e-06
4.14893e-06
3.31842e-06
2.97552e-06
5.23008e-06
8.2481e-06
1.33936e-05
2.08921e-05
2.46235e-05
2.38034e-05
1.57197e-05
8.24838e-06
4.90091e-06
3.63725e-06
3.12903e-06
2.88974e-06
5.55854e-06
9.92175e-06
1.59588e-05
2.24194e-05
2.5892e-05
2.63966e-05
2.04642e-05
1.18356e-05
5.57378e-06
2.73593e-06
1.70644e-06
1.33669e-06
5.73923e-06
1.05414e-05
1.69058e-05
2.32884e-05
2.68946e-05
2.77266e-05
2.24157e-05
1.36054e-05
6.43484e-06
2.90144e-06
1.54876e-06
1.0552e-06
5.76217e-06
1.0605e-05
1.69427e-05
2.31615e-05
2.6742e-05
2.76713e-05
2.28289e-05
1.42325e-05
6.82477e-06
3.02316e-06
1.53317e-06
9.83844e-07
5.7509e-06
1.05698e-05
1.68388e-05
2.29396e-05
2.6501e-05
2.74919e-05
2.29362e-05
1.45105e-05
7.02015e-06
3.09594e-06
1.54182e-06
9.6694e-07
5.74453e-06
1.05431e-05
1.67703e-05
2.28127e-05
2.63641e-05
2.73829e-05
2.29622e-05
1.46212e-05
7.10057e-06
3.12715e-06
1.54815e-06
9.63821e-07
5.74446e-06
1.05428e-05
1.677e-05
2.28122e-05
2.63636e-05
2.73823e-05
2.29616e-05
1.46208e-05
7.10038e-06
3.12707e-06
1.54812e-06
9.63809e-07
5.7507e-06
1.05692e-05
1.68379e-05
2.29383e-05
2.64994e-05
2.74901e-05
2.29346e-05
1.45094e-05
7.01962e-06
3.09572e-06
1.54173e-06
9.66905e-07
5.76187e-06
1.06041e-05
1.69414e-05
2.31596e-05
2.67396e-05
2.76686e-05
2.28266e-05
1.42309e-05
6.82405e-06
3.02287e-06
1.53306e-06
9.83795e-07
5.73893e-06
1.05405e-05
1.69044e-05
2.32864e-05
2.68921e-05
2.77238e-05
2.24133e-05
1.3604e-05
6.43422e-06
2.9012e-06
1.54866e-06
1.05515e-06
5.55836e-06
9.92156e-06
1.59585e-05
2.24185e-05
2.58907e-05
2.63952e-05
2.04633e-05
1.18353e-05
5.57366e-06
2.73586e-06
1.70637e-06
1.33663e-06
5.22993e-06
8.24893e-06
1.33961e-05
2.08948e-05
2.46258e-05
2.3805e-05
1.57211e-05
8.2492e-06
4.90128e-06
3.63744e-06
3.12916e-06
2.88986e-06
4.51519e-06
6.12077e-06
8.61691e-06
1.26307e-05
1.48378e-05
1.36191e-05
9.0017e-06
5.59079e-06
3.99355e-06
3.30599e-06
2.98781e-06
2.81821e-06
3.95054e-06
7.14167e-06
1.1114e-05
1.54186e-05
1.77229e-05
1.73105e-05
1.25996e-05
7.05019e-06
3.56835e-06
2.05844e-06
1.48646e-06
1.25791e-06
4.00813e-06
7.68413e-06
1.21891e-05
1.66195e-05
1.8989e-05
1.88702e-05
1.43218e-05
8.25454e-06
4.0149e-06
2.04062e-06
1.26173e-06
9.54583e-07
4.03203e-06
7.8005e-06
1.23942e-05
1.67664e-05
1.91051e-05
1.91226e-05
1.48394e-05
8.74893e-06
4.2551e-06
2.08814e-06
1.21761e-06
8.7312e-07
4.03826e-06
7.81518e-06
1.2406e-05
1.67248e-05
1.90423e-05
1.91395e-05
1.50327e-05
8.97877e-06
4.38104e-06
2.12601e-06
1.21309e-06
8.51665e-07
4.04048e-06
7.81212e-06
1.23902e-05
1.66805e-05
1.89892e-05
1.91225e-05
1.50999e-05
9.06973e-06
4.43254e-06
2.14328e-06
1.21441e-06
8.46896e-07
4.04043e-06
7.81196e-06
1.23899e-05
1.66802e-05
1.89888e-05
1.9122e-05
1.50995e-05
9.06946e-06
4.43242e-06
2.14323e-06
1.21439e-06
8.46887e-07
4.03812e-06
7.81473e-06
1.24053e-05
1.67237e-05
1.9041e-05
1.91381e-05
1.50315e-05
8.97804e-06
4.38071e-06
2.12588e-06
1.21304e-06
8.5164e-07
4.03183e-06
7.79985e-06
1.23932e-05
1.67649e-05
1.91032e-05
1.91205e-05
1.48377e-05
8.74793e-06
4.25464e-06
2.08795e-06
1.21753e-06
8.73085e-07
4.00793e-06
7.68354e-06
1.21881e-05
1.6618e-05
1.89871e-05
1.88681e-05
1.43202e-05
8.25366e-06
4.01452e-06
2.04047e-06
1.26166e-06
9.54543e-07
3.95045e-06
7.14158e-06
1.11138e-05
1.5418e-05
1.7722e-05
1.73096e-05
1.2599e-05
7.04998e-06
3.56826e-06
2.05837e-06
1.48639e-06
1.25784e-06
4.51513e-06
6.12117e-06
8.61835e-06
1.26326e-05
1.48396e-05
1.36203e-05
9.00252e-06
5.59123e-06
3.99378e-06
3.30614e-06
2.98793e-06
2.81832e-06
4.06723e-06
4.84945e-06
5.9215e-06
7.6433e-06
8.6247e-06
7.82551e-06
5.75032e-06
4.25292e-06
3.47191e-06
3.08528e-06
2.88079e-06
2.75807e-06
2.88031e-06
5.03541e-06
7.32359e-06
9.76865e-06
1.10984e-05
1.03746e-05
7.28738e-06
4.20788e-06
2.43882e-06
1.66511e-06
1.34603e-06
1.20079e-06
2.80592e-06
5.38423e-06
8.23437e-06
1.09229e-05
1.2348e-05
1.17535e-05
8.49438e-06
4.86197e-06
2.57803e-06
1.51909e-06
1.07506e-06
8.82615e-07
2.80652e-06
5.49331e-06
8.49808e-06
1.1212e-05
1.26334e-05
1.21341e-05
8.94813e-06
5.18073e-06
2.69549e-06
1.51225e-06
1.00998e-06
7.93756e-07
2.81318e-06
5.52667e-06
8.572e-06
1.12816e-05
1.26954e-05
1.22563e-05
9.14151e-06
5.33739e-06
2.76526e-06
1.52491e-06
9.95939e-07
7.69018e-07
2.81717e-06
5.53497e-06
8.58731e-06
1.12907e-05
1.27009e-05
1.229e-05
9.21259e-06
5.39926e-06
2.79445e-06
1.53253e-06
9.9376e-07
7.63103e-07
2.81714e-06
5.53486e-06
8.58713e-06
1.12905e-05
1.27006e-05
1.22897e-05
9.21232e-06
5.3991e-06
2.79438e-06
1.5325e-06
9.93747e-07
7.63097e-07
2.81309e-06
5.52635e-06
8.5715e-06
1.12808e-05
1.26945e-05
1.22553e-05
9.14075e-06
5.33696e-06
2.76506e-06
1.52483e-06
9.95902e-07
7.69001e-07
2.80639e-06
5.49286e-06
8.49737e-06
1.1211e-05
1.26322e-05
1.21327e-05
8.94707e-06
5.18015e-06
2.69523e-06
1.51213e-06
1.00993e-06
7.93731e-07
2.8058e-06
5.38385e-06
8.23374e-06
1.09219e-05
1.23468e-05
1.17521e-05
8.49343e-06
4.86147e-06
2.57781e-06
1.51899e-06
1.07501e-06
8.82584e-07
2.88027e-06
5.0354e-06
7.32349e-06
9.76838e-06
1.10979e-05
1.03741e-05
7.28709e-06
4.20775e-06
2.43875e-06
1.66503e-06
1.34596e-06
1.20073e-06
4.06701e-06
4.84963e-06
5.92218e-06
7.64437e-06
8.62577e-06
7.82624e-06
5.75076e-06
4.25317e-06
3.47207e-06
3.08541e-06
2.88091e-06
2.75818e-06
3.72113e-06
4.01013e-06
4.43224e-06
5.11384e-06
5.48657e-06
5.10029e-06
4.22779e-06
3.55575e-06
3.15841e-06
2.93345e-06
2.79778e-06
2.70689e-06
2.20364e-06
3.57863e-06
4.72351e-06
5.89732e-06
6.53332e-06
5.91288e-06
4.20268e-06
2.68118e-06
1.83201e-06
1.43778e-06
1.25426e-06
1.15832e-06
2.0271e-06
3.72485e-06
5.32357e-06
6.72093e-06
7.44477e-06
6.81928e-06
4.84831e-06
2.92512e-06
1.76704e-06
1.20854e-06
9.53683e-07
8.30696e-07
1.99942e-06
3.79139e-06
5.55052e-06
7.00708e-06
7.74371e-06
7.15339e-06
5.14831e-06
3.08681e-06
1.7978e-06
1.16432e-06
8.74131e-07
7.36782e-07
1.99911e-06
3.82057e-06
5.63491e-06
7.11073e-06
7.85062e-06
7.28863e-06
5.28891e-06
3.17514e-06
1.82777e-06
1.15987e-06
8.53575e-07
7.09838e-07
2.00152e-06
3.83064e-06
5.6602e-06
7.14066e-06
7.88155e-06
7.33402e-06
5.34197e-06
3.21072e-06
1.84172e-06
1.16112e-06
8.49076e-07
7.03188e-07
2.0015e-06
3.83056e-06
5.66009e-06
7.1405e-06
7.88135e-06
7.33381e-06
5.34181e-06
3.21063e-06
1.84168e-06
1.1611e-06
8.49067e-07
7.03184e-07
1.99906e-06
3.82037e-06
5.6346e-06
7.11028e-06
7.85007e-06
7.28805e-06
5.28848e-06
3.1749e-06
1.82766e-06
1.15982e-06
8.53552e-07
7.09827e-07
1.99934e-06
3.79112e-06
5.55009e-06
7.00645e-06
7.74294e-06
7.15259e-06
5.14774e-06
3.0865e-06
1.79765e-06
1.16425e-06
8.74099e-07
7.36765e-07
2.02704e-06
3.72464e-06
5.32321e-06
6.72037e-06
7.44406e-06
6.81856e-06
4.84782e-06
2.92486e-06
1.76691e-06
1.20847e-06
9.53646e-07
8.30672e-07
2.20363e-06
3.57868e-06
4.72348e-06
5.8972e-06
6.53311e-06
5.91265e-06
4.20254e-06
2.6811e-06
1.83194e-06
1.4377e-06
1.25419e-06
1.15826e-06
3.72097e-06
4.01019e-06
4.43255e-06
5.11435e-06
5.48711e-06
5.10068e-06
4.22804e-06
3.55592e-06
3.15854e-06
2.93357e-06
2.79789e-06
2.70701e-06
3.4965e-06
3.48614e-06
3.60871e-06
3.87792e-06
4.01727e-06
3.85401e-06
3.48431e-06
3.17114e-06
2.96107e-06
2.82488e-06
2.73155e-06
2.66274e-06
1.7971e-06
2.65277e-06
3.12394e-06
3.58728e-06
3.82826e-06
3.43759e-06
2.60661e-06
1.9103e-06
1.50947e-06
1.30276e-06
1.1918e-06
1.12585e-06
1.54745e-06
2.62869e-06
3.41692e-06
4.02021e-06
4.31037e-06
3.86233e-06
2.82916e-06
1.89114e-06
1.31924e-06
1.02317e-06
8.73497e-07
7.92546e-07
1.49544e-06
2.64404e-06
3.562e-06
4.21927e-06
4.5213e-06
4.06872e-06
2.97622e-06
1.94232e-06
1.29401e-06
9.5468e-07
7.84601e-07
6.95381e-07
1.48701e-06
2.6589e-06
3.62623e-06
4.30554e-06
4.61264e-06
4.16523e-06
3.0551e-06
1.98116e-06
1.29829e-06
9.39193e-07
7.5987e-07
6.6706e-07
1.48693e-06
2.66578e-06
3.64814e-06
4.33424e-06
4.6433e-06
4.20009e-06
3.08608e-06
1.99817e-06
1.30269e-06
9.36468e-07
7.53937e-07
6.59981e-07
1.48692e-06
2.66573e-06
3.64808e-06
4.33415e-06
4.6432e-06
4.19998e-06
3.086e-06
1.99812e-06
1.30267e-06
9.36457e-07
7.53932e-07
6.59978e-07
1.48698e-06
2.65879e-06
3.62605e-06
4.30531e-06
4.61235e-06
4.16493e-06
3.05488e-06
1.98104e-06
1.29823e-06
9.39163e-07
7.59856e-07
6.67053e-07
1.4954e-06
2.64388e-06
3.56177e-06
4.21894e-06
4.52089e-06
4.06831e-06
2.97592e-06
1.94215e-06
1.29393e-06
9.54639e-07
7.84581e-07
6.9537e-07
1.54742e-06
2.62859e-06
3.41675e-06
4.01994e-06
4.31002e-06
3.86198e-06
2.82892e-06
1.891e-06
1.31916e-06
1.02312e-06
8.73469e-07
7.92528e-07
1.79713e-06
2.65285e-06
3.12396e-06
3.58724e-06
3.82817e-06
3.43749e-06
2.60654e-06
1.91024e-06
1.5094e-06
1.30268e-06
1.19173e-06
1.12579e-06
3.49636e-06
3.48616e-06
3.60885e-06
3.87817e-06
4.01754e-06
3.85424e-06
3.48447e-06
3.17127e-06
2.96118e-06
2.82499e-06
2.73166e-06
2.66286e-06
3.33334e-06
3.15534e-06
3.14277e-06