/*--------------------------------*- C++ -*----------------------------------*\
| =========                 |                                                 |
| \\      /  F ield         | OpenFOAM: The Open Source CFD Toolbox           |
|  \\    /   O peration     | Version:  2.3.1                                 |
|   \\  /    A nd           | Web:      www.OpenFOAM.org                      |
|    \\/     M anipulation  |                                                 |
\*---------------------------------------------------------------------------*/
FoamFile
{
    version     2.0;
    format      ascii;
    class       volScalarField;
    location    "5";
    object      epsilon_0;
}
// * * * * * * * * * * * * * * * * * * * * * * * * * * * * * * * * * * * * * //

dimensions      [0 2 -3 0 0 0 0];

internalField   nonuniform List<scalar> 
37758
(
1.25774e-05
1.32802e-05
1.43496e-05
1.61637e-05
1.83439e-05
1.88991e-05
1.81963e-05
1.53524e-05
9.85755e-06
6.14403e-06
4.32815e-06
3.52414e-06
1.29626e-05
1.5325e-05
1.72409e-05
1.97235e-05
2.47418e-05
2.64841e-05
2.55878e-05
2.26395e-05
1.76687e-05
1.06983e-05
6.36825e-06
4.62243e-06
1.2908e-05
1.54302e-05
1.7222e-05
1.98045e-05
2.47747e-05
2.65121e-05
2.57939e-05
2.33412e-05
1.97188e-05
1.27739e-05
7.14873e-06
4.9163e-06
1.28735e-05
1.54957e-05
1.72408e-05
1.97462e-05
2.46666e-05
2.62142e-05
2.54906e-05
2.32411e-05
2.01999e-05
1.38679e-05
7.50669e-06
5.00733e-06
1.28629e-05
1.55244e-05
1.72427e-05
1.97065e-05
2.45807e-05
2.60988e-05
2.53957e-05
2.3267e-05
2.04199e-05
1.42997e-05
7.65527e-06
5.04347e-06
1.28561e-05
1.55364e-05
1.72506e-05
1.9702e-05
2.45436e-05
2.60459e-05
2.53511e-05
2.3268e-05
2.04934e-05
1.44565e-05
7.7079e-06
5.05435e-06
1.28561e-05
1.55364e-05
1.72506e-05
1.9702e-05
2.45436e-05
2.60459e-05
2.53511e-05
2.32682e-05
2.04937e-05
1.4457e-05
7.70816e-06
5.05447e-06
1.28629e-05
1.55244e-05
1.72427e-05
1.97065e-05
2.45807e-05
2.60989e-05
2.53959e-05
2.32674e-05
2.04207e-05
1.4301e-05
7.65599e-06
5.04382e-06
1.28735e-05
1.54957e-05
1.72408e-05
1.97462e-05
2.46666e-05
2.62144e-05
2.54909e-05
2.32417e-05
2.0201e-05
1.38698e-05
7.50776e-06
5.00786e-06
1.2908e-05
1.54302e-05
1.7222e-05
1.98045e-05
2.47748e-05
2.65123e-05
2.57943e-05
2.33419e-05
1.97201e-05
1.2776e-05
7.14992e-06
4.91693e-06
1.29626e-05
1.5325e-05
1.72409e-05
1.97234e-05
2.47417e-05
2.64842e-05
2.55882e-05
2.26403e-05
1.76702e-05
1.06998e-05
6.36924e-06
4.62302e-06
1.25774e-05
1.32803e-05
1.43496e-05
1.61637e-05
1.8344e-05
1.88992e-05
1.81966e-05
1.53533e-05
9.85872e-06
6.14484e-06
4.32867e-06
3.5245e-06
6.15264e-06
6.42231e-06
7.35671e-06
8.40472e-06
9.20511e-06
9.45544e-06
9.33709e-06
8.90193e-06
7.92522e-06
5.59276e-06
3.42031e-06
2.61206e-06
1.20485e-06
1.97593e-06
5.20065e-06
5.83585e-06
8.16905e-06
1.24977e-05
1.44197e-05
1.44132e-05
1.34684e-05
9.9062e-06
5.18e-06
3.10785e-06
1.12414e-06
1.89399e-06
4.58085e-06
5.22109e-06
7.55729e-06
1.2256e-05
1.40668e-05
1.47751e-05
1.42268e-05
1.14429e-05
5.93507e-06
3.35238e-06
1.09568e-06
1.90081e-06
4.24348e-06
4.90411e-06
7.3448e-06
1.2121e-05
1.3498e-05
1.46893e-05
1.44584e-05
1.22095e-05
6.38639e-06
3.45133e-06
1.08502e-06
1.90334e-06
4.09281e-06
4.75009e-06
7.17802e-06
1.18867e-05
1.31894e-05
1.45967e-05
1.45552e-05
1.25273e-05
6.61259e-06
3.49312e-06
1.08154e-06
1.90251e-06
4.03468e-06
4.69224e-06
7.11565e-06
1.17754e-05
1.30555e-05
1.45193e-05
1.46106e-05
1.26325e-05
6.69078e-06
3.50666e-06
1.08154e-06
1.9025e-06
4.03475e-06
4.69229e-06
7.11562e-06
1.17753e-05
1.30554e-05
1.45192e-05
1.46106e-05
1.26327e-05
6.691e-06
3.50672e-06
1.08502e-06
1.9033e-06
4.09303e-06
4.75024e-06
7.17793e-06
1.18865e-05
1.31891e-05
1.45964e-05
1.45554e-05
1.25279e-05
6.61321e-06
3.4933e-06
1.09569e-06
1.90076e-06
4.24376e-06
4.90431e-06
7.34464e-06
1.21208e-05
1.34974e-05
1.4689e-05
1.44585e-05
1.22104e-05
6.38731e-06
3.45161e-06
1.12415e-06
1.89394e-06
4.58114e-06
5.22129e-06
7.55707e-06
1.22558e-05
1.4066e-05
1.47747e-05
1.42268e-05
1.14441e-05
5.93588e-06
3.35268e-06
1.20486e-06
1.97588e-06
5.2008e-06
5.83593e-06
8.16874e-06
1.24974e-05
1.44189e-05
1.44127e-05
1.34683e-05
9.90712e-06
5.18068e-06
3.10811e-06
6.15264e-06
6.42231e-06
7.35667e-06
8.40481e-06
9.20516e-06
9.4555e-06
9.33716e-06
8.90208e-06
7.92552e-06
5.59335e-06
3.42073e-06
2.61231e-06
6.04134e-06
6.48389e-06
1.0074e-05
1.42493e-05
1.30256e-05
1.0699e-05
9.44601e-06
8.73566e-06
7.7519e-06
5.47446e-06
3.67462e-06
2.9873e-06
9.78553e-07
4.32134e-06
2.28271e-05
2.3027e-05
1.68309e-05
1.52021e-05
1.3401e-05
1.25407e-05
1.22823e-05
1.03453e-05
5.53108e-06
2.92745e-06
1.01295e-06
4.74103e-06
2.35533e-05
2.35598e-05
1.71492e-05
1.4654e-05
1.28881e-05
1.28562e-05
1.37926e-05
1.22366e-05
6.70105e-06
3.18882e-06
1.02655e-06
4.94096e-06
2.27557e-05
2.25792e-05
1.64294e-05
1.39565e-05
1.23816e-05
1.2782e-05
1.45421e-05
1.31951e-05
7.34186e-06
3.33767e-06
1.02948e-06
5.03832e-06
2.22338e-05
2.2041e-05
1.60663e-05
1.35291e-05
1.21092e-05
1.27195e-05
1.48685e-05
1.36289e-05
7.64555e-06
3.4093e-06
1.02945e-06
5.05266e-06
2.20177e-05
2.18598e-05
1.59905e-05
1.33599e-05
1.19943e-05
1.26826e-05
1.49893e-05
1.37849e-05
7.75693e-06
3.4347e-06
1.02945e-06
5.05268e-06
2.20181e-05
2.18604e-05
1.59909e-05
1.33599e-05
1.19943e-05
1.26827e-05
1.49895e-05
1.37852e-05
7.7572e-06
3.43479e-06
1.02948e-06
5.03837e-06
2.22352e-05
2.20428e-05
1.60676e-05
1.35292e-05
1.21092e-05
1.27196e-05
1.4869e-05
1.36298e-05
7.64631e-06
3.40954e-06
1.02655e-06
4.941e-06
2.27575e-05
2.25817e-05
1.64313e-05
1.39567e-05
1.23815e-05
1.2782e-05
1.45427e-05
1.31963e-05
7.34297e-06
3.33801e-06
1.01296e-06
4.74103e-06
2.35552e-05
2.35626e-05
1.71515e-05
1.46541e-05
1.28879e-05
1.28561e-05
1.37933e-05
1.22379e-05
6.70228e-06
3.18921e-06
9.78554e-07
4.3213e-06
2.28283e-05
2.30293e-05
1.68327e-05
1.52023e-05
1.34005e-05
1.25404e-05
1.22825e-05
1.03464e-05
5.5321e-06
2.92779e-06
6.04134e-06
6.48388e-06
1.00738e-05
1.425e-05
1.30263e-05
1.06993e-05
9.44613e-06
8.73575e-06
7.75217e-06
5.47507e-06
3.67504e-06
2.98755e-06
6.14492e-06
7.50683e-06
2.17338e-05
3.8569e-05
3.05818e-05
1.5901e-05
1.05659e-05
8.84811e-06
7.74688e-06
5.61641e-06
4.02857e-06
3.25391e-06
9.65899e-06
5.80366e-05
0.000115562
0.000110829
6.60499e-05
2.88048e-05
1.68956e-05
1.44079e-05
1.40169e-05
1.21622e-05
6.42851e-06
2.99189e-06
1.27595e-05
7.04964e-05
0.000133457
0.00012506
7.25315e-05
2.9768e-05
1.712e-05
1.57125e-05
1.65689e-05
1.51599e-05
8.07819e-06
3.26934e-06
1.34527e-05
7.60023e-05
0.000137881
0.000127557
7.23712e-05
2.90827e-05
1.6993e-05
1.62543e-05
1.79842e-05
1.66878e-05
8.86084e-06
3.4361e-06
1.36081e-05
7.88651e-05
0.000138613
0.000127516
7.21149e-05
2.88664e-05
1.70128e-05
1.65208e-05
1.86705e-05
1.7407e-05
9.22891e-06
3.52291e-06
1.36222e-05
7.95957e-05
0.000139082
0.000127854
7.25265e-05
2.89339e-05
1.70524e-05
1.66237e-05
1.8917e-05
1.76676e-05
9.36531e-06
3.55536e-06
1.36223e-05
7.95959e-05
0.000139084
0.000127856
7.25288e-05
2.89346e-05
1.70527e-05
1.66241e-05
1.89175e-05
1.76681e-05
9.36558e-06
3.55544e-06
1.36082e-05
7.88657e-05
0.000138618
0.000127522
7.21219e-05
2.88686e-05
1.70137e-05
1.65218e-05
1.86719e-05
1.74084e-05
9.22964e-06
3.52313e-06
1.34528e-05
7.60028e-05
0.000137888
0.000127567
7.23816e-05
2.90857e-05
1.69942e-05
1.62555e-05
1.79861e-05
1.66898e-05
8.86195e-06
3.43644e-06
1.27597e-05
7.04967e-05
0.000133465
0.00012507
7.25436e-05
2.97714e-05
1.7121e-05
1.57136e-05
1.65708e-05
1.5162e-05
8.07957e-06
3.26975e-06
9.65911e-06
5.80371e-05
0.000115569
0.000110839
6.60609e-05
2.88076e-05
1.6896e-05
1.44084e-05
1.40179e-05
1.2164e-05
6.42996e-06
2.9923e-06
6.14492e-06
7.50685e-06
2.17336e-05
3.85724e-05
3.05856e-05
1.59024e-05
1.05664e-05
8.8483e-06
7.74732e-06
5.61722e-06
4.0291e-06
3.2542e-06
1.08126e-05
2.30299e-05
5.31064e-05
7.28222e-05
6.36502e-05
2.98777e-05
1.35293e-05
9.50454e-06
8.33469e-06
6.80013e-06
4.67352e-06
3.48e-06
0.000244307
0.00023173
0.000184978
0.000170402
0.000131928
5.87432e-05
2.64941e-05
2.06771e-05
1.98005e-05
1.54087e-05
6.8958e-06
3.00306e-06
0.00035539
0.00031095
0.000228869
0.000202513
0.000145558
6.50502e-05
3.02833e-05
2.53669e-05
2.5147e-05
1.92768e-05
8.23839e-06
3.21098e-06
0.000374394
0.000329588
0.000243755
0.000212387
0.000147477
6.69364e-05
3.30274e-05
2.83621e-05
2.78817e-05
2.09134e-05
8.88287e-06
3.3549e-06
0.000376153
0.000332158
0.000247187
0.00021419
0.000147263
6.81612e-05
3.47201e-05
2.9866e-05
2.91533e-05
2.16585e-05
9.20869e-06
3.438e-06
0.000375814
0.000333074
0.000248919
0.000215013
0.000147181
6.89084e-05
3.55095e-05
3.04526e-05
2.95983e-05
2.19102e-05
9.33019e-06
3.47066e-06
0.000375815
0.000333075
0.00024892
0.000215014
0.000147183
6.89106e-05
3.55113e-05
3.0454e-05
2.95993e-05
2.19106e-05
9.33039e-06
3.47073e-06
0.000376154
0.000332161
0.000247189
0.000214192
0.000147269
6.81675e-05
3.47251e-05
2.98701e-05
2.91562e-05
2.16596e-05
9.20923e-06
3.43817e-06
0.000374396
0.000329592
0.000243758
0.00021239
0.000147486
6.69455e-05
3.30343e-05
2.8368e-05
2.7886e-05
2.09151e-05
8.88368e-06
3.35515e-06
0.000355392
0.000310956
0.000228874
0.000202517
0.000145569
6.50598e-05
3.0289e-05
2.53725e-05
2.51518e-05
1.92791e-05
8.2394e-06
3.2113e-06
0.000244308
0.000231741
0.000184989
0.000170409
0.000131938
5.87509e-05
2.64973e-05
2.06799e-05
1.98037e-05
1.54112e-05
6.89692e-06
3.00342e-06
1.08127e-05
2.30321e-05
5.31101e-05
7.2827e-05
6.36565e-05
2.98824e-05
1.35305e-05
9.50503e-06
8.33557e-06
6.80168e-06
4.67435e-06
3.48035e-06
1.30645e-05
2.58489e-05
5.20003e-05
7.33008e-05
7.09401e-05
4.3151e-05
1.80564e-05
1.10677e-05
1.03219e-05
8.76652e-06
5.08055e-06
3.56128e-06
7.07233e-05
7.87078e-05
7.64466e-05
9.51362e-05
0.000109685
8.05261e-05
4.58869e-05
3.59804e-05
2.83058e-05
1.62085e-05
6.81963e-06
2.8973e-06
9.5399e-05
9.99696e-05
9.42408e-05
0.000111958
0.000122325
9.14477e-05
5.76219e-05
4.56868e-05
3.47384e-05
1.96196e-05
7.97447e-06
3.01189e-06
9.71609e-05
0.000102479
9.83581e-05
0.000116707
0.000124774
9.4128e-05
6.16932e-05
4.86947e-05
3.69967e-05
2.10494e-05
8.5265e-06
3.11618e-06
9.49966e-05
0.000100829
9.88081e-05
0.000118059
0.000124965
9.49403e-05
6.33181e-05
4.99507e-05
3.79882e-05
2.17246e-05
8.80513e-06
3.18496e-06
9.3868e-05
9.99052e-05
9.87892e-05
0.00011825
0.000124659
9.49711e-05
6.37453e-05
5.0292e-05
3.82926e-05
2.19617e-05
8.9119e-06
3.21413e-06
9.38681e-05
9.99051e-05
9.87891e-05
0.00011825
0.00012466
9.49729e-05
6.37473e-05
5.02933e-05
3.82933e-05
2.1962e-05
8.91201e-06
3.21417e-06
9.49966e-05
0.000100829
9.88077e-05
0.000118059
0.000124967
9.49454e-05
6.3324e-05
4.99548e-05
3.79902e-05
2.17254e-05
8.80546e-06
3.18505e-06
9.71606e-05
0.000102478
9.83577e-05
0.000116705
0.000124778
9.4136e-05
6.17024e-05
4.87011e-05
3.69999e-05
2.10507e-05
8.52703e-06
3.11632e-06
9.5398e-05
9.99693e-05
9.42408e-05
0.000111956
0.00012233
9.14576e-05
5.76338e-05
4.56949e-05
3.47425e-05
1.96214e-05
7.97522e-06
3.01209e-06
7.07217e-05
7.871e-05
7.64492e-05
9.51364e-05
0.000109691
8.05354e-05
4.58961e-05
3.59873e-05
2.83098e-05
1.62107e-05
6.82058e-06
2.89757e-06
1.30647e-05
2.58514e-05
5.20044e-05
7.33049e-05
7.09453e-05
4.31571e-05
1.80587e-05
1.10689e-05
1.03236e-05
8.76854e-06
5.08149e-06
3.56161e-06
1.3452e-05
2.87331e-05
4.86284e-05
6.59447e-05
6.74431e-05
4.69149e-05
2.05186e-05
1.4585e-05
1.38221e-05
9.34658e-06
5.02626e-06
3.54067e-06
2.79696e-05
3.84783e-05
4.59646e-05
6.4638e-05
8.97654e-05
7.96702e-05
5.87411e-05
4.54176e-05
3.0662e-05
1.57503e-05
6.31432e-06
2.66452e-06
3.23952e-05
4.4256e-05
5.16625e-05
7.17642e-05
9.82008e-05
8.93817e-05
6.94806e-05
5.37253e-05
3.61922e-05
1.86328e-05
7.13026e-06
2.68522e-06
3.19835e-05
4.41794e-05
5.2488e-05
7.35578e-05
9.91121e-05
9.08563e-05
7.09143e-05
5.52454e-05
3.79394e-05
1.97882e-05
7.52103e-06
2.74577e-06
3.09686e-05
4.31489e-05
5.2319e-05
7.40412e-05
9.87374e-05
9.10577e-05
7.12763e-05
5.5787e-05
3.87075e-05
2.03452e-05
7.73376e-06
2.79515e-06
3.05014e-05
4.25845e-05
5.21149e-05
7.39958e-05
9.80796e-05
9.07496e-05
7.11602e-05
5.58417e-05
3.89395e-05
2.05518e-05
7.82077e-06
2.81799e-06
3.05014e-05
4.25843e-05
5.21146e-05
7.39955e-05
9.80796e-05
9.07507e-05
7.11612e-05
5.58424e-05
3.89398e-05
2.0552e-05
7.8208e-06
2.818e-06
3.09684e-05
4.31483e-05
5.23183e-05
7.40401e-05
9.87375e-05
9.10611e-05
7.12796e-05
5.5789e-05
3.87085e-05
2.03456e-05
7.73383e-06
2.79517e-06
3.19831e-05
4.41784e-05
5.2487e-05
7.35562e-05
9.91125e-05
9.08615e-05
7.09194e-05
5.52486e-05
3.79412e-05
1.97889e-05
7.52118e-06
2.74581e-06
3.23944e-05
4.42548e-05
5.16615e-05
7.17626e-05
9.82018e-05
8.93881e-05
6.94873e-05
5.37296e-05
3.61947e-05
1.8634e-05
7.13059e-06
2.6853e-06
2.79686e-05
3.8478e-05
4.5965e-05
6.46374e-05
8.97675e-05
7.96767e-05
5.87488e-05
4.54226e-05
3.0665e-05
1.57521e-05
6.31496e-06
2.66469e-06
1.34524e-05
2.87359e-05
4.86323e-05
6.59479e-05
6.74474e-05
4.69208e-05
2.05219e-05
1.45877e-05
1.38247e-05
9.34866e-06
5.0271e-06
3.54098e-06
1.22847e-05
2.7181e-05
4.53718e-05
5.90285e-05
6.15972e-05
4.49057e-05
2.38974e-05
2.01936e-05
1.57706e-05
8.7971e-06
4.78068e-06
3.46513e-06
2.03403e-05
2.61072e-05
3.68654e-05
5.21228e-05
7.28811e-05
7.3999e-05
5.99739e-05
4.56858e-05
2.96307e-05
1.39659e-05
5.34332e-06
2.36786e-06
2.08835e-05
2.78183e-05
3.85382e-05
5.51352e-05
7.71555e-05
8.13471e-05
6.87521e-05
5.29601e-05
3.43693e-05
1.5943e-05
5.88121e-06
2.31059e-06
2.02973e-05
2.75037e-05
3.84076e-05
5.54818e-05
7.67673e-05
8.09684e-05
6.9314e-05
5.41395e-05
3.58153e-05
1.67345e-05
6.15306e-06
2.33558e-06
1.97263e-05
2.69666e-05
3.80234e-05
5.52792e-05
7.59934e-05
8.02196e-05
6.92434e-05
5.45073e-05
3.64433e-05
1.71455e-05
6.31077e-06
2.36742e-06
1.94871e-05
2.66794e-05
3.77899e-05
5.50558e-05
7.53725e-05
7.95683e-05
6.89799e-05
5.45119e-05
3.66405e-05
1.73107e-05
6.37824e-06
2.38381e-06
1.9487e-05
2.66792e-05
3.77896e-05
5.50555e-05
7.53723e-05
7.95685e-05
6.89805e-05
5.45123e-05
3.66406e-05
1.73106e-05
6.37822e-06
2.3838e-06
1.97261e-05
2.6966e-05
3.80226e-05
5.52782e-05
7.59926e-05
8.02202e-05
6.92451e-05
5.45084e-05
3.64437e-05
1.71453e-05
6.3107e-06
2.36739e-06
2.02968e-05
2.75027e-05
3.84064e-05
5.54802e-05
7.67661e-05
8.09694e-05
6.93168e-05
5.41414e-05
3.5816e-05
1.67345e-05
6.15299e-06
2.33555e-06
2.08828e-05
2.78172e-05
3.85369e-05
5.51336e-05
7.71543e-05
8.13491e-05
6.87561e-05
5.29628e-05
3.43707e-05
1.59432e-05
5.88126e-06
2.31058e-06
2.03394e-05
2.61068e-05
3.68652e-05
5.2122e-05
7.2881e-05
7.40029e-05
5.99787e-05
4.56895e-05
2.96331e-05
1.3967e-05
5.34367e-06
2.36794e-06
1.22854e-05
2.71845e-05
4.53761e-05
5.90318e-05
6.16008e-05
4.49111e-05
2.39015e-05
2.0197e-05
1.57734e-05
8.7989e-06
4.78135e-06
3.46539e-06
1.02405e-05
2.32275e-05
4.1541e-05
5.27198e-05
5.48381e-05
4.08354e-05
2.83649e-05
2.33123e-05
1.54353e-05
7.52105e-06
4.33171e-06
3.33074e-06
1.66292e-05
2.19657e-05
3.33386e-05
4.61144e-05
5.98059e-05
6.43242e-05
5.68981e-05
4.32518e-05
2.58468e-05
1.10099e-05
4.26543e-06
2.06685e-06
1.65762e-05
2.24454e-05
3.36629e-05
4.74729e-05
6.21667e-05
6.88244e-05
6.33137e-05
4.87329e-05
2.89767e-05
1.24274e-05
4.60278e-06
1.94841e-06
1.6093e-05
2.21074e-05
3.31837e-05
4.71771e-05
6.15173e-05
6.80541e-05
6.29911e-05
4.94228e-05
2.99217e-05
1.30176e-05
4.78779e-06
1.94587e-06
1.57317e-05
2.17482e-05
3.26948e-05
4.66548e-05
6.07427e-05
6.71879e-05
6.24937e-05
4.9566e-05
3.03566e-05
1.33322e-05
4.89986e-06
1.96318e-06
1.55879e-05
2.15654e-05
3.24432e-05
4.6348e-05
6.02565e-05
6.66129e-05
6.21243e-05
4.953e-05
3.05174e-05
1.34646e-05
4.94932e-06
1.97377e-06
1.55878e-05
2.15652e-05
3.24429e-05
4.63476e-05
6.02561e-05
6.66127e-05
6.21241e-05
4.95298e-05
3.05172e-05
1.34645e-05
4.94927e-06
1.97375e-06
1.57315e-05
2.17476e-05
3.26939e-05
4.66537e-05
6.07415e-05
6.71873e-05
6.24933e-05
4.95654e-05
3.03559e-05
1.33319e-05
4.89971e-06
1.96312e-06
1.60925e-05
2.21064e-05
3.31823e-05
4.71753e-05
6.15156e-05
6.80533e-05
6.29907e-05
4.94223e-05
2.99208e-05
1.30172e-05
4.78761e-06
1.9458e-06
1.65756e-05
2.24444e-05
3.36614e-05
4.7471e-05
6.21648e-05
6.8824e-05
6.33138e-05
4.8733e-05
2.89762e-05
1.24272e-05
4.60267e-06
1.94835e-06
1.66285e-05
2.19652e-05
3.33381e-05
4.61136e-05
5.98048e-05
6.43253e-05
5.69014e-05
4.32541e-05
2.58479e-05
1.10104e-05
4.26558e-06
2.06686e-06
1.0241e-05
2.32309e-05
4.15456e-05
5.27239e-05
5.48419e-05
4.08405e-05
2.8369e-05
2.33156e-05
1.54379e-05
7.52229e-06
4.33216e-06
3.33094e-06
9.25767e-06
1.9416e-05
3.61015e-05
4.55946e-05
4.7595e-05
3.74282e-05
3.01403e-05
2.32035e-05
1.30242e-05
6.10415e-06
3.91067e-06
3.19686e-06
1.37683e-05
1.91736e-05
3.01031e-05
4.11306e-05
5.04408e-05
5.47073e-05
4.95594e-05
3.65991e-05
1.95926e-05
8.03353e-06
3.30612e-06
1.80496e-06
1.37002e-05
1.94921e-05
3.0226e-05
4.19342e-05
5.21135e-05
5.74474e-05
5.33058e-05
3.98082e-05
2.19071e-05
9.05492e-06
3.48483e-06
1.6349e-06
1.33832e-05
1.92233e-05
2.97281e-05
4.14193e-05
5.14666e-05
5.66833e-05
5.3048e-05
4.03595e-05
2.26981e-05
9.49687e-06
3.60378e-06
1.61034e-06
1.3141e-05
1.89491e-05
2.92558e-05
4.08185e-05
5.07545e-05
5.59146e-05
5.26423e-05
4.05139e-05
2.30825e-05
9.73396e-06
3.68005e-06
1.61607e-06
1.30445e-05
1.88131e-05
2.90189e-05
4.04973e-05
5.03523e-05
5.5463e-05
5.23705e-05
4.05309e-05
2.32391e-05
9.83573e-06
3.71445e-06
1.62189e-06
1.30444e-05
1.88129e-05
2.90185e-05
4.04969e-05
5.03518e-05
5.54625e-05
5.23701e-05
4.05305e-05
2.32388e-05
9.83558e-06
3.71439e-06
1.62187e-06
1.31407e-05
1.89484e-05
2.92548e-05
4.08172e-05
5.0753e-05
5.59132e-05
5.26409e-05
4.05126e-05
2.30815e-05
9.73352e-06
3.67989e-06
1.61601e-06
1.33827e-05
1.92223e-05
2.97265e-05
4.14173e-05
5.14644e-05
5.66813e-05
5.30461e-05
4.03577e-05
2.26968e-05
9.4963e-06
3.60356e-06
1.61026e-06
1.36996e-05
1.9491e-05
3.02243e-05
4.1932e-05
5.21112e-05
5.74454e-05
5.33041e-05
3.98065e-05
2.19061e-05
9.05449e-06
3.48466e-06
1.63482e-06
1.37676e-05
1.91731e-05
3.01023e-05
4.11294e-05
5.04395e-05
5.47069e-05
4.95599e-05
3.65992e-05
1.95929e-05
8.03372e-06
3.30615e-06
1.80494e-06
9.25805e-06
1.94184e-05
3.61064e-05
4.55995e-05
4.75994e-05
3.7433e-05
3.01439e-05
2.32067e-05
1.30262e-05
6.10491e-06
3.91097e-06
3.19702e-06
7.34337e-06
1.52894e-05
2.89018e-05
3.85638e-05
4.12579e-05
3.54104e-05
2.95362e-05
2.04539e-05
9.2305e-06
4.93886e-06
3.57192e-06
3.07735e-06
1.04712e-05
1.6331e-05
2.61477e-05
3.58134e-05
4.25267e-05
4.5534e-05
4.02672e-05
2.75528e-05
1.36031e-05
5.59104e-06
2.56574e-06
1.59864e-06
1.07522e-05
1.67506e-05
2.6388e-05
3.63659e-05
4.37167e-05
4.72896e-05
4.27687e-05
3.00871e-05
1.54081e-05
6.28439e-06
2.61019e-06
1.38394e-06
1.06274e-05
1.65869e-05
2.60021e-05
3.5835e-05
4.31275e-05
4.66575e-05
4.26822e-05
3.06886e-05
1.60812e-05
6.60542e-06
2.67553e-06
1.34095e-06
1.04958e-05
1.63919e-05
2.56191e-05
3.52843e-05
4.25214e-05
4.60442e-05
4.24407e-05
3.09095e-05
1.64124e-05
6.77786e-06
2.72367e-06
1.33739e-06
1.04415e-05
1.62936e-05
2.54254e-05
3.49974e-05
4.21949e-05
4.5707e-05
4.22811e-05
3.09831e-05
1.65519e-05
6.85171e-06
2.74607e-06
1.33944e-06
1.04414e-05
1.62934e-05
2.54251e-05
3.49969e-05
4.21944e-05
4.57064e-05
4.22805e-05
3.09825e-05
1.65516e-05
6.85157e-06
2.74602e-06
1.33942e-06
1.04955e-05
1.63912e-05
2.56181e-05
3.52829e-05
4.25197e-05
4.60424e-05
4.24388e-05
3.09079e-05
1.64115e-05
6.77747e-06
2.72352e-06
1.33734e-06
1.06269e-05
1.65858e-05
2.60005e-05
3.58328e-05
4.3125e-05
4.66548e-05
4.26796e-05
3.06864e-05
1.60799e-05
6.60488e-06
2.67533e-06
1.34087e-06
1.07517e-05
1.67495e-05
2.63862e-05
3.63635e-05
4.3714e-05
4.72868e-05
4.27661e-05
3.0085e-05
1.5407e-05
6.28395e-06
2.61002e-06
1.38386e-06
1.04707e-05
1.63306e-05
2.6147e-05
3.58122e-05
4.25253e-05
4.5533e-05
4.02666e-05
2.75524e-05
1.36031e-05
5.59106e-06
2.56571e-06
1.5986e-06
7.34368e-06
1.52915e-05
2.89067e-05
3.85687e-05
4.12626e-05
3.54141e-05
2.95395e-05
2.04564e-05
9.23169e-06
4.93933e-06
3.57213e-06
3.07749e-06
6.09309e-06
1.1017e-05
2.03758e-05
3.06611e-05
3.46109e-05
3.21024e-05
2.55032e-05
1.33301e-05
6.50694e-06
4.14511e-06
3.31735e-06
2.97538e-06
7.75869e-06
1.30845e-05
2.12495e-05
2.95693e-05
3.4493e-05
3.62028e-05
3.02096e-05
1.88184e-05
8.83056e-06
3.85059e-06
2.04669e-06
1.44577e-06
8.01635e-06
1.36766e-05
2.18343e-05
3.00941e-05
3.53525e-05
3.74175e-05
3.21896e-05
2.10081e-05
1.01636e-05
4.25476e-06
1.97815e-06
1.19355e-06
7.99445e-06
1.36382e-05
2.16464e-05
2.97034e-05
3.49263e-05
3.7023e-05
3.23595e-05
2.16663e-05
1.07049e-05
4.46869e-06
1.99878e-06
1.13494e-06
7.93877e-06
1.35278e-05
2.13982e-05
2.92932e-05
3.44863e-05
3.66142e-05
3.2307e-05
2.19414e-05
1.09723e-05
4.58628e-06
2.02465e-06
1.12391e-06
7.91395e-06
1.34675e-05
2.12656e-05
2.90778e-05
3.42515e-05
3.63926e-05
3.22537e-05
2.20489e-05
1.10842e-05
4.63626e-06
2.03783e-06
1.12302e-06
7.91385e-06
1.34673e-05
2.12652e-05
2.90773e-05
3.42509e-05
3.63919e-05
3.2253e-05
2.20484e-05
1.10839e-05
4.63615e-06
2.03779e-06
1.123e-06
7.93852e-06
1.35271e-05
2.13971e-05
2.92917e-05
3.44846e-05
3.66122e-05
3.23051e-05
2.19399e-05
1.09715e-05
4.58597e-06
2.02454e-06
1.12387e-06
7.99406e-06
1.36372e-05
2.16449e-05
2.97013e-05
3.49237e-05
3.70201e-05
3.23567e-05
2.16642e-05
1.07039e-05
4.46828e-06
1.99863e-06
1.13488e-06
8.01593e-06
1.36756e-05
2.18327e-05
3.00918e-05
3.53497e-05
3.74144e-05
3.21868e-05
2.10062e-05
1.01627e-05
4.25441e-06
1.97802e-06
1.19349e-06
7.75837e-06
1.30842e-05
2.12489e-05
2.95681e-05
3.44915e-05
3.62014e-05
3.02085e-05
1.88179e-05
8.83045e-06
3.85054e-06
2.04664e-06
1.44571e-06
6.09314e-06
1.10184e-05
2.03794e-05
3.06649e-05
3.46141e-05
3.2105e-05
2.55056e-05
1.33315e-05
6.5076e-06
4.14539e-06
3.31751e-06
2.9755e-06
5.23019e-06
8.24846e-06
1.33938e-05
2.08871e-05
2.46152e-05
2.37797e-05
1.5685e-05
8.23154e-06
4.89493e-06
3.63539e-06
3.12863e-06
2.88991e-06
5.55673e-06
9.92348e-06
1.59602e-05
2.24175e-05
2.58845e-05
2.63749e-05
2.04297e-05
1.18045e-05
5.55736e-06
2.72964e-06
1.70428e-06
1.33593e-06
5.73699e-06
1.05426e-05
1.69069e-05
2.32866e-05
2.68859e-05
2.7706e-05
2.23814e-05
1.35716e-05
6.41516e-06
2.89332e-06
1.54577e-06
1.05407e-06
5.75975e-06
1.06059e-05
1.69437e-05
2.31598e-05
2.67335e-05
2.76523e-05
2.27964e-05
1.41986e-05
6.80408e-06
3.01433e-06
1.52985e-06
9.8258e-07
5.74844e-06
1.05707e-05
1.68399e-05
2.29383e-05
2.64932e-05
2.74743e-05
2.2905e-05
1.44769e-05
6.99907e-06
3.0868e-06
1.53836e-06
9.65626e-07
5.74207e-06
1.0544e-05
1.67715e-05
2.28117e-05
2.63568e-05
2.73661e-05
2.29317e-05
1.45878e-05
7.07936e-06
3.11789e-06
1.54464e-06
9.62491e-07
5.74199e-06
1.05438e-05
1.67712e-05
2.28113e-05
2.63562e-05
2.73655e-05
2.29311e-05
1.45874e-05
7.07917e-06
3.11782e-06
1.54461e-06
9.62479e-07
5.74824e-06
1.05702e-05
1.6839e-05
2.2937e-05
2.64916e-05
2.74725e-05
2.29033e-05
1.44758e-05
6.99854e-06
3.08659e-06
1.53827e-06
9.65591e-07
5.75945e-06
1.06051e-05
1.69423e-05
2.31579e-05
2.67312e-05
2.76497e-05
2.2794e-05
1.4197e-05
6.80335e-06
3.01404e-06
1.52974e-06
9.82531e-07
5.73669e-06
1.05418e-05
1.69056e-05
2.32846e-05
2.68834e-05
2.77033e-05
2.23791e-05
1.35702e-05
6.41454e-06
2.89308e-06
1.54566e-06
1.05402e-06
5.55656e-06
9.92329e-06
1.59598e-05
2.24166e-05
2.58833e-05
2.63735e-05
2.04288e-05
1.18042e-05
5.55725e-06
2.72958e-06
1.70421e-06
1.33587e-06
5.23004e-06
8.24929e-06
1.33963e-05
2.08898e-05
2.46175e-05
2.37813e-05
1.56864e-05
8.23235e-06
4.8953e-06
3.63559e-06
3.12877e-06
2.89003e-06
4.51539e-06
6.12072e-06
8.61563e-06
1.2624e-05
1.4827e-05
1.35982e-05
8.98471e-06
5.58288e-06
3.99063e-06
3.30512e-06
2.98776e-06
2.81851e-06
3.94893e-06
7.14153e-06
1.11121e-05
1.54116e-05
1.7712e-05
1.72879e-05
1.25729e-05
7.03079e-06
3.55911e-06
2.05493e-06
1.48518e-06
1.25743e-06
4.00609e-06
7.68357e-06
1.21869e-05
1.66124e-05
1.89779e-05
1.88481e-05
1.42938e-05
8.23195e-06
4.00318e-06
2.03582e-06
1.25986e-06
9.53818e-07
4.02984e-06
7.79973e-06
1.23919e-05
1.67596e-05
1.90943e-05
1.91017e-05
1.4812e-05
8.72562e-06
4.24247e-06
2.08282e-06
1.2155e-06
8.72262e-07
4.03603e-06
7.81438e-06
1.24038e-05
1.67185e-05
1.90319e-05
1.91198e-05
1.5006e-05
8.95532e-06
4.36805e-06
2.12047e-06
1.21089e-06
8.50775e-07
4.03824e-06
7.81133e-06
1.23881e-05
1.66746e-05
1.89792e-05
1.91033e-05
1.50736e-05
9.04626e-06
4.41941e-06
2.13766e-06
1.21218e-06
8.45996e-07
4.03819e-06
7.81117e-06
1.23879e-05
1.66742e-05
1.89787e-05
1.91028e-05
1.50732e-05
9.046e-06
4.41929e-06
2.13761e-06
1.21216e-06
8.45987e-07
4.03589e-06
7.81393e-06
1.24031e-05
1.67175e-05
1.90307e-05
1.91184e-05
1.50048e-05
8.95459e-06
4.36771e-06
2.12034e-06
1.21084e-06
8.5075e-07
4.02963e-06
7.79908e-06
1.23909e-05
1.67581e-05
1.90925e-05
1.90996e-05
1.48104e-05
8.72462e-06
4.24202e-06
2.08264e-06
1.21543e-06
8.72226e-07
4.00589e-06
7.68298e-06
1.21859e-05
1.66109e-05
1.8976e-05
1.88461e-05
1.42922e-05
8.23107e-06
4.00281e-06
2.03566e-06
1.25979e-06
9.53779e-07
3.94883e-06
7.14144e-06
1.11119e-05
1.5411e-05
1.77112e-05
1.7287e-05
1.25723e-05
7.03058e-06
3.55902e-06
2.05485e-06
1.48511e-06
1.25737e-06
4.51534e-06
6.12112e-06
8.61706e-06
1.26259e-05
1.48288e-05
1.35994e-05
8.98553e-06
5.58332e-06
3.99086e-06
3.30527e-06
2.98789e-06
2.81862e-06
4.06748e-06
4.84932e-06
5.92024e-06
7.6389e-06
8.61747e-06
7.81467e-06
5.74276e-06
4.24934e-06
3.47058e-06
3.085e-06
2.88097e-06
2.75847e-06
2.87915e-06
5.03451e-06
7.32055e-06
9.76121e-06
1.10875e-05
1.03571e-05
7.27026e-06
4.19714e-06
2.43394e-06
1.66319e-06
1.34529e-06
1.20049e-06
2.80434e-06
5.38287e-06
8.23083e-06
1.09148e-05
1.23364e-05
1.1735e-05
8.47495e-06
4.84857e-06
2.57144e-06
1.5163e-06
1.0739e-06
8.82095e-07
2.8048e-06
5.49176e-06
8.49441e-06
1.1204e-05
1.26221e-05
1.2116e-05
8.92842e-06
5.16645e-06
2.68823e-06
1.50911e-06
1.00865e-06
7.93173e-07
2.81141e-06
5.52509e-06
8.56838e-06
1.12738e-05
1.26844e-05
1.22387e-05
9.12192e-06
5.32281e-06
2.75772e-06
1.52163e-06
9.94555e-07
7.68418e-07
2.81539e-06
5.5334e-06
8.58374e-06
1.12831e-05
1.26901e-05
1.22728e-05
9.19311e-06
5.38458e-06
2.7868e-06
1.52919e-06
9.92356e-07
7.62499e-07
2.81536e-06
5.53328e-06
8.58356e-06
1.12828e-05
1.26898e-05
1.22724e-05
9.19284e-06
5.38442e-06
2.78673e-06
1.52916e-06
9.92343e-07
7.62492e-07
2.81132e-06
5.52478e-06
8.56788e-06
1.12731e-05
1.26835e-05
1.22377e-05
9.12116e-06
5.32238e-06
2.75752e-06
1.52154e-06
9.94519e-07
7.68401e-07
2.80467e-06
5.49132e-06
8.4937e-06
1.12029e-05
1.26208e-05
1.21146e-05
8.92737e-06
5.16587e-06
2.68797e-06
1.509e-06
1.0086e-06
7.93148e-07
2.80422e-06
5.3825e-06
8.23019e-06
1.09138e-05
1.23352e-05
1.17337e-05
8.474e-06
4.84808e-06
2.57122e-06
1.5162e-06
1.07385e-06
8.82064e-07
2.8791e-06
5.0345e-06
7.32045e-06
9.76094e-06
1.10871e-05
1.03566e-05
7.26997e-06
4.19701e-06
2.43386e-06
1.66312e-06
1.34521e-06
1.20043e-06
4.06727e-06
4.8495e-06
5.92092e-06
7.63997e-06
8.61853e-06
7.8154e-06
5.7432e-06
4.24959e-06
3.47075e-06
3.08513e-06
2.88109e-06
2.75858e-06
3.72153e-06
4.01018e-06
4.4315e-06
5.11158e-06
5.4829e-06
5.09556e-06
4.22459e-06
3.55423e-06
3.15794e-06
2.93353e-06
2.79811e-06
2.70736e-06
2.20292e-06
3.57767e-06
4.72073e-06
5.89155e-06
6.52511e-06
5.90176e-06
4.19322e-06
2.67571e-06
1.82952e-06
1.43674e-06
1.25382e-06
1.15813e-06
2.02602e-06
3.72344e-06
5.32011e-06
6.71411e-06
7.43534e-06
6.80647e-06
4.83667e-06
2.91781e-06
1.76345e-06
1.20693e-06
9.5295e-07
8.30337e-07
1.99821e-06
3.7898e-06
5.54687e-06
7.00006e-06
7.73414e-06
7.14038e-06
5.13604e-06
3.0788e-06
1.79376e-06
1.16248e-06
8.73296e-07
7.36383e-07
1.99787e-06
3.81894e-06
5.63124e-06
7.10375e-06
7.84116e-06
7.27571e-06
5.27648e-06
3.16684e-06
1.82353e-06
1.15793e-06
8.52704e-07
7.09432e-07
2.00026e-06
3.82899e-06
5.65654e-06
7.13374e-06
7.87219e-06
7.3212e-06
5.32951e-06
3.20233e-06
1.83742e-06
1.15915e-06
8.48194e-07
7.02782e-07
2.00024e-06
3.82892e-06
5.65643e-06
7.13358e-06
7.87199e-06
7.32099e-06
5.32936e-06
3.20224e-06
1.83738e-06
1.15914e-06
8.48186e-07
7.02778e-07
1.99781e-06
3.81874e-06
5.63093e-06
7.1033e-06
7.84061e-06
7.27514e-06
5.27606e-06
3.16661e-06
1.82342e-06
1.15788e-06
8.52682e-07
7.09422e-07
1.99813e-06
3.78953e-06
5.54645e-06
6.99943e-06
7.73336e-06
7.13958e-06
5.13547e-06
3.07848e-06
1.79361e-06
1.16241e-06
8.73264e-07
7.36366e-07
2.02596e-06
3.72323e-06
5.31976e-06
6.71355e-06
7.43463e-06
6.80576e-06
4.83618e-06
2.91755e-06
1.76332e-06
1.20686e-06
9.52912e-07
8.30313e-07
2.20292e-06
3.57771e-06
4.7207e-06
5.89143e-06
6.5249e-06
5.90153e-06
4.19308e-06
2.67563e-06
1.82944e-06
1.43666e-06
1.25375e-06
1.15807e-06
3.72137e-06
4.01024e-06
4.43181e-06
5.1121e-06
5.48344e-06
5.09594e-06
4.22484e-06
3.5544e-06
3.15807e-06
2.93365e-06
2.79823e-06
2.70748e-06
3.49702e-06
3.4864e-06
3.60846e-06
3.87699e-06
4.01572e-06
3.85215e-06
3.48309e-06
3.17065e-06
2.96108e-06
2.82517e-06
2.73199e-06
2.66327e-06
1.79676e-06
2.65202e-06
3.12191e-06
3.58358e-06
3.82314e-06
3.43154e-06
2.60191e-06
1.90765e-06
1.50821e-06
1.30219e-06
1.19154e-06
1.12574e-06
1.54678e-06
2.62756e-06
3.41424e-06
4.01549e-06
4.30402e-06
3.85474e-06
2.82289e-06
1.88733e-06
1.31729e-06
1.02222e-06
8.73025e-07
7.92293e-07
1.49467e-06
2.64275e-06
3.55908e-06
4.21423e-06
4.51461e-06
4.0607e-06
2.96938e-06
1.93803e-06
1.29178e-06
9.53595e-07
7.84067e-07
6.95104e-07
1.48621e-06
2.65757e-06
3.62323e-06
4.30044e-06
4.6059e-06
4.1571e-06
3.04807e-06
1.97669e-06
1.29594e-06
9.38053e-07
7.59319e-07
6.66783e-07
1.48611e-06
2.66443e-06
3.64513e-06
4.32913e-06
4.63657e-06
4.19195e-06
3.07898e-06
1.99362e-06
1.3003e-06
9.3531e-07
7.53382e-07
6.59707e-07
1.4861e-06
2.66438e-06
3.64507e-06
4.32905e-06
4.63646e-06
4.19184e-06
3.0789e-06
1.99358e-06
1.30028e-06
9.35299e-07
7.53377e-07
6.59704e-07
1.48617e-06
2.65745e-06
3.62306e-06
4.3002e-06
4.6056e-06
4.1568e-06
3.04785e-06
1.97656e-06
1.29588e-06
9.38023e-07
7.59306e-07
6.66777e-07
1.49463e-06
2.6426e-06
3.55885e-06
4.21391e-06
4.5142e-06
4.06029e-06
2.96909e-06
1.93787e-06
1.2917e-06
9.53553e-07
7.84048e-07
6.95094e-07
1.54676e-06
2.62745e-06
3.41407e-06
4.01522e-06
4.30367e-06
3.8544e-06
2.82265e-06
1.88719e-06
1.31721e-06
1.02218e-06
8.72998e-07
7.92275e-07
1.79679e-06
2.6521e-06
3.12193e-06
3.58354e-06
3.82305e-06
3.43144e-06
2.60184e-06
1.90758e-06
1.50814e-06
1.30211e-06
1.19147e-06
1.12568e-06
3.49688e-06
3.48641e-06
3.60861e-06
3.87724e-06
4.01599e-06
3.85237e-06
3.48326e-06
3.17078e-06
2.9612e-06
2.82528e-06
2.7321e-06
2.66338e-06
3.33397e-06
3.15576e-06