/*--------------------------------*- C++ -*----------------------------------*\
| =========                 |                                                 |
| \\      /  F ield         | OpenFOAM: The Open Source CFD Toolbox           |
|  \\    /   O peration     | Version:  2.3.1                                 |
|   \\  /    A nd           | Web:      www.OpenFOAM.org                      |
|    \\/     M anipulation  |                                                 |
\*---------------------------------------------------------------------------*/
FoamFile
{
    version     2.0;
    format      ascii;
    class       volScalarField;
    location    "5";
    object      k;
}
// * * * * * * * * * * * * * * * * * * * * * * * * * * * * * * * * * * * * * //

dimensions      [0 2 -2 0 0 0 0];

internalField   nonuniform List<scalar> 
37758
(
3.14713e-05
3.26351e-05
3.4354e-05
3.71877e-05
4.04694e-05
4.1298e-05
4.02777e-05
3.59854e-05
2.67917e-05
1.95421e-05
1.54618e-05
1.34754e-05
3.21061e-05
3.59004e-05
3.88445e-05
4.24615e-05
4.9394e-05
5.17221e-05
5.05581e-05
4.66019e-05
3.95106e-05
2.82941e-05
2.00139e-05
1.6152e-05
3.20147e-05
3.60649e-05
3.88154e-05
4.25781e-05
4.94405e-05
5.17588e-05
5.08271e-05
4.75512e-05
4.24951e-05
3.18421e-05
2.16227e-05
1.6832e-05
3.19567e-05
3.61669e-05
3.88447e-05
4.24945e-05
4.92975e-05
5.13707e-05
5.04269e-05
4.74093e-05
4.31744e-05
3.36317e-05
2.23416e-05
1.70405e-05
3.19387e-05
3.62117e-05
3.88481e-05
4.24377e-05
4.91829e-05
5.12195e-05
5.0301e-05
4.74424e-05
4.34845e-05
3.43251e-05
2.26366e-05
1.7123e-05
3.19272e-05
3.62304e-05
3.88602e-05
4.24315e-05
4.91335e-05
5.11501e-05
5.02417e-05
4.74428e-05
4.35877e-05
3.45751e-05
2.27406e-05
1.71478e-05
3.19272e-05
3.62304e-05
3.88602e-05
4.24315e-05
4.91336e-05
5.11502e-05
5.02418e-05
4.7443e-05
4.3588e-05
3.45759e-05
2.27411e-05
1.71481e-05
3.19387e-05
3.62117e-05
3.88481e-05
4.24377e-05
4.91829e-05
5.12197e-05
5.03013e-05
4.74429e-05
4.34856e-05
3.43272e-05
2.2638e-05
1.71238e-05
3.19567e-05
3.61669e-05
3.88447e-05
4.24945e-05
4.92976e-05
5.1371e-05
5.04274e-05
4.74102e-05
4.3176e-05
3.36347e-05
2.23437e-05
1.70417e-05
3.20148e-05
3.60649e-05
3.88154e-05
4.25781e-05
4.94405e-05
5.17591e-05
5.08276e-05
4.75522e-05
4.24969e-05
3.18456e-05
2.16251e-05
1.68334e-05
3.21061e-05
3.59004e-05
3.88445e-05
4.24615e-05
4.93939e-05
5.17223e-05
5.05586e-05
4.66029e-05
3.95129e-05
2.82969e-05
2.0016e-05
1.61534e-05
3.14713e-05
3.26352e-05
3.43539e-05
3.71876e-05
4.04694e-05
4.12982e-05
4.02782e-05
3.59868e-05
2.67938e-05
1.95438e-05
1.54631e-05
1.34764e-05
3.10149e-05
3.19152e-05
3.49188e-05
3.81918e-05
4.05798e-05
4.13195e-05
4.0975e-05
3.96946e-05
3.67445e-05
2.91621e-05
2.09974e-05
1.75222e-05
3.01369e-05
3.11679e-05
3.87331e-05
3.93247e-05
4.25857e-05
4.67444e-05
4.6028e-05
4.43461e-05
4.13778e-05
3.33874e-05
2.37347e-05
1.95732e-05
3.01028e-05
3.09898e-05
3.69181e-05
3.78856e-05
4.16815e-05
4.624e-05
4.57375e-05
4.4699e-05
4.33849e-05
3.75964e-05
2.65914e-05
2.14206e-05
3.0085e-05
3.09121e-05
3.57847e-05
3.67453e-05
4.06924e-05
4.52852e-05
4.49358e-05
4.44975e-05
4.40748e-05
3.96617e-05
2.81719e-05
2.21561e-05
3.00775e-05
3.08687e-05
3.53104e-05
3.62522e-05
4.00943e-05
4.46329e-05
4.43965e-05
4.4322e-05
4.45024e-05
4.05319e-05
2.89386e-05
2.2457e-05
3.00745e-05
3.08542e-05
3.51364e-05
3.60625e-05
3.98566e-05
4.43594e-05
4.41676e-05
4.42205e-05
4.46991e-05
4.08411e-05
2.92116e-05
2.25588e-05
3.00745e-05
3.08542e-05
3.51366e-05
3.60626e-05
3.98566e-05
4.43593e-05
4.41675e-05
4.42205e-05
4.46995e-05
4.08418e-05
2.92125e-05
2.25591e-05
3.00775e-05
3.08687e-05
3.53109e-05
3.62526e-05
4.00943e-05
4.46327e-05
4.43962e-05
4.43219e-05
4.45036e-05
4.05341e-05
2.8941e-05
2.24581e-05
3.0085e-05
3.09121e-05
3.57854e-05
3.67458e-05
4.06925e-05
4.52849e-05
4.49354e-05
4.44976e-05
4.40759e-05
3.9665e-05
2.81756e-05
2.21577e-05
3.01028e-05
3.09898e-05
3.69188e-05
3.78862e-05
4.16815e-05
4.62395e-05
4.5737e-05
4.46988e-05
4.3386e-05
3.76006e-05
2.6595e-05
2.14224e-05
3.01368e-05
3.11678e-05
3.87333e-05
3.93249e-05
4.25853e-05
4.67438e-05
4.60273e-05
4.43454e-05
4.13784e-05
3.3391e-05
2.37377e-05
1.95747e-05
3.10149e-05
3.19152e-05
3.49187e-05
3.81921e-05
4.058e-05
4.13197e-05
4.09752e-05
3.96951e-05
3.67455e-05
2.91641e-05
2.09991e-05
1.75233e-05
3.06401e-05
3.2112e-05
4.29493e-05
5.43663e-05
5.12274e-05
4.49072e-05
4.13115e-05
3.92035e-05
3.62115e-05
2.87414e-05
2.20149e-05
1.91604e-05
3.12277e-05
3.92801e-05
8.08265e-05
8.19045e-05
6.77425e-05
5.90435e-05
5.02756e-05
4.61347e-05
4.52923e-05
4.24581e-05
3.4156e-05
2.71629e-05
3.12278e-05
3.92418e-05
8.02642e-05
8.13978e-05
6.83447e-05
5.75901e-05
4.94287e-05
4.73678e-05
4.96436e-05
4.92765e-05
4.18248e-05
3.15191e-05
3.12321e-05
3.93856e-05
7.79078e-05
7.86605e-05
6.64392e-05
5.52932e-05
4.83107e-05
4.75854e-05
5.21877e-05
5.32623e-05
4.55407e-05
3.32886e-05
3.12297e-05
3.95287e-05
7.67118e-05
7.74207e-05
6.55164e-05
5.41542e-05
4.77683e-05
4.76141e-05
5.35461e-05
5.52915e-05
4.72577e-05
3.40019e-05
3.1226e-05
3.95377e-05
7.61845e-05
7.69783e-05
6.52695e-05
5.37265e-05
4.75666e-05
4.76155e-05
5.41031e-05
5.60645e-05
4.78826e-05
3.4237e-05
3.1226e-05
3.95377e-05
7.61854e-05
7.69795e-05
6.52705e-05
5.37266e-05
4.75667e-05
4.76157e-05
5.41041e-05
5.60661e-05
4.78841e-05
3.42377e-05
3.12297e-05
3.95288e-05
7.67146e-05
7.74246e-05
6.55196e-05
5.41546e-05
4.77684e-05
4.76148e-05
5.35489e-05
5.52959e-05
4.72619e-05
3.40038e-05
3.12321e-05
3.93856e-05
7.79115e-05
7.8666e-05
6.64438e-05
5.52937e-05
4.83109e-05
4.75864e-05
5.21913e-05
5.32688e-05
4.55472e-05
3.32915e-05
3.12278e-05
3.92417e-05
8.02679e-05
8.14044e-05
6.83499e-05
5.75907e-05
4.94286e-05
4.73686e-05
4.96472e-05
4.92828e-05
4.18325e-05
3.15224e-05
3.12277e-05
3.92799e-05
8.08285e-05
8.19098e-05
6.77468e-05
5.90437e-05
5.02751e-05
4.61345e-05
4.52942e-05
4.24631e-05
3.41625e-05
2.71654e-05
3.06401e-05
3.2112e-05
4.29486e-05
5.43682e-05
5.12292e-05
4.49081e-05
4.13119e-05
3.92038e-05
3.62123e-05
2.87436e-05
2.20166e-05
1.91615e-05
3.09853e-05
3.53763e-05
7.15326e-05
0.000105549
9.06169e-05
5.85898e-05
4.45483e-05
3.95423e-05
3.61895e-05
2.92155e-05
2.3399e-05
2.02852e-05
5.42938e-05
0.000150103
0.000270141
0.000264719
0.000180662
9.50619e-05
6.3239e-05
5.58637e-05
5.79213e-05
5.8807e-05
4.8208e-05
3.37242e-05
5.59567e-05
0.00015593
0.000294411
0.000284275
0.000191361
9.62012e-05
6.44732e-05
6.08876e-05
6.94761e-05
7.37889e-05
5.93701e-05
3.97996e-05
5.65627e-05
0.000162703
0.000299517
0.000286713
0.000190583
9.4102e-05
6.47099e-05
6.3406e-05
7.68972e-05
8.19727e-05
6.45895e-05
4.22817e-05
5.68232e-05
0.000167248
0.000299819
0.000285944
0.000190076
9.35696e-05
6.52132e-05
6.47744e-05
8.07041e-05
8.59233e-05
6.69875e-05
4.32879e-05
5.68631e-05
0.000168399
0.000300008
0.000286093
0.00019083
9.37095e-05
6.55413e-05
6.53812e-05
8.22022e-05
8.74098e-05
6.78571e-05
4.36189e-05
5.68632e-05
0.000168399
0.000300011
0.000286097
0.000190835
9.37112e-05
6.55424e-05
6.53826e-05
8.22048e-05
8.74125e-05
6.78588e-05
4.36197e-05
5.68233e-05
0.000167247
0.000299829
0.000285956
0.000190091
9.35748e-05
6.52163e-05
6.47784e-05
8.07119e-05
8.59311e-05
6.69925e-05
4.32899e-05
5.65629e-05
0.000162702
0.000299531
0.000286731
0.000190605
9.41091e-05
6.47139e-05
6.34113e-05
7.69084e-05
8.19845e-05
6.45972e-05
4.22848e-05
5.5957e-05
0.000155928
0.000294426
0.000284296
0.000191387
9.62086e-05
6.44765e-05
6.08926e-05
6.9487e-05
7.38018e-05
5.93792e-05
3.98033e-05
5.4294e-05
0.000150103
0.000270153
0.000264737
0.000180685
9.50675e-05
6.32404e-05
5.58665e-05
5.79281e-05
5.8817e-05
4.82163e-05
3.37274e-05
3.09853e-05
3.53764e-05
7.15321e-05
0.000105556
9.06243e-05
5.85934e-05
4.45496e-05
3.95428e-05
3.61909e-05
2.92183e-05
2.3401e-05
2.02864e-05
4.51612e-05
7.45563e-05
0.000130137
0.000160959
0.000147413
8.93524e-05
5.25917e-05
4.14736e-05
3.79706e-05
3.31503e-05
2.58382e-05
2.12189e-05
0.000337734
0.000402517
0.00040678
0.000391943
0.000322417
0.000164724
9.03045e-05
8.07222e-05
8.76187e-05
8.53333e-05
5.92531e-05
3.82486e-05
0.000477546
0.000493844
0.000476789
0.000441462
0.000348859
0.000176026
0.000101161
9.68018e-05
0.000110573
0.000106568
7.18024e-05
4.53313e-05
0.000501388
0.000517821
0.000498181
0.000456572
0.000354003
0.000179891
0.000108945
0.000107255
0.000123066
0.000117052
7.72217e-05
4.82227e-05
0.000503724
0.000521975
0.000501858
0.000458764
0.000355057
0.000183006
0.000113864
0.000112936
0.000129082
0.000121995
7.97079e-05
4.9404e-05
0.000503291
0.000523216
0.000503215
0.000459646
0.00035589
0.000184962
0.000116191
0.00011537
0.000131345
0.000123828
8.06141e-05
4.97963e-05
0.000503292
0.000523218
0.000503217
0.000459648
0.000355894
0.000184966
0.000116196
0.000115374
0.000131349
0.000123831
8.06155e-05
4.97969e-05
0.000503725
0.000521979
0.000501863
0.000458771
0.000355071
0.00018302
0.000113877
0.000112949
0.000129094
0.000122004
7.97117e-05
4.94058e-05
0.000501389
0.000517827
0.000498189
0.000456583
0.000354025
0.000179911
0.000108963
0.000107273
0.000123084
0.000117066
7.72278e-05
4.82254e-05
0.000477546
0.000493853
0.000476799
0.000441475
0.000348885
0.000176047
0.000101176
9.68195e-05
0.000110593
0.000106585
7.18103e-05
4.53344e-05
0.000337732
0.000402537
0.000406796
0.000391957
0.00032244
0.000164742
9.03123e-05
8.07323e-05
8.76333e-05
8.53473e-05
5.92614e-05
3.82516e-05
4.51614e-05
7.45609e-05
0.000130143
0.000160966
0.000147423
8.93616e-05
5.2595e-05
4.1475e-05
3.79733e-05
3.31553e-05
2.58412e-05
2.12203e-05
5.1226e-05
8.06459e-05
0.000128418
0.000161622
0.000158308
0.000114
6.37593e-05
4.58823e-05
4.37418e-05
3.92817e-05
2.73378e-05
2.15516e-05
0.00020514
0.000269881
0.000292989
0.000318768
0.000310474
0.000217379
0.000135558
0.000125548
0.000125731
0.000104899
6.22401e-05
4.01812e-05
0.00025227
0.00032021
0.000341758
0.000361968
0.000346576
0.000246236
0.000170093
0.000160743
0.000157547
0.000126823
7.51693e-05
4.79101e-05
0.000256639
0.000327311
0.000352857
0.000373029
0.000355668
0.000256638
0.000186899
0.000177067
0.000171579
0.000136417
8.06864e-05
5.10688e-05
0.000253365
0.000324048
0.000353556
0.000375114
0.000357629
0.000261673
0.000194969
0.000184622
0.000177976
0.000140948
8.31724e-05
5.23495e-05
0.00025154
0.00032194
0.000353013
0.00037503
0.000357653
0.000263454
0.000197986
0.000187355
0.000180249
0.000142639
8.40804e-05
5.27747e-05
0.00025154
0.00032194
0.000353013
0.000375032
0.000357656
0.00026346
0.000197992
0.000187361
0.000180253
0.000142641
8.40812e-05
5.27752e-05
0.000253365
0.000324048
0.000353556
0.000375117
0.000357637
0.000261689
0.000194989
0.000184639
0.000177989
0.000140953
8.31748e-05
5.23506e-05
0.000256638
0.000327311
0.000352858
0.000373033
0.000355679
0.000256662
0.000186928
0.000177093
0.000171599
0.000136425
8.06903e-05
5.10706e-05
0.000252268
0.00032021
0.00034176
0.000361974
0.000346589
0.000246264
0.000170125
0.000160773
0.00015757
0.000126834
7.51745e-05
4.79122e-05
0.000205136
0.000269887
0.000292996
0.000318776
0.000310489
0.000217402
0.00013558
0.00012557
0.000125751
0.000104911
6.22461e-05
4.01835e-05
5.12266e-05
8.06513e-05
0.000128425
0.000161628
0.000158316
0.000114011
6.37648e-05
4.58856e-05
4.37466e-05
3.92878e-05
2.73412e-05
2.1553e-05
5.22147e-05
8.65495e-05
0.000122887
0.000150599
0.000153028
0.000120427
6.93599e-05
5.50669e-05
5.31524e-05
4.10529e-05
2.71428e-05
2.14684e-05
0.000151
0.000214633
0.000245019
0.000272493
0.000286063
0.00023853
0.000184015
0.000172101
0.00015368
0.000106087
6.17536e-05
4.03024e-05
0.000173447
0.000249873
0.000280836
0.000306965
0.000320644
0.000276784
0.000230616
0.00021468
0.000186689
0.000127509
7.47296e-05
4.84247e-05
0.000175195
0.000254325
0.000288185
0.000316219
0.000329285
0.000288799
0.000247192
0.000229951
0.000199611
0.000136803
8.02277e-05
5.17559e-05
0.00017319
0.000252003
0.00028836
0.000318462
0.000331459
0.000293461
0.000254091
0.000236421
0.000205421
0.000141179
8.26634e-05
5.3091e-05
0.000172053
0.000250205
0.000287548
0.000318521
0.000331404
0.000294542
0.000256215
0.0002385
0.000207481
0.000142835
8.35488e-05
5.35312e-05
0.000172053
0.000250204
0.000287548
0.000318521
0.000331406
0.000294546
0.000256221
0.000238505
0.000207483
0.000142836
8.35494e-05
5.35314e-05
0.000173189
0.000252001
0.000288359
0.000318463
0.000331464
0.000293474
0.000254108
0.000236435
0.000205429
0.000141183
8.26651e-05
5.30916e-05
0.000175194
0.000254322
0.000288184
0.00031622
0.000329293
0.000288819
0.000247218
0.000229972
0.000199623
0.000136809
8.02304e-05
5.17567e-05
0.000173445
0.000249869
0.000280835
0.000306967
0.000320655
0.000276809
0.000230648
0.000214707
0.000186705
0.000127517
7.47336e-05
4.84259e-05
0.000150996
0.000214633
0.000245022
0.000272497
0.000286074
0.000238554
0.000184045
0.000172126
0.000153697
0.000106097
6.17587e-05
4.0304e-05
5.22159e-05
8.65551e-05
0.000122893
0.000150604
0.000153034
0.000120437
6.93674e-05
5.50737e-05
5.3159e-05
4.1059e-05
2.71458e-05
2.14697e-05
4.91443e-05
8.33955e-05
0.000117364
0.000139889
0.000144023
0.000116916
7.6633e-05
6.84094e-05
5.81153e-05
3.94469e-05
2.62526e-05
2.11612e-05
0.000142634
0.000181745
0.000221508
0.000248721
0.000264705
0.000243127
0.000215563
0.000196813
0.000158337
0.000102082
5.95148e-05
3.96701e-05
0.00015711
0.000211348
0.000251919
0.000279352
0.000296598
0.000282069
0.000261327
0.000238226
0.000189956
0.000123211
7.24159e-05
4.78683e-05
0.00015885
0.000217168
0.0002589
0.000288299
0.000305693
0.000293933
0.00027529
0.000251888
0.000202311
0.000132128
7.7821e-05
5.12479e-05
0.000157738
0.000216756
0.000259421
0.000290441
0.000308285
0.000298092
0.000280495
0.000257367
0.000207857
0.000136221
8.01474e-05
5.2591e-05
0.000157041
0.000215846
0.000258843
0.000290581
0.000308536
0.000298992
0.000281902
0.000259072
0.000209876
0.000137773
8.09811e-05
5.303e-05
0.000157041
0.000215845
0.000258843
0.000290581
0.000308537
0.000298994
0.000281905
0.000259074
0.000209877
0.000137773
8.09812e-05
5.30301e-05
0.000157737
0.000216754
0.000259419
0.000290441
0.000308288
0.000298099
0.000280505
0.000257374
0.000207861
0.000136223
8.01479e-05
5.25911e-05
0.000158848
0.000217165
0.000258897
0.0002883
0.000305699
0.000293945
0.000275306
0.000251899
0.000202317
0.00013213
7.78221e-05
5.12481e-05
0.000157108
0.000211345
0.000251917
0.000279354
0.000296606
0.000282085
0.000261348
0.000238241
0.000189965
0.000123216
7.24179e-05
4.78689e-05
0.000142631
0.000181745
0.00022151
0.000248726
0.000264714
0.000243146
0.000215586
0.000196831
0.00015835
0.00010209
5.95184e-05
3.96714e-05
4.91462e-05
8.34027e-05
0.000117372
0.000139894
0.000144028
0.000116925
7.66417e-05
6.84171e-05
5.81222e-05
3.94523e-05
2.6255e-05
2.11623e-05
4.35428e-05
7.51167e-05
0.000110677
0.000129753
0.000133286
0.000109634
8.58447e-05
7.536e-05
5.73316e-05
3.55451e-05
2.45765e-05
2.06079e-05
0.000129931
0.000166872
0.000209852
0.000237364
0.000250382
0.000241151
0.000223056
0.000198652
0.000152973
9.25272e-05
5.48933e-05
3.80781e-05
0.000145568
0.000193972
0.0002385
0.000267772
0.000282238
0.000280395
0.000267159
0.000238907
0.000183381
0.000112729
6.7517e-05
4.6287e-05
0.000148404
0.000200776
0.000246008
0.00027699
0.000292333
0.000292481
0.00028042
0.000252312
0.000195254
0.000121105
7.27644e-05
4.9701e-05
0.000148156
0.000201513
0.000246985
0.000279062
0.000295282
0.000296484
0.000285055
0.000257596
0.000200536
0.00012482
7.4942e-05
5.10435e-05
0.000147811
0.000201167
0.00024666
0.000279194
0.000295788
0.000297357
0.000286276
0.000259267
0.000202491
0.000126216
7.57001e-05
5.14757e-05
0.000147811
0.000201166
0.000246659
0.000279193
0.000295788
0.000297358
0.000286278
0.000259268
0.000202491
0.000126216
7.56998e-05
5.14756e-05
0.000148155
0.000201511
0.000246983
0.000279062
0.000295284
0.00029649
0.00028506
0.0002576
0.000200537
0.00012482
7.49411e-05
5.1043e-05
0.000148402
0.000200772
0.000246005
0.000276989
0.000292337
0.00029249
0.000280428
0.000252318
0.000195257
0.000121104
7.27635e-05
4.97004e-05
0.000145566
0.000193969
0.000238497
0.000267773
0.000282243
0.000280407
0.000267171
0.000238918
0.000183386
0.000112731
6.75169e-05
4.62867e-05
0.000129927
0.000166872
0.000209853
0.000237369
0.00025039
0.000241168
0.000223073
0.000198667
0.000152983
9.25326e-05
5.48955e-05
3.80788e-05
4.35441e-05
7.5124e-05
0.000110685
0.00012976
0.000133292
0.000109643
8.5853e-05
7.53673e-05
5.73381e-05
3.5549e-05
2.45782e-05
2.06087e-05
4.07131e-05
6.66755e-05
0.000100802
0.0001178
0.000121277
0.000103365
8.94164e-05
7.51624e-05
5.12799e-05
3.09218e-05
2.29494e-05
2.0049e-05
0.000119474
0.000154207
0.000198225
0.000227047
0.000238686
0.000236687
0.000220693
0.000192427
0.00013606
8.00903e-05
4.95351e-05
3.60112e-05
0.000134133
0.000180596
0.00022749
0.000258847
0.00027287
0.000276126
0.000263951
0.000230592
0.000164386
9.90332e-05
6.15658e-05
4.39716e-05
0.000137632
0.000188154
0.000235894
0.00026852
0.000283825
0.000288288
0.000277011
0.000243495
0.000175514
0.000106907
6.66041e-05
4.73351e-05
0.000137934
0.000189616
0.000237388
0.00027066
0.000286833
0.000291999
0.000281449
0.000248546
0.000180351
0.000110298
6.86582e-05
4.86558e-05
0.00013782
0.000189639
0.000237297
0.000270804
0.000287349
0.000292784
0.000282624
0.000250203
0.000182169
0.00011154
6.93548e-05
4.90763e-05
0.00013782
0.000189638
0.000237296
0.000270803
0.000287349
0.000292785
0.000282624
0.000250203
0.000182168
0.00011154
6.93543e-05
4.9076e-05
0.000137932
0.000189613
0.000237385
0.000270658
0.000286833
0.000292001
0.000281452
0.000248545
0.000180349
0.000110296
6.86568e-05
4.8655e-05
0.00013763
0.00018815
0.00023589
0.000268518
0.000283826
0.000288292
0.000277015
0.000243496
0.000175511
0.000106905
6.66025e-05
4.73341e-05
0.000134131
0.000180592
0.000227486
0.000258846
0.000272873
0.000276134
0.000263959
0.000230596
0.000164385
9.90324e-05
6.15649e-05
4.39709e-05
0.000119469
0.000154207
0.000198226
0.000227051
0.000238693
0.0002367
0.000220708
0.000192438
0.000136066
8.00939e-05
4.95365e-05
3.60117e-05
4.07143e-05
6.6681e-05
0.000100811
0.000117809
0.000121285
0.000103374
8.94236e-05
7.51693e-05
5.1285e-05
3.09244e-05
2.29505e-05
2.00497e-05
3.48862e-05
5.68668e-05
8.69217e-05
0.000105375
0.00011025
9.95802e-05
8.82454e-05
6.92089e-05
4.07689e-05
2.68352e-05
2.1597e-05
1.95437e-05
0.000104449
0.000141244
0.000183187
0.000212234
0.000224471
0.000226209
0.000210064
0.000172048
0.000112713
6.7509e-05
4.43066e-05
3.39338e-05
0.00011981
0.000167207
0.000213183
0.00024512
0.000260137
0.000265165
0.000250421
0.000206361
0.000138943
8.48534e-05
5.55026e-05
4.14392e-05
0.000123937
0.000175238
0.000222414
0.000255268
0.000271227
0.000276975
0.000262851
0.000218622
0.000149484
9.21334e-05
6.0256e-05
4.46736e-05
0.000124724
0.000177191
0.000224456
0.000257627
0.000274139
0.000280315
0.000266981
0.000223472
0.000153986
9.51982e-05
6.21777e-05
4.59479e-05
0.000124818
0.000177468
0.000224618
0.000257862
0.000274616
0.000280986
0.000268112
0.00022516
0.000155652
9.62878e-05
6.28157e-05
4.63508e-05
0.000124817
0.000177467
0.000224617
0.00025786
0.000274615
0.000280985
0.000268111
0.000225159
0.000155651
9.62869e-05
6.28152e-05
4.63505e-05
0.000124722
0.000177187
0.000224453
0.000257624
0.000274136
0.000280312
0.000266978
0.000223466
0.000153982
9.51956e-05
6.21762e-05
4.5947e-05
0.000123934
0.000175233
0.000222409
0.000255263
0.000271223
0.000276973
0.000262847
0.000218616
0.000149479
9.21301e-05
6.0254e-05
4.46725e-05
0.000119807
0.000167202
0.000213179
0.000245117
0.000260135
0.000265166
0.000250421
0.000206358
0.000138939
8.48514e-05
5.55013e-05
4.14384e-05
0.000104445
0.000141243
0.000183188
0.000212237
0.000224477
0.000226218
0.000210074
0.000172053
0.000112717
6.75112e-05
4.43076e-05
3.39342e-05
3.48872e-05
5.68719e-05
8.69315e-05
0.000105384
0.000110259
9.95872e-05
8.8252e-05
6.92146e-05
4.07724e-05
2.68369e-05
2.15978e-05
1.95442e-05
3.08117e-05
4.57193e-05
6.88787e-05
9.04636e-05
9.8078e-05
9.32983e-05
8.0123e-05
5.21158e-05
3.22743e-05
2.38627e-05
2.05526e-05
1.91074e-05
8.97161e-05
0.000125237
0.000162865
0.000190862
0.00020303
0.000203877
0.000184199
0.000140439
9.00708e-05
5.64355e-05
3.96948e-05
3.20426e-05
0.000103947
0.000150561
0.000193346
0.000223888
0.000238225
0.000241423
0.000220529
0.000172112
0.000113501
7.18754e-05
4.98565e-05
3.89361e-05
0.000108263
0.000158822
0.000203227
0.000234383
0.000249284
0.000252931
0.000232573
0.000184055
0.000123174
7.8457e-05
5.42508e-05
4.19679e-05
0.000109368
0.000161142
0.000205823
0.000237088
0.000252296
0.000256267
0.000236745
0.000188855
0.00012726
8.1193e-05
5.60254e-05
4.31686e-05
0.00010961
0.000161624
0.000206256
0.000237508
0.000252854
0.00025701
0.000237994
0.000190551
0.00012874
8.21391e-05
5.6606e-05
4.35464e-05
0.000109609
0.000161622
0.000206254
0.000237506
0.000252852
0.000257008
0.000237992
0.000190549
0.000128738
8.21382e-05
5.66055e-05
4.35461e-05
0.000109366
0.000161138
0.000205819
0.000237083
0.000252291
0.000256262
0.000236739
0.000188848
0.000127256
8.11903e-05
5.60239e-05
4.31678e-05
0.00010826
0.000158817
0.000203221
0.000234377
0.000249278
0.000252923
0.000232564
0.000184047
0.000123168
7.84536e-05
5.42489e-05
4.19669e-05
0.000103944
0.000150556
0.000193341
0.000223883
0.000238221
0.000241418
0.000220523
0.000172106
0.000113497
7.18731e-05
4.98553e-05
3.89354e-05
8.97125e-05
0.000125236
0.000162867
0.000190865
0.000203035
0.000203882
0.000184203
0.000140442
9.00731e-05
5.64369e-05
3.96956e-05
3.20431e-05
3.08118e-05
4.57231e-05
6.88868e-05
9.04711e-05
9.80841e-05
9.33035e-05
8.01281e-05
5.21196e-05
3.22765e-05
2.38638e-05
2.05532e-05
1.91079e-05
2.78293e-05
3.77043e-05
5.20909e-05
7.00759e-05
7.81949e-05
7.64863e-05
5.80568e-05
3.77644e-05
2.66739e-05
2.18534e-05
1.97614e-05
1.8738e-05
7.57061e-05
0.000107991
0.00013866
0.000162958
0.000173999
0.000172515
0.00014953
0.000109143
7.08849e-05
4.75011e-05
3.59016e-05
3.04388e-05
8.82362e-05
0.000131393
0.000168629
0.000195404
0.000207888
0.000207749
0.000182892
0.000137225
9.09975e-05
6.09108e-05
4.49023e-05
3.66337e-05
9.2422e-05
0.000139559
0.000178871
0.000206151
0.000218883
0.000219181
0.00019473
0.000148369
9.95304e-05
6.67288e-05
4.88781e-05
3.94048e-05
9.36944e-05
0.000142126
0.000181955
0.000209291
0.000222122
0.000222805
0.000199067
0.000152917
0.000103118
6.91352e-05
5.04877e-05
4.05066e-05
9.40334e-05
0.000142768
0.000182653
0.000209959
0.00022284
0.000223741
0.00020045
0.000154523
0.000104386
6.99495e-05
5.10092e-05
4.08516e-05
9.40329e-05
0.000142766
0.000182651
0.000209957
0.000222837
0.000223739
0.000200447
0.000154521
0.000104384
6.99486e-05
5.10087e-05
4.08513e-05
9.3693e-05
0.000142122
0.000181951
0.000209285
0.000222116
0.000222798
0.00019906
0.000152911
0.000103114
6.91328e-05
5.04864e-05
4.05058e-05
9.24198e-05
0.000139554
0.000178865
0.000206144
0.000218875
0.000219172
0.00019472
0.000148361
9.95253e-05
6.67259e-05
4.88765e-05
3.94039e-05
8.82338e-05
0.000131388
0.000168624
0.000195398
0.000207882
0.000207741
0.000182885
0.000137219
9.09938e-05
6.09088e-05
4.49013e-05
3.66332e-05
7.57033e-05
0.000107989
0.000138661
0.000162961
0.000174002
0.000172518
0.000149532
0.000109145
7.08865e-05
4.75023e-05
3.59024e-05
3.04393e-05
2.78287e-05
3.77069e-05
5.20974e-05
7.00818e-05
7.81998e-05
7.64898e-05
5.80603e-05
3.77669e-05
2.66752e-05
2.18542e-05
1.9762e-05
1.87386e-05
2.52312e-05
3.0906e-05
3.88257e-05
5.01141e-05
5.58023e-05
5.27352e-05
4.00254e-05
2.9126e-05
2.32621e-05
2.05017e-05
1.91607e-05
1.84268e-05
6.31613e-05
9.02973e-05
0.000113423
0.000131973
0.000140845
0.000137009
0.000114717
8.25258e-05
5.6143e-05
4.07165e-05
3.29496e-05
2.91455e-05
7.39703e-05
0.000111316
0.000141374
0.000162429
0.00017239
0.00016892
0.000143997
0.000106154
7.28781e-05
5.21254e-05
4.07474e-05
3.46347e-05
7.77944e-05
0.000119083
0.00015153
0.000173128
0.000183207
0.000180038
0.00015514
0.00011598
8.01448e-05
5.7171e-05
4.42666e-05
3.71111e-05
7.90868e-05
0.000121743
0.000154926
0.000176624
0.000186717
0.000183883
0.000159434
0.000120049
8.31942e-05
5.92551e-05
4.56955e-05
3.80961e-05
7.94674e-05
0.000122486
0.000155828
0.000177525
0.000187627
0.000184998
0.000160855
0.000121473
8.4249e-05
5.99493e-05
4.61547e-05
3.84025e-05
7.94669e-05
0.000122485
0.000155827
0.000177523
0.000187625
0.000184996
0.000160852
0.000121471
8.42478e-05
5.99486e-05
4.61543e-05
3.84023e-05
7.90856e-05
0.00012174
0.000154922
0.000176619
0.000186712
0.000183876
0.000159428
0.000120043
8.3191e-05
5.92532e-05
4.56944e-05
3.80955e-05
7.77926e-05
0.000119078
0.000151525
0.000173121
0.000183199
0.000180028
0.000155132
0.000115973
8.01408e-05
5.71687e-05
4.42654e-05
3.71104e-05
7.39683e-05
0.000111312
0.000141369
0.000162423
0.000172384
0.000168913
0.00014399
0.000106149
7.28753e-05
5.2124e-05
4.07468e-05
3.46344e-05
6.31587e-05
9.02952e-05
0.000113423
0.000131975
0.000140847
0.00013701
0.000114718
8.25271e-05
5.61444e-05
4.07176e-05
3.29505e-05
2.91461e-05
2.5231e-05
3.09073e-05
3.883e-05
5.01192e-05
5.58068e-05
5.27384e-05
4.00278e-05
2.91275e-05
2.3263e-05
2.05024e-05
1.91612e-05
1.84273e-05
2.35332e-05
2.6463e-05
3.02362e-05
3.58545e-05
3.88692e-05
3.64443e-05
2.96752e-05
2.42607e-05
2.11839e-05
1.95762e-05
1.86992e-05
1.81632e-05
5.3192e-05
7.43946e-05
9.00582e-05
0.000102288
0.000108316
0.000103229
8.49564e-05
6.24323e-05
4.55773e-05
3.58091e-05
3.07502e-05
2.81345e-05
6.20773e-05
9.24292e-05
0.00011465
0.000129195
0.000136012
0.000130562
0.000109193
8.14855e-05
5.9232e-05
4.53345e-05
3.7398e-05
3.29784e-05
6.53726e-05
9.94763e-05
0.000124193
0.000139352
0.000146232
0.00014086
0.000119037
8.9697e-05
6.5275e-05
4.9639e-05
4.0448e-05
3.51557e-05
6.65691e-05
0.000102054
0.000127647
0.00014298
0.000149859
0.000144692
0.000122985
9.3133e-05
6.78063e-05
5.14165e-05
4.1687e-05
3.60173e-05
6.69435e-05
0.000102828
0.000128656
0.000144024
0.000150908
0.000145883
0.000124314
9.43211e-05
6.86659e-05
5.20012e-05
4.20818e-05
3.62828e-05
6.69431e-05
0.000102827
0.000128655
0.000144023
0.000150906
0.000145881
0.000124312
9.43197e-05
6.8665e-05
5.20006e-05
4.20815e-05
3.62826e-05
6.65682e-05
0.000102052
0.000127643
0.000142975
0.000149854
0.000144687
0.00012298
9.31292e-05
6.78039e-05
5.14151e-05
4.16862e-05
3.60169e-05
6.53712e-05
9.94723e-05
0.000124189
0.000139347
0.000146225
0.000140852
0.00011903
8.96921e-05
6.5272e-05
4.96373e-05
4.04471e-05
3.51552e-05
6.20757e-05
9.24256e-05
0.000114646
0.00012919
0.000136007
0.000130556
0.000109188
8.1482e-05
5.92301e-05
4.53337e-05
3.73977e-05
3.29783e-05
5.31902e-05
7.43925e-05
9.00574e-05
0.000102288
0.000108316
0.000103229
8.49573e-05
6.24336e-05
4.55786e-05
3.58103e-05
3.07512e-05
2.81352e-05
2.35324e-05
2.64637e-05
3.02385e-05
3.58579e-05
3.88724e-05
3.64466e-05
2.96767e-05
2.42617e-05
2.11846e-05
1.95768e-05
1.86997e-05
1.81637e-05
2.21777e-05
2.33133e-05
2.49253e-05
2.74249e-05
2.87468e-05
2.73865e-05
2.41634e-05
2.15243e-05
1.98852e-05
1.8927e-05
1.83375e-05
1.79374e-05
4.5622e-05
6.10666e-05
7.04362e-05
7.72081e-05
8.0521e-05
7.56277e-05
6.27646e-05
4.85705e-05
3.83897e-05
3.24008e-05
2.91558e-05
2.73543e-05
5.28028e-05
7.62233e-05
9.11243e-05
9.9662e-05
0.000103382
9.76743e-05
8.18733e-05
6.35764e-05
4.93757e-05
4.02302e-05
3.47936e-05
3.16529e-05
5.55292e-05
8.2375e-05
9.96104e-05
0.000108753
0.000112466
0.000106593
9.00218e-05
7.01995e-05
5.43347e-05
4.3844e-05
3.73915e-05
3.35532e-05
5.65636e-05
8.47335e-05
0.000102862
0.000112221
0.00011592
0.000110095
9.33764e-05
7.29807e-05
5.64064e-05
4.53349e-05
3.84426e-05
3.42969e-05
5.68992e-05
8.54753e-05
0.000103869
0.000113286
0.000116986
0.000111226
9.45105e-05
7.39287e-05
5.70988e-05
4.58195e-05
3.87738e-05
3.45232e-05
5.6899e-05
8.54745e-05
0.000103868
0.000113284
0.000116985
0.000111224
9.45091e-05
7.39277e-05
5.70982e-05
4.58192e-05
3.87736e-05
3.4523e-05
5.65629e-05
8.47314e-05
0.000102859
0.000112218
0.000115916
0.000110091
9.33727e-05
7.29781e-05
5.64047e-05
4.53339e-05
3.84421e-05
3.42966e-05
5.55282e-05
8.23719e-05
9.96069e-05
0.000108749
0.000112461
0.000106587
9.0017e-05
7.01962e-05
5.43327e-05
4.38429e-05
3.7391e-05
3.35529e-05
5.28015e-05
7.62206e-05
9.11213e-05
9.96587e-05
0.000103378
9.767e-05
8.18699e-05
6.35742e-05
4.93746e-05
4.02298e-05
3.47936e-05
3.16529e-05
4.56206e-05
6.10648e-05
7.04351e-05
7.72081e-05
8.05214e-05
7.56284e-05
6.27656e-05
4.85718e-05
3.8391e-05
3.24019e-05
2.91567e-05
2.7355e-05
2.21771e-05
2.33136e-05
2.49264e-05
2.74267e-05
2.87486e-05
2.73879e-05
2.41644e-05
2.1525e-05
1.98858e-05
1.89275e-05
1.8338e-05
1.79379e-05
2.12753e-05
2.12345e-05
2.17317e-05
2.28024e-05
2.3348e-05
2.27128e-05
2.12338e-05
1.99387e-05
1.90458e-05
1.84559e-05
1.80464e-05
1.77415e-05
4.02972e-05
5.08432e-05
5.54358e-05
5.83419e-05
5.96612e-05
5.5901e-05
4.78954e-05
3.9599e-05
3.36973e-05
3.0095e-05
2.80088e-05
2.67513e-05
4.5966e-05
6.3358e-05
7.22946e-05
7.63244e-05
7.76324e-05
7.29294e-05
6.25841e-05
5.12865e-05
4.2429e-05
3.6492e-05
3.28272e-05
3.06138e-05
4.81426e-05
6.8568e-05
7.95024e-05
8.40203e-05
8.52154e-05
8.0182e-05
6.90423e-05
5.65494e-05
4.646e-05
3.94804e-05
3.50206e-05
3.22766e-05
4.89908e-05
7.06249e-05
8.23744e-05
8.70888e-05
8.82362e-05
8.31266e-05
7.17321e-05
5.87551e-05
4.81386e-05
4.07086e-05
3.58986e-05
3.29168e-05
4.92719e-05
7.12909e-05
8.3297e-05
8.80662e-05
8.92021e-05
8.40933e-05
7.2637e-05
5.94957e-05
4.86916e-05
4.11027e-05
3.61712e-05
3.31088e-05
4.92718e-05
7.12903e-05
8.32963e-05
8.80654e-05
8.92011e-05
8.40922e-05
7.26361e-05
5.9495e-05
4.86912e-05
4.11024e-05
3.61711e-05
3.31088e-05
4.89903e-05
7.06233e-05
8.23726e-05
8.70867e-05
8.82336e-05
8.31238e-05
7.17296e-05
5.87533e-05
4.81375e-05
4.07079e-05
3.58982e-05
3.29166e-05
4.81418e-05
6.85658e-05
7.95001e-05
8.40176e-05
8.52121e-05
8.01784e-05
6.90392e-05
5.65472e-05
4.64586e-05
3.94798e-05
3.50204e-05
3.22765e-05
4.59651e-05
6.3356e-05
7.22926e-05
7.63223e-05
7.76299e-05
7.29268e-05
6.25821e-05
5.12853e-05
4.24284e-05
3.64919e-05
3.28274e-05
3.06139e-05
4.02962e-05
5.08417e-05
5.54346e-05
5.83417e-05
5.96615e-05
5.59018e-05
4.78965e-05
3.96003e-05
3.36985e-05
3.00961e-05
2.80097e-05
2.67519e-05
2.12748e-05
2.12346e-05
2.17323e-05
2.28034e-05
2.33491e-05
2.27136e-05
2.12345e-05
1.99392e-05
1.90463e-05
1.84564e-05
1.80469e-05
1.77421e-05
2.06076e-05
1.98681e-05