/*--------------------------------*- C++ -*----------------------------------*\
| =========                 |                                                 |
| \\      /  F ield         | OpenFOAM: The Open Source CFD Toolbox           |
|  \\    /   O peration     | Version:  2.3.1                                 |
|   \\  /    A nd           | Web:      www.OpenFOAM.org                      |
|    \\/     M anipulation  |                                                 |
\*---------------------------------------------------------------------------*/
FoamFile
{
    version     2.0;
    format      ascii;
    class       volScalarField;
    location    "5";
    object      k_0;
}
// * * * * * * * * * * * * * * * * * * * * * * * * * * * * * * * * * * * * * //

dimensions      [0 2 -2 0 0 0 0];

internalField   nonuniform List<scalar> 
37758
(
3.14699e-05
3.26325e-05
3.43567e-05
3.71927e-05
4.04703e-05
4.12904e-05
4.0265e-05
3.59624e-05
2.67697e-05
1.95297e-05
1.54572e-05
1.3475e-05
3.2107e-05
3.58997e-05
3.88379e-05
4.24689e-05
4.93998e-05
5.17093e-05
5.05405e-05
4.65824e-05
3.949e-05
2.8271e-05
2.00016e-05
1.61488e-05
3.20163e-05
3.6064e-05
3.88091e-05
4.25853e-05
4.94449e-05
5.17459e-05
5.08105e-05
4.75359e-05
4.24812e-05
3.18175e-05
2.16067e-05
1.68273e-05
3.19587e-05
3.6166e-05
3.88379e-05
4.25017e-05
4.93014e-05
5.13577e-05
5.0411e-05
4.73971e-05
4.31651e-05
3.36074e-05
2.23234e-05
1.7035e-05
3.1941e-05
3.62107e-05
3.88409e-05
4.24448e-05
4.91868e-05
5.12067e-05
5.02855e-05
4.74314e-05
4.34766e-05
3.4301e-05
2.26176e-05
1.71172e-05
3.19296e-05
3.62294e-05
3.8853e-05
4.24385e-05
4.91374e-05
5.11374e-05
5.02263e-05
4.74323e-05
4.35804e-05
3.4551e-05
2.27213e-05
1.71419e-05
3.19296e-05
3.62294e-05
3.8853e-05
4.24384e-05
4.91374e-05
5.11375e-05
5.02264e-05
4.74325e-05
4.35807e-05
3.45518e-05
2.27218e-05
1.71422e-05
3.1941e-05
3.62107e-05
3.88409e-05
4.24448e-05
4.91869e-05
5.12069e-05
5.02858e-05
4.74319e-05
4.34777e-05
3.43031e-05
2.2619e-05
1.7118e-05
3.19587e-05
3.6166e-05
3.88379e-05
4.25017e-05
4.93015e-05
5.13579e-05
5.04114e-05
4.7398e-05
4.31667e-05
3.36105e-05
2.23256e-05
1.70362e-05
3.20163e-05
3.6064e-05
3.88091e-05
4.25854e-05
4.94449e-05
5.17462e-05
5.0811e-05
4.75369e-05
4.2483e-05
3.18209e-05
2.16091e-05
1.68288e-05
3.2107e-05
3.58998e-05
3.88379e-05
4.24689e-05
4.93997e-05
5.17095e-05
5.0541e-05
4.65834e-05
3.94923e-05
2.82737e-05
2.00037e-05
1.61501e-05
3.14699e-05
3.26326e-05
3.43567e-05
3.71927e-05
4.04703e-05
4.12906e-05
4.02654e-05
3.59638e-05
2.67719e-05
1.95314e-05
1.54585e-05
1.3476e-05
3.10139e-05
3.19139e-05
3.49288e-05
3.81863e-05
4.05738e-05
4.13095e-05
4.09646e-05
3.9683e-05
3.67289e-05
2.91302e-05
2.09815e-05
1.75201e-05
3.01378e-05
3.11757e-05
3.87338e-05
3.9318e-05
4.25871e-05
4.67342e-05
4.60131e-05
4.43355e-05
4.13693e-05
3.33683e-05
2.3723e-05
1.95732e-05
3.01034e-05
3.09951e-05
3.69176e-05
3.78805e-05
4.1685e-05
4.62283e-05
4.57201e-05
4.46958e-05
4.33875e-05
3.75846e-05
2.65787e-05
2.14196e-05
3.00854e-05
3.09162e-05
3.5783e-05
3.67411e-05
4.0698e-05
4.52729e-05
4.49191e-05
4.44995e-05
4.40839e-05
3.9657e-05
2.81545e-05
2.21539e-05
3.00778e-05
3.08723e-05
3.53088e-05
3.62484e-05
4.01003e-05
4.46205e-05
4.43812e-05
4.43263e-05
4.45153e-05
4.05292e-05
2.89196e-05
2.24541e-05
3.00749e-05
3.08576e-05
3.51348e-05
3.60588e-05
3.98627e-05
4.43469e-05
4.41527e-05
4.42256e-05
4.47134e-05
4.08393e-05
2.91922e-05
2.25556e-05
3.00749e-05
3.08576e-05
3.5135e-05
3.6059e-05
3.98627e-05
4.43468e-05
4.41526e-05
4.42256e-05
4.47138e-05
4.084e-05
2.9193e-05
2.2556e-05
3.00778e-05
3.08724e-05
3.53092e-05
3.62488e-05
4.01004e-05
4.46202e-05
4.43809e-05
4.43261e-05
4.45165e-05
4.05313e-05
2.8922e-05
2.24552e-05
3.00854e-05
3.09162e-05
3.57837e-05
3.67417e-05
4.0698e-05
4.52725e-05
4.49187e-05
4.44996e-05
4.4085e-05
3.96603e-05
2.81582e-05
2.21555e-05
3.01034e-05
3.09951e-05
3.69182e-05
3.78811e-05
4.1685e-05
4.62279e-05
4.57195e-05
4.46956e-05
4.33886e-05
3.75889e-05
2.65824e-05
2.14215e-05
3.01378e-05
3.11756e-05
3.8734e-05
3.93183e-05
4.25867e-05
4.67336e-05
4.60123e-05
4.43348e-05
4.13699e-05
3.33718e-05
2.3726e-05
1.95747e-05
3.10139e-05
3.19139e-05
3.49286e-05
3.81866e-05
4.0574e-05
4.13097e-05
4.09648e-05
3.96835e-05
3.67298e-05
2.91322e-05
2.09832e-05
1.75212e-05
3.06389e-05
3.21143e-05
4.30202e-05
5.43245e-05
5.11774e-05
4.48752e-05
4.12912e-05
3.91896e-05
3.61936e-05
2.87142e-05
2.2004e-05
1.91593e-05
3.12293e-05
3.93159e-05
8.08485e-05
8.18042e-05
6.76295e-05
5.89834e-05
5.02371e-05
4.61311e-05
4.53049e-05
4.24722e-05
3.41488e-05
2.71582e-05
3.12289e-05
3.92769e-05
8.02686e-05
8.1296e-05
6.8227e-05
5.75198e-05
4.93958e-05
4.73771e-05
4.96854e-05
4.93128e-05
4.18153e-05
3.15094e-05
3.1233e-05
3.94187e-05
7.7902e-05
7.85713e-05
6.63247e-05
5.52247e-05
4.82863e-05
4.75996e-05
5.22503e-05
5.33082e-05
4.5529e-05
3.32756e-05
3.12305e-05
3.95607e-05
7.67029e-05
7.73332e-05
6.54027e-05
5.40876e-05
4.77485e-05
4.763e-05
5.36194e-05
5.53415e-05
4.72444e-05
3.39871e-05
3.12268e-05
3.95689e-05
7.61755e-05
7.68911e-05
6.51566e-05
5.36607e-05
4.75485e-05
4.76326e-05
5.41799e-05
5.61162e-05
4.78687e-05
3.42215e-05
3.12268e-05
3.9569e-05
7.61764e-05
7.68924e-05
6.51576e-05
5.36609e-05
4.75485e-05
4.76328e-05
5.41809e-05
5.61178e-05
4.78702e-05
3.42222e-05
3.12305e-05
3.95608e-05
7.67056e-05
7.73371e-05
6.54058e-05
5.40881e-05
4.77487e-05
4.76306e-05
5.36222e-05
5.5346e-05
4.72487e-05
3.3989e-05
3.1233e-05
3.94188e-05
7.79057e-05
7.85768e-05
6.63292e-05
5.52252e-05
4.82864e-05
4.76006e-05
5.2254e-05
5.33147e-05
4.55355e-05
3.32784e-05
3.12289e-05
3.92768e-05
8.02723e-05
8.13025e-05
6.82322e-05
5.75204e-05
4.93957e-05
4.73779e-05
4.9689e-05
4.93191e-05
4.18229e-05
3.15126e-05
3.12293e-05
3.93157e-05
8.08505e-05
8.18095e-05
6.76338e-05
5.89837e-05
5.02366e-05
4.61309e-05
4.53068e-05
4.24772e-05
3.41553e-05
2.71607e-05
3.06389e-05
3.21143e-05
4.30195e-05
5.43264e-05
5.11792e-05
4.48761e-05
4.12916e-05
3.91898e-05
3.61945e-05
2.87163e-05
2.20057e-05
1.91603e-05
3.09862e-05
3.53947e-05
7.17447e-05
0.00010549
9.04631e-05
5.84915e-05
4.4509e-05
3.95266e-05
3.6175e-05
2.91987e-05
2.33916e-05
2.02834e-05
5.42923e-05
0.000150361
0.000270189
0.000264549
0.000180134
9.48327e-05
6.31725e-05
5.58932e-05
5.79893e-05
5.88622e-05
4.81831e-05
3.37063e-05
5.59497e-05
0.00015629
0.000294402
0.000284027
0.000190773
9.59617e-05
6.44335e-05
6.09428e-05
6.96128e-05
7.38673e-05
5.93332e-05
3.9773e-05
5.65707e-05
0.000163064
0.00029948
0.000286439
0.000189997
9.38772e-05
6.46959e-05
6.34754e-05
7.70736e-05
8.20596e-05
6.45422e-05
4.22501e-05
5.68318e-05
0.0001676
0.000299764
0.000285666
0.000189497
9.3353e-05
6.52109e-05
6.48503e-05
8.08971e-05
8.60124e-05
6.69345e-05
4.32537e-05
5.68719e-05
0.000168747
0.000299949
0.000285816
0.000190252
9.34953e-05
6.55433e-05
6.54597e-05
8.24008e-05
8.74996e-05
6.78018e-05
4.35838e-05
5.6872e-05
0.000168747
0.000299952
0.00028582
0.000190257
9.34971e-05
6.55444e-05
6.54611e-05
8.24035e-05
8.75022e-05
6.78035e-05
4.35845e-05
5.68319e-05
0.000167599
0.000299774
0.000285679
0.000189512
9.33581e-05
6.5214e-05
6.48542e-05
8.09049e-05
8.60203e-05
6.69394e-05
4.32558e-05
5.65708e-05
0.000163063
0.000299493
0.000286457
0.000190019
9.38842e-05
6.46999e-05
6.34808e-05
7.70849e-05
8.20714e-05
6.45499e-05
4.22532e-05
5.595e-05
0.000156288
0.000294417
0.000284047
0.000190798
9.59691e-05
6.44369e-05
6.09477e-05
6.96238e-05
7.38803e-05
5.93422e-05
3.97766e-05
5.42925e-05
0.000150361
0.000270201
0.000264567
0.000180157
9.48383e-05
6.31739e-05
5.5896e-05
5.79961e-05
5.88722e-05
4.81914e-05
3.37095e-05
3.09862e-05
3.53948e-05
7.17443e-05
0.000105497
9.04705e-05
5.84952e-05
4.45102e-05
3.95271e-05
3.61764e-05
2.92015e-05
2.33936e-05
2.02846e-05
4.51625e-05
7.46668e-05
0.000130328
0.000161017
0.000147324
8.91307e-05
5.25126e-05
4.14576e-05
3.79697e-05
3.31514e-05
2.58278e-05
2.12146e-05
0.000337826
0.000402539
0.000406837
0.000391993
0.000322108
0.000164289
9.02341e-05
8.08375e-05
8.77665e-05
8.53933e-05
5.918e-05
3.82178e-05
0.000477706
0.000493846
0.000476775
0.000441437
0.000348426
0.000175648
0.000101181
9.69895e-05
0.000110778
0.000106633
7.17046e-05
4.529e-05
0.000501561
0.000517821
0.000498157
0.000456515
0.000353553
0.000179559
0.000109028
0.000107481
0.000123289
0.00011711
7.71117e-05
4.81764e-05
0.000503898
0.000521973
0.000501832
0.000458699
0.000354617
0.000182698
0.00011397
0.000113177
0.00012931
0.000122048
7.9592e-05
4.9355e-05
0.000503467
0.000523216
0.000503188
0.000459578
0.000355455
0.000184662
0.000116304
0.000115615
0.000131573
0.00012388
8.04962e-05
4.97463e-05
0.000503467
0.000523217
0.00050319
0.000459581
0.00035546
0.000184667
0.000116308
0.000115619
0.000131578
0.000123883
8.04975e-05
4.9747e-05
0.000503899
0.000521977
0.000501837
0.000458706
0.000354631
0.000182712
0.000113983
0.00011319
0.000129323
0.000122058
7.95958e-05
4.93568e-05
0.000501562
0.000517826
0.000498164
0.000456525
0.000353575
0.000179579
0.000109045
0.0001075
0.000123307
0.000117124
7.71179e-05
4.8179e-05
0.000477706
0.000493855
0.000476786
0.00044145
0.000348452
0.000175669
0.000101197
9.70071e-05
0.000110798
0.000106649
7.17124e-05
4.52931e-05
0.000337824
0.00040256
0.000406853
0.000392008
0.000322131
0.000164307
9.0242e-05
8.08477e-05
8.77811e-05
8.54073e-05
5.91883e-05
3.82208e-05
4.51627e-05
7.46714e-05
0.000130334
0.000161025
0.000147333
8.91399e-05
5.25159e-05
4.1459e-05
3.79724e-05
3.31564e-05
2.58308e-05
2.1216e-05
5.12306e-05
8.06998e-05
0.000128556
0.000161703
0.000158295
0.000113805
6.36592e-05
4.58764e-05
4.37655e-05
3.92753e-05
2.7316e-05
2.15453e-05
0.000205254
0.000269836
0.00029301
0.000318923
0.000310429
0.000217083
0.00013562
0.000125752
0.000125882
0.000104833
6.2157e-05
4.01454e-05
0.00025238
0.000320142
0.00034176
0.000362095
0.000346535
0.000246018
0.000170256
0.000161007
0.00015771
0.000126729
7.50666e-05
4.78637e-05
0.000256732
0.000327242
0.000352863
0.000373144
0.000355626
0.00025647
0.000187093
0.000177339
0.000171739
0.000136311
8.05748e-05
5.10175e-05
0.000253447
0.000323988
0.000353576
0.000375227
0.000357591
0.000261528
0.000195168
0.000184893
0.000178132
0.000140838
8.3056e-05
5.22956e-05
0.000251619
0.000321887
0.000353039
0.000375144
0.000357616
0.000263318
0.000198184
0.000187624
0.000180402
0.000142527
8.39622e-05
5.27199e-05
0.000251619
0.000321887
0.000353039
0.000375145
0.000357619
0.000263324
0.000198191
0.00018763
0.000180407
0.000142529
8.3963e-05
5.27203e-05
0.000253447
0.000323988
0.000353576
0.00037523
0.000357598
0.000261545
0.000195187
0.00018491
0.000178144
0.000140843
8.30584e-05
5.22967e-05
0.000256731
0.000327241
0.000352864
0.000373149
0.000355637
0.000256495
0.000187122
0.000177366
0.000171758
0.00013632
8.05786e-05
5.10192e-05
0.000252378
0.000320142
0.000341762
0.000362101
0.000346549
0.000246045
0.000170288
0.000161037
0.000157733
0.00012674
7.50718e-05
4.78658e-05
0.00020525
0.000269842
0.000293017
0.000318931
0.000310444
0.000217107
0.000135643
0.000125774
0.000125901
0.000104846
6.21631e-05
4.01477e-05
5.12312e-05
8.07052e-05
0.000128563
0.000161709
0.000158302
0.000113815
6.36647e-05
4.58797e-05
4.37703e-05
3.92814e-05
2.73194e-05
2.15467e-05
5.22296e-05
8.66016e-05
0.000122975
0.000150685
0.000153032
0.000120278
6.92886e-05
5.51037e-05
5.31759e-05
4.1016e-05
2.71211e-05
2.14621e-05
0.000151074
0.00021463
0.000245054
0.00027265
0.000286137
0.000238453
0.000184178
0.000172285
0.000153714
0.000105961
6.16688e-05
4.02664e-05
0.000173512
0.000249852
0.000280858
0.000307115
0.000320705
0.000276777
0.000230819
0.000214868
0.000186694
0.000127365
7.46265e-05
4.83781e-05
0.000175249
0.000254303
0.00028821
0.000316365
0.000329341
0.000288822
0.000247396
0.000230134
0.000199611
0.000136653
8.01163e-05
5.17042e-05
0.000173237
0.000251989
0.000288396
0.00031861
0.000331518
0.000293496
0.000254289
0.0002366
0.00020542
0.000141025
8.25476e-05
5.30369e-05
0.000172098
0.000250195
0.00028759
0.00031867
0.000331464
0.000294581
0.000256411
0.000238678
0.000207481
0.00014268
8.34313e-05
5.34761e-05
0.000172098
0.000250194
0.00028759
0.000318671
0.000331466
0.000294585
0.000256417
0.000238683
0.000207483
0.000142681
8.34319e-05
5.34763e-05
0.000173236
0.000251987
0.000288395
0.000318611
0.000331523
0.000293508
0.000254306
0.000236614
0.000205427
0.000141028
8.25493e-05
5.30374e-05
0.000175247
0.0002543
0.000288209
0.000316367
0.000329349
0.000288842
0.000247422
0.000230156
0.000199623
0.000136658
8.0119e-05
5.17051e-05
0.00017351
0.000249849
0.000280857
0.000307118
0.000320716
0.000276801
0.000230851
0.000214895
0.00018671
0.000127373
7.46305e-05
4.83793e-05
0.000151071
0.00021463
0.000245058
0.000272654
0.000286147
0.000238477
0.000184207
0.00017231
0.000153731
0.000105971
6.16739e-05
4.02681e-05
5.22308e-05
8.66071e-05
0.000122982
0.00015069
0.000153039
0.000120288
6.92961e-05
5.51105e-05
5.31826e-05
4.10221e-05
2.71241e-05
2.14634e-05
4.91606e-05
8.34502e-05
0.000117435
0.000139962
0.000144043
0.000116797
7.66316e-05
6.84537e-05
5.80996e-05
3.94013e-05
2.62309e-05
2.11554e-05
0.00014269
0.000181789
0.000221574
0.00024885
0.000264811
0.000243188
0.000215712
0.00019689
0.000158268
0.000101942
5.94321e-05
3.96354e-05
0.00015716
0.000211377
0.000251977
0.000279479
0.000296721
0.000282169
0.000261483
0.000238291
0.000189867
0.000123048
7.2316e-05
4.7823e-05
0.000158891
0.000217191
0.000258958
0.000288426
0.00030582
0.000294044
0.000275445
0.000251955
0.000202223
0.000131956
7.77133e-05
5.11977e-05
0.000157775
0.00021678
0.000259484
0.000290571
0.000308412
0.000298207
0.000280647
0.000257436
0.000207771
0.000136045
8.00357e-05
5.25384e-05
0.000157076
0.000215871
0.00025891
0.000290713
0.000308664
0.000299108
0.000282054
0.000259142
0.000209792
0.000137594
8.08678e-05
5.29766e-05
0.000157076
0.00021587
0.000258909
0.000290713
0.000308666
0.000299111
0.000282057
0.000259145
0.000209793
0.000137595
8.0868e-05
5.29766e-05
0.000157774
0.000216777
0.000259482
0.000290571
0.000308416
0.000298214
0.000280657
0.000257443
0.000207775
0.000136046
8.00362e-05
5.25385e-05
0.000158889
0.000217187
0.000258955
0.000288427
0.000305825
0.000294057
0.000275461
0.000251967
0.000202229
0.000131958
7.77144e-05
5.11979e-05
0.000157157
0.000211374
0.000251975
0.000279481
0.000296729
0.000282185
0.000261504
0.000238307
0.000189877
0.000123053
7.23181e-05
4.78236e-05
0.000142686
0.000181788
0.000221577
0.000248854
0.00026482
0.000243206
0.000215735
0.000196909
0.000158281
0.00010195
5.94358e-05
3.96367e-05
4.91626e-05
8.34574e-05
0.000117442
0.000139967
0.000144048
0.000116806
7.66403e-05
6.84614e-05
5.81065e-05
3.94067e-05
2.62334e-05
2.11565e-05
4.35499e-05
7.51565e-05
0.000110735
0.000129811
0.000133304
0.000109578
8.58771e-05
7.53679e-05
5.72934e-05
3.54978e-05
2.45592e-05
2.06036e-05
0.000129963
0.000166938
0.000209935
0.000237474
0.000250502
0.000241241
0.000223154
0.000198671
0.000152857
9.23836e-05
5.48193e-05
3.80468e-05
0.0001456
0.000194029
0.00023858
0.000267888
0.000282377
0.000280514
0.000267262
0.00023892
0.000183243
0.000112562
6.74265e-05
4.62452e-05
0.000148432
0.000200825
0.000246087
0.000277106
0.000292474
0.000292608
0.000280525
0.00025233
0.000195113
0.00012093
7.26666e-05
4.96544e-05
0.00014818
0.000201561
0.000247065
0.000279181
0.000295423
0.000296613
0.000285161
0.000257618
0.000200395
0.000124641
7.48407e-05
5.09946e-05
0.000147834
0.000201215
0.000246741
0.000279314
0.000295929
0.000297487
0.000286384
0.000259293
0.00020235
0.000126036
7.55975e-05
5.1426e-05
0.000147834
0.000201214
0.00024674
0.000279314
0.000295929
0.000297488
0.000286385
0.000259294
0.00020235
0.000126035
7.55972e-05
5.14258e-05
0.000148179
0.000201558
0.000247063
0.00027918
0.000295425
0.000296619
0.000285166
0.000257622
0.000200395
0.00012464
7.48399e-05
5.09941e-05
0.00014843
0.000200822
0.000246083
0.000277106
0.000292477
0.000292617
0.000280534
0.000252337
0.000195115
0.000120929
7.26657e-05
4.96537e-05
0.000145598
0.000194025
0.000238578
0.000267889
0.000282382
0.000280527
0.000267274
0.000238931
0.000183248
0.000112564
6.74264e-05
4.62449e-05
0.000129959
0.000166938
0.000209937
0.000237479
0.000250509
0.000241257
0.000223171
0.000198685
0.000152867
9.2389e-05
5.48215e-05
3.80475e-05
4.35512e-05
7.51638e-05
0.000110743
0.000129818
0.00013331
0.000109587
8.58855e-05
7.53752e-05
5.72999e-05
3.55017e-05
2.45609e-05
2.06044e-05
4.07183e-05
6.67007e-05
0.000100849
0.000117843
0.000121292
0.000103356
8.94365e-05
7.51507e-05
5.12003e-05
3.08837e-05
2.29372e-05
2.00464e-05
0.00011949
0.000154274
0.000198306
0.000227142
0.000238795
0.000236785
0.000220765
0.000192394
0.000135882
7.99627e-05
4.94734e-05
3.59851e-05
0.00013415
0.000180657
0.000227572
0.000258949
0.000272989
0.000276241
0.000264021
0.000230537
0.000164187
9.88832e-05
6.14883e-05
4.3935e-05
0.000137645
0.00018821
0.000235974
0.000268621
0.000283945
0.000288406
0.000277081
0.000243442
0.000175312
0.000106749
6.65196e-05
4.72936e-05
0.000137945
0.00018967
0.000237468
0.000270761
0.000286952
0.000292117
0.000281521
0.000248495
0.000180149
0.000110136
6.85704e-05
4.86121e-05
0.00013783
0.000189692
0.000237377
0.000270906
0.000287469
0.000292903
0.000282697
0.000250155
0.000181966
0.000111376
6.92657e-05
4.90318e-05
0.00013783
0.000189691
0.000237376
0.000270906
0.000287469
0.000292903
0.000282698
0.000250155
0.000181965
0.000111376
6.92652e-05
4.90315e-05
0.000137943
0.000189667
0.000237464
0.000270759
0.000286952
0.000292119
0.000281523
0.000248495
0.000180146
0.000110133
6.8569e-05
4.86113e-05
0.000137643
0.000188206
0.000235969
0.000268619
0.000283945
0.00028841
0.000277085
0.000243442
0.000175309
0.000106746
6.6518e-05
4.72926e-05
0.000134147
0.000180653
0.000227569
0.000258948
0.000272992
0.000276249
0.000264029
0.000230542
0.000164187
9.88824e-05
6.14874e-05
4.39343e-05
0.000119486
0.000154274
0.000198308
0.000227146
0.000238801
0.000236798
0.00022078
0.000192405
0.000135888
7.99662e-05
4.94749e-05
3.59856e-05
4.07194e-05
6.67062e-05
0.000100858
0.000117852
0.000121299
0.000103365
8.94437e-05
7.51576e-05
5.12054e-05
3.08863e-05
2.29384e-05
2.0047e-05
3.4891e-05
5.68833e-05
8.69562e-05
0.000105403
0.000110268
9.95904e-05
8.82506e-05
6.9141e-05
4.07022e-05
2.68095e-05
2.15894e-05
1.95424e-05
0.000104453
0.000141297
0.000183252
0.000212305
0.000224546
0.00022627
0.000210074
0.000171912
0.000112545
6.74052e-05
4.42579e-05
3.39131e-05
0.000119814
0.000167258
0.000213252
0.000245195
0.000260214
0.000265234
0.000250415
0.000206209
0.000138752
8.47278e-05
5.54388e-05
4.14082e-05
0.000123938
0.000175285
0.00022248
0.000255342
0.000271303
0.000277042
0.000262843
0.000218472
0.000149288
9.19987e-05
6.01854e-05
4.46378e-05
0.000124723
0.000177235
0.000224521
0.000257701
0.000274215
0.000280382
0.000266975
0.000223325
0.000153788
9.50594e-05
6.21041e-05
4.59099e-05
0.000124816
0.000177512
0.000224683
0.000257936
0.000274693
0.000281053
0.000268108
0.000225017
0.000155454
9.61475e-05
6.27409e-05
4.63119e-05
0.000124816
0.000177511
0.000224681
0.000257935
0.000274692
0.000281052
0.000268107
0.000225015
0.000155452
9.61465e-05
6.27403e-05
4.63116e-05
0.000124721
0.000177232
0.000224517
0.000257697
0.000274212
0.000280379
0.000266972
0.00022332
0.000153784
9.50568e-05
6.21025e-05
4.5909e-05
0.000123935
0.00017528
0.000222475
0.000255337
0.0002713
0.00027704
0.00026284
0.000218465
0.000149283
9.19955e-05
6.01834e-05
4.46366e-05
0.000119811
0.000167254
0.000213247
0.000245193
0.000260213
0.000265234
0.000250415
0.000206205
0.000138749
8.47258e-05
5.54375e-05
4.14074e-05
0.000104449
0.000141296
0.000183254
0.000212309
0.000224551
0.00022628
0.000210084
0.000171917
0.000112548
6.74074e-05
4.42589e-05
3.39135e-05
3.4892e-05
5.68885e-05
8.69659e-05
0.000105412
0.000110276
9.95974e-05
8.82572e-05
6.91467e-05
4.07057e-05
2.68112e-05
2.15902e-05
1.9543e-05
3.08122e-05
4.57255e-05
6.88923e-05
9.04733e-05
9.80868e-05
9.32969e-05
8.00721e-05
5.20156e-05
3.22309e-05
2.38474e-05
2.05483e-05
1.91073e-05
8.97092e-05
0.000125273
0.000162906
0.000190899
0.000203063
0.000203872
0.000184118
0.00014028
8.99297e-05
5.63566e-05
3.96581e-05
3.2027e-05
0.00010394
0.000150596
0.00019339
0.000223929
0.000238255
0.00024142
0.00022044
0.000171937
0.000113335
7.17759e-05
4.98056e-05
3.89106e-05
0.000108254
0.000158854
0.000203269
0.000234422
0.000249313
0.000252929
0.000232487
0.00018388
0.000123
7.83485e-05
5.41934e-05
4.19378e-05
0.000109357
0.000161172
0.000205864
0.000237127
0.000252325
0.000256268
0.000236664
0.000188681
0.000127083
8.10805e-05
5.59652e-05
4.31363e-05
0.000109599
0.000161653
0.000206297
0.000237547
0.000252884
0.000257013
0.000237916
0.000190379
0.000128561
8.20251e-05
5.65446e-05
4.35133e-05
0.000109598
0.000161652
0.000206295
0.000237546
0.000252882
0.000257011
0.000237914
0.000190377
0.00012856
8.20242e-05
5.65441e-05
4.3513e-05
0.000109356
0.000161168
0.00020586
0.000237122
0.00025232
0.000256262
0.000236658
0.000188675
0.000127079
8.10779e-05
5.59637e-05
4.31355e-05
0.000108251
0.000158848
0.000203263
0.000234416
0.000249306
0.000252921
0.000232478
0.000183872
0.000122994
7.83452e-05
5.41915e-05
4.19367e-05
0.000103937
0.000150591
0.000193386
0.000223924
0.000238251
0.000241414
0.000220433
0.000171931
0.000113331
7.17736e-05
4.98044e-05
3.891e-05
8.97056e-05
0.000125272
0.000162908
0.000190902
0.000203067
0.000203877
0.000184121
0.000140282
8.9932e-05
5.63581e-05
3.96589e-05
3.20275e-05
3.08123e-05
4.57294e-05
6.89003e-05
9.04807e-05
9.80929e-05
9.33021e-05
8.00771e-05
5.20194e-05
3.22331e-05
2.38485e-05
2.0549e-05
1.91078e-05
2.78297e-05
3.77056e-05
5.20915e-05
7.00634e-05
7.81753e-05
7.64296e-05
5.79606e-05
3.77064e-05
2.66494e-05
2.1845e-05
1.97595e-05
1.87388e-05
7.56946e-05
0.00010801
0.000138675
0.000162959
0.000173992
0.00017246
0.000149414
0.000108996
7.07776e-05
4.74442e-05
3.58752e-05
3.04276e-05
8.82224e-05
0.000131411
0.000168646
0.000195406
0.00020788
0.000207691
0.000182766
0.000137057
9.08654e-05
6.08352e-05
4.48628e-05
3.66136e-05
9.24062e-05
0.000139574
0.000178886
0.000206152
0.000218872
0.000219125
0.000194605
0.000148196
9.93886e-05
6.66449e-05
4.88325e-05
3.93802e-05
9.36775e-05
0.000142139
0.00018197
0.000209292
0.000222111
0.000222751
0.000198945
0.000152743
0.000102972
6.90474e-05
5.04394e-05
4.04799e-05
9.4016e-05
0.00014278
0.000182667
0.000209961
0.00022283
0.00022369
0.00020033
0.00015435
0.000104238
6.98603e-05
5.09598e-05
4.08241e-05
9.40155e-05
0.000142779
0.000182665
0.000209959
0.000222827
0.000223688
0.000200327
0.000154348
0.000104237
6.98595e-05
5.09593e-05
4.08238e-05
9.36761e-05
0.000142135
0.000181965
0.000209287
0.000222105
0.000222744
0.000198938
0.000152737
0.000102968
6.90451e-05
5.04381e-05
4.04791e-05
9.2404e-05
0.000139569
0.00017888
0.000206145
0.000218864
0.000219115
0.000194595
0.000148188
9.93835e-05
6.6642e-05
4.88309e-05
3.93793e-05
8.822e-05
0.000131406
0.000168641
0.0001954
0.000207874
0.000207684
0.000182759
0.000137051
9.08617e-05
6.08333e-05
4.48618e-05
3.66131e-05
7.56918e-05
0.000108008
0.000138676
0.000162962
0.000173995
0.000172463
0.000149415
0.000108998
7.07791e-05
4.74454e-05
3.5876e-05
3.04282e-05
2.78292e-05
3.77081e-05
5.20981e-05
7.00694e-05
7.81802e-05
7.64331e-05
5.7964e-05
3.77089e-05
2.66508e-05
2.18458e-05
1.97601e-05
1.87393e-05
2.52321e-05
3.09058e-05
3.88214e-05
5.00942e-05
5.57719e-05
5.26746e-05
3.99686e-05
2.9095e-05
2.32493e-05
2.04977e-05
1.91604e-05
1.84283e-05
6.31478e-05
9.03023e-05
0.000113418
0.000131949
0.000140807
0.000136927
0.000114597
8.24087e-05
5.60672e-05
4.06772e-05
3.29315e-05
2.9138e-05
7.39536e-05
0.000111319
0.000141369
0.000162401
0.000172347
0.00016883
0.000143861
0.000106013
7.27799e-05
5.20697e-05
4.07175e-05
3.46193e-05
7.77757e-05
0.000119083
0.000151523
0.000173098
0.000183163
0.000179946
0.000155002
0.00011583
8.0037e-05
5.71077e-05
4.42312e-05
3.70916e-05
7.9067e-05
0.000121742
0.000154917
0.000176594
0.000186673
0.000183794
0.000159297
0.000119897
8.30822e-05
5.91884e-05
4.56574e-05
3.80747e-05
7.94471e-05
0.000122485
0.000155819
0.000177496
0.000187584
0.00018491
0.000160718
0.000121321
8.41355e-05
5.98813e-05
4.61156e-05
3.83803e-05
7.94467e-05
0.000122483
0.000155817
0.000177494
0.000187582
0.000184908
0.000160716
0.000121319
8.41343e-05
5.98806e-05
4.61152e-05
3.83801e-05
7.90658e-05
0.000121739
0.000154913
0.000176589
0.000186667
0.000183787
0.00015929
0.000119892
8.3079e-05
5.91866e-05
4.56563e-05
3.80741e-05
7.77739e-05
0.000119079
0.000151517
0.000173091
0.000183155
0.000179937
0.000154993
0.000115824
8.0033e-05
5.71054e-05
4.42299e-05
3.7091e-05
7.39516e-05
0.000111315
0.000141364
0.000162396
0.000172341
0.000168822
0.000143854
0.000106008
7.27771e-05
5.20682e-05
4.07169e-05
3.46191e-05
6.31452e-05
9.03001e-05
0.000113418
0.00013195
0.000140809
0.000136928
0.000114598
8.241e-05
5.60685e-05
4.06784e-05
3.29324e-05
2.91386e-05
2.52319e-05
3.09072e-05
3.88257e-05
5.00993e-05
5.57764e-05
5.26778e-05
3.99711e-05
2.90965e-05
2.32502e-05
2.04983e-05
1.91609e-05
1.84288e-05
2.35343e-05
2.64625e-05
3.02314e-05
3.58391e-05
3.88448e-05
3.64064e-05
2.96459e-05
2.42453e-05
2.11778e-05
1.95749e-05
1.87001e-05
1.81652e-05
5.31798e-05
7.43908e-05
9.00415e-05
0.00010225
0.000108263
0.000103143
8.48551e-05
6.23491e-05
4.55267e-05
3.57833e-05
3.07385e-05
2.81298e-05
6.2061e-05
9.24226e-05
0.000114629
0.00012915
0.00013595
0.000130462
0.000109072
8.13793e-05
5.91624e-05
4.52944e-05
3.73761e-05
3.29672e-05
6.53542e-05
9.9467e-05
0.000124169
0.000139305
0.000146166
0.000140757
0.00011891
8.95816e-05
6.51968e-05
4.95922e-05
4.0421e-05
3.51407e-05
6.65497e-05
0.000102044
0.000127621
0.000142931
0.000149793
0.00014459
0.000122857
9.3014e-05
6.77242e-05
5.13666e-05
4.16576e-05
3.60006e-05
6.69235e-05
0.000102817
0.000128631
0.000143976
0.000150843
0.000145781
0.000124186
9.42009e-05
6.85824e-05
5.19501e-05
4.20515e-05
3.62654e-05
6.69232e-05
0.000102816
0.00012863
0.000143974
0.000150841
0.000145779
0.000124184
9.41994e-05
6.85815e-05
5.19496e-05
4.20512e-05
3.62653e-05
6.65487e-05
0.000102041
0.000127618
0.000142927
0.000149788
0.000144584
0.000122851
9.30102e-05
6.77219e-05
5.13652e-05
4.16569e-05
3.60002e-05
6.53528e-05
9.9463e-05
0.000124165
0.000139299
0.000146159
0.000140749
0.000118903
8.95768e-05
6.51938e-05
4.95905e-05
4.04202e-05
3.51403e-05
6.20594e-05
9.2419e-05
0.000114625
0.000129145
0.000135945
0.000130456
0.000109067
8.13758e-05
5.91605e-05
4.52936e-05
3.73758e-05
3.29671e-05
5.31779e-05
7.43887e-05
9.00407e-05
0.000102251
0.000108264
0.000103143
8.4856e-05
6.23503e-05
4.5528e-05
3.57845e-05
3.07394e-05
2.81304e-05
2.35335e-05
2.64632e-05
3.02337e-05
3.58424e-05
3.88479e-05
3.64087e-05
2.96474e-05
2.42463e-05
2.11785e-05
1.95754e-05
1.87006e-05
1.81657e-05
2.21795e-05
2.33136e-05
2.49221e-05
2.74158e-05
2.87323e-05
2.73674e-05
2.41497e-05
2.15174e-05
1.9883e-05
1.89273e-05
1.83391e-05
1.79398e-05
4.56126e-05
6.1059e-05
7.04148e-05
7.71693e-05
8.04683e-05
7.55553e-05
6.26913e-05
4.8516e-05
3.83577e-05
3.23847e-05
2.91486e-05
2.73515e-05
5.2789e-05
7.62123e-05
9.10968e-05
9.96136e-05
0.000103316
9.75853e-05
8.17801e-05
6.35026e-05
4.93278e-05
4.0202e-05
3.47781e-05
3.16449e-05
5.55133e-05
8.23613e-05
9.95791e-05
0.000108701
0.000112396
0.000106498
8.9921e-05
7.01171e-05
5.42795e-05
4.38099e-05
3.73716e-05
3.35421e-05
5.65466e-05
8.47184e-05
0.000102829
0.000112167
0.000115849
0.00011
9.32729e-05
7.28946e-05
5.63478e-05
4.5298e-05
3.84205e-05
3.42842e-05
5.68819e-05
8.54596e-05
0.000103836
0.000113231
0.000116915
0.00011113
9.44061e-05
7.38412e-05
5.70389e-05
4.57817e-05
3.87508e-05
3.451e-05
5.68816e-05
8.54588e-05
0.000103835
0.00011323
0.000116913
0.000111128
9.44047e-05
7.38402e-05
5.70383e-05
4.57813e-05
3.87506e-05
3.45099e-05
5.65459e-05
8.47162e-05
0.000102826
0.000112163
0.000115845
0.000109995
9.32691e-05
7.28919e-05
5.63461e-05
4.52971e-05
3.842e-05
3.4284e-05
5.55122e-05
8.23582e-05
9.95756e-05
0.000108697
0.000112391
0.000106493
8.99162e-05
7.01138e-05
5.42774e-05
4.38088e-05
3.73711e-05
3.35419e-05
5.27878e-05
7.62095e-05
9.10939e-05
9.96103e-05
0.000103312
9.7581e-05
8.17767e-05
6.35004e-05
4.93267e-05
4.02016e-05
3.47781e-05
3.1645e-05
4.56112e-05
6.10571e-05
7.04137e-05
7.71693e-05
8.04687e-05
7.5556e-05
6.26923e-05
4.85172e-05
3.8359e-05
3.23859e-05
2.91495e-05
2.73522e-05
2.21789e-05
2.33138e-05
2.49233e-05
2.74176e-05
2.87342e-05
2.73688e-05
2.41506e-05
2.15181e-05
1.98835e-05
1.89278e-05
1.83396e-05
1.79403e-05
2.12777e-05
2.12357e-05
2.17306e-05
2.27983e-05
2.33412e-05
2.27045e-05
2.12282e-05
1.99364e-05
1.90459e-05
1.84574e-05
1.80485e-05
1.77442e-05
4.02913e-05
5.08354e-05
5.54154e-05
5.83095e-05
5.96184e-05
5.58491e-05
4.78478e-05
3.95657e-05
3.36782e-05
3.00855e-05
2.80047e-05
2.675e-05
4.59558e-05
6.33463e-05
7.22673e-05
7.62819e-05
7.75764e-05
7.28617e-05
6.25196e-05
5.12374e-05
4.23967e-05
3.64728e-05
3.28167e-05
3.06084e-05
4.81302e-05
6.85536e-05
7.94711e-05
8.39728e-05
8.51537e-05
8.01079e-05
6.89704e-05
5.6493e-05
4.64214e-05
3.94562e-05
3.50063e-05
3.22686e-05
4.89774e-05
7.06089e-05
8.23411e-05
8.70392e-05
8.81723e-05
8.30501e-05
7.1657e-05
5.86954e-05
4.80972e-05
4.06819e-05
3.58824e-05
3.29075e-05
4.92581e-05
7.12744e-05
8.32629e-05
8.80159e-05
8.91376e-05
8.40161e-05
7.25608e-05
5.94347e-05
4.86491e-05
4.10751e-05
3.61543e-05
3.30991e-05
4.92579e-05
7.12738e-05
8.32623e-05
8.80151e-05
8.91366e-05
8.4015e-05
7.25599e-05
5.9434e-05
4.86486e-05
4.10748e-05
3.61542e-05
3.3099e-05
4.89769e-05
7.06074e-05
8.23393e-05
8.70371e-05
8.81697e-05
8.30473e-05
7.16545e-05
5.86935e-05
4.8096e-05
4.06812e-05
3.58821e-05
3.29073e-05
4.81294e-05
6.85514e-05
7.94687e-05
8.39701e-05
8.51503e-05
8.01043e-05
6.89673e-05
5.64908e-05
4.64201e-05
3.94555e-05
3.50061e-05
3.22685e-05
4.59549e-05
6.33443e-05
7.22653e-05
7.62798e-05
7.75739e-05
7.28591e-05
6.25176e-05
5.12361e-05
4.23962e-05
3.64727e-05
3.28168e-05
3.06085e-05
4.02903e-05
5.08338e-05
5.54143e-05
5.83093e-05
5.96187e-05
5.58499e-05
4.78489e-05
3.95669e-05
3.36794e-05
3.00866e-05
2.80055e-05
2.67506e-05
2.12771e-05
2.12358e-05
2.17311e-05
2.27993e-05
2.33423e-05
2.27054e-05
2.12289e-05
1.99369e-05
1.90464e-05
1.84579e-05
1.80491e-05
1.77447e-05
2.06106e-05
1.98701e-05
1.98173e-05
2.02769e-05