/*--------------------------------*- C++ -*----------------------------------*\
| =========                 |                                                 |
| \\      /  F ield         | OpenFOAM: The Open Source CFD Toolbox           |
|  \\    /   O peration     | Version:  2.3.1                                 |
|   \\  /    A nd           | Web:      www.OpenFOAM.org                      |
|    \\/     M anipulation  |                                                 |
\*---------------------------------------------------------------------------*/
FoamFile
{
    version     2.0;
    format      ascii;
    class       volScalarField;
    location    "5";
    object      nut;
}
// * * * * * * * * * * * * * * * * * * * * * * * * * * * * * * * * * * * * * //

dimensions      [0 2 -1 0 0 0 0];

internalField   nonuniform List<scalar> 
37758
(
7.08685e-06
7.21709e-06
7.40292e-06
7.70154e-06
8.03555e-06
8.11995e-06
8.02058e-06
7.58487e-06
6.54636e-06
5.58941e-06
4.96925e-06
4.63722e-06
7.1572e-06
7.56883e-06
7.87488e-06
8.22909e-06
8.8762e-06
9.08796e-06
8.98648e-06
8.62861e-06
7.94629e-06
6.72742e-06
5.6563e-06
5.07819e-06
7.14679e-06
7.58622e-06
7.87179e-06
8.24042e-06
8.88076e-06
9.09121e-06
9.01005e-06
8.7148e-06
8.23852e-06
7.13628e-06
5.88036e-06
5.1846e-06
7.14014e-06
7.59694e-06
7.87494e-06
8.23235e-06
8.86805e-06
9.05711e-06
8.97438e-06
8.70093e-06
8.30274e-06
7.33349e-06
5.97795e-06
5.21694e-06
7.13805e-06
7.60168e-06
7.87537e-06
8.22685e-06
8.85773e-06
9.04374e-06
8.96307e-06
8.70364e-06
8.33207e-06
7.40853e-06
6.01754e-06
5.2297e-06
7.13673e-06
7.60364e-06
7.87664e-06
8.22628e-06
8.8533e-06
9.0376e-06
8.95774e-06
8.70355e-06
8.34177e-06
7.43537e-06
6.03143e-06
5.23354e-06
7.13673e-06
7.60364e-06
7.87664e-06
8.22628e-06
8.8533e-06
9.0376e-06
8.95775e-06
8.70357e-06
8.34181e-06
7.43545e-06
6.0315e-06
5.23358e-06
7.13805e-06
7.60168e-06
7.87537e-06
8.22685e-06
8.85773e-06
9.04376e-06
8.9631e-06
8.7037e-06
8.33217e-06
7.40876e-06
6.01773e-06
5.22982e-06
7.14014e-06
7.59694e-06
7.87494e-06
8.23235e-06
8.86806e-06
9.05714e-06
8.97442e-06
8.70101e-06
8.30289e-06
7.33383e-06
5.97823e-06
5.21713e-06
7.14679e-06
7.58622e-06
7.87179e-06
8.24042e-06
8.88076e-06
9.09124e-06
9.0101e-06
8.7149e-06
8.2387e-06
7.13667e-06
5.88069e-06
5.18483e-06
7.15719e-06
7.56884e-06
7.87488e-06
8.22909e-06
8.8762e-06
9.08798e-06
8.98652e-06
8.6287e-06
7.94652e-06
6.72775e-06
5.65659e-06
5.07841e-06
7.08685e-06
7.2171e-06
7.40291e-06
7.70153e-06
8.03556e-06
8.11996e-06
8.02062e-06
7.58501e-06
6.54662e-06
5.58965e-06
4.96945e-06
4.63738e-06
1.40703e-05
1.42732e-05
1.49225e-05
1.56163e-05
1.60971e-05
1.62454e-05
1.61779e-05
1.5924e-05
1.53239e-05
1.36653e-05
1.15897e-05
1.05772e-05
6.77798e-05
4.43139e-05
2.59662e-05
2.38454e-05
1.99967e-05
1.57358e-05
1.32178e-05
1.22755e-05
1.14363e-05
1.01158e-05
9.77308e-06
1.10853e-05
7.24806e-05
4.57058e-05
2.67738e-05
2.47341e-05
2.07126e-05
1.57013e-05
1.33769e-05
1.21689e-05
1.19067e-05
1.11087e-05
1.07065e-05
1.23059e-05
7.42722e-05
4.53253e-05
2.71486e-05
2.47697e-05
2.03165e-05
1.52257e-05
1.34545e-05
1.21317e-05
1.20945e-05
1.15901e-05
1.11643e-05
1.27865e-05
7.49673e-05
4.51426e-05
2.74038e-05
2.48906e-05
2.01834e-05
1.50814e-05
1.34408e-05
1.21132e-05
1.22496e-05
1.17982e-05
1.13763e-05
1.29782e-05
7.51956e-05
4.5121e-05
2.75245e-05
2.49344e-05
2.01199e-05
1.50377e-05
1.34391e-05
1.21224e-05
1.23118e-05
1.18794e-05
1.14563e-05
1.30453e-05
7.51955e-05
4.51213e-05
2.75242e-05
2.49344e-05
2.01199e-05
1.50377e-05
1.34391e-05
1.21224e-05
1.2312e-05
1.18796e-05
1.14566e-05
1.30455e-05
7.4967e-05
4.51436e-05
2.74031e-05
2.48904e-05
2.01836e-05
1.50814e-05
1.3441e-05
1.21134e-05
1.22501e-05
1.17989e-05
1.13771e-05
1.29788e-05
7.42714e-05
4.53266e-05
2.71478e-05
2.47694e-05
2.03169e-05
1.52257e-05
1.34549e-05
1.21319e-05
1.20951e-05
1.15911e-05
1.11657e-05
1.27873e-05
7.24798e-05
4.57069e-05
2.67731e-05
2.47339e-05
2.07131e-05
1.57013e-05
1.33774e-05
1.21691e-05
1.19073e-05
1.11101e-05
1.07079e-05
1.23069e-05
6.77793e-05
4.43147e-05
2.59658e-05
2.38453e-05
1.99971e-05
1.57359e-05
1.3218e-05
1.22755e-05
1.14367e-05
1.0117e-05
9.77428e-06
1.1086e-05
1.40703e-05
1.42732e-05
1.49225e-05
1.56163e-05
1.60972e-05
1.62455e-05
1.61779e-05
1.59241e-05
1.53241e-05
1.36658e-05
1.15902e-05
1.05775e-05
1.39852e-05
1.43148e-05
1.65158e-05
1.86493e-05
1.81086e-05
1.6948e-05
1.625e-05
1.58267e-05
1.52139e-05
1.35634e-05
1.18626e-05
1.10596e-05
8.97092e-05
3.22664e-05
2.57747e-05
2.61803e-05
2.44777e-05
2.06129e-05
1.69557e-05
1.52734e-05
1.50352e-05
1.56747e-05
1.89493e-05
2.26521e-05
8.66634e-05
2.93481e-05
2.46237e-05
2.52737e-05
2.44446e-05
2.03373e-05
1.70444e-05
1.57096e-05
1.60939e-05
1.7857e-05
2.34485e-05
2.79897e-05
8.55384e-05
2.83598e-05
2.40071e-05
2.46285e-05
2.41129e-05
1.96826e-05
1.69502e-05
1.59513e-05
1.68717e-05
1.93505e-05
2.53718e-05
2.98234e-05
8.52815e-05
2.80093e-05
2.38198e-05
2.44399e-05
2.39771e-05
1.94764e-05
1.69456e-05
1.60516e-05
1.73732e-05
2.01905e-05
2.62347e-05
3.04591e-05
8.52644e-05
2.79403e-05
2.37236e-05
2.43618e-05
2.39093e-05
1.94128e-05
1.69642e-05
1.61001e-05
1.75941e-05
2.05246e-05
2.65463e-05
3.06526e-05
8.52643e-05
2.79402e-05
2.37237e-05
2.4362e-05
2.39094e-05
1.94128e-05
1.69643e-05
1.61002e-05
1.75945e-05
2.05253e-05
2.6547e-05
3.06531e-05
8.52813e-05
2.80091e-05
2.38201e-05
2.44404e-05
2.39774e-05
1.94766e-05
1.69458e-05
1.60519e-05
1.73744e-05
2.01925e-05
2.62369e-05
3.04605e-05
8.55382e-05
2.83596e-05
2.40074e-05
2.46293e-05
2.41133e-05
1.96828e-05
1.69504e-05
1.59518e-05
1.68732e-05
1.93534e-05
2.53752e-05
2.98254e-05
8.66632e-05
2.9348e-05
2.4624e-05
2.52747e-05
2.44451e-05
2.03374e-05
1.70446e-05
1.57101e-05
1.60954e-05
1.78597e-05
2.34528e-05
2.7992e-05
8.97089e-05
3.22665e-05
2.57748e-05
2.6181e-05
2.44782e-05
2.06128e-05
1.6956e-05
1.52737e-05
1.50362e-05
1.56767e-05
1.8953e-05
2.26537e-05
1.39852e-05
1.43148e-05
1.65157e-05
1.86497e-05
1.81089e-05
1.69482e-05
1.62501e-05
1.58268e-05
1.52141e-05
1.35639e-05
1.1863e-05
1.10599e-05
1.40622e-05
1.50146e-05
2.12726e-05
2.5977e-05
2.41106e-05
1.93866e-05
1.68845e-05
1.58959e-05
1.52072e-05
1.36672e-05
1.22265e-05
1.13801e-05
2.74755e-05
3.50331e-05
5.6855e-05
5.68749e-05
4.43215e-05
2.81502e-05
2.12706e-05
1.95e-05
2.15549e-05
2.55919e-05
3.24688e-05
3.41505e-05
2.20941e-05
3.11267e-05
5.84629e-05
5.81104e-05
4.52733e-05
2.78894e-05
2.18269e-05
2.12525e-05
2.62493e-05
3.23343e-05
3.91746e-05
4.35034e-05
2.14129e-05
3.1432e-05
5.85586e-05
5.79459e-05
4.50038e-05
2.73168e-05
2.21602e-05
2.22841e-05
2.96337e-05
3.62535e-05
4.22645e-05
4.67075e-05
2.1364e-05
3.20015e-05
5.83618e-05
5.76517e-05
4.49246e-05
2.7213e-05
2.24841e-05
2.28832e-05
3.14432e-05
3.8187e-05
4.36457e-05
4.77472e-05
2.1372e-05
3.21444e-05
5.82365e-05
5.75588e-05
4.50256e-05
2.72315e-05
2.26595e-05
2.31703e-05
3.21972e-05
3.89369e-05
4.41334e-05
4.80368e-05
2.1372e-05
3.21443e-05
5.82371e-05
5.75595e-05
4.50265e-05
2.72318e-05
2.26598e-05
2.31708e-05
3.21984e-05
3.89382e-05
4.41344e-05
4.80374e-05
2.1364e-05
3.20011e-05
5.83633e-05
5.76539e-05
4.49273e-05
2.72139e-05
2.2485e-05
2.28847e-05
3.1447e-05
3.81909e-05
4.36487e-05
4.77489e-05
2.14128e-05
3.14314e-05
5.85607e-05
5.7949e-05
4.50077e-05
2.73179e-05
2.21614e-05
2.22862e-05
2.96392e-05
3.62596e-05
4.22692e-05
4.67099e-05
2.20941e-05
3.1126e-05
5.84651e-05
5.81138e-05
4.52779e-05
2.78906e-05
2.18278e-05
2.12545e-05
2.62546e-05
3.23411e-05
3.91799e-05
4.35059e-05
2.74753e-05
3.50329e-05
5.68565e-05
5.68776e-05
4.43257e-05
2.81509e-05
2.12711e-05
1.95014e-05
2.15584e-05
2.55968e-05
3.24726e-05
3.41522e-05
1.40622e-05
1.50146e-05
2.12725e-05
2.59777e-05
2.41116e-05
1.93872e-05
1.68847e-05
1.58961e-05
1.52075e-05
1.36678e-05
1.2227e-05
1.13804e-05
1.6977e-05
2.17658e-05
2.87571e-05
3.20344e-05
3.07015e-05
2.397e-05
1.83627e-05
1.62792e-05
1.55681e-05
1.45452e-05
1.28496e-05
1.1641e-05
4.20311e-05
6.29148e-05
8.05133e-05
8.11805e-05
7.08605e-05
4.14698e-05
2.76741e-05
2.83947e-05
3.49383e-05
4.24931e-05
4.57148e-05
4.37529e-05
5.77699e-05
7.05671e-05
8.94053e-05
8.66409e-05
7.5173e-05
4.27716e-05
3.04065e-05
3.33127e-05
4.38213e-05
5.29602e-05
5.61718e-05
5.7446e-05
6.04504e-05
7.31995e-05
9.16446e-05
8.83534e-05
7.63915e-05
4.34254e-05
3.23566e-05
3.65824e-05
4.8954e-05
5.88874e-05
6.0253e-05
6.22093e-05
6.07295e-05
7.3804e-05
9.17112e-05
8.84484e-05
7.69581e-05
4.41422e-05
3.36258e-05
3.8516e-05
5.15039e-05
6.17636e-05
6.19225e-05
6.37125e-05
6.06799e-05
7.39524e-05
9.1566e-05
8.84465e-05
7.73624e-05
4.46047e-05
3.42365e-05
3.94175e-05
5.25215e-05
6.2903e-05
6.25135e-05
6.41182e-05
6.068e-05
7.39526e-05
9.15664e-05
8.84472e-05
7.73634e-05
4.46056e-05
3.42374e-05
3.94189e-05
5.25231e-05
6.2905e-05
6.25143e-05
6.41186e-05
6.07296e-05
7.38045e-05
9.17125e-05
8.84503e-05
7.69611e-05
4.41449e-05
3.36285e-05
3.85197e-05
5.15085e-05
6.17698e-05
6.19249e-05
6.37139e-05
6.04505e-05
7.32002e-05
9.16464e-05
8.83561e-05
7.63961e-05
4.34291e-05
3.23601e-05
3.65875e-05
4.89608e-05
5.88967e-05
6.02571e-05
6.22113e-05
5.77698e-05
7.05681e-05
8.94074e-05
8.6644e-05
7.51788e-05
4.27754e-05
3.04103e-05
3.33176e-05
4.38287e-05
5.29704e-05
5.61773e-05
5.74481e-05
4.20305e-05
6.29184e-05
8.05146e-05
8.11829e-05
7.08648e-05
4.14732e-05
2.76756e-05
2.8398e-05
3.49444e-05
4.25002e-05
4.57202e-05
4.37546e-05
1.6977e-05
2.17665e-05
2.87578e-05
3.20351e-05
3.07025e-05
2.39713e-05
1.83632e-05
1.62795e-05
1.55687e-05
1.45463e-05
1.28503e-05
1.16414e-05
1.80794e-05
2.26649e-05
2.85831e-05
3.20939e-05
3.17912e-05
2.70438e-05
2.02205e-05
1.7116e-05
1.66952e-05
1.58379e-05
1.32251e-05
1.17335e-05
5.35891e-05
8.3241e-05
0.00010107
9.63013e-05
7.91042e-05
5.27644e-05
3.60516e-05
3.94739e-05
5.02617e-05
6.0991e-05
5.09917e-05
5.00407e-05
6.00678e-05
9.22607e-05
0.000111554
0.000105475
8.83772e-05
5.96312e-05
4.52136e-05
5.09429e-05
6.42891e-05
7.36423e-05
6.35873e-05
6.83972e-05
6.10331e-05
9.40397e-05
0.000113943
0.000107447
9.12445e-05
6.29374e-05
5.09807e-05
5.79842e-05
7.15934e-05
7.94203e-05
6.85166e-05
7.51008e-05
6.08379e-05
9.3686e-05
0.000113879
0.000107404
9.21141e-05
6.48737e-05
5.40511e-05
6.14484e-05
7.50189e-05
8.21513e-05
7.04986e-05
7.72062e-05
6.0685e-05
9.33285e-05
0.000113554
0.000107181
9.23533e-05
6.57392e-05
5.53614e-05
6.28505e-05
7.63351e-05
8.32264e-05
7.11833e-05
7.77523e-05
6.0685e-05
9.33285e-05
0.000113554
0.000107182
9.2354e-05
6.57409e-05
5.53634e-05
6.28528e-05
7.63373e-05
8.32273e-05
7.11838e-05
7.77527e-05
6.08379e-05
9.36862e-05
0.00011388
0.000107406
9.2116e-05
6.48783e-05
5.40569e-05
6.1455e-05
7.50255e-05
8.2154e-05
7.05001e-05
7.72074e-05
6.10329e-05
9.40398e-05
0.000113944
0.000107451
9.12473e-05
6.2944e-05
5.09888e-05
5.79937e-05
7.16032e-05
7.94249e-05
6.85189e-05
7.51025e-05
6.00674e-05
9.22609e-05
0.000111555
0.00010548
8.83805e-05
5.96381e-05
4.5221e-05
5.09526e-05
6.43001e-05
7.36483e-05
6.35901e-05
6.83988e-05
5.35883e-05
8.32425e-05
0.000101072
9.63057e-05
7.91074e-05
5.27697e-05
3.60563e-05
3.94801e-05
5.02699e-05
6.09969e-05
5.09946e-05
5.00417e-05
1.80795e-05
2.26656e-05
2.85839e-05
3.20945e-05
3.17919e-05
2.70451e-05
2.02214e-05
1.71166e-05
1.66961e-05
1.58391e-05
1.32259e-05
1.17339e-05
1.82477e-05
2.34821e-05
2.79757e-05
3.09769e-05
3.12508e-05
2.77754e-05
2.10727e-05
1.87287e-05
1.84064e-05
1.6209e-05
1.31779e-05
1.17109e-05
7.34152e-05
0.000107732
0.000117591
0.000103562
8.21115e-05
6.42646e-05
5.18951e-05
5.86935e-05
6.9257e-05
6.41733e-05
5.41995e-05
5.47412e-05
8.36147e-05
0.000126936
0.000137441
0.000118351
9.42981e-05
7.71285e-05
6.8894e-05
7.71874e-05
8.65791e-05
7.83518e-05
7.02657e-05
7.83758e-05
8.63974e-05
0.000131727
0.000142459
0.000122523
9.85284e-05
8.26042e-05
7.75462e-05
8.61227e-05
9.44282e-05
8.49225e-05
7.6773e-05
8.75409e-05
8.71938e-05
0.000132431
0.000143105
0.000123452
0.000100211
8.51045e-05
8.15154e-05
9.0154e-05
9.80248e-05
8.79663e-05
7.92632e-05
9.04835e-05
8.73701e-05
0.000132282
0.000142863
0.000123572
0.000100849
8.60243e-05
8.30186e-05
9.16582e-05
9.94068e-05
8.91373e-05
8.00699e-05
9.12432e-05
8.73701e-05
0.000132282
0.000142863
0.000123573
0.00010085
8.60258e-05
8.3021e-05
9.16608e-05
9.94082e-05
8.91381e-05
8.00707e-05
9.12436e-05
8.71937e-05
0.000132431
0.000143105
0.000123455
0.000100214
8.51086e-05
8.15225e-05
9.01616e-05
9.8029e-05
8.79687e-05
7.92656e-05
9.04847e-05
8.63972e-05
0.000131727
0.00014246
0.000122526
9.85331e-05
8.26107e-05
7.75571e-05
8.61341e-05
9.4435e-05
8.49265e-05
7.67767e-05
8.75426e-05
8.36144e-05
0.000126936
0.000137442
0.000118356
9.43033e-05
7.71366e-05
6.89065e-05
7.72006e-05
8.65876e-05
7.83567e-05
7.02698e-05
7.83774e-05
7.34145e-05
0.000107733
0.000117593
0.000103566
8.21156e-05
6.42721e-05
5.19048e-05
5.8704e-05
6.92652e-05
6.41777e-05
5.4203e-05
5.47423e-05
1.82479e-05
2.34829e-05
2.79764e-05
3.09774e-05
3.12515e-05
2.77766e-05
2.10739e-05
1.87298e-05
1.84076e-05
1.62102e-05
1.31786e-05
1.17112e-05
1.77018e-05
2.30484e-05
2.73447e-05
2.98572e-05
3.03125e-05
2.73589e-05
2.21165e-05
2.08753e-05
1.92672e-05
1.58949e-05
1.29605e-05
1.16264e-05
9.00617e-05
0.000113907
0.000119855
0.00010695
8.65997e-05
7.19078e-05
6.97313e-05
7.62825e-05
7.60521e-05
6.69753e-05
5.94827e-05
5.96918e-05
0.000106413
0.000144537
0.000148291
0.000127534
0.000102698
8.80453e-05
8.93938e-05
9.63983e-05
9.43562e-05
8.54579e-05
7.9988e-05
8.90143e-05
0.000111916
0.000154349
0.00015716
0.000134981
0.000109638
9.60508e-05
9.83941e-05
0.000105428
0.000102713
9.36285e-05
8.82888e-05
0.000100918
0.000113547
0.000156831
0.000159396
0.000137495
0.000112638
9.97094e-05
0.000102253
0.000109325
0.000106556
9.71385e-05
9.13055e-05
0.000104841
0.000113926
0.000157195
0.000159673
0.000138186
0.000113751
0.000101134
0.000103676
0.00011077
0.000108053
9.84173e-05
9.22292e-05
0.000105864
0.000113926
0.000157195
0.000159673
0.000138187
0.000113752
0.000101136
0.000103678
0.000110771
0.000108054
9.84181e-05
9.22299e-05
0.000105865
0.000113547
0.000156831
0.000159397
0.000137498
0.000112642
9.97138e-05
0.000102258
0.000109329
0.000106559
9.7141e-05
9.13076e-05
0.000104843
0.000111916
0.000154349
0.000157162
0.000134985
0.000109644
9.60578e-05
9.84016e-05
0.000105434
0.000102717
9.36329e-05
8.8292e-05
0.00010092
0.000106413
0.000144538
0.000148294
0.00012754
0.000102705
8.80532e-05
8.94028e-05
9.64059e-05
9.43619e-05
8.54636e-05
7.99918e-05
8.90166e-05
9.00607e-05
0.000113909
0.000119858
0.000106955
8.66057e-05
7.19148e-05
6.97406e-05
7.62907e-05
7.60582e-05
6.69808e-05
5.9486e-05
5.96934e-05
1.77021e-05
2.30494e-05
2.73456e-05
2.98577e-05
3.03131e-05
2.736e-05
2.21178e-05
2.08765e-05
1.92683e-05
1.5896e-05
1.29611e-05
1.16267e-05
1.66666e-05
2.18786e-05
2.65574e-05
2.87583e-05
2.91612e-05
2.64729e-05
2.33942e-05
2.1928e-05
1.91482e-05
1.50922e-05
1.25377e-05
1.14722e-05
9.13946e-05
0.000114165
0.000118963
0.00011006
9.44093e-05
8.13849e-05
7.86925e-05
8.20644e-05
8.13208e-05
6.97762e-05
6.33957e-05
6.30235e-05
0.000115078
0.000150939
0.000152176
0.000136053
0.000115398
0.000102827
0.00010143
0.000105318
0.000104229
9.17511e-05
8.88476e-05
9.87256e-05
0.00012319
0.000164178
0.000164246
0.00014649
0.000125103
0.000113149
0.000112326
0.000115832
0.000114438
0.000101095
9.92006e-05
0.000113952
0.000125595
0.000168118
0.000168033
0.000150356
0.000129266
0.000117768
0.000116997
0.000120391
0.000118989
0.000104862
0.000102819
0.000119124
0.000126165
0.000168963
0.000168893
0.000151495
0.000130756
0.000119486
0.000118706
0.000122051
0.000120684
0.000106168
0.000103861
0.000120498
0.000126165
0.000168964
0.000168894
0.000151496
0.000130758
0.000119488
0.000118707
0.000122052
0.000120685
0.000106169
0.000103862
0.000120498
0.000125596
0.000168119
0.000168034
0.000150359
0.00012927
0.000117774
0.000117001
0.000120396
0.000118993
0.000104863
0.00010282
0.000119125
0.000123191
0.000164179
0.000164249
0.000146495
0.000125109
0.000113158
0.000112333
0.00011584
0.000114444
0.000101097
9.9202e-05
0.000113953
0.000115078
0.000150941
0.000152179
0.00013606
0.000115406
0.000102837
0.000101439
0.000105327
0.000104237
9.17549e-05
8.88495e-05
9.87269e-05
9.13932e-05
0.000114167
0.000118967
0.000110066
9.44166e-05
8.13945e-05
7.86997e-05
8.2072e-05
8.13286e-05
6.97811e-05
6.33985e-05
6.30253e-05
1.66669e-05
2.18797e-05
2.65584e-05
2.8759e-05
2.91619e-05
2.6474e-05
2.33953e-05
2.19291e-05
1.91493e-05
1.50931e-05
1.25381e-05
1.14725e-05
1.61169e-05
2.06174e-05
2.53468e-05
2.74051e-05
2.78168e-05
2.56887e-05
2.38814e-05
2.19078e-05
1.81336e-05
1.40746e-05
1.21123e-05
1.13144e-05
9.33166e-05
0.000111693
0.00011755
0.000112879
0.000101704
9.21755e-05
8.84193e-05
9.09408e-05
8.48271e-05
7.16371e-05
6.66191e-05
6.45676e-05
0.0001182
0.00015067
0.000154185
0.000143894
0.000128645
0.000119461
0.000117575
0.000120057
0.000110744
9.71694e-05
9.75904e-05
0.000106214
0.00012739
0.000165825
0.000168561
0.000156771
0.000140928
0.000131971
0.000130132
0.000132055
0.000121857
0.000107969
0.000110436
0.000124934
0.000130306
0.000170848
0.000173461
0.000161625
0.000145951
0.000137254
0.000135376
0.000137073
0.000126531
0.000112131
0.000114918
0.000131526
0.000131053
0.000172125
0.000174745
0.000163082
0.000147648
0.000139119
0.00013722
0.000138854
0.000128228
0.000113486
0.000116175
0.000133326
0.000131053
0.000172125
0.000174745
0.000163083
0.000147649
0.000139121
0.000137222
0.000138855
0.000128228
0.000113486
0.000116175
0.000133326
0.000130306
0.000170848
0.000173462
0.000161628
0.000145955
0.00013726
0.000135382
0.000137077
0.000126532
0.000112131
0.000114919
0.000131527
0.00012739
0.000165826
0.000168564
0.000156776
0.000140935
0.00013198
0.000130141
0.000132062
0.000121859
0.000107971
0.000110437
0.000124935
0.0001182
0.000150671
0.000154189
0.000143901
0.000128654
0.000119471
0.000117586
0.000120067
0.000110749
9.71723e-05
9.75922e-05
0.000106216
9.33145e-05
0.000111695
0.000117554
0.000112887
0.000101711
9.21865e-05
8.84302e-05
9.09511e-05
8.48335e-05
7.16418e-05
6.66224e-05
6.45702e-05
1.61172e-05
2.06182e-05
2.5348e-05
2.74061e-05
2.78177e-05
2.56898e-05
2.38823e-05
2.19088e-05
1.81345e-05
1.40752e-05
1.21126e-05
1.13145e-05
1.49188e-05
1.90431e-05
2.35398e-05
2.59235e-05
2.65207e-05
2.52067e-05
2.37304e-05
2.10483e-05
1.61707e-05
1.31061e-05
1.17469e-05
1.11697e-05
9.37653e-05
0.000110002
0.000115564
0.000113252
0.000106666
0.000101139
9.85608e-05
9.65179e-05
8.38146e-05
7.31374e-05
6.87055e-05
6.47546e-05
0.000120143
0.000150283
0.000155076
0.000148764
0.000139342
0.000133805
0.000131868
0.00012717
0.000112452
0.000102782
0.000105923
0.000111478
0.000130067
0.000166688
0.000171298
0.000163724
0.000153544
0.000147968
0.000145585
0.000139946
0.000124726
0.000115285
0.000121776
0.000133682
0.000133374
0.00017245
0.000177067
0.000169368
0.000159096
0.00015358
0.000151058
0.000145188
0.000129687
0.000119953
0.000127371
0.000141782
0.000134269
0.000174034
0.000178675
0.000171069
0.000160888
0.000155457
0.000152921
0.000147046
0.000131396
0.000121393
0.000128936
0.000144055
0.000134269
0.000174034
0.000178675
0.000171069
0.000160888
0.000155458
0.000152922
0.000147046
0.000131396
0.000121393
0.000128936
0.000144056
0.000133374
0.000172451
0.000177068
0.00016937
0.000159099
0.000153583
0.000151062
0.000145189
0.000129688
0.000119954
0.000127371
0.000141782
0.000130068
0.000166689
0.000171301
0.000163728
0.000153549
0.000147974
0.000145591
0.000139948
0.000124727
0.000115286
0.000121777
0.000133683
0.000120143
0.000150285
0.00015508
0.000148771
0.00013935
0.000133813
0.000131876
0.000127174
0.000112455
0.000102784
0.000105925
0.00011148
9.37625e-05
0.000110003
0.000115569
0.00011326
0.000106674
0.00010115
9.85716e-05
9.6525e-05
8.38203e-05
7.31418e-05
6.87094e-05
6.4758e-05
1.4919e-05
1.90439e-05
2.35411e-05
2.59246e-05
2.65217e-05
2.52076e-05
2.37313e-05
2.10492e-05
1.61714e-05
1.31065e-05
1.17471e-05
1.11699e-05
1.40231e-05
1.70788e-05
2.09609e-05
2.4025e-05
2.50164e-05
2.4403e-05
2.26355e-05
1.82909e-05
1.43814e-05
1.23531e-05
1.14568e-05
1.10434e-05
9.33479e-05
0.000107923
0.000112381
0.000110904
0.000107557
0.000103298
0.000100965
9.41137e-05
8.24348e-05
7.4235e-05
6.91665e-05
6.3863e-05
0.000121279
0.000149217
0.000154134
0.000149938
0.000144468
0.000140141
0.000135825
0.000126637
0.000113735
0.000108938
0.000112821
0.000114156
0.000131915
0.000166503
0.000171766
0.000166484
0.000160123
0.000155462
0.000150284
0.000140438
0.000127182
0.000123582
0.00013218
0.000139444
0.000135565
0.000172801
0.000178228
0.000172736
0.00016611
0.000161378
0.000155987
0.000146014
0.000132459
0.000128958
0.00013916
0.000148972
0.000136592
0.000174614
0.000180095
0.000174635
0.000167993
0.000163307
0.000157902
0.000147929
0.000134192
0.000130558
0.000141138
0.000151708
0.000136593
0.000174614
0.000180095
0.000174635
0.000167993
0.000163307
0.000157902
0.000147929
0.000134192
0.000130558
0.000141138
0.000151708
0.000135565
0.000172801
0.000178228
0.000172738
0.000166112
0.000161379
0.000155987
0.000146014
0.000132459
0.000128958
0.00013916
0.000148972
0.000131916
0.000166504
0.000171768
0.000166487
0.000160126
0.000155465
0.000150286
0.000140439
0.000127183
0.000123583
0.000132181
0.000139444
0.000121279
0.000149217
0.000154138
0.000149944
0.000144474
0.000140146
0.000135829
0.00012664
0.000113737
0.00010894
0.000112823
0.000114158
9.33442e-05
0.000107923
0.000112387
0.000110912
0.000107566
0.000103307
0.000100972
9.41198e-05
8.24399e-05
7.42397e-05
6.91713e-05
6.38673e-05
1.40231e-05
1.70795e-05
2.09622e-05
2.4026e-05
2.50172e-05
2.44037e-05
2.26362e-05
1.82916e-05
1.43819e-05
1.23534e-05
1.1457e-05
1.10435e-05
1.33272e-05
1.55121e-05
1.82335e-05
2.11542e-05
2.23486e-05
2.21193e-05
1.92976e-05
1.55611e-05
1.30659e-05
1.1817e-05
1.12323e-05
1.09353e-05
9.27989e-05
0.000105786
0.000108428
0.000106603
0.000105238
0.000101473
9.83342e-05
9.0583e-05
8.11336e-05
7.42242e-05
6.79797e-05
6.23832e-05
0.000122091
0.000147397
0.000151381
0.00014756
0.000144623
0.000140095
0.000134301
0.000124566
0.000115815
0.000115085
0.000117164
0.000114464
0.000133416
0.000165292
0.000169957
0.000165138
0.00016124
0.00015625
0.000149493
0.000139202
0.000130637
0.000132559
0.000140243
0.000142041
0.000137383
0.000171997
0.000176955
0.000171853
0.000167557
0.000162512
0.000155496
0.000145034
0.000136321
0.000138947
0.000148793
0.000152719
0.000138533
0.000173995
0.000179041
0.000173914
0.000169517
0.000164534
0.000157485
0.000146976
0.000138112
0.00014082
0.000151261
0.000155835
0.000138533
0.000173995
0.000179041
0.000173914
0.000169518
0.000164534
0.000157485
0.000146976
0.000138112
0.00014082
0.000151261
0.000155835
0.000137384
0.000171997
0.000176955
0.000171854
0.000167558
0.000162513
0.000155496
0.000145034
0.00013632
0.000138947
0.000148793
0.000152719
0.000133416
0.000165292
0.000169959
0.00016514
0.000161243
0.000156252
0.000149494
0.000139203
0.000130637
0.00013256
0.000140244
0.000142042
0.00012209
0.000147398
0.000151384
0.000147565
0.000144628
0.000140099
0.000134305
0.000124568
0.000115817
0.000115087
0.000117167
0.000114467
9.27951e-05
0.000105784
0.000108432
0.000106611
0.000105247
0.000101481
9.8341e-05
9.05885e-05
8.11388e-05
7.42297e-05
6.79856e-05
6.23882e-05
1.3327e-05
1.55126e-05
1.82346e-05
2.11551e-05
2.23493e-05
2.21198e-05
1.92982e-05
1.55616e-05
1.30662e-05
1.18172e-05
1.12324e-05
1.09355e-05
1.26895e-05
1.4045e-05
1.57445e-05
1.78952e-05
1.88876e-05
1.83779e-05
1.60173e-05
1.36562e-05
1.2195e-05
1.14425e-05
1.10589e-05
1.08435e-05
9.08841e-05
0.000102753
0.000104177
0.000101665
0.000100738
9.75955e-05
9.40026e-05
8.69403e-05
7.94999e-05
7.24845e-05
6.5734e-05
6.07767e-05
0.000122862
0.000145132
0.000147575
0.000142873
0.000140852
0.000136091
0.000130303
0.000122863
0.000119059
0.000119833
0.000118434
0.000113097
0.000135088
0.000163614
0.000166734
0.000160892
0.000158118
0.000152554
0.000145974
0.000138373
0.000135858
0.000140875
0.00014484
0.000141963
0.000139398
0.000170684
0.000174124
0.000167873
0.000164776
0.000158999
0.000152184
0.000144457
0.000142184
0.000148637
0.000154916
0.000153368
0.000140665
0.000172841
0.000176383
0.00017004
0.00016685
0.000161077
0.000154218
0.000146423
0.000144118
0.000150915
0.000157873
0.000156723
0.000140666
0.000172841
0.000176383
0.000170041
0.00016685
0.000161077
0.000154218
0.000146423
0.000144118
0.000150915
0.000157873
0.000156723
0.000139398
0.000170684
0.000174125
0.000167873
0.000164776
0.000158999
0.000152184
0.000144457
0.000142184
0.000148638
0.000154916
0.000153368
0.000135088
0.000163614
0.000166735
0.000160894
0.000158119
0.000152555
0.000145974
0.000138373
0.000135858
0.000140876
0.000144841
0.000141964
0.000122861
0.000145132
0.000147577
0.000142877
0.000140856
0.000136094
0.000130305
0.000122865
0.000119061
0.000119836
0.000118437
0.0001131
9.08788e-05
0.000102749
0.000104179
0.000101671
0.000100745
9.76025e-05
9.40085e-05
8.69457e-05
7.95057e-05
7.24911e-05
6.57407e-05
6.07823e-05
1.26894e-05
1.40453e-05
1.57454e-05
1.78961e-05
1.88884e-05
1.83785e-05
1.60178e-05
1.36566e-05
1.21952e-05
1.14427e-05
1.1059e-05
1.08437e-05
1.22548e-05
1.29966e-05
1.38952e-05
1.51374e-05
1.57656e-05
1.52753e-05
1.37828e-05
1.24555e-05
1.16329e-05
1.11791e-05
1.09239e-05
1.07652e-05
8.84089e-05
9.89215e-05
9.96701e-05
9.6395e-05
9.51404e-05
9.24428e-05
8.91381e-05
8.33678e-05
7.66583e-05
6.93085e-05
6.32242e-05
5.93272e-05
0.000123604
0.000142803
0.000143668
0.000137528
0.000134835
0.000130529
0.000126329
0.000122911
0.000122481
0.000121764
0.000117086
0.0001109
0.000137046
0.000162124
0.000163349
0.000155879
0.000152336
0.000147167
0.00014252
0.000139768
0.000142265
0.000146644
0.000145789
0.000140135
0.000141772
0.000169607
0.000171072
0.000163088
0.000159206
0.000153736
0.000148912
0.000146258
0.000149639
0.000156028
0.00015704
0.00015182
0.000143168
0.000171929
0.00017348
0.000165345
0.000161373
0.000155848
0.000150974
0.000148295
0.000151855
0.000158803
0.000160379
0.00015526
0.000143168
0.000171929
0.00017348
0.000165345
0.000161373
0.000155848
0.000150974
0.000148295
0.000151855
0.000158803
0.000160379
0.00015526
0.000141773
0.000169607
0.000171073
0.000163088
0.000159207
0.000153736
0.000148912
0.000146258
0.00014964
0.000156028
0.00015704
0.00015182
0.000137046
0.000162124
0.000163351
0.000155881
0.000152338
0.000147168
0.000142521
0.000139768
0.000142266
0.000146645
0.00014579
0.000140136
0.000123603
0.000142802
0.000143669
0.000137531
0.000134838
0.000130532
0.000126331
0.000122913
0.000122483
0.000121767
0.00011709
0.000110903
8.84042e-05
9.89162e-05
9.96697e-05
9.63988e-05
9.51457e-05
9.24485e-05
8.91435e-05
8.33736e-05
7.66651e-05
6.93161e-05
6.32315e-05
5.93331e-05
1.22546e-05
1.29967e-05
1.38957e-05
1.51381e-05
1.57662e-05
1.52758e-05
1.37832e-05
1.24558e-05
1.16331e-05
1.11793e-05
1.09241e-05
1.07654e-05
1.1896e-05
1.21981e-05
1.26153e-05
1.32369e-05
1.35556e-05
1.32349e-05
1.24293e-05
1.17266e-05
1.12677e-05
1.09907e-05
1.0817e-05
1.06977e-05
8.50062e-05
9.37849e-05
9.453e-05
9.09734e-05
8.93155e-05
8.70574e-05
8.43618e-05
7.91885e-05
7.2401e-05
6.57145e-05
6.09965e-05
5.81387e-05
0.000123789
0.000140381
0.000140381
0.000133006
0.000129205
0.000125911
0.000124433
0.000124363
0.000124172
0.000120527
0.000114245
0.000108549
0.000138798
0.000161077
0.000160886
0.000151912
0.000147006
0.00014295
0.000141668
0.000143682
0.000147794
0.000148591
0.00014395
0.000137522
0.000144038
0.000169131
0.00016899
0.000159395
0.000154048
0.00014967
0.000148372
0.000150972
0.000156667
0.000159478
0.000155821
0.000149139
0.000145578
0.000171654
0.000171548
0.000161753
0.000156279
0.000151814
0.000150488
0.000153203
0.000159321
0.00016273
0.000159357
0.000152543
0.000145578
0.000171654
0.000171548
0.000161753
0.000156279
0.000151814
0.000150488
0.000153203
0.000159321
0.000162729
0.000159357
0.000152543
0.000144039
0.000169132
0.000168991
0.000159396
0.000154048
0.00014967
0.000148372
0.000150972
0.000156667
0.000159478
0.000155821
0.000149139
0.000138798
0.000161077
0.000160887
0.000151914
0.000147007
0.000142951
0.000141669
0.000143682
0.000147795
0.000148592
0.000143952
0.000137523
0.000123787
0.000140379
0.000140381
0.000133009
0.000129207
0.000125913
0.000124435
0.000124365
0.000124175
0.000120531
0.000114249
0.000108553
8.50012e-05
9.37781e-05
9.45275e-05
9.09752e-05
8.93192e-05
8.70623e-05
8.43673e-05
7.9195e-05
7.24087e-05
6.57226e-05
6.10039e-05
5.81445e-05
1.18959e-05
1.21982e-05
1.26156e-05
1.32373e-05
1.3556e-05
1.32352e-05
1.24295e-05
1.17268e-05
1.12678e-05
1.09908e-05
1.08172e-05
1.06979e-05
1.1651e-05
1.16408e-05
1.17781e-05
1.20672e-05
1.22127e-05
1.20467e-05
1.16461e-05
1.12829e-05
1.10254e-05
1.08521e-05
1.07303e-05
1.06389e-05
8.13242e-05
8.77018e-05
8.8536e-05
8.53962e-05
8.36808e-05
8.1814e-05
7.9205e-05
7.38769e-05
6.77029e-05
6.25703e-05
5.92419e-05
5.72075e-05
0.000122885
0.000137438
0.000137664
0.000130413
0.000125839
0.000123936
0.000124599
0.000125177
0.000122813
0.000117136
0.000111033
0.000106427
0.000139486
0.000160036
0.000159702
0.000150582
0.000144549
0.000142213
0.000144148
0.000148176
0.000150128
0.000146943
0.000140683
0.000134833
0.000145264
0.000168832
0.000168412
0.00015854
0.00015191
0.000149308
0.000151581
0.000156824
0.000160642
0.000158803
0.000152636
0.000146188
0.000146943
0.000171588
0.000171171
0.000161045
0.000154229
0.000151533
0.000153869
0.000159434
0.000163799
0.000162364
0.000156183
0.000149485
0.000146944
0.000171588
0.000171171
0.000161046
0.000154229
0.000151533
0.000153869
0.000159434
0.000163798
0.000162364
0.000156183
0.000149485
0.000145264
0.000168832
0.000168412
0.000158541
0.000151911
0.000149309
0.000151581
0.000156824
0.000160642
0.000158803
0.000152636
0.000146188
0.000139486
0.000160035
0.000159703
0.000150584
0.000144551
0.000142214
0.000144149
0.000148178
0.000150129
0.000146944
0.000140684
0.000134834
0.000122883
0.000137434
0.000137663
0.000130414
0.000125841
0.000123939
0.000124601
0.00012518
0.000122817
0.000117141
0.000111037
0.000106431
8.13189e-05
8.7694e-05
8.85318e-05
8.53965e-05
8.36836e-05
8.18186e-05
7.9211e-05
7.38842e-05
6.77111e-05
6.25784e-05
5.92491e-05
5.72129e-05
1.16508e-05
1.16408e-05
1.17783e-05
1.20674e-05
1.2213e-05
1.2047e-05
1.16463e-05
1.1283e-05
1.10256e-05
1.08523e-05
1.07305e-05