/*--------------------------------*- C++ -*----------------------------------*\
| =========                 |                                                 |
| \\      /  F ield         | OpenFOAM: The Open Source CFD Toolbox           |
|  \\    /   O peration     | Version:  2.3.1                                 |
|   \\  /    A nd           | Web:      www.OpenFOAM.org                      |
|    \\/     M anipulation  |                                                 |
\*---------------------------------------------------------------------------*/
FoamFile
{
    version     2.0;
    format      ascii;
    class       surfaceScalarField;
    location    "5";
    object      phi;
}
// * * * * * * * * * * * * * * * * * * * * * * * * * * * * * * * * * * * * * //

dimensions      [0 3 -1 0 0 0 0];

internalField   nonuniform List<scalar> 
108641
(
2.01433e-05
-1.04249e-09
6.89952e-07
1.98415e-05
-1.89597e-07
4.91418e-07
2.17728e-05
4.4975e-07
-2.38107e-06
2.18236e-05
7.0688e-07
-7.57732e-07
1.96512e-05
2.52061e-07
1.92038e-06
1.66004e-05
1.77346e-07
2.87343e-06
1.21323e-05
5.12695e-07
3.95541e-06
8.32179e-06
3.26448e-07
3.48407e-06
6.50027e-06
4.96508e-08
1.77187e-06
5.6682e-06
6.78272e-08
7.6424e-07
4.98005e-06
1.29601e-07
5.58548e-07
1.3913e-07
5.37916e-07
4.30301e-06
2.03017e-05
-2.76247e-08
5.57112e-07
2.03612e-05
-1.06855e-07
-1.42277e-07
2.1842e-05
4.5471e-07
-1.48582e-06
2.1787e-05
5.86507e-07
1.75422e-07
1.94305e-05
1.62948e-07
2.4456e-06
1.60516e-05
1.34501e-07
3.42172e-06
1.2367e-05
4.56823e-07
3.74055e-06
9.31275e-06
3.29791e-07
3.05086e-06
7.34971e-06
8.37094e-08
1.92898e-06
6.09191e-06
7.10632e-08
1.25457e-06
5.1394e-06
1.14915e-07
9.67195e-07
1.29656e-07
7.83515e-07
4.36536e-06
2.03864e-05
-2.25439e-08
4.40687e-07
2.04462e-05
1.20998e-09
-1.67858e-07
2.16478e-05
3.33508e-07
-1.08038e-06
2.16045e-05
3.94843e-07
2.34988e-07
1.92838e-05
1.30637e-07
2.35296e-06
1.58936e-05
1.02661e-07
3.42205e-06
1.24454e-05
3.15529e-07
3.58947e-06
9.59584e-06
2.99121e-07
2.88027e-06
7.58957e-06
1.45861e-07
1.94411e-06
6.20773e-06
8.74888e-08
1.36542e-06
5.17641e-06
8.37937e-08
1.06244e-06
8.74842e-08
8.49436e-07
4.36914e-06
2.0436e-05
-1.41201e-08
3.87737e-07
2.06147e-05
1.51201e-08
-1.92599e-07
2.16203e-05
1.99706e-07
-8.71785e-07
2.14225e-05
2.34014e-07
3.58663e-07
1.9084e-05
8.17116e-08
2.38739e-06
1.56924e-05
6.09943e-08
3.43326e-06
1.23325e-05
1.8889e-07
3.48651e-06
9.63576e-06
1.99838e-07
2.79606e-06
7.68311e-06
1.08913e-07
1.9896e-06
6.26389e-06
6.03449e-08
1.44636e-06
5.19232e-06
4.93789e-08
1.10599e-06
4.95433e-08
8.64446e-07
4.36581e-06
2.04665e-05
-6.54039e-09
3.5814e-07
2.06572e-05
1.80322e-08
-1.93636e-07
2.15475e-05
9.37115e-08
-7.84319e-07
2.1307e-05
1.01377e-07
3.73093e-07
1.90108e-05
3.48153e-08
2.34315e-06
1.56657e-05
2.59877e-08
3.38014e-06
1.23499e-05
8.56834e-08
3.41897e-06
9.68897e-06
9.91324e-08
2.76163e-06
7.73314e-06
5.92295e-08
2.00552e-06
6.29174e-06
3.25763e-08
1.46917e-06
5.20445e-06
2.4007e-08
1.11266e-06
2.27909e-08
8.61496e-07
4.3697e-06
2.04798e-05
-5.21991e-11
3.45942e-07
2.06911e-05
-9.37405e-11
-1.9322e-07
2.15357e-05
-1.31638e-10
-7.50803e-07
2.12591e-05
-1.65461e-10
3.78242e-07
1.89713e-05
-2.01825e-10
2.32275e-06
1.56452e-05
-1.7676e-10
3.35226e-06
1.23447e-05
-1.32611e-10
3.38636e-06
9.6966e-06
-1.97217e-10
2.74741e-06
7.74279e-06
-3.07778e-10
2.01334e-06
6.29594e-06
-3.41326e-10
1.47977e-06
5.20455e-06
-2.92386e-10
1.11569e-06
-2.01888e-10
8.59457e-07
4.36808e-06
2.04798e-05
6.44336e-09
3.45935e-07
2.06911e-05
-1.82096e-08
-1.93223e-07
2.15357e-05
-9.39576e-08
-7.50828e-07
2.12591e-05
-1.01692e-07
3.78184e-07
1.89714e-05
-3.52075e-08
2.32271e-06
1.56453e-05
-2.63283e-08
3.35223e-06
1.23448e-05
-8.59373e-08
3.38632e-06
9.69673e-06
-9.95141e-08
2.74738e-06
7.74292e-06
-5.98224e-08
2.01333e-06
6.29605e-06
-3.32306e-08
1.47975e-06
5.20466e-06
-2.45654e-08
1.11567e-06
-2.31744e-08
8.59436e-07
4.36819e-06
2.04665e-05
1.40329e-08
3.58123e-07
2.06572e-05
-1.52634e-08
-1.93645e-07
2.15475e-05
-1.99899e-07
-7.84398e-07
2.13072e-05
-2.34276e-07
3.72915e-07
1.9011e-05
-8.20486e-08
2.34302e-06
1.56659e-05
-6.12811e-08
3.38004e-06
1.23502e-05
-1.89106e-07
3.41885e-06
9.68936e-06
-2.00177e-07
2.76154e-06
7.73349e-06
-1.09433e-07
2.00548e-06
6.29205e-06
-6.09088e-08
1.46912e-06
5.20475e-06
-4.98557e-08
1.11259e-06
-4.98684e-08
8.61432e-07
4.37001e-06
2.0436e-05
2.2478e-08
3.87707e-07
2.06147e-05
-1.31518e-09
-1.92601e-07
2.16203e-05
-3.33627e-07
-8.71888e-07
2.14227e-05
-3.95033e-07
3.58398e-07
1.90843e-05
-1.30907e-07
2.3872e-06
1.56928e-05
-1.02879e-07
3.43311e-06
1.23331e-05
-3.15688e-07
3.48632e-06
9.63636e-06
-2.99395e-07
2.79593e-06
7.68366e-06
-1.46263e-07
1.98953e-06
6.26439e-06
-8.79145e-08
1.44628e-06
5.1928e-06
-8.415e-08
1.10588e-06
-8.7726e-08
8.64356e-07
4.3663e-06
2.03864e-05
2.7577e-08
4.40646e-07
2.04462e-05
1.06798e-07
-1.67848e-07
2.16478e-05
-4.54747e-07
-1.08049e-06
2.16047e-05
-5.86611e-07
2.34672e-07
1.92842e-05
-1.63133e-07
2.35272e-06
1.58941e-05
-1.34641e-07
3.42185e-06
1.24461e-05
-4.5691e-07
3.58924e-06
9.59654e-06
-3.29983e-07
2.88014e-06
7.59022e-06
-8.39816e-08
1.94404e-06
6.20833e-06
-7.13267e-08
1.36531e-06
5.17701e-06
-1.15125e-07
1.06229e-06
-1.29799e-07
8.49324e-07
4.36976e-06
2.03017e-05
1.02352e-09
5.57047e-07
2.03611e-05
1.89575e-07
-1.42228e-07
2.1842e-05
-4.49733e-07
-1.48588e-06
2.17872e-05
-7.06909e-07
1.75081e-07
1.94309e-05
-2.5216e-07
2.44535e-06
1.60522e-05
-1.77415e-07
3.42148e-06
1.23677e-05
-5.12717e-07
3.74029e-06
9.31353e-06
-3.2655e-07
3.05075e-06
7.35041e-06
-4.97855e-08
1.92893e-06
6.09257e-06
-6.79325e-08
1.25444e-06
5.14009e-06
-1.29674e-07
9.67033e-07
-1.39182e-07
7.83398e-07
4.36607e-06
2.01433e-05
6.8987e-07
1.98414e-05
4.9148e-07
2.17727e-05
-2.38097e-06
2.18238e-05
-7.58065e-07
1.96515e-05
1.92014e-06
1.66009e-05
2.87317e-06
1.21332e-05
3.95502e-06
8.32275e-06
3.48391e-06
6.50106e-06
1.7719e-06
5.66892e-06
7.64213e-07
4.98079e-06
5.58454e-07
5.37829e-07
4.30378e-06
2.04801e-05
-9.52375e-08
1.13729e-06
2.01386e-05
-2.02554e-07
1.03547e-06
2.18026e-05
6.34831e-07
-4.6799e-06
2.27377e-05
8.46937e-07
-2.53982e-06
2.05602e-05
3.66707e-07
3.73125e-06
1.7639e-05
2.62652e-07
5.53195e-06
1.5457e-05
3.27419e-07
5.80997e-06
1.35907e-05
-4.71381e-09
5.35513e-06
1.10383e-05
-5.46453e-08
4.37893e-06
8.19134e-06
1.94699e-07
3.41646e-06
6.04993e-06
2.54589e-07
2.44537e-06
1.79064e-07
1.66497e-06
4.74382e-06
2.04559e-05
-8.42319e-08
9.22387e-07
2.0741e-05
-9.34455e-08
-5.36469e-07
2.2428e-05
5.56682e-07
-3.0947e-06
2.27711e-05
6.62293e-07
1.69554e-08
2.05031e-05
2.43796e-07
4.8365e-06
1.75953e-05
1.3862e-07
6.45356e-06
1.49352e-05
2.53261e-07
6.47482e-06
1.21982e-05
1.01052e-07
5.68213e-06
9.44607e-06
6.83051e-08
4.55815e-06
7.18907e-06
1.90514e-07
3.51576e-06
5.64631e-06
2.01759e-07
2.56279e-06
1.53197e-07
1.82158e-06
4.63411e-06
2.05078e-05
-5.14803e-08
7.3231e-07
2.08509e-05
5.06328e-09
-6.09404e-07
2.23242e-05
3.66974e-07
-2.36403e-06
2.25869e-05
4.15314e-07
2.19303e-07
2.04035e-05
1.60823e-07
4.61932e-06
1.74241e-05
6.88277e-08
6.47125e-06
1.46291e-05
2.01519e-07
6.43616e-06
1.18337e-05
2.26877e-07
5.54982e-06
9.14225e-06
1.59135e-07
4.54478e-06
7.01089e-06
1.29408e-07
3.55789e-06
5.55941e-06
1.07592e-07
2.60808e-06
9.1437e-08
1.88294e-06
4.58767e-06
2.05654e-05
-3.02949e-08
6.33373e-07
2.1039e-05
1.64826e-08
-6.7768e-07
2.23272e-05
2.09494e-07
-2.00248e-06
2.24165e-05
2.38382e-07
4.46343e-07
2.0223e-05
9.15923e-08
4.65005e-06
1.71725e-05
3.29567e-08
6.5196e-06
1.43655e-05
1.24955e-07
6.37011e-06
1.17217e-05
1.70761e-07
5.49603e-06
9.13776e-06
1.21847e-07
4.61078e-06
7.01307e-06
7.89498e-08
3.62151e-06
5.54604e-06
5.77801e-08
2.62283e-06
5.03247e-08
1.88205e-06
4.56955e-06
2.06019e-05
-1.32732e-08
5.71372e-07
2.10952e-05
1.7335e-08
-6.8772e-07
2.22632e-05
9.60969e-08
-1.83899e-06
2.23018e-05
1.00067e-07
4.72842e-07
2.01496e-05
3.53885e-08
4.55151e-06
1.71178e-05
1.0946e-08
6.43396e-06
1.43332e-05
5.75536e-08
6.27101e-06
1.17331e-05
8.83548e-08
5.44416e-06
9.16608e-06
6.54424e-08
4.62891e-06
7.03073e-06
3.91224e-08
3.64435e-06
5.55271e-06
2.62812e-08
2.62218e-06
2.26701e-08
1.87137e-06
4.5705e-06
2.06191e-05
-4.13248e-11
5.45793e-07
2.11333e-05
-7.16765e-11
-6.90044e-07
2.22538e-05
-1.13922e-10
-1.77506e-06
2.22548e-05
-1.46129e-10
4.77476e-07
2.01103e-05
-1.76519e-10
4.50275e-06
1.70852e-05
-1.60582e-10
6.38852e-06
1.4309e-05
-1.08088e-10
6.22024e-06
1.17257e-05
-1.52814e-10
5.41923e-06
9.16797e-06
-2.66098e-10
4.63674e-06
7.03145e-06
-3.02255e-10
3.65572e-06
5.55135e-06
-2.44413e-10
2.62232e-06
-1.54065e-10
1.8652e-06
4.56843e-06
2.06191e-05
1.31957e-08
5.45782e-07
2.11333e-05
-1.74702e-08
-6.90052e-07
2.22538e-05
-9.63096e-08
-1.77511e-06
2.22548e-05
-1.00346e-07
4.77367e-07
2.01104e-05
-3.57322e-08
4.50268e-06
1.70852e-05
-1.1258e-08
6.38849e-06
1.4309e-05
-5.77597e-08
6.22017e-06
1.17258e-05
-8.86502e-08
5.41916e-06
9.16809e-06
-6.59547e-08
4.6367e-06
7.03155e-06
-3.97002e-08
3.65569e-06
5.55144e-06
-2.67455e-08
2.62228e-06
-2.29614e-08
1.86517e-06
4.56851e-06
2.06019e-05
3.02254e-08
5.71342e-07
2.10952e-05
-1.65902e-08
-6.87745e-07
2.22632e-05
-2.09659e-07
-1.83914e-06
2.23019e-05
-2.38613e-07
4.72499e-07
2.01498e-05
-9.18874e-08
4.55127e-06
1.7118e-05
-3.32161e-08
6.43383e-06
1.43334e-05
-1.25127e-07
6.2708e-06
1.17334e-05
-1.7102e-07
5.44396e-06
9.16639e-06
-1.22291e-07
4.6288e-06
7.03101e-06
-7.9442e-08
3.64425e-06
5.55296e-06
-5.81704e-08
2.62206e-06
-5.05686e-08
1.87127e-06
4.57072e-06
2.05654e-05
5.14261e-08
6.3332e-07
2.1039e-05
-5.13645e-09
-6.77695e-07
2.23272e-05
-3.6707e-07
-2.00268e-06
2.24167e-05
-4.15479e-07
4.4582e-07
2.02233e-05
-1.6106e-07
4.6497e-06
1.71728e-05
-6.90288e-08
6.51942e-06
1.43659e-05
-2.01644e-07
6.36982e-06
1.17221e-05
-2.27081e-07
5.49572e-06
9.13825e-06
-1.59472e-07
4.61059e-06
7.01351e-06
-1.29772e-07
3.62135e-06
5.54643e-06
-1.07874e-07
2.62266e-06
-9.16136e-08
1.88192e-06
4.56991e-06
2.05078e-05
8.41892e-08
7.32234e-07
2.08508e-05
9.34153e-08
-6.09401e-07
2.23242e-05
-5.56694e-07
-2.36423e-06
2.25871e-05
-6.62385e-07
2.18672e-07
2.04039e-05
-2.43962e-07
4.61886e-06
1.74244e-05
-1.38748e-07
6.47102e-06
1.46295e-05
-2.53335e-07
6.43582e-06
1.18343e-05
-1.01201e-07
5.54947e-06
9.14286e-06
-6.85153e-08
4.54454e-06
7.01144e-06
-1.90711e-07
3.55767e-06
5.55992e-06
-2.01908e-07
2.60785e-06
-1.53295e-07
1.88278e-06
4.58814e-06
2.04559e-05
9.52188e-08
9.22262e-07
2.0741e-05
2.02557e-07
-5.36406e-07
2.2428e-05
-6.3479e-07
-3.09478e-06
2.27714e-05
-8.46959e-07
1.62649e-08
2.05036e-05
-3.668e-07
4.83599e-06
1.75957e-05
-2.62716e-07
6.45329e-06
1.49357e-05
-3.27448e-07
6.47446e-06
1.21988e-05
4.61663e-09
5.68178e-06
9.44678e-06
5.4552e-08
4.5579e-06
7.18975e-06
-1.94749e-07
3.51551e-06
5.64694e-06
-2.54625e-07
2.56256e-06
-1.79097e-07
1.82142e-06
4.63472e-06
2.04801e-05
1.13714e-06
2.01386e-05
1.03557e-06
2.18025e-05
-4.67965e-06
2.27379e-05
-2.54045e-06
2.05605e-05
3.73071e-06
1.76393e-05
5.53165e-06
1.54574e-05
5.80951e-06
1.35912e-05
5.35473e-06
1.10389e-05
4.37872e-06
8.19211e-06
3.4163e-06
6.05071e-06
2.44523e-06
1.66486e-06
4.74458e-06
2.08281e-05
-1.30277e-07
1.2717e-06
2.09423e-05
-1.61824e-07
1.08302e-06
2.09598e-05
9.60409e-07
-5.65781e-06
2.1977e-05
8.29365e-07
-4.38633e-06
1.99747e-05
3.37603e-07
5.39589e-06
1.55621e-05
4.43809e-07
9.50075e-06
1.2431e-05
4.01406e-07
8.53968e-06
1.06773e-05
6.59174e-08
7.0429e-06
8.77887e-06
2.76575e-08
6.2497e-06
6.89482e-06
1.23574e-07
5.17693e-06
5.49543e-06
1.1979e-07
3.72497e-06
8.4558e-08
2.53459e-06
4.54126e-06
2.04786e-05
-1.02622e-07
1.24832e-06
2.04955e-05
-3.21719e-08
-6.83056e-07
2.17548e-05
8.45898e-07
-4.23942e-06
2.26849e-05
6.92159e-07
-7.75936e-07
2.02512e-05
2.03806e-07
7.40396e-06
1.61741e-05
2.53429e-07
1.0721e-05
1.30396e-05
3.52078e-07
9.65866e-06
1.07741e-05
1.8179e-07
7.83179e-06
8.62053e-06
1.05751e-07
6.63364e-06
6.77706e-06
1.19832e-07
5.36297e-06
5.45979e-06
1.02737e-07
3.89711e-06
8.39324e-08
2.73077e-06
4.55122e-06
2.03879e-05
-6.00896e-08
1.13404e-06
2.04204e-05
9.05142e-08
-7.64518e-07
2.17635e-05
5.42896e-07
-3.40419e-06
2.25625e-05
3.981e-07
-2.85628e-07
2.00863e-05
1.17128e-07
7.18217e-06
1.61654e-05
1.25547e-07
1.05201e-05
1.31763e-05
2.62241e-07
9.5151e-06
1.0869e-05
2.39577e-07
7.79934e-06
8.62688e-06
1.37573e-07
6.75504e-06
6.74522e-06
8.42187e-08
5.47517e-06
5.42106e-06
6.3595e-08
3.97138e-06
6.00494e-08
2.81498e-06
4.5129e-06
2.03814e-05
-3.25008e-08
1.05652e-06
2.05736e-05
6.97561e-08
-8.49041e-07
2.1795e-05
3.00816e-07
-2.98187e-06
2.23158e-05
2.30328e-07
9.33084e-08
1.98292e-05
6.85594e-08
7.18531e-06
1.60433e-05
5.35816e-08
1.03774e-05
1.31683e-05
1.4892e-07
9.35841e-06
1.09283e-05
1.69232e-07
7.80635e-06
8.68247e-06
1.04716e-07
6.88951e-06
6.76365e-06
5.7804e-08
5.56674e-06
5.41372e-06
3.98254e-08
3.99653e-06
3.73325e-08
2.82334e-06
4.49515e-06
2.03896e-05
-1.40034e-08
9.95454e-07
2.06085e-05
4.40187e-08
-8.80857e-07
2.17188e-05
1.33409e-07
-2.7819e-06
2.21366e-05
9.10625e-08
1.94354e-07
1.97192e-05
2.11778e-08
7.01625e-06
1.60469e-05
1.46716e-08
1.01452e-05
1.32242e-05
6.39044e-08
9.17877e-06
1.09874e-05
8.49859e-08
7.76513e-06
8.72417e-06
5.69176e-08
6.93998e-06
6.7852e-06
3.11664e-08
5.60995e-06
5.42198e-06
2.02756e-08
4.00494e-06
1.82276e-08
2.81699e-06
4.49547e-06
2.03961e-05
-4.01176e-11
9.67915e-07
2.06427e-05
-6.37836e-11
-8.92522e-07
2.1699e-05
-1.29258e-10
-2.69786e-06
2.2053e-05
-1.8835e-10
2.14731e-07
1.96653e-05
-1.88991e-10
6.91184e-06
1.60466e-05
-1.43771e-10
1.0022e-05
1.32398e-05
-1.04082e-10
9.09103e-06
1.09986e-05
-1.61774e-10
7.74558e-06
8.73062e-06
-2.45949e-10
6.96192e-06
6.78764e-06
-2.43456e-10
5.63011e-06
5.42198e-06
-1.73547e-10
4.00843e-06
-9.64077e-11
2.81153e-06
4.49398e-06
2.03961e-05
1.39276e-08
9.67903e-07
2.06427e-05
-4.4137e-08
-8.92543e-07
2.1699e-05
-1.3365e-07
-2.69792e-06
2.2053e-05
-9.14201e-08
2.14585e-07
1.96654e-05
-2.15468e-08
6.91169e-06
1.60467e-05
-1.4952e-08
1.00219e-05
1.324e-05
-6.4104e-08
9.09095e-06
1.09988e-05
-8.5299e-08
7.74552e-06
8.73072e-06
-5.73909e-08
6.96188e-06
6.78772e-06
-3.16301e-08
5.63007e-06
5.42204e-06
-2.06027e-08
4.00839e-06
-1.84081e-08
2.81149e-06
4.49403e-06
2.03896e-05
3.24323e-08
9.95423e-07
2.06085e-05
-6.9848e-08
-8.80914e-07
2.17188e-05
-3.01e-07
-2.78207e-06
2.21366e-05
-2.30615e-07
1.93887e-07
1.97194e-05
-6.88674e-08
7.01578e-06
1.60472e-05
-5.38211e-08
1.01449e-05
1.32245e-05
-1.49091e-07
9.17851e-06
1.09878e-05
-1.69505e-07
7.76492e-06
8.72443e-06
-1.05124e-07
6.93986e-06
6.7854e-06
-5.81927e-08
5.60984e-06
5.42214e-06
-4.00929e-08
4.00481e-06
-3.74792e-08
2.81688e-06
4.49561e-06
2.03814e-05
6.00335e-08
1.05647e-06
2.05736e-05
-9.05685e-08
-8.49097e-07
2.1795e-05
-5.42996e-07
-2.9821e-06
2.23159e-05
-3.98277e-07
9.25716e-08
1.98295e-05
-1.17362e-07
7.18461e-06
1.60438e-05
-1.25745e-07
1.0377e-05
1.31689e-05
-2.6238e-07
9.35804e-06
1.09288e-05
-2.39791e-07
7.80604e-06
8.68287e-06
-1.37874e-07
6.8893e-06
6.76397e-06
-8.44932e-08
5.56655e-06
5.41398e-06
-6.37751e-08
3.99633e-06
-6.01479e-08
2.8232e-06
4.49537e-06
2.03879e-05
1.02573e-07
1.13396e-06
2.04204e-05
3.21569e-08
-7.64562e-07
2.17634e-05
-8.45893e-07
-3.40442e-06
2.25626e-05
-6.92242e-07
-2.86467e-07
2.00867e-05
-2.03951e-07
7.18128e-06
1.61659e-05
-2.53576e-07
1.05196e-05
1.31769e-05
-3.52211e-07
9.51469e-06
1.08696e-05
-1.8196e-07
7.79895e-06
8.62742e-06
-1.05922e-07
6.75475e-06
6.74565e-06
-1.19954e-07
5.4749e-06
5.42141e-06
-1.02807e-07
3.97112e-06
-8.39753e-08
2.81481e-06
4.51321e-06
2.04786e-05
1.30244e-07
1.24818e-06
2.04955e-05
1.61839e-07
-6.83035e-07
2.17547e-05
-9.60354e-07
-4.23945e-06
2.26849e-05
-8.29373e-07
-7.76862e-07
2.02517e-05
-3.37663e-07
7.40297e-06
1.61747e-05
-4.43897e-07
1.07206e-05
1.30402e-05
-4.01521e-07
9.65828e-06
1.07747e-05
-6.60294e-08
7.83134e-06
8.62113e-06
-2.771e-08
6.63327e-06
6.7776e-06
-1.23567e-07
5.36265e-06
5.46029e-06
-1.19776e-07
3.89684e-06
-8.45592e-08
2.73061e-06
4.55169e-06
2.0828e-05
1.27158e-06
2.09424e-05
1.08305e-06
2.09598e-05
-5.6574e-06
2.1977e-05
-4.38705e-06
1.99752e-05
5.39482e-06
1.55626e-05
9.50034e-06
1.24312e-05
8.53939e-06
1.06775e-05
7.04247e-06
8.7792e-06
6.24926e-06
6.89535e-06
5.17658e-06
5.49608e-06
3.72472e-06
2.53442e-06
4.54195e-06
2.1386e-05
-6.29498e-07
1.34734e-06
2.07551e-05
1.88499e-07
1.52546e-06
1.87039e-05
1.30012e-06
-4.90677e-06
1.92634e-05
4.36933e-07
-5.38274e-06
1.91378e-05
-5.97673e-08
5.58126e-06
1.55245e-05
4.13803e-07
1.27003e-05
1.14378e-05
6.14973e-07
1.20114e-05
8.80922e-06
2.06464e-07
9.46506e-06
7.14591e-06
-2.55267e-08
7.93855e-06
5.98792e-06
-1.68675e-08
6.35179e-06
5.09421e-06
8.69367e-09
4.60998e-06
2.01919e-08
3.25266e-06
4.35595e-06
2.00768e-05
-4.37036e-07
1.81126e-06
1.92122e-05
3.66985e-07
3.0132e-09
1.93343e-05
1.11854e-06
-4.17994e-06
2.03634e-05
4.02695e-07
-1.77073e-06
1.9543e-05
-1.1814e-07
8.28268e-06
1.65431e-05
2.06418e-07
1.39283e-05
1.33888e-05
4.73661e-07
1.29543e-05
1.06015e-05
2.64332e-07
1.05612e-05
8.19041e-06
6.5973e-08
8.95328e-06
6.42303e-06
2.72488e-08
7.08624e-06
5.24081e-06
2.69977e-08
5.06102e-06
3.47104e-08
3.54163e-06
4.41544e-06
1.99106e-05
-2.6249e-07
1.88106e-06
1.91003e-05
3.26834e-07
8.59728e-08
1.94311e-05
6.22946e-07
-3.23938e-06
2.03324e-05
6.69437e-08
-8.51234e-07
1.9427e-05
-1.88822e-07
8.15832e-06
1.67427e-05
2.1316e-08
1.33895e-05
1.38197e-05
2.47194e-07
1.26646e-05
1.09003e-05
2.29787e-07
1.07533e-05
8.3067e-06
1.1686e-07
9.2977e-06
6.43479e-06
5.50412e-08
7.31929e-06
5.20557e-06
3.45586e-08
5.19303e-06
3.55324e-08
3.65047e-06
4.36926e-06
1.99085e-05
-1.47663e-07
1.8654e-06
1.92163e-05
1.81147e-07
-1.11955e-08
1.94253e-05
3.25101e-07
-2.89305e-06
2.00203e-05
2.21004e-08
-4.56823e-07
1.91232e-05
-1.27891e-07
8.02149e-06
1.66247e-05
-2.60169e-08
1.29232e-05
1.37556e-05
1.13143e-07
1.23616e-05
1.08325e-05
1.51607e-07
1.08076e-05
8.27076e-06
9.6546e-08
9.47156e-06
6.41481e-06
4.90925e-08
7.42864e-06
5.18285e-06
2.89978e-08
5.23405e-06
2.65369e-08
3.67189e-06
4.34329e-06
1.99193e-05
-6.24986e-08
1.82314e-06
1.92124e-05
8.80292e-08
-8.08536e-08
1.93177e-05
1.34298e-07
-2.69637e-06
1.98117e-05
-1.71288e-08
-2.60377e-07
1.89784e-05
-7.94776e-08
7.80109e-06
1.66056e-05
-3.25623e-08
1.25245e-05
1.37585e-05
3.8322e-08
1.21007e-05
1.08231e-05
7.33529e-08
1.07789e-05
8.26733e-06
5.35203e-08
9.53874e-06
6.41678e-06
2.8946e-08
7.48065e-06
5.18291e-06
1.69433e-08
5.25086e-06
1.44197e-08
3.67285e-06
4.33917e-06
1.99314e-05
-5.52705e-11
1.80623e-06
1.9234e-05
-9.89606e-11
-1.06964e-07
1.92792e-05
-1.66537e-10
-2.60859e-06
1.96947e-05
-2.32925e-10
-2.17704e-07
1.88839e-05
-2.23165e-10
7.64345e-06
1.65714e-05
-1.53128e-10
1.23021e-05
1.37357e-05
-1.30852e-10
1.19652e-05
1.08004e-05
-1.73796e-10
1.07544e-05
8.25404e-06
-2.00731e-10
9.56199e-06
6.41138e-06
-1.65842e-10
7.50188e-06
5.18031e-06
-1.02165e-10
5.25654e-06
-4.53957e-11
3.66965e-06
4.33665e-06
1.99314e-05
6.23934e-08
1.80623e-06
1.9234e-05
-8.82097e-08
-1.06989e-07
1.92791e-05
-1.34605e-07
-2.60864e-06
1.96946e-05
1.67043e-08
-2.17864e-07
1.88838e-05
7.90645e-08
7.64321e-06
1.65714e-05
3.22855e-08
1.23019e-05
1.37358e-05
-3.85648e-08
1.1965e-05
1.08004e-05
-7.36871e-08
1.07544e-05
8.25408e-06
-5.39071e-08
9.56194e-06
6.41141e-06
-2.92599e-08
7.50184e-06
5.18034e-06
-1.71325e-08
5.2565e-06
-1.45021e-08
3.66962e-06
4.33667e-06
1.99193e-05
1.47567e-07
1.82312e-06
1.92124e-05
-1.81276e-07
-8.09245e-08
1.93176e-05
-3.25321e-07
-2.69654e-06
1.98114e-05
-2.24267e-08
-2.60853e-07
1.89784e-05
1.27555e-07
7.80039e-06
1.66058e-05
2.58e-08
1.25239e-05
1.37587e-05
-1.13322e-07
1.21003e-05
1.08232e-05
-1.51889e-07
1.07787e-05
8.26745e-06
-9.68778e-08
9.53859e-06
6.41688e-06
-4.93499e-08
7.48049e-06
5.18299e-06
-2.91434e-08
5.25071e-06
-2.6598e-08
3.67275e-06
4.33922e-06
1.99085e-05
2.62401e-07
1.86537e-06
1.92162e-05
-3.26893e-07
-1.12723e-08
1.94251e-05
-6.23034e-07
-2.89328e-06
2.002e-05
-6.71528e-08
-4.57557e-07
1.91231e-05
1.88623e-07
8.0204e-06
1.6625e-05
-2.14368e-08
1.29224e-05
1.3756e-05
-2.47292e-07
1.2361e-05
1.08328e-05
-2.2999e-07
1.08073e-05
8.27097e-06
-1.17102e-07
9.47133e-06
6.41497e-06
-5.52124e-08
7.4284e-06
5.18297e-06
-3.46414e-08
5.23383e-06
-3.55635e-08
3.67175e-06
4.34339e-06
1.99106e-05
4.36955e-07
1.88101e-06
1.91002e-05
-3.66941e-07
8.58574e-08
1.94308e-05
-1.11846e-06
-3.23958e-06
2.0332e-05
-4.02723e-07
-8.52113e-07
1.94269e-05
1.18075e-07
8.15698e-06
1.6743e-05
-2.06468e-07
1.33885e-05
1.38202e-05
-4.73732e-07
1.2664e-05
1.09007e-05
-2.64469e-07
1.07529e-05
8.30704e-06
-6.60947e-08
9.29741e-06
6.43505e-06
-2.73001e-08
7.31898e-06
5.20578e-06
-2.70021e-08
5.19275e-06
-3.47095e-08
3.6503e-06
4.36944e-06
2.00767e-05
6.29443e-07
1.81116e-06
1.92122e-05
-1.88401e-07
2.98403e-09
1.93341e-05
-1.3e-06
-4.17987e-06
2.0363e-05
-4.3688e-07
-1.77161e-06
1.9543e-05
5.98047e-08
8.28123e-06
1.65436e-05
-4.13807e-07
1.39273e-05
1.33895e-05
-6.15048e-07
1.29537e-05
1.06022e-05
-2.06553e-07
1.05607e-05
8.19092e-06
2.55083e-08
8.95291e-06
6.42345e-06
1.69107e-08
7.08591e-06
5.24118e-06
-8.64788e-09
5.06075e-06
-2.01728e-08
3.54147e-06
4.41578e-06
2.13859e-05
1.3473e-06
2.0755e-05
1.5255e-06
1.87039e-05
-4.90623e-06
1.92632e-05
-5.38326e-06
1.9138e-05
5.57979e-06
1.55251e-05
1.26995e-05
1.14383e-05
1.20111e-05
8.80957e-06
9.46469e-06
7.1463e-06
7.93804e-06
5.98843e-06
6.35136e-06
5.09482e-06
4.60968e-06
3.25246e-06
4.35661e-06
4.58064e-06
1.94249e-06
-5.17579e-06
6.20733e-06
1.74519e-06
-1.84642e-06
8.62493e-06
2.45944e-07
-7.57031e-06
1.16406e-05
-1.12528e-06
-7.27309e-06
1.41025e-05
-1.11568e-06
4.23501e-06
1.31502e-05
-7.21084e-08
1.37246e-05
1.02843e-05
4.49478e-07
1.44279e-05
7.7836e-06
1.40989e-07
1.18247e-05
6.30984e-06
-1.17365e-07
9.52968e-06
5.44358e-06
-1.26532e-07
7.34458e-06
4.75097e-06
-7.19478e-08
5.37453e-06
-2.44694e-08
3.89462e-06
4.13348e-06
5.45052e-06
1.50829e-06
-3.20506e-06
8.50555e-06
1.56415e-06
-2.87098e-06
1.14674e-05
3.43256e-07
-7.23913e-06
1.37496e-05
-9.40824e-07
-4.23731e-06
1.50247e-05
-1.1265e-06
7.01836e-06
1.44322e-05
-3.39517e-07
1.47881e-05
1.24492e-05
2.30298e-07
1.51565e-05
9.77244e-06
1.81018e-07
1.31979e-05
7.46994e-06
9.2968e-09
1.11291e-05
5.95029e-06
-3.72188e-08
8.51657e-06
4.94648e-06
-2.51049e-08
6.01799e-06
1.05135e-09
4.23956e-06
4.22303e-06
5.39708e-06
8.17984e-07
-2.82571e-06
8.64161e-06
9.99542e-07
-2.59395e-06
1.16712e-05
7.63566e-08
-6.00202e-06
1.37805e-05
-8.3813e-07
-3.06326e-06
1.48847e-05
-9.52141e-07
6.87977e-06
1.44022e-05
-4.62504e-07
1.3995e-05
1.24959e-05
9.15185e-09
1.4792e-05
9.78802e-06
1.62122e-07
1.348e-05
7.46104e-06
1.01679e-07
1.15323e-05
5.91755e-06
3.69036e-08
8.78866e-06
4.89273e-06
1.43952e-08
6.17836e-06
1.83448e-08
4.3578e-06
4.16811e-06
5.27948e-06
3.75856e-07
-2.97195e-06
8.51674e-06
5.4915e-07
-2.79807e-06
1.14244e-05
4.15409e-08
-5.76591e-06
1.33832e-05
-5.2291e-07
-2.7308e-06
1.44729e-05
-6.16229e-07
6.59587e-06
1.40013e-05
-3.4688e-07
1.32792e-05
1.20679e-05
-3.7279e-08
1.43413e-05
9.47711e-06
1.09624e-07
1.3451e-05
7.3146e-06
9.00175e-08
1.16457e-05
5.8541e-06
4.37582e-08
8.88229e-06
4.85157e-06
2.14018e-08
6.22957e-06
1.85628e-08
4.38992e-06
4.13333e-06
5.15402e-06
1.44626e-07
-3.09965e-06
8.33561e-06
2.37439e-07
-2.95073e-06
1.12177e-05
-2.23155e-09
-5.53465e-06
1.31663e-05
-2.63264e-07
-2.46868e-06
1.42838e-05
-3.06516e-07
6.37392e-06
1.3846e-05
-1.83417e-07
1.27988e-05
1.19142e-05
-3.25463e-08
1.40278e-05
9.36735e-06
5.39294e-08
1.33814e-05
7.26302e-06
5.08956e-08
1.16822e-05
5.83487e-06
2.7654e-08
8.9249e-06
4.84164e-06
1.45926e-08
6.25091e-06
1.14863e-08
4.39773e-06
4.12384e-06
5.10913e-06
-1.63212e-10
-3.15811e-06
8.25784e-06
-1.44048e-10
-3.01809e-06
1.1103e-05
-1.54052e-10
-5.45584e-06
1.30266e-05
-2.14329e-10
-2.4043e-06
1.41535e-05
-2.16892e-10
6.21016e-06
1.37434e-05
-1.88986e-10
1.2529e-05
1.18233e-05
-1.8277e-10
1.3853e-05
9.30578e-06
-1.69567e-10
1.3326e-05
7.23214e-06
-1.31969e-10
1.16867e-05
5.82205e-06
-8.32141e-11
8.93971e-06
4.8358e-06
-3.64635e-11
6.25742e-06
-1.16622e-12
4.39722e-06
4.11971e-06
5.10911e-06
-1.44929e-07
-3.15812e-06
8.2578e-06
-2.37691e-07
-3.01813e-06
1.11029e-05
1.96606e-09
-5.4559e-06
1.30265e-05
2.62868e-07
-2.40446e-06
1.41534e-05
3.06117e-07
6.20989e-06
1.37433e-05
1.83079e-07
1.25287e-05
1.18232e-05
3.22114e-08
1.38528e-05
9.30575e-06
-5.4257e-08
1.33259e-05
7.23213e-06
-5.11492e-08
1.16866e-05
5.82205e-06
-2.78078e-08
8.93964e-06
4.8358e-06
-1.46549e-08
6.25737e-06
-1.14841e-08
4.39719e-06
4.11971e-06
5.15396e-06
-3.7609e-07
-3.09967e-06
8.33549e-06
-5.49289e-07
-2.95086e-06
1.12175e-05
-4.172e-08
-5.53483e-06
1.3166e-05
5.22599e-07
-2.46915e-06
1.42835e-05
6.15925e-07
6.37311e-06
1.38458e-05
3.46645e-07
1.2798e-05
1.19141e-05
3.70198e-08
1.40272e-05
9.36726e-06
-1.099e-07
1.33811e-05
7.263e-06
-9.02327e-08
1.16819e-05
5.83488e-06
-4.38753e-08
8.92469e-06
4.84164e-06
-2.14367e-08
6.25074e-06
-1.85499e-08
4.39763e-06
4.12382e-06
5.27938e-06
-8.18116e-07
-2.97198e-06
8.51656e-06
-9.99488e-07
-2.79825e-06
1.14241e-05
-7.63994e-08
-5.76615e-06
1.33827e-05
8.3795e-07
-2.73153e-06
1.44725e-05
9.51983e-07
6.59459e-06
1.4001e-05
4.62427e-07
1.32781e-05
1.20678e-05
-9.28004e-09
1.43406e-05
9.47701e-06
-1.62318e-07
1.34505e-05
7.31459e-06
-1.01833e-07
1.16453e-05
5.85413e-06
-3.69648e-08
8.88196e-06
4.85159e-06
-1.43903e-08
6.22932e-06
-1.83181e-08
4.38978e-06
4.13333e-06
5.39696e-06
-1.5083e-06
-2.82576e-06
8.64139e-06
-1.5639e-06
-2.59416e-06
1.16708e-05
-3.43146e-07
-6.00222e-06
1.37799e-05
9.40788e-07
-3.06412e-06
1.48842e-05
1.12649e-06
6.87817e-06
1.4402e-05
3.39586e-07
1.39936e-05
1.24958e-05
-2.30295e-07
1.47912e-05
9.78803e-06
-1.81115e-07
1.34795e-05
7.46111e-06
-9.36397e-09
1.15319e-05
5.91765e-06
3.72311e-08
8.78825e-06
4.89281e-06
2.51527e-08
6.17805e-06
-1.01504e-09
4.35764e-06
4.16817e-06
5.45038e-06
-1.94243e-06
-3.20509e-06
8.50539e-06
-1.74486e-06
-2.87106e-06
1.14671e-05
-2.45771e-07
-7.23898e-06
1.37491e-05
1.12532e-06
-4.23809e-06
1.50244e-05
1.11577e-06
7.01663e-06
1.44323e-05
7.2238e-08
1.47868e-05
1.24495e-05
-4.49436e-07
1.51557e-05
9.77274e-06
-1.41028e-07
1.31974e-05
7.47023e-06
1.17366e-07
1.11287e-05
5.95057e-06
1.26594e-07
8.5162e-06
4.94674e-06
7.20156e-08
6.01772e-06
2.45032e-08
4.23941e-06
4.22328e-06
4.58038e-06
-5.17551e-06
6.2072e-06
-1.84617e-06
8.62477e-06
-7.56957e-06
1.16403e-05
-7.27343e-06
1.41024e-05
4.23339e-06
1.31507e-05
1.37234e-05
1.02849e-05
1.44274e-05
7.78419e-06
1.18244e-05
6.31036e-06
9.52923e-06
5.44413e-06
7.34419e-06
4.75158e-06
5.37425e-06
3.89441e-06
4.13413e-06
2.22635e-06
7.53884e-07
-8.15603e-06
5.80699e-06
4.99803e-07
-5.92686e-06
7.21517e-06
-5.76186e-07
-8.40231e-06
8.22204e-06
-1.69841e-06
-6.58155e-06
1.0207e-05
-1.68255e-06
3.93263e-06
1.0486e-05
-5.64198e-07
1.40098e-05
8.81072e-06
1.4735e-07
1.59558e-05
6.89238e-06
5.62723e-08
1.36868e-05
5.70705e-06
-1.34083e-07
1.08491e-05
4.99456e-06
-1.55014e-07
8.21209e-06
4.4107e-06
-9.53633e-08
6.05375e-06
-3.71861e-08
4.45572e-06
3.88678e-06
2.5002e-06
7.33964e-07
-5.68534e-06
5.8545e-06
4.5849e-07
-6.18398e-06
7.64051e-06
-6.65114e-07
-8.9362e-06
8.89556e-06
-1.7625e-06
-5.42827e-06
1.03985e-05
-1.81532e-06
5.64816e-06
1.09476e-05
-8.52463e-07
1.45273e-05
9.91761e-06
-3.67161e-08
1.63706e-05
8.00085e-06
1.07432e-07
1.50635e-05
6.4058e-06
-3.11121e-09
1.25932e-05
5.34349e-06
-5.30625e-08
9.47692e-06
4.57131e-06
-4.0486e-08
6.7353e-06
-1.01568e-08
4.80501e-06
3.97883e-06
2.49701e-06
4.67785e-07
-5.05655e-06
5.76356e-06
3.30108e-07
-5.73212e-06
7.60856e-06
-5.4873e-07
-7.9634e-06
8.78898e-06
-1.41189e-06
-4.59429e-06
1.00287e-05
-1.48986e-06
5.31459e-06
1.04484e-05
-8.30069e-07
1.35528e-05
9.47176e-06
-1.38344e-07
1.58703e-05
7.72763e-06
1.35588e-07
1.5196e-05
6.26394e-06
1.00994e-07
1.28919e-05
5.25136e-06
3.19179e-08
9.71626e-06
4.49449e-06
7.10689e-09
6.88764e-06
1.10748e-08
4.91324e-06
3.91781e-06
2.38812e-06
2.49324e-07
-5.1416e-06
5.52656e-06
2.05928e-07
-5.81233e-06
7.28755e-06
-3.45481e-07
-7.73016e-06
8.39194e-06
-9.03309e-07
-4.34376e-06
9.5335e-06
-9.70942e-07
4.93538e-06
9.84085e-06
-5.74661e-07
1.27165e-05
8.87116e-06
-1.20438e-07
1.52931e-05
7.33749e-06
9.41324e-08
1.50261e-05
6.07283e-06
8.87308e-08
1.29227e-05
5.1583e-06
4.23844e-08
9.78636e-06
4.43769e-06
1.82665e-08
6.93901e-06
1.45607e-08
4.94781e-06
3.87631e-06
2.28259e-06
1.03138e-07
-5.23606e-06
5.32421e-06
9.03331e-08
-5.87676e-06
7.08347e-06
-1.71406e-07
-7.46798e-06
8.21996e-06
-4.36788e-07
-4.07169e-06
9.35234e-06
-4.70569e-07
4.74117e-06
9.63263e-06
-2.85352e-07
1.22292e-05
8.66473e-06
-6.64034e-08
1.49416e-05
7.19724e-06
4.73981e-08
1.48956e-05
5.99963e-06
5.01943e-08
1.29183e-05
5.12414e-06
2.73522e-08
9.81542e-06
4.41897e-06
1.34519e-08
6.9609e-06
9.81095e-09
4.95939e-06
3.86205e-06
2.23672e-06
-1.33196e-10
-5.29156e-06
5.22518e-06
-5.71026e-11
-5.91616e-06
6.96985e-06
-6.02827e-11
-7.37185e-06
8.11067e-06
-1.51196e-10
-3.98175e-06
9.24377e-06
-2.08799e-10
4.6067e-06
9.52644e-06
-2.18472e-10
1.19612e-05
8.56751e-06
-1.87835e-10
1.47457e-05
7.13055e-06
-1.12389e-10
1.48105e-05
5.96321e-06
-4.40873e-11
1.29042e-05
5.10679e-06
-5.40458e-12
9.82348e-06
4.41026e-06
2.11459e-11
6.96738e-06
3.62446e-11
4.96096e-06
3.85629e-06
2.2367e-06
-1.03382e-07
-5.29157e-06
5.22514e-06
-9.04221e-08
-5.91621e-06
6.96978e-06
1.71305e-07
-7.37191e-06
8.11056e-06
4.36505e-07
-3.9819e-06
9.24364e-06
4.7018e-07
4.60643e-06
9.52629e-06
2.84948e-07
1.19609e-05
8.56739e-06
6.60508e-08
1.47455e-05
7.13048e-06
-4.76158e-08
1.48103e-05
5.96318e-06
-5.02765e-08
1.29041e-05
5.10677e-06
-2.73551e-08
9.8234e-06
4.41024e-06
-1.34026e-08
6.96733e-06
-9.73603e-09
4.96093e-06
3.85627e-06
2.28252e-06
-2.49499e-07
-5.23608e-06
5.32407e-06
-2.05939e-07
-5.87689e-06
7.08326e-06
3.45435e-07
-7.46816e-06
8.21965e-06
9.03083e-07
-4.07212e-06
9.35195e-06
9.70634e-07
4.74036e-06
9.63221e-06
5.74352e-07
1.22284e-05
8.66438e-06
1.20149e-07
1.4941e-05
7.19704e-06
-9.43169e-08
1.48952e-05
5.99953e-06
-8.87936e-08
1.2918e-05
5.12408e-06
-4.23678e-08
9.81514e-06
4.41891e-06
-1.82031e-08
6.96071e-06
-1.44843e-08
4.9593e-06
3.86199e-06
2.38801e-06
-4.67859e-07
-5.14163e-06
5.52634e-06
-3.29993e-07
-5.81253e-06
7.28723e-06
5.4877e-07
-7.73038e-06
8.39147e-06
1.41174e-06