/*--------------------------------*- C++ -*----------------------------------*\
| =========                 |                                                 |
| \\      /  F ield         | OpenFOAM: The Open Source CFD Toolbox           |
|  \\    /   O peration     | Version:  2.3.1                                 |
|   \\  /    A nd           | Web:      www.OpenFOAM.org                      |
|    \\/     M anipulation  |                                                 |
\*---------------------------------------------------------------------------*/
FoamFile
{
    version     2.0;
    format      ascii;
    class       surfaceScalarField;
    location    "5";
    object      phi_0;
}
// * * * * * * * * * * * * * * * * * * * * * * * * * * * * * * * * * * * * * //

dimensions      [0 3 -1 0 0 0 0];

internalField   nonuniform List<scalar> 
108641
(
2.01393e-05
-2.19045e-09
6.95053e-07
1.9847e-05
-1.87977e-07
4.80272e-07
2.17796e-05
4.52987e-07
-2.38555e-06
2.18189e-05
7.05532e-07
-7.44815e-07
1.9643e-05
2.50076e-07
1.92575e-06
1.65884e-05
1.78442e-07
2.87625e-06
1.21193e-05
5.13275e-07
3.95574e-06
8.31566e-06
3.25375e-07
3.47831e-06
6.49886e-06
4.95597e-08
1.76724e-06
5.66705e-06
6.82509e-08
7.63566e-07
4.9782e-06
1.29761e-07
5.59086e-07
1.39102e-07
5.38082e-07
4.30102e-06
2.02994e-05
-2.8718e-08
5.59329e-07
2.03655e-05
-1.05132e-07
-1.48965e-07
2.18462e-05
4.56997e-07
-1.48467e-06
2.1782e-05
5.84919e-07
1.84811e-07
1.94205e-05
1.61208e-07
2.45038e-06
1.60405e-05
1.35529e-07
3.42292e-06
1.23577e-05
4.5727e-07
3.73877e-06
9.30739e-06
3.28785e-07
3.04688e-06
7.34677e-06
8.34606e-08
1.92672e-06
6.08942e-06
7.13459e-08
1.25426e-06
5.13693e-06
1.15076e-07
9.67168e-07
1.29675e-07
7.83201e-07
4.36316e-06
2.03845e-05
-2.30648e-08
4.42069e-07
2.04492e-05
2.43438e-09
-1.72298e-07
2.16511e-05
3.34668e-07
-1.07954e-06
2.16e-05
3.93854e-07
2.42146e-07
1.92738e-05
1.2953e-07
2.35787e-06
1.5883e-05
1.03199e-07
3.42314e-06
1.24372e-05
3.15876e-07
3.58716e-06
9.59067e-06
2.98562e-07
2.87677e-06
7.58613e-06
1.45521e-07
1.94248e-06
6.20476e-06
8.74846e-08
1.36523e-06
5.17371e-06
8.38464e-08
1.06228e-06
8.7502e-08
8.49035e-07
4.36685e-06
2.04347e-05
-1.44222e-08
3.88796e-07
2.06173e-05
1.57746e-08
-1.95853e-07
2.16223e-05
2.00289e-07
-8.70668e-07
2.14175e-05
2.33424e-07
3.65217e-07
1.9074e-05
8.10351e-08
2.39204e-06
1.56821e-05
6.12257e-08
3.43386e-06
1.23251e-05
1.89095e-07
3.48378e-06
9.63121e-06
1.99506e-07
2.79293e-06
7.67973e-06
1.08644e-07
1.98836e-06
6.26076e-06
6.02864e-08
1.44616e-06
5.18951e-06
4.93937e-08
1.1057e-06
4.95556e-08
8.63987e-07
4.36347e-06
2.04654e-05
-6.64603e-09
3.59055e-07
2.06593e-05
1.83151e-08
-1.96486e-07
2.1549e-05
9.38952e-08
-7.83318e-07
2.13022e-05
1.01093e-07
3.7916e-07
1.9001e-05
3.45137e-08
2.34767e-06
1.56556e-05
2.60707e-08
3.38061e-06
1.23427e-05
8.57777e-08
3.41618e-06
9.68456e-06
9.89861e-08
2.75867e-06
7.72972e-06
5.90842e-08
2.0044e-06
6.28853e-06
3.25262e-08
1.46895e-06
5.20159e-06
2.40034e-08
1.11233e-06
2.27941e-08
8.61021e-07
4.36733e-06
2.04788e-05
-5.13361e-11
3.46812e-07
2.06931e-05
-9.34008e-11
-1.95913e-07
2.1537e-05
-1.31294e-10
-7.49853e-07
2.12541e-05
-1.65294e-10
3.8413e-07
1.89616e-05
-2.01716e-10
2.32718e-06
1.56352e-05
-1.76534e-10
3.35264e-06
1.23376e-05
-1.32734e-10
3.38354e-06
9.69227e-06
-1.9772e-10
2.74452e-06
7.73939e-06
-3.0814e-10
2.01227e-06
6.29272e-06
-3.41371e-10
1.47954e-06
5.20168e-06
-2.92267e-10
1.11534e-06
-2.01743e-10
8.58974e-07
4.3657e-06
2.04788e-05
6.55066e-09
3.46805e-07
2.06931e-05
-1.84918e-08
-1.95916e-07
2.1537e-05
-9.41406e-08
-7.49877e-07
2.12542e-05
-1.01408e-07
3.84072e-07
1.89617e-05
-3.49058e-08
2.32714e-06
1.56353e-05
-2.64109e-08
3.35261e-06
1.23377e-05
-8.60319e-08
3.3835e-06
9.69241e-06
-9.93687e-08
2.74449e-06
7.73952e-06
-5.96777e-08
2.01226e-06
6.29284e-06
-3.31806e-08
1.47952e-06
5.20179e-06
-2.45616e-08
1.11532e-06
-2.31774e-08
8.58953e-07
4.36581e-06
2.04654e-05
1.43366e-08
3.59037e-07
2.06593e-05
-1.59172e-08
-1.96494e-07
2.1549e-05
-2.00481e-07
-7.83398e-07
2.13023e-05
-2.33685e-07
3.78983e-07
1.90012e-05
-8.1372e-08
2.34754e-06
1.56558e-05
-6.15121e-08
3.38051e-06
1.23431e-05
-1.8931e-07
3.41606e-06
9.68495e-06
-1.99846e-07
2.75858e-06
7.73007e-06
-1.09165e-07
2.00436e-06
6.28884e-06
-6.08503e-08
1.4689e-06
5.20189e-06
-4.98703e-08
1.11226e-06
-4.98805e-08
8.60956e-07
4.36763e-06
2.04348e-05
2.30001e-08
3.88766e-07
2.06172e-05
-2.5381e-09
-1.95856e-07
2.16223e-05
-3.34787e-07
-8.70772e-07
2.14177e-05
-3.94044e-07
3.64953e-07
1.90743e-05
-1.298e-07
2.39185e-06
1.56825e-05
-1.03418e-07
3.43371e-06
1.23256e-05
-3.16035e-07
3.4836e-06
9.63181e-06
-2.98837e-07
2.7928e-06
7.68028e-06
-1.45924e-07
1.98829e-06
6.26126e-06
-8.79103e-08
1.44608e-06
5.18999e-06
-8.42025e-08
1.1056e-06
-8.77435e-08
8.63897e-07
4.36396e-06
2.03845e-05
2.86711e-08
4.42029e-07
2.04492e-05
1.05076e-07
-1.72288e-07
2.16511e-05
-4.57033e-07
-1.07965e-06
2.16002e-05
-5.85024e-07
2.4183e-07
1.92742e-05
-1.61393e-07
2.35764e-06
1.58835e-05
-1.35669e-07
3.42294e-06
1.24379e-05
-4.57357e-07
3.58693e-06
9.59137e-06
-3.28978e-07
2.87663e-06
7.58677e-06
-8.3733e-08
1.94241e-06
6.20536e-06
-7.16093e-08
1.36511e-06
5.17432e-06
-1.15285e-07
1.06213e-06
-1.29818e-07
8.48922e-07
4.36747e-06
2.02994e-05
2.17144e-09
5.59265e-07
2.03655e-05
1.87956e-07
-1.48914e-07
2.18461e-05
-4.5297e-07
-1.48473e-06
2.17822e-05
-7.05562e-07
1.8447e-07
1.94208e-05
-2.50176e-07
2.45013e-06
1.6041e-05
-1.78511e-07
3.42268e-06
1.23584e-05
-5.13297e-07
3.73852e-06
9.30817e-06
-3.25478e-07
3.04677e-06
7.34746e-06
-4.96945e-08
1.92667e-06
6.09008e-06
-6.83562e-08
1.25413e-06
5.13762e-06
-1.29834e-07
9.67006e-07
-1.39154e-07
7.83085e-07
4.36387e-06
2.01394e-05
6.9497e-07
1.9847e-05
4.80335e-07
2.17795e-05
-2.38545e-06
2.18191e-05
-7.45148e-07
1.96434e-05
1.92552e-06
1.65889e-05
2.87599e-06
1.21202e-05
3.95535e-06
8.31662e-06
3.47815e-06
6.49966e-06
1.76726e-06
5.66776e-06
7.63538e-07
4.97894e-06
5.58993e-07
5.37995e-07
4.30179e-06
2.04762e-05
-9.68414e-08
1.14785e-06
2.01409e-05
-1.99275e-07
1.01489e-06
2.18106e-05
6.38404e-07
-4.69368e-06
2.27364e-05
8.45208e-07
-2.51583e-06
2.05509e-05
3.64608e-07
3.74669e-06
1.76308e-05
2.62949e-07
5.53337e-06
1.54526e-05
3.26476e-07
5.80741e-06
1.35855e-05
-5.96747e-09
5.35145e-06
1.10294e-05
-5.35944e-08
4.37689e-06
8.18265e-06
1.95683e-07
3.41464e-06
6.04422e-06
2.54506e-07
2.44301e-06
1.78803e-07
1.6631e-06
4.7404e-06
2.04542e-05
-8.55143e-08
9.26003e-07
2.07451e-05
-9.10413e-08
-5.48124e-07
2.24335e-05
5.59066e-07
-3.0937e-06
2.2767e-05
6.60565e-07
3.58921e-08
2.04934e-05
2.41817e-07
4.84683e-06
1.75859e-05
1.38718e-07
6.45459e-06
1.49265e-05
2.52917e-07
6.47175e-06
1.21892e-05
1.00466e-07
5.67781e-06
9.43774e-06
6.88808e-08
4.55567e-06
7.18285e-06
1.90973e-07
3.51386e-06
5.64217e-06
2.01698e-07
2.56066e-06
1.5306e-07
1.81983e-06
4.63129e-06
2.05065e-05
-5.20844e-08
7.34303e-07
2.08544e-05
6.45359e-09
-6.17637e-07
2.23285e-05
3.68088e-07
-2.36273e-06
2.2583e-05
4.14356e-07
2.3393e-07
2.03936e-05
1.59491e-07
4.62951e-06
1.74141e-05
6.88554e-08
6.47258e-06
1.46202e-05
2.01769e-07
6.43215e-06
1.18252e-05
2.26607e-07
5.54569e-06
9.1346e-06
1.58974e-07
4.54295e-06
7.00518e-06
1.29372e-07
3.55625e-06
5.55552e-06
1.07554e-07
2.60608e-06
9.14072e-08
1.88128e-06
4.58493e-06
2.05648e-05
-3.06335e-08
6.34701e-07
2.10423e-05
1.71638e-08
-6.84012e-07
2.23302e-05
2.10019e-07
-2.00055e-06
2.24119e-05
2.3781e-07
4.60064e-07
2.02129e-05
9.07813e-08
4.65982e-06
1.71624e-05
3.29216e-08
6.52021e-06
1.43575e-05
1.25165e-07
6.36534e-06
1.17141e-05
1.70596e-07
5.4923e-06
9.13051e-06
1.21619e-07
4.60934e-06
7.00736e-06
7.88474e-08
3.61983e-06
5.54211e-06
5.77536e-08
2.62076e-06
5.03199e-08
1.88039e-06
4.56679e-06
2.06016e-05
-1.33995e-08
5.72416e-07
2.1098e-05
1.76214e-08
-6.93389e-07
2.22657e-05
9.62486e-08
-1.83721e-06
2.22973e-05
9.9781e-08
4.85593e-07
2.01396e-05
3.50307e-08
4.5611e-06
1.71079e-05
1.09231e-08
6.43433e-06
1.43256e-05
5.76635e-08
6.26602e-06
1.17258e-05
8.82814e-08
5.4407e-06
9.15888e-06
6.5301e-08
4.62768e-06
7.02498e-06
3.90465e-08
3.64266e-06
5.54874e-06
2.62614e-08
2.62006e-06
2.26681e-08
1.8697e-06
4.56772e-06
2.06189e-05
-4.07438e-11
5.46744e-07
2.11361e-05
-7.15526e-11
-6.95434e-07
2.2256e-05
-1.13712e-10
-1.77336e-06
2.22502e-05
-1.46003e-10
4.89854e-07
2.01003e-05
-1.76489e-10
4.51224e-06
1.70753e-05
-1.60372e-10
6.38873e-06
1.43015e-05
-1.08147e-10
6.21515e-06
1.17186e-05
-1.5335e-10
5.41587e-06
9.16084e-06
-2.66513e-10
4.63559e-06
7.02571e-06
-3.02246e-10
3.65402e-06
5.54738e-06
-2.44219e-10
2.62017e-06
-1.53892e-10
1.86353e-06
4.56564e-06
2.06189e-05
1.33231e-08
5.46733e-07
2.11361e-05
-1.77563e-08
-6.95443e-07
2.2256e-05
-9.64609e-08
-1.77341e-06
2.22502e-05
-1.0006e-07
4.89745e-07
2.01004e-05
-3.53744e-08
4.51217e-06
1.70754e-05
-1.12347e-08
6.38869e-06
1.43016e-05
-5.78696e-08
6.21508e-06
1.17187e-05
-8.85779e-08
5.4158e-06
9.16095e-06
-6.58141e-08
4.63555e-06
7.02581e-06
-3.96242e-08
3.65399e-06
5.54747e-06
-2.67253e-08
2.62014e-06
-2.29591e-08
1.8635e-06
4.56573e-06
2.06016e-05
3.05651e-08
5.72386e-07
2.1098e-05
-1.72712e-08
-6.93414e-07
2.22657e-05
-2.10184e-07
-1.83736e-06
2.22974e-05
-2.38042e-07
4.8525e-07
2.01398e-05
-9.10764e-08
4.56087e-06
1.71081e-05
-3.31806e-08
6.4342e-06
1.43258e-05
-1.25337e-07
6.26581e-06
1.17261e-05
-1.70857e-07
5.4405e-06
9.1592e-06
-1.22064e-07
4.62756e-06
7.02525e-06
-7.93395e-08
3.64256e-06
5.54899e-06
-5.81436e-08
2.61995e-06
-5.05635e-08
1.8696e-06
4.56795e-06
2.05648e-05
5.2031e-08
6.34649e-07
2.10423e-05
-6.52646e-09
-6.84027e-07
2.23302e-05
-3.68184e-07
-2.00075e-06
2.24121e-05
-4.14521e-07
4.59543e-07
2.02132e-05
-1.59727e-07
4.65946e-06
1.71627e-05
-6.90562e-08
6.52002e-06
1.43578e-05
-2.01895e-07
6.36505e-06
1.17146e-05
-2.26812e-07
5.49199e-06
9.13099e-06
-1.59312e-07
4.60915e-06
7.0078e-06
-1.29736e-07
3.61967e-06
5.5425e-06
-1.07836e-07
2.62059e-06
-9.15836e-08
1.88026e-06
4.56715e-06
2.05065e-05
8.54721e-08
7.34228e-07
2.08544e-05
9.10116e-08
-6.17633e-07
2.23285e-05
-5.59077e-07
-2.36292e-06
2.25832e-05
-6.60658e-07
2.33301e-07
2.0394e-05
-2.41983e-07
4.62906e-06
1.74144e-05
-1.38846e-07
6.47234e-06
1.46206e-05
-2.52992e-07
6.43181e-06
1.18257e-05
-1.00614e-07
5.54534e-06
9.13521e-06
-6.90912e-08
4.5427e-06
7.00574e-06
-1.9117e-07
3.55602e-06
5.55602e-06
-2.01847e-07
2.60585e-06
-1.53158e-07
1.88112e-06
4.5854e-06
2.04542e-05
9.68229e-08
9.25879e-07
2.07451e-05
1.99278e-07
-5.48058e-07
2.24334e-05
-6.38363e-07
-3.09378e-06
2.27673e-05
-8.45229e-07
3.52013e-08
2.04938e-05
-3.64701e-07
4.84632e-06
1.75863e-05
-2.63014e-07
6.45433e-06
1.4927e-05
-3.26506e-07
6.47138e-06
1.21898e-05
5.87115e-09
5.67746e-06
9.43846e-06
5.35011e-08
4.55542e-06
7.18354e-06
-1.95733e-07
3.51361e-06
5.64281e-06
-2.54543e-07
2.56043e-06
-1.78836e-07
1.81967e-06
4.6319e-06
2.04763e-05
1.14771e-06
2.01409e-05
1.01499e-06
2.18105e-05
-4.69342e-06
2.27366e-05
-2.51645e-06
2.05512e-05
3.74615e-06
1.76311e-05
5.53307e-06
1.5453e-05
5.80694e-06
1.3586e-05
5.35106e-06
1.10301e-05
4.37668e-06
8.18341e-06
3.41448e-06
6.045e-06
2.44287e-06
1.66298e-06
4.74117e-06
2.08291e-05
-1.32152e-07
1.2831e-06
2.09383e-05
-1.57802e-07
1.06351e-06
2.09602e-05
9.63357e-07
-5.67895e-06
2.19779e-05
8.26386e-07
-4.35997e-06
1.99622e-05
3.36047e-07
5.42644e-06
1.55456e-05
4.4466e-07
9.50524e-06
1.24201e-05
4.00842e-07
8.53208e-06
1.06681e-05
6.53799e-08
7.03803e-06
8.7698e-06
2.80892e-08
6.24715e-06
6.88805e-06
1.23725e-07
5.17266e-06
5.49113e-06
1.1958e-07
3.72035e-06
8.43992e-08
2.53139e-06
4.53844e-06
2.04768e-05
-1.03907e-07
1.25319e-06
2.04969e-05
-2.87974e-08
-6.97268e-07
2.17605e-05
8.47843e-07
-4.24179e-06
2.26831e-05
6.89275e-07
-7.49571e-07
2.02367e-05
2.02025e-07
7.42722e-06
1.61592e-05
2.54076e-07
1.07226e-05
1.30304e-05
3.52057e-07
9.64941e-06
1.07667e-05
1.8138e-07
7.82544e-06
8.61357e-06
1.0581e-07
6.63111e-06
6.77167e-06
1.19832e-07
5.35965e-06
5.45607e-06
1.02634e-07
3.89321e-06
8.38699e-08
2.72785e-06
4.54858e-06
2.03859e-05
-6.05831e-08
1.13727e-06
2.04222e-05
9.2554e-08
-7.75304e-07
2.17692e-05
5.43447e-07
-3.40531e-06
2.25596e-05
3.96736e-07
-2.63897e-07
2.00717e-05
1.16008e-07
7.20342e-06
1.6152e-05
1.25878e-07
1.05204e-05
1.31686e-05
2.6243e-07
9.50521e-06
1.08623e-05
2.39136e-07
7.79421e-06
8.62019e-06
1.37231e-07
6.75365e-06
6.73994e-06
8.40955e-08
5.47224e-06
5.41738e-06
6.35733e-08
3.96771e-06
6.00541e-08
2.8122e-06
4.51027e-06
2.038e-05
-3.27449e-08
1.05903e-06
2.05756e-05
7.07924e-08
-8.57829e-07
2.17994e-05
3.01013e-07
-2.98189e-06
2.23112e-05
2.29432e-07
1.15542e-07
1.98148e-05
6.7843e-08
7.20442e-06
1.60312e-05
5.36573e-08
1.0376e-05
1.31617e-05
1.49058e-07
9.34819e-06
1.09221e-05
1.68954e-07
7.8021e-06
8.67574e-06
1.04432e-07
6.88852e-06
6.75826e-06
5.76924e-08
5.56372e-06
5.40998e-06
3.98131e-08
3.9928e-06
3.73424e-08
2.82059e-06
4.4925e-06
2.03883e-05
-1.4081e-08
9.97598e-07
2.06102e-05
4.4454e-08
-8.88949e-07
2.17223e-05
1.33398e-07
-2.78169e-06
2.21318e-05
9.06512e-08
2.14916e-07
1.97054e-05
2.08632e-08
7.03452e-06
1.60354e-05
1.46807e-08
1.01432e-05
1.32179e-05
6.39733e-08
9.16869e-06
1.09812e-05
8.48608e-08
7.76141e-06
8.71736e-06
5.67623e-08
6.93922e-06
6.77974e-06
3.10956e-08
5.60688e-06
5.4182e-06
2.02629e-08
4.00115e-06
1.82304e-08
2.81422e-06
4.49279e-06
2.0395e-05
-3.95417e-11
9.69921e-07
2.06443e-05
-6.36019e-11
-9.0029e-07
2.17021e-05
-1.29215e-10
-2.69761e-06
2.20481e-05
-1.88154e-10
2.34694e-07
1.96517e-05
-1.88798e-10
6.92972e-06
1.60354e-05
-1.43542e-10
1.00198e-05
1.32336e-05
-1.04269e-10
9.08101e-06
1.09924e-05
-1.62276e-10
7.74207e-06
8.72382e-06
-2.4614e-10
6.96123e-06
6.78218e-06
-2.43269e-10
5.627e-06
5.41819e-06
-1.73294e-10
4.0046e-06
-9.62393e-11
2.80875e-06
4.49129e-06
2.0395e-05
1.40064e-08
9.69909e-07
2.06443e-05
-4.45719e-08
-9.0031e-07
2.17021e-05
-1.33639e-07
-2.69766e-06
2.20481e-05
-9.10085e-08
2.34549e-07
1.96518e-05
-2.12318e-08
6.92957e-06
1.60355e-05
-1.49606e-08
1.00197e-05
1.32338e-05
-6.41733e-08
9.08093e-06
1.09926e-05
-8.51749e-08
7.74201e-06
8.72391e-06
-5.72359e-08
6.96119e-06
6.78225e-06
-3.15589e-08
5.62697e-06
5.41825e-06
-2.05896e-08
4.00456e-06
-1.84106e-08
2.80872e-06
4.49134e-06
2.03883e-05
3.26773e-08
9.97567e-07
2.06102e-05
-7.08841e-08
-8.89006e-07
2.17223e-05
-3.01197e-07
-2.78187e-06
2.21318e-05
-2.29718e-07
2.14451e-07
1.97055e-05
-6.81508e-08
7.03406e-06
1.60358e-05
-5.38964e-08
1.01429e-05
1.32182e-05
-1.49229e-07
9.16842e-06
1.09815e-05
-1.69229e-07
7.76121e-06
8.71762e-06
-1.0484e-07
6.93909e-06
6.77994e-06
-5.80807e-08
5.60676e-06
5.41836e-06
-4.00801e-08
4.00102e-06
-3.74888e-08
2.81412e-06
4.49292e-06
2.038e-05
6.05278e-08
1.05897e-06
2.05756e-05
-9.26081e-08
-8.57886e-07
2.17993e-05
-5.43547e-07
-2.98212e-06
2.23113e-05
-3.96913e-07
1.14809e-07
1.98151e-05
-1.16242e-07
7.20373e-06
1.60317e-05
-1.26075e-07
1.03756e-05
1.31623e-05
-2.6257e-07
9.34782e-06
1.09226e-05
-2.39351e-07
7.80179e-06
8.67614e-06
-1.37533e-07
6.88831e-06
6.75858e-06
-8.43698e-08
5.56352e-06
5.41024e-06
-6.37531e-08
3.9926e-06
-6.01524e-08
2.82045e-06
4.49272e-06
2.03859e-05
1.03859e-07
1.13719e-06
2.04222e-05
2.87832e-08
-7.75347e-07
2.17691e-05
-8.47838e-07
-3.40553e-06
2.25596e-05
-6.89359e-07
-2.64735e-07
2.0072e-05
-2.0217e-07
7.20254e-06
1.61526e-05
-2.54222e-07
1.052e-05
1.31692e-05
-3.5219e-07
9.5048e-06
1.08629e-05
-1.8155e-07
7.79383e-06
8.62072e-06
-1.05981e-07
6.75336e-06
6.74037e-06
-1.19954e-07
5.47196e-06
5.41773e-06
-1.02704e-07
3.96744e-06
-8.39127e-08
2.81203e-06
4.51058e-06
2.04768e-05
1.3212e-07
1.25305e-06
2.04969e-05
1.57816e-07
-6.97243e-07
2.17604e-05
-9.63303e-07
-4.24182e-06
2.26831e-05
-8.26395e-07
-7.50497e-07
2.02372e-05
-3.36107e-07
7.42624e-06
1.61598e-05
-4.44748e-07
1.07222e-05
1.30309e-05
-4.00957e-07
9.64903e-06
1.07673e-05
-6.54919e-08
7.82499e-06
8.61417e-06
-2.81415e-08
6.63074e-06
6.77222e-06
-1.23718e-07
5.35933e-06
5.45657e-06
-1.19566e-07
3.89294e-06
-8.44004e-08
2.72768e-06
4.54905e-06
2.0829e-05
1.28297e-06
2.09383e-05
1.06354e-06
2.09601e-05
-5.67854e-06
2.1978e-05
-4.3607e-06
1.99626e-05
5.42537e-06
1.55461e-05
9.50483e-06
1.24203e-05
8.53179e-06
1.06683e-05
7.0376e-06
8.77013e-06
6.24671e-06
6.88858e-06
5.17231e-06
5.49178e-06
3.7201e-06
2.53123e-06
4.53913e-06
2.13884e-05
-6.31812e-07
1.35873e-06
2.07459e-05
1.96586e-07
1.50937e-06
1.8698e-05
1.29981e-06
-4.93085e-06
1.92681e-05
4.32674e-07
-5.36276e-06
1.91337e-05
-6.04676e-08
5.62133e-06
1.55119e-05
4.15694e-07
1.27113e-05
1.14264e-05
6.14567e-07
1.2003e-05
8.80115e-06
2.05189e-07
9.45815e-06
7.14033e-06
-2.57706e-08
7.93374e-06
5.98413e-06
-1.67988e-08
6.34567e-06
5.09133e-06
8.70949e-09
4.60443e-06
2.01917e-08
3.2489e-06
4.35363e-06
2.00772e-05
-4.38789e-07
1.81517e-06
1.92117e-05
3.7192e-07
-7.09977e-09
1.93387e-05
1.11831e-06
-4.18729e-06
2.03666e-05
3.99119e-07
-1.74399e-06
1.95369e-05
-1.19293e-07
8.31577e-06
1.65349e-05
2.07534e-07
1.39328e-05
1.33818e-05
4.73471e-07
1.29436e-05
1.05941e-05
2.63323e-07
1.0555e-05
8.1836e-06
6.56367e-08
8.95017e-06
6.41822e-06
2.72494e-08
7.08098e-06
5.23749e-06
2.70302e-08
5.05562e-06
3.47405e-08
3.53779e-06
4.413e-06
1.99103e-05
-2.6308e-07
1.88348e-06
1.91011e-05
3.30017e-07
7.57546e-08
1.94359e-05
6.21852e-07
-3.24368e-06
2.03344e-05
6.45333e-08
-8.27803e-07
1.94212e-05
-1.89326e-07
8.18673e-06
1.67359e-05
2.17608e-08
1.33915e-05
1.38126e-05
2.47083e-07
1.26548e-05
1.08918e-05
2.29205e-07
1.07492e-05
8.29918e-06
1.1653e-07
9.29535e-06
6.42964e-06
5.49573e-08
7.31407e-06
5.20213e-06
3.45721e-08
5.18768e-06
3.55644e-08
3.6467e-06
4.36681e-06
1.99091e-05
-1.48002e-07
1.867e-06
1.9217e-05
1.82284e-07
-1.79171e-08
1.94285e-05
3.2441e-07
-2.89598e-06
2.00214e-05
2.10871e-08
-4.33907e-07
1.91179e-05
-1.28162e-07
8.04673e-06
1.66182e-05
-2.5897e-08
1.29233e-05
1.37481e-05
1.13138e-07
1.23523e-05
1.08237e-05
1.51328e-07
1.08044e-05
8.26316e-06
9.63033e-08
9.46925e-06
6.40961e-06
4.89971e-08
7.42322e-06
5.17936e-06
2.89918e-08
5.22863e-06
2.65547e-08
3.66814e-06
4.34082e-06
1.992e-05
-6.26076e-08
1.82441e-06
1.9213e-05
8.84776e-08
-8.8185e-08
1.93204e-05
1.3389e-07
-2.69852e-06
1.98126e-05
-1.75491e-08
-2.38676e-07
1.89737e-05
-7.95554e-08
7.82479e-06
1.65994e-05
-3.25126e-08
1.25242e-05
1.37508e-05
3.83524e-08
1.2092e-05
1.08141e-05
7.32504e-08
1.07762e-05
8.25969e-06
5.33922e-08
9.53649e-06
6.41157e-06
2.88821e-08
7.47512e-06
5.17941e-06
1.6931e-08
5.24537e-06
1.44243e-08
3.66908e-06
4.33668e-06
1.99322e-05
-5.4463e-11
1.8074e-06
1.92346e-05
-9.88266e-11
-1.14133e-07
1.92815e-05
-1.66758e-10
-2.61048e-06
1.96955e-05
-2.33119e-10
-1.96594e-07
1.88794e-05
-2.22918e-10
7.66645e-06
1.65652e-05
-1.53002e-10
1.23017e-05
1.37279e-05
-1.31222e-10
1.19568e-05
1.07914e-05
-1.74114e-10
1.0752e-05
8.24644e-06
-2.0062e-10
9.55976e-06
6.40618e-06
-1.65529e-10
7.4963e-06
5.17681e-06
-1.01908e-10
5.25101e-06
-4.52496e-11
3.66587e-06
4.33416e-06
1.99321e-05
6.2504e-08
1.80739e-06
1.92346e-05
-8.86579e-08
-1.14158e-07
1.92815e-05
-1.34198e-07
-2.61054e-06
1.96954e-05
1.71241e-08
-1.96753e-07
1.88794e-05
7.91428e-08
7.66622e-06
1.65652e-05
3.22361e-08
1.23015e-05
1.37279e-05
-3.8596e-08
1.19567e-05
1.07914e-05
-7.35852e-08
1.07519e-05
8.24648e-06
-5.37788e-08
9.55971e-06
6.40622e-06
-2.91954e-08
7.49626e-06
5.17683e-06
-1.71197e-08
5.25097e-06
-1.45066e-08
3.66584e-06
4.33418e-06
1.992e-05
1.47906e-07
1.82439e-06
1.9213e-05
-1.82414e-07
-8.82553e-08
1.93202e-05
-3.2463e-07
-2.69869e-06
1.98124e-05
-2.1414e-08
-2.39151e-07
1.89737e-05
1.27825e-07
7.82408e-06
1.65995e-05
2.56804e-08
1.25236e-05
1.3751e-05
-1.13317e-07
1.20917e-05
1.08142e-05
-1.51611e-07
1.0776e-05
8.25981e-06
-9.66348e-08
9.53635e-06
6.41166e-06
-4.9254e-08
7.47497e-06
5.17948e-06
-2.9137e-08
5.24522e-06
-2.66155e-08
3.66898e-06
4.33673e-06
1.99091e-05
2.62993e-07
1.86697e-06
1.92169e-05
-3.30075e-07
-1.79963e-08
1.94283e-05
-6.2194e-07
-2.8962e-06
2.0021e-05
-6.47424e-08
-4.3464e-07
1.91178e-05
1.89126e-07
8.04564e-06
1.66185e-05
-2.18813e-08
1.29224e-05
1.37485e-05
-2.47182e-07
1.23517e-05
1.08239e-05
-2.29407e-07
1.08041e-05
8.26337e-06
-1.16771e-07
9.46902e-06
6.40978e-06
-5.5128e-08
7.42299e-06
5.17949e-06
-3.46545e-08
5.22841e-06
-3.55953e-08
3.668e-06
4.34092e-06
1.99102e-05
4.38709e-07
1.88343e-06
1.9101e-05
-3.71875e-07
7.56396e-08
1.94357e-05
-1.11824e-06
-3.24388e-06
2.0334e-05
-3.99147e-07
-8.28682e-07
1.94211e-05
1.19228e-07
8.18539e-06
1.67362e-05
-2.07584e-07
1.33905e-05
1.38132e-05
-4.73542e-07
1.26542e-05
1.08922e-05
-2.63461e-07
1.07488e-05
8.29953e-06
-6.57581e-08
9.29506e-06
6.42991e-06
-2.73004e-08
7.31375e-06
5.20234e-06
-2.70344e-08
5.18739e-06
-3.47396e-08
3.64653e-06
4.36698e-06
2.00771e-05
6.31758e-07
1.81508e-06
1.92116e-05
-1.96488e-07
-7.12231e-09
1.93385e-05
-1.29969e-06
-4.18722e-06
2.03663e-05
-4.32622e-07
-1.74488e-06
1.95369e-05
6.05049e-08
8.31432e-06
1.65354e-05
-4.15698e-07
1.39319e-05
1.33825e-05
-6.14642e-07
1.2943e-05
1.05947e-05
-2.05278e-07
1.05546e-05
8.18411e-06
2.57525e-08
8.9498e-06
6.41864e-06
1.68421e-08
7.08065e-06
5.23786e-06
-8.66374e-09
5.05535e-06
-2.01727e-08
3.53763e-06
4.41335e-06
2.13882e-05
1.35869e-06
2.07459e-05
1.50941e-06
1.8698e-05
-4.93032e-06
1.92679e-05
-5.36328e-06
1.91339e-05
5.61986e-06
1.55125e-05
1.27105e-05
1.1427e-05
1.20027e-05
8.80149e-06
9.45778e-06
7.14072e-06
7.93323e-06
5.98464e-06
6.34524e-06
5.09194e-06
4.60414e-06
3.2487e-06
4.35429e-06
4.57979e-06
1.945e-06
-5.16607e-06
6.20316e-06
1.74527e-06
-1.85926e-06
8.62611e-06
2.39224e-07
-7.59304e-06
1.1648e-05
-1.1295e-06
-7.25519e-06
1.4107e-05
-1.11501e-06
4.27739e-06
1.31473e-05
-6.97783e-08
1.37408e-05
1.0278e-05
4.4894e-07
1.44233e-05
7.77868e-06
1.39664e-07
1.18178e-05
6.3069e-06
-1.17514e-07
9.52304e-06
5.44135e-06
-1.26245e-07
7.33746e-06
4.74881e-06
-7.1707e-08
5.36867e-06
-2.43339e-08
3.89052e-06
4.13152e-06
5.45197e-06
1.51026e-06
-3.20205e-06
8.50677e-06
1.56463e-06
-2.88127e-06
1.14693e-05
3.38406e-07
-7.24902e-06
1.37521e-05
-9.44292e-07
-4.21196e-06
1.50248e-05
-1.12642e-06
7.05444e-06
1.44294e-05
-3.37939e-07
1.47964e-05
1.24419e-05
2.30247e-07
1.51498e-05
9.76335e-06
1.80193e-07
1.31931e-05
7.46318e-06
9.07442e-09
1.11238e-05
5.94609e-06
-3.71074e-08
8.50894e-06
4.94356e-06
-2.49486e-08
6.01139e-06
1.15945e-09
4.23502e-06
4.22083e-06
5.39872e-06
8.19059e-07
-2.82404e-06
8.64253e-06
9.98766e-07
-2.60219e-06
1.16726e-05
7.26212e-08
-6.00795e-06
1.37817e-05
-8.40334e-07
-3.04091e-06
1.48841e-05
-9.52041e-07
6.91001e-06
1.4398e-05
-4.61542e-07
1.40011e-05
1.24865e-05
9.7048e-09
1.47869e-05
9.77753e-06
1.62002e-07
1.34764e-05
7.45364e-06
1.01474e-07
1.15268e-05
5.91303e-06
3.68412e-08
8.78073e-06
4.88967e-06
1.44383e-08
6.17165e-06
1.84001e-08
4.35323e-06
4.1659e-06
5.28061e-06
3.76363e-07
-2.97091e-06
8.51751e-06
5.49042e-07
-2.8051e-06
1.14248e-05
3.96423e-08
-5.77033e-06
1.33839e-05
-5.23982e-07
-2.70929e-06
1.44719e-05
-6.16128e-07
6.62274e-06
1.39961e-05
-3.46292e-07
1.32839e-05
1.2058e-05
-3.67659e-08
1.43368e-05
9.46692e-06
1.09644e-07
1.34478e-05
7.30755e-06
8.98423e-08
1.16402e-05
5.84968e-06
4.36658e-08
8.87427e-06
4.84853e-06
2.13999e-08
6.22282e-06
1.85865e-08
4.38535e-06
4.13113e-06
5.1549e-06
1.44824e-07
-3.09895e-06
8.33594e-06
2.37342e-07
-2.95753e-06
1.1218e-05
-3.11402e-09
-5.53783e-06
1.31671e-05
-2.63693e-07
-2.44806e-06
1.4283e-05
-3.06402e-07
6.39917e-06
1.38406e-05
-1.83097e-07
1.28034e-05
1.19042e-05
-3.22463e-08
1.4024e-05
9.35734e-06
5.39672e-08
1.33787e-05
7.25614e-06
5.07975e-08
1.16767e-05
5.83051e-06
2.7591e-08
8.91683e-06
4.83859e-06
1.45798e-08
6.24411e-06
1.14921e-08
4.39314e-06
4.12163e-06
5.10991e-06
-1.62929e-10
-3.15752e-06
8.258e-06
-1.43913e-10
-3.02473e-06
1.11032e-05
-1.54445e-10
-5.45866e-06
1.30273e-05
-2.14481e-10
-2.38418e-06
1.41529e-05
-2.16837e-10
6.23469e-06
1.37381e-05
-1.89175e-10
1.25336e-05
1.18133e-05
-1.83031e-10
1.38495e-05
9.29594e-06
-1.69449e-10
1.33235e-05
7.22537e-06
-1.31591e-10
1.16813e-05
5.81773e-06
-8.28635e-11
8.93161e-06
4.83276e-06
-3.62353e-11
6.2506e-06
-1.04959e-12
4.39262e-06
4.11751e-06
5.10989e-06
-1.45127e-07
-3.15753e-06
8.25796e-06
-2.37594e-07
-3.02478e-06
1.11031e-05
2.84648e-09
-5.45873e-06
1.30272e-05
2.63296e-07
-2.38435e-06
1.41528e-05
3.06003e-07
6.23442e-06
1.3738e-05
1.82757e-07
1.25333e-05
1.18133e-05
3.19108e-08
1.38494e-05
9.29591e-06
-5.42946e-08
1.33234e-05
7.22537e-06
-5.10504e-08
1.16812e-05
5.81774e-06
-2.77441e-08
8.93155e-06
4.83277e-06
-1.46417e-08
6.25055e-06
-1.14896e-08
4.39259e-06
4.11751e-06
5.15483e-06
-3.76596e-07
-3.09897e-06
8.33582e-06
-5.4918e-07
-2.95766e-06
1.12178e-05
-3.98219e-08
-5.53801e-06
1.31668e-05
5.2367e-07
-2.44853e-06
1.42827e-05
6.15824e-07
6.39836e-06
1.38404e-05
3.46056e-07
1.28026e-05
1.1904e-05
3.6506e-08
1.40235e-05
9.35725e-06
-1.0992e-07
1.33784e-05
7.25612e-06
-9.00567e-08
1.16765e-05
5.83051e-06
-4.37823e-08
8.91661e-06
4.83859e-06
-2.14344e-08
6.24394e-06
-1.85735e-08
4.39304e-06
4.12162e-06
5.2805e-06
-8.1919e-07
-2.97094e-06
8.51732e-06
-9.98713e-07
-2.80528e-06
1.14245e-05
-7.26648e-08
-5.77057e-06
1.33834e-05
8.40154e-07
-2.71002e-06
1.44715e-05
9.51883e-07
6.62147e-06
1.39958e-05
4.61465e-07
1.32827e-05
1.20578e-05
-9.83364e-09
1.43361e-05
9.46682e-06
-1.62197e-07
1.34474e-05
7.30755e-06
-1.01627e-07
1.16399e-05
5.84971e-06
-3.69019e-08
8.87394e-06
4.84854e-06
-1.4433e-08
6.22257e-06
-1.83733e-08
4.38522e-06
4.13113e-06
5.3986e-06
-1.51027e-06
-2.82408e-06
8.6423e-06
-1.56438e-06
-2.6024e-06
1.16722e-05
-3.38297e-07
-6.00815e-06
1.37812e-05
9.44256e-07
-3.04177e-06
1.48836e-05
1.12641e-06
6.90841e-06
1.43979e-05
3.38007e-07
1.39997e-05
1.24865e-05
-2.30244e-07
1.4786e-05
9.77754e-06
-1.8029e-07
1.34759e-05
7.45371e-06
-9.14112e-09
1.15264e-05
5.91313e-06
3.71201e-08
8.78032e-06
4.88975e-06
2.49965e-08
6.17134e-06
-1.12305e-09
4.35307e-06
4.16596e-06
5.45183e-06
-1.94494e-06
-3.20208e-06
8.5066e-06
-1.74494e-06
-2.88134e-06
1.1469e-05
-2.39052e-07
-7.24887e-06
1.37516e-05
1.12954e-06
-4.21275e-06
1.50245e-05
1.1151e-06
7.05272e-06
1.44295e-05
6.9908e-08
1.4795e-05
1.24422e-05
-4.48898e-07
1.5149e-05
9.76365e-06
-1.39703e-07
1.31926e-05
7.46347e-06
1.17516e-07
1.11233e-05
5.94636e-06
1.26307e-07
8.50857e-06
4.94382e-06
7.17747e-08
6.01112e-06
2.43676e-08
4.23487e-06
4.22109e-06
4.57954e-06
-5.16579e-06
6.20302e-06
-1.85901e-06
8.62595e-06
-7.5923e-06
1.16477e-05
-7.25553e-06
1.41069e-05
4.27577e-06
1.31477e-05
1.37397e-05
1.02787e-05
1.44229e-05
7.77927e-06
1.18175e-05
6.30743e-06
9.52259e-06
5.4419e-06
7.33707e-06
4.74942e-06
5.36839e-06
3.89032e-06
4.13217e-06
2.23413e-06
7.54477e-07
-8.15467e-06
5.80929e-06
4.98456e-07
-5.93288e-06
7.21053e-06
-5.80886e-07
-8.41339e-06
8.22336e-06
-1.70286e-06
-6.56516e-06
1.02125e-05
-1.68255e-06
3.9708e-06
1.04867e-05
-5.62305e-07
1.40289e-05
8.80773e-06
1.47303e-07
1.5955e-05
6.88979e-06
5.57571e-08
1.368e-05
5.70551e-06
-1.33868e-07
1.08412e-05
4.99301e-06
-1.54543e-07
8.20451e-06
4.40896e-06
-9.49696e-08
6.0477e-06
-3.69784e-08
4.45134e-06
3.88511e-06
2.50456e-06
7.34179e-07
-5.68631e-06
5.85623e-06
4.569e-07
-6.19138e-06
7.63814e-06
-6.6934e-07
-8.94248e-06
8.89475e-06
-1.76547e-06
-5.40597e-06
1.03993e-05
-1.81483e-06
5.68213e-06
1.09445e-05
-8.50317e-07
1.45393e-05
9.90924e-06
-3.59202e-08
1.63682e-05
7.99256e-06
1.07234e-07
1.50583e-05
6.40056e-06
-3.09974e-09
1.2585e-05
5.34015e-06
-5.2854e-08
9.46765e-06
4.56884e-06
-4.02454e-08
6.72797e-06
-1.00105e-08
4.79996e-06
3.97694e-06
2.50055e-06
4.67695e-07
-5.0581e-06
5.76477e-06
3.28685e-07
-5.73818e-06
7.60616e-06
-5.51771e-07
-7.96691e-06
8.78745e-06
-1.41373e-06
-4.57394e-06
1.0028e-05
-1.48916e-06
5.34384e-06
1.04434e-05
-8.27998e-07
1.35633e-05
9.46227e-06
-1.36935e-07
1.5869e-05
7.71894e-06
1.35799e-07
1.51912e-05
6.25848e-06
1.00838e-07
1.28834e-05
5.24785e-06
3.18728e-08
9.70663e-06
4.49197e-06
7.17191e-09
6.88011e-06
1.11415e-08
4.90811e-06
3.91594e-06
2.39117e-06
2.49211e-07
-5.14359e-06
5.5273e-06
2.05155e-07
-5.8177e-06
7.28485e-06
-3.47273e-07
-7.73238e-06
8.3902e-06
-9.04221e-07
-4.32414e-06
9.53221e-06
-9.70364e-07
4.96193e-06
9.83538e-06
-5.73237e-07
1.2726e-05
8.86227e-06
-1.19377e-07
1.52924e-05
7.32977e-06
9.43124e-08
1.50218e-05
6.0679e-06
8.85802e-08
1.29144e-05
5.15495e-06
4.22958e-08
9.77679e-06
4.43522e-06
1.82673e-08
6.93146e-06
1.45866e-08
4.94266e-06
3.87447e-06
2.28541e-06
1.03065e-07
-5.23821e-06
5.32476e-06
8.9965e-08
-5.88169e-06
7.08097e-06
-1.72211e-07
-7.46911e-06
8.21846e-06
-4.37122e-07
-4.05265e-06
9.35112e-06
-4.70202e-07
4.76635e-06
9.62722e-06
-2.84612e-07
1.22387e-05
8.65619e-06
-6.58572e-08
1.49415e-05
7.18993e-06
4.74989e-08
1.48918e-05
5.99493e-06
5.01063e-08
1.29102e-05
5.12089e-06
2.729e-08
9.80587e-06
4.41652e-06
1.34386e-08
6.95331e-06
9.81681e-09
4.95421e-06
3.86021e-06
2.23945e-06
-1.32957e-10
-5.29377e-06
5.22564e-06
-5.70855e-11
-5.9209e-06
6.96742e-06
-6.06001e-11
-7.3726e-06
8.10931e-06
-1.51447e-10
-3.96304e-06
9.24271e-06
-2.08907e-10
4.63129e-06
9.52123e-06
-2.18594e-10
1.19707e-05
8.55922e-06
-1.87634e-10
1.47459e-05
7.12347e-06
-1.11878e-10
1.48068e-05
5.95865e-06
-4.36071e-11
1.28962e-05
5.1036e-06
-5.09374e-12
9.81396e-06
4.40784e-06
2.13168e-11
6.95978e-06
3.6317e-11
4.95577e-06
3.85447e-06
2.23942e-06
-1.03308e-07
-5.29377e-06
5.22559e-06
-9.00539e-08
-5.92095e-06
6.96735e-06
1.72109e-07
-7.37266e-06
8.1092e-06
4.36839e-07
-3.96319e-06
9.24258e-06
4.69812e-07
4.63102e-06
9.52109e-06
2.84208e-07
1.19704e-05
8.5591e-06
6.55049e-08
1.47457e-05
7.12341e-06
-4.77156e-08
1.48067e-05
5.95862e-06
-5.01875e-08
1.28961e-05
5.10358e-06
-2.72923e-08
9.81387e-06
4.40782e-06
-1.3389e-08
6.95972e-06
-9.74175e-09
4.95574e-06
3.85444e-06
2.28534e-06
-2.49386e-07
-5.23823e-06
5.32461e-06
-2.05166e-07
-5.88183e-06
7.08076e-06
3.47226e-07
-7.46928e-06
8.21815e-06
9.03994e-07
-4.05308e-06
9.35072e-06
9.70056e-07
4.76555e-06
9.6268e-06
5.72927e-07
1.22378e-05
8.65584e-06
1.19088e-07
1.49409e-05
7.18972e-06
-9.4496e-08
1.48913e-05
5.99483e-06
-8.86421e-08
1.29098e-05
5.12083e-06
-4.22787e-08
9.80559e-06
4.41646e-06
-1.82036e-08
6.95312e-06
-1.45101e-08
4.95411e-06
3.86015e-06
2.39106e-06
-4.67769e-07
-5.14362e-06
5.52708e-06
-3.28571e-07
-5.8179e-06
7.28453e-06
5.5181e-07
-7.7326e-06
8.38973e-06