/*--------------------------------*- C++ -*----------------------------------*\
| =========                 |                                                 |
| \\      /  F ield         | OpenFOAM: The Open Source CFD Toolbox           |
|  \\    /   O peration     | Version:  2.3.1                                 |
|   \\  /    A nd           | Web:      www.OpenFOAM.org                      |
|    \\/     M anipulation  |                                                 |
\*---------------------------------------------------------------------------*/
FoamFile
{
    version     2.0;
    format      ascii;
    class       volScalarField;
    location    "5";
    object      Sed_0;
}
// * * * * * * * * * * * * * * * * * * * * * * * * * * * * * * * * * * * * * //

dimensions      [0 0 0 0 0 0 0];

internalField   nonuniform List<scalar> 
37758
(
0.023487
0.0243912
0.0247364
0.0255721
0.0264048
0.0272619
0.029762
0.0309016
0.0273317
0.0122639
0.00302888
0.000535907
0.023457
0.0242432
0.0247044
0.0256528
0.0263642
0.02724
0.0297656
0.0310978
0.0286594
0.0146648
0.00361053
0.000622591
0.0234473
0.0242228
0.0247537
0.0256872
0.0263757
0.0272614
0.0297817
0.0311303
0.0289637
0.0154301
0.00382586
0.000655723
0.0234468
0.0242095
0.0247647
0.0257101
0.0264019
0.0273041
0.0298319
0.0311876
0.0291932
0.016024
0.00401282
0.000686868
0.0234464
0.0242053
0.0247684
0.02572
0.0264172
0.0273189
0.0298339
0.0312023
0.029292
0.0163043
0.00410432
0.000703092
0.0234464
0.0242037
0.0247679
0.0257225
0.0264235
0.0273249
0.0298337
0.0312098
0.029336
0.016429
0.00414539
0.00071036
0.0234464
0.0242037
0.0247679
0.0257225
0.0264235
0.0273249
0.0298336
0.0312098
0.0293361
0.0164294
0.00414559
0.00071041
0.0234464
0.0242053
0.0247684
0.02572
0.0264171
0.0273188
0.0298337
0.0312023
0.0292923
0.0163056
0.00410488
0.000703228
0.0234468
0.0242095
0.0247647
0.0257101
0.0264019
0.0273041
0.0298318
0.0311876
0.0291937
0.0160261
0.00401367
0.000687078
0.0234472
0.0242228
0.0247537
0.0256871
0.0263757
0.0272613
0.0297815
0.0311303
0.0289645
0.0154325
0.00382687
0.000655972
0.023457
0.0242432
0.0247044
0.0256527
0.0263642
0.02724
0.0297654
0.0310978
0.0286603
0.0146674
0.00361161
0.00062286
0.023487
0.0243912
0.0247364
0.0255721
0.0264048
0.0272618
0.0297618
0.0309017
0.0273333
0.0122669
0.00302996
0.000536173
0.0230189
0.0230269
0.0225695
0.0223628
0.0226923
0.0234452
0.0256243
0.0267752
0.0255996
0.0173134
0.00497497
0.000875604
0.0230326
0.0230295
0.0226961
0.022699
0.0230564
0.0238258
0.0258504
0.026741
0.0253029
0.0150809
0.00394246
0.000693726
0.0230329
0.0230337
0.0227982
0.0228163
0.0231507
0.0238932
0.0258412
0.0266298
0.0251446
0.0147761
0.00382428
0.000678713
0.023033
0.0230344
0.0228443
0.0228729
0.0232051
0.023937
0.0258232
0.0265847
0.0251827
0.0150771
0.00393653
0.000700275
0.0230329
0.0230344
0.0228616
0.0228913
0.0232155
0.0239325
0.0257757
0.0265456
0.0251989
0.0152601
0.00400981
0.000715623
0.0230328
0.0230346
0.0228684
0.0228979
0.023218
0.0239273
0.0257484
0.0265243
0.0252032
0.0153427
0.00404308
0.000722525
0.0230328
0.0230346
0.0228684
0.0228979
0.023218
0.0239273
0.0257483
0.0265243
0.0252033
0.015343
0.00404323
0.000722564
0.0230329
0.0230344
0.0228615
0.0228912
0.0232154
0.0239324
0.0257755
0.0265455
0.0251989
0.0152609
0.00401023
0.000715729
0.023033
0.0230344
0.0228443
0.0228729
0.023205
0.0239369
0.025823
0.0265845
0.0251828
0.0150784
0.00393716
0.000700436
0.0230329
0.0230337
0.0227982
0.0228162
0.0231506
0.0238931
0.0258409
0.0266296
0.0251448
0.0147777
0.00382508
0.000678916
0.0230326
0.0230295
0.0226961
0.022699
0.0230563
0.0238256
0.0258501
0.0267408
0.0253032
0.0150828
0.00394342
0.000693975
0.0230189
0.0230269
0.0225695
0.0223628
0.0226922
0.0234451
0.025624
0.026775
0.0255998
0.0173151
0.00497609
0.000875928
0.0229959
0.0229099
0.0212089
0.0197105
0.020298
0.0218902
0.0240089
0.0244208
0.0229655
0.0134806
0.0034362
0.000576675
0.0229707
0.022701
0.0208447
0.0203755
0.0209665
0.0224817
0.0242386
0.0245199
0.0227923
0.0128435
0.00336921
0.000624289
0.022969
0.0226984
0.0210839
0.0207494
0.0212661
0.0226344
0.0242109
0.0244352
0.0226902
0.0126997
0.00338537
0.000647773
0.0229684
0.0226932
0.0212249
0.0209476
0.0214259
0.0227056
0.0241584
0.0243642
0.0226884
0.0128723
0.00347024
0.000671327
0.0229681
0.0226887
0.0212846
0.0210222
0.0214779
0.0227031
0.0241029
0.0243107
0.0226833
0.012998
0.00353215
0.000687251
0.0229679
0.022688
0.0213118
0.0210492
0.0214938
0.0226929
0.0240712
0.0242817
0.0226772
0.0130543
0.00355992
0.000694255
0.0229679
0.022688
0.0213118
0.0210492
0.0214937
0.0226928
0.0240712
0.0242816
0.0226772
0.0130545
0.00356001
0.000694281
0.0229681
0.0226887
0.0212845
0.0210221
0.0214778
0.022703
0.0241027
0.0243105
0.0226833
0.0129984
0.0035324
0.000687323
0.0229684
0.0226932
0.0212248
0.0209474
0.0214257
0.0227054
0.0241582
0.024364
0.0226884
0.0128729
0.00347062
0.000671437
0.022969
0.0226985
0.0210839
0.0207491
0.0212659
0.0226342
0.0242106
0.024435
0.0226903
0.0127007
0.00338589
0.00064792
0.0229707
0.022701
0.0208447
0.0203753
0.0209663
0.0224815
0.0242384
0.0245197
0.0227925
0.0128449
0.0033699
0.000624477
0.0229959
0.0229099
0.0212091
0.0197104
0.0202978
0.02189
0.0240086
0.0244206
0.0229654
0.0134815
0.00343684
0.000576863
0.0227327
0.0217669
0.0160754
0.0133816
0.0146374
0.0183743
0.0220849
0.0225913
0.0197281
0.00875723
0.00209325
0.000356548
0.0224602
0.0202954
0.0147319
0.014409
0.0160334
0.0197948
0.0225595
0.023017
0.0209707
0.010732
0.0028236
0.000548538
0.0223896
0.0200617
0.0150861
0.0150366
0.016647
0.0201269
0.0225809
0.0229597
0.0209264
0.0108549
0.00294006
0.000595432
0.0223727
0.0198758
0.015383
0.0154161
0.0170206
0.0202618
0.0225224
0.0228426
0.0208043
0.0108849
0.00299883
0.000617499
0.022365
0.0197721
0.0155363
0.0156033
0.0171742
0.0202768
0.0224592
0.0227643
0.0207447
0.0109372
0.00304314
0.000631488
0.0223629
0.0197418
0.0156064
0.01568
0.0172239
0.020268
0.0224216
0.0227233
0.0207163
0.0109642
0.0030636
0.000637657
0.0223629
0.0197418
0.0156063
0.01568
0.0172238
0.0202679
0.0224215
0.0227232
0.0207163
0.0109643
0.00306365
0.000637672
0.022365
0.0197721
0.0155362
0.0156032
0.0171739
0.0202766
0.0224589
0.0227641
0.0207446
0.0109374
0.00304328
0.00063153
0.0223727
0.0198758
0.0153829
0.0154158
0.0170201
0.0202614
0.0225221
0.0228422
0.0208042
0.0108852
0.00299906
0.000617566
0.0223896
0.0200617
0.015086
0.0150363
0.0166465
0.0201265
0.0225805
0.0229594
0.0209263
0.0108555
0.00294039
0.000595528
0.0224602
0.0202954
0.0147319
0.0144089
0.016033
0.0197944
0.0225591
0.0230168
0.0209708
0.010733
0.00282409
0.000548672
0.0227327
0.0217669
0.0160757
0.0133817
0.0146372
0.0183739
0.0220845
0.0225911
0.0197284
0.00875821
0.00209371
0.000356675
0.00640422
0.00666945
0.00798063
0.00978221
0.0121858
0.0166803
0.0207408
0.0212138
0.0173944
0.00656276
0.00153377
0.000260397
0.00734696
0.00745675
0.00784796
0.00968243
0.0133618
0.0177466
0.0211611
0.0217012
0.0190466
0.00878405
0.00234376
0.000466133
0.00767911
0.00782622
0.00815133
0.00992382
0.0137874
0.0180738
0.0211927
0.021581
0.0188699
0.00886293
0.00246146
0.000516533
0.00762137
0.00788601
0.00835023
0.010286
0.0141679
0.0182741
0.0211257
0.0213853
0.0185914
0.00878806
0.00249499
0.000535322
0.00750808
0.00787906
0.00846932
0.0105393
0.0143416
0.018325
0.0210513
0.0212663
0.0184657
0.00878889
0.00252383
0.000546633
0.00745647
0.00787813
0.00852762
0.0106589
0.0144134
0.0183358
0.0210091
0.0212088
0.0184135
0.00879661
0.00253826
0.000551714
0.00745646
0.00787812
0.00852761
0.0106589
0.0144134
0.0183357
0.021009
0.0212087
0.0184134
0.00879662
0.00253828
0.000551721
0.00750806
0.00787904
0.00846929
0.0105392
0.0143414
0.0183248
0.021051
0.021266
0.0184654
0.00878891
0.00252389
0.000546651
0.00762133
0.00788597
0.00835019
0.0102859
0.0141677
0.0182738
0.0211254
0.0213849
0.018591
0.00878812
0.0024951
0.000535354
0.00767905
0.0078262
0.00815132
0.0099238
0.0137872
0.0180734
0.0211923
0.0215806
0.0188696
0.00886314
0.00246163
0.000516587
0.00734686
0.00745681
0.00784805
0.00968251
0.0133617
0.0177462
0.0211608
0.0217009
0.0190466
0.00878464
0.00234408
0.000466224
0.0064042
0.00666968
0.0079807
0.0097824
0.0121858
0.01668
0.0207405
0.0212137
0.0173952
0.00656389
0.00153419
0.000260501
0.0012846
0.00374765
0.00783554
0.0107726
0.012699
0.016746
0.0201437
0.0202935
0.0156581
0.00534169
0.00119635
0.00019417
0.00203107
0.00404784
0.00645044
0.00952184
0.0131937
0.0173893
0.0204255
0.0204918
0.0166319
0.00684944
0.00183359
0.00036409
0.00240883
0.00420897
0.0062194
0.00932092
0.0133335
0.0175685
0.0202456
0.0201286
0.0161687
0.00686325
0.0019266
0.000411104
0.00246586
0.00428741
0.0062428
0.00939654
0.0135102
0.0176435
0.0200143
0.0197699
0.0157381
0.00677665
0.00194676
0.000427915
0.00245858
0.00433294
0.00630594
0.00947675
0.0135836
0.01762
0.0198583
0.0195732
0.0155571
0.00676518
0.00196618
0.00043734
0.00245276
0.00435803
0.006348
0.00952599
0.0136156
0.0175999
0.0197835
0.0194861
0.0154892
0.00676824
0.00197675
0.000441549
0.00245275
0.00435802
0.00634798
0.00952597
0.0136156
0.0175999
0.0197834
0.0194859
0.0154891
0.00676822
0.00197675
0.00044155
0.00245858
0.00433292
0.0063059
0.00947669
0.0135835
0.0176198
0.019858
0.0195728
0.0155567
0.00676511
0.00196618
0.000437343
0.00246586
0.00428739
0.00624275
0.00939646
0.0135101
0.0176433
0.0200138
0.0197694
0.0157375
0.00677657
0.00194677
0.000427923
0.00240883
0.00420897
0.00621935
0.00932086
0.0133334
0.0175683
0.0202451
0.020128
0.0161682
0.00686325
0.00192666
0.000411127
0.0020311
0.00404793
0.0064504
0.00952184
0.0131937
0.0173891
0.0204252
0.0204914
0.0166318
0.00684975
0.00183378
0.000364145
0.00128474
0.00374801
0.00783537
0.0107726
0.0126991
0.0167458
0.0201435
0.0202935
0.0156593
0.0053427
0.0011967
0.000194251
0.000954107
0.00392921
0.00870445
0.0125587
0.0142061
0.0173023
0.0199648
0.0196819
0.0136756
0.0041822
0.000855019
0.000128604
0.00115935
0.00337786
0.006389
0.0101598
0.0139145
0.0176607
0.0197066
0.0190008
0.0135207
0.00510842
0.00131384
0.000258748
0.00128781
0.00332215
0.00587075
0.00951265
0.0136686
0.0174511
0.0191068
0.0181971
0.0128652
0.00509224
0.00139424
0.000302895
0.00132547
0.00333265
0.00575452
0.00932771
0.013542
0.017222
0.0186247
0.0176216
0.0124072
0.00502188
0.00141435
0.000319556
0.00133938
0.00335907
0.00574809
0.00926555
0.013449
0.0170444
0.0183557
0.0173376
0.0122265
0.0050121
0.0014307
0.000328074
0.00134571
0.00337796
0.00576212
0.0092536
0.0134094
0.0169589
0.0182379
0.0172211
0.0121646
0.00501572
0.00143952
0.000331723
0.00134571
0.00337795
0.00576209
0.00925355
0.0134093
0.0169588
0.0182378
0.017221
0.0121645
0.00501568
0.00143951
0.000331721
0.00133937
0.00335903
0.00574802
0.00926542
0.0134488
0.0170441
0.0183552
0.017337
0.0122261
0.00501197
0.00143067
0.00032807
0.00132546
0.0033326
0.00575441
0.00932751
0.0135417
0.0172216
0.018624
0.0176208
0.0124066
0.00502171
0.00141432
0.000319553
0.0012878
0.00332211
0.00587061
0.00951243
0.0136684
0.0174508
0.0191061
0.0181963
0.0128645
0.00509211
0.00139424
0.000302902
0.00115938
0.00337789
0.00638886
0.0101595
0.0139144
0.0176604
0.0197061
0.0190002
0.0135204
0.00510854
0.00131394
0.00025878
0.000954269
0.00392957
0.00870426
0.0125585
0.0142063
0.0173023
0.0199647
0.019682
0.0136767
0.00418298
0.000855274
0.000128658
0.000697261
0.00349698
0.00889277
0.0135008
0.0159084
0.0183985
0.0198116
0.0187424
0.0107293
0.00282273
0.000514877
7.14689e-05
0.000930033
0.00310231
0.00633206
0.0104217
0.0144148
0.0176081
0.0185312
0.0167731
0.0100615
0.00350131
0.000864704
0.000169833
0.000991737
0.00297962
0.00566109
0.00942164
0.0135566
0.0167526
0.0173629
0.0154983
0.00944122
0.00351848
0.000947722
0.000210944
0.00101355
0.00294622
0.0054406
0.00900349
0.0130465
0.0160842
0.0166165
0.0147685
0.00907769
0.00348782
0.000973873
0.000227586
0.00102611
0.00294991
0.00537706
0.00883156
0.0127683
0.0157162
0.0162465
0.0144419
0.00894574
0.0034909
0.000989955
0.000235517
0.00103261
0.00295878
0.00536532
0.00877371
0.0126543
0.0155621
0.0160955
0.0143176
0.00890599
0.00349853
0.000997872
0.000238743
0.0010326
0.00295876
0.00536528
0.00877363
0.0126542
0.015562
0.0160953
0.0143174
0.00890586
0.00349849
0.000997861
0.000238741
0.00102609
0.00294986
0.00537694
0.00883134
0.012768
0.0157157
0.0162459
0.0144413
0.00894534
0.00349078
0.000989926
0.000235511
0.00101353
0.00294614
0.0054404
0.00900314
0.013046
0.0160834
0.0166157
0.0147676
0.0090771
0.00348765
0.000973837
0.000227581
0.000991721
0.00297953
0.00566085
0.00942119
0.0135561
0.0167518
0.0173619
0.0154972
0.00944055
0.00351833
0.000947707
0.000210945
0.000930053
0.0031023
0.00633181
0.0104212
0.0144143
0.0176076
0.0185305
0.0167723
0.0100611
0.00350134
0.000864757
0.000169852
0.000697437
0.00349741
0.0088926
0.0135003
0.0159084
0.0183984
0.0198114
0.0187424
0.0107303
0.00282326
0.000515031
7.14989e-05
0.000515811
0.00294248
0.00833286
0.013847
0.0167731
0.0187499
0.0192847
0.0165986
0.00684958
0.00155128
0.000254942
3.33267e-05
0.000781151
0.00273295
0.005851
0.0099665
0.0139296
0.0165951
0.0164992
0.0134178
0.00676963
0.00220432
0.000527036
0.000103442
0.000840008
0.00263369
0.00516592
0.00869165
0.0124421
0.0148481
0.0147672
0.0120083
0.00644101
0.00229387
0.000612074
0.000139821
0.000857352
0.00259171
0.0049097
0.00814807
0.0116422
0.0138963
0.0138713
0.011328
0.00623709
0.00230596
0.000642736
0.000155654
0.000866876
0.00258478
0.00482193
0.00792495
0.0112756
0.0134633
0.0134689
0.0110487
0.00616949
0.00232157
0.000658532
0.000162922
0.000871778
0.00258747
0.0047982
0.00784764
0.011136
0.0132944
0.0133151
0.0109503
0.00615342
0.00233211
0.000665561
0.000165751
0.000871771
0.00258745
0.00479815
0.00784754
0.0111358
0.0132942
0.0133149
0.0109501
0.00615332
0.00233207
0.000665552
0.000165749
0.000866856
0.00258471
0.00482178
0.00792467
0.0112751
0.0134627
0.0134683
0.0110481
0.00616918
0.00232147
0.000658507
0.000162917
0.000857324
0.0025916
0.00490945
0.0081476
0.0116414
0.0138954
0.0138703
0.0113271
0.00623663
0.00230583
0.000642704
0.000155648
0.000839984
0.00263358
0.0051656
0.00869103
0.0124411
0.0148469
0.0147659
0.0120072
0.00644051
0.00229375
0.000612057
0.00013982
0.000781159
0.00273292
0.00585069
0.00996577
0.0139286
0.016594
0.016498
0.0134168
0.00676933
0.00220433
0.000527066
0.000103453
0.000515933
0.00294287
0.00833284
0.0138463
0.0167726
0.0187496
0.0192844
0.0165986
0.00685019
0.00155158
0.000255021
3.33408e-05
0.000332294
0.00207125
0.0067236
0.0131434
0.0165779
0.0183615
0.0177074
0.0113877
0.00349457
0.000696661
0.000106146
1.3557e-05
0.000612213
0.0022083
0.00494241
0.00874101
0.0122354
0.0141269
0.0133716
0.00941523
0.00420928
0.00128051
0.000298805
5.8708e-05
0.00068015
0.00218883
0.00439214
0.0074373
0.010459
0.0121132
0.0115533
0.00848631
0.00417348
0.00141657
0.000377304
8.84661e-05
0.000700788
0.00216688
0.00416884
0.00690087
0.00965189
0.0111783
0.0107367
0.00803518
0.00410356
0.00145654
0.000408519
0.000102505
0.000710122
0.00216245
0.00408771
0.00668559
0.00930588
0.0107758
0.0103938
0.00785646
0.00408574
0.00147919
0.000423253
0.000108908
0.000714324
0.00216407
0.00406426
0.00661203
0.00917916
0.0106269
0.0102697
0.00779757
0.00408611
0.00149051
0.000429303
0.000111332
0.000714316
0.00216404
0.0040642
0.00661193
0.00917901
0.0106267
0.0102695
0.00779741
0.00408604
0.00149048
0.000429296
0.00011133
0.000710101
0.00216238
0.00408754
0.00668529
0.00930541
0.0107752
0.0103932
0.007856
0.00408552
0.00147911
0.000423234
0.000108904
0.000700758
0.00216677
0.00416858
0.00690038
0.00965112
0.0111773
0.0107357
0.00803448
0.00410324
0.00145644
0.000408496
0.000102501
0.000680123
0.00218871
0.00439182
0.00743663
0.0104579
0.0121119
0.0115521
0.00848545
0.00417315
0.00141649
0.000377291
8.84649e-05
0.000612212
0.00220827
0.00494213
0.0087402
0.0122342
0.0141254
0.0133702
0.00941443
0.00420911
0.00128053
0.000298824
5.87145e-05
0.000332376
0.00207163
0.00672385
0.0131425
0.0165773
0.018361
0.0177069
0.0113877
0.00349492
0.000696806
0.00010618
1.35628e-05
0.000195655
0.00123399
0.00446962
0.0105417
0.0146202
0.0161799
0.0129606
0.00573314
0.00145619
0.000263522
3.90264e-05
5.09249e-06
0.00044421
0.00163542
0.00378596
0.0069521
0.00967482
0.0109523
0.00959458
0.00591356
0.00239498
0.000689118
0.000158721
3.11995e-05
0.000518768
0.00170354
0.00347818
0.00592035
0.00814188
0.00920893
0.00833946
0.00559576
0.00254274
0.000830362
0.000223045
5.35018e-05
0.000544017
0.00171291
0.00333307
0.00549738
0.00749137
0.00846162
0.00777241
0.00538198
0.00256236
0.000881004
0.000251115
6.50398e-05
0.000554504
0.00171779
0.00327787
0.00532931
0.00722291
0.00815237
0.00753852
0.00529716
0.00257639
0.000905328
0.000263979
7.03882e-05
0.000558688
0.00172137
0.003262
0.00527308
0.00712811
0.00804215
0.00745688
0.00527184
0.00258601
0.000915845
0.000269
7.23903e-05
0.000558682
0.00172134
0.00326195
0.00527298
0.00712797
0.00804198
0.00745672
0.00527173
0.00258596
0.000915828
0.000268995
7.23892e-05
0.000554485
0.00171772
0.00327772
0.00532903
0.0072225
0.00815188
0.00753805
0.00529683
0.00257624
0.000905279
0.000263966
7.03852e-05
0.00054399
0.0017128
0.00333283
0.00549693
0.0074907
0.00846082
0.00777167
0.00538149
0.00256214
0.00088094
0.0002511
6.50367e-05
0.000518744
0.00170344
0.00347791
0.00591975
0.00814096
0.00920786
0.00833852
0.00559518
0.00254253
0.000830313
0.000223037
5.35011e-05
0.000444209
0.0016354
0.00378576
0.0069514
0.00967367
0.010951
0.00959352
0.0059131
0.00239491
0.000689135
0.000158734
3.12035e-05
0.000195717
0.00123432
0.00447015
0.0105411
0.0146191
0.0161789
0.0129599
0.00573327
0.00145637
0.000263584
3.90396e-05
5.09466e-06
9.36234e-05
0.000594755
0.00230826
0.00638905
0.00932691
0.0102265
0.00644444
0.0022933
0.000509272
8.894e-05
1.34884e-05
1.86202e-06
0.000299325
0.00111469
0.00262413
0.00494015
0.00679205
0.00753759
0.00605762
0.00334865
0.00124994
0.000347206
7.9462e-05
1.55804e-05
0.000372348
0.00124366
0.00256791
0.00438075
0.00587949
0.0065096
0.00556711
0.00342782
0.0014539
0.000465008
0.000126891
3.09089e-05
0.000399889
0.00128024
0.00251149
0.00412485
0.00546894
0.00604194
0.00527974
0.00338839
0.00151551
0.000513089
0.000149708
3.97059e-05
0.00041125
0.00129483
0.00248788
0.00402073
0.00529838
0.00584673
0.0051564
0.00337138
0.0015441
0.000535143
0.000160217
4.3915e-05
0.000415527
0.00130103
0.00248182
0.00398659
0.00523951
0.00577845
0.00511447
0.00336889
0.001557
0.000543982
0.000164218
4.54937e-05
0.000415522
0.00130101
0.00248177
0.00398651
0.0052394
0.00577833
0.00511435
0.00336881
0.00155696
0.000543971
0.000164215
4.5493e-05
0.000411234
0.00129477
0.00248776
0.0040205
0.00529806
0.00584635
0.00515606
0.00337116
0.00154401
0.000535113
0.000160209
4.39131e-05
0.000399867
0.00128016
0.0025113
0.00412449
0.00546842
0.00604133
0.00527922
0.00338807
0.00151538
0.000513052
0.000149699
3.97041e-05
0.000372329
0.00124358
0.00256771
0.00438029
0.0058788
0.0065088
0.00556646
0.00342747
0.00145379
0.000464983
0.000126888
3.09088e-05
0.000299322
0.00111468
0.00262404
0.0049397
0.00679124
0.00753664
0.006057
0.00334844
0.00124993
0.000347222
7.94701e-05
1.55828e-05
9.3649e-05
0.000594935
0.00230878
0.00638909
0.00932621
0.0102256
0.00644423
0.00229342
0.000509357
8.89635e-05
1.34932e-05
1.86282e-06
4.81511e-05
0.000280278
0.00102276
0.00295744
0.0044536
0.00468468
0.00247194
0.000766196
0.000160006
2.86928e-05
4.61202e-06
6.81034e-07
0.000190443
0.000711109
0.00166387
0.00314331
0.00423861
0.00457655
0.00340519
0.00172315
0.000606562
0.000165232
3.75652e-05
7.32748e-06
0.000252174
0.000854097
0.00177034
0.0030112
0.00393976
0.00425809
0.00342409
0.00194911
0.000785655
0.000250562
6.94839e-05
1.70087e-05
0.000278406
0.000904995
0.00178296
0.00291083
0.00375597
0.00405126
0.00334909
0.00199971
0.000853329
0.000289507
8.65484e-05
2.32358e-05
0.000289565
0.00092574
0.0017858
0.00286592
0.00367399
0.00395824
0.00331028
0.00201954
0.000883581
0.000307374
9.46124e-05
2.63428e-05
0.000293697
0.000933725
0.00178809
0.00285166
0.00364597
0.00392583
0.00329772
0.00202875
0.000895825
0.000314279
9.76644e-05
2.75209e-05
0.000293693
0.000933709
0.00178806
0.0028516
0.00364589
0.00392574
0.00329764
0.0020287
0.000895805
0.000314273
9.76626e-05
2.75204e-05
0.000289553
0.000925695
0.0017857
0.00286574
0.00367375
0.00395798
0.00331006
0.00201941
0.000883528
0.000307357
9.4608e-05
2.63417e-05
0.00027839
0.000904933
0.00178282
0.00291057
0.00375561
0.00405084
0.00334875
0.00199952
0.000853259
0.000289487
8.65438e-05
2.32348e-05
0.00025216
0.000854043
0.0017702
0.00301089
0.00393931
0.00425758
0.00342371
0.00194892
0.000785601
0.000250551
6.94827e-05
1.70088e-05
0.00019044
0.000711107
0.00166384
0.00314311
0.0042382
0.00457606
0.00340491
0.00172309
0.000606573
0.000165245
3.75703e-05
7.32888e-06
4.81614e-05
0.000280367
0.00102305
0.0029578
0.00445359
0.00468448
0.00247198
0.000766271
0.000160039
2.87012e-05
4.61374e-06
6.81334e-07
2.31381e-05
0.000124916
0.000405154
0.00110519
0.00169791
0.00167788
0.000779624
0.000229437
4.88347e-05
9.29007e-06
1.59071e-06
2.49184e-07
0.000113657
0.000426308
0.000977937
0.00181348
0.0023878
0.00249044
0.00173158
0.000817366
0.000277144
7.44554e-05
1.67595e-05
3.2541e-06
0.000161529
0.000553166
0.00114206
0.00192206
0.00245136
0.00257051
0.00194184
0.00103436
0.000405436
0.000130413
3.6486e-05
8.88073e-06
0.000183913
0.000605515
0.00119168
0.00192587
0.00242139
0.0025375
0.00197845
0.00110938
0.000461477
0.000158871
4.83334e-05
1.29684e-05
0.000193833
0.000627848
0.00121049
0.00192282
0.0024017
0.0025153
0.00198808
0.00114087
0.000486849
0.000172229
5.41524e-05
1.51096e-05
0.000197522
0.000636272
0.00121792
0.00192257
0.00239512
0.00250752
0.0019922
0.00115334
0.000496699
0.000177329
5.63689e-05
1.59349e-05
0.000197519
0.000636261
0.0012179
0.00192252
0.00239507
0.00250746
0.00199215
0.00115331
0.000496688
0.000177326
5.6368e-05
1.59346e-05
0.000193824
0.000627817
0.00121042
0.0019227
0.00240154
0.00251513
0.00198795
0.0011408
0.000486821
0.00017222
5.41501e-05
1.51091e-05
0.000183902
0.000605472
0.00119158
0.0019257
0.00242116
0.00253725
0.00197825
0.00110928
0.000461442
0.000158862
4.83313e-05
1.29679e-05
0.000161519
0.000553131
0.00114198
0.00192189
0.00245111
0.00257023
0.00194164
0.00103428
0.000405413
0.00013041
3.6486e-05
8.88094e-06
0.000113654
0.000426305
0.00097794
0.00181342
0.00238765
0.00249025
0.0017315
0.000817362
0.000277159
7.4464e-05
1.67625e-05
3.25485e-06
2.31422e-05
0.000124952
0.00040529
0.00110544
0.00169808
0.00167792
0.000779684
0.000229471
4.88463e-05
9.29307e-06
1.59135e-06
2.49299e-07
1.12013e-05
5.56884e-05
0.000154221
0.000362761
0.000545769
0.000500495
0.000221779
6.66406e-05
1.51336e-05
3.04961e-06
5.49721e-07
9.01805e-08
6.4143e-05
0.000241881
0.000539625
0.000963502
0.00123785
0.00123327
0.000807443
0.00036202
0.000119762
3.16906e-05
7.05971e-06
1.3701e-06
9.82859e-05
0.000339199
0.000691749
0.00113922
0.00141857
0.00143087
0.00101926
0.000518
0.000201573
6.54376e-05
1.82577e-05
4.38531e-06
0.000115719
0.000384465
0.000750417
0.00119068
0.00146184
0.00147759
0.00108927
0.000583696
0.000241809
8.46925e-05
2.5898e-05
6.86868e-06
0.000123781
0.000404757
0.000774808
0.00120943
0.00147532
0.001492
0.00111668
0.000612709
0.000260561
9.40604e-05
2.98332e-05
8.24002e-06
0.000126818
0.000412441
0.000784069
0.00121657
0.00148032
0.00149717
0.00112695
0.000623832
0.000267752
9.76481e-05
3.13532e-05
8.77892e-06
0.000126816
0.000412434
0.000784053
0.00121654
0.00148029
0.00149713
0.00112693
0.000623818
0.000267747
9.76464e-05
3.13527e-05
8.7788e-06
0.000123776
0.000404737
0.000774766
0.00120935
0.00147522
0.0014919
0.0011166
0.000612672
0.000260548
9.40563e-05
2.9832e-05
8.23975e-06
0.000115712
0.000384438
0.00075036
0.00119058
0.00146171
0.00147745
0.00108917
0.00058365
0.000241793
8.46883e-05
2.58971e-05
6.86851e-06
9.828e-05
0.000339178
0.000691704
0.00113913
0.00141845
0.00143074
0.00101918
0.000517967
0.000201566
6.54371e-05
1.82581e-05
4.3855e-06
6.41406e-05
0.000241878
0.000539631
0.0009635
0.00123782
0.00123322
0.000807434
0.000362032
0.000119774
3.16958e-05
7.06131e-06
1.37047e-06
1.12023e-05
5.57014e-05
0.000154271
0.000362869
0.000545877
0.000500549
0.00022181
6.66534e-05
1.51377e-05
3.0507e-06
5.4996e-07
9.02244e-08
5.15674e-06
2.44683e-05
5.92914e-05
0.000116435
0.000162507
0.000138481
6.21206e-05
1.96802e-05
4.75937e-06
1.0014e-06
1.87863e-07
3.19697e-08
3.40369e-05
0.000129623
0.000280926
0.000476456
0.00059592
0.000561908
0.00034904
0.000150803
4.88268e-05
1.27194e-05
2.8178e-06
5.49477e-07
5.69843e-05
0.000197801
0.000395624
0.00062882
0.000765346
0.000736716
0.000500491
0.000248098
9.67878e-05
3.14304e-05
8.65393e-06
2.04493e-06
6.96329e-05
0.00023271
0.000447106
0.00068816
0.00082656
0.000800132
0.000563602
0.000295102
0.000123258
4.35718e-05
1.32121e-05
3.44005e-06
7.57203e-05
0.000249105
0.000469978
0.00071285
0.000851004
0.000825524
0.000590849
0.000316823
0.000136064
4.9754e-05
1.56892e-05
4.25356e-06
7.80493e-05
0.000255393
0.000478678
0.000722089
0.00086
0.000834793
0.000601053
0.000325117
0.000140987
5.21497e-05
1.66638e-05
4.58002e-06
7.80481e-05
0.000255389
0.000478669
0.000722074
0.000859981
0.000834774
0.00060104
0.00032511
0.000140984
5.21489e-05
1.66636e-05
4.57996e-06
7.5717e-05
0.000249093
0.000469953
0.000712809
0.000850953
0.000825473
0.000590813
0.000316806
0.000136058
4.97521e-05
1.56887e-05
4.25344e-06
6.96286e-05
0.000232694
0.000447074
0.000688105
0.000826492
0.000800063
0.000563557
0.000295082
0.000123252
4.35702e-05
1.32118e-05
3.43999e-06
5.69807e-05
0.000197789
0.0003956
0.000628778
0.000765291
0.00073666
0.000500459
0.000248087
9.67864e-05
3.14308e-05
8.6543e-06
2.04506e-06
3.40352e-05
0.00012962
0.00028093
0.000476466
0.000595925
0.00056191
0.000349051
0.000150815
4.88337e-05
1.27222e-05
2.81857e-06
5.49643e-07
5.15694e-06
2.44725e-05
5.93076e-05
0.000116471
0.000162548
0.000138506
6.21325e-05
1.96849e-05
4.76086e-06
1.0018e-06
1.87952e-07
3.1986e-08
2.28634e-06
1.04551e-05
2.29573e-05
3.85139e-05
4.86616e-05
3.87385e-05
1.78267e-05
5.89545e-06
1.4904e-06
3.24514e-07
6.29462e-08
1.10462e-08
1.69858e-05
6.54733e-05
0.000138081
0.000220843
0.000266997
0.000237604
0.000140891
5.90558e-05
1.87274e-05
4.82934e-06
1.07159e-06
2.10846e-07
3.15132e-05
0.000110101
0.000215278
0.000326931
0.000386663
0.000355328
0.000233542
0.000114535
4.4632e-05
1.43272e-05
3.87187e-06
9.00882e-07
4.01573e-05
0.000134934
0.000254004
0.000375566
0.000439193
0.000407428
0.000278319
0.000144777
6.0882e-05
2.14258e-05
6.378e-06
1.62667e-06
4.44789e-05
0.0001471
0.00027217
0.000397386
0.000462243
0.000430377
0.000298905
0.000159375
6.91041e-05
2.52382e-05
7.81982e-06
2.07344e-06
4.61597e-05
0.00015184
0.000279171
0.000405636
0.000470855
0.000438923
0.000306699
0.000164987
7.23001e-05
2.67412e-05
8.39896e-06
2.2566e-06
4.6159e-05
0.000151838
0.000279165
0.000405628
0.000470846
0.000438913
0.000306693
0.000164984
7.2299e-05
2.67408e-05
8.39886e-06
2.25657e-06
4.4477e-05
0.000147093
0.000272156
0.000397365
0.000462217
0.000430353
0.00029889
0.000159367
6.91015e-05
2.52374e-05
7.81961e-06
2.07339e-06
4.01548e-05
0.000134925
0.000253987
0.00037554
0.000439162
0.000407398
0.0002783
0.00014477
6.08797e-05
2.14253e-05
6.37792e-06
1.62666e-06
3.15111e-05
0.000110095
0.000215267
0.000326913
0.000386641
0.000355308
0.000233533
0.000114533
4.46324e-05
1.43277e-05
3.87213e-06
9.00961e-07
1.69846e-05
6.54707e-05
0.000138083
0.000220851
0.000267007
0.000237614
0.000140902
5.90633e-05
1.87311e-05
4.83061e-06
1.07192e-06
2.10915e-07
2.28632e-06
1.04563e-05
2.29621e-05
3.85245e-05
4.86745e-05
3.87472e-05
1.78309e-05
5.89712e-06
1.49093e-06
3.24658e-07
6.29779e-08
1.10521e-08
9.60634e-07
4.26348e-06
8.66154e-06
1.28913e-05
1.48784e-05
1.11327e-05
5.17733e-06
1.7552e-06
4.59084e-07
1.03134e-07
2.06023e-08
3.71204e-09
7.99052e-06
3.10842e-05
6.39529e-05
9.60079e-05
0.000111563
9.36452e-05
5.31784e-05
2.16936e-05
6.77953e-06
1.74644e-06
3.90422e-07
7.76792e-08
1.6586e-05
5.85337e-05
0.000112141
0.000162014
0.000185205
0.000163134
0.00010469
5.0821e-05
1.95715e-05
6.16265e-06
1.63488e-06
3.75641e-07
2.21651e-05
7.51132e-05
0.000138666
0.000196062
0.000222131
0.000198421
0.000132928
6.89072e-05
2.88468e-05
9.98155e-06
2.90446e-06
7.26558e-07
2.50636e-05
8.35638e-05
0.000151691
0.000212222
0.000239391
0.000214972
0.000146592
7.80549e-05
3.3795e-05
1.21561e-05
3.67804e-06
9.542e-07
2.62093e-05
8.69101e-05
0.00015679
0.000218435
0.00024596
0.000221256
0.00015184
8.16181e-05
3.57503e-05
1.30309e-05
3.99555e-06
1.04952e-06
2.62089e-05
8.69086e-05
0.000156787
0.000218431
0.000245956
0.000221252
0.000151838
8.16169e-05
3.57498e-05
1.30307e-05
3.99551e-06
1.04951e-06
2.50625e-05
8.356e-05
0.000151684
0.000212213
0.00023938
0.000214962
0.000146586
7.8052e-05
3.37939e-05
1.21558e-05
3.67796e-06
9.54182e-07
2.21637e-05
7.51084e-05
0.000138657
0.00019605
0.000222118
0.000198409
0.000132922
6.89046e-05
2.88461e-05
9.98143e-06
2.90446e-06
7.26562e-07
1.65848e-05
5.85299e-05
0.000112136
0.000162007
0.000185198
0.000163129
0.000104688
5.08214e-05
1.95722e-05
6.16306e-06
1.63503e-06
3.75681e-07
7.98984e-06
3.10825e-05
6.39528e-05
9.6012e-05
0.000111569
9.36529e-05
5.31851e-05
2.16975e-05
6.7812e-06
1.74697e-06
3.90554e-07
7.77059e-08
9.60583e-07
4.26355e-06
8.66285e-06
1.28944e-05
1.48822e-05
1.11355e-05
5.17878e-06
1.75579e-06
4.59271e-07
1.03184e-07
2.06132e-08
3.71405e-09
3.86139e-07
1.65483e-06
3.12087e-06
4.24905e-06
4.5271e-06
3.20726e-06
1.49048e-06
5.14222e-07
1.3871e-07
3.20864e-08
6.57702e-09
1.2119e-09
3.56022e-06
1.38928e-05
2.77418e-05
3.91054e-05
4.34443e-05
3.44178e-05
1.879e-05
7.51134e-06
2.33659e-06
6.05777e-07
1.36854e-07
2.75391e-08
8.2814e-06
2.96246e-05
5.58995e-05
7.70411e-05
8.49154e-05
7.18728e-05
4.50171e-05
2.14612e-05
8.09911e-06
2.49887e-06
6.52938e-07
1.48628e-07
1.16673e-05
4.00608e-05
7.28969e-05
9.8805e-05
0.000108256
9.34623e-05
6.14923e-05
3.15105e-05
1.29686e-05
4.3837e-06
1.24782e-06
3.07075e-07
1.34991e-05
4.55963e-05
8.15987e-05
0.000109639
0.000119733
0.00010413
6.98787e-05
3.6875e-05
1.57256e-05
5.52342e-06
1.63101e-06
4.15132e-07
1.42346e-05
4.78234e-05
8.50605e-05
0.000113877
0.00012418
0.000108256