/*--------------------------------*- C++ -*----------------------------------*\
| =========                 |                                                 |
| \\      /  F ield         | OpenFOAM: The Open Source CFD Toolbox           |
|  \\    /   O peration     | Version:  2.3.1                                 |
|   \\  /    A nd           | Web:      www.OpenFOAM.org                      |
|    \\/     M anipulation  |                                                 |
\*---------------------------------------------------------------------------*/
FoamFile
{
    version     2.0;
    format      ascii;
    class       volVectorField;
    location    "5";
    object      U;
}
// * * * * * * * * * * * * * * * * * * * * * * * * * * * * * * * * * * * * * //

dimensions      [0 1 -1 0 0 0 0];

internalField   nonuniform List<vector> 
37758
(
(0.0840582 7.07103e-05 0.000682398)
(0.0759363 -0.000684069 -0.00108983)
(0.0805585 0.00129643 -0.00422249)
(0.089805 0.00247044 -0.00205718)
(0.0830379 0.00120364 0.000550625)
(0.0737393 0.000739264 0.00236695)
(0.0576864 0.00182809 0.00518687)
(0.0377774 0.00131212 0.00373524)
(0.0276528 0.000367771 1.97663e-05)
(0.0236591 0.000383104 -0.00127842)
(0.0209688 0.000509072 -0.000659794)
(0.0182318 0.000479298 6.10708e-05)
(0.0831914 -8.31192e-05 0.000255554)
(0.0781481 -0.000833351 -0.00116951)
(0.0820435 0.0021572 -0.00296822)
(0.0889923 0.00301686 -0.00139457)
(0.0837347 0.000832233 0.00157015)
(0.071162 0.000690143 0.0034158)
(0.0559667 0.00221659 0.00393876)
(0.0414606 0.00130894 0.00259891)
(0.0318531 5.02347e-05 0.000831206)
(0.0260301 0.000174963 0.000240661)
(0.0219193 0.000520109 0.000429633)
(0.018563 0.000610441 0.000592553)
(0.0829582 -0.000128129 -3.07706e-05)
(0.0790347 -1.37695e-05 -0.00123334)
(0.0817676 0.00150663 -0.00255854)
(0.0878532 0.00170611 -0.00132802)
(0.08339 0.000468276 0.00161689)
(0.0702804 0.000371684 0.00336451)
(0.0556181 0.0013811 0.00346068)
(0.0425257 0.00127211 0.00231899)
(0.0330514 0.000592662 0.00103598)
(0.0266956 0.000375719 0.000588355)
(0.0221609 0.000394185 0.000662602)
(0.0186151 0.000421724 0.000712682)
(0.0826601 -5.88483e-05 -0.000180891)
(0.0797447 2.06705e-05 -0.00135408)
(0.0822741 0.00107618 -0.00245214)
(0.0872252 0.00135518 -0.0011901)
(0.0826194 0.00054185 0.00169799)
(0.069405 0.000423978 0.00324954)
(0.0549026 0.00108547 0.00314224)
(0.0424925 0.00107119 0.00215435)
(0.0334377 0.000553332 0.00115147)
(0.0270193 0.000310179 0.000773293)
(0.0222779 0.000263973 0.000768212)
(0.018623 0.000266041 0.0007513)
(0.0825697 -4.74532e-05 -0.000260911)
(0.0800592 0.000103235 -0.00141488)
(0.0822767 0.000533738 -0.00241325)
(0.0867114 0.000530709 -0.00117255)
(0.0822038 0.000118554 0.00164747)
(0.0692013 6.68222e-05 0.00311954)
(0.0549147 0.000421961 0.00299713)
(0.0427027 0.000517134 0.00210815)
(0.0336703 0.000305877 0.00119508)
(0.0271702 0.000168413 0.000821559)
(0.0223456 0.000128996 0.000786725)
(0.0186498 0.000128304 0.000752389)
(0.0825173 -6.84484e-06 -0.00029455)
(0.0802126 3.48683e-05 -0.001446)
(0.0823749 0.00019323 -0.00241202)
(0.0865464 0.000253562 -0.00117296)
(0.0819936 0.000147992 0.00161248)
(0.0690794 0.000132141 0.00305326)
(0.0548806 0.000245315 0.00293495)
(0.0427305 0.000257543 0.00209441)
(0.0337139 0.000156473 0.00121642)
(0.0271978 8.56694e-05 0.000842198)
(0.0223503 5.84899e-05 0.000794117)
(0.0186452 5.02136e-05 0.000751996)
(0.0825173 6.43619e-06 -0.000294564)
(0.0802126 -3.55984e-05 -0.00144601)
(0.0823749 -0.000194259 -0.00241204)
(0.0865465 -0.000254859 -0.00117302)
(0.0819939 -0.000149578 0.00161243)
(0.0690797 -0.000133531 0.0030532)
(0.054881 -0.000246359 0.0029349)
(0.042731 -0.000259097 0.0020944)
(0.0337145 -0.0001589 0.00121642)
(0.0271983 -8.83573e-05 0.000842185)
(0.0223508 -6.07915e-05 0.000794086)
(0.0186456 -5.18025e-05 0.000751966)
(0.0825697 4.70812e-05 -0.000260943)
(0.0800592 -0.000103889 -0.00141491)
(0.0822765 -0.000534638 -0.00241334)
(0.0867116 -0.00053188 -0.00117274)
(0.0822045 -0.000120019 0.00164727)
(0.0692021 -6.80847e-05 0.00311934)
(0.0549159 -0.000422909 0.00299697)
(0.0427043 -0.000518577 0.00210812)
(0.0336718 -0.000308108 0.0011951)
(0.0271715 -0.000170866 0.000821514)
(0.0223468 -0.000131086 0.000786627)
(0.018651 -0.000129736 0.000752301)
(0.0826601 5.85473e-05 -0.000180947)
(0.0797448 -2.11571e-05 -0.00135413)
(0.0822738 -0.00107681 -0.00245225)
(0.0872255 -0.00135609 -0.00119037)
(0.0826206 -0.000543078 0.00169771)
(0.0694063 -0.000425002 0.00324926)
(0.0549045 -0.00108624 0.00314202)
(0.042495 -0.00107244 0.00215431)
(0.0334401 -0.000555198 0.00115148)
(0.0270213 -0.00031218 0.000773207)
(0.0222798 -0.000265657 0.000768059)
(0.0186249 -0.000267183 0.000751174)
(0.0829582 0.000127898 -3.08436e-05)
(0.0790349 1.34704e-05 -0.00123338)
(0.0817672 -0.00150694 -0.00255865)
(0.0878535 -0.0017067 -0.00132834)
(0.0833913 -0.000469158 0.00161655)
(0.070282 -0.000372371 0.00336413)
(0.0556204 -0.00138159 0.0034604)
(0.0425286 -0.00127302 0.00231897)
(0.0330541 -0.000593962 0.00103601)
(0.026698 -0.000377074 0.000588227)
(0.0221632 -0.000395314 0.000662387)
(0.0186175 -0.000422493 0.000712521)
(0.0831914 8.29787e-05 0.000255452)
(0.0781483 0.000833202 -0.00116951)
(0.082043 -0.00215717 -0.00296829)
(0.0889925 -0.0030171 -0.0013949)
(0.0837361 -0.000832826 0.00156982)
(0.0711637 -0.000690564 0.00341537)
(0.0559695 -0.0022168 0.00393843)
(0.0414639 -0.00130955 0.00259894)
(0.0318559 -5.10598e-05 0.000831242)
(0.0260327 -0.000175673 0.000240475)
(0.021922 -0.000520636 0.000429367)
(0.0185658 -0.000610801 0.000592372)
(0.0840581 -7.07384e-05 0.000682285)
(0.0759369 0.000684032 -0.00108977)
(0.0805578 -0.00129633 -0.00422237)
(0.089805 -0.00247041 -0.00205751)
(0.0830393 -0.00120383 0.000550353)
(0.0737405 -0.000739385 0.00236653)
(0.0576894 -0.00182805 0.00518636)
(0.0377815 -0.00131233 0.00373531)
(0.0276562 -0.000368043 1.99747e-05)
(0.023662 -0.000383242 -0.0012785)
(0.0209716 -0.000509139 -0.000660015)
(0.0182348 -0.00047935 6.08968e-05)
(0.0836179 -0.000352915 0.00222071)
(0.0791983 -0.000804808 0.00312884)
(0.079422 0.00211229 -0.00497737)
(0.0911087 0.00304592 -0.000875705)
(0.0888008 0.00164675 0.00686429)
(0.0753321 0.00127913 0.00876251)
(0.0640598 0.00147045 0.0102176)
(0.0575251 6.17993e-05 0.00980053)
(0.0497098 -0.00030187 0.00697206)
(0.0374752 0.000626909 0.00439368)
(0.0270045 0.000892349 0.00295428)
(0.0206011 0.000613778 0.00212526)
(0.082932 -0.000395647 0.00212421)
(0.0797327 -0.000760769 0.000691983)
(0.0833006 0.00277675 -0.00275492)
(0.0922803 0.00351607 0.0020895)
(0.0882017 0.0013132 0.00793174)
(0.0752986 0.000837685 0.0098974)
(0.0639924 0.00115333 0.0106888)
(0.0537043 -8.82376e-05 0.00947735)
(0.0424269 -0.000100843 0.00689298)
(0.0319749 0.0009216 0.0048169)
(0.0246065 0.00108723 0.00346756)
(0.0198684 0.000778764 0.00255032)
(0.0827696 -0.000271978 0.00193981)
(0.0802539 -1.11666e-06 0.000659522)
(0.083605 0.00170671 -0.00159361)
(0.0912882 0.00182724 0.00224332)
(0.0876953 0.000633257 0.00752982)
(0.0749279 0.000248738 0.0099612)
(0.0630967 0.00082733 0.0105938)
(0.0523201 0.000862626 0.00911716)
(0.0409505 0.000620758 0.00675655)
(0.0310207 0.000592271 0.00490562)
(0.024152 0.000527553 0.00360287)
(0.0196456 0.000445805 0.00268452)
(0.0825279 -0.000145471 0.00187809)
(0.0809359 3.72434e-05 0.000687712)
(0.0843198 0.00113641 -0.000890515)
(0.0906941 0.00139013 0.0025797)
(0.0869962 0.000608826 0.00758323)
(0.0741225 0.000281018 0.0101222)
(0.0619349 0.000741447 0.010508)
(0.0515859 0.000909003 0.00895281)
(0.0408349 0.000626428 0.00682134)
(0.0310713 0.000422246 0.00503679)
(0.0241191 0.000318024 0.00366316)
(0.019575 0.000273032 0.00270055)
(0.0824438 -8.73943e-05 0.00183869)
(0.0812751 9.72625e-05 0.00074385)
(0.0844121 0.000551626 -0.000591762)
(0.0901673 0.00053212 0.00261838)
(0.0865997 0.000131863 0.00746073)
(0.0738918 -1.35133e-05 0.010044)
(0.0617542 0.000257769 0.0103827)
(0.051584 0.000447903 0.00885893)
(0.0409498 0.000337136 0.00683814)
(0.0311697 0.000205398 0.00507647)
(0.0241594 0.000142673 0.00366877)
(0.0195866 0.000128077 0.00268649)
(0.0824002 -2.08172e-05 0.00182336)
(0.0814412 3.5675e-05 0.00077626)
(0.0845364 0.000194532 -0.00046293)
(0.0899961 0.000241438 0.00263717)
(0.086405 0.000138755 0.00741488)
(0.0737531 9.57669e-05 0.0100001)
(0.061641 0.00018871 0.0103137)
(0.0515355 0.000241553 0.00881311)
(0.0409518 0.000173674 0.00684586)
(0.0311785 9.99962e-05 0.00509649)
(0.0241556 6.26765e-05 0.00367232)
(0.019579 4.94999e-05 0.00267831)
(0.0824002 2.04947e-05 0.00182334)
(0.0814412 -3.62327e-05 0.000776259)
(0.0845364 -0.000195421 -0.000462999)
(0.0899961 -0.000242585 0.002637)
(0.0864052 -0.000140144 0.00741478)
(0.0737533 -9.70294e-05 0.0100001)
(0.0616413 -0.00018956 0.0103136)
(0.0515359 -0.000242757 0.008813)
(0.0409522 -0.000175771 0.0068458)
(0.0311789 -0.000102376 0.00509644)
(0.024156 -6.45998e-05 0.00367227)
(0.0195793 -5.07118e-05 0.00267825)
(0.0824438 8.70983e-05 0.00183865)
(0.0812751 -9.77591e-05 0.000743849)
(0.0844121 -0.000552405 -0.000591989)
(0.0901675 -0.000533158 0.00261787)
(0.0866005 -0.000133147 0.00746043)
(0.0738925 1.23688e-05 0.0100438)
(0.0617549 -0.000258532 0.0103823)
(0.0515851 -0.000449018 0.0088586)
(0.0409511 -0.000339063 0.00683796)
(0.0311709 -0.000207559 0.00507632)
(0.0241604 -0.000144403 0.00366858)
(0.0195876 -0.000129161 0.00268633)
(0.0825278 0.000145228 0.00187803)
(0.080936 -3.7603e-05 0.000687746)
(0.0843196 -0.00113694 -0.00089081)
(0.0906943 -0.00139093 0.00257892)
(0.0869975 -0.0006099 0.00758276)
(0.0741236 -0.000281951 0.0101219)
(0.061936 -0.000742051 0.0105075)
(0.0515876 -0.000909947 0.00895232)
(0.0408369 -0.000628015 0.00682105)
(0.0310731 -0.00042398 0.00503655)
(0.0241207 -0.000319388 0.00366288)
(0.0195765 -0.000273881 0.00270032)
(0.0827695 0.000271787 0.00193972)
(0.0802541 9.16044e-07 0.000659601)
(0.0836048 -0.00170693 -0.00159392)
(0.0912884 -0.00182775 0.00224242)
(0.0876968 -0.000634028 0.00752924)
(0.0749293 -0.000249374 0.00996081)
(0.063098 -0.000827707 0.0105932)
(0.0523221 -0.000863281 0.00911663)
(0.040953 -0.000621824 0.00675622)
(0.031023 -0.000593402 0.00490528)
(0.0241541 -0.000528424 0.00360249)
(0.0196476 -0.000446353 0.00268423)
(0.0829319 0.000395514 0.00212405)
(0.079733 0.000760735 0.000692163)
(0.0833002 -0.00277661 -0.00275511)
(0.0922803 -0.00351629 0.00208853)
(0.0882033 -0.00131376 0.00793111)
(0.0753002 -0.000838066 0.0098969)
(0.0639938 -0.00115354 0.0106881)
(0.0537064 8.77404e-05 0.00947688)
(0.0424298 0.000100274 0.00689271)
(0.0319777 -0.000922027 0.00481658)
(0.0246091 -0.00108754 0.00346718)
(0.0198709 -0.000778994 0.00255004)
(0.0836177 0.000352862 0.00222049)
(0.0791988 0.000804844 0.00312903)
(0.0794217 -0.00211212 -0.0049771)
(0.0911083 -0.00304586 -0.000876666)
(0.0888023 -0.00164693 0.00686364)
(0.0753336 -0.00127926 0.00876194)
(0.0640613 -0.00147046 0.0102166)
(0.0575269 -6.19834e-05 0.00979984)
(0.0497122 0.000301726 0.00697192)
(0.0374782 -0.000626896 0.00439363)
(0.0270075 -0.000892329 0.00295413)
(0.0206042 -0.000613804 0.00212509)
(0.0805791 -0.000584716 0.00190871)
(0.0854201 -0.000652801 0.000698011)
(0.0792266 0.00318149 -0.0141669)
(0.0845292 0.00249981 -0.00933517)
(0.0893806 0.00145289 0.00821691)
(0.0702951 0.00203634 0.0135131)
(0.0524253 0.00155048 0.0129726)
(0.0453981 7.38231e-05 0.0116231)
(0.0387661 -5.85991e-05 0.0105406)
(0.0304063 0.000379881 0.00901269)
(0.0238432 0.000398209 0.00657565)
(0.0194321 0.000264028 0.00436912)
(0.0824274 -0.000473426 0.00114805)
(0.0807679 -0.000654369 -0.00306906)
(0.0801508 0.00424263 -0.00986374)
(0.0899443 0.00390713 -0.00201329)
(0.0898768 0.00126695 0.0115333)
(0.0717912 0.00147026 0.0160129)
(0.0559859 0.00162627 0.0150834)
(0.0467777 0.00046749 0.0129134)
(0.0381126 0.000291082 0.0110001)
(0.0297431 0.000599764 0.00894909)
(0.0235932 0.000535584 0.00656691)
(0.0194204 0.000395842 0.00459588)
(0.0825534 -0.000331428 0.000601622)
(0.0798985 0.000394999 -0.00333199)
(0.0804004 0.00256233 -0.00805348)
(0.0898976 0.00169666 -0.00134026)
(0.0888911 0.000380233 0.0110576)
(0.071357 0.000544298 0.0159959)
(0.0565827 0.00115386 0.0149878)
(0.0473905 0.000955453 0.0127039)
(0.0382487 0.000535291 0.0110482)
(0.0296419 0.000358487 0.00902524)
(0.0234435 0.000288323 0.00662882)
(0.0192657 0.000275569 0.00472033)
(0.0823428 -0.000156579 0.000280734)
(0.0800796 0.000306008 -0.00364895)
(0.0813238 0.00164945 -0.0072938)
(0.0893354 0.00138181 -0.000738896)
(0.0875384 0.000516562 0.0111216)
(0.0705843 0.000426758 0.0160131)
(0.0564628 0.000892091 0.0148169)
(0.0476115 0.000915236 0.0126511)
(0.0385254 0.000542723 0.0112407)
(0.0297849 0.000301469 0.00915586)
(0.0234449 0.000210484 0.00664437)
(0.019205 0.000195667 0.00471744)
(0.0822729 -9.23177e-05 8.40013e-05)
(0.0802009 0.000254554 -0.00374495)
(0.0814629 0.000769364 -0.00692944)
(0.0886654 0.000474355 -0.000680407)
(0.0867724 4.1745e-05 0.0108436)
(0.0704229 8.18657e-06 0.0157421)
(0.0566948 0.000299594 0.0145576)
(0.047897 0.00043169 0.0125464)
(0.0387289 0.00028859 0.011301)
(0.0299027 0.000158395 0.00921393)
(0.0234961 0.000106832 0.0066451)
(0.0192176 0.000101549 0.00469702)
(0.0822274 -2.16725e-05 1.94299e-06)
(0.0802957 8.68698e-05 -0.00378666)
(0.0816219 0.000268114 -0.0068013)
(0.0883833 0.000229258 -0.000683151)
(0.0863949 0.000118351 0.0106914)
(0.0703476 0.000102733 0.0156025)
(0.0567808 0.000196542 0.0144316)
(0.0479659 0.000231044 0.0124997)
(0.0387608 0.000155173 0.0113287)
(0.0299181 8.4305e-05 0.00924303)
(0.0234991 5.11228e-05 0.00664641)
(0.0192138 4.09305e-05 0.00468402)
(0.0822274 2.13592e-05 1.91526e-06)
(0.0802957 -8.73662e-05 -0.00378669)
(0.0816219 -0.000269126 -0.00680142)
(0.0883832 -0.000230735 -0.000683415)
(0.086395 -0.000119837 0.0106912)
(0.070348 -0.000103865 0.0156024)
(0.0567813 -0.000197361 0.0144315)
(0.0479664 -0.000232318 0.0124996)
(0.0387612 -0.00015711 0.0113286)
(0.0299184 -8.6221e-05 0.00924297)
(0.0234993 -5.24875e-05 0.00664634)
(0.019214 -4.16881e-05 0.00468395)
(0.0822729 9.20279e-05 8.39275e-05)
(0.0802009 -0.000254983 -0.00374506)
(0.081463 -0.00077024 -0.00692981)
(0.0886652 -0.000475676 -0.000681255)
(0.0867727 -4.31101e-05 0.0108429)
(0.070424 -9.22439e-06 0.0157417)
(0.0566963 -0.000300337 0.0145571)
(0.0478984 -0.000432873 0.012546)
(0.03873 -0.000290369 0.0113008)
(0.0299036 -0.000160119 0.00921371)
(0.0234968 -0.000108038 0.00664485)
(0.0192182 -0.000102213 0.00469682)
(0.0823427 0.000156337 0.000280599)
(0.0800796 -0.000306303 -0.00364904)
(0.0813238 -0.00165003 -0.00729429)
(0.089335 -0.00138274 -0.000740187)
(0.0875391 -0.000517667 0.0111206)
(0.0705861 -0.000427638 0.0160127)
(0.056465 -0.000892708 0.0148163)
(0.0476137 -0.000916226 0.0126504)
(0.0385271 -0.000544167 0.0112402)
(0.0297863 -0.00030282 0.00915548)
(0.023446 -0.000211395 0.00664399)
(0.0192059 -0.000196164 0.00471716)
(0.0825533 0.000331221 0.000601422)
(0.0798986 -0.000395131 -0.00333207)
(0.0804005 -0.00256254 -0.00805396)
(0.089897 -0.00169716 -0.00134195)
(0.088892 -0.000380948 0.0110563)
(0.0713592 -0.000544963 0.0159954)
(0.0565852 -0.00115434 0.0149871)
(0.047393 -0.000956144 0.0127031)
(0.0382511 -0.000536222 0.0110476)
(0.0296438 -0.0003593 0.0090247)
(0.023445 -0.000288833 0.0066283)
(0.0192669 -0.000275852 0.00471999)
(0.0824273 0.000473258 0.00114773)
(0.080768 0.000654385 -0.00306898)
(0.0801509 -0.00424236 -0.00986388)
(0.0899434 -0.00390727 -0.00201513)
(0.089878 -0.0012674 0.0115319)
(0.0717936 -0.00147076 0.0160123)
(0.0559881 -0.00162686 0.0150826)
(0.04678 -0.000468143 0.0129125)
(0.0381151 -0.000291497 0.0109994)
(0.0297454 -0.000599918 0.00894846)
(0.0235953 -0.000535623 0.00656638)
(0.0194223 -0.000395897 0.00459556)
(0.0805789 0.000584612 0.00190838)
(0.0854198 0.000652887 0.000698189)
(0.0792273 -0.00318134 -0.0141662)
(0.084528 -0.00249972 -0.00933674)
(0.0893817 -0.0014529 0.00821535)
(0.0702979 -0.00203651 0.0135124)
(0.0524267 -0.00155075 0.0129718)
(0.0453984 -7.40718e-05 0.0116222)
(0.0387669 5.85855e-05 0.0105398)
(0.0304081 -0.000379728 0.00901212)
(0.0238455 -0.000398071 0.00657526)
(0.0194347 -0.000263988 0.00436885)
(0.081815 -0.00266098 0.00365204)
(0.088772 0.00041864 0.00396624)
(0.0749908 0.00386932 -0.0072009)
(0.07032 9.26461e-05 -0.0083136)
(0.0820775 -0.000678957 0.0123473)
(0.071288 0.00167689 0.0233436)
(0.0513937 0.00219997 0.0206434)
(0.0384618 0.000500041 0.0160502)
(0.0308151 -0.000282996 0.0139379)
(0.025471 -0.000151754 0.0113897)
(0.0216372 -1.89189e-05 0.00820481)
(0.0184729 2.86654e-05 0.00569516)
(0.082623 -0.00219275 0.00441248)
(0.0777044 0.00114084 0.000760088)
(0.0729324 0.00604592 -0.00626253)
(0.0777304 0.00319415 -0.00122732)
(0.0838024 0.000225405 0.0169426)
(0.0725007 0.00157168 0.0256697)
(0.0583344 0.00260862 0.0228227)
(0.0470443 0.00115776 0.0180485)
(0.0364191 9.91886e-05 0.0152927)
(0.0280166 2.93088e-05 0.0123362)
(0.0225222 9.18264e-05 0.00889611)
(0.0187713 0.000133152 0.00622646)
(0.0823571 -0.00132313 0.00451607)
(0.0765166 0.00166985 0.000701333)
(0.0732059 0.00301315 -0.0049003)
(0.0784237 0.000133131 0.000109257)
(0.082759 -0.00111335 0.0165874)
(0.0724763 8.28224e-05 0.0249157)
(0.0602198 0.00116675 0.0223746)
(0.0486962 0.000945927 0.0182138)
(0.0371319 0.00041399 0.0157995)
(0.0281968 0.000183648 0.0127282)
(0.0224362 0.000125403 0.00912299)
(0.0185857 0.000145599 0.00643053)
(0.0821594 -0.000765676 0.00453743)
(0.0766497 0.000911262 0.000727766)
(0.0738928 0.00183245 -0.0040415)
(0.0778129 0.000355715 0.00101098)
(0.0809667 -0.000425234 0.01654)
(0.0717547 7.54471e-05 0.0243411)
(0.0601152 0.000758024 0.0219265)
(0.0484064 0.000843207 0.0183203)
(0.0369132 0.000494615 0.016158)
(0.0281161 0.00024346 0.0129586)
(0.0223591 0.000143624 0.00919735)
(0.0184831 0.000132393 0.0064636)
(0.0821537 -0.000389088 0.00448783)
(0.0766637 0.000523498 0.000702846)
(0.0738448 0.000781083 -0.00364092)
(0.0771143 -0.000163754 0.00132359)
(0.0799781 -0.000555976 0.0161696)
(0.071533 -0.000270901 0.0237057)
(0.0602237 0.000151368 0.0214767)
(0.0483915 0.00036447 0.0182683)
(0.0368747 0.000270829 0.0163008)
(0.0281223 0.000146443 0.0130685)
(0.0223682 8.72706e-05 0.00922581)
(0.0184735 7.87681e-05 0.0064587)
(0.082135 -0.000112362 0.00445823)
(0.0767477 0.000166953 0.000700949)
(0.0739252 0.000267647 -0.00344313)
(0.0767684 2.03408e-05 0.00140331)
(0.0794038 -8.67986e-05 0.0159186)
(0.0713254 5.55707e-06 0.023361)
(0.0601751 0.00014383 0.0212522)
(0.048301 0.000205754 0.0182364)
(0.0367987 0.000145416 0.0163586)
(0.0280911 7.84619e-05 0.0131164)
(0.0223562 4.44117e-05 0.00923625)
(0.018464 3.37194e-05 0.00644999)
(0.082135 0.00011193 0.00445821)
(0.0767476 -0.000167727 0.000700908)
(0.0739251 -0.000268955 -0.00344322)
(0.076768 -2.2178e-05 0.00140303)
(0.0794035 8.50411e-05 0.0159182)
(0.0713255 -6.76255e-06 0.0233607)
(0.0601754 -0.000144859 0.021252)
(0.0483012 -0.000207123 0.0182362)
(0.0367989 -0.000146998 0.0163586)
(0.0280913 -7.97665e-05 0.0131163)
(0.0223563 -4.52142e-05 0.00923617)
(0.0184641 -3.40755e-05 0.00644993)
(0.0821537 0.000388687 0.00448778)
(0.0766636 -0.000524137 0.000702735)
(0.0738446 -0.000782184 -0.00364124)
(0.0771134 0.000162144 0.00132271)
(0.0799771 0.000554435 0.0161685)
(0.0715334 0.000269887 0.0237048)
(0.0602246 -0.000152235 0.021476)
(0.0483922 -0.000365723 0.0182679)
(0.0368752 -0.000272282 0.0163006)
(0.0281227 -0.000147602 0.0130682)
(0.0223686 -8.79542e-05 0.00922553)
(0.0184737 -7.90618e-05 0.00645849)
(0.0821593 0.000765321 0.00453734)
(0.0766495 -0.000911651 0.00072764)
(0.0738924 -0.0018331 -0.0040419)
(0.0778114 -0.000356824 0.00100963)
(0.0809653 0.000424147 0.0165383)
(0.0717553 -7.61054e-05 0.0243399)
(0.0601169 -0.000758576 0.0219257)
(0.0484077 -0.000844191 0.0183197)
(0.0369141 -0.000495783 0.0161576)
(0.0281169 -0.000244335 0.0129582)
(0.0223597 -0.000144091 0.00919694)
(0.0184836 -0.00013258 0.00646332)
(0.082357 0.00132278 0.00451593)
(0.0765164 -0.00166989 0.000701263)
(0.0732057 -0.00301318 -0.00490067)
(0.0784219 -0.000133598 0.000107459)
(0.0827574 0.00111284 0.0165852)
(0.0724772 -8.30937e-05 0.0249144)
(0.0602222 -0.00116697 0.0223736)
(0.0486983 -0.000946527 0.0182131)
(0.0371335 -0.000414716 0.015799)
(0.028198 -0.000184117 0.0127276)
(0.0224371 -0.000125588 0.00912245)
(0.0185864 -0.000145658 0.00643019)
(0.0826228 0.00219248 0.00441223)
(0.0777039 -0.00114045 0.000760097)
(0.0729325 -0.0060453 -0.0062625)
(0.0777287 -0.00319392 -0.00122923)
(0.0838011 -0.000225413 0.0169402)
(0.0725021 -0.00157181 0.0256685)
(0.0583372 -0.00260897 0.0228219)
(0.047047 -0.00115825 0.0180476)
(0.0364212 -9.94149e-05 0.015292)
(0.0280184 -2.92367e-05 0.0123356)
(0.0225237 -9.16712e-05 0.00889558)
(0.0187727 -0.000133083 0.00622613)
(0.0818149 0.00266078 0.00365185)
(0.0887709 -0.00041828 0.00396617)
(0.0749916 -0.00386906 -0.00720008)
(0.0703186 -9.2454e-05 -0.00831486)
(0.0820767 0.000679272 0.0123447)
(0.0712903 -0.00167678 0.0233425)
(0.0513963 -0.0022002 0.020643)
(0.0384632 -0.000500266 0.0160494)
(0.0308164 0.00028308 0.0139369)
(0.0254728 0.000152007 0.0113888)
(0.0216395 1.91347e-05 0.00820424)
(0.0184754 -2.85839e-05 0.00569478)
(0.0188111 0.00737966 0.00101849)
(0.0185431 0.0061317 0.00173843)
(0.029978 -0.000903236 -0.0128789)
(0.0364775 -0.00636213 -0.0133052)
(0.0554341 -0.00495873 0.00992211)
(0.0577928 -0.000113435 0.0267399)
(0.0465099 0.0017497 0.0265271)
(0.0343094 0.000355597 0.0211744)
(0.026819 -0.000616533 0.0173418)
(0.0228264 -0.000580471 0.0136058)
(0.0199978 -0.000334748 0.00992684)
(0.0174123 -0.000138469 0.00710565)
(0.0185547 0.007709 0.00184443)
(0.0259184 0.00752086 -0.000783313)
(0.0401441 0.00268148 -0.0108536)
(0.0488443 -0.00284526 -0.00595996)
(0.0600431 -0.00401531 0.0156706)
(0.0603466 -0.000479017 0.0291439)
(0.0541951 0.00176307 0.0281848)
(0.0438279 0.000791522 0.0236847)
(0.0330346 -0.000264978 0.0200787)
(0.0256931 -0.000381372 0.0156037)
(0.0211237 -0.00021582 0.0110459)
(0.017857 -4.84354e-05 0.00774074)
(0.0179158 0.00428862 0.00193682)
(0.0261304 0.00486875 -0.000461187)
(0.0409705 0.000171014 -0.00838531)
(0.0497688 -0.00433411 -0.0035682)
(0.059241 -0.00470785 0.015504)
(0.0599063 -0.00215758 0.0277673)
(0.0545429 8.2447e-05 0.0275137)
(0.0439801 0.000633214 0.0242398)
(0.0330245 0.000332949 0.0208874)
(0.0256225 7.88036e-05 0.0161315)
(0.0209362 1.50513e-05 0.0113513)
(0.0176229 5.71403e-05 0.00797354)
(0.0173557 0.00214211 0.0018176)
(0.0257359 0.00297013 -0.000824448)
(0.0403447 0.000402612 -0.00785518)
(0.0485578 -0.00241347 -0.00285391)
(0.0573541 -0.00290129 0.0150509)
(0.0584289 -0.00153526 0.026521)
(0.0528574 -1.75672e-05 0.0267508)
(0.0423979 0.000620208 0.0242988)
(0.0321884 0.000453214 0.0211853)
(0.0252982 0.00020522 0.0163334)
(0.0207575 9.56523e-05 0.0114469)
(0.0174737 8.58739e-05 0.00802982)
(0.0169882 0.00086701 0.00169469)
(0.0250844 0.00140439 -0.00114631)
(0.0395696 -5.83385e-05 -0.00746011)
(0.047776 -0.0016482 -0.00237815)
(0.0564104 -0.00190578 0.0145921)
(0.0578084 -0.00116727 0.0256041)
(0.052252 -0.00026696 0.0261704)
(0.0418552 0.000256494 0.0242168)
(0.0318908 0.000261705 0.021295)
(0.025189 0.00014144 0.0164285)
(0.0207139 7.38616e-05 0.0114866)
(0.0174369 6.13973e-05 0.00803963)
(0.0168689 0.000268233 0.0016551)
(0.0248384 0.000460837 -0.0012652)
(0.0391978 3.77087e-05 -0.00730752)
(0.0472845 -0.000456728 -0.00228403)
(0.0557938 -0.000541363 0.0142546)
(0.0573614 -0.000299129 0.0250884)
(0.0518834 2.72273e-06 0.0258555)
(0.0415556 0.000161134 0.0241418)
(0.0317192 0.000133978 0.0213241)
(0.0251166 7.33231e-05 0.0164644)
(0.0206841 3.93572e-05 0.0114992)
(0.0174192 2.80516e-05 0.00803614)
(0.0168688 -0.000269513 0.00165508)
(0.0248383 -0.000461969 -0.00126527)
(0.0391976 -3.89289e-05 -0.00730764)
(0.0472841 0.000455041 -0.00228437)
(0.0557933 0.000539656 0.0142541)
(0.0573611 0.000297644 0.0250879)
(0.0518831 -4.16816e-06 0.0258552)
(0.0415554 -0.00016247 0.0241417)
(0.0317191 -0.000135018 0.021324)
(0.0251166 -7.3977e-05 0.0164643)
(0.0206842 -3.96429e-05 0.0114992)
(0.0174192 -2.8061e-05 0.00803608)
(0.0169881 -0.000868114 0.00169466)
(0.025084 -0.00140524 -0.00114652)
(0.0395691 5.73507e-05 -0.00746048)
(0.0477749 0.00164674 -0.00237913)
(0.056409 0.00190432 0.0145906)
(0.0578075 0.00116606 0.0256027)
(0.0522513 0.000265722 0.0261696)
(0.0418546 -0.000257726 0.0242163)
(0.0318906 -0.000262657 0.0212946)
(0.025189 -0.000141994 0.0164281)
(0.0207139 -7.40657e-05 0.0114863)
(0.0174369 -6.13713e-05 0.00803943)
(0.0173555 -0.00214285 0.00181757)
(0.0257353 -0.00297035 -0.000824761)
(0.0403439 -0.00040308 -0.00785567)
(0.0485562 0.00241249 -0.00285541)
(0.0573521 0.00290036 0.0150484)
(0.0584278 0.00153463 0.0265188)
(0.0528567 1.67975e-05 0.0267496)
(0.0423973 -0.000621167 0.0242981)
(0.0321882 -0.000453964 0.0211847)
(0.0252984 -0.000205586 0.0163329)
(0.0207576 -9.57178e-05 0.0114464)
(0.0174737 -8.57962e-05 0.00802955)
(0.0179155 -0.00428893 0.00193677)
(0.0261296 -0.00486813 -0.000461506)
(0.0409695 -0.000170873 -0.00838574)
(0.0497668 0.00433366 -0.00356997)
(0.0592385 0.00470753 0.015501)
(0.0599053 0.0021576 0.0277648)
(0.0545427 -8.26439e-05 0.0275122)
(0.04398 -0.000633784 0.024239)
(0.0330247 -0.000333401 0.0208867)
(0.0256229 -7.89178e-05 0.0161308)
(0.0209366 -1.49488e-05 0.0113507)
(0.0176231 -5.70091e-05 0.00797321)
(0.0185541 -0.00770875 0.00184431)
(0.0259179 -0.00751948 -0.000783458)
(0.0401434 -0.00268072 -0.0108533)
(0.0488425 0.00284543 -0.0059616)
(0.0600407 0.00401555 0.0156673)
(0.0603464 0.000479535 0.0291415)
(0.0541963 -0.00176285 0.0281834)
(0.043829 -0.000791704 0.0236838)
(0.0330358 0.000264921 0.020078)
(0.0256942 0.000381589 0.015603)
(0.0211248 0.000216101 0.0110454)
(0.017858 4.85943e-05 0.00774043)
(0.0188098 -0.00737946 0.00101854)
(0.0185423 -0.00613051 0.00173862)
(0.0299779 0.000903773 -0.0128775)
(0.0364764 0.00636226 -0.013306)
(0.0554323 0.00495923 0.00991888)
(0.0577939 0.000113963 0.0267379)
(0.0465126 -0.00174961 0.0265264)
(0.0343119 -0.000355739 0.0211737)
(0.026821 0.000616597 0.0173408)
(0.0228285 0.00058073 0.013605)
(0.0200001 0.000334994 0.00992625)
(0.0174148 0.000138575 0.00710525)
(0.00111506 0.00230392 -0.0202806)
(0.0169768 0.00172064 -0.00913972)
(0.0287062 -0.00247236 -0.0168502)
(0.026961 -0.00710254 -0.0149511)
(0.0375849 -0.00665063 0.00719192)
(0.044393 -0.00177948 0.0272745)
(0.0392892 0.000782496 0.0302384)
(0.0300303 0.000160766 0.0254758)
(0.0240409 -0.000638681 0.0203022)
(0.0208302 -0.000700058 0.0154457)
(0.0184545 -0.000429421 0.0113381)
(0.016272 -0.000180669 0.00828685)
(0.00277851 0.00358428 -0.013412)
(0.017567 0.00219327 -0.0102697)
(0.0281484 -0.00229437 -0.0172721)
(0.0309493 -0.00671361 -0.0104756)
(0.0392039 -0.00695554 0.012265)
(0.0442884 -0.00277025 0.0290764)
(0.042925 0.000360377 0.0314548)
(0.0352542 0.000308638 0.028322)
(0.027607 -0.000371169 0.0237731)
(0.022728 -0.000483334 0.0179674)
(0.0193144 -0.000302627 0.0127073)
(0.0166986 -0.000104352 0.00899264)
(0.00311965 0.00226638 -0.0119958)
(0.017177 0.00145046 -0.00944966)
(0.0278036 -0.00279663 -0.0149135)
(0.0311496 -0.00689143 -0.00833241)
(0.0381178 -0.00711913 0.0118444)
(0.0423285 -0.00387557 0.0273274)
(0.0409293 -0.000642959 0.0306528)
(0.0338563 0.000522371 0.0288052)
(0.0268903 0.000342263 0.0245098)
(0.0223279 5.30456e-05 0.0184979)
(0.0189842 -2.15968e-05 0.01303)
(0.0164212 2.30248e-05 0.00922393)
(0.00294763 0.00138856 -0.0123855)
(0.01646 0.00112237 -0.00981026)
(0.0266206 -0.00161433 -0.0144769)
(0.0298879 -0.00438534 -0.00773901)
(0.0363345 -0.00473133 0.0111779)
(0.0400991 -0.00272669 0.0257592)
(0.0383126 -0.000473075 0.0296298)
(0.0318579 0.000524376 0.028608)
(0.0258545 0.000439928 0.0246507)
(0.021856 0.000192453 0.0186624)
(0.0187187 7.56162e-05 0.0131359)
(0.0162339 6.32068e-05 0.00929387)
(0.0027658 0.000601755 -0.0127259)
(0.0157752 0.000514194 -0.0100735)
(0.0257161 -0.00107136 -0.0139615)
(0.0292444 -0.00267048 -0.00717933)
(0.0356259 -0.00286871 0.0107634)
(0.0393156 -0.00176631 0.0247889)
(0.0374286 -0.000459906 0.0289714)
(0.0311715 0.000231265 0.0284099)
(0.0254611 0.000265749 0.0246816)
(0.0216747 0.000142464 0.0187337)
(0.0186297 6.80678e-05 0.0131801)
(0.0161726 5.19166e-05 0.00931467)
(0.00270572 0.000204452 -0.0128993)
(0.0154594 0.000193913 -0.0102104)
(0.0252492 -0.000298688 -0.0137956)
(0.0288464 -0.000807642 -0.00701838)
(0.0351732 -0.000874309 0.0104605)
(0.0388794 -0.000507044 0.0242454)
(0.0370128 -7.3931e-05 0.0285992)
(0.0308523 0.000136026 0.0282669)
(0.025268 0.000125036 0.0246701)
(0.0215815 7.01283e-05 0.0187556)
(0.0185855 3.62754e-05 0.0131932)
(0.0161466 2.44555e-05 0.00931613)
(0.00270568 -0.000205496 -0.0128993)
(0.0154592 -0.00019436 -0.0102105)
(0.025249 0.000298215 -0.0137957)
(0.0288461 0.00080645 -0.00701869)
(0.0351727 0.000872665 0.01046)
(0.0388788 0.000505327 0.0242448)
(0.0370123 7.24475e-05 0.0285989)
(0.030852 -0.00013691 0.0282666)
(0.0252679 -0.000125382 0.0246699)
(0.0215814 -7.01702e-05 0.0187555)
(0.0185854 -3.61068e-05 0.0131931)
(0.0161465 -2.41679e-05 0.00931607)
(0.00276569 -0.000602627 -0.0127259)
(0.0157747 -0.000514439 -0.0100738)
(0.0257154 0.00107103 -0.0139618)
(0.0292435 0.00266943 -0.00718023)
(0.0356244 0.00286728 0.0107617)
(0.0393139 0.00176483 0.0247873)
(0.037427 0.000458581 0.0289703)
(0.0311704 -0.000232088 0.0284091)
(0.0254606 -0.00026605 0.024681)
(0.0216745 -0.000142445 0.0187332)
(0.0186294 -6.7851e-05 0.0131798)
(0.0161723 -5.1617e-05 0.00931447)
(0.00294749 -0.00138906 -0.0123856)
(0.0164593 -0.0011222 -0.00981068)
(0.0266196 0.00161431 -0.0144774)
(0.0298864 0.00438461 -0.00774038)
(0.0363322 0.00473035 0.0111753)
(0.0400966 0.00272575 0.0257568)
(0.0383102 0.000472145 0.0296281)
(0.0318563 -0.000525017 0.0286068)
(0.0258538 -0.000440123 0.0246497)
(0.0218556 -0.000192336 0.0186617)
(0.0187184 -7.53309e-05 0.0131354)
(0.0162336 -6.29012e-05 0.00929361)
(0.00311949 -0.00226646 -0.011996)
(0.0171761 -0.00144974 -0.00945014)
(0.0278024 0.00279696 -0.0149139)
(0.0311478 0.006891 -0.00833402)
(0.038115 0.00711865 0.0118411)
(0.0423258 0.00387528 0.0273243)
(0.0409267 0.00064253 0.0306508)