/*--------------------------------*- C++ -*----------------------------------*\
| =========                 |                                                 |
| \\      /  F ield         | OpenFOAM: The Open Source CFD Toolbox           |
|  \\    /   O peration     | Version:  2.3.1                                 |
|   \\  /    A nd           | Web:      www.OpenFOAM.org                      |
|    \\/     M anipulation  |                                                 |
\*---------------------------------------------------------------------------*/
FoamFile
{
    version     2.0;
    format      ascii;
    class       volVectorField;
    location    "5";
    object      U_0;
}
// * * * * * * * * * * * * * * * * * * * * * * * * * * * * * * * * * * * * * //

dimensions      [0 1 -1 0 0 0 0];

internalField   nonuniform List<vector> 
37758
(
(0.0840451 6.6852e-05 0.000684574)
(0.0759209 -0.000679628 -0.00110864)
(0.0806112 0.00130798 -0.0042264)
(0.0898109 0.00246829 -0.00204385)
(0.0830041 0.00119651 0.000557109)
(0.0737015 0.000741854 0.00237763)
(0.0576221 0.00183039 0.00519059)
(0.0377395 0.00130874 0.00372315)
(0.0276446 0.00036738 1.1276e-05)
(0.023656 0.000384189 -0.00127797)
(0.0209628 0.000509299 -0.000656552)
(0.0182238 0.000479083 6.28298e-05)
(0.0831826 -8.91362e-05 0.000255123)
(0.0781414 -0.000824875 -0.00117861)
(0.0820787 0.00217093 -0.00297031)
(0.0889966 0.00300925 -0.00138443)
(0.0836962 0.000823401 0.00157982)
(0.0711139 0.000695788 0.00341951)
(0.0559215 0.00221855 0.00393546)
(0.0414331 0.00130358 0.00259239)
(0.0318396 4.96896e-05 0.000828422)
(0.0260206 0.000177059 0.000241827)
(0.0219096 0.000521054 0.000431204)
(0.0185538 0.000610485 0.00059302)
(0.082952 -0.00013066 -3.27385e-05)
(0.0790276 -8.26755e-06 -0.0012397)
(0.081794 0.0015115 -0.00256089)
(0.0878595 0.0017009 -0.00131937)
(0.0833529 0.000463223 0.00162649)
(0.0702315 0.000374519 0.00336632)
(0.0555784 0.00138285 0.00345659)
(0.0425008 0.00126966 0.00231402)
(0.0330363 0.000591403 0.00103435)
(0.0266839 0.000375949 0.000589448)
(0.0221499 0.000394506 0.000663701)
(0.0186054 0.000421804 0.000712865)
(0.0826556 -6.05406e-05 -0.000183725)
(0.0797408 2.43232e-05 -0.00135958)
(0.0822946 0.00108014 -0.0024539)
(0.0872276 0.00135246 -0.00118143)
(0.0825822 0.000538248 0.00170671)
(0.0693563 0.000425321 0.00324987)
(0.0548658 0.0010865 0.00313779)
(0.042471 0.00106933 0.00215036)
(0.0334238 0.000551977 0.00115053)
(0.027007 0.000309955 0.000774311)
(0.0222663 0.000264073 0.000769049)
(0.018613 0.000266095 0.000751334)
(0.0825661 -4.80746e-05 -0.000264178)
(0.0800556 0.00010491 -0.00142014)
(0.082294 0.000534578 -0.00241493)
(0.0867129 0.000528799 -0.00116417)
(0.0821678 0.000116774 0.00165572)
(0.0691537 6.73819e-05 0.00311947)
(0.054879 0.00042261 0.00299278)
(0.042682 0.000516396 0.00210454)
(0.0336564 0.000305144 0.00119427)
(0.0271576 0.000168194 0.000822503)
(0.0223338 0.000129013 0.000787479)
(0.0186396 0.000128342 0.00075239)
(0.0825141 -7.07e-06 -0.000297976)
(0.0802096 3.53948e-05 -0.00145123)
(0.082391 0.000193782 -0.00241366)
(0.0865469 0.000253231 -0.00116471)
(0.0819578 0.000147435 0.00162049)
(0.0690323 0.000132238 0.00305304)
(0.0548454 0.000245418 0.00293066)
(0.0427102 0.000257147 0.00209095)
(0.0337003 0.000156086 0.00121564)
(0.0271852 8.55099e-05 0.0008431)
(0.0223385 5.84527e-05 0.000794832)
(0.018635 5.02052e-05 0.000751982)
(0.0825141 6.66819e-06 -0.000297989)
(0.0802096 -3.61222e-05 -0.00145124)
(0.082391 -0.000194808 -0.00241369)
(0.086547 -0.000254526 -0.00116477)
(0.0819581 -0.00014902 0.00162043)
(0.0690326 -0.000133626 0.00305298)
(0.0548458 -0.000246463 0.00293061)
(0.0427107 -0.000258705 0.00209094)
(0.0337008 -0.000158515 0.00121565)
(0.0271856 -8.81982e-05 0.000843087)
(0.0223389 -6.07533e-05 0.000794801)
(0.0186354 -5.17929e-05 0.000751952)
(0.0825661 4.77091e-05 -0.00026421)
(0.0800556 -0.000105562 -0.00142017)
(0.0822939 -0.000535476 -0.00241502)
(0.0867131 -0.00052997 -0.00116435)
(0.0821686 -0.000118239 0.00165552)
(0.0691546 -6.86426e-05 0.00311927)
(0.0548802 -0.000423559 0.00299262)
(0.0426836 -0.000517844 0.00210451)
(0.033658 -0.000307377 0.00119429)
(0.0271589 -0.000170647 0.000822457)
(0.022335 -0.000131102 0.000787381)
(0.0186408 -0.000129773 0.000752302)
(0.0826556 6.02453e-05 -0.00018378)
(0.0797409 -2.48081e-05 -0.00135963)
(0.0822943 -0.00108077 -0.00245401)
(0.0872278 -0.00135337 -0.0011817)
(0.0825834 -0.000539476 0.00170643)
(0.0693577 -0.000426344 0.00324958)
(0.0548677 -0.00108726 0.00313757)
(0.0424735 -0.00107058 0.00215031)
(0.0334261 -0.000553845 0.00115054)
(0.027009 -0.000311957 0.000774224)
(0.0222682 -0.000265756 0.000768896)
(0.0186149 -0.000267236 0.000751208)
(0.082952 0.000130434 -3.28108e-05)
(0.0790278 7.96989e-06 -0.00123974)
(0.0817936 -0.0015118 -0.00256101)
(0.0878598 -0.00170149 -0.00131969)
(0.0833543 -0.000464105 0.00162615)
(0.0702332 -0.000375205 0.00336594)
(0.0555808 -0.00138333 0.00345631)
(0.0425037 -0.00127057 0.00231401)
(0.033039 -0.000592704 0.00103438)
(0.0266863 -0.000377304 0.000589319)
(0.0221523 -0.000395635 0.000663486)
(0.0186078 -0.000422572 0.000712704)
(0.0831826 8.89984e-05 0.000255022)
(0.0781416 0.000824728 -0.00117861)
(0.0820782 -0.00217091 -0.00297039)
(0.0889969 -0.0030095 -0.00138476)
(0.0836976 -0.000823994 0.0015795)
(0.0711157 -0.000696207 0.00341908)
(0.0559243 -0.00221875 0.00393514)
(0.0414363 -0.00130419 0.00259242)
(0.0318424 -5.05148e-05 0.000828457)
(0.0260232 -0.000177769 0.000241639)
(0.0219123 -0.00052158 0.000430938)
(0.0185566 -0.000610845 0.00059284)
(0.084045 -6.6879e-05 0.000684461)
(0.0759215 0.000679591 -0.00110858)
(0.0806106 -0.00130787 -0.00422628)
(0.0898109 -0.00246826 -0.00204418)
(0.0830055 -0.0011967 0.000556838)
(0.0737027 -0.000741975 0.00237721)
(0.0576251 -0.00183036 0.00519008)
(0.0377437 -0.00130895 0.00372322)
(0.027648 -0.000367652 1.1483e-05)
(0.0236588 -0.000384327 -0.00127805)
(0.0209656 -0.000509367 -0.000656773)
(0.0182268 -0.000479135 6.26561e-05)
(0.083614 -0.000358847 0.002239)
(0.079175 -0.000793438 0.00310255)
(0.0794553 0.00212564 -0.00499057)
(0.0911443 0.00304196 -0.00083901)
(0.0887669 0.00163972 0.00687874)
(0.0752845 0.00128017 0.00876333)
(0.0640347 0.00146631 0.0102161)
(0.0575166 5.60834e-05 0.00979119)
(0.0496797 -0.000298811 0.00696358)
(0.0374346 0.000630636 0.00439012)
(0.0269766 0.000892275 0.00295267)
(0.020585 0.000612844 0.00212377)
(0.0829278 -0.000402405 0.00213312)
(0.0797243 -0.000747453 0.000675756)
(0.0833372 0.0027914 -0.002748)
(0.0922941 0.00350737 0.00211526)
(0.0881621 0.00130333 0.00794036)
(0.0752534 0.000838479 0.00989855)
(0.063958 0.00114973 0.010686)
(0.0536704 -9.15727e-05 0.00946892)
(0.0423907 -9.60975e-05 0.00688661)
(0.0319457 0.000925093 0.00481404)
(0.0245873 0.00108682 0.00346545)
(0.0198557 0.000777796 0.00254835)
(0.0827658 -0.000275031 0.00194687)
(0.0802484 5.46271e-06 0.000649106)
(0.083635 0.00171143 -0.0015876)
(0.0912997 0.001822 0.00226226)
(0.0876582 0.000627229 0.00753907)
(0.0748804 0.000249084 0.0099638)
(0.0630605 0.000828347 0.0105896)
(0.0522865 0.000861548 0.00910875)
(0.0409169 0.000620634 0.00675142)
(0.0309944 0.000592471 0.00490329)
(0.0241342 0.000527388 0.00360075)
(0.0196333 0.00044561 0.00268253)
(0.0825253 -0.000147315 0.00188469)
(0.0809348 4.11609e-05 0.000680527)
(0.0843441 0.00114009 -0.000884129)
(0.0907009 0.00138759 0.00259693)
(0.0869584 0.000604474 0.00759243)
(0.074073 0.000280864 0.0101243)
(0.0619005 0.000742443 0.0105024)
(0.0515574 0.000908035 0.00894485)
(0.0408043 0.000625365 0.00681708)
(0.0310452 0.000421803 0.00503451)
(0.024101 0.000317882 0.00366085)
(0.0195626 0.00027298 0.00269849)
(0.0824419 -8.81594e-05 0.00184513)
(0.0812748 9.89581e-05 0.000737949)
(0.084433 0.000552314 -0.00058592)
(0.090173 0.000530224 0.00263386)
(0.0865628 0.000129746 0.00746991)
(0.0738427 -1.3601e-05 0.010046)
(0.0617211 0.000258483 0.0103768)
(0.0515571 0.000447599 0.00885125)
(0.0409198 0.000336453 0.00683422)
(0.0311436 0.000205044 0.00507419)
(0.0241411 0.000142599 0.00366637)
(0.0195741 0.000128084 0.00268442)
(0.0823986 -2.10615e-05 0.00182978)
(0.0814417 3.61974e-05 0.000770934)
(0.084556 0.000194977 -0.000457315)
(0.0900009 0.000241084 0.00265203)
(0.0863682 0.000138105 0.00742399)
(0.0737042 9.56845e-05 0.010002)
(0.0616084 0.000188868 0.0103076)
(0.0515093 0.000241298 0.00880556)
(0.0409221 0.000173269 0.0068421)
(0.0311524 9.97686e-05 0.00509422)
(0.0241374 6.26027e-05 0.00366988)
(0.0195664 4.94814e-05 0.00267622)
(0.0823986 2.07436e-05 0.00182976)
(0.0814417 -3.67541e-05 0.000770933)
(0.0845559 -0.000195865 -0.000457385)
(0.0900009 -0.00024223 0.00265186)
(0.0863685 -0.000139493 0.00742389)
(0.0737044 -9.69452e-05 0.0100019)
(0.0616087 -0.000189719 0.0103075)
(0.0515097 -0.000242507 0.00880545)
(0.0409226 -0.000175369 0.00684204)
(0.0311528 -0.000102149 0.00509417)
(0.0241378 -6.45246e-05 0.00366982)
(0.0195668 -5.06919e-05 0.00267616)
(0.0824419 8.78677e-05 0.00184509)
(0.0812749 -9.94539e-05 0.000737949)
(0.084433 -0.000553091 -0.000586148)
(0.0901732 -0.000531261 0.00263335)
(0.0865636 -0.000131029 0.00746961)
(0.0738434 1.2458e-05 0.0100458)
(0.0617218 -0.000259247 0.0103764)
(0.0515582 -0.000448718 0.00885092)
(0.0409211 -0.000338383 0.00683404)
(0.0311448 -0.000207205 0.00507405)
(0.0241422 -0.000144327 0.00366619)
(0.0195751 -0.000129166 0.00268425)
(0.0825253 0.000147076 0.00188462)
(0.0809349 -4.15199e-05 0.000680562)
(0.0843439 -0.00114063 -0.000884425)
(0.0907012 -0.00138839 0.00259617)
(0.0869597 -0.000605548 0.00759196)
(0.0740742 -0.000281795 0.010124)
(0.0619016 -0.000743047 0.0105019)
(0.0515591 -0.000908983 0.00894436)
(0.0408063 -0.000626953 0.0068168)
(0.0310471 -0.000423537 0.00503427)
(0.0241026 -0.000319244 0.00366057)
(0.0195641 -0.000273827 0.00269826)
(0.0827658 0.000274843 0.00194678)
(0.0802486 -5.66238e-06 0.000649186)
(0.0836348 -0.00171166 -0.00158792)
(0.0912999 -0.00182251 0.00226137)
(0.0876597 -0.000628 0.0075385)
(0.0748819 -0.000249719 0.0099634)
(0.0630618 -0.000828725 0.010589)
(0.0522885 -0.000862205 0.00910822)
(0.0409194 -0.000621702 0.0067511)
(0.0309967 -0.000593603 0.00490296)
(0.0241362 -0.000528258 0.00360037)
(0.0196352 -0.000446158 0.00268224)
(0.0829277 0.000402274 0.00213297)
(0.0797247 0.000747421 0.000675939)
(0.0833369 -0.00279126 -0.00274819)
(0.0922941 -0.0035076 0.00211429)
(0.0881638 -0.00130388 0.00793973)
(0.075255 -0.000838858 0.00989805)
(0.0639594 -0.00114994 0.0106853)
(0.0536725 9.10742e-05 0.00946845)
(0.0423935 9.5529e-05 0.00688634)
(0.0319485 -0.00092552 0.00481372)
(0.0245899 -0.00108713 0.00346507)
(0.0198581 -0.000778026 0.00254807)
(0.0836138 0.000358795 0.00223878)
(0.0791755 0.000793474 0.00310274)
(0.079455 -0.00212547 -0.00499031)
(0.0911439 -0.0030419 -0.000839971)
(0.0887684 -0.0016399 0.00687809)
(0.075286 -0.0012803 0.00876276)
(0.0640361 -0.00146633 0.0102151)
(0.0575184 -5.62682e-05 0.00979051)
(0.0496821 0.000298668 0.00696344)
(0.0374376 -0.000630623 0.00439007)
(0.0269796 -0.000892255 0.00295251)
(0.020588 -0.000612871 0.00212359)
(0.0805914 -0.000592498 0.00193165)
(0.085416 -0.000637219 0.000646358)
(0.0791926 0.00319095 -0.0142063)
(0.0845754 0.00249262 -0.00927408)
(0.0893554 0.00145028 0.0082641)
(0.0702109 0.00203874 0.0135167)
(0.0523726 0.00154607 0.0129633)
(0.0453659 7.06439e-05 0.011617)
(0.0387274 -5.69207e-05 0.0105392)
(0.0303737 0.000380596 0.00900831)
(0.0238229 0.000397486 0.00656828)
(0.0194192 0.00026343 0.00436352)
(0.0824278 -0.000480492 0.00115414)
(0.0807535 -0.000637679 -0.00309965)
(0.0801696 0.00425655 -0.00986562)
(0.0899822 0.00389219 -0.00196203)
(0.0898315 0.00125718 0.0115661)
(0.0717124 0.00147355 0.0160148)
(0.0559414 0.00162559 0.0150722)
(0.0467498 0.000466176 0.0129039)
(0.0380831 0.000292781 0.0109962)
(0.0297183 0.000600101 0.00894442)
(0.0235763 0.00053478 0.00656079)
(0.0194086 0.000395289 0.00459105)
(0.0825515 -0.000334132 0.000603145)
(0.0798843 0.000404964 -0.00335507)
(0.0804245 0.0025642 -0.00805373)
(0.0899296 0.00168865 -0.00129913)
(0.0888414 0.000375467 0.0110891)
(0.0712825 0.000546413 0.0159977)
(0.0565463 0.00115476 0.0149744)
(0.0473667 0.000953648 0.0126953)
(0.0382207 0.000534127 0.011046)
(0.0296178 0.000358103 0.00902121)
(0.0234268 0.000288223 0.00662317)
(0.0192539 0.000275566 0.00471581)
(0.0823405 -0.000157948 0.000280249)
(0.0800703 0.000311879 -0.00366634)
(0.0813456 0.00165157 -0.00729216)
(0.0893576 0.00137802 -0.000702751)
(0.0874858 0.000512668 0.0111512)
(0.0705146 0.000427237 0.0160126)
(0.056432 0.00089273 0.0148021)
(0.0475906 0.000913674 0.0126437)
(0.0384976 0.000541269 0.0112393)
(0.0297603 0.000300917 0.00915169)
(0.0234279 0.000210414 0.00663861)
(0.019193 0.000195704 0.00471299)
(0.0822706 -9.28011e-05 8.25704e-05)
(0.0801928 0.000257109 -0.00376091)
(0.0814818 0.000769057 -0.00692787)
(0.0886843 0.000471655 -0.000646175)
(0.0867214 3.9899e-05 0.0108725)
(0.0703565 8.32606e-06 0.0157408)
(0.0566659 0.00030008 0.0145424)
(0.0478763 0.00043108 0.0125397)
(0.0387008 0.000287816 0.0113001)
(0.0298778 0.000158067 0.00920973)
(0.0234789 0.000106799 0.00663924)
(0.0192055 0.000101585 0.00469256)
(0.0822251 -2.18199e-05 1.50157e-07)
(0.0802885 8.76893e-05 -0.00380207)
(0.0816394 0.00026826 -0.00679982)
(0.0884003 0.000228703 -0.000649664)
(0.0863444 0.000117781 0.01072)
(0.0702828 0.000102674 0.0156008)
(0.0567524 0.000196609 0.0144163)
(0.0479453 0.000230693 0.0124933)
(0.0387327 0.00015475 0.0113279)
(0.0298932 8.40929e-05 0.00923879)
(0.0234818 5.10647e-05 0.0066405)
(0.0192017 4.09217e-05 0.00467954)
(0.0822251 2.15111e-05 1.22692e-07)
(0.0802885 -8.81843e-05 -0.0038021)
(0.0816394 -0.000269271 -0.00679995)
(0.0884002 -0.000230179 -0.000649928)
(0.0863446 -0.000119265 0.0107198)
(0.0702832 -0.000103804 0.0156007)
(0.0567529 -0.00019743 0.0144162)
(0.0479458 -0.000231972 0.0124932)
(0.0387331 -0.000156689 0.0113278)
(0.0298935 -8.60075e-05 0.00923872)
(0.0234821 -5.24274e-05 0.00664042)
(0.0192019 -4.16779e-05 0.00467948)
(0.0822705 9.25154e-05 8.24974e-05)
(0.0801928 -0.000257537 -0.00376102)
(0.0814819 -0.000769933 -0.00692825)
(0.0886841 -0.000472974 -0.000647024)
(0.0867217 -4.12629e-05 0.0108719)
(0.0703577 -9.36215e-06 0.0157404)
(0.0566673 -0.000300825 0.014542)
(0.0478777 -0.000432267 0.0125393)
(0.0387019 -0.000289596 0.0112998)
(0.0298787 -0.00015979 0.0092095)
(0.0234796 -0.000108004 0.006639)
(0.0192061 -0.000102248 0.00469236)
(0.0823404 0.00015771 0.000280115)
(0.0800703 -0.000312173 -0.00366643)
(0.0813456 -0.00165215 -0.00729266)
(0.0893572 -0.00137896 -0.000704046)
(0.0874865 -0.000513773 0.0111502)
(0.0705164 -0.000428115 0.0160121)
(0.0564342 -0.000893348 0.0148014)
(0.0475927 -0.000914667 0.012643)
(0.0384993 -0.000542714 0.0112388)
(0.0297617 -0.000302266 0.00915132)
(0.023429 -0.000211324 0.00663823)
(0.0191939 -0.0001962 0.00471271)
(0.0825514 0.000333927 0.000602947)
(0.0798844 -0.000405094 -0.00335514)
(0.0804245 -0.00256441 -0.00805421)
(0.0899289 -0.00168915 -0.00130083)
(0.0888423 -0.000376182 0.0110879)
(0.0712847 -0.000547077 0.0159971)
(0.0565488 -0.00115524 0.0149737)
(0.0473693 -0.00095434 0.0126945)
(0.038223 -0.000535058 0.0110454)
(0.0296197 -0.000358915 0.00902067)
(0.0234283 -0.000288733 0.00662266)
(0.0192551 -0.000275848 0.00471547)
(0.0824276 0.000480325 0.00115382)
(0.0807536 0.000637697 -0.00309956)
(0.0801697 -0.00425628 -0.00986576)
(0.0899814 -0.00389234 -0.00196388)
(0.0898327 -0.00125763 0.0115647)
(0.0717148 -0.00147405 0.0160143)
(0.0559436 -0.00162619 0.0150715)
(0.0467521 -0.000466829 0.012903)
(0.0380855 -0.000293196 0.0109955)
(0.0297206 -0.000600254 0.00894379)
(0.0235784 -0.000534819 0.00656027)
(0.0194105 -0.000395344 0.00459073)
(0.0805912 0.000592395 0.00193131)
(0.0854157 0.000637305 0.000646542)
(0.0791933 -0.0031908 -0.0142056)
(0.0845741 -0.00249253 -0.00927565)
(0.0893565 -0.0014503 0.00826255)
(0.0702136 -0.00203891 0.0135161)
(0.052374 -0.00154634 0.0129625)
(0.0453662 -7.0892e-05 0.0116161)
(0.0387282 5.69081e-05 0.0105385)
(0.0303755 -0.000380443 0.00900774)
(0.0238253 -0.000397348 0.00656788)
(0.0194219 -0.00026339 0.00436326)
(0.081857 -0.00267071 0.00367416)
(0.0887484 0.000450634 0.00393583)
(0.0749213 0.0038645 -0.007249)
(0.0703575 7.95659e-05 -0.00826955)
(0.0820917 -0.000676461 0.0124228)
(0.0712299 0.00168501 0.0233614)
(0.0513403 0.00219775 0.020625)
(0.0384266 0.000495222 0.0160372)
(0.0307888 -0.00028357 0.0139303)
(0.0254539 -0.000151462 0.0113789)
(0.0216251 -1.89082e-05 0.00819438)
(0.0184629 2.8617e-05 0.00568823)
(0.0826327 -0.00220223 0.00442376)
(0.0776932 0.00117036 0.000736094)
(0.0729355 0.00605002 -0.00627296)
(0.0777742 0.00317579 -0.0011707)
(0.0837921 0.000217706 0.0170046)
(0.0724525 0.00157778 0.0256777)
(0.0583074 0.00260768 0.0228001)
(0.0470172 0.00115237 0.0180344)
(0.0363885 9.77945e-05 0.0152875)
(0.0279944 2.94525e-05 0.0123281)
(0.0225074 9.19092e-05 0.00888682)
(0.0187605 0.000133189 0.00621973)
(0.082362 -0.00132645 0.00452532)
(0.0765064 0.00168327 0.000682565)
(0.0732187 0.00300686 -0.00490645)
(0.0784611 0.000121177 0.000158947)
(0.082744 -0.00111514 0.0166423)
(0.0724367 8.57549e-05 0.0249189)
(0.0601968 0.00116623 0.022352)
(0.0486645 0.000943179 0.0182033)
(0.0370976 0.000412764 0.0157965)
(0.0281728 0.0001835 0.0127205)
(0.0224206 0.00012555 0.00911397)
(0.0185746 0.000145768 0.00642402)
(0.0821649 -0.000767545 0.00454546)
(0.076644 0.000919234 0.000709059)
(0.0739027 0.00182975 -0.00404481)
(0.0778404 0.000349804 0.00105632)
(0.080951 -0.000427055 0.0165892)
(0.0717205 7.59544e-05 0.0243396)
(0.0600908 0.000757719 0.0219041)
(0.0483721 0.000841478 0.0183119)
(0.0368784 0.00049333 0.0161555)
(0.028092 0.000243005 0.0129506)
(0.0223433 0.000143608 0.00918819)
(0.018472 0.000132485 0.00645712)
(0.0821589 -0.000389738 0.00449533)
(0.0766589 0.000526109 0.000685811)
(0.0738538 0.000778396 -0.0036432)
(0.0771386 -0.000166477 0.00136715)
(0.0799643 -0.000556429 0.016216)
(0.0715021 -0.00027051 0.023703)
(0.0601982 0.000151627 0.021455)
(0.0483559 0.000364012 0.0182612)
(0.0368397 0.000270227 0.0162987)
(0.0280981 0.000146157 0.0130603)
(0.0223523 8.72402e-05 0.00921649)
(0.0184623 7.88154e-05 0.00645219)
(0.0821401 -0.000112568 0.00446554)
(0.0767436 0.00016777 0.000684665)
(0.0739335 0.000267007 -0.00344504)
(0.0767906 1.97216e-05 0.00144587)
(0.0793908 -8.69347e-05 0.0159638)
(0.0712958 5.58197e-06 0.0233578)
(0.0601492 0.000143826 0.0212309)
(0.048265 0.000205436 0.0182298)
(0.0367639 0.000145042 0.0163566)
(0.0280671 7.82671e-05 0.0131081)
(0.0223403 4.43569e-05 0.00922685)
(0.0184528 3.37152e-05 0.00644346)
(0.0821401 0.000112143 0.00446552)
(0.0767436 -0.000168543 0.000684624)
(0.0739334 -0.000268316 -0.00344513)
(0.0767903 -2.15602e-05 0.00144559)
(0.0793905 8.51792e-05 0.0159634)
(0.0712959 -6.78646e-06 0.0233575)
(0.0601495 -0.000144858 0.0212307)
(0.0482652 -0.000206808 0.0182297)
(0.036764 -0.000146623 0.0163565)
(0.0280672 -7.95693e-05 0.013108)
(0.0223405 -4.51575e-05 0.00922677)
(0.0184529 -3.40701e-05 0.00644339)
(0.0821589 0.000389343 0.00449527)
(0.0766587 -0.000526748 0.000685702)
(0.0738535 -0.000779498 -0.00364352)
(0.0771376 0.000164865 0.00136627)
(0.0799634 0.000554889 0.0162149)
(0.0715024 0.000269498 0.0237022)
(0.0601991 -0.000152496 0.0214544)
(0.0483566 -0.000365267 0.0182609)
(0.0368402 -0.000271679 0.0162984)
(0.0280985 -0.000147313 0.01306)
(0.0223527 -8.79219e-05 0.00921621)
(0.0184625 -7.91081e-05 0.00645198)
(0.0821648 0.000767195 0.00454537)
(0.0766438 -0.000919621 0.000708938)
(0.0739024 -0.0018304 -0.00404521)
(0.077839 -0.000350915 0.00105496)
(0.0809496 0.000425969 0.0165874)
(0.0717212 -7.66114e-05 0.0243384)
(0.0600924 -0.000758273 0.0219032)
(0.0483734 -0.000842464 0.0183114)
(0.0368793 -0.000494496 0.0161552)
(0.0280927 -0.000243878 0.0129502)
(0.0223439 -0.000144074 0.00918777)
(0.0184724 -0.000132672 0.00645684)
(0.0823619 0.0013261 0.00452519)
(0.0765062 -0.00168331 0.000682499)
(0.0732184 -0.0030069 -0.00490683)
(0.0784593 -0.000121644 0.000157146)
(0.0827423 0.00111463 0.0166402)
(0.0724376 -8.60248e-05 0.0249176)
(0.0601991 -0.00116645 0.0223511)
(0.0486666 -0.000943781 0.0182027)
(0.0370991 -0.00041349 0.015796)
(0.028174 -0.000183967 0.01272)
(0.0224215 -0.000125733 0.00911342)
(0.0185754 -0.000145827 0.00642367)
(0.0826326 0.00220197 0.00442352)
(0.0776927 -0.00116997 0.000736104)
(0.0729355 -0.00604941 -0.00627294)
(0.0777726 -0.00317557 -0.00117261)
(0.0837908 -0.000217714 0.0170022)
(0.0724539 -0.00157791 0.0256766)
(0.0583101 -0.00260803 0.0227993)
(0.0470198 -0.00115286 0.0180336)
(0.0363907 -9.80193e-05 0.0152867)
(0.0279962 -2.93796e-05 0.0123274)
(0.022509 -9.17539e-05 0.00888629)
(0.0187618 -0.000133121 0.0062194)
(0.0818568 0.00267051 0.00367398)
(0.0887473 -0.000450274 0.00393577)
(0.0749221 -0.00386424 -0.00724818)
(0.0703562 -7.93732e-05 -0.00827082)
(0.0820909 0.000676775 0.0124202)
(0.0712323 -0.0016849 0.0233604)
(0.0513429 -0.00219798 0.0206246)
(0.0384281 -0.000495446 0.0160364)
(0.0307901 0.000283655 0.0139292)
(0.0254557 0.000151715 0.011378)
(0.0216273 1.91237e-05 0.0081938)
(0.0184655 -2.85358e-05 0.00568785)
(0.0188274 0.00739002 0.00104188)
(0.0185158 0.00612683 0.00170777)
(0.0299656 -0.000932519 -0.0129252)
(0.0365109 -0.00637536 -0.0132675)
(0.0554735 -0.0049498 0.0100062)
(0.0577801 -0.000101893 0.0267672)
(0.0464841 0.00174824 0.0265137)
(0.0342866 0.000350945 0.0211608)
(0.0268053 -0.000616855 0.0173306)
(0.0228179 -0.000579473 0.0135926)
(0.0199895 -0.000333914 0.00991554)
(0.0174042 -0.000137991 0.00709785)
(0.0185572 0.00771949 0.00185239)
(0.0259212 0.00752639 -0.00080634)
(0.0401497 0.00266079 -0.0108711)
(0.0488663 -0.00286328 -0.00590787)
(0.0600486 -0.00401732 0.0157417)
(0.0603335 -0.000471683 0.0291562)
(0.0541751 0.00176046 0.0281664)
(0.0437905 0.000785453 0.0236744)
(0.0330017 -0.000266102 0.020071)
(0.0256739 -0.000380435 0.0155908)
(0.0211108 -0.000214917 0.011034)
(0.0178473 -4.79038e-05 0.00773237)
(0.0179166 0.0042941 0.00194154)
(0.026135 0.00486619 -0.000476155)
(0.0409753 0.000152055 -0.0083954)
(0.0497856 -0.00434487 -0.00352201)
(0.0592422 -0.00470654 0.0155635)
(0.0598928 -0.00215263 0.0277743)
(0.0545144 8.45905e-05 0.0274984)
(0.0439347 0.000632648 0.0242333)
(0.0329883 0.000332394 0.0208802)
(0.0256017 7.88111e-05 0.0161182)
(0.0209224 1.53914e-05 0.0113393)
(0.017613 5.74522e-05 0.00796519)
(0.0173548 0.00214486 0.00182088)
(0.0257398 0.00296884 -0.000841349)
(0.0403475 0.000392887 -0.00786252)
(0.0485695 -0.00241954 -0.00280881)
(0.0573547 -0.00290144 0.0151033)
(0.0584137 -0.0015327 0.0265244)
(0.0528237 -1.55018e-05 0.0267372)
(0.0423524 0.000619966 0.0242937)
(0.0321541 0.000452284 0.021178)
(0.0252782 0.000204792 0.0163199)
(0.0207437 9.56771e-05 0.0114348)
(0.0174638 8.60109e-05 0.00802149)
(0.0169864 0.000868167 0.00169724)
(0.0250868 0.00140378 -0.00116197)
(0.0395716 -6.40619e-05 -0.00746542)
(0.0477869 -0.0016509 -0.00233502)
(0.0564122 -0.00190507 0.0146411)
(0.0577936 -0.00116529 0.0256071)
(0.0522169 -0.000265059 0.0261585)
(0.0418101 0.000256891 0.0242128)
(0.0318574 0.000261275 0.0212877)
(0.0251693 0.000141149 0.0164147)
(0.0207001 7.38253e-05 0.0114744)
(0.017427 6.14507e-05 0.00803126)
(0.0168668 0.00026858 0.00165747)
(0.0248402 0.000460722 -0.00128032)
(0.0391992 3.61265e-05 -0.00731223)
(0.0472946 -0.000457471 -0.00224205)
(0.0557962 -0.000541164 0.014302)
(0.0573472 -0.000298549 0.0250914)
(0.0518484 3.23927e-06 0.0258443)
(0.0415112 0.000161066 0.0241382)
(0.0316864 0.000133672 0.0213169)
(0.0250972 7.31425e-05 0.0164506)
(0.0206705 3.93057e-05 0.0114869)
(0.0174093 2.80505e-05 0.00802774)
(0.0168667 -0.000269858 0.00165746)
(0.0248401 -0.000461852 -0.0012804)
(0.039199 -3.73482e-05 -0.00731235)
(0.0472943 0.000455783 -0.00224239)
(0.0557957 0.000539457 0.0143015)
(0.0573469 0.000297062 0.0250909)
(0.0518482 -4.68692e-06 0.025844)
(0.041511 -0.000162401 0.0241381)
(0.0316864 -0.000134709 0.0213168)
(0.0250972 -7.37937e-05 0.0164505)
(0.0206706 -3.95896e-05 0.0114868)
(0.0174093 -2.80588e-05 0.00802768)
(0.0169863 -0.000869269 0.00169722)
(0.0250864 -0.00140462 -0.00116218)
(0.0395711 6.30725e-05 -0.00746579)
(0.0477858 0.00164944 -0.002336)
(0.0564109 0.00190361 0.0146395)
(0.0577927 0.00116409 0.0256057)
(0.0522162 0.000263818 0.0261576)
(0.0418096 -0.000258121 0.0242123)
(0.0318572 -0.000262223 0.0212874)
(0.0251693 -0.0001417 0.0164144)
(0.0207002 -7.40277e-05 0.011474)
(0.017427 -6.14239e-05 0.00803105)
(0.0173546 -0.0021456 0.00182084)
(0.0257392 -0.00296907 -0.000841655)
(0.0403467 -0.000393358 -0.00786301)
(0.0485678 0.00241856 -0.00281031)
(0.0573526 0.00290052 0.0151008)
(0.0584125 0.00153207 0.0265222)
(0.052823 1.47292e-05 0.0267359)
(0.0423519 -0.000620926 0.024293)
(0.032154 -0.000453031 0.0211774)
(0.0252783 -0.000205155 0.0163193)
(0.0207438 -9.57412e-05 0.0114343)
(0.0174638 -8.59326e-05 0.00802122)
(0.0179163 -0.00429441 0.00194149)
(0.0261342 -0.00486557 -0.00047647)
(0.0409744 -0.000151917 -0.00839582)
(0.0497836 0.00434442 -0.00352379)
(0.0592397 0.00470621 0.0155605)
(0.0598918 0.00215265 0.0277718)
(0.0545142 -8.47904e-05 0.027497)
(0.0439346 -0.000633219 0.0242326)
(0.0329885 -0.000332844 0.0208795)
(0.0256021 -7.89232e-05 0.0161175)
(0.0209228 -1.52879e-05 0.0113387)
(0.0176132 -5.73209e-05 0.00796486)
(0.0185566 -0.00771923 0.00185227)
(0.0259207 -0.00752501 -0.000806484)
(0.040149 -0.00266003 -0.0108709)
(0.0488645 0.00286345 -0.00590952)
(0.0600462 0.00401756 0.0157384)
(0.0603334 0.000472203 0.0291538)
(0.0541762 -0.00176023 0.028165)
(0.0437916 -0.000785634 0.0236735)
(0.0330028 0.000266047 0.0200702)
(0.025675 0.000380653 0.0155901)
(0.0211118 0.000215198 0.0110334)
(0.0178483 4.80626e-05 0.00773207)
(0.0188261 -0.00738983 0.00104194)
(0.018515 -0.00612564 0.00170797)
(0.0299654 0.000933053 -0.0129238)
(0.0365098 0.00637549 -0.0132683)
(0.0554717 0.0049503 0.010003)
(0.0577812 0.000102421 0.0267652)
(0.0464868 -0.00174815 0.026513)
(0.034289 -0.000351087 0.0211601)
(0.0268074 0.00061692 0.0173296)
(0.0228199 0.000579731 0.0135918)
(0.0199918 0.00033416 0.00991495)
(0.0174067 0.000138096 0.00709745)
(0.00114548 0.00230626 -0.0202711)
(0.0170058 0.00171583 -0.00915707)
(0.0286895 -0.00249104 -0.016886)
(0.0269501 -0.00711977 -0.0149194)
(0.0376165 -0.00664708 0.00727374)
(0.0443996 -0.00177064 0.0273109)
(0.0392778 0.000782433 0.0302345)
(0.0300179 0.000159061 0.0254629)
(0.024035 -0.000637832 0.0202877)
(0.0208252 -0.000698396 0.015431)
(0.018448 -0.000427975 0.0113263)
(0.0162652 -0.000179899 0.00827847)
(0.00279202 0.0035865 -0.0134133)
(0.0175852 0.0021874 -0.0102877)
(0.028142 -0.00231253 -0.0172908)
(0.0309459 -0.00672921 -0.0104292)
(0.0392104 -0.00695667 0.0123349)
(0.0442821 -0.00276333 0.0290969)
(0.0428971 0.000360169 0.0314473)
(0.0352155 0.000306026 0.0283131)
(0.0275816 -0.000370714 0.0237596)
(0.0227134 -0.000481674 0.0179504)
(0.0193034 -0.000301172 0.0126934)
(0.0166904 -0.000103572 0.00898308)
(0.0031296 0.00226614 -0.0119991)
(0.0171919 0.00144369 -0.00946475)
(0.0277976 -0.00281192 -0.0149248)
(0.0311446 -0.00690071 -0.00829094)
(0.0381194 -0.00711572 0.0119035)
(0.0423155 -0.00386604 0.0273447)
(0.0408945 -0.000636549 0.0306481)
(0.033815 0.000523521 0.0287976)
(0.026864 0.000341943 0.0244957)
(0.0223124 5.31409e-05 0.0184802)
(0.0189728 -2.1127e-05 0.0130157)
(0.0164131 2.34056e-05 0.00921424)
(0.00295655 0.00138814 -0.0123902)
(0.0164725 0.00111846 -0.00982308)
(0.0266134 -0.0016233 -0.0144854)
(0.0298817 -0.00439055 -0.00769896)
(0.0363346 -0.0047292 0.0112308)
(0.0400834 -0.00272005 0.0257742)
(0.0382779 -0.000468199 0.0296263)
(0.0318209 0.00052502 0.0286013)
(0.0258313 0.00043915 0.0246368)
(0.0218416 0.000192067 0.0186447)
(0.0187076 7.56748e-05 0.0131216)
(0.0162259 6.33644e-05 0.00928416)
(0.00277416 0.0006013 -0.0127312)
(0.0157863 0.000511892 -0.0100859)
(0.0257091 -0.00107638 -0.0139675)
(0.029239 -0.00267262 -0.00714059)
(0.0356267 -0.00286653 0.0108133)
(0.0393001 -0.00176186 0.0248038)
(0.0373948 -0.000456519 0.0289692)
(0.0311363 0.000232019 0.028404)
(0.0254391 0.000265345 0.0246679)
(0.0216609 0.00014216 0.0187159)
(0.0186188 6.80254e-05 0.0131657)
(0.0161646 5.19692e-05 0.0093049)
(0.00271395 0.000204311 -0.012905)
(0.01547 0.000193276 -0.0102225)
(0.0252422 -0.000300171 -0.0138009)
(0.0288413 -0.000808244 -0.00698041)
(0.0351745 -0.00087361 0.0105092)
(0.0388648 -0.000505637 0.0242604)
(0.03698 -7.29552e-05 0.0285977)
(0.0308182 0.000136091 0.0282613)
(0.0252467 0.000124777 0.0246565)
(0.021568 6.99642e-05 0.0187379)
(0.0185747 3.62261e-05 0.0131787)
(0.0161386 2.44558e-05 0.00930635)
(0.00271392 -0.000205354 -0.012905)
(0.0154698 -0.000193723 -0.0102226)
(0.025242 0.000299696 -0.013801)
(0.0288409 0.00080705 -0.00698072)
(0.035174 0.000871965 0.0105086)
(0.0388642 0.000503919 0.0242599)
(0.0369794 7.14731e-05 0.0285973)
(0.0308178 -0.000136972 0.0282611)
(0.0252466 -0.00012512 0.0246563)
(0.0215679 -7.00037e-05 0.0187378)
(0.0185747 -3.6056e-05 0.0131786)
(0.0161386 -2.41675e-05 0.00930628)
(0.00277405 -0.00060217 -0.0127313)
(0.0157859 -0.000512137 -0.0100861)
(0.0257085 0.00107605 -0.0139678)
(0.029238 0.00267158 -0.00714149)
(0.0356252 0.0028651 0.0108117)
(0.0392984 0.00176038 0.0248022)
(0.0373931 0.000455194 0.0289681)
(0.0311352 -0.000232838 0.0284032)
(0.0254386 -0.000265642 0.0246673)
(0.0216606 -0.00014214 0.0187154)
(0.0186186 -6.78073e-05 0.0131653)
(0.0161643 -5.16691e-05 0.0093047)
(0.00295641 -0.00138865 -0.0123903)
(0.0164718 -0.00111828 -0.0098235)
(0.0266124 0.00162328 -0.0144859)
(0.0298802 0.00438983 -0.00770034)
(0.0363324 0.00472821 0.0112283)
(0.0400809 0.0027191 0.0257717)
(0.0382756 0.000467269 0.0296246)
(0.0318193 -0.000525658 0.0286002)
(0.0258306 -0.000439342 0.0246359)
(0.0218412 -0.000191948 0.018644)
(0.0187074 -7.53884e-05 0.0131211)
(0.0162256 -6.30584e-05 0.00928389)
(0.00312944 -0.00226622 -0.0119992)
(0.017191 -0.00144298 -0.00946522)
(0.0277964 0.00281225 -0.0149251)
(0.0311428 0.00690028 -0.00829254)
(0.0381166 0.00711524 0.0119002)
(0.0423127 0.00386575 0.0273417)
(0.0408919 0.00063612 0.0306461)