/*--------------------------------*- C++ -*----------------------------------*\
| =========                 |                                                 |
| \\      /  F ield         | OpenFOAM: The Open Source CFD Toolbox           |
|  \\    /   O peration     | Version:  2.3.1                                 |
|   \\  /    A nd           | Web:      www.OpenFOAM.org                      |
|    \\/     M anipulation  |                                                 |
\*---------------------------------------------------------------------------*/
FoamFile
{
    version     2.0;
    format      ascii;
    class       volScalarField;
    location    "15";
    object      epsilon_0;
}
// * * * * * * * * * * * * * * * * * * * * * * * * * * * * * * * * * * * * * //

dimensions      [0 2 -3 0 0 0 0];

internalField   nonuniform List<scalar> 
37758
(
1.25198e-05
1.32949e-05
1.49278e-05
1.59604e-05
1.68563e-05
1.88647e-05
1.95925e-05
2.10558e-05
2.24644e-05
2.31495e-05
2.51499e-05
2.64127e-05
1.28661e-05
1.49775e-05
1.81721e-05
1.98812e-05
2.2294e-05
2.63279e-05
2.80753e-05
3.16946e-05
3.49385e-05
3.71656e-05
4.2876e-05
4.67171e-05
1.28398e-05
1.48346e-05
1.82493e-05
2.01156e-05
2.25186e-05
2.61569e-05
2.78459e-05
3.15193e-05
3.49569e-05
3.76025e-05
4.39736e-05
4.80753e-05
1.29315e-05
1.46125e-05
1.81864e-05
2.03298e-05
2.26126e-05
2.61675e-05
2.77964e-05
3.13828e-05
3.51661e-05
3.78504e-05
4.45888e-05
4.82475e-05
1.29756e-05
1.45582e-05
1.81294e-05
2.04091e-05
2.263e-05
2.61462e-05
2.77995e-05
3.15203e-05
3.55662e-05
3.83316e-05
4.5171e-05
4.86639e-05
1.29753e-05
1.45511e-05
1.81374e-05
2.04375e-05
2.26068e-05
2.61073e-05
2.77816e-05
3.16081e-05
3.57376e-05
3.8551e-05
4.54027e-05
4.87551e-05
1.29753e-05
1.45511e-05
1.81374e-05
2.04376e-05
2.26067e-05
2.61072e-05
2.77816e-05
3.16081e-05
3.5738e-05
3.85513e-05
4.54031e-05
4.87559e-05
1.29756e-05
1.45582e-05
1.81293e-05
2.04093e-05
2.26297e-05
2.61461e-05
2.77995e-05
3.15204e-05
3.55674e-05
3.83328e-05
4.51723e-05
4.86662e-05
1.29315e-05
1.46125e-05
1.81862e-05
2.03301e-05
2.26123e-05
2.61674e-05
2.77965e-05
3.13828e-05
3.51674e-05
3.78518e-05
4.45908e-05
4.82512e-05
1.28399e-05
1.48345e-05
1.82493e-05
2.0116e-05
2.25181e-05
2.61566e-05
2.78458e-05
3.15191e-05
3.49581e-05
3.76039e-05
4.39757e-05
4.80789e-05
1.28661e-05
1.49776e-05
1.81721e-05
1.98817e-05
2.22933e-05
2.63275e-05
2.80752e-05
3.16941e-05
3.49398e-05
3.7167e-05
4.2877e-05
4.67205e-05
1.25198e-05
1.3295e-05
1.49278e-05
1.59607e-05
1.68559e-05
1.88644e-05
1.95925e-05
2.10555e-05
2.24649e-05
2.31499e-05
2.51495e-05
2.64129e-05
6.08924e-06
6.48823e-06
7.09824e-06
7.43251e-06
8.01295e-06
8.69251e-06
9.12787e-06
1.01667e-05
1.0813e-05
1.18814e-05
1.36638e-05
1.44892e-05
1.13026e-06
1.9628e-06
2.87466e-06
3.72977e-06
5.03843e-06
6.09775e-06
7.29242e-06
1.02556e-05
1.18542e-05
1.49621e-05
1.83599e-05
2.02487e-05
1.10045e-06
1.86039e-06
2.75307e-06
3.70268e-06
4.83544e-06
5.75714e-06
6.97498e-06
1.00921e-05
1.2052e-05
1.56348e-05
1.97478e-05
2.23486e-05
1.11309e-06
1.82853e-06
2.77742e-06
3.75467e-06
4.83097e-06
5.77568e-06
7.02781e-06
1.0317e-05
1.24208e-05
1.59531e-05
2.01885e-05
2.24808e-05
1.1237e-06
1.78125e-06
2.84049e-06
3.74472e-06
4.79112e-06
5.83444e-06
7.25215e-06
1.09179e-05
1.31058e-05
1.66383e-05
2.0687e-05
2.26172e-05
1.12465e-06
1.76153e-06
2.88752e-06
3.7437e-06
4.75231e-06
5.82467e-06
7.33031e-06
1.11995e-05
1.34318e-05
1.70114e-05
2.09147e-05
2.26438e-05
1.12464e-06
1.76154e-06
2.88753e-06
3.74366e-06
4.75226e-06
5.82462e-06
7.33036e-06
1.11999e-05
1.34326e-05
1.70122e-05
2.0916e-05
2.26451e-05
1.1237e-06
1.78123e-06
2.8405e-06
3.74461e-06
4.79106e-06
5.83444e-06
7.25247e-06
1.09192e-05
1.31083e-05
1.66409e-05
2.06908e-05
2.2621e-05
1.11309e-06
1.82856e-06
2.77736e-06
3.75447e-06
4.83094e-06
5.77575e-06
7.02825e-06
1.03186e-05
1.2424e-05
1.59567e-05
2.01943e-05
2.24867e-05
1.10044e-06
1.86045e-06
2.75294e-06
3.7025e-06
4.83533e-06
5.75721e-06
6.97521e-06
1.00934e-05
1.2055e-05
1.56387e-05
1.9754e-05
2.2355e-05
1.13024e-06
1.96286e-06
2.8745e-06
3.72976e-06
5.03813e-06
6.09753e-06
7.29215e-06
1.02564e-05
1.18563e-05
1.49648e-05
1.83646e-05
2.02536e-05
6.08924e-06
6.48828e-06
7.09825e-06
7.43255e-06
8.01281e-06
8.69252e-06
9.1278e-06
1.01666e-05
1.08132e-05
1.1881e-05
1.36644e-05
1.44898e-05
6.07527e-06
6.65948e-06
7.13789e-06
7.68057e-06
8.99302e-06
9.85751e-06
1.08664e-05
1.34073e-05
1.48341e-05
1.79986e-05
2.215e-05
2.36921e-05
1.26055e-06
4.32962e-06
8.94459e-06
1.45584e-05
2.18046e-05
2.56707e-05
3.14687e-05
4.03412e-05
4.37593e-05
5.01168e-05
5.27118e-05
5.15533e-05
1.20982e-06
4.52146e-06
8.69892e-06
1.4153e-05
2.09597e-05
2.50084e-05
3.17855e-05
4.16068e-05
4.68651e-05
5.40615e-05
5.71676e-05
5.62146e-05
1.20814e-06
4.64049e-06
8.68349e-06
1.38496e-05
2.07261e-05
2.50701e-05
3.21375e-05
4.23322e-05
4.77736e-05
5.43531e-05
5.72324e-05
5.63141e-05
1.21092e-06
4.53138e-06
8.78194e-06
1.34349e-05
2.047e-05
2.58912e-05
3.37005e-05
4.40943e-05
4.92995e-05
5.50359e-05
5.72279e-05
5.62013e-05
1.20839e-06
4.49299e-06
8.89704e-06
1.317e-05
2.02419e-05
2.61384e-05
3.43852e-05
4.49872e-05
5.01712e-05
5.55371e-05
5.72856e-05
5.61658e-05
1.20837e-06
4.493e-06
8.89713e-06
1.31696e-05
2.02416e-05
2.61388e-05
3.43862e-05
4.49892e-05
5.01737e-05
5.55396e-05
5.72883e-05
5.61684e-05
1.21091e-06
4.53128e-06
8.78211e-06
1.3434e-05
2.04698e-05
2.58932e-05
3.3704e-05
4.41006e-05
4.93075e-05
5.50436e-05
5.72356e-05
5.6209e-05
1.20812e-06
4.64047e-06
8.68331e-06
1.38482e-05
2.07263e-05
2.50727e-05
3.21418e-05
4.23407e-05
4.7785e-05
5.43646e-05
5.72442e-05
5.63257e-05
1.20981e-06
4.52159e-06
8.69814e-06
1.41514e-05
2.09595e-05
2.501e-05
3.17884e-05
4.16153e-05
4.68773e-05
5.40737e-05
5.7181e-05
5.62278e-05
1.26053e-06
4.32969e-06
8.94342e-06
1.45569e-05
2.18034e-05
2.56718e-05
3.14698e-05
4.03472e-05
4.37695e-05
5.01264e-05
5.27231e-05
5.15645e-05
6.07526e-06
6.65958e-06
7.13787e-06
7.6804e-06
8.99271e-06
9.85804e-06
1.08663e-05
1.34077e-05
1.4835e-05
1.79983e-05
2.21526e-05
2.36949e-05
6.21038e-06
7.47708e-06
8.76108e-06
1.11691e-05
1.48854e-05
1.67383e-05
2.00258e-05
2.36077e-05
2.61464e-05
2.91888e-05
3.23459e-05
3.34966e-05
1.67362e-05
6.08463e-05
8.91238e-05
0.000107512
0.000114146
0.000113093
0.000110104
0.000104075
9.55327e-05
8.69216e-05
7.91946e-05
6.95447e-05
1.66393e-05
6.7837e-05
9.31782e-05
0.000109178
0.000115368
0.000114653
0.00011272
0.000108295
0.000101569
9.2983e-05
8.45128e-05
7.56625e-05
1.67259e-05
6.99393e-05
9.42286e-05
0.000108734
0.000114981
0.000114492
0.000112774
0.000108566
0.000102082
9.33326e-05
8.51031e-05
7.68719e-05
1.69441e-05
7.01054e-05
9.40752e-05
0.000107876
0.000115365
0.000115637
0.000114088
0.000109447
0.000102477
9.33849e-05
8.51971e-05
7.72547e-05
1.69344e-05
7.03484e-05
9.4133e-05
0.000107305
0.000115415
0.000116397
0.000114856
0.000110042
0.000102813
9.34553e-05
8.52137e-05
7.73502e-05
1.69341e-05
7.03489e-05
9.4133e-05
0.000107304
0.000115416
0.000116399
0.000114858
0.000110044
0.000102815
9.3457e-05
8.52151e-05
7.73516e-05
1.6944e-05
7.01061e-05
9.40747e-05
0.000107875
0.000115368
0.000115643
0.000114094
0.000109454
0.000102482
9.33899e-05
8.52011e-05
7.72589e-05
1.67258e-05
6.994e-05
9.42275e-05
0.000108733
0.000114986
0.000114499
0.000112783
0.000108576
0.000102091
9.33404e-05
8.51094e-05
7.68782e-05
1.66394e-05
6.78376e-05
9.3176e-05
0.000109175
0.000115372
0.000114659
0.000112729
0.000108307
0.000101579
9.29928e-05
8.45206e-05
7.56699e-05
1.67362e-05
6.08452e-05
8.91198e-05
0.000107508
0.000114148
0.000113097
0.000110112
0.000104086
9.55459e-05
8.69329e-05
7.92035e-05
6.95527e-05
6.2102e-06
7.47752e-06
8.76049e-06
1.1168e-05
1.48864e-05
1.67396e-05
2.00263e-05
2.36101e-05
2.61497e-05
2.91919e-05
3.23496e-05
3.35006e-05
7.20283e-06
1.03025e-05
1.56427e-05
1.92505e-05
2.26125e-05
2.51227e-05
2.64274e-05
2.7965e-05
2.97583e-05
3.05082e-05
3.13787e-05
3.19281e-05
0.000201873
0.000227392
0.000232518
0.00021799
0.000187405
0.000161035
0.000135909
0.000113981
9.84388e-05
8.37614e-05
7.18791e-05
6.12448e-05
0.000259244
0.000291982
0.000277053
0.00024109
0.000201498
0.000171242
0.000145096
0.000122487
0.00010688
9.18179e-05
8.00985e-05
6.98904e-05
0.000268646
0.000305084
0.00028766
0.000247116
0.000204963
0.000173166
0.000146707
0.00012404
0.000108625
9.39093e-05
8.27423e-05
7.31e-05
0.00027319
0.000309999
0.000291754
0.000249541
0.000206665
0.00017408
0.000147059
0.000124202
0.000108898
9.44871e-05
8.37599e-05
7.44559e-05
0.000274558
0.000311949
0.000293472
0.000250768
0.000207661
0.00017468
0.000147243
0.000124221
0.000108898
9.45832e-05
8.4049e-05
7.49012e-05
0.000274559
0.000311951
0.000293473
0.000250769
0.000207662
0.000174681
0.000147244
0.000124221
0.000108898
9.45834e-05
8.40489e-05
7.49013e-05
0.000273194
0.000310004
0.000291758
0.000249544
0.000206668
0.000174083
0.000147062
0.000124203
0.000108898
9.44878e-05
8.37596e-05
7.4456e-05
0.000268653
0.00030509
0.000287665
0.00024712
0.000204968
0.00017317
0.000146711
0.000124042
0.000108626
9.39107e-05
8.2742e-05
7.31002e-05
0.000259249
0.000291988
0.000277059
0.000241095
0.000201504
0.000171247
0.000145102
0.000122491
0.000106883
9.18206e-05
8.00989e-05
6.98911e-05
0.000201875
0.000227396
0.000232525
0.000217998
0.000187415
0.000161046
0.000135923
0.000113992
9.84478e-05
8.3768e-05
7.18819e-05
6.12465e-05
7.20283e-06
1.03023e-05
1.56429e-05
1.92515e-05
2.26142e-05
2.51258e-05
2.64324e-05
2.79703e-05
2.97645e-05
3.05131e-05
3.13818e-05
3.19301e-05
4.63114e-06
6.35343e-06
9.4635e-06
1.26391e-05
1.59926e-05
1.81745e-05
2.00167e-05
2.18535e-05
2.22909e-05
2.15501e-05
2.13446e-05
2.18914e-05
3.05902e-05
4.91459e-05
7.92681e-05
9.37909e-05
9.42622e-05
8.98985e-05
7.96787e-05
6.98355e-05
6.24792e-05
5.4035e-05
4.81221e-05
4.2805e-05
4.25558e-05
7.96061e-05
0.000107648
0.000118981
0.000115575
0.000106911
9.44108e-05
8.27872e-05
7.477e-05
6.57788e-05
5.91397e-05
5.26256e-05
4.57855e-05
8.89074e-05
0.000119274
0.000129251
0.000124223
0.000113337
9.97444e-05
8.75346e-05
7.93873e-05
7.05456e-05
6.38924e-05
5.71898e-05
4.71713e-05
9.20823e-05
0.000123889
0.000133397
0.000127714
0.000115706
0.000101415
8.90501e-05
8.10411e-05
7.2535e-05
6.6025e-05
5.93188e-05
4.75842e-05
9.29672e-05
0.000125371
0.000134837
0.000128922
0.00011643
0.000101821
8.94222e-05
8.14944e-05
7.31751e-05
6.67782e-05
6.01159e-05
4.75841e-05
9.29668e-05
0.00012537
0.000134836
0.000128921
0.000116429
0.000101821
8.9421e-05
8.14931e-05
7.31742e-05
6.67772e-05
6.01151e-05
4.71715e-05
9.20818e-05
0.000123887
0.000133396
0.000127713
0.000115704
0.000101412
8.90467e-05
8.10377e-05
7.25325e-05
6.60221e-05
5.93165e-05
4.5786e-05
8.89065e-05
0.000119272
0.00012925
0.000124222
0.000113333
9.97419e-05
8.75307e-05
7.93829e-05
7.05423e-05
6.38884e-05
5.71866e-05
4.25555e-05
7.96043e-05
0.000107646
0.00011898
0.000115575
0.00010691
9.44111e-05
8.27854e-05
7.47672e-05
6.57763e-05
5.91358e-05
5.26224e-05
3.05892e-05
4.91458e-05
7.92722e-05
9.37988e-05
9.42718e-05
8.99088e-05
7.96896e-05
6.98424e-05
6.24829e-05
5.40357e-05
4.8119e-05
4.28018e-05
4.63096e-06
6.3535e-06
9.46476e-06
1.26412e-05
1.59963e-05
1.81797e-05
2.0023e-05
2.18588e-05
2.22947e-05
2.15517e-05
2.13428e-05
2.18877e-05
4.04748e-06
4.88523e-06
6.14674e-06
7.86415e-06
9.90732e-06
1.18088e-05
1.35017e-05
1.44572e-05
1.44002e-05
1.40092e-05
1.45312e-05
1.65407e-05
7.17489e-06
1.17731e-05
2.07743e-05
2.8924e-05
3.49971e-05
3.7653e-05
3.74841e-05
3.66184e-05
3.55842e-05
3.36845e-05
3.23767e-05
3.03029e-05
1.01265e-05
2.06209e-05
3.27958e-05
4.27548e-05
4.83988e-05
5.01504e-05
4.92148e-05
4.75829e-05
4.64903e-05
4.39751e-05
4.16111e-05
3.81057e-05
1.13512e-05
2.48057e-05
3.91522e-05
4.99144e-05
5.51329e-05
5.62292e-05
5.49519e-05
5.29653e-05
5.17763e-05
4.90855e-05
4.63734e-05
4.22988e-05
1.18622e-05
2.6482e-05
4.19169e-05
5.30251e-05
5.8019e-05
5.87599e-05
5.73047e-05
5.52859e-05
5.41539e-05
5.15503e-05
4.87284e-05
4.44283e-05
1.20292e-05
2.69887e-05
4.28218e-05
5.40658e-05
5.89782e-05
5.95798e-05
5.80601e-05
5.6075e-05
5.49964e-05
5.24763e-05
4.96413e-05
4.5289e-05
1.20292e-05
2.69883e-05
4.28212e-05
5.40649e-05
5.8977e-05
5.95785e-05
5.80587e-05
5.60736e-05
5.4995e-05
5.24751e-05
4.96401e-05
4.5288e-05
1.18621e-05
2.6481e-05
4.19152e-05
5.30228e-05
5.80158e-05
5.87561e-05
5.7301e-05
5.52819e-05
5.415e-05
5.1547e-05
4.87251e-05
4.44257e-05
1.1351e-05
2.48043e-05
3.91498e-05
4.99114e-05
5.5129e-05
5.62246e-05
5.49475e-05
5.29603e-05
5.17712e-05
4.90811e-05
4.6369e-05
4.22952e-05
1.01261e-05
2.06193e-05
3.27937e-05
4.27528e-05
4.83966e-05
5.01478e-05
4.92123e-05
4.75794e-05
4.64861e-05
4.39709e-05
4.16066e-05
3.81023e-05
7.17448e-06
1.17726e-05
2.07753e-05
2.8927e-05
3.50015e-05
3.76577e-05
3.74882e-05
3.66201e-05
3.55833e-05
3.36816e-05
3.23725e-05
3.02998e-05
4.04718e-06
4.8851e-06
6.14744e-06
7.86567e-06
9.90984e-06
1.18122e-05
1.35052e-05
1.44591e-05
1.44014e-05
1.40083e-05
1.45281e-05
1.65348e-05
4.00256e-06
4.43125e-06
5.14017e-06
6.2448e-06
7.55382e-06
8.84945e-06
9.70504e-06
1.01429e-05
1.03913e-05
1.08788e-05
1.2188e-05
1.53148e-05
3.9819e-06
5.29077e-06
7.56937e-06
1.0755e-05
1.42537e-05
1.7155e-05
1.92449e-05
2.09849e-05
2.25223e-05
2.35283e-05
2.36726e-05
2.31764e-05
4.65178e-06
7.77794e-06
1.17043e-05
1.63153e-05
2.06408e-05
2.40326e-05
2.63564e-05
2.83345e-05
3.02593e-05
3.06549e-05
3.02073e-05
2.87006e-05
5.10211e-06
9.40023e-06
1.44367e-05
1.98904e-05
2.45653e-05
2.81083e-05
3.04993e-05
3.2663e-05
3.46302e-05
3.47375e-05
3.40155e-05
3.19248e-05
5.31847e-06
1.01842e-05
1.58098e-05
2.16676e-05
2.6489e-05
3.0087e-05
3.25282e-05
3.48646e-05
3.68774e-05
3.68894e-05
3.6023e-05
3.36423e-05
5.40148e-06
1.04687e-05
1.63208e-05
2.23297e-05
2.72057e-05
3.08237e-05
3.32997e-05
3.57319e-05
3.77772e-05
3.77611e-05
3.684e-05
3.43621e-05
5.40145e-06
1.04685e-05
1.63204e-05
2.23291e-05
2.72049e-05
3.08227e-05
3.32987e-05
3.57308e-05
3.7776e-05
3.77601e-05
3.6839e-05
3.43614e-05
5.3184e-06
1.01836e-05
1.58088e-05
2.16659e-05
2.64867e-05
3.00843e-05
3.25254e-05
3.48615e-05
3.68743e-05
3.68865e-05
3.60204e-05
3.36403e-05
5.10199e-06
9.39948e-06
1.44353e-05
1.98883e-05
2.45625e-05
2.8105e-05
3.04958e-05
3.2659e-05
3.4626e-05
3.47338e-05
3.4012e-05
3.19222e-05
4.65159e-06
7.77716e-06
1.17032e-05
1.63139e-05
2.06391e-05
2.40306e-05
2.63542e-05
2.83314e-05
3.02554e-05
3.06513e-05
3.02041e-05
2.86985e-05
3.98168e-06
5.29031e-06
7.56938e-06
1.07558e-05
1.42552e-05
1.71565e-05
1.9246e-05
2.09844e-05
2.25201e-05
2.3525e-05
2.36698e-05
2.31747e-05
4.00214e-06
4.43094e-06
5.14068e-06
6.24607e-06
7.55557e-06
8.85137e-06
9.7069e-06
1.01438e-05
1.03916e-05
1.08774e-05
1.21845e-05
1.53091e-05
3.88138e-06
4.22849e-06
4.70067e-06
5.51854e-06
6.43809e-06
7.17021e-06
7.71641e-06
8.19019e-06
8.70436e-06
9.66419e-06
1.13515e-05
1.42657e-05
3.42788e-06
3.85901e-06
4.6011e-06
6.00975e-06
7.89805e-06
9.89871e-06
1.18448e-05
1.39028e-05
1.621e-05
1.77683e-05
1.84105e-05
1.85804e-05
3.50457e-06
4.77522e-06
6.22667e-06
8.34659e-06
1.09063e-05
1.35497e-05
1.60839e-05
1.87279e-05
2.13848e-05
2.29209e-05
2.31485e-05
2.27867e-05
3.68226e-06
5.52239e-06
7.52052e-06
1.01325e-05
1.30773e-05
1.60495e-05
1.88756e-05
2.18585e-05
2.46111e-05
2.59639e-05
2.59709e-05
2.53182e-05
3.79209e-06
5.93371e-06
8.25116e-06
1.11345e-05
1.42791e-05
1.74206e-05
2.04335e-05
2.3609e-05
2.64004e-05
2.75887e-05
2.74953e-05
2.66399e-05
3.84072e-06
6.10052e-06
8.55261e-06
1.1548e-05
1.47746e-05
1.79841e-05
2.10876e-05
2.43543e-05
2.71608e-05
2.82643e-05
2.81246e-05
2.71857e-05
3.8407e-06
6.10041e-06
8.55239e-06
1.15476e-05
1.4774e-05
1.79834e-05
2.10869e-05
2.43535e-05
2.71599e-05
2.82635e-05
2.81239e-05
2.71853e-05
3.79203e-06
5.93339e-06
8.25055e-06
1.11335e-05
1.42777e-05
1.74189e-05
2.04316e-05
2.36068e-05
2.6398e-05
2.75866e-05
2.74934e-05
2.66387e-05
3.68217e-06
5.52195e-06
7.51975e-06
1.01313e-05
1.30756e-05
1.60475e-05
1.88733e-05
2.18558e-05
2.4608e-05
2.5961e-05
2.59684e-05
2.53167e-05
3.50445e-06
4.77476e-06
6.22609e-06
8.34588e-06
1.09054e-05
1.35485e-05
1.60824e-05
1.87257e-05
2.13819e-05
2.29181e-05
2.31464e-05
2.27857e-05
3.42769e-06
3.85867e-06
4.60104e-06
6.01015e-06
7.89877e-06
9.89949e-06
1.18452e-05
1.3902e-05
1.62078e-05
1.77659e-05
1.84084e-05
1.85795e-05
3.88091e-06
4.22812e-06
4.70116e-06
5.51981e-06
6.4397e-06
7.1719e-06
7.71771e-06
8.19079e-06
8.70429e-06
9.6624e-06
1.13491e-05
1.42624e-05
3.92537e-06
3.96166e-06
4.25434e-06
4.88549e-06
5.63532e-06
6.25811e-06
6.74417e-06
7.29887e-06
8.00157e-06
9.18919e-06
1.09506e-05
1.35616e-05
3.17323e-06
3.32628e-06
3.58401e-06
4.38176e-06
5.58884e-06
7.00024e-06
8.55745e-06
1.04391e-05
1.26462e-05
1.40871e-05
1.47954e-05
1.58069e-05
3.01174e-06
3.75976e-06
4.38925e-06
5.53691e-06
7.16041e-06
9.08463e-06
1.12286e-05
1.36598e-05
1.62239e-05
1.78947e-05
1.85726e-05
1.92122e-05
3.04764e-06
4.16626e-06
5.10327e-06
6.52759e-06
8.426e-06
1.06497e-05
1.3137e-05
1.58702e-05
1.85252e-05
2.01693e-05
2.08427e-05
2.13904e-05
3.09459e-06
4.41111e-06
5.53886e-06
7.13039e-06
9.1843e-06
1.15785e-05
1.42608e-05
1.71617e-05
1.98293e-05
2.13701e-05
2.19882e-05
2.24989e-05
3.12088e-06
4.51765e-06
5.73056e-06
7.39659e-06
9.51824e-06
1.19918e-05
1.47575e-05
1.77344e-05
2.03973e-05
2.18651e-05
2.24435e-05
2.29393e-05
3.12086e-06
4.51757e-06
5.73042e-06
7.39637e-06
9.51792e-06
1.19914e-05
1.47571e-05
1.77339e-05
2.03967e-05
2.18645e-05
2.24431e-05
2.29391e-05
3.09455e-06
4.4109e-06
5.53849e-06
7.1298e-06
9.18348e-06
1.15774e-05
1.42595e-05
1.71603e-05
1.98276e-05
2.13685e-05
2.19868e-05
2.24982e-05
3.04757e-06
4.16596e-06
5.1028e-06
6.52692e-06
8.42507e-06
1.06485e-05
1.31356e-05
1.58684e-05
1.8523e-05
2.01671e-05
2.08409e-05
2.13894e-05
3.01164e-06
3.75943e-06
4.38891e-06
5.53657e-06
7.16e-06
9.08408e-06
1.12278e-05
1.36583e-05
1.62219e-05
1.78927e-05
1.85709e-05
1.92114e-05
3.17302e-06
3.32597e-06
3.58401e-06
4.38213e-06
5.58944e-06
7.00089e-06
8.5578e-06
1.04385e-05
1.26446e-05
1.40855e-05
1.47939e-05
1.58063e-05
3.92477e-06
3.9611e-06
4.25473e-06
4.88679e-06
5.63692e-06
6.25958e-06
6.74523e-06
7.29938e-06
8.00124e-06
9.1879e-06
1.09491e-05
1.35598e-05
3.79903e-06
3.71058e-06
3.88783e-06
4.40945e-06
5.08226e-06
5.69676e-06
6.25769e-06
6.88965e-06
7.70475e-06
8.96864e-06
1.07384e-05
1.3186e-05
3.01676e-06
3.056e-06
3.09958e-06
3.65872e-06
4.56442e-06
5.66714e-06
6.96288e-06
8.60363e-06
1.05808e-05
1.20061e-05
1.27612e-05
1.41947e-05
2.79494e-06
3.31921e-06
3.58444e-06
4.31962e-06
5.49176e-06
6.97602e-06
8.7359e-06
1.08048e-05
1.30825e-05
1.47045e-05
1.55329e-05
1.69629e-05
2.77207e-06
3.5772e-06
4.03863e-06
4.93686e-06
6.2942e-06
8.02057e-06
1.00546e-05
1.23601e-05
1.47156e-05
1.63495e-05
1.73217e-05
1.88968e-05
2.78927e-06
3.74146e-06
4.32927e-06
5.33189e-06
6.79894e-06
8.66209e-06
1.08512e-05
1.32825e-05
1.56339e-05
1.71948e-05
1.82307e-05
1.9923e-05
2.80421e-06
3.81614e-06
4.46229e-06
5.51391e-06
7.03045e-06
8.95478e-06
1.12132e-05
1.36993e-05
1.60344e-05
1.75324e-05
1.85855e-05
2.03347e-05
2.8042e-06
3.81609e-06
4.46219e-06
5.51376e-06
7.03025e-06
8.95453e-06
1.12129e-05
1.36989e-05
1.6034e-05
1.7532e-05
1.85852e-05
2.03345e-05
2.78923e-06
3.7413e-06
4.32901e-06
5.33152e-06
6.79843e-06
8.66145e-06
1.08505e-05
1.32815e-05
1.56327e-05
1.71936e-05
1.82296e-05
1.99223e-05
2.77201e-06
3.57697e-06
4.03832e-06
4.93645e-06
6.29367e-06
8.0199e-06
1.00537e-05
1.23589e-05
1.4714e-05
1.63479e-05
1.73202e-05
1.88959e-05
2.79485e-06
3.31895e-06
3.58422e-06
4.31947e-06
5.49162e-06
6.97581e-06
8.73544e-06
1.08038e-05
1.30809e-05
1.47029e-05
1.55315e-05
1.69619e-05
3.01653e-06
3.05574e-06
3.09963e-06
3.65912e-06
4.565e-06
5.66774e-06
6.9632e-06
8.60319e-06
1.05795e-05
1.20049e-05
1.27602e-05
1.41939e-05
3.79832e-06
3.71003e-06
3.88823e-06
4.41075e-06
5.08387e-06
5.69815e-06
6.25864e-06
6.89012e-06
7.7042e-06
8.96768e-06
1.07374e-05
1.3185e-05
3.80044e-06
3.49496e-06
3.56397e-06
3.99377e-06
4.60869e-06
5.27571e-06
5.92529e-06
6.63652e-06
7.50562e-06
8.71228e-06
1.03996e-05
1.27792e-05
2.92375e-06
2.7973e-06
2.75382e-06
3.21417e-06
3.9823e-06
4.93405e-06
6.09101e-06
7.57408e-06
9.34883e-06
1.07566e-05
1.14664e-05
1.29336e-05
2.63713e-06
2.9943e-06
3.11123e-06
3.67141e-06
4.62137e-06
5.84589e-06
7.3331e-06
9.1368e-06
1.11663e-05
1.27482e-05
1.35777e-05
1.51849e-05
2.58262e-06
3.19078e-06
3.44728e-06
4.10372e-06
5.17896e-06
6.58404e-06
8.27619e-06
1.02446e-05
1.23385e-05
1.39216e-05
1.49139e-05
1.68281e-05
2.58349e-06
3.31682e-06
3.66186e-06
4.3837e-06
5.5323e-06
7.03981e-06
8.84846e-06
1.09017e-05
1.29903e-05
1.45195e-05
1.5616e-05
1.77675e-05
2.59135e-06
3.37496e-06
3.76112e-06
4.51452e-06
5.6966e-06
7.25014e-06
9.11141e-06
1.12005e-05
1.32724e-05
1.47525e-05
1.58949e-05
1.81673e-05
2.59134e-06
3.37491e-06
3.76104e-06
4.51442e-06
5.69647e-06
7.24998e-06
9.1112e-06
1.12002e-05
1.32721e-05
1.47522e-05
1.58946e-05
1.81671e-05
2.58345e-06
3.31669e-06
3.66167e-06
4.38344e-06
5.53196e-06
7.03939e-06
8.84793e-06
1.0901e-05
1.29893e-05
1.45185e-05
1.5615e-05
1.77666e-05
2.58256e-06
3.19059e-06
3.44705e-06
4.10345e-06
5.17863e-06
6.58362e-06
8.27559e-06
1.02437e-05
1.23372e-05
1.39203e-05
1.49127e-05
1.68268e-05
2.63702e-06
2.99407e-06
3.11107e-06
3.67136e-06
4.62135e-06
5.84582e-06
7.33277e-06
9.13599e-06
1.11649e-05
1.27468e-05
1.35766e-05
1.51836e-05
2.92348e-06
2.79704e-06
2.75389e-06
3.21456e-06
3.98283e-06
4.93454e-06
6.0912e-06
7.57365e-06
9.34772e-06
1.07555e-05
1.14657e-05
1.29325e-05
3.79969e-06
3.49428e-06
3.56424e-06
3.99499e-06
4.61027e-06
5.27706e-06
5.9262e-06
6.63697e-06
7.50533e-06
8.7116e-06
1.03986e-05
1.27787e-05
3.65735e-06
3.23012e-06
3.2586e-06
3.64767e-06
4.20199e-06
4.85941e-06
5.55486e-06
6.31757e-06
7.19225e-06
8.36802e-06
9.99153e-06
1.23834e-05
2.74646e-06
2.55312e-06
2.46196e-06
2.87551e-06
3.55967e-06
4.42269e-06
5.49118e-06
6.85531e-06
8.49159e-06
9.92353e-06
1.06439e-05
1.1826e-05
2.47515e-06
2.72378e-06
2.75433e-06
3.22931e-06
4.05409e-06
5.12504e-06
6.44359e-06
8.06747e-06
9.92625e-06
1.15157e-05
1.23234e-05
1.36198e-05
2.41262e-06
2.88731e-06
3.02642e-06
3.56309e-06
4.48088e-06
5.68869e-06
7.15943e-06
8.90301e-06
1.08163e-05
1.23963e-05
1.32885e-05
1.48923e-05
2.40752e-06
2.99248e-06
3.19944e-06
3.77785e-06
4.74839e-06
6.03368e-06
7.5905e-06
9.39391e-06
1.13077e-05
1.28414e-05
1.37917e-05
1.56349e-05
2.41251e-06
3.04128e-06
3.27949e-06
3.87833e-06
4.8726e-06
6.19279e-06
7.78866e-06
9.61655e-06
1.15196e-05
1.30145e-05
1.39921e-05
1.5966e-05
2.41249e-06
3.04123e-06
3.27943e-06
3.87825e-06
4.8725e-06
6.19267e-06
7.7885e-06
9.61634e-06
1.15193e-05
1.30143e-05
1.39918e-05
1.59657e-05
2.40748e-06
2.99236e-06
3.19929e-06
3.77766e-06
4.74815e-06
6.03337e-06
7.59009e-06
9.39331e-06
1.13069e-05
1.28406e-05
1.37909e-05
1.5634e-05
2.41255e-06
2.88714e-06
3.02623e-06
3.56289e-06
4.48066e-06
5.68839e-06
7.15895e-06
8.90221e-06
1.08152e-05
1.23951e-05
1.32876e-05
1.4891e-05
2.47503e-06
2.72357e-06
2.75421e-06
3.2293e-06
4.05412e-06
5.125e-06
6.44329e-06
8.0667e-06
9.92499e-06
1.15145e-05
1.23226e-05
1.36186e-05
2.74617e-06
2.55288e-06
2.46205e-06
2.87588e-06
3.56016e-06
4.42309e-06
5.49128e-06
6.85487e-06
8.49058e-06
9.92256e-06
1.06435e-05
1.18251e-05
3.65654e-06
3.22944e-06
3.25887e-06
3.64879e-06
4.20352e-06
4.86076e-06
5.55577e-06
6.31803e-06
7.1922e-06
8.36755e-06
9.99084e-06
1.23828e-05
3.61815e-06
3.02347e-06
2.98536e-06
3.31727e-06
3.81608e-06
4.43116e-06
5.14424e-06
5.94734e-06
6.84009e-06
7.94094e-06
9.48333e-06
1.18046e-05
2.61288e-06
2.31606e-06
2.20635e-06
2.57563e-06
3.19252e-06
3.98165e-06
4.97401e-06
6.2497e-06
7.81183e-06
9.30124e-06
1.01876e-05
1.09514e-05
2.31394e-06
2.45672e-06
2.44944e-06
2.87221e-06
3.60764e-06
4.56878e-06
5.76524e-06
7.25721e-06
9.01372e-06
1.0662e-05
1.1618e-05
1.24335e-05
2.2457e-06
2.59883e-06
2.67957e-06
3.14896e-06
3.96106e-06
5.03244e-06
6.34883e-06
7.93574e-06
9.73821e-06
1.13772e-05
1.23359e-05
1.33173e-05
2.23773e-06
2.69109e-06
2.82608e-06
3.32542e-06
4.17991e-06
5.31323e-06
6.69677e-06
8.33072e-06
1.01364e-05
1.17341e-05
1.26807e-05
1.38155e-05
2.24127e-06
2.73421e-06
2.89399e-06
3.40771e-06
4.28097e-06
5.44214e-06
6.85606e-06
8.5091e-06
1.03083e-05
1.18736e-05
1.28097e-05
1.40357e-05
2.24125e-06
2.73417e-06
2.89394e-06
3.40764e-06
4.2809e-06
5.44204e-06
6.85592e-06
8.5089e-06
1.0308e-05
1.18734e-05
1.28095e-05
1.40354e-05
2.23768e-06
2.69098e-06
2.82595e-06
3.32527e-06
4.17973e-06
5.31298e-06
6.69641e-06
8.33017e-06
1.01357e-05
1.17334e-05
1.26802e-05
1.38148e-05
2.24562e-06
2.59867e-06
2.67941e-06
3.14881e-06
3.96089e-06
5.03219e-06
6.3484e-06
7.935e-06
9.73713e-06
1.13761e-05
1.23352e-05
1.33165e-05
2.3138e-06
2.45653e-06
2.44935e-06
2.87222e-06
3.60769e-06
4.56875e-06
5.76495e-06
7.25646e-06
9.01249e-06
1.06607e-05
1.16174e-05
1.2433e-05
2.61256e-06
2.31582e-06
2.20643e-06
2.57598e-06
3.19296e-06
3.98199e-06
4.97406e-06
6.24926e-06
7.81085e-06
9.30025e-06
1.01874e-05
1.09512e-05
3.61725e-06
3.02265e-06
2.9855e-06
3.31833e-06
3.81755e-06
4.43252e-06
5.14517e-06
5.94781e-06
6.84016e-06
7.94069e-06
9.48262e-06
1.18035e-05
3.46779e-06
2.77387e-06
2.71632e-06
3.01281e-06
3.45845e-06
4.0092e-06
4.68567e-06
5.48297e-06
6.37143e-06
7.37706e-06
8.72094e-06
1.094e-05
2.43289e-06
2.08621e-06
1.97433e-06
2.30322e-06
2.85263e-06
3.56545e-06
4.47641e-06
5.66101e-06
7.15275e-06
8.71493e-06
9.85055e-06
1.05195e-05
2.14817e-06
2.20655e-06
2.18014e-06
2.55809e-06
3.21212e-06
4.07413e-06
5.16044e-06
6.53459e-06
8.20723e-06
9.93358e-06
1.11678e-05
1.18675e-05
2.08016e-06
2.33004e-06
2.37737e-06
2.79622e-06
3.51808e-06
4.47395e-06
5.66089e-06
7.1168e-06
8.83314e-06
1.05577e-05
1.17691e-05
1.25251e-05
2.07106e-06
2.41149e-06
2.50386e-06
2.94773e-06
3.70693e-06
4.71526e-06
5.95791e-06
7.45413e-06
9.17662e-06
1.0868e-05
1.20376e-05
1.28381e-05
2.07383e-06
2.44992e-06
2.56278e-06
3.0183e-06
3.79395e-06
4.8258e-06
6.09352e-06
7.60611e-06
9.32518e-06
1.09903e-05
1.21312e-05
1.29601e-05
2.07382e-06
2.44988e-06
2.56273e-06
3.01825e-06
3.79389e-06
4.82572e-06
6.0934e-06
7.60592e-06
9.32493e-06
1.099e-05
1.2131e-05
1.296e-05
2.07102e-06
2.41139e-06
2.50375e-06
2.9476e-06
3.70678e-06
4.71505e-06
5.95758e-06
7.45361e-06
9.17589e-06
1.08672e-05
1.20371e-05
1.28377e-05
2.08008e-06
2.3299e-06
2.37724e-06
2.7961e-06
3.51795e-06
4.47375e-06
5.66049e-06
7.11608e-06
8.83207e-06
1.05565e-05
1.17683e-05
1.25246e-05
2.14803e-06
2.20638e-06
2.18007e-06
2.55812e-06
3.21219e-06
4.07412e-06
5.16017e-06
6.53387e-06
8.20601e-06
9.9322e-06
1.1167e-05
1.18673e-05
2.43253e-06
2.08597e-06
1.9744e-06
2.30354e-06
2.85303e-06
3.56576e-06
4.47644e-06
5.66059e-06
7.15178e-06
8.71382e-06
9.85011e-06
1.05196e-05
3.46664e-06
2.77298e-06
2.71639e-06
3.01379e-06
3.45986e-06
4.01056e-06
4.68664e-06
5.48348e-06
6.37162e-06
7.37699e-06
8.72045e-06
1.09384e-05
3.35394e-06
2.54916e-06
2.47076e-06
2.72006e-06
3.11241e-06
3.60925e-06
4.21991e-06
4.97137e-06
5.83127e-06
6.76066e-06
7.85995e-06
9.61417e-06
2.27586e-06
1.87404e-06
1.76629e-06
2.05074e-06
2.52898e-06
3.15981e-06
3.97654e-06
5.05099e-06
6.43906e-06
8.02798e-06
9.42472e-06
1.02898e-05
1.99123e-06
1.97414e-06
1.93988e-06
2.27152e-06
2.84292e-06
3.60394e-06
4.57558e-06
5.82164e-06
7.38499e-06
9.14303e-06
1.06822e-05
1.16048e-05
1.92426e-06
2.08181e-06
2.10959e-06
2.47991e-06
3.1127e-06
3.95592e-06
5.01565e-06
6.33647e-06
7.94524e-06
9.71194e-06
1.1235e-05
1.21588e-05
1.91454e-06
2.15378e-06
2.21941e-06
2.61293e-06
3.27992e-06
4.1691e-06
5.27719e-06
6.63476e-06
8.25353e-06
9.99654e-06
1.1477e-05
1.23891e-05
1.91669e-06
2.18802e-06
2.27091e-06
2.67503e-06
3.35715e-06
4.2669e-06
5.3966e-06
6.76911e-06
8.38727e-06
1.01103e-05
1.15602e-05
1.24659e-05
1.91668e-06
2.18799e-06
2.27088e-06
2.67498e-06
3.3571e-06
4.26683e-06
5.39649e-06
6.76893e-06
8.38701e-06
1.011e-05
1.15599e-05
1.24657e-05
1.9145e-06
2.15369e-06
2.21932e-06
2.61283e-06
3.2798e-06
4.16892e-06
5.27689e-06
6.63427e-06
8.2528e-06
9.99567e-06
1.14762e-05
1.23887e-05
1.92418e-06
2.08168e-06
2.10948e-06
2.47983e-06
3.11261e-06
3.95575e-06
5.01529e-06
6.3358e-06
7.94418e-06
9.71062e-06
1.12339e-05
1.21584e-05
1.99108e-06
1.97399e-06
1.93982e-06
2.27157e-06
2.84301e-06
3.60395e-06
4.57535e-06
5.82097e-06
7.38379e-06
9.1415e-06
1.0681e-05
1.16045e-05
2.2755e-06
1.87383e-06
1.76636e-06
2.05104e-06
2.52935e-06
3.16011e-06
3.97658e-06
5.05062e-06
6.43813e-06
8.02673e-06
9.42385e-06
1.02899e-05
3.35293e-06
2.54838e-06
2.47076e-06
2.72094e-06
3.11374e-06
3.61059e-06
4.22091e-06
4.97192e-06
5.83146e-06
6.76072e-06
7.85982e-06
9.61292e-06
3.1785e-06
2.30379e-06
2.23935e-06
2.45455e-06
2.79241e-06
3.22734e-06
3.76252e-06
4.42613e-06
5.20476e-06
6.05393e-06
6.97309e-06
8.17758e-06
2.10785e-06
1.6774e-06
1.58115e-06
1.8208e-06
2.22511e-06
2.76805e-06
3.4795e-06
4.42257e-06
5.66066e-06
7.1728e-06
8.7115e-06
9.90879e-06
1.8455e-06
1.76469e-06
1.72686e-06
2.01009e-06
2.49601e-06
3.15191e-06
4.00051e-06
5.10035e-06
6.50935e-06
8.19238e-06
9.90423e-06
1.12361e-05
1.78286e-06
1.85887e-06
1.87314e-06
2.19225e-06
2.7337e-06
3.462e-06
4.38919e-06
5.55962e-06
7.01683e-06
8.71875e-06
1.04298e-05
1.17683e-05
1.77308e-06
1.92229e-06
1.96854e-06
2.30967e-06
2.88256e-06
3.65154e-06
4.62164e-06
5.82668e-06
7.29806e-06
8.98586e-06
1.06653e-05
1.19838e-05
1.77468e-06
1.95263e-06
2.01353e-06
2.36485e-06
2.95175e-06
3.73892e-06
4.72804e-06
5.94716e-06
7.42064e-06
9.0943e-06
1.07494e-05
1.20528e-05
1.77467e-06
1.95261e-06
2.0135e-06
2.36481e-06
2.95171e-06
3.73886e-06
4.72794e-06
5.947e-06
7.42039e-06
9.09399e-06
1.07491e-05
1.20525e-05
1.77304e-06
1.92221e-06
1.96845e-06
2.30959e-06
2.88247e-06
3.6514e-06
4.62138e-06
5.82623e-06
7.29736e-06
8.98494e-06
1.06644e-05
1.19831e-05
1.78278e-06
1.85876e-06
1.87305e-06
2.19219e-06
2.73365e-06
3.46187e-06
4.38888e-06
5.55901e-06
7.01582e-06
8.71737e-06
1.04284e-05
1.17672e-05
1.84535e-06
1.76456e-06
1.72683e-06
2.01015e-06
2.49611e-06
3.15195e-06
4.00033e-06
5.09976e-06
6.50823e-06
8.19079e-06
9.90258e-06
1.12351e-05
2.1075e-06
1.67722e-06
1.58122e-06
1.82107e-06
2.22545e-06
2.76833e-06
3.47957e-06
4.42227e-06
5.65984e-06
7.17151e-06
8.71019e-06
9.9082e-06
3.17753e-06
2.30308e-06
2.23934e-06
2.45535e-06
2.79365e-06
3.22864e-06
3.76356e-06
4.42677e-06
5.20503e-06
6.05401e-06
6.97322e-06
8.17739e-06
2.97972e-06
2.06321e-06
2.01544e-06