/*--------------------------------*- C++ -*----------------------------------*\
| =========                 |                                                 |
| \\      /  F ield         | OpenFOAM: The Open Source CFD Toolbox           |
|  \\    /   O peration     | Version:  2.3.1                                 |
|   \\  /    A nd           | Web:      www.OpenFOAM.org                      |
|    \\/     M anipulation  |                                                 |
\*---------------------------------------------------------------------------*/
FoamFile
{
    version     2.0;
    format      ascii;
    class       volScalarField;
    location    "15";
    object      epsilon;
}
// * * * * * * * * * * * * * * * * * * * * * * * * * * * * * * * * * * * * * //

dimensions      [0 2 -3 0 0 0 0];

internalField   nonuniform List<scalar> 
37758
(
1.25201e-05
1.32951e-05
1.49272e-05
1.59619e-05
1.68551e-05
1.88636e-05
1.95924e-05
2.10547e-05
2.2466e-05
2.31505e-05
2.51484e-05
2.64118e-05
1.28666e-05
1.49761e-05
1.81724e-05
1.98845e-05
2.22909e-05
2.6327e-05
2.80752e-05
3.16915e-05
3.49416e-05
3.71656e-05
4.28698e-05
4.67172e-05
1.28409e-05
1.4833e-05
1.82486e-05
2.01186e-05
2.25166e-05
2.61575e-05
2.78465e-05
3.15153e-05
3.49589e-05
3.76005e-05
4.3968e-05
4.80762e-05
1.29328e-05
1.46113e-05
1.81843e-05
2.03322e-05
2.2611e-05
2.61686e-05
2.77975e-05
3.13782e-05
3.51674e-05
3.78482e-05
4.45831e-05
4.82498e-05
1.2977e-05
1.45578e-05
1.81264e-05
2.04112e-05
2.26285e-05
2.61474e-05
2.78005e-05
3.15149e-05
3.55671e-05
3.83294e-05
4.51664e-05
4.86681e-05
1.29767e-05
1.45508e-05
1.81342e-05
2.04397e-05
2.26056e-05
2.61085e-05
2.77825e-05
3.16023e-05
3.57384e-05
3.85487e-05
4.53991e-05
4.87603e-05
1.29767e-05
1.45508e-05
1.81342e-05
2.04397e-05
2.26054e-05
2.61084e-05
2.77825e-05
3.16022e-05
3.57388e-05
3.8549e-05
4.53995e-05
4.87611e-05
1.2977e-05
1.45579e-05
1.81262e-05
2.04114e-05
2.26283e-05
2.61473e-05
2.78005e-05
3.1515e-05
3.55683e-05
3.83305e-05
4.51678e-05
4.86704e-05
1.29329e-05
1.46113e-05
1.81841e-05
2.03324e-05
2.26107e-05
2.61684e-05
2.77976e-05
3.13781e-05
3.51687e-05
3.78497e-05
4.45852e-05
4.82535e-05
1.2841e-05
1.48329e-05
1.82485e-05
2.01189e-05
2.25161e-05
2.61572e-05
2.78464e-05
3.1515e-05
3.49601e-05
3.76018e-05
4.39701e-05
4.80798e-05
1.28667e-05
1.49762e-05
1.81725e-05
1.98849e-05
2.22901e-05
2.63265e-05
2.8075e-05
3.1691e-05
3.49429e-05
3.7167e-05
4.28709e-05
4.67205e-05
1.25201e-05
1.32953e-05
1.49272e-05
1.59622e-05
1.68546e-05
1.88632e-05
1.95924e-05
2.10544e-05
2.24665e-05
2.31509e-05
2.51481e-05
2.6412e-05
6.08934e-06
6.48803e-06
7.09834e-06
7.43293e-06
8.01238e-06
8.69277e-06
9.1277e-06
1.01658e-05
1.08131e-05
1.18794e-05
1.36644e-05
1.44897e-05
1.13025e-06
1.96265e-06
2.87489e-06
3.72958e-06
5.03744e-06
6.09856e-06
7.2905e-06
1.02518e-05
1.18522e-05
1.49566e-05
1.83597e-05
2.02477e-05
1.10048e-06
1.86043e-06
2.75285e-06
3.70253e-06
4.83517e-06
5.75801e-06
6.97342e-06
1.00878e-05
1.20501e-05
1.56284e-05
1.97468e-05
2.23472e-05
1.1132e-06
1.82859e-06
2.77692e-06
3.75464e-06
4.83063e-06
5.7763e-06
7.0259e-06
1.03115e-05
1.24189e-05
1.59463e-05
2.01881e-05
2.24814e-05
1.1239e-06
1.78118e-06
2.83979e-06
3.74504e-06
4.79047e-06
5.8345e-06
7.24919e-06
1.09113e-05
1.31039e-05
1.6632e-05
2.06881e-05
2.26203e-05
1.1249e-06
1.76133e-06
2.88674e-06
3.74433e-06
4.75163e-06
5.82448e-06
7.32677e-06
1.11923e-05
1.34299e-05
1.70055e-05
2.0917e-05
2.26481e-05
1.12489e-06
1.76134e-06
2.88675e-06
3.74429e-06
4.75158e-06
5.82443e-06
7.32682e-06
1.11927e-05
1.34307e-05
1.70063e-05
2.09182e-05
2.26495e-05
1.12389e-06
1.78117e-06
2.8398e-06
3.74494e-06
4.79041e-06
5.8345e-06
7.2495e-06
1.09126e-05
1.31064e-05
1.66346e-05
2.06919e-05
2.26241e-05
1.11319e-06
1.82862e-06
2.77686e-06
3.75443e-06
4.8306e-06
5.77637e-06
7.02634e-06
1.03131e-05
1.24221e-05
1.59499e-05
2.01939e-05
2.24873e-05
1.10047e-06
1.86049e-06
2.75272e-06
3.70235e-06
4.83506e-06
5.75808e-06
6.97364e-06
1.00891e-05
1.20532e-05
1.56322e-05
1.9753e-05
2.23536e-05
1.13023e-06
1.96271e-06
2.87473e-06
3.72957e-06
5.03713e-06
6.09834e-06
7.29023e-06
1.02526e-05
1.18543e-05
1.49592e-05
1.83645e-05
2.02526e-05
6.08934e-06
6.48808e-06
7.09835e-06
7.43297e-06
8.01225e-06
8.69277e-06
9.12763e-06
1.01657e-05
1.08134e-05
1.18791e-05
1.3665e-05
1.44903e-05
6.07512e-06
6.6595e-06
7.13859e-06
7.68018e-06
8.99156e-06
9.85857e-06
1.08653e-05
1.34057e-05
1.48331e-05
1.79932e-05
2.21502e-05
2.3692e-05
1.26049e-06
4.32957e-06
8.94399e-06
1.45516e-05
2.18005e-05
2.56709e-05
3.14531e-05
4.03322e-05
4.37524e-05
5.01021e-05
5.27095e-05
5.15535e-05
1.20974e-06
4.52184e-06
8.69957e-06
1.41484e-05
2.09586e-05
2.50091e-05
3.177e-05
4.15957e-05
4.6856e-05
5.40475e-05
5.71644e-05
5.62145e-05
1.20804e-06
4.64095e-06
8.68511e-06
1.38451e-05
2.07232e-05
2.50689e-05
3.21194e-05
4.2318e-05
4.77642e-05
5.43405e-05
5.72301e-05
5.63146e-05
1.21085e-06
4.53171e-06
8.78372e-06
1.34316e-05
2.04636e-05
2.58849e-05
3.3679e-05
4.40782e-05
4.92909e-05
5.50256e-05
5.7227e-05
5.6203e-05
1.20838e-06
4.49299e-06
8.89918e-06
1.31677e-05
2.02342e-05
2.61299e-05
3.43618e-05
4.497e-05
5.01627e-05
5.55282e-05
5.72858e-05
5.61682e-05
1.20837e-06
4.493e-06
8.89926e-06
1.31672e-05
2.0234e-05
2.61304e-05
3.43628e-05
4.4972e-05
5.01652e-05
5.55308e-05
5.72885e-05
5.61709e-05
1.21084e-06
4.53161e-06
8.78389e-06
1.34306e-05
2.04634e-05
2.58869e-05
3.36825e-05
4.40844e-05
4.92988e-05
5.50334e-05
5.72347e-05
5.62107e-05
1.20802e-06
4.64093e-06
8.68493e-06
1.38437e-05
2.07234e-05
2.50715e-05
3.21237e-05
4.23265e-05
4.77756e-05
5.43519e-05
5.72418e-05
5.63263e-05
1.20973e-06
4.52197e-06
8.69879e-06
1.41468e-05
2.09583e-05
2.50107e-05
3.1773e-05
4.16042e-05
4.68682e-05
5.40597e-05
5.71777e-05
5.62276e-05
1.26047e-06
4.32964e-06
8.94283e-06
1.45501e-05
2.17993e-05
2.5672e-05
3.14542e-05
4.03382e-05
4.37626e-05
5.01117e-05
5.27207e-05
5.15648e-05
6.07511e-06
6.6596e-06
7.13856e-06
7.68001e-06
8.99126e-06
9.85909e-06
1.08652e-05
1.34061e-05
1.48341e-05
1.79929e-05
2.21528e-05
2.36947e-05
6.20988e-06
7.47778e-06
8.76176e-06
1.11644e-05
1.48848e-05
1.67385e-05
2.00214e-05
2.36052e-05
2.61444e-05
2.91824e-05
3.23408e-05
3.34926e-05
1.67356e-05
6.08456e-05
8.91145e-05
0.000107497
0.000114139
0.000113086
0.000110096
0.000104069
9.55291e-05
8.69169e-05
7.91933e-05
6.95506e-05
1.66375e-05
6.78404e-05
9.31781e-05
0.00010917
0.000115363
0.000114647
0.000112709
0.000108285
0.000101562
9.29813e-05
8.45117e-05
7.56679e-05
1.67232e-05
6.99463e-05
9.42327e-05
0.000108727
0.000114972
0.000114481
0.00011276
0.000108553
0.000102075
9.33318e-05
8.51012e-05
7.68765e-05
1.69414e-05
7.01145e-05
9.40816e-05
0.000107867
0.00011535
0.000115618
0.000114071
0.000109435
0.00010247
9.33846e-05
8.51946e-05
7.72587e-05
1.69334e-05
7.03576e-05
9.41414e-05
0.000107296
0.000115396
0.000116377
0.000114838
0.000110029
0.000102806
9.34555e-05
8.52112e-05
7.7354e-05
1.69331e-05
7.03582e-05
9.41414e-05
0.000107296
0.000115397
0.000116379
0.00011484
0.000110032
0.000102808
9.34572e-05
8.52126e-05
7.73554e-05
1.69414e-05
7.01152e-05
9.40812e-05
0.000107866
0.000115353
0.000115624
0.000114077
0.000109442
0.000102475
9.33896e-05
8.51987e-05
7.72629e-05
1.67231e-05
6.99471e-05
9.42316e-05
0.000108725
0.000114977
0.000114488
0.000112769
0.000108564
0.000102083
9.33396e-05
8.51075e-05
7.68828e-05
1.66376e-05
6.7841e-05
9.31759e-05
0.000109167
0.000115367
0.000114653
0.000112718
0.000108296
0.000101572
9.29911e-05
8.45194e-05
7.56753e-05
1.67356e-05
6.08445e-05
8.91105e-05
0.000107493
0.000114141
0.000113091
0.000110104
0.000104081
9.55423e-05
8.69282e-05
7.92022e-05
6.95587e-05
6.2097e-06
7.47823e-06
8.76117e-06
1.11633e-05
1.48857e-05
1.67398e-05
2.00219e-05
2.36076e-05
2.61477e-05
2.91855e-05
3.23446e-05
3.34966e-05
7.20219e-06
1.03014e-05
1.56411e-05
1.92489e-05
2.26114e-05
2.51221e-05
2.64274e-05
2.79626e-05
2.97547e-05
3.0503e-05
3.13729e-05
3.19224e-05
0.000201863
0.000227386
0.000232517
0.000217996
0.000187418
0.000161042
0.000135923
0.000113987
9.84404e-05
8.37658e-05
7.18815e-05
6.1252e-05
0.000259235
0.000291982
0.000277054
0.000241097
0.000201506
0.000171242
0.000145105
0.000122491
0.000106882
9.18247e-05
8.01001e-05
6.98985e-05
0.000268635
0.000305086
0.000287662
0.000247121
0.00020497
0.000173165
0.000146715
0.000124043
0.000108627
9.39156e-05
8.27427e-05
7.31073e-05
0.000273175
0.000310001
0.000291757
0.000249547
0.000206671
0.00017408
0.000147068
0.000124206
0.000108899
9.44925e-05
8.37592e-05
7.44626e-05
0.000274542
0.000311951
0.000293475
0.000250774
0.000207667
0.00017468
0.000147252
0.000124224
0.000108899
9.45883e-05
8.40478e-05
7.49076e-05
0.000274543
0.000311952
0.000293476
0.000250775
0.000207668
0.000174681
0.000147253
0.000124224
0.000108899
9.45885e-05
8.40477e-05
7.49076e-05
0.000273179
0.000310005
0.00029176
0.00024955
0.000206675
0.000174083
0.000147071
0.000124206
0.0001089
9.44933e-05
8.37589e-05
7.44627e-05
0.000268642
0.000305092
0.000287667
0.000247125
0.000204975
0.000173169
0.000146719
0.000124045
0.000108628
9.3917e-05
8.27424e-05
7.31075e-05
0.00025924
0.000291989
0.000277059
0.000241102
0.000201512
0.000171247
0.000145112
0.000122495
0.000106885
9.18274e-05
8.01006e-05
6.98992e-05
0.000201865
0.00022739
0.000232525
0.000218004
0.000187428
0.000161052
0.000135937
0.000113998
9.84494e-05
8.37724e-05
7.18844e-05
6.12537e-05
7.20218e-06
1.03012e-05
1.56414e-05
1.92499e-05
2.2613e-05
2.51252e-05
2.64324e-05
2.79679e-05
2.97608e-05
3.05079e-05
3.1376e-05
3.19244e-05
4.63052e-06
6.35225e-06
9.46207e-06
1.26378e-05
1.59917e-05
1.8174e-05
2.00149e-05
2.18504e-05
2.22888e-05
2.15479e-05
2.134e-05
2.1886e-05
3.0586e-05
4.91382e-05
7.92624e-05
9.37962e-05
9.4272e-05
8.99083e-05
7.96921e-05
6.98402e-05
6.24821e-05
5.40386e-05
4.81209e-05
4.28085e-05
4.2552e-05
7.95991e-05
0.00010764
0.000118986
0.000115583
0.00010692
9.44236e-05
8.27919e-05
7.47734e-05
6.57844e-05
5.914e-05
5.26325e-05
4.57815e-05
8.8899e-05
0.000119263
0.000129256
0.000124232
0.000113346
9.97575e-05
8.75396e-05
7.93906e-05
7.05511e-05
6.38926e-05
5.71973e-05
4.71667e-05
9.20723e-05
0.000123876
0.000133403
0.000127724
0.000115717
0.000101429
8.90553e-05
8.10439e-05
7.25396e-05
6.60248e-05
5.93262e-05
4.75796e-05
9.29567e-05
0.000125357
0.000134843
0.000128932
0.000116442
0.000101837
8.94278e-05
8.1497e-05
7.31792e-05
6.67777e-05
6.01231e-05
4.75795e-05
9.29563e-05
0.000125357
0.000134842
0.000128931
0.000116441
0.000101836
8.94266e-05
8.14958e-05
7.31783e-05
6.67767e-05
6.01223e-05
4.71669e-05
9.20718e-05
0.000123874
0.000133402
0.000127722
0.000115714
0.000101427
8.9052e-05
8.10404e-05
7.25371e-05
6.60219e-05
5.93239e-05
4.57821e-05
8.88981e-05
0.000119261
0.000129255
0.00012423
0.000113342
9.97551e-05
8.75357e-05
7.93863e-05
7.05478e-05
6.38886e-05
5.7194e-05
4.25517e-05
7.95973e-05
0.000107638
0.000118985
0.000115582
0.000106918
9.44238e-05
8.27901e-05
7.47706e-05
6.5782e-05
5.91362e-05
5.26293e-05
3.0585e-05
4.91382e-05
7.92664e-05
9.38041e-05
9.42816e-05
8.99186e-05
7.9703e-05
6.98471e-05
6.24858e-05
5.40394e-05
4.81179e-05
4.28053e-05
4.63034e-06
6.35231e-06
9.46332e-06
1.26399e-05
1.59954e-05
1.81792e-05
2.00212e-05
2.18557e-05
2.22926e-05
2.15495e-05
2.13382e-05
2.18823e-05
4.04689e-06
4.88421e-06
6.14536e-06
7.86251e-06
9.90552e-06
1.18069e-05
1.34993e-05
1.44552e-05
1.43989e-05
1.40082e-05
1.45293e-05
1.65373e-05
7.17375e-06
1.17702e-05
2.07709e-05
2.89229e-05
3.49977e-05
3.76552e-05
3.74865e-05
3.66178e-05
3.55832e-05
3.36839e-05
3.23746e-05
3.03048e-05
1.01251e-05
2.0617e-05
3.27913e-05
4.27541e-05
4.84e-05
5.01532e-05
4.9219e-05
4.75827e-05
4.64901e-05
4.39765e-05
4.16108e-05
3.81108e-05
1.13497e-05
2.48012e-05
3.91472e-05
4.99147e-05
5.51352e-05
5.6233e-05
5.4957e-05
5.29656e-05
5.17764e-05
4.90873e-05
4.63738e-05
4.23052e-05
1.18606e-05
2.64772e-05
4.1912e-05
5.30264e-05
5.80225e-05
5.87649e-05
5.73105e-05
5.52863e-05
5.41539e-05
5.15518e-05
4.87289e-05
4.44351e-05
1.20276e-05
2.69838e-05
4.2817e-05
5.40677e-05
5.89825e-05
5.95855e-05
5.80663e-05
5.60755e-05
5.49963e-05
5.24775e-05
4.96417e-05
4.52957e-05
1.20276e-05
2.69834e-05
4.28163e-05
5.40668e-05
5.89813e-05
5.95842e-05
5.8065e-05
5.60741e-05
5.49949e-05
5.24764e-05
4.96405e-05
4.52948e-05
1.18605e-05
2.64762e-05
4.19102e-05
5.30241e-05
5.80194e-05
5.87611e-05
5.73068e-05
5.52823e-05
5.415e-05
5.15484e-05
4.87256e-05
4.44324e-05
1.13495e-05
2.47998e-05
3.91448e-05
4.99117e-05
5.51313e-05
5.62284e-05
5.49526e-05
5.29605e-05
5.17713e-05
4.90829e-05
4.63693e-05
4.23016e-05
1.01248e-05
2.06154e-05
3.27892e-05
4.27521e-05
4.83978e-05
5.01506e-05
4.92165e-05
4.75792e-05
4.64859e-05
4.39724e-05
4.16064e-05
3.81074e-05
7.17335e-06
1.17697e-05
2.07719e-05
2.8926e-05
3.50022e-05
3.76598e-05
3.74906e-05
3.66195e-05
3.55823e-05
3.36809e-05
3.23704e-05
3.03018e-05
4.04659e-06
4.88408e-06
6.14606e-06
7.86403e-06
9.90804e-06
1.18102e-05
1.35028e-05
1.44572e-05
1.44002e-05
1.40073e-05
1.45263e-05
1.65314e-05
4.00198e-06
4.43036e-06
5.13895e-06
6.24318e-06
7.55182e-06
8.84731e-06
9.70327e-06
1.01416e-05
1.03905e-05
1.08781e-05
1.21864e-05
1.53115e-05
3.9811e-06
5.28931e-06
7.56742e-06
1.0753e-05
1.42517e-05
1.71532e-05
1.92429e-05
2.09817e-05
2.25197e-05
2.35265e-05
2.3671e-05
2.31763e-05
4.6509e-06
7.77594e-06
1.17017e-05
1.63131e-05
2.06389e-05
2.40312e-05
2.6355e-05
2.83312e-05
3.02569e-05
3.06547e-05
3.02075e-05
2.87033e-05
5.10121e-06
9.39799e-06
1.44339e-05
1.98885e-05
2.45639e-05
2.81074e-05
3.04983e-05
3.26598e-05
3.46283e-05
3.47376e-05
3.40164e-05
3.19291e-05
5.3176e-06
1.01819e-05
1.58071e-05
2.16662e-05
2.64882e-05
3.00867e-05
3.25277e-05
3.48615e-05
3.68756e-05
3.68893e-05
3.60243e-05
3.36472e-05
5.40061e-06
1.04664e-05
1.63182e-05
2.23285e-05
2.72052e-05
3.08236e-05
3.32993e-05
3.57288e-05
3.77753e-05
3.77609e-05
3.68413e-05
3.43671e-05
5.40059e-06
1.04662e-05
1.63178e-05
2.23279e-05
2.72043e-05
3.08226e-05
3.32983e-05
3.57276e-05
3.77742e-05
3.77599e-05
3.68403e-05
3.43664e-05
5.31753e-06
1.01814e-05
1.5806e-05
2.16645e-05
2.64858e-05
3.0084e-05
3.25248e-05
3.48583e-05
3.68724e-05
3.68864e-05
3.60216e-05
3.36452e-05
5.10109e-06
9.39724e-06
1.44325e-05
1.98865e-05
2.45611e-05
2.81041e-05
3.04949e-05
3.26558e-05
3.4624e-05
3.47338e-05
3.40129e-05
3.19265e-05
4.65071e-06
7.77517e-06
1.17006e-05
1.63118e-05
2.06372e-05
2.40292e-05
2.63528e-05
2.83281e-05
3.02531e-05
3.06511e-05
3.02042e-05
2.87012e-05
3.98088e-06
5.28886e-06
7.56743e-06
1.07538e-05
1.42532e-05
1.71548e-05
1.92439e-05
2.09812e-05
2.25175e-05
2.35231e-05
2.36683e-05
2.31747e-05
4.00156e-06
4.43005e-06
5.13946e-06
6.24445e-06
7.55356e-06
8.84924e-06
9.70513e-06
1.01426e-05
1.03908e-05
1.08767e-05
1.21828e-05
1.53058e-05
3.88081e-06
4.22769e-06
4.69959e-06
5.5171e-06
6.43639e-06
7.16857e-06
7.71502e-06
8.18915e-06
8.70359e-06
9.66327e-06
1.13496e-05
1.42621e-05
3.42709e-06
3.85796e-06
4.59977e-06
6.00809e-06
7.89596e-06
9.89634e-06
1.18421e-05
1.38995e-05
1.62072e-05
1.77668e-05
1.84089e-05
1.85784e-05
3.50377e-06
4.77391e-06
6.22499e-06
8.34467e-06
1.0904e-05
1.35472e-05
1.6081e-05
1.8724e-05
2.13819e-05
2.29201e-05
2.31485e-05
2.2787e-05
3.68148e-06
5.52097e-06
7.51869e-06
1.01306e-05
1.30751e-05
1.60471e-05
1.88727e-05
2.18546e-05
2.46084e-05
2.59636e-05
2.59714e-05
2.53199e-05
3.79133e-06
5.93226e-06
8.24933e-06
1.11327e-05
1.4277e-05
1.74184e-05
2.04306e-05
2.36051e-05
2.63977e-05
2.75887e-05
2.74962e-05
2.66422e-05
3.83996e-06
6.09907e-06
8.5508e-06
1.15463e-05
1.47726e-05
1.79819e-05
2.10847e-05
2.43503e-05
2.71581e-05
2.82643e-05
2.81255e-05
2.71881e-05
3.83994e-06
6.09896e-06
8.55057e-06
1.15459e-05
1.47721e-05
1.79813e-05
2.1084e-05
2.43495e-05
2.71573e-05
2.82635e-05
2.81249e-05
2.71877e-05
3.79127e-06
5.93194e-06
8.24872e-06
1.11317e-05
1.42756e-05
1.74167e-05
2.04287e-05
2.36029e-05
2.63954e-05
2.75866e-05
2.74942e-05
2.6641e-05
3.68139e-06
5.52052e-06
7.51793e-06
1.01294e-05
1.30734e-05
1.60451e-05
1.88704e-05
2.18519e-05
2.46053e-05
2.59608e-05
2.59689e-05
2.53184e-05
3.50365e-06
4.77346e-06
6.22441e-06
8.34396e-06
1.09031e-05
1.3546e-05
1.60796e-05
1.87219e-05
2.1379e-05
2.29174e-05
2.31465e-05
2.2786e-05
3.4269e-06
3.85762e-06
4.59972e-06
6.00849e-06
7.89668e-06
9.89712e-06
1.18425e-05
1.38987e-05
1.6205e-05
1.77644e-05
1.84068e-05
1.85775e-05
3.88035e-06
4.22731e-06
4.70009e-06
5.51837e-06
6.43799e-06
7.17025e-06
7.71632e-06
8.18975e-06
8.70352e-06
9.66148e-06
1.13472e-05
1.42588e-05
3.92482e-06
3.96098e-06
4.25343e-06
4.88424e-06
5.63381e-06
6.25662e-06
6.74288e-06
7.29777e-06
8.00064e-06
9.18803e-06
1.09485e-05
1.35576e-05
3.17238e-06
3.3254e-06
3.58297e-06
4.38039e-06
5.58701e-06
6.99806e-06
8.55497e-06
1.04362e-05
1.26438e-05
1.40861e-05
1.47938e-05
1.58033e-05
3.01093e-06
3.75871e-06
4.38798e-06
5.53532e-06
7.15835e-06
9.08213e-06
1.12257e-05
1.36564e-05
1.62213e-05
1.78939e-05
1.8572e-05
1.92105e-05
3.04685e-06
4.16513e-06
5.10189e-06
6.52592e-06
8.42387e-06
1.06471e-05
1.31339e-05
1.58666e-05
1.85226e-05
2.01687e-05
2.08427e-05
2.13894e-05
3.09382e-06
4.40995e-06
5.53745e-06
7.12872e-06
9.1822e-06
1.15759e-05
1.42575e-05
1.7158e-05
1.98267e-05
2.13696e-05
2.19884e-05
2.24983e-05
3.12011e-06
4.51649e-06
5.72915e-06
7.39494e-06
9.51616e-06
1.19892e-05
1.47543e-05
1.77307e-05
2.03948e-05
2.18647e-05
2.24438e-05
2.29388e-05
3.1201e-06
4.51641e-06
5.72901e-06
7.39472e-06
9.51585e-06
1.19888e-05
1.47538e-05
1.77301e-05
2.03941e-05
2.18642e-05
2.24434e-05
2.29385e-05
3.09377e-06
4.40974e-06
5.53708e-06
7.12813e-06
9.18137e-06
1.15748e-05
1.42563e-05
1.71566e-05
1.98251e-05
2.1368e-05
2.1987e-05
2.24976e-05
3.04678e-06
4.16483e-06
5.10142e-06
6.52525e-06
8.42294e-06
1.06459e-05
1.31325e-05
1.58648e-05
1.85204e-05
2.01665e-05
2.08408e-05
2.13885e-05
3.01083e-06
3.75839e-06
4.38764e-06
5.53498e-06
7.15793e-06
9.08158e-06
1.12248e-05
1.36549e-05
1.62192e-05
1.78919e-05
1.85703e-05
1.92097e-05
3.17217e-06
3.3251e-06
3.58297e-06
4.38077e-06
5.58761e-06
6.99871e-06
8.55532e-06
1.04356e-05
1.26422e-05
1.40845e-05
1.47924e-05
1.58027e-05
3.92422e-06
3.96042e-06
4.25381e-06
4.88554e-06
5.6354e-06
6.25809e-06
6.74394e-06
7.29828e-06
8.00031e-06
9.18674e-06
1.09471e-05
1.35557e-05
3.79853e-06
3.70999e-06
3.88703e-06
4.40835e-06
5.08087e-06
5.69532e-06
6.25637e-06
6.88847e-06
7.70368e-06
8.96731e-06
1.07361e-05
1.3182e-05
3.01595e-06
3.05524e-06
3.09869e-06
3.65752e-06
4.56279e-06
5.66517e-06
6.96065e-06
8.60114e-06
1.05785e-05
1.2005e-05
1.27595e-05
1.41903e-05
2.79414e-06
3.3183e-06
3.58338e-06
4.31824e-06
5.4899e-06
6.9737e-06
8.73319e-06
1.08018e-05
1.308e-05
1.47035e-05
1.55317e-05
1.69592e-05
2.77128e-06
3.57622e-06
4.03748e-06
4.93538e-06
6.29224e-06
8.01809e-06
1.00517e-05
1.23569e-05
1.47131e-05
1.63486e-05
1.73206e-05
1.88934e-05
2.7885e-06
3.74045e-06
4.32808e-06
5.33039e-06
6.79695e-06
8.65955e-06
1.08482e-05
1.32792e-05
1.56315e-05
1.71941e-05
1.82297e-05
1.99198e-05
2.80345e-06
3.81513e-06
4.46109e-06
5.51241e-06
7.02847e-06
8.95223e-06
1.12101e-05
1.36959e-05
1.6032e-05
1.75318e-05
1.85846e-05
2.03316e-05
2.80343e-06
3.81507e-06
4.46099e-06
5.51227e-06
7.02827e-06
8.95198e-06
1.12098e-05
1.36956e-05
1.60316e-05
1.75314e-05
1.85842e-05
2.03314e-05
2.78846e-06
3.74029e-06
4.32782e-06
5.33002e-06
6.79645e-06
8.65892e-06
1.08474e-05
1.32782e-05
1.56303e-05
1.71929e-05
1.82286e-05
1.99192e-05
2.77122e-06
3.57599e-06
4.03716e-06
4.93498e-06
6.29171e-06
8.01742e-06
1.00508e-05
1.23556e-05
1.47115e-05
1.6347e-05
1.73191e-05
1.88925e-05
2.79405e-06
3.31804e-06
3.58316e-06
4.31809e-06
5.48976e-06
6.97349e-06
8.73273e-06
1.08009e-05
1.30785e-05
1.47019e-05
1.55303e-05
1.69582e-05
3.01572e-06
3.05498e-06
3.09874e-06
3.65792e-06
4.56337e-06
5.66576e-06
6.96097e-06
8.6007e-06
1.05773e-05
1.20038e-05
1.27586e-05
1.41894e-05
3.79782e-06
3.70943e-06
3.88743e-06
4.40965e-06
5.08249e-06
5.69671e-06
6.25732e-06
6.88894e-06
7.70313e-06
8.96636e-06
1.0735e-05
1.31811e-05
3.79998e-06
3.49447e-06
3.5633e-06
3.99282e-06
4.60747e-06
5.27432e-06
5.92391e-06
6.63524e-06
7.50443e-06
8.71083e-06
1.03971e-05
1.27754e-05
2.92298e-06
2.79666e-06
2.75306e-06
3.2131e-06
3.98085e-06
4.93226e-06
6.08894e-06
7.57176e-06
9.34661e-06
1.07552e-05
1.14648e-05
1.29293e-05
2.63637e-06
2.99352e-06
3.11032e-06
3.67019e-06
4.61969e-06
5.84378e-06
7.33062e-06
9.13407e-06
1.11639e-05
1.27468e-05
1.35762e-05
1.51806e-05
2.58187e-06
3.18993e-06
3.44629e-06
4.10241e-06
5.17717e-06
6.58176e-06
8.27348e-06
1.02417e-05
1.23359e-05
1.39203e-05
1.49123e-05
1.68236e-05
2.58274e-06
3.31594e-06
3.66084e-06
4.38235e-06
5.53047e-06
7.03746e-06
8.84564e-06
1.08986e-05
1.29878e-05
1.45183e-05
1.56143e-05
1.77629e-05
2.59061e-06
3.37407e-06
3.76008e-06
4.51317e-06
5.69477e-06
7.24777e-06
9.10855e-06
1.11974e-05
1.32699e-05
1.47514e-05
1.58932e-05
1.81627e-05
2.5906e-06
3.37402e-06
3.76001e-06
4.51307e-06
5.69464e-06
7.2476e-06
9.10835e-06
1.11971e-05
1.32696e-05
1.47511e-05
1.58929e-05
1.81624e-05
2.5827e-06
3.31581e-06
3.66065e-06
4.38209e-06
5.53014e-06
7.03704e-06
8.84511e-06
1.08979e-05
1.29868e-05
1.45174e-05
1.56134e-05
1.7762e-05
2.58181e-06
3.18974e-06
3.44606e-06
4.10214e-06
5.17685e-06
6.58134e-06
8.27289e-06
1.02407e-05
1.23346e-05
1.3919e-05
1.49111e-05
1.68223e-05
2.63626e-06
2.99329e-06
3.11017e-06
3.67013e-06
4.61968e-06
5.8437e-06
7.33029e-06
9.13325e-06
1.11625e-05
1.27455e-05
1.35751e-05
1.51794e-05
2.92271e-06
2.7964e-06
2.75313e-06
3.21349e-06
3.98138e-06
4.93274e-06
6.08914e-06
7.57132e-06
9.3455e-06
1.07542e-05
1.14641e-05
1.29283e-05
3.79923e-06
3.49379e-06
3.56356e-06
3.99404e-06
4.60904e-06
5.27567e-06
5.92482e-06
6.63569e-06
7.50413e-06
8.71015e-06
1.03962e-05
1.2775e-05
3.65697e-06
3.2297e-06
3.25802e-06
3.64686e-06
4.20094e-06
4.85813e-06
5.5535e-06
6.31625e-06
7.19098e-06
8.36657e-06
9.98939e-06
1.23798e-05
2.74578e-06
2.55259e-06
2.4613e-06
2.87455e-06
3.55837e-06
4.42104e-06
5.48923e-06
6.8531e-06
8.48938e-06
9.92191e-06
1.06425e-05
1.18225e-05
2.47447e-06
2.72312e-06
2.75355e-06
3.22821e-06
4.05257e-06
5.12311e-06
6.44128e-06
8.06488e-06
9.92376e-06
1.1514e-05
1.23221e-05
1.3616e-05
2.41194e-06
2.88659e-06
3.02557e-06
3.56191e-06
4.47926e-06
5.68659e-06
7.15692e-06
8.9002e-06
1.08137e-05
1.23947e-05
1.32871e-05
1.48881e-05
2.40684e-06
2.99173e-06
3.19856e-06
3.77665e-06
4.74672e-06
6.03151e-06
7.58788e-06
9.39101e-06
1.1305e-05
1.28398e-05
1.37901e-05
1.56305e-05
2.41183e-06
3.04051e-06
3.2786e-06
3.87711e-06
4.87091e-06
6.19059e-06
7.786e-06
9.6136e-06
1.15169e-05
1.3013e-05
1.39905e-05
1.59614e-05
2.41182e-06
3.04047e-06
3.27854e-06
3.87703e-06
4.87082e-06
6.19047e-06
7.78584e-06
9.61339e-06
1.15166e-05
1.30127e-05
1.39902e-05
1.59611e-05
2.4068e-06
2.99161e-06
3.1984e-06
3.77645e-06
4.74648e-06
6.0312e-06
7.58746e-06
9.39041e-06
1.13042e-05
1.2839e-05
1.37894e-05
1.56296e-05
2.41187e-06
2.88642e-06
3.02538e-06
3.56171e-06
4.47903e-06
5.68629e-06
7.15643e-06
8.89941e-06
1.08125e-05
1.23935e-05
1.32861e-05
1.48869e-05
2.47434e-06
2.72291e-06
2.75343e-06
3.2282e-06
4.05261e-06
5.12307e-06
6.44098e-06
8.06411e-06
9.92249e-06
1.15128e-05
1.23213e-05
1.36148e-05
2.74549e-06
2.55235e-06
2.46139e-06
2.87492e-06
3.55885e-06
4.42144e-06
5.48933e-06
6.85265e-06
8.48837e-06
9.92094e-06
1.06422e-05
1.18215e-05
3.65616e-06
3.22902e-06
3.25828e-06
3.64799e-06
4.20246e-06
4.85948e-06
5.55441e-06
6.31671e-06
7.19094e-06
8.3661e-06
9.9887e-06
1.23792e-05
3.6178e-06
3.02312e-06
2.98487e-06
3.31659e-06
3.81519e-06
4.43004e-06
5.14297e-06
5.94603e-06
6.83883e-06
7.93952e-06
9.48138e-06
1.18015e-05
2.61229e-06
2.31563e-06
2.20579e-06
2.5748e-06
3.19136e-06
3.98016e-06
4.9722e-06
6.2476e-06
7.80962e-06
9.29936e-06
1.01862e-05
1.09489e-05
2.31335e-06
2.45619e-06
2.44878e-06
2.87123e-06
3.60628e-06
4.56702e-06
5.7631e-06
7.25475e-06
9.0112e-06
1.066e-05
1.16166e-05
1.24309e-05
2.24511e-06
2.59823e-06
2.67884e-06
3.14791e-06
3.95959e-06
5.03053e-06
6.34651e-06
7.93308e-06
9.73554e-06
1.13752e-05
1.23345e-05
1.33144e-05
2.23714e-06
2.69046e-06
2.82532e-06
3.32434e-06
4.1784e-06
5.31125e-06
6.69434e-06
8.32795e-06
1.01337e-05
1.17321e-05
1.26794e-05
1.38124e-05
2.24067e-06
2.73357e-06
2.89322e-06
3.40662e-06
4.27944e-06
5.44013e-06
6.85359e-06
8.50628e-06
1.03055e-05
1.18716e-05
1.28083e-05
1.40325e-05
2.24066e-06
2.73353e-06
2.89317e-06
3.40655e-06
4.27937e-06
5.44003e-06
6.85345e-06
8.50608e-06
1.03053e-05
1.18714e-05
1.28081e-05
1.40322e-05
2.23709e-06
2.69035e-06
2.82519e-06
3.32419e-06
4.17821e-06
5.311e-06
6.69398e-06
8.3274e-06
1.01329e-05
1.17313e-05
1.26788e-05
1.38117e-05
2.24503e-06
2.59807e-06
2.67869e-06
3.14776e-06
3.95942e-06
5.03028e-06
6.34607e-06
7.93234e-06
9.73446e-06
1.1374e-05
1.23338e-05
1.33136e-05
2.31321e-06
2.45599e-06
2.44869e-06
2.87125e-06
3.60633e-06
4.56699e-06
5.76281e-06
7.254e-06
9.00997e-06
1.06587e-05
1.1616e-05
1.24304e-05
2.61197e-06
2.31539e-06
2.20587e-06
2.57514e-06
3.1918e-06
3.9805e-06
4.97226e-06
6.24716e-06
7.80864e-06
9.29838e-06
1.01859e-05
1.09487e-05
3.61691e-06
3.0223e-06
2.98501e-06
3.31764e-06
3.81666e-06
4.43141e-06
5.1439e-06
5.9465e-06
6.83889e-06
7.93927e-06
9.48066e-06
1.18003e-05
3.4675e-06
2.77358e-06
2.7159e-06
3.01224e-06
3.45771e-06
4.00827e-06
4.68456e-06
5.48176e-06
6.3702e-06
7.37577e-06
8.71934e-06
1.09377e-05
2.4324e-06
2.08586e-06
1.97385e-06
2.30251e-06
2.85163e-06
3.56414e-06
4.47478e-06
5.65906e-06
7.15057e-06
8.71284e-06
9.84884e-06
1.05174e-05
2.14768e-06
2.20612e-06
2.17958e-06
2.55724e-06
3.21093e-06
4.07257e-06
5.15851e-06
6.53231e-06
8.20474e-06
9.93129e-06
1.1166e-05
1.18654e-05
2.07966e-06
2.32956e-06
2.37675e-06
2.7953e-06
3.51679e-06
4.47225e-06
5.65878e-06
7.11432e-06
8.83049e-06
1.05554e-05
1.17675e-05
1.25231e-05
2.07056e-06
2.41098e-06
2.50322e-06
2.94678e-06
3.70559e-06
4.71349e-06
5.95571e-06
7.45154e-06
9.17387e-06
1.08656e-05
1.2036e-05
1.2836e-05
2.07333e-06
2.4494e-06
2.56213e-06
3.01735e-06
3.79259e-06
4.824e-06
6.09128e-06
7.60347e-06
9.32239e-06
1.09879e-05
1.21296e-05
1.2958e-05
2.07332e-06
2.44937e-06
2.56208e-06
3.01729e-06
3.79253e-06
4.82392e-06
6.09115e-06
7.60328e-06
9.32214e-06
1.09876e-05
1.21294e-05
1.29579e-05
2.07052e-06
2.41088e-06
2.50311e-06
2.94665e-06
3.70544e-06
4.71328e-06
5.95538e-06
7.45102e-06
9.17314e-06
1.08648e-05
1.20355e-05
1.28356e-05
2.07958e-06
2.32942e-06
2.37662e-06
2.79519e-06
3.51666e-06
4.47205e-06
5.65838e-06
7.11361e-06
8.82941e-06
1.05542e-05
1.17667e-05
1.25226e-05
2.14753e-06
2.20595e-06
2.17951e-06
2.55728e-06
3.211e-06
4.07256e-06
5.15824e-06
6.53158e-06
8.20352e-06
9.92991e-06
1.11653e-05
1.18652e-05
2.43203e-06
2.08562e-06
1.97393e-06
2.30283e-06
2.85203e-06
3.56446e-06
4.47482e-06
5.65864e-06
7.1496e-06
8.71173e-06
9.8484e-06
1.05176e-05
3.46634e-06
2.77268e-06
2.71597e-06
3.01321e-06
3.45912e-06
4.00964e-06
4.68553e-06
5.48227e-06
6.37039e-06
7.3757e-06
8.71885e-06
1.09361e-05
3.3537e-06
2.54892e-06
2.47041e-06
2.71958e-06
3.1118e-06
3.6085e-06
4.21899e-06
4.97032e-06
5.83014e-06
6.75949e-06
7.8587e-06
9.61263e-06
2.27546e-06
1.87377e-06
1.76589e-06
2.05014e-06
2.52814e-06
3.1587e-06
3.97513e-06
5.04926e-06
6.43702e-06
8.02583e-06
9.42271e-06
1.02878e-05
1.99083e-06
1.9738e-06
1.93941e-06
2.27081e-06
2.8419e-06
3.6026e-06
4.57389e-06
5.81959e-06
7.38265e-06
9.14062e-06
1.06801e-05
1.16028e-05
1.92386e-06
2.08143e-06
2.10908e-06
2.47913e-06
3.11159e-06
3.95445e-06
5.0138e-06
6.33425e-06
7.94273e-06
9.70942e-06
1.12329e-05
1.2157e-05
1.91414e-06
2.15338e-06
2.21888e-06
2.61212e-06
3.27877e-06
4.16756e-06
5.27525e-06
6.63243e-06
8.25092e-06
9.99397e-06
1.14749e-05
1.23874e-05
1.91628e-06
2.18761e-06
2.27037e-06
2.67421e-06
3.35598e-06
4.26534e-06
5.39462e-06
6.76673e-06
8.38461e-06
1.01077e-05
1.15581e-05
1.24641e-05
1.91627e-06
2.18758e-06
2.27033e-06
2.67417e-06
3.35593e-06
4.26527e-06
5.39451e-06
6.76655e-06
8.38435e-06
1.01074e-05
1.15578e-05
1.2464e-05
1.91409e-06
2.15329e-06
2.21878e-06
2.61202e-06
3.27865e-06
4.16739e-06
5.27496e-06
6.63194e-06
8.25019e-06
9.99309e-06
1.14742e-05
1.2387e-05
1.92378e-06
2.0813e-06
2.10897e-06
2.47905e-06
3.1115e-06
3.95428e-06
5.01344e-06
6.33357e-06
7.94167e-06
9.70811e-06
1.12318e-05
1.21566e-05
1.99068e-06
1.97365e-06
1.93935e-06
2.27086e-06
2.84199e-06
3.60261e-06
4.57366e-06
5.81892e-06
7.38146e-06
9.13909e-06
1.06789e-05
1.16025e-05
2.2751e-06
1.87356e-06
1.76596e-06
2.05043e-06
2.52851e-06
3.15899e-06
3.97517e-06
5.04889e-06
6.4361e-06
8.02457e-06
9.42184e-06
1.0288e-05
3.35269e-06
2.54813e-06
2.47041e-06
2.72047e-06
3.11313e-06
3.60984e-06
4.21999e-06
4.97087e-06
5.83033e-06
6.75955e-06
7.85858e-06
9.61138e-06
3.1783e-06
2.30357e-06
2.23905e-06
2.45416e-06
2.79192e-06
3.22673e-06
3.76179e-06
4.42527e-06
5.2038e-06
6.05292e-06
6.97209e-06
8.17666e-06
2.10753e-06
1.67718e-06
1.58082e-06
1.82031e-06
2.22442e-06
2.76714e-06
3.47833e-06
4.4211e-06
5.65889e-06
7.17081e-06
8.70947e-06
9.90684e-06
1.84519e-06
1.76442e-06
1.72647e-06
2.0095e-06
2.49517e-06
3.15079e-06
3.99909e-06
5.09859e-06
6.50728e-06
8.19011e-06
9.902e-06
1.1234e-05
1.78255e-06
1.85857e-06
1.87271e-06
2.1916e-06
2.73278e-06
3.46077e-06
4.38763e-06
5.5577e-06
7.0146e-06
8.71635e-06
1.04275e-05
1.17663e-05
1.77276e-06
1.92198e-06
1.96809e-06
2.30899e-06
2.8816e-06
3.65025e-06
4.62e-06
5.82467e-06
7.29573e-06
8.98339e-06
1.0663e-05
1.19819e-05
1.77436e-06
1.95231e-06
2.01308e-06
2.36416e-06
2.95077e-06
3.73761e-06
4.72636e-06
5.94511e-06
7.41827e-06
9.09179e-06
1.07471e-05
1.20509e-05
1.77435e-06
1.95229e-06
2.01305e-06
2.36413e-06
2.95073e-06
3.73755e-06
4.72626e-06
5.94495e-06
7.41802e-06
9.09147e-06
1.07468e-05
1.20507e-05
1.77272e-06
1.9219e-06
1.96801e-06
2.30891e-06
2.88151e-06
3.65011e-06
4.61974e-06
5.82422e-06
7.29504e-06
8.98247e-06
1.06621e-05
1.19812e-05
1.78247e-06
1.85846e-06
1.87262e-06
2.19154e-06
2.73273e-06
3.46064e-06
4.38732e-06
5.55709e-06
7.01359e-06
8.71497e-06
1.04261e-05
1.17653e-05
1.84504e-06
1.76429e-06
1.72644e-06
2.00956e-06
2.49528e-06
3.15083e-06
3.99891e-06
5.098e-06
6.50616e-06
8.18853e-06
9.90035e-06
1.1233e-05
2.10719e-06
1.677e-06
1.58089e-06
1.82057e-06
2.22476e-06
2.76741e-06
3.47839e-06
4.4208e-06
5.65807e-06
7.16951e-06
8.70816e-06
9.90625e-06
3.17732e-06
2.30285e-06
2.23904e-06
2.45496e-06
2.79316e-06
3.22803e-06
3.76283e-06
4.42591e-06
5.20407e-06
6.053e-06
6.97222e-06
8.17646e-06
2.97954e-06