/*--------------------------------*- C++ -*----------------------------------*\
| =========                 |                                                 |
| \\      /  F ield         | OpenFOAM: The Open Source CFD Toolbox           |
|  \\    /   O peration     | Version:  2.3.1                                 |
|   \\  /    A nd           | Web:      www.OpenFOAM.org                      |
|    \\/     M anipulation  |                                                 |
\*---------------------------------------------------------------------------*/
FoamFile
{
    version     2.0;
    format      ascii;
    class       volScalarField;
    location    "15";
    object      k;
}
// * * * * * * * * * * * * * * * * * * * * * * * * * * * * * * * * * * * * * //

dimensions      [0 2 -2 0 0 0 0];

internalField   nonuniform List<scalar> 
37758
(
3.13734e-05
3.26552e-05
3.52741e-05
3.68896e-05
3.82484e-05
4.123e-05
4.22868e-05
4.43641e-05
4.63295e-05
4.72648e-05
4.99426e-05
5.16025e-05
3.19502e-05
3.53497e-05
4.0219e-05
4.27116e-05
4.60809e-05
5.14919e-05
5.3748e-05
5.82657e-05
6.21927e-05
6.48004e-05
7.12641e-05
7.54747e-05
3.19084e-05
3.51235e-05
4.03295e-05
4.30456e-05
4.63933e-05
5.12727e-05
5.34569e-05
5.80481e-05
6.22119e-05
6.53022e-05
7.24767e-05
7.69325e-05
3.20613e-05
3.47736e-05
4.02325e-05
4.33488e-05
4.65237e-05
5.12881e-05
5.3395e-05
5.78789e-05
6.24581e-05
6.55886e-05
7.31513e-05
7.71191e-05
3.21342e-05
3.46903e-05
4.01453e-05
4.34605e-05
4.65479e-05
5.12607e-05
5.33987e-05
5.80459e-05
6.293e-05
6.61431e-05
7.37893e-05
7.75665e-05
3.21338e-05
3.46792e-05
4.01566e-05
4.35011e-05
4.65166e-05
5.12097e-05
5.33754e-05
5.81524e-05
6.31317e-05
6.63951e-05
7.40438e-05
7.76657e-05
3.21338e-05
3.46792e-05
4.01566e-05
4.35012e-05
4.65164e-05
5.12096e-05
5.33754e-05
5.81524e-05
6.31321e-05
6.63955e-05
7.40442e-05
7.76665e-05
3.21343e-05
3.46903e-05
4.01451e-05
4.34608e-05
4.65476e-05
5.12604e-05
5.33987e-05
5.80459e-05
6.29313e-05
6.61445e-05
7.37908e-05
7.7569e-05
3.20614e-05
3.47736e-05
4.02322e-05
4.33491e-05
4.65232e-05
5.12879e-05
5.3395e-05
5.78788e-05
6.24597e-05
6.55903e-05
7.31535e-05
7.71231e-05
3.19086e-05
3.51234e-05
4.03293e-05
4.30461e-05
4.63927e-05
5.12723e-05
5.34568e-05
5.80477e-05
6.22134e-05
6.53038e-05
7.2479e-05
7.69363e-05
3.19503e-05
3.53497e-05
4.0219e-05
4.27123e-05
4.60799e-05
5.14913e-05
5.37478e-05
5.82651e-05
6.21943e-05
6.48019e-05
7.12653e-05
7.54783e-05
3.13734e-05
3.26554e-05
3.52741e-05
3.689e-05
3.82477e-05
4.12294e-05
4.22868e-05
4.43636e-05
4.63302e-05
4.72653e-05
4.99421e-05
5.16028e-05
3.08003e-05
3.21293e-05
3.4115e-05
3.51799e-05
3.69818e-05
3.90497e-05
4.03402e-05
4.33415e-05
4.51655e-05
4.80817e-05
5.27931e-05
5.48976e-05
3.02866e-05
3.12032e-05
3.22478e-05
3.39745e-05
3.72533e-05
3.98017e-05
4.33105e-05
5.23976e-05
5.75826e-05
6.6758e-05
7.95493e-05
8.35998e-05
3.02098e-05
3.12495e-05
3.20884e-05
3.37676e-05
3.62761e-05
3.84396e-05
4.23096e-05
5.21868e-05
5.88813e-05
7.02634e-05
8.64874e-05
9.30088e-05
3.01992e-05
3.1281e-05
3.20895e-05
3.35479e-05
3.59992e-05
3.82793e-05
4.24739e-05
5.31914e-05
6.04351e-05
7.20349e-05
8.88308e-05
9.47354e-05
3.0204e-05
3.12087e-05
3.21477e-05
3.33009e-05
3.57468e-05
3.85333e-05
4.34863e-05
5.56705e-05
6.30821e-05
7.5001e-05
9.10533e-05
9.60392e-05
3.02006e-05
3.11487e-05
3.22203e-05
3.32953e-05
3.5536e-05
3.84765e-05
4.38201e-05
5.67767e-05
6.42836e-05
7.65427e-05
9.19748e-05
9.64805e-05
3.02006e-05
3.11487e-05
3.22204e-05
3.32952e-05
3.55357e-05
3.84763e-05
4.38203e-05
5.67783e-05
6.42865e-05
7.65452e-05
9.19794e-05
9.64854e-05
3.0204e-05
3.12083e-05
3.2148e-05
3.33008e-05
3.5746e-05
3.85336e-05
4.34879e-05
5.5676e-05
6.30913e-05
7.50092e-05
9.10671e-05
9.60533e-05
3.01992e-05
3.12809e-05
3.20895e-05
3.35471e-05
3.59988e-05
3.828e-05
4.24762e-05
5.31982e-05
6.04472e-05
7.20462e-05
8.88525e-05
9.47574e-05
3.02098e-05
3.12496e-05
3.20882e-05
3.37667e-05
3.62752e-05
3.84398e-05
4.2311e-05
5.21926e-05
5.8893e-05
7.02751e-05
8.65105e-05
9.30318e-05
3.02867e-05
3.12034e-05
3.22473e-05
3.3974e-05
3.72516e-05
3.9801e-05
4.33105e-05
5.24011e-05
5.75906e-05
6.67662e-05
7.95674e-05
8.3618e-05
3.08003e-05
3.21295e-05
3.4115e-05
3.518e-05
3.69814e-05
3.90498e-05
4.034e-05
4.33412e-05
4.51663e-05
4.80808e-05
5.27946e-05
5.48993e-05
3.07514e-05
3.26938e-05
3.4246e-05
3.59529e-05
3.99337e-05
4.24698e-05
4.53069e-05
5.21181e-05
5.57574e-05
6.34077e-05
7.28489e-05
7.61909e-05
3.44949e-05
4.46864e-05
5.64937e-05
7.15885e-05
9.02343e-05
0.000101574
0.000118176
0.000142579
0.000152655
0.00016917
0.00018577
0.000185337
3.37445e-05
4.5074e-05
5.38958e-05
6.89648e-05
8.59536e-05
9.81083e-05
0.000120376
0.000148057
0.00016545
0.000185928
0.000206431
0.000209287
3.35052e-05
4.53714e-05
5.3223e-05
6.75426e-05
8.48286e-05
9.79631e-05
0.000122329
0.000151094
0.000169987
0.000190227
0.000209801
0.00021391
3.36248e-05
4.45162e-05
5.3272e-05
6.60633e-05
8.39464e-05
0.000101006
0.00012789
0.000156743
0.000175093
0.000194267
0.000211817
0.000214928
3.35977e-05
4.41956e-05
5.35934e-05
6.51548e-05
8.32208e-05
0.00010194
0.000130208
0.000159525
0.000177715
0.000196478
0.000212892
0.000215095
3.35975e-05
4.41956e-05
5.35936e-05
6.51535e-05
8.32197e-05
0.000101942
0.000130211
0.000159531
0.000177722
0.000196485
0.0002129
0.000215103
3.36245e-05
4.45153e-05
5.32722e-05
6.60604e-05
8.39455e-05
0.000101012
0.000127901
0.00015676
0.000175114
0.000194288
0.00021184
0.000214952
3.35047e-05
4.53707e-05
5.32217e-05
6.75382e-05
8.48283e-05
9.79715e-05
0.000122343
0.000151118
0.000170017
0.000190257
0.000209837
0.000213946
3.37441e-05
4.50741e-05
5.38919e-05
6.89589e-05
8.59517e-05
9.81121e-05
0.000120386
0.000148081
0.000165483
0.000185961
0.000206471
0.000209327
3.44945e-05
4.46864e-05
5.64877e-05
7.15843e-05
9.02274e-05
0.000101578
0.00011818
0.000142596
0.000152682
0.000169197
0.000185804
0.000185371
3.07514e-05
3.26941e-05
3.42459e-05
3.59524e-05
3.99328e-05
4.24714e-05
4.53067e-05
5.21192e-05
5.57598e-05
6.3407e-05
7.28545e-05
7.61967e-05
3.12032e-05
3.53223e-05
3.92575e-05
4.61236e-05
5.58877e-05
6.0439e-05
6.80917e-05
7.59986e-05
8.13574e-05
8.75343e-05
9.37458e-05
9.59612e-05
9.97047e-05
0.000180872
0.000231643
0.000263802
0.000279014
0.000281926
0.0002813
0.000278974
0.000271579
0.000266747
0.000260214
0.00024431
9.60231e-05
0.000183005
0.000226338
0.000261376
0.000279266
0.000287775
0.000297279
0.000299336
0.000298737
0.000297365
0.000293253
0.000282671
9.5508e-05
0.000185053
0.000225567
0.000259897
0.000278737
0.000290074
0.000301271
0.000305159
0.000305622
0.000305344
0.000302667
0.000294603
9.484e-05
0.000183603
0.000224214
0.00025827
0.000279912
0.000296092
0.000306946
0.000309575
0.000309604
0.000309233
0.000306593
0.000298832
9.49055e-05
0.000183344
0.000223919
0.000256938
0.000280177
0.000298842
0.000309719
0.000311821
0.000311713
0.000311075
0.000308158
0.000300167
9.49053e-05
0.000183344
0.000223918
0.000256936
0.000280178
0.000298846
0.000309724
0.000311827
0.000311719
0.00031108
0.000308163
0.000300173
9.48405e-05
0.000183602
0.00022421
0.000258266
0.000279917
0.000296104
0.000306962
0.000309592
0.000309621
0.000309249
0.000306609
0.000298847
9.55057e-05
0.000185051
0.00022556
0.000259891
0.000278743
0.000290091
0.000301294
0.000305184
0.000305647
0.000305368
0.00030269
0.000294625
9.60206e-05
0.000183
0.000226326
0.000261366
0.000279269
0.000287788
0.000297302
0.000299365
0.000298766
0.000297393
0.000293279
0.000282696
9.96999e-05
0.000180863
0.000231628
0.000263794
0.000279009
0.000281941
0.00028132
0.000279001
0.000271617
0.000266777
0.000260239
0.000244329
3.12026e-05
3.53237e-05
3.92558e-05
4.61205e-05
5.58901e-05
6.04422e-05
6.80927e-05
7.60038e-05
8.13642e-05
8.75404e-05
9.37531e-05
9.59688e-05
3.44443e-05
4.37254e-05
5.77629e-05
6.63356e-05
7.38535e-05
7.92256e-05
8.19484e-05
8.50863e-05
8.86815e-05
9.01589e-05
9.18642e-05
9.2934e-05
0.000276392
0.000338089
0.000392935
0.000389807
0.000378007
0.000357772
0.000335283
0.000312429
0.000296317
0.00028202
0.000265561
0.000245098
0.000337291
0.000446414
0.000448652
0.000437767
0.000412824
0.00039016
0.000370056
0.00034896
0.000336367
0.000323486
0.000310611
0.000293869
0.000349819
0.00047147
0.00046912
0.000454412
0.000424176
0.000400735
0.000380997
0.000360749
0.000349587
0.000338326
0.00032725
0.00031273
0.000356465
0.000480307
0.000477607
0.000461811
0.000430932
0.000407668
0.000386666
0.000365898
0.000355083
0.000344705
0.000334468
0.000320774
0.000358683
0.000483621
0.000480889
0.000464703
0.000434019
0.00041085
0.000389113
0.000368017
0.000357233
0.000347085
0.000337144
0.000323685
0.000358683
0.000483622
0.00048089
0.000464704
0.000434021
0.000410852
0.000389116
0.000368019
0.000357235
0.000347088
0.000337146
0.000323687
0.000356468
0.000480311
0.00047761
0.000461814
0.000430939
0.000407676
0.000386675
0.000365905
0.000355089
0.000344712
0.000334474
0.000320781
0.000349825
0.000471475
0.000469124
0.000454418
0.000424186
0.000400747
0.000381011
0.000360762
0.000349597
0.000338337
0.000327259
0.00031274
0.000337295
0.000446419
0.000448656
0.000437773
0.000412835
0.000390174
0.000370076
0.000348979
0.000336382
0.000323499
0.000310622
0.000293878
0.000276391
0.00033809
0.000392944
0.000389819
0.000378026
0.0003578
0.000335319
0.000312463
0.000296345
0.000282037
0.00026557
0.000245099
3.44442e-05
4.37248e-05
5.77636e-05
6.63379e-05
7.38571e-05
7.92322e-05
8.19586e-05
8.50972e-05
8.86937e-05
9.01685e-05
9.18702e-05
9.29379e-05
2.56574e-05
3.16758e-05
4.13153e-05
5.01094e-05
5.86246e-05
6.3845e-05
6.80835e-05
7.2182e-05
7.31471e-05
7.15163e-05
7.10499e-05
7.22546e-05
9.14221e-05
0.00013546
0.000209209
0.000246529
0.000266774
0.000266976
0.000263316
0.000256045
0.000249908
0.000240046
0.000228933
0.000217066
0.000119434
0.00020637
0.000268885
0.000306664
0.000317092
0.000316505
0.000312858
0.000306382
0.000303326
0.000296511
0.000286743
0.000272056
0.000129059
0.000230999
0.000295157
0.000332299
0.000338125
0.000337107
0.000332895
0.00032715
0.000325371
0.000320459
0.000311448
0.000296721
0.000133414
0.000240332
0.000306615
0.000343916
0.000348225
0.000346879
0.000341682
0.00033616
0.000335079
0.000331261
0.00032285
0.000308171
0.000134947
0.00024331
0.000310623
0.000348206
0.00035213
0.000350632
0.000344953
0.000339548
0.000338744
0.000335278
0.000327249
0.000312609
0.000134946
0.000243309
0.000310622
0.000348206
0.00035213
0.000350632
0.000344953
0.000339547
0.000338743
0.000335277
0.000327248
0.000312608
0.000133415
0.000240331
0.000306613
0.000343916
0.000348225
0.000346878
0.000341682
0.000336158
0.000335076
0.000331258
0.000322848
0.000308169
0.000129059
0.000230997
0.000295155
0.0003323
0.000338126
0.000337108
0.000332897
0.000327149
0.000325369
0.000320457
0.000311444
0.000296717
0.000119433
0.000206366
0.000268883
0.000306667
0.000317098
0.000316511
0.000312868
0.000306388
0.000303327
0.000296509
0.000286737
0.00027205
9.14186e-05
0.00013546
0.00020922
0.000246549
0.0002668
0.000267008
0.000263348
0.000256068
0.000249919
0.000240043
0.000228918
0.000217047
2.56567e-05
3.1676e-05
4.13189e-05
5.01149e-05
5.86337e-05
6.38572e-05
6.80979e-05
7.21937e-05
7.31554e-05
7.152e-05
7.10459e-05
7.22466e-05
2.34533e-05
2.65846e-05
3.09833e-05
3.65153e-05
4.25953e-05
4.78855e-05
5.23583e-05
5.48035e-05
5.46632e-05
5.36706e-05
5.49908e-05
5.99439e-05
5.22753e-05
7.18892e-05
0.000103866
0.000132962
0.000159207
0.000175184
0.00018615
0.000193162
0.000195646
0.000195023
0.000192492
0.000187125
6.81612e-05
0.000107476
0.000147159
0.000182411
0.000208381
0.000225783
0.000237781
0.000247487
0.000254525
0.000253841
0.000249301
0.000238526
7.49531e-05
0.000124854
0.000169746
0.000207983
0.000232582
0.000250447
0.000262684
0.000273623
0.000282327
0.00028192
0.000276996
0.000264497
7.804e-05
0.000132664
0.000180415
0.000220051
0.000244103
0.000262111
0.000274398
0.000286102
0.000295716
0.000295538
0.000290561
0.000277409
7.92379e-05
0.000135477
0.000184375
0.000224575
0.000248512
0.000266597
0.000278945
0.000291033
0.000301037
0.000300945
0.00029598
0.00028264
7.92378e-05
0.000135475
0.000184374
0.000224573
0.00024851
0.000266594
0.000278943
0.00029103
0.000301034
0.000300942
0.000295977
0.000282638
7.80399e-05
0.000132661
0.000180411
0.000220047
0.000244098
0.000262105
0.000274392
0.000286095
0.000295708
0.000295531
0.000290553
0.000277401
7.49527e-05
0.00012485
0.00016974
0.000207977
0.000232575
0.00025044
0.000262678
0.000273614
0.000282316
0.000281909
0.000276985
0.000264485
6.81597e-05
0.000107471
0.000147155
0.000182408
0.00020838
0.000225782
0.00023778
0.000247482
0.000254513
0.000253828
0.000249287
0.000238512
5.22726e-05
7.18859e-05
0.00010387
0.000132975
0.000159226
0.000175204
0.000186166
0.000193167
0.000195636
0.000195007
0.000192469
0.000187102
2.34521e-05
2.65842e-05
3.09857e-05
3.652e-05
4.26025e-05
4.78946e-05
5.23675e-05
5.48083e-05
5.46664e-05
5.36683e-05
5.49832e-05
5.99295e-05
2.32794e-05
2.49113e-05
2.75005e-05
3.13104e-05
3.55454e-05
3.95031e-05
4.20135e-05
4.32712e-05
4.39781e-05
4.53437e-05
4.89074e-05
5.69434e-05
4.6056e-05
5.60823e-05
6.94177e-05
8.64349e-05
0.000105303
0.000122241
0.000136743
0.000148015
0.00015596
0.000160073
0.000160391
0.00015857
5.56549e-05
7.70325e-05
9.78734e-05
0.000121066
0.000144058
0.000165356
0.000183593
0.000199322
0.000210813
0.000213035
0.000210775
0.000203243
6.04327e-05
8.88173e-05
0.000114565
0.000141394
0.000166283
0.000189331
0.000209083
0.000226668
0.000239409
0.00024112
0.000237828
0.00022751
6.28054e-05
9.48861e-05
0.000123319
0.000151987
0.00017775
0.000201624
0.000222164
0.00024075
0.000254052
0.000255544
0.000251743
0.000240115
6.38114e-05
9.73634e-05
0.000126906
0.000156312
0.000182441
0.000206662
0.000227554
0.000246594
0.00026011
0.000261497
0.000257486
0.000245364
6.38114e-05
9.73627e-05
0.000126904
0.00015631
0.000182439
0.000206659
0.000227551
0.000246591
0.000260107
0.000261493
0.000257482
0.000245361
6.28053e-05
9.48842e-05
0.000123315
0.000151981
0.000177743
0.000201616
0.000222156
0.000240741
0.000254042
0.000255534
0.000251733
0.000240106
6.04323e-05
8.88141e-05
0.00011456
0.000141388
0.000166275
0.000189323
0.000209074
0.000226657
0.000239395
0.000241106
0.000237814
0.000227498
5.56538e-05
7.70286e-05
9.78695e-05
0.000121063
0.000144055
0.000165352
0.000183588
0.000199313
0.000210798
0.000213019
0.000210759
0.000203229
4.60534e-05
5.60778e-05
6.94176e-05
8.64415e-05
0.000105314
0.000122251
0.00013675
0.000148012
0.000155944
0.00016005
0.000160369
0.000158552
2.32778e-05
2.49101e-05
2.75023e-05
3.13147e-05
3.55509e-05
3.95088e-05
4.20188e-05
4.32739e-05
4.39788e-05
4.53397e-05
4.8898e-05
5.69293e-05
2.28071e-05
2.41458e-05
2.591e-05
2.88331e-05
3.19529e-05
3.43333e-05
3.6058e-05
3.75221e-05
3.90787e-05
4.19007e-05
4.66411e-05
5.43094e-05
4.56311e-05
5.16063e-05
5.81515e-05
6.8187e-05
8.09321e-05
9.40825e-05
0.000106212
0.000116949
0.0001261
0.000130494
0.000131832
0.000133613
5.34921e-05
6.76009e-05
7.96257e-05
9.45141e-05
0.000111853
0.000129879
0.000146887
0.000161924
0.000173167
0.000176077
0.000174981
0.000171596
5.74741e-05
7.68276e-05
9.28929e-05
0.000111023
0.000130908
0.000151364
0.000170682
0.000187772
0.000199677
0.000201745
0.000199517
0.00019305
5.95496e-05
8.18639e-05
0.00010035
0.000120276
0.00014147
0.000163148
0.000183617
0.000201749
0.000213811
0.000215363
0.000212414
0.000204444
6.04658e-05
8.40459e-05
0.000103592
0.000124291
0.000146037
0.000168229
0.000189177
0.000207749
0.000219817
0.00022111
0.000217814
0.000209228
6.04658e-05
8.40453e-05
0.000103591
0.00012429
0.000146035
0.000168226
0.000189175
0.000207746
0.000219814
0.000221106
0.00021781
0.000209226
5.95495e-05
8.18623e-05
0.000100347
0.000120272
0.000141464
0.000163142
0.00018361
0.00020174
0.000213801
0.000215353
0.000212404
0.000204437
5.74737e-05
7.68251e-05
9.28892e-05
0.000111018
0.000130902
0.000151357
0.000170674
0.000187762
0.000199663
0.000201732
0.000199503
0.00019304
5.34912e-05
6.75974e-05
7.96226e-05
9.45119e-05
0.000111851
0.000129876
0.000146883
0.000161916
0.000173154
0.000176062
0.000174967
0.000171586
4.56283e-05
5.16012e-05
5.81505e-05
6.81922e-05
8.09413e-05
9.40917e-05
0.000106217
0.000116945
0.000126085
0.000130478
0.000131815
0.0001336
2.28053e-05
2.41444e-05
2.59118e-05
2.88375e-05
3.19582e-05
3.43387e-05
3.60621e-05
3.75239e-05
3.90785e-05
4.18955e-05
4.66345e-05
5.43009e-05
2.29793e-05
2.31197e-05
2.42433e-05
2.65838e-05
2.92381e-05
3.13558e-05
3.29612e-05
3.47467e-05
3.69443e-05
4.05144e-05
4.55351e-05
5.25041e-05
4.56523e-05
4.94537e-05
5.26302e-05
5.87768e-05
6.73388e-05
7.67223e-05
8.59119e-05
9.49399e-05
0.000103719
0.000107893
0.000110411
0.000116117
5.17041e-05
6.31471e-05
7.069e-05
8.04925e-05
9.29847e-05
0.000106813
0.000120375
0.000132617
0.000142074
0.000145026
0.000145213
0.000147531
5.47854e-05
7.10113e-05
8.19097e-05
9.43438e-05
0.000109238
0.000125536
0.000141475
0.00015545
0.000164889
0.000166766
0.00016574
0.000166504
5.64685e-05
7.54006e-05
8.83838e-05
0.000102404
0.000118624
0.000136214
0.000153366
0.00016819
0.00017735
0.000178439
0.000176562
0.000176584
5.72405e-05
7.7345e-05
9.12807e-05
0.000106021
0.000122822
0.000140961
0.000158622
0.000173784
0.000182728
0.000183413
0.000181096
0.000180778
5.72404e-05
7.73445e-05
9.12799e-05
0.00010602
0.00012282
0.000140959
0.00015862
0.000173782
0.000182725
0.000183411
0.000181094
0.000180776
5.64684e-05
7.53993e-05
8.83817e-05
0.000102401
0.00011862
0.00013621
0.000153361
0.000168183
0.000177343
0.00017843
0.000176554
0.000176578
5.47851e-05
7.10092e-05
8.19069e-05
9.43408e-05
0.000109235
0.000125532
0.00014147
0.000155443
0.000164879
0.000166755
0.00016573
0.000166495
5.17031e-05
6.31439e-05
7.06877e-05
8.04921e-05
9.29856e-05
0.000106815
0.000120375
0.000132612
0.000142064
0.000145016
0.000145202
0.000147523
4.56488e-05
4.94481e-05
5.26291e-05
5.87825e-05
6.73493e-05
7.67336e-05
8.59196e-05
9.49393e-05
0.00010371
0.000107883
0.000110401
0.000116109
2.29769e-05
2.31175e-05
2.42448e-05
2.65885e-05
2.92437e-05
3.13607e-05
3.29647e-05
3.47484e-05
3.69433e-05
4.05106e-05
4.55311e-05
5.24994e-05
2.24838e-05
2.21326e-05
2.28304e-05
2.48278e-05
2.72922e-05
2.94509e-05
3.13556e-05
3.34345e-05
3.60238e-05
3.98623e-05
4.4943e-05
5.15299e-05
4.56433e-05
4.82187e-05
4.90333e-05
5.29647e-05
5.91001e-05
6.60317e-05
7.33784e-05
8.1564e-05
9.01701e-05
9.46464e-05
9.74677e-05
0.000105693
5.10172e-05
6.05872e-05
6.47896e-05
7.14472e-05
8.06409e-05
9.11211e-05
0.00010166
0.000111578
0.000119759
0.000122909
0.000124207
0.0001309
5.36372e-05
6.7585e-05
7.46047e-05
8.33139e-05
9.44772e-05
0.000107067
0.000119538
0.000130462
0.000137947
0.000139853
0.000140428
0.000146304
5.50996e-05
7.15017e-05
8.03259e-05
9.0339e-05
0.000102641
0.000116376
0.000129864
0.000141243
0.000148039
0.00014896
0.000149059
0.000154587
5.57842e-05
7.32525e-05
8.29202e-05
9.35483e-05
0.000106365
0.000120596
0.000134518
0.000146061
0.000152433
0.000152805
0.00015267
0.000158064
5.57842e-05
7.32521e-05
8.29196e-05
9.35476e-05
0.000106364
0.000120595
0.000134517
0.000146059
0.000152431
0.000152803
0.000152668
0.000158062
5.50995e-05
7.15006e-05
8.03243e-05
9.03372e-05
0.000102639
0.000116373
0.000129862
0.000141239
0.000148034
0.000148954
0.000149053
0.000154582
5.36368e-05
6.75831e-05
7.46028e-05
8.33125e-05
9.44761e-05
0.000107066
0.000119536
0.000130458
0.000137941
0.000139846
0.00014042
0.000146297
5.1016e-05
6.05842e-05
6.47881e-05
7.14484e-05
8.06442e-05
9.11251e-05
0.000101662
0.000111577
0.000119754
0.000122903
0.0001242
0.000130894
4.56394e-05
4.82131e-05
4.90325e-05
5.29711e-05
5.91117e-05
6.60445e-05
7.33876e-05
8.15657e-05
9.01658e-05
9.46408e-05
9.74613e-05
0.000105687
2.2481e-05
2.21304e-05
2.2832e-05
2.48327e-05
2.7298e-05
2.94557e-05
3.13588e-05
3.3436e-05
3.60221e-05
3.98595e-05
4.49402e-05
5.15273e-05
2.24897e-05
2.12672e-05
2.15448e-05
2.32423e-05
2.55696e-05
2.79808e-05
3.02342e-05
3.26095e-05
3.53994e-05
3.9098e-05
4.39916e-05
5.04651e-05
4.58484e-05
4.65788e-05
4.60562e-05
4.8961e-05
5.39798e-05
5.98957e-05
6.66474e-05
7.45837e-05
8.26549e-05
8.69901e-05
8.88154e-05
9.75267e-05
5.04708e-05
5.81207e-05
6.03383e-05
6.51449e-05
7.24193e-05
8.0919e-05
8.9768e-05
9.85611e-05
0.000106199
0.00010962
0.000110613
0.000119326
5.27244e-05
6.45626e-05
6.91387e-05
7.54863e-05
8.42378e-05
9.43219e-05
0.000104463
0.000113596
0.000120298
0.000122482
0.00012316
0.000132145
5.40013e-05
6.81562e-05
7.42741e-05
8.16403e-05
9.12734e-05
0.00010224
0.000113068
0.000122263
0.000128111
0.000129278
0.000129754
0.00013908
5.46067e-05
6.97665e-05
7.66154e-05
8.44759e-05
9.45168e-05
0.000105874
0.000116998
0.00012618
0.000131525
0.000132114
0.000132473
0.000142011
5.46067e-05
6.97662e-05
7.66149e-05
8.44754e-05
9.45163e-05
0.000105874
0.000116998
0.000126179
0.000131524
0.000132113
0.000132471
0.000142009
5.40012e-05
6.81552e-05
7.42729e-05
8.16393e-05
9.12727e-05
0.000102239
0.000113067
0.000122261
0.000128108
0.000129274
0.000129749
0.000139075
5.27239e-05
6.45609e-05
6.91373e-05
7.54861e-05
8.42385e-05
9.43231e-05
0.000104464
0.000113595
0.000120295
0.000122477
0.000123154
0.000132138
5.04694e-05
5.81179e-05
6.03373e-05
6.5147e-05
7.24242e-05
8.09246e-05
8.97723e-05
9.85617e-05
0.000106196
0.000109616
0.000110608
0.000119318
4.58441e-05
4.6573e-05
4.60556e-05
4.89676e-05
5.39916e-05
5.99086e-05
6.66568e-05
7.45863e-05
8.26524e-05
8.6987e-05
8.88121e-05
9.75202e-05
2.24868e-05
2.12645e-05
2.15459e-05
2.3247e-05
2.55754e-05
2.79856e-05
3.02373e-05
3.2611e-05
3.53985e-05
3.9096e-05
4.3989e-05
5.0464e-05
2.19221e-05
2.01791e-05
2.02961e-05
2.18798e-05
2.40428e-05
2.64888e-05
2.89601e-05
3.15554e-05
3.44063e-05
3.80608e-05
4.28343e-05
4.94177e-05
4.54842e-05
4.5047e-05
4.37083e-05
4.61521e-05
5.06782e-05
5.62157e-05
6.27594e-05
7.04058e-05
7.80293e-05
8.22655e-05
8.31546e-05
8.94471e-05
4.97982e-05
5.59005e-05
5.67524e-05
6.06028e-05
6.69289e-05
7.448e-05
8.26096e-05
9.09653e-05
9.83656e-05
0.000101962
0.000102062
0.000108895
5.18336e-05
6.19164e-05
6.47627e-05
6.97794e-05
7.72092e-05
8.59286e-05
9.491e-05
0.000103352
0.00010995
0.000112507
0.000112098
0.000119771
5.29918e-05
6.52627e-05
6.9436e-05
7.52377e-05
8.33268e-05
9.2689e-05
0.000102094
0.000110422
0.000116268
0.00011794
0.000117234
0.000125663
5.35444e-05
6.67628e-05
7.15715e-05
7.7761e-05
8.61587e-05
9.58073e-05
0.000105389
0.000113618
0.000119022
0.000120178
0.000119332
0.000128199
5.35443e-05
6.67625e-05
7.15711e-05
7.77608e-05
8.61586e-05
9.58073e-05
0.000105389
0.000113618
0.000119021
0.000120177
0.000119331
0.000128197
5.29915e-05
6.52617e-05
6.94351e-05
7.52373e-05
8.33269e-05
9.26895e-05
0.000102094
0.000110421
0.000116266
0.000117938
0.000117231
0.000125658
5.1833e-05
6.19147e-05
6.47616e-05
6.97798e-05
7.7211e-05
8.59309e-05
9.49116e-05
0.000103352
0.000109948
0.000112504
0.000112095
0.000119763
4.97967e-05
5.58977e-05
5.67517e-05
6.06056e-05
6.69344e-05
7.44864e-05
8.26144e-05
9.09666e-05
9.83635e-05
0.000101959
0.00010206
0.000108887
4.54799e-05
4.50416e-05
4.3708e-05
4.61587e-05
5.06899e-05
5.62283e-05
6.27688e-05
7.04091e-05
7.80278e-05
8.22641e-05
8.31553e-05
8.94423e-05
2.19189e-05
2.01763e-05
2.02972e-05
2.18843e-05
2.40486e-05
2.64937e-05
2.89633e-05
3.1557e-05
3.44061e-05
3.80593e-05
4.28324e-05
4.94162e-05
2.17655e-05
1.93094e-05
1.91455e-05
2.05382e-05
2.25478e-05
2.49091e-05
2.75147e-05
3.03098e-05
3.32734e-05
3.67542e-05
4.13698e-05
4.78674e-05
4.50871e-05
4.31373e-05
4.13826e-05
4.37003e-05
4.802e-05
5.33771e-05
5.97737e-05
6.72598e-05
7.49069e-05
7.92739e-05
8.02381e-05
8.24832e-05
4.89962e-05
5.34564e-05
5.35606e-05
5.70087e-05
6.28803e-05
6.9976e-05
7.779e-05
8.59997e-05
9.35193e-05
9.74729e-05
9.77407e-05
9.98588e-05
5.08542e-05
5.91489e-05
6.09781e-05
6.53505e-05
7.21231e-05
8.01578e-05
8.86361e-05
9.69254e-05
0.000103793
0.000106914
0.000106551
0.000108784
5.19204e-05
6.2307e-05
6.5291e-05
7.0296e-05
7.75909e-05
8.6125e-05
9.49046e-05
0.000103079
0.000109332
0.000111733
0.000110894
0.000113389
5.24316e-05
6.3723e-05
6.72633e-05
7.2582e-05
8.01207e-05
8.88746e-05
9.77727e-05
0.000105849
0.000111743
0.000113724
0.000112623
0.000115349
5.24315e-05
6.37227e-05
6.72629e-05
7.25819e-05
8.01208e-05
8.88748e-05
9.77728e-05
0.000105849
0.000111743
0.000113723
0.000112622
0.000115348
5.19201e-05
6.2306e-05
6.52902e-05
7.0296e-05
7.75915e-05
8.61259e-05
9.49052e-05
0.000103079
0.000109331
0.000111731
0.000110892
0.000113386
5.08535e-05
5.91472e-05
6.09772e-05
6.53513e-05
7.21254e-05
8.01607e-05
8.86383e-05
9.69257e-05
0.000103791
0.000106912
0.000106549
0.000108781
4.89945e-05
5.34536e-05
5.35601e-05
5.70118e-05
6.28861e-05
6.99826e-05
7.77949e-05
8.60013e-05
9.35177e-05
9.74713e-05
9.77408e-05
9.98571e-05
4.50827e-05
4.31322e-05
4.13825e-05
4.37069e-05
4.80315e-05
5.33896e-05
5.97833e-05
6.72638e-05
7.49058e-05
7.92737e-05
8.02407e-05
8.24858e-05
2.17619e-05
1.93059e-05
1.91461e-05
2.05426e-05
2.25536e-05
2.49143e-05
2.7518e-05
3.03114e-05
3.32736e-05
3.67534e-05
4.13677e-05
4.78643e-05
2.11586e-05
1.82317e-05
1.79775e-05
1.92619e-05
2.11166e-05
2.33023e-05
2.58546e-05
2.87107e-05
3.17352e-05
3.49932e-05
3.9123e-05
4.55038e-05
4.42226e-05
4.10837e-05
3.91996e-05
4.14455e-05
4.55776e-05
5.07515e-05
5.69873e-05
6.43481e-05
7.21893e-05
7.72409e-05
7.86794e-05
7.92132e-05
4.7992e-05
5.08984e-05
5.05744e-05
5.38617e-05
5.94379e-05
6.62198e-05
7.38253e-05
8.20046e-05
8.99328e-05
9.46812e-05
9.55987e-05
9.56768e-05
4.97276e-05
5.62947e-05
5.75058e-05
6.15952e-05
6.7986e-05
7.56006e-05
8.38136e-05
9.21482e-05
9.96089e-05
0.000103615
0.00010396
0.000103636
5.07226e-05
5.92888e-05
6.15312e-05
6.6168e-05
7.30206e-05
8.10695e-05
8.95493e-05
9.7831e-05
0.000104794
0.000108191
0.000108053
0.000107499
5.12011e-05
6.06322e-05
6.33723e-05
6.82809e-05
7.53468e-05
8.35851e-05
9.21676e-05
0.000100385
0.000107052
0.000110102
0.000109672
0.000109062
5.1201e-05
6.06319e-05
6.3372e-05
6.82808e-05
7.5347e-05
8.35854e-05
9.21678e-05
0.000100385
0.000107051
0.000110101
0.000109671
0.000109061
5.07223e-05
5.92878e-05
6.15305e-05
6.61682e-05
7.30215e-05
8.10708e-05
8.95502e-05
9.78309e-05
0.000104793
0.000108189
0.000108052
0.000107498
4.97267e-05
5.6293e-05
5.7505e-05
6.15963e-05
6.79887e-05
7.56038e-05
8.3816e-05
9.21486e-05
9.96074e-05
0.000103614
0.00010396
0.000103635
4.79901e-05
5.08957e-05
5.05741e-05
5.38649e-05
5.94439e-05
6.62264e-05
7.38303e-05
8.20063e-05
8.99311e-05
9.46799e-05
9.55994e-05
9.56785e-05
4.42186e-05
4.10795e-05
3.91999e-05
4.14521e-05
4.5589e-05
5.07641e-05
5.69972e-05
6.43527e-05
7.21882e-05
7.72409e-05
7.86828e-05
7.92192e-05
2.11539e-05
1.82278e-05
1.79778e-05
1.92661e-05
2.11224e-05
2.33076e-05
2.58582e-05
2.87125e-05
3.17358e-05
3.4993e-05
3.91215e-05
4.54995e-05
2.06932e-05
1.72336e-05
1.68773e-05
1.79934e-05
1.9684e-05
2.17263e-05
2.41123e-05
2.68961e-05
2.99152e-05
3.30158e-05
3.65049e-05
4.17522e-05
4.32868e-05
3.88392e-05
3.69486e-05
3.91852e-05
4.31151e-05
4.8061e-05
5.40584e-05
6.12115e-05
6.91199e-05
7.54052e-05
7.77052e-05
7.79792e-05
4.6841e-05
4.81815e-05
4.76741e-05
5.0887e-05
5.61799e-05
6.26368e-05
7.00021e-05
7.81126e-05
8.64065e-05
9.2514e-05
9.45189e-05
9.44149e-05
4.84762e-05
5.3313e-05
5.41921e-05
5.8156e-05
6.4222e-05
7.14574e-05
7.94223e-05
8.77807e-05
9.58511e-05
0.000101294
0.000102794
0.000102209
4.94128e-05
5.61621e-05
5.79784e-05
6.24462e-05
6.8953e-05
7.65953e-05
8.48279e-05
9.32036e-05
0.000100951
0.000105811
0.00010689
0.000105881
4.98636e-05
5.74413e-05
5.97106e-05
6.44291e-05
7.11386e-05
7.89584e-05
8.72955e-05
9.56454e-05
0.000103185
0.000107711
0.000108542
0.000107332
4.98634e-05
5.7441e-05
5.97103e-05
6.44291e-05
7.11389e-05
7.89588e-05
8.72957e-05
9.56453e-05
0.000103185
0.00010771
0.000108542
0.000107332
4.94124e-05
5.61611e-05
5.79777e-05
6.24465e-05
6.89541e-05
7.65967e-05
8.48289e-05
9.32035e-05
0.00010095
0.000105809
0.000106889
0.000105881
4.84753e-05
5.33113e-05
5.41914e-05
5.81573e-05
6.42249e-05
7.14608e-05
7.94248e-05
8.77812e-05
9.58493e-05
0.000101292
0.000102793
0.000102209
4.6839e-05
4.81789e-05
4.76738e-05
5.08902e-05
5.6186e-05
6.26436e-05
7.00073e-05
7.81145e-05
8.64046e-05
9.25121e-05
9.45194e-05
9.44177e-05
4.32829e-05
3.88354e-05
3.69491e-05
3.91916e-05
4.31264e-05
4.80736e-05
5.40686e-05
6.12167e-05
6.91191e-05
7.54044e-05
7.77082e-05
7.79857e-05
2.06891e-05
1.723e-05
1.68773e-05
1.79973e-05
1.96896e-05
2.17317e-05
2.41161e-05
2.68981e-05
2.99159e-05
3.3016e-05
3.65046e-05
4.17485e-05
1.99654e-05
1.61091e-05
1.58064e-05
1.6803e-05
1.83111e-05
2.01658e-05
2.23376e-05
2.48923e-05
2.77325e-05
3.06731e-05
3.37053e-05
3.74843e-05
4.20052e-05
3.64502e-05
3.47237e-05
3.69403e-05
4.06066e-05
4.52426e-05
5.09028e-05
5.77003e-05
6.53652e-05
7.27052e-05
7.65249e-05
7.75898e-05
4.55117e-05
4.53355e-05
4.48304e-05
4.79883e-05
5.29465e-05
5.90077e-05
6.60359e-05
7.39356e-05
8.22859e-05
8.97409e-05
9.35109e-05
9.43025e-05
4.70851e-05
5.02185e-05
5.09785e-05
5.48623e-05
6.05669e-05
6.73697e-05
7.50058e-05
8.32522e-05
9.16108e-05
9.86552e-05
0.000102005
0.000102343
4.79767e-05
5.2934e-05
5.45532e-05
5.89218e-05
6.50576e-05
7.22527e-05
8.01679e-05
8.8501e-05
9.66974e-05
0.000103293
0.000106257
0.000106261
4.84043e-05
5.41539e-05
5.61906e-05
6.07996e-05
6.71351e-05
7.45021e-05
8.25283e-05
9.08714e-05
9.89439e-05
0.000105252
0.000107999
0.000107799
4.84042e-05
5.41536e-05
5.61904e-05
6.07996e-05
6.71354e-05
7.45025e-05
8.25286e-05
9.08713e-05
9.89434e-05
0.000105251
0.000107998
0.000107799
4.79763e-05
5.2933e-05
5.45526e-05
5.89221e-05
6.50589e-05
7.22543e-05
8.0169e-05
8.85009e-05
9.66959e-05
0.00010329
0.000106256
0.00010626
4.7084e-05
5.02169e-05
5.09779e-05
5.48636e-05
6.05699e-05
6.73733e-05
7.50084e-05
8.32528e-05
9.16088e-05
9.86522e-05
0.000102004
0.000102343
4.55096e-05
4.53331e-05
4.48302e-05
4.79916e-05
5.29525e-05
5.90145e-05
6.60412e-05
7.39378e-05
8.2284e-05
8.97374e-05
9.35097e-05
9.43047e-05
4.20012e-05
3.64467e-05
3.47243e-05
3.69466e-05
4.06176e-05
4.5255e-05
5.09132e-05
5.77061e-05
6.53653e-05
7.27027e-05
7.65259e-05
7.75951e-05
1.99613e-05
1.61058e-05
1.58064e-05
1.68066e-05
1.83165e-05
2.01712e-05
2.23417e-05
2.48947e-05
2.77335e-05
3.06734e-05
3.37057e-05
3.74837e-05
1.91242e-05
1.49672e-05
1.47345e-05