/*--------------------------------*- C++ -*----------------------------------*\
| =========                 |                                                 |
| \\      /  F ield         | OpenFOAM: The Open Source CFD Toolbox           |
|  \\    /   O peration     | Version:  2.3.1                                 |
|   \\  /    A nd           | Web:      www.OpenFOAM.org                      |
|    \\/     M anipulation  |                                                 |
\*---------------------------------------------------------------------------*/
FoamFile
{
    version     2.0;
    format      ascii;
    class       volScalarField;
    location    "15";
    object      k_0;
}
// * * * * * * * * * * * * * * * * * * * * * * * * * * * * * * * * * * * * * //

dimensions      [0 2 -2 0 0 0 0];

internalField   nonuniform List<scalar> 
37758
(
3.13728e-05
3.26547e-05
3.52752e-05
3.6887e-05
3.82505e-05
4.12319e-05
4.22871e-05
4.43659e-05
4.6327e-05
4.72633e-05
4.99448e-05
5.16038e-05
3.19492e-05
3.53522e-05
4.02184e-05
4.27063e-05
4.60858e-05
5.14933e-05
5.37483e-05
5.827e-05
6.21887e-05
6.48003e-05
7.12718e-05
7.54746e-05
3.19065e-05
3.51265e-05
4.03307e-05
4.30409e-05
4.63964e-05
5.1272e-05
5.3456e-05
5.80538e-05
6.22092e-05
6.53048e-05
7.24837e-05
7.69313e-05
3.20587e-05
3.47756e-05
4.02359e-05
4.3345e-05
4.65261e-05
5.12865e-05
5.33934e-05
5.78853e-05
6.24563e-05
6.55914e-05
7.31583e-05
7.71164e-05
3.21316e-05
3.46908e-05
4.01504e-05
4.34572e-05
4.65501e-05
5.12589e-05
5.33972e-05
5.80534e-05
6.29287e-05
6.61461e-05
7.3795e-05
7.75614e-05
3.21311e-05
3.46797e-05
4.0162e-05
4.34976e-05
4.65186e-05
5.12079e-05
5.33741e-05
5.81605e-05
6.31306e-05
6.63981e-05
7.40482e-05
7.76594e-05
3.21312e-05
3.46797e-05
4.0162e-05
4.34977e-05
4.65184e-05
5.12078e-05
5.33741e-05
5.81605e-05
6.3131e-05
6.63985e-05
7.40487e-05
7.76602e-05
3.21317e-05
3.46908e-05
4.01502e-05
4.34575e-05
4.65498e-05
5.12586e-05
5.33972e-05
5.80534e-05
6.29301e-05
6.61474e-05
7.37965e-05
7.75639e-05
3.20588e-05
3.47756e-05
4.02357e-05
4.33453e-05
4.65256e-05
5.12863e-05
5.33934e-05
5.78852e-05
6.24579e-05
6.5593e-05
7.31605e-05
7.71203e-05
3.19067e-05
3.51264e-05
4.03306e-05
4.30414e-05
4.63958e-05
5.12716e-05
5.34559e-05
5.80534e-05
6.22107e-05
6.53064e-05
7.2486e-05
7.69352e-05
3.19493e-05
3.53522e-05
4.02185e-05
4.2707e-05
4.60849e-05
5.14927e-05
5.37481e-05
5.82694e-05
6.21902e-05
6.48019e-05
7.12729e-05
7.54782e-05
3.13729e-05
3.26548e-05
3.52751e-05
3.68874e-05
3.82498e-05
4.12313e-05
4.22871e-05
4.43654e-05
4.63277e-05
4.72638e-05
4.99443e-05
5.16041e-05
3.07999e-05
3.21301e-05
3.41146e-05
3.51784e-05
3.69837e-05
3.90489e-05
4.03407e-05
4.33443e-05
4.51651e-05
4.80877e-05
5.27914e-05
5.48962e-05
3.02872e-05
3.12028e-05
3.22474e-05
3.39782e-05
3.72566e-05
3.98014e-05
4.33171e-05
5.24113e-05
5.75878e-05
6.67801e-05
7.95448e-05
8.36002e-05
3.021e-05
3.12493e-05
3.2088e-05
3.37698e-05
3.62767e-05
3.84397e-05
4.23164e-05
5.22013e-05
5.88859e-05
7.02896e-05
8.64847e-05
9.3014e-05
3.01994e-05
3.1281e-05
3.20888e-05
3.35497e-05
3.60006e-05
3.82812e-05
4.24833e-05
5.32097e-05
6.044e-05
7.20618e-05
8.88264e-05
9.47315e-05
3.02042e-05
3.12088e-05
3.21467e-05
3.33014e-05
3.57506e-05
3.85379e-05
4.35007e-05
5.56922e-05
6.30873e-05
7.50258e-05
9.10436e-05
9.60263e-05
3.02007e-05
3.11491e-05
3.22196e-05
3.32954e-05
3.55397e-05
3.84823e-05
4.38371e-05
5.68e-05
6.42892e-05
7.65659e-05
9.19609e-05
9.6463e-05
3.02007e-05
3.11491e-05
3.22196e-05
3.32954e-05
3.55394e-05
3.84821e-05
4.38374e-05
5.68016e-05
6.42921e-05
7.65685e-05
9.19654e-05
9.64679e-05
3.02041e-05
3.12085e-05
3.2147e-05
3.33014e-05
3.57499e-05
3.85382e-05
4.35023e-05
5.56977e-05
6.30965e-05
7.50341e-05
9.10574e-05
9.60404e-05
3.01994e-05
3.12809e-05
3.20888e-05
3.35488e-05
3.60002e-05
3.82819e-05
4.24856e-05
5.32165e-05
6.04521e-05
7.20731e-05
8.8848e-05
9.47535e-05
3.021e-05
3.12493e-05
3.20879e-05
3.37688e-05
3.62758e-05
3.84399e-05
4.23178e-05
5.22072e-05
5.88976e-05
7.03014e-05
8.65078e-05
9.3037e-05
3.02873e-05
3.1203e-05
3.22468e-05
3.39777e-05
3.72549e-05
3.98008e-05
4.33172e-05
5.24148e-05
5.75957e-05
6.67883e-05
7.95629e-05
8.36183e-05
3.07999e-05
3.21302e-05
3.41147e-05
3.51785e-05
3.69833e-05
3.90489e-05
4.03405e-05
4.3344e-05
4.51659e-05
4.80867e-05
5.27929e-05
5.48979e-05
3.0752e-05
3.26937e-05
3.42435e-05
3.59543e-05
3.99386e-05
4.24664e-05
4.53103e-05
5.21229e-05
5.57602e-05
6.34222e-05
7.28486e-05
7.61911e-05
3.44968e-05
4.46863e-05
5.64976e-05
7.16121e-05
9.02477e-05
0.000101579
0.00011822
0.000142605
0.000152665
0.00016921
0.00018578
0.00018534
3.37472e-05
4.50703e-05
5.38946e-05
6.89811e-05
8.59541e-05
9.8114e-05
0.000120422
0.000148086
0.000165467
0.000185966
0.000206449
0.000209286
3.35083e-05
4.53668e-05
5.32184e-05
6.7559e-05
8.48343e-05
9.79765e-05
0.000122384
0.00015113
0.000170008
0.000190262
0.000209814
0.000213906
3.3627e-05
4.45119e-05
5.32684e-05
6.60763e-05
8.39648e-05
0.000101036
0.000127954
0.000156781
0.000175114
0.000194298
0.000211822
0.000214919
3.35984e-05
4.41927e-05
5.35894e-05
6.51645e-05
8.32441e-05
0.000101978
0.000130276
0.000159566
0.000177735
0.000196506
0.00021289
0.000215083
3.35981e-05
4.41927e-05
5.35896e-05
6.51632e-05
8.3243e-05
0.00010198
0.000130279
0.000159571
0.000177742
0.000196513
0.000212898
0.000215091
3.36267e-05
4.4511e-05
5.32686e-05
6.60734e-05
8.3964e-05
0.000101042
0.000127965
0.000156799
0.000175135
0.000194318
0.000211845
0.000214943
3.35078e-05
4.53662e-05
5.32171e-05
6.75545e-05
8.48341e-05
9.79849e-05
0.000122397
0.000151154
0.000170038
0.000190292
0.00020985
0.000213942
3.37467e-05
4.50704e-05
5.38907e-05
6.89753e-05
8.59523e-05
9.81178e-05
0.000120431
0.00014811
0.0001655
0.000186
0.00020649
0.000209326
3.44964e-05
4.46862e-05
5.64915e-05
7.16079e-05
9.02407e-05
0.000101583
0.000118224
0.000142622
0.000152691
0.000169238
0.000185814
0.000185374
3.07519e-05
3.2694e-05
3.42434e-05
3.59538e-05
3.99377e-05
4.24679e-05
4.53101e-05
5.2124e-05
5.57626e-05
6.34215e-05
7.28542e-05
7.6197e-05
3.12051e-05
3.53198e-05
3.92552e-05
4.61382e-05
5.58896e-05
6.04385e-05
6.8103e-05
7.60048e-05
8.13621e-05
8.75488e-05
9.37569e-05
9.597e-05
9.96972e-05
0.000180883
0.000231673
0.000263845
0.000279032
0.000281945
0.000281322
0.000278991
0.000271592
0.000266772
0.000260228
0.000244302
9.60187e-05
0.000182998
0.000226345
0.000261401
0.000279273
0.000287802
0.000297314
0.000299358
0.000298759
0.000297385
0.000293266
0.000282667
9.55032e-05
0.000185037
0.000225566
0.000259921
0.000278755
0.000290113
0.000301314
0.000305185
0.000305645
0.000305364
0.000302679
0.0002946
9.48343e-05
0.000183581
0.000224212
0.000258299
0.000279952
0.000296148
0.000306991
0.0003096
0.000309627
0.000309252
0.000306604
0.000298828
9.48925e-05
0.00018332
0.000223914
0.000256966
0.000280227
0.000298906
0.000309764
0.000311847
0.000311736
0.000311092
0.000308166
0.00030016
9.48924e-05
0.00018332
0.000223913
0.000256964
0.000280228
0.00029891
0.000309769
0.000311852
0.000311742
0.000311097
0.000308172
0.000300166
9.48347e-05
0.00018358
0.000224208
0.000258295
0.000279957
0.00029616
0.000307007
0.000309617
0.000309644
0.000309268
0.000306619
0.000298843
9.55009e-05
0.000185034
0.000225559
0.000259916
0.000278761
0.00029013
0.000301337
0.00030521
0.00030567
0.000305388
0.000302703
0.000294623
9.60162e-05
0.000182994
0.000226333
0.000261391
0.000279276
0.000287815
0.000297336
0.000299386
0.000298788
0.000297413
0.000293292
0.000282691
9.96924e-05
0.000180874
0.000231657
0.000263837
0.000279027
0.00028196
0.000281342
0.000279018
0.000271629
0.000266801
0.000260253
0.000244321
3.12045e-05
3.53212e-05
3.92534e-05
4.61352e-05
5.5892e-05
6.04416e-05
6.8104e-05
7.601e-05
8.13689e-05
8.75549e-05
9.37642e-05
9.59776e-05
3.44466e-05
4.37288e-05
5.77672e-05
6.63398e-05
7.38564e-05
7.92271e-05
8.19482e-05
8.50918e-05
8.86897e-05
9.01705e-05
9.18769e-05
9.29465e-05
0.000276414
0.00033811
0.000392951
0.000389815
0.000377998
0.000357773
0.000335274
0.000312428
0.000296335
0.000282035
0.000265562
0.000245093
0.000337308
0.000446423
0.000448658
0.000437771
0.000412819
0.000390173
0.000370056
0.000348967
0.000336384
0.000323493
0.000310619
0.000293858
0.000349838
0.000471476
0.000469127
0.000454418
0.000424177
0.000400754
0.000381001
0.000360757
0.000349603
0.000338333
0.000327259
0.00031272
0.000356488
0.000480314
0.000477615
0.000461818
0.000430942
0.000407689
0.000386668
0.000365905
0.000355099
0.000344712
0.000334478
0.000320763
0.000358708
0.000483628
0.000480898
0.000464711
0.000434031
0.000410871
0.000389114
0.000368022
0.000357247
0.000347092
0.000337153
0.000323674
0.000358708
0.000483629
0.000480899
0.000464712
0.000434033
0.000410873
0.000389116
0.000368024
0.000357249
0.000347095
0.000337155
0.000323676
0.000356491
0.000480318
0.000477619
0.000461822
0.000430948
0.000407697
0.000386677
0.000365912
0.000355105
0.000344719
0.000334484
0.00032077
0.000349844
0.000471481
0.000469131
0.000454424
0.000424187
0.000400765
0.000381015
0.00036077
0.000349613
0.000338344
0.000327268
0.000312729
0.000337312
0.000446428
0.000448663
0.000437777
0.00041283
0.000390187
0.000370076
0.000348985
0.000336399
0.000323507
0.00031063
0.000293867
0.000276412
0.000338111
0.000392959
0.000389828
0.000378017
0.0003578
0.000335309
0.000312462
0.000296362
0.000282051
0.000265571
0.000245094
3.44466e-05
4.37282e-05
5.77679e-05
6.63421e-05
7.38599e-05
7.92336e-05
8.19585e-05
8.51027e-05
8.87019e-05
9.01801e-05
9.18829e-05
9.29504e-05
2.566e-05
3.16802e-05
4.132e-05
5.01131e-05
5.86272e-05
6.38464e-05
6.80881e-05
7.21898e-05
7.31523e-05
7.1522e-05
7.10613e-05
7.22681e-05
9.14343e-05
0.000135482
0.000209228
0.000246533
0.000266769
0.000266973
0.000263311
0.000256054
0.000249924
0.000240054
0.000228941
0.000217066
0.000119446
0.00020639
0.000268904
0.000306669
0.000317093
0.000316509
0.000312857
0.000306394
0.000303341
0.000296518
0.000286749
0.000272041
0.000129071
0.000231022
0.000295181
0.000332304
0.000338128
0.000337112
0.000332895
0.000327162
0.000325385
0.000320466
0.000311454
0.000296702
0.000133428
0.000240357
0.000306641
0.000343921
0.000348228
0.000346883
0.000341679
0.000336171
0.000335094
0.00033127
0.000322854
0.000308151
0.00013496
0.000243336
0.00031065
0.000348212
0.000352132
0.000350635
0.000344948
0.000339559
0.000338758
0.000335287
0.000327253
0.000312589
0.00013496
0.000243335
0.000310649
0.000348211
0.000352132
0.000350634
0.000344948
0.000339558
0.000338757
0.000335286
0.000327252
0.000312588
0.000133428
0.000240356
0.00030664
0.000343922
0.000348227
0.000346882
0.000341679
0.00033617
0.000335091
0.000331268
0.000322852
0.000308149
0.000129071
0.000231019
0.000295179
0.000332305
0.000338129
0.000337113
0.000332897
0.000327162
0.000325383
0.000320464
0.00031145
0.000296698
0.000119444
0.000206386
0.000268902
0.000306672
0.000317099
0.000316515
0.000312867
0.0003064
0.000303342
0.000296515
0.000286743
0.000272035
9.14308e-05
0.000135481
0.000209238
0.000246553
0.000266796
0.000267006
0.000263343
0.000256076
0.000249935
0.000240051
0.000228926
0.000217046
2.56593e-05
3.16804e-05
4.13236e-05
5.01187e-05
5.86363e-05
6.38586e-05
6.81026e-05
7.22015e-05
7.31606e-05
7.15255e-05
7.10573e-05
7.22601e-05
2.34558e-05
2.65888e-05
3.09886e-05
3.65211e-05
4.26011e-05
4.78916e-05
5.23653e-05
5.48092e-05
5.46668e-05
5.36733e-05
5.49961e-05
5.99533e-05
5.22815e-05
7.19039e-05
0.000103884
0.000132977
0.000159219
0.000175195
0.000186162
0.000193182
0.000195662
0.000195034
0.000192499
0.000187121
6.81687e-05
0.000107494
0.00014718
0.000182427
0.000208395
0.000225797
0.000237794
0.000247511
0.00025454
0.000253848
0.000249301
0.000238508
7.49612e-05
0.000124874
0.000169768
0.000207998
0.000232595
0.00025046
0.000262697
0.000273647
0.000282342
0.000281927
0.000276994
0.000264472
7.80484e-05
0.000132685
0.000180438
0.000220064
0.000244115
0.000262123
0.000274409
0.000286126
0.000295732
0.000295545
0.000290558
0.000277382
7.92464e-05
0.000135497
0.000184398
0.000224587
0.000248522
0.000266607
0.000278956
0.000291057
0.000301053
0.000300952
0.000295977
0.000282613
7.92463e-05
0.000135496
0.000184396
0.000224585
0.00024852
0.000266605
0.000278954
0.000291054
0.00030105
0.000300949
0.000295974
0.000282611
7.80483e-05
0.000132682
0.000180434
0.00022006
0.000244109
0.000262117
0.000274403
0.000286119
0.000295724
0.000295538
0.00029055
0.000277375
7.49607e-05
0.00012487
0.000169763
0.000207992
0.000232589
0.000250454
0.000262691
0.000273638
0.000282331
0.000281916
0.000276983
0.000264461
6.81671e-05
0.000107489
0.000147176
0.000182424
0.000208394
0.000225796
0.000237794
0.000247505
0.000254529
0.000253836
0.000249287
0.000238494
5.22788e-05
7.19006e-05
0.000103887
0.000132989
0.000159237
0.000175215
0.000186178
0.000193187
0.000195651
0.000195017
0.000192476
0.000187098
2.34547e-05
2.65884e-05
3.09909e-05
3.65258e-05
4.26084e-05
4.79006e-05
5.23745e-05
5.4814e-05
5.467e-05
5.36711e-05
5.49885e-05
5.99389e-05
2.3282e-05
2.49151e-05
2.75055e-05
3.13165e-05
3.55525e-05
3.95103e-05
4.20193e-05
4.32753e-05
4.39806e-05
4.53459e-05
4.89124e-05
5.69528e-05
4.60616e-05
5.60935e-05
6.94325e-05
8.64511e-05
0.00010532
0.00012226
0.000136763
0.000148036
0.000155973
0.000160077
0.000160392
0.000158567
5.56614e-05
7.70472e-05
9.78927e-05
0.000121086
0.00014408
0.000165378
0.000183615
0.000199347
0.000210826
0.000213034
0.00021077
0.000203226
6.04395e-05
8.88334e-05
0.000114586
0.000141414
0.000166304
0.000189353
0.000209106
0.000226694
0.000239422
0.000241118
0.00023782
0.000227486
6.28123e-05
9.49027e-05
0.00012334
0.000152006
0.00017777
0.000201645
0.000222187
0.000240777
0.000254065
0.000255542
0.000251734
0.000240087
6.38183e-05
9.73801e-05
0.000126927
0.000156331
0.000182461
0.000206683
0.000227576
0.000246621
0.000260123
0.000261495
0.000257476
0.000245336
6.38182e-05
9.73794e-05
0.000126925
0.000156329
0.000182459
0.00020668
0.000227573
0.000246618
0.00026012
0.000261491
0.000257473
0.000245333
6.28122e-05
9.49008e-05
0.000123336
0.000152001
0.000177764
0.000201638
0.000222179
0.000240768
0.000254055
0.000255532
0.000251724
0.000240079
6.04391e-05
8.88303e-05
0.000114581
0.000141408
0.000166296
0.000189345
0.000209097
0.000226683
0.000239408
0.000241104
0.000237806
0.000227474
5.56603e-05
7.70433e-05
9.78887e-05
0.000121083
0.000144076
0.000165374
0.00018361
0.000199338
0.000210811
0.000213018
0.000210754
0.000203212
4.6059e-05
5.6089e-05
6.94324e-05
8.64577e-05
0.000105332
0.00012227
0.000136769
0.000148032
0.000155956
0.000160054
0.000160371
0.000158549
2.32803e-05
2.49139e-05
2.75073e-05
3.13208e-05
3.5558e-05
3.95161e-05
4.20246e-05
4.32781e-05
4.39813e-05
4.5342e-05
4.8903e-05
5.69386e-05
2.28096e-05
2.41493e-05
2.59145e-05
2.88388e-05
3.19593e-05
3.43393e-05
3.60629e-05
3.75257e-05
3.90813e-05
4.19037e-05
4.6647e-05
5.43199e-05
4.56367e-05
5.16159e-05
5.81635e-05
6.82015e-05
8.0949e-05
9.41005e-05
0.000106229
0.000116964
0.000126106
0.000130492
0.000131831
0.000133616
5.34985e-05
6.76133e-05
7.96417e-05
9.45325e-05
0.000111874
0.000129901
0.000146909
0.000161944
0.000173175
0.00017607
0.000174972
0.000171589
5.74806e-05
7.68413e-05
9.29108e-05
0.000111043
0.000130931
0.000151388
0.000170705
0.000187793
0.000199683
0.000201738
0.000199505
0.000193034
5.95562e-05
8.18781e-05
0.000100368
0.000120296
0.000141492
0.000163172
0.000183641
0.000201771
0.000213817
0.000215355
0.0002124
0.000204424
6.04724e-05
8.40602e-05
0.000103611
0.000124311
0.000146059
0.000168253
0.000189201
0.000207771
0.000219824
0.000221102
0.000217799
0.000209207
6.04724e-05
8.40596e-05
0.00010361
0.00012431
0.000146057
0.00016825
0.000189198
0.000207768
0.00021982
0.000221098
0.000217796
0.000209205
5.9556e-05
8.18765e-05
0.000100365
0.000120292
0.000141487
0.000163166
0.000183634
0.000201762
0.000213808
0.000215345
0.00021239
0.000204416
5.74802e-05
7.68388e-05
9.29071e-05
0.000111038
0.000130925
0.000151381
0.000170698
0.000187783
0.00019967
0.000201724
0.000199491
0.000193024
5.34975e-05
6.76099e-05
7.96386e-05
9.45304e-05
0.000111872
0.000129899
0.000146905
0.000161935
0.000173161
0.000176056
0.000174958
0.000171579
4.56339e-05
5.16108e-05
5.81626e-05
6.82066e-05
8.09583e-05
9.41098e-05
0.000106235
0.00011696
0.000126091
0.000130476
0.000131814
0.000133604
2.28078e-05
2.41479e-05
2.59163e-05
2.88432e-05
3.19646e-05
3.43447e-05
3.6067e-05
3.75275e-05
3.90811e-05
4.18985e-05
4.66404e-05
5.43114e-05
2.29817e-05
2.31227e-05
2.42472e-05
2.65889e-05
2.92441e-05
3.13614e-05
3.2966e-05
3.47507e-05
3.69476e-05
4.05183e-05
4.55414e-05
5.25159e-05
4.56586e-05
4.94623e-05
5.26402e-05
5.87887e-05
6.73528e-05
7.67368e-05
8.59246e-05
9.49497e-05
0.000103722
0.000107889
0.000110411
0.000116128
5.1711e-05
6.31584e-05
7.07035e-05
8.05081e-05
9.30028e-05
0.000106832
0.000120393
0.00013263
0.000142076
0.000145017
0.000145206
0.000147532
5.47925e-05
7.10238e-05
8.19248e-05
9.43611e-05
0.000109258
0.000125557
0.000141495
0.000155465
0.000164891
0.000166756
0.000165729
0.000166499
5.64756e-05
7.54135e-05
8.83997e-05
0.000102422
0.000118644
0.000136236
0.000153386
0.000168205
0.000177351
0.000178427
0.000176548
0.000176577
5.72476e-05
7.7358e-05
9.12967e-05
0.000106039
0.000122842
0.000140983
0.000158642
0.0001738
0.000182728
0.000183402
0.000181081
0.000180771
5.72476e-05
7.73576e-05
9.12959e-05
0.000106038
0.00012284
0.000140981
0.00015864
0.000173797
0.000182725
0.000183399
0.000181079
0.000180769
5.64755e-05
7.54122e-05
8.83976e-05
0.000102419
0.000118641
0.000136231
0.000153381
0.000168198
0.000177343
0.000178419
0.00017654
0.000176571
5.47922e-05
7.10216e-05
8.19221e-05
9.43581e-05
0.000109254
0.000125553
0.00014149
0.000155458
0.000164881
0.000166745
0.000165719
0.000166491
5.171e-05
6.31552e-05
7.07012e-05
8.05078e-05
9.30037e-05
0.000106834
0.000120392
0.000132626
0.000142067
0.000145007
0.000145195
0.000147525
4.56551e-05
4.94568e-05
5.26391e-05
5.87943e-05
6.73633e-05
7.67481e-05
8.59323e-05
9.49491e-05
0.000103713
0.000107878
0.000110401
0.00011612
2.29794e-05
2.31205e-05
2.42487e-05
2.65936e-05
2.92496e-05
3.13664e-05
3.29695e-05
3.47523e-05
3.69466e-05
4.05145e-05
4.55375e-05
5.25112e-05
2.24861e-05
2.21353e-05
2.2834e-05
2.48325e-05
2.72979e-05
2.94566e-05
3.13606e-05
3.34389e-05
3.60276e-05
3.98668e-05
4.49503e-05
5.15416e-05
4.56497e-05
4.82264e-05
4.9042e-05
5.29749e-05
5.91121e-05
6.60439e-05
7.33891e-05
8.15727e-05
9.0174e-05
9.46439e-05
9.74697e-05
0.000105712
5.10243e-05
6.05974e-05
6.48013e-05
7.14607e-05
8.06564e-05
9.11372e-05
0.000101674
0.000111588
0.000119761
0.000122902
0.000124204
0.000130913
5.36445e-05
6.75964e-05
7.46179e-05
8.33289e-05
9.44943e-05
0.000107085
0.000119554
0.000130473
0.000137947
0.000139844
0.000140422
0.000146312
5.5107e-05
7.15136e-05
8.03397e-05
9.03547e-05
0.000102659
0.000116394
0.000129881
0.000141254
0.000148037
0.000148948
0.00014905
0.000154594
5.57916e-05
7.32645e-05
8.29342e-05
9.35641e-05
0.000106382
0.000120615
0.000134535
0.000146072
0.00015243
0.000152792
0.00015266
0.000158069
5.57916e-05
7.32641e-05
8.29336e-05
9.35634e-05
0.000106382
0.000120614
0.000134534
0.00014607
0.000152429
0.000152791
0.000152658
0.000158068
5.51069e-05
7.15125e-05
8.03381e-05
9.03529e-05
0.000102657
0.000116392
0.000129878
0.00014125
0.000148032
0.000148943
0.000149044
0.000154589
5.36442e-05
6.75945e-05
7.46159e-05
8.33275e-05
9.44933e-05
0.000107084
0.000119552
0.000130469
0.000137941
0.000139836
0.000140414
0.000146305
5.10231e-05
6.05944e-05
6.47998e-05
7.14619e-05
8.06597e-05
9.11412e-05
0.000101676
0.000111587
0.000119756
0.000122896
0.000124196
0.000130906
4.56458e-05
4.82209e-05
4.90412e-05
5.29813e-05
5.91236e-05
6.60566e-05
7.33983e-05
8.15743e-05
9.01697e-05
9.46384e-05
9.74634e-05
0.000105705
2.24833e-05
2.2133e-05
2.28355e-05
2.48374e-05
2.73036e-05
2.94613e-05
3.13638e-05
3.34404e-05
3.60259e-05
3.98639e-05
4.49475e-05
5.1539e-05
2.24918e-05
2.12695e-05
2.15479e-05
2.32464e-05
2.55747e-05
2.79864e-05
3.02396e-05
3.26143e-05
3.54036e-05
3.91029e-05
4.39993e-05
5.04762e-05
4.58549e-05
4.65858e-05
4.60639e-05
4.89703e-05
5.39907e-05
5.99071e-05
6.66581e-05
7.45928e-05
8.26601e-05
8.69896e-05
8.88176e-05
9.75476e-05
5.04779e-05
5.813e-05
6.03487e-05
6.5157e-05
7.24334e-05
8.09337e-05
8.97814e-05
9.85714e-05
0.000106203
0.000109616
0.000110612
0.000119345
5.27318e-05
6.4573e-05
6.91504e-05
7.54999e-05
8.42533e-05
9.43382e-05
0.000104478
0.000113606
0.0001203
0.000122475
0.000123157
0.000132163
5.40088e-05
6.81671e-05
7.42864e-05
8.16544e-05
9.12895e-05
0.000102257
0.000113084
0.000122273
0.000128112
0.00012927
0.000129749
0.000139097
5.46142e-05
6.97776e-05
7.66279e-05
8.44901e-05
9.4533e-05
0.000105891
0.000117014
0.00012619
0.000131525
0.000132104
0.000132467
0.000142028
5.46142e-05
6.97772e-05
7.66274e-05
8.44896e-05
9.45326e-05
0.000105891
0.000117013
0.000126189
0.000131524
0.000132103
0.000132466
0.000142027
5.40087e-05
6.8166e-05
7.42852e-05
8.16534e-05
9.12887e-05
0.000102256
0.000113083
0.000122271
0.000128109
0.000129266
0.000129744
0.000139092
5.27313e-05
6.45712e-05
6.9149e-05
7.54996e-05
8.4254e-05
9.43393e-05
0.000104478
0.000113605
0.000120297
0.00012247
0.000123151
0.000132156
5.04765e-05
5.81271e-05
6.03476e-05
6.51592e-05
7.24382e-05
8.09394e-05
8.97857e-05
9.8572e-05
0.000106199
0.000109612
0.000110607
0.000119337
4.58507e-05
4.658e-05
4.60633e-05
4.89768e-05
5.40025e-05
5.99199e-05
6.66675e-05
7.45955e-05
8.26576e-05
8.69865e-05
8.88142e-05
9.75411e-05
2.24888e-05
2.12667e-05
2.15489e-05
2.32512e-05
2.55806e-05
2.79912e-05
3.02427e-05
3.26157e-05
3.54027e-05
3.91009e-05
4.39967e-05
5.04751e-05
2.19239e-05
2.01811e-05
2.02989e-05
2.18835e-05
2.40474e-05
2.64941e-05
2.89655e-05
3.15604e-05
3.44108e-05
3.80658e-05
4.28413e-05
4.94285e-05
4.54904e-05
4.50532e-05
4.37153e-05
4.61607e-05
5.06885e-05
5.62268e-05
6.27704e-05
7.04156e-05
7.80356e-05
8.2267e-05
8.31561e-05
8.94643e-05
4.98051e-05
5.59088e-05
5.67617e-05
6.06141e-05
6.69422e-05
7.44943e-05
8.26232e-05
9.09765e-05
9.83713e-05
0.000101961
0.00010206
0.000108912
5.18408e-05
6.19258e-05
6.47732e-05
6.97919e-05
7.72238e-05
8.59442e-05
9.49247e-05
0.000103364
0.000109955
0.000112504
0.000112095
0.000119789
5.2999e-05
6.52726e-05
6.94471e-05
7.52507e-05
8.3342e-05
9.27052e-05
0.000102109
0.000110433
0.000116272
0.000117935
0.000117229
0.000125682
5.35517e-05
6.67729e-05
7.15828e-05
7.77742e-05
8.6174e-05
9.58237e-05
0.000105404
0.000113629
0.000119025
0.000120173
0.000119328
0.000128218
5.35516e-05
6.67725e-05
7.15825e-05
7.7774e-05
8.61739e-05
9.58237e-05
0.000105404
0.000113629
0.000119024
0.000120172
0.000119327
0.000128216
5.29988e-05
6.52716e-05
6.94462e-05
7.52503e-05
8.33421e-05
9.27057e-05
0.000102109
0.000110433
0.00011627
0.000117933
0.000117226
0.000125677
5.18402e-05
6.19241e-05
6.47722e-05
6.97924e-05
7.72256e-05
8.59465e-05
9.49264e-05
0.000103363
0.000109952
0.000112501
0.000112091
0.000119782
4.98035e-05
5.5906e-05
5.6761e-05
6.06169e-05
6.69477e-05
7.45006e-05
8.2628e-05
9.09777e-05
9.83693e-05
0.000101958
0.000102059
0.000108905
4.54861e-05
4.50477e-05
4.3715e-05
4.61674e-05
5.07002e-05
5.62394e-05
6.27798e-05
7.0419e-05
7.80341e-05
8.22656e-05
8.31567e-05
8.94595e-05
2.19206e-05
2.01783e-05
2.03e-05
2.1888e-05
2.40532e-05
2.6499e-05
2.89687e-05
3.15619e-05
3.44107e-05
3.80643e-05
4.28393e-05
4.94271e-05
2.1767e-05
1.93111e-05
1.91479e-05
2.05414e-05
2.25518e-05
2.49139e-05
2.75198e-05
3.03148e-05
3.3278e-05
3.67592e-05
4.13762e-05
4.7877e-05
4.50929e-05
4.31427e-05
4.1389e-05
4.37084e-05
4.80296e-05
5.33877e-05
5.97847e-05
6.72702e-05
7.49145e-05
7.92772e-05
8.02401e-05
8.24924e-05
4.90026e-05
5.34638e-05
5.35691e-05
5.70193e-05
6.28928e-05
6.99898e-05
7.78036e-05
8.60117e-05
9.35269e-05
9.74743e-05
9.77403e-05
9.98674e-05
5.08609e-05
5.91572e-05
6.09877e-05
6.53622e-05
7.2137e-05
8.01729e-05
8.8651e-05
9.6938e-05
0.0001038
0.000106914
0.000106548
0.000108792
5.19273e-05
6.23158e-05
6.53011e-05
7.03083e-05
7.76054e-05
8.61408e-05
9.49199e-05
0.000103092
0.000109339
0.000111732
0.00011089
0.000113397
5.24385e-05
6.37321e-05
6.72736e-05
7.25944e-05
8.01354e-05
8.88906e-05
9.77882e-05
0.000105862
0.000111749
0.000113722
0.000112618
0.000115358
5.24384e-05
6.37317e-05
6.72732e-05
7.25943e-05
8.01355e-05
8.88908e-05
9.77884e-05
0.000105861
0.000111749
0.000113721
0.000112618
0.000115356
5.1927e-05
6.23149e-05
6.53004e-05
7.03082e-05
7.7606e-05
8.61417e-05
9.49206e-05
0.000103091
0.000109337
0.00011173
0.000110888
0.000113394
5.08602e-05
5.91555e-05
6.09868e-05
6.53631e-05
7.21393e-05
8.01758e-05
8.86531e-05
9.69383e-05
0.000103798
0.000106912
0.000106547
0.000108789
4.90009e-05
5.3461e-05
5.35686e-05
5.70223e-05
6.28987e-05
6.99963e-05
7.78085e-05
8.60132e-05
9.35253e-05
9.74727e-05
9.77404e-05
9.98657e-05
4.50885e-05
4.31375e-05
4.13888e-05
4.3715e-05
4.80412e-05
5.34003e-05
5.97943e-05
6.72742e-05
7.49135e-05
7.9277e-05
8.02427e-05
8.2495e-05
2.17635e-05
1.93076e-05
1.91485e-05
2.05458e-05
2.25576e-05
2.4919e-05
2.75231e-05
3.03164e-05
3.32782e-05
3.67584e-05
4.13741e-05
4.78739e-05
2.11599e-05
1.82332e-05
1.79796e-05
1.92647e-05
2.11201e-05
2.33064e-05
2.58592e-05
2.87155e-05
3.17398e-05
3.49978e-05
3.91284e-05
4.55113e-05
4.42278e-05
4.10884e-05
3.92054e-05
4.1453e-05
4.55865e-05
5.07616e-05
5.6998e-05
6.43588e-05
7.21984e-05
7.72461e-05
7.86826e-05
7.92187e-05
4.79978e-05
5.09048e-05
5.05821e-05
5.38715e-05
5.94497e-05
6.62328e-05
7.38387e-05
8.20171e-05
8.99422e-05
9.4685e-05
9.56001e-05
9.56804e-05
4.97337e-05
5.6302e-05
5.75145e-05
6.16061e-05
6.79991e-05
7.56151e-05
8.38283e-05
9.21616e-05
9.9618e-05
0.000103618
0.00010396
0.000103637
5.07289e-05
5.92966e-05
6.15404e-05
6.61795e-05
7.30343e-05
8.10847e-05
8.95646e-05
9.78447e-05
0.000104803
0.000108193
0.000108051
0.0001075
5.12074e-05
6.06402e-05
6.33817e-05
6.82925e-05
7.53607e-05
8.36004e-05
9.21831e-05
0.000100399
0.00010706
0.000110103
0.000109669
0.000109062
5.12073e-05
6.06399e-05
6.33814e-05
6.82924e-05
7.53609e-05
8.36007e-05
9.21833e-05
0.000100399
0.00010706
0.000110103
0.000109668
0.000109061
5.07285e-05
5.92956e-05
6.15397e-05
6.61796e-05
7.30352e-05
8.10859e-05
8.95655e-05
9.78446e-05
0.000104802
0.000108191
0.00010805
0.000107499
4.97328e-05
5.63003e-05
5.75138e-05
6.16072e-05
6.80017e-05
7.56183e-05
8.38307e-05
9.2162e-05
9.96165e-05
0.000103616
0.000103959
0.000103637
4.7996e-05
5.09022e-05
5.05818e-05
5.38747e-05
5.94556e-05
6.62395e-05
7.38438e-05
8.20188e-05
8.99405e-05
9.46837e-05
9.56007e-05
9.56822e-05
4.42239e-05
4.10842e-05
3.92057e-05
4.14595e-05
4.5598e-05
5.07742e-05
5.70079e-05
6.43634e-05
7.21973e-05
7.72461e-05
7.8686e-05
7.92247e-05
2.11552e-05
1.82293e-05
1.79799e-05
1.92689e-05
2.11258e-05
2.33117e-05
2.58628e-05
2.87173e-05
3.17405e-05
3.49976e-05
3.91269e-05
4.55069e-05
2.06944e-05
1.72348e-05
1.68791e-05
1.79958e-05
1.96869e-05
2.17297e-05
2.41162e-05
2.69004e-05
2.99196e-05
3.30201e-05
3.65093e-05
4.17572e-05
4.32914e-05
3.88433e-05
3.69539e-05
3.9192e-05
4.31233e-05
4.80704e-05
5.40685e-05
6.12221e-05
6.91301e-05
7.54123e-05
7.771e-05
7.79839e-05
4.68461e-05
4.81871e-05
4.7681e-05
5.08959e-05
5.61907e-05
6.26489e-05
7.00149e-05
7.81252e-05
8.64174e-05
9.25204e-05
9.4522e-05
9.44175e-05
4.84817e-05
5.33194e-05
5.42e-05
5.81661e-05
6.4234e-05
7.14709e-05
7.94364e-05
8.77942e-05
9.58622e-05
0.0001013
0.000102795
0.000102209
4.94184e-05
5.6169e-05
5.79867e-05
6.24568e-05
6.89656e-05
7.66095e-05
8.48426e-05
9.32176e-05
0.000100962
0.000105816
0.00010689
0.00010588
4.98692e-05
5.74483e-05
5.97191e-05
6.44398e-05
7.11515e-05
7.89728e-05
8.73104e-05
9.56596e-05
0.000103196
0.000107715
0.000108542
0.00010733
4.98691e-05
5.7448e-05
5.97188e-05
6.44398e-05
7.11517e-05
7.89732e-05
8.73107e-05
9.56595e-05
0.000103196
0.000107715
0.000108542
0.00010733
4.9418e-05
5.6168e-05
5.79861e-05
6.2457e-05
6.89667e-05
7.66109e-05
8.48436e-05
9.32175e-05
0.000100961
0.000105814
0.000106889
0.00010588
4.84807e-05
5.33177e-05
5.41993e-05
5.81673e-05
6.42369e-05
7.14743e-05
7.94389e-05
8.77947e-05
9.58604e-05
0.000101298
0.000102794
0.000102209
4.68442e-05
4.81845e-05
4.76808e-05
5.08992e-05
5.61968e-05
6.26557e-05
7.00201e-05
7.81271e-05
8.64154e-05
9.25185e-05
9.45224e-05
9.44203e-05
4.32875e-05
3.88394e-05
3.69544e-05
3.91984e-05
4.31345e-05
4.80829e-05
5.40787e-05
6.12273e-05
6.91292e-05
7.54115e-05
7.77131e-05
7.79904e-05
2.06902e-05
1.72313e-05
1.68791e-05
1.79997e-05
1.96925e-05
2.17351e-05
2.412e-05
2.69024e-05
2.99202e-05
3.30203e-05
3.65089e-05
4.17536e-05
1.99664e-05
1.61103e-05
1.58081e-05
1.6805e-05
1.83135e-05
2.01687e-05
2.23408e-05
2.4896e-05
2.77364e-05
3.0677e-05
3.37089e-05
3.74875e-05
4.20091e-05
3.64537e-05
3.47284e-05
3.69464e-05
4.06139e-05
4.52509e-05
5.09121e-05
5.77104e-05
6.53754e-05
7.2714e-05
7.65314e-05
7.75949e-05
4.55162e-05
4.53404e-05
4.48367e-05
4.79963e-05
5.29561e-05
5.90186e-05
6.60477e-05
7.39477e-05
8.22973e-05
8.97496e-05
9.35162e-05
9.4306e-05
4.70898e-05
5.02241e-05
5.09856e-05
5.48714e-05
6.05778e-05
6.7382e-05
7.50188e-05
8.32653e-05
9.16228e-05
9.86634e-05
0.000102009
0.000102345
4.79816e-05
5.294e-05
5.45607e-05
5.89314e-05
6.50691e-05
7.22655e-05
8.01816e-05
8.85146e-05
9.67095e-05
0.0001033
0.000106261
0.000106261
4.84093e-05
5.416e-05
5.61983e-05
6.08093e-05
6.71468e-05
7.45153e-05
8.25422e-05
9.08853e-05
9.89562e-05
0.000105259
0.000108002
0.000107799
4.84091e-05
5.41597e-05
5.61981e-05
6.08093e-05
6.71471e-05
7.45157e-05
8.25425e-05
9.08852e-05
9.89556e-05
0.000105259
0.000108001
0.000107799
4.79812e-05
5.2939e-05
5.45601e-05
5.89317e-05
6.50703e-05
7.22671e-05
8.01827e-05
8.85145e-05
9.6708e-05
0.000103298
0.000106259
0.000106261
4.70888e-05
5.02224e-05
5.0985e-05
5.48727e-05
6.05808e-05
6.73856e-05
7.50215e-05
8.32659e-05
9.16208e-05
9.86604e-05
0.000102008
0.000102345
4.55141e-05
4.53379e-05
4.48365e-05
4.79996e-05
5.29622e-05
5.90255e-05
6.60531e-05
7.39498e-05
8.22954e-05
8.97462e-05
9.35151e-05
9.43082e-05
4.20052e-05
3.64502e-05
3.47291e-05
3.69526e-05
4.06249e-05
4.52634e-05
5.09226e-05
5.77162e-05
6.53755e-05
7.27115e-05
7.65323e-05
7.76003e-05
1.99623e-05
1.6107e-05
1.5808e-05
1.68086e-05
1.83189e-05
2.01741e-05
2.23449e-05
2.48984e-05
2.77374e-05
3.06773e-05
3.37093e-05
3.74869e-05
1.9125e-05
1.49683e-05
1.4736e-05