/*--------------------------------*- C++ -*----------------------------------*\
| =========                 |                                                 |
| \\      /  F ield         | OpenFOAM: The Open Source CFD Toolbox           |
|  \\    /   O peration     | Version:  2.3.1                                 |
|   \\  /    A nd           | Web:      www.OpenFOAM.org                      |
|    \\/     M anipulation  |                                                 |
\*---------------------------------------------------------------------------*/
FoamFile
{
    version     2.0;
    format      ascii;
    class       volScalarField;
    location    "15";
    object      nut;
}
// * * * * * * * * * * * * * * * * * * * * * * * * * * * * * * * * * * * * * //

dimensions      [0 2 -1 0 0 0 0];

internalField   nonuniform List<scalar> 
37758
(
7.07553e-06
7.21861e-06
7.50198e-06
7.673e-06
7.81155e-06
8.11043e-06
8.21421e-06
8.4131e-06
8.59867e-06
8.68475e-06
8.92636e-06
9.07373e-06
7.14044e-06
7.50954e-06
8.01109e-06
8.25696e-06
8.57348e-06
9.06399e-06
9.26073e-06
9.64108e-06
9.96275e-06
1.01685e-05
1.06618e-05
1.09741e-05
7.13607e-06
7.48533e-06
8.02154e-06
8.28902e-06
8.60303e-06
9.04524e-06
9.23592e-06
9.62271e-06
9.96396e-06
1.02072e-05
1.07523e-05
1.10798e-05
7.15336e-06
7.44822e-06
8.01123e-06
8.31788e-06
8.61529e-06
9.0468e-06
9.23075e-06
9.60848e-06
9.98343e-06
1.02295e-05
1.08023e-05
1.10936e-05
7.16151e-06
7.4398e-06
8.00205e-06
8.32846e-06
8.6176e-06
9.04444e-06
9.23105e-06
9.62207e-06
1.00209e-05
1.02726e-05
1.08496e-05
1.11262e-05
7.16147e-06
7.43863e-06
8.0031e-06
8.33237e-06
8.61475e-06
9.03994e-06
9.22897e-06
9.63075e-06
1.00369e-05
1.02921e-05
1.08686e-05
1.11336e-05
7.16148e-06
7.43863e-06
8.0031e-06
8.33238e-06
8.61474e-06
9.03993e-06
9.22897e-06
9.63075e-06
1.0037e-05
1.02922e-05
1.08686e-05
1.11336e-05
7.16152e-06
7.4398e-06
8.00203e-06
8.32849e-06
8.61757e-06
9.04441e-06
9.23104e-06
9.62208e-06
1.0021e-05
1.02727e-05
1.08497e-05
1.11264e-05
7.15338e-06
7.44822e-06
8.0112e-06
8.31792e-06
8.61524e-06
9.04678e-06
9.23076e-06
9.60847e-06
9.98355e-06
1.02296e-05
1.08024e-05
1.10939e-05
7.13608e-06
7.48531e-06
8.02152e-06
8.28907e-06
8.60297e-06
9.0452e-06
9.2359e-06
9.62268e-06
9.96408e-06
1.02073e-05
1.07525e-05
1.10801e-05
7.14045e-06
7.50955e-06
8.01109e-06
8.25702e-06
8.57339e-06
9.06393e-06
9.26071e-06
9.64103e-06
9.96288e-06
1.01686e-05
1.06619e-05
1.09743e-05
7.07554e-06
7.21863e-06
7.50197e-06
7.67304e-06
7.81149e-06
8.11037e-06
8.21421e-06
8.41305e-06
8.59873e-06
8.6848e-06
8.92632e-06
9.07376e-06
1.40211e-05
1.43197e-05
1.47563e-05
1.49855e-05
1.53623e-05
1.57878e-05
1.60456e-05
1.66306e-05
1.69788e-05
1.75149e-05
1.83572e-05
1.87194e-05
7.30418e-05
4.46475e-05
3.25554e-05
2.78541e-05
2.47949e-05
2.33786e-05
2.31564e-05
2.41026e-05
2.51782e-05
2.68174e-05
3.10205e-05
3.10654e-05
7.46373e-05
4.72407e-05
3.36632e-05
2.7717e-05
2.44947e-05
2.30955e-05
2.31034e-05
2.42979e-05
2.58944e-05
2.84306e-05
3.40919e-05
3.48392e-05
7.37331e-05
4.816e-05
3.33737e-05
2.69777e-05
2.41449e-05
2.28308e-05
2.31092e-05
2.46946e-05
2.64689e-05
2.92865e-05
3.51783e-05
3.59289e-05
7.30542e-05
4.92134e-05
3.27534e-05
2.665e-05
2.4007e-05
2.2904e-05
2.34778e-05
2.55632e-05
2.73308e-05
3.04391e-05
3.60672e-05
3.66979e-05
7.29727e-05
4.95772e-05
3.23664e-05
2.66461e-05
2.39187e-05
2.28758e-05
2.35872e-05
2.59217e-05
2.7693e-05
3.1007e-05
3.63983e-05
3.69904e-05
7.29729e-05
4.95769e-05
3.23664e-05
2.66463e-05
2.39185e-05
2.28758e-05
2.35873e-05
2.59222e-05
2.76939e-05
3.10076e-05
3.63997e-05
3.69919e-05
7.30542e-05
4.92129e-05
3.27539e-05
2.66506e-05
2.40063e-05
2.29043e-05
2.34786e-05
2.55651e-05
2.73336e-05
3.0441e-05
3.60716e-05
3.67025e-05
7.37335e-05
4.8159e-05
3.33744e-05
2.69778e-05
2.41445e-05
2.28314e-05
2.31103e-05
2.46971e-05
2.64728e-05
2.92892e-05
3.51852e-05
3.59363e-05
7.46381e-05
4.72393e-05
3.36644e-05
2.77167e-05
2.44941e-05
2.30955e-05
2.31041e-05
2.43001e-05
2.58982e-05
2.84332e-05
3.40994e-05
3.48464e-05
7.30434e-05
4.46466e-05
3.2556e-05
2.78534e-05
2.47942e-05
2.33786e-05
2.31573e-05
2.41041e-05
2.51808e-05
2.68192e-05
3.10265e-05
3.10715e-05
1.40211e-05
1.43197e-05
1.47563e-05
1.49856e-05
1.53622e-05
1.57878e-05
1.60456e-05
1.66305e-05
1.69789e-05
1.75147e-05
1.83575e-05
1.87196e-05
1.40093e-05
1.44454e-05
1.4786e-05
1.51475e-05
1.5962e-05
1.64661e-05
1.70031e-05
1.82361e-05
1.88632e-05
2.01103e-05
2.15631e-05
2.20519e-05
8.496e-05
4.15096e-05
3.21153e-05
3.1697e-05
3.36139e-05
3.61715e-05
3.99609e-05
4.53631e-05
4.79363e-05
5.14081e-05
5.89257e-05
5.99665e-05
8.47143e-05
4.04371e-05
3.00507e-05
3.02545e-05
3.17255e-05
3.46382e-05
4.10494e-05
4.74299e-05
5.25788e-05
5.75645e-05
6.70915e-05
7.01259e-05
8.36346e-05
3.99208e-05
2.93539e-05
2.96553e-05
3.12515e-05
3.44534e-05
4.19312e-05
4.85528e-05
5.44464e-05
5.99325e-05
6.92201e-05
7.3128e-05
8.40373e-05
3.93564e-05
2.90778e-05
2.92439e-05
3.0993e-05
3.54721e-05
4.37079e-05
5.01642e-05
5.59774e-05
6.17273e-05
7.0561e-05
7.39722e-05
8.40734e-05
3.91261e-05
2.90479e-05
2.90153e-05
3.08049e-05
3.5793e-05
4.44058e-05
5.09306e-05
5.66643e-05
6.25689e-05
7.12055e-05
7.41328e-05
8.40729e-05
3.91259e-05
2.90478e-05
2.90151e-05
3.08045e-05
3.57932e-05
4.44066e-05
5.09318e-05
5.66658e-05
6.25703e-05
7.12073e-05
7.4135e-05
8.40366e-05
3.93557e-05
2.90776e-05
2.92434e-05
3.09927e-05
3.54736e-05
4.37107e-05
5.01681e-05
5.59821e-05
6.17316e-05
7.05667e-05
7.39784e-05
8.36334e-05
3.99199e-05
2.9353e-05
2.96543e-05
3.1251e-05
3.44557e-05
4.19348e-05
4.85583e-05
5.44531e-05
5.99392e-05
6.92295e-05
7.31375e-05
8.47129e-05
4.04361e-05
3.0049e-05
3.02529e-05
3.17245e-05
3.46387e-05
4.1052e-05
4.74353e-05
5.2586e-05
5.75722e-05
6.71019e-05
7.01363e-05
8.49592e-05
4.15088e-05
3.21126e-05
3.16964e-05
3.36106e-05
3.61728e-05
3.99626e-05
4.53672e-05
4.79418e-05
5.14151e-05
5.89348e-05
5.99755e-05
1.40093e-05
1.44455e-05
1.47859e-05
1.51474e-05
1.59618e-05
1.64664e-05
1.70031e-05
1.82363e-05
1.88636e-05
2.01102e-05
2.15639e-05
2.20528e-05
1.4111e-05
1.50164e-05
1.58306e-05
1.71495e-05
1.88857e-05
1.96409e-05
2.08418e-05
2.20215e-05
2.27855e-05
2.36308e-05
2.44566e-05
2.47449e-05
5.34604e-05
4.839e-05
5.41919e-05
5.82643e-05
6.13848e-05
6.32562e-05
6.46859e-05
6.7305e-05
6.94863e-05
7.3678e-05
7.69514e-05
7.72368e-05
4.98776e-05
4.44302e-05
4.94817e-05
5.63209e-05
6.08432e-05
6.50113e-05
7.05686e-05
7.44724e-05
7.90839e-05
8.55904e-05
9.15819e-05
9.50374e-05
4.90912e-05
4.40626e-05
4.8595e-05
5.59121e-05
6.08189e-05
6.61495e-05
7.24441e-05
7.72061e-05
8.23555e-05
8.99064e-05
9.68804e-05
0.000101607
4.77832e-05
4.32707e-05
4.80909e-05
5.56546e-05
6.11319e-05
6.82445e-05
7.4335e-05
7.88165e-05
8.41901e-05
9.21592e-05
9.93012e-05
0.000104028
4.7872e-05
4.29998e-05
4.79338e-05
5.53749e-05
6.12232e-05
6.90655e-05
7.51784e-05
7.95326e-05
8.50615e-05
9.31895e-05
0.000100298
0.00010483
4.78727e-05
4.29995e-05
4.79334e-05
5.53743e-05
6.12231e-05
6.9066e-05
7.51795e-05
7.95339e-05
8.5063e-05
9.31911e-05
0.0001003
0.000104832
4.77839e-05
4.32697e-05
4.80896e-05
5.56534e-05
6.11326e-05
6.82466e-05
7.43384e-05
7.88203e-05
8.41946e-05
9.2164e-05
9.93068e-05
0.000104033
4.90892e-05
4.4061e-05
4.85926e-05
5.59105e-05
6.08193e-05
6.61531e-05
7.24491e-05
7.72115e-05
8.23623e-05
8.99133e-05
9.68884e-05
0.000101614
4.98747e-05
4.44277e-05
4.94776e-05
5.63181e-05
6.08425e-05
6.50137e-05
7.05738e-05
7.44786e-05
7.90916e-05
8.55977e-05
9.159e-05
9.50445e-05
5.34552e-05
4.83861e-05
5.4187e-05
5.82629e-05
6.13816e-05
6.32605e-05
6.46905e-05
6.73106e-05
6.94961e-05
7.36847e-05
7.69576e-05
7.72395e-05
1.41108e-05
1.50167e-05
1.58303e-05
1.71489e-05
1.88861e-05
1.96414e-05
2.0842e-05
2.20222e-05
2.27864e-05
2.36316e-05
2.44575e-05
2.47459e-05
1.48256e-05
1.67037e-05
1.91988e-05
2.05745e-05
2.17099e-05
2.24863e-05
2.28701e-05
2.33016e-05
2.37877e-05
2.39838e-05
2.42092e-05
2.43499e-05
3.40595e-05
4.5242e-05
5.97626e-05
6.27324e-05
6.86169e-05
7.15347e-05
7.44342e-05
7.7071e-05
8.02755e-05
8.54546e-05
8.82987e-05
8.82676e-05
3.94965e-05
6.14273e-05
6.53877e-05
7.15378e-05
7.61175e-05
8.0005e-05
8.49365e-05
8.94729e-05
9.5272e-05
0.000102563
0.000108404
0.000111194
4.09984e-05
6.55735e-05
6.88537e-05
7.52026e-05
7.90032e-05
8.34636e-05
8.90451e-05
9.44236e-05
0.000101255
0.000109692
0.000116485
0.000120399
4.18634e-05
6.69758e-05
7.0366e-05
7.69161e-05
8.08689e-05
8.59228e-05
9.14948e-05
9.70112e-05
0.000104202
0.000113172
0.000120204
0.000124366
4.21751e-05
6.74786e-05
7.09188e-05
7.75015e-05
8.1638e-05
8.69691e-05
9.25406e-05
9.81232e-05
0.000105468
0.000114625
0.000121716
0.000125881
4.2175e-05
6.74786e-05
7.09188e-05
7.75015e-05
8.16383e-05
8.69696e-05
9.25414e-05
9.81242e-05
0.000105469
0.000114626
0.000121717
0.000125883
4.18636e-05
6.69759e-05
7.03661e-05
7.69165e-05
8.087e-05
8.59246e-05
9.14973e-05
9.70143e-05
0.000104206
0.000113176
0.000120209
0.000124371
4.09988e-05
6.55736e-05
6.88538e-05
7.52032e-05
7.90049e-05
8.34664e-05
8.90493e-05
9.44286e-05
0.00010126
0.000109698
0.000116492
0.000120406
3.94965e-05
6.14272e-05
6.53877e-05
7.15382e-05
7.61193e-05
8.00084e-05
8.49419e-05
8.94795e-05
9.52783e-05
0.000102569
0.00010841
0.0001112
3.40588e-05
4.52414e-05
5.97633e-05
6.2734e-05
6.86201e-05
7.15412e-05
7.44425e-05
7.70801e-05
8.0283e-05
8.5458e-05
8.83012e-05
8.82658e-05
1.48256e-05
1.67036e-05
1.91989e-05
2.05748e-05
2.17104e-05
2.24872e-05
2.28715e-05
2.33031e-05
2.37894e-05
2.3985e-05
2.421e-05
2.43504e-05
1.27949e-05
1.42157e-05
1.62359e-05
1.78817e-05
1.93423e-05
2.01858e-05
2.08436e-05
2.14605e-05
2.16047e-05
2.13623e-05
2.12899e-05
2.14688e-05
2.45936e-05
3.36083e-05
4.96979e-05
5.83166e-05
6.79431e-05
7.13488e-05
7.83035e-05
8.44831e-05
8.99595e-05
9.5968e-05
9.80225e-05
9.90597e-05
3.01704e-05
4.81533e-05
6.04506e-05
7.11332e-05
7.82924e-05
8.4323e-05
9.32947e-05
0.000102043
0.000110743
0.000120282
0.000125125
0.000126563
3.27438e-05
5.40215e-05
6.57421e-05
7.68864e-05
8.28257e-05
9.02347e-05
9.99798e-05
0.000110035
0.000120014
0.000131004
0.000136635
0.000138536
3.39635e-05
5.64594e-05
6.83034e-05
7.97963e-05
8.54459e-05
9.35836e-05
0.000103592
0.000114202
0.000124686
0.000136147
0.000142081
0.000144072
3.44465e-05
5.73167e-05
6.92722e-05
8.09258e-05
8.65545e-05
9.50243e-05
0.000105162
0.00011603
0.00012672
0.00013825
0.000144334
0.000146286
3.44465e-05
5.73165e-05
6.92722e-05
8.09259e-05
8.65546e-05
9.50248e-05
0.000105163
0.000116031
0.000126721
0.000138251
0.000144335
0.000146287
3.39635e-05
5.64591e-05
6.83035e-05
7.97971e-05
8.54466e-05
9.35856e-05
0.000103594
0.000114205
0.000124689
0.000136149
0.000142085
0.000144075
3.27437e-05
5.40209e-05
6.57424e-05
7.68876e-05
8.28273e-05
9.02377e-05
9.99835e-05
0.00011004
0.000120019
0.000131008
0.000136641
0.00013854
3.01698e-05
4.81524e-05
6.04511e-05
7.1135e-05
7.82955e-05
8.43273e-05
9.33001e-05
0.000102049
0.000110748
0.000120285
0.000125128
0.000126565
2.45925e-05
3.3608e-05
4.97003e-05
5.83211e-05
6.79498e-05
7.13578e-05
7.83117e-05
8.44896e-05
8.9962e-05
9.59641e-05
9.80158e-05
9.90493e-05
1.27948e-05
1.42158e-05
1.62367e-05
1.78827e-05
1.93438e-05
2.01877e-05
2.08458e-05
2.14623e-05
2.1606e-05
2.13629e-05
2.12893e-05
2.14676e-05
1.22328e-05
1.30229e-05
1.40589e-05
1.52627e-05
1.6485e-05
1.7479e-05
1.82769e-05
1.86997e-05
1.86768e-05
1.85068e-05
1.87317e-05
1.95554e-05
3.42838e-05
3.95171e-05
4.67446e-05
5.50121e-05
6.51818e-05
7.33515e-05
8.31938e-05
9.17051e-05
9.68145e-05
0.000101623
0.000103007
0.000103991
4.12969e-05
5.04242e-05
5.94371e-05
7.00434e-05
8.07447e-05
9.14799e-05
0.000103386
0.00011585
0.000125413
0.000131869
0.000134426
0.000134359
4.45491e-05
5.65684e-05
6.62429e-05
7.79956e-05
8.83009e-05
0.000100388
0.000113002
0.000127219
0.000138553
0.000145722
0.000148908
0.00014883
4.62136e-05
5.98243e-05
6.98959e-05
8.2186e-05
9.24258e-05
0.000105219
0.000118241
0.00013325
0.000145333
0.000152485
0.00015593
0.000155868
4.69816e-05
6.12163e-05
7.14548e-05
8.3951e-05
9.42355e-05
0.000107352
0.000120603
0.000135942
0.000148303
0.000155325
0.000158825
0.000158728
4.69817e-05
6.12162e-05
7.14547e-05
8.3951e-05
9.42356e-05
0.000107353
0.000120603
0.000135943
0.000148304
0.000155326
0.000158826
0.000158729
4.62138e-05
5.98241e-05
6.98956e-05
8.21861e-05
9.24264e-05
0.000105221
0.000118244
0.000133253
0.000145336
0.000152487
0.000155932
0.000155869
4.45491e-05
5.65679e-05
6.62427e-05
7.79959e-05
8.83023e-05
0.000100391
0.000113006
0.000127223
0.000138556
0.000145724
0.00014891
0.00014883
4.12964e-05
5.04234e-05
5.94372e-05
7.00446e-05
8.07477e-05
9.14839e-05
0.000103391
0.000115854
0.000125413
0.000131869
0.000134425
0.000134355
3.42822e-05
3.95154e-05
4.67458e-05
5.50163e-05
6.51889e-05
7.33586e-05
8.31992e-05
9.17057e-05
9.68068e-05
0.000101615
0.000102995
0.000103976
1.22325e-05
1.30228e-05
1.40594e-05
1.52637e-05
1.64864e-05
1.74806e-05
1.82785e-05
1.87005e-05
1.86773e-05
1.85064e-05
1.87304e-05
1.95531e-05
1.21874e-05
1.26065e-05
1.3245e-05
1.41323e-05
1.50577e-05
1.58743e-05
1.6372e-05
1.66163e-05
1.67524e-05
1.70107e-05
1.76652e-05
1.90595e-05
4.79527e-05
5.35173e-05
5.73106e-05
6.25306e-05
7.00256e-05
7.84026e-05
8.74547e-05
9.39757e-05
9.72089e-05
9.80216e-05
9.78099e-05
9.76426e-05
5.99394e-05
6.86812e-05
7.36755e-05
8.08632e-05
9.04966e-05
0.000102401
0.000115104
0.000126208
0.000132194
0.000133244
0.000132363
0.000129521
6.44337e-05
7.55444e-05
8.18398e-05
9.04697e-05
0.000101307
0.00011478
0.000129004
0.000141583
0.000148968
0.000150629
0.000149651
0.000145901
6.67607e-05
7.95829e-05
8.65864e-05
9.59555e-05
0.000107351
0.000121605
0.000136564
0.000149634
0.000157525
0.000159321
0.00015833
0.000154217
6.78572e-05
8.15146e-05
8.88248e-05
9.84845e-05
0.000110113
0.000124704
0.00013995
0.000153176
0.000161194
0.000162979
0.000161962
0.00015766
6.78575e-05
8.1515e-05
8.88251e-05
9.84847e-05
0.000110113
0.000124705
0.000139951
0.000153177
0.000161195
0.000162979
0.000161962
0.000157659
6.67614e-05
7.95837e-05
8.65872e-05
9.59564e-05
0.000107353
0.000121607
0.000136566
0.000149636
0.000157526
0.000159321
0.000158329
0.000154214
6.44344e-05
7.55451e-05
8.18408e-05
9.04712e-05
0.000101309
0.000114783
0.000129007
0.000141586
0.000148969
0.000150629
0.000149648
0.000145897
5.99394e-05
6.8681e-05
7.36763e-05
8.08656e-05
9.05001e-05
0.000102405
0.000115107
0.00012621
0.000132192
0.00013324
0.000132357
0.000129513
4.79499e-05
5.35133e-05
5.73104e-05
6.25352e-05
7.00332e-05
7.84087e-05
8.74581e-05
9.39732e-05
9.71983e-05
9.80076e-05
9.77951e-05
9.76277e-05
1.2187e-05
1.26062e-05
1.32454e-05
1.41333e-05
1.50588e-05
1.58754e-05
1.6373e-05
1.66168e-05
1.67525e-05
1.701e-05
1.76635e-05
1.90571e-05
1.20631e-05
1.24115e-05
1.28564e-05
1.35617e-05
1.42765e-05
1.47993e-05
1.51673e-05
1.54731e-05
1.57915e-05
1.63516e-05
1.72504e-05
1.86127e-05
5.46814e-05
6.21282e-05
6.61649e-05
6.96481e-05
7.46585e-05
8.04981e-05
8.5736e-05
8.85599e-05
8.83005e-05
8.62614e-05
8.49687e-05
8.64831e-05
7.34999e-05
8.61534e-05
9.16665e-05
9.63444e-05
0.000103264
0.000112064
0.000120753
0.000126027
0.00012622
0.000121739
0.000119042
0.000116298
8.0754e-05
9.62192e-05
0.000103292
0.000109505
0.00011796
0.000128497
0.000138927
0.000145198
0.000145819
0.000141086
0.000137945
0.000132471
8.41799e-05
0.000101673
0.000109864
0.00011695
0.000126163
0.000137531
0.000148521
0.000155188
0.00015586
0.000151305
0.000147684
0.000141196
8.56911e-05
0.000104234
0.000112951
0.000120415
0.000129931
0.000141647
0.000152761
0.00015952
0.000160128
0.000155675
0.000151814
0.000144912
8.56915e-05
0.000104235
0.000112952
0.000120416
0.000129931
0.000141648
0.000152762
0.000159521
0.000160128
0.000155675
0.000151813
0.000144911
8.41809e-05
0.000101675
0.000109866
0.000116952
0.000126166
0.000137533
0.000148523
0.00015519
0.00015586
0.000151303
0.000147681
0.000141192
8.0755e-05
9.62206e-05
0.000103294
0.000109509
0.000117964
0.000128501
0.00013893
0.0001452
0.000145818
0.000141083
0.000137939
0.000132464
7.34998e-05
8.61529e-05
9.16679e-05
9.63482e-05
0.00010327
0.00011207
0.000120757
0.000126029
0.000126218
0.000121734
0.000119033
0.000116289
5.46777e-05
6.21216e-05
6.61636e-05
6.96539e-05
7.46687e-05
8.05075e-05
8.57415e-05
8.85589e-05
8.82924e-05
8.62517e-05
8.49566e-05
8.64709e-05
1.20627e-05
1.24111e-05
1.28568e-05
1.35627e-05
1.42777e-05
1.48005e-05
1.51682e-05
1.54735e-05
1.57915e-05
1.63506e-05
1.72492e-05
1.86112e-05
1.21087e-05
1.21452e-05
1.24362e-05
1.3022e-05
1.36565e-05
1.41429e-05
1.45012e-05
1.48895e-05
1.53537e-05
1.60783e-05
1.70443e-05
1.82998e-05
5.91266e-05
6.61906e-05
6.95777e-05
7.09809e-05
7.30455e-05
7.57021e-05
7.76481e-05
7.77316e-05
7.65735e-05
7.43763e-05
7.4163e-05
7.67871e-05
7.99084e-05
9.54795e-05
0.000102493
0.000105344
0.000108706
0.000113059
0.000116173
0.000115906
0.000111991
0.000105786
0.000102186
0.00010197
8.86588e-05
0.000108961
0.000118354
0.000122752
0.000127491
0.000133214
0.000137155
0.00013707
0.000132107
0.000124102
0.000118617
0.000116651
9.27599e-05
0.000116027
0.000126963
0.000132392
0.000137925
0.000144256
0.000148476
0.000148379
0.000142776
0.000134098
0.000127598
0.000124738
9.45101e-05
0.000119208
0.000130891
0.000136803
0.000142669
0.000149159
0.00015348
0.000153299
0.000147345
0.000138471
0.000131512
0.000128222
9.45105e-05
0.000119209
0.000130892
0.000136804
0.000142671
0.00014916
0.000153481
0.000153299
0.000147345
0.000138471
0.000131511
0.000128221
9.27609e-05
0.000116028
0.000126966
0.000132396
0.000137928
0.00014426
0.000148479
0.000148381
0.000142776
0.000134096
0.000127595
0.000124733
8.86597e-05
0.000108962
0.000118357
0.000122756
0.000127497
0.00013322
0.00013716
0.000137073
0.000132107
0.0001241
0.000118612
0.000116645
7.99077e-05
9.54781e-05
0.000102494
0.00010535
0.000108714
0.000113069
0.000116181
0.00011591
0.000111991
0.000105783
0.000102181
0.000101963
5.91214e-05
6.61817e-05
6.95747e-05
7.09885e-05
7.30604e-05
7.57174e-05
7.76588e-05
7.77349e-05
7.65703e-05
7.43713e-05
7.41568e-05
7.67792e-05
1.2108e-05
1.21446e-05
1.24366e-05
1.30232e-05
1.36578e-05
1.4144e-05
1.4502e-05
1.48899e-05
1.53535e-05
1.60775e-05
1.70435e-05
1.8299e-05
1.19775e-05
1.18832e-05
1.20685e-05
1.25847e-05
1.31942e-05
1.37064e-05
1.41433e-05
1.46053e-05
1.51608e-05
1.5948e-05
1.69325e-05
1.81292e-05
6.21687e-05
6.849e-05
6.98307e-05
6.90286e-05
6.88952e-05
6.92684e-05
6.96192e-05
6.96119e-05
6.91739e-05
6.71563e-05
6.70084e-05
7.08504e-05
8.38353e-05
9.95607e-05
0.000105429
0.000106391
0.000106608
0.000107156
0.000106504
0.000103729
9.86853e-05
9.24672e-05
8.93956e-05
9.09326e-05
9.34316e-05
0.000114953
0.000124069
0.000126577
0.000127671
0.000128672
0.000127943
0.000123965
0.000116403
0.000107672
0.000102468
0.000101963
9.79872e-05
0.000123013
0.000134171
0.000137795
0.000139499
0.000140757
0.000139915
0.000135209
0.000126181
0.000116146
0.000109694
0.00010797
9.99018e-05
0.000126584
0.000138714
0.00014288
0.000144869
0.00014621
0.000145277
0.000140191
0.00013044
0.000119864
0.000112874
0.000110595
9.99022e-05
0.000126584
0.000138715
0.000142882
0.000144871
0.000146211
0.000145278
0.000140191
0.000130441
0.000119864
0.000112874
0.000110594
9.79882e-05
0.000123015
0.000134174
0.000137799
0.000139504
0.000140762
0.000139919
0.000135212
0.000126182
0.000116145
0.000109692
0.000107967
9.34323e-05
0.000114954
0.000124073
0.000126584
0.000127679
0.00012868
0.00012795
0.00012397
0.000116405
0.000107672
0.000102466
0.000101958
8.38342e-05
9.95587e-05
0.00010543
0.000106399
0.000106619
0.000107169
0.000106515
0.000103736
9.86887e-05
9.24676e-05
8.93929e-05
9.09283e-05
6.21629e-05
6.84801e-05
6.98273e-05
6.90377e-05
6.89134e-05
6.92879e-05
6.96335e-05
6.96183e-05
6.91756e-05
6.71553e-05
6.70047e-05
7.08462e-05
1.19768e-05
1.18826e-05
1.20689e-05
1.2586e-05
1.31956e-05
1.37075e-05
1.4144e-05
1.46056e-05
1.51605e-05
1.59474e-05
1.6932e-05
1.81287e-05
1.19793e-05
1.16488e-05
1.1724e-05
1.21764e-05
1.27711e-05
1.33597e-05
1.38877e-05
1.44236e-05
1.50285e-05
1.5794e-05
1.6752e-05
1.79411e-05
6.47238e-05
6.98199e-05
6.93432e-05
6.71458e-05
6.58764e-05
6.54619e-05
6.5655e-05
6.612e-05
6.57847e-05
6.33232e-05
6.1923e-05
6.62084e-05
8.69592e-05
0.00010156
0.000105347
0.000104067
0.000102174
0.000100844
9.89338e-05
9.57171e-05
9.09216e-05
8.48438e-05
8.11107e-05
8.44149e-05
9.69017e-05
0.000117604
0.000124834
0.000125009
0.000123357
0.000121654
0.000118708
0.000113396
0.000105582
9.69916e-05
9.15458e-05
9.3417e-05
0.000101618
0.00012608
0.000135624
0.000136881
0.000135572
0.00013368
0.000130075
0.000123442
0.000113732
0.000103604
9.7042e-05
9.80067e-05
0.000103593
0.000129832
0.0001405
0.000142307
0.000141184
0.000139194
0.000135255
0.000127969
0.000117325
0.000106489
9.93768e-05
9.99319e-05
0.000103594
0.000129833
0.000140501
0.000142309
0.000141186
0.000139196
0.000135257
0.000127971
0.000117326
0.00010649
9.93765e-05
9.99313e-05
0.000101619
0.000126081
0.000135627
0.000136886
0.000135578
0.000133686
0.000130081
0.000123446
0.000113735
0.000103605
9.70409e-05
9.80047e-05
9.69023e-05
0.000117605
0.000124837
0.000125016
0.000123367
0.000121665
0.000118718
0.000113404
0.000105587
9.69935e-05
9.15443e-05
9.34138e-05
8.69581e-05
0.000101558
0.000105349
0.000104076
0.000102188
0.000100859
9.89477e-05
9.57269e-05
9.09275e-05
8.48466e-05
8.11099e-05
8.44114e-05
6.47179e-05
6.98091e-05
6.93394e-05
6.71556e-05
6.58964e-05
6.54835e-05
6.56713e-05
6.61285e-05
6.57886e-05
6.33249e-05
6.19222e-05
6.6205e-05
1.19785e-05
1.16481e-05
1.17243e-05
1.21777e-05
1.27725e-05
1.33609e-05
1.38885e-05
1.44239e-05
1.50283e-05
1.57936e-05
1.67516e-05
1.79409e-05
1.18273e-05
1.13471e-05
1.13793e-05
1.18144e-05
1.23841e-05
1.29987e-05
1.35918e-05
1.41883e-05
1.4816e-05
1.5583e-05
1.65306e-05
1.77539e-05
6.78107e-05
7.15475e-05
6.98563e-05
6.66891e-05
6.49582e-05
6.43328e-05
6.45787e-05
6.50988e-05
6.45478e-05
6.13879e-05
5.84751e-05
6.09068e-05
9.01961e-05
0.000103278
0.000105273
0.000102392
9.94808e-05
9.74516e-05
9.53524e-05
9.23413e-05
8.77511e-05
8.12622e-05
7.60831e-05
7.838e-05
0.000100253
0.000119528
0.000124763
0.000123031
0.000119777
0.00011686
0.000113277
0.000108015
0.000100614
9.19108e-05
8.51157e-05
8.67169e-05
0.000105005
0.00012813
0.000135662
0.000134899
0.000131649
0.000128196
0.000123629
0.000116854
0.00010762
9.75002e-05
8.96974e-05
9.09256e-05
0.000106985
0.000131936
0.000140616
0.000140365
0.000137161
0.000133447
0.000128386
0.000120851
0.000110703
9.9889e-05
9.16068e-05
9.26699e-05
0.000106986
0.000131937
0.000140617
0.000140367
0.000137163
0.000133449
0.000128388
0.000120853
0.000110705
9.98899e-05
9.16069e-05
9.26693e-05
0.000105006
0.000128131
0.000135665
0.000134904
0.000131656
0.000128203
0.000123637
0.000116859
0.000107624
9.75024e-05
8.96976e-05
9.09233e-05
0.000100254
0.000119529
0.000124766
0.000123039
0.000119789
0.000116873
0.000113288
0.000108024
0.000100621
9.19146e-05
8.51171e-05
8.67134e-05
9.0195e-05
0.000103275
0.000105275
0.000102402
9.94964e-05
9.74689e-05
9.53679e-05
9.23527e-05
8.77587e-05
8.1267e-05
7.60854e-05
7.83765e-05
6.78049e-05
7.15368e-05
6.98526e-05
6.66997e-05
6.49794e-05
6.4356e-05
6.45968e-05
6.51091e-05
6.45531e-05
6.13918e-05
5.84778e-05
6.09054e-05
1.18264e-05
1.13463e-05
1.13796e-05
1.18156e-05
1.23856e-05
1.29999e-05
1.35925e-05
1.41887e-05
1.48159e-05
1.55827e-05
1.65302e-05
1.77537e-05
1.17851e-05
1.11001e-05
1.10522e-05
1.14466e-05
1.19932e-05
1.26053e-05
1.32482e-05
1.39053e-05
1.45698e-05
1.53131e-05
1.62456e-05
1.74737e-05
7.00367e-05
7.23234e-05
6.98738e-05
6.67526e-05
6.50294e-05
6.44245e-05
6.46716e-05
6.5169e-05
6.4663e-05
6.08205e-05
5.68842e-05
5.59248e-05
9.33954e-05
0.000104708
0.000105435
0.000101872
9.86761e-05
9.64958e-05
9.45003e-05
9.17516e-05
8.73498e-05
8.02146e-05
7.40139e-05
7.21959e-05
0.000103671
0.000121188
0.000124923
0.000122101
0.000118233
0.000114953
0.000111411
0.00010658
9.95901e-05
9.04382e-05
8.28386e-05
7.99931e-05
0.000108449
0.000129864
0.000135794
0.000133782
0.000129674
0.000125691
0.00012109
0.000114827
0.000106163
9.57702e-05
8.72888e-05
8.37749e-05
0.000110421
0.000133692
0.00014074
0.00013918
0.000135003
0.000130674
0.000125534
0.000118543
0.000109048
9.8047e-05
8.91258e-05
8.53367e-05
0.000110421
0.000133693
0.000140741
0.000139182
0.000135006
0.000130677
0.000125536
0.000118545
0.00010905
9.80482e-05
8.91264e-05
8.53363e-05
0.00010845
0.000129865
0.000135797
0.000133788
0.000129682
0.0001257
0.000121098
0.000114834
0.000106168
9.57736e-05
8.72904e-05
8.37741e-05
0.000103672
0.000121188
0.000124927
0.00012211
0.000118246
0.000114967
0.000111424
0.000106591
9.95982e-05
9.04438e-05
8.28415e-05
7.99926e-05
9.33945e-05
0.000104706
0.000105437
0.000101883
9.86928e-05
9.65144e-05
9.45171e-05
9.17644e-05
8.73588e-05
8.02215e-05
7.4018e-05
7.21966e-05
7.00317e-05
7.23139e-05
6.98707e-05
6.67639e-05
6.50518e-05
6.44493e-05
6.46918e-05
6.51812e-05
6.46693e-05
6.08266e-05
5.68893e-05
5.59293e-05
1.17842e-05
1.10991e-05
1.10524e-05
1.14478e-05
1.19947e-05
1.26066e-05
1.3249e-05
1.39057e-05
1.45699e-05
1.53129e-05
1.62452e-05
1.74732e-05
1.16198e-05
1.0786e-05
1.07099e-05
1.10854e-05
1.16066e-05
1.21922e-05
1.28425e-05
1.35335e-05
1.42289e-05
1.49418e-05
1.57987e-05
1.70378e-05
7.23596e-05
7.28274e-05
7.00633e-05
6.71424e-05
6.5562e-05
6.50406e-05
6.5317e-05
6.5852e-05
6.55915e-05
6.1628e-05
5.65691e-05
5.36944e-05
9.65183e-05
0.000105687
0.000105617
0.000102101
9.90236e-05
9.69057e-05
9.50887e-05
9.26514e-05
8.87184e-05
8.1239e-05
7.36627e-05
6.94341e-05
0.000107015
0.000122435
0.000125222
0.000122154
0.000118286
0.000115018
0.000111725
0.000107419
0.000101124
9.15413e-05
8.26598e-05
7.71881e-05
0.00011183
0.000131218
0.000136124
0.000133718
0.000129502
0.000125492
0.000121181
0.000115598
0.000107737
9.69547e-05
8.73041e-05
8.10252e-05
0.000113797
0.00013508
0.000141072
0.000139064
0.000134721
0.000130344
0.000125514
0.00011928
0.000110638
9.92924e-05
8.92449e-05
8.26129e-05
0.000113798
0.00013508
0.000141073
0.000139066
0.000134724
0.000130348
0.000125517
0.000119283
0.00011064
9.92941e-05
8.92458e-05
8.26131e-05
0.000111831
0.000131219
0.000136127
0.000133725
0.00012951
0.000125501
0.00012119
0.000115606
0.000107744
9.69594e-05
8.73067e-05
8.10262e-05
0.000107016
0.000122435
0.000125226
0.000122163
0.0001183
0.000115033
0.000111739
0.000107431
0.000101133
9.15489e-05
8.26641e-05
7.71903e-05
9.65176e-05
0.000105684
0.000105619
0.000102112
9.90413e-05
9.69254e-05
9.51067e-05
9.26655e-05
8.87283e-05
8.1248e-05
7.36689e-05
6.94381e-05
7.23575e-05
7.2821e-05
7.00618e-05
6.71543e-05
6.55856e-05
6.50672e-05
6.53392e-05
6.58663e-05
6.55984e-05
6.16358e-05
5.65766e-05
5.37016e-05
1.16185e-05
1.07848e-05
1.071e-05
1.10866e-05
1.16081e-05
1.21936e-05
1.28434e-05
1.35339e-05
1.42291e-05
1.49417e-05
1.57984e-05
1.7037e-05
1.14915e-05
1.04866e-05
1.03772e-05
1.07144e-05
1.12062e-05
1.1773e-05
1.24025e-05
1.3099e-05
1.38149e-05
1.45135e-05
1.52614e-05
1.63214e-05
7.41112e-05
7.24548e-05
6.95785e-05
6.74066e-05
6.61759e-05
6.58143e-05
6.61632e-05
6.67852e-05
6.67981e-05
6.37611e-05
5.76722e-05
5.31958e-05
9.9188e-05
0.000105852
0.000105472
0.00010263
9.9953e-05
9.80136e-05
9.64226e-05
9.43609e-05
9.1017e-05
8.42716e-05
7.52844e-05
6.91451e-05
0.000109933
0.000122899
0.00012532
0.000122781
0.000119296
0.000116212
0.00011323
0.000109483
0.000104104
9.5108e-05
8.46609e-05
7.73377e-05
0.000114802
0.000131829
0.000136346
0.000134357
0.000130508
0.000126697
0.000122766
0.000117879
0.000111164
0.000100824
8.96115e-05
8.14521e-05
0.000116775
0.000135744
0.000141335
0.000139705
0.000135717
0.000131548
0.000127135
0.000121672
0.000114286
0.000103302
9.17388e-05
8.31845e-05
0.000116775
0.000135745
0.000141336
0.000139707
0.00013572
0.000131552
0.000127138
0.000121675
0.000114289
0.000103304
9.17401e-05
8.31851e-05
0.000114803
0.000131829
0.000136348
0.000134364
0.000130517
0.000126707
0.000122775
0.000117887
0.000111171
0.00010083
8.96155e-05
8.14543e-05
0.000109933
0.000122898
0.000125324
0.000122791
0.00011931
0.000116228
0.000113245
0.000109496
0.000104114
9.51171e-05
8.46677e-05
7.73415e-05
9.91874e-05
0.000105849
0.000105474
0.000102641
9.99713e-05
9.80345e-05
9.64418e-05
9.43764e-05
9.10278e-05
8.42823e-05
7.52936e-05
6.91507e-05
7.41096e-05
7.24487e-05
6.95775e-05
6.74192e-05
6.62008e-05
6.58426e-05
6.61875e-05
6.68015e-05
6.68061e-05
6.37696e-05
5.7682e-05
5.32038e-05
1.14903e-05
1.04856e-05
1.03772e-05
1.07156e-05
1.12078e-05
1.17745e-05
1.24035e-05
1.30995e-05
1.3815e-05
1.45136e-05
1.52613e-05
1.63207e-05
1.12877e-05
1.01388e-05
1.00426e-05
1.03541e-05
1.08086e-05
1.13426e-05
1.19377e-05
1.26018e-05
1.33015e-05
1.39892e-05
1.46648e-05
1.54656e-05
7.53482e-05
7.12956e-05
6.86454e-05
6.74683e-05
6.67143e-05
6.65743e-05
6.70433e-05
6.77748e-05
6.79523e-05
6.63447e-05
6.05141e-05
5.4691e-05
0.000101029
0.000104838
0.000104768
0.00010314
0.000101115
9.9458e-05
9.8139e-05
9.64939e-05
9.3647e-05
8.8498e-05
7.94774e-05
7.12448e-05
0.000111936
0.000122121
0.000124895
0.000123603
0.000120812
0.000118032
0.000115399
0.000112238
0.000107679
0.000100496
8.98063e-05
8.01155e-05
0.000116857
0.000131209
0.000136094
0.000135323
0.000132192
0.000128715
0.000125199
0.000121023
0.000115346
0.000106891
9.52968e-05
8.48131e-05
0.000118842
0.000135193
0.000141159
0.000140723
0.00013747
0.000133655
0.000129694
0.000125008
0.000118773
0.000109661
9.76762e-05
8.67863e-05
0.000118842
0.000135193
0.00014116
0.000140725
0.000137473
0.000133659
0.000129698
0.000125011
0.000118776
0.000109664
9.76781e-05
8.67877e-05
0.000116857
0.000131209
0.000136096
0.000135329
0.000132202
0.000128725
0.00012521
0.000121032
0.000115354
0.000106897
9.53025e-05
8.48174e-05
0.000111936
0.00012212
0.000124898
0.000123612
0.000120826
0.000118049
0.000115415
0.000112252
0.00010769
0.000100505
8.98155e-05
8.01223e-05
0.000101028
0.000104834
0.000104769
0.000103151
0.000101134
9.94799e-05
9.81594e-05
9.65106e-05
9.36588e-05
8.85083e-05
7.94887e-05
7.12546e-05
7.53466e-05
7.12894e-05
6.86449e-05
6.74812e-05
6.67403e-05
6.66043e-05
6.70695e-05
6.77931e-05
6.79623e-05
6.63521e-05
6.05247e-05
5.47018e-05
1.12865e-05
1.01377e-05
1.00426e-05
1.03552e-05
1.08102e-05
1.13441e-05
1.19388e-05
1.26025e-05
1.33017e-05
1.39893e-05
1.46649e-05
1.54655e-05
1.10474e-05