/*--------------------------------*- C++ -*----------------------------------*\
| =========                 |                                                 |
| \\      /  F ield         | OpenFOAM: The Open Source CFD Toolbox           |
|  \\    /   O peration     | Version:  2.3.1                                 |
|   \\  /    A nd           | Web:      www.OpenFOAM.org                      |
|    \\/     M anipulation  |                                                 |
\*---------------------------------------------------------------------------*/
FoamFile
{
    version     2.0;
    format      ascii;
    class       surfaceScalarField;
    location    "15";
    object      phi;
}
// * * * * * * * * * * * * * * * * * * * * * * * * * * * * * * * * * * * * * //

dimensions      [0 3 -1 0 0 0 0];

internalField   nonuniform List<scalar> 
108641
(
2.07182e-05
2.59498e-08
8.80007e-08
2.0508e-05
4.08696e-08
1.69327e-07
2.03555e-05
-5.17103e-08
2.04263e-07
2.00448e-05
9.23911e-08
2.18261e-07
2.01075e-05
-3.4292e-08
-2.83864e-08
2.00579e-05
-1.26015e-07
1.75675e-07
2.01484e-05
4.89385e-08
-1.39465e-07
2.06646e-05
-1.08771e-07
-4.07405e-07
2.07317e-05
3.77356e-08
-1.0486e-07
2.14901e-05
9.50345e-08
-8.5345e-07
2.22716e-05
-9.38201e-10
-7.80537e-07
9.9858e-08
-2.53389e-07
2.24251e-05
2.07457e-05
9.14361e-09
1.03281e-07
2.05971e-05
2.98663e-08
1.59575e-07
2.03807e-05
-2.70362e-10
1.65045e-07
2.02105e-05
9.59534e-08
1.66572e-07
2.02238e-05
-8.97298e-09
-3.86324e-08
2.01433e-05
-1.21405e-07
7.59419e-08
2.03129e-05
3.50355e-08
-1.55711e-07
2.07268e-05
-5.67728e-08
-4.65892e-07
2.09854e-05
2.74351e-08
-2.48355e-07
2.16949e-05
1.2482e-07
-7.39246e-07
2.23918e-05
3.65573e-08
-7.34338e-07
9.21681e-08
-3.36191e-07
2.27356e-05
2.07162e-05
-7.46795e-09
1.32616e-07
2.06071e-05
1.26852e-08
1.26222e-07
2.03909e-05
6.46512e-08
1.51348e-07
2.02012e-05
6.78572e-08
2.17725e-07
2.02096e-05
1.37696e-08
-3.1048e-08
2.01126e-05
-6.35766e-08
3.91496e-08
2.02836e-05
1.19735e-08
-1.48009e-07
2.07147e-05
1.90147e-08
-5.06829e-07
2.10051e-05
2.70601e-08
-2.90006e-07
2.16986e-05
1.24178e-07
-6.92884e-07
2.23615e-05
9.98864e-08
-7.26192e-07
7.79913e-08
-3.40303e-07
2.27159e-05
2.06896e-05
-1.24001e-08
1.4752e-07
2.05804e-05
6.01861e-09
1.159e-07
2.03957e-05
7.02869e-08
1.79054e-07
2.01521e-05
4.07288e-08
2.70739e-07
2.01851e-05
1.34098e-08
-3.26648e-08
2.01023e-05
-2.95863e-08
4.88312e-08
2.02378e-05
5.19877e-10
-1.24103e-07
2.07288e-05
3.61212e-08
-5.08119e-07
2.09981e-05
2.0438e-08
-2.62618e-07
2.16737e-05
9.13871e-08
-6.42801e-07
2.23402e-05
1.00148e-07
-6.66754e-07
6.59141e-08
-2.71816e-07
2.26241e-05
2.06772e-05
-8.01323e-09
1.50557e-07
2.05721e-05
3.56913e-09
1.07566e-07
2.04019e-05
4.1181e-08
1.99322e-07
2.01239e-05
1.84529e-08
3.0025e-07
2.01653e-05
8.74005e-09
-3.66623e-08
2.00974e-05
-1.08681e-08
4.91646e-08
2.02182e-05
-1.06435e-09
-1.19277e-07
2.07388e-05
2.37466e-08
-5.08134e-07
2.09974e-05
1.11436e-08
-2.4939e-07
2.16581e-05
4.70475e-08
-6.16289e-07
2.23232e-05
5.7003e-08
-6.21988e-07
3.62926e-08
-2.21348e-07
2.25742e-05
2.06735e-05
1.20326e-11
1.50628e-07
2.05728e-05
-3.48837e-11
1.04321e-07
2.0402e-05
-2.74493e-10
2.1228e-07
2.01057e-05
2.57758e-12
3.14742e-07
2.01533e-05
-2.36356e-10
-3.86488e-08
2.00921e-05
-2.50836e-10
5.06213e-08
2.02096e-05
-6.27655e-11
-1.18537e-07
2.07421e-05
-4.74641e-10
-5.08253e-07
2.09977e-05
-2.03747e-10
-2.44223e-07
2.16543e-05
-3.00563e-10
-6.0927e-07
2.23125e-05
-5.28575e-10
-6.0072e-07
-1.58538e-10
-1.97178e-07
2.25462e-05
2.06735e-05
8.03588e-09
1.50623e-07
2.05728e-05
-3.62314e-09
1.04319e-07
2.0402e-05
-4.17031e-08
2.12253e-07
2.01057e-05
-1.84498e-08
3.14751e-07
2.01533e-05
-9.18166e-09
-3.86577e-08
2.00921e-05
1.03962e-08
5.05549e-08
2.02096e-05
9.65527e-10
-1.18536e-07
2.07421e-05
-2.46363e-08
-5.08316e-07
2.09977e-05
-1.15166e-08
-2.44291e-07
2.16542e-05
-4.76022e-08
-6.09268e-07
2.23126e-05
-5.80073e-08
-6.00832e-07
-3.65835e-08
-1.97222e-07
2.25462e-05
2.06773e-05
1.24144e-08
1.50547e-07
2.05721e-05
-6.03436e-09
1.07572e-07
2.04019e-05
-7.07294e-08
1.99241e-07
2.01239e-05
-4.07222e-08
3.00273e-07
2.01652e-05
-1.37778e-08
-3.66819e-08
2.00974e-05
2.92082e-08
4.89778e-08
2.02182e-05
-5.44607e-10
-1.19279e-07
2.07387e-05
-3.68496e-08
-5.08311e-07
2.09975e-05
-2.07086e-08
-2.49596e-07
2.1658e-05
-9.18038e-08
-6.16287e-07
2.23232e-05
-1.00989e-07
-6.22293e-07
-6.61293e-08
-2.21465e-07
2.25742e-05
2.06896e-05
7.48122e-09
1.475e-07
2.05803e-05
-1.26698e-08
1.15916e-07
2.03956e-05
-6.49838e-08
1.78947e-07
2.0152e-05
-6.78252e-08
2.70761e-07
2.01849e-05
-1.40389e-08
-3.26964e-08
2.01022e-05
6.33308e-08
4.85743e-08
2.02377e-05
-1.1909e-08
-1.2408e-07
2.07287e-05
-1.95287e-08
-5.08369e-07
2.09981e-05
-2.71619e-08
-2.62912e-07
2.16735e-05
-1.24419e-07
-6.4279e-07
2.23402e-05
-1.00458e-07
-6.6724e-07
-7.80796e-08
-2.7201e-07
2.26242e-05
2.07162e-05
-9.10882e-09
1.32588e-07
2.06071e-05
-2.98487e-08
1.26249e-07
2.03909e-05
5.65278e-12
1.51273e-07
2.02011e-05
-9.58533e-08
2.17753e-07
2.02094e-05
8.76376e-09
-3.10802e-08
2.01125e-05
1.21342e-07
3.88722e-08
2.02835e-05
-3.48869e-08
-1.47966e-07
2.07146e-05
5.64627e-08
-5.07113e-07
2.10051e-05
-2.73166e-08
-2.90324e-07
2.16984e-05
-1.24926e-07
-6.92833e-07
2.23615e-05
-3.67756e-08
-7.2676e-07
-9.2102e-08
-3.40546e-07
2.27161e-05
2.07457e-05
-2.58942e-08
1.03234e-07
2.05972e-05
-4.08766e-08
1.59599e-07
2.03806e-05
5.16049e-08
1.64963e-07
2.02104e-05
-9.22647e-08
1.66626e-07
2.02237e-05
3.41475e-08
-3.86705e-08
2.01432e-05
1.26108e-07
7.5688e-08
2.03127e-05
-4.87754e-08
-1.55599e-07
2.07267e-05
1.08651e-07
-4.66194e-07
2.09855e-05
-3.74945e-08
-2.48589e-07
2.16947e-05
-9.50622e-08
-7.3908e-07
2.23918e-05
1.02532e-09
-7.34915e-07
-9.97384e-08
-3.36369e-07
2.27358e-05
2.07184e-05
8.7913e-08
2.05081e-05
1.69409e-07
2.03554e-05
2.04286e-07
2.00447e-05
2.18428e-07
2.01072e-05
-2.83304e-08
2.00578e-05
1.75496e-07
2.01482e-05
-1.39115e-07
2.06645e-05
-4.07707e-07
2.07319e-05
-1.04894e-07
2.14897e-05
-8.52869e-07
2.22717e-05
-7.80995e-07
-2.53375e-07
2.24254e-05
2.09048e-05
9.65624e-09
5.73449e-09
2.08694e-05
1.62984e-08
1.88411e-07
2.08037e-05
-2.79458e-08
2.97895e-07
2.06223e-05
8.70855e-08
3.1265e-07
2.06001e-05
-2.48802e-08
1.86415e-08
2.06367e-05
-9.97969e-08
2.38881e-07
2.07451e-05
8.21731e-08
-3.30011e-07
2.11971e-05
-8.11197e-08
-7.78323e-07
2.15604e-05
4.82937e-08
-5.16455e-07
2.22055e-05
1.71112e-07
-1.6697e-06
2.29024e-05
2.83773e-08
-1.50575e-06
1.35824e-07
-6.82527e-07
2.31957e-05
2.09298e-05
-1.38911e-09
1.67335e-08
2.08936e-05
1.94249e-09
2.10125e-07
2.0798e-05
9.29303e-09
2.23374e-07
2.07393e-05
8.24458e-08
2.29979e-07
2.06804e-05
-1.17198e-08
7.04914e-09
2.06929e-05
-8.73207e-08
5.1017e-08
2.08507e-05
5.79924e-08
-2.89326e-07
2.10999e-05
-4.23389e-08
-7.53938e-07
2.1492e-05
5.51988e-08
-6.47299e-07
2.20494e-05
1.9116e-07
-1.3167e-06
2.25974e-05
6.47946e-08
-1.31881e-06
1.29723e-07
-7.34346e-07
2.30017e-05
2.09236e-05
-9.47235e-09
4.93188e-08
2.09089e-05
-4.90479e-09
1.47737e-07
2.08042e-05
4.60768e-08
2.19289e-07
2.07484e-05
5.6775e-08
2.99139e-07
2.06851e-05
6.289e-09
1.4268e-08
2.06875e-05
-4.05138e-08
-1.00251e-08
2.08528e-05
2.8543e-08
-2.83843e-07
2.1083e-05
1.11409e-08
-7.90535e-07
2.14699e-05
5.48019e-08
-6.76494e-07
2.19996e-05
1.66365e-07
-1.1978e-06
2.24827e-05
1.19675e-07
-1.26424e-06
1.1763e-07
-7.10555e-07
2.28651e-05
2.09177e-05
-1.07287e-08
6.3224e-08
2.0891e-05
-1.06194e-09
1.38757e-07
2.08063e-05
5.11874e-08
2.58674e-07
2.0727e-05
3.49078e-08
3.71866e-07
2.06664e-05
9.84121e-09
2.4394e-08
2.06874e-05
-1.52085e-08
2.5352e-09
2.08237e-05
1.17692e-08
-2.43571e-07
2.1083e-05
2.61703e-08
-7.82527e-07
2.14558e-05
4.19085e-08
-6.22453e-07
2.1949e-05
1.21373e-07
-1.091e-06
2.24424e-05
1.18792e-07
-1.15929e-06
9.74617e-08
-5.87458e-07
2.27782e-05
2.09147e-05
-6.17557e-09
6.35147e-08
2.08876e-05
-4.26489e-11
1.33585e-07
2.08135e-05
3.04123e-08
2.94269e-07
2.07137e-05
1.69912e-08
4.17976e-07
2.06496e-05
7.15898e-09
3.0037e-08
2.06787e-05
-4.72513e-09
9.65917e-09
2.0794e-05
3.14343e-09
-2.25941e-07
2.10665e-05
1.7142e-08
-7.71652e-07
2.14258e-05
2.13833e-08
-5.88128e-07
2.18999e-05
6.1631e-08
-1.03071e-06
2.24115e-05
6.79556e-08
-1.08275e-06
5.30807e-08
-5.01619e-07
2.27362e-05
2.09151e-05
-3.02332e-12
6.15293e-08
2.08885e-05
-3.2197e-11
1.30893e-07
2.08145e-05
-1.70693e-10
3.16846e-07
2.07033e-05
-4.1737e-12
4.42963e-07
2.06395e-05
-1.74016e-10
3.25255e-08
2.06731e-05
-1.85628e-10
1.24613e-08
2.078e-05
-8.40351e-11
-2.22248e-07
2.10588e-05
-3.66596e-10
-7.69493e-07
2.14126e-05
-1.85486e-10
-5.76437e-07
2.18774e-05
-2.63939e-10
-1.01217e-06
2.23936e-05
-4.4608e-10
-1.04854e-06
-1.72087e-10
-4.61843e-07
2.27115e-05
2.09151e-05
6.17031e-09
6.15176e-08
2.08885e-05
-1.8496e-11
1.30891e-07
2.08145e-05
-3.07353e-08
3.1682e-07
2.07033e-05
-1.7001e-08
4.42964e-07
2.06395e-05
-7.4843e-09
3.25067e-08
2.06731e-05
4.38021e-09
1.23804e-08
2.078e-05
-3.28164e-09
-2.22279e-07
2.10587e-05
-1.78258e-08
-7.69575e-07
2.14125e-05
-2.17173e-08
-5.76543e-07
2.18773e-05
-6.21164e-08
-1.0122e-06
2.23935e-05
-6.87986e-08
-1.0487e-06
-5.33922e-08
-4.6195e-07
2.27115e-05
2.09147e-05
1.07218e-08
6.34843e-08
2.08876e-05
1.04071e-09
1.33572e-07
2.08134e-05
-5.14587e-08
2.94184e-07
2.07136e-05
-3.49091e-08
4.17969e-07
2.06496e-05
-1.01078e-08
2.99914e-08
2.06786e-05
1.49429e-08
9.43795e-09
2.07939e-05
-1.18343e-08
-2.26025e-07
2.10663e-05
-2.67208e-08
-7.71883e-07
2.14256e-05
-4.21299e-08
-5.88445e-07
2.18997e-05
-1.2173e-07
-1.03079e-06
2.24113e-05
-1.19482e-07
-1.08319e-06
-9.76753e-08
-5.01921e-07
2.2736e-05
2.09178e-05
9.46928e-09
6.31773e-08
2.0891e-05
4.91159e-09
1.3876e-07
2.08062e-05
-4.62712e-08
2.58561e-07
2.0727e-05
-5.6748e-08
3.71841e-07
2.06664e-05
-6.48332e-09
2.4323e-08
2.06873e-05
4.03495e-08
2.25598e-09
2.08235e-05
-2.85097e-08
-2.43668e-07
2.10828e-05
-1.15191e-08
-7.82847e-07
2.14555e-05
-5.48374e-08
-6.22899e-07
2.19486e-05
-1.66541e-07
-1.09111e-06
2.2442e-05
-1.20121e-07
-1.15998e-06
-1.1768e-07
-5.87934e-07
2.27779e-05
2.09236e-05
1.40115e-09
4.92618e-08
2.09089e-05
-1.91705e-09
1.47746e-07
2.08041e-05
-9.40174e-09
2.19193e-07
2.07484e-05
-8.23556e-08
2.99119e-07
2.0685e-05
1.15775e-08
1.41974e-08
2.06873e-05
8.73152e-08
-1.03937e-08
2.08526e-05
-5.78493e-08
-2.83916e-07
2.10828e-05
4.21203e-08
-7.90896e-07
2.14696e-05
-5.49955e-08
-6.76963e-07
2.19992e-05
-1.91154e-07
-1.19788e-06
2.24823e-05
-6.49436e-08
-1.26505e-06
-1.29573e-07
-7.11119e-07
2.28648e-05
2.09298e-05
-9.62688e-09
1.66429e-08
2.08936e-05
-1.62749e-08
2.10142e-07
2.0798e-05
2.79064e-08
2.23311e-07
2.07392e-05
-8.6958e-08
2.3001e-07
2.06803e-05
2.47859e-08
6.97142e-09
2.06927e-05
9.99152e-08
5.07162e-08
2.08505e-05
-8.19842e-08
-2.89283e-07
2.10997e-05
8.10199e-08
-7.54293e-07
2.14917e-05
-4.79708e-08
-6.47608e-07
2.20491e-05
-1.71025e-07
-1.31656e-06
2.25971e-05
-2.83026e-08
-1.31961e-06
-1.35616e-07
-7.34764e-07
2.30016e-05
2.09049e-05
5.61664e-09
2.08695e-05
1.88536e-07
2.08037e-05
2.97965e-07
2.06222e-05
3.12949e-07
2.05999e-05
1.87434e-08
2.06366e-05
2.38734e-07
2.0745e-05
-3.29465e-07
2.11969e-05
-7.78677e-07
2.15604e-05
-5.16353e-07
2.22053e-05
-1.66878e-06
2.29024e-05
-1.50642e-06
-6.82562e-07
2.3196e-05
2.06367e-05
6.39876e-08
1.37185e-07
2.05533e-05
6.62195e-08
2.05655e-07
2.04328e-05
5.2593e-08
3.65771e-07
2.02105e-05
1.05476e-07
4.29476e-07
2.00356e-05
-6.39563e-08
2.57524e-07
2.00701e-05
-7.92269e-08
2.83564e-07
2.00736e-05
5.64767e-08
-3.89994e-07
2.03807e-05
-1.19348e-07
-9.66013e-07
2.06726e-05
1.11303e-07
-9.19706e-07
2.09937e-05
2.32378e-07
-2.22314e-06
2.1526e-05
6.72953e-09
-2.04478e-06
1.44187e-07
-1.13967e-06
2.1839e-05
2.05815e-05
4.07048e-08
2.90753e-07
2.04286e-05
6.53664e-08
3.63837e-07
2.01647e-05
9.65136e-08
4.43389e-07
1.99409e-05
1.06051e-07
4.53176e-07
1.96456e-05
-1.48654e-08
2.53237e-07
1.94784e-05
-2.85473e-08
1.67573e-07
1.94285e-05
6.27433e-08
-2.4573e-07
1.94213e-05
-2.89632e-08
-8.37079e-07
1.96852e-05
1.50652e-07
-9.50596e-07
2.00685e-05
2.44746e-07
-1.7124e-06
2.05129e-05
7.09428e-08
-1.82735e-06
1.64245e-07
-1.25698e-06
2.10155e-05
2.0555e-05
1.95536e-08
3.47697e-07
2.03889e-05
5.09241e-08
3.28241e-07
2.01203e-05
1.03745e-07
4.80641e-07
1.99179e-05
9.45321e-08
5.13066e-07
1.96218e-05
3.35938e-08
2.6194e-07
1.94373e-05
1.76697e-08
1.28271e-07
1.93758e-05
5.8539e-08
-2.18156e-07
1.93257e-05
4.25144e-08
-8.1191e-07
1.95676e-05
1.46623e-07
-9.14369e-07
1.99367e-05
2.2082e-07
-1.54297e-06
2.03326e-05
1.36361e-07
-1.72561e-06
1.51653e-07
-1.19675e-06
2.08314e-05
2.05377e-05
5.98601e-09
3.71238e-07
2.03426e-05
3.59693e-08
3.48882e-07
2.00723e-05
7.88104e-08
5.53892e-07
1.98667e-05
6.26362e-08
6.09331e-07
1.95802e-05
3.20617e-08
3.12434e-07
1.94068e-05
1.58568e-08
1.7777e-07
1.93372e-05
3.28893e-08
-1.4831e-07
1.9308e-05
4.7447e-08
-7.58274e-07
1.95432e-05
1.07876e-07
-8.18944e-07
1.98968e-05
1.67544e-07
-1.39127e-06
2.03092e-05
1.33426e-07
-1.56881e-06
1.19013e-07
-1.02137e-06
2.07758e-05
2.05305e-05
1.49311e-09
3.69651e-07
2.03255e-05
1.75422e-08
3.57045e-07
2.0056e-05
4.03253e-08
6.02216e-07
1.98388e-05
3.19806e-08
6.65842e-07
1.95431e-05
1.90493e-08
3.38756e-07
1.93587e-05
7.91468e-09
2.02017e-07
1.9274e-05
1.35146e-08
-1.21861e-07
1.9258e-05
2.72019e-08
-7.35384e-07
1.94948e-05
5.4499e-08
-7.71518e-07
1.98556e-05
8.7687e-08
-1.31167e-06
2.02959e-05
7.74747e-08
-1.46715e-06
6.4666e-08
-9.04814e-07
2.07535e-05
2.05279e-05
-5.30047e-12
3.67271e-07
2.03173e-05
-5.52449e-11
3.59137e-07
2.00468e-05
-1.02394e-10
6.2778e-07
1.98258e-05
-2.63194e-11
6.95942e-07
1.95265e-05
-1.65513e-10
3.51043e-07
1.9336e-05
-1.46475e-10
2.11007e-07
1.9243e-05
-1.49684e-10
-1.15531e-07
1.92314e-05
-3.03761e-10
-7.30361e-07
1.94669e-05
-1.64982e-10
-7.5731e-07
1.98287e-05
-2.82401e-10
-1.28602e-06
2.02807e-05
-3.75962e-10
-1.4227e-06
-2.09452e-10
-8.51004e-07
2.07348e-05
2.05279e-05
-1.5032e-09
3.67255e-07
2.03173e-05
-1.76385e-08
3.59122e-07
2.00468e-05
-4.05193e-08
6.2776e-07
1.98258e-05
-3.20321e-08
6.95935e-07
1.95265e-05
-1.93571e-08
3.51019e-07
1.9336e-05
-8.17551e-09
2.10924e-07
1.92429e-05
-1.37763e-08
-1.15581e-07
1.92312e-05
-2.77601e-08
-7.30451e-07
1.94668e-05
-5.47845e-08
-7.57436e-07
1.98286e-05
-8.82026e-08
-1.28609e-06
2.02806e-05
-7.81756e-08
-1.42289e-06
-6.50442e-08
-8.5118e-07
2.07346e-05
2.05306e-05
-5.9954e-09
3.69608e-07
2.03255e-05
-3.60321e-08
3.57005e-07
2.0056e-05
-7.89739e-08
6.02152e-07
1.98388e-05
-6.26736e-08
6.65815e-07
1.9543e-05
-3.23043e-08
3.38698e-07
1.93585e-05
-1.60253e-08
2.01793e-07
1.92738e-05
-3.30488e-08
-1.21997e-07
1.92576e-05
-4.78684e-08
-7.3564e-07
1.94943e-05
-1.08027e-07
-7.71892e-07
1.98551e-05
-1.67916e-07
-1.31188e-06
2.02954e-05
-1.33975e-07
-1.4677e-06
-1.19276e-07
-9.05321e-07
2.07531e-05
2.05378e-05
-1.95585e-08
3.71173e-07
2.03426e-05
-5.09481e-08
3.48837e-07
2.00722e-05
-1.03851e-07
5.53801e-07
1.98667e-05
-9.45341e-08
6.09275e-07
1.95801e-05
-3.37507e-08
3.12351e-07
1.94065e-05
-1.76979e-08
1.77468e-07
1.93369e-05
-5.85582e-08
-1.48481e-07
1.93075e-05
-4.27439e-08
-7.58625e-07
1.95426e-05
-1.46545e-07
-8.1947e-07
1.98961e-05
-2.20979e-07
-1.39156e-06
2.03085e-05
-1.36675e-07
-1.56966e-06
-1.51735e-07
-1.02215e-06
2.07752e-05
2.0555e-05
-4.06993e-08
3.47624e-07
2.03889e-05
-6.53558e-08
3.28193e-07
2.01203e-05
-9.65549e-08
4.80546e-07
1.99179e-05
-1.05992e-07
5.12996e-07
1.96217e-05
1.47832e-08
2.61839e-07
1.9437e-05
2.86635e-08
1.2794e-07
1.93755e-05
-6.26185e-08
-2.18318e-07
1.93252e-05
2.89163e-08
-8.12281e-07
1.95669e-05
-1.50283e-07
-9.14912e-07
1.99359e-05
-2.44682e-07
-1.54324e-06
2.03318e-05
-7.09986e-08
-1.7266e-06
-1.64113e-07
-1.19767e-06
2.08307e-05
2.05815e-05
-6.39758e-08
2.90652e-07
2.04286e-05
-6.6204e-08
3.63805e-07
2.01646e-05
-5.25761e-08
4.43347e-07
1.99409e-05
-1.05383e-07
4.53163e-07
1.96455e-05
6.38984e-08
2.5317e-07
1.94782e-05
7.94473e-08
1.67328e-07
1.94283e-05
-5.63126e-08
-2.45703e-07
1.94209e-05
1.19354e-07
-8.37322e-07
1.96846e-05
-1.10793e-07
-9.50887e-07
2.0068e-05
-2.32235e-07
-1.71234e-06
2.05123e-05
-6.63758e-09
-1.82825e-06
-1.43956e-07
-1.25772e-06
2.10151e-05
2.06368e-05
1.37075e-07
2.05533e-05
2.05775e-07
2.04328e-05
3.65932e-07
2.02106e-05
4.29763e-07
2.00355e-05
2.57714e-07
2.00701e-05
2.8361e-07
2.00736e-05
-3.89344e-07
2.03805e-05
-9.66139e-07
2.06727e-05
-9.19391e-07
2.09937e-05
-2.22204e-06
2.15262e-05
-2.04551e-06
-1.13982e-06
2.18395e-05
2.06136e-05
-3.37586e-08
3.89537e-07
2.02636e-05
-1.58448e-08
5.71446e-07
1.992e-05
3.41005e-08
6.75346e-07
1.94152e-05
3.84288e-08
8.95849e-07
1.89389e-05
-7.72954e-08
8.11129e-07
1.8525e-05
1.56528e-08
6.8174e-07
1.80225e-05
1.16483e-07
-3.98884e-09
1.77346e-05
4.09875e-08
-7.19101e-07
1.74614e-05
3.3772e-07
-9.84143e-07
1.74986e-05
2.9201e-07
-2.55236e-06
1.80746e-05
5.17436e-08
-2.67258e-06
2.43252e-07
-1.912e-06
1.86037e-05
2.01561e-05
-1.20237e-08
9.45139e-07
1.92565e-05
3.9727e-08
1.20782e-06
1.83847e-05
1.44053e-07
1.20526e-06
1.75806e-05
1.35047e-07
1.16067e-06
1.68683e-05
6.23539e-08
8.25895e-07
1.64203e-05
1.09601e-07
5.21593e-07
1.61762e-05
1.72527e-07
-5.7674e-08
1.61057e-05
1.36758e-07
-8.62364e-07
1.64182e-05
3.27522e-07
-1.2529e-06
1.6926e-05
3.01597e-07
-2.22976e-06
1.76094e-05
1.37875e-07
-2.59692e-06
2.48361e-07
-2.1032e-06
1.84505e-05
2.01408e-05
-9.41715e-09
1.03652e-06
1.91943e-05
5.10116e-08
1.2634e-06
1.83275e-05
1.55767e-07
1.33571e-06
1.75417e-05
1.54246e-07
1.27964e-06
1.6811e-05
1.10946e-07
9.4414e-07
1.63449e-05
1.20233e-07
5.83657e-07
1.61209e-05
1.48412e-07
3.00385e-08
1.60621e-05
1.57176e-07
-7.73601e-07
1.64061e-05
2.59735e-07
-1.1905e-06
1.69477e-05
2.53774e-07
-2.03676e-06
1.76145e-05
1.65574e-07
-2.42013e-06
1.88695e-07
-1.96602e-06
1.84434e-05
2.01412e-05
-1.03116e-08
1.06311e-06
1.91806e-05
4.56984e-08
1.31477e-06
1.83144e-05
1.10288e-07
1.46566e-06
1.75347e-05
1.06509e-07
1.43675e-06
1.68088e-05
8.18779e-08
1.06734e-06
1.63486e-05
7.72492e-08
6.80988e-07
1.6134e-05
9.65876e-08
1.18101e-07
1.61038e-05
1.22994e-07
-6.93847e-07
1.64497e-05
1.82558e-07
-1.08766e-06
1.69915e-05
1.91155e-07
-1.87046e-06
1.76634e-05
1.42371e-07
-2.21756e-06
1.30689e-07
-1.74785e-06
1.84479e-05
2.01465e-05
-6.2905e-09
1.05136e-06
1.91949e-05
2.39937e-08
1.33029e-06
1.83233e-05
5.66406e-08
1.52744e-06
1.75232e-05
5.42199e-08
1.51831e-06
1.67761e-05
4.0938e-08
1.1267e-06
1.63029e-05
3.4535e-08
7.17933e-07
1.60895e-05
4.49569e-08
1.43219e-07
1.60818e-05
6.42599e-08
-6.68974e-07
1.64407e-05
9.28109e-08
-1.04068e-06
1.70001e-05
1.01829e-07
-1.7817e-06
1.76854e-05
8.03191e-08
-2.09039e-06
6.78442e-08
-1.60349e-06
1.84469e-05
2.0147e-05
-3.06659e-11
1.04624e-06
1.91982e-05
-8.42605e-11
1.33193e-06
1.8328e-05
-8.10791e-11
1.55473e-06
1.75212e-05
-7.17027e-11
1.55707e-06
1.67611e-05
-1.67169e-10
1.15227e-06
1.6276e-05
-1.45591e-10
7.30737e-07
1.60588e-05
-1.86607e-10
1.46837e-07
1.60591e-05
-2.40875e-10
-6.66206e-07
1.64233e-05
-1.53829e-10
-1.02847e-06
1.69908e-05
-2.85057e-10
-1.75142e-06
1.76831e-05
-3.284e-10
-2.03434e-06
-2.63139e-10
-1.53551e-06
1.84357e-05
2.0147e-05
6.23732e-09
1.04622e-06
1.91982e-05
-2.41443e-08
1.3319e-06
1.8328e-05
-5.67931e-08
1.5547e-06
1.75212e-05
-5.43519e-08
1.55706e-06
1.6761e-05
-4.12385e-08
1.15224e-06
1.62759e-05
-3.4784e-08
7.30661e-07
1.60587e-05
-4.5281e-08
1.46767e-07
1.6059e-05
-6.4684e-08
-6.66317e-07
1.64231e-05
-9.3063e-08
-1.02862e-06
1.69906e-05
-1.02347e-07
-1.75154e-06
1.76829e-05
-8.09307e-08
-2.03457e-06
-6.83385e-08
-1.53574e-06
1.84355e-05
2.01465e-05
1.02746e-08
1.0513e-06
1.91949e-05
-4.58094e-08
1.33021e-06
1.83233e-05
-1.1041e-07
1.52737e-06
1.75231e-05
-1.06594e-07
1.51828e-06
1.6776e-05
-8.20803e-08
1.12665e-06
1.63026e-05
-7.73745e-08
7.17722e-07
1.60891e-05
-9.67692e-08
1.43018e-07
1.60813e-05
-1.23249e-07
-6.69295e-07
1.64402e-05
-1.82644e-07
-1.04113e-06
1.69995e-05
-1.91524e-07
-1.78205e-06
1.76848e-05
-1.42852e-07
-2.09105e-06
-1.31099e-07
-1.60417e-06
1.84464e-05
2.01412e-05
9.39665e-09
1.06302e-06
1.91807e-05
-5.10663e-08
1.31466e-06
1.83143e-05
-1.55825e-07
1.46555e-06
1.75346e-05
-1.54256e-07
1.43669e-06
1.68086e-05
-1.11016e-07
1.06726e-06
1.63482e-05
-1.20176e-07
6.80699e-07
1.61335e-05
-1.4839e-07
1.17837e-07
1.61031e-05
-1.57179e-07
-6.94288e-07
1.64488e-05
-2.59548e-07
-1.0883e-06
1.69906e-05
-2.53935e-07
-1.87095e-06
1.76625e-05
-1.65864e-07
-2.21856e-06
-1.88973e-07
-1.7489e-06
1.84471e-05
2.01408e-05
1.20249e-08
1.03642e-06
1.91943e-05
-3.97153e-08
1.26327e-06
1.83275e-05
-1.44028e-07
1.33558e-06
1.75417e-05
-1.34954e-07
1.27955e-06
1.68107e-05
-6.22922e-08
9.44039e-07
1.63445e-05
-1.09339e-07
5.83342e-07
1.61203e-05
-1.72308e-07
2.97975e-08
1.60614e-05
-1.36506e-07
-7.74038e-07
1.64051e-05
-3.26993e-07
-1.19116e-06
1.69467e-05
-3.01555e-07
-2.03722e-06
1.76135e-05
-1.37958e-07
-2.42129e-06
-2.48478e-07
-1.96728e-06
1.84426e-05
2.01561e-05
3.37631e-08
9.44993e-07
1.92566e-05
1.58985e-08
1.2077e-06
1.83847e-05
-3.40109e-08
1.2052e-06
1.75806e-05
-3.82956e-08
1.16068e-06
1.68681e-05
7.74008e-08
8.25907e-07
1.642e-05
-1.52994e-08
5.21439e-07
1.61758e-05
-1.16244e-07
-5.7621e-08
1.61052e-05
-4.06586e-08
-8.62519e-07
1.64175e-05
-3.37022e-07
-1.2532e-06
1.69253e-05
-2.91917e-07
-2.22976e-06
1.76087e-05
-5.16729e-08
-2.59791e-06
-2.43188e-07
-2.10432e-06
1.845e-05
2.06136e-05
3.8943e-07
2.02637e-05
5.71536e-07
1.99201e-05
6.75531e-07
1.94154e-05
8.96167e-07
1.8939e-05
8.11506e-07
1.85253e-05
6.82026e-07
1.80229e-05
-3.1461e-09
1.77349e-05
-7.18853e-07
1.7462e-05
-9.83527e-07
1.74991e-05
-2.55097e-06
1.80751e-05
-2.6732e-06
-1.91238e-06
1.86045e-05
2.25179e-06
1.86475e-06
-3.72699e-06
3.94174e-06
1.01494e-06
-2.13345e-06
5.60208e-06
6.10755e-07
-1.59575e-06
6.95834e-06
3.39185e-07
-7.99599e-07
8.03537e-06
1.70464e-07
-4.36362e-07
8.79323e-06
1.91951e-07
-2.68071e-07
9.45146e-06
1.9196e-07
-8.5418e-07
1.01916e-05
1.63329e-07
-1.62261e-06
1.1094e-05
2.95692e-07
-2.18224e-06
1.23709e-05
1.83582e-07
-4.01281e-06
1.38163e-05
1.88683e-07
-4.30664e-06
3.53822e-07
-3.532e-06
1.50825e-05
5.16698e-06
1.36219e-06
-3.71929e-06
7.31766e-06
9.91978e-07
-9.19892e-07
8.83765e-06
6.89414e-07
-3.93388e-07
9.80004e-06
4.47832e-07
8.96353e-08
1.03986e-05
2.81587e-07
1.16241e-07
1.08817e-05
2.61703e-07
-3.13012e-08
1.13642e-05
2.42718e-07
-5.90902e-07
1.19042e-05
2.12914e-07
-1.45202e-06
1.27469e-05
3.28252e-07
-2.12816e-06
1.37442e-05
2.71087e-07
-3.31447e-06
1.49058e-05
2.23332e-07
-3.79326e-06
2.85207e-07
-3.2665e-06
1.61378e-05
5.33583e-06
7.8093e-07
-3.71805e-06
7.60367e-06
7.1165e-07
-7.24104e-07
9.15621e-06
5.55761e-07
-8.31789e-08
1.01684e-05
3.86385e-07
3.28934e-07
1.07913e-05
2.67855e-07
3.34966e-07
1.12949e-05
2.2737e-07
1.14334e-07
1.17913e-05
2.11476e-07
-4.35086e-07
1.23132e-05
2.10185e-07
-1.29281e-06
1.31383e-05
2.66347e-07
-1.95367e-06
1.41043e-05
2.34261e-07
-2.96593e-06
1.51873e-05
1.93313e-07
-3.47307e-06
1.87604e-07
-3.01477e-06
1.63336e-05
5.24e-06
4.26028e-07
-3.822e-06
7.58567e-06
4.47093e-07
-7.66348e-07
9.20197e-06
3.63143e-07
4.19882e-08
1.02686e-05
2.57446e-07
4.99058e-07
1.09297e-05
1.83482e-07
4.90566e-07
1.14496e-05
1.51454e-07
2.37101e-07
1.19575e-05
1.49151e-07
-3.27486e-07
1.24932e-05
1.63425e-07
-1.18281e-06
1.3304e-05
1.93424e-07
-1.82558e-06
1.42545e-05
1.77039e-07
-2.76373e-06
1.53076e-05
1.42793e-07
-3.2201e-06
1.18091e-07
-2.7576e-06
1.63868e-05
5.16574e-06
1.84918e-07
-3.87327e-06
7.55779e-06
2.09994e-07
-8.24666e-07
9.20554e-06
1.7443e-07
6.83996e-08
1.02913e-05
1.24668e-07
5.65361e-07
1.09639e-05
8.94695e-08
5.48112e-07
1.14817e-05
7.28589e-08
2.78729e-07
1.19917e-05
7.54844e-08
-2.93168e-07
1.25407e-05
8.76434e-08
-1.14217e-06
1.33566e-05
1.01504e-07
-1.76466e-06
1.4313e-05
9.51648e-08
-2.65617e-06
1.5355e-05
7.62994e-08
-3.06589e-06
5.9162e-08
-2.58795e-06
1.63983e-05
5.12818e-06
-1.68001e-10
-3.89685e-06
7.53462e-06
-1.4059e-10
-8.64383e-07
9.19273e-06
-1.14361e-10
7.11665e-08
1.02861e-05
-1.31573e-10
5.88508e-07
1.09619e-05
-1.69239e-10
5.66082e-07
1.14769e-05
-1.38317e-10
2.88764e-07
1.19882e-05
-1.58843e-10
-2.88793e-07
1.25443e-05
-1.55271e-10
-1.13456e-06
1.33645e-05
-1.30621e-10
-1.74705e-06
1.43252e-05
-2.69247e-10
-2.61669e-06
1.53638e-05
-3.18736e-10
-2.99624e-06
-3.47792e-10
-2.50488e-06
1.63926e-05
5.12813e-06
-1.8522e-07
-3.89686e-06
7.53458e-06
-2.10249e-07
-8.64442e-07
9.19268e-06
-1.74631e-07
7.11151e-08
1.0286e-05
-1.2489e-07
5.88468e-07
1.09618e-05
-8.97558e-08
5.66031e-07
1.14768e-05
-7.30773e-08
2.88668e-07
1.1988e-05
-7.57424e-08
-2.88893e-07
1.25441e-05
-8.78949e-08
-1.13469e-06
1.33643e-05
-1.01716e-07
-1.74723e-06
1.4325e-05
-9.56658e-08
-2.61685e-06
1.53635e-05
-7.69128e-08
-2.99649e-06
-5.98479e-08
-2.50515e-06
1.63924e-05
5.16564e-06
-4.26261e-07
-3.8733e-06
7.5577e-06
-4.47278e-07
-8.24816e-07
9.20544e-06
-3.63262e-07
6.82658e-08
1.02911e-05
-2.57547e-07
5.65248e-07
1.09637e-05
-1.83607e-07
5.47969e-07
1.14813e-05
-1.51497e-07
2.78456e-07
1.19913e-05
-1.49232e-07
-2.93454e-07
1.25402e-05
-1.63505e-07
-1.14256e-06
1.3356e-05
-1.93494e-07
-1.76516e-06
1.43123e-05
-1.77442e-07
-2.65661e-06
1.53543e-05
-1.43344e-07
-3.06661e-06
-1.18762e-07
-2.58873e-06
1.63978e-05
5.23987e-06
-7.8107e-07
-3.82204e-06
7.58555e-06
-7.11726e-07
-7.66568e-07
9.20181e-06
-5.55755e-07
4.17849e-08
1.02684e-05
-3.86314e-07
4.98877e-07
1.09294e-05
-2.67757e-07
4.90358e-07
1.14491e-05
-2.27148e-07
2.36714e-07
1.19568e-05
-2.11299e-07
-3.27873e-07
1.24924e-05
-2.10009e-07
-1.18334e-06
1.33031e-05
-2.66206e-07
-1.82628e-06
1.42536e-05
-2.34546e-07
-2.76434e-06
1.53066e-05
-1.93778e-07
-3.22117e-06
-1.88251e-07
-2.7588e-06
1.6386e-05
5.33564e-06
-1.36218e-06
-3.71811e-06
7.60347e-06
-9.91902e-07
-7.24384e-07
9.15601e-06
-6.89228e-07
-8.3487e-08
1.01681e-05
-4.47585e-07
3.28701e-07
1.0791e-05
-2.8128e-07
3.34736e-07
1.12944e-05
-2.61211e-07
1.1392e-07
1.17907e-05
-2.42298e-07
-4.35439e-07
1.23124e-05
-2.12482e-07
-1.2933e-06
1.31373e-05
-3.27873e-07
-1.95433e-06
1.41032e-05
-2.71285e-07
-2.96646e-06
1.51862e-05
-2.23702e-07
-3.47428e-06
-2.85818e-07
-3.01625e-06
1.63327e-05
5.1668e-06
-1.86458e-06
-3.71941e-06
7.31754e-06
-1.01476e-06
-9.2018e-07
8.83758e-06
-6.1048e-07
-3.93589e-07
9.79997e-06
-3.38867e-07
8.95681e-08
1.03985e-05
-1.70076e-07
1.16191e-07
1.08815e-05
-1.91361e-07
-3.14727e-08
1.13639e-05
-1.9148e-07
-5.90837e-07
1.19038e-05
-1.62814e-07
-1.45206e-06
1.27463e-05
-2.95266e-07
-2.12826e-06
1.37434e-05
-1.8376e-07
-3.31442e-06
1.4905e-05
-1.88868e-07
-3.79432e-06
-3.54279e-07
-3.26794e-06
1.61371e-05
2.25196e-06
-3.72711e-06
3.94208e-06
-2.13334e-06
5.60257e-06
-1.59544e-06
6.95893e-06
-7.9906e-07
8.03609e-06
-4.35723e-07
8.79419e-06
-2.67438e-07
9.45245e-06
-8.52886e-07
1.01925e-05
-1.62174e-06
1.10947e-05
-2.18095e-06
1.2371e-05
-4.01109e-06
1.38164e-05
-4.30739e-06
-3.53303e-06
1.50827e-05
-9.1129e-07
5.36637e-07
-3.35234e-06
-1.81658e-07
7.07027e-07
-3.57011e-06
8.77222e-07
4.03096e-07
-3.05772e-06
2.12234e-06
2.08978e-07
-2.25369e-06
3.41254e-06
1.15151e-07
-1.84172e-06
4.67199e-06
1.26745e-07
-1.65427e-06
5.93753e-06
1.07084e-07
-2.2268e-06
7.23823e-06
1.11223e-07
-3.03454e-06
8.72882e-06
2.80774e-07
-3.9536e-06
1.03175e-05
3.07783e-07
-5.90922e-06
1.19699e-05
3.38825e-07
-6.29791e-06
2.38493e-07
-5.30442e-06
1.35038e-05
6.17289e-08
7.03681e-07
-3.94806e-06
1.83107e-06
8.40622e-07
-2.82282e-06
3.36397e-06
5.51941e-07
-2.07514e-06
4.68305e-06
3.60855e-07
-1.38132e-06
5.80104e-06
2.2896e-07
-1.11555e-06
6.83619e-06
2.07407e-07
-1.14712e-06
7.84467e-06
1.83931e-07
-1.67622e-06
8.8699e-06
1.88193e-07
-2.55422e-06
1.01365e-05
3.02544e-07
-3.41657e-06
1.15121e-05
2.94379e-07
-4.67667e-06
1.30071e-05
2.72345e-07
-5.22177e-06
1.72549e-07
-4.58546e-06
1.4392e-05
5.0161e-07
5.5067e-07
-4.06665e-06
2.41074e-06
6.74882e-07
-2.46749e-06
3.98135e-06
4.93522e-07
-1.59537e-06
5.31379e-06
3.43428e-07
-9.86074e-07
6.42577e-06
2.35791e-07
-7.83845e-07
7.44218e-06
2.01446e-07
-8.96119e-07
8.42263e-06
1.85529e-07
-1.41713e-06
9.41169e-06
1.91104e-07
-2.28479e-06
1.06304e-05
2.40177e-07
-3.10997e-06
1.19478e-05
2.27656e-07
-4.21666e-06
1.3333e-05
1.99321e-07
-4.78521e-06
1.12042e-07
-4.22994e-06
1.46087e-05
5.81725e-07
3.58427e-07
-4.21148e-06
2.52391e-06
4.46679e-07
-2.48033e-06
4.14589e-06
3.49536e-07
-1.436e-06
5.52066e-06
2.49307e-07
-7.81595e-07
6.66206e-06
1.79603e-07
-5.94641e-07
7.68962e-06
1.53076e-07
-7.42094e-07
8.67414e-06
1.47118e-07
-1.27359e-06
9.66377e-06
1.53226e-07
-2.13456e-06
1.0853e-05
1.71016e-07
-2.94561e-06
1.21352e-05
1.58152e-07
-3.97651e-06
1.34641e-05
1.3227e-07
-4.48195e-06
7.1244e-08
-3.9272e-06
1.46745e-05
5.94263e-07
1.71217e-07
-4.28032e-06
2.53652e-06
2.16448e-07
-2.53669e-06
4.18173e-06
1.74356e-07
-1.40164e-06
5.58029e-06
1.26827e-07
-7.1072e-07
6.73989e-06
9.39342e-08
-5.25812e-07
7.77422e-06
8.08778e-08
-6.83407e-07
8.76503e-06
8.03178e-08
-1.21718e-06
9.76124e-06
8.44761e-08
-2.06963e-06
1.09431e-05
8.97225e-08
-2.86523e-06
1.2214e-05
8.21747e-08
-3.85105e-06
1.35138e-05
6.73811e-08
-4.30083e-06
3.68573e-08
-3.72918e-06
1.46894e-05
5.87806e-07
-1.75026e-10
-4.31327e-06
2.5214e-06
-1.4942e-10
-2.58138e-06
4.17348e-06
-1.24074e-10
-1.40644e-06
5.58385e-06
-1.1711e-10
-6.94912e-07
6.75299e-06
-1.02099e-10
-5.09021e-07
7.79214e-06
-6.34328e-11
-6.69444e-07
8.78822e-06
-6.83421e-11
-1.20449e-06
9.78969e-06
-7.32052e-11
-2.05148e-06
1.09705e-05
-1.19683e-10
-2.83806e-06
1.22377e-05
-2.76533e-10
-3.80142e-06
1.35254e-05
-3.68078e-10
-4.21618e-06
-4.62171e-10
-3.62888e-06
1.46867e-05
5.87776e-07
-1.71533e-07
-4.31328e-06
2.52135e-06
-2.1671e-07
-2.58145e-06
4.17343e-06
-1.7456e-07
-1.40653e-06
5.58378e-06
-1.27008e-07
-6.94992e-07
6.7529e-06
-9.40799e-08
-5.0911e-07
7.79201e-06
-8.09483e-08
-6.69564e-07
8.78807e-06
-8.04034e-08
-1.20461e-06
9.78951e-06
-8.45799e-08
-2.05163e-06
1.09703e-05
-8.99328e-08
-2.83824e-06
1.22375e-05
-8.27151e-08
-3.80158e-06
1.35252e-05
-6.81184e-08
-4.21643e-06
-3.77942e-08
-3.62915e-06
1.46865e-05
5.94191e-07
-3.58655e-07
-4.28037e-06
2.5364e-06
-4.46837e-07
-2.5369e-06
4.18159e-06
-3.49608e-07
-1.40187e-06
5.5801e-06
-2.4933e-07
-7.10945e-07
6.73963e-06
-1.79575e-07
-5.26063e-07
7.77387e-06
-1.52979e-07
-6.83748e-07
8.7646e-06
-1.47058e-07
-1.21753e-06
9.76071e-06
-1.53213e-07
-2.07004e-06