/*--------------------------------*- C++ -*----------------------------------*\
| =========                 |                                                 |
| \\      /  F ield         | OpenFOAM: The Open Source CFD Toolbox           |
|  \\    /   O peration     | Version:  2.3.1                                 |
|   \\  /    A nd           | Web:      www.OpenFOAM.org                      |
|    \\/     M anipulation  |                                                 |
\*---------------------------------------------------------------------------*/
FoamFile
{
    version     2.0;
    format      ascii;
    class       surfaceScalarField;
    location    "15";
    object      phi_0;
}
// * * * * * * * * * * * * * * * * * * * * * * * * * * * * * * * * * * * * * //

dimensions      [0 3 -1 0 0 0 0];

internalField   nonuniform List<scalar> 
108641
(
2.0718e-05
2.60729e-08
8.81111e-08
2.05079e-05
4.06174e-08
1.69448e-07
2.03551e-05
-5.14488e-08
2.04291e-07
2.0045e-05
9.2582e-08
2.17535e-07
2.01083e-05
-3.49619e-08
-2.83731e-08
2.00581e-05
-1.25678e-07
1.75921e-07
2.01497e-05
4.90005e-08
-1.40606e-07
2.06651e-05
-1.08822e-07
-4.06591e-07
2.07321e-05
3.84256e-08
-1.05415e-07
2.14924e-05
9.48127e-08
-8.55181e-07
2.22721e-05
-8.38779e-10
-7.78836e-07
9.92364e-08
-2.53162e-07
2.2426e-05
2.07457e-05
9.1643e-09
1.03409e-07
2.05969e-05
2.98194e-08
1.59573e-07
2.03803e-05
5.26385e-11
1.65082e-07
2.02108e-05
9.60201e-08
1.66105e-07
2.02241e-05
-9.61541e-09
-3.86616e-08
2.01435e-05
-1.21205e-07
7.617e-08
2.0314e-05
3.52583e-08
-1.56759e-07
2.07275e-05
-5.68196e-08
-4.6553e-07
2.09863e-05
2.80148e-08
-2.48441e-07
2.16969e-05
1.24739e-07
-7.40486e-07
2.23928e-05
3.64757e-08
-7.33185e-07
9.16911e-08
-3.36162e-07
2.27365e-05
2.07162e-05
-7.55636e-09
1.32714e-07
2.0607e-05
1.2888e-08
1.26092e-07
2.03905e-05
6.48507e-08
1.51692e-07
2.02014e-05
6.77343e-08
2.17405e-07
2.02097e-05
1.33889e-08
-3.12946e-08
2.01126e-05
-6.35464e-08
3.94206e-08
2.02847e-05
1.22391e-08
-1.49057e-07
2.07155e-05
1.90328e-08
-5.06643e-07
2.1006e-05
2.73457e-08
-2.89846e-07
2.17005e-05
1.24333e-07
-6.94046e-07
2.23624e-05
9.97146e-08
-7.25211e-07
7.77184e-08
-3.40366e-07
2.27168e-05
2.06896e-05
-1.25012e-08
1.47578e-07
2.05804e-05
6.24878e-09
1.15763e-07
2.03953e-05
7.03975e-08
1.79553e-07
2.01522e-05
4.05574e-08
2.70353e-07
2.01854e-05
1.32111e-08
-3.30292e-08
2.01022e-05
-2.96071e-08
4.91988e-08
2.02389e-05
7.39057e-10
-1.25202e-07
2.07298e-05
3.61537e-08
-5.07949e-07
2.09989e-05
2.05625e-08
-2.62353e-07
2.16756e-05
9.15892e-08
-6.43933e-07
2.2341e-05
1.00031e-07
-6.65716e-07
6.57796e-08
-2.71927e-07
2.26248e-05
2.06772e-05
-8.07057e-09
1.50575e-07
2.05723e-05
3.70977e-09
1.07449e-07
2.04015e-05
4.12203e-08
1.99917e-07
2.01239e-05
1.83483e-08
2.99796e-07
2.01656e-05
8.6601e-09
-3.71023e-08
2.00973e-05
-1.08909e-08
4.9576e-08
2.02194e-05
-9.51543e-10
-1.2038e-07
2.07397e-05
2.37686e-08
-5.07961e-07
2.09982e-05
1.11871e-08
-2.49078e-07
2.166e-05
4.71684e-08
-6.17355e-07
2.23239e-05
5.69452e-08
-6.20883e-07
3.62376e-08
-2.2148e-07
2.25749e-05
2.06735e-05
1.28873e-11
1.50627e-07
2.0573e-05
-3.53406e-11
1.04225e-07
2.04016e-05
-2.73997e-10
2.12919e-07
2.01057e-05
3.10026e-12
3.14241e-07
2.01537e-05
-2.36877e-10
-3.91214e-08
2.0092e-05
-2.49937e-10
5.10495e-08
2.02108e-05
-6.32061e-11
-1.1965e-07
2.07431e-05
-4.74891e-10
-5.08077e-07
2.09984e-05
-2.02961e-10
-2.43907e-07
2.16562e-05
-3.01619e-10
-6.10303e-07
2.23132e-05
-5.27994e-10
-5.99567e-07
-1.58634e-10
-1.97327e-07
2.25469e-05
2.06735e-05
8.09467e-09
1.50622e-07
2.0573e-05
-3.76553e-09
1.04224e-07
2.04016e-05
-4.17417e-08
2.12892e-07
2.01057e-05
-1.83443e-08
3.1425e-07
2.01537e-05
-9.10271e-09
-3.91305e-08
2.0092e-05
1.04207e-08
5.09831e-08
2.02107e-05
8.5196e-10
-1.19649e-07
2.07431e-05
-2.46588e-08
-5.0814e-07
2.09984e-05
-1.15586e-08
-2.43975e-07
2.16561e-05
-4.77251e-08
-6.103e-07
2.23132e-05
-5.79484e-08
-5.99679e-07
-3.65286e-08
-1.97371e-07
2.2547e-05
2.06772e-05
1.2517e-08
1.50565e-07
2.05722e-05
-6.26518e-09
1.07454e-07
2.04015e-05
-7.08386e-08
1.99835e-07
2.01239e-05
-4.05498e-08
2.99819e-07
2.01655e-05
-1.358e-08
-3.71224e-08
2.00973e-05
2.92304e-08
4.93895e-08
2.02193e-05
-7.64531e-10
-1.20381e-07
2.07397e-05
-3.68827e-08
-5.08139e-07
2.09982e-05
-2.08318e-08
-2.49283e-07
2.16598e-05
-9.20078e-08
-6.17353e-07
2.2324e-05
-1.00872e-07
-6.21188e-07
-6.59949e-08
-2.21596e-07
2.2575e-05
2.06896e-05
7.57086e-09
1.47558e-07
2.05804e-05
-1.28731e-08
1.15779e-07
2.03953e-05
-6.51792e-08
1.79445e-07
2.01521e-05
-6.77016e-08
2.70375e-07
2.01852e-05
-1.3659e-08
-3.30615e-08
2.01022e-05
6.33018e-08
4.89421e-08
2.02388e-05
-1.21753e-08
-1.2518e-07
2.07297e-05
-1.95472e-08
-5.082e-07
2.09989e-05
-2.74463e-08
-2.62646e-07
2.16754e-05
-1.24575e-07
-6.43922e-07
2.2341e-05
-1.00285e-07
-6.66203e-07
-7.78069e-08
-2.7212e-07
2.2625e-05
2.07162e-05
-9.12918e-09
1.32687e-07
2.0607e-05
-2.98045e-08
1.26118e-07
2.03905e-05
-2.93136e-10
1.51605e-07
2.02013e-05
-9.59218e-08
2.17432e-07
2.02096e-05
9.40506e-09
-3.13276e-08
2.01126e-05
1.21143e-07
3.91436e-08
2.02845e-05
-3.51106e-08
-1.49014e-07
2.07154e-05
5.65094e-08
-5.06928e-07
2.1006e-05
-2.78956e-08
-2.90162e-07
2.17003e-05
-1.24846e-07
-6.93996e-07
2.23625e-05
-3.66932e-08
-7.2578e-07
-9.1626e-08
-3.40607e-07
2.27169e-05
2.07457e-05
-2.6017e-08
1.03363e-07
2.05969e-05
-4.06248e-08
1.59599e-07
2.03803e-05
5.13471e-08
1.65013e-07
2.02107e-05
-9.24555e-08
1.66161e-07
2.02239e-05
3.48171e-08
-3.87003e-08
2.01434e-05
1.25773e-07
7.59166e-08
2.03138e-05
-4.88384e-08
-1.56646e-07
2.07274e-05
1.08702e-07
-4.65833e-07
2.09864e-05
-3.81842e-08
-2.48675e-07
2.16967e-05
-9.48411e-08
-7.4032e-07
2.23928e-05
9.27034e-10
-7.33764e-07
-9.9118e-08
-3.36339e-07
2.27367e-05
2.07181e-05
8.80238e-08
2.0508e-05
1.69532e-07
2.0355e-05
2.04316e-07
2.00449e-05
2.17702e-07
2.0108e-05
-2.8318e-08
2.0058e-05
1.75744e-07
2.01494e-05
-1.40257e-07
2.0665e-05
-4.06894e-07
2.07323e-05
-1.05446e-07
2.14921e-05
-8.54601e-07
2.22723e-05
-7.79295e-07
-2.53146e-07
2.24263e-05
2.09049e-05
9.65691e-09
5.77549e-09
2.08695e-05
1.61226e-08
1.88728e-07
2.08034e-05
-2.76628e-08
2.98005e-07
2.06221e-05
8.72022e-08
3.11685e-07
2.06005e-05
-2.548e-08
1.8697e-08
2.06369e-05
-9.94165e-08
2.38904e-07
2.0746e-05
8.22283e-08
-3.31897e-07
2.11983e-05
-8.12659e-08
-7.77612e-07
2.15613e-05
4.90996e-08
-5.17597e-07
2.22073e-05
1.70915e-07
-1.67205e-06
2.29032e-05
2.834e-08
-1.50308e-06
1.35504e-07
-6.82041e-07
2.31966e-05
2.09299e-05
-1.45529e-09
1.6802e-08
2.08935e-05
1.92624e-09
2.10193e-07
2.07979e-05
9.55062e-09
2.23454e-07
2.07392e-05
8.24403e-08
2.29517e-07
2.06804e-05
-1.22516e-08
6.92661e-09
2.06932e-05
-8.70798e-08
5.10792e-08
2.08512e-05
5.81252e-08
-2.90689e-07
2.11007e-05
-4.24116e-08
-7.53898e-07
2.14932e-05
5.58754e-08
-6.47664e-07
2.20508e-05
1.91052e-07
-1.31824e-06
2.25986e-05
6.46017e-08
-1.31723e-06
1.29498e-07
-7.34093e-07
2.30025e-05
2.09237e-05
-9.56744e-09
4.92944e-08
2.09089e-05
-4.78319e-09
1.47666e-07
2.08041e-05
4.6252e-08
2.19742e-07
2.07484e-05
5.66591e-08
2.98879e-07
2.0685e-05
5.98826e-09
1.38263e-08
2.06878e-05
-4.04409e-08
-9.9466e-09
2.08533e-05
2.86809e-08
-2.85135e-07
2.10838e-05
1.11518e-08
-7.90698e-07
2.14711e-05
5.51949e-08
-6.76514e-07
2.20009e-05
1.66461e-07
-1.19923e-06
2.24838e-05
1.1949e-07
-1.26302e-06
1.17459e-07
-7.10361e-07
2.28659e-05
2.09179e-05
-1.08096e-08
6.31461e-08
2.08911e-05
-9.04269e-10
1.38675e-07
2.08063e-05
5.12811e-08
2.59324e-07
2.0727e-05
3.47684e-08
3.71554e-07
2.06664e-05
9.69166e-09
2.38079e-08
2.06877e-05
-1.51973e-08
2.69196e-09
2.08242e-05
1.18792e-08
-2.44902e-07
2.10839e-05
2.62088e-08
-7.8272e-07
2.14569e-05
4.21249e-08
-6.22282e-07
2.19503e-05
1.21537e-07
-1.09239e-06
2.24434e-05
1.18679e-07
-1.15805e-06
9.73477e-08
-5.87309e-07
2.27789e-05
2.09148e-05
-6.21965e-09
6.33828e-08
2.08877e-05
6.22524e-11
1.33555e-07
2.08134e-05
3.04495e-08
2.95043e-07
2.07135e-05
1.69097e-08
4.17581e-07
2.06496e-05
7.09656e-09
2.936e-08
2.06789e-05
-4.73519e-09
9.87132e-09
2.07945e-05
3.20042e-09
-2.2728e-07
2.10674e-05
1.71699e-08
-7.71839e-07
2.14268e-05
2.1477e-08
-5.87861e-07
2.19013e-05
6.17368e-08
-1.03202e-06
2.24126e-05
6.79026e-08
-1.08146e-06
5.30242e-08
-5.01504e-07
2.2737e-05
2.09152e-05
-2.4913e-12
6.13684e-08
2.08886e-05
-3.20858e-11
1.30917e-07
2.08145e-05
-1.70328e-10
3.17688e-07
2.07031e-05
-3.87254e-12
4.42507e-07
2.06395e-05
-1.74374e-10
3.17958e-08
2.06733e-05
-1.85119e-10
1.26856e-08
2.07805e-05
-8.4387e-11
-2.23602e-07
2.10597e-05
-3.6677e-10
-7.69676e-07
2.14136e-05
-1.84964e-10
-5.7615e-07
2.18787e-05
-2.647e-10
-1.01344e-06
2.23947e-05
-4.45694e-10
-1.0472e-06
-1.72101e-10
-4.61749e-07
2.27123e-05
2.09152e-05
6.2151e-09
6.13566e-08
2.08886e-05
-1.19373e-10
1.30913e-07
2.08145e-05
-3.07721e-08
3.17662e-07
2.07031e-05
-1.69189e-08
4.42508e-07
2.06395e-05
-7.42258e-09
3.17769e-08
2.06733e-05
4.39123e-09
1.26046e-08
2.07805e-05
-3.3393e-09
-2.23633e-07
2.10596e-05
-1.78541e-08
-7.69758e-07
2.14135e-05
-2.181e-08
-5.76256e-07
2.18786e-05
-6.22236e-08
-1.01347e-06
2.23946e-05
-6.87449e-08
-1.04736e-06
-5.33356e-08
-4.61855e-07
2.27123e-05
2.09148e-05
1.08037e-08
6.33527e-08
2.08877e-05
8.83047e-10
1.33544e-07
2.08134e-05
-5.15518e-08
2.94958e-07
2.07135e-05
-3.47692e-08
4.17574e-07
2.06496e-05
-9.95885e-09
2.93141e-08
2.06788e-05
1.49325e-08
9.65015e-09
2.07944e-05
-1.1945e-08
-2.27363e-07
2.10672e-05
-2.67595e-08
-7.72071e-07
2.14266e-05
-4.23454e-08
-5.88178e-07
2.1901e-05
-1.21896e-07
-1.03211e-06
2.24124e-05
-1.19368e-07
-1.08191e-06
-9.75613e-08
-5.01805e-07
2.27368e-05
2.09179e-05
9.56502e-09
6.30997e-08
2.08911e-05
4.78952e-09
1.38678e-07
2.08062e-05
-4.64452e-08
2.5921e-07
2.07269e-05
-5.66319e-08
3.71529e-07
2.06663e-05
-6.18309e-09
2.37365e-08
2.06875e-05
4.02777e-08
2.41186e-09
2.08241e-05
-2.86483e-08
-2.44999e-07
2.10837e-05
-1.15301e-08
-7.83041e-07
2.14566e-05
-5.52296e-08
-6.22727e-07
2.195e-05
-1.66638e-07
-1.0925e-06
2.24431e-05
-1.19935e-07
-1.15875e-06
-1.1751e-07
-5.87783e-07
2.27787e-05
2.09237e-05
1.4674e-09
4.92376e-08
2.09089e-05
-1.90244e-09
1.47674e-07
2.08041e-05
-9.66286e-09
2.19641e-07
2.07483e-05
-8.23513e-08
2.98859e-07
2.0685e-05
1.21085e-08
1.37552e-08
2.06876e-05
8.7075e-08
-1.03148e-08
2.08532e-05
-5.79831e-08
-2.85208e-07
2.10836e-05
4.21931e-08
-7.9106e-07
2.14708e-05
-5.56714e-08
-6.76982e-07
2.20006e-05
-1.91047e-07
-1.19931e-06
2.24834e-05
-6.47501e-08
-1.26384e-06
-1.29349e-07
-7.10924e-07
2.28656e-05
2.09299e-05
-9.62746e-09
1.67122e-08
2.08935e-05
-1.60996e-08
2.10212e-07
2.07978e-05
2.76244e-08
2.23397e-07
2.07392e-05
-8.7075e-08
2.29549e-07
2.06804e-05
2.53855e-08
6.84844e-09
2.0693e-05
9.95355e-08
5.07789e-08
2.08511e-05
-8.20405e-08
-2.90646e-07
2.11005e-05
8.11664e-08
-7.54254e-07
2.14929e-05
-4.87762e-08
-6.47971e-07
2.20505e-05
-1.7083e-07
-1.31809e-06
2.25983e-05
-2.82647e-08
-1.31803e-06
-1.35297e-07
-7.3451e-07
2.30024e-05
2.09049e-05
5.65821e-09
2.08695e-05
1.88854e-07
2.08034e-05
2.98076e-07
2.0622e-05
3.11984e-07
2.06003e-05
1.87977e-08
2.06368e-05
2.38758e-07
2.07459e-05
-3.31353e-07
2.11981e-05
-7.77967e-07
2.15614e-05
-5.17492e-07
2.22071e-05
-1.67114e-06
2.29033e-05
-1.50376e-06
-6.82075e-07
2.31969e-05
2.06366e-05
6.40429e-08
1.37318e-07
2.05533e-05
6.61924e-08
2.05825e-07
2.04326e-05
5.29444e-08
3.65781e-07
2.02099e-05
1.05364e-07
4.28981e-07
2.00356e-05
-6.44222e-08
2.57427e-07
2.00703e-05
-7.87493e-08
2.83014e-07
2.00742e-05
5.63406e-08
-3.92172e-07
2.03819e-05
-1.19338e-07
-9.65929e-07
2.06733e-05
1.12238e-07
-9.21249e-07
2.09948e-05
2.31808e-07
-2.22544e-06
2.15271e-05
6.43218e-09
-2.04173e-06
1.44075e-07
-1.13907e-06
2.184e-05
2.05812e-05
4.07411e-08
2.91109e-07
2.04282e-05
6.54912e-08
3.63861e-07
2.01644e-05
9.67312e-08
4.43443e-07
1.99406e-05
1.05843e-07
4.52883e-07
1.96454e-05
-1.51872e-08
2.52935e-07
1.94786e-05
-2.82411e-08
1.67314e-07
1.94288e-05
6.27041e-08
-2.47204e-07
1.94219e-05
-2.88556e-08
-8.37545e-07
1.96864e-05
1.51319e-07
-9.51189e-07
2.00696e-05
2.44301e-07
-1.71395e-06
2.0514e-05
7.06054e-08
-1.82584e-06
1.64117e-07
-1.25658e-06
2.10165e-05
2.05547e-05
1.955e-08
3.48017e-07
2.03885e-05
5.10958e-08
3.282e-07
2.01202e-05
1.03861e-07
4.80949e-07
1.99177e-05
9.435e-08
5.12868e-07
1.96215e-05
3.3399e-08
2.61407e-07
1.94375e-05
1.77843e-08
1.28035e-07
1.9376e-05
5.85642e-08
-2.19501e-07
1.93263e-05
4.26427e-08
-8.12469e-07
1.95688e-05
1.47017e-07
-9.14694e-07
1.99377e-05
2.20659e-07
-1.54447e-06
2.03337e-05
1.36095e-07
-1.72454e-06
1.5149e-07
-1.1964e-06
2.08323e-05
2.05374e-05
5.97456e-09
3.71526e-07
2.03421e-05
3.61145e-08
3.48892e-07
2.00722e-05
7.88551e-08
5.54317e-07
1.98665e-05
6.24957e-08
6.0909e-07
1.958e-05
3.19484e-08
3.11786e-07
1.9407e-05
1.58717e-08
1.776e-07
1.93374e-05
3.29314e-08
-1.49675e-07
1.93086e-05
4.75627e-08
-7.5885e-07
1.95443e-05
1.08123e-07
-8.19106e-07
1.98977e-05
1.67537e-07
-1.39271e-06
2.03103e-05
1.33243e-07
-1.56773e-06
1.18871e-07
-1.02105e-06
2.07766e-05
2.05302e-05
1.48315e-09
3.69898e-07
2.03251e-05
1.76165e-08
3.57143e-07
2.00559e-05
4.03417e-08
6.02733e-07
1.98385e-05
3.19124e-08
6.6554e-07
1.95428e-05
1.89914e-08
3.38041e-07
1.93588e-05
7.90197e-09
2.01862e-07
1.92741e-05
1.35431e-08
-1.23248e-07
1.92585e-05
2.72663e-08
-7.35954e-07
1.94958e-05
5.46174e-08
-7.71585e-07
1.98566e-05
8.77114e-08
-1.31303e-06
2.0297e-05
7.73845e-08
-1.46602e-06
6.45888e-08
-9.04531e-07
2.07543e-05
2.05276e-05
-4.97103e-12
3.6749e-07
2.03169e-05
-5.5312e-11
3.59288e-07
2.00466e-05
-1.02055e-10
6.28354e-07
1.98255e-05
-2.62733e-11
6.95601e-07
1.95262e-05
-1.65667e-10
3.5028e-07
1.9336e-05
-1.4617e-10
2.10842e-07
1.92431e-05
-1.50013e-10
-1.16941e-07
1.92319e-05
-3.03712e-10
-7.30933e-07
1.94679e-05
-1.64748e-10
-7.57354e-07
1.98298e-05
-2.8294e-10
-1.28733e-06
2.02818e-05
-3.75635e-10
-1.42152e-06
-2.09564e-10
-8.50735e-07
2.07356e-05
2.05276e-05
-1.49277e-09
3.67475e-07
2.03169e-05
-1.77137e-08
3.59273e-07
2.00466e-05
-4.05353e-08
6.28334e-07
1.98255e-05
-3.19639e-08
6.95594e-07
1.95261e-05
-1.92995e-08
3.50257e-07
1.9336e-05
-8.1622e-09
2.10758e-07
1.9243e-05
-1.38055e-08
-1.1699e-07
1.92318e-05
-2.78244e-08
-7.31023e-07
1.94677e-05
-5.49025e-08
-7.5748e-07
1.98296e-05
-8.82281e-08
-1.2874e-06
2.02817e-05
-7.80848e-08
-1.42171e-06
-6.49672e-08
-8.50911e-07
2.07355e-05
2.05302e-05
-5.98335e-09
3.69856e-07
2.03251e-05
-3.61774e-08
3.57103e-07
2.00559e-05
-7.90181e-08
6.02669e-07
1.98385e-05
-6.2533e-08
6.65513e-07
1.95427e-05
-3.21912e-08
3.37983e-07
1.93586e-05
-1.60396e-08
2.01637e-07
1.92739e-05
-3.30916e-08
-1.23383e-07
1.92582e-05
-4.7984e-08
-7.36211e-07
1.94954e-05
-1.08273e-07
-7.71959e-07
1.98562e-05
-1.6791e-07
-1.31324e-06
2.02965e-05
-1.33791e-07
-1.46658e-06
-1.19134e-07
-9.05037e-07
2.07539e-05
2.05374e-05
-1.95546e-08
3.71462e-07
2.03422e-05
-5.11202e-08
3.48847e-07
2.00721e-05
-1.03966e-07
5.54225e-07
1.98664e-05
-9.43521e-08
6.09035e-07
1.95798e-05
-3.35561e-08
3.11702e-07
1.94067e-05
-1.78124e-08
1.77299e-07
1.9337e-05
-5.85841e-08
-1.49845e-07
1.93081e-05
-4.2872e-08
-7.59202e-07
1.95437e-05
-1.46939e-07
-8.19631e-07
1.98971e-05
-2.2082e-07
-1.39301e-06
2.03095e-05
-1.36409e-07
-1.56859e-06
-1.51572e-07
-1.02183e-06
2.0776e-05
2.05547e-05
-4.07357e-08
3.47944e-07
2.03885e-05
-6.54817e-08
3.28152e-07
2.01201e-05
-9.67742e-08
4.80853e-07
1.99176e-05
-1.05786e-07
5.12798e-07
1.96214e-05
1.51047e-08
2.61306e-07
1.94372e-05
2.83575e-08
1.27705e-07
1.93757e-05
-6.25802e-08
-2.19662e-07
1.93258e-05
2.88093e-08
-8.12841e-07
1.95681e-05
-1.50949e-07
-9.15238e-07
1.99369e-05
-2.44238e-07
-1.54474e-06
2.03328e-05
-7.06607e-08
-1.72554e-06
-1.63987e-07
-1.19732e-06
2.08317e-05
2.05812e-05
-6.4031e-08
2.9101e-07
2.04283e-05
-6.61772e-08
3.6383e-07
2.01644e-05
-5.29274e-08
4.43403e-07
1.99406e-05
-1.05271e-07
4.52872e-07
1.96453e-05
6.43643e-08
2.52868e-07
1.94784e-05
7.897e-08
1.67069e-07
1.94285e-05
-5.6178e-08
-2.47177e-07
1.94215e-05
1.19344e-07
-8.37789e-07
1.96858e-05
-1.11727e-07
-9.51479e-07
2.0069e-05
-2.31666e-07
-1.71388e-06
2.05134e-05
-6.33964e-09
-1.82674e-06
-1.43844e-07
-1.25731e-06
2.10161e-05
2.06366e-05
1.37208e-07
2.05533e-05
2.05947e-07
2.04325e-05
3.65943e-07
2.021e-05
4.29268e-07
2.00355e-05
2.57615e-07
2.00702e-05
2.83061e-07
2.00742e-05
-3.91525e-07
2.03816e-05
-9.66056e-07
2.06733e-05
-9.2093e-07
2.09949e-05
-2.22434e-06
2.15272e-05
-2.04245e-06
-1.13921e-06
2.18405e-05
2.06139e-05
-3.39222e-08
3.89557e-07
2.0264e-05
-1.58048e-08
5.71497e-07
1.99197e-05
3.42944e-08
6.75757e-07
1.94147e-05
3.81742e-08
8.9588e-07
1.89387e-05
-7.73877e-08
8.10804e-07
1.85246e-05
1.61613e-08
6.8097e-07
1.80222e-05
1.16346e-07
-6.1521e-09
1.77344e-05
4.13858e-08
-7.19563e-07
1.7461e-05
3.38258e-07
-9.86074e-07
1.74996e-05
2.90939e-07
-2.55495e-06
1.80762e-05
5.15035e-08
-2.66988e-06
2.43191e-07
-1.91137e-06
1.86053e-05
2.01563e-05
-1.21833e-08
9.45264e-07
1.92565e-05
3.98437e-08
1.20802e-06
1.83844e-05
1.44125e-07
1.2057e-06
1.75801e-05
1.34819e-07
1.16054e-06
1.68679e-05
6.23081e-08
8.25441e-07
1.64203e-05
1.09929e-07
5.21131e-07
1.61762e-05
1.7252e-07
-5.93092e-08
1.61062e-05
1.37053e-07
-8.63186e-07
1.64192e-05
3.27841e-07
-1.2538e-06
1.6927e-05
3.00836e-07
-2.2316e-06
1.76109e-05
1.37594e-07
-2.59584e-06
2.48165e-07
-2.10258e-06
1.84519e-05
2.01411e-05
-9.52262e-09
1.03646e-06
1.91945e-05
5.11634e-08
1.26351e-06
1.83275e-05
1.55815e-07
1.33626e-06
1.75415e-05
1.54058e-07
1.27962e-06
1.68106e-05
1.10866e-07
9.43665e-07
1.6345e-05
1.20352e-07
5.83216e-07
1.6121e-05
1.48448e-07
2.86559e-08
1.60627e-05
1.57389e-07
-7.74505e-07
1.64071e-05
2.59907e-07
-1.19126e-06
1.69486e-05
2.53386e-07
-2.03848e-06
1.76158e-05
1.65322e-07
-2.41945e-06
1.88468e-07
-1.9655e-06
1.84446e-05
2.01416e-05
-1.0364e-08
1.06296e-06
1.91809e-05
4.58256e-08
1.31496e-06
1.83143e-05
1.10285e-07
1.46638e-06
1.75344e-05
1.06366e-07
1.43675e-06
1.68084e-05
8.17922e-08
1.06679e-06
1.63486e-05
7.7272e-08
6.80532e-07
1.61341e-05
9.6649e-08
1.16657e-07
1.61042e-05
1.23154e-07
-6.94779e-07
1.64506e-05
1.8268e-07
-1.0883e-06
1.69924e-05
1.90979e-07
-1.87205e-06
1.76646e-05
1.42171e-07
-2.21684e-06
1.30505e-07
-1.74738e-06
1.84489e-05
2.01469e-05
-6.31084e-09
1.05116e-06
1.91952e-05
2.40618e-08
1.33059e-06
1.83233e-05
5.66368e-08
1.52828e-06
1.75227e-05
5.41446e-08
1.51832e-06
1.67756e-05
4.08799e-08
1.12608e-06
1.63028e-05
3.45295e-08
7.17418e-07
1.60895e-05
4.49987e-08
1.41725e-07
1.60822e-05
6.43448e-08
-6.69912e-07
1.64417e-05
9.28768e-08
-1.04124e-06
1.70011e-05
1.01766e-07
-1.78316e-06
1.76866e-05
8.02127e-08
-2.08959e-06
6.77472e-08
-1.60305e-06
1.84479e-05
2.01474e-05
-3.03013e-11
1.04599e-06
1.91986e-05
-8.42549e-11
1.33229e-06
1.8328e-05
-8.08762e-11
1.55564e-06
1.75207e-05
-7.18229e-11
1.55707e-06
1.67605e-05
-1.67286e-10
1.15159e-06
1.62758e-05
-1.45556e-10
7.30179e-07
1.60587e-05
-1.8685e-10
1.45308e-07
1.60595e-05
-2.40746e-10
-6.67154e-07
1.64242e-05
-1.53809e-10
-1.029e-06
1.69918e-05
-2.8542e-10
-1.75282e-06
1.76843e-05
-3.28127e-10
-2.03349e-06
-2.63326e-10
-1.53508e-06
1.84366e-05
2.01474e-05
6.25829e-09
1.04597e-06
1.91985e-05
-2.42127e-08
1.33226e-06
1.8328e-05
-5.67891e-08
1.55561e-06
1.75207e-05
-5.42768e-08
1.55706e-06
1.67604e-05
-4.11806e-08
1.15157e-06
1.62757e-05
-3.47784e-08
7.30104e-07
1.60586e-05
-4.53233e-08
1.45238e-07
1.60594e-05
-6.47686e-08
-6.67265e-07
1.6424e-05
-9.31289e-08
-1.02915e-06
1.69916e-05
-1.02284e-07
-1.75294e-06
1.76841e-05
-8.08238e-08
-2.03372e-06
-6.82419e-08
-1.53531e-06
1.84364e-05
2.01469e-05
1.03277e-08
1.0511e-06
1.91952e-05
-4.59367e-08
1.33051e-06
1.83233e-05
-1.10406e-07
1.52821e-06
1.75227e-05
-1.06452e-07
1.51829e-06
1.67754e-05
-8.19948e-08
1.12602e-06
1.63025e-05
-7.73972e-08
7.17206e-07
1.60891e-05
-9.68311e-08
1.41524e-07
1.60818e-05
-1.23409e-07
-6.70234e-07
1.64411e-05
-1.82765e-07
-1.04169e-06
1.70005e-05
-1.91349e-07
-1.78351e-06
1.7686e-05
-1.42652e-07
-2.09026e-06
-1.30916e-07
-1.60374e-06
1.84474e-05
2.01416e-05
9.50261e-09
1.06287e-06
1.91809e-05
-5.12183e-08
1.31485e-06
1.83143e-05
-1.55873e-07
1.46627e-06
1.75343e-05
-1.54069e-07
1.43669e-06
1.68082e-05
-1.10937e-07
1.0667e-06
1.63482e-05
-1.20295e-07
6.80243e-07
1.61335e-05
-1.48426e-07
1.16393e-07
1.61035e-05
-1.57392e-07
-6.95221e-07
1.64498e-05
-2.5972e-07
-1.08894e-06
1.69915e-05
-2.53548e-07
-1.87254e-06
1.76637e-05
-1.65612e-07
-2.21784e-06
-1.88746e-07
-1.74843e-06
1.84482e-05
2.01411e-05
1.21847e-08
1.03635e-06
1.91945e-05
-3.98327e-08
1.26338e-06
1.83274e-05
-1.44101e-07
1.33612e-06
1.75414e-05
-1.34726e-07
1.27953e-06
1.68104e-05
-6.22465e-08
9.43564e-07
1.63446e-05
-1.09667e-07
5.82902e-07
1.61204e-05
-1.72302e-07
2.84154e-08
1.60619e-05
-1.368e-07
-7.74944e-07
1.64062e-05
-3.27312e-07
-1.19191e-06
1.69476e-05
-3.00795e-07
-2.03894e-06
1.76148e-05
-1.37677e-07
-2.42061e-06
-2.48283e-07
-1.96677e-06
1.84437e-05
2.01563e-05
3.39269e-08
9.4512e-07
1.92566e-05
1.58583e-08
1.20791e-06
1.83844e-05
-3.4205e-08
1.20564e-06
1.75801e-05
-3.80415e-08
1.16055e-06
1.68677e-05
7.74933e-08
8.25453e-07
1.642e-05
-1.58082e-08
5.20978e-07
1.61759e-05
-1.16109e-07
-5.9255e-08
1.61057e-05
-4.10557e-08
-8.63342e-07
1.64185e-05
-3.3756e-07
-1.2541e-06
1.69263e-05
-2.90848e-07
-2.2316e-06
1.76102e-05
-5.14319e-08
-2.59683e-06
-2.43128e-07
-2.10369e-06
1.84514e-05
2.06139e-05
3.89451e-07
2.02641e-05
5.71588e-07
1.99199e-05
6.75943e-07
1.94149e-05
8.96198e-07
1.89388e-05
8.11181e-07
1.85248e-05
6.81257e-07
1.80225e-05
-5.31761e-09
1.77347e-05
-7.19315e-07
1.74617e-05
-9.85454e-07
1.75001e-05
-2.55356e-06
1.80767e-05
-2.6705e-06
-1.91175e-06
1.86061e-05
2.25161e-06
1.86506e-06
-3.72711e-06
3.94162e-06
1.01492e-06
-2.13344e-06
5.60192e-06
6.10735e-07
-1.59528e-06
6.9581e-06
3.39183e-07
-7.99485e-07
8.03489e-06
1.70671e-07
-4.36649e-07
8.79274e-06
1.92166e-07
-2.69047e-07
9.45131e-06
1.9184e-07
-8.56563e-07
1.01921e-05
1.63472e-07
-1.62381e-06
1.10955e-05
2.95373e-07
-2.18485e-06
1.23733e-05
1.82739e-07
-4.01551e-06
1.38188e-05
1.88879e-07
-4.30428e-06
3.53461e-07
-3.5308e-06
1.50848e-05
5.16709e-06
1.36245e-06
-3.71922e-06
7.31759e-06
9.92033e-07
-9.19582e-07
8.83761e-06
6.89369e-07
-3.92957e-07
9.79994e-06
4.47777e-07
8.96237e-08
1.03985e-05
2.81732e-07
1.15816e-07
1.08819e-05
2.61885e-07
-3.19861e-08
1.13645e-05
2.42629e-07
-5.92676e-07
1.19051e-05
2.1303e-07
-1.45335e-06
1.27483e-05
3.28108e-07
-2.12978e-06
1.37456e-05
2.70413e-07
-3.31656e-06
1.49079e-05
2.23247e-07
-3.7925e-06
2.8478e-07
-3.26544e-06
1.61394e-05
5.3357e-06
7.81106e-07
-3.7179e-06
7.60341e-06
7.1175e-07
-7.23914e-07
9.15614e-06
5.55653e-07
-8.27524e-08
1.01683e-05
3.86281e-07
3.28962e-07
1.07913e-05
2.67887e-07
3.34524e-07
1.12952e-05
2.27452e-07
1.13711e-07
1.17917e-05
2.1149e-07
-4.36637e-07
1.2314e-05
2.10274e-07
-1.29411e-06
1.31396e-05
2.66247e-07
-1.95498e-06
1.41055e-05
2.33858e-07
-2.96787e-06
1.5189e-05
1.93137e-07
-3.47275e-06
1.87247e-07
-3.01394e-06
1.63349e-05
5.2398e-06
4.26175e-07
-3.82191e-06
7.58543e-06
4.47167e-07
-7.66093e-07
9.20196e-06
3.63029e-07
4.24739e-08
1.02686e-05
2.57335e-07
4.99096e-07
1.09297e-05
1.83458e-07
4.90042e-07
1.14498e-05
1.51486e-07
2.36441e-07
1.19578e-05
1.49202e-07
-3.29037e-07
1.24939e-05
1.63504e-07
-1.18411e-06
1.33052e-05
1.9338e-07
-1.82677e-06
1.42557e-05
1.76809e-07
-2.76549e-06
1.53091e-05
1.4262e-07
-3.21973e-06
1.17845e-07
-2.75683e-06
1.6388e-05
5.1656e-06
1.84988e-07
-3.87325e-06
7.55765e-06
2.10037e-07
-8.24333e-07
9.2056e-06
1.74361e-07
6.89989e-08
1.02912e-05
1.246e-07
5.65401e-07
1.09638e-05
8.94429e-08
5.47523e-07
1.14818e-05
7.28696e-08
2.78016e-07
1.1992e-05
7.55247e-08
-2.94748e-07
1.25413e-05
8.76905e-08
-1.14346e-06
1.33577e-05
1.01491e-07
-1.76575e-06
1.43141e-05
9.50627e-08
-2.65779e-06
1.53564e-05
7.62003e-08
-3.06545e-06
5.9041e-08
-2.58722e-06
1.63994e-05
5.12803e-06
-1.67915e-10
-3.89688e-06
7.53451e-06
-1.40504e-10
-8.64019e-07
9.1928e-06
-1.14373e-10
7.18262e-08
1.02861e-05
-1.31783e-10
5.88548e-07
1.09618e-05
-1.69328e-10
5.65454e-07
1.1477e-05
-1.38363e-10
2.88014e-07
1.19884e-05
-1.58963e-10
-2.90397e-07
1.25449e-05
-1.55159e-10
-1.13585e-06
1.33657e-05
-1.30717e-10
-1.74812e-06
1.43264e-05
-2.69477e-10
-2.61824e-06
1.53652e-05
-3.18557e-10
-2.99574e-06
-3.48008e-10
-2.50415e-06
1.63936e-05
5.12798e-06
-1.8529e-07
-3.89689e-06
7.53447e-06
-2.10292e-07
-8.64078e-07
9.19275e-06
-1.74562e-07
7.17749e-08
1.0286e-05
-1.24823e-07
5.88508e-07
1.09617e-05
-8.97293e-08
5.65403e-07
1.14769e-05
-7.30881e-08
2.87918e-07
1.19882e-05
-7.57829e-08
-2.90497e-07
1.25447e-05
-8.79418e-08
-1.13598e-06
1.33654e-05
-1.01703e-07
-1.74829e-06
1.43262e-05
-9.55642e-08
-2.6184e-06
1.5365e-05
-7.68134e-08
-2.99599e-06
-5.97272e-08
-2.50442e-06
1.63934e-05
5.16551e-06
-4.26408e-07
-3.87329e-06
7.55756e-06
-4.47352e-07
-8.24483e-07
9.20549e-06
-3.63149e-07
6.88655e-08
1.02911e-05
-2.57436e-07
5.65288e-07
1.09636e-05
-1.83582e-07
5.47381e-07
1.14815e-05
-1.51528e-07
2.77743e-07
1.19916e-05
-1.49283e-07
-2.95033e-07
1.25408e-05
-1.63585e-07
-1.14385e-06
1.33571e-05
-1.93451e-07
-1.76626e-06
1.43135e-05
-1.77213e-07
-2.65823e-06
1.53558e-05
-1.43171e-07
-3.06617e-06
-1.18517e-07
-2.588e-06
1.63988e-05
5.23967e-06
-7.81246e-07
-3.82196e-06
7.58531e-06
-7.11826e-07
-7.66312e-07
9.2018e-06
-5.55647e-07
4.22709e-08
1.02683e-05
-3.86211e-07
4.98915e-07
1.09294e-05
-2.67789e-07
4.89834e-07
1.14493e-05
-2.2723e-07
2.36054e-07
1.19572e-05
-2.11313e-07
-3.29424e-07
1.24931e-05
-2.10098e-07
-1.18463e-06
1.33043e-05
-2.66106e-07
-1.82746e-06
1.42548e-05
-2.34144e-07
-2.7661e-06
1.53081e-05
-1.93602e-07
-3.22081e-06
-1.87894e-07
-2.75804e-06
1.63871e-05
5.33551e-06
-1.36244e-06
-3.71797e-06
7.60321e-06
-9.91958e-07
-7.24195e-07
9.15594e-06
-6.89184e-07
-8.30601e-08
1.01681e-05
-4.4753e-07
3.28729e-07
1.0791e-05
-2.81425e-07
3.34293e-07
1.12947e-05
-2.61393e-07
1.13298e-07
1.1791e-05
-2.42209e-07
-4.36989e-07
1.23132e-05
-2.12598e-07
-1.2946e-06
1.31385e-05
-3.2773e-07
-1.95564e-06
1.41045e-05
-2.70611e-07
-2.96841e-06
1.51878e-05
-2.23617e-07
-3.47397e-06
-2.85393e-07
-3.01542e-06
1.6334e-05
5.16691e-06
-1.86489e-06
-3.71934e-06
7.31747e-06
-1.01474e-06
-9.19869e-07
8.83754e-06
-6.1046e-07
-3.93157e-07
9.79987e-06
-3.38865e-07
8.95573e-08
1.03984e-05
-1.70283e-07
1.15766e-07
1.08817e-05
-1.91575e-07
-3.21574e-08
1.13642e-05
-1.91359e-07
-5.92611e-07
1.19046e-05
-1.62956e-07
-1.45339e-06
1.27476e-05
-2.94948e-07
-2.12988e-06
1.37448e-05
-1.82917e-07
-3.31651e-06
1.4907e-05
-1.89064e-07
-3.79356e-06
-3.53919e-07
-3.26687e-06
1.61387e-05
2.25178e-06
-3.72722e-06
3.94195e-06
-2.13332e-06
5.60242e-06
-1.59498e-06
6.9587e-06
-7.98946e-07
8.03561e-06
-4.36011e-07
8.7937e-06
-2.68413e-07
9.4523e-06
-8.55272e-07
1.0193e-05
-1.62294e-06
1.10961e-05
-2.18356e-06
1.23734e-05
-4.0138e-06
1.38189e-05
-4.30503e-06
-3.53184e-06
1.50851e-05
-9.10956e-07
5.3652e-07
-3.35267e-06
-1.81289e-07
7.06978e-07
-3.57008e-06
8.77743e-07
4.03066e-07
-3.05738e-06
2.12301e-06
2.08986e-07
-2.25374e-06
3.41333e-06
1.1522e-07
-1.84218e-06
4.67307e-06
1.26749e-07
-1.65554e-06
5.93881e-06
1.06916e-07
-2.22921e-06
7.24005e-06
1.11197e-07
-3.03625e-06
8.73112e-06
2.80552e-07
-3.95647e-06
1.03199e-05
3.07409e-07
-5.91168e-06
1.19728e-05
3.38897e-07
-6.29606e-06
2.37691e-07
-5.30209e-06
1.35064e-05
6.21247e-08
7.03626e-07
-3.94845e-06
1.83141e-06
8.40591e-07
-2.82248e-06
3.36431e-06
5.51897e-07
-2.07468e-06
4.68342e-06
3.60833e-07
-1.38134e-06
5.80151e-06
2.29015e-07
-1.11606e-06
6.83694e-06
2.07421e-07
-1.1481e-06
7.84554e-06
1.83805e-07
-1.67817e-06
8.87122e-06
1.88162e-07
-2.55599e-06
1.01383e-05
3.02317e-07
-3.41861e-06
1.1514e-05
2.93966e-07
-4.67879e-06
1.30094e-05
2.72246e-07
-5.22129e-06
1.71876e-07
-4.5838e-06
1.43936e-05
5.02006e-07
5.50654e-07
-4.06694e-06
2.41103e-06
6.74844e-07
-2.46719e-06
3.98165e-06
4.9344e-07
-1.59492e-06
5.31414e-06
3.43377e-07
-9.86069e-07
6.42621e-06
2.35813e-07
-7.84346e-07
7.44286e-06
2.01465e-07
-8.96985e-07
8.42341e-06
1.8549e-07
-1.41887e-06
9.41284e-06
1.91074e-07
-2.28646e-06
1.06319e-05
2.40002e-07
-3.11174e-06
1.19494e-05
2.27357e-07
-4.21872e-06
1.33348e-05
1.9916e-07
-4.78513e-06
1.11579e-07
-4.22861e-06
1.46098e-05
5.82124e-07
3.58431e-07
-4.21181e-06
2.52423e-06
4.46636e-07
-2.47999e-06
4.14618e-06
3.49439e-07
-1.43547e-06
5.521e-06
2.49247e-07
-7.81594e-07
6.66245e-06
1.79603e-07
-5.95198e-07
7.69023e-06
1.53099e-07
-7.42974e-07
8.67484e-06
1.47126e-07
-1.27528e-06
9.66479e-06
1.53215e-07
-2.1362e-06
1.08544e-05
1.70903e-07
-2.94725e-06
1.21367e-05
1.57956e-07
-3.97839e-06
1.34658e-05
1.32122e-07
-4.4818e-06
7.09599e-08
-3.92595e-06
1.46755e-05
5.94664e-07
1.71222e-07
-4.28071e-06
2.53686e-06
2.16421e-07
-2.53631e-06
4.18203e-06
1.74297e-07
-1.40103e-06
5.58061e-06
1.26789e-07
-7.1072e-07
6.74022e-06
9.39299e-08
-5.26412e-07
7.77475e-06
8.0894e-08
-6.84314e-07
8.76567e-06
8.03331e-08
-1.21888e-06
9.7622e-06
8.44737e-08
-2.07125e-06
1.09445e-05
8.96693e-08
-2.86679e-06
1.22154e-05
8.20794e-08
-3.8528e-06
1.35153e-05
6.7298e-08
-4.3006e-06
3.6726e-08
-3.72797e-06
1.46903e-05
5.88199e-07
-1.7491e-10
-4.31368e-06
2.52174e-06
-1.49414e-10
-2.58099e-06
4.17379e-06
-1.24151e-10
-1.4058e-06
5.58416e-06
-1.17247e-10
-6.94914e-07
6.75329e-06
-1.02132e-10
-5.09648e-07
7.79263e-06
-6.34648e-11
-6.70373e-07
8.78883e-06
-6.83873e-11
-1.20619e-06
9.79063e-06
-7.31793e-11
-2.0531e-06
1.09719e-05
-1.1983e-10
-2.83959e-06
1.22391e-05
-2.76693e-10
-3.80309e-06
1.35269e-05
-3.68001e-10
-4.21589e-06
-4.62413e-10
-3.62766e-06
1.46876e-05
5.88169e-07
-1.71539e-07
-4.31369e-06
2.52169e-06
-2.16683e-07
-2.58107e-06
4.17373e-06
-1.74501e-07
-1.40588e-06
5.58408e-06
-1.26971e-07
-6.94994e-07
6.7532e-06
-9.40757e-08
-5.09737e-07
7.79251e-06
-8.09646e-08
-6.70494e-07
8.78868e-06
-8.04187e-08
-1.20631e-06
9.79045e-06
-8.45775e-08
-2.05325e-06
1.09717e-05
-8.98799e-08
-2.83976e-06
1.22389e-05
-8.26202e-08
-3.80326e-06
1.35267e-05
-6.80351e-08
-4.21613e-06
-3.76628e-08
-3.62794e-06
1.46874e-05
5.94592e-07
-3.5866e-07
-4.28076e-06
2.53674e-06
-4.46794e-07
-2.53652e-06
4.18189e-06
-3.49511e-07
-1.40127e-06
5.58042e-06
-2.49271e-07
-7.10944e-07
6.73996e-06
-1.79575e-07
-5.26662e-07
7.7744e-06
-1.53001e-07
-6.84654e-07
8.76524e-06
-1.47066e-07
-1.21922e-06
9.76168e-06
-1.53201e-07