/*--------------------------------*- C++ -*----------------------------------*\
| =========                 |                                                 |
| \\      /  F ield         | OpenFOAM: The Open Source CFD Toolbox           |
|  \\    /   O peration     | Version:  2.3.1                                 |
|   \\  /    A nd           | Web:      www.OpenFOAM.org                      |
|    \\/     M anipulation  |                                                 |
\*---------------------------------------------------------------------------*/
FoamFile
{
    version     2.0;
    format      ascii;
    class       volVectorField;
    location    "15";
    object      U;
}
// * * * * * * * * * * * * * * * * * * * * * * * * * * * * * * * * * * * * * //

dimensions      [0 1 -1 0 0 0 0];

internalField   nonuniform List<vector> 
37758
(
(0.0826874 0.000108073 -0.000534671)
(0.0807893 0.000156213 -0.000962299)
(0.0812201 -0.000210042 -0.00116935)
(0.0800228 0.000335712 -0.00113136)
(0.0782504 -0.000126693 -0.00135148)
(0.0807579 -0.000340301 -0.000954471)
(0.0780761 0.00021375 -0.00118937)
(0.0806602 -0.000396635 -0.00138529)
(0.0829757 0.000205333 -0.000817875)
(0.0808002 0.000305272 -0.00171591)
(0.0882731 4.37137e-05 -0.00147834)
(0.0880199 0.000404081 -0.000647522)
(0.0822935 8.87527e-05 -0.000550299)
(0.0815029 0.000170967 -0.000943555)
(0.0812881 -0.000185415 -0.000991362)
(0.0801061 0.000412441 -0.000845869)
(0.0795026 -0.000133469 -0.000976364)
(0.0804268 -0.000640344 -0.000537274)
(0.0790251 0.000178533 -0.00070345)
(0.0810609 -0.000452981 -0.00099161)
(0.0830215 9.54087e-05 -0.000437813)
(0.082748 0.000447021 -0.00110429)
(0.0880109 -4.97137e-05 -0.00101338)
(0.0891689 0.000396953 -0.000418832)
(0.0822184 -1.30001e-05 -0.000572397)
(0.0813942 6.82584e-05 -0.00113645)
(0.0814461 0.000182991 -0.00110673)
(0.0800354 0.000331949 -0.00085065)
(0.079525 5.80283e-05 -0.00106615)
(0.0802865 -0.000329336 -0.00063346)
(0.0788933 9.3014e-05 -0.000709375)
(0.080993 2.0438e-09 -0.00106714)
(0.0829585 0.000117483 -0.000466416)
(0.082968 0.000533391 -0.00102419)
(0.087849 0.000332489 -0.000990751)
(0.0890581 0.000322117 -0.000402247)
(0.0822906 -4.88639e-05 -0.000608075)
(0.0811187 2.79372e-05 -0.00126266)
(0.081553 0.000329066 -0.001148)
(0.0799722 0.000211494 -0.000860901)
(0.0791917 5.3621e-05 -0.00114412)
(0.080428 -0.000167079 -0.00064933)
(0.0786389 4.5127e-06 -0.000686221)
(0.0808928 0.000149149 -0.00105549)
(0.0831619 9.52744e-05 -0.000405335)
(0.0826856 0.00044217 -0.0009575)
(0.0879674 0.000461567 -0.000895336)
(0.0887454 0.000301683 -0.000306977)
(0.0823216 -4.66449e-05 -0.000631126)
(0.080996 2.15142e-05 -0.00133358)
(0.0816197 0.000224714 -0.00116603)
(0.0799598 0.000106639 -0.00087521)
(0.0789844 5.04585e-05 -0.00119778)
(0.0804742 -6.98986e-05 -0.00066815)
(0.0785369 -1.2016e-06 -0.000687209)
(0.0808452 0.000132746 -0.00105291)
(0.0832837 6.38398e-05 -0.000385758)
(0.0825483 0.000276801 -0.000930498)
(0.0879953 0.000323812 -0.000832793)
(0.0885764 0.000214014 -0.000243249)
(0.0823227 -1.80697e-05 -0.000644239)
(0.0809589 5.31825e-06 -0.00136502)
(0.0816698 9.74292e-05 -0.00117127)
(0.0799163 3.87194e-05 -0.000882971)
(0.0788793 1.92323e-05 -0.00122379)
(0.0804832 -1.49237e-05 -0.000674889)
(0.0784782 -6.93257e-06 -0.000689299)
(0.0808345 5.51773e-05 -0.0010504)
(0.0833211 2.42827e-05 -0.000377616)
(0.0825038 9.31543e-05 -0.000925402)
(0.0880182 0.000126895 -0.000802258)
(0.0884657 7.47778e-05 -0.000212629)
(0.0823227 1.81686e-05 -0.000644249)
(0.080959 -5.58516e-06 -0.00136503)
(0.0816696 -9.95868e-05 -0.00117132)
(0.0799164 -3.86972e-05 -0.000882949)
(0.0788791 -2.10895e-05 -0.00122381)
(0.0804831 1.29533e-05 -0.000674975)
(0.0784783 6.44583e-06 -0.000689262)
(0.0808341 -5.89126e-05 -0.0010505)
(0.0833212 -2.58846e-05 -0.000377701)
(0.0825039 -9.55175e-05 -0.000925369)
(0.0880178 -0.000131071 -0.000802424)
(0.0884662 -7.60322e-05 -0.000212654)
(0.0823216 4.67246e-05 -0.000631148)
(0.0809961 -2.16691e-05 -0.00133359)
(0.0816193 -0.000226665 -0.00116619)
(0.07996 -0.000106631 -0.000875151)
(0.0789839 -5.21051e-05 -0.00119784)
(0.0804738 6.81591e-05 -0.000668378)
(0.0785373 9.08975e-07 -0.000687102)
(0.0808441 -0.000136034 -0.00105317)
(0.0832841 -6.51866e-05 -0.00038601)
(0.0825485 -0.000278814 -0.000930405)
(0.0879942 -0.000327573 -0.000833234)
(0.0885778 -0.000215062 -0.000243309)
(0.0822906 4.8899e-05 -0.000608118)
(0.0811189 -2.79063e-05 -0.00126264)
(0.0815525 -0.000330605 -0.00114821)
(0.0799724 -0.000211447 -0.000860838)
(0.079191 -5.48456e-05 -0.00114419)
(0.0804275 0.000165818 -0.000649636)
(0.0786394 -4.40057e-06 -0.00068603)
(0.0808913 -0.000151576 -0.00105587)
(0.0831624 -9.6047e-05 -0.000405702)
(0.0826857 -0.000443424 -0.000957344)
(0.0879658 -0.000464432 -0.000896042)
(0.0887474 -0.000302328 -0.000307091)
(0.0822183 1.30737e-05 -0.000572461)
(0.0813944 -6.81604e-05 -0.0011364)
(0.0814457 -0.000184024 -0.00110689)
(0.0800356 -0.000331741 -0.000850587)
(0.0795242 -5.89725e-05 -0.00106624)
(0.0802859 0.000328658 -0.000633928)
(0.0788937 -9.26141e-05 -0.000709201)
(0.0809914 -1.62713e-06 -0.00106759)
(0.0829591 -0.000117517 -0.000466817)
(0.0829682 -0.000534037 -0.00102394)
(0.0878473 -0.000334139 -0.00099156)
(0.08906 -0.000322173 -0.000402409)
(0.0822933 -8.85466e-05 -0.000550421)
(0.0815033 -0.00017094 -0.000943508)
(0.0812877 0.000184844 -0.000991522)
(0.0801062 -0.000411875 -0.000845807)
(0.0795018 0.000132719 -0.000976455)
(0.0804261 0.000640527 -0.000537654)
(0.0790256 -0.000177761 -0.000703179)
(0.081059 0.000452153 -0.000992075)
(0.0830223 -9.44384e-05 -0.000438097)
(0.0827483 -0.000447195 -0.0011039)
(0.0880088 4.96419e-05 -0.0010142)
(0.0891714 -0.000396377 -0.000418909)
(0.0826869 -0.000107851 -0.000534867)
(0.0807909 -0.000156296 -0.000962129)
(0.0812188 0.00020985 -0.00116925)
(0.0800235 -0.000335271 -0.00113116)
(0.0782492 0.000126313 -0.0013514)
(0.0807563 0.000340834 -0.000954748)
(0.0780777 -0.000213241 -0.00118896)
(0.080657 0.000396509 -0.00138573)
(0.082978 -0.000204434 -0.000817921)
(0.0808007 -0.000305344 -0.00171508)
(0.0882694 -4.30252e-05 -0.00147897)
(0.0880246 -0.000403706 -0.000647419)
(0.0825003 4.92502e-05 0.0009522)
(0.0822685 7.33879e-05 0.00169952)
(0.0825929 -0.000154053 0.00202673)
(0.0822154 0.000338197 0.0020283)
(0.0806328 -8.17116e-05 0.00124705)
(0.0822869 -0.000312202 0.00163863)
(0.0811241 0.000346964 0.000626025)
(0.082302 -0.000318376 -0.000248026)
(0.0856067 0.000170038 0.000390475)
(0.0846576 0.000560006 -0.00170211)
(0.0900507 0.00013944 -0.0016523)
(0.0913128 0.000568503 -0.000379938)
(0.0823737 2.22411e-05 0.00103919)
(0.0826487 5.22388e-05 0.00163922)
(0.0825024 -5.85725e-05 0.00168211)
(0.0821993 0.000363778 0.0015204)
(0.0816096 -0.000108667 0.000813843)
(0.0819479 -0.000467959 0.000820483)
(0.0818442 0.000295494 6.29382e-05)
(0.0824943 -0.000316788 -0.000886935)
(0.0845658 0.000205344 -0.000566374)
(0.0851813 0.000791427 -0.00185512)
(0.0883956 9.44312e-05 -0.0019287)
(0.0904601 0.000522625 -0.000931169)
(0.0823702 -3.13228e-05 0.00119269)
(0.0826074 -3.51691e-05 0.00169577)
(0.0825902 0.000128271 0.00174159)
(0.0821961 0.000278215 0.00172882)
(0.0816937 1.32444e-05 0.000933847)
(0.0818791 -0.000228046 0.000773946)
(0.0818536 0.000159443 9.72994e-05)
(0.082536 -2.05624e-05 -0.000979422)
(0.084348 0.000227259 -0.000706715)
(0.0852397 0.000713356 -0.00174909)
(0.0879806 0.00040865 -0.00191625)
(0.0899229 0.000488674 -0.000962225)
(0.0824277 -4.65718e-05 0.00129605)
(0.0824844 -5.85511e-06 0.00178073)
(0.0826002 0.000237026 0.00189575)
(0.0822229 0.000175227 0.00194301)
(0.0814813 3.74135e-05 0.00100323)
(0.081945 -8.88903e-05 0.000824227)
(0.0817615 6.91218e-05 0.00016833)
(0.0824095 0.000107285 -0.000999385)
(0.0844586 0.000202562 -0.000659883)
(0.0850024 0.000594184 -0.00161726)
(0.0878542 0.000542226 -0.00177427)
(0.089708 0.000451242 -0.000782569)
(0.0824514 -3.65431e-05 0.00133394)
(0.0824283 -2.14944e-06 0.00181761)
(0.0826316 0.000166367 0.00199633)
(0.0822624 9.80721e-05 0.00207231)
(0.0813311 3.94429e-05 0.00103998)
(0.0819558 -3.27039e-05 0.000843754)
(0.0816678 2.18925e-05 0.000188372)
(0.0822743 9.68454e-05 -0.00100264)
(0.0844562 0.000126043 -0.000626644)
(0.0847599 0.000361879 -0.00153893)
(0.0877252 0.000389884 -0.00165844)
(0.0895893 0.000312562 -0.000644878)
(0.0824566 -1.34075e-05 0.00134826)
(0.0824178 1.64096e-06 0.0018358)
(0.0826568 7.12109e-05 0.00205431)
(0.0822552 3.59361e-05 0.00213707)
(0.0812486 1.75725e-05 0.00105754)
(0.0819558 -4.01681e-06 0.000855633)
(0.0816173 3.67922e-06 0.000193027)
(0.0822148 3.85265e-05 -0.00100605)
(0.0844539 4.25924e-05 -0.000614207)
(0.0846498 0.000122703 -0.00151635)
(0.0876663 0.000146178 -0.00160446)
(0.0895057 0.000109029 -0.000579099)
(0.0824565 1.33857e-05 0.00134825)
(0.0824179 -1.88122e-06 0.00183581)
(0.0826567 -7.25497e-05 0.00205425)
(0.0822552 -3.59674e-05 0.00213709)
(0.0812486 -1.89385e-05 0.00105753)
(0.0819556 2.55926e-06 0.000855466)
(0.0816173 -4.33626e-06 0.000192993)
(0.0822146 -4.14112e-05 -0.0010062)
(0.0844536 -4.40504e-05 -0.000614396)
(0.0846497 -0.000124778 -0.00151637)
(0.0876658 -0.000149702 -0.00160474)
(0.0895057 -0.000110389 -0.000579248)
(0.0824514 3.652e-05 0.00133392)
(0.0824285 1.99824e-06 0.00181764)
(0.0826314 -0.000167568 0.00199615)
(0.0822622 -9.81081e-05 0.00207235)
(0.081331 -4.06514e-05 0.00103995)
(0.0819552 3.146e-05 0.000843271)
(0.0816677 -2.23435e-05 0.000188265)
(0.0822737 -9.93541e-05 -0.00100308)
(0.0844553 -0.000127226 -0.000627217)
(0.0847597 -0.000363634 -0.001539)
(0.0877236 -0.000393013 -0.00165922)
(0.089589 -0.000313664 -0.000645285)
(0.0824276 4.6547e-05 0.00129601)
(0.0824847 5.84527e-06 0.00178078)
(0.0825999 -0.000237953 0.00189553)
(0.0822227 -0.000175197 0.00194304)
(0.0814813 -3.83012e-05 0.00100316)
(0.0819442 8.80113e-05 0.000823543)
(0.0817614 -6.91736e-05 0.000168232)
(0.0824086 -0.000109092 -0.001)
(0.0844574 -0.000203109 -0.000660693)
(0.085002 -0.000595226 -0.00161736)
(0.0878519 -0.000544532 -0.0017755)
(0.0897074 -0.000451823 -0.000783231)
(0.0823701 3.13211e-05 0.00119264)
(0.0826077 3.52374e-05 0.00169583)
(0.08259 -0.000128872 0.00174141)
(0.0821959 -0.000278032 0.00172887)
(0.0816937 -1.39199e-05 0.000933801)
(0.0818783 0.000227655 0.000773365)
(0.0818535 -0.000159136 9.72986e-05)
(0.0825351 1.93993e-05 -0.000980108)
(0.0843467 -0.000226995 -0.000707583)
(0.0852392 -0.000713704 -0.00174912)
(0.0879781 -0.000409864 -0.0019177)
(0.0899221 -0.000488492 -0.000963032)
(0.0823735 -2.21522e-05 0.00103912)
(0.0826491 -5.21029e-05 0.00163928)
(0.0825023 5.83045e-05 0.00168198)
(0.0821991 -0.000363254 0.00152056)
(0.0816097 0.00010821 0.000813779)
(0.0819469 0.000468305 0.000819884)
(0.0818443 -0.00029465 6.31247e-05)
(0.0824933 0.00031623 -0.000887677)
(0.0845648 -0.000203987 -0.000567028)
(0.0851813 -0.000791019 -0.00185482)
(0.0883931 -9.43941e-05 -0.00193017)
(0.0904602 -0.000521622 -0.000931806)
(0.0824998 -4.91204e-05 0.000952017)
(0.0822694 -7.33486e-05 0.00169969)
(0.0825922 0.000154028 0.00202673)
(0.0822156 -0.000337716 0.00202877)
(0.0806326 8.1422e-05 0.00124718)
(0.0822851 0.000312761 0.00163821)
(0.0811254 -0.000346348 0.00062702)
(0.0823 0.000318135 -0.000248789)
(0.0856069 -0.000168885 0.000390382)
(0.0846588 -0.000559738 -0.00170062)
(0.0900475 -0.000138865 -0.00165352)
(0.0913163 -0.000567851 -0.000379984)
(0.0822778 0.000254151 -0.000962052)
(0.0812096 0.000207735 -0.00105906)
(0.0809567 0.000116581 -0.000937568)
(0.0808252 0.000495366 -0.000853492)
(0.0786866 -0.000229518 -0.00118327)
(0.0798456 -0.000312938 -0.000706382)
(0.0790262 0.000265597 -0.00192845)
(0.0790468 -0.000570529 -0.00283804)
(0.0824941 0.000300965 -0.0024141)
(0.0807217 0.000822079 -0.00484402)
(0.0843726 -9.36987e-06 -0.00427178)
(0.0862281 0.000529421 -0.00228239)
(0.0820774 0.000225046 -0.00102522)
(0.0810785 0.000315255 -0.000922599)
(0.0800959 0.000318686 -0.00087146)
(0.0794218 0.000366481 -0.000649013)
(0.0779887 -0.000254375 -0.000781484)
(0.0773766 -0.000296963 -0.000601102)
(0.0768061 0.000190837 -0.00115644)
(0.07628 -0.000356868 -0.00203013)
(0.0775352 0.000565362 -0.00194201)
(0.0779376 0.000996774 -0.00328405)
(0.0800221 6.74497e-05 -0.00324963)
(0.082382 0.000625756 -0.00197064)
(0.0821265 0.000108312 -0.00109187)
(0.0808738 0.000204212 -0.00121177)
(0.0799253 0.000425989 -0.000945119)
(0.0792534 0.000451544 -0.000589937)
(0.0779813 0.000129416 -0.000870846)
(0.0771873 6.54356e-05 -0.000804254)
(0.0766414 0.000296582 -0.00116466)
(0.0760728 0.000123844 -0.00207065)
(0.0769317 0.000629672 -0.0019064)
(0.0776239 0.000933833 -0.00292165)
(0.0793509 0.000482613 -0.00304684)
(0.0815635 0.00065713 -0.00185707)
(0.0821607 4.08908e-05 -0.00115628)
(0.080721 0.000188725 -0.0013327)
(0.0797418 0.000392914 -0.000950147)
(0.0790677 0.000304507 -0.000517159)
(0.077744 0.000141664 -0.000895788)
(0.0770848 7.76683e-05 -0.000808679)
(0.0764885 0.00017169 -0.00107579)
(0.0759294 0.000209944 -0.0020132)
(0.0769102 0.000524102 -0.0017381)
(0.0774472 0.000807709 -0.00263121)
(0.0792507 0.000601252 -0.00277081)
(0.0814525 0.000553749 -0.00154659)
(0.0821669 8.94698e-06 -0.00119495)
(0.0806625 0.000100039 -0.00138996)
(0.0796827 0.00022877 -0.000915581)
(0.0790088 0.000185322 -0.000466073)
(0.0775851 0.000108096 -0.000908403)
(0.0769355 4.48601e-05 -0.000794641)
(0.0762462 8.38298e-05 -0.00102698)
(0.0756784 0.000159867 -0.00196681)
(0.0767561 0.000323602 -0.00163724)
(0.0772161 0.000513056 -0.00247307)
(0.0791713 0.000446252 -0.00258499)
(0.081424 0.000380946 -0.00134034)
(0.0821696 2.28518e-06 -0.00121619)
(0.080639 3.59764e-05 -0.00141862)
(0.0796525 8.65732e-05 -0.000887742)
(0.0789777 6.62517e-05 -0.000433232)
(0.0775124 4.34924e-05 -0.000915236)
(0.0768705 1.86774e-05 -0.000793743)
(0.0761257 2.44693e-05 -0.00101667)
(0.075554 5.54383e-05 -0.00195438)
(0.076667 0.000106351 -0.00160399)
(0.0770801 0.000177021 -0.002423)
(0.0791034 0.000164369 -0.00250426)
(0.0813722 0.000132086 -0.00124574)
(0.0821696 -2.32506e-06 -0.00121622)
(0.0806391 -3.64046e-05 -0.00141864)
(0.0796524 -8.73753e-05 -0.000887785)
(0.0789777 -6.64559e-05 -0.000433247)
(0.0775124 -4.47923e-05 -0.000915301)
(0.0768702 -1.98275e-05 -0.000793934)
(0.0761255 -2.56438e-05 -0.00101676)
(0.0755536 -5.78282e-05 -0.00195454)
(0.0766664 -0.000107647 -0.00160422)
(0.0770796 -0.000179242 -0.00242308)
(0.0791027 -0.000167339 -0.00250461)
(0.0813717 -0.000133742 -0.00124602)
(0.0821668 -8.98645e-06 -0.00119503)
(0.0806626 -0.000100369 -0.00139003)
(0.0796825 -0.000229493 -0.000915729)
(0.0790086 -0.000185518 -0.000466137)
(0.077585 -0.000109229 -0.000908559)
(0.0769348 -4.57873e-05 -0.000795151)
(0.0762456 -8.4738e-05 -0.00102719)
(0.0756772 -0.000161889 -0.00196726)
(0.0767544 -0.000324569 -0.00163791)
(0.0772148 -0.000514907 -0.00247333)
(0.0791691 -0.000448811 -0.00258596)
(0.0814224 -0.000382281 -0.00134115)
(0.0821606 -4.09249e-05 -0.00115638)
(0.0807213 -0.000188888 -0.00133275)
(0.0797416 -0.000393463 -0.000950355)
(0.0790675 -0.000304597 -0.00051729)
(0.0777439 -0.000142426 -0.000896013)
(0.0770838 -7.80412e-05 -0.00080939)
(0.0764876 -0.000172026 -0.00107606)
(0.0759279 -0.000211225 -0.00201384)
(0.0769077 -0.000524302 -0.00173903)
(0.0774452 -0.000808775 -0.00263158)
(0.0792474 -0.000603014 -0.00277232)
(0.08145 -0.000554482 -0.00154782)
(0.0821263 -0.000108316 -0.00109199)
(0.080874 -0.000204236 -0.0012118)
(0.0799252 -0.000426285 -0.000945295)
(0.0792533 -0.000451477 -0.000590068)
(0.0779813 -0.000129916 -0.000871095)
(0.0771863 -6.53082e-05 -0.000804959)
(0.0766405 -0.000296401 -0.00116493)
(0.0760712 -0.00012438 -0.00207137)
(0.076929 -0.000628866 -0.00190737)
(0.0776215 -0.000934035 -0.00292194)
(0.0793471 -0.000483335 -0.00304861)
(0.0815605 -0.000657051 -0.00185852)
(0.0820772 -0.000225003 -0.00102536)
(0.0810787 -0.000315148 -0.000922593)
(0.0800959 -0.000318725 -0.000871573)
(0.0794216 -0.000366091 -0.000649059)
(0.0779889 0.00025421 -0.00078175)
(0.0773755 0.00029778 -0.000601739)
(0.0768057 -0.000190035 -0.00115646)
(0.0762786 0.000357038 -0.00203076)
(0.0775329 -0.000563193 -0.00194256)
(0.0779363 -0.000996062 -0.00328379)
(0.0800187 -6.71718e-05 -0.0032513)
(0.0823804 -0.000624788 -0.00197173)
(0.0822774 -0.000254102 -0.000962335)
(0.0812101 -0.000207744 -0.00105877)
(0.0809561 -0.000116403 -0.000937298)
(0.0808253 -0.000495014 -0.000852816)
(0.0786872 0.000229225 -0.00118303)
(0.0798438 0.00031382 -0.000706545)
(0.079028 -0.000265105 -0.00192724)
(0.0790451 0.00057039 -0.00283862)
(0.0824934 -0.000299152 -0.00241359)
(0.0807241 -0.000821628 -0.0048419)
(0.0843701 9.85957e-06 -0.00427323)
(0.0862317 -0.000528562 -0.0022825)
(0.0812713 -0.000169238 0.00167645)
(0.0808509 -0.000250511 0.00200329)
(0.0795796 -0.000118975 0.00250623)
(0.0782346 -2.67531e-05 0.00264138)
(0.075068 -0.000606241 0.00225309)
(0.0748486 -0.00019939 0.00186508)
(0.0718263 0.000198865 0.000435277)
(0.0700263 -0.000134266 -0.000911103)
(0.0706581 0.00115856 -0.00114559)
(0.0671478 0.000937666 -0.00385157)
(0.0703516 3.77858e-06 -0.00387885)
(0.0729894 0.0008845 -0.00229085)
(0.080105 -7.16783e-05 0.00247138)
(0.0782892 0.000135547 0.00254718)
(0.0743632 0.00041008 0.00276804)
(0.0711826 0.000348476 0.00252857)
(0.0676962 1.31303e-05 0.00181234)
(0.0657579 0.000319155 0.00124595)
(0.064214 0.000696682 0.000148963)
(0.0632673 0.000447019 -0.00132523)
(0.0643337 0.00146136 -0.00182913)
(0.0653024 0.00132514 -0.0035188)
(0.0678968 0.000418325 -0.00403084)
(0.0715378 0.00106417 -0.00303928)
(0.0804809 -3.15558e-05 0.00280923)
(0.0777624 0.000171655 0.00269522)
(0.0743253 0.000695519 0.00299091)
(0.0709203 0.000698569 0.00271553)
(0.0675747 0.000471909 0.00194052)
(0.0653798 0.000554415 0.00129186)
(0.0639948 0.000684771 0.000265004)
(0.0631053 0.000645895 -0.00119483)
(0.0640695 0.00114987 -0.00175667)
(0.0655143 0.00107988 -0.00322915)
(0.067918 0.00065711 -0.00382073)
(0.0714722 0.000876958 -0.00290492)
(0.0805428 -4.64012e-05 0.00298986)
(0.0776714 0.000223294 0.0029112)
(0.074309 0.000544446 0.00329756)
(0.0708771 0.000520312 0.00302993)
(0.0675459 0.000403191 0.00216143)
(0.0653709 0.000399803 0.00148162)
(0.0640205 0.000489632 0.000453588)
(0.0632044 0.000589291 -0.00104693)
(0.0642593 0.000898276 -0.00155485)
(0.0656808 0.00092016 -0.0029251)
(0.0681326 0.000655157 -0.00347695)
(0.0716101 0.000626529 -0.00252195)
(0.080531 -3.70196e-05 0.00302669)
(0.0777059 0.000136745 0.003007)
(0.0743895 0.000327612 0.00346166)
(0.0708903 0.000316753 0.0032072)
(0.0674386 0.000240412 0.00227829)
(0.0652018 0.000207182 0.00155952)
(0.0638209 0.000269812 0.000511073)
(0.0630615 0.000378789 -0.00100328)
(0.0642125 0.000548838 -0.00146817)
(0.0656615 0.000594017 -0.00276761)
(0.0682334 0.000465161 -0.00325814)
(0.071677 0.000402129 -0.00226632)
(0.0805199 -1.35639e-05 0.00303992)
(0.077709 4.96309e-05 0.00304623)
(0.074417 0.000116372 0.00353885)
(0.0709119 0.00011058 0.00329593)
(0.0673991 8.42804e-05 0.00233355)
(0.0651133 6.72107e-05 0.00159223)
(0.0636917 8.67222e-05 0.000525778)
(0.0629515 0.000128363 -0.000996563)
(0.0641373 0.000184162 -0.00144535)
(0.0655961 0.000207995 -0.00271595)
(0.0682322 0.000168019 -0.00316199)
(0.0716595 0.000136057 -0.00214755)
(0.0805199 1.33266e-05 0.00303988)
(0.0777089 -5.02874e-05 0.00304619)
(0.0744169 -0.000117008 0.00353881)
(0.0709119 -0.000111141 0.00329592)
(0.067399 -8.55935e-05 0.00233352)
(0.0651129 -6.83543e-05 0.00159209)
(0.0636913 -8.81889e-05 0.000525659)
(0.0629509 -0.000130258 -0.000996757)
(0.0641366 -0.000185371 -0.00144562)
(0.0655954 -0.000210239 -0.00271613)
(0.0682313 -0.000170616 -0.00316241)
(0.0716587 -0.000138137 -0.00214797)
(0.0805309 3.68339e-05 0.00302658)
(0.0777059 -0.000137272 0.0030069)
(0.0743894 -0.000328174 0.00346155)
(0.0708902 -0.000317216 0.00320716)
(0.0674382 -0.000241468 0.00227822)
(0.0652007 -0.000208007 0.00155914)
(0.0638196 -0.000270904 0.000510738)
(0.0630598 -0.000380238 -0.00100384)
(0.0642102 -0.000549626 -0.00146898)
(0.0656594 -0.000595861 -0.00276818)
(0.0682308 -0.000467393 -0.00325936)
(0.0716747 -0.000403961 -0.00226753)
(0.0805427 4.62934e-05 0.00298968)
(0.0776716 -0.000223623 0.00291105)
(0.0743089 -0.000544815 0.0032974)
(0.0708769 -0.00052051 0.00302984)
(0.0675454 -0.00040372 0.00216131)
(0.0653693 -0.000399954 0.00148113)
(0.0640188 -0.000489956 0.000453167)
(0.063202 -0.000589831 -0.00104769)
(0.064256 -0.000898139 -0.001556)
(0.0656777 -0.00092122 -0.0029259)
(0.0681288 -0.000656724 -0.00347881)
(0.0716067 -0.000627927 -0.00252381)
(0.0804808 3.14968e-05 0.00280903)
(0.0777625 -0.000171756 0.00269505)
(0.0743254 -0.000695621 0.0029907)
(0.0709202 -0.000698493 0.00271538)
(0.0675743 -0.000471953 0.00194036)
(0.0653783 -0.000553821 0.00129128)
(0.063993 -0.000684296 0.000264617)
(0.0631027 -0.000645392 -0.0011956)
(0.0640658 -0.00114854 -0.00175787)
(0.0655108 -0.0010801 -0.0032299)
(0.0679136 -0.000657818 -0.00382289)
(0.0714683 -0.000877764 -0.00290713)
(0.0801049 7.17487e-05 0.00247108)
(0.0782896 -0.000135346 0.00254704)
(0.0743634 -0.000409781 0.00276798)
(0.0711827 -0.000347811 0.00252858)
(0.0676962 -1.25924e-05 0.00181235)
(0.0657566 -0.000317649 0.00124563)
(0.0642131 -0.000695391 0.000149093)
(0.0632654 -0.000445514 -0.00132557)
(0.064331 -0.00145847 -0.00182981)
(0.0653004 -0.0013246 -0.00351881)
(0.0678932 -0.000418287 -0.00403274)
(0.0715354 -0.00106427 -0.0030411)
(0.0812706 0.000169198 0.00167623)
(0.0808515 0.00025071 0.0020035)
(0.0795797 0.000119407 0.00250662)
(0.0782357 2.71619e-05 0.00264186)
(0.0750692 0.000606509 0.00225361)
(0.0748482 0.000200612 0.00186543)
(0.0718295 -0.000198323 0.000436522)
(0.0700259 0.000135313 -0.000911031)
(0.0706602 -0.00115602 -0.00114491)
(0.0671524 -0.000937456 -0.00384936)
(0.0703506 -3.22872e-06 -0.00388022)
(0.0729936 -0.000883913 -0.00229129)
(0.00681619 0.00740542 -0.00046253)
(0.0113287 0.0035493 2.14472e-05)
(0.0194549 0.00201977 -3.14332e-05)
(0.0250806 0.00101722 0.000756172)
(0.0297147 0.000413137 0.000862252)
(0.0339915 0.000530122 0.000821444)
(0.0356641 0.000536092 -0.000446126)
(0.0386134 0.000504244 -0.00191147)
(0.0423485 0.000827631 -0.00275125)
(0.0451518 0.000234504 -0.00619571)
(0.0520053 0.000621821 -0.00656477)
(0.0575417 0.00150033 -0.00516096)
(0.0172355 0.00703669 0.000646403)
(0.0243344 0.00452254 0.00187861)
(0.032849 0.00286487 0.00172444)
(0.0373081 0.00171593 0.00190467)
(0.0399583 0.000969814 0.00140088)
(0.0423044 0.000996003 0.000856816)
(0.0438827 0.000960669 -0.000353785)
(0.0456409 0.00078163 -0.00201041)
(0.0486852 0.00146072 -0.00307166)
(0.0519453 0.00117597 -0.00524981)
(0.0562414 0.000889066 -0.00613925)
(0.0616796 0.00131435 -0.0051998)
(0.0175761 0.00386195 0.000600653)
(0.0253896 0.00328578 0.00192416)
(0.0340095 0.00254147 0.00200209)
(0.0386724 0.00178074 0.00216967)
(0.0415097 0.0012229 0.00171846)
(0.0438162 0.00105494 0.00104995)
(0.0456316 0.000952195 -0.000132751)
(0.047302 0.000889812 -0.00179627)
(0.0502019 0.00115974 -0.0028815)
(0.053563 0.00099312 -0.00475208)
(0.0574945 0.000856196 -0.00567055)
(0.0625986 0.000917922 -0.00481794)
(0.0170477 0.00228595 0.000492897)
(0.0251694 0.00229489 0.00188569)
(0.0340826 0.00183323 0.0021882)
(0.0389721 0.00128633 0.00246525)
(0.0419959 0.000909701 0.00198526)
(0.0443948 0.000755451 0.00125443)
(0.0462671 0.000727979 4.27903e-05)
(0.0479966 0.000772705 -0.00162839)
(0.0508901 0.000936393 -0.00267436)
(0.0541963 0.000848314 -0.00439916)
(0.0580754 0.000678997 -0.00522285)
(0.0629456 0.000578392 -0.00434932)
(0.0166553 0.00111369 0.000403858)
(0.0249707 0.00124871 0.0018388)
(0.0340644 0.00103238 0.0022577)
(0.0390253 0.000738631 0.00260295)
(0.0421167 0.000530882 0.00209855)
(0.0445329 0.000435073 0.0013247)
(0.0463789 0.000447316 8.8797e-05)
(0.0481567 0.000513756 -0.00157403)
(0.0510914 0.000596197 -0.00257606)
(0.0544139 0.000554706 -0.00420802)
(0.0583299 0.000446634 -0.00494452)
(0.0630654 0.000352849 -0.00403941)
(0.0164801 0.000351252 0.000367521)
(0.024847 0.000406533 0.00180171)
(0.0340059 0.000341065 0.0022836)
(0.0389879 0.000244995 0.00266414)
(0.0421096 0.000176503 0.00214245)
(0.0445206 0.000142585 0.00134396)
(0.0463504 0.000150359 8.9551e-05)
(0.0481561 0.000177865 -0.00156936)
(0.051115 0.000205117 -0.00255082)
(0.0544515 0.000195238 -0.00414089)
(0.058395 0.00015605 -0.00482117)
(0.0630719 0.000116755 -0.00389141)
(0.0164799 -0.00035257 0.000367486)
(0.0248468 -0.000407635 0.00180164)
(0.0340057 -0.000341962 0.00228353)
(0.0389877 -0.000246027 0.0026641)
(0.0421094 -0.000177832 0.0021424)
(0.0445202 -0.000143671 0.00134379)
(0.0463499 -0.000151607 8.93832e-05)
(0.0481554 -0.000179086 -0.0015696)
(0.0511141 -0.000206144 -0.00255114)
(0.0544507 -0.000197361 -0.00414117)
(0.0583941 -0.000158572 -0.00482166)
(0.063071 -0.000119505 -0.00389192)
(0.0166548 -0.00111477 0.000403763)
(0.0249704 -0.00124962 0.00183861)
(0.034064 -0.00103306 0.00225754)
(0.0390249 -0.000739347 0.00260286)
(0.0421161 -0.000531789 0.0020984)
(0.0445317 -0.000435706 0.00132424)
(0.0463775 -0.0004481 8.83131e-05)
(0.0481547 -0.000514522 -0.00157472)
(0.051089 -0.000596848 -0.00257702)
(0.0544116 -0.000556544 -0.00420884)
(0.0583273 -0.00044896 -0.00494592)
(0.0630629 -0.000355531 -0.0040409)
(0.017047 -0.00228671 0.000492755)
(0.025169 -0.00229544 0.00188544)
(0.034082 -0.00183349 0.00218793)
(0.0389715 -0.0012864 0.00246509)
(0.041995 -0.000909762 0.00198504)
(0.0443931 -0.000755132 0.00125379)
(0.0462651 -0.000727816 4.21324e-05)
(0.0479939 -0.000772555 -0.00162936)
(0.0508865 -0.000936275 -0.00267572)
(0.0541927 -0.000849655 -0.0044003)
(0.0580715 -0.000681021 -0.00522496)
(0.0629419 -0.000581007 -0.00435161)
(0.0175752 -0.00386231 0.000600482)
(0.0253889 -0.00328582 0.00192382)
(0.0340086 -0.00254111 0.00200177)
(0.0386716 -0.00178013 0.00216942)
(0.0415086 -0.00122207 0.0017182)
(0.0438145 -0.00105351 0.00104926)
(0.0456295 -0.000950954 -0.000133374)
(0.0472991 -0.00088859 -0.00179722)
(0.050198 -0.00115876 -0.00288287)
(0.053559 -0.000994035 -0.00475313)
(0.05749 -0.00085784 -0.00567295)
(0.0625943 -0.000920439 -0.00482071)
(0.0172344 -0.00703623 0.00064618)
(0.024334 -0.00452192 0.00187831)
(0.0328485 -0.00286379 0.00172424)
(0.037308 -0.00171459 0.00190467)
(0.0399579 -0.000968233 0.00140088)
(0.0423038 -0.000993573 0.000856488)
(0.0438823 -0.000958633 -0.000353716)
(0.0456396 -0.000779442 -0.00201069)
(0.0486829 -0.00145867 -0.00307215)
(0.0519428 -0.00117663 -0.00524979)
(0.0562377 -0.000890333 -0.00614126)
(0.0616763 -0.00131662 -0.00520233)
(0.00681617 -0.00740462 -0.000462686)
(0.01133 -0.00354851 2.15732e-05)
(0.0194562 -0.00201868 -3.11097e-05)
(0.0250832 -0.00101604 0.000756911)
(0.0297169 -0.000411622 0.000863182)
(0.0339947 -0.000527949 0.000822153)
(0.0356691 -0.000534339 -0.00044432)
(0.0386162 -0.000502367 -0.00191053)
(0.0423523 -0.000826379 -0.00274933)
(0.045154 -0.000235219 -0.00619241)
(0.0520038 -0.000622004 -0.00656584)
(0.0575437 -0.00150173 -0.00516201)
(-0.00474198 0.00108013 -0.0133297)
(-0.00257103 0.00183285 -0.00803894)
(0.00115411 0.000897915 -0.00598317)
(0.00583832 0.000306706 -0.00379461)
(0.0109287 0.000118594 -0.00252988)
(0.0161755 0.000231368 -0.00190198)
(0.0208488 0.000149733 -0.0029947)
(0.0258245 0.000167163 -0.00454721)
(0.0317125 0.00082501 -0.00593374)
(0.037105 0.00107439 -0.00969862)
(0.0439397 0.00151141 -0.01042)
(0.0507242 0.00109796 -0.00883692)
(-0.00359317 0.00311243 -0.0142224)
(0.00404372 0.00367561 -0.00526137)
(0.0105697 0.00226422 -0.00313812)
(0.0160969 0.00136732 -0.00151464)
(0.02086 0.000807048 -0.000928878)
(0.0251129 0.000772516 -0.0009892)
(0.0290172 0.000684131 -0.00203571)
(0.0328033 0.000700717 -0.0037928)
(0.0375106 0.0013494 -0.00537485)
(0.0425111 0.00131381 -0.00780929)
(0.0481135 0.00118866 -0.00881812)
(0.0546071 0.000795934 -0.00772884)
(-0.00261556 0.00249285 -0.0140997)
(0.0064646 0.00303042 -0.00455031)
(0.0127826 0.0021378 -0.00226185)
(0.0186565 0.00148712 -0.000793711)
(0.023347 0.00100352 -0.000358579)
(0.027537 0.000867223 -0.000602562)
(0.0313914 0.000775466 -0.00162431)
(0.0350251 0.000790178 -0.00336168)
(0.0395179 0.00106184 -0.00488151)
(0.0444376 0.00102567 -0.00700201)
(0.0496537 0.000939359 -0.00807288)
(0.0556468 0.000553773 -0.00711973)
(-0.00237289 0.00183387 -0.0143436)
(0.00683707 0.0022661 -0.00466034)
(0.0133274 0.00173473 -0.00197094)
(0.0194152 0.00121839 -0.000398055)
(0.0242289 0.00086173 -4.01184e-06)
(0.0285037 0.000729991 -0.0003268)
(0.0323771 0.000689941 -0.00137064)
(0.0360397 0.000715086 -0.00309532)
(0.0404591 0.000829285 -0.00458473)
(0.0452661 0.000772166 -0.00656006)
(0.0503285 0.000646093 -0.00752612)
(0.0560096 0.000342309 -0.00657159)
(-0.00227943 0.00100987 -0.0144307)
(0.00683756 0.00127889 -0.00482632)
(0.0134311 0.00102481 -0.0019208)
(0.019611 0.000744455 -0.000266115)
(0.0245073 0.000550522 0.000114781)
(0.0288309 0.000474839 -0.000232129)
(0.0327148 0.000469127 -0.00128031)
(0.0364222 0.000492284 -0.00298905)
(0.0408326 0.000526643 -0.00444247)
(0.0456071 0.000481831 -0.00632717)
(0.0506184 0.000397579 -0.00719626)
(0.0561195 0.00021904 -0.00621123)
(-0.0022571 0.000337837 -0.0144752)
(0.00676317 0.000425765 -0.00493635)
(0.0133865 0.000346791 -0.0019339)
(0.0196035 0.000254184 -0.000233359)
(0.024544 0.000189944 0.000143364)
(0.0288937 0.00016405 -0.000212163)
(0.0327908 0.000164847 -0.00126427)
(0.0365295 0.000173895 -0.00296414)
(0.0409445 0.000181844 -0.00439828)
(0.0457109 0.00016626 -0.0062385)
(0.0507065 0.000135004 -0.00704475)
(0.0561284 7.37629e-05 -0.00603119)
(-0.00225716 -0.00033921 -0.0144752)
(0.006763 -0.000426936 -0.00493649)
(0.0133863 -0.000347765 -0.00193405)
(0.0196032 -0.000255104 -0.000233489)
(0.0245437 -0.000190745 0.000143219)
(0.0288932 -0.000164547 -0.000212382)
(0.0327903 -0.000165383 -0.0012645)
(0.0365288 -0.00017447 -0.00296443)
(0.0409437 -0.000182787 -0.00439864)
(0.0457101 -0.000168445 -0.00623884)
(0.0507057 -0.000137917 -0.00704526)
(0.0561275 -7.74196e-05 -0.00603175)
(-0.00227959 -0.001011 -0.0144307)
(0.00683716 -0.00127979 -0.0048267)
(0.0134305 -0.00102543 -0.00192123)