/*--------------------------------*- C++ -*----------------------------------*\
| =========                 |                                                 |
| \\      /  F ield         | OpenFOAM: The Open Source CFD Toolbox           |
|  \\    /   O peration     | Version:  2.3.1                                 |
|   \\  /    A nd           | Web:      www.OpenFOAM.org                      |
|    \\/     M anipulation  |                                                 |
\*---------------------------------------------------------------------------*/
FoamFile
{
    version     2.0;
    format      ascii;
    class       volVectorField;
    location    "15";
    object      U_0;
}
// * * * * * * * * * * * * * * * * * * * * * * * * * * * * * * * * * * * * * //

dimensions      [0 1 -1 0 0 0 0];

internalField   nonuniform List<vector> 
37758
(
(0.0826874 0.000108628 -0.000535687)
(0.0807872 0.000155058 -0.000962794)
(0.0812222 -0.00020923 -0.00116968)
(0.0800177 0.000336392 -0.00113213)
(0.0782559 -0.000128777 -0.00135134)
(0.0807599 -0.000339016 -0.000954136)
(0.0780742 0.00021356 -0.00119079)
(0.0806721 -0.000396694 -0.00138419)
(0.0829693 0.000207763 -0.000818777)
(0.0808066 0.000304496 -0.00171835)
(0.0882864 4.43265e-05 -0.00147575)
(0.0880113 0.000401417 -0.000647273)
(0.0822937 8.91661e-05 -0.000551752)
(0.0815023 0.000170093 -0.000944307)
(0.0812875 -0.000184302 -0.000991378)
(0.0801041 0.000413205 -0.00084638)
(0.0795061 -0.000136647 -0.000976128)
(0.0804266 -0.000639031 -0.000536729)
(0.079025 0.000179201 -0.00070508)
(0.0810692 -0.000453323 -0.000990748)
(0.08302 9.84125e-05 -0.00043785)
(0.0827538 0.000446067 -0.00110626)
(0.0880219 -4.96311e-05 -0.00101162)
(0.0891663 0.00039462 -0.000419023)
(0.082218 -1.32443e-05 -0.000574165)
(0.0813945 6.87717e-05 -0.0011375)
(0.0814457 0.000183892 -0.00110623)
(0.0800331 0.000331744 -0.000851099)
(0.0795282 5.60302e-05 -0.00106627)
(0.0802856 -0.000329062 -0.00063276)
(0.0788932 9.41042e-05 -0.000711053)
(0.0810013 -1.867e-08 -0.00106646)
(0.0829579 0.000119045 -0.000466023)
(0.0829737 0.000533715 -0.0010261)
(0.0878592 0.000331746 -0.000989171)
(0.0890562 0.000320703 -0.000402645)
(0.0822896 -4.93338e-05 -0.000610076)
(0.0811192 2.90011e-05 -0.00126372)
(0.0815537 0.000329709 -0.00114722)
(0.0799685 0.000210715 -0.000861572)
(0.0791956 5.25594e-05 -0.0011444)
(0.0804273 -0.000167117 -0.000648438)
(0.0786377 5.53494e-06 -0.000687929)
(0.0809026 0.000149314 -0.00105474)
(0.0831606 9.59811e-05 -0.000404842)
(0.082691 0.000443085 -0.000959383)
(0.0879779 0.000460985 -0.000893625)
(0.0887415 0.000300932 -0.000307477)
(0.0823202 -4.69606e-05 -0.000633267)
(0.0809967 2.22965e-05 -0.00133464)
(0.081621 0.000224951 -0.00116511)
(0.0799553 0.000106077 -0.00087603)
(0.0789885 4.9967e-05 -0.00119811)
(0.0804738 -7.0019e-05 -0.000667121)
(0.0785352 -5.73163e-07 -0.000688886)
(0.0808557 0.000132844 -0.00105213)
(0.0832821 6.41193e-05 -0.000385232)
(0.0825535 0.000277477 -0.000932281)
(0.088006 0.000323472 -0.00083096)
(0.0885716 0.000213711 -0.000243796)
(0.0823212 -1.82071e-05 -0.000646441)
(0.0809598 5.63512e-06 -0.00136606)
(0.0816712 9.75129e-05 -0.00117028)
(0.0799114 3.8461e-05 -0.000883875)
(0.0788836 1.90906e-05 -0.00122413)
(0.0804829 -1.49841e-05 -0.000673803)
(0.0784763 -6.70149e-06 -0.000690979)
(0.0808453 5.52485e-05 -0.0010496)
(0.0833193 2.43432e-05 -0.000377106)
(0.0825091 9.34333e-05 -0.000927132)
(0.0880287 0.000126791 -0.000800344)
(0.0884605 7.46508e-05 -0.000213206)
(0.0823212 1.83122e-05 -0.000646451)
(0.0809598 -5.90742e-06 -0.00136607)
(0.081671 -9.96668e-05 -0.00117033)
(0.0799115 -3.84345e-05 -0.000883853)
(0.0788834 -2.0952e-05 -0.00122416)
(0.0804828 1.30206e-05 -0.000673889)
(0.0784765 6.21102e-06 -0.000690942)
(0.0808449 -5.89859e-05 -0.0010497)
(0.0833195 -2.59389e-05 -0.00037719)
(0.0825091 -9.58049e-05 -0.000927099)
(0.0880284 -0.000130962 -0.00080051)
(0.088461 -7.59058e-05 -0.000213231)
(0.0823202 4.70464e-05 -0.000633289)
(0.0809968 -2.24564e-05 -0.00133465)
(0.0816206 -0.000226898 -0.00116526)
(0.0799555 -0.000106065 -0.000875971)
(0.078988 -5.16173e-05 -0.00119817)
(0.0804733 6.82858e-05 -0.000667349)
(0.0785356 2.77043e-07 -0.000688779)
(0.0808546 -0.000136134 -0.00105239)
(0.0832825 -6.54605e-05 -0.000385482)
(0.0825537 -0.000279498 -0.000932189)
(0.0880049 -0.000327229 -0.000831401)
(0.088573 -0.000214759 -0.000243855)
(0.0822895 4.93747e-05 -0.000610119)
(0.0811194 -2.89724e-05 -0.0012637)
(0.0815533 -0.000331238 -0.00114743)
(0.0799688 -0.000210664 -0.000861509)
(0.0791948 -5.37875e-05 -0.00114447)
(0.0804267 0.000165862 -0.000648744)
(0.0786382 -5.42567e-06 -0.000687738)
(0.080901 -0.000151742 -0.00105512)
(0.0831611 -9.67489e-05 -0.000405207)
(0.0826912 -0.000444346 -0.000959227)
(0.0879764 -0.000463847 -0.000894332)
(0.0887435 -0.000301577 -0.000307588)
(0.0822179 1.33212e-05 -0.000574229)
(0.0813947 -6.86798e-05 -0.00113745)
(0.0814454 -0.000184937 -0.0011064)
(0.0800332 -0.000331537 -0.000851037)
(0.0795275 -5.69781e-05 -0.00106636)
(0.080285 0.000328388 -0.000633227)
(0.0788936 -9.37073e-05 -0.000710879)
(0.0809997 -1.60748e-06 -0.0010669)
(0.0829585 -0.000119076 -0.000466422)
(0.0829738 -0.000534366 -0.00102585)
(0.0878575 -0.000333395 -0.000989981)
(0.089058 -0.000320761 -0.000402805)
(0.0822934 -8.89587e-05 -0.000551874)
(0.0815028 -0.000170072 -0.000944258)
(0.0812871 0.000183719 -0.000991526)
(0.0801042 -0.000412642 -0.000846317)
(0.0795053 0.000135894 -0.000976221)
(0.0804259 0.000639219 -0.000537108)
(0.0790256 -0.000178433 -0.000704809)
(0.0810673 0.000452496 -0.000991215)
(0.0830208 -9.74402e-05 -0.000438131)
(0.0827541 -0.000446246 -0.00110587)
(0.0880198 4.95621e-05 -0.00101244)
(0.0891689 -0.00039405 -0.000419099)
(0.0826869 -0.000108405 -0.000535884)
(0.0807889 -0.000155142 -0.000962623)
(0.0812209 0.000209047 -0.00116959)
(0.0800184 -0.000335952 -0.00113193)
(0.0782547 0.000128397 -0.00135127)
(0.0807583 0.000339552 -0.000954413)
(0.0780758 -0.000213054 -0.00119039)
(0.0806689 0.000396569 -0.00138464)
(0.0829716 -0.000206864 -0.000818819)
(0.0808071 -0.00030457 -0.00171752)
(0.0882828 -4.36362e-05 -0.00147637)
(0.088016 -0.000401045 -0.000647168)
(0.0825008 4.94081e-05 0.000953637)
(0.0822681 7.25008e-05 0.00170051)
(0.0825944 -0.000153026 0.0020273)
(0.0822115 0.000338752 0.00202623)
(0.0806344 -8.38545e-05 0.00124698)
(0.0822894 -0.000310695 0.00163932)
(0.0811215 0.000346896 0.000622935)
(0.0823117 -0.000319047 -0.000245823)
(0.0856074 0.000172941 0.000389204)
(0.084661 0.000559476 -0.00170654)
(0.0900627 0.000139813 -0.00164799)
(0.0913077 0.000566867 -0.00037919)
(0.0823744 2.21202e-05 0.00104117)
(0.0826487 5.17977e-05 0.00164003)
(0.0825023 -5.74453e-05 0.00168253)
(0.0821986 0.00036405 0.00151922)
(0.0816099 -0.000111264 0.000813585)
(0.081949 -0.000466524 0.00082089)
(0.0818441 0.000295982 6.03896e-05)
(0.0824988 -0.000317276 -0.000886317)
(0.084569 0.00020874 -0.00056667)
(0.085185 0.000790508 -0.00185812)
(0.0884047 9.37343e-05 -0.00192578)
(0.0904605 0.00052163 -0.000930791)
(0.0823708 -3.16944e-05 0.00119483)
(0.0826077 -3.48659e-05 0.00169631)
(0.0825903 0.000129165 0.00174268)
(0.0821955 0.000277933 0.00172816)
(0.0816937 1.16244e-05 0.000933061)
(0.0818798 -0.000227578 0.00077434)
(0.0818538 0.000160004 9.47834e-05)
(0.08254 -2.06388e-05 -0.00097934)
(0.0843516 0.000229214 -0.000706461)
(0.0852435 0.000713423 -0.00175186)
(0.0879885 0.000407814 -0.00191385)
(0.0899239 0.000487914 -0.000962022)
(0.0824282 -4.69557e-05 0.00129823)
(0.0824845 -5.16647e-06 0.00178125)
(0.0826011 0.000237533 0.00189724)
(0.0822217 0.000174586 0.00194224)
(0.0814813 3.66207e-05 0.00100211)
(0.081946 -8.87652e-05 0.000824818)
(0.0817609 6.96552e-05 0.000165642)
(0.0824141 0.000107449 -0.000999436)
(0.084462 0.000203714 -0.000659316)
(0.0850055 0.000594883 -0.00161993)
(0.0878626 0.000541637 -0.00177179)
(0.089708 0.000450656 -0.000782466)
(0.0824518 -3.67964e-05 0.00133609)
(0.0824284 -1.64805e-06 0.0018182)
(0.0826329 0.000166599 0.00199807)
(0.0822607 9.76237e-05 0.00207139)
(0.0813309 3.90592e-05 0.00103861)
(0.0819569 -3.27486e-05 0.000844373)
(0.0816667 2.22275e-05 0.000185637)
(0.0822793 9.69925e-05 -0.00100271)
(0.0844593 0.000126605 -0.000625921)
(0.0847627 0.000362467 -0.00154143)
(0.0877342 0.000389577 -0.00165582)
(0.0895891 0.000312253 -0.000644823)
(0.0824568 -1.35042e-05 0.00135039)
(0.082418 1.83854e-06 0.00183648)
(0.0826581 7.12809e-05 0.00205617)
(0.0822533 3.57453e-05 0.00213604)
(0.0812484 1.74608e-05 0.00105605)
(0.0819571 -4.05067e-06 0.000856262)
(0.081616 3.79867e-06 0.000190249)
(0.08222 3.85961e-05 -0.00100612)
(0.0844569 4.27665e-05 -0.000613451)
(0.0846525 0.000122948 -0.00151878)
(0.0876756 0.000146084 -0.00160172)
(0.0895054 0.000108899 -0.000579082)
(0.0824568 1.34859e-05 0.00135038)
(0.0824181 -2.08241e-06 0.00183649)
(0.0826581 -7.26172e-05 0.00205612)
(0.0822533 -3.57743e-05 0.00213606)
(0.0812484 -1.88297e-05 0.00105604)
(0.0819569 2.59702e-06 0.000856095)
(0.081616 -4.45859e-06 0.000190215)
(0.0822197 -4.14823e-05 -0.00100628)
(0.0844566 -4.42204e-05 -0.00061364)
(0.0846524 -0.000125029 -0.0015188)
(0.0876751 -0.000149605 -0.001602)
(0.0895054 -0.000110259 -0.00057923)
(0.0824517 3.67765e-05 0.00133607)
(0.0824286 1.49237e-06 0.00181823)
(0.0826327 -0.000167798 0.0019979)
(0.0822606 -9.76575e-05 0.00207143)
(0.0813309 -4.02703e-05 0.00103858)
(0.0819563 3.1508e-05 0.000843891)
(0.0816667 -2.26813e-05 0.00018553)
(0.0822786 -9.95027e-05 -0.00100316)
(0.0844585 -0.000127784 -0.000626493)
(0.0847625 -0.000364228 -0.00154151)
(0.0877326 -0.000392704 -0.00165659)
(0.0895888 -0.000313354 -0.000645227)
(0.0824281 4.69341e-05 0.00129819)
(0.0824848 5.15554e-06 0.0017813)
(0.0826008 -0.000238457 0.00189702)
(0.0822215 -0.000174555 0.00194227)
(0.0814813 -3.75109e-05 0.00100205)
(0.0819452 8.78897e-05 0.000824136)
(0.0817608 -6.97094e-05 0.000165545)
(0.0824132 -0.000109258 -0.00100005)
(0.0844608 -0.000204258 -0.000660124)
(0.0850051 -0.000595931 -0.00162004)
(0.0878604 -0.000543942 -0.00177302)
(0.0897074 -0.000451237 -0.000783126)
(0.0823706 3.16942e-05 0.00119477)
(0.0826079 3.49297e-05 0.00169637)
(0.0825901 -0.000129772 0.00174248)
(0.0821952 -0.000277753 0.00172821)
(0.0816936 -1.23026e-05 0.000933013)
(0.081879 0.00022719 0.00077376)
(0.0818537 -0.0001597 9.47834e-05)
(0.0825391 1.94755e-05 -0.000980029)
(0.0843504 -0.000228948 -0.000707327)
(0.085243 -0.000713775 -0.00175189)
(0.087986 -0.000409027 -0.00191531)
(0.0899231 -0.000487734 -0.000962825)
(0.0823742 -2.2031e-05 0.0010411)
(0.082649 -5.16663e-05 0.00164009)
(0.0825021 5.71719e-05 0.00168242)
(0.0821983 -0.00036353 0.00151938)
(0.0816099 0.000110805 0.000813519)
(0.0819481 0.000466873 0.000820292)
(0.0818441 -0.000295143 6.05761e-05)
(0.0824979 0.00031672 -0.000887061)
(0.084568 -0.000207381 -0.000567321)
(0.0851849 -0.000790105 -0.00185783)
(0.0884021 -9.36946e-05 -0.00192725)
(0.0904607 -0.000520631 -0.000931426)
(0.0825004 -4.92781e-05 0.000953455)
(0.082269 -7.24625e-05 0.00170068)
(0.0825938 0.000153004 0.0020273)
(0.0822117 -0.000338272 0.00202671)
(0.0806342 8.35644e-05 0.00124712)
(0.0822876 0.000311257 0.0016389)
(0.0811228 -0.000346284 0.000623927)
(0.0823097 0.000318807 -0.000246591)
(0.0856076 -0.000171787 0.000389118)
(0.0846622 -0.00055921 -0.00170505)
(0.0900596 -0.000139236 -0.00164921)
(0.0913111 -0.000566218 -0.000379232)
(0.0822775 0.000254351 -0.000963255)
(0.0812088 0.000207163 -0.0010588)
(0.0809588 0.000118278 -0.000937853)
(0.0808212 0.000495153 -0.000855259)
(0.0786854 -0.000231692 -0.00118303)
(0.0798483 -0.000311021 -0.000707048)
(0.0790223 0.000264784 -0.00193305)
(0.0790553 -0.000570868 -0.00283754)
(0.0824962 0.000304923 -0.00241739)
(0.0807212 0.000820247 -0.00484889)
(0.0843843 -1.03209e-05 -0.00426545)
(0.0862253 0.000528774 -0.00228107)
(0.0820771 0.000225332 -0.00102708)
(0.0810769 0.00031558 -0.000923077)
(0.0800952 0.000319702 -0.000871815)
(0.0794205 0.000365638 -0.000649829)
(0.0779871 -0.000255924 -0.00078183)
(0.0773774 -0.000295222 -0.000601351)
(0.0768053 0.000190534 -0.00115932)
(0.0762827 -0.000356452 -0.00203071)
(0.0775389 0.000568754 -0.00194322)
(0.0779402 0.000994287 -0.00328713)
(0.080029 6.59264e-05 -0.00324629)
(0.0823844 0.000625376 -0.00196993)
(0.0821261 0.00010832 -0.00109405)
(0.080872 0.00020485 -0.00121249)
(0.0799246 0.000426734 -0.000944739)
(0.0792527 0.000450823 -0.000590544)
(0.0779798 0.000128385 -0.000872019)
(0.0771879 6.6156e-05 -0.000804455)
(0.0766413 0.0002966 -0.00116729)
(0.0760748 0.000124299 -0.00207149)
(0.0769356 0.000631538 -0.00190682)
(0.0776269 0.00093276 -0.00292456)
(0.0793566 0.000481476 -0.0030444)
(0.0815664 0.000656538 -0.00185647)
(0.0821602 4.08496e-05 -0.00115866)
(0.080719 0.000189447 -0.00133342)
(0.0797413 0.000393156 -0.000949465)
(0.0790667 0.000303796 -0.000517897)
(0.0777425 0.000141132 -0.000897249)
(0.0770854 7.78554e-05 -0.000808605)
(0.0764877 0.000171862 -0.00107841)
(0.0759315 0.000210492 -0.00201403)
(0.0769138 0.000525365 -0.00173808)
(0.0774498 0.000807534 -0.00263405)
(0.0792568 0.000600328 -0.0027684)
(0.0814549 0.000553056 -0.00154606)
(0.0821663 8.8952e-06 -0.00119747)
(0.0806603 0.000100474 -0.00139057)
(0.0796823 0.000228881 -0.000914694)
(0.0790075 0.000184933 -0.000467013)
(0.0775832 0.000107745 -0.00090999)
(0.0769358 4.47991e-05 -0.000794429)
(0.076245 8.39959e-05 -0.00102958)
(0.0756805 0.000160238 -0.00196759)
(0.0767595 0.000324295 -0.001637)
(0.0772186 0.000513162 -0.00247575)
(0.079178 0.000445731 -0.00258251)
(0.0814262 0.000380516 -0.00133991)
(0.0821691 2.26116e-06 -0.00121878)
(0.0806368 3.61332e-05 -0.00141913)
(0.0796521 8.66006e-05 -0.000886728)
(0.0789763 6.61091e-05 -0.000434309)
(0.0775104 4.33852e-05 -0.000916925)
(0.0768705 1.86367e-05 -0.000793503)
(0.0761243 2.45299e-05 -0.00101929)
(0.0755561 5.55696e-05 -0.00195514)
(0.0766703 0.000106588 -0.0016037)
(0.0770825 0.000177106 -0.00242561)
(0.0791104 0.000164194 -0.0025017)
(0.0813743 0.000131914 -0.00124535)
(0.082169 -2.29884e-06 -0.00121881)
(0.0806369 -3.65634e-05 -0.00141916)
(0.0796521 -8.74002e-05 -0.000886772)
(0.0789763 -6.63129e-05 -0.000434324)
(0.0775104 -4.46863e-05 -0.00091699)
(0.0768703 -1.97844e-05 -0.000793694)
(0.0761241 -2.57071e-05 -0.00101937)
(0.0755557 -5.79592e-05 -0.00195531)
(0.0766697 -0.000107882 -0.00160392)
(0.0770821 -0.000179331 -0.00242569)
(0.0791096 -0.000167161 -0.00250204)
(0.0813738 -0.000133571 -0.00124563)
(0.0821663 -8.93258e-06 -0.00119754)
(0.0806605 -0.000100806 -0.00139064)
(0.0796821 -0.000229602 -0.000914842)
(0.0790074 -0.000185128 -0.000467076)
(0.0775831 -0.000108879 -0.000910146)
(0.076935 -4.57238e-05 -0.000794938)
(0.0762444 -8.49068e-05 -0.0010298)
(0.0756794 -0.00016226 -0.00196804)
(0.0767578 -0.00032526 -0.00163766)
(0.0772173 -0.000515016 -0.00247602)
(0.0791757 -0.000448288 -0.00258348)
(0.0814246 -0.000381852 -0.00134071)
(0.0821601 -4.08818e-05 -0.00115876)
(0.0807192 -0.000189611 -0.00133347)
(0.0797411 -0.000393703 -0.000949675)
(0.0790665 -0.000303887 -0.000518028)
(0.0777423 -0.000141895 -0.000897475)
(0.0770843 -7.82268e-05 -0.000809315)
(0.0764869 -0.0001722 -0.00107868)
(0.07593 -0.000211772 -0.00201467)
(0.0769113 -0.000525563 -0.00173901)
(0.0774477 -0.000808604 -0.00263441)
(0.0792535 -0.000602088 -0.00276991)
(0.0814523 -0.00055379 -0.0015473)
(0.082126 -0.000108323 -0.00109417)
(0.0808722 -0.000204877 -0.00121252)
(0.0799246 -0.000427033 -0.000944921)
(0.0792525 -0.000450758 -0.000590676)
(0.0779798 -0.000128886 -0.000872269)
(0.0771869 -6.60279e-05 -0.00080516)
(0.0766404 -0.000296422 -0.00116756)
(0.0760732 -0.000124834 -0.00207221)
(0.0769329 -0.000630731 -0.00190778)
(0.0776245 -0.000932967 -0.00292486)
(0.0793529 -0.000482196 -0.00304617)
(0.0815634 -0.000656462 -0.00185791)
(0.0820769 -0.00022529 -0.00102722)
(0.0810772 -0.000315476 -0.000923067)
(0.0800952 -0.000319745 -0.000871921)
(0.0794203 -0.000365251 -0.000649872)
(0.0779873 0.000255759 -0.000782097)
(0.0773763 0.00029604 -0.000601987)
(0.076805 -0.000189737 -0.00115934)
(0.0762814 0.000356625 -0.00203135)
(0.0775367 -0.000566583 -0.00194377)
(0.0779389 -0.000993581 -0.00328687)
(0.0800257 -6.5646e-05 -0.00324797)
(0.0823828 -0.000624412 -0.00197102)
(0.082277 -0.000254302 -0.000963536)
(0.0812093 -0.000207172 -0.00105851)
(0.0809582 -0.000118099 -0.00093758)
(0.0808214 -0.000494804 -0.000854582)
(0.078686 0.0002314 -0.0011828)
(0.0798465 0.000311904 -0.000707209)
(0.0790241 -0.000264297 -0.00193185)
(0.0790537 0.000570733 -0.00283812)
(0.0824955 -0.000303109 -0.00241687)
(0.0807236 -0.0008198 -0.00484677)
(0.0843818 1.08132e-05 -0.00426691)
(0.0862289 -0.000527918 -0.00228118)
(0.0812721 -0.000169919 0.00167767)
(0.0808521 -0.000250602 0.00200354)
(0.0795817 -0.00011777 0.00250663)
(0.0782306 -2.80903e-05 0.00264117)
(0.0750674 -0.000607138 0.00225239)
(0.0748487 -0.000197338 0.0018634)
(0.07182 0.000198011 0.000431286)
(0.0700301 -0.000132525 -0.000911509)
(0.0706538 0.0011611 -0.00114859)
(0.0671458 0.000933561 -0.00385626)
(0.0703637 3.14312e-06 -0.00387323)
(0.0729903 0.000884511 -0.00228976)
(0.0801065 -7.23598e-05 0.00247367)
(0.0782895 0.000135869 0.00254738)
(0.0743629 0.000410319 0.00276864)
(0.0711804 0.000347588 0.00252818)
(0.0676942 1.31563e-05 0.00181144)
(0.0657579 0.000321033 0.00124515)
(0.0642126 0.000696518 0.000145928)
(0.0632691 0.000448447 -0.00132655)
(0.0643367 0.00146314 -0.00183035)
(0.0653051 0.00132109 -0.00352202)
(0.0679035 0.000417045 -0.00402828)
(0.0715431 0.00106354 -0.00303838)
(0.0804824 -3.21092e-05 0.00281147)
(0.0777634 0.000172286 0.00269534)
(0.0743258 0.000695957 0.00299192)
(0.0709192 0.000697767 0.00271534)
(0.067573 0.000471581 0.00193952)
(0.06538 0.000555144 0.00129114)
(0.0639942 0.000684825 0.000262199)
(0.0631066 0.000646789 -0.00119629)
(0.0640732 0.00115063 -0.00175763)
(0.0655172 0.00107783 -0.00323225)
(0.0679235 0.000656148 -0.00381897)
(0.0714774 0.000876078 -0.00290414)
(0.0805442 -4.66803e-05 0.0029921)
(0.0776728 0.000223888 0.0029115)
(0.0743098 0.000544441 0.00329879)
(0.0708761 0.000519633 0.00302973)
(0.0675439 0.000402864 0.00216029)
(0.0653707 0.000400013 0.00148094)
(0.0640196 0.000489879 0.000450708)
(0.0632056 0.000590069 -0.00104844)
(0.0642627 0.000898874 -0.00155558)
(0.0656835 0.000919151 -0.00292802)
(0.0681381 0.000654181 -0.00347513)
(0.0716146 0.000625622 -0.00252121)
(0.0805324 -3.71522e-05 0.00302887)
(0.0777076 0.000137143 0.00300755)
(0.0743904 0.000327602 0.00346308)
(0.070889 0.000316318 0.00320697)
(0.067436 0.000240074 0.00227702)
(0.0652011 0.000207161 0.00155876)
(0.0638195 0.000270046 0.000508079)
(0.0630626 0.000379284 -0.00100481)
(0.0642157 0.000549211 -0.00146873)
(0.0656642 0.00059361 -0.00277034)
(0.0682391 0.000464553 -0.00325619)
(0.0716811 0.000401577 -0.00226562)
(0.0805214 -1.35988e-05 0.00304204)
(0.0777108 4.97727e-05 0.0030469)
(0.074418 0.000116362 0.00354038)
(0.0709104 0.000110429 0.00329568)
(0.0673963 8.41592e-05 0.00233219)
(0.0651122 6.71879e-05 0.0015914)
(0.0636901 8.68124e-05 0.000522704)
(0.0629525 0.000128535 -0.000998115)
(0.0641404 0.000184304 -0.00144587)
(0.0655989 0.000207898 -0.00271856)
(0.068238 0.000167801 -0.00315992)
(0.0716634 0.000135848 -0.00214686)
(0.0805214 1.33641e-05 0.003042)
(0.0777108 -5.04296e-05 0.00304686)
(0.074418 -0.000116996 0.00354035)
(0.0709104 -0.000110991 0.00329567)
(0.0673962 -8.54734e-05 0.00233216)
(0.0651119 -6.83314e-05 0.00159127)
(0.0636897 -8.82811e-05 0.000522587)
(0.0629519 -0.000130429 -0.000998309)
(0.0641397 -0.000185512 -0.00144614)
(0.0655982 -0.000210145 -0.00271875)
(0.0682371 -0.000170395 -0.00316034)
(0.0716627 -0.00013793 -0.00214728)
(0.0805323 3.6969e-05 0.00302876)
(0.0777077 -0.000137671 0.00300745)
(0.0743903 -0.000328163 0.00346297)
(0.0708888 -0.000316783 0.00320693)
(0.0674357 -0.000241131 0.00227694)
(0.0652 -0.000207985 0.00155839)
(0.0638183 -0.00027114 0.000507745)
(0.0630609 -0.000380733 -0.00100537)
(0.0642134 -0.000549998 -0.00146955)
(0.0656621 -0.000595456 -0.0027709)
(0.0682365 -0.000466782 -0.00325741)
(0.0716788 -0.00040341 -0.00226683)
(0.0805442 4.65749e-05 0.00299192)
(0.0776729 -0.000224217 0.00291135)
(0.0743097 -0.00054481 0.00329863)
(0.0708759 -0.000519831 0.00302964)
(0.0675434 -0.000403394 0.00216017)
(0.0653692 -0.000400163 0.00148045)
(0.0640179 -0.000490204 0.000450287)
(0.0632032 -0.000590607 -0.0010492)
(0.0642594 -0.000898737 -0.00155673)
(0.0656804 -0.000920213 -0.00292882)
(0.0681342 -0.000655746 -0.003477)
(0.0716111 -0.000627021 -0.00252307)
(0.0804823 3.20515e-05 0.00281127)
(0.0777635 -0.000172389 0.00269517)
(0.0743258 -0.000696062 0.00299171)
(0.0709191 -0.000697694 0.0027152)
(0.0675725 -0.000471626 0.00193937)
(0.0653785 -0.00055455 0.00129057)
(0.0639924 -0.000684351 0.000261813)
(0.0631041 -0.000646284 -0.00119705)
(0.0640696 -0.00114931 -0.00175883)
(0.0655137 -0.00107805 -0.003233)
(0.067919 -0.000656855 -0.00382113)
(0.0714735 -0.000876889 -0.00290635)
(0.0801064 7.24307e-05 0.00247337)
(0.0782899 -0.00013567 0.00254724)
(0.0743631 -0.000410023 0.00276859)
(0.0711805 -0.000346926 0.00252819)
(0.0676942 -1.26183e-05 0.00181145)
(0.0657566 -0.000319527 0.00124483)
(0.0642117 -0.000695233 0.000146059)
(0.0632672 -0.000446937 -0.00132689)
(0.0643341 -0.00146025 -0.00183103)
(0.0653031 -0.00132056 -0.00352203)
(0.0678999 -0.000417005 -0.00403017)
(0.0715406 -0.00106364 -0.0030402)
(0.0812714 0.000169879 0.00167745)
(0.0808528 0.000250801 0.00200376)
(0.0795818 0.000118201 0.00250702)
(0.0782317 2.84972e-05 0.00264166)
(0.0750686 0.000607407 0.00225291)
(0.0748484 0.000198561 0.00186375)
(0.0718232 -0.000197474 0.000432541)
(0.0700297 0.000133577 -0.000911438)
(0.0706559 -0.00115856 -0.00114791)
(0.0671503 -0.000933355 -0.00385406)
(0.0703627 -2.5897e-06 -0.00387461)
(0.0729946 -0.000883927 -0.0022902)
(0.0068151 0.00740721 -0.000462543)
(0.0113276 0.0035491 2.17856e-05)
(0.0194553 0.00201963 -3.02399e-05)
(0.025079 0.00101708 0.000756527)
(0.0297142 0.000413773 0.000861738)
(0.0339887 0.000530667 0.000819934)
(0.0356608 0.000535793 -0.000450158)
(0.0386159 0.000504746 -0.00191311)
(0.04235 0.000825741 -0.00275607)
(0.045159 0.000231617 -0.00620102)
(0.0520189 0.000623577 -0.00655981)
(0.0575481 0.00149906 -0.00515973)
(0.0172354 0.00703813 0.000646996)
(0.0243337 0.00452254 0.00187978)
(0.0328496 0.00286467 0.00172553)
(0.0373073 0.00171583 0.00190461)
(0.0399579 0.000970692 0.00140005)
(0.042305 0.000997023 0.000855678)
(0.0438826 0.00096014 -0.000357033)
(0.0456435 0.000782299 -0.00201248)
(0.0486898 0.00146022 -0.00307416)
(0.0519499 0.00117251 -0.0052538)
(0.0562493 0.000888903 -0.0061376)
(0.0616877 0.00131262 -0.00519834)
(0.0175748 0.00386252 0.000601003)
(0.0253878 0.00328624 0.00192514)
(0.0340098 0.0025413 0.00200307)
(0.0386717 0.00178044 0.00216979)
(0.0415093 0.0012232 0.00171762)
(0.0438173 0.00105538 0.00104889)
(0.045632 0.000952054 -0.000135772)
(0.0473043 0.000890109 -0.00179844)
(0.0502065 0.00115915 -0.00288358)
(0.0535671 0.000991161 -0.00475578)
(0.0575009 0.000855666 -0.00566967)
(0.0626057 0.00091634 -0.00481674)
(0.0170459 0.00228665 0.000493104)
(0.0251675 0.00229524 0.00188688)
(0.0340832 0.00183271 0.00218958)
(0.0389717 0.00128585 0.00246544)
(0.0419956 0.000909669 0.00198425)
(0.0443958 0.000755646 0.00125327)
(0.0462674 0.000728162 3.9727e-05)
(0.0479986 0.000773067 -0.00163062)
(0.0508942 0.000936154 -0.00267622)
(0.0542 0.000847099 -0.00440251)
(0.0580814 0.000678179 -0.00522187)
(0.0629517 0.000577144 -0.00434823)
(0.0166535 0.00111412 0.000403949)
(0.0249693 0.00124894 0.00184019)
(0.0340653 0.00103199 0.00225936)
(0.0390249 0.000738241 0.00260318)
(0.0421163 0.000530729 0.0020974)
(0.0445335 0.000435137 0.00132339)
(0.0463789 0.000447537 8.56398e-05)
(0.0481585 0.000514023 -0.00157626)
(0.0510953 0.000596103 -0.00257776)
(0.0544177 0.000554086 -0.0042111)
(0.0583359 0.000446074 -0.00494338)
(0.0630709 0.000352143 -0.00403839)
(0.016478 0.000351384 0.000367517)
(0.0248458 0.000406618 0.00180323)
(0.0340069 0.000340921 0.00228543)
(0.0389875 0.000244857 0.00266439)
(0.0421092 0.000176443 0.00214122)
(0.044521 0.000142606 0.00134255)
(0.0463502 0.000150451 8.63221e-05)
(0.0481578 0.000177966 -0.00157161)
(0.0511188 0.000205104 -0.00255245)
(0.0544553 0.000195048 -0.00414383)
(0.0584009 0.00015584 -0.00481992)
(0.0630772 0.000116507 -0.00389039)
(0.0164778 -0.000352701 0.000367482)
(0.0248456 -0.000407719 0.00180315)
(0.0340067 -0.000341818 0.00228535)
(0.0389873 -0.00024589 0.00266435)
(0.0421089 -0.000177773 0.00214116)
(0.0445205 -0.000143693 0.00134239)
(0.0463497 -0.000151701 8.61543e-05)
(0.0481571 -0.000179186 -0.00157185)
(0.051118 -0.000206131 -0.00255277)
(0.0544545 -0.000197173 -0.00414411)
(0.0584 -0.00015836 -0.00482041)
(0.0630764 -0.000119258 -0.00389091)
(0.016653 -0.0011152 0.000403853)
(0.024969 -0.00124985 0.00184)
(0.0340648 -0.00103267 0.0022592)
(0.0390245 -0.000738959 0.00260309)
(0.0421157 -0.000531637 0.00209724)
(0.0445323 -0.00043577 0.00132293)
(0.0463774 -0.000448322 8.51559e-05)
(0.0481565 -0.000514788 -0.00157696)
(0.0510929 -0.000596754 -0.00257871)
(0.0544153 -0.000555926 -0.00421192)
(0.0583333 -0.000448398 -0.00494479)
(0.0630685 -0.000354826 -0.00403988)
(0.0170452 -0.00228742 0.000492962)
(0.0251672 -0.0022958 0.00188662)
(0.0340826 -0.00183296 0.00218931)
(0.038971 -0.00128592 0.00246529)
(0.0419946 -0.00090973 0.00198402)
(0.0443941 -0.000755327 0.00125263)
(0.0462654 -0.000727999 3.90691e-05)
(0.0479958 -0.000772916 -0.00163159)
(0.0508906 -0.000936037 -0.00267758)
(0.0541965 -0.000848442 -0.00440365)
(0.0580775 -0.000680203 -0.00522398)
(0.062948 -0.000579762 -0.00435052)
(0.0175739 -0.00386288 0.000600833)
(0.0253872 -0.00328627 0.0019248)
(0.0340089 -0.00254094 0.00200276)
(0.038671 -0.00177983 0.00216955)
(0.0415082 -0.00122237 0.00171736)
(0.0438156 -0.00105394 0.00104821)
(0.04563 -0.000950814 -0.000136395)
(0.0473014 -0.000888886 -0.0017994)
(0.0502025 -0.00115817 -0.00288495)
(0.0535631 -0.000992079 -0.00475683)
(0.0574964 -0.000857309 -0.00567207)
(0.0626014 -0.000918861 -0.00481952)
(0.0172343 -0.00703766 0.000646776)
(0.0243333 -0.00452192 0.00187947)
(0.0328491 -0.00286359 0.00172533)
(0.0373072 -0.00171449 0.00190461)
(0.0399575 -0.00096911 0.00140005)
(0.0423044 -0.000994593 0.00085535)
(0.0438822 -0.0009581 -0.000356963)
(0.0456421 -0.00078011 -0.00201275)
(0.0486875 -0.00145817 -0.00307466)
(0.0519474 -0.00117316 -0.00525378)
(0.0562456 -0.000890169 -0.00613961)
(0.0616844 -0.0013149 -0.00520087)
(0.00681508 -0.00740641 -0.000462697)
(0.011329 -0.00354831 2.19136e-05)
(0.0194566 -0.00201854 -2.99149e-05)
(0.0250816 -0.0010159 0.000757267)
(0.0297164 -0.000412257 0.000862668)
(0.033992 -0.000528494 0.000820646)
(0.0356658 -0.000534037 -0.000448342)
(0.0386187 -0.000502869 -0.00191217)
(0.0423539 -0.000824494 -0.00275414)
(0.0451612 -0.000232332 -0.00619772)
(0.0520174 -0.000623758 -0.00656088)
(0.0575501 -0.00150046 -0.00516077)
(-0.004741 0.00107987 -0.0133314)
(-0.0025698 0.00183277 -0.00803937)
(0.00115598 0.000897883 -0.00598249)
(0.00584058 0.000306667 -0.00379451)
(0.0109317 0.000118724 -0.00253048)
(0.0161789 0.000231232 -0.00190428)
(0.0208526 0.000149102 -0.00299975)
(0.0258312 0.000167007 -0.00455019)
(0.0317204 0.00082429 -0.00593923)
(0.0371135 0.00107371 -0.00970366)
(0.0439517 0.00151224 -0.010416)
(0.050734 0.00109455 -0.00883353)
(-0.00359198 0.00311221 -0.014225)
(0.00404539 0.00367548 -0.00526127)
(0.010571 0.00226407 -0.0031374)
(0.0160982 0.00136732 -0.00151457)
(0.0208615 0.000807382 -0.000929674)
(0.0251153 0.000772613 -0.000990805)
(0.0290198 0.000683488 -0.00203942)
(0.0328078 0.000700722 -0.00379597)
(0.037517 0.00134849 -0.00537863)
(0.0425174 0.00131178 -0.00781347)
(0.0481224 0.00118844 -0.00881696)
(0.0546161 0.000792892 -0.00772624)
(-0.00261432 0.00249266 -0.0141022)
(0.00646601 0.00303031 -0.00455051)
(0.0127837 0.00213754 -0.00226124)
(0.0186576 0.00148696 -0.000793648)
(0.0233485 0.00100364 -0.000359444)
(0.0275393 0.000867259 -0.000603964)
(0.0313937 0.000775137 -0.00162752)
(0.0350288 0.000789986 -0.00336468)
(0.0395237 0.001061 -0.00488464)
(0.0444431 0.00102434 -0.007006)
(0.049661 0.000938814 -0.00807255)
(0.0556543 0.000551565 -0.00711768)
(-0.00237179 0.00183386 -0.0143463)
(0.00683864 0.00226591 -0.00466053)
(0.0133286 0.00173436 -0.00197005)
(0.0194162 0.00121815 -0.000398001)
(0.0242302 0.000861764 -5.0233e-06)
(0.0285059 0.00073009 -0.000328253)
(0.0323792 0.000689923 -0.00137378)
(0.0360431 0.000715018 -0.00309825)
(0.0404643 0.00082872 -0.0045876)
(0.0452712 0.00077117 -0.00656367)
(0.0503352 0.000645385 -0.00752569)
(0.0560161 0.000340834 -0.0065697)
(-0.00227844 0.00100989 -0.0144336)
(0.00683927 0.00127873 -0.00482644)
(0.0134323 0.00102447 -0.00191974)
(0.019612 0.000744238 -0.000266075)
(0.0245085 0.000550499 0.000113654)
(0.0288328 0.000474927 -0.000233652)
(0.0327166 0.000469203 -0.00128346)
(0.0364253 0.000492262 -0.00299195)
(0.0408376 0.000526319 -0.00444516)
(0.0456121 0.000481263 -0.00633052)
(0.0506248 0.000397105 -0.00719568)
(0.0561254 0.000218261 -0.00620941)
(-0.00225619 0.000337851 -0.0144783)
(0.00676491 0.000425708 -0.00493647)
(0.0133877 0.00034667 -0.00193274)
(0.0196045 0.000254107 -0.000233332)
(0.0245451 0.000189935 0.000142167)
(0.0288953 0.000164088 -0.000213741)
(0.0327925 0.000164888 -0.00126745)
(0.0365325 0.000173895 -0.00296703)
(0.0409493 0.000181743 -0.0044009)
(0.0457158 0.000166073 -0.0062417)
(0.0507128 0.000134829 -0.00704405)
(0.0561341 7.35046e-05 -0.00602937)
(-0.00225625 -0.000339223 -0.0144783)
(0.00676473 -0.000426879 -0.00493662)
(0.0133875 -0.000347644 -0.00193289)
(0.0196042 -0.000255028 -0.000233462)
(0.0245448 -0.000190737 0.000142022)
(0.0288949 -0.000164586 -0.00021396)
(0.032792 -0.000165424 -0.00126768)
(0.0365318 -0.00017447 -0.00296732)
(0.0409485 -0.000182687 -0.00440126)
(0.045715 -0.000168259 -0.00624204)
(0.0507119 -0.000137741 -0.00704455)
(0.0561332 -7.7162e-05 -0.00602992)
(-0.0022786 -0.00101101 -0.0144337)
(0.00683887 -0.00127963 -0.00482682)
(0.0134317 -0.00102509 -0.00192017)