/*--------------------------------*- C++ -*----------------------------------*\
| =========                 |                                                 |
| \\      /  F ield         | OpenFOAM: The Open Source CFD Toolbox           |
|  \\    /   O peration     | Version:  2.3.1                                 |
|   \\  /    A nd           | Web:      www.OpenFOAM.org                      |
|    \\/     M anipulation  |                                                 |
\*---------------------------------------------------------------------------*/
FoamFile
{
    version     2.0;
    format      ascii;
    class       volScalarField;
    location    "5";
    object      epsilon;
}
// * * * * * * * * * * * * * * * * * * * * * * * * * * * * * * * * * * * * * //

dimensions      [0 2 -3 0 0 0 0];

internalField   nonuniform List<scalar> 
38152
(
0.00154065
0.00145141
0.00134213
0.00134655
0.0013719
0.00139595
0.00147153
0.00172363
0.00187316
0.00183044
0.00169244
0.00166023
0.00153239
0.000867264
9.13597e-05
5.26388e-06
2.10382e-06
1.93581e-06
1.88196e-06
1.84954e-06
1.82805e-06
1.81299e-06
1.802e-06
1.79371e-06
1.78728e-06
1.78218e-06
1.77804e-06
1.77461e-06
1.77172e-06
1.76925e-06
1.7671e-06
1.76521e-06
1.76353e-06
1.76202e-06
1.76067e-06
1.75944e-06
1.75831e-06
1.75728e-06
1.75632e-06
1.75541e-06
1.75453e-06
1.75346e-06
1.75932e-06
1.81661e-06
0.00211868
0.00222015
0.0023754
0.00237279
0.00225041
0.0023152
0.00278168
0.00302105
0.00277249
0.00264384
0.00268697
0.00210228
0.000647177
0.000122434
9.72928e-06
2.87734e-06
2.5395e-06
2.46172e-06
2.41358e-06
2.38063e-06
2.35727e-06
2.34022e-06
2.32743e-06
2.3176e-06
2.30988e-06
2.30367e-06
2.29859e-06
2.29434e-06
2.29073e-06
2.28761e-06
2.28489e-06
2.28249e-06
2.28036e-06
2.27845e-06
2.27672e-06
2.27516e-06
2.27372e-06
2.27239e-06
2.27114e-06
2.26987e-06
2.26766e-06
2.25621e-06
2.18832e-06
1.85038e-06
0.00172256
0.00184373
0.00197677
0.00210311
0.00215538
0.0021414
0.00216637
0.00215694
0.00199052
0.001569
0.00108908
0.000720597
0.000305455
5.16913e-05
8.5175e-06
3.29534e-06
2.84393e-06
2.71916e-06
2.64252e-06
2.59223e-06
2.55797e-06
2.53381e-06
2.51624e-06
2.5031e-06
2.49303e-06
2.48515e-06
2.47884e-06
2.47368e-06
2.46939e-06
2.46575e-06
2.46261e-06
2.45988e-06
2.45748e-06
2.45534e-06
2.45343e-06
2.4517e-06
2.45012e-06
2.44869e-06
2.44736e-06
2.44609e-06
2.4446e-06
2.44064e-06
2.41779e-06
2.29903e-06
1.86247e-06
0.000999982
0.00113135
0.00122547
0.00127081
0.00122656
0.000944332
0.000488092
0.000230216
0.000158638
0.00013204
9.57801e-05
5.38671e-05
1.75381e-05
5.60545e-06
3.35478e-06
2.9582e-06
2.811e-06
2.71982e-06
2.65968e-06
2.61811e-06
2.58862e-06
2.56721e-06
2.55131e-06
2.53925e-06
2.52991e-06
2.52253e-06
2.51658e-06
2.51169e-06
2.50758e-06
2.50408e-06
2.50105e-06
2.49839e-06
2.49605e-06
2.49395e-06
2.49207e-06
2.49035e-06
2.4888e-06
2.48737e-06
2.48606e-06
2.48479e-06
2.48326e-06
2.47898e-06
2.45473e-06
2.33165e-06
1.86503e-06
0.000256799
0.00023761
0.000192175
0.000125047
6.07918e-05
3.03052e-05
1.90365e-05
1.48631e-05
1.21211e-05
8.75165e-06
5.79002e-06
3.89198e-06
3.20786e-06
2.97037e-06
2.84158e-06
2.75239e-06
2.68827e-06
2.64203e-06
2.60874e-06
2.58442e-06
2.56639e-06
2.55276e-06
2.54225e-06
2.53398e-06
2.52735e-06
2.52194e-06
2.51743e-06
2.5136e-06
2.5103e-06
2.50742e-06
2.50488e-06
2.50262e-06
2.50058e-06
2.49873e-06
2.49704e-06
2.4955e-06
2.49409e-06
2.49279e-06
2.49156e-06
2.49022e-06
2.48768e-06
2.47649e-06
2.42149e-06
2.22826e-06
2.91514e-05
2.27007e-05
1.64459e-05
1.04892e-05
6.77959e-06
5.26868e-06
4.54253e-06
4.16542e-06
3.88333e-06
3.57351e-06
3.2978e-06
3.0899e-06
2.9482e-06
2.84177e-06
2.75994e-06
2.69829e-06
2.65236e-06
2.61824e-06
2.59277e-06
2.57362e-06
2.55902e-06
2.54774e-06
2.53889e-06
2.53181e-06
2.52603e-06
2.52123e-06
2.51717e-06
2.51367e-06
2.51062e-06
2.50792e-06
2.50551e-06
2.50335e-06
2.50137e-06
2.49956e-06
2.49791e-06
2.49639e-06
2.49499e-06
2.49371e-06
2.4925e-06
2.49128e-06
2.48971e-06
2.48535e-06
2.46904e-06
2.42865e-06
6.35449e-06
5.71306e-06
4.98846e-06
4.41161e-06
3.92884e-06
3.62628e-06
3.45167e-06
3.32427e-06
3.22925e-06
3.14414e-06
3.05818e-06
2.97323e-06
2.89012e-06
2.81478e-06
2.7493e-06
2.69561e-06
2.6532e-06
2.62043e-06
2.59539e-06
2.57629e-06
2.56165e-06
2.55031e-06
2.54141e-06
2.53427e-06
2.52843e-06
2.52356e-06
2.51943e-06
2.51585e-06
2.5127e-06
2.5099e-06
2.5074e-06
2.50514e-06
2.50307e-06
2.50116e-06
2.4994e-06
2.49778e-06
2.49628e-06
2.49491e-06
2.49364e-06
2.49244e-06
2.49124e-06
2.48967e-06
2.48532e-06
2.46901e-06
2.42862e-06
4.54451e-06
4.21629e-06
3.93509e-06
3.70987e-06
3.52834e-06
3.38529e-06
3.27013e-06
3.17166e-06
3.08515e-06
3.00363e-06
2.92608e-06
2.85411e-06
2.78872e-06
2.73199e-06
2.68428e-06
2.64564e-06
2.61523e-06
2.59173e-06
2.57371e-06
2.5599e-06
2.54925e-06
2.5409e-06
2.53421e-06
2.52872e-06
2.5241e-06
2.52012e-06
2.51664e-06
2.51354e-06
2.51075e-06
2.50821e-06
2.5059e-06
2.50377e-06
2.5018e-06
2.49996e-06
2.49825e-06
2.49666e-06
2.49519e-06
2.49385e-06
2.49259e-06
2.49139e-06
2.49008e-06
2.48756e-06
2.47637e-06
2.42141e-06
2.2279e-06
4.23873e-06
3.95943e-06
3.72705e-06
3.53535e-06
3.37253e-06
3.23792e-06
3.12649e-06
3.033e-06
2.95289e-06
2.88199e-06
2.8183e-06
2.7608e-06
2.70959e-06
2.66565e-06
2.62933e-06
2.60042e-06
2.57811e-06
2.56124e-06
2.54861e-06
2.53916e-06
2.53197e-06
2.52631e-06
2.52169e-06
2.51774e-06
2.51426e-06
2.51112e-06
2.50825e-06
2.50559e-06
2.50311e-06
2.5008e-06
2.49865e-06
2.49665e-06
2.49476e-06
2.49299e-06
2.49132e-06
2.48976e-06
4.11961e-06
3.85852e-06
3.64272e-06
3.45643e-06
3.29732e-06
3.16242e-06
3.0476e-06
2.94933e-06
2.86484e-06
2.79174e-06
2.72795e-06
2.67266e-06
2.62579e-06
2.58725e-06
2.55659e-06
2.53311e-06
2.51584e-06
2.50359e-06
2.49511e-06
2.4892e-06
2.48492e-06
2.48156e-06
2.47867e-06
2.47598e-06
2.4734e-06
2.4709e-06
2.46847e-06
2.46612e-06
2.46386e-06
2.46171e-06
2.45966e-06
2.45773e-06
2.4559e-06
2.45417e-06
2.45253e-06
3.81708e-06
3.59599e-06
3.39866e-06
3.22523e-06
3.07443e-06
2.94431e-06
2.83257e-06
2.73678e-06
2.65459e-06
2.58403e-06
2.52358e-06
2.47157e-06
2.42773e-06
2.39194e-06
2.36383e-06
2.34276e-06
2.32778e-06
2.3178e-06
2.31161e-06
2.30797e-06
2.3057e-06
2.3039e-06
2.30207e-06
2.30007e-06
2.29791e-06
2.29567e-06
2.29339e-06
2.29114e-06
2.28893e-06
2.28681e-06
2.28478e-06
2.28285e-06
2.28103e-06
2.2793e-06
2.27767e-06
2.80968e-06
2.66087e-06
2.52705e-06
2.4087e-06
2.30527e-06
2.21542e-06
2.13778e-06
2.07088e-06
2.0132e-06
1.96361e-06
1.92138e-06
1.88596e-06
1.8568e-06
1.83319e-06
1.81485e-06
1.80135e-06
1.79202e-06
1.78613e-06
1.78294e-06
1.78167e-06
1.78132e-06
1.7808e-06
1.7798e-06
1.77845e-06
1.77687e-06
1.77517e-06
1.77342e-06
1.77169e-06
1.76999e-06
1.76836e-06
1.76679e-06
1.76531e-06
1.76391e-06
1.76259e-06
1.76134e-06
0.00122471
0.00114133
0.00113252
0.00110417
0.00102911
0.00102833
0.00106976
0.00123679
0.00143717
0.0015292
0.00160891
0.00153636
0.00120374
0.000398247
3.2572e-05
2.82735e-06
1.79887e-06
1.76753e-06
1.76067e-06
1.75515e-06
1.75073e-06
1.74721e-06
1.74439e-06
1.74211e-06
1.74023e-06
1.73865e-06
1.73732e-06
1.73617e-06
1.73516e-06
1.73427e-06
1.73347e-06
1.73276e-06
1.73211e-06
1.73152e-06
1.73098e-06
1.73048e-06
1.73001e-06
1.72957e-06
1.72915e-06
1.72872e-06
1.7281e-06
1.72561e-06
1.71301e-06
1.65564e-06
0.00148362
0.00141644
0.0013715
0.00130419
0.00132058
0.00147816
0.00177129
0.00208752
0.00241073
0.0024766
0.00303352
0.00273068
0.000803643
0.000108724
8.80336e-06
2.19322e-06
1.66446e-06
1.53711e-06
1.48652e-06
1.46229e-06
1.44917e-06
1.44137e-06
1.43636e-06
1.43295e-06
1.43051e-06
1.42871e-06
1.42733e-06
1.42626e-06
1.42539e-06
1.42468e-06
1.42409e-06
1.42358e-06
1.42314e-06
1.42274e-06
1.42239e-06
1.42208e-06
1.4218e-06
1.42156e-06
1.42135e-06
1.42122e-06
1.42168e-06
1.42699e-06
1.46517e-06
1.7057e-06
0.000947698
0.00102797
0.00110738
0.00117917
0.00128534
0.00152088
0.00188848
0.00211408
0.00206272
0.00167054
0.00131916
0.00101374
0.000518445
7.98143e-05
1.01545e-05
2.45016e-06
1.70847e-06
1.51906e-06
1.43958e-06
1.40152e-06
1.38149e-06
1.36998e-06
1.36284e-06
1.35812e-06
1.35482e-06
1.35242e-06
1.3506e-06
1.3492e-06
1.34808e-06
1.34717e-06
1.34642e-06
1.34578e-06
1.34522e-06
1.34474e-06
1.34431e-06
1.34392e-06
1.34358e-06
1.34327e-06
1.34299e-06
1.34277e-06
1.34277e-06
1.34432e-06
1.35582e-06
1.41863e-06
1.73026e-06
0.000659663
0.000762655
0.000862136
0.000952399
0.000985668
0.00081381
0.000468059
0.000260458
0.000192893
0.000176442
0.000157858
0.000108788
3.86637e-05
7.02908e-06
2.44727e-06
1.76547e-06
1.54899e-06
1.44905e-06
1.39899e-06
1.37225e-06
1.35693e-06
1.34754e-06
1.34141e-06
1.33721e-06
1.33419e-06
1.33195e-06
1.33022e-06
1.32886e-06
1.32778e-06
1.32688e-06
1.32613e-06
1.32549e-06
1.32493e-06
1.32445e-06
1.32401e-06
1.32363e-06
1.32327e-06
1.32295e-06
1.32267e-06
1.32244e-06
1.32248e-06
1.32429e-06
1.33696e-06
1.40545e-06
1.79431e-06
0.000216626
0.000207531
0.000181087
0.000127414
7.1487e-05
4.0832e-05
2.76758e-05
2.32171e-05
2.08857e-05
1.62539e-05
9.53621e-06
3.91886e-06
2.13646e-06
1.72568e-06
1.55338e-06
1.46029e-06
1.40805e-06
1.37779e-06
1.35961e-06
1.34822e-06
1.34077e-06
1.33567e-06
1.33204e-06
1.32936e-06
1.32733e-06
1.32573e-06
1.32446e-06
1.32343e-06
1.32257e-06
1.32185e-06
1.32122e-06
1.32068e-06
1.3202e-06
1.31978e-06
1.3194e-06
1.31905e-06
1.31873e-06
1.31844e-06
1.3182e-06
1.31811e-06
1.31893e-06
1.32488e-06
1.35293e-06
1.45049e-06
2.78595e-05
2.38805e-05
1.9005e-05
1.27009e-05
7.8357e-06
5.54681e-06
4.36731e-06
3.76163e-06
3.3158e-06
2.73617e-06
2.17465e-06
1.81196e-06
1.64231e-06
1.53663e-06
1.46329e-06
1.4152e-06
1.38445e-06
1.36483e-06
1.35209e-06
1.34357e-06
1.33769e-06
1.33348e-06
1.33039e-06
1.32804e-06
1.32621e-06
1.32475e-06
1.32357e-06
1.3226e-06
1.32178e-06
1.32108e-06
1.32048e-06
1.31995e-06
1.31949e-06
1.31908e-06
1.3187e-06
1.31836e-06
1.31804e-06
1.31775e-06
1.31751e-06
1.31733e-06
1.31752e-06
1.31959e-06
1.32884e-06
1.35462e-06
4.94574e-06
4.56207e-06
3.89996e-06
3.29546e-06
2.69543e-06
2.29527e-06
2.0886e-06
1.94904e-06
1.86246e-06
1.79023e-06
1.70877e-06
1.6319e-06
1.56204e-06
1.50198e-06
1.45244e-06
1.41457e-06
1.38746e-06
1.3686e-06
1.3556e-06
1.34657e-06
1.34018e-06
1.33556e-06
1.33211e-06
1.32949e-06
1.32745e-06
1.32582e-06
1.32449e-06
1.3234e-06
1.32248e-06
1.3217e-06
1.32103e-06
1.32044e-06
1.31993e-06
1.31948e-06
1.31908e-06
1.31871e-06
1.31837e-06
1.31806e-06
1.31777e-06
1.31752e-06
1.31735e-06
1.31754e-06
1.31961e-06
1.32886e-06
1.35463e-06
2.03852e-06
1.9398e-06
1.83684e-06
1.75355e-06
1.67764e-06
1.62349e-06
1.58973e-06
1.56433e-06
1.5475e-06
1.5324e-06
1.51388e-06
1.49082e-06
1.46287e-06
1.43432e-06
1.40832e-06
1.38691e-06
1.37044e-06
1.35826e-06
1.34937e-06
1.34287e-06
1.33805e-06
1.33441e-06
1.3316e-06
1.32939e-06
1.32761e-06
1.32616e-06
1.32495e-06
1.32394e-06
1.32307e-06
1.32233e-06
1.32168e-06
1.32111e-06
1.32062e-06
1.32018e-06
1.31979e-06
1.31943e-06
1.31909e-06
1.31877e-06
1.31849e-06
1.31824e-06
1.31815e-06
1.31897e-06
1.32492e-06
1.35296e-06
1.4504e-06
1.70474e-06
1.65797e-06
1.61705e-06
1.58288e-06
1.55257e-06
1.52793e-06
1.50902e-06
1.49369e-06
1.48068e-06
1.4674e-06
1.45259e-06
1.43636e-06
1.41897e-06
1.40189e-06
1.38634e-06
1.37315e-06
1.36259e-06
1.35441e-06
1.34818e-06
1.34342e-06
1.33977e-06
1.33692e-06
1.33465e-06
1.33281e-06
1.33129e-06
1.33001e-06
1.32892e-06
1.32799e-06
1.32718e-06
1.32647e-06
1.32586e-06
1.32531e-06
1.32483e-06
1.3244e-06
1.32402e-06
1.32367e-06
1.61102e-06
1.57523e-06
1.54438e-06
1.51778e-06
1.49514e-06
1.47699e-06
1.46299e-06
1.45208e-06
1.4437e-06
1.43624e-06
1.42806e-06
1.41854e-06
1.40797e-06
1.39733e-06
1.38747e-06
1.37906e-06
1.37227e-06
1.36697e-06
1.36288e-06
1.35969e-06
1.35716e-06
1.35511e-06
1.3534e-06
1.35197e-06
1.35074e-06
1.34967e-06
1.34874e-06
1.34792e-06
1.34721e-06
1.34657e-06
1.34601e-06
1.3455e-06
1.34505e-06
1.34465e-06
1.34429e-06
1.63382e-06
1.60289e-06
1.57558e-06
1.55193e-06
1.53184e-06
1.51537e-06
1.50212e-06
1.49153e-06
1.48306e-06
1.47593e-06
1.46956e-06
1.46326e-06
1.45705e-06
1.45125e-06
1.44617e-06
1.44196e-06
1.43862e-06
1.43605e-06
1.43406e-06
1.4325e-06
1.43121e-06
1.43011e-06
1.42914e-06
1.42826e-06
1.42747e-06
1.42675e-06
1.4261e-06
1.4255e-06
1.42497e-06
1.42448e-06
1.42403e-06
1.42362e-06
1.42326e-06
1.42292e-06
1.42262e-06
2.33066e-06
2.25067e-06
2.17841e-06
2.11392e-06
2.05703e-06
2.00716e-06
1.96371e-06
1.92591e-06
1.89296e-06
1.86407e-06
1.8387e-06
1.81648e-06
1.79736e-06
1.78153e-06
1.76887e-06
1.75918e-06
1.7521e-06
1.74726e-06
1.74418e-06
1.74241e-06
1.74137e-06
1.74052e-06
1.73968e-06
1.73883e-06
1.73799e-06
1.73717e-06
1.73637e-06
1.73561e-06
1.73488e-06
1.73419e-06
1.73353e-06
1.73291e-06
1.73232e-06
1.73176e-06
1.73123e-06
0.00155888
0.00141399
0.00134671
0.00112879
0.000918612
0.000928445
0.0010714
0.00143429
0.00176061
0.00207488
0.00214823
0.00187825
0.00117479
0.0002481
1.64981e-05
2.58639e-06
2.06548e-06
2.02349e-06
2.00409e-06
1.99143e-06
1.98265e-06
1.97629e-06
1.97152e-06
1.96785e-06
1.96494e-06
1.9626e-06
1.96066e-06
1.95903e-06
1.95765e-06
1.95644e-06
1.95539e-06
1.95445e-06
1.95362e-06
1.95287e-06
1.95219e-06
1.95157e-06
1.95099e-06
1.95047e-06
1.94997e-06
1.94943e-06
1.94828e-06
1.94191e-06
1.90691e-06
1.76564e-06
0.00147039
0.00132859
0.00122563
0.00122319
0.00137505
0.00174941
0.0021246
0.00234608
0.0025453
0.00330634
0.00441992
0.00264475
0.000527898
6.06572e-05
5.59958e-06
1.87202e-06
1.40999e-06
1.27675e-06
1.22359e-06
1.1987e-06
1.18566e-06
1.17818e-06
1.17358e-06
1.17058e-06
1.16853e-06
1.16709e-06
1.16604e-06
1.16526e-06
1.16468e-06
1.16422e-06
1.16385e-06
1.16355e-06
1.16329e-06
1.16308e-06
1.16288e-06
1.16272e-06
1.16257e-06
1.16245e-06
1.16236e-06
1.16249e-06
1.16436e-06
1.17902e-06
1.26967e-06
1.8504e-06
0.000754931
0.000833019
0.000925648
0.00104182
0.00126573
0.00165052
0.00198248
0.00202714
0.00177188
0.00145522
0.00127969
0.00104284
0.000403347
5.1813e-05
6.57962e-06
1.91268e-06
1.30624e-06
1.12748e-06
1.05534e-06
1.02278e-06
1.00674e-06
9.98141e-07
9.93158e-07
9.90063e-07
9.88023e-07
9.86611e-07
9.85594e-07
9.84837e-07
9.8426e-07
9.83809e-07
9.83447e-07
9.83149e-07
9.82897e-07
9.82681e-07
9.82494e-07
9.82328e-07
9.82181e-07
9.82052e-07
9.81946e-07
9.8192e-07
9.82449e-07
9.8692e-07
1.0144e-06
1.15344e-06
1.89832e-06
0.00050057
0.000599856
0.000689228
0.000747766
0.000715936
0.000503292
0.00030587
0.000196255
0.000162029
0.000164518
0.000155826
9.86849e-05
2.65736e-05
5.05104e-06
1.91791e-06
1.33181e-06
1.12201e-06
1.03019e-06
9.8725e-07
9.65955e-07
9.54673e-07
9.48265e-07
9.44379e-07
9.4188e-07
9.40185e-07
9.38981e-07
9.38092e-07
9.37417e-07
9.36893e-07
9.36474e-07
9.36132e-07
9.35845e-07
9.35601e-07
9.35391e-07
9.35207e-07
9.35044e-07
9.34898e-07
9.34767e-07
9.3466e-07
9.34648e-07
9.3529e-07
9.40301e-07
9.69642e-07
1.11744e-06
2.02592e-06
0.000133653
0.000124856
0.000106018
7.44343e-05
4.54066e-05
3.10594e-05
2.40833e-05
2.15448e-05
1.97414e-05
1.4965e-05
7.8248e-06
2.93945e-06
1.64231e-06
1.27988e-06
1.11549e-06
1.03081e-06
9.86114e-07
9.61852e-07
9.48266e-07
9.4036e-07
9.35551e-07
9.32479e-07
9.30421e-07
9.28981e-07
9.2793e-07
9.27137e-07
9.26524e-07
9.26039e-07
9.25646e-07
9.2532e-07
9.25044e-07
9.24808e-07
9.24604e-07
9.24426e-07
9.24267e-07
9.24124e-07
9.23993e-07
9.23881e-07
9.23831e-07
9.24163e-07
9.26882e-07
9.41892e-07
1.00573e-06
1.22225e-06
1.81829e-05
1.57497e-05
1.273e-05
8.89879e-06
6.06156e-06
4.63492e-06
3.73946e-06
3.22749e-06
2.78929e-06
2.21015e-06
1.67334e-06
1.35743e-06
1.20139e-06
1.10025e-06
1.03283e-06
9.90934e-07
9.65686e-07
9.50581e-07
9.41431e-07
9.35736e-07
9.32065e-07
9.29605e-07
9.27891e-07
9.26653e-07
9.25726e-07
9.2501e-07
9.24446e-07
9.23993e-07
9.23619e-07
9.23306e-07
9.2304e-07
9.22812e-07
9.22615e-07
9.22442e-07
9.22287e-07
9.22146e-07
9.22016e-07
9.21901e-07
9.21823e-07
9.21925e-07
9.23065e-07
9.29222e-07
9.52753e-07
1.01307e-06
3.85079e-06
3.48606e-06
2.9742e-06
2.52289e-06
2.08756e-06
1.78827e-06
1.61533e-06
1.4899e-06
1.40974e-06
1.34064e-06
1.26287e-06
1.18991e-06
1.12443e-06
1.06878e-06
1.02406e-06
9.91138e-07
9.68611e-07
9.53745e-07
9.44089e-07
9.37808e-07
9.33657e-07
9.30838e-07
9.28861e-07
9.27429e-07
9.26361e-07
9.25538e-07
9.2489e-07
9.24369e-07
9.23942e-07
9.23586e-07
9.23284e-07
9.23026e-07
9.22806e-07
9.22616e-07
9.22448e-07
9.22296e-07
9.22155e-07
9.22025e-07
9.2191e-07
9.21832e-07
9.21933e-07
9.23073e-07
9.2923e-07
9.52758e-07
1.01305e-06
1.59216e-06
1.49119e-06
1.39236e-06
1.31221e-06
1.24011e-06
1.18777e-06
1.1542e-06
1.12969e-06
1.11363e-06
1.09955e-06
1.08255e-06
1.06157e-06
1.03637e-06
1.011e-06
9.88424e-07
9.70448e-07
9.5721e-07
9.47879e-07
9.41438e-07
9.37005e-07
9.3392e-07
9.31737e-07
9.3015e-07
9.28963e-07
9.2805e-07
9.27329e-07
9.26746e-07
9.26268e-07
9.2587e-07
9.25533e-07
9.25244e-07
9.24997e-07
9.24784e-07
9.246e-07
9.24438e-07
9.2429e-07
9.2415e-07
9.24021e-07
9.23908e-07
9.23858e-07
9.24186e-07
9.26904e-07
9.41912e-07
1.00573e-06
1.22204e-06
1.26825e-06
1.22328e-06
1.18385e-06
1.1511e-06
1.12261e-06
1.09985e-06
1.08256e-06
1.06884e-06
1.0579e-06
1.047e-06
1.03461e-06
1.02074e-06
1.00574e-06
9.91053e-07
9.77845e-07
9.66948e-07
9.58545e-07
9.52429e-07
9.48104e-07
9.45052e-07
9.42876e-07
9.41284e-07
9.40085e-07
9.39158e-07
9.38421e-07
9.3782e-07
9.3732e-07
9.36901e-07
9.36544e-07
9.36237e-07
9.35971e-07
9.3574e-07
9.35539e-07
9.35364e-07
9.3521e-07
9.35069e-07
1.19463e-06
1.16452e-06
1.13783e-06
1.11493e-06
1.09556e-06
1.08035e-06
1.06892e-06
1.06016e-06
1.05331e-06
1.0468e-06
1.03966e-06
1.03158e-06
1.02282e-06
1.01429e-06
1.00675e-06
1.00067e-06
9.96088e-07
9.92765e-07
9.90402e-07
9.88731e-07
9.87527e-07
9.86631e-07
9.85935e-07
9.85374e-07
9.84904e-07
9.845e-07
9.84148e-07
9.83839e-07
9.83566e-07
9.83323e-07
9.83106e-07
9.82911e-07
9.82738e-07
9.82586e-07
9.8245e-07
1.31256e-06
1.28651e-06
1.26384e-06
1.24455e-06
1.22855e-06
1.21584e-06
1.20596e-06
1.19831e-06
1.19233e-06
1.18734e-06
1.18291e-06
1.17877e-06
1.17488e-06
1.17145e-06
1.16867e-06
1.16665e-06
1.16536e-06
1.16465e-06
1.16433e-06
1.16424e-06
1.16424e-06
1.16425e-06
1.16425e-06
1.16421e-06
1.16414e-06
1.16403e-06
1.16391e-06
1.16377e-06
1.16363e-06
1.16349e-06
1.16335e-06
1.16321e-06
1.16308e-06
1.16296e-06
1.16285e-06
2.63994e-06
2.55293e-06
2.47403e-06
2.40335e-06
2.34076e-06
2.28582e-06
2.23787e-06
2.19604e-06
2.15941e-06
2.12698e-06
2.09812e-06
2.07239e-06
2.04971e-06
2.03012e-06
2.01372e-06
2.00048e-06
1.9902e-06
1.98253e-06
1.97706e-06
1.97325e-06
1.9705e-06
1.96824e-06
1.96625e-06
1.96444e-06
1.9628e-06
1.96132e-06
1.95997e-06
1.95875e-06
1.95763e-06
1.95661e-06
1.95568e-06
1.95482e-06
1.95404e-06
1.95331e-06
1.95262e-06
0.00170155
0.00154008
0.00138105
0.00087062
0.000637095
0.000746243
0.0011739
0.00161012
0.00201829
0.00224266
0.00214664
0.00171343
0.000824382
0.000111899
7.12885e-06
2.36594e-06
2.1509e-06
2.112e-06
2.09043e-06
2.07646e-06
2.06684e-06
2.05991e-06
2.05473e-06
2.05076e-06
2.04762e-06
2.0451e-06
2.04302e-06
2.04127e-06
2.03979e-06
2.0385e-06
2.03738e-06
2.03639e-06
2.0355e-06
2.03471e-06
2.03399e-06
2.03334e-06
2.03274e-06
2.0322e-06
2.03168e-06
2.03107e-06
2.02929e-06
2.01881e-06
1.96496e-06
1.78478e-06
0.00135012
0.00111232
0.00108243
0.00111848
0.00139492
0.00179871
0.00211972
0.00244993
0.00314323
0.00447811
0.0041691
0.00141755
0.000229118
2.46951e-05
3.4655e-06
1.63663e-06
1.27699e-06
1.155e-06
1.10359e-06
1.07885e-06
1.0657e-06
1.05812e-06
1.05346e-06
1.05043e-06
1.04839e-06
1.04698e-06
1.04596e-06
1.04523e-06
1.04468e-06
1.04426e-06
1.04393e-06
1.04367e-06
1.04345e-06
1.04327e-06
1.04311e-06
1.04296e-06
1.04285e-06
1.04275e-06
1.04271e-06
1.04303e-06
1.04615e-06
1.06757e-06
1.18753e-06
1.89552e-06
0.000588791
0.000603629
0.000725734
0.000903376
0.00114422
0.0014374
0.00158756
0.00141466
0.00113709
0.0010999
0.00109034
0.00076813
0.000137436
2.18117e-05
3.74028e-06
1.55223e-06
1.09775e-06
9.40152e-07
8.74464e-07
8.44541e-07
8.2983e-07
8.22026e-07
8.17579e-07
8.14875e-07
8.13137e-07
8.11964e-07
8.11142e-07
8.10548e-07
8.10107e-07
8.09771e-07
8.09508e-07
8.09298e-07
8.09125e-07
8.0898e-07
8.08856e-07
8.08748e-07
8.08654e-07
8.08574e-07
8.08518e-07
8.08586e-07
8.09553e-07
8.16372e-07
8.54276e-07
1.03438e-06
1.96337e-06
0.000263827
0.000332166
0.000380251
0.000390902
0.000336581
0.00023891
0.000166309
0.000126282
0.000119481
0.000125967
0.000113609
5.38384e-05
1.1168e-05
3.16055e-06
1.55733e-06
1.09902e-06
9.11502e-07
8.28311e-07
7.89394e-07
7.70229e-07
7.60229e-07
7.54679e-07
7.51408e-07
7.49368e-07
7.48028e-07
7.47106e-07
7.46445e-07
7.45956e-07
7.45585e-07
7.45296e-07
7.45065e-07
7.44876e-07
7.44718e-07
7.44584e-07
7.44469e-07
7.44369e-07
7.4428e-07
7.44204e-07
7.44154e-07
7.44254e-07
7.45401e-07
7.52944e-07
7.92894e-07
9.82929e-07
2.13396e-06
5.41077e-05
4.98967e-05
4.28544e-05
3.30239e-05
2.47651e-05
1.99346e-05
1.69396e-05
1.55319e-05
1.37009e-05
9.47526e-06
4.45215e-06
2.04639e-06
1.33349e-06
1.04668e-06
8.9903e-07
8.22074e-07
7.81492e-07
7.59659e-07
7.47636e-07
7.40805e-07
7.3677e-07
7.34279e-07
7.32667e-07
7.31577e-07
7.30807e-07
7.30241e-07
7.29815e-07
7.29484e-07
7.29221e-07
7.29007e-07
7.2883e-07
7.2868e-07
7.28553e-07
7.28443e-07
7.28347e-07
7.28261e-07
7.28185e-07
7.28129e-07
7.28172e-07
7.28862e-07
7.33296e-07
7.55073e-07
8.40332e-07
1.1179e-06
9.24566e-06
8.1067e-06
6.81624e-06
5.25069e-06
4.02899e-06
3.30677e-06
2.78203e-06
2.42724e-06
2.08798e-06
1.67147e-06
1.32229e-06
1.11169e-06
9.78929e-07
8.8517e-07
8.22735e-07
7.84318e-07
7.61445e-07
7.47987e-07
7.40014e-07
7.35191e-07
7.32185e-07
7.30242e-07
7.28936e-07
7.28024e-07
7.27361e-07
7.26862e-07
7.26478e-07
7.26175e-07
7.2593e-07
7.25728e-07
7.25558e-07
7.25415e-07
7.25293e-07
7.25187e-07
7.25093e-07
7.25009e-07
7.24933e-07
7.24871e-07
7.24866e-07
7.25192e-07
7.27339e-07
7.37375e-07
7.72011e-07
8.54667e-07
2.73289e-06
2.45268e-06
2.13504e-06
1.86479e-06
1.61014e-06
1.4216e-06
1.29957e-06
1.20799e-06
1.14661e-06
1.09145e-06
1.02851e-06
9.66681e-07
9.07779e-07
8.56333e-07
8.14882e-07
7.84597e-07
7.64077e-07
7.50734e-07
7.42243e-07
7.36865e-07
7.33416e-07
7.31155e-07
7.29626e-07
7.28558e-07
7.27787e-07
7.2721e-07
7.26766e-07
7.26416e-07
7.26134e-07
7.25903e-07
7.2571e-07
7.25547e-07
7.25409e-07
7.25291e-07
7.25189e-07
7.25097e-07
7.25014e-07
7.24938e-07
7.24877e-07
7.24871e-07
7.25196e-07
7.27343e-07
7.37379e-07
7.72011e-07
8.5464e-07
1.35096e-06
1.25059e-06
1.15948e-06
1.08543e-06
1.02097e-06
9.73353e-07
9.4173e-07
9.18677e-07
9.03004e-07
8.89033e-07
8.72464e-07
8.52231e-07
8.28361e-07
8.04596e-07
7.83675e-07
7.67238e-07
7.55261e-07
7.46962e-07
7.41366e-07
7.37627e-07
7.35133e-07
7.33441e-07
7.32259e-07
7.31407e-07
7.30772e-07
7.30284e-07
7.29898e-07
7.29588e-07
7.29332e-07
7.29119e-07
7.28938e-07
7.28784e-07
7.28654e-07
7.28541e-07
7.28443e-07
7.28355e-07
7.28273e-07
7.28199e-07
7.28143e-07
7.28186e-07
7.28875e-07
7.33308e-07
7.55083e-07
8.40322e-07
1.11766e-06
1.08707e-06
1.03487e-06
9.89932e-07
9.5305e-07
9.22152e-07
8.98031e-07
8.79989e-07
8.66048e-07
8.55161e-07
8.44584e-07
8.32749e-07
8.19586e-07
8.05456e-07
7.91721e-07
7.79487e-07
7.69524e-07
7.62119e-07
7.56921e-07
7.53386e-07
7.51006e-07
7.49383e-07
7.48252e-07
7.47441e-07
7.46839e-07
7.46375e-07
7.46005e-07
7.45703e-07
7.45451e-07
7.45239e-07
7.45056e-07
7.44899e-07
7.44762e-07
7.44644e-07
7.44541e-07
7.44451e-07
7.44369e-07
1.03159e-06
9.96296e-07
9.65232e-07
9.3874e-07
9.16602e-07
8.99237e-07
8.8622e-07
8.76384e-07
8.68815e-07
8.61988e-07
8.54941e-07
8.47332e-07
8.39367e-07
8.31834e-07
8.25408e-07
8.20439e-07
8.16828e-07
8.14356e-07
8.12746e-07
8.11725e-07
8.11078e-07
8.10653e-07
8.10355e-07
8.10128e-07
8.09939e-07
8.09773e-07
8.09621e-07
8.09482e-07
8.09354e-07
8.09236e-07
8.09127e-07
8.09027e-07
8.08936e-07
8.08854e-07
8.0878e-07
1.19693e-06
1.16696e-06
1.14107e-06
1.11928e-06
1.10147e-06
1.08755e-06
1.07685e-06
1.06867e-06
1.06238e-06
1.05732e-06
1.05304e-06
1.04933e-06
1.04611e-06
1.04351e-06
1.04166e-06
1.0406e-06
1.04022e-06
1.04035e-06
1.04078e-06
1.04132e-06
1.04187e-06
1.04235e-06
1.04273e-06
1.04301e-06
1.0432e-06
1.04331e-06
1.04336e-06
1.04337e-06
1.04336e-06
1.04332e-06
1.04327e-06
1.0432e-06
1.04314e-06
1.04307e-06
1.04301e-06
2.76722e-06
2.67601e-06
2.59326e-06
2.51907e-06
2.45333e-06
2.39561e-06
2.34521e-06
2.30119e-06
2.26254e-06
2.2282e-06
2.19746e-06
2.16987e-06
2.14533e-06
2.12393e-06
2.1058e-06
2.09096e-06
2.07925e-06
2.07034e-06
2.06378e-06
2.05902e-06
2.05547e-06
2.05257e-06
2.05008e-06
2.04788e-06
2.04593e-06
2.04419e-06
2.04264e-06
2.04124e-06
2.03999e-06
2.03885e-06
2.03782e-06
2.03688e-06
2.03603e-06
2.03524e-06
2.03451e-06
0.00175155
0.00159233
0.00128198
0.000563503
0.000415105
0.000554053
0.000987857
0.00143396
0.00176164
0.00182383
0.00163875
0.00121495
0.000390331
3.46143e-05
3.56061e-06
2.27843e-06
2.18213e-06
2.14663e-06
2.12532e-06
2.11134e-06
2.10164e-06
2.09462e-06
2.08937e-06
2.08532e-06
2.08213e-06
2.07955e-06
2.07742e-06
2.07564e-06
2.07412e-06
2.07281e-06
2.07166e-06
2.07065e-06
2.06974e-06
2.06894e-06
2.06821e-06
2.06755e-06
2.06695e-06
2.06641e-06
2.06589e-06
2.06521e-06
2.06291e-06
2.04937e-06
1.98406e-06
1.78796e-06
0.00133608
0.00101796
0.000823961
0.00081123
0.00108314
0.00147584
0.00194139
0.00260089
0.00354195
0.00384891
0.00213733
0.000437766
8.13133e-05
9.29676e-06
2.42823e-06
1.46336e-06
1.19285e-06
1.08916e-06
1.04293e-06
1.01993e-06
1.00745e-06
1.00017e-06
9.95667e-07
9.9274e-07
9.90766e-07
9.89399e-07
9.88432e-07
9.87733e-07
9.87217e-07
9.86827e-07
9.86523e-07
9.86282e-07
9.86085e-07
9.85918e-07
9.8577e-07
9.85641e-07
9.85537e-07
9.8546e-07
9.85455e-07
9.85947e-07
9.90082e-07
1.01625e-06
1.15307e-06
1.91053e-06
0.000548436
0.000430142
0.000498092
0.000620314
0.000778284
0.000881493
0.000836839
0.000716603
0.000712851
0.000740586
0.000661715
0.000250253
4.41433e-05
8.7562e-06
2.40864e-06
1.30135e-06
9.65424e-07
8.34815e-07
7.78022e-07
7.51537e-07
7.3835e-07
7.31325e-07
7.27331e-07
7.24922e-07
7.2339e-07
7.22372e-07
7.2167e-07
7.21172e-07
7.20809e-07
7.20538e-07
7.2033e-07
7.20167e-07
7.20035e-07
7.19927e-07
7.19835e-07
7.19756e-07
7.19688e-07
7.19633e-07
7.19606e-07
7.19748e-07
7.21097e-07
7.29786e-07
7.74915e-07
9.79342e-07
1.99046e-06
0.000109353
0.000121863
0.000138099
0.000146314
0.000130186
9.94424e-05
7.59839e-05
6.51774e-05
6.37344e-05
6.37336e-05
4.69601e-05
1.68526e-05
5.21662e-06
2.18241e-06
1.29728e-06
9.44306e-07
7.88032e-07
7.16679e-07
6.82723e-07
6.65848e-07
6.57033e-07
6.52176e-07
6.49352e-07
6.47622e-07
6.46508e-07
6.45759e-07
6.45234e-07
6.44853e-07
6.4457e-07
6.44354e-07
6.44184e-07
6.44047e-07
6.43935e-07
6.43842e-07
6.43763e-07
6.43695e-07
6.43636e-07
6.43587e-07
6.43571e-07
6.43764e-07
6.45359e-07
6.54932e-07
7.02227e-07
9.17268e-07
2.18416e-06
2.22687e-05
2.07439e-05
1.8532e-05
1.53919e-05
1.24129e-05
1.04556e-05
9.05154e-06
8.10367e-06
6.79337e-06
4.5014e-06
2.48538e-06
1.5425e-06
1.1202e-06
8.96038e-07
7.71428e-07
7.04951e-07
6.69392e-07
6.50164e-07
6.39602e-07
6.33657e-07
6.30199e-07
6.28109e-07
6.26789e-07
6.25918e-07
6.25318e-07
6.24889e-07
6.24571e-07
6.24329e-07
6.2414e-07
6.23989e-07
6.23865e-07
6.23762e-07
6.23675e-07
6.23601e-07
6.23537e-07
6.23481e-07
6.23434e-07
6.2341e-07
6.2353e-07
6.24571e-07
6.30555e-07
6.57696e-07
7.57502e-07
1.06938e-06
5.1858e-06
4.5449e-06
3.89173e-06
3.1767e-06
2.60917e-06
2.24262e-06
1.95065e-06
1.7308e-06
1.51967e-06
1.28858e-06
1.09822e-06
9.53013e-07
8.42006e-07
7.59543e-07
7.04384e-07
6.70365e-07
6.50112e-07
6.38245e-07
6.31279e-07
6.2713e-07
6.24598e-07
6.23003e-07
6.2196e-07
6.21251e-07
6.20749e-07
6.20381e-07
6.20102e-07
6.19886e-07
6.19713e-07
6.19572e-07
6.19456e-07
6.19359e-07
6.19277e-07
6.19206e-07
6.19144e-07
6.19089e-07
6.19042e-07
6.1901e-07
6.19064e-07
6.19636e-07
6.2287e-07
6.36688e-07
6.80868e-07
7.80026e-07
2.10739e-06
1.86412e-06
1.63348e-06
1.44669e-06
1.28328e-06
1.15979e-06
1.07577e-06
1.01288e-06
9.69772e-07
9.29724e-07
8.82198e-07
8.3159e-07
7.80458e-07
7.34822e-07
6.97813e-07
6.70779e-07
6.52476e-07
6.40634e-07
6.33174e-07
6.28509e-07
6.25576e-07
6.237e-07
6.22469e-07
6.21633e-07
6.21046e-07
6.20618e-07
6.20296e-07
6.20047e-07
6.19849e-07
6.19689e-07
6.19556e-07
6.19446e-07
6.19353e-07
6.19274e-07
6.19205e-07
6.19145e-07
6.19091e-07
6.19044e-07
6.19013e-07
6.19067e-07
6.19638e-07
6.22872e-07
6.3669e-07
6.80867e-07
7.79998e-07
1.20255e-06
1.10296e-06
1.01689e-06
9.47426e-07
8.89621e-07
8.47153e-07
8.18444e-07
7.97549e-07
7.8281e-07
7.69323e-07
7.53466e-07
7.34355e-07
7.123e-07
6.90581e-07
6.71639e-07
6.56817e-07
6.46079e-07
6.38707e-07
6.33804e-07
6.30617e-07
6.28553e-07
6.27195e-07
6.2628e-07
6.25642e-07
6.2518e-07
6.24835e-07
6.24567e-07
6.24355e-07
6.24183e-07
6.2404e-07
6.2392e-07
6.23818e-07
6.23732e-07
6.23658e-07
6.23594e-07
6.23536e-07
6.23484e-07
6.23439e-07
6.23417e-07
6.23537e-07
6.24577e-07
6.30562e-07
6.57702e-07
7.57489e-07
1.06914e-06
9.92554e-07
9.34601e-07
8.85427e-07
8.45479e-07
8.12904e-07
7.87799e-07
7.6915e-07
7.54987e-07
7.44019e-07
7.3364e-07
7.22329e-07
7.09924e-07
6.96772e-07
6.84086e-07
6.72871e-07
6.63968e-07
6.575e-07
6.53064e-07
6.50139e-07
6.48233e-07
6.46988e-07
6.46165e-07
6.45605e-07
6.45208e-07
6.44914e-07
6.44685e-07
6.445e-07
6.44347e-07
6.44218e-07
6.44107e-07
6.4401e-07
6.43926e-07
6.43852e-07
6.43788e-07
6.43732e-07
6.4368e-07
9.52114e-07
9.12366e-07
8.77419e-07
8.47714e-07
8.23273e-07
8.04434e-07
7.90419e-07
7.79906e-07
7.71861e-07
7.64816e-07
7.57861e-07
7.50673e-07
7.43422e-07
7.36774e-07
7.31294e-07
7.27141e-07
7.24235e-07
7.22373e-07
7.21277e-07
7.20686e-07
7.20397e-07
7.20268e-07
7.20215e-07
7.2019e-07
7.2017e-07
7.20144e-07
7.20109e-07
7.20068e-07
7.20023e-07
7.19975e-07
7.19926e-07
7.19877e-07
7.1983e-07
7.19785e-07
7.19744e-07
1.14493e-06
1.11203e-06
1.08372e-06
1.0601e-06
1.04092e-06
1.02589e-06
1.01437e-06
1.00563e-06
9.98996e-07
9.938e-07
9.89608e-07
9.8617e-07
9.83401e-07
9.81368e-07
9.80137e-07
9.79672e-07
9.79858e-07
9.80489e-07
9.81353e-07
9.82272e-07
9.83132e-07
9.83868e-07
9.84462e-07
9.84915e-07
9.85247e-07
9.85477e-07
9.85629e-07
9.85722e-07
9.85771e-07
9.85789e-07
9.85784e-07
9.85761e-07
9.85728e-07
9.8569e-07
9.85647e-07
2.81803e-06
2.72493e-06
2.64059e-06
2.56506e-06
2.49821e-06
2.43959e-06
2.38841e-06
2.34369e-06
2.30441e-06
2.26948e-06
2.23819e-06
2.21007e-06