/*--------------------------------*- C++ -*----------------------------------*\
| =========                 |                                                 |
| \\      /  F ield         | OpenFOAM: The Open Source CFD Toolbox           |
|  \\    /   O peration     | Version:  2.3.1                                 |
|   \\  /    A nd           | Web:      www.OpenFOAM.org                      |
|    \\/     M anipulation  |                                                 |
\*---------------------------------------------------------------------------*/
FoamFile
{
    version     2.0;
    format      ascii;
    class       volScalarField;
    location    "5";
    object      epsilon_0;
}
// * * * * * * * * * * * * * * * * * * * * * * * * * * * * * * * * * * * * * //

dimensions      [0 2 -3 0 0 0 0];

internalField   nonuniform List<scalar> 
38152
(
0.00154216
0.00145333
0.00134406
0.00134872
0.00137389
0.00139822
0.00147537
0.00172891
0.00187577
0.0018311
0.00169394
0.00166136
0.00153117
0.000855555
8.86033e-05
5.14313e-06
2.10021e-06
1.93606e-06
1.88258e-06
1.85031e-06
1.82891e-06
1.8139e-06
1.80295e-06
1.79468e-06
1.78827e-06
1.78318e-06
1.77904e-06
1.77562e-06
1.77274e-06
1.77027e-06
1.76812e-06
1.76624e-06
1.76456e-06
1.76306e-06
1.7617e-06
1.76047e-06
1.75935e-06
1.75831e-06
1.75735e-06
1.75645e-06
1.75556e-06
1.7545e-06
1.76036e-06
1.81762e-06
0.00212261
0.00222552
0.00237996
0.00237626
0.00225384
0.00232159
0.00279218
0.00302433
0.00277142
0.0026481
0.0026881
0.00208556
0.000635031
0.000119476
9.47879e-06
2.86767e-06
2.53938e-06
2.46216e-06
2.41424e-06
2.38142e-06
2.35813e-06
2.34113e-06
2.32838e-06
2.31858e-06
2.31087e-06
2.30468e-06
2.29961e-06
2.29537e-06
2.29176e-06
2.28865e-06
2.28593e-06
2.28353e-06
2.2814e-06
2.27949e-06
2.27777e-06
2.27621e-06
2.27478e-06
2.27345e-06
2.2722e-06
2.27092e-06
2.26872e-06
2.25727e-06
2.1894e-06
1.85134e-06
0.00172646
0.00184766
0.00198113
0.00210715
0.00215857
0.0021445
0.00216947
0.00215851
0.00198804
0.00156228
0.00108299
0.000715389
0.000299545
5.06019e-05
8.35943e-06
3.28376e-06
2.84298e-06
2.71914e-06
2.64288e-06
2.59281e-06
2.55869e-06
2.53462e-06
2.5171e-06
2.504e-06
2.49396e-06
2.48609e-06
2.4798e-06
2.47465e-06
2.47037e-06
2.46673e-06
2.4636e-06
2.46087e-06
2.45847e-06
2.45634e-06
2.45442e-06
2.4527e-06
2.45113e-06
2.44969e-06
2.44836e-06
2.44709e-06
2.4456e-06
2.44165e-06
2.41882e-06
2.30009e-06
1.86343e-06
0.00100173
0.00113294
0.00122678
0.00127118
0.00122531
0.0009392
0.000483951
0.000228876
0.000158319
0.000131605
9.51808e-05
5.32205e-05
1.72302e-05
5.54989e-06
3.34663e-06
2.95697e-06
2.81076e-06
2.72002e-06
2.66014e-06
2.61873e-06
2.58934e-06
2.56801e-06
2.55216e-06
2.54014e-06
2.53082e-06
2.52346e-06
2.51752e-06
2.51263e-06
2.50853e-06
2.50503e-06
2.50201e-06
2.49936e-06
2.49702e-06
2.49492e-06
2.49304e-06
2.49133e-06
2.48977e-06
2.48835e-06
2.48703e-06
2.48577e-06
2.48423e-06
2.47996e-06
2.45573e-06
2.33269e-06
1.86598e-06
0.000256591
0.000237085
0.000191397
0.000124239
6.02909e-05
3.01288e-05
1.89806e-05
1.48266e-05
1.20753e-05
8.70514e-06
5.75475e-06
3.87833e-06
3.20455e-06
2.96955e-06
2.8414e-06
2.75256e-06
2.68866e-06
2.64259e-06
2.60943e-06
2.58519e-06
2.56721e-06
2.55362e-06
2.54314e-06
2.53489e-06
2.52827e-06
2.52287e-06
2.51837e-06
2.51455e-06
2.51125e-06
2.50838e-06
2.50584e-06
2.50358e-06
2.50154e-06
2.49969e-06
2.49801e-06
2.49647e-06
2.49506e-06
2.49376e-06
2.49253e-06
2.49119e-06
2.48865e-06
2.47747e-06
2.42251e-06
2.22933e-06
2.90766e-05
2.26166e-05
1.63692e-05
1.04382e-05
6.75746e-06
5.26053e-06
4.53919e-06
4.1629e-06
3.8804e-06
3.57063e-06
3.29572e-06
3.08895e-06
2.94783e-06
2.84173e-06
2.76014e-06
2.69869e-06
2.65292e-06
2.61891e-06
2.59352e-06
2.57443e-06
2.55987e-06
2.54862e-06
2.53979e-06
2.53272e-06
2.52696e-06
2.52217e-06
2.51812e-06
2.51462e-06
2.51157e-06
2.50888e-06
2.50647e-06
2.50431e-06
2.50233e-06
2.50053e-06
2.49887e-06
2.49735e-06
2.49596e-06
2.49467e-06
2.49347e-06
2.49225e-06
2.49068e-06
2.48633e-06
2.47003e-06
2.42967e-06
6.34893e-06
5.70685e-06
4.98297e-06
4.40746e-06
3.9266e-06
3.6255e-06
3.45154e-06
3.32441e-06
3.22944e-06
3.14427e-06
3.05825e-06
2.97327e-06
2.89023e-06
2.81499e-06
2.74963e-06
2.69607e-06
2.65378e-06
2.6211e-06
2.59614e-06
2.5771e-06
2.5625e-06
2.55119e-06
2.54231e-06
2.53519e-06
2.52936e-06
2.5245e-06
2.52037e-06
2.51679e-06
2.51365e-06
2.51086e-06
2.50836e-06
2.50609e-06
2.50403e-06
2.50212e-06
2.50036e-06
2.49874e-06
2.49725e-06
2.49588e-06
2.49461e-06
2.49341e-06
2.49221e-06
2.49064e-06
2.48629e-06
2.47001e-06
2.42965e-06
4.5431e-06
4.21515e-06
3.93426e-06
3.70936e-06
3.52813e-06
3.3853e-06
3.27026e-06
3.17184e-06
3.08533e-06
3.00381e-06
2.92628e-06
2.85435e-06
2.78904e-06
2.7324e-06
2.68479e-06
2.64625e-06
2.61593e-06
2.59249e-06
2.57452e-06
2.56076e-06
2.55013e-06
2.5418e-06
2.53513e-06
2.52965e-06
2.52504e-06
2.52107e-06
2.51759e-06
2.51449e-06
2.5117e-06
2.50917e-06
2.50686e-06
2.50473e-06
2.50276e-06
2.50093e-06
2.49922e-06
2.49763e-06
2.49616e-06
2.49481e-06
2.49356e-06
2.49236e-06
2.49106e-06
2.48854e-06
2.47735e-06
2.42242e-06
2.22896e-06
4.23767e-06
3.95864e-06
3.72652e-06
3.53502e-06
3.37239e-06
3.23794e-06
3.12664e-06
3.03325e-06
2.9532e-06
2.88233e-06
2.81867e-06
2.76122e-06
2.71007e-06
2.6662e-06
2.62996e-06
2.60113e-06
2.57889e-06
2.56207e-06
2.54949e-06
2.54006e-06
2.53289e-06
2.52725e-06
2.52263e-06
2.5187e-06
2.51522e-06
2.51209e-06
2.50921e-06
2.50655e-06
2.50408e-06
2.50177e-06
2.49962e-06
2.49762e-06
2.49573e-06
2.49396e-06
2.4923e-06
2.49074e-06
4.11863e-06
3.85777e-06
3.64219e-06
3.45608e-06
3.29714e-06
3.16238e-06
3.04768e-06
2.9495e-06
2.86509e-06
2.79206e-06
2.72834e-06
2.67313e-06
2.62635e-06
2.58788e-06
2.5573e-06
2.5339e-06
2.51669e-06
2.50449e-06
2.49605e-06
2.49017e-06
2.4859e-06
2.48255e-06
2.47966e-06
2.47698e-06
2.4744e-06
2.47189e-06
2.46946e-06
2.46711e-06
2.46486e-06
2.4627e-06
2.46066e-06
2.45873e-06
2.4569e-06
2.45517e-06
2.45353e-06
3.8164e-06
3.59547e-06
3.39829e-06
3.22501e-06
3.07434e-06
2.94435e-06
2.83272e-06
2.73702e-06
2.65492e-06
2.58444e-06
2.52406e-06
2.47211e-06
2.42835e-06
2.39264e-06
2.36461e-06
2.34361e-06
2.3287e-06
2.31876e-06
2.31261e-06
2.30901e-06
2.30675e-06
2.30495e-06
2.30312e-06
2.30112e-06
2.29896e-06
2.29671e-06
2.29444e-06
2.29218e-06
2.28998e-06
2.28785e-06
2.28583e-06
2.2839e-06
2.28208e-06
2.28035e-06
2.27872e-06
2.8096e-06
2.66088e-06
2.52714e-06
2.40888e-06
2.30554e-06
2.21577e-06
2.1382e-06
2.07136e-06
2.01373e-06
1.9642e-06
1.92202e-06
1.88667e-06
1.85755e-06
1.834e-06
1.81571e-06
1.80226e-06
1.79297e-06
1.78712e-06
1.78396e-06
1.7827e-06
1.78237e-06
1.78184e-06
1.78084e-06
1.77948e-06
1.7779e-06
1.7762e-06
1.77445e-06
1.77272e-06
1.77102e-06
1.76939e-06
1.76783e-06
1.76634e-06
1.76494e-06
1.76362e-06
1.76238e-06
0.00122588
0.00114331
0.00113478
0.00110545
0.00103057
0.00103019
0.00107235
0.00124087
0.00144015
0.00153151
0.00161043
0.00153535
0.00119832
0.000390262
3.15141e-05
2.78796e-06
1.79851e-06
1.76825e-06
1.76141e-06
1.75589e-06
1.75148e-06
1.74797e-06
1.74516e-06
1.74288e-06
1.741e-06
1.73943e-06
1.7381e-06
1.73695e-06
1.73594e-06
1.73505e-06
1.73426e-06
1.73354e-06
1.7329e-06
1.73231e-06
1.73176e-06
1.73126e-06
1.7308e-06
1.73036e-06
1.72994e-06
1.72951e-06
1.72889e-06
1.7264e-06
1.71381e-06
1.65642e-06
0.00148533
0.00141915
0.00137365
0.00130693
0.00132429
0.00148428
0.00177742
0.00209658
0.00241562
0.00248209
0.00304391
0.00270932
0.00078221
0.000105442
8.54921e-06
2.17834e-06
1.66236e-06
1.53668e-06
1.48659e-06
1.46256e-06
1.44953e-06
1.44176e-06
1.43678e-06
1.43338e-06
1.43096e-06
1.42916e-06
1.42779e-06
1.42671e-06
1.42585e-06
1.42514e-06
1.42455e-06
1.42404e-06
1.4236e-06
1.42321e-06
1.42286e-06
1.42255e-06
1.42227e-06
1.42202e-06
1.42182e-06
1.42169e-06
1.42215e-06
1.42746e-06
1.46569e-06
1.70645e-06
0.000950343
0.00103075
0.00111033
0.00118234
0.00128943
0.00152707
0.00189469
0.00211677
0.00206094
0.00166418
0.00131483
0.00100821
0.000509747
7.77852e-05
9.88749e-06
2.42888e-06
1.70505e-06
1.51801e-06
1.43932e-06
1.40158e-06
1.3817e-06
1.37026e-06
1.36316e-06
1.35846e-06
1.35517e-06
1.35278e-06
1.35097e-06
1.34957e-06
1.34845e-06
1.34754e-06
1.34679e-06
1.34615e-06
1.3456e-06
1.34511e-06
1.34469e-06
1.3443e-06
1.34396e-06
1.34365e-06
1.34337e-06
1.34315e-06
1.34315e-06
1.3447e-06
1.35621e-06
1.41908e-06
1.731e-06
0.000661166
0.000764293
0.000863847
0.000953704
0.000985396
0.000810024
0.000464915
0.000259403
0.000192623
0.000176326
0.000157351
0.00010772
3.78166e-05
6.88929e-06
2.42943e-06
1.76175e-06
1.54761e-06
1.44857e-06
1.39893e-06
1.37238e-06
1.35717e-06
1.34782e-06
1.34173e-06
1.33754e-06
1.33454e-06
1.3323e-06
1.33058e-06
1.32922e-06
1.32814e-06
1.32725e-06
1.3265e-06
1.32586e-06
1.3253e-06
1.32481e-06
1.32438e-06
1.32399e-06
1.32364e-06
1.32332e-06
1.32304e-06
1.32281e-06
1.32285e-06
1.32466e-06
1.33734e-06
1.40588e-06
1.79504e-06
0.000216545
0.000207173
0.000180455
0.000126677
7.10561e-05
4.06634e-05
2.76323e-05
2.32e-05
2.0842e-05
1.61634e-05
9.42777e-06
3.8698e-06
2.12724e-06
1.723e-06
1.5522e-06
1.45981e-06
1.40794e-06
1.37788e-06
1.35981e-06
1.34848e-06
1.34107e-06
1.33599e-06
1.33237e-06
1.32971e-06
1.32768e-06
1.32609e-06
1.32482e-06
1.32379e-06
1.32294e-06
1.32221e-06
1.32159e-06
1.32105e-06
1.32057e-06
1.32015e-06
1.31977e-06
1.31942e-06
1.3191e-06
1.31881e-06
1.31857e-06
1.31849e-06
1.3193e-06
1.32526e-06
1.35331e-06
1.45099e-06
2.7831e-05
2.38275e-05
1.89365e-05
1.26418e-05
7.80489e-06
5.53422e-06
4.36168e-06
3.7568e-06
3.30895e-06
2.72751e-06
2.16774e-06
1.80906e-06
1.64103e-06
1.53588e-06
1.46292e-06
1.4151e-06
1.38453e-06
1.36502e-06
1.35234e-06
1.34386e-06
1.338e-06
1.33382e-06
1.33073e-06
1.32839e-06
1.32657e-06
1.32511e-06
1.32394e-06
1.32297e-06
1.32215e-06
1.32145e-06
1.32085e-06
1.32032e-06
1.31986e-06
1.31945e-06
1.31907e-06
1.31873e-06
1.31841e-06
1.31813e-06
1.31788e-06
1.31771e-06
1.31789e-06
1.31996e-06
1.32921e-06
1.35501e-06
4.94367e-06
4.55718e-06
3.89376e-06
3.28944e-06
2.69131e-06
2.29317e-06
2.08754e-06
1.94849e-06
1.86199e-06
1.78959e-06
1.70809e-06
1.63131e-06
1.56159e-06
1.50166e-06
1.45227e-06
1.41455e-06
1.38756e-06
1.36879e-06
1.35584e-06
1.34685e-06
1.34049e-06
1.33588e-06
1.33245e-06
1.32984e-06
1.3278e-06
1.32618e-06
1.32485e-06
1.32376e-06
1.32285e-06
1.32207e-06
1.32139e-06
1.32081e-06
1.3203e-06
1.31985e-06
1.31945e-06
1.31908e-06
1.31874e-06
1.31843e-06
1.31814e-06
1.31789e-06
1.31772e-06
1.31791e-06
1.31998e-06
1.32923e-06
1.35502e-06
2.03817e-06
1.93936e-06
1.83642e-06
1.75322e-06
1.6775e-06
1.62355e-06
1.58993e-06
1.5646e-06
1.54777e-06
1.53263e-06
1.51402e-06
1.49088e-06
1.46289e-06
1.43435e-06
1.4084e-06
1.38705e-06
1.37065e-06
1.35851e-06
1.34965e-06
1.34318e-06
1.33837e-06
1.33475e-06
1.33194e-06
1.32974e-06
1.32797e-06
1.32652e-06
1.32531e-06
1.3243e-06
1.32344e-06
1.32269e-06
1.32205e-06
1.32148e-06
1.32099e-06
1.32055e-06
1.32016e-06
1.3198e-06
1.31946e-06
1.31914e-06
1.31886e-06
1.31861e-06
1.31852e-06
1.31934e-06
1.32529e-06
1.35335e-06
1.45089e-06
1.70476e-06
1.65803e-06
1.61715e-06
1.58302e-06
1.55276e-06
1.52816e-06
1.50929e-06
1.49397e-06
1.48095e-06
1.46765e-06
1.4528e-06
1.43654e-06
1.41914e-06
1.40207e-06
1.38654e-06
1.37338e-06
1.36285e-06
1.3547e-06
1.34849e-06
1.34375e-06
1.34011e-06
1.33727e-06
1.335e-06
1.33316e-06
1.33164e-06
1.33037e-06
1.32928e-06
1.32835e-06
1.32754e-06
1.32684e-06
1.32622e-06
1.32568e-06
1.3252e-06
1.32477e-06
1.32439e-06
1.32404e-06
1.61112e-06
1.57537e-06
1.54455e-06
1.51799e-06
1.49538e-06
1.47727e-06
1.4633e-06
1.45242e-06
1.44404e-06
1.43657e-06
1.42836e-06
1.41881e-06
1.40823e-06
1.39759e-06
1.38775e-06
1.37935e-06
1.37258e-06
1.3673e-06
1.36322e-06
1.36004e-06
1.35752e-06
1.35547e-06
1.35377e-06
1.35234e-06
1.35111e-06
1.35004e-06
1.34911e-06
1.3483e-06
1.34758e-06
1.34695e-06
1.34638e-06
1.34588e-06
1.34543e-06
1.34503e-06
1.34467e-06
1.63401e-06
1.60311e-06
1.57583e-06
1.55222e-06
1.53216e-06
1.51571e-06
1.50248e-06
1.49192e-06
1.48345e-06
1.47634e-06
1.46996e-06
1.46365e-06
1.45745e-06
1.45165e-06
1.44658e-06
1.44238e-06
1.43905e-06
1.43649e-06
1.43451e-06
1.43295e-06
1.43166e-06
1.43056e-06
1.42959e-06
1.42872e-06
1.42793e-06
1.42721e-06
1.42656e-06
1.42596e-06
1.42543e-06
1.42494e-06
1.42449e-06
1.42409e-06
1.42372e-06
1.42339e-06
1.42308e-06
2.33086e-06
2.25091e-06
2.1787e-06
2.11425e-06
2.0574e-06
2.00758e-06
1.96417e-06
1.9264e-06
1.89347e-06
1.8646e-06
1.83925e-06
1.81705e-06
1.79797e-06
1.78216e-06
1.76953e-06
1.75987e-06
1.75283e-06
1.748e-06
1.74494e-06
1.74318e-06
1.74215e-06
1.7413e-06
1.74046e-06
1.73961e-06
1.73877e-06
1.73795e-06
1.73715e-06
1.73639e-06
1.73566e-06
1.73497e-06
1.73431e-06
1.73369e-06
1.73311e-06
1.73255e-06
1.73202e-06
0.00155977
0.00141605
0.00134832
0.00112813
0.00091994
0.000930623
0.00107544
0.00143931
0.00176613
0.0020799
0.00214881
0.00187475
0.00116475
0.00024215
1.59881e-05
2.56783e-06
2.06536e-06
2.02402e-06
2.00472e-06
1.99211e-06
1.98336e-06
1.97702e-06
1.97227e-06
1.9686e-06
1.9657e-06
1.96336e-06
1.96143e-06
1.9598e-06
1.95842e-06
1.95722e-06
1.95616e-06
1.95523e-06
1.9544e-06
1.95365e-06
1.95297e-06
1.95235e-06
1.95178e-06
1.95125e-06
1.95075e-06
1.95022e-06
1.94906e-06
1.9427e-06
1.9077e-06
1.76642e-06
0.00147142
0.00133038
0.00122793
0.00122651
0.00138119
0.00175764
0.00213207
0.00235224
0.00255281
0.00333311
0.00441663
0.00260605
0.000515244
5.87787e-05
5.46809e-06
1.86071e-06
1.40757e-06
1.27602e-06
1.2234e-06
1.19872e-06
1.18577e-06
1.17834e-06
1.17376e-06
1.17078e-06
1.16874e-06
1.1673e-06
1.16626e-06
1.16548e-06
1.1649e-06
1.16444e-06
1.16407e-06
1.16377e-06
1.16352e-06
1.1633e-06
1.16311e-06
1.16294e-06
1.16279e-06
1.16267e-06
1.16259e-06
1.16271e-06
1.16458e-06
1.17925e-06
1.26996e-06
1.85114e-06
0.000757239
0.000835542
0.00092855
0.00104548
0.00127141
0.00165754
0.00198707
0.00202747
0.00176766
0.0014525
0.00127808
0.00103674
0.000393655
5.04526e-05
6.42241e-06
1.89732e-06
1.30278e-06
1.12626e-06
1.05489e-06
1.02263e-06
1.00673e-06
9.98191e-07
9.93238e-07
9.9016e-07
9.8813e-07
9.86724e-07
9.8571e-07
9.84956e-07
9.84381e-07
9.83931e-07
9.8357e-07
9.83272e-07
9.83021e-07
9.82806e-07
9.82619e-07
9.82454e-07
9.82307e-07
9.82178e-07
9.82072e-07
9.82046e-07
9.82575e-07
9.87045e-07
1.01453e-06
1.15365e-06
1.89905e-06
0.000501997
0.000601343
0.000690516
0.000748382
0.000714816
0.000500803
0.000304352
0.000195698
0.000162028
0.000164702
0.00015538
9.75185e-05
2.58941e-05
4.9573e-06
1.90421e-06
1.32795e-06
1.12046e-06
1.02955e-06
9.87005e-07
9.65888e-07
9.54691e-07
9.48325e-07
9.44462e-07
9.41975e-07
9.40288e-07
9.39088e-07
9.38203e-07
9.3753e-07
9.37007e-07
9.36589e-07
9.36248e-07
9.35962e-07
9.35718e-07
9.35508e-07
9.35325e-07
9.35162e-07
9.35016e-07
9.34886e-07
9.34779e-07
9.34767e-07
9.35408e-07
9.40418e-07
9.69763e-07
1.11763e-06
2.02663e-06
0.000133693
0.000124738
0.000105772
7.41457e-05
4.52391e-05
3.09946e-05
2.40662e-05
2.1537e-05
1.97013e-05
1.48701e-05
7.72259e-06
2.90404e-06
1.63462e-06
1.27706e-06
1.11414e-06
1.03017e-06
9.85832e-07
9.61753e-07
9.48262e-07
9.40408e-07
9.35627e-07
9.32571e-07
9.30523e-07
9.29089e-07
9.28042e-07
9.27252e-07
9.2664e-07
9.26156e-07
9.25764e-07
9.25439e-07
9.25164e-07
9.24928e-07
9.24725e-07
9.24547e-07
9.24388e-07
9.24245e-07
9.24115e-07
9.24003e-07
9.23953e-07
9.24284e-07
9.27002e-07
9.4201e-07
1.00586e-06
1.22251e-06
1.81793e-05
1.57292e-05
1.26981e-05
8.86962e-06
6.04512e-06
4.62655e-06
3.73453e-06
3.22256e-06
2.78217e-06
2.20147e-06
1.66704e-06
1.35472e-06
1.1999e-06
1.09931e-06
1.03228e-06
9.90653e-07
9.65569e-07
9.50561e-07
9.41467e-07
9.35805e-07
9.32153e-07
9.29705e-07
9.27998e-07
9.26765e-07
9.2584e-07
9.25126e-07
9.24564e-07
9.24112e-07
9.2374e-07
9.23427e-07
9.23161e-07
9.22934e-07
9.22738e-07
9.22565e-07
9.2241e-07
9.22269e-07
9.22139e-07
9.22024e-07
9.21947e-07
9.22048e-07
9.23187e-07
9.29341e-07
9.52868e-07
1.0132e-06
3.84937e-06
3.48293e-06
2.97022e-06
2.51897e-06
2.08468e-06
1.78646e-06
1.61416e-06
1.48912e-06
1.40902e-06
1.33978e-06
1.26196e-06
1.18911e-06
1.12377e-06
1.06826e-06
1.02369e-06
9.9092e-07
9.68508e-07
9.53721e-07
9.44117e-07
9.3787e-07
9.3374e-07
9.30934e-07
9.28965e-07
9.27538e-07
9.26474e-07
9.25654e-07
9.25007e-07
9.24487e-07
9.24062e-07
9.23707e-07
9.23405e-07
9.23148e-07
9.22928e-07
9.22738e-07
9.2257e-07
9.22418e-07
9.22278e-07
9.22148e-07
9.22033e-07
9.21956e-07
9.22056e-07
9.23195e-07
9.29349e-07
9.52873e-07
1.01318e-06
1.59158e-06
1.49057e-06
1.39176e-06
1.3117e-06
1.23975e-06
1.18757e-06
1.15413e-06
1.12969e-06
1.11364e-06
1.09952e-06
1.08245e-06
1.06139e-06
1.03616e-06
1.01082e-06
9.88292e-07
9.70378e-07
9.57195e-07
9.47907e-07
9.41496e-07
9.37083e-07
9.34012e-07
9.31837e-07
9.30256e-07
9.29073e-07
9.28163e-07
9.27444e-07
9.26863e-07
9.26386e-07
9.25989e-07
9.25652e-07
9.25364e-07
9.25117e-07
9.24905e-07
9.24721e-07
9.24559e-07
9.24411e-07
9.24272e-07
9.24142e-07
9.2403e-07
9.2398e-07
9.24308e-07
9.27024e-07
9.4203e-07
1.00587e-06
1.2223e-06
1.26807e-06
1.22313e-06
1.18373e-06
1.15102e-06
1.12258e-06
1.09985e-06
1.08259e-06
1.06889e-06
1.05794e-06
1.04701e-06
1.03459e-06
1.02069e-06
1.00568e-06
9.91001e-07
9.77816e-07
9.6695e-07
9.58577e-07
9.52487e-07
9.4818e-07
9.45141e-07
9.42974e-07
9.41387e-07
9.40193e-07
9.39268e-07
9.38533e-07
9.37933e-07
9.37435e-07
9.37016e-07
9.3666e-07
9.36354e-07
9.36088e-07
9.35857e-07
9.35657e-07
9.35482e-07
9.35328e-07
9.35187e-07
1.19456e-06
1.16447e-06
1.13781e-06
1.11493e-06
1.0956e-06
1.08042e-06
1.06901e-06
1.06026e-06
1.0534e-06
1.04688e-06
1.03971e-06
1.03162e-06
1.02285e-06
1.01432e-06
1.0068e-06
1.00073e-06
9.96169e-07
9.92859e-07
9.90506e-07
9.88842e-07
9.87643e-07
9.86749e-07
9.86055e-07
9.85495e-07
9.85026e-07
9.84623e-07
9.84271e-07
9.83962e-07
9.8369e-07
9.83447e-07
9.8323e-07
9.83036e-07
9.82863e-07
9.82711e-07
9.82575e-07
1.31257e-06
1.28655e-06
1.2639e-06
1.24464e-06
1.22866e-06
1.21598e-06
1.20612e-06
1.19848e-06
1.1925e-06
1.18752e-06
1.18309e-06
1.17895e-06
1.17506e-06
1.17163e-06
1.16886e-06
1.16685e-06
1.16557e-06
1.16487e-06
1.16456e-06
1.16446e-06
1.16446e-06
1.16448e-06
1.16447e-06
1.16444e-06
1.16436e-06
1.16426e-06
1.16413e-06
1.164e-06
1.16386e-06
1.16371e-06
1.16357e-06
1.16344e-06
1.16331e-06
1.16319e-06
1.16308e-06
2.64007e-06
2.55311e-06
2.47426e-06
2.40362e-06
2.34109e-06
2.28619e-06
2.23827e-06
2.19648e-06
2.15987e-06
2.12747e-06
2.09863e-06
2.07292e-06
2.05026e-06
2.0307e-06
2.01434e-06
2.00113e-06
1.99088e-06
1.98324e-06
1.97779e-06
1.974e-06
1.97126e-06
1.96901e-06
1.96701e-06
1.96521e-06
1.96357e-06
1.96209e-06
1.96075e-06
1.95952e-06
1.95841e-06
1.95739e-06
1.95646e-06
1.9556e-06
1.95481e-06
1.95408e-06
1.9534e-06
0.00170205
0.00154204
0.00138099
0.000867735
0.000638276
0.000749671
0.0011798
0.00161622
0.00202473
0.00224557
0.00214543
0.00170837
0.000812935
0.000108744
6.95317e-06
2.35972e-06
2.15102e-06
2.11247e-06
2.09102e-06
2.0771e-06
2.06752e-06
2.06061e-06
2.05545e-06
2.05148e-06
2.04836e-06
2.04584e-06
2.04376e-06
2.04202e-06
2.04054e-06
2.03925e-06
2.03813e-06
2.03714e-06
2.03626e-06
2.03546e-06
2.03475e-06
2.0341e-06
2.0335e-06
2.03296e-06
2.03244e-06
2.03183e-06
2.03005e-06
2.01958e-06
1.96574e-06
1.78556e-06
0.00134888
0.00111345
0.00108474
0.00112238
0.00140252
0.00180656
0.0021272
0.00245966
0.00316402
0.00449365
0.00414877
0.00138222
0.000223546
2.39584e-05
3.41114e-06
1.62885e-06
1.27481e-06
1.15423e-06
1.10332e-06
1.07879e-06
1.06573e-06
1.05819e-06
1.05356e-06
1.05055e-06
1.04852e-06
1.04711e-06
1.0461e-06
1.04537e-06
1.04482e-06
1.0444e-06
1.04408e-06
1.04381e-06
1.0436e-06
1.04341e-06
1.04325e-06
1.04311e-06
1.04299e-06
1.0429e-06
1.04286e-06
1.04317e-06
1.04629e-06
1.06771e-06
1.18775e-06
1.89625e-06
0.000589118
0.000605515
0.000728805
0.00090718
0.00114935
0.00144265
0.00158954
0.00141227
0.00113637
0.0011009
0.0010903
0.000759084
0.000133206
2.1281e-05
3.67609e-06
1.54218e-06
1.09471e-06
9.38976e-07
8.7397e-07
8.44328e-07
8.2974e-07
8.21994e-07
8.17576e-07
8.14888e-07
8.13159e-07
8.11992e-07
8.11173e-07
8.10581e-07
8.10141e-07
8.09807e-07
8.09545e-07
8.09335e-07
8.09162e-07
8.09017e-07
8.08894e-07
8.08786e-07
8.08692e-07
8.08612e-07
8.08557e-07
8.08625e-07
8.09591e-07
8.16408e-07
8.54318e-07
1.03451e-06
1.96408e-06
0.0002648
0.000333107
0.000380883
0.000390893
0.000335828
0.000238088
0.000165842
0.000126193
0.000119611
0.000126132
0.000113082
5.28922e-05
1.0946e-05
3.11916e-06
1.54802e-06
1.09556e-06
9.10018e-07
8.2765e-07
7.89093e-07
7.70093e-07
7.6017e-07
7.5466e-07
7.51409e-07
7.49381e-07
7.48047e-07
7.47129e-07
7.46471e-07
7.45984e-07
7.45614e-07
7.45326e-07
7.45096e-07
7.44907e-07
7.44749e-07
7.44616e-07
7.44501e-07
7.44401e-07
7.44313e-07
7.44237e-07
7.44186e-07
7.44286e-07
7.45433e-07
7.52973e-07
7.92927e-07
9.83035e-07
2.13464e-06
5.41501e-05
4.98909e-05
4.28145e-05
3.29753e-05
2.47307e-05
1.99176e-05
1.69344e-05
1.55214e-05
1.36618e-05
9.39984e-06
4.39614e-06
2.03057e-06
1.32811e-06
1.04413e-06
8.97731e-07
8.21415e-07
7.8116e-07
7.59496e-07
7.47562e-07
7.40778e-07
7.36769e-07
7.34292e-07
7.32689e-07
7.31603e-07
7.30836e-07
7.30273e-07
7.29848e-07
7.29518e-07
7.29256e-07
7.29043e-07
7.28866e-07
7.28716e-07
7.28589e-07
7.2848e-07
7.28383e-07
7.28298e-07
7.28222e-07
7.28166e-07
7.28209e-07
7.28899e-07
7.3333e-07
7.55103e-07
8.40378e-07
1.11808e-06
9.24575e-06
8.10055e-06
6.80571e-06
5.24044e-06
4.02177e-06
3.30211e-06
2.77845e-06
2.42328e-06
2.08261e-06
1.6656e-06
1.31842e-06
1.10956e-06
9.77494e-07
8.84213e-07
8.22151e-07
7.83984e-07
7.61265e-07
7.47897e-07
7.39976e-07
7.35184e-07
7.32195e-07
7.30262e-07
7.28963e-07
7.28054e-07
7.27394e-07
7.26897e-07
7.26514e-07
7.26212e-07
7.25967e-07
7.25765e-07
7.25596e-07
7.25453e-07
7.25331e-07
7.25226e-07
7.25132e-07
7.25048e-07
7.24972e-07
7.24911e-07
7.24905e-07
7.2523e-07
7.27376e-07
7.37406e-07
7.72036e-07
8.54705e-07
2.73156e-06
2.45073e-06
2.13281e-06
1.86266e-06
1.60841e-06
1.42033e-06
1.29867e-06
1.20733e-06
1.14598e-06
1.0907e-06
1.0277e-06
9.65906e-07
9.07088e-07
8.55764e-07
8.14463e-07
7.84319e-07
7.63908e-07
7.5064e-07
7.42199e-07
7.36852e-07
7.33422e-07
7.31171e-07
7.2965e-07
7.28587e-07
7.27818e-07
7.27243e-07
7.26801e-07
7.26452e-07
7.26171e-07
7.2594e-07
7.25747e-07
7.25585e-07
7.25447e-07
7.2533e-07
7.25227e-07
7.25136e-07
7.25053e-07
7.24977e-07
7.24916e-07
7.2491e-07
7.25235e-07
7.2738e-07
7.3741e-07
7.72037e-07
8.54678e-07
1.35029e-06
1.24994e-06
1.15889e-06
1.08491e-06
1.02058e-06
9.73099e-07
9.4158e-07
9.18585e-07
9.02918e-07
8.88913e-07
8.72276e-07
8.51977e-07
8.28086e-07
8.04343e-07
7.83475e-07
7.67098e-07
7.55173e-07
7.46914e-07
7.41346e-07
7.37627e-07
7.35146e-07
7.33461e-07
7.32284e-07
7.31435e-07
7.30803e-07
7.30317e-07
7.29932e-07
7.29622e-07
7.29367e-07
7.29154e-07
7.28974e-07
7.28821e-07
7.2869e-07
7.28578e-07
7.2848e-07
7.28391e-07
7.2831e-07
7.28236e-07
7.2818e-07
7.28223e-07
7.28912e-07
7.33342e-07
7.55113e-07
8.40368e-07
1.11784e-06
1.08674e-06
1.03458e-06
9.89694e-07
9.52864e-07
9.22015e-07
8.97938e-07
8.79929e-07
8.66007e-07
8.55114e-07
8.4451e-07
8.32644e-07
8.19456e-07
8.05317e-07
7.91592e-07
7.79382e-07
7.6945e-07
7.62075e-07
7.56902e-07
7.53383e-07
7.51015e-07
7.49399e-07
7.48274e-07
7.47466e-07
7.46866e-07
7.46403e-07
7.46035e-07
7.45733e-07
7.45482e-07
7.45269e-07
7.45087e-07
7.4493e-07
7.44794e-07
7.44676e-07
7.44573e-07
7.44483e-07
7.44401e-07
1.0314e-06
9.96127e-07
9.65091e-07
9.3863e-07
9.16526e-07
8.99194e-07
8.86204e-07
8.76381e-07
8.68813e-07
8.61973e-07
8.54908e-07
8.47284e-07
8.39314e-07
8.31789e-07
8.25379e-07
8.20427e-07
8.16831e-07
8.14371e-07
8.12769e-07
8.11754e-07
8.11111e-07
8.10688e-07
8.10392e-07
8.10165e-07
8.09977e-07
8.0981e-07
8.09659e-07
8.0952e-07
8.09392e-07
8.09274e-07
8.09165e-07
8.09065e-07
8.08974e-07
8.08893e-07
8.08819e-07
1.19683e-06
1.16689e-06
1.14103e-06
1.11927e-06
1.10149e-06
1.08759e-06
1.07692e-06
1.06875e-06
1.06247e-06
1.05741e-06
1.05314e-06
1.04943e-06
1.04622e-06
1.04363e-06
1.04179e-06
1.04073e-06
1.04036e-06
1.04049e-06
1.04092e-06
1.04147e-06
1.04202e-06
1.0425e-06
1.04288e-06
1.04316e-06
1.04334e-06
1.04345e-06
1.04351e-06
1.04352e-06
1.0435e-06
1.04346e-06
1.04341e-06
1.04335e-06
1.04328e-06
1.04322e-06
1.04315e-06
2.76728e-06
2.67612e-06
2.59343e-06
2.51929e-06
2.45359e-06
2.39593e-06
2.34556e-06
2.30158e-06
2.26296e-06
2.22864e-06
2.19792e-06
2.17036e-06
2.14584e-06
2.12446e-06
2.10637e-06
2.09157e-06
2.07989e-06
2.07101e-06
2.06447e-06
2.05974e-06
2.05619e-06
2.05331e-06
2.05082e-06
2.04862e-06
2.04667e-06
2.04494e-06
2.04338e-06
2.04199e-06
2.04074e-06
2.0396e-06
2.03857e-06
2.03764e-06
2.03678e-06
2.03599e-06
2.03526e-06
0.00175224
0.00159323
0.00127913
0.000560232
0.000416378
0.000557465
0.000993853
0.00143992
0.00176588
0.00182501
0.00163696
0.00120876
0.000382766
3.35482e-05
3.51585e-06
2.27684e-06
2.18236e-06
2.14709e-06
2.12588e-06
2.11196e-06
2.1023e-06
2.09531e-06
2.09007e-06
2.08603e-06
2.08284e-06
2.08027e-06
2.07814e-06
2.07636e-06
2.07485e-06
2.07354e-06
2.07239e-06
2.07138e-06
2.07048e-06
2.06967e-06
2.06894e-06
2.06828e-06
2.06769e-06
2.06715e-06
2.06663e-06
2.06596e-06
2.06365e-06
2.05012e-06
1.98483e-06
1.78873e-06
0.00133402
0.00101775
0.00082425
0.000814651
0.0010896
0.00148371
0.0019514
0.00261606
0.00355775
0.00384721
0.00210284
0.000428804
7.93301e-05
9.07412e-06
2.40482e-06
1.45802e-06
1.19106e-06
1.08848e-06
1.04267e-06
1.01986e-06
1.00746e-06
1.00023e-06
9.95747e-07
9.92833e-07
9.90869e-07
9.89508e-07
9.88544e-07
9.87848e-07
9.87334e-07
9.86945e-07
9.86642e-07
9.86401e-07
9.86205e-07
9.86038e-07
9.85891e-07
9.85762e-07
9.85658e-07
9.85581e-07
9.85576e-07
9.86068e-07
9.90203e-07
1.01637e-06
1.15327e-06
1.91125e-06
0.000547316
0.000430824
0.000500109
0.000622991
0.000781367
0.000883419
0.000836843
0.00071695
0.000714055
0.000741192
0.000658808
0.000244598
4.32653e-05
8.57776e-06
2.38204e-06
1.29456e-06
9.62957e-07
8.33789e-07
7.77565e-07
7.51323e-07
7.38246e-07
7.31273e-07
7.27306e-07
7.24911e-07
7.23388e-07
7.22375e-07
7.21677e-07
7.21181e-07
7.20819e-07
7.20549e-07
7.20341e-07
7.20178e-07
7.20047e-07
7.19939e-07
7.19848e-07
7.19769e-07
7.19701e-07
7.19646e-07
7.19619e-07
7.19761e-07
7.21109e-07
7.29796e-07
7.7493e-07
9.79444e-07
1.99115e-06
0.000109467
0.000122164
0.000138358
0.000146378
0.000129987
9.92069e-05
7.58697e-05
6.51894e-05
6.37765e-05
6.37189e-05
4.65401e-05
1.65514e-05
5.14627e-06
2.16347e-06
1.29069e-06
9.4145e-07
7.86749e-07
7.16082e-07
6.82436e-07
6.65705e-07
6.56959e-07
6.52137e-07
6.49332e-07
6.47612e-07
6.46504e-07
6.45758e-07
6.45236e-07
6.44857e-07
6.44575e-07
6.44359e-07
6.4419e-07
6.44054e-07
6.43942e-07
6.43849e-07
6.4377e-07
6.43702e-07
6.43643e-07
6.43595e-07
6.43578e-07
6.43771e-07
6.45365e-07
6.54936e-07
7.02233e-07
9.17349e-07
2.18481e-06
2.22818e-05
2.07463e-05
1.85237e-05
1.53768e-05
1.23986e-05
1.04463e-05
9.04493e-06
8.09238e-06
6.7682e-06
4.46696e-06
2.46604e-06
1.53458e-06
1.11633e-06
8.93903e-07
7.70294e-07
7.04355e-07
6.69078e-07
6.49999e-07
6.39516e-07
6.33613e-07
6.30179e-07
6.28101e-07
6.26789e-07
6.25922e-07
6.25325e-07
6.24898e-07
6.24581e-07
6.2434e-07
6.24152e-07
6.24001e-07
6.23877e-07
6.23774e-07
6.23688e-07
6.23614e-07
6.2355e-07
6.23494e-07
6.23447e-07
6.23423e-07
6.23543e-07
6.24583e-07
6.30564e-07
6.577e-07
7.5752e-07
1.06953e-06
5.18369e-06
4.54086e-06
3.8864e-06
3.1717e-06
2.6054e-06
2.23979e-06
1.94821e-06
1.72816e-06
1.51652e-06
1.28552e-06
1.09593e-06
9.51322e-07
8.40742e-07
7.58678e-07
7.03847e-07
6.70049e-07
6.49933e-07
6.38147e-07
6.31228e-07
6.27106e-07
6.24589e-07
6.23003e-07
6.21966e-07
6.2126e-07
6.2076e-07
6.20393e-07
6.20115e-07
6.199e-07
6.19728e-07
6.19587e-07
6.19471e-07
6.19374e-07
6.19292e-07
6.19222e-07
6.1916e-07
6.19105e-07
6.19058e-07
6.19027e-07
6.1908e-07
6.19651e-07
6.22882e-07
6.36692e-07
6.80865e-07
7.80034e-07
2.10575e-06
1.86241e-06
1.63185e-06
1.44527e-06
1.28213e-06
1.1589e-06
1.07513e-06
1.01241e-06
9.69314e-07
9.29163e-07
8.81551e-07
8.30914e-07
7.7983e-07
7.34293e-07
6.97418e-07
6.70511e-07
6.52305e-07
6.40532e-07
6.33116e-07
6.28479e-07
6.25563e-07
6.23697e-07
6.22472e-07
6.21641e-07
6.21056e-07
6.2063e-07
6.20309e-07
6.2006e-07
6.19863e-07
6.19703e-07
6.19571e-07
6.19461e-07
6.19368e-07
6.19289e-07
6.19221e-07
6.19161e-07
6.19107e-07
6.1906e-07
6.19029e-07
6.19083e-07
6.19653e-07
6.22884e-07
6.36694e-07
6.80864e-07
7.80006e-07
1.20182e-06
1.10231e-06
1.01631e-06
9.46941e-07
8.89256e-07
8.46907e-07
8.18286e-07
7.97437e-07
7.82702e-07
7.69181e-07
7.53263e-07
7.34096e-07
7.12026e-07
6.90329e-07
6.71437e-07
6.5667e-07
6.45979e-07
6.38645e-07
6.33767e-07
6.30598e-07
6.28545e-07
6.27195e-07
6.26284e-07
6.25648e-07
6.25189e-07
6.24845e-07
6.24578e-07
6.24366e-07
6.24194e-07
6.24052e-07
6.23932e-07
6.23831e-07
6.23744e-07
6.23671e-07
6.23607e-07
6.23549e-07
6.23498e-07
6.23452e-07
6.2343e-07
6.23551e-07
6.2459e-07
6.3057e-07
6.57706e-07
7.57507e-07
1.06929e-06
9.92135e-07
9.3424e-07
8.85131e-07
8.45246e-07
8.12726e-07
7.8767e-07
7.69058e-07
7.54915e-07
7.43945e-07
7.33544e-07
7.22205e-07
7.09778e-07
6.9662e-07
6.83944e-07
6.72753e-07
6.63881e-07
6.57441e-07
6.53027e-07
6.50118e-07
6.48222e-07
6.46984e-07
6.46165e-07
6.45607e-07
6.45212e-07
6.44918e-07
6.4469e-07
6.44506e-07
6.44353e-07
6.44224e-07
6.44113e-07
6.44017e-07
6.43933e-07
6.43859e-07
6.43795e-07
6.43739e-07
6.43688e-07
9.51853e-07
9.12133e-07
8.7722e-07
8.4755e-07
8.23151e-07
8.04351e-07
7.90365e-07
7.79868e-07
7.71826e-07
7.64772e-07
7.57804e-07
7.50606e-07
7.43353e-07
7.36715e-07
7.3125e-07
7.27112e-07
7.2422e-07
7.22369e-07
7.21281e-07
7.20695e-07
7.20408e-07
7.2028e-07
7.20228e-07
7.20204e-07
7.20183e-07
7.20157e-07
7.20122e-07
7.20081e-07
7.20036e-07
7.19988e-07
7.19939e-07
7.1989e-07
7.19843e-07
7.19798e-07
7.19757e-07
1.14478e-06
1.11191e-06
1.08364e-06
1.06005e-06
1.0409e-06
1.0259e-06
1.0144e-06
1.00568e-06
9.99059e-07
9.93871e-07
9.89684e-07
9.86251e-07
9.83489e-07
9.81465e-07
9.80244e-07
9.79788e-07
9.79981e-07
9.80618e-07
9.81483e-07
9.82403e-07
9.83262e-07
9.83997e-07
9.84589e-07
9.85041e-07
9.85372e-07
9.85601e-07
9.85752e-07
9.85844e-07
9.85893e-07
9.85911e-07
9.85905e-07
9.85883e-07
9.8585e-07
9.85811e-07
9.85769e-07
2.81805e-06
2.725e-06
2.64072e-06
2.56525e-06
2.49845e-06
2.43987e-06
2.38873e-06
2.34405e-06
2.3048e-06
2.26989e-06
2.23862e-06
2.21052e-06
2.18547e-06