/*--------------------------------*- C++ -*----------------------------------*\
| =========                 |                                                 |
| \\      /  F ield         | OpenFOAM: The Open Source CFD Toolbox           |
|  \\    /   O peration     | Version:  2.3.1                                 |
|   \\  /    A nd           | Web:      www.OpenFOAM.org                      |
|    \\/     M anipulation  |                                                 |
\*---------------------------------------------------------------------------*/
FoamFile
{
    version     2.0;
    format      ascii;
    class       volScalarField;
    location    "5";
    object      k;
}
// * * * * * * * * * * * * * * * * * * * * * * * * * * * * * * * * * * * * * //

dimensions      [0 2 -2 0 0 0 0];

internalField   nonuniform List<scalar> 
38152
(
0.000775592
0.000745159
0.000707207
0.000708656
0.000717613
0.000725884
0.00075132
0.000834539
0.000883232
0.000870416
0.000825808
0.000815405
0.000773826
0.000534489
0.000120754
1.79212e-05
9.56616e-06
9.03686e-06
8.86715e-06
8.76443e-06
8.69604e-06
8.64801e-06
8.61287e-06
8.58633e-06
8.56574e-06
8.54937e-06
8.53608e-06
8.52508e-06
8.51581e-06
8.50786e-06
8.50095e-06
8.49488e-06
8.48948e-06
8.48464e-06
8.48028e-06
8.47631e-06
8.47269e-06
8.46936e-06
8.46627e-06
8.46336e-06
8.46051e-06
8.45707e-06
8.4759e-06
9.90713e-06
0.000958496
0.00098844
0.00103439
0.00103397
0.000998081
0.00101621
0.00114757
0.00121495
0.00114867
0.00111117
0.00112419
0.000960424
0.00044162
0.000146107
2.70464e-05
1.18018e-05
1.08309e-05
1.06068e-05
1.04673e-05
1.03714e-05
1.03032e-05
1.02532e-05
1.02157e-05
1.01868e-05
1.01641e-05
1.01458e-05
1.01308e-05
1.01183e-05
1.01077e-05
1.00985e-05
1.00905e-05
1.00834e-05
1.00771e-05
1.00715e-05
1.00664e-05
1.00617e-05
1.00575e-05
1.00536e-05
1.00499e-05
1.00461e-05
1.00396e-05
1.00057e-05
9.8038e-06
1.08555e-05
0.000834696
0.000873484
0.000914956
0.000953741
0.000969796
0.000965626
0.000973128
0.000970802
0.000921544
0.000788168
0.000618507
0.000470203
0.000267747
8.20434e-05
2.46139e-05
1.29201e-05
1.16827e-05
1.13355e-05
1.11203e-05
1.09781e-05
1.08807e-05
1.08117e-05
1.07615e-05
1.07239e-05
1.0695e-05
1.06724e-05
1.06542e-05
1.06394e-05
1.06271e-05
1.06166e-05
1.06076e-05
1.05997e-05
1.05928e-05
1.05867e-05
1.05811e-05
1.05762e-05
1.05716e-05
1.05675e-05
1.05637e-05
1.056e-05
1.05557e-05
1.05443e-05
1.04783e-05
1.0132e-05
1.09028e-05
0.000581086
0.000631088
0.000665782
0.000682498
0.000667214
0.000562328
0.000363014
0.000219533
0.000170769
0.000151246
0.000122376
8.37407e-05
3.98033e-05
1.85003e-05
1.30638e-05
1.19942e-05
1.15901e-05
1.13367e-05
1.11681e-05
1.10509e-05
1.09674e-05
1.09066e-05
1.08613e-05
1.0827e-05
1.08003e-05
1.07792e-05
1.07622e-05
1.07482e-05
1.07365e-05
1.07265e-05
1.07178e-05
1.07102e-05
1.07035e-05
1.06975e-05
1.06921e-05
1.06872e-05
1.06827e-05
1.06786e-05
1.06749e-05
1.06712e-05
1.06668e-05
1.06546e-05
1.05849e-05
1.02277e-05
1.09128e-05
0.000235219
0.000223584
0.000194355
0.000146207
9.05203e-05
5.68081e-05
4.15754e-05
3.52385e-05
3.07896e-05
2.48089e-05
1.88481e-05
1.44353e-05
1.26659e-05
1.20258e-05
1.16738e-05
1.14271e-05
1.12482e-05
1.11183e-05
1.10243e-05
1.09554e-05
1.09042e-05
1.08654e-05
1.08355e-05
1.08119e-05
1.0793e-05
1.07775e-05
1.07646e-05
1.07537e-05
1.07443e-05
1.0736e-05
1.07288e-05
1.07223e-05
1.07165e-05
1.07112e-05
1.07063e-05
1.07019e-05
1.06979e-05
1.06942e-05
1.06906e-05
1.06868e-05
1.06795e-05
1.06474e-05
1.0489e-05
9.9229e-06
5.52192e-05
4.67788e-05
3.7761e-05
2.79835e-05
2.08942e-05
1.76384e-05
1.59682e-05
1.50702e-05
1.43835e-05
1.36085e-05
1.28975e-05
1.23466e-05
1.19645e-05
1.16739e-05
1.14479e-05
1.12761e-05
1.11473e-05
1.10511e-05
1.09791e-05
1.09247e-05
1.08832e-05
1.08511e-05
1.08259e-05
1.08057e-05
1.07892e-05
1.07755e-05
1.07639e-05
1.07539e-05
1.07452e-05
1.07375e-05
1.07306e-05
1.07244e-05
1.07187e-05
1.07136e-05
1.07088e-05
1.07045e-05
1.07005e-05
1.06968e-05
1.06933e-05
1.06898e-05
1.06853e-05
1.06729e-05
1.0626e-05
1.05097e-05
1.99751e-05
1.86102e-05
1.70015e-05
1.56623e-05
1.44937e-05
1.3736e-05
1.32897e-05
1.29598e-05
1.27116e-05
1.24874e-05
1.22589e-05
1.20309e-05
1.18054e-05
1.15991e-05
1.1418e-05
1.12685e-05
1.11496e-05
1.10572e-05
1.09864e-05
1.09323e-05
1.08907e-05
1.08584e-05
1.0833e-05
1.08127e-05
1.0796e-05
1.07821e-05
1.07703e-05
1.07601e-05
1.07511e-05
1.07431e-05
1.0736e-05
1.07295e-05
1.07236e-05
1.07181e-05
1.07131e-05
1.07084e-05
1.07042e-05
1.07002e-05
1.06966e-05
1.06932e-05
1.06897e-05
1.06852e-05
1.06727e-05
1.06259e-05
1.05096e-05
1.59677e-05
1.51889e-05
1.45051e-05
1.39455e-05
1.3486e-05
1.31184e-05
1.28188e-05
1.256e-05
1.23305e-05
1.21123e-05
1.19029e-05
1.17067e-05
1.1527e-05
1.13698e-05
1.12367e-05
1.11283e-05
1.10426e-05
1.09761e-05
1.09249e-05
1.08857e-05
1.08554e-05
1.08316e-05
1.08125e-05
1.07968e-05
1.07837e-05
1.07723e-05
1.07624e-05
1.07535e-05
1.07455e-05
1.07383e-05
1.07317e-05
1.07256e-05
1.07199e-05
1.07147e-05
1.07098e-05
1.07052e-05
1.0701e-05
1.06972e-05
1.06936e-05
1.06902e-05
1.06864e-05
1.06792e-05
1.06471e-05
1.04888e-05
9.92181e-06
1.52424e-05
1.45648e-05
1.39886e-05
1.35042e-05
1.30858e-05
1.27348e-05
1.24405e-05
1.2191e-05
1.19752e-05
1.17826e-05
1.16082e-05
1.14496e-05
1.13074e-05
1.11845e-05
1.10824e-05
1.10008e-05
1.09375e-05
1.08896e-05
1.08536e-05
1.08266e-05
1.08061e-05
1.079e-05
1.07767e-05
1.07655e-05
1.07556e-05
1.07466e-05
1.07384e-05
1.07308e-05
1.07237e-05
1.07171e-05
1.07109e-05
1.07052e-05
1.06998e-05
1.06947e-05
1.06899e-05
1.06855e-05
1.49554e-05
1.43162e-05
1.37768e-05
1.33026e-05
1.28907e-05
1.25362e-05
1.22306e-05
1.19659e-05
1.1736e-05
1.15353e-05
1.13586e-05
1.12044e-05
1.10727e-05
1.09638e-05
1.08768e-05
1.08098e-05
1.07604e-05
1.07253e-05
1.07009e-05
1.06839e-05
1.06716e-05
1.0662e-05
1.06536e-05
1.06459e-05
1.06385e-05
1.06314e-05
1.06244e-05
1.06176e-05
1.06111e-05
1.06049e-05
1.05991e-05
1.05935e-05
1.05883e-05
1.05833e-05
1.05786e-05
1.42133e-05
1.36587e-05
1.3154e-05
1.27022e-05
1.23027e-05
1.19527e-05
1.1648e-05
1.13836e-05
1.11543e-05
1.09554e-05
1.07837e-05
1.06347e-05
1.05083e-05
1.04045e-05
1.03225e-05
1.02608e-05
1.02168e-05
1.01874e-05
1.01691e-05
1.01584e-05
1.01517e-05
1.01464e-05
1.0141e-05
1.01351e-05
1.01288e-05
1.01222e-05
1.01155e-05
1.01088e-05
1.01024e-05
1.00961e-05
1.00901e-05
1.00844e-05
1.00791e-05
1.0074e-05
1.00691e-05
1.15859e-05
1.11729e-05
1.07948e-05
1.04548e-05
1.0153e-05
9.88713e-06
9.65448e-06
9.45173e-06
9.27514e-06
9.12196e-06
8.99046e-06
8.8794e-06
8.78739e-06
8.71253e-06
8.65411e-06
8.61096e-06
8.58101e-06
8.56207e-06
8.55175e-06
8.5476e-06
8.54647e-06
8.54481e-06
8.54164e-06
8.53732e-06
8.53226e-06
8.52682e-06
8.52123e-06
8.51566e-06
8.51022e-06
8.50497e-06
8.49996e-06
8.4952e-06
8.4907e-06
8.48645e-06
8.48244e-06
0.00105654
0.00100742
0.00100204
0.000985844
0.000940486
0.000939732
0.000964367
0.0010616
0.00117443
0.00122457
0.00126729
0.00123038
0.00104865
0.000507517
9.65609e-05
1.86688e-05
1.3664e-05
1.34984e-05
1.34633e-05
1.34351e-05
1.34125e-05
1.33944e-05
1.338e-05
1.33683e-05
1.33586e-05
1.33506e-05
1.33437e-05
1.33378e-05
1.33326e-05
1.33281e-05
1.3324e-05
1.33203e-05
1.3317e-05
1.33139e-05
1.33112e-05
1.33086e-05
1.33062e-05
1.33039e-05
1.33018e-05
1.32996e-05
1.32964e-05
1.32836e-05
1.32188e-05
1.33583e-05
0.00153931
0.00146141
0.00141085
0.00134365
0.00138062
0.00155746
0.00179628
0.00191926
0.00199047
0.0018728
0.00187535
0.00161545
0.000612626
0.000151237
3.44317e-05
2.0198e-05
1.84779e-05
1.82135e-05
1.82107e-05
1.82568e-05
1.8303e-05
1.83402e-05
1.83684e-05
1.83894e-05
1.84052e-05
1.8417e-05
1.84258e-05
1.84325e-05
1.84376e-05
1.84416e-05
1.84447e-05
1.84473e-05
1.84494e-05
1.84512e-05
1.84528e-05
1.84541e-05
1.84552e-05
1.84561e-05
1.84566e-05
1.84556e-05
1.84422e-05
1.83327e-05
1.76335e-05
1.41113e-05
0.00120504
0.00124925
0.00128317
0.00131434
0.00138939
0.00149694
0.00158637
0.00160643
0.00148496
0.00112715
0.000905619
0.000699941
0.000367667
9.56768e-05
3.4244e-05
2.29838e-05
2.06501e-05
1.99432e-05
1.97206e-05
1.96663e-05
1.9668e-05
1.96856e-05
1.97048e-05
1.97216e-05
1.97353e-05
1.97463e-05
1.97549e-05
1.97616e-05
1.97669e-05
1.97711e-05
1.97744e-05
1.97772e-05
1.97795e-05
1.97815e-05
1.97832e-05
1.97847e-05
1.9786e-05
1.97872e-05
1.97881e-05
1.97884e-05
1.97852e-05
1.97567e-05
1.95695e-05
1.8583e-05
1.42466e-05
0.000862233
0.000923762
0.000959814
0.000973651
0.000930751
0.000717386
0.000444517
0.000270712
0.000199265
0.000171306
0.000145321
0.00010219
5.15254e-05
2.96713e-05
2.39584e-05
2.16671e-05
2.06211e-05
2.02037e-05
2.0054e-05
2.00137e-05
2.00133e-05
2.00256e-05
2.00402e-05
2.00536e-05
2.0065e-05
2.00742e-05
2.00818e-05
2.00878e-05
2.00925e-05
2.00964e-05
2.00995e-05
2.01021e-05
2.01043e-05
2.01062e-05
2.01078e-05
2.01092e-05
2.01105e-05
2.01117e-05
2.01126e-05
2.01129e-05
2.01092e-05
2.00783e-05
1.98862e-05
1.89102e-05
1.45962e-05
0.000288586
0.000256353
0.000211328
0.000150459
9.16636e-05
5.99656e-05
4.5359e-05
3.98919e-05
3.7326e-05
3.36776e-05
2.91591e-05
2.52168e-05
2.29443e-05
2.15405e-05
2.07322e-05
2.03375e-05
2.0162e-05
2.00987e-05
2.00838e-05
2.00887e-05
2.01006e-05
2.01135e-05
2.01254e-05
2.01355e-05
2.01439e-05
2.01508e-05
2.01563e-05
2.01608e-05
2.01644e-05
2.01674e-05
2.01699e-05
2.01721e-05
2.01739e-05
2.01754e-05
2.01767e-05
2.0178e-05
2.01791e-05
2.01801e-05
2.01806e-05
2.01788e-05
2.01629e-05
2.00683e-05
1.96331e-05
1.80636e-05
5.19197e-05
4.509e-05
3.83675e-05
3.13296e-05
2.66184e-05
2.46263e-05
2.37959e-05
2.34991e-05
2.33446e-05
2.30143e-05
2.25205e-05
2.18508e-05
2.12136e-05
2.07172e-05
2.03912e-05
2.02134e-05
2.01311e-05
2.01015e-05
2.00979e-05
2.01056e-05
2.01172e-05
2.01291e-05
2.014e-05
2.01492e-05
2.0157e-05
2.01634e-05
2.01686e-05
2.01729e-05
2.01763e-05
2.01793e-05
2.01817e-05
2.01838e-05
2.01855e-05
2.01869e-05
2.01882e-05
2.01894e-05
2.01905e-05
2.01915e-05
2.01922e-05
2.01918e-05
2.01856e-05
2.01493e-05
2.0001e-05
1.95898e-05
2.67314e-05
2.58888e-05
2.48782e-05
2.40358e-05
2.32843e-05
2.27173e-05
2.23592e-05
2.21005e-05
2.19371e-05
2.17749e-05
2.1521e-05
2.12145e-05
2.08868e-05
2.05967e-05
2.03757e-05
2.023e-05
2.01485e-05
2.01107e-05
2.00991e-05
2.01015e-05
2.01104e-05
2.01214e-05
2.01324e-05
2.01423e-05
2.01509e-05
2.01581e-05
2.01641e-05
2.0169e-05
2.01731e-05
2.01765e-05
2.01794e-05
2.01818e-05
2.01837e-05
2.01854e-05
2.01868e-05
2.0188e-05
2.01892e-05
2.01904e-05
2.01914e-05
2.0192e-05
2.01917e-05
2.01854e-05
2.01492e-05
2.00008e-05
1.95897e-05
2.47564e-05
2.39245e-05
2.32016e-05
2.26046e-05
2.20912e-05
2.16868e-05
2.13944e-05
2.11747e-05
2.10193e-05
2.08936e-05
2.07675e-05
2.06327e-05
2.04842e-05
2.03464e-05
2.02349e-05
2.01582e-05
2.01139e-05
2.00942e-05
2.00903e-05
2.0095e-05
2.01038e-05
2.0114e-05
2.01239e-05
2.01329e-05
2.01407e-05
2.01474e-05
2.01531e-05
2.01578e-05
2.01617e-05
2.0165e-05
2.01678e-05
2.01701e-05
2.0172e-05
2.01736e-05
2.01749e-05
2.01762e-05
2.01774e-05
2.01785e-05
2.01795e-05
2.01801e-05
2.01784e-05
2.01625e-05
2.00678e-05
1.96327e-05
1.8064e-05
2.3962e-05
2.32711e-05
2.26777e-05
2.21803e-05
2.17584e-05
2.14171e-05
2.11498e-05
2.094e-05
2.07796e-05
2.06432e-05
2.05163e-05
2.0398e-05
2.02881e-05
2.01943e-05
2.01216e-05
2.00725e-05
2.00447e-05
2.00326e-05
2.0031e-05
2.00356e-05
2.00432e-05
2.00518e-05
2.00603e-05
2.00682e-05
2.00752e-05
2.00812e-05
2.00864e-05
2.00908e-05
2.00945e-05
2.00976e-05
2.01003e-05
2.01025e-05
2.01044e-05
2.01059e-05
2.01072e-05
2.01084e-05
2.30155e-05
2.24497e-05
2.19551e-05
2.15316e-05
2.11741e-05
2.08849e-05
2.06565e-05
2.04757e-05
2.0333e-05
2.02134e-05
2.01096e-05
2.00171e-05
1.99339e-05
1.98634e-05
1.9808e-05
1.97686e-05
1.9744e-05
1.97312e-05
1.9727e-05
1.97282e-05
1.97324e-05
1.97381e-05
1.97441e-05
1.975e-05
1.97554e-05
1.97603e-05
1.97646e-05
1.97683e-05
1.97715e-05
1.97742e-05
1.97765e-05
1.97786e-05
1.97803e-05
1.97817e-05
1.97829e-05
2.11081e-05
2.07127e-05
2.03538e-05
2.00353e-05
1.9759e-05
1.95264e-05
1.93339e-05
1.91753e-05
1.90442e-05
1.89317e-05
1.88324e-05
1.87445e-05
1.86664e-05
1.85988e-05
1.85433e-05
1.85007e-05
1.84703e-05
1.84503e-05
1.84384e-05
1.84322e-05
1.84299e-05
1.84298e-05
1.84311e-05
1.84331e-05
1.84355e-05
1.84379e-05
1.84403e-05
1.84425e-05
1.84445e-05
1.84463e-05
1.84479e-05
1.84493e-05
1.84505e-05
1.84516e-05
1.84524e-05
1.62353e-05
1.58614e-05
1.55198e-05
1.52117e-05
1.49372e-05
1.46946e-05
1.44815e-05
1.42948e-05
1.41311e-05
1.39868e-05
1.38594e-05
1.37474e-05
1.36506e-05
1.35701e-05
1.35055e-05
1.34559e-05
1.34197e-05
1.33948e-05
1.33789e-05
1.33698e-05
1.33644e-05
1.33601e-05
1.33558e-05
1.33514e-05
1.33471e-05
1.33429e-05
1.33388e-05
1.33349e-05
1.33312e-05
1.33276e-05
1.33243e-05
1.33211e-05
1.33181e-05
1.33152e-05
1.33125e-05
0.00124126
0.00116233
0.00112537
0.00100177
0.000871882
0.0008775
0.000964387
0.00117162
0.00134356
0.00149981
0.00153743
0.001408
0.00103489
0.000371342
6.12903e-05
1.75009e-05
1.4981e-05
1.47736e-05
1.46784e-05
1.46162e-05
1.4573e-05
1.45417e-05
1.45183e-05
1.45002e-05
1.44858e-05
1.44743e-05
1.44647e-05
1.44567e-05
1.44499e-05
1.44439e-05
1.44387e-05
1.44341e-05
1.443e-05
1.44263e-05
1.44229e-05
1.44199e-05
1.44171e-05
1.44145e-05
1.4412e-05
1.44094e-05
1.44037e-05
1.43722e-05
1.41988e-05
1.3944e-05
0.00159665
0.00145226
0.0013384
0.00134174
0.00150594
0.00182875
0.00210277
0.00223172
0.00232504
0.00266357
0.00289656
0.00171712
0.0004913
0.00011534
3.61467e-05
2.46622e-05
2.21768e-05
2.15453e-05
2.1389e-05
2.13639e-05
2.13743e-05
2.13924e-05
2.14092e-05
2.14232e-05
2.14341e-05
2.14425e-05
2.14489e-05
2.14537e-05
2.14573e-05
2.14601e-05
2.14623e-05
2.14641e-05
2.14655e-05
2.14668e-05
2.14678e-05
2.14687e-05
2.14695e-05
2.14701e-05
2.14702e-05
2.14674e-05
2.14423e-05
2.127e-05
2.02937e-05
1.48989e-05
0.00111471
0.0011742
0.00124606
0.00133021
0.0014951
0.00171358
0.00180246
0.00170423
0.00136119
0.00114222
0.00102652
0.000791761
0.000319325
8.52183e-05
4.09413e-05
3.00289e-05
2.57949e-05
2.41496e-05
2.35079e-05
2.3261e-05
2.31693e-05
2.31383e-05
2.31305e-05
2.31314e-05
2.31351e-05
2.31394e-05
2.31434e-05
2.31469e-05
2.31498e-05
2.31522e-05
2.31542e-05
2.31559e-05
2.31573e-05
2.31585e-05
2.31596e-05
2.31606e-05
2.31614e-05
2.31621e-05
2.31627e-05
2.31623e-05
2.31556e-05
2.31086e-05
2.28442e-05
2.15659e-05
1.51553e-05
0.000764655
0.000844502
0.00089649
0.000903108
0.000811711
0.0005536
0.000346286
0.000231289
0.000189054
0.000180709
0.000160637
0.000107457
5.6401e-05
3.96584e-05
3.24252e-05
2.77766e-05
2.53955e-05
2.43465e-05
2.38979e-05
2.37084e-05
2.36306e-05
2.36002e-05
2.359e-05
2.35882e-05
2.35898e-05
2.35925e-05
2.35954e-05
2.35982e-05
2.36005e-05
2.36025e-05
2.36043e-05
2.36058e-05
2.36071e-05
2.36082e-05
2.36092e-05
2.36101e-05
2.36109e-05
2.36116e-05
2.36121e-05
2.36116e-05
2.3604e-05
2.35541e-05
2.32894e-05
2.20595e-05
1.58274e-05
0.000216542
0.000189661
0.000153702
0.000109291
7.46625e-05
5.8579e-05
5.12587e-05
4.89496e-05
4.76672e-05
4.41741e-05
3.902e-05
3.44242e-05
3.06043e-05
2.75753e-05
2.56631e-05
2.46536e-05
2.41435e-05
2.38965e-05
2.37816e-05
2.37295e-05
2.37077e-05
2.37001e-05
2.36988e-05
2.37002e-05
2.37026e-05
2.37052e-05
2.37076e-05
2.37098e-05
2.37116e-05
2.37133e-05
2.37147e-05
2.3716e-05
2.3717e-05
2.3718e-05
2.37188e-05
2.37196e-05
2.37203e-05
2.37209e-05
2.37207e-05
2.37162e-05
2.36871e-05
2.35427e-05
2.29637e-05
2.1013e-05
4.87138e-05
4.48319e-05
4.09916e-05
3.69588e-05
3.4237e-05
3.29552e-05
3.21829e-05
3.17457e-05
3.13827e-05
3.07299e-05
2.97354e-05
2.82912e-05
2.68061e-05
2.55913e-05
2.47601e-05
2.4264e-05
2.39891e-05
2.38452e-05
2.37731e-05
2.37396e-05
2.37254e-05
2.37208e-05
2.37207e-05
2.37225e-05
2.37249e-05
2.37274e-05
2.37298e-05
2.37318e-05
2.37337e-05
2.37353e-05
2.37367e-05
2.37379e-05
2.37389e-05
2.37398e-05
2.37406e-05
2.37414e-05
2.37421e-05
2.37427e-05
2.37429e-05
2.37408e-05
2.37268e-05
2.36612e-05
2.34292e-05
2.28444e-05
3.51003e-05
3.37981e-05
3.25131e-05
3.1431e-05
3.04251e-05
2.95634e-05
2.89457e-05
2.84744e-05
2.81754e-05
2.78607e-05
2.73427e-05
2.6678e-05
2.59288e-05
2.52373e-05
2.46808e-05
2.42845e-05
2.40308e-05
2.38797e-05
2.37954e-05
2.37514e-05
2.37303e-05
2.37217e-05
2.37195e-05
2.37203e-05
2.37225e-05
2.3725e-05
2.37275e-05
2.37299e-05
2.37319e-05
2.37337e-05
2.37353e-05
2.37367e-05
2.37379e-05
2.37389e-05
2.37397e-05
2.37405e-05
2.37413e-05
2.3742e-05
2.37426e-05
2.37428e-05
2.37407e-05
2.37268e-05
2.36611e-05
2.34292e-05
2.28445e-05
3.1859e-05
3.05464e-05
2.94016e-05
2.84453e-05
2.76135e-05
2.69561e-05
2.64924e-05
2.61501e-05
2.59126e-05
2.57085e-05
2.54753e-05
2.51938e-05
2.48605e-05
2.45322e-05
2.42488e-05
2.40343e-05
2.38883e-05
2.37971e-05
2.37443e-05
2.37163e-05
2.37031e-05
2.3698e-05
2.36973e-05
2.36987e-05
2.3701e-05
2.37035e-05
2.3706e-05
2.37082e-05
2.37102e-05
2.3712e-05
2.37135e-05
2.37149e-05
2.3716e-05
2.37169e-05
2.37178e-05
2.37186e-05
2.37193e-05
2.372e-05
2.37206e-05
2.37204e-05
2.3716e-05
2.36869e-05
2.35425e-05
2.29636e-05
2.10141e-05
2.99501e-05
2.89007e-05
2.7994e-05
2.72367e-05
2.66003e-05
2.60929e-05
2.57061e-05
2.54081e-05
2.51796e-05
2.49739e-05
2.47636e-05
2.45467e-05
2.43265e-05
2.41219e-05
2.39475e-05
2.38129e-05
2.37191e-05
2.36589e-05
2.36233e-05
2.36038e-05
2.35944e-05
2.35908e-05
2.35905e-05
2.35918e-05
2.35938e-05
2.3596e-05
2.35982e-05
2.36002e-05
2.3602e-05
2.36036e-05
2.3605e-05
2.36063e-05
2.36074e-05
2.36083e-05
2.36091e-05
2.36098e-05
2.80609e-05
2.72617e-05
2.65566e-05
2.59525e-05
2.5445e-05
2.50396e-05
2.47256e-05
2.44815e-05
2.42921e-05
2.41305e-05
2.39784e-05
2.3827e-05
2.3676e-05
2.3536e-05
2.34169e-05
2.33239e-05
2.32562e-05
2.32102e-05
2.3181e-05
2.31638e-05
2.31543e-05
2.31497e-05
2.31481e-05
2.3148e-05
2.31488e-05
2.31501e-05
2.31515e-05
2.31528e-05
2.31542e-05
2.31554e-05
2.31565e-05
2.31575e-05
2.31584e-05
2.31592e-05
2.31599e-05
2.51011e-05
2.45763e-05
2.41011e-05
2.3682e-05
2.33213e-05
2.30221e-05
2.27789e-05
2.25818e-05
2.24202e-05
2.22808e-05
2.21541e-05
2.20345e-05
2.19208e-05
2.18162e-05
2.17251e-05
2.16505e-05
2.15928e-05
2.15506e-05
2.15209e-05
2.15008e-05
2.14874e-05
2.14788e-05
2.14733e-05
2.147e-05
2.1468e-05
2.1467e-05
2.14665e-05
2.14664e-05
2.14665e-05
2.14668e-05
2.14671e-05
2.14675e-05
2.14679e-05
2.14683e-05
2.14686e-05
1.76421e-05
1.7252e-05
1.68944e-05
1.65708e-05
1.62816e-05
1.60255e-05
1.58003e-05
1.56026e-05
1.54284e-05
1.52734e-05
1.51348e-05
1.50107e-05
1.49008e-05
1.48055e-05
1.47255e-05
1.46607e-05
1.46102e-05
1.45725e-05
1.45455e-05
1.45267e-05
1.45131e-05
1.4502e-05
1.44922e-05
1.44833e-05
1.44753e-05
1.4468e-05
1.44613e-05
1.44553e-05
1.44498e-05
1.44448e-05
1.44402e-05
1.44359e-05
1.44321e-05
1.44285e-05
1.44251e-05
0.00131616
0.0012306
0.00114546
0.000844257
0.000682935
0.000757301
0.00102397
0.00126525
0.00147157
0.00158093
0.00153761
0.00132544
0.000820507
0.000219106
3.48668e-05
1.64335e-05
1.53898e-05
1.52017e-05
1.50974e-05
1.50297e-05
1.49831e-05
1.49494e-05
1.49243e-05
1.49049e-05
1.48897e-05
1.48774e-05
1.48673e-05
1.48588e-05
1.48516e-05
1.48454e-05
1.48399e-05
1.48351e-05
1.48308e-05
1.48269e-05
1.48234e-05
1.48202e-05
1.48173e-05
1.48147e-05
1.48122e-05
1.48092e-05
1.48005e-05
1.47495e-05
1.44858e-05
1.40446e-05
0.00140579
0.00119563
0.00116289
0.0012431
0.00154797
0.00187377
0.00209292
0.00228305
0.00266879
0.0031673
0.00280457
0.00110801
0.000288619
7.64085e-05
3.4797e-05
2.612e-05
2.37062e-05
2.29922e-05
2.27793e-05
2.27229e-05
2.27165e-05
2.27247e-05
2.27358e-05
2.2746e-05
2.27544e-05
2.2761e-05
2.2766e-05
2.27698e-05
2.27726e-05
2.27747e-05
2.27764e-05
2.27777e-05
2.27787e-05
2.27796e-05
2.27803e-05
2.27809e-05
2.27815e-05
2.27818e-05
2.27815e-05
2.27767e-05
2.27405e-05
2.25187e-05
2.13628e-05
1.51404e-05
0.000870324
0.00090062
0.00101474
0.0011807
0.00136858
0.00152613
0.00155007
0.00133772
0.00107485
0.00101217
0.000931516
0.00063068
0.000167551
6.85405e-05
4.34053e-05
3.30215e-05
2.81413e-05
2.61035e-05
2.5259e-05
2.49106e-05
2.47674e-05
2.47092e-05
2.46863e-05
2.46783e-05
2.46765e-05
2.46772e-05
2.46788e-05
2.46805e-05
2.46821e-05
2.46835e-05
2.46847e-05
2.46857e-05
2.46866e-05
2.46874e-05
2.46881e-05
2.46887e-05
2.46892e-05
2.46897e-05
2.46899e-05
2.46888e-05
2.46786e-05
2.46159e-05
2.42966e-05
2.28419e-05
1.54998e-05
0.000470405
0.000540126
0.000575994
0.00055935
0.000452925
0.000319318
0.000229234
0.00017681
0.000161158
0.000157198
0.000138108
8.89966e-05
5.59424e-05
4.51805e-05
3.67076e-05
3.08067e-05
2.77282e-05
2.63404e-05
2.57178e-05
2.54382e-05
2.53125e-05
2.5256e-05
2.52308e-05
2.52201e-05
2.5216e-05
2.5215e-05
2.52154e-05
2.52162e-05
2.52172e-05
2.52182e-05
2.52192e-05
2.522e-05
2.52208e-05
2.52215e-05
2.52221e-05
2.52226e-05
2.52231e-05
2.52236e-05
2.52237e-05
2.52223e-05
2.52109e-05
2.51453e-05
2.48314e-05
2.34578e-05
1.63856e-05
0.000113032
0.000101408
8.74766e-05
7.26479e-05
6.22394e-05
5.64177e-05
5.34275e-05
5.26147e-05
5.18393e-05
4.88145e-05
4.4193e-05
3.94309e-05
3.46461e-05
3.06976e-05
2.81647e-05
2.67905e-05
2.60688e-05
2.57044e-05
2.55245e-05
2.54357e-05
2.53925e-05
2.53721e-05
2.53629e-05
2.53592e-05
2.53581e-05
2.53582e-05
2.53589e-05
2.53598e-05
2.53607e-05
2.53615e-05
2.53623e-05
2.5363e-05
2.53636e-05
2.53642e-05
2.53647e-05
2.53652e-05
2.53656e-05
2.53659e-05
2.5365e-05
2.53575e-05
2.53161e-05
2.5133e-05
2.44626e-05
2.23091e-05
4.85387e-05
4.60126e-05
4.36869e-05
4.1319e-05
3.94504e-05
3.83202e-05
3.73874e-05
3.67079e-05
3.61001e-05
3.51877e-05
3.3804e-05
3.18256e-05
2.97915e-05
2.81117e-05
2.69527e-05
2.6247e-05
2.58438e-05
2.56235e-05
2.55059e-05
2.54452e-05
2.54147e-05
2.53998e-05
2.5393e-05
2.53903e-05
2.53897e-05
2.539e-05
2.53907e-05
2.53916e-05
2.53925e-05
2.53933e-05
2.53941e-05
2.53948e-05
2.53954e-05
2.53959e-05
2.53964e-05
2.53969e-05
2.53973e-05
2.53976e-05
2.53973e-05
2.53931e-05
2.53704e-05
2.52765e-05
2.49772e-05
2.42766e-05
4.10194e-05
3.90066e-05
3.72232e-05
3.57679e-05
3.44813e-05
3.33833e-05
3.25767e-05
3.19777e-05
3.15989e-05
3.11892e-05
3.05082e-05
2.96084e-05
2.85831e-05
2.76269e-05
2.68444e-05
2.62779e-05
2.59059e-05
2.56769e-05
2.5543e-05
2.54678e-05
2.5427e-05
2.54059e-05
2.53956e-05
2.5391e-05
2.53894e-05
2.53892e-05
2.53898e-05
2.53906e-05
2.53916e-05
2.53925e-05
2.53933e-05
2.53941e-05
2.53948e-05
2.53954e-05
2.53959e-05
2.53964e-05
2.53969e-05
2.53973e-05
2.53976e-05
2.53972e-05
2.5393e-05
2.53704e-05
2.52764e-05
2.49772e-05
2.42768e-05
3.64333e-05
3.46801e-05
3.31563e-05
3.18807e-05
3.07889e-05
2.99352e-05
2.93325e-05
2.8889e-05
2.85738e-05
2.82923e-05
2.79635e-05
2.75624e-05
2.70905e-05
2.66235e-05
2.6217e-05
2.59048e-05
2.56873e-05
2.55466e-05
2.54606e-05
2.54106e-05
2.5383e-05
2.53684e-05
2.53613e-05
2.53582e-05
2.53573e-05
2.53575e-05
2.53581e-05
2.5359e-05
2.53599e-05
2.53608e-05
2.53616e-05
2.53624e-05
2.5363e-05
2.53636e-05
2.53641e-05
2.53646e-05
2.53651e-05
2.53655e-05
2.53657e-05
2.53649e-05
2.53574e-05
2.5316e-05
2.51329e-05
2.44627e-05
2.23103e-05
3.36687e-05
3.22908e-05
3.10975e-05
3.01022e-05
2.92746e-05
2.86202e-05
2.81243e-05
2.77447e-05
2.74525e-05
2.71861e-05
2.6908e-05
2.66142e-05
2.63106e-05
2.60244e-05
2.5777e-05
2.55826e-05
2.54428e-05
2.53495e-05
2.5291e-05
2.5256e-05
2.52358e-05
2.52249e-05
2.52194e-05
2.52169e-05
2.52162e-05
2.52163e-05
2.52168e-05
2.52176e-05
2.52184e-05
2.52191e-05
2.52199e-05
2.52205e-05
2.52211e-05
2.52216e-05
2.52221e-05
2.52226e-05
3.1006e-05
3.00043e-05
2.91145e-05
2.83499e-05
2.77089e-05
2.71984e-05
2.68046e-05
2.64997e-05
2.6261e-05
2.60536e-05
2.58539e-05
2.56514e-05
2.54473e-05
2.52562e-05
2.50916e-05
2.49611e-05
2.48649e-05
2.47976e-05
2.4753e-05
2.47246e-05
2.47073e-05
2.4697e-05
2.46912e-05
2.4688e-05
2.46864e-05
2.46857e-05
2.46856e-05
2.46858e-05
2.46861e-05
2.46865e-05
2.46869e-05
2.46874e-05
2.46878e-05
2.46882e-05
2.46885e-05
2.72086e-05
2.65761e-05
2.60022e-05
2.54964e-05
2.50622e-05
2.47032e-05
2.44119e-05
2.41756e-05
2.39816e-05
2.38133e-05
2.36592e-05
2.35124e-05
2.33719e-05
2.3242e-05
2.31282e-05
2.30344e-05
2.29612e-05
2.29067e-05
2.28676e-05
2.28403e-05
2.28214e-05
2.28085e-05
2.27997e-05
2.27936e-05
2.27895e-05
2.27868e-05
2.27849e-05
2.27836e-05
2.27828e-05
2.27822e-05
2.27818e-05
2.27816e-05
2.27815e-05
2.27815e-05
2.27815e-05
1.8205e-05
1.78025e-05
1.74333e-05
1.70989e-05
1.67998e-05
1.6535e-05
1.6302e-05
1.60972e-05
1.59162e-05
1.57546e-05
1.56093e-05
1.54782e-05
1.53611e-05
1.52586e-05
1.51714e-05
1.50998e-05
1.50432e-05
1.5e-05
1.49681e-05
1.4945e-05
1.49278e-05
1.49137e-05
1.49016e-05
1.48909e-05
1.48814e-05
1.4873e-05
1.48654e-05
1.48587e-05
1.48526e-05
1.4847e-05
1.4842e-05
1.48375e-05
1.48333e-05
1.48295e-05
1.48259e-05
0.00134171
0.00125894
0.00109175
0.000632928
0.000512816
0.000620221
0.00091198
0.00117085
0.0013448
0.00137808
0.00128488
0.00105561
0.000500541
0.000100429
2.17476e-05
1.60016e-05
1.55378e-05
1.53676e-05
1.52651e-05
1.51977e-05
1.51509e-05
1.51171e-05
1.50917e-05
1.50721e-05
1.50567e-05
1.50442e-05
1.50339e-05
1.50253e-05
1.50179e-05
1.50116e-05
1.5006e-05
1.50012e-05
1.49968e-05
1.49929e-05
1.49893e-05
1.49861e-05
1.49833e-05
1.49806e-05
1.49781e-05
1.49749e-05
1.49637e-05
1.48981e-05
1.45796e-05
1.40613e-05
0.00133869
0.00106856
0.000951116
0.000988989
0.00125804
0.00155669
0.00187854
0.00226995
0.00272944
0.002783
0.00164669
0.00047199
0.000154771
5.4286e-05
3.26921e-05
2.62922e-05
2.42974e-05
2.36404e-05
2.34238e-05
2.33576e-05
2.33435e-05
2.33465e-05
2.33542e-05
2.33621e-05
2.33688e-05
2.33741e-05
2.33782e-05
2.33812e-05
2.33835e-05
2.33852e-05
2.33864e-05
2.33874e-05
2.33882e-05
2.33888e-05
2.33893e-05
2.33898e-05
2.33901e-05
2.33903e-05
2.33896e-05
2.3383e-05
2.33375e-05
2.3078e-05
2.18028e-05
1.52202e-05
0.000761514
0.000657779
0.000736714
0.000869177
0.00100406
0.00105793
0.00096786
0.000801371
0.00076417
0.000747411
0.000619369
0.000269019
9.72e-05
5.89372e-05
4.3092e-05
3.36707e-05
2.90464e-05
2.69998e-05
2.61129e-05
2.57304e-05
2.55653e-05
2.54935e-05
2.54624e-05
2.54493e-05
2.54442e-05
2.54426e-05
2.54426e-05
2.54432e-05
2.54439e-05
2.54446e-05
2.54453e-05
2.54459e-05
2.54465e-05
2.5447e-05
2.54474e-05
2.54478e-05
2.54481e-05
2.54484e-05
2.54484e-05
2.54466e-05
2.54333e-05
2.53576e-05
2.49966e-05
2.34194e-05
1.56422e-05
0.000240398
0.000250207
0.000260662
0.000255324
0.000218807
0.000171221
0.000136213
0.000118359
0.000112785
0.000109818
9.35768e-05
6.84947e-05
5.62903e-05
4.7054e-05
3.80983e-05
3.19987e-05
2.88124e-05
2.73367e-05
2.66481e-05
2.63271e-05
2.61765e-05
2.61051e-05
2.6071e-05
2.60547e-05
2.6047e-05
2.60436e-05
2.60422e-05
2.60419e-05
2.6042e-05
2.60423e-05
2.60427e-05
2.60431e-05
2.60435e-05
2.60439e-05
2.60442e-05
2.60445e-05
2.60448e-05
2.60451e-05
2.6045e-05
2.60427e-05
2.60278e-05
2.5949e-05
2.55973e-05
2.41219e-05
1.66418e-05
7.72317e-05
7.17133e-05
6.66601e-05
6.16366e-05
5.74259e-05
5.48375e-05
5.33723e-05
5.29472e-05
5.22683e-05
4.98654e-05
4.61489e-05
4.13854e-05
3.62962e-05
3.21002e-05
2.93947e-05
2.78876e-05
2.70709e-05
2.66485e-05
2.64331e-05
2.63228e-05
2.62666e-05
2.62381e-05
2.62238e-05
2.62167e-05
2.62133e-05
2.62118e-05
2.62113e-05
2.62113e-05
2.62115e-05
2.62118e-05
2.62121e-05
2.62125e-05
2.62128e-05
2.62131e-05
2.62134e-05
2.62137e-05
2.62139e-05
2.62139e-05
2.62123e-05
2.62018e-05
2.6149e-05
2.59333e-05
2.51908e-05
2.28958e-05
5.19754e-05
4.90711e-05
4.66331e-05
4.43834e-05
4.25843e-05
4.13465e-05
4.02306e-05
3.93606e-05
3.85613e-05
3.74559e-05
3.58098e-05
3.35597e-05
3.12826e-05
2.94018e-05
2.80969e-05
2.72899e-05
2.68199e-05
2.65569e-05
2.64124e-05
2.63352e-05
2.62942e-05
2.62727e-05
2.62616e-05
2.62559e-05
2.62532e-05
2.62521e-05
2.62517e-05
2.62517e-05
2.62519e-05
2.62522e-05
2.62526e-05
2.62529e-05
2.62532e-05
2.62535e-05
2.62538e-05
2.62541e-05
2.62543e-05
2.62544e-05
2.62534e-05
2.62468e-05
2.62149e-05
2.60931e-05
2.57323e-05
2.49344e-05
4.55163e-05
4.26475e-05
4.02229e-05
3.83001e-05
3.67084e-05
3.54116e-05
3.4473e-05
3.38006e-05
3.33682e-05
3.28936e-05
3.21262e-05
3.11112e-05
2.99607e-05
2.88807e-05
2.79868e-05
2.73325e-05
2.68961e-05
2.66226e-05
2.64591e-05
2.63647e-05
2.63115e-05
2.62823e-05
2.62666e-05
2.62584e-05
2.62543e-05
2.62524e-05
2.62516e-05
2.62514e-05
2.62516e-05
2.62519e-05
2.62522e-05
2.62525e-05
2.62529e-05
2.62532e-05
2.62535e-05
2.62538e-05
2.62541e-05
2.62543e-05
2.62544e-05
2.62534e-05
2.62468e-05
2.62148e-05
2.60931e-05
2.57323e-05
2.49345e-05
3.94195e-05
3.72819e-05
3.54326e-05
3.38897e-05
3.2603e-05
3.16184e-05
3.09247e-05
3.04165e-05
3.00468e-05
2.97077e-05
2.93118e-05
2.88335e-05
2.82804e-05
2.77343e-05
2.72583e-05
2.68906e-05
2.66315e-05
2.64611e-05
2.63547e-05
2.6291e-05
2.62542e-05
2.62334e-05
2.6222e-05
2.6216e-05
2.6213e-05
2.62116e-05
2.62111e-05
2.6211e-05
2.62112e-05
2.62115e-05
2.62118e-05
2.62122e-05
2.62125e-05
2.62128e-05
2.62131e-05
2.62134e-05
2.62136e-05
2.62139e-05
2.62138e-05
2.62122e-05
2.62017e-05
2.61489e-05
2.59332e-05
2.51908e-05
2.28969e-05
3.60303e-05
3.43839e-05
3.29575e-05
3.17701e-05
3.0794e-05
3.00294e-05
2.94529e-05
2.90148e-05
2.86769e-05
2.83691e-05
2.80481e-05
2.77074e-05
2.73546e-05
2.70204e-05
2.67303e-05
2.6501e-05
2.63341e-05
2.62209e-05
2.61483e-05
2.61035e-05
2.60766e-05
2.6061e-05
2.60521e-05
2.60472e-05
2.60446e-05
2.60434e-05
2.60429e-05
2.60427e-05
2.60428e-05
2.6043e-05
2.60433e-05
2.60436e-05
2.60438e-05
2.60441e-05
2.60443e-05
2.60445e-05
3.27762e-05
3.16206e-05
3.05902e-05
2.9704e-05
2.89639e-05
2.8376e-05
2.79231e-05
2.75726e-05
2.72964e-05
2.70551e-05
2.68222e-05
2.65862e-05
2.63495e-05
2.61282e-05
2.59373e-05
2.57854e-05
2.56726e-05
2.5593e-05
2.55393e-05
2.55043e-05
2.54822e-05
2.54684e-05
2.546e-05
2.54548e-05
2.54517e-05
2.54498e-05
2.54487e-05
2.54481e-05
2.54477e-05
2.54476e-05
2.54475e-05
2.54476e-05
2.54477e-05
2.54478e-05
2.54479e-05
2.83318e-05
2.76225e-05
2.6979e-05
2.64132e-05
2.59295e-05
2.55309e-05
2.52081e-05
2.49464e-05
2.47309e-05
2.45433e-05
2.43717e-05
2.42089e-05
2.40537e-05
2.39106e-05
2.37856e-05
2.36823e-05
2.36014e-05
2.35407e-05
2.34967e-05
2.34654e-05
2.34435e-05
2.34281e-05
2.34173e-05
2.34097e-05
2.34043e-05
2.34004e-05
2.33976e-05
2.33956e-05
2.33941e-05
2.3393e-05
2.33922e-05
2.33917e-05
2.33912e-05
2.33909e-05
2.33907e-05
1.84274e-05
1.8019e-05
1.7645e-05
1.73066e-05
1.70043e-05
1.6737e-05
1.65018e-05
1.62949e-05
1.61122e-05
1.59488e-05