/*--------------------------------*- C++ -*----------------------------------*\
| =========                 |                                                 |
| \\      /  F ield         | OpenFOAM: The Open Source CFD Toolbox           |
|  \\    /   O peration     | Version:  2.3.1                                 |
|   \\  /    A nd           | Web:      www.OpenFOAM.org                      |
|    \\/     M anipulation  |                                                 |
\*---------------------------------------------------------------------------*/
FoamFile
{
    version     2.0;
    format      ascii;
    class       volScalarField;
    location    "5";
    object      k_0;
}
// * * * * * * * * * * * * * * * * * * * * * * * * * * * * * * * * * * * * * //

dimensions      [0 2 -2 0 0 0 0];

internalField   nonuniform List<scalar> 
38152
(
0.000776161
0.000745894
0.000707968
0.000709519
0.000718397
0.000726768
0.000752771
0.000836462
0.000884165
0.000870669
0.000826339
0.000815821
0.000773386
0.000529156
0.000118028
1.76071e-05
9.55334e-06
9.03771e-06
8.86932e-06
8.76717e-06
8.69911e-06
8.65128e-06
8.61627e-06
8.58982e-06
8.56929e-06
8.55297e-06
8.53972e-06
8.52874e-06
8.51948e-06
8.51155e-06
8.50466e-06
8.49859e-06
8.4932e-06
8.48837e-06
8.48401e-06
8.48005e-06
8.47644e-06
8.47311e-06
8.47003e-06
8.46712e-06
8.46427e-06
8.46083e-06
8.47967e-06
9.91125e-06
0.000959827
0.000990234
0.00103588
0.00103512
0.000999212
0.0010183
0.00115086
0.00121597
0.00114832
0.00111252
0.00112458
0.000954868
0.000435343
0.000143467
2.65178e-05
1.17709e-05
1.08305e-05
1.06082e-05
1.04695e-05
1.0374e-05
1.0306e-05
1.02562e-05
1.02188e-05
1.019e-05
1.01674e-05
1.01492e-05
1.01342e-05
1.01217e-05
1.01111e-05
1.01019e-05
1.00939e-05
1.00868e-05
1.00806e-05
1.00749e-05
1.00698e-05
1.00652e-05
1.0061e-05
1.00571e-05
1.00534e-05
1.00496e-05
1.00431e-05
1.00093e-05
9.80745e-06
1.08597e-05
0.000836115
0.00087488
0.000916473
0.000955119
0.000970879
0.000966676
0.000974177
0.000971347
0.000920719
0.000785654
0.000615917
0.000467676
0.000263905
8.07411e-05
2.42675e-05
1.2885e-05
1.16796e-05
1.13355e-05
1.11215e-05
1.09799e-05
1.08829e-05
1.08143e-05
1.07643e-05
1.07267e-05
1.0698e-05
1.06754e-05
1.06573e-05
1.06426e-05
1.06302e-05
1.06198e-05
1.06108e-05
1.06029e-05
1.0596e-05
1.05899e-05
1.05844e-05
1.05794e-05
1.05749e-05
1.05707e-05
1.05669e-05
1.05632e-05
1.0559e-05
1.05476e-05
1.04816e-05
1.01355e-05
1.0907e-05
0.00058185
0.000631755
0.000666322
0.000682657
0.000666718
0.000560058
0.000360704
0.000218562
0.000170512
0.000150876
0.000121805
8.29912e-05
3.92769e-05
1.83607e-05
1.30395e-05
1.19904e-05
1.15893e-05
1.13373e-05
1.11695e-05
1.10529e-05
1.09697e-05
1.09091e-05
1.08641e-05
1.08298e-05
1.08032e-05
1.07822e-05
1.07652e-05
1.07513e-05
1.07396e-05
1.07295e-05
1.07209e-05
1.07133e-05
1.07066e-05
1.07006e-05
1.06952e-05
1.06903e-05
1.06859e-05
1.06818e-05
1.0678e-05
1.06744e-05
1.067e-05
1.06577e-05
1.05881e-05
1.02312e-05
1.0917e-05
0.000235078
0.000223217
0.000193768
0.000145501
8.99593e-05
5.6558e-05
4.14834e-05
3.5174e-05
3.07028e-05
2.47102e-05
1.87616e-05
1.43967e-05
1.26559e-05
1.20233e-05
1.16732e-05
1.14276e-05
1.12494e-05
1.11201e-05
1.10265e-05
1.09579e-05
1.09068e-05
1.08682e-05
1.08383e-05
1.08148e-05
1.07959e-05
1.07805e-05
1.07677e-05
1.07567e-05
1.07473e-05
1.07391e-05
1.07318e-05
1.07254e-05
1.07196e-05
1.07143e-05
1.07094e-05
1.0705e-05
1.0701e-05
1.06973e-05
1.06938e-05
1.06899e-05
1.06827e-05
1.06506e-05
1.04923e-05
9.92645e-06
5.51132e-05
4.6649e-05
3.76289e-05
2.78811e-05
2.08426e-05
1.76178e-05
1.59593e-05
1.50634e-05
1.43754e-05
1.36002e-05
1.28914e-05
1.23437e-05
1.19634e-05
1.16737e-05
1.14485e-05
1.12774e-05
1.11491e-05
1.10532e-05
1.09814e-05
1.09273e-05
1.08859e-05
1.08539e-05
1.08288e-05
1.08086e-05
1.07922e-05
1.07785e-05
1.07669e-05
1.07569e-05
1.07482e-05
1.07405e-05
1.07337e-05
1.07275e-05
1.07218e-05
1.07167e-05
1.07119e-05
1.07076e-05
1.07036e-05
1.06999e-05
1.06964e-05
1.0693e-05
1.06885e-05
1.0676e-05
1.06292e-05
1.0513e-05
1.9962e-05
1.8595e-05
1.69874e-05
1.56512e-05
1.44875e-05
1.37338e-05
1.32893e-05
1.29603e-05
1.27121e-05
1.24878e-05
1.22591e-05
1.2031e-05
1.18058e-05
1.15997e-05
1.14191e-05
1.12699e-05
1.11514e-05
1.10594e-05
1.09888e-05
1.09348e-05
1.08934e-05
1.08612e-05
1.08359e-05
1.08156e-05
1.0799e-05
1.07851e-05
1.07734e-05
1.07631e-05
1.07542e-05
1.07462e-05
1.0739e-05
1.07326e-05
1.07267e-05
1.07212e-05
1.07162e-05
1.07115e-05
1.07073e-05
1.07034e-05
1.06997e-05
1.06963e-05
1.06928e-05
1.06884e-05
1.06759e-05
1.06291e-05
1.05129e-05
1.5964e-05
1.51858e-05
1.45028e-05
1.3944e-05
1.34854e-05
1.31184e-05
1.28192e-05
1.25605e-05
1.23311e-05
1.21129e-05
1.19035e-05
1.17075e-05
1.1528e-05
1.13711e-05
1.12383e-05
1.11302e-05
1.10448e-05
1.09785e-05
1.09275e-05
1.08884e-05
1.08582e-05
1.08345e-05
1.08155e-05
1.07998e-05
1.07867e-05
1.07753e-05
1.07654e-05
1.07566e-05
1.07486e-05
1.07414e-05
1.07347e-05
1.07287e-05
1.0723e-05
1.07178e-05
1.07129e-05
1.07084e-05
1.07042e-05
1.07003e-05
1.06967e-05
1.06933e-05
1.06895e-05
1.06823e-05
1.06502e-05
1.04921e-05
9.92536e-06
1.52396e-05
1.45626e-05
1.39871e-05
1.35032e-05
1.30854e-05
1.27348e-05
1.2441e-05
1.21917e-05
1.19761e-05
1.17836e-05
1.16093e-05
1.14509e-05
1.13089e-05
1.11863e-05
1.10844e-05
1.1003e-05
1.094e-05
1.08922e-05
1.08564e-05
1.08295e-05
1.08091e-05
1.0793e-05
1.07798e-05
1.07686e-05
1.07586e-05
1.07497e-05
1.07415e-05
1.07339e-05
1.07268e-05
1.07202e-05
1.07141e-05
1.07083e-05
1.07029e-05
1.06979e-05
1.06931e-05
1.06886e-05
1.49527e-05
1.43141e-05
1.37753e-05
1.33015e-05
1.28901e-05
1.25361e-05
1.22308e-05
1.19664e-05
1.17368e-05
1.15363e-05
1.13599e-05
1.12059e-05
1.10745e-05
1.09658e-05
1.0879e-05
1.08123e-05
1.07631e-05
1.07282e-05
1.07039e-05
1.0687e-05
1.06748e-05
1.06651e-05
1.06568e-05
1.06491e-05
1.06417e-05
1.06346e-05
1.06276e-05
1.06208e-05
1.06144e-05
1.06082e-05
1.06023e-05
1.05967e-05
1.05915e-05
1.05865e-05
1.05818e-05
1.42114e-05
1.36572e-05
1.31529e-05
1.27016e-05
1.23025e-05
1.19529e-05
1.16485e-05
1.13844e-05
1.11553e-05
1.09567e-05
1.07852e-05
1.06365e-05
1.05103e-05
1.04068e-05
1.03251e-05
1.02636e-05
1.02198e-05
1.01906e-05
1.01724e-05
1.01618e-05
1.01551e-05
1.01498e-05
1.01445e-05
1.01386e-05
1.01322e-05
1.01256e-05
1.01189e-05
1.01123e-05
1.01058e-05
1.00996e-05
1.00936e-05
1.00879e-05
1.00825e-05
1.00775e-05
1.00726e-05
1.15857e-05
1.11729e-05
1.07951e-05
1.04553e-05
1.01539e-05
9.88828e-06
9.65589e-06
9.45337e-06
9.27699e-06
9.12402e-06
8.99273e-06
8.88189e-06
8.79008e-06
8.71541e-06
8.65718e-06
8.61421e-06
8.58443e-06
8.56562e-06
8.55541e-06
8.55134e-06
8.55024e-06
8.54856e-06
8.54538e-06
8.54104e-06
8.53598e-06
8.53053e-06
8.52494e-06
8.51938e-06
8.51394e-06
8.50869e-06
8.50368e-06
8.49893e-06
8.49443e-06
8.49019e-06
8.48618e-06
0.00105729
0.00100873
0.00100354
0.000986719
0.000941477
0.000941005
0.000966113
0.00106423
0.00117627
0.00122597
0.00126821
0.00122979
0.00104518
0.000499963
9.42032e-05
1.84681e-05
1.36617e-05
1.35025e-05
1.34676e-05
1.34394e-05
1.34168e-05
1.33988e-05
1.33844e-05
1.33727e-05
1.33631e-05
1.3355e-05
1.33482e-05
1.33423e-05
1.33371e-05
1.33326e-05
1.33285e-05
1.33248e-05
1.33215e-05
1.33185e-05
1.33157e-05
1.33131e-05
1.33107e-05
1.33085e-05
1.33063e-05
1.33041e-05
1.3301e-05
1.32881e-05
1.32234e-05
1.3363e-05
0.00154017
0.00146317
0.00141199
0.0013457
0.00138372
0.00156238
0.00180033
0.00192286
0.00199203
0.00187231
0.00187588
0.0016031
0.000601414
0.000148206
3.39857e-05
2.01554e-05
1.84755e-05
1.82175e-05
1.82158e-05
1.8262e-05
1.83081e-05
1.83451e-05
1.83732e-05
1.83942e-05
1.84099e-05
1.84216e-05
1.84304e-05
1.84371e-05
1.84422e-05
1.84461e-05
1.84493e-05
1.84518e-05
1.84539e-05
1.84557e-05
1.84573e-05
1.84586e-05
1.84598e-05
1.84606e-05
1.84611e-05
1.84601e-05
1.84468e-05
1.83373e-05
1.76383e-05
1.4116e-05
0.00120704
0.0012512
0.00128506
0.00131645
0.0013922
0.00149944
0.00158823
0.00160708
0.00148172
0.0011228
0.000902885
0.00069589
0.000361876
9.41565e-05
3.39374e-05
2.29351e-05
2.06397e-05
1.99427e-05
1.97235e-05
1.96703e-05
1.96722e-05
1.96899e-05
1.97091e-05
1.97258e-05
1.97395e-05
1.97504e-05
1.9759e-05
1.97657e-05
1.9771e-05
1.97751e-05
1.97785e-05
1.97812e-05
1.97836e-05
1.97855e-05
1.97872e-05
1.97887e-05
1.979e-05
1.97912e-05
1.97921e-05
1.97924e-05
1.97892e-05
1.97608e-05
1.95737e-05
1.85876e-05
1.42511e-05
0.000863317
0.000924683
0.000960439
0.00097391
0.000929602
0.000714131
0.000441891
0.000269617
0.000198808
0.000171023
0.000144793
0.000101352
5.09601e-05
2.95466e-05
2.39204e-05
2.16521e-05
2.06171e-05
2.02046e-05
2.00569e-05
2.00174e-05
2.00173e-05
2.00296e-05
2.00442e-05
2.00576e-05
2.00689e-05
2.00781e-05
2.00856e-05
2.00916e-05
2.00964e-05
2.01002e-05
2.01033e-05
2.01059e-05
2.01081e-05
2.011e-05
2.01116e-05
2.0113e-05
2.01143e-05
2.01154e-05
2.01164e-05
2.01166e-05
2.01129e-05
2.00821e-05
1.98902e-05
1.89145e-05
1.46007e-05
0.00028831
0.000255846
0.000210652
0.000149776
9.12069e-05
5.97722e-05
4.52996e-05
3.98708e-05
3.72932e-05
3.36199e-05
2.90931e-05
2.51802e-05
2.2925e-05
2.15305e-05
2.0729e-05
2.0338e-05
2.01645e-05
2.01021e-05
2.00875e-05
2.00926e-05
2.01045e-05
2.01174e-05
2.01293e-05
2.01393e-05
2.01477e-05
2.01546e-05
2.01601e-05
2.01645e-05
2.01682e-05
2.01711e-05
2.01737e-05
2.01758e-05
2.01776e-05
2.01791e-05
2.01804e-05
2.01817e-05
2.01828e-05
2.01838e-05
2.01843e-05
2.01825e-05
2.01666e-05
2.00721e-05
1.96372e-05
1.80682e-05
5.18609e-05
4.50148e-05
3.82895e-05
3.12725e-05
2.65948e-05
2.46222e-05
2.37987e-05
2.35023e-05
2.33459e-05
2.30124e-05
2.25153e-05
2.18454e-05
2.12099e-05
2.07158e-05
2.0392e-05
2.02157e-05
2.01342e-05
2.01051e-05
2.01017e-05
2.01095e-05
2.0121e-05
2.01329e-05
2.01438e-05
2.0153e-05
2.01607e-05
2.01671e-05
2.01723e-05
2.01766e-05
2.018e-05
2.0183e-05
2.01854e-05
2.01874e-05
2.01891e-05
2.01906e-05
2.01919e-05
2.01931e-05
2.01942e-05
2.01952e-05
2.01959e-05
2.01955e-05
2.01893e-05
2.01531e-05
2.00049e-05
1.9594e-05
2.67315e-05
2.58866e-05
2.48756e-05
2.4034e-05
2.32842e-05
2.27187e-05
2.23615e-05
2.21034e-05
2.19398e-05
2.17764e-05
2.15213e-05
2.12141e-05
2.08865e-05
2.05972e-05
2.03772e-05
2.02324e-05
2.01515e-05
2.01142e-05
2.01028e-05
2.01053e-05
2.01142e-05
2.01252e-05
2.01362e-05
2.01461e-05
2.01546e-05
2.01618e-05
2.01678e-05
2.01728e-05
2.01768e-05
2.01802e-05
2.01831e-05
2.01855e-05
2.01874e-05
2.0189e-05
2.01904e-05
2.01917e-05
2.01929e-05
2.0194e-05
2.0195e-05
2.01957e-05
2.01953e-05
2.01891e-05
2.01529e-05
2.00047e-05
1.95939e-05
2.4754e-05
2.39229e-05
2.32006e-05
2.26042e-05
2.20915e-05
2.16879e-05
2.13963e-05
2.11771e-05
2.10219e-05
2.08962e-05
2.07698e-05
2.06347e-05
2.04862e-05
2.03486e-05
2.02375e-05
2.01613e-05
2.01173e-05
2.00978e-05
2.0094e-05
2.00988e-05
2.01077e-05
2.01178e-05
2.01277e-05
2.01367e-05
2.01445e-05
2.01512e-05
2.01568e-05
2.01615e-05
2.01654e-05
2.01687e-05
2.01715e-05
2.01738e-05
2.01757e-05
2.01773e-05
2.01786e-05
2.01799e-05
2.01811e-05
2.01822e-05
2.01832e-05
2.01838e-05
2.01821e-05
2.01662e-05
2.00717e-05
1.96368e-05
1.80686e-05
2.39603e-05
2.32701e-05
2.26773e-05
2.21806e-05
2.17594e-05
2.14186e-05
2.11518e-05
2.09424e-05
2.07822e-05
2.06458e-05
2.05188e-05
2.04005e-05
2.02908e-05
2.01971e-05
2.01247e-05
2.00759e-05
2.00483e-05
2.00364e-05
2.00349e-05
2.00394e-05
2.0047e-05
2.00557e-05
2.00642e-05
2.00721e-05
2.0079e-05
2.00851e-05
2.00902e-05
2.00946e-05
2.00983e-05
2.01014e-05
2.01041e-05
2.01063e-05
2.01082e-05
2.01097e-05
2.0111e-05
2.01122e-05
2.30148e-05
2.24495e-05
2.19555e-05
2.15324e-05
2.11755e-05
2.08869e-05
2.06588e-05
2.04784e-05
2.03359e-05
2.02164e-05
2.01127e-05
2.00202e-05
1.9937e-05
1.98667e-05
1.98115e-05
1.97723e-05
1.97478e-05
1.97351e-05
1.9731e-05
1.97322e-05
1.97365e-05
1.97422e-05
1.97482e-05
1.97541e-05
1.97595e-05
1.97644e-05
1.97686e-05
1.97723e-05
1.97755e-05
1.97782e-05
1.97806e-05
1.97826e-05
1.97843e-05
1.97857e-05
1.97869e-05
2.11092e-05
2.0714e-05
2.03554e-05
2.00373e-05
1.97613e-05
1.95291e-05
1.93369e-05
1.91786e-05
1.90476e-05
1.89351e-05
1.88359e-05
1.8748e-05
1.867e-05
1.86025e-05
1.85472e-05
1.85047e-05
1.84745e-05
1.84546e-05
1.84428e-05
1.84367e-05
1.84344e-05
1.84343e-05
1.84356e-05
1.84377e-05
1.844e-05
1.84425e-05
1.84449e-05
1.8447e-05
1.8449e-05
1.84508e-05
1.84524e-05
1.84538e-05
1.84551e-05
1.84561e-05
1.8457e-05
1.62364e-05
1.58627e-05
1.55214e-05
1.52135e-05
1.49393e-05
1.46969e-05
1.4484e-05
1.42975e-05
1.4134e-05
1.39898e-05
1.38626e-05
1.37507e-05
1.3654e-05
1.35737e-05
1.35093e-05
1.34599e-05
1.34238e-05
1.3399e-05
1.33833e-05
1.33743e-05
1.33689e-05
1.33646e-05
1.33603e-05
1.33559e-05
1.33516e-05
1.33474e-05
1.33433e-05
1.33394e-05
1.33357e-05
1.33321e-05
1.33288e-05
1.33256e-05
1.33226e-05
1.33197e-05
1.3317e-05
0.00124178
0.00116359
0.00112638
0.00100134
0.000872819
0.000879037
0.000967101
0.0011747
0.00134672
0.00150256
0.00153777
0.00140606
0.00102835
0.000364687
5.98586e-05
1.74033e-05
1.49802e-05
1.47764e-05
1.46819e-05
1.462e-05
1.4577e-05
1.45458e-05
1.45224e-05
1.45043e-05
1.449e-05
1.44785e-05
1.4469e-05
1.4461e-05
1.44541e-05
1.44482e-05
1.4443e-05
1.44384e-05
1.44343e-05
1.44306e-05
1.44273e-05
1.44242e-05
1.44214e-05
1.44188e-05
1.44163e-05
1.44137e-05
1.4408e-05
1.43766e-05
1.42033e-05
1.39486e-05
0.00159722
0.00145311
0.00133998
0.00134439
0.00151119
0.00183466
0.00210753
0.0022355
0.00232893
0.00267334
0.00289168
0.00169354
0.000482884
0.000113172
3.58544e-05
2.46101e-05
2.21672e-05
2.15461e-05
2.13926e-05
2.13682e-05
2.13788e-05
2.13969e-05
2.14137e-05
2.14276e-05
2.14385e-05
2.14468e-05
2.14532e-05
2.1458e-05
2.14616e-05
2.14644e-05
2.14666e-05
2.14683e-05
2.14698e-05
2.1471e-05
2.14721e-05
2.1473e-05
2.14737e-05
2.14743e-05
2.14744e-05
2.14716e-05
2.14465e-05
2.12744e-05
2.02984e-05
1.49034e-05
0.00111678
0.00117642
0.00124845
0.00133309
0.00149911
0.00171716
0.00180397
0.00170225
0.00135723
0.00114104
0.0010248
0.000786418
0.000312867
8.41066e-05
4.07132e-05
2.99529e-05
2.57672e-05
2.41412e-05
2.35069e-05
2.32629e-05
2.31724e-05
2.31418e-05
2.31342e-05
2.31351e-05
2.31388e-05
2.31431e-05
2.31471e-05
2.31506e-05
2.31535e-05
2.31559e-05
2.31579e-05
2.31595e-05
2.3161e-05
2.31622e-05
2.31632e-05
2.31642e-05
2.3165e-05
2.31658e-05
2.31663e-05
2.31659e-05
2.31592e-05
2.31123e-05
2.2848e-05
2.15702e-05
1.51596e-05
0.000765957
0.000845621
0.000897173
0.000903011
0.000809758
0.000550727
0.000344624
0.000230595
0.000188917
0.000180693
0.000160106
0.000106555
5.59601e-05
3.95444e-05
3.23538e-05
2.77383e-05
2.53796e-05
2.43417e-05
2.38978e-05
2.37104e-05
2.36334e-05
2.36033e-05
2.35933e-05
2.35916e-05
2.35932e-05
2.35959e-05
2.35988e-05
2.36015e-05
2.36039e-05
2.36059e-05
2.36076e-05
2.36091e-05
2.36104e-05
2.36115e-05
2.36125e-05
2.36134e-05
2.36142e-05
2.36149e-05
2.36154e-05
2.36149e-05
2.36073e-05
2.35575e-05
2.3293e-05
2.20635e-05
1.58316e-05
0.000216392
0.000189347
0.000153294
0.000108903
7.44634e-05
5.85089e-05
5.12485e-05
4.89561e-05
4.76496e-05
4.41161e-05
3.89518e-05
3.43737e-05
3.05617e-05
2.75469e-05
2.5649e-05
2.46482e-05
2.41424e-05
2.38978e-05
2.37839e-05
2.37324e-05
2.37108e-05
2.37033e-05
2.3702e-05
2.37034e-05
2.37058e-05
2.37084e-05
2.37108e-05
2.3713e-05
2.37149e-05
2.37165e-05
2.37179e-05
2.37192e-05
2.37202e-05
2.37212e-05
2.3722e-05
2.37228e-05
2.37235e-05
2.37241e-05
2.37239e-05
2.37194e-05
2.36904e-05
2.35461e-05
2.29674e-05
2.10172e-05
4.87018e-05
4.48068e-05
4.09619e-05
3.69372e-05
3.42292e-05
3.29558e-05
3.21853e-05
3.17466e-05
3.13807e-05
3.07225e-05
2.97208e-05
2.82738e-05
2.67912e-05
2.55815e-05
2.47553e-05
2.42627e-05
2.39899e-05
2.38472e-05
2.37757e-05
2.37425e-05
2.37286e-05
2.3724e-05
2.37239e-05
2.37257e-05
2.37281e-05
2.37306e-05
2.3733e-05
2.3735e-05
2.37369e-05
2.37385e-05
2.37398e-05
2.3741e-05
2.37421e-05
2.3743e-05
2.37438e-05
2.37446e-05
2.37453e-05
2.37459e-05
2.3746e-05
2.3744e-05
2.373e-05
2.36645e-05
2.34327e-05
2.28482e-05
3.5099e-05
3.37961e-05
3.25109e-05
3.1429e-05
3.04237e-05
2.95629e-05
2.89464e-05
2.84762e-05
2.81767e-05
2.78594e-05
2.73385e-05
2.6672e-05
2.59227e-05
2.52325e-05
2.46781e-05
2.42838e-05
2.40316e-05
2.38815e-05
2.37979e-05
2.37543e-05
2.37333e-05
2.37248e-05
2.37227e-05
2.37236e-05
2.37257e-05
2.37282e-05
2.37308e-05
2.37331e-05
2.37351e-05
2.37369e-05
2.37385e-05
2.37399e-05
2.3741e-05
2.3742e-05
2.37429e-05
2.37437e-05
2.37445e-05
2.37452e-05
2.37458e-05
2.37459e-05
2.37439e-05
2.373e-05
2.36644e-05
2.34327e-05
2.28484e-05
3.18533e-05
3.05418e-05
2.93979e-05
2.84424e-05
2.76116e-05
2.69557e-05
2.64932e-05
2.61517e-05
2.59143e-05
2.57099e-05
2.54757e-05
2.51932e-05
2.48596e-05
2.45316e-05
2.42489e-05
2.40354e-05
2.38901e-05
2.37995e-05
2.37471e-05
2.37193e-05
2.37062e-05
2.37012e-05
2.37006e-05
2.3702e-05
2.37042e-05
2.37068e-05
2.37092e-05
2.37115e-05
2.37135e-05
2.37152e-05
2.37167e-05
2.37181e-05
2.37192e-05
2.37202e-05
2.3721e-05
2.37218e-05
2.37225e-05
2.37232e-05
2.37238e-05
2.37237e-05
2.37192e-05
2.36902e-05
2.35459e-05
2.29673e-05
2.10184e-05
2.99458e-05
2.88974e-05
2.79917e-05
2.72354e-05
2.65998e-05
2.60934e-05
2.57073e-05
2.54098e-05
2.51813e-05
2.49754e-05
2.47647e-05
2.45476e-05
2.43273e-05
2.4123e-05
2.3949e-05
2.38149e-05
2.37215e-05
2.36617e-05
2.36263e-05
2.3607e-05
2.35976e-05
2.35941e-05
2.35938e-05
2.35951e-05
2.35971e-05
2.35993e-05
2.36015e-05
2.36035e-05
2.36054e-05
2.3607e-05
2.36084e-05
2.36096e-05
2.36107e-05
2.36116e-05
2.36124e-05
2.36131e-05
2.80585e-05
2.72599e-05
2.65555e-05
2.59521e-05
2.54454e-05
2.50408e-05
2.47273e-05
2.44837e-05
2.42944e-05
2.41328e-05
2.39806e-05
2.38289e-05
2.36779e-05
2.35381e-05
2.34192e-05
2.33266e-05
2.32592e-05
2.32134e-05
2.31844e-05
2.31672e-05
2.31579e-05
2.31533e-05
2.31517e-05
2.31517e-05
2.31525e-05
2.31537e-05
2.31551e-05
2.31565e-05
2.31578e-05
2.3159e-05
2.31601e-05
2.31611e-05
2.3162e-05
2.31628e-05
2.31635e-05
2.51012e-05
2.45768e-05
2.4102e-05
2.36832e-05
2.3323e-05
2.30243e-05
2.27814e-05
2.25846e-05
2.24232e-05
2.22837e-05
2.2157e-05
2.20374e-05
2.19237e-05
2.18192e-05
2.17283e-05
2.16539e-05
2.15964e-05
2.15543e-05
2.15248e-05
2.15048e-05
2.14915e-05
2.14829e-05
2.14775e-05
2.14742e-05
2.14722e-05
2.14712e-05
2.14707e-05
2.14706e-05
2.14708e-05
2.1471e-05
2.14714e-05
2.14717e-05
2.14721e-05
2.14725e-05
2.14728e-05
1.76427e-05
1.72529e-05
1.68956e-05
1.65722e-05
1.62833e-05
1.60275e-05
1.58025e-05
1.5605e-05
1.54309e-05
1.52761e-05
1.51376e-05
1.50136e-05
1.49038e-05
1.48087e-05
1.47289e-05
1.46642e-05
1.46139e-05
1.45764e-05
1.45495e-05
1.45308e-05
1.45173e-05
1.45063e-05
1.44964e-05
1.44876e-05
1.44795e-05
1.44722e-05
1.44656e-05
1.44596e-05
1.44541e-05
1.44491e-05
1.44445e-05
1.44403e-05
1.44364e-05
1.44328e-05
1.44294e-05
0.00131644
0.00123178
0.00114545
0.000842148
0.000683868
0.0007599
0.00102784
0.00126884
0.00147511
0.00158251
0.00153701
0.00132255
0.000812061
0.00021448
3.42123e-05
1.63998e-05
1.53904e-05
1.52043e-05
1.51006e-05
1.50332e-05
1.49867e-05
1.49532e-05
1.49282e-05
1.49089e-05
1.48937e-05
1.48815e-05
1.48714e-05
1.48629e-05
1.48557e-05
1.48495e-05
1.4844e-05
1.48392e-05
1.48349e-05
1.4831e-05
1.48275e-05
1.48244e-05
1.48215e-05
1.48188e-05
1.48163e-05
1.48133e-05
1.48047e-05
1.47537e-05
1.44901e-05
1.40492e-05
0.00140447
0.00119617
0.00116477
0.0012468
0.00155427
0.0018794
0.0020977
0.00228888
0.00267877
0.0031722
0.0027903
0.00108672
0.000283919
7.53053e-05
3.46091e-05
2.60727e-05
2.36952e-05
2.29917e-05
2.2782e-05
2.27266e-05
2.27204e-05
2.27287e-05
2.27398e-05
2.275e-05
2.27584e-05
2.27649e-05
2.27699e-05
2.27736e-05
2.27764e-05
2.27786e-05
2.27802e-05
2.27815e-05
2.27825e-05
2.27834e-05
2.27841e-05
2.27848e-05
2.27853e-05
2.27856e-05
2.27853e-05
2.27805e-05
2.27443e-05
2.25227e-05
2.13672e-05
1.51447e-05
0.000871237
0.000902441
0.00101761
0.00118402
0.00137228
0.00152897
0.00155085
0.00133485
0.00107405
0.00101198
0.00093009
0.000623735
0.00016428
6.79923e-05
4.32329e-05
3.29343e-05
2.81066e-05
2.60911e-05
2.52558e-05
2.49112e-05
2.47696e-05
2.47119e-05
2.46893e-05
2.46814e-05
2.46797e-05
2.46804e-05
2.46819e-05
2.46836e-05
2.46852e-05
2.46866e-05
2.46878e-05
2.46889e-05
2.46898e-05
2.46906e-05
2.46912e-05
2.46919e-05
2.46924e-05
2.46929e-05
2.46931e-05
2.46919e-05
2.46818e-05
2.46191e-05
2.43001e-05
2.28458e-05
1.5504e-05
0.000471475
0.000541017
0.000576399
0.000558859
0.000451537
0.00031822
0.000228597
0.000176591
0.000161153
0.000157193
0.00013759
8.8294e-05
5.57472e-05
4.50681e-05
3.66168e-05
3.07569e-05
2.7706e-05
2.63322e-05
2.57157e-05
2.54388e-05
2.53144e-05
2.52584e-05
2.52335e-05
2.52228e-05
2.52188e-05
2.52178e-05
2.52182e-05
2.5219e-05
2.52201e-05
2.52211e-05
2.5222e-05
2.52228e-05
2.52236e-05
2.52243e-05
2.52249e-05
2.52255e-05
2.52259e-05
2.52264e-05
2.52265e-05
2.52251e-05
2.52137e-05
2.51482e-05
2.48345e-05
2.34614e-05
1.63895e-05
0.000113024
0.000101342
8.73866e-05
7.25763e-05
6.22003e-05
5.64078e-05
5.3438e-05
5.26267e-05
5.18266e-05
4.87643e-05
4.41326e-05
3.93707e-05
3.45901e-05
3.06589e-05
2.81441e-05
2.67811e-05
2.60653e-05
2.57041e-05
2.55257e-05
2.54376e-05
2.53949e-05
2.53746e-05
2.53655e-05
2.53618e-05
2.53608e-05
2.53609e-05
2.53616e-05
2.53625e-05
2.53633e-05
2.53642e-05
2.5365e-05
2.53657e-05
2.53663e-05
2.53669e-05
2.53674e-05
2.53679e-05
2.53683e-05
2.53685e-05
2.53677e-05
2.53602e-05
2.53188e-05
2.51359e-05
2.44659e-05
2.2313e-05
4.85361e-05
4.60056e-05
4.36778e-05
4.13116e-05
3.94471e-05
3.83199e-05
3.73866e-05
3.67053e-05
3.60946e-05
3.51757e-05
3.37827e-05
3.18005e-05
2.97694e-05
2.80964e-05
2.69441e-05
2.62431e-05
2.58429e-05
2.56243e-05
2.55075e-05
2.54474e-05
2.54171e-05
2.54023e-05
2.53956e-05
2.5393e-05
2.53923e-05
2.53927e-05
2.53934e-05
2.53942e-05
2.53951e-05
2.53959e-05
2.53967e-05
2.53974e-05
2.5398e-05
2.53986e-05
2.53991e-05
2.53996e-05
2.54e-05
2.54003e-05
2.53999e-05
2.53957e-05
2.53731e-05
2.52793e-05
2.49803e-05
2.42801e-05
4.10116e-05
3.9e-05
3.72178e-05
3.57637e-05
3.44778e-05
3.33809e-05
3.25759e-05
3.19785e-05
3.15991e-05
3.11859e-05
3.0501e-05
2.95984e-05
2.85729e-05
2.76184e-05
2.68386e-05
2.62748e-05
2.5905e-05
2.56775e-05
2.55444e-05
2.54698e-05
2.54293e-05
2.54084e-05
2.53981e-05
2.53936e-05
2.5392e-05
2.53919e-05
2.53924e-05
2.53933e-05
2.53942e-05
2.53951e-05
2.53959e-05
2.53967e-05
2.53974e-05
2.5398e-05
2.53985e-05
2.5399e-05
2.53995e-05
2.53999e-05
2.54002e-05
2.53998e-05
2.53957e-05
2.5373e-05
2.52792e-05
2.49802e-05
2.42803e-05
3.64241e-05
3.46724e-05
3.31498e-05
3.18753e-05
3.0785e-05
2.99333e-05
2.93322e-05
2.88896e-05
2.85745e-05
2.82923e-05
2.79621e-05
2.75597e-05
2.70873e-05
2.66207e-05
2.62152e-05
2.59043e-05
2.56879e-05
2.5548e-05
2.54625e-05
2.54128e-05
2.53854e-05
2.5371e-05
2.53639e-05
2.53609e-05
2.536e-05
2.53601e-05
2.53608e-05
2.53617e-05
2.53626e-05
2.53635e-05
2.53643e-05
2.53651e-05
2.53657e-05
2.53663e-05
2.53668e-05
2.53673e-05
2.53678e-05
2.53682e-05
2.53684e-05
2.53675e-05
2.536e-05
2.53187e-05
2.51358e-05
2.44659e-05
2.23142e-05
3.36616e-05
3.2285e-05
3.1093e-05
3.0099e-05
2.92727e-05
2.86195e-05
2.81245e-05
2.77455e-05
2.74534e-05
2.71865e-05
2.69078e-05
2.66136e-05
2.631e-05
2.6024e-05
2.57771e-05
2.55834e-05
2.54442e-05
2.53515e-05
2.52933e-05
2.52585e-05
2.52385e-05
2.52276e-05
2.52221e-05
2.52197e-05
2.5219e-05
2.52191e-05
2.52197e-05
2.52204e-05
2.52212e-05
2.52219e-05
2.52227e-05
2.52233e-05
2.52239e-05
2.52245e-05
2.52249e-05
2.52254e-05
3.10019e-05
3.0001e-05
2.91119e-05
2.83482e-05
2.77082e-05
2.71986e-05
2.68055e-05
2.65011e-05
2.62626e-05
2.60551e-05
2.5855e-05
2.56523e-05
2.54482e-05
2.52572e-05
2.5093e-05
2.49629e-05
2.4867e-05
2.48001e-05
2.47557e-05
2.47275e-05
2.47103e-05
2.47001e-05
2.46943e-05
2.46911e-05
2.46895e-05
2.46889e-05
2.46888e-05
2.46889e-05
2.46893e-05
2.46897e-05
2.46901e-05
2.46905e-05
2.4691e-05
2.46913e-05
2.46917e-05
2.72076e-05
2.65755e-05
2.60021e-05
2.54968e-05
2.50631e-05
2.47046e-05
2.44137e-05
2.41778e-05
2.39839e-05
2.38155e-05
2.36614e-05
2.35146e-05
2.33741e-05
2.32443e-05
2.31307e-05
2.30371e-05
2.29642e-05
2.29099e-05
2.2871e-05
2.28438e-05
2.2825e-05
2.28122e-05
2.28034e-05
2.27974e-05
2.27933e-05
2.27905e-05
2.27887e-05
2.27874e-05
2.27866e-05
2.2786e-05
2.27856e-05
2.27854e-05
2.27853e-05
2.27853e-05
2.27853e-05
1.82053e-05
1.78031e-05
1.74341e-05
1.71e-05
1.68012e-05
1.65366e-05
1.63039e-05
1.60992e-05
1.59185e-05
1.5757e-05
1.56117e-05
1.54808e-05
1.53638e-05
1.52614e-05
1.51745e-05
1.51031e-05
1.50467e-05
1.50037e-05
1.49719e-05
1.49489e-05
1.49317e-05
1.49177e-05
1.49056e-05
1.4895e-05
1.48855e-05
1.48771e-05
1.48695e-05
1.48628e-05
1.48567e-05
1.48511e-05
1.48461e-05
1.48416e-05
1.48374e-05
1.48336e-05
1.48301e-05
0.0013421
0.00125948
0.00108999
0.000630135
0.000513975
0.000623071
0.000916148
0.00117452
0.00134725
0.00137877
0.00128384
0.00105166
0.000493316
9.81009e-05
2.15371e-05
1.59929e-05
1.5539e-05
1.537e-05
1.52681e-05
1.52011e-05
1.51545e-05
1.51208e-05
1.50955e-05
1.5076e-05
1.50606e-05
1.50481e-05
1.50379e-05
1.50292e-05
1.50219e-05
1.50156e-05
1.501e-05
1.50052e-05
1.50008e-05
1.49969e-05
1.49934e-05
1.49902e-05
1.49873e-05
1.49847e-05
1.49822e-05
1.49789e-05
1.49677e-05
1.49022e-05
1.45839e-05
1.40659e-05
0.00133652
0.00106823
0.000951863
0.000992282
0.00126327
0.0015623
0.00188503
0.00227821
0.0027364
0.00278025
0.00162336
0.000465072
0.000152551
5.37964e-05
3.25673e-05
2.62554e-05
2.42879e-05
2.36397e-05
2.3426e-05
2.33608e-05
2.33471e-05
2.33501e-05
2.33578e-05
2.33657e-05
2.33724e-05
2.33777e-05
2.33817e-05
2.33848e-05
2.3387e-05
2.33887e-05
2.33899e-05
2.33909e-05
2.33917e-05
2.33923e-05
2.33928e-05
2.33933e-05
2.33936e-05
2.33938e-05
2.33931e-05
2.33865e-05
2.3341e-05
2.30817e-05
2.1807e-05
1.52245e-05
0.000760146
0.000658517
0.00073885
0.000871759
0.00100656
0.00105918
0.000967088
0.000800996
0.000764693
0.000747029
0.000616134
0.000264476
9.63972e-05
5.86714e-05
4.2945e-05
3.35919e-05
2.90121e-05
2.69865e-05
2.61088e-05
2.57303e-05
2.55668e-05
2.54958e-05
2.5465e-05
2.5452e-05
2.5447e-05
2.54454e-05
2.54454e-05
2.5446e-05
2.54467e-05
2.54474e-05
2.54481e-05
2.54487e-05
2.54493e-05
2.54498e-05
2.54502e-05
2.54506e-05
2.54509e-05
2.54512e-05
2.54512e-05
2.54494e-05
2.54361e-05
2.53605e-05
2.49997e-05
2.3423e-05
1.56463e-05
0.000240514
0.000250473
0.000260853
0.000255189
0.000218403
0.000170838
0.000136
0.000118314
0.00011278
0.000109772
9.32263e-05
6.82511e-05
5.61771e-05
4.69376e-05
3.80041e-05
3.19459e-05
2.87887e-05
2.73271e-05
2.66449e-05
2.63269e-05
2.61778e-05
2.6107e-05
2.60732e-05
2.6057e-05
2.60494e-05
2.6046e-05
2.60446e-05
2.60443e-05
2.60444e-05
2.60447e-05
2.60451e-05
2.60455e-05
2.60459e-05
2.60463e-05
2.60466e-05
2.6047e-05
2.60472e-05
2.60475e-05
2.60474e-05
2.60451e-05
2.60302e-05
2.59515e-05
2.56e-05
2.41251e-05
1.66455e-05
7.72169e-05
7.17011e-05
6.66452e-05
6.16214e-05
5.74163e-05
5.48403e-05
5.33827e-05
5.29541e-05
5.22561e-05
4.98281e-05
4.60956e-05
4.13213e-05
3.62362e-05
3.20588e-05
2.93718e-05
2.78762e-05
2.7066e-05
2.66471e-05
2.64335e-05
2.63241e-05
2.62684e-05
2.62402e-05
2.62259e-05
2.62189e-05
2.62155e-05
2.62141e-05
2.62136e-05
2.62135e-05
2.62137e-05
2.6214e-05
2.62144e-05
2.62147e-05
2.62151e-05
2.62154e-05
2.62157e-05
2.6216e-05
2.62162e-05
2.62162e-05
2.62146e-05
2.6204e-05
2.61513e-05
2.59358e-05
2.51937e-05
2.28993e-05
5.19639e-05
4.90603e-05
4.66231e-05
4.43756e-05
4.25798e-05
4.13435e-05
4.02268e-05
3.93552e-05
3.85532e-05
3.74406e-05
3.57846e-05
3.3531e-05
3.12573e-05
2.93839e-05
2.80863e-05
2.72845e-05
2.68179e-05
2.65568e-05
2.64134e-05
2.63368e-05
2.62961e-05
2.62747e-05
2.62637e-05
2.62581e-05
2.62554e-05
2.62543e-05
2.62539e-05
2.62539e-05
2.62541e-05
2.62544e-05
2.62548e-05
2.62551e-05
2.62554e-05
2.62557e-05
2.6256e-05
2.62563e-05
2.62565e-05
2.62566e-05
2.62556e-05
2.6249e-05
2.62171e-05
2.60955e-05
2.5735e-05
2.49376e-05
4.54998e-05
4.26338e-05
4.02122e-05
3.82923e-05
3.67023e-05
3.54073e-05
3.4471e-05
3.38003e-05
3.33673e-05
3.2889e-05
3.21172e-05
3.10992e-05
2.99484e-05
2.88702e-05
2.79793e-05
2.73281e-05
2.6894e-05
2.66223e-05
2.64598e-05
2.63661e-05
2.63132e-05
2.62842e-05
2.62687e-05
2.62606e-05
2.62565e-05
2.62546e-05
2.62538e-05
2.62536e-05
2.62538e-05
2.62541e-05
2.62544e-05
2.62548e-05
2.62551e-05
2.62554e-05
2.62557e-05
2.6256e-05
2.62563e-05
2.62565e-05
2.62566e-05
2.62556e-05
2.6249e-05
2.62171e-05
2.60955e-05
2.5735e-05
2.49377e-05
3.94068e-05
3.72711e-05
3.54234e-05
3.38821e-05
3.25976e-05
3.16153e-05
3.09235e-05
3.04162e-05
3.00465e-05
2.97066e-05
2.93091e-05
2.88294e-05
2.82757e-05
2.77301e-05
2.72553e-05
2.68891e-05
2.66312e-05
2.64618e-05
2.6356e-05
2.62927e-05
2.62561e-05
2.62355e-05
2.62242e-05
2.62182e-05
2.62152e-05
2.62138e-05
2.62133e-05
2.62133e-05
2.62135e-05
2.62138e-05
2.62141e-05
2.62144e-05
2.62148e-05
2.62151e-05
2.62154e-05
2.62156e-05
2.62159e-05
2.62161e-05
2.62161e-05
2.62145e-05
2.6204e-05
2.61513e-05
2.59357e-05
2.51937e-05
2.29005e-05
3.60208e-05
3.43758e-05
3.2951e-05
3.17653e-05
3.07908e-05
3.00276e-05
2.94523e-05
2.90148e-05
2.8677e-05
2.83687e-05
2.80471e-05
2.77058e-05
2.73529e-05
2.7019e-05
2.67296e-05
2.65011e-05
2.63348e-05
2.62223e-05
2.61501e-05
2.61055e-05
2.60788e-05
2.60632e-05
2.60544e-05
2.60496e-05
2.6047e-05
2.60458e-05
2.60453e-05
2.60452e-05
2.60452e-05
2.60454e-05
2.60457e-05
2.6046e-05
2.60462e-05
2.60465e-05
2.60467e-05
2.6047e-05
3.27707e-05
3.16158e-05
3.05864e-05
2.97012e-05
2.89622e-05
2.83754e-05
2.79233e-05
2.75734e-05
2.72973e-05
2.70559e-05
2.68227e-05
2.65863e-05
2.63496e-05
2.61285e-05
2.5938e-05
2.57866e-05
2.56742e-05
2.55949e-05
2.55415e-05
2.55068e-05
2.54848e-05
2.54711e-05
2.54627e-05
2.54575e-05
2.54544e-05
2.54526e-05
2.54515e-05
2.54508e-05
2.54505e-05
2.54504e-05
2.54503e-05
2.54504e-05
2.54505e-05
2.54506e-05
2.54507e-05
2.83299e-05
2.7621e-05
2.6978e-05
2.64128e-05
2.59297e-05
2.55317e-05
2.52094e-05
2.49479e-05
2.47326e-05
2.4545e-05
2.43734e-05
2.42106e-05
2.40554e-05
2.39124e-05
2.37876e-05
2.36846e-05
2.36039e-05
2.35435e-05
2.34997e-05
2.34686e-05
2.34467e-05
2.34314e-05
2.34207e-05
2.34131e-05
2.34077e-05
2.34039e-05
2.34011e-05
2.33991e-05
2.33976e-05
2.33965e-05
2.33957e-05
2.33951e-05
2.33947e-05
2.33944e-05
2.33941e-05
1.84275e-05
1.80194e-05
1.76456e-05
1.73075e-05
1.70055e-05
1.67384e-05
1.65035e-05
1.62968e-05
1.61142e-05
1.5951e-05
1.5804e-05