/*--------------------------------*- C++ -*----------------------------------*\
| =========                 |                                                 |
| \\      /  F ield         | OpenFOAM: The Open Source CFD Toolbox           |
|  \\    /   O peration     | Version:  2.3.1                                 |
|   \\  /    A nd           | Web:      www.OpenFOAM.org                      |
|    \\/     M anipulation  |                                                 |
\*---------------------------------------------------------------------------*/
FoamFile
{
    version     2.0;
    format      ascii;
    class       volScalarField;
    location    "5";
    object      nut;
}
// * * * * * * * * * * * * * * * * * * * * * * * * * * * * * * * * * * * * * //

dimensions      [0 2 -1 0 0 0 0];

internalField   nonuniform List<scalar> 
38152
(
3.51404e-05
3.44309e-05
3.35382e-05
3.35654e-05
3.37832e-05
3.39709e-05
3.45242e-05
3.63656e-05
3.74814e-05
3.72512e-05
3.6265e-05
3.6043e-05
3.51689e-05
2.96462e-05
1.43645e-05
5.49122e-06
3.9148e-06
3.79677e-06
3.76011e-06
3.73788e-06
3.72304e-06
3.71261e-06
3.70496e-06
3.69919e-06
3.6947e-06
3.69113e-06
3.68824e-06
3.68584e-06
3.68382e-06
3.68209e-06
3.68059e-06
3.67926e-06
3.67809e-06
3.67703e-06
3.67608e-06
3.67522e-06
3.67443e-06
3.6737e-06
3.67303e-06
3.6724e-06
3.67177e-06
3.67102e-06
3.67511e-06
4.86269e-06
3.90264e-05
3.9606e-05
4.05387e-05
4.05511e-05
3.98393e-05
4.01441e-05
4.26084e-05
4.39744e-05
4.28315e-05
4.20311e-05
4.2331e-05
3.94892e-05
2.71217e-05
1.56921e-05
6.76674e-06
4.3566e-06
4.15745e-06
4.11312e-06
4.08557e-06
4.06655e-06
4.05297e-06
4.04301e-06
4.03553e-06
4.02976e-06
4.02522e-06
4.02157e-06
4.01858e-06
4.01608e-06
4.01395e-06
4.01211e-06
4.01051e-06
4.0091e-06
4.00784e-06
4.00671e-06
4.00569e-06
4.00477e-06
4.00392e-06
4.00314e-06
4.0024e-06
4.00165e-06
4.00034e-06
3.99356e-06
3.95295e-06
5.73165e-06
3.64019e-05
3.72438e-05
3.81143e-05
3.89262e-05
3.92717e-05
3.9189e-05
3.93414e-05
3.93248e-05
3.8398e-05
3.56335e-05
3.16135e-05
2.76135e-05
2.11225e-05
1.17196e-05
6.40164e-06
4.55902e-06
4.31923e-06
4.25296e-06
4.21172e-06
4.18428e-06
4.16541e-06
4.15202e-06
4.14225e-06
4.13492e-06
4.12929e-06
4.12488e-06
4.12134e-06
4.11845e-06
4.11605e-06
4.114e-06
4.11224e-06
4.11071e-06
4.10936e-06
4.10816e-06
4.10709e-06
4.10612e-06
4.10524e-06
4.10443e-06
4.10368e-06
4.10297e-06
4.10213e-06
4.0999e-06
4.08701e-06
4.01873e-06
5.74415e-06
3.039e-05
3.16828e-05
3.2554e-05
3.29888e-05
3.2665e-05
3.01368e-05
2.4299e-05
1.8841e-05
1.65444e-05
1.55921e-05
1.4072e-05
1.17163e-05
8.13014e-06
5.49526e-06
4.57846e-06
4.37683e-06
4.30083e-06
4.25279e-06
4.22059e-06
4.19807e-06
4.18198e-06
4.17022e-06
4.16147e-06
4.15481e-06
4.14964e-06
4.14555e-06
4.14225e-06
4.13954e-06
4.13726e-06
4.13531e-06
4.13363e-06
4.13216e-06
4.13086e-06
4.12969e-06
4.12864e-06
4.12769e-06
4.12683e-06
4.12604e-06
4.12531e-06
4.1246e-06
4.12375e-06
4.12136e-06
4.10781e-06
4.03774e-06
5.74682e-06
1.93907e-05
1.89348e-05
1.76904e-05
1.53853e-05
1.21308e-05
9.584e-06
8.17202e-06
7.51914e-06
7.03897e-06
6.32949e-06
5.52203e-06
4.81866e-06
4.5009e-06
4.38188e-06
4.31623e-06
4.2698e-06
4.23582e-06
4.21097e-06
4.19291e-06
4.17962e-06
4.16973e-06
4.16223e-06
4.15643e-06
4.15186e-06
4.1482e-06
4.1452e-06
4.1427e-06
4.14058e-06
4.13876e-06
4.13716e-06
4.13576e-06
4.1345e-06
4.13337e-06
4.13235e-06
4.13141e-06
4.13056e-06
4.12977e-06
4.12905e-06
4.12837e-06
4.12763e-06
4.12621e-06
4.11998e-06
4.08911e-06
3.97698e-06
9.41375e-06
8.67565e-06
7.80318e-06
6.71899e-06
5.79549e-06
5.31446e-06
5.05191e-06
4.90706e-06
4.79476e-06
4.66408e-06
4.53974e-06
4.44011e-06
4.36996e-06
4.31602e-06
4.2736e-06
4.24105e-06
4.21648e-06
4.19803e-06
4.18416e-06
4.17368e-06
4.16566e-06
4.15945e-06
4.15456e-06
4.15065e-06
4.14746e-06
4.1448e-06
4.14256e-06
4.14062e-06
4.13893e-06
4.13744e-06
4.13611e-06
4.1349e-06
4.13381e-06
4.13281e-06
4.13189e-06
4.13105e-06
4.13028e-06
4.12956e-06
4.12889e-06
4.12822e-06
4.12734e-06
4.12492e-06
4.11581e-06
4.09312e-06
5.65117e-06
5.456e-06
5.21496e-06
5.00446e-06
4.81214e-06
4.68279e-06
4.60515e-06
4.54722e-06
4.50337e-06
4.46356e-06
4.42264e-06
4.38135e-06
4.34e-06
4.30173e-06
4.2678e-06
4.23951e-06
4.21686e-06
4.19918e-06
4.18557e-06
4.17513e-06
4.16709e-06
4.16085e-06
4.15594e-06
4.152e-06
4.14877e-06
4.14608e-06
4.1438e-06
4.14182e-06
4.14008e-06
4.13853e-06
4.13715e-06
4.13589e-06
4.13475e-06
4.13369e-06
4.13272e-06
4.13182e-06
4.13099e-06
4.13023e-06
4.12953e-06
4.12886e-06
4.12819e-06
4.12732e-06
4.1249e-06
4.1158e-06
4.09311e-06
5.0494e-06
4.92451e-06
4.81206e-06
4.71792e-06
4.63915e-06
4.57516e-06
4.52242e-06
4.47645e-06
4.43536e-06
4.39594e-06
4.35773e-06
4.32158e-06
4.28813e-06
4.25862e-06
4.23343e-06
4.21278e-06
4.19636e-06
4.18357e-06
4.17371e-06
4.16612e-06
4.16025e-06
4.15564e-06
4.15195e-06
4.14892e-06
4.14637e-06
4.14417e-06
4.14225e-06
4.14054e-06
4.13899e-06
4.13759e-06
4.13631e-06
4.13513e-06
4.13404e-06
4.13303e-06
4.13208e-06
4.1312e-06
4.13038e-06
4.12964e-06
4.12894e-06
4.12828e-06
4.12755e-06
4.12615e-06
4.11991e-06
4.08906e-06
3.97676e-06
4.93306e-06
4.82188e-06
4.72525e-06
4.64246e-06
4.56971e-06
4.50775e-06
4.45514e-06
4.41008e-06
4.37077e-06
4.3354e-06
4.30313e-06
4.27355e-06
4.2468e-06
4.22352e-06
4.20404e-06
4.18837e-06
4.17618e-06
4.16691e-06
4.15993e-06
4.1547e-06
4.15072e-06
4.14758e-06
4.14502e-06
4.14284e-06
4.14092e-06
4.13919e-06
4.1376e-06
4.13613e-06
4.13476e-06
4.13348e-06
4.13229e-06
4.13118e-06
4.13014e-06
4.12915e-06
4.12823e-06
4.12736e-06
4.88632e-06
4.78052e-06
4.68936e-06
4.6077e-06
4.53557e-06
4.47256e-06
4.41752e-06
4.3693e-06
4.32698e-06
4.28967e-06
4.25657e-06
4.22742e-06
4.20235e-06
4.18147e-06
4.16467e-06
4.15168e-06
4.14206e-06
4.13519e-06
4.13041e-06
4.12708e-06
4.12467e-06
4.12279e-06
4.12117e-06
4.11967e-06
4.11824e-06
4.11685e-06
4.11549e-06
4.11418e-06
4.11292e-06
4.11172e-06
4.11057e-06
4.10949e-06
4.10847e-06
4.1075e-06
4.10658e-06
4.76324e-06
4.66921e-06
4.58194e-06
4.50236e-06
4.4308e-06
4.36711e-06
4.3109e-06
4.26151e-06
4.2182e-06
4.18027e-06
4.14723e-06
4.11833e-06
4.09363e-06
4.07318e-06
4.05695e-06
4.04465e-06
4.03583e-06
4.0299e-06
4.0262e-06
4.02402e-06
4.02266e-06
4.0216e-06
4.02054e-06
4.01937e-06
4.01812e-06
4.01681e-06
4.01548e-06
4.01416e-06
4.01287e-06
4.01162e-06
4.01043e-06
4.0093e-06
4.00823e-06
4.00721e-06
4.00625e-06
4.29977e-06
4.22229e-06
4.15007e-06
4.08401e-06
4.02446e-06
3.97124e-06
3.92407e-06
3.88249e-06
3.84589e-06
3.81385e-06
3.78612e-06
3.7625e-06
3.74281e-06
3.7267e-06
3.71404e-06
3.70465e-06
3.69809e-06
3.69391e-06
3.69161e-06
3.69066e-06
3.6904e-06
3.69005e-06
3.68938e-06
3.68845e-06
3.68736e-06
3.68618e-06
3.68497e-06
3.68377e-06
3.68259e-06
3.68145e-06
3.68036e-06
3.67932e-06
3.67835e-06
3.67742e-06
3.67655e-06
8.20315e-05
8.00307e-05
7.97932e-05
7.92179e-05
7.73547e-05
7.72889e-05
7.8242e-05
8.20102e-05
8.63754e-05
8.82568e-05
8.98383e-05
8.86805e-05
8.22194e-05
5.8209e-05
2.57633e-05
1.10941e-05
9.34113e-06
9.2777e-06
9.26552e-06
9.25572e-06
9.24785e-06
9.24159e-06
9.23656e-06
9.23248e-06
9.22913e-06
9.22632e-06
9.22393e-06
9.22187e-06
9.22008e-06
9.21849e-06
9.21707e-06
9.2158e-06
9.21464e-06
9.21358e-06
9.21262e-06
9.21172e-06
9.21089e-06
9.2101e-06
9.20935e-06
9.20859e-06
9.20749e-06
9.20303e-06
9.18049e-06
9.70017e-06
0.000143738
0.000135702
0.00013062
0.000124588
0.000129906
0.000147691
0.000163945
0.00015881
0.000147913
0.000127458
0.000104342
8.60125e-05
4.2031e-05
1.89336e-05
1.21202e-05
1.67409e-05
1.84619e-05
1.94235e-05
2.00783e-05
2.05143e-05
2.08049e-05
2.10027e-05
2.11408e-05
2.12397e-05
2.13123e-05
2.13665e-05
2.14077e-05
2.14394e-05
2.14643e-05
2.14842e-05
2.15005e-05
2.15142e-05
2.15259e-05
2.1536e-05
2.15449e-05
2.15528e-05
2.15597e-05
2.15654e-05
2.15697e-05
2.15693e-05
2.15311e-05
2.1197e-05
1.90998e-05
1.05069e-05
0.000137903
0.000136635
0.000133817
0.00013185
0.000135168
0.000132605
0.000119933
0.000109862
9.62131e-05
6.84458e-05
5.59545e-05
4.3495e-05
2.34665e-05
1.03223e-05
1.03933e-05
1.9404e-05
2.24636e-05
2.35645e-05
2.43135e-05
2.48364e-05
2.52008e-05
2.5458e-05
2.56413e-05
2.57745e-05
2.58731e-05
2.59478e-05
2.60053e-05
2.60503e-05
2.60858e-05
2.61144e-05
2.61379e-05
2.61577e-05
2.61746e-05
2.61893e-05
2.62022e-05
2.62136e-05
2.62239e-05
2.6233e-05
2.62408e-05
2.62459e-05
2.62374e-05
2.61317e-05
2.54215e-05
2.19081e-05
1.05573e-05
0.000101431
0.000100701
9.61703e-05
8.9584e-05
7.91005e-05
5.69148e-05
3.79943e-05
2.53232e-05
1.85264e-05
1.49687e-05
1.20403e-05
8.63932e-06
6.17989e-06
1.12724e-05
2.11095e-05
2.39322e-05
2.4707e-05
2.53526e-05
2.5872e-05
2.62703e-05
2.65658e-05
2.67839e-05
2.69454e-05
2.70663e-05
2.71582e-05
2.72291e-05
2.72849e-05
2.73291e-05
2.73645e-05
2.73933e-05
2.74173e-05
2.74377e-05
2.74553e-05
2.74706e-05
2.7484e-05
2.74959e-05
2.75067e-05
2.75165e-05
2.7525e-05
2.75305e-05
2.75195e-05
2.73976e-05
2.66212e-05
2.28992e-05
1.06863e-05
3.46003e-05
2.84994e-05
2.21958e-05
1.59904e-05
1.05781e-05
7.92584e-06
6.69068e-06
6.16885e-06
6.00366e-06
6.28013e-06
8.02447e-06
1.46036e-05
2.21767e-05
2.41989e-05
2.49033e-05
2.54916e-05
2.59832e-05
2.63873e-05
2.67005e-05
2.69393e-05
2.71211e-05
2.72598e-05
2.73663e-05
2.74489e-05
2.75139e-05
2.75658e-05
2.76075e-05
2.76413e-05
2.76691e-05
2.76925e-05
2.77125e-05
2.77297e-05
2.77447e-05
2.77578e-05
2.77696e-05
2.77803e-05
2.77901e-05
2.77989e-05
2.78054e-05
2.78024e-05
2.77414e-05
2.73581e-05
2.56417e-05
2.02458e-05
8.7083e-06
7.66231e-06
6.97112e-06
6.95535e-06
8.13822e-06
9.84002e-06
1.1669e-05
1.3212e-05
1.47919e-05
1.74219e-05
2.09897e-05
2.37154e-05
2.46614e-05
2.51383e-05
2.5574e-05
2.59839e-05
2.63451e-05
2.66453e-05
2.68868e-05
2.7078e-05
2.72284e-05
2.73467e-05
2.74398e-05
2.75136e-05
2.75728e-05
2.76207e-05
2.76596e-05
2.76916e-05
2.77183e-05
2.7741e-05
2.77605e-05
2.77772e-05
2.77916e-05
2.78043e-05
2.78158e-05
2.78263e-05
2.78361e-05
2.7845e-05
2.78521e-05
2.78546e-05
2.78334e-05
2.76901e-05
2.7094e-05
2.54969e-05
1.30033e-05
1.32222e-05
1.4283e-05
1.57777e-05
1.81026e-05
2.0236e-05
2.15427e-05
2.25541e-05
2.32549e-05
2.38368e-05
2.4394e-05
2.48207e-05
2.51358e-05
2.54199e-05
2.5726e-05
2.60381e-05
2.63333e-05
2.65961e-05
2.68203e-05
2.70068e-05
2.71594e-05
2.72833e-05
2.73836e-05
2.74647e-05
2.75303e-05
2.75839e-05
2.7628e-05
2.76644e-05
2.76948e-05
2.77205e-05
2.77425e-05
2.77614e-05
2.77775e-05
2.77915e-05
2.78038e-05
2.7815e-05
2.78255e-05
2.78353e-05
2.78442e-05
2.78513e-05
2.78539e-05
2.78327e-05
2.76893e-05
2.70931e-05
2.54964e-05
2.70583e-05
2.65566e-05
2.63758e-05
2.62252e-05
2.61808e-05
2.60725e-05
2.59131e-05
2.57958e-05
2.56952e-05
2.56387e-05
2.56402e-05
2.56998e-05
2.58152e-05
2.5976e-05
2.61663e-05
2.63694e-05
2.65691e-05
2.67547e-05
2.69205e-05
2.70636e-05
2.71849e-05
2.72865e-05
2.73711e-05
2.74412e-05
2.74993e-05
2.75477e-05
2.75883e-05
2.76223e-05
2.76511e-05
2.76757e-05
2.7697e-05
2.77153e-05
2.77309e-05
2.77444e-05
2.77563e-05
2.77673e-05
2.77777e-05
2.77876e-05
2.77964e-05
2.7803e-05
2.78003e-05
2.77394e-05
2.7356e-05
2.56399e-05
2.02481e-05
3.03131e-05
2.93969e-05
2.8623e-05
2.79724e-05
2.74439e-05
2.70185e-05
2.66786e-05
2.64202e-05
2.62457e-05
2.61365e-05
2.60794e-05
2.60707e-05
2.61069e-05
2.61809e-05
2.62844e-05
2.64075e-05
2.65385e-05
2.66667e-05
2.67857e-05
2.68926e-05
2.69863e-05
2.70672e-05
2.71363e-05
2.71952e-05
2.72451e-05
2.72878e-05
2.73243e-05
2.73554e-05
2.73822e-05
2.74052e-05
2.74253e-05
2.74427e-05
2.74577e-05
2.74707e-05
2.74821e-05
2.74926e-05
2.95926e-05
2.87953e-05
2.80906e-05
2.74907e-05
2.6988e-05
2.65786e-05
2.62491e-05
2.59853e-05
2.57733e-05
2.56031e-05
2.54862e-05
2.54216e-05
2.54e-05
2.54128e-05
2.54507e-05
2.55043e-05
2.55665e-05
2.56325e-05
2.56984e-05
2.57617e-05
2.58209e-05
2.58749e-05
2.59234e-05
2.59663e-05
2.60043e-05
2.60376e-05
2.60669e-05
2.60925e-05
2.61147e-05
2.61342e-05
2.61515e-05
2.61666e-05
2.61799e-05
2.61915e-05
2.62016e-05
2.45435e-05
2.40886e-05
2.36642e-05
2.32788e-05
2.2938e-05
2.26449e-05
2.23964e-05
2.21869e-05
2.20094e-05
2.18552e-05
2.17204e-05
2.16107e-05
2.15222e-05
2.14521e-05
2.13992e-05
2.13631e-05
2.13424e-05
2.13344e-05
2.13364e-05
2.13454e-05
2.13591e-05
2.13754e-05
2.1393e-05
2.14108e-05
2.14281e-05
2.14446e-05
2.146e-05
2.1474e-05
2.14868e-05
2.14983e-05
2.15088e-05
2.15182e-05
2.15267e-05
2.15342e-05
2.15407e-05
1.01786e-05
1.00604e-05
9.9512e-06
9.85165e-06
9.76209e-06
9.6822e-06
9.61149e-06
9.54913e-06
9.4941e-06
9.44531e-06
9.40205e-06
9.3638e-06
9.33057e-06
9.30281e-06
9.28045e-06
9.26321e-06
9.25054e-06
9.2418e-06
9.23622e-06
9.23298e-06
9.23108e-06
9.22958e-06
9.22808e-06
9.22658e-06
9.22508e-06
9.22363e-06
9.22221e-06
9.22086e-06
9.21956e-06
9.21833e-06
9.21716e-06
9.21605e-06
9.21501e-06
9.21402e-06
9.21307e-06
8.89523e-05
8.5991e-05
8.46363e-05
8.00143e-05
7.44776e-05
7.46415e-05
7.81253e-05
8.61342e-05
9.22775e-05
9.75709e-05
9.90264e-05
9.49938e-05
8.20491e-05
5.00224e-05
2.04923e-05
1.06578e-05
9.77916e-06
9.70761e-06
9.67573e-06
9.65491e-06
9.64045e-06
9.62996e-06
9.6221e-06
9.61604e-06
9.61125e-06
9.60738e-06
9.60418e-06
9.6015e-06
9.59922e-06
9.59723e-06
9.5955e-06
9.59396e-06
9.59258e-06
9.59134e-06
9.59022e-06
9.5892e-06
9.58826e-06
9.58739e-06
9.58657e-06
9.58569e-06
9.58378e-06
9.57329e-06
9.51522e-06
9.91086e-06
0.000156036
0.00014287
0.000131538
0.000132461
0.000148436
0.000172053
0.000187304
0.000191064
0.000191146
0.000193119
0.000170842
0.000100337
4.11515e-05
1.97387e-05
2.10002e-05
2.92411e-05
3.13925e-05
3.27221e-05
3.36502e-05
3.42682e-05
3.46791e-05
3.49581e-05
3.51507e-05
3.52867e-05
3.53846e-05
3.54561e-05
3.55089e-05
3.55485e-05
3.55786e-05
3.56019e-05
3.56204e-05
3.56355e-05
3.56481e-05
3.56589e-05
3.56683e-05
3.56765e-05
3.56836e-05
3.56892e-05
3.56921e-05
3.5679e-05
3.55384e-05
3.45349e-05
2.91928e-05
1.07966e-05
0.000148136
0.00014896
0.000150965
0.000152859
0.000158943
0.000160115
0.00014749
0.000128949
9.41126e-05
8.06883e-05
7.41099e-05
5.41022e-05
2.27525e-05
1.26145e-05
2.29279e-05
4.24308e-05
4.58444e-05
4.6554e-05
4.71277e-05
4.76121e-05
4.79902e-05
4.8274e-05
4.84837e-05
4.86388e-05
4.8755e-05
4.88429e-05
4.89104e-05
4.89626e-05
4.90036e-05
4.90362e-05
4.90627e-05
4.90847e-05
4.91033e-05
4.91193e-05
4.91332e-05
4.91455e-05
4.91565e-05
4.9166e-05
4.91735e-05
4.91731e-05
4.91183e-05
4.86976e-05
4.63005e-05
3.62897e-05
1.08893e-05
0.000105126
0.000107003
0.000104947
9.81649e-05
8.28269e-05
5.48043e-05
3.52839e-05
2.45319e-05
1.98527e-05
1.78644e-05
1.49037e-05
1.05308e-05
1.07737e-05
2.80242e-05
4.93378e-05
5.21383e-05
5.17322e-05
5.17846e-05
5.20637e-05
5.2371e-05
5.26424e-05
5.2862e-05
5.30336e-05
5.31664e-05
5.32694e-05
5.33501e-05
5.34138e-05
5.34645e-05
5.35052e-05
5.35383e-05
5.35657e-05
5.35889e-05
5.36088e-05
5.36261e-05
5.36411e-05
5.36545e-05
5.36665e-05
5.36773e-05
5.36857e-05
5.36839e-05
5.36126e-05
5.31019e-05
5.03441e-05
3.91933e-05
1.11286e-05
3.15754e-05
2.59292e-05
2.00551e-05
1.44423e-05
1.10491e-05
9.94336e-06
9.8189e-06
1.00092e-05
1.03587e-05
1.17355e-05
1.75123e-05
3.62831e-05
5.13276e-05
5.34707e-05
5.3137e-05
5.30674e-05
5.32004e-05
5.34324e-05
5.36778e-05
5.38922e-05
5.40697e-05
5.42129e-05
5.4327e-05
5.44176e-05
5.44902e-05
5.45487e-05
5.45961e-05
5.46346e-05
5.46665e-05
5.46933e-05
5.47162e-05
5.47359e-05
5.47529e-05
5.47679e-05
5.47812e-05
5.47933e-05
5.48043e-05
5.48135e-05
5.48157e-05
5.47752e-05
5.44808e-05
5.29607e-05
4.71893e-05
3.2513e-05
1.17458e-05
1.14853e-05
1.18796e-05
1.38149e-05
1.74041e-05
2.10887e-05
2.49279e-05
2.81027e-05
3.17781e-05
3.84542e-05
4.75562e-05
5.30675e-05
5.38303e-05
5.35716e-05
5.34218e-05
5.34714e-05
5.36333e-05
5.38339e-05
5.40289e-05
5.42045e-05
5.43532e-05
5.44759e-05
5.45758e-05
5.46568e-05
5.47228e-05
5.47768e-05
5.48211e-05
5.48576e-05
5.48882e-05
5.49142e-05
5.49365e-05
5.49557e-05
5.49722e-05
5.49867e-05
5.49998e-05
5.50117e-05
5.50227e-05
5.50323e-05
5.50377e-05
5.5022e-05
5.48895e-05
5.42246e-05
5.18535e-05
4.6362e-05
2.87949e-05
2.94913e-05
3.19882e-05
3.5242e-05
3.99086e-05
4.39864e-05
4.66821e-05
4.89773e-05
5.06809e-05
5.2109e-05
5.32803e-05
5.38313e-05
5.38116e-05
5.36336e-05
5.35345e-05
5.3551e-05
5.36572e-05
5.38106e-05
5.39778e-05
5.41388e-05
5.42827e-05
5.44076e-05
5.45133e-05
5.46014e-05
5.46742e-05
5.47345e-05
5.47846e-05
5.48262e-05
5.4861e-05
5.48905e-05
5.49158e-05
5.49375e-05
5.4956e-05
5.49719e-05
5.4986e-05
5.49988e-05
5.50107e-05
5.50218e-05
5.50314e-05
5.50368e-05
5.50212e-05
5.48887e-05
5.42239e-05
5.1853e-05
4.63633e-05
5.73748e-05
5.63158e-05
5.58771e-05
5.54958e-05
5.53385e-05
5.50586e-05
5.47272e-05
5.44788e-05
5.42651e-05
5.40982e-05
5.39551e-05
5.38124e-05
5.36722e-05
5.35751e-05
5.354e-05
5.35713e-05
5.36544e-05
5.37698e-05
5.38978e-05
5.40251e-05
5.41429e-05
5.42467e-05
5.43361e-05
5.4412e-05
5.44759e-05
5.45299e-05
5.45755e-05
5.4614e-05
5.46467e-05
5.46747e-05
5.46989e-05
5.47196e-05
5.47374e-05
5.47528e-05
5.47663e-05
5.47787e-05
5.47904e-05
5.48014e-05
5.48106e-05
5.48129e-05
5.47728e-05
5.44785e-05
5.29587e-05
4.71889e-05
3.25222e-05
6.36551e-05
6.14515e-05
5.9577e-05
5.80016e-05
5.67262e-05
5.57129e-05
5.4937e-05
5.43595e-05
5.39378e-05
5.36128e-05
5.33448e-05
5.31268e-05
5.29559e-05
5.28408e-05
5.27829e-05
5.27795e-05
5.28232e-05
5.28931e-05
5.29747e-05
5.30581e-05
5.3138e-05
5.32118e-05
5.32781e-05
5.33365e-05
5.33875e-05
5.34317e-05
5.34701e-05
5.35032e-05
5.35318e-05
5.35567e-05
5.35784e-05
5.35973e-05
5.36137e-05
5.36278e-05
5.36403e-05
5.36517e-05
5.93215e-05
5.74383e-05
5.5784e-05
5.43693e-05
5.31877e-05
5.22315e-05
5.14739e-05
5.088e-05
5.04214e-05
5.00621e-05
4.97729e-05
4.95309e-05
4.9324e-05
4.91527e-05
4.90204e-05
4.89278e-05
4.88677e-05
4.88376e-05
4.88311e-05
4.88408e-05
4.88604e-05
4.88855e-05
4.89129e-05
4.89406e-05
4.89673e-05
4.89927e-05
4.90161e-05
4.90374e-05
4.90565e-05
4.90738e-05
4.90894e-05
4.91034e-05
4.91159e-05
4.91268e-05
4.91365e-05
4.32025e-05
4.22535e-05
4.13644e-05
4.05571e-05
3.98433e-05
3.92334e-05
3.87234e-05
3.82992e-05
3.79427e-05
3.76294e-05
3.7342e-05
3.70698e-05
3.68096e-05
3.65661e-05
3.63477e-05
3.61606e-05
3.60081e-05
3.58892e-05
3.58002e-05
3.57363e-05
3.5692e-05
3.56628e-05
3.56447e-05
3.56347e-05
3.56305e-05
3.56302e-05
3.56325e-05
3.56364e-05
3.56411e-05
3.56463e-05
3.56517e-05
3.56571e-05
3.56624e-05
3.56673e-05
3.56718e-05
1.06108e-05
1.04926e-05
1.0383e-05
1.02828e-05
1.01924e-05
1.01117e-05
1.00402e-05
9.97695e-06
9.92093e-06
9.87081e-06
9.82578e-06
9.78526e-06
9.7492e-06
9.7178e-06
9.6913e-06
9.66975e-06
9.65289e-06
9.64027e-06
9.63119e-06
9.62487e-06
9.62031e-06
9.61661e-06
9.61333e-06
9.61036e-06
9.60768e-06
9.60524e-06
9.60303e-06
9.60102e-06
9.59918e-06
9.5975e-06
9.59597e-06
9.59456e-06
9.59326e-06
9.59206e-06
9.59094e-06
9.1625e-05
8.84977e-05
8.55058e-05
7.36824e-05
6.58865e-05
6.91671e-05
8.03861e-05
8.94817e-05
9.65656e-05
0.000100301
9.91239e-05
9.22781e-05
7.34986e-05
3.86123e-05
1.53478e-05
1.02731e-05
9.91035e-06
9.84768e-06
9.81324e-06
9.79087e-06
9.77545e-06
9.76434e-06
9.75603e-06
9.74965e-06
9.74462e-06
9.74056e-06
9.73723e-06
9.73443e-06
9.73205e-06
9.72999e-06
9.72819e-06
9.7266e-06
9.72518e-06
9.72391e-06
9.72275e-06
9.72171e-06
9.72076e-06
9.71988e-06
9.71905e-06
9.71807e-06
9.71521e-06
9.69839e-06
9.61111e-06
9.94667e-06
0.000131739
0.000115667
0.000112439
0.000124345
0.000154604
0.000175677
0.000185982
0.000191479
0.000203937
0.000201616
0.000169798
7.7946e-05
3.27214e-05
2.12772e-05
3.14456e-05
3.75181e-05
3.96074e-05
4.11928e-05
4.23171e-05
4.30735e-05
4.35803e-05
4.39241e-05
4.41618e-05
4.43287e-05
4.44478e-05
4.45337e-05
4.45963e-05
4.46425e-05
4.4677e-05
4.47032e-05
4.47237e-05
4.47401e-05
4.47535e-05
4.47648e-05
4.47747e-05
4.47833e-05
4.47905e-05
4.47958e-05
4.47962e-05
4.47637e-05
4.44886e-05
4.27497e-05
3.45872e-05
1.08839e-05
0.000115783
0.000120936
0.000127696
0.000138884
0.000147325
0.000145831
0.000136212
0.000113848
9.14419e-05
8.383e-05
7.16242e-05
4.66043e-05
1.83839e-05
1.93842e-05
4.5334e-05
6.3224e-05
6.49269e-05
6.52293e-05
6.56647e-05
6.61287e-05
6.65297e-05
6.68456e-05
6.70848e-05
6.72638e-05
6.73979e-05
6.7499e-05
6.75759e-05
6.76348e-05
6.76804e-05
6.77162e-05
6.77448e-05
6.77681e-05
6.77876e-05
6.7804e-05
6.78182e-05
6.78306e-05
6.78415e-05
6.78507e-05
6.78566e-05
6.78446e-05
6.77078e-05
6.68015e-05
6.21923e-05
4.53969e-05
1.10127e-05
7.54861e-05
7.90456e-05
7.85249e-05
7.20348e-05
5.48536e-05
3.84109e-05
2.84372e-05
2.22801e-05
1.95635e-05
1.76556e-05
1.51102e-05
1.32403e-05
2.52202e-05
5.81276e-05
7.78706e-05
7.77189e-05
7.59153e-05
7.53865e-05
7.54079e-05
7.56125e-05
7.58525e-05
7.60692e-05
7.62482e-05
7.63907e-05
7.6503e-05
7.65913e-05
7.66611e-05
7.67165e-05
7.67609e-05
7.67967e-05
7.68262e-05
7.6851e-05
7.6872e-05
7.689e-05
7.69056e-05
7.69193e-05
7.69315e-05
7.6942e-05
7.69482e-05
7.69291e-05
7.67411e-05
7.55775e-05
6.9989e-05
5.03843e-05
1.13235e-05
2.12515e-05
1.85488e-05
1.60705e-05
1.43834e-05
1.40777e-05
1.43703e-05
1.5166e-05
1.6041e-05
1.76528e-05
2.26333e-05
3.94803e-05
6.83796e-05
8.1014e-05
8.10282e-05
7.94106e-05
7.85767e-05
7.82639e-05
7.82779e-05
7.84273e-05
7.86003e-05
7.87629e-05
7.89032e-05
7.90194e-05
7.91139e-05
7.91906e-05
7.92528e-05
7.93034e-05
7.93446e-05
7.93787e-05
7.94073e-05
7.94316e-05
7.94524e-05
7.94702e-05
7.94858e-05
7.94997e-05
7.9512e-05
7.95229e-05
7.95306e-05
7.95203e-05
7.93979e-05
7.86604e-05
7.5291e-05
6.40911e-05
4.00686e-05
2.29341e-05
2.35045e-05
2.52e-05
2.92634e-05
3.47656e-05
3.99664e-05
4.52202e-05
4.9963e-05
5.61737e-05
6.66694e-05
7.77771e-05
8.19994e-05
8.15974e-05
8.03506e-05
7.94672e-05
7.90513e-05
7.89439e-05
7.9e-05
7.91193e-05
7.92602e-05
7.93945e-05
7.95126e-05
7.96126e-05
7.96956e-05
7.97642e-05
7.98208e-05
7.98676e-05
7.99063e-05
7.99388e-05
7.99664e-05
7.99899e-05
8.00101e-05
8.00274e-05
8.00426e-05
8.00562e-05
8.00684e-05
8.00795e-05
8.00882e-05
8.00863e-05
8.00239e-05
7.96454e-05
7.79807e-05
7.27289e-05
6.20615e-05
5.54115e-05
5.58311e-05
5.84071e-05
6.17447e-05
6.64578e-05
7.05547e-05
7.34945e-05
7.61858e-05
7.83738e-05
8.02133e-05
8.14455e-05
8.16186e-05
8.09994e-05
8.02164e-05
7.95892e-05
7.92093e-05
7.905e-05
7.90393e-05
7.91115e-05
7.92206e-05
7.93384e-05
7.94516e-05
7.95533e-05
7.96411e-05
7.97154e-05
7.97778e-05
7.98301e-05
7.98739e-05
7.99106e-05
7.99417e-05
7.99683e-05
7.99911e-05
8.00106e-05
8.00274e-05
8.00422e-05
8.00554e-05
8.00676e-05
8.00786e-05
8.00873e-05
8.00855e-05
8.00232e-05
7.96447e-05
7.79801e-05
7.27288e-05
6.20643e-05
8.84293e-05
8.65541e-05
8.53315e-05
8.42744e-05
8.35635e-05
8.28586e-05
8.22269e-05
8.17609e-05
8.13749e-05
8.10329e-05
8.06638e-05
8.02269e-05
7.97367e-05
7.92857e-05
7.89352e-05
7.8718e-05
7.86291e-05
7.86339e-05
7.86948e-05
7.87835e-05
7.88789e-05
7.89703e-05
7.90532e-05
7.91262e-05
7.91892e-05
7.92432e-05
7.92893e-05
7.93286e-05
7.93621e-05
7.93909e-05
7.94158e-05
7.94372e-05
7.94555e-05
7.94714e-05
7.94854e-05
7.94981e-05
7.95099e-05
7.95206e-05
7.95281e-05
7.95179e-05
7.93957e-05
7.86584e-05
7.52894e-05
6.40921e-05
4.00816e-05
9.38503e-05
9.0681e-05
8.79201e-05
8.55701e-05
8.36416e-05
8.20914e-05
8.08965e-05
7.99947e-05
7.93157e-05
7.87578e-05
7.82511e-05
7.7781e-05
7.73506e-05
7.69894e-05
7.67179e-05
7.65439e-05
7.64448e-05
7.64068e-05
7.64114e-05
7.64411e-05
7.64846e-05
7.65337e-05
7.65832e-05
7.66301e-05
7.66731e-05
7.67119e-05
7.67464e-05
7.67768e-05
7.68035e-05
7.68269e-05
7.68476e-05
7.68658e-05
7.68816e-05
7.68954e-05
7.69076e-05
7.69188e-05
8.3874e-05
8.13247e-05
7.9037e-05
7.70551e-05
7.53879e-05
7.40382e-05
7.29657e-05
7.21157e-05
7.14391e-05
7.08723e-05
7.03651e-05
6.98892e-05
6.94345e-05
6.90148e-05
6.86482e-05
6.83478e-05
6.81215e-05
6.7959e-05
6.78489e-05
6.77788e-05
6.77378e-05
6.77169e-05
6.77097e-05
6.77112e-05
6.77182e-05
6.77285e-05
6.77405e-05
6.77531e-05
6.77655e-05
6.77776e-05
6.77891e-05
6.77999e-05
6.78099e-05
6.78189e-05
6.7827e-05
5.56653e-05
5.44713e-05
5.33277e-05
5.22712e-05
5.13224e-05
5.05011e-05
4.98071e-05
4.92216e-05
4.87214e-05
4.82698e-05
4.78406e-05
4.74161e-05
4.69951e-05
4.65897e-05
4.62166e-05
4.58892e-05
4.56147e-05
4.53929e-05
4.52196e-05
4.50878e-05
4.49896e-05
4.4918e-05
4.48669e-05
4.48313e-05
4.48071e-05
4.47914e-05
4.47817e-05
4.47762e-05
4.47736e-05
4.4773e-05
4.47739e-05
4.47757e-05
4.47782e-05
4.47808e-05
4.47836e-05
1.07791e-05
1.0659e-05
1.05477e-05
1.04457e-05
1.03537e-05
1.02715e-05
1.01987e-05
1.01342e-05
1.00769e-05
1.00255e-05
9.97897e-06
9.93685e-06
9.89903e-06
9.86575e-06
9.83733e-06
9.8139e-06
9.79527e-06
9.78103e-06
9.77049e-06
9.76283e-06
9.75711e-06
9.75248e-06
9.7485e-06
9.74498e-06
9.74186e-06
9.73908e-06
9.73659e-06
9.73436e-06
9.73235e-06
9.73053e-06
9.72888e-06
9.72738e-06
9.72601e-06
9.72475e-06
9.72358e-06
9.24996e-05
8.95824e-05
8.3677e-05
6.39817e-05
5.70174e-05
6.24861e-05
7.57739e-05
8.60423e-05
9.2393e-05
9.37145e-05
9.0668e-05
8.25451e-05
5.77682e-05
2.62243e-05
1.19548e-05
1.01143e-05
9.9573e-06
9.90137e-06
9.86772e-06
9.84559e-06
9.83023e-06
9.8191e-06
9.81076e-06
9.80434e-06
9.79927e-06
9.79517e-06
9.7918e-06
9.78897e-06
9.78656e-06
9.78448e-06
9.78266e-06
9.78105e-06
9.77962e-06
9.77834e-06
9.77718e-06
9.77614e-06
9.7752e-06
9.77433e-06
9.77351e-06
9.77244e-06
9.76878e-06
9.74727e-06
9.64229e-06
9.9526e-06
0.000120718
0.00010095
9.88103e-05
0.000108513
0.000131506
0.000147778
0.000163594
0.0001783
0.000189299
0.000181106
0.000114181
4.58001e-05
2.6513e-05
2.8529e-05
3.96131e-05
4.25152e-05
4.45426e-05
4.61805e-05
4.73482e-05
4.81426e-05
4.86801e-05
4.90468e-05
4.93012e-05
4.94799e-05
4.96071e-05
4.96983e-05
4.97642e-05
4.98124e-05
4.9848e-05
4.98749e-05
4.98956e-05
4.9912e-05
4.99252e-05
4.99364e-05
4.99462e-05
4.99547e-05
4.99615e-05
4.99659e-05
4.99632e-05
4.991e-05
4.95083e-05
4.71671e-05
3.71033e-05
1.09127e-05
9.51641e-05
9.05297e-05
9.80687e-05
0.000109609
0.000116581
0.000114271
0.000100745
8.0655e-05
7.37266e-05
6.78868e-05
5.2176e-05
2.60273e-05
1.92624e-05
3.57031e-05
6.93846e-05
7.84067e-05
7.86517e-05
7.85909e-05
7.88786e-05
7.92843e-05
7.96676e-05
7.99821e-05
8.02251e-05
8.04088e-05
8.05467e-05
8.06503e-05
8.07285e-05
8.07877e-05
8.08331e-05
8.08682e-05
8.08959e-05
8.09182e-05
8.09365e-05
8.09518e-05
8.09648e-05
8.09762e-05
8.09861e-05
8.0994e-05
8.09969e-05
8.09693e-05
8.07334e-05
7.92981e-05
7.25689e-05
5.04035e-05
1.10633e-05
4.75634e-05
4.62346e-05
4.42801e-05
4.00996e-05
3.30977e-05
2.6533e-05
2.19765e-05
1.9344e-05
1.79625e-05
1.70302e-05
1.67822e-05
2.50547e-05
5.46663e-05
9.13059e-05
0.000100698
9.75874e-05
9.48107e-05
9.3845e-05
9.36117e-05
9.36854e-05
9.38598e-05
9.40438e-05
9.42059e-05
9.43394e-05
9.44463e-05
9.4531e-05
9.4598e-05
9.46511e-05
9.46934e-05
9.47275e-05
9.47553e-05
9.47784e-05
9.47978e-05
9.48143e-05
9.48285e-05
9.48409e-05
9.48518e-05
9.48606e-05
9.48622e-05
9.48176e-05
9.44747e-05
9.2531e-05
8.39755e-05
5.7091e-05
1.1412e-05
2.41067e-05
2.23127e-05
2.158e-05
2.2214e-05
2.39103e-05
2.58849e-05
2.83238e-05
3.11348e-05
3.61939e-05
4.97158e-05
7.71208e-05
9.99333e-05
0.000105844
0.000103498
0.000100805
9.92901e-05
9.85294e-05
9.83024e-05
9.83169e-05
9.84127e-05
9.85308e-05
9.86446e-05
9.87443e-05
9.88282e-05
9.88974e-05
9.89542e-05
9.90007e-05
9.90388e-05
9.90702e-05
9.90966e-05
9.91189e-05
9.91379e-05
9.91542e-05
9.91683e-05
9.91808e-05
9.91918e-05
9.92011e-05
9.92046e-05
9.91733e-05
9.89286e-05
9.75953e-05
9.20305e-05
7.53949e-05
4.41186e-05
4.68838e-05
4.76836e-05
5.02908e-05
5.58096e-05
6.25517e-05
6.86066e-05
7.46753e-05
8.05598e-05
8.80638e-05
9.79877e-05
0.000105088
0.00010636
0.0001046
0.000102433
0.000100867
9.9985e-05
9.95796e-05
9.94513e-05
9.94576e-05
9.9531e-05
9.96237e-05
9.97153e-05
9.97978e-05
9.98689e-05
9.99291e-05
9.99795e-05
0.000100022
0.000100057
0.000100086
0.000100111
0.000100133
0.000100151
0.000100167
0.00010018
0.000100193
0.000100204
0.000100213
0.000100219
0.000100202
0.00010006
9.92981e-05
9.62424e-05
8.75257e-05
7.17348e-05
8.84774e-05
8.78126e-05
8.91403e-05
9.12573e-05
9.4504e-05
9.73099e-05
9.94215e-05
0.000101515
0.000103333
0.00010474
0.000105292
0.000104753
0.000103513
0.000102159
0.00010102
0.000100236
9.97827e-05
9.95712e-05
9.95107e-05
9.95355e-05
9.95986e-05
9.96763e-05
9.97545e-05
9.98264e-05
9.98894e-05
9.99436e-05
9.99896e-05
0.000100029
0.000100062
0.00010009
0.000100114
0.000100134
0.000100152
0.000100167
0.00010018
0.000100192
0.000100203
0.000100212
0.000100218
0.000100202
0.000100059
9.92976e-05
9.6242e-05
8.75259e-05
7.17383e-05
0.000116295
0.000113417
0.000111116
0.000109102
0.000107535
0.000106209
0.000105163
0.000104401
0.000103796
0.000103246
0.000102627
0.00010189
0.000101053
0.000100245
9.95644e-05
9.90832e-05
9.87982e-05
9.86637e-05
9.86291e-05
9.86485e-05
9.86954e-05
9.87527e-05
9.88114e-05
9.88668e-05
9.89168e-05
9.89609e-05
9.89995e-05
9.90328e-05
9.90615e-05
9.90864e-05
9.9108e-05
9.91268e-05
9.9143e-05
9.9157e-05
9.91693e-05
9.91805e-05
9.91908e-05
9.91997e-05
9.9203e-05
9.91717e-05
9.8927e-05
9.75938e-05
9.20293e-05
7.53964e-05
4.41328e-05
0.000117713
0.000113849
0.000110407
0.000107443
0.000104987
0.000103019
0.000101505
0.000100356
9.94769e-05
9.87305e-05
9.80203e-05
9.73243e-05
9.66522e-05
9.60537e-05
9.55696e-05
9.51965e-05
9.49254e-05
9.4751e-05
9.46508e-05
9.4604e-05
9.45908e-05
9.45975e-05
9.46151e-05
9.46379e-05
9.46625e-05
9.46869e-05
9.47103e-05
9.47318e-05
9.47515e-05
9.47693e-05
9.47854e-05
9.47997e-05
9.48125e-05
9.48237e-05
9.48338e-05
9.48432e-05
0.000101548
9.86311e-05
9.59844e-05
9.36751e-05
9.17089e-05
9.00853e-05
8.87793e-05
8.77317e-05
8.68789e-05
8.61361e-05
8.54362e-05
8.47429e-05
8.40525e-05
8.33923e-05
8.27944e-05
8.22946e-05
8.19035e-05
8.16059e-05
8.13873e-05
8.12315e-05
8.11232e-05
8.105e-05
8.1002e-05
8.09719e-05
8.09543e-05
8.09453e-05
8.09421e-05
8.09427e-05
8.09457e-05
8.09502e-05
8.09555e-05
8.09614e-05
8.09673e-05
8.0973e-05
8.09785e-05
6.30973e-05
6.17522e-05
6.04472e-05
5.92293e-05
5.81318e-05
5.71841e-05
5.63804e-05
5.56955e-05
5.51007e-05
5.45517e-05
5.40195e-05
5.34863e-05
5.29512e-05
5.24315e-05
5.19496e-05
5.15239e-05
5.11627e-05
5.08671e-05
5.06325e-05
5.04507e-05
5.03123e-05
5.02087e-05
5.01322e-05
5.00765e-05
5.00366e-05
5.00084e-05
4.99888e-05
4.99755e-05
4.99667e-05
4.99611e-05
4.99579e-05
4.99566e-05
4.99564e-05
4.9957e-05
4.99581e-05