/*--------------------------------*- C++ -*----------------------------------*\
| =========                 |                                                 |
| \\      /  F ield         | OpenFOAM: The Open Source CFD Toolbox           |
|  \\    /   O peration     | Version:  2.3.1                                 |
|   \\  /    A nd           | Web:      www.OpenFOAM.org                      |
|    \\/     M anipulation  |                                                 |
\*---------------------------------------------------------------------------*/
FoamFile
{
    version     2.0;
    format      ascii;
    class       volScalarField;
    location    "5";
    object      p;
}
// * * * * * * * * * * * * * * * * * * * * * * * * * * * * * * * * * * * * * //

dimensions      [0 2 -2 0 0 0 0];

internalField   nonuniform List<scalar> 
38152
(
-1.37947
-1.37864
-1.37768
-1.37642
-1.37558
-1.37563
-1.37653
-1.37808
-1.37891
-1.37977
-1.37912
-1.37771
-1.37518
-1.37202
-1.37082
-1.37205
-1.37322
-1.37391
-1.3743
-1.37453
-1.37467
-1.37477
-1.37483
-1.37487
-1.37489
-1.37491
-1.37493
-1.37494
-1.37494
-1.37495
-1.37495
-1.37495
-1.37495
-1.37495
-1.37496
-1.37496
-1.37496
-1.37496
-1.37496
-1.37496
-1.37496
-1.37496
-1.37496
-1.37496
-1.37811
-1.37732
-1.37678
-1.37641
-1.3764
-1.37666
-1.37731
-1.37893
-1.38009
-1.38112
-1.38042
-1.37596
-1.37411
-1.37359
-1.37285
-1.37325
-1.37376
-1.37414
-1.37441
-1.37458
-1.3747
-1.37478
-1.37483
-1.37487
-1.3749
-1.37492
-1.37493
-1.37494
-1.37494
-1.37495
-1.37495
-1.37495
-1.37495
-1.37495
-1.37496
-1.37496
-1.37496
-1.37496
-1.37496
-1.37496
-1.37496
-1.37496
-1.37496
-1.37496
-1.37859
-1.3779
-1.37734
-1.37699
-1.37701
-1.37726
-1.37744
-1.37772
-1.37841
-1.37825
-1.37738
-1.37772
-1.3764
-1.37476
-1.37395
-1.37365
-1.37383
-1.3741
-1.37434
-1.37452
-1.37465
-1.37474
-1.37481
-1.37485
-1.37488
-1.3749
-1.37492
-1.37493
-1.37494
-1.37495
-1.37495
-1.37495
-1.37495
-1.37495
-1.37496
-1.37496
-1.37496
-1.37496
-1.37496
-1.37496
-1.37496
-1.37496
-1.37496
-1.37496
-1.37496
-1.37914
-1.37881
-1.37853
-1.37814
-1.3774
-1.37633
-1.37551
-1.37588
-1.37729
-1.37838
-1.37867
-1.37767
-1.37634
-1.37531
-1.37468
-1.37438
-1.37436
-1.37444
-1.37455
-1.37465
-1.37473
-1.37479
-1.37484
-1.37487
-1.3749
-1.37491
-1.37493
-1.37494
-1.37494
-1.37495
-1.37495
-1.37495
-1.37495
-1.37496
-1.37496
-1.37496
-1.37496
-1.37496
-1.37496
-1.37496
-1.37496
-1.37496
-1.37496
-1.37496
-1.37496
-1.37841
-1.37789
-1.37739
-1.37695
-1.3766
-1.37656
-1.37666
-1.37687
-1.37692
-1.37685
-1.37659
-1.37596
-1.37539
-1.37497
-1.37474
-1.37467
-1.37467
-1.37471
-1.37476
-1.37481
-1.37484
-1.37487
-1.3749
-1.37491
-1.37493
-1.37494
-1.37494
-1.37495
-1.37495
-1.37495
-1.37495
-1.37496
-1.37496
-1.37496
-1.37496
-1.37496
-1.37496
-1.37496
-1.37496
-1.37496
-1.37496
-1.37496
-1.37496
-1.37496
-1.37821
-1.37782
-1.37741
-1.37699
-1.37668
-1.37655
-1.37666
-1.37684
-1.37694
-1.37681
-1.37644
-1.37597
-1.37554
-1.37521
-1.375
-1.3749
-1.37485
-1.37485
-1.37486
-1.37487
-1.37489
-1.37491
-1.37492
-1.37493
-1.37494
-1.37494
-1.37495
-1.37495
-1.37495
-1.37496
-1.37496
-1.37496
-1.37496
-1.37496
-1.37496
-1.37496
-1.37496
-1.37496
-1.37496
-1.37496
-1.37496
-1.37496
-1.37496
-1.37496
-1.37824
-1.37789
-1.37755
-1.37724
-1.37696
-1.37674
-1.3766
-1.37654
-1.3765
-1.37644
-1.37632
-1.37612
-1.37584
-1.37556
-1.37532
-1.37515
-1.37504
-1.37498
-1.37495
-1.37493
-1.37493
-1.37493
-1.37494
-1.37494
-1.37495
-1.37495
-1.37495
-1.37495
-1.37496
-1.37496
-1.37496
-1.37496
-1.37496
-1.37496
-1.37496
-1.37496
-1.37496
-1.37496
-1.37496
-1.37496
-1.37496
-1.37496
-1.37496
-1.37496
-1.37496
-1.37813
-1.37782
-1.37752
-1.37723
-1.37698
-1.37678
-1.37665
-1.37657
-1.37651
-1.37642
-1.37627
-1.37606
-1.37582
-1.3756
-1.3754
-1.37525
-1.37514
-1.37507
-1.37502
-1.375
-1.37498
-1.37497
-1.37496
-1.37496
-1.37496
-1.37496
-1.37496
-1.37496
-1.37496
-1.37496
-1.37496
-1.37496
-1.37496
-1.37496
-1.37496
-1.37496
-1.37496
-1.37496
-1.37496
-1.37496
-1.37496
-1.37496
-1.37496
-1.37496
-1.37496
-1.37794
-1.37766
-1.3774
-1.37715
-1.37693
-1.37674
-1.37659
-1.37646
-1.37635
-1.37624
-1.37611
-1.37596
-1.37578
-1.3756
-1.37544
-1.37531
-1.37521
-1.37513
-1.37508
-1.37504
-1.37501
-1.375
-1.37499
-1.37498
-1.37497
-1.37497
-1.37497
-1.37496
-1.37496
-1.37496
-1.37496
-1.37496
-1.37496
-1.37496
-1.37496
-1.37496
-1.37789
-1.37763
-1.37738
-1.37714
-1.37694
-1.37676
-1.37661
-1.37648
-1.37635
-1.37622
-1.37608
-1.37592
-1.37576
-1.37561
-1.37547
-1.37535
-1.37525
-1.37517
-1.37512
-1.37507
-1.37504
-1.37502
-1.375
-1.37499
-1.37498
-1.37498
-1.37497
-1.37497
-1.37497
-1.37496
-1.37496
-1.37496
-1.37496
-1.37496
-1.37496
-1.37782
-1.37757
-1.37733
-1.37711
-1.37691
-1.37673
-1.37657
-1.37643
-1.37629
-1.37617
-1.37603
-1.37589
-1.37575
-1.37561
-1.37548
-1.37537
-1.37527
-1.3752
-1.37514
-1.37509
-1.37506
-1.37503
-1.37501
-1.375
-1.37499
-1.37498
-1.37498
-1.37497
-1.37497
-1.37497
-1.37496
-1.37496
-1.37496
-1.37496
-1.37496
-1.3778
-1.37756
-1.37732
-1.3771
-1.37691
-1.37673
-1.37657
-1.37643
-1.37629
-1.37616
-1.37602
-1.37588
-1.37574
-1.37561
-1.37549
-1.37538
-1.37528
-1.37521
-1.37515
-1.3751
-1.37506
-1.37504
-1.37502
-1.375
-1.37499
-1.37498
-1.37498
-1.37497
-1.37497
-1.37497
-1.37496
-1.37496
-1.37496
-1.37496
-1.37496
-1.48985
-1.489
-1.48802
-1.4867
-1.48601
-1.48636
-1.48744
-1.48889
-1.49009
-1.49069
-1.48962
-1.48815
-1.48572
-1.4827
-1.48154
-1.48265
-1.48368
-1.48431
-1.48468
-1.4849
-1.48504
-1.48513
-1.48519
-1.48523
-1.48526
-1.48528
-1.48529
-1.4853
-1.4853
-1.48531
-1.48531
-1.48531
-1.48532
-1.48532
-1.48532
-1.48532
-1.48532
-1.48532
-1.48532
-1.48532
-1.48532
-1.48532
-1.48532
-1.48532
-1.48889
-1.48832
-1.48826
-1.48781
-1.48742
-1.48747
-1.48818
-1.48944
-1.49064
-1.49252
-1.49096
-1.48657
-1.48499
-1.48413
-1.48334
-1.48371
-1.48417
-1.48453
-1.48478
-1.48495
-1.48507
-1.48515
-1.4852
-1.48523
-1.48526
-1.48528
-1.48529
-1.4853
-1.48531
-1.48531
-1.48531
-1.48532
-1.48532
-1.48532
-1.48532
-1.48532
-1.48532
-1.48532
-1.48532
-1.48532
-1.48532
-1.48532
-1.48532
-1.48532
-1.48945
-1.48872
-1.48819
-1.48795
-1.48806
-1.48821
-1.48822
-1.48839
-1.48883
-1.48852
-1.48824
-1.48864
-1.4869
-1.48526
-1.48441
-1.48409
-1.48424
-1.48449
-1.48472
-1.48489
-1.48502
-1.48511
-1.48517
-1.48521
-1.48525
-1.48527
-1.48528
-1.48529
-1.4853
-1.48531
-1.48531
-1.48531
-1.48532
-1.48532
-1.48532
-1.48532
-1.48532
-1.48532
-1.48532
-1.48532
-1.48532
-1.48532
-1.48532
-1.48532
-1.48532
-1.48966
-1.48933
-1.48908
-1.48867
-1.48792
-1.48686
-1.48612
-1.48646
-1.48768
-1.48873
-1.48897
-1.48798
-1.48671
-1.48572
-1.48507
-1.48477
-1.48475
-1.48482
-1.48492
-1.48502
-1.4851
-1.48516
-1.4852
-1.48524
-1.48526
-1.48528
-1.48529
-1.4853
-1.48531
-1.48531
-1.48531
-1.48532
-1.48532
-1.48532
-1.48532
-1.48532
-1.48532
-1.48532
-1.48532
-1.48532
-1.48532
-1.48532
-1.48532
-1.48532
-1.48532
-1.48877
-1.48826
-1.48778
-1.48738
-1.48707
-1.48701
-1.48706
-1.48722
-1.48727
-1.48723
-1.48696
-1.48633
-1.48576
-1.48535
-1.48512
-1.48504
-1.48504
-1.48508
-1.48513
-1.48517
-1.48521
-1.48524
-1.48526
-1.48528
-1.48529
-1.4853
-1.4853
-1.48531
-1.48531
-1.48532
-1.48532
-1.48532
-1.48532
-1.48532
-1.48532
-1.48532
-1.48532
-1.48532
-1.48532
-1.48532
-1.48532
-1.48532
-1.48532
-1.48532
-1.48856
-1.48818
-1.48777
-1.48736
-1.48707
-1.48694
-1.48703
-1.4872
-1.48729
-1.48716
-1.48679
-1.48633
-1.48591
-1.48558
-1.48537
-1.48526
-1.48522
-1.48521
-1.48522
-1.48524
-1.48525
-1.48527
-1.48528
-1.48529
-1.4853
-1.48531
-1.48531
-1.48531
-1.48532
-1.48532
-1.48532
-1.48532
-1.48532
-1.48532
-1.48532
-1.48532
-1.48532
-1.48532
-1.48532
-1.48532
-1.48532
-1.48532
-1.48532
-1.48532
-1.48859
-1.48824
-1.4879
-1.48759
-1.48732
-1.4871
-1.48696
-1.48689
-1.48685
-1.48679
-1.48668
-1.48648
-1.4862
-1.48592
-1.48569
-1.48552
-1.48541
-1.48534
-1.48531
-1.4853
-1.4853
-1.4853
-1.4853
-1.4853
-1.48531
-1.48531
-1.48531
-1.48532
-1.48532
-1.48532
-1.48532
-1.48532
-1.48532
-1.48532
-1.48532
-1.48532
-1.48532
-1.48532
-1.48532
-1.48532
-1.48532
-1.48532
-1.48532
-1.48532
-1.48532
-1.48848
-1.48818
-1.48787
-1.48759
-1.48734
-1.48714
-1.48701
-1.48693
-1.48687
-1.48678
-1.48663
-1.48642
-1.48618
-1.48596
-1.48576
-1.48561
-1.48551
-1.48543
-1.48539
-1.48536
-1.48534
-1.48533
-1.48533
-1.48532
-1.48532
-1.48532
-1.48532
-1.48532
-1.48532
-1.48532
-1.48532
-1.48532
-1.48532
-1.48532
-1.48532
-1.48532
-1.48532
-1.48532
-1.48532
-1.48532
-1.48532
-1.48532
-1.48532
-1.48532
-1.48532
-1.4883
-1.48802
-1.48775
-1.48751
-1.48729
-1.4871
-1.48695
-1.48682
-1.48671
-1.4866
-1.48647
-1.48631
-1.48614
-1.48596
-1.4858
-1.48567
-1.48557
-1.48549
-1.48544
-1.4854
-1.48538
-1.48536
-1.48535
-1.48534
-1.48534
-1.48533
-1.48533
-1.48533
-1.48533
-1.48532
-1.48532
-1.48532
-1.48532
-1.48532
-1.48532
-1.48532
-1.48825
-1.48799
-1.48774
-1.4875
-1.48729
-1.48711
-1.48696
-1.48683
-1.48671
-1.48658
-1.48644
-1.48628
-1.48612
-1.48597
-1.48583
-1.48571
-1.48561
-1.48554
-1.48548
-1.48544
-1.4854
-1.48538
-1.48536
-1.48535
-1.48534
-1.48534
-1.48533
-1.48533
-1.48533
-1.48533
-1.48533
-1.48532
-1.48532
-1.48532
-1.48532
-1.48818
-1.48793
-1.48769
-1.48747
-1.48726
-1.48708
-1.48693
-1.48679
-1.48665
-1.48652
-1.48639
-1.48625
-1.48611
-1.48597
-1.48584
-1.48573
-1.48564
-1.48556
-1.4855
-1.48545
-1.48542
-1.48539
-1.48537
-1.48536
-1.48535
-1.48534
-1.48534
-1.48533
-1.48533
-1.48533
-1.48533
-1.48533
-1.48532
-1.48532
-1.48532
-1.48816
-1.48791
-1.48768
-1.48746
-1.48726
-1.48709
-1.48693
-1.48678
-1.48665
-1.48651
-1.48638
-1.48624
-1.4861
-1.48597
-1.48585
-1.48574
-1.48565
-1.48557
-1.48551
-1.48546
-1.48543
-1.4854
-1.48538
-1.48536
-1.48535
-1.48535
-1.48534
-1.48533
-1.48533
-1.48533
-1.48533
-1.48533
-1.48532
-1.48532
-1.48532
-1.60012
-1.59936
-1.59814
-1.59672
-1.59644
-1.59711
-1.59814
-1.59952
-1.60069
-1.60084
-1.59987
-1.59861
-1.59622
-1.59334
-1.59235
-1.59333
-1.59419
-1.59474
-1.59508
-1.59528
-1.59541
-1.5955
-1.59556
-1.59559
-1.59562
-1.59564
-1.59565
-1.59566
-1.59567
-1.59567
-1.59568
-1.59568
-1.59568
-1.59568
-1.59568
-1.59568
-1.59568
-1.59568
-1.59568
-1.59568
-1.59568
-1.59568
-1.59568
-1.59568
-1.59922
-1.59917
-1.59922
-1.59828
-1.59785
-1.59801
-1.59868
-1.59991
-1.60173
-1.60311
-1.60092
-1.59725
-1.59594
-1.59465
-1.5939
-1.59422
-1.59461
-1.59494
-1.59517
-1.59533
-1.59544
-1.59551
-1.59556
-1.5956
-1.59562
-1.59564
-1.59565
-1.59566
-1.59567
-1.59567
-1.59568
-1.59568
-1.59568
-1.59568
-1.59568
-1.59568
-1.59568
-1.59568
-1.59568
-1.59568
-1.59568
-1.59568
-1.59568
-1.59568
-1.59996
-1.59917
-1.59867
-1.59853
-1.59867
-1.5988
-1.59869
-1.59862
-1.59887
-1.59877
-1.59903
-1.59904
-1.5971
-1.59574
-1.59489
-1.59457
-1.59469
-1.59491
-1.59511
-1.59527
-1.59539
-1.59548
-1.59554
-1.59558
-1.59561
-1.59563
-1.59565
-1.59566
-1.59566
-1.59567
-1.59567
-1.59568
-1.59568
-1.59568
-1.59568
-1.59568
-1.59568
-1.59568
-1.59568
-1.59568
-1.59568
-1.59568
-1.59568
-1.59568
-1.59568
-1.59997
-1.59962
-1.59937
-1.59895
-1.59819
-1.59721
-1.59668
-1.5971
-1.59812
-1.59906
-1.59916
-1.59822
-1.59704
-1.59614
-1.59549
-1.59519
-1.59515
-1.59521
-1.5953
-1.59539
-1.59547
-1.59553
-1.59557
-1.5956
-1.59562
-1.59564
-1.59565
-1.59566
-1.59567
-1.59567
-1.59568
-1.59568
-1.59568
-1.59568
-1.59568
-1.59568
-1.59568
-1.59568
-1.59568
-1.59568
-1.59568
-1.59568
-1.59568
-1.59568
-1.59568
-1.599
-1.59851
-1.59808
-1.59774
-1.5975
-1.59741
-1.59742
-1.59755
-1.5976
-1.59757
-1.59728
-1.59668
-1.59615
-1.59574
-1.59551
-1.59543
-1.59543
-1.59546
-1.5955
-1.59554
-1.59557
-1.5956
-1.59562
-1.59564
-1.59565
-1.59566
-1.59567
-1.59567
-1.59568
-1.59568
-1.59568
-1.59568
-1.59568
-1.59568
-1.59568
-1.59568
-1.59568
-1.59568
-1.59568
-1.59568
-1.59568
-1.59568
-1.59568
-1.59568
-1.59887
-1.5985
-1.5981
-1.59771
-1.59744
-1.59732
-1.5974
-1.59755
-1.59763
-1.59749
-1.59713
-1.59668
-1.59628
-1.59595
-1.59575
-1.59564
-1.59559
-1.59558
-1.59559
-1.5956
-1.59562
-1.59563
-1.59565
-1.59566
-1.59566
-1.59567
-1.59567
-1.59568
-1.59568
-1.59568
-1.59568
-1.59568
-1.59568
-1.59568
-1.59568
-1.59568
-1.59568
-1.59568
-1.59568
-1.59568
-1.59568
-1.59568
-1.59568
-1.59568
-1.59892
-1.59856
-1.59823
-1.59793
-1.59767
-1.59746
-1.59732
-1.59725
-1.5972
-1.59714
-1.59703
-1.59683
-1.59656
-1.59629
-1.59605
-1.59588
-1.59578
-1.59571
-1.59568
-1.59567
-1.59566
-1.59566
-1.59566
-1.59567
-1.59567
-1.59568
-1.59568
-1.59568
-1.59568
-1.59568
-1.59568
-1.59568
-1.59568
-1.59568
-1.59568
-1.59568
-1.59568
-1.59568
-1.59568
-1.59568
-1.59568
-1.59568
-1.59568
-1.59568
-1.59568
-1.59883
-1.59852
-1.59822
-1.59794
-1.59769
-1.5975
-1.59737
-1.59729
-1.59722
-1.59713
-1.59698
-1.59677
-1.59654
-1.59632
-1.59613
-1.59598
-1.59587
-1.5958
-1.59575
-1.59572
-1.59571
-1.5957
-1.59569
-1.59569
-1.59569
-1.59569
-1.59569
-1.59569
-1.59569
-1.59568
-1.59568
-1.59568
-1.59568
-1.59568
-1.59568
-1.59568
-1.59568
-1.59568
-1.59568
-1.59568
-1.59568
-1.59568
-1.59568
-1.59568
-1.59568
-1.59865
-1.59837
-1.5981
-1.59786
-1.59764
-1.59745
-1.5973
-1.59718
-1.59707
-1.59696
-1.59683
-1.59667
-1.5965
-1.59632
-1.59617
-1.59604
-1.59593
-1.59586
-1.59581
-1.59577
-1.59574
-1.59572
-1.59571
-1.5957
-1.5957
-1.59569
-1.59569
-1.59569
-1.59569
-1.59569
-1.59569
-1.59569
-1.59569
-1.59568
-1.59568
-1.59568
-1.5986
-1.59834
-1.59809
-1.59786
-1.59765
-1.59747
-1.59732
-1.59719
-1.59706
-1.59694
-1.59679
-1.59664
-1.59648
-1.59633
-1.59619
-1.59607
-1.59598
-1.5959
-1.59584
-1.5958
-1.59577
-1.59574
-1.59573
-1.59572
-1.59571
-1.5957
-1.5957
-1.59569
-1.59569
-1.59569
-1.59569
-1.59569
-1.59569
-1.59569
-1.59568
-1.59853
-1.59828
-1.59804
-1.59782
-1.59762
-1.59744
-1.59728
-1.59714
-1.59701
-1.59688
-1.59675
-1.59661
-1.59647
-1.59633
-1.5962
-1.59609
-1.596
-1.59592
-1.59586
-1.59582
-1.59578
-1.59576
-1.59574
-1.59572
-1.59571
-1.59571
-1.5957
-1.5957
-1.59569
-1.59569
-1.59569
-1.59569
-1.59569
-1.59569
-1.59568
-1.59851
-1.59827
-1.59803
-1.59781
-1.59762
-1.59744
-1.59728
-1.59714
-1.597
-1.59687
-1.59673
-1.5966
-1.59646
-1.59633
-1.59621
-1.5961
-1.59601
-1.59593
-1.59587
-1.59583
-1.59579
-1.59576
-1.59574
-1.59573
-1.59572
-1.59571
-1.5957
-1.5957
-1.59569
-1.59569
-1.59569
-1.59569
-1.59569
-1.59569
-1.59568
-1.71034
-1.70972
-1.70802
-1.70655
-1.70669
-1.70761
-1.70864
-1.70981
-1.71078
-1.71093
-1.71025
-1.70906
-1.70669
-1.70402
-1.70329
-1.70407
-1.70474
-1.7052
-1.70549
-1.70567
-1.70579
-1.70587
-1.70592
-1.70596
-1.70599
-1.706
-1.70602
-1.70602
-1.70603
-1.70604
-1.70604
-1.70604
-1.70604
-1.70604
-1.70604
-1.70604
-1.70604
-1.70604
-1.70604
-1.70604
-1.70604
-1.70604
-1.70604
-1.70604
-1.70954
-1.71017
-1.70957
-1.70812
-1.70794
-1.70835
-1.70901
-1.71019
-1.71194
-1.71309
-1.7108
-1.70796
-1.70678
-1.70513
-1.70453
-1.70476
-1.70508
-1.70536
-1.70557
-1.70571
-1.70581
-1.70588
-1.70593
-1.70597
-1.70599
-1.70601
-1.70602
-1.70603
-1.70603
-1.70604
-1.70604
-1.70604
-1.70604
-1.70604
-1.70604
-1.70604
-1.70604
-1.70604
-1.70604
-1.70604
-1.70604
-1.70604
-1.70604
-1.70604
-1.71034
-1.70945
-1.70897
-1.70885
-1.70896
-1.70911
-1.70887
-1.70871
-1.70891
-1.70908
-1.70953
-1.7091
-1.70736
-1.70624
-1.7054
-1.70509
-1.70517
-1.70534
-1.70552
-1.70566
-1.70577
-1.70585
-1.70591
-1.70595
-1.70598
-1.706
-1.70601
-1.70602
-1.70603
-1.70603
-1.70604
-1.70604
-1.70604
-1.70604
-1.70604
-1.70604
-1.70604
-1.70604
-1.70604
-1.70604
-1.70604
-1.70604
-1.70604
-1.70604
-1.70604
-1.71018
-1.70978
-1.70952
-1.70904
-1.7083
-1.70754
-1.70727
-1.70773
-1.70852
-1.70931
-1.70931
-1.70842
-1.70739
-1.70656
-1.70593
-1.70563
-1.70557
-1.70562
-1.7057
-1.70577
-1.70584
-1.7059
-1.70594
-1.70597
-1.70599
-1.70601
-1.70602
-1.70603
-1.70603
-1.70604
-1.70604
-1.70604
-1.70604
-1.70604
-1.70604
-1.70604
-1.70604
-1.70604
-1.70604
-1.70604
-1.70604
-1.70604
-1.70604
-1.70604
-1.70604
-1.70923
-1.70877
-1.70838
-1.70809
-1.70788
-1.70777
-1.70777
-1.70787
-1.70793
-1.70789
-1.70758
-1.70704
-1.70654
-1.70614
-1.70591
-1.70582
-1.70581
-1.70584
-1.70587
-1.70591
-1.70594
-1.70597
-1.70599
-1.706
-1.70602
-1.70602
-1.70603
-1.70604
-1.70604
-1.70604
-1.70604
-1.70604
-1.70604
-1.70604
-1.70604
-1.70604
-1.70604
-1.70604
-1.70604
-1.70604
-1.70604
-1.70604
-1.70604
-1.70604
-1.70918
-1.7088
-1.70841
-1.70805
-1.7078
-1.70771
-1.70777
-1.7079
-1.70795
-1.7078
-1.70745
-1.70704
-1.70665
-1.70633
-1.70613
-1.70602
-1.70597
-1.70596
-1.70596
-1.70597
-1.70599
-1.706
-1.70601
-1.70602
-1.70603
-1.70603
-1.70604
-1.70604
-1.70604
-1.70604
-1.70604
-1.70604
-1.70604
-1.70604
-1.70604
-1.70604
-1.70604
-1.70604
-1.70604
-1.70604
-1.70604
-1.70604
-1.70604
-1.70604
-1.70924
-1.70889
-1.70856
-1.70827
-1.70802
-1.70781
-1.70768
-1.7076
-1.70755
-1.70749
-1.70737
-1.70717
-1.70691
-1.70665
-1.70642
-1.70626
-1.70615
-1.70608
-1.70605
-1.70603
-1.70603
-1.70603
-1.70603
-1.70603
-1.70604
-1.70604
-1.70604
-1.70604
-1.70604
-1.70604
-1.70605
-1.70605
-1.70605
-1.70605
-1.70605
-1.70604
-1.70604
-1.70604
-1.70604
-1.70604
-1.70604
-1.70604
-1.70604
-1.70604
-1.70604
-1.70917
-1.70886
-1.70855
-1.70828
-1.70803
-1.70785
-1.70772
-1.70763
-1.70757
-1.70747
-1.70732
-1.70712
-1.70689
-1.70668
-1.70649
-1.70635
-1.70624
-1.70617
-1.70612
-1.70609
-1.70607
-1.70606
-1.70605
-1.70605
-1.70605
-1.70605
-1.70605
-1.70605
-1.70605
-1.70605
-1.70605
-1.70605
-1.70605
-1.70605
-1.70605
-1.70605
-1.70605
-1.70604
-1.70604
-1.70604
-1.70604
-1.70604
-1.70604
-1.70604
-1.70604
-1.70899
-1.70871
-1.70845
-1.70821
-1.70799
-1.7078
-1.70765
-1.70753
-1.70742
-1.70731
-1.70718
-1.70702
-1.70685
-1.70668
-1.70653
-1.7064
-1.7063
-1.70622
-1.70617
-1.70613
-1.70611
-1.70609
-1.70608
-1.70607
-1.70606
-1.70606
-1.70605
-1.70605
-1.70605
-1.70605
-1.70605
-1.70605
-1.70605
-1.70605
-1.70605
-1.70605
-1.70895
-1.70869
-1.70843
-1.7082
-1.708
-1.70782
-1.70767
-1.70754
-1.70741
-1.70729
-1.70715
-1.70699
-1.70684
-1.70669
-1.70655
-1.70643
-1.70634
-1.70626
-1.70621
-1.70616
-1.70613
-1.70611
-1.70609
-1.70608
-1.70607
-1.70606
-1.70606
-1.70606
-1.70605
-1.70605
-1.70605
-1.70605
-1.70605
-1.70605
-1.70605
-1.70888
-1.70863
-1.70839
-1.70817
-1.70797
-1.70779
-1.70763
-1.70749
-1.70736
-1.70723
-1.7071
-1.70696
-1.70682
-1.70669
-1.70656
-1.70645
-1.70636
-1.70629
-1.70623
-1.70618
-1.70615
-1.70612
-1.7061
-1.70609
-1.70608
-1.70607
-1.70606
-1.70606
-1.70606
-1.70605
-1.70605
-1.70605
-1.70605
-1.70605
-1.70605
-1.70886
-1.70861
-1.70838
-1.70816
-1.70796
-1.70779
-1.70763
-1.70749
-1.70735
-1.70722
-1.70709
-1.70695
-1.70682
-1.70669
-1.70657
-1.70646
-1.70637
-1.7063
-1.70624
-1.70619
-1.70615
-1.70613
-1.70611
-1.70609
-1.70608
-1.70607
-1.70606
-1.70606
-1.70606
-1.70605
-1.70605
-1.70605
-1.70605
-1.70605
-1.70605
-1.82064
-1.81991
-1.81776
-1.81636
-1.81686
-1.81785
-1.81887
-1.82001
-1.82091
-1.82112
-1.82064
-1.8194
-1.81704
-1.81468
-1.81425
-1.81479
-1.81529
-1.81566
-1.8159
-1.81606
-1.81617
-1.81624
-1.81629
-1.81633
-1.81635
-1.81637
-1.81638
-1.81639
-1.81639
-1.8164
-1.8164
-1.8164
-1.8164
-1.81641
-1.81641
-1.81641
-1.81641
-1.81641
-1.81641
-1.81641
-1.81641
-1.81641
-1.81641
-1.81641
-1.82002
-1.82092
-1.81928
-1.81777
-1.8178
-1.81833
-1.8191
-1.82037
-1.82202
-1.82261
-1.82063
-1.81869
-1.81728
-1.81562
-1.81518
-1.81532
-1.81557
-1.8158
-1.81597
-1.8161
-1.81619
-1.81626
-1.8163
-1.81633
-1.81635
-1.81637
-1.81638
-1.81639
-1.81639
-1.8164
-1.8164
-1.8164
-1.8164
-1.81641
-1.81641
-1.81641
-1.81641
-1.81641
-1.81641
-1.81641
-1.81641
-1.81641
-1.81641
-1.81641
-1.82062
-1.81966
-1.81917
-1.81893
-1.81894
-1.81897
-1.8188
-1.81878
-1.81909
-1.81939
-1.8196
-1.819
-1.8177
-1.81671
-1.81592
-1.81563
-1.81566
-1.81579
-1.81594
-1.81606
-1.81615
-1.81623
-1.81628
-1.81631
-1.81634
-1.81636
-1.81637
-1.81638
-1.81639
-1.8164
-1.8164
-1.8164
-1.8164
-1.8164
-1.81641
-1.81641
-1.81641
-1.81641
-1.81641
-1.81641
-1.81641
-1.81641
-1.81641
-1.81641
-1.81641
-1.82034
-1.81988
-1.81954
-1.81892
-1.81832
-1.81785
-1.81781
-1.81825
-1.81887
-1.81947
-1.81938
-1.81861
-1.81773
-1.81696
-1.81637
-1.81608
-1.81601
-1.81603
-1.81609
-1.81616
-1.81622
-1.81627
-1.81631
-1.81633
-1.81635
-1.81637
-1.81638
-1.81639
-1.81639
-1.8164
-1.8164
-1.8164
-1.8164
-1.81641
-1.81641
-1.81641
-1.81641
-1.81641
-1.81641
-1.81641
-1.81641
-1.81641
-1.81641
-1.81641
-1.81641
-1.81944
-1.819
-1.81865
-1.81838
-1.81819
-1.81809
-1.81809
-1.81818
-1.81823
-1.81818
-1.81788
-1.8174
-1.81692
-1.81654
-1.81632
-1.81623
-1.81621
-1.81622
-1.81625
-1.81628
-1.81631
-1.81634
-1.81636
-1.81637
-1.81638
-1.81639
-1.81639
-1.8164
-1.8164
-1.8164
-1.8164
-1.81641
-1.81641
-1.81641
-1.81641
-1.81641
-1.81641
-1.81641
-1.81641
-1.81641
-1.81641
-1.81641
-1.81641
-1.81641
-1.81946
-1.81908
-1.81869
-1.81837
-1.81815
-1.81808
-1.81812
-1.81822
-1.81825
-1.8181
-1.81777
-1.81738
-1.81701
-1.81672
-1.81652
-1.81641
-1.81635
-1.81633
-1.81634
-1.81634
-1.81636
-1.81637
-1.81638
-1.81639
-1.81639
-1.8164
-1.8164
-1.8164
-1.8164
-1.81641
-1.81641
-1.81641
-1.81641
-1.81641
-1.81641
-1.81641
-1.81641
-1.81641
-1.81641
-1.81641
-1.81641
-1.81641
-1.81641
-1.81641
-1.81956
-1.8192
-1.81888
-1.81859
-1.81835
-1.81815
-1.81802
-1.81794
-1.81789
-1.81782
-1.81771
-1.81751
-1.81726
-1.81701
-1.8168
-1.81663
-1.81652
-1.81646
-1.81642
-1.8164
-1.8164
-1.81639
-1.8164
-1.8164
-1.8164
-1.8164
-1.8164
-1.81641
-1.81641
-1.81641
-1.81641
-1.81641
-1.81641
-1.81641
-1.81641
-1.81641
-1.81641
-1.81641
-1.81641
-1.81641
-1.81641
-1.81641
-1.81641
-1.81641
-1.81641
-1.8195
-1.81918
-1.81888
-1.81861
-1.81837
-1.81819
-1.81806
-1.81798
-1.8179
-1.8178
-1.81766
-1.81746
-1.81725
-1.81704
-1.81686
-1.81671
-1.81661
-1.81654
-1.81649
-1.81646
-1.81644
-1.81643
-1.81642
-1.81642
-1.81641
-1.81641
-1.81641
-1.81641
-1.81641
-1.81641
-1.81641
-1.81641
-1.81641
-1.81641
-1.81641
-1.81641
-1.81641
-1.81641
-1.81641
-1.81641
-1.81641
-1.81641
-1.81641
-1.81641
-1.81641
-1.81933
-1.81905
-1.81879
-1.81855
-1.81833
-1.81815
-1.818
-1.81787
-1.81776
-1.81765
-1.81752
-1.81737
-1.81721
-1.81704
-1.81689
-1.81676
-1.81667
-1.81659
-1.81654
-1.8165
-1.81647
-1.81645
-1.81644
-1.81643
-1.81643
-1.81642
-1.81642
-1.81642
-1.81641
-1.81641
-1.81641
-1.81641
-1.81641
-1.81641
-1.81641
-1.81641
-1.81929
-1.81903
-1.81877
-1.81854
-1.81834
-1.81816
-1.81801
-1.81788
-1.81776
-1.81763
-1.81749
-1.81734
-1.81719
-1.81705
-1.81691
-1.8168
-1.8167
-1.81663
-1.81657
-1.81653
-1.81649
-1.81647
-1.81645
-1.81644
-1.81643
-1.81643
-1.81642
-1.81642
-1.81642
-1.81641
-1.81641
-1.81641
-1.81641
-1.81641
-1.81641
-1.81922
-1.81897
-1.81873
-1.81851
-1.81831
-1.81814
-1.81798
-1.81784
-1.81771
-1.81758
-1.81745
-1.81732
-1.81718
-1.81705
-1.81692
-1.81681
-1.81672
-1.81665
-1.81659
-1.81654
-1.81651
-1.81648
-1.81646
-1.81645
-1.81644
-1.81643
-1.81643
-1.81642
-1.81642
-1.81642
-1.81641
-1.81641
-1.81641
-1.81641
-1.81641
-1.8192
-1.81895
-1.81872
-1.8185
-1.81831
-1.81813
-1.81798
-1.81784
-1.8177
-1.81757
-1.81744
-1.8173
-1.81717
-1.81704
-1.81693
-1.81682
-1.81673
-1.81666
-1.8166
-1.81655
-1.81652
-1.81649
-1.81647
-1.81645
-1.81644
-1.81643
-1.81643
-1.81642
-1.81642
-1.81642
-1.81641
-1.81641
-1.81641
-1.81641
-1.81641
-1.93096
-1.92997
-1.9275
-1.92618
-1.92692
-1.92805
-1.92913
-1.93022
-1.93111
-1.93143
-1.93102
-1.92963
-1.92727
-1.92539
-1.92515
-1.92549
-1.92584
-1.92612
-1.92632
-1.92646
-1.92655
-1.92662
-1.92666
-1.9267
-1.92672
-1.92673
-1.92674
-1.92675
-1.92676
-1.92676
-1.92676
-1.92677
-1.92677
-1.92677
-1.92677
-1.92677
-1.92677
-1.92677
-1.92677
-1.92677
-1.92677
-1.92677
-1.92677
-1.92677
-1.93061
-1.93123
-1.92893
-1.92744
-1.92769
-1.92835
-1.9292
-1.93036
-1.93162
-1.93197
-1.93058
-1.92919
-1.92751
-1.92617
-1.92582
-1.92588
-1.92606
-1.92624
-1.92638
-1.92649
-1.92657
-1.92663
-1.92667
-1.9267
-1.92672
-1.92674
-1.92675
-1.92675
-1.92676
-1.92676
-1.92676
-1.92677
-1.92677
-1.92677
-1.92677
-1.92677
-1.92677
-1.92677
-1.92677
-1.92677
-1.92677
-1.92677
-1.92677
-1.92677
-1.93084
-1.92986
-1.92931
-1.92888
-1.92876
-1.92882
-1.92878
-1.92892
-1.92929
-1.92958
-1.92959
-1.92904
-1.92806
-1.92714
-1.92644
-1.92616
-1.92615
-1.92624
-1.92636
-1.92646
-1.92654
-1.9266
-1.92665
-1.92668
-1.92671
-1.92673
-1.92674
-1.92675
-1.92676
-1.92676
-1.92676
-1.92677
-1.92677
-1.92677
-1.92677
-1.92677
-1.92677
-1.92677
-1.92677
-1.92677
-1.92677
-1.92677
-1.92677
-1.92677
-1.92677
-1.93055
-1.93004
-1.92962
-1.92895
-1.92846
-1.9282
-1.92829
-1.92866
-1.92914
-1.92957
-1.92946
-1.92881
-1.92806
-1.92735
-1.92681
-1.92654
-1.92645
-1.92645
-1.9265
-1.92655
-1.9266
-1.92664
-1.92668
-1.9267
-1.92672
-1.92674
-1.92675
-1.92675
-1.92676
-1.92676
-1.92676
-1.92677
-1.92677
-1.92677
-1.92677
-1.92677
-1.92677
-1.92677
-1.92677
-1.92677
-1.92677
-1.92677
-1.92677
-1.92677
-1.92677
-1.92969
-1.92926
-1.92891
-1.92865
-1.92848
-1.92839
-1.92841
-1.92848
-1.92852
-1.92846
-1.92817
-1.92774
-1.9273
-1.92695
-1.92674
-1.92664
-1.92661
-1.92661
-1.92664
-1.92666
-1.92669
-1.92671
-1.92672
-1.92674
-1.92675
-1.92675
-1.92676
-1.92676
-1.92676
-1.92677
-1.92677
-1.92677
-1.92677
-1.92677
-1.92677
-1.92677
-1.92677
-1.92677
-1.92677
-1.92677
-1.92677
-1.92677
-1.92677
-1.92677
-1.92974
-1.92935
-1.92897
-1.92868
-1.92849
-1.92843
-1.92846
-1.92853
-1.92853
-1.92838
-1.92808
-1.92773
-1.92738
-1.9271
-1.92691
-1.92679
-1.92674
-1.92672
-1.92671
-1.92672
-1.92673
-1.92674
-1.92674
-1.92675
-1.92676
-1.92676
-1.92676
-1.92677
-1.92677
-1.92677
-1.92677
-1.92677
-1.92677
-1.92677
-1.92677
-1.92677
-1.92677
-1.92677
-1.92677
-1.92677
-1.92677
-1.92677
-1.92677
-1.92677
-1.92987
-1.92952
-1.92919
-1.92891
-1.92867
-1.92848
-1.92836
-1.92828
-1.92822
-1.92815
-1.92804
-1.92785
-1.92761
-1.92738
-1.92717
-1.92701
-1.9269
-1.92683
-1.9268
-1.92678
-1.92677
-1.92676
-1.92676
-1.92676
-1.92676
-1.92677
-1.92677
-1.92677
-1.92677
-1.92677
-1.92677
-1.92677
-1.92677
-1.92677
-1.92677
-1.92677
-1.92677
-1.92677
-1.92677
-1.92677
-1.92677
-1.92677
-1.92677
-1.92677
-1.92677
-1.92981
-1.9295
-1.9292
-1.92893
-1.9287
-1.92852
-1.9284
-1.92831
-1.92823
-1.92813
-1.92799
-1.9278
-1.9276
-1.9274
-1.92722
-1.92708
-1.92698
-1.92691
-1.92686
-1.92683
-1.92681
-1.92679
-1.92679
-1.92678
-1.92678
-1.92678
-1.92678
-1.92677
-1.92677
-1.92677
-1.92677
-1.92677
-1.92677
-1.92677
-1.92677
-1.92677
-1.92677
-1.92677
-1.92677
-1.92677
-1.92677
-1.92677
-1.92677
-1.92677
-1.92677
-1.92967
-1.92938
-1.92912
-1.92888
-1.92867
-1.92849
-1.92834
-1.92822
-1.92811
-1.92799
-1.92787
-1.92772
-1.92756
-1.9274
-1.92725
-1.92713
-1.92703
-1.92696
-1.9269
-1.92686
-1.92684
-1.92682
-1.9268
-1.9268
-1.92679
-1.92678
-1.92678
-1.92678
-1.92678
-1.92678
-1.92677
-1.92677
-1.92677
-1.92677
-1.92677
-1.92677
-1.92962
-1.92936
-1.92911
-1.92888
-1.92867
-1.9285
-1.92835
-1.92822
-1.9281
-1.92797
-1.92784
-1.92769
-1.92755
-1.9274
-1.92727
-1.92716
-1.92707
-1.92699
-1.92693
-1.92689
-1.92686
-1.92684
-1.92682
-1.92681
-1.9268
-1.92679
-1.92679
-1.92678
-1.92678
-1.92678
-1.92678
-1.92677
-1.92677
-1.92677
-1.92677
-1.92956
-1.92931
-1.92907
-1.92885
-1.92865
-1.92848
-1.92832
-1.92818
-1.92805
-1.92793
-1.9278
-1.92767
-1.92753
-1.9274
-1.92728
-1.92718
-1.92709
-1.92701
-1.92695
-1.92691
-1.92687
-1.92685
-1.92683
-1.92681
-1.9268
-1.9268
-1.92679
-1.92679
-1.92678
-1.92678
-1.92678
-1.92678
-1.92677
-1.92677
-1.92677
-1.92954
-1.92929
-1.92906
-1.92884
-1.92865
-1.92847
-1.92832
-1.92818
-1.92805
-1.92792
-1.92779
-1.92765
-1.92752
-1.9274
-1.92728
-1.92718
-1.92709
-1.92702
-1.92696
-1.92692
-1.92688
-1.92685
-1.92683
-1.92682
-1.92681
-1.9268
-1.92679
-1.92679
-1.92678
-1.92678
-1.92678
-1.92678
-1.92677
-1.92677
-1.92677
-2.04114
-2.03992
-2.03716
-2.03599
-2.03702
-2.03826
-2.03938
-2.04047
-2.0414
-2.04175
-2.04117
-2.03965
-2.03748
-2.03615
-2.03596
-2.03614
-2.03638
-2.03659
-2.03675
-2.03686
-2.03694
-2.037
-2.03704
-2.03706
-2.03708
-2.0371
-2.03711
-2.03712
-2.03712
-2.03712
-2.03713
-2.03713
-2.03713
-2.03713
-2.03713
-2.03713
-2.03713
-2.03713
-2.03713
-2.03713
-2.03713
-2.03713
-2.03713
-2.03713
-2.04115
-2.04131
-2.03868
-2.03733
-2.03772
-2.03843
-2.03925
-2.04026
-2.04127
-2.04152
-2.04056
-2.03924
-2.03772
-2.03673
-2.03642
-2.03643
-2.03655
-2.03668
-2.0368
-2.03689
-2.03696
-2.03701
-2.03704
-2.03707
-2.03709
-2.0371
-2.03711
-2.03712
-2.03712
-2.03713
-2.03713
-2.03713
-2.03713
-2.03713
-2.03713
-2.03713
-2.03713
-2.03713
-2.03713
-2.03713
-2.03713
-2.03713
-2.03713
-2.03713
-2.04102
-2.04008
-2.03946
-2.03882
-2.03861
-2.03872
-2.03881
-2.03907
-2.03945
-2.0397
-2.03966
-2.03919
-2.03838
-2.03755
-2.03695
-2.03669
-2.03664
-2.0367
-2.03678
-2.03686
-2.03693
-2.03698
-2.03702
-2.03705
-2.03708
-2.03709
-2.0371
-2.03711
-2.03712
-2.03712
-2.03713
-2.03713
-2.03713
-2.03713
-2.03713
-2.03713
-2.03713
-2.03713
-2.03713
-2.03713
-2.03713
-2.03713
-2.03713
-2.03713
-2.03713
-2.04082
-2.04029
-2.03978
-2.03909
-2.03868
-2.03855
-2.03868
-2.03899
-2.03937
-2.03968
-2.03955
-2.03901
-2.03836
-2.03772
-2.03724
-2.03698
-2.03688
-2.03687
-2.0369
-2.03694
-2.03698
-2.03702
-2.03705
-2.03707
-2.03709
-2.0371
-2.03711
-2.03712
-2.03712
-2.03713
-2.03713
-2.03713
-2.03713
-2.03713
-2.03713
-2.03713
-2.03713
-2.03713
-2.03713
-2.03713
-2.03713
-2.03713
-2.03713
-2.03713
-2.03713
-2.03995
-2.03951
-2.03915
-2.0389
-2.03875
-2.03869
-2.03871
-2.03878
-2.03881
-2.03873
-2.03847
-2.03808
-2.03768
-2.03736
-2.03715
-2.03705
-2.03701
-2.03701
-2.03702
-2.03704
-2.03706
-2.03708
-2.03709
-2.0371
-2.03711
-2.03712
-2.03712
-2.03713
-2.03713
-2.03713
-2.03713
-2.03713
-2.03713
-2.03713
-2.03713
-2.03713
-2.03713
-2.03713
-2.03713
-2.03713
-2.03713
-2.03713
-2.03713
-2.03713
-2.04001
-2.03962
-2.03925
-2.03898
-2.03882
-2.03876
-2.03878
-2.03882
-2.03881
-2.03866
-2.03839
-2.03806
-2.03774
-2.03748
-2.0373
-2.03718
-2.03712
-2.0371
-2.03709
-2.03709
-2.0371
-2.0371
-2.03711
-2.03712
-2.03712
-2.03712
-2.03713
-2.03713
-2.03713
-2.03713
-2.03713
-2.03713
-2.03713
-2.03713
-2.03713
-2.03713
-2.03713
-2.03713
-2.03713
-2.03713
-2.03713
-2.03713
-2.03713
-2.03713
-2.04018
-2.03982
-2.0395
-2.03922
-2.03899
-2.03881
-2.03869
-2.03861
-2.03855
-2.03848
-2.03836
-2.03818
-2.03796
-2.03774
-2.03754
-2.03739
-2.03728
-2.03721
-2.03717