/*--------------------------------*- C++ -*----------------------------------*\
| =========                 |                                                 |
| \\      /  F ield         | OpenFOAM: The Open Source CFD Toolbox           |
|  \\    /   O peration     | Version:  2.3.1                                 |
|   \\  /    A nd           | Web:      www.OpenFOAM.org                      |
|    \\/     M anipulation  |                                                 |
\*---------------------------------------------------------------------------*/
FoamFile
{
    version     2.0;
    format      ascii;
    class       surfaceScalarField;
    location    "5";
    object      phi;
}
// * * * * * * * * * * * * * * * * * * * * * * * * * * * * * * * * * * * * * //

dimensions      [0 3 -1 0 0 0 0];

internalField   nonuniform List<scalar> 
109568
(
4.07187e-05
-3.64276e-06
5.81237e-06
3.89538e-05
-2.57831e-06
4.34326e-06
3.93453e-05
-2.00459e-06
1.61305e-06
4.28517e-05
7.28759e-07
-4.23511e-06
4.41503e-05
6.23617e-06
-7.53475e-06
4.38962e-05
8.48538e-06
-8.23127e-06
5.23282e-05
1.42688e-06
-9.85888e-06
6.48776e-05
-3.19208e-06
-9.35737e-06
6.01373e-05
1.19176e-05
-7.17734e-06
4.61981e-05
1.9823e-05
-5.88379e-06
4.53759e-05
5.53584e-06
-4.7136e-06
5.18598e-05
-3.72236e-06
-2.7615e-06
4.71932e-05
7.25532e-07
3.94098e-06
2.9416e-05
8.32101e-06
9.45624e-06
1.4295e-05
7.50413e-06
7.61684e-06
7.0719e-06
3.69788e-06
3.52524e-06
3.93041e-06
1.67328e-06
1.46821e-06
2.40532e-06
8.24355e-07
7.00738e-07
1.58311e-06
4.41386e-07
3.80822e-07
1.10072e-06
2.54195e-07
2.28196e-07
7.9821e-07
1.55449e-07
1.47061e-07
5.98365e-07
9.97288e-08
1.00116e-07
4.60787e-07
6.64091e-08
7.11685e-08
3.62865e-07
4.55103e-08
5.24127e-08
2.91195e-07
3.18919e-08
3.97777e-08
2.37451e-07
2.27504e-08
3.09939e-08
1.96254e-07
1.64793e-08
2.47176e-08
1.64026e-07
1.21079e-08
2.01203e-08
1.38325e-07
9.02145e-09
1.66792e-08
1.17454e-07
6.81832e-09
1.40525e-08
1.00216e-07
5.22727e-09
1.20109e-08
8.57536e-08
4.06464e-09
1.03977e-08
7.34438e-08
3.20553e-09
9.10421e-09
6.28296e-08
2.56139e-09
8.05282e-09
5.35713e-08
2.06978e-09
7.18852e-09
4.54084e-08
1.68678e-09
6.47617e-09
3.81329e-08
1.38218e-09
5.89331e-09
3.15682e-08
1.14211e-09
5.42257e-09
2.55626e-08
9.5863e-10
5.04695e-09
1.99805e-08
8.25746e-10
4.75642e-09
1.47113e-08
7.22428e-10
4.54671e-09
9.62484e-09
6.5392e-10
4.43255e-09
4.73287e-09
4.91268e-10
4.4007e-09
3.75375e-10
4.3575e-09
1.42624e-05
2.17582e-06
-9.51922e-06
1.73686e-05
5.62985e-06
-1.13143e-05
2.19478e-05
9.5211e-06
-1.61049e-05
2.81207e-05
1.30417e-05
-1.84858e-05
3.5041e-05
1.48342e-05
-1.55183e-05
4.19146e-05
1.22473e-05
-1.06356e-05
4.69224e-05
5.68593e-06
-9.26689e-06
5.03906e-05
2.40506e-06
-9.06529e-06
5.93615e-05
5.9512e-06
-3.00451e-06
6.9717e-05
6.30098e-06
3.16649e-06
6.09894e-05
5.74524e-06
8.51817e-06
3.50367e-05
1.04295e-05
1.18009e-05
1.52234e-05
1.22428e-05
8.29603e-06
7.98631e-06
1.03902e-05
5.16786e-06
5.56893e-06
6.64396e-06
3.27755e-06
3.94399e-06
3.59445e-06
1.72837e-06
2.73805e-06
1.95322e-06
9.26003e-07
1.91894e-06
1.11427e-06
5.29189e-07
1.37009e-06
6.68055e-07
3.22187e-07
9.99469e-07
4.18274e-07
2.0654e-07
7.46108e-07
2.70184e-07
1.38626e-07
5.69571e-07
1.7935e-07
9.69158e-08
4.43895e-07
1.21853e-07
7.02319e-08
3.5249e-07
8.43912e-08
5.2524e-08
2.8462e-07
5.93797e-08
4.03828e-08
2.3321e-07
4.23436e-08
3.18164e-08
1.93509e-07
3.0556e-08
2.56247e-08
1.62266e-07
2.22978e-08
2.10525e-08
1.3723e-07
1.64513e-08
1.7607e-08
1.16812e-07
1.22745e-08
1.4961e-08
9.98875e-08
9.2657e-09
1.28864e-08
8.56429e-08
7.08339e-09
1.12259e-08
7.34834e-08
5.49023e-09
9.87477e-09
6.29697e-08
4.31524e-09
8.75986e-09
5.37731e-08
3.43576e-09
7.83059e-09
4.56416e-08
2.76437e-09
7.05395e-09
3.8376e-08
2.24096e-09
6.40678e-09
3.18058e-08
1.83212e-09
5.88023e-09
2.57797e-08
1.51814e-09
5.46662e-09
2.0155e-08
1.29142e-09
5.15903e-09
1.48084e-08
1.10694e-09
4.96206e-09
9.55593e-09
1.01165e-09
4.89472e-09
4.56158e-09
7.68102e-10
4.71751e-09
8.22162e-10
4.1148e-09
1.21111e-05
5.64196e-06
-1.03862e-05
1.65637e-05
7.67439e-06
-9.95111e-06
2.17343e-05
9.30683e-06
-8.84765e-06
2.79055e-05
1.07768e-05
-7.42694e-06
3.47099e-05
1.11884e-05
-4.95112e-06
4.07651e-05
9.73486e-06
-9.55851e-07
4.41054e-05
6.3216e-06
2.58543e-06
4.37418e-05
2.48902e-06
3.56048e-06
3.98964e-05
1.30674e-06
4.94371e-06
3.29641e-05
3.17859e-06
9.70496e-06
2.2482e-05
5.6643e-06
1.11187e-05
1.17339e-05
9.00733e-06
7.48608e-06
6.11277e-06
1.05431e-05
5.50751e-06
4.36794e-06
9.63843e-06
4.34919e-06
4.08402e-06
7.54044e-06
3.13369e-06
3.64091e-06
5.07147e-06
2.0156e-06
2.85995e-06
3.18385e-06
1.19156e-06
2.12503e-06
1.98271e-06
7.05421e-07
1.56258e-06
1.24596e-06
4.30762e-07
1.15805e-06
7.9774e-07
2.74845e-07
8.7165e-07
5.2177e-07
1.82908e-07
6.67245e-07
3.48153e-07
1.26436e-07
5.19598e-07
2.36551e-07
9.04461e-08
4.11417e-07
1.6329e-07
6.6743e-08
3.30895e-07
1.14265e-07
5.0649e-08
2.69972e-07
8.08915e-08
3.94108e-08
2.23109e-07
5.7841e-08
3.13654e-08
1.8645e-07
4.17305e-08
2.54852e-08
1.57281e-07
3.03608e-08
2.11058e-08
1.3368e-07
2.22704e-08
1.77819e-08
1.14272e-07
1.64736e-08
1.52088e-08
9.80671e-08
1.22985e-08
1.31721e-08
8.43408e-08
9.28081e-09
1.15289e-08
7.25541e-08
7.09202e-09
1.01849e-08
6.23062e-08
5.49398e-09
9.06911e-09
5.32972e-08
4.31446e-09
8.1303e-09
4.52982e-08
3.42957e-09
7.33385e-09
3.81301e-08
2.75289e-09
6.6561e-09
3.16376e-08
2.23033e-09
6.09434e-09
2.56769e-08
1.82739e-09
5.65143e-09
2.01029e-08
1.53648e-09
5.32896e-09
1.47973e-08
1.29401e-09
5.1185e-09
9.55157e-09
1.26299e-09
4.99439e-09
4.68732e-09
1.07926e-09
4.55308e-09
1.79778e-09
3.71171e-09
1.47321e-05
-2.93738e-06
1.77241e-05
6.24007e-06
-1.55762e-06
1.9967e-05
6.89784e-06
1.66066e-07
2.1396e-05
7.1999e-06
2.14791e-06
2.1095e-05
6.86014e-06
4.62924e-06
1.85912e-05
5.66319e-06
6.57554e-06
1.42445e-05
4.11201e-06
6.5563e-06
9.02448e-06
3.05374e-06
4.65527e-06
4.37329e-06
2.91505e-06
3.04288e-06
8.99931e-07
3.91884e-06
2.73311e-06
-9.78742e-07
5.08756e-06
2.45541e-06
-1.04082e-06
6.45887e-06
2.61054e-06
-1.20698e-07
7.09616e-06
2.52679e-06
9.41971e-07
6.47826e-06
2.0975e-06
1.68402e-06
5.21692e-06
1.58148e-06
1.87219e-06
3.79079e-06
1.09251e-06
1.709e-06
2.62195e-06
7.25101e-07
1.43175e-06
1.77825e-06
4.81708e-07
1.15075e-06
1.20286e-06
3.241e-07
9.09656e-07
8.17439e-07
2.2139e-07
7.17838e-07
5.58727e-07
1.54861e-07
5.69563e-07
3.85336e-07
1.11092e-07
4.5608e-07
2.68303e-07
8.17314e-08
3.69215e-07
1.88533e-07
6.16223e-08
3.02324e-07
1.33602e-07
4.75539e-08
2.50321e-07
9.53994e-08
3.74951e-08
2.09417e-07
6.85895e-08
3.01548e-08
1.7681e-07
4.96274e-08
2.47102e-08
1.50436e-07
3.61244e-08
2.06103e-08
1.28786e-07
2.64516e-08
1.74686e-08
1.10756e-07
1.94905e-08
1.50131e-08
9.55338e-08
1.44671e-08
1.30541e-08
8.25106e-08
1.08366e-08
1.14674e-08
7.12264e-08
8.20789e-09
1.01683e-08
6.13357e-08
6.29631e-09
9.08844e-09
5.25787e-08
4.89514e-09
8.1763e-09
4.47574e-08
3.85557e-09
7.39524e-09
3.77177e-08
3.0732e-09
6.71939e-09
3.13218e-08
2.48007e-09
6.14618e-09
2.54294e-08
2.02974e-09
5.69003e-09
1.98893e-08
1.71225e-09
5.36436e-09
1.45893e-08
1.45104e-09
5.14297e-09
9.31059e-09
1.54697e-09
4.99473e-09
4.53381e-09
1.45609e-09
4.39995e-09
2.98432e-09
3.34727e-09
3.64605e-06
3.59669e-06
1.87201e-06
3.73517e-06
4.12845e-06
2.68027e-06
3.07992e-06
4.53742e-06
3.31773e-06
1.80648e-06
4.61491e-06
3.51868e-06
4.66544e-07
4.01637e-06
2.98676e-06
-6.62512e-07
3.09342e-06
2.14764e-06
-1.48018e-06
2.24735e-06
1.62406e-06
-2.06229e-06
2.049e-06
1.44817e-06
-2.26447e-06
2.59416e-06
1.52687e-06
-2.19078e-06
3.54887e-06
1.46501e-06
-1.58799e-06
4.45236e-06
1.40371e-06
-5.80487e-07
4.71753e-06
1.37113e-06
3.05375e-07
4.40211e-06
1.19029e-06
8.7508e-07
3.70841e-06
9.38797e-07
1.09302e-06
2.88119e-06
6.91662e-07
1.08505e-06
2.136e-06
4.93919e-07
9.73408e-07
1.5411e-06
3.48799e-07
8.3082e-07
1.09793e-06
2.47521e-07
6.92367e-07
7.78109e-07
1.77784e-07
5.71051e-07
5.50548e-07
1.29495e-07
4.70113e-07
3.90219e-07
9.60549e-08
3.88227e-07
2.77576e-07
7.26125e-08
3.22518e-07
1.98279e-07
5.59634e-08
2.69891e-07
1.42261e-07
4.39681e-08
2.27599e-07
1.02514e-07
3.5178e-08
1.93373e-07
7.41869e-08
2.86285e-08
1.65402e-07
5.39094e-08
2.36888e-08
1.42276e-07
3.93333e-08
1.9917e-08
1.22922e-07
2.88168e-08
1.69888e-08
1.06529e-07
2.12102e-08
1.46728e-08
9.24821e-08
1.57035e-08
1.28109e-08
8.03037e-08
1.17172e-08
1.12978e-08
6.96249e-08
8.8292e-09
1.00575e-08
6.01656e-08
6.73096e-09
9.02463e-09
5.17149e-08
5.19687e-09
8.14898e-09
4.41121e-08
4.06447e-09
7.39393e-09
3.7233e-08
3.22097e-09
6.73129e-09
3.09652e-08
2.5902e-09
6.15769e-09
2.51887e-08
2.1146e-09
5.6916e-09
1.98037e-08
1.76403e-09
5.33321e-09
1.47446e-08
1.48435e-09
5.02579e-09
1.00412e-08
1.45615e-09
4.79419e-09
6.1877e-09
1.31828e-09
3.99133e-09
2.18862e-09
3.59666e-09
9.65662e-10
1.00603e-09
1.0235e-09
1.25343e-10
1.31275e-10
1.34935e-10
-4.79688e-06
2.20924e-06
7.46976e-07
-4.22134e-06
2.59508e-06
9.57828e-07
-3.61518e-06
2.81697e-06
1.11428e-06
-3.01043e-06
2.82541e-06
1.18475e-06
-2.58133e-06
2.52066e-06
1.06661e-06
-2.47534e-06
2.12782e-06
8.59616e-07
-2.70599e-06
1.84272e-06
6.35279e-07
-3.01511e-06
1.83816e-06
5.19958e-07
-3.07455e-06
2.12416e-06
5.29437e-07
-2.67205e-06
2.55019e-06
5.96164e-07
-1.90477e-06
3.00005e-06
6.85041e-07
-1.05692e-06
3.17679e-06
6.92877e-07
-3.26357e-07
3.04221e-06
6.29344e-07
1.90817e-07
2.65857e-06
5.32664e-07
4.76903e-07
2.16872e-06
4.26384e-07
5.92325e-07
1.69101e-06
3.29563e-07
6.04157e-07
1.27974e-06
2.49522e-07
5.63556e-07
9.50976e-07
1.87554e-07
5.02086e-07
6.98306e-07
1.41273e-07
4.3659e-07
5.08805e-07
1.07239e-07
3.753e-07
3.69257e-07
8.22519e-08
3.21367e-07
2.67585e-07
6.39244e-08
2.75258e-07
1.93963e-07
5.04244e-08
2.36365e-07
1.40764e-07
4.03895e-08
2.03716e-07
1.02326e-07
3.28369e-08
1.76289e-07
7.45335e-08
2.70809e-08
1.53131e-07
5.44091e-08
2.26579e-08
1.3343e-07
3.98117e-08
1.92223e-08
1.16529e-07
2.92077e-08
1.65101e-08
1.01904e-07
2.14995e-08
1.43358e-08
8.9135e-08
1.58987e-08
1.25743e-08
7.78795e-08
1.18333e-08
1.11394e-08
6.78642e-08
8.883e-09
9.96153e-09
5.88793e-08
6.7395e-09
8.97635e-09
5.0767e-08
5.17517e-09
8.13395e-09
4.34075e-08
4.02447e-09
7.39956e-09
3.67054e-08
3.17397e-09
6.74908e-09
3.05667e-08
2.54551e-09
6.18339e-09
2.48831e-08
2.07682e-09
5.72132e-09
1.95691e-08
1.72494e-09
5.35311e-09
1.45694e-08
1.45946e-09
5.0246e-09
9.95429e-09
1.29025e-09
4.78104e-09
6.13947e-09
1.0883e-09
4.0448e-09
1.08942e-09
3.89564e-09
9.74403e-10
9.80586e-10
9.87051e-10
1.32818e-10
1.33746e-10
1.3443e-10
-6.64472e-06
9.94561e-07
-2.23851e-07
-5.81508e-06
1.40494e-06
-2.53466e-08
-5.03548e-06
1.67824e-06
1.37247e-07
-4.32778e-06
1.84223e-06
2.67046e-07
-3.68778e-06
1.8456e-06
3.39815e-07
-3.18994e-06
1.67999e-06
3.42818e-07
-2.85493e-06
1.46904e-06
3.23772e-07
-2.63938e-06
1.31392e-06
3.13245e-07
-2.46666e-06
1.33454e-06
3.30908e-07
-2.26161e-06
1.55491e-06
3.642e-07
-1.96866e-06
1.87064e-06
3.86607e-07
-1.52264e-06
2.14563e-06
4.084e-07
-1.00277e-06
2.24791e-06
4.09005e-07
-5.15059e-07
2.1714e-06
3.83097e-07
-1.30916e-07
1.9367e-06
3.37735e-07
1.24473e-07
1.63058e-06
2.82748e-07
2.69815e-07
1.31645e-06
2.29225e-07
3.36854e-07
1.03058e-06
1.82128e-07
3.54829e-07
7.89534e-07
1.43466e-07
3.44784e-07
5.95626e-07
1.12725e-07
3.20561e-07
4.44221e-07
8.88067e-08
2.90678e-07
3.28741e-07
7.03987e-08
2.59915e-07
2.4207e-07
5.62774e-08
2.30734e-07
1.77702e-07
4.54413e-08
2.04145e-07
1.3023e-07
3.71237e-08
1.80401e-07
9.53804e-08
3.06904e-08
1.59401e-07
6.98642e-08
2.56689e-08
1.40882e-07
5.12004e-08
2.17281e-08
1.24534e-07
3.75554e-08
1.86045e-08
1.10064e-07
2.75844e-08
1.60931e-08
9.72075e-08
2.03035e-08
1.40523e-08
8.5726e-08
1.4993e-08
1.23872e-08
7.54058e-08
1.11254e-08
1.1028e-08
6.60663e-08
8.31276e-09
9.90978e-09
5.75668e-08
6.271e-09
8.96799e-09
4.98026e-08
4.78655e-09
8.15279e-09
4.2696e-08
3.69983e-09
7.4313e-09
3.61796e-08
2.90476e-09
6.78561e-09
3.01762e-08
2.32451e-09
6.2244e-09
2.45935e-08
1.89674e-09
5.76279e-09
1.93599e-08
1.567e-09
5.39156e-09
1.44193e-08
1.33736e-09
5.06262e-09
9.85349e-09
1.02775e-09
4.82833e-09
5.97147e-09
8.60169e-10
4.11015e-09
-2.07661e-11
4.01382e-09
9.00485e-10
8.97892e-10
8.94616e-10
1.26044e-10
1.25074e-10
1.2372e-10
-6.60642e-06
7.40868e-07
-4.83053e-07
-5.85122e-06
1.0043e-06
-3.54553e-07
-5.11213e-06
1.17692e-06
-2.37769e-07
-4.41112e-06
1.27318e-06
-1.31973e-07
-3.79586e-06
1.2847e-06
-5.4353e-08
-3.32318e-06
1.22005e-06
-1.27357e-08
-3.00006e-06
1.13613e-06
9.79416e-09
-2.7938e-06
1.08144e-06
2.62123e-08
-2.62056e-06
1.10462e-06
5.6677e-08
-2.37614e-06
1.207e-06
1.03492e-07
-2.01904e-06
1.35662e-06
1.5692e-07
-1.5766e-06
1.49968e-06
2.03506e-07
-1.11757e-06
1.56085e-06
2.28035e-07
-6.9764e-07
1.5206e-06
2.30873e-07
-3.63085e-07
1.386e-06
2.16145e-07
-1.20542e-07
1.19667e-06
1.91367e-07
4.17564e-08
9.90966e-07
1.63183e-07
1.4135e-07
7.94981e-07
1.36003e-07
1.95574e-07
6.23523e-07
1.11788e-07
2.19672e-07
4.80243e-07
9.12845e-08
2.24758e-07
3.64722e-07
7.44136e-08
2.18635e-07
2.74068e-07
6.0796e-08
2.06415e-07
2.04378e-07
4.99124e-08
1.9128e-07
1.51576e-07
4.12608e-08
1.75146e-07
1.11978e-07
3.4386e-08
1.59126e-07
8.25015e-08
2.88984e-08
1.43816e-07
6.06747e-08
2.44998e-08
1.29476e-07
4.45712e-08
2.09692e-08
1.16194e-07
3.27241e-08
1.81135e-08
1.03972e-07
2.40274e-08
1.5779e-08
9.27632e-08
1.76541e-08
1.38582e-08
8.24885e-08
1.299e-08
1.22776e-08
7.30508e-08
9.58237e-09
1.09807e-08
6.43548e-08
7.10028e-09
9.90848e-09
5.63211e-08
5.30239e-09
9.00235e-09
4.88915e-08
4.00262e-09
8.21354e-09
4.20277e-08
7.50133e-09
3.56894e-08
6.85286e-09
2.98142e-08
6.28928e-09
2.43256e-08
5.82255e-09
1.91582e-08
5.45094e-09
1.42388e-08
5.14641e-09
9.64716e-09
4.92638e-09
5.64745e-09
4.16759e-09
3.91454e-09
7.82351e-10
7.57591e-10
7.17963e-10
1.09236e-10
1.037e-10
9.5973e-11
-6.30727e-06
4.65733e-07
-4.13646e-07
-5.62287e-06
6.43484e-07
-3.23584e-07
-4.96972e-06
7.62619e-07
-2.38858e-07
-4.36236e-06
8.27362e-07
-1.61532e-07
-3.81605e-06
8.35526e-07
-9.71458e-08
-3.3499e-06
8.01211e-07
-4.73154e-08
-2.96463e-06
7.58358e-07
-7.49055e-09
-2.64589e-06
7.36624e-07
2.60696e-08
-2.36618e-06
7.67499e-07
5.74159e-08
-2.09304e-06
8.47929e-07
8.59254e-08
-1.79778e-06
9.49836e-07
1.1153e-07
-1.4664e-06
1.03435e-06
1.33953e-07
-1.11928e-06
1.06535e-06
1.48387e-07
-7.86364e-07
1.03445e-06
1.53229e-07
-5.01097e-07
9.52246e-07
1.48484e-07
-2.76734e-07
8.35474e-07
1.36832e-07
-1.117e-07
7.04354e-07
1.21578e-07
2.76314e-09
5.75205e-07
1.05313e-07
7.8579e-08
4.57871e-07
8.98362e-08
1.24614e-07
3.58351e-07
7.5857e-08
1.49823e-07
2.75754e-07
6.37585e-08
1.60815e-07
2.09557e-07
5.35183e-08
1.62504e-07
1.57698e-07
4.49907e-08
1.58324e-07
1.17791e-07
3.79647e-08
1.50627e-07
8.74757e-08
3.22003e-08
1.40989e-07
6.46727e-08
2.74669e-08
1.3044e-07
4.76456e-08
2.35779e-08
1.19629e-07
3.49999e-08
2.03824e-08
1.08955e-07
2.56491e-08
1.77481e-08
9.86594e-08
1.87602e-08
1.55632e-08
8.88707e-08
1.36997e-08
1.37431e-08
7.96418e-08
9.9903e-09
1.22286e-08
7.09753e-08
7.2764e-09
1.09724e-08
6.28486e-08
5.29945e-09
9.92752e-09
5.52297e-08
3.87145e-09
9.04988e-09
8.28496e-09
-6.24168e-06
3.07224e-07
-4.99935e-07
-5.58678e-06
4.0824e-07
-4.19652e-07
-4.95872e-06
4.76745e-07
-3.42189e-07
-4.37564e-06
5.14656e-07
-2.70371e-07
-3.85529e-06
5.23346e-07
-2.08169e-07
-3.40952e-06
5.11021e-07
-1.55588e-07
-3.03459e-06
4.93399e-07
-1.09965e-07
-2.71458e-06
4.8502e-07
-6.84114e-08
-2.41801e-06
4.98574e-07
-2.7639e-08
-2.116e-06
5.33728e-07
1.21884e-08
-1.79664e-06
5.8204e-07
4.84341e-08
-1.46633e-06
6.26639e-07
7.74036e-08
-1.14389e-06
6.4682e-07
9.60808e-08
-8.47174e-07
6.32724e-07
1.05016e-07
-5.89205e-07
5.87862e-07
1.06415e-07
-3.77545e-07
5.21733e-07
1.0208e-07
-2.12676e-07
4.45346e-07
9.41386e-08
-9.00809e-08
3.68157e-07
8.4453e-08
-3.11153e-09
2.96527e-07
7.43747e-08
5.69317e-08
2.3381e-07
6.4498e-08
9.52865e-08
1.81716e-07
5.56838e-08
1.17931e-07
1.39085e-07
4.78277e-08
1.29395e-07
1.05217e-07
4.10177e-08
1.33118e-07
7.88623e-08
3.52054e-08
1.31645e-07
5.8662e-08
3.02867e-08
1.26815e-07
4.33606e-08
2.61416e-08
1.19925e-07
3.18725e-08
2.26632e-08
1.11866e-07
2.33059e-08
1.97534e-08
1.03242e-07
1.69533e-08
1.73194e-08
9.44609e-08
1.22664e-08
1.5275e-08
8.57873e-08
8.82369e-09
1.35496e-08
7.738e-08
6.30287e-09
1.20947e-08
6.93223e-08
4.46193e-09
1.08721e-08
6.16475e-08
3.12421e-09
9.85006e-09
2.16179e-09
8.99599e-09
-6.11354e-06
1.10241e-07
-4.33011e-07
-5.49423e-06
1.60159e-07
-3.7123e-07
-4.90152e-06
1.94106e-07
-3.10068e-07
-4.34786e-06
2.12867e-07
-2.51872e-07
-3.8438e-06
2.17904e-07
-1.98616e-07
-3.3957e-06
2.14031e-07
-1.51111e-07
-3.00201e-06
2.08884e-07
-1.09173e-07
-2.65441e-06
2.09441e-07
-7.20193e-08
-2.33838e-06
2.2138e-07
-3.88395e-08
-2.03864e-06
2.4327e-07
-9.281e-09
-1.74253e-06
2.69049e-07
1.68764e-08
-1.44418e-06
2.89016e-07
3.92833e-08
-1.15181e-06
2.97658e-07
5.67855e-08
-8.79608e-07
2.92468e-07
6.80567e-08
-6.38932e-07
2.73647e-07
7.35383e-08
-4.36246e-07
2.44829e-07
7.42184e-08
-2.72998e-07
2.10675e-07
7.14232e-08
-1.46786e-07
1.75467e-07
6.64779e-08
-5.288e-08
1.42214e-07
6.04071e-08
1.43254e-08
1.12648e-07
5.39565e-08
6.03068e-08
8.80701e-08
4.76644e-08
9.00619e-08
6.75398e-08
4.179e-08
1.07651e-07
5.11542e-08
3.64737e-08
1.16424e-07
3.8324e-08
3.17658e-08
1.18989e-07
2.84398e-08
2.76566e-08
1.17317e-07
2.09247e-08
2.41077e-08
1.12853e-07
1.52679e-08
2.10688e-08
1.06633e-07
1.1043e-08
1.84831e-08
9.93884e-08
7.90907e-09
1.62887e-08
9.16305e-08
5.60039e-09
1.44238e-08
8.37088e-08
3.91091e-09
1.28345e-08
7.58505e-08
2.68023e-09
1.1481e-08
6.81948e-08
1.78716e-09
1.03304e-08
6.08163e-08
1.14233e-09
9.36036e-09
6.82219e-10
8.54527e-09
-6.06367e-06
-5.08915e-07
-5.45524e-06
-4.48267e-07
-4.87312e-06
-3.88012e-07
-4.33022e-06
-3.30032e-07
-3.83643e-06
-2.75888e-07
-3.39619e-06
-2.26211e-07
-3.00656e-06
-1.80746e-07
-2.65824e-06
-1.38881e-07
-2.33676e-06
-1.00099e-07
-2.02914e-06
-6.43508e-08
-1.72782e-06
-3.22664e-08
-1.43372e-06
-5.08782e-09
-1.15199e-06
1.5924e-08
-8.90957e-07
3.14385e-08
-6.58974e-07
4.16641e-08
-4.61416e-07
4.7271e-08
-2.99933e-07
4.91925e-08
-1.72937e-07
4.84713e-08
-7.67211e-08
4.59974e-08
-6.52827e-09
4.24554e-08
4.28721e-08
3.86698e-08
7.58161e-08
3.45957e-08
9.62359e-08
3.07345e-08
1.07409e-07
2.71513e-08
1.11941e-07
2.39071e-08
1.11841e-07
2.1025e-08
1.08609e-07
1.84997e-08
1.03342e-07
1.63101e-08
9.68269e-08
1.44243e-08
8.96216e-08
1.28057e-08
8.21144e-08
1.14181e-08
7.45657e-08
1.0229e-08
6.71422e-08
9.21065e-09
5.99398e-08
8.34467e-09
7.61084e-09
4.30496e-05
-6.88998e-07
7.92043e-06
4.0243e-05
-7.04469e-07
7.85436e-06
4.03241e-05
3.48445e-07
1.18342e-06
4.33709e-05
5.40467e-06
-1.26866e-05
4.55169e-05
9.35336e-06
-1.90341e-05
4.78847e-05
7.93885e-06
-1.85379e-05
5.21189e-05
3.94687e-06
-1.804e-05
5.39187e-05
5.50996e-06
-1.66671e-05
4.88673e-05
1.06114e-05
-1.27373e-05
4.33917e-05
6.17569e-06
-6.58389e-06
4.45717e-05
-2.95013e-06
-2.94343e-06
4.71579e-05
-5.39898e-06
5.12921e-08
3.94037e-05
1.53122e-06
1.0164e-05
2.35507e-05
8.39125e-06
1.6918e-05
1.20167e-05
6.839e-06
1.23118e-05
6.43824e-06
3.37448e-06
5.72924e-06
3.74469e-06
1.58309e-06
2.57866e-06
2.34392e-06
7.9754e-07
1.30397e-06
1.56095e-06
4.32298e-07
7.31493e-07
1.09276e-06
2.50607e-07
4.45783e-07
7.96041e-07
1.53766e-07
2.90012e-07
5.9872e-07
9.87473e-08
1.9869e-07
4.6225e-07
6.57009e-08
1.41937e-07
3.64781e-07
4.49181e-08
1.04964e-07
2.9325e-07
3.13589e-08
7.99503e-08
2.39488e-07
2.22575e-08
6.24983e-08
1.98199e-07
1.60195e-08
4.99872e-08
1.65846e-07
1.16773e-08
4.07956e-08
1.40011e-07
8.61724e-09
3.38965e-08
1.19008e-07
6.43812e-09
2.86172e-08
1.01645e-07
4.86824e-09
2.4506e-08
8.70648e-08
3.72311e-09
2.12549e-08
7.46429e-08
2.87752e-09
1.86486e-08
6.39204e-08
2.24365e-09
1.65317e-08
5.45555e-08
1.75989e-09
1.47935e-08
4.62862e-08
1.38366e-09
1.33618e-08
3.89031e-08
1.08713e-09
1.21893e-08
3.22296e-08
8.56834e-10
1.12393e-08
2.61151e-08
6.83139e-10
1.04783e-08
2.04247e-08
5.59219e-10
9.88757e-09
1.50473e-08
4.67653e-10
9.45646e-09
9.85205e-09
4.22863e-10
9.20497e-09
4.88044e-09
2.96168e-10
9.07614e-09
2.76856e-10
8.96108e-09
1.62361e-05
2.41666e-06
-1.48744e-05
1.81968e-05
4.71513e-06
-1.86946e-05
2.17423e-05
7.152e-06
-2.64539e-05
2.73083e-05
9.39211e-06
-2.80392e-05
3.34817e-05
9.27384e-06
-2.16122e-05
3.91609e-05
5.3942e-06
-1.377e-05
4.28143e-05
4.58973e-07
-9.43247e-06
4.59929e-05
-1.08804e-06
-5.64589e-06
5.50252e-05
-9.19201e-07
-5.06194e-07
6.10427e-05
-1.38247e-06
4.70712e-06
4.8507e-05
3.04376e-06
1.506e-05
2.57527e-05
9.72624e-06
1.943e-05
1.1335e-05
1.12242e-05
1.30208e-05
6.71784e-06
9.5327e-06
8.64359e-06
5.14525e-06
6.11718e-06
5.57196e-06
3.77701e-06
3.39569e-06
3.07541e-06
2.66942e-06
1.8878e-06
1.72889e-06
1.88974e-06
1.09095e-06
1.01546e-06
1.35807e-06
6.5898e-07
6.27171e-07
9.95431e-07
4.14306e-07
4.05483e-07
7.4583e-07
2.68248e-07
2.73746e-07
5.71022e-07
1.783e-07
1.92171e-07
4.46088e-07
1.21184e-07
1.39682e-07
3.54936e-07
8.38878e-08
1.04707e-07
2.87076e-07
5.89507e-08
8.06512e-08
2.35562e-07
4.19537e-08
6.36338e-08
1.95712e-07
3.01905e-08
5.13041e-08
1.64314e-07
2.19485e-08
4.21794e-08
1.39133e-07
1.61144e-08
3.52906e-08
1.18592e-07
1.19481e-08
2.99919e-08
1.01563e-07
8.94689e-09
2.58369e-08
8.72273e-08
6.7666e-09
2.25179e-08
7.49841e-08
5.16917e-09
1.98263e-08
6.4387e-08
3.98568e-09
1.76149e-08
5.51003e-08
3.09638e-09
1.57809e-08
4.68655e-08
2.41751e-09
1.42548e-08
3.94796e-08
1.89293e-09
1.29869e-08
3.27735e-08
1.48988e-09
1.19533e-08
2.66025e-08
1.18506e-09
1.11358e-08
2.08312e-08
9.67231e-10
1.05223e-08
1.53523e-08
7.98354e-10
1.01103e-08
1.00342e-08
7.37853e-10
9.89779e-09
4.96552e-09
5.59874e-10
9.52247e-09
7.1337e-10
8.6438e-09
8.67679e-06
2.09247e-06
-1.65584e-05
1.32054e-05
3.7729e-06
-1.5836e-05
1.84219e-05
4.75892e-06
-1.41079e-05
2.41721e-05
5.52734e-06
-1.15525e-05
2.99172e-05
5.48391e-06
-6.78807e-06
3.46598e-05
4.07318e-06
-4.97711e-07
3.67502e-05
1.70809e-06
4.18106e-06
3.43116e-05
-3.15732e-07
6.77382e-06
2.80683e-05
-5.47204e-07
1.06462e-05
2.08337e-05
1.10978e-06
1.49106e-05
1.3593e-05
4.28046e-06
1.26965e-05
7.09907e-06
8.0533e-06
8.97046e-06
4.11292e-06
9.64784e-06
8.57205e-06
3.55997e-06
8.88948e-06
7.23684e-06
3.74283e-06
7.08897e-06
5.39455e-06
3.46168e-06
4.84048e-06
3.57345e-06
2.7678e-06
3.08647e-06
2.19466e-06
2.08129e-06
1.94128e-06
1.33844e-06
1.54266e-06
1.22794e-06
8.32405e-07
1.14991e-06
7.89703e-07
5.36876e-07
8.69213e-07
5.18131e-07
3.59776e-07
6.67556e-07
3.4648e-07
2.49861e-07
5.212e-07
2.35759e-07
1.79343e-07
4.1357e-07
1.62887e-07
1.32671e-07
3.3322e-07
1.1402e-07
1.00866e-07
2.72279e-07
8.07058e-08
7.8597e-08
2.25305e-07
5.76734e-08
6.26195e-08
1.88502e-07
4.15641e-08
5.09144e-08
1.59194e-07
3.01885e-08
4.21744e-08
1.35474e-07
2.20907e-08
3.55253e-08
1.15973e-07
1.62867e-08
3.03707e-08
9.9697e-08
1.21013e-08
2.62941e-08
8.59126e-08
9.06636e-09
2.30135e-08
7.40755e-08
6.85319e-09
2.0338e-08
6.3777e-08
5.22679e-09
1.81265e-08
5.47074e-08
4.01904e-09
1.62772e-08
4.6628e-08
3.11085e-09
1.47199e-08
3.93518e-08
2.42058e-09
1.34046e-08
3.27235e-08
1.89568e-09
1.23169e-08
2.66077e-08
1.498e-09
1.14542e-08
2.08746e-08
1.21139e-09
1.08179e-08
1.54306e-08
9.84694e-10
1.03761e-08
1.01319e-08
9.76163e-10
1.00548e-08
5.16977e-09
8.54714e-10
9.22034e-09
1.66413e-09
7.93072e-09
9.13221e-06
-5.92704e-06
1.20084e-05
2.81037e-06
-3.47132e-06
1.40946e-05
3.41879e-06
-5.80001e-07
1.5351e-05
3.75457e-06
2.66435e-06
1.4883e-05
3.7327e-06
6.84837e-06
1.25108e-05
3.2227e-06
9.79826e-06
8.78697e-06
2.55701e-06
9.43122e-06
4.56839e-06
2.06289e-06
6.49522e-06
9.71711e-07
2.11082e-06
3.98153e-06
-1.3938e-06
2.9805e-06
3.2279e-06
-2.29425e-06
4.2505e-06
3.38582e-06
-1.68822e-06
5.87838e-06
4.17943e-06
-4.10039e-07
6.63229e-06
4.26417e-06
7.94072e-07
6.14495e-06
3.63792e-06
1.5988e-06
5.02055e-06
2.84517e-06
1.81705e-06
3.68702e-06
2.02771e-06
1.67635e-06
2.57112e-06
1.38116e-06
1.4139e-06
1.75399e-06
9.31447e-07
1.14215e-06
1.19144e-06
6.32352e-07
9.06364e-07
8.12027e-07
4.34849e-07
7.1751e-07
5.56238e-07
3.05608e-07
5.70791e-07
3.84259e-07
2.20031e-07
4.58059e-07
2.67882e-07
1.62341e-07
3.71495e-07
1.88397e-07
1.22675e-07
3.04662e-07
1.3357e-07
9.48378e-08
2.5259e-07
9.53869e-08
7.48862e-08
2.11554e-07
6.85641e-08
6.02992e-08
1.78798e-07
4.95775e-08
4.94534e-08
1.52287e-07
3.60486e-08
4.12606e-08
1.30528e-07
2.63537e-08
3.49656e-08
1.12415e-07
1.93732e-08
3.00394e-08
9.71301e-08
1.43274e-08
2.61128e-08
8.40589e-08
1.06674e-08
2.29376e-08
7.27365e-08
8.00303e-09
2.03409e-08
6.28094e-08
6.05341e-09
1.81889e-08
5.40075e-08
4.61629e-09
1.6381e-08
4.6121e-08
3.54719e-09
1.48454e-08
3.8985e-08
2.74554e-09
1.35305e-08
3.24587e-08
2.14332e-09
1.24248e-08
2.6414e-08
1.69105e-09
1.15417e-08
2.07215e-08
1.37313e-09
1.08951e-08
1.52969e-08
1.12595e-09
1.04263e-08
9.99351e-09
1.215e-09
1.00593e-08
5.11009e-09
1.17634e-09
8.96175e-09
2.68308e-09
7.4384e-09
2.59351e-07
2.01731e-06
1.78864e-06
5.68705e-07
2.62739e-06
3.16231e-06
3.28687e-07
3.17136e-06
4.14096e-06
-3.52484e-07
3.45609e-06
4.47646e-06
-1.03772e-06
3.11012e-06
3.78458e-06
-1.62092e-06
2.44072e-06
2.84713e-06
-2.06744e-06
1.8095e-06
2.32397e-06
-2.4141e-06
1.69698e-06
2.20867e-06
-2.49856e-06
2.26537e-06
2.32646e-06
-2.34882e-06
3.28903e-06
2.27674e-06
-1.66568e-06
4.22606e-06
2.37289e-06
-6.28118e-07
4.53616e-06
2.42969e-06
2.62881e-07
4.28001e-06
2.16424e-06
8.40506e-07
3.63103e-06
1.7507e-06
1.0677e-06
2.83541e-06
1.31607e-06
1.06916e-06
2.11044e-06
9.53141e-07
9.64712e-07
1.52759e-06
6.79636e-07
8.27055e-07
1.09111e-06
4.85507e-07
6.9162e-07
7.74856e-07
3.50389e-07
5.71975e-07
5.49167e-07
2.56211e-07
4.71935e-07
3.89738e-07
1.90615e-07
3.90468e-07
2.77502e-07
1.4446e-07
3.24892e-07
1.98362e-07
1.11574e-07
2.72244e-07
1.42377e-07
8.78087e-08
2.29847e-07
1.02609e-07
7.03529e-08
1.95476e-07
7.42394e-08
5.73244e-08
1.67354e-07
5.39162e-08
4.74725e-08
1.44094e-07
3.93004e-08
3.99245e-08
1.24634e-07
2.87528e-08
3.40498e-08
1.0816e-07
2.11196e-08
2.94005e-08
9.40497e-08
1.55834e-08
2.56653e-08
8.18229e-08
1.15609e-08
2.26311e-08
7.1108e-08
8.63237e-09
2.0143e-08
6.16178e-08
6.49331e-09
1.8075e-08
5.31303e-08
4.9232e-09
1.63295e-08
4.54721e-08
3.76373e-09
1.48356e-08
3.85055e-08
2.903e-09
1.35405e-08
3.21114e-08
2.26195e-09
1.24331e-08
2.61811e-08
1.78293e-09
1.15301e-08
2.06274e-08
1.43426e-09
1.08257e-08
1.54084e-08
1.16797e-09
1.02028e-08
1.0579e-08
1.14068e-09
9.69788e-09
6.58157e-09
1.06326e-09
8.10187e-09
1.87261e-09
7.29564e-09
9.20529e-10
9.62087e-10
9.87768e-10
2.62024e-10
2.75747e-10
2.84901e-10
-5.55802e-06
1.73687e-06
2.70047e-07
-4.8289e-06
2.13269e-06
7.23401e-07
-4.05773e-06
2.37449e-06
1.13997e-06
-3.30154e-06
2.44418e-06
1.44047e-06
-2.77079e-06
2.23997e-06
1.40602e-06
-2.60102e-06
1.93627e-06
1.19429e-06
-2.77271e-06
1.71763e-06
8.98837e-07
-3.03793e-06
1.73674e-06
7.45416e-07
-3.0734e-06
2.02381e-06
8.06469e-07
-2.65819e-06
2.46663e-06
1.00335e-06
-1.89616e-06
2.93062e-06
1.21844e-06
-1.05824e-06
3.11754e-06
1.27358e-06
-3.32652e-07
2.99707e-06
1.1867e-06
1.82991e-07
2.62696e-06
1.02108e-06
4.69831e-07
2.14872e-06
8.26239e-07
5.87336e-07
1.67935e-06
6.43148e-07
6.01446e-07
1.27344e-06
4.89562e-07
5.62795e-07
9.47747e-07
3.69572e-07
5.02768e-07
6.96832e-07
2.79325e-07
4.38239e-07
5.08323e-07
2.12613e-07
3.77461e-07
3.69275e-07
1.63493e-07
3.23736e-07
2.67807e-07
1.27345e-07
2.77656e-07
1.94224e-07
1.00643e-07
2.38693e-07
1.40992e-07
8.07376e-08
2.05922e-07
1.02494e-07
6.57232e-08
1.78346e-07
7.46343e-08
5.42613e-08
1.55043e-07
5.44497e-08
4.54282e-08
1.35216e-07
3.98044e-08
3.85449e-08
1.18213e-07
2.91631e-08
3.31024e-08
1.03507e-07
2.14225e-08
2.87397e-08
9.0671e-08
1.57876e-08
2.52056e-08
7.93651e-08
1.16836e-08
2.23226e-08
6.93149e-08
8.69265e-09
1.99515e-08
6.03039e-08
6.50975e-09
1.79709e-08
5.21623e-08
4.91267e-09
1.62861e-08
4.47552e-08
3.74103e-09
1.48294e-08
3.7972e-08
2.87896e-09
1.35562e-08
3.17129e-08
2.24272e-09
1.24618e-08
2.58826e-08
1.77213e-09
1.15624e-08
2.04066e-08
1.42307e-09
1.08402e-08
1.52554e-08
1.16484e-09
1.01789e-08
1.05122e-08
1.00489e-09
9.66004e-09
6.59821e-09
8.5698e-10
8.16509e-09
8.87358e-10
7.62193e-09
9.8884e-10
9.95402e-10
1.00025e-09
2.88563e-10
2.91236e-10
2.92883e-10
-6.76539e-06
8.84975e-07
-8.10901e-07
-5.91599e-06
1.28077e-06
-4.18637e-07
-5.12005e-06
1.55472e-06
-8.07195e-08
-4.40149e-06
1.72455e-06
1.98423e-07
-3.75401e-06
1.74625e-06
3.90259e-07
-3.24673e-06
1.60934e-06
4.66162e-07
-2.89952e-06
1.42529e-06
4.87544e-07
-2.67031e-06
1.29319e-06
5.08479e-07
-2.48678e-06
1.32393e-06
5.60186e-07
-2.2751e-06
1.54565e-06
6.30681e-07
-1.97482e-06
1.86033e-06
6.92628e-07
-1.52464e-06
2.13092e-06
7.57929e-07
-1.00476e-06
2.23198e-06
7.74684e-07
-5.17515e-07
2.15709e-06
7.35828e-07
-1.3365e-07
1.92603e-06
6.54803e-07
1.22271e-07
1.62353e-06
5.52015e-07
2.68633e-07
1.31224e-06
4.49978e-07
3.36754e-07
1.02846e-06
3.58993e-07
3.55637e-07
7.88673e-07
2.83657e-07
3.46273e-07
5.95466e-07
2.23455e-07
3.2252e-07
4.44461e-07
1.76422e-07
2.92922e-07
3.29153e-07
1.40118e-07
2.62284e-07
2.4251e-07
1.12213e-07
2.33089e-07
1.78096e-07
9.07642e-08
2.06412e-07
1.30545e-07
7.42474e-08
1.82543e-07
9.56088e-08
6.14444e-08
1.61403e-07
7.00095e-08
5.1434e-08
1.42748e-07
5.12768e-08
4.35557e-08
1.26284e-07
3.75773e-08
3.7296e-08
1.11717e-07
2.75622e-08
3.22606e-08
9.87789e-08
2.0243e-08
2.81703e-08
8.72287e-08
1.4896e-08
2.4829e-08
7.68569e-08
1.0992e-08
2.20916e-08
6.74847e-08
8.14337e-09
1.98313e-08
5.89652e-08
6.06627e-09
1.79309e-08
5.11802e-08
4.55256e-09
1.62979e-08
4.4033e-08
3.4515e-09
1.48681e-08
3.74398e-08
2.64948e-09
1.36082e-08
3.13199e-08
2.06396e-09
1.25231e-08
2.55938e-08
1.63578e-09
1.16252e-08
2.02e-08
1.30936e-09
1.08991e-08
1.5113e-08
1.07836e-09
1.02361e-08
1.04255e-08
7.93183e-10
9.7276e-09
6.47334e-09
6.62867e-10
8.25641e-09
-6.73421e-11
7.78106e-09
9.49995e-10
9.43235e-10
9.33753e-10
2.80498e-10
2.78437e-10
2.7489e-10
-6.66427e-06
7.57056e-07
-1.10479e-06
-5.90007e-06
1.00861e-06
-8.46597e-07
-5.15375e-06
1.17378e-06
-6.03152e-07
-4.44808e-06
1.26515e-06
-3.78243e-07
-3.82953e-06
1.2771e-06
-2.03745e-07
-3.35189e-06
1.21694e-06
-9.7974e-08
-3.02144e-06
1.13839e-06
-3.37499e-08
-2.80543e-06
1.0883e-06
1.50841e-08
-2.62342e-06
1.11269e-06
8.59066e-08