/*--------------------------------*- C++ -*----------------------------------*\
| =========                 |                                                 |
| \\      /  F ield         | OpenFOAM: The Open Source CFD Toolbox           |
|  \\    /   O peration     | Version:  2.3.1                                 |
|   \\  /    A nd           | Web:      www.OpenFOAM.org                      |
|    \\/     M anipulation  |                                                 |
\*---------------------------------------------------------------------------*/
FoamFile
{
    version     2.0;
    format      ascii;
    class       surfaceScalarField;
    location    "5";
    object      phi_0;
}
// * * * * * * * * * * * * * * * * * * * * * * * * * * * * * * * * * * * * * //

dimensions      [0 3 -1 0 0 0 0];

internalField   nonuniform List<scalar> 
109568
(
4.07417e-05
-3.63093e-06
5.78957e-06
3.89935e-05
-2.57453e-06
4.32267e-06
3.94226e-05
-1.99129e-06
1.56229e-06
4.29152e-05
7.79836e-07
-4.27245e-06
4.41531e-05
6.29686e-06
-7.53482e-06
4.39582e-05
8.44204e-06
-8.24711e-06
5.2548e-05
1.28868e-06
-9.87849e-06
6.49881e-05
-3.11028e-06
-9.32979e-06
5.99608e-05
1.22071e-05
-7.17983e-06
4.61096e-05
1.97305e-05
-5.87922e-06
4.55024e-05
5.3098e-06
-4.70261e-06
5.19656e-05
-3.75199e-06
-2.71119e-06
4.70701e-05
8.47891e-07
4.04758e-06
2.91977e-05
8.38569e-06
9.48679e-06
1.41679e-05
7.46185e-06
7.5679e-06
7.01824e-06
3.66283e-06
3.48682e-06
3.90628e-06
1.65839e-06
1.45358e-06
2.39311e-06
8.18005e-07
6.95163e-07
1.57634e-06
4.38418e-07
3.78346e-07
1.0967e-06
2.52688e-07
2.26954e-07
7.95697e-07
1.54626e-07
1.46379e-07
5.96733e-07
9.9249e-08
9.97149e-08
4.59699e-07
6.61139e-08
7.09205e-08
3.62124e-07
4.53207e-08
5.22538e-08
2.90685e-07
3.17661e-08
3.96731e-08
2.37097e-07
2.26646e-08
3.09237e-08
1.96007e-07
1.64196e-08
2.46697e-08
1.63854e-07
1.20658e-08
2.00874e-08
1.38206e-07
8.99126e-09
1.66564e-08
1.17373e-07
6.79646e-09
1.40368e-08
1.00162e-07
5.2113e-09
1.20001e-08
8.57185e-08
4.05287e-09
1.03905e-08
7.34221e-08
3.19679e-09
9.09957e-09
6.28172e-08
2.55486e-09
8.05002e-09
5.35653e-08
2.06486e-09
7.18705e-09
4.54066e-08
1.68304e-09
6.47568e-09
3.81338e-08
1.3793e-09
5.89353e-09
3.15706e-08
1.13986e-09
5.4233e-09
2.55657e-08
9.56834e-10
5.04805e-09
1.99837e-08
8.24287e-10
4.75776e-09
1.47142e-08
7.21248e-10
4.5482e-09
9.62717e-09
6.52969e-10
4.43409e-09
4.73427e-09
4.90668e-10
4.40223e-09
3.75152e-10
4.35912e-09
1.4314e-05
2.20505e-06
-9.52908e-06
1.74266e-05
5.66376e-06
-1.13508e-05
2.20259e-05
9.55758e-06
-1.61483e-05
2.82128e-05
1.30706e-05
-1.84776e-05
3.51467e-05
1.48281e-05
-1.54652e-05
4.20161e-05
1.21731e-05
-1.06004e-05
4.69935e-05
5.60287e-06
-9.29163e-06
5.04966e-05
2.4224e-06
-9.03569e-06
5.95973e-05
6.00603e-06
-2.89968e-06
6.98026e-05
6.26632e-06
3.25883e-06
6.06877e-05
5.78722e-06
8.63744e-06
3.46464e-05
1.04901e-05
1.17992e-05
1.50406e-05
1.22332e-05
8.22043e-06
7.93542e-06
1.03563e-05
5.13459e-06
5.54482e-06
6.59945e-06
3.253e-06
3.92624e-06
3.56761e-06
1.71381e-06
2.72616e-06
1.93947e-06
9.19003e-07
1.91124e-06
1.10716e-06
5.25763e-07
1.3651e-06
6.64188e-07
3.20373e-07
9.96204e-07
4.16059e-07
2.05522e-07
7.43941e-07
2.68861e-07
1.38027e-07
5.68111e-07
1.78531e-07
9.65484e-08
4.42898e-07
1.21328e-07
6.99986e-08
3.51802e-07
8.40454e-08
5.23714e-08
2.84141e-07
5.91466e-08
4.02806e-08
2.32876e-07
4.21834e-08
3.17466e-08
1.93275e-07
3.04442e-08
2.55764e-08
1.62103e-07
2.22187e-08
2.10187e-08
1.37117e-07
1.63948e-08
1.75832e-08
1.16735e-07
1.22337e-08
1.49442e-08
9.98358e-08
9.23606e-09
1.28746e-08
8.56092e-08
7.0617e-09
1.12177e-08
7.34626e-08
5.47427e-09
9.86919e-09
6.29578e-08
4.30345e-09
8.75619e-09
5.37674e-08
3.427e-09
7.8283e-09
4.56399e-08
2.75783e-09
7.05267e-09
3.83769e-08
2.23604e-09
6.40626e-09
3.18081e-08
1.82838e-09
5.88025e-09
2.57827e-08
1.51525e-09
5.46703e-09
2.01581e-08
1.28916e-09
5.15969e-09
1.48113e-08
1.10519e-09
4.96286e-09
9.55842e-09
1.0103e-09
4.89555e-09
4.56323e-09
7.67315e-10
4.71854e-09
8.21746e-10
4.11664e-09
1.21702e-05
5.66234e-06
-1.03907e-05
1.66318e-05
7.68898e-06
-9.94549e-06
2.1816e-05
9.31736e-06
-8.83785e-06
2.80009e-05
1.07807e-05
-7.40802e-06
3.48079e-05
1.11761e-05
-4.91248e-06
4.08383e-05
9.70264e-06
-9.04854e-07
4.41241e-05
6.27248e-06
2.61473e-06
4.36989e-05
2.45882e-06
3.56925e-06
3.97961e-05
1.32794e-06
4.99725e-06
3.28046e-05
3.2157e-06
9.78183e-06
2.22824e-05
5.70936e-06
1.10792e-05
1.15963e-05
9.04684e-06
7.42644e-06
6.05917e-06
1.0544e-05
5.48322e-06
4.35351e-06
9.61259e-06
4.32631e-06
4.08117e-06
7.51084e-06
3.11782e-06
3.63342e-06
5.0442e-06
2.00301e-06
2.85115e-06
3.16598e-06
1.18389e-06
2.11785e-06
1.97168e-06
7.0109e-07
1.55737e-06
1.23928e-06
4.2836e-07
1.15442e-06
7.93674e-07
2.73465e-07
8.69137e-07
5.19252e-07
1.82087e-07
6.65507e-07
3.46561e-07
1.25931e-07
5.18391e-07
2.35521e-07
9.01259e-08
4.10575e-07
1.6261e-07
6.65345e-08
3.30304e-07
1.13807e-07
5.051e-08
2.69556e-07
8.05778e-08
3.93163e-08
2.22816e-07
5.76232e-08
3.13e-08
1.86244e-07
4.15775e-08
2.54393e-08
1.57137e-07
3.02522e-08
2.10734e-08
1.3358e-07
2.21927e-08
1.77588e-08
1.14204e-07
1.64175e-08
1.51923e-08
9.80219e-08
1.22578e-08
1.31603e-08
8.43119e-08
9.25112e-09
1.15206e-08
7.25366e-08
7.07028e-09
1.01792e-08
6.22968e-08
5.47802e-09
9.06528e-09
5.32932e-08
4.3027e-09
8.12785e-09
4.52977e-08
3.42089e-09
7.33243e-09
3.81319e-08
2.74644e-09
6.65545e-09
3.16405e-08
2.2255e-09
6.09423e-09
2.56803e-08
1.82374e-09
5.6517e-09
2.01064e-08
1.5337e-09
5.32944e-09
1.48005e-08
1.29193e-09
5.1191e-09
9.55439e-09
1.26139e-09
4.99504e-09
4.68921e-09
1.07837e-09
4.55412e-09
1.79716e-09
3.7138e-09
1.47644e-05
-2.92531e-06
1.77472e-05
6.24591e-06
-1.53978e-06
1.9977e-05
6.89993e-06
1.87694e-07
2.13883e-05
7.19601e-06
2.17329e-06
2.10585e-05
6.85047e-06
4.65542e-06
1.85302e-05
5.6454e-06
6.58554e-06
1.41677e-05
4.09925e-06
6.53573e-06
8.94861e-06
3.05277e-06
4.62518e-06
4.31209e-06
2.92832e-06
3.03615e-06
8.56357e-07
3.93982e-06
2.73161e-06
-9.96412e-07
5.10662e-06
2.45551e-06
-1.03642e-06
6.47529e-06
2.61155e-06
-1.08112e-07
7.09393e-06
2.5218e-06
9.51866e-07
6.46425e-06
2.08836e-06
1.68881e-06
5.19986e-06
1.57404e-06
1.87151e-06
3.77485e-06
1.08663e-06
1.70614e-06
2.61007e-06
7.21285e-07
1.42854e-06
1.77e-06
4.7929e-07
1.14791e-06
1.19734e-06
3.22571e-07
9.07412e-07
8.13751e-07
2.2042e-07
7.16146e-07
5.56276e-07
1.54242e-07
5.68319e-07
3.83698e-07
1.1069e-07
4.55176e-07
2.67197e-07
8.14663e-08
3.68563e-07
1.87779e-07
6.14442e-08
3.01855e-07
1.33082e-07
4.74323e-08
2.49986e-07
9.50368e-08
3.74108e-08
2.09179e-07
6.83345e-08
3.00956e-08
1.76641e-07
4.94466e-08
2.46682e-08
1.50318e-07
3.59953e-08
2.05802e-08
1.28705e-07
2.63588e-08
1.7447e-08
1.10701e-07
1.94234e-08
1.49976e-08
9.54978e-08
1.44184e-08
1.30429e-08
8.24883e-08
1.08011e-08
1.14595e-08
7.12138e-08
8.18195e-09
1.01628e-08
6.13297e-08
6.2773e-09
9.0848e-09
5.25772e-08
4.88119e-09
8.17402e-09
4.47588e-08
3.8453e-09
7.39396e-09
3.77208e-08
3.06559e-09
6.71886e-09
3.13257e-08
2.47441e-09
6.14618e-09
2.54336e-08
2.02549e-09
5.69038e-09
1.98934e-08
1.70903e-09
5.36491e-09
1.4593e-08
1.44868e-09
5.14361e-09
9.31388e-09
1.5451e-09
4.99541e-09
4.53602e-09
1.45512e-09
4.4011e-09
2.9835e-09
3.34968e-09
3.63388e-06
3.60209e-06
1.87959e-06
3.71594e-06
4.13188e-06
2.686e-06
3.05479e-06
4.53836e-06
3.31879e-06
1.782e-06
4.61113e-06
3.51214e-06
4.44821e-07
4.00877e-06
2.97381e-06
-6.78179e-07
3.08467e-06
2.13758e-06
-1.49178e-06
2.24618e-06
1.62019e-06
-2.06866e-06
2.05567e-06
1.44952e-06
-2.26516e-06
2.60759e-06
1.52872e-06
-2.18634e-06
3.56391e-06
1.46388e-06
-1.57517e-06
4.46085e-06
1.40327e-06
-5.66936e-07
4.71644e-06
1.36926e-06
3.15071e-07
4.3954e-06
1.18684e-06
8.80313e-07
3.69907e-06
9.35541e-07
1.09453e-06
2.87176e-06
6.88882e-07
1.08461e-06
2.12813e-06
4.91863e-07
9.72185e-07
1.53507e-06
3.4735e-07
8.29461e-07
1.09353e-06
2.46532e-07
6.91133e-07
7.74968e-07
1.77111e-07
5.70033e-07
5.48337e-07
1.29039e-07
4.69315e-07
3.88672e-07
9.57447e-08
3.87619e-07
2.76493e-07
7.23998e-08
3.22063e-07
1.97519e-07
5.58161e-08
2.69556e-07
1.41724e-07
4.38651e-08
2.27354e-07
1.02134e-07
3.51051e-08
1.93196e-07
7.39157e-08
2.85765e-08
1.65277e-07
5.37153e-08
2.36513e-08
1.42188e-07
3.91937e-08
1.98899e-08
1.22862e-07
2.87159e-08
1.69691e-08
1.0649e-07
2.11371e-08
1.46586e-08
9.24572e-08
1.56504e-08
1.28006e-08
8.02893e-08
1.16784e-08
1.12905e-08
6.9618e-08
8.80083e-09
1.00524e-08
6.01639e-08
6.71017e-09
9.0213e-09
5.17165e-08
5.18161e-09
8.14695e-09
4.41157e-08
4.05323e-09
7.39288e-09
3.72377e-08
3.21265e-09
6.73094e-09
3.09703e-08
2.58398e-09
6.15785e-09
2.51937e-08
2.10992e-09
5.69209e-09
1.98084e-08
1.76047e-09
5.33389e-09
1.47489e-08
1.48166e-09
5.02657e-09
1.0045e-08
1.454e-09
4.79498e-09
6.19102e-09
1.31678e-09
3.99229e-09
2.18723e-09
3.59792e-09
9.6648e-10
1.00681e-09
1.02425e-09
1.25439e-10
1.31368e-10
1.35027e-10
-4.79593e-06
2.21434e-06
7.47965e-07
-4.2201e-06
2.59836e-06
9.5768e-07
-3.61292e-06
2.81806e-06
1.11312e-06
-3.00834e-06
2.8242e-06
1.18234e-06
-2.58097e-06
2.51781e-06
1.06359e-06
-2.47859e-06
2.12564e-06
8.56648e-07
-2.71024e-06
1.84397e-06
6.33868e-07
-3.01776e-06
1.84318e-06
5.20005e-07
-3.07193e-06
2.1315e-06
5.3027e-07
-2.66353e-06
2.55807e-06
5.97442e-07
-1.89361e-06
3.00542e-06
6.85524e-07
-1.0467e-06
3.17735e-06
6.92181e-07
-3.18501e-07
3.03917e-06
6.28025e-07
1.95886e-07
2.65341e-06
5.31279e-07
4.79524e-07
2.16304e-06
4.2508e-07
5.93336e-07
1.68583e-06
3.28483e-07
6.04265e-07
1.27546e-06
2.48682e-07
5.63241e-07
9.47623e-07
1.86928e-07
5.01624e-07
6.95767e-07
1.40819e-07
4.3612e-07
5.06926e-07
1.06913e-07
3.74886e-07
3.67887e-07
8.20191e-08
3.21027e-07
2.66593e-07
6.37588e-08
2.74991e-07
1.93249e-07
5.0306e-08
2.3616e-07
1.4025e-07
4.03044e-08
2.03563e-07
1.01955e-07
3.27754e-08
1.76177e-07
7.42659e-08
2.70362e-08
1.53051e-07
5.42156e-08
2.26252e-08
1.33375e-07
3.96716e-08
1.91983e-08
1.16493e-07
2.9106e-08
1.64925e-08
1.01881e-07
2.14255e-08
1.43229e-08
8.9122e-08
1.58448e-08
1.25649e-08
7.78739e-08
1.17939e-08
1.11327e-08
6.78636e-08
8.85417e-09
9.95689e-09
5.88821e-08
6.71836e-09
8.97332e-09
5.0772e-08
5.15963e-09
8.13215e-09
4.34135e-08
4.013e-09
7.39868e-09
3.67118e-08
3.16546e-09
6.74886e-09
3.0573e-08
2.53913e-09
6.18363e-09
2.48891e-08
2.07198e-09
5.72187e-09
1.95745e-08
1.72122e-09
5.35384e-09
1.45742e-08
1.45655e-09
5.02543e-09
9.95844e-09
1.28787e-09
4.78188e-09
6.14309e-09
1.0864e-09
4.04573e-09
1.08775e-09
3.89668e-09
9.75266e-10
9.81431e-10
9.87876e-10
1.32922e-10
1.33849e-10
1.34532e-10
-6.63855e-06
9.99339e-07
-2.22276e-07
-5.80889e-06
1.40868e-06
-2.40005e-08
-5.02959e-06
1.68081e-06
1.3825e-07
-4.32247e-06
1.84342e-06
2.67519e-07
-3.6834e-06
1.84536e-06
3.39772e-07
-3.1872e-06
1.67908e-06
3.42529e-07
-2.85367e-06
1.46853e-06
3.23581e-07
-2.63848e-06
1.31523e-06
3.13544e-07
-2.46502e-06
1.33813e-06
3.31593e-07
-2.25853e-06
1.56012e-06
3.64889e-07
-1.96342e-06
1.87584e-06
3.87108e-07
-1.51567e-06
2.14896e-06
4.08711e-07
-9.95829e-07
2.24862e-06
4.08877e-07
-5.09194e-07
2.16988e-06
3.82658e-07
-1.26648e-07
1.93373e-06
3.37134e-07
1.27235e-07
1.62706e-06
2.821e-07
2.71402e-07
1.31303e-06
2.28635e-07
3.37663e-07
1.02756e-06
1.81636e-07
3.5517e-07
7.87041e-07
1.43075e-07
3.44863e-07
5.9365e-07
1.12423e-07
3.20511e-07
4.427e-07
8.85787e-08
2.90576e-07
3.27594e-07
7.02284e-08
2.59803e-07
2.41216e-07
5.6151e-08
2.30632e-07
1.77072e-07
4.53478e-08
2.0406e-07
1.29767e-07
3.70546e-08
1.80334e-07
9.50423e-08
3.06392e-08
1.59351e-07
6.96174e-08
2.56309e-08
1.40846e-07
5.10205e-08
2.16998e-08
1.2451e-07
3.74243e-08
1.85835e-08
1.1005e-07
2.74889e-08
1.60774e-08
9.72011e-08
2.02338e-08
1.40407e-08
8.57251e-08
1.49421e-08
1.23786e-08
7.5409e-08
1.10882e-08
1.10219e-08
6.60721e-08
8.28549e-09
9.9055e-09
5.75743e-08
6.25099e-09
8.96521e-09
4.98109e-08
4.77183e-09
8.15116e-09
4.27044e-08
3.68896e-09
7.43053e-09
3.61878e-08
2.89668e-09
6.78545e-09
3.01838e-08
2.31845e-09
6.22465e-09
2.46004e-08
1.89213e-09
5.76332e-09
1.93659e-08
1.56342e-09
5.39226e-09
1.44246e-08
1.33445e-09
5.06342e-09
9.85798e-09
1.02535e-09
4.82911e-09
5.97545e-09
8.57916e-10
4.11101e-09
-2.27907e-11
4.01479e-09
9.01498e-10
8.98896e-10
8.95614e-10
1.26166e-10
1.25195e-10
1.2384e-10
-6.60058e-06
7.44211e-07
-4.81978e-07
-5.84529e-06
1.00693e-06
-3.53549e-07
-5.10634e-06
1.17878e-06
-2.36906e-07
-4.40588e-06
1.27427e-06
-1.31314e-07
-3.79171e-06
1.28513e-06
-5.39386e-08
-3.32032e-06
1.22018e-06
-1.24919e-08
-2.99835e-06
1.13654e-06
1.0021e-08
-2.79245e-06
1.08272e-06
2.66168e-08
-2.61851e-06
1.10691e-06
5.72863e-08
-2.37258e-06
1.20997e-06
1.04218e-07
-2.01398e-06
1.35964e-06
1.57609e-07
-1.57079e-06
1.50181e-06
2.03966e-07
-1.11191e-06
1.56154e-06
2.28204e-07
-6.92757e-07
1.51992e-06
2.30803e-07
-3.59281e-07
1.38433e-06
2.15922e-07
-1.17799e-07
1.19451e-06
1.91069e-07
4.36444e-08
9.88713e-07
1.62872e-07
1.4256e-07
7.92926e-07
1.35717e-07
1.96326e-07
6.21727e-07
1.11547e-07
2.20121e-07
4.78769e-07
9.10867e-08
2.25014e-07
3.63551e-07
7.42558e-08
2.18775e-07
2.7316e-07
6.06725e-08
2.06488e-07
2.03686e-07
4.98171e-08
1.91317e-07
1.51056e-07
4.11877e-08
1.75163e-07
1.1159e-07
3.43303e-08
1.59135e-07
8.22145e-08
2.8856e-08
1.43821e-07
6.04632e-08
2.44676e-08
1.29481e-07
4.4416e-08
2.09448e-08
1.162e-07
3.26104e-08
1.8095e-08
1.0398e-07
2.39442e-08
1.57651e-08
9.27724e-08
1.75932e-08
1.38477e-08
8.2499e-08
1.29456e-08
1.22699e-08
7.30623e-08
9.54989e-09
1.09751e-08
6.43667e-08
7.07651e-09
9.90451e-09
5.6333e-08
5.28497e-09
8.99975e-09
4.8903e-08
3.98982e-09
8.21201e-09
4.20385e-08
7.50061e-09
3.56993e-08
6.85271e-09
2.9823e-08
6.2895e-09
2.43334e-08
5.82301e-09
1.91648e-08
5.45156e-09
1.42445e-08
5.14708e-09
9.652e-09
4.92701e-09
5.65192e-09
4.16835e-09
3.91557e-09
7.83575e-10
7.58834e-10
7.19237e-10
1.09381e-10
1.03848e-10
9.61246e-11
-6.30191e-06
4.68042e-07
-4.12768e-07
-5.61757e-06
6.45328e-07
-3.22737e-07
-4.96467e-06
7.63955e-07
-2.38081e-07
-4.35774e-06
8.28197e-07
-1.60852e-07
-3.81202e-06
8.35979e-07
-9.65712e-08
-3.34654e-06
8.01531e-07
-4.68257e-08
-2.96185e-06
7.58889e-07
-7.04065e-09
-2.64336e-06
7.37694e-07
2.65257e-08
-2.36351e-06
7.69183e-07
5.78772e-08
-2.08988e-06
8.49972e-07
8.63653e-08
-1.79393e-06
9.51761e-07
1.1193e-07
-1.46206e-06
1.03567e-06
1.34264e-07
-1.11488e-06
1.0658e-06
1.48566e-07
-7.82343e-07
1.03411e-06
1.53271e-07
-4.97737e-07
9.51302e-07
1.48422e-07
-2.74101e-07
8.34169e-07
1.36702e-07
-1.09733e-07
7.02928e-07
1.21417e-07
4.22133e-09
5.73824e-07
1.05148e-07
7.95832e-08
4.56677e-07
8.96888e-08
1.25306e-07
3.57319e-07
7.57273e-08
1.50293e-07
2.74914e-07
6.36495e-08
1.61133e-07
2.08891e-07
5.34286e-08
1.62719e-07
1.57182e-07
4.49185e-08
1.5847e-07
1.17397e-07
3.79073e-08
1.50727e-07
8.71785e-08
3.21552e-08
1.41059e-07
6.44506e-08
2.74316e-08
1.30491e-07
4.74808e-08
2.35506e-08
1.19668e-07
3.48782e-08
2.03613e-08
1.08987e-07
2.55597e-08
1.77318e-08
9.86855e-08
1.86946e-08
1.55507e-08
8.88934e-08
1.36517e-08
1.37336e-08
7.96622e-08
9.95534e-09
1.22215e-08
7.0994e-08
7.25093e-09
1.09672e-08
6.28658e-08
5.28088e-09
9.92383e-09
5.52454e-08
3.8579e-09
9.04743e-09
8.2835e-09
-6.23667e-06
3.086e-07
-4.99151e-07
-5.58181e-06
4.09346e-07
-4.18884e-07
-4.95396e-06
4.7757e-07
-3.41461e-07
-4.37128e-06
5.15224e-07
-2.69707e-07
-3.85146e-06
5.23726e-07
-2.07573e-07
-3.40622e-06
5.11339e-07
-1.55044e-07
-3.03171e-06
4.93819e-07
-1.09443e-07
-2.71181e-06
4.85681e-07
-6.78835e-08
-2.41503e-06
4.99507e-07
-2.71051e-08
-2.11259e-06
5.34836e-07
1.2699e-08
-1.79284e-06
5.83127e-07
4.88792e-08
-1.46235e-06
6.27451e-07
7.77382e-08
-1.14002e-06
6.47173e-07
9.62895e-08
-8.43632e-07
6.32606e-07
1.05119e-07
-5.86142e-07
5.87376e-07
1.06436e-07
-3.75026e-07
5.21012e-07
1.02041e-07
-2.10686e-07
4.44524e-07
9.40639e-08
-8.85621e-08
3.67337e-07
8.43633e-08
-1.97305e-09
2.95776e-07
7.43115e-08
5.77761e-08
2.33183e-07
6.43865e-08
9.58988e-08
1.81184e-07
5.56076e-08
1.18371e-07
1.38657e-07
4.77627e-08
1.29709e-07
1.0488e-07
4.09628e-08
1.33343e-07
7.86025e-08
3.51602e-08
1.31807e-07
5.84645e-08
3.02501e-08
1.26934e-07
4.3212e-08
2.61123e-08
1.20012e-07
3.17619e-08
2.264e-08
1.11932e-07
2.3224e-08
1.97351e-08
1.03293e-07
1.6893e-08
1.73051e-08
9.45016e-08
1.22223e-08
1.52639e-08
8.58207e-08
8.79154e-09
1.35411e-08
7.74082e-08
6.27954e-09
1.20883e-08
6.93467e-08
4.44504e-09
1.08674e-08
6.16688e-08
3.11202e-09
9.84672e-09
2.15298e-09
8.99378e-09
-6.10875e-06
1.10919e-07
-4.32387e-07
-5.48951e-06
1.60708e-07
-3.70607e-07
-4.897e-06
1.9452e-07
-3.09461e-07
-4.34364e-06
2.13161e-07
-2.51296e-07
-3.83995e-06
2.18117e-07
-1.98079e-07
-3.39223e-06
2.14227e-07
-1.50613e-07
-2.99884e-06
2.09142e-07
-1.08709e-07
-2.6514e-06
2.09822e-07
-7.15804e-08
-2.33536e-06
2.21888e-07
-3.84264e-08
-2.03547e-06
2.43843e-07
-8.89693e-09
-1.73914e-06
2.69576e-07
1.72207e-08
-1.44065e-06
2.89383e-07
3.95781e-08
-1.14832e-06
2.97844e-07
5.70066e-08
-8.76367e-07
2.92447e-07
6.82014e-08
-6.36063e-07
2.73456e-07
7.36163e-08
-4.33816e-07
2.44522e-07
7.42429e-08
-2.71015e-07
2.10312e-07
7.14104e-08
-1.45217e-07
1.75096e-07
6.64426e-08
-5.16698e-08
1.41867e-07
6.03622e-08
1.5259e-08
1.12347e-07
5.39068e-08
6.10019e-08
8.78234e-08
4.76177e-08
9.05755e-08
6.73371e-08
4.17462e-08
1.08029e-07
5.09925e-08
3.64348e-08
1.167e-07
3.81984e-08
3.17325e-08
1.19192e-07
2.83438e-08
2.76288e-08
1.17467e-07
2.08524e-08
2.40849e-08
1.12964e-07
1.52139e-08
2.10504e-08
1.06717e-07
1.10032e-08
1.84684e-08
9.94528e-08
7.87983e-09
1.62771e-08
9.16811e-08
5.57911e-09
1.44148e-08
8.37496e-08
3.89553e-09
1.28276e-08
7.5884e-08
2.66919e-09
1.14759e-08
6.82231e-08
1.77929e-09
1.03267e-08
6.08405e-08
1.13675e-09
9.35784e-09
6.78279e-10
8.5437e-09
-6.05903e-06
-5.08311e-07
-5.45066e-06
-4.47659e-07
-4.86873e-06
-3.87412e-07
-4.32611e-06
-3.29452e-07
-3.83266e-06
-2.75334e-07
-3.39275e-06
-2.25682e-07
-3.00338e-06
-1.80237e-07
-2.65516e-06
-1.3839e-07
-2.33365e-06
-9.96262e-08
-2.0259e-06
-6.39065e-08
-1.72446e-06
-3.18662e-08
-1.43032e-06
-4.75252e-09
-1.14867e-06
1.61895e-08
-8.8786e-07
3.16385e-08
-6.56206e-07
4.18022e-08
-4.5904e-07
4.73561e-08
-2.97965e-07
4.92364e-08
-1.71355e-07
4.84859e-08
-7.54805e-08
4.5993e-08
-5.57336e-09
4.244e-08
4.35997e-08
3.86503e-08
7.63632e-08
3.45736e-08
9.66431e-08
3.07125e-08
1.0771e-07
2.71312e-08
1.12165e-07
2.38895e-08
1.12007e-07
2.10102e-08
1.08733e-07
1.84875e-08
1.03436e-07
1.63005e-08
9.68989e-08
1.44168e-08
8.96781e-08
1.27999e-08
8.21597e-08
1.14139e-08
7.46027e-08
1.02262e-08
6.71731e-08
9.20888e-09
5.99661e-08
8.34377e-09
7.61064e-09
4.30663e-05
-6.80799e-07
7.90216e-06
4.02657e-05
-7.06261e-07
7.82953e-06
4.03827e-05
3.83093e-07
1.06218e-06
4.34318e-05
5.45941e-06
-1.2781e-05
4.55716e-05
9.36466e-06
-1.90393e-05
4.79705e-05
7.89126e-06
-1.85372e-05
5.22146e-05
3.93022e-06
-1.80529e-05
5.39317e-05
5.60036e-06
-1.66472e-05
4.87977e-05
1.06331e-05
-1.26789e-05
4.33866e-05
6.03319e-06
-6.50133e-06
4.46595e-05
-3.05644e-06
-2.91906e-06
4.71927e-05
-5.36888e-06
1.24465e-07
3.92608e-05
1.66775e-06
1.03117e-05
2.33756e-05
8.43648e-06
1.69355e-05
1.19234e-05
6.79597e-06
1.22242e-05
6.39465e-06
3.34397e-06
5.67156e-06
3.72312e-06
1.56961e-06
2.5555e-06
2.33245e-06
7.91556e-07
1.29427e-06
1.55443e-06
4.29436e-07
7.2693e-07
1.08883e-06
2.49135e-07
4.43419e-07
7.93565e-07
1.52956e-07
2.8869e-07
5.97102e-07
9.82724e-08
1.97905e-07
4.61166e-07
6.54079e-08
1.41449e-07
3.64041e-07
4.47297e-08
1.04649e-07
2.92738e-07
3.12338e-08
7.97424e-08
2.39131e-07
2.21724e-08
6.2358e-08
1.97949e-07
1.59604e-08
4.98912e-08
1.65672e-07
1.16356e-08
4.07292e-08
1.3989e-07
8.58754e-09
3.38503e-08
1.18925e-07
6.41674e-09
2.85851e-08
1.01589e-07
4.85273e-09
2.44838e-08
8.70277e-08
3.71179e-09
2.12399e-08
7.46194e-08
2.86922e-09
1.86386e-08
6.39064e-08
2.23752e-09
1.65255e-08
5.45481e-08
1.75534e-09
1.479e-08
4.62832e-08
1.38026e-09
1.33603e-08
3.8903e-08
1.08457e-09
1.21892e-08
3.22311e-08
8.54876e-10
1.12403e-08
2.61175e-08
6.81623e-10
1.048e-08
2.04274e-08
5.58027e-10
9.88985e-09
1.50498e-08
4.66724e-10
9.45905e-09
9.85407e-09
4.22132e-10
9.20769e-09
4.88164e-09
2.95743e-10
9.07892e-09
2.76706e-10
8.96405e-09
1.62751e-05
2.43914e-06
-1.48929e-05
1.82417e-05
4.73924e-06
-1.87629e-05
2.1813e-05
7.17916e-06
-2.65157e-05
2.73945e-05
9.40972e-06
-2.80094e-05
3.35761e-05
9.24869e-06
-2.15308e-05
3.92476e-05
5.33128e-06
-1.37119e-05
4.28748e-05
4.20778e-07
-9.40936e-06
4.61077e-05
-1.07888e-06
-5.58932e-06
5.52221e-05
-9.34469e-07
-4.46598e-07
6.10397e-05
-1.36385e-06
4.83834e-06
4.82076e-05
3.1515e-06
1.52615e-05
2.54562e-05
9.7908e-06
1.93909e-05
1.12159e-05
1.12178e-05
1.29107e-05
6.68771e-06
9.50181e-06
8.59744e-06
5.12706e-06
6.07729e-06
5.53232e-06
3.76129e-06
3.37149e-06
3.05205e-06
2.65827e-06
1.8749e-06
1.71674e-06
1.88234e-06
1.0841e-06
1.00915e-06
1.35322e-06
6.55209e-07
6.23727e-07
9.92226e-07
4.12128e-07
4.0352e-07
7.43689e-07
2.66941e-07
2.72579e-07
5.69573e-07
1.77487e-07
1.9145e-07
4.45094e-07
1.20662e-07
1.39223e-07
3.54247e-07
8.35433e-08
1.04405e-07
2.86595e-07
5.87181e-08
8.04486e-08
2.35225e-07
4.17938e-08
6.34952e-08
1.95475e-07
3.0079e-08
5.12079e-08
1.64147e-07
2.18697e-08
4.2112e-08
1.39017e-07
1.60582e-08
3.5243e-08
1.18512e-07
1.19076e-08
2.99583e-08
1.01509e-07
8.91757e-09
2.58132e-08
8.71915e-08
6.74524e-09
2.25014e-08
7.49614e-08
5.15354e-09
1.9815e-08
6.43734e-08
3.9742e-09
1.76074e-08
5.5093e-08
3.08791e-09
1.57761e-08
4.68625e-08
2.41124e-09
1.42522e-08
3.94794e-08
1.88826e-09
1.29857e-08
3.27749e-08
1.48636e-09
1.19532e-08
2.66047e-08
1.18239e-09
1.11365e-08
2.08337e-08
9.65181e-10
1.05236e-08
1.53546e-08
7.96801e-10
1.01118e-08
1.00361e-08
7.36659e-10
9.89951e-09
4.96667e-09
5.59172e-10
9.52458e-09
7.12987e-10
8.64702e-09
8.73052e-06
2.11184e-06
-1.65632e-05
1.3267e-05
3.78405e-06
-1.58268e-05
1.84938e-05
4.76494e-06
-1.40903e-05
2.42505e-05
5.52961e-06
-1.15152e-05
2.99948e-05
5.47545e-06
-6.72245e-06
3.47137e-05
4.05192e-06
-4.27032e-07
3.67491e-05
1.6843e-06
4.2263e-06
3.4238e-05
-3.23082e-07
6.8242e-06
2.79507e-05
-5.26592e-07
1.07323e-05
2.07104e-05
1.1457e-06
1.4942e-05
1.34737e-05
4.33537e-06
1.26167e-05
7.02301e-06
8.09147e-06
8.93714e-06
4.08851e-06
9.64996e-06
8.55856e-06
3.55777e-06
8.86888e-06
7.20601e-06
3.74381e-06
7.0631e-06
5.37049e-06
3.45563e-06
4.81554e-06
3.55296e-06
2.75981e-06
3.06964e-06
2.18155e-06
2.07449e-06
1.93068e-06
1.33063e-06
1.53763e-06
1.22143e-06
8.27893e-07
1.14636e-06
7.85713e-07
5.34233e-07
8.66741e-07
5.15647e-07
3.58184e-07
6.65837e-07
3.44902e-07
2.48873e-07
5.20001e-07
2.34735e-07
1.78714e-07
4.12729e-07
1.62209e-07
1.3226e-07
3.32628e-07
1.13563e-07
1.00591e-07
2.7186e-07
8.03924e-08
7.84094e-08
2.25009e-07
5.74556e-08
6.24896e-08
1.88293e-07
4.1411e-08
5.08232e-08
1.59047e-07
3.00799e-08
4.21097e-08
1.35372e-07
2.20129e-08
3.54792e-08
1.15903e-07
1.62307e-08
3.03378e-08
9.96495e-08
1.20607e-08
2.62707e-08
8.58815e-08
9.03681e-09
2.2997e-08
7.40561e-08
6.8316e-09
2.03266e-08
6.37658e-08
5.21097e-09
1.81188e-08
5.47019e-08
4.00742e-09
1.62722e-08
4.66263e-08
3.1023e-09
1.4717e-08
3.93525e-08
2.41424e-09
1.34032e-08
3.27255e-08
1.89097e-09
1.23166e-08
2.66104e-08
1.49446e-09
1.14547e-08
2.08774e-08
1.20872e-09
1.08189e-08
1.54332e-08
9.8272e-10
1.03774e-08
1.0134e-08
9.7467e-10
1.00562e-08
5.17105e-09
8.53865e-10
9.22239e-09
1.66356e-09
7.93427e-09
9.16356e-06
-5.90555e-06
1.20307e-05
2.81838e-06
-3.44123e-06
1.41049e-05
3.42442e-06
-5.46037e-07
1.53454e-05
3.75707e-06
2.70536e-06
1.48541e-05
3.73405e-06
6.88813e-06
1.24654e-05
3.21915e-06
9.80699e-06
8.7324e-06
2.55514e-06
9.39789e-06
4.5149e-06
2.06651e-06
6.45308e-06
9.30553e-07
2.12337e-06
3.97054e-06
-1.4183e-06
2.99976e-06
3.22641e-06
-2.29601e-06
4.27273e-06
3.39586e-06
-1.67517e-06
5.89763e-06
4.18455e-06
-3.93757e-07
6.63179e-06
4.25856e-06
8.05601e-07
6.13346e-06
3.62443e-06
1.60428e-06
5.00503e-06
2.83345e-06
1.81677e-06
3.67197e-06
2.01771e-06
1.67375e-06
2.55968e-06
1.37428e-06
1.41084e-06
1.74595e-06
9.26925e-07
1.13939e-06
1.18601e-06
6.29435e-07
9.04164e-07
8.08388e-07
4.32976e-07
7.15841e-07
5.5381e-07
3.04403e-07
5.69557e-07
3.82631e-07
2.19244e-07
4.57158e-07
2.66781e-07
1.61819e-07
3.70843e-07
1.87645e-07
1.22323e-07
3.04192e-07
1.3305e-07
9.45969e-08
2.52252e-07
9.50242e-08
7.47188e-08
2.11313e-07
6.83088e-08
6.01815e-08
1.78626e-07
4.93963e-08
4.93697e-08
1.52167e-07
3.59192e-08
4.12007e-08
1.30443e-07
2.62607e-08
3.49224e-08
1.12357e-07
1.93061e-08
3.00083e-08
9.70918e-08
1.42786e-08
2.60905e-08
8.40345e-08
1.06319e-08
2.29218e-08
7.27219e-08
7.97711e-09
2.03299e-08
6.28017e-08
6.03444e-09
1.81815e-08
5.40045e-08
4.60238e-09
1.63763e-08
4.61211e-08
3.53696e-09
1.48427e-08
3.89869e-08
2.73798e-09
1.35293e-08
3.24617e-08
2.13772e-09
1.24246e-08
2.64174e-08
1.68687e-09
1.15423e-08
2.07249e-08
1.36999e-09
1.08961e-08
1.52999e-08
1.12366e-09
1.04276e-08
9.99599e-09
1.21326e-09
1.00607e-08
5.11158e-09
1.17543e-09
8.96396e-09
2.68249e-09
7.44234e-09
2.56178e-07
2.0251e-06
1.80163e-06
5.60405e-07
2.63427e-06
3.17192e-06
3.16371e-07
3.17639e-06
4.1435e-06
-3.64217e-07
3.45668e-06
4.4701e-06
-1.04823e-06
3.10635e-06
3.77062e-06
-1.62901e-06
2.43513e-06
2.83836e-06
-2.07436e-06
1.81018e-06
2.32188e-06
-2.4173e-06
1.70399e-06
2.21184e-06
-2.49753e-06
2.27939e-06
2.32932e-06
-2.34274e-06
3.30474e-06
2.27708e-06
-1.65196e-06
4.23526e-06
2.37486e-06
-6.14418e-07
4.53596e-06
2.42755e-06
2.72727e-07
4.27417e-06
2.15898e-06
8.45877e-07
3.62218e-06
1.74524e-06
1.06934e-06
2.8263e-06
1.31109e-06
1.06881e-06
2.10276e-06
9.49311e-07
9.63562e-07
1.52167e-06
6.76881e-07
8.25741e-07
1.08677e-06
4.836e-07
6.90411e-07
7.71745e-07
3.49083e-07
5.70969e-07
5.46971e-07
2.55319e-07
4.71142e-07
3.88198e-07
1.90006e-07
3.89861e-07
2.76421e-07
1.44041e-07
3.24437e-07
1.97602e-07
1.11283e-07
2.71907e-07
1.4184e-07
8.76043e-08
2.296e-07
1.02228e-07
7.0208e-08
1.95297e-07
7.39676e-08
5.72208e-08
1.67226e-07
5.37215e-08
4.73978e-08
1.44004e-07
3.91604e-08
3.98703e-08
1.24572e-07
2.86517e-08
3.40105e-08
1.08118e-07
2.10463e-08
2.9372e-08
9.40225e-08
1.55301e-08
2.56447e-08
8.18065e-08
1.15221e-08
2.26164e-08
7.10992e-08
8.60397e-09
2.01328e-08
6.16143e-08
6.47252e-09
1.80681e-08
5.31303e-08
4.90795e-09
1.63253e-08
4.54744e-08
3.75251e-09
1.48333e-08
3.8509e-08
2.89471e-09
1.35396e-08
3.21155e-08
2.25579e-09
1.24332e-08
2.61853e-08
1.77832e-09
1.15309e-08
2.06315e-08
1.43079e-09
1.08269e-08
1.54121e-08
1.16537e-09
1.02043e-08
1.05822e-08
1.13866e-09
9.69945e-09
6.58439e-09
1.06187e-09
8.10365e-09
1.87151e-09
7.29809e-09
9.211e-10
9.62641e-10
9.8831e-10
2.62181e-10
2.75902e-10
2.85054e-10
-5.5534e-06
1.74256e-06
2.7357e-07
-4.82398e-06
2.13681e-06
7.25725e-07
-4.05231e-06
2.37671e-06
1.14114e-06
-3.29722e-06
2.44437e-06
1.43957e-06
-2.76909e-06
2.23842e-06
1.40339e-06
-2.60332e-06
1.93511e-06
1.19091e-06
-2.77629e-06
1.71936e-06
8.97653e-07
-3.04017e-06
1.74179e-06
7.46084e-07
-3.07055e-06
2.03118e-06
8.08865e-07
-2.64969e-06
2.47472e-06
1.00659e-06
-1.88513e-06
2.93615e-06
1.22008e-06
-1.04812e-06
3.1183e-06
1.27282e-06
-3.24799e-07
2.99424e-06
1.18463e-06
1.88073e-07
2.62195e-06
1.01863e-06
4.72482e-07
2.14316e-06
8.23818e-07
5.8838e-07
1.67424e-06
6.41097e-07
6.01582e-07
1.2692e-06
4.87947e-07
5.625e-07
9.44419e-07
3.68359e-07
5.02318e-07
6.94308e-07
2.78439e-07
4.37776e-07
5.06452e-07
2.11974e-07
3.7705e-07
3.67908e-07
1.63035e-07
3.23396e-07
2.66816e-07
1.27018e-07
2.77386e-07
1.93509e-07
1.00409e-07
2.38486e-07
1.40477e-07
8.05687e-08
2.05766e-07
1.02122e-07
6.56008e-08
1.78232e-07
7.43659e-08
5.4172e-08
1.5496e-07
5.42556e-08
4.53629e-08
1.35158e-07
3.96638e-08
3.84969e-08
1.18174e-07
2.9061e-08
3.30672e-08
1.03481e-07
2.13482e-08
2.87138e-08
9.06559e-08
1.57335e-08
2.51867e-08
7.93574e-08
1.16441e-08
2.23091e-08
6.93124e-08
8.66374e-09
1.99421e-08
6.0305e-08
6.48857e-09
1.79647e-08
5.21657e-08
4.89712e-09
1.62823e-08
4.47599e-08
3.72958e-09
1.48274e-08
3.79774e-08
2.87048e-09
1.35556e-08
3.17183e-08
2.23641e-09
1.24621e-08
2.58877e-08
1.76738e-09
1.15633e-08
2.04114e-08
1.41946e-09
1.08415e-08
1.52597e-08
1.16203e-09
1.01805e-08
1.05159e-08
1.00265e-09
9.6617e-09
6.60139e-09
8.55193e-10
8.16688e-09
8.85833e-10
7.62418e-09
9.89471e-10
9.96024e-10
1.00086e-09
2.88741e-10
2.91412e-10
2.93057e-10
-6.75876e-06
8.89789e-07
-8.07462e-07
-5.90942e-06
1.28465e-06
-4.1544e-07
-5.11385e-06
1.55756e-06
-7.80625e-08
-4.39594e-06
1.72611e-06
2.00208e-07
-3.74943e-06
1.74643e-06
3.91208e-07
-3.2438e-06
1.60882e-06
4.66496e-07
-2.89803e-06
1.42509e-06
4.8784e-07
-2.66921e-06
1.29465e-06
5.09439e-07
-2.48501e-06
1.32754e-06
5.61641e-07
-2.27194e-06
1.55084e-06
6.32155e-07
-1.96951e-06
1.86549e-06
6.93911e-07
-1.51767e-06
2.13423e-06
7.58796e-07
-9.97833e-07
2.23271e-06
7.74626e-07
-5.11655e-07
2.15561e-06
7.35109e-07
-1.29379e-07
1.9231e-06
6.53707e-07
1.25044e-07
1.62004e-06
5.50795e-07
2.70233e-07
1.30884e-06
4.48846e-07
3.37575e-07
1.02545e-06
3.58039e-07
3.55987e-07
7.86187e-07
2.82895e-07
3.46358e-07
5.93495e-07
2.22864e-07
3.22473e-07
4.42942e-07
1.75974e-07
2.92822e-07
3.28006e-07
1.39783e-07
2.62171e-07
2.41655e-07
1.11963e-07
2.32985e-07
1.77464e-07
9.05788e-08
2.06325e-07
1.30082e-07
7.41101e-08
1.82474e-07
9.52697e-08
6.13425e-08
1.6135e-07
6.97619e-08
5.13582e-08
1.4271e-07
5.10962e-08
4.34993e-08
1.26258e-07
3.74456e-08
3.72539e-08
1.11701e-07
2.74661e-08
3.22293e-08
9.87703e-08
2.01729e-08
2.8147e-08
8.72258e-08
1.48448e-08
2.48119e-08
7.6858e-08
1.09545e-08
2.20792e-08
6.74887e-08
8.11598e-09
1.98226e-08
5.8971e-08
6.04619e-09
1.79252e-08
5.11871e-08
4.5378e-09
1.62945e-08
4.40401e-08
3.44062e-09
1.48664e-08
3.74469e-08
2.64143e-09
1.36077e-08
3.13266e-08
2.05795e-09
1.25234e-08
2.55999e-08
1.63124e-09
1.16262e-08
2.02054e-08
1.30588e-09
1.09004e-08
1.51177e-08
1.07558e-09
1.02375e-08
1.04295e-08
7.90879e-10
9.72916e-09
6.47689e-09
6.60711e-10
8.25808e-09
-6.93348e-11
7.78317e-09
9.50748e-10
9.43981e-10
9.34494e-10
2.80708e-10
2.78645e-10
2.75098e-10
-6.65832e-06
7.60347e-07
-1.10252e-06
-5.89405e-06
1.01122e-06
-8.44391e-07
-5.1479e-06
1.17566e-06
-6.0116e-07
-4.44278e-06
1.26629e-06
-3.76616e-07
-3.82531e-06
1.27761e-06
-2.02603e-07
-3.34893e-06
1.21715e-06
-9.72039e-08
-3.01961e-06
1.13887e-06
-3.30888e-08
-2.80398e-06
1.0896e-06