/*--------------------------------*- C++ -*----------------------------------*\
| =========                 |                                                 |
| \\      /  F ield         | OpenFOAM: The Open Source CFD Toolbox           |
|  \\    /   O peration     | Version:  2.3.1                                 |
|   \\  /    A nd           | Web:      www.OpenFOAM.org                      |
|    \\/     M anipulation  |                                                 |
\*---------------------------------------------------------------------------*/
FoamFile
{
    version     2.0;
    format      ascii;
    class       volScalarField;
    location    "5";
    object      Sed;
}
// * * * * * * * * * * * * * * * * * * * * * * * * * * * * * * * * * * * * * //

dimensions      [0 0 0 0 0 0 0];

internalField   nonuniform List<scalar> 
38152
(
8.28001e-301
1.22075e-301
1.67022e-302
2.27539e-303
3.19299e-304
4.35569e-305
5.89962e-306
9.44192e-307
1.72525e-307
2.644e-308
3.08492e-309
3.59796e-310
4.618e-311
4.90221e-312
2.93308e-313
7.73842e-315
9.32365e-317
5.92582e-319
3.18178e-321
0
0
0
0
0
0
0
0
0
0
0
0
0
0
0
0
0
0
0
0
0
0
0
0
0
6.80926e-303
1.11361e-303
1.92254e-304
6.07771e-305
2.25098e-305
4.76307e-306
6.40199e-307
9.05017e-308
2.65983e-308
6.83809e-309
1.28562e-309
1.77306e-310
1.29582e-311
5.53045e-313
1.65034e-314
2.59007e-316
2.18236e-318
5.12346e-321
0
0
0
0
0
0
0
0
0
0
0
0
0
0
0
0
0
0
0
0
0
0
0
0
0
0
5.06091e-304
1.60863e-304
4.44403e-305
1.19093e-305
4.5862e-306
1.68119e-306
3.74725e-307
5.49823e-308
7.01545e-309
1.26142e-309
2.28175e-310
3.552e-311
5.65986e-312
4.02848e-313
1.45159e-314
3.02937e-316
3.43304e-318
1.48071e-320
0
0
0
0
0
0
0
0
0
0
0
0
0
0
0
0
0
0
0
0
0
0
0
0
0
0
0
1.79933e-305
6.52984e-306
2.023e-306
6.01051e-307
2.24433e-307
6.60765e-308
1.00723e-308
7.81959e-310
6.1649e-311
1.57423e-311
3.92868e-312
8.76377e-313
1.3571e-313
7.56448e-315
2.13585e-316
3.25968e-318
2.14375e-320
2.25788e-321
0
0
0
0
0
0
0
0
0
0
0
0
0
0
0
0
0
0
0
0
0
0
0
0
0
0
0
1.65037e-307
5.28727e-308
1.56918e-308
5.34454e-309
1.14488e-309
1.12961e-310
6.29765e-312
5.7291e-313
1.94471e-313
5.56157e-314
1.45591e-314
2.03259e-315
9.09733e-317
2.01242e-318
1.96292e-320
4.51576e-321
0
0
0
0
0
0
0
0
0
0
0
0
0
0
0
0
0
0
0
0
0
0
0
0
0
0
0
0
2.17581e-309
7.34475e-310
2.28735e-310
7.36575e-311
1.19896e-311
8.26361e-313
3.47148e-314
3.70671e-315
1.55369e-315
5.42006e-316
1.59122e-316
1.93214e-317
7.23307e-319
7.59379e-321
2.25788e-321
0
0
0
0
0
0
0
0
0
0
0
0
0
0
0
0
0
0
0
0
0
0
0
0
0
0
0
0
0
2.84846e-311
1.68251e-311
6.05654e-312
1.95665e-312
5.795e-313
7.4174e-314
4.00473e-315
1.55615e-316
2.14026e-317
9.93103e-318
3.78294e-318
1.15228e-318
1.33635e-319
1.20848e-320
0
0
0
0
0
0
0
0
0
0
0
0
0
0
0
0
0
0
0
0
0
0
0
0
0
0
0
0
0
0
0
1.19044e-313
8.2602e-314
3.19101e-314
1.07599e-314
2.8999e-315
3.01052e-316
1.34693e-317
5.12475e-319
9.15849e-320
4.03108e-320
2.27665e-320
6.01772e-321
4.25885e-321
0
0
0
0
0
0
0
0
0
0
0
0
0
0
0
0
0
0
0
0
0
0
0
0
0
0
0
0
0
0
0
0
3.85112e-316
2.9767e-316
1.20027e-316
4.13274e-317
1.01071e-317
8.93122e-319
4.10025e-320
3.04839e-321
4.23414e-321
3.45846e-321
3.45846e-321
0
0
0
0
0
0
0
0
0
0
0
0
0
0
0
0
0
0
0
0
0
0
0
0
0
8.76739e-319
7.43757e-319
3.06494e-319
1.02835e-319
1.74702e-320
3.7549e-321
3.45846e-321
0
0
0
0
0
0
0
0
0
0
0
0
0
0
0
0
0
0
0
0
0
0
0
0
0
0
0
0
8.34477e-321
1.13783e-320
2.97428e-321
4.23414e-321
0
0
0
0
0
0
0
0
0
0
0
0
0
0
0
0
0
0
0
0
0
0
0
0
0
0
0
0
0
0
0
0
0
0
0
0
0
0
0
0
0
0
0
0
0
0
0
0
0
0
0
0
0
0
0
0
0
0
0
0
0
0
0
0
0
0
6.99448e-301
1.09893e-301
1.54575e-302
2.07966e-303
2.84098e-304
3.88955e-305
5.38395e-306
7.74207e-307
1.09668e-307
1.37859e-308
1.5435e-309
1.78722e-310
2.19924e-311
2.15719e-312
1.12004e-313
2.58707e-315
2.91971e-317
1.88427e-319
4.28355e-321
0
0
0
0
0
0
0
0
0
0
0
0
0
0
0
0
0
0
0
0
0
0
0
0
0
1.50912e-302
2.32541e-303
4.3476e-304
1.31642e-304
2.93973e-305
4.90893e-306
7.08035e-307
1.14624e-307
2.13814e-308
3.78971e-309
6.4373e-310
7.96826e-311
4.9448e-312
2.00098e-313
5.63299e-315
8.55954e-317
7.62363e-319
3.30036e-321
0
0
0
0
0
0
0
0
0
0
0
0
0
0
0
0
0
0
0
0
0
0
0
0
0
0
2.04697e-303
4.65398e-304
9.50956e-305
2.36659e-305
7.64896e-306
1.87104e-306
3.19195e-307
4.19166e-308
5.15261e-309
6.21773e-310
7.2296e-311
1.41907e-311
2.45241e-312
1.44515e-313
4.91222e-315
1.0277e-316
1.25416e-318
3.68573e-321
0
0
0
0
0
0
0
0
0
0
0
0
0
0
0
0
0
0
0
0
0
0
0
0
0
0
0
5.2695e-305
1.43459e-305
3.28713e-306
8.7099e-307
2.55183e-307
5.03516e-308
5.47535e-309
3.83083e-310
3.04331e-311
4.82689e-312
1.09712e-312
3.47421e-313
5.34848e-314
2.56435e-315
7.37201e-317
1.22967e-318
3.90806e-321
0
0
0
0
0
0
0
0
0
0
0
0
0
0
0
0
0
0
0
0
0
0
0
0
0
0
0
0
2.50976e-307
5.94896e-308
1.5889e-308
4.11351e-309
5.89205e-310
4.4523e-311
2.43889e-312
2.00694e-313
4.64762e-314
1.40924e-314
5.54881e-315
7.59062e-316
3.21303e-317
7.79695e-319
5.11358e-321
0
0
0
0
0
0
0
0
0
0
0
0
0
0
0
0
0
0
0
0
0
0
0
0
0
0
0
0
0
2.22844e-309
5.91133e-310
1.73346e-310
4.27751e-311
4.8859e-312
2.7508e-313
1.2236e-314
1.10862e-315
3.53411e-316
1.4874e-316
6.4211e-317
7.68729e-318
2.96296e-319
3.42387e-321
0
0
0
0
0
0
0
0
0
0
0
0
0
0
0
0
0
0
0
0
0
0
0
0
0
0
0
0
0
0
3.0586e-311
1.47339e-311
4.3936e-312
1.35939e-312
3.14912e-313
3.09117e-314
1.51186e-315
6.66177e-317
7.26205e-318
2.71576e-318
1.3291e-318
5.52469e-319
5.93817e-320
3.13732e-321
0
0
0
0
0
0
0
0
0
0
0
0
0
0
0
0
0
0
0
0
0
0
0
0
0
0
0
0
0
0
0
1.67539e-313
8.82464e-314
2.85897e-314
9.09492e-315
1.9466e-315
1.67848e-316
7.419e-318
3.24922e-319
3.99897e-320
1.11659e-320
8.31018e-321
3.1719e-321
3.4634e-321
0
0
0
0
0
0
0
0
0
0
0
0
0
0
0
0
0
0
0
0
0
0
0
0
0
0
0
0
0
0
0
0
9.68175e-316
5.14098e-316
1.70246e-316
5.28412e-317
1.0218e-317
7.77037e-319
3.76132e-320
2.81173e-320
3.45846e-321
0
0
0
0
0
0
0
0
0
0
0
0
0
0
0
0
0
0
0
0
0
0
0
0
0
0
0
4.79953e-318
2.48173e-318
8.66077e-319
2.49162e-319
3.51923e-320
3.80925e-321
3.45846e-321
3.45846e-321
0
0
0
0
0
0
0
0
0
0
0
0
0
0
0
0
0
0
0
0
0
0
0
0
0
0
0
1.63783e-320
1.68032e-320
5.79045e-321
6.17582e-322
3.45846e-321
0
0
0
0
0
0
0
0
0
0
0
0
0
0
0
0
0
0
0
0
0
0
0
0
0
0
0
0
0
0
0
0
0
0
0
0
0
0
0
0
0
0
0
0
0
0
0
0
0
0
0
0
0
0
0
0
0
0
0
0
0
0
0
0
0
4.83443e-301
7.59426e-302
1.04713e-302
1.3609e-303
1.63607e-304
1.77652e-305
1.8576e-306
2.00764e-307
2.28974e-308
2.63747e-309
3.01118e-310
3.64891e-311
4.70225e-312
4.3484e-313
1.88694e-314
3.68621e-316
3.72931e-318
2.45402e-320
3.45846e-321
0
0
0
0
0
0
0
0
0
0
0
0
0
0
0
0
0
0
0
0
0
0
0
0
0
1.26618e-302
1.60777e-303
4.23386e-304
1.06144e-304
1.60468e-305
1.91051e-306
2.14323e-307
2.75555e-308
4.22198e-309
7.51975e-310
1.33745e-310
1.46629e-311
7.45224e-313
3.12134e-314
8.33478e-316
1.22232e-317
1.01941e-319
3.38929e-321
0
0
0
0
0
0
0
0
0
0
0
0
0
0
0
0
0
0
0
0
0
0
0
0
0
0
1.87591e-303
3.57918e-304
5.68279e-305
1.68971e-305
4.53313e-306
7.79227e-307
1.02036e-307
1.18588e-308
1.22047e-309
1.28273e-310
1.56918e-311
3.67457e-312
4.47054e-313
2.05739e-314
7.2622e-316
1.59566e-317
2.08609e-319
3.41399e-321
0
0
0
0
0
0
0
0
0
0
0
0
0
0
0
0
0
0
0
0
0
0
0
0
0
0
0
3.39818e-305
7.2127e-306
1.29396e-306
3.90535e-307
9.6174e-308
1.23681e-308
1.2135e-309
9.65105e-311
6.50215e-312
8.48512e-313
2.45556e-313
8.23476e-314
8.62983e-315
3.67012e-316
1.19897e-317
2.24479e-319
5.68175e-321
0
0
0
0
0
0
0
0
0
0
0
0
0
0
0
0
0
0
0
0
0
0
0
0
0
0
0
0
7.63932e-308
1.5496e-308
4.62665e-309
9.59461e-310
9.36342e-311
7.17718e-312
4.58248e-313
3.29869e-314
7.49641e-315
3.0839e-315
1.21222e-315
1.22038e-316
5.30793e-318
1.49949e-319
5.66693e-321
0
0
0
0
0
0
0
0
0
0
0
0
0
0
0
0
0
0
0
0
0
0
0
0
0
0
0
0
0
4.53623e-310
1.15518e-310
3.88998e-311
7.79312e-312
6.58679e-313
4.03451e-314
2.17785e-315
1.82247e-316
6.46553e-317
3.6441e-317
1.47308e-317
1.44084e-318
5.88926e-320
4.31813e-321
0
0
0
0
0
0
0
0
0
0
0
0
0
0
0
0
0
0
0
0
0
0
0
0
0
0
0
0
0
0
7.78066e-312
3.14076e-312
9.27137e-313
3.18135e-313
6.09791e-314
4.91085e-315
2.81902e-316
1.51305e-317
1.48534e-318
6.50062e-319
4.07742e-319
1.5026e-319
1.77666e-320
3.46834e-321
0
0
0
0
0
0
0
0
0
0
0
0
0
0
0
0
0
0
0
0
0
0
0
0
0
0
0
0
0
0
0
6.23029e-314
2.58271e-314
8.30415e-315
2.78783e-315
4.98389e-316
3.79203e-317
2.03063e-318
9.62835e-320
9.75286e-321
8.53251e-321
8.45346e-321
4.29343e-321
2.25788e-321
0
0
0
0
0
0
0
0
0
0
0
0
0
0
0
0
0
0
0
0
0
0
0
0
0
0
0
0
0
0
0
0
5.65094e-316
2.27687e-316
7.44558e-317
2.33324e-317
3.76105e-318
2.48327e-319
1.27667e-320
3.3053e-321
0
0
0
0
0
0
0
0
0
0
0
0
0
0
0
0
0
0
0
0
0
0
0
0
0
0
0
0
4.54473e-318
1.72713e-318
5.53517e-319
1.55211e-319
2.69068e-320
4.30331e-321
0
0
0
0
0
0
0
0
0
0
0
0
0
0
0
0
0
0
0
0
0
0
0
0
0
0
0
0
0
1.80334e-320
1.12864e-319
5.32109e-321
4.24896e-321
3.45846e-321
0
0
0
0
0
0
0
0
0
0
0
0
0
0
0
0
0
0
0
0
0
0
0
0
0
0
0
0
0
0
2.25788e-321
4.94066e-324
0
0
0
0
0
0
0
0
0
0
0
0
0
0
0
0
0
0
0
0
0
0
0
0
0
0
0
0
0
0
0
0
0
3.21516e-301
4.8441e-302
6.52813e-303
7.65794e-304
7.16665e-305
5.83365e-306
4.84618e-307
4.43603e-308
4.42137e-309
4.63259e-310
5.07555e-311
6.20898e-312
7.96528e-313
6.41348e-314
2.18173e-315
3.50256e-317
3.20229e-319
1.12252e-320
0
0
0
0
0
0
0
0
0
0
0
0
0
0
0
0
0
0
0
0
0
0
0
0
0
0
7.95052e-303
9.64039e-304
3.4391e-304
5.33039e-305
4.69575e-306
3.98698e-307
4.04515e-308
4.80717e-309
6.91903e-310
1.22455e-310
2.13038e-311
1.76372e-312
7.88848e-314
3.62635e-315
8.72766e-317
1.18528e-318
7.83094e-321
0
0
0
0
0
0
0
0
0
0
0
0
0
0
0
0
0
0
0
0
0
0
0
0
0
0
0
1.53537e-303
1.76185e-304
2.64062e-305
9.08261e-306
1.4882e-306
1.73487e-307
1.89993e-308
1.88168e-309
1.72797e-310
1.84322e-311
2.61162e-312
6.34753e-313
4.78519e-314
2.0543e-315
8.21939e-317
1.83307e-318
1.83397e-320
0
0
0
0
0
0
0
0
0
0
0
0
0
0
0
0
0
0
0
0
0
0
0
0
0
0
0
0
1.73499e-305
2.12882e-306
3.67485e-307
1.18638e-307
1.92789e-308
2.04985e-309
1.80907e-310
1.26247e-311
8.96889e-313
1.16985e-313
4.15703e-314
1.188e-314
8.51152e-316
4.07199e-317
1.5468e-318
2.29296e-320
3.45352e-321
0
0
0
0
0
0
0
0
0
0
0
0
0
0
0
0
0
0
0
0
0
0
0
0
0
0
0
0
1.19226e-308
2.2604e-309
6.72105e-310
9.82992e-311
9.55005e-312
7.52982e-313
4.56711e-314
3.83796e-315
9.52998e-316
5.21062e-316
1.66594e-316
1.36343e-317
6.98574e-319
1.97429e-320
3.45352e-321
0
0
0
0
0
0
0
0
0
0
0
0
0
0
0
0
0
0
0
0
0
0
0
0
0
0
0
0
0
5.56436e-311
1.48401e-311
4.76939e-312
7.122e-313
6.33472e-314
4.23895e-315
2.44947e-316
2.49506e-317
9.86095e-318
7.04557e-318
2.27639e-318
1.823e-319
6.62048e-321
2.25788e-321
0
0
0
0
0
0
0
0
0
0
0
0
0
0
0
0
0
0
0
0
0
0
0
0
0
0
0
0
0
0
2.24189e-312
4.92171e-313
1.51262e-313
4.66376e-314
7.07176e-315
6.10311e-316
3.92588e-317
2.3075e-318
2.50857e-319
1.08531e-319
8.22718e-320
3.10767e-320
8.32995e-321
0
0
0
0
0
0
0
0
0
0
0
0
0
0
0
0
0
0
0
0
0
0
0
0
0
0
0
0
0
0
0
0
2.56349e-314
5.86547e-315
1.88678e-315
5.42929e-316
7.9507e-317
6.46219e-318
3.79645e-319
2.15857e-320
8.39912e-321
4.26873e-321
4.25885e-321
3.45352e-321
0
0
0
0
0
0
0
0
0
0
0
0
0
0
0
0
0
0
0
0
0
0
0
0
0
0
0
0
0
0
0
0
0
3.28572e-316
7.34102e-317
2.31172e-317
6.03481e-318
8.00001e-319
4.76082e-320
7.70248e-321
2.25788e-321
0
0
0
0
0
0
0
0
0
0
0
0
0
0
0
0
0
0
0
0
0
0
0
0
0
0
0
0
3.66452e-318
7.58183e-319
2.83105e-319
5.48215e-320
9.67381e-321
3.45352e-321
0
0
0
0
0
0
0
0
0
0
0
0
0
0
0
0
0
0
0
0
0
0
0
0
0
0
0
0
0
2.20304e-320
8.46334e-321
6.84281e-321
3.45352e-321
0
0
0
0
0
0
0
0
0
0
0
0
0
0
0
0
0
0
0
0
0
0
0
0
0
0
0
0
0
0
0
3.45846e-321
0
0
0
0
0
0
0
0
0
0
0
0
0
0
0
0
0
0
0
0
0
0
0
0
0
0
0
0
0
0
0
0
0
0
2.16728e-301
3.16507e-302
4.05873e-303
4.13343e-304
3.18975e-305
2.11347e-306
1.44457e-307
1.09501e-308
9.14816e-310
8.34915e-311
8.5161e-312
1.00733e-312
1.1598e-313
7.20138e-315
1.82948e-316
2.3825e-318
2.24059e-320
7.10466e-321
0
0
0
0
0
0
0
0
0
0
0
0
0
0
0
0
0
0
0
0
0
0
0
0
0
0
5.71036e-303
8.64227e-304
2.26986e-304
2.08889e-305
1.05696e-306
7.16062e-308
6.29698e-309
6.77826e-310
8.95807e-311
1.54961e-311
2.32737e-312
1.30917e-313
7.45989e-315
3.37834e-316
7.03581e-318
7.97422e-320
3.4881e-321
0
0
0
0
0
0
0
0
0
0
0
0
0
0
0
0
0
0
0
0
0
0
0
0
0
0
0
1.41101e-303
1.15292e-304
1.96751e-305
4.231e-306
3.7166e-307
2.86469e-308
2.37765e-309
1.96447e-310
1.72741e-311
1.89917e-312
3.69123e-313
6.13286e-314
3.32441e-315
1.86961e-316
7.92742e-318
1.644e-319
5.33591e-321
0
0
0
0
0
0
0
0
0
0
0
0
0
0
0
0
0
0
0
0
0
0
0
0
0
0
0
0
1.1745e-305
8.76272e-307
1.68444e-307
3.31948e-308
3.10966e-309
2.35054e-310
1.59647e-311
9.71596e-313
7.49162e-314
1.13369e-314
4.96918e-315
9.77702e-316
6.50096e-317
4.27785e-318
1.61732e-319
5.40014e-321
0
0
0
0
0
0
0
0
0
0
0
0
0
0
0
0
0
0
0
0
0
0
0
0
0
0
0
0
0
3.76561e-309
7.70439e-310
1.31407e-310
1.25243e-311
9.54713e-313
6.00202e-314
3.49557e-315
3.45621e-316
1.03349e-316
6.50282e-317
1.58515e-317
1.32147e-318
7.42778e-320
5.34579e-321
0
0
0
0
0
0
0
0
0
0
0
0
0
0
0
0
0
0
0
0
0
0
0
0
0
0
0
0
0
0
2.87056e-311
6.45149e-312
1.04223e-312
9.97711e-314
7.3156e-315
4.37975e-316
2.66803e-317
3.12782e-318
1.41228e-318
1.04978e-318
2.64236e-319
1.00048e-320
3.39423e-321
0
0
0
0
0
0
0
0
0
0
0
0
0
0
0
0
0
0
0
0
0
0
0
0
0
0
0
0
0
0
0
4.03678e-312
3.79809e-313
8.05885e-314
1.21196e-314
1.20453e-315
8.95142e-317
5.3923e-318
3.20683e-319
3.9461e-320
2.37053e-320
1.2322e-320
8.39418e-321
0
0
0
0
0
0
0
0
0
0
0
0
0
0
0
0
0
0
0
0
0
0
0
0
0
0
0
0
0
0
0
0
0
6.72219e-314
6.41689e-315
1.20373e-315
1.66744e-316
1.63394e-317
1.16751e-318
5.16348e-320
4.41201e-321
3.35965e-321
3.45352e-321
0
0
0
0
0
0
0
0
0
0
0
0
0
0
0
0
0
0
0
0
0
0
0
0
0
0
0
0
0
0
0
0
0
0
0
1.10888e-315
1.05677e-316
1.72854e-317
2.16521e-318
1.84207e-319
7.73707e-321
3.45846e-321
0
0
0
0
0
0
0
0
0
0
0
0
0
0
0
0
0
0
0
0
0
0
0
0
0
0
0
0
0
1.49904e-317
1.39597e-318
2.11055e-319
1.58644e-320
8.28054e-321
0
0
0
0
0
0
0
0
0
0
0
0
0
0
0
0
0
0
0
0
0
0
0
0
0
0
0
0
0
0
1.22079e-319
9.89613e-321
9.53547e-321
0
0
0
0
0
0
0
0
0
0
0
0
0
0
0
0
0
0
0
0
0
0
0
0
0
0
0
0
0
0
0
0
4.23908e-321
0
0
0
0
0
0
0
0
0
0
0
0
0
0
0
0
0
0
0
0
0
0
0
0
0
0
0
0
0
0
0
0
0
0
1.52958e-301
2.18639e-302
2.69072e-303
2.41999e-304
1.50279e-305
7.75358e-307
4.15887e-308
2.53778e-309
1.78288e-310
1.45202e-311
1.38051e-312
1.47877e-313
1.35681e-314
5.87134e-316
1.11708e-317
1.18709e-319
8.95247e-321
0
0
0
0
0
0
0
0
0
0
0
0
0
0
0
0
0
0
0
0
0
0
0
0
0
0
0
4.78642e-303
8.5861e-304
1.49807e-304
8.77076e-306
2.29432e-307
1.07548e-308
7.54906e-310
6.86009e-311
7.75994e-312
1.30599e-312
1.45094e-313
8.43166e-315
6.86815e-316
2.46564e-317
4.35746e-319
4.56517e-321
0
0
0
0
0
0
0
0
0
0
0
0
0
0
0
0
0
0
0
0
0
0
0
0
0
0
0
0
1.47109e-303
1.11736e-304
1.92655e-305
2.27794e-306
8.45669e-308
3.17769e-309
1.80497e-310
1.27631e-311
1.0891e-312
1.2107e-313
2.68513e-314
3.32319e-315
2.1514e-316
1.6926e-317
6.42715e-319
9.09081e-322
0
0
0
0
0
0
0
0
0
0
0
0
0
0
0
0
0
0
0
0
0
0
0
0
0
0
0
0
0
2.03413e-305
1.08212e-306
1.52267e-307
1.13019e-308
4.22906e-310
1.64175e-311
8.02408e-313
4.79829e-314
3.74732e-315
6.70698e-316
3.24402e-316
5.83489e-317
5.19143e-318
4.35721e-319
4.11063e-321
0
0
0
0
0
0
0
0
0
0
0
0
0
0
0
0
0
0
0
0
0
0
0
0
0
0
0
0
0
0
9.40033e-309
1.21024e-309
6.99824e-311
2.35269e-312
8.89204e-314
4.22623e-315
2.59391e-316
2.64565e-317
9.11964e-318
5.78787e-318
1.2725e-318
1.0867e-319
4.28948e-320
0
0
0
0
0
0
0
0
0
0
0
0
0
0
0
0
0
0
0
0
0
0
0
0
0
0
0
0
0
0
0
1.14069e-310
1.42461e-311
7.52223e-313
2.56091e-314
9.92688e-316
4.74359e-317
2.98393e-318
3.59848e-319
1.6109e-319
1.15162e-319
2.03209e-320
1.33398e-322
0
0
0
0
0
0
0
0
0
0
0
0
0
0
0
0
0
0
0
0
0
0
0
0
0
0
0
0
0
0
0
0
2.53479e-311
1.87145e-312
2.16505e-313
1.10861e-314
3.98649e-316
1.59184e-317
7.37492e-319
3.45599e-320
2.47033e-322
4.96042e-321
4.31813e-321
4.94066e-324
0
0
0
0
0
0
0
0
0
0
0
0
0
0
0
0
0
0
0
0
0
0
0
0
0
0
0
0
0
0
0
0
0
4.20646e-313
3.38079e-314
3.56828e-315
1.79115e-316
6.55275e-318
2.48401e-319
3.6462e-321
3.45352e-321
0
0
0
0
0
0
0
0
0
0
0
0
0
0
0
0
0
0
0
0
0
0
0
0
0
0
0
0
0
0
0
0
0
0
0
0
0
6.70151e-315
5.62202e-316
5.40418e-317
2.6479e-318
8.12343e-320
3.15708e-321
0
0
0
0
0
0
0
0
0
0
0
0
0
0
0
0
0
0
0
0
0
0
0
0
0
0
0
0
0
0
8.90092e-317
7.58793e-318
6.69904e-319
2.59483e-320
3.46834e-321
0
0
0
0
0
0
0
0
0
0
0
0
0
0
0
0
0
0
0
0
0
0
0
0
0
0
0
0
0
0
7.59735e-319
6.28007e-320
2.36163e-321
3.44858e-321
0
0
0
0
0
0
0
0
0
0
0
0
0
0
0
0
0
0
0
0
0
0
0
0
0
0
0
0
0
0
0
3.22625e-320
6.15112e-321
0
0
0
0
0
0
0
0
0
0
0
0
0
0
0
0
0
0
0
0
0
0
0
0
0
0
0
0
0
0
0
0
0
1.08146e-301
1.53865e-302
1.81447e-303
1.39111e-304
6.53395e-306
2.439e-307
9.63146e-309
4.58164e-310
2.69566e-311
1.91732e-312
1.63978e-313
1.56165e-314
1.10054e-315
3.31315e-317
4.87188e-319
5.78057e-321
7.6432e-321
0
0
0
0
0
0
0
0
0
0
0
0
0
0
0
0
0
0
0
0
0
0
0
0
0
0
0
4.09768e-303
7.67456e-304
1.03021e-304
3.93653e-306
3.87396e-308
1.07669e-309
5.65411e-311
4.04447e-312
3.71933e-313
5.87645e-314
6.46656e-315
6.94883e-316
4.96713e-317
1.36913e-318
1.22578e-320
0
0
0
0
0
0
0
0
0
0
0
0
0
0
0
0
0
0
0
0
0
0
0
0
0
0
0
0
0
1.43022e-303
1.20257e-304
2.04925e-305
1.67868e-306
2.07141e-308
2.06745e-310
7.45212e-312
4.63269e-313
3.68431e-314
4.18814e-315
1.05876e-315
1.50607e-316
1.65759e-317
1.3248e-318
3.32457e-320
3.45352e-321
0
0
0
0
0
0
0
0
0
0
0
0
0
0
0
0
0
0
0
0
0
0
0
0
0
0
0
0
0
2.73242e-305
1.94225e-306
2.91416e-307
1.51148e-308
1.23256e-310
1.2116e-312
3.72549e-314
2.15821e-315
1.70701e-316
3.37815e-317
1.76417e-317
3.57989e-318
4.62263e-319
3.61409e-320
2.47033e-323
0
0
0
0
0
0
0
0
0
0
0
0
0
0
0
0
0
0
0
0
0
0
0
0
0
0
0
0
0
0
2.64631e-308
3.63621e-309
1.52019e-310
1.61758e-312
1.71448e-314
3.96466e-316
2.16204e-317
2.20821e-318
7.43302e-319
4.65188e-319
9.54238e-320
3.70549e-321
3.45352e-321
0
0
0
0
0
0
0
0
0
0
0
0
0
0
0
0
0
0
0
0
0
0
0
0
0
0
0
0
0
0
0
4.14208e-310
5.3332e-311
2.12687e-312
3.1892e-314
4.152e-316
8.09067e-318
3.46192e-319
2.37991e-320
5.56318e-321
7.70248e-321
8.42876e-321
0
0
0
0
0
0
0
0
0
0
0
0
0
0
0
0
0
0
0
0
0
0
0
0
0
0
0
0
0
0
0
0
0
7.27397e-311
7.34467e-312
8.65178e-313
3.50692e-314
6.70703e-316
1.03013e-317
1.77513e-319
5.82503e-321
1.4822e-323
8.3003e-321
0
0
0
0
0
0
0
0
0
0
0
0
0
0
0
0
0
0
0
0
0
0
0
0
0
0
0
0
0
0
0
0
0
0
0
1.27701e-312
1.31184e-313
1.4069e-314
5.81587e-316
1.27763e-317
2.02122e-319
5.65705e-321
4.94066e-324
0
0
0
0
0
0
0
0
0
0
0
0
0
0
0
0
0
0
0
0
0
0
0
0
0
0
0
0
0
0
0
0
0
0
0
0
0
2.05924e-314
2.11163e-315
2.06598e-316
8.6114e-318
1.93269e-319
5.64717e-321
0
0
0
0
0
0
0
0
0
0
0
0
0
0
0
0
0
0
0
0
0
0
0
0
0
0
0
0
0
0
2.7529e-316
2.79279e-317
2.49839e-318
9.20395e-320
4.34778e-321
0
0
0
0
0
0
0
0
0
0
0
0
0
0
0
0
0
0
0
0
0
0
0
0
0
0
0
0
0
0
2.45189e-318
2.72788e-319
2.25442e-320
1.99108e-321
0
0
0
0
0
0
0
0
0
0
0
0
0
0
0
0
0
0
0
0
0
0
0
0
0
0
0
0
0
0
0
6.87739e-321
8.88824e-321
3.45846e-321
0
0
0
0
0
0
0
0
0
0
0
0
0
0
0
0
0
0
0
0
0
0
0
0
0
0
0
0
0
0
0
0
7.15732e-302
1.03512e-302
1.18175e-303
7.57088e-305
2.47903e-306
5.71524e-308
1.37284e-309
4.17679e-311
1.69057e-312
1.13385e-313
1.13445e-314
1.10239e-315
5.98158e-317
1.32595e-318
1.1655e-320
0
3.97229e-321
0
0
0
0
0
0
0
0
0
0
0
0
0
0
0
0
0
0
0
0
0
0
0
0
0
0
0
2.90027e-303
5.86228e-304
7.38734e-305
2.5757e-306
2.07483e-308
1.69625e-310
3.91913e-312
1.59281e-313
9.88021e-315
1.73888e-315
3.68802e-316
4.62338e-317
2.61787e-318
3.81863e-320
8.42382e-321
0
0
0
0
0
0
0
0
0
0
0
0
0
0
0
0
0
0
0
0
0
0
0
0
0
0
0
0
0
1.0452e-303
9.53062e-305
1.8328e-305
1.49943e-306
2.22599e-308
8.99203e-311
6.06036e-313
1.6075e-314
9.71089e-316
1.15926e-316
3.82691e-317
8.29882e-318
1.2097e-318
6.77117e-320
3.54739e-321
4.94066e-324
0
0
0
0
0
0
0
0
0
0
0
0
0
0
0
0
0
0
0
0
0
0
0
0
0
0
0
0
0
2.18289e-305
1.92182e-306
3.45338e-307
2.06009e-308
2.41102e-310
1.41303e-312
9.30689e-315
1.57257e-316
9.09561e-318
1.912e-318
1.02879e-318
2.36835e-319
3.51379e-320
8.42876e-321
0
0
0
0
0
0
0
0
0
0
0
0
0
0
0
0
0
0
0
0
0
0
0
0
0
0
0
0
0
0
0
3.26327e-308
5.58344e-309
2.85216e-310
4.07426e-312
3.69903e-314
3.11576e-316
3.91975e-318
1.85784e-319
5.27366e-320
2.25294e-320
4.63928e-321
2.47033e-323
4.94066e-324
0
0
0
0
0
0
0
0
0
0
0
0
0
0
0
0
0
0
0
0
0
0
0
0
0
0
0
0
0
0
0
6.0881e-310
9.65348e-311
4.63076e-312
8.35514e-314
1.02322e-315
1.084e-317
1.17064e-319
4.43177e-321
3.48316e-321
7.55426e-321
0
0
0
0
0
0
0
0
0
0
0
0
0
0
0
0
0
0
0
0
0
0
0
0
0
0
0
0
0
0
0
0
0
0
9.34469e-311
1.19793e-311
1.68532e-312
7.89275e-314
1.68149e-315
2.47209e-317
3.02917e-319
4.41201e-321
0
0
0
0
0
0
0
0
0
0
0
0
0
0
0
0
0
0
0
0
0
0
0
0
0
0
0
0
0
0
0
0
0
0
0
0
0
1.76906e-312
2.23399e-313
2.78189e-314
1.28584e-315
3.03248e-317
4.9165e-319
1.21688e-320
0
0
0
0
0
0
0
0
0
0
0
0
0
0
0
0
0
0
0
0
0
0
0
0
0
0
0
0
0
0
0
0
0
0
0
0
0
0
2.96415e-314
3.64959e-315
4.06503e-316
1.85666e-317
4.52367e-319
3.48316e-321
0
0
0
0
0
0
0
0
0
0
0
0
0
0
0
0
0
0
0
0
0
0
0
0
0
0
0
0
0
0
4.04895e-316
4.85982e-317
4.89865e-318
1.96203e-319
3.27566e-321
0
0
0
0
0
0
0
0
0
0
0
0
0
0
0
0
0
0
0
0
0
0
0
0
0
0
0
0
0
0
3.65697e-318
4.40598e-319
3.04987e-320
4.30331e-321
0
0
0
0
0
0
0
0
0
0
0
0
0
0
0
0
0
0
0
0
0
0
0
0
0
0
0
0
0
0
0
1.58002e-320
7.46533e-321
3.45846e-321
0
0
0
0
0
0
0
0
0
0
0
0
0
0
0
0
0
0
0
0
0
0
0
0
0
0
0
0
0
0
0
0
4.43878e-302
6.77097e-303
7.72494e-304
4.17415e-305
8.27911e-307
7.87932e-309
6.35509e-311
8.61662e-313
3.58388e-314
4.34107e-315
5.85468e-316
5.53882e-317
2.26149e-318
3.0301e-320
8.32007e-321
0
0
0
0
0
0
0
0
0
0
0
0
0
0
0
0
0
0
0
0
0
0
0
0
0
0
0
0
0
1.91456e-303
4.18383e-304
4.82053e-305
1.43615e-306
1.26415e-308
4.22575e-311
2.09175e-313
3.22098e-315
2.75565e-316
7.89019e-317
1.86911e-317
2.26296e-318
9.12539e-320
3.51775e-321
5.20745e-321
0
0
0
0
0
0
0
0
0
0
0
0
0
0
0
0
0
0
0
0
0
0
0
0
0
0
0
0
0
5.69693e-304
6.18854e-305
1.30415e-305
1.02997e-306
1.74167e-308
9.92398e-311
4.02278e-313
1.91706e-315
3.18379e-317
4.00989e-318
1.77553e-318
4.82302e-319
6.87245e-320
2.32211e-322
4.94066e-324
0
0
0
0
0
0
0
0
0
0
0
0
0
0
0
0
0
0
0
0
0
0
0
0
0
0
0
0
0
0
1.14808e-305
1.30701e-306
2.66662e-307
1.71974e-308
2.71118e-310
2.19348e-312
1.44582e-314
9.44383e-317
1.04191e-318
1.11703e-319
6.28303e-320
3.93276e-321
8.29536e-321
0
0
0
0
0
0
0
0
0
0
0
0
0
0
0
0
0
0
0
0
0
0
0
0
0
0
0
0
0
0
0
0
2.57566e-308
5.03395e-309
2.92107e-310
5.33302e-312
5.97206e-314
5.47102e-316
4.66861e-318
3.2307e-320
8.48805e-321
9.88131e-323
0
0
0
0
0
0
0
0
0
0
0
0
0
0
0
0
0
0
0
0
0
0
0
0
0
0
0
0
0
0
0
0
0
0
5.62173e-310
9.86608e-311
5.26346e-312
1.11309e-313
1.54286e-315
1.72962e-317
1.63733e-319
3.36459e-321
4.94066e-324
0
0
0
0
0
0
0
0
0
0
0
0
0
0
0
0
0
0
0
0
0
0
0
0
0
0
0
0
0
0
0
0
0
0
0
7.97412e-311
1.21551e-311
1.82975e-312
9.25294e-314
2.17649e-315
3.45577e-317
4.27214e-319
5.77069e-321
0
0
0
0
0
0
0
0
0
0
0
0
0
0
0
0
0
0
0
0
0
0
0
0
0
0
0
0
0
0
0
0
0
0
0
0
0
1.6435e-312
2.36785e-313
3.08309e-314
1.5056e-315
3.79454e-317
6.42849e-319
3.55727e-321
0
0
0
0
0
0
0
0
0
0
0
0
0
0
0
0
0
0
0
0
0
0
0
0
0
0
0
0
0
0
0
0
0
0
0
0
0
0
2.888e-314
3.94253e-315
4.52991e-316
2.15572e-317
5.44895e-319
3.67585e-321
0
0
0
0
0
0
0
0
0
0
0
0
0
0
0
0
0
0
0
0
0
0
0
0
0
0
0
0
0
0
4.05588e-316
5.29123e-317
5.44574e-318
2.41751e-319
3.95253e-322
0
0
0
0
0
0
0
0
0
0
0
0
0
0
0
0
0
0
0
0
0
0
0
0
0
0
0
0
0
0
3.69799e-318
4.63201e-319
3.77565e-320
4.31813e-321
0
0
0
0
0
0
0
0
0
0
0
0
0
0
0
0
0
0
0
0
0
0
0
0
0
0
0
0
0
0
0
1.58249e-320
3.04344e-321
3.45846e-321
0
0
0
0
0
0
0
0
0
0
0
0
0
0
0
0
0
0
0
0
0
0
0
0
0
0
0
0
0
0
0
0
3.04959e-302
4.39994e-303
4.0055e-304
1.36841e-305
1.50974e-307
4.94541e-310
7.50676e-313
6.90707e-315
5.82215e-316
1.34405e-316
2.26311e-317
1.99911e-318
5.90606e-320
2.96439e-323
0
0
0
0
0
0
0
0
0
0
0
0
0
0
0
0
0
0
0
0
0
0
0
0
0
0
0
0
0
0
1.72225e-303
3.09636e-304
2.19445e-305
3.95202e-307
2.60718e-309
6.69156e-312
1.51546e-314
7.27619e-317
7.42379e-318
2.79354e-318
7.54236e-319
7.80673e-320
1.5316e-322
4.94066e-324
0
0
0
0
0
0
0
0
0
0
0
0
0
0
0
0
0
0
0
0
0
0
0
0
0
0
0
0
0
0
3.51008e-304
4.87795e-305
8.29931e-306
4.2905e-307
5.88981e-309
3.92691e-311
1.85985e-313
8.08254e-316
4.05388e-318
1.63229e-319
8.44408e-320
1.34781e-320
5.2618e-321
0
0
0
0
0
0
0
0
0
0
0
0
0
0
0
0
0
0
0
0
0
0
0
0
0
0
0
0
0
0
0
0
7.22081e-306
1.0397e-306
1.70256e-307
8.06202e-309
1.24202e-310
1.16294e-312
8.79823e-315
6.12163e-317
4.20183e-319
5.28156e-321
4.39718e-321
0
0
0
0
0
0
0
0
0
0
0
0
0
0
0
0
0
0
0
0
0
0
0
0
0
0
0
0
0
0
0
0
0
0
2.25422e-308
3.4851e-309
1.59702e-310
2.92397e-312
3.54917e-314
3.52225e-316
3.15388e-318
2.24009e-320
2.25788e-321
0
0
0
0
0
0
0
0
0
0
0
0
0
0
0
0
0
0
0
0
0
0
0
0
0
0
0
0
0
0
0
0
0
0
0
5.24742e-310
7.14496e-311
3.16341e-312
6.59816e-314
9.45729e-316
1.09991e-317
9.60711e-320
3.48316e-321
0
0
0
0
0
0
0
0
0
0
0
0
0
0
0
0
0
0
0
0
0
0
0
0
0
0
0
0
0
0
0
0
0
0
0
0
7.73699e-311
1.14238e-311
1.34281e-312
5.83379e-314
1.33208e-315
2.13258e-317
2.69834e-319
4.39718e-321
0
0
0
0
0
0
0
0
0
0
0
0
0
0
0
0
0
0
0
0
0
0
0
0
0
0
0
0
0
0
0
0
0
0
0
0
0
1.62892e-312
2.19157e-313
2.26028e-314
9.70849e-316
2.35647e-317
4.01374e-319
5.83492e-321
0
0
0
0
0
0
0
0
0
0
0
0
0
0
0
0
0
0
0
0
0
0
0
0
0
0
0
0
0
0
0
0
0
0
0
0
0
0
2.87239e-314
3.57552e-315
3.30791e-316
1.40696e-317
3.33662e-319
1.2154e-320
0
0
0
0
0
0
0
0
0
0
0
0
0
0
0
0
0
0
0
0
0
0
0
0
0
0
0
0
0
0
4.0177e-316
4.69723e-317
3.94662e-318
1.47187e-319
2.37152e-322
0
0
0
0
0
0
0
0
0
0
0
0
0
0
0
0
0
0
0
0
0
0
0
0
0
0
0
0
0
0
3.65639e-318
4.32737e-319
2.72971e-320
4.28355e-321
0
0
0
0
0
0
0
0
0
0
0
0
0
0
0
0
0
0
0
0
0
0
0
0
0
0
0
0
0
0
0
8.63133e-321
8.98211e-321
3.45846e-321
0
0
0
0
0
0
0
0
0
0
0
0
0
0
0
0
0
0
0
0
0
0
0
0
0
0
0
0
0
0
0
0
1.66664e-302
1.31246e-303
5.48935e-305
8.08295e-307
5.27615e-309
9.30944e-312
7.40015e-315
3.52674e-317
7.15993e-318
3.08041e-318
6.26787e-319
5.16694e-320
7.41098e-323
0
0
0
0
0
0
0
0
0
0
0
0
0
0
0
0
0
0
0
0
0
0
1.04529e-303
7.17309e-305
2.06698e-306
2.33285e-308
1.31516e-310
3.73914e-313
9.11174e-316
2.61326e-318
1.33141e-319
7.66345e-320
9.86155e-321
8.41394e-321
0
0
0
0
0
0
0
0
0
0
0
0
0
0
0
0
0
0
0
0
0
0
0
2.82848e-304
2.29108e-305
1.56786e-306
4.60111e-308
5.61199e-310
4.21167e-312
2.46411e-314
1.30307e-316
6.52918e-319
4.84184e-322
8.46829e-321
8.33489e-321
0
0
0
0
0
0
0
0
0
0
0
0
0
0
0
0
0
0
0
0
0
0
0
0
6.28329e-306
4.93514e-307
3.7335e-308
1.21782e-309
1.85499e-311
1.93485e-313
1.66831e-315
1.30287e-317
8.86008e-320
8.31512e-321
0
0
0
0
0
0
0
0
0
0
0
0
0
0
0
0
0
0
0
0
0
0
0
0
0
0
1.20018e-308
9.33479e-310
3.21717e-311
5.83981e-313
7.56636e-315
8.12232e-317
7.80046e-319
8.36453e-321
0
0
0
0
0
0
0
0
0
0
0
0
0
0
0
0
0
0
0
0
0
0
0
0
0
0
0
0
2.9761e-310
2.19074e-311
7.73295e-313
1.56951e-314
2.31602e-316
2.80807e-318
2.25047e-320
4.94066e-324
0
0
0
0
0
0
0
0
0
0
0
0
0
0
0
0
0
0
0
0
0
0
0
0
0
0
0
0
7.92237e-311
6.63022e-312
4.54148e-313
1.62525e-314
3.55806e-316
5.71824e-318
5.8448e-320
3.4634e-321
0
0
0
0
0
0
0
0
0
0
0
0
0
0
0
0
0
0
0
0
0
0
0
0
0
0
0
0
0
1.61485e-312
1.28334e-313
8.22047e-315
2.96534e-316
6.82674e-318
1.03354e-319
3.52763e-321
0
0
0
0
0
0
0
0
0
0
0
0
0
0
0
0
0
0
0
0
0
0
0
0
0
0
0
0
0
0
2.7546e-314
2.10116e-315
1.27152e-316
4.59006e-318
9.28251e-320
9.38725e-323
0
0
0
0
0
0
0
0
0
0
0
0
0
0
0
0
0
0
0
0
0
0
0
0
0
0
0
0
0
0
3.73286e-316
2.74039e-317
1.56391e-318
4.61803e-320
6.42285e-323
0
0
0
0
0
0
0
0
0
0
0
0
0
0
0
0
0
0
0
0
0
0
0
0
0
0
0
0
0
0
3.26463e-318
2.18471e-319
9.01472e-320
3.44858e-321
0
0
0
0
0
0
0
0
0
0
0
0
0
0
0
0
0
0
0
0
0
0
0
0
0
0
0
0
0
0
0
1.01629e-320
7.67284e-321
4.94066e-324
0
0
0
0
0
0
0
0
0
0
0
0
0
0
0
0
0
0
0
0
0
0
0
0
0
0
0
0
0
0
0
0
3.95887e-303
1.12644e-304
2.4238e-306
2.02147e-308
9.24937e-311
1.0497e-313
6.47377e-317
1.3699e-319
6.94508e-320
6.452e-320
9.56511e-321
4.01181e-321
0
0
0
0
0
0
0
0
0
0
0
0
0
0
0
0
0
0
0
0
0
0
0
1.79308e-304
4.65998e-306
8.26497e-308
7.35986e-310
3.79038e-312
1.22328e-314
3.42194e-317
8.67382e-320
4.30825e-321
7.5592e-321
4.94066e-324
0
0
0
0
0
0
0
0
0
0
0
0
0
0
0
0
0
0
0
0
0
0
0
0
1.37827e-304
3.9935e-306
1.28943e-307
2.79624e-309
3.34117e-311
2.80754e-313
1.93239e-315
1.18757e-317
6.15705e-320
3.45846e-321
0
0
0
0
0
0
0
0
0
0
0
0
0
0
0
0
0
0
0
0
0
0
0
0
0
0
3.40243e-306
1.17584e-307
4.54462e-309
1.14689e-310
1.75131e-312
1.98422e-314
1.89087e-316
1.62254e-318
8.81413e-321
0
0
0
0
0
0
0
0
0
0
0
0
0
0
0
0
0
0
0
0
0
0
0
0
0
0
0
3.71705e-309
1.54191e-310
4.1984e-312
7.44438e-314
1.00447e-315
1.1409e-317
1.03067e-319
8.32501e-321
0
0
0
0
0
0
0
0
0
0
0
0
0
0
0
0
0
0
0
0
0
0
0
0
0
0
0
1.07904e-310
4.46852e-312
1.25735e-313
2.42504e-315
3.61121e-317
4.38192e-319
8.50287e-321
0
0
0
0
0
0
0
0
0
0
0
0
0
0
0
0
0
0
0
0
0
0
0
0
0
0
0
0
5.5635e-311
2.64397e-312
1.07741e-313
3.09254e-315
6.31363e-317
9.94613e-319
3.96241e-321
4.94066e-324
0
0
0
0
0
0
0
0
0
0
0
0
0
0
0
0
0
0
0
0
0
0
0
0
0
0
0
0
1.13813e-312
5.44599e-314
2.18412e-315
6.35157e-317
1.33869e-318
1.19011e-319
2.47033e-323
0
0
0
0
0
0
0
0
0
0
0
0
0
0
0
0
0
0
0
0
0
0
0
0
0
0
0
0
0
1.93182e-314
9.29058e-316
3.67543e-317
1.06631e-318
1.07212e-320
2.47033e-323
0
0
0
0
0
0
0
0
0
0
0
0
0
0
0
0
0
0
0
0
0
0
0
0
0
0
0
0
0
0
2.58275e-316
1.23287e-317
4.61205e-319
1.01234e-320
0
0
0
0
0
0
0
0
0
0
0
0
0
0
0
0
0
0
0
0
0
0
0
0
0
0
0
0
0
0
0
2.19655e-318
9.56066e-320
5.73116e-321
0
0
0
0
0
0
0
0
0
0
0
0
0
0
0
0
0
0
0
0
0
0
0
0
0
0
0
0
0
0
0
0
8.37441e-321
3.97229e-321
0
0
0
0
0
0
0
0
0
0
0
0
0
0
0
0
0
0
0
0
0
0
0
0
0
0
0
0
0
0
0
0
0
1.61807e-303
1.74785e-305
1.25173e-307
6.54627e-310
2.02797e-312
1.41063e-315
7.95742e-319
1.18378e-320
4.23414e-321
1.13586e-320
4.94066e-324
0
0
0
0
0
0
0
0
0
0
0
0
0
0
0
0
0
0
0
0
0
0
0
0
6.2619e-305
5.61879e-307
3.93727e-309
2.40078e-311
1.0196e-313
3.44472e-316
1.03183e-318
1.19762e-320
0
8.31018e-321
0
0
0
0
0
0
0
0
0
0
0
0
0
0
0
0
0
0
0
0
0
0
0
0
0
7.72748e-305
1.45472e-306
1.80041e-308
2.00732e-310
1.97132e-312
1.6515e-314
1.22154e-316
8.10381e-319
3.26083e-322
0
0
0
0
0
0
0
0
0
0
0
0
0
0
0
0
0
0
0
0
0
0
0
0
0
0
0
1.99773e-306
4.58537e-308
7.91229e-310
1.20591e-311
1.56332e-313
1.73405e-315
1.70414e-317
1.42681e-319
3.40905e-321
0
0
0
0
0
0
0
0
0
0
0
0
0
0
0
0
0
0
0
0
0
0
0
0
0
0
0
1.50801e-309
3.2573e-311
5.87408e-313
8.82834e-315
1.13275e-316
1.26503e-318
3.92782e-321
0
0
0
0
0
0
0
0
0
0
0
0
0
0
0
0
0
0
0
0
0
0
0
0
0
0
0
0
4.51212e-311
1.08399e-312
2.12748e-314
3.46048e-316
4.79792e-318
4.89421e-320
3.4634e-321
0
0
0
0
0
0
0
0
0
0
0
0
0
0
0
0
0
0
0
0
0
0
0
0
0
0
0
0
3.31699e-311
1.13287e-312
2.89597e-314
6.00829e-316
1.03201e-317
1.48803e-319
3.42387e-321
0
0
0
0
0
0
0
0
0
0
0
0
0
0
0
0
0
0
0
0
0
0
0
0
0
0
0
0
0
6.71405e-313
2.37829e-314
6.34658e-316
1.36992e-317
2.38856e-319
4.49106e-321
0
0
0
0
0
0
0
0
0
0
0
0
0
0
0
0
0
0
0
0
0
0
0
0
0
0
0
0
0