/*--------------------------------*- C++ -*----------------------------------*\
| =========                 |                                                 |
| \\      /  F ield         | OpenFOAM: The Open Source CFD Toolbox           |
|  \\    /   O peration     | Version:  2.3.1                                 |
|   \\  /    A nd           | Web:      www.OpenFOAM.org                      |
|    \\/     M anipulation  |                                                 |
\*---------------------------------------------------------------------------*/
FoamFile
{
    version     2.0;
    format      ascii;
    class       volScalarField;
    location    "5";
    object      Sed_0;
}
// * * * * * * * * * * * * * * * * * * * * * * * * * * * * * * * * * * * * * //

dimensions      [0 0 0 0 0 0 0];

internalField   nonuniform List<scalar> 
38152
(
7.85941e-301
1.15492e-301
1.57606e-302
2.14263e-303
2.99838e-304
4.07612e-305
5.51256e-306
8.82917e-307
1.6085e-307
2.44952e-308
2.84639e-309
3.31997e-310
4.2542e-311
4.48699e-312
2.655e-313
6.91877e-315
8.24757e-317
5.20325e-319
3.15708e-321
0
0
0
0
0
0
0
0
0
0
0
0
0
0
0
0
0
0
0
0
0
0
0
0
0
6.44676e-303
1.05115e-303
1.81354e-304
5.77876e-305
2.12102e-305
4.44786e-306
5.94472e-307
8.4251e-308
2.49394e-308
6.36204e-309
1.18968e-309
1.62523e-310
1.17282e-311
4.9805e-313
1.47654e-314
2.29532e-316
1.91552e-318
3.67585e-321
0
0
0
0
0
0
0
0
0
0
0
0
0
0
0
0
0
0
0
0
0
0
0
0
0
0
4.79879e-304
1.52454e-304
4.19709e-305
1.12302e-305
4.33527e-306
1.57833e-306
3.48796e-307
5.08734e-308
6.48085e-309
1.17069e-309
2.10374e-310
3.27756e-311
5.17741e-312
3.63114e-313
1.29956e-314
2.69052e-316
3.02243e-318
1.3241e-320
0
0
0
0
0
0
0
0
0
0
0
0
0
0
0
0
0
0
0
0
0
0
0
0
0
0
0
1.70491e-305
6.17064e-306
1.90503e-306
5.64823e-307
2.10837e-307
6.15902e-308
9.28907e-309
7.15499e-310
5.70125e-311
1.46563e-311
3.63161e-312
8.08435e-313
1.23444e-313
6.77857e-315
1.90113e-316
2.87808e-318
1.71688e-320
0
0
0
0
0
0
0
0
0
0
0
0
0
0
0
0
0
0
0
0
0
0
0
0
0
0
0
0
1.55449e-307
4.96072e-308
1.4688e-308
4.99258e-309
1.05918e-309
1.03449e-310
5.74859e-312
5.31733e-313
1.81009e-313
5.14028e-314
1.33979e-314
1.83849e-315
8.1117e-317
1.77964e-318
1.8063e-320
0
0
0
0
0
0
0
0
0
0
0
0
0
0
0
0
0
0
0
0
0
0
0
0
0
0
0
0
0
2.0435e-309
6.87051e-310
2.13468e-310
6.84694e-311
1.10265e-311
7.52442e-313
3.16388e-314
3.44734e-315
1.44569e-315
5.01053e-316
1.45953e-316
1.73881e-317
6.41524e-319
6.14124e-321
2.25788e-321
0
0
0
0
0
0
0
0
0
0
0
0
0
0
0
0
0
0
0
0
0
0
0
0
0
0
0
0
0
2.68608e-311
1.57668e-311
5.65109e-312
1.82109e-312
5.36347e-313
6.78873e-314
3.63362e-315
1.41836e-316
1.99191e-317
9.22298e-318
3.49437e-318
1.05373e-318
1.20809e-319
1.20503e-320
0
0
0
0
0
0
0
0
0
0
0
0
0
0
0
0
0
0
0
0
0
0
0
0
0
0
0
0
0
0
0
1.12089e-313
7.72584e-314
2.97075e-314
9.98918e-315
2.67343e-315
2.74424e-316
1.21898e-317
4.65884e-319
8.46433e-320
3.61607e-320
2.13585e-320
5.98808e-321
4.25391e-321
0
0
0
0
0
0
0
0
0
0
0
0
0
0
0
0
0
0
0
0
0
0
0
0
0
0
0
0
0
0
0
0
3.61937e-316
2.7785e-316
1.11492e-316
3.82713e-317
9.28372e-318
8.12471e-319
3.8127e-320
3.0385e-321
4.23414e-321
3.45846e-321
3.45846e-321
0
0
0
0
0
0
0
0
0
0
0
0
0
0
0
0
0
0
0
0
0
0
0
0
0
8.2134e-319
6.92295e-319
2.84147e-319
9.44555e-320
1.47034e-320
3.74502e-321
3.45846e-321
0
0
0
0
0
0
0
0
0
0
0
0
0
0
0
0
0
0
0
0
0
0
0
0
0
0
0
0
8.33983e-321
1.13734e-320
2.97428e-321
4.23414e-321
0
0
0
0
0
0
0
0
0
0
0
0
0
0
0
0
0
0
0
0
0
0
0
0
0
0
0
0
0
0
0
0
0
0
0
0
0
0
0
0
0
0
0
0
0
0
0
0
0
0
0
0
0
0
0
0
0
0
0
0
0
0
0
0
0
0
6.63821e-301
1.03925e-301
1.45705e-302
1.95552e-303
2.6651e-304
3.64056e-305
5.03089e-306
7.22197e-307
1.0198e-307
1.27665e-308
1.42537e-309
1.64922e-310
2.0248e-311
1.97134e-312
1.01158e-313
2.30956e-315
2.58096e-317
1.68002e-319
4.27861e-321
0
0
0
0
0
0
0
0
0
0
0
0
0
0
0
0
0
0
0
0
0
0
0
0
0
1.42832e-302
2.19395e-303
4.12066e-304
1.24209e-304
2.75795e-305
4.58415e-306
6.60101e-307
1.07e-307
1.99183e-308
3.52028e-309
5.95461e-310
7.29093e-311
4.46949e-312
1.80302e-313
5.03715e-315
7.58709e-317
6.70106e-319
3.25589e-321
0
0
0
0
0
0
0
0
0
0
0
0
0
0
0
0
0
0
0
0
0
0
0
0
0
0
1.94348e-303
4.40392e-304
8.97209e-305
2.23674e-305
7.20257e-306
1.75075e-306
2.96901e-307
3.88303e-308
4.76103e-309
5.73246e-310
6.64337e-311
1.31783e-311
2.23899e-312
1.30106e-313
4.40055e-315
9.137e-317
1.10575e-318
3.58198e-321
0
0
0
0
0
0
0
0
0
0
0
0
0
0
0
0
0
0
0
0
0
0
0
0
0
0
0
4.99996e-305
1.35472e-305
3.09335e-306
8.19565e-307
2.39071e-307
4.67964e-308
5.04427e-309
3.52063e-310
2.79334e-311
4.48071e-312
1.01519e-312
3.21924e-313
4.85388e-314
2.29762e-315
6.57275e-317
1.08582e-318
3.7796e-321
0
0
0
0
0
0
0
0
0
0
0
0
0
0
0
0
0
0
0
0
0
0
0
0
0
0
0
0
2.36326e-307
5.58114e-308
1.48915e-308
3.83474e-309
5.44264e-310
4.08143e-311
2.23705e-312
1.85134e-313
4.32031e-314
1.30826e-314
5.12543e-315
6.8564e-316
2.86852e-317
6.90654e-319
3.68079e-321
0
0
0
0
0
0
0
0
0
0
0
0
0
0
0
0
0
0
0
0
0
0
0
0
0
0
0
0
0
2.09467e-309
5.53608e-310
1.62014e-310
3.97039e-311
4.49139e-312
2.51017e-313
1.12027e-314
1.02692e-315
3.28958e-316
1.38382e-316
5.90776e-317
6.91476e-318
2.6598e-319
3.36459e-321
0
0
0
0
0
0
0
0
0
0
0
0
0
0
0
0
0
0
0
0
0
0
0
0
0
0
0
0
0
0
2.89098e-311
1.38264e-311
4.10755e-312
1.26702e-312
2.91233e-313
2.83132e-314
1.37637e-315
6.09299e-317
6.73492e-318
2.5275e-318
1.23564e-318
5.06076e-319
5.23314e-320
3.12249e-321
0
0
0
0
0
0
0
0
0
0
0
0
0
0
0
0
0
0
0
0
0
0
0
0
0
0
0
0
0
0
0
1.57975e-313
8.26414e-314
2.66759e-314
8.45349e-315
1.7941e-315
1.53252e-316
6.74106e-318
2.98001e-319
3.71784e-320
8.44852e-321
8.2756e-321
3.15214e-321
3.45846e-321
0
0
0
0
0
0
0
0
0
0
0
0
0
0
0
0
0
0
0
0
0
0
0
0
0
0
0
0
0
0
0
0
9.09883e-316
4.80185e-316
1.58458e-316
4.89672e-317
9.38461e-318
7.06435e-319
3.47575e-320
2.67882e-320
3.45846e-321
0
0
0
0
0
0
0
0
0
0
0
0
0
0
0
0
0
0
0
0
0
0
0
0
0
0
0
4.49601e-318
2.30937e-318
8.07511e-319
2.29632e-319
3.10026e-320
3.79442e-321
3.45846e-321
3.45846e-321
0
0
0
0
0
0
0
0
0
0
0
0
0
0
0
0
0
0
0
0
0
0
0
0
0
0
0
1.36757e-320
1.67686e-320
5.78057e-321
6.12641e-322
3.45846e-321
0
0
0
0
0
0
0
0
0
0
0
0
0
0
0
0
0
0
0
0
0
0
0
0
0
0
0
0
0
0
0
0
0
0
0
0
0
0
0
0
0
0
0
0
0
0
0
0
0
0
0
0
0
0
0
0
0
0
0
0
0
0
0
0
0
4.5845e-301
7.17307e-302
9.85659e-303
1.27734e-303
1.53097e-304
1.65807e-305
1.73056e-306
1.86754e-307
2.12566e-308
2.44189e-309
2.78173e-310
3.36777e-311
4.32684e-312
3.96389e-313
1.69859e-314
3.28246e-316
3.29078e-318
2.16648e-320
3.45846e-321
0
0
0
0
0
0
0
0
0
0
0
0
0
0
0
0
0
0
0
0
0
0
0
0
0
1.195e-302
1.51371e-303
4.0073e-304
9.9713e-305
1.50004e-305
1.78048e-306
1.99436e-307
2.56397e-308
3.92738e-309
6.98817e-310
1.23615e-310
1.3362e-311
6.72625e-313
2.81358e-314
7.44453e-316
1.08252e-317
8.89219e-320
3.38435e-321
0
0
0
0
0
0
0
0
0
0
0
0
0
0
0
0
0
0
0
0
0
0
0
0
0
0
1.7802e-303
3.37636e-304
5.35428e-305
1.59493e-305
4.25237e-306
7.26833e-307
9.48462e-308
1.09813e-308
1.12615e-309
1.18226e-310
1.44641e-311
3.40523e-312
4.05502e-313
1.85026e-314
6.51099e-316
1.41926e-317
1.8275e-319
3.39423e-321
0
0
0
0
0
0
0
0
0
0
0
0
0
0
0
0
0
0
0
0
0
0
0
0
0
0
0
3.22158e-305
6.79236e-306
1.21703e-306
3.67258e-307
8.98072e-308
1.14595e-308
1.11982e-309
8.86733e-311
5.96209e-312
7.92272e-313
2.28052e-313
7.60374e-314
7.78838e-315
3.29181e-316
1.07052e-317
1.97226e-319
5.65705e-321
0
0
0
0
0
0
0
0
0
0
0
0
0
0
0
0
0
0
0
0
0
0
0
0
0
0
0
0
7.18212e-308
1.45491e-308
4.33537e-309
8.91937e-310
8.64304e-311
6.60045e-312
4.20306e-313
3.03768e-314
7.00532e-315
2.87513e-315
1.11548e-315
1.09891e-316
4.75026e-318
1.32726e-319
5.64223e-321
0
0
0
0
0
0
0
0
0
0
0
0
0
0
0
0
0
0
0
0
0
0
0
0
0
0
0
0
0
4.26307e-310
1.08407e-310
3.63683e-311
7.21877e-312
6.05713e-313
3.69549e-314
1.99425e-315
1.68379e-316
6.04423e-317
3.40115e-317
1.35046e-317
1.29544e-318
5.30972e-320
4.30331e-321
0
0
0
0
0
0
0
0
0
0
0
0
0
0
0
0
0
0
0
0
0
0
0
0
0
0
0
0
0
0
7.35843e-312
2.94701e-312
8.68501e-313
2.9659e-313
5.63203e-314
4.50311e-315
2.57614e-316
1.38367e-317
1.37188e-318
6.05596e-319
3.78553e-319
1.37548e-319
1.50196e-320
3.4634e-321
0
0
0
0
0
0
0
0
0
0
0
0
0
0
0
0
0
0
0
0
0
0
0
0
0
0
0
0
0
0
0
5.86987e-314
2.4177e-314
7.75981e-315
2.59108e-315
4.58917e-316
3.46749e-317
1.85122e-318
8.77559e-320
9.70345e-321
8.51275e-321
8.43864e-321
4.28849e-321
0
0
0
0
0
0
0
0
0
0
0
0
0
0
0
0
0
0
0
0
0
0
0
0
0
0
0
0
0
0
0
0
0
5.30204e-316
2.12532e-316
6.93675e-317
2.16123e-317
3.44945e-318
2.27003e-319
1.13635e-320
3.30036e-321
0
0
0
0
0
0
0
0
0
0
0
0
0
0
0
0
0
0
0
0
0
0
0
0
0
0
0
0
4.24766e-318
1.60607e-318
5.14441e-319
1.43946e-319
2.41351e-320
4.29343e-321
0
0
0
0
0
0
0
0
0
0
0
0
0
0
0
0
0
0
0
0
0
0
0
0
0
0
0
0
0
1.66204e-320
1.1283e-319
5.31121e-321
4.24402e-321
3.45846e-321
0
0
0
0
0
0
0
0
0
0
0
0
0
0
0
0
0
0
0
0
0
0
0
0
0
0
0
0
0
0
0
4.94066e-324
0
0
0
0
0
0
0
0
0
0
0
0
0
0
0
0
0
0
0
0
0
0
0
0
0
0
0
0
0
0
0
0
0
3.04518e-301
4.57003e-302
6.13677e-303
7.1689e-304
6.68304e-305
5.42717e-306
4.50321e-307
4.11728e-308
4.09679e-309
4.28355e-310
4.68546e-311
5.72918e-312
7.31762e-313
5.82438e-314
1.95611e-315
3.10925e-317
2.84117e-319
1.12103e-320
0
0
0
0
0
0
0
0
0
0
0
0
0
0
0
0
0
0
0
0
0
0
0
0
0
0
7.47468e-303
9.09137e-304
3.24305e-304
4.98014e-305
4.36846e-306
3.70877e-307
3.76008e-308
4.46694e-309
6.42833e-310
1.13736e-310
1.96291e-311
1.59702e-312
7.13096e-314
3.26515e-315
7.78055e-317
1.04584e-318
7.72719e-321
0
0
0
0
0
0
0
0
0
0
0
0
0
0
0
0
0
0
0
0
0
0
0
0
0
0
0
1.45076e-303
1.65573e-304
2.49251e-305
8.54416e-306
1.3887e-306
1.61406e-307
1.76261e-308
1.73894e-309
1.59358e-310
1.69975e-311
2.42336e-312
5.83897e-313
4.31277e-314
1.8513e-315
7.37007e-317
1.62797e-318
1.67686e-320
0
0
0
0
0
0
0
0
0
0
0
0
0
0
0
0
0
0
0
0
0
0
0
0
0
0
0
0
1.63434e-305
1.99716e-306
3.46299e-307
1.11214e-307
1.79283e-308
1.89711e-309
1.66818e-310
1.15863e-311
8.23938e-313
1.09267e-313
3.8821e-314
1.08866e-314
7.65658e-316
3.66348e-317
1.38226e-318
2.13091e-320
3.45352e-321
0
0
0
0
0
0
0
0
0
0
0
0
0
0
0
0
0
0
0
0
0
0
0
0
0
0
0
0
1.11537e-308
2.12589e-309
6.28454e-310
9.12347e-311
8.82507e-312
6.92655e-313
4.18855e-314
3.54145e-315
8.91947e-316
4.87058e-316
1.52419e-316
1.22667e-317
6.2441e-319
1.82113e-320
3.45352e-321
0
0
0
0
0
0
0
0
0
0
0
0
0
0
0
0
0
0
0
0
0
0
0
0
0
0
0
0
0
5.20894e-311
1.39556e-311
4.45049e-312
6.59336e-313
5.83311e-314
3.88703e-315
2.24576e-316
2.30734e-317
9.23327e-318
6.57308e-318
2.07753e-318
1.64969e-319
6.54143e-321
2.25788e-321
0
0
0
0
0
0
0
0
0
0
0
0
0
0
0
0
0
0
0
0
0
0
0
0
0
0
0
0
0
0
2.10233e-312
4.60039e-313
1.41821e-313
4.33952e-314
6.52969e-315
5.60371e-316
3.5913e-317
2.11035e-318
2.31208e-319
9.88576e-320
7.66296e-320
2.82754e-320
8.31018e-321
0
0
0
0
0
0
0
0
0
0
0
0
0
0
0
0
0
0
0
0
0
0
0
0
0
0
0
0
0
0
0
0
2.39377e-314
5.46995e-315
1.76269e-315
5.03595e-316
7.31923e-317
5.91224e-318
3.44428e-319
1.8819e-320
8.38923e-321
4.26379e-321
4.25391e-321
3.45352e-321
0
0
0
0
0
0
0
0
0
0
0
0
0
0
0
0
0
0
0
0
0
0
0
0
0
0
0
0
0
0
0
0
0
3.05442e-316
6.82651e-317
2.15129e-317
5.57802e-318
7.32556e-319
4.3295e-320
7.68272e-321
2.25788e-321
0
0
0
0
0
0
0
0
0
0
0
0
0
0
0
0
0
0
0
0
0
0
0
0
0
0
0
0
3.3896e-318
6.98293e-319
2.69009e-319
5.05973e-320
9.63428e-321
3.45352e-321
0
0
0
0
0
0
0
0
0
0
0
0
0
0
0
0
0
0
0
0
0
0
0
0
0
0
0
0
0
2.05828e-320
8.43864e-321
6.83787e-321
3.45352e-321
0
0
0
0
0
0
0
0
0
0
0
0
0
0
0
0
0
0
0
0
0
0
0
0
0
0
0
0
0
0
0
3.45846e-321
0
0
0
0
0
0
0
0
0
0
0
0
0
0
0
0
0
0
0
0
0
0
0
0
0
0
0
0
0
0
0
0
0
0
2.05001e-301
2.98222e-302
3.80857e-303
3.85945e-304
2.96523e-305
1.95986e-306
1.338e-307
1.0131e-308
8.45201e-310
7.70386e-311
7.85227e-312
9.28089e-313
1.06197e-313
6.50675e-315
1.63345e-316
2.10682e-318
2.0899e-320
7.10466e-321
0
0
0
0
0
0
0
0
0
0
0
0
0
0
0
0
0
0
0
0
0
0
0
0
0
0
5.36492e-303
8.21436e-304
2.12915e-304
1.94076e-305
9.78392e-307
6.64328e-308
5.84214e-309
6.28642e-310
8.30469e-311
1.43713e-311
2.13079e-312
1.18115e-313
6.7728e-315
3.03313e-316
6.25786e-318
6.96336e-320
3.48316e-321
0
0
0
0
0
0
0
0
0
0
0
0
0
0
0
0
0
0
0
0
0
0
0
0
0
0
0
1.32654e-303
1.07838e-304
1.85952e-305
3.95258e-306
3.45573e-307
2.6571e-308
2.20032e-309
1.81249e-310
1.59264e-311
1.75108e-312
3.42957e-313
5.59172e-314
2.99287e-315
1.69125e-316
7.1005e-318
1.45675e-319
5.31615e-321
0
0
0
0
0
0
0
0
0
0
0
0
0
0
0
0
0
0
0
0
0
0
0
0
0
0
0
0
1.09649e-305
8.17473e-307
1.58533e-307
3.09213e-308
2.88215e-309
2.17071e-310
1.46812e-311
8.9177e-313
6.88429e-314
1.05928e-314
4.62364e-315
8.90271e-316
5.85972e-317
3.85804e-318
1.43146e-319
5.37049e-321
0
0
0
0
0
0
0
0
0
0
0
0
0
0
0
0
0
0
0
0
0
0
0
0
0
0
0
0
0
3.50679e-309
7.2298e-310
1.2217e-310
1.15926e-311
8.80076e-313
5.50806e-314
3.21034e-315
3.19022e-316
9.68402e-317
6.05225e-317
1.44394e-317
1.19043e-318
6.702e-320
5.31615e-321
0
0
0
0
0
0
0
0
0
0
0
0
0
0
0
0
0
0
0
0
0
0
0
0
0
0
0
0
0
0
2.66939e-311
6.03247e-312
9.66401e-313
9.21029e-314
6.72433e-315
4.01135e-316
2.44854e-317
2.8909e-318
1.32206e-318
9.75854e-319
2.40175e-319
7.19854e-321
3.38929e-321
0
0
0
0
0
0
0
0
0
0
0
0
0
0
0
0
0
0
0
0
0
0
0
0
0
0
0
0
0
0
0
3.73836e-312
3.5228e-313
7.502e-314
1.12077e-314
1.1092e-315
8.20772e-317
4.92733e-318
2.92497e-319
3.79541e-320
2.09879e-320
9.61452e-321
8.36947e-321
0
0
0
0
0
0
0
0
0
0
0
0
0
0
0
0
0
0
0
0
0
0
0
0
0
0
0
0
0
0
0
0
0
6.20374e-314
5.93209e-315
1.11545e-315
1.53733e-316
1.50017e-317
1.06614e-318
4.72821e-320
4.3873e-321
3.35965e-321
3.45352e-321
0
0
0
0
0
0
0
0
0
0
0
0
0
0
0
0
0
0
0
0
0
0
0
0
0
0
0
0
0
0
0
0
0
0
0
1.02002e-315
9.73557e-317
1.59481e-317
1.98713e-318
1.67296e-319
6.33886e-321
3.45352e-321
0
0
0
0
0
0
0
0
0
0
0
0
0
0
0
0
0
0
0
0
0
0
0
0
0
0
0
0
0
1.37438e-317
1.27813e-318
1.95571e-319
1.44218e-320
8.27066e-321
0
0
0
0
0
0
0
0
0
0
0
0
0
0
0
0
0
0
0
0
0
0
0
0
0
0
0
0
0
0
1.10829e-319
9.83191e-321
9.53053e-321
0
0
0
0
0
0
0
0
0
0
0
0
0
0
0
0
0
0
0
0
0
0
0
0
0
0
0
0
0
0
0
0
4.23908e-321
0
0
0
0
0
0
0
0
0
0
0
0
0
0
0
0
0
0
0
0
0
0
0
0
0
0
0
0
0
0
0
0
0
0
1.44512e-301
2.05787e-302
2.5204e-303
2.25297e-304
1.39176e-305
7.16228e-307
3.8376e-308
2.33986e-309
1.64262e-310
1.33732e-311
1.27097e-312
1.35866e-313
1.23604e-314
5.27463e-316
9.93182e-318
1.04322e-319
8.94753e-321
0
0
0
0
0
0
0
0
0
0
0
0
0
0
0
0
0
0
0
0
0
0
0
0
0
0
0
4.48722e-303
8.1109e-304
1.39868e-304
8.08977e-306
2.11824e-307
9.9407e-309
6.97957e-310
6.34022e-311
7.17533e-312
1.20753e-312
1.31717e-313
7.67117e-315
6.22676e-316
2.20561e-317
3.85514e-319
4.51082e-321
0
0
0
0
0
0
0
0
0
0
0
0
0
0
0
0
0
0
0
0
0
0
0
0
0
0
0
0
1.37898e-303
1.04326e-304
1.81028e-305
2.11034e-306
7.79911e-308
2.93171e-309
1.66468e-310
1.17539e-311
1.00273e-312
1.11754e-313
2.48142e-314
3.01415e-315
1.95072e-316
1.52991e-317
5.74015e-319
7.85564e-322
0
0
0
0
0
0
0
0
0
0
0
0
0
0
0
0
0
0
0
0
0
0
0
0
0
0
0
0
0
1.89402e-305
1.00444e-306
1.42234e-307
1.04216e-308
3.88822e-310
1.50824e-311
7.3604e-313
4.40119e-314
3.43735e-315
6.27514e-316
3.00671e-316
5.30203e-317
4.70262e-318
3.93009e-319
3.96735e-321
0
0
0
0
0
0
0
0
0
0
0
0
0
0
0
0
0
0
0
0
0
0
0
0
0
0
0
0
0
0
8.70772e-309
1.12458e-309
6.4299e-311
2.15548e-312
8.14838e-314
3.86939e-315
2.38024e-316
2.4367e-317
8.54482e-318
5.36348e-318
1.15507e-318
9.72173e-320
8.84378e-322
0
0
0
0
0
0
0
0
0
0
0
0
0
0
0
0
0
0
0
0
0
0
0
0
0
0
0
0
0
0
0
1.05544e-310
1.31772e-311
6.88873e-313
2.33994e-314
9.07485e-316
4.33469e-317
2.73202e-318
3.30471e-319
1.49964e-319
1.05419e-319
1.75146e-320
1.18576e-322
0
0
0
0
0
0
0
0
0
0
0
0
0
0
0
0
0
0
0
0
0
0
0
0
0
0
0
0
0
0
0
0
2.34311e-311
1.72855e-312
1.99404e-313
1.01251e-314
3.63354e-316
1.45105e-317
6.69775e-319
3.16597e-320
2.2233e-322
4.9456e-321
4.30331e-321
0
0
0
0
0
0
0
0
0
0
0
0
0
0
0
0
0
0
0
0
0
0
0
0
0
0
0
0
0
0
0
0
0
0
3.87857e-313
3.11497e-314
3.27337e-315
1.63136e-316
5.95608e-318
2.244e-319
3.57704e-321
3.45352e-321
0
0
0
0
0
0
0
0
0
0
0
0
0
0
0
0
0
0
0
0
0
0
0
0
0
0
0
0
0
0
0
0
0
0
0
0
0
6.16266e-315
5.16512e-316
4.93931e-317
2.40471e-318
7.26919e-320
3.13238e-321
0
0
0
0
0
0
0
0
0
0
0
0
0
0
0
0
0
0
0
0
0
0
0
0
0
0
0
0
0
0
8.16181e-317
6.94845e-318
6.13259e-319
2.44217e-320
3.4634e-321
0
0
0
0
0
0
0
0
0
0
0
0
0
0
0
0
0
0
0
0
0
0
0
0
0
0
0
0
0
0
6.92275e-319
5.71387e-320
2.33199e-321
3.45352e-321
0
0
0
0
0
0
0
0
0
0
0
0
0
0
0
0
0
0
0
0
0
0
0
0
0
0
0
0
0
0
0
3.22477e-320
6.15112e-321
0
0
0
0
0
0
0
0
0
0
0
0
0
0
0
0
0
0
0
0
0
0
0
0
0
0
0
0
0
0
0
0
0
1.02033e-301
1.44633e-302
1.69591e-303
1.29045e-304
6.02346e-306
2.24199e-307
8.84673e-309
4.20799e-310
2.47551e-311
1.76055e-312
1.50514e-313
1.42927e-314
9.96393e-316
2.96066e-317
4.29812e-319
5.7361e-321
7.6432e-321
0
0
0
0
0
0
0
0
0
0
0
0
0
0
0
0
0
0
0
0
0
0
0
0
0
0
0
3.84445e-303
7.22541e-304
9.57835e-305
3.6008e-306
3.54033e-308
9.89333e-310
5.20201e-311
3.72163e-312
3.42691e-313
5.41125e-314
5.8999e-315
6.34713e-316
4.47896e-317
1.21889e-318
1.07311e-320
0
0
0
0
0
0
0
0
0
0
0
0
0
0
0
0
0
0
0
0
0
0
0
0
0
0
0
0
0
1.33921e-303
1.12512e-304
1.91888e-305
1.54554e-306
1.86432e-308
1.88548e-310
6.84642e-312
4.25616e-313
3.38471e-314
3.86642e-315
9.7669e-316
1.37039e-316
1.51017e-317
1.19246e-318
2.89127e-320
3.45352e-321
0
0
0
0
0
0
0
0
0
0
0
0
0
0
0
0
0
0
0
0
0
0
0
0
0
0
0
0
0
2.54533e-305
1.81072e-306
2.71325e-307
1.38044e-308
1.11028e-310
1.10066e-312
3.4086e-314
1.97672e-315
1.56456e-316
3.15556e-317
1.63185e-317
3.25702e-318
4.18424e-319
3.18919e-320
1.97626e-323
0
0
0
0
0
0
0
0
0
0
0
0
0
0
0
0
0
0
0
0
0
0
0
0
0
0
0
0
0
0
2.462e-308
3.36929e-309
1.38392e-310
1.46086e-312
1.55113e-314
3.61276e-316
1.97929e-317
2.03523e-318
6.93288e-319
4.28854e-319
8.68666e-320
3.61656e-321
3.45352e-321
0
0
0
0
0
0
0
0
0
0
0
0
0
0
0
0
0
0
0
0
0
0
0
0
0
0
0
0
0
0
0
3.84494e-310
4.92159e-311
1.9338e-312
2.88149e-314
3.7468e-316
7.33248e-318
3.1508e-319
1.96441e-320
5.49895e-321
7.6432e-321
8.409e-321
0
0
0
0
0
0
0
0
0
0
0
0
0
0
0
0
0
0
0
0
0
0
0
0
0
0
0
0
0
0
0
0
0
6.73496e-311
6.79908e-312
7.95419e-313
3.1852e-314
6.05525e-316
9.27552e-318
1.5903e-319
5.78551e-321
9.88131e-324
8.3003e-321
0
0
0
0
0
0
0
0
0
0
0
0
0
0
0
0
0
0
0
0
0
0
0
0
0
0
0
0
0
0
0
0
0
0
0
1.17908e-312
1.21068e-313
1.28887e-314
5.2738e-316
1.15158e-317
1.807e-319
5.63235e-321
4.94066e-324
0
0
0
0
0
0
0
0
0
0
0
0
0
0
0
0
0
0
0
0
0
0
0
0
0
0
0
0
0
0
0
0
0
0
0
0
0
1.89593e-314
1.94257e-315
1.88626e-316
7.79092e-318
1.73289e-319
5.62741e-321
0
0
0
0
0
0
0
0
0
0
0
0
0
0
0
0
0
0
0
0
0
0
0
0
0
0
0
0
0
0
2.52711e-316
2.56078e-317
2.27124e-318
8.20939e-320
4.32802e-321
0
0
0
0
0
0
0
0
0
0
0
0
0
0
0
0
0
0
0
0
0
0
0
0
0
0
0
0
0
0
2.24388e-318
2.50358e-319
2.10917e-320
3.31024e-321
0
0
0
0
0
0
0
0
0
0
0
0
0
0
0
0
0
0
0
0
0
0
0
0
0
0
0
0
0
0
0
6.82799e-321
8.8833e-321
3.45846e-321
0
0
0
0
0
0
0
0
0
0
0
0
0
0
0
0
0
0
0
0
0
0
0
0
0
0
0
0
0
0
0
0
6.74308e-302
9.71754e-303
1.10194e-303
6.99229e-305
2.27076e-306
5.21439e-308
1.25131e-309
3.80736e-311
1.54211e-312
1.03941e-313
1.0406e-314
1.00508e-315
5.38183e-317
1.17849e-318
1.15068e-320
0
3.97229e-321
0
0
0
0
0
0
0
0
0
0
0
0
0
0
0
0
0
0
0
0
0
0
0
0
0
0
0
2.72165e-303
5.51121e-304
6.85174e-305
2.35072e-306
1.87389e-308
1.53625e-310
3.57143e-312
1.45428e-313
9.0477e-315
1.61521e-315
3.38491e-316
4.21075e-317
2.3458e-318
3.1057e-320
8.41394e-321
0
0
0
0
0
0
0
0
0
0
0
0
0
0
0
0
0
0
0
0
0
0
0
0
0
0
0
0
0
9.76626e-304
8.9238e-305
1.71437e-305
1.37841e-306
2.00489e-308
8.08192e-311
5.48098e-313
1.46707e-314
8.89548e-316
1.07051e-316
3.53815e-317
7.59576e-318
1.10075e-318
5.91298e-320
3.52763e-321
4.94066e-324
0
0
0
0
0
0
0
0
0
0
0
0
0
0
0
0
0
0
0
0
0
0
0
0
0
0
0
0
0
2.03097e-305
1.79502e-306
3.21493e-307
1.88222e-308
2.16947e-310
1.26707e-312
8.36248e-315
1.42817e-316
8.31773e-318
1.77532e-318
9.49051e-319
2.12942e-319
3.09285e-320
8.40406e-321
0
0
0
0
0
0
0
0
0
0
0
0
0
0
0
0
0
0
0
0
0
0
0
0
0
0
0
0
0
0
0
3.04222e-308
5.17658e-309
2.59862e-310
3.67354e-312
3.32073e-314
2.79319e-316
3.53557e-318
1.68896e-319
4.85469e-320
1.84039e-320
4.58987e-321
1.97626e-323
4.94066e-324
0
0
0
0
0
0
0
0
0
0
0
0
0
0
0
0
0
0
0
0
0
0
0
0
0
0
0
0
0
0
0
5.66224e-310
8.91356e-311
4.2126e-312
7.53886e-314
9.18989e-316
9.71014e-318
1.0285e-319
4.40212e-321
3.47822e-321
7.54932e-321
0
0
0
0
0
0
0
0
0
0
0
0
0
0
0
0
0
0
0
0
0
0
0
0
0
0
0
0
0
0
0
0
0
0
8.65401e-311
1.1106e-311
1.54998e-312
7.16913e-314
1.51634e-315
2.21859e-317
2.7143e-319
4.3873e-321
0
0
0
0
0
0
0
0
0
0
0
0
0
0
0
0
0
0
0
0
0
0
0
0
0
0
0
0
0
0
0
0
0
0
0
0
0
1.63366e-312
2.06399e-313
2.5489e-314
1.16575e-315
2.7307e-317
4.41542e-319
1.21194e-320
0
0
0
0
0
0
0
0
0
0
0
0
0
0
0
0
0
0
0
0
0
0
0
0
0
0
0
0
0
0
0
0
0
0
0
0
0
0
2.72937e-314
3.36011e-315
3.71154e-316
1.67947e-317
4.0667e-319
3.42387e-321
0
0
0
0
0
0
0
0
0
0
0
0
0
0
0
0
0
0
0
0
0
0
0
0
0
0
0
0
0
0
3.71717e-316
4.45877e-317
4.4582e-318
1.77528e-319
3.24107e-321
0
0
0
0
0
0
0
0
0
0
0
0
0
0
0
0
0
0
0
0
0
0
0
0
0
0
0
0
0
0
3.34509e-318
4.03997e-319
2.62892e-320
4.29343e-321
0
0
0
0
0
0
0
0
0
0
0
0
0
0
0
0
0
0
0
0
0
0
0
0
0
0
0
0
0
0
0
1.4402e-320
7.45545e-321
3.45846e-321
0
0
0
0
0
0
0
0
0
0
0
0
0
0
0
0
0
0
0
0
0
0
0
0
0
0
0
0
0
0
0
0
4.17731e-302
6.34941e-303
7.18663e-304
3.83562e-305
7.51538e-307
7.09474e-309
5.70941e-311
7.78098e-313
3.28704e-314
3.99168e-315
5.36591e-316
5.02756e-317
2.02326e-318
2.73021e-320
8.32007e-321
0
0
0
0
0
0
0
0
0
0
0
0
0
0
0
0
0
0
0
0
0
0
0
0
0
0
0
0
0
1.79813e-303
3.92635e-304
4.45759e-305
1.30601e-306
1.13331e-308
3.75403e-311
1.87239e-313
2.91388e-315
2.54858e-316
7.31107e-317
1.71521e-317
2.05064e-318
8.11453e-320
3.50293e-321
5.20745e-321
0
0
0
0
0
0
0
0
0
0
0
0
0
0
0
0
0
0
0
0
0
0
0
0
0
0
0
0
0
5.31335e-304
5.80078e-305
1.21777e-305
9.45114e-307
1.57179e-308
8.85937e-311
3.58046e-313
1.71255e-315
2.8939e-317
3.70865e-318
1.64124e-318
4.41413e-319
6.29687e-320
1.97626e-322
4.94066e-324
0
0
0
0
0
0
0
0
0
0
0
0
0
0
0
0
0
0
0
0
0
0
0
0
0
0
0
0
0
0
1.06727e-305
1.2222e-306
2.47951e-307
1.57093e-308
2.4456e-310
1.96659e-312
1.29237e-314
8.43391e-317
9.39416e-319
1.0196e-319
5.59332e-320
3.82901e-321
8.2756e-321
0
0
0
0
0
0
0
0
0
0
0
0
0
0
0
0
0
0
0
0
0
0
0
0
0
0
0
0
0
0
0
0
2.40337e-308
4.66342e-309
2.6615e-310
4.81295e-312
5.36177e-314
4.8953e-316
4.16746e-318
2.66301e-320
8.46829e-321
7.90505e-323
0
0
0
0
0
0
0
0
0
0
0
0
0
0
0
0
0
0
0
0
0
0
0
0
0
0
0
0
0
0
0
0
0
0
5.23061e-310
9.10213e-311
4.7866e-312
1.00415e-313
1.38489e-315
1.54676e-317
1.45082e-319
3.34977e-321
4.94066e-324
0
0
0
0
0
0
0
0
0
0
0
0
0
0
0
0
0
0
0
0
0
0
0
0
0
0
0
0
0
0
0
0
0
0
0
7.3809e-311
1.12678e-311
1.68114e-312
8.39868e-314
1.96126e-315
3.09862e-317
3.80011e-319
5.73116e-321
0
0
0
0
0
0
0
0
0
0
0
0
0
0
0
0
0
0
0
0
0
0
0
0
0
0
0
0
0
0
0
0
0
0
0
0
0
1.51651e-312
2.18666e-313
2.82187e-314
1.36373e-315
3.41395e-317
5.72928e-319
3.48316e-321
0
0
0
0
0
0
0
0
0
0
0
0
0
0
0
0
0
0
0
0
0
0
0
0
0
0
0
0
0
0
0
0
0
0
0
0
0
0
2.65665e-314
3.62731e-315
4.13151e-316
1.9479e-317
4.85172e-319
3.59186e-321
0
0
0
0
0
0
0
0
0
0
0
0
0
0
0
0
0
0
0
0
0
0
0
0
0
0
0
0
0
0
3.71957e-316
4.85062e-317
4.94982e-318
2.17547e-319
3.40905e-322
0
0
0
0
0
0
0
0
0
0
0
0
0
0
0
0
0
0
0
0
0
0
0
0
0
0
0
0
0
0
3.37884e-318
4.22382e-319
3.35174e-320
4.30331e-321
0
0
0
0
0
0
0
0
0
0
0
0
0
0
0
0
0
0
0
0
0
0
0
0
0
0
0
0
0
0
0
1.44218e-320
3.03356e-321
3.45846e-321
0
0
0
0
0
0
0
0
0
0
0
0
0
0
0
0
0
0
0
0
0
0
0
0
0
0
0
0
0
0
0
0
2.86493e-302
4.11281e-303
3.70366e-304
1.24634e-305
1.3561e-307
4.36519e-310
6.67059e-313
6.2224e-315
5.38425e-316
1.23852e-316
2.07043e-317
1.80628e-318
5.19115e-320
2.47033e-323
0
0
0
0
0
0
0
0
0
0
0
0
0
0
0
0
0
0
0
0
0
0
0
0
0
0
0
0
0
0
1.61704e-303
2.88887e-304
2.01207e-305
3.56756e-307
2.3247e-309
5.92681e-312
1.3398e-314
6.5273e-317
6.87347e-318
2.5875e-318
6.92225e-319
7.08885e-320
1.28457e-322
4.94066e-324
0
0
0
0
0
0
0
0
0
0
0
0
0
0
0
0
0
0
0
0
0
0
0
0
0
0
0
0
0
0
3.27373e-304
4.57015e-305
7.70453e-306
3.91001e-307
5.29982e-309
3.50572e-311
1.65466e-313
7.17364e-316
3.60866e-318
1.47849e-319
7.74547e-320
1.20157e-320
5.24204e-321
0
0
0
0
0
0
0
0
0
0
0
0
0
0
0
0
0
0
0
0
0
0
0
0
0
0
0
0
0
0
0
0
6.71535e-306
9.71544e-307
1.57503e-307
7.3305e-309
1.11829e-310
1.04127e-312
7.85106e-315
5.44871e-317
3.72748e-319
5.22227e-321
4.37248e-321
0
0
0
0
0
0
0
0
0
0
0
0
0
0
0
0
0
0
0
0
0
0
0
0
0
0
0
0
0
0
0
0
0
0
2.10048e-308
3.21364e-309
1.45017e-310
2.63341e-312
3.18042e-314
3.14497e-316
2.8082e-318
2.08298e-320
2.25788e-321
0
0
0
0
0
0
0
0
0
0
0
0
0
0
0
0
0
0
0
0
0
0
0
0
0
0
0
0
0
0
0
0
0
0
0
4.8721e-310
6.56314e-311
2.86845e-312
5.93894e-314
8.47047e-316
9.81336e-318
8.31908e-320
3.47328e-321
0
0
0
0
0
0
0
0
0
0
0
0
0
0
0
0
0
0
0
0
0
0
0
0
0
0
0
0
0
0
0
0
0
0
0
0
7.15339e-311
1.05639e-311
1.22886e-312
5.28061e-314
1.19753e-315
1.90778e-317
2.4106e-319
4.37248e-321
0
0
0
0
0
0
0
0
0
0
0
0
0
0
0
0
0
0
0
0
0
0
0
0
0
0
0
0
0
0
0
0
0
0
0
0
0
1.50105e-312
2.01851e-313
2.06131e-314
8.77013e-316
2.11483e-317
3.57091e-319
5.78551e-321
0
0
0
0
0
0
0
0
0
0
0
0
0
0
0
0
0
0
0
0
0
0
0
0
0
0
0
0
0
0
0
0
0
0
0
0
0
0
2.63837e-314
3.28054e-315
3.00701e-316
1.26823e-317
2.96538e-319
1.21046e-320
0
0
0
0
0
0
0
0
0
0
0
0
0
0
0
0
0
0
0
0
0
0
0
0
0
0
0
0
0
0
3.67855e-316
4.29378e-317
3.57434e-318
1.31461e-319
2.07508e-322
0
0
0
0
0
0
0
0
0
0
0
0
0
0
0
0
0
0
0
0
0
0
0
0
0
0
0
0
0
0
3.33823e-318
3.98731e-319
2.44414e-320
4.27367e-321
0
0
0
0
0
0
0
0
0
0
0
0
0
0
0
0
0
0
0
0
0
0
0
0
0
0
0
0
0
0
0
5.90903e-321
8.97223e-321
3.45846e-321
0
0
0
0
0
0
0
0
0
0
0
0
0
0
0
0
0
0
0
0
0
0
0
0
0
0
0
0
0
0
0
0
1.55575e-302
1.21559e-303
5.01978e-305
7.28808e-307
4.70503e-309
8.10406e-312
6.46678e-315
3.16406e-317
6.67439e-318
2.84317e-318
5.70453e-319
4.60074e-320
6.42285e-323
0
0
0
0
0
0
0
0
0
0
0
0
0
0
0
0
0
0
0
0
0
0
9.72345e-304
6.6098e-305
1.87665e-306
2.09625e-308
1.16909e-310
3.30581e-313
8.02979e-316
2.32032e-318
1.21935e-319
7.10121e-320
7.0849e-321
8.39418e-321
0
0
0
0
0
0
0
0
0
0
0
0
0
0
0
0
0
0
0
0
0
0
0
2.6337e-304
2.12424e-305
1.44133e-306
4.17001e-308
5.0407e-310
3.75982e-312
2.19187e-314
1.1558e-316
5.75221e-319
4.19956e-322
8.44852e-321
8.32995e-321
0
0
0
0
0
0
0
0
0
0
0
0
0
0
0
0
0
0
0
0
0
0
0
0
5.83048e-306
4.56698e-307
3.42799e-308
1.10346e-309
1.6679e-311
1.73108e-313
1.48736e-315
1.15797e-317
7.71335e-320
8.31018e-321
0
0
0
0
0
0
0
0
0
0
0
0
0
0
0
0
0
0
0
0
0
0
0
0
0
0
1.10851e-308
8.55078e-310
2.91316e-311
5.25107e-313
6.771e-315
7.24173e-317
6.93836e-319
8.3003e-321
0
0
0
0
0
0
0
0
0
0
0
0
0
0
0
0
0
0
0
0
0
0
0
0
0
0
0
0
2.74089e-310
2.00089e-311
6.99304e-313
1.41002e-314
2.07078e-316
2.50116e-318
2.0899e-320
4.94066e-324
0
0
0
0
0
0
0
0
0
0
0
0
0
0
0
0
0
0
0
0
0
0
0
0
0
0
0
0
7.29902e-311
6.08615e-312
4.13554e-313
1.46715e-314
3.19201e-316
5.10296e-318
5.11852e-320
3.45846e-321
0
0
0
0
0
0
0
0
0
0
0
0
0
0
0
0
0
0
0
0
0
0
0
0
0
0
0
0
0
1.48264e-312
1.17409e-313
7.46385e-315
2.67144e-316
6.11273e-318
9.04733e-320
3.51775e-321
0
0
0
0
0
0
0
0
0
0
0
0
0
0
0
0
0
0
0
0
0
0
0
0
0
0
0
0
0
0
2.52089e-314
1.9159e-315
1.15119e-316
4.12711e-318
8.13677e-320
7.90505e-323
0
0
0
0
0
0
0
0
0
0
0
0
0
0
0
0
0
0
0
0
0
0
0
0
0
0
0
0
0
0
3.40512e-316
2.4903e-317
1.41063e-318
4.17881e-320
5.43472e-323
0
0
0
0
0
0
0
0
0
0
0
0
0
0
0
0
0
0
0
0
0
0
0
0
0
0
0
0
0
0
2.96567e-318
1.98491e-319
8.8754e-320
3.44858e-321
0
0
0
0
0
0
0
0
0
0
0
0
0
0
0
0
0
0
0
0
0
0
0
0
0
0
0
0
0
0
0
8.76967e-321
7.6679e-321
4.94066e-324
0
0
0
0
0
0
0
0
0
0
0
0
0
0
0
0
0
0
0
0
0
0
0
0
0
0
0
0
0
0
0
0
3.65402e-303
1.03471e-304
2.19837e-306
1.81207e-308
8.21153e-311
9.0619e-314
5.59455e-317
1.19836e-319
6.5271e-320
5.89914e-320
6.83787e-321
4.00193e-321
0
0
0
0
0
0
0
0
0
0
0
0
0
0
0
0
0
0
0
0
0
0
0
1.6479e-304
4.26363e-306
7.46326e-308
6.59395e-310
3.36304e-312
1.08032e-314
3.01161e-317
7.65061e-320
4.29837e-321
7.55426e-321
0
0
0
0
0
0
0
0
0
0
0
0
0
0
0
0
0
0
0
0
0
0
0
0
0
1.2716e-304
3.66555e-306
1.17894e-307
2.52652e-309
2.99742e-311
2.50547e-313
1.7181e-315
1.05243e-317
5.29836e-320
3.45352e-321
0
0
0
0
0
0
0
0
0
0
0
0
0
0
0
0
0
0
0
0
0
0
0
0
0
0
3.13247e-306
1.07886e-307
4.14964e-309
1.03677e-310
1.57272e-312
1.7735e-314
1.6839e-316
1.44004e-318
7.36652e-321
0
0
0
0
0
0
0
0
0
0
0
0
0
0
0
0
0
0
0
0
0
0
0
0
0
0
0
3.40607e-309
1.40481e-310
3.79262e-312
6.68323e-314
8.9759e-316
1.01555e-317
9.01126e-320
8.32007e-321
0
0
0
0
0
0
0
0
0
0
0
0
0
0
0
0
0
0
0
0
0
0
0
0
0
0
0
9.86492e-311
4.06083e-312
1.13408e-313
2.17447e-315
3.22318e-317
3.8796e-319
8.4584e-321
0
0
0
0
0
0
0
0
0
0
0
0
0
0
0
0
0
0
0
0
0
0
0
0
0
0
0
0
5.09668e-311
2.4106e-312
9.76527e-314
2.78401e-315
5.65196e-317
8.86961e-319
3.83889e-321
4.94066e-324
0
0
0
0
0
0
0
0
0
0
0
0
0
0
0
0
0
0
0
0
0
0
0
0
0
0
0
0
1.03949e-312
4.95128e-314
1.97436e-315
5.70567e-317
1.19296e-318
1.18818e-319
2.47033e-323
0
0
0
0
0
0
0
0
0
0
0
0
0
0
0
0
0
0
0
0
0
0
0
0
0
0
0
0
0
1.75931e-314
8.42212e-316
3.31352e-317
9.53665e-319
9.1995e-321
2.47033e-323
0
0
0
0
0
0
0
0
0
0
0
0
0
0
0
0
0
0
0
0
0
0
0
0
0
0
0
0
0
0
2.34507e-316
1.11414e-317
4.14121e-319
8.69061e-321
0
0
0
0
0
0
0
0
0
0
0
0
0
0
0
0
0
0
0
0
0
0
0
0
0
0
0
0
0
0
0
1.98725e-318
8.56463e-320
5.70152e-321
0
0
0
0
0
0
0
0
0
0
0
0
0
0
0
0
0
0
0
0
0
0
0
0
0
0
0
0
0
0
0
0
8.32501e-321
3.97229e-321
0
0
0
0
0
0
0
0
0
0
0
0
0
0
0
0
0
0
0
0
0
0
0
0
0
0
0
0
0
0
0
0
0
1.48219e-303
1.58474e-305
1.12973e-307
5.87499e-310
1.80037e-312
1.22164e-315
6.90323e-319
1.18279e-320
4.23414e-321
1.13536e-320
0
0
0
0
0
0
0
0
0
0
0
0
0
0
0
0
0
0
0
0
0
0
0
0
0
5.70133e-305
5.08204e-307
3.53962e-309
2.14728e-311
9.04449e-314
3.04324e-316
9.07327e-319
1.19465e-320
0
8.31018e-321
0
0
0
0
0
0
0
0
0
0
0
0
0
0
0
0
0
0
0
0
0
0
0
0
0
7.09139e-305
1.32299e-306
1.6302e-308
1.80767e-310
1.76625e-312
1.47297e-314
1.08537e-316
7.16746e-319
2.76677e-322
0
0
0
0
0
0
0
0
0
0
0
0
0
0
0
0
0
0
0
0
0
0
0
0
0
0
0
1.82979e-306
4.17112e-308
7.16702e-310
1.08659e-311
1.40158e-313
1.54799e-315
1.51568e-317
1.25399e-319
3.39423e-321
0
0
0
0
0
0
0
0
0
0
0
0
0
0
0
0
0
0
0
0
0
0
0
0
0
0
0
1.37137e-309
2.94802e-311
5.28863e-313
7.90946e-315
1.01052e-316
1.1228e-318
3.79936e-321
0
0
0
0
0
0
0
0
0
0
0
0
0
0
0
0
0
0
0
0
0
0
0
0
0
0
0
0
4.09764e-311
9.7942e-313
1.91235e-314
3.09566e-316
4.27466e-318
4.18078e-320
3.45846e-321
0
0
0
0
0
0
0
0
0
0
0
0
0
0
0
0
0
0
0
0
0
0
0
0
0
0
0
0
3.02567e-311
1.02671e-312
2.6112e-314
5.39026e-316
9.21548e-318
1.3032e-319
3.40905e-321
0
0
0
0
0
0
0
0
0
0
0
0
0
0
0
0
0
0
0
0
0
0
0
0
0
0
0
0
0
6.10715e-313
2.1505e-314
5.70951e-316
1.22639e-317
2.12987e-319
4.46635e-321
0
0
0
0
0
0
0
0
0
0
0
0
0
0
0
0
0
0
0
0
0
0
0
0
0
0
0
0
0
0
1.02253e-314
3.70623e-316
1.01208e-317
2.07211e-319
4.43671e-321
0
0
0
0
0
0
0
0
0
0
0
0