/*--------------------------------*- C++ -*----------------------------------*\
| =========                 |                                                 |
| \\      /  F ield         | OpenFOAM: The Open Source CFD Toolbox           |
|  \\    /   O peration     | Version:  2.3.1                                 |
|   \\  /    A nd           | Web:      www.OpenFOAM.org                      |
|    \\/     M anipulation  |                                                 |
\*---------------------------------------------------------------------------*/
FoamFile
{
    version     2.0;
    format      ascii;
    class       volVectorField;
    location    "5";
    object      U;
}
// * * * * * * * * * * * * * * * * * * * * * * * * * * * * * * * * * * * * * //

dimensions      [0 1 -1 0 0 0 0];

internalField   nonuniform List<vector> 
38152
(
(0.164105 -0.0204073 0.00712864)
(0.157674 -0.0297708 0.0044776)
(0.15119 -0.0427052 0.0017231)
(0.161854 -0.03716 -0.00192598)
(0.176963 -0.00978022 -0.00339792)
(0.171005 0.00706652 -0.00511266)
(0.173542 -0.0240851 -0.00822905)
(0.237991 -0.0496657 -0.00526121)
(0.273279 0.0331096 -0.0040167)
(0.201331 0.0966358 -0.00900606)
(0.164095 0.0244474 -0.00988982)
(0.193388 -0.0540764 -0.00712161)
(0.220188 -0.0434797 8.50304e-05)
(0.156665 0.0101982 0.00699981)
(0.07425 0.021924 0.00700938)
(0.036083 0.010549 0.00344942)
(0.0197138 0.00422405 0.00140036)
(0.0117159 0.00188285 0.00065006)
(0.00751982 0.000933921 0.000350127)
(0.00512201 0.000509364 0.000209723)
(0.00365324 0.000300407 0.00013509)
(0.00270167 0.00018867 9.19258e-05)
(0.00205705 0.000124337 6.53249e-05)
(0.0016044 8.4929e-05 4.80979e-05)
(0.00127697 5.95805e-05 3.64968e-05)
(0.001034 4.26681e-05 2.84342e-05)
(0.000849557 3.10972e-05 2.26751e-05)
(0.000706584 2.30395e-05 1.84584e-05)
(0.000593561 1.73489e-05 1.53031e-05)
(0.000502537 1.32833e-05 1.28947e-05)
(0.000427934 1.03361e-05 1.10227e-05)
(0.000365793 8.16445e-06 9.54238e-06)
(0.000313252 6.53861e-06 8.35321e-06)
(0.000268217 5.2994e-06 7.38442e-06)
(0.000229145 4.33658e-06 6.58602e-06)
(0.000194873 3.5733e-06 5.92644e-06)
(0.000164498 2.95624e-06 5.38719e-06)
(0.000137262 2.46613e-06 4.95239e-06)
(0.000112533 2.08985e-06 4.60568e-06)
(8.97103e-05 1.80649e-06 4.33777e-06)
(6.8385e-05 1.57592e-06 4.1444e-06)
(4.796e-05 1.35881e-06 4.04353e-06)
(2.82235e-05 9.55095e-07 4.05403e-06)
(9.30273e-06 2.48877e-07 4.12395e-06)
(0.0502034 -0.00408686 -0.0129977)
(0.0618099 0.0126682 -0.0151916)
(0.075995 0.0293742 -0.0211424)
(0.0979989 0.0426777 -0.0250414)
(0.124656 0.0531687 -0.0215027)
(0.152876 0.051975 -0.0154138)
(0.177086 0.0338089 -0.0163322)
(0.19072 0.0256454 -0.0181936)
(0.206305 0.0480769 -0.00881624)
(0.258241 0.0392985 0.000409326)
(0.296669 0.0128062 0.00609222)
(0.191253 0.0295312 0.0106744)
(0.0816557 0.0494041 0.00758085)
(0.0391256 0.0466189 0.0046644)
(0.0247191 0.0292208 0.00314463)
(0.0181558 0.0146043 0.00164489)
(0.0127768 0.00719708 0.000864404)
(0.00893459 0.00377911 0.000491509)
(0.00632689 0.00211982 0.000298372)
(0.00457181 0.00126081 0.000190913)
(0.00337809 0.0007882 0.000127987)
(0.00255361 0.00051283 8.9421e-05)
(0.00197211 0.000344317 6.4786e-05)
(0.00155311 0.000236945 4.84523e-05)
(0.00124482 0.000166271 3.72598e-05)
(0.00101336 0.000118553 2.93676e-05)
(0.000836183 8.57159e-05 2.36672e-05)
(0.000697944 6.279e-05 1.94609e-05)
(0.000588083 4.65929e-05 1.62928e-05)
(0.000499207 3.50315e-05 1.38607e-05)
(0.000426082 2.66925e-05 1.19522e-05)
(0.000364968 2.06178e-05 1.04182e-05)
(0.000313141 1.61512e-05 9.1634e-06)
(0.000268594 1.28237e-05 8.12202e-06)
(0.000229839 1.03022e-05 7.24785e-06)
(0.000195746 8.35146e-06 6.51307e-06)
(0.000165447 6.81058e-06 5.89885e-06)
(0.000138218 5.60042e-06 5.39957e-06)
(0.000113441 4.67742e-06 5.0099e-06)
(9.05005e-05 4.02048e-06 4.72146e-06)
(6.89584e-05 3.51996e-06 4.54266e-06)
(4.80696e-05 3.26062e-06 4.5172e-06)
(2.75165e-05 2.51714e-06 4.40508e-06)
(8.73835e-06 2.47702e-06 3.87365e-06)
(0.0396082 0.0109443 -0.0136593)
(0.0562846 0.0194966 -0.0131949)
(0.0750305 0.02749 -0.0119946)
(0.0964019 0.0378591 -0.0106633)
(0.123237 0.0487476 -0.00823289)
(0.151034 0.0501208 -0.00297246)
(0.171688 0.0328707 0.00211301)
(0.175808 0.00553817 0.00259331)
(0.16797 -0.00766674 0.00136219)
(0.149938 -0.00274337 0.00767737)
(0.110315 0.00965128 0.0127058)
(0.0640569 0.0310556 0.00851884)
(0.0307508 0.0420284 0.00509369)
(0.0180307 0.0380671 0.0039629)
(0.0163984 0.0295546 0.00296005)
(0.015503 0.0194745 0.0019242)
(0.0127504 0.0116963 0.00111783)
(0.00966362 0.00701001 0.000656123)
(0.00713352 0.00427695 0.000399195)
(0.00526468 0.00267627 0.000254007)
(0.00393466 0.00171669 0.000168737)
(0.00298938 0.00112832 0.000116497)
(0.00231004 0.000757959 8.32697e-05)
(0.00181546 0.000518887 6.1423e-05)
(0.00144993 0.000360994 4.66075e-05)
(0.00117539 0.000254598 3.62689e-05)
(0.000965805 0.000181675 2.88719e-05)
(0.000803123 0.000131001 2.34715e-05)
(0.000674692 9.53935e-05 1.9456e-05)
(0.000571577 7.01353e-05 1.6413e-05)
(0.00048741 5.20715e-05 1.40591e-05)
(0.000417625 3.90652e-05 1.21921e-05)
(0.00035891 2.96551e-05 1.06791e-05)
(0.000308814 2.28156e-05 9.43687e-06)
(0.000265506 1.78036e-05 8.39919e-06)
(0.00022763 1.40821e-05 7.51926e-06)
(0.000194155 1.12666e-05 6.76633e-06)
(0.000164297 9.09116e-06 6.11968e-06)
(0.000137404 7.39771e-06 5.58219e-06)
(0.000112915 6.09062e-06 5.16051e-06)
(9.01855e-05 5.13537e-06 4.85619e-06)
(6.88858e-05 4.32278e-06 4.66608e-06)
(4.7858e-05 3.89208e-06 4.5942e-06)
(2.78578e-05 2.91199e-06 4.22381e-06)
(9.33384e-06 3.28981e-06 3.4705e-06)
(0.0512145 0.0276156 -0.00345016)
(0.0646416 0.033109 -0.00200442)
(0.074902 0.0363113 -0.000124403)
(0.0828342 0.0364131 0.00168033)
(0.0869763 0.0314883 0.00407095)
(0.0814377 0.0220499 0.00615471)
(0.0664817 0.0151664 0.00630261)
(0.0448805 0.013911 0.00461759)
(0.0249947 0.0173873 0.00342828)
(0.00893695 0.0235987 0.00327237)
(-0.0020997 0.0272631 0.00266233)
(-0.00511023 0.0307277 0.00250736)
(-0.00274107 0.0329249 0.00236075)
(0.0017923 0.0294582 0.00199793)
(0.00573241 0.0230364 0.00150634)
(0.00737914 0.0161064 0.00102639)
(0.00716825 0.0106535 0.00067597)
(0.0061892 0.00691649 0.00044696)
(0.00505408 0.00449016 0.000299741)
(0.00402455 0.00294912 0.00020426)
(0.00317694 0.00196819 0.000142643)
(0.0025133 0.00133374 0.000102201)
(0.00200356 0.000916687 7.5125e-05)
(0.00161367 0.000638071 5.66113e-05)
(0.00131437 0.000449094 4.3676e-05)
(0.00108276 0.000319145 3.44335e-05)
(0.0009016 0.000228716 2.76914e-05)
(0.00075811 0.000165164 2.26969e-05)
(0.00064284 0.000120128 1.89445e-05)
(0.000548864 8.79856e-05 1.60754e-05)
(0.000471119 6.49115e-05 1.38337e-05)
(0.000405896 4.82832e-05 1.20411e-05)
(0.000350446 3.6271e-05 1.05851e-05)
(0.000302688 2.75707e-05 9.39086e-06)
(0.000261047 2.12361e-05 8.39365e-06)
(0.000224351 1.65821e-05 7.54599e-06)
(0.000191705 1.31142e-05 6.81314e-06)
(0.000162437 1.04856e-05 6.17078e-06)
(0.000135977 8.4736e-06 5.62074e-06)
(0.000111828 6.93564e-06 5.18442e-06)
(8.92747e-05 5.84722e-06 4.87981e-06)
(6.81173e-05 4.94193e-06 4.68243e-06)
(4.69284e-05 5.19379e-06 4.58624e-06)
(2.6895e-05 4.8382e-06 4.05318e-06)
(9.14048e-06 9.71205e-06 3.00076e-06)
(0.0137581 0.0129629 0.0019446)
(0.015227 0.0149172 0.00268254)
(0.0142544 0.0170805 0.00338457)
(0.0102032 0.0184513 0.00365687)
(0.00428155 0.0168475 0.00317645)
(-0.000708643 0.0121228 0.00224293)
(-0.00462298 0.00628993 0.00164075)
(-0.00733178 0.00377967 0.00148123)
(-0.00883809 0.00618039 0.00157821)
(-0.00934292 0.0115595 0.00147446)
(-0.00790551 0.0169902 0.00134007)
(-0.0042645 0.0187865 0.00130656)
(-0.000248701 0.0177073 0.00112904)
(0.00269828 0.0148873 0.000881825)
(0.00411649 0.011424 0.000645259)
(0.00439607 0.00833233 0.000458554)
(0.00408544 0.00590865 0.000322754)
(0.00355138 0.0041331 0.000228538)
(0.00298957 0.00287545 0.000163866)
(0.00247751 0.00200313 0.000119192)
(0.00204072 0.0014021 8.83209e-05)
(0.00168229 0.000987367 6.67106e-05)
(0.00139344 0.000699713 5.13841e-05)
(0.00116203 0.000498949 4.03577e-05)
(0.000976423 0.000357882 3.22846e-05)
(0.000826757 0.000258111 2.62709e-05)
(0.000705045 0.000187123 2.17422e-05)
(0.000604971 0.000136338 1.82939e-05)
(0.000521693 9.98302e-05 1.56218e-05)
(0.00045155 7.34925e-05 1.35072e-05)
(0.000391774 5.44595e-05 1.18035e-05)
(0.000340242 4.06967e-05 1.04176e-05)
(0.000295296 3.07328e-05 9.28071e-06)
(0.000255666 2.3494e-05 8.33166e-06)
(0.000220399 1.81982e-05 7.52291e-06)
(0.000188767 1.42831e-05 6.81967e-06)
(0.00016023 1.13542e-05 6.19362e-06)
(0.000134319 9.15124e-06 5.64426e-06)
(0.000110654 7.48795e-06 5.1985e-06)
(8.84776e-05 6.31303e-06 4.86191e-06)
(6.83497e-05 5.36607e-06 4.57671e-06)
(4.77109e-05 5.74743e-06 4.3879e-06)
(3.21618e-05 5.51653e-06 3.64752e-06)
(1.61894e-05 1.13365e-05 3.31644e-06)
(-0.0200449 0.0120683 0.00110191)
(-0.0177782 0.0136074 0.00126691)
(-0.0153933 0.0142482 0.00135669)
(-0.0128663 0.0139075 0.00135876)
(-0.0107633 0.0123567 0.00118952)
(-0.00970839 0.0108604 0.000943165)
(-0.0101398 0.0100633 0.000705599)
(-0.0115636 0.0101735 0.000583163)
(-0.0124488 0.0111385 0.000569358)
(-0.0116828 0.0123262 0.000602715)
(-0.00912728 0.0136989 0.000668067)
(-0.00573783 0.0141072 0.00066365)
(-0.00252648 0.0131828 0.000594489)
(-2.31061e-05 0.0112578 0.000498682)
(0.00149439 0.00896633 0.000396776)
(0.00221301 0.00682527 0.000305523)
(0.0024098 0.00505082 0.000230691)
(0.00232076 0.00367885 0.000173054)
(0.00210388 0.00265607 0.00013017)
(0.00184789 0.00190853 9.87036e-05)
(0.00159682 0.00136965 7.56274e-05)
(0.00136973 0.00098383 5.87297e-05)
(0.00117287 0.000708191 4.62977e-05)
(0.00100584 0.000511146 3.70728e-05)
(0.000865367 0.000370003 3.01367e-05)
(0.000747455 0.000268656 2.48526e-05)
(0.000648179 0.000195678 2.08003e-05)
(0.000564032 0.000142975 1.76614e-05)
(0.000492125 0.000104814 1.51849e-05)
(0.000430158 7.71421e-05 1.31963e-05)
(0.000376291 5.70741e-05 1.15835e-05)
(0.000329033 4.25305e-05 1.02708e-05)
(0.000287169 3.19868e-05 9.19505e-06)
(0.000249747 2.43261e-05 8.29359e-06)
(0.000216055 1.87283e-05 7.5182e-06)
(0.000185549 1.46023e-05 6.83586e-06)
(0.000157828 1.15419e-05 6.22255e-06)
(0.000132511 9.26702e-06 5.68175e-06)
(0.000109287 7.5578e-06 5.24197e-06)
(8.73759e-05 6.27474e-06 4.89598e-06)
(6.76093e-05 5.24827e-06 4.58991e-06)
(4.7032e-05 4.70542e-06 4.3828e-06)
(3.21821e-05 3.9334e-06 3.70669e-06)
(1.57605e-05 4.42733e-06 3.72325e-06)
(-0.0278302 0.00238997 -3.08768e-05)
(-0.024526 0.00417864 0.000149175)
(-0.0213524 0.00545846 0.000280194)
(-0.0184041 0.00634807 0.000371942)
(-0.0156917 0.0064707 0.00040787)
(-0.0134549 0.00561043 0.000383507)
(-0.0118563 0.0044214 0.000347256)
(-0.0108351 0.00346902 0.000328943)
(-0.0101503 0.00352571 0.000340123)
(-0.00944846 0.00477499 0.000364189)
(-0.00848075 0.00662992 0.000377354)
(-0.00695403 0.00827166 0.000391105)
(-0.00494754 0.00900739 0.0003866)
(-0.00289545 0.00886056 0.000358922)
(-0.00114118 0.00795524 0.000314654)
(0.000102128 0.00667373 0.000262341)
(0.000857244 0.00533507 0.000212073)
(0.00124469 0.00412383 0.000168166)
(0.00139018 0.0031168 0.00013228)
(0.00139209 0.00232139 0.00010382)
(0.00131667 0.00171277 8.17247e-05)
(0.00120624 0.00125619 6.47395e-05)
(0.00108532 0.000918186 5.17163e-05)
(0.000966816 0.000670117 4.17321e-05)
(0.000856784 0.000488902 3.4086e-05)
(0.000757541 0.000356855 2.81785e-05)
(0.000669398 0.000260736 2.35697e-05)
(0.000591593 0.000190756 1.99609e-05)
(0.000522947 0.000139776 1.71058e-05)
(0.000462264 0.000102623 1.48084e-05)
(0.000408454 7.555e-05 1.29382e-05)
(0.000360529 5.58415e-05 1.1413e-05)
(0.000317595 4.15138e-05 1.01728e-05)
(0.000278864 3.11055e-05 9.15617e-06)
(0.000243699 2.35441e-05 8.29814e-06)
(0.000211624 1.80329e-05 7.54868e-06)
(0.000182283 1.39872e-05 6.87744e-06)
(0.000155417 1.10075e-05 6.26619e-06)
(0.000130725 8.81879e-06 5.72909e-06)
(0.000107956 7.19838e-06 5.28983e-06)
(8.63943e-05 5.98198e-06 4.93995e-06)
(6.693e-05 5.11681e-06 4.63366e-06)
(4.65095e-05 4.45016e-06 4.43943e-06)
(3.19194e-05 3.76944e-06 3.78642e-06)
(1.4658e-05 3.27698e-06 3.87461e-06)
(-0.0275354 0.0044072 -0.000372015)
(-0.0245506 0.0054795 -0.000259288)
(-0.0215808 0.0061308 -0.00016044)
(-0.0187208 0.0064594 -7.22728e-05)
(-0.0160906 0.00646958 -1.09258e-05)
(-0.0139535 0.0061887 1.7861e-05)
(-0.0124184 0.00582901 2.99667e-05)
(-0.0114409 0.00556608 3.99592e-05)
(-0.0107586 0.00555149 6.52749e-05)
(-0.00994601 0.00579388 0.000105663)
(-0.00873846 0.00620026 0.000152477)
(-0.00710342 0.00662675 0.00019358)
(-0.00526705 0.00674972 0.000214485)
(-0.00350462 0.00648335 0.000215575)
(-0.00200744 0.00584903 0.00020093)
(-0.000873712 0.00499915 0.000177343)
(-8.93491e-05 0.00409822 0.000150879)
(0.000407449 0.0032559 0.000125535)
(0.000693909 0.00252764 0.000103063)
(0.000836691 0.00192783 8.40775e-05)
(0.000886526 0.00145177 6.8487e-05)
(0.000879679 0.00108345 5.5922e-05)
(0.000840763 0.000803426 4.589e-05)
(0.000785401 0.000593165 3.79259e-05)
(0.000723087 0.000436669 3.1606e-05)
(0.000659415 0.000320915 2.65643e-05)
(0.000597525 0.00023564 2.25245e-05)
(0.000538993 0.000172968 1.92885e-05)
(0.000484476 0.000126988 1.66735e-05)
(0.000434149 9.33025e-05 1.45337e-05)
(0.000387929 6.86542e-05 1.27714e-05)
(0.000345567 5.0642e-05 1.13238e-05)
(0.000306703 3.74997e-05 1.01424e-05)
(0.000270947 2.79321e-05 9.17025e-06)
(0.000237945 2.09933e-05 8.34741e-06)
(0.000207426 1.59625e-05 7.62517e-06)
(0.000179204 1.22906e-05 6.96191e-06)
(0.00015316 9.62416e-06 6.34163e-06)
(0.000129069 7.6926e-06 5.79862e-06)
(0.000106723 6.2758e-06 5.35035e-06)
(8.54932e-05 5.14758e-06 4.99667e-06)
(6.62185e-05 4.39583e-06 4.718e-06)
(4.57848e-05 2.84074e-06 4.54817e-06)
(3.10226e-05 2.45288e-06 3.86562e-06)
(1.29612e-05 -3.41331e-06 3.72761e-06)
(-0.0262471 0.00108958 -0.000354461)
(-0.0235217 0.00192865 -0.00027346)
(-0.0208766 0.00251157 -0.000198008)
(-0.0183804 0.00284754 -0.000129693)
(-0.0160945 0.00289976 -7.35797e-05)
(-0.0141015 0.00272863 -3.05851e-05)
(-0.0124345 0.00251823 3.75912e-06)
(-0.0110671 0.00243054 3.32825e-05)
(-0.00990638 0.00264541 6.08059e-05)
(-0.00882223 0.00314485 8.55067e-05)
(-0.00770029 0.00376757 0.000107587)
(-0.00644552 0.00429005 0.00012703)
(-0.00507699 0.00453169 0.000139397)
(-0.00371312 0.00445804 0.000143098)
(-0.0024848 0.00410718 0.00013817)
(-0.00148046 0.00358934 0.000126982)
(-0.000717313 0.00300802 0.000112601)
(-0.000173336 0.00244092 9.73975e-05)
(0.000191336 0.00193247 8.29734e-05)
(0.000421003 0.00150149 7.00012e-05)
(0.000554559 0.00114836 5.87907e-05)
(0.00062108 0.000868382 4.93219e-05)
(0.000642821 0.000651024 4.14485e-05)
(0.000635806 0.000484914 3.4974e-05)
(0.000611071 0.000359424 2.96694e-05)
(0.000576108 0.000265437 2.53144e-05)
(0.000535876 0.0001955 2.17361e-05)
(0.000493536 0.000143703 1.87982e-05)
(0.000451051 0.000105487 1.63789e-05)
(0.000409619 7.73723e-05 1.43725e-05)
(0.000369953 5.67355e-05 1.27009e-05)
(0.000332411 4.16124e-05 1.13115e-05)
(0.000297096 3.05483e-05 1.01637e-05)
(0.00026396 2.24858e-05 9.21333e-06)
(0.000232886 1.66551e-05 8.41813e-06)
(0.000203754 1.24549e-05 7.72306e-06)
(-0.0259269 0.00208423 -0.000454081)
(-0.0233238 0.0024947 -0.000379985)
(-0.0207865 0.00276154 -0.000308504)
(-0.0183913 0.00289924 -0.000242425)
(-0.0162099 0.00291464 -0.000185621)
(-0.0143088 0.00283593 -0.000137591)
(-0.0127006 0.00272273 -9.58726e-05)
(-0.0113423 0.00263164 -5.79061e-05)
(-0.0101336 0.00261746 -2.1169e-05)
(-0.00895261 0.00268775 1.54499e-05)
(-0.00771998 0.00281928 4.88221e-05)
(-0.00642302 0.00295367 7.51176e-05)
(-0.00512046 0.00300629 9.16818e-05)
(-0.00389066 0.00292922 9.92772e-05)
(-0.00279308 0.00271304 0.000100042)
(-0.00186653 0.00239912 9.55967e-05)
(-0.00112613 0.00203966 8.79041e-05)
(-0.00056331 0.00167874 7.8691e-05)
(-0.000153868 0.00134623 6.91899e-05)
(0.000129156 0.00105889 5.99097e-05)
(0.000315296 0.000819034 5.16725e-05)
(0.000430981 0.000624904 4.43496e-05)
(0.000494819 0.000471789 3.80169e-05)
(0.000522357 0.000353246 3.26246e-05)
(0.000525124 0.000262733 2.80685e-05)
(0.000511578 0.000194363 2.42302e-05)
(0.000487754 0.000143138 2.10115e-05)
(0.000457839 0.000104995 1.83223e-05)
(0.000424683 7.67366e-05 1.60771e-05)
(0.000390205 5.58926e-05 1.41927e-05)
(0.000355692 4.05729e-05 1.26007e-05)
(0.000321949 2.93426e-05 1.12574e-05)
(0.000289438 2.11275e-05 1.01304e-05)
(0.000258384 1.51478e-05 9.19309e-06)
(0.000228843 1.08368e-05 8.41783e-06)
(-0.025365 0.000197115 -0.000389839)
(-0.0228924 0.000516312 -0.000333542)
(-0.0204981 0.000739131 -0.000277468)
(-0.0182326 0.000869573 -0.000224272)
(-0.0161434 0.00091694 -0.000175705)
(-0.0142661 0.000913708 -0.000132529)
(-0.0126093 0.000909857 -9.45303e-05)
(-0.0111521 0.000948676 -6.09906e-05)
(-0.00984595 0.00106154 -3.11668e-05)
(-0.00863189 0.00123361 -4.69419e-06)
(-0.00745466 0.00142081 1.90297e-05)
(-0.00627361 0.00156691 3.91623e-05)
(-0.00509772 0.00162997 5.4833e-05)
(-0.00397722 0.00160342 6.47752e-05)
(-0.00296276 0.00149951 6.94367e-05)
(-0.00208764 0.00134007 6.9708e-05)
(-0.00136682 0.00115152 6.68454e-05)
(-0.000798503 0.000957698 6.20578e-05)
(-0.000367455 0.000775114 5.6294e-05)
(-5.42185e-05 0.000613516 5.02256e-05)
(0.000163413 0.000478603 4.43171e-05)
(0.000308175 0.000366967 3.88316e-05)
(0.000398094 0.00027793 3.38804e-05)
(0.000447539 0.000208349 2.95047e-05)
(0.000468047 0.000154826 2.56903e-05)
(0.000468508 0.000114177 2.23982e-05)
(0.000455522 8.35976e-05 1.95819e-05)
(0.000433873 6.07657e-05 1.71896e-05)
(0.000406953 4.38239e-05 1.51623e-05)
(0.000377139 3.13304e-05 1.34403e-05)
(0.000346082 2.21694e-05 1.19703e-05)
(0.00031488 1.54791e-05 1.07168e-05)
(0.000284233 1.06088e-05 9.65068e-06)
(0.000254549 7.08014e-06 8.75438e-06)
(0.000226021 4.55127e-06 8.00705e-06)
(-0.025145 0.000550425 -0.000479404)
(-0.0227173 0.000582282 -0.000422347)
(-0.020366 0.000600968 -0.000365586)
(-0.0181436 0.000605485 -0.000310988)
(-0.0160967 0.000594159 -0.000259945)
(-0.0142548 0.000567588 -0.000213089)
(-0.0126201 0.000530946 -0.000170442)
(-0.0111666 0.000492367 -0.000131469)
(-0.00984599 0.000463125 -9.55463e-05)
(-0.00860452 0.000450972 -6.2538e-05)
(-0.00740072 0.000461409 -3.3046e-05)
(-0.00622051 0.000486734 -8.05854e-06)
(-0.00507807 0.000502889 1.19808e-05)
(-0.00400269 0.000496528 2.67215e-05)
(-0.00302802 0.000467045 3.65063e-05)
(-0.00218006 0.000420071 4.19769e-05)
(-0.00147231 0.000363199 4.4012e-05)
(-0.000905273 0.000303778 4.35743e-05)
(-0.00046754 0.000246993 4.14935e-05)
(-0.000141968 0.000196033 3.84057e-05)
(8.90375e-05 0.000153589 3.50316e-05)
(0.000246076 0.000117815 3.13987e-05)
(0.000347939 8.912e-05 2.79365e-05)
(0.00040767 6.65695e-05 2.47118e-05)
(0.000436729 4.9159e-05 2.17848e-05)
(0.000444096 3.59061e-05 1.91798e-05)
(0.000436568 2.59278e-05 1.68946e-05)
(0.000419166 1.84774e-05 1.49121e-05)
(0.000395514 1.29579e-05 1.32028e-05)
(0.000368192 8.90422e-06 1.17335e-05)
(0.000339019 5.9533e-06 1.0472e-05)
(0.000309231 3.8175e-06 9.38899e-06)
(0.000279644 2.27946e-06 8.45998e-06)
(0.000250762 1.17717e-06 7.67048e-06)
(0.000222847 3.97263e-07 7.00372e-06)
(0.17542 -0.012656 0.0132461)
(0.164094 -0.0256085 0.0109204)
(0.155008 -0.0309967 0.00376457)
(0.165871 -0.00488082 -0.0135397)
(0.176437 0.0217193 -0.0237651)
(0.181713 0.0239343 -0.0251262)
(0.194851 0.0129741 -0.0282493)
(0.215177 0.0281273 -0.0292898)
(0.208698 0.0667156 -0.0231652)
(0.17831 0.0541593 -0.0133346)
(0.165289 -0.017579 -0.0075416)
(0.185228 -0.0651971 -0.00291648)
(0.190593 -0.0352497 0.0134141)
(0.124362 0.0150688 0.0258242)
(0.060359 0.0203024 0.0194862)
(0.0322699 0.00946093 0.00878998)
(0.0185586 0.00395463 0.00373244)
(0.0113401 0.00181336 0.00181994)
(0.00738508 0.000913138 0.00100211)
(0.00507194 0.000501979 0.000604879)
(0.00363656 0.000297156 0.000391108)
(0.0026994 0.000186744 0.000266745)
(0.00206117 0.00012284 0.000189849)
(0.00161129 8.35749e-05 0.00013994)
(0.00128489 5.82816e-05 0.000106276)
(0.00104209 4.14078e-05 8.28534e-05)
(0.000857404 2.9881e-05 6.61061e-05)
(0.00071399 2.18744e-05 5.38314e-05)
(0.000600453 1.62406e-05 4.46382e-05)
(0.000508903 1.2233e-05 3.76179e-05)
(0.000433795 9.34136e-06 3.21595e-05)
(0.00037118 7.22123e-06 2.78464e-05)
(0.00031819 5.64224e-06 2.43893e-05)
(0.000272723 4.44473e-06 2.1581e-05)
(0.000233231 3.51676e-06 1.92741e-05)
(0.000198542 2.78136e-06 1.73739e-05)
(0.000167747 2.19004e-06 1.58185e-05)
(0.000140084 1.72547e-06 1.45613e-05)
(0.000114924 1.37258e-06 1.35577e-05)
(9.16748e-05 1.11286e-06 1.2781e-05)
(6.99241e-05 9.13967e-07 1.22199e-05)
(4.907e-05 7.69989e-07 1.19099e-05)
(2.88903e-05 4.31786e-07 1.17831e-05)
(9.81295e-06 -4.16649e-08 1.1571e-05)
(0.0608919 0.00828104 -0.0223268)
(0.0663032 0.0210343 -0.0266027)
(0.0765466 0.0331738 -0.0388121)
(0.0965334 0.041807 -0.0437487)
(0.1202 0.0430128 -0.0358584)
(0.144276 0.0311909 -0.0238153)
(0.163973 0.0141029 -0.0180579)
(0.173707 0.00958262 -0.0138603)
(0.187808 0.00602437 -0.00153794)
(0.241299 -0.0134579 0.00959977)
(0.246821 -0.00527457 0.0232469)
(0.140307 0.0288587 0.0307321)
(0.0595741 0.0464432 0.0211626)
(0.0309672 0.0423977 0.0133702)
(0.0223676 0.02637 0.00834207)
(0.0172285 0.0135301 0.00442244)
(0.0123793 0.00686904 0.00241405)
(0.0087644 0.00367216 0.00139723)
(0.00625431 0.00208118 0.000855625)
(0.00454376 0.00124504 0.000550138)
(0.0033711 0.000780806 0.000369944)
(0.00255651 0.000508669 0.000258949)
(0.00197947 0.00034147 0.000187802)
(0.00156226 0.000234664 0.000140526)
(0.00125441 0.000164261 0.000108082)
(0.00102274 0.000116706 8.51722e-05)
(0.000845054 8.39879e-05 6.86011e-05)
(0.000706217 6.11566e-05 5.63565e-05)
(0.000595772 4.50402e-05 4.7125e-05)
(0.00050638 3.35506e-05 4.00332e-05)
(0.000432823 2.52742e-05 3.44736e-05)
(0.000371341 1.92473e-05 3.00292e-05)
(0.000319184 1.48107e-05 2.64191e-05)
(0.000274321 1.14995e-05 2.34459e-05)
(0.000235236 8.98721e-06 2.09738e-05)
(0.000200773 7.04741e-06 1.89117e-05)
(0.000170039 5.53076e-06 1.71951e-05)
(0.000142302 4.35863e-06 1.57979e-05)
(0.000116967 3.47715e-06 1.46977e-05)
(9.34482e-05 2.85717e-06 1.38775e-05)
(7.13378e-05 2.40566e-06 1.33455e-05)
(4.99644e-05 2.2557e-06 1.31246e-05)
(2.94063e-05 1.69477e-06 1.25972e-05)
(1.00311e-05 2.06168e-06 1.09621e-05)
(0.0259421 0.00234957 -0.0247637)
(0.0428702 0.00906711 -0.0236738)
(0.0618676 0.0133901 -0.0208666)
(0.0832093 0.0194119 -0.0171152)
(0.106964 0.0251499 -0.010551)
(0.129496 0.0213492 -0.000882849)
(0.145275 0.00561743 0.00642347)
(0.144209 -0.0112123 0.00928784)
(0.126311 -0.0168909 0.0156464)
(0.0976556 -0.0114608 0.026747)
(0.0657552 0.00557153 0.025666)
(0.0392603 0.0288991 0.016819)
(0.0188147 0.0380239 0.0138886)
(0.0135701 0.0344733 0.0111912)
(0.0145922 0.0274876 0.0080192)
(0.014609 0.0184155 0.00516501)
(0.0122622 0.0112771 0.00309386)
(0.00942038 0.00684468 0.00185544)
(0.00701884 0.00420782 0.00114198)
(0.00521457 0.00264581 0.000731569)
(0.00391601 0.00170291 0.000488045)
(0.00298605 0.00112183 0.000337892)
(0.00231408 0.000754687 0.00024198)
(0.00182287 0.000517023 0.000178703)
(0.00145865 0.000359723 0.000135683)
(0.00118438 0.00025357 0.000105616)
(0.000974532 0.000180753 8.40747e-05)
(0.000811345 0.000130127 6.83177e-05)
(0.000682364 9.45361e-05 5.65717e-05)
(0.000578753 6.92825e-05 4.76494e-05)
(0.00049419 5.12203e-05 4.07393e-05)
(0.000424105 3.8205e-05 3.52724e-05)
(0.000365153 2.87616e-05 3.0868e-05)
(0.000314859 2.18622e-05 2.727e-05)
(0.000271371 1.6774e-05 2.42887e-05)
(0.000233293 1.29741e-05 2.1787e-05)
(0.000199556 1.00952e-05 1.96709e-05)
(0.000169337 7.88813e-06 1.78761e-05)
(0.000141962 6.19901e-06 1.63901e-05)
(0.000116891 4.91648e-06 1.52159e-05)
(9.35312e-05 3.98891e-06 1.4358e-05)
(7.16158e-05 3.23987e-06 1.37885e-05)
(5.0149e-05 2.95077e-06 1.34103e-05)
(3.0145e-05 2.253e-06 1.21909e-05)
(1.0827e-05 2.9339e-06 9.91966e-06)
(0.0295398 0.0116592 -0.00752328)
(0.0422925 0.0165206 -0.00391999)
(0.0520085 0.0187955 0.00056576)
(0.0593669 0.0182093 0.00549691)
(0.0625157 0.0146063 0.0117631)
(0.0565098 0.00964297 0.0165719)
(0.0430764 0.00812938 0.0164394)
(0.0254822 0.00958906 0.0116974)
(0.00970887 0.0133384 0.00760168)
(-0.00237411 0.0182405 0.00633319)
(-0.0088 0.0220431 0.00595697)
(-0.00857619 0.0272801 0.00664695)
(-0.00434049 0.0304404 0.00650576)
(0.00105742 0.0276225 0.00536607)
(0.00531973 0.0219559 0.00407758)
(0.0071186 0.0155475 0.0028461)
(0.00700686 0.0103885 0.00191103)
(0.00609706 0.00679421 0.0012774)
(0.00500543 0.00443511 0.000862278)
(0.00400234 0.00292455 0.000590444)
(0.00317044 0.00195725 0.000413699)
(0.00251529 0.00132898 0.000297152)
(0.00200988 0.000914711 0.000218831)
(0.00162195 0.000637292 0.000165109)
(0.00132332 0.000448764 0.000127481)
(0.00109168 0.000318933 0.000100554)
(0.000910124 0.000228495 8.08929e-05)
(0.00076608 0.000164883 6.6298e-05)
(0.000650255 0.000119776 5.52951e-05)
(0.000555809 8.75675e-05 4.68557e-05)
(0.000477707 6.44358e-05 4.02573e-05)
(0.000412223 4.77397e-05 3.49961e-05)
(0.000356572 3.5635e-05 3.07386e-05)
(0.000308659 2.68193e-05 2.72543e-05)
(0.000266891 2.03579e-05 2.43621e-05)
(0.000230053 1.55804e-05 2.19243e-05)
(0.000197209 1.20091e-05 1.98436e-05)
(0.000167637 9.31389e-06 1.80513e-05)
(0.000140732 7.27671e-06 1.65364e-05)
(0.000116009 5.73951e-06 1.53294e-05)
(9.28385e-05 4.65623e-06 1.44605e-05)
(7.11053e-05 3.80515e-06 1.38592e-05)
(4.95494e-05 4.07383e-06 1.34203e-05)
(2.96569e-05 3.88659e-06 1.18122e-05)
(1.09292e-05 9.11503e-06 9.08991e-06)
(-6.00835e-05 0.00456909 0.00448663)
(0.00216177 0.00703905 0.00660374)
(0.00235622 0.0100774 0.00813927)
(0.000243853 0.0125257 0.00856563)
(-0.00293177 0.0120958 0.0071593)
(-0.00542906 0.00850817 0.00517872)
(-0.00749438 0.00385722 0.0040064)
(-0.00908236 0.00202943 0.00367237)
(-0.0099838 0.00462743 0.00382284)
(-0.0101063 0.0104052 0.0036239)
(-0.00831503 0.0158865 0.00356285)
(-0.00447216 0.0178697 0.0035379)
(-0.000425962 0.0171057 0.00308545)
(0.00254557 0.0145227 0.00245588)
(0.00399977 0.0112131 0.00182406)
(0.00431878 0.00821727 0.00130952)
(0.00404062 0.00584818 0.000927854)
(0.00352923 0.00410248 0.000659903)
(0.00298154 0.00286106 0.000474713)
(0.002478 0.00199685 0.000346231)
(0.00204614 0.0013997 0.000257077)
(0.00169022 0.000986744 0.000194498)
(0.0014024 0.000699814 0.000150001)
(0.00117119 0.000499249 0.000117905)
(0.000985334 0.000358146 9.43665e-05)
(0.000835181 0.000258251 7.68198e-05)
(0.000712883 0.000187117 6.35744e-05)
(0.000612256 0.000136199 5.34484e-05)
(0.000528523 9.95844e-05 4.55801e-05)
(0.000458033 7.31566e-05 3.93569e-05)
(0.000397993 5.4024e-05 3.43564e-05)
(0.000346253 4.0138e-05 3.02941e-05)
(0.000301156 3.00322e-05 2.69638e-05)
(0.000261412 2.26469e-05 2.41929e-05)
(0.00022603 1.72167e-05 2.18477e-05)
(0.000194237 1.31937e-05 1.98312e-05)
(0.000165437 1.01935e-05 1.80703e-05)
(0.000139109 7.95075e-06 1.65534e-05)
(0.000114872 6.27247e-06 1.53197e-05)
(9.20704e-05 5.09063e-06 1.43652e-05)
(7.12339e-05 4.18903e-06 1.35409e-05)
(5.01001e-05 4.51265e-06 1.28975e-05)
(3.40121e-05 4.47294e-06 1.07373e-05)
(1.74487e-05 9.78192e-06 9.6434e-06)
(-0.0233513 0.0092973 0.00149228)
(-0.0204841 0.0108939 0.00205798)
(-0.0174675 0.0116311 0.00251476)
(-0.0142843 0.0116135 0.00276654)
(-0.0116667 0.010618 0.00252649)
(-0.0103167 0.00968764 0.00205662)
(-0.0105081 0.00922642 0.00152625)
(-0.0117197 0.00945584 0.00125167)
(-0.0124776 0.0104209 0.00128977)
(-0.0116381 0.0117285 0.00150403)
(-0.00907696 0.0132506 0.00176256)
(-0.0057296 0.0137509 0.00180341)
(-0.00254517 0.0129206 0.00165425)
(-5.34239e-05 0.0110789 0.00140926)
(0.00146411 0.00885526 0.00113236)
(0.00218975 0.00676157 0.000877257)
(0.00239567 0.00501678 0.000665321)
(0.00231508 0.00366182 0.000500783)
(0.00210461 0.00264833 0.000377625)
(0.00185285 0.00190573 0.000286898)
(0.00160432 0.00136921 0.000220234)
(0.00137855 0.00098437 0.000171283)
(0.00118212 0.000709003 0.000135187)
(0.001015 0.000511906 0.000108327)
(0.000874157 0.000370579 8.80968e-05)
(0.000755717 0.000269007 7.26721e-05)
(0.000655859 0.000195818 6.08077e-05)
(0.000571184 0.000142942 5.1581e-05)
(0.000498849 0.000104649 4.4294e-05)
(0.000436541 7.68654e-05 3.84541e-05)
(0.000382397 5.66776e-05 3.37244e-05)
(0.000334917 4.19937e-05 2.98698e-05)
(0.000292896 3.12986e-05 2.67036e-05)
(0.000255373 2.34902e-05 2.40568e-05)
(0.000221592 1.77677e-05 2.1798e-05)
(0.000190958 1.35549e-05 1.98351e-05)
(0.000163001 1.04413e-05 1.81052e-05)
(0.00013729 8.13136e-06 1.6608e-05)
(0.000113516 6.41032e-06 1.53827e-05)
(9.10185e-05 5.13793e-06 1.44023e-05)
(7.05507e-05 4.16201e-06 1.35228e-05)
(4.95384e-05 3.67995e-06 1.28555e-05)
(3.40725e-05 3.15701e-06 1.08733e-05)
(1.7498e-05 3.7292e-06 1.03236e-05)
(-0.0283525 0.00179788 -0.000781828)
(-0.0249699 0.00352336 -0.000244258)
(-0.0217161 0.00482472 0.000193285)
(-0.0187147 0.00575828 0.000555314)
(-0.015969 0.00597735 0.000778323)
(-0.0136976 0.00526719 0.000818768)
(-0.0120544 0.00422249 0.000797362)
(-0.0109795 0.00340195 0.000794481)
(-0.0102459 0.00350863 0.000849391)
(-0.00951338 0.00475468 0.000934316)
(-0.00851748 0.00659344 0.00100069)
(-0.00696796 0.00820114 0.00107107)
(-0.00495569 0.00892639 0.00107951)
(-0.00290473 0.00878618 0.0010155)
(-0.00115248 0.00789619 0.00089773)
(9.18915e-05 0.00663243 0.000753046)
(0.000850888 0.00530911 0.000611493)
(0.00124274 0.00410945 0.000486448)
(0.00139223 0.00311001 0.00038353)
(0.00139722 0.00231904 0.000301584)
(0.00132395 0.00171277 0.000237749)
(0.00121482 0.00125728 0.000188574)
(0.00109448 0.000919604 0.000150826)
(0.000976037 0.000671452 0.000121847)
(0.000865767 0.000489987 9.95769e-05)
(0.000766111 0.000357638 8.23386e-05)
(0.000677444 0.000261223 6.88777e-05)
(0.000599091 0.000190995 5.83032e-05)
(0.000529959 0.000139822 4.99145e-05)
(0.000468874 0.000102518 4.31703e-05)
(0.000414728 7.53137e-05 3.76925e-05)
(0.000366514 5.54732e-05 3.32216e-05)
(0.000323347 4.10045e-05 2.95672e-05)
(0.00028446 3.0453e-05 2.65563e-05)
(0.000249209 2.27551e-05 2.40223e-05)
(0.000217076 1.71329e-05 2.18355e-05)
(0.00018764 1.30227e-05 1.99078e-05)
(0.000160558 1.00123e-05 1.81929e-05)
(0.000135488 7.80245e-06 1.67082e-05)
(0.000112185 6.1799e-06 1.54842e-05)
(9.00454e-05 4.9721e-06 1.4497e-05)