/*--------------------------------*- C++ -*----------------------------------*\
| =========                 |                                                 |
| \\      /  F ield         | OpenFOAM: The Open Source CFD Toolbox           |
|  \\    /   O peration     | Version:  2.3.1                                 |
|   \\  /    A nd           | Web:      www.OpenFOAM.org                      |
|    \\/     M anipulation  |                                                 |
\*---------------------------------------------------------------------------*/
FoamFile
{
    version     2.0;
    format      ascii;
    class       volVectorField;
    location    "5";
    object      U_0;
}
// * * * * * * * * * * * * * * * * * * * * * * * * * * * * * * * * * * * * * //

dimensions      [0 1 -1 0 0 0 0];

internalField   nonuniform List<vector> 
38152
(
(0.164195 -0.0204599 0.0070991)
(0.157772 -0.0299154 0.00444451)
(0.151423 -0.042776 0.00168492)
(0.162221 -0.0369488 -0.00193038)
(0.177076 -0.00944552 -0.0033924)
(0.170911 0.00690803 -0.00515352)
(0.17411 -0.0248072 -0.00822586)
(0.239214 -0.0492095 -0.00517915)
(0.272881 0.0348856 -0.00411123)
(0.200413 0.0965771 -0.00909251)
(0.164274 0.0230428 -0.0098852)
(0.194223 -0.0546805 -0.00706164)
(0.220227 -0.0428025 0.000202607)
(0.15559 0.0107667 0.00705921)
(0.0735565 0.0218578 0.00697833)
(0.0358081 0.0104407 0.00341252)
(0.0195854 0.00418312 0.00138597)
(0.0116514 0.00186735 0.000644777)
(0.00748501 0.000927296 0.00034784)
(0.00510182 0.000506215 0.000208579)
(0.00364084 0.000298771 0.00013446)
(0.00269374 0.000187748 9.15549e-05)
(0.00205181 0.000123782 6.50954e-05)
(0.00160087 8.45772e-05 4.79505e-05)
(0.00127455 5.93482e-05 3.63995e-05)
(0.00103232 4.251e-05 2.83686e-05)
(0.000848391 3.09872e-05 2.26302e-05)
(0.000705772 2.29616e-05 1.84273e-05)
(0.000592998 1.7293e-05 1.52815e-05)
(0.00050215 1.32426e-05 1.28797e-05)
(0.000427672 1.03062e-05 1.10123e-05)
(0.00036562 8.14225e-06 9.5353e-06)
(0.000313142 6.52199e-06 8.34851e-06)
(0.000268151 5.28684e-06 7.38145e-06)
(0.00022911 4.32699e-06 6.58431e-06)
(0.000194859 3.5659e-06 5.92567e-06)
(0.000164497 2.95044e-06 5.3871e-06)
(0.000137269 2.46151e-06 4.95279e-06)
(0.000112544 2.0861e-06 4.60643e-06)
(8.97231e-05 1.80337e-06 4.33875e-06)
(6.83973e-05 1.57333e-06 4.14553e-06)
(4.79705e-05 1.35671e-06 4.0447e-06)
(2.82312e-05 9.53661e-07 4.05515e-06)
(9.30572e-06 2.48453e-07 4.12503e-06)
(0.0504132 -0.00395951 -0.0130049)
(0.0620081 0.0128297 -0.0152298)
(0.0762633 0.029527 -0.0211908)
(0.0983434 0.0428224 -0.02502)
(0.125047 0.0532663 -0.0214191)
(0.153319 0.0518371 -0.0153787)
(0.177404 0.0335804 -0.0164071)
(0.190994 0.0257933 -0.0181535)
(0.206842 0.0483361 -0.00865021)
(0.259573 0.0387319 0.000520834)
(0.296177 0.0127126 0.00623764)
(0.18915 0.0299371 0.010694)
(0.080651 0.0495671 0.00751024)
(0.0387693 0.0465007 0.0046376)
(0.0246143 0.0290093 0.00312243)
(0.0180795 0.0144803 0.00163063)
(0.0127211 0.00713965 0.000857759)
(0.0088972 0.0037524 0.000488299)
(0.00630261 0.00210655 0.000296675)
(0.00455597 0.00125375 0.000189961)
(0.00336765 0.000784202 0.000127426)
(0.00254662 0.000510436 8.90766e-05)
(0.00196736 0.000342817 6.45666e-05)
(0.00154985 0.000235971 4.83083e-05)
(0.00124255 0.00016562 3.7163e-05)
(0.00101179 0.000118108 2.93011e-05)
(0.000835079 8.5406e-05 2.36208e-05)
(0.000697173 6.25711e-05 1.94281e-05)
(0.000587546 4.64363e-05 1.62695e-05)
(0.000498838 3.49184e-05 1.3844e-05)
(0.000425832 2.66101e-05 1.19402e-05)
(0.000364802 2.05573e-05 1.04097e-05)
(0.000313036 1.61065e-05 9.15736e-06)
(0.000268531 1.27904e-05 8.11781e-06)
(0.000229805 1.02773e-05 7.24501e-06)
(0.000195732 8.33269e-06 6.51123e-06)
(0.000165446 6.79629e-06 5.89776e-06)
(0.000138225 5.58939e-06 5.39903e-06)
(0.000113452 4.66876e-06 5.00975e-06)
(9.05129e-05 4.01355e-06 4.72156e-06)
(6.89706e-05 3.51446e-06 4.54289e-06)
(4.80803e-05 3.25623e-06 4.51742e-06)
(2.75253e-05 2.5145e-06 4.40549e-06)
(8.74206e-06 2.47579e-06 3.87496e-06)
(0.0398231 0.0110405 -0.0136583)
(0.0565346 0.0195782 -0.0131832)
(0.0753184 0.0275795 -0.0119801)
(0.0967491 0.0379638 -0.0106409)
(0.123644 0.04881 -0.00817993)
(0.151418 0.0499875 -0.00288919)
(0.171877 0.0325044 0.00215851)
(0.175743 0.00522843 0.00257023)
(0.167743 -0.00767236 0.00140275)
(0.149406 -0.00259083 0.00782022)
(0.109485 0.00994275 0.0126984)
(0.0633646 0.0313643 0.00843241)
(0.030364 0.0420377 0.00506341)
(0.0179419 0.0379389 0.00394316)
(0.0163883 0.029429 0.0029464)
(0.0154854 0.019356 0.00191197)
(0.0127157 0.0116219 0.00111044)
(0.00963219 0.00696693 0.000652047)
(0.00710948 0.00425232 0.000396942)
(0.00524757 0.0026619 0.000252715)
(0.00392278 0.00170809 0.000167969)
(0.00298116 0.00112302 0.000116023)
(0.00230434 0.000754598 8.29691e-05)
(0.00181149 0.000516699 6.12267e-05)
(0.00144714 0.000359537 4.64761e-05)
(0.00117343 0.000253608 3.61792e-05)
(0.000964426 0.000180991 2.88094e-05)
(0.000802152 0.000130523 2.34274e-05)
(0.000674011 9.50547e-05 1.94245e-05)
(0.000571102 6.98931e-05 1.63903e-05)
(0.000487084 5.18968e-05 1.40426e-05)
(0.000417405 3.89384e-05 1.21801e-05)
(0.000358767 2.95625e-05 1.06705e-05)
(0.000308725 2.27477e-05 9.43067e-06)
(0.000265455 1.77536e-05 8.3948e-06)
(0.000227605 1.40452e-05 7.51621e-06)
(0.000194147 1.12391e-05 6.7643e-06)
(0.0001643 9.07064e-06 6.11841e-06)
(0.000137413 7.38223e-06 5.58148e-06)
(0.000112928 6.07882e-06 5.16019e-06)
(9.01995e-05 5.12626e-06 4.85609e-06)
(6.88991e-05 4.31587e-06 4.66609e-06)
(4.78702e-05 3.88681e-06 4.59421e-06)
(2.78678e-05 2.90889e-06 4.22425e-06)
(9.33783e-06 3.28799e-06 3.4721e-06)
(0.0513495 0.027668 -0.00343425)
(0.0647571 0.0331383 -0.00198199)
(0.0749736 0.0363086 -0.000102902)
(0.0828548 0.0363588 0.00170859)
(0.0868997 0.0313772 0.00410338)
(0.081227 0.0219511 0.0061724)
(0.066174 0.0151542 0.00628627)
(0.0445682 0.0139737 0.00459117)
(0.0247337 0.0174914 0.0034241)
(0.0087208 0.0236886 0.00326942)
(-0.00221755 0.0272996 0.00265755)
(-0.00512753 0.0307739 0.00250516)
(-0.00269645 0.0329096 0.00235687)
(0.00184383 0.029389 0.00198945)
(0.00576276 0.022956 0.00149905)
(0.0073853 0.0160327 0.00102072)
(0.00715962 0.0106008 0.000672356)
(0.00617676 0.00688159 0.000444685)
(0.00504212 0.00446785 0.000298306)
(0.0040146 0.00293499 0.000203351)
(0.00316924 0.00195916 0.000142063)
(0.00250757 0.00132788 0.000101824)
(0.00199938 0.000912819 7.4876e-05)
(0.00161064 0.000635475 5.64435e-05)
(0.00131219 0.000447326 4.35611e-05)
(0.0010812 0.000317924 3.43535e-05)
(0.000900484 0.000227863 2.76349e-05)
(0.000757318 0.000164562 2.26564e-05)
(0.000642282 0.0001197 1.89153e-05)
(0.000548475 8.76784e-05 1.60542e-05)
(0.000470854 6.46898e-05 1.38183e-05)
(0.00040572 4.81223e-05 1.20298e-05)
(0.000350334 3.61538e-05 1.05769e-05)
(0.000302621 2.74849e-05 9.38496e-06)
(0.000261011 2.11732e-05 8.38949e-06)
(0.000224337 1.65358e-05 7.54313e-06)
(0.000191705 1.30801e-05 6.81127e-06)
(0.000162446 1.04604e-05 6.16965e-06)
(0.000135991 8.45474e-06 5.62016e-06)
(0.000111844 6.92146e-06 5.18421e-06)
(8.92912e-05 5.83645e-06 4.8798e-06)
(6.81326e-05 4.934e-06 4.68251e-06)
(4.69423e-05 5.18755e-06 4.58629e-06)
(2.69068e-05 4.835e-06 4.05373e-06)
(9.14514e-06 9.70954e-06 3.00282e-06)
(0.0137248 0.0129743 0.00195297)
(0.0151639 0.0149282 0.00268996)
(0.0141622 0.0170912 0.00338776)
(0.0100976 0.0184492 0.00365151)
(0.00418639 0.0168132 0.00316218)
(-0.000781349 0.0120575 0.00223085)
(-0.00467503 0.0062421 0.00163588)
(-0.00736689 0.00379882 0.0014826)
(-0.00885387 0.00624771 0.00157987)
(-0.00933657 0.011646 0.00147261)
(-0.00786639 0.0170371 0.00133927)
(-0.00420724 0.0187824 0.0013048)
(-0.000202101 0.0176751 0.00112559)
(0.00272719 0.0148448 0.000878642)
(0.00412848 0.0113822 0.000642603)
(0.00439716 0.00829877 0.000456608)
(0.00408169 0.00588381 0.000321391)
(0.00354615 0.00411548 0.000227609)
(0.00298445 0.00286325 0.000163234)
(0.00247308 0.00199477 0.000118764)
(0.00203716 0.00139637 8.80294e-05)
(0.00167954 0.000983427 6.65105e-05)
(0.00139136 0.000696983 5.12451e-05)
(0.00116049 0.000497045 4.02601e-05)
(0.000975292 0.000356543 3.22152e-05)
(0.000825936 0.000257163 2.62211e-05)
(0.000704457 0.000186448 2.17061e-05)
(0.000604556 0.000135854 1.82675e-05)
(0.000521405 9.94816e-05 1.56025e-05)
(0.000451356 7.32402e-05 1.34929e-05)
(0.000391648 5.42762e-05 1.1793e-05)
(0.000340166 4.05631e-05 1.04099e-05)
(0.000295256 3.06351e-05 9.27523e-06)
(0.00025565 2.34225e-05 8.32781e-06)
(0.0002204 1.81457e-05 7.52032e-06)
(0.000188778 1.42444e-05 6.81802e-06)
(0.000160247 1.13255e-05 6.19268e-06)
(0.000134338 9.12989e-06 5.64384e-06)
(0.000110674 7.47191e-06 5.19843e-06)
(8.84972e-05 6.30087e-06 4.86203e-06)
(6.8367e-05 5.35703e-06 4.57695e-06)
(4.77273e-05 5.74016e-06 4.38813e-06)
(3.21749e-05 5.51226e-06 3.648e-06)
(1.62025e-05 1.13324e-05 3.31724e-06)
(-0.0200406 0.0120906 0.00110231)
(-0.0177742 0.0136202 0.00126597)
(-0.0153862 0.0142493 0.0013546)
(-0.0128571 0.0138997 0.00135552)
(-0.0107575 0.0123436 0.00118579)
(-0.00971496 0.0108565 0.000939803)
(-0.0101574 0.0100713 0.000704008)
(-0.0115792 0.0101953 0.000582969)
(-0.0124488 0.0111654 0.000569743)
(-0.0116588 0.0123531 0.000603598)
(-0.00908585 0.0137195 0.00066829)
(-0.00569442 0.0141069 0.000662821)
(-0.00249044 0.0131669 0.000593137)
(2.12352e-06 0.0112332 0.00049732)
(0.00150887 0.00894024 0.000395524)
(0.00221957 0.00680235 0.000304497)
(0.00241163 0.00503254 0.000229897)
(0.00232015 0.00366503 0.000172464)
(0.00210227 0.00264592 0.000129742)
(0.00184603 0.0019012 9.83964e-05)
(0.00159508 0.00136442 7.54077e-05)
(0.00136825 0.000980105 5.85732e-05)
(0.00117168 0.000705539 4.61855e-05)
(0.00100492 0.000509255 3.69918e-05)
(0.000864667 0.000368651 3.00779e-05)
(0.000746938 0.000267686 2.48095e-05)
(0.000647805 0.000194981 2.07687e-05)
(0.000563769 0.000142471 1.7638e-05)
(0.000491946 0.00010445 1.51675e-05)
(0.000430042 7.68775e-05 1.31834e-05)
(0.000376222 5.68814e-05 1.15738e-05)
(0.000328998 4.23898e-05 1.02638e-05)
(0.000287158 3.18839e-05 9.18996e-06)
(0.000249752 2.42507e-05 8.29004e-06)
(0.000216071 1.86729e-05 7.51583e-06)
(0.000185571 1.45614e-05 6.83438e-06)
(0.000157853 1.15116e-05 6.22173e-06)
(0.000132536 9.24438e-06 5.68141e-06)
(0.000109312 7.5407e-06 5.24195e-06)
(8.73986e-05 6.26169e-06 4.89616e-06)
(6.7629e-05 5.2382e-06 4.59022e-06)
(4.70503e-05 4.69735e-06 4.3831e-06)
(3.21966e-05 3.92717e-06 3.70716e-06)
(1.57748e-05 4.4219e-06 3.7237e-06)
(-0.0278063 0.00240947 -2.96579e-05)
(-0.0245016 0.00419408 0.000150166)
(-0.0213284 0.00546945 0.000280745)
(-0.0183818 0.00635298 0.000371934)
(-0.0156724 0.00646761 0.000407419)
(-0.013441 0.00560288 0.000382931)
(-0.0118489 0.00441471 0.000346907)
(-0.0108315 0.00347239 0.000329107)
(-0.0101458 0.00354188 0.000340648)
(-0.00943935 0.00480103 0.000364689)
(-0.00846384 0.00665685 0.000377697)
(-0.00692892 0.00828857 0.000391288)
(-0.00491927 0.00901139 0.000386401)
(-0.00286982 0.0088542 0.00035846)
(-0.00112114 0.00794219 0.000314059)
(0.000115766 0.00665824 0.000261716)
(0.000865453 0.00532018 0.00021151)
(0.00124917 0.00411096 0.000167699)
(0.0013923 0.00310641 0.00013191)
(0.00139283 0.00231334 0.000103535)
(0.00131668 0.0017067 8.15088e-05)
(0.00120592 0.00125168 6.4578e-05)
(0.00108489 0.000914879 5.15961e-05)
(0.000966393 0.000667704 4.16429e-05)
(0.000856413 0.000487147 3.40199e-05)
(0.000757241 0.000355581 2.81293e-05)
(0.000669169 0.000259811 2.35329e-05)
(0.000591426 0.000190085 1.99334e-05)
(0.000522832 0.000139288 1.70851e-05)
(0.000462192 0.000102268 1.47928e-05)
(0.000408415 7.52914e-05 1.29264e-05)
(0.000360516 5.56528e-05 1.14042e-05)
(0.000317601 4.13759e-05 1.01662e-05)
(0.000278883 3.10045e-05 9.15141e-06)
(0.000243726 2.347e-05 8.29481e-06)
(0.000211656 1.79784e-05 7.54646e-06)
(0.000182316 1.39469e-05 6.87606e-06)
(0.00015545 1.09776e-05 6.26543e-06)
(0.000130757 8.79639e-06 5.72875e-06)
(0.000107985 7.18136e-06 5.2898e-06)
(8.64202e-05 5.96882e-06 4.9401e-06)
(6.69519e-05 5.10632e-06 4.63393e-06)
(4.65295e-05 4.44153e-06 4.43968e-06)
(3.19349e-05 3.76243e-06 3.78682e-06)
(1.46744e-05 3.27087e-06 3.87497e-06)
(-0.0275129 0.00442122 -0.000371112)
(-0.0245272 0.00549032 -0.000258481)
(-0.0215575 0.00613826 -0.000159782)
(-0.018699 0.00646367 -7.18087e-05)
(-0.0160721 0.00647123 -1.06755e-05)
(-0.0139398 0.00618898 1.79754e-05)
(-0.0124099 0.00583037 3.00812e-05)
(-0.0114355 0.00557075 4.03027e-05)
(-0.0107521 0.0055599 6.58029e-05)
(-0.00993476 0.00580484 0.000106293)
(-0.00872098 0.00621156 0.00015307)
(-0.00708144 0.00663475 0.000193963)
(-0.00524402 0.00675166 0.000214603)
(-0.00348365 0.00647958 0.000215479)
(-0.00199031 0.00584116 0.0002007)
(-0.000860842 0.00498931 0.00017705)
(-8.0398e-05 0.00408831 0.000150579)
(0.000413334 0.00324697 0.000125261)
(0.000697655 0.00252003 0.000102833)
(0.000838978 0.00192169 8.38886e-05)
(0.000887865 0.00144697 6.83364e-05)
(0.000880432 0.00107977 5.5804e-05)
(0.000841168 0.000800659 4.57987e-05)
(0.000785609 0.000591103 3.78557e-05)
(0.000723189 0.000435144 3.15522e-05)
(0.000659464 0.000319792 2.65231e-05)
(0.000597552 0.000234817 2.2493e-05)
(0.000539013 0.000172366 1.92644e-05)
(0.000484498 0.000126548 1.66551e-05)
(0.000434177 9.2981e-05 1.45196e-05)
(0.000387963 6.84193e-05 1.27607e-05)
(0.000345606 5.04704e-05 1.13156e-05)
(0.000306747 3.73742e-05 1.01363e-05)
(0.000270993 2.78402e-05 9.16576e-06)
(0.000237992 2.09259e-05 8.34423e-06)
(0.000207472 1.59129e-05 7.62301e-06)
(0.000179249 1.2254e-05 6.96055e-06)
(0.000153201 9.59696e-06 6.34085e-06)
(0.000129106 7.67222e-06 5.79824e-06)
(0.000106756 6.2603e-06 5.35025e-06)
(8.55218e-05 5.13552e-06 4.99675e-06)
(6.62423e-05 4.3858e-06 4.71814e-06)
(4.58063e-05 2.83242e-06 4.54827e-06)
(3.10394e-05 2.44362e-06 3.86594e-06)
(1.29805e-05 -3.42177e-06 3.72815e-06)
(-0.0262262 0.00109991 -0.00035367)
(-0.0235006 0.00193698 -0.000272708)
(-0.0208562 0.00251759 -0.00019733)
(-0.0183613 0.00285113 -0.00012911)
(-0.0160775 0.00290138 -7.30916e-05)
(-0.014087 0.00272956 -3.01695e-05)
(-0.0124225 0.00252027 4.14284e-06)
(-0.0110568 0.00243553 3.3677e-05)
(-0.00989617 0.00265378 6.12024e-05)
(-0.00881068 0.00315525 8.58825e-05)
(-0.00768631 0.00377747 0.000107929)
(-0.0064291 0.0042969 0.000127292)
(-0.00505947 0.00453431 0.000139541)
(-0.00369635 0.00445661 0.000143118)
(-0.00247021 0.00410282 0.000138096)
(-0.00146865 0.00358338 0.000126848)
(-0.000708272 0.0030016 0.000112441)
(-0.000166781 0.00243488 9.72361e-05)
(0.000195971 0.00192718 8.28303e-05)
(0.00042428 0.00149702 6.98756e-05)
(0.000556804 0.00114477 5.86851e-05)
(0.000622601 0.000865573 4.92351e-05)
(0.00064385 0.000648865 4.13784e-05)
(0.000636504 0.000483277 3.49182e-05)
(0.000611549 0.000358196 2.96253e-05)
(0.000576442 0.000264524 2.52797e-05)
(0.000536115 0.000194825 2.17089e-05)
(0.000493715 0.000143206 1.8777e-05)
(0.00045119 0.000105121 1.63624e-05)
(0.000409732 7.71048e-05 1.43597e-05)
(0.00037005 5.654e-05 1.2691e-05)
(0.000332496 4.14696e-05 1.13038e-05)
(0.000297173 3.0444e-05 1.0158e-05)
(0.000264031 2.24095e-05 9.20903e-06)
(0.000232951 1.65993e-05 8.41502e-06)
(0.000203813 1.2414e-05 7.72092e-06)
(-0.0259074 0.00209014 -0.000453321)
(-0.0233041 0.00249938 -0.000379249)
(-0.0207672 0.00276495 -0.000307813)
(-0.0183733 0.00290151 -0.0002418)
(-0.0161937 0.00291604 -0.000185063)
(-0.0142948 0.00283694 -0.000137083)
(-0.0126885 0.00272405 -9.53871e-05)
(-0.0113312 0.00263389 -5.74208e-05)
(-0.0101222 0.00262085 -2.06886e-05)
(-0.00893992 0.00269195 1.59182e-05)
(-0.00770561 0.00282353 4.92215e-05)
(-0.00640752 0.00295687 7.54108e-05)
(-0.00510486 0.00300767 9.18574e-05)
(-0.00387597 0.00292849 9.93577e-05)
(-0.00278003 0.00271061 0.000100048)
(-0.00185551 0.00239562 9.55487e-05)
(-0.00111725 0.00203573 8.78249e-05)
(-0.000556408 0.00167486 7.85994e-05)
(-0.000148698 0.0013428 6.91222e-05)
(0.000132983 0.00105594 5.98029e-05)
(0.000318127 0.000816589 5.15971e-05)
(0.000433021 0.000622954 4.42852e-05)
(0.000496283 0.000470266 3.79626e-05)
(0.000523406 0.000352077 3.25797e-05)
(0.000525878 0.000261847 2.8032e-05)
(0.000512125 0.000193699 2.42008e-05)
(0.000488155 0.000142644 2.0988e-05)
(0.000458139 0.00010463 1.83036e-05)
(0.000424912 7.64679e-05 1.60623e-05)
(0.000390386 5.56957e-05 1.4181e-05)
(0.000355838 4.04292e-05 1.25915e-05)
(0.00032207 2.92379e-05 1.12503e-05)
(0.000289542 2.10514e-05 1.0125e-05)
(0.000258474 1.50926e-05 9.18904e-06)
(0.000228923 1.07967e-05 8.41488e-06)
(-0.0253463 0.000201196 -0.000389244)
(-0.0228736 0.000519681 -0.000332952)
(-0.0204798 0.00074173 -0.000276898)
(-0.0182153 0.000871474 -0.000223734)
(-0.0161275 0.000918387 -0.000175207)
(-0.0142517 0.000915114 -0.000132071)
(-0.0125962 0.000911695 -9.41051e-05)
(-0.0111399 0.000951292 -6.05923e-05)
(-0.00983402 0.00106489 -3.07944e-05)
(-0.00861962 0.00123727 -4.34988e-06)
(-0.00744163 0.0014241 1.93375e-05)
(-0.00625982 0.00156922 3.94248e-05)
(-0.00508376 0.001631 5.50267e-05)
(-0.00396389 0.00160326 6.48987e-05)
(-0.00295068 0.0014984 6.94991e-05)
(-0.00207718 0.00133832 6.97219e-05)
(-0.00135812 0.00114948 6.6826e-05)
(-0.000791507 0.000955625 6.20185e-05)
(-0.000361988 0.00077319 5.62469e-05)
(-5.00481e-05 0.000611884 5.01748e-05)
(0.000166559 0.000477225 4.42698e-05)
(0.000310528 0.00036585 3.87877e-05)
(0.000399828 0.000277046 3.38415e-05)
(0.000448812 0.000207664 2.94713e-05)
(0.000468981 0.000154304 2.56622e-05)
(0.000469194 0.000113783 2.2375e-05)
(0.000456031 8.33045e-05 1.9563e-05)
(0.000434254 6.05487e-05 1.71745e-05)
(0.000407244 4.36645e-05 1.51502e-05)
(0.000377365 3.12139e-05 1.34307e-05)
(0.000346262 2.20848e-05 1.19628e-05)
(0.000315027 1.54181e-05 1.0711e-05)
(0.000284355 1.05649e-05 9.64631e-06)
(0.000254653 7.04873e-06 8.75117e-06)
(0.000226109 4.52885e-06 8.00478e-06)
(-0.0251268 0.000551106 -0.00047882)
(-0.0226991 0.000582775 -0.000421761)
(-0.0203482 0.000601277 -0.000365011)
(-0.0181268 0.000605622 -0.000310434)
(-0.0160811 0.000594147 -0.000259417)
(-0.0142405 0.000567483 -0.000212588)
(-0.012607 0.000530845 -0.000169964)
(-0.0111542 0.000492386 -0.000131011)
(-0.00983375 0.00046336 -9.511e-05)
(-0.00859194 0.000451459 -6.213e-05)
(-0.00738763 0.000462093 -3.26801e-05)
(-0.00620709 0.000487382 -7.75657e-06)
(-0.00506475 0.000503236 1.2228e-05)
(-0.00398999 0.000496523 2.69063e-05)
(-0.00301642 0.000466742 3.66332e-05)
(-0.00216989 0.000419561 4.20545e-05)
(-0.00146374 0.000362585 4.40516e-05)
(-0.000898274 0.000303143 4.35868e-05)
(-0.000461977 0.000246395 4.14886e-05)
(-0.000137651 0.000195511 3.83917e-05)
(9.23325e-05 0.000153157 3.50117e-05)
(0.000248564 0.00011746 3.13775e-05)
(0.000349796 8.8836e-05 2.79155e-05)
(0.00040905 6.63485e-05 2.46925e-05)
(0.000437751 4.89902e-05 2.17679e-05)
(0.000444854 3.5779e-05 1.91655e-05)
(0.000437133 2.58331e-05 1.68829e-05)
(0.000419591 1.84076e-05 1.49026e-05)
(0.000395839 1.2907e-05 1.31953e-05)
(0.000368445 8.86734e-06 1.17278e-05)
(0.000339219 5.92687e-06 1.04677e-05)
(0.000309393 3.79874e-06 9.38593e-06)
(0.000279778 2.2663e-06 8.45794e-06)
(0.000250875 1.16804e-06 7.66927e-06)
(0.000222944 3.91029e-07 7.00318e-06)
(0.17554 -0.0127167 0.0131983)
(0.164113 -0.02576 0.0108778)
(0.155191 -0.0308895 0.00362531)
(0.166132 -0.00458245 -0.013664)
(0.176633 0.0218493 -0.0237704)
(0.18195 0.0237973 -0.0251443)
(0.19529 0.0129735 -0.0283165)
(0.215507 0.0287159 -0.0292688)
(0.208463 0.0671145 -0.0230762)
(0.178058 0.0534217 -0.0132157)
(0.165438 -0.018708 -0.00749844)
(0.185783 -0.0654405 -0.00279817)
(0.19035 -0.0344842 0.0136657)
(0.123425 0.0155087 0.025877)
(0.0598724 0.0202052 0.0193495)
(0.0320529 0.00936766 0.00869564)
(0.0184464 0.0039182 0.00369681)
(0.0112804 0.00179885 0.00180591)
(0.00735182 0.000906758 0.000995734)
(0.00505232 0.0004989 0.000601627)
(0.0036244 0.00029554 0.000389306)
(0.00269156 0.000185828 0.000265681)
(0.00205598 0.000122286 0.000189189)
(0.00160777 8.32231e-05 0.000139516)
(0.00128246 5.80492e-05 0.000105996)
(0.00104041 4.12499e-05 8.26653e-05)
(0.000856228 2.97714e-05 6.59776e-05)
(0.000713168 2.17971e-05 5.37427e-05)
(0.00059988 1.61854e-05 4.45768e-05)
(0.000508506 1.21931e-05 3.75754e-05)
(0.000433524 9.31234e-06 3.21303e-05)
(0.000370998 7.19995e-06 2.78267e-05)
(0.000318072 5.62654e-06 2.43765e-05)
(0.000272651 4.43306e-06 2.15731e-05)
(0.00023319 3.50803e-06 1.92698e-05)
(0.000198523 2.77478e-06 1.73723e-05)
(0.000167742 2.18504e-06 1.58188e-05)
(0.000140087 1.72161e-06 1.4563e-05)
(0.000114932 1.36955e-06 1.35604e-05)
(9.1685e-05 1.11044e-06 1.27843e-05)
(6.99344e-05 9.12039e-07 1.22237e-05)
(4.90791e-05 7.68461e-07 1.19138e-05)
(2.8897e-05 4.30854e-07 1.1787e-05)
(9.81528e-06 -4.18417e-08 1.15752e-05)
(0.0610431 0.00839336 -0.0223471)
(0.0664496 0.0211668 -0.0266923)
(0.0767865 0.0333 -0.038911)
(0.0968515 0.0418986 -0.043718)
(0.120557 0.0429783 -0.0357311)
(0.144653 0.0310018 -0.0237169)
(0.164271 0.0139865 -0.0180592)
(0.173911 0.00962822 -0.0137676)
(0.188439 0.00577049 -0.00135161)
(0.242291 -0.0136902 0.0098033)
(0.24592 -0.00484224 0.0235553)
(0.138624 0.0293172 0.0307077)
(0.0589128 0.04656 0.0209758)
(0.0307398 0.0422771 0.013289)
(0.0223024 0.0261823 0.00827908)
(0.017162 0.013421 0.0043867)
(0.012328 0.00681624 0.00239646)
(0.00872886 0.0036468 0.00138836)
(0.0062308 0.00206833 0.000850855)
(0.00452827 0.00123813 0.000547442)
(0.00336082 0.00077686 0.000368349)
(0.00254959 0.000506295 0.000257967)
(0.00197475 0.000339979 0.000187177)
(0.001559 0.000233693 0.000140116)
(0.00125214 0.000163612 0.000107807)
(0.00102116 0.000116262 8.49841e-05)
(0.000843939 8.36793e-05 6.84705e-05)
(0.000705434 6.09389e-05 5.62648e-05)
(0.000595224 4.4885e-05 4.70603e-05)
(0.000506 3.34389e-05 3.99873e-05)
(0.000432563 2.51932e-05 3.44413e-05)
(0.000371166 1.91882e-05 3.00066e-05)
(0.000319071 1.47674e-05 2.64035e-05)
(0.000274251 1.14676e-05 2.34355e-05)
(0.000235196 8.96359e-06 2.09671e-05)
(0.000200754 7.02982e-06 1.89078e-05)
(0.000170033 5.51757e-06 1.71934e-05)
(0.000142305 4.34862e-06 1.57976e-05)
(0.000116975 3.46947e-06 1.46984e-05)
(9.34579e-05 2.85119e-06 1.3879e-05)
(7.13477e-05 2.40104e-06 1.33473e-05)
(4.99731e-05 2.2521e-06 1.31266e-05)
(2.94127e-05 1.69267e-06 1.25998e-05)
(1.00332e-05 2.06067e-06 1.09669e-05)
(0.0261388 0.00243174 -0.0247699)
(0.0430955 0.00911885 -0.0236566)
(0.0621281 0.0134363 -0.0208374)
(0.0835078 0.019472 -0.017061)
(0.10729 0.0251563 -0.0104539)
(0.129793 0.0212051 -0.000767966)
(0.145399 0.00537962 0.00648436)
(0.144062 -0.0113458 0.00934582)
(0.125926 -0.0168616 0.015816)
(0.0971134 -0.0113 0.0268689)
(0.0652695 0.0059078 0.025529)
(0.0388668 0.0291731 0.0167082)
(0.0186043 0.0380198 0.0138487)
(0.0135521 0.0343735 0.0111348)
(0.0146054 0.0273808 0.00797951)
(0.0145987 0.0183082 0.00513366)
(0.0122315 0.0112079 0.00307461)
(0.00939107 0.00680351 0.00184432)
(0.00699587 0.00418391 0.00113568)
(0.00519797 0.00263174 0.000727916)
(0.00390438 0.00169444 0.000485859)
(0.00297794 0.00111659 0.000336542)
(0.00230843 0.000751348 0.000241122)
(0.00181891 0.000514844 0.000178142)
(0.00145587 0.000358269 0.000135309)
(0.00118242 0.000252582 0.000105361)
(0.000973144 0.00018007 8.38978e-05)
(0.000810364 0.000129649 6.81933e-05)
(0.000681672 9.41976e-05 5.64834e-05)
(0.000578268 6.90408e-05 4.75863e-05)
(0.000493854 5.10462e-05 4.06941e-05)
(0.000423876 3.80789e-05 3.52401e-05)
(0.000365001 2.86698e-05 3.08451e-05)
(0.000314762 2.17951e-05 2.72539e-05)
(0.000271312 1.67247e-05 2.42777e-05)
(0.000233261 1.29379e-05 2.17798e-05)
(0.000199542 1.00684e-05 1.96666e-05)
(0.000169335 7.86821e-06 1.78738e-05)
(0.000141968 6.18409e-06 1.63893e-05)
(0.000116901 4.90522e-06 1.52162e-05)
(9.35424e-05 3.98034e-06 1.43589e-05)
(7.16266e-05 3.23344e-06 1.37897e-05)
(5.01587e-05 2.94586e-06 1.34118e-05)
(3.01521e-05 2.25001e-06 1.21934e-05)
(1.0829e-05 2.93213e-06 9.92499e-06)
(0.0296715 0.011712 -0.00749183)
(0.0424029 0.0165511 -0.00387417)
(0.0520779 0.018799 0.00061569)
(0.0593896 0.0181822 0.00556)
(0.0624535 0.0145597 0.0118271)
(0.0563431 0.00963138 0.0165936)
(0.0428547 0.00817477 0.0163879)
(0.0252641 0.00966465 0.0116265)
(0.00952279 0.0134311 0.00758252)
(-0.00250361 0.0183121 0.00632791)
(-0.00884445 0.022101 0.00596314)
(-0.00854742 0.0273544 0.00664942)
(-0.00427446 0.0304368 0.00649336)
(0.00111658 0.0275669 0.00534349)
(0.00535395 0.0218842 0.00405931)
(0.00712654 0.0154786 0.00283137)
(0.00699944 0.0103383 0.00190123)
(0.00608534 0.00676045 0.00127108)
(0.0049939 0.0044133 0.00085824)
(0.00399263 0.00291065 0.000587867)
(0.00316287 0.00194832 0.000412049)
(0.00250963 0.00132316 0.000296077)
(0.00200573 0.000910861 0.000218119)
(0.00161893 0.000634703 0.00016463)
(0.00132114 0.000446997 0.000127153)
(0.00109011 0.000317712 0.000100326)
(0.000908999 0.00022764 8.07325e-05)
(0.000765277 0.00016428 6.61838e-05)
(0.000649686 0.000119346 5.52132e-05)
(0.00055541 8.72596e-05 4.67967e-05)
(0.000477432 6.42138e-05 4.02146e-05)
(0.000412037 4.75787e-05 3.49653e-05)
(0.000356451 3.55179e-05 3.07166e-05)
(0.000308584 2.67338e-05 2.72389e-05)
(0.000266848 2.02952e-05 2.43516e-05)
(0.000230033 1.55344e-05 2.19175e-05)
(0.000197204 1.19752e-05 1.98395e-05)
(0.000167641 9.28885e-06 1.80492e-05)
(0.000140742 7.25809e-06 1.65359e-05)
(0.000116022 5.72559e-06 1.53298e-05)
(9.28521e-05 4.64575e-06 1.44614e-05)
(7.11179e-05 3.79748e-06 1.38605e-05)
(4.95606e-05 4.06802e-06 1.34218e-05)
(2.96652e-05 3.88355e-06 1.1815e-05)
(1.09317e-05 9.11281e-06 9.09587e-06)
(-6.181e-05 0.00459608 0.00450623)
(0.00213815 0.00707114 0.00661777)
(0.0023117 0.010111 0.00814115)
(0.000191534 0.0125443 0.00855041)
(-0.00297632 0.0120776 0.00712996)
(-0.00546524 0.00845928 0.00515807)
(-0.0075233 0.0038232 0.00399942)
(-0.00910261 0.00205196 0.00367609)
(-0.00999039 0.00469888 0.00382644)
(-0.0100937 0.010494 0.00362171)
(-0.00827101 0.0159349 0.00356322)
(-0.00441351 0.01787 0.00353346)
(-0.000378853 0.0170785 0.00307703)
(0.00257512 0.0144828 0.00244772)
(0.00401227 0.011173 0.00181689)
(0.00432032 0.00818464 0.00130413)
(0.00403718 0.00582384 0.000924025)
(0.00352421 0.00408513 0.000657274)
(0.00297655 0.00284899 0.000472919)
(0.00247365 0.00198855 0.000345011)
(0.00204262 0.001394 0.000256245)
(0.00168747 0.000982814 0.000193927)
(0.00140032 0.000697087 0.000149604)
(0.00116964 0.000497344 0.000117627)
(0.000984195 0.000356805 9.41692e-05)
(0.000834351 0.0002573 7.66786e-05)
(0.000712285 0.00018644 6.34725e-05)
(0.000611831 0.000135713 5.33744e-05)
(0.000528226 9.92345e-05 4.55262e-05)
(0.00045783 7.29035e-05 3.93176e-05)
(0.000397858 5.38402e-05 3.43279e-05)
(0.000346169 4.00041e-05 3.02736e-05)
(0.000301107 2.99344e-05 2.69495e-05)
(0.000261389 2.25753e-05 2.41832e-05)
(0.000226025 1.71642e-05 2.18416e-05)
(0.000194243 1.3155e-05 1.98277e-05)
(0.000165449 1.01649e-05 1.80687e-05)
(0.000139125 7.92958e-06 1.65532e-05)
(0.000114889 6.25667e-06 1.53205e-05)
(9.2087e-05 5.07876e-06 1.43665e-05)
(7.1249e-05 4.18028e-06 1.35425e-05)
(5.01141e-05 4.50596e-06 1.28993e-05)
(3.40233e-05 4.46902e-06 1.07395e-05)
(1.74594e-05 9.77935e-06 9.64654e-06)
(-0.0233326 0.00932279 0.00149557)
(-0.0204651 0.0109109 0.00205872)
(-0.0174464 0.0116383 0.00251331)
(-0.0142643 0.0116137 0.00276213)
(-0.0116543 0.010614 0.00252017)
(-0.010319 0.00969007 0.00205003)
(-0.0105225 0.00923719 0.00152354)
(-0.0117331 0.0094778 0.00125214)
(-0.0124764 0.010448 0.00129241)
(-0.0116138 0.0117575 0.00150787)
(-0.00903595 0.0132729 0.00176419)
(-0.00568663 0.0137521 0.00180186)
(-0.00250927 0.0129061 0.00165103)
(-2.81611e-05 0.0110553 0.0014057)
(0.00147867 0.00882987 0.00112894)
(0.00219644 0.0067391 0.000874402)
(0.00239761 0.00499876 0.000663089)
(0.00231456 0.00364814 0.000499116)
(0.00210305 0.00263826 0.000376411)
(0.00185103 0.00189844 0.000286024)
(0.0016026 0.00136399 0.000219609)
(0.00137708 0.000980649 0.000170837)
(0.00118093 0.000706351 0.000134867)
(0.00101407 0.000510013 0.000108097)
(0.000873448 0.000369224 8.79299e-05)
(0.00075519 0.000268035 7.25504e-05)
(0.000655475 0.000195118 6.07185e-05)
(0.000570911 0.000142436 5.15154e-05)
(0.00049866 0.000104283 4.42456e-05)
(0.000436415 7.65995e-05 3.84186e-05)
(0.000382319 5.64841e-05 3.36984e-05)
(0.000334873 4.18526e-05 2.9851e-05)
(0.000292878 3.11954e-05 2.66904e-05)
(0.000255371 2.34146e-05 2.40479e-05)
(0.000221601 1.77122e-05 2.17925e-05)
(0.000190974 1.35141e-05 1.9832e-05)
(0.000163022 1.04112e-05 1.8104e-05)
(0.000137312 8.10893e-06 1.66081e-05)
(0.000113537 6.39351e-06 1.53836e-05)
(9.10384e-05 5.12521e-06 1.44037e-05)
(7.05681e-05 4.15229e-06 1.35246e-05)
(4.95544e-05 3.67227e-06 1.28574e-05)
(3.40853e-05 3.1511e-06 1.08754e-05)
(1.75101e-05 3.72416e-06 1.03263e-05)
(-0.0283268 0.00181757 -0.000777424)
(-0.0249437 0.0035397 -0.000240315)
(-0.0216908 0.00483724 0.00019626)
(-0.0186913 0.00576516 0.00055704)
(-0.0159489 0.00597649 0.00077877)
(-0.013683 0.00526175 0.00081849)
(-0.0120462 0.00421748 0.000797274)
(-0.010975 0.00340593 0.000795498)
(-0.0102407 0.00352469 0.000851205)
(-0.00950386 0.00478045 0.000936117)
(-0.00850026 0.00661996 0.00100216)
(-0.00694273 0.00821788 0.001072)
(-0.00492745 0.00893049 0.00107924)
(-0.00287913 0.00878008 0.00101437)
(-0.00113244 0.00788338 0.000896147)
(0.000105557 0.00661716 0.000751329)
(0.000859146 0.00529439 0.000609921)
(0.00124727 0.00409669 0.000485133)
(0.00139439 0.00309968 0.000382483)
(0.00139798 0.00231103 0.000300775)
(0.00132398 0.00170671 0.000237136)
(0.00121451 0.00125278 0.000188115)
(0.00109405 0.000916296 0.000150485)
(0.00097561 0.000669036 0.000121594)
(0.00086539 0.000488229 9.93896e-05)
(0.000765802 0.00035636 8.21995e-05)
(0.000677205 0.000260295 6.87742e-05)
(0.000598915 0.00019032 5.8226e-05)
(0.000529835 0.000139332 4.98568e-05)
(0.000468793 0.000102161 4.31272e-05)
(0.00041468 7.50537e-05 3.76604e-05)
(0.000366493 5.52836e-05 3.31979e-05)
(0.000323345 4.08659e-05 2.95499e-05)
(0.00028447 3.03516e-05 2.65441e-05)
(0.000249229 2.26808e-05 2.40141e-05)
(0.000217101 1.70783e-05 2.18304e-05)
(0.000187668 1.29825e-05 1.99051e-05)
(0.000160587 9.9825e-06 1.81919e-05)
(0.000135515 7.78027e-06 1.67083e-05)
(0.00011221 6.1632e-06 1.54851e-05)
(9.00685e-05 4.95934e-06 1.44984e-05)