/*--------------------------------*- C++ -*----------------------------------*\
| =========                 |                                                 |
| \\      /  F ield         | OpenFOAM: The Open Source CFD Toolbox           |
|  \\    /   O peration     | Version:  2.3.1                                 |
|   \\  /    A nd           | Web:      www.OpenFOAM.org                      |
|    \\/     M anipulation  |                                                 |
\*---------------------------------------------------------------------------*/
FoamFile
{
    version     2.0;
    format      ascii;
    class       volScalarField;
    location    "20";
    object      epsilon_0;
}
// * * * * * * * * * * * * * * * * * * * * * * * * * * * * * * * * * * * * * //

dimensions      [0 2 -3 0 0 0 0];

internalField   nonuniform List<scalar> 
38262
(
3.63673e-05
3.77068e-05
4.25042e-05
8.6578e-05
0.000675629
0.00273044
0.00344367
0.00353238
0.00368246
0.003884
0.00379767
0.00354062
0.00356193
0.00420413
0.00608036
0.00930587
0.0109369
0.011183
0.0112459
0.0124783
0.0163814
0.0285164
0.0403551
0.0428195
0.0427428
0.0438291
0.0441011
0.0467758
0.0473183
0.0488595
0.0605986
0.0563836
0.0693013
0.0723118
0.0908169
0.294899
0.797406
2.43232
4.88414e-05
4.72416e-05
5.41291e-05
5.71985e-05
0.000115401
0.00051387
0.00105723
0.00121138
0.00117926
0.00145337
0.00222868
0.00347704
0.0047273
0.00553178
0.00714566
0.00865478
0.00913967
0.00839841
0.00950889
0.00954195
0.00850622
0.00714672
0.00943497
0.0104169
0.0132378
0.0167654
0.0157476
0.0304791
0.0254537
0.0276152
0.0506464
0.0585432
0.0697365
0.0929308
0.225656
0.353824
1.46244
2.30295
3.98475e-05
4.17486e-05
5.3552e-05
5.60346e-05
6.20745e-05
9.28233e-05
0.000162914
0.000197019
0.000206128
0.000208579
0.000234301
0.000416771
0.00126247
0.00262732
0.00468966
0.00543936
0.00474829
0.00399335
0.00337394
0.00206547
0.00144434
0.000906542
0.000788423
0.000588414
0.000622075
0.000557445
0.00085133
0.00154228
0.00145356
0.0118211
0.0111603
0.0231877
0.0292004
0.0506992
0.119556
0.387833
0.980097
6.73141
3.25131e-05
3.33826e-05
3.72568e-05
3.88377e-05
4.04511e-05
5.02389e-05
7.08684e-05
8.22578e-05
8.93638e-05
9.77506e-05
0.000103131
0.000114826
0.000157717
0.00029233
0.000767638
0.00114527
0.00107868
0.00112638
0.00106418
0.000689398
0.0005007
0.000376241
0.00034991
0.000280462
0.000289492
0.000303654
0.000390966
0.0004029
0.000734358
0.00306383
0.00207657
0.0058422
0.00461567
0.0504704
0.220698
0.449877
1.05608
6.37275
2.04811e-05
2.17304e-05
2.53652e-05
2.64011e-05
2.81139e-05
3.02047e-05
3.62745e-05
3.85521e-05
3.90103e-05
4.35614e-05
5.26774e-05
5.50243e-05
6.46818e-05
7.81966e-05
0.000133793
0.000178472
0.000184164
0.000286922
0.000282694
0.000221513
0.000191308
0.000194801
0.000195032
0.000200497
0.000213027
0.000247946
0.000274985
0.000326414
0.000871517
0.00101162
0.00134552
0.00250159
0.00224895
0.0113857
0.0661941
0.215636
1.01457
5.24204
1.26281e-05
1.38255e-05
1.67559e-05
1.7541e-05
1.95054e-05
2.14714e-05
2.39782e-05
2.64973e-05
2.78909e-05
2.8077e-05
3.35922e-05
3.42679e-05
3.90606e-05
4.32888e-05
4.82486e-05
6.53777e-05
6.71893e-05
0.000105735
0.000114036
0.000111728
0.000128727
0.000137544
0.000166962
0.000172255
0.000209286
0.000232065
0.000300308
0.000358844
0.000408375
0.000498801
0.000700407
0.000869542
0.00105072
0.00263351
0.105662
0.681551
1.67711
5.24099
7.54656e-06
9.25804e-06
1.00659e-05
1.19556e-05
1.26361e-05
1.46186e-05
1.67674e-05
1.75168e-05
2.00127e-05
2.08172e-05
2.52779e-05
2.6408e-05
3.23237e-05
3.56472e-05
4.04109e-05
4.77242e-05
6.56931e-05
8.20344e-05
8.62436e-05
9.36587e-05
0.000110676
0.000133803
0.000142221
0.000167219
0.000179641
0.000204044
0.000282101
0.000279255
0.000287669
0.000360762
0.000524994
0.000934774
0.00141361
0.00347724
0.0401921
0.632441
1.82286
5.01345
6.65899e-06
7.67187e-06
8.39529e-06
9.96621e-06
1.05442e-05
1.20116e-05
1.42736e-05
1.50897e-05
1.67407e-05
2.07566e-05
2.16939e-05
2.5405e-05
2.75107e-05
3.27329e-05
3.87393e-05
4.49552e-05
7.45519e-05
7.66548e-05
8.84766e-05
9.57673e-05
0.00011566
0.00015615
0.000160947
0.000185103
0.000196969
0.000213237
0.000222625
0.00024296
0.000240515
0.000301235
0.000770063
0.00404563
0.0169488
0.0779031
0.308125
0.667869
1.864
4.15014
6.28488e-06
6.86547e-06
8.2893e-06
8.87266e-06
9.443e-06
1.16231e-05
1.24555e-05
1.4314e-05
1.52913e-05
1.77567e-05
2.0778e-05
2.23538e-05
2.41932e-05
3.27111e-05
5.53973e-05
9.72345e-05
9.72586e-05
9.59705e-05
9.73133e-05
0.000107158
0.000114831
0.0001417
0.000146328
0.000149557
0.000166791
0.000179754
0.000198825
0.000207383
0.000231057
0.000244695
0.000338944
0.00122626
0.00348665
0.0398018
0.381295
1.05636
1.87826
2.44053
6.12977e-06
6.45792e-06
7.76514e-06
8.39911e-06
8.91565e-06
1.0425e-05
1.19389e-05
1.26222e-05
1.43119e-05
1.57747e-05
1.82398e-05
2.07942e-05
2.8736e-05
8.15249e-05
0.000211905
0.000234806
0.000247086
0.00025952
0.000258352
0.00023495
0.000231759
0.000228939
0.0002079
0.000211258
0.000205713
0.000227067
0.000276364
0.000249836
0.00023492
0.00041149
0.00137483
0.00708446
0.0346972
0.186399
0.746792
1.64757
1.83856
1.68448
5.28451e-06
5.49509e-06
6.73771e-06
7.41101e-06
7.67089e-06
8.76634e-06
1.01096e-05
1.03604e-05
1.12668e-05
2.63721e-05
2.68238e-05
3.65611e-05
6.97242e-05
0.00011811
0.000270974
0.000306602
0.000402096
0.00045867
0.000554968
0.000717028
0.000677739
0.000659655
0.000614686
0.000684646
0.000708947
0.000745961
0.000884584
0.000831419
0.000816039
0.00134116
0.00126454
0.00228461
0.0119699
0.216718
1.17155
1.73906
1.74583
1.50569
3.17607e-06
3.5177e-06
4.369e-06
4.17571e-06
4.74292e-06
5.52697e-06
5.60817e-06
5.77493e-06
1.07263e-05
0.000113025
0.000117921
7.87989e-05
6.9472e-05
8.65611e-05
0.000210141
0.000306532
0.000340003
0.000398928
0.000462101
0.00037876
0.00035987
0.000352435
0.000335087
0.000338037
0.000336235
0.000343441
0.000339565
0.000269195
0.000842898
0.00551714
0.0203174
0.0963373
0.320968
0.725239
1.36188
1.55431
1.3442
1.22963
3.6243e-05
3.62353e-05
3.46085e-05
4.34261e-05
0.000193848
0.00130472
0.00227144
0.00246135
0.00254606
0.00259516
0.00247216
0.00218475
0.00202156
0.00208951
0.00344626
0.00737754
0.0101511
0.0114438
0.0114992
0.0118946
0.0138659
0.0197451
0.0354768
0.0446847
0.0469003
0.0478429
0.0479416
0.0499282
0.0485473
0.0486993
0.0550786
0.0511931
0.0587717
0.0606375
0.0659109
0.224309
0.335293
1.75933
5.82804e-05
6.07982e-05
6.12577e-05
6.77833e-05
0.000105994
0.000434483
0.00128457
0.00204779
0.00280256
0.00322483
0.00368505
0.0052784
0.00724826
0.0066185
0.00548324
0.00654721
0.00902469
0.0109207
0.013547
0.0150806
0.0169735
0.018143
0.0246396
0.030159
0.0337083
0.0392628
0.0384902
0.0487769
0.0368717
0.0504247
0.0424333
0.0591714
0.0604429
0.0781942
0.155056
0.636555
0.818282
3.82966
3.77328e-05
5.42819e-05
6.06075e-05
6.25763e-05
6.98571e-05
9.58896e-05
0.000182616
0.000259819
0.000290543
0.000318573
0.000407615
0.000618459
0.00135401
0.00251101
0.00422712
0.00443681
0.00422809
0.00352459
0.00263433
0.00203395
0.00150981
0.00120492
0.00132433
0.00150826
0.00173047
0.00193413
0.00289265
0.00417219
0.00273856
0.00864878
0.00896132
0.027144
0.0254139
0.0629478
0.0838091
0.190674
0.5318
3.66646
1.86845e-05
2.0903e-05
2.67831e-05
3.03855e-05
3.88043e-05
5.14602e-05
6.8421e-05
6.94322e-05
6.86085e-05
6.34091e-05
6.15767e-05
7.25351e-05
0.000116356
0.000223685
0.000587598
0.000902921
0.000814784
0.000612503
0.000521603
0.000381319
0.000206375
0.000151102
0.000137858
0.000126814
0.000137942
0.000166223
0.000287441
0.000315501
0.000617478
0.00536572
0.00247178
0.00615875
0.0078407
0.0180556
0.207633
0.196496
0.429068
5.40608
1.28127e-05
1.28051e-05
1.32672e-05
1.55777e-05
1.71423e-05
2.26106e-05
3.0794e-05
3.29118e-05
3.57304e-05
3.47667e-05
3.74637e-05
3.94087e-05
4.12657e-05
4.81278e-05
7.82116e-05
0.000104242
9.23642e-05
0.000104723
9.65752e-05
7.78928e-05
6.17951e-05
6.4595e-05
6.73181e-05
6.83949e-05
8.5329e-05
9.05932e-05
0.000157166
0.000201124
0.001154
0.00103948
0.000853925
0.00194027
0.00168956
0.00404224
0.0193381
0.0689323
0.626374
5.3231
7.28448e-06
8.10827e-06
1.02294e-05
9.72718e-06
1.0093e-05
1.27152e-05
1.35941e-05
1.34632e-05
1.30099e-05
1.43518e-05
1.5567e-05
1.63524e-05
1.72963e-05
2.11493e-05
2.5513e-05
2.56925e-05
3.15812e-05
4.67298e-05
4.2871e-05
3.90118e-05
4.34104e-05
6.58713e-05
5.80719e-05
6.49991e-05
7.54181e-05
9.52304e-05
0.000111801
0.000160972
0.000179334
0.000462582
0.000521609
0.000658479
0.000889698
0.00258318
0.0713621
0.474572
1.66171
6.64808
2.81283e-06
3.55607e-06
4.91622e-06
4.38264e-06
5.58673e-06
6.20971e-06
6.21034e-06
6.46203e-06
6.50788e-06
6.85914e-06
7.5725e-06
9.5738e-06
9.36402e-06
1.2613e-05
1.39699e-05
1.82475e-05
2.36099e-05
2.6237e-05
2.96433e-05
2.92056e-05
3.02149e-05
3.77476e-05
5.15153e-05
5.02455e-05
8.97613e-05
9.28531e-05
9.18897e-05
0.000127182
0.00018069
0.000230083
0.00034832
0.000535239
0.000956839
0.00225251
0.0264812
0.47997
1.67335
5.23369
1.90088e-06
2.14142e-06
2.70107e-06
2.6777e-06
3.48784e-06
3.56299e-06
3.8048e-06
4.17068e-06
4.74375e-06
4.81632e-06
6.31945e-06
6.62775e-06
7.4717e-06
1.09378e-05
1.21342e-05
2.07463e-05
2.56549e-05
3.91092e-05
3.74205e-05
4.17032e-05
3.98851e-05
4.41381e-05
6.08198e-05
6.07144e-05
7.55061e-05
8.39745e-05
8.41152e-05
9.76929e-05
0.000169853
0.000398469
0.000913111
0.0026156
0.00782131
0.0322477
0.304985
0.567005
1.72422
4.26694
1.64632e-06
1.7732e-06
1.93053e-06
2.19656e-06
2.5723e-06
2.6469e-06
3.21831e-06
3.4194e-06
4.08057e-06
4.27115e-06
4.88663e-06
6.08293e-06
7.68007e-06
1.3317e-05
2.2257e-05
3.37345e-05
3.37383e-05
3.23731e-05
3.30212e-05
3.54359e-05
4.16542e-05
4.42763e-05
5.53358e-05
6.16556e-05
6.10617e-05
6.72544e-05
8.2801e-05
9.71332e-05
0.00012187
0.000218864
0.000295558
0.000655999
0.00102318
0.010014
0.295401
1.62448
1.98138
2.71979
1.48585e-06
1.5782e-06
1.70587e-06
2.08573e-06
2.14116e-06
2.26938e-06
2.62177e-06
2.86252e-06
3.33334e-06
4.69407e-06
5.32757e-06
6.50698e-06
1.10368e-05
4.41881e-05
9.59939e-05
0.000102445
0.000147557
0.000131884
0.000144833
0.000160702
0.000160965
0.000155791
0.000154547
0.000150637
0.000153839
0.000158551
0.000178639
0.000204277
0.00038168
0.000610582
0.00166432
0.00755651
0.0138163
0.0703244
0.488362
1.6355
1.75563
1.42415
1.42396e-06
1.41537e-06
1.67217e-06
2.05657e-06
1.9682e-06
2.06445e-06
2.90075e-06
2.95106e-06
3.77165e-06
9.34127e-06
8.71272e-06
1.72003e-05
4.85505e-05
8.98065e-05
0.000224349
0.000277754
0.000396726
0.000526487
0.000836347
0.000978386
0.000942885
0.000919649
0.000836207
0.00086164
0.000837825
0.000836917
0.000851375
0.000884063
0.00107652
0.00230814
0.00296701
0.00501513
0.0146554
0.110128
1.19739
2.05668
1.59243
1.48299
1.75809e-06
2.06841e-06
2.20856e-06
2.27903e-06
2.67862e-06
2.80987e-06
3.01416e-06
3.30675e-06
3.75071e-06
2.2783e-05
3.18383e-05
3.18547e-05
2.00183e-05
2.35749e-05
0.000139678
0.000300918
0.00038182
0.000414376
0.000596102
0.000577503
0.00052098
0.000537896
0.000478859
0.000523071
0.000463378
0.000425775
0.000353887
0.0002678
0.00087991
0.00410819
0.0137699
0.0623447
0.195431
0.403733
0.885212
1.21619
1.03229
1.01058
3.88104e-05
3.6475e-05
2.96637e-05
3.73387e-05
0.000103235
0.000902202
0.00220651
0.00246784
0.00253837
0.0025688
0.00239575
0.00213065
0.00166948
0.00117317
0.00206784
0.00816456
0.0128085
0.0150171
0.0160725
0.0167228
0.0184083
0.0240102
0.0410799
0.056803
0.0617545
0.0633118
0.0635692
0.0620133
0.0601811
0.06034
0.0554239
0.0581646
0.0531932
0.0653523
0.0696482
0.131657
0.562094
2.93173
5.58304e-05
5.57276e-05
4.96714e-05
5.06182e-05
7.12683e-05
0.000251404
0.000965569
0.00169788
0.00251996
0.00312791
0.00347702
0.00411765
0.00525365
0.00544526
0.0044549
0.0060551
0.00946057
0.0120231
0.0163055
0.0186861
0.0207333
0.0236586
0.0304318
0.0381627
0.0424469
0.0455932
0.0486184
0.0436547
0.03769
0.0465464
0.0284467
0.0396731
0.0327539
0.0877519
0.0718746
0.227367
0.529405
9.29969
2.704e-05
3.24538e-05
3.66375e-05
3.83872e-05
4.27782e-05
5.77371e-05
0.000121431
0.000195271
0.000228241
0.000271197
0.000332
0.000423023
0.000705871
0.00117637
0.00212485
0.00240886
0.0025872
0.00219853
0.00181753
0.00165907
0.00151384
0.00149703
0.00159022
0.00199578
0.00227365
0.00255141
0.00352611
0.00312033
0.00313504
0.00453971
0.00507551
0.00956012
0.0163917
0.0637214
0.0628682
0.0798203
0.235126
3.10307
8.90108e-06
9.60024e-06
1.1699e-05
1.37192e-05
1.92289e-05
2.37871e-05
2.97175e-05
3.22272e-05
3.15215e-05
3.10684e-05
3.00643e-05
3.38422e-05
4.70894e-05
7.49343e-05
0.000158724
0.000254112
0.000260396
0.000222933
0.000181174
0.000147081
0.000119289
0.000108426
0.000103962
0.000117684
0.000121143
0.000141408
0.000173307
0.000239385
0.000408805
0.00118201
0.00122522
0.00186732
0.00415855
0.00927732
0.0715017
0.0517588
0.118648
1.30291
5.01688e-06
5.10963e-06
5.41944e-06
6.2797e-06
7.15866e-06
9.0441e-06
1.06992e-05
1.26872e-05
1.45073e-05
1.55094e-05
1.54963e-05
1.57788e-05
1.69092e-05
1.85161e-05
2.66885e-05
3.00812e-05
3.07038e-05
3.70409e-05
3.67118e-05
3.65981e-05
3.7277e-05
4.10664e-05
4.20778e-05
4.71798e-05
5.16879e-05
5.99797e-05
8.47771e-05
0.000100243
0.000181712
0.000687753
0.00044131
0.00114663
0.00121402
0.00253296
0.00858508
0.0226339
0.325522
2.64718
3.02497e-06
3.28992e-06
3.84856e-06
3.99113e-06
4.32938e-06
5.22176e-06
5.42078e-06
5.70469e-06
5.72414e-06
6.7725e-06
7.10428e-06
7.73308e-06
8.53704e-06
9.9482e-06
1.26475e-05
1.33122e-05
1.69427e-05
2.40847e-05
2.47052e-05
2.38759e-05
2.59667e-05
3.28266e-05
3.52737e-05
4.44781e-05
4.94937e-05
5.68813e-05
7.45017e-05
8.72705e-05
0.000107071
0.000201282
0.000232756
0.000423435
0.00052492
0.00180977
0.0243472
0.054106
0.412425
2.56221
1.67072e-06
2.00802e-06
2.29942e-06
2.34403e-06
2.7463e-06
3.11274e-06
3.22583e-06
3.49859e-06
3.61003e-06
3.96879e-06
4.38634e-06
5.27052e-06
5.64709e-06
7.03128e-06
9.21124e-06
1.06567e-05
1.26545e-05
1.63052e-05
1.91588e-05
1.98478e-05
2.10222e-05
2.72857e-05
3.42222e-05
3.627e-05
5.45889e-05
5.61451e-05
5.72612e-05
8.95105e-05
0.000116063
0.000123174
0.000179479
0.000202548
0.000320517
0.00100033
0.00541622
0.10864
0.785548
2.01821
1.2594e-06
1.439e-06
1.64125e-06
1.7065e-06
2.04098e-06
2.18687e-06
2.39339e-06
2.59958e-06
2.88386e-06
3.03862e-06
3.58146e-06
3.87111e-06
4.50279e-06
6.45111e-06
8.21562e-06
1.2772e-05
1.43384e-05
1.80197e-05
1.93417e-05
2.34369e-05
2.3984e-05
2.78942e-05
3.57614e-05
3.90532e-05
4.79888e-05
5.74358e-05
5.66159e-05
6.69271e-05
9.27588e-05
0.000158729
0.000444536
0.000403744
0.000738241
0.00218785
0.0204411
0.15723
0.593477
1.0386
1.10724e-06
1.18827e-06
1.30458e-06
1.44781e-06
1.65193e-06
1.72816e-06
1.97665e-06
2.15219e-06
2.51759e-06
2.84736e-06
3.04993e-06
3.48507e-06
4.60071e-06
7.15803e-06
1.35243e-05
1.74672e-05
1.77869e-05
1.88866e-05
2.27101e-05
2.89086e-05
3.44069e-05
3.71338e-05
4.3542e-05
5.06287e-05
5.25746e-05
5.73748e-05
6.83638e-05
8.07608e-05
0.000106874
0.000160338
0.000201761
0.000319334
0.000390904
0.00126795
0.0287873
0.632535
0.926039
0.523481
1.0118e-06
1.06728e-06
1.1608e-06
1.32577e-06
1.41726e-06
1.52419e-06
1.73034e-06
1.85183e-06
2.12108e-06
2.88866e-06
3.08331e-06
3.38023e-06
5.04205e-06
1.40738e-05
2.87821e-05
3.46906e-05
5.10161e-05
8.05798e-05
0.000131037
0.00016515
0.000183466
0.000180929
0.000187234
0.000185647
0.000188604
0.000199671
0.000231155
0.000266679
0.000436979
0.000672468
0.00095926
0.00206692
0.00313685
0.00685184
0.0465582
0.476971
0.719709
0.602786
9.98733e-07
1.1263e-06
1.29286e-06
1.3634e-06
1.50569e-06
1.67897e-06
1.88156e-06
2.00633e-06
2.83863e-06
4.55123e-06
5.00357e-06
6.10785e-06
1.92511e-05
3.21662e-05
8.61462e-05
0.00015677
0.000335063
0.000593627
0.000962463
0.00122767
0.00117672
0.00115564
0.00110695
0.00106204
0.00107337
0.0010874
0.00111688
0.00119889
0.00188881
0.00433154
0.00835775
0.0150154
0.0341171
0.0820686
0.445131
1.34999
0.915623
1.00764
2.02907e-06
2.34628e-06
2.45696e-06
2.5877e-06
3.06705e-06
3.21812e-06
3.424e-06
3.94298e-06
3.92003e-06
6.51649e-06
1.07077e-05
1.27463e-05
1.05378e-05
1.88277e-05
0.000112087
0.000342234
0.000503254
0.000576097
0.00077754
0.000818327
0.000769471
0.000761284
0.000710032
0.000727609
0.000662258
0.000600706
0.000489817
0.000489508
0.00208951
0.00707106
0.0182451
0.0725986
0.231592
0.451483
0.880718
1.15752
1.00461
1.02657
3.21854e-05
2.73015e-05
1.71852e-05
2.32394e-05
5.94777e-05
0.000559185
0.00187261
0.00206203
0.00191973
0.00169526
0.00134353
0.00112927
0.000861951
0.000653203
0.00151256
0.00799134
0.014273
0.0170445
0.0190877
0.0201372
0.021442
0.0263729
0.0415218
0.0609613
0.0678824
0.0698004
0.0697346
0.0662099
0.0640103
0.0605161
0.0522875
0.0534463
0.0463702
0.0507645
0.0505062
0.111972
0.297825
0.943488
4.37043e-05
4.51764e-05
3.72382e-05
3.26511e-05
4.3741e-05
0.000129739
0.000617467
0.00113349
0.001462
0.00163955
0.00164639
0.0018968
0.00227227
0.00241256
0.0021471
0.00375702
0.00800922
0.0121938
0.0181379
0.0223798
0.0234874
0.0279844
0.0332961
0.0426923
0.0468013
0.0506309
0.0511923
0.042494
0.0387852
0.0422111
0.0230098
0.0234651
0.0183552
0.039438
0.0339174
0.0714267
0.197565
3.56431
1.63874e-05
1.98948e-05
2.44171e-05
2.57514e-05
2.75247e-05
3.4689e-05
7.08237e-05
0.000124607
0.000137328
0.000150109
0.000151644
0.000171203
0.000237505
0.000343274
0.00060954
0.000743113
0.00103293
0.00109612
0.00126057
0.00153693
0.00159349
0.00177846
0.00196768
0.00247013
0.0028298
0.00316737
0.00386254
0.00328726
0.0031011
0.00389121
0.00292811
0.00336418
0.00654293
0.0226575
0.0368896
0.0484555
0.0876399
0.526885
4.56221e-06
5.03058e-06
6.39657e-06
8.00524e-06
1.04465e-05
1.21976e-05
1.50067e-05
1.73892e-05
1.64587e-05
1.70003e-05
1.693e-05
1.77623e-05
2.10661e-05
2.87081e-05
4.73564e-05
7.13432e-05
8.35218e-05
9.26661e-05
9.3581e-05
0.000100303
0.000102773
0.00010421
0.000108654
0.000121412
0.000129578
0.0001545
0.000175629
0.000203185
0.000249221
0.000376125
0.000581324
0.000708147
0.00186786
0.00386816
0.0295359
0.0204892
0.0444534
0.370895
2.6606e-06
2.75153e-06
2.9691e-06
3.42226e-06
3.96357e-06
4.73847e-06
5.30016e-06
6.23269e-06
6.69327e-06
7.58469e-06
8.17177e-06
8.50412e-06
9.29868e-06
1.04949e-05
1.42833e-05
1.6338e-05
1.898e-05
2.572e-05
2.78018e-05
2.96557e-05
3.29844e-05
3.64894e-05
3.90465e-05
4.65466e-05
4.94444e-05
5.52768e-05
7.16641e-05
8.21982e-05
0.000108396
0.000215489
0.000224703
0.000394335
0.00067575
0.00120612
0.00571235
0.0123282
0.0983918
0.766768
1.9214e-06
2.09897e-06
2.2435e-06
2.38915e-06
2.71248e-06
3.16313e-06
3.33673e-06
3.59703e-06
3.76508e-06
4.34863e-06
5.0378e-06
5.27417e-06
5.9621e-06
7.23711e-06
9.6293e-06
1.06547e-05
1.32666e-05
1.80645e-05
2.08085e-05
2.15254e-05
2.3646e-05
2.94732e-05
3.21816e-05
3.96965e-05
4.43181e-05
4.91399e-05
5.69201e-05
6.92153e-05
8.96266e-05
0.000116881
0.000172568
0.000374593
0.000422087
0.000962105
0.0131844
0.0147925
0.0537475
0.525019
1.38379e-06
1.61314e-06
1.73197e-06
1.81877e-06
2.09897e-06
2.33319e-06
2.50392e-06
2.78625e-06
2.95171e-06
3.25745e-06
3.81511e-06
4.39832e-06
4.84471e-06
6.02431e-06
8.50884e-06
9.59615e-06
1.07861e-05
1.37179e-05
1.69365e-05
1.82447e-05
1.97692e-05
2.58289e-05
3.02901e-05
3.39003e-05
4.44073e-05
4.69826e-05
4.86649e-05
6.74815e-05
8.48426e-05
9.20954e-05
0.00012222
0.000143845
0.000218525
0.000487371
0.00243855
0.0164422
0.172854
0.380361
1.12748e-06
1.27686e-06
1.41626e-06
1.49836e-06
1.7503e-06
1.89052e-06
2.08822e-06
2.31303e-06
2.53483e-06
2.7349e-06
3.18066e-06
3.48217e-06
4.09533e-06
5.74631e-06
7.98785e-06
1.14386e-05
1.25015e-05
1.45424e-05
1.63629e-05
2.04814e-05
2.18903e-05
2.63033e-05
3.16752e-05
3.64107e-05
4.09544e-05
4.82689e-05
5.00432e-05
5.70404e-05
8.00951e-05
0.00010916
0.000186381
0.000207723
0.000292631
0.000756914
0.00340109
0.0420752
0.0934491
0.111026
1.01625e-06
1.08835e-06
1.20428e-06
1.33045e-06
1.49841e-06
1.58519e-06
1.78687e-06
1.97701e-06
2.28239e-06
2.58588e-06
2.75944e-06
3.19616e-06
4.16018e-06
6.4014e-06
1.15164e-05
1.39341e-05
1.52018e-05
1.73356e-05
2.29341e-05
3.11016e-05
3.69807e-05
4.00955e-05
4.68127e-05
5.03093e-05
5.78726e-05
6.20326e-05
7.40125e-05
9.12275e-05
0.000126746
0.000203726
0.000226634
0.000305161
0.000378258
0.000644409
0.00231465
0.0635414
0.207351
0.11228
9.51136e-07
1.00288e-06
1.10999e-06
1.24472e-06
1.33557e-06
1.44791e-06
1.63412e-06
1.75028e-06
2.03864e-06
2.51965e-06
2.67209e-06
3.01982e-06
4.371e-06
9.22316e-06
2.24578e-05
2.85725e-05
4.61916e-05
9.14162e-05
0.000147341
0.000191702
0.000214448
0.000213546
0.000221065
0.00022115
0.000229589
0.000249628
0.000295328
0.000379794
0.000648225
0.00094237
0.00141349
0.001908
0.00382038
0.00430953
0.0115711
0.105874
0.179737
0.380562
1.11443e-06
1.24715e-06
1.45088e-06
1.49982e-06
1.5895e-06
1.77734e-06
1.96343e-06
2.05451e-06
2.74069e-06
3.59868e-06
3.82757e-06
4.4618e-06
7.27061e-06
2.37258e-05
0.000111153
0.000171087
0.000366518
0.000726928
0.00107744
0.00141459
0.00135188
0.00132617
0.00130373
0.00123437
0.00126291
0.00131716
0.00140048
0.00164267
0.00310296
0.00731187
0.0145783
0.0261887
0.0584513
0.10125
0.22619
0.560571
0.428264
0.452054
2.34969e-06
2.48326e-06
2.73674e-06
3.0693e-06
3.40989e-06
3.54776e-06
3.96832e-06
4.47203e-06
4.56394e-06
5.10111e-06
6.4648e-06
7.05674e-06
8.04082e-06
3.21053e-05
0.000204971
0.000431456
0.000620693
0.000709287
0.000922027
0.00100152
0.000961884
0.00092666
0.00088285
0.000877575
0.000811417
0.00073109
0.000595938
0.000886244
0.00391921
0.0109442
0.0220742
0.0737146
0.236002
0.465618
0.813981
1.01113
0.928779
0.962443
2.22122e-05
1.76538e-05
1.4176e-05
1.37982e-05
2.93469e-05
0.000178424
0.00126457
0.00158419
0.0012238
0.000800027
0.000592228
0.000466633
0.000341178
0.000306021
0.00128119
0.00799332
0.015354
0.0185662
0.0212916
0.0227121
0.0236782
0.0276887
0.0402819
0.0605447
0.068905
0.0712861
0.0712417
0.067054
0.0645501
0.0583582
0.0495758
0.0484913
0.0421546
0.0419256
0.0416086
0.110584
0.332482
0.552776
2.64433e-05
3.33823e-05
2.84662e-05
2.03871e-05
2.54023e-05
5.32064e-05
0.000274257
0.000575581
0.00055738
0.000511687
0.000462417
0.000521877
0.000631947
0.000810824
0.00102436
0.00291553
0.00761212
0.01288
0.0195591
0.0254961
0.0253819
0.0306119
0.0343031
0.0437952
0.0484303
0.0520229
0.0515962
0.0417704
0.0391454
0.0379876
0.0216144
0.0188769
0.0138539
0.0204527
0.0187202
0.0315457
0.0745549
0.512337
9.00026e-06
1.06707e-05
1.54266e-05
1.82845e-05
1.90534e-05
2.24425e-05
3.55823e-05
6.30741e-05
6.91061e-05
7.15832e-05
6.64385e-05
6.95925e-05
8.4122e-05
0.000111128
0.000185234
0.000330959
0.000661854
0.000946709
0.00123691
0.00174364
0.00189106
0.00219363
0.00237899
0.00291996
0.00325327
0.00366105
0.00408342
0.00341546
0.00324537
0.00329531
0.00235658
0.00223357
0.00303686
0.00580777
0.0116275
0.0181307
0.0374719
0.183095
2.84019e-06
3.10845e-06
3.8614e-06
5.76471e-06
7.25665e-06
8.46104e-06
9.80683e-06
1.13249e-05
1.05731e-05
1.0814e-05
1.08566e-05
1.11745e-05
1.25463e-05
1.59272e-05
2.40851e-05
3.95748e-05
6.19301e-05
8.20368e-05
8.97103e-05
0.000108752
0.000122834
0.000128617
0.000135756
0.000153192
0.000162418
0.000184148
0.000195089
0.000229042
0.000239641
0.000278158
0.000365284
0.000471572
0.00103678
0.00173559
0.0107428
0.00955302
0.0193711
0.0991547
1.90323e-06
1.97752e-06
2.14263e-06
2.46999e-06
2.97696e-06
3.49879e-06
3.91611e-06
4.45585e-06
4.78816e-06
5.35657e-06
6.33353e-06
6.7552e-06
7.59926e-06
8.78537e-06
1.2005e-05
1.42343e-05
1.78276e-05
2.55407e-05
2.73793e-05
3.05062e-05
3.5347e-05
3.93894e-05
4.32248e-05
5.04391e-05
5.36831e-05
6.03661e-05
6.84916e-05
8.30839e-05
0.000106092
0.000136556
0.000185366
0.000299014
0.000492443
0.00083266
0.00299543
0.00837802
0.0289919
0.115675
1.55486e-06
1.68823e-06
1.78483e-06
1.91082e-06
2.2057e-06
2.54408e-06
2.78688e-06
3.07016e-06
3.29186e-06
3.75577e-06
4.46819e-06
4.74057e-06
5.36146e-06
6.64123e-06
9.06768e-06
1.03236e-05
1.27528e-05
1.69681e-05
2.03377e-05
2.17328e-05
2.44674e-05
3.03489e-05
3.31704e-05
3.94355e-05
4.48354e-05
4.89535e-05
5.46052e-05
6.54601e-05
8.78614e-05
0.000105631
0.000164792
0.000297493
0.000398347
0.000678379
0.0044057
0.0100032
0.0169834
0.0717381
1.27193e-06
1.44994e-06
1.55253e-06
1.64596e-06
1.89855e-06
2.09507e-06
2.29995e-06
2.60407e-06
2.82866e-06
3.13188e-06
3.73518e-06
4.28019e-06
4.79026e-06
6.08072e-06
8.6439e-06
9.98227e-06
1.10093e-05
1.35915e-05
1.70264e-05
1.8922e-05
2.07559e-05
2.63012e-05
3.03799e-05
3.41538e-05
4.23379e-05
4.62889e-05
4.80955e-05
5.99261e-05
7.8807e-05
8.89576e-05
0.000120375
0.00014523
0.000222702
0.000437844
0.00167973
0.00809844
0.0238993
0.0524282
1.09475e-06
1.22702e-06
1.35238e-06
1.44628e-06
1.68141e-06
1.82354e-06
2.0182e-06
2.27842e-06
2.49704e-06
2.73824e-06
3.17686e-06
3.52294e-06
4.18745e-06
5.82038e-06
8.7591e-06
1.15932e-05
1.26941e-05
1.4577e-05
1.71053e-05
2.13129e-05
2.33449e-05
2.77118e-05
3.29456e-05
3.7083e-05
4.09953e-05
4.66507e-05
4.93114e-05
5.61531e-05
7.71014e-05
0.000104473
0.000162691
0.000200966
0.000284196
0.00061718
0.00211007
0.020825
0.0209253
0.0304654
1.00616e-06
1.07903e-06
1.19391e-06
1.32135e-06
1.48599e-06
1.58123e-06
1.77227e-06
1.99428e-06
2.29221e-06
2.55414e-06
2.78277e-06
3.26778e-06
4.32966e-06
6.72021e-06
1.18662e-05
1.37091e-05
1.66088e-05
2.00109e-05
2.83841e-05
3.73726e-05
4.30078e-05
4.59652e-05
5.13946e-05
5.4712e-05
6.29674e-05
6.81932e-05
8.18994e-05
0.000106885
0.000164461
0.000288217
0.000329105
0.000433471
0.000510579
0.000728409
0.00141188
0.0104412
0.0311231
0.0490323
9.57431e-07
1.00931e-06
1.11929e-06
1.25833e-06
1.35593e-06
1.46334e-06
1.65226e-06
1.79019e-06
2.12238e-06
2.32655e-06
2.72626e-06
3.14574e-06
4.9837e-06
9.51674e-06
2.34609e-05
3.3953e-05
6.29296e-05
0.000137374
0.000186427
0.000228286
0.000241608
0.000241938
0.000246867
0.000250277
0.000264741
0.000298096
0.000376918
0.000546798
0.000989208
0.00150317
0.002293
0.00275039
0.00480745
0.00492463
0.00985337
0.0518878
0.0709255
0.222585
1.22608e-06
1.30393e-06
1.49623e-06
1.61601e-06
1.65636e-06
1.77594e-06
2.03415e-06
2.1375e-06
2.48151e-06
2.78718e-06
3.5022e-06
4.21186e-06
8.40743e-06
2.23503e-05
0.000126206
0.000202758
0.000475179
0.00088905
0.00119708
0.00154838
0.00147561
0.00145902
0.00144255
0.00139319
0.00143649
0.00155258
0.00173863
0.00227246
0.00474166
0.0106825
0.0192324
0.0329721
0.0720643
0.103022
0.208287
0.547917
0.373984
0.344618
2.54161e-06
2.63433e-06
2.92746e-06
3.41067e-06
3.60001e-06
3.73746e-06
4.23922e-06
4.93695e-06
5.11921e-06
5.5592e-06
5.95521e-06
6.63024e-06
8.00942e-06
3.71671e-05
0.0003007
0.000515543
0.000745458
0.000848711
0.00105138
0.00115548
0.00112005
0.00106079
0.00102665
0.00100316
0.00093223
0.000835038
0.000715553
0.00152579
0.00618199
0.0150459
0.0255553
0.0710167
0.229009
0.460977
0.749058
0.93143
0.884045
0.79968
1.48871e-05
1.44432e-05
1.5216e-05
1.2857e-05
1.63811e-05
4.32016e-05
0.000340021
0.000909207
0.000890311
0.000639641
0.00037948
0.000247364
0.00017331
0.000194615
0.00123634
0.008224
0.0163414
0.019817
0.0228335
0.0246343
0.0254268
0.0282578
0.0377132
0.0568748
0.0677485
0.070794
0.0709997
0.0671918
0.0642132
0.0562126
0.0488535
0.0468495
0.0398798
0.037964
0.042561
0.152424
0.288131
0.411813
1.66506e-05
2.20652e-05
2.21915e-05
1.69828e-05
1.77032e-05
2.82104e-05
7.19758e-05
0.000192473
0.000199023
0.000179885
0.000157272
0.000172846
0.000214592
0.000321627
0.00062913
0.00274472
0.00811567
0.0140566
0.0208261
0.0274448
0.0268046
0.0316262
0.0343386
0.0424051
0.0479374
0.0513174
0.0506726
0.0421452
0.0395869
0.0353063
0.0225007
0.0202077
0.0143916
0.016323
0.0141883
0.0235829
0.0426957
0.113343
5.39917e-06
6.02638e-06
8.22332e-06
1.35257e-05
1.47583e-05
1.67341e-05
1.96248e-05
2.64632e-05
2.87218e-05
3.28536e-05
3.29662e-05
3.48124e-05
4.15698e-05
5.77002e-05
0.000105519
0.000284487
0.0007417
0.00122987
0.00158883
0.00222805
0.00236482
0.00264336
0.00283143
0.00329171
0.00360977
0.0040444
0.00419021
0.00360268
0.00343228
0.003211
0.00232085
0.0022032
0.00222865
0.00272306
0.00441502
0.0075345
0.0212751
0.0695634
2.11066e-06
2.27435e-06
2.71287e-06
3.92861e-06
5.81429e-06
6.85577e-06
7.59936e-06
8.32547e-06
7.90593e-06
7.75479e-06
7.78925e-06
8.30513e-06
9.83873e-06
1.30085e-05
2.04367e-05
3.79919e-05
7.37493e-05
0.000110157
0.00012593
0.00016306
0.000178565
0.000182024
0.000185997
0.00019936
0.000206573
0.000226685
0.000237903
0.000248211
0.000265783
0.000291003
0.000356807
0.000430931
0.000676315
0.000980087
0.00336801
0.00484612
0.0112573
0.031373
1.57286e-06
1.65013e-06
1.79851e-06
2.0605e-06
2.57427e-06
3.05842e-06
3.49315e-06
3.9028e-06
4.28399e-06
4.69913e-06
5.65228e-06
6.25226e-06
7.12426e-06
8.41564e-06
1.15771e-05
1.42717e-05
1.9053e-05
2.79444e-05
3.06964e-05
3.70329e-05
4.30287e-05
4.76686e-05
5.18306e-05
5.81456e-05
6.25152e-05
6.81138e-05
7.97501e-05
8.96061e-05
0.000123053
0.000138503
0.000208405
0.000286941
0.000467329
0.000709837
0.00186986
0.00496182
0.0159934
0.0270226
1.37839e-06
1.49444e-06
1.60155e-06
1.72953e-06
2.01961e-06
2.33675e-06
2.6504e-06
2.96782e-06
3.25446e-06
3.63754e-06
4.29292e-06
4.65844e-06
5.27552e-06
6.57798e-06
9.10613e-06
1.06125e-05
1.32613e-05
1.68086e-05
2.04961e-05
2.30758e-05
2.67433e-05
3.23442e-05
3.58925e-05
4.10129e-05
4.70446e-05
5.15353e-05
5.79139e-05
6.85876e-05
9.15039e-05
0.000111552
0.000174432
0.000261206
0.000391444
0.0005637
0.00184982
0.00477076
0.00897785
0.0197818
1.21312e-06
1.3634e-06
1.47429e-06
1.5786e-06
1.82785e-06
2.02505e-06
2.25987e-06
2.58221e-06
2.86411e-06
3.1889e-06
3.79754e-06
4.36276e-06
4.96193e-06
6.44841e-06
9.06122e-06
1.06971e-05
1.1861e-05
1.4428e-05
1.78065e-05
2.03788e-05
2.25218e-05
2.77569e-05
3.18248e-05
3.53727e-05
4.25944e-05
4.65085e-05
5.03242e-05
5.95649e-05
8.09581e-05
9.70562e-05
0.00014015
0.000179802
0.00027694
0.000477026
0.00125468
0.00476728
0.00839462
0.0169628
1.08933e-06
1.21021e-06
1.33435e-06
1.43869e-06
1.67112e-06
1.8213e-06
2.0236e-06
2.31861e-06
2.56162e-06
2.84616e-06
3.29748e-06
3.68909e-06
4.43948e-06
6.24247e-06
9.7589e-06
1.23462e-05
1.36323e-05
1.56881e-05
1.88674e-05
2.33801e-05
2.58815e-05
3.02103e-05
3.52687e-05
3.82839e-05
4.26162e-05
4.63101e-05
5.08316e-05
5.89386e-05
8.19127e-05
0.000114025
0.00017145
0.00022205
0.000327578
0.000615823
0.00154304
0.00946907
0.0109584
0.0179381
1.01445e-06
1.09269e-06