/*--------------------------------*- C++ -*----------------------------------*\
| =========                 |                                                 |
| \\      /  F ield         | OpenFOAM: The Open Source CFD Toolbox           |
|  \\    /   O peration     | Version:  2.3.1                                 |
|   \\  /    A nd           | Web:      www.OpenFOAM.org                      |
|    \\/     M anipulation  |                                                 |
\*---------------------------------------------------------------------------*/
FoamFile
{
    version     2.0;
    format      ascii;
    class       volScalarField;
    location    "20";
    object      epsilon;
}
// * * * * * * * * * * * * * * * * * * * * * * * * * * * * * * * * * * * * * //

dimensions      [0 2 -3 0 0 0 0];

internalField   nonuniform List<scalar> 
38262
(
3.6345e-05
3.76944e-05
4.25808e-05
8.82267e-05
0.000694
0.00274627
0.00344138
0.00352659
0.0036794
0.00387764
0.00378689
0.00353235
0.00355694
0.00420707
0.00609842
0.00931656
0.0109065
0.0111443
0.0112131
0.0124805
0.0164646
0.0286837
0.0401073
0.0424016
0.0422884
0.0433695
0.0436322
0.0462743
0.0468175
0.0483257
0.0599706
0.0557635
0.0685873
0.0718066
0.0897711
0.290762
0.795418
2.373
4.88036e-05
4.7215e-05
5.40959e-05
5.72938e-05
0.000117272
0.000521013
0.00106059
0.00121071
0.00117852
0.00145618
0.00223439
0.00348454
0.00472956
0.00553703
0.00715122
0.00865997
0.00912622
0.00839044
0.00950516
0.00951928
0.0084944
0.00713662
0.00943085
0.0103985
0.0131921
0.0166871
0.0156276
0.0301566
0.0252427
0.0274258
0.0500952
0.0579463
0.0688743
0.0921804
0.223859
0.351917
1.45692
2.2663
3.98296e-05
4.17238e-05
5.35124e-05
5.60018e-05
6.21427e-05
9.3319e-05
0.000163555
0.000197104
0.000206015
0.000208479
0.00023444
0.0004198
0.00127234
0.00264254
0.00470062
0.00544241
0.00474143
0.00398245
0.00336278
0.00205891
0.00144068
0.000904445
0.000786924
0.000587213
0.000620749
0.000556683
0.000847255
0.00153967
0.0014529
0.0118256
0.0110948
0.0230165
0.0290535
0.0501585
0.11877
0.388243
0.971553
6.61997
3.25013e-05
3.33703e-05
3.72501e-05
3.88422e-05
4.0457e-05
5.02605e-05
7.09474e-05
8.22969e-05
8.93592e-05
9.77384e-05
0.000103139
0.00011499
0.000158436
0.000294351
0.000773291
0.00115045
0.00108012
0.00112359
0.00106159
0.000688386
0.000499735
0.000375544
0.000349498
0.000280303
0.000289177
0.000303495
0.000391147
0.000402851
0.000734287
0.00309089
0.00208529
0.00585897
0.00461675
0.0506524
0.219923
0.441421
1.04739
6.36272
2.04751e-05
2.17247e-05
2.53604e-05
2.64007e-05
2.81151e-05
3.02087e-05
3.62841e-05
3.85603e-05
3.90119e-05
4.35479e-05
5.26768e-05
5.50441e-05
6.47335e-05
7.83513e-05
0.000134354
0.000179307
0.000184494
0.000286415
0.000282499
0.000221684
0.000191204
0.00019466
0.000194947
0.000200421
0.000212973
0.000247896
0.00027505
0.000326474
0.00087469
0.0010173
0.00134687
0.00251594
0.00225284
0.0115797
0.0665852
0.209566
0.994889
5.26397
1.26251e-05
1.3822e-05
1.67557e-05
1.75412e-05
1.95068e-05
2.14742e-05
2.39826e-05
2.6502e-05
2.78996e-05
2.80795e-05
3.35915e-05
3.42775e-05
3.90691e-05
4.33146e-05
4.82872e-05
6.54613e-05
6.72127e-05
0.000105606
0.000114075
0.000111733
0.000128643
0.000137471
0.000166936
0.000172241
0.000209208
0.000231974
0.000300365
0.000358846
0.000408245
0.000498676
0.00070077
0.000870901
0.00104901
0.00263851
0.104327
0.666288
1.63893
5.25808
7.54537e-06
9.2569e-06
1.00654e-05
1.1956e-05
1.26369e-05
1.46184e-05
1.67696e-05
1.75184e-05
2.00156e-05
2.08189e-05
2.52801e-05
2.64098e-05
3.23219e-05
3.56547e-05
4.04176e-05
4.77174e-05
6.56727e-05
8.20688e-05
8.62987e-05
9.36731e-05
0.000110596
0.000133832
0.000142255
0.000167233
0.000179664
0.000203842
0.000281987
0.000279355
0.000287578
0.000360148
0.000524595
0.000933717
0.00141013
0.00347649
0.0399358
0.624621
1.80605
5.06864
6.659e-06
7.6716e-06
8.39453e-06
9.96658e-06
1.05448e-05
1.20103e-05
1.42751e-05
1.50914e-05
1.6739e-05
2.07579e-05
2.16971e-05
2.5407e-05
2.75115e-05
3.2726e-05
3.87498e-05
4.49392e-05
7.45699e-05
7.67101e-05
8.85339e-05
9.57936e-05
0.000115527
0.00015614
0.000160966
0.000185061
0.000196964
0.000213237
0.000222587
0.000243002
0.000240526
0.000300701
0.000768974
0.00405922
0.0169348
0.0760581
0.301732
0.656089
1.85084
4.37541
6.28503e-06
6.86491e-06
8.28874e-06
8.87366e-06
9.44305e-06
1.1622e-05
1.24554e-05
1.4315e-05
1.52917e-05
1.77533e-05
2.07802e-05
2.23566e-05
2.41934e-05
3.27053e-05
5.53923e-05
9.72887e-05
9.73482e-05
9.60472e-05
9.73657e-05
0.00010715
0.000114789
0.000141663
0.000146364
0.00014956
0.000166716
0.000179702
0.000198915
0.000207555
0.000231271
0.000244765
0.000338903
0.00122432
0.00354207
0.0396011
0.372399
1.01886
1.865
2.56376
6.12994e-06
6.45781e-06
7.76449e-06
8.39987e-06
8.91587e-06
1.04234e-05
1.19397e-05
1.26228e-05
1.4312e-05
1.57763e-05
1.82451e-05
2.07875e-05
2.8701e-05
8.1358e-05
0.000211686
0.000234726
0.000247028
0.00025945
0.000258361
0.000235035
0.000231782
0.000229024
0.000208046
0.000211378
0.000205799
0.00022691
0.000276823
0.000250551
0.000235349
0.000411468
0.0013899
0.00717437
0.0348874
0.183203
0.717792
1.59883
1.80017
1.67944
5.28504e-06
5.4951e-06
6.73657e-06
7.41175e-06
7.67142e-06
8.7649e-06
1.01108e-05
1.03606e-05
1.12696e-05
2.63652e-05
2.68142e-05
3.64931e-05
6.95598e-05
0.000117758
0.000270394
0.00030621
0.000401695
0.000458373
0.00055444
0.00071664
0.000677535
0.000659701
0.000614538
0.000684164
0.000708649
0.000745635
0.000884521
0.000831144
0.000817596
0.0013518
0.00128342
0.00231697
0.0122705
0.219281
1.15157
1.69679
1.70352
1.47527
3.17635e-06
3.51685e-06
4.36936e-06
4.17629e-06
4.74188e-06
5.52737e-06
5.60886e-06
5.77424e-06
1.07763e-05
0.000112945
0.000117596
7.86434e-05
6.93468e-05
8.63297e-05
0.000209671
0.000306114
0.000339523
0.000398516
0.000461584
0.000378256
0.000359452
0.000352061
0.000334668
0.000337624
0.00033573
0.000342861
0.000338826
0.000269298
0.00085832
0.00565857
0.0213796
0.100818
0.325737
0.725848
1.33971
1.52129
1.31428
1.19745
3.62092e-05
3.61979e-05
3.45924e-05
4.36868e-05
0.000198375
0.00132075
0.00227226
0.00245836
0.00254306
0.00259086
0.00246626
0.00217908
0.00201756
0.00208886
0.00346443
0.00740811
0.0101475
0.0114075
0.0114527
0.0118684
0.0138889
0.0198783
0.0355747
0.0443858
0.0464667
0.0473659
0.0474493
0.0494167
0.0480574
0.0481295
0.0544944
0.0506402
0.0582348
0.0601092
0.0652006
0.223633
0.336534
1.73765
5.8243e-05
6.07791e-05
6.12581e-05
6.78585e-05
0.000107015
0.000442216
0.00129372
0.0020533
0.00280391
0.00322161
0.00368583
0.00529315
0.00724871
0.00659721
0.00547094
0.00656354
0.00903145
0.0109216
0.0135344
0.0150544
0.0169569
0.0181363
0.0246268
0.0300766
0.0334941
0.0389392
0.0380976
0.0482169
0.0364718
0.0498177
0.0419425
0.0583379
0.0598672
0.0777325
0.153507
0.644359
0.808521
3.89424
3.77146e-05
5.42557e-05
6.0589e-05
6.25887e-05
6.99398e-05
9.64689e-05
0.000183805
0.000260291
0.000290437
0.000318761
0.00040834
0.000621093
0.00136223
0.00252341
0.00423253
0.00443403
0.00422213
0.00351598
0.00262611
0.00202826
0.00150685
0.00120261
0.00132183
0.00150658
0.00172497
0.00192634
0.00287056
0.00414999
0.00272468
0.00858451
0.00889981
0.0268399
0.0252638
0.0621528
0.0826957
0.1901
0.536605
3.75243
1.86798e-05
2.09061e-05
2.68021e-05
3.04081e-05
3.88228e-05
5.14725e-05
6.84632e-05
6.94018e-05
6.85814e-05
6.33852e-05
6.1631e-05
7.27652e-05
0.000117114
0.000225289
0.000592566
0.00090505
0.000814942
0.000610871
0.000519743
0.000380269
0.000205937
0.000150594
0.000137528
0.000126646
0.000137883
0.00016598
0.000287038
0.000315792
0.000617657
0.0054065
0.0024792
0.00614401
0.00782789
0.0180749
0.208927
0.193751
0.423848
5.50434
1.28101e-05
1.28041e-05
1.32679e-05
1.55829e-05
1.71516e-05
2.26141e-05
3.08002e-05
3.29076e-05
3.57211e-05
3.47587e-05
3.74606e-05
3.94301e-05
4.13293e-05
4.82586e-05
7.86057e-05
0.000104651
9.23991e-05
0.0001045
9.63793e-05
7.78098e-05
6.17322e-05
6.4542e-05
6.7311e-05
6.84062e-05
8.54134e-05
9.05815e-05
0.000157099
0.00020158
0.00115723
0.0010422
0.000854365
0.00194969
0.00169635
0.00407756
0.0195431
0.0678686
0.611137
5.30056
7.28435e-06
8.10752e-06
1.02305e-05
9.73135e-06
1.00958e-05
1.27171e-05
1.36012e-05
1.34674e-05
1.30117e-05
1.43504e-05
1.55734e-05
1.63708e-05
1.73144e-05
2.1152e-05
2.55562e-05
2.57089e-05
3.14964e-05
4.66716e-05
4.28875e-05
3.89946e-05
4.33307e-05
6.58579e-05
5.80831e-05
6.50118e-05
7.54462e-05
9.52659e-05
0.000111807
0.000160938
0.000179385
0.000462404
0.000523211
0.000658364
0.000888994
0.00259423
0.0704203
0.453857
1.62564
6.64407
2.8132e-06
3.55543e-06
4.91927e-06
4.38495e-06
5.58648e-06
6.21354e-06
6.21379e-06
6.46464e-06
6.51043e-06
6.8625e-06
7.57269e-06
9.58055e-06
9.37343e-06
1.26141e-05
1.39714e-05
1.82479e-05
2.35791e-05
2.62258e-05
2.96637e-05
2.92254e-05
3.02144e-05
3.76493e-05
5.15529e-05
5.02577e-05
8.96842e-05
9.28766e-05
9.18286e-05
0.000126843
0.000180544
0.000229935
0.000348026
0.000529179
0.000949749
0.00225089
0.0268002
0.475886
1.65977
5.41597
1.90096e-06
2.14137e-06
2.70207e-06
2.67838e-06
3.48852e-06
3.56426e-06
3.80531e-06
4.17066e-06
4.74527e-06
4.81774e-06
6.32247e-06
6.62962e-06
7.46974e-06
1.09354e-05
1.21335e-05
2.07578e-05
2.56842e-05
3.90736e-05
3.73975e-05
4.16962e-05
3.99068e-05
4.41071e-05
6.07405e-05
6.06668e-05
7.53581e-05
8.40165e-05
8.41834e-05
9.7648e-05
0.000169193
0.000397382
0.000912224
0.0026177
0.00787836
0.0320434
0.291886
0.556292
1.70465
4.45501
1.64632e-06
1.77338e-06
1.93073e-06
2.19624e-06
2.57312e-06
2.64756e-06
3.21781e-06
3.41921e-06
4.08201e-06
4.27252e-06
4.88531e-06
6.08004e-06
7.67614e-06
1.33248e-05
2.22522e-05
3.37635e-05
3.37796e-05
3.23859e-05
3.30261e-05
3.54098e-05
4.16473e-05
4.42705e-05
5.52571e-05
6.16878e-05
6.10948e-05
6.72452e-05
8.28645e-05
9.73927e-05
0.000122157
0.000218888
0.000295677
0.000654817
0.00102015
0.0100778
0.295921
1.56847
1.9574
2.81744
1.48589e-06
1.57837e-06
1.70588e-06
2.08589e-06
2.14151e-06
2.2695e-06
2.62155e-06
2.86272e-06
3.33432e-06
4.69602e-06
5.33061e-06
6.50516e-06
1.10215e-05
4.40691e-05
9.59531e-05
0.000102415
0.000147527
0.000131836
0.000144728
0.000160644
0.000160967
0.000155878
0.000154656
0.000150745
0.000153997
0.000158741
0.000179229
0.000204985
0.000382747
0.000612011
0.00167651
0.00761568
0.013869
0.0691819
0.470111
1.58015
1.73132
1.43014
1.42442e-06
1.41561e-06
1.67101e-06
2.05734e-06
1.96865e-06
2.06406e-06
2.90102e-06
2.95256e-06
3.77524e-06
9.34754e-06
8.70788e-06
1.71691e-05
4.84602e-05
8.93778e-05
0.000223749
0.000277391
0.000396197
0.000525522
0.000835194
0.000977528
0.000942395
0.00091927
0.00083576
0.000861007
0.000837498
0.000836919
0.000851767
0.0008851
0.00108233
0.00233506
0.00304021
0.00510711
0.0151831
0.113468
1.19246
1.98717
1.56004
1.44682
1.75801e-06
2.06821e-06
2.20875e-06
2.27904e-06
2.67835e-06
2.80987e-06
3.01401e-06
3.30618e-06
3.75448e-06
2.28113e-05
3.17629e-05
3.18164e-05
2.00142e-05
2.35302e-05
0.000139128
0.000300465
0.000381274
0.000413873
0.000595308
0.000576594
0.000520337
0.000537328
0.00047818
0.000522418
0.000462827
0.000425087
0.00035314
0.000268756
0.000893176
0.00420739
0.0144756
0.0652476
0.198233
0.404928
0.879302
1.1956
1.01203
0.986496
3.87811e-05
3.64417e-05
2.96566e-05
3.74207e-05
0.000105182
0.000917355
0.0022087
0.00246474
0.00253512
0.0025646
0.0023894
0.00212457
0.00166268
0.00116972
0.00209029
0.00822246
0.0128068
0.014982
0.0160183
0.0166758
0.0184077
0.0241362
0.0412894
0.0565344
0.0612641
0.0627425
0.0629798
0.0614154
0.0595774
0.0597352
0.0548802
0.0576134
0.0527558
0.0647413
0.0691604
0.130629
0.56712
2.86838
5.58044e-05
5.5721e-05
4.96804e-05
5.06775e-05
7.17126e-05
0.000256112
0.000973162
0.00170259
0.00252394
0.00312699
0.00347453
0.00411859
0.00525205
0.00542897
0.00443852
0.00607646
0.00947123
0.0120279
0.0163027
0.0186466
0.0207175
0.0236411
0.0304321
0.0380724
0.0421976
0.0452024
0.048156
0.0432501
0.037263
0.0460925
0.028218
0.0392516
0.0325568
0.0868977
0.0714303
0.234382
0.551813
9.68721
2.70361e-05
3.24595e-05
3.66573e-05
3.84275e-05
4.28564e-05
5.8085e-05
0.000122381
0.000195547
0.000228179
0.000271804
0.00033292
0.000424578
0.000709659
0.00118178
0.00212897
0.00240746
0.00258113
0.0021939
0.00181344
0.00165439
0.00151089
0.00149477
0.00158833
0.00199337
0.0022667
0.00253686
0.00349939
0.00309949
0.00311127
0.00451625
0.0050446
0.00948643
0.0162747
0.0631847
0.0625603
0.080113
0.24401
3.22639
8.90174e-06
9.60397e-06
1.17099e-05
1.37366e-05
1.92554e-05
2.3824e-05
2.97756e-05
3.22188e-05
3.15144e-05
3.10639e-05
3.00797e-05
3.39406e-05
4.73417e-05
7.53823e-05
0.000159699
0.000254953
0.000259806
0.000222423
0.000180584
0.000146598
0.000118964
0.000108169
0.000103785
0.000117505
0.000120978
0.000141071
0.000173096
0.000239105
0.000408734
0.0011859
0.00122695
0.00185752
0.00414584
0.0092682
0.0725215
0.0515881
0.117294
1.31253
5.0168e-06
5.1102e-06
5.4211e-06
6.28356e-06
7.16543e-06
9.053e-06
1.07092e-05
1.26913e-05
1.45059e-05
1.55093e-05
1.55027e-05
1.57887e-05
1.69299e-05
1.8549e-05
2.67784e-05
3.0172e-05
3.07249e-05
3.69935e-05
3.66825e-05
3.65648e-05
3.72398e-05
4.1036e-05
4.20515e-05
4.71754e-05
5.17055e-05
5.99799e-05
8.48211e-05
0.000100172
0.000181987
0.000690933
0.00044205
0.00114635
0.00121209
0.00253126
0.00859234
0.0225461
0.319747
2.62972
3.02515e-06
3.28995e-06
3.8492e-06
3.99252e-06
4.33088e-06
5.22405e-06
5.42325e-06
5.70635e-06
5.72513e-06
6.77263e-06
7.1069e-06
7.73769e-06
8.54342e-06
9.95014e-06
1.26663e-05
1.33216e-05
1.69041e-05
2.40716e-05
2.47212e-05
2.38901e-05
2.59567e-05
3.28121e-05
3.52675e-05
4.44781e-05
4.95218e-05
5.68763e-05
7.44353e-05
8.72548e-05
0.00010712
0.000201527
0.000233133
0.000425249
0.000526367
0.00180668
0.0245361
0.0534338
0.405537
2.5711
1.67077e-06
2.00791e-06
2.30015e-06
2.34472e-06
2.74639e-06
3.11399e-06
3.22703e-06
3.49968e-06
3.61069e-06
3.96946e-06
4.38603e-06
5.27297e-06
5.65053e-06
7.03185e-06
9.21548e-06
1.06598e-05
1.26444e-05
1.62909e-05
1.91673e-05
1.98652e-05
2.10278e-05
2.72409e-05
3.42273e-05
3.62626e-05
5.45702e-05
5.62076e-05
5.72639e-05
8.92534e-05
0.000116162
0.000123155
0.000179411
0.000202433
0.00032013
0.00101631
0.00552241
0.110525
0.776877
2.06264
1.25939e-06
1.43896e-06
1.64155e-06
1.70673e-06
2.04115e-06
2.18741e-06
2.39364e-06
2.59965e-06
2.8841e-06
3.03877e-06
3.58208e-06
3.87173e-06
4.50266e-06
6.4498e-06
8.21443e-06
1.27716e-05
1.43442e-05
1.80154e-05
1.93352e-05
2.34406e-05
2.39904e-05
2.78657e-05
3.57554e-05
3.90577e-05
4.79643e-05
5.74714e-05
5.66451e-05
6.68881e-05
9.25795e-05
0.000158538
0.00044582
0.000404841
0.000736121
0.00218573
0.0198231
0.15392
0.591053
1.09534
1.10723e-06
1.18836e-06
1.30463e-06
1.44768e-06
1.65222e-06
1.72845e-06
1.97659e-06
2.15202e-06
2.51768e-06
2.84819e-06
3.05045e-06
3.48422e-06
4.59863e-06
7.1568e-06
1.35231e-05
1.7482e-05
1.78012e-05
1.88889e-05
2.26857e-05
2.88758e-05
3.44009e-05
3.71324e-05
4.35259e-05
5.06632e-05
5.2633e-05
5.74357e-05
6.84744e-05
8.09388e-05
0.000107289
0.000160948
0.000202225
0.000318801
0.000391446
0.00127534
0.0292179
0.630011
0.922766
0.539034
1.0118e-06
1.06733e-06
1.16076e-06
1.32574e-06
1.41739e-06
1.52414e-06
1.7303e-06
1.85177e-06
2.12095e-06
2.88901e-06
3.08502e-06
3.38086e-06
5.03918e-06
1.40634e-05
2.8769e-05
3.46708e-05
5.09741e-05
8.04561e-05
0.00013098
0.000165016
0.000183499
0.00018101
0.000187334
0.000185772
0.00018874
0.00020001
0.000231994
0.000267939
0.000439154
0.000676841
0.000967693
0.00207099
0.00315964
0.0068773
0.0456705
0.468766
0.719235
0.592601
9.98786e-07
1.12631e-06
1.29285e-06
1.3634e-06
1.50559e-06
1.67862e-06
1.88191e-06
2.00643e-06
2.8389e-06
4.55404e-06
5.00648e-06
6.10667e-06
1.91912e-05
3.21442e-05
8.58807e-05
0.000156459
0.000334362
0.000592241
0.000961121
0.00122656
0.00117597
0.00115486
0.00110618
0.00106115
0.00107266
0.00108716
0.00111718
0.00120057
0.00190331
0.00437735
0.00852148
0.0154751
0.0352221
0.0845254
0.456314
1.32842
0.90626
0.975954
2.02894e-06
2.34613e-06
2.45711e-06
2.5876e-06
3.06678e-06
3.21824e-06
3.42379e-06
3.94293e-06
3.92027e-06
6.5247e-06
1.06943e-05
1.2742e-05
1.05332e-05
1.87861e-05
0.000111634
0.000341584
0.000502452
0.000575271
0.000776402
0.000817082
0.000768421
0.000760324
0.000708983
0.000726589
0.00066132
0.00059961
0.000488986
0.000492817
0.00211341
0.00718956
0.0190575
0.0761702
0.236559
0.453365
0.877818
1.1408
0.986635
1.00515
3.2173e-05
2.72916e-05
1.71842e-05
2.3273e-05
6.0261e-05
0.00057094
0.00187532
0.00205777
0.00191453
0.00169047
0.00133886
0.00112538
0.000857816
0.000651687
0.00153567
0.00806549
0.0142765
0.017011
0.0190308
0.0200778
0.0214179
0.0264681
0.0417723
0.0607889
0.0674183
0.0692407
0.0691434
0.0656015
0.0633926
0.0599498
0.0517969
0.0529622
0.0459623
0.0503621
0.0500914
0.110062
0.294532
0.940009
4.36946e-05
4.51848e-05
3.72517e-05
3.26788e-05
4.3935e-05
0.000132216
0.000623176
0.00113575
0.0014613
0.00163786
0.00164505
0.00189549
0.00226928
0.00240481
0.00214264
0.00378327
0.00803588
0.0122031
0.0181522
0.022326
0.023465
0.0279572
0.0332985
0.0426282
0.0465588
0.0502361
0.0507343
0.0421216
0.0383707
0.041832
0.0228542
0.0232855
0.0182318
0.0393309
0.0337578
0.0725245
0.207033
3.58629
1.6388e-05
1.99012e-05
2.44375e-05
2.57799e-05
2.75735e-05
3.48612e-05
7.14397e-05
0.000124881
0.000137226
0.000150112
0.000151775
0.000171487
0.000238235
0.000344609
0.000611844
0.000744624
0.00103223
0.00109496
0.00125979
0.00153393
0.00159114
0.00177582
0.00196553
0.00246798
0.00282171
0.00315082
0.00383519
0.00326522
0.00307607
0.00386801
0.00291159
0.00334795
0.00648381
0.0226278
0.0367204
0.0481066
0.0860698
0.551548
4.56295e-06
5.03298e-06
6.40277e-06
8.0194e-06
1.04656e-05
1.22247e-05
1.50493e-05
1.73952e-05
1.64617e-05
1.69991e-05
1.69345e-05
1.77827e-05
2.11268e-05
2.88189e-05
4.75779e-05
7.15789e-05
8.34325e-05
9.25274e-05
9.34305e-05
0.000100054
0.000102538
0.000104003
0.000108468
0.000121252
0.000129402
0.000154261
0.000175272
0.000202636
0.000248716
0.000376194
0.000580123
0.000705637
0.00184979
0.0038637
0.0296694
0.0205128
0.0441758
0.368011
2.66064e-06
2.75184e-06
2.96999e-06
3.4246e-06
3.96771e-06
4.74377e-06
5.30615e-06
6.23774e-06
6.69397e-06
7.58368e-06
8.17435e-06
8.5088e-06
9.30661e-06
1.0506e-05
1.43093e-05
1.63729e-05
1.89969e-05
2.57122e-05
2.78045e-05
2.9642e-05
3.29494e-05
3.64712e-05
3.9014e-05
4.65282e-05
4.9454e-05
5.52792e-05
7.16434e-05
8.20991e-05
0.000108343
0.000216218
0.000224695
0.000394216
0.000673019
0.00120206
0.00571002
0.0122842
0.0979258
0.771275
1.92137e-06
2.09896e-06
2.24383e-06
2.38974e-06
2.71312e-06
3.16454e-06
3.33797e-06
3.59765e-06
3.76554e-06
4.34815e-06
5.03935e-06
5.27636e-06
5.96561e-06
7.23944e-06
9.64245e-06
1.06649e-05
1.32569e-05
1.80584e-05
2.08244e-05
2.15416e-05
2.36472e-05
2.94646e-05
3.21753e-05
3.96834e-05
4.43397e-05
4.91691e-05
5.68964e-05
6.91801e-05
8.96244e-05
0.000116967
0.000172629
0.000376205
0.0004234
0.000960647
0.0133045
0.014852
0.0536378
0.530416
1.38375e-06
1.6131e-06
1.73222e-06
1.819e-06
2.09897e-06
2.33372e-06
2.50432e-06
2.78672e-06
2.95194e-06
3.25726e-06
3.81471e-06
4.39989e-06
4.84673e-06
6.02474e-06
8.51336e-06
9.60392e-06
1.07877e-05
1.3707e-05
1.69395e-05
1.82595e-05
1.97749e-05
2.58075e-05
3.02959e-05
3.38923e-05
4.44067e-05
4.70334e-05
4.86808e-05
6.7353e-05
8.48677e-05
9.21187e-05
0.000122294
0.000143932
0.000218605
0.000488551
0.00246724
0.0167484
0.173656
0.393139
1.12745e-06
1.27684e-06
1.4164e-06
1.49845e-06
1.75035e-06
1.89081e-06
2.08825e-06
2.31299e-06
2.53484e-06
2.73469e-06
3.18073e-06
3.48245e-06
4.09538e-06
5.74539e-06
7.98773e-06
1.14412e-05
1.25057e-05
1.45405e-05
1.63546e-05
2.04829e-05
2.18976e-05
2.6292e-05
3.16819e-05
3.64226e-05
4.09632e-05
4.8311e-05
5.00853e-05
5.70462e-05
7.99742e-05
0.00010922
0.000186971
0.000208274
0.000292294
0.000757302
0.00336427
0.0409791
0.0936577
0.11541
1.01623e-06
1.0884e-06
1.20429e-06
1.33036e-06
1.49856e-06
1.58534e-06
1.78679e-06
1.97677e-06
2.28235e-06
2.58643e-06
2.75971e-06
3.19508e-06
4.15837e-06
6.40049e-06
1.15146e-05
1.39403e-05
1.52109e-05
1.73339e-05
2.29053e-05
3.10742e-05
3.6987e-05
4.01055e-05
4.68293e-05
5.03471e-05
5.79543e-05
6.21396e-05
7.41574e-05
9.14788e-05
0.000127264
0.000204717
0.00022783
0.000305449
0.000378131
0.000651706
0.00232453
0.0646461
0.210322
0.112583
9.51146e-07
1.0029e-06
1.10992e-06
1.24467e-06
1.33564e-06
1.44782e-06
1.63407e-06
1.75009e-06
2.03824e-06
2.51986e-06
2.67254e-06
3.01912e-06
4.36865e-06
9.22504e-06
2.24534e-05
2.85611e-05
4.61409e-05
9.12739e-05
0.000147332
0.000191564
0.00021448
0.000213619
0.000221164
0.000221282
0.000229728
0.000250062
0.000296321
0.000381631
0.000651389
0.000949452
0.00142411
0.00192501
0.00385173
0.00436898
0.0117104
0.105915
0.179522
0.367629
1.11459e-06
1.24697e-06
1.45058e-06
1.49975e-06
1.58929e-06
1.77679e-06
1.96347e-06
2.0543e-06
2.74104e-06
3.5996e-06
3.82672e-06
4.4597e-06
7.2642e-06
2.3694e-05
0.000110929
0.000170825
0.000365692
0.000725211
0.00107595
0.00141317
0.0013508
0.00132498
0.00130259
0.00123329
0.00126184
0.00131658
0.00140042
0.00164596
0.00312911
0.00738353
0.0147972
0.0269398
0.0597921
0.103968
0.231158
0.559261
0.426491
0.442886
2.34955e-06
2.48327e-06
2.73665e-06
3.06905e-06
3.41021e-06
3.54795e-06
3.9677e-06
4.47217e-06
4.56319e-06
5.10078e-06
6.46293e-06
7.05609e-06
8.04034e-06
3.20086e-05
0.000204235
0.000430771
0.00061966
0.000708156
0.000920651
0.000999982
0.000960454
0.000925357
0.000881501
0.000876256
0.000810131
0.000729636
0.000595411
0.000893929
0.0039573
0.0110589
0.0228397
0.0773127
0.24219
0.46823
0.816425
1.00091
0.912775
0.945714
2.2205e-05
1.76526e-05
1.41732e-05
1.38007e-05
2.95091e-05
0.000183295
0.00127258
0.00158021
0.00121646
0.000796235
0.000590182
0.000464777
0.000339905
0.000306419
0.00130511
0.00807748
0.0153638
0.0185351
0.0212336
0.0226466
0.0236318
0.0277475
0.0405227
0.0604587
0.0684966
0.0707688
0.0706842
0.0664589
0.0639535
0.057843
0.04912
0.0480519
0.0417766
0.0415944
0.0413349
0.109092
0.325469
0.550427
2.64389e-05
3.33941e-05
2.84881e-05
2.04036e-05
2.54753e-05
5.39088e-05
0.000278116
0.000576273
0.000555858
0.000510401
0.000461741
0.00052142
0.000631465
0.000809927
0.00102737
0.00294794
0.00765047
0.0128987
0.019586
0.025436
0.0253439
0.0305779
0.0342976
0.0437621
0.0482181
0.0516615
0.0511615
0.0414061
0.0387419
0.0376555
0.0214777
0.0187394
0.0137407
0.0203706
0.0186531
0.0316042
0.0758423
0.538312
9.00154e-06
1.06756e-05
1.54403e-05
1.83041e-05
1.90828e-05
2.25092e-05
3.58652e-05
6.33078e-05
6.91189e-05
7.15481e-05
6.64455e-05
6.96459e-05
8.4267e-05
0.000111386
0.000185738
0.000333263
0.00066374
0.000946037
0.00123752
0.00174179
0.00188815
0.00219134
0.00237639
0.00291754
0.00324515
0.00364392
0.00405664
0.00339375
0.00321933
0.00327384
0.00234466
0.00222352
0.00301174
0.00579555
0.0116308
0.0180933
0.0369521
0.183451
2.84059e-06
3.10962e-06
3.86448e-06
5.77513e-06
7.26935e-06
8.47878e-06
9.83081e-06
1.13356e-05
1.0575e-05
1.08134e-05
1.08579e-05
1.118e-05
1.25659e-05
1.59657e-05
2.41681e-05
3.97507e-05
6.18633e-05
8.19548e-05
8.96034e-05
0.000108533
0.000122586
0.000128432
0.000135562
0.00015301
0.000162192
0.000183829
0.000194596
0.000228497
0.000239102
0.000277617
0.000364062
0.000470141
0.00103082
0.00173485
0.0107718
0.00956627
0.019282
0.0986308
1.90323e-06
1.97765e-06
2.14307e-06
2.47157e-06
2.97966e-06
3.50215e-06
3.91961e-06
4.45931e-06
4.78918e-06
5.35569e-06
6.33509e-06
6.7587e-06
7.60526e-06
8.79291e-06
1.20218e-05
1.42621e-05
1.78426e-05
2.55397e-05
2.73826e-05
3.04879e-05
3.53103e-05
3.93695e-05
4.31803e-05
5.04158e-05
5.36769e-05
6.03705e-05
6.84754e-05
8.29505e-05
0.000105961
0.000136535
0.000184937
0.000298603
0.000491586
0.000829737
0.00298758
0.00834183
0.0289278
0.116453
1.5548e-06
1.6882e-06
1.78502e-06
1.91118e-06
2.20618e-06
2.54506e-06
2.78767e-06
3.07049e-06
3.292e-06
3.75508e-06
4.46886e-06
4.74221e-06
5.36429e-06
6.6438e-06
9.07976e-06
1.03351e-05
1.27514e-05
1.69656e-05
2.03516e-05
2.17484e-05
2.44687e-05
3.03451e-05
3.31669e-05
3.9419e-05
4.48493e-05
4.89867e-05
5.45921e-05
6.54294e-05
8.78344e-05
0.000105643
0.00016467
0.000298246
0.000399366
0.000678038
0.00444373
0.00998657
0.0169661
0.072456
1.27189e-06
1.4499e-06
1.55267e-06
1.64607e-06
1.89854e-06
2.09538e-06
2.3001e-06
2.60424e-06
2.82879e-06
3.13152e-06
3.73488e-06
4.28155e-06
4.79197e-06
6.08079e-06
8.6491e-06
9.99224e-06
1.10149e-05
1.35839e-05
1.70264e-05
1.89345e-05
2.07626e-05
2.62905e-05
3.03888e-05
3.41487e-05
4.23427e-05
4.63371e-05
4.8116e-05
5.98524e-05
7.88043e-05
8.89603e-05
0.000120414
0.000145226
0.000222627
0.000438052
0.00168905
0.00812857
0.024168
0.0537946
1.09473e-06
1.22701e-06
1.35246e-06
1.44632e-06
1.68143e-06
1.82376e-06
2.01815e-06
2.27828e-06
2.49698e-06
2.73783e-06
3.17679e-06
3.52313e-06
4.18749e-06
5.81955e-06
8.76063e-06
1.15983e-05
1.26994e-05
1.4573e-05
1.70937e-05
2.13152e-05
2.33536e-05
2.77135e-05
3.29603e-05
3.71042e-05
4.10149e-05
4.66894e-05
4.93567e-05
5.61741e-05
7.70588e-05
0.000104558
0.000162951
0.000201314
0.000284193
0.000617206
0.00210322
0.0204446
0.0208702
0.030643
1.00615e-06
1.07907e-06
1.1939e-06
1.32126e-06
1.48609e-06
1.58133e-06
1.77217e-06
1.99397e-06
2.29217e-06
2.55451e-06
2.78277e-06
3.2666e-06
4.32818e-06
6.72085e-06
1.18666e-05
1.37119e-05
1.66157e-05
2.00043e-05
2.83455e-05
3.73515e-05
4.30221e-05
4.59885e-05
5.14278e-05
5.47587e-05
6.3054e-05
6.83158e-05
8.20908e-05
0.00010725
0.00016517
0.000289645
0.000331116
0.000434955
0.000510526
0.000735012
0.00143109
0.0105071
0.0316644
0.0485654
9.57452e-07
1.00933e-06
1.1192e-06
1.25827e-06
1.356e-06
1.46327e-06
1.65216e-06
1.78988e-06
2.1222e-06
2.32649e-06
2.72587e-06
3.14463e-06
4.98177e-06
9.52265e-06
2.34581e-05
3.39271e-05
6.28377e-05
0.000137204
0.000186446
0.000228181
0.000241634
0.000241995
0.000246953
0.000250384
0.000264863
0.000298584
0.000378075
0.000549414
0.000994086
0.00151288
0.00231155
0.00277826
0.00484986
0.0049786
0.00997206
0.0533855
0.0711932
0.215101
1.22625e-06
1.30365e-06
1.49562e-06
1.61593e-06
1.65614e-06
1.77539e-06
2.0338e-06
2.13727e-06
2.48181e-06
2.78671e-06
3.49914e-06
4.2078e-06
8.40488e-06
2.23325e-05
0.000126013
0.000202414
0.000474122
0.00088705
0.00119544
0.0015466
0.00147418
0.00145749
0.00144108
0.00139182
0.00143518
0.00155156
0.00173826
0.00227868
0.00478082
0.0107767
0.0194729
0.0338224
0.0735506
0.104661
0.211989
0.551174
0.373449
0.34235
2.54157e-06
2.63441e-06
2.92692e-06
3.41067e-06
3.60054e-06
3.73765e-06
4.23803e-06
4.93676e-06
5.11905e-06
5.55958e-06
5.95513e-06
6.62854e-06
8.00867e-06
3.70815e-05
0.000299813
0.000514753
0.000744173
0.000847232
0.00104976
0.00115366
0.00111831
0.00105919
0.00102501
0.00100156
0.000930618
0.000833366
0.000715822
0.00153941
0.00623574
0.015148
0.0261888
0.074484
0.235907
0.463523
0.747566
0.921245
0.868584
0.797904
1.48825e-05
1.44402e-05
1.5216e-05
1.28547e-05
1.64025e-05
4.37928e-05
0.000346082
0.000910402
0.000887331
0.000635856
0.000377376
0.000246123
0.000172751
0.00019592
0.00126102
0.00831466
0.0163563
0.0197881
0.0227802
0.0245656
0.0253609
0.0282753
0.0378745
0.0569665
0.0674028
0.0703142
0.0704718
0.066614
0.0636382
0.0557168
0.048404
0.0464207
0.0395313
0.0376575
0.0422643
0.150667
0.28319
0.406846
1.66448e-05
2.20683e-05
2.22089e-05
1.70031e-05
1.77368e-05
2.83477e-05
7.29094e-05
0.000193343
0.000198311
0.000179385
0.000156972
0.000172743
0.000214732
0.000322132
0.000634443
0.00278174
0.00816481
0.0140828
0.0208581
0.0273863
0.0267455
0.0315855
0.034312
0.0423949
0.0477771
0.0510186
0.0502739
0.0417826
0.039206
0.034992
0.0223207
0.0200347
0.0142672
0.016202
0.0141138
0.0234772
0.0423302
0.114998
5.40038e-06
6.0282e-06
8.22824e-06
1.35396e-05
1.47768e-05
1.67653e-05
1.96943e-05
2.65595e-05
2.876e-05
3.28911e-05
3.29993e-05
3.48497e-05
4.16214e-05
5.79039e-05
0.000105964
0.000287245
0.000745266
0.00122917
0.00158985
0.00222589
0.00236095
0.00264082
0.00282744
0.00328891
0.00360174
0.00402843
0.00416512
0.00357968
0.00340689
0.00318971
0.00230796
0.00219086
0.002216
0.00271191
0.00440986
0.00749338
0.0210782
0.0685036
2.11087e-06
2.27489e-06
2.7142e-06
3.93303e-06
5.82305e-06
6.86772e-06
7.61228e-06
8.33222e-06
7.90548e-06
7.75256e-06
7.78829e-06
8.30817e-06
9.849e-06
1.30358e-05
2.05039e-05
3.81724e-05
7.38863e-05
0.000110075
0.000125796
0.000162727
0.000178202
0.000181754
0.000185734
0.000199117
0.000206258
0.000226215
0.000237365
0.000247627
0.000265087
0.000290203
0.000355612
0.000429676
0.000674689
0.000978721
0.00337777
0.00483355
0.0111622
0.0310825
1.57285e-06
1.6502e-06
1.79876e-06
2.06136e-06
2.57606e-06
3.06063e-06
3.49512e-06
3.90451e-06
4.28482e-06
4.69943e-06
5.6537e-06
6.25596e-06
7.13007e-06
8.42309e-06
1.1593e-05
1.42993e-05
1.90753e-05
2.79461e-05
3.06933e-05
3.69957e-05
4.29828e-05
4.76351e-05
5.17789e-05
5.81022e-05
6.24925e-05
6.80891e-05
7.97079e-05
8.95082e-05
0.000122897
0.000138335
0.000207759
0.000286377
0.000466746
0.000707101
0.00186174
0.00493386
0.0159048
0.0270513
1.37834e-06
1.49442e-06
1.60168e-06
1.7298e-06
2.02e-06
2.33747e-06
2.65097e-06
2.96802e-06
3.25437e-06
3.63688e-06
4.29303e-06
4.65998e-06
5.27817e-06
6.58062e-06
9.1173e-06
1.06253e-05
1.32647e-05
1.68107e-05
2.05065e-05
2.30907e-05
2.67435e-05
3.23433e-05
3.58909e-05
4.10004e-05
4.70481e-05
5.15553e-05
5.79049e-05
6.85619e-05
9.14718e-05
0.000111537
0.000174344
0.0002615
0.00039218
0.000563195
0.00185426
0.00477251
0.00894262
0.0198136
1.21309e-06
1.36337e-06
1.47438e-06
1.57867e-06
1.82785e-06
2.02528e-06
2.25991e-06
2.58221e-06
2.86416e-06
3.18863e-06
3.7974e-06
4.36408e-06
4.96357e-06
6.44879e-06
9.06694e-06
1.07079e-05
1.18685e-05
1.44241e-05
1.78053e-05
2.03888e-05
2.25287e-05
2.77533e-05
3.18375e-05
3.53746e-05
4.26073e-05
4.65425e-05
5.03428e-05
5.95454e-05
8.09371e-05
9.70448e-05
0.000140149
0.000179741
0.000276775
0.0004768
0.00125989
0.00477848
0.00842517
0.0170581
1.08932e-06
1.21022e-06
1.33441e-06
1.4387e-06
1.67114e-06
1.82149e-06
2.02352e-06
2.31838e-06
2.56149e-06
2.84575e-06
3.29732e-06
3.68926e-06
4.43957e-06
6.24174e-06
9.76176e-06
1.23531e-05
1.36391e-05
1.56838e-05
1.88559e-05
2.33823e-05
2.5894e-05
3.02183e-05
3.52905e-05
3.83094e-05
4.26443e-05
4.6347e-05
5.08797e-05
5.89826e-05
8.19359e-05
0.000114162
0.000171663
0.000222301
0.000327756
0.00061632
0.00154133
0.00936095
0.0109099
0.0178833
1.01444e-06