/*--------------------------------*- C++ -*----------------------------------*\
| =========                 |                                                 |
| \\      /  F ield         | OpenFOAM: The Open Source CFD Toolbox           |
|  \\    /   O peration     | Version:  2.3.1                                 |
|   \\  /    A nd           | Web:      www.OpenFOAM.org                      |
|    \\/     M anipulation  |                                                 |
\*---------------------------------------------------------------------------*/
FoamFile
{
    version     2.0;
    format      ascii;
    class       volScalarField;
    location    "20";
    object      k;
}
// * * * * * * * * * * * * * * * * * * * * * * * * * * * * * * * * * * * * * //

dimensions      [0 2 -2 0 0 0 0];

internalField   nonuniform List<scalar> 
38262
(
6.38139e-05
6.53979e-05
7.10509e-05
0.000116973
0.000465222
0.00114582
0.00132561
0.00134644
0.0013859
0.00143438
0.00141064
0.00134721
0.00135442
0.00151718
0.00194661
0.0025782
0.00285561
0.00289557
0.00290874
0.00313132
0.00378007
0.00547471
0.00678546
0.00702363
0.00700678
0.00712643
0.0071544
0.00743986
0.00749876
0.00765703
0.00884608
0.0084233
0.00967453
0.00999997
0.0115653
0.0252792
0.0498406
0.101497
7.76605e-05
7.59777e-05
8.31885e-05
8.65879e-05
0.000141109
0.000380587
0.000606521
0.00066067
0.000648903
0.000748601
0.000996366
0.00133949
0.00164001
0.0018224
0.002161
0.00245479
0.0025382
0.00240087
0.0026101
0.00260883
0.00241987
0.00215455
0.00259634
0.00276834
0.00324004
0.00378624
0.0036165
0.00559286
0.00497587
0.00526446
0.00784298
0.00864688
0.0096866
0.0118022
0.0213233
0.0288951
0.0746258
0.099216
6.78382e-05
6.99649e-05
8.25811e-05
8.51331e-05
9.13649e-05
0.00012019
0.000174519
0.000197127
0.000202879
0.000204504
0.000221328
0.000327999
0.000687173
0.00111692
0.00163555
0.00180103
0.00164041
0.00145892
0.00130279
0.000939459
0.000740817
0.000543236
0.000495241
0.000407394
0.00042273
0.000393347
0.000519149
0.000774862
0.000746121
0.00302093
0.00288191
0.00468205
0.00547827
0.00785122
0.013989
0.0309965
0.056695
0.202542
5.92424e-05
6.02937e-05
6.48898e-05
6.67404e-05
6.85796e-05
7.92701e-05
9.98006e-05
0.000110126
0.000116294
0.000123448
0.000127974
0.000137739
0.00017095
0.000258796
0.000492888
0.000640974
0.000613132
0.000627709
0.000604408
0.000453134
0.000365891
0.000302452
0.000288444
0.000249106
0.000254239
0.000262672
0.00031131
0.000317357
0.000473544
0.00124273
0.000952715
0.00189493
0.00161358
0.0079869
0.0211417
0.0332545
0.0596632
0.199245
4.35385e-05
4.52933e-05
5.0218e-05
5.15887e-05
5.38012e-05
5.64435e-05
6.37841e-05
6.64217e-05
6.69309e-05
7.20047e-05
8.17634e-05
8.42186e-05
9.38637e-05
0.000106698
0.000153111
0.000185663
0.00018882
0.000252486
0.000250378
0.000213248
0.000193036
0.000195329
0.000195563
0.000199215
0.000207468
0.000229578
0.000246131
0.000275915
0.000533594
0.000591017
0.000710187
0.00108089
0.00100131
0.00301618
0.00960294
0.0201042
0.0572118
0.176696
3.15426e-05
3.35053e-05
3.80995e-05
3.92819e-05
4.2166e-05
4.49575e-05
4.83957e-05
5.1728e-05
5.35364e-05
5.37572e-05
6.05754e-05
6.14112e-05
6.70054e-05
7.17958e-05
7.72023e-05
9.45994e-05
9.62129e-05
0.000129879
0.000136895
0.000134984
0.000148205
0.000154923
0.000176387
0.000180115
0.000204997
0.000219607
0.000261003
0.000293826
0.000320133
0.000365833
0.000459252
0.000531279
0.000600028
0.00111268
0.012765
0.0436266
0.0795047
0.176345
2.23813e-05
2.565e-05
2.71242e-05
3.04241e-05
3.15692e-05
3.47865e-05
3.81249e-05
3.92503e-05
4.28986e-05
4.40368e-05
5.01221e-05
5.16038e-05
5.90376e-05
6.30418e-05
6.85359e-05
7.65401e-05
9.469e-05
0.000109918
0.000113682
0.000120027
0.000133991
0.000152263
0.000158588
0.000176628
0.000185282
0.000201385
0.00025013
0.000248715
0.000253449
0.000294168
0.000378254
0.000555375
0.000730354
0.00133524
0.00676461
0.0421093
0.0856686
0.17273
2.05947e-05
2.26323e-05
2.40317e-05
2.69479e-05
2.79808e-05
3.05131e-05
3.42427e-05
3.55362e-05
3.80719e-05
4.39499e-05
4.52688e-05
5.02894e-05
5.30275e-05
5.95218e-05
6.66426e-05
7.35281e-05
0.000103102
0.000105103
0.000115638
0.000121842
0.0001379
0.000168708
0.00017219
0.000188923
0.000196969
0.000207679
0.000213679
0.000226609
0.000225049
0.00026082
0.00048786
0.00148419
0.00383352
0.0102602
0.0257639
0.043359
0.0872949
0.160781
1.98166e-05
2.10158e-05
2.38298e-05
2.49414e-05
2.59952e-05
2.9852e-05
3.12645e-05
3.43056e-05
3.58477e-05
3.9592e-05
4.3983e-05
4.61807e-05
4.86724e-05
5.94982e-05
8.4545e-05
0.000123132
0.000123216
0.000122105
0.000123196
0.000131257
0.000137393
0.00015809
0.000161629
0.000163945
0.000176194
0.000185249
0.000198339
0.0002041
0.000219383
0.000227727
0.000282824
0.000665118
0.00136753
0.00673116
0.0296036
0.057432
0.0878474
0.114251
1.94893e-05
2.01775e-05
2.28138e-05
2.40452e-05
2.50188e-05
2.77613e-05
3.03971e-05
3.15455e-05
3.42992e-05
3.6603e-05
4.03344e-05
4.39794e-05
5.44945e-05
0.000109081
0.000206509
0.000221349
0.000229037
0.000236645
0.000236036
0.000221662
0.000219568
0.000217866
0.000204401
0.000206558
0.000202887
0.000216354
0.00024745
0.000231748
0.000222102
0.000321881
0.000730536
0.0021841
0.00623276
0.0185049
0.0452803
0.0778133
0.0848934
0.0824643
1.76555e-05
1.8119e-05
2.07517e-05
2.21205e-05
2.26337e-05
2.47321e-05
2.72088e-05
2.76533e-05
2.9253e-05
5.15323e-05
5.21127e-05
6.39278e-05
9.82406e-05
0.000139481
0.000242914
0.000264087
0.000316536
0.000345743
0.000392414
0.000465774
0.000448752
0.000440964
0.000420507
0.000451541
0.000462347
0.000478293
0.000536124
0.000514224
0.000509516
0.00071574
0.000695146
0.00102984
0.00315155
0.021302
0.0630641
0.0812665
0.0814967
0.0743609
1.25737e-05
1.34537e-05
1.5552e-05
1.50911e-05
1.64202e-05
1.81908e-05
1.83698e-05
1.87258e-05
2.84862e-05
0.000135882
0.000139376
0.000106648
9.80809e-05
0.00011343
0.000205014
0.000264016
0.000282882
0.000314857
0.000347233
0.000304025
0.000293901
0.00028988
0.000280213
0.000281866
0.000280752
0.000284672
0.000282327
0.000242737
0.000532841
0.00188433
0.00465674
0.0130203
0.0278136
0.0469846
0.0698207
0.075727
0.0686454
0.0643525
0.000101021
0.000100993
9.80266e-05
0.0001151
0.000319614
0.00112183
0.00159677
0.00168089
0.00171934
0.00174018
0.00168302
0.00154945
0.00147258
0.00150899
0.00212311
0.00352068
0.00432775
0.00466945
0.00467881
0.00479821
0.00534386
0.00681182
0.0100087
0.0115202
0.0118556
0.0120017
0.0120132
0.0123432
0.0121173
0.0121147
0.0131715
0.012541
0.0137826
0.0140813
0.0148458
0.033966
0.04481
0.132305
0.000171056
0.000168591
0.000171635
0.000179209
0.000232605
0.000545744
0.00112299
0.00157944
0.00199823
0.00214834
0.00225686
0.00279163
0.00356877
0.00346287
0.00317087
0.00365679
0.00460294
0.00550761
0.00660554
0.00710825
0.00745963
0.00772532
0.00945657
0.0109245
0.0121561
0.0131152
0.0132069
0.0152037
0.0117232
0.0148073
0.0135535
0.0163005
0.0164214
0.0161321
0.02797
0.0707803
0.0956425
0.200068
0.000125339
0.000153028
0.000166791
0.000170598
0.000182691
0.000218155
0.000294846
0.000360613
0.000383779
0.000405355
0.000468149
0.000578687
0.000934824
0.00147934
0.00235506
0.00270485
0.00268122
0.00236728
0.00192313
0.00153264
0.00116948
0.000924857
0.000957903
0.00101856
0.00109117
0.00114278
0.00164407
0.00202092
0.00154414
0.00410392
0.00365565
0.00802994
0.00706649
0.0147377
0.0174727
0.0382824
0.0635963
0.212269
7.76929e-05
8.30163e-05
9.6867e-05
0.000102383
0.000114061
0.000133281
0.000164976
0.00016506
0.000163927
0.000155692
0.000151976
0.000162127
0.000190416
0.000249934
0.000443347
0.000679814
0.000634415
0.000539777
0.000488815
0.000408178
0.000278572
0.000241055
0.000241582
0.000247317
0.000280683
0.000340056
0.000495845
0.000538521
0.000885644
0.00364028
0.00209958
0.00333817
0.00477823
0.00832894
0.0245062
0.029715
0.0499066
0.255823
5.40307e-05
5.54824e-05
5.85618e-05
6.75808e-05
7.03997e-05
8.06858e-05
9.60954e-05
9.8052e-05
9.85287e-05
9.63378e-05
0.000101905
0.000110785
0.000110267
0.000122011
0.000136899
0.000162065
0.000150662
0.000164893
0.000159849
0.000156925
0.000162285
0.000174022
0.00019956
0.000206668
0.000262303
0.000284202
0.000384233
0.000486228
0.0015339
0.00124582
0.00129285
0.00157909
0.00184631
0.00323046
0.00651651
0.013624
0.0575776
0.251399
3.46566e-05
3.67073e-05
4.69153e-05
4.72873e-05
4.79534e-05
5.56897e-05
6.0537e-05
6.11097e-05
6.12877e-05
6.21037e-05
6.62666e-05
7.82417e-05
7.54966e-05
8.1478e-05
8.9431e-05
9.1306e-05
9.7942e-05
0.000117488
0.00012073
0.000130391
0.000155035
0.000221764
0.000216902
0.000236315
0.00026357
0.000330828
0.000385509
0.000487338
0.000489864
0.000850591
0.000954203
0.000880874
0.0010962
0.00167499
0.0097782
0.0407107
0.117118
0.303213
2.52645e-05
2.60862e-05
3.31982e-05
3.24802e-05
3.58783e-05
4.09206e-05
4.12393e-05
4.3035e-05
4.53962e-05
5.13993e-05
5.37164e-05
6.37916e-05
6.757e-05
7.3247e-05
8.08207e-05
0.000110273
0.000131177
0.00013215
0.000131166
0.000135254
0.000146105
0.0001594
0.000200488
0.000204955
0.00022713
0.000285957
0.000318411
0.000330859
0.000377389
0.000499868
0.000614563
0.000786915
0.00103935
0.00186741
0.00512154
0.0385475
0.12038
0.260964
2.44606e-05
2.55265e-05
2.85387e-05
2.91035e-05
3.31587e-05
3.50852e-05
3.61303e-05
3.85135e-05
4.44604e-05
4.57327e-05
5.30167e-05
5.63078e-05
6.50482e-05
7.28211e-05
7.90818e-05
0.000115024
0.000144873
0.000173785
0.000166942
0.000172628
0.000182905
0.000195042
0.000227768
0.000230936
0.000260221
0.000284969
0.000291185
0.00030906
0.000377606
0.000590828
0.00084355
0.00184656
0.00338703
0.00761992
0.0307737
0.0486296
0.125841
0.238115
2.24199e-05
2.41797e-05
2.50735e-05
2.65927e-05
3.04212e-05
3.10972e-05
3.38014e-05
3.54353e-05
3.9426e-05
4.36766e-05
4.49577e-05
4.84256e-05
5.96709e-05
7.03359e-05
9.55167e-05
9.8209e-05
0.000102034
0.000108012
0.000116243
0.000122735
0.000148516
0.000159855
0.000183137
0.000200635
0.000198638
0.000223906
0.000229567
0.000288371
0.000278291
0.00037567
0.000457194
0.000661873
0.000855023
0.00247385
0.0265486
0.112009
0.139813
0.179313
1.9664e-05
2.16516e-05
2.24559e-05
2.41434e-05
2.57219e-05
2.67539e-05
2.92302e-05
3.12122e-05
3.22757e-05
3.8902e-05
4.09979e-05
4.19702e-05
4.96744e-05
8.24773e-05
0.000157712
0.000171506
0.000239654
0.000237655
0.000251898
0.000284685
0.000294056
0.00029373
0.00030513
0.000301296
0.000297831
0.000324122
0.000359279
0.00036412
0.000503543
0.000665176
0.00128539
0.00355342
0.00555955
0.011324
0.040153
0.116055
0.133063
0.121343
1.54461e-05
1.69354e-05
1.74513e-05
1.87427e-05
1.96827e-05
2.04226e-05
2.23026e-05
2.41187e-05
2.72565e-05
4.23134e-05
4.2259e-05
5.49687e-05
9.61044e-05
0.000141881
0.000308092
0.000383432
0.000522314
0.000668902
0.000979701
0.00113747
0.00109027
0.00108698
0.00103601
0.00105695
0.00104137
0.00106593
0.00110078
0.00112257
0.00119292
0.00177126
0.00192368
0.00248383
0.00484905
0.0148613
0.0748471
0.135502
0.124652
0.122104
1.34535e-05
1.49923e-05
1.56661e-05
1.59958e-05
1.78121e-05
1.83919e-05
1.92715e-05
2.04958e-05
2.23288e-05
7.4359e-05
9.24732e-05
9.26579e-05
6.80759e-05
7.57369e-05
0.000247268
0.000413882
0.000485138
0.000512494
0.00065298
0.000639106
0.000596981
0.000609988
0.000564207
0.000598563
0.000552157
0.000521548
0.000460734
0.000385724
0.000866541
0.00245252
0.00569579
0.0154639
0.0316966
0.0506379
0.0842963
0.102687
0.0917234
0.089909
0.000105764
0.000101455
8.84796e-05
0.000103509
0.000208717
0.000882756
0.00156758
0.00168375
0.00171562
0.00172842
0.00164754
0.00152321
0.00129237
0.00102319
0.00152226
0.00378231
0.0050551
0.00560336
0.00585445
0.00601634
0.0064396
0.00774437
0.0110735
0.013556
0.0142687
0.0144862
0.0145198
0.0142745
0.0139842
0.0140089
0.0132415
0.0136808
0.012913
0.0147886
0.015482
0.0236455
0.0636913
0.183245
0.000181967
0.000181782
0.000167057
0.000165374
0.000199943
0.000408599
0.000930146
0.00141922
0.00193256
0.00227571
0.00244736
0.0026812
0.00312572
0.00327681
0.00291083
0.00355946
0.00484518
0.00613325
0.00784788
0.00866129
0.00920402
0.00996511
0.0117523
0.0138776
0.0151763
0.0158912
0.0168987
0.015777
0.0141084
0.0162797
0.0122317
0.0153722
0.0137021
0.0227293
0.0227597
0.0457884
0.0664781
0.418237
0.000109745
0.000124437
0.00013661
0.000140983
0.000152365
0.000178872
0.000244494
0.000308149
0.000338643
0.000371061
0.000418505
0.000484147
0.000661268
0.000923561
0.00148955
0.00180615
0.00200108
0.00176207
0.0015157
0.00135387
0.00121527
0.00113648
0.00115267
0.0013176
0.00141668
0.00151143
0.00193981
0.00180711
0.00190915
0.00272502
0.00312114
0.00504312
0.00670293
0.0169177
0.0173914
0.0235754
0.0461798
0.210439
5.51147e-05
5.81931e-05
6.60208e-05
7.24611e-05
8.58583e-05
9.56284e-05
0.00010873
0.000110172
0.000108869
0.000107354
0.000106152
0.00011272
0.000129253
0.000156294
0.000222725
0.000297008
0.000303655
0.00028146
0.000263072
0.000254651
0.00024271
0.000244339
0.000251246
0.000289509
0.000302557
0.000343076
0.000398932
0.000526121
0.000823456
0.00167412
0.00175839
0.0022092
0.00443573
0.00610506
0.0140197
0.0161034
0.0239992
0.10733
4.1751e-05
4.27533e-05
4.49136e-05
5.01076e-05
5.30434e-05
5.92783e-05
6.35563e-05
7.04876e-05
7.15885e-05
7.56293e-05
7.73182e-05
8.16505e-05
8.6127e-05
9.25183e-05
0.000108906
0.000114416
0.000120383
0.000138093
0.000148328
0.000164367
0.000179437
0.000203026
0.000215337
0.000244455
0.000263651
0.000297141
0.0003712
0.000441321
0.000608599
0.0014269
0.0011491
0.00187639
0.00211061
0.00330246
0.00705532
0.00941776
0.0384006
0.172266
3.5599e-05
3.67419e-05
4.08081e-05
4.25848e-05
4.47836e-05
5.03812e-05
5.20916e-05
5.52161e-05
5.65291e-05
6.36735e-05
6.7192e-05
7.64748e-05
8.20917e-05
9.03741e-05
0.000104313
0.000108896
0.000121687
0.000148666
0.00016175
0.000166767
0.000187514
0.000219969
0.000236724
0.000284726
0.00030648
0.00033784
0.000413852
0.000440644
0.000497157
0.000700421
0.000759291
0.00106705
0.00120289
0.00221736
0.00527232
0.00848678
0.0428518
0.173167
3.18329e-05
3.38902e-05
3.70452e-05
3.81186e-05
4.16377e-05
4.56837e-05
4.72208e-05
5.07852e-05
5.31552e-05
5.91963e-05
6.32822e-05
7.25071e-05
7.84867e-05
9.04574e-05
0.00010806
0.000123153
0.000137271
0.000154803
0.000168423
0.000175761
0.000184478
0.000214208
0.000247296
0.000256919
0.000315864
0.000325061
0.000331543
0.000425693
0.000482133
0.000485779
0.000549393
0.000606896
0.000796471
0.00168181
0.0027159
0.0144856
0.074611
0.151699
3.02738e-05
3.27902e-05
3.51908e-05
3.64443e-05
4.06327e-05
4.30843e-05
4.57879e-05
4.86115e-05
5.29769e-05
5.58575e-05
6.24845e-05
6.64714e-05
7.42475e-05
9.29161e-05
0.000108125
0.000141158
0.000153064
0.000169945
0.000174747
0.000191421
0.000196901
0.000218066
0.000244636
0.000258223
0.000286961
0.000320737
0.000314319
0.00034938
0.000385849
0.000486511
0.000712973
0.000702893
0.000900035
0.00157322
0.00449561
0.0191096
0.0598353
0.0916993
2.79717e-05
2.97223e-05
3.16221e-05
3.36584e-05
3.70658e-05
3.84913e-05
4.20066e-05
4.44293e-05
4.90248e-05
5.45354e-05
5.65005e-05
6.03543e-05
7.15989e-05
9.44335e-05
0.000125133
0.00013136
0.000131161
0.000136428
0.000146889
0.000158773
0.000180455
0.000194959
0.00021604
0.000241801
0.000243136
0.000260201
0.000273628
0.000309567
0.000338442
0.000385229
0.000472198
0.000580371
0.000631808
0.00101901
0.00419079
0.0521232
0.0826325
0.0564901
2.46848e-05
2.58978e-05
2.76064e-05
2.9818e-05
3.16796e-05
3.31212e-05
3.64364e-05
3.79679e-05
4.08831e-05
4.77376e-05
5.01685e-05
5.10352e-05
6.01803e-05
0.000100948
0.000112586
0.000116813
0.000139545
0.000187817
0.000251744
0.000312672
0.000359296
0.000364846
0.000386636
0.000390629
0.000395948
0.000416511
0.000463947
0.000504542
0.000660821
0.000872534
0.00108796
0.00162679
0.00225612
0.0029322
0.00740018
0.0445514
0.0708009
0.0685986
1.96415e-05
2.07972e-05
2.27614e-05
2.41582e-05
2.59973e-05
2.70442e-05
2.9745e-05
3.05476e-05
3.86473e-05
4.36256e-05
4.60284e-05
4.76044e-05
8.09189e-05
0.000111568
0.000189272
0.000272528
0.000469167
0.000753834
0.00115817
0.00143761
0.00140077
0.00139066
0.00136207
0.00132905
0.00134317
0.001374
0.00141172
0.00145997
0.0018869
0.0030108
0.00495455
0.00702684
0.012644
0.0177248
0.0366565
0.0957865
0.0868332
0.0984777
1.48023e-05
1.63074e-05
1.68192e-05
1.74083e-05
1.94953e-05
2.01339e-05
2.09808e-05
2.30522e-05
2.2965e-05
3.22814e-05
4.4792e-05
5.03754e-05
4.43679e-05
6.51649e-05
0.000213496
0.000450698
0.000583064
0.000638195
0.000779387
0.000806345
0.000774095
0.000768707
0.000733582
0.000745718
0.000700352
0.000655874
0.000572561
0.000579243
0.00153444
0.00348632
0.00681194
0.0171848
0.0358469
0.0546477
0.0843951
0.0997135
0.0903202
0.09124
9.34056e-05
8.37025e-05
6.15045e-05
7.53731e-05
0.000143384
0.000645468
0.001406
0.00149197
0.00142124
0.00130796
0.0011191
0.000996749
0.000830883
0.000693129
0.00124344
0.00373996
0.00543633
0.00610015
0.00656911
0.00680822
0.00711792
0.00822581
0.0111682
0.0142475
0.0152213
0.0154813
0.0154614
0.014921
0.0145791
0.0140496
0.0127448
0.0129383
0.0117742
0.0125221
0.0124751
0.0209446
0.0405536
0.0884716
0.000153774
0.000163473
0.000141241
0.000124434
0.00014718
0.000267423
0.000660567
0.00102896
0.00128343
0.00144758
0.0014761
0.00165839
0.00188165
0.00198867
0.00187864
0.00259733
0.00429168
0.00615967
0.00846546
0.0098495
0.0102388
0.011489
0.0129212
0.0154638
0.0166529
0.0175883
0.018036
0.0161295
0.0152214
0.0162258
0.0113734
0.0121267
0.0104752
0.0157988
0.0149149
0.0228462
0.041359
0.234226
7.88359e-05
9.23637e-05
0.000109116
0.000112553
0.000120078
0.000138435
0.000182162
0.000229853
0.000240254
0.000249956
0.000251849
0.000272295
0.000335306
0.000415953
0.000608244
0.000774836
0.000954453
0.00102674
0.00111685
0.00124389
0.00124997
0.00130289
0.00137703
0.00159481
0.00173358
0.0018466
0.0021476
0.00193254
0.00190633
0.00232202
0.00225788
0.00267361
0.00466897
0.00970881
0.0158424
0.0196453
0.0277528
0.0690668
4.40153e-05
4.61018e-05
5.17369e-05
5.88643e-05
6.67944e-05
7.28474e-05
8.09058e-05
8.35886e-05
8.1901e-05
8.37772e-05
8.72497e-05
9.45478e-05
0.000104158
0.000120042
0.000152325
0.000174987
0.000191889
0.000204553
0.000219326
0.000240913
0.000251888
0.000260582
0.000280758
0.000310516
0.000326706
0.000365251
0.000404095
0.000479822
0.00058428
0.000837307
0.00119132
0.00138236
0.00298675
0.0042185
0.0122938
0.0119064
0.0141249
0.0450631
3.9711e-05
4.06726e-05
4.22897e-05
4.56546e-05
4.86841e-05
5.22379e-05
5.46323e-05
5.94743e-05
6.10428e-05
6.53528e-05
7.08056e-05
7.54819e-05
8.1445e-05
9.08409e-05
0.000112213
0.000119679
0.000135317
0.000158773
0.000180528
0.000189164
0.000205351
0.000222809
0.000241869
0.000276785
0.000289846
0.000314938
0.000381882
0.000426692
0.000515317
0.000846876
0.000839301
0.00114614
0.00174412
0.00236191
0.00614885
0.00837624
0.0175882
0.0744425
3.87132e-05
4.06889e-05
4.24396e-05
4.42447e-05
4.79277e-05
5.2125e-05
5.39556e-05
5.71384e-05
5.97032e-05
6.6046e-05
7.41098e-05
7.77672e-05
8.63232e-05
9.91654e-05
0.000118851
0.000126576
0.000143705
0.000170776
0.00019377
0.000201695
0.0002187
0.000251049
0.000264656
0.000301487
0.000320618
0.000339827
0.00037914
0.000417588
0.000494243
0.000571668
0.000726569
0.00119869
0.00127407
0.00183206
0.00535898
0.00633966
0.0127975
0.056901
3.69453e-05
4.01493e-05
4.20378e-05
4.36516e-05
4.78245e-05
5.12361e-05
5.3869e-05
5.81145e-05
6.10778e-05
6.64409e-05
7.38679e-05
8.17789e-05
8.84209e-05
0.000103998
0.000129596
0.000141184
0.000151036
0.000172923
0.000194791
0.000204579
0.00021428
0.000248409
0.000270195
0.000286105
0.000329722
0.000337212
0.000338027
0.000408116
0.000452923
0.000463405
0.000529282
0.000582748
0.000752712
0.00123774
0.00261101
0.00547785
0.0235249
0.0460238
3.48722e-05
3.77805e-05
4.03291e-05
4.20975e-05
4.66531e-05
4.93026e-05
5.28204e-05
5.66311e-05
6.05073e-05
6.4484e-05
7.13432e-05
7.66146e-05
8.56718e-05
0.000108012
0.000132588
0.000160431
0.000168823
0.000183082
0.000191956
0.000213121
0.000220638
0.000244464
0.000266961
0.000288848
0.000298285
0.000322979
0.000322152
0.000338308
0.000393728
0.000448327
0.000566688
0.000604859
0.000738359
0.00133633
0.0026927
0.00761585
0.0163356
0.0220035
3.21662e-05
3.39414e-05
3.64907e-05
3.89868e-05
4.24002e-05
4.42817e-05
4.83775e-05
5.16755e-05
5.66524e-05
6.16115e-05
6.44502e-05
7.10343e-05
8.3969e-05
0.000115875
0.000139503
0.000148774
0.000150896
0.000157117
0.000171727
0.000191258
0.000210326
0.000228363
0.00025049
0.00026743
0.000281124
0.000289193
0.000308275
0.000332931
0.00037166
0.000459586
0.000489387
0.00058029
0.000652705
0.000938532
0.00173449
0.00760084
0.0247679
0.022392
2.82321e-05
2.93562e-05
3.16809e-05
3.42508e-05
3.61819e-05
3.79862e-05
4.19697e-05
4.3841e-05
4.83314e-05
5.28288e-05
5.52339e-05
5.96397e-05
7.52842e-05
0.00011607
0.000122856
0.000126691
0.000147399
0.000207931
0.000282284
0.000359025
0.000413209
0.000422762
0.00044766
0.000453728
0.000470099
0.000497218
0.000555205
0.000647724
0.000906237
0.00122188
0.00154803
0.0017979
0.0027596
0.0027298
0.00440546
0.0165138
0.0248397
0.0489807
2.43327e-05
2.51571e-05
2.81953e-05
2.96742e-05
3.09172e-05
3.1995e-05
3.57075e-05
3.64554e-05
4.39149e-05
4.53989e-05
4.74065e-05
5.1841e-05
6.74898e-05
0.000107798
0.000226897
0.00029454
0.000500137
0.000875205
0.0012829
0.00162937
0.00159398
0.00157941
0.00156777
0.00151926
0.0015473
0.00160943
0.00169202
0.00184081
0.00260941
0.00441985
0.00737916
0.0108878
0.0190123
0.0276368
0.036579
0.0576791
0.0510509
0.0544566
1.63232e-05
1.69377e-05
1.80706e-05
1.9505e-05
2.09277e-05
2.14868e-05
2.31461e-05
2.50722e-05
2.54075e-05
2.73678e-05
3.20402e-05
3.39768e-05
3.7068e-05
9.29048e-05
0.000319465
0.000526202
0.000670502
0.000732948
0.000873139
0.000922572
0.00089813
0.000876168
0.000848184
0.000844831
0.000801723
0.000747474
0.000653291
0.000862741
0.00232788
0.00462333
0.00763398
0.0173576
0.0365461
0.0559197
0.0807949
0.091699
0.0858141
0.0878164
7.2951e-05
6.26159e-05
5.40858e-05
5.31493e-05
8.85743e-05
0.000304074
0.00108958
0.0012507
0.00104781
0.000790686
0.000648199
0.000552549
0.000448615
0.000420266
0.00111836
0.00374705
0.00571065
0.00646072
0.00706806
0.00737751
0.0075955
0.00847952
0.0109447
0.0142104
0.0153937
0.0157173
0.0156979
0.0150542
0.0146695
0.0137239
0.0123036
0.0121258
0.0110465
0.0110232
0.010988
0.0208788
0.0430295
0.0619449
0.00010702
0.000133659
0.000118597
8.82023e-05
9.8599e-05
0.000152621
0.000372789
0.00061478
0.000632217
0.000621171
0.000603349
0.000666613
0.000785495
0.000963626
0.00115765
0.00212061
0.00406367
0.006314
0.0089138
0.0108572
0.0109541
0.012447
0.0134762
0.0160701
0.0172779
0.0182488
0.018376
0.0162121
0.0156405
0.0154558
0.011184
0.0108261
0.00909414
0.0115994
0.0102459
0.0134109
0.0215085
0.0730089
5.4563e-05
6.28116e-05
8.26348e-05
9.01685e-05
9.25159e-05
0.000105573
0.000127523
0.000157917
0.000166345
0.000169177
0.00016499
0.00017208
0.000196628
0.000232778
0.00031984
0.000475785
0.000674184
0.000900231
0.00108096
0.0013591
0.00142851
0.00155865
0.00163455
0.00187764
0.00200247
0.00214657
0.0023275
0.00206087
0.00200822
0.0020989
0.00189557
0.00205334
0.00312852
0.00472206
0.00826001
0.0107263
0.0180203
0.0470818
3.99206e-05
4.12817e-05
4.52997e-05
5.35553e-05
6.04138e-05
6.35667e-05
6.82357e-05
7.13688e-05
7.04466e-05
7.33884e-05
7.94958e-05
8.56436e-05
9.1102e-05
0.00010111
0.000122912
0.000149212
0.00018661
0.000205663
0.000228156
0.000266315
0.000286539
0.000298441
0.000319781
0.000347007
0.000363744
0.000397726
0.000421196
0.000499895
0.000565172
0.000670605
0.000899368
0.00114202
0.00213926
0.0028736
0.0085227
0.00836008
0.0104364
0.0227214
4.04083e-05
4.1546e-05
4.3116e-05
4.60343e-05
4.97278e-05
5.22304e-05
5.43939e-05
5.79226e-05
6.06688e-05
6.5479e-05
7.50922e-05
8.01087e-05
8.77414e-05
9.84422e-05
0.00012076
0.000130099
0.000150614
0.00017455
0.000192497
0.000202507
0.000219345
0.00023921
0.000259377
0.000289403
0.000302908
0.000331484
0.000369014
0.000422425
0.000507297
0.000621521
0.000754718
0.0010439
0.00153006
0.0020588
0.00435659
0.00779723
0.0111707
0.0227655
4.14434e-05
4.37461e-05
4.5301e-05
4.72544e-05
5.15291e-05
5.53325e-05
5.79409e-05
6.1405e-05
6.46551e-05
7.09816e-05
8.03258e-05
8.40996e-05
9.17845e-05
0.000107364
0.000129725
0.000139751
0.000157975
0.000183987
0.000209143
0.000218228
0.000234612
0.000264164
0.00027583
0.000304833
0.000324821
0.000339597
0.000364851
0.000402185
0.000483677
0.000543293
0.000721148
0.001054
0.00127883
0.00171347
0.00432133
0.00802442
0.00965011
0.0185545
4.04614e-05
4.38407e-05
4.58871e-05
4.78578e-05
5.25425e-05
5.5846e-05
5.9267e-05
6.41049e-05
6.8039e-05
7.34324e-05
8.22739e-05
9.03205e-05
9.79325e-05
0.000116506
0.000144624
0.000158331
0.000167326
0.000188964
0.000213783
0.000225591
0.000235362
0.000264669
0.000282949
0.00029708
0.000330663
0.000342311
0.000340978
0.000382337
0.000430319
0.000453976
0.000538252
0.000604262
0.000804181
0.00123998
0.00268681
0.00616987
0.00905249
0.0160401
3.82715e-05
4.12953e-05
4.40791e-05
4.62944e-05
5.11534e-05
5.40891e-05
5.8048e-05
6.27131e-05
6.68739e-05
7.14553e-05
7.88695e-05
8.51762e-05
9.54417e-05
0.00012074
0.000151871
0.000176037
0.000184706
0.000198814
0.000211034
0.000232916
0.000242885
0.000265291
0.000286098
0.000300834
0.000306893
0.000321684
0.000321736
0.000332801
0.000378526
0.000430783
0.000551488
0.000625763
0.000793547
0.00132643
0.00263516
0.00624458
0.00932839
0.014631
3.52357e-05
3.71598e-05
4.00197e-05
4.28636e-05
4.64526e-05
4.87262e-05
5.3149e-05
5.72473e-05
6.253e-05
6.69266e-05
7.10964e-05
7.92046e-05
9.46713e-05
0.000131959
0.000153819
0.00016017
0.000168122
0.000176437
0.000196269
0.000219772
0.00024024
0.000256674
0.000274396
0.000285075
0.000299398
0.000302609
0.000318894
0.000344977
0.00040264
0.000539665
0.000583951
0.000697206
0.000776358
0.00105378
0.00167161
0.00336077
0.00742957
0.0177974
3.07693e-05
3.19441e-05
3.45292e-05
3.74167e-05
3.94525e-05
4.14911e-05
4.58176e-05
4.82567e-05
5.35121e-05
5.56585e-05
6.10537e-05
6.69429e-05
9.28802e-05
0.00012526
0.000133069
0.000141913
0.000177625
0.000272729
0.000340006
0.000416213
0.000459126
0.000470402
0.00049155
0.000499902
0.000523518
0.000564877
0.000658059
0.000827267
0.00122458
0.0017392
0.0022088
0.00246161
0.00335651
0.00309849
0.00461271
0.0138651
0.0146301
0.0327159
2.71266e-05
2.7212e-05
3.00539e-05
3.26142e-05
3.28725e-05
3.37762e-05
3.7872e-05
3.94739e-05
4.33941e-05
4.26846e-05
4.65889e-05
5.35268e-05
8.55446e-05
0.000108081
0.000228356
0.000315917
0.000589669
0.00102958
0.00140283
0.00175857
0.00171849
0.00171203
0.00170485
0.00167319
0.00171676
0.00183361
0.00199837
0.00230502
0.00344225
0.00579405
0.00910156
0.0131536
0.0223463
0.0282723
0.044504
0.0793537
0.0577293
0.0486793
1.72015e-05
1.76185e-05
1.88967e-05
2.09281e-05
2.17001e-05
2.2246e-05
2.41836e-05
2.67784e-05
2.74338e-05
2.89881e-05
3.03454e-05
3.25861e-05
3.69697e-05
0.000102533
0.000412837
0.000592569
0.00075752
0.000825925
0.00095293
0.00101479
0.000993971
0.000958655
0.000937867
0.000923495
0.000879271
0.000816732
0.000739345
0.00123973
0.00314966
0.0056856
0.00830483
0.0169361
0.0360035
0.0555163
0.0759727
0.0867453
0.0830012
0.079246
5.58713e-05
5.47629e-05
5.67157e-05
5.06778e-05
5.96867e-05
0.000115946
0.000461236
0.000868404
0.000850735
0.000679965
0.000480353
0.000361394
0.000285809
0.000313175
0.00109404
0.00382146
0.00595522
0.00674976
0.00740931
0.00778912
0.00795774
0.00857705
0.01045
0.0136886
0.0152386
0.0156553
0.015671
0.0150808
0.0146244
0.0133856
0.0121837
0.011849
0.0106488
0.0103147
0.0111487
0.0259279
0.0393267
0.050305
7.51737e-05
9.95806e-05
0.000100883
8.11101e-05
7.90702e-05
0.000103682
0.00017338
0.000301079
0.00031564
0.000315363
0.000307714
0.000334186
0.000401135
0.000560226
0.000869801
0.001984
0.00417109
0.0066103
0.00930289
0.0115651
0.0115156
0.0129458
0.0137203
0.0159896
0.0174027
0.0183813
0.0183318
0.0164388
0.0158983
0.0148614
0.0115643
0.0110629
0.00902792
0.00989343
0.00826964
0.0104611
0.0148223
0.031796
4.24409e-05
4.68956e-05
5.96258e-05
7.67325e-05
7.82352e-05
8.65821e-05
9.5179e-05
0.00010762
0.000114021
0.000127224
0.000132823
0.000140712
0.000159991
0.000194488
0.000288849
0.00045788
0.000731202
0.00108397
0.00132567
0.00167968
0.00173819
0.00185962
0.0019337
0.00214766
0.00226437
0.00243974
0.00247033
0.00221665
0.00215746
0.00210696
0.00187166
0.00195956
0.00229367
0.00288369
0.00460491
0.00660894
0.01443
0.0286079
3.85979e-05
3.98346e-05
4.36699e-05
5.02207e-05
5.60384e-05
5.86988e-05
6.17527e-05
6.53643e-05
6.61522e-05
6.92858e-05
7.49251e-05
8.00782e-05
8.54615e-05
9.56311e-05
0.000118378
0.000153234
0.000213502
0.000249563
0.000279884
0.000334262
0.000351286
0.000361453
0.000373684
0.000399636
0.000414089
0.000445841
0.000478686
0.00052096
0.000605927
0.000677184
0.000883786
0.00108144
0.00163085
0.00211397
0.00476809
0.00582503
0.00879124
0.0151792
4.12377e-05
4.2602e-05
4.44664e-05
4.75607e-05
5.15782e-05
5.39327e-05
5.65803e-05
5.97811e-05
6.39527e-05
6.93476e-05
8.02797e-05
8.66101e-05
9.30934e-05
0.000103254
0.000122921
0.00013396
0.000157315
0.000177825
0.000195257
0.000212051
0.000227033
0.000250193
0.000268973
0.000296037
0.000314687
0.000337354
0.000383217
0.000419989
0.000544857
0.000593857
0.000812223
0.00103711
0.00154724
0.00196832
0.00347205
0.00592953
0.00991178
0.0135919
4.3203e-05
4.56678e-05
4.76153e-05
4.98983e-05
5.46423e-05
5.85487e-05
6.2158e-05
6.63408e-05
7.07863e-05
7.66819e-05
8.58338e-05
9.06262e-05
9.78157e-05
0.000113335
0.000136286
0.000147765
0.000165061
0.000186643
0.000211209
0.000222103
0.000238211
0.000264523
0.000275779
0.000297265
0.000316908
0.000332507
0.000356725
0.000396845
0.000476328
0.000541877
0.000729543
0.000958932
0.00129669
0.00161256
0.00323064
0.00598663
0.00837549
0.0126326
4.2795e-05
4.61808e-05
4.85828e-05
5.09655e-05
5.60029e-05
5.95963e-05
6.36934e-05
6.90752e-05
7.3999e-05
7.9779e-05
8.90864e-05
9.75119e-05
0.000106043
0.000126762
0.000155235
0.000170977
0.000180284
0.000201021
0.00022337
0.00023567
0.000244615
0.000268952
0.000284762
0.000296123
0.000320612
0.000328908
0.000334316
0.000361977
0.000418188
0.000456186
0.00056482
0.000668652
0.000928748
0.00135669
0.00253109
0.00555654
0.00757099
0.0120329
4.07681e-05
4.37664e-05
4.67602e-05
4.94334e-05
5.44004e-05
5.77877e-05
6.21537e-05
6.74656e-05
7.21956e-05
7.72768e-05
8.51108e-05
9.19185e-05