/*--------------------------------*- C++ -*----------------------------------*\
| =========                 |                                                 |
| \\      /  F ield         | OpenFOAM: The Open Source CFD Toolbox           |
|  \\    /   O peration     | Version:  2.3.1                                 |
|   \\  /    A nd           | Web:      www.OpenFOAM.org                      |
|    \\/     M anipulation  |                                                 |
\*---------------------------------------------------------------------------*/
FoamFile
{
    version     2.0;
    format      ascii;
    class       volScalarField;
    location    "20";
    object      k_0;
}
// * * * * * * * * * * * * * * * * * * * * * * * * * * * * * * * * * * * * * //

dimensions      [0 2 -2 0 0 0 0];

internalField   nonuniform List<scalar> 
38262
(
6.3843e-05
6.54135e-05
7.09511e-05
0.000115314
0.000456096
0.00114107
0.00132629
0.00134809
0.00138676
0.00143613
0.00141364
0.00134956
0.00135582
0.00151636
0.0019422
0.00257624
0.00286158
0.00290303
0.00291496
0.00313067
0.00376574
0.00545222
0.00681761
0.00707519
0.00706258
0.00718245
0.00721143
0.00749968
0.00755826
0.00771973
0.00891474
0.00849278
0.00974942
0.0100522
0.0116656
0.0255373
0.0499513
0.103518
7.77053e-05
7.60098e-05
8.3226e-05
8.64745e-05
0.000139406
0.000376746
0.000605128
0.000660961
0.000649193
0.000747525
0.000994464
0.00133735
0.00163945
0.0018211
0.00215975
0.00245373
0.00254103
0.00240255
0.00261089
0.00261348
0.00242236
0.00215681
0.00259727
0.00277202
0.00324857
0.00379959
0.003637
0.0056373
0.00500695
0.00529163
0.00790704
0.00871298
0.0097766
0.0118734
0.0214519
0.029003
0.074778
0.100391
6.7861e-05
6.99958e-05
8.26265e-05
8.51696e-05
9.12872e-05
0.00011971
0.000174017
0.000197067
0.000202962
0.000204577
0.000221227
0.000326221
0.000683207
0.00111215
0.00163275
0.0018003
0.00164219
0.0014619
0.00130602
0.000941691
0.000742213
0.000544174
0.00049595
0.000408019
0.000423409
0.000393751
0.000520986
0.000775832
0.000746403
0.00302017
0.00289443
0.00470807
0.00549898
0.0079137
0.014059
0.030966
0.0570769
0.205142
5.92584e-05
6.03101e-05
6.48984e-05
6.67347e-05
6.85718e-05
7.92442e-05
9.97181e-05
0.000110088
0.000116299
0.00012346
0.000127967
0.000137591
0.000170367
0.00025747
0.000490206
0.000638844
0.000612534
0.000628863
0.000605509
0.000453633
0.000366417
0.00030287
0.0002887
0.000249212
0.000254444
0.000262775
0.000311202
0.00031738
0.00047358
0.00123464
0.000949718
0.00189102
0.00161327
0.00796557
0.0211997
0.0337328
0.0600096
0.199792
4.35479e-05
4.53022e-05
5.02251e-05
5.15893e-05
5.37993e-05
5.6438e-05
6.37716e-05
6.64114e-05
6.6929e-05
7.20214e-05
8.17641e-05
8.41958e-05
9.38071e-05
0.00010654
0.000152634
0.000185019
0.000188569
0.000252821
0.000250511
0.000213127
0.000193114
0.000195434
0.000195626
0.000199272
0.000207507
0.000229613
0.000246088
0.000275877
0.000532172
0.00058855
0.000709632
0.00107634
0.000999931
0.00297817
0.00955876
0.0205288
0.0579873
0.176073
3.15481e-05
3.35117e-05
3.80999e-05
3.92816e-05
4.21638e-05
4.49532e-05
4.83891e-05
5.17212e-05
5.3524e-05
5.37537e-05
6.05763e-05
6.13982e-05
6.69945e-05
7.17639e-05
7.71562e-05
9.45089e-05
9.61872e-05
0.000129999
0.00013686
0.00013498
0.000148277
0.000154985
0.000176407
0.000180125
0.000205054
0.000219672
0.000260965
0.000293825
0.000320207
0.0003659
0.000459057
0.000530634
0.000600718
0.00111102
0.0128948
0.0443872
0.0808829
0.175941
2.23839e-05
2.56523e-05
2.71251e-05
3.04233e-05
3.15677e-05
3.47869e-05
3.81211e-05
3.92476e-05
4.28939e-05
4.40341e-05
5.01189e-05
5.16012e-05
5.90401e-05
6.30319e-05
6.85273e-05
7.65481e-05
9.47123e-05
0.000109884
0.000113628
0.000120012
0.000134063
0.000152238
0.00015856
0.000176617
0.000185264
0.000201533
0.000250209
0.000248649
0.000253505
0.000294535
0.000378471
0.000555853
0.000731684
0.00133529
0.00679816
0.0425168
0.0862919
0.17169
2.05947e-05
2.26329e-05
2.40333e-05
2.69472e-05
2.79797e-05
3.05154e-05
3.42401e-05
3.55333e-05
3.80747e-05
4.39479e-05
4.52638e-05
5.02865e-05
5.30264e-05
5.95313e-05
6.6629e-05
7.35473e-05
0.000103084
0.000105047
0.000115582
0.000121817
0.000138019
0.000168717
0.000172176
0.000188955
0.000196973
0.000207679
0.000213706
0.000226581
0.000225039
0.00026116
0.00048838
0.00148062
0.00383711
0.0104451
0.0261756
0.0439331
0.0877127
0.155655
1.98162e-05
2.10171e-05
2.3831e-05
2.49393e-05
2.59951e-05
2.98541e-05
3.12647e-05
3.43039e-05
3.5847e-05
3.95976e-05
4.39795e-05
4.61764e-05
4.86721e-05
5.95061e-05
8.45505e-05
0.000123081
0.000123131
0.000122032
0.000123146
0.000131264
0.00013743
0.00015812
0.000161599
0.000163943
0.000176252
0.00018529
0.000198272
0.000203973
0.000219229
0.000227675
0.000282835
0.000665907
0.00135204
0.00676012
0.0301177
0.0589148
0.0881593
0.108994
1.94889e-05
2.01778e-05
2.28152e-05
2.40435e-05
2.50184e-05
2.77645e-05
3.03957e-05
3.15443e-05
3.42991e-05
3.66004e-05
4.03256e-05
4.39897e-05
5.45441e-05
0.000109249
0.00020667
0.000221406
0.000229076
0.000236693
0.00023603
0.000221601
0.000219551
0.000217806
0.000204294
0.00020647
0.00020282
0.000216464
0.000247144
0.000231249
0.000221798
0.00032189
0.000724666
0.00216441
0.00621244
0.0187688
0.0466461
0.0795582
0.0861045
0.0822102
1.76542e-05
1.8119e-05
2.07543e-05
2.21189e-05
2.26326e-05
2.47351e-05
2.72065e-05
2.76528e-05
2.92475e-05
5.15431e-05
5.21266e-05
6.40162e-05
9.84136e-05
0.000139791
0.000243303
0.00026434
0.000316772
0.00034591
0.000392692
0.000465962
0.000448853
0.000440942
0.00042058
0.000451776
0.000462492
0.000478447
0.000536152
0.00051436
0.000508755
0.000711364
0.000687168
0.00101882
0.00309545
0.0211584
0.0639259
0.0827756
0.0829941
0.0754045
1.25729e-05
1.34561e-05
1.55511e-05
1.50896e-05
1.64229e-05
1.81898e-05
1.83682e-05
1.87275e-05
2.83876e-05
0.000135955
0.000139662
0.000106805
9.82126e-05
0.000113655
0.000205357
0.000264285
0.00028318
0.000315099
0.000347523
0.000304327
0.000294155
0.000290109
0.000280474
0.000282123
0.000281067
0.000285033
0.000282792
0.000242645
0.000525512
0.00184766
0.00448212
0.012604
0.0275462
0.0469945
0.0707116
0.0769645
0.0698138
0.0656127
0.000101092
0.000101071
9.80596e-05
0.00011457
0.000314167
0.00111186
0.0015964
0.00168242
0.00172084
0.00174234
0.00168602
0.00155245
0.00147476
0.0015093
0.00211474
0.00351001
0.0043292
0.00468056
0.00469291
0.00480579
0.00533681
0.0067778
0.00999072
0.0115789
0.011938
0.0120915
0.0121057
0.012438
0.0122089
0.0122211
0.0132761
0.0126425
0.0138769
0.0141731
0.0149625
0.0340298
0.0446878
0.133499
0.000171138
0.000168647
0.000171669
0.000179152
0.000231384
0.000539937
0.00111721
0.00157591
0.00199764
0.00215054
0.0022576
0.00278629
0.00356803
0.00346943
0.00317418
0.00365189
0.00459894
0.00550511
0.00660832
0.00711753
0.00746525
0.00772734
0.00945844
0.0109418
0.012207
0.0131925
0.0133087
0.0153275
0.0118154
0.0149431
0.013666
0.0164408
0.0165326
0.0162078
0.0281933
0.070669
0.0961571
0.197562
0.000125372
0.000153078
0.000166815
0.000170575
0.000182559
0.000217584
0.000293931
0.000360213
0.000383797
0.000405129
0.000467653
0.000577313
0.000930942
0.00147358
0.00235081
0.00270314
0.00268329
0.00237084
0.00192784
0.00153595
0.00117128
0.000926238
0.00095945
0.0010195
0.00109339
0.00114548
0.0016524
0.00202705
0.00154792
0.004115
0.00366514
0.00808645
0.00709365
0.0148727
0.0175968
0.038179
0.0633623
0.210121
7.77033e-05
8.301e-05
9.68271e-05
0.000102331
0.000114018
0.000133245
0.000164947
0.000165099
0.00016396
0.000155716
0.000151908
0.000161917
0.000189877
0.000248973
0.000441102
0.000677825
0.000633801
0.000540633
0.000489985
0.000408935
0.000278869
0.000241371
0.00024176
0.000247419
0.000280519
0.000340076
0.000495868
0.000538157
0.000885387
0.0036246
0.0020967
0.00334243
0.00479137
0.00835555
0.0243389
0.0299635
0.0504495
0.253359
5.40338e-05
5.54824e-05
5.85584e-05
6.7566e-05
7.03775e-05
8.06835e-05
9.60781e-05
9.80449e-05
9.85343e-05
9.6348e-05
0.000101924
0.000110744
0.00011019
0.000121904
0.000136658
0.000161764
0.000150612
0.000165061
0.000159984
0.00015704
0.000162382
0.000174033
0.000199438
0.000206549
0.00026207
0.00028416
0.000384282
0.000485615
0.00153381
0.00124574
0.00129319
0.00157524
0.00184428
0.0032288
0.00649533
0.0136697
0.0586334
0.251953
3.46529e-05
3.67058e-05
4.69146e-05
4.72738e-05
4.79416e-05
5.56913e-05
6.05224e-05
6.11001e-05
6.12752e-05
6.20975e-05
6.62756e-05
7.81922e-05
7.54467e-05
8.1464e-05
8.93854e-05
9.12751e-05
9.79808e-05
0.00011753
0.000120719
0.0001304
0.00015521
0.000221675
0.00021676
0.000236141
0.000263458
0.000330822
0.000385287
0.000487105
0.000489775
0.000852039
0.000951694
0.000882046
0.00109909
0.00167369
0.00986021
0.041821
0.118991
0.302985
2.52614e-05
2.60852e-05
3.31931e-05
3.24733e-05
3.58846e-05
4.09125e-05
4.12298e-05
4.30334e-05
4.53955e-05
5.13875e-05
5.37141e-05
6.3794e-05
6.75428e-05
7.32082e-05
8.08198e-05
0.000110335
0.000131213
0.000132068
0.000131071
0.00013519
0.000146082
0.000159433
0.000200435
0.000204822
0.000227096
0.000286109
0.000318552
0.000330876
0.000377624
0.000500191
0.000614357
0.000789826
0.00104102
0.00186225
0.00508269
0.0387319
0.121097
0.255193
2.44603e-05
2.55268e-05
2.85367e-05
2.91024e-05
3.31614e-05
3.50805e-05
3.6128e-05
3.85212e-05
4.44618e-05
4.57288e-05
5.30021e-05
5.63064e-05
6.50652e-05
7.28139e-05
7.90909e-05
0.000115085
0.000144754
0.000173798
0.000166932
0.000172712
0.000182874
0.000195075
0.000227839
0.000230979
0.000260416
0.000284822
0.000291007
0.000308923
0.00037799
0.000591121
0.000843972
0.00184611
0.00336824
0.00764215
0.0317677
0.0492552
0.126909
0.232669
2.24209e-05
2.41787e-05
2.50718e-05
2.65954e-05
3.04194e-05
3.1094e-05
3.38036e-05
3.54387e-05
3.94333e-05
4.36714e-05
4.49461e-05
4.84343e-05
5.96841e-05
7.03376e-05
9.54802e-05
9.81477e-05
0.000101965
0.000108026
0.000116223
0.00012279
0.000148612
0.000159901
0.000183236
0.000200519
0.000198557
0.000223873
0.000229547
0.000287926
0.000277742
0.000375738
0.000456978
0.000661518
0.000856588
0.00246788
0.0264032
0.114576
0.140975
0.175424
1.96646e-05
2.16515e-05
2.24552e-05
2.41447e-05
2.57201e-05
2.67539e-05
2.92343e-05
3.1209e-05
3.22747e-05
3.89033e-05
4.09709e-05
4.19584e-05
4.96995e-05
8.25702e-05
0.000157794
0.00017156
0.000239699
0.000237694
0.000251989
0.000284789
0.000293985
0.000293598
0.000304944
0.000301024
0.000297629
0.000324001
0.000358337
0.000363181
0.000502309
0.000664918
0.00128056
0.00353653
0.00554255
0.0113967
0.0412464
0.118512
0.134334
0.121317
1.5447e-05
1.69355e-05
1.74509e-05
1.87433e-05
1.96812e-05
2.04231e-05
2.23055e-05
2.41132e-05
2.72437e-05
4.22864e-05
4.22461e-05
5.49987e-05
9.6186e-05
0.000142207
0.000308765
0.000383856
0.000522848
0.000669812
0.000980627
0.00113804
0.00109049
0.00108713
0.0010362
0.00105728
0.00104147
0.0010658
0.00110022
0.00112172
0.00118854
0.00175729
0.00189317
0.00245025
0.00473427
0.0145816
0.074234
0.138034
0.126305
0.124155
1.3454e-05
1.49934e-05
1.56651e-05
1.59957e-05
1.78135e-05
1.83919e-05
1.92722e-05
2.04984e-05
2.23119e-05
7.4291e-05
9.26367e-05
9.27408e-05
6.80865e-05
7.58438e-05
0.000247997
0.000414348
0.000485655
0.000512957
0.000653628
0.000639857
0.00059753
0.000610468
0.000564804
0.000599122
0.000552649
0.000522182
0.00046146
0.000384658
0.000856632
0.0024072
0.00548606
0.0149697
0.0314017
0.0505539
0.0847738
0.104046
0.0931034
0.0915306
0.000105824
0.000101524
8.84947e-05
0.000103334
0.000205809
0.000872023
0.00156649
0.00168533
0.00171726
0.00173054
0.00165081
0.00152645
0.00129631
0.0010254
0.00150999
0.00376274
0.00505587
0.00561326
0.00586921
0.00602875
0.00643925
0.00771405
0.0110339
0.0136054
0.014354
0.014584
0.0146208
0.0143777
0.0140893
0.0141142
0.0133387
0.013778
0.0129922
0.0148921
0.0155623
0.0237792
0.0632829
0.186464
0.00018202
0.000181805
0.000167068
0.00016531
0.000199313
0.000404503
0.000924972
0.00141588
0.00192986
0.0022757
0.00244849
0.00268151
0.00312584
0.00328255
0.00291757
0.00355208
0.00483854
0.0061283
0.00784682
0.00867427
0.00920994
0.00997005
0.0117512
0.0138967
0.0152344
0.0159861
0.0170136
0.0158806
0.0142217
0.0163964
0.0123021
0.0154816
0.0137596
0.0228803
0.0228663
0.0448333
0.065047
0.405723
0.00010975
0.000124421
0.00013656
0.000140896
0.000152168
0.000178413
0.000243663
0.000307747
0.000338656
0.000370533
0.000417742
0.000483045
0.000659006
0.000920112
0.00148605
0.00180465
0.00200373
0.00176454
0.00151864
0.00135722
0.00121731
0.00113789
0.00115383
0.00131893
0.00141966
0.00151717
0.0019498
0.00181428
0.00191679
0.00273093
0.00312879
0.00506647
0.00673002
0.017014
0.0174681
0.0234921
0.0451874
0.205263
5.51112e-05
5.81791e-05
6.59815e-05
7.23972e-05
8.57783e-05
9.55324e-05
0.000108642
0.000110188
0.000108875
0.000107359
0.000106122
0.000112606
0.000128997
0.000155922
0.000222032
0.00029624
0.000303861
0.000281748
0.000263511
0.000255047
0.000242967
0.000244521
0.000251365
0.000289542
0.000302516
0.000343222
0.000398775
0.000526163
0.000822811
0.00167148
0.00175651
0.00221656
0.00444956
0.00612768
0.0139836
0.0161583
0.0241417
0.106997
4.17505e-05
4.27503e-05
4.49071e-05
5.00929e-05
5.30212e-05
5.92544e-05
6.35336e-05
7.04762e-05
7.15884e-05
7.56403e-05
7.73125e-05
8.1638e-05
8.60969e-05
9.24857e-05
0.000108821
0.00011431
0.000120322
0.000138107
0.00014832
0.000164374
0.000179422
0.000202969
0.000215331
0.000244347
0.00026344
0.000296992
0.000370936
0.000441664
0.000608459
0.00142465
0.00114848
0.00187936
0.00211362
0.00330562
0.00707183
0.00941813
0.0387826
0.172981
3.5598e-05
3.67412e-05
4.08079e-05
4.25787e-05
4.47794e-05
5.03768e-05
5.2087e-05
5.52131e-05
5.65246e-05
6.36714e-05
6.71872e-05
7.64654e-05
8.20702e-05
9.03693e-05
0.000104245
0.000108843
0.000121729
0.000148675
0.000161606
0.000166627
0.000187517
0.000219884
0.000236659
0.000284657
0.00030632
0.000337825
0.000413869
0.000440582
0.000496971
0.000700121
0.000758775
0.00106497
0.00120139
0.00222412
0.00524297
0.0085093
0.0433616
0.172735
3.18325e-05
3.38922e-05
3.7043e-05
3.81168e-05
4.16421e-05
4.56806e-05
4.72177e-05
5.07848e-05
5.31592e-05
5.91994e-05
6.32895e-05
7.2505e-05
7.84732e-05
9.04419e-05
0.00010804
0.000123144
0.000137301
0.000154815
0.000168341
0.00017562
0.00018441
0.000214339
0.000247236
0.00025689
0.000315884
0.00032484
0.000331529
0.000426318
0.00048183
0.000485741
0.000549375
0.00060651
0.000795732
0.00165563
0.0027073
0.0142684
0.0749687
0.149965
3.02743e-05
3.27911e-05
3.51893e-05
3.6444e-05
4.06349e-05
4.30816e-05
4.57885e-05
4.86157e-05
5.29811e-05
5.58613e-05
6.24823e-05
6.64712e-05
7.4252e-05
9.29229e-05
0.00010813
0.000141178
0.000153025
0.000169962
0.000174762
0.00019142
0.000196897
0.000218157
0.000244628
0.000258171
0.000287013
0.000320653
0.000314268
0.000349622
0.000386242
0.000486906
0.000712114
0.000701983
0.000901945
0.00157465
0.00457052
0.0193391
0.0596756
0.088206
2.79722e-05
2.97215e-05
3.16214e-05
3.36611e-05
3.70641e-05
3.84892e-05
4.20087e-05
4.44333e-05
4.90292e-05
5.453e-05
5.64923e-05
6.03607e-05
7.16162e-05
9.44534e-05
0.000125093
0.000131286
0.000131111
0.00013645
0.000146924
0.00015886
0.000180523
0.000194993
0.000216111
0.000241694
0.000242999
0.000260085
0.000273471
0.000309378
0.000337761
0.000384649
0.000472097
0.000580306
0.000630898
0.0010176
0.00412725
0.0518454
0.0825221
0.0552007
2.46854e-05
2.58973e-05
2.76066e-05
2.98193e-05
3.16782e-05
3.31216e-05
3.64393e-05
3.79694e-05
4.08865e-05
4.77404e-05
5.01464e-05
5.10212e-05
6.01839e-05
0.000100898
0.00011252
0.000116782
0.000139603
0.000188007
0.000251832
0.000312894
0.000359247
0.000364723
0.000386446
0.000390379
0.000395679
0.000416049
0.000462873
0.000503082
0.00065829
0.00086884
0.00108388
0.00162461
0.00224679
0.00292621
0.00747347
0.0448981
0.0705193
0.0695278
1.96414e-05
2.07959e-05
2.27608e-05
2.41605e-05
2.59952e-05
2.70456e-05
2.97455e-05
3.05478e-05
3.86399e-05
4.36151e-05
4.5993e-05
4.75967e-05
8.10375e-05
0.000111548
0.000189493
0.000272811
0.000469854
0.000755122
0.00115935
0.00143839
0.00140118
0.0013911
0.00136248
0.00132953
0.00134353
0.00137391
0.00141128
0.00145872
0.0018787
0.00299156
0.00489454
0.00690182
0.0123815
0.017451
0.0361077
0.0962213
0.0870473
0.100131
1.4803e-05
1.63081e-05
1.68185e-05
1.74088e-05
1.94966e-05
2.01333e-05
2.09817e-05
2.30524e-05
2.2964e-05
3.2251e-05
4.48338e-05
5.0388e-05
4.43824e-05
6.52721e-05
0.000214142
0.000451337
0.000583757
0.000638878
0.000780239
0.00080726
0.000774882
0.00076943
0.00073439
0.000746498
0.000701096
0.000656773
0.000573281
0.000576271
0.0015211
0.00344063
0.00658993
0.0165969
0.0353288
0.054509
0.0846784
0.100842
0.0915392
0.0926806
9.34323e-05
8.37251e-05
6.15068e-05
7.52901e-05
0.000141969
0.000635668
0.0014046
0.00149429
0.00142411
0.00131072
0.001122
0.000999314
0.000833871
0.000694271
0.00122943
0.0037147
0.00543563
0.00610927
0.00658376
0.00682307
0.00712341
0.00820324
0.0111198
0.0142797
0.0152999
0.0155744
0.0155598
0.0150238
0.0146846
0.014148
0.0128343
0.0130261
0.0118514
0.0125962
0.012551
0.0212126
0.0408876
0.0886321
0.000153797
0.000163448
0.000141211
0.000124383
0.000146863
0.00026492
0.000656457
0.00102714
0.00128306
0.00144818
0.00147658
0.00165886
0.00188332
0.0019924
0.00188104
0.00258754
0.00427977
0.00615237
0.00845848
0.00986552
0.0102462
0.0114963
0.0129195
0.0154769
0.0167087
0.0176821
0.0181471
0.0162284
0.0153335
0.0163289
0.0114304
0.0121914
0.0105163
0.0158402
0.014956
0.0226128
0.0399112
0.234117
7.88305e-05
9.23411e-05
0.000109053
0.000112482
0.00011993
0.000138153
0.000181554
0.000229596
0.000240339
0.000249904
0.000251656
0.000271954
0.000334633
0.000414873
0.00060634
0.00077379
0.000954457
0.00102787
0.00111765
0.00124618
0.0012516
0.00130435
0.00137825
0.00159597
0.00173713
0.00185304
0.00215814
0.00194082
0.00191508
0.00232925
0.00226428
0.00268082
0.0047003
0.00973264
0.0159285
0.0197018
0.0281021
0.0675866
4.40123e-05
4.60922e-05
5.17122e-05
5.8804e-05
6.67278e-05
7.27585e-05
8.08209e-05
8.35869e-05
8.18872e-05
8.37758e-05
8.7242e-05
9.45037e-05
0.000104056
0.00011991
0.000152113
0.000174738
0.000191898
0.000204628
0.000219485
0.000241143
0.000252056
0.000260733
0.000280958
0.000310615
0.000326726
0.000365227
0.000404113
0.000480165
0.000584329
0.000836388
0.00119232
0.00138515
0.00300717
0.00423424
0.0123536
0.0119224
0.0141638
0.0452753
3.97114e-05
4.06717e-05
4.22858e-05
4.56436e-05
4.86669e-05
5.22196e-05
5.4613e-05
5.94573e-05
6.10415e-05
6.53677e-05
7.08048e-05
7.54714e-05
8.14239e-05
9.08295e-05
0.000112138
0.000119576
0.000135224
0.000158752
0.000180487
0.000189098
0.000205333
0.000222758
0.00024195
0.000276687
0.000289652
0.00031478
0.0003818
0.000427
0.000515361
0.000845515
0.000839317
0.00114707
0.00174889
0.00236777
0.00616765
0.00839134
0.0176024
0.0739842
3.87142e-05
4.06905e-05
4.24385e-05
4.42422e-05
4.79259e-05
5.21182e-05
5.39511e-05
5.71388e-05
5.97012e-05
6.60498e-05
7.41016e-05
7.77553e-05
8.63063e-05
9.91498e-05
0.000118756
0.000126489
0.0001437
0.000170769
0.000193641
0.000201544
0.000218638
0.000250973
0.000264604
0.000301478
0.000320465
0.000339674
0.000379128
0.000417658
0.000494249
0.000571425
0.000726435
0.00119597
0.00127172
0.00183579
0.0053702
0.00633634
0.0127963
0.0563757
3.69464e-05
4.01511e-05
4.20368e-05
4.36515e-05
4.78281e-05
5.12337e-05
5.38688e-05
5.81147e-05
6.1081e-05
6.64488e-05
7.38773e-05
8.17685e-05
8.84061e-05
0.000103994
0.000129552
0.000141106
0.000151002
0.000172968
0.000194749
0.000204455
0.000214214
0.000248483
0.000270131
0.000286103
0.000329691
0.000336977
0.000337959
0.000408629
0.000452864
0.000463391
0.000529103
0.000582517
0.000752273
0.00123473
0.00260668
0.00544482
0.0233398
0.0449598
3.4873e-05
3.77811e-05
4.03281e-05
4.20976e-05
4.66545e-05
4.93002e-05
5.28224e-05
5.66347e-05
6.05108e-05
6.44916e-05
7.13451e-05
7.66142e-05
8.56732e-05
0.000108012
0.000132572
0.00016041
0.000168791
0.000183104
0.000191996
0.000213123
0.000220612
0.00024451
0.000266936
0.000288786
0.000298238
0.000322887
0.000322068
0.00033836
0.00039416
0.000448274
0.000565937
0.000603944
0.000738757
0.00133586
0.00270285
0.00771727
0.0162704
0.0215926
3.21666e-05
3.39407e-05
3.64908e-05
3.89889e-05
4.23984e-05
4.42802e-05
4.83801e-05
5.16801e-05
5.66545e-05
6.16057e-05
6.44477e-05
7.10536e-05
8.39862e-05
0.000115853
0.000139477
0.000148727
0.000150861
0.000157125
0.000171806
0.000191337
0.000210352
0.000228389
0.000250489
0.000267338
0.000280957
0.000289006
0.000308076
0.000332611
0.000371029
0.000458567
0.000488286
0.000580065
0.000652345
0.000931685
0.00173306
0.00745889
0.0243764
0.0223486
2.8232e-05
2.93557e-05
3.1682e-05
3.42519e-05
3.61802e-05
3.79873e-05
4.19728e-05
4.38443e-05
4.83333e-05
5.28264e-05
5.52285e-05
5.96488e-05
7.53082e-05
0.000115935
0.000122772
0.000126646
0.000147452
0.000208154
0.000282338
0.00035925
0.000413162
0.000422644
0.000447454
0.000453475
0.00046981
0.000496583
0.000553953
0.000645766
0.000902332
0.00121518
0.0015393
0.0017911
0.00274911
0.00271526
0.00437756
0.0164267
0.0247626
0.0500065
2.43288e-05
2.51563e-05
2.82017e-05
2.9675e-05
3.09175e-05
3.19986e-05
3.57108e-05
3.6457e-05
4.38985e-05
4.53913e-05
4.74117e-05
5.18536e-05
6.75051e-05
0.000107831
0.000227058
0.000294751
0.000500891
0.00087675
0.00128418
0.00163037
0.00159465
0.00158013
0.00156844
0.00151987
0.00154786
0.00160957
0.00169202
0.0018387
0.0025979
0.00439556
0.00731374
0.0107106
0.018702
0.0271293
0.0360606
0.057349
0.0508725
0.0548912
1.6324e-05
1.69376e-05
1.8071e-05
1.95062e-05
2.09262e-05
2.14859e-05
2.31488e-05
2.50716e-05
2.54106e-05
2.73691e-05
3.20471e-05
3.39791e-05
3.70697e-05
9.31137e-05
0.000320324
0.000526826
0.000671334
0.000733819
0.00087411
0.000923629
0.000899126
0.000877087
0.000849151
0.000845779
0.000802675
0.000748584
0.000653704
0.000857113
0.00231084
0.0045847
0.00743527
0.0167624
0.0358872
0.0556941
0.0806827
0.0924199
0.0869118
0.0889904
7.29687e-05
6.26193e-05
5.40939e-05
5.31418e-05
8.82011e-05
0.000298037
0.00108466
0.00125308
0.00105253
0.00079347
0.000649871
0.000554199
0.000449857
0.000419804
0.00110306
0.00371838
0.00570823
0.00646894
0.00708248
0.0073933
0.0076062
0.00846549
0.0108969
0.0142279
0.0154626
0.0158027
0.0157901
0.0151544
0.0147711
0.0138146
0.0123882
0.012208
0.0111205
0.0110882
0.011042
0.0210878
0.0437028
0.0620349
0.000107038
0.000133619
0.000118529
8.81622e-05
9.8441e-05
0.000151639
0.000369696
0.00061395
0.00063331
0.000622009
0.000603712
0.000666878
0.000785843
0.000964135
0.00115604
0.00210774
0.0040466
0.00630273
0.00890153
0.010874
0.0109651
0.0124558
0.0134762
0.0160768
0.0173256
0.0183337
0.0184813
0.0163083
0.0157498
0.0155484
0.0112377
0.0108799
0.00913568
0.0116268
0.010257
0.0133576
0.0212914
0.0711382
5.45579e-05
6.27954e-05
8.25839e-05
9.01082e-05
9.24332e-05
0.000105431
0.000127182
0.000157669
0.000166326
0.000169231
0.000164983
0.000172015
0.000196462
0.000232488
0.000318944
0.0004742
0.000673282
0.000900876
0.00108081
0.00136066
0.00143021
0.00155981
0.00163573
0.00187879
0.0020061
0.00215378
0.00233811
0.00206924
0.00201764
0.00210614
0.00190074
0.00205812
0.0031455
0.00472854
0.00826854
0.0107055
0.01814
0.0472843
3.99196e-05
4.12767e-05
4.52852e-05
5.35088e-05
6.03526e-05
6.34957e-05
6.81649e-05
7.13546e-05
7.04324e-05
7.33817e-05
7.94864e-05
8.56168e-05
9.10412e-05
0.000101021
0.000122752
0.000148997
0.000186666
0.000205699
0.000228312
0.000266573
0.000286765
0.000298619
0.000320011
0.000347147
0.000363863
0.000397853
0.000421383
0.000500232
0.000565338
0.000670734
0.000900802
0.00114394
0.00214554
0.00287723
0.0085527
0.00834859
0.0104473
0.0228044
4.04092e-05
4.15463e-05
4.31128e-05
4.60238e-05
4.97112e-05
5.22128e-05
5.43777e-05
5.79051e-05
6.06627e-05
6.54878e-05
7.50842e-05
8.00835e-05
8.77079e-05
9.84179e-05
0.000120662
0.000129973
0.000150505
0.000174526
0.000192484
0.000202462
0.000219354
0.000239191
0.000259455
0.000289344
0.00030278
0.000331317
0.000368888
0.000422756
0.000507613
0.000621438
0.000755743
0.00104498
0.00153151
0.00206331
0.00436973
0.00781133
0.0111749
0.0226969
4.14452e-05
4.3748e-05
4.53e-05
4.72519e-05
5.15257e-05
5.5324e-05
5.79353e-05
6.14045e-05
6.46539e-05
7.09881e-05
8.03188e-05
8.40828e-05
9.17585e-05
0.000107338
0.000129614
0.000139636
0.00015794
0.00018397
0.000209025
0.000218078
0.00023455
0.000264104
0.000275778
0.000304836
0.000324691
0.000339411
0.000364847
0.000402226
0.000483793
0.000543269
0.000721521
0.00105211
0.00127651
0.00171471
0.00432679
0.00804207
0.00966545
0.018509
4.04627e-05
4.38424e-05
4.58863e-05
4.7858e-05
5.25448e-05
5.58435e-05
5.92674e-05
6.41058e-05
6.80409e-05
7.34402e-05
8.22803e-05
9.03059e-05
9.79139e-05
0.000116497
0.000144565
0.000158225
0.000167257
0.000189003
0.000213768
0.000225486
0.000235295
0.000264699
0.000282875
0.000297064
0.000330633
0.0003421
0.000340911
0.0003827
0.000430433
0.000454068
0.000538255
0.000604337
0.000804285
0.0012394
0.0026806
0.00615923
0.00902909
0.0159332
3.82722e-05
4.12956e-05
4.40782e-05
4.62947e-05
5.1154e-05
5.40862e-05
5.80503e-05
6.27174e-05
6.6877e-05
7.14632e-05
7.88734e-05
8.51751e-05
9.54401e-05
0.00012073
0.00015184
0.000175987
0.000184669
0.000198846
0.000211096
0.00023291
0.000242849
0.000265288
0.000286047
0.000300756
0.000306819
0.000321592
0.000321629
0.000332832
0.000378759
0.000430774
0.000551164
0.00062517
0.000793416
0.00132654
0.00263649
0.00629812
0.00935029
0.0146301
3.52359e-05
3.71592e-05
4.00201e-05
4.28653e-05
4.64509e-05
4.87248e-05
5.3152e-05
5.72527e-05
6.25306e-05
6.69215e-05
7.10979e-05
7.92268e-05
9.46855e-05
0.000131904
0.00015378
0.000160132
0.000168106
0.000176458
0.000196378
0.000219851
0.000240252
0.00025666
0.000274343
0.000284991
0.000299216
0.000302391
0.000318615
0.000344526
0.000401818
0.000538236
0.000582155
0.000695886
0.000775701
0.00104714
0.00165651
0.00335431
0.00738897
0.0178917
3.07688e-05
3.19435e-05
3.45308e-05
3.74176e-05
3.94505e-05
4.14922e-05
4.58209e-05
4.82617e-05
5.35104e-05
5.56562e-05
6.10608e-05
6.69577e-05
9.29261e-05
0.00012508
0.000132973
0.000141879
0.000177732
0.000272996
0.000340025
0.000416386
0.000459073
0.000470279
0.000491341
0.000499651
0.000523243
0.000564162
0.000656618
0.000824689
0.0012191
0.00173103
0.00219663
0.00244957
0.0033436
0.00308594
0.0045918
0.0135088
0.0145303
0.0333314
2.71226e-05
2.72125e-05
3.00645e-05
3.26145e-05
3.28724e-05
3.37791e-05
3.78799e-05
3.94769e-05
4.33804e-05
4.26806e-05
4.66223e-05
5.35664e-05
8.55185e-05
0.000108081
0.00022843
0.000316209
0.000590643
0.00103133
0.00140415
0.00175983
0.00171944
0.00171301
0.00170576
0.00167399
0.00171748
0.00183407
0.00199895
0.00230152
0.00342771
0.00576623
0.00903621
0.0129658
0.0220198
0.0279602
0.043892
0.0791027
0.0575899
0.0487584
1.72017e-05
1.76181e-05
1.88992e-05
2.09281e-05
2.16978e-05
2.22451e-05
2.41887e-05
2.67792e-05
2.74344e-05
2.89866e-05
3.03457e-05
3.25923e-05
3.69723e-05
0.000102709
0.000413749
0.000593247
0.000758494
0.000826998
0.00095403
0.00101599
0.000995123
0.000959734
0.00093898
0.000924599
0.000880408
0.00081795
0.000739106
0.00123142
0.00312916
0.00565467
0.00814542
0.016351
0.0352639
0.0553202
0.0760798
0.0874487
0.0840835
0.0794578
5.5884e-05
5.47712e-05
5.67157e-05
5.06848e-05
5.96271e-05
0.000114755
0.000455291
0.000867611
0.000852891
0.000682981
0.000482339
0.000362748
0.000286495
0.00031157
0.00107808
0.00379081
0.0059515
0.00675729
0.00742234
0.00780526
0.00797284
0.0085725
0.0104168
0.0136746
0.0152975
0.0157349
0.0157584
0.015178
0.0147225
0.0134739
0.0122675
0.0119301
0.0107184
0.010377
0.0112069
0.0261526
0.039831
0.0507135
7.51962e-05
9.95677e-05
0.000100822
8.10467e-05
7.89793e-05
0.000103409
0.000172313
0.00030034
0.00031616
0.000315812
0.000307887
0.000334217
0.00040094
0.000559757
0.000866287
0.00196895
0.00415041
0.00659541
0.00928718
0.0115803
0.011532
0.0129562
0.0137254
0.0159906
0.0174395
0.0184521
0.0184284
0.0165328
0.0160004
0.0149509
0.0116277
0.0111239
0.00907278
0.00993381
0.0082853
0.0104696
0.0148722
0.0315843
4.24384e-05
4.68904e-05
5.96054e-05
7.66774e-05
7.81795e-05
8.64999e-05
9.50512e-05
0.000107495
0.000113937
0.000127141
0.000132736
0.000140613
0.000159875
0.000194143
0.00028827
0.000456077
0.000729749
0.00108442
0.00132522
0.00168123
0.00174017
0.00186078
0.00193527
0.00214887
0.00226806
0.00244675
0.00248058
0.00222588
0.00216715
0.00211473
0.00187672
0.0019644
0.00229927
0.00288802
0.00460598
0.00662208
0.0144894
0.0289262
3.85973e-05
3.98316e-05
4.36618e-05
5.01859e-05
5.59887e-05
5.86445e-05
6.16988e-05
6.53355e-05
6.61451e-05
6.9286e-05
7.49196e-05
8.00512e-05
8.54062e-05
9.55356e-05
0.00011819
0.000152988
0.000213452
0.000249638
0.000280123
0.000334691
0.000351675
0.000361743
0.000374002
0.000399894
0.000414355
0.000446225
0.000478964
0.000521346
0.00060622
0.000677741
0.000885255
0.00108304
0.00163261
0.0021159
0.00477009
0.00583093
0.00882618
0.0152845
4.12388e-05
4.26024e-05
4.44637e-05
4.75505e-05
5.15618e-05
5.39158e-05
5.65676e-05
5.9769e-05
6.39434e-05
6.93443e-05
8.02595e-05
8.657e-05
9.30444e-05
0.000103212
0.000122808
0.000133829
0.000157198
0.000177802
0.000195281
0.00021204
0.000227056
0.000250212
0.000269038
0.000296042
0.000314608
0.000337273
0.000383185
0.000420154
0.00054513
0.000594167
0.000814066
0.0010388
0.00154904
0.00197295
0.00348166
0.00594317
0.00992549
0.0136255
4.32044e-05
4.5669e-05
4.76139e-05
4.98953e-05
5.46372e-05
5.8539e-05
6.21516e-05
6.63401e-05
7.0787e-05
7.66885e-05
8.58299e-05
9.0604e-05
9.77835e-05
0.000113297
0.000136178
0.000147637
0.000165011
0.00018661
0.000211107
0.000221963
0.000238148
0.000264463
0.000275725
0.000297256
0.000316823
0.000332379
0.000356737
0.000396865
0.000476412
0.000541932
0.000729792
0.000958178
0.001295
0.0016135
0.00323401
0.00598834
0.00839944
0.0126661
4.27961e-05
4.61821e-05
4.85819e-05
5.09656e-05
5.60037e-05
5.95933e-05
6.36941e-05
6.90769e-05
7.40003e-05
7.97841e-05
8.90889e-05
9.74939e-05
0.000106021
0.000126744
0.000155166
0.00017086
0.000180199
0.000201039
0.000223361
0.000235579
0.000244546
0.000268955
0.000284683
0.000296091
0.000320565
0.000328777
0.000334267
0.000362188
0.000418342
0.000456327
0.000564928
0.000668889
0.000929128
0.001357
0.0025249
0.00554819
0.00756963
0.012043
4.07686e-05
4.37665e-05
4.67594e-05
4.94341e-05
5.43999e-05
5.77847e-05
6.21559e-05
6.74705e-05
7.2199e-05
7.72841e-05
8.51153e-05
9.1916e-05
0.00010343
0.000131879