/*--------------------------------*- C++ -*----------------------------------*\
| =========                 |                                                 |
| \\      /  F ield         | OpenFOAM: The Open Source CFD Toolbox           |
|  \\    /   O peration     | Version:  2.3.1                                 |
|   \\  /    A nd           | Web:      www.OpenFOAM.org                      |
|    \\/     M anipulation  |                                                 |
\*---------------------------------------------------------------------------*/
FoamFile
{
    version     2.0;
    format      ascii;
    class       volScalarField;
    location    "20";
    object      nut;
}
// * * * * * * * * * * * * * * * * * * * * * * * * * * * * * * * * * * * * * //

dimensions      [0 2 -1 0 0 0 0];

internalField   nonuniform List<scalar> 
38262
(
1.00839e-05
1.02116e-05
1.06701e-05
1.39576e-05
2.80675e-05
4.30264e-05
4.59556e-05
4.62657e-05
4.69817e-05
4.77534e-05
4.72926e-05
4.62434e-05
4.64168e-05
4.92423e-05
5.59218e-05
6.42124e-05
6.72907e-05
6.77109e-05
6.7909e-05
7.07074e-05
7.81072e-05
9.40436e-05
0.000103318
0.000104709
0.000104486
0.000105391
0.00010558
0.000107655
0.000108097
0.000109191
0.000117437
0.000114514
0.000122817
0.000125336
0.000134097
0.000197802
0.00028107
0.000390709
1.11222e-05
1.10036e-05
1.15134e-05
1.17774e-05
1.52812e-05
2.50208e-05
3.12167e-05
3.24468e-05
3.21564e-05
3.46361e-05
3.99872e-05
4.63422e-05
5.11817e-05
5.39827e-05
5.87724e-05
6.26262e-05
6.35335e-05
6.18294e-05
6.45055e-05
6.43474e-05
6.2043e-05
5.85413e-05
6.43303e-05
6.63302e-05
7.16192e-05
7.73173e-05
7.53232e-05
9.3353e-05
8.82763e-05
9.09475e-05
0.000110512
0.000116127
0.000122611
0.000135997
0.000182801
0.000213526
0.00034402
0.000390922
1.03989e-05
1.05589e-05
1.14696e-05
1.16476e-05
1.20896e-05
1.39317e-05
1.67597e-05
1.77435e-05
1.79811e-05
1.80544e-05
1.88054e-05
2.30646e-05
3.34018e-05
4.24883e-05
5.12169e-05
5.36405e-05
5.10785e-05
4.8101e-05
4.54248e-05
3.85798e-05
3.42844e-05
2.93655e-05
2.80506e-05
2.54377e-05
2.59092e-05
2.50142e-05
2.86295e-05
3.50965e-05
3.44847e-05
6.94546e-05
6.73726e-05
8.57187e-05
9.29676e-05
0.000110604
0.000148289
0.000222722
0.00029776
0.000557718
9.71867e-06
9.80451e-06
1.01734e-05
1.03209e-05
1.04626e-05
1.12521e-05
1.26349e-05
1.32629e-05
1.36213e-05
1.40329e-05
1.4291e-05
1.48489e-05
1.66006e-05
2.04783e-05
2.82745e-05
3.21407e-05
3.13241e-05
3.15609e-05
3.09703e-05
2.6845e-05
2.41105e-05
2.19227e-05
2.14249e-05
1.99243e-05
2.01169e-05
2.04606e-05
2.22992e-05
2.25007e-05
2.74851e-05
4.49692e-05
3.91743e-05
5.51581e-05
5.07562e-05
0.000113344
0.000182916
0.00022547
0.000305878
0.00056153
8.33228e-06
8.49877e-06
8.94965e-06
9.0727e-06
9.26586e-06
9.49158e-06
1.00914e-05
1.02973e-05
1.03347e-05
1.07151e-05
1.1422e-05
1.1597e-05
1.22492e-05
1.30771e-05
1.57038e-05
1.73019e-05
1.73923e-05
2.00318e-05
1.99719e-05
1.8462e-05
1.75398e-05
1.764e-05
1.76562e-05
1.78215e-05
1.81895e-05
1.91352e-05
1.98227e-05
2.09866e-05
2.92962e-05
3.09024e-05
3.37025e-05
4.17932e-05
4.00544e-05
7.07061e-05
0.000124644
0.000173578
0.0002961
0.000533802
7.09254e-06
7.30969e-06
7.79684e-06
7.91713e-06
8.20318e-06
8.47092e-06
8.7894e-06
9.08687e-06
9.24575e-06
9.26249e-06
9.83118e-06
9.90211e-06
1.03426e-05
1.07104e-05
1.11089e-05
1.23037e-05
1.23953e-05
1.43758e-05
1.47851e-05
1.46767e-05
1.53668e-05
1.57133e-05
1.67735e-05
1.69513e-05
1.80784e-05
1.8711e-05
2.04119e-05
2.16529e-05
2.25935e-05
2.4154e-05
2.70875e-05
2.91689e-05
3.0889e-05
4.22301e-05
0.000140569
0.000257088
0.000347111
0.000532284
5.97494e-06
6.39662e-06
6.57847e-06
6.96774e-06
7.09791e-06
7.45014e-06
7.80074e-06
7.91469e-06
8.27483e-06
8.38332e-06
8.94382e-06
9.07487e-06
9.70519e-06
1.00319e-05
1.04594e-05
1.10495e-05
1.22876e-05
1.32496e-05
1.3478e-05
1.38415e-05
1.46101e-05
1.55908e-05
1.59118e-05
1.67896e-05
1.71969e-05
1.79062e-05
1.99685e-05
1.99292e-05
2.01033e-05
2.16247e-05
2.45463e-05
2.97303e-05
3.40446e-05
4.61552e-05
0.000103125
0.000255495
0.000365726
0.000529768
5.73252e-06
6.00917e-06
6.19179e-06
6.55764e-06
6.68227e-06
6.97684e-06
7.39266e-06
7.53108e-06
7.7933e-06
8.37483e-06
8.50038e-06
8.95866e-06
9.19879e-06
9.74321e-06
1.03152e-05
1.08274e-05
1.28297e-05
1.29605e-05
1.35935e-05
1.39477e-05
1.48146e-05
1.64059e-05
1.65777e-05
1.73579e-05
1.77276e-05
1.82039e-05
1.84615e-05
1.9019e-05
1.89511e-05
2.03605e-05
2.78561e-05
4.88404e-05
7.81011e-05
0.000124568
0.000197991
0.000257892
0.000370554
0.000531729
5.62332e-06
5.7903e-06
6.16586e-06
6.30933e-06
6.44045e-06
6.90093e-06
7.063e-06
7.39917e-06
7.56326e-06
7.94654e-06
8.37842e-06
8.58533e-06
8.81277e-06
9.74165e-06
1.16137e-05
1.40257e-05
1.40362e-05
1.39708e-05
1.40291e-05
1.44708e-05
1.48003e-05
1.58779e-05
1.60638e-05
1.61744e-05
1.6759e-05
1.71871e-05
1.77988e-05
1.80632e-05
1.87296e-05
1.90687e-05
2.12422e-05
3.25196e-05
4.75183e-05
0.000102971
0.000211799
0.000291366
0.000372411
0.000458234
5.57671e-06
5.67404e-06
6.03289e-06
6.19477e-06
6.31847e-06
6.65444e-06
6.96489e-06
7.09514e-06
7.39796e-06
7.64313e-06
8.02504e-06
8.37411e-06
9.31217e-06
1.31627e-05
1.81314e-05
1.87861e-05
1.9112e-05
1.94261e-05
1.94077e-05
1.88144e-05
1.87198e-05
1.86527e-05
1.80738e-05
1.81662e-05
1.80014e-05
1.8566e-05
1.99074e-05
1.92921e-05
1.88641e-05
2.26619e-05
3.45576e-05
5.98415e-05
0.000100216
0.000168223
0.000257076
0.000340837
0.00036031
0.000364427
5.3083e-06
5.37693e-06
5.75322e-06
5.94173e-06
6.01006e-06
6.28084e-06
6.58989e-06
6.64279e-06
6.83398e-06
9.06507e-06
9.11518e-06
1.00789e-05
1.24872e-05
1.48689e-05
1.96404e-05
2.04983e-05
2.24488e-05
2.34709e-05
2.49964e-05
2.72454e-05
2.675e-05
2.65279e-05
2.58964e-05
2.68211e-05
2.71485e-05
2.76124e-05
2.92459e-05
2.86333e-05
2.85772e-05
3.41067e-05
3.38864e-05
4.11967e-05
7.28503e-05
0.000186245
0.000310825
0.000350297
0.000350894
0.000337335
4.47962e-06
4.63203e-06
4.98195e-06
4.9079e-06
5.11741e-06
5.38801e-06
5.41476e-06
5.4655e-06
6.7771e-06
1.47129e-05
1.4867e-05
1.30163e-05
1.24849e-05
1.34133e-05
1.80414e-05
2.04937e-05
2.12121e-05
2.23884e-05
2.3509e-05
2.19925e-05
2.16273e-05
2.14813e-05
2.11157e-05
2.11785e-05
2.11299e-05
2.12723e-05
2.11725e-05
1.96916e-05
2.97706e-05
5.64742e-05
9.12864e-05
0.000151336
0.000213742
0.000273721
0.000327491
0.00033926
0.000322684
0.000311254
2.53659e-05
2.53596e-05
2.50005e-05
2.72925e-05
4.63454e-05
8.57588e-05
0.000100988
0.000103436
0.000104618
0.000105193
0.000103367
9.91577e-05
9.67333e-05
9.8109e-05
0.000117099
0.000150588
0.000166115
0.000172021
0.00017203
0.000174585
0.000185048
0.000210083
0.000253431
0.000269103
0.000272235
0.000273693
0.000273735
0.000277475
0.000274973
0.000274446
0.000286523
0.000279519
0.000293576
0.000296885
0.000304229
0.000464297
0.000536986
0.000906632
4.52143e-05
4.20878e-05
4.32805e-05
4.25951e-05
4.55023e-05
6.06158e-05
8.77312e-05
0.000109344
0.000128165
0.000128937
0.00012437
0.000132508
0.000158132
0.000163589
0.000165401
0.00018336
0.000211133
0.000249966
0.000290149
0.000302068
0.000295346
0.00029616
0.000326815
0.000357123
0.000397063
0.000397562
0.000412048
0.000431462
0.000339137
0.000396104
0.000394175
0.000409916
0.000405389
0.000301314
0.000458668
0.000699745
0.00101825
0.000925073
3.7489e-05
3.88452e-05
4.13235e-05
4.18497e-05
4.29487e-05
4.44002e-05
4.25672e-05
4.49641e-05
4.56406e-05
4.63925e-05
4.83045e-05
4.85259e-05
5.77367e-05
7.80536e-05
0.000117936
0.000148501
0.000153242
0.000143449
0.00012675
0.000104231
8.16874e-05
6.40129e-05
6.24756e-05
6.19757e-05
6.21215e-05
6.10143e-05
8.47455e-05
8.85713e-05
7.87596e-05
0.000176573
0.000135142
0.000216216
0.00017789
0.000314515
0.000332261
0.000693842
0.000678346
0.0010807
2.90825e-05
2.96685e-05
3.15083e-05
3.10245e-05
3.01597e-05
3.10602e-05
3.57787e-05
3.53308e-05
3.52645e-05
3.44182e-05
3.37281e-05
3.25108e-05
2.78638e-05
2.49548e-05
2.98534e-05
4.59568e-05
4.44491e-05
4.29261e-05
4.13754e-05
3.94323e-05
3.39143e-05
3.47272e-05
3.81928e-05
4.34669e-05
5.14237e-05
6.27028e-05
7.70895e-05
8.26507e-05
0.000114291
0.000220595
0.000160027
0.000163233
0.000262502
0.000345419
0.000258702
0.000410158
0.00052887
0.00107008
2.05102e-05
2.16374e-05
2.32632e-05
2.63779e-05
2.60063e-05
2.59094e-05
2.69832e-05
2.62941e-05
2.44592e-05
2.4031e-05
2.49495e-05
2.80139e-05
2.64774e-05
2.77627e-05
2.14581e-05
2.25878e-05
2.21096e-05
2.3417e-05
2.38605e-05
2.84835e-05
3.83962e-05
4.22288e-05
5.32483e-05
5.61947e-05
7.24973e-05
8.02522e-05
8.45782e-05
0.000105554
0.000182986
0.000134029
0.000176075
0.000115104
0.000180858
0.00023034
0.000195559
0.000246141
0.000488216
0.00107312
1.48396e-05
1.49575e-05
1.93631e-05
2.06804e-05
2.04993e-05
2.19485e-05
2.42498e-05
2.49563e-05
2.5981e-05
2.41888e-05
2.53775e-05
3.36551e-05
2.96271e-05
2.8247e-05
2.81658e-05
2.91848e-05
2.74106e-05
2.66182e-05
3.05875e-05
3.92404e-05
4.99235e-05
6.72075e-05
7.28985e-05
7.73095e-05
8.28699e-05
0.000103397
0.000119631
0.000132814
0.000120395
0.000140819
0.00015662
0.000106073
0.000121652
9.73329e-05
0.000122197
0.000328655
0.000759395
0.00124538
2.04204e-05
1.72255e-05
2.01638e-05
2.16529e-05
2.07381e-05
2.42542e-05
2.46325e-05
2.57835e-05
2.84887e-05
3.46477e-05
3.42931e-05
3.82277e-05
4.38381e-05
3.82794e-05
4.20773e-05
5.99746e-05
6.56792e-05
5.9931e-05
5.21988e-05
5.63354e-05
6.35854e-05
6.07379e-05
7.01724e-05
7.52245e-05
5.17697e-05
7.92387e-05
9.93664e-05
7.76717e-05
7.09967e-05
9.78023e-05
9.76706e-05
0.000105316
0.000102367
0.000139434
8.80859e-05
0.000281016
0.000785781
0.00113169
2.83271e-05
2.73863e-05
2.71277e-05
2.84618e-05
2.83659e-05
3.10828e-05
3.08741e-05
3.20083e-05
3.74911e-05
3.90707e-05
4.00111e-05
4.30418e-05
5.0981e-05
4.36436e-05
4.63885e-05
5.73637e-05
7.35451e-05
6.9564e-05
6.70701e-05
6.43236e-05
7.54481e-05
7.76231e-05
7.68686e-05
7.91182e-05
8.08717e-05
8.69908e-05
9.06472e-05
8.80367e-05
7.58469e-05
7.906e-05
7.0204e-05
0.000117233
0.000131053
0.000163082
0.000292004
0.000382597
0.00083609
0.00114543
2.74787e-05
2.96717e-05
2.93057e-05
2.89792e-05
3.23694e-05
3.28729e-05
3.19558e-05
3.30513e-05
3.42715e-05
4.01843e-05
3.72357e-05
3.47125e-05
4.17469e-05
3.34147e-05
3.69002e-05
2.57097e-05
2.77382e-05
3.24215e-05
3.68228e-05
3.82877e-05
4.7665e-05
5.19491e-05
5.46272e-05
5.87298e-05
5.81248e-05
6.70982e-05
5.72389e-05
7.68456e-05
5.70587e-05
5.80272e-05
6.36247e-05
6.02104e-05
6.44963e-05
5.46541e-05
0.000214363
0.000719899
0.00089879
0.0010271
2.34206e-05
2.6731e-05
2.66044e-05
2.51507e-05
2.78054e-05
2.83848e-05
2.93325e-05
3.06275e-05
2.81182e-05
2.90038e-05
2.83784e-05
2.43706e-05
2.01496e-05
1.38924e-05
2.33299e-05
2.58484e-05
3.50382e-05
3.8557e-05
3.94585e-05
4.54055e-05
4.83467e-05
4.98143e-05
5.41806e-05
5.41984e-05
5.18405e-05
5.95624e-05
6.48183e-05
5.82115e-05
5.96217e-05
6.50664e-05
8.86965e-05
0.00014922
0.000200575
0.000166821
0.000308658
0.000767132
0.000920407
0.000926608
1.50745e-05
1.82343e-05
1.64029e-05
1.53675e-05
1.7711e-05
1.81862e-05
1.54313e-05
1.77318e-05
1.77109e-05
1.72386e-05
1.84573e-05
1.5839e-05
1.71532e-05
2.02704e-05
3.81806e-05
4.77009e-05
6.19719e-05
7.6626e-05
0.000103429
0.000119123
0.000113521
0.000115677
0.000115582
0.000116774
0.000116538
0.000122185
0.000128034
0.000128137
0.000118334
0.000120924
0.000109548
0.00010872
0.000139378
0.000175179
0.000422815
0.000831569
0.000896414
0.000927446
9.26602e-06
9.78104e-06
1.00005e-05
1.01042e-05
1.06612e-05
1.08345e-05
1.10899e-05
1.14352e-05
1.19515e-05
2.18152e-05
2.423e-05
2.4286e-05
2.08397e-05
2.19398e-05
3.95517e-05
5.13101e-05
5.55567e-05
5.71153e-05
6.44615e-05
6.37555e-05
6.16422e-05
6.23225e-05
5.9914e-05
6.17226e-05
5.92855e-05
5.75909e-05
5.40999e-05
4.98241e-05
7.56629e-05
0.000128663
0.000201704
0.000329848
0.000456133
0.000569924
0.000727313
0.000793756
0.000748186
0.000737486
2.59597e-05
2.54209e-05
2.37578e-05
2.57685e-05
3.72747e-05
7.64516e-05
0.00010013
0.000103521
0.000104493
0.000104839
0.000102241
9.82858e-05
9.04074e-05
8.0552e-05
9.97737e-05
0.000156586
0.000179582
0.000188612
0.000192574
0.000195353
0.00020275
0.000223638
0.000267286
0.000292544
0.000299092
0.000301017
0.000301275
0.000298598
0.000295416
0.00029568
0.00028754
0.000292375
0.000284465
0.000304028
0.000311919
0.000385211
0.000643764
0.00105358
5.34019e-05
5.33734e-05
5.05575e-05
4.85694e-05
5.0172e-05
5.86688e-05
8.00128e-05
0.00010647
0.000133178
0.000149056
0.000155146
0.000157091
0.000167423
0.000178003
0.000171806
0.000187654
0.000223078
0.000281471
0.000340007
0.000362083
0.00036801
0.000378041
0.000408469
0.000455262
0.00049123
0.000502798
0.000533701
0.000517971
0.000480751
0.000517495
0.000477189
0.000541825
0.000519007
0.000535065
0.000652672
0.00080506
0.000720789
0.00162513
4.00926e-05
4.29335e-05
4.58194e-05
4.65514e-05
4.87523e-05
4.95752e-05
4.39609e-05
4.37031e-05
4.52325e-05
4.55909e-05
4.73482e-05
4.96867e-05
5.5456e-05
6.49584e-05
9.37963e-05
0.000121953
0.000139625
0.000127372
0.000114016
9.97141e-05
8.7974e-05
7.77663e-05
7.52855e-05
7.83829e-05
7.96873e-05
8.1044e-05
9.67758e-05
9.48244e-05
0.000105435
0.00014798
0.000173797
0.00024129
0.000248462
0.000407673
0.000435123
0.000624391
0.000786575
0.00123531
3.07116e-05
3.17347e-05
3.35006e-05
3.44012e-05
3.44551e-05
3.45463e-05
3.57339e-05
3.39062e-05
3.38486e-05
3.33905e-05
3.37152e-05
3.3692e-05
3.17599e-05
2.91647e-05
2.79564e-05
3.11401e-05
3.19414e-05
3.2055e-05
3.44915e-05
3.98112e-05
4.45657e-05
4.96733e-05
5.474e-05
6.41963e-05
6.81009e-05
7.50907e-05
8.27469e-05
0.00010419
0.000149308
0.0002127
0.000226802
0.000236472
0.00042713
0.000361932
0.000243925
0.000452406
0.000441937
0.0007899
3.12716e-05
3.21917e-05
3.34897e-05
3.59621e-05
3.53396e-05
3.49334e-05
3.39469e-05
3.52339e-05
3.17968e-05
3.31917e-05
3.47056e-05
3.80025e-05
3.94337e-05
4.15315e-05
3.98625e-05
3.90492e-05
4.24508e-05
4.63941e-05
5.39796e-05
6.64981e-05
7.7814e-05
9.04025e-05
9.92426e-05
0.000114005
0.000120994
0.000132483
0.000146202
0.000174986
0.000183175
0.000265214
0.000268836
0.000276422
0.000330768
0.000387776
0.000521392
0.000354051
0.000415062
0.00101562
3.77027e-05
3.69297e-05
3.89372e-05
4.08794e-05
4.16778e-05
4.37293e-05
4.50318e-05
4.80857e-05
5.02344e-05
5.38768e-05
5.71739e-05
6.80249e-05
7.09919e-05
7.38756e-05
7.73155e-05
8.0114e-05
7.88389e-05
8.26347e-05
9.52493e-05
0.000104772
0.000121915
0.000132719
0.000143006
0.000164041
0.000170707
0.000180607
0.000207087
0.000200276
0.000207663
0.000219092
0.000222565
0.000240972
0.000247403
0.000244926
0.000101962
0.000121315
0.000407522
0.00104968
5.45859e-05
5.14808e-05
5.3697e-05
5.57733e-05
5.68138e-05
6.03183e-05
6.21878e-05
6.63269e-05
7.04279e-05
7.94513e-05
8.21738e-05
8.97322e-05
9.81172e-05
0.000104728
0.00011404
0.000128051
0.000134122
0.00013239
0.000133194
0.000139957
0.000145659
0.000151597
0.000160806
0.000163824
0.000164546
0.00016919
0.000172759
0.00018273
0.0001801
0.000172451
0.000151412
0.000163754
0.000178343
0.000250477
0.000120211
0.000170864
0.000644905
0.00100412
6.54961e-05
6.72483e-05
6.78964e-05
7.00387e-05
7.27978e-05
7.63749e-05
7.88288e-05
8.18097e-05
8.75801e-05
9.24075e-05
9.80959e-05
0.000102709
0.000110189
0.00012047
0.00012809
0.000140413
0.000146997
0.000144284
0.000142139
0.000140687
0.000145446
0.000153584
0.00015064
0.000153648
0.000154515
0.000161098
0.000156972
0.000164244
0.000144731
0.000134367
0.000102619
0.000109834
9.90402e-05
0.000101912
9.17592e-05
0.000213526
0.000545169
0.000690918
6.35978e-05
6.69052e-05
6.89821e-05
7.043e-05
7.48378e-05
7.71455e-05
8.03454e-05
8.25536e-05
8.59158e-05
9.39789e-05
9.41853e-05
9.40923e-05
0.000100329
0.000112144
0.000104211
8.8834e-05
8.69764e-05
8.86833e-05
8.55996e-05
7.8571e-05
8.51939e-05
9.2125e-05
9.65075e-05
0.000103864
0.000101084
0.000106091
9.84094e-05
0.00010656
9.60849e-05
8.29842e-05
9.9233e-05
9.50899e-05
9.17784e-05
7.3278e-05
5.40987e-05
0.000388111
0.000665967
0.000532809
5.42013e-05
5.65551e-05
5.90906e-05
6.03586e-05
6.37252e-05
6.47783e-05
6.90546e-05
7.00628e-05
7.0925e-05
7.0993e-05
7.34256e-05
6.93354e-05
6.4683e-05
6.52152e-05
3.96544e-05
3.5421e-05
3.43811e-05
3.94597e-05
4.35467e-05
5.33206e-05
6.33159e-05
6.61849e-05
7.18175e-05
7.3925e-05
7.47576e-05
7.80626e-05
8.35029e-05
8.55071e-05
8.94938e-05
0.000101233
0.000110086
0.000115008
0.000144987
0.000112516
0.000107917
0.000381073
0.000627262
0.000714677
3.4763e-05
3.45618e-05
3.60655e-05
3.85255e-05
4.0401e-05
3.92138e-05
4.23128e-05
4.18575e-05
4.73512e-05
3.76122e-05
3.80857e-05
3.33989e-05
3.07072e-05
3.48516e-05
3.75422e-05
4.27232e-05
5.92489e-05
8.63566e-05
0.000125606
0.000151649
0.000150169
0.000150716
0.000150945
0.000149812
0.000151371
0.000156286
0.000160553
0.000159788
0.000168356
0.000186378
0.00025926
0.000287163
0.000408502
0.000334515
0.000265021
0.000621605
0.000748793
0.000894311
9.71924e-06
1.02014e-05
1.03616e-05
1.05404e-05
1.11537e-05
1.13365e-05
1.15712e-05
1.21296e-05
1.21077e-05
1.43743e-05
1.68845e-05
1.79243e-05
1.68197e-05
2.03439e-05
3.67472e-05
5.352e-05
6.08948e-05
6.37203e-05
7.04146e-05
7.16174e-05
7.0183e-05
6.99465e-05
6.83131e-05
6.88816e-05
6.6752e-05
6.45675e-05
6.03378e-05
6.12744e-05
0.000100267
0.000152151
0.000219138
0.000348938
0.000488884
0.000592841
0.000730251
0.000784404
0.000744142
0.00074539
2.4406e-05
2.31042e-05
1.98119e-05
2.19697e-05
3.07048e-05
6.56753e-05
9.48726e-05
9.73568e-05
9.49548e-05
9.108e-05
8.41863e-05
7.9454e-05
7.24316e-05
6.63485e-05
9.0613e-05
0.00015608
0.000186309
0.000196877
0.00020408
0.000207775
0.000212898
0.000230078
0.000268733
0.000300534
0.000309293
0.000311528
0.000311164
0.000305439
0.000301764
0.000296335
0.000282231
0.000284467
0.000271457
0.000280218
0.000279621
0.000358716
0.000502539
0.000749408
4.87055e-05
5.32281e-05
4.81964e-05
4.26433e-05
4.43744e-05
4.86807e-05
6.30181e-05
8.38998e-05
0.000101449
0.000115146
0.000119204
0.000130585
0.000140422
0.000148008
0.000148246
0.000160483
0.000206283
0.000279825
0.000355315
0.000391075
0.000402089
0.000424929
0.000451259
0.000504868
0.000536065
0.000554209
0.000577064
0.000555875
0.000543443
0.000566428
0.000509397
0.000568388
0.00054167
0.000571158
0.000593078
0.000647719
0.000743606
0.00137679
3.41322e-05
3.85803e-05
4.38496e-05
4.42257e-05
4.70626e-05
4.94758e-05
4.18042e-05
3.80755e-05
3.78571e-05
3.74591e-05
3.76117e-05
3.89126e-05
4.24736e-05
4.51861e-05
5.442e-05
7.25646e-05
7.94283e-05
8.66488e-05
8.91121e-05
9.0782e-05
8.83763e-05
8.60315e-05
8.68254e-05
9.27505e-05
9.58555e-05
9.74007e-05
0.000108233
0.00010294
0.000106327
0.000125455
0.000157585
0.000192159
0.00030259
0.000374915
0.000615146
0.000722028
0.000805389
0.00077839
3.82124e-05
3.8006e-05
3.76249e-05
3.8887e-05
3.83671e-05
3.90689e-05
3.91457e-05
3.61499e-05
3.6673e-05
3.71593e-05
4.04573e-05
4.52426e-05
4.62166e-05
4.5002e-05
4.38915e-05
3.85009e-05
3.97198e-05
4.0699e-05
4.63376e-05
5.22071e-05
5.56891e-05
5.87601e-05
6.54044e-05
7.15687e-05
7.42365e-05
7.78338e-05
8.38491e-05
0.000102255
0.000123533
0.000167726
0.000220182
0.000243725
0.000434029
0.000414529
0.000458466
0.000621981
0.000406472
0.000496619
5.33431e-05
5.41032e-05
5.41945e-05
5.47774e-05
5.37622e-05
5.17714e-05
5.06246e-05
5.10357e-05
5.00989e-05
5.06864e-05
5.51981e-05
6.02642e-05
6.41475e-05
7.06919e-05
7.91972e-05
7.87315e-05
8.67491e-05
8.82379e-05
0.000105492
0.000108645
0.000115183
0.000122506
0.000134953
0.000148187
0.000152889
0.000161485
0.000183199
0.000199587
0.000220592
0.000298532
0.000282152
0.000299903
0.000406788
0.000417679
0.000595927
0.000514038
0.000284309
0.00064666
7.0202e-05
7.0989e-05
7.22426e-05
7.3725e-05
7.61986e-05
7.72723e-05
7.84932e-05
8.16732e-05
8.51945e-05
9.02881e-05
9.80888e-05
0.000103158
0.00011242
0.000122253
0.000131844
0.000135205
0.000140199
0.00014535
0.000162273
0.000169962
0.000182038
0.000192512
0.000195923
0.000206144
0.000208653
0.000211381
0.000227382
0.00022686
0.000245299
0.000251459
0.000275222
0.000343744
0.000345045
0.000314454
0.000194271
0.000243551
0.000274804
0.00054937
8.87776e-05
8.99372e-05
9.18162e-05
9.42781e-05
9.80701e-05
0.000101239
0.000104287
0.000109074
0.000113737
0.000121972
0.000128734
0.000136799
0.000145179
0.000161568
0.000177551
0.000186795
0.000190315
0.000196339
0.000201594
0.000206289
0.000208974
0.000215195
0.000216877
0.000217366
0.000220338
0.000217592
0.000211246
0.000222563
0.000217545
0.000209805
0.000206163
0.000212347
0.00023326
0.000282221
0.000248683
0.000161246
0.00028682
0.000484911
9.70745e-05
0.00010061
0.000103346
0.000106442
0.000111912
0.0001157
0.000120244
0.00012479
0.000129989
0.000136848
0.000144019
0.000151698
0.000161296
0.000182753
0.000198072
0.000202464
0.000205116
0.000207471
0.000202771
0.000199574
0.000200081
0.000204574
0.000202454
0.000206163
0.000195484
0.000194333
0.000186489
0.000180568
0.000174456
0.000165626
0.000154581
0.000158094
0.000167864
0.000212227
0.000193967
0.000127385
0.00025643
0.000377555
9.16325e-05
9.52605e-05
9.95124e-05
0.000102828
0.00010797
0.000111319
0.000117884
0.000121578
0.00012656
0.000132089
0.000135465
0.000142134
0.000152601
0.000188802
0.000152112
0.000142897
0.000134724
0.000128171
0.000115874
0.000105946
0.000107642
0.000117028
0.000120588
0.000127846
0.000122731
0.000121129
0.000115336
0.000109051
9.76851e-05
9.28583e-05
9.461e-05
9.92188e-05
0.000101399
0.000121644
0.00011648
8.04311e-05
0.000262504
0.000400827
7.54193e-05
7.73365e-05
8.13848e-05
8.48262e-05
8.82134e-05
8.96972e-05
9.70161e-05
9.88426e-05
0.000103145
9.96797e-05
0.000102738
0.000106031
0.000116762
0.000131436
6.04998e-05
5.05777e-05
4.23784e-05
4.26319e-05
4.86765e-05
6.05589e-05
7.16466e-05
7.53e-05
8.15502e-05
8.37312e-05
8.65778e-05
8.89793e-05
9.36238e-05
9.89417e-05
0.000113471
0.000141524
0.000151447
0.000151126
0.000177942
0.000153506
0.00014916
0.000231726
0.000309326
0.00058733
4.78089e-05
4.5678e-05
4.93238e-05
5.28421e-05
5.41303e-05
5.18526e-05
5.84436e-05
5.82239e-05
6.33215e-05
5.15322e-05
5.28556e-05
5.42355e-05
5.64327e-05
4.41391e-05
4.17693e-05
4.57067e-05
6.15609e-05
9.50599e-05
0.000137668
0.000169078
0.000169285
0.000169442
0.000169823
0.00016844
0.00017076
0.000177069
0.000183989
0.000185285
0.000195842
0.000238119
0.00033119
0.000396029
0.000544087
0.000661177
0.000520953
0.000535384
0.000549969
0.000602632
1.02064e-05
1.03974e-05
1.07391e-05
1.11566e-05
1.15585e-05
1.17114e-05
1.21523e-05
1.26506e-05
1.27321e-05
1.32156e-05
1.42957e-05
1.47246e-05
1.53804e-05
2.4269e-05
4.49738e-05
5.78497e-05
6.52963e-05
6.82747e-05
7.45271e-05
7.66039e-05
7.55866e-05
7.46635e-05
7.34513e-05
7.3308e-05
7.14063e-05
6.89173e-05
6.45117e-05
7.49378e-05
0.000123244
0.000173956
0.000229643
0.000350728
0.000496328
0.000601053
0.000719606
0.000756097
0.0007261
0.000733895
2.15702e-05
1.99896e-05
1.85755e-05
1.8422e-05
2.39277e-05
4.53994e-05
8.39607e-05
8.90909e-05
8.12293e-05
7.06659e-05
6.40728e-05
5.91207e-05
5.32883e-05
5.1877e-05
8.62497e-05
0.000156439
0.000191036
0.000202679
0.000211748
0.000216301
0.000219714
0.000233218
0.00026604
0.000300603
0.000311356
0.000314164
0.000313764
0.000306907
0.000302837
0.000293052
0.000277364
0.000275395
0.000262879
0.000262922
0.000262885
0.000359632
0.000511995
0.000627413
3.8988e-05
4.81467e-05
4.44352e-05
3.4316e-05
3.43454e-05
3.88879e-05
4.49721e-05
5.90273e-05
6.47158e-05
6.80382e-05
7.09546e-05
7.67012e-05
8.79387e-05
0.000103184
0.0001174
0.000137292
0.000194264
0.000278166
0.000365109
0.000417091
0.000426109
0.000456001
0.000476557
0.000531103
0.000557206
0.000580156
0.000594018
0.000571293
0.000568284
0.000570946
0.000524145
0.0005629
0.000541698
0.000594446
0.000506513
0.00051217
0.000548972
0.000891168
2.97661e-05
3.32604e-05
3.98027e-05
3.99764e-05
4.03677e-05
4.45643e-05
4.08083e-05
3.54523e-05
3.60299e-05
3.60021e-05
3.68718e-05
3.82655e-05
4.12927e-05
4.37823e-05
4.95687e-05
6.11332e-05
6.16314e-05
7.70979e-05
8.49794e-05
9.54437e-05
9.72685e-05
9.97776e-05
0.000101186
0.000108755
0.000111209
0.000113806
0.000120186
0.000112633
0.000112745
0.000121107
0.000137924
0.000170656
0.000292484
0.000346267
0.000527953
0.000572301
0.000790908
0.0010875
5.04927e-05
4.9323e-05
4.77905e-05
4.46978e-05
4.51876e-05
4.28913e-05
4.26262e-05
4.04403e-05
4.22357e-05
4.48265e-05
5.23826e-05
5.9046e-05
5.94434e-05
5.76294e-05
5.62584e-05
5.04089e-05
5.06618e-05
4.64493e-05
5.22853e-05
5.88132e-05
6.02795e-05
6.24143e-05
6.78904e-05
7.0827e-05
7.34184e-05
7.74459e-05
8.20499e-05
9.84282e-05
0.000120233
0.000145791
0.000199959
0.000249669
0.000399563
0.000428384
0.000606887
0.000657537
0.000508384
0.000471087
7.7213e-05
7.85511e-05
7.80698e-05
7.71673e-05
7.4692e-05
7.0106e-05
6.7936e-05
6.77128e-05
6.9169e-05
7.20495e-05
8.01087e-05
8.54554e-05
9.1104e-05
9.91911e-05
0.000109174
0.00010681
0.000114424
0.000107366
0.000121791
0.000121059
0.00012263
0.00013081
0.000140223
0.000149514
0.000153843
0.000163811
0.000178976
0.000193607
0.000218585
0.000254629
0.000277197
0.000328445
0.000428608
0.000459757
0.000571763
0.000655937
0.000388227
0.000400541
9.94211e-05
0.000102023
0.00010347
0.000105154
0.000108319
0.000108269
0.000108386
0.000110521
0.000114285
0.000120758
0.000129944
0.00013423
0.000141342
0.000156151
0.000166807
0.000170075
0.00017614
0.000179575
0.000193433
0.000197077
0.000202457
0.000206967
0.000206453
0.000212159
0.000211726
0.000211882
0.000219454
0.000222495
0.000239712
0.000251462
0.000284234
0.000335234
0.000368553
0.000389708
0.000378207
0.000580301
0.000493996
0.000427629
0.000115844
0.000119305
0.000122052
0.000125227
0.000130871
0.000133957
0.000137443
0.000142019
0.000147285
0.000154975
0.000163113
0.00017148
0.000180129
0.000200901
0.000217646
0.000225795
0.000228766
0.00023658
0.000241582
0.000241899
0.000240123
0.0002398
0.000237108
0.000232602
0.000232399
0.000227591
0.000217473
0.000219814
0.000211482
0.000208502
0.000216539
0.000226281
0.00026144
0.000315898
0.000384657
0.000421484
0.000305167
0.000430447
0.000120417
0.000125082
0.000129296
0.000133363
0.00014006
0.000144376
0.000150267
0.000155365
0.000161191
0.000167844
0.000176227
0.000185332
0.000195779
0.000225453
0.00023695
0.000240467
0.000241779
0.00024411
0.000234483
0.000229061
0.000227348
0.000228558
0.000223501
0.00021952
0.000206669
0.000199472
0.000188754
0.00017745
0.000167344
0.000159735
0.00016798
0.000175061
0.000199422
0.000256555
0.000297148
0.000171661
0.000375257
0.000628719
0.000111057
0.00011517
0.000120733
0.00012515
0.000130683
0.000135127
0.000143459
0.000147923
0.000153523
0.000157809
0.000163478
0.000172841
0.000186369
0.000233184
0.000179446
0.000168386
0.000153099
0.000140056
0.00012231
0.00011638
0.000120737
0.000128931
0.000131765
0.000133569
0.000127946
0.000120638
0.000111491
9.98681e-05
8.83376e-05
9.04949e-05
9.26863e-05
0.000100582
0.000106255
0.000135973
0.00017573
9.67469e-05
0.000156891
0.00058699
8.89943e-05
9.09895e-05
9.58752e-05
0.000100138
0.000103308
0.000105883
0.000114355
0.000117094
0.00012144
0.00011984
0.000123073
0.000128257
0.000155849
0.00014829
6.79364e-05
5.34244e-05
4.51887e-05
4.87909e-05
5.58036e-05
6.83274e-05
7.85144e-05
8.22953e-05
8.80568e-05
8.98268e-05
9.31289e-05
9.61798e-05
0.000103085
0.000112107
0.000135767
0.000179944
0.000189956
0.000196294
0.000209069
0.000173554
0.000192031
0.000324089
0.000270582
0.000447835
5.40077e-05
5.1121e-05
5.43529e-05
5.92427e-05
5.87233e-05
5.78324e-05
6.34703e-05
6.56149e-05
6.82865e-05
5.88427e-05
5.58274e-05
6.12816e-05
7.83603e-05
4.70765e-05
3.72439e-05
4.43761e-05
6.60038e-05
0.00010755
0.000148158
0.000179963
0.000180296
0.000180993
0.000181521
0.00018103
0.000184823
0.000195024
0.000206767
0.00020985
0.000223061
0.000280362
0.000382864
0.00046039
0.000611039
0.000687353
0.000840864
0.00102822
0.000803164
0.000622961
1.04779e-05
1.06047e-05
1.098e-05
1.15574e-05
1.17706e-05
1.19165e-05
1.242e-05
1.30728e-05
1.3232e-05
1.36031e-05
1.39167e-05
1.44174e-05
1.53594e-05
2.55158e-05
5.11622e-05
6.13934e-05
6.93996e-05
7.24639e-05
7.78531e-05
8.03381e-05
7.95114e-05
7.80901e-05
7.72316e-05
7.66366e-05
7.47681e-05
7.20387e-05
6.87277e-05
8.98545e-05
0.00014318
0.000192061
0.000237022
0.000346582
0.000494527
0.00059843
0.000694876
0.000735122
0.000713838
0.000708349
1.88774e-05
1.86913e-05
1.9026e-05
1.79811e-05
1.95473e-05
2.7628e-05
5.53236e-05
7.45509e-05
7.34083e-05
6.5442e-05
5.50286e-05
4.77587e-05
4.25571e-05
4.50544e-05
8.54253e-05
0.000158073
0.000195143
0.000207212
0.000216891
0.000222276
0.000224728
0.00023416
0.000259494
0.000296033
0.000310067
0.000313706
0.000313633
0.000307273
0.000302468
0.000289422
0.000276006
0.000272204
0.00025817
0.000254278
0.000264675
0.000401568
0.000491519
0.000559801
3.0556e-05
4.04412e-05
4.12427e-05
3.48228e-05
3.17243e-05
3.41297e-05
3.71069e-05
4.21964e-05
4.52148e-05
4.98975e-05
5.42892e-05
5.8186e-05
6.74414e-05
8.76871e-05
0.000107322
0.000127353
0.000191777
0.000279252
0.000373425
0.000439549
0.000446235
0.000477543
0.00049377
0.000542756
0.0005705
0.000596029
0.000601605
0.000582087
0.00058022
0.000568059
0.000539227
0.000549791
0.000514139
0.000543711
0.000436085
0.000419516
0.000467112
0.000791224
3.00184e-05
3.28337e-05
3.8887e-05
3.91376e-05
3.72792e-05
4.02427e-05
4.13985e-05
3.92472e-05
4.06837e-05
4.429e-05
4.81156e-05
5.11337e-05
5.53501e-05
5.87922e-05
7.08644e-05
6.56891e-05
6.45663e-05
8.60326e-05
9.94851e-05
0.000114076
0.000115173
0.000117856
0.000119022
0.000126217
0.000128123
0.000132982
0.000131864
0.000123535
0.000122961
0.000125258
0.000136606
0.000157741
0.000213665
0.000275972
0.000432774
0.0005246
0.000889081
0.00107523
6.35197e-05
6.27773e-05
6.3236e-05
5.77139e-05
4.85358e-05
4.51532e-05
4.50857e-05
4.61491e-05
4.982e-05
5.57296e-05
6.48717e-05
6.9465e-05
6.67408e-05
6.31397e-05
6.15098e-05
5.53608e-05
5.55244e-05
5.09231e-05
5.60444e-05
6.17957e-05
6.23235e-05
6.46936e-05
6.76643e-05
7.21878e-05
7.48202e-05
7.90824e-05
8.68818e-05
9.86399e-05
0.000124651
0.000142218
0.000197679
0.000244968
0.000354786
0.000410941
0.000605762
0.000631791
0.000623149
0.000667147
9.73072e-05
9.89845e-05
9.89311e-05
9.8761e-05
9.29435e-05
8.55334e-05
8.24349e-05
8.23765e-05
8.59067e-05
9.21001e-05
0.000102594
0.000107916
0.000109392
0.000113916
0.0001173
0.000112947
0.000116765
0.000101837
0.000111792
0.000109388