/*--------------------------------*- C++ -*----------------------------------*\
| =========                 |                                                 |
| \\      /  F ield         | OpenFOAM: The Open Source CFD Toolbox           |
|  \\    /   O peration     | Version:  2.3.1                                 |
|   \\  /    A nd           | Web:      www.OpenFOAM.org                      |
|    \\/     M anipulation  |                                                 |
\*---------------------------------------------------------------------------*/
FoamFile
{
    version     2.0;
    format      ascii;
    class       volScalarField;
    location    "20";
    object      p;
}
// * * * * * * * * * * * * * * * * * * * * * * * * * * * * * * * * * * * * * //

dimensions      [0 2 -2 0 0 0 0];

internalField   nonuniform List<scalar> 
38262
(
-1.21926
-1.21843
-1.21681
-1.21441
-1.21375
-1.21992
-1.22939
-1.23111
-1.22677
-1.22452
-1.22162
-1.2196
-1.21934
-1.21841
-1.22055
-1.2349
-1.24716
-1.24999
-1.24673
-1.23904
-1.23204
-1.23243
-1.23599
-1.24036
-1.23346
-1.22466
-1.21818
-1.20449
-1.20719
-1.1984
-1.19328
-1.19857
-1.18966
-1.21631
-1.23418
-1.333
-1.3367
-2.30462
-1.21955
-1.21902
-1.21842
-1.21788
-1.21926
-1.2266
-1.23684
-1.2328
-1.22299
-1.21946
-1.21905
-1.21932
-1.22211
-1.22565
-1.23036
-1.24215
-1.24975
-1.2467
-1.2437
-1.23841
-1.2334
-1.23609
-1.2447
-1.24833
-1.24218
-1.23085
-1.22135
-1.21452
-1.20921
-1.20204
-1.20428
-1.20096
-1.17166
-1.19038
-1.19923
-1.18489
-1.30567
-1.70627
-1.21973
-1.21944
-1.21911
-1.21889
-1.2193
-1.22111
-1.22331
-1.22364
-1.22304
-1.22196
-1.22046
-1.21895
-1.21946
-1.22292
-1.22851
-1.23428
-1.23816
-1.24045
-1.24005
-1.23798
-1.23478
-1.23435
-1.23446
-1.23368
-1.23049
-1.22857
-1.22388
-1.22034
-1.21898
-1.21814
-1.21552
-1.20989
-1.22174
-1.22691
-1.24534
-1.18264
-1.18507
-0.899951
-1.22011
-1.21995
-1.2199
-1.2201
-1.22094
-1.2229
-1.22551
-1.22616
-1.22408
-1.22233
-1.22153
-1.22134
-1.22211
-1.22378
-1.22771
-1.23383
-1.23889
-1.23929
-1.23801
-1.2364
-1.23423
-1.23334
-1.23464
-1.235
-1.23471
-1.23255
-1.22813
-1.22586
-1.21844
-1.21868
-1.2077
-1.21332
-1.19262
-1.17706
-1.23741
-1.15687
-1.1327
-1.11085
-1.22034
-1.22031
-1.22033
-1.22046
-1.22078
-1.22134
-1.22194
-1.2221
-1.22208
-1.22197
-1.22199
-1.22216
-1.22284
-1.22439
-1.22673
-1.22978
-1.23194
-1.23318
-1.23378
-1.23323
-1.23219
-1.23128
-1.23054
-1.22936
-1.22804
-1.22572
-1.22446
-1.22293
-1.22321
-1.22344
-1.22506
-1.22951
-1.22701
-1.19671
-1.24599
-1.22838
-1.16211
-1.14626
-1.22053
-1.22056
-1.22066
-1.22084
-1.22125
-1.22195
-1.22275
-1.22327
-1.22314
-1.22268
-1.22262
-1.22288
-1.22335
-1.22468
-1.22641
-1.22887
-1.23103
-1.23219
-1.23247
-1.23193
-1.23113
-1.23049
-1.22987
-1.2294
-1.229
-1.22832
-1.22727
-1.22647
-1.22579
-1.21776
-1.22125
-1.21078
-1.21197
-1.20219
-1.22814
-1.3447
-1.26108
-1.22944
-1.22065
-1.22067
-1.22082
-1.22099
-1.22119
-1.2215
-1.22175
-1.22193
-1.22209
-1.22223
-1.22248
-1.22288
-1.22357
-1.22452
-1.22609
-1.22751
-1.22868
-1.22945
-1.22983
-1.22968
-1.22903
-1.22832
-1.22764
-1.22668
-1.22579
-1.22487
-1.22467
-1.2251
-1.22837
-1.23616
-1.2453
-1.25371
-1.2483
-1.25228
-1.13655
-1.2271
-1.31453
-1.34152
-1.22077
-1.22082
-1.22095
-1.22112
-1.22133
-1.22165
-1.222
-1.22229
-1.2225
-1.22264
-1.22283
-1.22314
-1.22358
-1.22423
-1.22553
-1.22676
-1.22809
-1.22888
-1.22908
-1.22887
-1.22827
-1.22746
-1.22664
-1.22583
-1.22513
-1.22471
-1.22476
-1.22449
-1.22623
-1.2266
-1.2286
-1.23519
-1.23805
-1.23719
-1.25574
-1.18643
-1.21845
-1.20665
-1.22084
-1.22091
-1.22103
-1.22118
-1.22135
-1.22156
-1.22176
-1.22196
-1.22215
-1.22244
-1.22281
-1.22292
-1.22349
-1.22375
-1.22552
-1.22669
-1.22745
-1.22807
-1.22792
-1.22755
-1.22684
-1.2261
-1.22503
-1.22408
-1.22324
-1.22263
-1.22268
-1.22565
-1.23194
-1.24819
-1.26865
-1.28715
-1.29831
-1.26964
-1.20503
-1.16745
-1.1508
-1.02737
-1.2209
-1.22097
-1.22109
-1.22123
-1.22139
-1.22156
-1.22175
-1.22197
-1.22208
-1.22256
-1.22294
-1.22297
-1.22293
-1.22367
-1.22531
-1.22593
-1.22718
-1.22773
-1.2276
-1.22751
-1.22659
-1.22569
-1.22464
-1.22317
-1.22182
-1.22077
-1.2196
-1.21921
-1.22129
-1.22368
-1.23782
-1.25802
-1.26913
-1.2789
-1.19408
-1.07355
-1.01554
-0.978487
-1.22094
-1.22101
-1.22113
-1.22126
-1.22139
-1.22156
-1.2217
-1.22198
-1.22203
-1.22357
-1.22355
-1.22232
-1.22391
-1.22431
-1.22589
-1.22712
-1.22751
-1.22774
-1.22727
-1.22698
-1.22565
-1.22474
-1.22325
-1.22179
-1.22007
-1.21861
-1.21649
-1.21787
-1.22615
-1.25161
-1.29331
-1.36425
-1.42415
-1.29773
-1.12125
-0.975096
-0.903802
-0.989541
-1.22095
-1.22102
-1.22114
-1.22127
-1.22139
-1.22149
-1.22153
-1.22136
-1.22085
-1.22308
-1.22469
-1.22269
-1.22332
-1.22277
-1.22399
-1.22566
-1.22716
-1.22777
-1.22745
-1.227
-1.22553
-1.22464
-1.22298
-1.22124
-1.21907
-1.21665
-1.21199
-1.20685
-1.20323
-1.20953
-1.21979
-1.23506
-1.24754
-1.12129
-0.782361
-0.688391
-0.730703
-0.801986
-1.32972
-1.32898
-1.32757
-1.32542
-1.32459
-1.32996
-1.3393
-1.34196
-1.33807
-1.3355
-1.33264
-1.33085
-1.33095
-1.33011
-1.33074
-1.3439
-1.35735
-1.35975
-1.35728
-1.34984
-1.34234
-1.34209
-1.34608
-1.35044
-1.34471
-1.33521
-1.32749
-1.31812
-1.31348
-1.31079
-1.3049
-1.30891
-1.30377
-1.31218
-1.39843
-1.4706
-1.78985
-2.31152
-1.32998
-1.32948
-1.32895
-1.3285
-1.3294
-1.33571
-1.3465
-1.34488
-1.33489
-1.33035
-1.32962
-1.3304
-1.33359
-1.33686
-1.34101
-1.35536
-1.36257
-1.35702
-1.35539
-1.34994
-1.34384
-1.34554
-1.35393
-1.35879
-1.35533
-1.34403
-1.33355
-1.32891
-1.31968
-1.31734
-1.3202
-1.31677
-1.30305
-1.33386
-1.34387
-1.44517
-1.5886
-3.06659
-1.33014
-1.32986
-1.32955
-1.32935
-1.32974
-1.33143
-1.33371
-1.33407
-1.33336
-1.33234
-1.33121
-1.33014
-1.33078
-1.33406
-1.33954
-1.34539
-1.34907
-1.35126
-1.35105
-1.34877
-1.34532
-1.34478
-1.34466
-1.34444
-1.34151
-1.33828
-1.3366
-1.32923
-1.33625
-1.33661
-1.331
-1.32028
-1.33708
-1.33581
-1.4013
-1.29194
-1.47474
-0.929572
-1.3305
-1.33036
-1.33032
-1.33049
-1.33129
-1.33316
-1.33569
-1.33656
-1.33455
-1.33277
-1.332
-1.33192
-1.33283
-1.33452
-1.33825
-1.34388
-1.34913
-1.34947
-1.34825
-1.3468
-1.34467
-1.34376
-1.34463
-1.34547
-1.34503
-1.34312
-1.33905
-1.33658
-1.33604
-1.33247
-1.32119
-1.32401
-1.31239
-1.29108
-1.34997
-1.33667
-1.29543
-1.46232
-1.33072
-1.33069
-1.3307
-1.33084
-1.33116
-1.33169
-1.33228
-1.33245
-1.33244
-1.3324
-1.33241
-1.33259
-1.33334
-1.33488
-1.33716
-1.34013
-1.3422
-1.34371
-1.34414
-1.34359
-1.34265
-1.34166
-1.34106
-1.33982
-1.33855
-1.33658
-1.33515
-1.33426
-1.33399
-1.33631
-1.33792
-1.34241
-1.34173
-1.32942
-1.37419
-1.33677
-1.33769
-1.33832
-1.33091
-1.33094
-1.33104
-1.33121
-1.33162
-1.3323
-1.33308
-1.3336
-1.33349
-1.33309
-1.33302
-1.33327
-1.33379
-1.33508
-1.33684
-1.33926
-1.34137
-1.34253
-1.3428
-1.34234
-1.34146
-1.34076
-1.34031
-1.33973
-1.33956
-1.33883
-1.33795
-1.3369
-1.33639
-1.33152
-1.33204
-1.32565
-1.32753
-1.33065
-1.38379
-1.42721
-1.37062
-1.40365
-1.33103
-1.33105
-1.3312
-1.33135
-1.33156
-1.33186
-1.33211
-1.33228
-1.33245
-1.33259
-1.33285
-1.33323
-1.33399
-1.3349
-1.33639
-1.33787
-1.33905
-1.33987
-1.34016
-1.34007
-1.33941
-1.33862
-1.33792
-1.33723
-1.33611
-1.33586
-1.33532
-1.33561
-1.33854
-1.34505
-1.35414
-1.36156
-1.35349
-1.36192
-1.25475
-1.38003
-1.41009
-1.45434
-1.33114
-1.33119
-1.33132
-1.33149
-1.33169
-1.33202
-1.33235
-1.33265
-1.33286
-1.333
-1.33319
-1.33351
-1.33397
-1.3347
-1.33595
-1.33711
-1.33843
-1.33919
-1.33947
-1.33922
-1.33874
-1.33786
-1.33699
-1.33632
-1.33555
-1.3352
-1.3353
-1.33538
-1.33701
-1.33647
-1.34179
-1.34685
-1.35438
-1.35675
-1.3498
-1.30244
-1.32457
-1.33938
-1.33121
-1.33128
-1.3314
-1.33155
-1.33172
-1.33193
-1.33212
-1.33233
-1.33252
-1.3328
-1.33317
-1.33328
-1.33398
-1.33435
-1.33593
-1.33708
-1.33775
-1.3383
-1.33828
-1.33789
-1.33725
-1.33648
-1.33533
-1.33454
-1.33366
-1.33308
-1.33317
-1.33609
-1.34196
-1.35691
-1.37742
-1.39618
-1.40535
-1.38215
-1.36397
-1.26815
-1.27754
-1.22615
-1.33127
-1.33135
-1.33146
-1.3316
-1.33176
-1.33194
-1.33213
-1.33236
-1.3325
-1.33295
-1.33337
-1.33344
-1.33344
-1.33469
-1.33595
-1.33641
-1.33747
-1.33819
-1.33802
-1.33792
-1.33704
-1.33602
-1.33501
-1.33352
-1.33217
-1.33124
-1.33014
-1.3296
-1.33211
-1.33641
-1.34839
-1.3731
-1.38338
-1.36671
-1.34118
-1.23462
-1.16745
-1.1662
-1.3313
-1.33138
-1.33149
-1.33163
-1.33178
-1.33193
-1.33208
-1.33236
-1.33241
-1.33342
-1.33374
-1.33289
-1.33462
-1.33496
-1.3363
-1.33763
-1.33785
-1.33811
-1.33762
-1.33742
-1.33608
-1.33507
-1.33369
-1.33221
-1.33041
-1.32902
-1.32684
-1.32817
-1.33645
-1.36286
-1.40509
-1.48497
-1.56397
-1.4867
-1.37341
-1.23542
-1.10389
-1.18562
-1.33132
-1.33143
-1.33152
-1.33164
-1.33179
-1.33191
-1.33196
-1.33222
-1.33164
-1.33431
-1.33537
-1.33334
-1.33358
-1.33314
-1.33418
-1.336
-1.33739
-1.33818
-1.33789
-1.33737
-1.33592
-1.33492
-1.33335
-1.33166
-1.32933
-1.32685
-1.32212
-1.31655
-1.31389
-1.32067
-1.33177
-1.34892
-1.36103
-1.31188
-1.14081
-1.00857
-0.982476
-1.03102
-1.4402
-1.43956
-1.43838
-1.43658
-1.43558
-1.43987
-1.44849
-1.45216
-1.44815
-1.4446
-1.44263
-1.44147
-1.44144
-1.44044
-1.43983
-1.45248
-1.46713
-1.4697
-1.46835
-1.4616
-1.4533
-1.45242
-1.45601
-1.46084
-1.45669
-1.4478
-1.43953
-1.43007
-1.42375
-1.42076
-1.41589
-1.41782
-1.41238
-1.44117
-1.40652
-1.58953
-1.30324
-2.19803
-1.44042
-1.43998
-1.43953
-1.43922
-1.43989
-1.44485
-1.45515
-1.45575
-1.44597
-1.4408
-1.43982
-1.4404
-1.44321
-1.44659
-1.44991
-1.46366
-1.47496
-1.46723
-1.46573
-1.46139
-1.45413
-1.45519
-1.46228
-1.46867
-1.46764
-1.45714
-1.44773
-1.44007
-1.43139
-1.4246
-1.42574
-1.42255
-1.41939
-1.41656
-1.44309
-1.35914
-1.58538
-0.827652
-1.44058
-1.44031
-1.44002
-1.43986
-1.44022
-1.44172
-1.44389
-1.44438
-1.44372
-1.44266
-1.44184
-1.44108
-1.44169
-1.44433
-1.44908
-1.45466
-1.45907
-1.46156
-1.46173
-1.4596
-1.45598
-1.45491
-1.45512
-1.45467
-1.45273
-1.44951
-1.44569
-1.44114
-1.43529
-1.43662
-1.43654
-1.43273
-1.43986
-1.43124
-1.43408
-1.39486
-1.2938
-1.16135
-1.4409
-1.44077
-1.44074
-1.44093
-1.44166
-1.44333
-1.44566
-1.44675
-1.44499
-1.44318
-1.44238
-1.44237
-1.44329
-1.44517
-1.44849
-1.45364
-1.45876
-1.45946
-1.45843
-1.45716
-1.45508
-1.45413
-1.45453
-1.45558
-1.45528
-1.45382
-1.45023
-1.44581
-1.44535
-1.43987
-1.43473
-1.43043
-1.42548
-1.40882
-1.44997
-1.4362
-1.4113
-1.38477
-1.4411
-1.44107
-1.44109
-1.44123
-1.44154
-1.44205
-1.44259
-1.4428
-1.44279
-1.44272
-1.44275
-1.44299
-1.44373
-1.44524
-1.4474
-1.45019
-1.45246
-1.45387
-1.45449
-1.45402
-1.45304
-1.45208
-1.45143
-1.45053
-1.44922
-1.44736
-1.44613
-1.44426
-1.44613
-1.44253
-1.44522
-1.4458
-1.44875
-1.43995
-1.46224
-1.45323
-1.43501
-1.42671
-1.44128
-1.4413
-1.44141
-1.4416
-1.44198
-1.44262
-1.44337
-1.44388
-1.44384
-1.44347
-1.44339
-1.44366
-1.44422
-1.44548
-1.44723
-1.44961
-1.45171
-1.45281
-1.45306
-1.45272
-1.45187
-1.45115
-1.45063
-1.45015
-1.44975
-1.44927
-1.4485
-1.44741
-1.44722
-1.44354
-1.44261
-1.43615
-1.43638
-1.43333
-1.4562
-1.47673
-1.46534
-1.46098
-1.44141
-1.44143
-1.44156
-1.44173
-1.44193
-1.44222
-1.44247
-1.44264
-1.4428
-1.44295
-1.44321
-1.4436
-1.44433
-1.44527
-1.4467
-1.44818
-1.44938
-1.45021
-1.4505
-1.45041
-1.44982
-1.44904
-1.44832
-1.44758
-1.44649
-1.44594
-1.44574
-1.44582
-1.44817
-1.45388
-1.46218
-1.46893
-1.46554
-1.46458
-1.40384
-1.44999
-1.48087
-1.51512
-1.44151
-1.44157
-1.44169
-1.44186
-1.44207
-1.44238
-1.44271
-1.443
-1.44321
-1.44335
-1.44355
-1.44387
-1.44436
-1.44507
-1.4463
-1.44748
-1.44874
-1.44951
-1.44981
-1.44953
-1.44905
-1.44821
-1.44736
-1.44668
-1.44596
-1.44559
-1.4457
-1.44603
-1.44752
-1.44784
-1.44964
-1.45362
-1.45661
-1.44963
-1.4366
-1.4314
-1.41531
-1.43408
-1.44158
-1.44166
-1.44178
-1.44192
-1.4421
-1.4423
-1.4425
-1.44269
-1.44289
-1.44314
-1.4435
-1.44368
-1.44431
-1.44478
-1.44624
-1.44738
-1.44808
-1.44862
-1.44863
-1.44827
-1.44761
-1.44682
-1.44571
-1.44492
-1.44401
-1.44355
-1.44345
-1.44608
-1.45173
-1.46511
-1.48481
-1.50368
-1.51459
-1.49333
-1.4338
-1.39839
-1.39325
-1.37369
-1.44164
-1.44172
-1.44184
-1.44197
-1.44213
-1.44231
-1.44251
-1.44271
-1.44288
-1.44322
-1.44357
-1.44369
-1.44394
-1.44438
-1.4459
-1.44658
-1.44764
-1.44844
-1.44841
-1.44824
-1.44742
-1.44633
-1.44533
-1.44392
-1.44251
-1.44154
-1.44047
-1.44026
-1.44257
-1.44742
-1.45627
-1.46965
-1.48287
-1.4616
-1.43458
-1.38028
-1.3163
-1.32307
-1.44167
-1.44176
-1.44187
-1.442
-1.44215
-1.44231
-1.44247
-1.44268
-1.44283
-1.44345
-1.4439
-1.44342
-1.44413
-1.44477
-1.4466
-1.44788
-1.44811
-1.44842
-1.44796
-1.44775
-1.44649
-1.44536
-1.44404
-1.44259
-1.44071
-1.43933
-1.43709
-1.43818
-1.44674
-1.47035
-1.50933
-1.58884
-1.68129
-1.61724
-1.51507
-1.42251
-1.30784
-1.35267
-1.44169
-1.4418
-1.44189
-1.442
-1.44216
-1.44227
-1.44235
-1.4425
-1.44234
-1.44345
-1.44431
-1.44358
-1.44371
-1.44436
-1.44555
-1.44601
-1.4477
-1.44847
-1.4482
-1.44775
-1.44629
-1.44519
-1.44367
-1.44202
-1.43965
-1.43705
-1.43217
-1.42657
-1.42494
-1.43167
-1.44138
-1.4594
-1.46884
-1.42988
-1.37851
-1.32241
-1.24789
-1.24374
-1.55069
-1.5502
-1.54923
-1.54774
-1.54669
-1.55003
-1.55806
-1.56254
-1.55898
-1.55482
-1.55273
-1.55157
-1.55107
-1.55017
-1.54987
-1.56213
-1.57672
-1.57982
-1.57952
-1.57367
-1.56461
-1.56321
-1.56606
-1.57096
-1.56872
-1.56104
-1.55279
-1.54274
-1.5352
-1.53283
-1.52834
-1.52921
-1.5267
-1.54144
-1.57906
-1.64271
-1.61622
-1.71347
-1.55088
-1.55051
-1.55016
-1.54994
-1.55053
-1.55415
-1.56336
-1.56615
-1.55771
-1.55186
-1.55024
-1.55036
-1.55189
-1.55431
-1.55797
-1.57235
-1.58704
-1.57803
-1.57591
-1.5732
-1.56494
-1.56492
-1.5705
-1.57757
-1.57908
-1.57055
-1.56164
-1.55284
-1.54422
-1.53986
-1.53801
-1.53432
-1.53355
-1.53817
-1.56089
-1.59048
-1.65517
-1.93032
-1.55103
-1.5508
-1.55053
-1.55042
-1.55076
-1.55206
-1.55408
-1.55481
-1.5543
-1.55321
-1.55243
-1.55185
-1.55236
-1.55438
-1.55823
-1.56379
-1.56899
-1.57186
-1.57246
-1.57065
-1.56675
-1.56531
-1.5654
-1.56543
-1.56402
-1.56071
-1.55789
-1.5522
-1.55191
-1.54846
-1.54555
-1.54374
-1.54814
-1.54677
-1.56523
-1.52172
-1.62773
-1.39476
-1.55131
-1.55121
-1.5512
-1.55137
-1.55202
-1.55349
-1.55555
-1.55679
-1.55545
-1.55371
-1.55291
-1.55288
-1.55376
-1.55563
-1.5588
-1.56369
-1.56906
-1.56981
-1.56882
-1.56767
-1.56565
-1.5645
-1.56468
-1.56563
-1.5655
-1.56452
-1.56096
-1.55768
-1.55569
-1.55047
-1.54802
-1.54414
-1.54038
-1.53232
-1.54468
-1.55042
-1.57547
-1.62663
-1.5515
-1.55148
-1.55151
-1.55164
-1.55194
-1.55241
-1.55292
-1.55316
-1.55316
-1.55311
-1.55314
-1.5534
-1.55414
-1.5556
-1.55765
-1.56034
-1.56268
-1.56428
-1.56491
-1.56453
-1.56355
-1.56254
-1.56189
-1.56101
-1.55988
-1.55818
-1.55656
-1.55502
-1.55518
-1.5538
-1.55493
-1.55702
-1.5582
-1.55709
-1.56799
-1.55855
-1.57176
-1.56654
-1.55167
-1.5517
-1.5518
-1.55199
-1.55234
-1.55293
-1.55363
-1.55413
-1.55415
-1.55386
-1.55378
-1.55404
-1.55464
-1.55587
-1.55762
-1.55993
-1.5621
-1.5632
-1.56344
-1.5631
-1.5623
-1.56152
-1.56095
-1.5605
-1.56007
-1.55969
-1.55897
-1.55803
-1.55788
-1.55554
-1.55434
-1.55017
-1.54848
-1.55339
-1.54939
-1.56924
-1.57513
-1.58887
-1.55179
-1.55183
-1.55195
-1.55211
-1.55232
-1.55259
-1.55283
-1.55301
-1.55316
-1.55331
-1.55358
-1.55397
-1.55468
-1.55563
-1.55702
-1.55849
-1.55969
-1.56057
-1.5609
-1.56078
-1.56023
-1.55945
-1.55873
-1.558
-1.55709
-1.55661
-1.55622
-1.55645
-1.55838
-1.56292
-1.57007
-1.57654
-1.57507
-1.57538
-1.53163
-1.55759
-1.57656
-1.6111
-1.55189
-1.55196
-1.55207
-1.55224
-1.55244
-1.55273
-1.55306
-1.55334
-1.55355
-1.5537
-1.5539
-1.55423
-1.55473
-1.55547
-1.55668
-1.55786
-1.55905
-1.55984
-1.56014
-1.55989
-1.55938
-1.55856
-1.55773
-1.55706
-1.55633
-1.55601
-1.55606
-1.55665
-1.55799
-1.55855
-1.55992
-1.56265
-1.56506
-1.56003
-1.5484
-1.53757
-1.52807
-1.53724
-1.55196
-1.55203
-1.55215
-1.5523
-1.55247
-1.55267
-1.55287
-1.55306
-1.55326
-1.55348
-1.55383
-1.55405
-1.55465
-1.55524
-1.55667
-1.55778
-1.55841
-1.55895
-1.55896
-1.55862
-1.55796
-1.55715
-1.55607
-1.55534
-1.55436
-1.55396
-1.55381
-1.5561
-1.5614
-1.57337
-1.59094
-1.61057
-1.62372
-1.61247
-1.57929
-1.52592
-1.51525
-1.51406
-1.55201
-1.55209
-1.55221
-1.55235
-1.55251
-1.55268
-1.55288
-1.55308
-1.55328
-1.55357
-1.55394
-1.55412
-1.55435
-1.55487
-1.5564
-1.55705
-1.55793
-1.55877
-1.55879
-1.55857
-1.55776
-1.55664
-1.5556
-1.55428
-1.55281
-1.55184
-1.55084
-1.5508
-1.55325
-1.55777
-1.56521
-1.57705
-1.58968
-1.56921
-1.53094
-1.50559
-1.44597
-1.46644
-1.55205
-1.55213
-1.55224
-1.55237
-1.55253
-1.55268
-1.55286
-1.55305
-1.55324
-1.55366
-1.5541
-1.55393
-1.55439
-1.55511
-1.55756
-1.55836
-1.55835
-1.5588
-1.55832
-1.55809
-1.55685
-1.55565
-1.55436
-1.55293
-1.55103
-1.54956
-1.54733
-1.54831
-1.55678
-1.57698
-1.60925
-1.68397
-1.7893
-1.76344
-1.64367
-1.5615
-1.48727
-1.48613
-1.55207
-1.55216
-1.55225
-1.55239
-1.55255
-1.55266
-1.55277
-1.55298
-1.55296
-1.55384
-1.55459
-1.55409
-1.55369
-1.55491
-1.55671
-1.55678
-1.5581
-1.55882
-1.55851
-1.55808
-1.5566
-1.55544
-1.55397
-1.55235
-1.54998
-1.54732
-1.54228
-1.53693
-1.53661
-1.54284
-1.55007
-1.57024
-1.58676
-1.54156
-1.49204
-1.51579
-1.46994
-1.41021
-1.66119
-1.66083
-1.66013
-1.65887
-1.65805
-1.66034
-1.66754
-1.67325
-1.67077
-1.66489
-1.66263
-1.66168
-1.66097
-1.65994
-1.65978
-1.67202
-1.68698
-1.69025
-1.69057
-1.68559
-1.67596
-1.67402
-1.67611
-1.68066
-1.68028
-1.67428
-1.66633
-1.65583
-1.64748
-1.64401
-1.63989
-1.63985
-1.6382
-1.64748
-1.64196
-1.70519
-1.59304
-1.7579
-1.66135
-1.66107
-1.66085
-1.66065
-1.66116
-1.66371
-1.67039
-1.67507
-1.66977
-1.6638
-1.66124
-1.66084
-1.66161
-1.66347
-1.667
-1.68157
-1.69837
-1.68919
-1.68639
-1.68496
-1.67602
-1.67477
-1.67886
-1.68569
-1.6896
-1.68387
-1.6757
-1.66608
-1.65667
-1.6502
-1.649
-1.64514
-1.64561
-1.64253
-1.65977
-1.61176
-1.72645
-1.56652
-1.66149
-1.66129
-1.66106
-1.66099
-1.66132
-1.66243
-1.66419
-1.66517
-1.66487
-1.66367
-1.66284
-1.6624
-1.66278
-1.66437
-1.66763
-1.67319
-1.67887
-1.68224
-1.68322
-1.68169
-1.67756
-1.67562
-1.67567
-1.67577
-1.67512
-1.67225
-1.66865
-1.66389
-1.65895
-1.65655
-1.65572
-1.65417
-1.65564
-1.65377
-1.65405
-1.63901
-1.59753
-1.58239
-1.66174
-1.66166
-1.66165
-1.66182
-1.66238
-1.66362
-1.66532
-1.66661
-1.66575
-1.66423
-1.66343
-1.66336
-1.66415
-1.66595
-1.669
-1.67381
-1.67967
-1.68029
-1.67932
-1.67827
-1.67621
-1.67489
-1.67477
-1.6756
-1.67577
-1.67506
-1.6724
-1.66878
-1.66652
-1.6616
-1.66034
-1.65619
-1.65381
-1.6482
-1.65239
-1.65379
-1.66908
-1.64349
-1.6619
-1.66189
-1.66192
-1.66206
-1.66234
-1.66278
-1.66324
-1.6635
-1.66353
-1.66347
-1.6635
-1.66378
-1.6645
-1.6659
-1.66788
-1.67048
-1.67281
-1.67462
-1.67534
-1.67505
-1.67406
-1.67299
-1.67231
-1.67153
-1.67052
-1.66904
-1.66737
-1.66576
-1.66553
-1.6637
-1.66448
-1.66549
-1.66673
-1.6668
-1.66862
-1.66568
-1.65403
-1.66487
-1.66206
-1.6621
-1.66219
-1.66238
-1.66271
-1.66324
-1.66386
-1.66435
-1.66442
-1.6642
-1.66414
-1.6644
-1.66502
-1.66622
-1.66795
-1.67022
-1.67252
-1.67357
-1.67381
-1.67347
-1.67269
-1.67188
-1.67125
-1.67081
-1.67037
-1.67004
-1.66944
-1.66865
-1.6685
-1.667
-1.66597
-1.66229
-1.65983
-1.66053
-1.65562
-1.66857
-1.67576
-1.68673
-1.66217
-1.66222
-1.66233
-1.66249
-1.6627
-1.66295
-1.66319
-1.66337
-1.66352
-1.66367
-1.66393
-1.66432
-1.66502
-1.66597
-1.66733
-1.66879
-1.67
-1.6709
-1.67126
-1.67114
-1.67061
-1.66985
-1.66912
-1.66842
-1.6676
-1.66708
-1.6667
-1.66693
-1.66843
-1.672
-1.67817
-1.68436
-1.6855
-1.68499
-1.65984
-1.67159
-1.67782
-1.70609
-1.66227
-1.66234
-1.66245
-1.66261
-1.66282
-1.66309
-1.66339
-1.66366
-1.66388
-1.66403
-1.66424
-1.66456
-1.66507
-1.66582
-1.667
-1.66818
-1.66935
-1.67016
-1.67046
-1.67023
-1.66969
-1.6689
-1.66808
-1.66741
-1.66668
-1.6664
-1.66643
-1.66714
-1.66835
-1.66918
-1.66991
-1.6713
-1.67279
-1.66788
-1.65448
-1.64736
-1.63668
-1.653
-1.66233
-1.66241
-1.66253
-1.66267
-1.66285
-1.66304
-1.66324
-1.66342
-1.66362
-1.66383
-1.66414
-1.6644
-1.66495
-1.66564
-1.66701
-1.66807
-1.6687
-1.66925
-1.66926
-1.66893
-1.66829
-1.66748
-1.66648
-1.66571
-1.66473
-1.66435
-1.66415
-1.66618
-1.67099
-1.68136
-1.69681
-1.71537
-1.73153
-1.72701
-1.69825
-1.65201
-1.63439
-1.64224
-1.66238
-1.66246
-1.66258
-1.66272
-1.66288
-1.66305
-1.66325
-1.66345
-1.66365
-1.66389
-1.66417
-1.66435
-1.66467
-1.6652
-1.66656
-1.66726
-1.66821
-1.66908
-1.66914
-1.66886
-1.66804
-1.6669
-1.66582
-1.66459
-1.66313
-1.66216
-1.66124
-1.66144
-1.66378
-1.66779
-1.67354
-1.68185
-1.6951
-1.6798
-1.64166
-1.61149
-1.57568
-1.59753
-1.66242
-1.66249
-1.66262
-1.66275
-1.6629
-1.66306
-1.66324
-1.66341
-1.66361
-1.66391
-1.66425
-1.66422
-1.66448
-1.6655
-1.66783
-1.66849
-1.66864
-1.66919
-1.66869
-1.66842
-1.66716
-1.66592
-1.66466
-1.66324
-1.66136
-1.65983
-1.65764
-1.65862
-1.66674
-1.68304
-1.70736
-1.77086
-1.88519
-1.89593
-1.79347
-1.67811
-1.6112
-1.60018
-1.66243
-1.6625
-1.66261
-1.66275
-1.66291
-1.66303
-1.66317
-1.66333
-1.66343
-1.66385
-1.66419
-1.66396
-1.66387
-1.66505
-1.66664
-1.66709
-1.66848
-1.66918
-1.66882
-1.66837
-1.66686
-1.66567
-1.66425
-1.66264
-1.66036
-1.65762
-1.65266
-1.64785
-1.64871
-1.65401
-1.65766
-1.67689
-1.70638
-1.67143
-1.60073
-1.597
-1.58457
-1.52217
-1.7717
-1.77144
-1.77096
-1.77005
-1.76949
-1.77119
-1.77709
-1.78255
-1.78125
-1.77659
-1.77372
-1.77202
-1.77092
-1.76977
-1.77026
-1.78228
-1.79751
-1.80102
-1.80143
-1.79726
-1.78731
-1.78482
-1.78618
-1.79
-1.79119
-1.78717
-1.78003
-1.76939
-1.76053
-1.75584
-1.75182
-1.75108
-1.74981
-1.75527
-1.76116
-1.78725
-1.74103
-1.65423
-1.77185
-1.77164
-1.7715
-1.77141
-1.77175
-1.77367
-1.77784
-1.78157
-1.77914
-1.77507
-1.77262
-1.77154
-1.77172
-1.7731
-1.77686
-1.79136
-1.80903
-1.80021
-1.79712
-1.79641
-1.78737
-1.78487
-1.78759
-1.79324
-1.79902
-1.79655
-1.78977
-1.77977
-1.77005
-1.76346
-1.76098
-1.75741
-1.75785
-1.75781
-1.76584
-1.77434
-1.7972
-1.78672
-1.77195
-1.77179
-1.7716
-1.77158
-1.77188
-1.77283
-1.77429
-1.77531
-1.77511
-1.77405
-1.7732
-1.77281
-1.77309
-1.77449
-1.77749
-1.7832
-1.7895
-1.7928
-1.79403
-1.79272
-1.7884
-1.78603
-1.78589
-1.78609
-1.78598
-1.78375
-1.78055
-1.77578
-1.77207
-1.7688
-1.76663
-1.7649
-1.76558
-1.76515
-1.76696
-1.75702
-1.77319
-1.73041
-1.77217
-1.77211
-1.77212
-1.77228
-1.77275
-1.77378
-1.77515
-1.77628
-1.77581
-1.7746
-1.77387
-1.77377
-1.77447
-1.77616
-1.77913
-1.78395
-1.78993
-1.79082
-1.78991
-1.78889
-1.78684
-1.78529
-1.78495
-1.78557
-1.78596
-1.78571
-1.78347
-1.78045
-1.77762
-1.77313
-1.77195
-1.76872
-1.76693
-1.76391
-1.76439
-1.76919
-1.78027
-1.79073
-1.77231
-1.77231
-1.77235
-1.77248
-1.77274
-1.77314
-1.77356
-1.77383
-1.77387
-1.77382
-1.77385
-1.77413
-1.77482
-1.77618
-1.77812
-1.78067
-1.78313
-1.78501
-1.78581
-1.78558
-1.78459
-1.78345
-1.78272
-1.78202
-1.78117
-1.77984
-1.77824
-1.77667
-1.77571
-1.7744
-1.77456
-1.77515
-1.7763
-1.77719
-1.77748
-1.77583
-1.77732
-1.78593
-1.77246
-1.7725
-1.77259
-1.77277
-1.77307
-1.77354
-1.77409
-1.77454
-1.77465
-1.77451
-1.77447
-1.77473
-1.77535
-1.77652
-1.77823
-1.78047
-1.78277
-1.78392
-1.78417
-1.78384
-1.78308
-1.78223
-1.78155
-1.7811
-1.78068
-1.78042
-1.77991
-1.77929
-1.77911
-1.7781
-1.77736
-1.77456
-1.77183
-1.77222
-1.76735
-1.77581
-1.78524
-1.79826
-1.77256
-1.77261
-1.77272
-1.77287
-1.77307
-1.77332
-1.77355
-1.77373
-1.77388
-1.77403
-1.77428
-1.77467
-1.77534
-1.77629
-1.77763
-1.77907
-1.78027
-1.78119
-1.78159
-1.78149
-1.78098
-1.78023
-1.7795
-1.77883
-1.77808
-1.7776
-1.77722
-1.77742
-1.77855
-1.7814
-1.7865
-1.79247
-1.79557
-1.79526
-1.77977
-1.78456
-1.7882
-1.80727
-1.77265
-1.77272
-1.77283
-1.77299
-1.77319
-1.77344
-1.77373
-1.77398
-1.77419
-1.77435
-1.77455
-1.77487
-1.77539
-1.77614
-1.77731
-1.77849
-1.77965
-1.78048
-1.78076
-1.78057
-1.78
-1.77922
-1.77841
-1.77774
-1.77704
-1.77679
-1.77681
-1.77757
-1.7787
-1.77967
-1.78005
-1.78081
-1.78153
-1.77831
-1.76689
-1.75979
-1.75017
-1.76439
-1.77271
-1.77279
-1.77291
-1.77305
-1.77322
-1.77341
-1.77361
-1.77379
-1.77398
-1.77417
-1.77446
-1.77475
-1.77525
-1.77598
-1.77739
-1.77838
-1.77899
-1.77954
-1.77955
-1.7792
-1.7786
-1.77779
-1.77684
-1.77607
-1.77511
-1.77474
-1.77455
-1.77636
-1.78062
-1.78946
-1.80246
-1.81964
-1.83737
-1.83932
-1.82356
-1.78054
-1.7637
-1.76645
-1.77276
-1.77284
-1.77296
-1.77309
-1.77326
-1.77343
-1.77362
-1.77381
-1.77401
-1.77422
-1.77446
-1.77469
-1.77495
-1.7755
-1.77696
-1.77761
-1.77856
-1.77943
-1.77947
-1.77913
-1.77827
-1.77715
-1.77605
-1.77487
-1.77348
-1.77251
-1.77171
-1.77211
-1.77431
-1.77763
-1.78189
-1.78861
-1.7997
-1.79439
-1.76242
-1.73399
-1.70694
-1.72371
-1.77279
-1.77287
-1.773
-1.77312
-1.77328
-1.77344
-1.77361
-1.77379
-1.77398
-1.77423
-1.77448
-1.77468
-1.77455
-1.77601
-1.77873
-1.77877
-1.77899
-1.77956
-1.77902
-1.77872
-1.77742
-1.77617
-1.77493
-1.77351
-1.77169
-1.77015
-1.7681
-1.76922
-1.77675
-1.78924
-1.80594
-1.85594
-1.96925
-2.01644
-1.94231
-1.81853
-1.75013
-1.72839
-1.7728
-1.77287
-1.77299
-1.77312
-1.77328
-1.77342
-1.77357
-1.77374
-1.77387
-1.77424
-1.7746
-1.77449
-1.77399
-1.77549
-1.77773
-1.77761
-1.77892
-1.77956
-1.77912
-1.77861
-1.77708
-1.77588
-1.77451
-1.77293
-1.77076
-1.76805
-1.76341
-1.75939
-1.76117
-1.76525
-1.76518
-1.7789
-1.81614
-1.80981
-1.73771
-1.69382
-1.67724
-1.64419
-1.88219
-1.88201
-1.88167
-1.88109
-1.88075
-1.88204
-1.88606
-1.89054
-1.89028
-1.88644
-1.88398
-1.88229
-1.88084
-1.87961
-1.88089
-1.89299
-1.90826
-1.91188
-1.91214
-1.90862
-1.89862
-1.89566
-1.89632
-1.89917
-1.90144
-1.89941
-1.89365
-1.88338
-1.87389
-1.86814
-1.86397
-1.86257
-1.86133
-1.86347
-1.8645
-1.87817
-1.85795
-1.84792
-1.88232
-1.88217
-1.88205
-1.88207
-1.88233
-1.8838
-1.88649
-1.88914
-1.88794
-1.88487
-1.88299
-1.88205
-1.88199
-1.88308
-1.88713
-1.90154
-1.91916
-1.91081
-1.90783
-1.90761
-1.89878
-1.89528
-1.89686
-1.90098
-1.90761
-1.90815
-1.90348
-1.89385
-1.88343
-1.87629
-1.87312
-1.86965
-1.86972
-1.86839
-1.87339
-1.87194
-1.89975
-1.85577
-1.8824
-1.88229
-1.88215
-1.88217
-1.88244
-1.88324
-1.8844
-1.88531
-1.88519
-1.88427
-1.8835
-1.88315
-1.88337
-1.88468
-1.88765
-1.8935
-1.90011
-1.90343
-1.90476
-1.90364
-1.89925
-1.89649
-1.8961
-1.89629
-1.89662
-1.89513
-1.8923
-1.88787
-1.88319
-1.87976
-1.87774
-1.87599
-1.87593
-1.87541
-1.87452
-1.86965
-1.86333
-1.85535
-1.8826
-1.88256
-1.88259
-1.88274
-1.88313
-1.88397
-1.88505
-1.88598
-1.88577
-1.88482
-1.88419
-1.8841
-1.88473
-1.88632
-1.88925
-1.89411
-1.90021
-1.90136
-1.90048
-1.89952
-1.89747
-1.89573
-1.8952
-1.89556
-1.89612
-1.8962
-1.8947
-1.89197
-1.88904
-1.88501
-1.88351
-1.88078
-1.87951
-1.8777
-1.87714
-1.88086
-1.88922
-1.89071
-1.88272
-1.88273
-1.88277
-1.88291
-1.88315
-1.8835
-1.88388
-1.88414
-1.8842
-1.88416
-1.88418
-1.88445
-1.88512
-1.88643
-1.88836
-1.8909
-1.89348
-1.8954
-1.89627
-1.89611
-1.89512
-1.89392
-1.89314
-1.8925
-1.89178
-1.89067
-1.88915
-1.88765
-1.88627
-1.88515
-1.8849
-1.88507
-1.88589
-1.88701
-1.88627
-1.88589
-1.88236
-1.89309
-1.88286
-1.8829
-1.88299
-1.88316
-1.88343
-1.88384
-1.88433
-1.88472
-1.88486
-1.88478
-1.88477
-1.88503
-1.88565
-1.88678
-1.88847
-1.89068
-1.893
-1.89428
-1.89452
-1.89421
-1.89346
-1.89258
-1.89187
-1.89141
-1.891
-1.89081
-1.89042
-1.88995
-1.88973
-1.88904
-1.8886
-1.88664
-1.88407
-1.88353
-1.8796
-1.88475
-1.8922
-1.90442
-1.88295
-1.88301
-1.88311
-1.88326
-1.88345
-1.88368
-1.8839
-1.88408
-1.88423
-1.88437
-1.88461
-1.885
-1.88565
-1.88659
-1.88792
-1.88935
-1.89056
-1.89143
-1.8919
-1.89183
-1.89134
-1.89061
-1.88988
-1.88924
-1.88855
-1.88812
-1.88775
-1.88793
-1.88877
-1.89098
-1.89503
-1.9006
-1.90465
-1.90554
-1.8966
-1.89734
-1.8974
-1.91079
-1.88303
-1.8831
-1.88322
-1.88337
-1.88356
-1.8838
-1.88406
-1.8843
-1.8845
-1.88466
-1.88486
-1.88518
-1.88568
-1.88643
-1.88759
-1.88876
-1.88993
-1.89082
-1.8911
-1.89088
-1.89031
-1.88953
-1.88873
-1.88807
-1.88741
-1.88719
-1.88723
-1.888
-1.88906
-1.89009
-1.89027
-1.89058
-1.89104
-1.88872
-1.87997
-1.87144
-1.86109
-1.87524
-1.88309
-1.88317
-1.88329
-1.88343
-1.8836
-1.88379
-1.88398
-1.88415
-1.88433
-1.88452
-1.88476
-1.88507
-1.88553
-1.88628
-1.88773
-1.88864
-1.88926
-1.8898
-1.8898
-1.88948
-1.88887
-1.88808
-1.88719
-1.88642
-1.88551
-1.88515
-1.885
-1.88665
-1.89035
-1.89767
-1.90828
-1.92342
-1.94198
-1.9488
-1.94244
-1.90808
-1.89302
-1.88649
-1.88313
-1.88321
-1.88334
-1.88347
-1.88363
-1.88381
-1.884
-1.88418
-1.88435
-1.88455
-1.88473
-1.88493
-1.88516
-1.88578
-1.88722
-1.88789
-1.88889
-1.88973
-1.88974
-1.88935
-1.88847
-1.88737
-1.88627
-1.88513
-1.88383
-1.88291
-1.88227
-1.88284
-1.88481
-1.88741
-1.8903
-1.89528
-1.90324
-1.90677
-1.88213
-1.85655
-1.83328
-1.84375
-1.88316
-1.88324
-1.88338
-1.8835
-1.88366
-1.88382
-1.884
-1.88417
-1.88432
-1.88453
-1.88468
-1.8849
-1.88461
-1.88653
-1.88919
-1.88884
-1.88932
-1.88991
-1.88932
-1.88898
-1.88764
-1.8864
-1.88518
-1.88377
-1.88203
-1.88052
-1.87873
-1.88008
-1.88693
-1.89592
-1.90625
-1.9425
-2.03995
-2.12173
-2.08393
-1.96157
-1.89358
-1.85541
-1.88317
-1.88324
-1.88338
-1.88349
-1.88366
-1.88381
-1.88396
-1.88412
-1.88424
-1.88445
-1.88451
-1.88423
-1.88399
-1.88552
-1.88795
-1.88808
-1.88937
-1.88994
-1.88938
-1.88881
-1.88725
-1.88608
-1.88474
-1.88321
-1.88117
-1.87863
-1.8745
-1.87147
-1.87387
-1.87655
-1.87355
-1.88034
-1.91633
-1.93786
-1.88949
-1.82225
-1.79792
-1.78679
-1.99268
-1.99257
-1.99233
-1.99198
-1.99181
-1.99281
-1.99538
-1.99841
-1.99827
-1.9959
-1.99383
-1.99207
-1.99051
-1.98934
-1.9913
-2.00372
-2.01918
-2.02271
-2.0227
-2.01971
-2.00989
-2.00651
-2.00659
-2.00834
-2.01118
-2.01089
-2.00694
-1.99762
-1.98762
-1.98097
-1.97643
-1.97448
-1.97313
-1.97425
-1.9743
-1.98438
-1.96481
-1.91381
-1.99281
-1.99267
-1.99259
-1.99265
-1.9929
-1.99402
-1.99581
-1.9976
-1.997
-1.99485
-1.9933
-1.99239
-1.99217
-1.99305
-1.99745
-2.01243
-2.029
-2.02114
-2.01843
-2.0186
-2.01018
-2.00601
-2.00669
-2.00907
-2.01567
-2.01866
-2.01652
-2.00806
-1.99713
-1.9895
-1.98553
-1.98207
-1.98149
-1.98043
-1.98323
-1.99246
-2.00648
-1.97557
-1.99286
-1.99278
-1.9927
-1.99273
-1.99297
-1.99363
-1.99453
-1.99523
-1.9952