/*--------------------------------*- C++ -*----------------------------------*\
| =========                 |                                                 |
| \\      /  F ield         | OpenFOAM: The Open Source CFD Toolbox           |
|  \\    /   O peration     | Version:  2.3.1                                 |
|   \\  /    A nd           | Web:      www.OpenFOAM.org                      |
|    \\/     M anipulation  |                                                 |
\*---------------------------------------------------------------------------*/
FoamFile
{
    version     2.0;
    format      ascii;
    class       surfaceScalarField;
    location    "20";
    object      phi;
}
// * * * * * * * * * * * * * * * * * * * * * * * * * * * * * * * * * * * * * //

dimensions      [0 3 -1 0 0 0 0];

internalField   nonuniform List<scalar> 
110130
(
-7.84367e-06
-8.91431e-07
2.7608e-06
-1.10053e-05
1.2334e-06
1.92823e-06
-1.68218e-05
4.26032e-06
1.55617e-06
-3.08566e-05
8.6763e-06
5.35852e-06
-5.50399e-05
1.51796e-05
9.00368e-06
-7.63152e-05
1.52047e-05
6.07067e-06
-8.08267e-05
3.10139e-06
1.4101e-06
-7.86436e-05
-6.21772e-06
4.03462e-06
-8.0073e-05
-3.91161e-06
5.34096e-06
-7.4776e-05
8.65245e-07
-6.16218e-06
-6.15132e-05
1.38201e-06
-1.46448e-05
-5.36469e-05
6.15649e-06
-1.40228e-05
-5.47155e-05
1.73863e-05
-1.63177e-05
-5.74416e-05
2.57314e-05
-2.30053e-05
-6.14169e-05
2.37407e-05
-1.97654e-05
-7.71982e-05
9.52628e-06
6.25496e-06
-8.72437e-05
1.53749e-06
8.50803e-06
-8.16127e-05
-5.12898e-06
-5.02004e-07
-8.26448e-05
-1.1978e-05
1.30101e-05
-8.72706e-05
-1.11038e-05
1.57296e-05
-9.22267e-05
-9.64977e-06
1.46058e-05
-0.000104377
-5.95237e-06
1.8103e-05
-0.000101917
-1.26822e-05
1.02219e-05
-8.95822e-05
-1.81201e-05
5.78531e-06
-7.48653e-05
-2.74469e-05
1.273e-05
-6.49798e-05
-2.42935e-05
1.44081e-05
-5.72302e-05
-2.52731e-05
1.75234e-05
-4.81285e-05
-2.72842e-05
1.81825e-05
-3.57973e-05
-1.61963e-05
3.8651e-06
-3.3329e-05
-3.24675e-05
2.99991e-05
-1.26228e-05
-1.01322e-05
-1.05739e-05
-8.78755e-06
-2.37917e-05
1.99564e-05
1.03921e-05
-5.06008e-06
-1.41196e-05
6.10242e-05
-3.19538e-05
-1.86783e-05
-1.49632e-05
3.60818e-05
3.99056e-05
0.000158362
2.7039e-05
-0.000200364
0.000201752
-0.000257534
0.000214144
0.000533142
-0.000657834
-2.01939e-06
-7.26989e-07
5.4066e-07
-3.51077e-06
9.52606e-07
1.77217e-06
-4.64553e-06
4.24325e-06
1.15183e-06
-5.37508e-06
6.8442e-06
2.56164e-06
-4.526e-06
1.09533e-05
3.37717e-06
-1.91864e-06
1.31668e-05
-5.69436e-07
-8.81693e-07
8.99042e-06
-6.92599e-06
-5.64597e-06
2.44752e-06
-3.90097e-06
-1.35809e-05
1.09745e-07
3.91361e-06
-2.1989e-05
3.11181e-07
8.9621e-06
-3.36925e-05
2.20235e-06
1.08832e-05
-4.45239e-05
6.78665e-06
1.02012e-05
-4.55246e-05
1.46768e-05
3.71019e-06
-3.4423e-05
2.16111e-05
-6.98129e-06
-1.50912e-05
2.7712e-05
-2.33031e-05
-1.37891e-06
2.3151e-05
-2.7337e-05
3.02496e-06
9.68318e-06
-1.25496e-05
7.30383e-06
-7.91096e-07
-8.61675e-06
1.2035e-05
-7.52764e-06
-9.18148e-06
1.98547e-05
-1.38436e-05
-5.07988e-06
2.57862e-05
-1.41349e-05
-1.44643e-06
3.28982e-05
-1.37218e-05
6.57532e-07
4.8324e-05
-1.8083e-05
-1.0025e-05
5.12701e-05
-1.65432e-05
-4.52302e-06
6.03553e-05
-2.49393e-05
-1.15928e-05
6.23327e-05
-2.23312e-05
-3.93967e-06
6.58685e-05
-3.11461e-05
2.33716e-06
7.40698e-05
-2.44798e-05
-1.10057e-05
7.58062e-05
-2.70324e-05
9.09962e-06
6.83227e-05
-3.63597e-05
1.13758e-05
7.85772e-05
5.77414e-06
-2.61609e-05
7.54988e-05
-2.38265e-05
3.11315e-06
3.50454e-05
3.75593e-05
-2.16595e-06
-6.33525e-05
-1.42983e-05
8.07424e-05
7.56265e-06
2.49018e-05
-5.97352e-05
4.84498e-05
-0.000115314
0.000101466
3.48349e-05
0.000109517
-0.000353436
6.92731e-05
0.000491125
8.62507e-07
1.73929e-06
-3.81576e-07
-1.35342e-06
2.27159e-06
8.96952e-07
-1.06691e-06
3.84834e-06
1.08395e-07
1.18578e-07
5.36468e-06
2.94031e-07
2.12344e-06
7.95227e-06
9.96176e-07
4.71336e-06
9.98712e-06
5.89745e-07
6.7467e-06
7.87548e-06
-9.18392e-07
7.43055e-06
2.39309e-06
-6.29417e-07
7.35995e-06
8.99086e-07
-7.18749e-07
6.15687e-06
1.76608e-06
-2.51816e-07
3.62748e-06
3.42214e-06
1.30959e-06
-2.42259e-06
6.76008e-06
6.07664e-06
-9.71251e-06
9.90723e-06
1.20595e-05
-1.34504e-05
1.38717e-05
1.14772e-05
-9.27419e-06
1.99518e-05
3.58398e-06
1.57124e-06
1.70061e-05
-4.70058e-06
9.53538e-06
7.09728e-06
-5.37823e-06
1.5451e-05
-7.69463e-07
-5.93724e-06
1.83572e-05
-3.91888e-06
-6.51496e-06
1.80689e-05
-1.06431e-05
-2.91222e-06
2.14888e-05
-1.155e-05
-6.00471e-06
1.88911e-05
-1.34065e-05
2.28236e-06
1.73181e-05
-1.02106e-05
-6.29933e-06
1.86547e-05
-1.84662e-05
5.86371e-07
1.32422e-05
-1.50689e-05
-4.45793e-06
1.02343e-05
-2.4746e-05
5.42271e-06
9.02669e-06
-2.8637e-05
-1.30143e-06
7.50848e-06
-1.39084e-05
-9.0532e-06
-4.04513e-06
-4.25814e-05
2.71026e-05
1.89238e-05
3.75988e-06
-6.30886e-05
2.07932e-05
-2.22978e-05
2.62026e-05
1.26591e-05
4.16507e-06
-1.98575e-05
2.36322e-05
-2.35008e-05
5.0087e-05
2.56443e-05
-1.06417e-05
-5.66865e-06
-2.58418e-05
6.90622e-05
7.32576e-06
-2.64062e-05
2.84253e-05
-0.000143175
-1.7336e-05
7.60436e-05
2.44033e-05
0.000298318
-8.85901e-05
4.39077e-06
2.88916e-06
-1.23843e-06
3.99027e-06
3.44094e-06
-7.68858e-07
3.98458e-06
4.17256e-06
-3.1854e-07
3.97492e-06
4.87073e-06
5.03612e-07
4.61716e-06
5.45685e-06
1.85318e-06
7.47827e-06
6.36509e-06
7.60929e-07
1.02427e-05
6.29593e-06
-1.18493e-06
1.04031e-05
4.27444e-06
-2.0417e-06
9.89081e-06
3.2559e-06
-1.84452e-06
1.00573e-05
3.77977e-06
-2.18015e-06
1.01897e-05
5.33693e-06
-2.0472e-06
1.09708e-05
6.98282e-06
-1.00385e-06
1.26227e-05
8.61161e-06
-3.56264e-07
1.27079e-05
1.05163e-05
3.27025e-06
1.4696e-05
1.35055e-05
4.45823e-06
2.2564e-05
1.06252e-05
-1.48708e-06
2.57567e-05
3.23302e-06
6.7155e-07
2.65821e-05
3.79884e-06
-5.3937e-06
2.54677e-05
-9.25414e-07
-1.8791e-06
2.82902e-05
-8.66614e-06
-4.79945e-06
3.31028e-05
-9.93958e-06
-6.42306e-06
3.49344e-05
-8.13248e-06
-7.10564e-06
3.43874e-05
-9.71033e-06
4.67027e-08
4.03863e-05
-1.20573e-05
-1.24078e-05
4.28762e-05
-1.262e-05
-4.93885e-06
4.82669e-05
-1.68027e-05
-1.33339e-05
5.38022e-05
-1.62372e-05
-1.79352e-05
4.57419e-05
-8.73817e-06
2.89013e-06
5.93496e-05
-2.59265e-05
-3.02625e-05
5.12361e-05
2.57356e-05
-1.38622e-05
4.26542e-05
-2.31762e-05
9.4602e-06
1.44141e-05
5.1664e-05
-1.92588e-05
3.50648e-06
-3.03911e-05
1.77979e-05
-4.9454e-05
5.78326e-05
-1.55138e-05
-0.000108276
8.72414e-05
4.06423e-05
-1.89168e-05
-1.89522e-05
-4.19813e-05
-5.44844e-05
0.000125497
-1.3886e-05
0.000409035
2.14838e-05
4.36708e-06
2.61357e-06
-5.01123e-07
5.3843e-06
3.01223e-06
-5.88505e-07
5.69764e-06
4.49885e-06
-6.39625e-07
6.46834e-06
4.38619e-06
-2.86157e-07
6.89959e-06
4.92693e-06
9.867e-08
6.85078e-06
5.65734e-06
7.56562e-07
7.82473e-06
5.08475e-06
2.37227e-07
8.16149e-06
3.53076e-06
4.06927e-07
8.57503e-06
1.84233e-06
1.00002e-06
9.58534e-06
1.91515e-06
8.54308e-07
9.75468e-06
4.36052e-06
8.0707e-07
1.26416e-05
3.99153e-06
1.04327e-07
1.50662e-05
4.42405e-06
1.76301e-06
1.88115e-05
7.17323e-06
-4.02238e-07
2.16328e-05
6.28719e-06
4.39702e-06
2.67412e-05
7.83994e-06
-2.32321e-06
3.05382e-05
-4.43298e-07
-1.20617e-07
2.84173e-05
5.72591e-06
1.93799e-07
3.14106e-05
-9.33901e-07
-2.98481e-06
3.15844e-05
-7.10342e-06
-1.73652e-06
3.19641e-05
-5.88801e-06
-4.43124e-06
2.95624e-05
-5.17308e-06
-5.57766e-07
3.05213e-05
-8.73557e-06
-1.93362e-06
2.93978e-05
-9.26828e-06
-1.66551e-06
2.75017e-05
-1.08414e-05
1.17594e-07
2.71237e-05
-1.18761e-05
-4.54868e-06
2.34643e-05
-1.73771e-05
4.79928e-06
1.98095e-05
-9.88753e-06
4.80419e-06
2.85155e-05
-2.55646e-05
-9.06787e-06
2.82911e-05
-2.12393e-06
2.8084e-05
2.85615e-05
-2.11969e-06
-2.1327e-05
4.06948e-05
1.45965e-05
2.49342e-05
2.42414e-05
5.63207e-06
-1.95697e-05
4.87811e-05
2.36819e-05
9.61105e-06
5.37919e-05
9.66258e-05
-1.43953e-05
2.23118e-05
5.77682e-05
-4.52402e-05
-4.55328e-05
0.000184343
8.99922e-06
0.000477048
4.30579e-05
4.89304e-06
1.75924e-06
2.68091e-07
4.9056e-06
2.24101e-06
7.58659e-07
5.90008e-06
3.92983e-06
-4.2546e-07
7.9964e-06
2.38038e-06
-9.0506e-08
8.784e-06
3.67413e-06
4.65199e-07
9.57036e-06
4.46575e-06
4.05238e-07
1.13504e-05
3.58063e-06
-2.75904e-07
1.26196e-05
2.64417e-06
-3.82625e-07
1.24464e-05
3.49897e-06
-1.48347e-06
1.30766e-05
3.41267e-08
1.25081e-06
1.2346e-05
4.50344e-06
5.87683e-07
1.5402e-05
2.46094e-06
-1.52535e-06
1.87427e-05
-7.68257e-07
1.85159e-06
1.84917e-05
6.34004e-06
1.08414e-06
2.40973e-05
-8.93059e-07
1.5747e-06
2.61354e-05
6.21809e-06
-4.16275e-07
2.69291e-05
-2.35125e-06
1.11423e-06
3.01106e-05
-8.04702e-08
2.62495e-06
2.92158e-05
-4.07396e-07
3.68226e-07
3.10005e-05
-5.01631e-06
-3.87174e-06
2.78428e-05
-1.45514e-06
-1.27524e-06
2.917e-05
-5.26174e-06
-1.23848e-06
3.25143e-05
-6.52075e-06
-5.55919e-06
3.42344e-05
-1.0208e-05
-7.80392e-07
3.36018e-05
-3.42606e-06
-6.7827e-06
3.63154e-05
-8.6729e-06
-5.91683e-06
3.74555e-05
-1.21071e-05
-6.41013e-06
3.68368e-05
-4.31781e-06
-4.95108e-06
4.16618e-05
-1.56895e-05
-1.47e-05
3.307e-05
-4.66475e-07
6.93431e-06
2.80216e-05
8.32991e-06
-5.40124e-06
3.30839e-05
-1.40829e-05
2.36171e-05
2.86005e-05
3.96535e-06
6.1501e-06
2.49412e-05
-1.82414e-05
4.55827e-05
-2.30969e-05
3.08873e-05
0.000113777
-6.28672e-05
0.0001907
-9.31617e-05
-6.82459e-05
0.000238668
-4.89469e-05
0.000525708
5.95351e-06
7.83115e-06
1.06447e-06
-1.24661e-07
7.13702e-06
1.50257e-06
1.43257e-06
8.15821e-06
2.70177e-06
2.06864e-07
9.40313e-06
1.3483e-06
-2.12845e-07
9.3333e-06
2.9256e-06
8.18357e-07
1.10022e-05
2.60216e-06
1.94731e-07
1.1849e-05
2.54763e-06
1.86116e-07
1.28456e-05
1.29305e-06
3.54544e-07
1.36685e-05
3.28282e-06
-6.06695e-07
1.56831e-05
-1.46366e-06
-5.16871e-07
1.60905e-05
4.01196e-06
8.4116e-08
1.87022e-05
-5.82643e-07
4.31844e-07
2.13963e-05
-1.12075e-06
-2.34162e-06
2.31884e-05
3.62414e-06
9.23843e-07
2.42922e-05
-1.9509e-06
-4.59397e-08
2.68512e-05
4.86843e-06
-1.20939e-06
3.24516e-05
-5.38637e-06
-2.56529e-06
3.40051e-05
-7.53419e-07
-8.80559e-07
3.23674e-05
-2.44562e-07
1.47494e-06
3.11319e-05
-1.55715e-06
-2.22372e-06
3.33497e-05
-6.46799e-07
-3.02616e-06
3.26763e-05
-4.64993e-06
6.1607e-08
3.14239e-05
-5.73471e-06
4.66347e-07
3.36093e-05
-4.6295e-06
-7.76383e-06
2.73467e-05
-4.50634e-06
7.34293e-06
2.66217e-05
-5.68073e-06
-2.26718e-06
3.24495e-05
-8.60012e-06
-9.33479e-06
3.3124e-05
-1.1251e-05
6.25864e-06
2.59322e-05
-1.23576e-05
3.8599e-06
3.88899e-05
-6.58839e-06
-6.8357e-06
4.55653e-05
1.14797e-05
-9.82517e-06
4.53214e-05
1.18478e-05
-2.56869e-05
4.3481e-05
3.15453e-05
-2.57395e-05
5.06076e-05
6.94065e-05
-9.47746e-05
1.66051e-05
5.1874e-05
1.3016e-05
-7.32358e-05
0.000200144
8.0397e-05
-0.000100266
0.000269564
-3.86576e-06
0.000501723
3.44789e-05
8.8758e-06
1.03627e-06
-3.56207e-07
9.38829e-06
8.4846e-07
1.41622e-07
1.01363e-05
1.65237e-06
3.01426e-07
1.05035e-05
1.38316e-06
-4.02058e-07
1.10627e-05
1.79309e-06
5.73257e-07
1.29436e-05
1.01228e-06
-2.90975e-07
1.36947e-05
1.69634e-06
1.00146e-07
1.36654e-05
1.12877e-06
1.93632e-07
1.58417e-05
1.51195e-06
-4.05473e-07
1.60555e-05
-8.3041e-07
-8.47045e-07
1.71751e-05
2.58712e-06
3.05231e-07
1.89792e-05
-1.72432e-06
-6.62464e-07
1.92653e-05
-1.54664e-07
-1.25218e-06
2.38547e-05
-2.14007e-06
1.17489e-06
2.24246e-05
-1.04626e-06
5.2546e-07
2.86799e-05
-2.85982e-06
1.4729e-06
3.17258e-05
-4.68841e-06
-3.74389e-06
2.94767e-05
1.10657e-06
3.89122e-07
3.2241e-05
-9.85927e-07
-2.02287e-06
2.89076e-05
6.02704e-08
1.71593e-06
3.3293e-05
4.64538e-07
-5.49668e-06
3.43625e-05
-4.10652e-06
-1.6129e-06
3.13734e-05
-2.18733e-06
-5.58297e-07
3.27042e-05
-8.32845e-07
-5.12746e-06
3.09362e-05
-1.44009e-06
-1.29824e-06
2.86587e-05
-1.91289e-06
-1.49038e-06
3.28678e-05
-6.12067e-06
-6.68858e-06
3.25535e-05
-1.17207e-05
7.84128e-07
1.86653e-05
-6.5554e-07
2.18614e-06
7.57083e-06
-1.65897e-06
6.16503e-06
-3.63305e-06
2.27936e-06
2.04042e-05
-2.07094e-05
3.81741e-05
-9.24996e-06
-3.25962e-05
4.29846e-05
4.47452e-07
-1.38202e-05
8.987e-05
-3.92395e-05
-2.10381e-05
0.000176987
-0.000117895
-4.31144e-05
0.000223339
-1.1185e-06
-0.000107426
0.000342329
-8.45289e-06
0.000478503
5.33869e-05
8.87145e-06
1.07663e-06
-1.42676e-07
9.99364e-06
1.77817e-07
-4.51541e-07
1.07045e-05
1.19338e-06
-2.51884e-07
1.04658e-05
1.60127e-06
2.06139e-08
1.2068e-05
3.73384e-07
-1.82539e-07
1.30174e-05
7.75117e-07
-7.12147e-07
1.33021e-05
1.23678e-06
1.74777e-07
1.39773e-05
7.67094e-07
-3.13474e-07
1.48547e-05
8.81857e-08
5.46396e-07
1.69158e-05
-1.57508e-06
-1.31647e-06
1.72373e-05
2.12494e-06
1.4071e-07
1.70178e-05
-1.72747e-06
2.22662e-07
1.71782e-05
-1.09732e-07
-2.05337e-07
2.03186e-05
-9.66509e-06
4.38461e-06
2.56726e-05
-7.46461e-06
1.06435e-06
2.61999e-05
-6.38842e-06
3.00122e-06
2.55311e-05
-4.1453e-06
1.2574e-07
2.72823e-05
-9.25761e-07
2.81166e-07
2.92638e-05
-1.32625e-06
-1.64122e-06
2.87377e-05
2.33812e-07
3.52518e-07
3.01504e-05
7.1159e-07
-1.65967e-06
3.12164e-05
-1.96276e-06
-3.20983e-06
2.75607e-05
1.72735e-06
-2.5895e-07
2.77156e-05
-1.10363e-08
-9.76746e-07
2.90922e-05
-6.13173e-07
-2.20345e-06
3.07188e-05
-2.73995e-07
-3.26551e-06
2.72169e-05
-6.55099e-06
3.9322e-06
3.37712e-05
-9.96727e-06
-8.3078e-06
3.43197e-05
-6.67136e-06
5.4674e-06
4.21579e-05
-6.23744e-06
-3.25981e-06
4.64408e-05
6.22396e-06
-8.2274e-06
4.69856e-05
3.29337e-05
4.69561e-06
5.18778e-05
5.34931e-05
-1.54007e-05
5.79373e-06
0.000107196
2.87578e-05
-8.79984e-05
0.000233633
3.71466e-05
-0.000161005
0.00028715
9.19523e-06
-0.000194037
0.000326076
4.92855e-05
0.000347589
4.88405e-05
8.9965e-06
9.49122e-07
3.71815e-08
1.00756e-05
-8.96327e-08
-8.1164e-07
1.09331e-05
9.00326e-07
-5.64448e-07
1.08206e-05
1.41253e-06
3.01219e-07
1.19528e-05
3.67075e-08
-7.95544e-07
1.3011e-05
2.58829e-07
-5.41829e-07
1.31765e-05
1.04677e-06
2.44997e-08
1.41351e-05
4.99491e-08
-2.41465e-07
1.44548e-05
-1.03306e-06
8.01523e-07
1.63027e-05
-3.67612e-06
2.53184e-07
1.70777e-05
5.24432e-07
8.25503e-07
1.60543e-05
-1.73348e-06
1.02934e-06
1.2412e-05
-1.58601e-07
3.69121e-06
1.1692e-05
-1.57218e-05
6.77676e-06
1.75414e-05
-1.29128e-05
-4.01257e-07
1.77943e-05
-6.86217e-06
2.20832e-07
2.08473e-05
-6.30595e-06
-8.9226e-07
2.72302e-05
-9.82098e-07
-6.32657e-06
2.73525e-05
-3.39087e-07
-1.10954e-06
2.71871e-05
2.17e-06
-1.77076e-06
2.85534e-05
1.14073e-06
-1.79543e-06
2.67365e-05
5.03361e-07
-6.49238e-07
2.83677e-05
4.56363e-06
-4.46744e-06
2.84538e-05
1.23191e-06
-1.32905e-06
2.52946e-05
-2.75496e-07
2.82149e-06
3.01155e-05
1.21544e-06
-6.3103e-06
3.04013e-05
-2.43977e-06
-4.397e-06
1.94425e-05
-3.28197e-06
4.2735e-06
1.01815e-05
-4.11563e-06
6.70524e-06
-1.78738e-06
-6.3965e-06
1.21279e-05
-3.14145e-05
1.97763e-05
1.60748e-05
-4.76751e-05
4.58526e-05
3.34171e-06
-5.11953e-05
8.15177e-05
-2.45044e-05
-7.07636e-05
0.000184218
-5.74533e-05
-0.000102138
0.000317309
-5.23022e-05
-0.000153381
0.000364404
-2.60113e-05
-0.000151971
0.000326724
-2.05758e-06
0.000268135
1.10106e-05
8.83786e-06
3.61662e-07
6.84743e-07
1.01786e-05
2.47752e-07
-1.67813e-06
1.09339e-05
2.24952e-07
-7.98687e-08
1.07193e-05
7.63256e-07
8.63812e-07
1.21148e-05
1.98924e-08
-1.37869e-06
1.29747e-05
9.31163e-08
-6.94167e-07
1.25427e-05
-1.78898e-07
1.65765e-06
1.43031e-05
-3.03311e-07
-1.4071e-06
1.51951e-05
-3.86082e-06
1.93568e-06
1.45182e-05
-2.89183e-06
-1.0738e-07
1.32602e-05
4.6496e-06
-2.86714e-06
4.98988e-06
2.75816e-06
3.77869e-06
4.40964e-06
-3.82799e-06
4.24963e-06
1.18666e-05
-1.60013e-05
-7.17756e-06
1.47004e-05
-8.16357e-06
-7.583e-06
1.32937e-05
-3.58271e-06
-1.87281e-06
1.47894e-05
-2.08938e-06
-5.7122e-06
1.57951e-05
1.18069e-06
-3.16857e-06
1.60041e-05
8.2607e-07
-1.37409e-06
1.73955e-05
2.73596e-06
-1.95736e-06
1.62975e-05
1.65605e-06
5.8268e-07
1.65851e-05
1.81766e-06
-1.6019e-06
1.97636e-05
2.95157e-06
-1.56648e-06
2.09231e-05
1.5885e-06
-1.5161e-06
2.01705e-05
1.30543e-06
-8.28253e-07
2.38473e-05
1.30421e-06
-3.76556e-06
2.53741e-05
3.31604e-08
-3.99982e-06
3.22861e-05
-5.89394e-06
-4.30003e-06
3.8984e-05
-1.44965e-05
3.68297e-06
4.06303e-05
-1.78663e-05
9.82342e-06
4.34132e-05
-4.85714e-06
2.18505e-05
4.24391e-05
1.6223e-05
3.06036e-05
5.55578e-06
7.04623e-05
4.79387e-05
-9.36104e-05
0.000181954
0.00010143
-0.000178683
0.000314341
8.80413e-05
-0.000168463
0.000320225
3.3959e-05
-0.000106188
0.000243529
2.09199e-05
0.000207914
2.95556e-05
7.46037e-06
1.31413e-06
1.11524e-05
-3.44429e-06
1.01462e-05
1.23114e-06
9.44235e-06
1.46714e-06
1.26879e-05
-3.22563e-06
1.23361e-05
4.44907e-07
1.01826e-05
1.97458e-06
9.92959e-06
-5.02941e-08
-3.98537e-06
1.00541e-05
-1.90531e-05
1.21759e-05
-9.27173e-06
-5.1318e-06
-1.00423e-06
-5.50934e-06
4.80894e-06
-9.64115e-06
4.46219e-06
-1.56545e-05
-6.5477e-06
2.84633e-06
-8.7238e-06
-1.40662e-06
-1.05888e-05
-2.24433e-07
-1.36586e-05
4.25051e-06
-9.08137e-06
-3.75113e-06
-7.04176e-06
6.96352e-07
-6.76753e-06
1.38182e-06
-3.42068e-06
-1.5292e-06
-2.18355e-06
1.71445e-06
1.31057e-07
-7.26115e-07
1.37128e-06
6.5213e-08
1.60191e-06
1.07358e-06
-1.04657e-06
2.68164e-06
-9.23801e-06
2.2975e-06
-3.88784e-05
1.5144e-05
-8.44875e-05
2.77428e-05
-0.000132114
4.27693e-05
-0.000191428
7.55367e-05
-0.00023953
0.000118564
-0.000260621
0.000203046
-0.000216237
0.000269956
-0.000113988
0.000217976
-4.60261e-05
0.000175567
0.000174102
-4.70575e-06
-7.21386e-07
3.84608e-06
-6.04165e-06
7.64633e-08
3.18767e-06
-9.06562e-06
2.76486e-06
1.81528e-06
-1.74094e-05
6.23249e-06
7.46978e-06
-3.65268e-05
1.28093e-05
1.53119e-05
-5.95791e-05
1.72182e-05
1.19047e-05
-6.7455e-05
7.73147e-06
1.55457e-06
-5.88476e-05
-7.04167e-06
2.46882e-06
-4.91495e-05
-1.11176e-05
6.76047e-06
-4.36981e-05
-8.68928e-06
-2.92432e-06
-3.87952e-05
-6.40237e-06
-1.31454e-05
-3.48318e-05
-2.45463e-06
-1.55316e-05
-3.43708e-05
5.06543e-06
-2.18442e-05
-4.11904e-05
1.61841e-05
-3.23697e-05
-5.65036e-05
2.67365e-05
-3.11887e-05
-7.25728e-05
1.61282e-05
6.19601e-06
-8.16117e-05
-6.02947e-07
1.81499e-05
-8.17381e-05
-3.69628e-06
3.32064e-06
-8.05433e-05
-9.71267e-06
2.15279e-05
-8.33927e-05
-1.1549e-05
3.01281e-05
-8.72057e-05
-9.01054e-06
2.74293e-05
-9.67157e-05
-6.03331e-06
3.36463e-05
-9.96053e-05
-8.10405e-06
2.12155e-05
-9.20071e-05
-1.46073e-05
1.27944e-05
-7.97241e-05
-2.2017e-05
2.24639e-05
-6.87487e-05
-2.43512e-05
2.77838e-05
-6.14094e-05
-2.25335e-05
3.27177e-05
-4.90815e-05
-2.12808e-05
2.71354e-05
-3.92201e-05
-2.59257e-05
1.99294e-05
-2.85406e-05
-1.16613e-05
3.0981e-05
-1.18242e-05
-2.02468e-05
-7.04362e-06
2.85622e-06
-7.61975e-06
1.28958e-05
1.95244e-05
-2.85369e-05
-2.25078e-06
3.40814e-06
1.40502e-05
-1.66123e-05
0.000126753
1.67669e-05
-0.000100206
0.000201572
-0.000132014
-0.00014317
0.000311116
-5.80465e-05
0.000162646
-0.000196918
-0.000530898
4.18239e-09
-6.22525e-08
-1.40852e-07
-5.52837e-07
6.04503e-07
1.80115e-06
-9.0883e-07
2.74198e-06
1.53071e-06
-4.54946e-07
5.0926e-06
3.24765e-06
1.02103e-06
8.48124e-06
6.22922e-06
2.5911e-06
1.14518e-05
3.62687e-06
1.78718e-06
8.82932e-06
-7.21992e-06
-2.18506e-06
2.11091e-06
-9.08131e-06
-6.65229e-06
-1.89557e-07
-2.54721e-06
-9.0759e-06
1.38033e-08
2.68264e-06
-1.23678e-05
8.11677e-07
6.96108e-06
-1.72489e-05
2.08814e-06
1.05395e-05
-2.01009e-05
5.01756e-06
6.61003e-06
-1.551e-05
9.38845e-06
-4.77649e-06
-4.12547e-06
1.74806e-05
-2.54318e-05
3.75503e-06
1.67656e-05
-3.5855e-05
4.0877e-06
6.1755e-06
-1.96607e-05
4.78333e-06
-3.09606e-06
-9.91261e-06
7.9873e-06
-9.65712e-06
-1.2441e-05
1.22086e-05
-1.55222e-05
-5.32804e-06
1.70079e-05
-1.59403e-05
6.84022e-07
2.46089e-05
-1.4143e-05
1.16626e-06
3.26046e-05
-1.78305e-05
-8.29433e-06
3.68196e-05
-1.59674e-05
-7.37782e-06
4.06244e-05
-2.2013e-05
-1.54016e-05
4.31423e-05
-2.54812e-05
-5.32755e-06
4.65408e-05
-2.19027e-05
-1.69215e-06
4.63632e-05
-1.91211e-05
-1.29878e-05
5.77431e-05
-3.80518e-05
9.84584e-06
5.7902e-05
-4.64801e-06
4.20365e-06
6.34406e-05
-2.59092e-05
-2.6037e-05
6.42984e-05
6.4049e-06
-1.17692e-05
7.11069e-05
-1.79496e-05
-1.95618e-05
7.77915e-05
4.31883e-05
4.49197e-05
0.000126536
-1.83849e-05
-7.33282e-05
0.000106133
-9.08441e-06
-1.06033e-06
0.000230999
-0.000184325
-0.000352024
0.000174774
-2.7826e-05
4.36078e-06
1.15004e-06
-1.25434e-06
3.48813e-06
1.66846e-06
7.05646e-07
3.3146e-06
2.75047e-06
2.73438e-07
4.09453e-06
4.10042e-06
5.06276e-07
5.86229e-06
5.98704e-06
1.72261e-06
8.11937e-06
7.59311e-06
2.19135e-06
9.55836e-06
5.98372e-06
4.88219e-07
9.96971e-06
7.34583e-07
3.35559e-07
9.94797e-06
-1.244e-06
3.57438e-07
9.46202e-06
-5.25905e-07
7.73842e-07
8.64066e-06
9.34713e-07
2.00792e-06
6.94586e-06
3.05066e-06
6.80892e-06
5.20096e-06
5.21394e-06
1.3608e-05
4.01278e-06
6.61448e-06
1.54394e-05
5.75452e-06
1.03525e-05
8.97027e-06
1.24644e-05
9.90108e-06
-4.54587e-06
1.97257e-05
1.5753e-06
-8.03936e-06
2.48544e-05
-4.96894e-06
-9.19307e-06
2.77636e-05
-8.30253e-06
-1.07788e-05
2.88564e-05
-1.27852e-05
-6.74192e-06
2.95369e-05
-1.45975e-05
-8.02803e-06
3.29867e-05
-1.32261e-05
-2.0843e-06
3.24486e-05
-1.65603e-05
-7.03145e-06
3.29242e-05
-1.1084e-05
-4.77269e-06
3.43409e-05
-2.26928e-05
-5.19484e-06
2.7765e-05
-1.91114e-05
5.62883e-06
3.43134e-05
-1.85063e-05
-1.12463e-05
3.2145e-05
-2.88688e-05
2.86291e-06
3.85947e-05
-2.43814e-05
6.98252e-06
5.03596e-05
-2.86897e-05
-5.08117e-05
5.22993e-05
-2.38255e-05
2.21791e-05
5.60552e-05
-1.64411e-05
-7.6737e-07
6.79522e-05
-2.34168e-05
4.36571e-05
9.92397e-05
-7.2324e-06
1.34645e-05
8.03618e-05
2.53442e-06
5.28443e-06
7.33379e-05
-6.42398e-05
-8.09958e-05
0.000148318
-4.73061e-05
-0.000187596
-2.03996e-05
0.000158705
6.58612e-06
1.22561e-06
-1.5871e-06
6.72094e-06
1.59963e-06
-8.34842e-07
7.00286e-06
2.53471e-06
-3.8471e-07
7.7542e-06
3.55544e-06
2.97244e-07
9.42065e-06
4.30569e-06
1.86808e-06
1.23462e-05
4.59882e-06
8.2968e-07
1.45473e-05
3.93352e-06
-1.33589e-06
1.41869e-05
2.42481e-06
-3.37144e-06
1.32809e-05
1.11942e-06
-3.30199e-06
1.29679e-05
9.02534e-07
-3.29562e-06
1.34126e-05
1.85855e-06
-3.4157e-06
1.48516e-05
3.04625e-06
-2.43839e-06
1.6745e-05
4.76051e-06
-1.79623e-06
1.98445e-05
5.35163e-06
1.43351e-06
2.35719e-05
7.23607e-06
3.84739e-06
2.94202e-05
4.3948e-06
-1.82916e-06
3.37936e-05
4.7818e-07
-2.60469e-06
3.36571e-05
-3.87717e-06
-6.349e-06
3.51317e-05
-5.27427e-06
-6.38193e-06
3.49012e-05
-9.4437e-06
-7.91055e-06
3.58097e-05
-1.23122e-05
-9.61686e-06
3.59957e-05
-1.08978e-05
-9.61978e-06
3.92148e-05
-1.41463e-05
-5.58647e-06
4.19383e-05
-9.09134e-06
-1.71239e-05
3.94356e-05
-1.95375e-05
-5.59146e-06
4.47264e-05
-1.27604e-05
-2.49757e-05
3.72521e-05
-1.37619e-05
-1.52054e-05
4.17643e-05
-2.88431e-05
-1.64781e-06
3.80075e-05
-3.51695e-06
-4.73701e-05
2.64018e-05
-2.8456e-05
-2.4902e-06
2.98107e-05
-1.3932e-05
-3.84222e-06
1.90152e-05
-1.50814e-05
-9.82289e-06
3.28e-05
-2.07941e-05
1.39039e-06
2.76413e-05
-1.14423e-05
-6.1452e-06
-9.29318e-06
1.23188e-05
6.77923e-05
5.09521e-05
-6.29946e-05
-0.000103472
9.98054e-05
-4.73091e-05
-6.27362e-05
0.000130904
5.68429e-06
7.03296e-06
9.49478e-07
-8.29826e-07
7.73127e-06
9.49036e-07
-6.3622e-07
8.13116e-06
2.18264e-06
-6.87451e-07
9.1123e-06
2.73941e-06
-4.5126e-07
1.02045e-05
3.2651e-06
4.70855e-08
1.11149e-05
3.77036e-06
6.74631e-07
1.19395e-05
3.13748e-06
2.08662e-07
1.26012e-05
1.99565e-06
1.7438e-07
1.29938e-05
9.71724e-07
7.55067e-07
1.38267e-05
3.80602e-07
5.43361e-07
1.46956e-05
1.09805e-06
6.98734e-07
1.62903e-05
1.92182e-06
-3.65989e-07
1.91046e-05
2.61975e-06
1.0895e-06
2.21757e-05
2.73585e-06
-8.57553e-07
2.64911e-05
4.29862e-06
3.01907e-06
2.99731e-05
2.06908e-06
-3.47952e-06
3.27073e-05
-1.34235e-07
-2.24244e-06
3.39014e-05
-2.35776e-06
-2.51964e-06
3.44783e-05
-4.20663e-06
-4.62934e-06
3.51991e-05
-7.02561e-06
-4.87545e-06
3.35126e-05
-8.86416e-06
-6.19281e-06
3.29899e-05
-7.5595e-06
-3.3734e-06
3.33895e-05
-1.13471e-05
-5.13242e-06
3.26374e-05
-8.53557e-06
-1.46915e-06
3.24437e-05
-1.43474e-05
-4.87879e-06
3.16845e-05
-1.33644e-05
-3.1855e-06
3.12977e-05
-1.37688e-05
5.19297e-06
2.97905e-05
-1.55402e-05
-6.99147e-06
4.00684e-05
-2.0407e-05
-2.45571e-06
4.09831e-05
-1.42205e-05
1.29337e-05
4.33033e-05
-1.4336e-05
-2.32432e-05
5.28819e-05
-6.84157e-06
7.1157e-06
5.03289e-05
-8.34999e-06
-2.94608e-05
6.86492e-05
-5.73445e-06
-1.44171e-05
6.74169e-05
4.86813e-05
-4.95254e-05
6.81789e-05
1.0819e-05
-0.000119816
3.0138e-05
2.5945e-05
-2.6214e-05
0.000204995
4.67043e-05
8.12453e-06
8.67902e-07
-2.30559e-07
8.49354e-06
8.99778e-07
4.38901e-07
8.92058e-06
1.77101e-06
-4.40858e-07
1.01824e-05
1.73438e-06
-3.4731e-07
1.14341e-05
2.14284e-06
3.35809e-07
1.29129e-05
2.67599e-06
2.0765e-08
1.41936e-05
2.24375e-06
-6.62852e-07
1.53763e-05
1.55082e-06
-1.12049e-06
1.49944e-05
1.96287e-06
-2.09277e-06
1.62093e-05
9.8532e-07
-5.68757e-07
1.67307e-05
1.62465e-06
-4.60414e-07
1.76115e-05
2.01162e-06
-2.49593e-06
2.10865e-05
1.28881e-06
-2.92492e-07
2.27131e-05
2.60511e-06
-4.11645e-07
2.6721e-05
1.52341e-06
3.41997e-07
2.90905e-05
1.7538e-06
-2.47049e-06
3.05117e-05
5.49855e-07
-9.91113e-07
3.30576e-05
-1.77868e-06
-4.9998e-07
3.45829e-05
-3.30446e-06
-2.05928e-06
3.41483e-05
-4.97382e-06
-5.48886e-06
3.33952e-05
-4.51147e-06
-4.87482e-06
3.39563e-05
-4.73159e-06
-4.6275e-06
3.43341e-05
-9.58552e-06
-7.69867e-06
3.64172e-05
-5.36609e-06
-6.03288e-06
3.60433e-05
-1.23982e-05
-8.35812e-06
3.74065e-05
-9.79774e-06
-1.08467e-05
3.80086e-05
-8.9038e-06
-1.18772e-05
3.89262e-05
-1.25804e-05
-8.82842e-06
3.63051e-05
-1.69687e-05
-1.55172e-05
3.73538e-05
-5.95952e-06
-2.37538e-06
3.29894e-05
-7.05202e-06
-8.32078e-06
3.8654e-05
-1.37298e-06
1.24839e-05
3.62972e-05
-1.6977e-06
1.85464e-06
5.06931e-05
2.35224e-05
1.9299e-06
7.15024e-05
2.74349e-05
0.000114214
2.48625e-05
6.09475e-06
-4.17976e-05
-3.18157e-05
9.80417e-05
-6.43655e-05
0.000208272
1.8979e-05
9.02977e-06
7.92038e-07
-5.72243e-07
9.52941e-06
1.07857e-06
7.54128e-07
1.02218e-05
1.39299e-06
-1.07559e-07
1.09835e-05
1.30354e-06
-5.43615e-07
1.16186e-05
1.87828e-06
4.47788e-07
1.28212e-05
1.85983e-06
-1.91718e-07
1.37173e-05
1.72279e-06
-1.89035e-07
1.47172e-05
1.02187e-06
-1.1636e-07
1.53808e-05
1.53825e-06
-8.45728e-07
1.67595e-05
3.8888e-08
-9.49104e-07
1.76873e-05
1.39915e-06
-6.18221e-07
1.97859e-05
6.44858e-07
-2.9996e-07
2.14728e-05
6.23141e-08
-2.80202e-06
2.4151e-05
1.18305e-06
-3.32311e-07
2.65272e-05
1.19803e-07
-1.01849e-06
2.85504e-05
8.66668e-07
-2.34553e-06
3.14503e-05
-1.16236e-06
-3.7529e-06
3.26524e-05
-1.15192e-06
-2.70943e-06
3.35448e-05
-1.36795e-06
-1.35396e-06
3.27049e-05
-2.32632e-06
-4.03138e-06
3.27476e-05
-2.5147e-06
-5.06562e-06
3.33323e-05
-3.20179e-06
-2.05286e-06
3.35104e-05
-5.34843e-06
-3.94885e-06
3.22153e-05
-5.5213e-06
-6.31353e-06
3.22683e-05
-5.4121e-06
3.03827e-07
3.2827e-05
-8.47542e-06
-4.14813e-06
3.16883e-05
-8.37616e-06
-8.7238e-06
3.51807e-05
-1.01774e-05
3.63309e-07
3.6843e-05
-1.51293e-05
3.58189e-07
4.05222e-05
-7.86527e-06
-8.60918e-06
4.08703e-05
-5.14917e-06
-1.20761e-05
4.44815e-05
5.19218e-07
-3.11903e-05
3.63651e-05
3.35234e-06
-2.26731e-05
1.37244e-05
1.47891e-05
-6.34005e-05
3.9841e-05
-1.52845e-06
1.58626e-05
7.77952e-06
6.22006e-05
5.63527e-05
-5.8603e-05
0.000135905
2.46538e-05
0.000177316
4.17364e-05
9.47942e-06
8.08569e-07
-7.73286e-07
1.01674e-05
8.95829e-07
-3.63597e-07
1.09218e-05
1.21535e-06
-2.75329e-07
1.14397e-05
1.16755e-06
-7.83977e-07
1.23608e-05
1.53922e-06
-8.82006e-09
1.35355e-05
1.10854e-06
-7.14382e-07
1.45066e-05
1.40441e-06
-5.52546e-07
1.51771e-05
1.01329e-06
-4.68293e-07
1.62523e-05
1.07163e-06
-1.01404e-06
1.7021e-05
-9.17326e-08
-1.48519e-06
1.81878e-05
1.25919e-06
-7.21571e-07
1.93653e-05
3.60267e-07
-1.55541e-06
2.06305e-05
-4.11059e-07
-2.04394e-06
2.37381e-05
-6.54593e-07
-9.50717e-08
2.53313e-05
1.56511e-07
-1.10449e-06
2.92364e-05
-1.38484e-06
-1.80681e-07
3.13507e-05
-2.63271e-06
-4.38779e-06
3.14516e-05
5.95515e-07
-1.45929e-06
3.26753e-05
-1.0251e-06
-3.58941e-06
3.31313e-05
2.04052e-08
-1.08671e-06
3.3206e-05
-1.32466e-06
-6.76149e-06
3.37589e-05
-1.59136e-06
-3.77626e-06
3.36614e-05
-1.74921e-06
-4.05993e-06
3.31996e-05
-3.91541e-06
-6.27162e-06
3.29139e-05
-1.51212e-06
-4.91251e-06
3.37182e-05
-5.40216e-06
-5.36789e-06
3.29461e-05
-6.22897e-06
-8.06368e-06
3.62334e-05
-6.57798e-06
-6.10267e-06
3.19922e-05
-1.0959e-05
2.25704e-06
2.91089e-05
4.47761e-07
7.35261e-07
3.09131e-05
-2.57318e-06
1.60241e-05
3.41579e-05
2.54571e-06
-1.45213e-05
3.98816e-05
2.40669e-06
-4.33064e-06
5.13097e-05
-7.18838e-06
-2.869e-05
2.11886e-05
-3.96689e-06
-8.53356e-05
-2.58169e-05
0.000147535
-3.94477e-05
-7.66598e-05
0.000194666
-1.63719e-05
0.000149951
3.17021e-05
9.57985e-06
8.8535e-07
-6.21851e-07
1.03909e-05
4.54662e-07
-8.21453e-07
1.10987e-05
9.05862e-07
-6.50179e-07
1.15777e-05
1.21923e-06
-5.10072e-07
1.25934e-05
9.29148e-07
-5.88185e-07
1.33782e-05
6.04571e-07
-9.92913e-07
1.41665e-05
1.21105e-06
-4.20186e-07
1.48592e-05
6.44291e-07
-6.37152e-07
1.58815e-05
6.4178e-07
-4.61152e-08
1.71713e-05
-1.29741e-06
-1.40053e-06
1.80823e-05
1.32223e-06
-8.33369e-07
1.9053e-05
-3.10483e-07
-7.73063e-08
2.03063e-05
-6.5994e-08
-1.80368e-06
2.31839e-05
-1.87796e-06
2.73038e-06
2.74172e-05
-2.55253e-06
-4.59891e-07
2.95267e-05
-1.4988e-06
1.0057e-06
2.97188e-05
-1.61228e-06
-1.08687e-06
3.10049e-05
8.35477e-07
-1.24486e-06
3.14251e-05
-6.34935e-07
-2.45161e-06
3.23893e-05
6.00082e-07
-1.19132e-06
3.22001e-05
6.14568e-07
-3.40974e-06
3.20316e-05
-1.74686e-07
-4.45799e-06
3.14435e-05
7.9454e-07
-2.21458e-06
3.15731e-05
-6.98701e-07
-4.32305e-06
3.12438e-05
-1.81461e-06
-1.57166e-06
3.19662e-05
-1.91134e-06
-7.47877e-06
3.33232e-05
-5.58432e-06
1.93053e-06
3.65035e-05
-7.73325e-06
-1.03328e-05
4.11578e-05
-1.24651e-05
2.31922e-06
4.62584e-05
-6.63839e-06
-1.27425e-06
5.30807e-05
-4.6195e-06
-1.30034e-05
5.51561e-05
9.37088e-06
-4.20499e-06
5.30154e-05
1.39235e-05
-2.47768e-05
4.48287e-05
2.38566e-05
5.89958e-06
-1.3418e-05
7.17986e-05
1.96277e-05
-8.1885e-05
0.000199016
2.61815e-05
-9.72123e-05
0.000218599
4.06798e-05
0.000144086
-8.07606e-07
9.70139e-06
1.00316e-06
-4.93569e-07
1.05029e-05
7.48881e-08
-1.23334e-06
1.12238e-05
5.29556e-07
-9.09032e-07
1.17198e-05
1.35105e-06
-3.26659e-07
1.25189e-05
4.21338e-07
-1.08677e-06
1.34411e-05
1.25605e-07
-9.85085e-07
1.40548e-05
1.10435e-06
-4.82516e-07
1.47176e-05
3.48516e-07
-6.08458e-07
1.5572e-05
1.63934e-08
5.7245e-07
1.75097e-05
-2.82964e-06
-1.52311e-07
1.81189e-05
2.78032e-06