/*--------------------------------*- C++ -*----------------------------------*\
| =========                 |                                                 |
| \\      /  F ield         | OpenFOAM: The Open Source CFD Toolbox           |
|  \\    /   O peration     | Version:  2.3.1                                 |
|   \\  /    A nd           | Web:      www.OpenFOAM.org                      |
|    \\/     M anipulation  |                                                 |
\*---------------------------------------------------------------------------*/
FoamFile
{
    version     2.0;
    format      ascii;
    class       surfaceScalarField;
    location    "20";
    object      phi_0;
}
// * * * * * * * * * * * * * * * * * * * * * * * * * * * * * * * * * * * * * //

dimensions      [0 3 -1 0 0 0 0];

internalField   nonuniform List<scalar> 
110130
(
-7.81989e-06
-8.97672e-07
2.75513e-06
-1.09552e-05
1.22001e-06
1.91534e-06
-1.67025e-05
4.22725e-06
1.51997e-06
-3.05952e-05
8.60033e-06
5.29241e-06
-5.46788e-05
1.51041e-05
8.97948e-06
-7.61367e-05
1.53036e-05
6.15428e-06
-8.09092e-05
3.30612e-06
1.46639e-06
-7.87139e-05
-6.18957e-06
3.99429e-06
-8.01439e-05
-3.99671e-06
5.42673e-06
-7.50079e-05
8.64543e-07
-6.00056e-06
-6.17654e-05
1.39533e-06
-1.46379e-05
-5.37637e-05
6.07436e-06
-1.40761e-05
-5.47438e-05
1.72745e-05
-1.62944e-05
-5.7469e-05
2.56892e-05
-2.29639e-05
-6.13735e-05
2.3832e-05
-1.99276e-05
-7.71145e-05
9.6622e-06
6.07878e-06
-8.7351e-05
1.59968e-06
8.6368e-06
-8.17799e-05
-5.04275e-06
-5.28332e-07
-8.26723e-05
-1.19639e-05
1.28563e-05
-8.72577e-05
-1.11626e-05
1.57479e-05
-9.21839e-05
-9.69784e-06
1.46241e-05
-0.00010456
-5.92417e-06
1.83004e-05
-0.000102564
-1.24825e-05
1.0486e-05
-9.04028e-05
-1.79505e-05
5.78983e-06
-7.55733e-05
-2.74821e-05
1.26525e-05
-6.5572e-05
-2.43887e-05
1.43874e-05
-5.77857e-05
-2.54068e-05
1.76204e-05
-4.86421e-05
-2.7404e-05
1.82604e-05
-3.63089e-05
-1.62929e-05
3.95964e-06
-3.3708e-05
-3.27387e-05
3.01379e-05
-1.29552e-05
-1.02145e-05
-1.05382e-05
-9.15054e-06
-2.38764e-05
2.00717e-05
1.02829e-05
-5.04858e-06
-1.43849e-05
6.03609e-05
-3.20369e-05
-1.8041e-05
-1.60196e-05
3.70761e-05
3.93044e-05
0.000157141
2.56548e-05
-0.000198816
0.000192546
-0.000251503
0.000216098
0.000549179
-0.000671105
-2.00898e-06
-7.3332e-07
5.35826e-07
-3.49471e-06
9.40491e-07
1.76525e-06
-4.62542e-06
4.22043e-06
1.13753e-06
-5.36319e-06
6.80181e-06
2.53629e-06
-4.53889e-06
1.09024e-05
3.37743e-06
-1.92388e-06
1.31789e-05
-4.90343e-07
-8.3626e-07
9.08285e-06
-6.86434e-06
-5.54584e-06
2.5037e-06
-3.98369e-06
-1.34881e-05
1.23483e-07
3.82204e-06
-2.18738e-05
3.13482e-07
8.93681e-06
-3.35524e-05
2.1792e-06
1.08947e-05
-4.44563e-05
6.73901e-06
1.02393e-05
-4.55862e-05
1.46002e-05
3.80416e-06
-3.45952e-05
2.15331e-05
-6.83489e-06
-1.52941e-05
2.76895e-05
-2.31585e-05
-1.45447e-06
2.32332e-05
-2.74106e-05
3.02846e-06
9.78384e-06
-1.26671e-05
7.29328e-06
-7.04495e-07
-8.60308e-06
1.20341e-05
-7.48766e-06
-9.21703e-06
1.98465e-05
-1.38481e-05
-5.1269e-06
2.57147e-05
-1.41488e-05
-1.41725e-06
3.28043e-05
-1.36921e-05
6.78291e-07
4.82708e-05
-1.79949e-05
-9.95411e-06
5.12799e-05
-1.64296e-05
-4.52993e-06
6.04416e-05
-2.49242e-05
-1.17196e-05
6.2405e-05
-2.23445e-05
-4.00754e-06
6.60518e-05
-3.12316e-05
2.17802e-06
7.43283e-05
-2.45627e-05
-1.11178e-05
7.5939e-05
-2.70989e-05
9.19527e-06
6.8519e-05
-3.65813e-05
1.12626e-05
7.89918e-05
5.80784e-06
-2.64952e-05
7.54633e-05
-2.38358e-05
3.48784e-06
3.55869e-05
3.74338e-05
-2.6059e-06
-6.32676e-05
-1.46449e-05
8.14624e-05
8.68737e-06
2.60821e-05
-6.0961e-05
5.26199e-05
-0.000115082
9.68038e-05
3.97784e-05
0.000109905
-0.000348567
6.3077e-05
0.00051286
8.67722e-07
1.73395e-06
-3.83709e-07
-1.34647e-06
2.26216e-06
8.9252e-07
-1.0597e-06
3.83234e-06
1.01319e-07
1.17578e-07
5.34049e-06
2.84046e-07
2.10712e-06
7.92562e-06
9.87257e-07
4.6992e-06
9.99299e-06
5.93863e-07
6.75021e-06
7.94167e-06
-9.09837e-07
7.44211e-06
2.4402e-06
-6.28411e-07
7.37998e-06
9.01081e-07
-7.15467e-07
6.19146e-06
1.75389e-06
-2.51888e-07
3.68231e-06
3.4028e-06
1.28556e-06
-2.33184e-06
6.72827e-06
6.02489e-06
-9.61687e-06
9.86607e-06
1.20192e-05
-1.34136e-05
1.38317e-05
1.14981e-05
-9.31871e-06
1.99234e-05
3.67123e-06
1.51359e-06
1.70408e-05
-4.63991e-06
9.49772e-06
7.17778e-06
-5.37807e-06
1.54499e-05
-7.08974e-07
-5.94769e-06
1.83746e-05
-3.87632e-06
-6.53606e-06
1.80889e-05
-1.06312e-05
-2.93127e-06
2.14785e-05
-1.15522e-05
-5.98613e-06
1.8869e-05
-1.33888e-05
2.30617e-06
1.73593e-05
-1.01602e-05
-6.32497e-06
1.8723e-05
-1.83957e-05
6.02356e-07
1.33368e-05
-1.50217e-05
-4.51624e-06
1.03191e-05
-2.48001e-05
5.47335e-06
9.10078e-06
-2.86863e-05
-1.32698e-06
7.57265e-06
-1.40116e-05
-9.02302e-06
-4.08085e-06
-4.26651e-05
2.72197e-05
1.8932e-05
3.65904e-06
-6.32531e-05
2.07297e-05
-2.24602e-05
2.64704e-05
1.25165e-05
4.2644e-06
-1.98871e-05
2.32846e-05
-2.38695e-05
5.05352e-05
2.53722e-05
-1.10336e-05
-5.69888e-06
-2.54729e-05
6.94685e-05
7.45868e-06
-2.55309e-05
2.94396e-05
-0.000144463
-1.84772e-05
7.6047e-05
2.68043e-05
0.000300962
-9.52318e-05
4.39376e-06
2.88485e-06
-1.24007e-06
3.99311e-06
3.43467e-06
-7.71856e-07
3.9832e-06
4.1643e-06
-3.22046e-07
3.96233e-06
4.8595e-06
5.01851e-07
4.58733e-06
5.44659e-06
1.85403e-06
7.44601e-06
6.3673e-06
7.67011e-07
1.0242e-05
6.3168e-06
-1.17106e-06
1.04275e-05
4.2945e-06
-2.03982e-06
9.91525e-06
3.26283e-06
-1.84953e-06
1.00739e-05
3.77911e-06
-2.18385e-06
1.01984e-05
5.3285e-06
-2.05027e-06
1.09811e-05
6.96201e-06
-1.01638e-06
1.26351e-05
8.58826e-06
-3.76211e-07
1.27205e-05
1.05035e-05
3.24272e-06
1.46974e-05
1.35027e-05
4.44389e-06
2.25649e-05
1.06383e-05
-1.46502e-06
2.57731e-05
3.28586e-06
6.83646e-07
2.65893e-05
3.86759e-06
-5.39276e-06
2.5487e-05
-9.07594e-07
-1.8664e-06
2.83304e-05
-8.65562e-06
-4.81893e-06
3.31224e-05
-9.90748e-06
-6.43672e-06
3.4903e-05
-8.10538e-06
-7.06403e-06
3.43726e-05
-9.67396e-06
4.4118e-08
4.04208e-05
-1.20363e-05
-1.24077e-05
4.29379e-05
-1.2596e-05
-4.94276e-06
4.83217e-05
-1.6839e-05
-1.33449e-05
5.3802e-05
-1.62602e-05
-1.79064e-05
4.57787e-05
-8.80678e-06
2.81845e-06
5.95347e-05
-2.59973e-05
-3.04237e-05
5.13715e-05
2.55909e-05
-1.37686e-05
4.27928e-05
-2.32817e-05
9.40021e-06
1.46373e-05
5.16126e-05
-1.91927e-05
3.85048e-06
-3.07087e-05
1.7626e-05
-4.86806e-05
5.74348e-05
-1.59373e-05
-0.000108205
8.70006e-05
4.19923e-05
-1.90457e-05
-1.69622e-05
-4.27575e-05
-5.39121e-05
0.000126051
-1.51377e-05
0.000408925
2.55657e-05
4.3685e-06
2.60981e-06
-5.01778e-07
5.38474e-06
3.00802e-06
-5.89588e-07
5.69664e-06
4.49324e-06
-6.40837e-07
6.4656e-06
4.37787e-06
-2.87324e-07
6.89255e-06
4.92214e-06
9.74919e-08
6.84349e-06
5.6593e-06
7.57061e-07
7.82325e-06
5.09732e-06
2.39721e-07
8.16228e-06
3.54557e-06
4.09897e-07
8.57763e-06
1.84561e-06
1.00187e-06
9.58771e-06
1.9152e-06
8.53837e-07
9.7562e-06
4.35499e-06
8.05024e-07
1.26409e-05
3.97443e-06
1.0292e-07
1.50571e-05
4.41502e-06
1.75701e-06
1.87961e-05
7.16683e-06
-4.02348e-07
2.16283e-05
6.2827e-06
4.38781e-06
2.67431e-05
7.85122e-06
-2.32764e-06
3.05238e-05
-3.93281e-07
-1.01585e-07
2.84134e-05
5.79732e-06
1.80708e-07
3.14313e-05
-9.32775e-07
-2.99281e-06
3.16019e-05
-7.08325e-06
-1.74293e-06
3.19757e-05
-5.84639e-06
-4.43493e-06
2.95739e-05
-5.15239e-06
-5.51182e-07
3.05462e-05
-8.71423e-06
-1.93201e-06
2.94264e-05
-9.23266e-06
-1.68383e-06
2.7543e-05
-1.08138e-05
1.01187e-07
2.71622e-05
-1.18851e-05
-4.57308e-06
2.34832e-05
-1.73757e-05
4.79447e-06
1.98465e-05
-9.9191e-06
4.74899e-06
2.8498e-05
-2.56349e-05
-9.01397e-06
2.82313e-05
-2.27731e-06
2.8135e-05
2.85725e-05
-2.26165e-06
-2.13613e-05
4.06911e-05
1.42998e-05
2.51941e-05
2.43161e-05
5.34947e-06
-1.96832e-05
4.97209e-05
2.32768e-05
8.75324e-06
5.43181e-05
9.67677e-05
-1.43643e-05
2.16596e-05
6.03403e-05
-4.46439e-05
-4.38629e-05
0.000185359
6.2146e-06
0.000475917
4.31586e-05
4.89386e-06
1.75621e-06
2.67875e-07
4.90468e-06
2.23904e-06
7.58156e-07
5.89948e-06
3.92514e-06
-4.26696e-07
7.99266e-06
2.37494e-06
-9.02596e-08
8.77465e-06
3.674e-06
4.66155e-07
9.562e-06
4.4663e-06
4.05659e-07
1.135e-05
3.58302e-06
-2.73666e-07
1.26263e-05
2.65032e-06
-3.81052e-07
1.2454e-05
3.49749e-06
-1.4796e-06
1.30808e-05
3.48677e-08
1.25352e-06
1.23502e-05
4.50541e-06
5.802e-07
1.54061e-05
2.44198e-06
-1.52348e-06
1.87307e-05
-7.63502e-07
1.85397e-06
1.84753e-05
6.33894e-06
1.08322e-06
2.40806e-05
-8.86327e-07
1.56371e-06
2.61092e-05
6.23811e-06
-4.15422e-07
2.69256e-05
-2.34231e-06
1.1326e-06
3.0121e-05
-2.84598e-08
2.6304e-06
2.92277e-05
-3.82637e-07
3.43174e-07
3.10101e-05
-4.98601e-06
-3.87969e-06
2.7845e-05
-1.42255e-06
-1.2587e-06
2.9193e-05
-5.25103e-06
-1.24933e-06
3.25427e-05
-6.50811e-06
-5.55586e-06
3.42416e-05
-1.01627e-05
-7.68903e-07
3.36272e-05
-3.38617e-06
-6.81314e-06
3.63488e-05
-8.69509e-06
-5.91163e-06
3.74506e-05
-1.20996e-05
-6.37791e-06
3.68623e-05
-4.34373e-06
-4.9871e-06
4.16824e-05
-1.57753e-05
-1.46796e-05
3.30521e-05
-4.8356e-07
6.83662e-06
2.80796e-05
8.08137e-06
-5.37059e-06
3.31614e-05
-1.4301e-05
2.3519e-05
2.86535e-05
3.87922e-06
5.97816e-06
2.45162e-05
-1.82332e-05
4.56472e-05
-2.52594e-05
3.20268e-05
0.000114516
-6.61921e-05
0.000192936
-9.1663e-05
-7.01617e-05
0.000238682
-4.93538e-05
0.000518746
6.35279e-06
7.83167e-06
1.06219e-06
-1.24549e-07
7.13705e-06
1.50138e-06
1.43228e-06
8.15933e-06
2.69797e-06
2.0489e-07
9.40115e-06
1.3454e-06
-2.12265e-07
9.33147e-06
2.9249e-06
8.18777e-07
1.1003e-05
2.60095e-06
1.93868e-07
1.185e-05
2.54862e-06
1.87398e-07
1.28467e-05
1.29955e-06
3.54064e-07
1.36708e-05
3.28057e-06
-6.07269e-07
1.56841e-05
-1.46334e-06
-5.14995e-07
1.60923e-05
4.01095e-06
8.62692e-08
1.87054e-05
-5.97901e-07
4.26762e-07
2.13931e-05
-1.10924e-06
-2.34198e-06
2.31738e-05
3.62688e-06
9.31379e-07
2.42757e-05
-1.93928e-06
-4.89536e-08
2.686e-05
4.86915e-06
-1.21539e-06
3.24662e-05
-5.38772e-06
-2.56075e-06
3.40005e-05
-7.02405e-07
-8.60381e-07
3.23584e-05
-2.17607e-07
1.47708e-06
3.11473e-05
-1.53073e-06
-2.24422e-06
3.33673e-05
-6.31199e-07
-3.01136e-06
3.268e-05
-4.64685e-06
8.31438e-08
3.14438e-05
-5.70583e-06
4.33931e-07
3.36128e-05
-4.59491e-06
-7.7368e-06
2.73311e-05
-4.47921e-06
7.37472e-06
2.66562e-05
-5.66587e-06
-2.35432e-06
3.24736e-05
-8.60442e-06
-9.31258e-06
3.30505e-05
-1.12448e-05
6.32415e-06
2.58491e-05
-1.23727e-05
3.79873e-06
3.88206e-05
-6.6516e-06
-6.80347e-06
4.54116e-05
1.13023e-05
-9.81194e-06
4.50985e-05
1.15015e-05
-2.54893e-05
4.38769e-05
3.10017e-05
-2.59009e-05
5.12441e-05
6.9609e-05
-9.52094e-05
1.67676e-05
5.48428e-05
1.16605e-05
-7.42295e-05
0.00020115
8.27826e-05
-0.000104888
0.000271007
-1.66615e-06
0.000488826
4.08703e-05
8.87604e-06
1.03474e-06
-3.56608e-07
9.38898e-06
8.46974e-07
1.41463e-07
1.01358e-05
1.65085e-06
3.00298e-07
1.05012e-05
1.38184e-06
-4.01819e-07
1.10621e-05
1.79089e-06
5.73089e-07
1.29428e-05
1.01215e-06
-2.91869e-07
1.36912e-05
1.69813e-06
1.02004e-07
1.36671e-05
1.13022e-06
1.93504e-07
1.58449e-05
1.50929e-06
-4.06507e-07
1.6055e-05
-8.28931e-07
-8.4454e-07
1.71772e-05
2.58195e-06
3.06754e-07
1.89771e-05
-1.73151e-06
-6.66291e-07
1.92674e-05
-1.51301e-07
-1.2482e-06
2.3846e-05
-2.127e-06
1.17529e-06
2.24233e-05
-1.04209e-06
5.25534e-07
2.86988e-05
-2.86464e-06
1.45824e-06
3.1718e-05
-4.66066e-06
-3.74627e-06
2.94758e-05
1.1366e-06
4.03235e-07
3.22441e-05
-9.70051e-07
-2.01588e-06
2.89244e-05
8.30382e-08
1.70596e-06
3.33362e-05
4.69781e-07
-5.51276e-06
3.43709e-05
-4.09923e-06
-1.58238e-06
3.13798e-05
-2.1469e-06
-5.67823e-07
3.27178e-05
-7.96474e-07
-5.13643e-06
3.09243e-05
-1.41266e-06
-1.27306e-06
2.86663e-05
-1.89786e-06
-1.50997e-06
3.28913e-05
-6.13247e-06
-6.69696e-06
3.25015e-05
-1.16887e-05
8.33761e-07
1.8582e-05
-6.39882e-07
2.18669e-06
7.49209e-06
-1.76534e-06
6.20363e-06
-3.68495e-06
2.11852e-06
2.03608e-05
-2.07083e-05
3.78118e-05
-9.28693e-06
-3.27089e-05
4.23629e-05
6.39366e-07
-1.50406e-05
9.06457e-05
-3.87049e-05
-2.3191e-05
0.000181014
-0.000118021
-4.61606e-05
0.000226315
-2.19476e-06
-0.000112886
0.000343949
-6.21644e-06
0.000463741
5.38644e-05
8.87178e-06
1.07524e-06
-1.43057e-07
9.99455e-06
1.76487e-07
-4.52287e-07
1.07029e-05
1.19414e-06
-2.51604e-07
1.04649e-05
1.59901e-06
2.07867e-08
1.20692e-05
3.70874e-07
-1.84297e-07
1.30162e-05
7.76956e-07
-7.11783e-07
1.33005e-05
1.23813e-06
1.75683e-07
1.39771e-05
7.66316e-07
-3.12669e-07
1.4856e-05
8.6193e-08
5.44181e-07
1.69185e-05
-1.57474e-06
-1.3167e-06
1.72344e-05
2.11937e-06
1.4674e-07
1.70107e-05
-1.72919e-06
2.21335e-07
1.7183e-05
-1.24306e-07
-1.99287e-07
2.03367e-05
-9.65634e-06
4.37563e-06
2.56812e-05
-7.44965e-06
1.06306e-06
2.61934e-05
-6.37709e-06
3.00026e-06
2.55346e-05
-4.12153e-06
1.19718e-07
2.72992e-05
-9.10914e-07
2.82871e-07
2.92794e-05
-1.31034e-06
-1.6399e-06
2.87538e-05
2.54887e-07
3.5376e-07
3.01802e-05
7.19019e-07
-1.67569e-06
3.12283e-05
-1.94483e-06
-3.20247e-06
2.75629e-05
1.76266e-06
-2.44176e-07
2.77373e-05
1.5208e-08
-9.86077e-07
2.91188e-05
-5.77343e-07
-2.21683e-06
3.07105e-05
-2.52578e-07
-3.23695e-06
2.71903e-05
-6.52239e-06
3.91014e-06
3.36862e-05
-9.89424e-06
-8.29038e-06
3.41074e-05
-6.58913e-06
5.52803e-06
4.18551e-05
-6.30228e-06
-3.2108e-06
4.60014e-05
6.00146e-06
-8.0292e-06
4.67946e-05
3.21677e-05
4.85094e-06
5.19993e-05
5.21785e-05
-1.50204e-05
6.01923e-06
0.000107552
2.90738e-05
-8.81928e-05
0.00023856
3.66661e-05
-0.000163393
0.000294409
7.1063e-06
-0.000196446
0.000327938
4.90635e-05
0.000335733
4.17168e-05
8.99669e-06
9.47871e-07
3.6729e-08
1.00766e-05
-9.0404e-08
-8.12973e-07
1.09319e-05
9.01868e-07
-5.6308e-07
1.08195e-05
1.41045e-06
3.00978e-07
1.19535e-05
3.4475e-08
-7.97626e-07
1.301e-05
2.61175e-07
-5.40668e-07
1.31754e-05
1.04821e-06
2.4458e-08
1.41337e-05
4.87246e-08
-2.40624e-07
1.44528e-05
-1.03249e-06
7.99538e-07
1.6305e-05
-3.68097e-06
2.54048e-07
1.70785e-05
5.17445e-07
8.28406e-07
1.60445e-05
-1.72816e-06
1.03298e-06
1.23993e-05
-1.74305e-07
3.69516e-06
1.16947e-05
-1.57347e-05
6.78298e-06
1.75458e-05
-1.28946e-05
-4.06178e-07
1.77961e-05
-6.84951e-06
2.22117e-07
2.08711e-05
-6.2933e-06
-9.03239e-07
2.72525e-05
-9.63751e-07
-6.32847e-06
2.73576e-05
-3.23095e-07
-1.0924e-06
2.72045e-05
2.18242e-06
-1.77437e-06
2.85701e-05
1.1471e-06
-1.79373e-06
2.67547e-05
5.26199e-07
-6.55631e-07
2.83978e-05
4.58753e-06
-4.46799e-06
2.84686e-05
1.23792e-06
-1.29352e-06
2.53242e-05
-2.38905e-07
2.80597e-06
3.01593e-05
1.25184e-06
-6.33948e-06
3.03738e-05
-2.38924e-06
-4.34762e-06
1.93628e-05
-3.19149e-06
4.30821e-06
1.0086e-05
-4.02087e-06
6.70858e-06
-1.84974e-06
-6.38549e-06
1.20189e-05
-3.15023e-05
1.94883e-05
1.61658e-05
-4.78833e-05
4.4881e-05
3.66771e-06
-5.18314e-05
8.01398e-05
-2.40131e-05
-7.23814e-05
0.000183757
-5.56546e-05
-0.000104057
0.000322227
-5.19914e-05
-0.000152461
0.00037164
-2.88262e-05
-0.000148084
0.000329518
-5.95705e-06
0.000265687
4.69138e-06
8.83802e-06
3.61405e-07
6.82926e-07
1.01798e-05
2.47533e-07
-1.67969e-06
1.09324e-05
2.25288e-07
-7.60303e-08
1.07185e-05
7.62576e-07
8.61712e-07
1.21161e-05
1.92029e-08
-1.38229e-06
1.29727e-05
9.36114e-08
-6.89068e-07
1.25427e-05
-1.77218e-07
1.65548e-06
1.43001e-05
-3.01893e-07
-1.40685e-06
1.51892e-05
-3.85514e-06
1.93357e-06
1.45133e-05
-2.91566e-06
-8.94222e-08
1.32428e-05
4.6392e-06
-2.85124e-06
4.97118e-06
2.76927e-06
3.77422e-06
4.38349e-06
-3.8411e-06
4.25449e-06
1.18481e-05
-1.60222e-05
-7.17709e-06
1.46988e-05
-8.15649e-06
-7.5888e-06
1.32936e-05
-3.57139e-06
-1.87297e-06
1.47954e-05
-2.08129e-06
-5.71381e-06
1.57998e-05
1.19013e-06
-3.15829e-06
1.60154e-05
8.30532e-07
-1.36915e-06
1.741e-05
2.74294e-06
-1.95515e-06
1.63124e-05
1.66178e-06
5.82899e-07
1.66122e-05
1.82896e-06
-1.60252e-06
1.98e-05
2.96329e-06
-1.56357e-06
2.09537e-05
1.59607e-06
-1.51189e-06
2.02147e-05
1.32952e-06
-8.29405e-07
2.38944e-05
1.34246e-06
-3.77038e-06
2.54133e-05
8.62863e-08
-3.99444e-06
3.22229e-05
-5.74026e-06
-4.26076e-06
3.87486e-05
-1.42633e-05
3.71665e-06
4.01298e-05
-1.76531e-05
9.88644e-06
4.23376e-05
-4.71208e-06
2.19925e-05
4.14791e-05
1.5162e-05
3.05774e-05
5.53821e-06
6.82211e-05
4.78596e-05
-9.33312e-05
0.00018058
0.000102046
-0.000180648
0.000317406
9.21378e-05
-0.000169103
0.000325342
3.47532e-05
-0.000103691
0.000244991
1.91156e-05
0.000209748
2.71912e-05
7.46263e-06
1.30872e-06
1.11547e-05
-3.44458e-06
1.01416e-05
1.23843e-06
9.44368e-06
1.4605e-06
1.26909e-05
-3.22804e-06
1.23321e-05
4.52383e-07
1.01843e-05
1.97061e-06
9.93993e-06
-5.75009e-08
-3.96158e-06
1.00464e-05
-1.9077e-05
1.21998e-05
-9.3292e-06
-5.10865e-06
-1.01903e-06
-5.54091e-06
4.79059e-06
-9.65073e-06
4.43522e-06
-1.56668e-05
-6.56714e-06
2.84587e-06
-8.73963e-06
-1.3989e-06
-1.05947e-05
-2.26182e-07
-1.36673e-05
4.26275e-06
-9.08803e-06
-3.74878e-06
-7.03621e-06
6.91122e-07
-6.75726e-06
1.38283e-06
-3.4059e-06
-1.5224e-06
-2.16014e-06
1.71753e-06
1.6421e-07
-7.28288e-07
1.42283e-06
7.08933e-08
1.6787e-06
1.0866e-06
-9.35423e-07
2.7004e-06
-8.97873e-06
2.30304e-06
-3.82856e-05
1.50436e-05
-8.34562e-05
2.75175e-05
-0.000130332
4.21634e-05
-0.000189902
7.47324e-05
-0.000239837
0.000118156
-0.000262149
0.000202893
-0.000218514
0.000273771
-0.000115041
0.00022187
-4.61548e-05
0.000176104
0.000174952
-4.68764e-06
-7.2629e-07
3.83653e-06
-6.00669e-06
6.51735e-08
3.16922e-06
-8.99536e-06
2.74015e-06
1.76849e-06
-1.7252e-05
6.17411e-06
7.37491e-06
-3.62477e-05
1.27188e-05
1.52564e-05
-5.93743e-05
1.72443e-05
1.20365e-05
-6.75345e-05
7.93824e-06
1.68843e-06
-5.90458e-05
-6.92702e-06
2.4326e-06
-4.92852e-05
-1.11305e-05
6.79659e-06
-4.3809e-05
-8.71559e-06
-2.76117e-06
-3.8915e-05
-6.42518e-06
-1.31067e-05
-3.49408e-05
-2.50534e-06
-1.5545e-05
-3.44371e-05
4.9926e-06
-2.17907e-05
-4.11656e-05
1.60899e-05
-3.23253e-05
-5.64004e-05
2.67275e-05
-3.14202e-05
-7.251e-05
1.63336e-05
5.85471e-06
-8.16731e-05
-5.35895e-07
1.83358e-05
-8.18832e-05
-3.64378e-06
3.32558e-06
-8.06212e-05
-9.67121e-06
2.12655e-05
-8.34229e-05
-1.15939e-05
3.01435e-05
-8.72046e-05
-9.06532e-06
2.74712e-05
-9.6822e-05
-6.02696e-06
3.39447e-05
-0.000100064
-7.94274e-06
2.16711e-05
-9.27252e-05
-1.44152e-05
1.28659e-05
-8.04338e-05
-2.19804e-05
2.23415e-05
-6.93692e-05
-2.4412e-05
2.77349e-05
-6.19742e-05
-2.26354e-05
3.28608e-05
-4.96019e-05
-2.14158e-05
2.73039e-05
-3.97441e-05
-2.60275e-05
2.01293e-05
-2.89671e-05
-1.17753e-05
3.11363e-05
-1.21673e-05
-2.03419e-05
-6.99621e-06
2.61814e-06
-7.69456e-06
1.29809e-05
1.90725e-05
-2.85795e-05
-2.25974e-06
3.94713e-06
1.41805e-05
-1.70961e-05
0.000127704
1.48439e-05
-9.92959e-05
0.00019754
-0.000130023
-0.000138629
0.000311605
-5.43723e-05
0.000156406
-0.000213043
-0.000532068
1.31123e-08
-6.78862e-08
-1.48238e-07
-5.39715e-07
5.94542e-07
1.78871e-06
-8.94438e-07
2.72306e-06
1.50935e-06
-4.53362e-07
5.05804e-06
3.21128e-06
1.00607e-06
8.43389e-06
6.20289e-06
2.59624e-06
1.14474e-05
3.71638e-06
1.84701e-06
8.91469e-06
-7.09157e-06
-2.11109e-06
2.17462e-06
-9.12723e-06
-6.60947e-06
-1.84645e-07
-2.62541e-06
-9.04509e-06
8.93475e-09
2.64791e-06
-1.2325e-05
7.99032e-07
6.95037e-06
-1.72267e-05
2.07566e-06
1.056e-05
-2.01387e-05
4.9916e-06
6.71716e-06
-1.56385e-05
9.34203e-06
-4.5872e-06
-4.26483e-06
1.7439e-05
-2.52438e-05
3.70635e-06
1.68476e-05
-3.58957e-05
4.09585e-06
6.2692e-06
-1.98617e-05
4.7821e-06
-3.02817e-06
-9.90494e-06
7.98244e-06
-9.6069e-06
-1.24817e-05
1.21857e-05
-1.55226e-05
-5.40138e-06
1.69459e-05
-1.59583e-05
7.15598e-07
2.45192e-05
-1.41296e-05
1.20763e-06
3.25507e-05
-1.77522e-05
-8.17615e-06
3.68123e-05
-1.5857e-05
-7.34979e-06
4.06332e-05
-2.1972e-05
-1.5549e-05
4.31766e-05
-2.54966e-05
-5.46634e-06
4.65811e-05
-2.196e-05
-1.90194e-06
4.64407e-05
-1.92478e-05
-1.31454e-05
5.78239e-05
-3.81112e-05
9.89565e-06
5.79849e-05
-4.71637e-06
4.04263e-06
6.3593e-05
-2.60494e-05
-2.63958e-05
6.44983e-05
6.52452e-06
-1.16364e-05
7.17295e-05
-1.8222e-05
-2.01947e-05
7.94609e-05
4.33173e-05
4.45942e-05
0.000126913
-1.89054e-05
-7.46643e-05
0.000105062
-8.90827e-06
-2.45978e-06
0.000239402
-0.000184877
-0.000352402
0.000161903
-1.55233e-05
4.36745e-06
1.14481e-06
-1.25868e-06
3.49673e-06
1.6599e-06
6.97879e-07
3.32251e-06
2.73652e-06
2.62068e-07
4.09464e-06
4.07957e-06
4.90398e-07
5.84675e-06
5.96267e-06
1.70637e-06
8.10512e-06
7.59103e-06
2.1919e-06
9.56385e-06
6.03967e-06
5.06463e-07
9.98337e-06
7.87414e-07
3.39272e-07
9.96762e-06
-1.24034e-06
3.55978e-07
9.48928e-06
-5.3904e-07
7.74432e-07
8.6689e-06
9.17922e-07
1.98704e-06
6.97638e-06
3.02968e-06
6.76339e-06
5.23098e-06
5.19725e-06
1.35589e-05
4.02031e-06
6.60372e-06
1.54471e-05
5.71944e-06
1.03425e-05
9.06865e-06
1.24215e-05
9.95085e-06
-4.44529e-06
1.96934e-05
1.6512e-06
-8.03195e-06
2.48485e-05
-4.92023e-06
-9.21072e-06
2.7773e-05
-8.25679e-06
-1.08107e-05
2.88572e-05
-1.27719e-05
-6.76623e-06
2.95249e-05
-1.45962e-05
-8.01586e-06
3.29781e-05
-1.32245e-05
-2.05208e-06
3.24491e-05
-1.65019e-05
-7.04639e-06
3.29746e-05
-1.10207e-05
-4.75942e-06
3.43961e-05
-2.26734e-05
-5.2364e-06
2.78317e-05
-1.90833e-05
5.62441e-06
3.44014e-05
-1.8578e-05
-1.12786e-05
3.21984e-05
-2.89531e-05
2.88524e-06
3.86759e-05
-2.44714e-05
7.10246e-06
5.04998e-05
-2.88797e-05
-5.09136e-05
5.23832e-05
-2.39422e-05
2.24797e-05
5.6295e-05
-1.65426e-05
-7.31794e-07
6.82609e-05
-2.36116e-05
4.39589e-05
9.9575e-05
-7.15465e-06
1.3459e-05
8.00709e-05
2.12995e-06
5.92739e-06
7.65173e-05
-6.62483e-05
-8.35695e-05
0.000152586
-4.87645e-05
-0.000185377
-2.50891e-05
0.00014259
6.58943e-06
1.22118e-06
-1.5899e-06
6.72364e-06
1.59311e-06
-8.39268e-07
7.00211e-06
2.52652e-06
-3.90516e-07
7.74514e-06
3.5453e-06
2.93079e-07
9.39746e-06
4.2964e-06
1.86798e-06
1.23178e-05
4.59913e-06
8.3855e-07
1.45467e-05
3.95116e-06
-1.3114e-06
1.42107e-05
2.44356e-06
-3.36002e-06
1.33027e-05
1.12519e-06
-3.30704e-06
1.29816e-05
9.00404e-07
-3.30215e-06
1.34188e-05
1.85019e-06
-3.41975e-06
1.48494e-05
3.03123e-06
-2.44855e-06
1.67367e-05
4.74385e-06
-1.81015e-06
1.98266e-05
5.34479e-06
1.41178e-06
2.35388e-05
7.24349e-06
3.83069e-06
2.94106e-05
4.41928e-06
-1.80526e-06
3.38084e-05
5.19106e-07
-2.58209e-06
3.36645e-05
-3.82177e-06
-6.34726e-06
3.51536e-05
-5.23192e-06
-6.38042e-06
3.49212e-05
-9.43165e-06
-7.92676e-06
3.58169e-05
-1.22974e-05
-9.63125e-06
3.59957e-05
-1.08782e-05
-9.58916e-06
3.92296e-05
-1.41014e-05
-5.59026e-06
4.19629e-05
-9.05691e-06
-1.71048e-05
3.95009e-05
-1.95411e-05
-5.61302e-06
4.48049e-05
-1.2712e-05
-2.50201e-05
3.73141e-05
-1.3827e-05
-1.51666e-05
4.18501e-05
-2.89027e-05
-1.76786e-06
3.80055e-05
-3.56625e-06
-4.74843e-05
2.64107e-05
-2.86396e-05
-2.41386e-06
2.98392e-05
-1.39843e-05
-3.98613e-06
1.92022e-05
-1.53264e-05
-9.77201e-06
3.28649e-05
-2.08631e-05
1.21478e-06
2.78529e-05
-1.1594e-05
-6.48597e-06
-9.06757e-06
1.21932e-05
6.88495e-05
5.14187e-05
-6.47492e-05
-0.000104743
9.92846e-05
-4.71443e-05
-6.46238e-05
0.000127095
6.0489e-06
7.03487e-06
9.45744e-07
-8.31306e-07
7.73223e-06
9.44363e-07
-6.38202e-07
8.13074e-06
2.17734e-06
-6.90152e-07
9.11015e-06
2.73215e-06
-4.53576e-07
1.0199e-05
3.25977e-06
4.52445e-08
1.11091e-05
3.77131e-06
6.74788e-07
1.19392e-05
3.14908e-06
2.1176e-07
1.26038e-05
2.01097e-06
1.77846e-07
1.29976e-05
9.7594e-07
7.57303e-07
1.3831e-05
3.76875e-07
5.44016e-07
1.46977e-05
1.09136e-06
6.97153e-07
1.62877e-05
1.91268e-06
-3.68594e-07
1.9095e-05
2.60876e-06
1.08486e-06
2.21583e-05
2.73291e-06
-8.53828e-07
2.64759e-05
4.3001e-06
3.01366e-06
2.99592e-05
2.08827e-06
-3.4799e-06
3.27017e-05
-1.0031e-07
-2.22472e-06
3.39044e-05
-2.31885e-06
-2.52494e-06
3.44946e-05
-4.17561e-06
-4.63927e-06
3.52137e-05
-7.00679e-06
-4.88692e-06
3.35164e-05
-8.84072e-06
-6.19428e-06
3.30038e-05
-7.54211e-06
-3.37466e-06
3.34133e-05
-1.13223e-05
-5.12061e-06
3.26699e-05
-8.50468e-06
-1.49268e-06
3.24789e-05
-1.43433e-05
-4.90562e-06
3.17199e-05
-1.33348e-05
-3.19128e-06
3.13066e-05
-1.37736e-05
5.15441e-06
2.97929e-05
-1.56121e-05
-7.02793e-06
4.00579e-05
-2.04538e-05
-2.39143e-06
4.09175e-05
-1.42903e-05
1.2926e-05
4.32933e-05
-1.44727e-05
-2.32488e-05
5.29682e-05
-7.05712e-06
7.25004e-06
5.05398e-05
-8.54622e-06
-2.95716e-05
6.88112e-05
-5.8833e-06
-1.52289e-05
6.80354e-05
4.80049e-05
-4.94003e-05
6.87568e-05
1.07476e-05
-0.000120862
2.94821e-05
2.53679e-05
-2.70229e-05
0.000201188
4.56745e-05
8.12578e-06
8.65005e-07
-2.31434e-07
8.49335e-06
8.97013e-07
4.37937e-07
8.91945e-06
1.76746e-06
-4.42921e-07
1.0179e-05
1.73018e-06
-3.47799e-07
1.14269e-05
2.14126e-06
3.36746e-07
1.29048e-05
2.67676e-06
2.23102e-08
1.41917e-05
2.24661e-06
-6.5813e-07
1.53817e-05
1.55612e-06
-1.11614e-06
1.5002e-05
1.96494e-06
-2.08897e-06
1.62156e-05
9.8332e-07
-5.66463e-07
1.67301e-05
1.62275e-06
-4.65689e-07
1.76103e-05
2.00585e-06
-2.49692e-06
2.10802e-05
1.28494e-06
-2.92061e-07
2.26999e-05
2.60657e-06
-4.10172e-07
2.67021e-05
1.5302e-06
3.31414e-07
2.90692e-05
1.7753e-06
-2.4695e-06
3.05105e-05
5.68284e-07
-9.77339e-07
3.30755e-05
-1.75861e-06
-4.94811e-07
3.45974e-05
-3.28036e-06
-2.074e-06
3.41569e-05
-4.94616e-06
-5.49981e-06
3.34071e-05
-4.48204e-06
-4.86757e-06
3.39707e-05
-4.72265e-06
-4.63242e-06
3.43542e-05
-9.56319e-06
-7.69849e-06
3.64398e-05
-5.33988e-06
-6.01928e-06
3.60632e-05
-1.24012e-05
-8.3786e-06
3.74333e-05
-9.75871e-06
-1.08578e-05
3.80388e-05
-8.90951e-06
-1.18475e-05
3.8943e-05
-1.26423e-05
-8.86116e-06
3.63402e-05
-1.70117e-05
-1.55189e-05
3.73844e-05
-6.02349e-06
-2.47442e-06
3.30385e-05
-7.186e-06
-8.31135e-06
3.8679e-05
-1.5577e-06
1.2379e-05
3.61643e-05
-1.80785e-06
1.75452e-06
5.02796e-05
2.34731e-05
2.17554e-06
7.08197e-05
2.69414e-05
0.00011504
2.37619e-05
6.56574e-06
-4.04233e-05
-3.4334e-05
9.79164e-05
-6.38064e-05
0.00020138
1.9625e-05
9.03043e-06
7.89972e-07
-5.72663e-07
9.52963e-06
1.07663e-06
7.53468e-07
1.02217e-05
1.3902e-06
-1.09883e-07
1.0982e-05
1.30117e-06
-5.43617e-07
1.16171e-05
1.87705e-06
4.47883e-07
1.28207e-05
1.85963e-06
-1.92629e-07
1.3718e-05
1.72448e-06
-1.87775e-07
1.4718e-05
1.02654e-06
-1.16338e-07
1.5382e-05
1.53949e-06
-8.45793e-07
1.67604e-05
3.74046e-08
-9.47444e-07
1.76878e-05
1.39735e-06
-6.158e-07
1.97847e-05
6.39087e-07
-3.03381e-07
2.14682e-05
6.19026e-08
-2.80237e-06
2.41432e-05
1.18761e-06
-3.2473e-07
2.6517e-05
1.26378e-07
-1.01889e-06
2.85498e-05
8.7708e-07
-2.34998e-06
3.14542e-05
-1.1478e-06
-3.74906e-06
3.26569e-05
-1.12609e-06
-2.69559e-06
3.35506e-05
-1.34416e-06
-1.35277e-06
3.27115e-05
-2.30482e-06
-4.04648e-06
3.27625e-05
-2.49113e-06
-5.05328e-06
3.335e-05
-3.18691e-06
-2.04015e-06
3.35216e-05
-5.33321e-06
-3.96761e-06
3.22281e-05
-5.49045e-06
-6.29274e-06
3.2288e-05
-5.39615e-06
3.09757e-07
3.28346e-05
-8.46257e-06
-4.19706e-06
3.16876e-05
-8.35715e-06
-8.71798e-06
3.51603e-05
-1.01984e-05
4.07595e-07
3.67491e-05
-1.51319e-05
3.30192e-07
4.03957e-05
-7.92338e-06
-8.55013e-06
4.07847e-05
-5.36116e-06
-1.20258e-05
4.45339e-05
2.34705e-07
-3.10309e-05
3.66697e-05
2.95281e-06
-2.27973e-05
1.37605e-05
1.46626e-05
-6.34898e-05
3.95216e-05
-4.87752e-07
1.33285e-05
7.62574e-06
6.41897e-05
5.70545e-05
-6.15647e-05
0.000137871
2.75696e-05
0.000170822
4.51838e-05
9.47972e-06
8.07087e-07
-7.73972e-07
1.01676e-05
8.94299e-07
-3.64116e-07
1.0921e-05
1.21374e-06
-2.76602e-07
1.14381e-05
1.16632e-06
-7.84068e-07
1.23593e-05
1.53797e-06
-9.07889e-09
1.35336e-05
1.10841e-06
-7.14935e-07
1.45048e-05
1.40575e-06
-5.5044e-07
1.51778e-05
1.01421e-06
-4.67142e-07
1.62542e-05
1.07075e-06
-1.01422e-06
1.70224e-05
-9.23171e-08
-1.48297e-06
1.81887e-05
1.25748e-06
-7.19663e-07
1.93631e-05
3.56398e-07
-1.55809e-06
2.06286e-05
-4.11539e-07
-2.04017e-06
2.37327e-05
-6.47189e-07
-9.39998e-08
2.53305e-05
1.58446e-07
-1.10438e-06
2.92428e-05
-1.38622e-06
-1.90727e-07
3.13498e-05
-2.61174e-06
-4.38942e-06
3.14544e-05
6.17887e-07
-1.44533e-06
3.26865e-05
-1.00833e-06
-3.58379e-06
3.31434e-05
3.60727e-08
-1.09182e-06
3.3222e-05
-1.30926e-06
-6.77323e-06
3.37778e-05
-1.57073e-06
-3.75436e-06
3.36762e-05
-1.7331e-06
-4.06637e-06
3.32092e-05
-3.88763e-06
-6.27225e-06
3.29238e-05
-1.48043e-06
-4.90335e-06
3.37193e-05
-5.39558e-06
-5.3725e-06
3.29405e-05
-6.1969e-06
-8.07834e-06
3.62227e-05
-6.586e-06
-6.06094e-06
3.19477e-05
-1.09548e-05
2.28458e-06
2.90951e-05
3.87211e-07
7.45636e-07
3.08732e-05
-2.78111e-06
1.60027e-05
3.40594e-05
2.17936e-06
-1.44178e-05
3.99706e-05
1.64955e-06
-3.9685e-06
5.1393e-05
-6.91495e-06
-2.85497e-05
2.05657e-05
-2.82531e-06
-8.48561e-05
-2.7431e-05
0.000150846
-4.08546e-05
-7.83521e-05
0.00019817
-1.55944e-05
0.000147362
3.10889e-05
9.58008e-06
8.84208e-07
-6.22461e-07
1.03912e-05
4.53189e-07
-8.22254e-07
1.10979e-05
9.05633e-07
-6.5027e-07
1.1577e-05
1.2182e-06
-5.10189e-07
1.25931e-05
9.27137e-07
-5.89563e-07
1.33775e-05
6.05072e-07
-9.92862e-07
1.41659e-05
1.21246e-06
-4.19385e-07
1.48592e-05
6.4428e-07
-6.36049e-07
1.58814e-05
6.40121e-07
-4.73541e-08
1.7172e-05
-1.2987e-06
-1.40095e-06
1.80816e-05
1.32113e-06
-8.26541e-07
1.90502e-05
-3.11147e-07
-7.96547e-08
2.03067e-05
-7.18769e-08
-1.79543e-06
2.31889e-05
-1.8799e-06
2.72614e-06
2.74246e-05
-2.54958e-06
-4.64662e-07
2.95239e-05
-1.49165e-06
1.00639e-06
2.97185e-05
-1.5956e-06
-1.09104e-06
3.1014e-05
8.47956e-07
-1.24272e-06
3.14386e-05
-6.2435e-07
-2.44843e-06
3.24049e-05
6.17538e-07
-1.194e-06
3.22139e-05
6.29264e-07
-3.4232e-06
3.20472e-05
-1.5802e-07
-4.44853e-06
3.14599e-05
8.17003e-07
-2.20696e-06
3.15898e-05
-6.83298e-07
-4.32034e-06
3.12582e-05
-1.78255e-06
-1.58312e-06
3.19704e-05
-1.87972e-06
-7.465e-06
3.32949e-05
-5.53882e-06
1.9276e-06
3.64121e-05
-7.68093e-06
-1.03126e-05
4.0966e-05
-1.23916e-05
2.41087e-06
4.59734e-05
-6.61823e-06
-1.21275e-06
5.27953e-05
-4.86712e-06
-1.2765e-05
5.50036e-05
8.84817e-06
-4.02616e-06
5.31692e-05
1.30452e-05
-2.45816e-05
4.57377e-05
2.37994e-05
5.79085e-06
-1.19071e-05
7.23649e-05
1.91208e-05
-8.15912e-05
0.000202752
2.48849e-05
-9.56779e-05
0.000222188
3.91322e-05
0.000144228
-6.86339e-06
9.70152e-06
1.00246e-06
-4.94362e-07
1.05031e-05
7.31626e-08
-1.23456e-06
1.12232e-05
5.30559e-07
-9.0809e-07
1.17191e-05
1.35033e-06
-3.27063e-07
1.25186e-05
4.18673e-07
-1.08865e-06
1.34404e-05
1.26878e-07
-9.84305e-07
1.40535e-05
1.10618e-06
-4.8235e-07
1.47166e-05
3.46828e-07
-6.06234e-07
1.55698e-05
1.54101e-08
5.71073e-07
1.7511e-05
-2.83429e-06
-1.51544e-07
1.81198e-05
2.77612e-06
-1.23547e-06
1.81365e-05