/*--------------------------------*- C++ -*----------------------------------*\
| =========                 |                                                 |
| \\      /  F ield         | OpenFOAM: The Open Source CFD Toolbox           |
|  \\    /   O peration     | Version:  2.3.1                                 |
|   \\  /    A nd           | Web:      www.OpenFOAM.org                      |
|    \\/     M anipulation  |                                                 |
\*---------------------------------------------------------------------------*/
FoamFile
{
    version     2.0;
    format      ascii;
    class       volScalarField;
    location    "20";
    object      Sed;
}
// * * * * * * * * * * * * * * * * * * * * * * * * * * * * * * * * * * * * * //

dimensions      [0 0 0 0 0 0 0];

internalField   nonuniform List<scalar> 
38262
(
2.9958e-139
1.75118e-140
2.31486e-141
2.3544e-142
2.61832e-143
4.90406e-144
2.41429e-144
2.43003e-144
1.08197e-144
3.8e-145
2.09533e-145
7.18539e-146
2.56612e-146
8.48798e-147
1.84278e-147
3.70114e-148
2.71695e-148
3.43815e-148
3.99367e-148
3.5817e-148
1.72339e-148
8.75775e-149
7.92145e-149
6.92318e-149
6.89349e-149
3.8504e-149
2.88343e-149
1.95761e-149
1.22412e-149
1.17052e-149
5.70778e-150
4.65827e-150
1.73557e-150
1.45632e-150
6.99218e-151
5.54293e-151
5.13315e-151
2.86201e-151
1.17263e-137
9.35791e-139
1.20421e-139
1.48954e-140
1.83389e-141
3.05492e-142
1.11642e-142
4.98727e-143
1.74485e-143
5.11372e-144
1.20761e-144
2.51969e-145
6.63147e-146
3.04035e-146
2.32371e-146
1.5773e-146
7.26906e-147
3.96005e-147
3.64145e-147
3.582e-147
2.85193e-147
1.49558e-147
1.19812e-147
6.2867e-148
4.36443e-148
2.47494e-148
1.71174e-148
1.08636e-148
6.83719e-149
5.32154e-149
2.97775e-149
1.57859e-149
8.36567e-150
2.74433e-150
1.29183e-150
8.75077e-151
5.25803e-151
2.99025e-151
2.24704e-136
2.04295e-137
2.94779e-138
4.28499e-139
5.55935e-140
8.81303e-141
1.91456e-141
4.96515e-142
1.50823e-142
4.30841e-143
1.13639e-143
2.64495e-144
5.15854e-145
1.12431e-145
4.17261e-146
2.81011e-146
1.94373e-146
1.74331e-146
1.39387e-146
1.04896e-146
8.49943e-147
3.78068e-147
2.20463e-147
1.06684e-147
5.85175e-148
3.39552e-148
3.18609e-148
1.40266e-148
1.31015e-148
8.94011e-149
3.15999e-149
1.22168e-149
5.57405e-150
2.73373e-150
1.24949e-150
7.55282e-151
4.45062e-151
1.98897e-151
1.70652e-135
2.75453e-136
4.10445e-137
5.21959e-138
6.00873e-139
8.41195e-140
2.26534e-140
7.15305e-141
2.18551e-141
6.78928e-142
1.97826e-142
5.25386e-143
1.44461e-143
3.09436e-144
6.59022e-145
2.74161e-145
1.09256e-145
8.94703e-146
4.10345e-146
3.72832e-146
3.03122e-146
1.63744e-146
6.19623e-147
4.87599e-147
2.32638e-147
1.58315e-147
9.11911e-148
3.58729e-148
2.62319e-148
1.40807e-148
5.72622e-149
2.18252e-149
7.72629e-150
2.66157e-150
7.22241e-151
5.01074e-151
3.38196e-151
1.26234e-151
4.47619e-135
9.10227e-136
1.78678e-136
3.30193e-137
5.74602e-138
8.69568e-139
1.63542e-139
3.28537e-140
6.70172e-141
1.55393e-141
4.1175e-142
1.45575e-142
4.08274e-143
1.51274e-143
4.01648e-144
2.10457e-144
8.05968e-145
2.96693e-145
1.95185e-145
1.28284e-145
8.21634e-146
3.22549e-146
1.67732e-146
7.70124e-147
4.21259e-147
2.35999e-147
9.70155e-148
3.62807e-148
2.43255e-148
9.35511e-149
4.74363e-149
1.77848e-149
9.5483e-150
4.02224e-150
1.69376e-150
7.88039e-151
3.17081e-151
9.81978e-152
1.11504e-134
1.68249e-135
4.46374e-136
9.31351e-137
1.70782e-137
3.44062e-138
8.84203e-139
2.40644e-139
7.59367e-140
1.6065e-140
3.88267e-141
1.57304e-141
4.28612e-142
1.05565e-142
3.40687e-143
1.17016e-143
4.62133e-144
1.33035e-144
6.13918e-145
5.02661e-145
2.04519e-145
8.85866e-146
5.11209e-146
2.11752e-146
1.0532e-146
4.68728e-147
2.0372e-147
8.61475e-148
3.80275e-148
1.4987e-148
5.9074e-149
1.93776e-149
8.72627e-150
3.54068e-150
1.33525e-150
5.11043e-151
2.07257e-151
7.23215e-152
4.74307e-134
6.43697e-135
1.16196e-135
2.58041e-136
4.43983e-137
9.96818e-138
2.3815e-138
5.85817e-139
1.72945e-139
5.31996e-140
1.38153e-140
4.15594e-141
1.77097e-141
4.76205e-142
1.62698e-142
6.10541e-143
2.74561e-143
1.04394e-143
3.51745e-144
1.44288e-144
5.74056e-145
2.03474e-145
7.69769e-146
3.46835e-146
1.01388e-146
3.9002e-147
1.76254e-147
5.71634e-148
1.72062e-148
6.78096e-149
3.51341e-149
1.5871e-149
7.33294e-150
4.08803e-150
1.47105e-150
4.17847e-151
1.30196e-151
4.96509e-152
6.9214e-134
1.17954e-134
2.10131e-135
4.42679e-136
8.13218e-137
1.87963e-137
4.30516e-138
1.01505e-138
2.71139e-139
7.82936e-140
1.9604e-140
5.88098e-141
1.89475e-141
4.97251e-142
1.5691e-142
5.25688e-143
2.68914e-143
9.85246e-144
3.74459e-144
1.30834e-144
6.47868e-145
2.52056e-145
9.50236e-146
3.84303e-146
1.30541e-146
4.47634e-147
1.73479e-147
5.67826e-148
1.56865e-148
2.94896e-149
6.69673e-150
4.78732e-150
1.68259e-150
1.86005e-150
1.02564e-150
3.18271e-151
9.61492e-152
3.21328e-152
2.93122e-134
5.66163e-135
1.14973e-135
2.28569e-136
4.84442e-137
1.16405e-137
2.57923e-138
6.0768e-139
1.41519e-139
3.97181e-140
1.05544e-140
2.4189e-141
6.43583e-142
1.34253e-142
3.91539e-143
1.16088e-143
4.09751e-144
1.9883e-144
8.98163e-145
3.69216e-145
1.87318e-145
8.0717e-146
3.14871e-146
1.24475e-146
5.0795e-147
2.03478e-147
6.08942e-148
2.42837e-148
8.19363e-149
2.90901e-149
1.15201e-149
4.69271e-150
2.12715e-150
1.01839e-150
6.01429e-151
1.66347e-151
4.76401e-152
1.82195e-152
5.65346e-135
1.15247e-135
2.49971e-136
4.97885e-137
1.11033e-137
2.57224e-138
6.04925e-139
1.41157e-139
2.92502e-140
6.11059e-141
1.68668e-141
3.60591e-142
7.43456e-143
9.56974e-144
2.83088e-144
8.69174e-145
3.71032e-145
3.23131e-145
1.38137e-145
6.32098e-146
3.08893e-146
1.27002e-146
7.78096e-147
3.07064e-147
1.09159e-147
5.93407e-148
2.30787e-148
6.67254e-149
1.40117e-149
2.78633e-150
1.61305e-150
1.34395e-150
7.8181e-151
4.48524e-151
3.31615e-151
1.15506e-151
3.41232e-152
1.30802e-152
4.03297e-136
9.50011e-137
1.95754e-137
3.99244e-138
9.64303e-139
2.18146e-139
4.67813e-140
1.18955e-140
2.16016e-141
3.97725e-142
1.38902e-142
2.07252e-143
2.86599e-144
1.84114e-144
6.49473e-145
1.5831e-145
6.41768e-146
2.78609e-146
1.16853e-146
8.51984e-147
4.01588e-147
2.12114e-147
1.43544e-147
6.17788e-148
2.55367e-148
1.40258e-148
6.58082e-149
2.77514e-149
9.76691e-150
3.13061e-150
1.2444e-150
6.23074e-151
3.86521e-151
2.91635e-151
2.06672e-151
7.52902e-152
2.62321e-152
1.17935e-152
9.83991e-138
3.69547e-138
6.332e-139
1.30103e-139
4.03016e-140
7.46162e-141
1.32957e-141
2.89688e-142
4.31709e-143
4.75008e-144
7.63246e-144
2.32533e-144
1.02201e-144
3.9868e-145
2.22187e-146
2.67759e-147
1.13006e-147
8.57495e-148
5.61791e-148
4.87433e-148
1.96503e-148
1.32462e-148
8.45951e-149
3.17279e-149
1.56978e-149
8.99004e-150
3.8482e-150
8.77812e-151
1.42782e-151
8.01683e-152
8.34734e-152
9.18028e-152
1.18144e-151
1.26815e-151
1.01345e-151
3.92585e-152
1.72926e-152
9.81225e-153
3.58256e-138
3.85947e-139
4.79068e-140
5.1651e-141
4.89861e-142
7.26345e-143
2.50239e-143
2.11129e-143
1.5052e-143
5.23275e-144
1.99651e-144
6.57772e-145
2.1941e-145
6.57146e-146
1.35278e-146
2.56514e-147
1.41457e-147
1.39641e-147
1.4298e-147
1.25709e-147
6.31623e-148
2.82717e-148
1.98156e-148
1.46484e-148
1.22963e-148
6.66028e-149
4.1345e-149
2.69513e-149
1.78324e-149
9.48836e-150
6.58689e-150
3.40938e-150
2.85951e-150
1.05805e-150
7.25694e-151
6.66397e-151
5.32585e-151
2.17724e-151
1.34329e-136
1.58669e-137
2.03059e-138
2.56938e-139
3.16198e-140
4.55144e-141
1.09731e-141
4.28248e-142
1.64886e-142
5.26905e-143
1.44496e-143
3.476e-144
9.46722e-145
3.33725e-145
1.6537e-145
7.70032e-146
3.56218e-146
1.88863e-146
1.63217e-146
1.45284e-146
1.02974e-146
5.32372e-147
3.46433e-147
1.59013e-147
1.00828e-147
5.16685e-148
2.7966e-148
1.69398e-148
1.04115e-148
5.33122e-149
3.20184e-149
1.5495e-149
8.45164e-150
3.63715e-150
2.15468e-150
1.21847e-150
3.92471e-151
3.26466e-151
2.68978e-135
3.51158e-136
4.87568e-137
6.8571e-138
9.50696e-139
1.42723e-139
2.53581e-140
5.78488e-141
1.71457e-141
4.88707e-142
1.29179e-142
3.01962e-143
6.06604e-144
1.37384e-144
4.56482e-145
2.49201e-145
1.51471e-145
1.2461e-145
9.25665e-146
6.58871e-146
4.64853e-146
2.13971e-146
1.2716e-146
5.16035e-147
3.18352e-147
1.31079e-147
7.51284e-148
4.22139e-148
2.40766e-148
1.40541e-148
5.47062e-149
2.41123e-149
9.06493e-150
4.98999e-150
2.54687e-150
1.04399e-150
4.79344e-151
2.8644e-151
2.19202e-134
3.60556e-135
5.68554e-136
8.43237e-137
1.16507e-137
1.87268e-138
3.96893e-139
1.04944e-139
2.88362e-140
7.8816e-141
2.16038e-141
5.87305e-142
1.59384e-142
3.895e-143
9.16791e-144
3.48141e-144
1.45184e-144
8.7577e-145
4.57421e-145
3.01762e-145
1.93621e-145
9.53535e-146
4.38179e-146
2.28638e-146
1.12199e-146
5.90747e-147
2.74147e-147
1.18505e-147
6.53328e-148
2.3073e-148
8.44724e-149
3.2108e-149
1.26438e-149
5.6992e-150
1.2076e-150
8.54383e-151
4.52851e-151
1.75587e-151
8.66024e-134
1.58493e-134
2.9034e-135
5.25916e-136
9.32218e-137
1.62806e-137
3.14985e-138
6.5263e-139
1.36674e-139
3.18744e-140
7.98686e-141
2.41686e-141
6.51484e-142
2.23831e-142
5.911e-143
2.69251e-143
1.03318e-143
4.3157e-144
2.15909e-144
1.1614e-144
6.12075e-145
2.52836e-145
1.1833e-145
4.68499e-146
2.36557e-146
1.00523e-146
3.70116e-147
1.61888e-147
7.10082e-148
2.3439e-148
1.22314e-148
3.89082e-149
1.89976e-149
7.97475e-150
3.51139e-150
1.30099e-150
4.65688e-151
1.15868e-151
3.06467e-133
4.91462e-134
9.33688e-135
1.77395e-135
3.2932e-136
6.72459e-137
1.54899e-137
3.83044e-138
1.02474e-138
2.44742e-139
6.37889e-140
1.9587e-140
5.22064e-141
1.53409e-141
4.59362e-142
1.64909e-142
5.30894e-143
1.85833e-143
8.12541e-144
4.02025e-144
1.69681e-144
6.79343e-145
2.97414e-145
1.15768e-145
4.61645e-146
1.83324e-146
7.27506e-147
2.71135e-147
1.07025e-147
3.74908e-148
1.46546e-148
4.47924e-149
1.86413e-149
5.88465e-150
1.99412e-150
9.05171e-151
2.58229e-151
6.72517e-152
7.38814e-133
1.13206e-133
2.05811e-134
4.05546e-135
7.60697e-136
1.60363e-136
3.55463e-137
8.25295e-138
2.07729e-138
5.46655e-139
1.43386e-139
3.946e-140
1.27962e-140
3.66306e-141
1.17727e-141
4.19055e-142
1.56414e-142
5.67168e-143
1.99084e-143
7.64292e-144
2.85691e-144
9.95491e-145
3.68698e-145
1.4077e-145
4.24714e-146
1.62134e-146
6.37591e-147
1.97871e-147
6.81212e-148
2.65069e-148
9.55006e-149
4.16243e-149
1.64388e-149
6.46276e-150
1.57361e-150
5.21401e-151
1.76126e-151
4.27933e-152
7.41908e-133
1.2968e-133
2.37404e-134
4.69279e-135
9.12549e-136
1.97707e-136
4.39964e-137
1.01273e-137
2.49856e-138
6.45276e-139
1.64286e-139
4.53253e-140
1.29979e-140
3.61121e-141
1.1376e-141
3.77177e-142
1.49868e-142
5.32474e-143
1.95107e-143
6.9191e-144
2.83306e-144
1.03181e-144
3.74763e-145
1.39221e-145
4.83964e-146
1.69001e-146
6.21487e-147
2.07064e-147
6.35905e-148
1.83299e-148
4.05306e-149
2.28574e-149
7.85024e-150
3.6613e-150
1.4031e-150
3.66647e-151
1.05722e-151
2.66585e-152
3.08324e-133
5.79271e-134
1.13367e-134
2.26358e-135
4.76041e-136
1.05549e-136
2.36173e-137
5.44538e-138
1.28018e-138
3.2262e-139
8.40196e-140
2.10912e-140
5.79471e-141
1.43304e-141
4.47085e-142
1.3506e-142
4.69962e-143
1.839e-143
6.93972e-144
2.60715e-144
1.06804e-144
4.29068e-145
1.58032e-145
5.8452e-146
2.14191e-146
8.05251e-147
2.5106e-147
1.00632e-147
2.82457e-148
1.08381e-148
4.48841e-149
1.6941e-149
7.74412e-150
2.18593e-150
6.88422e-151
2.48586e-151
6.6894e-152
2.33099e-152
6.36264e-134
1.24065e-134
2.53086e-135
5.19475e-136
1.13444e-136
2.49744e-137
5.85283e-138
1.34919e-138
3.02986e-139
6.63196e-140
1.87121e-140
4.43041e-141
1.05819e-141
2.09668e-142
5.18381e-143
1.42271e-143
4.66533e-144
2.52972e-144
9.07755e-145
3.87119e-145
1.78885e-145
7.41518e-146
3.51288e-146
1.37331e-146
4.68172e-147
2.18246e-147
8.16799e-148
2.47963e-148
6.41082e-149
1.62287e-149
5.19633e-150
2.52542e-150
1.49123e-150
6.67078e-151
3.35712e-151
1.85475e-151
6.29831e-152
2.33529e-152
5.33237e-135
1.09778e-135
2.21252e-136
4.88548e-137
1.10156e-137
2.39602e-138
5.53174e-139
1.31691e-139
2.65828e-140
5.32825e-141
1.90228e-141
3.89891e-142
1.01982e-142
2.9425e-143
6.63331e-144
1.56964e-144
4.97844e-145
1.83242e-145
6.98805e-146
3.96817e-146
2.08444e-146
1.03069e-146
5.28395e-147
2.35461e-147
9.33234e-148
4.36799e-148
1.81639e-148
6.61475e-149
1.87485e-149
5.04112e-150
1.80191e-150
8.11252e-151
4.3965e-151
2.84552e-151
2.03666e-151
1.24943e-151
5.15486e-152
2.16046e-152
1.6384e-136
4.05306e-137
6.93809e-138
1.75136e-138
4.33006e-139
7.90165e-140
1.94969e-140
4.19777e-141
6.08398e-142
9.12047e-143
6.69202e-143
2.2202e-143
9.15058e-144
2.38994e-144
2.60797e-145
3.12225e-146
1.08607e-146
5.0927e-147
3.35961e-147
2.51232e-147
1.30905e-147
7.02032e-148
3.43811e-148
1.67799e-148
6.72149e-149
2.99127e-149
1.09119e-149
2.46685e-150
3.86165e-151
1.27341e-151
8.72258e-152
8.27056e-152
1.07575e-151
1.13473e-151
9.77268e-152
5.06403e-152
2.26974e-152
1.2142e-152
1.41835e-137
2.04725e-138
2.94104e-139
3.21375e-140
2.96045e-141
3.76612e-142
1.01896e-142
8.0949e-143
7.32851e-143
2.94687e-143
1.07635e-143
3.5774e-144
1.11819e-144
2.76202e-145
5.02376e-146
8.8306e-147
3.95474e-147
3.46856e-147
3.16555e-147
2.93896e-147
1.39226e-147
5.84662e-148
3.20294e-148
2.1125e-148
1.63064e-148
9.17972e-149
5.32082e-149
3.59806e-149
1.92837e-149
1.01053e-149
7.63037e-150
3.51061e-150
2.56769e-150
1.18171e-150
5.58304e-151
1.91088e-151
2.37318e-151
7.80441e-152
7.26047e-136
9.52062e-137
1.16436e-137
1.4313e-138
1.86793e-139
2.64757e-140
5.37488e-141
1.88555e-141
7.96956e-142
3.14309e-142
9.81026e-143
2.55407e-143
7.05855e-144
2.35245e-144
8.63132e-145
2.83713e-145
1.11388e-145
5.46956e-146
4.11799e-146
3.37555e-146
2.17257e-146
1.11511e-146
6.14406e-147
2.72555e-147
1.50313e-147
7.59007e-148
3.74592e-148
2.22768e-148
1.19868e-148
5.67302e-149
3.30149e-149
1.53069e-149
8.31453e-150
4.06676e-150
1.97818e-150
9.33853e-151
2.21352e-151
1.82121e-151
1.55359e-134
2.13392e-135
2.95482e-136
4.0605e-137
5.72829e-138
8.69533e-139
1.49321e-139
3.18122e-140
9.36469e-141
2.66799e-141
7.22686e-142
1.77482e-142
4.12817e-143
1.03657e-143
3.15396e-144
1.36885e-144
7.11503e-145
5.06449e-145
3.47555e-145
2.22801e-145
1.32864e-145
6.41077e-146
3.24517e-146
1.38622e-146
6.7522e-147
2.93558e-147
1.41304e-147
7.09218e-148
3.12996e-148
1.4993e-148
6.08055e-149
2.55569e-149
1.17482e-149
5.30725e-150
2.51461e-150
9.59312e-151
2.91956e-151
1.58895e-151
1.59699e-133
2.53385e-134
3.85913e-135
5.7644e-136
8.4836e-137
1.4305e-137
2.84537e-138
6.93042e-139
1.80411e-139
4.67482e-140
1.25209e-140
3.39437e-141
9.46247e-142
2.67223e-142
7.42312e-143
2.61406e-143
1.04498e-143
4.89696e-144
2.4545e-144
1.26749e-144
6.36168e-145
2.89496e-145
1.25138e-145
5.70704e-146
2.45664e-146
1.12331e-146
4.7366e-147
2.02858e-147
8.73209e-148
3.33109e-148
1.27309e-148
4.72946e-149
1.7531e-149
6.64381e-150
2.25024e-150
8.75222e-151
3.55816e-151
1.50194e-151
8.15499e-133
1.38608e-133
2.35354e-134
4.01684e-135
6.92804e-136
1.22934e-136
2.3502e-137
4.85952e-138
1.04976e-138
2.44773e-139
6.09306e-140
1.66876e-140
4.56435e-141
1.42774e-141
4.21186e-142
1.6e-142
6.06047e-143
2.41614e-143
1.07405e-143
4.71211e-144
2.02544e-144
8.08659e-145
3.30674e-145
1.28486e-145
5.32785e-146
2.07878e-146
7.8445e-147
3.12455e-147
1.17056e-147
4.27233e-148
1.66692e-148
5.80801e-149
2.20797e-149
8.04766e-150
3.08452e-150
9.17847e-151
2.66259e-151
8.60531e-152
2.61043e-132
4.2998e-133
7.53677e-134
1.35137e-134
2.48306e-135
4.91423e-136
1.04942e-136
2.39285e-137
5.77839e-138
1.38252e-138
3.47121e-139
9.29906e-140
2.46897e-140
7.08846e-141
2.11806e-141
7.0813e-142
2.37054e-142
8.41604e-143
3.26664e-143
1.31386e-143
5.05229e-144
1.8816e-144
7.10632e-145
2.60107e-145
9.58685e-146
3.55006e-146
1.3078e-146
4.70518e-147
1.74103e-147
6.0609e-148
2.1661e-148
7.25513e-149
2.53956e-149
8.11843e-150
2.71092e-150
1.0381e-150
2.65103e-151
5.58261e-152
4.1728e-132
6.88395e-133
1.2269e-133
2.29365e-134
4.33943e-135
8.79518e-136
1.8629e-136
4.11358e-137
9.5696e-138
2.30908e-138
5.77317e-139
1.50315e-139
4.26978e-140
1.21603e-140
3.74245e-141
1.23154e-141
4.22934e-142
1.46951e-142
5.16721e-143
1.87954e-143
6.72841e-144
2.32935e-144
8.25129e-145
2.90183e-145
9.74384e-146
3.43591e-146
1.2074e-146
4.00564e-147
1.37404e-147
4.94075e-148
1.79058e-148
6.68642e-149
2.339e-149
7.53561e-150
2.13523e-150
5.54665e-151
1.81494e-151
4.11933e-152
3.4858e-132
6.0664e-133
1.10348e-133
2.10588e-134
4.10058e-135
8.52183e-136
1.83803e-136
4.09711e-137
9.55596e-138
2.31117e-138
5.72561e-139
1.49293e-139
4.03477e-140
1.12007e-140
3.41468e-141
1.09427e-141
3.84832e-142
1.33991e-142
4.7902e-143
1.69908e-143
6.31096e-144
2.22277e-144
7.82449e-145
2.77224e-145
9.50806e-146
3.30537e-146
1.14591e-146
3.86435e-147
1.25594e-147
4.17513e-148
1.30503e-148
5.33757e-149
1.81624e-149
6.16285e-150
1.84701e-150
4.42797e-151
1.06995e-151
2.80002e-152
1.43968e-132
2.61896e-133
4.98114e-134
9.78026e-135
1.99651e-135
4.25172e-136
9.36094e-137
2.10642e-137
4.87157e-138
1.16159e-138
2.93666e-139
7.41268e-140
1.99472e-140
5.40668e-141
1.60557e-141
5.09351e-142
1.70758e-142
6.1191e-143
2.16254e-143
7.7387e-144
2.88623e-144
1.07965e-144
3.82497e-145
1.39332e-145
4.74907e-146
1.7355e-146
5.60214e-147
2.02836e-147
6.389e-148
2.21494e-148
9.07504e-149
3.4511e-149
1.49248e-149
5.27856e-150
1.73574e-150
4.49761e-151
1.10564e-151
4.27601e-152
3.20036e-133
6.00302e-134
1.18487e-134
2.40594e-135
5.07928e-136
1.09176e-136
2.49078e-137
5.63299e-138
1.29297e-138
2.89248e-139
7.61405e-140
1.88769e-140
4.85975e-141
1.22412e-141
3.06654e-142
8.45094e-143
2.52124e-143
9.95149e-144
3.38588e-144
1.28778e-144
5.31022e-145
2.1477e-145
8.80529e-146
3.44559e-146
1.19785e-146
4.91915e-147
1.74285e-147
5.61277e-148
1.60919e-148
4.55286e-149
1.59132e-149
5.8431e-150
2.68974e-150
1.31881e-150
5.63053e-151
2.39832e-151
1.05007e-151
3.77314e-152
3.16164e-134
6.10023e-135
1.24489e-135
2.69316e-136
5.92498e-137
1.26797e-137
3.00158e-138
6.7363e-139
1.50207e-139
3.1859e-140
8.37085e-141
1.88664e-141
4.8257e-142
1.44256e-142
3.12463e-143
7.58635e-144
2.03623e-144
6.24583e-145
2.12274e-145
1.06901e-145
5.48547e-146
2.68127e-146
1.20857e-146
5.34758e-147
2.08604e-147
8.70737e-148
3.2855e-148
1.0804e-148
2.83696e-149
8.12463e-150
3.00934e-150
1.28601e-150
6.38399e-151
3.99871e-151
2.30077e-151
1.46836e-151
8.38472e-152
3.3314e-152
1.0517e-135
2.27463e-136
4.34641e-137
1.01889e-137
2.37232e-138
4.496e-139
1.21843e-139
2.5333e-140
4.34277e-141
7.78744e-142
2.21904e-142
5.89979e-143
2.47249e-143
7.51435e-144
1.1928e-144
1.33084e-145
3.90337e-146
1.52519e-146
9.02049e-147
6.6949e-147
3.75451e-147
1.87066e-147
8.21678e-148
4.03984e-148
1.53456e-148
5.8922e-149
1.9058e-149
4.08181e-150
7.36567e-151
2.1935e-151
1.11012e-151
8.8964e-152
1.06357e-151
1.14353e-151
9.25109e-152
5.46746e-152
3.36993e-152
1.56929e-152
4.97962e-137
7.6766e-138
1.46185e-138
1.52545e-139
1.17637e-140
1.29406e-141
2.93201e-142
2.15197e-142
2.36856e-142
1.18547e-142
3.98473e-143
1.26523e-143
3.59801e-144
6.94625e-145
1.14077e-145
2.1305e-146
8.17284e-147
6.20939e-147
4.86755e-147
4.5151e-147
2.22274e-147
8.51951e-148
3.94203e-148
2.26902e-148
1.63772e-148
9.80338e-149
5.67916e-149
3.84649e-149
1.9221e-149
1.00742e-149
7.45792e-150
3.47567e-150
2.22031e-150
9.62871e-151
4.08746e-151
1.06335e-151
9.86424e-152
4.09594e-152
3.11032e-135
4.07363e-136
4.73712e-137
5.26708e-138
6.93167e-139
1.00131e-139
1.90909e-140
6.31162e-141
2.9407e-141
1.33759e-141
4.63921e-142
1.30136e-142
3.54513e-143
1.01557e-143
2.9446e-144
7.87223e-145
2.54716e-145
1.12689e-145
7.00932e-146
5.28611e-146
3.25839e-146
1.59019e-146
7.85718e-147
3.31654e-147
1.68007e-147
8.34208e-148
4.0196e-148
2.3429e-148
1.22253e-148
5.41731e-149
3.12682e-149
1.42465e-149
7.19899e-150
3.50022e-150
1.44782e-150
6.33991e-151
1.64322e-151
8.82034e-152
6.92234e-134
9.5481e-135
1.29512e-135
1.68978e-136
2.31983e-137
3.49328e-138
5.90982e-139
1.22548e-139
3.61844e-140
1.09349e-140
3.23922e-141
8.19352e-142
2.02388e-142
5.35655e-143
1.54012e-143
5.58634e-144
2.32742e-144
1.35285e-144
7.97585e-145
4.40828e-145
2.3259e-145
1.05965e-145
4.79701e-146
1.94828e-146
8.67431e-147
3.72851e-147
1.66973e-147
8.17639e-148
3.68053e-148
1.55429e-148
6.93531e-149
2.63769e-149
1.16851e-149
4.73282e-150
1.96836e-150
6.30478e-151
1.7017e-151
6.22677e-152
7.91408e-133
1.22082e-133
1.82231e-134
2.66572e-135
3.96792e-136
6.64925e-137
1.26459e-137
2.88046e-138
7.23998e-139
1.83237e-139
4.83495e-140
1.29758e-140
3.54144e-141
9.94939e-142
2.87951e-142
9.39449e-143
3.47833e-143
1.4169e-143
6.32414e-144
2.82212e-144
1.23344e-144
5.07175e-145
2.04555e-145
8.26459e-146
3.38882e-146
1.36851e-146
5.62921e-147
2.35932e-147
9.35021e-148
3.6382e-148
1.36582e-148
5.02218e-149
1.7561e-149
5.8226e-150
2.24537e-150
7.3311e-151
1.87135e-151
8.33697e-152
3.84608e-132
6.29835e-133
1.03699e-133
1.72602e-134
2.92733e-135
5.16238e-136
9.70758e-137
1.96367e-137
4.2577e-138
9.78632e-139
2.3915e-139
6.20294e-140
1.65577e-140
4.82939e-141
1.4333e-141
4.83255e-142
1.70802e-142
6.30718e-143
2.51615e-143
9.97745e-144
3.9384e-144
1.50272e-144
5.71695e-145
2.13291e-145
8.12281e-146
3.01323e-146
1.11506e-146
4.09949e-147
1.49063e-147
5.29388e-148
1.85638e-148
6.28133e-149
2.18234e-149
7.29116e-150
2.53086e-150
7.83317e-151
2.04334e-151
4.76829e-152
1.00355e-131
1.65336e-132
2.83571e-133
4.9905e-134
9.08015e-135
1.75482e-135
3.59741e-136
7.79807e-137
1.78009e-137
4.12663e-138
9.93512e-139
2.49604e-139
6.40622e-140
1.76156e-140
5.11939e-141
1.61953e-141
5.32598e-142
1.83446e-142
6.64233e-143
2.45865e-143
8.93516e-144
3.1852e-144
1.13756e-144
4.00456e-145
1.41468e-145
5.02887e-146
1.75391e-146
6.07568e-147
2.11054e-147
7.15673e-148
2.45443e-148
8.18507e-149
2.71238e-149
8.23102e-150
2.67929e-150
9.97358e-151
2.86823e-151
5.19815e-152
1.33232e-131
2.21773e-132
3.88835e-133
7.07651e-134
1.32449e-134
2.61424e-135
5.37024e-136
1.14588e-136
2.55535e-137
5.90334e-138
1.42099e-138
3.56701e-139
9.51906e-140
2.62482e-140
7.76604e-141
2.44694e-141
8.01863e-142
2.6921e-142
9.23575e-143
3.22918e-143
1.12058e-143
3.81054e-144
1.30519e-144
4.43445e-145
1.48352e-145
5.08111e-146
1.71707e-146
5.66083e-147
1.8943e-147
6.48037e-148
2.24037e-148
7.62093e-149
2.52059e-149
7.60614e-150
2.16013e-150
5.55533e-151
1.48685e-151
3.69803e-152
1.02354e-131
1.75645e-132
3.1444e-133
5.85928e-134
1.12561e-134
2.27475e-135
4.77526e-136
1.03614e-136
2.33706e-137
5.43581e-138
1.30847e-138
3.28519e-139
8.57679e-140
2.32356e-140
6.85034e-141
2.13663e-141
7.11358e-142
2.41568e-142
8.39919e-143
2.92621e-143
1.03802e-143
3.57116e-144
1.22382e-144
4.19806e-145
1.41363e-145
4.81767e-146
1.62019e-146
5.39398e-147
1.76345e-147
5.92737e-148
2.03901e-148
7.06886e-149
2.26341e-149
6.81804e-150
1.87499e-150
4.99777e-151
1.1392e-151
2.85147e-152
4.23935e-132
7.50955e-133
1.39115e-133
2.66946e-134
5.31314e-135
1.0995e-135
2.36248e-136
5.2043e-137
1.18164e-137
2.74283e-138
6.73041e-139
1.67633e-139
4.40287e-140
1.19124e-140
3.45917e-141
1.07963e-141
3.49946e-142
1.20324e-142
4.13324e-143
1.45543e-143
5.25818e-144
1.89522e-144
6.60664e-145
2.33585e-145
7.81765e-146
2.74771e-146
8.91045e-147
3.07966e-147
9.78322e-148
3.41881e-148
1.31393e-148
4.94689e-149
1.93923e-149
7.23016e-150
2.55918e-150
8.66865e-151
2.25755e-151
6.33394e-152
9.82257e-133
1.7935e-133
3.4471e-134
6.84665e-135
1.40665e-135
2.96039e-136
6.58107e-137
1.47109e-137
3.36434e-138
7.59093e-139
1.91186e-139
4.74643e-140
1.23235e-140
3.12297e-141
7.88548e-142
2.1965e-142
6.42069e-143
2.24791e-143
7.45522e-144
2.72275e-144
1.07073e-144
4.20124e-145
1.63114e-145
6.20986e-146
2.18076e-146
8.27205e-147
2.82505e-147
9.01214e-148
2.5577e-148
7.80494e-149
2.74715e-149
9.84742e-150
3.81372e-150
1.89836e-150
7.38602e-151
2.04934e-151
1.27754e-151
4.422e-152
1.06941e-133
1.99651e-134
4.01354e-135
8.41966e-136
1.80026e-136
3.79368e-137
8.80828e-138
1.99287e-138
4.53333e-139
9.93309e-140
2.49708e-140
6.06734e-141
1.60235e-141
3.62941e-142
7.24034e-143
1.80016e-143
4.58493e-144
1.32552e-144
4.41769e-145
2.17236e-145
1.10626e-145
5.23895e-146
2.24718e-146
9.51978e-147
3.62921e-147
1.38857e-147
4.79938e-148
1.41302e-148
3.55061e-149
1.07565e-149
4.07005e-150
1.71262e-150
8.21217e-151
5.65956e-151
3.2749e-151
1.61983e-151
9.01437e-152
4.19721e-152
3.84679e-135
7.77915e-136
1.58381e-136
3.5536e-137
8.08722e-138
1.54093e-138
4.06011e-139
8.5466e-140
1.6958e-140
3.72443e-141
9.4625e-142
2.77087e-142
7.83083e-143
1.50749e-143
1.26643e-144
2.79593e-145
8.82649e-146
3.41363e-146
1.89119e-146
1.40315e-146
8.05051e-147
3.73879e-147
1.58741e-147
7.28805e-148
2.66531e-148
9.15146e-149
2.62789e-149
5.35058e-150
1.0499e-150
3.39403e-151
1.54299e-151
1.03561e-151
1.05996e-151
1.23617e-151
9.77607e-152
5.7567e-152
3.66221e-152
1.82917e-152
1.47406e-136
2.9457e-137
7.80763e-138
9.815e-139
4.9689e-140
3.99321e-141
7.22978e-142
3.50246e-142
4.4745e-142
3.13845e-142
9.91074e-143
2.67764e-143
6.24052e-144
9.42407e-145
1.56866e-145
3.11805e-146
1.09377e-146
7.19893e-147
5.31941e-147
4.95612e-147
2.70946e-147
9.78295e-148
4.09579e-148
2.07821e-148
1.40972e-148
8.99204e-149
5.34108e-149
3.56845e-149
1.76707e-149
9.30229e-150
6.18125e-150
2.86841e-150
1.54589e-150
6.23893e-151
1.8581e-151
6.91543e-152
4.66381e-152
2.3199e-152
1.07573e-134
1.4275e-135
1.77384e-136
1.81025e-137
2.17847e-138
3.14015e-139
5.73069e-140
1.76027e-140
8.56927e-141
4.20311e-141
1.46859e-141
4.01228e-142
1.02859e-142
2.54333e-143
5.78402e-144
1.24841e-144
3.57473e-145
1.42296e-145
7.85466e-146
5.77174e-146
3.54043e-146
1.68489e-146
7.94634e-147
3.26217e-147
1.5683e-147
7.62194e-148
3.66367e-148
2.05799e-148
1.05357e-148
4.66899e-149
2.46519e-149
1.09328e-149
4.93422e-150
2.26102e-150
7.10965e-151
2.66433e-151
5.51545e-152
2.77798e-152
2.41343e-133
3.37755e-134
4.65446e-135
5.83719e-136
7.54763e-137
1.08603e-137
1.80636e-138
3.6793e-139
1.01025e-139
3.27572e-140
1.02571e-140
2.7365e-141
6.9885e-142
1.865e-142
5.07247e-143
1.49797e-143
5.00401e-144
2.17224e-144
1.03457e-144
5.24493e-145
2.61821e-145
1.15802e-145
5.06133e-146
2.00591e-146
8.62061e-147
3.68104e-147
1.59532e-147
7.54638e-148
3.31396e-148
1.34473e-148
5.91796e-149
2.1393e-149
8.74937e-150
3.24676e-150
1.16991e-150
3.00519e-151
6.68375e-152
2.07488e-152
2.58596e-132
3.96722e-133
6.03246e-134
8.85725e-135
1.30776e-135
2.11979e-136
3.84394e-137
8.2303e-138
2.00715e-138
5.056e-139
1.3194e-139
3.43553e-140
8.92621e-141
2.37096e-141
6.45339e-142
1.92007e-142
6.48674e-143
2.39548e-143
9.36927e-144
3.75465e-144
1.513e-144
5.93549e-145
2.32382e-145
8.99238e-146
3.57072e-146
1.40582e-146
5.63195e-147
2.27142e-147
8.65537e-148
3.27029e-148
1.15192e-148
3.96577e-149
1.29394e-149
3.84661e-150
1.52053e-150
4.32938e-151
9.53846e-152
3.03887e-152
1.11327e-131
1.79375e-132
2.92974e-133
4.85438e-134
8.1687e-135
1.42794e-135
2.6402e-136
5.23416e-137
1.11965e-137
2.54133e-138
6.09434e-139
1.52769e-139
3.93612e-140
1.08279e-140
3.0667e-141
9.51962e-142
3.12041e-142
1.08638e-142
4.03213e-143
1.50956e-143
5.58964e-144
2.02815e-144
7.29268e-145
2.61073e-145
9.40735e-146
3.37823e-146
1.22268e-146
4.34643e-147
1.55899e-147
5.29319e-148
1.76942e-148
5.70277e-149
1.85126e-149
5.63942e-150
1.7931e-150
4.89648e-151
1.28471e-151
2.53506e-152
2.55738e-131
4.17144e-132
7.04542e-133
1.22453e-133
2.20449e-134
4.18282e-135
8.34883e-136
1.75312e-136
3.8648e-137
8.73109e-138
2.03894e-138
4.95142e-139
1.23696e-139
3.27961e-140
9.23021e-141
2.79807e-141
8.89197e-142
2.95991e-142
1.02384e-142
3.60915e-143
1.26111e-143
4.34656e-144
1.48746e-144
5.0342e-145
1.70483e-145
5.77298e-146
1.93775e-146
6.49929e-147
2.18227e-147
7.22026e-148
2.38225e-148
7.59659e-149
2.36726e-149
6.74029e-150
2.203e-150
7.01196e-151
1.71838e-151
3.36076e-152
3.13463e-131
5.17224e-132
8.91192e-133
1.59082e-133
2.93467e-134
5.67457e-135
1.14007e-135
2.37682e-136
5.16197e-137
1.16136e-137
2.72003e-138
6.64296e-139
1.70652e-139
4.56907e-140
1.30792e-140
3.98056e-141
1.26038e-141
4.10591e-142
1.37081e-142
4.64201e-143
1.56795e-143
5.22294e-144
1.7393e-144
5.737e-145
1.87097e-145
6.14516e-146
1.99661e-146
6.44145e-147
2.10554e-147
6.95189e-148
2.31362e-148
7.48407e-149
2.33086e-149
6.57081e-150
1.78306e-150
4.60676e-151
1.08221e-151
2.62164e-152
2.31298e-131
3.90617e-132
6.87128e-133
1.2556e-133
2.37314e-134
4.69381e-135
9.64316e-136
2.04778e-136
4.51064e-137
1.02236e-137
2.40282e-138
5.86697e-139
1.48969e-139
3.94466e-140
1.13072e-140
3.44256e-141
1.1074e-141
3.66993e-142
1.24468e-142
4.242e-143
1.45579e-143
4.89966e-144
1.63845e-144
5.45988e-145
1.78846e-145
5.87279e-146
1.90507e-146
6.15303e-147
1.99689e-147
6.60615e-148
2.23297e-148
7.28447e-149
2.21258e-149
6.17108e-150
1.5497e-150
3.67352e-151
8.39728e-152
2.28643e-152
9.63527e-132
1.67177e-132
3.03169e-133
5.69576e-134
1.10961e-134
2.24677e-135
4.72645e-136
1.02188e-136
2.27873e-137
5.19246e-138
1.24157e-138
3.03266e-139
7.73526e-140
2.06157e-140
5.88551e-141
1.79522e-141
5.66526e-142
1.89634e-142
6.41186e-143
2.23005e-143
7.9165e-144
2.78256e-144
9.56323e-145
3.28524e-145
1.08478e-145
3.64601e-146
1.16268e-146
3.77706e-147
1.19151e-147
4.07527e-148
1.48693e-148
5.4172e-149
2.01665e-149
7.36848e-150
2.41069e-150
7.71992e-151
2.56289e-151
6.09829e-152
2.2932e-132
4.09519e-133
7.70953e-134
1.49879e-134
3.01135e-135
6.23025e-136
1.35555e-136
2.99407e-137
6.76626e-138
1.52518e-138
3.68985e-139
9.014e-140
2.27147e-140
5.68113e-141
1.41762e-141
3.85838e-142
1.09793e-142
3.61704e-143
1.20099e-143
4.38644e-144
1.72291e-144
6.65581e-145
2.5207e-145
9.32237e-146
3.25392e-146
1.15443e-146
3.69219e-147
1.10302e-147
3.06901e-148
9.56362e-149
3.29295e-149
1.1482e-149
4.13723e-150
1.93695e-150
6.68193e-151
2.49881e-151
1.1368e-151
4.10285e-152
2.63717e-133
4.79109e-134
9.47486e-135
1.93188e-135
4.01601e-136
8.38548e-137
1.90006e-137
4.32494e-138
9.82089e-139
2.16826e-139
5.08007e-140
1.20748e-140
3.15567e-141
7.07305e-142
1.42541e-142
3.31205e-143
7.61302e-144
2.11996e-144
7.27628e-145
3.6904e-145
1.89532e-145
8.61825e-146
3.58181e-146
1.43867e-146
5.25355e-147
1.84065e-147
5.72512e-148
1.53757e-148
3.8109e-149
1.21469e-149
4.65745e-150
1.93914e-150
8.90892e-151
5.76262e-151
3.08796e-151
1.44053e-151
6.86569e-152
3.3312e-152
1.01464e-134
1.94009e-135
4.05156e-136
8.7047e-137
1.89052e-137
3.72821e-138
8.95476e-139
2.05616e-139
4.56241e-140
1.0629e-140
2.30871e-141
5.43685e-142
1.57806e-142
2.90507e-143
2.39997e-144
5.0797e-145
1.5369e-145
6.12787e-146