/*--------------------------------*- C++ -*----------------------------------*\
| =========                 |                                                 |
| \\      /  F ield         | OpenFOAM: The Open Source CFD Toolbox           |
|  \\    /   O peration     | Version:  2.3.1                                 |
|   \\  /    A nd           | Web:      www.OpenFOAM.org                      |
|    \\/     M anipulation  |                                                 |
\*---------------------------------------------------------------------------*/
FoamFile
{
    version     2.0;
    format      ascii;
    class       volScalarField;
    location    "20";
    object      Sed_0;
}
// * * * * * * * * * * * * * * * * * * * * * * * * * * * * * * * * * * * * * //

dimensions      [0 0 0 0 0 0 0];

internalField   nonuniform List<scalar> 
38262
(
2.97035e-139
1.73737e-140
2.30442e-141
2.34761e-142
2.60796e-143
4.84985e-144
2.35559e-144
2.36277e-144
1.07417e-144
3.71848e-145
2.05852e-145
7.08893e-146
2.52971e-146
8.38247e-147
1.82752e-147
3.63583e-148
2.65445e-148
3.34723e-148
3.90385e-148
3.52366e-148
1.70505e-148
8.5502e-149
7.66542e-149
6.7194e-149
6.72484e-149
3.7745e-149
2.83492e-149
1.92076e-149
1.20592e-149
1.15437e-149
5.62975e-150
4.58756e-150
1.70999e-150
1.442e-150
6.8992e-151
5.45563e-151
5.0928e-151
2.81849e-151
1.16125e-137
9.27162e-139
1.19579e-139
1.48212e-140
1.82757e-141
3.02646e-142
1.09481e-142
4.90025e-143
1.72215e-143
5.06072e-144
1.19727e-144
2.49756e-145
6.54718e-146
2.97736e-146
2.2677e-146
1.54634e-146
7.14733e-147
3.88048e-147
3.55553e-147
3.50927e-147
2.79594e-147
1.46832e-147
1.17515e-147
6.15556e-148
4.27745e-148
2.42607e-148
1.68091e-148
1.06781e-148
6.72009e-149
5.24134e-149
2.93566e-149
1.55696e-149
8.25652e-150
2.72824e-150
1.28339e-150
8.73294e-151
5.30566e-151
2.99714e-151
2.22147e-136
2.02232e-137
2.92128e-138
4.25326e-139
5.52726e-140
8.75305e-141
1.89392e-141
4.89943e-142
1.48731e-142
4.25143e-143
1.12417e-143
2.6235e-144
5.12661e-145
1.11407e-145
4.1098e-146
2.75146e-146
1.90493e-146
1.70759e-146
1.36611e-146
1.02993e-146
8.34454e-147
3.7098e-147
2.16672e-147
1.04666e-147
5.74167e-148
3.33088e-148
3.12603e-148
1.37981e-148
1.28976e-148
8.81638e-149
3.11379e-149
1.20321e-149
5.49887e-150
2.70385e-150
1.23766e-150
7.4411e-151
4.42676e-151
1.93194e-151
1.68697e-135
2.72443e-136
4.06184e-137
5.16613e-138
5.94374e-139
8.31174e-140
2.23243e-140
7.03887e-141
2.15268e-141
6.69607e-142
1.95318e-142
5.20061e-143
1.43342e-143
3.07006e-144
6.53654e-145
2.70695e-145
1.07654e-145
8.79373e-146
4.02455e-146
3.66603e-146
2.98182e-146
1.60667e-146
6.08526e-147
4.79093e-147
2.28422e-147
1.55412e-147
8.95037e-148
3.52679e-148
2.58339e-148
1.38684e-148
5.64059e-149
2.15254e-149
7.64955e-150
2.65618e-150
7.14328e-151
4.95155e-151
3.37705e-151
1.23438e-151
4.42321e-135
8.99641e-136
1.76644e-136
3.26526e-137
5.68401e-138
8.59918e-139
1.6155e-139
3.24138e-140
6.61311e-141
1.53396e-141
4.06813e-142
1.43853e-142
4.03489e-143
1.49528e-143
3.97104e-144
2.07916e-144
7.93088e-145
2.92042e-145
1.92269e-145
1.26284e-145
8.07817e-146
3.16918e-146
1.64818e-146
7.5736e-147
4.14406e-147
2.32191e-147
9.53499e-148
3.57038e-148
2.39452e-148
9.20412e-149
4.66862e-149
1.75058e-149
9.41699e-150
3.99509e-150
1.68015e-150
7.70424e-151
3.14717e-151
9.62808e-152
1.10163e-134
1.66237e-135
4.41172e-136
9.20245e-137
1.68691e-137
3.39889e-138
8.73158e-139
2.37524e-139
7.48938e-140
1.58491e-140
3.83673e-141
1.55348e-141
4.23049e-142
1.04156e-142
3.36133e-143
1.15274e-143
4.5418e-144
1.30681e-144
6.05308e-145
4.94767e-145
2.00544e-145
8.70757e-146
5.0271e-146
2.08083e-146
1.03696e-146
4.61401e-147
2.00371e-147
8.47995e-148
3.74467e-148
1.476e-148
5.82063e-149
1.91323e-149
8.63169e-150
3.50017e-150
1.31849e-150
4.98952e-151
2.03033e-151
7.01901e-152
4.68504e-134
6.35724e-135
1.14822e-135
2.54897e-136
4.3849e-137
9.84711e-138
2.35185e-138
5.78549e-139
1.70799e-139
5.25134e-140
1.36342e-140
4.10565e-141
1.74834e-141
4.69797e-142
1.60521e-142
6.0237e-143
2.70652e-143
1.02737e-143
3.46057e-144
1.42128e-144
5.64881e-145
2.00119e-145
7.58108e-146
3.41046e-146
9.96098e-147
3.84591e-147
1.73537e-147
5.62332e-148
1.69248e-148
6.68097e-149
3.45354e-149
1.55426e-149
7.19161e-150
4.00609e-150
1.44986e-150
4.13063e-151
1.29078e-151
4.75873e-152
6.83639e-134
1.16491e-134
2.07553e-135
4.37149e-136
8.03001e-137
1.85609e-137
4.24956e-138
1.00193e-138
2.67666e-139
7.72582e-140
1.93413e-140
5.80367e-141
1.86862e-141
4.90327e-142
1.54715e-142
5.18785e-143
2.65288e-143
9.70308e-144
3.68617e-144
1.28898e-144
6.38852e-145
2.48334e-145
9.36359e-146
3.78504e-146
1.28435e-146
4.40713e-147
1.7084e-147
5.58917e-148
1.54055e-148
2.89365e-149
6.58235e-150
4.72091e-150
1.62656e-150
1.78879e-150
1.00361e-150
3.13257e-151
9.48547e-152
3.03959e-152
2.89442e-134
5.59034e-135
1.13506e-135
2.25604e-136
4.78212e-137
1.14889e-137
2.54497e-138
5.99535e-139
1.39665e-139
3.91914e-140
1.04046e-140
2.38425e-141
6.34072e-142
1.32423e-142
3.86211e-143
1.14446e-143
4.04322e-144
1.96336e-144
8.86053e-145
3.64547e-145
1.85004e-145
7.96401e-146
3.10637e-146
1.22879e-146
5.0162e-147
2.00634e-147
6.00308e-148
2.3965e-148
8.08146e-149
2.86478e-149
1.12948e-149
4.61501e-150
2.08723e-150
9.87171e-151
5.87714e-151
1.65168e-151
4.70031e-152
1.72592e-152
5.5816e-135
1.13786e-135
2.46732e-136
4.91329e-137
1.09572e-137
2.53814e-138
5.96856e-139
1.39225e-139
2.8853e-140
6.02659e-141
1.66223e-141
3.55258e-142
7.31892e-143
9.41884e-144
2.79012e-144
8.56377e-145
3.66368e-145
3.18867e-145
1.35996e-145
6.23626e-146
3.04791e-146
1.25417e-146
7.68558e-147
3.02908e-147
1.07829e-147
5.86642e-148
2.27767e-148
6.57849e-149
1.38008e-149
2.75241e-150
1.58971e-150
1.31082e-150
7.58763e-151
4.35442e-151
3.21262e-151
1.15037e-151
3.42185e-152
1.29035e-152
3.98126e-136
9.37894e-137
1.93153e-137
3.93913e-138
9.51567e-139
2.15163e-139
4.61456e-140
1.17303e-140
2.13033e-141
3.91499e-142
1.36319e-142
2.03528e-143
2.81639e-144
1.80792e-144
6.38728e-145
1.55818e-145
6.32132e-146
2.7451e-146
1.1524e-146
8.41131e-147
3.9646e-147
2.09659e-147
1.41846e-147
6.10036e-148
2.52516e-148
1.38793e-148
6.51368e-149
2.74832e-149
9.66972e-150
3.09377e-150
1.22902e-150
6.11575e-151
3.77614e-151
2.84248e-151
2.01336e-151
7.50328e-152
2.61503e-152
1.17226e-152
9.71131e-138
3.64728e-138
6.24885e-139
1.28347e-139
3.97651e-140
7.35918e-141
1.31139e-141
2.85992e-142
4.26356e-143
4.67034e-144
7.46725e-144
2.29292e-144
1.00586e-144
3.92183e-145
2.17667e-146
2.63309e-147
1.11383e-147
8.46924e-148
5.54696e-148
4.81694e-148
1.94206e-148
1.31014e-148
8.3636e-149
3.13605e-149
1.55626e-149
8.92366e-150
3.83115e-150
8.74661e-151
1.41775e-151
7.92759e-152
8.28795e-152
8.9387e-152
1.14161e-151
1.23365e-151
9.98367e-152
3.92165e-152
1.71815e-152
9.75481e-153
3.55004e-138
3.83415e-139
4.75957e-140
5.15047e-141
4.88997e-142
7.19842e-143
2.44672e-143
2.04919e-143
1.48015e-143
5.14763e-144
1.9657e-144
6.49065e-145
2.16442e-145
6.4981e-146
1.34209e-146
2.52928e-147
1.38037e-147
1.36233e-147
1.39766e-147
1.23489e-147
6.23846e-148
2.76508e-148
1.91947e-148
1.42187e-148
1.19931e-148
6.5187e-149
4.05937e-149
2.64766e-149
1.75151e-149
9.3433e-150
6.48095e-150
3.3595e-150
2.8125e-150
1.04179e-150
7.25228e-151
6.59814e-151
5.24004e-151
2.15397e-151
1.3297e-136
1.57179e-137
2.01407e-138
2.55413e-139
3.14978e-140
4.52113e-141
1.08012e-141
4.20769e-142
1.6244e-142
5.20183e-143
1.42806e-143
3.43705e-144
9.34352e-145
3.27828e-145
1.62292e-145
7.5629e-146
3.50054e-146
1.84889e-146
1.59402e-146
1.4227e-146
1.01019e-146
5.22806e-147
3.39829e-147
1.55592e-147
9.86837e-148
5.05657e-148
2.74301e-148
1.66389e-148
1.0224e-148
5.24334e-149
3.15126e-149
1.52605e-149
8.33387e-150
3.60963e-150
2.1354e-150
1.20906e-150
3.89499e-151
3.2767e-151
2.65935e-135
3.47443e-136
4.82885e-137
6.79986e-138
9.43571e-139
1.4161e-139
2.50957e-140
5.70983e-141
1.68891e-141
4.82343e-142
1.27696e-142
2.99176e-143
6.01788e-144
1.36068e-144
4.50038e-145
2.44532e-145
1.48527e-145
1.22033e-145
9.06864e-146
6.46387e-146
4.5628e-146
2.10034e-146
1.24872e-146
5.05914e-147
3.12283e-147
1.28328e-147
7.37631e-148
4.15096e-148
2.3685e-148
1.38434e-148
5.38396e-149
2.37587e-149
8.93983e-150
4.9288e-150
2.50541e-150
1.02706e-150
4.77062e-151
2.82821e-151
2.16697e-134
3.56563e-135
5.62491e-136
8.34448e-137
1.15272e-137
1.8515e-138
3.91533e-139
1.03364e-139
2.84195e-140
7.77526e-141
2.13309e-141
5.80662e-142
1.57745e-142
3.85861e-143
9.08084e-144
3.43717e-144
1.42903e-144
8.60563e-145
4.49053e-145
2.96609e-145
1.90321e-145
9.36372e-146
4.30449e-146
2.24569e-146
1.1022e-146
5.80013e-147
2.69331e-147
1.16733e-147
6.43437e-148
2.27189e-148
8.33034e-149
3.16644e-149
1.24969e-149
5.63405e-150
1.19111e-150
8.43556e-151
4.4856e-151
1.72979e-151
8.55874e-134
1.56659e-134
2.87037e-135
5.20034e-136
9.21948e-137
1.60987e-137
3.11261e-138
6.44377e-139
1.34918e-139
3.14714e-140
7.88951e-141
2.38787e-141
6.43827e-142
2.21131e-142
5.84139e-143
2.65777e-143
1.01708e-143
4.24457e-144
2.12349e-144
1.14255e-144
6.0183e-145
2.48544e-145
1.16274e-145
4.6061e-146
2.32734e-146
9.8847e-147
3.64147e-147
1.59465e-147
6.99013e-148
2.30874e-148
1.20454e-148
3.82834e-149
1.87256e-149
7.87146e-150
3.46679e-150
1.28466e-150
4.60772e-151
1.12972e-151
3.02831e-133
4.85623e-134
9.22709e-135
1.75294e-135
3.2536e-136
6.64279e-137
1.52948e-137
3.78046e-138
1.01107e-138
2.41498e-139
6.29814e-140
1.93377e-140
5.15371e-141
1.51395e-141
4.53338e-142
1.62496e-142
5.22041e-143
1.82721e-143
7.99642e-144
3.95624e-144
1.66866e-144
6.68314e-145
2.92696e-145
1.13919e-145
4.54544e-146
1.80529e-146
7.16184e-147
2.67033e-147
1.0544e-147
3.6976e-148
1.44518e-148
4.42626e-149
1.84256e-149
5.80862e-150
1.96356e-150
8.87143e-151
2.54202e-151
6.53245e-152
7.29882e-133
1.11832e-133
2.03337e-134
4.00611e-135
7.51355e-136
1.58389e-136
3.51021e-137
8.14927e-138
2.05104e-138
5.39657e-139
1.41528e-139
3.89565e-140
1.26299e-140
3.61289e-141
1.16105e-141
4.13215e-142
1.5415e-142
5.58672e-143
1.96105e-143
7.53003e-144
2.81333e-144
9.80168e-145
3.63217e-145
1.38589e-145
4.18062e-146
1.59808e-146
6.28072e-147
1.94764e-147
6.71217e-148
2.60967e-148
9.38662e-149
4.08536e-149
1.61382e-149
6.354e-150
1.55402e-150
5.15893e-151
1.75394e-151
4.1675e-152
7.32871e-133
1.28088e-133
2.34484e-134
4.63438e-135
9.01108e-136
1.95209e-136
4.343e-137
9.99581e-138
2.46608e-138
6.36774e-139
1.62103e-139
4.47238e-140
1.28207e-140
3.56122e-141
1.12169e-141
3.72033e-142
1.47789e-142
5.24614e-143
1.92193e-143
6.8191e-144
2.79272e-144
1.01654e-144
3.69281e-145
1.37173e-145
4.76701e-146
1.66512e-146
6.12431e-147
2.03854e-147
6.25942e-148
1.80419e-148
3.99889e-149
2.25562e-149
7.71553e-150
3.57949e-150
1.36643e-150
3.59514e-151
1.04958e-151
2.60658e-152
3.045e-133
5.72029e-134
1.11934e-134
2.23466e-135
4.69933e-136
1.04181e-136
2.33078e-137
5.37335e-138
1.26327e-138
3.18315e-139
8.28586e-140
2.07977e-140
5.71188e-141
1.41316e-141
4.40794e-142
1.33132e-142
4.63418e-143
1.81356e-143
6.84199e-144
2.57169e-144
1.054e-144
4.2328e-145
1.55874e-145
5.76656e-146
2.11402e-146
7.94401e-147
2.47871e-147
9.93096e-148
2.78464e-148
1.06853e-148
4.41185e-149
1.66196e-149
7.58471e-150
2.13733e-150
6.74034e-151
2.46869e-151
6.69811e-152
2.33587e-152
6.28285e-134
1.22495e-134
2.4984e-135
5.12749e-136
1.11961e-136
2.46454e-137
5.77544e-138
1.331e-138
2.98879e-139
6.54115e-140
1.84456e-140
4.36587e-141
1.04253e-141
2.06412e-142
5.10407e-143
1.40092e-143
4.59927e-144
2.49487e-144
8.94515e-145
3.81988e-145
1.76582e-145
7.3221e-146
3.46891e-146
1.35473e-146
4.62349e-147
2.15703e-147
8.06763e-148
2.44825e-148
6.33304e-149
1.60797e-149
5.14555e-150
2.47794e-150
1.44813e-150
6.52261e-151
3.25961e-151
1.82655e-151
6.30775e-152
2.34026e-152
5.26492e-135
1.08368e-135
2.18362e-136
4.82165e-137
1.08682e-137
2.36367e-138
5.45837e-139
1.29873e-139
2.62176e-140
5.24986e-141
1.87163e-141
3.83855e-142
1.00351e-142
2.89016e-143
6.51857e-144
1.54392e-144
4.90158e-145
1.80483e-145
6.88775e-146
3.91805e-146
2.05902e-146
1.0183e-146
5.22137e-147
2.32585e-147
9.22605e-148
4.32171e-148
1.79811e-148
6.55484e-149
1.85878e-149
4.99507e-150
1.78372e-150
7.97797e-151
4.29661e-151
2.7908e-151
1.98871e-151
1.22966e-151
5.1413e-152
2.14978e-152
1.61738e-136
4.00079e-137
6.84883e-138
1.72829e-138
4.27265e-139
7.79569e-140
1.92443e-140
4.14148e-141
6.00209e-142
8.99316e-143
6.56861e-143
2.18645e-143
9.00425e-144
2.35131e-144
2.56042e-145
3.07097e-146
1.06987e-146
5.02561e-147
3.31668e-147
2.48277e-147
1.2937e-147
6.93606e-148
3.3992e-148
1.65867e-148
6.65307e-149
2.96625e-149
1.08359e-149
2.45031e-150
3.83721e-151
1.2656e-151
8.62317e-152
8.05351e-152
1.03867e-151
1.10555e-151
9.60143e-152
5.03476e-152
2.25192e-152
1.20179e-152
1.40449e-137
2.03032e-138
2.9193e-139
3.1996e-140
2.95452e-141
3.73741e-142
9.97724e-143
7.8505e-143
7.17947e-143
2.90121e-143
1.06004e-143
3.52985e-144
1.10488e-144
2.73759e-145
4.9886e-146
8.72382e-147
3.86036e-147
3.38427e-147
3.09099e-147
2.88067e-147
1.37536e-147
5.73434e-148
3.11254e-148
2.04837e-148
1.58624e-148
8.97459e-149
5.21351e-149
3.53142e-149
1.89192e-149
9.94447e-150
7.50863e-150
3.4589e-150
2.52827e-150
1.16543e-150
5.52024e-151
1.86177e-151
2.277e-151
7.90879e-152
7.18077e-136
9.42342e-137
1.15401e-137
1.42139e-138
1.85808e-139
2.62975e-140
5.30268e-141
1.85264e-141
7.82803e-142
3.09557e-142
9.67791e-143
2.52233e-143
6.9657e-144
2.31557e-144
8.50233e-145
2.79359e-145
1.09498e-145
5.35571e-146
4.02231e-146
3.30295e-146
2.13081e-146
1.09503e-146
6.02762e-147
2.66699e-147
1.47042e-147
7.42398e-148
3.66973e-148
2.18627e-148
1.17636e-148
5.5769e-149
3.24978e-149
1.50782e-149
8.19828e-150
4.01777e-150
1.94745e-150
9.14624e-151
2.16215e-151
1.81268e-151
1.53602e-134
2.1109e-135
2.92514e-136
4.02389e-137
5.68082e-138
8.62207e-139
1.47774e-139
3.14068e-140
9.21912e-141
2.63262e-141
7.14784e-142
1.75658e-142
4.0889e-143
1.02576e-143
3.11252e-144
1.34633e-144
6.97008e-145
4.96133e-145
3.40523e-145
2.18372e-145
1.3036e-145
6.29342e-146
3.18673e-146
1.35958e-146
6.6211e-147
2.87682e-147
1.38653e-147
6.97038e-148
3.07619e-148
1.47622e-148
5.98965e-149
2.52181e-149
1.15962e-149
5.23536e-150
2.47586e-150
9.45946e-151
2.92315e-151
1.51729e-151
1.5788e-133
2.50562e-134
3.81732e-135
5.70329e-136
8.39346e-137
1.41443e-137
2.80849e-138
6.82987e-139
1.77857e-139
4.61226e-140
1.23612e-140
3.35356e-141
9.35253e-142
2.64115e-142
7.33564e-143
2.57901e-143
1.02827e-143
4.81316e-144
2.41115e-144
1.24503e-144
6.2516e-145
2.84452e-145
1.22992e-145
5.60691e-146
2.41342e-146
1.10359e-146
4.65659e-147
1.99731e-147
8.59756e-148
3.28311e-148
1.25563e-148
4.66523e-149
1.73061e-149
6.55415e-150
2.21932e-150
8.61766e-151
3.52443e-151
1.48486e-151
8.0601e-133
1.37009e-133
2.3267e-134
3.9716e-135
6.85067e-136
1.2154e-136
2.32239e-137
4.79899e-138
1.03641e-138
2.41683e-139
6.01731e-140
1.64823e-140
4.50843e-141
1.4097e-141
4.1574e-142
1.57786e-142
5.96652e-143
2.377e-143
1.05646e-143
4.63423e-144
1.99186e-144
7.95181e-145
3.25141e-145
1.26362e-145
5.24074e-146
2.04478e-146
7.7202e-147
3.07657e-147
1.15245e-147
4.20874e-148
1.64162e-148
5.71937e-149
2.17533e-149
7.92971e-150
3.03837e-150
9.03774e-151
2.63395e-151
8.42491e-152
2.57963e-132
4.24896e-133
7.44763e-134
1.33529e-134
2.45315e-135
4.85391e-136
1.03611e-136
2.36156e-137
5.70195e-138
1.36436e-138
3.42633e-139
9.17876e-140
2.43685e-140
6.99404e-141
2.08914e-141
6.9788e-142
2.33383e-142
8.28436e-143
3.21614e-143
1.29346e-143
4.97289e-144
1.85237e-144
6.99696e-145
2.5611e-145
9.44222e-146
3.4967e-146
1.28812e-146
4.63586e-147
1.71562e-147
5.97461e-148
2.1356e-148
7.158e-149
2.50465e-149
7.99666e-150
2.66356e-150
1.01853e-150
2.60731e-151
5.48258e-152
4.12285e-132
6.80115e-133
1.21211e-133
2.26573e-134
4.28609e-135
8.68615e-136
1.8395e-136
4.06143e-137
9.44732e-138
2.27934e-138
5.69818e-139
1.48355e-139
4.2133e-140
1.19949e-140
3.69065e-141
1.21417e-141
4.16832e-142
1.44797e-142
5.09146e-143
1.85202e-143
6.62827e-144
2.29463e-144
8.12959e-145
2.85846e-145
9.5993e-146
3.38613e-146
1.18967e-146
3.94631e-147
1.35397e-147
4.86551e-148
1.76174e-148
6.57383e-149
2.29899e-149
7.41042e-150
2.1037e-150
5.45891e-151
1.79808e-151
4.07157e-152
3.44362e-132
5.99242e-133
1.08993e-133
2.07975e-134
4.04921e-135
8.41399e-136
1.81442e-136
4.04392e-137
9.43122e-138
2.28076e-138
5.64976e-139
1.47304e-139
3.98002e-140
1.10464e-140
3.36702e-141
1.07896e-141
3.79403e-142
1.32058e-142
4.72092e-143
1.67471e-143
6.2207e-144
2.19049e-144
7.71188e-145
2.73228e-145
9.37084e-146
3.25804e-146
1.12949e-146
3.80766e-147
1.23748e-147
4.11557e-148
1.28763e-148
5.26216e-149
1.78702e-149
6.05487e-150
1.81452e-150
4.35961e-151
1.0616e-151
2.77813e-152
1.42201e-132
2.58651e-133
4.91878e-134
9.65647e-135
1.97101e-135
4.19692e-136
9.2391e-137
2.07874e-137
4.80708e-138
1.14608e-138
2.89674e-139
7.31114e-140
1.96692e-140
5.33081e-141
1.58287e-141
5.02111e-142
1.68358e-142
6.03324e-143
2.13205e-143
7.63151e-144
2.84712e-144
1.06491e-144
3.77297e-145
1.37442e-145
4.68606e-146
1.71248e-146
5.52912e-147
2.00176e-147
6.30112e-148
2.18394e-148
8.93216e-149
3.38721e-149
1.46292e-149
5.17774e-150
1.71024e-150
4.45784e-151
1.10612e-151
4.28496e-152
3.1606e-133
5.92762e-134
1.16983e-134
2.37509e-135
5.01343e-136
1.0775e-136
2.45803e-137
5.55789e-138
1.27554e-138
2.85296e-139
7.50825e-140
1.86101e-140
4.79071e-141
1.2058e-141
3.01989e-142
8.32256e-143
2.48428e-143
9.81159e-144
3.3371e-144
1.27032e-144
5.24107e-145
2.12023e-145
8.69397e-146
3.40085e-146
1.18287e-146
4.86071e-147
1.72201e-147
5.54738e-148
1.59136e-148
4.50794e-149
1.57605e-149
5.76508e-150
2.62753e-150
1.284e-150
5.48144e-151
2.3468e-151
1.04387e-151
3.74544e-152
3.12179e-134
6.02192e-135
1.22885e-135
2.6582e-136
5.84648e-137
1.2511e-137
2.96174e-138
6.64489e-139
1.48145e-139
3.14079e-140
8.24618e-141
1.85876e-141
4.75396e-142
1.41982e-142
3.0746e-143
7.4667e-144
2.00465e-144
6.1517e-145
2.09187e-145
1.05544e-145
5.41931e-146
2.64896e-146
1.19419e-146
5.28408e-147
2.06241e-147
8.6127e-148
3.25265e-148
1.07092e-148
2.81426e-149
8.0594e-150
2.98393e-150
1.26926e-150
6.23937e-151
3.93022e-151
2.27546e-151
1.44324e-151
8.29399e-152
3.30023e-152
1.03829e-135
2.2454e-136
4.29004e-137
1.00561e-137
2.34029e-138
4.43501e-139
1.2024e-139
2.49901e-140
4.28463e-141
7.68044e-142
2.18459e-142
5.81393e-143
2.4367e-143
7.39965e-144
1.17306e-144
1.30812e-145
3.84475e-146
1.5041e-146
8.90563e-147
6.61519e-147
3.71077e-147
1.84813e-147
8.12251e-148
3.99417e-148
1.51853e-148
5.84135e-149
1.89096e-149
4.05544e-150
7.32662e-151
2.18664e-151
1.09907e-151
8.70109e-152
1.02119e-151
1.11423e-151
9.14465e-152
5.41132e-152
3.33764e-152
1.5526e-152
4.92456e-137
7.60012e-138
1.44991e-138
1.51783e-139
1.17296e-140
1.28531e-141
2.87953e-142
2.08306e-142
2.31156e-142
1.16684e-142
3.9252e-143
1.24865e-143
3.56027e-144
6.90726e-145
1.13238e-145
2.10634e-146
8.01099e-147
6.05742e-147
4.74965e-147
4.41508e-147
2.19503e-147
8.37397e-148
3.8436e-148
2.20083e-148
1.5902e-148
9.5655e-149
5.55642e-149
3.77142e-149
1.88584e-149
9.91015e-150
7.33993e-150
3.4226e-150
2.18532e-150
9.46244e-151
3.9936e-151
1.02848e-151
9.55956e-152
4.07435e-152
3.07573e-135
4.03051e-136
4.69102e-137
5.22473e-138
6.88478e-139
9.94148e-140
1.88525e-140
6.20118e-141
2.8818e-141
1.31523e-141
4.57109e-142
1.2841e-142
3.49873e-143
1.00212e-143
2.90832e-144
7.7703e-145
2.50681e-145
1.10428e-145
6.84792e-146
5.16673e-146
3.19478e-146
1.56131e-146
7.7113e-147
3.24771e-147
1.64339e-147
8.15711e-148
3.93506e-148
2.2977e-148
1.19945e-148
5.32236e-149
3.07757e-149
1.40325e-149
7.09589e-150
3.44922e-150
1.42271e-150
6.17188e-151
1.60694e-151
8.61341e-152
6.84349e-134
9.44323e-135
1.28154e-135
1.67348e-136
2.299e-137
3.46152e-138
5.84694e-139
1.2098e-139
3.55934e-140
1.07785e-140
3.19914e-141
8.10432e-142
2.00244e-142
5.29776e-143
1.52098e-143
5.50637e-144
2.28317e-144
1.32592e-144
7.81665e-145
4.3188e-145
2.28128e-145
1.04009e-145
4.71007e-146
1.91174e-146
8.50638e-147
3.65474e-147
1.63783e-147
8.03015e-148
3.61587e-148
1.52909e-148
6.83158e-149
2.6013e-149
1.15307e-149
4.6656e-150
1.93772e-150
6.2001e-151
1.67705e-151
6.01867e-152
7.8237e-133
1.2071e-133
1.80221e-134
2.63687e-135
3.925e-136
6.57407e-137
1.24847e-137
2.83944e-138
7.13755e-139
1.80749e-139
4.77181e-140
1.28113e-140
3.49731e-141
9.82341e-142
2.84168e-142
9.26049e-143
3.42222e-143
1.39274e-143
6.21431e-144
2.77227e-144
1.21201e-144
4.98422e-145
2.01053e-145
8.12105e-146
3.32932e-146
1.34452e-146
5.53451e-147
2.32137e-147
9.20276e-148
3.58478e-148
1.34669e-148
4.95327e-149
1.73206e-149
5.73844e-150
2.21202e-150
7.20262e-151
1.83548e-151
8.21919e-152
3.80145e-132
6.22563e-133
1.02508e-133
1.70633e-134
2.89399e-135
5.1026e-136
9.59088e-137
1.93902e-137
4.20319e-138
9.66107e-139
2.36109e-139
6.12425e-140
1.63467e-140
4.76623e-141
1.41383e-141
4.76336e-142
1.6816e-142
6.20607e-143
2.47542e-143
9.81423e-144
3.8737e-144
1.47803e-144
5.62289e-145
2.09802e-145
7.99034e-146
2.96416e-146
1.09735e-146
4.03593e-147
1.46786e-147
5.21438e-148
1.82821e-148
6.18613e-149
2.14959e-149
7.18204e-150
2.49327e-150
7.71488e-151
2.01011e-151
4.69166e-152
9.9175e-132
1.63386e-132
2.8021e-133
4.93088e-134
8.97026e-135
1.73315e-135
3.55164e-136
7.69619e-137
1.75664e-137
4.07252e-138
9.80571e-139
2.46344e-139
6.3218e-140
1.73784e-140
5.04856e-141
1.59616e-141
5.24572e-142
1.80643e-142
6.54103e-143
2.42103e-143
8.79819e-144
3.13664e-144
1.12029e-144
3.94389e-145
1.3935e-145
4.95402e-146
1.72787e-146
5.9865e-147
2.0797e-147
7.05299e-148
2.41913e-148
8.06821e-149
2.67232e-149
8.10456e-150
2.63498e-150
9.81535e-151
2.81976e-151
5.10972e-152
1.31648e-131
2.19119e-132
3.84155e-133
6.99049e-134
1.30822e-134
2.58177e-135
5.30264e-136
1.13131e-136
2.52257e-137
5.82703e-138
1.40247e-138
3.52017e-139
9.39222e-140
2.5891e-140
7.65849e-141
2.41242e-141
7.9032e-142
2.65291e-142
9.10118e-143
3.18212e-143
1.10411e-143
3.75446e-144
1.28606e-144
4.36916e-145
1.46182e-145
5.00747e-146
1.69206e-146
5.57814e-147
1.86666e-147
6.38317e-148
2.20535e-148
7.49703e-149
2.47844e-149
7.48213e-150
2.12725e-150
5.46828e-151
1.46783e-151
3.65229e-152
1.01122e-131
1.73513e-132
3.10592e-133
5.7868e-134
1.11154e-134
2.24599e-135
4.71406e-136
1.02271e-136
2.30656e-137
5.36438e-138
1.29116e-138
3.24138e-139
8.4607e-140
2.29163e-140
6.75496e-141
2.10664e-141
7.01291e-142
2.38111e-142
8.27882e-143
2.88439e-143
1.02318e-143
3.51977e-144
1.20631e-144
4.13805e-145
1.39348e-145
4.74927e-146
1.59714e-146
5.31608e-147
1.73796e-147
5.84323e-148
2.01026e-148
6.96392e-149
2.22736e-149
6.70433e-150
1.84505e-150
4.91286e-151
1.1233e-151
2.82214e-152
4.18772e-132
7.41719e-133
1.37387e-133
2.63593e-134
5.24571e-135
1.0854e-135
2.3319e-136
5.13627e-137
1.16605e-137
2.70631e-138
6.63965e-139
1.65355e-139
4.34217e-140
1.17455e-140
3.41026e-141
1.06432e-141
3.4502e-142
1.18633e-142
4.07527e-143
1.43532e-143
5.1865e-144
1.86934e-144
6.51688e-145
2.30415e-145
7.71325e-146
2.71127e-146
8.7936e-147
3.03911e-147
9.65093e-148
3.3714e-148
1.29394e-148
4.8621e-149
1.9035e-149
7.1009e-150
2.51865e-150
8.54662e-151
2.23166e-151
6.27471e-152
9.70138e-133
1.77113e-133
3.40369e-134
6.75947e-135
1.38853e-135
2.92195e-136
6.49497e-137
1.45161e-137
3.31919e-138
7.48759e-139
1.88557e-139
4.68041e-140
1.21506e-140
3.07723e-141
7.76797e-142
2.16386e-142
6.32712e-143
2.21621e-143
7.34994e-144
2.68598e-144
1.05676e-144
4.14715e-145
1.61039e-145
6.13025e-146
2.15357e-146
8.17285e-147
2.79176e-147
8.91066e-148
2.53054e-148
7.72694e-149
2.71944e-149
9.72732e-150
3.73731e-150
1.84651e-150
7.18642e-151
2.01151e-151
1.25663e-151
4.35289e-152
1.05599e-133
1.97106e-134
3.96231e-135
8.31105e-136
1.77663e-136
3.7436e-137
8.69194e-138
1.96608e-138
4.4712e-139
9.79382e-140
2.46117e-140
5.98061e-141
1.57879e-141
3.5734e-142
7.12931e-143
1.77312e-143
4.51578e-144
1.30597e-144
4.35482e-145
2.14513e-145
1.09295e-145
5.17571e-146
2.22026e-146
9.40728e-147
3.58795e-147
1.37324e-147
4.75111e-148
1.40069e-148
3.52261e-149
1.06725e-149
4.03817e-150
1.69517e-150
8.04493e-151
5.53267e-151
3.23578e-151
1.59937e-151
8.92575e-152
4.16396e-152
3.79786e-135
7.67916e-136
1.56346e-136
3.5075e-137
7.97808e-138
1.51999e-138
4.00667e-139
8.43151e-140
1.67316e-140
3.67298e-141
9.32133e-142
2.72972e-142
7.71022e-143
1.48293e-143
1.24465e-144
2.75332e-145
8.69624e-146
3.36573e-146
1.86683e-146
1.3864e-146
7.95652e-147
3.69391e-147
1.56891e-147
7.20549e-148
2.63716e-148
9.06945e-149
2.60554e-149
5.3155e-150
1.04422e-150
3.38713e-151
1.53517e-151
1.01113e-151
1.01719e-151
1.19783e-151
9.67986e-152
5.72564e-152
3.64352e-152
1.81451e-152
1.45748e-136
2.91916e-137
7.74004e-138
9.75639e-139
4.95242e-140
3.96964e-141
7.1335e-142
3.41796e-142
4.34603e-142
3.08215e-142
9.75994e-143
2.64271e-143
6.18102e-144
9.38915e-145
1.55455e-145
3.08123e-146
1.07236e-146
7.02623e-147
5.18531e-147
4.83609e-147
2.67234e-147
9.6297e-148
4.00868e-148
2.01858e-148
1.36652e-148
8.75782e-149
5.2214e-149
3.49681e-149
1.73322e-149
9.1441e-150
6.08212e-150
2.82182e-150
1.52038e-150
6.12407e-151
1.82668e-151
6.74635e-152
4.59206e-152
2.32135e-152
1.06355e-134
1.41216e-135
1.75556e-136
1.79376e-137
2.16086e-138
3.11494e-139
5.66543e-140
1.72882e-140
8.38806e-141
4.12863e-141
1.44599e-141
3.95665e-142
1.01529e-142
2.51291e-143
5.72174e-144
1.23348e-144
3.51883e-145
1.39468e-145
7.67209e-146
5.6366e-146
3.47e-146
1.65411e-146
7.80031e-147
3.19668e-147
1.53459e-147
7.45212e-148
3.58455e-148
2.01677e-148
1.03321e-148
4.58431e-149
2.42463e-149
1.07584e-149
4.8584e-150
2.22379e-150
6.97335e-151
2.59183e-151
5.41476e-152
2.70959e-152
2.38578e-133
3.33997e-134
4.60423e-135
5.77744e-136
7.47414e-137
1.07531e-137
1.78641e-138
3.6315e-139
9.93614e-140
3.22618e-140
1.01176e-140
2.70336e-141
6.9041e-142
1.84224e-142
5.00815e-143
1.47771e-143
4.92548e-144
2.13082e-144
1.01402e-144
5.13701e-145
2.56728e-145
1.13655e-145
4.9697e-146
1.96877e-146
8.4554e-147
3.60829e-147
1.56431e-147
7.40852e-148
3.2556e-148
1.32238e-148
5.82728e-149
2.10739e-149
8.63297e-150
3.20106e-150
1.15124e-150
2.94938e-151
6.56504e-152
2.02906e-152
2.55629e-132
3.9222e-133
5.96467e-134
8.75867e-135
1.29317e-135
2.09524e-136
3.79512e-137
8.11417e-138
1.9785e-138
4.98605e-139
1.30174e-139
3.39064e-140
8.81126e-141
2.33998e-141
6.36598e-142
1.89226e-142
6.38084e-143
2.3548e-143
9.20635e-144
3.68761e-144
1.48633e-144
5.83278e-145
2.28398e-145
8.83648e-146
3.50803e-146
1.3811e-146
5.53553e-147
2.23414e-147
8.51708e-148
3.22097e-148
1.13484e-148
3.9084e-149
1.27448e-149
3.78565e-150
1.49663e-150
4.24651e-151
9.33357e-152
2.98745e-152
1.10035e-131
1.77297e-132
2.89584e-133
4.79825e-134
8.07395e-135
1.41107e-135
2.60798e-136
5.16784e-137
1.10519e-137
2.50841e-138
6.01559e-139
1.50794e-139
3.8849e-140
1.06839e-140
3.02455e-141
9.38246e-142
3.07234e-142
1.06904e-142
3.96699e-143
1.48491e-143
5.49804e-144
1.99495e-144
7.1734e-145
2.56808e-145
9.25352e-146
3.32316e-146
1.20305e-146
4.27845e-147
1.5351e-147
5.21313e-148
1.74263e-148
5.61701e-149
1.82338e-149
5.55529e-150
1.76681e-150
4.81716e-151
1.26335e-151
2.49295e-152
2.5274e-131
4.12229e-132
6.96187e-133
1.20986e-133
2.17772e-134
4.13101e-135
8.24268e-136
1.73031e-136
3.81411e-137
8.61689e-138
2.01235e-138
4.8866e-139
1.22058e-139
3.23529e-140
9.10224e-141
2.75784e-141
8.7593e-142
2.91516e-142
1.0083e-142
3.55422e-143
1.24193e-143
4.28078e-144
1.46503e-144
4.95848e-145
1.67936e-145
5.68704e-146
1.90909e-146
6.4038e-147
2.15031e-147
7.11494e-148
2.3475e-148
7.48514e-149
2.33141e-149
6.63802e-150
2.16832e-150
6.9004e-151
1.68671e-151
3.29141e-152
3.09751e-131
5.11057e-132
8.80485e-133
1.57152e-133
2.89867e-134
5.60411e-135
1.12572e-135
2.34658e-136
5.09572e-137
1.14634e-137
2.68458e-138
6.5556e-139
1.68376e-139
4.50697e-140
1.28983e-140
3.92453e-141
1.2423e-141
4.04635e-142
1.35088e-142
4.57448e-143
1.54504e-143
5.14661e-144
1.71395e-144
5.6533e-145
1.84381e-145
6.05622e-146
1.96761e-146
6.34771e-147
2.07478e-147
6.84828e-148
2.27791e-148
7.36408e-149
2.29246e-149
6.46571e-150
1.75495e-150
4.53176e-151
1.06625e-151
2.58412e-152
2.28528e-131
3.85896e-132
6.78744e-133
1.24012e-133
2.34354e-134
4.63458e-135
9.51989e-136
2.02133e-136
4.45191e-137
1.00895e-137
2.3711e-138
5.78883e-139
1.46958e-139
3.89063e-140
1.11503e-140
3.39431e-141
1.09174e-141
3.61764e-142
1.22691e-142
4.18148e-143
1.435e-143
4.82948e-144
1.61509e-144
5.38218e-145
1.76311e-145
5.78973e-146
1.87803e-146
6.06493e-147
1.9682e-147
6.51163e-148
2.20072e-148
7.17553e-149
2.17785e-149
6.0717e-150
1.52638e-150
3.61778e-151
8.29097e-152
2.256e-152
9.51852e-132
1.65132e-132
2.99423e-133
5.62459e-134
1.09559e-134
2.21809e-135
4.6655e-136
1.00857e-136
2.24877e-137
5.12353e-138
1.22491e-138
2.99162e-139
7.62937e-140
2.03294e-140
5.8027e-141
1.76986e-141
5.5856e-142
1.86975e-142
6.32237e-143
2.19934e-143
7.80858e-144
2.7446e-144
9.43335e-145
3.24069e-145
1.07025e-145
3.59745e-146
1.14734e-146
3.72719e-147
1.17561e-147
4.01916e-148
1.46509e-148
5.32978e-149
1.98139e-149
7.24157e-150
2.3713e-150
7.60001e-151
2.52587e-151
6.02423e-152
2.26505e-132
4.04438e-133
7.61294e-134
1.4798e-134
2.97274e-135
6.14968e-136
1.33787e-136
2.95458e-137
6.67587e-138
1.5045e-138
3.63947e-139
8.88957e-140
2.23988e-140
5.59962e-141
1.39681e-141
3.8016e-142
1.08198e-142
3.56606e-143
1.18435e-143
4.32793e-144
1.70056e-144
6.5701e-145
2.48855e-145
9.20356e-146
3.21332e-146
1.14044e-146
3.64869e-147
1.09067e-147
3.0364e-148
9.46459e-149
3.25872e-149
1.13511e-149
4.06466e-150
1.88415e-150
6.49747e-151
2.45347e-151
1.11868e-151
4.03663e-152
2.60425e-133
4.73049e-134
9.35468e-135
1.90704e-135
3.96353e-136
8.27518e-137
1.87505e-137
4.26719e-138
9.68686e-139
2.13802e-139
5.0085e-140
1.19061e-140
3.11069e-141
6.9672e-142
1.40386e-142
3.26208e-143
7.49781e-144
2.08898e-144
7.17536e-145
3.64477e-145
1.87251e-145
8.51363e-146
3.53859e-146
1.42158e-146
5.19327e-147
1.82003e-147
5.66617e-148
1.52387e-148
3.78004e-149
1.20493e-149
4.62314e-150
1.92411e-150
8.7537e-151
5.62978e-151
3.03144e-151
1.42466e-151
6.80507e-152
3.29888e-152
1.0017e-134
1.91507e-135
3.99983e-136
8.59116e-137
1.86526e-137
3.67789e-138
8.83755e-139
2.02885e-139
4.50145e-140
1.04798e-140
2.27493e-141
5.3599e-142
1.55456e-142
2.85915e-143
2.35925e-144
5.00259e-145
1.51431e-145
6.04312e-146