/*--------------------------------*- C++ -*----------------------------------*\
| =========                 |                                                 |
| \\      /  F ield         | OpenFOAM: The Open Source CFD Toolbox           |
|  \\    /   O peration     | Version:  2.3.1                                 |
|   \\  /    A nd           | Web:      www.OpenFOAM.org                      |
|    \\/     M anipulation  |                                                 |
\*---------------------------------------------------------------------------*/
FoamFile
{
    version     2.0;
    format      ascii;
    class       volVectorField;
    location    "20";
    object      U;
}
// * * * * * * * * * * * * * * * * * * * * * * * * * * * * * * * * * * * * * //

dimensions      [0 1 -1 0 0 0 0];

internalField   nonuniform List<vector> 
38262
(
(-0.0253616 -0.00133016 0.00313928)
(-0.0373913 0.00295109 0.0014472)
(-0.0500938 0.00949026 0.00134005)
(-0.0809628 0.0281832 0.00555049)
(-0.157658 0.0526924 0.00809182)
(-0.275283 0.0367535 0.00531862)
(-0.339192 -0.037228 0.00277237)
(-0.306401 -0.0838726 0.00576953)
(-0.304794 -0.0502446 0.000707823)
(-0.324225 -0.00821088 -0.0218694)
(-0.268402 -0.009433 -0.0335039)
(-0.215004 0.000459147 -0.0242389)
(-0.211248 0.0364889 -0.0194416)
(-0.219885 0.057975 -0.0229)
(-0.223512 0.0301391 -0.0161468)
(-0.271951 -0.0433254 0.0105225)
(-0.349546 -0.0539915 0.0067033)
(-0.339252 -0.0524502 -0.00162331)
(-0.305817 -0.0699201 0.0154923)
(-0.340725 -0.0435438 0.0162541)
(-0.338453 -0.0284163 0.0155388)
(-0.389275 -0.0203531 0.0194838)
(-0.428957 -0.0512644 0.00764893)
(-0.393765 -0.130952 0.00514852)
(-0.30824 -0.170694 0.0124427)
(-0.284079 -0.182884 0.0157257)
(-0.237943 -0.181561 0.0200724)
(-0.197527 -0.177731 0.0171952)
(-0.199774 -0.195475 -0.00266151)
(-0.0713767 -0.171827 0.0368835)
(-0.190276 -0.153337 -0.0225318)
(0.0825336 -0.19721 0.0355272)
(-0.142684 -0.198041 -0.0461795)
(0.216481 -0.334912 8.24348e-05)
(0.29533 0.0228683 0.155921)
(-0.438625 0.982182 -0.415305)
(1.86609 -2.74915 -0.485852)
(-0.655699 3.55763 -0.398741)
(-0.00374207 -0.00528885 0.00154237)
(-0.0122087 0.00544939 0.0027037)
(-0.0155819 0.0195609 0.00125933)
(-0.0200515 0.0307641 0.0029608)
(-0.0204153 0.0501861 0.00297302)
(-0.0154528 0.0643707 -0.00377697)
(-0.00220863 0.0550072 -0.010132)
(-0.0036561 0.0355879 -0.00421424)
(-0.0374681 0.0246588 0.00848979)
(-0.0697343 0.0158172 0.0162992)
(-0.107793 0.0206183 0.0160295)
(-0.157611 0.0444028 0.00836298)
(-0.194868 0.0827553 -0.00412164)
(-0.164979 0.116714 -0.0174814)
(-0.10099 0.12936 -0.0359111)
(-0.0230073 0.104812 -0.0407929)
(0.0106473 0.0626475 -0.017006)
(0.0157776 0.0148986 -0.0133271)
(0.0405043 -0.0139434 -0.0139544)
(0.0545354 -0.0364093 -0.00970635)
(0.107638 -0.0419497 -0.00453113)
(0.0980887 -0.0251719 0.00207656)
(0.156317 -0.0469687 -0.0175744)
(0.217312 -0.00829154 -0.00350193)
(0.184255 -0.0376295 -0.0171176)
(0.302351 0.00097117 -0.00728702)
(0.195693 -0.00404802 0.00881525)
(0.319255 -0.0258543 -0.0214224)
(0.267981 0.0844969 0.0123061)
(0.345193 -0.0523069 0.0185751)
(0.178739 0.0762645 -0.0733984)
(0.439012 0.0323949 0.0134165)
(0.188555 0.171035 -0.00314492)
(0.0701553 0.129836 0.064478)
(-0.592913 0.262749 -0.178252)
(0.668231 -0.751684 0.144273)
(-0.232211 0.884002 -0.635639)
(0.643179 0.177461 -0.138526)
(0.0116213 0.000316763 0.000515857)
(-0.00491063 0.00155157 0.00172478)
(-0.00564195 0.0115369 -0.000110656)
(-0.00251388 0.0198214 0.000128918)
(0.00358085 0.0316159 0.000560618)
(0.0128686 0.0363971 -0.000802319)
(0.0230095 0.0171363 -0.00311548)
(0.030318 -0.014792 -0.00225559)
(0.0292001 -0.0241322 -0.00233639)
(0.0294347 -0.0143598 -0.00132019)
(0.0194389 -0.00625818 0.000876399)
(0.0104454 0.00487382 0.00734145)
(-0.0290273 0.0271681 0.0139278)
(-0.0479744 0.0447776 0.00871638)
(-0.0603946 0.0765209 -0.00323567)
(-0.014724 0.0701741 -0.00943437)
(0.0272565 0.0135898 -0.00799444)
(0.0474026 -0.0195379 -0.00902686)
(0.0741062 -0.0377359 -0.00912372)
(0.0706236 -0.0612766 -0.00246271)
(0.0759507 -0.0608268 -0.00865288)
(0.0936826 -0.0698606 0.00588563)
(0.0540681 -0.0723082 -0.00903669)
(0.0802373 -0.098815 0.00438751)
(0.0697657 -0.126841 -0.00801751)
(0.0314942 -0.151692 0.0117381)
(0.0523096 -0.212023 0.00164032)
(0.0185352 -0.143116 -0.0211816)
(0.0415073 -0.286645 0.0441432)
(-0.0749796 -0.221173 -0.17234)
(0.225562 -0.039612 0.00784245)
(-0.0521974 -0.209418 -0.0628686)
(0.144575 0.0647961 0.047261)
(0.0520656 -0.252283 -0.0682556)
(0.130397 -0.111613 -0.0581598)
(-0.32546 -0.140113 -0.424745)
(0.0829558 -0.0613906 0.148779)
(-0.180848 0.435728 -0.581861)
(0.0167 0.0117663 -0.00181365)
(0.018204 0.0143543 -0.0012653)
(0.0136114 0.0154254 -0.000485306)
(0.0183667 0.0175209 0.00127712)
(0.0136542 0.0229662 0.00326564)
(0.0229149 0.0304072 0.0008372)
(0.0344335 0.0332772 -0.00226531)
(0.0447229 0.0288881 -0.00300778)
(0.0398628 0.0296761 -0.00268974)
(0.0398596 0.0276489 -0.00370055)
(0.0390426 0.0311512 -0.00312563)
(0.0418434 0.0411619 -0.00158875)
(0.0445054 0.0398843 -0.0010508)
(0.0569985 0.0508021 0.00445407)
(0.0441228 0.0635542 0.00352974)
(0.0694893 0.0453229 -0.00521079)
(0.104484 0.0316876 0.00179909)
(0.100639 0.0129012 -0.0107073)
(0.112445 0.00806139 0.000358933)
(0.0887427 -0.0162163 -0.00722207)
(0.138107 -0.0220552 -0.00958017)
(0.12579 -0.0265529 -0.0100014)
(0.14772 -0.00573533 0.00281083)
(0.125699 -0.041913 -0.0152556)
(0.188824 0.0104096 -0.0143822)
(0.147368 -0.0344049 -0.00911152)
(0.240485 -0.000383205 -0.0231982)
(0.176369 0.0387734 -0.010565)
(0.195323 -0.00726282 -0.0290848)
(0.259396 0.251615 -0.0613769)
(0.161954 -0.105679 0.0262314)
(0.156315 0.243023 -0.0673616)
(-0.0330949 -0.206787 0.0322734)
(0.0681183 0.194647 -0.0458741)
(-0.501485 0.638953 0.021447)
(-0.294046 0.371897 -0.0716325)
(0.129484 0.583744 -0.0572399)
(-0.532935 1.45376 -0.142018)
(0.014966 0.00906742 -0.000965516)
(0.0194365 0.010185 -0.00146524)
(0.0233242 0.0146489 -0.00118485)
(0.0219333 0.0180074 -0.000468126)
(0.0295391 0.0174767 0.000181396)
(0.0248438 0.0175705 0.00117558)
(0.0285459 0.0151603 0.000363611)
(0.0330845 0.00477057 0.000936777)
(0.0315852 -0.00444387 0.00196475)
(0.0367512 0.000488476 0.00106674)
(0.0392333 0.00771513 0.000776883)
(0.0385731 0.00991083 0.000371484)
(0.0622531 0.0232104 0.00252957)
(0.0571464 0.0246578 -0.0014537)
(0.0922521 0.0335537 0.00711785)
(0.0760875 0.0340504 -0.00518942)
(0.135931 -0.00563332 0.00079357)
(0.104053 0.0170149 5.2003e-05)
(0.118895 -0.0137251 -0.00498203)
(0.131085 -0.0431589 -0.000524243)
(0.119949 -0.046645 -0.00759879)
(0.134265 -0.0295411 0.0005714)
(0.0991584 -0.0598539 -0.000990318)
(0.142241 -0.0387183 -0.00505698)
(0.0877446 -0.0936751 0.00627118)
(0.132758 -0.0771958 -0.011916)
(0.0788201 -0.108528 0.00424368)
(0.10955 -0.0959678 0.0226875)
(0.0441303 -0.179881 -0.0207323)
(0.185483 -0.0756149 0.0436927)
(0.036175 -0.0739904 -0.0400343)
(0.183406 0.104251 0.0401811)
(0.126882 -0.036019 -0.0345863)
(0.0863257 0.186105 0.00143177)
(0.262834 -0.0527314 -0.0158725)
(0.155408 -0.520671 0.108486)
(0.038706 0.335962 0.00313517)
(-0.354614 1.41099 -0.0443899)
(0.0183809 0.0094376 0.000700384)
(0.0203439 0.0111626 0.000928784)
(0.0182601 0.0172132 -0.00118418)
(0.0287739 0.0129628 -7.62741e-05)
(0.0347311 0.0167091 0.000553769)
(0.0343177 0.02096 0.000741174)
(0.040847 0.0186526 -0.000405324)
(0.0478303 0.0180892 -0.000219136)
(0.0516453 0.0162123 -0.00186211)
(0.047998 0.0122475 0.00356851)
(0.0556513 0.0224703 0.00115217)
(0.0420586 0.0178964 -0.00182702)
(0.0810169 0.00842635 0.00477057)
(0.0658405 0.0264596 0.00258)
(0.0814408 0.0108601 0.00276709)
(0.107072 0.0196147 0.00116885)
(0.0980805 0.00173645 0.00313089)
(0.113533 0.0208732 0.00632305)
(0.123458 0.00617951 0.001192)
(0.109371 -0.00951292 -0.00604028)
(0.136711 0.00313652 0.00127878)
(0.0838034 -0.00896957 0.00147274)
(0.148057 -0.00524631 -0.00926242)
(0.108738 -0.031192 0.00471579)
(0.160526 0.0113865 -0.0139987)
(0.104016 -0.0135155 -0.00637333)
(0.18394 -0.0218495 -0.00699154)
(0.110007 0.0206907 -0.00649746)
(0.174583 -0.00430526 -0.0264593)
(0.16619 0.0643873 0.0162735)
(0.0828111 0.0635259 -0.00943775)
(0.150186 0.0159266 0.0367463)
(0.0991122 0.0862935 0.0115581)
(0.140747 -9.17504e-05 0.0825569)
(0.0738872 0.759999 0.0848323)
(-0.294792 0.875677 -0.230966)
(-0.143856 0.915417 -0.107961)
(-0.340827 1.98221 -0.0777443)
(0.0297267 0.00325822 0.000229978)
(0.0325885 0.00507748 0.0028033)
(0.023405 0.0111079 0.000328567)
(0.0413365 0.00429683 -8.50071e-05)
(0.0332957 0.0101674 0.00145095)
(0.0399979 0.0120498 0.000557333)
(0.0469589 0.00832746 0.000500242)
(0.0465116 0.00225182 0.000866464)
(0.0546707 0.0103133 -0.000907056)
(0.0539529 -0.0118875 -0.000610235)
(0.0698245 0.0107192 0.000703205)
(0.0577972 0.000321646 0.00136344)
(0.0905302 -0.0137946 -0.00414512)
(0.0795605 0.0193654 0.00247541)
(0.102047 -0.0174279 0.000533089)
(0.090091 0.0257868 -0.00167101)
(0.120493 -0.0172683 -0.00324371)
(0.137622 -0.0212995 -0.000425156)
(0.129604 -0.00860646 0.00452358)
(0.125525 -0.02476 -0.00313635)
(0.12204 -0.0127356 -0.00326678)
(0.140945 -0.0269142 0.00156174)
(0.11771 -0.0394317 0.00597326)
(0.131811 -0.038696 -0.0181979)
(0.132091 -0.0337672 0.0204992)
(0.0853945 -0.0443737 -0.00791753)
(0.125186 -0.0601058 -0.0192398)
(0.13383 -0.0492258 0.0142635)
(0.129637 -0.107878 0.00582105)
(0.0755277 -0.0699203 -0.0101469)
(0.228337 -0.014242 -0.0138292)
(0.128232 -0.134859 -0.0361925)
(0.242417 -0.0665303 -0.0347027)
(0.0672087 -0.149734 -0.224899)
(0.38971 -0.49748 0.0634934)
(-0.284406 0.594618 0.0512549)
(-0.323184 0.803563 -0.0809226)
(-0.380622 1.76453 -0.0149131)
(0.0325035 0.00424512 -0.000285625)
(0.0379996 0.00549173 0.000613193)
(0.0359179 0.0082156 0.00101112)
(0.0442592 0.00522184 -0.000394105)
(0.0391399 0.0103366 0.00144494)
(0.047905 0.00589868 -0.000240916)
(0.0543281 0.00894615 0.000762325)
(0.0538871 0.00619353 0.000779595)
(0.0536722 0.0119161 -0.000240884)
(0.0719969 0.000800813 -0.000953501)
(0.0549718 0.0170711 0.00131662)
(0.0804834 -0.00478799 -0.000441661)
(0.0702325 0.00583624 -0.00149234)
(0.0831415 0.00629577 0.00264115)
(0.103713 0.00404625 0.00220631)
(0.0738682 0.00942407 0.00387846)
(0.151279 -0.0225234 -0.00587512)
(0.0982597 0.015347 0.00240537)
(0.134151 0.0065632 -0.00222174)
(0.121631 0.0129154 0.00532838)
(0.1069 0.00764177 -0.00944404)
(0.157191 -0.00753934 -0.00150076)
(0.113796 -0.00286765 0.0023719)
(0.134733 0.00414954 -0.0101226)
(0.123659 -0.000146821 0.00172263)
(0.120051 0.00148386 -0.000837811)
(0.104669 -0.00413755 -0.0110868)
(0.158901 -0.0322851 0.0070389)
(0.093678 0.0245355 -0.00086351)
(0.0570609 0.0315877 0.0215212)
(0.00478092 0.110508 0.0218456)
(-0.0357386 0.236252 -0.0229847)
(-0.123724 0.317755 -0.0045012)
(-0.124265 0.684549 -0.14227)
(-0.00363693 0.803 -0.252874)
(-0.132807 0.779727 0.0914993)
(-0.239303 1.21627 -0.0813112)
(-0.555205 1.94604 0.0454307)
(0.03433 0.00322322 0.000159018)
(0.03607 0.000618863 -0.000559834)
(0.0426414 0.00360844 -0.000127797)
(0.0420745 0.00476467 0.000493258)
(0.0407957 0.00262019 -6.59703e-05)
(0.0543242 0.00156074 -0.00112438)
(0.0485782 0.00362062 0.000848522)
(0.0564372 0.00232769 -0.000328802)
(0.0544499 -0.000584242 0.00125608)
(0.0631626 -0.00634708 -0.0022436)
(0.0694529 0.0018866 0.000953114)
(0.0682146 -0.00700265 0.000558173)
(0.0648356 -0.0070425 0.00131564)
(0.0732997 -0.0210964 0.00716058)
(0.0843925 -0.0118983 0.00284041)
(0.119094 -0.0307061 0.00642231)
(0.0891634 -0.0104522 0.000835548)
(0.110846 -0.00699449 0.00173713)
(0.10625 -0.0131162 -0.00242823)
(0.124 -0.0123093 0.00184175)
(0.104436 -0.00391778 -0.00172991)
(0.132744 -0.0206718 -0.00468005)
(0.115286 -0.0119061 0.0018121)
(0.101511 -0.00961704 0.000453119)
(0.118312 -0.00946469 -0.00580362)
(0.111497 -0.0142405 -0.00114048)
(0.132879 -0.0381468 0.0067805)
(0.082897 -0.0554582 -0.0136663)
(0.18995 -0.0309392 0.0119311)
(0.0759363 -0.0485492 -0.0123607)
(0.253624 -0.101517 -0.00229513)
(0.118322 0.00319462 0.00643445)
(0.236401 -0.0472692 -0.00844882)
(0.177529 -0.0841693 0.0614079)
(-0.124391 0.540703 -0.0436985)
(-0.556816 0.768347 0.0296823)
(-0.738673 1.1245 0.0404672)
(-0.833972 1.39658 0.0473022)
(0.0367038 0.00441283 0.000525987)
(0.0347027 0.000647593 -0.00110606)
(0.0446416 0.00488254 -0.000770211)
(0.0418404 0.00660732 0.00108175)
(0.04382 1.80013e-05 -0.00131027)
(0.0504701 0.0038754 -0.000577854)
(0.0522586 0.00496693 0.000344234)
(0.0514973 0.00293457 -9.59534e-05)
(0.0612634 0.00114835 0.00110024)
(0.0520014 -0.00446372 0.000759255)
(0.0758099 0.0136371 0.00352588)
(0.0594956 -0.00589491 0.00225777)
(0.0690596 0.00648467 0.0127133)
(0.0291994 -0.0469631 0.0075688)
(0.0611086 -0.0401198 -0.00455266)
(0.0798395 -0.0130616 -0.0020112)
(0.0586722 -0.0187081 -0.00232187)
(0.106096 0.000234593 -0.0115458)
(0.110407 0.00319338 -0.000943094)
(0.103792 0.0136689 -0.00328237)
(0.113065 0.00848191 -0.00170064)
(0.111498 0.00594001 -0.000838077)
(0.0996805 0.0233382 -0.00669035)
(0.126057 0.0094906 0.000743388)
(0.0975312 0.00481363 0.00451158)
(0.101297 0.0121312 -0.0100795)
(0.138897 -0.00865024 -0.00595934)
(0.101684 -0.0109799 0.00937931)
(0.0490667 -0.0104551 0.0117395)
(0.0357759 0.0149715 0.0085737)
(-0.0510646 0.159337 0.0233079)
(-0.20224 0.26757 -0.0149485)
(-0.167317 0.480582 -0.0634465)
(-0.263222 0.88757 -0.117647)
(-0.309569 1.06139 -0.079836)
(-0.456392 1.25294 -0.0661944)
(-0.729993 1.251 0.00475992)
(-0.562386 1.04923 0.0343696)
(0.0353718 0.00236277 0.00137811)
(0.0348077 -0.00129083 -0.00263044)
(0.0453182 0.00155485 0.000218329)
(0.041102 0.00351173 0.00172705)
(0.0438547 0.000247843 -0.0027316)
(0.0515774 -0.00208528 -0.000722532)
(0.0513787 0.00235451 0.00317527)
(0.0468112 -0.00265368 -0.00299891)
(0.0684103 -0.00898742 0.00259389)
(0.0486759 -0.0230684 0.000995426)
(0.0656394 -0.00992544 -0.00327537)
(0.0423363 -0.00571538 0.0146918)
(-0.00483974 -0.00794364 0.00570994)
(0.0410455 -0.0682177 -0.0272077)
(0.0508788 -0.0548568 -0.0197977)
(0.0648414 -0.0383283 -0.00461742)
(0.04154 -0.0274932 -0.00906939)
(0.0739712 -0.00746929 -0.0042375)
(0.0524921 -0.00544568 -0.00175577)
(0.0720444 0.00248503 -0.00317259)
(0.0675306 0.000234683 0.000929428)
(0.0595528 -0.0019601 -0.0019117)
(0.0729279 0.0105931 -0.00176126)
(0.0819066 -0.000169941 -0.00115081)
(0.0847269 -0.00658888 -0.000349161)
(0.0726454 -0.003022 -0.00390938)
(0.11976 -0.00927821 -0.00635607)
(0.0809106 -0.0153504 -0.0054993)
(0.181398 -0.0245958 0.00263972)
(0.120861 -0.0728032 0.00999141)
(0.208638 -0.0462087 0.0327136)
(0.13692 0.0043537 0.0400496)
(0.161503 0.0129983 0.0620777)
(-0.105758 0.336865 0.0708775)
(-0.594795 1.09551 -0.0123336)
(-0.782135 1.23496 -0.0213323)
(-0.493759 1.02523 -0.0076145)
(-0.432299 0.75924 0.0399955)
(0.0241108 0.000238271 0.00134241)
(0.0352102 0.00308725 -0.00516786)
(0.0525534 7.46251e-05 0.00223226)
(0.0274743 0.00194613 0.00135474)
(0.0473614 -9.78334e-05 -0.00585438)
(0.0524707 0.00279727 0.00136335)
(0.0446559 -0.00353293 0.00235847)
(0.0349875 0.000752225 -0.000849269)
(0.045951 -0.0172618 0.0170128)
(-0.078973 0.00353382 0.011385)
(-0.0750199 0.0419127 -0.0255212)
(0.00513049 0.024508 -0.0269688)
(-0.0139331 -0.018093 -0.0289041)
(0.0535245 -0.0425034 -0.0280549)
(-0.0193072 -0.000780843 0.00505524)
(-0.0332432 0.0144259 -0.00164439)
(-0.03678 0.0132116 -0.000889854)
(-0.0473298 0.015905 0.00509941)
(-0.0591225 0.0110117 -0.00684116)
(-0.0138949 0.0164772 0.00151216)
(-0.0402879 0.0111065 0.00197763)
(-0.0144957 0.0144003 -0.0016698)
(-0.0118604 0.00973953 0.00247156)
(-0.00574258 0.0111779 -0.00120778)
(0.00684816 0.0156975 -4.98387e-05)
(0.00320726 0.0128868 0.00129818)
(0.0102294 0.00981031 0.00285512)
(-0.0181313 -0.0221512 0.000215856)
(-0.0514564 -0.0675207 0.0110441)
(-0.263217 -0.0356882 0.0249827)
(-0.409803 0.0251057 0.0385871)
(-0.62116 0.143392 0.0613487)
(-0.944596 0.569203 0.0989649)
(-1.02155 1.07259 0.162528)
(-0.89171 1.33529 0.175184)
(-0.783985 1.22525 0.153363)
(-0.1763 0.812775 0.115401)
(-0.172066 0.847406 0.122905)
(-0.0165955 -0.0031611 0.0065234)
(-0.0211399 -0.000747711 0.00521683)
(-0.02701 0.00649442 0.00392712)
(-0.0432496 0.0177511 0.0129203)
(-0.0905488 0.0451681 0.023256)
(-0.196071 0.0565596 0.0164706)
(-0.284312 -0.00666857 0.00208719)
(-0.255357 -0.0882117 0.00773747)
(-0.201234 -0.102215 0.0168435)
(-0.184275 -0.0764976 -0.00173223)
(-0.161208 -0.0579023 -0.0209166)
(-0.142859 -0.0347872 -0.0277684)
(-0.135102 0.00136292 -0.0413745)
(-0.137885 0.0494467 -0.0625513)
(-0.178319 0.0865682 -0.0565199)
(-0.275438 0.0128735 0.0125158)
(-0.310484 -0.0610166 0.0235275)
(-0.330269 -0.0418306 0.000114534)
(-0.314972 -0.0532428 0.0316776)
(-0.317147 -0.0440539 0.0408962)
(-0.331751 -0.0202244 0.0378532)
(-0.354305 -0.0106395 0.0471734)
(-0.40654 -0.0259391 0.0289684)
(-0.394735 -0.0902546 0.0163577)
(-0.332724 -0.135269 0.0323995)
(-0.294215 -0.152493 0.0377119)
(-0.251675 -0.151929 0.0458059)
(-0.224621 -0.145639 0.0435792)
(-0.16955 -0.150642 0.0189234)
(-0.139309 -0.126965 0.0649318)
(-0.0776942 -0.110143 -0.0170556)
(-0.0226131 -0.158968 0.0331105)
(0.0482237 -0.0889188 -0.00846904)
(0.121259 -0.227223 -0.05415)
(-0.102826 0.265809 -0.0530696)
(1.17915 -1.06531 -0.2978)
(0.453014 0.884053 1.0215)
(2.23956 -4.19987 -1.97316)
(0.00124144 -0.00220119 0.000329648)
(-0.00118851 0.00121235 0.00348953)
(-0.00310373 0.0122279 0.00270927)
(-0.00367502 0.0243416 0.00591254)
(0.000662197 0.0416614 0.00957694)
(0.00762915 0.0592971 0.00206603)
(0.00998956 0.0553201 -0.0143615)
(0.00447545 0.0333573 -0.0111827)
(-0.0194643 0.0243517 0.0042208)
(-0.0326704 0.0189552 0.0143551)
(-0.0411999 0.0152887 0.0217204)
(-0.0560707 0.0180356 0.0262341)
(-0.0820599 0.0321804 0.0158853)
(-0.0776056 0.0593007 -0.00904724)
(-0.0398874 0.0938868 -0.050013)
(0.00364541 0.0921779 -0.0628685)
(0.0238654 0.0551469 -0.0304915)
(0.0120166 0.0145525 -0.0175221)
(0.023245 -0.016948 -0.0208724)
(0.0397503 -0.040397 -0.00953227)
(0.0609598 -0.04561 -0.000868988)
(0.0745925 -0.0351897 0.000640335)
(0.115055 -0.0376532 -0.0174457)
(0.136913 -0.0226814 -0.0127573)
(0.149933 -0.0335151 -0.0269646)
(0.178664 -0.0313639 -0.00823827)
(0.167797 -0.0152112 -0.00059649)
(0.191516 -0.0153198 -0.0217095)
(0.184168 -0.029999 0.0214757)
(0.273352 0.0473159 0.0168536)
(0.171838 -0.0430528 -0.028914)
(0.338146 0.100819 -0.00554043)
(0.191689 -0.103099 -0.00875529)
(0.342252 0.316487 0.185024)
(0.289466 -0.126051 -0.0656741)
(0.750472 0.152131 0.125367)
(0.242778 -1.24719 -0.793157)
(1.25697 2.42033 1.21494)
(0.0193005 0.00182262 -0.00191635)
(0.0149459 0.00326036 0.00142627)
(0.0126987 0.00798332 0.000472727)
(0.0139669 0.0134744 0.000880683)
(0.0191193 0.0217492 0.0029134)
(0.0273156 0.028121 0.0029423)
(0.0350079 0.0153399 -0.00036408)
(0.0400992 -0.0149168 -0.000138867)
(0.0397522 -0.0254885 -0.000271506)
(0.0397272 -0.0190924 0.00036482)
(0.0350124 -0.010398 0.00346653)
(0.0348799 -0.00275544 0.0132959)
(0.021159 0.00663148 0.0273869)
(0.0202453 0.0123337 0.0304017)
(0.0103684 0.0369987 0.0148009)
(0.033555 0.0369538 -0.00879256)
(0.0647223 -0.00485988 -0.0124013)
(0.0903639 -0.0346654 -0.0132167)
(0.104859 -0.0492895 -0.0152216)
(0.114761 -0.0680848 -0.00839726)
(0.117914 -0.0698682 -0.0130775)
(0.115201 -0.0642129 0.00185837)
(0.146392 -0.0806204 -0.012678)
(0.105742 -0.0808057 -0.00262537)
(0.156517 -0.110429 -0.0084818)
(0.114159 -0.139267 0.00908656)
(0.0992372 -0.13627 -0.00751763)
(0.18333 -0.112854 -0.00833182)
(0.0593529 -0.25483 0.0410377)
(0.248648 -0.086105 -0.0704413)
(0.144255 -0.149213 0.0767116)
(0.28743 -0.0535307 -0.00546177)
(0.133084 -0.04272 0.117511)
(0.436151 -0.0132348 0.0443122)
(0.284469 -0.0328469 0.0688013)
(0.428081 -0.193524 -0.103894)
(0.0338313 -0.0592251 -0.118416)
(1.37723 -0.773711 0.335388)
(0.0250926 0.00612753 -0.00267642)
(0.0271134 0.00836447 -0.0015449)
(0.0261918 0.0111648 -0.000708582)
(0.0298001 0.0149324 0.000550043)
(0.0322746 0.019228 0.00343551)
(0.0424041 0.0224668 0.00186977)
(0.0532994 0.0224947 -0.00196297)
(0.0592982 0.0184076 -0.00454853)
(0.0553709 0.0153996 -0.00412598)
(0.0514929 0.0156282 -0.00431028)
(0.0507733 0.0173774 -0.00445006)
(0.0555147 0.02326 -0.00225455)
(0.0614003 0.0280968 -0.000431393)
(0.0726877 0.0326711 0.00669759)
(0.0849025 0.0358299 0.0117613)
(0.0999621 0.0292947 4.67508e-05)
(0.127127 0.0135093 0.00033588)
(0.142202 -0.00351935 -0.00826291)
(0.127053 -0.0121374 -0.00690174)
(0.149467 -0.0248618 -0.0101863)
(0.129912 -0.0343706 -0.0136479)
(0.155209 -0.029994 -0.0156438)
(0.128809 -0.0435777 -0.00259694)
(0.180424 -0.00502706 -0.0300385)
(0.147565 -0.0624942 -0.0029489)
(0.160707 -0.00621276 -0.0387724)
(0.198584 -0.00101555 -0.0401531)
(0.0964747 -0.10305 0.0199298)
(0.227148 0.0890077 -0.0882854)
(0.069849 -0.105603 0.00698279)
(0.14886 -0.00626167 0.00520585)
(0.0742893 -0.0573723 -0.00539671)
(0.0798767 -0.101955 0.0240223)
(0.202083 -0.0251927 -0.00911614)
(-0.011213 0.0597519 0.110693)
(-0.0535115 -0.301799 -0.112668)
(0.498825 -0.230544 -0.00926891)
(0.263564 0.506321 0.163465)
(0.0255469 0.00275021 -0.000873335)
(0.0298659 0.00313742 -0.000692168)
(0.0315163 0.00724769 -0.00112037)
(0.0329354 0.011084 -0.000578823)
(0.0394571 0.0127876 0.000160086)
(0.0410437 0.0124681 0.00150102)
(0.0459833 0.00827281 0.000507742)
(0.0480918 0.0012716 0.000551798)
(0.0516689 -0.00621702 0.00162954)
(0.0513483 -0.00861503 0.00181974)
(0.0583938 -0.0036932 0.00195832)
(0.058667 -0.000785146 -4.11803e-05)
(0.0708716 0.00698217 0.00347019)
(0.0805399 0.00583954 -0.000121065)
(0.0955353 0.0161499 0.00811663)
(0.110954 0.00408703 -0.0034589)
(0.127307 -0.00895015 -0.00118133)
(0.128729 -0.0216527 0.000505749)
(0.138723 -0.0234556 -0.00560886)
(0.134609 -0.0400731 -0.00554847)
(0.144246 -0.0511411 -0.00859558)
(0.122651 -0.0455514 -0.00257317)
(0.136337 -0.0533513 -0.00622316)
(0.128979 -0.0552661 -0.00062783)
(0.126269 -0.06874 -0.00585645)
(0.132746 -0.0777983 -0.00502702)
(0.116816 -0.0911176 0.013088)
(0.128968 -0.0935555 -0.00694959)
(0.109622 -0.111968 -0.0102824)
(0.204088 -0.106062 0.0496112)
(0.123587 -0.104422 -0.041671)
(0.214185 -0.0622527 0.0411277)
(0.203313 -0.0659427 -0.0418516)
(0.21653 -0.0727811 0.0244219)
(0.287457 0.0135377 -0.0479503)
(0.27959 -0.11682 -0.261603)
(0.258975 -0.149866 0.0153877)
(0.0108522 0.557285 0.159705)
(0.030097 0.00396143 0.000240038)
(0.0340494 0.00355489 0.00171558)
(0.0329124 0.0081232 -0.000370323)
(0.0380519 0.00818019 -0.000250013)
(0.0426921 0.00973292 0.00107313)
(0.0473353 0.0129635 0.000676371)
(0.0542527 0.0122079 -0.000598171)
(0.0568753 0.0112221 -0.00114755)
(0.0643017 0.0121445 -0.0034544)
(0.0554477 0.0109253 0.000777673)
(0.0730758 0.011068 0.000855879)
(0.0594597 0.0139864 -0.00370133)
(0.0809456 0.0116656 0.00165633)
(0.0846437 0.013456 0.00119208)
(0.0958026 0.0137992 0.00268407)
(0.113632 0.00951216 -0.00271271)
(0.114611 0.0075907 0.000775121)
(0.125227 0.00318783 0.00305737)
(0.135885 -0.00836521 0.000101705)
(0.138607 -0.0120596 -0.00798211)
(0.13282 -0.0138067 -0.00568356)
(0.131867 -0.0102185 -0.0056688)
(0.136725 -0.0305423 -0.0110063)
(0.136273 -0.00913052 -0.00736095)
(0.148808 -0.0392703 -0.0110702)
(0.137158 -0.0234693 -0.0152206)
(0.157463 -0.012774 -0.0165558)
(0.142635 -0.0225615 -0.0110582)
(0.160307 -0.0382836 -0.026158)
(0.133786 0.0127915 0.0059503)
(0.152585 0.0138361 -0.0107554)
(0.117216 0.0243935 0.0413239)
(0.182967 0.0181662 0.00683983)
(0.11842 0.0407126 0.0605951)
(0.271839 0.305647 0.268243)
(0.259231 0.172627 -0.101871)
(-0.0351066 0.336225 -0.0760967)
(-0.199985 0.836764 0.0846706)
(0.0343921 0.00231733 -0.000684459)
(0.0373932 0.00301873 0.00225433)
(0.0374746 0.00470495 0.000386305)
(0.0436212 0.00444024 -0.000654783)
(0.0434185 0.0060586 0.00144371)
(0.0479446 0.00701615 0.000142496)
(0.0533767 0.00492662 0.000182644)
(0.0548622 0.000959017 0.000425222)
(0.0611597 0.003027 -0.00121591)
(0.0609364 -0.00326595 -0.00122214)
(0.0713995 0.00115888 -0.000417509)
(0.0691368 0.000988588 0.000227678)
(0.0866612 -0.00239502 -0.00445855)
(0.0842485 0.00554056 0.000787537)
(0.105148 -0.0029488 -0.000670209)
(0.103757 0.00362046 -0.00275992)
(0.120917 -0.0030547 -0.00586498)
(0.127333 -0.0147643 -0.00290685)
(0.130331 -0.0137759 0.000659466)
(0.133633 -0.0219216 -0.00499813)
(0.126342 -0.0170104 -0.00740141)
(0.132651 -0.0220143 -0.00128455)
(0.130748 -0.0355443 -0.00420473)
(0.134331 -0.0271857 -0.0101658)
(0.121683 -0.0450869 0.00576125)
(0.130509 -0.0427511 -0.0010295)
(0.131604 -0.0470267 -0.0149079)
(0.120516 -0.063502 0.00731672)
(0.156185 -0.0823036 0.00742042)
(0.137748 -0.0620411 -0.0129265)
(0.178125 -0.0733974 -0.0200334)
(0.139133 -0.0396905 -0.0530891)
(0.226384 -0.0350345 -0.0495729)
(0.0300645 0.109786 -0.107307)
(0.108541 -0.0670919 -0.0100255)
(0.157873 -0.117311 0.192564)
(-0.0842196 0.350133 0.0661992)
(-0.32427 0.652476 0.117119)
(0.036433 0.00326096 -0.00100205)
(0.0387939 0.00455003 -0.000126076)
(0.0413587 0.00527808 6.87935e-05)
(0.0449383 0.00474007 -0.00104851)
(0.04586 0.00705211 0.00062126)
(0.0514076 0.00573027 -0.000823462)
(0.0556007 0.00662801 -0.000396009)
(0.0588138 0.00564543 -0.000106896)
(0.0607527 0.00713457 -0.001225)
(0.0680688 0.003439 -0.00210758)
(0.0665881 0.00833535 -0.000250755)
(0.0769865 0.00329388 -0.00197423)
(0.0767828 0.00289278 -0.00305451)
(0.087019 0.00272622 0.00133851)
(0.0991727 0.00390836 -0.000437775)
(0.101435 0.00274455 0.00144118)
(0.128014 -0.00585456 -0.00745261)
(0.119542 0.00585595 -0.000945675)
(0.127969 0.0032397 -0.00511151)
(0.131688 0.00444005 0.000816772)
(0.128898 -0.00192876 -0.0107136)
(0.135105 -0.00190369 -0.004365)
(0.131157 -0.00405525 -0.00430301)
(0.134554 -0.0137498 -0.00864347)
(0.129087 0.00445502 -0.0064417)
(0.129776 -0.0201196 -0.00475431)
(0.136007 -0.0154736 -0.0134093)
(0.127115 -0.0107384 -0.00460606)
(0.154603 -0.0214373 0.00814518)
(0.104805 0.0146561 0.00199773)
(0.119298 0.0459258 0.0454198)
(0.129176 0.0464983 -0.0127164)
(0.145357 0.0654061 0.0045565)
(0.15874 0.00969707 -0.0131385)
(0.227064 0.0479444 -0.148969)
(-0.0395304 0.559226 -0.0944396)
(-0.184325 0.678752 0.0475764)
(-0.376396 0.687381 0.122323)
(0.0370754 0.00257406 -0.000668869)
(0.0388601 0.00190643 -0.0010811)
(0.0430703 0.00342329 -0.000769721)
(0.0447491 0.00370293 -0.000416023)
(0.0467962 0.004072 -0.000600188)
(0.0525179 0.00242541 -0.00145141)
(0.0533478 0.0038148 -0.000207111)
(0.058401 0.00202862 -0.000800539)
(0.0592941 0.000973492 0.000645772)
(0.0665612 -0.00396239 -0.00248601)
(0.0680727 0.00101635 -0.000486677)
(0.0764215 -0.000478816 0.000273902)
(0.0724692 -0.00604083 -0.00215239)
(0.0902952 -0.00708797 0.00790432)
(0.0903136 -0.00290333 0.000789883)
(0.125899 -0.0132244 0.00404178)
(0.108732 -0.012499 -0.000347406)
(0.124661 -0.00123776 -0.00062408)
(0.120799 -0.0100346 -0.00347316)
(0.127682 -0.00418469 -0.000533603)
(0.128964 -0.00680996 -0.00437676)
(0.125373 -0.00878785 -0.00683909)
(0.129407 -0.00762339 -0.00266182)
(0.117383 -0.013127 -0.00410478)
(0.133408 -0.0145735 -0.0022813)
(0.112981 -0.0170427 -0.0107051)
(0.142105 -0.0276196 0.00677649)
(0.119983 -0.0391192 -0.0168535)
(0.17446 -0.0630732 0.00742984)
(0.145739 -0.0138309 0.00128985)
(0.221517 -0.0720445 -0.0264418)
(0.195959 -0.036006 0.00910863)
(0.231554 -0.05474 -0.0452827)
(0.204209 -0.0709841 0.0349615)
(0.119583 -0.0721077 0.145338)
(-0.206209 0.462935 0.00938444)
(-0.478657 0.645603 0.121153)
(-0.3203 0.341596 0.0976736)
(0.0379787 0.00369974 -0.000392995)
(0.0389273 0.00132162 -0.00183818)
(0.0438582 0.00299905 -0.0012689)
(0.0449714 0.00494664 4.60975e-06)
(0.0475066 0.00253134 -0.00158157)
(0.0515867 0.00180096 -0.0013859)
(0.0544215 0.00457831 -0.000267408)
(0.0565538 0.00236078 -0.000813703)
(0.060622 0.00339787 0.00164102)
(0.0620294 -0.00542011 5.57316e-05)
(0.0752093 0.00830918 -0.000803021)
(0.0687202 -0.0019931 0.00115272)
(0.0767572 0.00574883 0.000106726)
(0.0728407 -0.00679831 0.0150009)
(0.0855579 -0.0148747 0.00284379)
(0.100575 0.00337948 0.00266258)
(0.096079 0.0012793 -0.000949389)
(0.11843 0.00683573 -0.011605)
(0.117344 0.00515091 -0.00314952)
(0.120949 0.00798579 -0.003244)
(0.120446 0.01069 -0.00493306)
(0.123366 0.00734446 -0.0015144)
(0.114812 0.0126812 -0.00948134)
(0.123471 0.00779455 -0.00543261)
(0.119098 0.00113943 0.00564221)
(0.114818 0.00287943 -0.0130324)
(0.126829 -0.0124242 -0.0102437)
(0.113985 -0.0120064 0.00621649)
(0.109024 -0.0178765 0.0111875)
(0.0993026 -0.0230217 0.0318032)
(0.117432 0.0509812 0.0311183)
(0.0654357 0.121438 0.0228068)
(0.0878212 0.180062 -0.0326825)
(0.061553 0.270247 -0.0703249)
(-0.0585804 0.62181 -0.135804)
(-0.179228 0.958486 -0.0460789)
(-0.337444 0.967893 -0.0193448)
(-0.221635 0.696835 -0.00445709)
(0.0384082 0.00348091 0.00106804)
(0.0387852 -0.000768489 -0.00343337)
(0.0440878 0.000833226 -0.000497748)
(0.0448581 0.00473491 0.00135729)
(0.048158 0.000511858 -0.00227405)
(0.0510693 -0.000925782 -0.00178832)
(0.0535713 0.00320598 0.00266826)
(0.0573627 3.47551e-05 -0.0021656)
(0.0590565 -0.00332368 0.00421453)
(0.0669444 -0.0144471 -0.00127096)
(0.0662198 0.0122752 -0.00667009)
(0.0767636 0.00608519 -0.00164573)
(0.0605451 0.0134255 0.0083174)
(0.0996956 0.00940702 0.000371053)
(0.0780093 -0.0224602 -0.00778605)
(0.0861485 -0.0258154 -0.00245167)
(0.0666737 -0.0256936 -0.0115351)
(0.0747938 -0.0134628 -0.00725813)
(0.0625575 -0.00776767 -0.0031489)
(0.0639934 -0.000836194 -0.00406169)
(0.0639545 0.00274331 0.00105741)
(0.0635825 0.00244362 -0.00372511)
(0.0691702 0.00410335 -0.00403926)
(0.0773112 0.00370841 -0.0044061)
(0.0862586 -0.00244997 -0.00268096)
(0.0760423 -0.00518346 -0.00984877)
(0.109158 -0.0100199 -0.00830336)
(0.0709408 -0.0181386 -0.0102746)
(0.166908 -0.0436113 0.0107199)
(0.0926155 -0.075841 0.022174)
(0.215615 -0.0605807 0.0394785)
(0.197194 -0.0635886 0.0567407)
(0.316051 -0.0964364 0.0877288)
(0.209645 -0.203934 0.240555)
(-0.123656 0.274104 0.259941)
(-0.421234 0.787479 0.104616)
(-0.238075 0.683719 0.0651722)
(-0.206201 0.407757 0.042049)