/*--------------------------------*- C++ -*----------------------------------*\
| =========                 |                                                 |
| \\      /  F ield         | OpenFOAM: The Open Source CFD Toolbox           |
|  \\    /   O peration     | Version:  2.3.1                                 |
|   \\  /    A nd           | Web:      www.OpenFOAM.org                      |
|    \\/     M anipulation  |                                                 |
\*---------------------------------------------------------------------------*/
FoamFile
{
    version     2.0;
    format      ascii;
    class       volVectorField;
    location    "20";
    object      U_0;
}
// * * * * * * * * * * * * * * * * * * * * * * * * * * * * * * * * * * * * * //

dimensions      [0 1 -1 0 0 0 0];

internalField   nonuniform List<vector> 
38262
(
(-0.0252978 -0.00134966 0.00313413)
(-0.0372643 0.0029111 0.00143376)
(-0.0498309 0.00937308 0.00129752)
(-0.0803354 0.0278839 0.00548202)
(-0.156235 0.0524798 0.00808192)
(-0.273706 0.0375041 0.00539208)
(-0.339303 -0.0361566 0.00280453)
(-0.307141 -0.0839296 0.00576227)
(-0.30464 -0.0510332 0.000943615)
(-0.324793 -0.00834746 -0.0215794)
(-0.269736 -0.00924473 -0.0335736)
(-0.215671 0.000236391 -0.024412)
(-0.211436 0.0361575 -0.0194471)
(-0.22005 0.0580132 -0.0228443)
(-0.223508 0.0307503 -0.0163138)
(-0.271423 -0.0427209 0.0103946)
(-0.349511 -0.0540231 0.0068522)
(-0.340262 -0.0522218 -0.0016757)
(-0.306189 -0.0700503 0.0153205)
(-0.340645 -0.0440689 0.0162767)
(-0.338409 -0.0287717 0.0155534)
(-0.388819 -0.0201466 0.0197269)
(-0.430664 -0.0499977 0.00791776)
(-0.397385 -0.130065 0.00509468)
(-0.31137 -0.171113 0.0123213)
(-0.28671 -0.18389 0.0156772)
(-0.23988 -0.1826 0.0201558)
(-0.199828 -0.178845 0.017242)
(-0.201757 -0.196583 -0.00254818)
(-0.0731855 -0.172869 0.0369826)
(-0.1917 -0.154519 -0.0224573)
(0.0812219 -0.198278 0.0356889)
(-0.144197 -0.198559 -0.046688)
(0.217559 -0.334312 0.00266553)
(0.288391 0.0266972 0.152531)
(-0.442261 0.969053 -0.421501)
(1.86106 -2.71215 -0.471287)
(-0.711967 3.73813 -0.398421)
(-0.00371253 -0.00531319 0.00153764)
(-0.0121587 0.00539827 0.00269693)
(-0.0155103 0.0194559 0.00124375)
(-0.0199843 0.0305504 0.00293212)
(-0.0203915 0.0498974 0.00298238)
(-0.0154702 0.0643366 -0.00368527)
(-0.00222487 0.0552847 -0.0100664)
(-0.00333968 0.0358166 -0.00435247)
(-0.0370116 0.0248181 0.00833993)
(-0.0693386 0.0159348 0.0162616)
(-0.107325 0.0205335 0.01608)
(-0.157038 0.0440671 0.00846694)
(-0.194842 0.0823387 -0.00398844)
(-0.165505 0.11641 -0.0172996)
(-0.101825 0.129382 -0.0357189)
(-0.0236425 0.105144 -0.0408965)
(0.0106112 0.0630651 -0.0171581)
(0.0158617 0.0152264 -0.0133077)
(0.040373 -0.0137634 -0.0139966)
(0.0545656 -0.036352 -0.00977467)
(0.107565 -0.0419403 -0.00449101)
(0.0977038 -0.0251522 0.00208136)
(0.156181 -0.0467206 -0.0174993)
(0.216892 -0.00793586 -0.00349503)
(0.18451 -0.0375601 -0.017285)
(0.302874 0.0011963 -0.00732301)
(0.195839 -0.00407954 0.00858849)
(0.320479 -0.0256943 -0.0216163)
(0.268953 0.0849814 0.0125051)
(0.34545 -0.0531673 0.0184972)
(0.179761 0.076768 -0.0742079)
(0.442015 0.032931 0.014296)
(0.185166 0.171624 -0.00449065)
(0.0781057 0.128567 0.0657011)
(-0.601539 0.266039 -0.182365)
(0.685305 -0.748038 0.140136)
(-0.206511 0.890343 -0.630736)
(0.662334 0.0919684 -0.129054)
(0.0116384 0.000296057 0.000514636)
(-0.00488745 0.00151402 0.00172029)
(-0.00561227 0.0114718 -0.000117848)
(-0.00249211 0.0197197 0.000118551)
(0.00355061 0.0315123 0.000552543)
(0.012798 0.0364791 -0.000792427)
(0.0229724 0.0175329 -0.00310842)
(0.0303487 -0.014567 -0.00225896)
(0.0292634 -0.0241815 -0.00233438)
(0.0295349 -0.0144578 -0.00132223)
(0.0195987 -0.00634276 0.000841769)
(0.0107249 0.00477203 0.00727132)
(-0.0285991 0.0270036 0.0138987)
(-0.0476169 0.0445157 0.00879009)
(-0.0604568 0.0763558 -0.00311151)
(-0.0150138 0.0704171 -0.00936317)
(0.02708 0.0139574 -0.00800205)
(0.0473162 -0.0193026 -0.00905314)
(0.0741381 -0.0375975 -0.00915552)
(0.0707092 -0.0612881 -0.00249079)
(0.0760428 -0.0609169 -0.00862595)
(0.0935937 -0.0698026 0.0059157)
(0.0540084 -0.0720024 -0.0090727)
(0.080603 -0.098374 0.00439984)
(0.0698699 -0.126691 -0.00809384)
(0.0321166 -0.151874 0.0118386)
(0.0523831 -0.212415 0.0015469)
(0.0190003 -0.143724 -0.021095)
(0.0416297 -0.287581 0.0441579)
(-0.0754178 -0.221984 -0.172706)
(0.226131 -0.0398447 0.00793869)
(-0.0532266 -0.209999 -0.0630531)
(0.144451 0.0633524 0.0474286)
(0.049548 -0.253675 -0.0689506)
(0.131161 -0.10711 -0.0595861)
(-0.328194 -0.145634 -0.425699)
(0.100032 -0.0671891 0.147229)
(-0.210546 0.472219 -0.588797)
(0.0167093 0.0117502 -0.00181549)
(0.0182168 0.014327 -0.00126917)
(0.0136192 0.0153814 -0.000489171)
(0.0183461 0.01746 0.00127679)
(0.0135762 0.0228986 0.00326773)
(0.0227748 0.0303863 0.000843468)
(0.0343378 0.0333393 -0.00225118)
(0.0447779 0.0289579 -0.00300847)
(0.0399927 0.0297211 -0.00269784)
(0.039952 0.027661 -0.00370673)
(0.0390887 0.0311243 -0.00313073)
(0.0418564 0.0410628 -0.00161149)
(0.0445745 0.039767 -0.00108842)
(0.0570265 0.0507575 0.00441507)
(0.0442037 0.0635149 0.00352754)
(0.0694565 0.0453553 -0.00517132)
(0.104492 0.0318461 0.00179915)
(0.100665 0.0131385 -0.0107009)
(0.1125 0.00821661 0.000388802)
(0.0888498 -0.0161547 -0.00726564)
(0.13833 -0.0220029 -0.00959722)
(0.125722 -0.0264174 -0.00992111)
(0.147623 -0.00564343 0.00280869)
(0.125687 -0.041857 -0.0152892)
(0.189046 0.0105463 -0.014386)
(0.147613 -0.0347188 -0.00903571)
(0.240685 -0.000459142 -0.0231677)
(0.176185 0.0385639 -0.0107064)
(0.195781 -0.00708093 -0.0293623)
(0.260415 0.251648 -0.0611858)
(0.162049 -0.106586 0.0262607)
(0.157258 0.244328 -0.0673392)
(-0.0322424 -0.2078 0.0320767)
(0.0701962 0.193598 -0.046621)
(-0.496616 0.638582 0.0230154)
(-0.298851 0.386912 -0.0745004)
(0.132432 0.587129 -0.0630607)
(-0.528041 1.44486 -0.135594)
(0.0149716 0.0090521 -0.000966192)
(0.0194415 0.010165 -0.00146669)
(0.0233221 0.014628 -0.0011858)
(0.0219271 0.0179795 -0.000469517)
(0.0295258 0.0174605 0.000179618)
(0.0248077 0.0175996 0.0011764)
(0.0285267 0.0152492 0.000367934)
(0.0330804 0.00486046 0.000942341)
(0.0315931 -0.0044227 0.00196742)
(0.0367649 0.000477563 0.00106394)
(0.0392381 0.00767499 0.00077449)
(0.0385785 0.00984886 0.000370891)
(0.0622425 0.0231593 0.00251995)
(0.0570895 0.0246162 -0.00145591)
(0.0921979 0.0335467 0.00710441)
(0.0761018 0.0340906 -0.0051984)
(0.135937 -0.00538441 0.000823567)
(0.103911 0.017305 2.53198e-05)
(0.119007 -0.0137583 -0.00498317)
(0.131134 -0.0431378 -0.000534062)
(0.12003 -0.0464641 -0.00761338)
(0.134293 -0.0294806 0.000591575)
(0.0992442 -0.0597061 -0.00100669)
(0.142341 -0.0386309 -0.00507037)
(0.0878646 -0.0936225 0.00624416)
(0.132964 -0.0770929 -0.0119864)
(0.0789117 -0.108567 0.00431089)
(0.109607 -0.0962056 0.022573)
(0.0443519 -0.180287 -0.0206944)
(0.185209 -0.0765516 0.0438901)
(0.0358941 -0.0738442 -0.0400788)
(0.183874 0.102651 0.0407384)
(0.126565 -0.0374549 -0.0349519)
(0.086987 0.183785 0.000212788)
(0.269782 -0.0560222 -0.0155454)
(0.151651 -0.521745 0.109868)
(0.0365326 0.338686 -0.00434197)
(-0.336634 1.40563 -0.0437448)
(0.018387 0.00942595 0.000700453)
(0.0203431 0.0111526 0.000927942)
(0.018253 0.0171952 -0.00118532)
(0.0287762 0.012937 -7.51258e-05)
(0.0346994 0.0166996 0.000555027)
(0.0342803 0.0209548 0.000740801)
(0.0408283 0.0186556 -0.000403796)
(0.0478419 0.0180958 -0.000218406)
(0.0516726 0.0162069 -0.00185475)
(0.0480312 0.012254 0.00357238)
(0.0556549 0.022468 0.00113877)
(0.0420936 0.0178394 -0.0018193)
(0.0810146 0.00841717 0.00477722)
(0.0657483 0.0264612 0.00257583)
(0.0814066 0.0108566 0.00275299)
(0.106982 0.0196642 0.00117561)
(0.0979739 0.00188403 0.00315617)
(0.113602 0.0210481 0.006324)
(0.123459 0.00621534 0.00114046)
(0.109472 -0.009396 -0.00603915)
(0.13668 0.00325291 0.00131573)
(0.0838595 -0.00888098 0.00144206)
(0.148192 -0.00522768 -0.00925272)
(0.108831 -0.0310115 0.00473015)
(0.160494 0.0115287 -0.0140698)
(0.104247 -0.0137008 -0.00633944)
(0.183957 -0.0218297 -0.00694476)
(0.109931 0.0206747 -0.00657021)
(0.174914 -0.00452771 -0.0263959)
(0.165957 0.0643 0.0161534)
(0.0829463 0.0624836 -0.00942821)
(0.150494 0.0152342 0.0366228)
(0.0993725 0.0855038 0.0113135)
(0.140425 -0.000256358 0.0823949)
(0.0714092 0.767357 0.0865522)
(-0.310922 0.894479 -0.227102)
(-0.152141 0.919232 -0.112075)
(-0.34447 1.98076 -0.0788609)
(0.0297362 0.00324807 0.000230726)
(0.0325828 0.00507318 0.002803)
(0.0234109 0.0110914 0.000325853)
(0.0413403 0.00428175 -8.34885e-05)
(0.0332762 0.0101721 0.00145194)
(0.0400041 0.0120526 0.000555917)
(0.0469601 0.0083382 0.000502228)
(0.0465144 0.002292 0.000865202)
(0.054675 0.0103123 -0.00090814)
(0.0539687 -0.0118871 -0.000606364)
(0.0698139 0.0107381 0.000707621)
(0.0578199 0.000240649 0.00135301)
(0.0905369 -0.0137514 -0.00414508)
(0.0795253 0.019356 0.00248979)
(0.101973 -0.0173764 0.000524128)
(0.0900395 0.0258737 -0.00168336)
(0.120601 -0.017341 -0.00323027)
(0.137644 -0.021128 -0.000392369)
(0.129541 -0.00847689 0.00451822)
(0.125512 -0.0246609 -0.00317868)
(0.122176 -0.0126269 -0.00323877)
(0.140942 -0.0269256 0.00161646)
(0.117756 -0.0393633 0.00588939)
(0.131918 -0.0385645 -0.0181294)
(0.131998 -0.0336371 0.020579)
(0.0853532 -0.0443371 -0.00814419)
(0.125504 -0.0600563 -0.019155)
(0.133663 -0.0493675 0.0143789)
(0.129178 -0.108073 0.00567645)
(0.0754528 -0.0699495 -0.0101365)
(0.227878 -0.0147804 -0.0138104)
(0.127941 -0.135828 -0.0359026)
(0.240735 -0.0662767 -0.0353439)
(0.0716053 -0.149614 -0.224433)
(0.390817 -0.49603 0.0625335)
(-0.284356 0.59377 0.0600075)
(-0.33182 0.804581 -0.0801549)
(-0.408447 1.72781 -0.000686199)
(0.0325051 0.00423903 -0.000286145)
(0.0379999 0.00548755 0.000613376)
(0.0359228 0.00820513 0.00100945)
(0.0442515 0.00521738 -0.000393543)
(0.0391295 0.0103298 0.00144478)
(0.0479111 0.00589149 -0.000242535)
(0.054319 0.00894614 0.000765397)
(0.0538697 0.00619848 0.000778105)
(0.0537005 0.0119003 -0.000243241)
(0.0719917 0.000801273 -0.000949081)
(0.0549706 0.0170434 0.00131864)
(0.0805007 -0.00481984 -0.000449082)
(0.0702015 0.00587095 -0.00148557)
(0.0831863 0.00632429 0.00264178)
(0.103604 0.00407728 0.0022068)
(0.0739608 0.00934994 0.00384805)
(0.151345 -0.0224605 -0.00587813)
(0.0981242 0.015545 0.00243152)
(0.13427 0.00664149 -0.00220623)
(0.121545 0.0130102 0.00530598)
(0.107111 0.00764939 -0.00947805)
(0.157322 -0.00750784 -0.00143656)
(0.113728 -0.0027272 0.00234618)
(0.134852 0.00427181 -0.0101454)
(0.123642 -7.60903e-05 0.00178822)
(0.119963 0.00155398 -0.000902481)
(0.104825 -0.0042312 -0.0110834)
(0.158938 -0.0321777 0.00710915)
(0.0932253 0.0244803 -0.000872656)
(0.0568552 0.0311252 0.0216093)
(0.00436111 0.109598 0.0217473)
(-0.0356861 0.234506 -0.0229751)
(-0.123561 0.313594 -0.00420808)
(-0.125659 0.686235 -0.139709)
(-0.0128791 0.821124 -0.252614)
(-0.139506 0.786247 0.0915253)
(-0.255088 1.22702 -0.0773754)
(-0.601614 1.89093 0.0499819)
(0.0343278 0.00321832 0.000158535)
(0.0360748 0.000612317 -0.000561092)
(0.0426436 0.00360785 -0.000126866)
(0.0420599 0.00475929 0.000493809)
(0.0408035 0.00260984 -6.9617e-05)
(0.0543262 0.00156541 -0.00112329)
(0.0485669 0.00363127 0.000850421)
(0.0564361 0.00233218 -0.000328088)
(0.0544479 -0.000588523 0.00125145)
(0.0631773 -0.00633759 -0.00224365)
(0.0694592 0.00187774 0.000961513)
(0.0681835 -0.00702058 0.000558718)
(0.0648169 -0.0070522 0.00132259)
(0.0733555 -0.0210331 0.00714194)
(0.0844787 -0.0118998 0.00284553)
(0.119072 -0.0306684 0.00641985)
(0.0891358 -0.0103243 0.000820959)
(0.1109 -0.00696685 0.00173904)
(0.106326 -0.0130816 -0.00242691)
(0.124044 -0.0122204 0.0018475)
(0.104521 -0.00388551 -0.00175961)
(0.132898 -0.0206493 -0.00466292)
(0.115222 -0.0117663 0.00184361)
(0.101586 -0.00949453 0.000418254)
(0.118409 -0.00934457 -0.00581952)
(0.111594 -0.0142019 -0.00107868)
(0.132649 -0.0381154 0.00672538)
(0.0829069 -0.0552541 -0.0136263)
(0.189232 -0.0307242 0.0119697)
(0.0750329 -0.048921 -0.0123194)
(0.252303 -0.101452 -0.00199664)
(0.116486 0.00251649 0.00654059)
(0.236813 -0.0476351 -0.00816374)
(0.178027 -0.0816416 0.0615811)
(-0.124225 0.550817 -0.0441997)
(-0.557741 0.784915 0.022748)
(-0.7527 1.12084 0.0432032)
(-0.849834 1.33603 0.0377043)
(0.0367012 0.00440777 0.00052555)
(0.0347069 0.000644604 -0.00110853)
(0.0446446 0.00488843 -0.000767353)
(0.0418286 0.00659688 0.00108139)
(0.043823 1.12465e-05 -0.00131408)
(0.0504726 0.00388554 -0.000575329)
(0.0522475 0.00496758 0.000344166)
(0.0515036 0.00292635 -9.59683e-05)
(0.0612442 0.00113944 0.00109685)
(0.0520097 -0.00446951 0.0007619)
(0.0758171 0.0136062 0.00352549)
(0.059486 -0.00589082 0.00226571)
(0.0689965 0.00640186 0.0127147)
(0.0291585 -0.0469601 0.00757064)
(0.0611689 -0.0400095 -0.00455828)
(0.079816 -0.0130173 -0.0020061)
(0.0587097 -0.0186679 -0.00233678)
(0.106247 0.000311804 -0.0115432)
(0.110419 0.00327191 -0.000912309)
(0.103826 0.0137201 -0.00328995)
(0.113167 0.00849997 -0.00169501)
(0.111526 0.00604715 -0.000854539)
(0.099807 0.0234437 -0.00668043)
(0.126166 0.00951001 0.000796918)
(0.0975215 0.00495464 0.00447643)
(0.101548 0.0122482 -0.0101219)
(0.138995 -0.00851916 -0.00586967)
(0.101308 -0.0107285 0.00943309)
(0.0488114 -0.0101911 0.011712)
(0.0352218 0.014817 0.00837079)
(-0.0509191 0.157349 0.0235462)
(-0.202689 0.262184 -0.0146169)
(-0.168573 0.471196 -0.0621688)
(-0.265974 0.889527 -0.114153)
(-0.322517 1.08648 -0.080969)
(-0.458837 1.28424 -0.0744968)
(-0.71741 1.26657 -0.00274162)
(-0.542542 1.02662 0.0267782)
(0.0353662 0.00235895 0.0013752)
(0.0348148 -0.00129339 -0.00263259)
(0.0453198 0.00156001 0.000225048)
(0.0410893 0.00350726 0.00172251)
(0.0438614 0.000238392 -0.00273726)
(0.0515814 -0.00207906 -0.000712163)
(0.0513563 0.00236307 0.00317068)
(0.0468341 -0.00265287 -0.0030015)
(0.0683674 -0.00897389 0.00259144)
(0.0486704 -0.0231006 0.00102057)
(0.0655915 -0.00994647 -0.00324961)
(0.0422482 -0.00568134 0.0146806)
(-0.00489451 -0.00798473 0.0056755)
(0.040887 -0.0683214 -0.0272029)
(0.0508915 -0.0548408 -0.0197854)
(0.0648316 -0.0382814 -0.00460794)
(0.0415512 -0.0274421 -0.00906263)
(0.0740025 -0.00741386 -0.00421883)
(0.0525017 -0.00541319 -0.00175114)
(0.0721215 0.00252442 -0.00317023)
(0.0675673 0.000263601 0.000929772)
(0.0596355 -0.00189655 -0.00191188)
(0.0730617 0.0106609 -0.00175632)
(0.0820524 -0.000148558 -0.0011453)
(0.0848204 -0.00648774 -0.000351347)
(0.0728941 -0.00286342 -0.00391957)
(0.119864 -0.00901198 -0.00635836)
(0.0809937 -0.014895 -0.00544461)
(0.180754 -0.0240572 0.00269982)
(0.119499 -0.0723946 0.0100474)
(0.205885 -0.0457103 0.0328151)
(0.132662 0.00397695 0.0397828)
(0.158286 0.0132014 0.0615172)
(-0.103033 0.33005 0.0748124)
(-0.594673 1.10548 -0.0090251)
(-0.797574 1.25411 -0.0241159)
(-0.482173 1.03042 -0.0129445)
(-0.422432 0.764991 0.0350315)
(0.0240953 0.00024018 0.00133467)
(0.035244 0.00308827 -0.00516627)
(0.0525373 7.18957e-05 0.00224193)
(0.0274548 0.00194571 0.00134331)
(0.0473921 -9.34548e-05 -0.00585495)
(0.0524634 0.00279458 0.00137476)
(0.0446351 -0.00353014 0.00235053)
(0.035015 0.000759031 -0.00087073)
(0.046012 -0.0172359 0.0170023)
(-0.078837 0.00340424 0.0114435)
(-0.075357 0.0418628 -0.025498)
(0.00502036 0.024549 -0.0270517)
(-0.0139419 -0.0181434 -0.0289201)
(0.0533816 -0.042542 -0.0280401)
(-0.0193762 -0.000747304 0.00507113)
(-0.033326 0.0144558 -0.0016386)
(-0.0368226 0.0132166 -0.000892254)
(-0.0473374 0.0159188 0.00511453)
(-0.0591821 0.0110102 -0.00683929)
(-0.0138895 0.0164865 0.00150297)
(-0.0402489 0.0111184 0.00197899)
(-0.014454 0.0144149 -0.00166032)
(-0.0117846 0.0097526 0.00247329)
(-0.00563192 0.0112067 -0.00121196)
(0.00699778 0.0157499 -4.18736e-05)
(0.00345315 0.0129745 0.00131207)
(0.0105978 0.0100075 0.00287479)
(-0.0176707 -0.0216199 0.000250764)
(-0.0499326 -0.0666184 0.0109766)
(-0.260133 -0.0349456 0.024819)
(-0.404881 0.0251354 0.0382874)
(-0.611433 0.134754 0.0608753)
(-0.940209 0.551818 0.0985499)
(-1.03085 1.06998 0.163275)
(-0.894129 1.34877 0.178799)
(-0.793606 1.24687 0.154389)
(-0.178545 0.818923 0.11434)
(-0.167466 0.856439 0.12087)
(-0.0165454 -0.00317591 0.00650927)
(-0.0210446 -0.000779475 0.00518715)
(-0.0268329 0.00641533 0.00384653)
(-0.0429059 0.0175295 0.0127605)
(-0.0896665 0.044806 0.0231791)
(-0.194639 0.0568831 0.0166799)
(-0.284064 -0.00553242 0.00227053)
(-0.256398 -0.0876232 0.00761058)
(-0.201792 -0.102535 0.0169075)
(-0.184681 -0.0767546 -0.00142824)
(-0.16173 -0.0580512 -0.0208311)
(-0.143277 -0.0350239 -0.0277889)
(-0.13549 0.00106335 -0.0412792)
(-0.138125 0.0490913 -0.0624632)
(-0.17785 0.0866758 -0.0569659)
(-0.274845 0.0140325 0.0119727)
(-0.310655 -0.0608464 0.0238578)
(-0.330759 -0.0418429 7.54649e-05)
(-0.315619 -0.0531751 0.0312959)
(-0.317227 -0.0444954 0.0409294)
(-0.331877 -0.020602 0.0378994)
(-0.354012 -0.0105654 0.0476357)
(-0.407476 -0.0249309 0.0296347)
(-0.397579 -0.0892207 0.0164441)
(-0.335801 -0.135284 0.0322418)
(-0.296906 -0.153188 0.0376746)
(-0.253803 -0.152792 0.0460568)
(-0.226846 -0.146588 0.0437946)
(-0.171562 -0.151555 0.0191863)
(-0.141226 -0.127718 0.0652667)
(-0.0790533 -0.110883 -0.017004)
(-0.0241178 -0.159843 0.0333118)
(0.0476548 -0.0888723 -0.00866034)
(0.118387 -0.228598 -0.0546575)
(-0.0964572 0.253716 -0.0516545)
(1.17998 -1.04278 -0.282345)
(0.424978 0.885139 1.01145)
(2.25757 -4.23857 -2.01744)
(0.00127069 -0.00222069 0.000317887)
(-0.00114401 0.00117166 0.00347124)
(-0.00304658 0.0121414 0.00267562)
(-0.00363002 0.0241708 0.00585287)
(0.000622045 0.0414076 0.00955303)
(0.00759601 0.0591927 0.0022271)
(0.010077 0.055597 -0.0141791)
(0.00471876 0.0336001 -0.0113385)
(-0.0191665 0.024418 0.00406349)
(-0.0325586 0.0190259 0.0142951)
(-0.0410958 0.0152901 0.0217082)
(-0.0558661 0.0179415 0.0262739)
(-0.0820481 0.0320013 0.01608)
(-0.077956 0.0590308 -0.00868434)
(-0.0405526 0.0937197 -0.0496827)
(0.0032293 0.0924574 -0.06301)
(0.0238347 0.0555405 -0.0308013)
(0.0121351 0.0148916 -0.0174907)
(0.023123 -0.0167204 -0.0209519)
(0.0397163 -0.0403182 -0.00964349)
(0.0608349 -0.0456327 -0.000806038)
(0.0742998 -0.0352056 0.000708301)
(0.114795 -0.0374261 -0.0172612)
(0.136659 -0.0222904 -0.0127355)
(0.14996 -0.0332904 -0.0272527)
(0.178777 -0.031183 -0.00845764)
(0.167993 -0.0151843 -0.000952004)
(0.191601 -0.0154314 -0.0219463)
(0.184775 -0.0297832 0.0216198)
(0.273465 0.0472683 0.016546)
(0.172095 -0.0431271 -0.0294222)
(0.339641 0.101217 -0.00520433)
(0.191444 -0.103874 -0.0093537)
(0.347288 0.318433 0.185728)
(0.294276 -0.129021 -0.0667204)
(0.754973 0.150511 0.117364)
(0.230457 -1.22429 -0.783858)
(1.32468 2.33191 1.26855)
(0.0193225 0.00180409 -0.0019229)
(0.0149755 0.00322895 0.00141491)
(0.012733 0.00792915 0.00045571)
(0.0139917 0.0133881 0.00085651)
(0.0190957 0.021647 0.0028889)
(0.0272428 0.0281505 0.0029475)
(0.0349771 0.0156792 -0.000337196)
(0.0401357 -0.0146551 -0.000134025)
(0.0398233 -0.0255055 -0.00026798)
(0.0398213 -0.01919 0.000368944)
(0.0351271 -0.0104853 0.00342132)
(0.0349896 -0.00281581 0.0131912)
(0.0212969 0.00659899 0.0272784)
(0.0203663 0.0122614 0.0304099)
(0.010313 0.0368818 0.0149862)
(0.0333371 0.0372365 -0.0086352)
(0.0645731 -0.00452123 -0.0123953)
(0.0902843 -0.0345184 -0.0132383)
(0.104862 -0.049145 -0.0152707)
(0.114801 -0.0680964 -0.00843937)
(0.117895 -0.0699414 -0.0130431)
(0.115219 -0.0642296 0.00191345)
(0.146332 -0.0803612 -0.0127267)
(0.10578 -0.080435 -0.00258572)
(0.156818 -0.110285 -0.00861054)
(0.114218 -0.139439 0.00916155)
(0.0997076 -0.136527 -0.00752578)
(0.183595 -0.113519 -0.00830707)
(0.0594761 -0.255481 0.0413891)
(0.2492 -0.086577 -0.0707141)
(0.144643 -0.149978 0.0774557)
(0.287914 -0.0531669 -0.00540541)
(0.134252 -0.0439878 0.118601)
(0.437563 -0.0132585 0.044722)
(0.286115 -0.0338094 0.0706355)
(0.422293 -0.193588 -0.1084)
(0.0650889 -0.078222 -0.110768)
(1.38079 -0.791592 0.318234)
(0.0251043 0.00611019 -0.00268048)
(0.0271253 0.00833688 -0.00155179)
(0.0261982 0.0111244 -0.000717313)
(0.029786 0.0148783 0.000544335)
(0.0322173 0.0191696 0.00343595)
(0.0422953 0.0224425 0.00188403)
(0.0532164 0.0225433 -0.0019267)
(0.059342 0.0184637 -0.00453807)
(0.0554916 0.0154311 -0.00413661)
(0.0515744 0.0156347 -0.00431868)
(0.0508115 0.0173513 -0.00445516)
(0.0555163 0.0231901 -0.00227591)
(0.0613864 0.028021 -0.000467594)
(0.0726285 0.0326471 0.00664138)
(0.0848319 0.0358551 0.0117164)
(0.0998385 0.0293885 8.93415e-05)
(0.127143 0.0136448 0.000376409)
(0.142206 -0.0033294 -0.00825939)
(0.127129 -0.0119721 -0.00688541)
(0.149574 -0.0247947 -0.010214)
(0.129972 -0.0343188 -0.0136788)
(0.155214 -0.0299301 -0.0155727)
(0.128871 -0.0433762 -0.00260649)
(0.180524 -0.00493684 -0.0300041)
(0.147605 -0.0625627 -0.00294966)
(0.161146 -0.00590692 -0.0388842)
(0.198794 -0.00138058 -0.040046)
(0.0967485 -0.10308 0.019835)
(0.22752 0.0890105 -0.0885941)
(0.0695644 -0.106434 0.00714726)
(0.149227 -0.00629939 0.0049662)
(0.0741216 -0.0584985 -0.00519173)
(0.0815452 -0.101939 0.0236311)
(0.200895 -0.0246372 -0.00987058)
(-0.00822009 0.057128 0.113225)
(-0.0546158 -0.309979 -0.112829)
(0.501734 -0.223795 -0.00966101)
(0.26663 0.482983 0.16681)
(0.0255539 0.00273536 -0.00087504)
(0.0298733 0.00311628 -0.000694687)
(0.0315159 0.00722563 -0.00112388)
(0.032932 0.011058 -0.000581682)
(0.0394453 0.01277 0.000157544)
(0.0410184 0.0124882 0.00150149)
(0.0459681 0.00835302 0.000512912)
(0.0480942 0.00136343 0.000557509)
(0.0516821 -0.00619718 0.00163408)
(0.0513644 -0.0086342 0.00182077)
(0.0584111 -0.00373028 0.00195359)
(0.0586639 -0.000831129 -4.52092e-05)
(0.0708562 0.00693528 0.00345957)
(0.0804835 0.0058203 -0.000118681)
(0.0954645 0.0161558 0.00809812)
(0.1109 0.00415647 -0.00346682)
(0.127252 -0.00875093 -0.00114266)
(0.128722 -0.0214517 0.000491538)
(0.138747 -0.0233158 -0.00563606)
(0.134697 -0.0400476 -0.00556349)
(0.144264 -0.0510803 -0.00859553)
(0.122677 -0.0454701 -0.00257083)
(0.136439 -0.0532518 -0.00620017)
(0.129059 -0.0551204 -0.000676052)
(0.126422 -0.0686729 -0.0058884)
(0.132877 -0.0777415 -0.00504505)
(0.116956 -0.0911644 0.0130112)
(0.128874 -0.0938936 -0.00702275)
(0.109747 -0.112288 -0.0101151)
(0.203947 -0.106462 0.049608)
(0.123171 -0.104756 -0.0417483)
(0.214716 -0.0629249 0.0414676)
(0.203707 -0.0665575 -0.0418971)
(0.217222 -0.0747407 0.0230351)
(0.288843 0.0149637 -0.0480446)
(0.281996 -0.123659 -0.260929)
(0.262783 -0.155072 0.0156896)
(0.00272931 0.549468 0.158094)
(0.0301033 0.00394964 0.000239203)
(0.034052 0.0035429 0.00171461)
(0.0329077 0.00810855 -0.000373553)
(0.0380475 0.00815898 -0.000250184)
(0.0426689 0.00971959 0.00107524)
(0.0473067 0.012958 0.000678321)
(0.0542276 0.0122111 -0.000591895)
(0.0568837 0.0112308 -0.00114278)
(0.0643222 0.0121484 -0.00344796)
(0.0554859 0.0109177 0.000783362)
(0.0730915 0.011057 0.000843488)
(0.0594428 0.0139695 -0.00370213)
(0.0809535 0.0116417 0.00165832)
(0.084586 0.0134603 0.00119327)
(0.0957588 0.013816 0.00265971)
(0.11354 0.00958033 -0.00271417)
(0.114539 0.00770103 0.000809862)
(0.125277 0.00326342 0.00307396)
(0.135968 -0.00828617 6.61429e-05)
(0.138639 -0.0119552 -0.00800897)
(0.132853 -0.0137045 -0.00566282)
(0.131932 -0.010176 -0.00567669)
(0.13679 -0.0304514 -0.011004)
(0.136369 -0.00904425 -0.00733408)
(0.148881 -0.0393119 -0.0111113)
(0.137239 -0.0233252 -0.0152357)
(0.157585 -0.0127882 -0.0164842)
(0.142723 -0.0227799 -0.0111152)
(0.160408 -0.0383687 -0.0261514)
(0.133914 0.0126062 0.00574902)
(0.152707 0.0131901 -0.0106767)
(0.117447 0.0236672 0.0411169)
(0.183034 0.0175834 0.00659471)
(0.116601 0.0419063 0.0609879)
(0.272254 0.301418 0.269032)
(0.253347 0.179039 -0.0999489)
(-0.038312 0.336681 -0.0732666)
(-0.215418 0.818728 0.0863618)
(0.0343969 0.0023083 -0.000684784)
(0.0373935 0.00301056 0.00225362)
(0.037476 0.00469339 0.000382112)
(0.0436192 0.00442957 -0.000654239)
(0.0434093 0.00605735 0.00144421)
(0.0479435 0.00702245 0.000140569)
(0.0533754 0.00494189 0.000185192)
(0.0548662 0.000990876 0.000424826)
(0.0611611 0.00304164 -0.00121664)
(0.0609446 -0.00327107 -0.0012191)
(0.0713973 0.00115732 -0.000413866)
(0.0691412 0.000963274 0.000219727)
(0.086653 -0.00239851 -0.00446002)
(0.0842202 0.00554627 0.00080125)
(0.105118 -0.0029234 -0.000671531)
(0.103713 0.00370592 -0.00276962)
(0.120948 -0.00301091 -0.00585949)
(0.127337 -0.0146897 -0.00287368)
(0.130357 -0.0136819 0.000665986)
(0.13365 -0.0218298 -0.00503148)
(0.12638 -0.0169035 -0.00737573)
(0.132723 -0.0219917 -0.00125665)
(0.130819 -0.0354797 -0.00424233)
(0.134367 -0.0270912 -0.0101308)
(0.121717 -0.0450704 0.00578857)
(0.130617 -0.0426205 -0.00112896)
(0.131571 -0.0470357 -0.014905)
(0.1205 -0.0636801 0.00743146)
(0.155991 -0.0823744 0.00734324)
(0.137296 -0.0622689 -0.0128268)
(0.17763 -0.0737335 -0.0199975)
(0.139334 -0.0405374 -0.0527431)
(0.226256 -0.0354019 -0.0495585)
(0.0322493 0.108134 -0.108587)
(0.106706 -0.0666576 -0.0139783)
(0.15773 -0.11921 0.193003)
(-0.085557 0.353782 0.0730835)
(-0.345928 0.628024 0.124385)
(0.0364346 0.00325524 -0.00100298)
(0.0387947 0.0045444 -0.000126793)
(0.0413595 0.00526992 6.64546e-05)
(0.0449321 0.00473479 -0.00104828)
(0.0458535 0.00704711 0.000620811)
(0.0514029 0.00572611 -0.000825053)
(0.0555928 0.00662752 -0.000392359)
(0.0588081 0.00564589 -0.000105878)
(0.0607612 0.00712755 -0.00122642)
(0.0680734 0.00343524 -0.00210307)
(0.0665916 0.00832311 -0.000247387)
(0.0769892 0.00327903 -0.00198052)
(0.0767652 0.00289265 -0.00304708)
(0.0870198 0.00275281 0.00133946)
(0.0991333 0.00393241 -0.000438076)
(0.101461 0.00273825 0.00141832)
(0.128044 -0.0057942 -0.00745796)
(0.119503 0.00596697 -0.000919549)
(0.128023 0.00331952 -0.00509878)
(0.131729 0.00450482 0.000804203)
(0.128949 -0.00186506 -0.0107388)
(0.135185 -0.0018196 -0.00431822)
(0.131217 -0.00400976 -0.00431117)
(0.134622 -0.0136206 -0.00865187)
(0.129089 0.00455785 -0.00641531)
(0.129839 -0.0201574 -0.00476217)
(0.135967 -0.0153399 -0.0134432)
(0.127109 -0.0107736 -0.00450773)
(0.154538 -0.0215732 0.00816077)
(0.104507 0.0144191 0.00205285)
(0.11946 0.0448596 0.0453884)
(0.128724 0.0452947 -0.0126444)
(0.145479 0.0626946 0.00483598)
(0.158758 0.0106678 -0.0134154)
(0.227281 0.0550894 -0.148787)
(-0.044745 0.572089 -0.098895)
(-0.192218 0.689181 0.0517759)
(-0.393455 0.668405 0.120315)
(0.0370757 0.00256914 -0.000669764)
(0.0388617 0.00190099 -0.00108254)
(0.0430704 0.00341982 -0.000769583)
(0.0447434 0.00369908 -0.000415948)
(0.0467965 0.00406663 -0.000602939)
(0.0525161 0.00242704 -0.00145118)
(0.0533445 0.00382297 -0.000205676)
(0.0583993 0.00203388 -0.000798431)
(0.0592949 0.00097371 0.000642539)
(0.0665605 -0.00396263 -0.00248703)
(0.0680791 0.00101682 -0.000474168)
(0.0764086 -0.000492761 0.00026846)
(0.0724639 -0.00604402 -0.0021359)
(0.0903012 -0.00706416 0.00789136)
(0.0903474 -0.00291475 0.000780793)
(0.125924 -0.0132288 0.00404153)
(0.108686 -0.0124127 -0.000355657)
(0.124704 -0.0011809 -0.000620304)
(0.120823 -0.00999646 -0.00346918)
(0.12776 -0.00411456 -0.000535348)
(0.129009 -0.00676687 -0.00440532)
(0.125446 -0.00872732 -0.00682633)
(0.129453 -0.00755846 -0.00264183)
(0.117463 -0.0130619 -0.00410183)
(0.13346 -0.014456 -0.00231284)
(0.113027 -0.0169504 -0.0106645)
(0.142056 -0.0275071 0.0067556)
(0.119792 -0.039084 -0.0168321)
(0.173909 -0.0628063 0.00759795)
(0.144775 -0.0138376 0.00136254)
(0.220519 -0.0726622 -0.0260278)
(0.194969 -0.0368585 0.00940803)
(0.231995 -0.0560251 -0.0446477)
(0.204633 -0.0703338 0.035531)
(0.124964 -0.0721493 0.1441)
(-0.200537 0.473509 0.00733893)
(-0.479821 0.657699 0.117878)
(-0.31421 0.335563 0.0856904)
(0.0379786 0.00369646 -0.00039419)
(0.0389286 0.00131652 -0.00184054)
(0.0438588 0.0030008 -0.00126681)
(0.0449669 0.00494331 4.07772e-06)
(0.047506 0.00252346 -0.00158527)
(0.0515859 0.00180433 -0.00138416)
(0.0544164 0.00458158 -0.000267449)
(0.0565529 0.00235676 -0.000810498)
(0.0606122 0.00338705 0.00163749)
(0.0620321 -0.00543002 5.61323e-05)
(0.0752125 0.00830059 -0.000792887)
(0.0687214 -0.00198458 0.00115732)
(0.0767254 0.00571643 0.000116636)
(0.0728278 -0.00683343 0.0150217)
(0.0855907 -0.0148387 0.0028317)
(0.100571 0.00343425 0.00266188)
(0.0961014 0.00131102 -0.000973705)
(0.118496 0.00686442 -0.0116143)
(0.117377 0.00518978 -0.00311777)
(0.121006 0.00803508 -0.00325038)
(0.120525 0.0107463 -0.00493225)
(0.123431 0.0074131 -0.00152274)
(0.114886 0.0127717 -0.00949446)
(0.123611 0.00784498 -0.00536215)
(0.119175 0.00124697 0.0056225)
(0.114929 0.00300523 -0.0130986)
(0.126921 -0.012242 -0.0101538)
(0.113903 -0.0117224 0.00627942)
(0.108839 -0.0177338 0.0112313)
(0.0989688 -0.0229826 0.0316579)
(0.116584 0.0499872 0.0312116)
(0.0644215 0.117967 0.0235172)
(0.087514 0.174438 -0.0320434)
(0.0607604 0.269862 -0.0676263)
(-0.0593376 0.626849 -0.133207)
(-0.179369 0.973365 -0.0489965)
(-0.329514 0.981503 -0.0276532)
(-0.211849 0.703978 -0.0168192)
(0.038408 0.00347906 0.00106439)
(0.0387861 -0.00077595 -0.00343681)
(0.0440884 0.000838831 -0.000490931)
(0.0448548 0.0047331 0.0013543)
(0.0481578 0.000500569 -0.00228138)
(0.0510681 -0.00092031 -0.0017804)
(0.0535683 0.00321485 0.0026652)
(0.0573624 2.65353e-05 -0.00216124)
(0.0590351 -0.00331855 0.00420623)
(0.0669275 -0.0144667 -0.00124445)
(0.0662507 0.0122543 -0.00663792)
(0.0767298 0.00610901 -0.00165058)
(0.0605605 0.0134613 0.00836683)
(0.0996352 0.00932993 0.000368523)
(0.0779356 -0.0225229 -0.0078218)
(0.0861064 -0.0258188 -0.00246178)
(0.0666474 -0.0256712 -0.0115463)
(0.0748078 -0.0134139 -0.00723986)
(0.0625704 -0.0077294 -0.0031372)
(0.0640414 -0.000792542 -0.00405639)
(0.0640167 0.00279411 0.00105897)
(0.0636613 0.00248658 -0.00372689)
(0.0692864 0.00416533 -0.00403379)
(0.077466 0.00376428 -0.0043967)
(0.0863868 -0.00236497 -0.00268322)
(0.0762479 -0.00503637 -0.00985526)
(0.109284 -0.00973708 -0.00829213)
(0.0709558 -0.0176825 -0.0101891)
(0.166522 -0.0430458 0.010782)
(0.0915318 -0.0753578 0.0223627)
(0.21307 -0.0600875 0.0399737)
(0.193198 -0.0638405 0.0569701)
(0.312124 -0.0959855 0.0881917)
(0.208307 -0.199915 0.239209)
(-0.111864 0.264856 0.269825)
(-0.422819 0.790333 0.109243)
(-0.231389 0.683672 0.0645139)
(-0.202952 0.411309 0.0391824)