/*--------------------------------*- C++ -*----------------------------------*\
| =========                 |                                                 |
| \\      /  F ield         | OpenFOAM: The Open Source CFD Toolbox           |
|  \\    /   O peration     | Version:  2.3.1                                 |
|   \\  /    A nd           | Web:      www.OpenFOAM.org                      |
|    \\/     M anipulation  |                                                 |
\*---------------------------------------------------------------------------*/
FoamFile
{
    version     2.0;
    format      ascii;
    class       volScalarField;
    location    "5";
    object      epsilon_0;
}
// * * * * * * * * * * * * * * * * * * * * * * * * * * * * * * * * * * * * * //

dimensions      [0 2 -3 0 0 0 0];

internalField   nonuniform List<scalar> 
37632
(
80.8273
6.08996
0.784353
0.220986
0.101334
0.0853663
0.0701613
0.0366238
0.00904767
0.00316022
0.00264032
0.0024504
0.00228637
0.00230177
0.00236774
0.00266441
0.00279929
0.00315994
0.00332562
0.00375917
0.00416426
0.00430399
0.00430033
0.00412595
0.00371603
0.00352709
0.00349584
0.00343049
0.00333547
0.00324222
0.00298692
0.00259463
0.00242833
0.00227108
0.00212051
0.00206868
0.00196757
0.00172417
16.307
5.49448
1.57116
0.535205
0.0300651
0.0185474
0.00975317
0.00615199
0.00424449
0.00374536
0.00287643
0.00216201
0.00187886
0.00178095
0.00172492
0.00219932
0.00244409
0.00289241
0.0028196
0.00339588
0.00354116
0.00351477
0.00371179
0.00370119
0.00374616
0.00375247
0.00368294
0.00352629
0.00327876
0.00289807
0.00250406
0.00214324
0.00185538
0.00177469
0.00185192
0.0020658
0.00218562
0.00217109
9.53699
7.44018
1.3879
0.336024
0.0276421
0.00779778
0.00531352
0.00532127
0.00378935
0.00350123
0.00257756
0.00181628
0.00142786
0.00104936
0.000412239
0.000194184
0.00016859
0.000180104
0.000180128
0.000212112
0.000276113
0.000281099
0.000367041
0.000429972
0.000475303
0.000532394
0.000571817
0.000602117
0.000624464
0.000646189
0.000669742
0.000707807
0.000777638
0.000892477
0.00107228
0.00130996
0.00154925
7.15567
7.99187
2.59096
0.453064
0.0241295
0.00393059
0.0032645
0.00314739
0.00189118
0.00135831
0.0010549
0.000640573
0.000480076
0.000304118
0.000212686
0.000120688
9.56544e-05
6.39964e-05
5.88813e-05
4.81902e-05
4.80919e-05
4.61909e-05
5.04327e-05
5.97681e-05
6.59229e-05
8.22736e-05
9.87557e-05
0.00012137
0.000146546
0.000176112
0.000212484
0.000265953
0.00033992
0.000433636
0.000556178
0.000711326
0.000864337
5.50654
7.45664
4.1542
0.771991
0.0907985
0.00562755
0.00259499
0.002242
0.00154325
0.00158599
0.000853942
0.000772662
0.000746768
0.000310818
0.000293345
0.000126847
0.000116327
6.10337e-05
5.15431e-05
3.84259e-05
3.30103e-05
2.74795e-05
2.52113e-05
2.33882e-05
2.33056e-05
2.47661e-05
2.75575e-05
3.26847e-05
3.96884e-05
4.96318e-05
6.28824e-05
7.97336e-05
9.88777e-05
0.000122231
0.000151653
0.000187222
0.0002204
0.000246452
5.23615
7.87938
5.26371
1.72975
0.4631
0.0624263
0.00486349
0.00273656
0.00192174
0.00193827
0.000979922
0.000576513
0.000691294
0.000279333
0.000277386
0.000117454
0.000101128
6.76609e-05
5.7104e-05
4.16917e-05
3.70789e-05
2.64165e-05
2.33442e-05
1.9121e-05
1.73862e-05
1.55908e-05
1.46457e-05
1.42253e-05
1.43188e-05
1.52242e-05
1.69017e-05
1.9196e-05
2.18877e-05
2.51987e-05
2.89805e-05
3.18486e-05
3.28923e-05
3.24983e-05
4.97895
7.871
5.61004
1.93928
0.246798
0.0136478
0.00892763
0.00548499
0.00368759
0.00202055
0.000915596
0.000354147
0.000193434
0.000140304
8.28047e-05
7.05958e-05
5.29817e-05
4.7568e-05
3.81496e-05
3.45318e-05
2.86595e-05
2.60887e-05
2.1464e-05
1.95752e-05
1.6241e-05
1.47215e-05
1.28909e-05
1.15989e-05
1.04875e-05
9.6356e-06
8.95875e-06
8.4214e-06
7.98985e-06
7.65446e-06
7.41288e-06
7.17635e-06
6.78125e-06
4.80831
7.73706
5.83156
2.59493
0.692593
0.1094
0.0503301
0.0291673
0.0171874
0.00990049
0.00537959
0.00103823
0.000120803
8.56545e-05
7.70644e-05
5.59814e-05
5.02692e-05
3.92573e-05
3.53436e-05
2.82929e-05
2.6312e-05
2.1254e-05
1.98657e-05
1.6717e-05
1.53269e-05
1.36756e-05
1.2254e-05
1.10901e-05
9.99673e-06
9.07627e-06
8.23453e-06
7.50136e-06
6.85451e-06
6.28662e-06
5.77421e-06
5.31543e-06
4.90478e-06
3.98062
7.14397
5.91299
2.85989
0.52074
0.0417877
0.0228444
0.0145868
0.00685436
0.00404367
0.00134597
0.00029413
0.000140854
8.62107e-05
7.87209e-05
4.44976e-05
4.17527e-05
3.02318e-05
2.7449e-05
2.223e-05
1.99644e-05
1.8139e-05
1.56883e-05
1.44029e-05
1.28628e-05
1.17198e-05
1.06629e-05
9.7384e-06
8.91299e-06
8.17396e-06
7.50035e-06
6.88578e-06
6.32362e-06
5.81229e-06
5.34727e-06
4.92983e-06
4.56048e-06
4.09934
7.10044
5.88803
3.08906
0.828531
0.253898
0.0704714
0.0264341
0.0118551
0.00634185
0.00353622
0.00145842
0.000251979
0.000211337
5.32084e-05
3.92941e-05
3.99609e-05
2.76789e-05
2.62736e-05
1.94832e-05
1.76525e-05
1.64198e-05
1.40426e-05
1.32374e-05
1.17008e-05
1.08337e-05
9.8865e-06
9.09429e-06
8.36468e-06
7.70821e-06
7.10394e-06
6.54997e-06
6.04052e-06
5.57436e-06
5.14902e-06
4.76454e-06
4.42098e-06
3.7828
6.20341
5.35854
2.74719
0.633819
0.135157
0.0475287
0.0200186
0.00995866
0.00553231
0.00328484
0.00112163
0.000826358
0.00128768
0.000584201
3.14374e-05
1.64502e-05
1.5232e-05
1.5651e-05
1.36153e-05
1.32736e-05
1.20824e-05
1.11145e-05
1.05288e-05
9.63548e-06
9.0386e-06
8.38219e-06
7.81387e-06
7.27226e-06
6.77112e-06
6.29979e-06
5.85887e-06
5.445e-06
5.05886e-06
4.70034e-06
4.37187e-06
4.07583e-06
3.18168
3.83174
3.67282
2.55755
1.04866
0.41304
0.173479
0.0924565
0.0597068
0.041688
0.0206911
0.00794693
0.00456979
0.00502379
0.0037981
0.00016422
1.17917e-05
9.82027e-06
1.05836e-05
8.9776e-06
9.03842e-06
7.87608e-06
7.59913e-06
6.84663e-06
6.4914e-06
6.00897e-06
5.62038e-06
5.24424e-06
4.89926e-06
4.57929e-06
4.2832e-06
4.01301e-06
3.77023e-06
3.55397e-06
3.34487e-06
3.15206e-06
2.97347e-06
5.68945
4.05486
0.295181
0.118772
0.0429061
0.018983
0.0226998
0.0133451
0.00373869
0.00234156
0.00233431
0.00233961
0.00219669
0.00225564
0.00244491
0.00298165
0.00321625
0.00385931
0.00418457
0.00510192
0.00565807
0.0056398
0.00531591
0.00462274
0.00420699
0.00417579
0.00415318
0.00399951
0.00386457
0.00358524
0.00293852
0.00259464
0.00249294
0.00228678
0.00218181
0.00206802
0.00174987
0.00138843
14.1308
9.45932
0.586938
0.460717
0.0612465
0.0226069
0.0199282
0.00612191
0.00452602
0.00404776
0.00326783
0.00278689
0.00260328
0.00258421
0.00266364
0.00324921
0.00351349
0.00435358
0.00472819
0.00508781
0.00550785
0.0056669
0.00543731
0.00533856
0.00511879
0.00495801
0.00475733
0.00446289
0.00417635
0.00387487
0.00351382
0.00325803
0.0030623
0.00282809
0.00267082
0.002444
0.00204817
0.00171422
10.3939
5.47703
0.875555
0.114462
0.0223197
0.00628035
0.00345056
0.00236313
0.00188383
0.00181019
0.00125121
0.00119834
0.000955618
0.00100756
0.00069852
0.000369628
0.000369447
0.000394067
0.000472728
0.000470307
0.000599952
0.000651004
0.000673965
0.000751794
0.000784074
0.000816702
0.000836305
0.000841698
0.000836563
0.000823456
0.000798391
0.000766087
0.000738029
0.000738626
0.000768163
0.000817063
0.000875309
11.2423
9.18766
1.09229
0.537024
0.0181745
0.00590828
0.00254169
0.00166382
0.00139445
0.00147808
0.000961323
0.000465366
0.000503186
0.000175829
0.000161234
7.55575e-05
6.22786e-05
4.99304e-05
4.81551e-05
4.51129e-05
4.90687e-05
5.44904e-05
5.73979e-05
6.97349e-05
7.94157e-05
9.17459e-05
0.000106626
0.000123519
0.000143481
0.000167582
0.000195507
0.000228413
0.000267999
0.000320749
0.000391922
0.00048021
0.000570717
7.03413
8.86765
3.53514
0.687775
0.0583287
0.00579159
0.00255805
0.00149058
0.000969795
0.000736199
0.00091619
0.000515289
0.000595331
0.000208852
0.0001791
6.66239e-05
4.43028e-05
2.6623e-05
2.19439e-05
1.58901e-05
1.49258e-05
1.2298e-05
1.1667e-05
1.12259e-05
1.21086e-05
1.35359e-05
1.6299e-05
2.03876e-05
2.64168e-05
3.48908e-05
4.66688e-05
6.19391e-05
8.00644e-05
0.000101888
0.000128565
0.000158947
0.000185968
0.00020691
3.99504
11.3787
4.1223
1.34862
0.291424
0.0412835
0.00416052
0.00514755
0.00185784
0.00185205
0.000970703
0.000312723
0.000259898
0.000100604
0.000111735
4.13629e-05
4.83705e-05
2.05272e-05
2.0332e-05
1.41529e-05
1.33556e-05
9.50034e-06
8.26571e-06
6.77503e-06
6.37849e-06
6.15146e-06
6.15914e-06
6.51156e-06
7.14754e-06
8.19722e-06
9.72734e-06
1.17448e-05
1.41523e-05
1.70418e-05
2.03925e-05
2.36549e-05
2.66499e-05
2.85372e-05
3.37378
10.5641
4.9469
1.56432
0.0913629
0.0195365
0.00610285
0.00569755
0.00181444
0.0020105
0.000507835
0.000191328
9.13126e-05
5.45888e-05
3.53871e-05
2.15044e-05
1.9599e-05
1.27605e-05
1.20838e-05
9.31415e-06
9.07049e-06
6.69019e-06
6.34845e-06
5.19884e-06
4.80302e-06
4.39074e-06
4.09145e-06
3.8884e-06
3.78585e-06
3.75173e-06
3.81589e-06
3.94357e-06
4.12789e-06
4.36834e-06
4.6376e-06
4.8389e-06
4.9553e-06
3.87381
8.96795
4.50439
2.21206
0.541847
0.072108
0.0379549
0.0203559
0.011411
0.00579802
0.00733881
0.000681758
0.000112513
4.55228e-05
2.79307e-05
2.25637e-05
1.44483e-05
1.24336e-05
9.51399e-06
8.22195e-06
7.06829e-06
5.73116e-06
5.11322e-06
4.49992e-06
3.97003e-06
3.66882e-06
3.30829e-06
3.08565e-06
2.87586e-06
2.72549e-06
2.59771e-06
2.49413e-06
2.4034e-06
2.32776e-06
2.25908e-06
2.18845e-06
2.1121e-06
3.14257
8.34259
5.73016
2.57007
0.248539
0.0179107
0.00813246
0.00656977
0.00270693
0.00253691
0.00159565
0.000221509
0.00015385
4.89482e-05
3.70336e-05
2.32032e-05
1.24079e-05
9.90009e-06
7.4307e-06
6.28686e-06
5.29584e-06
4.7982e-06
4.05546e-06
3.76198e-06
3.29099e-06
3.06955e-06
2.80163e-06
2.61521e-06
2.44852e-06
2.31384e-06
2.19855e-06
2.0993e-06
2.01304e-06
1.93827e-06
1.87173e-06
1.8106e-06
1.75437e-06
4.85372
7.63213
4.95059
2.38011
0.666257
0.185184
0.0400056
0.0144546
0.00526438
0.00325455
0.00165786
0.00163826
0.000292049
0.000350023
9.98267e-05
2.37764e-05
1.50022e-05
9.49229e-06
8.21959e-06
5.77187e-06
4.85233e-06
4.48189e-06
3.58494e-06
3.40004e-06
2.93885e-06
2.77643e-06
2.5402e-06
2.39104e-06
2.24952e-06
2.13477e-06
2.03486e-06
1.94859e-06
1.87296e-06
1.80688e-06
1.74848e-06
1.69694e-06
1.65132e-06
4.8169
6.59529
4.97184
2.0966
0.43843
0.118889
0.0782737
0.035114
0.019107
0.0122559
0.00639221
0.00340537
0.00411268
0.00329613
0.000958798
9.79473e-05
1.10697e-05
8.08642e-06
5.66662e-06
5.10731e-06
3.96909e-06
3.87473e-06
3.18499e-06
3.0789e-06
2.73283e-06
2.61402e-06
2.42578e-06
2.30602e-06
2.18814e-06
2.08906e-06
2.00184e-06
1.92565e-06
1.85945e-06
1.80184e-06
1.75163e-06
1.70787e-06
1.66881e-06
2.86981
2.82941
2.47875
1.3643
0.589055
0.251815
0.120901
0.0776642
0.0563801
0.0392118
0.0191688
0.00732306
0.00511718
0.00462676
0.00334354
0.000466676
8.34098e-06
6.22415e-06
5.96813e-06
5.62e-06
5.15455e-06
5.00268e-06
4.59107e-06
4.42848e-06
4.15622e-06
3.96398e-06
3.76385e-06
3.58506e-06
3.4165e-06
3.2599e-06
3.11312e-06
2.97605e-06
2.84785e-06
2.72813e-06
2.6165e-06
2.51359e-06
2.4184e-06
2.73496
4.19595
0.472937
0.232522
0.0284022
0.0151092
0.0122838
0.0070467
0.00386085
0.00377118
0.0039729
0.00414865
0.00406214
0.00412597
0.00425982
0.0047392
0.00504033
0.00571802
0.00634313
0.00724842
0.00761148
0.00755176
0.00710497
0.00629724
0.00584855
0.00573032
0.00557302
0.00520915
0.00488519
0.00435172
0.00369535
0.00341175
0.00327584
0.00303651
0.00291945
0.00272575
0.00224793
0.0018147
8.39739
7.49543
0.468999
0.330006
0.0768135
0.0150514
0.0122945
0.00648954
0.00620121
0.00525116
0.0048065
0.00460361
0.00435772
0.00434676
0.0041065
0.00448185
0.00466607
0.00524728
0.00581649
0.00632878
0.00659697
0.00672003
0.00648706
0.00624765
0.00599379
0.00574717
0.00543963
0.00507633
0.00471322
0.00433487
0.00402361
0.00386632
0.00365029
0.00334327
0.00310493
0.0026906
0.00219572
0.00178431
8.93073
1.50057
0.716508
0.079331
0.0329926
0.00484635
0.00225547
0.00171037
0.00141197
0.00131
0.000998079
0.000906174
0.000703505
0.000622041
0.000532244
0.000514335
0.000576861
0.000615758
0.000727416
0.000818253
0.000905674
0.000975348
0.00101411
0.00104616
0.00107369
0.00107741
0.00107593
0.00105866
0.00103179
0.000998188
0.000955076
0.000890477
0.000810114
0.000753999
0.000734361
0.000724674
0.000717364
7.43378
1.44491
0.326443
0.0960132
0.0193065
0.00312781
0.00141007
0.000637917
0.000523782
0.000461589
0.000319857
0.000191341
0.000174844
0.000110965
8.55091e-05
6.85508e-05
6.66205e-05
6.08769e-05
6.41194e-05
6.9448e-05
7.43923e-05
8.10348e-05
8.78386e-05
9.44915e-05
0.000101938
0.000108657
0.000117237
0.000128073
0.000139569
0.000151293
0.000162358
0.000174829
0.000191146
0.000217934
0.000261478
0.000330674
0.000414761
1.60847
2.24314
0.307024
0.229463
0.0183715
0.00620792
0.00175915
0.000727204
0.000547965
0.00028102
0.000295945
0.000151135
0.000115773
8.91333e-05
4.26597e-05
3.10424e-05
2.04425e-05
1.67955e-05
1.58828e-05
1.37433e-05
1.32091e-05
1.32931e-05
1.28494e-05
1.33358e-05
1.38136e-05
1.49532e-05
1.67698e-05
1.92825e-05
2.27388e-05
2.72903e-05
3.33117e-05
4.11164e-05
5.08122e-05
6.31014e-05
7.8758e-05
9.71684e-05
0.000114573
0.000127808
0.52165
1.90176
0.364525
0.249884
0.0820275
0.0174488
0.0023795
0.00137968
0.000891528
0.000402559
0.000335119
0.000128577
7.053e-05
4.18128e-05
3.19343e-05
1.90656e-05
1.67942e-05
1.1195e-05
1.04326e-05
8.6118e-06
7.92824e-06
7.02241e-06
6.79755e-06
6.27412e-06
6.21658e-06
6.14736e-06
6.34963e-06
6.68389e-06
7.23174e-06
8.00714e-06
8.98959e-06
1.01649e-05
1.14983e-05
1.3046e-05
1.47542e-05
1.63017e-05
1.75332e-05
1.85738e-05
0.427637
1.65243
0.504271
0.342534
0.0309051
0.0122816
0.00188511
0.00111136
0.000456759
0.000302301
0.000139457
9.38079e-05
5.18798e-05
2.49075e-05
1.89945e-05
1.31886e-05
1.15827e-05
8.72016e-06
8.03908e-06
6.53982e-06
5.96603e-06
5.1131e-06
4.72073e-06
4.25402e-06
3.9561e-06
3.73357e-06
3.55953e-06
3.46347e-06
3.42517e-06
3.44607e-06
3.52379e-06
3.62862e-06
3.74374e-06
3.87473e-06
3.97876e-06
4.02762e-06
3.97392e-06
0.756889
1.50969
0.520912
0.397584
0.078894
0.0260726
0.00730979
0.00296721
0.0014595
0.000875285
0.00145322
0.000202997
7.93911e-05
2.90506e-05
1.71515e-05
1.18726e-05
8.95146e-06
7.73699e-06
6.48231e-06
5.92075e-06
4.90698e-06
4.42377e-06
3.79003e-06
3.46798e-06
3.05829e-06
2.83399e-06
2.597e-06
2.43898e-06
2.30205e-06
2.20257e-06
2.12063e-06
2.04973e-06
1.97995e-06
1.91275e-06
1.84222e-06
1.76282e-06
1.676e-06
1.15219
2.10405
1.27737
0.664865
0.0790261
0.00858081
0.00235934
0.00148359
0.000684006
0.000675749
0.000584314
0.000111663
8.39929e-05
3.98734e-05
3.02153e-05
1.45181e-05
9.44624e-06
7.28555e-06
5.76397e-06
5.13767e-06
4.11854e-06
3.81046e-06
3.14988e-06
2.89454e-06
2.51199e-06
2.32561e-06
2.11416e-06
1.97184e-06
1.8469e-06
1.75024e-06
1.66839e-06
1.59788e-06
1.53418e-06
1.47632e-06
1.42132e-06
1.36743e-06
1.31535e-06
3.14014
2.9053
1.29451
0.540666
0.215729
0.0667416
0.021525
0.00751947
0.00355902
0.00203968
0.00122074
0.000701854
0.000350886
0.000479142
0.000191585
3.11538e-05
9.91921e-06
6.95969e-06
5.46228e-06
4.83541e-06
3.7716e-06
3.57178e-06
2.83372e-06
2.6544e-06
2.25983e-06
2.10992e-06
1.90679e-06
1.78375e-06
1.67027e-06
1.5827e-06
1.50893e-06
1.44672e-06
1.3926e-06
1.34512e-06
1.30236e-06
1.26332e-06
1.22734e-06
3.12021
3.60754
2.33705
0.680724
0.233923
0.154637
0.151312
0.0760215
0.0481278
0.0333579
0.020698
0.0143307
0.00816435
0.00657477
0.00228701
0.000374211
1.99138e-05
8.07733e-06
6.79399e-06
4.53524e-06
4.05969e-06
3.40985e-06
2.94835e-06
2.72803e-06
2.39557e-06
2.24507e-06
2.04905e-06
1.92112e-06
1.80255e-06
1.70671e-06
1.62515e-06
1.55644e-06
1.49861e-06
1.4499e-06
1.40874e-06
1.37359e-06
1.34157e-06
2.88223
2.97448
2.40293
1.25331
0.598806
0.292993
0.178416
0.135944
0.102526
0.0700626
0.035761
0.0152922
0.0110273
0.0101051
0.00749096
0.00180869
4.67579e-05
6.81112e-06
6.2323e-06
6.09715e-06
5.60952e-06
5.41849e-06
5.07768e-06
4.83267e-06
4.58585e-06
4.36991e-06
4.16193e-06
3.97337e-06
3.79532e-06
3.63012e-06
3.47475e-06
3.32937e-06
3.19287e-06
3.06535e-06
2.94667e-06
2.83706e-06
2.73475e-06
1.96597
2.70645
0.416028
0.365069
0.126184
0.020632
0.00802326
0.00577725
0.00495333
0.00508371
0.00532357
0.00564111
0.00568067
0.00578418
0.00588147
0.00619249
0.00652055
0.00717442
0.00792865
0.00874573
0.00898056
0.00885853
0.00826331
0.0073906
0.00691265
0.0067181
0.00639244
0.00587164
0.00536469
0.00469427
0.00409687
0.00386627
0.00365683
0.0034167
0.0032815
0.0030196
0.00246749
0.00206406
1.62992
1.41917
0.163147
0.107164
0.0474164
0.0113639
0.00726336
0.00661241
0.00647533
0.0059948
0.00579399
0.00582655
0.00568513
0.00563769
0.00536887
0.00540187
0.0056981
0.00608798
0.00674409
0.00734315
0.00762016
0.00765207
0.00737448
0.00704614
0.00674716
0.00641342
0.0059955
0.00554807
0.00507546
0.00461556
0.00435824
0.00423055
0.00393559
0.00364236
0.00339718
0.00284264
0.00234479
0.00184752
2.02333
0.398568
0.246211
0.033152
0.0159666
0.00258393
0.00161077
0.00157647
0.00125505
0.00123177
0.00107998
0.00106538
0.000934109
0.00085996
0.000772439
0.000746129
0.000828143
0.000861729
0.0010117
0.0011227
0.00122455
0.00128495
0.0013031
0.00131001
0.00130603
0.00127337
0.00123655
0.00118604
0.0011315
0.0010803
0.00102443
0.000939975
0.000842311
0.000777791
0.000737512
0.000704763
0.000663051
1.66933
0.243235
0.0568289
0.0189354
0.00448389
0.00206903
0.000671737
0.00037842
0.000306166
0.000258076
0.00019648
0.000147869
0.000130325
0.000101077
8.69525e-05
8.17055e-05
8.19262e-05
8.22768e-05
8.95118e-05
9.59269e-05
0.000101507
0.000106834
0.000109228
0.000112124
0.000113633
0.000114442
0.000116064
0.000117314
0.000118376
0.000119109
0.000120769
0.000124315
0.000130124
0.000139915
0.000153967
0.000173949
0.000206936
0.157168
0.17002
0.0372948
0.0398433
0.012278
0.00461776
0.000879988
0.00039527
0.000273834
0.000145888
0.000133904
7.39841e-05
5.55159e-05
4.7783e-05
2.71061e-05
2.32543e-05
1.81188e-05
1.62968e-05
1.57294e-05
1.46596e-05
1.42934e-05
1.42457e-05
1.38115e-05
1.41841e-05
1.41672e-05
1.47034e-05
1.5197e-05
1.60667e-05
1.71813e-05
1.88392e-05
2.10909e-05
2.39789e-05
2.73217e-05
3.10956e-05
3.56776e-05
4.12985e-05
4.74468e-05
5.21449e-05
0.0760677
0.134033
0.0301577
0.0355497
0.0300186
0.00544852
0.00100468
0.000470498
0.000370726
0.00016354
0.000138953
7.25076e-05
3.97748e-05
2.88042e-05
1.95507e-05
1.45788e-05
1.23098e-05
9.73157e-06
9.03543e-06
8.00723e-06
7.35551e-06
6.81641e-06
6.64965e-06
6.25015e-06
6.19783e-06
6.09753e-06
6.17037e-06
6.28526e-06
6.52725e-06
6.8599e-06
7.27519e-06
7.73851e-06
8.20264e-06
8.67607e-06
9.1317e-06
9.43415e-06
9.59389e-06
9.69895e-06
0.0961926
0.156435
0.0458145
0.0583012
0.0123077
0.00406594
0.000964349
0.000383694
0.000174415
0.000107503
7.86875e-05
5.86062e-05
3.53558e-05
2.01157e-05
1.56058e-05
1.15281e-05
9.881e-06
7.94916e-06
7.30441e-06
6.19725e-06
5.58258e-06
4.98658e-06
4.55054e-06
4.17244e-06
3.88486e-06
3.67301e-06
3.50603e-06
3.39291e-06
3.32632e-06
3.29957e-06
3.29325e-06
3.29422e-06
3.28129e-06
3.2544e-06
3.19773e-06
3.08752e-06
2.92215e-06
0.220342
0.236113
0.0755229
0.0619361
0.0208106
0.0099103
0.00205685
0.000768907
0.000422305
0.000317365
0.000283779
9.55734e-05
5.00136e-05
2.71501e-05
1.64772e-05
1.09471e-05
8.07033e-06
6.99485e-06
6.07645e-06
5.56364e-06
4.65568e-06
4.25025e-06
3.62576e-06
3.31874e-06
2.94319e-06
2.71394e-06
2.49723e-06
2.33807e-06
2.20346e-06
2.09893e-06
2.00942e-06
1.92698e-06
1.84194e-06
1.75383e-06
1.65901e-06
1.55556e-06
1.44917e-06
0.677289
0.650669
0.256182
0.134146
0.0266533
0.00667277
0.00165781
0.000751726
0.000395728
0.000302303
0.00021879
0.00011068
7.44478e-05
5.33821e-05
4.54445e-05
1.67844e-05
9.69653e-06
6.86238e-06
5.70059e-06
4.99069e-06
4.06046e-06
3.69722e-06
3.07154e-06
2.79355e-06
2.42281e-06
2.21777e-06
2.00874e-06
1.86031e-06
1.73296e-06
1.63267e-06
1.54713e-06
1.47191e-06
1.40179e-06
1.33545e-06
1.27034e-06
1.20572e-06
1.14344e-06
1.83326
1.54918
0.535454
0.188961
0.103956
0.0590899
0.0206368
0.00855648
0.0052172
0.00328785
0.00223817
0.000988785
0.000539703
0.000551657
0.000470461
8.92493e-05
1.2295e-05
6.71626e-06
5.32067e-06
4.71005e-06
3.76909e-06
3.46505e-06
2.79711e-06
2.5707e-06
2.182e-06
2.00934e-06
1.80444e-06
1.6703e-06
1.55176e-06
1.4591e-06
1.38121e-06
1.31501e-06
1.25666e-06
1.20444e-06
1.15653e-06
1.11185e-06
1.06995e-06
2.23244
2.40843
1.10787
0.38129
0.241428
0.263447
0.182668
0.109223
0.0757228
0.0550836
0.0422523
0.0321453
0.0146853
0.00970835
0.00527525
0.00132838
6.59431e-05
9.80912e-06
6.34289e-06
4.77996e-06
4.32465e-06
3.4769e-06
3.08585e-06
2.77707e-06
2.42352e-06
2.24252e-06
2.02971e-06
1.88274e-06
1.74977e-06
1.64209e-06
1.55064e-06
1.4737e-06
1.40876e-06
1.354e-06
1.30768e-06
1.26741e-06
1.23038e-06
2.7502
2.89133
2.25009
1.19195
0.612293
0.332358
0.231668
0.190243
0.143365
0.0958053
0.0514251
0.0254291
0.0184997
0.0171177
0.0137724
0.00537418
0.000420648
7.91421e-06
6.53696e-06
6.10185e-06
5.95329e-06
5.50271e-06
5.3182e-06
4.99564e-06
4.7748e-06
4.54636e-06
4.338e-06
4.14486e-06
3.96283e-06
3.79332e-06
3.63335e-06
3.48329e-06
3.34201e-06
3.20995e-06
3.08711e-06
2.97316e-06
2.86637e-06
1.86181
1.39059
0.608225
0.330694
0.181091
0.0454402
0.00731792
0.00593299
0.00593454
0.00608151
0.00633532
0.00673716
0.00692546
0.00710134
0.00719046
0.00741459
0.00774626
0.00837839
0.00917679
0.00990198
0.010041
0.00985577
0.00911013
0.00817969
0.00767444
0.0073982
0.00690672
0.0062573
0.00558954
0.00484857
0.00431645
0.00407947
0.00381056
0.00356932
0.00340737
0.0030617
0.00257376
0.00213684
0.546602
0.335322
0.0975533
0.0673258
0.0544649
0.0115341
0.00615264
0.00641825
0.00619449
0.00618313
0.00616431
0.00641763
0.00646393
0.00647313
0.00625168
0.00620878
0.00655
0.00689911
0.00755078
0.00821718
0.00852755
0.00850304
0.00817143
0.00777123
0.00742411
0.0070034
0.00647713
0.00592376
0.00530635
0.00477755
0.00455967
0.00436824
0.00398996
0.00377257
0.00346523
0.00285037
0.00239885
0.00187408
0.716629
0.139056
0.0473913
0.0223632
0.00549693
0.00179344
0.00125012
0.00134694
0.00115856
0.00120434
0.00112228
0.00116683
0.00110379
0.00107297
0.0010065
0.000976693
0.00106279
0.00112096
0.00127908
0.00142808
0.00153516
0.0015885
0.00158062
0.0015469
0.00149649
0.00141364
0.00133014
0.00124222
0.00116334
0.00110037
0.00104
0.000958669
0.000890456
0.000862606
0.000835825
0.000808236
0.000733616
0.355444
0.0606985
0.0209133
0.00790994
0.00287348
0.00106675
0.000418541
0.00028269
0.000229135
0.00020289
0.000172252
0.000146041
0.000133681
0.000118773
0.000107594
0.000103872
0.000103848
0.000108756
0.000116078
0.00012481
0.000129119
0.000131154
0.000127119
0.00012339
0.000117892
0.000112119
0.000108001
0.000105555
0.00010487
0.000105846
0.000109198
0.00011379
0.000120815
0.000128357
0.000132809
0.000130695
0.000119043
0.0492308
0.0309483
0.0136039
0.0138233
0.00661996
0.00196245
0.000420243
0.000242758
0.000162019
0.000100923
8.65163e-05
5.63002e-05
4.35759e-05
3.76927e-05
2.53679e-05
2.30931e-05
1.89795e-05
1.78148e-05
1.67692e-05
1.6121e-05
1.51009e-05
1.47808e-05
1.38807e-05
1.36634e-05
1.33903e-05
1.3406e-05
1.34866e-05
1.39633e-05
1.48279e-05
1.61849e-05
1.79902e-05
2.01308e-05
2.21711e-05
2.3626e-05
2.4272e-05
2.37601e-05
2.29101e-05
2.26341e-05
0.0265756
0.0217332
0.0114756
0.0150861
0.0170422
0.00167347
0.000389249
0.000224832
0.000193397
9.97487e-05
8.21056e-05
5.57216e-05
3.2776e-05
2.50996e-05
1.75464e-05
1.35258e-05
1.15487e-05
9.53906e-06
8.8682e-06
7.96675e-06
7.3218e-06
6.72782e-06
6.46846e-06
6.02856e-06
5.90574e-06
5.76102e-06
5.73765e-06
5.76659e-06
5.91262e-06
6.13337e-06
6.40848e-06
6.65686e-06
6.79892e-06
6.83453e-06
6.68352e-06
6.37993e-06
6.02585e-06
5.66981e-06
0.0350102
0.0308976
0.0157438
0.0164271
0.00731367
0.00215115
0.000692018
0.000233529
0.000113391
7.49308e-05
6.04505e-05
4.7558e-05
3.16172e-05
1.96306e-05
1.53382e-05
1.13137e-05
9.48247e-06
7.80695e-06
7.16492e-06
6.21651e-06
5.55456e-06
5.01077e-06
4.53293e-06
4.15878e-06
3.86113e-06
3.63509e-06
3.45754e-06
3.32938e-06
3.23813e-06
3.17896e-06
3.13323e-06
3.08349e-06
3.0086e-06
2.90245e-06
2.75417e-06
2.5607e-06
2.33381e-06
0.0901885
0.0782148
0.0347019
0.017616
0.00997714
0.00423592
0.000990065
0.000400842
0.000233966
0.000164462
0.000147588
7.05228e-05
4.68302e-05
2.97755e-05
1.98189e-05
1.20095e-05
8.21241e-06
6.90573e-06
6.09245e-06
5.5063e-06
4.6629e-06
4.23179e-06
3.62988e-06
3.29255e-06
2.93304e-06
2.69017e-06
2.47605e-06
2.31134e-06
2.17278e-06
2.06032e-06
1.96117e-06
1.86687e-06
1.7678e-06
1.66233e-06
1.5485e-06
1.42823e-06
1.30942e-06
0.342291
0.304332
0.11659
0.0508476
0.0200421
0.00641454
0.00138825
0.000612107
0.000387603
0.000299553
0.000217189
0.000163087
0.000101575
7.72085e-05
7.10339e-05
2.58036e-05
1.10264e-05
7.12403e-06
5.8542e-06
5.04073e-06
4.16903e-06
3.72341e-06
3.11541e-06
2.79806e-06
2.43203e-06
2.20648e-06
1.99394e-06
1.83621e-06
1.70304e-06
1.59631e-06
1.50503e-06
1.42412e-06
1.34778e-06
1.27404e-06
1.20058e-06
1.12722e-06
1.05655e-06
1.04537
1.01031
0.395184
0.152074
0.103473
0.0651431
0.0209392
0.00956465
0.0063514
0.00435288
0.00322599
0.00176553
0.000920421
0.000713567
0.000848447
0.000236254
2.55285e-05
7.67767e-06
5.47336e-06
4.82084e-06
3.92411e-06
3.48625e-06
2.8649e-06
2.57819e-06
2.19802e-06
1.9984e-06
1.78984e-06
1.64334e-06
1.51806e-06
1.41887e-06
1.3357e-06
1.26476e-06
1.20186e-06
1.14494e-06
1.09215e-06
1.04242e-06
9.95384e-07
1.36355
2.0882
1.0819
0.433516
0.336192
0.339704
0.1946
0.126504
0.0905432
0.0679158
0.0539359
0.0409472
0.0217615
0.0136503
0.00877281
0.00334015
0.000259609
1.28771e-05
6.22066e-06
5.10031e-06
4.38136e-06
3.59017e-06
3.22994e-06
2.80368e-06
2.48708e-06
2.25706e-06
2.04141e-06
1.88022e-06
1.73907e-06
1.62394e-06
1.52634e-06
1.44426e-06
1.37491e-06
1.31635e-06
1.26672e-06
1.22248e-06
1.18173e-06
2.4795
2.74594
2.14822
1.14804
0.613909
0.375499
0.281632
0.232843
0.171067
0.11125
0.0624989
0.035726
0.0262349
0.0239535
0.0202108
0.010541
0.00158037
2.02855e-05
6.71705e-06
6.25032e-06
5.91261e-06
5.65052e-06
5.3195e-06
5.08661e-06
4.82976e-06
4.61611e-06
4.40436e-06
4.21259e-06
4.03013e-06
3.86002e-06
3.69894e-06
3.54733e-06
3.40412e-06
3.26999e-06
3.14518e-06
3.02852e-06
2.91932e-06
1.31972
0.915214
0.515611
0.397644
0.247
0.0611833
0.00810195
0.00618392
0.00638977
0.00667077
0.00694769
0.00742868
0.00776526
0.00804036
0.00820616
0.00842789
0.00876907
0.00939976
0.0102094
0.0108325
0.0108963
0.0106456
0.00975447
0.00878195
0.00825073
0.00788145
0.00726027
0.00648482
0.0056887
0.00491588
0.0044094
0.00414425
0.00383471
0.00357147
0.00339538
0.00301505
0.00257149
0.0021047
0.255945
0.107617
0.0601061
0.0527607
0.0585136
0.0144799
0.00569546
0.00590232
0.00564422
0.00600334
0.00612168
0.00655587
0.00681173
0.00693236
0.00693926
0.00692733
0.00729611
0.007641
0.00828341
0.0089597
0.00929852
0.00924746
0.00886429
0.00841304
0.00802138
0.00751781
0.00689504
0.00621099
0.00542894
0.00485482
0.00462565
0.00432619
0.00394962
0.00377631
0.00338416
0.00274625
0.00227964
0.00183975
0.228919
0.0590731
0.0184502
0.00666911
0.00346904
0.00128327
0.00103194
0.00110524
0.00103739
0.00113675
0.00111554
0.00121547
0.00121917
0.001225
0.00121041
0.00118875
0.00128906
0.00136533
0.00154192
0.00171518
0.00183345
0.00188291
0.00184259
0.00176408
0.00165338
0.00151064
0.00137167
0.00124338
0.00113891
0.00107422
0.0010236
0.000971662
0.000956139
0.000966028
0.000947676
0.000916023
0.000824499
0.0836863
0.0197626
0.00795188
0.00416987
0.00132369
0.00077632
0.000279818
0.000230663
0.000191099
0.000179696
0.000161973
0.000151873
0.000142837
0.00013269
0.000127399
0.000124821
0.000128063
0.000135717
0.000147085
0.000156129
0.000159606
0.000157558
0.000145165
0.000133025
0.000118984
0.00010609
9.95729e-05
9.6893e-05
9.67275e-05
0.000101684
0.000110849
0.000124799
0.000142063
0.000155909
0.000162668
0.000154046
0.000119854
0.0244367
0.0115802
0.00752238
0.00499116
0.00393538
0.000811558
0.000261559
0.000176843
0.000122352
8.4882e-05
7.19551e-05
5.2748e-05
4.10702e-05
3.51913e-05
2.62906e-05
2.40692e-05
2.05725e-05
1.94734e-05
1.84756e-05
1.75622e-05
1.62084e-05
1.53888e-05
1.38602e-05
1.31705e-05
1.23768e-05
1.21249e-05
1.21225e-05
1.27225e-05
1.37917e-05
1.55202e-05
1.78151e-05
2.04331e-05
2.29838e-05
2.43221e-05
2.45383e-05
2.23579e-05
1.80693e-05
1.3999e-05
0.0171909
0.0102693
0.00659046
0.0070023
0.00797604
0.000719613
0.000226179
0.00014559
0.00012707
8.0389e-05
6.52773e-05
4.9319e-05
3.14101e-05
2.45358e-05
1.7576e-05
1.34568e-05
1.14244e-05
9.61034e-06
8.9352e-06
8.05057e-06
7.36043e-06
6.70604e-06
6.32655e-06
5.82675e-06
5.60237e-06
5.42534e-06
5.38321e-06
5.41076e-06
5.57077e-06
5.80506e-06
6.082e-06
6.29415e-06
6.3975e-06
6.28996e-06
5.89179e-06
5.25952e-06
4.51435e-06
3.87019e-06
0.0193401
0.0153016
0.0101063
0.00713943
0.00405002
0.00155793
0.000578147
0.000191149
9.90682e-05
6.96072e-05
5.77905e-05
4.60963e-05
3.32172e-05
2.12136e-05
1.65956e-05
1.17535e-05
9.55407e-06
7.84508e-06
7.12024e-06
6.27608e-06
5.58897e-06
5.03534e-06
4.52626e-06
4.12865e-06
3.80702e-06
3.56777e-06
3.38592e-06
3.2548e-06
3.16312e-06
3.09826e-06
3.04055e-06
2.97144e-06
2.86897e-06
2.72097e-06
2.51985e-06
2.2724e-06
2.00475e-06
0.0421639
0.0402347
0.0265265
0.0134654
0.00624953
0.00219779
0.000636574
0.000286279
0.000174157
0.000126317
0.000102277
7.15554e-05
5.76566e-05
3.67407e-05
2.76042e-05
1.50089e-05
9.08138e-06
7.05607e-06
6.14434e-06
5.49606e-06
4.73352e-06
4.23315e-06
3.658e-06
3.28321e-06
2.92698e-06
2.67188e-06
2.45716e-06
2.29009e-06
2.15056e-06
2.03432e-06
1.92968e-06
1.82843e-06
1.72095e-06
1.60448e-06
1.4781e-06
1.34658e-06
1.21953e-06
0.155359
0.160663
0.0877556
0.0459162
0.0216408
0.00563985
0.00113102
0.000538643
0.000386231
0.0003223
0.000278815
0.000249688
0.000188408
0.000136785
0.000119285
4.8483e-05
1.5634e-05
7.99998e-06
6.02343e-06
5.09661e-06
4.33033e-06
3.76873e-06
3.17956e-06
2.81501e-06
2.45092e-06
2.206e-06
1.991e-06
1.82702e-06
1.69011e-06
1.57915e-06
1.48418e-06
1.39975e-06
1.31973e-06
1.24133e-06
1.16241e-06
1.08312e-06
1.00695e-06
0.527343
0.622165
0.348894
0.173496
0.125795
0.0678314
0.0207013
0.00984895
0.00689904
0.00502978
0.00387677
0.00259459
0.00157426
0.00112201
0.00146764
0.000546475
7.68436e-05
1.07685e-05
6.13837e-06
4.89018e-06
4.16012e-06
3.55285e-06
2.94592e-06
2.60105e-06
2.2285e-06
1.99988e-06
1.78894e-06
1.63389e-06
1.50414e-06
1.40069e-06
1.31429e-06
1.24066e-06
1.17533e-06
1.11587e-06
1.06029e-06
1.00729e-06
9.56759e-07
0.577467
1.37739