/*--------------------------------*- C++ -*----------------------------------*\
| =========                 |                                                 |
| \\      /  F ield         | OpenFOAM: The Open Source CFD Toolbox           |
|  \\    /   O peration     | Version:  2.3.1                                 |
|   \\  /    A nd           | Web:      www.OpenFOAM.org                      |
|    \\/     M anipulation  |                                                 |
\*---------------------------------------------------------------------------*/
FoamFile
{
    version     2.0;
    format      ascii;
    class       volScalarField;
    location    "5";
    object      epsilon;
}
// * * * * * * * * * * * * * * * * * * * * * * * * * * * * * * * * * * * * * //

dimensions      [0 2 -3 0 0 0 0];

internalField   nonuniform List<scalar> 
37632
(
81.6703
5.37549
0.757624
0.215
0.0990482
0.0834108
0.0687927
0.0366715
0.00915078
0.00315241
0.00262586
0.00243565
0.00227277
0.00228787
0.00235296
0.00264801
0.0027823
0.00314121
0.00330526
0.00373621
0.00414088
0.00428243
0.00428065
0.004112
0.00370558
0.00351551
0.00348431
0.00341993
0.00332564
0.00323428
0.0029838
0.00259156
0.00242401
0.0022672
0.00211651
0.00206506
0.00196549
0.00172389
16.6012
4.93083
1.4647
0.520892
0.0300158
0.0187864
0.009778
0.00612484
0.00423151
0.00372889
0.00286208
0.002152
0.00187131
0.00177313
0.00171621
0.00218807
0.00243161
0.00287624
0.00280411
0.00337935
0.00352509
0.00350097
0.00369824
0.00368824
0.0037336
0.00374082
0.00367294
0.00351797
0.00327259
0.00289401
0.00250064
0.00214062
0.00185301
0.00177172
0.00184838
0.00206128
0.00218167
0.00216783
9.47864
7.03182
1.37153
0.327681
0.0271934
0.00776069
0.00529068
0.0052977
0.00377327
0.00348753
0.00256354
0.00180887
0.00142238
0.00104751
0.000411986
0.00019385
0.000168247
0.000179535
0.000179503
0.000211463
0.000275116
0.000280132
0.00036593
0.000428703
0.000473891
0.000530957
0.000570443
0.000600912
0.000623365
0.000645134
0.000668661
0.000706538
0.000775918
0.000890116
0.00106904
0.00130598
0.00154497
6.94606
7.64548
2.46299
0.437572
0.0236378
0.00391684
0.00325521
0.00313583
0.00188534
0.00135529
0.00105098
0.000639191
0.000479597
0.000303664
0.000212461
0.000120621
9.55885e-05
6.39995e-05
5.88754e-05
4.81779e-05
4.80652e-05
4.61476e-05
5.03859e-05
5.96835e-05
6.58215e-05
8.21393e-05
9.85919e-05
0.000121172
0.000146301
0.000175816
0.000212108
0.000265398
0.000339124
0.000432553
0.000554744
0.000709595
0.000862566
5.28051
7.13691
4.02569
0.747777
0.0870766
0.00559073
0.00259739
0.00223885
0.00154093
0.00158421
0.000852783
0.00077225
0.000745786
0.000310681
0.000292898
0.000126877
0.000116287
6.10611e-05
5.15712e-05
3.84485e-05
3.30293e-05
2.74919e-05
2.52173e-05
2.33891e-05
2.33023e-05
2.47533e-05
2.75376e-05
3.26538e-05
3.96422e-05
4.95666e-05
6.27895e-05
7.95999e-05
9.86944e-05
0.000121994
0.000151369
0.000186918
0.000220188
0.000246414
4.93105
7.58198
5.12921
1.70151
0.464155
0.0649437
0.00492026
0.00273201
0.00192647
0.00194904
0.000975634
0.000577235
0.000690983
0.000279464
0.000277343
0.000117543
0.000101213
6.76875e-05
5.71137e-05
4.17235e-05
3.71098e-05
2.64362e-05
2.33589e-05
1.91295e-05
1.73939e-05
1.55952e-05
1.46484e-05
1.42269e-05
1.4318e-05
1.52213e-05
1.68957e-05
1.91861e-05
2.18746e-05
2.51838e-05
2.89673e-05
3.18484e-05
3.29144e-05
3.25489e-05
4.61957
7.60416
5.51358
1.92161
0.253078
0.0137342
0.008931
0.00547009
0.00368689
0.00202314
0.000919899
0.000355564
0.000193951
0.000140633
8.29213e-05
7.06617e-05
5.30116e-05
4.75904e-05
3.81716e-05
3.45583e-05
2.86786e-05
2.61059e-05
2.14764e-05
1.95853e-05
1.62482e-05
1.47292e-05
1.2896e-05
1.16038e-05
1.04916e-05
9.63921e-06
8.96179e-06
8.42394e-06
7.99202e-06
7.65638e-06
7.41466e-06
7.17823e-06
6.78513e-06
4.49273
7.49872
5.68742
2.55192
0.699078
0.112058
0.0502918
0.0291045
0.0172091
0.00987975
0.00541342
0.00105689
0.000121304
8.57462e-05
7.71032e-05
5.60244e-05
5.03265e-05
3.92798e-05
3.53648e-05
2.83134e-05
2.633e-05
2.12666e-05
1.98774e-05
1.67248e-05
1.53357e-05
1.36819e-05
1.22597e-05
1.10951e-05
1.0001e-05
9.08007e-06
8.23783e-06
7.50428e-06
6.85709e-06
6.28894e-06
5.77625e-06
5.31721e-06
4.90638e-06
3.74606
6.8822
5.75828
2.85234
0.538702
0.0422879
0.0228246
0.0146044
0.00688448
0.00405773
0.0013606
0.000295986
0.000140916
8.62475e-05
7.88097e-05
4.45354e-05
4.18003e-05
3.02512e-05
2.74676e-05
2.22422e-05
1.99767e-05
1.81506e-05
1.56956e-05
1.44112e-05
1.28684e-05
1.17253e-05
1.06675e-05
9.74255e-06
8.91673e-06
8.17734e-06
7.50342e-06
6.88856e-06
6.32612e-06
5.8145e-06
5.3492e-06
4.93146e-06
4.56182e-06
3.86382
6.88804
5.76305
3.12404
0.85658
0.260898
0.0718464
0.0266129
0.0118504
0.00633568
0.00352689
0.0014627
0.000253725
0.000210486
5.3347e-05
3.93567e-05
3.99576e-05
2.769e-05
2.62871e-05
1.94912e-05
1.76627e-05
1.64267e-05
1.4049e-05
1.32441e-05
1.17047e-05
1.08383e-05
9.89013e-06
9.09769e-06
8.36773e-06
7.711e-06
7.10649e-06
6.5523e-06
6.04263e-06
5.57625e-06
5.1507e-06
4.76599e-06
4.42219e-06
3.56729
6.11114
5.29238
2.82051
0.664208
0.138328
0.0478547
0.0200214
0.00993911
0.00553004
0.00327461
0.00112395
0.000828402
0.00127885
0.000595068
3.22918e-05
1.64434e-05
1.52288e-05
1.56509e-05
1.36173e-05
1.32789e-05
1.20832e-05
1.11178e-05
1.05313e-05
9.63774e-06
9.04095e-06
8.38423e-06
7.81585e-06
7.27411e-06
6.77287e-06
6.30143e-06
5.86042e-06
5.44644e-06
5.06017e-06
4.70152e-06
4.3729e-06
4.07669e-06
3.04637
3.79961
3.64083
2.58445
1.0701
0.422822
0.175605
0.0917023
0.0589314
0.0414511
0.0208245
0.0080323
0.00456119
0.00499793
0.00381734
0.000174247
1.17996e-05
9.82106e-06
1.05846e-05
8.97868e-06
9.04096e-06
7.87761e-06
7.601e-06
6.8476e-06
6.49274e-06
6.0099e-06
5.62131e-06
5.24503e-06
4.89997e-06
4.57993e-06
4.28376e-06
4.01352e-06
3.77067e-06
3.55435e-06
3.34517e-06
3.15229e-06
2.97362e-06
5.69424
3.78601
0.279472
0.117508
0.0423695
0.0188058
0.0226113
0.0134797
0.00375851
0.00232473
0.00231923
0.00232452
0.00218219
0.00224117
0.00242889
0.0029628
0.0031965
0.00383656
0.00415724
0.00506828
0.00562822
0.00561367
0.00529963
0.00461224
0.00419413
0.00416164
0.0041399
0.00398849
0.0038555
0.00358159
0.0029388
0.00259064
0.00248851
0.00228295
0.00217796
0.00206583
0.00175123
0.0013887
14.8008
9.25667
0.599528
0.477864
0.0616356
0.0228667
0.0202389
0.00611076
0.00450912
0.00402759
0.00324671
0.00276932
0.00258736
0.00256825
0.00264478
0.00322579
0.00348894
0.00432334
0.00469481
0.00505391
0.00547574
0.00563735
0.00541247
0.00531653
0.00509855
0.00493925
0.00474138
0.00444986
0.00416547
0.00386683
0.00350736
0.00325153
0.00305717
0.00282385
0.00266656
0.00244213
0.00204764
0.00171357
10.0128
5.46512
0.894036
0.112117
0.0221033
0.00629074
0.00344763
0.00235406
0.00187654
0.00180011
0.0012441
0.00119185
0.00095083
0.00100192
0.000697175
0.000368128
0.000367469
0.000391806
0.000469753
0.000467399
0.00059685
0.000647827
0.000670996
0.000748788
0.000781052
0.000813838
0.000833693
0.000839434
0.000834627
0.00082183
0.000797032
0.000764875
0.000736735
0.000737084
0.000766335
0.000815039
0.000872946
10.5991
8.82518
1.05967
0.516917
0.018176
0.00594324
0.00253294
0.0016559
0.00139225
0.00147452
0.000951714
0.000464236
0.000501176
0.000175353
0.000160839
7.53816e-05
6.21634e-05
4.98141e-05
4.80059e-05
4.49832e-05
4.89309e-05
5.43148e-05
5.72211e-05
6.95234e-05
7.91742e-05
9.14845e-05
0.000106351
0.000123224
0.000143159
0.000167226
0.000195111
0.000227937
0.000267392
0.000319938
0.000390889
0.000478974
0.000569353
7.05186
8.28397
3.4355
0.67648
0.0584964
0.00590061
0.00257933
0.00148949
0.000965833
0.000736165
0.000913367
0.000513983
0.000594448
0.000208526
0.000178619
6.65772e-05
4.42345e-05
2.6628e-05
2.19335e-05
1.58855e-05
1.49221e-05
1.22947e-05
1.16613e-05
1.12181e-05
1.20938e-05
1.35159e-05
1.62707e-05
2.03485e-05
2.63626e-05
3.48167e-05
4.65675e-05
6.17995e-05
7.98789e-05
0.000101652
0.00012828
0.000158649
0.000185731
0.000206796
3.75957
10.6199
4.035
1.33042
0.30165
0.0429464
0.00416532
0.00514269
0.00186198
0.0018635
0.000967793
0.000313096
0.000259463
0.000100629
0.000111544
4.14045e-05
4.84153e-05
2.0539e-05
2.03453e-05
1.41537e-05
1.3358e-05
9.50643e-06
8.2713e-06
6.77559e-06
6.37776e-06
6.14916e-06
6.15528e-06
6.50602e-06
7.14003e-06
8.18722e-06
9.71374e-06
1.17266e-05
1.41289e-05
1.70131e-05
2.0359e-05
2.36209e-05
2.66264e-05
2.85347e-05
3.06734
9.98819
4.88339
1.56733
0.0949953
0.0198173
0.00611004
0.0056813
0.00181928
0.00201223
0.00051002
0.00019244
9.14883e-05
5.46546e-05
3.54503e-05
2.15492e-05
1.96179e-05
1.27679e-05
1.20884e-05
9.32109e-06
9.07758e-06
6.69549e-06
6.35315e-06
5.20052e-06
4.80471e-06
4.39145e-06
4.09177e-06
3.88829e-06
3.78536e-06
3.75095e-06
3.81453e-06
3.94166e-06
4.12552e-06
4.36559e-06
4.63455e-06
4.83624e-06
4.95415e-06
3.59071
8.5948
4.39763
2.1812
0.570569
0.073419
0.03784
0.0202878
0.0114567
0.00574681
0.00741178
0.000698978
0.000113248
4.5704e-05
2.80225e-05
2.26311e-05
1.44711e-05
1.24526e-05
9.51911e-06
8.23231e-06
7.07373e-06
5.73604e-06
5.11687e-06
4.50243e-06
3.97204e-06
3.6705e-06
3.30943e-06
3.08662e-06
2.87654e-06
2.72602e-06
2.59809e-06
2.49439e-06
2.40359e-06
2.3279e-06
2.25917e-06
2.18848e-06
2.11228e-06
2.91228
7.943
5.54957
2.6183
0.261241
0.0180428
0.00816597
0.00657828
0.00271654
0.00253464
0.00161166
0.00022276
0.000153097
4.89114e-05
3.7282e-05
2.32397e-05
1.24348e-05
9.92039e-06
7.43518e-06
6.29223e-06
5.30074e-06
4.8021e-06
4.05827e-06
3.76443e-06
3.29269e-06
3.07111e-06
2.80271e-06
2.61611e-06
2.4492e-06
2.31438e-06
2.19896e-06
2.0996e-06
2.01325e-06
1.93841e-06
1.87181e-06
1.81064e-06
1.75438e-06
4.53474
7.35965
4.81494
2.44861
0.686227
0.191965
0.0406876
0.0145023
0.00526931
0.00325498
0.00165963
0.00164887
0.000294339
0.000349458
0.000100635
2.4098e-05
1.50458e-05
9.50368e-06
8.22668e-06
5.77576e-06
4.85703e-06
4.48574e-06
3.58744e-06
3.40245e-06
2.94029e-06
2.77784e-06
2.54109e-06
2.39184e-06
2.25013e-06
2.13525e-06
2.03522e-06
1.94886e-06
1.87314e-06
1.80698e-06
1.74851e-06
1.69692e-06
1.65125e-06
4.49336
6.48492
4.89497
2.20401
0.458488
0.120729
0.0780691
0.0349807
0.0190807
0.0122624
0.00637439
0.00342149
0.0041312
0.00331384
0.000970523
0.000101913
1.11583e-05
8.10622e-06
5.67516e-06
5.1109e-06
3.97236e-06
3.87756e-06
3.18676e-06
3.08069e-06
2.73394e-06
2.61506e-06
2.42643e-06
2.30661e-06
2.18857e-06
2.08939e-06
2.00206e-06
1.92579e-06
1.8595e-06
1.80182e-06
1.75155e-06
1.70774e-06
1.66865e-06
2.76799
2.79727
2.4644
1.38619
0.599532
0.25769
0.122035
0.0764859
0.0555102
0.0390825
0.0193596
0.00740553
0.00511276
0.00461852
0.0033534
0.000484744
8.44009e-06
6.22597e-06
5.96944e-06
5.62093e-06
5.15552e-06
5.00367e-06
4.59179e-06
4.42924e-06
4.15671e-06
3.96446e-06
3.76421e-06
3.58537e-06
3.41674e-06
3.26009e-06
3.11326e-06
2.97613e-06
2.84788e-06
2.72812e-06
2.61644e-06
2.51347e-06
2.41825e-06
2.73249
3.96943
0.458191
0.230562
0.0282998
0.0151818
0.0122721
0.00707793
0.00384714
0.00374217
0.0039466
0.00412165
0.00403514
0.00409885
0.00423196
0.00470956
0.00500925
0.00568342
0.00630252
0.00720563
0.00757349
0.00751785
0.00708333
0.00628068
0.00583053
0.00571196
0.00555709
0.00519714
0.00487638
0.00434873
0.00369262
0.00340599
0.00327074
0.00303223
0.00291556
0.00272396
0.00225
0.00181479
7.45059
7.18867
0.477676
0.326096
0.0756513
0.0149506
0.0122699
0.00647211
0.00617822
0.00522241
0.00477757
0.0045734
0.00432942
0.00431798
0.00407925
0.0044505
0.00463324
0.00521132
0.00577705
0.00628747
0.00655824
0.00668613
0.00645802
0.00622214
0.00597053
0.00572635
0.00542228
0.00506226
0.00470217
0.0043264
0.00401546
0.00385842
0.00364485
0.00333853
0.00310101
0.00268992
0.00219549
0.00178446
8.74449
1.55187
0.684601
0.0794702
0.0327675
0.0048414
0.00225488
0.00170346
0.00140756
0.00130433
0.000993702
0.000901935
0.000700239
0.000619073
0.000529392
0.000511344
0.000573537
0.000611877
0.000723008
0.000813383
0.000900845
0.000970756
0.00100972
0.00104202
0.00106971
0.00107376
0.00107271
0.00105594
0.00102952
0.00099626
0.000953503
0.000889255
0.000808968
0.000752654
0.000732954
0.000723355
0.000715958
7.43529
1.47864
0.317284
0.091803
0.0195532
0.0031702
0.00140992
0.00063552
0.000522599
0.000460922
0.000318128
0.000190971
0.000174592
0.000110667
8.52319e-05
6.83668e-05
6.64256e-05
6.06751e-05
6.38995e-05
6.91926e-05
7.41301e-05
8.07651e-05
8.75536e-05
9.41964e-05
0.000101636
0.000108358
0.000116932
0.000127764
0.000139249
0.000150956
0.000162007
0.000174435
0.000190655
0.000217283
0.000260595
0.000329496
0.000413422
1.71467
2.15524
0.313229
0.229466
0.0183581
0.00624221
0.00175668
0.000726803
0.00054555
0.000280502
0.0002953
0.000150727
0.000115694
8.90146e-05
4.26179e-05
3.10381e-05
2.04289e-05
1.67891e-05
1.58734e-05
1.37307e-05
1.31995e-05
1.32813e-05
1.28361e-05
1.33211e-05
1.37946e-05
1.493e-05
1.67401e-05
1.92443e-05
2.26897e-05
2.72273e-05
3.32307e-05
4.10106e-05
5.06742e-05
6.29236e-05
7.85381e-05
9.69282e-05
0.000114361
0.000127664
0.509771
1.85155
0.367955
0.252303
0.0848659
0.0177503
0.00238259
0.00138191
0.000891247
0.000403519
0.000336466
0.000128596
7.04669e-05
4.18423e-05
3.194e-05
1.90808e-05
1.6807e-05
1.11978e-05
1.04372e-05
8.6116e-06
7.92783e-06
7.02207e-06
6.79657e-06
6.27156e-06
6.21369e-06
6.14312e-06
6.3443e-06
6.6769e-06
7.22314e-06
7.99636e-06
8.97629e-06
1.01486e-05
1.1479e-05
1.30236e-05
1.47292e-05
1.6277e-05
1.75129e-05
1.85592e-05
0.401506
1.60456
0.512567
0.355022
0.0316329
0.0121752
0.00188413
0.0011097
0.000456858
0.000302939
0.000139913
9.45584e-05
5.19243e-05
2.49443e-05
1.9026e-05
1.32023e-05
1.15853e-05
8.72482e-06
8.04257e-06
6.54279e-06
5.96905e-06
5.11534e-06
4.72217e-06
4.2548e-06
3.95648e-06
3.73353e-06
3.55909e-06
3.4627e-06
3.4242e-06
3.44473e-06
3.52216e-06
3.62672e-06
3.74172e-06
3.87266e-06
3.97688e-06
4.0259e-06
3.97353e-06
0.720211
1.46784
0.512907
0.395364
0.0817143
0.0262024
0.00730132
0.00296642
0.00146451
0.000874399
0.00144875
0.000206432
7.98042e-05
2.91086e-05
1.72096e-05
1.19077e-05
8.9593e-06
7.74151e-06
6.48611e-06
5.92514e-06
4.91045e-06
4.42725e-06
3.79246e-06
3.47005e-06
3.05972e-06
2.83515e-06
2.59775e-06
2.43955e-06
2.30246e-06
2.20289e-06
2.12087e-06
2.04995e-06
1.98018e-06
1.91302e-06
1.84252e-06
1.76313e-06
1.67646e-06
1.10076
2.03085
1.25229
0.695429
0.0808673
0.00856226
0.00236705
0.00149188
0.000686429
0.000677301
0.000589832
0.000111989
8.40127e-05
3.98943e-05
3.04079e-05
1.45822e-05
9.47439e-06
7.29623e-06
5.7709e-06
5.14193e-06
4.12263e-06
3.81425e-06
3.15249e-06
2.89684e-06
2.51357e-06
2.32696e-06
2.11509e-06
1.9726e-06
1.84747e-06
1.75069e-06
1.66875e-06
1.59818e-06
1.53444e-06
1.47656e-06
1.42154e-06
1.36764e-06
1.31555e-06
3.01792
2.84805
1.2829
0.553033
0.21854
0.0670288
0.0214851
0.00751637
0.00356719
0.00204722
0.00122626
0.000703984
0.000353029
0.000479509
0.000193186
3.19247e-05
9.96581e-06
6.96861e-06
5.46962e-06
4.83911e-06
3.77589e-06
3.57554e-06
2.83632e-06
2.65683e-06
2.26143e-06
2.11134e-06
1.90774e-06
1.78456e-06
1.67088e-06
1.58319e-06
1.50931e-06
1.44702e-06
1.39284e-06
1.3453e-06
1.3025e-06
1.26343e-06
1.22743e-06
2.98117
3.53292
2.33749
0.706395
0.238862
0.155226
0.151031
0.0758549
0.0481942
0.0334469
0.0207594
0.0143857
0.0082111
0.00660721
0.00230692
0.000386943
2.03193e-05
8.11298e-06
6.81059e-06
4.54092e-06
4.06643e-06
3.41246e-06
2.95099e-06
2.73011e-06
2.39718e-06
2.24648e-06
2.05007e-06
1.92198e-06
1.80322e-06
1.70725e-06
1.62557e-06
1.55675e-06
1.49883e-06
1.45004e-06
1.40881e-06
1.37363e-06
1.34158e-06
2.7924
2.90409
2.37845
1.26868
0.607746
0.298909
0.178223
0.133527
0.101293
0.0701141
0.0362495
0.0154705
0.0109978
0.0100742
0.00750132
0.0018569
4.95426e-05
6.81712e-06
6.23338e-06
6.09825e-06
5.6107e-06
5.41967e-06
5.07865e-06
4.83349e-06
4.58659e-06
4.37052e-06
4.16245e-06
3.9738e-06
3.79568e-06
3.63042e-06
3.47499e-06
3.32955e-06
3.193e-06
3.06542e-06
2.94668e-06
2.83701e-06
2.73466e-06
1.93351
2.63888
0.398769
0.3546
0.125223
0.020914
0.00798357
0.00575644
0.0049124
0.00504777
0.00528924
0.00560551
0.00564391
0.00574667
0.00584373
0.00615408
0.00648064
0.00713077
0.00787962
0.0086968
0.00893691
0.00881976
0.00823856
0.00737046
0.00689152
0.00669764
0.00637633
0.00585973
0.00535707
0.00469087
0.00409235
0.00385997
0.00365217
0.00341259
0.00327821
0.00301888
0.00246876
0.00206431
1.58065
1.24097
0.160976
0.105085
0.0473719
0.0113559
0.00723592
0.00658997
0.00645093
0.00596381
0.00576233
0.00579158
0.00564959
0.00560176
0.00533435
0.00536519
0.00565912
0.00604655
0.00669922
0.00729619
0.00757614
0.00761454
0.00734255
0.00701783
0.00672151
0.00639123
0.00597738
0.00553377
0.00506499
0.00460684
0.00434879
0.00422245
0.00393048
0.00363675
0.00339394
0.0028428
0.00234454
0.0018495
2.04695
0.399945
0.249007
0.033638
0.0159121
0.00257978
0.00160695
0.00157148
0.0012517
0.0012274
0.00107607
0.00106088
0.000929638
0.000855826
0.000768291
0.000741953
0.00082325
0.000856409
0.00100564
0.00111619
0.00121822
0.00127906
0.0012977
0.00130501
0.00130145
0.00126935
0.00123316
0.00118335
0.00112927
0.00107837
0.00102293
0.000938965
0.000841361
0.000776704
0.000736501
0.000703831
0.000662542
1.7893
0.240411
0.0563172
0.0184641
0.0044847
0.00207125
0.000670344
0.000377455
0.00030558
0.000257661
0.000195931
0.000147605
0.000130091
0.000100808
8.67023e-05
8.14643e-05
8.16454e-05
8.197e-05
8.9171e-05
9.55662e-05
0.000101152
0.000106486
0.000108891
0.000111809
0.000113332
0.000114157
0.000115807
0.000117078
0.000118158
0.000118916
0.000120598
0.00012413
0.000129901
0.000139645
0.000153629
0.000173498
0.000206201
0.166422
0.169602
0.0375732
0.0393128
0.0122369
0.00462678
0.000875916
0.000395
0.000272887
0.000145654
0.000133706
7.38493e-05
5.54834e-05
4.77264e-05
2.70913e-05
2.32454e-05
1.81054e-05
1.62847e-05
1.57158e-05
1.46454e-05
1.42808e-05
1.42317e-05
1.37984e-05
1.41683e-05
1.41497e-05
1.46842e-05
1.51751e-05
1.60421e-05
1.71542e-05
1.88089e-05
2.10559e-05
2.3937e-05
2.72707e-05
3.10332e-05
3.55979e-05
4.12007e-05
4.73462e-05
5.20688e-05
0.0757532
0.134604
0.0304269
0.0355057
0.0306525
0.00546815
0.00100742
0.000470801
0.000370355
0.000163607
0.00013945
7.23655e-05
3.97495e-05
2.88236e-05
1.95649e-05
1.45851e-05
1.23141e-05
9.73306e-06
9.03876e-06
8.00634e-06
7.35481e-06
6.81542e-06
6.64794e-06
6.24733e-06
6.1947e-06
6.09349e-06
6.16564e-06
6.27964e-06
6.52102e-06
6.85286e-06
7.26735e-06
7.72999e-06
8.19341e-06
8.66631e-06
9.12129e-06
9.42424e-06
9.58567e-06
9.69281e-06
0.0938296
0.155056
0.0461775
0.0593377
0.0123851
0.00405301
0.000962001
0.000383112
0.00017432
0.000107622
7.8721e-05
5.89029e-05
3.53418e-05
2.01446e-05
1.56316e-05
1.15389e-05
9.88411e-06
7.95304e-06
7.30768e-06
6.19954e-06
5.58499e-06
4.98868e-06
4.55177e-06
4.17322e-06
3.88514e-06
3.67289e-06
3.50559e-06
3.39223e-06
3.32548e-06
3.29861e-06
3.29223e-06
3.2932e-06
3.2804e-06
3.25373e-06
3.19731e-06
3.08743e-06
2.92275e-06
0.21518
0.232676
0.0747153
0.061495
0.0209745
0.00994282
0.0020556
0.000769234
0.000422785
0.000317589
0.000283129
9.64589e-05
5.00951e-05
2.71604e-05
1.65366e-05
1.09851e-05
8.07922e-06
6.99914e-06
6.08065e-06
5.56727e-06
4.65921e-06
4.25362e-06
3.62824e-06
3.32083e-06
2.94465e-06
2.71507e-06
2.49801e-06
2.33867e-06
2.20392e-06
2.09933e-06
2.00978e-06
1.92734e-06
1.84235e-06
1.75432e-06
1.65956e-06
1.55614e-06
1.44982e-06
0.664914
0.641115
0.255074
0.138585
0.0268662
0.00663878
0.00166008
0.00075327
0.000396709
0.000303374
0.000219583
0.000110403
7.4472e-05
5.34909e-05
4.56853e-05
1.69101e-05
9.73439e-06
6.87455e-06
5.70913e-06
4.9953e-06
4.06484e-06
3.70116e-06
3.0744e-06
2.79602e-06
2.42452e-06
2.21921e-06
2.00978e-06
1.86115e-06
1.73361e-06
1.63321e-06
1.54759e-06
1.47232e-06
1.40218e-06
1.33584e-06
1.27072e-06
1.2061e-06
1.1438e-06
1.77523
1.53407
0.535989
0.189671
0.103301
0.0584932
0.0205484
0.00856523
0.0052323
0.00330014
0.00224627
0.000994068
0.000541652
0.000551131
0.000474492
9.14709e-05
1.24807e-05
6.73447e-06
5.3281e-06
4.71512e-06
3.77371e-06
3.46911e-06
2.80009e-06
2.57331e-06
2.18381e-06
2.01091e-06
1.80555e-06
1.67123e-06
1.55248e-06
1.45968e-06
1.38169e-06
1.31541e-06
1.257e-06
1.20473e-06
1.15678e-06
1.11208e-06
1.07016e-06
2.15382
2.37442
1.11073
0.38549
0.243891
0.26335
0.182591
0.109193
0.0758575
0.0552478
0.0423863
0.0323546
0.0147754
0.00974347
0.00531745
0.00136156
6.9053e-05
9.88018e-06
6.3509e-06
4.78879e-06
4.33007e-06
3.48033e-06
3.08938e-06
2.77947e-06
2.42546e-06
2.24416e-06
2.03095e-06
1.88379e-06
1.75061e-06
1.64279e-06
1.5512e-06
1.47414e-06
1.40911e-06
1.35426e-06
1.30786e-06
1.26756e-06
1.2305e-06
2.67188
2.81766
2.21282
1.19365
0.621015
0.336574
0.229619
0.187078
0.142256
0.0962378
0.0522035
0.0256932
0.0184407
0.0170447
0.0137614
0.00547096
0.000439951
7.97126e-06
6.53731e-06
6.10311e-06
5.95462e-06
5.50394e-06
5.3193e-06
4.99652e-06
4.77562e-06
4.54705e-06
4.3386e-06
4.14538e-06
3.96327e-06
3.7937e-06
3.63367e-06
3.48355e-06
3.34221e-06
3.21009e-06
3.08718e-06
2.97318e-06
2.86635e-06
1.79268
1.38583
0.594447
0.320838
0.178585
0.0459664
0.00728934
0.00590038
0.0058941
0.00604214
0.00629628
0.00669606
0.00688217
0.00705663
0.00714541
0.00736903
0.00769933
0.00832769
0.00912156
0.00984871
0.0099931
0.00981387
0.00908389
0.0081573
0.0076513
0.00737688
0.00689102
0.0062464
0.00558309
0.00484471
0.00431102
0.00407365
0.00380664
0.00356577
0.00340474
0.00306195
0.00257368
0.00213764
0.537127
0.315116
0.0949218
0.0667353
0.0541434
0.011573
0.00613507
0.00639349
0.00617055
0.00615338
0.00613298
0.00638119
0.00642531
0.00643357
0.00621207
0.00616791
0.00650653
0.00685288
0.00750114
0.0081655
0.00847959
0.00846231
0.00813736
0.00774075
0.00739658
0.00698021
0.00645851
0.00590975
0.00529674
0.00476849
0.00454969
0.00436138
0.00398482
0.00376672
0.00346379
0.00285013
0.00239867
0.00187684
0.731123
0.140115
0.047988
0.0224037
0.00547587
0.00178132
0.00124857
0.00134353
0.00115573
0.00120051
0.00111859
0.00116227
0.00109882
0.00106789
0.0010012
0.00097133
0.00105671
0.00111421
0.00127149
0.00142003
0.00152755
0.0015814
0.00157437
0.00154133
0.00149163
0.00140961
0.00132694
0.00123975
0.00116136
0.00109865
0.00103879
0.000957881
0.000889522
0.000861627
0.000835047
0.000807553
0.000734236
0.380873
0.0607125
0.0207315
0.00771803
0.0028591
0.00106514
0.000417273
0.000282177
0.00022877
0.000202632
0.00017194
0.000145798
0.000133443
0.000118458
0.000107277
0.000103551
0.000103476
0.00010834
0.000115611
0.000124347
0.000128683
0.000130742
0.000126768
0.000123092
0.000117637
0.000111911
0.000107835
0.000105426
0.000104759
0.000105753
0.000109113
0.000113683
0.000120686
0.000128236
0.000132706
0.000130683
0.000119106
0.0502341
0.0308736
0.0135495
0.0136523
0.00659189
0.00196236
0.000418551
0.000242603
0.000161571
0.000100781
8.64154e-05
5.62298e-05
4.35599e-05
3.76646e-05
2.53594e-05
2.30806e-05
1.89658e-05
1.77994e-05
1.67559e-05
1.61055e-05
1.50895e-05
1.47695e-05
1.38705e-05
1.36531e-05
1.3379e-05
1.33942e-05
1.34744e-05
1.39507e-05
1.48145e-05
1.61702e-05
1.79738e-05
2.01117e-05
2.21513e-05
2.36106e-05
2.4262e-05
2.37556e-05
2.28989e-05
2.26172e-05
0.0265559
0.0217544
0.0114523
0.0150707
0.0171375
0.00167532
0.000389026
0.000224843
0.000193241
9.96989e-05
8.22443e-05
5.56169e-05
3.27577e-05
2.51165e-05
1.7562e-05
1.35345e-05
1.15529e-05
9.54093e-06
8.87105e-06
7.96662e-06
7.32176e-06
6.72749e-06
6.46742e-06
6.02664e-06
5.90351e-06
5.75811e-06
5.73455e-06
5.76312e-06
5.90905e-06
6.12967e-06
6.40471e-06
6.65329e-06
6.79596e-06
6.83246e-06
6.68239e-06
6.37943e-06
6.02569e-06
5.67048e-06
0.0346229
0.0307468
0.0156799
0.0165227
0.00729758
0.00214567
0.000690248
0.000233115
0.000113296
7.49116e-05
6.04233e-05
4.76776e-05
3.15996e-05
1.96581e-05
1.53626e-05
1.13245e-05
9.48791e-06
7.81144e-06
7.16831e-06
6.21895e-06
5.55711e-06
5.01299e-06
4.53438e-06
4.15973e-06
3.8616e-06
3.63519e-06
3.45737e-06
3.32904e-06
3.2377e-06
3.17852e-06
3.13284e-06
3.08325e-06
3.00864e-06
2.90284e-06
2.7549e-06
2.56177e-06
2.33525e-06
0.0892513
0.0780008
0.0345522
0.0175744
0.00994702
0.00423757
0.000989013
0.000400677
0.000233794
0.000164604
0.000147863
7.07281e-05
4.6769e-05
2.9781e-05
1.98951e-05
1.20581e-05
8.22667e-06
6.91118e-06
6.09735e-06
5.51014e-06
4.66682e-06
4.23529e-06
3.63255e-06
3.29475e-06
2.93463e-06
2.69138e-06
2.47693e-06
2.31203e-06
2.17335e-06
2.06082e-06
1.96166e-06
1.86738e-06
1.76839e-06
1.663e-06
1.54924e-06
1.429e-06
1.3102e-06
0.339411
0.304477
0.116504
0.0509945
0.0198969
0.00638059
0.00138782
0.000612922
0.000388011
0.00030001
0.000217134
0.000162289
0.000101236
7.73225e-05
7.11158e-05
2.60274e-05
1.10875e-05
7.1406e-06
5.86348e-06
5.04629e-06
4.17404e-06
3.72763e-06
3.11861e-06
2.80069e-06
2.43393e-06
2.20803e-06
1.9951e-06
1.83713e-06
1.70377e-06
1.59692e-06
1.50556e-06
1.4246e-06
1.34825e-06
1.27451e-06
1.20106e-06
1.1277e-06
1.05701e-06
1.01835
1.00763
0.396745
0.151125
0.102175
0.0644055
0.02086
0.00958534
0.00637489
0.00437122
0.00323912
0.00177356
0.000921175
0.000713768
0.000851451
0.00024067
2.61467e-05
7.70187e-06
5.48152e-06
4.82715e-06
3.92937e-06
3.49074e-06
2.86832e-06
2.58101e-06
2.20002e-06
2.00007e-06
1.79108e-06
1.64435e-06
1.51886e-06
1.41953e-06
1.33624e-06
1.26522e-06
1.20226e-06
1.14529e-06
1.09248e-06
1.04272e-06
9.95669e-07
1.31193
2.06742
1.0849
0.435864
0.336724
0.339492
0.194596
0.126654
0.0907911
0.0681638
0.0541124
0.0412172
0.021908
0.0136678
0.00880335
0.00340536
0.000270382
1.30439e-05
6.23912e-06
5.10899e-06
4.38663e-06
3.59437e-06
3.23376e-06
2.80623e-06
2.48931e-06
2.25881e-06
2.04281e-06
1.88137e-06
1.74e-06
1.62471e-06
1.52697e-06
1.44476e-06
1.3753e-06
1.31666e-06
1.26695e-06
1.22269e-06
1.18191e-06
2.41225
2.67787
2.11771
1.15161
0.622176
0.37661
0.277799
0.229731
0.170626
0.112178
0.0634212
0.0360088
0.0261578
0.023844
0.0201778
0.0106704
0.00163113
2.13283e-05
6.72005e-06
6.25178e-06
5.91365e-06
5.65186e-06
5.32047e-06
5.08759e-06
4.83058e-06
4.61684e-06
4.40498e-06
4.21314e-06
4.03061e-06
3.86044e-06
3.6993e-06
3.54763e-06
3.40437e-06
3.27017e-06
3.1453e-06
3.0286e-06
2.91935e-06
1.26331
0.900741
0.499096
0.387211
0.245043
0.0620097
0.00815036
0.00614834
0.00635089
0.00663068
0.00690672
0.00738492
0.00771837
0.00799125
0.00815595
0.00837693
0.00871672
0.00934345
0.0101496
0.0107763
0.0108453
0.0106022
0.00972791
0.00875815
0.00822646
0.00786014
0.00724534
0.00647528
0.00568318
0.00491178
0.00440396
0.00413916
0.00383161
0.00356838
0.00339314
0.00301548
0.00257154
0.00210551
0.249963
0.103844
0.0583045
0.0516296
0.0581434
0.0146203
0.00569727
0.0058821
0.00562259
0.00597563
0.00609155
0.00652065
0.00677267
0.00689111
0.00689625
0.00688288
0.00724908
0.00759094
0.00822978
0.00890438
0.00924774
0.00920438
0.00882876
0.00838096
0.0079925
0.00749394
0.00687619
0.00619783
0.00542022
0.00484551
0.00461641
0.0043206
0.00394417
0.00377126
0.00338407
0.00274646
0.00227963
0.00184112
0.233761
0.0585646
0.0185814
0.00666404
0.00345733
0.00128382
0.00103205
0.00110222
0.00103508
0.00113345
0.00111223
0.00121082
0.00121394
0.00121939
0.00120421
0.0011824
0.00128189
0.00135734
0.00153297
0.00170577
0.00182463
0.00187487
0.00183572
0.00175816
0.00164851
0.00150687
0.00136888
0.00124146
0.00113738
0.00107288
0.00102272
0.000970931
0.000955062
0.000965033
0.000946866
0.000915249
0.000825201
0.0869007
0.0197506
0.00798317
0.00410862
0.00132474
0.000775044
0.000279256
0.000230418
0.000190855
0.000179532
0.000161785
0.000151665
0.000142581
0.000132375
0.000127035
0.00012443
0.000127599
0.000135193
0.000146494
0.000155553
0.000159067
0.000157108
0.000144815
0.000132768
0.000118801
0.000105966
9.94889e-05
9.68346e-05
9.66761e-05
0.000101637
0.000110788
0.000124703
0.00014193
0.000155817
0.000162624
0.000154179
0.000120246
0.0244948
0.0115851
0.00748694
0.00498046
0.00392933
0.000809605
0.000261025
0.000176785
0.000122113
8.47996e-05
7.19073e-05
5.27066e-05
4.10666e-05
3.51845e-05
2.62877e-05
2.40596e-05
2.05575e-05
1.94573e-05
1.84598e-05
1.75464e-05
1.61983e-05
1.53794e-05
1.38541e-05
1.31658e-05
1.23721e-05
1.212e-05
1.2117e-05
1.2716e-05
1.37839e-05
1.55102e-05
1.78022e-05
2.04186e-05
2.29727e-05
2.43171e-05
2.45474e-05
2.23832e-05
1.8109e-05
1.40216e-05
0.0170413
0.0102701
0.00659977
0.00699311
0.00800205
0.000718796
0.000225834
0.000145561
0.000126989
8.03225e-05
6.53054e-05
4.92517e-05
3.13952e-05
2.45525e-05
1.75953e-05
1.34681e-05
1.14299e-05
9.61302e-06
8.9379e-06
8.05117e-06
7.36106e-06
6.70639e-06
6.32645e-06
5.82593e-06
5.60124e-06
5.42374e-06
5.3815e-06
5.40884e-06
5.56883e-06
5.80306e-06
6.08001e-06
6.29301e-06
6.39707e-06
6.29138e-06
5.89517e-06
5.26425e-06
4.51943e-06
3.87401e-06
0.0192859
0.0152631
0.0100776
0.00714384
0.00404608
0.00155453
0.000576866
0.000190704
9.89671e-05
6.95646e-05
5.7741e-05
4.61564e-05
3.31964e-05
2.12409e-05
1.66219e-05
1.17667e-05
9.56364e-06
7.85072e-06
7.12376e-06
6.27886e-06
5.59181e-06
5.0377e-06
4.52799e-06
4.12986e-06
3.80777e-06
3.56815e-06
3.38607e-06
3.25479e-06
3.16306e-06
3.09821e-06
3.04061e-06
2.97174e-06
2.86963e-06
2.72205e-06
2.5213e-06
2.27421e-06
2.00667e-06
0.0419434
0.0402572
0.0264737
0.0134071
0.00620785
0.00219646
0.000636058
0.000286096
0.000173949
0.000126304
0.000102313
7.15128e-05
5.7495e-05
3.67251e-05
2.76717e-05
1.50681e-05
9.10369e-06
7.0642e-06
6.15009e-06
5.50033e-06
4.73798e-06
4.23679e-06
3.66092e-06
3.28555e-06
2.92872e-06
2.67321e-06
2.45815e-06
2.29088e-06
2.15122e-06
2.03492e-06
1.93027e-06
1.82907e-06
1.72168e-06
1.60531e-06
1.47898e-06
1.34749e-06
1.22039e-06
0.154749
0.161677
0.0877098
0.0455599
0.0213681
0.00560983
0.00113054
0.000539013
0.000386418
0.000322524
0.000278547
0.000248709
0.000187388
0.000136474
0.000118747
4.87556e-05
1.57512e-05
8.02534e-06
6.03433e-06
5.1028e-06
4.33619e-06
3.77323e-06
3.18313e-06
2.8178e-06
2.453e-06
2.20763e-06
1.99223e-06
1.828e-06
1.6909e-06
1.57981e-06
1.48476e-06
1.40029e-06
1.32026e-06
1.24186e-06
1.16295e-06
1.08366e-06
1.00747e-06
0.52032
0.622975
0.351056
0.172548
0.124279
0.0671228
0.0206459
0.00987932
0.00692827
0.00505102
0.00389305
0.00260439
0.00157326
0.0011204
0.00146572
0.000552653
7.85872e-05
1.08399e-05
6.15388e-06
4.89637e-06
4.16664e-06
3.55777e-06
2.94983e-06
2.60407e-06
2.23071e-06
2.00163e-06
1.79026e-06
1.63495e-06
1.50498e-06
1.40138e-06
1.31486e-06
1.24115e-06
1.17576e-06
1.11626e-06
1.06065e-06
1.00763e-06
9.57081e-07