/*--------------------------------*- C++ -*----------------------------------*\
| =========                 |                                                 |
| \\      /  F ield         | OpenFOAM: The Open Source CFD Toolbox           |
|  \\    /   O peration     | Version:  2.3.1                                 |
|   \\  /    A nd           | Web:      www.OpenFOAM.org                      |
|    \\/     M anipulation  |                                                 |
\*---------------------------------------------------------------------------*/
FoamFile
{
    version     2.0;
    format      ascii;
    class       volScalarField;
    location    "5";
    object      k;
}
// * * * * * * * * * * * * * * * * * * * * * * * * * * * * * * * * * * * * * //

dimensions      [0 2 -2 0 0 0 0];

internalField   nonuniform List<scalar> 
37632
(
1.10807
0.162693
0.0469928
0.0204582
0.0122427
0.0109168
0.00962481
0.0064256
0.00256721
0.00124877
0.00110292
0.00104857
0.00100134
0.00100569
0.00102453
0.00110855
0.00114579
0.00124245
0.00128515
0.00139458
0.00149409
0.00152864
0.00152871
0.0014896
0.0013904
0.00134195
0.00133398
0.00131772
0.00129351
0.00127018
0.00120499
0.00109683
0.00104856
0.00100289
0.000957811
0.000942318
0.000912249
0.000836441
0.385222
0.154626
0.0712474
0.0368062
0.00561223
0.00415267
0.00266574
0.00194143
0.00151881
0.00139455
0.00116853
0.000966506
0.000880919
0.000849595
0.00083091
0.000976914
0.00104813
0.00117186
0.00115227
0.00130552
0.00134312
0.0013376
0.00138767
0.00138533
0.00139682
0.00139887
0.0013823
0.00134351
0.00128074
0.00118039
0.00107087
0.00096555
0.000876965
0.000850879
0.00087509
0.000940861
0.000977426
0.000973516
0.261008
0.205974
0.0709841
0.0271146
0.00519997
0.00227286
0.001761
0.00176238
0.00140576
0.00133418
0.00108542
0.000861185
0.000733791
0.00059934
0.000322018
0.00019464
0.000177059
0.000184738
0.000184672
0.000206052
0.00024546
0.000248466
0.000297003
0.000330083
0.000352883
0.00038075
0.000399489
0.000413715
0.000424036
0.000433893
0.000444386
0.000460952
0.0004905
0.000537343
0.00060696
0.000693608
0.000775995
0.208104
0.219029
0.10205
0.0326723
0.00471553
0.00144223
0.00127546
0.00124318
0.000885973
0.000711402
0.000599789
0.000431059
0.000356237
0.000262575
0.00020701
0.000141986
0.00012158
9.31001e-05
8.80521e-05
7.70249e-05
7.68876e-05
7.48073e-05
7.93208e-05
8.87682e-05
9.47458e-05
0.000109812
0.000124023
0.000142305
0.00016135
0.000182379
0.000206669
0.000239921
0.000282461
0.00033217
0.000392075
0.000462056
0.00052643
0.17151
0.208757
0.143637
0.0467562
0.0110699
0.00182071
0.00110027
0.000994736
0.00077538
0.000790055
0.000522717
0.000489568
0.000478036
0.000266816
0.000256328
0.000146943
0.000138587
9.02551e-05
8.06488e-05
6.63122e-05
5.99242e-05
5.30192e-05
5.0045e-05
4.75887e-05
4.74645e-05
4.94011e-05
5.3031e-05
5.94014e-05
6.75887e-05
7.84356e-05
9.18174e-05
0.000107534
0.000124091
0.000142914
0.000165029
0.000189984
0.000212013
0.000228668
0.161519
0.217759
0.169475
0.0817583
0.0348832
0.00967352
0.00169921
0.00113574
0.000902508
0.000911676
0.000570479
0.000403764
0.000454614
0.0002488
0.000247423
0.000139699
0.000126448
9.66681e-05
8.63041e-05
7.00355e-05
6.47757e-05
5.16644e-05
4.75689e-05
4.16324e-05
3.90742e-05
3.63277e-05
3.48393e-05
3.41661e-05
3.43072e-05
3.57319e-05
3.83017e-05
4.16843e-05
4.54898e-05
4.99692e-05
5.48621e-05
5.84616e-05
5.97893e-05
5.93851e-05
0.152508
0.218979
0.179023
0.0893479
0.0236903
0.00335352
0.00250499
0.00180256
0.00138848
0.00093163
0.000552287
0.000292915
0.000195349
0.000157628
0.000110761
9.95201e-05
8.21448e-05
7.64391e-05
6.59929e-05
6.17687e-05
5.4543e-05
5.12299e-05
4.49757e-05
4.22934e-05
3.73394e-05
3.49764e-05
3.20074e-05
2.98325e-05
2.78937e-05
2.63613e-05
2.51106e-05
2.40949e-05
2.32635e-05
2.26072e-05
2.21287e-05
2.16561e-05
2.08628e-05
0.150466
0.21752
0.181921
0.107289
0.0460784
0.0137584
0.00792415
0.00549618
0.00388185
0.00267461
0.00180233
0.000611762
0.000143051
0.000113233
0.000105446
8.52417e-05
7.93816e-05
6.72639e-05
6.27182e-05
5.40815e-05
5.15235e-05
4.46828e-05
4.27152e-05
3.80664e-05
3.59312e-05
3.32963e-05
3.09473e-05
2.89545e-05
2.7018e-05
2.53325e-05
2.37404e-05
2.23091e-05
2.10071e-05
1.98299e-05
1.87368e-05
1.77303e-05
1.68047e-05
0.13401
0.2048
0.18302
0.116496
0.0393859
0.00713199
0.00467873
0.00347936
0.00211249
0.00148398
0.000720248
0.000259652
0.000157612
0.000113621
0.000107047
7.31529e-05
7.01412e-05
5.65179e-05
5.2997e-05
4.60377e-05
4.28582e-05
4.02054e-05
3.64881e-05
3.44724e-05
3.19627e-05
3.00414e-05
2.82054e-05
2.65503e-05
2.50278e-05
2.36243e-05
2.23078e-05
2.10717e-05
1.99084e-05
1.88198e-05
1.78016e-05
1.68619e-05
1.6008e-05
0.137017
0.205577
0.183793
0.125086
0.0537038
0.0242479
0.0102081
0.00521492
0.00302408
0.00199091
0.00134551
0.000751351
0.000234388
0.000205243
8.26169e-05
6.74113e-05
6.8002e-05
5.32714e-05
5.1461e-05
4.21545e-05
3.948e-05
3.76113e-05
3.38894e-05
3.25833e-05
3.00029e-05
2.85056e-05
2.68166e-05
2.53645e-05
2.39887e-05
2.27165e-05
2.15131e-05
2.03796e-05
1.93085e-05
1.83016e-05
1.7358e-05
1.64823e-05
1.56795e-05
0.129865
0.191598
0.17465
0.118145
0.0458676
0.0158577
0.00771205
0.00429165
0.00268595
0.00181898
0.00128003
0.000629981
0.000514193
0.000682011
0.000417238
6.0238e-05
3.76137e-05
3.5743e-05
3.64058e-05
3.31837e-05
3.26377e-05
3.06404e-05
2.89908e-05
2.79608e-05
2.63558e-05
2.52567e-05
2.40181e-05
2.29201e-05
2.18484e-05
2.08329e-05
1.98546e-05
1.89171e-05
1.80154e-05
1.71532e-05
1.63327e-05
1.55623e-05
1.4851e-05
0.118273
0.140944
0.136784
0.110317
0.0617795
0.0333557
0.018432
0.01177
0.00872618
0.00693697
0.00442396
0.00235243
0.00159828
0.00169439
0.00142628
0.000189668
3.01741e-05
2.66859e-05
2.80521e-05
2.5138e-05
2.52572e-05
2.30396e-05
2.2498e-05
2.0984e-05
2.02536e-05
1.92359e-05
1.83976e-05
1.7567e-05
1.67878e-05
1.60485e-05
1.53489e-05
1.46963e-05
1.40972e-05
1.35527e-05
1.30154e-05
1.251e-05
1.20325e-05
0.297105
0.212629
0.0381494
0.0220324
0.0111319
0.00648746
0.00736306
0.00526968
0.00224202
0.00161216
0.00161047
0.00161294
0.00154624
0.0015742
0.00166075
0.0018963
0.00199502
0.00225359
0.00237634
0.00271178
0.00291088
0.00290726
0.00280105
0.0025549
0.00239664
0.00238363
0.00237567
0.00231814
0.002267
0.00216044
0.00189519
0.00174024
0.00169389
0.00159938
0.00154986
0.00149697
0.00134269
0.00114985
0.563618
0.312994
0.0625273
0.0516978
0.014972
0.00985474
0.00972901
0.00406495
0.00310398
0.00299754
0.00252056
0.00209744
0.00192884
0.00186705
0.00193052
0.00231112
0.0024807
0.00298474
0.00323189
0.0034508
0.00372008
0.00383586
0.00379347
0.00379282
0.0037345
0.00368821
0.00360913
0.00346484
0.00330685
0.00313404
0.00289244
0.00268282
0.00252687
0.00240089
0.00235642
0.00227251
0.00201742
0.00174312
0.382432
0.280147
0.0728858
0.0201555
0.0067238
0.00395994
0.00284282
0.00225356
0.00182124
0.00174659
0.00127464
0.00119741
0.000960845
0.000904866
0.000717807
0.000437062
0.000442195
0.000462629
0.000535082
0.000530633
0.000674704
0.000737892
0.000775991
0.000880711
0.000930579
0.000985767
0.00102594
0.00105077
0.00106254
0.00106329
0.00104766
0.00102139
0.000994173
0.000992858
0.00102503
0.00108094
0.00114621
0.41438
0.361267
0.0799874
0.0464005
0.0054282
0.00333812
0.00213738
0.00172044
0.00143948
0.00142929
0.00104499
0.00069977
0.000690556
0.000390982
0.000363904
0.000226505
0.000200171
0.000160981
0.000152441
0.000132482
0.000129743
0.000130335
0.000132098
0.000150108
0.000164599
0.000186505
0.000212144
0.000241344
0.00027347
0.000310284
0.000353724
0.000402643
0.000463061
0.000533586
0.000615942
0.000708161
0.000791891
0.312867
0.36113
0.177732
0.0548618
0.00974213
0.00215319
0.00211374
0.00163033
0.00109507
0.00110532
0.0010928
0.000752118
0.000816396
0.000402931
0.000436645
0.000234581
0.000233483
0.000145932
0.000139176
0.000104219
9.50014e-05
7.53901e-05
7.07643e-05
5.98365e-05
5.69298e-05
5.53315e-05
5.69221e-05
6.2493e-05
7.22192e-05
8.68135e-05
0.000107518
0.000133179
0.000161538
0.000193078
0.00022834
0.000262556
0.000285512
0.000296492
0.200437
0.437578
0.207781
0.0893521
0.0281779
0.00754565
0.00251748
0.00328239
0.00168031
0.00211473
0.00133546
0.000758254
0.00077664
0.000423655
0.000446416
0.00025214
0.000259939
0.000158029
0.000152319
0.000120268
0.000114158
8.86939e-05
7.63847e-05
6.19229e-05
5.46245e-05
4.93593e-05
4.36722e-05
4.0642e-05
3.8467e-05
3.76313e-05
3.78148e-05
3.95078e-05
4.20545e-05
4.5347e-05
4.91297e-05
5.23052e-05
5.4482e-05
5.52552e-05
0.176828
0.41894
0.243616
0.0957964
0.0131205
0.00639282
0.0040885
0.00382476
0.00222178
0.00219273
0.00106287
0.000637934
0.000385203
0.00032117
0.000207858
0.000167025
0.000148927
0.000121188
0.000113891
9.67218e-05
9.31259e-05
7.54707e-05
7.25839e-05
6.14716e-05
5.72369e-05
5.1616e-05
4.72366e-05
4.30398e-05
3.96429e-05
3.67146e-05
3.44738e-05
3.24657e-05
3.0934e-05
2.96519e-05
2.86879e-05
2.79502e-05
2.73462e-05
0.204399
0.378314
0.231674
0.126786
0.0575905
0.0148147
0.0108203
0.00770439
0.00548461
0.00299847
0.00290602
0.000663495
0.000403682
0.000244401
0.000191968
0.000173349
0.00013281
0.000123398
0.000100949
9.34865e-05
8.25535e-05
7.05155e-05
6.38769e-05
5.83477e-05
5.22224e-05
4.88745e-05
4.46451e-05
4.18005e-05
3.89784e-05
3.67058e-05
3.46027e-05
3.2746e-05
3.10458e-05
2.95048e-05
2.80937e-05
2.68225e-05
2.57116e-05
0.192901
0.369246
0.283411
0.137297
0.026753
0.00521289
0.00338545
0.00281779
0.00155485
0.00135787
0.000941539
0.000477392
0.000415787
0.000207275
0.000209307
0.000147689
0.000112264
9.817e-05
8.04188e-05
7.27143e-05
6.40711e-05
5.96967e-05
5.25515e-05
4.9604e-05
4.45932e-05
4.19753e-05
3.9003e-05
3.67064e-05
3.46876e-05
3.29412e-05
3.14152e-05
3.00315e-05
2.87854e-05
2.76432e-05
2.65899e-05
2.56185e-05
2.47412e-05
0.280819
0.373671
0.269288
0.14018
0.0602197
0.0310092
0.0121002
0.00600786
0.00289819
0.00180167
0.0010877
0.00106934
0.000332719
0.000348869
0.000191918
0.000124583
0.000117193
8.46063e-05
8.0694e-05
6.31088e-05
5.58603e-05
5.23448e-05
4.49995e-05
4.29465e-05
3.85725e-05
3.67751e-05
3.43983e-05
3.27249e-05
3.11879e-05
2.98939e-05
2.87427e-05
2.77119e-05
2.67689e-05
2.58999e-05
2.50907e-05
2.4338e-05
2.36447e-05
0.275935
0.338543
0.256263
0.117364
0.0417526
0.0216273
0.0226627
0.011681
0.00727185
0.0050687
0.00284219
0.00188693
0.00223163
0.00174364
0.000689194
0.000185116
5.92455e-05
5.35681e-05
4.2471e-05
4.25065e-05
3.47776e-05
3.56559e-05
3.13582e-05
3.11889e-05
2.90483e-05
2.84545e-05
2.728e-05
2.65567e-05
2.58026e-05
2.51479e-05
2.45442e-05
2.3983e-05
2.34555e-05
2.29517e-05
2.24635e-05
2.19891e-05
2.15346e-05
0.177094
0.1823
0.167842
0.116122
0.066518
0.0380453
0.0229143
0.0164677
0.0132819
0.0106054
0.00670608
0.0035389
0.00273982
0.00255838
0.00207366
0.000586078
3.86443e-05
3.1266e-05
3.03993e-05
2.92031e-05
2.75685e-05
2.70246e-05
2.55197e-05
2.49141e-05
2.38804e-05
2.31383e-05
2.2352e-05
2.16381e-05
2.0954e-05
2.03083e-05
1.96937e-05
1.91109e-05
1.85576e-05
1.80334e-05
1.75375e-05
1.70741e-05
1.66398e-05
0.181775
0.222399
0.0536199
0.034472
0.00856203
0.00568308
0.00491041
0.00341659
0.00226218
0.00221344
0.0022952
0.00236279
0.00232937
0.00235396
0.00240471
0.00258294
0.00269157
0.00292821
0.00313633
0.00343047
0.00354869
0.00353261
0.00339881
0.00313796
0.00298518
0.00294429
0.00289156
0.00276645
0.00265241
0.00245951
0.0022054
0.00208825
0.00203279
0.00193293
0.00188313
0.0018006
0.00158704
0.00137427
0.332967
0.300225
0.0587468
0.0509826
0.017805
0.00810876
0.00765854
0.00466721
0.0043922
0.00394652
0.00359135
0.00341104
0.00320971
0.00316608
0.00306851
0.00332884
0.00347744
0.00383656
0.00419919
0.00451972
0.00471987
0.00482818
0.00477186
0.00470081
0.00462151
0.00453035
0.00439342
0.00420345
0.0039966
0.00376818
0.00355356
0.00340543
0.00323361
0.00304669
0.00292077
0.00266208
0.00224721
0.00186603
0.405778
0.127184
0.0794312
0.0193998
0.010172
0.00366728
0.00235729
0.00186832
0.00157121
0.00144765
0.00113696
0.00102391
0.000826888
0.0007319
0.000635586
0.000606096
0.000667111
0.000698262
0.00080903
0.000896584
0.00100157
0.00108803
0.00114903
0.00120928
0.00126317
0.00129542
0.00132092
0.00132907
0.00132294
0.00130464
0.00126829
0.00120624
0.00113035
0.00108413
0.00107073
0.00106314
0.00106284
0.356544
0.106369
0.0414817
0.0152301
0.00749277
0.00270802
0.00197386
0.00109706
0.000938477
0.000809417
0.000646348
0.000478728
0.000447891
0.000335606
0.000274271
0.000227339
0.000209273
0.000187203
0.000183004
0.00017708
0.000178821
0.000187089
0.000192233
0.000203206
0.000214476
0.000226813
0.000241597
0.000261447
0.000283491
0.00030605
0.000326821
0.000349495
0.000378026
0.000422624
0.000493753
0.000585504
0.000679455
0.112291
0.13176
0.0301311
0.0288899
0.00585513
0.00330594
0.0021898
0.00137642
0.00104638
0.000754943
0.000724128
0.000505004
0.000428455
0.000375551
0.000265333
0.000229569
0.000178811
0.000152265
0.000144964
0.000122121
0.000110808
0.000104701
9.46423e-05
8.72102e-05
8.25335e-05
7.82354e-05
7.65223e-05
7.67694e-05
8.02877e-05
8.68778e-05
9.63713e-05
0.000109065
0.000124522
0.000143663
0.000166889
0.000191374
0.000210549
0.000221387
0.04414
0.114227
0.0326465
0.028659
0.012061
0.00610738
0.0023464
0.00185693
0.00147884
0.00101393
0.0009688
0.00060558
0.000451724
0.000342408
0.000287708
0.00022045
0.000193977
0.000153727
0.000143619
0.00012425
0.000113346
0.000100288
9.4713e-05
8.22177e-05
7.6848e-05
7.02671e-05
6.48967e-05
6.0444e-05
5.67219e-05
5.41338e-05
5.23054e-05
5.11814e-05
5.06232e-05
5.04544e-05
5.0682e-05
5.08917e-05
5.07216e-05
5.07514e-05
0.0398492
0.105049
0.0433295
0.0356597
0.00845266
0.0063553
0.00236821
0.001681
0.00106167
0.000800026
0.000609905
0.00057755
0.000399247
0.000263893
0.000224773
0.000184291
0.00016916
0.000141016
0.000131835
0.000113872
0.000105563
9.3256e-05
8.67535e-05
7.89045e-05
7.28045e-05
6.7405e-05
6.25466e-05
5.82704e-05
5.45269e-05
5.12703e-05
4.84318e-05
4.58774e-05
4.36685e-05
4.15888e-05
3.96851e-05
3.79378e-05
3.6434e-05
0.0698689
0.1066
0.0476451
0.0408799
0.0170292
0.00942462
0.00379225
0.00228056
0.00153659
0.000982963
0.000992784
0.000536602
0.000496903
0.000257997
0.000198713
0.000167658
0.000142558
0.000132925
0.000117676
0.000111013
9.69112e-05
9.01267e-05
7.97591e-05
7.41643e-05
6.70623e-05
6.24023e-05
5.7626e-05
5.39296e-05
5.06016e-05
4.78267e-05
4.53481e-05
4.30969e-05
4.09599e-05
3.89154e-05
3.69427e-05
3.50609e-05
3.33519e-05
0.114015
0.15367
0.10154
0.06064
0.0147779
0.00413427
0.0018909
0.00133319
0.000795387
0.000686865
0.000605895
0.000348304
0.000344129
0.000210456
0.000192714
0.000166448
0.000134884
0.00011853
0.000102126
9.59799e-05
8.2814e-05
7.85431e-05
6.86334e-05
6.4292e-05
5.80939e-05
5.41919e-05
5.02656e-05
4.72064e-05
4.45207e-05
4.22641e-05
4.02787e-05
3.84914e-05
3.6841e-05
3.52942e-05
3.38222e-05
3.24226e-05
3.11225e-05
0.248798
0.232179
0.119827
0.0628377
0.038829
0.0201908
0.00896787
0.0040322
0.00225465
0.00142106
0.00096754
0.00061338
0.00038218
0.000408239
0.000233075
0.000134576
0.00010207
9.27257e-05
8.11448e-05
7.91079e-05
6.70555e-05
6.58615e-05
5.63363e-05
5.41335e-05
4.84343e-05
4.61141e-05
4.29478e-05
4.0786e-05
3.87769e-05
3.71135e-05
3.56426e-05
3.43274e-05
3.31155e-05
3.19844e-05
3.09121e-05
2.98941e-05
2.89396e-05
0.242296
0.253443
0.167122
0.0702006
0.0399551
0.038309
0.0401358
0.0240963
0.0171327
0.0126078
0.00853857
0.00655854
0.00419119
0.00313504
0.001335
0.000410471
9.71271e-05
6.3004e-05
5.90187e-05
4.87497e-05
4.58216e-05
4.34559e-05
3.9689e-05
3.85952e-05
3.59018e-05
3.48535e-05
3.32243e-05
3.21851e-05
3.11442e-05
3.02786e-05
2.94923e-05
2.87805e-05
2.8116e-05
2.74831e-05
2.68635e-05
2.62534e-05
2.56623e-05
0.178812
0.184892
0.163441
0.10932
0.0669828
0.0419273
0.0292731
0.0238178
0.0198803
0.0157045
0.0102158
0.00578588
0.00455971
0.00429884
0.00354271
0.00142258
0.000130119
3.32308e-05
3.12878e-05
3.08342e-05
2.91686e-05
2.8503e-05
2.72938e-05
2.64078e-05
2.55005e-05
2.46928e-05
2.39024e-05
2.31745e-05
2.24764e-05
2.1819e-05
2.11915e-05
2.05958e-05
2.00285e-05
1.94911e-05
1.89842e-05
1.85099e-05
1.80618e-05
0.141523
0.1718
0.0485322
0.045269
0.0229575
0.00708004
0.00367611
0.00295881
0.00265249
0.00270347
0.00279034
0.0029008
0.00291369
0.00294892
0.00298219
0.00308735
0.00319583
0.00340624
0.00364043
0.00388967
0.00396313
0.00392984
0.00375912
0.00349094
0.0033372
0.00327432
0.00316999
0.00299747
0.00282479
0.00258682
0.00236118
0.00227001
0.00218836
0.00209169
0.00203671
0.00192893
0.00168783
0.0014976
0.142093
0.0889596
0.0305989
0.0238106
0.0130199
0.00664451
0.00522832
0.00485616
0.00475352
0.00448294
0.0042951
0.00425162
0.00412833
0.00408513
0.0039789
0.00404762
0.00425267
0.0045167
0.00491799
0.00527091
0.00546632
0.00553365
0.00544465
0.00532066
0.00520703
0.00506609
0.00486196
0.00462038
0.0043532
0.00407714
0.00389739
0.0037815
0.00357006
0.00338023
0.00322607
0.00282234
0.00232145
0.00183292
0.176961
0.0719632
0.0455902
0.0126169
0.00763729
0.00264856
0.0018892
0.00175799
0.00145926
0.00138845
0.00121226
0.00115845
0.00103306
0.000947569
0.00086353
0.000834638
0.000910858
0.000945134
0.00108788
0.00119885
0.00131415
0.00139746
0.00143918
0.00147607
0.00149749
0.0014975
0.00149009
0.00146564
0.00143257
0.00139392
0.00134193
0.0012588
0.0011637
0.00110124
0.00105927
0.00101129
0.000944326
0.12189
0.040538
0.0161347
0.00646193
0.0036859
0.00262478
0.00131925
0.000890005
0.000764403
0.000632188
0.000536664
0.00042418
0.000389215
0.000320934
0.000266655
0.000244945
0.00022594
0.000219708
0.000220064
0.0002199
0.000223537
0.000229211
0.000230524
0.000237455
0.000240476
0.000243854
0.000248667
0.000253403
0.000257015
0.000260045
0.000264285
0.000270604
0.00027999
0.000294932
0.000316344
0.000347143
0.000400616
0.0302001
0.024272
0.0119483
0.00942532
0.00528114
0.00371541
0.00168001
0.00114908
0.00089463
0.000627692
0.000585956
0.000427032
0.000366005
0.000338287
0.000241811
0.000221006
0.000178844
0.000160054
0.000151443
0.000136027
0.000125128
0.000118811
0.000109703
0.000105166
9.98276e-05
9.55592e-05
9.19672e-05
8.97025e-05
8.8736e-05
8.92599e-05
9.16968e-05
9.52577e-05
9.93415e-05
0.000103499
0.000107204
0.00011076
0.000113903
0.000115845
0.018121
0.0190406
0.00910656
0.00773604
0.00719817
0.00379809
0.00170219
0.00122232
0.00112551
0.000740979
0.000706403
0.000524562
0.000379973
0.000330842
0.000259878
0.000218729
0.000190461
0.000159179
0.000148422
0.000134906
0.000122268
0.000111425
0.000106403
9.54271e-05
9.13493e-05
8.45971e-05
8.03175e-05
7.5942e-05
7.24869e-05
6.95949e-05
6.72152e-05
6.50857e-05
6.29477e-05
6.0614e-05
5.7967e-05
5.51889e-05
5.26563e-05
5.06693e-05
0.0196106
0.022184
0.0110811
0.0106554
0.00533971
0.00370257
0.00188424
0.00110184
0.000712651
0.000557688
0.000505815
0.000470975
0.000354219
0.00026412
0.000233328
0.000197237
0.000180632
0.000154827
0.000144392
0.000127317
0.000117254
0.000105976
9.77525e-05
8.99126e-05
8.347e-05
7.79896e-05
7.31284e-05
6.89542e-05
6.52635e-05
6.20831e-05
5.92468e-05
5.65969e-05
5.39957e-05
5.13411e-05
4.86027e-05
4.58476e-05
4.32917e-05
0.0365295
0.0358846
0.0171858
0.0122042
0.00732234
0.00508163
0.00212857
0.00134732
0.00101555
0.000782845
0.000527292
0.000466603
0.000382316
0.000266821
0.000208099
0.000180129
0.000153463
0.000142764
0.000129335
0.000122317
0.000107876
0.000100912
8.98205e-05
8.34552e-05
7.61375e-05
7.08889e-05
6.5933e-05
6.19082e-05
5.83665e-05
5.53632e-05
5.26951e-05
5.02358e-05
4.78396e-05
4.54468e-05
4.30385e-05
4.06493e-05
3.84188e-05
0.0936165
0.0835289
0.0405793
0.0215204
0.00984246
0.0039909
0.00172141
0.0010896
0.000687051
0.00054122
0.000402621
0.000306277
0.000284543
0.000226796
0.000191698
0.000176472
0.000154219
0.000129159
0.000116187
0.000107776
9.44249e-05
8.88846e-05
7.84276e-05
7.30022e-05
6.63847e-05
6.17744e-05
5.74199e-05
5.39424e-05
5.09181e-05
4.83779e-05
4.61449e-05
4.41275e-05
4.22291e-05
4.0404e-05
3.86151e-05
3.68655e-05
3.51979e-05
0.19009
0.176035
0.0825246
0.0409871
0.0300964
0.0205012
0.00892075
0.00437761
0.00292334
0.00201197
0.00144336
0.00075579
0.000484065
0.000429676
0.000379866
0.000169164
0.000112025
9.72396e-05
8.8638e-05
8.5708e-05
7.51521e-05
7.24853e-05
6.34003e-05
6.04247e-05
5.44525e-05
5.16287e-05
4.81898e-05
4.57066e-05
4.34535e-05
4.15788e-05
3.99255e-05
3.84415e-05
3.706e-05
3.57504e-05
3.44868e-05
3.3264e-05
3.20966e-05
0.208378
0.217566
0.120568
0.0614114
0.0490313
0.0585281
0.047929
0.03209
0.0243334
0.0188356
0.0150963
0.0124024
0.00690189
0.00437922
0.00259034
0.000911142
0.000153343
7.22028e-05
5.90383e-05
5.26898e-05
5.08393e-05
4.73681e-05
4.41426e-05
4.25267e-05
3.97535e-05
3.84454e-05
3.66386e-05
3.54119e-05
3.42183e-05
3.32268e-05
3.23284e-05
3.15171e-05
3.07566e-05
3.00268e-05
2.93039e-05
2.85849e-05
2.78817e-05
0.173944
0.18083
0.154906
0.104043
0.067897
0.0451601
0.034452
0.0298365
0.0250094
0.0194507
0.0130433
0.00810764
0.00643327
0.00609831
0.00530033
0.00290532
0.000552402
3.70676e-05
3.22939e-05
3.08511e-05
3.03491e-05
2.87978e-05
2.81497e-05
2.69984e-05
2.61967e-05
2.53536e-05
2.45724e-05
2.38371e-05
2.31335e-05
2.24687e-05
2.18321e-05
2.12263e-05
2.0648e-05
2.00999e-05
1.95833e-05
1.9098e-05
1.86375e-05
0.132587
0.114021
0.0642568
0.0423226
0.0289754
0.0119491
0.00346243
0.00300356
0.00299834
0.00304916
0.00313482
0.00326631
0.00332618
0.00338204
0.00341042
0.00348153
0.00358503
0.00377755
0.00401405
0.00422665
0.00426985
0.00422025
0.00401239
0.00373513
0.00357829
0.00349255
0.00333898
0.0031286
0.00290429
0.00264294
0.00244426
0.00235338
0.00225005
0.00215417
0.00208916
0.00194772
0.00173458
0.00153314
0.0776891
0.0454449
0.0210877
0.0168477
0.0132026
0.00614461
0.00458403
0.0048635
0.00473376
0.00468588
0.00462596
0.00470309
0.00469674
0.00469423
0.00461402
0.00463312
0.00485665
0.0050981
0.00549068
0.00586371
0.00606598
0.00609972
0.00597812
0.00580742
0.00565621
0.0054595
0.00518866
0.00488585
0.00453834
0.0042232
0.00407271
0.00393972
0.00369289
0.00354395
0.00334185
0.00282695
0.00228611
0.00177816
0.119791
0.0449391
0.0200075
0.0107774
0.00382284
0.00208504
0.00161208
0.00158699
0.00137977
0.00136115
0.00125823
0.0012606
0.00118631
0.00114397
0.00108457
0.00105723
0.00113448
0.00119169
0.00134169
0.00148726
0.00160956
0.00167968
0.00169866
0.00169655
0.00167557
0.00162672
0.00157415
0.00151671
0.00145984
0.00140849
0.00135352
0.00127756
0.0012122
0.00118212
0.00114014
0.00107286
0.000957307
0.0609944
0.0239374
0.0135788
0.0053775
0.00345449
0.00188617
0.00106238
0.000777046
0.00066001
0.00054558
0.000490972
0.000401692
0.000371286
0.000329073
0.0002881
0.000273035
0.000257378
0.000254894
0.000255584
0.000260775
0.000262305
0.000264194
0.000257773
0.000256025
0.000250169
0.000246114
0.000242667
0.000240672
0.000240358
0.000242103
0.000246891
0.00025334
0.000262258
0.000270464
0.000274415
0.000268948
0.000250898
0.0231203
0.0154851
0.00959487
0.0066751
0.00423275
0.00258408
0.00122419
0.00096266
0.00073755
0.000544779
0.000495126
0.000385827
0.00033443
0.000308524
0.000235176
0.000220439
0.000183319
0.000168734
0.000156549
0.000144781
0.000132624
0.000126395
0.000117773
0.000113576
0.000109065
0.000105941
0.000103076
0.000100622
9.92705e-05
9.87499e-05
9.94179e-05
0.000100924
0.000102183
0.000102835
0.000101017
9.65434e-05
8.9886e-05
8.31053e-05
0.014825
0.011648
0.00779711
0.00598734
0.00574169
0.00206919
0.00111537
0.000909851
0.000863414
0.000598545
0.000554693
0.000460708
0.000347894
0.000311204
0.000250849
0.000215187
0.000192051
0.000164466
0.000154274
0.000140291
0.00012924
0.000118151
0.000113114
0.000103367
9.96286e-05
9.37919e-05
9.04143e-05
8.67626e-05
8.38071e-05
8.11379e-05
7.89082e-05
7.69033e-05
7.48556e-05
7.21798e-05
6.84924e-05
6.3876e-05
5.92714e-05
5.53121e-05
0.0142522
0.0121224
0.0083208
0.00653484
0.0043213
0.00294222
0.00171016
0.000887952
0.000578084
0.000455686
0.000410392
0.000392541
0.000321319
0.000260498
0.000234775
0.000203044
0.000187676
0.00016358
0.000153048
0.000136679
0.000125376
0.000114341
0.000105258
9.73061e-05
9.08066e-05
8.53617e-05
8.06805e-05
7.66734e-05
7.31271e-05
7.00262e-05
6.72431e-05
6.46402e-05
6.20011e-05
5.91219e-05
5.58783e-05
5.23353e-05
4.8789e-05
0.0236826
0.0221983
0.0135145
0.00718625
0.00481734
0.00312735
0.00162755
0.00110238
0.000837164
0.000607511
0.000515339
0.000375823
0.0003011
0.000261998
0.000212067
0.000186027
0.000160029
0.000148495
0.000137627
0.000129039
0.000115427
0.000107243
9.64564e-05
8.92333e-05
8.19881e-05
7.64295e-05
7.14758e-05
6.73512e-05
6.37447e-05
6.06356e-05
5.7863e-05
5.52844e-05
5.27272e-05
5.00886e-05
4.73351e-05
4.45228e-05
4.18406e-05
0.0630906
0.0579835
0.0307933
0.0156461
0.00926012
0.00399442
0.00159695
0.000978027
0.000692923
0.000545537
0.000399119
0.000316075
0.00024539
0.000214512
0.000196582
0.00017638
0.000159167
0.000135337
0.00012455
0.000114681
0.000101886
9.50755e-05
8.48786e-05
7.84562e-05
7.16822e-05
6.66239e-05
6.2064e-05
5.83511e-05
5.51398e-05
5.24299e-05
5.00527e-05
4.79017e-05
4.5855e-05
4.38459e-05
4.18291e-05
3.98102e-05
3.78504e-05
0.135027
0.142991
0.075482
0.040693
0.0318367
0.0224701
0.00899469
0.00471223
0.00341555
0.00252523
0.00196292
0.00118966
0.00069275
0.000523018
0.000562911
0.000242622
0.000126884
0.000102133
9.30492e-05
9.01786e-05
8.06656e-05
7.6531e-05
6.798e-05
6.41452e-05
5.83791e-05
5.50004e-05
5.14665e-05
4.87707e-05
4.63754e-05
4.43703e-05
4.26072e-05
4.10223e-05
3.95374e-05
3.81131e-05
3.67191e-05
3.53513e-05
3.40268e-05
0.153469
0.20295
0.137856
0.0800962
0.071312
0.0706676
0.0503306
0.0361584
0.0281949
0.0225204
0.0187447
0.0154573
0.00967236
0.00604436
0.00381496
0.00179385
0.000309043
7.61036e-05
5.79615e-05
5.55639e-05
5.19867e-05
4.93603e-05
4.65851e-05
4.43222e-05
4.18491e-05
4.02291e-05
3.84585e-05
3.7129e-05
3.5887e-05
3.48424e-05
3.3898e-05
3.30419e-05
3.22328e-05
3.14469e-05
3.0658e-05
2.98666e-05
2.90852e-05
0.162723
0.174771
0.150529
0.101579
0.0679535
0.0483464
0.0389573
0.0342877
0.0283397
0.0216058
0.0148492
0.0101356
0.00812302
0.00762547
0.00683683
0.00451672
0.00131025
7.38369e-05
3.2903e-05
3.13508e-05
3.02087e-05
2.93117e-05
2.81533e-05
2.73259e-05
2.63972e-05
2.56125e-05
2.48225e-05
2.40963e-05
2.3395e-05
2.27316e-05
2.20943e-05
2.1486e-05
2.09034e-05
2.03502e-05
1.98285e-05
1.93348e-05
1.88667e-05
0.104485
0.0850791
0.0566942
0.0480854
0.0359365
0.0146093
0.00375831
0.00308651
0.00315308
0.00324523
0.00333497
0.0034872
0.003591
0.00367495
0.00372524
0.00379244
0.00389454
0.00407898
0.00431073
0.0044887
0.00450954
0.00444385
0.00420037
0.00391645
0.00375564
0.00364394
0.00345303
0.00320522
0.0029393
0.0026672
0.0024793
0.0023789
0.00226026
0.00215544
0.00208458
0.00192805
0.00173369
0.00151775
0.0461339
0.0237387
0.0147234
0.012402
0.0137475
0.00652517
0.00427388
0.00464832
0.0045163
0.00466799
0.00469887
0.00489853
0.00500119
0.00506697
0.00509108
0.00512455
0.00535919
0.00559738
0.00597677
0.00634669
0.00655273
0.0065664
0.00641445
0.00620637
0.00601759
0.00576564
0.00543439
0.00505741
0.00461783
0.00427644
0.00413064
0.00394487
0.00371186
0.00359565
0.00332823
0.00272072
0.00212386
0.00170022
0.0639498
0.0297285
0.0123672
0.00485762
0.00278391
0.00155737
0.0013631
0.00136433
0.00126085
0.00130138
0.00125737
0.00130932
0.0012966
0.00129018
0.00127471
0.00125706
0.00134466
0.00142216
0.00158759
0.00175492
0.0018851
0.00194873
0.00193938
0.00189283
0.0018148
0.00170805
0.00160329
0.00150694
0.00142724
0.0013765
0.0013365
0.00129481
0.0012851
0.0012934
0.00125132
0.00117523
0.00102873
0.0342478
0.0150666
0.00819798
0.00447925
0.00227205
0.00172
0.00081255
0.000666006
0.000556674
0.000481085
0.000442393
0.000390386
0.000366058
0.000335204
0.000309856
0.000298284
0.000287571
0.000290985
0.000297698
0.000303545
0.00030439
0.000300444
0.000282392
0.000269281
0.000252433
0.000238723
0.000232441
0.000230223
0.000230527
0.00023714
0.000248885
0.000265761
0.000285691
0.000297251
0.000298624
0.000279779
0.000235241
0.018489
0.0112209
0.00831527
0.00467643
0.00363238
0.00172858
0.00100259
0.000816755
0.0006242
0.000478384
0.000430348
0.000355025
0.000309945
0.000285402
0.000232242
0.00021857
0.000186921
0.000172988
0.000161231
0.000149003
0.00013829
0.000130365
0.000122008
0.000117492
0.00011322
0.000110639
0.000108533
0.000106958
0.000106161
0.000106077
0.000107081
0.000109071
0.000111299
0.000112546
0.000111286
0.000105778
9.58402e-05
8.47687e-05
0.0136879
0.0101124
0.00663116
0.0046489
0.00399767
0.00147746
0.000886148
0.000726799
0.000673261
0.000512678
0.000465312
0.000406877
0.000322004
0.0002926
0.000243793
0.000211793
0.000192276
0.000167301
0.000157479
0.000143571
0.000133194
0.000122335
0.000116751
0.000107973
0.0001042
9.91755e-05
9.63186e-05
9.34249e-05
9.10025e-05
8.85923e-05
8.63542e-05
8.42226e-05
8.19717e-05
7.91955e-05
7.52007e-05
7.00604e-05
6.43503e-05
5.90157e-05
0.0125392
0.010243
0.00765696
0.00523707
0.00369919
0.00276842
0.00155488
0.000785506
0.000512618
0.000408877
0.000366856
0.000343788
0.000297251
0.000251039
0.000229971
0.000203666
0.000190104
0.000167795
0.000157595
0.000142109
0.000130663
0.000119601
0.000110031
0.000101987
9.54236e-05
9.00806e-05
8.56348e-05
8.18773e-05
7.85462e-05
7.55625e-05
7.28251e-05
7.02258e-05
6.75342e-05
6.45044e-05
6.09515e-05
5.68977e-05
5.26055e-05
0.0172733
0.0172002
0.0124824
0.00689369
0.0041185
0.0023722
0.00138223
0.000950575
0.000696997
0.000502897
0.000405767
0.000307259
0.000257746
0.000235055
0.000207454
0.000185221
0.000162033
0.000150827
0.000141852
0.000132554
0.000120223
0.000110996
0.000100524
9.2744e-05
8.55434e-05
7.98486e-05
7.49659e-05
7.08733e-05
6.72992e-05
6.41681e-05
6.1346e-05
5.86958e-05
5.60341e-05
5.32231e-05
5.02064e-05
4.70698e-05
4.40142e-05
0.0404593
0.0411086
0.0277861
0.0167421
0.00957744
0.00362581
0.00140163
0.000874546
0.000658131
0.000542825
0.000458814
0.00038793
0.000298896
0.000235159
0.000208833
0.000173665
0.000154731
0.000137503
0.000127824
0.00011806
0.000106859
9.87409e-05
8.88065e-05
8.17052e-05
7.48284e-05
6.94957e-05
6.48465e-05
6.1027e-05
5.77348e-05
5.49396e-05
5.24906e-05
5.02743e-05
4.81522e-05
4.60337e-05
4.38652e-05
4.16492e-05
3.94709e-05
0.0864009
0.102519
0.0725104
0.0455738
0.0363665
0.0233345
0.0088366
0.00481039
0.00368136
0.00289154
0.00238226
0.00175527
0.00114346