/*--------------------------------*- C++ -*----------------------------------*\
| =========                 |                                                 |
| \\      /  F ield         | OpenFOAM: The Open Source CFD Toolbox           |
|  \\    /   O peration     | Version:  2.3.1                                 |
|   \\  /    A nd           | Web:      www.OpenFOAM.org                      |
|    \\/     M anipulation  |                                                 |
\*---------------------------------------------------------------------------*/
FoamFile
{
    version     2.0;
    format      ascii;
    class       volScalarField;
    location    "5";
    object      k_0;
}
// * * * * * * * * * * * * * * * * * * * * * * * * * * * * * * * * * * * * * //

dimensions      [0 2 -2 0 0 0 0];

internalField   nonuniform List<scalar> 
37632
(
1.09528
0.178551
0.0483562
0.0208822
0.0124561
0.0111079
0.00976887
0.00642248
0.00254559
0.00125096
0.00110747
0.00105332
0.00100582
0.00101027
0.00102934
0.00111369
0.00115103
0.001248
0.00129108
0.001401
0.00150041
0.00153442
0.00153399
0.00149343
0.00139333
0.00134527
0.0013373
0.00132077
0.00129638
0.00127253
0.00120595
0.0010978
0.00104996
0.00100418
0.000959172
0.000943563
0.000912985
0.000836544
0.378655
0.168563
0.0750438
0.0376688
0.00561974
0.00411193
0.00266062
0.00194781
0.00152223
0.00139917
0.00117293
0.000969865
0.000883583
0.000852401
0.000834058
0.000980672
0.00105215
0.00117679
0.00115703
0.0013103
0.00134771
0.00134156
0.00139149
0.00138898
0.00140034
0.00140215
0.00138514
0.0013459
0.00128256
0.00118163
0.00107197
0.000966442
0.000877811
0.000851949
0.000876349
0.000942411
0.000978758
0.000974615
0.260604
0.213564
0.0718267
0.0276556
0.00526169
0.00228078
0.00176668
0.00176824
0.00141025
0.00133812
0.00108988
0.000863817
0.000735914
0.000600145
0.00032216
0.000194892
0.000177329
0.000185175
0.000185153
0.000206525
0.000246128
0.00024911
0.000297679
0.000330817
0.000353673
0.000381524
0.000400213
0.00041434
0.000424598
0.000434427
0.000444925
0.000461573
0.000491315
0.000538411
0.000608338
0.000695196
0.000777612
0.211824
0.225815
0.106118
0.0335364
0.00479242
0.00144579
0.00127801
0.00124657
0.000887994
0.000712587
0.00060147
0.000431754
0.000356506
0.000262872
0.000207174
0.000142047
0.000121643
9.30967e-05
8.80587e-05
7.70397e-05
7.69195e-05
7.48598e-05
7.9376e-05
8.88626e-05
9.48553e-05
0.000109947
0.000124178
0.000142479
0.000161553
0.000182609
0.000206945
0.000240297
0.000282958
0.000332794
0.000392836
0.000462903
0.000527244
0.176441
0.215687
0.147246
0.0479363
0.011431
0.00183286
0.00109945
0.000995786
0.000776255
0.000790722
0.000523249
0.000489766
0.000478511
0.000266906
0.000256622
0.000146917
0.000138624
9.02248e-05
8.0616e-05
6.6283e-05
5.98985e-05
5.30012e-05
5.0036e-05
4.75874e-05
4.74696e-05
4.94202e-05
5.30599e-05
5.94436e-05
6.7648e-05
7.85131e-05
9.19195e-05
0.000107669
0.000124264
0.000143123
0.000165262
0.000190217
0.000212167
0.000228696
0.168568
0.224563
0.173055
0.082929
0.0348812
0.009401
0.00168322
0.00113712
0.00090086
0.000907884
0.000572367
0.000403383
0.000454773
0.000248714
0.000247454
0.00013962
0.000126369
9.66396e-05
8.62932e-05
6.99955e-05
6.47354e-05
5.16355e-05
4.75464e-05
4.16184e-05
3.90613e-05
3.63199e-05
3.48345e-05
3.41631e-05
3.43087e-05
3.57369e-05
3.83119e-05
4.17005e-05
4.55103e-05
4.99916e-05
5.4881e-05
5.84622e-05
5.97595e-05
5.93162e-05
0.161393
0.225001
0.181596
0.0899347
0.0232802
0.00333696
0.00250467
0.0018064
0.00138864
0.000930751
0.000550355
0.000292031
0.000194959
0.000157353
0.000110644
9.94502e-05
8.21101e-05
7.64122e-05
6.59644e-05
6.17331e-05
5.45157e-05
5.12046e-05
4.49563e-05
4.2277e-05
3.73268e-05
3.49625e-05
3.19978e-05
2.9823e-05
2.78855e-05
2.63539e-05
2.51042e-05
2.40894e-05
2.32588e-05
2.2603e-05
2.21247e-05
2.16518e-05
2.08539e-05
0.158425
0.222916
0.185393
0.108658
0.0458318
0.0135242
0.00792771
0.00550542
0.00387842
0.00267905
0.0017939
0.000603719
0.000142583
0.000113143
0.000105406
8.51924e-05
7.93136e-05
6.72351e-05
6.26898e-05
5.4052e-05
5.14971e-05
4.4663e-05
4.26963e-05
3.80531e-05
3.59157e-05
3.32848e-05
3.09364e-05
2.89448e-05
2.70093e-05
2.53246e-05
2.37333e-05
2.23026e-05
2.10011e-05
1.98245e-05
1.87318e-05
1.77258e-05
1.68006e-05
0.140346
0.210524
0.18693
0.117026
0.0385226
0.00706253
0.00468186
0.00347647
0.0021057
0.00148026
0.000714448
0.000258423
0.000157564
0.000113583
0.000106955
7.31061e-05
7.00813e-05
5.64908e-05
5.29701e-05
4.60188e-05
4.28383e-05
4.01862e-05
3.64755e-05
3.44575e-05
3.19521e-05
3.00308e-05
2.81962e-05
2.65419e-05
2.502e-05
2.3617e-05
2.23009e-05
2.10653e-05
1.99025e-05
1.88144e-05
1.77968e-05
1.68578e-05
1.60045e-05
0.143272
0.210643
0.187033
0.124345
0.0524802
0.0237573
0.0100559
0.00518654
0.0030244
0.00199226
0.00134817
0.000749755
0.000233198
0.000205888
8.24562e-05
6.73227e-05
6.80064e-05
5.32555e-05
5.14413e-05
4.21414e-05
3.94628e-05
3.75995e-05
3.38777e-05
3.2571e-05
2.99955e-05
2.84965e-05
2.68092e-05
2.53573e-05
2.39822e-05
2.27103e-05
2.15073e-05
2.03741e-05
1.93034e-05
1.82969e-05
1.73538e-05
1.64785e-05
1.56762e-05
0.135845
0.19449
0.176706
0.116154
0.0442948
0.0155629
0.00766948
0.00429021
0.00268977
0.00181957
0.00128309
0.000628996
0.000513228
0.000685536
0.000411649
5.90035e-05
3.76251e-05
3.57487e-05
3.64062e-05
3.31801e-05
3.2628e-05
3.06388e-05
2.89842e-05
2.79558e-05
2.63512e-05
2.52518e-05
2.40137e-05
2.29157e-05
2.18442e-05
2.08288e-05
1.98507e-05
1.89134e-05
1.80118e-05
1.71498e-05
1.63296e-05
1.55595e-05
1.48487e-05
0.122275
0.14168
0.137705
0.109579
0.0608739
0.0327784
0.0182463
0.0118323
0.00881145
0.00696905
0.00440419
0.00233369
0.0016003
0.00170089
0.0014212
0.000181521
3.01575e-05
2.66843e-05
2.805e-05
2.51357e-05
2.52518e-05
2.30363e-05
2.24938e-05
2.09818e-05
2.02505e-05
1.92336e-05
1.83953e-05
1.7565e-05
1.67859e-05
1.60468e-05
1.53473e-05
1.46949e-05
1.4096e-05
1.35516e-05
1.30145e-05
1.25093e-05
1.20321e-05
0.294528
0.224366
0.0394816
0.0221589
0.0112255
0.00653178
0.00738561
0.00523147
0.00223278
0.00162088
0.00161832
0.00162078
0.00155393
0.0015818
0.00166894
0.00190533
0.00200425
0.00226359
0.00238803
0.00272527
0.00292247
0.00291743
0.00280759
0.00255924
0.00240214
0.00238971
0.00238139
0.00232296
0.00227103
0.00216216
0.00189503
0.00174224
0.00169614
0.0016014
0.00155192
0.00149819
0.00134193
0.00114967
0.546361
0.319524
0.0615809
0.0505708
0.0148718
0.00976654
0.00963972
0.00407157
0.00311366
0.00300608
0.00253187
0.00210647
0.00193683
0.00187483
0.00193994
0.00232307
0.00249298
0.00299914
0.00324798
0.00346723
0.00373514
0.00384982
0.00380548
0.00380371
0.00374472
0.00369777
0.00361731
0.00347154
0.00331246
0.00313826
0.00289582
0.00268634
0.00252982
0.00240362
0.00235928
0.00227409
0.00201745
0.00174309
0.393592
0.282572
0.0718897
0.0205694
0.00674468
0.00395464
0.00284334
0.00225977
0.00182624
0.00175308
0.00127925
0.00120098
0.000963669
0.000907556
0.000718305
0.000438059
0.000443564
0.000464267
0.000537315
0.00053287
0.000677099
0.000740498
0.000778435
0.000883241
0.00093318
0.000988274
0.00102825
0.00105277
0.00106427
0.00106475
0.00104887
0.0010225
0.000995364
0.000994312
0.00102669
0.00108286
0.00114828
0.433491
0.368659
0.0808446
0.0476186
0.00541472
0.00331983
0.00213747
0.00172499
0.00144106
0.00143172
0.00105129
0.000701025
0.000692499
0.000391548
0.000364402
0.000226755
0.000200312
0.000161096
0.000152571
0.000132596
0.000129867
0.000130534
0.000132306
0.000150387
0.00016493
0.000186866
0.00021254
0.000241761
0.000273917
0.000310761
0.000354236
0.00040325
0.00046383
0.000534523
0.000617052
0.000709364
0.000793056
0.310757
0.376631
0.179807
0.05528
0.00974134
0.00213064
0.0020918
0.00163153
0.00109595
0.00110518
0.00109511
0.000753164
0.000817512
0.000403216
0.000437301
0.000234661
0.000233735
0.000145929
0.000139173
0.00010421
9.49815e-05
7.53525e-05
7.07415e-05
5.98309e-05
5.69294e-05
5.53422e-05
5.69554e-05
6.25474e-05
7.23002e-05
8.69247e-05
0.00010767
0.000133383
0.000161795
0.000193382
0.000228671
0.000262834
0.000285639
0.000296435
0.207695
0.457037
0.209736
0.0895267
0.0274039
0.00737005
0.00252143
0.00328767
0.00167883
0.00210879
0.00134009
0.00075755
0.000777652
0.000423875
0.000447042
0.00025213
0.00025991
0.000157977
0.000152278
0.000120262
0.000114138
8.86395e-05
7.63249e-05
6.18997e-05
5.4598e-05
4.93458e-05
4.36625e-05
4.06354e-05
3.84653e-05
3.76317e-05
3.78231e-05
3.95231e-05
4.20769e-05
4.53751e-05
4.9161e-05
5.2332e-05
5.44937e-05
5.52292e-05
0.187732
0.433828
0.244552
0.0950227
0.0128407
0.00635949
0.00408905
0.0038371
0.00222155
0.00219371
0.0010615
0.000635032
0.000384428
0.000320933
0.000207706
0.000166846
0.00014886
0.000121152
0.000113866
9.66708e-05
9.3074e-05
7.54235e-05
7.25403e-05
6.14522e-05
5.7214e-05
5.16027e-05
4.72246e-05
4.30303e-05
3.96347e-05
3.67078e-05
3.44688e-05
3.24624e-05
3.09322e-05
2.96519e-05
2.86897e-05
2.79538e-05
2.73489e-05
0.213924
0.388718
0.234847
0.126922
0.0556793
0.0147115
0.010835
0.00771966
0.00547112
0.00300977
0.00288461
0.000655123
0.000403245
0.000243928
0.000191651
0.000173075
0.000132709
0.000123311
0.000100905
9.34038e-05
8.25113e-05
7.04704e-05
6.38426e-05
5.83207e-05
5.22021e-05
4.88552e-05
4.46311e-05
4.17875e-05
3.89678e-05
3.66963e-05
3.45945e-05
3.27386e-05
3.10392e-05
2.94989e-05
2.80887e-05
2.68184e-05
2.57084e-05
0.201695
0.381114
0.28875
0.134286
0.0259562
0.00518878
0.00337333
0.00281614
0.00155023
0.00135735
0.000936777
0.00047686
0.000417045
0.000207148
0.000208718
0.000147828
0.000112117
9.80614e-05
8.03867e-05
7.26699e-05
6.40297e-05
5.96615e-05
5.25221e-05
4.95777e-05
4.45749e-05
4.1958e-05
3.89903e-05
3.66956e-05
3.46787e-05
3.29337e-05
3.14088e-05
3.00259e-05
2.87804e-05
2.76389e-05
2.65862e-05
2.56155e-05
2.47388e-05
0.292308
0.382926
0.273395
0.136856
0.0594263
0.030461
0.0119827
0.00599955
0.00289815
0.0018008
0.00108688
0.00106501
0.000331331
0.00034957
0.000191618
0.000123939
0.000116994
8.45699e-05
8.06594e-05
6.30876e-05
5.58282e-05
5.23138e-05
4.49781e-05
4.2926e-05
3.85594e-05
3.67618e-05
3.43896e-05
3.2717e-05
3.11816e-05
2.98886e-05
2.87383e-05
2.77081e-05
2.67657e-05
2.58972e-05
2.50885e-05
2.43363e-05
2.36434e-05
0.286749
0.34133
0.257504
0.11385
0.0407647
0.021477
0.0226788
0.01169
0.00726454
0.0050666
0.0028442
0.00188053
0.00222128
0.00173542
0.000683273
0.000181377
5.9015e-05
5.35056e-05
4.24557e-05
4.24986e-05
3.47683e-05
3.56441e-05
3.13523e-05
3.11807e-05
2.90443e-05
2.84502e-05
2.72782e-05
2.65549e-05
2.58017e-05
2.51475e-05
2.45441e-05
2.39832e-05
2.34558e-05
2.29521e-05
2.2464e-05
2.19898e-05
2.15355e-05
0.182087
0.183369
0.168517
0.114829
0.0656716
0.0374026
0.0227244
0.0166427
0.0134406
0.0106371
0.00665937
0.00350919
0.00274119
0.00256156
0.00206931
0.00056996
3.82884e-05
3.1259e-05
3.03943e-05
2.91995e-05
2.75646e-05
2.70206e-05
2.55167e-05
2.49109e-05
2.38783e-05
2.31362e-05
2.23504e-05
2.16368e-05
2.09529e-05
2.03075e-05
1.9693e-05
1.91105e-05
1.85574e-05
1.80334e-05
1.75379e-05
1.70747e-05
1.66406e-05
0.180527
0.231555
0.0548952
0.0347292
0.00857747
0.00566307
0.00491415
0.00340492
0.00226775
0.00222631
0.00230667
0.00237438
0.00234104
0.00236562
0.00241656
0.00259512
0.00270407
0.00294155
0.00315147
0.00344576
0.00356205
0.00354458
0.00340665
0.00314418
0.00299209
0.00295139
0.0028978
0.00277127
0.00265604
0.00246081
0.00220661
0.00209089
0.00203517
0.00193498
0.00188503
0.00180151
0.00158596
0.00137421
0.35678
0.30876
0.0574927
0.0514629
0.0179857
0.00812771
0.00767483
0.00467557
0.00440352
0.00396022
0.0036057
0.00342599
0.00322371
0.00318012
0.00308243
0.00334502
0.00349432
0.00385486
0.00421901
0.0045402
0.00473881
0.0048449
0.00478642
0.00471404
0.00463384
0.00454156
0.00440286
0.00421116
0.0040027
0.00377292
0.00355812
0.00340987
0.00323687
0.00304979
0.00292346
0.00266232
0.00224646
0.00186544
0.409923
0.125506
0.0821932
0.019293
0.0102109
0.00366573
0.00235633
0.00187314
0.0015742
0.00145132
0.00113987
0.00102657
0.000828999
0.000733857
0.000637611
0.000608201
0.000669454
0.000701123
0.000812346
0.000900324
0.00100533
0.00109167
0.0011526
0.00121276
0.00126656
0.00129861
0.0013238
0.0013315
0.00132498
0.00130637
0.00126966
0.00120732
0.00113145
0.00108548
0.00107218
0.0010645
0.00106456
0.357384
0.104772
0.0426082
0.0156038
0.0074389
0.00268146
0.00196989
0.00109923
0.000940102
0.000810444
0.000648297
0.000479268
0.000448232
0.000336067
0.000274617
0.000227532
0.000209424
0.000187367
0.0001832
0.000177325
0.000179073
0.000187377
0.000192568
0.000203567
0.000214861
0.000227213
0.000242006
0.000261882
0.000283942
0.00030652
0.000327306
0.000350041
0.000378713
0.00042354
0.000494964
0.000586904
0.000680812
0.106147
0.134563
0.0296305
0.0288787
0.00586439
0.00329445
0.00218617
0.00137689
0.00104907
0.000755858
0.000724907
0.000505818
0.000428789
0.000375879
0.000265458
0.000229587
0.000178895
0.00015225
0.000144935
0.000122144
0.000110781
0.000104675
9.46333e-05
8.72004e-05
8.25293e-05
7.82462e-05
7.65394e-05
7.68083e-05
8.03462e-05
8.69604e-05
9.64827e-05
0.000109216
0.000124719
0.000143913
0.000167182
0.000191659
0.000210728
0.000221443
0.0443173
0.115414
0.0322123
0.0282841
0.0118063
0.00607261
0.00234678
0.00185614
0.00148132
0.00101326
0.000966604
0.00060592
0.000452093
0.0003424
0.000287696
0.000220412
0.000193961
0.0001537
0.000143556
0.000124235
0.000113325
0.000100257
9.46839e-05
8.21996e-05
7.68219e-05
7.02548e-05
6.48839e-05
6.04357e-05
5.67167e-05
5.41325e-05
5.23083e-05
5.11884e-05
5.06338e-05
5.04689e-05
5.07005e-05
5.09124e-05
5.0739e-05
5.07581e-05
0.041098
0.106663
0.0426321
0.0346424
0.00838572
0.00638488
0.00237066
0.00168456
0.00106299
0.000800115
0.000608927
0.000574231
0.000398863
0.000263693
0.000224642
0.000184217
0.000169153
0.000140964
0.000131793
0.00011383
0.000105518
9.32133e-05
8.67203e-05
7.88778e-05
7.2783e-05
6.73883e-05
6.25338e-05
5.82602e-05
5.45186e-05
5.12633e-05
4.84259e-05
4.58722e-05
4.36635e-05
4.15844e-05
3.96819e-05
3.79361e-05
3.64329e-05
0.0716016
0.108262
0.048081
0.0409917
0.0167386
0.00939778
0.00379238
0.00228084
0.00153483
0.000982672
0.000994105
0.000532889
0.000495368
0.000257784
0.00019837
0.000167377
0.000142504
0.000132903
0.000117643
0.000110963
9.6864e-05
9.00764e-05
7.97204e-05
7.41282e-05
6.7035e-05
6.23786e-05
5.76078e-05
5.39142e-05
5.05889e-05
4.78156e-05
4.53383e-05
4.30876e-05
4.09508e-05
3.89064e-05
3.69341e-05
3.5053e-05
3.33451e-05
0.116312
0.15687
0.102681
0.059074
0.014684
0.00413752
0.0018877
0.0013295
0.00079389
0.000685963
0.000604619
0.000347645
0.000343864
0.000210346
0.000192469
0.000166239
0.000134692
0.000118434
0.000102055
9.59319e-05
8.27629e-05
7.84919e-05
6.85942e-05
6.42554e-05
5.80672e-05
5.41686e-05
5.02478e-05
4.71916e-05
4.45087e-05
4.22539e-05
4.027e-05
3.84836e-05
3.68337e-05
3.52874e-05
3.38158e-05
3.24168e-05
3.11173e-05
0.254116
0.234387
0.120054
0.0624701
0.0387431
0.0202045
0.00898495
0.0040336
0.00225128
0.00141733
0.00096485
0.00061231
0.000380709
0.000407806
0.000232173
0.000133836
0.000101883
9.27114e-05
8.11121e-05
7.90868e-05
6.70176e-05
6.58222e-05
5.63078e-05
5.41049e-05
4.8415e-05
4.60957e-05
4.29351e-05
4.07749e-05
3.87681e-05
3.71061e-05
3.56364e-05
3.4322e-05
3.31108e-05
3.19801e-05
3.09083e-05
2.98907e-05
2.89366e-05
0.248408
0.255933
0.165939
0.0685949
0.0395925
0.038285
0.0402258
0.0241362
0.0171045
0.0125788
0.00851913
0.00654091
0.00416991
0.00312146
0.00132559
0.000402447
9.63919e-05
6.28698e-05
5.89566e-05
4.87406e-05
4.57947e-05
4.34439e-05
3.9676e-05
3.85838e-05
3.58937e-05
3.48461e-05
3.32199e-05
3.21813e-05
3.11417e-05
3.02768e-05
2.94911e-05
2.87797e-05
2.81155e-05
2.74827e-05
2.68631e-05
2.62531e-05
2.56622e-05
0.183156
0.188008
0.164576
0.108244
0.0662702
0.0412916
0.0292513
0.0241295
0.0200704
0.0157051
0.0101167
0.00573463
0.00456781
0.00430833
0.00353939
0.00139539
0.000124592
3.32076e-05
3.12837e-05
3.083e-05
2.9164e-05
2.84983e-05
2.72899e-05
2.64044e-05
2.54974e-05
2.46902e-05
2.39002e-05
2.31726e-05
2.24748e-05
2.18176e-05
2.11904e-05
2.05949e-05
2.00279e-05
1.94908e-05
1.89842e-05
1.85102e-05
1.80623e-05
0.143351
0.17638
0.05004
0.0462731
0.0231184
0.00701123
0.0036895
0.00296669
0.0026691
0.00271792
0.00280392
0.0029146
0.0029279
0.00296333
0.00299661
0.00310179
0.00321057
0.00342185
0.0036574
0.00390609
0.00397766
0.00394283
0.00376765
0.00349811
0.00334487
0.00328184
0.00317602
0.00300207
0.00282784
0.00258825
0.00236312
0.00227279
0.00219047
0.00209359
0.00203826
0.0019293
0.00168716
0.00149745
0.143967
0.0957408
0.0308128
0.0240634
0.0130411
0.00665898
0.00524442
0.00486727
0.00476552
0.00449785
0.00431083
0.00426883
0.00414578
0.00410275
0.0039964
0.00406647
0.00427262
0.00453788
0.00494054
0.00529399
0.00548774
0.00555209
0.00546063
0.0053352
0.00522053
0.005078
0.0048718
0.00462824
0.00435903
0.00408205
0.00390273
0.00378606
0.00357317
0.00338375
0.00322819
0.00282121
0.00232015
0.00183059
0.177159
0.0727724
0.0454213
0.0124874
0.00767192
0.00264994
0.00189207
0.00176151
0.00146158
0.00139119
0.00121474
0.00116119
0.00103585
0.000950213
0.000866356
0.000837529
0.00091429
0.000948996
0.00109235
0.00120375
0.00131899
0.00140199
0.00144345
0.00148006
0.00150131
0.00150092
0.00149301
0.001468
0.00143453
0.00139558
0.00134316
0.00125961
0.00116453
0.00110224
0.00106016
0.00101196
0.000944427
0.114083
0.0415064
0.0162598
0.0064833
0.00368479
0.00261978
0.00132054
0.000891526
0.00076567
0.000633189
0.000537707
0.000424598
0.000389505
0.000321359
0.000266916
0.000245184
0.000226188
0.000219962
0.000220372
0.000220246
0.000223876
0.000229568
0.00023088
0.000237805
0.000240833
0.000244203
0.000249
0.000253711
0.0002573
0.000260291
0.000264498
0.000270835
0.000280276
0.000295292
0.000316807
0.000347787
0.000401627
0.0295206
0.0241796
0.0119623
0.00947886
0.0052908
0.00370015
0.0016823
0.00114949
0.000896753
0.000628556
0.000586633
0.000427596
0.000366252
0.000338612
0.000241875
0.000221027
0.000178888
0.000160049
0.000151419
0.000136028
0.000125103
0.000118793
0.000109686
0.000105152
9.98219e-05
9.55588e-05
9.19714e-05
8.97153e-05
8.87533e-05
8.92897e-05
9.17366e-05
9.53068e-05
9.93978e-05
0.000103559
0.000107278
0.000110847
0.000113981
0.000115897
0.0181121
0.0189447
0.00909156
0.0077364
0.00714789
0.00380096
0.00169892
0.00122268
0.00112741
0.000741244
0.000705353
0.000525318
0.000380228
0.000330824
0.000259789
0.000218695
0.000190434
0.000159151
0.00014835
0.000134886
0.000122244
0.000111394
0.000106377
9.54079e-05
9.13274e-05
8.45878e-05
8.03067e-05
7.59367e-05
7.24833e-05
6.95933e-05
6.72143e-05
6.50837e-05
6.29432e-05
6.06074e-05
5.79605e-05
5.51847e-05
5.26555e-05
5.06705e-05
0.019731
0.0222778
0.0110754
0.0105616
0.00533075
0.00370525
0.00188737
0.00110365
0.000713371
0.000557585
0.000505842
0.000469388
0.000354199
0.000263922
0.000233167
0.000197168
0.000180616
0.000154766
0.000144338
0.000127273
0.000117204
0.000105926
9.77137e-05
8.98801e-05
8.3445e-05
7.79707e-05
7.31146e-05
6.89438e-05
6.52555e-05
6.20764e-05
5.92405e-05
5.65898e-05
5.3987e-05
5.13309e-05
4.85918e-05
4.58371e-05
4.32823e-05
0.0368041
0.0360999
0.0172628
0.0122571
0.00728608
0.00506499
0.00212815
0.0013474
0.00101591
0.000783039
0.000527399
0.000464289
0.000381408
0.000266851
0.00020775
0.000179737
0.000153374
0.000142743
0.000129291
0.000122266
0.00010782
0.000100855
8.97747e-05
8.34136e-05
7.61054e-05
7.08622e-05
6.59121e-05
6.18911e-05
5.83524e-05
5.5351e-05
5.26839e-05
5.02249e-05
4.78283e-05
4.5435e-05
4.30264e-05
4.06376e-05
3.84081e-05
0.0939879
0.0838951
0.0406154
0.0213099
0.00982139
0.00400241
0.00171969
0.00108853
0.000686335
0.000540313
0.000402203
0.000305811
0.00028389
0.000226828
0.000191593
0.000176137
0.000153946
0.000129064
0.000116086
0.000107719
9.43635e-05
8.88244e-05
7.83814e-05
7.29597e-05
6.63524e-05
6.17474e-05
5.73988e-05
5.39252e-05
5.09041e-05
4.83661e-05
4.61345e-05
4.41179e-05
4.222e-05
4.0395e-05
3.86062e-05
3.68569e-05
3.51899e-05
0.193625
0.17657
0.0822682
0.0410728
0.0302528
0.0206759
0.00895558
0.00437589
0.0029176
0.00200677
0.00144014
0.000753275
0.000482619
0.00042947
0.000377976
0.000167887
0.000111661
9.72019e-05
8.86045e-05
8.56741e-05
7.51086e-05
7.24411e-05
6.3365e-05
6.03914e-05
5.44293e-05
5.16073e-05
4.81743e-05
4.56935e-05
4.34431e-05
4.157e-05
3.9918e-05
3.84349e-05
3.7054e-05
3.57447e-05
3.44815e-05
3.3259e-05
3.2092e-05
0.213154
0.219411
0.119908
0.0611986
0.0488845
0.0584583
0.0479908
0.0321025
0.0242941
0.0187892
0.0150629
0.01235
0.00686763
0.00436073
0.0025732
0.000895503
0.000149993
7.19581e-05
5.90305e-05
5.26581e-05
5.082e-05
4.73515e-05
4.41274e-05
4.25135e-05
3.97434e-05
3.84365e-05
3.66326e-05
3.54069e-05
3.42147e-05
3.3224e-05
3.23263e-05
3.15154e-05
3.07552e-05
3.00255e-05
2.93025e-05
2.85835e-05
2.78805e-05
0.177847
0.184259
0.156843
0.103933
0.0672313
0.0446913
0.0346345
0.0302124
0.02517
0.0193969
0.0129014
0.00804233
0.00644696
0.00611735
0.00530409
0.00286778
0.000534285
3.68571e-05
3.22926e-05
3.08464e-05
3.0344e-05
2.87929e-05
2.81453e-05
2.69949e-05
2.61933e-05
2.53507e-05
2.45698e-05
2.38349e-05
2.31316e-05
2.2467e-05
2.18306e-05
2.12251e-05
2.06471e-05
2.00993e-05
1.95829e-05
1.90978e-05
1.86376e-05
0.136303
0.114809
0.0652998
0.0432873
0.0292909
0.0118521
0.00347239
0.00301594
0.0030138
0.00306406
0.00314939
0.00328133
0.00334185
0.00339809
0.00342653
0.00349765
0.0036014
0.00379478
0.00403226
0.00424381
0.00428519
0.00423379
0.00402116
0.00374283
0.00358641
0.00350014
0.00334471
0.00313273
0.00290683
0.00264453
0.00244656
0.00235591
0.00225181
0.00215579
0.00209038
0.00194761
0.00173463
0.00153271
0.0801209
0.0469358
0.0212825
0.0168754
0.0132681
0.00615398
0.00459846
0.00487608
0.00474612
0.00470088
0.0046417
0.00472103
0.00471572
0.00471373
0.0046338
0.004654
0.00487871
0.00512146
0.0055153
0.0058887
0.00608905
0.00611945
0.00599496
0.00582279
0.00567041
0.0054717
0.0051986
0.00489344
0.00454362
0.00422825
0.00407833
0.00394367
0.00369592
0.00354753
0.00334271
0.00282509
0.00228398
0.00177519
0.119939
0.0448692
0.0199
0.0107339
0.00383392
0.00209452
0.00161379
0.00158948
0.00138174
0.00136353
0.00126041
0.00126325
0.00118937
0.00114716
0.00108809
0.00106088
0.0011387
0.00119651
0.00134719
0.00149319
0.00161529
0.00168493
0.00170345
0.00170087
0.00167945
0.00163002
0.0015768
0.00151878
0.00146149
0.00140986
0.00135441
0.0012781
0.0012129
0.00118285
0.00114051
0.00107292
0.000956344
0.0602125
0.0241416
0.0137418
0.00542266
0.00345861
0.00188901
0.00106477
0.000778316
0.000661214
0.000546387
0.000491683
0.000402049
0.000371511
0.000329446
0.000288386
0.000273335
0.000257705
0.000255257
0.000256003
0.000261215
0.000262722
0.000264598
0.00025811
0.000256324
0.000250442
0.000246344
0.000242855
0.000240812
0.000240474
0.000242189
0.000246961
0.000253433
0.000262378
0.000270575
0.000274494
0.000268909
0.00025083
0.0231103
0.0156058
0.00963644
0.00672453
0.00424626
0.00258014
0.00122703
0.000962841
0.000739289
0.000545559
0.000495721
0.000386275
0.000334579
0.000308705
0.000235184
0.000220446
0.000183331
0.000168731
0.000156514
0.000144771
0.000132594
0.00012637
0.000117748
0.000113555
0.000109054
0.000105936
0.000103076
0.000100628
9.92824e-05
9.87656e-05
9.94392e-05
0.000100947
0.000102199
0.000102844
0.000101009
9.65163e-05
8.9851e-05
8.30791e-05
0.0148322
0.0116716
0.00782199
0.00599821
0.00573378
0.00206838
0.00111518
0.000910138
0.000864487
0.000598973
0.000554405
0.000461335
0.000348077
0.000311158
0.000250732
0.000215099
0.000192001
0.000164424
0.00015421
0.000140259
0.000129208
0.000118117
0.000113085
0.000103347
9.96086e-05
9.37839e-05
9.04068e-05
8.67606e-05
8.38078e-05
8.11412e-05
7.89122e-05
7.69055e-05
7.48523e-05
7.21686e-05
6.84732e-05
6.38522e-05
5.92504e-05
5.52968e-05
0.0142687
0.0121487
0.00834299
0.00653472
0.00432079
0.00294265
0.00171197
0.000889171
0.000578567
0.000455871
0.000410486
0.000391824
0.000321303
0.00026028
0.000234609
0.000202959
0.000187643
0.000163513
0.000152986
0.000136631
0.000125318
0.000114287
0.000105214
9.72689e-05
9.07777e-05
8.53402e-05
8.06649e-05
7.66623e-05
7.3119e-05
7.00197e-05
6.72367e-05
6.46324e-05
6.19904e-05
5.91078e-05
5.58611e-05
5.23162e-05
4.87701e-05
0.0237144
0.0221969
0.0135365
0.00719407
0.00481789
0.00312345
0.00162757
0.00110252
0.000837743
0.000607506
0.000514729
0.000374618
0.000300747
0.000261841
0.000211707
0.000185593
0.000159902
0.000148454
0.00013757
0.000128983
0.000115361
0.000107181
9.64037e-05
8.91876e-05
8.19517e-05
7.64001e-05
7.14525e-05
6.73324e-05
6.37291e-05
6.06221e-05
5.78505e-05
5.52719e-05
5.27139e-05
5.0074e-05
4.73195e-05
4.45073e-05
4.18261e-05
0.0630176
0.0577552
0.0308164
0.0156901
0.00929738
0.00400778
0.00159696
0.000977409
0.000692887
0.000545218
0.000399166
0.000316671
0.000245307
0.000214286
0.000196508
0.000176054
0.000158857
0.000135205
0.000124436
0.000114614
0.000101815
9.50101e-05
8.48248e-05
7.84093e-05
7.16455e-05
6.6594e-05
6.20405e-05
5.8332e-05
5.51242e-05
5.24167e-05
5.0041e-05
4.78908e-05
4.58444e-05
4.38351e-05
4.18181e-05
3.97991e-05
3.78398e-05
0.137106
0.143018
0.0751129
0.0408856
0.0320983
0.0226907
0.00902854
0.00470722
0.00340694
0.00251788
0.00195772
0.00118691
0.000692696
0.000522621
0.00056162
0.000240404
0.000126278
0.000102089
9.30145e-05
9.01314e-05
8.06151e-05
7.64816e-05
6.79389e-05
6.41084e-05
5.83521e-05
5.49771e-05
5.14489e-05
4.87562e-05
4.63637e-05
4.43604e-05
4.25988e-05
4.10147e-05
3.95304e-05
3.81064e-05
3.67125e-05
3.5345e-05
3.40208e-05
0.157241
0.204328
0.137388
0.079729
0.0711318
0.0706621
0.0503568
0.0361308
0.0281347
0.0224574
0.0187022
0.0153914
0.0096245
0.00602949
0.00380316
0.00176783
0.000301502
7.57485e-05
5.79046e-05
5.55394e-05
5.19699e-05
4.93408e-05
4.65674e-05
4.4308e-05
4.18375e-05
4.02197e-05
3.84516e-05
3.71234e-05
3.58827e-05
3.4839e-05
3.38953e-05
3.30396e-05
3.22307e-05
3.14448e-05
3.06558e-05
2.98644e-05
2.90831e-05
0.166131
0.178113
0.152317
0.101478
0.067315
0.0481687
0.039324
0.0346457
0.028414
0.0214837
0.014689
0.0100718
0.00813899
0.00765166
0.00684571
0.00447669
0.00127986
7.10352e-05
3.28916e-05
3.13453e-05
3.02046e-05
2.93065e-05
2.81494e-05
2.73219e-05
2.63938e-05
2.56094e-05
2.48199e-05
2.40939e-05
2.33929e-05
2.27297e-05
2.20927e-05
2.14847e-05
2.09023e-05
2.03493e-05
1.98279e-05
1.93344e-05
1.88666e-05
0.107938
0.0861463
0.0581156
0.0490683
0.0361685
0.0144703
0.00374071
0.00309986
0.00316757
0.00325993
0.00334979
0.00350268
0.00360734
0.00369187
0.00374242
0.00380972
0.00391206
0.0040974
0.0043298
0.00450626
0.00452546
0.00445758
0.00420904
0.00392444
0.00376396
0.00365138
0.0034584
0.00320879
0.00294147
0.00266888
0.0024816
0.0023811
0.00226164
0.00215684
0.00208563
0.00192785
0.00173367
0.00151731
0.0468031
0.0242281
0.0149303
0.0125492
0.0138092
0.0065149
0.00427845
0.00465947
0.00452793
0.00468241
0.00471439
0.00491629
0.00502061
0.00508732
0.0051125
0.00514697
0.00538277
0.00562232
0.00600294
0.00637306
0.0065768
0.006587
0.0064317
0.00622222
0.00603213
0.00577789
0.00544421
0.00506438
0.0046225
0.00428154
0.00413581
0.00394805
0.00371507
0.00359853
0.00332789
0.00271782
0.00212178
0.00169822
0.0636871
0.0300009
0.0122319
0.00485381
0.00280223
0.00155936
0.0013636
0.0013666
0.00126232
0.00130328
0.00125927
0.00131196
0.00129976
0.00129366
0.00127876
0.00126133
0.00134957
0.00142779
0.001594
0.00176178
0.0018915
0.00195466
0.00194445
0.00189727
0.00181853
0.00171099
0.00160551
0.00150843
0.0014284
0.00137746
0.00133705
0.00129526
0.00128588
0.00129401
0.00125155
0.00117519
0.00102729
0.0339387
0.0151406
0.00818301
0.00451272
0.00227175
0.00172261
0.000814411
0.000666873
0.000557782
0.000481605
0.000442784
0.000390631
0.000366272
0.000335483
0.000310163
0.000298648
0.000287961
0.000291461
0.00029825
0.000304118
0.000304882
0.000300871
0.000282708
0.000269505
0.000252593
0.00023882
0.000232503
0.000230259
0.000230551
0.000237154
0.000248911
0.000265821
0.00028576
0.000297284
0.000298539
0.000279524
0.000234728
0.0185588
0.0112377
0.00835274
0.00468404
0.00363841
0.00173168
0.00100406
0.00081734
0.00062557
0.000478995
0.000430765
0.000355319
0.000309988
0.000285456
0.00023221
0.000218544
0.00018692
0.000172975
0.000161204
0.000148988
0.000138254
0.000130339
0.000121976
0.000117466
0.000113203
0.00011063
0.000108533
0.000106967
0.000106176
0.0001061
0.00010711
0.000109104
0.000111325
0.000112564
0.000111274
0.00010573
9.57598e-05
8.47002e-05
0.0137677
0.0101176
0.00662919
0.00465913
0.00399639
0.00147905
0.000886741
0.000727109
0.000673941
0.000513109
0.000465329
0.000407303
0.000322117
0.000292528
0.000243657
0.00021168
0.000192206
0.000167253
0.000157419
0.000143534
0.000133157
0.000122296
0.000116721
0.000107951
0.00010418
9.91655e-05
9.63112e-05
9.34233e-05
9.10048e-05
8.85979e-05
8.63606e-05
8.42272e-05
8.19711e-05
7.91859e-05
7.51806e-05
7.00302e-05
6.4317e-05
5.89879e-05
0.0125275
0.0102503
0.00766646
0.00524082
0.00369899
0.00277041
0.00155653
0.000786663
0.000513061
0.0004091
0.000367068
0.000343445
0.000297216
0.000250816
0.000229792
0.000203567
0.00019005
0.000167726
0.000157531
0.000142059
0.000130604
0.000119545
0.000109983
0.000101947
9.53919e-05
9.00569e-05
8.56177e-05
8.18654e-05
7.85379e-05
7.55561e-05
7.28187e-05
7.02174e-05
6.75222e-05
6.44879e-05
6.09304e-05
5.68724e-05
5.25789e-05
0.0172788
0.0171822
0.0124884
0.00690815
0.00412908
0.00237179
0.00138245
0.000950541
0.000697373
0.000502848
0.000405501
0.000306899
0.00025765
0.000234838
0.000207138
0.000184803
0.000161887
0.000150769
0.000141789
0.000132491
0.000120151
0.00011093
0.000100467
9.26952e-05
8.55038e-05
7.98167e-05
7.49404e-05
7.08529e-05
6.72824e-05
6.41535e-05
6.13324e-05
5.86818e-05
5.60188e-05
5.3206e-05
5.01876e-05
4.70507e-05
4.39959e-05
0.040468
0.0409064
0.0277871
0.0168244
0.00964671
0.00363866
0.00140221
0.000874541
0.000658362
0.000542654
0.000459019
0.000388822
0.00029967
0.000235307
0.000209136
0.00017338
0.000154421
0.000137389
0.000127707
0.000117986
0.000106779
9.86711e-05
8.87467e-05
8.16548e-05
7.47882e-05
6.94635e-05
6.4821e-05
6.10065e-05
5.7718e-05
5.49254e-05
5.2478e-05
5.02623e-05
4.81403e-05
4.60214e-05
4.38523e-05
4.1636e-05
3.94581e-05
0.0868936
0.102086
0.0720721
0.0456997
0.0366543
0.0235541
0.00886415
0.00480284
0.00367093
0.002883