/*--------------------------------*- C++ -*----------------------------------*\
| =========                 |                                                 |
| \\      /  F ield         | OpenFOAM: The Open Source CFD Toolbox           |
|  \\    /   O peration     | Version:  2.3.1                                 |
|   \\  /    A nd           | Web:      www.OpenFOAM.org                      |
|    \\/     M anipulation  |                                                 |
\*---------------------------------------------------------------------------*/
FoamFile
{
    version     2.0;
    format      ascii;
    class       volScalarField;
    location    "5";
    object      nut;
}
// * * * * * * * * * * * * * * * * * * * * * * * * * * * * * * * * * * * * * //

dimensions      [0 2 -1 0 0 0 0];

internalField   nonuniform List<scalar> 
37632
(
0.00135305
0.000443161
0.000262332
0.000175202
0.000136191
0.000128592
0.000121195
0.000101331
6.48197e-05
4.45213e-05
4.16924e-05
4.06273e-05
3.97053e-05
3.97871e-05
4.01489e-05
4.17667e-05
4.24665e-05
4.42287e-05
4.49725e-05
4.68485e-05
4.85179e-05
4.91094e-05
4.91343e-05
4.85659e-05
4.69531e-05
4.6103e-05
4.5965e-05
4.5695e-05
4.528e-05
4.48945e-05
4.37964e-05
4.17791e-05
4.08222e-05
3.99262e-05
3.90106e-05
3.86995e-05
3.81064e-05
3.65262e-05
0.000804495
0.000436401
0.000311913
0.000234066
9.44416e-05
8.2614e-05
6.54076e-05
5.53851e-05
4.90628e-05
4.69387e-05
4.29376e-05
3.90669e-05
3.73223e-05
3.66374e-05
3.6206e-05
3.92549e-05
4.06608e-05
4.29703e-05
4.26142e-05
4.53915e-05
4.60574e-05
4.59942e-05
4.68621e-05
4.68304e-05
4.70321e-05
4.70796e-05
4.68205e-05
4.61773e-05
4.511e-05
4.33303e-05
4.1273e-05
3.9197e-05
3.73534e-05
3.67775e-05
3.7287e-05
3.86507e-05
3.94114e-05
3.93462e-05
0.000646853
0.000542998
0.000330644
0.000201928
8.94911e-05
5.99086e-05
5.27531e-05
5.27661e-05
4.71354e-05
4.59359e-05
4.13619e-05
3.69001e-05
3.40699e-05
3.08624e-05
2.26527e-05
1.75891e-05
1.677e-05
1.71082e-05
1.70991e-05
1.80701e-05
1.97101e-05
1.98342e-05
2.16953e-05
2.28735e-05
2.36497e-05
2.45733e-05
2.5179e-05
2.56351e-05
2.596e-05
2.62638e-05
2.65801e-05
2.70656e-05
2.79064e-05
2.91943e-05
3.10148e-05
3.31539e-05
3.50785e-05
0.000561134
0.00056473
0.000380544
0.00021956
8.46635e-05
4.7794e-05
4.49776e-05
4.43562e-05
3.74708e-05
3.36079e-05
3.08065e-05
2.61628e-05
2.38146e-05
2.04342e-05
1.81528e-05
1.50423e-05
1.39174e-05
1.21889e-05
1.18519e-05
1.1083e-05
1.10694e-05
1.09139e-05
1.12385e-05
1.18824e-05
1.22742e-05
1.32127e-05
1.40412e-05
1.5041e-05
1.60152e-05
1.70268e-05
1.81233e-05
1.952e-05
2.11738e-05
2.29575e-05
2.49396e-05
2.70783e-05
2.89156e-05
0.000501356
0.00054956
0.00046125
0.000263117
0.000126656
5.3365e-05
4.1947e-05
3.97771e-05
3.51148e-05
3.54606e-05
2.88361e-05
2.79326e-05
2.75772e-05
2.0623e-05
2.01892e-05
1.53163e-05
1.48648e-05
1.20066e-05
1.13509e-05
1.02932e-05
9.78472e-06
9.20246e-06
8.93852e-06
8.71439e-06
8.70125e-06
8.87325e-06
9.1913e-06
9.72528e-06
1.03713e-05
1.11707e-05
1.20839e-05
1.30743e-05
1.4042e-05
1.50679e-05
1.61931e-05
1.73791e-05
1.83727e-05
1.9098e-05
0.000476157
0.000562876
0.000503968
0.000353567
0.000235946
0.000129681
5.28137e-05
4.24932e-05
3.80525e-05
3.83798e-05
3.00217e-05
2.54182e-05
2.69192e-05
1.9935e-05
1.98657e-05
1.49428e-05
1.42177e-05
1.24251e-05
1.17372e-05
1.05803e-05
1.0176e-05
9.08714e-06
8.7184e-06
8.15458e-06
7.89999e-06
7.61598e-06
7.45748e-06
7.38451e-06
7.39829e-06
7.54922e-06
7.81452e-06
8.15083e-06
8.51393e-06
8.92334e-06
9.35144e-06
9.65822e-06
9.77469e-06
9.75127e-06
0.000453131
0.000567542
0.000523148
0.000373891
0.000199585
7.36957e-05
6.32346e-05
5.34597e-05
4.70607e-05
3.86103e-05
2.98423e-05
2.17173e-05
1.77082e-05
1.5901e-05
1.33153e-05
1.26148e-05
1.1456e-05
1.10498e-05
1.02683e-05
9.93634e-06
9.33604e-06
9.04795e-06
8.47691e-06
8.21972e-06
7.72272e-06
7.47502e-06
7.1497e-06
6.9027e-06
6.6744e-06
6.48834e-06
6.3323e-06
6.20264e-06
6.0945e-06
6.00777e-06
5.94377e-06
5.88009e-06
5.7734e-06
0.000453533
0.000567877
0.000523714
0.000405962
0.000273346
0.000152033
0.00011237
9.34122e-05
7.88066e-05
6.51657e-05
5.40056e-05
3.18698e-05
1.51828e-05
1.34579e-05
1.29786e-05
1.16727e-05
1.1269e-05
1.03666e-05
1.00106e-05
9.29709e-06
9.07409e-06
8.44941e-06
8.26128e-06
7.79767e-06
7.57676e-06
7.2927e-06
7.03083e-06
6.80056e-06
6.56907e-06
6.36079e-06
6.15754e-06
5.96895e-06
5.79207e-06
5.62741e-06
5.47001e-06
5.32094e-06
5.18016e-06
0.000431461
0.000548499
0.000523534
0.000428215
0.000259165
0.000108255
8.63166e-05
7.46032e-05
5.83392e-05
4.88448e-05
3.43143e-05
2.05001e-05
1.58656e-05
1.34715e-05
1.30862e-05
1.08143e-05
1.05928e-05
9.50324e-06
9.20287e-06
8.57615e-06
8.27534e-06
8.01533e-06
7.6343e-06
7.42137e-06
7.14502e-06
6.92721e-06
6.7119e-06
6.51194e-06
6.32243e-06
6.14256e-06
5.96891e-06
5.80115e-06
5.63869e-06
5.48228e-06
5.3318e-06
5.18899e-06
5.05568e-06
0.000437293
0.000552197
0.00052753
0.00045076
0.000303029
0.000202824
0.000130535
9.19701e-05
6.94538e-05
5.63057e-05
4.6198e-05
3.47355e-05
1.94872e-05
1.80119e-05
1.15152e-05
1.03918e-05
1.04156e-05
9.22377e-06
9.06684e-06
8.20523e-06
7.94217e-06
7.75051e-06
7.3574e-06
7.21456e-06
6.92167e-06
6.74745e-06
6.54408e-06
6.36447e-06
6.1894e-06
6.02303e-06
5.8613e-06
5.70477e-06
5.5528e-06
5.40602e-06
5.26473e-06
5.13009e-06
5.00342e-06
0.000425489
0.000540633
0.000518716
0.000445398
0.00028507
0.000163612
0.000111856
8.27936e-05
6.53266e-05
5.38483e-05
4.50323e-05
3.17797e-05
2.87246e-05
3.27344e-05
2.63295e-05
1.01133e-05
7.7436e-06
7.5502e-06
7.62158e-06
7.2778e-06
7.21972e-06
6.99276e-06
6.80368e-06
6.68128e-06
6.48664e-06
6.35013e-06
6.19235e-06
6.04922e-06
5.9061e-06
5.76723e-06
5.63021e-06
5.4957e-06
5.36313e-06
5.23319e-06
5.10644e-06
4.98446e-06
4.8691e-06
0.000413267
0.000470537
0.000462501
0.000423799
0.000321002
0.000236824
0.000174121
0.000135962
0.00011629
0.000104483
8.45846e-05
6.20064e-05
5.04045e-05
5.16984e-05
4.79613e-05
1.85808e-05
6.94454e-06
6.52601e-06
6.6911e-06
6.33419e-06
6.35034e-06
6.06456e-06
5.9932e-06
5.78737e-06
5.68617e-06
5.54113e-06
5.41912e-06
5.29529e-06
5.17648e-06
5.06118e-06
4.94959e-06
4.8432e-06
4.74341e-06
4.65084e-06
4.55764e-06
4.46819e-06
4.38199e-06
0.00139517
0.00107474
0.000468683
0.00037179
0.000263225
0.000201419
0.000215792
0.000185408
0.000120367
0.000100621
0.000100648
0.000100727
9.86061e-05
9.95146e-05
0.000102198
0.000109233
0.000112063
0.000119138
0.000122252
0.000130584
0.000135494
0.000135507
0.000133241
0.000127373
0.000123256
0.000122873
0.000122694
0.000121259
0.000119968
0.000117287
0.000109996
0.000105209
0.00010377
0.000100844
9.92601e-05
9.76284e-05
9.26518e-05
8.56871e-05
0.00193164
0.000952487
0.000586911
0.000503364
0.000327319
0.000382235
0.000420913
0.000243364
0.000192305
0.000200783
0.000176114
0.000142971
0.000129413
0.000122156
0.000126824
0.000149022
0.000158745
0.000185455
0.000200234
0.000212058
0.000227459
0.000234905
0.000239288
0.000243522
0.000246185
0.000247863
0.000247254
0.000242807
0.00023627
0.000228611
0.000214679
0.000199222
0.00018797
0.000183715
0.000187412
0.00019032
0.000178889
0.000159586
0.00131461
0.00129245
0.000534778
0.000326107
0.000184084
0.000224346
0.00021097
0.000194162
0.000159081
0.000152518
0.000117534
0.000108268
8.7387e-05
7.35495e-05
6.65144e-05
4.67014e-05
4.78905e-05
4.91629e-05
5.48547e-05
5.42179e-05
6.86443e-05
7.56431e-05
8.07673e-05
9.32289e-05
9.97859e-05
0.000107462
0.000113628
0.000118378
0.000121743
0.000123812
0.000123939
0.000122754
0.000120741
0.000120365
0.000123394
0.000129023
0.000135451
0.00145805
0.00133099
0.000543397
0.000374858
0.0001459
0.000168742
0.000162323
0.000160875
0.000133948
0.000124689
0.000103267
9.49325e-05
8.56349e-05
7.84587e-05
7.41011e-05
6.12535e-05
5.80112e-05
4.68208e-05
4.35664e-05
3.5116e-05
3.09617e-05
2.81481e-05
2.74462e-05
2.9169e-05
3.07975e-05
3.42197e-05
3.8086e-05
4.25423e-05
4.70157e-05
5.18155e-05
5.77151e-05
6.40128e-05
7.21723e-05
8.00914e-05
8.73512e-05
9.42311e-05
9.9127e-05
0.00124927
0.00141687
0.000827531
0.000400431
0.000146023
7.07149e-05
0.000155897
0.000160603
0.000111744
0.000149362
0.000117674
9.90525e-05
0.000100909
7.0072e-05
9.60663e-05
7.43882e-05
0.000110915
7.19785e-05
7.94814e-05
6.1537e-05
5.44343e-05
4.16057e-05
3.86477e-05
2.87247e-05
2.41189e-05
2.03865e-05
1.79225e-05
1.72733e-05
1.78057e-05
1.94818e-05
2.23421e-05
2.58303e-05
2.94009e-05
3.30059e-05
3.65805e-05
3.91066e-05
3.95009e-05
3.82583e-05
0.000961745
0.00162268
0.000962969
0.000540087
0.000236896
0.000119319
0.000136938
0.000188553
0.000136472
0.000215986
0.000165851
0.00016527
0.000209222
0.000160526
0.000160797
0.000138191
0.000125604
0.00010943
0.000102633
9.19759e-05
8.78049e-05
7.44754e-05
6.34865e-05
5.09329e-05
4.21065e-05
3.56586e-05
2.78872e-05
2.28495e-05
1.86517e-05
1.55669e-05
1.32489e-05
1.19794e-05
1.12657e-05
1.08782e-05
1.06702e-05
1.0424e-05
1.00331e-05
9.62976e-06
0.000917454
0.00158146
0.00109378
0.000526965
0.000163094
0.000185602
0.000246222
0.000231742
0.000244199
0.000215048
0.000199351
0.000190326
0.000145967
0.000169858
0.000109687
0.000116513
0.000101751
0.000103524
9.65728e-05
9.03285e-05
8.59832e-05
7.65626e-05
7.46335e-05
6.53949e-05
6.1366e-05
5.46014e-05
4.90783e-05
4.28771e-05
3.73652e-05
3.23429e-05
2.80401e-05
2.40665e-05
2.08755e-05
1.81262e-05
1.5982e-05
1.4538e-05
1.35853e-05
0.00104718
0.00149869
0.00109845
0.000663268
0.000523161
0.000269042
0.000278463
0.00026332
0.000236307
0.000140804
0.000102545
5.66833e-05
0.000129506
0.000117623
0.000118357
0.000119502
0.000109698
0.000110053
9.63501e-05
9.55473e-05
8.67092e-05
7.8019e-05
7.17672e-05
6.80523e-05
6.17933e-05
5.85708e-05
5.42046e-05
5.09475e-05
4.75357e-05
4.44817e-05
4.1477e-05
3.86895e-05
3.60901e-05
3.36562e-05
3.14421e-05
2.95867e-05
2.81675e-05
0.00114994
0.00154486
0.00130262
0.000647956
0.000246573
0.000135549
0.000126319
0.00010863
8.00948e-05
6.54705e-05
4.95047e-05
9.20779e-05
0.000101629
7.90544e-05
0.000105758
8.44711e-05
9.12183e-05
8.74323e-05
7.82828e-05
7.56272e-05
6.96996e-05
6.67902e-05
6.12451e-05
5.88268e-05
5.43538e-05
5.16339e-05
4.88496e-05
4.63522e-05
4.42146e-05
4.21975e-05
4.0393e-05
3.86597e-05
3.70415e-05
3.54793e-05
3.3995e-05
3.26226e-05
3.14021e-05
0.0015651
0.00170751
0.00135546
0.000722259
0.000475611
0.000450819
0.000323867
0.000223998
0.000143464
8.97523e-05
6.41577e-05
6.24142e-05
3.38493e-05
3.13453e-05
3.29403e-05
5.79672e-05
8.21539e-05
6.77885e-05
7.12361e-05
6.20603e-05
5.78201e-05
5.49737e-05
5.08012e-05
4.87871e-05
4.55415e-05
4.38171e-05
4.19081e-05
4.02964e-05
3.89053e-05
3.76668e-05
3.6533e-05
3.54645e-05
3.44297e-05
3.34106e-05
3.24039e-05
3.14161e-05
3.04717e-05
0.00152506
0.00159061
0.00120744
0.000562464
0.000342201
0.000348687
0.000592087
0.000351056
0.000249423
0.000188565
0.000114054
9.36571e-05
0.000108496
8.25705e-05
4.40474e-05
3.02622e-05
2.83109e-05
3.18593e-05
2.86055e-05
3.18167e-05
2.74027e-05
2.95085e-05
2.77713e-05
2.84181e-05
2.77775e-05
2.78651e-05
2.76034e-05
2.75179e-05
2.73784e-05
2.72414e-05
2.70809e-05
2.68808e-05
2.66276e-05
2.63123e-05
2.59282e-05
2.54822e-05
2.50122e-05
0.00101973
0.00106925
0.00102881
0.000875488
0.000664215
0.00050553
0.000387233
0.000319101
0.000286016
0.000259008
0.000209067
0.000152203
0.000132139
0.000127547
0.000115407
6.37737e-05
1.59245e-05
1.41312e-05
1.39327e-05
1.3655e-05
1.32677e-05
1.31363e-05
1.27647e-05
1.26126e-05
1.23474e-05
1.21541e-05
1.19455e-05
1.1753e-05
1.15655e-05
1.13858e-05
1.1212e-05
1.10446e-05
1.08834e-05
1.07284e-05
1.05796e-05
1.04386e-05
1.03048e-05
0.00108831
0.00112145
0.00056474
0.000463862
0.000233137
0.000191464
0.000176832
0.00014843
0.000119718
0.000117829
0.000120133
0.000121905
0.000121021
0.000121668
0.000122978
0.000127494
0.000130161
0.00013578
0.000140466
0.000146987
0.000149652
0.000149396
0.000146777
0.000141102
0.000137555
0.000136589
0.000135413
0.000132533
0.000129845
0.000125192
0.000118545
0.00011523
0.000113705
0.000110895
0.000109466
0.000107121
0.000100748
9.3662e-05
0.00133923
0.00112847
0.000650247
0.000717366
0.000377146
0.000395815
0.000430223
0.000302909
0.000281023
0.00026841
0.000242969
0.000228969
0.000214164
0.000208932
0.000207738
0.000224089
0.000234896
0.000254202
0.000274705
0.000292407
0.000305714
0.000313787
0.000317335
0.00031963
0.000321957
0.000322573
0.00032038
0.00031413
0.000305722
0.000295379
0.000283031
0.000270506
0.00025819
0.000250233
0.00024759
0.000237107
0.000207013
0.00017562
0.00169467
0.000938112
0.000829443
0.00042622
0.000284192
0.000250011
0.000221792
0.000184422
0.00015785
0.000144605
0.000117078
0.000104615
8.78798e-05
7.7876e-05
6.86774e-05
6.46565e-05
6.98357e-05
7.17158e-05
8.14758e-05
8.89466e-05
0.00010022
0.000109753
0.000117682
0.000126306
0.000134247
0.000140655
0.000146392
0.000150556
0.000152997
0.000153762
0.000151829
0.000147258
0.000142147
0.000140544
0.000140776
0.000140627
0.000142002
0.00153876
0.000688665
0.000488099
0.0002274
0.00025841
0.000208191
0.000248701
0.000170441
0.000151677
0.000127926
0.000118188
0.000108007
0.00010341
9.15973e-05
7.94328e-05
6.8037e-05
5.9338e-05
5.19824e-05
4.717e-05
4.0787e-05
3.88224e-05
3.90043e-05
3.79861e-05
3.9453e-05
4.07336e-05
4.27285e-05
4.49254e-05
4.81505e-05
5.19434e-05
5.58441e-05
5.93371e-05
6.30217e-05
6.74586e-05
7.39818e-05
8.41969e-05
9.36381e-05
0.000100501
0.000661842
0.000724955
0.000260862
0.000327353
0.000168069
0.000157577
0.000245673
0.0002346
0.00018063
0.000182867
0.000159812
0.000152279
0.000142804
0.0001426
0.000148674
0.000152818
0.00014086
0.000124283
0.00011915
9.77539e-05
8.37198e-05
7.42857e-05
6.2803e-05
5.13852e-05
4.44421e-05
3.6897e-05
3.1482e-05
2.75624e-05
2.55689e-05
2.49491e-05
2.51535e-05
2.61047e-05
2.75391e-05
2.95203e-05
3.19167e-05
3.40064e-05
3.48875e-05
3.45523e-05
0.000343979
0.000634228
0.000260688
0.000292983
0.000154267
0.000189124
0.000207969
0.000224572
0.000220845
0.000229294
0.000251056
0.00025666
0.000260617
0.000252182
0.000233245
0.000229227
0.00020149
0.000189937
0.000177861
0.000161344
0.000145847
0.000128908
0.000118788
9.70059e-05
8.55378e-05
7.23364e-05
5.97453e-05
4.92463e-05
4.00884e-05
3.29828e-05
2.74308e-05
2.32306e-05
2.00927e-05
1.75918e-05
1.56953e-05
1.43207e-05
1.32212e-05
1.24905e-05
0.000355951
0.000618966
0.000329654
0.000322361
0.000203278
0.000298566
0.0002679
0.000229179
0.000222043
0.000190149
0.000239281
0.000317483
0.000276283
0.000251262
0.000238993
0.000231526
0.000222296
0.000205128
0.000194497
0.000178368
0.00016802
0.000153011
0.000143442
0.000131694
0.000120573
0.000109523
9.89261e-05
8.82519e-05
7.81457e-05
6.86782e-05
5.99369e-05
5.22306e-05
4.58677e-05
4.01962e-05
3.56414e-05
3.21754e-05
3.00663e-05
0.00061003
0.000696756
0.000398329
0.000380421
0.0003194
0.000305091
0.000177269
0.000157795
0.0001451
9.94505e-05
6.12293e-05
0.000125537
0.000278458
0.000205802
0.000206502
0.000212453
0.000204152
0.000205414
0.000192147
0.000187193
0.000172135
0.000165126
0.000150967
0.000142658
0.000132287
0.000123614
0.000115049
0.000107297
0.000100087
9.34522e-05
8.72663e-05
8.1544e-05
7.62528e-05
7.12467e-05
6.66635e-05
6.27485e-05
5.97162e-05
0.00106286
0.0010465
0.000740986
0.000475892
0.000243049
0.00017966
0.000135948
0.000107224
8.29475e-05
6.26908e-05
5.60157e-05
9.74952e-05
0.000126865
9.99203e-05
0.000109922
0.000170992
0.000172826
0.0001733
0.000162658
0.000161241
0.000149719
0.000145563
0.000134481
0.00012842
0.000120841
0.000113586
0.000107512
0.000101673
9.6558e-05
9.18279e-05
8.7499e-05
8.34346e-05
7.96076e-05
7.59275e-05
7.24247e-05
6.9178e-05
6.62647e-05
0.00184599
0.0017035
0.0010073
0.000642587
0.000620905
0.000547382
0.000336887
0.000194679
0.000128255
8.87781e-05
6.87064e-05
4.80993e-05
3.72364e-05
3.12806e-05
2.53079e-05
5.10567e-05
9.40857e-05
0.000111044
0.000108344
0.00011639
0.000107175
0.000109185
0.000100708
9.92682e-05
9.33612e-05
9.06467e-05
8.70174e-05
8.38947e-05
8.09923e-05
7.8302e-05
7.57534e-05
7.32908e-05
7.08607e-05
6.84381e-05
6.60272e-05
6.36596e-05
6.1409e-05
0.00177234
0.00163633
0.00107538
0.00062788
0.000601506
0.000850899
0.000959934
0.000688906
0.00054815
0.000427725
0.000316081
0.000269108
0.000192538
0.000133878
6.95299e-05
3.91885e-05
4.17845e-05
4.4035e-05
4.60296e-05
4.71024e-05
4.64696e-05
4.98049e-05
4.80414e-05
4.91053e-05
4.83922e-05
4.86667e-05
4.84604e-05
4.85069e-05
4.84115e-05
4.83299e-05
4.81565e-05
4.78874e-05
4.74677e-05
4.68807e-05
4.61014e-05
4.5159e-05
4.41792e-05
0.00103052
0.00105942
0.00101081
0.000847798
0.000664426
0.000529295
0.000432728
0.000382364
0.000351165
0.000316582
0.000259113
0.00019475
0.000170141
0.000165096
0.000150583
9.80868e-05
3.0757e-05
1.45788e-05
1.41341e-05
1.40314e-05
1.36476e-05
1.34912e-05
1.32015e-05
1.29851e-05
1.276e-05
1.2556e-05
1.23532e-05
1.21634e-05
1.19786e-05
1.1802e-05
1.16308e-05
1.1466e-05
1.13068e-05
1.11539e-05
1.10076e-05
1.08691e-05
1.07365e-05
0.000932294
0.00100663
0.000531594
0.000520121
0.000378797
0.000215713
0.000152343
0.000136874
0.000128901
0.000130312
0.000132484
0.000135103
0.000135378
0.000136192
0.000136969
0.000139396
0.000141837
0.000146439
0.000151371
0.00015657
0.000158173
0.000157593
0.00015437
0.00014881
0.000145443
0.000144067
0.000141836
0.000137999
0.000134057
0.000128387
0.00012261
0.000120147
0.000118013
0.000115386
0.000113885
0.000110925
0.000103853
9.77814e-05
0.00114962
0.000573939
0.000523472
0.000485557
0.000322062
0.000349904
0.000339996
0.000322066
0.000315247
0.00030328
0.000288132
0.000280902
0.000271503
0.00026812
0.000267108
0.000274825
0.000287618
0.000303653
0.000324933
0.000342703
0.000354964
0.000361927
0.000363359
0.000363054
0.000363041
0.000361413
0.000355922
0.000347198
0.000336729
0.00032475
0.000314356
0.000304795
0.000291842
0.000282762
0.000275985
0.000252184
0.000206873
0.000163484
0.00137687
0.00116537
0.000751232
0.000425908
0.00032991
0.000244726
0.000199893
0.000176998
0.000153112
0.000141356
0.000122912
0.000113849
0.000103318
9.44231e-05
8.73517e-05
8.45011e-05
9.0701e-05
9.38745e-05
0.000105916
0.000115887
0.000127587
0.000137414
0.000143649
0.000150259
0.000155076
0.000158998
0.000162049
0.000163375
0.00016356
0.000162164
0.000158436
0.000151882
0.000144858
0.000140525
0.000137114
0.000130776
0.000121136
0.000747297
0.000615193
0.000416029
0.000203535
0.000272644
0.000299362
0.000233668
0.00018887
0.000172093
0.0001396
0.000132295
0.000109708
0.000104803
9.19557e-05
7.38095e-05
6.62845e-05
5.62727e-05
5.30004e-05
4.88785e-05
4.55395e-05
4.44597e-05
4.44037e-05
4.39219e-05
4.53869e-05
4.59233e-05
4.68812e-05
4.80558e-05
4.93618e-05
5.03152e-05
5.11798e-05
5.21249e-05
5.30929e-05
5.43144e-05
5.60609e-05
5.86259e-05
6.2512e-05
7.00499e-05
0.000493228
0.000312624
0.00034196
0.000203376
0.000205128
0.00026852
0.000290002
0.000300847
0.000263965
0.000243452
0.000231111
0.000222237
0.000217297
0.000215802
0.000194253
0.00018911
0.000158995
0.000141579
0.000131342
0.000113708
9.86739e-05
8.92679e-05
7.84966e-05
7.02547e-05
6.33866e-05
5.59675e-05
5.01624e-05
4.51431e-05
4.13116e-05
3.81235e-05
3.594e-05
3.41172e-05
3.25693e-05
3.10662e-05
2.90562e-05
2.6798e-05
2.46619e-05
2.31964e-05
0.000390128
0.000242407
0.000245298
0.000151699
0.000152132
0.000237428
0.00025885
0.000285611
0.000307836
0.000302033
0.000322053
0.00034222
0.000326901
0.000341771
0.000310675
0.00029522
0.000265127
0.000234297
0.000219345
0.000204582
0.000182936
0.000163951
0.000153272
0.000131187
0.000121236
0.000105703
9.4164e-05
8.26556e-05
7.25181e-05
6.36099e-05
5.59502e-05
4.93213e-05
4.35249e-05
3.81552e-05
3.31549e-05
2.9087e-05
2.60328e-05
2.38387e-05
0.000368879
0.000285651
0.00023932
0.000172208
0.000207195
0.00030442
0.000332155
0.000285205
0.00026221
0.00026009
0.000292506
0.000338923
0.000319519
0.000311663
0.000313453
0.000303426
0.000297093
0.00027127
0.000256771
0.000235319
0.000221553
0.000202614
0.000188938
0.000174346
0.000161397
0.000149042
0.000137295
0.000126148
0.000115273
0.000105162
9.59584e-05
8.75408e-05
7.99897e-05
7.29108e-05
6.64934e-05
6.12744e-05
5.77113e-05
0.000558118
0.000498089
0.000355772
0.000217983
0.000230065
0.000233743
0.000198372
0.000212387
0.000219547
0.000173672
8.83811e-05
0.00020314
0.000262598
0.00023591
0.000235686
0.000265832
0.000262349
0.000262082
0.000247585
0.000241866
0.000224791
0.000215463
0.000200124
0.000188757
0.000177177
0.000166578
0.000156623
0.000147493
0.000139115
0.000131403
0.000124347
0.000117845
0.000111801
0.00010596
0.000100453
9.55655e-05
9.16255e-05
0.00118627
0.000979445
0.000581012
0.000300766
0.000324522
0.000215922
0.000160651
0.000141848
0.00010709
8.68986e-05
6.64411e-05
7.64698e-05
9.78462e-05
8.6543e-05
7.23935e-05
0.000165748
0.000219891
0.000218399
0.000212809
0.000209279
0.000197411
0.000192113
0.000180061
0.000171543
0.000163588
0.000154761
0.000147645
0.000140709
0.000134597
0.000128972
0.000123832
0.000119031
0.000114462
0.000109986
0.00010561
0.000101414
9.74818e-05
0.00183193
0.00181801
0.00114355
0.000797144
0.000789163
0.000646687
0.000348551
0.000201362
0.000146998
0.000110395
8.34693e-05
5.17165e-05
3.89341e-05
3.01488e-05
2.737e-05
2.81563e-05
9.04965e-05
0.000126365
0.000132712
0.000140214
0.000134697
0.000136309
0.000129197
0.000127696
0.000122198
0.000119298
0.000115756
0.000112503
0.000109463
0.000106593
0.000103832
0.000101107
9.83376e-05
9.54801e-05
9.25327e-05
8.95477e-05
8.66383e-05
0.00181442
0.00179418
0.00117787
0.000880497
0.000887142
0.00117068
0.0011323
0.000848759
0.000702503
0.000577945
0.0004839
0.000427873
0.000290162
0.000177142
0.000113567
5.48752e-05
3.06469e-05
4.74882e-05
4.9394e-05
5.21759e-05
5.37212e-05
5.80222e-05
5.67658e-05
5.85603e-05
5.86409e-05
5.92758e-05
5.94868e-05
5.99113e-05
6.0196e-05
6.04837e-05
6.06377e-05
6.06451e-05
6.04191e-05
5.99183e-05
5.90923e-05
5.80159e-05
5.68591e-05
0.00101917
0.00104447
0.00097596
0.000816181
0.000668101
0.000545346
0.000465225
0.000428267
0.000395712
0.000353809
0.000293306
0.000230257
0.000201989
0.000196368
0.000183733
0.000138856
6.24236e-05
1.55133e-05
1.43577e-05
1.40357e-05
1.39213e-05
1.35608e-05
1.34071e-05
1.31296e-05
1.29332e-05
1.2723e-05
1.25253e-05
1.23363e-05
1.21527e-05
1.19766e-05
1.18056e-05
1.16405e-05
1.14806e-05
1.1327e-05
1.11802e-05
1.10407e-05
1.09066e-05
0.000882553
0.000844315
0.000625127
0.000502461
0.000423113
0.000279559
0.000148018
0.000137605
0.000137274
0.000138488
0.00014047
0.000143396
0.00014468
0.000145882
0.000146498
0.000148037
0.000150237
0.000154219
0.000158979
0.000163251
0.000164198
0.000163334
0.000159506
0.000153924
0.000150611
0.000148817
0.000145608
0.000141031
0.000135971
0.000129763
0.000124726
0.000122361
0.000119698
0.000117125
0.000115372
0.000111505
0.000105215
9.89629e-05
0.00101131
0.000589851
0.000421633
0.000382798
0.000289743
0.00029362
0.000308261
0.000332967
0.000326837
0.000321152
0.000314033
0.000311967
0.000308988
0.000308261
0.000308436
0.000313222
0.000326263
0.000341339
0.000361716
0.000378971
0.000390543
0.000395707
0.000395266
0.000392127
0.000389281
0.000384309
0.000375164
0.000363541
0.000349967
0.000336625
0.000328116
0.000320294
0.000308012
0.000300092
0.000290179
0.000252356
0.000196095
0.000151619
0.00176645
0.0012972
0.00075075
0.000466605
0.000240194
0.000219649
0.00018733
0.00016871
0.000148252
0.000138896
0.000127376
0.000123054
0.000115269
0.000110292
0.00010574
0.000103566
0.000109618
0.000114709
0.000127418
0.00014019
0.000152638
0.000160566
0.000164948
0.000168065
0.000169396
0.000168954
0.000168067
0.000166999
0.000165153
0.000162514
0.000158724
0.000153354
0.000148673
0.000145964
0.000140103
0.000128279
0.000112334
0.000879108
0.000849409
0.000800453
0.000337207
0.000375648
0.000300606
0.000243434
0.000192581
0.000171374
0.000132206
0.000126176
9.96039e-05
9.29746e-05
8.22735e-05
6.96338e-05
6.47927e-05
5.7616e-05
5.39727e-05
5.08524e-05
4.92199e-05
4.8121e-05
4.80475e-05
4.71744e-05
4.79266e-05
4.78813e-05
4.87125e-05
4.91479e-05
4.94476e-05
4.96327e-05
4.98827e-05
5.02777e-05
5.08105e-05
5.1291e-05
5.13395e-05
5.10701e-05
4.98146e-05
4.75668e-05
0.000957705
0.000699005
0.000611502
0.000293733
0.000244612
0.000306251
0.000322248
0.00034379
0.000303014
0.000265036
0.000255319
0.000238266
0.000231082
0.000227451
0.000196286
0.000189484
0.000159472
0.000143959
0.000131637
0.000117136
0.000104909
9.73505e-05
8.99997e-05
8.50326e-05
8.00183e-05
7.54143e-05
7.09649e-05
6.53172e-05
5.98682e-05
5.42749e-05
4.94917e-05
4.5581e-05
4.24229e-05
4.03104e-05
3.78531e-05
3.5312e-05
3.1755e-05
2.74828e-05
0.00074485
0.000561303
0.000477766
0.00021408
0.000173131
0.000230008
0.000287806
0.000331363
0.000347202
0.000323405
0.000336699
0.000343469
0.000332524
0.000347034
0.000322473
0.000307915
0.000287333
0.000255155
0.000241465
0.000222346
0.000205316
0.000186753
0.000178051
0.000159563
0.000151321
0.000137497
0.000128297
0.000117558
0.000106976
9.66613e-05
8.74958e-05
8.00011e-05
7.42062e-05
6.86273e-05
6.31823e-05
5.7562e-05
5.24718e-05
4.85583e-05
0.000528011
0.000430147
0.000397402
0.000232612
0.000230299
0.000363102
0.000381337
0.000304405
0.000265467
0.000249474
0.000250862
0.000290869
0.000294059
0.000310678
0.000322911
0.000327645
0.000334112
0.000308297
0.000294091
0.000270352
0.000254577
0.000234722
0.000219905
0.00020486
0.000192181
0.000180402
0.000169447
0.000158933
0.000148649
0.000138848
0.000129897
0.000121966
0.000114993
0.000108372
0.000102005
9.6226e-05
9.17387e-05
0.00056557
0.000568569
0.000475736
0.000264465
0.000209973
0.00020772
0.000241051
0.000272968
0.000269793
0.000201795
0.000161648
0.000179729
0.000174464
0.000207443
0.000203442
0.000258295
0.000280165
0.000287154
0.000279581
0.000271972
0.000256941
0.000244398
0.000230511
0.000217507
0.000206154
0.000195339
0.000185629
0.000176579
0.000168268
0.000160568
0.000153611
0.000147304
0.000141493
0.000135777
0.000130164
0.000124846
0.000120254
0.00105547
0.000993793
0.000732513
0.000432047
0.000387873
0.000225055
0.000165384
0.000140456
0.00011137
8.92803e-05
6.60268e-05
5.54032e-05
5.35329e-05
5.35597e-05
4.89062e-05
0.000107575
0.000205645
0.000230855
0.000238108
0.000234558
0.000223829
0.000218247
0.000207911
0.000197802
0.000190001
0.000180925
0.000173763
0.000166801
0.000160606
0.000154924
0.000149761
0.000144961
0.000140361
0.000135755
0.00013111
0.000126485
0.000121985
0.00161135
0.00182623
0.00129246
0.000986156
0.0008928
0.000705552
0.00034906
0.000208491
0.000164699
0.000131294
0.000107058
7.18197e-05
4.68871e-05
3.44921e-05
3.34937e-05
2.20131e-05
5.54168e-05
0.000121893
0.000142156
0.000151621
0.000149038
0.000151008
0.000145003
0.000143477
0.000139422
0.000136122
0.0001331
0.000130187
0.000127438
0.00012482
0.000122271
0.000119706
0.00011702
0.00011415
0.000111074
0.000107866
0.000104657
0.00161575
0.00179305
0.00157653
0.00132469
0.00135923
0.0013239
0.00117158
0.000929057
0.000788028
0.000669637
0.000584392
0.00052171
0.00038433
0.000240571
0.00014879
8.5046e-05
3.17909e-05
3.99619e-05
4.84617e-05
5.43866e-05
5.54493e-05
6.10064e-05
6.03988e-05
6.3003e-05
6.33193e-05
6.44826e-05
6.5163e-05
6.5947e-05
6.66141e-05
6.72487e-05
6.77268e-05
6.80106e-05
6.79891e-05
6.75965e-05
6.67684e-05
6.56594e-05
6.4417e-05
0.000987913
0.00102658
0.00096298
0.000806384
0.000667964
0.000558571
0.000491688
0.000460574
0.000423633
0.000374521
0.000312906
0.000256765
0.000227026
0.000219481
0.000208487
0.000172071
9.47246e-05
2.30056e-05
1.44991e-05
1.41493e-05
1.38883e-05
1.36815e-05
1.34076e-05
1.32093e-05
1.29825e-05
1.27879e-05
1.25889e-05
1.24033e-05
1.22213e-05
1.20466e-05
1.18764e-05
1.17116e-05
1.15516e-05
1.13975e-05
1.12502e-05
1.11091e-05
1.09736e-05
0.000777751
0.00072325
0.000579611
0.000537429
0.000474321
0.00030977
0.000155974
0.00013945
0.000140889
0.000142947
0.000144928
0.000148201
0.000150365
0.000152101
0.000153136
0.000154523
0.000156603
0.000160265
0.000164777
0.000168272
0.000168759
0.000167636
0.000163229
0.000157621
0.000154311
0.000152039
0.00014811
0.000142791
0.000136817
0.000130352
0.00012562
0.00012305
0.000119999
0.000117177
0.00011526
0.000110948
0.000105194
9.84664e-05
0.000766315
0.000488402
0.000334625
0.000268121
0.000292543
0.000262102
0.00028855
0.0003306
0.000326491
0.000328186
0.000326213
0.000331195
0.000332376
0.000335313
0.000338259
0.000343386
0.00035658
0.000371464
0.00039065
0.00040713
0.00041788
0.000421602
0.000419432
0.000413641
0.00040776
0.000399234
0.000386542
0.000371414
0.00035408
0.000339679
0.000332638
0.000324163
0.00031439
0.000308539
0.000294598
0.00024257
0.000178086
0.00014131
0.00157452
0.00135817
0.000740811
0.000318678
0.000201749
0.000170029
0.000162031
0.000151989
0.000138228
0.000134478
0.000127931
0.000127425
0.000124639
0.000122858
0.000121441
0.000120279
0.000126945
0.000134107
0.000147974
0.000162494
0.000175282
0.000182294
0.0001844
0.000183403
0.000179807
0.000174248
0.000169006
0.000164628
0.000161189
0.000158943
0.00015719
0.000155406
0.000155626
0.000156015
0.00014883
0.000135816
0.000115422
0.00121475
0.0010344
0.000757672
0.000439498
0.000350711
0.000343535
0.000212784
0.000173253
0.00014613
0.000116023
0.000108873
9.04366e-05
8.45829e-05
7.63933e-05
6.80207e-05
6.43542e-05
5.83293e-05
5.63674e-05
5.44468e-05
5.33104e-05
5.24231e-05
5.17098e-05
4.95602e-05
4.91544e-05
4.82742e-05
4.84024e-05
4.88759e-05
4.92617e-05
4.94728e-05
4.97969e-05
5.03207e-05
5.09738e-05
5.17561e-05
5.10359e-05
4.93522e-05
4.56926e-05
4.14188e-05
0.00125602
0.000978137
0.000831173
0.000395186
0.000302208
0.000332162
0.000346586
0.000339611
0.000287164
0.000242886
0.000231798
0.000215227
0.000210535
0.000208356
0.00018466
0.000178705
0.000152963
0.000138418
0.00012674
0.00011388
0.000106256
9.94538e-05
9.6703e-05
9.43655e-05
9.32498e-05
9.08995e-05
8.74926e-05
8.09686e-05
7.35873e-05
6.52936e-05
5.79688e-05
5.24362e-05
4.853e-05
4.68802e-05
4.54063e-05
4.49895e-05
4.56503e-05
4.61228e-05
0.000989487
0.000896134
0.000599642
0.000278146
0.000179744
0.000273318
0.000312943
0.000326607
0.000321249
0.000294506
0.000298388
0.000302516
0.000297237
0.000313831
0.00030401
0.00029975
0.000291105
0.000262046
0.00024972
0.000230417
0.000216907
0.000200842
0.000193912
0.000180097
0.00017446
0.000163212
0.000155153
0.000145232
0.00013384
0.000121724
0.000110384
0.000101447