/*--------------------------------*- C++ -*----------------------------------*\
| =========                 |                                                 |
| \\      /  F ield         | OpenFOAM: The Open Source CFD Toolbox           |
|  \\    /   O peration     | Version:  2.3.1                                 |
|   \\  /    A nd           | Web:      www.OpenFOAM.org                      |
|    \\/     M anipulation  |                                                 |
\*---------------------------------------------------------------------------*/
FoamFile
{
    version     2.0;
    format      ascii;
    class       volScalarField;
    location    "5";
    object      p;
}
// * * * * * * * * * * * * * * * * * * * * * * * * * * * * * * * * * * * * * //

dimensions      [0 2 -2 0 0 0 0];

internalField   nonuniform List<scalar> 
37632
(
0
-1.11693
-1.45472
-1.42519
-1.40637
-1.35466
-1.37326
-1.38231
-1.37046
-1.37201
-1.37583
-1.37865
-1.37914
-1.3798
-1.37933
-1.37965
-1.37973
-1.37984
-1.38047
-1.3823
-1.38264
-1.3828
-1.38278
-1.38242
-1.38215
-1.38213
-1.38218
-1.38197
-1.38168
-1.38143
-1.38082
-1.38009
-1.37968
-1.3796
-1.38018
-1.38097
-1.38096
-1.38029
-3.45014
-1.58641
-1.49733
-1.34609
-1.37624
-1.38487
-1.38746
-1.38698
-1.3791
-1.37836
-1.37823
-1.38008
-1.38045
-1.3811
-1.38065
-1.38074
-1.38101
-1.38144
-1.38213
-1.38324
-1.38379
-1.38378
-1.38331
-1.38275
-1.38246
-1.38233
-1.38233
-1.38208
-1.38176
-1.38148
-1.38097
-1.38038
-1.3801
-1.38018
-1.38062
-1.3809
-1.38042
-1.37928
-1.18132
-0.753114
-1.39917
-1.20344
-1.39164
-1.35794
-1.37926
-1.38143
-1.3814
-1.38199
-1.38157
-1.38273
-1.38227
-1.38436
-1.38485
-1.3823
-1.38183
-1.38231
-1.38276
-1.38316
-1.38335
-1.38325
-1.38302
-1.38267
-1.3824
-1.38218
-1.38199
-1.38176
-1.38148
-1.38119
-1.3808
-1.38041
-1.38015
-1.38005
-1.38003
-1.37988
-1.37937
-0.995722
-1.37047
-1.37809
-1.41619
-1.38266
-1.3965
-1.38198
-1.38331
-1.38294
-1.38272
-1.38172
-1.38227
-1.38222
-1.38251
-1.38392
-1.38406
-1.38352
-1.38357
-1.38347
-1.38356
-1.38336
-1.38315
-1.3828
-1.38247
-1.38219
-1.38194
-1.38172
-1.38148
-1.38122
-1.38096
-1.38067
-1.38039
-1.38018
-1.38005
-1.37996
-1.37983
-1.37952
-1.12118
-1.3183
-1.32582
-1.42404
-1.4804
-1.44466
-1.40536
-1.39311
-1.38925
-1.38815
-1.38888
-1.38792
-1.38812
-1.38696
-1.38593
-1.38513
-1.38438
-1.38397
-1.38371
-1.38345
-1.3832
-1.38286
-1.38253
-1.38221
-1.3819
-1.38165
-1.38141
-1.38118
-1.38095
-1.38073
-1.3805
-1.38029
-1.38012
-1.37998
-1.37986
-1.37966
-1.37934
-1.37891
-1.11809
-1.27113
-1.34397
-1.43118
-1.40793
-1.36475
-1.37171
-1.38334
-1.38366
-1.38777
-1.38528
-1.38392
-1.38483
-1.38479
-1.38568
-1.38556
-1.38535
-1.38469
-1.3842
-1.38368
-1.38319
-1.38277
-1.38233
-1.38198
-1.38164
-1.38137
-1.3811
-1.38088
-1.38066
-1.38045
-1.38024
-1.38004
-1.37986
-1.37968
-1.37949
-1.37926
-1.37896
-1.3786
-1.22926
-1.32154
-1.33734
-1.37743
-1.37209
-1.39999
-1.40741
-1.40156
-1.40138
-1.39357
-1.39632
-1.3999
-1.39378
-1.39263
-1.38993
-1.38807
-1.38638
-1.38517
-1.38423
-1.38359
-1.383
-1.38249
-1.38207
-1.38168
-1.38136
-1.38107
-1.38082
-1.3806
-1.38039
-1.38019
-1.37999
-1.3798
-1.3796
-1.3794
-1.37917
-1.3789
-1.37858
-1.26447
-1.31989
-1.34454
-1.4523
-1.45447
-1.38348
-1.38883
-1.38992
-1.38707
-1.39368
-1.39877
-1.38446
-1.38112
-1.38488
-1.38603
-1.38646
-1.38587
-1.38511
-1.38429
-1.38355
-1.38289
-1.38235
-1.38187
-1.38149
-1.38114
-1.38086
-1.38061
-1.38039
-1.38018
-1.37998
-1.37979
-1.3796
-1.3794
-1.37919
-1.37896
-1.3787
-1.37843
-1.25237
-1.34597
-1.43454
-1.49487
-1.43144
-1.42487
-1.42165
-1.41347
-1.40738
-1.40684
-1.393
-1.38833
-1.39757
-1.39766
-1.39713
-1.39138
-1.38767
-1.38565
-1.38412
-1.38332
-1.38263
-1.38212
-1.38165
-1.38128
-1.38094
-1.38066
-1.38042
-1.3802
-1.38
-1.37981
-1.37962
-1.37942
-1.37922
-1.379
-1.37876
-1.37849
-1.37822
-1.25997
-1.34742
-1.40161
-1.42242
-1.39799
-1.40113
-1.37485
-1.37885
-1.38408
-1.38949
-1.39596
-1.3957
-1.38677
-1.38805
-1.38928
-1.38672
-1.3854
-1.38397
-1.38338
-1.3828
-1.38233
-1.38189
-1.38148
-1.38112
-1.3808
-1.38053
-1.38029
-1.38008
-1.37988
-1.37969
-1.3795
-1.37931
-1.3791
-1.37889
-1.37866
-1.37841
-1.37816
-1.29991
-1.19092
-1.17941
-1.16729
-1.24126
-1.35199
-1.39801
-1.40024
-1.40433
-1.40841
-1.40383
-1.39168
-1.39235
-1.42237
-1.41679
-1.39312
-1.38575
-1.38352
-1.38254
-1.38232
-1.38197
-1.38168
-1.38132
-1.38101
-1.3807
-1.38044
-1.38021
-1.38
-1.3798
-1.37961
-1.37942
-1.37923
-1.37902
-1.3788
-1.37857
-1.37832
-1.37807
-1.25974
-0.676592
-0.576316
-0.597951
-1.00857
-1.22932
-1.28712
-1.32724
-1.36221
-1.37749
-1.38325
-1.39033
-1.4002
-1.40624
-1.394
-1.37927
-1.37761
-1.37905
-1.38059
-1.3813
-1.38159
-1.38146
-1.38123
-1.38094
-1.38065
-1.3804
-1.38017
-1.37996
-1.37977
-1.37958
-1.37939
-1.37919
-1.37899
-1.37877
-1.37854
-1.3783
-1.37805
-4.10122
-1.33145
-1.81681
-1.59249
-1.59797
-1.46846
-1.48566
-1.49407
-1.48122
-1.4844
-1.4869
-1.48913
-1.48962
-1.49004
-1.48951
-1.48982
-1.48981
-1.49011
-1.49083
-1.49239
-1.49308
-1.49316
-1.49301
-1.49269
-1.49244
-1.49243
-1.49248
-1.49227
-1.492
-1.49176
-1.49118
-1.49052
-1.49018
-1.49013
-1.49071
-1.49151
-1.49154
-1.49081
-2.41583
-2.55478
-1.60383
-1.61981
-1.52563
-1.50385
-1.49767
-1.4969
-1.48986
-1.49003
-1.49
-1.49096
-1.49153
-1.49191
-1.49136
-1.49151
-1.49147
-1.49197
-1.49271
-1.49368
-1.49429
-1.4942
-1.49372
-1.49323
-1.49297
-1.49287
-1.49283
-1.49256
-1.49221
-1.49187
-1.49134
-1.49076
-1.49048
-1.49061
-1.49112
-1.49158
-1.49127
-1.4902
-1.66235
-0.762963
-1.62199
-1.3564
-1.4756
-1.49167
-1.49024
-1.49288
-1.49182
-1.4932
-1.49305
-1.49354
-1.4937
-1.49527
-1.49548
-1.49303
-1.49251
-1.49278
-1.49327
-1.49358
-1.49387
-1.49369
-1.49343
-1.49311
-1.49283
-1.49262
-1.49243
-1.49218
-1.49189
-1.4916
-1.49121
-1.49083
-1.49061
-1.49058
-1.49069
-1.49069
-1.49024
-1.18727
-1.43586
-1.48697
-1.54735
-1.50202
-1.50774
-1.49026
-1.49449
-1.4933
-1.49303
-1.49278
-1.49267
-1.49305
-1.49354
-1.49417
-1.4944
-1.49404
-1.49397
-1.49395
-1.49392
-1.49377
-1.49355
-1.49316
-1.49287
-1.49256
-1.49233
-1.4921
-1.49186
-1.49161
-1.49135
-1.49106
-1.4908
-1.49061
-1.49049
-1.49043
-1.49033
-1.49004
-1.08857
-1.45807
-1.47489
-1.56118
-1.57246
-1.53458
-1.51423
-1.50394
-1.49963
-1.49903
-1.4989
-1.49829
-1.49826
-1.49746
-1.4966
-1.49552
-1.49492
-1.49442
-1.49415
-1.49388
-1.4936
-1.49326
-1.49294
-1.49258
-1.49228
-1.49201
-1.49177
-1.49154
-1.49131
-1.49109
-1.49086
-1.49066
-1.49049
-1.49035
-1.49022
-1.49003
-1.4897
-1.48927
-1.24752
-1.44968
-1.48811
-1.57231
-1.53985
-1.49605
-1.48682
-1.4958
-1.49718
-1.49819
-1.49751
-1.49532
-1.4956
-1.49549
-1.49614
-1.49623
-1.4957
-1.49531
-1.49462
-1.49413
-1.4936
-1.4932
-1.49271
-1.49239
-1.49201
-1.49175
-1.49147
-1.49124
-1.49102
-1.49081
-1.4906
-1.49041
-1.49022
-1.49004
-1.48984
-1.4896
-1.4893
-1.48894
-1.43454
-1.46678
-1.48357
-1.53594
-1.49274
-1.52265
-1.51538
-1.50843
-1.51046
-1.50202
-1.50728
-1.50707
-1.50372
-1.50282
-1.50032
-1.49856
-1.4967
-1.49563
-1.49466
-1.49403
-1.49341
-1.49291
-1.49246
-1.49207
-1.49174
-1.49145
-1.49119
-1.49096
-1.49075
-1.49055
-1.49036
-1.49016
-1.48997
-1.48976
-1.48953
-1.48925
-1.48893
-1.43783
-1.46743
-1.50822
-1.58846
-1.55307
-1.50637
-1.5036
-1.50327
-1.50055
-1.50672
-1.51286
-1.49925
-1.49447
-1.49575
-1.4969
-1.49698
-1.49645
-1.49561
-1.49477
-1.49399
-1.49333
-1.49276
-1.49228
-1.49188
-1.49153
-1.49124
-1.49098
-1.49076
-1.49055
-1.49035
-1.49016
-1.48997
-1.48977
-1.48955
-1.48932
-1.48907
-1.48879
-1.49402
-1.51802
-1.59007
-1.63925
-1.5659
-1.54202
-1.53349
-1.52427
-1.51881
-1.51679
-1.50663
-1.50248
-1.50656
-1.50784
-1.50749
-1.50185
-1.49823
-1.49611
-1.49459
-1.49376
-1.49306
-1.49252
-1.49205
-1.49166
-1.49132
-1.49104
-1.49079
-1.49057
-1.49037
-1.49017
-1.48998
-1.48979
-1.48958
-1.48936
-1.48912
-1.48885
-1.48858
-1.50707
-1.53606
-1.58056
-1.60878
-1.53162
-1.5032
-1.49775
-1.4998
-1.49986
-1.50147
-1.50866
-1.51027
-1.50057
-1.50053
-1.50021
-1.49775
-1.49603
-1.49455
-1.49385
-1.49324
-1.49276
-1.49228
-1.49187
-1.4915
-1.49118
-1.4909
-1.49066
-1.49044
-1.49025
-1.49006
-1.48987
-1.48967
-1.48947
-1.48925
-1.48902
-1.48878
-1.48852
-1.56429
-1.52817
-1.53013
-1.49081
-1.48192
-1.52923
-1.54492
-1.53029
-1.52782
-1.52634
-1.52125
-1.50589
-1.50346
-1.52885
-1.52851
-1.50568
-1.49637
-1.49401
-1.49297
-1.49275
-1.49238
-1.49207
-1.4917
-1.49138
-1.49107
-1.49081
-1.49057
-1.49036
-1.49016
-1.48998
-1.48979
-1.48959
-1.48938
-1.48916
-1.48893
-1.48868
-1.48843
-1.45255
-1.14439
-1.06671
-1.06285
-1.26302
-1.37946
-1.42147
-1.44967
-1.47615
-1.49016
-1.49925
-1.50286
-1.50824
-1.51513
-1.50471
-1.49065
-1.48724
-1.48903
-1.49085
-1.49174
-1.49198
-1.49187
-1.49159
-1.4913
-1.49101
-1.49076
-1.49053
-1.49032
-1.49013
-1.48994
-1.48975
-1.48955
-1.48935
-1.48913
-1.4889
-1.48866
-1.48841
-0.196167
-1.55703
-1.63622
-1.60798
-1.56349
-1.60873
-1.5949
-1.60336
-1.59264
-1.59646
-1.59764
-1.59964
-1.60003
-1.60035
-1.60006
-1.60025
-1.60029
-1.60065
-1.60144
-1.60287
-1.60361
-1.60362
-1.60341
-1.60311
-1.60291
-1.60289
-1.60289
-1.60267
-1.60237
-1.60208
-1.60158
-1.60104
-1.60078
-1.60084
-1.60142
-1.60216
-1.60223
-1.60129
-2.25706
-1.85258
-1.70469
-1.53482
-1.64203
-1.60718
-1.60507
-1.60394
-1.59952
-1.60004
-1.59973
-1.60103
-1.60148
-1.6019
-1.60197
-1.60202
-1.60206
-1.60248
-1.60331
-1.60427
-1.60481
-1.60467
-1.60415
-1.60368
-1.60344
-1.60334
-1.60326
-1.60297
-1.60258
-1.60223
-1.60174
-1.60121
-1.60099
-1.60119
-1.60169
-1.60209
-1.60195
-1.60068
-1.16235
-1.27226
-1.55027
-1.51782
-1.58069
-1.59807
-1.59813
-1.60332
-1.60185
-1.60347
-1.6033
-1.60381
-1.60404
-1.60441
-1.60441
-1.60331
-1.60312
-1.60334
-1.60381
-1.60412
-1.60435
-1.60419
-1.60389
-1.60354
-1.60326
-1.60304
-1.60284
-1.60256
-1.60226
-1.60195
-1.60159
-1.60123
-1.60106
-1.60111
-1.60129
-1.60134
-1.60088
-1.35539
-1.51334
-1.5576
-1.64523
-1.59813
-1.6059
-1.60303
-1.60359
-1.60344
-1.60324
-1.60306
-1.60324
-1.60336
-1.60403
-1.60463
-1.60467
-1.6045
-1.6044
-1.60441
-1.60439
-1.60421
-1.60397
-1.60358
-1.60327
-1.60296
-1.60272
-1.60248
-1.60223
-1.60197
-1.60171
-1.60144
-1.60119
-1.60102
-1.60092
-1.60086
-1.60073
-1.60041
-1.38998
-1.5366
-1.5545
-1.64734
-1.64829
-1.63337
-1.62144
-1.61323
-1.60971
-1.60904
-1.60877
-1.60844
-1.60815
-1.60715
-1.60692
-1.60572
-1.60541
-1.60482
-1.60463
-1.6043
-1.60405
-1.60365
-1.60333
-1.60295
-1.60265
-1.60237
-1.60212
-1.60188
-1.60165
-1.60143
-1.60121
-1.60101
-1.60085
-1.60071
-1.60056
-1.60033
-1.59998
-1.59951
-1.43409
-1.53287
-1.58513
-1.64048
-1.63251
-1.59177
-1.6003
-1.60464
-1.6052
-1.60793
-1.6066
-1.60564
-1.60589
-1.60604
-1.60653
-1.60664
-1.60618
-1.60573
-1.60509
-1.60458
-1.60403
-1.60362
-1.60311
-1.60278
-1.6024
-1.60212
-1.60184
-1.60161
-1.60138
-1.60117
-1.60097
-1.60078
-1.60059
-1.6004
-1.60019
-1.59994
-1.59962
-1.59925
-1.55443
-1.56132
-1.58238
-1.61801
-1.60509
-1.62387
-1.62511
-1.62029
-1.6193
-1.61456
-1.61598
-1.61516
-1.61322
-1.61263
-1.6107
-1.60904
-1.60725
-1.60614
-1.60515
-1.60449
-1.60385
-1.60333
-1.60287
-1.60246
-1.60212
-1.60182
-1.60156
-1.60133
-1.60112
-1.60091
-1.60072
-1.60053
-1.60033
-1.60012
-1.59988
-1.5996
-1.59927
-1.56019
-1.58101
-1.62598
-1.65795
-1.63449
-1.61742
-1.61323
-1.61283
-1.61034
-1.61399
-1.61452
-1.60794
-1.60652
-1.60669
-1.60757
-1.60757
-1.60702
-1.60616
-1.60527
-1.60447
-1.60377
-1.60319
-1.60268
-1.60227
-1.60191
-1.60162
-1.60136
-1.60113
-1.60092
-1.60072
-1.60053
-1.60033
-1.60013
-1.59992
-1.59968
-1.59942
-1.59914
-1.59279
-1.61582
-1.67035
-1.68292
-1.66038
-1.65277
-1.6422
-1.63367
-1.62842
-1.62412
-1.61613
-1.61432
-1.61593
-1.61772
-1.61771
-1.6128
-1.60893
-1.60669
-1.60513
-1.60424
-1.6035
-1.60294
-1.60244
-1.60204
-1.6017
-1.60141
-1.60116
-1.60093
-1.60073
-1.60054
-1.60035
-1.60015
-1.59995
-1.59972
-1.59948
-1.59921
-1.59893
-1.58375
-1.61174
-1.67122
-1.65736
-1.63816
-1.61527
-1.61007
-1.61026
-1.61132
-1.61244
-1.61462
-1.61306
-1.61134
-1.61201
-1.6112
-1.60877
-1.60666
-1.60511
-1.60434
-1.60372
-1.60318
-1.60269
-1.60225
-1.60187
-1.60154
-1.60126
-1.60102
-1.60081
-1.60061
-1.60042
-1.60023
-1.60003
-1.59983
-1.59961
-1.59938
-1.59913
-1.59887
-1.67168
-1.68803
-1.72684
-1.70045
-1.67597
-1.67933
-1.66832
-1.64654
-1.63851
-1.63461
-1.62838
-1.61724
-1.61363
-1.63315
-1.63905
-1.61962
-1.60718
-1.60446
-1.60342
-1.60317
-1.60279
-1.60246
-1.60207
-1.60173
-1.60142
-1.60116
-1.60092
-1.60072
-1.60052
-1.60033
-1.60014
-1.59995
-1.59974
-1.59952
-1.59929
-1.59904
-1.59878
-1.59421
-1.47862
-1.4294
-1.40137
-1.46842
-1.52105
-1.54793
-1.56791
-1.58797
-1.6013
-1.60927
-1.61142
-1.6159
-1.62458
-1.61694
-1.60283
-1.59783
-1.59868
-1.60098
-1.60211
-1.60232
-1.60225
-1.60194
-1.60166
-1.60136
-1.60111
-1.60088
-1.60067
-1.60048
-1.60029
-1.6001
-1.59991
-1.5997
-1.59948
-1.59925
-1.59901
-1.59876
-1.90593
-1.71619
-1.80712
-1.78014
-1.69591
-1.72881
-1.70148
-1.71162
-1.70406
-1.70789
-1.70853
-1.71016
-1.71055
-1.71079
-1.71063
-1.71076
-1.71084
-1.71124
-1.71214
-1.71344
-1.71417
-1.71414
-1.71386
-1.71357
-1.71341
-1.71337
-1.71333
-1.71308
-1.71273
-1.71242
-1.712
-1.71159
-1.71144
-1.71164
-1.71221
-1.71286
-1.71289
-1.7116
-2.03793
-1.84483
-1.80546
-1.79542
-1.75017
-1.71471
-1.71333
-1.71221
-1.70949
-1.71042
-1.71062
-1.71152
-1.71206
-1.7124
-1.71254
-1.71256
-1.71266
-1.71307
-1.71396
-1.71488
-1.71539
-1.71516
-1.7146
-1.71416
-1.71391
-1.71379
-1.71367
-1.71333
-1.71292
-1.71258
-1.71214
-1.71171
-1.71163
-1.71193
-1.71238
-1.71285
-1.71267
-1.71091
-1.84708
-1.46006
-1.68637
-1.64561
-1.69847
-1.71006
-1.70923
-1.71362
-1.71244
-1.71371
-1.71383
-1.71418
-1.71446
-1.71472
-1.71451
-1.71371
-1.71376
-1.7139
-1.7144
-1.71471
-1.71491
-1.7147
-1.71435
-1.71399
-1.7137
-1.71346
-1.71323
-1.71293
-1.71261
-1.71231
-1.71198
-1.7117
-1.71161
-1.71173
-1.71195
-1.712
-1.71144
-1.57476
-1.63863
-1.67865
-1.74508
-1.70455
-1.71885
-1.71371
-1.71368
-1.71369
-1.71357
-1.71363
-1.71375
-1.71395
-1.71453
-1.715
-1.7151
-1.71498
-1.71489
-1.71491
-1.71487
-1.71469
-1.7144
-1.71401
-1.71368
-1.71336
-1.7131
-1.71285
-1.71259
-1.71233
-1.71208
-1.71183
-1.71161
-1.71148
-1.7114
-1.71132
-1.71115
-1.71073
-1.52506
-1.64834
-1.6864
-1.73515
-1.74085
-1.73103
-1.72829
-1.72265
-1.72005
-1.71909
-1.7188
-1.71857
-1.71828
-1.71768
-1.71723
-1.71627
-1.71586
-1.71536
-1.7151
-1.71478
-1.71449
-1.71408
-1.71374
-1.71334
-1.71304
-1.71274
-1.71248
-1.71223
-1.712
-1.71178
-1.71158
-1.7114
-1.71124
-1.7111
-1.71092
-1.71065
-1.71024
-1.70974
-1.58267
-1.66752
-1.70183
-1.75501
-1.72969
-1.71103
-1.71498
-1.71647
-1.71725
-1.71803
-1.71747
-1.71625
-1.71634
-1.71652
-1.71694
-1.71704
-1.71666
-1.71618
-1.71556
-1.71502
-1.71447
-1.71402
-1.71352
-1.71316
-1.71278
-1.71249
-1.71221
-1.71197
-1.71175
-1.71154
-1.71134
-1.71116
-1.71098
-1.71078
-1.71056
-1.71028
-1.70994
-1.70956
-1.6634
-1.67614
-1.70517
-1.73179
-1.72294
-1.73435
-1.73333
-1.72991
-1.72859
-1.72456
-1.72482
-1.72379
-1.72299
-1.72247
-1.72114
-1.71952
-1.71783
-1.71665
-1.71567
-1.71495
-1.71429
-1.71374
-1.71326
-1.71285
-1.7125
-1.71219
-1.71193
-1.71169
-1.71148
-1.71128
-1.71109
-1.7109
-1.7107
-1.71048
-1.71023
-1.70993
-1.7096
-1.68105
-1.69932
-1.73659
-1.76234
-1.74373
-1.72848
-1.72584
-1.72378
-1.72191
-1.72362
-1.72495
-1.71854
-1.71784
-1.71762
-1.71831
-1.71822
-1.71766
-1.71675
-1.7158
-1.71495
-1.71421
-1.7136
-1.71307
-1.71265
-1.71228
-1.71198
-1.71172
-1.71149
-1.71128
-1.71108
-1.71089
-1.7107
-1.7105
-1.71028
-1.71004
-1.70977
-1.70948
-1.70893
-1.73117
-1.77016
-1.77777
-1.76761
-1.76122
-1.7527
-1.74341
-1.7386
-1.73323
-1.72711
-1.72499
-1.72542
-1.72749
-1.72797
-1.72382
-1.7198
-1.71737
-1.71573
-1.71474
-1.71395
-1.71335
-1.71283
-1.71241
-1.71206
-1.71177
-1.71151
-1.71129
-1.71109
-1.7109
-1.71071
-1.71051
-1.7103
-1.71008
-1.70983
-1.70956
-1.70928
-1.70911
-1.69764
-1.76117
-1.76655
-1.75008
-1.72964
-1.72786
-1.72446
-1.72342
-1.72304
-1.72516
-1.72341
-1.72182
-1.72338
-1.72224
-1.72017
-1.71762
-1.71581
-1.71492
-1.71423
-1.71363
-1.7131
-1.71262
-1.71223
-1.71189
-1.71161
-1.71137
-1.71115
-1.71096
-1.71077
-1.71058
-1.71039
-1.71018
-1.70996
-1.70973
-1.70948
-1.70922
-1.79909
-1.80705
-1.877
-1.86064
-1.83431
-1.81172
-1.78822
-1.76454
-1.7538
-1.7466
-1.73888
-1.72816
-1.7231
-1.73734
-1.74904
-1.73362
-1.71898
-1.71511
-1.71397
-1.71366
-1.71322
-1.71285
-1.71243
-1.71208
-1.71176
-1.7115
-1.71126
-1.71106
-1.71087
-1.71068
-1.71049
-1.7103
-1.71009
-1.70987
-1.70964
-1.70939
-1.70913
-1.68395
-1.67105
-1.65891
-1.61374
-1.63104
-1.65687
-1.67175
-1.68574
-1.70104
-1.71185
-1.71813
-1.72012
-1.7237
-1.73454
-1.73012
-1.71608
-1.70871
-1.70811
-1.71115
-1.71251
-1.71274
-1.71264
-1.7123
-1.71199
-1.71169
-1.71144
-1.71121
-1.71101
-1.71082
-1.71064
-1.71045
-1.71026
-1.71005
-1.70983
-1.7096
-1.70936
-1.70911
-1.32125
-1.77514
-1.91623
-1.8529
-1.85067
-1.83426
-1.80974
-1.81998
-1.8152
-1.81877
-1.81926
-1.82064
-1.82105
-1.82127
-1.82122
-1.82133
-1.82146
-1.82191
-1.82288
-1.82409
-1.82477
-1.82468
-1.82434
-1.82406
-1.82392
-1.82386
-1.82377
-1.82347
-1.82308
-1.82277
-1.82244
-1.82215
-1.82214
-1.82247
-1.82297
-1.82358
-1.82334
-1.82169
-1.9895
-1.85525
-1.85665
-1.8184
-1.86328
-1.82399
-1.82219
-1.82104
-1.81981
-1.82057
-1.82094
-1.82188
-1.82244
-1.82283
-1.82306
-1.82311
-1.82326
-1.8237
-1.82462
-1.82552
-1.82598
-1.82565
-1.82508
-1.82463
-1.82437
-1.82423
-1.82406
-1.82368
-1.82325
-1.82293
-1.82256
-1.82227
-1.82238
-1.82274
-1.8231
-1.82364
-1.82325
-1.82103
-1.52163
-1.66531
-1.71971
-1.7831
-1.7918
-1.82133
-1.81763
-1.82365
-1.82285
-1.8239
-1.82407
-1.8244
-1.82462
-1.82465
-1.82458
-1.82419
-1.82432
-1.8245
-1.825
-1.82532
-1.82547
-1.82521
-1.82483
-1.82444
-1.82413
-1.82387
-1.82361
-1.82328
-1.82296
-1.82268
-1.82241
-1.82222
-1.82226
-1.82245
-1.82266
-1.82266
-1.82192
-1.68575
-1.74218
-1.79626
-1.82924
-1.82183
-1.82315
-1.8246
-1.8235
-1.82402
-1.82386
-1.82403
-1.82421
-1.82446
-1.82501
-1.82543
-1.82553
-1.82548
-1.8254
-1.82545
-1.82537
-1.82519
-1.82485
-1.82445
-1.82409
-1.82376
-1.82348
-1.82321
-1.82294
-1.82268
-1.82245
-1.82224
-1.82209
-1.82201
-1.82194
-1.82183
-1.82159
-1.82103
-1.68511
-1.76433
-1.77265
-1.83389
-1.83302
-1.83651
-1.83498
-1.83206
-1.83018
-1.82921
-1.82885
-1.82864
-1.8284
-1.82792
-1.82757
-1.82672
-1.82635
-1.82587
-1.82559
-1.82526
-1.82494
-1.82451
-1.82414
-1.82374
-1.82342
-1.82311
-1.82284
-1.82259
-1.82236
-1.82215
-1.82196
-1.8218
-1.82167
-1.82152
-1.8213
-1.82098
-1.82051
-1.81996
-1.72056
-1.77126
-1.80441
-1.83147
-1.82801
-1.82257
-1.82613
-1.82721
-1.82767
-1.82811
-1.82763
-1.82675
-1.82675
-1.82696
-1.82736
-1.82746
-1.82716
-1.82666
-1.82604
-1.82547
-1.82491
-1.82441
-1.82392
-1.82353
-1.82315
-1.82285
-1.82257
-1.82233
-1.82211
-1.82191
-1.82172
-1.82155
-1.82137
-1.82117
-1.82093
-1.82063
-1.82026
-1.81985
-1.76889
-1.78919
-1.80955
-1.83134
-1.83332
-1.84155
-1.84219
-1.83991
-1.83805
-1.83495
-1.83407
-1.83303
-1.83269
-1.83241
-1.83154
-1.83005
-1.82844
-1.8272
-1.82619
-1.82542
-1.82474
-1.82415
-1.82365
-1.82322
-1.82286
-1.82255
-1.82228
-1.82204
-1.82183
-1.82163
-1.82145
-1.82126
-1.82107
-1.82085
-1.82059
-1.82027
-1.81992
-1.7923
-1.80765
-1.83405
-1.84846
-1.84639
-1.83848
-1.83647
-1.83421
-1.83222
-1.83208
-1.83111
-1.82879
-1.8286
-1.82857
-1.82903
-1.82894
-1.82836
-1.82737
-1.82636
-1.82544
-1.82464
-1.824
-1.82345
-1.82301
-1.82263
-1.82233
-1.82206
-1.82183
-1.82163
-1.82143
-1.82125
-1.82106
-1.82086
-1.82063
-1.82039
-1.82012
-1.81981
-1.81084
-1.83433
-1.86686
-1.87444
-1.87628
-1.86977
-1.86274
-1.85371
-1.84795
-1.84219
-1.83713
-1.83506
-1.83497
-1.83702
-1.83821
-1.8349
-1.83085
-1.82814
-1.82637
-1.82526
-1.82441
-1.82375
-1.8232
-1.82277
-1.8224
-1.82211
-1.82185
-1.82163
-1.82143
-1.82124
-1.82106
-1.82086
-1.82066
-1.82043
-1.82018
-1.81991
-1.81962
-1.83957
-1.7967
-1.84403
-1.85999
-1.8549
-1.84303
-1.84024
-1.83607
-1.83382
-1.83231
-1.83131
-1.83098
-1.83175
-1.83422
-1.83349
-1.83179
-1.82886
-1.82671
-1.82561
-1.82479
-1.82408
-1.82349
-1.82298
-1.82257
-1.82222
-1.82194
-1.8217
-1.82149
-1.8213
-1.82111
-1.82093
-1.82074
-1.82053
-1.82031
-1.82008
-1.81982
-1.81956
-1.92208
-1.91594
-1.98852
-1.99013
-1.96316
-1.93039
-1.90234
-1.8785
-1.86466
-1.85473
-1.84645
-1.83767
-1.83265
-1.84197
-1.85786
-1.8474
-1.8318
-1.82606
-1.82468
-1.82421
-1.82368
-1.82324
-1.82278
-1.82241
-1.82209
-1.82182
-1.82159
-1.82139
-1.8212
-1.82102
-1.82084
-1.82064
-1.82044
-1.82022
-1.81998
-1.81973
-1.81948
-1.75382
-1.77273
-1.79243
-1.7621
-1.77498
-1.78816
-1.79498
-1.80423
-1.81471
-1.82177
-1.82633
-1.82856
-1.8316
-1.84346
-1.84305
-1.83045
-1.81947
-1.81827
-1.82138
-1.82296
-1.8232
-1.82303
-1.82265
-1.82232
-1.82201
-1.82176
-1.82154
-1.82134
-1.82116
-1.82098
-1.82079
-1.8206
-1.8204
-1.82018
-1.81995
-1.8197
-1.81945
-1.81666
-1.86795
-1.93609
-1.98738
-1.94668
-1.93849
-1.91738
-1.92888
-1.92626
-1.92941
-1.92996
-1.93111
-1.93156
-1.93179
-1.93184
-1.93196
-1.93214
-1.93263
-1.93366
-1.93479
-1.93539
-1.93524
-1.93484
-1.93455
-1.93442
-1.93433
-1.93419
-1.93384
-1.93342
-1.93314
-1.93288
-1.93271
-1.93289
-1.93328
-1.93368
-1.93424
-1.93359
-1.93166
-1.98311
-1.93645
-1.96296
-1.99038
-1.97006
-1.93814
-1.93034
-1.93045
-1.93007
-1.93087
-1.93148
-1.93232
-1.93292
-1.93334
-1.9336
-1.93369
-1.9339
-1.93438
-1.93532
-1.93618
-1.93655
-1.93616
-1.93555
-1.93508
-1.93481
-1.93465
-1.93444
-1.934
-1.93358
-1.9333
-1.93299
-1.93286
-1.93318
-1.93352
-1.93381
-1.93434
-1.93351
-1.93114
-1.92648
-1.83641
-1.907
-1.90875
-1.92474
-1.93192
-1.92987
-1.93349
-1.93339
-1.93414
-1.93445
-1.93473
-1.93496
-1.93499
-1.93493
-1.93474
-1.93492
-1.93513
-1.93563
-1.93593
-1.93602
-1.93572
-1.93529
-1.93488
-1.93455
-1.93427
-1.93397
-1.93362
-1.9333
-1.93305
-1.93285
-1.93278
-1.93294
-1.93316
-1.93334
-1.93325
-1.93231
-1.85527
-1.89123
-1.91865
-1.9455
-1.93313
-1.93521
-1.93501
-1.93381
-1.93435
-1.93417
-1.93445
-1.93466
-1.93498
-1.9355
-1.9359
-1.93603
-1.93602
-1.93596
-1.936
-1.93591
-1.93569
-1.93532
-1.93489
-1.93449
-1.93415
-1.93385
-1.93356
-1.93328
-1.93303
-1.93283
-1.93267
-1.93259
-1.93257
-1.9325
-1.93235
-1.93203
-1.93136
-1.83562
-1.88592
-1.90726
-1.93736
-1.94185
-1.94327
-1.94326
-1.94154
-1.94022
-1.93934
-1.93895
-1.93877
-1.93859
-1.93826
-1.93794
-1.93723
-1.93685
-1.93641
-1.93611
-1.93575
-1.93539
-1.93495
-1.93455
-1.93413
-1.93379
-1.93348
-1.9332
-1.93294
-1.93271
-1.93252
-1.93236
-1.93223
-1.93211
-1.93195
-1.93171
-1.93133
-1.9308
-1.93021
-1.86798
-1.90078
-1.92145
-1.94149
-1.93202
-1.93581
-1.93748
-1.93815
-1.93833
-1.93831
-1.93789
-1.93717
-1.93718
-1.9374
-1.9378
-1.93792
-1.93769
-1.93717
-1.93654
-1.93593
-1.93534
-1.93482
-1.93431
-1.9339
-1.93352
-1.93321
-1.93292
-1.93268
-1.93246
-1.93227
-1.9321
-1.93194
-1.93177
-1.93156
-1.93131
-1.93098
-1.93057
-1.93014
-1.89794
-1.91013
-1.93011
-1.94378
-1.94617
-1.95133
-1.95153
-1.94981
-1.9477
-1.94496
-1.94368
-1.94265
-1.94249
-1.94243
-1.94192
-1.94061
-1.93907
-1.93777
-1.93673
-1.9359
-1.93518
-1.93456
-1.93403
-1.93359
-1.93321
-1.9329
-1.93263
-1.93239
-1.93218
-1.93199
-1.93181
-1.93163
-1.93144
-1.93121
-1.93094
-1.93061
-1.93024
-1.90953
-1.92072
-1.94153
-1.95348
-1.95369
-1.94913
-1.94796
-1.94506
-1.94294
-1.94211
-1.94169
-1.93909
-1.93921
-1.9394
-1.93977
-1.93972
-1.93912
-1.93805
-1.93695
-1.93594
-1.93508
-1.93439
-1.93382
-1.93336
-1.93298
-1.93267
-1.9324
-1.93217
-1.93197
-1.93178
-1.9316
-1.93141
-1.93121
-1.93099
-1.93073
-1.93045
-1.93014
-1.92359
-1.94107
-1.97168
-1.97941
-1.98302
-1.97798
-1.97238
-1.96363
-1.95712
-1.9512
-1.94686
-1.94475
-1.94456
-1.94662
-1.9484
-1.94611
-1.94204
-1.93902
-1.93707
-1.93581
-1.93486
-1.93415
-1.93356
-1.93311
-1.93274
-1.93244
-1.93219
-1.93197
-1.93177
-1.93159
-1.9314
-1.93121
-1.93101
-1.93078
-1.93052
-1.93025
-1.92996
-1.97211
-1.91986
-1.9423
-1.95778
-1.95998
-1.95559
-1.95294
-1.94789
-1.94456
-1.94229
-1.94173
-1.94026
-1.94143
-1.94465
-1.94496
-1.94358
-1.94043
-1.93785
-1.93639
-1.93539
-1.93456
-1.93389
-1.93333
-1.93289
-1.93254
-1.93226
-1.93202
-1.93182
-1.93163
-1.93145
-1.93127
-1.93108
-1.93087
-1.93065
-1.93042
-1.93016
-1.92989
-2.04123
-2.0342
-2.09028
-2.09885
-2.07235
-2.04148
-2.01545
-1.99127
-1.97432
-1.96242
-1.95372
-1.94634
-1.94212
-1.94868
-1.96556
-1.96099
-1.94532
-1.93754
-1.93561
-1.93483
-1.93417
-1.93363
-1.93312
-1.93273
-1.93239
-1.93213
-1.93191
-1.93172
-1.93153
-1.93135
-1.93117
-1.93098
-1.93078
-1.93056
-1.93032
-1.93007
-1.92981
-1.84095
-1.85779
-1.89391
-1.89166
-1.90881
-1.91457
-1.91774
-1.92269
-1.92792
-1.93117
-1.93419
-1.93676
-1.93998
-1.95117
-1.95558
-1.94572
-1.93194
-1.92967
-1.9317
-1.93357
-1.9337
-1.93343
-1.93298
-1.93262
-1.93231
-1.93206
-1.93185
-1.93166
-1.93148
-1.93131
-1.93113
-1.93094
-1.93074
-1.93052
-1.93028
-1.93004
-1.92979
-1.92027
-1.97172
-2.0581
-2.0795
-2.06942
-2.04387
-2.03109
-2.03846
-2.03737
-2.03995
-2.04063
-2.04162
-2.04209
-2.04237
-2.0425
-2.04263
-2.04286
-2.04341
-2.04446
-2.04551
-2.046
-2.04578
-2.04534
-2.04505
-2.04489
-2.04477
-2.04459
-2.04419
-2.04376
-2.04353
-2.04334
-2.04329
-2.04366
-2.04406
-2.04435
-2.04477
-2.04367
-2.04155
-2.04247
-2.03541
-2.05561
-2.08901
-2.08363
-2.04787
-2.04017
-2.04001
-2.04042
-2.04124
-2.04199
-2.04281
-2.04344
-2.04389
-2.04418
-2.04432
-2.04457
-2.04509
-2.04604
-2.04684
-2.04711
-2.04665
-2.046
-2.04552
-2.04522
-2.04504
-2.04478
-2.0443
-2.04391
-2.04368
-2.04343
-2.04351
-2.044
-2.04425
-2.04447
-2.04481
-2.0435
-2.04122
-1.95163
-1.97781
-1.99592
-2.0298
-2.0269
-2.04283
-2.04023
-2.04361
-2.04383
-2.04443
-2.0448
-2.04507
-2.0453
-2.04534
-2.04538
-2.04534
-2.04554
-2.04579
-2.04627
-2.04654
-2.04656
-2.04621
-2.04574
-2.0453
-2.04495
-2.04464
-2.04431
-2.04394
-2.04363
-2.04343
-2.0433
-2.04335
-2.0436
-2.04381
-2.04393
-2.04369
-2.04258
-1.9856
-2.01387
-2.03609
-2.05089
-2.04704
-2.04463
-2.04544
-2.0441
-2.04471
-2.04455
-2.04487
-2.04513
-2.04551
-2.04602
-2.04642
-2.04657
-2.04659
-2.04654
-2.04657
-2.04645
-2.0462
-2.04577
-2.04532
-2.04489
-2.04453
-2.04421
-2.0439
-2.04361
-2.04338
-2.04321
-2.04311
-2.0431
-2.04312
-2.04303
-2.04281
-2.04244
-2.04168
-1.96733
-2.0025
-2.01637
-2.04383
-2.04764
-2.05168
-2.05216
-2.05118
-2.05023
-2.04946
-2.04907
-2.04894
-2.04882
-2.04859
-2.04834
-2.04775
-2.04738
-2.04696
-2.04663
-2.04625
-2.04585
-2.04538
-2.04494
-2.04452
-2.04416
-2.04383
-2.04354
-2.04328
-2.04306
-2.04288
-2.04275
-2.04265
-2.04255
-2.04238
-2.0421
-2.04168
-2.04109
-2.04047
-1.99235
-2.01514
-2.03169
-2.04431
-2.04323
-2.04688
-2.04848
-2.04884
-2.04878
-2.04852
-2.04811
-2.04757
-2.04762
-2.04788
-2.04828
-2.04843
-2.04823
-2.0477
-2.04705
-2.0464
-2.04578
-2.04522
-2.04469
-2.04426
-2.04387
-2.04355
-2.04326
-2.04302
-2.04281
-2.04263
-2.04247
-2.04233
-2.04216
-2.04195
-2.04167
-2.04131
-2.04088
-2.04043
-2.01383
-2.02528
-2.04139
-2.05321
-2.05746
-2.06105
-2.06127
-2.05967
-2.05739
-2.05486
-2.0534
-2.05246
-2.05237
-2.05251
-2.0523
-2.05122
-2.04971
-2.04837
-2.04728
-2.04639
-2.04561
-2.04496
-2.0444
-2.04394
-2.04356
-2.04324
-2.04296
-2.04273
-2.04252
-2.04234
-2.04217
-2.04199
-2.0418
-2.04157
-2.04128
-2.04094
-2.04056
-2.02252
-2.03167
-2.04758
-2.05705
-2.06129
-2.05956
-2.05848
-2.05546
-2.05311
-2.05168
-2.05067
-2.04933
-2.04965
-2.05015
-2.05056
-2.05056
-2.04992
-2.04877
-2.04755
-2.04645
-2.04552
-2.04478
-2.04417
-2.0437
-2.04331
-2.04299
-2.04273
-2.0425
-2.0423
-2.04212
-2.04194
-2.04176
-2.04156
-2.04133
-2.04107
-2.04078
-2.04046
-2.04072
-2.0517
-2.07696
-2.08605
-2.08941
-2.08657
-2.08162
-2.07299
-2.06581
-2.06007
-2.05624
-2.0543
-2.05422
-2.05635
-2.05857
-2.05737
-2.05331
-2.05001
-2.0478
-2.04638
-2.04532
-2.04453
-2.04391
-2.04343
-2.04305
-2.04275
-2.04251
-2.04229
-2.0421
-2.04192
-2.04174
-2.04155
-2.04135
-2.04112
-2.04086
-2.04058
-2.04029
-2.09196
-2.05238
-2.05208
-2.06204
-2.06637
-2.06714
-2.0645
-2.05892
-2.05429
-2.05106
-2.04987
-2.04957
-2.05112
-2.0548
-2.05647
-2.05542
-2.05235
-2.04916
-2.04729
-2.04603
-2.04504
-2.04427
-2.04366
-2.0432
-2.04284
-2.04257
-2.04234
-2.04214
-2.04195
-2.04178
-2.0416
-2.04141
-2.04121
-2.04099
-2.04075
-2.04049
-2.04022
-2.14255
-2.15744
-2.18517
-2.18949
-2.17053
-2.1493
-2.1276
-2.10211
-2.08203
-2.0688
-2.06038
-2.05451
-2.0514
-2.05673
-2.07305
-2.07412
-2.05909
-2.0498
-2.04665
-2.04553
-2.04468
-2.04402
-2.04345
-2.04302
-2.04269
-2.04243
-2.04222
-2.04203
-2.04185
-2.04168
-2.0415
-2.04132
-2.04111
-2.04089
-2.04065
-2.0404
-2.04015
-1.94834
-1.95281
-1.99013
-2.01074
-2.03116
-2.03682
-2.03923
-2.03974
-2.03986
-2.03999
-2.04197
-2.04509
-2.04881
-2.05836
-2.06769
-2.06093
-2.04655
-2.04142
-2.04281
-2.04431
-2.04429
-2.04384
-2.0433
-2.0429
-2.04259
-2.04235
-2.04215
-2.04197
-2.0418
-2.04163
-2.04146
-2.04127
-2.04107
-2.04085
-2.04062
-2.04037
-2.04012
-2.05013
-2.09408
-2.16408
-2.20168
-2.17457
-2.151
-2.1418
-2.14824
-2.14841
-2.15049
-2.15129
-2.15216
-2.15267
-2.15299
-2.15319
-2.15336
-2.15363
-2.15423
-2.15529
-2.15624
-2.15661
-2.15631
-2.15583
-2.15553
-2.15534
-2.15519
-2.15496
-2.15451
-2.15411
-2.15393
-2.15378
-2.15389
-2.1544
-2.15477
-2.155
-2.15511
-2.15358
-2.15134
-2.15028
-2.15223
-2.1895
-2.21843
-2.1899
-2.15894
-2.14991
-2.15016
-2.15089
-2.15173
-2.15257
-2.15337
-2.15402
-2.1545
-2.15482
-2.15501
-2.15528
-2.15585
-2.15679
-2.1575
-2.15765
-2.15711
-2.15643
-2.15594
-2.15562
-2.15542
-2.15511
-2.1546
-2.15426
-2.15406
-2.15388
-2.15418
-2.15478
-2.15495
-2.15506
-2.15502
-2.15333
-2.1513
-2.10193
-2.11148
-2.12852
-2.14613
-2.15078
-2.1533
-2.15209
-2.15384
-2.15431
-2.15479
-2.15521
-2.15547
-2.15573
-2.15582
-2.15592
-2.15599
-2.15621
-2.15648
-2.15692
-2.15714
-2.15708
-2.15667
-2.15616
-2.1557
-2.15532
-2.15499
-2.15463
-2.15425
-2.15396
-2.1538
-2.15375
-2.15392
-2.15425
-2.15443
-2.15444
-2.15401
-2.1527
-2.11981
-2.14031
-2.15496
-2.16345
-2.15907
-2.15582
-2.15579
-2.15458
-2.15509
-2.15498
-2.15531
-2.15562
-2.15606
-2.15657
-2.15699
-2.15716
-2.15718
-2.15715
-2.15714
-2.15699
-2.15669
-2.15622
-2.15573
-2.15528
-2.15489