/*--------------------------------*- C++ -*----------------------------------*\
| =========                 |                                                 |
| \\      /  F ield         | OpenFOAM: The Open Source CFD Toolbox           |
|  \\    /   O peration     | Version:  2.3.1                                 |
|   \\  /    A nd           | Web:      www.OpenFOAM.org                      |
|    \\/     M anipulation  |                                                 |
\*---------------------------------------------------------------------------*/
FoamFile
{
    version     2.0;
    format      ascii;
    class       volScalarField;
    location    "5";
    object      p_rgh;
}
// * * * * * * * * * * * * * * * * * * * * * * * * * * * * * * * * * * * * * //

dimensions      [0 2 -2 0 0 0 0];

internalField   nonuniform List<scalar> 
37632
(
0.0551813
-1.06175
-1.39954
-1.37001
-1.35119
-1.29948
-1.31808
-1.32713
-1.31528
-1.31683
-1.32065
-1.32347
-1.32396
-1.32462
-1.32415
-1.32447
-1.32455
-1.32466
-1.32529
-1.32712
-1.32746
-1.32762
-1.32759
-1.32724
-1.32697
-1.32694
-1.327
-1.32679
-1.3265
-1.32625
-1.32564
-1.32491
-1.3245
-1.32442
-1.325
-1.32579
-1.32578
-1.32511
-3.39496
-1.53123
-1.44214
-1.29091
-1.32106
-1.32969
-1.33228
-1.3318
-1.32392
-1.32318
-1.32305
-1.32489
-1.32527
-1.32592
-1.32547
-1.32556
-1.32583
-1.32625
-1.32695
-1.32806
-1.32861
-1.3286
-1.32813
-1.32757
-1.32728
-1.32715
-1.32715
-1.3269
-1.32658
-1.3263
-1.32579
-1.3252
-1.32492
-1.325
-1.32544
-1.32572
-1.32524
-1.3241
-1.12614
-0.697932
-1.34399
-1.14826
-1.33646
-1.30275
-1.32408
-1.32625
-1.32622
-1.32681
-1.32639
-1.32755
-1.32709
-1.32918
-1.32966
-1.32712
-1.32665
-1.32713
-1.32758
-1.32797
-1.32817
-1.32806
-1.32783
-1.32748
-1.32722
-1.327
-1.32681
-1.32658
-1.3263
-1.32601
-1.32562
-1.32523
-1.32497
-1.32487
-1.32485
-1.32469
-1.32419
-0.940541
-1.31529
-1.32291
-1.36101
-1.32748
-1.34132
-1.3268
-1.32813
-1.32776
-1.32754
-1.32654
-1.32708
-1.32704
-1.32733
-1.32874
-1.32888
-1.32834
-1.32839
-1.32829
-1.32838
-1.32818
-1.32796
-1.32762
-1.32729
-1.32701
-1.32676
-1.32654
-1.32629
-1.32604
-1.32578
-1.32549
-1.32521
-1.325
-1.32486
-1.32478
-1.32465
-1.32434
-1.066
-1.26312
-1.27064
-1.36886
-1.42522
-1.38948
-1.35018
-1.33793
-1.33407
-1.33297
-1.33369
-1.33274
-1.33293
-1.33178
-1.33075
-1.32995
-1.32919
-1.32879
-1.32853
-1.32827
-1.32802
-1.32768
-1.32735
-1.32703
-1.32672
-1.32647
-1.32623
-1.326
-1.32577
-1.32555
-1.32532
-1.32511
-1.32494
-1.3248
-1.32467
-1.32448
-1.32415
-1.32372
-1.06291
-1.21594
-1.28879
-1.376
-1.35275
-1.30956
-1.31653
-1.32816
-1.32848
-1.33259
-1.3301
-1.32874
-1.32965
-1.32961
-1.3305
-1.33038
-1.33017
-1.32951
-1.32902
-1.3285
-1.32801
-1.32758
-1.32715
-1.32679
-1.32645
-1.32618
-1.32592
-1.3257
-1.32547
-1.32527
-1.32506
-1.32486
-1.32468
-1.3245
-1.32431
-1.32408
-1.32377
-1.32342
-1.17408
-1.26635
-1.28215
-1.32225
-1.31691
-1.34481
-1.35223
-1.34638
-1.3462
-1.33839
-1.34114
-1.34472
-1.3386
-1.33745
-1.33475
-1.33289
-1.3312
-1.32999
-1.32905
-1.32841
-1.32782
-1.32731
-1.32689
-1.3265
-1.32618
-1.32589
-1.32564
-1.32541
-1.3252
-1.325
-1.32481
-1.32462
-1.32442
-1.32422
-1.32399
-1.32372
-1.3234
-1.20929
-1.26471
-1.28936
-1.39712
-1.39929
-1.3283
-1.33365
-1.33474
-1.33189
-1.33849
-1.34359
-1.32928
-1.32594
-1.3297
-1.33085
-1.33128
-1.33069
-1.32993
-1.3291
-1.32837
-1.32771
-1.32717
-1.32669
-1.32631
-1.32596
-1.32568
-1.32543
-1.3252
-1.325
-1.3248
-1.32461
-1.32442
-1.32422
-1.324
-1.32377
-1.32352
-1.32325
-1.19719
-1.29079
-1.37936
-1.43969
-1.37626
-1.36969
-1.36647
-1.35829
-1.3522
-1.35166
-1.33782
-1.33315
-1.34239
-1.34248
-1.34195
-1.3362
-1.33249
-1.33047
-1.32894
-1.32814
-1.32745
-1.32694
-1.32647
-1.32609
-1.32576
-1.32548
-1.32524
-1.32502
-1.32482
-1.32462
-1.32443
-1.32424
-1.32404
-1.32382
-1.32358
-1.32331
-1.32304
-1.20479
-1.29224
-1.34642
-1.36724
-1.34281
-1.34595
-1.31967
-1.32367
-1.3289
-1.33431
-1.34078
-1.34052
-1.33159
-1.33287
-1.3341
-1.33153
-1.33022
-1.32879
-1.32819
-1.32762
-1.32715
-1.32671
-1.3263
-1.32594
-1.32562
-1.32535
-1.32511
-1.3249
-1.3247
-1.32451
-1.32432
-1.32412
-1.32392
-1.3237
-1.32347
-1.32323
-1.32298
-1.24473
-1.13574
-1.12423
-1.11211
-1.18608
-1.29681
-1.34283
-1.34506
-1.34915
-1.35323
-1.34865
-1.3365
-1.33716
-1.36719
-1.36161
-1.33794
-1.33057
-1.32834
-1.32736
-1.32714
-1.32679
-1.3265
-1.32614
-1.32583
-1.32552
-1.32526
-1.32503
-1.32482
-1.32462
-1.32443
-1.32424
-1.32404
-1.32384
-1.32362
-1.32339
-1.32314
-1.32289
-1.20456
-0.621411
-0.521135
-0.54277
-0.953391
-1.17414
-1.23194
-1.27206
-1.30703
-1.32231
-1.32807
-1.33515
-1.34501
-1.35105
-1.33882
-1.32408
-1.32243
-1.32387
-1.32541
-1.32612
-1.32641
-1.32627
-1.32604
-1.32576
-1.32547
-1.32522
-1.32499
-1.32478
-1.32459
-1.3244
-1.32421
-1.32401
-1.32381
-1.32359
-1.32336
-1.32312
-1.32287
-3.93567
-1.1659
-1.65127
-1.42695
-1.43243
-1.30291
-1.32011
-1.32853
-1.31568
-1.31885
-1.32135
-1.32358
-1.32408
-1.32449
-1.32396
-1.32428
-1.32427
-1.32457
-1.32529
-1.32685
-1.32754
-1.32761
-1.32747
-1.32714
-1.32689
-1.32688
-1.32693
-1.32673
-1.32645
-1.32621
-1.32564
-1.32498
-1.32464
-1.32459
-1.32516
-1.32596
-1.326
-1.32527
-2.25029
-2.38924
-1.43828
-1.45427
-1.36009
-1.33831
-1.33212
-1.33136
-1.32432
-1.32449
-1.32445
-1.32541
-1.32598
-1.32637
-1.32582
-1.32596
-1.32593
-1.32642
-1.32717
-1.32814
-1.32875
-1.32865
-1.32817
-1.32768
-1.32743
-1.32733
-1.32729
-1.32702
-1.32666
-1.32632
-1.3258
-1.32521
-1.32493
-1.32507
-1.32558
-1.32603
-1.32573
-1.32465
-1.4968
-0.597419
-1.45644
-1.19086
-1.31005
-1.32612
-1.32469
-1.32734
-1.32628
-1.32765
-1.32751
-1.32799
-1.32815
-1.32973
-1.32993
-1.32748
-1.32696
-1.32724
-1.32773
-1.32803
-1.32832
-1.32815
-1.32789
-1.32757
-1.32728
-1.32708
-1.32689
-1.32663
-1.32635
-1.32605
-1.32567
-1.32529
-1.32507
-1.32504
-1.32515
-1.32514
-1.3247
-1.02172
-1.27032
-1.32142
-1.38181
-1.33647
-1.34219
-1.32472
-1.32895
-1.32775
-1.32749
-1.32724
-1.32713
-1.32751
-1.328
-1.32862
-1.32886
-1.3285
-1.32843
-1.32841
-1.32837
-1.32823
-1.32801
-1.32762
-1.32733
-1.32702
-1.32679
-1.32656
-1.32632
-1.32606
-1.3258
-1.32552
-1.32525
-1.32506
-1.32495
-1.32489
-1.32478
-1.3245
-0.923025
-1.29253
-1.30935
-1.39564
-1.40692
-1.36904
-1.34869
-1.33839
-1.33408
-1.33349
-1.33336
-1.33274
-1.33271
-1.33192
-1.33106
-1.32998
-1.32937
-1.32888
-1.32861
-1.32833
-1.32806
-1.32772
-1.32739
-1.32703
-1.32674
-1.32647
-1.32623
-1.32599
-1.32577
-1.32554
-1.32532
-1.32512
-1.32494
-1.32481
-1.32468
-1.32449
-1.32416
-1.32373
-1.08198
-1.28414
-1.32257
-1.40677
-1.37431
-1.33051
-1.32128
-1.33025
-1.33163
-1.33265
-1.33197
-1.32977
-1.33006
-1.32995
-1.3306
-1.33068
-1.33016
-1.32976
-1.32908
-1.32859
-1.32806
-1.32766
-1.32717
-1.32685
-1.32647
-1.3262
-1.32593
-1.3257
-1.32548
-1.32527
-1.32506
-1.32486
-1.32468
-1.3245
-1.3243
-1.32406
-1.32375
-1.3234
-1.269
-1.30124
-1.31802
-1.3704
-1.32719
-1.35711
-1.34984
-1.34289
-1.34491
-1.33648
-1.34174
-1.34153
-1.33818
-1.33728
-1.33477
-1.33301
-1.33116
-1.33009
-1.32912
-1.32849
-1.32786
-1.32737
-1.32692
-1.32653
-1.3262
-1.3259
-1.32565
-1.32542
-1.32521
-1.32501
-1.32481
-1.32462
-1.32442
-1.32421
-1.32398
-1.32371
-1.32339
-1.27229
-1.30189
-1.34268
-1.42291
-1.38753
-1.34082
-1.33805
-1.33773
-1.335
-1.34117
-1.34732
-1.33371
-1.32893
-1.33021
-1.33136
-1.33143
-1.33091
-1.33007
-1.32923
-1.32845
-1.32778
-1.32721
-1.32673
-1.32634
-1.32599
-1.3257
-1.32544
-1.32522
-1.32501
-1.32481
-1.32462
-1.32442
-1.32422
-1.32401
-1.32378
-1.32352
-1.32324
-1.32848
-1.35248
-1.42453
-1.47371
-1.40036
-1.37648
-1.36794
-1.35873
-1.35327
-1.35125
-1.34109
-1.33693
-1.34102
-1.3423
-1.34195
-1.33631
-1.33269
-1.33057
-1.32905
-1.32821
-1.32751
-1.32698
-1.3265
-1.32612
-1.32578
-1.32549
-1.32525
-1.32503
-1.32482
-1.32463
-1.32444
-1.32424
-1.32404
-1.32382
-1.32358
-1.32331
-1.32303
-1.34153
-1.37052
-1.41502
-1.44323
-1.36608
-1.33765
-1.3322
-1.33426
-1.33432
-1.33593
-1.34312
-1.34473
-1.33503
-1.33498
-1.33467
-1.33221
-1.33048
-1.32901
-1.32831
-1.32769
-1.32722
-1.32674
-1.32633
-1.32595
-1.32563
-1.32536
-1.32512
-1.3249
-1.3247
-1.32451
-1.32432
-1.32413
-1.32392
-1.32371
-1.32347
-1.32323
-1.32297
-1.39875
-1.36263
-1.36458
-1.32527
-1.31637
-1.36369
-1.37938
-1.36475
-1.36228
-1.3608
-1.35571
-1.34035
-1.33791
-1.36331
-1.36296
-1.34014
-1.33082
-1.32846
-1.32743
-1.32721
-1.32684
-1.32652
-1.32616
-1.32583
-1.32552
-1.32526
-1.32503
-1.32482
-1.32462
-1.32443
-1.32424
-1.32405
-1.32384
-1.32362
-1.32339
-1.32314
-1.32289
-1.287
-0.978843
-0.901166
-0.897303
-1.09748
-1.21392
-1.25593
-1.28413
-1.31061
-1.32461
-1.33371
-1.33732
-1.3427
-1.34959
-1.33917
-1.32511
-1.32169
-1.32349
-1.32531
-1.3262
-1.32644
-1.32633
-1.32605
-1.32576
-1.32547
-1.32522
-1.32498
-1.32478
-1.32458
-1.32439
-1.3242
-1.32401
-1.3238
-1.32359
-1.32336
-1.32311
-1.32287
0.0797395
-1.28112
-1.36031
-1.33208
-1.28758
-1.33283
-1.31899
-1.32746
-1.31674
-1.32055
-1.32174
-1.32373
-1.32412
-1.32444
-1.32415
-1.32434
-1.32439
-1.32474
-1.32554
-1.32696
-1.3277
-1.32772
-1.3275
-1.3272
-1.327
-1.32698
-1.32699
-1.32677
-1.32647
-1.32618
-1.32567
-1.32514
-1.32488
-1.32493
-1.32552
-1.32625
-1.32632
-1.32538
-1.98116
-1.57667
-1.42879
-1.25891
-1.36613
-1.33127
-1.32916
-1.32803
-1.32362
-1.32414
-1.32383
-1.32513
-1.32557
-1.326
-1.32606
-1.32611
-1.32615
-1.32657
-1.3274
-1.32837
-1.32891
-1.32876
-1.32825
-1.32778
-1.32754
-1.32743
-1.32736
-1.32706
-1.32668
-1.32632
-1.32583
-1.3253
-1.32508
-1.32529
-1.32579
-1.32618
-1.32604
-1.32478
-0.886445
-0.996356
-1.27437
-1.24191
-1.30478
-1.32217
-1.32222
-1.32741
-1.32595
-1.32757
-1.32739
-1.3279
-1.32813
-1.32851
-1.3285
-1.3274
-1.32721
-1.32743
-1.3279
-1.32822
-1.32844
-1.32828
-1.32798
-1.32764
-1.32736
-1.32714
-1.32693
-1.32666
-1.32635
-1.32605
-1.32568
-1.32533
-1.32516
-1.3252
-1.32538
-1.32543
-1.32498
-1.07948
-1.23743
-1.2817
-1.36933
-1.32223
-1.32999
-1.32712
-1.32769
-1.32753
-1.32734
-1.32715
-1.32734
-1.32745
-1.32813
-1.32872
-1.32877
-1.32859
-1.3285
-1.32851
-1.32848
-1.32831
-1.32806
-1.32767
-1.32736
-1.32706
-1.32681
-1.32658
-1.32632
-1.32607
-1.32581
-1.32553
-1.32528
-1.32511
-1.32501
-1.32495
-1.32483
-1.3245
-1.11408
-1.26069
-1.27859
-1.37143
-1.37238
-1.35746
-1.34554
-1.33733
-1.3338
-1.33313
-1.33286
-1.33253
-1.33224
-1.33125
-1.33101
-1.32981
-1.3295
-1.32892
-1.32872
-1.32839
-1.32815
-1.32774
-1.32743
-1.32704
-1.32675
-1.32646
-1.32621
-1.32597
-1.32574
-1.32552
-1.3253
-1.32511
-1.32494
-1.3248
-1.32465
-1.32443
-1.32407
-1.32361
-1.15819
-1.25697
-1.30923
-1.36458
-1.35661
-1.31587
-1.3244
-1.32873
-1.32929
-1.33202
-1.33069
-1.32973
-1.32999
-1.33014
-1.33063
-1.33073
-1.33027
-1.32982
-1.32918
-1.32867
-1.32812
-1.32771
-1.32721
-1.32687
-1.32649
-1.32622
-1.32594
-1.3257
-1.32548
-1.32527
-1.32506
-1.32487
-1.32468
-1.3245
-1.32429
-1.32403
-1.32371
-1.32335
-1.27853
-1.28541
-1.30648
-1.34211
-1.32919
-1.34797
-1.3492
-1.34439
-1.34339
-1.33865
-1.34008
-1.33926
-1.33732
-1.33672
-1.3348
-1.33314
-1.33134
-1.33023
-1.32924
-1.32858
-1.32795
-1.32742
-1.32696
-1.32656
-1.32622
-1.32592
-1.32566
-1.32542
-1.32521
-1.32501
-1.32481
-1.32462
-1.32442
-1.32421
-1.32397
-1.32369
-1.32336
-1.28429
-1.30511
-1.35007
-1.38205
-1.35858
-1.34151
-1.33733
-1.33692
-1.33443
-1.33808
-1.33862
-1.33203
-1.33061
-1.33078
-1.33167
-1.33166
-1.33111
-1.33026
-1.32937
-1.32856
-1.32786
-1.32728
-1.32677
-1.32637
-1.32601
-1.32571
-1.32545
-1.32522
-1.32501
-1.32481
-1.32462
-1.32443
-1.32423
-1.32401
-1.32377
-1.32352
-1.32323
-1.31689
-1.33992
-1.39445
-1.40702
-1.38448
-1.37686
-1.3663
-1.35777
-1.35251
-1.34821
-1.34023
-1.33841
-1.34002
-1.34181
-1.34181
-1.3369
-1.33303
-1.33079
-1.32923
-1.32833
-1.32759
-1.32703
-1.32654
-1.32614
-1.32579
-1.3255
-1.32525
-1.32503
-1.32483
-1.32463
-1.32444
-1.32425
-1.32404
-1.32382
-1.32357
-1.3233
-1.32303
-1.30784
-1.33583
-1.39531
-1.38145
-1.36225
-1.33936
-1.33417
-1.33436
-1.33541
-1.33653
-1.33872
-1.33716
-1.33544
-1.33611
-1.33529
-1.33286
-1.33076
-1.3292
-1.32844
-1.32781
-1.32728
-1.32679
-1.32635
-1.32596
-1.32563
-1.32536
-1.32511
-1.3249
-1.3247
-1.32451
-1.32432
-1.32413
-1.32392
-1.3237
-1.32347
-1.32323
-1.32297
-1.39578
-1.41212
-1.45093
-1.42454
-1.40006
-1.40342
-1.39241
-1.37064
-1.36261
-1.35871
-1.35248
-1.34134
-1.33772
-1.35725
-1.36314
-1.34371
-1.33127
-1.32855
-1.32751
-1.32727
-1.32688
-1.32655
-1.32616
-1.32583
-1.32552
-1.32525
-1.32502
-1.32481
-1.32461
-1.32443
-1.32424
-1.32404
-1.32384
-1.32362
-1.32338
-1.32313
-1.32288
-1.31831
-1.20271
-1.15349
-1.12546
-1.19252
-1.24515
-1.27202
-1.292
-1.31206
-1.32539
-1.33336
-1.33551
-1.33999
-1.34868
-1.34103
-1.32693
-1.32192
-1.32277
-1.32508
-1.3262
-1.32642
-1.32634
-1.32604
-1.32575
-1.32545
-1.3252
-1.32497
-1.32477
-1.32457
-1.32439
-1.3242
-1.324
-1.3238
-1.32358
-1.32335
-1.32311
-1.32286
-1.51966
-1.32992
-1.42085
-1.39388
-1.30965
-1.34254
-1.31521
-1.32535
-1.31779
-1.32162
-1.32226
-1.3239
-1.32428
-1.32452
-1.32436
-1.32449
-1.32458
-1.32498
-1.32587
-1.32717
-1.32791
-1.32787
-1.32759
-1.3273
-1.32714
-1.3271
-1.32706
-1.32681
-1.32646
-1.32615
-1.32573
-1.32532
-1.32517
-1.32537
-1.32594
-1.3266
-1.32662
-1.32533
-1.65166
-1.45856
-1.41919
-1.40915
-1.3639
-1.32844
-1.32707
-1.32595
-1.32322
-1.32415
-1.32435
-1.32526
-1.32579
-1.32613
-1.32627
-1.32629
-1.32639
-1.3268
-1.32769
-1.32861
-1.32912
-1.32889
-1.32833
-1.32789
-1.32764
-1.32752
-1.3274
-1.32706
-1.32665
-1.32631
-1.32588
-1.32545
-1.32536
-1.32566
-1.32611
-1.32658
-1.32641
-1.32464
-1.46081
-1.07379
-1.3001
-1.25934
-1.3122
-1.32379
-1.32296
-1.32735
-1.32617
-1.32744
-1.32756
-1.32791
-1.32819
-1.32845
-1.32824
-1.32744
-1.32749
-1.32763
-1.32813
-1.32844
-1.32864
-1.32843
-1.32808
-1.32772
-1.32743
-1.3272
-1.32696
-1.32666
-1.32635
-1.32604
-1.32571
-1.32543
-1.32534
-1.32547
-1.32568
-1.32573
-1.32517
-1.18849
-1.25236
-1.29239
-1.35882
-1.31828
-1.33258
-1.32744
-1.32742
-1.32742
-1.3273
-1.32736
-1.32748
-1.32768
-1.32826
-1.32873
-1.32883
-1.32871
-1.32862
-1.32864
-1.3286
-1.32842
-1.32813
-1.32774
-1.32741
-1.32709
-1.32683
-1.32658
-1.32632
-1.32606
-1.32581
-1.32556
-1.32535
-1.32521
-1.32513
-1.32506
-1.32488
-1.32446
-1.13879
-1.26207
-1.30014
-1.34888
-1.35458
-1.34477
-1.34202
-1.33638
-1.33378
-1.33282
-1.33253
-1.3323
-1.33201
-1.33141
-1.33096
-1.33
-1.32959
-1.32909
-1.32883
-1.32851
-1.32822
-1.32781
-1.32747
-1.32707
-1.32677
-1.32647
-1.32621
-1.32596
-1.32573
-1.32552
-1.32531
-1.32513
-1.32498
-1.32483
-1.32465
-1.32438
-1.32397
-1.32347
-1.1964
-1.28125
-1.31556
-1.36874
-1.34342
-1.32476
-1.32871
-1.3302
-1.33098
-1.33176
-1.3312
-1.32998
-1.33007
-1.33025
-1.33067
-1.33077
-1.3304
-1.32992
-1.32929
-1.32876
-1.3282
-1.32775
-1.32725
-1.32689
-1.32651
-1.32622
-1.32594
-1.3257
-1.32548
-1.32527
-1.32508
-1.32489
-1.32471
-1.32452
-1.32429
-1.32401
-1.32367
-1.32329
-1.27713
-1.28987
-1.3189
-1.34552
-1.33667
-1.34808
-1.34706
-1.34364
-1.34232
-1.33829
-1.33856
-1.33752
-1.33672
-1.3362
-1.33487
-1.33325
-1.33156
-1.33038
-1.3294
-1.32868
-1.32803
-1.32748
-1.32699
-1.32658
-1.32623
-1.32592
-1.32566
-1.32542
-1.32521
-1.32501
-1.32482
-1.32463
-1.32443
-1.32421
-1.32396
-1.32367
-1.32333
-1.29478
-1.31305
-1.35032
-1.37607
-1.35746
-1.34221
-1.33957
-1.33751
-1.33564
-1.33735
-1.33868
-1.33227
-1.33157
-1.33135
-1.33204
-1.33196
-1.33139
-1.33048
-1.32953
-1.32868
-1.32794
-1.32733
-1.3268
-1.32638
-1.32601
-1.32571
-1.32545
-1.32522
-1.32501
-1.32481
-1.32462
-1.32443
-1.32423
-1.32401
-1.32377
-1.3235
-1.32321
-1.32266
-1.3449
-1.38389
-1.3915
-1.38134
-1.37495
-1.36644
-1.35715
-1.35233
-1.34696
-1.34084
-1.33872
-1.33916
-1.34122
-1.3417
-1.33755
-1.33353
-1.3311
-1.32946
-1.32847
-1.32768
-1.32708
-1.32656
-1.32614
-1.32579
-1.3255
-1.32524
-1.32502
-1.32482
-1.32463
-1.32444
-1.32424
-1.32404
-1.32381
-1.32356
-1.32329
-1.32301
-1.32284
-1.31137
-1.3749
-1.38029
-1.36381
-1.34337
-1.34159
-1.33819
-1.33715
-1.33677
-1.3389
-1.33715
-1.33555
-1.33711
-1.33597
-1.3339
-1.33135
-1.32954
-1.32865
-1.32797
-1.32736
-1.32683
-1.32635
-1.32596
-1.32562
-1.32534
-1.3251
-1.32489
-1.32469
-1.3245
-1.32431
-1.32412
-1.32391
-1.3237
-1.32346
-1.32321
-1.32295
-1.41282
-1.42078
-1.49073
-1.47437
-1.44804
-1.42545
-1.40195
-1.37827
-1.36753
-1.36033
-1.35262
-1.34189
-1.33683
-1.35107
-1.36278
-1.34735
-1.33271
-1.32884
-1.3277
-1.32739
-1.32695
-1.32658
-1.32616
-1.32581
-1.32549
-1.32523
-1.325
-1.32479
-1.3246
-1.32441
-1.32423
-1.32403
-1.32383
-1.32361
-1.32337
-1.32312
-1.32286
-1.29768
-1.28479
-1.27264
-1.22747
-1.24478
-1.2706
-1.28548
-1.29947
-1.31477
-1.32558
-1.33186
-1.33385
-1.33743
-1.34827
-1.34385
-1.32981
-1.32244
-1.32184
-1.32489
-1.32624
-1.32647
-1.32637
-1.32603
-1.32573
-1.32542
-1.32517
-1.32494
-1.32474
-1.32455
-1.32437
-1.32418
-1.32399
-1.32378
-1.32357
-1.32333
-1.32309
-1.32284
-0.824622
-1.2785
-1.4196
-1.35627
-1.35404
-1.33763
-1.31311
-1.32335
-1.31856
-1.32214
-1.32263
-1.32401
-1.32442
-1.32463
-1.32459
-1.3247
-1.32483
-1.32527
-1.32625
-1.32746
-1.32814
-1.32805
-1.32771
-1.32743
-1.32729
-1.32722
-1.32713
-1.32684
-1.32645
-1.32614
-1.3258
-1.32552
-1.32551
-1.32584
-1.32634
-1.32694
-1.32671
-1.32506
-1.49286
-1.35862
-1.36002
-1.32177
-1.36665
-1.32736
-1.32556
-1.32441
-1.32318
-1.32394
-1.32431
-1.32525
-1.32581
-1.3262
-1.32643
-1.32648
-1.32663
-1.32707
-1.32799
-1.32889
-1.32934
-1.32902
-1.32845
-1.32799
-1.32774
-1.3276
-1.32743
-1.32704
-1.32662
-1.3263
-1.32593
-1.32563
-1.32575
-1.3261
-1.32647
-1.32701
-1.32662
-1.3244
-1.025
-1.16868
-1.22308
-1.28647
-1.29517
-1.32469
-1.321
-1.32701
-1.32622
-1.32727
-1.32744
-1.32777
-1.32799
-1.32802
-1.32795
-1.32756
-1.32769
-1.32787
-1.32837
-1.32869
-1.32884
-1.32858
-1.3282
-1.32781
-1.3275
-1.32724
-1.32698
-1.32665
-1.32633
-1.32605
-1.32578
-1.32559
-1.32563
-1.32582
-1.32603
-1.32603
-1.32529
-1.18912
-1.24555
-1.29963
-1.33261
-1.3252
-1.32652
-1.32797
-1.32687
-1.32739
-1.32722
-1.3274
-1.32758
-1.32783
-1.32838
-1.3288
-1.3289
-1.32885
-1.32877
-1.32882
-1.32874
-1.32856
-1.32822
-1.32782
-1.32746
-1.32713
-1.32685
-1.32658
-1.32631
-1.32605
-1.32582
-1.32561
-1.32546
-1.32538
-1.32531
-1.3252
-1.32495
-1.3244
-1.18848
-1.26769
-1.27602
-1.33726
-1.33639
-1.33988
-1.33835
-1.33543
-1.33355
-1.33258
-1.33222
-1.33201
-1.33177
-1.33129
-1.33094
-1.33009
-1.32972
-1.32924
-1.32896
-1.32863
-1.32831
-1.32788
-1.32751
-1.32711
-1.32679
-1.32648
-1.32621
-1.32596
-1.32572
-1.32552
-1.32533
-1.32517
-1.32504
-1.32488
-1.32467
-1.32435
-1.32387
-1.32333
-1.22393
-1.27463
-1.30778
-1.33484
-1.33138
-1.32594
-1.32949
-1.33058
-1.33104
-1.33148
-1.331
-1.33012
-1.33012
-1.33033
-1.33073
-1.33083
-1.33053
-1.33003
-1.32941
-1.32884
-1.32827
-1.32778
-1.32728
-1.3269
-1.32652
-1.32622
-1.32594
-1.3257
-1.32548
-1.32528
-1.32509
-1.32492
-1.32474
-1.32454
-1.3243
-1.324
-1.32363
-1.32322
-1.27226
-1.29256
-1.31292
-1.33471
-1.33668
-1.34491
-1.34555
-1.34328
-1.34142
-1.33831
-1.33743
-1.3364
-1.33606
-1.33578
-1.3349
-1.33341
-1.33181
-1.33057
-1.32956
-1.32879
-1.3281
-1.32752
-1.32702
-1.32659
-1.32623
-1.32592
-1.32565
-1.32541
-1.3252
-1.325
-1.32482
-1.32463
-1.32444
-1.32422
-1.32395
-1.32364
-1.32329
-1.29567
-1.31102
-1.33742
-1.35183
-1.34976
-1.34185
-1.33984
-1.33758
-1.33558
-1.33545
-1.33448
-1.33216
-1.33197
-1.33194
-1.3324
-1.33231
-1.33173
-1.33074
-1.32973
-1.32881
-1.32801
-1.32737
-1.32682
-1.32638
-1.326
-1.3257
-1.32543
-1.3252
-1.325
-1.3248
-1.32462
-1.32443
-1.32422
-1.324
-1.32376
-1.32348
-1.32318
-1.31421
-1.3377
-1.37023
-1.3778
-1.37965
-1.37314
-1.3661
-1.35708
-1.35131
-1.34556
-1.3405
-1.33843
-1.33834
-1.34039
-1.34158
-1.33827
-1.33422
-1.33151
-1.32974
-1.32863
-1.32777
-1.32712
-1.32657
-1.32613
-1.32577
-1.32548
-1.32522
-1.325
-1.3248
-1.32461
-1.32443
-1.32423
-1.32403
-1.3238
-1.32355
-1.32328
-1.32299
-1.34294
-1.30007
-1.3474
-1.36336
-1.35827
-1.3464
-1.34361
-1.33943
-1.33719
-1.33568
-1.33468
-1.33435
-1.33512
-1.33759
-1.33686
-1.33516
-1.33223
-1.33008
-1.32898
-1.32816
-1.32745
-1.32686
-1.32635
-1.32594
-1.32559
-1.32531
-1.32507
-1.32486
-1.32467
-1.32448
-1.3243
-1.3241
-1.3239
-1.32368
-1.32345
-1.32319
-1.32293
-1.42545
-1.41931
-1.49188
-1.4935
-1.46653
-1.43376
-1.40571
-1.38187
-1.36803
-1.3581
-1.34982
-1.34104
-1.33602
-1.34534
-1.36122
-1.35077
-1.33517
-1.32943
-1.32805
-1.32758
-1.32705
-1.32661
-1.32615
-1.32578
-1.32545
-1.32519
-1.32496
-1.32476
-1.32457
-1.32439
-1.32421
-1.32401
-1.32381
-1.32359
-1.32335
-1.3231
-1.32285
-1.25719
-1.27609
-1.2958
-1.26547
-1.27835
-1.29153
-1.29835
-1.3076
-1.31808
-1.32514
-1.3297
-1.33193
-1.33497
-1.34683
-1.34642
-1.33382
-1.32284
-1.32164
-1.32475
-1.32633
-1.32657
-1.3264
-1.32602
-1.32569
-1.32538
-1.32513
-1.32491
-1.32471
-1.32453
-1.32435
-1.32416
-1.32397
-1.32377
-1.32355
-1.32332
-1.32307
-1.32282
-1.20967
-1.26096
-1.3291
-1.38039
-1.33969
-1.3315
-1.31039
-1.32189
-1.31927
-1.32242
-1.32296
-1.32412
-1.32457
-1.3248
-1.32485
-1.32496
-1.32514
-1.32564
-1.32667
-1.32779
-1.3284
-1.32824
-1.32785
-1.32756
-1.32742
-1.32733
-1.3272
-1.32685
-1.32642
-1.32615
-1.32589
-1.32572
-1.3259
-1.32629
-1.32669
-1.32725
-1.3266
-1.32467
-1.37611
-1.32945
-1.35596
-1.38339
-1.36307
-1.33114
-1.32335
-1.32345
-1.32308
-1.32387
-1.32448
-1.32533
-1.32592
-1.32635
-1.32661
-1.3267
-1.3269
-1.32738
-1.32832
-1.32919
-1.32956
-1.32917
-1.32856
-1.32809
-1.32781
-1.32765
-1.32744
-1.327
-1.32658
-1.32631
-1.326
-1.32587
-1.32619
-1.32652
-1.32681
-1.32735
-1.32652
-1.32414
-1.31948
-1.22942
-1.3
-1.30176
-1.31775
-1.32493
-1.32288
-1.32649
-1.3264
-1.32715
-1.32745
-1.32774
-1.32797
-1.328
-1.32794
-1.32774
-1.32792
-1.32814
-1.32863
-1.32894
-1.32903
-1.32873
-1.3283
-1.32789
-1.32755
-1.32727
-1.32698
-1.32663
-1.3263
-1.32606
-1.32586
-1.32579
-1.32594
-1.32617
-1.32635
-1.32626
-1.32532
-1.24828
-1.28424
-1.31165
-1.3385
-1.32614
-1.32822
-1.32802
-1.32682
-1.32735
-1.32718
-1.32746
-1.32767
-1.32799
-1.3285
-1.3289
-1.32904
-1.32902
-1.32897
-1.329
-1.32892
-1.3287
-1.32832
-1.32789
-1.3275
-1.32715
-1.32685
-1.32657
-1.32629
-1.32604
-1.32583
-1.32568
-1.3256
-1.32557
-1.32551
-1.32535
-1.32504
-1.32437
-1.22863
-1.27893
-1.30027
-1.33036
-1.33486
-1.33627
-1.33627
-1.33454
-1.33323
-1.33235
-1.33195
-1.33178
-1.3316
-1.33126
-1.33094
-1.33024
-1.32986
-1.32942
-1.32911
-1.32876
-1.3284
-1.32796
-1.32755
-1.32714
-1.3268
-1.32648
-1.3262
-1.32594
-1.32572
-1.32552
-1.32536
-1.32523
-1.32512
-1.32496
-1.32472
-1.32434
-1.3238
-1.32322
-1.26099
-1.29378
-1.31446
-1.3345
-1.32503
-1.32882
-1.33049
-1.33115
-1.33133
-1.33132
-1.3309
-1.33018
-1.33018
-1.33041
-1.33081
-1.33093
-1.33069
-1.33018
-1.32955
-1.32894
-1.32835
-1.32782
-1.32732
-1.3269
-1.32652
-1.32621
-1.32593
-1.32569
-1.32547
-1.32528
-1.32511
-1.32495
-1.32477
-1.32457
-1.32431
-1.32399
-1.32358
-1.32315
-1.29095
-1.30314
-1.32312
-1.33679
-1.33918
-1.34433
-1.34454
-1.34282
-1.3407
-1.33797
-1.33668
-1.33566
-1.33549
-1.33543
-1.33492
-1.33362
-1.33207
-1.33078
-1.32974
-1.32891
-1.32818
-1.32757
-1.32704
-1.32659
-1.32622
-1.3259
-1.32563
-1.3254
-1.32519
-1.32499
-1.32482
-1.32464
-1.32444
-1.32422
-1.32394
-1.32361
-1.32325
-1.30254
-1.31372
-1.33454
-1.34648
-1.3467
-1.34214
-1.34097
-1.33807
-1.33595
-1.33512
-1.33469
-1.3321
-1.33221
-1.3324
-1.33278
-1.33272
-1.33212
-1.33106
-1.32995
-1.32895
-1.32809
-1.3274
-1.32682
-1.32636
-1.32598
-1.32567
-1.32541
-1.32518
-1.32498
-1.32479
-1.3246
-1.32442
-1.32422
-1.32399
-1.32374
-1.32346
-1.32314
-1.31659
-1.33407
-1.36469
-1.37242
-1.37603
-1.37099
-1.36538
-1.35664
-1.35012
-1.34421
-1.33986
-1.33775
-1.33757
-1.33963
-1.3414
-1.33912
-1.33504
-1.33203
-1.33008
-1.32882
-1.32787
-1.32715
-1.32657
-1.32611
-1.32574
-1.32544
-1.32519
-1.32497
-1.32478
-1.32459
-1.32441
-1.32422
-1.32401
-1.32378
-1.32353
-1.32325
-1.32296
-1.36512
-1.31287
-1.33531
-1.35078
-1.35299
-1.34859
-1.34594
-1.34089
-1.33757
-1.33529
-1.33474
-1.33327
-1.33444
-1.33766
-1.33797
-1.33658
-1.33344
-1.33085
-1.3294
-1.3284
-1.32756
-1.32689
-1.32633
-1.3259
-1.32555
-1.32527
-1.32503
-1.32482
-1.32464
-1.32445
-1.32427
-1.32408
-1.32388
-1.32366
-1.32342
-1.32317
-1.3229
-1.43423
-1.4272
-1.48329
-1.49185
-1.46536
-1.43448
-1.40846
-1.38428
-1.36733
-1.35542
-1.34672
-1.33934
-1.33513
-1.34168
-1.35856
-1.354
-1.33832
-1.33055
-1.32861
-1.32783
-1.32718
-1.32664
-1.32613
-1.32573
-1.3254
-1.32514
-1.32492
-1.32472
-1.32454
-1.32436
-1.32418
-1.32399
-1.32379
-1.32357
-1.32333
-1.32308
-1.32282
-1.23396
-1.2508
-1.28692
-1.28466
-1.30182
-1.30758
-1.31075
-1.3157
-1.32092
-1.32417
-1.32719
-1.32976
-1.33299
-1.34417
-1.34858
-1.33872
-1.32495
-1.32268
-1.3247
-1.32657
-1.32671
-1.32644
-1.32599
-1.32563
-1.32532
-1.32507
-1.32486
-1.32467
-1.32449
-1.32432
-1.32413
-1.32394
-1.32374
-1.32352
-1.32329
-1.32305
-1.32279
-1.20291
-1.25437
-1.34074
-1.36215
-1.35207
-1.32651
-1.31373
-1.3211
-1.32001
-1.3226
-1.32327
-1.32426
-1.32474
-1.32501
-1.32514
-1.32528
-1.3255
-1.32605
-1.32711
-1.32815
-1.32865
-1.32843
-1.32798
-1.32769
-1.32753
-1.32742
-1.32724
-1.32683
-1.3264
-1.32618
-1.32598
-1.32593
-1.3263
-1.3267
-1.327
-1.32741
-1.32631
-1.3242
-1.32511
-1.31805
-1.33826
-1.37166
-1.36627
-1.33051
-1.32281
-1.32265
-1.32307
-1.32389
-1.32463
-1.32546
-1.32608
-1.32654
-1.32682
-1.32697
-1.32721
-1.32774
-1.32868
-1.32949
-1.32976
-1.32929
-1.32865
-1.32816
-1.32787
-1.32769
-1.32743
-1.32695
-1.32656
-1.32633
-1.32607
-1.32615
-1.32664
-1.3269
-1.32711
-1.32745
-1.32615
-1.32386
-1.23427
-1.26045
-1.27856
-1.31244
-1.30954
-1.32548
-1.32287
-1.32625
-1.32648
-1.32708
-1.32744
-1.32771
-1.32794
-1.32798
-1.32802
-1.32798
-1.32819
-1.32844
-1.32891
-1.32918
-1.32921
-1.32885
-1.32838
-1.32795
-1.32759
-1.32728
-1.32696
-1.32658
-1.32627
-1.32607
-1.32594
-1.32599
-1.32625
-1.32646
-1.32658
-1.32634
-1.32522
-1.26824
-1.29652
-1.31874
-1.33354
-1.32969
-1.32727
-1.32808
-1.32674
-1.32735
-1.32719
-1.32751
-1.32777
-1.32815
-1.32866
-1.32906
-1.32922
-1.32923
-1.32918
-1.32921
-1.32909
-1.32884
-1.32842
-1.32796
-1.32754
-1.32717
-1.32685
-1.32654
-1.32626
-1.32602
-1.32586
-1.32575
-1.32574
-1.32576
-1.32568
-1.32546
-1.32508
-1.32432
-1.24997
-1.28515
-1.29901
-1.32647
-1.33029
-1.33432
-1.3348
-1.33382
-1.33288
-1.3321
-1.33171
-1.33159
-1.33147
-1.33124
-1.33098
-1.33039
-1.33002
-1.3296
-1.32927
-1.32889
-1.32849
-1.32803
-1.32759
-1.32716
-1.3268
-1.32648
-1.32619
-1.32592
-1.3257
-1.32553
-1.32539
-1.32529
-1.3252
-1.32503
-1.32475
-1.32432
-1.32373
-1.32312
-1.27499
-1.29779
-1.31434
-1.32695
-1.32588
-1.32953
-1.33112
-1.33149
-1.33142
-1.33116
-1.33075
-1.33021
-1.33027
-1.33052
-1.33092
-1.33108
-1.33087
-1.33034
-1.32969
-1.32905
-1.32842
-1.32786
-1.32734
-1.3269
-1.32651
-1.32619
-1.32591
-1.32567
-1.32545
-1.32527
-1.32512
-1.32497
-1.3248
-1.32459
-1.32432
-1.32396
-1.32352
-1.32307
-1.29647
-1.30792
-1.32403
-1.33586
-1.34011
-1.34369
-1.34391
-1.34231
-1.34003
-1.33751
-1.33604
-1.33511
-1.33501
-1.33515
-1.33494
-1.33386
-1.33236
-1.33102
-1.32993
-1.32903
-1.32826
-1.3276
-1.32705
-1.32659
-1.3262
-1.32588
-1.32561
-1.32537
-1.32516
-1.32498
-1.32481
-1.32464
-1.32445
-1.32421
-1.32392
-1.32358
-1.32321
-1.30517
-1.31431
-1.33023
-1.33969
-1.34393
-1.34221
-1.34113
-1.3381
-1.33575
-1.33432
-1.33332
-1.33198
-1.33229
-1.33279
-1.33321
-1.3332
-1.33257
-1.33141
-1.3302
-1.3291
-1.32817
-1.32742
-1.32682
-1.32634
-1.32595
-1.32564
-1.32537
-1.32515
-1.32495
-1.32476
-1.32459
-1.3244
-1.3242
-1.32398
-1.32372
-1.32342
-1.3231
-1.32337
-1.33435
-1.3596
-1.3687
-1.37206
-1.36922
-1.36426
-1.35563
-1.34846
-1.34271
-1.33888
-1.33694
-1.33686
-1.339
-1.34122
-1.34002
-1.33595
-1.33266
-1.33045
-1.32902
-1.32797
-1.32718
-1.32655
-1.32608
-1.3257
-1.3254
-1.32515
-1.32494
-1.32474
-1.32456
-1.32438
-1.3242
-1.32399
-1.32376
-1.3235
-1.32322
-1.32293
-1.3746
-1.33503
-1.33472
-1.34469
-1.34902
-1.34978
-1.34714
-1.34157
-1.33693
-1.3337
-1.33251
-1.33222
-1.33376
-1.33744
-1.33911
-1.33806
-1.33499
-1.3318
-1.32994
-1.32868
-1.32769
-1.32691
-1.3263
-1.32585
-1.32549
-1.32521
-1.32498
-1.32478
-1.3246
-1.32442
-1.32424
-1.32406
-1.32385
-1.32363
-1.32339
-1.32314
-1.32286
-1.42519
-1.44009
-1.46781
-1.47214
-1.45317
-1.43194
-1.41025
-1.38475
-1.36468
-1.35145
-1.34303
-1.33716
-1.33404
-1.33938
-1.35569
-1.35677
-1.34173
-1.33244
-1.3293
-1.32818
-1.32733
-1.32666
-1.32609
-1.32566
-1.32533
-1.32507
-1.32486
-1.32467
-1.3245
-1.32432
-1.32415
-1.32396
-1.32376
-1.32354
-1.3233
-1.32305
-1.32279
-1.23098
-1.23545
-1.27278
-1.29338
-1.3138
-1.31946
-1.32187
-1.32238
-1.32251
-1.32263
-1.32461
-1.32773
-1.33145
-1.34101
-1.35034
-1.34357
-1.32919
-1.32406
-1.32545
-1.32695
-1.32693
-1.32649
-1.32595
-1.32555
-1.32523
-1.325
-1.3248
-1.32462
-1.32445
-1.32428
-1.3241
-1.32391
-1.32371
-1.32349
-1.32326
-1.32301
-1.32276
-1.22241
-1.26636
-1.33636
-1.37396
-1.34685
-1.32328
-1.31408
-1.32052
-1.3207
-1.32277
-1.32358
-1.32444
-1.32495
-1.32527
-1.32547
-1.32564
-1.32591
-1.32651
-1.32757
-1.32852
-1.32889
-1.32859
-1.32811
-1.32781
-1.32762
-1.32747
-1.32725
-1.32679
-1.32639
-1.32621
-1.32607
-1.32617
-1.32669
-1.32705
-1.32728
-1.3274
-1.32586
-1.32362
-1.32256
-1.32451
-1.36178
-1.39071
-1.36218
-1.33122
-1.32219
-1.32244
-1.32318
-1.32401
-1.32485
-1.32565
-1.3263
-1.32678
-1.3271
-1.32729
-1.32757
-1.32813
-1.32907
-1.32979
-1.32993
-1.32939
-1.32871
-1.32822
-1.3279
-1.3277
-1.32739
-1.32688
-1.32654
-1.32634
-1.32616
-1.32646
-1.32706
-1.32723
-1.32734
-1.3273
-1.32561
-1.32358
-1.27422
-1.28376
-1.3008
-1.31841
-1.32306
-1.32558
-1.32437
-1.32612
-1.32659
-1.32708
-1.32749
-1.32775
-1.32801
-1.3281
-1.3282
-1.32827
-1.32849
-1.32876
-1.3292
-1.32942
-1.32936
-1.32895
-1.32844
-1.32798
-1.3276
-1.32727
-1.32692
-1.32653
-1.32624
-1.32608
-1.32603
-1.3262
-1.32653
-1.32671
-1.32672
-1.32629
-1.32499
-1.29209
-1.31259
-1.32724
-1.33574
-1.33135
-1.3281
-1.32807
-1.32686
-1.32737
-1.32726
-1.32759
-1.3279
-1.32834
-1.32886
-1.32927
-1.32944
-1.32947
-1.32943
-1.32942
-1.32927
-1.32897
-1.3285
-1.32801
-1.32756
-1.32718
-1.32683
-1.32651
-1.32623