/*--------------------------------*- C++ -*----------------------------------*\
| =========                 |                                                 |
| \\      /  F ield         | OpenFOAM: The Open Source CFD Toolbox           |
|  \\    /   O peration     | Version:  2.3.1                                 |
|   \\  /    A nd           | Web:      www.OpenFOAM.org                      |
|    \\/     M anipulation  |                                                 |
\*---------------------------------------------------------------------------*/
FoamFile
{
    version     2.0;
    format      ascii;
    class       surfaceScalarField;
    location    "5";
    object      phi;
}
// * * * * * * * * * * * * * * * * * * * * * * * * * * * * * * * * * * * * * //

dimensions      [0 3 -1 0 0 0 0];

internalField   nonuniform List<scalar> 
108164
(
-0.00014774
-0.000503704
-0.000468235
-0.000200258
0.000358454
-0.000305937
-0.000104154
-0.000184061
8.79566e-05
8.51515e-05
3.10796e-05
-0.000220385
4.86941e-05
-7.31333e-05
0.000109591
7.1843e-05
-1.29019e-05
-1.0247e-05
7.68695e-05
-2.36291e-05
1.86026e-05
4.683e-05
-1.19233e-05
4.19628e-05
1.45891e-05
1.51218e-06
3.07287e-05
-1.16482e-06
-5.57909e-06
2.1333e-05
-2.25131e-06
-1.37172e-05
1.48037e-05
-2.0617e-06
-1.08734e-05
1.06837e-05
-1.01717e-07
-1.31671e-05
1.12071e-05
1.42095e-06
-1.05592e-05
9.03649e-06
4.8365e-06
-1.17558e-05
8.34027e-06
8.52158e-06
-1.0349e-05
6.66397e-06
1.22376e-05
-1.01006e-05
6.38449e-06
1.59676e-05
-9.0133e-06
5.28331e-06
2.01201e-05
-1.22445e-05
8.092e-06
2.60758e-05
-9.15752e-06
3.20176e-06
3.2769e-05
-8.18029e-06
1.48717e-06
3.8037e-05
-7.25613e-06
1.98805e-06
4.08315e-05
-5.44514e-06
2.65072e-06
4.19517e-05
-5.34723e-06
4.22697e-06
4.19935e-05
-5.19723e-06
5.15547e-06
4.35155e-05
-5.27613e-06
3.75409e-06
4.57634e-05
-4.87722e-06
2.62939e-06
4.69842e-05
-4.017e-06
2.79619e-06
4.94006e-05
-3.53812e-06
1.12169e-06
5.18317e-05
-2.92115e-06
4.90074e-07
5.08883e-05
-2.15511e-06
3.09849e-06
4.95659e-05
-2.59109e-06
3.91347e-06
4.96929e-05
-3.77518e-06
3.6482e-06
4.92226e-05
-5.13083e-06
5.60115e-06
4.94668e-05
-6.2254e-06
5.98121e-06
4.9754e-05
-5.83325e-06
5.54599e-06
4.67735e-05
-5.24139e-06
8.22186e-06
-4.91193e-06
8.79712e-06
-0.000180473
0.000615796
-0.000708642
-7.29621e-05
1.49138e-06
0.000249452
6.981e-05
6.77818e-05
-0.000394615
-3.30979e-05
8.06958e-05
5.32918e-05
-8.28096e-05
-3.76041e-05
1.41825e-05
-5.9282e-05
5.17108e-06
-4.16006e-05
-5.66206e-05
-2.27866e-05
-3.50393e-06
-2.57512e-05
-2.31918e-05
-1.96008e-05
-3.13516e-05
-1.56863e-06
8.68117e-06
-2.3622e-05
-1.27462e-05
-5.62475e-07
-2.05674e-05
-1.57039e-05
-1.06791e-06
-2.1778e-05
-1.27488e-05
3.08604e-06
-2.11603e-05
-1.65343e-05
2.74951e-06
-2.42114e-05
-1.47896e-05
7.28155e-06
-2.74722e-05
-1.68716e-05
8.37657e-06
-2.86025e-05
-1.30313e-05
3.81252e-06
-2.76785e-05
-1.36487e-05
2.62418e-06
-2.6287e-05
-1.05833e-05
1.78469e-07
-2.25775e-05
-1.62895e-05
3.35445e-07
-2.05805e-05
-1.0968e-05
-1.86455e-07
-1.84419e-05
-1.02993e-05
-1.94996e-08
-1.40664e-05
-1.11713e-05
-4.60287e-07
-1.02147e-05
-8.25726e-06
-1.03959e-06
-7.04618e-06
-7.82138e-06
-6.94367e-07
-3.76914e-06
-7.13236e-06
-1.34191e-06
-8.52127e-07
-6.3702e-06
-1.82294e-06
2.13535e-06
-5.59248e-06
-2.27221e-06
5.00067e-06
-4.65528e-06
-2.22703e-06
7.22438e-06
-3.90371e-06
-1.85812e-06
8.3287e-06
-3.14803e-06
-8.77434e-07
8.00914e-06
-2.54609e-06
7.10541e-07
6.16951e-06
-2.86552e-06
2.11406e-06
3.80656e-06
-4.18892e-06
2.77669e-06
2.10891e-06
-5.87477e-06
2.4416e-06
1.648e-06
-6.94162e-06
1.17713e-06
2.9396e-06
-6.15129e-06
-9.73565e-07
6.22392e-06
-3.8296e-06
-4.69611e-06
-8.31444e-06
4.22157e-05
0.000670016
0.000170084
5.26424e-05
0.000201742
-0.000210677
9.15787e-06
7.5036e-05
3.62303e-05
1.18142e-06
0.000183046
-9.43735e-05
-3.24782e-05
-1.96037e-05
1.56592e-05
-2.33248e-05
5.77757e-06
-9.75981e-06
-2.45043e-05
-9.57668e-06
-1.20305e-05
-2.39993e-05
-1.74228e-06
-2.19546e-05
-1.32252e-05
2.2479e-06
-1.45906e-05
-1.27672e-05
2.16682e-06
-1.5371e-05
-8.46227e-06
-3.15306e-06
-1.68558e-05
-3.93715e-06
-4.77174e-06
-1.25022e-05
-9.83685e-08
-5.8316e-06
-1.45415e-05
1.0737e-05
-1.06051e-05
-1.50199e-05
6.50426e-06
-1.14475e-05
-1.19141e-06
-6.14378e-06
-8.25811e-06
7.87489e-06
-1.35782e-05
-9.8981e-06
3.68386e-06
-1.47531e-05
-8.64531e-06
-7.6311e-07
-1.67309e-05
-1.16833e-05
-2.62835e-06
-1.76393e-05
-1.13978e-05
1.33817e-06
-1.57785e-05
-8.96112e-06
-3.19904e-06
-1.49776e-05
-9.81644e-06
-2.15583e-06
-1.31312e-05
-7.7393e-06
-2.36431e-06
-1.07564e-05
-7.1818e-06
-3.01446e-06
-8.68902e-06
-6.34603e-06
-2.85367e-06
-6.45563e-06
-5.56917e-06
-3.03442e-06
-4.41081e-06
-4.74506e-06
-2.89225e-06
-2.40217e-06
-3.92871e-06
-2.73522e-06
-5.6944e-07
-3.22648e-06
-2.50995e-06
1.07712e-06
-2.50323e-06
-2.29136e-06
2.60993e-06
-1.78961e-06
-2.28929e-06
3.96182e-06
-1.34268e-06
-2.87473e-06
4.85351e-06
-1.16028e-06
-3.92033e-06
5.09222e-06
-1.06146e-06
-5.05202e-06
5.00209e-06
-6.02731e-07
-6.24877e-06
5.81204e-06
8.84821e-07
-7.84605e-06
3.23187e-06
-9.55166e-06
0.000139689
0.000561739
0.000120722
7.15486e-05
0.000379779
-0.000109896
2.61922e-05
0.000181
-6.0608e-05
-8.45099e-06
0.000248701
-3.10121e-05
-4.34881e-05
3.91254e-05
-2.3692e-05
-5.12047e-05
-2.42577e-06
1.59199e-05
-4.42182e-05
-1.46387e-05
-1.92448e-06
-3.68611e-05
3.09855e-06
-1.2198e-05
-4.10186e-05
1.46143e-05
-8.20888e-06
-4.09637e-05
2.37452e-06
-2.62617e-07
-3.59851e-05
-4.36648e-06
-3.76512e-06
-3.64906e-05
4.41374e-06
-8.67997e-06
-3.60823e-05
-9.10371e-06
2.86377e-06
-3.22764e-05
-2.69337e-06
-1.17177e-05
-3.07832e-05
-7.62731e-06
-5.31338e-06
-2.61052e-05
-7.87219e-06
-5.0639e-06
-2.41169e-05
-7.61064e-06
-4.27574e-06
-2.45349e-05
-8.64727e-06
4.19942e-07
-2.15242e-05
-9.47728e-06
-5.21676e-06
-2.12676e-05
-9.97527e-06
-1.67906e-06
-2.02499e-05
-8.643e-06
-1.33581e-06
-1.82198e-05
-8.3049e-06
-3.54162e-06
-1.75437e-05
-7.71806e-06
-6.9733e-07
-1.51831e-05
-6.52973e-06
-3.01272e-06
-1.38083e-05
-6.0061e-06
-1.71473e-06
-1.18211e-05
-5.07568e-06
-2.4807e-06
-9.90226e-06
-4.30913e-06
-2.35474e-06
-7.84333e-06
-3.43674e-06
-2.5509e-06
-5.82275e-06
-2.64034e-06
-2.60673e-06
-3.79279e-06
-1.8746e-06
-2.65858e-06
-1.67277e-06
-1.1542e-06
-2.75544e-06
4.33602e-07
-5.61367e-07
-2.88768e-06
2.40719e-06
-1.1595e-07
-3.01792e-06
4.22668e-06
3.68182e-07
-3.24913e-06
6.06713e-06
1.15774e-06
-3.60093e-06
8.35915e-06
2.4075e-06
-3.8147e-06
3.87724e-06
-3.62741e-06
0.000216765
0.000427334
-1.59754e-05
0.00015922
0.000482641
-4.53168e-05
0.000108022
0.000286468
-5.42699e-05
4.48038e-05
0.000290903
2.10158e-05
-1.9739e-05
0.000127969
-2.43005e-05
-4.17644e-05
1.74412e-07
1.94252e-05
-3.65245e-05
-2.43311e-05
4.45254e-06
-3.64272e-05
1.57296e-05
-1.27283e-05
-2.6538e-05
-3.43918e-06
8.16428e-06
-1.52929e-05
1.00469e-05
-1.89174e-05
-2.25081e-05
1.80784e-06
1.04087e-06
-1.77812e-05
2.0369e-06
-2.35004e-06
-1.41962e-05
-5.21647e-06
-7.47216e-06
-1.83949e-05
-9.2019e-06
1.07072e-05
-1.58283e-05
-4.10488e-06
-6.08907e-06
-1.82875e-05
-1.4616e-05
9.20303e-06
-1.70214e-05
-3.6936e-06
-5.18319e-06
-1.73176e-05
-1.22108e-05
3.85979e-06
-1.75619e-05
-8.25165e-06
-9.81378e-07
-1.72396e-05
-9.55868e-06
-7.38819e-07
-1.71669e-05
-7.35634e-06
-1.35944e-06
-1.69374e-05
-9.42924e-06
8.94924e-07
-1.58471e-05
-6.34782e-06
-2.46053e-06
-1.5651e-05
-7.39826e-06
6.72382e-07
-1.43622e-05
-6.06414e-06
-1.23077e-06
-1.35916e-05
-5.7116e-06
-1.34695e-07
-1.23638e-05
-5.10205e-06
-4.34879e-07
-1.11686e-05
-4.46057e-06
-1.71337e-07
-9.82899e-06
-3.86942e-06
-1.10527e-07
-8.43199e-06
-3.23535e-06
-3.62454e-08
-6.95171e-06
-2.62091e-06
-1.35715e-08
-5.50925e-06
-2.01596e-06
1.21311e-08
-4.15014e-06
-1.47571e-06
6.57085e-10
-2.81893e-06
-8.93182e-07
-6.98496e-08
-1.43598e-06
-1.24281e-07
-1.00924e-07
2.77762e-08
8.4592e-07
9.78253e-08
1.52656e-06
1.88394e-06
4.94522e-07
2.80494e-06
1.03536e-06
0.00019144
0.000348721
-0.000115646
0.000198185
0.000524536
-4.86399e-05
0.000164736
0.000357943
-3.8027e-05
0.000118157
0.000343174
-5.69195e-06
7.79644e-05
9.97968e-05
6.83649e-05
9.74151e-06
-9.33018e-06
7.77274e-05
-1.204e-05
-1.85432e-05
1.59935e-05
-1.79768e-05
1.76258e-05
4.04058e-06
-2.03002e-05
-1.80938e-05
1.6978e-05
-1.86457e-05
1.69375e-05
-8.54515e-06
-2.61208e-05
3.07463e-06
6.20834e-06
-2.39572e-05
-1.54154e-06
1.4148e-06
-2.61624e-05
8.277e-06
-1.12883e-05
-2.5101e-05
-6.94234e-06
-3.32097e-06
-2.59412e-05
3.67392e-06
-6.93865e-06
-2.46772e-05
-1.02837e-05
-5.5962e-06
-2.38019e-05
-2.85094e-06
-1.71797e-06
-2.11639e-05
-9.36868e-06
-5.48016e-06
-2.07552e-05
-6.78405e-06
-1.87624e-06
-1.95485e-05
-7.8546e-06
-2.91077e-06
-1.79989e-05
-6.75426e-06
-2.1517e-06
-1.67375e-05
-7.55275e-06
-3.13786e-06
-1.68432e-05
-5.51244e-06
-7.2972e-07
-1.50004e-05
-6.46382e-06
-2.77723e-06
-1.5122e-05
-5.07688e-06
-8.65674e-07
-1.39951e-05
-5.11988e-06
-1.71867e-06
-1.35834e-05
-4.51725e-06
-9.96437e-07
-1.28448e-05
-4.16566e-06
-1.03355e-06
-1.22279e-05
-3.72523e-06
-7.61035e-07
-1.15334e-05
-3.29853e-06
-6.31381e-07
-1.08134e-05
-2.85832e-06
-4.82511e-07
-1.00679e-05
-2.38599e-06
-3.75502e-07
-9.32854e-06
-1.89849e-06
-3.16602e-07
-8.58336e-06
-1.3561e-06
-2.82271e-07
-7.82203e-06
-6.93956e-07
-1.91646e-07
-7.04274e-06
1.05791e-07
-3.91664e-08
-6.20986e-06
8.78486e-07
1.72569e-07
4.41199e-07
0.000152807
0.000308016
-0.00011361
0.000211372
0.000524772
-5.88006e-05
0.000173725
0.000419084
-2.34937e-05
5.55953e-05
0.000415355
4.59486e-05
-3.70269e-05
0.000141067
5.13518e-05
-6.65726e-05
4.04656e-05
-2.025e-05
-6.91624e-05
2.75348e-05
-4.34882e-05
-5.99258e-05
3.28867e-05
-2.44975e-05
-6.26027e-05
2.30826e-05
-3.84995e-05
-5.34309e-05
2.2178e-05
-1.44124e-05
-4.12418e-05
2.58214e-05
-3.49359e-05
-3.78123e-05
1.20647e-05
-1.70357e-05
-3.5479e-05
3.00933e-06
2.93433e-06
-3.10575e-05
-2.57189e-06
-8.79191e-06
-2.52183e-05
-5.74147e-06
3.57622e-06
-2.60614e-05
-4.60133e-06
-4.83929e-06
-2.12944e-05
-9.01332e-06
1.39536e-06
-2.02962e-05
-6.57544e-06
-3.7914e-06
-1.91461e-05
-7.43058e-06
-5.03648e-07
-1.77929e-05
-6.48381e-06
-2.72396e-06
-1.68089e-05
-6.30658e-06
-1.43165e-06
-1.64438e-05
-5.63818e-06
-2.27968e-06
-1.48142e-05
-5.37183e-06
-1.77027e-06
-1.46589e-05
-4.82248e-06
-1.79661e-06
-1.35799e-05
-4.43743e-06
-1.71844e-06
-1.31454e-05
-4.05455e-06
-1.49987e-06
-1.25331e-05
-3.67816e-06
-1.45134e-06
-1.21051e-05
-3.33135e-06
-1.26229e-06
-1.16703e-05
-2.995e-06
-1.1651e-06
-1.12799e-05
-2.65335e-06
-1.03557e-06
-1.08829e-05
-2.3071e-06
-9.48206e-07
-1.04684e-05
-1.93071e-06
-8.69769e-07
-1.00188e-05
-1.53244e-06
-8.15645e-07
-9.52514e-06
-1.08895e-06
-7.60794e-07
-8.952e-06
-5.88454e-07
-6.7864e-07
-8.24966e-06
-4.61112e-08
-5.50435e-07
5.01061e-07
-4.06984e-07
0.000107525
0.00031053
-7.05901e-05
0.000149961
0.000542504
-6.01683e-05
0.000177426
0.000448814
-5.71951e-05
0.000143566
0.000465755
-1.65391e-05
7.30835e-05
0.000216423
-4.87361e-06
4.57347e-05
5.26684e-05
1.5146e-05
4.31463e-05
5.52007e-05
-2.50775e-05
4.37996e-05
5.82674e-05
-2.6034e-05
4.15515e-05
4.46444e-05
-1.93137e-05
5.18652e-05
4.03023e-05
-2.8438e-05
4.07668e-05
3.95975e-05
-2.67773e-06
1.74169e-06
1.59702e-05
3.51196e-05
-1.41625e-05
3.98522e-06
1.49283e-05
-2.38143e-05
5.15764e-06
1.9223e-06
-2.22762e-05
-7.55382e-06
2.74298e-07
-2.26427e-05
-3.06761e-06
-1.16723e-06
-2.265e-05
-7.26627e-06
-1.73978e-06
-2.02347e-05
-6.78374e-06
-2.20705e-06
-1.99227e-05
-5.49921e-06
-2.2433e-06
-1.81162e-05
-6.17819e-06
-2.11217e-06
-1.76598e-05
-4.32737e-06
-2.43554e-06
-1.61317e-05
-5.16694e-06
-1.99939e-06
-1.56861e-05
-3.76709e-06
-2.05036e-06
-1.46633e-05
-3.93126e-06
-1.91397e-06
-1.40274e-05
-3.37303e-06
-1.70029e-06
-1.33294e-05
-3.11612e-06
-1.63648e-06
-1.27242e-05
-2.84221e-06
-1.4411e-06
-1.21559e-05
-2.5587e-06
-1.34099e-06
-1.16409e-05
-2.30447e-06
-1.20555e-06
-1.11555e-05
-2.02958e-06
-1.10917e-06
-1.06887e-05
-1.75336e-06
-1.02049e-06
-1.02211e-05
-1.44622e-06
-9.5211e-07
-9.73803e-06
-1.11908e-06
-8.96401e-07
-9.22266e-06
-7.59885e-07
-8.44447e-07
-8.65776e-06
-3.70763e-07
-7.82587e-07
-8.03912e-06
4.25815e-08
-7.07333e-07
4.10565e-07
-6.05461e-07
0.000135026
0.000269716
-4.95129e-05
0.00018617
0.000526983
-3.5623e-05
0.00018696
0.000472614
-2.45901e-05
9.87928e-05
0.000516807
3.71146e-05
-2.04599e-05
0.000250033
8.56425e-05
-3.56249e-05
5.98147e-05
8.0187e-06
-2.62233e-05
5.46295e-05
-8.83039e-06
-3.79457e-05
5.59936e-05
1.39962e-05
-3.4327e-05
4.05764e-05
4.49329e-07
-3.53313e-05
3.33654e-05
7.94122e-06
-3.6029e-05
2.03383e-05
1.99568e-05
-3.77434e-05
2.57528e-05
-8.06811e-06
-3.50385e-05
8.76033e-06
-7.48007e-06
-3.61196e-05
2.49516e-06
3.74361e-06
-3.34137e-05
-4.8878e-06
-5.37188e-06
-2.6515e-05
-1.43261e-05
4.35974e-06
-2.42415e-05
-6.82059e-06
-2.71918e-06
-1.91402e-05
-1.04057e-05
-1.4794e-06
-1.92954e-05
-3.91637e-06
-1.42762e-06
-1.74666e-05
-6.26061e-06
-1.74634e-06
-1.60524e-05
-3.77912e-06
-1.96241e-06
-1.57813e-05
-3.73322e-06
-1.70481e-06
-1.46021e-05
-3.26218e-06
-1.68418e-06
-1.40305e-05
-2.90017e-06
-1.60264e-06
-1.33409e-05
-2.5949e-06
-1.4678e-06
-1.27361e-05
-2.36004e-06
-1.36088e-06
-1.22028e-05
-2.11269e-06
-1.26281e-06
-1.17035e-05
-1.90622e-06
-1.1518e-06
-1.12418e-05
-1.69879e-06
-1.06731e-06
-1.07982e-05
-1.49414e-06
-9.79073e-07
-1.036e-05
-1.28241e-06
-9.09165e-07
-9.90806e-06
-1.05457e-06
-8.43588e-07
-9.4261e-06
-8.13166e-07
-7.87873e-07
-8.90046e-06
-5.55004e-07
-7.30525e-07
-8.31901e-06
-2.8674e-07
-6.65476e-07
-7.67005e-06
-2.25906e-08
-5.83786e-07
2.39296e-07
-5.02725e-07
9.99136e-05
0.00025785
-8.9408e-06
0.000143351
0.000536211
-5.26653e-05
0.000180258
0.000486306
-5.05996e-05
0.000190866
0.000504378
1.82154e-06
0.000143833
0.000272979
2.40875e-05
9.8315e-05
0.000129546
-2.42139e-05
6.55875e-05
9.5912e-05
-8.55496e-06
4.18897e-05
9.39308e-05
-1.42394e-05
3.71913e-05
6.75317e-05
-2.2257e-05
3.39926e-05
5.24561e-05
-1.58919e-05
3.37969e-05
4.40856e-05
-2.35515e-05
1.66738e-05
3.87666e-05
4.10927e-06
-1.73113e-05
1.37473e-05
2.89982e-05
-2.20061e-05
-4.11437e-06
1.13043e-05
-2.37265e-05
-4.93175e-06
1.76439e-06
-2.21921e-05
-1.91591e-05
3.29858e-06
-1.8843e-05
-5.24078e-06
-4.92887e-06
-1.911e-05
-1.01422e-05
3.42858e-09
-1.80978e-05
-1.69386e-06
-3.23472e-06
-1.70226e-05
-5.72325e-06
-1.61253e-06
-1.60964e-05
-1.70036e-06
-3.005e-06
-1.57542e-05
-2.64875e-06
-1.42665e-06
-1.45155e-05
-1.92309e-06
-2.5778e-06
-1.41702e-05
-1.66715e-06
-1.5783e-06
-1.33194e-05
-1.57477e-06
-1.87094e-06
-1.28066e-05
-1.35576e-06
-1.51701e-06
-1.22107e-05
-1.26189e-06
-1.44675e-06
-1.17005e-05
-1.12599e-06
-1.29039e-06
-1.1201e-05
-1.01774e-06
-1.18056e-06
-1.07236e-05
-8.94622e-07
-1.07693e-06
-1.02485e-05
-7.68783e-07
-9.88672e-07
-9.76396e-06
-6.27446e-07
-9.1171e-07
-9.25645e-06
-4.76272e-07
-8.44401e-07
-8.71818e-06
-3.1278e-07
-7.80496e-07
-8.14559e-06
-1.42263e-07
-7.17064e-07
-7.54222e-06
2.86951e-08
-6.54657e-07
1.77191e-07
-5.79993e-07
9.745e-05
0.000262883
4.4781e-06
0.000162366
0.000412328
5.89675e-05
0.000156509
0.000405582
8.6581e-05
0.000117201
0.000405125
0.000138562
2.61047e-05
0.000227013
0.000137061
-3.41479e-05
0.000107605
8.21936e-05
-4.16444e-05
6.89702e-05
3.44384e-05
-2.88051e-05
5.95145e-05
2.1577e-05
-2.21774e-05
4.63592e-05
1.45448e-05
-1.24899e-05
3.22463e-05
1.05222e-05
-1.02266e-05
3.00319e-05
1.17905e-05
-1.91289e-05
2.22335e-05
2.54354e-05
-2.51186e-05
2.44375e-05
-4.70057e-06
-4.04268e-05
9.35836e-06
1.83553e-06
-3.52302e-05
-2.83383e-05
1.821e-05
-2.26484e-05
-2.76451e-05
-4.09582e-06
-2.0092e-05
-1.13386e-05
3.54144e-06
-1.72548e-05
-8.33034e-06
-4.6491e-06
-1.68269e-05
-2.79421e-06
6.72484e-07
-1.60552e-05
-3.92498e-06
-2.56999e-06
-1.56028e-05
-8.80044e-07
-1.27274e-06
-1.50675e-05
-1.88653e-06
-1.29748e-06
-1.42931e-05
-9.23769e-07
-1.77369e-06
-1.37443e-05
-9.84392e-07
-1.23163e-06
-1.30918e-05
-8.20065e-07
-1.40716e-06
-1.25379e-05
-7.19768e-07
-1.18985e-06
-1.20016e-05
-6.55992e-07
-1.14221e-06
-1.15023e-05
-5.84862e-07
-1.04044e-06
-1.1025e-05
-5.26854e-07
-9.68176e-07
-1.05586e-05
-4.65709e-07
-8.9529e-07
-1.00909e-05
-4.03022e-07
-8.33477e-07
-9.60799e-06
-3.34538e-07
-7.75853e-07
-9.09975e-06
-2.61887e-07
-7.22619e-07
-8.55837e-06
-1.84667e-07
-6.69497e-07
-7.98044e-06
-1.05573e-07
-6.14619e-07
-7.36933e-06
-2.8358e-08
-5.54057e-07
4.55306e-08
-4.9414e-07
1.01324e-05
0.000188592
0.000107457
0.000315004
0.000193833
0.000319205
0.000262986
0.000335972
0.000241668
0.000248331
0.000186946
0.000162328
0.00013567
0.000120245
0.000113356
8.18285e-05
0.000105492
5.42239e-05
9.67859e-05
4.09523e-05
7.99264e-05
4.68913e-05
6.01514e-05
4.20085e-05
7.45683e-05
1.00206e-05
6.79229e-05
1.60038e-05
2.12876e-05
1.82969e-05
-6.75029e-06
3.92873e-07
-9.73161e-06
-8.35731e-06
-1.18725e-05
-6.18945e-06
-1.48006e-05
1.33878e-07
-1.38526e-05
-4.87297e-06
-1.5814e-05
1.08133e-06
-1.40751e-05
-3.62537e-06
-1.44294e-05
-5.69497e-07
-1.34445e-05
-1.96925e-06
-1.30307e-05
-1.23388e-06
-1.2425e-05
-1.32553e-06
-1.19172e-05
-1.16378e-06
-1.14177e-05
-1.08439e-06
-1.09416e-05
-1.0029e-06
-1.04732e-05
-9.34147e-07
-1.00015e-05
-8.74725e-07
-9.51402e-06
-8.21988e-07
-9.00253e-06
-7.73376e-07
-8.46214e-06
-7.25057e-07
-7.89225e-06
-6.75468e-07
-7.29671e-06
-6.23895e-07
-5.68355e-07
-0.000375408
-0.000101701
0.000196164
-0.00026262
-0.000291444
-0.000127281
-0.000123759
-3.33718e-05
-1.75326e-05
-0.000162312
3.85199e-05
-0.000220352
-2.16895e-05
-0.000134962
0.00010393
2.3811e-05
1.13379e-05
-6.70854e-05
2.51383e-05
-8.53402e-06
2.58094e-05
1.61902e-05
8.84457e-07
5.00264e-05
3.88115e-06
3.38643e-06
3.96514e-05
-9.23997e-07
-5.27668e-07
2.66658e-05
-1.15319e-06
-4.65588e-06
1.96888e-05
-1.68909e-07
-5.46226e-06
1.51617e-05
1.98371e-06
-6.05919e-06
1.51137e-05
3.46194e-06
-5.85351e-06
1.34118e-05
6.79389e-06
-8.75503e-06
1.37634e-05
1.03576e-05
-9.04845e-06
1.21487e-05
1.39831e-05
-9.49301e-06
1.2252e-05
1.79147e-05
-9.7781e-06
1.11298e-05
2.26884e-05
-1.01022e-05
1.34206e-05
2.75449e-05
-9.68613e-06
8.03141e-06
3.24065e-05
-7.85332e-06
4.47885e-06
3.61531e-05
-6.45405e-06
4.69548e-06
3.83321e-05
-5.49654e-06
5.96822e-06
3.95607e-05
-5.21193e-06
8.2103e-06
4.04967e-05
-5.03819e-06
9.25774e-06
4.20518e-05
-4.93476e-06
7.13375e-06
4.3649e-05
-4.44195e-06
5.47408e-06
4.50235e-05
-3.59692e-06
5.01863e-06
4.68037e-05
-3.08843e-06
2.42993e-06
4.76817e-05
-2.57335e-06
2.18542e-06
4.70856e-05
-1.91952e-06
5.61412e-06
4.71685e-05
-2.05301e-06
5.88357e-06
4.76903e-05
-2.87497e-06
6.00135e-06
4.76808e-05
-4.07463e-06
9.68531e-06
4.8762e-05
-4.93419e-06
9.83412e-06
4.89378e-05
-4.29201e-06
9.66224e-06
4.62325e-05
-3.2845e-06
1.42117e-05
-2.18561e-06
1.27466e-05
-5.09077e-05
-0.000137822
-0.000731595
-0.000186246
5.10695e-05
4.22768e-05
-0.000170415
-0.000122469
-0.000321348
-7.32822e-05
3.05595e-05
-3.5881e-05
-6.732e-05
-7.70687e-05
-4.9673e-05
-6.32693e-05
1.19693e-05
-4.62827e-05
-4.22223e-05
-1.10998e-05
-2.19851e-05
-3.44128e-05
-8.70233e-07
-2.56556e-05
-3.18487e-05
2.66969e-06
6.83379e-06
-2.79883e-05
-1.57009e-06
-3.38044e-06
-2.84003e-05
-3.7579e-06
-1.55386e-06
-2.85398e-05
-5.41897e-06
3.18217e-06
-2.79838e-05
-6.71064e-06
2.84503e-06
-2.79481e-05
-6.4239e-06
7.81623e-06
-2.49619e-05
-1.0207e-05
6.84225e-06
-2.30916e-05
-1.09888e-05
3.88255e-06
-2.01798e-05
-1.19767e-05
2.19604e-06
-1.81905e-05
-1.26316e-05
1.04269e-06
-1.55613e-05
-1.2365e-05
-3.09691e-08
-1.28499e-05
-1.25345e-05
-4.94727e-08
-1.00623e-05
-1.06411e-05
-1.93843e-08
-6.65915e-06
-9.82709e-06
-4.90357e-07
-3.21625e-06
-9.01683e-06
-9.62195e-07
-2.26463e-07
-7.9539e-06
-9.42176e-07
2.62887e-06
-7.47274e-06
-1.76269e-06
5.20378e-06
-6.77477e-06
-2.55784e-06
7.62444e-06
-5.92497e-06
-3.20986e-06
1.00098e-05
-4.96678e-06
-3.24253e-06
1.19178e-05
-4.18412e-06
-2.67044e-06
1.30041e-05
-3.4184e-06
-1.11866e-06
1.32896e-05
-2.79249e-06
1.29796e-06
1.2577e-05
-2.94497e-06
3.71865e-06
1.11329e-05
-4.05201e-06
5.3978e-06
9.83282e-06
-5.65336e-06
5.32045e-06
9.31947e-06
-6.63165e-06
3.38793e-06
9.75325e-06
-5.73853e-06
3.91686e-08
1.14722e-05
-3.18229e-06
-6.51726e-06
-1.2871e-05
9.50571e-05
0.000240454
-5.71487e-05
2.02862e-05
-5.87629e-05
-2.60736e-05
-8.10547e-05
-1.35208e-05
2.86232e-05
-5.32211e-05
3.43069e-05
-0.000125954
-4.93424e-05
-4.70862e-05
-1.82019e-05
-4.53497e-05
1.19114e-05
-1.36946e-05
-3.32353e-05
-7.40741e-06
-2.78373e-05
-3.10773e-05
-5.15294e-06
-1.98299e-05
-2.82269e-05
-9.16239e-07
-1.38551e-05
-2.93317e-05
1.07172e-06
-1.6908e-05
-2.74421e-05
-4.10797e-06
-1.83953e-05
-2.65159e-05
-5.92951e-06
-1.29179e-05
-2.4751e-05
-5.69782e-06
-1.73192e-05
-2.16851e-05
-1.10027e-05
-1.3507e-05
-2.07196e-05
-7.99391e-06
-4.37006e-06
-1.97459e-05
-1.08888e-05
6.80132e-06
-1.94897e-05
-7.76142e-06
-7.87601e-07
-2.02326e-05
-1.28487e-05
1.96862e-07
-2.03764e-05
-1.02339e-05
-4.61561e-06
-1.85091e-05
-1.20435e-05
-1.02015e-06
-1.72579e-05
-1.06385e-05
-4.45278e-06
-1.54846e-05
-9.28808e-06
-4.46818e-06
-1.30431e-05
-9.38621e-06
-4.43643e-06
-1.08722e-05
-8.01991e-06
-5.11937e-06
-8.59483e-06
-7.55523e-06
-5.04855e-06
-6.42875e-06
-6.84453e-06
-5.13074e-06
-4.36854e-06
-6.05247e-06
-4.82495e-06
-2.45218e-06
-5.30002e-06
-4.31834e-06
-8.50206e-07
-4.63768e-06
-3.65836e-06
3.6517e-07
-4.0048e-06
-2.92034e-06
1.14936e-06
-3.44848e-06
-2.41749e-06
1.39947e-06
-3.24965e-06
-2.82016e-06
1.16528e-06
-3.41851e-06
-4.31965e-06
7.93688e-07
-3.65876e-06
-6.67502e-06
8.41418e-07
-3.43754e-06
-9.4906e-06
2.01494e-06
-2.23931e-06
-1.25188e-05
-2.19848e-07
-1.52397e-05
0.000142636
0.000125831
0.000147329
-1.50562e-05
0.000116649
-0.000127616
-5.98899e-05
-1.50498e-05
-1.42453e-05
-8.56247e-05
0.00012352
-9.44903e-05
-6.8383e-05
-4.25331e-05
-4.54869e-05
-3.38796e-05
-1.93396e-06
-4.73812e-06
-3.29821e-05
-4.32162e-06
-5.90779e-06
-2.65774e-05
-7.41829e-06
-1.63373e-05
-2.76245e-05
1.80746e-07
-8.25884e-06
-2.65353e-05
5.26432e-06
-5.54437e-06
-2.42965e-05
-5.27697e-06
-4.83494e-06
-2.55485e-05
-2.39264e-06
-1.09649e-05
-2.41282e-05
-3.19716e-06
-1.05711e-06
-2.49471e-05
-8.3201e-06
-1.35814e-05
-2.53384e-05
-3.73213e-06
-9.18385e-06
-2.49084e-05
-1.05837e-05
-5.79903e-06
-2.379e-05
-5.46278e-06
-7.69285e-06
-2.28503e-05
-1.05868e-05
-2.78164e-06
-2.29502e-05
-9.3345e-06
-6.01633e-06
-2.18678e-05
-9.83029e-06
-4.97464e-06
-2.1256e-05
-9.16343e-06
-3.42265e-06
-1.96035e-05
-8.80114e-06
-5.68113e-06
-1.79731e-05
-8.07292e-06
-3.64101e-06
-1.66621e-05
-7.57008e-06
-4.77356e-06
-1.47755e-05
-6.92247e-06
-4.23401e-06
-1.32767e-05
-6.36795e-06
-4.45611e-06
-1.15605e-05
-5.72757e-06
-4.39586e-06
-9.90817e-06
-5.10537e-06
-4.39787e-06
-8.3025e-06
-4.52052e-06
-4.32957e-06
-6.73699e-06
-3.96396e-06
-4.26493e-06
-5.14916e-06
-3.46347e-06
-4.32828e-06
-3.60615e-06
-3.10327e-06
-4.57708e-06
-2.15366e-06
-2.85469e-06
-5.03422e-06
-7.2543e-07
-2.57749e-06
-5.75864e-06
9.01175e-07
-2.0074e-06
-6.65767e-06
3.02749e-06
-9.18841e-07
-7.26148e-06
4.99046e-07
-7.17892e-06
0.000111721
2.6123e-05
-6.34515e-06
7.72223e-05
0.000149416
-4.35855e-05
3.04491e-05
6.72385e-05
-8.97851e-05
9.44488e-06
0.000142314
2.32259e-05
-3.18451e-05
3.53598e-05
-6.09033e-05
-3.83885e-05
-1.45015e-05
3.85361e-05
-2.1009e-05
-6.21733e-06
-1.10313e-05
-2.91657e-05
4.36643e-06
-1.63563e-05
-2.55644e-05
2.55544e-06
2.18829e-06
-2.59299e-05
5.032e-06
-1.83197e-05
-2.88214e-05
2.13682e-06
-3.48143e-06
-2.76107e-05
-1.65761e-08
-5.93684e-06
-2.76595e-05
-4.05231e-06
-6.56814e-06
-2.58756e-05
-5.19511e-06
5.79823e-06
-2.28833e-05
-6.36974e-06
-6.44371e-06
-2.14409e-05
-8.30379e-06
5.4807e-06
-1.99641e-05
-7.81355e-06
-4.30921e-06
-1.89548e-05
-8.26818e-06
5.3191e-07
-1.85194e-05
-9.2505e-06
-1.50073e-06
-1.85411e-05
-8.24006e-06
-2.30736e-06
-1.80146e-05
-7.88924e-06
-3.16012e-06
-1.74327e-05
-7.90279e-06
-5.85378e-07
-1.69182e-05
-6.89294e-06
-4.15494e-06
-1.60088e-05
-6.67198e-06
-1.13515e-06
-1.52461e-05
-6.15128e-06
-2.76471e-06
-1.43689e-05
-5.63926e-06
-1.74056e-06
-1.33761e-05
-5.23367e-06
-1.92159e-06
-1.23528e-05
-4.7377e-06
-1.56228e-06
-1.12582e-05
-4.29852e-06
-1.4271e-06
-1.01436e-05
-3.84549e-06
-1.26936e-06
-8.99139e-06
-3.41896e-06
-1.21029e-06
-7.88647e-06
-2.99693e-06
-1.19914e-06
-6.8342e-06
-2.60491e-06
-1.30139e-06
-5.78078e-06
-2.15922e-06
-1.54154e-06
-4.65781e-06
-1.54936e-06
-1.68193e-06
-3.39122e-06
-6.74312e-07
-1.41329e-06
-1.9516e-06
3.06034e-07
-7.52085e-07
1.21723e-06
2.9365e-07
3.85882e-05
-3.29926e-05
-0.0001336
5.7179e-05
0.000150185
-6.79996e-05
2.7486e-05
0.000110035
-5.11309e-05
1.68863e-05
0.00013734
9.88151e-06
1.21406e-05
8.23459e-06
0.000100236
-1.14701e-05
3.75667e-05
4.92699e-05
-1.8391e-05
7.97368e-06
8.72344e-06
-2.29013e-05
1.92593e-05
-6.34201e-06
-2.39113e-05
1.33345e-05
7.2089e-06
-2.37997e-05
9.95005e-06
-1.35748e-05
-2.4761e-05
1.16378e-05
-2.33136e-06
-2.14919e-05
-1.06132e-06
-8.09495e-07
-2.38589e-05
-2.61148e-06
-1.03621e-05
-2.38438e-05
-2.97266e-06
-5.55846e-06
-2.45989e-05
-5.29051e-06
-7.26281e-06
-2.48691e-05
-6.02021e-06
-7.60959e-06
-2.31366e-05
-7.23292e-06
-4.0311e-06
-2.22126e-05
-7.71256e-06
-6.95973e-06
-2.09291e-05
-7.85238e-06
-4.55793e-06
-1.97128e-05
-7.4664e-06
-4.90072e-06
-1.85029e-05
-7.24234e-06
-4.00844e-06
-1.77565e-05
-6.57736e-06
-5.20969e-06
-1.65564e-05
-6.08577e-06
-2.73702e-06
-1.5831e-05
-5.68757e-06
-4.48705e-06
-1.50218e-05
-5.12313e-06
-2.70302e-06
-1.43412e-05
-4.79592e-06
-3.24266e-06
-1.37373e-05
-4.3677e-06
-2.46623e-06
-1.31241e-05
-4.02843e-06
-2.35611e-06
-1.25532e-05
-3.66139e-06
-1.96899e-06
-1.19618e-05
-3.30604e-06
-1.76223e-06
-1.13561e-05
-2.93697e-06
-1.5702e-06
-1.07244e-05
-2.53925e-06
-1.46491e-06
-1.0089e-05
-2.11192e-06
-1.44496e-06
-9.43911e-06
-1.62786e-06
-1.46355e-06
-8.75604e-06
-1.03068e-06
-1.3934e-06
-7.99872e-06
-2.92571e-07
-1.17823e-06
-7.14733e-06
4.55235e-07
-8.28016e-07
-3.12646e-07
2.24349e-05
1.02774e-05
-0.000192964
3.85147e-05
0.000154084
-7.87794e-05
3.19655e-05
0.00013498
-4.18895e-05
-1.55114e-05
0.000177705
5.30607e-05
-1.65912e-05
1.16489e-05
4.90173e-05
-8.73119e-06
4.40024e-05
-3.45457e-05
-2.11396e-05
1.42089e-05
-3.73151e-05
-2.26138e-05
1.50806e-05
-1.88445e-05
-2.65104e-05
1.22327e-05
-3.3501e-05
-2.72962e-05
1.33399e-05
-1.70165e-05
-3.21578e-05
1.70979e-05
-3.55344e-05
-3.39973e-05
8.12571e-07
-1.70701e-05
-3.13719e-05
1.22934e-06
-3.53192e-06
-3.00181e-05
-3.61325e-06
-9.50509e-06
-2.69973e-05
-4.96302e-06
2.27928e-07
-2.51728e-05
-7.3192e-06
-5.36482e-06
-2.22892e-05
-7.62678e-06
-1.09439e-06
-2.0959e-05
-7.78218e-06
-5.05198e-06
-1.95279e-05
-7.15842e-06
-2.62871e-06
-1.85768e-05
-6.81334e-06
-4.32817e-06
-1.75022e-05
-6.28328e-06
-3.46531e-06
-1.66755e-05
-5.85055e-06
-3.83318e-06
-1.57476e-05
-5.27061e-06
-3.51333e-06
-1.49668e-05
-4.88372e-06
-3.38124e-06
-1.42123e-05
-4.37671e-06
-3.21934e-06
-1.35354e-05
-4.01891e-06
-2.95377e-06
-1.29411e-05
-3.61913e-06
-2.79419e-06
-1.24136e-05
-3.27777e-06
-2.54052e-06
-1.19425e-05
-2.93804e-06
-2.35949e-06
-1.15094e-05
-2.60763e-06
-2.1671e-06
-1.10913e-05
-2.27118e-06
-2.03212e-06
-1.06635e-05
-1.91256e-06
-1.92428e-06
-1.02074e-05
-1.52897e-06
-1.85469e-06
-9.70588e-06
-1.10442e-06
-1.78572e-06
-9.12391e-06
-6.27665e-07
-1.66362e-06
-8.41007e-06
-1.08602e-07
-1.44825e-06
4.12777e-07
-1.168e-06
3.5497e-05
4.91503e-05
-0.000111533
3.98383e-05
0.00017779
-8.82159e-05
4.45162e-05
0.000172001
-9.88942e-05
7.77208e-06
0.000199614
-1.70423e-06
-1.26944e-05
1.80896e-05
9.15218e-06
2.72265e-06
1.0387e-05
3.33444e-05
-2.08843e-06
9.27285e-06
-1.53303e-05
-9.234e-06
1.25829e-05
-1.63907e-05
-8.28621e-06
7.5609e-06
-1.55898e-05
-5.25178e-06
1.32002e-05
-3.13327e-05
-1.64021e-05
2.12488e-05
4.32167e-06
-2.10497e-05
8.04646e-06
3.25333e-05
-1.89051e-05
5.00506e-06
9.00788e-06
-2.34588e-05
-1.92583e-07
3.05536e-06
-2.3437e-05
-3.46894e-06
-1.24157e-06
-2.34082e-05
-6.09193e-06
-2.42335e-06
-2.26565e-05
-6.76076e-06
-3.35742e-06
-2.1094e-05
-7.17681e-06
-4.37498e-06
-2.00779e-05
-6.2627e-06
-4.15509e-06
-1.86302e-05
-6.01633e-06
-4.35692e-06
-1.77133e-05
-5.31406e-06
-4.32164e-06
-1.66484e-05
-4.82962e-06
-4.08524e-06
-1.57771e-05
-4.33655e-06
-3.85568e-06
-1.49892e-05
-3.90402e-06
-3.68158e-06
-1.42195e-05
-3.51943e-06
-3.32731e-06
-1.35681e-05
-3.16602e-06
-3.14074e-06
-1.29372e-05
-2.85331e-06
-2.83787e-06
-1.23755e-05
-2.5545e-06
-2.6259e-06
-1.18473e-05
-2.27367e-06
-2.39818e-06
-1.13523e-05
-1.99076e-06
-2.22095e-06
-1.08706e-05
-1.70267e-06
-2.07071e-06
-1.03866e-05
-1.39279e-06
-1.95591e-06
-9.88448e-06
-1.06275e-06
-1.86474e-06
-9.34883e-06
-7.05017e-07
-1.7795e-06
-8.76457e-06
-3.20509e-07
-1.67401e-06
-8.12582e-06
8.05238e-08
-1.53521e-06
4.39728e-07
-1.3443e-06
5.08893e-05
9.81702e-05
-0.000118608
5.30215e-05
0.000204385
-6.435e-05
3.29646e-05
0.000200785
-3.33167e-05
-1.43039e-05
0.000218986
6.50114e-05
-5.1773e-05
7.01004e-05
7.11009e-05
-4.30387e-05
2.30768e-05
-1.34054e-05
-3.7586e-05
1.74485e-05
-2.24586e-05
-4.18755e-05
2.27022e-05
8.16636e-06
-3.42533e-05
1.4534e-05
-1.4146e-05
-3.15586e-05
1.4763e-05
3.68373e-06
-2.94156e-05
2.43441e-05
1.47185e-05
-3.26351e-05
1.80416e-05
-1.48437e-05
-3.4604e-05
4.97035e-06
-5.47645e-06
-3.58298e-05
1.54389e-06
3.23288e-06
-3.36761e-05
-6.81867e-06
-4.17583e-06
-2.77461e-05
-1.09484e-05
3.28627e-06
-2.3957e-05
-9.9035e-06
-3.36561e-06
-2.11452e-05
-8.12593e-06
-3.34209e-06
-1.94096e-05
-6.17509e-06
-3.25081e-06
-1.80572e-05
-5.22413e-06
-3.8909e-06
-1.69942e-05
-4.54959e-06
-3.78994e-06
-1.61263e-05
-3.70161e-06
-3.70069e-06
-1.52458e-05
-3.42829e-06
-3.47297e-06
-1.45005e-05
-2.94858e-06
-3.30332e-06
-1.38024e-05
-2.65532e-06
-3.03009e-06
-1.3161e-05
-2.36891e-06
-2.79931e-06
-1.25873e-05
-2.11611e-06
-2.57372e-06
-1.20515e-05
-1.8874e-06
-2.3547e-06
-1.15558e-05
-1.66839e-06
-2.16833e-06
-1.10788e-05
-1.45227e-06
-1.99458e-06
-1.0609e-05
-1.23111e-06
-1.85047e-06
-1.01268e-05
-9.96325e-07
-1.72226e-06
-9.61727e-06
-7.49026e-07
-1.61115e-06
-9.06518e-06
-4.87971e-07
-1.49966e-06
-8.45769e-06
-2.19738e-07
-1.37374e-06
-7.78813e-06
4.54326e-08
-1.21825e-06
3.01705e-07
-1.05845e-06
2.0072e-05
0.000124146
-6.8199e-05
4.12628e-05
0.000217187
-8.66583e-05
5.56416e-05
0.000216395
-8.05883e-05
6.93036e-05
0.000215107
-7.96141e-06
4.26305e-05
0.000113968
6.89298e-06
4.5e-06
4.30879e-05
-6.09451e-06
-3.77424e-06