/*--------------------------------*- C++ -*----------------------------------*\
| =========                 |                                                 |
| \\      /  F ield         | OpenFOAM: The Open Source CFD Toolbox           |
|  \\    /   O peration     | Version:  2.3.1                                 |
|   \\  /    A nd           | Web:      www.OpenFOAM.org                      |
|    \\/     M anipulation  |                                                 |
\*---------------------------------------------------------------------------*/
FoamFile
{
    version     2.0;
    format      ascii;
    class       surfaceScalarField;
    location    "5";
    object      phi_0;
}
// * * * * * * * * * * * * * * * * * * * * * * * * * * * * * * * * * * * * * //

dimensions      [0 3 -1 0 0 0 0];

internalField   nonuniform List<scalar> 
108164
(
-0.000144667
-0.000485693
-0.000502723
-0.000189242
0.000394952
-0.000350378
-0.000103558
-0.000173922
8.82376e-05
8.97127e-05
3.0158e-05
-0.000223428
5.03543e-05
-7.35043e-05
0.000112863
7.25341e-05
-1.34064e-05
-8.77335e-06
7.70312e-05
-2.32173e-05
1.87202e-05
4.64335e-05
-1.17827e-05
4.23804e-05
1.43057e-05
1.39182e-06
3.0736e-05
-1.25003e-06
-5.63397e-06
2.11897e-05
-2.26145e-06
-1.37965e-05
1.48079e-05
-2.03562e-06
-1.09277e-05
1.07018e-05
-5.26006e-08
-1.321e-05
1.1227e-05
1.4874e-06
-1.06011e-05
9.0611e-06
4.9242e-06
-1.17883e-05
8.35155e-06
8.62227e-06
-1.03817e-05
6.68364e-06
1.23456e-05
-1.01321e-05
6.40875e-06
1.60787e-05
-9.0357e-06
5.30257e-06
2.02452e-05
-1.22696e-05
8.10309e-06
2.62338e-05
-9.17771e-06
3.18904e-06
3.29447e-05
-8.17789e-06
1.46703e-06
3.81971e-05
-7.24806e-06
1.99567e-06
4.09596e-05
-5.44225e-06
2.67979e-06
4.20484e-05
-5.34929e-06
4.26044e-06
4.20854e-05
-5.20348e-06
5.16647e-06
4.36243e-05
-5.28073e-06
3.74189e-06
4.58685e-05
-4.87334e-06
2.62907e-06
4.70881e-05
-4.01096e-06
2.79138e-06
4.95176e-05
-3.53384e-06
1.10435e-06
5.1917e-05
-2.91124e-06
5.11828e-07
5.09321e-05
-2.14972e-06
3.13465e-06
4.96183e-05
-2.59771e-06
3.91154e-06
4.97549e-05
-3.78473e-06
3.64807e-06
4.92852e-05
-5.14074e-06
5.61048e-06
4.95415e-05
-6.22601e-06
5.96965e-06
4.98072e-05
-5.82392e-06
5.55823e-06
4.67865e-05
-5.2372e-06
8.25792e-06
-4.90496e-06
8.79112e-06
-0.000166181
0.000596926
-0.000688258
-5.66005e-05
1.5238e-05
0.000270134
8.16077e-05
7.60071e-05
-0.000388137
-3.29102e-05
9.13109e-05
5.3365e-05
-8.31084e-05
-3.79601e-05
1.46541e-05
-5.95401e-05
4.65286e-06
-4.16276e-05
-5.68009e-05
-2.25149e-05
-3.44156e-06
-2.58968e-05
-2.32889e-05
-1.9398e-05
-3.1349e-05
-1.72725e-06
8.57122e-06
-2.36827e-05
-1.27586e-05
-5.41657e-07
-2.05878e-05
-1.58019e-05
-1.08945e-06
-2.18016e-05
-1.28077e-05
3.09394e-06
-2.11852e-05
-1.65836e-05
2.75716e-06
-2.42452e-05
-1.48558e-05
7.31473e-06
-2.75039e-05
-1.69244e-05
8.39474e-06
-2.86178e-05
-1.30717e-05
3.80383e-06
-2.76911e-05
-1.36878e-05
2.62907e-06
-2.63068e-05
-1.05995e-05
1.79506e-07
-2.25902e-05
-1.63202e-05
3.34045e-07
-2.05761e-05
-1.0992e-05
-1.99757e-07
-1.84327e-05
-1.02963e-05
-2.50152e-08
-1.40489e-05
-1.11709e-05
-4.60938e-07
-1.01917e-05
-8.25792e-06
-1.04149e-06
-7.02313e-06
-7.81997e-06
-6.97949e-07
-3.74693e-06
-7.13177e-06
-1.34792e-06
-8.28605e-07
-6.36758e-06
-1.83146e-06
2.16201e-06
-5.58551e-06
-2.27845e-06
5.02877e-06
-4.64698e-06
-2.23075e-06
7.24904e-06
-3.89586e-06
-1.85826e-06
8.34948e-06
-3.13978e-06
-8.71903e-07
8.02555e-06
-2.54222e-06
7.16432e-07
6.18216e-06
-2.86996e-06
2.11565e-06
3.82019e-06
-4.19752e-06
2.77476e-06
2.12613e-06
-5.88202e-06
2.43534e-06
1.67224e-06
-6.9394e-06
1.16728e-06
2.97835e-06
-6.13439e-06
-9.95642e-07
6.27815e-06
-3.8045e-06
-4.73251e-06
-8.3392e-06
4.30557e-05
0.000660915
0.000159127
5.0751e-05
0.000232535
-0.000224993
5.58861e-06
8.05527e-05
4.06167e-05
7.42098e-07
0.000191905
-9.57473e-05
-3.38128e-05
-2.04207e-05
1.70154e-05
-2.35087e-05
4.95118e-06
-1.06024e-05
-2.46272e-05
-9.56837e-06
-1.1828e-05
-2.39893e-05
-1.87692e-06
-2.20499e-05
-1.32145e-05
2.13314e-06
-1.46352e-05
-1.27117e-05
2.13394e-06
-1.53953e-05
-8.41192e-06
-3.17126e-06
-1.69305e-05
-3.86717e-06
-4.84015e-06
-1.25123e-05
2.07998e-08
-5.86351e-06
-1.4608e-05
1.08275e-05
-1.06471e-05
-1.50154e-05
6.5261e-06
-1.14848e-05
-1.13826e-06
-6.14597e-06
-8.27262e-06
7.87302e-06
-1.35829e-05
-9.94629e-06
3.69543e-06
-1.47582e-05
-8.66672e-06
-7.57494e-07
-1.67354e-05
-1.17069e-05
-2.63606e-06
-1.76488e-05
-1.14151e-05
1.33635e-06
-1.57822e-05
-8.96517e-06
-3.19769e-06
-1.49733e-05
-9.81997e-06
-2.15981e-06
-1.31245e-05
-7.74039e-06
-2.36642e-06
-1.07486e-05
-7.18152e-06
-3.01432e-06
-8.67974e-06
-6.34418e-06
-2.85643e-06
-6.44556e-06
-5.565e-06
-3.03676e-06
-4.39807e-06
-4.73818e-06
-2.89482e-06
-2.38745e-06
-3.92085e-06
-2.73675e-06
-5.53614e-07
-3.21847e-06
-2.51123e-06
1.09463e-06
-2.49488e-06
-2.29315e-06
2.62884e-06
-1.78316e-06
-2.29326e-06
3.97927e-06
-1.33914e-06
-2.88125e-06
4.86781e-06
-1.15773e-06
-3.92833e-06
5.10418e-06
-1.05743e-06
-5.06096e-06
5.01802e-06
-5.92919e-07
-6.26033e-06
5.84261e-06
9.04636e-07
-7.8636e-06
3.25607e-06
-9.56829e-06
0.000145053
0.000557123
0.000105713
7.89406e-05
0.00040441
-0.000105762
2.998e-05
0.00018882
-5.93072e-05
-5.42553e-06
0.000254075
-2.67644e-05
-4.2691e-05
4.07163e-05
-2.38715e-05
-5.11747e-05
-2.55812e-06
1.5993e-05
-4.43075e-05
-1.48656e-05
-1.56991e-06
-3.69386e-05
2.88171e-06
-1.21275e-05
-4.10355e-05
1.4495e-05
-8.26486e-06
-4.1029e-05
2.40024e-06
-2.72867e-07
-3.60564e-05
-4.38989e-06
-3.75391e-06
-3.6527e-05
4.36344e-06
-8.73301e-06
-3.61272e-05
-9.12856e-06
2.86523e-06
-3.2294e-05
-2.72412e-06
-1.17562e-05
-3.07957e-05
-7.64928e-06
-5.3338e-06
-2.61184e-05
-7.88618e-06
-5.06371e-06
-2.41149e-05
-7.65257e-06
-4.29725e-06
-2.45424e-05
-8.65458e-06
4.15381e-07
-2.15353e-05
-9.4932e-06
-5.22083e-06
-2.1272e-05
-9.98682e-06
-1.69148e-06
-2.02534e-05
-8.6495e-06
-1.33432e-06
-1.8219e-05
-8.30362e-06
-3.5508e-06
-1.75426e-05
-7.71826e-06
-6.98489e-07
-1.51812e-05
-6.52717e-06
-3.01575e-06
-1.38053e-05
-6.00214e-06
-1.71794e-06
-1.18174e-05
-5.07071e-06
-2.48213e-06
-9.89665e-06
-4.30241e-06
-2.35658e-06
-7.8359e-06
-3.42944e-06
-2.55215e-06
-5.81366e-06
-2.63273e-06
-2.60797e-06
-3.78165e-06
-1.86717e-06
-2.65971e-06
-1.65996e-06
-1.14781e-06
-2.75705e-06
4.47145e-07
-5.55991e-07
-2.89025e-06
2.42141e-06
-1.10618e-07
-3.02137e-06
4.24213e-06
3.75084e-07
-3.25323e-06
6.08592e-06
1.16748e-06
-3.60419e-06
8.38585e-06
2.42012e-06
-3.81543e-06
3.88987e-06
-3.6224e-06
0.000221571
0.000431235
-2.69241e-05
0.000165068
0.000503157
-4.22444e-05
0.000111506
0.000294684
-5.23018e-05
4.66115e-05
0.000296552
2.24171e-05
-1.79793e-05
0.000126879
-2.1572e-05
-4.0825e-05
-9.18997e-07
2.12066e-05
-3.62187e-05
-2.4446e-05
4.97402e-06
-3.63366e-05
1.57052e-05
-1.27056e-05
-2.65599e-05
-3.52566e-06
8.24385e-06
-1.52662e-05
1.00116e-05
-1.8905e-05
-2.2473e-05
1.78664e-06
1.03028e-06
-1.77862e-05
1.97003e-06
-2.29341e-06
-1.41855e-05
-5.25234e-06
-7.47696e-06
-1.83826e-05
-9.26147e-06
1.07345e-05
-1.58158e-05
-4.12548e-06
-6.09061e-06
-1.82728e-05
-1.46553e-05
9.22606e-06
-1.70185e-05
-3.72555e-06
-5.18126e-06
-1.73154e-05
-1.22124e-05
3.85461e-06
-1.7558e-05
-8.27491e-06
-9.7562e-07
-1.72378e-05
-9.56933e-06
-7.37675e-07
-1.71653e-05
-7.35571e-06
-1.36629e-06
-1.69374e-05
-9.4306e-06
8.99057e-07
-1.5845e-05
-6.34977e-06
-2.46093e-06
-1.56493e-05
-7.3921e-06
6.6925e-07
-1.43607e-05
-6.06189e-06
-1.22885e-06
-1.35895e-05
-5.70552e-06
-1.36413e-07
-1.23614e-05
-5.09598e-06
-4.34494e-07
-1.11655e-05
-4.45388e-06
-1.71459e-07
-9.82547e-06
-3.86255e-06
-1.10204e-07
-8.42802e-06
-3.22877e-06
-3.58548e-08
-6.94766e-06
-2.61485e-06
-1.33231e-08
-5.50552e-06
-2.01028e-06
1.21505e-08
-4.14702e-06
-1.46978e-06
6.56206e-10
-2.81623e-06
-8.86339e-07
-6.93655e-08
-1.43349e-06
-1.15724e-07
-9.9534e-08
3.0008e-08
8.55417e-07
1.01207e-07
1.5266e-06
1.89384e-06
4.99437e-07
2.81251e-06
1.04215e-06
0.000193475
0.000360218
-0.000124138
0.000202427
0.000543006
-4.88018e-05
0.000167494
0.00036657
-3.69531e-05
0.000118516
0.000350037
-4.5075e-06
7.72133e-05
9.6649e-05
7.15333e-05
8.99493e-06
-1.01597e-05
7.74591e-05
-1.23146e-05
-1.89373e-05
1.58009e-05
-1.80271e-05
1.75373e-05
3.88038e-06
-2.03702e-05
-1.82209e-05
1.70384e-05
-1.86835e-05
1.67825e-05
-8.45754e-06
-2.60883e-05
3.13083e-06
6.06054e-06
-2.39617e-05
-1.61531e-06
1.45876e-06
-2.61669e-05
8.25542e-06
-1.13025e-05
-2.5103e-05
-6.98593e-06
-3.33943e-06
-2.59358e-05
3.64425e-06
-6.93698e-06
-2.46701e-05
-1.03116e-05
-5.60934e-06
-2.38036e-05
-2.87226e-06
-1.71986e-06
-2.11588e-05
-9.38075e-06
-5.47634e-06
-2.07477e-05
-6.79754e-06
-1.88853e-06
-1.9547e-05
-7.86128e-06
-2.90876e-06
-1.79991e-05
-6.75266e-06
-2.15094e-06
-1.67321e-05
-7.55799e-06
-3.13959e-06
-1.68424e-05
-5.5099e-06
-7.29627e-07
-1.49995e-05
-6.46072e-06
-2.77419e-06
-1.51194e-05
-5.0747e-06
-8.67299e-07
-1.39941e-05
-5.11472e-06
-1.71618e-06
-1.3581e-05
-4.51267e-06
-9.96424e-07
-1.28425e-05
-4.16013e-06
-1.03222e-06
-1.2225e-05
-3.71972e-06
-7.60295e-07
-1.15303e-05
-3.29293e-06
-6.30585e-07
-1.08103e-05
-2.85285e-06
-4.82e-07
-1.00649e-05
-2.38051e-06
-3.75126e-07
-9.32584e-06
-1.89266e-06
-3.16205e-07
-8.58095e-06
-1.34957e-06
-2.81657e-07
-7.81962e-06
-6.86491e-07
-1.90568e-07
-7.04023e-06
1.13559e-07
-3.75335e-08
-6.20736e-06
8.86258e-07
1.74717e-07
4.42958e-07
0.000151866
0.000324369
-0.000118358
0.000210773
0.000541324
-5.7224e-05
0.000172806
0.000427821
-2.32849e-05
5.48354e-05
0.000421965
4.60434e-05
-3.739e-05
0.000137631
5.12432e-05
-6.63117e-05
3.9083e-05
-2.0321e-05
-6.90645e-05
2.71759e-05
-4.33604e-05
-5.9848e-05
3.28244e-05
-2.45036e-05
-6.25232e-05
2.29565e-05
-3.85022e-05
-5.34384e-05
2.21766e-05
-1.44788e-05
-4.12318e-05
2.58095e-05
-3.48854e-05
-3.77348e-05
1.1891e-05
-1.70032e-05
-3.54542e-05
2.98853e-06
2.98629e-06
-3.10751e-05
-2.59346e-06
-8.77164e-06
-2.51929e-05
-5.79863e-06
3.56073e-06
-2.60387e-05
-4.62035e-06
-4.8454e-06
-2.12848e-05
-9.02131e-06
1.39511e-06
-2.02819e-05
-6.58887e-06
-3.7948e-06
-1.91383e-05
-7.43294e-06
-5.08179e-07
-1.77883e-05
-6.4869e-06
-2.72432e-06
-1.68006e-05
-6.30788e-06
-1.43255e-06
-1.644e-05
-5.638e-06
-2.28057e-06
-1.4811e-05
-5.36982e-06
-1.76907e-06
-1.46545e-05
-4.82078e-06
-1.79638e-06
-1.35781e-05
-4.43411e-06
-1.71708e-06
-1.31426e-05
-4.05115e-06
-1.49906e-06
-1.2531e-05
-3.67424e-06
-1.45004e-06
-1.21027e-05
-3.32719e-06
-1.26123e-06
-1.16678e-05
-2.99068e-06
-1.16393e-06
-1.12772e-05
-2.64897e-06
-1.03456e-06
-1.08801e-05
-2.30269e-06
-9.47279e-07
-1.04654e-05
-1.92618e-06
-8.68952e-07
-1.00156e-05
-1.52763e-06
-8.14836e-07
-9.52156e-06
-1.08376e-06
-7.59883e-07
-8.94769e-06
-5.82867e-07
-6.77494e-07
-8.24437e-06
-4.06663e-08
-5.49092e-07
5.06693e-07
-4.05399e-07
0.000108102
0.000328513
-7.22259e-05
0.000152017
0.000556807
-5.93982e-05
0.000180536
0.000458217
-5.89151e-05
0.000145573
0.00047278
-1.58519e-05
7.28133e-05
0.000212789
-2.39849e-06
4.58318e-05
5.11514e-05
1.4913e-05
4.34851e-05
5.48902e-05
-2.53677e-05
4.40126e-05
5.83254e-05
-2.60285e-05
4.17798e-05
4.4511e-05
-1.93217e-05
5.20549e-05
4.03051e-05
-2.84036e-05
4.05575e-05
3.95124e-05
-2.20551e-06
1.45144e-06
1.58529e-05
3.51442e-05
-1.41869e-05
3.86127e-06
1.47656e-05
-2.38182e-05
5.12719e-06
1.91065e-06
-2.22781e-05
-7.59645e-06
2.57762e-07
-2.26255e-05
-3.09091e-06
-1.18204e-06
-2.26384e-05
-7.26413e-06
-1.74428e-06
-2.02281e-05
-6.78345e-06
-2.21578e-06
-1.99126e-05
-5.4995e-06
-2.24893e-06
-1.81086e-05
-6.1766e-06
-2.11428e-06
-1.76539e-05
-4.32586e-06
-2.43671e-06
-1.61274e-05
-5.16415e-06
-2.00038e-06
-1.56811e-05
-3.76632e-06
-2.04979e-06
-1.46606e-05
-3.92777e-06
-1.91352e-06
-1.40244e-05
-3.3707e-06
-1.69966e-06
-1.33271e-05
-3.11284e-06
-1.63556e-06
-1.2722e-05
-2.83893e-06
-1.44039e-06
-1.21538e-05
-2.55527e-06
-1.34013e-06
-1.16387e-05
-2.30097e-06
-1.20482e-06
-1.11532e-05
-2.02604e-06
-1.10846e-06
-1.06862e-05
-1.74977e-06
-1.01986e-06
-1.02184e-05
-1.44254e-06
-9.51516e-07
-9.73496e-06
-1.11523e-06
-8.9581e-07
-9.2191e-06
-7.55822e-07
-8.43799e-07
-8.65363e-06
-3.6651e-07
-7.81829e-07
-8.03437e-06
4.65943e-08
-7.06518e-07
4.14427e-07
-6.0442e-07
0.000138501
0.000285576
-5.11432e-05
0.000189624
0.000541935
-3.62513e-05
0.000187839
0.000484424
-2.44218e-05
9.90323e-05
0.000518726
4.28608e-05
-2.05357e-05
0.000244417
8.79399e-05
-3.52507e-05
5.78778e-05
7.98867e-06
-2.59102e-05
5.4299e-05
-8.74928e-06
-3.78918e-05
5.62543e-05
1.40528e-05
-3.44163e-05
4.0548e-05
4.87485e-07
-3.54549e-05
3.32661e-05
8.07759e-06
-3.60636e-05
2.02697e-05
1.98513e-05
-3.77497e-05
2.57998e-05
-8.26072e-06
-3.51189e-05
8.67509e-06
-7.4446e-06
-3.61264e-05
2.36628e-06
3.76838e-06
-3.33555e-05
-4.9834e-06
-5.38399e-06
-2.6476e-05
-1.42828e-05
4.3124e-06
-2.42239e-05
-6.81284e-06
-2.70336e-06
-1.91249e-05
-1.03864e-05
-1.49608e-06
-1.92798e-05
-3.91152e-06
-1.43317e-06
-1.74618e-05
-6.24757e-06
-1.74704e-06
-1.60453e-05
-3.77875e-06
-1.96353e-06
-1.57747e-05
-3.7296e-06
-1.70519e-06
-1.45983e-05
-3.25997e-06
-1.68274e-06
-1.40262e-05
-2.89833e-06
-1.6016e-06
-1.33377e-05
-2.59266e-06
-1.46644e-06
-1.27332e-05
-2.35777e-06
-1.35959e-06
-1.22002e-05
-2.11034e-06
-1.26159e-06
-1.1701e-05
-1.90375e-06
-1.15072e-06
-1.12394e-05
-1.69628e-06
-1.06633e-06
-1.07956e-05
-1.49157e-06
-9.78211e-07
-1.03572e-05
-1.27979e-06
-9.08391e-07
-9.90502e-06
-1.05186e-06
-8.42889e-07
-9.42269e-06
-8.10358e-07
-7.87201e-07
-8.89656e-06
-5.52113e-07
-7.29837e-07
-8.31451e-06
-2.83831e-07
-6.64727e-07
-7.66513e-06
-1.99678e-08
-5.8282e-07
2.42004e-07
-5.01855e-07
9.93294e-05
0.000275842
-1.01459e-05
0.000145534
0.000546846
-5.1116e-05
0.000180856
0.000496717
-4.76151e-05
0.000189766
0.000500785
9.0312e-06
0.000142844
0.000266786
2.45543e-05
9.67223e-05
0.000127911
-2.39121e-05
6.4289e-05
9.57938e-05
-9.06144e-06
4.14601e-05
9.38778e-05
-1.47946e-05
3.71064e-05
6.74649e-05
-2.25632e-05
3.41265e-05
5.22773e-05
-1.60313e-05
3.39636e-05
4.416e-05
-2.37274e-05
1.66664e-05
3.87265e-05
4.37035e-06
-1.73892e-05
1.38124e-05
2.89183e-05
-2.20112e-05
-4.29393e-06
1.12822e-05
-2.36843e-05
-5.01634e-06
1.70601e-06
-2.21778e-05
-1.90842e-05
3.29492e-06
-1.88308e-05
-5.20811e-06
-4.95172e-06
-1.90975e-05
-1.01112e-05
-8.37399e-09
-1.80948e-05
-1.67585e-06
-3.23841e-06
-1.7019e-05
-5.70752e-06
-1.61581e-06
-1.60895e-05
-1.69976e-06
-3.00854e-06
-1.57497e-05
-2.64244e-06
-1.42694e-06
-1.45112e-05
-1.92207e-06
-2.57636e-06
-1.4166e-05
-1.66533e-06
-1.57824e-06
-1.33164e-05
-1.57308e-06
-1.86914e-06
-1.28038e-05
-1.35433e-06
-1.51612e-06
-1.22083e-05
-1.26027e-06
-1.44553e-06
-1.16982e-05
-1.12444e-06
-1.28943e-06
-1.11987e-05
-1.01613e-06
-1.17965e-06
-1.07211e-05
-8.92992e-07
-1.07612e-06
-1.02459e-05
-7.67107e-07
-9.87936e-07
-9.76099e-06
-6.25721e-07
-9.11028e-07
-9.25312e-06
-4.74489e-07
-8.43744e-07
-8.71444e-06
-3.10947e-07
-7.79838e-07
-8.14148e-06
-1.40405e-07
-7.16386e-07
-7.53772e-06
3.03698e-08
-6.54097e-07
1.78778e-07
-5.79231e-07
9.62796e-05
0.000277082
9.53588e-06
0.000162641
0.000416216
6.42685e-05
0.000154182
0.000414386
9.07899e-05
0.000111804
0.00040123
0.000141933
2.36094e-05
0.00022044
0.000134541
-3.50565e-05
0.000106026
8.05512e-05
-4.18174e-05
6.90323e-05
3.35225e-05
-2.87767e-05
5.96353e-05
2.12017e-05
-2.20992e-05
4.63991e-05
1.43883e-05
-1.22381e-05
3.19823e-05
1.04338e-05
-9.94557e-06
3.00535e-05
1.1814e-05
-1.90373e-05
2.23886e-05
2.54297e-05
-2.5138e-05
2.46059e-05
-4.69277e-06
-4.05358e-05
8.95218e-06
2.15169e-06
-3.52019e-05
-2.85533e-05
1.8203e-05
-2.25615e-05
-2.7457e-05
-4.26762e-06
-2.00614e-05
-1.12376e-05
3.52935e-06
-1.72601e-05
-8.28052e-06
-4.63198e-06
-1.68259e-05
-2.76546e-06
6.55363e-07
-1.60566e-05
-3.9138e-06
-2.563e-06
-1.55983e-05
-8.76257e-07
-1.28183e-06
-1.50643e-05
-1.88187e-06
-1.29455e-06
-1.42888e-05
-9.23543e-07
-1.77403e-06
-1.37406e-05
-9.82893e-07
-1.23067e-06
-1.30886e-05
-8.19392e-07
-1.40567e-06
-1.25351e-05
-7.19033e-07
-1.18876e-06
-1.19991e-05
-6.55253e-07
-1.14105e-06
-1.14999e-05
-5.84144e-07
-1.03949e-06
-1.10226e-05
-5.26108e-07
-9.67321e-07
-1.05561e-05
-4.6495e-07
-8.94548e-07
-1.00881e-05
-4.02237e-07
-8.32812e-07
-9.6049e-06
-3.33723e-07
-7.75244e-07
-9.0963e-06
-2.61042e-07
-7.22039e-07
-8.55452e-06
-1.83802e-07
-6.68925e-07
-7.97618e-06
-1.04714e-07
-6.14039e-07
-7.36481e-06
-2.75558e-08
-5.53443e-07
4.63243e-08
-4.93531e-07
1.1707e-05
0.00019759
0.000109429
0.000318494
0.000199137
0.000324677
0.000263826
0.000336541
0.000240466
0.0002438
0.000185437
0.000161054
0.000134826
0.000119643
0.000113558
8.09035e-05
0.000106091
5.38664e-05
9.70087e-05
4.10644e-05
7.98327e-05
4.72294e-05
6.04124e-05
4.1809e-05
7.5045e-05
9.97334e-06
6.76338e-05
1.63634e-05
2.07897e-05
1.82908e-05
-6.80122e-06
1.33885e-07
-9.77521e-06
-8.26358e-06
-1.19067e-05
-6.14908e-06
-1.48222e-05
1.50073e-07
-1.38596e-05
-4.87635e-06
-1.58138e-05
1.07792e-06
-1.40744e-05
-3.62126e-06
-1.44246e-05
-5.73346e-07
-1.34418e-05
-1.96572e-06
-1.30273e-05
-1.23384e-06
-1.24224e-05
-1.32401e-06
-1.19147e-05
-1.1629e-06
-1.14153e-05
-1.08351e-06
-1.09393e-05
-1.00218e-06
-1.04707e-05
-9.33524e-07
-9.99876e-06
-8.74174e-07
-9.51101e-06
-8.21479e-07
-8.99917e-06
-7.72883e-07
-8.45841e-06
-7.24558e-07
-7.88818e-06
-6.74949e-07
-7.29235e-06
-6.23378e-07
-5.67771e-07
-0.000347341
-9.07291e-05
0.000131132
-0.00027339
-0.000332203
-9.21259e-05
-0.000130689
-4.44425e-05
-1.00206e-05
-0.000164935
4.01725e-05
-0.000229354
-2.48432e-05
-0.000134
0.00010677
2.39732e-05
1.04925e-05
-6.80823e-05
2.46886e-05
-8.35115e-06
2.63559e-05
1.58646e-05
9.25737e-07
5.02786e-05
3.77373e-06
3.27395e-06
3.9553e-05
-9.59129e-07
-5.78292e-07
2.65008e-05
-1.14486e-06
-4.69401e-06
1.96877e-05
-1.24758e-07
-5.49687e-06
1.51786e-05
2.04665e-06
-6.08655e-06
1.51421e-05
3.54248e-06
-5.8811e-06
1.34464e-05
6.89073e-06
-8.78427e-06
1.37876e-05
1.04652e-05
-9.07557e-06
1.21848e-05
1.40989e-05
-9.52098e-06
1.2296e-05
1.80382e-05
-9.80618e-06
1.11694e-05
2.28256e-05
-1.0124e-05
1.34398e-05
2.76981e-05
-9.69626e-06
8.01279e-06
3.25622e-05
-7.8496e-06
4.45249e-06
3.6295e-05
-6.44544e-06
4.70834e-06
3.84532e-05
-5.49271e-06
6.01424e-06
3.96641e-05
-5.21259e-06
8.26214e-06
4.05965e-05
-5.04064e-06
9.27471e-06
4.21543e-05
-4.93527e-06
7.11939e-06
4.3747e-05
-4.43563e-06
5.47201e-06
4.51203e-05
-3.58885e-06
5.00689e-06
4.68952e-05
-3.08269e-06
2.41217e-06
4.77474e-05
-2.56432e-06
2.22399e-06
4.71382e-05
-1.91309e-06
5.65689e-06
4.72304e-05
-2.05544e-06
5.87479e-06
4.77494e-05
-2.88161e-06
6.01068e-06
4.77422e-05
-4.0823e-06
9.69994e-06
4.88313e-05
-4.93221e-06
9.81274e-06
4.89769e-05
-4.28185e-06
9.69449e-06
4.62506e-05
-3.27579e-06
1.42601e-05
-2.17062e-06
1.27142e-05
-5.12903e-05
-0.000146555
-0.000702414
-0.0001923
1.78854e-05
6.10543e-05
-0.000173371
-0.000116651
-0.000334857
-7.50167e-05
3.09315e-05
-3.57486e-05
-6.67884e-05
-7.89827e-05
-4.85913e-05
-6.34357e-05
1.18958e-05
-4.63836e-05
-4.25435e-05
-1.09223e-05
-2.17625e-05
-3.44119e-05
-9.65563e-07
-2.56383e-05
-3.19021e-05
2.58963e-06
6.74579e-06
-2.8045e-05
-1.61555e-06
-3.36152e-06
-2.84372e-05
-3.80236e-06
-1.58895e-06
-2.85747e-05
-5.45536e-06
3.18995e-06
-2.80098e-05
-6.74828e-06
2.85399e-06
-2.79655e-05
-6.46024e-06
7.84961e-06
-2.49645e-05
-1.02515e-05
6.86098e-06
-2.30864e-05
-1.10254e-05
3.87559e-06
-2.017e-05
-1.20068e-05
2.19859e-06
-1.81781e-05
-1.26604e-05
1.04179e-06
-1.55472e-05
-1.23875e-05
-3.3417e-08
-1.28301e-05
-1.25487e-05
-6.43746e-08
-1.00339e-05
-1.06442e-05
-2.66928e-08
-6.62443e-06
-9.82432e-06
-4.91487e-07
-3.17914e-06
-9.01561e-06
-9.63882e-07
-1.90645e-07
-7.95321e-06
-9.45817e-07
2.66358e-06
-7.47112e-06
-1.77167e-06
5.23692e-06
-6.77056e-06
-2.56951e-06
7.65837e-06
-5.91657e-06
-3.21896e-06
1.00442e-05
-4.95738e-06
-3.24807e-06
1.19483e-05
-4.17541e-06
-2.66965e-06
1.30312e-05
-3.40955e-06
-1.10956e-06
1.33144e-05
-2.7877e-06
1.30784e-06
1.25977e-05
-2.94788e-06
3.72484e-06
1.11519e-05
-4.05957e-06
5.39845e-06
9.85383e-06
-5.65982e-06
5.31098e-06
9.34339e-06
-6.62839e-06
3.3739e-06
9.78479e-06
-5.71941e-06
5.23273e-10
1.15128e-05
-3.15497e-06
-6.58139e-06
-1.29134e-05
0.000100083
0.000232869
-6.85532e-05
1.12304e-05
-6.40977e-05
-5.41572e-05
-8.74683e-05
-1.12999e-05
3.39639e-05
-5.53855e-05
3.56059e-05
-0.000132504
-4.97446e-05
-4.8275e-05
-1.93331e-05
-4.56921e-05
1.10999e-05
-1.3859e-05
-3.33345e-05
-7.4379e-06
-2.76701e-05
-3.11347e-05
-5.28377e-06
-1.99315e-05
-2.82492e-05
-1.05909e-06
-1.3872e-05
-2.93536e-05
1.00674e-06
-1.69133e-05
-2.74687e-05
-4.15211e-06
-1.84656e-05
-2.6516e-05
-5.99581e-06
-1.29246e-05
-2.4758e-05
-5.74702e-06
-1.73673e-05
-2.16848e-05
-1.10493e-05
-1.34995e-05
-2.07172e-05
-8.02113e-06
-4.3363e-06
-1.97498e-05
-1.09256e-05
6.80584e-06
-1.94926e-05
-7.78988e-06
-7.78737e-07
-2.02327e-05
-1.28805e-05
2.0266e-07
-2.03805e-05
-1.02539e-05
-4.62192e-06
-1.85099e-05
-1.20553e-05
-1.02763e-06
-1.72507e-05
-1.0648e-05
-4.45313e-06
-1.54744e-05
-9.28637e-06
-4.47405e-06
-1.30298e-05
-9.38719e-06
-4.43944e-06
-1.08575e-05
-8.01865e-06
-5.12118e-06
-8.57997e-06
-7.55209e-06
-5.05297e-06
-6.41313e-06
-6.83914e-06
-5.13502e-06
-4.35123e-06
-6.0446e-06
-4.82867e-06
-2.43383e-06
-5.29128e-06
-4.32026e-06
-8.32067e-07
-4.62916e-06
-3.65924e-06
3.83032e-07
-3.99649e-06
-2.92131e-06
1.16635e-06
-3.44244e-06
-2.42183e-06
1.41409e-06
-3.24681e-06
-2.83006e-06
1.17791e-06
-3.41664e-06
-4.33508e-06
8.06864e-07
-3.65504e-06
-6.69469e-06
8.59899e-07
-3.42839e-06
-9.51337e-06
2.04476e-06
-2.22217e-06
-1.25457e-05
-1.9922e-07
-1.5264e-05
0.000141415
0.000114847
0.000138445
-1.78862e-05
0.000119712
-0.000130271
-6.04218e-05
-1.66562e-05
-1.14152e-05
-8.50427e-05
0.000125658
-9.21956e-05
-6.89939e-05
-4.27941e-05
-4.54011e-05
-3.42995e-05
-2.71992e-06
-4.88164e-06
-3.29846e-05
-4.48556e-06
-5.83717e-06
-2.6572e-05
-7.56557e-06
-1.62584e-05
-2.76156e-05
9.36278e-09
-8.28965e-06
-2.65321e-05
5.17942e-06
-5.52906e-06
-2.42943e-05
-5.32106e-06
-4.82273e-06
-2.55489e-05
-2.46176e-06
-1.10125e-05
-2.41284e-05
-3.2403e-06
-1.06202e-06
-2.49576e-05
-8.36534e-06
-1.3611e-05
-2.5346e-05
-3.74938e-06
-9.21717e-06
-2.49114e-05
-1.06206e-05
-5.80334e-06
-2.37964e-05
-5.49071e-06
-7.71145e-06
-2.28574e-05
-1.06074e-05
-2.79671e-06
-2.296e-05
-9.35002e-06
-6.02206e-06
-2.18723e-05
-9.84363e-06
-4.99086e-06
-2.12585e-05
-9.16986e-06
-3.42619e-06
-1.96041e-05
-8.80085e-06
-5.69077e-06
-1.7969e-05
-8.07481e-06
-3.64593e-06
-1.66582e-05
-7.56733e-06
-4.77793e-06
-1.47706e-05
-6.91947e-06
-4.23815e-06
-1.32699e-05
-6.36281e-06
-4.45911e-06
-1.15519e-05
-5.72091e-06
-4.3983e-06
-9.8977e-06
-5.09801e-06
-4.39962e-06
-8.29078e-06
-4.51306e-06
-4.331e-06
-6.72376e-06
-3.95685e-06
-4.26636e-06
-5.13486e-06
-3.45759e-06
-4.33081e-06
-3.59169e-06
-3.09868e-06
-4.58155e-06
-2.13885e-06
-2.85023e-06
-5.04062e-06
-7.09195e-07
-2.57169e-06
-5.76624e-06
9.21377e-07
-1.99849e-06
-6.66466e-06
3.05444e-06
-9.0632e-07
-7.26433e-06
5.12622e-07
-7.17221e-06
0.000107962
1.9167e-05
-1.71608e-05
7.53282e-05
0.000150633
-4.05315e-05
2.90932e-05
6.74068e-05
-9.01298e-05
8.84571e-06
0.000142571
2.57511e-05
-3.13275e-05
3.37831e-05
-5.79761e-05
-3.79821e-05
-1.46302e-05
3.97715e-05
-2.08418e-05
-6.29939e-06
-1.03525e-05
-2.9058e-05
4.29382e-06
-1.63487e-05
-2.55404e-05
2.48835e-06
2.24729e-06
-2.59178e-05
4.96263e-06
-1.83108e-05
-2.88205e-05
2.07389e-06
-3.46195e-06
-2.76108e-05
-7.08389e-08
-5.89411e-06
-2.76529e-05
-4.10122e-06
-6.57389e-06
-2.588e-05
-5.23743e-06
5.83368e-06
-2.28761e-05
-6.40314e-06
-6.4408e-06
-2.14307e-05
-8.33106e-06
5.49119e-06
-1.99577e-05
-7.84124e-06
-4.3037e-06
-1.89512e-05
-8.28218e-06
5.22884e-07
-1.85154e-05
-9.26527e-06
-1.49621e-06
-1.85399e-05
-8.2509e-06
-2.30588e-06
-1.80146e-05
-7.89089e-06
-3.17059e-06
-1.74304e-05
-7.90459e-06
-5.81373e-07
-1.69166e-05
-6.89307e-06
-4.15644e-06
-1.60075e-05
-6.66927e-06
-1.13797e-06
-1.52442e-05
-6.14813e-06
-2.76341e-06
-1.4367e-05
-5.63465e-06
-1.74178e-06
-1.33734e-05
-5.22805e-06
-1.921e-06
-1.23493e-05
-4.73173e-06
-1.56184e-06
-1.1254e-05
-4.29229e-06
-1.42624e-06
-1.01387e-05
-3.83938e-06
-1.26865e-06
-8.98614e-06
-3.41334e-06
-1.21012e-06
-7.8813e-06
-2.99165e-06
-1.19972e-06
-6.82922e-06
-2.59935e-06
-1.30231e-06
-5.77575e-06
-2.15265e-06
-1.54187e-06
-4.65236e-06
-1.54105e-06
-1.68036e-06
-3.38504e-06
-6.64214e-07
-1.40822e-06
-1.94633e-06
3.16577e-07
-7.43225e-07
1.22654e-06
3.0528e-07
3.61789e-05
-3.54933e-05
-0.000144102
5.45508e-05
0.000151717
-6.82581e-05
2.56922e-05
0.000110148
-5.08353e-05
1.56582e-05
0.000136823
1.12752e-05
1.16524e-05
6.88906e-06
0.000102433
-1.18179e-05
3.75273e-05
4.87719e-05
-1.84632e-05
7.74237e-06
8.40437e-06
-2.29298e-05
1.90688e-05
-6.42792e-06
-2.39e-05
1.32905e-05
7.20638e-06
-2.37762e-05
9.88422e-06
-1.35029e-05
-2.47211e-05
1.14903e-05
-2.41095e-06
-2.14632e-05
-1.1043e-06
-7.65751e-07
-2.38475e-05
-2.64608e-06
-1.03733e-05
-2.38418e-05
-3.00901e-06
-5.57358e-06
-2.45942e-05
-5.3235e-06
-7.26421e-06
-2.48647e-05
-6.04552e-06
-7.62435e-06
-2.31327e-05
-7.25321e-06
-4.03987e-06
-2.22054e-05
-7.72569e-06
-6.96017e-06
-2.09254e-05
-7.86299e-06
-4.57082e-06
-1.97105e-05
-7.47142e-06
-4.90312e-06
-1.84996e-05
-7.24476e-06
-4.00796e-06
-1.77535e-05
-6.57788e-06
-5.21247e-06
-1.65543e-05
-6.08434e-06
-2.73754e-06
-1.58285e-05
-5.68498e-06
-4.48427e-06
-1.50202e-05
-5.11994e-06
-2.70381e-06
-1.43394e-05
-4.79153e-06
-3.2401e-06
-1.37353e-05
-4.3631e-06
-2.46543e-06
-1.31217e-05
-4.02335e-06
-2.35421e-06
-1.25504e-05
-3.65629e-06
-1.96761e-06
-1.19586e-05
-3.30089e-06
-1.76086e-06
-1.13527e-05
-2.93196e-06
-1.56932e-06
-1.07209e-05
-2.53422e-06
-1.46433e-06
-1.00855e-05
-2.10653e-06
-1.44442e-06
-9.43542e-06
-1.62175e-06
-1.46264e-06
-8.75181e-06
-1.0236e-06
-1.39162e-06
-7.99384e-06
-2.84575e-07
-1.17515e-06
-7.14196e-06
4.63042e-07
-8.23627e-07
-3.08275e-07
2.11874e-05
1.10624e-05
-0.000196785
3.71702e-05
0.000156816
-7.83054e-05
3.0688e-05
0.000136393
-4.30483e-05
-1.64914e-05
0.000177335
5.2711e-05
-1.68577e-05
9.64661e-06
4.8852e-05
-8.76945e-06
4.35438e-05
-3.44258e-05
-2.10323e-05
1.3995e-05
-3.73501e-05
-2.25828e-05
1.49366e-05
-1.8821e-05
-2.643e-05
1.21403e-05
-3.35048e-05
-2.72734e-05
1.33256e-05
-1.70768e-05
-3.21658e-05
1.70089e-05
-3.55115e-05
-3.39697e-05
7.27361e-07
-1.70309e-05
-3.13724e-05
1.22129e-06
-3.47845e-06
-3.00139e-05
-3.65111e-06
-9.48797e-06
-2.69838e-05
-5.00859e-06
2.1567e-07
-2.51568e-05
-7.34261e-06
-5.37527e-06
-2.22762e-05
-7.63896e-06
-1.09975e-06
-2.09474e-05
-7.79042e-06
-5.05893e-06
-1.95194e-05
-7.16351e-06
-2.63561e-06
-1.85697e-05
-6.81589e-06
-4.32956e-06
-1.7496e-05
-6.28399e-06
-3.46699e-06
-1.66707e-05
-5.85005e-06
-3.83377e-06
-1.57435e-05
-5.26871e-06
-3.51189e-06
-1.49632e-05
-4.88123e-06
-3.38035e-06
-1.42094e-05
-4.37346e-06
-3.2174e-06
-1.35327e-05
-4.0152e-06
-2.95209e-06
-1.29386e-05
-3.61513e-06
-2.79215e-06
-1.2411e-05
-3.27354e-06
-2.53863e-06
-1.19399e-05
-2.93373e-06
-2.35759e-06
-1.15066e-05
-2.60329e-06
-2.16542e-06
-1.10884e-05
-2.26685e-06
-2.03065e-06
-1.06604e-05
-1.90813e-06
-1.92301e-06
-1.02041e-05
-1.52429e-06
-1.85344e-06
-9.70208e-06
-1.09937e-06
-1.78424e-06
-9.11934e-06
-6.22226e-07
-1.66161e-06
-8.40437e-06
-1.03133e-07
-1.4455e-06
4.18339e-07
-1.16476e-06
3.62025e-05
5.25804e-05
-0.000113505
4.04239e-05
0.000181952
-8.87556e-05
4.40652e-05
0.000174504
-0.000100667
7.31744e-06
0.000197478
7.5265e-07
-1.22901e-05
1.60414e-05
1.08143e-05
3.026e-06
9.87401e-06
3.32667e-05
-1.94889e-06
9.12014e-06
-1.55179e-05
-9.17388e-06
1.2566e-05
-1.64329e-05
-8.23145e-06
7.4779e-06
-1.56018e-05
-5.15793e-06
1.31489e-05
-3.13004e-05
-1.63835e-05
2.13495e-05
4.67944e-06
-2.10489e-05
8.00717e-06
3.25298e-05
-1.89155e-05
4.95188e-06
8.90157e-06
-2.34583e-05
-2.27785e-07
3.0301e-06
-2.34316e-05
-3.51693e-06
-1.26057e-06
-2.33928e-05
-6.11289e-06
-2.45051e-06
-2.26436e-05
-6.76288e-06
-3.36954e-06
-2.10831e-05
-7.17751e-06
-4.38926e-06
-2.00682e-05
-6.26227e-06
-4.16502e-06
-1.86223e-05
-6.01479e-06
-4.36131e-06
-1.77065e-05
-5.31219e-06
-4.32429e-06
-1.66432e-05
-4.82768e-06
-4.08606e-06
-1.57725e-05
-4.33419e-06
-3.85499e-06
-1.49856e-05
-3.90133e-06
-3.68035e-06
-1.42164e-05
-3.51642e-06
-3.32588e-06
-1.35654e-05
-3.16274e-06
-3.13899e-06
-1.29348e-05
-2.84988e-06
-2.83633e-06
-1.23732e-05
-2.55096e-06
-2.6243e-06
-1.18449e-05
-2.27009e-06
-2.39675e-06
-1.13498e-05
-1.98716e-06
-2.21963e-06
-1.08679e-05
-1.69905e-06
-2.06955e-06
-1.03836e-05
-1.38909e-06
-1.95484e-06
-9.88117e-06
-1.0589e-06
-1.86367e-06
-9.34506e-06
-7.00983e-07
-1.7783e-06
-8.76025e-06
-3.16298e-07
-1.67257e-06
-8.12088e-06
8.45135e-08
-1.53353e-06
4.43527e-07
-1.34218e-06
5.14267e-05
0.000102762
-0.000120375
5.19709e-05
0.00020867
-6.35133e-05
3.01967e-05
0.000202968
-3.11117e-05
-1.47507e-05
0.000215946
6.934e-05
-5.07381e-05
6.83438e-05
7.16249e-05
-4.29694e-05
2.28171e-05
-1.27231e-05
-3.7354e-05
1.72982e-05
-2.25426e-05
-4.17434e-05
2.27711e-05
8.23706e-06
-3.42463e-05
1.45526e-05
-1.40844e-05
-3.14971e-05
1.47175e-05
3.75977e-06
-2.93209e-05
2.43725e-05
1.46521e-05
-3.26517e-05
1.80395e-05
-1.49623e-05
-3.4653e-05
4.96474e-06
-5.4562e-06
-3.58494e-05
1.44564e-06
3.29134e-06
-3.36296e-05
-6.93837e-06
-4.18229e-06
-2.77158e-05
-1.09298e-05
3.21553e-06
-2.39339e-05
-9.8803e-06
-3.36788e-06
-2.11291e-05
-8.11286e-06
-3.36555e-06
-1.93984e-05
-6.16433e-06
-3.26174e-06
-1.80489e-05
-5.21648e-06
-3.89483e-06
-1.69869e-05
-4.54547e-06
-3.79233e-06
-1.61203e-05
-3.69882e-06
-3.70057e-06
-1.52408e-05
-3.42544e-06
-3.47103e-06
-1.44963e-05
-2.94637e-06
-3.30104e-06
-1.37989e-05
-2.65278e-06
-3.02753e-06
-1.3158e-05
-2.36641e-06
-2.7968e-06
-1.25846e-05
-2.11352e-06
-2.57139e-06
-1.20489e-05
-1.88477e-06
-2.35259e-06
-1.15531e-05
-1.66574e-06
-2.16643e-06
-1.1076e-05
-1.44959e-06
-1.9929e-06
-1.06061e-05
-1.2284e-06
-1.84897e-06
-1.01236e-05
-9.93558e-07
-1.72091e-06
-9.61366e-06
-7.46183e-07
-1.60985e-06
-9.06109e-06
-4.8507e-07
-1.49832e-06
-8.45298e-06
-2.16857e-07
-1.37228e-06
-7.78307e-06
4.84128e-08
-1.21663e-06
3.04348e-07
-1.05672e-06
1.9281e-05
0.000129344
-6.89098e-05
4.10789e-05
0.000219969
-8.42138e-05
5.45067e-05
0.000219642
-7.77177e-05
7.01157e-05
0.000212745
-3.37687e-06
4.2663e-05
0.00011267
7.68053e-06
4.25488e-06
4.33406e-05