/*--------------------------------*- C++ -*----------------------------------*\
| =========                 |                                                 |
| \\      /  F ield         | OpenFOAM: The Open Source CFD Toolbox           |
|  \\    /   O peration     | Version:  2.3.1                                 |
|   \\  /    A nd           | Web:      www.OpenFOAM.org                      |
|    \\/     M anipulation  |                                                 |
\*---------------------------------------------------------------------------*/
FoamFile
{
    version     2.0;
    format      ascii;
    class       volScalarField;
    location    "5";
    object      Sed;
}
// * * * * * * * * * * * * * * * * * * * * * * * * * * * * * * * * * * * * * //

dimensions      [0 0 0 0 0 0 0];

internalField   nonuniform List<scalar> 
37632
(
4.23247e-267
8.15812e-269
2.12649e-270
1.33212e-271
3.1117e-272
9.78558e-273
5.78767e-273
2.36392e-273
3.93211e-274
1.42958e-275
3.61495e-278
7.97138e-281
1.59649e-283
4.31272e-286
3.06587e-288
5.46969e-290
2.33864e-291
4.01555e-292
1.93982e-292
1.66585e-292
1.59615e-292
1.47225e-292
1.17567e-292
7.34955e-293
3.82995e-293
1.73754e-293
7.36281e-294
2.96686e-294
1.12579e-294
4.11233e-295
1.40582e-295
4.22068e-296
1.12907e-296
2.78647e-297
6.39068e-298
1.40605e-298
2.91799e-299
5.35276e-300
3.5009e-267
9.35915e-269
3.63979e-270
6.44632e-271
5.61937e-273
1.79023e-274
6.32969e-275
1.73e-275
2.79533e-276
4.49239e-278
1.81394e-280
5.22222e-283
1.28953e-285
3.81701e-288
2.00231e-290
3.63532e-292
3.24118e-293
1.51959e-293
1.1048e-293
1.10962e-293
8.76528e-294
5.95143e-294
3.90255e-294
1.98147e-294
9.19228e-295
3.9091e-295
1.5728e-295
5.96438e-296
2.08997e-296
6.80178e-297
1.96509e-297
4.88595e-298
1.07392e-298
2.22299e-299
4.56434e-300
9.95372e-301
2.11427e-301
4.0592e-302
5.90788e-267
6.8914e-268
3.68319e-269
5.02018e-271
1.33649e-272
6.52765e-275
9.64335e-277
1.1452e-277
9.69029e-279
1.75602e-280
1.07225e-282
4.51588e-285
1.81853e-287
7.73667e-290
1.31551e-291
1.64334e-293
6.55732e-295
5.73181e-295
3.9063e-295
2.94657e-295
2.80644e-295
1.41213e-295
8.31362e-296
4.07562e-296
1.79234e-296
7.40357e-297
2.81757e-297
9.87474e-298
3.17652e-298
9.37417e-299
2.4641e-299
5.72079e-300
1.20866e-300
2.45915e-301
5.17414e-302
1.1876e-302
2.5624e-303
5.53511e-267
1.01422e-267
1.18095e-268
4.68292e-270
1.26954e-271
8.26994e-274
9.81369e-276
1.3215e-278
6.90318e-281
9.70615e-283
4.01013e-285
2.48705e-287
5.36965e-289
6.57877e-291
1.28273e-292
9.48649e-294
2.09747e-295
1.37969e-296
8.46518e-297
3.6136e-297
2.70286e-297
1.45653e-297
6.27524e-298
3.63977e-298
1.41164e-298
6.07447e-299
2.28453e-299
8.03153e-300
2.56232e-300
7.52052e-301
2.0266e-301
4.83072e-302
1.06394e-302
2.2968e-303
5.21164e-304
1.77382e-304
6.12671e-305
3.50038e-267
1.45265e-267
3.27527e-268
3.28013e-269
2.37562e-270
3.89805e-272
6.17156e-274
5.92609e-277
6.33161e-280
1.01369e-282
7.75657e-285
7.97466e-286
3.03522e-287
3.90712e-289
6.41824e-291
5.47698e-292
8.90131e-294
1.88203e-295
2.52856e-297
8.27766e-299
2.51285e-299
7.80223e-300
4.44264e-300
1.36301e-300
5.91397e-301
2.09273e-301
7.69602e-302
2.59875e-302
8.27515e-303
2.46772e-303
6.92661e-304
1.75861e-304
4.28479e-305
1.37911e-305
4.91524e-306
2.52601e-306
1.143e-306
3.96994e-307
1.50006e-267
1.19078e-267
4.09474e-268
8.52201e-269
1.35614e-269
1.43898e-270
1.4198e-272
1.53476e-275
1.8022e-278
4.09545e-281
2.04665e-282
3.09155e-283
1.57007e-285
1.82757e-287
2.7546e-289
2.24202e-290
2.60096e-292
7.30851e-294
7.78565e-296
1.04023e-297
1.04294e-299
2.82148e-301
4.53434e-302
1.38154e-302
3.26417e-303
9.84182e-304
2.50195e-304
7.04725e-305
1.91633e-305
5.22431e-306
1.38348e-306
3.47377e-307
9.15774e-308
2.89062e-308
1.20922e-308
1.49487e-308
1.01957e-308
4.60538e-309
6.73017e-268
7.23338e-268
3.88976e-268
9.30185e-269
8.84953e-270
4.86802e-272
3.03779e-274
6.73875e-276
2.04906e-277
8.18832e-279
7.19025e-280
5.0082e-281
1.15504e-283
6.83028e-286
2.75012e-287
9.30288e-289
9.71044e-291
1.51798e-292
1.39799e-294
1.82472e-296
1.64481e-298
1.4995e-300
1.23341e-302
3.04904e-304
4.74338e-305
9.59528e-306
1.84956e-306
3.56383e-307
7.01796e-308
1.42185e-308
2.96576e-309
6.2146e-310
1.41437e-310
3.87975e-311
1.83276e-311
3.35048e-311
4.61365e-311
3.21349e-268
4.34542e-268
2.86093e-268
8.90714e-269
1.70793e-269
1.58796e-270
7.80617e-272
3.18087e-273
1.23487e-274
4.76509e-276
3.35198e-277
2.82411e-278
6.54786e-281
4.71005e-284
2.86539e-285
9.15137e-287
4.76911e-289
3.53028e-291
2.75793e-293
2.54767e-295
2.23446e-297
1.71424e-299
1.25675e-301
8.91203e-304
6.21635e-306
1.77627e-307
2.28678e-308
3.51109e-309
5.30768e-310
8.16783e-311
1.28131e-311
2.04705e-312
3.46424e-313
6.75833e-314
2.52165e-314
5.06203e-314
1.33538e-313
1.61492e-268
2.64786e-268
2.05973e-268
7.9672e-269
1.29595e-269
2.15452e-271
7.82922e-273
3.11509e-274
9.28828e-276
4.25941e-277
4.22767e-278
1.65455e-279
3.46422e-282
9.95734e-284
2.45508e-283
2.08632e-284
2.50107e-287
7.51648e-290
3.12324e-292
1.91218e-294
1.25344e-296
8.06479e-299
4.96575e-301
2.97651e-303
1.64061e-305
8.80294e-308
7.12198e-310
3.98682e-311
4.90204e-312
6.25026e-313
8.05441e-314
1.05174e-314
1.43292e-315
2.11918e-316
5.13676e-317
1.05722e-316
3.43779e-316
8.2555e-269
1.57731e-268
1.33098e-268
6.88702e-269
1.51304e-269
2.00506e-270
1.63406e-271
7.93289e-273
2.43153e-274
6.73573e-276
2.06678e-277
1.30876e-278
7.18682e-280
2.76845e-281
2.75661e-281
1.4845e-282
1.14968e-285
1.3688e-288
4.0778e-291
1.07936e-293
4.46302e-296
1.51273e-298
7.34085e-301
2.80907e-303
1.21461e-305
4.76707e-308
1.91235e-310
1.11186e-312
4.80303e-314
5.11088e-315
5.68413e-316
6.36612e-317
7.39757e-318
9.05143e-319
1.43669e-319
1.94272e-319
7.45496e-319
4.42954e-269
1.00633e-268
9.18457e-269
4.68752e-269
8.86348e-270
5.46716e-271
2.43537e-272
1.16086e-273
4.83594e-275
5.30351e-276
7.28627e-277
7.52864e-278
7.55099e-279
1.58456e-279
3.42591e-279
7.46683e-281
3.81253e-284
2.5256e-287
1.07751e-290
1.61859e-293
1.70267e-296
2.61678e-299
4.94012e-302
9.33511e-305
2.16652e-307
5.40674e-310
1.57523e-312
7.20867e-315
2.66288e-316
2.65586e-317
2.7315e-318
2.86514e-319
2.11361e-320
1.03754e-322
4.23414e-321
2.99898e-321
6.7687e-321
2.96094e-269
4.9528e-269
4.67113e-269
2.92772e-269
9.23676e-270
2.10098e-270
3.5784e-271
4.55275e-272
5.80307e-273
9.65643e-274
1.76297e-274
2.68603e-275
3.10439e-276
4.25362e-277
4.51323e-278
1.25388e-279
7.40285e-283
2.73553e-286
6.7322e-290
3.41049e-293
8.24014e-297
5.01973e-300
1.77632e-303
1.04893e-306
7.37129e-310
1.05131e-312
2.43538e-315
1.27487e-317
6.13279e-319
4.94115e-320
1.40463e-320
2.97428e-321
1.0741e-320
8.91294e-321
0
0
0
9.17271e-268
5.20576e-269
1.85931e-270
1.92016e-271
1.07599e-272
2.1935e-273
2.12594e-273
1.09367e-273
1.21916e-274
3.02915e-276
1.80979e-278
8.9605e-281
4.34057e-283
3.6956e-285
4.14219e-287
7.25636e-289
1.9967e-290
1.19039e-291
2.67916e-292
1.80857e-292
1.62321e-292
1.38807e-292
1.019e-292
6.23036e-293
3.22475e-293
1.46155e-293
6.12102e-294
2.41279e-294
8.85433e-295
3.06922e-295
9.98313e-296
2.91699e-296
7.78464e-297
1.94777e-297
4.54746e-298
1.02433e-298
2.19738e-299
4.21386e-300
1.08393e-267
1.28089e-268
3.56052e-270
1.38842e-271
3.79278e-273
2.21386e-274
6.44238e-275
2.33282e-275
2.51282e-276
4.46311e-278
4.5299e-280
3.19514e-282
1.7835e-284
9.66852e-287
6.41452e-289
8.62539e-291
3.06323e-292
4.9949e-293
2.8484e-293
2.38063e-293
2.01059e-293
1.44858e-293
8.99044e-294
4.78402e-294
2.25593e-294
9.68927e-295
3.88422e-295
1.45072e-295
4.99945e-296
1.59674e-296
4.61708e-297
1.17637e-297
2.69956e-298
5.79721e-299
1.22535e-299
2.60073e-300
5.16571e-301
9.3264e-302
6.95844e-267
7.65612e-268
2.14741e-269
1.87508e-271
4.23379e-273
4.88192e-275
2.08831e-276
3.68145e-277
3.31992e-278
5.76105e-280
5.86417e-282
4.08237e-284
2.16919e-286
9.86227e-289
5.29567e-291
7.09363e-293
5.98739e-294
2.81165e-294
2.46924e-294
1.74333e-294
1.49281e-294
9.2108e-295
5.00979e-295
2.54551e-295
1.13429e-295
4.69777e-296
1.80059e-296
6.33067e-297
2.03197e-297
5.96878e-298
1.55857e-298
3.56732e-299
7.33459e-300
1.43881e-300
2.89538e-301
5.96252e-302
1.14394e-302
4.07857e-267
5.47043e-268
2.34987e-269
5.1046e-271
2.32961e-272
3.75648e-274
3.54719e-276
2.80789e-278
3.71928e-280
5.94101e-282
5.33085e-284
4.23101e-286
4.96846e-288
9.35473e-290
2.25948e-291
1.99754e-292
5.69397e-294
2.39922e-295
7.22479e-296
3.83852e-296
2.93182e-296
1.67199e-296
8.18315e-297
4.32319e-297
1.87427e-297
7.83027e-298
2.9871e-298
1.04068e-298
3.29792e-299
9.48104e-300
2.4132e-300
5.39933e-301
1.09735e-301
2.16315e-302
4.43903e-303
9.45313e-304
1.96619e-304
9.49277e-268
3.51673e-268
6.33169e-269
5.95399e-270
2.55835e-271
1.61512e-272
9.56511e-275
4.5921e-277
1.75612e-279
6.71585e-282
6.66571e-284
5.90688e-285
2.61182e-286
4.4099e-288
1.60388e-289
9.28528e-291
3.21904e-292
6.67188e-294
1.23475e-295
2.40453e-297
4.37314e-298
1.6983e-298
7.62717e-299
3.05659e-299
1.20893e-299
4.57652e-300
1.66986e-300
5.7584e-301
1.84704e-301
5.48131e-302
1.47416e-302
3.52304e-303
7.7771e-304
1.65683e-304
3.63708e-305
8.17447e-306
2.28038e-306
7.90217e-307
1.85291e-268
2.31665e-268
7.18609e-269
1.02434e-269
3.78609e-270
3.29891e-271
1.74114e-273
7.50292e-276
2.99448e-278
1.39777e-280
3.75576e-282
5.8163e-283
1.41364e-284
2.28377e-286
7.81924e-288
4.86513e-289
1.26503e-290
2.65923e-292
4.1568e-294
5.57273e-296
6.29546e-298
9.47232e-300
1.15993e-300
3.29686e-301
9.54137e-302
2.78139e-302
7.49902e-303
2.06771e-303
5.56996e-304
1.48173e-304
3.8074e-305
9.20522e-306
2.09891e-306
4.67776e-307
1.07129e-307
2.53533e-308
1.11949e-308
5.83779e-309
8.21443e-269
1.47152e-268
6.44223e-269
2.01015e-269
1.6416e-270
3.49635e-272
2.59583e-274
2.30236e-276
3.38444e-278
1.20423e-279
1.7368e-280
3.62632e-281
5.33142e-283
6.80968e-285
3.63419e-286
2.65775e-287
4.79379e-289
7.36209e-291
9.07769e-293
1.09893e-294
1.16888e-296
1.11021e-298
9.5747e-301
1.3185e-302
1.45853e-303
3.15564e-304
6.52127e-305
1.34277e-305
2.73606e-306
5.59432e-307
1.13753e-307
2.25587e-308
4.38881e-309
8.56078e-310
1.75219e-310
4.28139e-311
4.331e-311
4.87338e-269
8.50206e-269
4.32738e-269
1.60982e-269
1.94795e-270
1.05688e-271
2.77463e-273
7.81324e-275
2.60073e-276
8.57946e-278
1.31995e-278
4.2802e-279
2.60284e-281
1.86182e-283
2.4283e-284
1.6756e-285
2.14573e-287
2.0903e-289
1.84648e-291
1.73415e-293
1.58916e-295
1.3701e-297
1.08055e-299
8.16917e-302
5.77572e-304
8.75482e-306
9.22999e-307
1.49843e-307
2.41763e-308
3.90584e-309
6.33668e-310
1.02443e-310
1.67393e-311
2.80897e-312
5.09228e-313
1.38323e-313
2.083e-313
3.83246e-269
5.75315e-269
3.94884e-269
2.04905e-269
2.71567e-270
2.04846e-272
2.25089e-274
1.19905e-275
1.80866e-277
2.34127e-278
5.07295e-279
1.90437e-280
2.79825e-282
5.57984e-283
2.13343e-282
1.3818e-283
1.04195e-285
5.53006e-288
2.823e-290
1.67151e-292
1.1059e-294
7.56323e-297
4.98254e-299
3.16088e-301
1.89071e-303
1.07161e-305
6.97908e-308
2.20492e-309
2.65759e-310
3.56969e-311
4.80132e-312
6.48299e-313
9.00667e-314
1.31441e-314
2.16328e-315
7.51022e-316
1.21337e-315
2.52711e-269
3.59805e-269
2.79326e-269
1.59805e-269
2.82354e-270
2.00464e-271
6.46035e-273
1.66673e-274
4.47534e-276
2.32515e-277
1.92647e-278
2.27932e-279
2.82834e-280
8.67433e-281
1.5066e-280
9.45616e-282
4.11907e-284
1.23849e-286
3.63995e-289
1.16408e-291
4.17405e-294
1.68945e-296
7.41259e-299
3.27665e-301
1.44074e-303
6.16622e-306
2.59202e-308
1.27202e-310
3.17264e-312
3.29917e-313
3.83658e-314
4.46374e-315
5.35039e-316
6.8082e-317
1.02106e-317
4.14895e-318
6.27791e-318
1.96526e-269
3.52806e-269
3.31854e-269
1.6863e-269
2.38522e-270
1.13344e-271
7.5259e-273
7.03115e-274
1.00722e-274
1.8421e-275
2.82071e-276
3.81391e-277
5.53203e-278
7.33927e-279
8.84711e-279
5.51481e-280
1.19368e-282
1.63419e-285
1.73289e-288
2.21666e-291
2.72016e-294
4.19497e-297
7.23279e-300
1.46729e-302
3.36671e-305
8.83352e-308
2.64158e-310
1.03108e-312
2.18009e-314
2.09855e-315
2.25836e-316
2.40682e-317
2.65333e-318
4.14111e-319
2.41796e-320
2.54938e-321
2.12349e-320
2.22312e-269
3.52181e-269
3.37374e-269
2.15757e-269
7.17704e-270
1.86315e-270
3.5744e-271
5.50463e-272
8.40768e-273
1.53437e-273
3.12885e-274
5.65201e-275
8.21373e-276
1.167e-276
1.50383e-277
9.12532e-279
2.23576e-281
1.50274e-284
6.8068e-288
3.2437e-291
1.32465e-294
6.06514e-298
2.73321e-301
1.49473e-304
1.1919e-307
1.84445e-310
4.57318e-313
1.88949e-315
5.95579e-317
5.82447e-318
5.84045e-319
4.10766e-320
1.41105e-320
1.54297e-320
7.10466e-321
0
3.45846e-321
3.83489e-268
5.83027e-269
3.54907e-270
5.33145e-271
2.39102e-272
3.20429e-273
4.97384e-274
2.21963e-274
1.65466e-275
3.42881e-277
3.28648e-279
3.02719e-281
3.1483e-283
4.12139e-285
6.34655e-287
1.33684e-288
4.24019e-290
2.50108e-291
4.04752e-292
2.13887e-292
1.78307e-292
1.44936e-292
1.01258e-292
5.94571e-293
3.01159e-293
1.36008e-293
5.6527e-294
2.18468e-294
7.81779e-295
2.58619e-295
7.85166e-296
2.17805e-296
5.63648e-297
1.36767e-297
3.13774e-298
7.03261e-299
1.48692e-299
2.85593e-300
3.21632e-268
4.91385e-269
1.66581e-270
8.82726e-272
1.26033e-272
3.39525e-274
2.69062e-275
6.53947e-276
4.75396e-277
1.00304e-278
1.37402e-280
1.50141e-282
1.4187e-284
1.31947e-286
1.39125e-288
2.32473e-290
8.60664e-292
9.97061e-293
4.34302e-293
3.36993e-293
2.74176e-293
1.94018e-293
1.16773e-293
6.08735e-294
2.83881e-294
1.20832e-294
4.76295e-295
1.73466e-295
5.79312e-296
1.76831e-296
4.91102e-297
1.23262e-297
2.80505e-298
5.90879e-299
1.2114e-299
2.44044e-300
4.49013e-301
7.82629e-302
1.26449e-267
1.20074e-268
4.64896e-270
7.13905e-272
1.90197e-273
3.3178e-275
9.90217e-277
1.15958e-277
6.55903e-279
1.42073e-280
1.77557e-282
1.76297e-284
1.43453e-286
1.15669e-288
1.16646e-290
2.60661e-292
1.97184e-293
5.8986e-294
4.39341e-294
3.4385e-294
2.56205e-294
1.59017e-294
8.51879e-295
4.10936e-295
1.81122e-295
7.30842e-296
2.72128e-296
9.24507e-297
2.8515e-297
7.97301e-298
2.008e-298
4.5136e-299
9.10615e-300
1.73993e-300
3.33539e-301
6.21956e-302
1.03135e-302
1.30994e-267
8.53942e-269
2.93009e-270
7.2259e-272
2.30637e-273
1.09383e-274
9.79848e-277
8.72996e-279
1.0051e-280
1.43783e-282
1.58952e-284
1.67642e-286
2.58568e-288
6.53211e-290
9.21193e-291
1.13075e-291
5.51207e-293
1.70618e-294
1.94311e-295
1.02538e-295
6.6666e-296
3.85564e-296
1.89716e-296
8.88427e-297
3.79932e-297
1.48607e-297
5.34834e-298
1.74945e-298
5.17011e-299
1.37895e-299
3.29542e-300
7.01208e-301
1.35192e-301
2.55595e-302
4.97758e-303
9.33316e-304
1.59348e-304
3.25172e-268
6.38927e-269
5.42935e-270
7.45766e-271
3.68631e-272
1.94886e-273
1.61405e-275
1.19187e-277
7.06294e-280
3.49734e-282
2.93444e-284
2.56585e-285
1.09042e-286
3.22925e-288
5.16174e-289
5.85913e-290
2.89351e-291
7.62411e-293
1.59774e-294
2.63002e-296
1.60987e-297
5.79975e-298
2.43036e-298
9.41533e-299
3.53424e-299
1.2035e-299
3.8728e-300
1.16954e-300
3.29981e-301
8.58715e-302
2.02545e-302
4.32799e-303
8.5673e-304
1.71563e-304
3.62137e-305
7.1415e-306
1.29016e-306
2.93931e-307
7.1699e-269
4.04861e-269
5.99851e-270
1.28506e-270
7.18214e-271
2.64966e-272
1.94028e-274
1.21861e-276
7.23635e-279
4.15316e-281
8.99193e-283
1.6206e-283
5.62034e-285
1.36066e-286
2.23946e-287
2.78441e-288
1.19029e-289
3.00157e-291
5.66231e-293
8.5733e-295
1.07986e-296
1.28433e-298
6.29862e-300
1.56828e-300
4.67787e-301
1.26707e-301
3.16577e-302
7.51594e-303
1.69399e-303
3.65725e-304
7.43327e-305
1.426e-305
2.63823e-306
5.09046e-307
1.04572e-307
1.99438e-308
3.6523e-309
1.3301e-309
3.1458e-269
2.50874e-269
6.48815e-270
3.07002e-270
1.73861e-271
3.44607e-273
3.20694e-275
2.74972e-277
3.14171e-279
1.08667e-280
2.25093e-281
7.31112e-282
1.90847e-283
3.86216e-285
1.00344e-285
1.35467e-286
4.60731e-288
9.25055e-290
1.4128e-291
1.89415e-293
2.24194e-295
2.36335e-297
2.21391e-299
2.22798e-301
1.12663e-302
2.20211e-303
4.51128e-304
8.67276e-305
1.57009e-305
2.72208e-306
4.48279e-307
7.05732e-308
1.0959e-308
1.79134e-309
3.13378e-310
5.30728e-311
1.50689e-311
1.21797e-269
1.37994e-269
4.55303e-270
2.35319e-270
1.92945e-271
7.87193e-273
1.18998e-274
2.25957e-276
7.70012e-278
2.68553e-279
9.54898e-280
3.69058e-280
5.25713e-282
8.45057e-284
5.45441e-284
6.91909e-285
1.88276e-286
2.61776e-288
2.96189e-290
3.14938e-292
3.16974e-294
3.01295e-296
2.64767e-298
2.17009e-300
1.64714e-302
1.59899e-304
9.38506e-306
1.44622e-306
2.24018e-307
3.31363e-308
4.66968e-309
6.32265e-310
8.52102e-311
1.20863e-311
1.83254e-312
2.9557e-313
1.09552e-313
1.82946e-269
1.23264e-269
6.78547e-270
3.93366e-270
2.72275e-271
1.87924e-273
1.39438e-275
5.31595e-277
3.13925e-278
3.41505e-279
5.40559e-280
4.51795e-281
3.14035e-282
9.98837e-283
4.14143e-282
4.3085e-283
9.04278e-285
7.25303e-287
5.12815e-289
3.64794e-291
2.69541e-293
1.98719e-295
1.4275e-297
9.77551e-300
6.37202e-302
3.91367e-304
2.41226e-306
3.71699e-308
3.54294e-309
4.59736e-310
5.7849e-311
7.0161e-312
8.48565e-313
1.07487e-313
1.45854e-314
2.53535e-315
1.03301e-315
1.00462e-269
9.32986e-270
5.42711e-270
2.36197e-270
3.05563e-271
1.72317e-272
5.75018e-274
3.18563e-275
4.39023e-276
6.67695e-277
8.41098e-278
9.24544e-279
7.69554e-280
1.6794e-280
2.92254e-280
2.89249e-281
4.26416e-283
1.61496e-285
6.01917e-288
2.40893e-290
1.03784e-292
4.78141e-295
2.28857e-297
1.10162e-299
5.2551e-302
2.44044e-304
1.10629e-306
5.20017e-309
6.71966e-311
5.72817e-312
6.5195e-313
7.25041e-314
8.0386e-315
9.27423e-316
1.16103e-316
2.21771e-317
9.09274e-318
9.10053e-270
1.12377e-269
9.30942e-270
3.5077e-270
4.64504e-271
4.35223e-272
6.8758e-273
1.0845e-273
2.06798e-274
4.26158e-275
7.89115e-276
1.27623e-276
1.60768e-277
1.87071e-278
1.50132e-278
1.86882e-279
2.3669e-281
3.56143e-284
4.68075e-287
6.56662e-290
9.6681e-293
1.64365e-295
3.11895e-298
6.66665e-301
1.60897e-303
4.43071e-306
1.39082e-308
5.16841e-311
5.8174e-313
4.66603e-314
5.01729e-315
5.27014e-316
5.51131e-317
5.98916e-318
6.99108e-319
1.3947e-319
5.06813e-320
1.44236e-269
2.12316e-269
2.05999e-269
1.33147e-269
4.76601e-270
1.36902e-270
2.9797e-271
5.17984e-272
9.32111e-273
1.99689e-273
4.63954e-274
9.63022e-275
1.5989e-275
2.34037e-276
3.39242e-277
3.08887e-278
6.26174e-280
4.39377e-283
1.85087e-286
7.70468e-290
3.14552e-293
1.38057e-296
6.63748e-300
4.22955e-303
4.61426e-306
9.23699e-309
2.59724e-311
9.79444e-314
1.72563e-315
1.57029e-316
1.63257e-317
1.64931e-318
1.59623e-319
1.23319e-320
1.11758e-320
5.20745e-321
3.35965e-321
2.23008e-268
4.05207e-269
3.72473e-270
1.68726e-270
2.9311e-271
1.70077e-272
2.25964e-274
2.97914e-275
1.85817e-276
3.92889e-278
5.75429e-280
8.18004e-282
1.26879e-283
2.29288e-285
4.62301e-287
1.19826e-288
4.77251e-290
3.38842e-291
5.36751e-292
2.54257e-292
2.03394e-292
1.59454e-292
1.06849e-292
6.10552e-293
3.0512e-293
1.37334e-293
5.67238e-294
2.1574e-294
7.51788e-295
2.37245e-295
6.78977e-296
1.80202e-296
4.48015e-297
1.03931e-297
2.3217e-298
5.06794e-299
1.03329e-299
1.94318e-300
2.24245e-268
1.17711e-269
6.95725e-271
8.8341e-272
4.52798e-272
1.20456e-273
3.14969e-275
1.58433e-276
6.89387e-278
1.67229e-279
2.87229e-281
4.13767e-283
5.34536e-285
7.06064e-287
1.06817e-288
2.50509e-290
1.23354e-291
1.48904e-292
5.89795e-293
4.39626e-293
3.50133e-293
2.43331e-293
1.4305e-293
7.31559e-294
3.36403e-294
1.41402e-294
5.46547e-295
1.93692e-295
6.23646e-296
1.81549e-296
4.82805e-297
1.18046e-297
2.62705e-298
5.41704e-299
1.08455e-299
2.06395e-300
3.59339e-301
7.3067e-302
6.02846e-268
3.68308e-269
1.48432e-270
2.97143e-272
1.62636e-273
4.26609e-275
9.01322e-277
3.49654e-278
1.11005e-279
2.48809e-281
3.76148e-283
4.9071e-285
5.5895e-287
6.79878e-289
1.13068e-290
4.14066e-292
3.68587e-293
9.7564e-294
6.69445e-294
5.22181e-294
3.77778e-294
2.3004e-294
1.19804e-294
5.61802e-295
2.40847e-295
9.44139e-296
3.38777e-296
1.10424e-296
3.24415e-297
8.60282e-298
2.08486e-298
4.58024e-299
9.05114e-300
1.69115e-300
3.09726e-301
5.13902e-302
8.02664e-303
5.40946e-268
1.90685e-269
5.73902e-271
1.35187e-272
4.34881e-274
1.30696e-275
1.62472e-277
1.69777e-279
2.08672e-281
2.87063e-283
3.59151e-285
4.52043e-287
8.1532e-289
3.65264e-290
1.57785e-290
2.94363e-291
1.94773e-292
6.69999e-294
4.46985e-295
1.88583e-295
1.18644e-295
6.5126e-296
3.10308e-296
1.38264e-296
5.60072e-297
2.0706e-297
6.98542e-298
2.12556e-298
5.81325e-299
1.44165e-299
3.24609e-300
6.56134e-301
1.20456e-301
2.14327e-302
3.74644e-303
5.90067e-304
9.45003e-305
2.53484e-268
1.56798e-269
5.04973e-271
5.86947e-272
6.47455e-273
1.65151e-274
1.9083e-276
1.83203e-278
1.49466e-280
1.05944e-282
1.04762e-284
6.34333e-286
2.89479e-287
1.50336e-288
7.82348e-289
1.48698e-289
1.03422e-290
3.29279e-292
7.75126e-294
1.35898e-295
4.41225e-297
1.1555e-297
4.63257e-298
1.79572e-298
6.43765e-299
2.08639e-299
6.23951e-300
1.69708e-300
4.20981e-301
9.56344e-302
2.00072e-302
3.80344e-303
6.6829e-304
1.15402e-304
1.9497e-305
3.0395e-306
5.19645e-307
8.99164e-308
1.09258e-268
5.27213e-270
3.02379e-271
1.03846e-271
1.09669e-271
1.65453e-273
1.56195e-275
1.31197e-277
1.05851e-279
8.43131e-282
1.7378e-283
2.75423e-284
1.1753e-285
4.7329e-287
2.78917e-287
6.36115e-288
4.27133e-289
1.31623e-290
2.86134e-292
4.90909e-294
6.96304e-296
8.48275e-298
2.0412e-299
3.81771e-300
1.13431e-300
3.06521e-301
7.63887e-302
1.72648e-302
3.58321e-303
6.87813e-304
1.23285e-304
2.03233e-305
3.14288e-306
4.79022e-307
7.0347e-308
9.70386e-309
1.54464e-309
3.03548e-310
5.15185e-269
2.77289e-270
3.00426e-271
3.03254e-271
1.65385e-272
2.63958e-274
3.03716e-276
3.01789e-278
3.62967e-280
1.17411e-281
2.45292e-282
8.98559e-283
3.08717e-284
1.09023e-285
1.0113e-285
2.77496e-286
1.66061e-287
4.17401e-289
7.51523e-291
1.1393e-292
1.50827e-294
1.76594e-296
1.82977e-298
1.79068e-300
4.35741e-302
6.84084e-303
1.44135e-303
2.78108e-304
4.91285e-305
8.0398e-306
1.23324e-306
1.75694e-307
2.37521e-308
3.16157e-309
4.04027e-310
5.26634e-311
1.06238e-311
9.12582e-270
1.44475e-270
2.80781e-271
2.00677e-271
1.32025e-272
4.48781e-274
4.54022e-276
7.81753e-278
3.68548e-279
1.75116e-280
5.31443e-281
3.12357e-281
6.83397e-283
2.30182e-284
4.30401e-284
1.3074e-284
7.0188e-286
1.21744e-287
1.61564e-289
1.93114e-291
2.15911e-293
2.25367e-295
2.1831e-297
1.9602e-299
1.62973e-301
1.40007e-303
4.18861e-305
5.75949e-306
8.9432e-307
1.29898e-307
1.77394e-308
2.2723e-309
2.79091e-310
3.37518e-311
3.98788e-312
5.75902e-313
1.28758e-313
1.49632e-269
2.38277e-270
7.95491e-271
5.34796e-271
1.59227e-272
1.67858e-274
3.76202e-276
3.30234e-277
4.35682e-278
5.45972e-279
6.06134e-280
6.3774e-281
5.05567e-282
8.44093e-283
3.05214e-282
7.95132e-283
3.58537e-284
3.57412e-286
3.00899e-288
2.44843e-290
2.01913e-292
1.6404e-294
1.29935e-296
9.79211e-299
7.01201e-301
4.73821e-303
3.07559e-305
2.96941e-307
1.78279e-308
2.23963e-309
2.79357e-310
3.30224e-311
3.77238e-312
4.25111e-313
4.86963e-314
8.34966e-315
1.86329e-315
5.88485e-270
2.54059e-270
9.81966e-271
3.02598e-271
3.35971e-272
2.66522e-273
2.36282e-274
3.508e-275
6.65864e-276
1.1471e-276
1.75027e-277
2.29658e-278
1.83673e-279
1.78291e-280
2.54955e-280
5.77324e-281
1.90283e-282
8.40609e-285
3.69295e-287
1.69689e-289
8.24996e-292
4.22256e-294
2.22907e-296
1.18292e-298
6.22768e-301
3.19197e-303
1.59176e-305
7.85849e-308
6.24485e-310
3.45976e-311
3.85422e-312
4.26196e-313
4.58407e-314
4.88315e-315
5.59529e-316
1.10483e-316
2.36462e-317
5.20271e-270
3.58595e-270
2.65154e-270
8.04933e-271
1.44002e-271
2.80213e-272
5.76512e-273
1.15377e-273
2.61664e-274
5.91814e-275
1.22106e-275
2.16902e-276
2.78156e-277
2.93576e-278
1.32491e-278
3.4476e-279
1.12183e-280
2.07097e-283
3.1622e-286
5.0472e-289
8.72035e-292
1.70407e-294
3.66984e-297
8.71284e-300
2.31624e-302
6.95106e-305
2.35799e-307
9.06491e-310
6.25911e-312
3.31753e-313
3.52751e-314
3.72237e-315
3.82725e-316
3.90788e-317
4.53837e-318
9.94307e-319
2.44533e-319
9.29687e-270
1.33134e-269
1.30024e-269
8.48255e-270
3.1439e-270
9.1609e-271
2.03436e-271
4.05664e-272
8.65452e-273
2.11307e-273
5.26883e-274
1.15996e-274
2.08347e-275
3.09598e-276
4.66859e-277
5.59688e-278
2.65359e-279
3.67863e-282
1.76502e-285
7.96521e-289
3.5947e-292
1.77787e-295
9.6664e-299
6.8297e-302
7.77635e-305
1.61798e-307
4.84312e-310
1.81409e-312
1.7515e-314
1.25344e-315
1.31426e-316
1.33883e-317
1.32156e-318
1.21313e-319
7.34182e-321
8.5424e-321
5.87444e-321
3.32211e-268
5.34157e-269
1.0589e-269
2.14793e-270
4.21183e-271
5.37183e-272
7.12862e-274
7.85646e-276
2.05252e-277
4.45733e-279
8.51419e-281
1.61814e-282
3.26889e-284
7.30821e-286
1.89854e-287
6.81727e-289
3.85607e-290
3.40967e-291
6.01607e-292
2.90931e-292
2.31185e-292
1.79069e-292
1.17853e-292
6.57168e-293
3.23309e-293
1.4461e-293
5.9247e-294
2.22779e-294
7.59182e-295
2.29986e-295
6.30729e-296
1.61804e-296
3.85451e-297
8.57853e-298
1.86179e-298
3.89142e-299
7.60749e-300
1.38006e-300
2.1481e-268
1.02956e-269
7.1684e-271
8.05679e-272
5.09812e-272
3.59848e-273
9.10891e-275
1.506e-276
2.56072e-278
4.38505e-280
6.95705e-282
1.05291e-283
1.55276e-285
2.47258e-287
5.00824e-289
1.77838e-290
1.23181e-291
1.74791e-292
7.27159e-293
5.43573e-293
4.28969e-293
2.95588e-293
1.71668e-293
8.64192e-294
3.91522e-294
1.62066e-294
6.1372e-295
2.11791e-295
6.57175e-296
1.83083e-296
4.6924e-297
1.11452e-297
2.41252e-298
4.89949e-299
9.65584e-300
1.75209e-300
3.24525e-301
6.39475e-302
3.94323e-268
3.04625e-269
1.26036e-270
2.85444e-272
1.44645e-273
7.42177e-275
1.90167e-276
3.37611e-278
4.98214e-280
7.29363e-282
9.85787e-284
1.32788e-285
1.75715e-287
2.71643e-289
6.99505e-291
4.1774e-292
4.80912e-293
1.36054e-293
9.09233e-294
7.14322e-294
5.09507e-294
3.0653e-294
1.56747e-294
7.15963e-295
2.98022e-295
1.13007e-295
3.90397e-296
1.22e-296
3.41278e-297
8.65095e-298
2.03259e-298
4.38108e-299
8.57112e-300
1.60448e-300
2.86076e-301
4.39558e-302
8.31962e-303
4.68879e-268
2.07797e-269
7.41059e-271
1.69303e-272
2.73513e-274
5.09817e-276
7.78897e-278
9.56488e-280
1.02836e-281
1.01484e-283
1.01901e-285
1.11865e-287
1.78744e-289
1.41532e-290
1.38618e-290
3.60077e-291
3.51283e-292
1.41242e-293
8.273e-295
3.00973e-295
1.80793e-295
9.6452e-296
4.45115e-296
1.88623e-296
7.24443e-297
2.52671e-297
8.01002e-298
2.29127e-298
5.91671e-299
1.39189e-299
3.03392e-300
6.04367e-301
1.1102e-301
1.97444e-302
3.24685e-303
4.6847e-304
8.64829e-305
3.80146e-268
2.19579e-269
7.43913e-271
1.87143e-272
8.2797e-274
1.49792e-275
2.07771e-277
2.58232e-279
2.8586e-281
2.88719e-283
3.46157e-285
1.1361e-286
4.75062e-288
4.94215e-289
5.71721e-289
1.79312e-289
1.78543e-290
6.9709e-292
1.90048e-293
3.68077e-295
9.67561e-297
1.88442e-297
7.18346e-298
2.72476e-298
9.42036e-299
2.96107e-299
8.43963e-300
2.14534e-300
4.93429e-301
1.04127e-301
2.05791e-302
3.76538e-303
6.46878e-304
1.08383e-304
1.65657e-305
2.36151e-306
4.38922e-307
4.84241e-308
2.79298e-268
1.07898e-269
2.82496e-271
1.01777e-272
1.14013e-272
1.06005e-274
1.09509e-276
1.14561e-278
1.18884e-280
1.23885e-282
2.70696e-284
3.28143e-285
1.55889e-286
1.27845e-287
1.72637e-287
7.425e-288
7.24458e-289
2.75901e-290
7.09618e-292
1.38622e-293
2.20832e-295
2.95311e-297
5.37182e-299
6.94088e-300
1.9892e-300
5.43938e-301
1.35769e-301
2.98955e-302
5.9354e-303
1.07734e-303
1.83807e-304
2.95396e-305
4.55671e-306
6.89473e-307
9.48438e-308
1.40457e-308
3.18244e-309
3.39777e-310
9.207e-269
2.42874e-270
6.92084e-272
1.78916e-272
1.11614e-273
1.85558e-275
2.6656e-277
3.12828e-279
4.7068e-281
1.66917e-282
2.57075e-283
7.90486e-284
3.18913e-285
2.70159e-286
5.05577e-286
3.09166e-286
2.70647e-287
8.49357e-289
1.84363e-290
3.25252e-292
4.8882e-294
6.38549e-296
7.32318e-298
7.63079e-300
1.27115e-301
1.4532e-302
3.07534e-303
5.97509e-304
1.04551e-304
1.67288e-305
2.52166e-306
3.62308e-307
5.06951e-308
6.93614e-309
8.98497e-310
1.65929e-310
4.23949e-311
1.0703e-269
4.92168e-271
3.32585e-272
1.11279e-272
7.03902e-274
2.0539e-275
2.55009e-277
8.73238e-279
7.54953e-280
5.84764e-281
7.43132e-282
2.42995e-282
7.27596e-284
7.01762e-285
1.79199e-284
1.40009e-284
1.09481e-285
2.36658e-287
3.79076e-289
5.34003e-291
6.85448e-293
8.0372e-295
8.61413e-297
8.44509e-299
7.66639e-301
6.71761e-303
1.27661e-304
1.42165e-305
2.20011e-306
3.19252e-307
4.37743e-308
5.76397e-309
7.4469e-310
9.43672e-311
1.22815e-311
2.89481e-312
7.27446e-313
1.35477e-269
7.98778e-271
1.10216e-271
4.97648e-272
1.22013e-273
3.88217e-275
2.81777e-276
3.36195e-277
5.12109e-278
6.97778e-279
8.51344e-280
8.30521e-281
5.71525e-282
5.6091e-283
1.21879e-282
8.97092e-283
5.66283e-284
6.97107e-286
6.93726e-288
6.7034e-290
6.39627e-292
5.98405e-294
5.35368e-296
4.49688e-298
3.53864e-300
2.61607e-302
1.83383e-304
1.50056e-306
5.31735e-308
6.20876e-309
7.83235e-310
9.59587e-311
1.15883e-311
1.38684e-312
1.88518e-313
5.26263e-314
1.23125e-314
4.31077e-270
8.52887e-271
2.52104e-271
5.3491e-272
7.31838e-273
1.14339e-273
1.92081e-274
3.68034e-275
7.70427e-276
1.40382e-276
2.30639e-277
3.20867e-278
2.94504e-279
2.13574e-280
1.35152e-280
6.71172e-281
3.35376e-282
2.05375e-284
9.55924e-287
4.9251e-289
2.77428e-291
1.64638e-293
9.96229e-296
5.96136e-298
3.49522e-300
1.97701e-302
1.07865e-304
5.72679e-307
3.68514e-309
1.14704e-310
1.20569e-311
1.38329e-312
1.57554e-313
1.80312e-314
2.60275e-315
7.96393e-316
1.71496e-316
3.40732e-270
1.31981e-270
9.68314e-271
3.17601e-271
8.17337e-272
1.98075e-272
4.48868e-273
1.07392e-273
2.76883e-274
6.55534e-275
1.37879e-275
2.48586e-276
3.43373e-277
3.58898e-278
7.00732e-279
3.70293e-279
2.16797e-280
1.045e-282
1.38996e-285
2.12757e-288
3.8737e-291
8.47719e-294
2.10404e-296
5.73266e-299
1.70336e-301
5.52332e-304
1.97681e-306
7.83702e-309
4.17119e-311
1.20002e-312
1.21052e-313
1.32924e-314
1.44834e-315
1.60499e-316
2.46746e-317
7.83341e-318
1.54782e-318
5.86932e-270
8.6236e-270
8.52349e-270
5.519e-270
2.01996e-270
5.77761e-271
1.32281e-271
2.94725e-272
7.50549e-273
2.03979e-273
5.20367e-274
1.15127e-274
2.11467e-275
3.13547e-276
4.66243e-277
6.42272e-278
4.68861e-279
4.08647e-281
1.93267e-284
7.62596e-288
3.35308e-291
1.8719e-294
1.24366e-297
9.7802e-301
9.75672e-304
1.63306e-306
4.53474e-309
1.66875e-311
1.04228e-313
4.64465e-315
4.83282e-316
5.15899e-317
5.6254e-318
7.49315e-319
8.44012e-320
2.23268e-320
8.55228e-321
2.65686e-268
4.93912e-269
1.09264e-269
2.90352e-270
6.54584e-271
9.34376e-272
3.02273e-273
1.97599e-275
1.2871e-277
1.41544e-279
2.15315e-281
4.07423e-283
8.88224e-285
2.24177e-286
7.14888e-288
3.39091e-289
2.54425e-290
2.83313e-291
5.92342e-292
3.20008e-292
2.5903e-292
1.99987e-292
1.30549e-292