/*--------------------------------*- C++ -*----------------------------------*\
| =========                 |                                                 |
| \\      /  F ield         | OpenFOAM: The Open Source CFD Toolbox           |
|  \\    /   O peration     | Version:  2.3.1                                 |
|   \\  /    A nd           | Web:      www.OpenFOAM.org                      |
|    \\/     M anipulation  |                                                 |
\*---------------------------------------------------------------------------*/
FoamFile
{
    version     2.0;
    format      ascii;
    class       volScalarField;
    location    "5";
    object      Sed_0;
}
// * * * * * * * * * * * * * * * * * * * * * * * * * * * * * * * * * * * * * //

dimensions      [0 0 0 0 0 0 0];

internalField   nonuniform List<scalar> 
37632
(
3.68465e-267
7.60095e-269
2.15018e-270
1.28755e-271
2.98169e-272
9.61712e-273
5.74725e-273
2.30653e-273
3.73465e-274
1.31609e-275
3.28394e-278
7.15199e-281
1.4153e-283
3.89768e-286
2.77373e-288
4.97682e-290
2.20302e-291
3.95175e-292
1.93825e-292
1.66934e-292
1.59965e-292
1.47375e-292
1.17212e-292
7.29976e-293
3.79032e-293
1.71449e-293
7.24765e-294
2.91321e-294
1.10269e-294
4.01751e-295
1.36862e-295
4.09295e-296
1.09121e-296
2.68511e-297
6.1421e-298
1.34803e-298
2.78888e-299
5.09677e-300
3.15862e-267
8.88439e-269
3.38347e-270
6.10174e-271
5.16571e-273
1.74579e-274
6.23528e-275
1.65633e-275
2.48274e-276
4.08038e-278
1.63003e-280
4.63317e-283
1.12894e-285
3.32506e-288
1.75817e-290
3.32126e-292
3.15139e-293
1.5155e-293
1.10436e-293
1.10889e-293
8.74699e-294
5.92257e-294
3.86915e-294
1.95865e-294
9.05983e-295
3.84265e-295
1.54218e-295
5.83245e-296
2.03807e-296
6.61292e-297
1.90368e-297
4.71653e-298
1.03365e-298
2.13436e-299
4.37318e-300
9.51617e-301
2.01479e-301
3.85449e-302
5.29131e-267
6.36292e-268
3.07282e-269
4.16471e-271
1.25103e-272
6.05422e-275
9.02674e-277
1.07279e-277
8.64153e-279
1.57175e-280
9.47082e-283
3.92763e-285
1.56133e-287
6.76552e-290
1.1462e-291
1.46142e-293
6.47071e-295
5.72008e-295
3.89886e-295
2.93241e-295
2.78657e-295
1.39898e-295
8.20571e-296
4.01189e-296
1.7599e-296
7.24982e-297
2.75136e-297
9.61355e-298
3.08344e-298
9.0699e-299
2.37625e-299
5.49932e-300
1.15875e-300
2.35233e-301
4.94025e-302
1.13147e-302
2.43256e-303
4.92565e-267
9.316e-268
1.12091e-268
4.6092e-270
1.26216e-271
7.74729e-274
8.0548e-276
1.09155e-278
5.93538e-281
8.53158e-283
3.49225e-285
2.15919e-287
4.79107e-289
5.85402e-291
1.14539e-292
8.36907e-294
1.87729e-295
1.32732e-296
8.40241e-297
3.58041e-297
2.6689e-297
1.43694e-297
6.16963e-298
3.56818e-298
1.38107e-298
5.92598e-299
2.22227e-299
7.78811e-300
2.47692e-300
7.24789e-301
1.94658e-301
4.62612e-302
1.0164e-302
2.18935e-303
4.95937e-304
1.691e-304
5.81859e-305
3.11669e-267
1.3176e-267
3.04343e-268
3.08959e-269
2.23258e-270
3.70128e-272
4.9429e-274
4.74228e-277
5.10596e-280
8.39344e-283
7.11691e-285
7.3459e-286
2.74633e-287
3.50725e-289
5.72149e-291
4.78084e-292
7.83499e-294
1.64543e-295
2.22379e-297
7.80396e-299
2.46507e-299
7.65149e-300
4.34426e-300
1.3309e-300
5.7593e-301
2.03337e-301
7.45613e-302
2.51035e-302
7.96929e-303
2.36938e-303
6.63009e-304
1.67879e-304
4.08613e-305
1.31549e-305
4.68059e-306
2.40524e-306
1.08342e-306
3.75498e-307
1.35983e-267
1.0891e-267
3.73418e-268
7.67752e-269
1.21053e-269
1.25359e-270
1.12879e-272
1.19362e-275
1.41808e-278
3.53729e-281
1.91207e-282
2.89728e-283
1.43504e-285
1.6501e-287
2.44505e-289
1.9313e-290
2.26424e-292
6.3681e-294
6.79414e-296
9.03779e-298
9.09157e-300
2.64124e-301
4.40024e-302
1.34102e-302
3.16149e-303
9.50892e-304
2.41199e-304
6.77538e-305
1.83756e-305
4.99568e-306
1.31934e-306
3.30507e-307
8.71041e-308
2.74701e-308
1.15387e-308
1.42544e-308
9.65431e-309
4.34702e-309
6.29837e-268
6.71644e-268
3.53457e-268
8.28328e-269
7.7863e-270
4.18109e-272
2.48489e-274
5.35008e-276
1.63438e-277
6.97358e-279
6.60139e-280
4.64204e-281
1.04833e-283
6.19508e-286
2.40015e-287
7.83225e-289
8.23829e-291
1.30899e-292
1.21193e-294
1.58252e-296
1.42336e-298
1.29267e-300
1.06986e-302
2.8541e-304
4.56044e-305
9.21833e-306
1.77241e-306
3.40697e-307
6.6931e-308
1.35275e-308
2.81515e-309
5.88741e-310
1.33917e-310
3.67191e-311
1.74747e-311
3.21594e-311
4.37226e-311
3.07332e-268
4.03811e-268
2.59137e-268
7.97283e-269
1.53042e-269
1.37023e-270
6.50478e-272
2.58223e-273
9.83914e-275
3.85575e-276
2.92664e-277
2.59248e-278
5.46753e-281
4.20686e-284
2.48498e-285
7.5457e-287
3.9748e-289
2.99548e-291
2.36745e-293
2.19882e-295
1.93088e-297
1.47861e-299
1.08034e-301
7.63148e-304
5.38995e-306
1.66304e-307
2.17769e-308
3.33747e-309
5.03369e-310
7.72872e-311
1.20994e-311
1.92947e-312
3.26101e-313
6.35881e-314
2.39013e-314
4.86896e-314
1.26696e-313
1.55948e-268
2.4583e-268
1.88239e-268
7.20915e-269
1.13374e-269
1.77448e-271
6.314e-273
2.47238e-274
7.38607e-276
3.64622e-277
3.87923e-278
1.52981e-279
3.19303e-282
9.35167e-284
2.13469e-283
1.70695e-284
2.05434e-287
6.25498e-290
2.63632e-292
1.63455e-294
1.07632e-296
6.93521e-299
4.26378e-301
2.54873e-303
1.4001e-305
7.50369e-308
6.32209e-310
3.75063e-311
4.62353e-312
5.88307e-313
7.5663e-314
9.86277e-315
1.3417e-315
1.98212e-316
4.83001e-317
1.0175e-316
3.25853e-316
8.10231e-269
1.47243e-268
1.22935e-268
6.15127e-269
1.30074e-269
1.66875e-270
1.31257e-271
6.16934e-273
1.85892e-274
5.13647e-276
1.68097e-277
1.20659e-278
6.86546e-280
2.59962e-281
2.39176e-281
1.2257e-282
9.43312e-286
1.12392e-288
3.3821e-291
9.05501e-294
3.78757e-296
1.29159e-298
6.28092e-301
2.40239e-303
1.03631e-305
4.05574e-308
1.62498e-310
9.77996e-313
4.48505e-314
4.78701e-315
5.31368e-316
5.94051e-317
6.89177e-318
8.41162e-319
1.33892e-319
1.83368e-319
7.0976e-319
4.37375e-269
9.33146e-269
8.43002e-269
4.06522e-269
7.33966e-270
4.35941e-271
1.93653e-272
9.07907e-274
4.00035e-275
4.7521e-276
6.61017e-277
6.77381e-278
6.72449e-279
1.42224e-279
2.98846e-279
6.24265e-281
3.12105e-284
2.05016e-287
8.78189e-291
1.32642e-293
1.41371e-296
2.19382e-299
4.17663e-302
7.92139e-305
1.8397e-307
4.58569e-310
1.33497e-312
6.29991e-315
2.47605e-316
2.47777e-317
2.54239e-318
2.66993e-319
1.83792e-320
9.38725e-323
4.23414e-321
2.99898e-321
6.7687e-321
2.86103e-269
4.55003e-269
4.27702e-269
2.57892e-269
7.91361e-270
1.76868e-270
2.95761e-271
3.74629e-272
4.92014e-273
8.59642e-274
1.60212e-274
2.43248e-275
2.7924e-276
3.798e-277
3.96044e-278
1.06368e-279
6.08936e-283
2.21797e-286
5.42438e-290
2.7458e-293
6.66113e-297
4.09219e-300
1.4629e-303
8.72371e-307
6.1909e-310
8.87438e-313
2.06082e-315
1.1281e-317
5.68694e-319
4.25835e-320
1.40315e-320
2.97428e-321
1.0741e-320
8.91294e-321
0
0
0
8.39562e-268
5.20741e-269
1.82701e-270
1.87293e-271
1.03337e-272
2.13087e-273
2.09364e-273
1.05016e-273
1.13641e-274
2.75211e-276
1.62777e-278
7.97728e-281
3.86589e-283
3.30494e-285
3.7075e-287
6.50363e-289
1.81737e-290
1.12972e-291
2.64989e-292
1.80994e-292
1.62596e-292
1.38793e-292
1.01576e-292
6.18899e-293
3.19227e-293
1.44253e-293
6.02581e-294
2.36894e-294
8.66955e-295
2.9968e-295
9.71504e-296
2.82818e-296
7.52327e-297
1.87667e-297
4.3692e-298
9.81667e-299
2.09923e-299
4.01102e-300
9.92431e-268
1.2915e-268
2.99627e-270
1.27243e-271
3.45832e-273
2.06842e-274
6.22916e-275
2.21493e-275
2.27821e-276
4.01152e-278
4.03304e-280
2.81865e-282
1.56109e-284
8.42192e-287
5.60099e-289
7.67961e-291
2.85593e-292
4.90318e-293
2.84406e-293
2.38165e-293
2.008e-293
1.44295e-293
8.92664e-294
4.73518e-294
2.22628e-294
9.53583e-295
3.81254e-295
1.41987e-295
4.87871e-296
1.55336e-296
4.47634e-297
1.13666e-297
2.60037e-298
5.56871e-299
1.17419e-299
2.48556e-300
4.91962e-301
8.85349e-302
6.05325e-267
6.47341e-268
1.68407e-269
1.55079e-271
3.88247e-273
4.46526e-275
1.95982e-276
3.43601e-277
2.96576e-278
5.11624e-280
5.1646e-282
3.5607e-284
1.87431e-286
8.46441e-289
4.56958e-291
6.41462e-293
5.78673e-294
2.79834e-294
2.46815e-294
1.73978e-294
1.48556e-294
9.14297e-295
4.95743e-295
2.51132e-295
1.11619e-295
4.61011e-296
1.76195e-296
6.17574e-297
1.97607e-297
5.78549e-298
1.50567e-298
3.43515e-299
7.0418e-300
1.37789e-300
2.7666e-301
5.68217e-302
1.08643e-302
3.48187e-267
4.58281e-268
2.07137e-269
4.73497e-271
2.19279e-272
3.47482e-274
3.11389e-276
2.42303e-278
3.247e-280
5.17363e-282
4.63446e-284
3.68734e-286
4.40848e-288
8.34938e-290
2.01901e-291
1.76603e-292
5.04529e-294
2.21367e-295
7.14455e-296
3.81334e-296
2.90495e-296
1.65335e-296
8.0712e-297
4.25091e-297
1.83894e-297
7.66132e-298
2.91402e-298
1.01203e-298
3.1968e-299
9.15952e-300
2.32354e-300
5.18261e-301
1.05039e-301
2.06572e-302
4.22977e-303
8.98548e-304
1.86669e-304
7.94209e-268
3.1061e-268
5.63815e-269
5.33189e-270
2.35758e-271
1.4164e-272
8.08159e-275
3.81217e-277
1.43845e-279
5.47589e-282
5.96995e-284
5.47281e-285
2.38191e-286
3.97903e-288
1.43077e-289
8.13361e-291
2.82155e-292
5.84345e-294
1.08022e-295
2.19168e-297
4.276e-298
1.66993e-298
7.48468e-299
2.99294e-299
1.181e-299
4.45986e-300
1.62297e-300
5.58021e-301
1.78437e-301
5.27836e-302
1.41499e-302
3.37188e-303
7.42433e-304
1.57798e-304
3.45616e-305
7.74727e-306
2.16726e-306
7.48498e-307
1.6532e-268
2.11484e-268
6.36988e-269
9.17011e-270
3.41657e-270
2.82854e-271
1.43535e-273
6.10872e-276
2.40906e-278
1.14199e-280
3.50272e-282
5.40576e-283
1.29799e-284
2.07407e-286
6.94962e-288
4.21008e-289
1.09543e-290
2.31239e-292
3.62248e-294
4.85024e-296
5.47017e-298
8.58563e-300
1.1244e-300
3.20994e-301
9.26855e-302
2.69562e-302
7.25012e-303
1.99378e-303
5.35641e-304
1.42087e-304
3.64097e-305
8.78073e-306
1.99744e-306
4.44156e-307
1.01483e-307
2.39594e-308
1.06662e-308
5.52178e-309
7.73976e-269
1.3565e-268
5.70621e-269
1.79705e-269
1.43585e-270
2.96939e-272
2.14984e-274
1.86186e-276
2.78406e-278
1.09008e-279
1.66998e-280
3.37604e-281
4.91951e-283
6.21979e-285
3.20918e-286
2.26053e-287
4.0754e-289
6.31474e-291
7.84622e-293
9.52918e-295
1.01322e-296
9.59757e-299
8.27101e-301
1.19876e-302
1.40247e-303
3.04096e-304
6.26879e-305
1.28758e-305
2.61723e-306
5.33774e-307
1.08273e-307
2.14236e-308
4.15912e-309
8.09573e-310
1.6538e-310
4.04068e-311
4.13254e-311
4.62278e-269
7.80891e-269
3.87342e-269
1.46586e-269
1.74667e-270
8.71376e-272
2.2442e-273
6.19547e-275
2.07509e-276
7.34999e-278
1.26536e-278
3.97777e-279
2.40063e-281
1.70862e-283
2.13574e-284
1.41042e-285
1.79627e-287
1.76314e-289
1.57544e-291
1.49231e-293
1.37279e-295
1.18367e-297
9.31436e-300
7.01761e-302
4.97053e-304
8.02308e-306
8.80282e-307
1.42867e-307
2.2998e-308
3.70699e-309
6.00135e-310
9.68317e-311
1.5793e-311
2.64522e-312
4.78958e-313
1.30847e-313
1.9835e-313
3.59528e-269
5.32544e-269
3.59383e-269
1.89058e-269
2.30849e-270
1.6565e-272
1.77081e-274
9.4593e-276
1.51124e-277
2.15947e-278
4.77761e-279
1.76226e-280
2.55214e-282
5.01392e-283
1.87759e-282
1.15667e-283
8.63236e-286
4.5889e-288
2.36532e-290
1.41842e-292
9.46805e-295
6.50244e-297
4.28575e-299
2.71398e-301
1.61862e-303
9.14836e-306
6.06786e-308
2.0632e-309
2.51346e-310
3.37004e-311
4.52363e-312
6.09706e-313
8.45691e-314
1.2322e-314
2.0275e-315
7.12595e-316
1.15127e-315
2.41384e-269
3.35751e-269
2.57228e-269
1.44124e-269
2.37652e-270
1.63534e-271
5.09036e-273
1.29969e-274
3.60905e-276
2.03359e-277
1.72765e-278
2.08692e-279
2.54887e-280
7.73631e-281
1.32538e-280
7.93372e-282
3.40305e-284
1.0185e-286
3.00209e-289
9.69544e-292
3.51983e-294
1.43804e-296
6.34034e-299
2.80598e-301
1.23235e-303
5.26134e-306
2.2063e-308
1.1003e-310
2.94845e-312
3.09843e-313
3.59691e-314
4.17704e-315
4.99888e-316
6.35186e-317
9.52913e-318
3.92715e-318
5.93281e-318
1.89853e-269
3.28159e-269
3.03333e-269
1.44302e-269
1.93373e-270
9.05817e-272
6.12064e-273
5.89211e-274
8.86511e-275
1.66598e-275
2.54959e-276
3.41119e-277
4.88531e-278
6.45054e-279
7.79303e-279
4.67247e-280
9.85693e-283
1.33284e-285
1.41036e-288
1.80891e-291
2.23951e-294
3.49546e-297
6.09136e-300
1.24399e-302
2.86226e-305
7.50871e-308
2.24245e-310
8.8799e-313
2.017e-314
1.96324e-315
2.10883e-316
2.24266e-317
2.46976e-318
3.94551e-319
2.27122e-320
2.49997e-321
1.98466e-320
2.12755e-269
3.23394e-269
3.08525e-269
1.90083e-269
6.18521e-270
1.57399e-270
2.96559e-271
4.55438e-272
7.14078e-273
1.36003e-273
2.83378e-274
5.11726e-275
7.36715e-276
1.03808e-276
1.32185e-277
7.83008e-279
1.84917e-281
1.21839e-284
5.48453e-288
2.60693e-291
1.06717e-294
4.91975e-298
2.2391e-301
1.24008e-304
1.00174e-307
1.56068e-310
3.87364e-313
1.64233e-315
5.52734e-317
5.43171e-318
5.42356e-319
3.55678e-320
1.40858e-320
1.54297e-320
7.10466e-321
0
3.45846e-321
3.55159e-268
5.55668e-269
3.41543e-270
5.13805e-271
2.27692e-272
2.93509e-273
4.80046e-274
2.08973e-274
1.51515e-275
3.09589e-277
2.94294e-279
2.70126e-281
2.8036e-283
3.65823e-285
5.62074e-287
1.18813e-288
3.84712e-290
2.3561e-291
3.96404e-292
2.13543e-292
1.78508e-292
1.44848e-292
1.0089e-292
5.90466e-293
2.9813e-293
1.34253e-293
5.56464e-294
2.1446e-294
7.65142e-295
2.52316e-295
7.63421e-296
2.11062e-296
5.44492e-297
1.31709e-297
3.01321e-298
6.73502e-299
1.4192e-299
2.71638e-300
2.96541e-268
4.69591e-269
1.54233e-270
8.1617e-272
1.17938e-272
3.12471e-274
2.502e-275
6.11735e-276
4.2701e-277
8.93995e-279
1.21453e-280
1.31707e-282
1.2361e-284
1.14401e-286
1.20772e-288
2.05933e-290
7.97373e-292
9.68221e-293
4.32321e-293
3.36978e-293
2.73783e-293
1.93217e-293
1.15928e-293
6.02505e-294
2.80169e-294
1.18923e-294
4.67458e-295
1.69737e-295
5.65066e-296
1.71921e-296
4.75878e-297
1.1905e-297
2.70064e-298
5.67245e-299
1.15995e-299
2.3296e-300
4.27005e-301
7.42273e-302
1.08497e-267
9.7294e-269
3.83979e-270
6.07593e-272
1.7169e-273
2.97605e-275
9.01949e-277
1.06885e-277
5.84288e-279
1.25347e-280
1.55285e-282
1.52855e-284
1.23432e-286
9.9151e-289
1.01197e-290
2.35994e-292
1.88246e-293
5.83902e-294
4.38842e-294
3.43127e-294
2.55011e-294
1.57807e-294
8.42915e-295
4.055e-295
1.78244e-295
7.17225e-296
2.66264e-296
9.0169e-297
2.77189e-297
7.72448e-298
1.93891e-298
4.34429e-299
8.73779e-300
1.66517e-300
3.18425e-301
5.91779e-302
9.77848e-303
1.09924e-267
6.88095e-269
2.51543e-270
6.64286e-272
2.13707e-273
9.55603e-275
8.40304e-277
7.42527e-279
8.6713e-281
1.24788e-282
1.37401e-284
1.45162e-286
2.26905e-288
5.80166e-290
8.3107e-291
1.00373e-291
4.86901e-293
1.52514e-294
1.88915e-295
1.0187e-295
6.60923e-296
3.81169e-296
1.87118e-296
8.74052e-297
3.72786e-297
1.45405e-297
5.21715e-298
1.70093e-298
5.00971e-299
1.33166e-299
3.17196e-300
6.72829e-301
1.29355e-301
2.43989e-302
4.7404e-303
8.85769e-304
1.50797e-304
2.71721e-268
5.60805e-269
4.67213e-270
6.75695e-271
3.37669e-272
1.68413e-273
1.36227e-275
9.86909e-278
5.76462e-280
2.84084e-282
2.54406e-284
2.33531e-285
9.82334e-287
2.89051e-288
4.63479e-289
5.16013e-290
2.53653e-291
6.67669e-293
1.39641e-294
2.32356e-296
1.5515e-297
5.69797e-298
2.38565e-298
9.21982e-299
3.4519e-299
1.17247e-299
3.76188e-300
1.13265e-300
3.18565e-301
8.26398e-302
1.94328e-302
4.14055e-303
8.17567e-304
1.63382e-304
3.44064e-305
6.76044e-306
1.21808e-306
2.78219e-307
6.44002e-269
3.65036e-269
5.19866e-270
1.17821e-270
6.39152e-271
2.2359e-272
1.60115e-274
9.87788e-277
5.7848e-279
3.3436e-281
8.17718e-283
1.48575e-283
5.09588e-285
1.22283e-286
2.0004e-287
2.42517e-288
1.03132e-289
2.60778e-291
4.93052e-293
7.4653e-295
9.38386e-297
1.12927e-298
6.02704e-300
1.52645e-300
4.545e-301
1.22791e-301
3.05875e-302
7.24073e-303
1.62716e-303
3.50294e-304
7.10025e-305
1.35866e-305
2.50816e-306
4.83058e-307
9.90061e-308
1.88157e-308
3.43941e-309
1.26032e-309
2.93533e-269
2.27705e-269
5.62893e-270
2.76045e-270
1.50416e-271
2.89162e-273
2.63476e-275
2.22329e-277
2.65621e-279
1.00728e-280
2.15476e-281
6.75739e-282
1.74055e-283
3.48587e-285
8.91786e-286
1.165e-286
3.92659e-288
7.92833e-290
1.21925e-291
1.64161e-293
1.94499e-295
2.04706e-297
1.91234e-299
1.95918e-301
1.07269e-302
2.12245e-303
4.3371e-304
8.31357e-305
1.50075e-305
2.59471e-306
4.26181e-307
6.69301e-308
1.03716e-308
1.69239e-309
2.95417e-310
4.99015e-311
1.42331e-311
1.13281e-269
1.25589e-269
4.08106e-270
2.17987e-270
1.67771e-271
6.3136e-273
9.4288e-275
1.78588e-276
6.46325e-278
2.45599e-279
9.28944e-280
3.41567e-280
4.82498e-282
7.65257e-284
4.83362e-284
5.89438e-285
1.57617e-286
2.20545e-288
2.52104e-290
2.7044e-292
2.73605e-294
2.60497e-296
2.28675e-298
1.8692e-300
1.4155e-302
1.41792e-304
8.90688e-306
1.37954e-306
2.13147e-307
3.14436e-308
4.41967e-309
5.96972e-310
8.02893e-311
1.13693e-311
1.72043e-312
2.77516e-313
1.03426e-313
1.65561e-269
1.1391e-269
6.17979e-270
3.55423e-270
2.23283e-271
1.49685e-273
1.11672e-275
4.49511e-277
2.81167e-278
3.07734e-279
4.93567e-280
4.00018e-281
2.7201e-282
8.79477e-283
3.66832e-282
3.64821e-283
7.44556e-285
5.99987e-287
4.28585e-289
3.08583e-291
2.30205e-293
1.70716e-295
1.22899e-297
8.41102e-300
5.46994e-302
3.34957e-304
2.07326e-306
3.40898e-308
3.35058e-309
4.34363e-310
5.45186e-311
6.59622e-312
7.96141e-313
1.00678e-313
1.36381e-314
2.37857e-315
9.73022e-316
9.33916e-270
8.66374e-270
4.92112e-270
2.05969e-270
2.5321e-271
1.39948e-272
4.67762e-274
2.77232e-275
3.94938e-276
5.99198e-277
7.46743e-278
8.13053e-279
6.67642e-280
1.46887e-280
2.57849e-280
2.44393e-281
3.46931e-283
1.31485e-285
4.93575e-288
1.99967e-290
8.72552e-293
4.06153e-295
1.95637e-297
9.44214e-300
4.50378e-302
2.08766e-304
9.43872e-307
4.45658e-309
6.14345e-311
5.38303e-312
6.11927e-313
6.78892e-314
7.51101e-315
8.65042e-316
1.08133e-316
2.07468e-317
8.53417e-318
8.4618e-270
1.03512e-269
8.38066e-270
2.96462e-270
3.77966e-271
3.57847e-272
5.71709e-273
9.28698e-274
1.83742e-274
3.84884e-275
7.09797e-276
1.13449e-276
1.40802e-277
1.62834e-278
1.325e-278
1.58923e-279
1.92336e-281
2.87565e-284
3.77482e-287
5.32464e-290
7.92058e-293
1.36441e-295
2.61985e-298
5.64737e-301
1.36898e-303
3.77346e-306
1.18308e-308
4.41611e-311
5.30052e-313
4.36972e-314
4.69268e-315
4.91708e-316
5.13089e-317
5.56747e-318
6.48896e-319
1.29717e-319
4.65311e-320
1.36443e-269
1.94685e-269
1.88101e-269
1.17976e-269
4.1298e-270
1.15945e-270
2.47012e-271
4.29534e-272
7.99685e-273
1.78223e-273
4.20334e-274
8.68022e-275
1.42257e-275
2.06186e-276
2.96098e-277
2.65125e-278
5.14848e-280
3.53103e-283
1.47933e-286
6.15433e-290
2.5231e-293
1.11881e-296
5.45406e-300
3.53193e-303
3.90261e-306
7.84414e-309
2.20424e-311
8.40477e-314
1.58899e-315
1.46697e-316
1.52218e-317
1.53519e-318
1.45789e-319
9.61946e-321
1.11659e-320
5.20745e-321
3.35965e-321
2.13041e-268
3.98082e-269
3.66742e-270
1.64363e-270
2.81986e-271
1.56875e-272
2.06974e-274
2.75965e-275
1.6781e-276
3.52123e-278
5.11542e-280
7.23343e-282
1.11634e-283
2.00845e-285
4.0476e-287
1.06113e-288
4.35791e-290
3.20269e-291
5.23564e-292
2.53387e-292
2.03528e-292
1.59279e-292
1.06419e-292
6.0619e-293
3.0203e-293
1.35559e-293
5.58328e-294
2.11714e-294
7.35363e-295
2.31264e-295
6.59623e-296
1.74511e-296
4.32491e-297
1.00017e-297
2.22805e-298
4.84886e-299
9.85255e-300
1.84652e-300
1.98325e-268
1.05296e-269
6.38478e-271
8.46808e-272
4.28771e-272
1.10785e-273
2.84177e-275
1.44447e-276
6.13534e-278
1.47802e-279
2.51793e-281
3.59874e-283
4.61635e-285
6.07374e-287
9.24545e-289
2.23557e-290
1.15095e-291
1.44222e-292
5.85937e-293
4.39389e-293
3.49549e-293
2.42252e-293
1.41974e-293
7.23918e-294
3.31956e-294
1.39143e-294
5.36243e-295
1.89441e-295
6.0791e-296
1.7637e-296
4.67508e-297
1.13938e-297
2.52748e-298
5.19653e-299
1.03748e-299
1.96744e-300
3.41477e-301
6.92396e-302
5.32417e-268
3.22236e-269
1.29873e-270
2.62599e-272
1.50861e-273
3.875e-275
8.06334e-277
3.13958e-278
9.80295e-280
2.1769e-281
3.26155e-283
4.21905e-285
4.77387e-287
5.80825e-289
9.88923e-291
3.79068e-292
3.50821e-293
9.60895e-294
6.68345e-294
5.20955e-294
3.75922e-294
2.28213e-294
1.18505e-294
5.54248e-295
2.3696e-295
9.26237e-296
3.31323e-296
1.07635e-296
3.1511e-297
8.3282e-298
2.01172e-298
4.40495e-299
8.67742e-300
1.6169e-300
2.95251e-301
4.87851e-302
7.6001e-303
4.67598e-268
1.65371e-269
5.07718e-271
1.22799e-272
3.88728e-274
1.1299e-275
1.38684e-277
1.44741e-279
1.79363e-281
2.47519e-283
3.08526e-285
3.89132e-287
7.10021e-289
3.2752e-290
1.44069e-290
2.63164e-291
1.72253e-292
5.94133e-294
4.25826e-295
1.86709e-295
1.176e-295
6.43648e-296
3.05965e-296
1.35975e-296
5.49332e-297
2.02496e-297
6.80966e-298
2.0648e-298
5.62763e-299
1.39099e-299
3.12144e-300
6.2885e-301
1.15107e-301
2.0428e-302
3.55987e-303
5.58484e-304
8.92589e-305
2.33884e-268
1.36694e-269
4.35513e-271
5.43867e-272
5.69506e-273
1.41088e-274
1.59031e-276
1.50018e-278
1.21144e-280
8.63297e-283
9.00037e-285
5.71116e-286
2.58693e-287
1.34931e-288
7.12205e-289
1.32032e-289
9.08593e-291
2.88716e-292
6.78124e-294
1.19152e-295
4.13934e-297
1.13164e-297
4.54518e-298
1.75749e-298
6.2842e-299
2.03094e-299
6.05453e-300
1.64137e-300
4.05835e-301
9.18974e-302
1.91635e-302
3.63155e-303
6.3631e-304
1.09605e-304
1.84633e-305
2.86892e-306
4.89789e-307
8.44591e-308
1.01702e-268
4.69355e-270
2.62903e-271
9.61904e-272
9.53081e-272
1.3823e-273
1.27477e-275
1.05013e-277
8.38446e-280
6.75743e-282
1.54771e-283
2.49753e-284
1.05568e-285
4.24684e-287
2.52613e-287
5.5905e-288
3.71155e-289
1.14567e-290
2.49489e-292
4.28008e-294
6.05865e-296
7.39242e-298
1.8985e-299
3.70618e-300
1.10168e-300
2.96879e-301
7.37482e-302
1.6615e-302
3.43747e-303
6.57831e-304
1.17547e-304
1.93176e-305
2.97899e-306
4.52897e-307
6.63137e-308
9.12119e-309
1.4505e-309
2.85378e-310
4.71502e-269
2.47227e-270
2.60621e-271
2.72645e-271
1.40761e-272
2.17838e-274
2.45545e-276
2.42213e-278
3.08411e-280
1.08277e-281
2.3235e-282
8.19674e-283
2.78457e-284
9.79735e-286
9.10621e-286
2.40821e-286
1.4209e-287
3.58891e-289
6.49964e-291
9.89059e-293
1.31062e-294
1.53229e-296
1.58294e-298
1.55469e-300
4.05949e-302
6.58271e-303
1.38514e-303
2.66438e-304
4.6922e-305
7.65585e-306
1.17076e-306
1.66284e-307
2.24163e-308
2.97605e-309
3.79217e-310
4.93414e-311
9.96369e-312
8.28483e-270
1.30131e-270
2.52901e-271
1.86675e-271
1.11766e-272
3.52346e-274
3.53288e-276
6.41268e-278
3.30458e-279
1.61968e-280
5.11934e-281
2.86027e-281
6.18273e-283
2.06264e-284
3.8557e-284
1.12293e-284
5.91098e-286
1.03149e-287
1.38045e-289
1.66229e-291
1.86714e-293
1.95197e-295
1.88909e-297
1.69184e-299
1.4019e-301
1.21712e-303
3.91872e-305
5.48963e-306
8.5068e-307
1.23202e-307
1.67747e-308
2.14225e-309
2.62373e-310
3.16455e-311
3.72883e-312
5.38715e-313
1.20299e-313
1.33289e-269
2.16933e-270
7.16217e-271
4.68163e-271
1.28708e-272
1.35081e-274
3.27483e-276
2.97007e-277
3.88997e-278
4.81763e-279
5.29879e-280
5.48133e-281
4.29877e-282
7.41095e-283
2.72225e-282
6.77625e-283
2.98219e-284
2.98743e-286
2.53526e-288
2.08186e-290
1.7306e-292
1.41277e-294
1.1212e-296
8.44494e-299
6.03372e-301
4.06425e-303
2.63502e-305
2.64436e-307
1.67955e-308
2.11571e-309
2.63182e-310
3.10183e-311
3.53342e-312
3.97103e-313
4.5379e-314
7.78771e-315
1.73333e-315
5.30712e-270
2.32108e-270
8.7766e-271
2.58894e-271
2.78586e-272
2.20645e-273
2.04902e-274
3.1454e-275
5.99369e-276
1.02476e-276
1.54539e-277
2.00034e-278
1.57666e-279
1.5431e-280
2.25362e-280
4.90071e-281
1.57189e-282
6.95663e-285
3.07399e-287
1.42463e-289
6.98834e-292
3.60425e-294
1.91195e-296
1.01672e-298
5.35114e-301
2.73741e-303
1.36121e-305
6.71651e-308
5.55769e-310
3.24245e-311
3.61765e-312
3.98927e-313
4.27867e-314
4.54537e-315
5.19831e-316
1.02699e-316
2.1904e-317
4.69922e-270
3.27663e-270
2.37549e-270
6.85126e-271
1.20214e-271
2.33172e-272
4.85446e-273
1.00568e-273
2.34714e-274
5.34364e-275
1.09326e-275
1.91498e-276
2.41806e-277
2.53147e-278
1.17257e-278
2.93777e-279
9.27401e-281
1.69387e-283
2.59296e-286
4.16786e-289
7.26702e-292
1.43294e-294
3.1096e-297
7.42227e-300
1.97829e-302
5.93738e-305
2.01057e-307
7.72737e-310
5.55766e-312
3.09989e-313
3.30023e-314
3.47292e-315
3.56066e-316
3.62535e-317
4.20499e-318
9.23092e-319
2.29162e-319
8.74269e-270
1.22508e-269
1.19198e-269
7.55851e-270
2.72286e-270
7.71557e-271
1.68412e-271
3.39787e-272
7.53174e-273
1.90171e-273
4.77011e-274
1.03991e-274
1.84009e-275
2.70242e-276
4.04265e-277
4.78916e-278
2.21722e-279
2.99121e-282
1.42609e-285
6.45351e-289
2.93814e-292
1.47057e-295
8.08507e-299
5.76563e-302
6.60841e-305
1.37778e-307
4.11861e-310
1.54681e-312
1.5812e-314
1.17026e-315
1.22588e-316
1.24535e-317
1.22539e-318
1.1153e-319
4.63434e-321
8.52757e-321
5.8695e-321
3.26469e-268
5.07582e-269
1.00636e-269
2.07911e-270
4.03462e-271
4.9967e-272
6.47773e-274
7.09278e-276
1.82912e-277
3.9512e-279
7.48894e-281
1.4142e-282
2.84093e-284
6.33376e-286
1.65727e-287
6.1066e-289
3.57224e-290
3.24084e-291
5.8681e-292
2.89815e-292
2.31285e-292
1.78823e-292
1.1733e-292
6.52231e-293
3.19964e-293
1.42714e-293
5.83015e-294
2.18538e-294
7.42106e-295
2.23993e-295
6.12247e-296
1.56567e-296
3.71752e-297
8.24841e-298
1.78496e-298
3.71879e-299
7.2446e-300
1.30985e-300
1.92591e-268
9.28648e-270
6.82526e-271
7.62097e-272
4.8433e-272
3.31602e-273
8.19609e-275
1.34329e-276
2.26024e-278
3.83535e-280
6.03169e-282
9.05463e-284
1.32681e-285
2.1128e-287
4.36346e-289
1.61749e-290
1.16061e-291
1.69551e-292
7.2226e-293
5.4312e-293
4.28147e-293
2.94187e-293
1.70314e-293
8.54847e-294
3.86211e-294
1.59415e-294
6.01858e-295
2.07013e-295
6.4006e-296
1.77701e-296
4.53979e-297
1.07476e-297
2.31887e-298
4.69568e-299
9.22589e-300
1.6678e-300
3.09326e-301
6.03866e-302
3.5496e-268
2.73304e-269
1.1313e-270
2.55003e-272
1.34427e-273
6.77976e-275
1.70157e-276
2.98207e-278
4.35371e-280
6.3099e-282
8.44811e-284
1.12881e-285
1.48733e-287
2.32228e-289
6.23908e-291
3.87242e-292
4.57804e-293
1.3371e-293
9.07252e-294
7.12457e-294
5.06839e-294
3.03975e-294
1.54975e-294
7.05994e-295
2.93056e-295
1.10797e-295
3.81547e-296
1.1881e-296
3.31173e-297
8.36634e-298
1.95933e-298
4.2089e-299
8.20814e-300
1.53216e-300
2.72221e-301
4.16624e-302
7.90343e-303
4.28932e-268
1.89797e-269
6.71422e-271
1.52497e-272
2.43316e-274
4.49971e-276
6.84105e-278
8.34989e-280
8.9175e-282
8.73644e-284
8.70955e-286
9.5476e-288
1.54349e-289
1.28947e-290
1.27491e-290
3.23651e-291
3.12032e-292
1.254e-293
7.78095e-295
2.97125e-295
1.7914e-295
9.52827e-296
4.38647e-296
1.8538e-296
7.1e-297
2.46884e-297
7.79982e-298
2.22333e-298
5.72085e-299
1.34119e-299
2.91356e-300
5.78431e-301
1.05935e-301
1.87846e-302
3.07706e-303
4.42549e-304
8.17306e-305
3.4903e-268
1.97124e-269
6.65578e-271
1.67721e-272
7.09617e-274
1.2571e-275
1.72302e-277
2.12904e-279
2.37005e-281
2.44763e-283
3.04174e-285
1.01855e-286
4.22732e-288
4.49924e-289
5.26021e-289
1.60223e-289
1.57887e-290
6.14478e-292
1.66916e-293
3.22754e-295
8.89735e-297
1.8393e-297
7.04284e-298
2.66511e-298
9.18866e-299
2.87968e-299
8.18067e-300
2.07234e-300
4.75033e-301
9.9921e-302
1.9683e-302
3.58959e-303
6.14855e-304
1.02715e-304
1.56394e-305
2.22376e-306
4.12802e-307
4.51055e-308
2.55285e-268
9.72197e-270
2.51813e-271
9.09593e-273
9.63208e-273
8.71463e-275
8.79273e-277
9.0591e-279
9.40243e-281
1.00922e-282
2.40025e-284
2.95007e-285
1.38913e-286
1.15927e-287
1.58681e-287
6.56393e-288
6.35287e-289
2.42048e-290
6.22458e-292
1.21367e-293
1.92684e-295
2.57038e-297
4.87384e-299
6.70507e-300
1.9307e-300
5.2651e-301
1.31001e-301
2.87505e-302
5.6897e-303
1.02947e-303
1.7508e-304
2.80478e-305
4.31379e-306
6.50743e-307
8.91846e-308
1.31898e-308
2.98422e-309
3.15498e-310
8.26075e-269
2.14994e-270
6.08026e-272
1.59992e-272
9.29846e-274
1.50663e-275
2.13027e-277
2.51775e-279
4.04481e-281
1.50592e-282
2.37923e-283
7.12285e-284
2.84009e-285
2.44596e-286
4.63445e-286
2.70116e-286
2.34266e-287
7.38029e-289
1.60844e-290
2.84196e-292
4.2669e-294
5.55766e-296
6.34811e-298
6.6063e-300
1.15533e-301
1.39371e-302
2.95424e-303
5.7225e-304
9.98217e-305
1.59232e-305
2.39276e-306
3.42718e-307
4.78124e-308
6.52125e-309
8.41988e-310
1.55695e-310
3.95865e-311
9.48086e-270
4.35287e-271
2.95975e-272
1.00676e-272
5.84054e-274
1.60724e-275
2.05252e-277
7.64792e-279
6.74923e-280
5.13571e-281
6.66358e-282
2.1825e-282
6.37989e-284
6.26606e-285
1.63629e-284
1.21078e-284
9.33355e-286
2.02721e-287
3.27368e-289
4.63827e-291
5.96842e-293
6.99478e-295
7.47829e-297
7.30461e-299
6.60321e-301
5.7997e-303
1.17148e-304
1.35275e-305
2.09238e-306
3.02756e-307
4.13863e-308
5.43291e-309
6.99854e-310
8.84089e-311
1.14775e-311
2.71011e-312
6.76428e-313
1.19603e-269
7.09264e-271
9.79733e-272
4.24833e-272
9.98385e-274
3.3828e-275
2.55151e-276
3.02491e-277
4.54375e-278
6.10172e-279
7.35056e-280
7.08609e-281
4.82777e-282
4.86841e-283
1.10923e-282
7.68025e-283
4.75908e-284
5.85949e-286
5.89747e-288
5.75915e-290
5.53836e-292
5.19354e-294
4.64491e-296
3.89284e-298
3.05294e-300
2.24813e-302
1.5711e-304
1.3098e-306
4.96736e-308
5.86289e-309
7.37896e-310
9.01365e-311
1.08535e-311
1.29493e-312
1.75762e-313
4.91149e-314
1.14049e-314
3.82874e-270
7.68733e-271
2.24041e-271
4.57094e-272
6.17991e-273
9.86726e-274
1.71553e-274
3.32658e-275
6.92412e-276
1.24648e-276
2.0207e-277
2.77175e-278
2.50964e-279
1.81504e-280
1.21245e-280
5.71069e-281
2.79184e-282
1.67567e-284
7.92081e-287
4.15366e-289
2.37062e-291
1.41819e-293
8.61017e-296
5.1528e-298
3.01527e-300
1.70023e-302
9.2428e-305
4.89388e-307
3.20971e-309
1.0669e-310
1.13149e-311
1.29499e-312
1.47071e-313
1.67822e-314
2.42129e-315
7.40737e-316
1.5828e-316
3.03071e-270
1.20219e-270
8.70669e-271
2.74585e-271
6.90374e-272
1.66335e-272
3.85586e-273
9.55718e-274
2.50372e-274
5.90752e-275
1.22792e-275
2.18103e-276
2.96576e-277
3.06471e-278
6.30728e-279
3.15361e-279
1.80372e-280
8.23682e-283
1.10572e-285
1.72831e-288
3.22157e-291
7.17664e-294
1.79922e-296
4.92233e-299
1.46306e-301
4.73508e-304
1.68951e-306
6.6814e-309
3.62257e-311
1.11313e-312
1.13244e-313
1.24045e-314
1.34768e-315
1.48923e-316
2.29079e-317
7.25934e-318
1.42446e-318
5.50571e-270
7.99438e-270
7.86046e-270
4.916e-270
1.73902e-270
4.83919e-271
1.10001e-271
2.51969e-272
6.68631e-273
1.8491e-273
4.70754e-274
1.02862e-274
1.85783e-275
2.71561e-276
4.01131e-277
5.47324e-278
3.9322e-279
3.21544e-281
1.49897e-284
5.98417e-288
2.69972e-291
1.55306e-294
1.04987e-297
8.3071e-301
8.30652e-304
1.39248e-306
3.86258e-309
1.42036e-311
9.17143e-314
4.32086e-315
4.50842e-316
4.80042e-317
5.2324e-318
7.0604e-319
7.74151e-320
2.08792e-320
8.52757e-321
2.5627e-268
4.71411e-269
1.04372e-269
2.75277e-270
6.12448e-271
8.5931e-272
2.69995e-273
1.74392e-275
1.12625e-277
1.2348e-279
1.86861e-281
3.51603e-283
7.63225e-285
1.92942e-286
6.26322e-288
3.07712e-289
2.38133e-290
2.70107e-291
5.79138e-292
3.19067e-292
2.59136e-292
1.99659e-292
1.29921e-292
7.16299e-293