/*--------------------------------*- C++ -*----------------------------------*\
| =========                 |                                                 |
| \\      /  F ield         | OpenFOAM: The Open Source CFD Toolbox           |
|  \\    /   O peration     | Version:  2.3.1                                 |
|   \\  /    A nd           | Web:      www.OpenFOAM.org                      |
|    \\/     M anipulation  |                                                 |
\*---------------------------------------------------------------------------*/
FoamFile
{
    version     2.0;
    format      ascii;
    class       volVectorField;
    location    "5";
    object      U;
}
// * * * * * * * * * * * * * * * * * * * * * * * * * * * * * * * * * * * * * //

dimensions      [0 1 -1 0 0 0 0];

internalField   nonuniform List<vector> 
37632
(
(-1.0854 -8.01154 -6.65213)
(-0.0847929 1.9465 -0.362936)
(-1.34935 -1.91831 0.0969466)
(0.574652 -0.40103 -0.453426)
(0.131506 -0.436772 -0.137772)
(0.24132 -0.266251 0.0412959)
(0.312057 -0.152495 0.0322212)
(0.280552 -0.0680209 0.0461711)
(0.107201 -0.0402111 0.038626)
(0.00181386 -0.0432517 0.0260078)
(-0.0117813 -0.0658886 0.0162815)
(-0.00695781 -0.0605138 0.0124134)
(-0.00816808 -0.0610855 0.0138962)
(0.00729496 -0.0569195 0.0117346)
(0.00489353 -0.0549364 0.01162)
(0.0322497 -0.0489245 0.00805327)
(0.0347989 -0.0501885 0.00829854)
(0.0623128 -0.0475959 0.00585734)
(0.0654788 -0.0487924 0.0102581)
(0.0898655 -0.046435 0.00298968)
(0.118968 -0.0374729 0.000629159)
(0.141285 -0.0270044 0.00173383)
(0.158016 -0.0202312 0.00267324)
(0.165837 -0.0194537 0.0048072)
(0.165329 -0.0202493 0.00632217)
(0.165476 -0.0226159 0.00441643)
(0.178352 -0.0222917 0.00285194)
(0.18409 -0.0190828 0.00355861)
(0.186562 -0.0182007 0.00135738)
(0.203748 -0.016236 -7.78341e-05)
(0.207253 -0.0119943 0.00346711)
(0.195286 -0.0112792 0.00495117)
(0.197093 -0.0106862 0.00421019)
(0.196091 -0.0100171 0.0061893)
(0.19031 -0.0105503 0.00669878)
(0.198915 -0.00820102 0.00575949)
(0.195961 -0.00991032 0.00849373)
(0.174579 -0.0165959 0.0100526)
(0.103425 3.27775 0.308807)
(-1.03958 0.372171 -0.409594)
(0.307761 0.66903 -1.02943)
(0.295636 0.645598 -0.0338498)
(-0.596946 -0.0514113 0.177223)
(-0.0418203 0.157098 -0.07995)
(-0.41271 -0.0300884 -5.13247e-05)
(-0.0430315 -0.0236384 -0.0321375)
(-0.151156 0.0487293 0.010773)
(-0.104094 -6.02063e-05 -0.00118404)
(-0.079372 -0.0323222 -0.00651149)
(-0.0871022 -0.0162935 0.00138611)
(-0.0824719 -0.0334417 0.000420959)
(-0.0866952 -0.0168942 0.00604395)
(-0.101877 -0.0268072 0.0146589)
(-0.116712 -0.0262572 0.00452243)
(-0.108939 -0.0239113 0.00536508)
(-0.110449 -0.0189638 -0.00146605)
(-0.0973839 -0.0413964 0.00131663)
(-0.0831455 -0.0210041 -0.00030782)
(-0.0787219 -0.0231938 -4.80876e-05)
(-0.0660463 -0.0268053 -0.000429226)
(-0.0444184 -0.0198983 -0.00182985)
(-0.0356177 -0.0196209 -0.00108576)
(-0.0205024 -0.0177289 -0.0021614)
(-0.00949565 -0.01586 -0.00274857)
(0.00252622 -0.0133394 -0.00328587)
(0.014686 -0.0102563 -0.00313105)
(0.024683 -0.00761059 -0.00253726)
(0.0319684 -0.00510027 -0.00118541)
(0.034469 -0.0038596 0.000849784)
(0.0293672 -0.00778779 0.00252994)
(0.0193812 -0.0170812 0.00287266)
(0.0105283 -0.0278473 0.00187437)
(0.00560078 -0.0352983 -2.50128e-05)
(0.00696158 -0.0344032 -0.00290636)
(0.0165904 -0.0271448 -0.00774656)
(0.0335434 -0.0171911 -0.0117124)
(0.255091 2.1601 -0.0524572)
(0.20959 -0.259678 -0.508523)
(0.0457467 -0.132649 -0.177067)
(0.0688379 -0.0121179 -0.16865)
(-0.0800054 -0.245132 0.120125)
(-0.126357 -0.10799 -0.0782675)
(-0.0784943 -0.118971 0.00878256)
(-0.111029 -0.131918 -0.0543563)
(-0.0741576 -0.0582823 -0.0323993)
(-0.0331308 -0.0925935 -0.0310959)
(-0.0651343 -0.0838199 -0.0383191)
(-0.00409115 -0.0784252 -0.0281015)
(-0.0252316 -0.0879909 -0.028485)
(0.0243133 -0.0937234 -0.0430428)
(0.0584349 -0.0993242 -0.00208935)
(-0.00412779 -0.0658374 0.0106403)
(-0.0457762 -0.0713222 0.0103675)
(-0.0630468 -0.0547389 -0.0042066)
(-0.0541287 -0.0725148 -0.00213619)
(-0.0779835 -0.0550992 0.00434328)
(-0.0617074 -0.0479892 -0.005769)
(-0.0620862 -0.0506287 -0.00115059)
(-0.0566532 -0.0377268 -0.00230859)
(-0.0464342 -0.0354484 -0.0037175)
(-0.0389179 -0.0324666 -0.00302239)
(-0.029714 -0.0288552 -0.00365551)
(-0.0214177 -0.0256934 -0.00348343)
(-0.0132889 -0.0222461 -0.00349814)
(-0.00574349 -0.0196545 -0.0034613)
(0.0011648 -0.0168153 -0.00350451)
(0.00752254 -0.0138554 -0.00388319)
(0.0133164 -0.0122646 -0.00501302)
(0.0178866 -0.0121968 -0.00648125)
(0.0202329 -0.012946 -0.00757416)
(0.0194823 -0.0126232 -0.00856702)
(0.0197506 -0.00783546 -0.0104857)
(0.0266409 0.00105374 -0.0126791)
(0.537567 2.12191 0.128303)
(0.573469 1.31216 -0.423029)
(0.00480497 0.611967 -0.303928)
(0.173929 1.15294 -0.0872703)
(-0.229358 0.132921 0.00751496)
(-0.145537 0.140934 0.037238)
(-0.23302 0.0505566 -0.00252924)
(-0.128744 0.120182 -0.0222033)
(-0.16578 0.0759924 -0.0169129)
(-0.157002 0.11009 0.00773765)
(-0.163727 0.0642417 -0.0116821)
(-0.124284 0.0478494 -0.0116549)
(-0.161773 0.0499272 0.00699264)
(-0.122589 0.0236354 -0.022726)
(-0.136543 0.0225024 -0.000757544)
(-0.104863 0.00546097 -0.0116768)
(-0.0987059 -0.00135327 -0.00306755)
(-0.0938669 -0.0086449 0.00245831)
(-0.0986588 -0.0122869 -0.00894799)
(-0.0729244 -0.0280132 0.00128153)
(-0.0938353 -0.0171876 -0.00170463)
(-0.0668946 -0.0206379 -0.00402343)
(-0.0768598 -0.018012 0.00184387)
(-0.0614272 -0.0159996 -0.00456778)
(-0.058914 -0.0130383 -9.60033e-05)
(-0.0501167 -0.011202 -0.00286633)
(-0.0431647 -0.00856019 -0.00224941)
(-0.0349617 -0.00607367 -0.00287419)
(-0.0270041 -0.00359121 -0.00306336)
(-0.0189759 -0.00127238 -0.00326166)
(-0.0108149 0.000908482 -0.00349516)
(-0.00231374 0.00256041 -0.00370673)
(0.0057138 0.00376961 -0.00378227)
(0.0131904 0.00513716 -0.00389669)
(0.0198905 0.0080371 -0.00415219)
(0.0279284 0.0136257 -0.00436608)
(0.0385484 0.0208532 -0.00413348)
(0.798613 1.65414 0.0389525)
(0.836256 1.48092 -0.289919)
(0.493258 0.742991 -0.2285)
(0.29314 0.711474 -0.0596253)
(0.0680696 0.0909235 0.00891277)
(-0.204803 -0.168014 0.0080146)
(-0.129823 -0.171911 0.0203829)
(-0.166759 -0.102501 -0.0230802)
(-0.12096 0.020814 0.0137946)
(-0.0899702 -0.0957462 -0.0368159)
(-0.034234 -0.0999219 0.00571418)
(-0.139861 -0.0206112 -0.00197729)
(-0.00368046 -0.12087 -0.01669)
(-0.10652 -0.0459056 0.018967)
(-0.0379482 -0.0801019 -0.012332)
(-0.0873984 -0.0609831 0.0176417)
(-0.05741 -0.0515603 -0.0115412)
(-0.0771962 -0.0513793 0.00998234)
(-0.0605084 -0.0539296 -0.00240973)
(-0.0778298 -0.0416101 -0.000274965)
(-0.058951 -0.0435657 -0.000288754)
(-0.0760213 -0.0376969 0.00148276)
(-0.058121 -0.0365025 -0.00293457)
(-0.0668934 -0.0301349 0.00226363)
(-0.0568322 -0.0293909 -0.00139961)
(-0.0565784 -0.0246389 0.000762876)
(-0.0507697 -0.0219192 -1.17307e-05)
(-0.0468248 -0.018277 0.000377146)
(-0.0414293 -0.0151738 0.00038006)
(-0.0361939 -0.0121019 0.000424463)
(-0.0304023 -0.00920382 0.000403072)
(-0.0245607 -0.00665202 0.00040462)
(-0.0190804 -0.00464874 0.000386239)
(-0.013863 -0.00264154 0.000322435)
(-0.0086274 2.36253e-06 0.000282009)
(-0.0028357 0.00364537 0.000471126)
(0.00307394 0.00731299 0.000840322)
(0.0090948 0.0104006 0.00126625)
(0.511044 1.44499 -0.131428)
(0.900964 1.98504 -0.226074)
(0.670352 1.2265 -0.202086)
(0.560187 1.34429 -0.134325)
(0.428396 0.904683 -0.000666368)
(0.200918 0.178403 0.0668599)
(-0.133817 0.026237 0.0212394)
(0.0318884 0.2282 0.0154739)
(-0.165709 -0.0395889 0.0202049)
(-0.00178065 0.172892 -0.00959987)
(-0.139778 0.116284 0.0135925)
(-0.0640689 0.0390736 0.0016001)
(-0.129623 0.089117 -0.0246676)
(-0.0736761 -0.0133622 -0.00438874)
(-0.127909 0.0535289 -0.0134931)
(-0.0748824 -0.0401489 -0.00914946)
(-0.121204 0.0248856 -0.000398475)
(-0.0651781 -0.0371142 -0.00979228)
(-0.102736 -0.00617399 -0.000343279)
(-0.0615578 -0.0278833 -0.00353158)
(-0.092288 -0.00970095 -0.00242852)
(-0.0505212 -0.0304976 -0.00360191)
(-0.0811387 -0.00925268 0.000337995)
(-0.0524939 -0.0231034 -0.00356708)
(-0.0655791 -0.0141617 3.72559e-05)
(-0.0543437 -0.0164029 -0.00179545)
(-0.0559186 -0.0146122 -0.000566058)
(-0.0516442 -0.0136111 -0.000766942)
(-0.0497935 -0.0123154 -0.000425149)
(-0.0469254 -0.010799 -0.000292866)
(-0.0442509 -0.00926008 -0.000121161)
(-0.0413019 -0.00747199 1.17577e-05)
(-0.0383928 -0.00561879 8.83232e-05)
(-0.0354935 -0.00350171 0.000135865)
(-0.0324846 -0.000801944 0.000243922)
(-0.0293049 0.00262333 0.000411566)
(-0.0261412 0.00614847 0.000610845)
(-0.0228917 0.0093282 0.00083917)
(0.365344 0.929526 -0.262932)
(0.864157 1.71002 -0.200423)
(0.799084 1.38735 -0.149599)
(0.524609 1.18363 -0.0623944)
(-0.0511015 -0.203561 0.0648298)
(-0.260824 -0.266554 -0.0641623)
(-0.258841 -0.183328 -0.0764764)
(-0.274764 -0.118475 -0.0344448)
(-0.210954 -0.105616 -0.0798461)
(-0.267555 -0.0589255 -0.00535495)
(-0.166265 -0.0987785 -0.0642498)
(-0.166718 -0.0547725 -0.0230917)
(-0.121093 -0.038605 0.00947135)
(-0.166429 -0.043026 -0.0148683)
(-0.0746839 -0.0307785 0.00877503)
(-0.126393 -0.0372413 -0.00827395)
(-0.0782303 -0.0463151 0.00491884)
(-0.0912193 -0.0296695 -0.00555964)
(-0.0684937 -0.0412812 0.000846188)
(-0.0837387 -0.0272308 -0.00366112)
(-0.0569074 -0.037811 -0.000474556)
(-0.0757413 -0.0226038 -0.00288571)
(-0.05442 -0.029646 -0.00147545)
(-0.062496 -0.0224878 -0.00179116)
(-0.0534035 -0.0217281 -0.00172507)
(-0.0538232 -0.0197538 -0.0013636)
(-0.0501535 -0.017376 -0.00138743)
(-0.0488824 -0.0158677 -0.0011134)
(-0.0468673 -0.0140681 -0.00101986)
(-0.045417 -0.0125512 -0.000857517)
(-0.0438199 -0.0109706 -0.000756052)
(-0.0422882 -0.00940141 -0.000659639)
(-0.040546 -0.00779202 -0.000594835)
(-0.0386952 -0.00604782 -0.000531332)
(-0.0365723 -0.0040475 -0.000445054)
(-0.0339979 -0.0018022 -0.000324784)
(-0.0310218 0.00035368 -0.000193267)
(0.288025 1.37958 -0.204947)
(0.542121 2.1116 -0.174397)
(0.620521 1.5672 -0.171523)
(0.730061 1.67465 -0.126026)
(0.465789 1.15149 -0.0559588)
(0.136459 0.589275 -0.0370557)
(0.193918 0.406621 -0.076431)
(0.156153 0.376306 -0.0725066)
(0.202031 0.290023 -0.0553629)
(0.115001 0.22721 -0.0704557)
(0.282027 0.288375 -0.0368507)
(0.0572701 0.15331 0.043205)
(-0.0444771 0.0664038 0.0259117)
(-0.0727649 0.029676 0.00112139)
(-0.112609 -0.00422224 0.00101035)
(-0.0633877 0.00800885 -0.00100688)
(-0.113738 -0.0150199 -0.00209801)
(-0.0647292 -0.0158674 -0.00186932)
(-0.0943209 -0.0123993 -0.00247639)
(-0.0634376 -0.019662 -0.00155658)
(-0.0792861 -0.00775283 -0.00285353)
(-0.0607291 -0.0181722 -0.00150848)
(-0.0663719 -0.00902058 -0.00212616)
(-0.0579942 -0.0122963 -0.00176444)
(-0.0575716 -0.0101879 -0.00158424)
(-0.0535463 -0.00945638 -0.00155596)
(-0.05165 -0.00907072 -0.00132009)
(-0.0490396 -0.0081042 -0.00124315)
(-0.0470497 -0.00746713 -0.00109158)
(-0.0450319 -0.00653102 -0.000996566)
(-0.0431974 -0.00561557 -0.000899551)
(-0.041354 -0.00448569 -0.000825899)
(-0.0394772 -0.00325121 -0.000766168)
(-0.0375017 -0.00184022 -0.000711468)
(-0.0353636 -0.000268524 -0.000648583)
(-0.0330016 0.00143269 -0.000575055)
(-0.0303788 0.00302231 -0.00048231)
(0.262234 0.761423 -0.15794)
(0.736583 1.65531 -0.133978)
(0.675703 1.53401 -0.138117)
(0.820481 1.67307 -0.0897376)
(0.0297338 0.442406 0.0465283)
(-0.21283 -0.254241 0.0548045)
(-0.0547314 -0.0548384 -0.00585499)
(-0.154049 0.00273051 0.0232862)
(-0.147126 -0.00110297 0.0107894)
(-0.135711 0.0395204 0.00780494)
(-0.128993 0.00611697 0.0288966)
(-0.157263 -0.0478655 -0.00895398)
(-0.155489 -0.0455364 -0.0117051)
(-0.112933 -0.000516493 0.0050714)
(-0.172577 -0.0579062 -0.0101571)
(-0.0855613 -0.0335316 0.00886314)
(-0.122608 -0.0402437 -0.00414353)
(-0.0714656 -0.0347034 -0.000951992)
(-0.0786774 -0.0273162 -0.00098683)
(-0.0753215 -0.0243176 -0.00119857)
(-0.0621909 -0.022779 -0.00197575)
(-0.0652316 -0.0183235 -0.00127008)
(-0.0591402 -0.0175965 -0.00146555)
(-0.0565586 -0.0154641 -0.00137741)
(-0.0541607 -0.0136635 -0.00126281)
(-0.0513996 -0.0125579 -0.00117864)
(-0.0492765 -0.0110341 -0.00111406)
(-0.047229 -0.00998341 -0.00101053)
(-0.045332 -0.00882839 -0.000948097)
(-0.0435768 -0.00781137 -0.000866749)
(-0.0418251 -0.00676661 -0.000807742)
(-0.0400768 -0.00571124 -0.000747681)
(-0.0382181 -0.00461874 -0.000697955)
(-0.036226 -0.00347566 -0.000645207)
(-0.0340249 -0.00228848 -0.000585211)
(-0.0315763 -0.00108392 -0.000508689)
(-0.0289489 5.96733e-05 -0.000435384)
(0.180802 1.20045 -0.0374067)
(0.539127 2.04637 -0.149343)
(0.556895 1.79696 -0.152417)
(0.905212 1.94288 -0.0488925)
(0.602778 1.27309 0.0205556)
(0.509457 0.709479 -0.0391187)
(0.298695 0.49003 -0.0571967)
(0.199175 0.436977 -0.049043)
(0.137251 0.32056 -0.060323)
(0.162941 0.222244 -0.0379598)
(0.0966708 0.133552 -0.0738196)
(0.174104 0.223667 -0.0329692)
(-0.033713 0.118007 0.0408196)
(-0.109837 0.0247929 0.00935355)
(-0.0662869 0.0315513 0.000754975)
(-0.116206 -0.0599845 0.00431293)
(-0.061603 -0.00498667 -0.00847792)
(-0.0855427 -0.0365364 0.00148989)
(-0.066972 7.835e-05 -0.00404969)
(-0.0752989 -0.0196919 -0.00086813)
(-0.059447 -0.00434445 -0.00407926)
(-0.0679059 -0.0084011 -0.000304176)
(-0.0564019 -0.00583134 -0.00331344)
(-0.0584758 -0.00535354 -0.00107316)
(-0.0534308 -0.0049727 -0.00199163)
(-0.0519315 -0.00439784 -0.00136264)
(-0.049299 -0.0041434 -0.00138914)
(-0.0472753 -0.00371847 -0.00120239)
(-0.045245 -0.00338404 -0.00110241)
(-0.0433371 -0.00293719 -0.000999322)
(-0.0414572 -0.00246729 -0.000913764)
(-0.0395562 -0.00189696 -0.000839861)
(-0.0375882 -0.00126778 -0.000775914)
(-0.0355179 -0.000568215 -0.000715058)
(-0.0333176 0.000166779 -0.000655319)
(-0.0309829 0.000897154 -0.000598515)
(-0.0285076 0.00153984 -0.000528516)
(0.248285 0.651657 -0.0554627)
(0.536247 1.65192 -0.0223413)
(0.681652 1.51775 -0.0260105)
(0.59742 1.5456 0.0604725)
(0.288506 0.65068 0.110012)
(-0.095625 0.167503 0.0575663)
(-0.180224 0.124088 0.0342921)
(-0.128087 0.174277 0.02284)
(-0.102853 0.118621 0.0140473)
(-0.0777443 0.118047 0.00473065)
(-0.0180124 0.162464 -0.0190596)
(-0.0558487 0.064626 0.0319869)
(-0.0901975 -0.0276009 -0.000576082)
(-0.128775 -0.0645485 0.00274713)
(-0.175148 -0.0774203 0.0164843)
(-0.0872425 -0.0889538 -0.00961889)
(-0.099269 -0.0362367 0.00680459)
(-0.0635888 -0.0394204 -0.00614145)
(-0.0720626 -0.0128126 0.00235203)
(-0.0625739 -0.0220071 -0.00208034)
(-0.0634906 -0.00769073 -0.00210794)
(-0.0604537 -0.0106068 0.000274845)
(-0.0580836 -0.00776642 -0.00246607)
(-0.0552185 -0.00650921 -0.000544333)
(-0.0531098 -0.00619858 -0.00142609)
(-0.0505345 -0.00523496 -0.0009638)
(-0.0485065 -0.00481735 -0.00102615)
(-0.0464258 -0.00427457 -0.000914337)
(-0.0445199 -0.00383651 -0.000863293)
(-0.0426564 -0.00340293 -0.000799483)
(-0.040806 -0.0029729 -0.000748022)
(-0.0389255 -0.00253272 -0.000698129)
(-0.0369623 -0.00208253 -0.000651795)
(-0.0348844 -0.00161715 -0.000604618)
(-0.0326637 -0.00114277 -0.000555312)
(-0.0303046 -0.000666098 -0.000499248)
(-0.0278526 -0.000206646 -0.000445175)
(0.0350081 1.32473 0.122843)
(0.102747 1.57308 0.211835)
(0.66407 1.68915 0.188807)
(0.833618 1.6179 0.244212)
(1.08129 1.0895 0.219958)
(0.897965 0.671605 0.146875)
(0.624315 0.432567 0.103737)
(0.473394 0.299673 0.0720165)
(0.41125 0.246996 0.0459661)
(0.424258 0.137525 0.0402448)
(0.354607 0.0709615 0.0381226)
(0.269653 0.0893714 0.0342564)
(0.195086 0.200506 0.00927159)
(0.383744 0.143659 0.0229196)
(0.168976 -0.101545 0.00986859)
(0.00724509 -0.0930598 -0.0118837)
(-0.064893 -0.0378971 -0.00656312)
(-0.0137828 -0.0158676 -0.00716148)
(-0.0808348 -0.00569422 0.00217145)
(-0.0349917 -0.00480803 -0.00641564)
(-0.0745663 0.00169514 0.0024322)
(-0.04959 -0.00254647 -0.00414128)
(-0.0613639 0.00124413 -0.000190141)
(-0.052756 -0.000449932 -0.00189175)
(-0.053215 0.000328049 -0.00111946)
(-0.0499331 7.45015e-05 -0.00121564)
(-0.0481923 0.000105227 -0.00107673)
(-0.0460751 6.87027e-05 -0.00100199)
(-0.044194 4.47661e-05 -0.000930831)
(-0.0423198 4.79354e-05 -0.000869086)
(-0.0404588 6.57188e-05 -0.000816387)
(-0.0385593 0.000114476 -0.000769619)
(-0.0365819 0.000183107 -0.000725984)
(-0.0344971 0.000269846 -0.000681331)
(-0.0322979 0.000362569 -0.000635116)
(-0.0299867 0.000446186 -0.000587572)
(-0.0275881 0.000505398 -0.000535302)
(0.787647 1.73404 3.6942)
(-2.89536 -4.29085 -0.598181)
(0.307592 0.800317 0.0825277)
(-1.09913 -0.492866 -0.43861)
(-0.221819 -0.377331 0.433245)
(0.0864638 -0.113702 -0.0744504)
(0.0732779 -0.0636963 0.0338542)
(0.113496 -0.0320865 0.0962658)
(0.026236 -0.0268856 0.0696868)
(0.000424435 -0.0326895 0.0467738)
(-0.00721281 -0.0437514 0.0346345)
(-0.00257364 -0.044907 0.0251243)
(0.00143948 -0.0439158 0.0253618)
(0.0134221 -0.040917 0.0212271)
(0.0152365 -0.042393 0.0192025)
(0.0371028 -0.0388047 0.0165559)
(0.0457561 -0.041476 0.0155157)
(0.0642988 -0.0423619 0.0136659)
(0.078293 -0.0418051 0.0192222)
(0.0981357 -0.0395334 0.00913031)
(0.120791 -0.0310621 0.00467889)
(0.136957 -0.0218247 0.00558559)
(0.148255 -0.0168581 0.00722244)
(0.15496 -0.0164012 0.0107758)
(0.157425 -0.0167565 0.0126261)
(0.161622 -0.017886 0.00939803)
(0.170586 -0.017116 0.00685243)
(0.175085 -0.0141064 0.00673369)
(0.180135 -0.0128125 0.00280098)
(0.189589 -0.0115297 0.00190613)
(0.188397 -0.00869418 0.00775711)
(0.183874 -0.00780367 0.00904302)
(0.189378 -0.00749871 0.00867271)
(0.188103 -0.00782989 0.0137999)
(0.186491 -0.00824816 0.0146358)
(0.197014 -0.00648676 0.0137649)
(0.19087 -0.00916721 0.0203495)
(0.175891 -0.0119062 0.0207292)
(-0.647111 -2.22566 -2.28291)
(0.142254 1.60392 0.887874)
(-1.27986 -0.960945 -0.471986)
(-0.288928 0.742791 0.138679)
(-0.282722 -0.551524 -0.143363)
(-0.274828 0.181292 -0.0829007)
(-0.229085 -0.00510656 -0.0139308)
(-0.114089 0.0368724 -0.0411713)
(-0.148158 0.0475812 0.0184561)
(-0.110967 0.0278137 -0.00146831)
(-0.107726 0.00871769 0.00171018)
(-0.11907 0.00509645 0.00859988)
(-0.106767 -0.000751494 0.00825014)
(-0.116034 -0.000845191 0.0183964)
(-0.101993 -0.0192792 0.0142817)
(-0.0972485 -0.0277235 0.00830091)
(-0.0835369 -0.0284443 0.00413577)
(-0.0769422 -0.0299311 0.00201081)
(-0.0672849 -0.0329686 -0.000248982)
(-0.0568445 -0.031965 -0.000294055)
(-0.0447808 -0.0271643 -4.99886e-05)
(-0.0339896 -0.0261104 -0.00123505)
(-0.0180998 -0.0237465 -0.00194997)
(-0.00702226 -0.0219062 -0.00153938)
(0.00520815 -0.0203268 -0.00287695)
(0.0153442 -0.0184033 -0.00407871)
(0.0254251 -0.0155838 -0.00514877)
(0.0352429 -0.0124002 -0.00513464)
(0.0437768 -0.00988785 -0.00433503)
(0.0500641 -0.00732693 -0.00203247)
(0.0532406 -0.00542397 0.00169951)
(0.0523546 -0.00725618 0.00516696)
(0.047174 -0.0135493 0.00728791)
(0.0405087 -0.0221823 0.00702486)
(0.0363343 -0.0280796 0.00409924)
(0.0363777 -0.0250438 -0.000911093)
(0.040934 -0.0148106 -0.00988796)
(0.0508355 -0.00320812 -0.01935)
(0.781731 1.1348 0.429215)
(0.207224 -1.0409 -0.0868945)
(-0.141792 0.0796294 0.240448)
(-0.311909 -0.447989 -0.211892)
(-0.176625 0.0300105 -0.0494002)
(-0.202859 -0.0816864 0.0315153)
(-0.13983 -0.0657321 -0.0549111)
(-0.131783 -0.0412944 -0.0271052)
(-0.107642 -0.0266568 -0.0210023)
(-0.120306 -0.0396806 -0.0262311)
(-0.109288 -0.0373079 -0.0249513)
(-0.107657 -0.0461468 -0.0182305)
(-0.100087 -0.0494548 -0.0260814)
(-0.0991079 -0.0482492 -0.0135586)
(-0.0740448 -0.0579206 -0.00291172)
(-0.085011 -0.0496712 0.0162132)
(-0.0734611 -0.0552545 0.00216947)
(-0.0806483 -0.058091 0.00142651)
(-0.0806305 -0.0531546 -0.00753558)
(-0.0794289 -0.0551078 0.000568012)
(-0.0680162 -0.0465902 -0.00601876)
(-0.0672093 -0.0420007 -0.00668059)
(-0.0553559 -0.0392544 -0.00618961)
(-0.047568 -0.0339415 -0.00728752)
(-0.0384146 -0.0320456 -0.00734603)
(-0.0296958 -0.0289567 -0.00742059)
(-0.0211667 -0.0256753 -0.00708397)
(-0.0132044 -0.0221724 -0.00649812)
(-0.00621353 -0.0192959 -0.00572259)
(-0.000590834 -0.0165407 -0.00488892)
(0.00358391 -0.0141169 -0.00449083)
(0.00568063 -0.0135513 -0.00547133)
(0.00537285 -0.0150908 -0.00780817)
(0.00372912 -0.017393 -0.010912)
(0.00231456 -0.0180579 -0.0144448)
(0.00407882 -0.0145794 -0.0185486)
(0.0121078 -0.00683935 -0.0226634)
(0.667364 0.630698 0.311065)
(0.325818 0.402122 0.0075041)
(-0.415524 -0.157535 0.0615809)
(-0.102776 0.617284 -0.043075)
(-0.508076 -0.358951 -0.106007)
(-0.0758356 0.159536 0.0113113)
(-0.169763 0.0177207 -0.00273215)
(-0.105855 0.00590982 -0.0243653)
(-0.101662 0.0214416 -0.0130544)
(-0.115688 0.0488757 -0.00863626)
(-0.095805 0.0112366 -0.00292528)
(-0.094787 0.00778351 -0.0194814)
(-0.106951 0.0124285 0.00237762)
(-0.0847914 -0.0247531 -0.0209454)
(-0.112605 0.00520785 -0.0175288)
(-0.0886918 -0.0290269 -0.00662331)
(-0.106052 -0.00158028 -0.0126778)
(-0.0830321 -0.0355163 -0.000978411)
(-0.0976817 -0.0212012 -0.0100664)
(-0.0843981 -0.0324754 -0.00704567)
(-0.0875353 -0.0304014 -0.00310465)
(-0.0811719 -0.0253314 -0.00879174)
(-0.0727062 -0.0279381 -0.00422892)
(-0.069992 -0.0234554 -0.00634886)
(-0.0612401 -0.0220272 -0.00593425)
(-0.0558252 -0.0202207 -0.00608664)
(-0.0488912 -0.0179121 -0.00625445)
(-0.0423765 -0.0159783 -0.00635953)
(-0.0359084 -0.0140455 -0.0063858)
(-0.0296501 -0.0122597 -0.00638263)
(-0.0233842 -0.0106785 -0.00651032)
(-0.0171935 -0.00976742 -0.00679179)
(-0.0113454 -0.00941695 -0.00721486)
(-0.00573823 -0.00889557 -0.00797096)
(-0.000100614 -0.00679122 -0.00903735)
(0.00707127 -0.00187345 -0.00967734)
(0.0170739 0.0050611 -0.00931605)
(0.218021 0.207169 -0.0406256)
(0.524208 0.508408 0.0959707)
(0.169741 0.0342065 -0.00238758)
(0.0380599 0.336686 0.113268)
(0.0450817 0.0148468 -0.0931119)
(-0.275402 -0.180891 0.0735854)
(-0.0398477 -0.0579455 -0.00605785)
(-0.126473 -0.0656238 -0.0248893)
(-0.103526 -0.0206639 0.0142479)
(-0.10195 -0.0153875 -0.0331258)
(-0.10317 -0.0532545 -0.00178328)
(-0.122671 -0.0280313 -0.00681348)
(-0.0979211 -0.0386565 -0.0102927)
(-0.119078 -0.0395723 0.017643)
(-0.0850994 -0.0343617 -0.0103808)
(-0.0939712 -0.0460568 0.0144438)
(-0.0767428 -0.0364995 -0.00746157)
(-0.0806098 -0.0382241 0.00341743)
(-0.0699938 -0.0440149 -0.00116529)
(-0.0761118 -0.0362971 -0.00246821)
(-0.0708556 -0.0341765 -0.00458006)
(-0.0708333 -0.0365216 0.00160795)
(-0.0674058 -0.0294767 -0.0060224)
(-0.0657264 -0.029989 0.000105877)
(-0.0611514 -0.0270364 -0.00306615)
(-0.0590899 -0.0247972 -0.00125776)
(-0.0545156 -0.0226546 -0.00156842)
(-0.0510566 -0.0201924 -0.0010074)
(-0.0465789 -0.0180216 -0.000791704)
(-0.0423467 -0.0158819 -0.000564189)
(-0.0377772 -0.013917 -0.000458484)
(-0.033326 -0.0122873 -0.000368709)
(-0.0291153 -0.0110445 -0.000385624)
(-0.0250754 -0.00971602 -0.000590788)
(-0.0208828 -0.00780878 -0.000674096)
(-0.0160465 -0.00481659 -0.000166529)
(-0.0105709 -0.00135843 0.000809161)
(-0.00473716 0.00182714 0.00223483)
(-0.121878 -0.0468317 -0.264073)
(0.363229 0.616507 0.00877134)
(0.138072 0.435523 0.0397364)
(0.0471218 0.634339 0.10261)
(0.106903 0.264809 0.210093)
(-0.00635863 0.0995921 0.177044)
(-0.0911653 0.026883 0.0307415)
(-0.0642347 0.103207 -0.00337773)
(-0.112688 0.0428764 0.0342169)
(-0.0772186 0.0550113 -0.0220944)
(-0.110997 0.0716507 0.00582842)
(-0.0802682 0.0287873 0.00256941)
(-0.0932825 0.014218 -0.017115)
(-0.0928366 0.00705329 -0.00808419)
(-0.0978246 -0.00759089 -0.0116778)
(-0.0968238 -0.0111782 -0.0116779)
(-0.0979214 -0.0191173 -0.00549326)
(-0.0860151 -0.0221313 -0.0104993)
(-0.0882957 -0.0232301 -0.00644593)
(-0.0778317 -0.0236341 -0.0070848)
(-0.0771799 -0.0229057 -0.00537006)
(-0.0698543 -0.0207739 -0.00784678)
(-0.0695327 -0.0199522 -0.0029089)
(-0.0621227 -0.0182143 -0.00656007)
(-0.0622784 -0.0170995 -0.00316333)
(-0.0569538 -0.0158082 -0.00442601)
(-0.0560093 -0.0148941 -0.00302549)
(-0.0527697 -0.0137858 -0.00294895)
(-0.0508721 -0.0127214 -0.00229933)
(-0.0484155 -0.0115193 -0.00196088)
(-0.0461547 -0.0102703 -0.00159934)
(-0.043685 -0.00882895 -0.00133985)
(-0.0411994 -0.00724646 -0.00120821)
(-0.0386874 -0.00539016 -0.00113631)
(-0.0360442 -0.00297518 -0.000932848)
(-0.033096 0.000165336 -0.000549826)
(-0.0299038 0.00353734 -1.55811e-05)
(-0.0265306 0.00662935 0.00069109)
(0.021968 -0.232028 -0.213205)
(0.145169 0.435639 -0.0421953)
(0.16314 0.375193 0.0439672)
(0.0577059 0.403071 0.187906)
(-0.153098 -0.192158 0.104572)
(0.000357268 0.135458 -0.0215048)
(-0.0604126 0.0161827 -0.0766605)
(-0.102532 0.0210205 -0.0458179)
(-0.0861986 0.0409328 -0.0568326)
(-0.111238 0.0132642 -0.0414062)
(-0.115435 0.00480962 -0.0648174)
(-0.133829 -0.0395214 -0.0336007)
(-0.12971 -0.0372605 0.000676096)
(-0.122899 -0.0325738 -0.0170047)
(-0.110583 -0.0342168 0.00395915)
(-0.10462 -0.034637 -0.00935802)
(-0.0923475 -0.0340238 0.000353082)
(-0.0854188 -0.0322548 -0.00817326)
(-0.079288 -0.0318128 -0.00266876)
(-0.0760198 -0.0287679 -0.00625757)
(-0.0702243 -0.0280514 -0.00461417)
(-0.0684121 -0.025395 -0.00539661)
(-0.0632881 -0.0231009 -0.00490439)
(-0.0611038 -0.021779 -0.00469389)
(-0.0572799 -0.0191518 -0.00449001)
(-0.0549237 -0.0180252 -0.00405127)
(-0.0521276 -0.0160278 -0.00385056)
(-0.0501042 -0.0147108 -0.00343573)
(-0.0480628 -0.0132043 -0.00317363)
(-0.0463568 -0.0118804 -0.00286507)
(-0.0446807 -0.0105166 -0.00264853)
(-0.0430629 -0.00913449 -0.00245966)
(-0.0413065 -0.00768283 -0.00232775)
(-0.0394229 -0.00609283 -0.00219441)
(-0.0372737 -0.00426057 -0.00198969)
(-0.0346645 -0.00217451 -0.00166522)
(-0.0316197 -0.000129285 -0.00127545)
(0.12625 0.330778 -0.0904485)
(0.157389 0.684013 -0.0709675)
(0.144208 0.567358 -0.0702446)
(0.168836 0.803239 0.0473055)
(-0.0930795 0.256455 0.037594)
(-0.0049336 0.211658 0.0813737)
(0.0205602 0.102141 -0.0208007)
(-0.0382912 0.099245 -0.026955)
(-0.0296319 0.0588361 -0.0191589)
(-0.0401715 0.0842553 -0.038822)
(-0.00630523 0.112951 0.0242184)
(-0.112221 0.0477652 0.0726535)
(-0.0596305 0.049565 0.0234631)
(-0.0924772 0.0124649 0.00530155)
(-0.0950944 0.00410321 -0.000246566)
(-0.0884758 -0.0132151 -0.00330345)
(-0.0959393 -0.0179261 -0.0044089)
(-0.082189 -0.0220449 -0.00620298)
(-0.0841409 -0.0199747 -0.00575169)
(-0.0742702 -0.0204345 -0.00609733)
(-0.0731127 -0.0173952 -0.0060293)
(-0.0669637 -0.0168791 -0.00571628)
(-0.0645041 -0.0148534 -0.0053261)
(-0.0604207 -0.0134718 -0.00516083)
(-0.0578302 -0.0123212 -0.00457481)
(-0.0547331 -0.0109349 -0.00436225)
(-0.0523829 -0.00999786 -0.00389027)
(-0.0499497 -0.00888102 -0.00360143)
(-0.047855 -0.00792915 -0.00326182)
(-0.045831 -0.00688231 -0.00300671)
(-0.0439325 -0.0058225 -0.00278206)
(-0.0420368 -0.00463329 -0.00260751)
(-0.0400931 -0.00334578 -0.00246529)
(-0.0380431 -0.00191459 -0.00233164)
(-0.0358269 -0.000344856 -0.00217042)
(-0.0333879 0.00133246 -0.00196881)
(-0.0306925 0.00289138 -0.00170058)
(0.150482 -0.0188763 -0.0774508)
(0.242079 0.523453 -0.0274481)
(0.147284 0.597866 0.0235958)
(0.104037 0.631345 0.18291)
(-0.191078 -0.12408 0.219732)
(-0.245146 -0.15543 -0.0309953)
(-0.100204 -0.0518523 -0.0292811)
(-0.189391 -0.0245873 0.0243885)
(-0.146721 -0.0161376 -0.00980126)
(-0.132355 -0.000113635 0.0182978)
(-0.106272 0.0491931 0.0362373)
(-0.128923 0.00546198 -0.0234679)
(-0.137673 -0.0209711 -0.0131014)
(-0.134025 -0.0153283 0.00825265)
(-0.148166 -0.0342894 -0.00937658)
(-0.111732 -0.0351553 0.00727709)
(-0.106972 -0.0334573 -0.00569108)
(-0.0843333 -0.0312408 -0.0043142)
(-0.0820355 -0.0250251 -0.00423409)
(-0.0726311 -0.0224178 -0.00511923)
(-0.0697944 -0.0200817 -0.00515211)
(-0.0649339 -0.0172561 -0.00489545)
(-0.0622736 -0.0157707 -0.00463273)
(-0.0584482 -0.0140993 -0.00441944)
(-0.0560247 -0.0125639 -0.004044)
(-0.0531478 -0.0114329 -0.00373849)
(-0.0508663 -0.010182 -0.00344615)
(-0.0486506 -0.0091734 -0.00314661)
(-0.0466357 -0.0081426 -0.00290208)
(-0.0447327 -0.00717947 -0.00266342)
(-0.0428706 -0.00619471 -0.00246892)
(-0.0409997 -0.00518002 -0.00229155)
(-0.0390349 -0.00412074 -0.00213933)
(-0.0369342 -0.0030097 -0.00198446)
(-0.0346296 -0.00185708 -0.00180919)
(-0.0320881 -0.000695409 -0.00159097)
(-0.0293796 0.000404924 -0.00137249)
(0.0159431 0.750792 -0.0222506)
(0.127529 0.967554 -0.0858534)
(0.177714 0.890088 -0.0694537)
(0.270971 0.954604 0.0353282)
(0.287317 0.647704 0.0483158)
(0.0464975 0.348573 -0.037609)
(-0.0141247 0.201979 0.019256)
(-0.0185385 0.210672 -0.0107316)
(-0.0510606 0.137663 -0.0263549)
(-0.0648835 0.121229 -0.0216631)
(-0.131973 0.121415 -0.0176387)
(-0.051457 0.114992 0.0432869)
(-0.144572 0.0623955 0.0559867)
(-0.0938685 0.0309705 0.0279902)
(-0.114158 -0.0044223 0.00510045)
(-0.094595 -0.0353561 0.00671113)
(-0.0858438 -0.0332156 -0.00963871)
(-0.0788542 -0.0242455 -0.00149586)
(-0.0768502 -0.018241 -0.00774784)
(-0.0689402 -0.0142748 -0.00497588)
(-0.0698182 -0.0126108 -0.00685484)
(-0.0631826 -0.00921666 -0.00484443)
(-0.0617037 -0.00888347 -0.00603143)
(-0.057934 -0.00705898 -0.0046288)
(-0.0554513 -0.00651244 -0.00477053)
(-0.0528053 -0.00558496 -0.00411441)
(-0.0504789 -0.00501996 -0.00383258)
(-0.048278 -0.0043924 -0.00345313)
(-0.0462172 -0.00385122 -0.00315562)
(-0.0442377 -0.00326829 -0.00288384)
(-0.0422921 -0.00267092 -0.00265038)
(-0.0403226 -0.00200995 -0.0024463)
(-0.0382808 -0.0013047 -0.00226694)
(-0.0361337 -0.000550825 -0.00209688)
(-0.033859 0.000222781 -0.00192748)
(-0.0314481 0.000974002 -0.00175931)
(-0.0288994 0.00162798 -0.00155955)
(0.0906171 0.0764086 0.0466249)
(0.271987 0.480714 0.153339)
(0.204178 0.526785 0.241404)
(0.0340754 0.473804 0.327887)
(-0.0405281 0.0985079 0.305313)
(-0.262039 -0.0919456 0.193929)
(-0.265839 -0.131604 0.0666767)
(-0.237216 -0.0498039 0.0409365)
(-0.196282 -0.0232513 0.0281277)
(-0.165691 0.0165671 0.0260348)
(-0.127854 0.0256339 0.0538303)
(-0.085204 -0.0354811 0.052391)
(-0.0560754 -0.0194066 -0.0175287)
(-0.118423 -0.0714695 0.00485083)
(-0.151901 -0.082108 0.0449938)
(-0.118244 -0.0777217 -0.00494914)
(-0.109467 -0.0503596 0.00545315)
(-0.066393 -0.031213 -0.0108445)
(-0.0837864 -0.0213451 -4.58007e-05)
(-0.0576426 -0.0142162 -0.00731373)
(-0.0732212 -0.0123692 -0.00256588)
(-0.0574594 -0.00807153 -0.00498699)
(-0.0624445 -0.00856657 -0.00395536)
(-0.0557686 -0.00621832 -0.00390558)
(-0.055002 -0.00610779 -0.00365576)
(-0.0518362 -0.00511324 -0.00333197)
(-0.0498461 -0.00465845 -0.00309614)
(-0.0476306 -0.00410747 -0.00283991)