/*--------------------------------*- C++ -*----------------------------------*\
| =========                 |                                                 |
| \\      /  F ield         | OpenFOAM: The Open Source CFD Toolbox           |
|  \\    /   O peration     | Version:  2.3.1                                 |
|   \\  /    A nd           | Web:      www.OpenFOAM.org                      |
|    \\/     M anipulation  |                                                 |
\*---------------------------------------------------------------------------*/
FoamFile
{
    version     2.0;
    format      ascii;
    class       volVectorField;
    location    "5";
    object      U_0;
}
// * * * * * * * * * * * * * * * * * * * * * * * * * * * * * * * * * * * * * //

dimensions      [0 1 -1 0 0 0 0];

internalField   nonuniform List<vector> 
37632
(
(-1.17576 -7.69766 -6.60474)
(0.0605671 2.29305 -0.540065)
(-1.4045 -1.87769 0.0991888)
(0.616614 -0.417489 -0.442797)
(0.132113 -0.43904 -0.133857)
(0.247376 -0.266819 0.0437402)
(0.315161 -0.150975 0.0322741)
(0.278711 -0.0666603 0.0467226)
(0.105457 -0.0404187 0.0386644)
(0.00135943 -0.0436717 0.0258454)
(-0.011907 -0.0661248 0.016301)
(-0.0069224 -0.0607209 0.0124346)
(-0.00800544 -0.0612558 0.013928)
(0.0075171 -0.0571043 0.011768)
(0.00521482 -0.0551001 0.0116299)
(0.0326283 -0.0490596 0.00807324)
(0.0352005 -0.0503438 0.00832551)
(0.062741 -0.0477698 0.00587791)
(0.0659298 -0.0489274 0.0102637)
(0.0904043 -0.0465164 0.00296667)
(0.119676 -0.0374752 0.00060108)
(0.141981 -0.0269568 0.00174263)
(0.158581 -0.0202162 0.00270921)
(0.166273 -0.0194853 0.00484981)
(0.165648 -0.0203099 0.00633446)
(0.165884 -0.0226694 0.00439523)
(0.178821 -0.0222941 0.00285134)
(0.184448 -0.0190725 0.00355414)
(0.187016 -0.0182014 0.0013275)
(0.204239 -0.0161965 -5.48262e-05)
(0.207435 -0.0119636 0.00351981)
(0.195429 -0.0112932 0.00495231)
(0.197368 -0.0106993 0.00420538)
(0.196291 -0.0100334 0.00619841)
(0.190596 -0.010528 0.00668337)
(0.199259 -0.00815847 0.00576638)
(0.196045 -0.0099424 0.00853644)
(0.174576 -0.0166371 0.0100592)
(0.101141 3.14529 0.271752)
(-0.960533 0.378444 -0.429683)
(0.393026 0.718942 -1.0108)
(0.299222 0.660583 -0.0351998)
(-0.597694 -0.0531037 0.1722)
(-0.0434736 0.154387 -0.0775122)
(-0.412513 -0.0284404 -0.000365263)
(-0.0447199 -0.0239707 -0.0316644)
(-0.150698 0.0482114 0.0105943)
(-0.104568 1.21304e-05 -0.00112146)
(-0.0793586 -0.0325719 -0.00654261)
(-0.0872566 -0.0164498 0.00139068)
(-0.0825342 -0.0335354 0.000441847)
(-0.0867965 -0.0170027 0.00608924)
(-0.102064 -0.0268808 0.0146929)
(-0.116777 -0.0263614 0.00450729)
(-0.108993 -0.0239765 0.00537829)
(-0.110506 -0.0189455 -0.00146325)
(-0.0974914 -0.0414367 0.00131469)
(-0.0831354 -0.0210651 -0.00032392)
(-0.0786896 -0.0231651 -5.64198e-05)
(-0.0659977 -0.0267837 -0.00042999)
(-0.0443389 -0.0198846 -0.00183429)
(-0.0355233 -0.0195994 -0.00109179)
(-0.020416 -0.017711 -0.00216977)
(-0.00940809 -0.0158382 -0.00275887)
(0.00262975 -0.013307 -0.00329228)
(0.014796 -0.0102203 -0.00313415)
(0.0247879 -0.00757658 -0.00253598)
(0.0320661 -0.00506676 -0.00117872)
(0.0345392 -0.00384962 0.000854855)
(0.0294159 -0.00781945 0.00252917)
(0.0194294 -0.0171344 0.002867)
(0.0105862 -0.0278978 0.00186514)
(0.00567777 -0.035315 -3.68992e-05)
(0.00708088 -0.0343672 -0.00293723)
(0.0167804 -0.0270788 -0.00778585)
(0.0337809 -0.0171049 -0.011734)
(0.271551 2.13047 -0.0596669)
(0.223068 -0.142269 -0.527504)
(0.00911828 -0.128358 -0.172401)
(0.0782169 0.0277183 -0.173362)
(-0.0914023 -0.246879 0.125791)
(-0.125379 -0.109876 -0.0806426)
(-0.0805369 -0.118802 0.00898821)
(-0.11074 -0.132361 -0.0544374)
(-0.0743435 -0.0588719 -0.0325853)
(-0.0328972 -0.0928049 -0.0311351)
(-0.0649554 -0.0842754 -0.038465)
(-0.00383864 -0.0786869 -0.02817)
(-0.0249888 -0.0882772 -0.0285802)
(0.0248032 -0.0940703 -0.0430734)
(0.0586556 -0.0996033 -0.0019586)
(-0.00418367 -0.0659925 0.0106454)
(-0.0457388 -0.0715367 0.0103892)
(-0.0631063 -0.0548683 -0.00420286)
(-0.0541144 -0.0726837 -0.00215191)
(-0.0780256 -0.0552023 0.00435034)
(-0.0617368 -0.0479995 -0.00576713)
(-0.0620837 -0.0506553 -0.00115777)
(-0.056625 -0.0377513 -0.00230934)
(-0.0464114 -0.0354604 -0.00371506)
(-0.0388808 -0.0324774 -0.00302625)
(-0.0296768 -0.0288545 -0.003657)
(-0.0213714 -0.025676 -0.00348616)
(-0.0132342 -0.0222246 -0.00349946)
(-0.00568332 -0.0196334 -0.00346284)
(0.00123153 -0.0167914 -0.00350715)
(0.00759553 -0.0138399 -0.00388851)
(0.0133892 -0.0122645 -0.00502073)
(0.0179508 -0.0122032 -0.00648873)
(0.0202816 -0.0129476 -0.00758074)
(0.0195284 -0.0125974 -0.00857738)
(0.0198375 -0.00776359 -0.0105048)
(0.0267996 0.00115584 -0.0126945)
(0.583581 2.09565 0.11835)
(0.599672 1.37694 -0.440972)
(0.0185647 0.642627 -0.309038)
(0.189153 1.17771 -0.0848946)
(-0.224122 0.129917 0.00750626)
(-0.145305 0.137469 0.0373913)
(-0.232646 0.0498764 -0.00174202)
(-0.129573 0.119694 -0.0221752)
(-0.165742 0.0757127 -0.0170921)
(-0.15711 0.110047 0.00774792)
(-0.164211 0.0645581 -0.0116627)
(-0.124332 0.04763 -0.0117935)
(-0.16203 0.0499985 0.0070373)
(-0.122725 0.0236592 -0.0228214)
(-0.136529 0.022495 -0.000766502)
(-0.104983 0.00550496 -0.0116807)
(-0.0986993 -0.00147992 -0.00310306)
(-0.0938553 -0.00867166 0.00246111)
(-0.0987322 -0.0122958 -0.00894986)
(-0.0729363 -0.0280399 0.00126685)
(-0.0938562 -0.0172085 -0.00169811)
(-0.0669014 -0.0206361 -0.00404237)
(-0.0768529 -0.0179959 0.00184978)
(-0.0614258 -0.0159903 -0.00457253)
(-0.0589016 -0.0130203 -0.000101232)
(-0.0501044 -0.0111786 -0.00286602)
(-0.043146 -0.00853137 -0.00225209)
(-0.034936 -0.00604101 -0.00287516)
(-0.0269712 -0.00355738 -0.00306466)
(-0.0189356 -0.0012379 -0.00326264)
(-0.0107676 0.000938578 -0.00349639)
(-0.00226191 0.00258423 -0.00370874)
(0.00576855 0.00379262 -0.00378494)
(0.0132477 0.00516677 -0.0038996)
(0.0199553 0.00808378 -0.00415372)
(0.0280181 0.0136919 -0.00436454)
(0.0386697 0.0209232 -0.00412562)
(0.819439 1.64259 0.0222942)
(0.857311 1.55421 -0.302682)
(0.510121 0.768558 -0.228103)
(0.300881 0.720387 -0.0619168)
(0.0776795 0.104338 0.0120575)
(-0.201165 -0.165367 0.0104087)
(-0.12783 -0.17232 0.0207539)
(-0.165666 -0.103306 -0.0229888)
(-0.121042 0.0204125 0.0139039)
(-0.0900341 -0.0955172 -0.0367702)
(-0.033926 -0.100391 0.00566602)
(-0.139909 -0.020721 -0.00186756)
(-0.00365271 -0.121099 -0.0166988)
(-0.106483 -0.0461449 0.0190052)
(-0.0378852 -0.08024 -0.0123448)
(-0.0873551 -0.0611171 0.017695)
(-0.057354 -0.0517324 -0.0115426)
(-0.0772205 -0.0514024 0.00998494)
(-0.0604673 -0.0540292 -0.00240037)
(-0.0778393 -0.0416622 -0.000277192)
(-0.0589264 -0.0435892 -0.000293842)
(-0.0760327 -0.0376886 0.00148956)
(-0.0581113 -0.0365187 -0.00293568)
(-0.0668857 -0.0301243 0.00225933)
(-0.056828 -0.0293794 -0.00139566)
(-0.0565692 -0.0246255 0.000759131)
(-0.0507618 -0.0218988 -1.10314e-05)
(-0.0468133 -0.0182562 0.000376413)
(-0.0414163 -0.0151517 0.000380184)
(-0.036179 -0.0120808 0.000424823)
(-0.0303866 -0.00918526 0.000403471)
(-0.0245455 -0.00663569 0.000404922)
(-0.0190669 -0.00463188 0.000386684)
(-0.0138518 -0.00262148 0.000323586)
(-0.00861709 2.86842e-05 0.000284084)
(-0.00282449 0.00367644 0.000474902)
(0.0030809 0.00733902 0.000845747)
(0.00908785 0.0104176 0.00127314)
(0.513118 1.47253 -0.156364)
(0.91786 2.05314 -0.235517)
(0.68178 1.25902 -0.203388)
(0.569799 1.37838 -0.135128)
(0.42289 0.88377 0.00453139)
(0.197157 0.169139 0.0674137)
(-0.135488 0.0251826 0.0210801)
(0.0314376 0.228523 0.0152487)
(-0.1657 -0.0398224 0.0203893)
(-0.00229899 0.172367 -0.00944383)
(-0.139601 0.116576 0.0133444)
(-0.0639998 0.0386438 0.00168859)
(-0.129724 0.089081 -0.0246922)
(-0.0736131 -0.013557 -0.00442097)
(-0.127977 0.053514 -0.0134789)
(-0.0747799 -0.0403045 -0.00917048)
(-0.121244 0.0248261 -0.000393752)
(-0.0651571 -0.0371056 -0.00977682)
(-0.102713 -0.00624249 -0.000368733)
(-0.0615253 -0.0279095 -0.00351895)
(-0.0923061 -0.0096735 -0.00242813)
(-0.0505047 -0.0305158 -0.00360357)
(-0.0811124 -0.00925093 0.000339068)
(-0.0525141 -0.0230715 -0.00356095)
(-0.0655521 -0.0141589 3.36384e-05)
(-0.0543501 -0.0163748 -0.00179079)
(-0.0559045 -0.0145914 -0.000566853)
(-0.0516383 -0.0135862 -0.00076526)
(-0.0497817 -0.012291 -0.000424604)
(-0.046914 -0.0107751 -0.000292225)
(-0.0442383 -0.00923728 -0.000120892)
(-0.0412899 -0.00744994 1.19328e-05)
(-0.0383816 -0.00559556 8.85393e-05)
(-0.0354833 -0.00347552 0.000136284)
(-0.0324748 -0.000771508 0.000244763)
(-0.0292945 0.00265748 0.000413045)
(-0.026131 0.00618233 0.000612637)
(-0.0228839 0.00935764 0.000840504)
(0.374127 0.985091 -0.281159)
(0.858671 1.77989 -0.200183)
(0.793848 1.41771 -0.151105)
(0.523033 1.19219 -0.0639497)
(-0.0546836 -0.209896 0.0649312)
(-0.259393 -0.264226 -0.0646465)
(-0.258396 -0.185024 -0.0764468)
(-0.274923 -0.119227 -0.0344947)
(-0.210009 -0.106197 -0.0800119)
(-0.267953 -0.0594285 -0.00550372)
(-0.165956 -0.0987231 -0.0640109)
(-0.16664 -0.0549124 -0.0231159)
(-0.120683 -0.0386661 0.00954557)
(-0.166605 -0.0431254 -0.0148151)
(-0.0746488 -0.0309445 0.00874942)
(-0.126221 -0.0372711 -0.00828056)
(-0.0782239 -0.0464063 0.00491898)
(-0.0911539 -0.0297472 -0.0055605)
(-0.0684416 -0.0413073 0.000840795)
(-0.0837267 -0.0272496 -0.00366198)
(-0.0568854 -0.0378265 -0.000474426)
(-0.075697 -0.0226228 -0.0028866)
(-0.0544321 -0.0296292 -0.00147389)
(-0.0624598 -0.0224972 -0.00179096)
(-0.0534047 -0.0217148 -0.00172305)
(-0.0538072 -0.019745 -0.00136287)
(-0.0501468 -0.0173639 -0.00138569)
(-0.0488719 -0.0158532 -0.00111228)
(-0.0468581 -0.0140529 -0.00101852)
(-0.0454066 -0.0125351 -0.000856448)
(-0.0438091 -0.0109544 -0.000755078)
(-0.0422768 -0.00938455 -0.000658821)
(-0.040534 -0.00777387 -0.000594065)
(-0.0386817 -0.00602767 -0.000530526)
(-0.0365564 -0.00402512 -0.000444093)
(-0.0339787 -0.00177851 -0.000323785)
(-0.0309997 0.000376392 -0.000191991)
(0.299973 1.45153 -0.21135)
(0.546737 2.15988 -0.174716)
(0.624431 1.59363 -0.17839)
(0.758002 1.71593 -0.130025)
(0.458292 1.1415 -0.0519345)
(0.135401 0.577407 -0.0376577)
(0.195585 0.405446 -0.0771421)
(0.157599 0.376481 -0.0723114)
(0.202295 0.289562 -0.0552889)
(0.116458 0.227618 -0.0705171)
(0.282383 0.288491 -0.0357488)
(0.0551149 0.152102 0.0435832)
(-0.0445007 0.066243 0.025621)
(-0.0728144 0.0296084 0.00112233)
(-0.112622 -0.00448196 0.000991492)
(-0.0633739 0.00788958 -0.00101955)
(-0.11363 -0.0149961 -0.00209782)
(-0.0647488 -0.0158879 -0.00187947)
(-0.0942502 -0.0123904 -0.00248143)
(-0.0634286 -0.0196659 -0.00155771)
(-0.0792364 -0.00774631 -0.00285362)
(-0.0607314 -0.0181515 -0.00151045)
(-0.0663359 -0.00902366 -0.00212455)
(-0.0579904 -0.0122749 -0.00176423)
(-0.0575541 -0.010178 -0.00158345)
(-0.0535387 -0.00944103 -0.00155485)
(-0.0516399 -0.0090553 -0.00131936)
(-0.0490319 -0.00808917 -0.00124215)
(-0.0470412 -0.00745171 -0.00109079)
(-0.0450233 -0.00651599 -0.000995767)
(-0.0431881 -0.00560053 -0.00089886)
(-0.0413439 -0.00447052 -0.000825246)
(-0.0394658 -0.00323538 -0.000765539)
(-0.0374886 -0.00182349 -0.000710813)
(-0.0353484 -0.000250904 -0.000647854)
(-0.0329839 0.00145058 -0.000574268)
(-0.0303585 0.0030388 -0.000481397)
(0.278498 0.807121 -0.164309)
(0.755953 1.70437 -0.141482)
(0.679123 1.57975 -0.143645)
(0.830199 1.68727 -0.0812218)
(0.0228328 0.423639 0.0521734)
(-0.20909 -0.253369 0.0543398)
(-0.053743 -0.0553416 -0.0055258)
(-0.15293 0.0033198 0.0235529)
(-0.148022 -0.00135507 0.0108528)
(-0.135312 0.0393251 0.00807927)
(-0.130352 0.00522189 0.0288194)
(-0.156439 -0.0475832 -0.00936971)
(-0.156274 -0.0461055 -0.0115956)
(-0.112821 -0.00061168 0.00509232)
(-0.172507 -0.0579103 -0.0101786)
(-0.0853523 -0.0335702 0.00880178)
(-0.122474 -0.0402349 -0.00410052)
(-0.0714527 -0.0346725 -0.000979001)
(-0.0785698 -0.027316 -0.000992201)
(-0.0752986 -0.0242959 -0.001197)
(-0.062176 -0.0227742 -0.00197594)
(-0.0651885 -0.018324 -0.00127128)
(-0.0591312 -0.0175875 -0.00146306)
(-0.0565375 -0.0154606 -0.00137653)
(-0.0541473 -0.0136564 -0.00126129)
(-0.0513878 -0.0125499 -0.00117732)
(-0.0492657 -0.0110259 -0.00111279)
(-0.0472191 -0.00997393 -0.00100944)
(-0.0453222 -0.0088187 -0.000947086)
(-0.0435668 -0.00780109 -0.00086588)
(-0.0418146 -0.00675601 -0.000806954)
(-0.0400653 -0.00570013 -0.000746977)
(-0.0382054 -0.00460706 -0.000697281)
(-0.0362115 -0.00346341 -0.000644531)
(-0.0340083 -0.00227588 -0.000584495)
(-0.0315576 -0.00107141 -0.0005078)
(-0.0289288 7.15037e-05 -0.000434587)
(0.186001 1.2698 -0.0434012)
(0.530747 2.10888 -0.150571)
(0.579036 1.83688 -0.147504)
(0.891401 1.94239 -0.0357064)
(0.603747 1.25326 0.0224818)
(0.503079 0.695755 -0.0389056)
(0.29142 0.487913 -0.0582975)
(0.196353 0.437961 -0.0500201)
(0.136897 0.320391 -0.0607475)
(0.162815 0.221532 -0.0381829)
(0.0977713 0.133824 -0.0744116)
(0.174518 0.224075 -0.0325869)
(-0.0342938 0.117918 0.0408765)
(-0.109867 0.0237597 0.0093009)
(-0.0661482 0.0308734 0.000681013)
(-0.116061 -0.0597091 0.00434489)
(-0.0616158 -0.00495985 -0.00850016)
(-0.0854514 -0.0364413 0.00146416)
(-0.0669487 0.000112405 -0.00404697)
(-0.0752974 -0.0196252 -0.000870018)
(-0.0594169 -0.00434767 -0.00408318)
(-0.0678826 -0.0083764 -0.000305169)
(-0.0563907 -0.00582522 -0.00330959)
(-0.0584535 -0.00534454 -0.00107465)
(-0.0534204 -0.0049642 -0.00198868)
(-0.0519183 -0.00439001 -0.00136211)
(-0.0492893 -0.00413508 -0.00138768)
(-0.0472658 -0.00371047 -0.00120142)
(-0.0452359 -0.00337594 -0.00110143)
(-0.0433277 -0.00292919 -0.000998469)
(-0.0414471 -0.00245922 -0.000912986)
(-0.0395451 -0.00188881 -0.000839143)
(-0.0375757 -0.00125946 -0.000775228)
(-0.0355039 -0.000559794 -0.000714379)
(-0.0333021 0.000175101 -0.000654627)
(-0.0309659 0.000904954 -0.00059793)
(-0.028489 0.00154682 -0.000527765)
(0.24855 0.717943 -0.0537534)
(0.520847 1.66566 -0.0153633)
(0.697026 1.54759 -0.0211407)
(0.562077 1.52069 0.0705511)
(0.280368 0.62325 0.109674)
(-0.103001 0.168183 0.0555158)
(-0.181451 0.125606 0.0330206)
(-0.128428 0.173455 0.0226285)
(-0.102274 0.118524 0.0139014)
(-0.077521 0.117647 0.00458827)
(-0.0161524 0.162992 -0.0190883)
(-0.0556099 0.0639325 0.0321895)
(-0.0903673 -0.0271781 -0.000602766)
(-0.12868 -0.0649232 0.00307714)
(-0.17579 -0.0772789 0.0165056)
(-0.0868066 -0.0885692 -0.00970882)
(-0.0989153 -0.035986 0.00676779)
(-0.0636666 -0.0392665 -0.00611057)
(-0.0719968 -0.0127121 0.00232872)
(-0.0626191 -0.0219568 -0.00206292)
(-0.0634579 -0.00768402 -0.00212243)
(-0.0604506 -0.0105856 0.00027875)
(-0.0580632 -0.00776559 -0.00246474)
(-0.0552049 -0.00650484 -0.000545099)
(-0.053095 -0.00619488 -0.00142366)
(-0.0505232 -0.00523231 -0.000963176)
(-0.0484955 -0.00481385 -0.00102487)
(-0.0464161 -0.00427123 -0.00091345)
(-0.0445102 -0.00383286 -0.000862443)
(-0.0426465 -0.00339911 -0.000798756)
(-0.0407954 -0.00296885 -0.000747363)
(-0.0389138 -0.00252843 -0.000697526)
(-0.0369493 -0.002078 -0.00065122)
(-0.0348699 -0.00161243 -0.000604053)
(-0.0326476 -0.00113793 -0.000554745)
(-0.0302872 -0.000661233 -0.000498649)
(-0.0278343 -0.000202019 -0.00044459)
(0.0397906 1.3637 0.129801)
(0.111679 1.5871 0.214996)
(0.677375 1.727 0.19278)
(0.845428 1.609 0.248292)
(1.08649 1.06808 0.217642)
(0.886668 0.659472 0.145597)
(0.618496 0.430877 0.10324)
(0.473171 0.300714 0.07137)
(0.413521 0.247169 0.0457606)
(0.426198 0.135867 0.0403477)
(0.354335 0.0704549 0.0382974)
(0.268947 0.0910129 0.0341451)
(0.1978 0.201841 0.00948484)
(0.385268 0.140857 0.0231932)
(0.165133 -0.103366 0.00969586)
(0.00694232 -0.0922673 -0.0120935)
(-0.0650131 -0.0375268 -0.00642132)
(-0.013915 -0.0157162 -0.00712705)
(-0.0809354 -0.0056108 0.00218791)
(-0.0350658 -0.00479138 -0.00641515)
(-0.0745481 0.00171164 0.00242557)
(-0.0496162 -0.0025376 -0.00413183)
(-0.0613329 0.00124368 -0.000196442)
(-0.0527524 -0.000444421 -0.00188709)
(-0.0531976 0.000328978 -0.0011198)
(-0.0499237 7.70177e-05 -0.00121413)
(-0.0481815 0.000107033 -0.0010759)
(-0.046066 7.05567e-05 -0.00100116)
(-0.0441847 4.65118e-05 -0.000930136)
(-0.0423103 4.96076e-05 -0.000868479)
(-0.0404485 6.73442e-05 -0.000815843)
(-0.038548 0.000116054 -0.000769113)
(-0.0365693 0.000184654 -0.000725493)
(-0.0344831 0.00027134 -0.000680836)
(-0.0322825 0.000363942 -0.000634604)
(-0.02997 0.000447264 -0.000587069)
(-0.0275705 0.000506259 -0.000534733)
(0.976957 1.85495 3.53038)
(-2.91271 -4.49816 -0.518104)
(0.230677 0.67394 0.0794361)
(-1.06194 -0.472368 -0.459695)
(-0.261051 -0.364377 0.440338)
(0.0919735 -0.116608 -0.0738718)
(0.0712273 -0.063499 0.0347886)
(0.111356 -0.0316585 0.0970504)
(0.025624 -0.0272636 0.069612)
(0.000216249 -0.0330137 0.0464647)
(-0.00724824 -0.0439231 0.0346384)
(-0.00247797 -0.0450537 0.0251609)
(0.0016422 -0.0440504 0.0254058)
(0.0136995 -0.0410518 0.0212816)
(0.0156 -0.042524 0.0192314)
(0.0375072 -0.0389112 0.0166041)
(0.046194 -0.0416039 0.015574)
(0.0647648 -0.0425051 0.0137139)
(0.078799 -0.041919 0.01925)
(0.0987142 -0.0395749 0.00910225)
(0.12143 -0.0310351 0.00463493)
(0.137557 -0.021773 0.00560347)
(0.14877 -0.0168393 0.00729073)
(0.155392 -0.0164163 0.0108529)
(0.1578 -0.0167873 0.0126509)
(0.162036 -0.0179098 0.00937244)
(0.170999 -0.0171027 0.00685012)
(0.175444 -0.0140815 0.00671876)
(0.180531 -0.0128019 0.00276658)
(0.189934 -0.0114992 0.00196192)
(0.188571 -0.00866428 0.00783407)
(0.184097 -0.00780162 0.0090336)
(0.18965 -0.00750405 0.00867773)
(0.188287 -0.00783842 0.0138238)
(0.186783 -0.00822078 0.0146075)
(0.1973 -0.00646474 0.013802)
(0.190906 -0.00919639 0.0204346)
(0.175986 -0.0118971 0.020705)
(-0.675842 -2.28163 -2.1799)
(0.127196 1.4428 0.938938)
(-1.27447 -0.910939 -0.484171)
(-0.31513 0.750994 0.140991)
(-0.279664 -0.561232 -0.137358)
(-0.27313 0.179775 -0.08487)
(-0.23162 -0.00390724 -0.0133769)
(-0.114062 0.0367238 -0.0409288)
(-0.148245 0.0472538 0.0182515)
(-0.111335 0.027764 -0.00143409)
(-0.107807 0.00863348 0.00166428)
(-0.119268 0.00502649 0.00862556)
(-0.106859 -0.000799367 0.00826233)
(-0.116139 -0.000888475 0.0184699)
(-0.102037 -0.0193622 0.0143159)
(-0.0972267 -0.0278115 0.00828813)
(-0.0835177 -0.0285111 0.0041409)
(-0.0768897 -0.0299845 0.0020121)
(-0.0672467 -0.033006 -0.000251544)
(-0.0567706 -0.0319916 -0.000325067)
(-0.0446812 -0.0271551 -6.31537e-05)
(-0.0338619 -0.0260899 -0.00123614)
(-0.0179582 -0.0237301 -0.00195265)
(-0.00687473 -0.0218909 -0.00154531)
(0.0053476 -0.0203105 -0.00289072)
(0.0154772 -0.0183797 -0.00409804)
(0.0255602 -0.0155475 -0.00516309)
(0.0353788 -0.0123625 -0.00514328)
(0.0439062 -0.00985304 -0.00433486)
(0.0501813 -0.00729009 -0.00201822)
(0.0533423 -0.00540617 0.00171432)
(0.0524413 -0.0072745 0.00517273)
(0.0472467 -0.0135911 0.00728542)
(0.040584 -0.0222261 0.00700998)
(0.0364242 -0.0280844 0.00407688)
(0.036487 -0.0249815 -0.000955585)
(0.0410781 -0.0147138 -0.00997793)
(0.0510158 -0.00311182 -0.0194136)
(0.852225 1.1418 0.415992)
(0.191388 -1.08696 -0.16186)
(-0.201526 0.0924136 0.25515)
(-0.310633 -0.45618 -0.219159)
(-0.181631 0.0253767 -0.0503438)
(-0.204991 -0.0814712 0.0305411)
(-0.140344 -0.0657334 -0.0543688)
(-0.132221 -0.0417841 -0.0273373)
(-0.107695 -0.0269563 -0.0209871)
(-0.120426 -0.0399758 -0.0262622)
(-0.109409 -0.037547 -0.0250677)
(-0.107697 -0.0463379 -0.0181986)
(-0.100107 -0.0496867 -0.0262005)
(-0.0991197 -0.0484608 -0.013516)
(-0.0739977 -0.0581415 -0.00283204)
(-0.0850592 -0.0498214 0.0162092)
(-0.0734511 -0.0554035 0.00218844)
(-0.0806517 -0.0582374 0.00144405)
(-0.0806312 -0.0532716 -0.00754734)
(-0.0794575 -0.0551765 0.00055376)
(-0.0679909 -0.0466245 -0.00601441)
(-0.0671766 -0.0420084 -0.00668745)
(-0.0553105 -0.039267 -0.00619521)
(-0.0475121 -0.0339528 -0.00728839)
(-0.0383569 -0.0320492 -0.00735148)
(-0.029635 -0.0289493 -0.00742647)
(-0.0211007 -0.0256534 -0.00708935)
(-0.0131333 -0.0221461 -0.00650112)
(-0.00614115 -0.019271 -0.00572454)
(-0.000518237 -0.0165158 -0.00489158)
(0.00365454 -0.0141015 -0.00449892)
(0.00574276 -0.013552 -0.00548658)
(0.00542512 -0.0150982 -0.00782906)
(0.0037766 -0.0173934 -0.0109367)
(0.0023699 -0.0180345 -0.0144738)
(0.00416968 -0.0145166 -0.0185875)
(0.012257 -0.00674982 -0.0227005)
(0.666982 0.573093 0.280394)
(0.32316 0.384304 0.0288038)
(-0.434975 -0.166635 0.0688327)
(-0.0899929 0.636115 -0.0304789)
(-0.512448 -0.360564 -0.106585)
(-0.0787248 0.153485 0.011023)
(-0.169444 0.0171814 -0.00244321)
(-0.106238 0.00542296 -0.0241624)
(-0.101534 0.0207893 -0.0130978)
(-0.115673 0.048656 -0.00867352)
(-0.0958417 0.0111598 -0.00289642)
(-0.0947284 0.00750384 -0.0195476)
(-0.106993 0.0123175 0.00234474)
(-0.0847682 -0.0248858 -0.0209836)
(-0.112685 0.00521923 -0.0175944)
(-0.0886731 -0.0291583 -0.00661914)
(-0.1061 -0.00163245 -0.012719)
(-0.0830362 -0.0356021 -0.000996657)
(-0.0977302 -0.0212349 -0.0100764)
(-0.0844295 -0.0324987 -0.00707556)
(-0.0875326 -0.030439 -0.00310461)
(-0.0811965 -0.0253122 -0.00880599)
(-0.0726883 -0.0279363 -0.00423903)
(-0.0699788 -0.0234412 -0.0063544)
(-0.0612245 -0.0220087 -0.00594076)
(-0.0557996 -0.0201954 -0.00609158)
(-0.0488615 -0.0178812 -0.00625793)
(-0.0423382 -0.0159444 -0.00636248)
(-0.0358643 -0.0140121 -0.00638828)
(-0.0296003 -0.0122277 -0.006385)
(-0.02333 -0.0106526 -0.00651418)
(-0.017137 -0.00974882 -0.00679823)
(-0.011288 -0.00939993 -0.00722377)
(-0.00567794 -0.0088723 -0.00798161)
(-3.1383e-05 -0.00675105 -0.00904624)
(0.00716342 -0.00181178 -0.0096796)
(0.0171946 0.00512956 -0.00930426)
(0.198157 0.180545 -0.055895)
(0.516826 0.518902 0.11555)
(0.163591 0.0344163 0.00372055)
(0.0324076 0.334289 0.119821)
(0.0465714 0.0141916 -0.0866574)
(-0.273374 -0.181059 0.0768111)
(-0.0391592 -0.0584353 -0.00482885)
(-0.12564 -0.0660382 -0.0249118)
(-0.103373 -0.0212682 0.0144086)
(-0.101874 -0.0157184 -0.0331173)
(-0.1031 -0.0534867 -0.00177269)
(-0.122748 -0.0282845 -0.00671797)
(-0.0978381 -0.0388578 -0.0103051)
(-0.119118 -0.0397526 0.0177053)
(-0.0850839 -0.0344898 -0.0103703)
(-0.0939312 -0.0461731 0.0144705)
(-0.0767053 -0.036644 -0.00745026)
(-0.0806 -0.0382821 0.00339732)
(-0.0699743 -0.0440871 -0.00115298)
(-0.0760982 -0.0363641 -0.00246137)
(-0.0708596 -0.0341824 -0.0046001)
(-0.0708269 -0.0365373 0.00161617)
(-0.0673956 -0.0294879 -0.00602211)
(-0.0657244 -0.0299826 9.91307e-05)
(-0.0611431 -0.0270311 -0.00306297)
(-0.0590831 -0.0247846 -0.00126027)
(-0.0545065 -0.0226366 -0.00156775)
(-0.0510439 -0.0201727 -0.00100711)
(-0.0465636 -0.0180006 -0.000790631)
(-0.0423285 -0.0158617 -0.000563078)
(-0.0377573 -0.013899 -0.000457924)
(-0.0333055 -0.0122715 -0.000368954)
(-0.0290955 -0.0110282 -0.00038611)
(-0.025056 -0.00969596 -0.000590179)
(-0.0208618 -0.00778174 -0.000670964)
(-0.0160218 -0.0047822 -0.000158687)
(-0.0105461 -0.00132431 0.000821477)
(-0.00472041 0.00185637 0.00225246)
(-0.127406 -0.0621435 -0.272845)
(0.352059 0.621877 0.0162822)
(0.12956 0.438315 0.0447732)
(0.0408557 0.636781 0.108674)
(0.103782 0.254086 0.215434)
(-0.00922344 0.0983249 0.175819)
(-0.0909733 0.0265622 0.0302335)
(-0.0647983 0.102927 -0.00363971)
(-0.112572 0.0429256 0.0342673)
(-0.0771937 0.0548035 -0.0219359)
(-0.110844 0.0713883 0.0056013)
(-0.0801337 0.0286715 0.00264365)
(-0.0931951 0.014077 -0.0171368)
(-0.0928259 0.00692907 -0.00811656)
(-0.0978111 -0.00770639 -0.0116796)
(-0.0968007 -0.0112593 -0.0117013)
(-0.0979115 -0.0191878 -0.00550536)
(-0.0859906 -0.0221728 -0.0104964)
(-0.088269 -0.0232663 -0.00646582)
(-0.0778261 -0.0236465 -0.00708806)
(-0.0771674 -0.0229117 -0.00536664)
(-0.0698402 -0.020771 -0.0078502)
(-0.0695234 -0.019944 -0.00290963)
(-0.062114 -0.0182011 -0.00655395)
(-0.0622686 -0.0170844 -0.00316535)
(-0.0569495 -0.0157886 -0.00442115)
(-0.0559997 -0.0148733 -0.00302453)
(-0.0527624 -0.0137638 -0.00294579)
(-0.0508611 -0.0126995 -0.00229729)
(-0.0484037 -0.0114978 -0.00195882)
(-0.0461414 -0.0102499 -0.00159806)
(-0.0436714 -0.0088091 -0.00133896)
(-0.0411856 -0.00722534 -0.00120732)
(-0.0386731 -0.00536582 -0.00113495)
(-0.0360283 -0.00294598 -0.000930351)
(-0.0330775 0.00019917 -0.00054565)
(-0.0298832 0.00357244 -9.99556e-06)
(-0.0265103 0.00666139 0.00069597)
(0.0260944 -0.237017 -0.212213)
(0.13758 0.441591 -0.0368118)
(0.157428 0.372716 0.0456516)
(0.05225 0.395554 0.188814)
(-0.154109 -0.19344 0.104537)
(-0.000667696 0.136113 -0.021389)
(-0.0597986 0.0151612 -0.0766654)
(-0.102554 0.0201308 -0.0458222)
(-0.0859055 0.0406652 -0.0567896)
(-0.110963 0.0130474 -0.0415166)
(-0.115509 0.00404688 -0.0648214)
(-0.133747 -0.0397601 -0.0334957)
(-0.12967 -0.0373689 0.000771001)
(-0.122913 -0.0327093 -0.0169764)
(-0.110541 -0.0343263 0.00393243)
(-0.104551 -0.0347291 -0.00937243)
(-0.0922937 -0.0340932 0.000350411)
(-0.0853681 -0.0323034 -0.00818262)
(-0.0792468 -0.0318495 -0.00267958)
(-0.0759912 -0.0287896 -0.00625717)
(-0.070198 -0.0280622 -0.00461679)
(-0.0683889 -0.0254015 -0.00539789)
(-0.063273 -0.0230979 -0.0049013)
(-0.0610865 -0.0217743 -0.0046928)
(-0.0572687 -0.0191434 -0.00448667)
(-0.0549116 -0.0180138 -0.00404876)
(-0.0521177 -0.0160154 -0.00384728)
(-0.0500937 -0.0146964 -0.00343282)
(-0.0480525 -0.0131896 -0.00317061)
(-0.046346 -0.011865 -0.0028624)
(-0.0446695 -0.0105012 -0.00264613)
(-0.0430512 -0.00911859 -0.00245755)
(-0.041294 -0.00766569 -0.00232568)
(-0.0394087 -0.00607371 -0.00219208)
(-0.0372569 -0.00423921 -0.00198671)
(-0.034644 -0.00215176 -0.00166155)
(-0.0315959 -0.000107102 -0.00127114)
(0.135792 0.343854 -0.0900776)
(0.15973 0.695113 -0.0684782)
(0.142837 0.576506 -0.0707135)
(0.167084 0.807239 0.0529593)
(-0.0938015 0.246007 0.0420765)
(-0.00372956 0.208288 0.081131)
(0.0214079 0.101496 -0.0211371)
(-0.0379359 0.0990048 -0.0271277)
(-0.029494 0.0583639 -0.0192216)
(-0.0399007 0.0841909 -0.0386493)
(-0.00576769 0.113278 0.0251137)
(-0.112562 0.0472742 0.0724775)
(-0.0594733 0.0495727 0.0232241)
(-0.0924782 0.0123261 0.00526613)
(-0.0950958 0.0038711 -0.000278151)
(-0.0884235 -0.0133073 -0.00334354)
(-0.0958791 -0.0179501 -0.00442377)
(-0.0821509 -0.0220584 -0.00622335)
(-0.0840933 -0.0199742 -0.00576563)
(-0.0742421 -0.0204315 -0.0061028)
(-0.0730794 -0.0173889 -0.00603235)
(-0.0669439 -0.016869 -0.00571727)
(-0.0644827 -0.0148433 -0.00532484)
(-0.0604061 -0.0134585 -0.00515884)
(-0.0578164 -0.0123071 -0.00457275)
(-0.0547223 -0.0109199 -0.00435957)
(-0.0523727 -0.00998205 -0.00388804)
(-0.0499406 -0.00886532 -0.00359901)
(-0.0478456 -0.00791339 -0.00325971)
(-0.0458214 -0.00686681 -0.00300472)
(-0.0439223 -0.00580714 -0.00278029)
(-0.0420257 -0.00461781 -0.00260586)
(-0.0400808 -0.00332974 -0.00246365)
(-0.0380291 -0.00189774 -0.00232984)
(-0.0358109 -0.000327236 -0.00216832)
(-0.0333695 0.00135046 -0.00196643)
(-0.0306715 0.00290786 -0.00169768)
(0.160989 -0.0114596 -0.0779527)
(0.23996 0.537502 -0.0232788)
(0.139121 0.607272 0.0297375)
(0.0949906 0.617261 0.191952)
(-0.184434 -0.128201 0.221268)
(-0.244987 -0.155394 -0.0300722)
(-0.0991964 -0.0520655 -0.0295236)
(-0.188444 -0.0243079 0.0243785)
(-0.14677 -0.0161351 -0.00973984)
(-0.13208 -0.000292803 0.0184895)
(-0.106046 0.0496352 0.035986)
(-0.128579 0.00554578 -0.0237561)
(-0.138068 -0.0212977 -0.0130762)
(-0.134052 -0.0155321 0.00833342)
(-0.148094 -0.0343957 -0.00939308)
(-0.111575 -0.0351918 0.00716375)
(-0.106857 -0.0334338 -0.0056751)
(-0.0842625 -0.0312262 -0.00434935)
(-0.0819751 -0.0250113 -0.00424825)
(-0.0725983 -0.0224039 -0.00512279)
(-0.0697616 -0.0200744 -0.00515509)
(-0.064908 -0.0172517 -0.00489511)
(-0.0622521 -0.0157638 -0.00462942)
(-0.0584304 -0.0140933 -0.00441607)
(-0.0560093 -0.0125564 -0.0040402)
(-0.0531352 -0.0114245 -0.00373481)
(-0.0508547 -0.0101732 -0.00344274)
(-0.04864 -0.00916385 -0.00314355)
(-0.0466252 -0.00813278 -0.00289932)
(-0.0447221 -0.00716927 -0.00266099)
(-0.0428594 -0.00618424 -0.00246675)
(-0.0409875 -0.00516914 -0.00228959)
(-0.0390214 -0.00410936 -0.00213746)
(-0.0369189 -0.00299784 -0.00198256)
(-0.0346121 -0.00184493 -0.00180714)
(-0.0320687 -0.000683459 -0.0015886)
(-0.0293589 0.000416216 -0.00137012)
(0.0169945 0.775508 -0.0216855)
(0.122884 0.988124 -0.0785795)
(0.178363 0.900528 -0.062393)
(0.267155 0.948006 0.0413134)
(0.289985 0.639521 0.0487601)
(0.0454984 0.346744 -0.0371476)
(-0.0147314 0.200928 0.0182787)
(-0.0186427 0.210746 -0.011758)
(-0.0509474 0.137719 -0.0269477)
(-0.0648265 0.120977 -0.0218718)
(-0.132065 0.120923 -0.0176574)
(-0.0511395 0.115021 0.0437407)
(-0.144396 0.0626993 0.0557367)
(-0.0939479 0.030305 0.0279819)
(-0.114011 -0.00516936 0.00497667)
(-0.0944594 -0.0352591 0.0066729)
(-0.0857259 -0.0330969 -0.00969652)
(-0.0788004 -0.0241724 -0.00152568)
(-0.0768221 -0.0181788 -0.00776245)
(-0.0689158 -0.014237 -0.00498473)
(-0.0697901 -0.0125892 -0.00686266)
(-0.063165 -0.00920288 -0.00484406)
(-0.0616801 -0.00887027 -0.00602918)
(-0.0579181 -0.00704979 -0.00462669)
(-0.0554358 -0.00650207 -0.0047665)
(-0.052793 -0.00557575 -0.00411139)
(-0.0504677 -0.00501052 -0.00382934)
(-0.0482678 -0.00438332 -0.00345036)
(-0.0462072 -0.00384224 -0.00315309)
(-0.0442274 -0.00325947 -0.00288158)
(-0.0422811 -0.00266214 -0.00264833)
(-0.0403106 -0.00200116 -0.0024444)
(-0.0382675 -0.00129583 -0.00226512)
(-0.0361189 -0.00054194 -0.00209506)
(-0.0338427 0.000231466 -0.00192561)
(-0.0314303 0.000982025 -0.0017575)
(-0.0288802 0.00163514 -0.00155746)
(0.0875289 0.0910789 0.0564054)
(0.269408 0.48173 0.163305)
(0.19851 0.536221 0.250094)
(0.0220137 0.460724 0.331331)
(-0.0419574 0.0960523 0.299334)
(-0.259583 -0.0884294 0.191352)
(-0.265646 -0.132012 0.0652282)
(-0.236986 -0.0503707 0.0400393)
(-0.196127 -0.0233117 0.0278246)
(-0.16532 0.0162486 0.0259259)
(-0.127247 0.0254494 0.0539739)
(-0.0850431 -0.035871 0.0522382)
(-0.0564544 -0.0194917 -0.0174453)
(-0.118575 -0.0716687 0.00568963)
(-0.152639 -0.0823867 0.0449446)
(-0.117679 -0.0772484 -0.00540864)
(-0.109261 -0.0500821 0.00543479)
(-0.0663528 -0.0310356 -0.0108113)
(-0.0837783 -0.0212428 -8.16814e-05)
(-0.0576391 -0.0141717 -0.00730475)
(-0.0731991 -0.0123476 -0.00258353)
(-0.0574548 -0.00806235 -0.00497975)
(-0.0624175 -0.00855853 -0.00395735)
(-0.0557575 -0.0062156 -0.00390104)
(-0.0549846 -0.0061028 -0.00365251)
(-0.0518247 -0.00510998 -0.00332842)
(-0.0498343 -0.00465442 -0.00309299)
(-0.0476202 -0.00410365 -0.00283716)
(-0.0456296 -0.00364844 -0.00262695)