/*--------------------------------*- C++ -*----------------------------------*\
| =========                 |                                                 |
| \\      /  F ield         | OpenFOAM: The Open Source CFD Toolbox           |
|  \\    /   O peration     | Version:  2.3.1                                 |
|   \\  /    A nd           | Web:      www.OpenFOAM.org                      |
|    \\/     M anipulation  |                                                 |
\*---------------------------------------------------------------------------*/
FoamFile
{
    version     2.0;
    format      ascii;
    class       volScalarField;
    location    "20";
    object      epsilon_0;
}
// * * * * * * * * * * * * * * * * * * * * * * * * * * * * * * * * * * * * * //

dimensions      [0 2 -3 0 0 0 0];

internalField   nonuniform List<scalar> 
37632
(
90.5896
42.3609
15.6018
7.51563
3.08834
1.53109
0.677691
0.414585
0.317525
0.257246
0.25759
0.220142
0.0601601
0.00400562
0.000496495
0.000416221
0.000428841
0.000430945
0.000450211
0.000471532
0.000474936
0.000490072
0.000512728
0.000517293
0.000523573
0.00054224
0.000558829
0.00057662
0.000592545
0.00062228
0.000666823
0.000688846
0.000687161
0.000702366
0.000696983
0.000647183
0.000606895
0.000605333
30.9969
7.7214
1.85241
0.771333
0.224514
0.123434
0.05809
0.0493499
0.0573649
0.0209797
0.01572
0.0116586
0.00310592
0.000828617
0.000677996
0.000679709
0.000662298
0.000707329
0.000711773
0.000658567
0.000687924
0.000672
0.000691698
0.000615744
0.000671143
0.000700302
0.000675527
0.000767183
0.00083053
0.000855469
0.000897554
0.000944525
0.000940214
0.000905054
0.000935945
0.00101298
0.000983043
0.000931622
18.2929
1.54522
0.845247
0.611358
0.436457
0.0614997
0.022104
0.00263646
0.00401
0.00150685
0.000599488
0.000614753
0.000287028
0.000269152
0.000209421
0.000187817
0.000180962
0.000175038
0.000173915
0.000151612
0.000161455
0.000152616
0.000164785
0.000161304
0.000180617
0.000186224
0.000179784
0.000239837
0.000277409
0.000297514
0.000410175
0.000491222
0.000547857
0.000637314
0.000716184
0.000766697
0.000760605
11.2697
0.381337
0.21406
0.0821669
0.0475886
0.0182102
0.00498513
0.00154572
0.0011466
0.000791667
0.000308622
0.000288421
0.000197136
0.00018166
0.000154669
0.00015064
0.000124376
0.000117852
0.000105639
9.58721e-05
9.38604e-05
8.50487e-05
8.42906e-05
8.12183e-05
7.62252e-05
7.46069e-05
8.02705e-05
8.91543e-05
9.34723e-05
9.55359e-05
0.000133948
0.0001537
0.000158471
0.000216799
0.00024328
0.000224358
0.000176785
9.83011
0.5522
0.190616
0.118405
0.0609037
0.0272112
0.00366762
0.00173348
0.000840814
0.000840061
0.000388926
0.000240288
0.000199394
0.000184306
0.000152931
0.0001437
0.000117029
0.000109981
9.51722e-05
8.49829e-05
8.3903e-05
6.93508e-05
6.69878e-05
6.06046e-05
5.84318e-05
5.5925e-05
5.23209e-05
5.17457e-05
5.37582e-05
5.27862e-05
5.35024e-05
5.25976e-05
5.32808e-05
5.47746e-05
4.83277e-05
3.60523e-05
3.03998e-05
2.36751e-05
10.8086
0.470047
0.259546
0.20477
0.134658
0.0793959
0.0214167
0.00403308
0.000995228
0.000796261
0.00073813
0.000323998
0.000281146
0.000266093
0.00014894
0.000130324
0.000122093
0.0001014
9.44454e-05
7.85977e-05
7.53651e-05
6.25155e-05
5.90787e-05
5.29176e-05
5.05269e-05
4.29548e-05
4.12895e-05
4.07802e-05
3.58016e-05
3.39918e-05
3.2008e-05
2.99199e-05
2.81733e-05
2.73614e-05
2.37806e-05
2.16093e-05
2.09241e-05
1.92321e-05
10.4519
0.518473
0.24349
0.1551
0.041178
0.0197391
0.0065022
0.00319471
0.00216558
0.00139021
0.000839413
0.00036323
0.000272339
0.000183232
0.000153258
0.00013245
0.000132607
0.00010809
9.90141e-05
8.39639e-05
7.27792e-05
6.14825e-05
5.75577e-05
4.91668e-05
4.77623e-05
4.02235e-05
3.88888e-05
3.64053e-05
3.13085e-05
2.95492e-05
2.73329e-05
2.55281e-05
2.34984e-05
2.26918e-05
2.04589e-05
1.94142e-05
1.91029e-05
8.44668
0.908645
0.413102
0.300979
0.161962
0.0534957
0.0218504
0.0119419
0.0107503
0.00618317
0.00379236
0.0017717
0.000526744
0.000171379
0.000163376
0.000149864
0.000140009
0.000130807
0.000135458
9.79141e-05
7.37555e-05
6.3855e-05
5.26991e-05
4.33621e-05
4.03265e-05
3.70793e-05
3.76276e-05
3.23126e-05
3.07125e-05
2.7365e-05
2.68291e-05
2.32676e-05
2.30463e-05
1.99222e-05
1.92675e-05
1.8311e-05
1.74345e-05
3.28999
0.628466
0.345791
0.241676
0.121311
0.0394328
0.0132843
0.00779198
0.00595417
0.00321082
0.00169491
0.0006528
0.000290147
0.000205875
0.000219403
0.000237055
0.000224295
0.00020393
0.00021476
0.000153864
0.000118868
9.06607e-05
5.54663e-05
4.20704e-05
3.56898e-05
3.25749e-05
3.10801e-05
3.038e-05
2.60798e-05
2.4158e-05
2.38465e-05
2.07118e-05
1.91374e-05
1.79244e-05
1.63017e-05
1.55792e-05
1.44239e-05
1.69675
1.04228
0.571749
0.336761
0.219497
0.0931618
0.0300448
0.0130466
0.011637
0.00656487
0.00407945
0.00185385
0.000578732
0.000303147
0.000321591
0.000371008
0.000381688
0.000317496
0.000306416
0.000195626
0.000157891
0.000123901
8.75047e-05
5.90807e-05
3.5823e-05
3.15231e-05
2.67274e-05
2.4263e-05
2.36164e-05
2.12729e-05
2.09619e-05
1.8441e-05
1.71527e-05
1.53663e-05
1.46695e-05
1.29691e-05
1.20128e-05
1.42087
0.82598
0.456609
0.29184
0.205099
0.0903381
0.0304607
0.0144609
0.0101287
0.00508302
0.00293575
0.00160504
0.00110031
0.00184448
0.00223994
0.00277485
0.00229595
0.00116723
0.000914617
0.000425024
0.000163209
0.000125981
0.000106468
8.03234e-05
4.79395e-05
3.56104e-05
2.98281e-05
1.99787e-05
1.73375e-05
1.69014e-05
1.64871e-05
1.50809e-05
1.32605e-05
1.24038e-05
1.17538e-05
1.06116e-05
1.01493e-05
1.04821
0.638008
0.381026
0.265864
0.210728
0.132023
0.0857246
0.065253
0.0466153
0.0308387
0.0184212
0.00677163
0.00427068
0.00443605
0.0044358
0.00429809
0.00323919
0.00298332
0.0028778
0.00166619
0.000184536
8.65546e-05
6.77964e-05
5.46868e-05
5.03434e-05
5.38688e-05
5.14911e-05
2.29225e-05
1.00252e-05
9.00087e-06
8.74339e-06
8.95018e-06
7.26527e-06
7.43031e-06
6.12827e-06
5.90212e-06
5.60545e-06
9.82961
14.4897
5.87758
3.19025
1.51075
0.715195
0.439771
0.294833
0.276576
0.269594
0.226396
0.100508
0.0158842
0.00106999
0.000450076
0.000490712
0.000544471
0.000531041
0.000594642
0.000595485
0.000596483
0.000636698
0.000671119
0.000659281
0.000660579
0.000693811
0.000699289
0.000688492
0.000698388
0.000755838
0.000780553
0.000758416
0.000749235
0.00074267
0.000702036
0.000617874
0.000556651
0.000448599
21.5223
9.86887
2.06825
1.24899
0.608862
0.157556
0.13641
0.0990856
0.0839359
0.0645498
0.0297609
0.0151624
0.00294606
0.000974186
0.000796427
0.000729949
0.000713687
0.000711442
0.00073672
0.000716357
0.000743247
0.000742764
0.000746134
0.000737978
0.000760511
0.000790381
0.000798743
0.000845927
0.000886213
0.00090602
0.000925773
0.000930141
0.000886107
0.000813428
0.000766823
0.00071299
0.000630813
0.000616781
26.1274
2.00545
0.87813
0.706223
0.447028
0.0414609
0.0358152
0.00570089
0.0039412
0.00382464
0.00101039
0.00108372
0.000300519
0.000222799
0.000175602
0.000138908
0.000128998
0.00012651
0.000133614
0.000135334
0.000136844
0.000150845
0.000152047
0.000175114
0.000179821
0.000206012
0.000212607
0.000262225
0.000291862
0.0003267
0.000389486
0.000440559
0.000490534
0.000546049
0.000584194
0.000607551
0.000655309
18.474
1.135
0.169087
0.0894657
0.0539806
0.0239136
0.00613984
0.00198784
0.000622081
0.000424123
0.000230524
0.000209112
9.99373e-05
9.53152e-05
6.31227e-05
5.249e-05
4.60929e-05
4.13273e-05
4.01149e-05
3.96868e-05
3.70947e-05
3.96287e-05
4.16016e-05
4.54294e-05
5.07241e-05
5.83151e-05
5.93427e-05
8.41902e-05
9.38291e-05
0.00011258
0.000146741
0.000166479
0.000190437
0.000211126
0.000211645
0.000175623
0.000144489
17.7439
0.926782
0.191542
0.0640718
0.0708084
0.0212404
0.00556308
0.00151911
0.000513713
0.000366784
0.000224069
0.000131204
7.41064e-05
6.59948e-05
5.81273e-05
3.85405e-05
4.04797e-05
3.46353e-05
2.76429e-05
2.94809e-05
2.31061e-05
2.03517e-05
2.07789e-05
1.97426e-05
1.89976e-05
1.8764e-05
1.90942e-05
2.14387e-05
2.19246e-05
2.26897e-05
2.63814e-05
2.74618e-05
2.67034e-05
2.88776e-05
2.52885e-05
2.02987e-05
1.78408e-05
1.33033e-05
21.2799
0.796491
0.207736
0.194759
0.126353
0.0646892
0.017134
0.00391536
0.0008871
0.000526734
0.000361104
0.000397868
0.000142671
0.000116185
6.30717e-05
3.96066e-05
3.35646e-05
3.34362e-05
2.7996e-05
2.4274e-05
2.00989e-05
1.71924e-05
1.64065e-05
1.72639e-05
1.28504e-05
1.30092e-05
1.28383e-05
1.16261e-05
1.14989e-05
1.0924e-05
1.08899e-05
9.9427e-06
9.6559e-06
9.59795e-06
8.13709e-06
7.60283e-06
7.12509e-06
6.67161e-06
20.4386
0.850916
0.145461
0.105556
0.0397652
0.0178571
0.00816992
0.00407657
0.00100386
0.00103041
0.00029088
0.000192602
0.000103396
7.96518e-05
5.02775e-05
4.20195e-05
4.04274e-05
3.2336e-05
3.63083e-05
2.37701e-05
2.16146e-05
2.183e-05
1.49946e-05
1.40773e-05
1.23153e-05
1.1467e-05
1.04416e-05
9.19436e-06
9.05373e-06
8.84307e-06
7.91253e-06
7.53445e-06
7.42323e-06
7.12639e-06
6.35032e-06
6.26682e-06
5.78309e-06
11.5872
0.99463
0.291583
0.242075
0.198226
0.0340096
0.0216859
0.00977739
0.00765291
0.00410653
0.0021857
0.00228233
0.000453708
0.000100516
6.48456e-05
5.35958e-05
5.08554e-05
5.05384e-05
4.79923e-05
3.45703e-05
2.99595e-05
2.47119e-05
1.63015e-05
1.18119e-05
1.04335e-05
1.07711e-05
9.10452e-06
8.24346e-06
8.15105e-06
8.06821e-06
7.14186e-06
7.35405e-06
6.42002e-06
6.51854e-06
5.90306e-06
5.88212e-06
5.94476e-06
2.48319
0.437161
0.264015
0.205564
0.122366
0.0277753
0.00669776
0.00364497
0.00224421
0.00206331
0.000862962
0.000655274
0.000181859
0.000108905
0.000106395
0.000110015
0.00011025
0.000106733
0.000107274
8.25081e-05
6.54409e-05
5.05422e-05
3.65231e-05
1.68638e-05
1.06136e-05
8.93513e-06
8.46534e-06
6.53352e-06
6.18388e-06
6.04818e-06
5.39803e-06
5.18699e-06
5.07264e-06
5.01867e-06
4.89171e-06
4.77968e-06
5.01307e-06
1.70314
1.11203
0.539283
0.216778
0.139657
0.0827915
0.0214078
0.0093196
0.00564651
0.00353598
0.00247563
0.00132592
0.000892736
0.000418314
0.000404521
0.000505915
0.000522168
0.000468855
0.000336734
0.000165092
0.000106294
8.5806e-05
8.13597e-05
5.00975e-05
2.71588e-05
1.43186e-05
9.78455e-06
8.27182e-06
5.55146e-06
5.63585e-06
4.76469e-06
4.14484e-06
4.00118e-06
3.74782e-06
3.68302e-06
3.44026e-06
3.42686e-06
1.92248
1.34084
0.647933
0.22245
0.154096
0.0787339
0.0394935
0.0223077
0.0138933
0.00783943
0.005376
0.00393426
0.0045075
0.00615024
0.00604367
0.00712636
0.00533451
0.00369996
0.00208549
0.000619606
0.000156298
9.87925e-05
7.87824e-05
8.92692e-05
9.11208e-05
6.7363e-05
2.18898e-05
1.0816e-05
6.06916e-06
5.94047e-06
5.28075e-06
3.65713e-06
3.18432e-06
2.92055e-06
2.82692e-06
2.57383e-06
2.35948e-06
0.858287
0.59587
0.336838
0.193273
0.135647
0.0806942
0.0593756
0.0533953
0.0410877
0.026162
0.0143597
0.00570692
0.00393608
0.00395761
0.00424408
0.00424046
0.00364588
0.00365856
0.00329878
0.00161494
0.000241267
7.31354e-05
3.76879e-05
3.15212e-05
3.50262e-05
3.98922e-05
2.52869e-05
1.09542e-05
5.61856e-06
5.10019e-06
4.944e-06
5.01639e-06
4.1362e-06
3.88556e-06
3.65768e-06
3.25715e-06
3.24607e-06
6.24287
9.05523
2.44381
1.45972
1.11398
0.619118
0.42457
0.354273
0.334913
0.281183
0.154914
0.04004
0.00462708
0.000707592
0.000668344
0.000732627
0.000784674
0.000783525
0.000842182
0.000849486
0.000855684
0.00088156
0.000893595
0.000886035
0.000895148
0.000927826
0.000938487
0.000946528
0.000968543
0.00101471
0.0010239
0.00100863
0.000963622
0.000873636
0.000788501
0.00071458
0.000570868
0.000377573
7.24812
1.49068
0.442375
0.30788
0.242496
0.0825651
0.0771411
0.0746001
0.0472231
0.0452003
0.0195902
0.00701962
0.00200525
0.00108772
0.000952565
0.00089395
0.000869222
0.000859398
0.000876277
0.00086787
0.000875678
0.0008743
0.000859747
0.000866984
0.000880945
0.000911975
0.000928086
0.000973602
0.00101206
0.00102073
0.00101855
0.00100926
0.00093396
0.000815005
0.000746213
0.000682739
0.000605821
0.000546456
5.83846
3.76985
0.527726
0.291548
0.0737909
0.022764
0.00573878
0.00534686
0.00172933
0.00167001
0.000834032
0.000698725
0.000316039
0.000240806
0.000187118
0.000167367
0.000154478
0.000151299
0.000152808
0.000151009
0.000154637
0.000159392
0.000161366
0.000178607
0.000182918
0.000197759
0.00021407
0.000237511
0.000258476
0.00028652
0.000315164
0.000344335
0.000372331
0.000401435
0.000422711
0.000435273
0.000422145
6.60725
1.12323
0.170559
0.122301
0.0124819
0.00849296
0.00139285
0.00068847
0.000272729
0.000215758
0.000187293
0.000126982
8.54369e-05
7.53454e-05
5.11194e-05
4.87764e-05
4.08856e-05
3.78668e-05
3.63091e-05
3.52917e-05
3.42931e-05
3.54068e-05
3.64436e-05
3.91486e-05
4.15143e-05
4.50771e-05
4.94581e-05
5.68069e-05
6.36948e-05
7.58774e-05
8.51743e-05
9.58571e-05
0.000107988
0.000112703
0.000115627
9.93665e-05
8.2615e-05
7.54701
0.693626
0.0854192
0.0264809
0.0206366
0.00484552
0.00265198
0.000837199
0.000354517
0.000188959
0.000116372
8.43309e-05
5.14933e-05
4.51219e-05
3.79828e-05
2.83136e-05
2.68405e-05
2.43071e-05
2.05802e-05
2.01014e-05
1.76993e-05
1.65878e-05
1.71524e-05
1.68721e-05
1.6902e-05
1.70174e-05
1.73775e-05
1.88072e-05
1.94189e-05
1.99737e-05
2.12418e-05
2.15632e-05
2.10533e-05
2.09193e-05
2.0178e-05
1.69721e-05
1.49041e-05
1.291e-05
6.33422
0.528154
0.0509093
0.0364224
0.0287502
0.00965631
0.00546798
0.00181159
0.000493752
0.000229646
0.000137612
0.000117171
6.02644e-05
4.29788e-05
3.79699e-05
2.52074e-05
2.29733e-05
2.2296e-05
1.88457e-05
1.55124e-05
1.43763e-05
1.25319e-05
1.16804e-05
1.14386e-05
1.0264e-05
1.03717e-05
1.04228e-05
1.00471e-05
1.00002e-05
9.98174e-06
9.88792e-06
8.98082e-06
8.50842e-06
8.30324e-06
7.40296e-06
6.57251e-06
6.21804e-06
5.61568e-06
3.47971
0.301554
0.0553331
0.0535902
0.0266603
0.00729507
0.0040369
0.00111279
0.000384742
0.000221187
0.000121289
9.12111e-05
6.27766e-05
6.76519e-05
3.04446e-05
2.76919e-05
2.42952e-05
2.20654e-05
2.2124e-05
1.55696e-05
1.34746e-05
1.26129e-05
9.4298e-06
8.34446e-06
7.83438e-06
7.46407e-06
7.27867e-06
6.76248e-06
6.71984e-06
6.83601e-06
6.18997e-06
5.85451e-06
5.73472e-06
5.47234e-06
4.87861e-06
4.6868e-06
4.42683e-06
2.04395
0.286863
0.083417
0.0603905
0.0526991
0.00815035
0.00429272
0.00179998
0.00118938
0.000569795
0.000372547
0.000357766
0.000169619
0.000109651
4.34087e-05
3.82347e-05
3.70257e-05
3.66371e-05
2.7706e-05
2.36242e-05
1.68986e-05
1.43915e-05
9.99082e-06
7.7523e-06
6.56995e-06
6.31001e-06
5.9371e-06
5.27669e-06
5.23311e-06
5.20702e-06
4.72511e-06
4.64676e-06
4.4454e-06
4.32648e-06
4.00886e-06
3.92318e-06
3.82714e-06
0.48164
0.367437
0.155365
0.103658
0.0728022
0.00974427
0.00224172
0.000953844
0.000612468
0.00047892
0.000276338
0.000227482
0.000119171
0.000103966
9.79873e-05
0.000106091
0.000107681
9.86181e-05
8.14968e-05
5.63002e-05
3.39633e-05
2.53732e-05
1.80531e-05
1.06914e-05
7.14665e-06
6.06209e-06
5.72694e-06
4.62739e-06
4.19194e-06
4.05356e-06
3.69289e-06
3.46965e-06
3.37594e-06
3.30117e-06
3.13018e-06
3.06903e-06
3.04808e-06
0.795749
0.858926
0.573094
0.169257
0.0740963
0.0315558
0.0188875
0.00515799
0.00248687
0.00135084
0.000995864
0.000762362
0.00067812
0.000621202
0.000689912
0.000767667
0.000790922
0.000691255
0.000490753
0.000191662
7.78592e-05
5.03352e-05
4.26899e-05
2.78052e-05
1.76402e-05
9.61463e-06
6.76835e-06
5.90496e-06
3.97699e-06
3.87688e-06
3.26655e-06
2.93013e-06
2.78287e-06
2.6334e-06
2.49936e-06
2.35077e-06
2.26726e-06
0.860498
1.04318
0.651269
0.17273
0.0909621
0.0625661
0.0633188
0.0423748
0.026715
0.0175246
0.0140281
0.0114184
0.0113584
0.0117736
0.00986805
0.0102131
0.00802773
0.00518557
0.00368569
0.0012185
0.000214951
7.84006e-05
5.42368e-05
6.5313e-05
7.98596e-05
3.28579e-05
1.58638e-05
9.93885e-06
5.66777e-06
5.08573e-06
3.54426e-06
3.15125e-06
2.65576e-06
2.56156e-06
2.21029e-06
2.08474e-06
1.89253e-06
0.855514
0.723326
0.480189
0.250529
0.164886
0.108301
0.0903477
0.0829251
0.0641283
0.0422844
0.0226141
0.0103209
0.00850931
0.00835075
0.00813113
0.0075118
0.00575506
0.0054258
0.00493537
0.00295155
0.000519172
9.30368e-05
3.08604e-05
2.50098e-05
3.06832e-05
2.60522e-05
2.12217e-05
1.00767e-05
6.7466e-06
6.09695e-06
5.74266e-06
5.65734e-06
5.30126e-06
4.55584e-06
4.51297e-06
3.9008e-06
3.87902e-06
2.64463
4.99579
1.07987
0.82535
0.769258
0.558701
0.430159
0.402179
0.310528
0.135378
0.0449528
0.0103315
0.00154014
0.000732369
0.000844421
0.000910226
0.000962858
0.000971494
0.00102252
0.00103097
0.00103571
0.00104501
0.00103962
0.00102543
0.00103611
0.00106102
0.00107373
0.00108957
0.00111867
0.00113557
0.00113313
0.00110647
0.00101741
0.000877964
0.000783559
0.000696672
0.000494584
0.000316413
1.98825
0.832147
0.265018
0.167079
0.177758
0.0796233
0.0751411
0.0735892
0.042806
0.0187136
0.0072741
0.00356085
0.00162909
0.00117965
0.00107302
0.00104051
0.0010115
0.000999744
0.00100584
0.00099837
0.000988561
0.000977823
0.000952064
0.000956074
0.000963865
0.000988132
0.00100862
0.00105359
0.00108364
0.0010649
0.00104187
0.00101019
0.000878405
0.00074093
0.000678715
0.000625637
0.000511765
0.000413315
1.51488
0.899064
0.271603
0.0831638
0.025524
0.0130799
0.00552973
0.0026509
0.00115757
0.00098931
0.000637745
0.000583253
0.000368131
0.000284399
0.000230963
0.000214289
0.000198824
0.000192226
0.000190343
0.00018621
0.000184992
0.000186127
0.000185481
0.000197637
0.000201404
0.00020924
0.000220521
0.000233752
0.000243714
0.000252392
0.000261539
0.000270148
0.000274941
0.000281069
0.000286251
0.000274143
0.000236011
2.34406
0.285973
0.0493957
0.0247024
0.00423832
0.00380342
0.000865925
0.000436759
0.000249723
0.000214791
0.000195734
0.000126378
9.51613e-05
7.91127e-05
6.03015e-05
5.63384e-05
4.9485e-05
4.56877e-05
4.37533e-05
4.25432e-05
4.15622e-05
4.21394e-05
4.25042e-05
4.43014e-05
4.61886e-05
4.7347e-05
5.04282e-05
5.40455e-05
5.77937e-05
6.31071e-05
6.76294e-05
7.26005e-05
7.57438e-05
7.67502e-05
7.67e-05
6.95374e-05
6.01818e-05
1.64103
0.0918227
0.020829
0.00891381
0.00662164
0.00215864
0.0013513
0.000752916
0.000301608
0.000164145
0.000105931
7.7007e-05
5.22617e-05
4.36718e-05
3.69068e-05
2.92994e-05
2.72751e-05
2.49946e-05
2.20352e-05
2.14057e-05
1.98724e-05
1.91799e-05
1.97919e-05
1.99187e-05
2.04227e-05
2.05781e-05
2.11201e-05
2.22262e-05
2.27222e-05
2.33382e-05
2.38974e-05
2.3791e-05
2.2449e-05
2.17462e-05
2.07061e-05
1.79185e-05
1.5875e-05
1.42213e-05
0.839452
0.0742384
0.0184295
0.0121662
0.00913908
0.00221717
0.00148974
0.000852923
0.000260648
0.000164182
0.000102759
8.34399e-05
4.99517e-05
3.8736e-05
3.44311e-05
2.53044e-05
2.27802e-05
2.17702e-05
1.85799e-05
1.55598e-05
1.44532e-05
1.30073e-05
1.25684e-05
1.25207e-05
1.19951e-05
1.23505e-05
1.24759e-05
1.23538e-05
1.24581e-05
1.25534e-05
1.23856e-05
1.1319e-05
1.06602e-05
1.01355e-05
9.09161e-06
7.97421e-06
7.3126e-06
6.5112e-06
0.331204
0.0545188
0.0253216
0.0231384
0.014447
0.00280387
0.00119666
0.000579858
0.000223685
0.000153083
0.000100885
7.93734e-05
5.3426e-05
4.3381e-05
2.96074e-05
2.64551e-05
2.29158e-05
2.04396e-05
1.94754e-05
1.45516e-05
1.25835e-05
1.13445e-05
9.21208e-06
8.32005e-06
7.96284e-06
7.7997e-06
7.78899e-06
7.43888e-06
7.47285e-06
7.60109e-06
7.08373e-06
6.62825e-06
6.44963e-06
6.01771e-06
5.3633e-06
5.04943e-06
4.67276e-06
0.213779
0.110697
0.0388429
0.0169181
0.0104425
0.00254292
0.00120792
0.000594438
0.00033871
0.000209694
0.000148402
0.000119615
8.8808e-05
5.69098e-05
3.83202e-05
3.59619e-05
3.52545e-05
3.34892e-05
2.42605e-05
2.04178e-05
1.41595e-05
1.1808e-05
8.89199e-06
7.2685e-06
6.27339e-06
6.00505e-06
5.78244e-06
5.15988e-06
5.0727e-06
5.06935e-06
4.66093e-06
4.49131e-06
4.40478e-06
4.14727e-06
3.84644e-06
3.70744e-06
3.52819e-06
0.158888
0.292737
0.113859
0.0407829
0.0221195
0.00379333
0.0016196
0.000592676
0.000357837
0.000256154
0.000181297
0.000143277
0.000105711
9.77244e-05
0.000103514
0.000114347
0.000118613
0.000109068
8.02638e-05
5.09686e-05
2.53951e-05
1.76639e-05
1.2166e-05
8.47151e-06
6.27593e-06
5.60556e-06
5.3817e-06
4.59243e-06
3.99479e-06
3.83135e-06
3.61765e-06
3.29934e-06
3.23387e-06
3.03776e-06
2.87489e-06
2.78711e-06
2.67522e-06
0.434274
0.718577
0.501099
0.129199
0.0460972
0.0273559
0.022398
0.0061619
0.00317347
0.00208347
0.00176727
0.00126638
0.00110154
0.00101196
0.000991693
0.00105172
0.0010848
0.000900983
0.000736392
0.000273776
7.88252e-05
3.77984e-05
2.59694e-05
1.65893e-05
1.07795e-05
7.52613e-06
6.58318e-06
6.09751e-06
3.85842e-06
3.63633e-06
3.42596e-06
2.84911e-06
2.77579e-06
2.4924e-06
2.37744e-06
2.2747e-06
2.09479e-06
0.424383
0.906068
0.599329
0.165521
0.0864428
0.0769535
0.100188
0.0678169
0.0445659
0.0326135
0.0278862
0.0209839
0.0183281
0.0169986
0.0141455
0.0131905
0.0113162
0.00684955
0.0051606
0.00233272
0.00044668
9.67783e-05
3.98477e-05
2.7531e-05
2.69434e-05
1.34186e-05
1.13684e-05
9.67016e-06
5.19027e-06
4.50738e-06
4.34269e-06
3.26259e-06
2.90601e-06
2.69802e-06
2.40614e-06
2.31127e-06
1.9924e-06
0.790325
0.742591
0.600826
0.332797
0.204065
0.142548
0.124648
0.109787
0.0817071
0.0551722
0.0305476
0.0155056
0.0136011
0.0134725
0.012908
0.0114158
0.00827805
0.00713622
0.00648901
0.00454415
0.00115521
0.000218869
3.03063e-05
1.46844e-05
1.33579e-05
1.32323e-05
1.47502e-05
9.32784e-06
7.82087e-06
7.44393e-06
6.39676e-06
6.29398e-06
6.10792e-06
5.27703e-06
5.16858e-06
4.46687e-06
4.36701e-06
1.73545
2.92812
0.617401
0.569352
0.611671
0.509824
0.466766
0.378456
0.134482
0.0319181
0.0111393
0.00319642
0.000870423
0.000862725
0.000996224
0.00105551
0.00110964
0.00112537
0.00116857
0.00117627
0.00117808
0.00117146
0.0011466
0.00112471
0.00113068
0.00114352
0.00115618
0.00117483
0.00119242
0.0011908
0.00117467
0.00111987
0.000991213
0.00084313
0.000748833
0.000649587
0.000426981
0.000265109
0.640466
0.347223
0.139638
0.121082
0.164726
0.0944639
0.089943
0.062821
0.0170379
0.00629493
0.00377714
0.00224558
0.0015264
0.00124717
0.00117523
0.00116106
0.00113799
0.00112699
0.00112604
0.00111553
0.00109178
0.00106712
0.00102894
0.00102423
0.00102455
0.00103873
0.0010621
0.0011003
0.00111469
0.00107028
0.00102745
0.000951206
0.000783759
0.000667796
0.000633049
0.000568547
0.000428314
0.00032426
0.523997
0.441126
0.135618
0.0471186
0.0225492
0.0120886
0.00406487
0.00218481
0.00082116
0.000686336
0.000574554
0.000566453
0.000400114
0.000328143
0.00027912
0.000264916
0.000248323
0.000237273
0.000231773
0.000225266
0.000219602
0.000217559
0.000214238
0.000220855
0.00022324
0.000227193
0.000233909
0.000239293
0.000240791
0.000238508
0.000238071
0.00023608
0.000233693
0.000235109
0.000232517
0.000206625
0.000167135
0.679476
0.139958
0.0249704
0.00854115
0.0024796
0.00162349
0.00076349
0.000480262
0.000293142
0.00024483
0.000215077
0.00014617
0.000115163
9.56041e-05
7.53916e-05
6.8878e-05
6.20078e-05
5.69814e-05
5.44602e-05
5.2934e-05
5.17152e-05
5.17376e-05
5.17694e-05
5.31175e-05
5.47456e-05
5.5354e-05
5.73748e-05
5.96322e-05
6.18648e-05
6.47375e-05
6.79106e-05
7.07575e-05
7.19004e-05
7.12336e-05
6.85416e-05
6.14981e-05
5.37699e-05
0.184798
0.0399745
0.0157469
0.00649924
0.00366934
0.00140399
0.000982671
0.000622023
0.000281189
0.000190369
0.000126914
9.30818e-05
6.72567e-05
5.38514e-05
4.43531e-05
3.52024e-05
3.20714e-05
2.90797e-05
2.63989e-05
2.56105e-05
2.43391e-05
2.38902e-05
2.45711e-05
2.48368e-05
2.57121e-05
2.61218e-05
2.6926e-05
2.80929e-05
2.88064e-05
2.96247e-05
3.00998e-05
2.98648e-05
2.82247e-05
2.67746e-05
2.46594e-05
2.17114e-05
1.91136e-05
1.69905e-05
0.0877217
0.0264769
0.0118085
0.00621958
0.00354004
0.00112886
0.000908935
0.000539491
0.000221724
0.000159048
0.000112981
9.20314e-05
6.33673e-05
4.78065e-05
4.12925e-05
2.98065e-05
2.60942e-05
2.40603e-05
2.08919e-05
1.81342e-05
1.69074e-05
1.56834e-05
1.55327e-05
1.57614e-05
1.56069e-05
1.63295e-05
1.66276e-05
1.67032e-05
1.7047e-05
1.71825e-05
1.70445e-05
1.58887e-05
1.51226e-05
1.40642e-05
1.26621e-05
1.12681e-05
9.99314e-06
8.88435e-06
0.0505564
0.0298451
0.0157362
0.00968302
0.00701497
0.00161526
0.000877054
0.000397369
0.000212235
0.000153125
0.000116737
9.73164e-05
6.62693e-05
5.08107e-05
3.70494e-05
3.05313e-05
2.57854e-05
2.19205e-05
2.01976e-05
1.60645e-05
1.42776e-05
1.20493e-05
1.04952e-05
9.84595e-06
9.63518e-06
9.55198e-06
9.62489e-06
9.46e-06
9.65694e-06
9.81338e-06
9.44827e-06
8.91841e-06
8.67693e-06
7.95706e-06
7.21322e-06
6.67641e-06
6.02281e-06
0.0506012
0.0628312
0.0247654
0.00777772
0.00366278
0.00153534
0.000753656
0.000381925
0.000231639
0.00017258
0.000130589
0.000104665
7.2205e-05
5.23621e-05
4.24231e-05
3.86827e-05
3.66464e-05
3.43054e-05
2.55087e-05
2.14027e-05
1.47765e-05
1.18835e-05
9.20137e-06
7.72194e-06
6.87789e-06
6.606e-06
6.35917e-06
5.87233e-06
5.79755e-06
5.81899e-06
5.50891e-06
5.28276e-06
5.18827e-06
4.76925e-06
4.47672e-06
4.24583e-06
3.94639e-06
0.09208
0.188194
0.0711168
0.0210012
0.0088183
0.00353064
0.001466
0.00060578
0.000375427
0.000272987
0.000197499
0.00014239
0.000118696
0.00011189
0.000112864
0.000126764
0.000132117
0.000124214
9.57785e-05
6.24415e-05
2.76042e-05
1.6841e-05
1.09176e-05
7.7319e-06
6.3189e-06
5.75458e-06
5.44969e-06
4.80709e-06
4.22642e-06
4.08059e-06
3.89945e-06
3.57408e-06
3.51429e-06
3.18991e-06
3.06021e-06
2.94126e-06
2.74173e-06
0.267733
0.531586
0.355021
0.0878512
0.0404758
0.0367802
0.0211909
0.00759892
0.0042718
0.00302397
0.002633
0.0019049
0.00160207
0.00143642
0.00134958
0.00135293
0.00140556
0.00113151
0.0010033
0.000445002
0.000126844
4.31564e-05
2.11873e-05
1.15095e-05
8.41388e-06
6.91614e-06
6.45426e-06
6.1983e-06
4.05528e-06
3.78047e-06
3.642e-06
3.03031e-06
2.98152e-06
2.60171e-06
2.49536e-06
2.39711e-06
2.15589e-06
0.265781
0.705141
0.521241
0.161988
0.102567
0.116015
0.133009
0.0850389
0.0583664
0.0444501
0.0395943
0.0294007
0.0238495
0.0219297
0.0187994
0.0161816
0.0147418
0.00907374
0.00639106
0.00403875
0.00102678
0.000188536
3.8631e-05
1.76102e-05
1.18368e-05
1.00398e-05
9.97368e-06
1.00912e-05
5.95661e-06
5.34667e-06
5.65348e-06
3.82757e-06
3.55999e-06
3.08984e-06
2.74046e-06
2.62842e-06
2.1531e-06
0.633268
0.705241
0.645985
0.416316
0.253542
0.183976
0.159459
0.130876
0.0942491
0.0648143
0.0378673
0.020985
0.0186358
0.0186209
0.0179171
0.0156275
0.0112854
0.00891142
0.00796432
0.00616875
0.00234019
0.000589926
4.18957e-05
1.351e-05
1.17419e-05
1.11691e-05
1.12403e-05
9.21423e-06
8.62084e-06
8.6577e-06
7.18415e-06
6.83923e-06
6.67664e-06
5.83655e-06
5.7725e-06
4.87891e-06
4.73945e-06
0.913687
1.54189
0.490468
0.452824
0.502878
0.49089
0.458649
0.20714
0.029787
0.00687792
0.0038318
0.00138388
0.000817589
0.0010047
0.00112765
0.00118408
0.0012389
0.00125997
0.00129746
0.00130542
0.00130273
0.00128289
0.00123781
0.00120713
0.00120213
0.00120462
0.00121352
0.00122789
0.00123097
0.00121821
0.00117853
0.0010951
0.00093619
0.000784263
0.000707145
0.000596392
0.000358854
0.000206718
0.252486
0.225035
0.0892659
0.0835199
0.127353
0.119898
0.0895764
0.0279235
0.00540834
0.00312221
0.00245085
0.00172162
0.00150054
0.00130697
0.00126718
0.00126932
0.00125682
0.00124838
0.00124421
0.00122867
0.00119446
0.00115577
0.00110242
0.00108485
0.00107696
0.00108061
0.00110286
0.00113327
0.00112623
0.00106261
0.000993381
0.000876852
0.00070043
0.000612095
0.000601084
0.000505786
0.000334579
0.000240882
0.275939
0.176411
0.0697361
0.0201518
0.011927
0.0101957
0.00424394
0.00131721
0.000735035
0.000643526
0.000567111
0.000539359
0.000431725
0.000372931
0.0003291
0.000316242
0.000299021
0.000285608
0.000275786
0.000266636
0.000255241
0.000249694
0.000244013
0.0002448
0.000244869
0.000245887
0.000248372
0.000249632
0.00024349
0.000234873
0.000228185
0.000220796
0.000216482
0.000217758
0.000208569
0.00016931
0.000132118
0.15288
0.052984
0.0155442
0.00543584
0.0020679
0.00123292
0.000773137
0.00055587
0.000363323
0.000303797
0.000250293
0.0001748
0.000141704
0.000116901
9.32996e-05
8.34112e-05
7.51088e-05
6.89024e-05
6.53216e-05
6.33181e-05
6.16059e-05
6.12151e-05
6.10279e-05
6.18183e-05
6.31987e-05
6.36832e-05
6.51826e-05
6.6706e-05
6.82197e-05
7.0276e-05
7.2568e-05
7.41441e-05
7.46544e-05
7.25014e-05
6.75144e-05
5.95727e-05
5.2069e-05
0.0405103
0.0203862
0.0115637
0.0058639
0.00243697
0.00120052
0.00082843
0.000520596
0.000306748
0.000226205
0.000165607
0.000120695
9.15651e-05
6.99607e-05
5.64002e-05
4.32998e-05
3.82011e-05
3.38593e-05
3.0988e-05
2.98858e-05
2.88278e-05
2.85111e-05
2.91734e-05
2.97714e-05
3.09492e-05
3.17774e-05
3.29618e-05
3.42614e-05
3.54293e-05
3.65598e-05
3.71283e-05
3.70723e-05
3.55141e-05
3.34666e-05
3.04566e-05
2.71636e-05
2.40314e-05
2.13211e-05
0.0245929
0.0163767
0.00867747
0.00391583
0.00175331
0.000841006
0.000734693
0.000366318
0.000224208
0.000184174
0.000142173
0.000115638
8.46434e-05
6.35102e-05
5.31247e-05
3.76255e-05
3.15075e-05
2.78953e-05
2.4101e-05
2.13746e-05
1.99725e-05
1.88699e-05
1.88505e-05
1.95021e-05
1.97004e-05
2.07909e-05
2.14797e-05
2.18172e-05
2.25499e-05
2.28597e-05
2.28914e-05
2.19628e-05
2.1081e-05
1.96824e-05
1.78892e-05
1.6193e-05
1.43608e-05
1.28466e-05
0.0227846
0.0212619
0.0124823
0.00601468
0.00323288
0.00119608
0.000834645
0.00037345
0.000248945
0.000189926
0.000151071
0.000124439
9.03366e-05
6.9288e-05
5.04263e-05
3.94885e-05
3.05081e-05
2.54831e-05
2.27403e-05
1.87615e-05
1.68454e-05
1.39972e-05
1.25067e-05
1.1949e-05
1.18608e-05
1.19288e-05
1.221e-05
1.23008e-05
1.27938e-05
1.30356e-05
1.2935e-05
1.24608e-05
1.21658e-05
1.12551e-05
1.03431e-05
9.57114e-06
8.5858e-06
0.0301771
0.0416665
0.0188591
0.00575957
0.00261637
0.00132206
0.000660309
0.000355791
0.00024726
0.000200631
0.000153747
0.000115222
8.89037e-05
6.60926e-05
5.21301e-05
4.49091e-05
3.99866e-05
3.72575e-05
2.96871e-05
2.43913e-05
1.71535e-05
1.34962e-05
1.03985e-05
8.73522e-06
7.97376e-06
7.66454e-06
7.33528e-06
6.99213e-06
7.00836e-06
7.09591e-06
6.91381e-06
6.70495e-06
6.61956e-06
6.10408e-06
5.76344e-06
5.45157e-06
4.99651e-06
0.0669998
0.112007
0.0504954
0.0157993
0.00709072
0.00480611
0.00137539
0.000677928
0.00045598
0.000355595
0.000255799
0.000187407
0.000150348
0.000133742
0.000128731
0.000139213
0.000145951
0.000142097
0.000118582
8.25663e-05
3.41487e-05
1.82217e-05
1.12965e-05
8.26393e-06
6.94984e-06
6.36067e-06
5.83045e-06
5.03208e-06
4.63614e-06
4.5385e-06
4.34138e-06
4.06748e-06
4.00664e-06
3.63662e-06
3.4972e-06
3.36292e-06
3.09821e-06
0.165383
0.33449
0.21319
0.0623872
0.0435743
0.0440628
0.0180196
0.00842415
0.00518193
0.00392428
0.00347681
0.00258306
0.00212465
0.00193597
0.0017461
0.00167079
0.00173024
0.00141002
0.00125347
0.000736879
0.000214743
5.53791e-05