/*--------------------------------*- C++ -*----------------------------------*\
| =========                 |                                                 |
| \\      /  F ield         | OpenFOAM: The Open Source CFD Toolbox           |
|  \\    /   O peration     | Version:  2.3.1                                 |
|   \\  /    A nd           | Web:      www.OpenFOAM.org                      |
|    \\/     M anipulation  |                                                 |
\*---------------------------------------------------------------------------*/
FoamFile
{
    version     2.0;
    format      ascii;
    class       volScalarField;
    location    "20";
    object      epsilon;
}
// * * * * * * * * * * * * * * * * * * * * * * * * * * * * * * * * * * * * * //

dimensions      [0 2 -3 0 0 0 0];

internalField   nonuniform List<scalar> 
37632
(
89.992
42.0075
15.4216
7.49647
3.14155
1.56952
0.684786
0.414025
0.314171
0.251855
0.252649
0.221583
0.0663817
0.00452908
0.000510919
0.000415649
0.000427925
0.00043007
0.000449305
0.000470601
0.000473994
0.000489108
0.000511708
0.000516285
0.000522593
0.000541253
0.00055784
0.000575681
0.000591591
0.000621243
0.000665742
0.000687846
0.000686189
0.000701353
0.000696132
0.000646664
0.000606169
0.000604611
31.0555
7.52057
1.89177
0.79059
0.22775
0.122697
0.058021
0.0496887
0.0576683
0.0213132
0.0159706
0.0119196
0.00336384
0.000849259
0.000676963
0.000678885
0.000661793
0.00070656
0.000710727
0.00065762
0.000686986
0.00067098
0.000690518
0.00061476
0.000670277
0.000699155
0.000674407
0.000766071
0.000829202
0.000854074
0.000896123
0.000943059
0.00093895
0.000903927
0.000934552
0.00101176
0.000982109
0.000930669
18.248
1.52428
0.85591
0.600625
0.439111
0.0628636
0.0225574
0.0026639
0.00404619
0.00151108
0.000603109
0.000628586
0.000291678
0.000270152
0.000209963
0.000187992
0.000180956
0.000174999
0.000173798
0.000151521
0.000161363
0.000152493
0.000164645
0.000161173
0.000180391
0.000185939
0.000179543
0.000239546
0.000276897
0.000296942
0.000409558
0.000490384
0.000546895
0.000636287
0.000715054
0.000765715
0.000759816
11.2946
0.385125
0.219105
0.0806952
0.0490054
0.0181667
0.00498159
0.00155221
0.00114749
0.000789408
0.00030932
0.000289788
0.00019723
0.000181763
0.000154707
0.000150606
0.000124343
0.000117845
0.000105594
9.58654e-05
9.38515e-05
8.50322e-05
8.42762e-05
8.11799e-05
7.61806e-05
7.45665e-05
8.02264e-05
8.90714e-05
9.33529e-05
9.54373e-05
0.000133807
0.000153409
0.000158183
0.000216482
0.000242942
0.000224201
0.000176836
9.6968
0.561809
0.188373
0.117704
0.060697
0.02753
0.00366756
0.001741
0.000842382
0.000841541
0.000388567
0.000240328
0.000199411
0.000184296
0.000152902
0.000143645
0.000117003
0.000109997
9.51358e-05
8.49961e-05
8.39061e-05
6.93463e-05
6.69901e-05
6.06009e-05
5.84333e-05
5.59135e-05
5.23093e-05
5.17389e-05
5.37362e-05
5.27553e-05
5.34626e-05
5.25614e-05
5.3258e-05
5.47441e-05
4.83063e-05
3.60538e-05
3.04122e-05
2.36804e-05
10.7201
0.474696
0.255698
0.20322
0.134392
0.0797646
0.0214877
0.00402426
0.000995782
0.000796222
0.000735497
0.000323412
0.0002813
0.000266111
0.000148952
0.00013034
0.000122062
0.000101377
9.44286e-05
7.85956e-05
7.53601e-05
6.25141e-05
5.90844e-05
5.2917e-05
5.05217e-05
4.29547e-05
4.12972e-05
4.07819e-05
3.57955e-05
3.39901e-05
3.20063e-05
2.99197e-05
2.81742e-05
2.73607e-05
2.37778e-05
2.16108e-05
2.09264e-05
1.92312e-05
10.6522
0.533274
0.240086
0.153405
0.0408325
0.0198954
0.00650298
0.00318857
0.00216167
0.00138891
0.000833363
0.000363406
0.000272765
0.000183282
0.000153201
0.000132458
0.000132614
0.000108054
9.90169e-05
8.39507e-05
7.2761e-05
6.14823e-05
5.7554e-05
4.91676e-05
4.77608e-05
4.02267e-05
3.88986e-05
3.64019e-05
3.13093e-05
2.95516e-05
2.7336e-05
2.55291e-05
2.35015e-05
2.26944e-05
2.04587e-05
1.94161e-05
1.91047e-05
8.97908
0.910775
0.409306
0.299332
0.162274
0.0531508
0.0216937
0.0119026
0.0107049
0.00616665
0.00377658
0.00176891
0.000527798
0.00017147
0.000163347
0.000149781
0.000139972
0.00013086
0.000135503
9.77823e-05
7.3751e-05
6.38594e-05
5.26742e-05
4.33561e-05
4.03211e-05
3.70844e-05
3.76318e-05
3.23115e-05
3.07123e-05
2.73678e-05
2.68309e-05
2.32698e-05
2.30484e-05
1.99236e-05
1.92705e-05
1.83125e-05
1.74359e-05
3.8734
0.658704
0.34397
0.240341
0.120995
0.0389941
0.0131893
0.00776941
0.00594143
0.00320911
0.00169109
0.000652313
0.000290164
0.00020564
0.000219422
0.000236839
0.000224004
0.000203969
0.000214825
0.000153699
0.000118877
9.06138e-05
5.54296e-05
4.2059e-05
3.56878e-05
3.25771e-05
3.1082e-05
3.038e-05
2.60738e-05
2.41613e-05
2.38498e-05
2.07092e-05
1.91391e-05
1.7925e-05
1.6303e-05
1.55804e-05
1.44257e-05
1.77873
1.04092
0.571722
0.334867
0.217944
0.0927991
0.0299492
0.0129533
0.0115557
0.00653756
0.00407006
0.00185379
0.000579812
0.000302734
0.000321254
0.000370788
0.000381504
0.000317749
0.000306627
0.000195734
0.000157773
0.000123807
8.74735e-05
5.90125e-05
3.58117e-05
3.1525e-05
2.6721e-05
2.42617e-05
2.36155e-05
2.12743e-05
2.09645e-05
1.84394e-05
1.71524e-05
1.53672e-05
1.46704e-05
1.29688e-05
1.20139e-05
1.41036
0.819623
0.455688
0.29016
0.203771
0.0898713
0.0301114
0.0143269
0.0100853
0.00507241
0.00293411
0.00160373
0.00109836
0.00183976
0.00223588
0.0027737
0.00229683
0.00117035
0.000915079
0.000428039
0.000163214
0.000125873
0.000106415
8.02379e-05
4.79014e-05
3.55969e-05
2.98165e-05
1.99732e-05
1.73392e-05
1.69023e-05
1.64888e-05
1.50799e-05
1.32597e-05
1.24052e-05
1.17544e-05
1.06117e-05
1.01487e-05
1.02723
0.626038
0.374846
0.262144
0.208576
0.130607
0.0843344
0.0643131
0.0461524
0.0306299
0.0184415
0.0067995
0.00425585
0.00441619
0.00441738
0.00429148
0.00324485
0.00298022
0.00287665
0.00167841
0.000186214
8.64894e-05
6.77172e-05
5.46386e-05
5.03216e-05
5.38353e-05
5.14565e-05
2.28847e-05
1.0024e-05
9.00165e-06
8.74543e-06
8.95035e-06
7.26502e-06
7.43064e-06
6.12833e-06
5.90295e-06
5.605e-06
9.85253
14.3161
5.96193
3.25542
1.55532
0.726826
0.439954
0.290866
0.270541
0.265195
0.227532
0.106566
0.0176943
0.00117463
0.00045044
0.000488753
0.000542847
0.000529788
0.000593367
0.000594206
0.000595262
0.000635447
0.000669831
0.000658032
0.00065937
0.000692594
0.000698166
0.000687469
0.000697288
0.000754564
0.00077947
0.000757406
0.000748142
0.000741707
0.00070144
0.000617373
0.000556361
0.000448404
21.5728
9.4338
2.11369
1.29646
0.600036
0.15874
0.137504
0.098462
0.083406
0.0653363
0.0304178
0.0162293
0.00319247
0.000992784
0.000799354
0.000730473
0.000713453
0.000710678
0.000735522
0.000715027
0.000741834
0.000741299
0.000744622
0.000736535
0.000759092
0.000788847
0.00079721
0.000844428
0.000884629
0.000904435
0.000924259
0.000928685
0.000884889
0.000812403
0.000765832
0.000712293
0.000630235
0.000615856
25.6629
1.99006
0.88488
0.6877
0.447258
0.0422027
0.0364333
0.00563693
0.00395137
0.00387908
0.00102172
0.00113395
0.000308686
0.000225464
0.000177082
0.000139335
0.00012905
0.000126499
0.000133502
0.000135178
0.000136683
0.000150641
0.000151828
0.000174841
0.000179525
0.000205658
0.000212229
0.000261803
0.00029132
0.000326115
0.000388817
0.000439756
0.00048966
0.000545135
0.000583272
0.000606597
0.000654326
18.2564
1.15603
0.168712
0.0888203
0.0559417
0.0240637
0.00620092
0.00200276
0.000621171
0.000425858
0.000231881
0.000211504
0.000100387
9.56344e-05
6.33065e-05
5.26002e-05
4.61123e-05
4.13242e-05
4.01117e-05
3.96761e-05
3.70773e-05
3.96114e-05
4.15608e-05
4.53826e-05
5.06635e-05
5.82276e-05
5.9266e-05
8.40563e-05
9.36487e-05
0.000112376
0.000146459
0.00016615
0.000190142
0.000210827
0.00021138
0.000175487
0.000144499
17.0911
0.931721
0.188454
0.0635788
0.0710979
0.0212325
0.00561692
0.00152682
0.000515564
0.000366521
0.000225205
0.000131354
7.41744e-05
6.61119e-05
5.80932e-05
3.85557e-05
4.05145e-05
3.45911e-05
2.76482e-05
2.94905e-05
2.30851e-05
2.03598e-05
2.07865e-05
1.97373e-05
1.89903e-05
1.87561e-05
1.90881e-05
2.14203e-05
2.19018e-05
2.26715e-05
2.63531e-05
2.74273e-05
2.66779e-05
2.88549e-05
2.52712e-05
2.0291e-05
1.78428e-05
1.33066e-05
20.3106
0.799719
0.202686
0.192956
0.126854
0.0650154
0.0171679
0.00390126
0.000887753
0.000527125
0.000360665
0.000396504
0.000142543
0.000116357
6.31373e-05
3.96452e-05
3.3587e-05
3.34538e-05
2.79809e-05
2.42687e-05
2.00902e-05
1.71968e-05
1.64089e-05
1.72571e-05
1.28516e-05
1.30139e-05
1.28367e-05
1.16249e-05
1.14974e-05
1.0923e-05
1.08867e-05
9.93976e-06
9.65455e-06
9.59567e-06
8.13596e-06
7.60319e-06
7.12568e-06
6.67155e-06
20.4322
0.848626
0.142842
0.10449
0.0395929
0.017759
0.00815057
0.00407254
0.00100065
0.00103342
0.000289474
0.00019317
0.000103396
7.97588e-05
5.03228e-05
4.20573e-05
4.04153e-05
3.2365e-05
3.63189e-05
2.3739e-05
2.16206e-05
2.18313e-05
1.49899e-05
1.40801e-05
1.23196e-05
1.14713e-05
1.04362e-05
9.19471e-06
9.0565e-06
8.84383e-06
7.9108e-06
7.53457e-06
7.42335e-06
7.12512e-06
6.34995e-06
6.26652e-06
5.78253e-06
13.4912
1.08007
0.288664
0.238871
0.197513
0.0338205
0.0215883
0.00971704
0.0075993
0.00407601
0.00217842
0.00227793
0.000456018
0.000100625
6.48293e-05
5.35854e-05
5.08288e-05
5.05377e-05
4.80005e-05
3.45768e-05
2.99763e-05
2.46992e-05
1.62838e-05
1.18076e-05
1.04333e-05
1.07711e-05
9.1005e-06
8.24461e-06
8.15229e-06
8.06752e-06
7.14255e-06
7.35522e-06
6.42087e-06
6.51881e-06
5.90261e-06
5.88217e-06
5.94405e-06
3.02458
0.459154
0.2624
0.204264
0.121702
0.027434
0.00665559
0.00363374
0.00223932
0.0020578
0.000861506
0.000654719
0.000182116
0.000108877
0.000106325
0.000109766
0.000110029
0.000106735
0.000107305
8.25166e-05
6.54235e-05
5.05316e-05
3.65148e-05
1.68515e-05
1.06103e-05
8.93438e-06
8.46208e-06
6.53363e-06
6.18481e-06
6.04872e-06
5.3981e-06
5.18704e-06
5.07298e-06
5.01897e-06
4.89167e-06
4.78015e-06
5.01328e-06
1.75954
1.10597
0.540479
0.21712
0.138878
0.082552
0.0211757
0.00922283
0.00558693
0.00352176
0.00246118
0.00132603
0.000891019
0.000417623
0.000403735
0.000505255
0.000521808
0.000469357
0.000337642
0.000165475
0.000106209
8.5787e-05
8.13477e-05
5.00466e-05
2.71273e-05
1.43153e-05
9.78115e-06
8.26724e-06
5.55275e-06
5.63838e-06
4.76359e-06
4.14503e-06
4.00128e-06
3.74798e-06
3.68318e-06
3.44057e-06
3.42726e-06
1.89357
1.31735
0.643018
0.221159
0.152623
0.078163
0.0386508
0.0221185
0.0138371
0.00781575
0.0053763
0.00393262
0.00449934
0.00613496
0.00603382
0.0071244
0.00533991
0.00370217
0.00209553
0.000625474
0.000156806
9.87295e-05
7.87198e-05
8.93123e-05
9.11275e-05
6.72818e-05
2.18591e-05
1.07984e-05
6.07046e-06
5.94463e-06
5.28114e-06
3.65803e-06
3.18458e-06
2.9209e-06
2.82705e-06
2.57377e-06
2.35967e-06
0.846528
0.583655
0.331133
0.190958
0.134207
0.0796683
0.0582766
0.052596
0.0407909
0.0260811
0.0144071
0.00573159
0.00392364
0.00394288
0.00423066
0.0042336
0.00364106
0.00365238
0.00329869
0.00162765
0.000243453
7.30876e-05
3.76184e-05
3.15085e-05
3.50478e-05
3.98816e-05
2.52593e-05
1.09316e-05
5.61816e-06
5.10051e-06
4.9449e-06
5.01649e-06
4.13593e-06
3.88592e-06
3.65759e-06
3.25743e-06
3.2462e-06
6.25424
9.12221
2.55188
1.51967
1.14498
0.619571
0.42175
0.346885
0.32928
0.281901
0.16196
0.0439982
0.00514677
0.000728012
0.0006661
0.000730242
0.000782583
0.00078174
0.00084041
0.000847712
0.000853942
0.000879807
0.000891875
0.000884384
0.000893522
0.000926231
0.000936975
0.000945053
0.000967016
0.00101317
0.00102246
0.00100728
0.00096247
0.000872743
0.000787777
0.00071399
0.000570898
0.000377558
7.28044
1.50248
0.445737
0.307734
0.24199
0.0827799
0.0774117
0.0741351
0.0477153
0.0459943
0.020616
0.00751486
0.00209307
0.00109885
0.000955732
0.000894274
0.000868604
0.000858281
0.000874791
0.000866187
0.00087393
0.000872492
0.00085798
0.00086527
0.000879224
0.000910197
0.000926303
0.000971804
0.00101023
0.00101899
0.00101685
0.00100766
0.000932792
0.000814072
0.00074531
0.000682055
0.000605406
0.00054582
5.8011
3.88105
0.530635
0.294406
0.0743107
0.0230106
0.00582741
0.00537056
0.00174397
0.00168952
0.000854114
0.000720732
0.00032077
0.000244072
0.000188497
0.000167781
0.000154497
0.000151243
0.000152667
0.000150823
0.000154421
0.000159156
0.000161125
0.00017831
0.000182593
0.000197417
0.000213692
0.0002371
0.000258021
0.000286023
0.000314614
0.000343739
0.000371707
0.000400795
0.000422061
0.000434639
0.000421716
6.54138
1.11176
0.173373
0.12315
0.0129477
0.00860504
0.00141063
0.000692959
0.000274244
0.000216424
0.000188493
0.000128259
8.60419e-05
7.5675e-05
5.12557e-05
4.8875e-05
4.08982e-05
3.78698e-05
3.63073e-05
3.52791e-05
3.4276e-05
3.53891e-05
3.64197e-05
3.91156e-05
4.14743e-05
4.5027e-05
4.93986e-05
5.67345e-05
6.36089e-05
7.57639e-05
8.50357e-05
9.57091e-05
0.000107837
0.000112565
0.000115507
9.93097e-05
8.26199e-05
7.4205
0.679283
0.0846456
0.0266329
0.0207346
0.00488283
0.00267134
0.00084296
0.000356755
0.000189703
0.000116689
8.42413e-05
5.15149e-05
4.51822e-05
3.79651e-05
2.83379e-05
2.68619e-05
2.42979e-05
2.05843e-05
2.01053e-05
1.76902e-05
1.65895e-05
1.71541e-05
1.68696e-05
1.68961e-05
1.70115e-05
1.73736e-05
1.8799e-05
1.94072e-05
1.99633e-05
2.12289e-05
2.1548e-05
2.1041e-05
2.0912e-05
2.01713e-05
1.69683e-05
1.49061e-05
1.29126e-05
6.3387
0.531933
0.0503679
0.0361008
0.0286179
0.00959156
0.0054534
0.00180419
0.00049371
0.00022921
0.000137577
0.000117098
6.02003e-05
4.30153e-05
3.79906e-05
2.5219e-05
2.29912e-05
2.23117e-05
1.88422e-05
1.55127e-05
1.4378e-05
1.25334e-05
1.16814e-05
1.14387e-05
1.02641e-05
1.03729e-05
1.04225e-05
1.00462e-05
9.99986e-06
9.9821e-06
9.88622e-06
8.97881e-06
8.50894e-06
8.3038e-06
7.40232e-06
6.57331e-06
6.21908e-06
5.61617e-06
3.60058
0.315865
0.0552399
0.0533331
0.0264459
0.00724312
0.00404542
0.00111212
0.000383618
0.000221136
0.000120936
9.10212e-05
6.28219e-05
6.78076e-05
3.04578e-05
2.77088e-05
2.42858e-05
2.20803e-05
2.21268e-05
1.55624e-05
1.34794e-05
1.26144e-05
9.42642e-06
8.34501e-06
7.83625e-06
7.46472e-06
7.27811e-06
6.76317e-06
6.72126e-06
6.83679e-06
6.18867e-06
5.85508e-06
5.73559e-06
5.47202e-06
4.8788e-06
4.68732e-06
4.42684e-06
2.29803
0.309338
0.083605
0.0595249
0.0520583
0.00810353
0.0042856
0.00179155
0.00118308
0.00056665
0.000371114
0.00035566
0.000170657
0.000109551
4.33854e-05
3.82021e-05
3.69853e-05
3.65943e-05
2.76999e-05
2.36321e-05
1.69017e-05
1.43918e-05
9.98351e-06
7.75012e-06
6.57081e-06
6.31185e-06
5.93647e-06
5.27731e-06
5.23417e-06
5.20694e-06
4.72547e-06
4.64767e-06
4.44586e-06
4.32645e-06
4.00893e-06
3.92343e-06
3.82699e-06
0.533381
0.368562
0.157095
0.103343
0.0725813
0.00965929
0.00222803
0.000951879
0.000611667
0.000478382
0.000275767
0.000226845
0.00011916
0.000103895
9.7873e-05
0.000105836
0.000107439
9.84436e-05
8.15506e-05
5.63063e-05
3.39533e-05
2.53711e-05
1.80519e-05
1.06834e-05
7.14671e-06
6.0634e-06
5.72734e-06
4.62721e-06
4.19278e-06
4.0543e-06
3.69285e-06
3.46998e-06
3.37637e-06
3.30126e-06
3.13035e-06
3.06931e-06
3.04822e-06
0.800726
0.8456
0.570152
0.170174
0.0739141
0.0312643
0.0186276
0.00512688
0.0024784
0.00134855
0.000994548
0.000761
0.00067628
0.000619823
0.000688528
0.000766856
0.000790811
0.000690293
0.000492905
0.000192387
7.78671e-05
5.03171e-05
4.26998e-05
2.77887e-05
1.7638e-05
9.60741e-06
6.76719e-06
5.90263e-06
3.978e-06
3.87825e-06
3.26672e-06
2.9306e-06
2.78331e-06
2.63349e-06
2.49949e-06
2.35096e-06
2.2674e-06
0.845222
1.02387
0.644126
0.171547
0.089834
0.0616731
0.0625075
0.042239
0.0266534
0.0174796
0.0140232
0.0114043
0.0113286
0.0117466
0.00985354
0.0102075
0.00804191
0.00518603
0.00369476
0.00122778
0.000216278
7.83917e-05
5.42008e-05
6.53638e-05
7.98048e-05
3.27575e-05
1.58418e-05
9.91407e-06
5.67095e-06
5.08846e-06
3.54538e-06
3.15183e-06
2.65602e-06
2.56186e-06
2.21048e-06
2.08497e-06
1.89262e-06
0.842888
0.711164
0.471099
0.246699
0.162464
0.106466
0.0886863
0.0818311
0.0638055
0.0422538
0.0227322
0.0103524
0.00847667
0.00831687
0.00810525
0.00750965
0.00575519
0.0054177
0.00493233
0.00296678
0.000523744
9.30917e-05
3.08153e-05
2.50035e-05
3.06606e-05
2.60241e-05
2.11996e-05
1.00594e-05
6.74674e-06
6.09634e-06
5.74359e-06
5.65841e-06
5.3006e-06
4.55594e-06
4.51309e-06
3.90103e-06
3.87946e-06
2.66705
5.11144
1.10785
0.839146
0.775771
0.555785
0.422781
0.39531
0.314097
0.142156
0.048224
0.011235
0.00163809
0.000733717
0.000841333
0.000907599
0.000960401
0.0009693
0.00102036
0.00102882
0.0010336
0.00104292
0.00103762
0.00102354
0.00103425
0.00105922
0.001072
0.00108786
0.00111695
0.00113393
0.00113154
0.00110504
0.0010164
0.000877157
0.000782801
0.000696194
0.000494862
0.0003164
1.97928
0.876668
0.265918
0.167166
0.177847
0.0792452
0.0750181
0.0738423
0.0440698
0.0196947
0.00763927
0.00369463
0.00165994
0.00118678
0.00107532
0.00104047
0.00101051
0.000998302
0.00100407
0.00099638
0.000986527
0.000975755
0.000950099
0.000954159
0.000961954
0.000986213
0.00100667
0.0010516
0.00108169
0.00106312
0.00104011
0.00100868
0.000877508
0.00074014
0.000677959
0.000625182
0.000511708
0.000413064
1.49423
0.915935
0.274838
0.0827303
0.0254345
0.0129456
0.00555117
0.00269652
0.00118917
0.00100939
0.00064868
0.000592971
0.00037364
0.000287148
0.000232143
0.000214679
0.000198802
0.00019211
0.000190153
0.000185964
0.00018473
0.000185843
0.0001852
0.00019732
0.000201061
0.000208886
0.000220148
0.000233365
0.000243327
0.000252007
0.000261156
0.000269782
0.000274593
0.000280732
0.000285923
0.000273925
0.000235901
2.2957
0.281146
0.0497711
0.0246399
0.00428405
0.00388315
0.000874701
0.000438615
0.000251113
0.000215893
0.00019694
0.000127403
9.58433e-05
7.94374e-05
6.04415e-05
5.64363e-05
4.94994e-05
4.56918e-05
4.37497e-05
4.25275e-05
4.15426e-05
4.21175e-05
4.24796e-05
4.42724e-05
4.61517e-05
4.73058e-05
5.03832e-05
5.39946e-05
5.77381e-05
6.30449e-05
6.75621e-05
7.25283e-05
7.56754e-05
7.66907e-05
7.66541e-05
6.95103e-05
6.01751e-05
1.64887
0.0918695
0.0208847
0.00895263
0.00664668
0.00217259
0.00136461
0.000758808
0.000303807
0.000164917
0.000106204
7.69575e-05
5.22679e-05
4.37159e-05
3.68963e-05
2.932e-05
2.7294e-05
2.49954e-05
2.20408e-05
2.14102e-05
1.9868e-05
1.91812e-05
1.97925e-05
1.99163e-05
2.0418e-05
2.05727e-05
2.11161e-05
2.22204e-05
2.27153e-05
2.33325e-05
2.38903e-05
2.3782e-05
2.24431e-05
2.17455e-05
2.0704e-05
1.79173e-05
1.58777e-05
1.42237e-05
0.852881
0.0757094
0.018446
0.012102
0.00905662
0.00220556
0.00148303
0.00085484
0.000260539
0.000163891
0.000102746
8.33756e-05
4.99015e-05
3.87426e-05
3.44323e-05
2.53091e-05
2.2797e-05
2.17868e-05
1.85801e-05
1.55621e-05
1.4456e-05
1.30094e-05
1.257e-05
1.25208e-05
1.19956e-05
1.23522e-05
1.24764e-05
1.23535e-05
1.2459e-05
1.25544e-05
1.23848e-05
1.13185e-05
1.06625e-05
1.01374e-05
9.09248e-06
7.97609e-06
7.31429e-06
6.51245e-06
0.342318
0.0560455
0.0253344
0.0230394
0.0143322
0.00279056
0.00119943
0.000579812
0.000223587
0.000153069
0.000100754
7.92414e-05
5.34127e-05
4.33907e-05
2.96006e-05
2.64592e-05
2.29146e-05
2.04504e-05
1.9478e-05
1.45494e-05
1.25882e-05
1.13456e-05
9.21032e-06
8.32058e-06
7.96394e-06
7.8007e-06
7.78935e-06
7.43961e-06
7.47462e-06
7.60232e-06
7.08329e-06
6.62965e-06
6.45146e-06
6.01838e-06
5.36428e-06
5.05069e-06
4.6734e-06
0.236695
0.11287
0.0391056
0.0167628
0.0103337
0.00253113
0.0012034
0.00059275
0.00033779
0.000209085
0.000148009
0.000119252
8.90937e-05
5.69167e-05
3.82769e-05
3.59225e-05
3.52156e-05
3.34386e-05
2.42544e-05
2.04289e-05
1.41623e-05
1.18102e-05
8.88891e-06
7.26747e-06
6.27447e-06
6.00681e-06
5.78245e-06
5.1605e-06
5.07384e-06
5.0698e-06
4.66109e-06
4.49215e-06
4.40559e-06
4.14744e-06
3.84686e-06
3.70799e-06
3.52837e-06
0.16228
0.292786
0.11579
0.0408627
0.0221566
0.00377043
0.00161163
0.000591591
0.000357408
0.000256003
0.00018091
0.000143027
0.000105625
9.75894e-05
0.00010329
0.000114092
0.000118359
0.000108814
8.03012e-05
5.1008e-05
2.53957e-05
1.76676e-05
1.21679e-05
8.46769e-06
6.27698e-06
5.60761e-06
5.38329e-06
4.59213e-06
3.99558e-06
3.83226e-06
3.61773e-06
3.29981e-06
3.23445e-06
3.03781e-06
2.8751e-06
2.78745e-06
2.67531e-06
0.428223
0.707323
0.498421
0.129837
0.0458841
0.0269518
0.0221699
0.00614194
0.00316801
0.00207976
0.00176586
0.00126416
0.00109884
0.00100975
0.000989764
0.00105053
0.00108468
0.000899943
0.000738536
0.000274887
7.89939e-05
3.7804e-05
2.59884e-05
1.65843e-05
1.07755e-05
7.52742e-06
6.58571e-06
6.09786e-06
3.85918e-06
3.63775e-06
3.42612e-06
2.84973e-06
2.77644e-06
2.49247e-06
2.37772e-06
2.2748e-06
2.09486e-06
0.416035
0.886802
0.591242
0.163795
0.0851775
0.0758313
0.0994684
0.0675706
0.0444517
0.0325254
0.0278681
0.0209501
0.0182687
0.0169507
0.0141235
0.0131775
0.0113345
0.00685424
0.00516248
0.00234653
0.000449885
9.69798e-05
3.98266e-05
2.75256e-05
2.69113e-05
1.34067e-05
1.13665e-05
9.6599e-06
5.19035e-06
4.50875e-06
4.34522e-06
3.26373e-06
2.9073e-06
2.69829e-06
2.40647e-06
2.31154e-06
1.99245e-06
0.779531
0.731119
0.59004
0.327061
0.200664
0.139904
0.122618
0.108726
0.0813986
0.0552027
0.0307265
0.0155359
0.0135398
0.0134095
0.0128606
0.0114172
0.00828425
0.00712728
0.00648399
0.00455726
0.00116384
0.000219785
3.02742e-05
1.46738e-05
1.33553e-05
1.32334e-05
1.47452e-05
9.32098e-06
7.8221e-06
7.44328e-06
6.39743e-06
6.29538e-06
6.10788e-06
5.27695e-06
5.1686e-06
4.46707e-06
4.36758e-06
1.78358
3.05316
0.615484
0.568288
0.608502
0.50351
0.457994
0.37924
0.144864
0.0343457
0.0118483
0.00336363
0.000886597
0.000859392
0.000993046
0.00105262
0.0011069
0.00112284
0.00116609
0.00117382
0.00117566
0.00116909
0.0011444
0.00112264
0.00112867
0.0011416
0.00115431
0.00117298
0.00119064
0.00118908
0.00117307
0.00111854
0.000990345
0.000842399
0.000748077
0.000649246
0.000427313
0.000265124
0.637184
0.352785
0.139869
0.120419
0.162836
0.0933424
0.0893087
0.0651429
0.0183854
0.00658087
0.00386208
0.00229041
0.00154041
0.00125156
0.00117658
0.0011606
0.00113662
0.00112521
0.00112398
0.00111325
0.00108946
0.00106482
0.00102681
0.00102216
0.0010225
0.00103672
0.00106002
0.00109822
0.00111274
0.00106851
0.00102575
0.000949989
0.000783069
0.000667083
0.000632386
0.000568326
0.000428368
0.000324161
0.517474
0.446245
0.1347
0.0460911
0.0222521
0.0120018
0.00413509
0.002255
0.000842185
0.000695091
0.00058057
0.000571036
0.000404309
0.000330373
0.000280066
0.000265188
0.000248246
0.000237094
0.000231527
0.000224958
0.000219279
0.000217221
0.000213909
0.00022051
0.000222875
0.000226822
0.000233532
0.000238927
0.000240439
0.00023819
0.000237778
0.000235826
0.000233457
0.000234882
0.00023234
0.00020656
0.000167113
0.659219
0.138373
0.0249218
0.00851104
0.00249539
0.00164136
0.000769493
0.000480373
0.000294428
0.000246234
0.000216247
0.000147094
0.000115779
9.58984e-05
7.55231e-05
6.89666e-05
6.20246e-05
5.69827e-05
5.44519e-05
5.29125e-05
5.16896e-05
5.17084e-05
5.1738e-05
5.30842e-05
5.47052e-05
5.53107e-05
5.73317e-05
5.95869e-05
6.18183e-05
6.46897e-05
6.78617e-05
7.07075e-05
7.18508e-05
7.11988e-05
6.85178e-05
6.14839e-05
5.37638e-05
0.186009
0.0401397
0.0157552
0.00649511
0.00367091
0.00141759
0.000993779
0.000627164
0.000282776
0.000191029
0.000127101
9.3035e-05
6.72336e-05
5.38782e-05
4.43368e-05
3.52189e-05
3.20886e-05
2.90838e-05
2.64046e-05
2.56137e-05
2.4337e-05
2.38904e-05
2.45697e-05
2.48331e-05
2.57064e-05
2.61155e-05
2.69202e-05
2.80857e-05
2.87991e-05
2.96184e-05
3.00931e-05
2.98576e-05
2.82212e-05
2.67756e-05
2.46601e-05
2.17126e-05
1.91169e-05
1.69934e-05
0.0887586
0.0267444
0.011827
0.00619236
0.00351159
0.00113027
0.000910374
0.000539906
0.000221705
0.00015897
0.000112968
9.19887e-05
6.32829e-05
4.77953e-05
4.12802e-05
2.98069e-05
2.61098e-05
2.4075e-05
2.08965e-05
1.81387e-05
1.69104e-05
1.56861e-05
1.55354e-05
1.57617e-05
1.56074e-05
1.63309e-05
1.66275e-05
1.6703e-05
1.70482e-05
1.71836e-05
1.70444e-05
1.58892e-05
1.51255e-05
1.40671e-05
1.26648e-05
1.12711e-05
9.99572e-06
8.88655e-06
0.0515839
0.0300654
0.0157488
0.00965054
0.00699054
0.00161173
0.000877981
0.000397318
0.000212295
0.000153139
0.000116673
9.72062e-05
6.62023e-05
5.07842e-05
3.70348e-05
3.05285e-05
2.57862e-05
2.19302e-05
2.02036e-05
1.6067e-05
1.42809e-05
1.20503e-05
1.04955e-05
9.84686e-06
9.63624e-06
9.55309e-06
9.6255e-06
9.46075e-06
9.65931e-06
9.81508e-06
9.44889e-06
8.92072e-06
8.67964e-06
7.95893e-06
7.21544e-06
6.67857e-06
6.02432e-06
0.0520722
0.0632735
0.0249159
0.00775493
0.0036448
0.00153005
0.000751014
0.000381192
0.000231388
0.000172367
0.000130437
0.000104589
7.22072e-05
5.23116e-05
4.23815e-05
3.86452e-05
3.66105e-05
3.42603e-05
2.55046e-05
2.14218e-05
1.47805e-05
1.18855e-05
9.20023e-06
7.72191e-06
6.87908e-06
6.60761e-06
6.35932e-06
5.87312e-06
5.79884e-06
5.81999e-06
5.50934e-06
5.28396e-06
5.1895e-06
4.76995e-06
4.47778e-06
4.24684e-06
3.947e-06
0.091947
0.188512
0.0718537
0.0210259
0.00879944
0.00350475
0.00146062
0.000604741
0.000375027
0.000272794
0.000197206
0.000142214
0.000118538
0.000111697
0.000112626
0.0001265
0.000131851
0.000123959
9.57562e-05
6.25464e-05
2.7626e-05
1.68448e-05
1.09168e-05
7.7314e-06
6.32031e-06
5.75647e-06
5.45097e-06
4.80721e-06
4.22733e-06
4.08172e-06
3.89976e-06
3.5747e-06
3.51486e-06
3.19021e-06
3.0607e-06
2.94165e-06
2.74188e-06
0.263874
0.524013
0.354214
0.088043
0.0400859
0.03622
0.0210095
0.00758398
0.00426552
0.00301857
0.00263016
0.00190113
0.00159757
0.0014328
0.00134726
0.00135106
0.00140499
0.00113069
0.00100384
0.00044673
0.000127352
4.32085e-05
2.11727e-05
1.15077e-05
8.41468e-06
6.91815e-06
6.45726e-06
6.19982e-06
4.05626e-06
3.78179e-06
3.64226e-06
3.03096e-06
2.9822e-06
2.60192e-06
2.49572e-06
2.39715e-06
2.15595e-06
0.262096
0.689806
0.514362
0.160181
0.101093
0.114574
0.132188
0.084769
0.058232
0.0443307
0.0395474
0.0293561
0.0237778
0.0218512
0.0187661
0.0161618
0.0147547
0.00908896
0.00638759
0.0040522
0.00103341
0.000189459
3.8612e-05
1.76001e-05
1.18381e-05
1.00401e-05
9.97625e-06
1.00936e-05
5.95671e-06
5.34875e-06
5.65552e-06
3.82908e-06
3.56232e-06
3.08982e-06
2.74094e-06
2.62886e-06
2.15321e-06
0.62788
0.694275
0.635124
0.409753
0.249445
0.18071
0.157317
0.129993
0.0940493
0.0648889
0.0380754
0.0210058
0.018544
0.0185243
0.0178435
0.0156285
0.0112992
0.00890687
0.0079586
0.00617414
0.00235304
0.000592884
4.20299e-05
1.35038e-05
1.17435e-05
1.11715e-05
1.12422e-05
9.21242e-06
8.62306e-06
8.65742e-06
7.18377e-06
6.84058e-06
6.67728e-06
5.83661e-06
5.77239e-06
4.87901e-06
4.74009e-06
0.93452
1.62938
0.484771
0.448478
0.498071
0.4826
0.453374
0.222029
0.0330233
0.00729122
0.00396145
0.00141505
0.000818704
0.00100132
0.00112446
0.00118092
0.00123593
0.00125716
0.0012947
0.00130267
0.00130002
0.00128028
0.00123542
0.0012049
0.0012
0.0012026
0.00121155
0.00122598
0.00122914
0.00121648
0.001177
0.00109395
0.000935431
0.000783563
0.000706429
0.000596173
0.000359214
0.000206783
0.254598
0.228457
0.0890115
0.0826591
0.125829
0.118095
0.0904745
0.0306692
0.00579202
0.00318526
0.00248163
0.00173816
0.00150855
0.00130932
0.00126768
0.00126845
0.00125508
0.00124624
0.00124183
0.0012261
0.00119188
0.00115325
0.00110011
0.00108263
0.00107481
0.00107851
0.00110071
0.00113112
0.00112432
0.00106088
0.00099184
0.000875922
0.000699838
0.000611392
0.000600468
0.000505786
0.000334725
0.000240852
0.273612
0.177692
0.0690704
0.0198187
0.0118347
0.0102469
0.00437538
0.00137638
0.00074626
0.000647147
0.000570257
0.000544272
0.000434919
0.00037464
0.000329788
0.000316346
0.000298882
0.000285359
0.000275467
0.000266257
0.000254856
0.000249302
0.000243633
0.000244419
0.000244482
0.000245496
0.000247993
0.000249267
0.000243168
0.000234586
0.000227936
0.000220586
0.000216283
0.000217563
0.000208467
0.000169313
0.000132117
0.148728
0.0523626
0.0154914
0.00544266
0.00208387
0.00124177
0.000778045
0.000557964
0.000365259
0.000305463
0.000251283
0.000175551
0.000142203
0.000117146
9.34056e-05
8.34815e-05
7.51236e-05
6.88985e-05
6.53064e-05
6.32903e-05
6.15716e-05
6.11772e-05
6.09881e-05
6.17776e-05
6.31537e-05
6.36362e-05
6.5137e-05
6.66602e-05
6.81749e-05
7.02317e-05
7.25242e-05
7.41013e-05
7.46129e-05
7.24744e-05
6.75001e-05
5.95658e-05
5.20655e-05
0.0404676
0.0203738
0.0115716
0.00586497
0.00244172
0.00121435
0.000837564
0.000523863
0.000307875
0.000226681
0.000165721
0.000120626
9.15282e-05
6.99665e-05
5.63736e-05
4.33091e-05
3.8215e-05
3.3863e-05
3.09927e-05
2.9888e-05
2.88255e-05
2.85088e-05
2.91696e-05
2.97652e-05
3.09411e-05
3.17687e-05
3.2953e-05
3.42515e-05
3.54197e-05
3.65509e-05
3.71195e-05
3.70644e-05
3.55102e-05
3.34674e-05
3.04586e-05
2.71663e-05
2.4035e-05
2.13243e-05
0.024741
0.0163949
0.00869069
0.00390714
0.00174937
0.000843087
0.000735751
0.000366284
0.000224217
0.0001842
0.000142171
0.000115581
8.45598e-05
6.3485e-05
5.30986e-05
3.76161e-05
3.15206e-05
2.79069e-05
2.41076e-05
2.13811e-05
1.99761e-05
1.88726e-05
1.88527e-05
1.9501e-05
1.96991e-05
2.07909e-05
2.14778e-05
2.18151e-05
2.25496e-05
2.28592e-05
2.28906e-05
2.19634e-05
2.10838e-05
1.96856e-05
1.7893e-05
1.6197e-05
1.43643e-05
1.28497e-05
0.0229084
0.0213114
0.0124893
0.00600233
0.00322695
0.00119558
0.000834434
0.000373407
0.000249024
0.000189927
0.000151029
0.000124343
9.02724e-05
6.92413e-05
5.04104e-05
3.94707e-05
3.05066e-05
2.54936e-05
2.27485e-05
1.87675e-05
1.68499e-05
1.39986e-05
1.25076e-05
1.19499e-05
1.18615e-05
1.19295e-05
1.22103e-05
1.23013e-05
1.2796e-05
1.30372e-05
1.29363e-05
1.24637e-05
1.21692e-05
1.12582e-05
1.03467e-05
9.57443e-06
8.58848e-06
0.030237
0.0418228
0.0189097
0.00575037
0.00260881
0.00131795
0.000658484
0.000355218
0.000247071
0.000200472
0.00015364
0.000115141
8.88646e-05
6.60318e-05
5.20964e-05
4.48739e-05
3.99532e-05
3.72249e-05
2.96794e-05
2.44204e-05
1.71595e-05
1.34995e-05
1.03978e-05
8.73611e-06
7.97515e-06
7.66596e-06
7.33516e-06
6.9928e-06
7.00979e-06
7.09715e-06
6.91472e-06
6.70665e-06
6.62134e-06
6.10549e-06
5.76533e-06
5.45323e-06
4.99777e-06
0.0667828
0.112304
0.0506764
0.0157916
0.00705808
0.00476561
0.0013714
0.000676882
0.000455539
0.00035531
0.000255499
0.00018716
0.000150137
0.000133518
0.000128498
0.000138946
0.000145689
0.000141854
0.000118433
8.27732e-05
3.41978e-05
1.8235e-05
1.12974e-05
8.26502e-06
6.9518e-06
6.36267e-06
5.83085e-06
5.03222e-06
4.63724e-06
4.53982e-06
4.34186e-06
4.06829e-06
4.00736e-06
3.63719e-06
3.49799e-06
3.3635e-06
3.09857e-06
0.163687
0.33116
0.213432
0.0621838
0.0431031
0.0435019
0.017921
0.00841652
0.00517467
0.00391635
0.00347182
0.00257765
0.00211868
0.0019303
0.00174296
0.00166845
0.00172907
0.00140935
0.00125221
0.00073993
0.000215682
5.5573e-05
1.83206e-05