/*--------------------------------*- C++ -*----------------------------------*\
| =========                 |                                                 |
| \\      /  F ield         | OpenFOAM: The Open Source CFD Toolbox           |
|  \\    /   O peration     | Version:  2.3.1                                 |
|   \\  /    A nd           | Web:      www.OpenFOAM.org                      |
|    \\/     M anipulation  |                                                 |
\*---------------------------------------------------------------------------*/
FoamFile
{
    version     2.0;
    format      ascii;
    class       volScalarField;
    location    "20";
    object      k;
}
// * * * * * * * * * * * * * * * * * * * * * * * * * * * * * * * * * * * * * //

dimensions      [0 2 -2 0 0 0 0];

internalField   nonuniform List<scalar> 
37632
(
1.16196
0.699086
0.35778
0.222235
0.126082
0.0800524
0.0456248
0.0323202
0.0266914
0.0228515
0.0229215
0.0213575
0.0102199
0.00174673
0.000381016
0.000323769
0.000329891
0.000331018
0.00034082
0.000351517
0.000353202
0.000360675
0.000371696
0.00037392
0.000376981
0.000385917
0.000393777
0.000402171
0.000409553
0.000423108
0.000443094
0.000452905
0.00045219
0.000458817
0.000456614
0.000434853
0.000416382
0.000415669
0.574879
0.219067
0.0902683
0.0506704
0.0219376
0.0143041
0.00871668
0.00790569
0.00871621
0.00452285
0.00373362
0.00307677
0.00138638
0.000532741
0.000448117
0.000449035
0.000441624
0.000461209
0.000462888
0.000439544
0.000452557
0.000445449
0.000453991
0.000420181
0.000445213
0.000457792
0.000446918
0.000486624
0.000512947
0.000523141
0.000540188
0.000558907
0.000557369
0.000543462
0.000555568
0.00058588
0.00057449
0.00055422
0.40207
0.0763307
0.0529283
0.0408171
0.0337396
0.00934969
0.0047172
0.00112693
0.00148725
0.000767778
0.000417109
0.000433898
0.000259176
0.000243869
0.00020596
0.000191088
0.000186147
0.000182013
0.000181118
0.0001653
0.000172387
0.00016598
0.00017468
0.00017222
0.00018559
0.000189337
0.000184996
0.000224225
0.000246849
0.000258609
0.000320534
0.000361372
0.000388613
0.000429928
0.000464727
0.000486534
0.00048412
0.293567
0.0311075
0.021542
0.0107325
0.00796823
0.00401304
0.00169668
0.000782484
0.000638088
0.000495959
0.000266594
0.000255715
0.000197229
0.000186788
0.000167716
0.00016468
0.000144925
0.000139853
0.000129948
0.000121871
0.000120156
0.000112497
0.000111832
0.000109051
0.000104518
0.00010304
0.000108189
0.000115969
0.000119625
0.000121422
0.000152099
0.000166508
0.000169956
0.000209552
0.000226308
0.000214625
0.000183353
0.261874
0.0401154
0.018959
0.0139159
0.00896508
0.00535093
0.00138375
0.000844824
0.000519708
0.000519305
0.000309636
0.000224947
0.000198614
0.000188427
0.000166353
0.000159546
0.00013917
0.000133593
0.000121224
0.000112495
0.000111521
9.82073e-05
9.59772e-05
8.97669e-05
8.76189e-05
8.50669e-05
8.13699e-05
8.07827e-05
8.28315e-05
8.18095e-05
8.25296e-05
8.1603e-05
8.2338e-05
8.38546e-05
7.71509e-05
6.35033e-05
5.67083e-05
4.79896e-05
0.279849
0.0356555
0.0231764
0.0200001
0.0152409
0.0108186
0.0045086
0.00146979
0.000580468
0.000499821
0.000472834
0.000273788
0.000249903
0.000240736
0.000163509
0.000149592
0.000143149
0.000126485
0.000120641
0.000106759
0.000103806
9.1649e-05
8.82733e-05
8.20118e-05
7.95123e-05
7.13657e-05
6.95274e-05
6.89404e-05
6.31899e-05
6.10522e-05
5.86529e-05
5.60773e-05
5.38758e-05
5.28315e-05
4.81088e-05
4.5146e-05
4.4189e-05
4.17643e-05
0.284062
0.0390065
0.0222381
0.0165359
0.00685639
0.00429825
0.00202752
0.00125872
0.000971468
0.000723818
0.000512511
0.000296419
0.000245007
0.000187781
0.000166547
0.000151201
0.000151318
0.000131968
0.000124537
0.000111544
0.000101391
9.0639e-05
8.67319e-05
7.80921e-05
7.65927e-05
6.83152e-05
6.68119e-05
6.39049e-05
5.78015e-05
5.56199e-05
5.28051e-05
5.04489e-05
4.77444e-05
4.66445e-05
4.35241e-05
4.20362e-05
4.15853e-05
0.260063
0.0548324
0.0318466
0.0259275
0.0173358
0.00818613
0.00450191
0.00302587
0.00281727
0.00195273
0.00140666
0.000850031
0.000380564
0.000179658
0.000173846
0.000164037
0.000156829
0.000150021
0.000153539
0.000123373
0.000102324
9.29655e-05
8.17324e-05
7.18024e-05
6.84114e-05
6.47125e-05
6.53465e-05
5.90261e-05
5.70633e-05
5.28455e-05
5.21508e-05
4.74287e-05
4.71273e-05
4.27647e-05
4.18276e-05
4.04273e-05
3.91266e-05
0.161636
0.0456733
0.0284663
0.0223984
0.0142071
0.0066358
0.00323092
0.00227756
0.00190563
0.00126538
0.000824487
0.000437394
0.000255033
0.000202545
0.00021169
0.00022258
0.000214404
0.000201645
0.000208754
0.00016682
0.000140683
0.000117339
8.45469e-05
7.0356e-05
6.30684e-05
5.93535e-05
5.75229e-05
5.6651e-05
5.11539e-05
4.8634e-05
4.82151e-05
4.38752e-05
4.16352e-05
3.98536e-05
3.74128e-05
3.62988e-05
3.44838e-05
0.0898127
0.0598013
0.0400857
0.0279443
0.0209618
0.0118922
0.00559892
0.00319242
0.00295864
0.002028
0.00148066
0.000878011
0.000405148
0.000262069
0.000272716
0.000300175
0.000305955
0.0002711
0.000264712
0.000196235
0.000169797
0.000144455
0.000114627
8.81193e-05
6.32021e-05
5.80685e-05
5.19965e-05
4.87617e-05
4.78926e-05
4.46761e-05
4.42432e-05
4.06086e-05
3.86987e-05
3.59667e-05
3.48711e-05
3.21175e-05
3.05234e-05
0.07305
0.0507048
0.0344104
0.0253959
0.020052
0.0116301
0.0055846
0.003409
0.00270741
0.00171503
0.00119201
0.000796715
0.000618601
0.000871959
0.00099356
0.00114829
0.00101321
0.00064747
0.000548618
0.000332217
0.000173784
0.000146047
0.000130614
0.000108158
7.66995e-05
6.2946e-05
5.59321e-05
4.28247e-05
3.89822e-05
3.83235e-05
3.76972e-05
3.55134e-05
3.25952e-05
3.11833e-05
3.00817e-05
2.80983e-05
2.72732e-05
0.0583956
0.0420013
0.0298901
0.0235864
0.0203096
0.0148609
0.011055
0.00923914
0.00743051
0.00566666
0.00406419
0.00209469
0.00152417
0.001561
0.00156164
0.00153473
0.00127697
0.00120405
0.00117654
0.000826204
0.000191037
0.000113732
9.65837e-05
8.37269e-05
7.92829e-05
8.292e-05
8.04561e-05
4.6843e-05
2.70483e-05
2.51802e-05
2.47028e-05
2.50832e-05
2.18254e-05
2.21572e-05
1.94856e-05
1.90068e-05
1.83586e-05
0.425131
0.53923
0.305872
0.205454
0.12651
0.0756795
0.0535126
0.0401785
0.0380069
0.0376429
0.0344803
0.0216187
0.00678611
0.00110636
0.000543509
0.000571381
0.000613261
0.000603676
0.00065116
0.000651776
0.000652598
0.000681689
0.000706088
0.000697785
0.000698764
0.000722084
0.000726032
0.000718661
0.00072544
0.000764576
0.000781483
0.000766698
0.000760362
0.000756087
0.000728708
0.000669278
0.000624556
0.000540932
0.780911
0.391846
0.146045
0.11423
0.0576234
0.0252862
0.0250507
0.0199452
0.0187932
0.0152467
0.0086667
0.00568835
0.00214059
0.00109073
0.000948447
0.000917779
0.000916807
0.000925651
0.000968329
0.000941836
0.000986764
0.000989595
0.000992895
0.000992385
0.00101682
0.00105648
0.00106582
0.00112473
0.00116684
0.00118898
0.00120223
0.00119799
0.00114574
0.00106347
0.00100956
0.000944372
0.000842888
0.000791385
0.74088
0.123498
0.0789247
0.0672625
0.0497329
0.0103029
0.0108948
0.00273081
0.00210082
0.00218148
0.000814011
0.000914985
0.000436703
0.000385239
0.00035397
0.000293751
0.000292405
0.000284435
0.000293411
0.00028868
0.000297058
0.000314826
0.000318414
0.000352985
0.000355796
0.000392435
0.000399941
0.000467909
0.000499448
0.000548343
0.000627827
0.00067903
0.000719453
0.000761306
0.0007798
0.000773543
0.000747843
0.583848
0.0827696
0.0245403
0.0165687
0.0148803
0.0111857
0.00414567
0.00222193
0.00107977
0.000841402
0.000485954
0.000436207
0.000273081
0.000253842
0.00021473
0.000184974
0.00017224
0.00015693
0.000154326
0.000145777
0.000141697
0.000145024
0.000144602
0.000153146
0.000150676
0.000164517
0.00016367
0.000194519
0.00020208
0.000227685
0.000262899
0.000277969
0.000298589
0.000321261
0.00029638
0.000259191
0.000238624
0.573938
0.0659374
0.0268712
0.0152083
0.0134164
0.00944472
0.00448239
0.00197358
0.00100291
0.000846994
0.000545689
0.000350295
0.000268847
0.000241338
0.000187908
0.000168799
0.000166387
0.000139789
0.000134441
0.000128205
0.000118425
0.000113574
0.000107827
0.000103817
0.000100993
9.81241e-05
9.63778e-05
9.62223e-05
9.39056e-05
9.38633e-05
9.44482e-05
9.06346e-05
9.05084e-05
9.2492e-05
8.58937e-05
8.64653e-05
7.66342e-05
7.3405e-05
0.65723
0.0534861
0.0281975
0.0278042
0.021856
0.0136686
0.00476603
0.00187507
0.000987326
0.000928592
0.000655511
0.000636943
0.000386604
0.00039117
0.000200122
0.000182859
0.000149135
0.000143705
0.000136423
0.000116332
0.000107449
0.000103975
9.55116e-05
9.33812e-05
8.7884e-05
8.77782e-05
8.1343e-05
7.82576e-05
7.70422e-05
7.25919e-05
7.11815e-05
6.70906e-05
6.54554e-05
6.4097e-05
5.91478e-05
5.71302e-05
5.43238e-05
5.33737e-05
0.658637
0.058436
0.0245467
0.0176788
0.00887227
0.0054644
0.00325645
0.00260202
0.00145662
0.00148048
0.000703564
0.000489914
0.00034479
0.000245358
0.000175703
0.000145674
0.000132218
0.000128139
0.000121794
0.00010773
0.000104512
0.000103287
9.24208e-05
9.22492e-05
8.24567e-05
8.22381e-05
7.21587e-05
7.02366e-05
6.99816e-05
6.53052e-05
6.22828e-05
5.97803e-05
5.85291e-05
5.55873e-05
5.25459e-05
5.0705e-05
4.86846e-05
0.490698
0.0810918
0.0412046
0.0365129
0.0313562
0.00979698
0.0070004
0.00456049
0.00398507
0.00267508
0.00156854
0.0011253
0.000416495
0.000203792
0.00018709
0.000148118
0.000148638
0.000147297
0.000128701
0.000123915
0.000105015
9.82023e-05
8.57471e-05
7.71218e-05
7.17851e-05
7.14205e-05
6.62991e-05
6.76264e-05
6.54432e-05
6.37442e-05
5.94142e-05
6.02512e-05
5.42305e-05
5.45478e-05
5.05254e-05
4.97887e-05
4.955e-05
0.171025
0.0609454
0.0414264
0.0310154
0.0207351
0.00633783
0.00274298
0.00206987
0.00148098
0.00136373
0.000668712
0.000494751
0.000316526
0.000232912
0.000228632
0.000235403
0.000237798
0.000223439
0.000223444
0.00020245
0.000153513
0.00012872
0.000106525
7.68963e-05
6.53261e-05
5.71985e-05
5.45322e-05
5.34427e-05
5.43094e-05
5.22811e-05
4.85107e-05
4.85041e-05
4.68689e-05
4.58056e-05
4.52529e-05
4.37453e-05
4.42482e-05
0.143439
0.116025
0.0766914
0.0389472
0.027651
0.0168866
0.0074889
0.00413453
0.00335616
0.00217175
0.00147663
0.000934096
0.00076033
0.000448065
0.000469339
0.000576037
0.000591921
0.000528206
0.000460786
0.000299578
0.00023937
0.000195455
0.000177913
0.000120966
9.2348e-05
6.16224e-05
5.12624e-05
4.72173e-05
4.66782e-05
4.62203e-05
4.0711e-05
4.10175e-05
3.839e-05
3.75952e-05
3.63092e-05
3.47669e-05
3.4592e-05
0.152118
0.126485
0.0760306
0.0382562
0.0255034
0.0143577
0.00923863
0.00775747
0.00591136
0.00361308
0.00271279
0.0022753
0.00258267
0.00350768
0.00371946
0.00430412
0.00360446
0.00249116
0.00153946
0.000659707
0.000292115
0.000217528
0.000181953
0.000186067
0.000179161
0.00015128
7.64595e-05
5.01834e-05
3.99128e-05
4.10589e-05
3.24572e-05
3.29581e-05
2.81309e-05
2.67278e-05
2.61656e-05
2.39947e-05
2.37317e-05
0.0818299
0.0635267
0.0436527
0.0303574
0.0240227
0.0169432
0.0136924
0.0128194
0.0108843
0.00810329
0.00548143
0.00296769
0.00229241
0.00229889
0.00241036
0.00241428
0.00218388
0.00218779
0.00204667
0.00128544
0.000362559
0.000161382
0.000103556
9.2114e-05
9.89638e-05
0.000107795
7.94506e-05
4.54249e-05
2.91884e-05
2.73694e-05
2.68123e-05
2.70671e-05
2.37975e-05
2.28312e-05
2.1926e-05
2.02977e-05
2.02504e-05
0.313868
0.40443
0.178108
0.12576
0.103351
0.0672855
0.0517404
0.0449066
0.0434744
0.0397115
0.0282964
0.0123294
0.00298482
0.00076562
0.000702762
0.000747168
0.000782806
0.000782475
0.000821261
0.000826022
0.000830098
0.000846807
0.000854574
0.00084982
0.000855694
0.000876515
0.000883352
0.000888456
0.000902156
0.000930676
0.000936445
0.000927189
0.000899581
0.000842875
0.000787302
0.000737388
0.000635659
0.00048248
0.37559
0.152469
0.070416
0.0482784
0.034473
0.0169276
0.0156506
0.0158075
0.0119675
0.0124133
0.00692525
0.00391193
0.00193274
0.00133976
0.00124263
0.00120605
0.0011886
0.00118912
0.00121561
0.00120845
0.00122858
0.00123121
0.00122246
0.00123859
0.00125463
0.0012956
0.00131603
0.00137132
0.00141373
0.0014255
0.00142147
0.00139308
0.00129076
0.00115676
0.00107129
0.000976494
0.000878163
0.000806422
0.314505
0.262422
0.0711248
0.0462688
0.0169083
0.00927834
0.00361129
0.00295775
0.00143318
0.00135713
0.000917822
0.000898221
0.000568157
0.000479016
0.000420791
0.000392902
0.000375992
0.000369536
0.000372507
0.000366439
0.000372824
0.00038117
0.000385656
0.000414056
0.000419792
0.000445386
0.000469879
0.000510123
0.000540532
0.000582303
0.000626569
0.000667193
0.000695943
0.000708203
0.000702721
0.000673333
0.000601885
0.329898
0.0905079
0.0298069
0.0278679
0.00702771
0.00682998
0.00216789
0.0014219
0.000729908
0.000586736
0.0005229
0.000389677
0.000318
0.000297288
0.000240906
0.000234488
0.000213735
0.000200443
0.000193841
0.000187289
0.000181327
0.000180422
0.000179978
0.000182714
0.000182885
0.000188705
0.000194244
0.000206299
0.000213939
0.000234187
0.000246389
0.000255615
0.000269641
0.00027372
0.000267297
0.000255018
0.000241533
0.353807
0.0573475
0.0149664
0.00888494
0.00651198
0.00410974
0.00348993
0.0017126
0.0010228
0.000695063
0.000477753
0.000380678
0.000282488
0.000260592
0.00023448
0.000199463
0.00019321
0.000180885
0.000164288
0.000159971
0.000147782
0.000141935
0.000141157
0.000136012
0.0001324
0.000130912
0.00012902
0.000127967
0.000125994
0.000124969
0.000123959
0.000119614
0.000116926
0.000115342
0.000111113
0.000108342
9.87142e-05
9.43353e-05
0.304307
0.0396547
0.0118591
0.00967947
0.00828579
0.00391331
0.00282919
0.00144185
0.0010379
0.000753456
0.000511014
0.000445608
0.000310136
0.000254691
0.000228359
0.000186388
0.000176286
0.00017272
0.000158058
0.000140068
0.00013544
0.000126144
0.000121049
0.000118828
0.000110289
0.000109459
0.000107773
0.00010286
9.95408e-05
9.8081e-05
9.56326e-05
8.86071e-05
8.48882e-05
8.28578e-05
7.75146e-05
7.18254e-05
6.908e-05
6.54087e-05
0.186885
0.0308025
0.01418
0.0140776
0.00743484
0.0037396
0.00299551
0.00153965
0.00101597
0.000729792
0.000503128
0.000405139
0.000317766
0.000325468
0.000187402
0.000177273
0.000160705
0.00015359
0.000151124
0.000130425
0.00012203
0.00011891
0.000102895
9.68709e-05
9.31821e-05
8.97958e-05
8.73363e-05
8.30346e-05
8.21867e-05
8.21672e-05
7.60035e-05
7.23909e-05
7.07818e-05
6.81728e-05
6.33119e-05
6.0861e-05
5.8903e-05
0.132819
0.0412544
0.0197969
0.0149024
0.0132665
0.00396361
0.00276498
0.00173227
0.00132724
0.000872999
0.000553989
0.000409641
0.000353426
0.000342237
0.000183646
0.000163114
0.000157688
0.000154399
0.000140553
0.000135889
0.000119592
0.000115612
9.97717e-05
9.15588e-05
8.10108e-05
7.8995e-05
7.73585e-05
7.32982e-05
7.27088e-05
7.16092e-05
6.64386e-05
6.51233e-05
6.25317e-05
6.09983e-05
5.74328e-05
5.59719e-05
5.47203e-05
0.0660667
0.0607121
0.0336448
0.0223785
0.0148947
0.00379388
0.00170136
0.00108975
0.000841873
0.000675741
0.000433113
0.000348371
0.000300366
0.000271905
0.000246823
0.000251305
0.000248495
0.000220197
0.000196168
0.000173224
0.000138766
0.000125723
0.00011274
9.70124e-05
7.73313e-05
7.16757e-05
7.01952e-05
6.52823e-05
6.31235e-05
6.18577e-05
5.80089e-05
5.62019e-05
5.41011e-05
5.30019e-05
5.06978e-05
4.91162e-05
4.83363e-05
0.095376
0.108974
0.0839013
0.035634
0.0189648
0.0109759
0.00808516
0.00306595
0.0018525
0.00114684
0.000872753
0.000727771
0.000690697
0.000656887
0.000770904
0.000863791
0.000907791
0.000790067
0.000601014
0.000315283
0.000202015
0.000159437
0.000142898
0.000118972
9.731e-05
7.08985e-05
6.20616e-05
5.76144e-05
5.59425e-05
5.59865e-05
4.98278e-05
4.80019e-05
4.60069e-05
4.47703e-05
4.28412e-05
4.08926e-05
3.97066e-05
0.098146
0.122
0.0864449
0.0371615
0.022334
0.0156556
0.0174285
0.0162569
0.0114297
0.00793473
0.0066185
0.00572229
0.00575259
0.00608378
0.00564495
0.00593138
0.00511431
0.0034559
0.00244391
0.00106222
0.000342531
0.000187392
0.000153864
0.000165948
0.000186239
0.000116996
7.7401e-05
5.81508e-05
5.06445e-05
5.08643e-05
3.79021e-05
3.90688e-05
3.49842e-05
3.48117e-05
3.17368e-05
3.04658e-05
2.88426e-05
0.0815224
0.0726696
0.0551345
0.0359231
0.0272029
0.0204897
0.0181157
0.0172345
0.0146909
0.0111975
0.00743987
0.00439752
0.00382913
0.00378011
0.00371806
0.00354105
0.00296645
0.00284596
0.00267507
0.00191428
0.000604066
0.000189807
9.06869e-05
7.89626e-05
9.0431e-05
8.1047e-05
7.0694e-05
4.29867e-05
3.29791e-05
3.08212e-05
2.96263e-05
2.93332e-05
2.80767e-05
2.53841e-05
2.52248e-05
2.28898e-05
2.28063e-05
0.178667
0.278122
0.101046
0.0833401
0.078615
0.0622627
0.0514392
0.0491051
0.0429122
0.0260645
0.0128836
0.00493491
0.00134773
0.000753175
0.000820904
0.000863961
0.000897374
0.000903112
0.000934664
0.000939844
0.00094278
0.000948472
0.000945299
0.000936792
0.000943345
0.000958544
0.000966293
0.000975834
0.00099318
0.00100328
0.00100191
0.000986294
0.000933027
0.000845779
0.000783955
0.000725159
0.000578103
0.00042886
0.171953
0.130145
0.0599967
0.0344521
0.0287257
0.0161208
0.0149454
0.0151333
0.0106461
0.00709785
0.00412507
0.00278003
0.001805
0.00149474
0.00142313
0.00140746
0.00138782
0.00138295
0.00140016
0.00139711
0.00139779
0.00139381
0.00137455
0.00138592
0.00139656
0.00142724
0.00144938
0.0014974
0.00152953
0.00151416
0.00148337
0.00143373
0.0012803
0.00110693
0.00101307
0.00093424
0.000831416
0.000723568
0.141433
0.115944
0.0595886
0.0254857
0.00945181
0.00704659
0.00390055
0.00215307
0.0013493
0.00117631
0.000923225
0.000913533
0.000664012
0.00057432
0.000512562
0.000489072
0.000470254
0.000460057
0.000458964
0.000452784
0.000452099
0.000456124
0.000457621
0.00048026
0.000487251
0.000502382
0.000520733
0.000546152
0.000564767
0.00058309
0.000600285
0.000612524
0.000616623
0.000613572
0.00059627
0.000549154
0.000474054
0.165666
0.042504
0.016763
0.0114582
0.0042704
0.00479184
0.00179665
0.00113802
0.000745024
0.000635298
0.00058467
0.000425269
0.000365543
0.000325621
0.00028184
0.000270587
0.00025586
0.000242642
0.000235352
0.000230648
0.000224352
0.000223353
0.000223023
0.000226072
0.000228623
0.000230279
0.000235125
0.000242662
0.000247881
0.000257085
0.000264295
0.000269678
0.000273436
0.000274083
0.000269421
0.000260289
0.000246776
0.112203
0.0207085
0.00817579
0.00553533
0.00440684
0.00316799
0.00252501
0.00186574
0.00101933
0.00068295
0.000497144
0.000402863
0.000314749
0.000281199
0.00025707
0.00022672
0.000219482
0.000208672
0.000193503
0.000189404
0.000177748
0.000171442
0.000170711
0.000168493
0.000167822
0.000166716
0.000166536
0.000166938
0.000166077
0.000165802
0.000165482
0.000159454
0.000153064
0.000148604
0.000140962
0.000132268
0.000121394
0.000113745
0.0636681
0.0176743
0.00803995
0.00528232
0.00436504
0.00219851
0.00162564
0.0013757
0.000888757
0.000710316
0.000503539
0.000438293
0.000316792
0.000269575
0.000249885
0.000213036
0.000202263
0.000198304
0.000183396
0.000165846
0.00015963
0.000148119
0.000143997
0.000142097
0.000136285
0.000136259
0.000135434
0.000130674
0.000128598
0.00012768
0.000124572
0.000115637
0.000110548
0.000106309
9.84793e-05
9.11257e-05
8.56121e-05
7.97529e-05
0.0355209
0.0171775
0.00972323
0.00817091
0.00569532
0.002783
0.00190051
0.00144375
0.000845664
0.000674231
0.000495156
0.000418112
0.000314548
0.000270095
0.000210196
0.0001946
0.000180432
0.000172999
0.000170653
0.00015161
0.000140186
0.000132999
0.000117708
0.00011073
0.000107848
0.00010489
0.000103621
9.89272e-05
9.833e-05
9.85061e-05
9.27378e-05
8.80716e-05
8.60926e-05
8.19472e-05
7.61105e-05
7.29064e-05
6.9437e-05
0.0306406
0.0269204
0.0141644
0.00708138
0.0049936
0.00256913
0.00174009
0.00127294
0.000882832
0.000690785
0.000470957
0.000361303
0.000346734
0.000257284
0.000185004
0.000173225
0.000170021
0.000167924
0.000157626
0.000152889
0.000136962
0.000129324
0.000112023
9.99205e-05
9.09242e-05
8.93637e-05
8.75993e-05
8.19284e-05
8.10718e-05
8.04982e-05
7.54116e-05
7.28651e-05
7.14363e-05
6.82826e-05
6.48601e-05
6.28324e-05
6.07969e-05
0.0337665
0.0547517
0.0290522
0.0121249
0.00681582
0.00263733
0.0017655
0.000989355
0.000737968
0.000594231
0.000429398
0.000349832
0.000293915
0.000264452
0.000254316
0.000258746
0.000258638
0.000227364
0.000194062
0.000169387
0.000144588
0.000136139
0.00011744
0.000101116
8.41935e-05
8.01725e-05
7.96287e-05
7.44625e-05
6.91823e-05
6.78432e-05
6.55066e-05
6.19437e-05
6.09361e-05
5.82315e-05
5.60652e-05
5.44411e-05
5.28291e-05
0.0660279
0.103019
0.0807761
0.0308263
0.0158698
0.0109199
0.0102426
0.00355705
0.00207666
0.00148988
0.00129596
0.00102468
0.000948427
0.000928102
0.000986386
0.00108425
0.00114825
0.000984041
0.000772638
0.000358636
0.000195689
0.000149569
0.000135317
0.000115456
9.07104e-05
7.74792e-05
7.53498e-05
7.2209e-05
6.1306e-05
6.06883e-05
5.81842e-05
5.28093e-05
5.26235e-05
4.88531e-05
4.76002e-05
4.63623e-05
4.38468e-05
0.0636085
0.120584
0.0870557
0.0383077
0.0239379
0.0215102
0.0272724
0.022965
0.0162907
0.0125649
0.0111188
0.00914324
0.00837768
0.00815782
0.00744044
0.00724157
0.00662203
0.00440216
0.00314091
0.00171432
0.000536832
0.000213007
0.000137563
0.000112184
0.000108234
7.65288e-05
7.11622e-05
6.42997e-05
5.12243e-05
5.02403e-05
4.88405e-05
4.15919e-05
4.1454e-05
3.76715e-05
3.64512e-05
3.61148e-05
3.25424e-05
0.0774296
0.0740961
0.0641114
0.0432829
0.0312667
0.024549
0.0225174
0.0208834
0.017298
0.0133947
0.00909974
0.00575977
0.00522968
0.00519523
0.0050561
0.00468318
0.00378396
0.00341756
0.0032098
0.00254418
0.00102769
0.000337434
8.96502e-05
5.53304e-05
5.19845e-05
5.16785e-05
5.55254e-05
4.08859e-05
3.64001e-05
3.52088e-05
3.18328e-05
3.14961e-05
3.08623e-05
2.79954e-05
2.76112e-05
2.50534e-05
2.46815e-05
0.138735
0.199869
0.0668176
0.0633479
0.0661327
0.057976
0.0540911
0.0483534
0.0268461
0.0103057
0.0050282
0.00215717
0.000865435
0.00083235
0.00091715
0.000953807
0.000986518
0.000996139
0.00102165
0.00102619
0.00102729
0.00102348
0.00100909
0.000996328
0.000999929
0.00100763
0.00101514
0.0010261
0.00103644
0.00103556
0.00102631
0.000994382
0.000917086
0.000823318
0.000760572
0.000692264
0.000524304
0.000381203
0.0874246
0.0646678
0.0374749
0.0283536
0.0270381
0.0174752
0.016325
0.0132708
0.00643686
0.00397564
0.00292992
0.002202
0.00180455
0.00160796
0.00156446
0.00156498
0.0015512
0.00154626
0.00155387
0.00154867
0.00153806
0.00151945
0.00149017
0.00148955
0.00149208
0.00150932
0.00153008
0.00156667
0.00158047
0.00153549
0.00148154
0.00138682
0.00118289
0.0010126
0.000943624
0.000879934
0.000767814
0.000659623
0.0834738
0.0878924
0.0424166
0.0196681
0.00855811
0.00640011
0.0031666
0.00209382
0.00124692
0.00109769
0.000949338
0.000927047
0.000746165
0.000663415
0.000604281
0.000583569
0.000563158
0.000549048
0.000543257
0.000534888
0.000531
0.000530789
0.000528514
0.000544052
0.00055017
0.000558741
0.000570871
0.000584265
0.000589983
0.000592351
0.000595101
0.000593762
0.00058614
0.000581944
0.000563701
0.000512416
0.000450715
0.0694668
0.0329312
0.0138136
0.0072377
0.00334607
0.0027346
0.00168584
0.00120553
0.00085326
0.000724102
0.000649207
0.000489666
0.000427502
0.000372479
0.000329597
0.000309982
0.00029637
0.000282699
0.000275966
0.000272073
0.000266771
0.000266001
0.000265843
0.000269558
0.000274319
0.0002761
0.000280934
0.00028684
0.000291686
0.000298391
0.000304628
0.000307521
0.000308333
0.00030444
0.000295289
0.000279366
0.000261816
0.0281712
0.0179275
0.00917648
0.00550007
0.00440012
0.00279789
0.00226782
0.00168914
0.000987464
0.000757175
0.000569676
0.000464588
0.000375317
0.000323206
0.000290836
0.0002564
0.000245664
0.000233582
0.000221105
0.000217157
0.000206935
0.000201501
0.000201117
0.000200564
0.00020324
0.000204232
0.000206425
0.000209187
0.000210059
0.000210802
0.000211058
0.000205408
0.000196896
0.000189173
0.000177211
0.00016413
0.000150314
0.000138292
0.0191917
0.0142396
0.00760219
0.00449815
0.00339837
0.00211162
0.00174485
0.00139751
0.000875277
0.00072453
0.000562559
0.000486386
0.0003796
0.000313511
0.000285797
0.00024028
0.000226276
0.000219038
0.000205715
0.000190342
0.000182933
0.000171387
0.000168
0.000166524
0.000163081
0.000164281
0.00016434
0.000162078
0.00016176
0.000161528
0.00015867
0.000149951
0.000144104
0.000136748
0.00012665
0.000117378
0.000108215
0.000100001
0.0167835
0.0148157
0.0082609
0.00559137
0.00483751
0.00267897
0.00209596
0.00126311
0.000867351
0.000708331
0.000569105
0.000492933
0.000377806
0.000304052
0.000251301
0.000217795
0.000202479
0.000190782
0.000186434
0.00016984
0.000160033
0.000146221
0.000132072
0.00012593
0.000123805
0.000121506
0.000120473
0.000117071
0.00011708
0.000117466
0.000113115
0.000107996
0.0001055
9.9718e-05
9.31765e-05
8.86965e-05
8.32127e-05
0.0180825
0.0212905
0.0118554
0.00530325
0.00362679
0.00248318
0.00173183
0.00113542
0.000831231
0.000692776
0.00054295
0.000428442
0.000332423
0.000251174
0.000204951
0.000189284
0.000184071
0.000182252
0.000176371
0.000168122
0.000156673
0.000140376
0.000121247
0.000106939
0.000100089
9.81905e-05
9.54611e-05
9.01997e-05
8.94069e-05
8.9019e-05
8.50271e-05
8.21671e-05
8.08329e-05
7.6718e-05
7.34108e-05
7.09174e-05
6.80272e-05
0.0281613
0.0428917
0.0226903
0.00927234
0.00524225
0.0028769
0.00184363
0.00112549
0.000843441
0.000670389
0.000511177
0.000386374
0.000326436
0.000286096
0.000271078
0.000272663
0.000273475
0.000246862
0.000209935
0.000186935
0.000158533
0.000148734
0.000122671
0.000102455
9.02347e-05
8.56426e-05
8.39983e-05
7.93435e-05
7.36375e-05
7.25636e-05
7.05685e-05
6.71285e-05
6.64784e-05
6.26702e-05
6.09717e-05
5.93838e-05
5.71203e-05
0.0497076
0.0874553
0.0682576
0.0261634
0.0157694
0.0136837
0.00973102
0.00411145
0.00258683
0.00196822
0.00175297
0.00137901
0.00123841
0.00120198
0.00120188
0.00128427
0.00136691
0.00116758
0.000958286
0.000505066
0.000236478
0.000161649
0.000137591
0.000104174
9.00922e-05
8.05532e-05
7.97631e-05
7.93124e-05
6.50275e-05
6.37904e-05
6.2474e-05
5.64499e-05
5.70601e-05
5.22755e-05
5.13257e-05
5.03151e-05
4.72629e-05
0.0507852
0.106734
0.0837748
0.0399061
0.029353
0.0307248
0.035256
0.0268602
0.0199133
0.0159951
0.0146326
0.0119267
0.0103512
0.00990356
0.00917596
0.00843803
0.00801657
0.00553277
0.00375841
0.00255171
0.000936483
0.000304541
0.000139858
9.76712e-05
7.81377e-05
6.93635e-05
7.12853e-05
7.58714e-05
5.73401e-05
5.63911e-05
5.9745e-05
4.63131e-05
4.89314e-05
4.16762e-05
4.0634e-05
4.08863e-05
3.5293e-05
0.0672995
0.0715887
0.067394
0.0503536
0.0361601
0.0291326
0.0266426
0.0235779
0.019069
0.0149259
0.0104958
0.00703777
0.00644762
0.00644158
0.0062876
0.00577325
0.00465537
0.00396727
0.00367984
0.00311049
0.00164066
0.000654282
0.000111925
5.23593e-05
4.77253e-05
4.61651e-05
4.63579e-05
4.05841e-05
3.88473e-05
3.89419e-05
3.43865e-05
3.32886e-05
3.27542e-05
2.9942e-05
2.97212e-05
2.65703e-05
2.60658e-05
0.0899771
0.133224
0.0564787
0.0537523
0.0576531
0.0561485
0.0539932
0.0354829
0.0102605
0.0036334
0.00237258
0.00118475
0.000809354
0.00092213
0.000996655
0.00102987
0.00106182
0.00107409
0.00109544
0.00109996
0.00109849
0.00108737
0.00106191
0.00104441
0.00104164
0.00104321
0.00104843
0.00105679
0.00105867
0.00105143
0.00102865
0.000979848
0.000882907
0.000784507
0.000732071
0.00065408
0.000467084
0.00032306
0.053583
0.0465682
0.0282464
0.0199966
0.0223395
0.0200017
0.0159646
0.00852443
0.00365755
0.00275618
0.0023176
0.0019596
0.00184465
0.0017035
0.00168525
0.00169896
0.00169461
0.00169198
0.00169396
0.0016853
0.00166497
0.0016335
0.00158865
0.00157432
0.00156675
0.00157032
0.00158606
0.00161135
0.00160086
0.00153181
0.0014473
0.00130386
0.00106822
0.000918216
0.000882177
0.000817365
0.000679456
0.000578187
0.0659428
0.0533545
0.031028
0.011088
0.00562649
0.00510144
0.00315647
0.00167617
0.00125314
0.00113186
0.00101338
0.000942147
0.000827041
0.000751554
0.000694312
0.00067398
0.000652601
0.000634202
0.000624428
0.000613802
0.000604483
0.000600223
0.000594957
0.00060174
0.000604896
0.00060797
0.000614224
0.000618538
0.00061369
0.000604394
0.000597258
0.00058666
0.000576088
0.000574149
0.000554151
0.000495764
0.00043722
0.030846
0.0225892
0.0121116
0.00624567
0.00321079
0.00223075
0.00171219
0.00132854
0.000989804
0.000857211
0.000740762
0.000575106
0.000502014
0.000430436
0.000382349
0.000350752
0.000333757
0.000318673
0.00031134
0.000307312
0.000303446
0.000302999
0.000303392
0.000307511
0.000313608
0.000316112
0.000321109
0.000326157
0.000330794
0.000336784
0.000342214
0.000344415
0.000344648
0.000337931
0.000323251
0.000301387
0.000279982
0.0173966
0.0141887
0.00918758
0.00643165
0.00403622
0.00271133
0.00211275
0.00148411
0.00103228
0.000838434
0.00067884
0.000552481
0.000459945
0.000382587
0.000336189
0.000288553
0.000270583
0.000254647
0.000243602
0.000239436
0.000231254
0.000227382
0.000227449
0.000228824
0.000235007
0.000239152
0.000244041
0.000249504
0.000252854
0.0002554
0.000256391
0.000252435
0.000243596
0.00023336
0.000217996
0.000201877
0.000185311
0.000169819
0.0145327
0.0124053
0.00732217
0.00437346
0.00300505
0.00211115
0.0018759
0.001226
0.000905489
0.000791834
0.000659252
0.000568795
0.000462103
0.000376118
0.00033292
0.000272943
0.000249996
0.00023702
0.000222452
0.000210874
0.000202622
0.000192499
0.000189972
0.000189135
0.000187662
0.00019135
0.000193113
0.000193572
0.000195882
0.000196765
0.000195563
0.000188703
0.000182597
0.000173618
0.000161948
0.000150911
0.000138812
0.00012823
0.0142285
0.0129432
0.0081473
0.00526152
0.00412942
0.00258573
0.00216209
0.00126388
0.000967916
0.000804718
0.000677542
0.000585898
0.00046744
0.000376464
0.000307544
0.000251746
0.000222399
0.000207116
0.000199456
0.000186212
0.000177035
0.000160419
0.000146811
0.000141532
0.000140152
0.000138961
0.000138652
0.000137139
0.000138461
0.000139442
0.000137258
0.00013292
0.000130004
0.000123371
0.000116113
0.000110177
0.000102698
0.0159834
0.0182455
0.0108294
0.00509028
0.00346968
0.00251167
0.0017574
0.0011434
0.000894418
0.00077098
0.000625948
0.000493323
0.000398362
0.000304999
0.000239431
0.000209765
0.000198633
0.000194853
0.000192119
0.000183529
0.000173149
0.000152865
0.000130762
0.000115617
0.000109474
0.000106912
0.000103347
9.90444e-05
9.87257e-05
9.87173e-05
9.60076e-05
9.3303e-05
9.20274e-05
8.75807e-05
8.4058e-05
8.11314e-05
7.72751e-05
0.026914
0.0335571
0.0198347
0.00879188
0.00492422
0.00353547
0.00184906
0.00122131
0.000957119
0.000801599
0.000625147
0.000491219
0.000398938
0.0003294
0.000297016
0.000289068
0.000288917
0.000266937
0.000232498
0.000214803
0.000173129
0.000160572
0.000130224
0.000107378
9.62248e-05
9.11758e-05
8.76098e-05
8.11869e-05
7.75053e-05