/*--------------------------------*- C++ -*----------------------------------*\
| =========                 |                                                 |
| \\      /  F ield         | OpenFOAM: The Open Source CFD Toolbox           |
|  \\    /   O peration     | Version:  2.3.1                                 |
|   \\  /    A nd           | Web:      www.OpenFOAM.org                      |
|    \\/     M anipulation  |                                                 |
\*---------------------------------------------------------------------------*/
FoamFile
{
    version     2.0;
    format      ascii;
    class       volScalarField;
    location    "20";
    object      k_0;
}
// * * * * * * * * * * * * * * * * * * * * * * * * * * * * * * * * * * * * * //

dimensions      [0 2 -2 0 0 0 0];

internalField   nonuniform List<scalar> 
37632
(
1.16847
0.703128
0.360498
0.222871
0.124809
0.0785829
0.045205
0.0323222
0.0268902
0.0232051
0.0232539
0.0213063
0.00953927
0.00159278
0.000371864
0.000324066
0.000330417
0.000331519
0.000341332
0.000352034
0.000353724
0.000361204
0.000372247
0.000374463
0.000377507
0.000386441
0.000394296
0.000402659
0.000410044
0.000423634
0.00044363
0.000453395
0.000452667
0.000459311
0.000457029
0.000435113
0.000416753
0.000416039
0.574878
0.223349
0.0890009
0.049749
0.0216998
0.0143672
0.00872047
0.00786421
0.00868509
0.00447283
0.00369004
0.00303615
0.00130629
0.000521807
0.0004486
0.000449449
0.000441873
0.000461582
0.000463395
0.000440014
0.000453017
0.000445953
0.000454569
0.000420681
0.000445642
0.000458351
0.000447471
0.00048715
0.000513558
0.000523777
0.000540831
0.000559554
0.000557928
0.000543966
0.000556184
0.000586409
0.000574896
0.000554643
0.403298
0.0770654
0.0524527
0.0414208
0.0336149
0.00919918
0.00464524
0.00111814
0.00147745
0.000766198
0.000415349
0.000426966
0.000255909
0.000243158
0.000205547
0.000190946
0.000186151
0.000182043
0.000181209
0.000165373
0.000172459
0.00016608
0.00017479
0.000172324
0.000185763
0.000189553
0.000185181
0.000224427
0.000247189
0.000258979
0.000320893
0.000361832
0.000389122
0.000430446
0.000465274
0.000486999
0.000484494
0.292907
0.0308
0.0211471
0.0108655
0.00779194
0.004021
0.00169718
0.000780039
0.000637749
0.000496994
0.000266127
0.000254802
0.000197151
0.000186704
0.000167683
0.000164707
0.000144954
0.000139859
0.00012999
0.000121878
0.000120165
0.000112514
0.000111846
0.000109089
0.000104563
0.000103081
0.000108233
0.000116049
0.000119739
0.000121515
0.000152219
0.000166744
0.000170186
0.00020978
0.000226543
0.000214738
0.000183315
0.264587
0.0396164
0.0191203
0.0139747
0.00898658
0.00530503
0.00138378
0.000842072
0.000518986
0.000518641
0.000309832
0.000224916
0.000198601
0.000188434
0.000166376
0.000159592
0.000139192
0.000133579
0.000121259
0.000112482
0.000111518
9.82121e-05
9.59747e-05
8.97709e-05
8.76173e-05
8.50799e-05
8.13833e-05
8.07906e-05
8.28567e-05
8.18453e-05
8.25752e-05
8.16447e-05
8.23644e-05
8.38895e-05
7.71765e-05
6.35014e-05
5.66911e-05
4.79817e-05
0.282888
0.0354074
0.0234406
0.0201123
0.0152663
0.0107818
0.00449721
0.00147211
0.00058022
0.000499849
0.0004741
0.000274149
0.000249802
0.000240727
0.000163498
0.000149578
0.000143176
0.000126506
0.000120657
0.000106762
0.000103811
9.16505e-05
8.8267e-05
8.20125e-05
7.95185e-05
7.13658e-05
6.95179e-05
6.89384e-05
6.31978e-05
6.10545e-05
5.86552e-05
5.60775e-05
5.38745e-05
5.28325e-05
4.81131e-05
4.51437e-05
4.41854e-05
4.17658e-05
0.281692
0.0382634
0.0224764
0.0166741
0.00689955
0.0042722
0.00202718
0.00126051
0.000972769
0.000724322
0.000515275
0.000296309
0.000244724
0.000187743
0.000166593
0.000151194
0.000151313
0.000132001
0.000124534
0.000111558
0.00010141
9.06392e-05
8.67361e-05
7.80912e-05
7.65945e-05
6.83113e-05
6.67994e-05
6.39095e-05
5.78005e-05
5.56165e-05
5.28007e-05
5.04475e-05
4.77397e-05
4.66404e-05
4.35246e-05
4.20331e-05
4.15824e-05
0.251365
0.054671
0.0320761
0.0260367
0.0173107
0.00822539
0.00452591
0.00303327
0.00282621
0.00195666
0.00141107
0.000851046
0.00038001
0.000179587
0.00017387
0.000164105
0.000156859
0.000149976
0.000153503
0.000123497
0.000102328
9.29608e-05
8.17613e-05
7.18097e-05
6.84181e-05
6.47059e-05
6.53411e-05
5.90275e-05
5.70635e-05
5.28416e-05
5.21482e-05
4.74254e-05
4.71241e-05
4.27624e-05
4.18227e-05
4.04248e-05
3.91243e-05
0.143509
0.0440497
0.0285647
0.0224924
0.0142341
0.00669086
0.00324812
0.00228249
0.00190873
0.00126592
0.000825901
0.000437644
0.000255022
0.000202716
0.000211675
0.000222733
0.000214612
0.000201617
0.000208708
0.000166954
0.000140675
0.000117385
8.45884e-05
7.03702e-05
6.3071e-05
5.93505e-05
5.75204e-05
5.66511e-05
5.11626e-05
4.86291e-05
4.82102e-05
4.38792e-05
4.16324e-05
3.98525e-05
3.74106e-05
3.62968e-05
3.44806e-05
0.0854192
0.0597624
0.0400811
0.0280585
0.0210723
0.0119265
0.00561142
0.00320925
0.00297405
0.00203436
0.00148326
0.000878059
0.000404583
0.000262336
0.000272928
0.000300308
0.000306066
0.00027094
0.00026458
0.000196153
0.000169891
0.000144537
0.000114657
8.81954e-05
6.32168e-05
5.80657e-05
5.20058e-05
4.87637e-05
4.78939e-05
4.46739e-05
4.42391e-05
4.06113e-05
3.86991e-05
3.5965e-05
3.48695e-05
3.21181e-05
3.05214e-05
0.0731761
0.0509596
0.0344557
0.025502
0.0201486
0.0116743
0.00563166
0.0034323
0.00271608
0.00171775
0.00119252
0.000797205
0.00061941
0.000873624
0.000994904
0.00114865
0.00101291
0.000646188
0.000548431
0.000330475
0.000173775
0.000146141
0.000130663
0.000108244
7.67448e-05
6.29638e-05
5.59483e-05
4.28333e-05
3.89794e-05
3.83219e-05
3.76943e-05
3.55153e-05
3.25966e-05
3.11807e-05
3.00804e-05
2.80979e-05
2.72745e-05
0.0592372
0.0425811
0.0302495
0.0238328
0.0204641
0.0149782
0.0111897
0.00934005
0.00748651
0.00569613
0.00406144
0.00208834
0.00152806
0.0015662
0.00156648
0.00153658
0.0012753
0.00120499
0.0011769
0.000821768
0.00018974
0.000113795
9.66679e-05
8.37817e-05
7.93084e-05
8.29585e-05
8.04964e-05
4.69007e-05
2.70506e-05
2.51786e-05
2.46985e-05
2.50828e-05
2.1826e-05
2.21565e-05
1.94855e-05
1.90048e-05
1.83597e-05
0.424491
0.544569
0.303688
0.202881
0.123989
0.0746661
0.0534287
0.0405476
0.038636
0.0381253
0.0344243
0.020761
0.00627181
0.00102826
0.000542743
0.000573098
0.00061464
0.000604743
0.000652206
0.000652821
0.000653595
0.000682688
0.000707098
0.00069877
0.000699717
0.000723029
0.000726902
0.000719457
0.000726292
0.000765538
0.000782293
0.000767459
0.000761189
0.000756818
0.000729172
0.000669681
0.0006248
0.000541106
0.778733
0.403688
0.14448
0.11139
0.0582178
0.0251418
0.0249252
0.0199791
0.018864
0.0151269
0.00853831
0.00545975
0.00204774
0.00107877
0.000946847
0.000917541
0.000917063
0.000926281
0.000969391
0.000943063
0.000988014
0.000990925
0.000994257
0.000993706
0.0010181
0.00105788
0.00106723
0.00112608
0.00116827
0.00119039
0.00120356
0.00119923
0.00114671
0.00106428
0.00101035
0.000944868
0.000843227
0.000792036
0.754414
0.124128
0.0782062
0.0684386
0.0499357
0.0101805
0.0108094
0.00275341
0.00209831
0.00216635
0.000810042
0.000898893
0.000431973
0.000382029
0.00035241
0.000293281
0.000292262
0.000284433
0.000293534
0.000288874
0.000297225
0.00031505
0.000318648
0.000353315
0.000356166
0.000392848
0.000400377
0.000468405
0.000500061
0.000548989
0.000628546
0.000679832
0.000720248
0.000762087
0.000780552
0.000774207
0.000748276
0.590589
0.0817652
0.0247614
0.0165399
0.0145555
0.0111001
0.00410564
0.00220696
0.00108003
0.000839797
0.00048407
0.000434601
0.000272847
0.000253588
0.000214337
0.000184848
0.000172185
0.000156922
0.000154322
0.000145791
0.000141672
0.000145023
0.000144629
0.000153206
0.000150748
0.000164607
0.000163751
0.000194672
0.000202281
0.000227901
0.000263197
0.000278296
0.000298833
0.000321508
0.00029658
0.000259277
0.000238623
0.586
0.0655177
0.0271263
0.0152303
0.0133947
0.00942878
0.00445601
0.00196894
0.00100082
0.000846725
0.000544129
0.000349759
0.000268701
0.000241267
0.00018803
0.000168782
0.000166364
0.0001398
0.000134427
0.000128231
0.000118385
0.000113533
0.000107835
0.000103809
0.000100981
9.81183e-05
9.63829e-05
9.62368e-05
9.39174e-05
9.38769e-05
9.44798e-05
9.06634e-05
9.052e-05
9.25085e-05
8.59038e-05
8.64732e-05
7.66357e-05
7.33946e-05
0.675978
0.0532239
0.0286128
0.0279346
0.0217923
0.0136092
0.00476076
0.00187965
0.000985567
0.00092626
0.000656135
0.000638632
0.000386664
0.000391248
0.000200049
0.000182651
0.000149109
0.000143671
0.000136464
0.000116343
0.000107421
0.000103962
9.55117e-05
9.3378e-05
8.78649e-05
8.77578e-05
8.13514e-05
7.82467e-05
7.70338e-05
7.25887e-05
7.1182e-05
6.7092e-05
6.54523e-05
6.40989e-05
5.9147e-05
5.7127e-05
5.43199e-05
5.33714e-05
0.656113
0.0583633
0.0248222
0.017823
0.00888858
0.00547993
0.00326251
0.00260424
0.00145847
0.00147837
0.000706585
0.000489154
0.00034479
0.000245217
0.000175596
0.00014559
0.000132197
0.000128116
0.00012186
0.000107752
0.000104515
0.00010331
9.2425e-05
9.22404e-05
8.24356e-05
8.22245e-05
7.2179e-05
7.02245e-05
6.99636e-05
6.53059e-05
6.2283e-05
5.97764e-05
5.85264e-05
5.55846e-05
5.25468e-05
5.07055e-05
4.86842e-05
0.439985
0.0786385
0.0415173
0.0368067
0.031421
0.00983687
0.00702248
0.00457599
0.00400264
0.00268471
0.00157432
0.00112645
0.000415114
0.000203636
0.000187059
0.000148132
0.000148668
0.000147387
0.000128683
0.000123889
0.000105039
9.82157e-05
8.57627e-05
7.71366e-05
7.17964e-05
7.14349e-05
6.62872e-05
6.76123e-05
6.54402e-05
6.3747e-05
5.94083e-05
6.02443e-05
5.42245e-05
5.45434e-05
5.0527e-05
4.9788e-05
4.95516e-05
0.152875
0.0598376
0.0414702
0.0311709
0.02085
0.00638647
0.00274999
0.00207109
0.00148218
0.00136569
0.000669707
0.000494792
0.000316464
0.000232936
0.00022873
0.000235784
0.000238221
0.00022351
0.000223396
0.000202468
0.000153644
0.000128693
0.000106533
7.69092e-05
6.53439e-05
5.72026e-05
5.45312e-05
5.34388e-05
5.43027e-05
5.22862e-05
4.85076e-05
4.84993e-05
4.6869e-05
4.58046e-05
4.52531e-05
4.37438e-05
4.4247e-05
0.141672
0.116572
0.0765608
0.0389272
0.0277652
0.016908
0.00753489
0.00415608
0.00337616
0.00217821
0.00148186
0.000933877
0.000761119
0.00044858
0.000470197
0.000576756
0.000592404
0.000528045
0.000460289
0.000299348
0.000239472
0.000195514
0.000177957
0.000121046
9.24137e-05
6.1637e-05
5.12699e-05
4.72162e-05
4.6669e-05
4.622e-05
4.07078e-05
4.10137e-05
3.83903e-05
3.75944e-05
3.63096e-05
3.47647e-05
3.45899e-05
0.153827
0.127845
0.076301
0.0383462
0.0256229
0.0144421
0.00934901
0.00775703
0.00591839
0.00361758
0.00271294
0.00227529
0.00258555
0.00351428
0.00372427
0.00430609
0.00360176
0.00248819
0.00153357
0.000656035
0.000291528
0.000217686
0.000182034
0.000186015
0.000179177
0.000151379
7.65241e-05
5.02122e-05
3.99032e-05
4.10529e-05
3.24533e-05
3.29454e-05
2.81311e-05
2.67263e-05
2.61667e-05
2.39939e-05
2.37295e-05
0.082654
0.0645071
0.0442084
0.0306286
0.0242114
0.0171012
0.0138835
0.012966
0.0109449
0.00812307
0.00546874
0.00295815
0.00229771
0.00230522
0.00241607
0.00241718
0.00218602
0.00219055
0.00204675
0.00127804
0.00036012
0.00016146
0.000103698
9.21414e-05
9.89184e-05
0.000107816
7.95153e-05
4.54946e-05
2.91899e-05
2.73681e-05
2.68087e-05
2.70668e-05
2.37986e-05
2.28296e-05
2.19264e-05
2.02964e-05
2.02498e-05
0.313535
0.403246
0.172482
0.122087
0.101088
0.067127
0.0519445
0.0455995
0.0440433
0.0397101
0.0274437
0.0115114
0.00275334
0.000747472
0.00070447
0.000748998
0.000784374
0.000783811
0.000822553
0.00082731
0.000831359
0.000848063
0.0008558
0.000851001
0.000856853
0.000877639
0.000884413
0.000889489
0.000903217
0.000931733
0.000937422
0.000928116
0.000900384
0.000843517
0.000787841
0.000737844
0.000635636
0.000482494
0.375878
0.150106
0.0701611
0.0483505
0.0345008
0.0168738
0.0155992
0.0159061
0.0119145
0.0122505
0.00672898
0.00376944
0.00188513
0.00133192
0.00124036
0.00120585
0.00118897
0.00119003
0.00121694
0.00120998
0.00123019
0.0012329
0.00122414
0.00124022
0.00125627
0.00129728
0.00131773
0.00137301
0.00141543
0.0014271
0.00142299
0.00139443
0.00129172
0.00115753
0.00107202
0.000976925
0.000878499
0.000806888
0.317094
0.257957
0.0705141
0.0460386
0.0168215
0.0091802
0.00358281
0.00295542
0.00142964
0.00135041
0.000909057
0.000887802
0.000564618
0.000475599
0.000419136
0.000392338
0.000375899
0.000369548
0.00037265
0.000366655
0.000373063
0.000381449
0.000385942
0.000414434
0.000420217
0.000445827
0.000470371
0.000510659
0.000541118
0.000582922
0.000627246
0.000667898
0.000696589
0.000708809
0.000703281
0.000673761
0.000602037
0.332108
0.0910729
0.0294613
0.0276655
0.0068676
0.00674888
0.00214904
0.00141575
0.000727202
0.000585789
0.000521203
0.000388546
0.000317116
0.000296827
0.000240655
0.000234258
0.00021372
0.000200434
0.000193825
0.000187308
0.000181339
0.000180428
0.00017999
0.000182753
0.000182933
0.000188763
0.000194322
0.000206402
0.000214056
0.000234332
0.000246571
0.000255787
0.000269799
0.000273876
0.000267425
0.000255092
0.000241565
0.355807
0.0578136
0.0149971
0.00883559
0.00649788
0.00408533
0.00348051
0.00170659
0.0010186
0.000693094
0.000477021
0.000380994
0.000282503
0.000260445
0.000234564
0.000199373
0.000193123
0.000180924
0.000164265
0.00015995
0.000147805
0.000141913
0.000141132
0.000136012
0.000132395
0.000130904
0.000129014
0.000127966
0.000125995
0.000124964
0.000123961
0.000119622
0.000116927
0.000115344
0.000111114
0.000108348
9.87079e-05
9.43227e-05
0.301074
0.0392239
0.0119168
0.00972896
0.00831146
0.00392739
0.00283284
0.00144311
0.00103569
0.000754143
0.000511052
0.000445855
0.000310318
0.00025459
0.000228306
0.0001863
0.000176185
0.000172633
0.000158069
0.000140057
0.000135413
0.000126126
0.000121042
0.000118826
0.000110275
0.000109437
0.00010776
0.00010286
9.95263e-05
9.80605e-05
9.56274e-05
8.86067e-05
8.48748e-05
8.28465e-05
7.75123e-05
7.18166e-05
6.90704e-05
6.5403e-05
0.18108
0.0300564
0.0141839
0.0141321
0.00747011
0.00375013
0.00299328
0.00153936
0.00101768
0.000729872
0.000504182
0.000405819
0.000317516
0.000324946
0.000187291
0.000177139
0.000160686
0.000153515
0.000151112
0.00013044
0.000121995
0.000118894
0.000102913
9.68639e-05
9.31675e-05
8.97905e-05
8.73376e-05
8.30241e-05
8.21707e-05
8.21567e-05
7.60096e-05
7.2382e-05
7.07695e-05
6.81687e-05
6.33098e-05
6.08542e-05
5.88995e-05
0.123217
0.0401735
0.0197468
0.0150431
0.0133883
0.00397513
0.0027668
0.0017355
0.00133072
0.000875089
0.000555649
0.000410508
0.0003526
0.000342269
0.000183574
0.0001631
0.000157717
0.000154458
0.000140525
0.000135834
0.000119567
0.000115593
9.97916e-05
9.15728e-05
8.10102e-05
7.89859e-05
7.73593e-05
7.32911e-05
7.26982e-05
7.16109e-05
6.64359e-05
6.51161e-05
6.25269e-05
6.09976e-05
5.74323e-05
5.59688e-05
5.47202e-05
0.0623331
0.0604213
0.0332817
0.0224299
0.0149396
0.00380939
0.00170587
0.00109048
0.000842131
0.000676332
0.000433795
0.000348708
0.000300367
0.000271947
0.000246966
0.000251722
0.000248932
0.000220498
0.000196134
0.000173215
0.000138761
0.000125691
0.000112721
9.70382e-05
7.73364e-05
7.16665e-05
7.01859e-05
6.52857e-05
6.31163e-05
6.18545e-05
5.80084e-05
5.61989e-05
5.40984e-05
5.30007e-05
5.06982e-05
4.91148e-05
4.8336e-05
0.0952076
0.109909
0.0840514
0.0354855
0.0189693
0.011031
0.00815433
0.00307645
0.00185615
0.0011481
0.000873682
0.000728569
0.000691925
0.000658047
0.000772306
0.000864751
0.000908313
0.000791035
0.000599278
0.000314927
0.000202068
0.000159455
0.000142874
0.000118999
9.73663e-05
7.09167e-05
6.20654e-05
5.76109e-05
5.59345e-05
5.5982e-05
4.98239e-05
4.79965e-05
4.60044e-05
4.47708e-05
4.28417e-05
4.08914e-05
3.97055e-05
0.0991116
0.123314
0.0868673
0.0373215
0.0225253
0.0157805
0.0175344
0.016268
0.0114496
0.00794543
0.00662021
0.00572665
0.00576395
0.00609507
0.00565191
0.00593463
0.00510718
0.00345321
0.00243946
0.00105699
0.00034139
0.000187415
0.00015391
0.00016585
0.000186262
0.000117164
7.74673e-05
5.82076e-05
5.06186e-05
5.08559e-05
3.78969e-05
3.90611e-05
3.49827e-05
3.481e-05
3.17363e-05
3.04645e-05
2.88422e-05
0.0824169
0.0735896
0.0559213
0.0363314
0.0275005
0.0207481
0.0183685
0.0174093
0.0147483
0.011205
0.00741192
0.00438728
0.0038399
0.00379149
0.0037269
0.00354201
0.00296626
0.00284913
0.00267632
0.00190704
0.000600135
0.000189719
9.0785e-05
7.89775e-05
9.04808e-05
8.11123e-05
7.07492e-05
4.30413e-05
3.29786e-05
3.08236e-05
2.96227e-05
2.93291e-05
2.80793e-05
2.53837e-05
2.52243e-05
2.28888e-05
2.28043e-05
0.177633
0.274072
0.0988908
0.0821728
0.0779816
0.0624368
0.0520292
0.0497502
0.0426788
0.0251583
0.0122371
0.00463324
0.0012835
0.000751373
0.000823155
0.000865829
0.000899093
0.000904639
0.000936137
0.000941303
0.000944214
0.000949886
0.00094666
0.00093808
0.00094461
0.000959756
0.000967458
0.000976976
0.00099432
0.00100437
0.00100296
0.000987241
0.000933714
0.000846359
0.00078452
0.000725532
0.000577864
0.000428872
0.173892
0.126082
0.0596417
0.0344782
0.0286877
0.0161368
0.014945
0.0151096
0.0104727
0.0069107
0.00403034
0.00272113
0.00178546
0.00148986
0.00142146
0.00140752
0.00138857
0.00138415
0.00140175
0.00139892
0.00139966
0.00139574
0.00137642
0.00138774
0.00139838
0.00142906
0.00145123
0.00149925
0.00153133
0.00151578
0.00148492
0.00143503
0.001281
0.00110755
0.00101365
0.000934628
0.000831506
0.000723754
0.14279
0.115104
0.0588511
0.0256879
0.00945656
0.00704831
0.0039054
0.00213775
0.00133371
0.00116819
0.000916497
0.000907552
0.000658843
0.000571267
0.000511089
0.000488498
0.000470199
0.000460122
0.000459153
0.000453066
0.000452404
0.00045646
0.000457959
0.00048066
0.000487696
0.000502847
0.000521224
0.000546661
0.000565291
0.000583606
0.00060079
0.000612992
0.000617057
0.000613932
0.000596566
0.000549279
0.000474088
0.167439
0.0427625
0.016706
0.011488
0.00424043
0.00471358
0.00178563
0.00113519
0.000742822
0.000633809
0.00058307
0.000423903
0.000364425
0.000325107
0.000281585
0.000270365
0.000255804
0.000242623
0.000235335
0.000230667
0.000224374
0.00022337
0.000223043
0.000226104
0.000228674
0.000230336
0.000235188
0.000242738
0.000247968
0.000257177
0.000264397
0.000269786
0.000273538
0.000274172
0.000269492
0.000260344
0.000246813
0.110805
0.0207431
0.00816675
0.0055072
0.00438592
0.00315838
0.00250915
0.00185633
0.00101423
0.000680961
0.000496429
0.000403121
0.000314861
0.000281115
0.000257134
0.000226639
0.000219385
0.000208665
0.000193469
0.000189376
0.00017777
0.000171426
0.000170693
0.000168487
0.000167818
0.000166712
0.000166532
0.000166939
0.000166076
0.000165797
0.000165481
0.000159461
0.000153056
0.00014859
0.000140953
0.000132263
0.000121377
0.000113729
0.0622774
0.017593
0.00801921
0.00528821
0.00438381
0.00219833
0.00162532
0.00137
0.000888507
0.00071098
0.000503617
0.000438566
0.000317015
0.00026955
0.000249858
0.00021296
0.000202137
0.000198183
0.000183371
0.000165825
0.000159608
0.000148103
0.000143988
0.000142097
0.000136272
0.000136239
0.000135426
0.00013067
0.000128579
0.000127657
0.000124565
0.00011563
0.000110524
0.000106291
9.84678e-05
9.11093e-05
8.55979e-05
7.97418e-05
0.0347377
0.0170758
0.00971018
0.00818681
0.00572187
0.00278769
0.00189733
0.00144283
0.00084574
0.000674256
0.000495593
0.000418558
0.00031455
0.000269965
0.000210139
0.0001945
0.000180369
0.000172884
0.000170571
0.000151612
0.000140146
0.000132985
0.000117724
0.000110724
0.000107834
0.000104883
0.000103619
9.89148e-05
9.83113e-05
9.84915e-05
9.27392e-05
8.80573e-05
8.60748e-05
8.1939e-05
7.61014e-05
7.28945e-05
6.94301e-05
0.0294218
0.0266835
0.0140837
0.00710759
0.00501711
0.00257379
0.00174282
0.00127409
0.000883745
0.000691629
0.000471939
0.000361257
0.000346141
0.00025711
0.000184997
0.000173201
0.000169996
0.000167916
0.000157563
0.000152803
0.000136925
0.000129303
0.000112044
9.99339e-05
9.09197e-05
8.93519e-05
8.76032e-05
8.19222e-05
8.10604e-05
8.04931e-05
7.5413e-05
7.28569e-05
7.14285e-05
6.82805e-05
6.48568e-05
6.28271e-05
6.07952e-05
0.0335161
0.054593
0.0287168
0.0121016
0.0068087
0.00264275
0.00176879
0.000990432
0.000738167
0.000594266
0.000430123
0.000349966
0.000293972
0.000264653
0.000254609
0.000259138
0.000259021
0.000227704
0.00019406
0.000169334
0.000144549
0.000136098
0.000117424
0.000101142
8.41895e-05
8.01553e-05
7.96148e-05
7.44672e-05
6.91761e-05
6.78359e-05
6.55081e-05
6.194e-05
6.09313e-05
5.8232e-05
5.60643e-05
5.44387e-05
5.28296e-05
0.0666185
0.103905
0.0810122
0.0306941
0.0159103
0.0110139
0.0103278
0.00356562
0.00207894
0.00149141
0.00129673
0.00102582
0.000949903
0.000929827
0.000988171
0.00108551
0.00114885
0.000985104
0.000771466
0.000358041
0.000195594
0.000149542
0.00013524
0.000115466
9.07441e-05
7.74668e-05
7.53316e-05
7.22153e-05
6.12999e-05
6.0675e-05
5.81874e-05
5.28032e-05
5.26182e-05
4.88545e-05
4.75981e-05
4.63629e-05
4.38471e-05
0.0643018
0.122159
0.0876921
0.0385601
0.0241463
0.0216964
0.0273762
0.023018
0.0163171
0.0125831
0.0111241
0.00915386
0.00839553
0.0081756
0.00744973
0.00724713
0.00661406
0.00439716
0.00313896
0.00170706
0.000534517
0.00021279
0.000137579
0.000112186
0.000108294
7.65499e-05
7.11627e-05
6.43425e-05
5.12202e-05
5.02341e-05
4.8837e-05
4.1581e-05
4.14404e-05
3.7673e-05
3.64482e-05
3.61147e-05
3.25424e-05
0.0782333
0.0749598
0.0649767
0.0438452
0.0316579
0.0248918
0.0227967
0.0210406
0.0173479
0.0133909
0.00906105
0.0057508
0.00524701
0.00521328
0.00507003
0.0046832
0.00378157
0.00342073
0.00321167
0.00253886
0.00102196
0.000336383
8.97191e-05
5.53601e-05
5.19922e-05
5.16754e-05
5.55397e-05
4.09082e-05
3.63959e-05
3.52111e-05
3.18303e-05
3.14908e-05
3.08624e-05
2.79957e-05
2.76112e-05
2.50525e-05
2.46791e-05
0.135841
0.194388
0.0668314
0.0633697
0.066325
0.0584577
0.0548794
0.0483926
0.0254767
0.00975928
0.00480036
0.00207352
0.00085242
0.000834893
0.000919354
0.000955763
0.000988345
0.000997811
0.00102327
0.00102779
0.00102886
0.00102503
0.00101054
0.000997695
0.00100126
0.00100889
0.00101637
0.0010273
0.00103758
0.00103668
0.00102735
0.000995264
0.000917686
0.00082385
0.000761144
0.000692536
0.000524003
0.000381185
0.0881337
0.0641021
0.0373569
0.0284886
0.0272116
0.0175848
0.0163887
0.0129838
0.0061865
0.00389443
0.00289476
0.00217938
0.00179555
0.00160513
0.00156351
0.00156534
0.00155231
0.00154778
0.0015557
0.00155071
0.00154018
0.00152158
0.00149218
0.00149152
0.00149403
0.00151123
0.00153202
0.00156859
0.00158225
0.00153707
0.00148303
0.00138785
0.00118338
0.00101311
0.000944119
0.000880202
0.000767841
0.000659736
0.0839278
0.0872964
0.0425307
0.0199977
0.00861656
0.00642807
0.00314707
0.00206777
0.00123341
0.00109274
0.000945453
0.000920311
0.000742005
0.000660873
0.000603066
0.000583114
0.000563136
0.000549187
0.000543505
0.000535236
0.00053137
0.000531192
0.000528914
0.000544482
0.00055064
0.000559226
0.000571369
0.000584755
0.000590449
0.000592784
0.000595509
0.000594115
0.000586466
0.000582227
0.000563907
0.000512465
0.000450751
0.0706232
0.0331634
0.0138459
0.00724734
0.00333056
0.00271366
0.00167818
0.00120528
0.000851166
0.000721953
0.000647571
0.000488368
0.000426524
0.000371975
0.000329388
0.000309784
0.000296296
0.00028267
0.000275952
0.000272092
0.000266805
0.000266035
0.000265881
0.000269599
0.000274382
0.000276172
0.000281007
0.000286921
0.00029177
0.000298477
0.000304718
0.000307612
0.000308421
0.000304501
0.000295333
0.000279398
0.000261837
0.0281063
0.0179142
0.00916825
0.00549159
0.0043927
0.00277929
0.0022508
0.00167939
0.000983776
0.000755515
0.000569234
0.000464856
0.000375528
0.000323191
0.000290911
0.000256334
0.000245572
0.000233551
0.000221067
0.000217129
0.000206954
0.000201491
0.000201106
0.000200559
0.000203238
0.000204233
0.000206424
0.000209189
0.000210061
0.000210801
0.000211058
0.000205414
0.000196888
0.000189153
0.000177193
0.000164112
0.00015029
0.00013827
0.0191521
0.0142445
0.0075776
0.00449119
0.00340207
0.00210561
0.00173923
0.00139473
0.000875154
0.000724709
0.000562646
0.000486588
0.000379918
0.000313548
0.000285816
0.000240211
0.000226149
0.000218916
0.000205662
0.000190312
0.000182918
0.000171372
0.000167989
0.000166522
0.000163073
0.00016427
0.000164339
0.000162074
0.000161744
0.000161509
0.000158661
0.000149937
0.000144076
0.000136723
0.000126627
0.000117354
0.000108194
9.99831e-05
0.0167328
0.0147679
0.00824981
0.00559337
0.0048464
0.00268113
0.00209405
0.00126261
0.000867079
0.000708297
0.000569366
0.000493304
0.000378019
0.000304073
0.00025127
0.000217717
0.000202375
0.000190655
0.000186329
0.000169807
0.000159994
0.000146219
0.000132075
0.00012592
0.000123791
0.000121499
0.000120471
0.000117058
0.00011706
0.000117449
0.000113108
0.000107976
0.000105477
9.97021e-05
9.31581e-05
8.86783e-05
8.31999e-05
0.0179801
0.0211925
0.011809
0.00530303
0.00363112
0.00248658
0.00173491
0.00113666
0.000831764
0.000693264
0.000543349
0.000428492
0.000332239
0.000251302
0.000204964
0.00018924
0.00018401
0.000182201
0.00017629
0.000168011
0.000156616
0.000140365
0.000121265
0.000106947
0.000100083
9.818e-05
9.54665e-05
9.01934e-05
8.93951e-05
8.90103e-05
8.50247e-05
8.2157e-05
8.08222e-05
7.67123e-05
7.34026e-05
7.09089e-05
6.80226e-05
0.028243
0.0427773
0.0225385
0.00926166
0.00525005
0.00288603
0.00184692
0.00112674
0.000843703
0.000670512
0.000511634
0.000386586
0.000326577
0.000286388
0.000271383
0.000272994
0.000273808
0.000247184
0.000209985
0.000186796
0.000158476
0.000148689
0.000122668
0.000102477
9.02313e-05
8.56315e-05
8.39894e-05
7.93478e-05
7.36316e-05
7.25549e-05
7.05701e-05
6.71241e-05
6.64738e-05
6.26696e-05
6.09685e-05
5.9381e-05
5.71202e-05
0.0500929
0.088127
0.0682973
0.0261278
0.015863
0.0138198
0.00979772
0.00411667
0.0025888
0.00197021
0.00175429
0.00138077
0.00124057
0.00120432
0.00120389
0.00128589
0.00136786
0.00116852
0.000957905
0.000503439
0.000236139
0.000161596
0.000137591
0.000104191
9.01029e-05
8.05413e-05
7.97475e-05
7.93167e-05
6.50224e-05
6.37772e-05
6.24787e-05
5.64452e-05
5.7055e-05
5.22761e-05
5.13231e-05
5.03165e-05
4.72633e-05
0.0511083
0.108162
0.0844348
0.0401522
0.0295594
0.0309064
0.0353955
0.0269146
0.0199411
0.0160191
0.0146459
0.0119386
0.0103723
0.00992969
0.00918891
0.00844566
0.00801141
0.00552344
0.00375751
0.00254609
0.000932455
0.00030381
0.000139942
9.77002e-05
7.81365e-05
6.93771e-05
7.1269e-05
7.58717e-05
5.73411e-05
5.63746e-05
5.97429e-05
4.63034e-05
4.89167e-05
4.16794e-05
4.06274e-05
4.08843e-05
3.52932e-05
0.0677258
0.0724198
0.0682457
0.0509547
0.0366004
0.0295228
0.0269166
0.0237019
0.0191018
0.0149148
0.0104536
0.00703174
0.00647101
0.00646642
0.006307
0.00577361
0.00465087
0.00396874
0.00368181
0.00310852
0.00163401
0.000651853
0.000111654
5.2377e-05
4.77202e-05
4.61577e-05
4.63522e-05
4.059e-05
3.88398e-05
3.89429e-05
3.43878e-05
3.32837e-05
3.27519e-05
2.99417e-05
2.97217e-05
2.65699e-05
2.60632e-05
0.0882867
0.127894
0.0569982
0.0541166
0.058036
0.0568278
0.0545097
0.0338669
0.00950714
0.00347299
0.00231245
0.00116417
0.000808328
0.000924456
0.000998768
0.00103193
0.00106373
0.00107588
0.00109719
0.00110169
0.0011002
0.00108903
0.00106344
0.00104585
0.00104302
0.00104452
0.0010497
0.00105802
0.00105983
0.00105254
0.00102964
0.00098062
0.000883441
0.000785029
0.000732625
0.000654262
0.000466737
0.000322983
0.0532599
0.046285
0.0282286
0.0201117
0.022485
0.0201712
0.0158202
0.00810682
0.00354186
0.0027279
0.00230312
0.00194966
0.00183961
0.00170212
0.00168496
0.00169963
0.00169605
0.00169382
0.00169603
0.00168758
0.0016673
0.00163581
0.0015908
0.0015764
0.00156878
0.00157229
0.00158805
0.0016133
0.00160258
0.00153333
0.00144863
0.0013046
0.00106856
0.000918703
0.000882677
0.000817479
0.000679393
0.00057826
0.0663441
0.0531727
0.0312026
0.0112467
0.00565392
0.00508657
0.00311405
0.00165699
0.00124511
0.00112925
0.00100989
0.000937786
0.000823658
0.000749572
0.000693378
0.000673688
0.000652642
0.000634412
0.00062475
0.000614216
0.000604929
0.000600694
0.000595423
0.000602209
0.00060539
0.000608472
0.000614716
0.000619019
0.000614118
0.000604782
0.000597605
0.000586965
0.000576383
0.00057443
0.000554316
0.000495785
0.000437248
0.0312893
0.0227477
0.0121376
0.00623276
0.00319409
0.00222187
0.00170531
0.00132614
0.000986794
0.000854487
0.000739292
0.000574073
0.000501293
0.000430028
0.000382178
0.000350598
0.000333682
0.000318643
0.000311334
0.000307338
0.000303493
0.00030305
0.000303452
0.00030757
0.000313685
0.000316196
0.000321193
0.000326245
0.000330882
0.000336874
0.000342307
0.000344507
0.000344736
0.000337987
0.00032328
0.000301399
0.000279989
0.017494
0.0141972
0.00918182
0.00642374
0.00403027
0.00269069
0.0020974
0.00147756
0.00102978
0.00083732
0.000678669
0.000552784
0.000460199
0.000382643
0.000336294
0.000288512
0.000270507
0.000254611
0.000243563
0.00023941
0.000231268
0.000227382
0.00022745
0.00022883
0.000235013
0.000239165
0.000244054
0.000249522
0.00025287
0.000255413
0.000256404
0.000252445
0.000243591
0.000233339
0.000217972
0.000201851
0.000185282
0.000169793
0.0145603
0.0123939
0.00730148
0.00436346
0.00300255
0.0021056
0.00187283
0.00122578
0.000905435
0.000791833
0.000659321
0.000569031
0.000462421
0.000376219
0.000332997
0.000272913
0.000249882
0.000236916
0.000222386
0.000210829
0.000202608
0.000192487
0.000189965
0.00018914
0.000187664
0.000191348
0.000193119
0.000193577
0.000195874
0.000196756
0.000195557
0.000188689
0.00018257
0.000173589
0.000161917
0.00015088
0.000138784
0.000128204
0.0142314
0.0129233
0.00813961
0.00526009
0.0041327
0.00258584
0.00216204
0.00126389
0.000967596
0.000804689
0.000677696
0.000586186
0.000467661
0.000376577
0.00030754
0.000251716
0.000222287
0.000206991
0.000199342
0.000186147
0.000176991
0.000160419
0.000146809
0.000141521
0.000140142
0.000138954
0.00013865
0.000137133
0.000138442
0.000139425
0.000137246
0.000132897
0.000129978
0.000123347
0.000116085
0.000110151
0.000102676
0.0159861
0.0182064
0.0108099
0.00508984
0.00347274
0.00251546
0.00176051
0.00114459
0.000894838
0.00077134
0.000626223
0.000493483
0.000398405
0.000305168
0.000239466
0.000209732
0.000198554
0.000194774
0.000192031
0.000183394
0.000173073
0.000152851
0.00013078
0.000115618
0.000109467
0.000106904
0.000103354
9.90379e-05
9.87132e-05
9.8706e-05
9.60006e-05
9.32892e-05
9.20125e-05
8.75692e-05
8.40435e-05
8.11179e-05
7.72654e-05
0.0269873
0.0335164
0.0198004
0.00879206
0.0049359
0.0035502
0.0018528
0.00122273
0.000957437
0.000801788
0.000625499
0.000491469
0.000399092
0.000329683
0.00029731
0.000289361
0.000289208
0.000267227
0.000232604
0.000214603
0.000173052
0.000160518
0.000130241
0.00010739
9.62217e-05