/*--------------------------------*- C++ -*----------------------------------*\
| =========                 |                                                 |
| \\      /  F ield         | OpenFOAM: The Open Source CFD Toolbox           |
|  \\    /   O peration     | Version:  2.3.1                                 |
|   \\  /    A nd           | Web:      www.OpenFOAM.org                      |
|    \\/     M anipulation  |                                                 |
\*---------------------------------------------------------------------------*/
FoamFile
{
    version     2.0;
    format      ascii;
    class       volScalarField;
    location    "20";
    object      nut;
}
// * * * * * * * * * * * * * * * * * * * * * * * * * * * * * * * * * * * * * //

dimensions      [0 2 -1 0 0 0 0];

internalField   nonuniform List<scalar> 
37632
(
0.00135026
0.00104707
0.000747043
0.00059294
0.000455412
0.000367472
0.000273583
0.000227072
0.000204089
0.000186603
0.00018716
0.000185271
0.000141607
6.06297e-05
2.55728e-05
2.26979e-05
2.28885e-05
2.29301e-05
2.32676e-05
2.3631e-05
2.36873e-05
2.3937e-05
2.42994e-05
2.4373e-05
2.44747e-05
2.47646e-05
2.50169e-05
2.52861e-05
2.55177e-05
2.59348e-05
2.65417e-05
2.68389e-05
2.68189e-05
2.70138e-05
2.69556e-05
2.63178e-05
2.57414e-05
2.57195e-05
0.000957759
0.000574308
0.000387655
0.00029228
0.000190179
0.000150083
0.000117858
0.000113205
0.000118566
8.6381e-05
7.85564e-05
7.14779e-05
5.14248e-05
3.0077e-05
2.66969e-05
2.67305e-05
2.65233e-05
2.7095e-05
2.71326e-05
2.64406e-05
2.68313e-05
2.66152e-05
2.68635e-05
2.5847e-05
2.66149e-05
2.69777e-05
2.66549e-05
2.78203e-05
2.85579e-05
2.88393e-05
2.93066e-05
2.98114e-05
2.97773e-05
2.94068e-05
2.97244e-05
3.0534e-05
3.02446e-05
2.97038e-05
0.000797317
0.000344014
0.000294571
0.000249645
0.000233318
0.000125152
8.87816e-05
4.29059e-05
4.92e-05
3.51097e-05
2.59625e-05
2.69558e-05
2.07265e-05
1.98129e-05
1.81829e-05
1.74812e-05
1.72337e-05
1.70377e-05
1.69872e-05
1.62298e-05
1.65746e-05
1.62594e-05
1.66793e-05
1.65622e-05
1.71845e-05
1.73517e-05
1.71553e-05
1.88895e-05
1.98055e-05
2.02701e-05
2.25774e-05
2.39671e-05
2.48527e-05
2.61446e-05
2.71832e-05
2.78228e-05
2.77613e-05
0.000686732
0.000226137
0.000190618
0.000128468
0.000116606
7.97832e-05
5.20088e-05
3.55012e-05
3.19341e-05
2.80436e-05
2.06793e-05
2.03083e-05
1.77505e-05
1.72756e-05
1.63637e-05
1.62061e-05
1.52024e-05
1.49374e-05
1.43928e-05
1.39439e-05
1.3845e-05
1.33951e-05
1.33557e-05
1.31841e-05
1.29057e-05
1.28147e-05
1.31309e-05
1.35889e-05
1.37962e-05
1.39033e-05
1.55603e-05
1.62654e-05
1.64344e-05
1.8256e-05
1.89732e-05
1.84912e-05
1.71099e-05
0.000636501
0.000257796
0.000171733
0.000148072
0.000119174
9.36041e-05
4.69875e-05
3.68957e-05
2.88571e-05
2.88411e-05
2.22064e-05
1.89496e-05
1.78039e-05
1.73386e-05
1.62889e-05
1.59486e-05
1.48982e-05
1.46026e-05
1.39019e-05
1.34001e-05
1.33402e-05
1.25172e-05
1.23756e-05
1.19673e-05
1.18244e-05
1.16479e-05
1.13918e-05
1.13517e-05
1.14912e-05
1.14179e-05
1.1466e-05
1.14022e-05
1.14567e-05
1.156e-05
1.10897e-05
1.00666e-05
9.51673e-06
8.75283e-06
0.000657493
0.000241035
0.000189063
0.000177149
0.000155557
0.000132062
8.51405e-05
4.83133e-05
3.04533e-05
2.82382e-05
2.73576e-05
2.086e-05
1.99809e-05
1.96002e-05
1.6154e-05
1.54519e-05
1.5109e-05
1.42029e-05
1.38716e-05
1.30514e-05
1.2869e-05
1.20926e-05
1.18694e-05
1.14393e-05
1.12625e-05
1.06711e-05
1.0535e-05
1.04887e-05
1.00394e-05
9.86945e-06
9.67356e-06
9.45929e-06
9.27211e-06
9.18124e-06
8.76034e-06
8.48809e-06
8.39802e-06
8.16295e-06
0.000681758
0.000256783
0.000185384
0.000160419
0.000103616
8.35744e-05
5.68934e-05
4.47205e-05
3.92925e-05
3.39492e-05
2.8367e-05
2.17603e-05
1.98065e-05
1.7315e-05
1.6295e-05
1.55337e-05
1.55394e-05
1.45056e-05
1.40971e-05
1.33387e-05
1.27159e-05
1.2026e-05
1.17632e-05
1.11629e-05
1.10547e-05
1.04415e-05
1.0328e-05
1.00969e-05
9.6039e-06
9.42152e-06
9.18035e-06
8.97244e-06
8.72955e-06
8.62826e-06
8.33347e-06
8.19082e-06
8.14669e-06
0.000677903
0.000297103
0.000223008
0.00020212
0.000166679
0.000113472
8.40817e-05
6.9231e-05
6.67297e-05
5.56513e-05
4.71547e-05
3.67626e-05
2.46962e-05
1.69413e-05
1.66518e-05
1.61685e-05
1.58144e-05
1.54789e-05
1.56579e-05
1.40094e-05
1.27769e-05
1.21804e-05
1.14139e-05
1.07021e-05
1.04464e-05
1.01631e-05
1.02125e-05
9.7045e-06
9.54207e-06
9.18375e-06
9.12283e-06
8.70028e-06
8.67254e-06
8.26123e-06
8.17098e-06
8.03238e-06
7.90209e-06
0.000607053
0.000285022
0.000212023
0.000187866
0.000150136
0.000101632
7.12313e-05
6.00889e-05
5.50086e-05
4.49052e-05
3.61778e-05
2.63956e-05
2.01739e-05
1.79547e-05
1.83807e-05
1.88262e-05
1.84694e-05
1.79412e-05
1.8257e-05
1.62955e-05
1.49839e-05
1.36752e-05
1.16064e-05
1.05922e-05
1.00311e-05
9.73246e-06
9.5811e-06
9.50756e-06
9.03225e-06
8.81055e-06
8.77253e-06
8.36597e-06
8.15158e-06
7.97476e-06
7.72708e-06
7.61112e-06
7.41881e-06
0.00040814
0.000309205
0.000252951
0.000209873
0.000181449
0.000137159
9.42033e-05
7.08112e-05
6.81755e-05
5.66192e-05
4.84789e-05
3.74267e-05
2.5479e-05
2.0418e-05
2.08361e-05
2.18708e-05
2.2083e-05
2.08169e-05
2.05675e-05
1.77064e-05
1.64463e-05
1.51693e-05
1.35188e-05
1.18424e-05
1.00388e-05
9.62649e-06
9.10622e-06
8.82024e-06
8.74143e-06
8.4438e-06
8.40331e-06
8.04882e-06
7.85793e-06
7.57613e-06
7.45985e-06
7.15857e-06
6.97951e-06
0.000340528
0.00028231
0.000233859
0.000200046
0.000177588
0.000135454
9.32173e-05
7.30036e-05
6.54123e-05
5.21884e-05
4.35837e-05
3.5622e-05
3.1356e-05
3.7194e-05
3.97359e-05
4.27841e-05
4.02263e-05
3.2238e-05
2.96022e-05
2.32062e-05
1.66535e-05
1.52509e-05
1.44284e-05
1.31213e-05
1.1053e-05
1.00177e-05
9.44295e-06
8.26386e-06
7.88764e-06
7.82034e-06
7.75659e-06
7.52713e-06
7.21133e-06
7.05478e-06
6.9286e-06
6.69599e-06
6.59635e-06
0.000298769
0.00025361
0.000214508
0.000190997
0.000177985
0.000152183
0.000130423
0.000119456
0.000107668
9.43522e-05
8.0611e-05
5.80769e-05
4.9127e-05
4.96596e-05
4.96866e-05
4.93968e-05
4.52279e-05
4.37808e-05
4.33084e-05
3.66031e-05
1.76387e-05
1.346e-05
1.2398e-05
1.15471e-05
1.12421e-05
1.14946e-05
1.13219e-05
8.62953e-06
6.56872e-06
6.33926e-06
6.27991e-06
6.32656e-06
5.90108e-06
5.9463e-06
5.57607e-06
5.50795e-06
5.41188e-06
0.00165097
0.00182795
0.00141232
0.00116698
0.000926141
0.000709199
0.000585798
0.000499502
0.000480546
0.000480887
0.000470263
0.000394716
0.000234234
9.37856e-05
5.90227e-05
6.0118e-05
6.23528e-05
6.19081e-05
6.43123e-05
6.43431e-05
6.4391e-05
6.58166e-05
6.69876e-05
6.65945e-05
6.6646e-05
6.77547e-05
6.79509e-05
6.76141e-05
6.79256e-05
6.9725e-05
7.05152e-05
6.98495e-05
6.95503e-05
6.9367e-05
6.81332e-05
6.52992e-05
6.31e-05
5.87297e-05
0.00254412
0.00146482
0.000908182
0.000905817
0.000498039
0.000362514
0.00041074
0.000363624
0.000381108
0.000320212
0.00022224
0.000179439
0.000129176
0.000107851
0.000101281
0.00010378
0.000106031
0.000108509
0.000114734
0.000111653
0.000118131
0.000118895
0.000119155
0.00012034
0.000122585
0.000127342
0.000128244
0.000134826
0.000138518
0.000140675
0.000140742
0.000139086
0.000133513
0.000125292
0.000119776
0.000112686
0.000101456
9.15248e-05
0.00192501
0.000689758
0.000633554
0.000592092
0.000497706
0.000226371
0.000293212
0.000119065
0.000100525
0.000110412
5.83675e-05
6.6447e-05
5.56031e-05
5.92417e-05
6.36799e-05
5.57368e-05
5.96286e-05
5.75601e-05
5.80373e-05
5.5484e-05
5.81045e-05
5.92165e-05
6.01003e-05
6.41375e-05
6.34631e-05
6.73955e-05
6.78311e-05
7.52647e-05
7.70642e-05
8.29806e-05
9.12383e-05
9.43645e-05
9.51378e-05
9.5688e-05
9.38291e-05
8.87791e-05
7.69254e-05
0.00168046
0.000533352
0.000321261
0.000278167
0.000356232
0.000467956
0.000249446
0.000221857
0.000168925
0.000149618
9.16573e-05
8.09673e-05
6.6857e-05
6.06396e-05
6.55511e-05
5.85434e-05
5.79019e-05
5.36353e-05
5.34377e-05
4.82051e-05
4.87367e-05
4.77861e-05
4.528e-05
4.65119e-05
4.03305e-05
4.18345e-05
4.06794e-05
4.0513e-05
3.92452e-05
4.15182e-05
4.24722e-05
4.18538e-05
4.22002e-05
4.40588e-05
3.74004e-05
3.44539e-05
3.54653e-05
0.00173461
0.000419972
0.000344834
0.000327409
0.000227854
0.000378112
0.000321931
0.000229597
0.000175585
0.000176159
0.000119002
8.40753e-05
8.76999e-05
7.92893e-05
5.47026e-05
6.65106e-05
6.14997e-05
5.08424e-05
5.88353e-05
5.01615e-05
5.46758e-05
5.70198e-05
5.03407e-05
4.9146e-05
4.83388e-05
4.62012e-05
4.37959e-05
3.89016e-05
3.62364e-05
3.49748e-05
3.04648e-05
2.69555e-05
2.76356e-05
2.66828e-05
2.62748e-05
3.31606e-05
2.96228e-05
3.64439e-05
0.00191405
0.000321949
0.000353052
0.000360585
0.000338908
0.000258628
0.00011908
8.11096e-05
9.88259e-05
0.000147224
0.000107226
9.20867e-05
9.43693e-05
0.000118354
5.70881e-05
7.59076e-05
5.95981e-05
5.55576e-05
5.98627e-05
5.01871e-05
5.17206e-05
5.65792e-05
5.0035e-05
4.54771e-05
5.40883e-05
5.32855e-05
4.63904e-05
4.74139e-05
4.64621e-05
4.34186e-05
4.18871e-05
4.07559e-05
3.99394e-05
3.85339e-05
3.87e-05
3.86347e-05
3.72732e-05
3.843e-05
0.00191082
0.000362149
0.000379639
0.000269201
0.000178935
0.000151325
0.000117096
0.000149623
0.000190834
0.000190885
0.0001539
0.000111826
0.000103478
6.79307e-05
5.52124e-05
4.54116e-05
3.89294e-05
4.56591e-05
3.67587e-05
4.40001e-05
4.54676e-05
4.39802e-05
5.12841e-05
5.43955e-05
4.96702e-05
5.30608e-05
4.49032e-05
4.82871e-05
4.86687e-05
4.34009e-05
4.41325e-05
4.26875e-05
4.15323e-05
3.90303e-05
3.91337e-05
3.69248e-05
3.68899e-05
0.00160628
0.000547954
0.00052935
0.000502309
0.000448015
0.000255416
0.000204301
0.000192633
0.000188079
0.000158008
0.000101647
5.00308e-05
3.42358e-05
3.71459e-05
4.85926e-05
3.6848e-05
3.91194e-05
3.86381e-05
3.1057e-05
3.99672e-05
3.31103e-05
3.51401e-05
4.06373e-05
4.53351e-05
4.44517e-05
4.26214e-05
4.34703e-05
4.99235e-05
4.72816e-05
4.53298e-05
4.44804e-05
4.44199e-05
4.12227e-05
4.10798e-05
3.8924e-05
3.79286e-05
3.71747e-05
0.000870358
0.000728059
0.000588616
0.000423843
0.000317947
0.000131775
0.000101742
0.000106115
8.81502e-05
8.13384e-05
4.67157e-05
3.36481e-05
4.95125e-05
4.48425e-05
4.42466e-05
4.54358e-05
4.62543e-05
4.20971e-05
4.18753e-05
4.47029e-05
3.24188e-05
2.951e-05
2.79688e-05
3.15803e-05
3.61983e-05
3.2957e-05
3.1628e-05
3.93427e-05
4.29207e-05
4.06694e-05
3.92353e-05
4.08206e-05
3.89717e-05
3.7624e-05
3.76773e-05
3.60299e-05
3.51489e-05
0.0010524
0.00109548
0.000979392
0.000628776
0.000495484
0.000310886
0.000238364
0.000166813
0.000181449
0.000120532
7.97342e-05
5.92207e-05
5.83928e-05
4.32655e-05
4.91043e-05
5.91062e-05
6.0431e-05
5.34991e-05
5.65958e-05
4.88124e-05
4.85533e-05
4.00789e-05
3.50199e-05
2.63144e-05
2.82937e-05
2.38736e-05
2.41797e-05
2.42709e-05
3.53152e-05
3.40999e-05
3.13135e-05
3.65304e-05
3.31497e-05
3.39399e-05
3.22146e-05
3.16187e-05
3.14229e-05
0.00109982
0.001093
0.000809088
0.000595582
0.000383546
0.000237362
0.000198746
0.000244865
0.000227286
0.000150323
0.000123194
0.000118478
0.000133423
0.000180497
0.000206353
0.000234025
0.000218972
0.000150865
0.000101785
6.26233e-05
4.89763e-05
4.31348e-05
3.78511e-05
3.48876e-05
3.17016e-05
3.0613e-05
2.40698e-05
2.09896e-05
2.36181e-05
2.5523e-05
1.7953e-05
2.67251e-05
2.23644e-05
2.20116e-05
2.17957e-05
2.01328e-05
2.14807e-05
0.000711909
0.000622298
0.000517921
0.000434346
0.000386999
0.000324301
0.000289538
0.000281204
0.000261386
0.000226589
0.000187695
0.000138295
0.000120542
0.000120633
0.000123594
0.00012391
0.000117889
0.000117945
0.000114287
9.13658e-05
4.85943e-05
3.20709e-05
2.56562e-05
2.42363e-05
2.51498e-05
2.62221e-05
2.24913e-05
1.69881e-05
1.3648e-05
1.32178e-05
1.30844e-05
1.3144e-05
1.23234e-05
1.20727e-05
1.18295e-05
1.13832e-05
1.13693e-05
0.00141763
0.00161372
0.0011188
0.000936653
0.000839607
0.00065765
0.000571277
0.000523211
0.000516588
0.000503476
0.000444934
0.000310949
0.000155791
7.24654e-05
6.67297e-05
6.88037e-05
7.04726e-05
7.04889e-05
7.22294e-05
7.24399e-05
7.26227e-05
7.3354e-05
7.36949e-05
7.34946e-05
7.3752e-05
7.46521e-05
7.49517e-05
7.51724e-05
7.57482e-05
7.69409e-05
7.71896e-05
7.68122e-05
7.56722e-05
7.32625e-05
7.08144e-05
6.85398e-05
6.36989e-05
5.54905e-05
0.00174387
0.0013925
0.00100117
0.000681667
0.00044198
0.000311536
0.000284773
0.000303352
0.000270141
0.000301518
0.000209368
0.000183275
0.000160622
0.000147014
0.000145409
0.000146387
0.000146384
0.000148274
0.000152029
0.000151736
0.000155443
0.000156368
0.000156761
0.000159567
0.000161129
0.000165976
0.000168275
0.000174157
0.000178055
0.000179476
0.000178837
0.000173333
0.000160749
0.000147933
0.000138586
0.000125824
0.000114643
0.00010723
0.00153457
0.00159696
0.000858003
0.000654444
0.000346252
0.000336709
0.000201415
0.000146604
0.000106
9.81123e-05
8.87653e-05
0.000100748
9.05702e-05
8.46105e-05
8.45415e-05
8.28068e-05
8.23533e-05
8.1261e-05
8.18026e-05
8.01267e-05
8.10106e-05
8.21592e-05
8.30767e-05
8.65335e-05
8.68614e-05
9.0434e-05
9.29881e-05
9.87782e-05
0.000101913
0.000106694
0.000112306
0.000116551
0.000117271
0.000112625
0.000105301
9.38802e-05
7.73123e-05
0.00149738
0.000663139
0.000461207
0.000567566
0.000343302
0.000487898
0.000299849
0.000262588
0.00017484
0.00014316
0.000130552
0.000106553
0.000105776
0.00010511
0.000101905
0.00010125
0.000100529
9.54842e-05
9.31412e-05
8.94848e-05
8.63335e-05
8.27852e-05
8.00471e-05
7.68135e-05
7.25801e-05
7.11766e-05
6.8742e-05
6.75131e-05
6.47593e-05
6.51484e-05
6.42517e-05
6.14416e-05
6.06797e-05
5.99034e-05
5.567e-05
5.89378e-05
6.35491e-05
0.00151825
0.000435734
0.000238161
0.000266767
0.000184065
0.000311315
0.000410343
0.000313147
0.000263908
0.000229201
0.000176043
0.000154822
0.000139416
0.000135268
0.000130338
0.000126357
0.000125074
0.000121194
0.00011801
0.000114556
0.00011111
0.000109293
0.000104538
9.86942e-05
9.33751e-05
9.06687e-05
8.62317e-05
7.83981e-05
7.36172e-05
7.04064e-05
6.5144e-05
5.97582e-05
5.84791e-05
5.72557e-05
5.50861e-05
6.2258e-05
5.88355e-05
6.20265e-05
0.00131482
0.000266057
0.000251299
0.000233576
0.00021591
0.000143695
0.000132099
0.000103705
0.000196374
0.000222908
0.00017083
0.000152615
0.000143796
0.00013572
0.000123539
0.00012398
0.000121651
0.000120337
0.000119328
0.000113824
0.000114826
0.000114263
0.000112894
0.000111097
0.000106656
0.000103954
0.000100297
9.47846e-05
8.91766e-05
8.67342e-05
8.32577e-05
7.86975e-05
7.62188e-05
7.44102e-05
7.30536e-05
7.06341e-05
6.90591e-05
6.85605e-05
0.000873014
0.000270342
0.000327598
0.000334429
0.000188117
0.000173767
0.000199628
0.000191839
0.000242163
0.000216761
0.000188383
0.000162296
0.00014466
0.000140599
0.000103775
0.000102072
9.57082e-05
9.61533e-05
9.28943e-05
9.83758e-05
9.94275e-05
0.000100882
0.000101084
0.000101205
9.97238e-05
9.72168e-05
9.43221e-05
9.17508e-05
9.04473e-05
8.88765e-05
8.40064e-05
8.05523e-05
7.86154e-05
7.64395e-05
7.39436e-05
7.11206e-05
7.0538e-05
0.000690891
0.000495165
0.000421895
0.000335779
0.000304272
0.000174482
0.000160552
0.000150745
0.000134006
0.000121047
7.44282e-05
4.24634e-05
6.58743e-05
9.62229e-05
6.99617e-05
6.26814e-05
6.0508e-05
5.86299e-05
6.41863e-05
7.0325e-05
7.61584e-05
8.35866e-05
8.97375e-05
9.73496e-05
8.98897e-05
8.89785e-05
9.07256e-05
9.16255e-05
9.0901e-05
8.86335e-05
8.40694e-05
8.21259e-05
7.91567e-05
7.74009e-05
7.40514e-05
7.18648e-05
7.04177e-05
0.000736496
0.000900084
0.000648513
0.000436138
0.000275093
0.000134111
0.000116927
0.000112283
0.000104285
8.59068e-05
6.12214e-05
4.81503e-05
6.81414e-05
6.40449e-05
5.60208e-05
5.37046e-05
5.17268e-05
4.43279e-05
4.2469e-05
4.79624e-05
5.10417e-05
5.60701e-05
6.33686e-05
7.9284e-05
7.5309e-05
7.62554e-05
7.74291e-05
8.28925e-05
8.55307e-05
8.49404e-05
8.20107e-05
8.19252e-05
7.80198e-05
7.65856e-05
7.38974e-05
7.07378e-05
6.89831e-05
0.00102244
0.00126394
0.00111119
0.000671551
0.000437939
0.000346794
0.000315836
0.000165014
0.000124619
8.77773e-05
6.89287e-05
6.26394e-05
6.3488e-05
6.26551e-05
7.76821e-05
8.7568e-05
9.37868e-05
8.13835e-05
6.59551e-05
4.65017e-05
4.71688e-05
4.54676e-05
4.30399e-05
4.58423e-05
4.8318e-05
4.7088e-05
5.12248e-05
5.06126e-05
7.08046e-05
7.27399e-05
6.84027e-05
7.07624e-05
6.84427e-05
6.85002e-05
6.60868e-05
6.40155e-05
6.25805e-05
0.00102569
0.00130833
0.00104412
0.000724513
0.00049973
0.000357672
0.000437351
0.000563125
0.000441123
0.000324172
0.000281135
0.000258413
0.000262902
0.000283581
0.000291052
0.000310196
0.000292723
0.000207267
0.000145487
8.27089e-05
4.88238e-05
4.03158e-05
3.93107e-05
3.79183e-05
3.91161e-05
3.76073e-05
3.40354e-05
3.06974e-05
4.07053e-05
4.57596e-05
3.64676e-05
4.35853e-05
4.1472e-05
4.25733e-05
4.10095e-05
4.00651e-05
3.95592e-05
0.000709621
0.000668311
0.000580734
0.000470785
0.000409937
0.000354895
0.000333041
0.000326678
0.000304428
0.000267066
0.000219145
0.00016812
0.000155675
0.000154629
0.0001535
0.000150275
0.000137612
0.00013455
0.000130576
0.000111165
6.27036e-05
3.48302e-05
2.40196e-05
2.24432e-05
2.40047e-05
2.27165e-05
2.12168e-05
1.65324e-05
1.45087e-05
1.4024e-05
1.37535e-05
1.36857e-05
1.33847e-05
1.27288e-05
1.26889e-05
1.20878e-05
1.20664e-05
0.00107721
0.00136198
0.000829472
0.000744927
0.000717002
0.000627758
0.000563268
0.000548982
0.000527643
0.000430106
0.000309781
0.000195087
9.97959e-05
6.95835e-05
7.20875e-05
7.40179e-05
7.54635e-05
7.57299e-05
7.70547e-05
7.72705e-05
7.73948e-05
7.76316e-05
7.75076e-05
7.71655e-05
7.74388e-05
7.80691e-05
7.83909e-05
7.87812e-05
7.94811e-05
7.98923e-05
7.98416e-05
7.92274e-05
7.70842e-05
7.33971e-05
7.06599e-05
6.79796e-05
6.07813e-05
5.23163e-05
0.00134448
0.00173886
0.00121829
0.000639037
0.000417578
0.000295151
0.000267973
0.000279128
0.000231464
0.000230222
0.000200472
0.000188265
0.000176647
0.000169436
0.00016951
0.000171352
0.000171542
0.000172423
0.000175724
0.000176311
0.000178246
0.000179187
0.000178976
0.000181174
0.000182476
0.000185893
0.000187812
0.000191895
0.000194649
0.00019409
0.000190396
0.000183411
0.000168118
0.000148993
0.000136245
0.000125647
0.000121579
0.000114073
0.00120484
0.0013209
0.00116277
0.000706597
0.000316118
0.000345207
0.000246667
0.000154723
0.00013779
0.000123375
0.000118257
0.000126665
0.000106204
0.000103382
0.000101854
0.000100276
0.000100112
9.9155e-05
9.97007e-05
9.92191e-05
9.95798e-05
0.000100754
0.000101769
0.000105202
0.000106272
0.000108743
0.000110856
0.000115036
0.000117975
0.000121423
0.000124182
0.000125163
0.000124621
0.000120693
0.000111913
9.90831e-05
8.5737e-05
0.00107596
0.000578324
0.000508124
0.00047955
0.000383112
0.000532186
0.000332131
0.000265742
0.000198936
0.000168252
0.000156218
0.000127758
0.000125475
0.000120127
0.00011828
0.000116761
0.000119028
0.000115967
0.000113947
0.000112582
0.000109046
0.000106601
0.000105381
0.000103897
0.000101928
0.000100887
9.87537e-05
9.81511e-05
9.57784e-05
9.4351e-05
9.30504e-05
9.02459e-05
8.892e-05
8.81586e-05
8.52258e-05
8.7721e-05
9.10816e-05
0.000687166
0.000420116
0.000288054
0.00030802
0.000262962
0.000415751
0.000420496
0.00041287
0.000307804
0.000254539
0.000209443
0.000189805
0.000170583
0.000162792
0.000161199
0.000157782
0.000158844
0.000156787
0.000152893
0.0001508
0.000143118
0.000137911
0.000132515
0.000128291
0.000124144
0.000121592
0.000118207
0.000112877
0.000109281
0.000106038
0.000103163
9.62196e-05
9.3952e-05
9.13973e-05
8.63755e-05
8.78779e-05
8.3531e-05
8.1864e-05
0.000427757
0.000371344
0.000315389
0.000207507
0.000189344
0.000197233
0.000160376
0.000199254
0.000272857
0.00027707
0.000222098
0.000207364
0.000181
0.000168816
0.000163214
0.000161389
0.000161509
0.000162447
0.000162921
0.000159068
0.000158643
0.000151778
0.000148462
0.000145138
0.000139353
0.000135279
0.000132316
0.000124403
0.000119461
0.000116867
0.000112771
0.000106328
0.000103153
0.000100336
9.59953e-05
9.36989e-05
9.01863e-05
8.79004e-05
0.000331727
0.00047383
0.000335856
0.000260803
0.000203689
0.000249791
0.000271025
0.000323549
0.000287867
0.000267283
0.000219011
0.000198553
0.000166714
0.000151314
0.000134336
0.00012881
0.000127868
0.000131713
0.000134564
0.000142184
0.000140503
0.000140318
0.000135388
0.000132622
0.000131443
0.000126934
0.00012406
0.000118392
0.000116419
0.000114874
0.000109275
0.000105299
0.000103399
0.000100423
9.71896e-05
9.47161e-05
9.28518e-05
0.000356983
0.000577865
0.000461745
0.000269235
0.000217178
0.000234694
0.000226451
0.000246031
0.000207659
0.000205403
0.000134871
9.85191e-05
0.000121448
0.000104671
8.04762e-05
7.51794e-05
7.38774e-05
7.5896e-05
9.21952e-05
0.00010298
0.000119209
0.000127452
0.000127059
0.000123643
0.000118583
0.000119652
0.000119435
0.000117063
0.000116586
0.000115033
0.000109807
0.000106372
0.00010425
0.000101177
9.84217e-05
9.58234e-05
9.42825e-05
0.000632337
0.000921483
0.000656038
0.000323796
0.000188702
0.000166028
0.000174065
0.000148911
0.000137137
0.000124139
9.17273e-05
7.70092e-05
7.36068e-05
6.4496e-05
5.63546e-05
5.2812e-05
5.08655e-05
4.27563e-05
4.22085e-05
5.06249e-05
7.40879e-05
9.44122e-05
0.000102014
0.000108671
0.000101636
0.000103161
0.000106007
0.000108669
0.000107808
0.000108094
0.000106752
0.000104652
0.000103322
0.000100461
9.83959e-05
9.5695e-05
9.38891e-05
0.00091628
0.00135039
0.00117818
0.0006587
0.000493997
0.000398188
0.000425889
0.000185403
0.000122515
9.60571e-05
8.5599e-05
7.47508e-05
7.3674e-05
7.67752e-05
8.84718e-05
0.000100714
0.000109399
9.68398e-05
7.27484e-05
4.2111e-05
4.36299e-05
5.32586e-05
6.3411e-05
7.23399e-05
6.87254e-05
7.17739e-05
7.75896e-05
7.6957e-05
8.76501e-05
9.11212e-05
8.89302e-05
8.80765e-05
8.97665e-05
8.61782e-05
8.57629e-05
8.50413e-05
8.25969e-05
0.000875273
0.00147568
0.00115364
0.000806333
0.000605468
0.00054914
0.000672981
0.000702456
0.000537318
0.000436858
0.000399254
0.000359134
0.000345767
0.000353349
0.000352776
0.000358159
0.000348194
0.000254457
0.000171986
0.00011272
5.76526e-05
4.21063e-05
4.27634e-05
4.11499e-05
3.91774e-05
3.93162e-05
4.00971e-05
3.85201e-05
4.54986e-05
5.03837e-05
4.94074e-05
4.7703e-05
5.3197e-05
4.73349e-05
4.96919e-05
5.07823e-05
4.78358e-05
0.000692187
0.000675842
0.000626947
0.00051552
0.000438467
0.000387685
0.000372155
0.000361006
0.000330838
0.000292514
0.000242543
0.000192183
0.000181794
0.000181151
0.000178901
0.000172888
0.000155554
0.000147486
0.000143006
0.00012783
8.16719e-05
4.66255e-05
2.38931e-05
1.87771e-05
1.82112e-05
1.81632e-05
1.8818e-05
1.61409e-05
1.52449e-05
1.49892e-05
1.42556e-05
1.41819e-05
1.40349e-05
1.3367e-05
1.32752e-05
1.2646e-05
1.2553e-05
0.000971228
0.00117757
0.000652842
0.000635534
0.000646865
0.000600802
0.000574955
0.00055486
0.000447761
0.000278308
0.000192048
0.00012451
7.603e-05
7.25543e-05
7.62349e-05
7.77844e-05
7.91305e-05
7.9536e-05
8.05598e-05
8.07412e-05
8.07877e-05
8.0641e-05
8.00808e-05
7.95801e-05
7.97289e-05
8.00443e-05
8.03479e-05
8.07846e-05
8.11981e-05
8.11679e-05
8.08118e-05
7.95603e-05
7.64322e-05
7.24202e-05
6.95949e-05
6.64318e-05
5.7898e-05
4.93294e-05
0.00107956
0.00106686
0.000903654
0.000600849
0.000404058
0.000294449
0.000268568
0.000243317
0.000202824
0.000216159
0.000200048
0.000190531
0.000190259
0.000185927
0.000187218
0.000189923
0.000190531
0.000191238
0.000193336
0.000193895
0.000195425
0.000195136
0.000194638
0.000195359
0.000195959
0.000197764
0.000198771
0.000201145
0.000202033
0.00019859
0.000192588
0.000182207
0.000160816
0.000138336
0.000126724
0.000122616
0.000123862
0.000120802
0.00121187
0.00155801
0.00120211
0.000755354
0.000296229
0.000307165
0.000218245
0.000174973
0.000166155
0.000156013
0.000139711
0.000135451
0.000123936
0.000119897
0.000117344
0.000115578
0.00011498
0.000114431
0.000114723
0.000114463
0.000115727
0.00011673
0.000117524
0.000120808
0.000122229
0.000123873
0.000125595
0.000128587
0.000130292
0.00013258
0.000134046
0.000134548
0.000132446
0.000129764
0.000123088
0.000114404
0.000109405
0.000658821
0.000705351
0.000689092
0.000553937
0.000403808
0.00041004
0.000332408
0.000272282
0.000222549
0.000191644
0.000175412
0.000146705
0.000142066
0.000130207
0.000129458
0.000125394
0.000127452
0.000126226
0.000125876
0.000125908
0.000123913
0.000123154
0.000122937
0.000123192
0.000123801
0.000124042
0.000123896
0.000124271
0.000123867
0.000123874
0.000123071
0.000120372
0.000119083
0.000117159
0.000114534
0.000114242
0.000114748
0.000383989
0.000720623
0.000481028
0.000419172
0.000474678
0.000496995
0.000465767
0.000409441
0.000310343
0.000270107
0.0002298
0.000208801
0.000188562
0.000174497
0.000171701
0.000167998
0.000169268
0.000168838
0.000166633
0.000165698
0.000158359
0.000152958
0.000148163
0.000145787
0.000144617
0.000143744
0.000142459
0.000140225
0.000137895
0.00013503
0.000133223
0.000127181
0.000123635
0.000120287
0.000114612
0.000111662
0.000106371
0.000101287
0.000373473
0.000682348
0.000439791
0.000294072
0.000295992
0.000355054
0.000300979
0.000325563
0.000310998
0.000297194
0.000252129
0.000231457
0.000204931
0.000185081
0.00017808
0.000174326
0.000176489
0.000179356
0.000182264
0.000179764
0.000178103
0.000168532
0.000163508
0.000158341
0.000153362
0.000148732
0.000146185
0.000141546
0.000138137
0.000136655
0.000132938
0.000127362
0.000123562
0.000119641
0.000113987
0.000110015
0.000105439
0.000101279
0.000491468
0.000657084
0.000389986
0.00029156
0.000301283
0.000400763
0.000450322
0.0003614
0.000318928
0.000294868
0.000249837
0.00022497
0.000194047
0.000163836
0.000153469
0.000139841
0.000143092
0.000149374
0.000154833
0.000161579
0.000161401
0.000159685
0.000149575
0.000144944
0.000143156
0.000139089
0.000135707
0.000130382
0.000127721
0.000126524
0.000121872
0.000117667
0.000115411
0.000112444
0.000108291
0.000106016
0.000103446
0.00056514
0.000644751
0.000507695
0.000326399
0.000324799
0.000362705
0.00035942
0.000304376
0.000268748
0.000250595
0.000203406
0.000157958
0.000137735
0.000108541
8.92002e-05
8.34405e-05
8.3293e-05
8.72563e-05
0.000109769
0.000118751
0.000149466
0.000149215
0.000143809
0.000133287
0.000131064
0.000131322
0.000128969
0.000124676
0.000124063
0.000122542
0.000118102
0.000114995
0.000113316
0.000111051
0.000108318
0.000106582
0.000105521
0.000776265
0.000878313
0.000644874
0.000368017
0.000281075
0.000212538
0.000209438
0.00018852
0.000170722
0.000148273
0.000119252
9.44743e-05
8.09059e-05
6.59514e-05
5.87208e-05
5.2894e-05
5.10496e-05
4.42459e-05
4.14234e-05
5.02829e-05
8.18777e-05
0.000118194
0.00012406
0.000122195
0.000115945
0.000114674
0.000116496
0.000117861
0.000115445
0.000116101
0.000114928
0.000113453
0.000113161
0.000110802
0.000109315
0.000107891
0.000107096
0.000842737
0.00131363
0.0011838
0.000699737
0.000558321
0.000465268
0.000405641
0.000200602
0.000141191
0.000115501
0.00010515
9.00259e-05
8.63997e-05
9.07515e-05
9.64974e-05
0.000109871
0.000119687
0.000108511
8.23318e-05
5.13918e-05
3.952e-05
5.44276e-05
8.04717e-05
8.48741e-05
8.68119e-05
8.44148e-05
8.86743e-05
9.13158e-05
9.38233e-05
9.68402e-05
9.64429e-05
9.46214e-05
9.8259e-05
9.45249e-05
9.49984e-05
9.5048e-05
9.32488e-05
0.000885638
0.00148635
0.00122801
0.000894767
0.000767055
0.000741537
0.000846287
0.000765989
0.000612867
0.000519414
0.000487266
0.0004361
0.000405558
0.00040397
0.000403805
0.000396492
0.000392003
0.00030312
0.000199028
0.000144616
7.63782e-05
4.40575e-05
4.55927e-05
4.87821e-05
4.64176e-05
4.31287e-05
4.58433e-05
5.13279e-05
4.96767e-05
5.3507e-05
5.68032e-05
5.04145e-05
6.04902e-05
5.05924e-05
5.42155e-05
5.7231e-05
5.20634e-05
0.000649216
0.000664354
0.000643616
0.000556905
0.000471767
0.000422687
0.000406088
0.000384887
0.00034797
0.000308996
0.000260395
0.000212213
0.000201761
0.000201597
0.000199403
0.00019194
0.000172625
0.000159038
0.000153131
0.000141034
0.000102956
6.49835e-05
2.68249e-05
1.82715e-05
1.74558e-05
1.71695e-05
1.72043e-05
1.60909e-05
1.57508e-05
1.57648e-05
1.48137e-05
1.45794e-05
1.44603e-05
1.38243e-05
1.37727e-05
1.30228e-05
1.29003e-05
0.000779683
0.000980358
0.000592209
0.000579822
0.000600614
0.000587938
0.000578713
0.000510354
0.000286917
0.000162955
0.000127888
8.92738e-05
7.20099e-05
7.64279e-05
7.95042e-05
8.08332e-05
8.21018e-05
8.25903e-05
8.34171e-05
8.35914e-05
8.35386e-05
8.31181e-05
8.2149e-05
8.14771e-05
8.13763e-05
8.14455e-05
8.16542e-05
8.19854e-05
8.20648e-05
8.17899e-05
8.09094e-05
7.89884e-05
7.49999e-05
7.06907e-05
6.8278e-05
6.4585e-05
5.46612e-05
4.54247e-05
0.00101494
0.00085431
0.000806719
0.000435374
0.000356949
0.00030489
0.000253533
0.000213241
0.000207871
0.000214641
0.000194798
0.000198833
0.000203007
0.000199473
0.000201633
0.000204803
0.000205925
0.000206744
0.000207962
0.000208485
0.000209326
0.000208237
0.000206473
0.000206037
0.000205548
0.000205776
0.000205688
0.000206592
0.000205144
0.000199062
0.000190072
0.000174678
0.000146745
0.000124112
0.000116645
0.00011888
0.00012413
0.000124919
0.00143035
0.00144184
0.00125446
0.000558305
0.000240747
0.000228578
0.000204942
0.000183713
0.000189389
0.000178166
0.000162076
0.000146779
0.000141543
0.00013569
0.000131558
0.000129233
0.000128245
0.000126855
0.000127391
0.000127349
0.000129038
0.000130059
0.000130761
0.000133329
0.000134697
0.000135507
0.000136917
0.000138137
0.000139391
0.000140146
0.000140849
0.000140423
0.000138102
0.000136366
0.000132575
0.000130648
0.000130221
0.000575769
0.000877049
0.000852224
0.000645044
0.000445243
0.000360664
0.000339113
0.000284698
0.000241401
0.000216501
0.000196534
0.000169564
0.000159502
0.000142342
0.00014086
0.000132633
0.000133453
0.000132655
0.000133584
0.000134297
0.000134594
0.000135062
0.000135833
0.000137763
0.000140158
0.000141326
0.000142469
0.000143624
0.000144455
0.000145349
0.00014533
0.000144072
0.000143278
0.000141813
0.000139322
0.000137245
0.000135504
0.000673073
0.000889318
0.000656523
0.000634776
0.000600476
0.000544833
0.000479647
0.000378405
0.000311505
0.000279104
0.000250264
0.000227737
0.000208018
0.000188284
0.00018044
0.000173028
0.000172429
0.000172343
0.000172323
0.000172633
0.000166973
0.000163221
0.000159617
0.000158321
0.000160646
0.000162028
0.000162657
0.000163576
0.000162456
0.000160615
0.000159385
0.000154733
0.000150394
0.000146444
0.00014042
0.000135016
0.000128589
0.000121714
0.000768282
0.000844788
0.000555223
0.000440589
0.000464584
0.00047578
0.00043046
0.00036932
0.00032911
0.000306351
0.000275128
0.000251923
0.000227278
0.000200548
0.000187862
0.000178243
0.00017845
0.000181177
0.00018474
0.000187179
0.000184972
0.000176712
0.000172285
0.000165094
0.000160898
0.000158499
0.00015627