/*--------------------------------*- C++ -*----------------------------------*\
| =========                 |                                                 |
| \\      /  F ield         | OpenFOAM: The Open Source CFD Toolbox           |
|  \\    /   O peration     | Version:  2.3.1                                 |
|   \\  /    A nd           | Web:      www.OpenFOAM.org                      |
|    \\/     M anipulation  |                                                 |
\*---------------------------------------------------------------------------*/
FoamFile
{
    version     2.0;
    format      ascii;
    class       volScalarField;
    location    "20";
    object      p;
}
// * * * * * * * * * * * * * * * * * * * * * * * * * * * * * * * * * * * * * //

dimensions      [0 2 -2 0 0 0 0];

internalField   nonuniform List<scalar> 
37632
(
0
3.57714
0.128045
-0.722776
-0.896049
-0.961989
-1.04932
-1.1841
-1.23122
-1.28351
-1.31061
-1.24585
-1.15764
-1.13213
-1.16264
-1.19013
-1.20435
-1.21241
-1.21683
-1.2195
-1.22124
-1.22223
-1.22275
-1.22306
-1.22322
-1.22337
-1.22351
-1.22367
-1.22384
-1.22408
-1.22437
-1.2246
-1.22475
-1.22471
-1.22447
-1.22399
-1.22321
-1.22244
-4.88049
-1.25563
-1.4964
-1.71657
-1.59722
-1.38398
-1.33417
-1.29511
-1.29816
-1.32551
-1.36818
-1.34908
-1.25626
-1.19826
-1.19482
-1.20289
-1.20988
-1.21495
-1.21831
-1.22043
-1.22192
-1.22273
-1.22321
-1.22343
-1.22354
-1.22367
-1.22375
-1.22389
-1.22401
-1.22415
-1.22433
-1.22451
-1.22463
-1.22445
-1.2241
-1.22384
-1.22352
-1.22312
-0.78771
-1.05638
-1.16343
-1.20576
-1.32941
-1.22715
-1.21382
-1.22461
-1.22959
-1.24243
-1.23899
-1.23377
-1.21651
-1.20718
-1.20723
-1.21083
-1.2147
-1.21787
-1.22009
-1.2216
-1.22266
-1.22323
-1.22356
-1.22372
-1.22379
-1.2239
-1.22391
-1.22402
-1.22412
-1.2242
-1.22432
-1.22437
-1.22436
-1.22421
-1.22397
-1.22371
-1.22354
-1.10863
-1.22455
-1.02102
-1.31234
-1.29544
-1.28486
-1.28034
-1.28408
-1.27612
-1.27766
-1.27428
-1.25463
-1.23309
-1.22041
-1.21703
-1.21718
-1.21871
-1.22043
-1.22189
-1.22304
-1.22372
-1.22402
-1.22413
-1.22413
-1.2242
-1.22412
-1.22402
-1.22418
-1.22413
-1.22417
-1.22432
-1.22436
-1.22434
-1.2243
-1.22406
-1.22367
-1.22308
-1.38712
-1.37068
-1.08567
-1.26527
-1.24844
-1.25681
-1.23712
-1.2383
-1.23453
-1.23218
-1.2356
-1.23518
-1.23047
-1.22512
-1.223
-1.22221
-1.22321
-1.22384
-1.2246
-1.22476
-1.22489
-1.22484
-1.22473
-1.22458
-1.22442
-1.22429
-1.22419
-1.22416
-1.22406
-1.22407
-1.22412
-1.22399
-1.22395
-1.22381
-1.2235
-1.22327
-1.22297
-1.22265
-1.41253
-1.3845
-1.22467
-1.31854
-1.27635
-1.27787
-1.25743
-1.24717
-1.24474
-1.24509
-1.24194
-1.23538
-1.23015
-1.22736
-1.22566
-1.22545
-1.22547
-1.22554
-1.22601
-1.22603
-1.22599
-1.22571
-1.22533
-1.22496
-1.22467
-1.22445
-1.22423
-1.22412
-1.224
-1.22393
-1.22387
-1.22378
-1.2237
-1.22354
-1.22334
-1.22311
-1.22284
-1.22263
-1.70358
-1.47628
-1.23503
-1.26916
-1.24577
-1.23645
-1.22242
-1.22694
-1.23665
-1.23667
-1.23592
-1.23621
-1.23878
-1.23194
-1.2305
-1.22942
-1.22915
-1.22968
-1.22922
-1.22835
-1.22759
-1.22665
-1.22587
-1.22536
-1.22484
-1.22458
-1.22427
-1.22405
-1.2239
-1.22378
-1.22366
-1.22356
-1.22344
-1.22329
-1.22313
-1.22294
-1.22275
-1.74589
-1.649
-1.26022
-1.30111
-1.26905
-1.22932
-1.23662
-1.23738
-1.23277
-1.23538
-1.23388
-1.23803
-1.23058
-1.22702
-1.22915
-1.23022
-1.23096
-1.23052
-1.23007
-1.22916
-1.22823
-1.22726
-1.22624
-1.22545
-1.22498
-1.2246
-1.22428
-1.22399
-1.22381
-1.22366
-1.22354
-1.22342
-1.2233
-1.22317
-1.22302
-1.22287
-1.22271
-1.05113
-1.40892
-1.21126
-1.23549
-1.21431
-1.2235
-1.23849
-1.23582
-1.24124
-1.24089
-1.23835
-1.23342
-1.23327
-1.23624
-1.23411
-1.23568
-1.23471
-1.23594
-1.23578
-1.23274
-1.23019
-1.22814
-1.22652
-1.22555
-1.22501
-1.2246
-1.22437
-1.22397
-1.22369
-1.22359
-1.22341
-1.22329
-1.22317
-1.22304
-1.22292
-1.22279
-1.22264
-0.600908
-1.11806
-1.1593
-1.18642
-1.19404
-1.20964
-1.21788
-1.22503
-1.23144
-1.23287
-1.23459
-1.23335
-1.23318
-1.2297
-1.23273
-1.23709
-1.2376
-1.23701
-1.23528
-1.23207
-1.22933
-1.22773
-1.22612
-1.22507
-1.22447
-1.22448
-1.22427
-1.2237
-1.22351
-1.22341
-1.22329
-1.22318
-1.22309
-1.22297
-1.22286
-1.22275
-1.22261
-0.784457
-1.1134
-1.16168
-1.16221
-1.16694
-1.19197
-1.23826
-1.24975
-1.24463
-1.24642
-1.2407
-1.23082
-1.23186
-1.23494
-1.23893
-1.24316
-1.23952
-1.24123
-1.24925
-1.23903
-1.23051
-1.22783
-1.22569
-1.22551
-1.22478
-1.22433
-1.22463
-1.22412
-1.22331
-1.22348
-1.22322
-1.22311
-1.22303
-1.22291
-1.22282
-1.22271
-1.22259
-0.853673
-1.05756
-1.07392
-1.08614
-1.09244
-1.13959
-1.21668
-1.23685
-1.22261
-1.22189
-1.22181
-1.21847
-1.2261
-1.23137
-1.23594
-1.24176
-1.24086
-1.24256
-1.24055
-1.2301
-1.224
-1.22492
-1.2236
-1.22433
-1.22447
-1.22508
-1.2248
-1.22305
-1.22283
-1.22317
-1.22307
-1.22304
-1.223
-1.22288
-1.22279
-1.22269
-1.22259
-4.37368
-0.731464
-0.968608
-1.18662
-1.15385
-1.1015
-1.22964
-1.30332
-1.36439
-1.40968
-1.42321
-1.35631
-1.27331
-1.25235
-1.28001
-1.30284
-1.31557
-1.32309
-1.32737
-1.32995
-1.33161
-1.33257
-1.33311
-1.33344
-1.33356
-1.33372
-1.33387
-1.33402
-1.33419
-1.33444
-1.33473
-1.33497
-1.3351
-1.33502
-1.33478
-1.33436
-1.33354
-1.33284
-3.42063
-2.00498
-1.79046
-1.71284
-1.68328
-1.50278
-1.43411
-1.42687
-1.4499
-1.45701
-1.47302
-1.43493
-1.34806
-1.30737
-1.30661
-1.31407
-1.3207
-1.32556
-1.32886
-1.33089
-1.33236
-1.33312
-1.33359
-1.33383
-1.33391
-1.33406
-1.33414
-1.3343
-1.33444
-1.33459
-1.33479
-1.33505
-1.33514
-1.33487
-1.33464
-1.33469
-1.33433
-1.3336
-1.8166
-1.8233
-1.75761
-1.35715
-1.42233
-1.47992
-1.32855
-1.36002
-1.34626
-1.35442
-1.35482
-1.34361
-1.32715
-1.31807
-1.31849
-1.32163
-1.32539
-1.3284
-1.33061
-1.33203
-1.33311
-1.33365
-1.33397
-1.33414
-1.33419
-1.33432
-1.33431
-1.33443
-1.33455
-1.33463
-1.33475
-1.33482
-1.33481
-1.33465
-1.33442
-1.33424
-1.33419
-1.54881
-1.50861
-1.26323
-1.47208
-1.36043
-1.40991
-1.38955
-1.40354
-1.39091
-1.38704
-1.38272
-1.36272
-1.3423
-1.33066
-1.32769
-1.32785
-1.32926
-1.33094
-1.33242
-1.33345
-1.33416
-1.33444
-1.3345
-1.3346
-1.33455
-1.33449
-1.33442
-1.33454
-1.33454
-1.33455
-1.33466
-1.33475
-1.33468
-1.3346
-1.33438
-1.33401
-1.33347
-1.52666
-1.5001
-1.31983
-1.41787
-1.38862
-1.35732
-1.35592
-1.34776
-1.34558
-1.34473
-1.34559
-1.34505
-1.34059
-1.33573
-1.33343
-1.33293
-1.33359
-1.33431
-1.33515
-1.33516
-1.33533
-1.33535
-1.33514
-1.33503
-1.33479
-1.3347
-1.3346
-1.33451
-1.33444
-1.33446
-1.33446
-1.33434
-1.33428
-1.33412
-1.33385
-1.33363
-1.33335
-1.33304
-1.54174
-1.51176
-1.37391
-1.435
-1.37907
-1.38436
-1.37553
-1.3606
-1.35966
-1.35746
-1.35253
-1.34591
-1.34105
-1.33822
-1.33625
-1.33604
-1.33602
-1.33608
-1.33641
-1.33647
-1.33637
-1.33616
-1.33577
-1.33534
-1.33515
-1.33484
-1.33459
-1.3345
-1.33438
-1.33431
-1.33423
-1.33416
-1.33406
-1.3339
-1.33371
-1.33348
-1.33321
-1.33301
-1.76984
-1.55675
-1.36658
-1.37844
-1.35166
-1.34961
-1.33781
-1.33985
-1.34809
-1.34603
-1.34741
-1.34605
-1.34748
-1.3423
-1.3409
-1.33987
-1.33966
-1.34001
-1.33961
-1.33879
-1.338
-1.33703
-1.33629
-1.33579
-1.33524
-1.335
-1.33466
-1.33445
-1.3343
-1.33414
-1.33404
-1.33393
-1.33381
-1.33365
-1.33351
-1.33331
-1.33312
-1.77494
-1.61803
-1.38856
-1.41339
-1.3844
-1.35194
-1.34985
-1.3486
-1.34661
-1.34737
-1.3462
-1.35012
-1.34369
-1.33865
-1.34
-1.34086
-1.34135
-1.34107
-1.34051
-1.33961
-1.33866
-1.33769
-1.33665
-1.33588
-1.3354
-1.33497
-1.33464
-1.3344
-1.33419
-1.33403
-1.33392
-1.3338
-1.33367
-1.33353
-1.33339
-1.33324
-1.33307
-1.22788
-1.4438
-1.31302
-1.34572
-1.32975
-1.34256
-1.34979
-1.34991
-1.35158
-1.35128
-1.34859
-1.34574
-1.34486
-1.34551
-1.34481
-1.34595
-1.34528
-1.34633
-1.34612
-1.34321
-1.34064
-1.33857
-1.33697
-1.33601
-1.33544
-1.335
-1.33473
-1.33436
-1.33407
-1.33397
-1.33378
-1.33367
-1.33355
-1.33341
-1.33329
-1.33316
-1.33301
-0.924509
-1.26221
-1.28531
-1.31121
-1.3162
-1.33597
-1.33653
-1.34061
-1.34395
-1.34402
-1.3461
-1.34492
-1.3447
-1.34194
-1.34377
-1.34765
-1.34831
-1.3479
-1.34598
-1.34264
-1.33993
-1.33835
-1.33662
-1.33555
-1.33497
-1.33484
-1.33461
-1.33408
-1.33392
-1.33379
-1.33366
-1.33357
-1.33345
-1.33335
-1.33322
-1.33311
-1.33298
-1.0525
-1.26775
-1.3089
-1.29807
-1.30804
-1.33351
-1.36776
-1.36901
-1.36057
-1.3607
-1.35429
-1.3433
-1.3438
-1.3458
-1.34921
-1.35349
-1.35075
-1.35138
-1.35851
-1.34945
-1.3413
-1.33847
-1.33631
-1.336
-1.33534
-1.33478
-1.33513
-1.33449
-1.33371
-1.33386
-1.33361
-1.33351
-1.33339
-1.33328
-1.33319
-1.33307
-1.33296
-1.08098
-1.18976
-1.21387
-1.223
-1.23695
-1.28417
-1.34917
-1.34996
-1.33258
-1.33358
-1.33418
-1.33055
-1.33575
-1.34002
-1.34531
-1.35146
-1.35156
-1.35353
-1.35106
-1.34096
-1.33488
-1.33553
-1.33429
-1.3349
-1.33494
-1.3356
-1.33538
-1.33359
-1.33329
-1.33354
-1.33349
-1.33341
-1.33334
-1.33325
-1.33319
-1.33308
-1.33296
-1.51686
-1.04732
-1.16472
-1.21926
-1.27792
-1.26713
-1.37601
-1.4366
-1.48751
-1.51639
-1.51518
-1.45589
-1.39007
-1.37661
-1.39893
-1.41673
-1.42748
-1.43416
-1.43811
-1.44052
-1.4421
-1.44301
-1.44353
-1.44385
-1.44397
-1.44413
-1.44427
-1.44444
-1.44463
-1.44487
-1.44516
-1.44542
-1.4455
-1.44535
-1.44516
-1.4447
-1.44379
-1.44317
-2.54605
-2.4917
-1.94075
-1.72924
-1.67599
-1.56285
-1.56889
-1.5731
-1.58795
-1.56949
-1.55736
-1.51228
-1.44558
-1.41869
-1.41944
-1.426
-1.43193
-1.43641
-1.4395
-1.44145
-1.44283
-1.44356
-1.444
-1.44425
-1.44431
-1.44446
-1.44456
-1.44472
-1.44485
-1.44502
-1.44524
-1.44549
-1.44549
-1.44524
-1.44518
-1.44519
-1.44434
-1.44374
-1.07064
-1.00712
-1.59784
-1.49119
-1.47872
-1.46423
-1.45027
-1.44509
-1.45728
-1.46243
-1.46
-1.45237
-1.43731
-1.42976
-1.42992
-1.43284
-1.43631
-1.43908
-1.44119
-1.44255
-1.44357
-1.44409
-1.4444
-1.44457
-1.44461
-1.44472
-1.44474
-1.44485
-1.44496
-1.44506
-1.44517
-1.44523
-1.44518
-1.44499
-1.44475
-1.4445
-1.44413
-1.43952
-1.62922
-1.42433
-1.55861
-1.50354
-1.5402
-1.51279
-1.51462
-1.50197
-1.49505
-1.48804
-1.46874
-1.45074
-1.44091
-1.43838
-1.4386
-1.43991
-1.44154
-1.44297
-1.44395
-1.44461
-1.44488
-1.44495
-1.44501
-1.44492
-1.44489
-1.44483
-1.44491
-1.4449
-1.44495
-1.44503
-1.44506
-1.44499
-1.44487
-1.44462
-1.44425
-1.44378
-1.507
-1.57854
-1.39245
-1.49616
-1.45917
-1.45808
-1.46079
-1.45609
-1.45596
-1.45466
-1.45553
-1.45458
-1.45042
-1.44596
-1.44389
-1.44346
-1.44414
-1.44488
-1.44554
-1.44562
-1.44578
-1.44575
-1.44556
-1.44543
-1.44522
-1.4451
-1.44499
-1.4449
-1.44484
-1.44484
-1.4448
-1.44469
-1.44463
-1.44444
-1.44419
-1.44398
-1.44367
-1.44338
-1.56642
-1.58897
-1.47699
-1.51245
-1.49298
-1.491
-1.48085
-1.47228
-1.4682
-1.46601
-1.46139
-1.45538
-1.45065
-1.44815
-1.4463
-1.44643
-1.44641
-1.4465
-1.44683
-1.44691
-1.44683
-1.44659
-1.44618
-1.44577
-1.44553
-1.44524
-1.445
-1.4449
-1.44477
-1.44469
-1.44461
-1.44453
-1.44442
-1.44426
-1.44406
-1.44383
-1.44358
-1.44338
-1.67945
-1.61633
-1.46177
-1.48734
-1.46063
-1.45625
-1.45123
-1.45148
-1.45832
-1.45792
-1.4581
-1.45643
-1.45551
-1.45214
-1.45089
-1.45019
-1.44992
-1.45027
-1.44996
-1.44926
-1.44842
-1.4475
-1.44674
-1.44619
-1.44565
-1.44537
-1.44504
-1.44483
-1.44467
-1.44453
-1.44442
-1.44431
-1.44418
-1.44402
-1.44387
-1.44367
-1.44349
-1.65641
-1.62601
-1.47805
-1.50236
-1.48304
-1.46179
-1.46029
-1.45804
-1.45606
-1.4563
-1.45554
-1.4555
-1.45198
-1.44935
-1.45044
-1.45123
-1.45177
-1.45152
-1.45094
-1.45008
-1.44914
-1.44818
-1.44711
-1.44633
-1.44581
-1.44536
-1.44502
-1.44478
-1.44457
-1.44441
-1.4443
-1.44417
-1.44405
-1.4439
-1.44376
-1.4436
-1.44344
-1.32929
-1.50507
-1.41472
-1.44764
-1.44537
-1.45353
-1.46089
-1.45914
-1.46129
-1.46066
-1.4583
-1.45549
-1.45544
-1.45502
-1.45504
-1.45605
-1.45575
-1.45656
-1.4564
-1.45366
-1.45119
-1.44913
-1.44748
-1.44649
-1.44585
-1.44538
-1.44509
-1.44472
-1.44446
-1.44433
-1.44415
-1.44404
-1.44391
-1.44378
-1.44365
-1.44352
-1.44337
-1.17276
-1.37509
-1.39599
-1.42668
-1.43423
-1.44697
-1.45098
-1.45386
-1.45388
-1.45369
-1.45444
-1.45322
-1.45262
-1.45157
-1.4542
-1.45778
-1.4589
-1.45866
-1.45665
-1.45336
-1.45065
-1.44896
-1.44711
-1.44602
-1.44541
-1.44524
-1.44496
-1.44445
-1.44431
-1.44416
-1.44402
-1.44394
-1.44382
-1.44371
-1.44359
-1.44348
-1.44335
-1.26906
-1.39351
-1.42511
-1.4123
-1.42821
-1.46314
-1.4881
-1.47507
-1.46593
-1.46718
-1.46395
-1.45404
-1.45339
-1.45586
-1.4592
-1.4634
-1.46185
-1.46152
-1.46786
-1.4601
-1.45241
-1.44926
-1.4468
-1.44637
-1.44556
-1.44515
-1.44556
-1.44471
-1.4441
-1.44423
-1.44397
-1.44393
-1.44376
-1.44365
-1.44355
-1.44343
-1.44332
-1.23538
-1.29761
-1.32028
-1.33816
-1.36774
-1.42296
-1.4692
-1.45533
-1.44132
-1.44414
-1.44573
-1.44114
-1.44489
-1.44943
-1.45498
-1.46117
-1.46237
-1.46406
-1.4619
-1.45257
-1.44642
-1.44661
-1.44474
-1.44509
-1.44526
-1.44567
-1.44542
-1.44412
-1.44369
-1.44402
-1.4439
-1.44381
-1.44371
-1.44363
-1.44355
-1.44343
-1.44332
-1.50717
-1.0397
-1.34861
-1.40602
-1.4454
-1.45723
-1.53956
-1.57338
-1.58997
-1.60392
-1.60483
-1.55793
-1.51041
-1.50187
-1.51787
-1.53102
-1.53975
-1.54542
-1.54898
-1.55119
-1.55265
-1.5535
-1.55399
-1.55429
-1.5544
-1.55456
-1.5547
-1.55489
-1.55508
-1.55532
-1.55564
-1.55589
-1.55591
-1.55574
-1.55553
-1.55498
-1.5541
-1.55354
-2.13955
-2.33259
-1.78533
-1.72578
-1.73982
-1.68194
-1.72356
-1.72659
-1.69049
-1.64613
-1.63109
-1.59524
-1.54787
-1.53175
-1.53295
-1.53835
-1.54347
-1.54745
-1.55027
-1.55209
-1.55336
-1.55404
-1.55446
-1.55468
-1.55474
-1.55489
-1.555
-1.55517
-1.5553
-1.55548
-1.55574
-1.55594
-1.55587
-1.55571
-1.55575
-1.55547
-1.55442
-1.55385
-1.91579
-1.77611
-1.72625
-1.59479
-1.58549
-1.58062
-1.55674
-1.56446
-1.5662
-1.56881
-1.5676
-1.56035
-1.54793
-1.54177
-1.54195
-1.54436
-1.54742
-1.54993
-1.55187
-1.55314
-1.55409
-1.55458
-1.55487
-1.55502
-1.55505
-1.55514
-1.55517
-1.55529
-1.55539
-1.55549
-1.5556
-1.55564
-1.55555
-1.55533
-1.55507
-1.55476
-1.55439
-1.76044
-1.72453
-1.57296
-1.65589
-1.61296
-1.65688
-1.62673
-1.62541
-1.60908
-1.60027
-1.5914
-1.57424
-1.55953
-1.55154
-1.54938
-1.54961
-1.55072
-1.55227
-1.5536
-1.55451
-1.55511
-1.55535
-1.55541
-1.55544
-1.55534
-1.55531
-1.55526
-1.55531
-1.55532
-1.55536
-1.55542
-1.55543
-1.55534
-1.55519
-1.55494
-1.55457
-1.55412
-1.66511
-1.65982
-1.56182
-1.60374
-1.57627
-1.56968
-1.56975
-1.56595
-1.56641
-1.56531
-1.56554
-1.56427
-1.56031
-1.55639
-1.55452
-1.55415
-1.55479
-1.55547
-1.55603
-1.55614
-1.55627
-1.55621
-1.55603
-1.55586
-1.55564
-1.55551
-1.55539
-1.5553
-1.55524
-1.55523
-1.55518
-1.55507
-1.55498
-1.55478
-1.55453
-1.55431
-1.55401
-1.55374
-1.68342
-1.67274
-1.59832
-1.62134
-1.59866
-1.60088
-1.59229
-1.58283
-1.58024
-1.57553
-1.57074
-1.56518
-1.56103
-1.55858
-1.55707
-1.55694
-1.55696
-1.55708
-1.55733
-1.55742
-1.55732
-1.55706
-1.55663
-1.55623
-1.55593
-1.55564
-1.5554
-1.55528
-1.55515
-1.55508
-1.55499
-1.55491
-1.55478
-1.55461
-1.55441
-1.55418
-1.55394
-1.55374
-1.74336
-1.67528
-1.58105
-1.59026
-1.56983
-1.56793
-1.56458
-1.56423
-1.56889
-1.56796
-1.56823
-1.56617
-1.56479
-1.56222
-1.5611
-1.56055
-1.56042
-1.5606
-1.56044
-1.55974
-1.55891
-1.55801
-1.55722
-1.55663
-1.55609
-1.55576
-1.55543
-1.55522
-1.55505
-1.55491
-1.5548
-1.55468
-1.55454
-1.55438
-1.55422
-1.55403
-1.55385
-1.66172
-1.66783
-1.58095
-1.59669
-1.587
-1.576
-1.57154
-1.56917
-1.56714
-1.56646
-1.56586
-1.56557
-1.56181
-1.56052
-1.56093
-1.56183
-1.56223
-1.56211
-1.56148
-1.56062
-1.5597
-1.55871
-1.55761
-1.5568
-1.55622
-1.55576
-1.5554
-1.55515
-1.55494
-1.55479
-1.55466
-1.55454
-1.55441
-1.55427
-1.55412
-1.55396
-1.5538
-1.4648
-1.58928
-1.52193
-1.55317
-1.55925
-1.56991
-1.57219
-1.57136
-1.5715
-1.57053
-1.56875
-1.5659
-1.56558
-1.56502
-1.56531
-1.56621
-1.56616
-1.56675
-1.56666
-1.56424
-1.56185
-1.55976
-1.55802
-1.55695
-1.55625
-1.55576
-1.55543
-1.55507
-1.55483
-1.55469
-1.55452
-1.55441
-1.55428
-1.55414
-1.55402
-1.55388
-1.55374
-1.38123
-1.50056
-1.50892
-1.54074
-1.55119
-1.56392
-1.56452
-1.56531
-1.56381
-1.56381
-1.56424
-1.56324
-1.56261
-1.562
-1.5646
-1.56795
-1.56937
-1.56931
-1.56742
-1.56426
-1.56157
-1.55969
-1.55758
-1.55649
-1.55592
-1.55564
-1.5553
-1.55481
-1.55468
-1.55453
-1.55439
-1.5543
-1.55419
-1.55407
-1.55395
-1.55384
-1.55371
-1.45424
-1.53523
-1.54669
-1.53261
-1.55712
-1.59207
-1.60456
-1.58912
-1.57643
-1.57734
-1.5743
-1.56524
-1.56335
-1.56583
-1.56922
-1.57331
-1.5728
-1.57161
-1.57688
-1.5711
-1.56389
-1.56034
-1.55716
-1.55631
-1.55575
-1.5555
-1.55564
-1.55487
-1.55455
-1.55452
-1.55432
-1.55427
-1.55413
-1.55401
-1.5539
-1.55379
-1.55368
-1.37714
-1.41883
-1.43399
-1.4558
-1.49941
-1.55576
-1.58061
-1.56181
-1.55021
-1.55444
-1.55685
-1.55222
-1.55472
-1.55934
-1.56482
-1.57088
-1.57312
-1.57416
-1.57317
-1.56474
-1.55869
-1.55848
-1.55541
-1.55516
-1.55556
-1.5561
-1.55588
-1.55474
-1.55424
-1.55438
-1.55427
-1.55418
-1.55407
-1.55397
-1.5539
-1.55378
-1.55367
-1.6401
-1.38463
-1.57941
-1.56971
-1.60412
-1.63542
-1.69369
-1.67869
-1.66911
-1.6868
-1.69549
-1.66069
-1.62953
-1.62507
-1.63575
-1.64525
-1.65212
-1.65684
-1.65995
-1.66192
-1.66326
-1.66403
-1.66447
-1.66476
-1.66486
-1.665
-1.66516
-1.66535
-1.66555
-1.66582
-1.66616
-1.66636
-1.66633
-1.66618
-1.66587
-1.66525
-1.6644
-1.6639
-1.87723
-2.22401
-1.82167
-1.77278
-1.80653
-1.82395
-1.8941
-1.83231
-1.75634
-1.72227
-1.71385
-1.68561
-1.65492
-1.64547
-1.64662
-1.6509
-1.65519
-1.65862
-1.66113
-1.66278
-1.66394
-1.66456
-1.66494
-1.66514
-1.6652
-1.66533
-1.66546
-1.66562
-1.66575
-1.66597
-1.66625
-1.66636
-1.66629
-1.66625
-1.66622
-1.66562
-1.66453
-1.66404
-1.57035
-1.55968
-1.7302
-1.68993
-1.68526
-1.67808
-1.67048
-1.66574
-1.67191
-1.67524
-1.67495
-1.6684
-1.65883
-1.654
-1.65408
-1.65604
-1.65868
-1.66088
-1.66262
-1.66379
-1.66465
-1.66509
-1.66535
-1.66547
-1.66549
-1.66557
-1.66561
-1.66572
-1.66582
-1.66594
-1.66604
-1.66604
-1.66593
-1.66567
-1.66536
-1.66497
-1.66452
-1.6894
-1.7969
-1.6961
-1.75321
-1.72991
-1.76875
-1.73911
-1.73083
-1.71348
-1.7032
-1.69438
-1.68015
-1.66852
-1.66223
-1.66049
-1.6607
-1.6617
-1.66307
-1.66428
-1.6651
-1.66564
-1.66585
-1.66588
-1.66588
-1.66578
-1.66574
-1.66569
-1.66572
-1.66573
-1.66579
-1.66582
-1.6658
-1.66571
-1.66554
-1.66526
-1.66487
-1.66445
-1.7049
-1.72727
-1.65605
-1.7015
-1.67974
-1.67884
-1.67848
-1.6757
-1.67622
-1.67549
-1.67546
-1.67386
-1.67025
-1.66682
-1.66518
-1.66488
-1.66541
-1.66606
-1.66656
-1.66669
-1.66678
-1.66669
-1.66649
-1.6663
-1.66608
-1.66593
-1.66579
-1.66571
-1.66565
-1.66562
-1.66556
-1.66546
-1.66533
-1.66512
-1.66487
-1.66463
-1.66434
-1.66408
-1.73022
-1.74658
-1.70076
-1.71717
-1.70684
-1.70962
-1.69909
-1.69259
-1.68908
-1.68409
-1.67958
-1.67469
-1.67108
-1.66891
-1.66756
-1.66748
-1.66753
-1.66767
-1.66787
-1.66794
-1.66784
-1.66755
-1.6671
-1.66668
-1.66634
-1.66604
-1.66581
-1.66567
-1.66554
-1.66546
-1.66537
-1.66528
-1.66515
-1.66497
-1.66476
-1.66453
-1.66429
-1.6641
-1.76852
-1.74638
-1.67712
-1.69106
-1.67821
-1.67853
-1.67636
-1.67642
-1.67916
-1.67859
-1.67808
-1.67602
-1.67432
-1.67234
-1.67131
-1.67092
-1.67082
-1.67098
-1.67088
-1.67025
-1.66944
-1.66854
-1.66771
-1.66707
-1.66652
-1.66615
-1.66581
-1.6656
-1.66543
-1.66529
-1.66517
-1.66505
-1.66491
-1.66474
-1.66457
-1.66438
-1.6642
-1.7099
-1.73395
-1.68121
-1.6943
-1.69138
-1.68558
-1.68181
-1.67919
-1.67704
-1.676
-1.67516
-1.67388
-1.67178
-1.67109
-1.67143
-1.67226
-1.67268
-1.67262
-1.67203
-1.6712
-1.6703
-1.66927
-1.66814
-1.66728
-1.66665
-1.66615
-1.66578
-1.66551
-1.66531
-1.66516
-1.66503
-1.66491
-1.66477
-1.66463
-1.66448
-1.66432
-1.66416
-1.60632
-1.68368
-1.63539
-1.66333
-1.67267
-1.68292
-1.68343
-1.68176
-1.68138
-1.68032
-1.67873
-1.67616
-1.67552
-1.67509
-1.67554
-1.67636
-1.67654
-1.67692
-1.6769
-1.67486
-1.6726
-1.67047
-1.6686
-1.66744
-1.66668
-1.66613
-1.66576
-1.66542
-1.66519
-1.66504
-1.66488
-1.66477
-1.66464
-1.6645
-1.66437
-1.66424
-1.6641
-1.55373
-1.62913
-1.62552
-1.65311
-1.6647
-1.67571
-1.67684
-1.67563
-1.67297
-1.67296
-1.67313
-1.67225
-1.67183
-1.67223
-1.6749
-1.67804
-1.67971
-1.67981
-1.67823
-1.67524
-1.67263
-1.67053
-1.66821
-1.66697
-1.66635
-1.66596
-1.66559
-1.66517
-1.66503
-1.66488
-1.66474
-1.66465
-1.66455
-1.66442
-1.66431
-1.66419
-1.66407
-1.60165
-1.65997
-1.65852
-1.64951
-1.68188
-1.71374
-1.71579
-1.69585
-1.68361
-1.68493
-1.68375
-1.67583
-1.67316
-1.67571
-1.67916
-1.68307
-1.68351
-1.68196
-1.68572
-1.68218
-1.67561
-1.67172
-1.66793
-1.66672
-1.66617
-1.66579
-1.66568
-1.66512
-1.66493
-1.66485
-1.66468
-1.6646
-1.6645
-1.66436
-1.66426
-1.66415
-1.66404
-1.51339
-1.54568
-1.55274
-1.57688
-1.62955
-1.67954
-1.68735
-1.66868
-1.65913
-1.6643
-1.66757
-1.66354
-1.66481
-1.66939
-1.67481
-1.68058
-1.6835
-1.68409
-1.68463
-1.67675
-1.6714
-1.66985
-1.66641
-1.66513
-1.66576
-1.66602
-1.66575
-1.66491
-1.6647
-1.66473
-1.66456
-1.6645
-1.66443
-1.66432
-1.66426
-1.66412
-1.66402
-1.59194
-1.54722
-1.74792
-1.71065
-1.75197
-1.80407
-1.80918
-1.75752
-1.75464
-1.78012
-1.79025
-1.7661
-1.7475
-1.74551
-1.7524
-1.7592
-1.76446
-1.76833
-1.77099
-1.77271
-1.7739
-1.77459
-1.77498
-1.77524
-1.77533
-1.77546
-1.77562
-1.77583
-1.77603
-1.77634
-1.77669
-1.77683
-1.77678
-1.77663
-1.77614
-1.77548
-1.77472
-1.77428
-1.85841
-2.05611
-1.86015
-1.84806
-1.91195
-1.99615
-2.01847
-1.89329
-1.82345
-1.80935
-1.80379
-1.78367
-1.76509
-1.7592
-1.76019
-1.76344
-1.76697
-1.76988
-1.77205
-1.77352
-1.77455
-1.77511
-1.77544
-1.77561
-1.77566
-1.77579
-1.77592
-1.77607
-1.77622
-1.77648
-1.77676
-1.77678
-1.77676
-1.77684
-1.7766
-1.77573
-1.77474
-1.77433
-1.8749
-1.79425
-1.82136
-1.79712
-1.79141
-1.78522
-1.7805
-1.77599
-1.77969
-1.78243
-1.7825
-1.77699
-1.76999
-1.76626
-1.76628
-1.76782
-1.77001
-1.7719
-1.77343
-1.77448
-1.77524
-1.77563
-1.77585
-1.77594
-1.77595
-1.77601
-1.77606
-1.77616
-1.77626
-1.7764
-1.77648
-1.77645
-1.7763
-1.776
-1.77563
-1.77522
-1.77479
-1.83887
-1.86486
-1.81436
-1.85405
-1.84804
-1.87534
-1.84673
-1.83285
-1.81602
-1.80616
-1.79813
-1.78688
-1.778
-1.77311
-1.7717
-1.77187
-1.77275
-1.77393
-1.775
-1.77573
-1.7762
-1.77637
-1.77638
-1.77634
-1.77622
-1.77617
-1.77612
-1.77614
-1.77616
-1.77621
-1.77623
-1.77619
-1.7761
-1.77591
-1.77559
-1.77517
-1.77477
-1.82634
-1.82632
-1.78443
-1.80281
-1.78971
-1.78893
-1.7882
-1.7854
-1.78594
-1.78558
-1.78533
-1.78349
-1.78028
-1.77734
-1.77591
-1.77566
-1.7761
-1.7767
-1.77713
-1.77727
-1.77731
-1.7772
-1.77698
-1.77676
-1.77652
-1.77635
-1.7762
-1.77611
-1.77605
-1.77602
-1.77595
-1.77584
-1.77569
-1.77546
-1.7752
-1.77494
-1.77467
-1.77443
-1.83119
-1.83888
-1.81026
-1.8215
-1.81603
-1.81747
-1.80818
-1.802
-1.79765
-1.79252
-1.78845
-1.78433
-1.78124
-1.77933
-1.77816
-1.77807
-1.77813
-1.77829
-1.77844
-1.7785
-1.77838
-1.77806
-1.77759
-1.77715
-1.77677
-1.77645
-1.77621
-1.77606
-1.77594
-1.77585
-1.77575
-1.77565
-1.77551
-1.77532
-1.77511
-1.77487
-1.77464
-1.77445
-1.83698
-1.83332
-1.79264
-1.79762
-1.78959
-1.78966
-1.78816
-1.78815
-1.78947
-1.7889
-1.7879
-1.78588
-1.78418
-1.78251
-1.78163
-1.78132
-1.78126
-1.78139
-1.78133
-1.78078
-1.78
-1.7791
-1.77823
-1.77754
-1.77696
-1.77654
-1.7762
-1.77598
-1.7758
-1.77567
-1.77554
-1.77541
-1.77527
-1.7751
-1.77492
-1.77473
-1.77455
-1.79231
-1.81962
-1.7854
-1.79648
-1.79757
-1.79489
-1.79174
-1.78906
-1.78708
-1.78589
-1.78512
-1.78401
-1.78208
-1.78168
-1.78194
-1.78271
-1.78314
-1.78314
-1.78263
-1.78182
-1.78093
-1.77988
-1.7787
-1.77777
-1.77707
-1.77654
-1.77615
-1.77588
-1.77568
-1.77553
-1.77539
-1.77527
-1.77513
-1.77498
-1.77483
-1.77467
-1.77452
-1.73847
-1.78583
-1.75441
-1.77823
-1.7896
-1.79504
-1.79481
-1.79238
-1.79124
-1.79017
-1.78871
-1.78631
-1.78552
-1.78522
-1.78577
-1.78657
-1.78688
-1.78714
-1.78713
-1.7855
-1.78341
-1.78127
-1.77924
-1.77795
-1.77711
-1.7765
-1.7761
-1.77577
-1.77555
-1.7754
-1.77524
-1.77512
-1.77499
-1.77486
-1.77473
-1.77459
-1.77446
-1.70153
-1.75176
-1.74314
-1.76444
-1.77664
-1.78796
-1.78776
-1.78519
-1.78234
-1.78261
-1.78296
-1.78227
-1.78197
-1.78271
-1.78526
-1.78813
-1.78995
-1.79021
-1.78899
-1.78628
-1.7838
-1.78148
-1.77896
-1.77748
-1.77677
-1.77628
-1.77589
-1.77552
-1.77538
-1.77524
-1.77509
-1.775
-1.7749
-1.77477
-1.77466
-1.77454
-1.77443
-1.73002
-1.77135
-1.76558
-1.76653
-1.80286
-1.83096
-1.82451
-1.8029
-1.7913
-1.79333
-1.79304
-1.78625
-1.78316
-1.78561
-1.7892
-1.7929
-1.79398
-1.79243
-1.79457
-1.79301
-1.78742
-1.78336
-1.77886
-1.7771
-1.7766
-1.77607
-1.77587
-1.77547
-1.77528
-1.77519
-1.77504
-1.77494
-1.77486
-1.7747
-1.77461
-1.77451
-1.77439
-1.6513
-1.67278
-1.67622
-1.70196
-1.75641
-1.79557
-1.79248
-1.77564
-1.76838
-1.77403
-1.77806
-1.77489
-1.77519
-1.77964
-1.785
-1.79032
-1.79356
-1.79417
-1.79545
-1.78861
-1.78407
-1.78107
-1.77737
-1.7747
-1.7759
-1.77591
-1.77578
-1.77516
-1.7751
-1.7751
-1.7749
-1.77484
-1.7748
-1.77467
-1.7746
-1.77446
-1.77437
-1.75744
-1.66984
-1.8528
-1.83903
-1.90183
-1.949
-1.89695
-1.83483
-1.85473
-1.88108
-1.89046
-1.87494
-1.86454
-1.86338
-1.86794
-1.87265
-1.87671
-1.87982
-1.88205
-1.88353
-1.88458
-1.88517
-1.88552
-1.88573
-1.88581
-1.88593
-1.8861
-1.88631
-1.88652
-1.88688
-1.88723
-1.88729
-1.88726
-1.88703
-1.88634
-1.88571
-1.88505
-1.88466
-1.89796
-1.99283
-1.93569
-1.94588
-2.05007
-2.16087
-2.07535
-1.94277
-1.90954
-1.90399
-1.90172
-1.88802
-1.87669
-1.87271
-1.8735
-1.87599
-1.87877
-1.88117
-1.88302
-1.8843
-1.8852
-1.88568
-1.88596
-1.88609
-1.88614
-1.88625
-1.88638
-1.88654
-1.88671
-1.88702
-1.88727
-1.8872
-1.88727
-1.88743
-1.88683
-1.88584
-1.885
-1.88468
-1.87986
-1.86412
-1.90747
-1.9006
-1.89964
-1.90011
-1.88944
-1.8835
-1.88787
-1.89036
-1.89065
-1.88634
-1.88131
-1.87845
-1.87841
-1.87966
-1.88139
-1.88296
-1.88428
-1.8852
-1.88586
-1.88619
-1.88636
-1.88642
-1.88642
-1.88646
-1.88651
-1.88661
-1.88672
-1.88687
-1.88693
-1.88686
-1.88668
-1.88632
-1.8859
-1.88548
-1.88507
-1.91012
-1.94278
-1.92572
-1.95772
-1.9628
-1.97828
-1.94988
-1.93234
-1.9184
-1.90991
-1.90309
-1.8945
-1.88785
-1.8841
-1.88296
-1.88307
-1.88383
-1.88483
-1.88576
-1.8864
-1.88679
-1.88691
-1.88689
-1.88681
-1.88668
-1.88661
-1.88656
-1.88657
-1.8866
-1.88665
-1.88664
-1.88659
-1.8865
-1.88628
-1.88591
-1.88547
-1.88509
-1.91139
-1.91947
-1.89102
-1.90604
-1.89956
-1.89938
-1.89761
-1.89536
-1.89582
-1.89562
-1.8952
-1.89325
-1.89041
-1.88793
-1.88672
-1.88649
-1.88685
-1.88737
-1.88775
-1.88787
-1.88787
-1.88773
-1.88748
-1.88722
-1.88696
-1.88677
-1.88662
-1.88653
-1.88646
-1.88642
-1.88634
-1.88622
-1.88605
-1.8858
-1.88553
-1.88526
-1.885
-1.88477
-1.92377
-1.93296
-1.91598
-1.92638
-1.9245
-1.9245
-1.91642
-1.91059
-1.90574
-1.901
-1.89739
-1.89405
-1.89146
-1.88979
-1.88882
-1.88871
-1.88878
-1.88892
-1.88904
-1.88907
-1.88894
-1.8886
-1.8881
-1.88762
-1.88721
-1.88687
-1.88662
-1.88646
-1.88633
-1.88624
-1.88613
-1.88602
-1.88588
-1.88568
-1.88545
-1.88522
-1.88499
-1.8848
-1.92553
-1.92655
-1.89655
-1.90516
-1.90096
-1.90064
-1.89945
-1.89938
-1.89973
-1.89901
-1.89769
-1.89578
-1.89416
-1.89277
-1.89201
-1.89176
-1.89172
-1.89182
-1.89175
-1.89132
-1.89058
-1.88968
-1.88876
-1.88802
-1.88741
-1.88694
-1.88659
-1.88636
-1.88618
-1.88605
-1.88592
-1.88578
-1.88563
-1.88545
-1.88527
-1.88508
-1.8849
-1.88935
-1.91308
-1.89161
-1.90169
-1.90437
-1.90376
-1.90126
-1.89873
-1.89687
-1.89569
-1.89487
-1.89371
-1.89246
-1.8922
-1.89247
-1.89316
-1.89359
-1.89365
-1.8933
-1.89247
-1.8916
-1.89052
-1.88928
-1.88827
-1.88751
-1.88693
-1.88651
-1.88624
-1.88604
-1.88589
-1.88575
-1.88563
-1.88549
-1.88534
-1.88518
-1.88502
-1.88487
-1.86405
-1.89116
-1.8731
-1.89295
-1.90368
-1.90666
-1.90568
-1.90251
-1.90103
-1.89998
-1.89862
-1.89647
-1.89557
-1.89542
-1.89603
-1.89681
-1.89719
-1.89738
-1.89732
-1.89612
-1.89429
-1.89214
-1.88994
-1.88848
-1.88756
-1.88687
-1.88643
-1.88612
-1.8859
-1.88575
-1.8856
-1.88548
-1.88535
-1.88521
-1.88508
-1.88495
-1.88482
-1.83269
-1.86908
-1.85955
-1.87617
-1.88812
-1.89821
-1.89765
-1.89413
-1.8916
-1.89207
-1.89265
-1.89216
-1.89209
-1.89323
-1.89567
-1.89828
-1.90012
-1.90053
-1.89967
-1.89735
-1.89503
-1.89256
-1.88975
-1.88797
-1.88718
-1.88658
-1.88618
-1.88586
-1.88572
-1.88559
-1.88545
-1.88535
-1.88526
-1.88512
-1.88502
-1.8849
-1.88478
-1.84953
-1.87824
-1.87359
-1.88368
-1.92225
-1.94604
-1.93146
-1.90831
-1.89887
-1.90171
-1.90222
-1.89656
-1.89333
-1.89557
-1.89936
-1.90282
-1.90424
-1.9029
-1.90372
-1.90349
-1.89927
-1.8953
-1.89001
-1.88731
-1.88702
-1.88634
-1.88608
-1.8858
-1.88564
-1.88555
-1.88539
-1.88529
-1.88521
-1.88505
-1.88496
-1.88486
-1.88475
-1.78727
-1.79903
-1.80331
-1.82901
-1.87981
-1.90655
-1.89701
-1.88241
-1.87797
-1.88379
-1.88839
-1.88622
-1.88591
-1.89007
-1.89534
-1.90016
-1.90348
-1.90435
-1.90534
-1.90059
-1.89661
-1.89273
-1.88796
-1.8841
-1.88599
-1.88586
-1.88589
-1.88554
-1.88549
-1.88544
-1.88527
-1.8852
-1.88517
-1.88501
-1.88494
-1.88482
-1.88473
-1.88378
-1.79659
-1.95306
-1.96933
-2.05651
-2.05628
-1.96752
-1.93175
-1.96462
-1.98735
-1.9949
-1.98625
-1.98032
-1.97947
-1.98245
-1.98574
-1.98882
-1.99129
-1.99313
-1.99438
-1.99527
-1.99577
-1.99606
-1.99624
-1.99629
-1.9964
-1.99658
-1.99679
-1.99701
-1.99745
-1.99778
-1.99772
-1.9978
-1.99731
-1.99652
-1.99597
-1.99542
-1.99505
-1.9764
-2.008
-2.02382
-2.06313
-2.22579
-2.27209
-2.0994
-2.02311
-2.00498
-2.00565
-2.00396
-1.99589
-1.98872
-1.9859
-1.98648
-1.98833
-1.99051
-1.99246
-1.99401
-1.9951
-1.99586
-1.99627
-1.99649
-1.99659
-1.99662
-1.99672
-1.99685
-1.99701
-1.9972
-1.99758
-1.99777
-1.99759
-1.99783
-1.99796
-1.99695
-1.99598
-1.99531
-1.99505
-2.00351
-1.98304
-2.00432
-2.00904
-2.01465
-2.00558
-1.9982
-1.99323
-1.99676
-1.99913
-1.99945
-1.99633
-1.99272
-1.99053
-1.99045
-1.99138
-1.99275
-1.99404
-1.99515
-1.99594
-1.9965
-1.99677
-1.99689
-1.99691
-1.99689
-1.99691
-1.99696
-1.99706
-1.99718
-1.99734
-1.99738
-1.99727
-1.99706
-1.99663
-1.99617
-1.99576
-1.99538
-2.01699
-2.03459
-2.0356
-2.06356
-2.07466
-2.07831
-2.04877
-2.03282
-2.02174
-2.01494
-2.00934
-2.00293
-1.99803
-1.99516
-1.99424
-1.99431
-1.99493
-1.99577
-1.99655
-1.99709
-1.9974
-1.99747
-1.99741
-1.99729
-1.99715
-1.99706
-1.997
-1.997
-1.99704
-1.99709
-1.99706