/*--------------------------------*- C++ -*----------------------------------*\
| =========                 |                                                 |
| \\      /  F ield         | OpenFOAM: The Open Source CFD Toolbox           |
|  \\    /   O peration     | Version:  2.3.1                                 |
|   \\  /    A nd           | Web:      www.OpenFOAM.org                      |
|    \\/     M anipulation  |                                                 |
\*---------------------------------------------------------------------------*/
FoamFile
{
    version     2.0;
    format      ascii;
    class       surfaceScalarField;
    location    "20";
    object      phi;
}
// * * * * * * * * * * * * * * * * * * * * * * * * * * * * * * * * * * * * * //

dimensions      [0 3 -1 0 0 0 0];

internalField   nonuniform List<scalar> 
108164
(
0.000424164
-0.000613685
-0.00048398
0.000422023
-0.000284356
0.000286498
0.000452171
-0.000205365
0.000175216
0.000441139
-0.000148358
0.00015939
0.000361345
-0.000120949
0.000200744
0.000289184
-2.52227e-05
9.73838e-05
0.00023798
-7.13812e-05
0.000122585
0.000187923
-2.88241e-05
7.88809e-05
0.000184923
-4.00544e-05
4.30549e-05
0.000230784
-5.67748e-05
1.09137e-05
0.000262395
-2.98961e-05
-1.71561e-06
0.000221307
5.48346e-06
3.56048e-05
0.000123269
3.55461e-05
6.24921e-05
4.89758e-05
3.24187e-05
4.18745e-05
1.85337e-05
1.22544e-05
1.81877e-05
7.51479e-06
3.04115e-06
7.97779e-06
4.05086e-06
-4.81437e-07
3.94536e-06
2.24575e-06
-1.3585e-06
3.16361e-06
2.43418e-06
-2.07052e-06
1.88209e-06
3.1865e-06
-3.18457e-06
2.43225e-06
3.78938e-06
-3.15041e-06
2.54754e-06
5.48452e-06
-3.06888e-06
1.37373e-06
7.40432e-06
-2.65396e-06
7.34167e-07
9.12554e-06
-3.15741e-06
1.43619e-06
1.05451e-05
-3.12242e-06
1.70285e-06
1.26761e-05
-3.29869e-06
1.16768e-06
1.4895e-05
-3.72822e-06
1.50937e-06
1.6e-05
-3.78379e-06
2.67878e-06
1.68433e-05
-3.94916e-06
3.10581e-06
1.9071e-05
-4.14511e-06
1.91743e-06
2.13478e-05
-3.96608e-06
1.68925e-06
2.18643e-05
-3.87779e-06
3.36128e-06
2.29488e-05
-3.38975e-06
2.30528e-06
2.59151e-05
-1.70254e-06
-1.26375e-06
2.69574e-05
-5.87505e-10
-1.04171e-06
2.56268e-05
2.11952e-07
1.11864e-06
2.49264e-05
1.24849e-06
-5.48113e-07
4.11102e-06
-4.70722e-06
-0.000473193
0.00089955
-0.00103246
-0.000329664
0.000220771
-0.000648655
-0.000327497
0.000272946
-0.000480478
-0.000291979
6.10602e-05
-0.000244936
-0.00021325
-0.000153656
-4.60219e-05
-0.000169094
3.93383e-05
-0.000108717
-0.000133121
-7.43805e-05
-3.29736e-05
-0.000114755
-2.14621e-05
-2.57274e-05
-9.92102e-05
1.46875e-05
-7.02871e-05
-6.89363e-05
-3.79953e-05
-4.90533e-05
-4.62204e-05
2.81378e-06
-5.54258e-05
-3.96216e-05
1.74827e-05
-1.8598e-05
-2.52174e-05
1.98913e-05
1.25062e-06
-1.66711e-05
1.8358e-05
5.51444e-06
-1.85731e-05
7.51426e-06
6.64207e-06
-2.04493e-05
2.21841e-06
2.69901e-06
-2.09893e-05
-1.46028e-06
1.5188e-06
-2.13488e-05
-1.91291e-06
9.13952e-07
-1.9528e-05
-2.88093e-06
-1.01038e-06
-1.91889e-05
-4.54099e-06
1.0173e-06
-1.68002e-05
-4.73895e-06
-8.00204e-07
-1.49826e-05
-4.22372e-06
-6.62779e-07
-1.38254e-05
-3.32837e-06
-4.82743e-07
-1.15357e-05
-5.52624e-06
7.91256e-08
-1.01841e-05
-4.29888e-06
-1.75104e-07
-8.28819e-06
-4.38616e-06
-8.08478e-07
-6.87888e-06
-5.16079e-06
2.32593e-08
-4.97536e-06
-4.86603e-06
-8.21284e-07
-3.29486e-06
-4.56433e-06
-1.06534e-06
-1.60384e-06
-4.6281e-06
-1.20802e-06
7.16428e-08
-4.0067e-06
-1.63486e-06
1.63311e-06
-3.00803e-06
-2.43122e-06
3.15671e-06
-1.56179e-06
-3.35157e-06
4.34798e-06
6.6149e-07
-3.5553e-06
5.20144e-06
3.21809e-06
-4.07214e-06
7.02584e-06
5.91684e-06
-7.52928e-06
1.11618e-05
7.88316e-06
-1.07706e-05
-9.35425e-06
-0.000286908
0.000973617
5.50505e-05
-0.000226204
-0.000145023
0.00030509
-0.000198558
0.000188956
5.63429e-05
-3.96136e-05
-4.13491e-05
-5.65353e-05
5.61682e-05
-7.61778e-05
-0.00017326
7.74061e-06
-6.11715e-05
0.000148937
7.18898e-06
-1.34524e-05
-6.03765e-05
-3.71743e-05
-3.69834e-05
5.98845e-05
-2.13764e-05
-8.00473e-06
6.89432e-06
-2.37196e-05
-1.77134e-05
-1.79387e-05
-2.60898e-05
-1.60876e-05
2.12716e-05
-2.46088e-05
1.93069e-05
-3.30532e-06
-2.53381e-05
1.15012e-05
9.11949e-06
-2.14597e-05
1.11188e-05
3.36073e-06
-1.92583e-05
7.68178e-06
-2.36893e-06
-2.23409e-05
1.3698e-06
3.93121e-06
-2.19618e-05
7.61738e-07
-2.60119e-06
-2.2634e-05
-1.68405e-06
4.43369e-07
-2.03655e-05
-2.41508e-06
-2.73433e-06
-1.97371e-05
-5.99134e-06
8.21891e-07
-1.85746e-05
-3.81039e-06
-2.09104e-06
-1.64157e-05
-6.18807e-06
-1.94528e-07
-1.49445e-05
-4.07598e-06
-7.2361e-07
-1.2851e-05
-5.89624e-06
-1.72351e-06
-1.09056e-05
-4.90239e-06
-1.34184e-06
-8.80984e-06
-4.55672e-06
-1.92522e-06
-7.73512e-06
-5.63738e-06
-5.98115e-07
-5.77469e-06
-4.53335e-06
-2.29311e-06
-4.56862e-06
-3.79498e-06
-1.97541e-06
-3.14671e-06
-4.43891e-06
-1.6111e-06
-1.6846e-06
-2.95059e-06
-2.51823e-06
-4.46729e-08
-1.98931e-06
-2.65865e-06
1.87677e-06
-8.86474e-07
-2.59675e-06
4.14141e-06
1.11571e-06
-2.71886e-06
6.98641e-06
2.79018e-06
-2.41709e-06
1.11334e-05
3.90845e-06
-2.13863e-06
4.45005e-06
-9.86393e-07
-0.000162227
0.000868882
8.02778e-05
-8.49018e-05
-0.000224486
2.13729e-06
-6.66667e-05
8.08507e-05
8.98706e-05
-0.00013321
-4.49864e-05
7.01809e-05
-9.50257e-05
1.74553e-05
-0.000131818
-4.19877e-05
-0.000100989
-1.32201e-05
-4.91798e-05
1.73173e-05
-2.35777e-05
-6.06427e-05
-2.25774e-05
-2.94306e-06
-4.23626e-05
-2.48688e-06
-2.37979e-05
-5.29461e-05
1.35521e-05
-2.06821e-05
-4.68675e-05
-1.96907e-05
-2.47542e-06
-3.73827e-05
1.81443e-05
-8.32228e-06
-3.48017e-05
1.05197e-05
-1.59953e-06
-2.87498e-05
1.60626e-06
3.46074e-06
-2.75569e-05
9.75719e-06
-3.2683e-06
-2.92609e-05
2.02173e-06
1.05207e-06
-2.62889e-05
-7.20818e-07
-1.48948e-06
-2.7602e-05
3.54297e-07
-7.25202e-07
-2.55363e-05
-2.9013e-06
-1.57952e-06
-2.54158e-05
-6.40661e-06
2.94757e-07
-2.41449e-05
-3.40056e-06
-1.68074e-06
-2.15904e-05
-7.88598e-06
-8.56581e-07
-1.98665e-05
-6.12146e-06
3.21557e-07
-1.77779e-05
-4.14723e-06
-3.83758e-06
-1.49578e-05
-8.48808e-06
7.65602e-07
-1.4014e-05
-5.09561e-06
-4.04953e-07
-1.2441e-05
-6.78261e-06
-4.27739e-07
-9.18156e-06
-5.93787e-06
-1.85492e-06
-8.65623e-06
-4.29899e-06
-2.13324e-08
-7.10265e-06
-5.82005e-06
-1.72432e-07
-5.16611e-06
-3.01591e-06
-1.87122e-06
-3.76385e-06
-2.51164e-06
-8.79931e-07
-2.57868e-06
-2.27513e-06
2.03487e-07
-1.3239e-06
3.83622e-07
-5.22693e-07
-1.00898e-06
8.98243e-07
1.57702e-06
-1.64279e-06
1.68145e-06
2.86082e-06
2.15596e-06
3.54446e-06
-9.03873e-05
0.000833555
-3.0889e-05
2.31695e-05
-0.000150361
-0.000187682
3.29463e-05
6.86279e-05
2.446e-06
4.35192e-05
3.49457e-05
-9.05049e-05
2.206e-06
2.44879e-06
5.63197e-05
-4.38524e-05
3.40839e-06
-5.83393e-05
-5.1588e-05
2.65009e-05
-1.44802e-06
-4.91037e-05
-8.79987e-07
-2.41817e-05
-5.01427e-05
-2.41745e-06
9.69541e-07
-3.55496e-05
1.43424e-05
-1.53834e-05
-3.75334e-05
-5.96959e-06
-1.17373e-05
-4.12511e-05
1.90071e-05
2.85494e-06
-3.17075e-05
8.30178e-06
-7.32568e-06
-3.22173e-05
7.35256e-06
-5.23658e-06
-3.24695e-05
6.00443e-06
4.00502e-06
-2.96921e-05
5.52206e-06
-6.27772e-06
-2.99207e-05
4.88402e-07
-9.80629e-07
-3.08493e-05
-2.74972e-07
1.55784e-06
-2.69396e-05
-4.27106e-07
-6.3839e-06
-2.92938e-05
-6.22801e-06
2.17558e-06
-2.77162e-05
-3.82238e-06
-1.15572e-06
-2.43021e-05
-5.86551e-06
-5.43459e-06
-2.40509e-05
-6.92982e-06
5.57169e-07
-2.17684e-05
-3.83698e-06
-2.59277e-06
-2.27696e-05
-7.18451e-06
-3.02349e-07
-2.13118e-05
-4.8325e-06
-1.72095e-06
-1.79815e-05
-6.82054e-06
-3.29238e-06
-1.78504e-05
-5.23641e-06
-8.32543e-07
-1.84154e-05
-3.4236e-06
-3.1034e-07
-1.59364e-05
-5.54313e-06
-2.75596e-06
-1.43981e-05
-2.81342e-06
-1.74076e-06
-1.52087e-05
-2.78568e-06
1.08457e-06
-1.34103e-05
-2.88946e-06
-1.18401e-06
-1.24925e-05
9.64043e-08
-6.30593e-07
-1.26082e-05
-5.96983e-07
1.61087e-06
-1.14106e-05
4.76409e-07
7.46388e-09
-1.11974e-05
9.0768e-07
1.03515e-06
7.62061e-07
2.96106e-07
-8.66585e-05
0.000888622
-9.12686e-05
2.56626e-05
-0.000117273
-0.000145409
7.58265e-05
4.92598e-05
-3.07958e-05
8.37424e-05
3.61606e-05
-9.13083e-06
8.0733e-05
-3.6667e-07
5.82484e-06
5.01478e-05
4.54637e-05
-1.147e-05
1.36516e-05
3.51121e-05
2.7885e-05
-2.83332e-05
1.1948e-05
2.91568e-05
-3.79888e-05
-1.45992e-05
2.18373e-05
-3.36555e-05
9.86489e-06
1.44274e-07
-3.35784e-05
1.54256e-07
-6.20099e-06
-3.40937e-05
1.68322e-05
2.69035e-06
-3.0943e-05
7.92856e-07
4.35819e-06
-2.8209e-05
1.84881e-05
-1.38696e-05
-3.1594e-05
-1.16669e-06
1.05561e-05
-2.82184e-05
9.55107e-06
-7.4046e-06
-3.06327e-05
4.08623e-06
-1.18357e-06
-2.90629e-05
-2.5195e-06
6.74761e-07
-2.70037e-05
1.63867e-07
-2.65018e-06
-2.67233e-05
-5.89023e-06
-6.18174e-07
-2.67695e-05
-3.98742e-06
2.11285e-07
-2.34506e-05
-6.21531e-06
-2.96915e-06
-2.29428e-05
-6.14862e-06
-1.28897e-06
-2.24803e-05
-6.05733e-06
1.75788e-06
-2.05779e-05
-4.45571e-06
-4.63123e-06
-1.80509e-05
-5.86923e-06
-1.49027e-06
-1.93342e-05
-5.93241e-06
3.95132e-07
-1.87846e-05
-3.52672e-06
-2.25928e-06
-1.68944e-05
-3.85372e-06
-1.46002e-06
-1.68128e-05
-3.77942e-06
-1.8454e-06
-1.67156e-05
-2.54607e-06
-3.64462e-07
-1.59235e-05
-2.42763e-06
-1.1502e-06
-1.49619e-05
-2.11336e-06
-1.73767e-06
-1.48906e-05
6.34379e-07
-6.0934e-07
-1.36108e-05
-1.15649e-06
-7.20256e-07
-1.25243e-05
3.65589e-07
-9.7566e-07
-1.19432e-05
5.81585e-07
-2.54992e-07
-1.04614e-06
-7.14422e-05
0.000953087
-0.000103783
2.4663e-05
-2.14971e-05
-0.000191881
4.63813e-05
6.03083e-05
-3.27668e-05
-2.8572e-06
5.56129e-05
2.97862e-05
-6.41265e-05
3.50732e-05
2.58294e-05
-5.36676e-05
3.28224e-05
2.18242e-06
-6.04685e-05
3.23338e-05
9.57917e-06
-6.77585e-05
2.46867e-05
-5.44871e-06
-6.65204e-05
1.87652e-05
-3.46024e-05
-6.40611e-05
2.48818e-05
-1.74762e-05
-5.24127e-05
1.69612e-05
-2.84553e-05
-4.89032e-05
2.84158e-05
-1.50932e-05
-3.76361e-05
1.48387e-05
-2.53129e-05
-3.65127e-05
1.46315e-05
2.73317e-06
-3.54046e-05
2.06196e-06
-4.33677e-06
-3.22821e-05
9.62939e-06
-3.20075e-06
-3.50317e-05
4.00946e-06
2.82632e-06
-3.12208e-05
-4.83795e-08
-6.282e-06
-3.05767e-05
-5.00173e-06
4.52153e-06
-2.99128e-05
-5.9015e-06
-6.52627e-07
-2.62349e-05
-5.54486e-06
-2.12053e-06
-2.55888e-05
-8.44893e-06
1.58752e-06
-2.28469e-05
-7.48602e-06
-1.40448e-06
-2.16764e-05
-4.77037e-06
-2.45741e-06
-2.08056e-05
-5.87458e-06
5.48053e-07
-1.82067e-05
-5.68726e-06
-2.78092e-06
-2.01604e-05
-4.38366e-06
4.05011e-07
-1.78194e-05
-4.15722e-06
-1.7105e-06
-1.6323e-05
-3.12883e-06
-2.22128e-06
-1.67078e-05
-3.61075e-06
2.1613e-07
-1.58486e-05
-2.08483e-06
-1.32048e-06
-1.4875e-05
-1.86223e-06
-1.53899e-06
-1.44758e-05
-1.51242e-06
-1.00014e-06
-1.39803e-05
4.69892e-07
-3.31001e-07
-1.26611e-05
-8.1557e-07
-1.66012e-06
-1.22715e-05
3.75448e-07
-3.99492e-07
8.60226e-07
-8.20557e-07
-3.33966e-05
0.000846574
2.31652e-06
5.80573e-05
3.55011e-05
-0.000148452
9.00936e-05
8.50867e-05
-5.68147e-05
8.62409e-05
0.000106368
-4.69025e-05
3.27012e-05
0.000107013
-1.84001e-05
7.18592e-06
7.01329e-05
-1.17952e-05
1.06846e-05
4.20933e-05
-1.32581e-05
5.47845e-06
5.14517e-05
-2.15589e-05
1.33436e-05
3.22535e-05
-2.13535e-05
1.07702e-05
4.53561e-05
-1.79009e-05
1.99997e-05
2.38354e-05
-1.61038e-05
2.18287e-05
3.23769e-05
-5.79006e-06
-5.10813e-06
1.61674e-05
2.56081e-05
-2.57699e-05
1.62821e-05
1.90111e-05
-2.93927e-05
1.1762e-05
-6.07723e-06
-3.09091e-05
7.53203e-06
3.61372e-06
-2.96089e-05
4.28261e-06
-1.57337e-06
-3.04835e-05
2.62385e-06
-1.79755e-06
-3.06034e-05
-7.48189e-06
2.60004e-06
-2.67481e-05
-7.67898e-06
-2.07782e-06
-2.50194e-05
-8.17131e-06
8.97758e-07
-2.40203e-05
-9.92533e-06
4.77254e-07
-2.299e-05
-8.68982e-06
1.73466e-07
-2.17942e-05
-5.29497e-06
-6.71194e-07
-1.9391e-05
-5.58754e-06
-2.69016e-06
-1.95074e-05
-4.93497e-06
-6.3592e-07
-1.96413e-05
-4.37974e-06
1.29998e-07
-1.74887e-05
-3.89291e-06
-2.4169e-06
-1.66913e-05
-2.62982e-06
-1.29647e-06
-1.67073e-05
-3.24738e-06
-3.47385e-07
-1.54817e-05
-1.76705e-06
-1.54338e-06
-1.45363e-05
-1.80718e-06
-1.00045e-06
-1.46151e-05
-4.18055e-07
-1.01552e-06
-1.2789e-05
-6.76468e-07
-6.79727e-07
-1.26689e-05
2.121e-07
-1.14775e-06
-1.16682e-05
2.22617e-07
-8.47949e-07
7.8877e-07
-5.69433e-07
6.32519e-05
0.000546476
0.000124882
6.3056e-05
5.36972e-05
-1.80002e-05
6.87555e-05
9.0438e-05
-1.10508e-05
3.73578e-05
0.000104258
3.35082e-05
-6.72963e-06
9.69854e-05
5.4115e-05
-3.67596e-05
7.43144e-05
2.58485e-05
-4.0626e-05
3.66141e-05
9.3455e-06
-4.18567e-05
4.96241e-05
3.05824e-06
-4.05165e-05
3.23584e-05
-1.44502e-06
-4.11433e-05
3.94152e-05
6.56763e-06
-4.04002e-05
2.05219e-05
2.57048e-06
-4.30764e-05
2.77759e-05
7.27719e-06
-4.14726e-05
2.37904e-05
-9.22673e-06
-2.99216e-05
1.8109e-05
-1.33779e-05
-3.53146e-05
1.52141e-05
1.94095e-06
-3.53287e-05
8.74092e-06
-1.19481e-06
-3.07148e-05
3.72299e-06
-4.05432e-06
-3.28901e-05
3.62241e-06
1.17672e-06
-3.14047e-05
-8.25323e-06
-7.1405e-07
-2.57373e-05
-1.07555e-05
-2.59084e-06
-2.32135e-05
-1.24956e-05
1.80042e-06
-2.10682e-05
-1.21225e-05
5.18805e-08
-2.04904e-05
-1.04642e-05
1.1965e-06
-1.98482e-05
-7.39759e-06
1.46046e-06
-1.98158e-05
-3.98992e-06
-1.63007e-06
-1.87205e-05
-4.70275e-06
-1.32746e-06
-1.94228e-05
-4.21982e-06
5.42342e-07
-1.87109e-05
-2.9756e-06
-1.62916e-06
-1.58985e-05
-3.95408e-06
-1.48823e-06
-1.62802e-05
-1.61025e-06
-1.25535e-06
-1.62128e-05
-1.52776e-06
-3.06768e-07
-1.45587e-05
-2.04904e-06
-1.41219e-06
-1.41606e-05
2.95724e-07
-1.11191e-06
-1.31421e-05
-1.18349e-06
-5.11412e-07
-1.24668e-05
4.69724e-07
-9.32937e-07
-1.15341e-05
1.13688e-07
-8.23822e-07
2.8661e-07
-2.58126e-07
5.39448e-05
0.000327707
8.12976e-05
6.46448e-05
8.07359e-05
-3.77387e-05
8.78959e-05
0.000118131
-5.09441e-05
9.92722e-05
0.00013311
-4.02288e-05
8.94197e-05
0.000142769
-3.59311e-05
4.17104e-05
0.0001224
-3.76498e-07
4.32888e-06
7.93738e-05
-5.37811e-06
1.1925e-05
6.1461e-05
-1.9433e-05
2.15921e-05
4.8827e-05
-2.61357e-05
2.83918e-05
4.93783e-05
-1.67627e-05
2.84954e-05
3.76428e-05
-1.72246e-05
2.56387e-05
3.67881e-05
-6.15549e-06
1.14132e-05
4.15003e-05
-3.4845e-06
-7.90871e-06
2.12802e-05
1.61508e-05
-2.11801e-05
1.73216e-05
1.11639e-05
-2.64344e-05
8.99484e-06
5.00041e-06
-2.88861e-05
-5.85777e-07
6.76042e-06
-2.72549e-05
-3.08318e-06
5.07439e-06
-2.52424e-05
-9.36689e-06
-8.98847e-07
-2.1654e-05
-1.44043e-05
6.05079e-08
-1.795e-05
-1.35139e-05
-2.68571e-06
-1.41312e-05
-1.25365e-05
-3.40477e-06
-1.31524e-05
-1.25555e-05
1.11256e-06
-1.51523e-05
-7.32309e-06
1.92546e-06
-1.74579e-05
-3.69402e-06
2.00966e-06
-1.91967e-05
-1.85525e-06
-1.10869e-06
-1.77293e-05
-4.53256e-06
-1.15471e-06
-1.76457e-05
-5.16763e-06
2.10844e-06
-1.5963e-05
-2.30355e-06
-3.33319e-06
-1.55687e-05
-1.05692e-06
-9.47698e-07
-1.61278e-05
-1.27009e-06
3.01452e-07
-1.48458e-05
-1.00918e-06
-2.32184e-06
-1.42182e-05
4.68748e-08
-3.78721e-07
-1.35998e-05
-4.77895e-07
-1.32407e-06
-1.28862e-05
2.66332e-07
-5.10216e-07
-1.21042e-05
1.46524e-07
-8.14779e-07
1.464e-07
-5.24768e-07
1.21283e-05
0.000201609
3.84455e-05
2.45223e-05
6.60048e-05
2.33718e-06
3.38653e-05
9.36176e-05
1.51705e-05
5.58733e-05
0.000115008
-3.9057e-06
4.33652e-05
0.00013055
2.47273e-05
-1.01481e-05
0.000117896
5.8018e-05
-3.84231e-05
7.91927e-05
2.84561e-05
-3.07755e-05
4.61052e-05
7.70817e-06
-2.56128e-05
3.53946e-05
8.26966e-06
-1.9809e-05
3.39845e-05
9.59003e-06
-1.79487e-05
1.96409e-05
1.61416e-05
-1.61548e-05
2.419e-05
1.08043e-05
-1.81676e-05
2.75278e-05
1.59854e-05
-1.99823e-05
1.306e-05
1.00349e-05
-1.46362e-05
1.1796e-05
1.79431e-07
-9.3248e-06
2.9748e-06
7.08615e-07
-9.91052e-06
-9.04132e-07
9.04079e-07
-1.56826e-05
6.32508e-06
-3.63616e-06
-2.38399e-05
-3.53447e-06
2.32487e-06
-2.13587e-05
-1.97882e-05
2.9027e-06
-1.30331e-05
-1.47821e-05
-7.05738e-06
-1.06418e-05
-9.64739e-06
-5.28044e-06
-6.06796e-06
-8.90577e-06
-8.22359e-06
-3.31919e-06
-7.47777e-06
-2.59408e-06
-7.50933e-06
-4.43771e-06
4.93384e-06
-1.40262e-05
6.02038e-07
4.0596e-06
-1.68455e-05
-1.99186e-06
2.7863e-07
-1.79206e-05
-5.63599e-06
1.5434e-06
-1.53612e-05
-4.02989e-06
-8.33055e-07
-1.46812e-05
6.03403e-07
-2.34035e-06
-1.64259e-05
-1.67054e-06
2.14523e-06
-1.46708e-05
-1.81199e-07
-2.58318e-06
-1.39806e-05
3.46876e-08
-6.7795e-07
-1.38231e-05
-3.18367e-07
-3.17011e-07
-1.27488e-05
3.1038e-07
-1.11838e-06
-1.26911e-05
-8.28506e-08
1.71699e-07
3.5545e-07
-1.11115e-06
3.59599e-05
0.000153435
2.33877e-05
7.8577e-05
2.94444e-05
8.75609e-05
6.36404e-05
8.08118e-05
0.000100616
9.35744e-05
0.000110175
0.000108337
9.28715e-05
9.64961e-05
8.27398e-05
5.62369e-05
8.38509e-05
3.42835e-05
8.31219e-05
3.47134e-05
6.2508e-05
4.02548e-05
5.34918e-05
3.32061e-05
6.0406e-05
2.06136e-05
5.66282e-05
1.68378e-05
5.91571e-05
9.26718e-06
5.47402e-05
7.39162e-06
4.63877e-05
7.44838e-06
5.70796e-05
-4.36682e-06
4.80336e-05
5.51158e-06
1.52942e-05
1.29512e-05
-4.79689e-07
9.91766e-07
-1.79051e-06
-8.33657e-06
-1.54116e-07
-1.05422e-05
1.34486e-06
-8.97675e-06
4.09144e-06
-7.18429e-06
8.90781e-06
-4.21433e-06
2.60386e-06
4.31208e-06
-1.07508e-05
7.71863e-06
-1.44481e-05
-3.32572e-07
-1.29501e-05
-8.9453e-07
-1.61546e-05
1.53395e-06
-1.40094e-05
-2.32642e-06
-1.30876e-05
-8.87152e-07
-1.41398e-05
7.33863e-07
-1.1626e-05
-2.20342e-06
-1.32757e-05
1.56685e-06
-1.57457e-06
-5.84866e-05
-0.000290836
0.000246442
0.000106681
-0.000507718
0.000629048
0.000251784
-0.000272267
0.00030238
0.000287475
-8.53728e-05
0.000209072
0.000240752
-2.05619e-05
0.000268029
0.000229043
-7.98061e-05
0.000188899
0.000200064
-2.68533e-05
0.000178418
0.000185486
-5.13138e-05
0.000144773
0.000215688
-4.86006e-05
6.1453e-05
0.000252216
-3.25276e-05
6.91368e-06
0.000234559
-9.97945e-06
2.59211e-05
0.000160518
2.73218e-05
8.23233e-05
7.98148e-05
4.11643e-05
0.000102031
3.27335e-05
2.77071e-05
6.12486e-05
1.31003e-05
1.03767e-05
2.74442e-05
4.74762e-06
2.73398e-06
1.35965e-05
1.56579e-06
-5.10025e-07
7.63721e-06
2.43856e-07
-1.81987e-06
6.30542e-06
3.3793e-07
-2.46679e-06
4.25481e-06
1.14458e-06
-3.18529e-06
4.81089e-06
2.17705e-06
-3.06391e-06
4.57898e-06
3.55587e-06
-3.20721e-06
3.20213e-06
5.02839e-06
-3.2118e-06
2.47345e-06
6.56524e-06
-3.1584e-06
3.05774e-06
8.30437e-06
-3.38638e-06
3.3501e-06
1.03238e-05
-3.59607e-06
2.74437e-06
1.22093e-05
-3.81848e-06
3.44234e-06
1.37576e-05
-3.86209e-06
4.99256e-06
1.55727e-05
-3.85541e-06
5.14608e-06
1.75437e-05
-3.8746e-06
3.82104e-06
1.89939e-05
-3.87071e-06
4.10981e-06
2.06559e-05
-3.65314e-06
5.35237e-06
2.25663e-05
-2.51266e-06
2.90752e-06
2.2795e-05
-1.27113e-06
-2.21263e-07
2.21747e-05
-1.21993e-06
7.98516e-07
2.3103e-05
-7.87597e-07
9.77955e-07
2.32443e-05
3.14518e-06
-3.83459e-06
6.43821e-06
-8.77007e-06
0.000267821
-0.000367381
-0.000845482
7.24968e-05
-0.000361481
-0.000599568
-0.00011846
-0.00014494
-0.000416848
-0.000148541
-2.89147e-05
-0.000271313
-0.000156878
9.39067e-05
-0.000152153
-0.000114373
-0.00011111
-0.000119919
-9.36413e-05
1.28617e-05
-9.34206e-05
-6.50539e-05
-4.55628e-05
-6.00658e-05
-5.34644e-05
-1.62161e-05
-0.000114261
-4.23587e-05
-5.95497e-06
-8.67317e-05
-3.88869e-05
-2.72121e-06
-6.61558e-05
-3.37375e-05
2.24331e-05
-1.88587e-05
-2.29519e-05
1.95451e-05
1.20843e-05
-1.79939e-05
1.60634e-05
1.22002e-05
-1.80136e-05
6.91561e-06
1.01229e-05
-2.01989e-05
2.09803e-06
5.52024e-06
-2.07378e-05
-1.32994e-06
2.87768e-06
-2.07766e-05
-2.70906e-06
1.8419e-06
-1.9946e-05
-3.64084e-06
-6.66889e-07
-1.866e-05
-4.76363e-06
1.30963e-06
-1.70706e-05
-4.66241e-06
-7.9117e-07
-1.55913e-05
-5.06788e-06
-2.81414e-07
-1.37588e-05
-5.35218e-06
-1.7483e-07
-1.17347e-05
-5.15151e-06
4.81807e-08
-1.01367e-05
-5.4158e-06
2.56284e-07
-8.35611e-06
-5.70876e-06
-4.76384e-07
-6.66833e-06
-5.66657e-06
1.83571e-07
-5.04889e-06
-5.70298e-06
-5.99835e-07
-3.44713e-06
-5.49979e-06
-1.02271e-06
-1.88422e-06
-5.24827e-06
-1.39726e-06
-5.71671e-07
-4.70264e-06
-2.11548e-06
5.86021e-07
-3.78591e-06
-3.45615e-06
1.77191e-06
-2.47227e-06
-4.57785e-06
2.88931e-06
-9.09816e-07
-5.03402e-06
4.04898e-06
4.4732e-07
-6.89906e-06
5.90037e-06
1.68237e-06
-1.18506e-05
9.05179e-06
2.9104e-06
-1.36872e-05
-9.05315e-06
-0.000339248
0.000329924
-0.000206811
-0.000208542
-0.000144865
-4.22319e-05
-0.000107913
-7.52303e-05
-0.000113996
-0.000140542
-6.68081e-05
1.39865e-05
-0.00010103
-2.19307e-05
-9.69346e-05
-8.28082e-05
-6.6565e-05
8.61708e-05
-5.51548e-05
-2.20106e-05
-5.31577e-05
-4.40059e-05
-2.76927e-05
3.08655e-05
-3.89548e-05
-1.39497e-05
-4.23257e-07
-4.16036e-05
-5.99021e-06
-1.52546e-05
-3.5174e-05
-3.30198e-06
1.54227e-05
-3.34372e-05
1.59639e-05
1.42704e-06
-2.7568e-05
1.31771e-05
9.61824e-06
-2.63327e-05
1.22086e-05
5.98029e-06
-2.54565e-05
3.81684e-06
-1.46307e-07
-2.58797e-05
3.69767e-06
2.75468e-06
-2.63685e-05
-1.33325e-06
-2.10907e-06
-2.58475e-05
-2.41872e-06
-3.67914e-07
-2.52009e-05
-3.5129e-06
-3.50894e-06
-2.36609e-05
-5.51388e-06
3.21188e-08
-2.26511e-05
-5.16865e-06
-2.59453e-06
-2.10615e-05
-5.62574e-06
-1.22625e-06
-1.93141e-05
-6.28697e-06
-1.53623e-06
-1.76827e-05
-5.74421e-06
-2.76225e-06
-1.62221e-05
-6.39905e-06
-1.81915e-06
-1.44216e-05
-6.49683e-06
-2.9377e-06
-1.28777e-05
-5.9306e-06
-1.87792e-06
-1.16209e-05
-5.91993e-06
-3.33299e-06
-1.01308e-05
-5.73507e-06
-3.23025e-06
-8.50953e-06
-5.22419e-06
-3.25646e-06
-7.22076e-06
-4.37305e-06
-4.13659e-06
-5.50372e-06
-3.75842e-06
-4.40318e-06
-3.50259e-06
-2.58634e-06
-4.48382e-06
-1.14694e-06
-1.43298e-06
-4.55134e-06
1.72059e-06
-7.85802e-07
-4.0515e-06
4.80735e-06
-3.30588e-07
-3.21244e-06
3.85778e-07
1.53266e-08
-7.54646e-05
0.000407345
4.26233e-05
-9.67718e-05
2.43416e-05
-0.000145762
-8.77665e-05
-8.04071e-06
1.36757e-05
-4.73016e-05
-4.99084e-05
1.28163e-05
-5.07872e-05
-8.88311e-05
-6.14318e-05
-7.85248e-05
-2.13231e-06
-4.99152e-05
-6.31527e-05
-3.84105e-05
-2.25499e-05
-6.19574e-05
8.7594e-07
-3.27069e-05
-5.44197e-05
-1.44992e-05
-3.0786e-05
-5.25283e-05
1.84973e-06
-3.04134e-05
-5.06095e-05
5.23444e-06
-1.29307e-05
-4.03485e-05
6.67094e-06
-9.2902e-06
-3.49674e-05
9.69796e-06
-3.50159e-06
-3.11619e-05
1.08334e-05
1.03051e-06
-2.98646e-05
1.18545e-06
-1.93421e-06
-2.95957e-05
6.04858e-06
-1.56778e-06
-2.92326e-05
-9.98038e-07
-2.18777e-06
-2.90795e-05
-1.26901e-06
-2.02806e-06
-2.83475e-05
-2.77371e-06
-3.05062e-06
-2.73051e-05
-5.04106e-06
-1.22055e-06
-2.60997e-05
-5.51642e-06
-2.5383e-06
-2.44392e-05
-5.43061e-06
-2.71221e-06
-2.30257e-05
-6.46059e-06
-9.18372e-07
-2.17358e-05
-6.32679e-06
-4.54485e-06
-1.97641e-05
-6.83775e-06
-7.67454e-07
-1.83152e-05
-6.47052e-06
-1.88013e-06
-1.69155e-05
-6.21774e-06
-1.54035e-06
-1.58156e-05
-6.1691e-06
-2.70558e-06
-1.44319e-05
-5.82458e-06
-1.31556e-06
-1.30023e-05
-5.14944e-06
-1.67673e-06
-1.23078e-05
-4.30705e-06
-2.63175e-06
-1.10318e-05
-4.08419e-06
-1.83015e-06
-9.79679e-06
-2.90005e-06
-7.17822e-07
-9.06965e-06
-1.58758e-06
-1.09524e-06
-8.49976e-06
-1.06839e-06
1.28972e-06
-8.15513e-06
-2.66181e-07
2.45178e-06
2.82156e-07
3.22906e-06
-6.16953e-05
0.000400137
-9.58613e-06
-9.98682e-06
-3.18086e-05
-0.000183241
-3.94563e-06
4.11986e-06
-1.57558e-05
-2.8363e-06
-1.99002e-05
-0.000121622
-2.40952e-05
-2.14692e-05
1.02166e-05
-3.79552e-05
1.65096e-06
-4.82625e-05
-4.60706e-05
-5.33786e-07
-3.12093e-05
-4.62785e-05
-1.80052e-06
-2.12973e-05
-4.12926e-05
-8.24346e-06
-1.02722e-05
-4.30754e-05
6.56522e-06
-1.8316e-05
-4.16882e-05
5.17493e-06
-1.3065e-05
-3.79765e-05
9.76046e-06
-3.94624e-06
-3.57331e-05
8.67581e-06
-8.54695e-06
-3.34545e-05
9.13021e-06
-5.81202e-06
-3.2163e-05
4.51068e-06
-6.11688e-07
-3.14866e-05
5.01355e-06
-5.91908e-06
-3.12163e-05
9.83402e-07
-3.23243e-06
-3.02104e-05
9.91478e-08
-8.16151e-07
-2.98021e-05
-3.15818e-06
-6.40778e-06
-2.84429e-05
-3.76391e-06
-4.60804e-07
-2.7083e-05
-5.37712e-06
-2.65487e-06
-2.6203e-05
-5.95867e-06
-5.78657e-06
-2.44652e-05
-5.8906e-06
-1.7506e-06
-2.34215e-05
-6.11253e-06
-3.85066e-06
-2.24362e-05
-5.74165e-06
-2.38378e-06
-2.15164e-05
-5.74094e-06
-3.37036e-06
-2.05942e-05
-6.35268e-06
-4.07962e-06
-1.99408e-05
-5.13659e-06
-2.5185e-06
-1.91463e-05
-4.66164e-06
-2.26773e-06
-1.8351e-05
-4.86634e-06
-3.83435e-06
-1.77622e-05
-3.91753e-06
-2.71915e-06
-1.67242e-05
-3.34483e-06
-6.92731e-07
-1.56977e-05
-2.7049e-06
-2.40564e-06
-1.50094e-05
-1.39027e-06
-1.51629e-06
-1.38384e-05
-1.04494e-06
4.16484e-07
-1.27785e-05
-3.72736e-07
-9.45906e-07
-1.19716e-05
1.68304e-07
3.42073e-07
1.28534e-07
-1.90934e-07
-3.31426e-05
0.000351357
-5.74632e-05
-1.1957e-05
-2.43703e-05
-0.000174033
-3.8985e-06
1.99475e-05
-5.46819e-05
-4.42374e-07
7.1071e-06
-3.95943e-05
-1.10162e-05
-5.71547e-06
6.44936e-07
-1.52962e-05
8.808e-06
-1.4347e-05
-2.58516e-05
3.20945e-05
5.81205e-06
-3.9131e-05
1.13321e-05
2.93036e-05
-3.74375e-05
6.89992e-06
5.00046e-06
-3.70486e-05
1.17759e-05
-5.45527e-06
-3.87662e-05
1.06394e-05
-9.94792e-06
-3.68738e-05
1.13049e-05
-7.46532e-07
-3.5198e-05
9.97746e-06
1.38079e-06
-3.36369e-05
5.15555e-06
-1.1456e-05
-3.20896e-05
9.19286e-06
4.32664e-06
-3.14376e-05
3.40098e-06
-6.44405e-06
-3.1758e-05
3.21453e-06
-3.09423e-06
-3.05694e-05
3.76338e-07
-7.91072e-07
-2.95667e-05
-3.49032e-06
-3.32072e-06
-2.86368e-05
-3.42312e-06
-1.88892e-06
-2.71141e-05
-5.27657e-06
-1.4119e-06
-2.55866e-05
-6.67856e-06
-3.77677e-06
-2.41632e-05
-5.97451e-06
-2.6285e-06
-2.22705e-05
-5.31339e-06
-9.33962e-07
-2.18839e-05
-5.7204e-06
-5.03912e-06
-2.05597e-05
-5.51043e-06
-3.04489e-06
-1.97266e-05
-5.44769e-06
-1.34301e-06
-1.92479e-05
-4.24675e-06
-3.62781e-06
-1.84589e-05
-4.07718e-06
-2.83345e-06
-1.80523e-05
-4.09781e-06
-3.02056e-06
-1.73101e-05
-3.01912e-06
-2.0051e-06
-1.66306e-05
-2.61936e-06
-2.55516e-06
-1.61184e-05
-2.11046e-06
-2.84425e-06
-1.53274e-05
-1.00895e-06
-1.78175e-06
-1.42356e-05
-9.73213e-07
-1.88377e-06
-1.33551e-05
-4.1669e-07
-1.81215e-06
-1.23856e-05
3.93944e-08
-1.09562e-06
-1.74705e-06
-5.82401e-06
0.00026096
-4.24667e-05
-1.28841e-05
-3.80752e-05
-0.000171116
-1.69066e-06
2.79983e-06
-2.68126e-05
-5.7556e-06
1.51818e-05
2.57764e-05
-3.67762e-05
1.06683e-05
4.04662e-05
-2.64694e-05
4.09239e-06
-3.40877e-06
-1.794e-05
2.38146e-05
9.32976e-06
-3.06553e-05
1.77943e-05
8.04394e-07
-3.79246e-05
1.10162e-05
-3.14494e-05
-4.09455e-05
1.57764e-05
-1.84559e-05
-4.24635e-05
1.13139e-05
-2.76118e-05
-3.94476e-05
1.36303e-05
-2.04344e-05
-4.22743e-05
9.52973e-06
-2.20385e-05
-3.86688e-05
9.22126e-06
-4.93804e-06
-3.52863e-05
7.25702e-06
-5.78343e-06
-3.60833e-05
5.78325e-06
-4.78601e-06
-3.38495e-05
3.98603e-06
-1.78978e-07
-3.45202e-05
2.92838e-07
-5.52784e-06
-3.17292e-05
-3.75721e-06
1.99746e-06
-2.99245e-05
-4.66042e-06
-1.22003e-06
-2.84015e-05
-6.93333e-06
-1.98679e-06
-2.59389e-05
-7.03481e-06
-5.18752e-07
-2.44816e-05
-6.87463e-06
-1.96168e-06
-2.33007e-05
-5.44534e-06
-3.50638e-06
-2.17058e-05
-5.31261e-06
-1.45466e-06
-2.06887e-05
-5.57828e-06
-3.73011e-06
-2.01435e-05
-4.56159e-06
-1.02636e-06
-1.89872e-05
-4.1265e-06
-2.98703e-06
-1.8288e-05
-3.94292e-06
-3.05472e-06
-1.75722e-05
-3.11867e-06
-1.47886e-06
-1.68836e-05
-2.66022e-06
-2.36795e-06
-1.6151e-05
-2.35274e-06
-2.53824e-06
-1.55744e-05
-1.56043e-06
-2.12677e-06
-1.46109e-05
-8.64858e-07
-1.43851e-06
-1.3854e-05
-9.39034e-07
-2.4512e-06
-1.30931e-05
-2.27364e-07
-1.34979e-06
-8.96004e-08
-1.51729e-06
3.46434e-05
0.000142152
5.88709e-05
2.30185e-05
-7.12938e-05
-0.000103609
2.67329e-05
1.30202e-06
-5.90313e-05
1.93794e-05
3.15139e-05
-5.5881e-05
-4.83738e-06
4.02514e-05
-2.37665e-05
-1.78698e-05
1.47866e-05
-9.45703e-06
-1.84546e-05
9.57534e-06
1.56599e-06
-2.18321e-05
1.35215e-05
-1.39086e-05
-1.9024e-05
2.58016e-06
-1.57256e-05
-1.8357e-05
1.82614e-05
-2.10528e-05
-1.79883e-05
8.38319e-06
-1.35418e-05
-2.44221e-05
1.53371e-05
-1.06301e-06
-2.52952e-05
1.09308e-05
2.50802e-05
-2.72224e-05
1.8794e-05
1.13656e-05
-3.28905e-05
9.3887e-06
-2.54081e-06
-3.24635e-05
8.17532e-06
7.94583e-07
-3.38853e-05
5.01209e-06
-1.17757e-06
-3.35304e-05
-2.49467e-07
-1.6102e-06
-3.15655e-05
-4.5271e-06
1.40503e-06
-2.91932e-05
-6.78383e-06
-2.32664e-06
-2.75622e-05
-8.45109e-06
7.84524e-07
-2.55303e-05
-7.99022e-06
-5.99222e-07
-2.39881e-05
-7.47994e-06
-7.63423e-07
-2.24062e-05
-5.82472e-06
-1.87373e-06
-2.15786e-05
-4.99431e-06
-3.83611e-06
-2.05761e-05
-4.97096e-06
-2.2457e-06
-1.98185e-05
-4.21885e-06
-9.70362e-07
-1.8796e-05
-4.06338e-06
-3.50252e-06
-1.79767e-05
-3.45788e-06
-2.60083e-06
-1.74107e-05
-2.36268e-06
-1.66931e-06
-1.66779e-05
-2.42733e-06
-2.50905e-06
-1.58541e-05
-1.99508e-06
-2.18194e-06
-1.53783e-05
-1.00184e-06
-2.04991e-06
-1.42796e-05
-9.33475e-07
-1.70983e-06
-1.36703e-05
-6.3414e-07
-2.06197e-06
-1.28977e-05
-1.55612e-07
-1.6923e-06
-1.10744e-07
-1.39331e-06
3.20961e-05
9.55801e-05
9.76592e-05
2.23756e-05
-3.95515e-05
-4.00221e-05
2.24468e-05
1.7377e-05
-2.7197e-05
7.8224e-06
5.78314e-05
2.18151e-05
-2.24874e-05
6.299e-05
6.16862e-05
-5.27455e-05
3.61566e-05
3.47366e-05
-4.62288e-05
1.6651e-05
-4.24696e-06
-3.99311e-05
1.44817e-05
-4.1997e-06
-3.99681e-05
1.33962e-05
-1.22241e-05
-3.88782e-05
2.08883e-05
2.85075e-06
-3.86048e-05
1.48121e-05
-4.1318e-06
-3.85962e-05
2.11545e-05
1.45117e-06
-3.62062e-05
1.578e-05
-1.6466e-05
-3.52117e-05
1.46919e-05
-1.02702e-05
-3.71895e-05
1.39925e-05
-6.85063e-07
-3.51145e-05
8.68649e-06
-3.78096e-06
-3.42574e-05
4.58177e-06
-4.48107e-06
-3.56279e-05
1.37648e-06
9.21255e-07
-3.38887e-05
-6.15604e-06
-8.24361e-07
-2.94125e-05
-1.1707e-05
-2.14383e-06
-2.64853e-05
-1.08996e-05
1.32174e-06
-2.39817e-05
-1.03431e-05
-9.88635e-08
-2.25955e-05
-8.40691e-06
7.37278e-07
-2.16487e-05
-5.26233e-06
-4.87191e-08
-2.11442e-05
-4.00022e-06
-3.12864e-06
-2.0119e-05
-4.4944e-06
-2.82927e-06
-1.97639e-05
-3.30594e-06
-7.25619e-07
-1.89964e-05
-3.97801e-06
-2.48202e-06
-1.75017e-05
-3.47165e-06
-2.96924e-06
-1.74251e-05
-1.46172e-06
-2.23285e-06
-1.6632e-05
-2.05036e-06
-1.47682e-06
-1.56343e-05
-1.83226e-06
-2.57269e-06
-1.52481e-05
-5.69646e-07
-1.93033e-06
-1.42296e-05
-8.91824e-07
-1.57163e-06
-1.35438e-05
-4.25063e-07
-1.82781e-06
-1.2871e-05
-1.33551e-07
-1.51866e-06
-1.65563e-07
-1.09954e-06
3.64485e-05
4.89481e-05
4.79518e-05
5.23205e-05
-4.86097e-05
-4.45524e-05
5.67035e-05
7.81951e-06
-4.57696e-05
4.92485e-05
7.29477e-05
-4.78902e-05
2.23702e-05
9.9155e-05
-4.52178e-05
-1.07181e-05
7.76267e-05
-8.75835e-06
-1.79692e-05
3.00734e-05
-1.15494e-05
-1.49571e-05
1.18183e-05
-1.97817e-05
-1.86959e-05