/*--------------------------------*- C++ -*----------------------------------*\
| =========                 |                                                 |
| \\      /  F ield         | OpenFOAM: The Open Source CFD Toolbox           |
|  \\    /   O peration     | Version:  2.3.1                                 |
|   \\  /    A nd           | Web:      www.OpenFOAM.org                      |
|    \\/     M anipulation  |                                                 |
\*---------------------------------------------------------------------------*/
FoamFile
{
    version     2.0;
    format      ascii;
    class       surfaceScalarField;
    location    "20";
    object      phi_0;
}
// * * * * * * * * * * * * * * * * * * * * * * * * * * * * * * * * * * * * * //

dimensions      [0 3 -1 0 0 0 0];

internalField   nonuniform List<scalar> 
108164
(
0.000420228
-0.000617904
-0.000487796
0.000424036
-0.000288321
0.000284512
0.000458002
-0.000211386
0.000177421
0.00044225
-0.000148259
0.000164011
0.000356077
-0.000116084
0.000202256
0.000284476
-2.48839e-05
9.64858e-05
0.000235379
-7.21855e-05
0.000121282
0.000187362
-3.02086e-05
7.82255e-05
0.000187509
-4.09431e-05
4.07963e-05
0.000235277
-5.71725e-05
9.40438e-06
0.000264086
-2.88054e-05
-3.88966e-09
0.000218147
7.80614e-06
3.81335e-05
0.000119323
3.58271e-05
6.29963e-05
4.70172e-05
3.14984e-05
4.08077e-05
1.7787e-05
1.17148e-05
1.75154e-05
7.19628e-06
2.83198e-06
7.75873e-06
3.89609e-06
-5.63958e-07
3.86414e-06
2.16517e-06
-1.4043e-06
3.13522e-06
2.39334e-06
-2.0939e-06
1.86573e-06
3.1683e-06
-3.19924e-06
2.42428e-06
3.78457e-06
-3.16229e-06
2.54603e-06
5.48918e-06
-3.07756e-06
1.37295e-06
7.41563e-06
-2.659e-06
7.32552e-07
9.13994e-06
-3.15982e-06
1.4355e-06
1.05629e-05
-3.12661e-06
1.70363e-06
1.26976e-05
-3.30203e-06
1.16736e-06
1.49162e-05
-3.73038e-06
1.51181e-06
1.60183e-05
-3.78655e-06
2.68437e-06
1.68641e-05
-3.95234e-06
3.10662e-06
1.90968e-05
-4.14742e-06
1.91465e-06
2.13708e-05
-3.96781e-06
1.69388e-06
2.18841e-05
-3.87951e-06
3.36619e-06
2.29778e-05
-3.38789e-06
2.29423e-06
2.59465e-05
-1.69578e-06
-1.27301e-06
2.69757e-05
2.37054e-09
-1.03149e-06
2.56378e-05
2.12815e-07
1.12509e-06
2.49401e-05
1.25908e-06
-5.61405e-07
4.12698e-06
-4.72841e-06
-0.000475594
0.000909894
-0.00103918
-0.000332363
0.000223356
-0.000654908
-0.00032529
0.00027085
-0.000489309
-0.00029105
6.33908e-05
-0.00024589
-0.000213481
-0.00015387
-3.97833e-05
-0.000168432
3.89538e-05
-0.000108887
-0.000132732
-7.39138e-05
-3.39709e-05
-0.000114526
-2.23606e-05
-2.6055e-05
-9.91364e-05
1.47053e-05
-7.10375e-05
-6.89615e-05
-3.77646e-05
-4.95828e-05
-4.6044e-05
3.14524e-06
-5.48681e-05
-3.91379e-05
1.80469e-05
-1.71469e-05
-2.49436e-05
1.97657e-05
1.86711e-06
-1.6733e-05
1.78643e-05
5.42356e-06
-1.87301e-05
7.20681e-06
6.50502e-06
-2.05883e-05
2.05697e-06
2.63324e-06
-2.10825e-05
-1.55177e-06
1.48204e-06
-2.14158e-05
-1.96999e-06
8.98958e-07
-1.95714e-05
-2.91332e-06
-1.02497e-06
-1.92169e-05
-4.56197e-06
1.00824e-06
-1.68199e-05
-4.75864e-06
-8.00686e-07
-1.49923e-05
-4.23791e-06
-6.67236e-07
-1.3831e-05
-3.33358e-06
-4.86706e-07
-1.15374e-05
-5.53092e-06
7.75007e-08
-1.01836e-05
-4.3065e-06
-1.73905e-07
-8.28612e-06
-4.38923e-06
-8.10306e-07
-6.87483e-06
-5.16303e-06
2.13588e-08
-4.97026e-06
-4.86939e-06
-8.21725e-07
-3.28848e-06
-4.56651e-06
-1.06762e-06
-1.59626e-06
-4.62866e-06
-1.21099e-06
8.10991e-08
-4.00669e-06
-1.63848e-06
1.64438e-06
-3.00578e-06
-2.43701e-06
3.16875e-06
-1.55642e-06
-3.35583e-06
4.35884e-06
6.69583e-07
-3.55546e-06
5.21138e-06
3.22908e-06
-4.07924e-06
7.04286e-06
5.92965e-06
-7.54832e-06
1.11916e-05
7.89e-06
-1.07797e-05
-9.34502e-06
-0.000291914
0.000986002
5.46757e-05
-0.000228138
-0.000137742
0.000297322
-0.000197919
0.000183189
5.74423e-05
-3.96024e-05
-3.69205e-05
-5.80058e-05
5.66632e-05
-7.66985e-05
-0.000173437
7.54083e-06
-6.05821e-05
0.000148658
6.79434e-06
-1.36183e-05
-5.95489e-05
-3.73732e-05
-3.71116e-05
5.89185e-05
-2.15804e-05
-8.14271e-06
7.05524e-06
-2.37936e-05
-1.74311e-05
-1.81203e-05
-2.5922e-05
-1.57083e-05
2.09819e-05
-2.43647e-05
1.96808e-05
-3.19118e-06
-2.51756e-05
1.14936e-05
9.08303e-06
-2.14876e-05
1.0835e-05
3.34123e-06
-1.93248e-05
7.4938e-06
-2.44978e-06
-2.24081e-05
1.24619e-06
3.89411e-06
-2.20181e-05
6.78185e-07
-2.61994e-06
-2.26774e-05
-1.74146e-06
4.30742e-07
-2.03981e-05
-2.44492e-06
-2.74767e-06
-1.9756e-05
-6.01846e-06
8.14354e-07
-1.85885e-05
-3.83298e-06
-2.0932e-06
-1.64247e-05
-6.20007e-06
-2.01649e-07
-1.49484e-05
-4.08675e-06
-7.23082e-07
-1.28523e-05
-5.90436e-06
-1.72263e-06
-1.09061e-05
-4.90721e-06
-1.34559e-06
-8.80686e-06
-4.55896e-06
-1.92946e-06
-7.73138e-06
-5.63908e-06
-5.99424e-07
-5.77111e-06
-4.53657e-06
-2.29309e-06
-4.56334e-06
-3.79443e-06
-1.97985e-06
-3.14069e-06
-4.43748e-06
-1.61383e-06
-1.67725e-06
-2.95052e-06
-2.5196e-06
-3.57777e-08
-1.98564e-06
-2.66162e-06
1.88806e-06
-8.81234e-07
-2.59903e-06
4.15504e-06
1.12195e-06
-2.71934e-06
7.00485e-06
2.79708e-06
-2.41782e-06
1.11589e-05
3.91415e-06
-2.13854e-06
4.45303e-06
-9.77978e-07
-0.000170696
0.000887762
8.14938e-05
-9.32841e-05
-0.000215466
3.11929e-07
-6.81506e-05
7.61322e-05
8.19236e-05
-0.000133555
-4.49985e-05
7.34828e-05
-9.54491e-05
1.74668e-05
-0.000132272
-4.22755e-05
-0.000100199
-1.35563e-05
-4.88855e-05
1.69225e-05
-2.39308e-05
-6.06192e-05
-2.24856e-05
-2.89227e-06
-4.23796e-05
-2.56394e-06
-2.38184e-05
-5.2843e-05
1.37403e-05
-2.07079e-05
-4.67371e-05
-1.95101e-05
-2.30415e-06
-3.70785e-05
1.81243e-05
-8.10201e-06
-3.45969e-05
1.05912e-05
-1.57922e-06
-2.87179e-05
1.48277e-06
3.47332e-06
-2.75711e-05
9.62258e-06
-3.27565e-06
-2.92988e-05
1.95485e-06
1.01907e-06
-2.63294e-05
-7.96458e-07
-1.4948e-06
-2.76324e-05
2.95134e-07
-7.33534e-07
-2.55632e-05
-2.92223e-06
-1.59187e-06
-2.54282e-05
-6.44306e-06
2.89564e-07
-2.41587e-05
-3.4216e-06
-1.68087e-06
-2.16003e-05
-7.89768e-06
-8.60774e-07
-1.98697e-05
-6.14629e-06
3.28934e-07
-1.77808e-05
-4.15024e-06
-3.84301e-06
-1.49543e-05
-8.49059e-06
7.56855e-07
-1.40068e-05
-5.10498e-06
-4.01462e-07
-1.24394e-05
-6.78248e-06
-4.23995e-07
-9.17673e-06
-5.9431e-06
-1.85618e-06
-8.64768e-06
-4.29773e-06
-2.57457e-08
-7.09654e-06
-5.81992e-06
-1.687e-07
-5.16025e-06
-3.01708e-06
-1.86974e-06
-3.75679e-06
-2.50538e-06
-8.83709e-07
-2.57268e-06
-2.27173e-06
2.0638e-07
-1.31972e-06
3.87624e-07
-5.18634e-07
-1.00712e-06
9.0391e-07
1.58058e-06
-1.6441e-06
1.68487e-06
2.86626e-06
2.15945e-06
3.5472e-06
-9.28178e-05
0.000860778
-3.42108e-05
2.20249e-05
-0.000145308
-0.000185
3.32856e-05
6.75571e-05
-2.68562e-06
4.29066e-05
3.5826e-05
-9.04455e-05
2.14989e-06
2.25263e-06
5.59709e-05
-4.37024e-05
3.10843e-06
-5.74554e-05
-5.15513e-05
2.64337e-05
-1.66234e-06
-4.91279e-05
-8.09548e-07
-2.40995e-05
-5.01702e-05
-2.37295e-06
8.51285e-07
-3.56323e-05
1.45644e-05
-1.5362e-05
-3.74764e-05
-5.8706e-06
-1.17953e-05
-4.12001e-05
1.8941e-05
2.90703e-06
-3.16636e-05
8.30053e-06
-7.24587e-06
-3.21672e-05
7.30071e-06
-5.31441e-06
-3.24803e-05
5.91637e-06
4.01938e-06
-2.97105e-05
5.46564e-06
-6.28061e-06
-2.99328e-05
4.43384e-07
-1.01753e-06
-3.08769e-05
-3.39869e-07
1.57905e-06
-2.69511e-05
-4.54155e-07
-6.39378e-06
-2.92935e-05
-6.25485e-06
2.15414e-06
-2.7736e-05
-3.85065e-06
-1.12841e-06
-2.43138e-05
-5.87503e-06
-5.44491e-06
-2.40559e-05
-6.95184e-06
5.47712e-07
-2.17662e-05
-3.84332e-06
-2.5967e-06
-2.27653e-05
-7.1924e-06
-2.99056e-07
-2.1322e-05
-4.83694e-06
-1.7113e-06
-1.79839e-05
-6.8228e-06
-3.29776e-06
-1.78414e-05
-5.24685e-06
-8.38782e-07
-1.84148e-05
-3.4205e-06
-3.03813e-07
-1.59398e-05
-5.54352e-06
-2.7514e-06
-1.4394e-05
-2.81444e-06
-1.74848e-06
-1.52056e-05
-2.77962e-06
1.08589e-06
-1.34115e-05
-2.88938e-06
-1.17651e-06
-1.24913e-05
9.99109e-08
-6.3248e-07
-1.26083e-05
-5.91473e-07
1.61238e-06
-1.14116e-05
4.78708e-07
9.52445e-09
-1.11965e-05
9.09456e-07
1.03487e-06
7.6326e-07
2.95924e-07
-8.41288e-05
0.000922468
-9.69043e-05
2.73816e-05
-0.000111831
-0.000144988
7.76414e-05
4.94325e-05
-3.21353e-05
8.45431e-05
3.67585e-05
-7.83415e-06
8.05602e-05
1.91695e-07
6.0438e-06
4.98535e-05
4.48775e-05
-1.10623e-05
1.35664e-05
3.5e-05
2.77208e-05
-2.82914e-05
1.20639e-05
2.89844e-05
-3.79916e-05
-1.45772e-05
2.19045e-05
-3.36249e-05
9.8995e-06
2.98232e-07
-3.34434e-05
1.45402e-07
-6.19757e-06
-3.4015e-05
1.68945e-05
2.61819e-06
-3.09e-05
7.38755e-07
4.44672e-06
-2.81739e-05
1.84764e-05
-1.39018e-05
-3.15884e-05
-1.19423e-06
1.05251e-05
-2.82246e-05
9.46526e-06
-7.36337e-06
-3.0636e-05
4.07785e-06
-1.22307e-06
-2.90846e-05
-2.56263e-06
6.71277e-07
-2.70132e-05
1.21925e-07
-2.64748e-06
-2.67227e-05
-5.91405e-06
-6.31209e-07
-2.678e-05
-4.01405e-06
2.20633e-07
-2.34572e-05
-6.22476e-06
-2.97303e-06
-2.2941e-05
-6.16175e-06
-1.30629e-06
-2.24839e-05
-6.07044e-06
1.76998e-06
-2.05884e-05
-4.4622e-06
-4.62573e-06
-1.80532e-05
-5.8676e-06
-1.50449e-06
-1.93286e-05
-5.94262e-06
3.9524e-07
-1.87897e-05
-3.53208e-06
-2.2537e-06
-1.68994e-05
-3.85104e-06
-1.45973e-06
-1.68119e-05
-3.7809e-06
-1.85015e-06
-1.67164e-05
-2.54496e-06
-3.64975e-07
-1.59262e-05
-2.42432e-06
-1.14551e-06
-1.49622e-05
-2.11541e-06
-1.73799e-06
-1.48904e-05
6.38218e-07
-6.10095e-07
-1.36118e-05
-1.1517e-06
-7.18329e-07
-1.25232e-05
3.66003e-07
-9.75878e-07
-1.19423e-05
5.83226e-07
-2.54686e-07
-1.04592e-06
-6.80979e-05
0.000964563
-8.98371e-05
2.74542e-05
-1.80809e-05
-0.000189302
4.84032e-05
6.20331e-05
-3.35496e-05
-2.09671e-06
5.72385e-05
3.00199e-05
-6.40685e-05
3.57853e-05
2.63782e-05
-5.39114e-05
3.2414e-05
2.30642e-06
-6.04485e-05
3.24027e-05
9.13439e-06
-6.78593e-05
2.48936e-05
-5.41898e-06
-6.65934e-05
1.88029e-05
-3.46461e-05
-6.41055e-05
2.49782e-05
-1.75666e-05
-5.24044e-05
1.69893e-05
-2.8545e-05
-4.88436e-05
2.84502e-05
-1.51164e-05
-3.76348e-05
1.47815e-05
-2.52516e-05
-3.64863e-05
1.46279e-05
2.70006e-06
-3.54196e-05
2.04496e-06
-4.30584e-06
-3.22845e-05
9.55661e-06
-3.22647e-06
-3.50438e-05
3.99412e-06
2.84299e-06
-3.12372e-05
-8.33065e-08
-6.28591e-06
-3.05687e-05
-5.03818e-06
4.49167e-06
-2.99153e-05
-5.94068e-06
-6.26828e-07
-2.62372e-05
-5.55738e-06
-2.13472e-06
-2.55871e-05
-8.45479e-06
1.57992e-06
-2.2849e-05
-7.50515e-06
-1.39471e-06
-2.16751e-05
-4.78002e-06
-2.46431e-06
-2.08111e-05
-5.87402e-06
5.47748e-07
-1.82026e-05
-5.69351e-06
-2.78254e-06
-2.0158e-05
-4.39001e-06
4.02761e-07
-1.78275e-05
-4.15932e-06
-1.70325e-06
-1.63235e-05
-3.12795e-06
-2.22704e-06
-1.67076e-05
-3.61122e-06
2.14365e-07
-1.58513e-05
-2.08558e-06
-1.31566e-06
-1.48763e-05
-1.85983e-06
-1.53955e-06
-1.44752e-05
-1.51404e-06
-1.00245e-06
-1.39813e-05
4.72753e-07
-3.28418e-07
-1.26611e-05
-8.12295e-07
-1.65955e-06
-1.22698e-05
3.74999e-07
-4.0036e-07
8.61878e-07
-8.19465e-07
-2.24811e-05
0.000810944
3.4435e-05
6.19376e-05
3.76459e-05
-0.000140146
9.2554e-05
8.79686e-05
-5.6552e-05
8.7057e-05
0.000108488
-4.57522e-05
3.28798e-05
0.000107532
-1.75698e-05
7.15798e-06
7.05089e-05
-1.2373e-05
1.07859e-05
4.21912e-05
-1.34165e-05
5.63084e-06
5.16067e-05
-2.15581e-05
1.35047e-05
3.23528e-05
-2.14237e-05
1.09047e-05
4.54085e-05
-1.78303e-05
2.01583e-05
2.38825e-05
-1.61469e-05
2.18979e-05
3.242e-05
-5.70942e-06
-5.11797e-06
1.6163e-05
2.56344e-05
-2.57339e-05
1.62187e-05
1.90251e-05
-2.94072e-05
1.17721e-05
-6.05392e-06
-3.09245e-05
7.4896e-06
3.58431e-06
-2.96054e-05
4.23189e-06
-1.55687e-06
-3.04676e-05
2.60743e-06
-1.82852e-06
-3.06077e-05
-7.49898e-06
2.60086e-06
-2.67586e-05
-7.71511e-06
-2.07462e-06
-2.50157e-05
-8.17822e-06
8.77978e-07
-2.40162e-05
-9.93143e-06
4.77083e-07
-2.2987e-05
-8.70582e-06
1.71482e-07
-2.17968e-05
-5.302e-06
-6.68211e-07
-1.93912e-05
-5.58867e-06
-2.69096e-06
-1.95008e-05
-4.93949e-06
-6.444e-07
-1.96435e-05
-4.38352e-06
1.36182e-07
-1.74926e-05
-3.89635e-06
-2.41381e-06
-1.66908e-05
-2.62788e-06
-1.30187e-06
-1.67084e-05
-3.24828e-06
-3.45358e-07
-1.54844e-05
-1.76763e-06
-1.542e-06
-1.4536e-05
-1.80704e-06
-1.00112e-06
-1.46166e-05
-4.17636e-07
-1.01589e-06
-1.27901e-05
-6.74898e-07
-6.78788e-07
-1.26682e-05
2.12887e-07
-1.14714e-06
-1.1668e-05
2.23398e-07
-8.48572e-07
7.88816e-07
-5.68575e-07
7.008e-05
0.000502409
0.000128301
6.37447e-05
5.71155e-05
-1.31343e-05
6.85126e-05
9.30404e-05
-9.83966e-06
3.72241e-05
0.000105766
3.40104e-05
-6.42603e-06
9.75376e-05
5.36447e-05
-3.66016e-05
7.49071e-05
2.57774e-05
-4.07441e-05
3.67734e-05
9.56033e-06
-4.18975e-05
4.97487e-05
3.01137e-06
-4.05464e-05
3.24284e-05
-1.42667e-06
-4.10927e-05
3.93691e-05
6.5858e-06
-4.03401e-05
2.05235e-05
2.60638e-06
-4.30389e-05
2.78386e-05
7.2803e-06
-4.15152e-05
2.38501e-05
-9.21092e-06
-2.99362e-05
1.80285e-05
-1.33888e-05
-3.52801e-05
1.52091e-05
1.90686e-06
-3.53537e-05
8.71308e-06
-1.1498e-06
-3.07285e-05
3.68043e-06
-4.07382e-06
-3.28974e-05
3.61216e-06
1.16426e-06
-3.14033e-05
-8.30344e-06
-6.89663e-07
-2.57277e-05
-1.0779e-05
-2.61172e-06
-2.32041e-05
-1.24896e-05
1.78779e-06
-2.10634e-05
-1.21257e-05
5.34853e-08
-2.04895e-05
-1.04639e-05
1.18426e-06
-1.98445e-05
-7.40914e-06
1.46204e-06
-1.98126e-05
-3.99348e-06
-1.62704e-06
-1.87163e-05
-4.70155e-06
-1.33425e-06
-1.94188e-05
-4.22654e-06
5.45541e-07
-1.87151e-05
-2.97387e-06
-1.62614e-06
-1.59013e-05
-3.9538e-06
-1.48787e-06
-1.62773e-05
-1.6147e-06
-1.25766e-06
-1.62146e-05
-1.52409e-06
-3.06204e-07
-1.4561e-05
-2.05086e-06
-1.40979e-06
-1.41613e-05
2.96331e-07
-1.11365e-06
-1.3143e-05
-1.18214e-06
-5.11025e-07
-1.24673e-05
4.69079e-07
-9.31979e-07
-1.15344e-05
1.15318e-07
-8.24765e-07
2.85536e-07
-2.5742e-07
4.79228e-05
0.000308091
6.36652e-05
6.25637e-05
8.29526e-05
-4.04781e-05
8.76727e-05
0.000120244
-5.23122e-05
9.97709e-05
0.000135081
-4.14133e-05
8.94623e-05
0.000144437
-3.65903e-05
4.11222e-05
0.000123383
-1.35376e-07
3.90438e-06
7.97042e-05
-5.71293e-06
1.19994e-05
6.14283e-05
-1.97746e-05
2.17742e-05
4.88628e-05
-2.62092e-05
2.85864e-05
4.93361e-05
-1.67793e-05
2.86282e-05
3.76415e-05
-1.71599e-05
2.57129e-05
3.68971e-05
-6.14324e-06
1.144e-05
4.15348e-05
-3.41178e-06
-7.93389e-06
2.12484e-05
1.61541e-05
-2.11721e-05
1.72853e-05
1.1162e-05
-2.64199e-05
8.95012e-06
5.01084e-06
-2.88763e-05
-6.12814e-07
6.74957e-06
-2.72551e-05
-3.08754e-06
5.07851e-06
-2.52219e-05
-9.42718e-06
-9.09456e-07
-2.16314e-05
-1.44056e-05
3.61822e-08
-1.79526e-05
-1.34918e-05
-2.67656e-06
-1.41288e-05
-1.25267e-05
-3.42282e-06
-1.31497e-05
-1.25485e-05
1.10557e-06
-1.51459e-05
-7.3329e-06
1.91992e-06
-1.74503e-05
-3.69734e-06
2.00826e-06
-1.91947e-05
-1.85522e-06
-1.10186e-06
-1.77283e-05
-4.53098e-06
-1.16201e-06
-1.76456e-05
-5.16934e-06
2.11281e-06
-1.59656e-05
-2.30752e-06
-3.32628e-06
-1.5567e-05
-1.05732e-06
-9.55976e-07
-1.6128e-05
-1.268e-06
3.04821e-07
-1.48485e-05
-1.01059e-06
-2.31974e-06
-1.42191e-05
4.71554e-08
-3.80251e-07
-1.36005e-05
-4.77123e-07
-1.32357e-06
-1.28871e-05
2.66221e-07
-5.10575e-07
-1.21048e-05
1.47504e-07
-8.14498e-07
1.45476e-07
-5.24643e-07
7.23817e-06
0.000195944
2.99655e-05
2.20729e-05
6.71862e-05
9.31685e-07
3.29474e-05
9.51121e-05
1.4257e-05
5.53121e-05
0.000116599
-3.88255e-06
4.26953e-05
0.000131679
2.53748e-05
-1.02588e-05
0.000118228
5.81085e-05
-3.80136e-05
7.91445e-05
2.83145e-05
-3.0448e-05
4.59825e-05
7.88016e-06
-2.54457e-05
3.54425e-05
8.41795e-06
-1.97044e-05
3.38973e-05
9.69763e-06
-1.78677e-05
1.96033e-05
1.62014e-05
-1.61282e-05
2.43277e-05
1.083e-05
-1.81574e-05
2.75019e-05
1.60621e-05
-1.9976e-05
1.30018e-05
1.00651e-05
-1.46399e-05
1.17524e-05
1.96768e-07
-9.32547e-06
2.92078e-06
7.14962e-07
-9.9198e-06
-8.54676e-07
8.36192e-07
-1.57188e-05
6.34559e-06
-3.63415e-06
-2.38505e-05
-3.67742e-06
2.38194e-06
-2.1325e-05
-1.98245e-05
2.89334e-06
-1.30135e-05
-1.47242e-05
-7.07907e-06
-1.06295e-05
-9.62596e-06
-5.2848e-06
-6.07023e-06
-8.8908e-06
-8.21701e-06
-3.31904e-06
-7.47477e-06
-2.60932e-06
-7.49646e-06
-4.4451e-06
4.92518e-06
-1.40165e-05
5.96628e-07
4.06825e-06
-1.68392e-05
-1.98664e-06
2.78351e-07
-1.79195e-05
-5.63416e-06
1.54509e-06
-1.53654e-05
-4.0365e-06
-8.25161e-07
-1.46788e-05
6.0219e-07
-2.34611e-06
-1.64252e-05
-1.66765e-06
2.14613e-06
-1.4675e-05
-1.83962e-07
-2.57691e-06
-1.39808e-05
3.57502e-08
-6.8276e-07
-1.38237e-05
-3.18281e-07
-3.15924e-07
-1.27492e-05
3.10449e-07
-1.11878e-06
-1.2691e-05
-8.26452e-08
1.72013e-07
3.5549e-07
-1.1103e-06
3.37852e-05
0.0001508
2.25207e-05
7.84507e-05
2.94451e-05
8.81878e-05
6.4197e-05
8.18469e-05
0.000101251
9.46246e-05
0.000110791
0.000108688
9.35133e-05
9.64225e-05
8.34519e-05
5.60439e-05
8.45627e-05
3.43317e-05
8.34615e-05
3.49984e-05
6.25865e-05
4.04783e-05
5.3691e-05
3.32232e-05
6.05877e-05
2.06052e-05
5.66966e-05
1.68929e-05
5.91748e-05
9.27413e-06
5.46568e-05
7.43884e-06
4.64508e-05
7.35126e-06
5.72089e-05
-4.41249e-06
4.78833e-05
5.64821e-06
1.51151e-05
1.29437e-05
-5.06596e-07
8.97542e-07
-1.79034e-06
-8.34222e-06
-1.4712e-07
-1.0534e-05
1.3528e-06
-8.97469e-06
4.10492e-06
-7.19722e-06
8.92228e-06
-4.22074e-06
2.61803e-06
4.31761e-06
-1.07378e-05
7.72164e-06
-1.44501e-05
-3.24118e-07
-1.29472e-05
-9.00723e-07
-1.61508e-05
1.53587e-06
-1.40143e-05
-2.32043e-06
-1.30868e-05
-8.91721e-07
-1.41417e-05
7.3659e-07
-1.16263e-05
-2.20492e-06
-1.32745e-05
1.56548e-06
-1.57055e-06
-5.89372e-05
-0.000291241
0.000247991
0.000104493
-0.000511477
0.000632559
0.000251944
-0.000269203
0.000299174
0.000283896
-7.96128e-05
0.000211672
0.000237061
-1.84675e-05
0.000267559
0.000226598
-7.98024e-05
0.000186752
0.000199006
-2.85143e-05
0.000177388
0.000187145
-5.22684e-05
0.000142354
0.000219382
-4.90014e-05
5.75609e-05
0.000254214
-3.18082e-05
6.38062e-06
0.000232557
-8.25061e-06
2.99041e-05
0.000156374
2.87045e-05
8.56111e-05
7.70195e-05
4.08136e-05
0.000101538
3.15203e-05
2.68057e-05
5.95012e-05
1.25449e-05
9.93058e-06
2.65602e-05
4.47816e-06
2.55e-06
1.32755e-05
1.42727e-06
-5.86146e-07
7.50118e-06
1.72213e-07
-1.8631e-06
6.25338e-06
3.01376e-07
-2.49081e-06
4.22738e-06
1.12778e-06
-3.20035e-06
4.79822e-06
2.17351e-06
-3.07448e-06
4.57478e-06
3.56126e-06
-3.21418e-06
3.19937e-06
5.03904e-06
-3.21689e-06
2.47167e-06
6.57912e-06
-3.16185e-06
3.05728e-06
8.32185e-06
-3.38957e-06
3.35047e-06
1.03434e-05
-3.59892e-06
2.74473e-06
1.22288e-05
-3.82037e-06
3.44673e-06
1.37778e-05
-3.86401e-06
4.9994e-06
1.55953e-05
-3.85735e-06
5.14653e-06
1.75664e-05
-3.87615e-06
3.81971e-06
1.90162e-05
-3.87225e-06
4.11629e-06
2.0682e-05
-3.65255e-06
5.35295e-06
2.25913e-05
-2.50819e-06
2.89307e-06
2.28122e-05
-1.26871e-06
-2.25198e-07
2.2193e-05
-1.221e-06
8.08785e-07
2.31242e-05
-7.80021e-07
9.73843e-07
2.32546e-05
3.16664e-06
-3.8584e-06
6.44467e-06
-8.78966e-06
0.000276063
-0.000369064
-0.000844584
7.32447e-05
-0.000363512
-0.000600054
-0.000121142
-0.00014775
-0.000416376
-0.000149427
-2.88004e-05
-0.000268417
-0.000154765
9.32596e-05
-0.000146173
-0.00011356
-0.000110354
-0.00011954
-9.33666e-05
1.17561e-05
-9.44344e-05
-6.48482e-05
-4.52107e-05
-6.1631e-05
-5.33711e-05
-1.61077e-05
-0.000115408
-4.23608e-05
-5.40736e-06
-8.6994e-05
-3.91327e-05
-1.64111e-06
-6.47057e-05
-3.35317e-05
2.28594e-05
-1.69027e-05
-2.27444e-05
1.92992e-05
1.25941e-05
-1.80703e-05
1.56108e-05
1.19444e-05
-1.81662e-05
6.63776e-06
9.89373e-06
-2.03285e-05
1.94818e-06
5.39735e-06
-2.08276e-05
-1.41521e-06
2.81018e-06
-2.08378e-05
-2.76346e-06
1.80952e-06
-1.99873e-05
-3.67465e-06
-6.91575e-07
-1.86869e-05
-4.78703e-06
1.29447e-06
-1.70863e-05
-4.67884e-06
-7.96939e-07
-1.55997e-05
-5.07897e-06
-2.89045e-07
-1.37627e-05
-5.36126e-06
-1.7933e-07
-1.17341e-05
-5.15828e-06
4.53558e-08
-1.01334e-05
-5.42022e-06
2.56034e-07
-8.35144e-06
-5.71311e-06
-4.78064e-07
-6.66201e-06
-5.66992e-06
1.81484e-07
-5.04118e-06
-5.70576e-06
-6.00804e-07
-3.43858e-06
-5.50196e-06
-1.02561e-06
-1.87504e-06
-5.24936e-06
-1.40133e-06
-5.62125e-07
-4.70266e-06
-2.12098e-06
5.96306e-07
-3.78385e-06
-3.46414e-06
1.78228e-06
-2.46763e-06
-4.58237e-06
2.89931e-06
-9.04403e-07
-5.03679e-06
4.05902e-06
4.52865e-07
-6.91282e-06
5.91448e-06
1.68977e-06
-1.18736e-05
9.07255e-06
2.91613e-06
-1.36872e-05
-9.03387e-06
-0.000331952
0.00033383
-0.00021451
-0.000207249
-0.000144941
-4.5952e-05
-0.000109206
-7.5142e-05
-0.000113208
-0.00013895
-6.84993e-05
1.14368e-05
-0.000100571
-2.16791e-05
-9.68773e-05
-8.25113e-05
-6.642e-05
8.66639e-05
-5.47736e-05
-2.24285e-05
-5.3102e-05
-4.41922e-05
-2.74452e-05
3.05715e-05
-3.9031e-05
-1.37616e-05
-4.52061e-07
-4.16376e-05
-5.71081e-06
-1.52104e-05
-3.50315e-05
-2.90349e-06
1.56382e-05
-3.32288e-05
1.6217e-05
1.64852e-06
-2.74539e-05
1.3048e-05
9.55947e-06
-2.63537e-05
1.19692e-05
5.88261e-06
-2.55301e-05
3.63103e-06
-2.66671e-07
-2.59494e-05
3.57849e-06
2.68306e-06
-2.6426e-05
-1.40917e-06
-2.14929e-06
-2.58905e-05
-2.47798e-06
-3.9025e-07
-2.52343e-05
-3.54702e-06
-3.53156e-06
-2.36845e-05
-5.54001e-06
1.75829e-08
-2.26663e-05
-5.19066e-06
-2.59959e-06
-2.10726e-05
-5.63947e-06
-1.23485e-06
-1.93202e-05
-6.2991e-06
-1.53764e-06
-1.76847e-05
-5.75192e-06
-2.76452e-06
-1.62236e-05
-6.4038e-06
-1.82306e-06
-1.44218e-05
-6.50304e-06
-2.94139e-06
-1.28759e-05
-5.93445e-06
-1.88078e-06
-1.16182e-05
-5.92195e-06
-3.33461e-06
-1.01277e-05
-5.73692e-06
-3.23537e-06
-8.50509e-06
-5.22549e-06
-3.26032e-06
-7.21479e-06
-4.3726e-06
-4.13996e-06
-5.49652e-06
-3.75599e-06
-4.40775e-06
-3.49318e-06
-2.58319e-06
-4.48681e-06
-1.13494e-06
-1.42976e-06
-4.55221e-06
1.73539e-06
-7.82902e-07
-4.05239e-06
4.82202e-06
-3.26624e-07
-3.20878e-06
3.90694e-07
3.284e-08
-7.67633e-05
0.000414736
4.39679e-05
-9.9712e-05
2.16514e-05
-0.000143332
-8.92861e-05
-7.54109e-06
3.89669e-06
-4.88234e-05
-5.03373e-05
1.48582e-05
-5.12958e-05
-8.8397e-05
-6.30814e-05
-7.86943e-05
-2.48756e-06
-5.00902e-05
-6.3351e-05
-3.84302e-05
-2.32724e-05
-6.19212e-05
8.28389e-07
-3.25956e-05
-5.43782e-05
-1.43527e-05
-3.07704e-05
-5.24653e-05
1.95508e-06
-3.02866e-05
-5.04102e-05
5.38587e-06
-1.26487e-05
-4.00625e-05
6.75286e-06
-8.9855e-06
-3.47989e-05
9.641e-06
-3.43584e-06
-3.11258e-05
1.07606e-05
1.0088e-06
-2.98787e-05
1.06755e-06
-1.95934e-06
-2.96263e-05
5.95612e-06
-1.61091e-06
-2.92666e-05
-1.05155e-06
-2.21219e-06
-2.91105e-05
-1.32201e-06
-2.04552e-06
-2.83741e-05
-2.80688e-06
-3.06849e-06
-2.73243e-05
-5.06774e-06
-1.23244e-06
-2.6114e-05
-5.54279e-06
-2.53908e-06
-2.44485e-05
-5.44626e-06
-2.71945e-06
-2.30308e-05
-6.4725e-06
-9.15342e-07
-2.17404e-05
-6.3354e-06
-4.54996e-06
-1.97678e-05
-6.84524e-06
-7.74295e-07
-1.83158e-05
-6.47778e-06
-1.87872e-06
-1.69144e-05
-6.2211e-06
-1.53878e-06
-1.58144e-05
-6.1714e-06
-2.70674e-06
-1.4431e-05
-5.82716e-06
-1.31886e-06
-1.29995e-05
-5.1511e-06
-1.67456e-06
-1.23048e-05
-4.30532e-06
-2.63179e-06
-1.10299e-05
-4.08174e-06
-1.8328e-06
-9.79424e-06
-2.8986e-06
-7.13905e-07
-9.06747e-06
-1.58388e-06
-1.09127e-06
-8.49871e-06
-1.06434e-06
1.29325e-06
-8.15437e-06
-2.62724e-07
2.45802e-06
2.86218e-07
3.2324e-06
-6.00234e-05
0.000403306
-9.88381e-06
-8.00949e-06
-3.43373e-05
-0.000181025
-3.52736e-06
3.43824e-06
-1.81471e-05
-2.63496e-06
-2.01027e-05
-0.000121573
-2.3824e-05
-2.16132e-05
1.03762e-05
-3.77736e-05
1.60987e-06
-4.76033e-05
-4.6054e-05
-5.14905e-07
-3.12973e-05
-4.62817e-05
-1.71585e-06
-2.13275e-05
-4.13163e-05
-8.15641e-06
-1.03104e-05
-4.30876e-05
6.66987e-06
-1.83055e-05
-4.16942e-05
5.30554e-06
-1.31084e-05
-3.79209e-05
9.77506e-06
-3.88849e-06
-3.5665e-05
8.63034e-06
-8.49104e-06
-3.34275e-05
9.07295e-06
-5.86424e-06
-3.21669e-05
4.44332e-06
-6.1697e-07
-3.15037e-05
4.9454e-06
-5.93311e-06
-3.12385e-05
9.34442e-07
-3.26876e-06
-3.02286e-05
6.49502e-08
-8.17751e-07
-2.9816e-05
-3.19384e-06
-6.41949e-06
-2.84564e-05
-3.79211e-06
-4.81077e-07
-2.70911e-05
-5.39671e-06
-2.63979e-06
-2.62098e-05
-5.97554e-06
-5.79687e-06
-2.44719e-05
-5.90388e-06
-1.75888e-06
-2.34261e-05
-6.12343e-06
-3.85448e-06
-2.24393e-05
-5.74848e-06
-2.38255e-06
-2.15197e-05
-5.74342e-06
-3.36532e-06
-2.05965e-05
-6.3575e-06
-4.08449e-06
-1.99426e-05
-5.14211e-06
-2.52196e-06
-1.91486e-05
-4.66162e-06
-2.2634e-06
-1.83519e-05
-4.86644e-06
-3.83275e-06
-1.77636e-05
-3.9174e-06
-2.72473e-06
-1.67262e-05
-3.34283e-06
-6.90377e-07
-1.56977e-05
-2.70375e-06
-2.39984e-06
-1.50091e-05
-1.38742e-06
-1.5176e-06
-1.38387e-05
-1.04136e-06
4.19026e-07
-1.27781e-05
-3.70288e-07
-9.43507e-07
-1.19703e-05
1.70137e-07
3.43142e-07
1.29469e-07
-1.89937e-07
-3.1519e-05
0.00034517
-5.50476e-05
-1.02806e-05
-2.77688e-05
-0.000172795
-3.38382e-06
1.95472e-05
-5.51409e-05
-2.62504e-07
7.5058e-06
-3.85639e-05
-1.08702e-05
-5.53995e-06
5.78246e-07
-1.51565e-05
8.81934e-06
-1.39856e-05
-2.57243e-05
3.21613e-05
5.61253e-06
-3.90706e-05
1.14278e-05
2.9187e-05
-3.73871e-05
6.96276e-06
5.10175e-06
-3.69493e-05
1.18167e-05
-5.28636e-06
-3.86623e-05
1.07083e-05
-9.88734e-06
-3.68107e-05
1.13079e-05
-7.66189e-07
-3.51421e-05
9.95733e-06
1.45111e-06
-3.36072e-05
5.11727e-06
-1.1481e-05
-3.20807e-05
9.14206e-06
4.29988e-06
-3.14393e-05
3.35995e-06
-6.41927e-06
-3.17656e-05
3.16422e-06
-3.12659e-06
-3.05819e-05
3.45008e-07
-7.92506e-07
-2.9577e-05
-3.52132e-06
-3.32481e-06
-2.86448e-05
-3.45295e-06
-1.9026e-06
-2.712e-05
-5.29169e-06
-1.40921e-06
-2.55909e-05
-6.69538e-06
-3.78228e-06
-2.41682e-05
-5.99072e-06
-2.64219e-06
-2.22724e-05
-5.3221e-06
-9.27139e-07
-2.18852e-05
-5.72426e-06
-5.03713e-06
-2.05631e-05
-5.51418e-06
-3.05584e-06
-1.97283e-05
-5.45395e-06
-1.34306e-06
-1.92502e-05
-4.25006e-06
-3.62391e-06
-1.84612e-05
-4.07606e-06
-2.83431e-06
-1.80547e-05
-4.09887e-06
-3.02413e-06
-1.73129e-05
-3.01927e-06
-2.00501e-06
-1.66319e-05
-2.61752e-06
-2.55174e-06
-1.61192e-05
-2.10969e-06
-2.84475e-06
-1.53284e-05
-1.00668e-06
-1.78169e-06
-1.42358e-05
-9.70554e-07
-1.88177e-06
-1.33544e-05
-4.15358e-07
-1.81212e-06
-1.23849e-05
4.08811e-08
-1.09495e-06
-1.74676e-06
-2.52902e-06
0.000246718
-2.41769e-05
-9.55866e-06
-4.08641e-05
-0.000169177
-8.76059e-07
3.74422e-06
-2.64293e-05
-5.47685e-06
1.60857e-05
2.60408e-05
-3.66078e-05
1.10654e-05
4.09038e-05
-2.63786e-05
4.07323e-06
-3.1767e-06
-1.7895e-05
2.3833e-05
8.97904e-06
-3.0617e-05
1.79287e-05
8.02179e-07
-3.79083e-05
1.10691e-05
-3.14612e-05
-4.09375e-05
1.57968e-05
-1.85176e-05
-4.24621e-05
1.13469e-05
-2.7659e-05
-3.94354e-05
1.36253e-05
-2.04606e-05
-4.22319e-05
9.47987e-06
-2.19777e-05
-3.86673e-05
9.21514e-06
-4.96238e-06
-3.52846e-05
7.22359e-06
-5.77002e-06
-3.6086e-05
5.74046e-06
-4.80561e-06
-3.38588e-05
3.95262e-06
-1.72608e-07
-3.45292e-05
2.67699e-07
-5.53822e-06
-3.17369e-05
-3.7969e-06
1.97496e-06
-2.99224e-05
-4.68623e-06
-1.2081e-06
-2.84026e-05
-6.94814e-06
-1.99802e-06
-2.59408e-05
-7.05011e-06
-5.27186e-07
-2.44807e-05
-6.88757e-06
-1.95795e-06
-2.33013e-05
-5.45459e-06
-3.51115e-06
-2.17069e-05
-5.31546e-06
-1.45547e-06
-2.06881e-05
-5.58252e-06
-3.73307e-06
-2.01443e-05
-4.56729e-06
-1.02763e-06
-1.89894e-05
-4.127e-06
-2.98128e-06
-1.82895e-05
-3.94395e-06
-3.05905e-06
-1.75739e-05
-3.11996e-06
-1.4801e-06
-1.68853e-05
-2.65896e-06
-2.36462e-06
-1.6152e-05
-2.35206e-06
-2.5383e-06
-1.55754e-05
-1.56029e-06
-2.12844e-06
-1.46117e-05
-8.62633e-07
-1.43618e-06
-1.38538e-05
-9.37456e-07
-2.45048e-06
-1.30927e-05
-2.2662e-07
-1.35024e-06
-8.84403e-08
-1.51604e-06
4.00227e-05
0.000131138
7.78759e-05
2.53964e-05
-6.91028e-05
-9.72805e-05
2.80207e-05
2.58989e-06
-5.80219e-05
2.00898e-05
3.28035e-05
-5.45391e-05
-4.29567e-06
4.09153e-05
-2.30343e-05
-1.77825e-05
1.50548e-05
-9.86781e-06
-1.8445e-05
9.58933e-06
1.48969e-06
-2.17558e-05
1.3576e-05
-1.38946e-05
-1.8948e-05
2.57285e-06
-1.57352e-05
-1.82719e-05
1.8287e-05
-2.09966e-05
-1.79037e-05
8.41416e-06
-1.35823e-05
-2.44235e-05
1.53941e-05
-9.58529e-07
-2.52786e-05
1.08872e-05
2.50821e-05
-2.71735e-05
1.87656e-05
1.13697e-05
-3.28936e-05
9.40135e-06
-2.5116e-06
-3.2468e-05
8.12127e-06
7.77844e-07
-3.38775e-05
4.97872e-06
-1.17344e-06
-3.35287e-05
-2.73586e-07
-1.63601e-06
-3.15681e-05
-4.55891e-06
1.40222e-06
-2.91928e-05
-6.80185e-06
-2.33427e-06
-2.75614e-05
-8.46631e-06
7.64695e-07
-2.55282e-05
-8.00383e-06
-6.02339e-07
-2.39861e-05
-7.49044e-06
-7.67737e-07
-2.24048e-05
-5.83303e-06
-1.87113e-06
-2.15775e-05
-4.99678e-06
-3.83685e-06
-2.05757e-05
-4.97391e-06
-2.25487e-06
-1.98187e-05
-4.22266e-06
-9.65422e-07
-1.87971e-05
-4.0637e-06
-3.49874e-06
-1.79779e-05
-3.46004e-06
-2.605e-06
-1.7412e-05
-2.36304e-06
-1.66817e-06
-1.66797e-05
-2.42564e-06
-2.50761e-06
-1.58549e-05
-1.99575e-06
-2.18216e-06
-1.53795e-05
-1.0014e-06
-2.05026e-06
-1.42805e-05
-9.31615e-07
-1.7088e-06
-1.36702e-05
-6.33529e-07
-2.06137e-06
-1.28978e-05
-1.54802e-07
-1.69274e-06
-1.09997e-07
-1.39242e-06
3.03297e-05
9.04855e-05
9.46601e-05
2.20456e-05
-3.60952e-05
-3.78577e-05
2.23935e-05
1.91763e-05
-2.6774e-05
7.70333e-06
5.93018e-05
2.22022e-05
-2.251e-05
6.37043e-05
6.10691e-05
-5.2885e-05
3.6444e-05
3.47632e-05
-4.6348e-05
1.66873e-05
-4.0746e-06
-3.99799e-05
1.44481e-05
-4.22883e-06
-3.99874e-05
1.33834e-05
-1.22297e-05
-3.88523e-05
2.08587e-05
2.87902e-06
-3.8552e-05
1.48235e-05
-4.10335e-06
-3.85807e-05
2.12243e-05
1.47891e-06
-3.62209e-05
1.57926e-05
-1.64762e-05
-3.51971e-05
1.46428e-05
-1.02897e-05
-3.71843e-05
1.39911e-05
-6.95738e-07
-3.51282e-05
8.64878e-06
-3.73335e-06
-3.42552e-05
4.54562e-06
-4.51376e-06
-3.56377e-05
1.35915e-06
9.14087e-07
-3.38833e-05
-6.20086e-06
-8.02169e-07
-2.9401e-05
-1.17248e-05
-2.17105e-06
-2.64773e-05
-1.09058e-05
1.30352e-06
-2.3974e-05
-1.03477e-05
-1.05936e-07
-2.25919e-05
-8.41394e-06
7.2566e-07
-2.16441e-05
-5.2731e-06
-4.57453e-08
-2.11416e-05
-4.00078e-06
-3.12553e-06
-2.01172e-05
-4.49596e-06
-2.83656e-06
-1.9762e-05
-3.30907e-06
-7.23214e-07
-1.89982e-05
-3.97612e-06
-2.4776e-06
-1.75025e-05
-3.47504e-06
-2.96852e-06
-1.74249e-05
-1.46323e-06
-2.23504e-06
-1.6634e-05
-2.04738e-06
-1.47544e-06
-1.56352e-05
-1.8336e-06
-2.5707e-06
-1.5249e-05
-5.69456e-07
-1.93177e-06
-1.42307e-05
-8.90252e-07
-1.57077e-06
-1.35439e-05
-4.25051e-07
-1.82721e-06
-1.28714e-05
-1.32788e-07
-1.51924e-06
-1.6521e-07
-1.0987e-06
3.35015e-05
4.37027e-05
3.40534e-05
5.14437e-05
-4.73781e-05
-4.71374e-05
5.63661e-05
9.29667e-06
-4.7355e-05
4.909e-05
7.42553e-05
-4.90906e-05
2.20508e-05
0.000100016
-4.5863e-05
-1.09315e-05
7.81541e-05
-8.86313e-06
-1.80007e-05
3.00544e-05
-1.20108e-05
-1.4921e-05
1.16146e-05
-2.00208e-05
-1.86393e-05
1.74895e-05
-2.6597e-05
-2.09471e-05