/*--------------------------------*- C++ -*----------------------------------*\
| =========                 |                                                 |
| \\      /  F ield         | OpenFOAM: The Open Source CFD Toolbox           |
|  \\    /   O peration     | Version:  2.3.1                                 |
|   \\  /    A nd           | Web:      www.OpenFOAM.org                      |
|    \\/     M anipulation  |                                                 |
\*---------------------------------------------------------------------------*/
FoamFile
{
    version     2.0;
    format      ascii;
    class       volScalarField;
    location    "20";
    object      Sed;
}
// * * * * * * * * * * * * * * * * * * * * * * * * * * * * * * * * * * * * * //

dimensions      [0 0 0 0 0 0 0];

internalField   nonuniform List<scalar> 
37632
(
5.32841e-151
3.11533e-151
1.69128e-151
1.2292e-151
7.65392e-152
4.49494e-152
2.0476e-152
1.10223e-152
6.76459e-153
5.20305e-153
4.86523e-153
3.61505e-153
1.09693e-153
1.27264e-154
4.45338e-156
4.84573e-158
1.89221e-160
4.62206e-163
8.44814e-164
7.82586e-164
6.94449e-164
5.75853e-164
5.05406e-164
4.21343e-164
3.21658e-164
2.32231e-164
1.61625e-164
1.06014e-164
6.32291e-165
3.6447e-165
2.17575e-165
1.28942e-165
7.67644e-166
5.04617e-166
3.61482e-166
2.404e-166
1.33909e-166
6.2411e-167
1.10067e-151
1.53068e-152
4.78514e-153
2.76489e-153
1.24511e-153
9.67686e-154
4.37538e-154
3.88862e-154
3.83397e-154
2.47314e-154
2.79499e-154
2.88273e-154
8.49298e-155
5.897e-156
6.36219e-158
1.68559e-160
1.475e-163
8.47164e-165
7.61745e-165
5.49657e-165
4.87402e-165
4.13212e-165
3.38171e-165
2.09666e-165
1.53067e-165
1.06956e-165
6.43238e-166
4.14234e-166
2.49413e-166
1.48699e-166
9.4769e-167
6.22754e-167
4.30315e-167
3.27636e-167
2.79617e-167
2.41902e-167
2.33922e-167
1.88267e-167
7.31391e-152
4.49412e-153
1.51828e-153
4.26983e-154
1.74072e-154
1.32505e-154
1.84366e-155
1.36007e-155
4.28467e-155
4.96247e-156
9.68571e-156
1.07261e-155
1.53945e-156
6.77534e-158
2.67742e-160
2.5445e-163
7.339e-166
5.33474e-166
4.76951e-166
2.81017e-166
2.64568e-166
1.82867e-166
1.52949e-166
8.77655e-167
6.35647e-167
4.60146e-167
2.4603e-167
1.81627e-167
1.17483e-167
7.30462e-168
5.57172e-168
4.32056e-168
3.78562e-168
4.64113e-168
6.15358e-168
7.17355e-168
7.39314e-168
5.02489e-152
2.06701e-153
5.14058e-154
1.63387e-154
4.29697e-155
1.06838e-155
5.42865e-157
2.19971e-157
3.46389e-157
5.38839e-158
4.33438e-158
2.8894e-157
1.36135e-158
4.113e-160
1.06372e-162
4.40044e-166
3.6566e-167
2.57123e-167
1.73183e-167
9.09139e-168
7.98772e-168
4.28417e-168
3.30467e-168
2.77368e-168
1.22319e-168
9.36343e-169
5.41416e-169
4.63815e-169
3.08015e-169
2.26053e-169
2.62148e-169
3.1048e-169
4.44879e-169
8.70335e-169
1.2471e-168
1.30364e-168
1.01291e-168
3.67622e-152
3.25046e-153
8.73797e-154
6.21472e-154
6.63397e-154
5.2878e-155
2.91944e-156
2.81706e-157
6.18277e-159
2.02838e-159
4.59781e-160
5.52627e-159
1.03677e-160
4.13129e-163
4.69953e-165
4.2641e-167
3.57051e-167
2.53979e-167
1.22908e-167
4.03546e-168
3.61238e-169
1.8725e-169
8.07902e-170
6.97235e-170
2.358e-170
1.87415e-170
1.26459e-170
1.00259e-170
9.80977e-171
1.0952e-170
2.02006e-170
3.18779e-170
4.69378e-170
8.20162e-170
9.23974e-170
7.16167e-170
4.23001e-170
1.02459e-170
3.08893e-152
2.74296e-153
1.16742e-153
1.11326e-153
1.31234e-153
1.10965e-153
3.48785e-154
3.65776e-155
2.15184e-157
9.43463e-160
1.86409e-161
9.47695e-161
6.6913e-163
2.4314e-165
3.47989e-166
4.73491e-166
6.58629e-166
1.2326e-165
5.48324e-166
1.48205e-166
2.91294e-168
1.57565e-169
7.11326e-171
1.54864e-171
1.1362e-171
5.2442e-172
3.26167e-172
3.76411e-172
4.69899e-172
5.624e-172
9.68565e-172
1.24926e-171
1.92608e-171
2.67454e-171
1.4919e-171
1.36452e-171
6.66828e-172
1.07679e-172
2.84261e-152
2.84485e-153
1.59868e-153
1.68591e-153
8.36555e-154
3.02465e-154
6.73275e-155
3.84957e-156
6.72125e-158
6.348e-159
8.42375e-160
1.03437e-160
1.04012e-161
3.56791e-164
6.40011e-165
7.65677e-165
1.26283e-164
4.24763e-164
9.28868e-164
6.27148e-165
1.2833e-166
3.0546e-168
5.48762e-170
1.24167e-171
4.97061e-173
2.16093e-173
1.19109e-173
1.5495e-173
2.08273e-173
2.42521e-173
3.25663e-173
3.94764e-173
6.80317e-173
9.62789e-173
1.87352e-173
1.81805e-173
7.0158e-174
2.42874e-152
4.14388e-153
2.0387e-153
1.83379e-153
1.4964e-153
5.43524e-154
1.07419e-154
2.55446e-155
5.35611e-156
1.12366e-156
1.83304e-157
3.32033e-158
4.53783e-159
1.06494e-161
1.96108e-163
2.30727e-163
4.0532e-163
1.14412e-162
3.30204e-162
2.78738e-163
5.77748e-165
8.99125e-167
8.95648e-169
8.17978e-171
1.75255e-172
2.77385e-174
4.67909e-175
6.13175e-175
7.09884e-175
7.36397e-175
8.61376e-175
9.86197e-175
1.79312e-174
2.3652e-174
2.20244e-175
1.97927e-175
9.87023e-176
1.46263e-152
4.20934e-153
2.4394e-153
2.29162e-153
1.98181e-153
4.82386e-154
7.0981e-155
1.4227e-155
2.39803e-156
5.02812e-157
6.15696e-158
9.7163e-159
6.06993e-160
2.10442e-161
6.62329e-162
8.97453e-162
1.48141e-161
3.04479e-161
7.72468e-161
9.96651e-162
2.3836e-163
2.46933e-165
1.99877e-167
9.1044e-170
7.56963e-172
8.32556e-174
8.02081e-176
2.07652e-176
1.84478e-176
1.78948e-176
1.55335e-176
1.49632e-176
1.96914e-176
1.83148e-176
3.21912e-177
1.7186e-177
1.18185e-177
8.32324e-153
4.83189e-153
2.98427e-153
2.36048e-153
2.09788e-153
1.30722e-153
2.78327e-154
2.62842e-155
1.35314e-155
6.53916e-156
2.61693e-156
5.84027e-157
6.26254e-158
4.02414e-159
6.38174e-160
5.18991e-160
6.01958e-160
7.50103e-160
1.31997e-159
2.64637e-160
7.00083e-162
5.38605e-164
4.46481e-166
1.84564e-168
5.61339e-171
2.1306e-173
7.74711e-175
3.88315e-176
6.35521e-178
3.9017e-178
2.42138e-178
2.3985e-178
2.88412e-178
1.22604e-178
4.59962e-179
1.23699e-179
6.07651e-180
7.40252e-153
5.3215e-153
3.01359e-153
2.39138e-153
2.21421e-153
1.55561e-153
3.50337e-154
8.68958e-155
3.67172e-155
1.30588e-155
3.91013e-156
7.56747e-157
1.94522e-157
1.27212e-157
6.70096e-158
4.06039e-158
1.95744e-158
9.12614e-159
1.53987e-158
4.98286e-159
1.74619e-160
8.07346e-163
7.20157e-165
3.51639e-167
1.50205e-169
3.51721e-172
3.76329e-173
1.70303e-174
3.15074e-177
1.05681e-179
2.8202e-180
3.14817e-180
2.13251e-180
8.92484e-181
5.13042e-181
7.90237e-182
2.53564e-182
7.09152e-153
6.01382e-153
3.7181e-153
2.94024e-153
2.85689e-153
2.70494e-153
2.29971e-153
1.89801e-153
1.28038e-153
7.26012e-154
3.34604e-154
9.14317e-155
2.22336e-155
8.99377e-156
4.28631e-156
2.19437e-156
9.06577e-157
3.37355e-157
1.4008e-157
3.48821e-158
1.98298e-159
5.36692e-162
3.16517e-164
1.5879e-166
1.76163e-168
4.36979e-170
2.19062e-171
3.51447e-173
3.97308e-176
3.68042e-179
5.935e-182
2.59683e-182
1.38359e-182
5.73125e-183
5.42931e-183
2.9606e-184
1.30175e-184
1.79713e-151
1.53055e-151
1.00113e-151
9.16643e-152
6.65095e-152
3.11025e-152
1.75369e-152
9.63737e-153
6.62286e-153
5.84847e-153
4.90208e-153
2.63662e-153
6.35638e-154
5.13196e-155
1.24698e-156
1.02423e-158
3.09195e-161
1.16206e-163
7.18152e-164
6.6398e-164
5.86888e-164
4.83423e-164
3.92146e-164
3.14749e-164
2.31871e-164
1.58897e-164
1.08948e-164
7.31809e-165
4.49568e-165
2.58519e-165
1.51727e-165
9.31907e-166
5.72519e-166
3.44398e-166
2.12145e-166
1.34988e-166
6.87673e-167
2.5613e-167
1.36679e-151
2.18393e-152
4.52117e-153
3.78945e-153
2.7445e-153
1.02083e-153
1.00366e-153
6.36501e-154
5.82146e-154
5.26948e-154
3.84249e-154
2.69527e-154
4.9448e-155
2.04731e-156
1.93106e-158
6.79888e-161
1.54048e-163
1.29643e-164
1.18132e-164
9.26145e-165
8.15617e-165
6.35063e-165
4.70853e-165
3.4594e-165
2.31282e-165
1.53511e-165
9.92564e-166
6.32157e-166
3.80287e-166
2.22871e-166
1.3444e-166
8.47126e-167
5.44673e-167
3.47966e-167
2.26028e-167
1.68209e-167
1.41088e-167
7.43161e-168
5.55269e-152
3.94758e-153
6.06568e-154
3.1134e-154
3.95194e-154
6.38443e-155
4.72284e-155
2.47865e-155
3.3589e-155
2.10727e-155
9.04004e-156
9.149e-156
8.57399e-157
2.27716e-158
1.11792e-160
2.41554e-163
2.14758e-165
1.48708e-165
1.31776e-165
9.09346e-166
8.0606e-166
5.48991e-166
3.77143e-166
2.87476e-166
1.69933e-166
1.15436e-166
7.19882e-167
4.67401e-167
2.81219e-167
1.72984e-167
1.12629e-167
7.52116e-168
5.24866e-168
4.05035e-168
3.59889e-168
3.49311e-168
3.13836e-168
4.49776e-152
4.13772e-153
3.51705e-154
1.44147e-154
8.68018e-155
5.04962e-156
1.47573e-156
6.7733e-157
6.32223e-157
3.14829e-157
8.54267e-158
1.75508e-157
8.69942e-159
1.77113e-160
4.66562e-163
1.25011e-165
1.74888e-166
1.21758e-166
9.01398e-167
4.88521e-167
3.7972e-167
2.41057e-167
1.57698e-167
1.2519e-167
6.20198e-168
4.31902e-168
2.66529e-168
1.84523e-168
1.0969e-168
7.67811e-169
5.74678e-169
4.41567e-169
4.00464e-169
4.18476e-169
4.59931e-169
4.21651e-169
2.73198e-169
3.42599e-152
4.37475e-153
1.0465e-153
2.60984e-154
4.66563e-154
2.22071e-155
3.80503e-156
3.31595e-157
2.39623e-158
6.68705e-159
1.52315e-159
1.57431e-159
6.76514e-161
1.28028e-162
2.23479e-165
2.62051e-166
2.37005e-166
1.55216e-166
1.37207e-166
1.90138e-167
4.06271e-168
1.39387e-168
6.31532e-169
4.33888e-169
1.98908e-169
1.30816e-169
7.86569e-170
4.65712e-170
2.96061e-170
2.28566e-170
1.89304e-170
1.74428e-170
1.80158e-170
2.13418e-170
2.2254e-170
1.29525e-170
7.78246e-171
2.33626e-171
2.43928e-152
2.96423e-153
8.30179e-154
8.26817e-154
6.76549e-154
2.26209e-154
1.12035e-154
1.0927e-155
1.46062e-157
2.09404e-159
4.95966e-161
1.72758e-161
5.63865e-163
1.23916e-164
1.6322e-165
2.92183e-165
3.2628e-165
3.50886e-165
3.74958e-165
4.77173e-166
4.51985e-167
2.99881e-168
1.4758e-169
2.048e-170
9.25168e-171
4.90857e-171
2.57536e-171
1.61733e-171
1.0399e-171
8.08046e-172
7.10739e-172
6.81571e-172
7.20446e-172
7.82299e-172
5.73467e-172
3.067e-172
1.51933e-172
3.60454e-173
1.74955e-152
3.11613e-153
1.05615e-153
1.29168e-153
7.17595e-154
1.07769e-154
3.9996e-155
2.54473e-156
7.20999e-158
3.38355e-159
2.05513e-160
1.66292e-161
4.71801e-162
7.77515e-164
3.39827e-164
4.60224e-164
6.30467e-164
9.5652e-164
1.20038e-163
1.84163e-164
1.23588e-165
4.57032e-167
1.40182e-168
3.97539e-170
1.23197e-171
2.34547e-172
1.03153e-172
6.82119e-173
4.57491e-173
3.5136e-173
3.13733e-173
2.92403e-173
2.96555e-173
2.88592e-173
1.30445e-173
6.27447e-174
2.4818e-174
1.29636e-152
4.11428e-153
1.33515e-153
1.09015e-153
8.64595e-154
1.53246e-154
2.81783e-155
4.00146e-156
6.58983e-157
9.68643e-158
1.10986e-158
1.36291e-159
8.63503e-160
4.49658e-162
1.17919e-162
1.10913e-162
1.65827e-162
2.64085e-162
4.09108e-162
7.70406e-163
3.63322e-164
9.70089e-166
1.77739e-167
3.27727e-169
6.71106e-171
1.14374e-172
6.10309e-174
3.18049e-174
2.12063e-174
1.61458e-174
1.35507e-174
1.11748e-174
1.04951e-174
8.5921e-175
2.77927e-175
1.12651e-175
3.76216e-176
1.06729e-152
4.56206e-153
1.75838e-153
1.5917e-153
1.38424e-153
2.4534e-154
2.2941e-155
2.41112e-156
3.0924e-157
7.22289e-158
6.23324e-159
1.13202e-159
3.41054e-160
1.23321e-160
7.57233e-161
5.98563e-161
5.02024e-161
6.28251e-161
1.15018e-160
2.62433e-161
1.1132e-162
2.3771e-164
2.78224e-166
2.42513e-168
3.29854e-170
4.43971e-172
4.81217e-174
1.99407e-175
9.6804e-176
7.51101e-176
5.05727e-176
3.7082e-176
3.04272e-176
1.99519e-176
5.61319e-177
1.91291e-177
5.50109e-178
1.0629e-152
6.92317e-153
3.24871e-153
1.60907e-153
1.15938e-153
5.10929e-154
1.03182e-154
1.79411e-155
4.55535e-156
1.02783e-156
2.4225e-157
4.66562e-158
1.68686e-158
1.01296e-158
6.54927e-159
4.37239e-159
2.18696e-159
1.59867e-159
2.19789e-159
5.79612e-160
2.91086e-161
5.29966e-163
5.71621e-165
3.04563e-167
1.34673e-169
9.55936e-172
6.91806e-174
4.58288e-176
4.8182e-177
2.86688e-177
1.52044e-177
1.09971e-177
7.2393e-178
3.97191e-178
1.01928e-178
2.95353e-179
7.32841e-180
1.30421e-152
8.17375e-153
3.59479e-153
1.71921e-153
1.44152e-153
1.05383e-153
3.54295e-154
1.41926e-154
5.73753e-155
2.09943e-155
7.19984e-156
1.93128e-156
6.84359e-157
4.43239e-157
2.67287e-157
1.57555e-157
7.36007e-158
2.74073e-158
2.54489e-158
9.17564e-159
6.07098e-160
7.98727e-162
9.37026e-164
5.19446e-166
1.88495e-168
6.34595e-171
2.49845e-173
1.96188e-175
8.75473e-178
7.61563e-179
2.79983e-179
2.62101e-179
1.17364e-179
5.72917e-180
1.42441e-180
3.40821e-181
7.99988e-182
8.4033e-153
6.75632e-153
4.16628e-153
2.94119e-153
2.74797e-153
2.69805e-153
2.53477e-153
2.28117e-153
1.56002e-153
8.80824e-154
4.15706e-154
1.28979e-154
3.441e-155
1.22909e-155
5.81926e-156
3.02103e-156
1.38132e-156
6.02219e-157
2.37918e-157
6.0726e-158
5.55959e-159
4.85159e-161
4.31781e-163
1.9233e-165
6.93298e-168
2.29519e-170
1.66587e-172
3.12382e-174
6.63473e-177
1.26016e-179
3.36477e-181
3.12273e-181
1.14388e-181
4.40103e-182
1.48895e-182
2.14899e-183
5.40393e-184
1.16226e-151
1.18411e-151
5.98072e-152
4.67748e-152
3.88486e-152
2.02577e-152
1.2866e-152
8.76886e-153
7.19498e-153
5.65985e-153
3.42023e-153
1.19187e-153
1.85622e-154
9.19605e-156
1.49687e-157
9.09128e-160
2.14359e-162
7.48874e-164
6.92125e-164
6.34167e-164
5.4894e-164
4.57455e-164
3.58314e-164
2.73002e-164
1.91725e-164
1.27474e-164
8.40242e-165
5.47453e-165
3.36786e-165
1.9617e-165
1.13878e-165
6.98138e-166
4.33447e-166
2.47364e-166
1.41953e-166
8.24764e-167
3.50324e-167
1.0235e-167
6.33967e-152
8.20422e-153
2.15379e-153
1.71971e-153
1.92707e-153
9.25112e-154
9.35317e-154
8.08666e-154
6.26846e-154
5.76747e-154
3.12494e-154
1.03257e-154
1.23019e-155
3.15307e-157
2.4372e-159
9.23529e-162
4.22063e-164
1.55193e-164
1.40001e-164
1.13647e-164
9.47537e-165
7.3542e-165
5.19827e-165
3.78149e-165
2.42295e-165
1.55997e-165
9.86296e-166
6.15801e-166
3.67664e-166
2.12174e-166
1.24163e-166
7.61576e-167
4.60998e-167
2.60817e-167
1.57816e-167
1.26211e-167
7.2584e-168
2.36586e-168
4.19377e-152
6.20446e-153
7.66287e-154
1.45565e-154
1.27783e-154
3.53697e-155
3.03831e-155
2.82303e-155
1.705e-155
1.56222e-155
5.50736e-156
2.68292e-156
1.92986e-157
3.42111e-159
1.59936e-161
5.11756e-164
2.87761e-165
2.27339e-165
1.95938e-165
1.36848e-165
1.11121e-165
7.89174e-166
5.07533e-166
3.75745e-166
2.14345e-166
1.40368e-166
8.61699e-167
5.3293e-167
3.13549e-167
1.86114e-167
1.14163e-167
7.08857e-168
4.32456e-168
2.76703e-168
2.07149e-168
1.7382e-168
1.06694e-168
4.10743e-152
6.33363e-153
3.79293e-154
5.05679e-155
2.09883e-155
2.47643e-156
9.17084e-157
5.32146e-157
2.35134e-157
1.99881e-157
6.72425e-158
4.20519e-158
2.03861e-159
2.87667e-161
1.05502e-163
8.63191e-166
4.02594e-166
2.86707e-166
1.9736e-166
1.0932e-166
7.29015e-167
4.86447e-167
2.87504e-167
2.0786e-167
1.07603e-167
6.98362e-168
4.16474e-168
2.57805e-168
1.48716e-168
9.46003e-169
6.08774e-169
3.90445e-169
2.74158e-169
2.10102e-169
1.77781e-169
1.3e-169
6.46292e-170
2.95656e-152
4.40957e-153
6.78163e-154
8.12742e-155
1.2119e-154
7.8139e-156
1.48101e-156
1.50508e-157
9.26931e-159
3.1552e-159
9.78396e-160
3.66081e-160
1.76184e-161
2.52242e-163
1.70363e-165
7.81305e-166
8.2212e-166
6.9241e-166
3.95564e-166
9.61805e-167
2.1436e-167
5.04174e-168
1.87638e-168
1.07834e-168
5.38907e-169
3.26962e-169
1.82921e-169
1.02742e-169
5.81984e-170
3.72189e-170
2.33132e-170
1.56777e-170
1.22532e-170
1.01015e-170
8.03127e-171
4.78741e-171
2.15948e-171
7.5349e-172
1.83437e-152
2.45218e-153
3.01745e-154
3.30821e-154
2.93162e-154
3.87115e-155
1.31082e-155
1.96104e-156
4.23673e-158
1.02134e-159
3.20227e-161
4.73842e-162
2.01633e-163
1.08748e-164
5.7531e-165
8.48469e-165
1.01538e-164
1.03375e-164
7.9779e-165
1.86813e-165
2.88857e-166
2.68744e-167
1.49801e-168
1.17525e-169
3.4387e-170
1.73252e-170
9.04349e-171
4.98828e-171
2.73054e-171
1.69417e-171
1.06796e-171
7.42019e-172
5.90279e-172
4.64226e-172
3.0282e-172
1.51155e-172
6.0181e-173
1.79435e-173
1.27581e-152
2.53367e-153
5.8061e-154
7.03499e-154
5.00781e-154
3.48793e-155
5.83563e-156
4.62205e-157
1.6151e-158
7.10922e-160
3.46576e-161
3.11639e-162
1.18824e-162
1.88659e-163
1.117e-163
1.1958e-163
1.6051e-163
1.8524e-163
1.84964e-163
4.84994e-164
5.69028e-165
4.00967e-166
1.7403e-167
5.54013e-169
1.50585e-170
1.27785e-171
4.7022e-172
2.53603e-172
1.40363e-172
8.61727e-173
5.64707e-173
3.82076e-173
2.90469e-173
2.06366e-173
1.04438e-173
4.46575e-174
1.58529e-174
1.0609e-152
3.87765e-153
8.36724e-154
4.55592e-154
3.32745e-154
4.04306e-155
6.29801e-156
6.88099e-157
8.81025e-158
8.50924e-159
6.80135e-160
7.83385e-161
9.4344e-161
7.20607e-162
3.7466e-162
2.88648e-162
3.14955e-162
4.18203e-162
5.2931e-162
1.50725e-162
1.24057e-163
6.69294e-165
2.11523e-166
5.34487e-168
1.13324e-169
2.0257e-171
5.53066e-173
1.33098e-173
7.28907e-174
4.58253e-174
2.94712e-174
1.83832e-174
1.2971e-174
7.98329e-175
3.27156e-175
1.23894e-175
3.9159e-176
1.45044e-152
5.39916e-153
1.4073e-153
7.67954e-154
6.0906e-154
8.15106e-155
7.20288e-156
6.45967e-157
9.42965e-158
1.79609e-158
4.37605e-159
1.53829e-159
1.05212e-159
4.50866e-160
2.62944e-160
1.55118e-160
1.06443e-160
1.00503e-160
1.54184e-160
4.66354e-161
3.1548e-162
1.23553e-163
2.41473e-165
4.05409e-167
6.65607e-169
9.67354e-171
1.26351e-172
2.28314e-174
3.90098e-175
2.42096e-175
1.41662e-175
8.20602e-176
5.21389e-176
2.73411e-176
9.74918e-177
3.26547e-177
9.19121e-178
1.31964e-152
7.36335e-153
3.30771e-153
1.16333e-153
5.45093e-154
2.23324e-154
8.26729e-155
1.67783e-155
4.36655e-156
1.11679e-156
3.8806e-157
1.30381e-157
6.01929e-158
3.13755e-158
1.93759e-158
1.05427e-158
4.96264e-159
2.72786e-159
3.26005e-159
1.06206e-159
8.1079e-161
2.48715e-162
3.34632e-164
2.63513e-166
2.28956e-168
2.21975e-170
1.99201e-172
1.53778e-174
3.73614e-176
1.10496e-176
5.7137e-177
3.20728e-177
1.7961e-177
8.20738e-178
2.66529e-178
8.01779e-179
2.02895e-179
1.56666e-152
8.44787e-153
3.7399e-153
1.42737e-153
9.13201e-154
7.18629e-154
4.311e-154
2.06247e-154
9.30371e-155
3.67591e-155
1.44735e-155
4.69165e-156
1.73336e-156
9.0585e-157
5.198e-157
2.90941e-157
1.41677e-157
5.27148e-158
3.76491e-158
1.7212e-158
1.73359e-159
4.25859e-161
5.89118e-163
3.18172e-165
1.3144e-167
6.04379e-170
2.83023e-172
8.9834e-175
4.66559e-177
3.67055e-178
1.41912e-178
9.19719e-179
4.22913e-179
1.78884e-179
5.45577e-180
1.47716e-180
3.46615e-181
1.02322e-152
7.9982e-153
5.11156e-153
3.14539e-153
2.70847e-153
2.69913e-153
2.75097e-153
2.57745e-153
1.78685e-153
9.8431e-154
4.86068e-154
1.70577e-154
5.01281e-155
1.79212e-155
8.59924e-156
4.5801e-156
2.20704e-156
1.003e-156
4.1097e-157
1.14118e-157
1.50715e-158
3.00411e-160
3.47008e-162
1.29178e-164
4.25562e-167
1.20931e-169
2.87985e-172
7.06867e-175
1.24098e-177
7.12456e-180
1.7899e-180
1.23081e-180
5.08772e-181
1.87087e-181
5.67423e-182
1.39404e-182
3.06002e-183
5.43637e-152
8.12134e-152
2.44378e-152
2.22369e-152
2.11163e-152
1.4985e-152
1.09949e-152
9.08001e-153
6.46913e-153
3.27909e-153
1.3049e-153
3.13356e-154
3.3074e-155
1.01424e-156
1.1413e-158
5.21339e-161
1.72307e-163
7.4588e-164
7.02094e-164
6.39629e-164
5.49492e-164
4.59581e-164
3.54065e-164
2.59156e-164
1.75187e-164
1.12751e-164
7.1134e-165
4.48151e-165
2.73702e-165
1.58907e-165
9.11681e-166
5.56737e-166
3.36608e-166
1.82765e-166
1.00852e-166
5.07855e-167
1.88883e-167
4.93661e-168
2.1556e-152
5.0567e-153
1.18755e-153
1.21631e-153
1.70455e-153
1.13772e-153
1.26118e-153
1.00638e-153
7.33914e-154
3.07283e-154
9.28917e-155
2.24127e-155
1.86563e-156
3.18879e-158
2.15356e-160
9.21107e-163
2.42525e-164
1.84824e-164
1.63191e-164
1.34475e-164
1.08518e-164
8.36766e-165
5.76441e-165
4.03986e-165
2.51404e-165
1.5622e-165
9.53756e-166
5.80781e-166
3.39763e-166
1.90493e-166
1.0813e-166
6.43469e-167
3.6099e-167
1.89918e-167
1.18701e-167
9.10815e-168
3.6559e-168
8.0463e-169
1.81873e-152
3.05776e-153
3.36884e-154
1.08088e-154
1.13928e-154
3.96036e-155
3.58415e-155
2.39814e-155
9.2319e-156
5.76424e-156
1.53725e-156
4.9291e-157
2.6671e-158
3.50288e-160
1.69457e-162
1.17826e-164
3.98293e-165
3.17467e-165
2.66258e-165
1.9221e-165
1.44854e-165
1.03562e-165
6.37795e-166
4.4827e-166
2.50614e-166
1.56238e-166
9.23751e-167
5.50989e-167
3.12553e-167
1.74778e-167
1.00751e-167
5.84908e-168
3.25158e-168
1.94185e-168
1.35815e-168
8.86776e-169
3.4762e-169
2.8211e-152
2.98752e-153
1.76862e-154
2.07135e-155
8.86602e-156
1.89303e-156
7.51949e-157
3.317e-157
9.20642e-158
8.41706e-158
2.02556e-158
7.16314e-159
2.81452e-160
3.33773e-162
1.66833e-164
9.4268e-166
7.09309e-166
5.2435e-166
3.53312e-166
2.01979e-166
1.20313e-166
7.82263e-167
4.42932e-167
3.01999e-167
1.5764e-167
9.63258e-168
5.4822e-168
3.20718e-168
1.76462e-168
1.01361e-168
5.95617e-169
3.48556e-169
2.14051e-169
1.42173e-169
9.51588e-170
5.0412e-170
1.96861e-170
1.31177e-152
1.14864e-153
1.5164e-154
3.12932e-155
2.67411e-155
1.80418e-156
3.13472e-157
3.73714e-158
2.72192e-159
1.05771e-159
2.69108e-160
7.29038e-161
2.83935e-162
4.05261e-164
1.50374e-165
1.44811e-165
1.62179e-165
1.57282e-165
1.02606e-165
3.05734e-166
7.54846e-167
1.47502e-167
4.06642e-168
1.94561e-168
1.00646e-168
5.84992e-169
3.1434e-169
1.73723e-169
9.30043e-170
5.32214e-170
3.09442e-170
1.83572e-170
1.21672e-170
8.06405e-171
4.67352e-171
2.15238e-171
8.21048e-172
2.76874e-172
9.43342e-153
9.36667e-154
1.13546e-154
1.17027e-154
9.49689e-155
5.45702e-156
1.33329e-156
2.83163e-157
9.50341e-159
3.12813e-160
1.17282e-161
1.34923e-162
9.01486e-164
1.89209e-164
1.21237e-164
1.44977e-164
1.83381e-164
1.93909e-164
1.73113e-164
5.35542e-165
1.14079e-165
1.40643e-166
8.7509e-168
4.78339e-169
8.45131e-170
3.73713e-170
1.92093e-170
1.02686e-170
5.39839e-171
3.05895e-171
1.79294e-171
1.07547e-171
7.03775e-172
4.19792e-172
2.03893e-172
8.334e-173
2.9067e-173
8.77223e-174
8.12734e-153
1.18716e-153
2.61438e-154
2.6522e-154
1.96443e-154
1.03491e-155
1.02908e-156
9.00448e-158
4.0134e-159
2.06608e-160
1.81325e-161
3.47729e-162
1.21764e-162
4.19021e-163
2.20735e-163
1.95899e-163
2.41593e-163
2.8447e-163
3.16711e-163
1.11726e-163
2.07289e-164
2.2798e-165
1.19838e-166
4.01207e-168
1.04672e-169
4.63238e-171
1.18769e-171
5.90605e-172
3.12911e-172
1.78542e-172
1.06587e-172
6.21936e-173
3.79902e-173
1.97635e-173
8.31059e-174
3.05385e-174
9.73457e-175
8.60666e-153
2.4139e-153
3.89041e-154
1.3254e-154
7.21372e-155
8.23024e-156
1.2367e-156
1.23761e-157
1.34491e-158
1.73948e-159
3.09763e-160
8.11387e-161
4.2973e-161
1.58222e-161
7.30138e-162
4.83039e-162
4.30799e-162
5.34255e-162
7.09049e-162
2.77302e-162
4.07166e-163
3.90596e-164
1.64605e-165
4.44764e-167
9.44666e-169
1.72611e-170
3.40739e-172
3.67667e-173
1.75074e-173
1.02615e-173
6.03013e-174
3.25076e-174
1.83845e-174
8.28609e-175
3.14724e-175
1.05346e-175
3.10091e-176
1.63055e-152
4.5704e-153
9.57284e-154
2.86492e-154
1.55674e-154
2.137e-155
4.6152e-156
4.82122e-157
9.65764e-158
2.8273e-158
1.06352e-158
4.02117e-159
2.05509e-159
9.98419e-160
5.23578e-160
2.81848e-160
1.67475e-160
1.35678e-160
1.85723e-160
7.75489e-161
9.06284e-162
6.93823e-163
2.08098e-164
4.10755e-166
6.80897e-168
9.89327e-170
1.34724e-171
1.92902e-173
1.15085e-174
5.56843e-175
3.12607e-175
1.55676e-175
8.03891e-176
3.24063e-176
1.13003e-176
3.47789e-177
9.47089e-178
1.27974e-152
5.72313e-153
2.61179e-153
7.57156e-154
2.63555e-154
1.58019e-154
8.30329e-155
1.90109e-155
5.48829e-156
1.8014e-156
7.34283e-157
2.72309e-157
1.24521e-157
6.61293e-158
3.73716e-158
1.90926e-158
8.8933e-159
4.13157e-159
4.01141e-159
1.8035e-159
2.15837e-160
1.31256e-161
2.67286e-163
2.97008e-165
3.08586e-167
3.08122e-169
2.93677e-171
2.68911e-173
3.23266e-175
2.88232e-176
1.36278e-176
6.40117e-177
3.0503e-177
1.11967e-177
3.64358e-178
1.04488e-178
2.62747e-179
1.39091e-152
6.32555e-153
3.10348e-153
1.16482e-153
7.37961e-154
7.05367e-154
4.9378e-154
2.49965e-154
1.14083e-154
4.79365e-155
2.05887e-155
7.46667e-156
2.89237e-156
1.4612e-156
8.42891e-157
4.60752e-157
2.32204e-157
8.91027e-158
4.53107e-158
2.91515e-158
4.48674e-159
2.54717e-160
4.36753e-162
2.55423e-164
1.19775e-166
5.57114e-169
2.58304e-171
9.83919e-174
5.30895e-176
1.15296e-177
3.85993e-178
1.77096e-178
8.11154e-179
2.68511e-179
8.41046e-180
2.30638e-180
5.3167e-181
1.20859e-152
8.91135e-153
5.94601e-153
3.54018e-153
2.76532e-153
2.76384e-153
2.89253e-153
2.71229e-153
1.84516e-153
1.00047e-153
5.03402e-154
1.94208e-154
6.24917e-155
2.34378e-155
1.1684e-155
6.43432e-156
3.25323e-156
1.52437e-156
6.48132e-157
1.99367e-157
3.61555e-158
2.39897e-159
3.0394e-161
9.81727e-164
2.54811e-166
5.34296e-169
9.36047e-172
1.49956e-174
2.65069e-177
1.78804e-179
5.29731e-180
2.32437e-180
1.17749e-180
2.96653e-181
9.36228e-182
2.70973e-182
5.17616e-183
3.93826e-152
5.71172e-152
1.04878e-152
1.13562e-152
1.3422e-152
1.14163e-152
1.02867e-152
8.34082e-153
3.55129e-153
1.03894e-153
3.03602e-154
5.18554e-155
3.79939e-156
7.28203e-158
5.92934e-160
2.20883e-162
8.70835e-164
7.9079e-164
7.38011e-164
6.65592e-164
5.70368e-164
4.78999e-164
3.6484e-164
2.62554e-164
1.74669e-164
1.09251e-164
6.64558e-165
4.07565e-165
2.44824e-165
1.39768e-165
7.94568e-166
4.78754e-166
2.77121e-166
1.45295e-166
7.63753e-167
3.4647e-167
1.19043e-167
2.9002e-168
9.10404e-153
2.61723e-153
7.19352e-154
9.55247e-154
1.68346e-153
1.45868e-153
1.54821e-153
1.23206e-153
3.37792e-154
7.33828e-155
1.76315e-155
3.2621e-156
1.87633e-157
2.43317e-159
1.62207e-161
1.16526e-163
2.5475e-164
2.21027e-164
1.91832e-164
1.58674e-164
1.26656e-164
9.67985e-165
6.58881e-165
4.47043e-165
2.72584e-165
1.6382e-165
9.69871e-166
5.75148e-166
3.26593e-166
1.77462e-166
9.81801e-167
5.5505e-167
2.90193e-167
1.55194e-167
1.04994e-167
6.7332e-168
2.10788e-168
3.49294e-169
7.51514e-153
1.74896e-153
2.38275e-154
1.01494e-154
1.45329e-154
5.292e-155
3.96826e-155
2.11734e-155
3.6373e-156
1.22425e-156
2.89412e-157
6.32209e-158
2.5495e-159
2.95381e-161
1.8202e-163
7.70631e-165
5.45187e-165
4.34902e-165
3.51462e-165
2.6068e-165
1.90697e-165
1.34481e-165
8.11829e-166
5.4252e-166
2.98835e-166
1.77984e-166
1.01728e-166
5.82625e-167
3.15658e-167
1.68835e-167
9.23691e-168
5.0083e-168
2.71579e-168
1.65521e-168
1.13765e-168
5.70953e-169
1.58635e-169
1.54521e-152
1.98541e-153
1.09851e-154
1.26401e-155
6.45233e-156
1.70958e-156
6.3927e-157
2.57502e-157
3.12381e-158
1.91301e-158
4.05292e-159
8.91592e-160
2.89955e-161
3.48213e-163
3.94407e-165
1.32841e-165
1.09313e-165
8.46969e-166
5.81518e-166
3.36511e-166
1.94297e-166
1.18233e-166
6.53756e-167
4.22987e-167
2.20825e-167
1.286e-167
7.08271e-168
3.92718e-168
2.06821e-168
1.11866e-168
6.18195e-169
3.47324e-169
2.08689e-169
1.35185e-169
7.85042e-170
3.10279e-170
8.83085e-171
5.52207e-153
7.14407e-154
7.02568e-155
1.05714e-155
5.47784e-156
4.9406e-157
6.79509e-158
9.82936e-159
7.01601e-160
2.47573e-160
5.69947e-161
1.09967e-161
3.8359e-163
8.56851e-165
2.01577e-165
2.05725e-165
2.44439e-165
2.56661e-165
2.06858e-165
6.99145e-166
1.95565e-166
3.81563e-167
7.9748e-168
3.24967e-168
1.64889e-168
9.27758e-169
4.8814e-169
2.60222e-169
1.35144e-169
7.32413e-170
4.1175e-170
2.41426e-170
1.5356e-170
9.10164e-171
4.22816e-171
1.49281e-171
4.15635e-172
1.15466e-172
5.47861e-153
6.80507e-154
5.73805e-155
2.71341e-155
1.86308e-155
1.16365e-156
1.94345e-157
3.77369e-158
1.90064e-159
7.91811e-161
4.83629e-162
7.16149e-163
1.30329e-163
3.72659e-164
2.02636e-164
1.93525e-164
2.52903e-164
2.86993e-164
2.97609e-164
1.15061e-164
3.07857e-165
4.83125e-166
3.37073e-167
1.62122e-168
1.78428e-169
6.7358e-170
3.38229e-170
1.76534e-170
9.14654e-171
5.01455e-171
2.9078e-171
1.74449e-171
1.05399e-171
5.21541e-172
2.04634e-172
6.50493e-173
1.69554e-173
4.40152e-174
5.42695e-153
7.85394e-154
1.13354e-154
6.38827e-155
4.81784e-155
3.04567e-156
2.74622e-157
2.18232e-158
1.24685e-159
1.35262e-160
3.18875e-161
8.80484e-162
2.66643e-162
8.57037e-163
3.64814e-163
2.70741e-163
2.978e-163
3.81108e-163
4.46116e-163
2.21368e-163
5.52188e-164
8.46556e-165
5.15686e-166
1.78455e-167
4.62842e-169
1.44529e-170
2.38233e-171
1.10306e-171
5.78091e-172
3.25862e-172
1.94077e-172
1.12214e-172
6.05635e-173
2.55196e-173
8.92493e-174
2.58278e-174
6.34263e-175
5.83545e-153
1.40044e-153
2.06702e-154
4.0003e-155
1.38997e-155
2.27582e-156
3.81916e-157
4.31849e-158
6.86293e-159
1.89433e-159
6.40342e-160
1.99298e-160
7.38518e-161
2.99585e-161
1.24418e-161
6.89449e-162
5.43974e-162
6.20835e-162
8.06505e-162
5.01183e-162
1.05802e-162
1.56239e-163
8.04724e-165
2.24393e-166
4.72243e-168
8.57675e-170
1.48911e-171
8.46832e-173
3.37679e-173
1.95811e-173
1.15409e-173
6.04781e-174
2.91986e-174
1.10748e-174
3.53356e-175
9.51806e-176
2.23015e-176
1.26061e-152
2.9843e-153
5.72301e-154
1.01736e-154
3.36941e-155
1.207e-155
3.16388e-156
4.9412e-157
1.30031e-157
4.66413e-158
1.95001e-158
7.63163e-159
3.55961e-159
1.78158e-159
8.83031e-160
4.45299e-160
2.4035e-160
1.64252e-160
1.853e-160
1.30321e-160
2.26401e-161
2.95906e-162
1.192e-163
2.46216e-165
4.0492e-167
5.81509e-169
7.82402e-171
1.02787e-172
3.03018e-174
1.08225e-174
6.11694e-175
2.86725e-175
1.271e-175
4.45158e-176
1.32462e-176
3.3703e-177
7.60565e-178
9.83214e-153
3.82748e-153
1.79027e-153
4.59108e-154
1.88031e-154
1.68283e-154
7.17369e-155
1.95725e-155
6.27696e-156
2.37564e-156
1.05795e-156
4.27541e-157
1.98513e-157
1.10339e-157
6.0535e-158
3.00305e-158
1.4184e-158
5.86839e-159
4.01602e-159
2.84241e-159
5.16023e-160
5.7556e-161
1.708e-162
2.11291e-164
2.33299e-166
2.37845e-168
2.24946e-170
2.12872e-172
2.14496e-174
7.04249e-176
2.68042e-176
1.16431e-176
4.90356e-177
1.57562e-177
4.44695e-178
1.0851e-178
2.35792e-179
8.00829e-153
3.89462e-153
2.2446e-153
9.93377e-154
7.46384e-154
7.73172e-154
5.28888e-154
2.68689e-154
1.21953e-154
5.35899e-155
2.44317e-155
9.6213e-156
3.93594e-156
2.03777e-156
1.20396e-156
6.5635e-157
3.37397e-157
1.35775e-157
5.2331e-158
4.1656e-158
9.88498e-159
1.11078e-159
2.727e-161
1.67459e-163
8.96405e-166
4.33349e-168
1.98788e-170
9.51865e-173
5.0546e-175
4.4506e-177
8.1035e-178
3.15257e-178
1.36437e-178
3.80514e-179
1.04466e-179
2.5321e-180
5.17993e-181
1.21008e-152
8.80388e-153
6.07483e-153
3.73727e-153
2.89939e-153
2.90779e-153
3.0126e-153
2.76474e-153
1.80198e-153
9.70356e-154
4.92415e-154
1.99569e-154
6.92087e-155
2.76262e-155
1.44995e-155
8.29944e-156
4.39106e-156
2.11346e-156
9.12909e-157
3.10664e-157
7.36779e-158
9.94542e-159
1.98503e-160
6.36119e-163
1.43226e-165
2.74773e-168
4.15561e-171
6.35384e-174
1.26399e-176
5.99077e-179
1.56275e-179
4.45166e-180
2.98132e-180
4.16405e-181
1.15285e-181
3.27534e-182
5.25408e-183
2.12266e-152
3.2047e-152
7.35594e-153
7.59459e-153
9.44029e-153
9.71631e-153
9.30669e-153
5.15408e-153
1.10535e-153
1.93891e-154
4.6701e-155
5.65727e-156
2.93269e-157
3.8072e-159
2.35609e-161
1.71814e-163
9.05516e-164
8.5982e-164
8.0137e-164
7.18632e-164
6.19383e-164
5.21958e-164
3.9431e-164
2.79656e-164
1.83262e-164