/*--------------------------------*- C++ -*----------------------------------*\
| =========                 |                                                 |
| \\      /  F ield         | OpenFOAM: The Open Source CFD Toolbox           |
|  \\    /   O peration     | Version:  2.3.1                                 |
|   \\  /    A nd           | Web:      www.OpenFOAM.org                      |
|    \\/     M anipulation  |                                                 |
\*---------------------------------------------------------------------------*/
FoamFile
{
    version     2.0;
    format      ascii;
    class       volScalarField;
    location    "20";
    object      Sed_0;
}
// * * * * * * * * * * * * * * * * * * * * * * * * * * * * * * * * * * * * * //

dimensions      [0 0 0 0 0 0 0];

internalField   nonuniform List<scalar> 
37632
(
5.25883e-151
3.05006e-151
1.69004e-151
1.2262e-151
7.44747e-152
4.2791e-152
1.95922e-152
1.06925e-152
6.6833e-153
5.22556e-153
4.86529e-153
3.4659e-153
1.00153e-153
1.10005e-154
3.63773e-156
3.7563e-158
1.39443e-160
3.50815e-163
8.43869e-164
7.83184e-164
6.94924e-164
5.76195e-164
5.05657e-164
4.21527e-164
3.21702e-164
2.32209e-164
1.61566e-164
1.05919e-164
6.31387e-165
3.63854e-165
2.17152e-165
1.28647e-165
7.6584e-166
5.03545e-166
3.60604e-166
2.39588e-166
1.33297e-166
6.20662e-167
1.11753e-151
1.52103e-152
4.66418e-153
2.67957e-153
1.19902e-153
9.41476e-154
4.30348e-154
3.83251e-154
3.81036e-154
2.45121e-154
2.76199e-154
2.78589e-154
7.5231e-155
4.86511e-156
4.92652e-158
1.22306e-160
1.09296e-163
8.41258e-165
7.62007e-165
5.49721e-165
4.87255e-165
4.13207e-165
3.38254e-165
2.09678e-165
1.52956e-165
1.06881e-165
6.42637e-166
4.13565e-166
2.4893e-166
1.48397e-166
9.45561e-167
6.21258e-167
4.29268e-167
3.26844e-167
2.79026e-167
2.41413e-167
2.33383e-167
1.87547e-167
7.33352e-152
4.43305e-153
1.48371e-153
4.23814e-154
1.68801e-154
1.29215e-154
1.78321e-155
1.33266e-155
4.2326e-155
4.80715e-156
9.51598e-156
9.94536e-156
1.31096e-156
5.36496e-158
1.9854e-160
1.76489e-163
7.02067e-166
5.32776e-166
4.76897e-166
2.80852e-166
2.64289e-166
1.82798e-166
1.52884e-166
8.7693e-167
6.34884e-167
4.59691e-167
2.45666e-167
1.81216e-167
1.17241e-167
7.28886e-168
5.55775e-168
4.31007e-168
3.77803e-168
4.63519e-168
6.14342e-168
7.15928e-168
7.37318e-168
4.94408e-152
1.98865e-153
4.99555e-154
1.65866e-154
4.23723e-155
1.04118e-155
5.31825e-157
2.12861e-157
3.39115e-157
5.1368e-158
3.91975e-158
2.60442e-157
1.12615e-158
3.14064e-160
7.69e-163
3.16989e-166
3.64249e-167
2.56444e-167
1.72916e-167
9.06776e-168
7.97343e-168
4.27763e-168
3.29708e-168
2.76935e-168
1.2216e-168
9.34335e-169
5.40027e-169
4.62532e-169
3.07462e-169
2.25501e-169
2.61461e-169
3.10063e-169
4.44536e-169
8.69171e-169
1.24455e-168
1.29957e-168
1.0082e-168
3.64498e-152
3.20234e-153
8.72575e-154
6.26053e-154
6.68135e-154
5.2045e-155
2.88034e-156
2.71852e-157
5.96895e-159
1.9212e-159
3.99136e-160
4.82535e-159
8.44632e-161
2.96174e-163
3.34897e-165
4.18598e-167
3.54994e-167
2.52451e-167
1.20765e-167
3.93981e-168
3.572e-169
1.86414e-169
8.05459e-170
6.95629e-170
2.34962e-170
1.86538e-170
1.26056e-170
9.99678e-171
9.79091e-171
1.09311e-170
2.01657e-170
3.18444e-170
4.68583e-170
8.18576e-170
9.22135e-170
7.13218e-170
4.20458e-170
1.01588e-170
3.1371e-152
2.70569e-153
1.16817e-153
1.11988e-153
1.32168e-153
1.10952e-153
3.43147e-154
3.62179e-155
2.13891e-157
9.29505e-160
1.75378e-161
8.08938e-161
5.4631e-163
1.93206e-165
3.40929e-166
4.67989e-166
6.49499e-166
1.21472e-165
5.41921e-166
1.44234e-166
2.8294e-168
1.53067e-169
6.98875e-171
1.53706e-171
1.1299e-171
5.22441e-172
3.24822e-172
3.74918e-172
4.6915e-172
5.6163e-172
9.67225e-172
1.24738e-171
1.92232e-171
2.67429e-171
1.4888e-171
1.35808e-171
6.62216e-172
1.06707e-172
2.87017e-152
2.78364e-153
1.60518e-153
1.69417e-153
8.41692e-154
2.98487e-154
6.63597e-155
3.85129e-156
6.72298e-158
6.33891e-159
8.37906e-160
1.01457e-160
1.01828e-161
3.47526e-164
6.33375e-165
7.59648e-165
1.24121e-164
4.16415e-164
9.09508e-164
6.09998e-165
1.23779e-166
2.95146e-168
5.31002e-170
1.2033e-171
4.89259e-173
2.14922e-173
1.18529e-173
1.54263e-173
2.07898e-173
2.42323e-173
3.25173e-173
3.93862e-173
6.78502e-173
9.62553e-173
1.86757e-173
1.80699e-173
6.96657e-174
2.28823e-152
4.09885e-153
2.03475e-153
1.84272e-153
1.50954e-153
5.4145e-154
1.07549e-154
2.57218e-155
5.39645e-156
1.1286e-156
1.83162e-157
3.30044e-158
4.4702e-159
1.03991e-161
1.93611e-163
2.295e-163
3.9963e-163
1.11805e-162
3.23545e-162
2.7056e-163
5.53215e-165
8.66503e-167
8.65571e-169
7.90281e-171
1.69101e-172
2.69894e-174
4.63787e-175
6.09963e-175
7.08298e-175
7.35395e-175
8.59453e-175
9.82941e-175
1.78707e-174
2.36363e-174
2.19368e-175
1.96348e-175
9.79601e-176
1.3071e-152
4.06296e-153
2.43911e-153
2.3044e-153
1.99464e-153
4.85011e-154
7.15166e-155
1.4316e-155
2.40716e-156
5.02741e-157
6.11953e-158
9.60101e-159
5.94405e-160
2.06734e-161
6.54535e-162
8.86536e-162
1.46283e-161
2.98736e-161
7.60107e-161
9.66542e-162
2.27448e-163
2.37534e-165
1.92744e-167
8.79677e-170
7.30112e-172
8.03153e-174
7.76909e-176
2.05804e-176
1.83755e-176
1.78406e-176
1.54834e-176
1.48896e-176
1.95977e-176
1.82661e-176
3.20858e-177
1.70561e-177
1.17033e-177
7.85198e-153
4.75501e-153
2.9597e-153
2.36093e-153
2.10321e-153
1.31373e-153
2.75551e-154
2.64725e-155
1.38462e-155
6.65382e-156
2.62895e-156
5.80282e-157
6.17448e-158
3.94935e-159
6.29567e-160
5.10926e-160
5.95261e-160
7.39831e-160
1.30192e-159
2.56862e-160
6.67845e-162
5.17714e-164
4.30332e-166
1.78376e-168
5.43188e-171
2.0547e-173
7.50741e-175
3.78403e-176
6.29249e-178
3.88958e-178
2.40896e-178
2.38287e-178
2.86713e-178
1.22099e-178
4.58281e-179
1.22877e-179
5.99646e-180
7.30906e-153
5.2824e-153
2.99526e-153
2.39343e-153
2.2216e-153
1.56687e-153
3.5459e-154
8.82614e-155
3.67964e-155
1.29713e-155
3.83913e-156
7.39071e-157
1.91266e-157
1.26013e-157
6.62273e-158
3.99531e-158
1.90611e-158
8.99173e-159
1.5245e-158
4.85111e-159
1.6688e-160
7.75224e-163
6.94349e-165
3.401e-167
1.45687e-169
3.41068e-172
3.65376e-173
1.6611e-174
3.07323e-177
1.04459e-179
2.80179e-180
3.11996e-180
2.118e-180
8.87255e-181
5.1087e-181
7.85108e-182
2.49776e-182
7.06293e-153
6.00233e-153
3.72064e-153
2.95344e-153
2.87522e-153
2.73002e-153
2.32898e-153
1.90728e-153
1.27758e-153
7.20726e-154
3.29141e-154
8.91618e-155
2.17135e-155
8.86297e-156
4.23983e-156
2.16587e-156
8.91347e-157
3.31664e-157
1.37492e-157
3.4019e-158
1.9044e-159
5.15555e-162
3.05307e-164
1.53848e-166
1.7132e-168
4.25659e-170
2.13396e-171
3.43337e-173
3.87841e-176
3.5893e-179
5.82841e-182
2.57221e-182
1.37481e-182
5.68901e-183
5.39761e-183
2.93547e-184
1.28187e-184
1.77813e-151
1.50954e-151
1.00593e-151
9.02828e-152
6.33712e-152
2.9455e-152
1.6841e-152
9.41981e-153
6.59739e-153
5.85154e-153
4.82753e-153
2.48154e-153
5.68356e-154
4.33176e-155
9.98062e-157
7.79492e-159
2.2352e-161
1.03015e-163
7.18571e-164
6.64561e-164
5.87367e-164
4.83816e-164
3.92428e-164
3.14909e-164
2.31925e-164
1.58896e-164
1.08921e-164
7.31281e-165
4.48976e-165
2.58083e-165
1.51448e-165
9.29964e-166
5.71132e-166
3.43472e-166
2.11576e-166
1.34546e-166
6.84311e-167
2.54496e-167
1.39987e-151
2.2099e-152
4.37293e-153
3.64108e-153
2.64223e-153
9.93757e-154
9.84322e-154
6.33424e-154
5.79656e-154
5.21767e-154
3.80303e-154
2.49024e-154
4.26743e-155
1.65374e-156
1.48532e-158
5.03456e-161
1.16767e-163
1.28955e-164
1.18185e-164
9.26586e-165
8.15918e-165
6.35439e-165
4.71045e-165
3.45997e-165
2.31255e-165
1.5345e-165
9.91877e-166
6.31391e-166
3.79656e-166
2.2244e-166
1.34154e-166
8.45158e-167
5.43248e-167
3.46946e-167
2.25343e-167
1.67809e-167
1.40593e-167
7.392e-168
5.5504e-152
3.92561e-153
5.95798e-154
3.00571e-154
3.81063e-154
6.23794e-155
4.52645e-155
2.46208e-155
3.32902e-155
2.08401e-155
8.78249e-156
8.2005e-156
7.14257e-157
1.7786e-158
8.37803e-161
1.77055e-163
2.04555e-165
1.48603e-165
1.31778e-165
9.09277e-166
8.05885e-166
5.49204e-166
3.7706e-166
2.8738e-166
1.69854e-166
1.15336e-166
7.19046e-167
4.66619e-167
2.80668e-167
1.72602e-167
1.1236e-167
7.50188e-168
5.23442e-168
4.0397e-168
3.59078e-168
3.48528e-168
3.12832e-168
4.42819e-152
4.03081e-153
3.46827e-154
1.44862e-154
8.39553e-155
4.9167e-156
1.43147e-156
6.61864e-157
6.21886e-157
3.08636e-157
8.07108e-158
1.53886e-157
7.06069e-159
1.35433e-160
3.45218e-163
9.81357e-166
1.7444e-166
1.21414e-166
8.9932e-167
4.87606e-167
3.79096e-167
2.40867e-167
1.57479e-167
1.25055e-167
6.19412e-168
4.3105e-168
2.65984e-168
1.84111e-168
1.0943e-168
7.65766e-169
5.73172e-169
4.40466e-169
3.99477e-169
4.17495e-169
4.58812e-169
4.20218e-169
2.71756e-169
3.36613e-152
4.32658e-153
1.05058e-153
2.65029e-154
4.61603e-154
2.19728e-155
3.74367e-156
3.23198e-157
2.32904e-158
6.48556e-159
1.41427e-159
1.35024e-159
5.41083e-161
9.76983e-163
1.7396e-165
2.58317e-166
2.3536e-166
1.53526e-166
1.34587e-166
1.87052e-167
4.00637e-168
1.38548e-168
6.29507e-169
4.32896e-169
1.98299e-169
1.30317e-169
7.84058e-170
4.64141e-170
2.95008e-170
2.27779e-170
1.88767e-170
1.73971e-170
1.79641e-170
2.12756e-170
2.21854e-170
1.28969e-170
7.73749e-171
2.31795e-171
2.3879e-152
2.90249e-153
8.34944e-154
8.31275e-154
6.75786e-154
2.25372e-154
1.10919e-154
1.08384e-155
1.45059e-157
2.0611e-159
4.71084e-161
1.47153e-161
4.59653e-163
1.02329e-164
1.60747e-165
2.89265e-165
3.23304e-165
3.46954e-165
3.67471e-165
4.67004e-166
4.40491e-167
2.92008e-168
1.44211e-169
2.02888e-170
9.20519e-171
4.8873e-171
2.56345e-171
1.60913e-171
1.03512e-171
8.04775e-172
7.08243e-172
6.79268e-172
7.17783e-172
7.79639e-172
5.71277e-172
3.05032e-172
1.50921e-172
3.57355e-173
1.69417e-152
3.06713e-153
1.05879e-153
1.29103e-153
7.22036e-154
1.07623e-154
3.96273e-155
2.53111e-156
7.15835e-158
3.35135e-159
2.03658e-160
1.62567e-161
4.58562e-162
7.59046e-164
3.35497e-164
4.55877e-164
6.25024e-164
9.44755e-164
1.17841e-163
1.79633e-164
1.20075e-165
4.44234e-167
1.35997e-168
3.85119e-170
1.20248e-171
2.32572e-172
1.0256e-172
6.77915e-173
4.55127e-173
3.49791e-173
3.12467e-173
2.91172e-173
2.95245e-173
2.87502e-173
1.29823e-173
6.23418e-174
2.46395e-174
1.23401e-152
4.01629e-153
1.32711e-153
1.09612e-153
8.70339e-154
1.52867e-154
2.81943e-155
4.01611e-156
6.61104e-157
9.68533e-158
1.10402e-158
1.34509e-159
8.43444e-160
4.38523e-162
1.16241e-162
1.09731e-162
1.64236e-162
2.60513e-162
4.01805e-162
7.50158e-163
3.51672e-164
9.40431e-166
1.7224e-167
3.17125e-169
6.48414e-171
1.10675e-172
6.01322e-174
3.15891e-174
2.10851e-174
1.60643e-174
1.34882e-174
1.11175e-174
1.04394e-174
8.55416e-175
2.76336e-175
1.1184e-175
3.73129e-176
1.03998e-152
4.46734e-153
1.74058e-153
1.59048e-153
1.38244e-153
2.47351e-154
2.3174e-155
2.41256e-156
3.0792e-157
7.17395e-158
6.15611e-159
1.11214e-159
3.35816e-160
1.21882e-160
7.47104e-161
5.89991e-161
4.95703e-161
6.18427e-161
1.13153e-160
2.55514e-161
1.0741e-162
2.29966e-164
2.6929e-166
2.34544e-168
3.18502e-170
4.28369e-172
4.63808e-174
1.95786e-175
9.61377e-176
7.46844e-176
5.03123e-176
3.68531e-176
3.02338e-176
1.98468e-176
5.57676e-177
1.89768e-177
5.45042e-178
1.06467e-152
6.85917e-153
3.20807e-153
1.59515e-153
1.1579e-153
5.15777e-154
1.03953e-154
1.79883e-155
4.54375e-156
1.02169e-156
2.38945e-157
4.57977e-158
1.66342e-158
1.00331e-158
6.47367e-159
4.30467e-159
2.15178e-159
1.57498e-159
2.16472e-159
5.64685e-160
2.80405e-161
5.12367e-163
5.52797e-165
2.9467e-167
1.30171e-169
9.21714e-172
6.66575e-174
4.42205e-176
4.75266e-177
2.85218e-177
1.51099e-177
1.09149e-177
7.18666e-178
3.94718e-178
1.01183e-178
2.92771e-179
7.2539e-180
1.30679e-152
8.14142e-153
3.56737e-153
1.71519e-153
1.44835e-153
1.06569e-153
3.59565e-154
1.41863e-154
5.67631e-155
2.06646e-155
7.03726e-156
1.88164e-156
6.71882e-157
4.38798e-157
2.64593e-157
1.55474e-157
7.23715e-158
2.69186e-158
2.5141e-158
8.95535e-159
5.85069e-160
7.72082e-162
9.05773e-164
5.02291e-166
1.82208e-168
6.1259e-171
2.40898e-173
1.90513e-175
8.52115e-178
7.5657e-179
2.78005e-179
2.59778e-179
1.1645e-179
5.687e-180
1.41292e-180
3.37665e-181
7.91049e-182
8.36631e-153
6.75037e-153
4.17162e-153
2.95714e-153
2.77205e-153
2.72556e-153
2.56416e-153
2.29286e-153
1.55189e-153
8.72756e-154
4.08733e-154
1.25847e-154
3.35679e-155
1.20826e-155
5.75586e-156
2.98688e-156
1.36244e-156
5.92964e-157
2.33481e-157
5.93222e-158
5.37437e-159
4.69556e-161
4.1756e-163
1.85915e-165
6.69659e-168
2.21538e-170
1.61693e-172
3.04802e-174
6.47319e-177
1.23036e-179
3.33429e-181
3.09141e-181
1.13433e-181
4.36468e-182
1.47633e-182
2.12779e-183
5.33727e-184
1.15564e-151
1.16865e-151
5.733e-152
4.44261e-152
3.63319e-152
1.93653e-152
1.25223e-152
8.70209e-153
7.17605e-153
5.55768e-153
3.26112e-153
1.08725e-153
1.60531e-154
7.5481e-156
1.17295e-157
6.79332e-160
1.54208e-162
7.42903e-164
6.92743e-164
6.34805e-164
5.49465e-164
4.57884e-164
3.58612e-164
2.73161e-164
1.91783e-164
1.27477e-164
8.40012e-165
5.47056e-165
3.36366e-165
1.95845e-165
1.13665e-165
6.96721e-166
4.32365e-166
2.46624e-166
1.4154e-166
8.2158e-167
3.48367e-167
1.01603e-167
6.40751e-152
8.01272e-153
2.07065e-153
1.65284e-153
1.87332e-153
9.12863e-154
9.2471e-154
8.09512e-154
6.18159e-154
5.73135e-154
2.93531e-154
9.18946e-155
1.02929e-155
2.4971e-157
1.86066e-159
6.90175e-162
3.60704e-164
1.55105e-164
1.40066e-164
1.13723e-164
9.48095e-165
7.3595e-165
5.20093e-165
3.78231e-165
2.42297e-165
1.55945e-165
9.85632e-166
6.15096e-166
3.67076e-166
2.11758e-166
1.23893e-166
7.5974e-167
4.59642e-167
2.59934e-167
1.57335e-167
1.25936e-167
7.21906e-168
2.34975e-168
4.13783e-152
6.12196e-153
7.5879e-154
1.42817e-154
1.25985e-154
3.49252e-155
2.97742e-155
2.78953e-155
1.6653e-155
1.51959e-155
5.1362e-156
2.32893e-156
1.56958e-157
2.64768e-159
1.20676e-161
3.94359e-164
2.85017e-165
2.27205e-165
1.95943e-165
1.36871e-165
1.11117e-165
7.89444e-166
5.07494e-166
3.75637e-166
2.14249e-166
1.40243e-166
8.60688e-167
5.3205e-167
3.12914e-167
1.85679e-167
1.13873e-167
7.06798e-168
4.31018e-168
2.75803e-168
2.06571e-168
1.73283e-168
1.06182e-168
4.03369e-152
6.29528e-153
3.77843e-154
5.01912e-155
2.04428e-155
2.41537e-156
8.85806e-157
5.16622e-157
2.26478e-157
1.93468e-157
6.23198e-158
3.58253e-158
1.63045e-159
2.21174e-161
8.08486e-164
7.88129e-166
4.02065e-166
2.85829e-166
1.96807e-166
1.09054e-166
7.27751e-167
4.86053e-167
2.8715e-167
2.07591e-167
1.07442e-167
6.96961e-168
4.15591e-168
2.57161e-168
1.4831e-168
9.43141e-169
6.06874e-169
3.89108e-169
2.7319e-169
2.09408e-169
1.77186e-169
1.29414e-169
6.42266e-170
2.87819e-152
4.38455e-153
6.78448e-154
8.1285e-155
1.1936e-154
7.7193e-156
1.45643e-156
1.46634e-157
8.8925e-159
2.9937e-159
8.83212e-160
3.10389e-160
1.41248e-161
1.9803e-163
1.49078e-165
7.73113e-166
8.14839e-166
6.85998e-166
3.88557e-166
9.46064e-167
2.10882e-167
4.99214e-168
1.86724e-168
1.07587e-168
5.37333e-169
3.25822e-169
1.82305e-169
1.02354e-169
5.79655e-170
3.70618e-170
2.32166e-170
1.56117e-170
1.22008e-170
1.00597e-170
7.99576e-171
4.7607e-171
2.145e-171
7.47459e-172
1.77813e-152
2.40863e-153
3.01121e-154
3.30015e-154
2.92444e-154
3.87077e-155
1.30463e-155
1.94815e-156
4.19642e-158
1.00278e-159
3.01466e-161
4.09567e-162
1.70546e-163
1.02855e-164
5.68196e-165
8.39837e-165
1.00597e-164
1.02373e-164
7.83037e-165
1.83219e-165
2.82494e-166
2.62098e-167
1.45968e-168
1.15763e-169
3.41795e-170
1.72508e-170
9.00162e-171
4.96325e-171
2.71651e-171
1.68518e-171
1.06253e-171
7.38279e-172
5.87295e-172
4.619e-172
3.0119e-172
1.50158e-172
5.9733e-173
1.77825e-173
1.24152e-152
2.48963e-153
5.77368e-154
7.01279e-154
5.03274e-154
3.49075e-155
5.76357e-156
4.57888e-157
1.59632e-158
7.00525e-160
3.41155e-161
3.04227e-162
1.15396e-162
1.85546e-163
1.10141e-163
1.18286e-163
1.59087e-163
1.83508e-163
1.81791e-163
4.746e-164
5.55572e-165
3.90682e-166
1.69099e-167
5.37162e-169
1.46215e-170
1.26215e-171
4.67372e-172
2.52092e-172
1.3952e-172
8.56471e-173
5.61449e-173
3.79889e-173
2.88762e-173
2.05178e-173
1.03775e-173
4.43311e-174
1.57219e-174
1.0394e-152
3.809e-153
8.24382e-154
4.58655e-154
3.34541e-154
4.03763e-155
6.291e-156
6.87461e-157
8.79319e-158
8.46164e-159
6.73699e-160
7.6944e-161
9.17109e-161
7.09307e-162
3.69132e-162
2.84904e-162
3.12079e-162
4.13731e-162
5.20952e-162
1.47266e-162
1.20825e-163
6.51232e-165
2.05354e-166
5.1787e-168
1.09616e-169
1.95766e-171
5.40444e-173
1.32036e-173
7.23974e-174
4.55173e-174
2.92871e-174
1.82641e-174
1.28831e-174
7.93207e-175
3.24843e-175
1.22901e-175
3.88049e-176
1.45566e-152
5.31715e-153
1.37714e-153
7.62831e-154
6.05161e-154
8.20214e-155
7.22154e-156
6.40639e-157
9.27847e-158
1.76539e-158
4.30436e-159
1.51639e-159
1.04036e-159
4.45783e-160
2.59313e-160
1.52836e-160
1.04938e-160
9.90963e-161
1.5186e-160
4.55375e-161
3.06371e-162
1.20061e-163
2.34181e-165
3.92441e-167
6.43368e-169
9.33939e-171
1.21808e-172
2.21566e-174
3.86443e-175
2.40397e-175
1.40712e-175
8.14655e-176
5.17433e-176
2.7148e-176
9.67331e-177
3.23701e-177
9.10138e-178
1.31356e-152
7.3043e-153
3.27013e-153
1.14808e-153
5.43977e-154
2.25004e-154
8.30535e-155
1.66201e-155
4.29317e-156
1.09371e-156
3.79557e-157
1.28043e-157
5.94881e-158
3.10903e-158
1.91523e-158
1.03861e-158
4.87945e-159
2.68699e-159
3.21265e-159
1.03686e-159
7.85894e-161
2.41573e-162
3.24193e-164
2.54934e-166
2.21215e-168
2.14123e-170
1.91916e-172
1.47942e-174
3.6408e-176
1.09642e-176
5.67236e-177
3.18132e-177
1.7812e-177
8.14404e-178
2.64278e-178
7.94272e-179
2.00771e-179
1.56082e-152
8.41717e-153
3.7185e-153
1.42491e-153
9.1956e-154
7.26862e-154
4.33893e-154
2.04746e-154
9.16181e-155
3.60695e-155
1.41363e-155
4.5775e-156
1.70245e-156
8.96599e-157
5.14855e-157
2.87416e-157
1.39467e-157
5.17584e-158
3.72207e-158
1.68199e-158
1.68079e-159
4.1341e-161
5.7001e-163
3.07601e-165
1.26924e-167
5.82405e-170
2.72471e-172
8.64278e-175
4.49399e-177
3.63578e-178
1.40822e-178
9.11411e-179
4.19219e-179
1.77378e-179
5.40633e-180
1.46245e-180
3.42747e-181
1.02002e-152
7.99101e-153
5.11796e-153
3.16589e-153
2.73593e-153
2.72818e-153
2.77798e-153
2.58667e-153
1.76946e-153
9.72191e-154
4.77218e-154
1.66361e-154
4.8879e-155
1.76079e-155
8.50842e-156
4.53427e-156
2.18002e-156
9.88311e-157
4.03487e-157
1.11629e-157
1.46514e-158
2.9154e-160
3.3564e-162
1.24768e-164
4.10613e-167
1.16642e-169
2.77809e-172
6.83642e-175
1.20053e-177
7.01829e-180
1.77539e-180
1.21848e-180
5.03994e-181
1.85383e-181
5.62006e-182
1.38034e-182
3.02353e-183
5.33485e-152
7.95579e-152
2.27184e-152
2.09122e-152
1.99971e-152
1.45292e-152
1.08803e-152
9.03233e-153
6.29282e-153
3.10834e-153
1.20515e-153
2.77024e-154
2.78132e-155
8.14172e-157
8.79694e-159
3.848e-161
1.44858e-163
7.4618e-164
7.02793e-164
6.40318e-164
5.50066e-164
4.60048e-164
3.54392e-164
2.59333e-164
1.75257e-164
1.1276e-164
7.11146e-165
4.47841e-165
2.73381e-165
1.58648e-165
9.09987e-166
5.55602e-166
3.35709e-166
1.82184e-166
1.00526e-166
5.0562e-167
1.8775e-167
4.8987e-168
2.1153e-152
4.82514e-153
1.14569e-153
1.18547e-153
1.67911e-153
1.13208e-153
1.25626e-153
9.95616e-154
7.0876e-154
2.86247e-154
8.40514e-155
1.93586e-155
1.52664e-156
2.49959e-158
1.65025e-160
7.12915e-163
2.35898e-164
1.84924e-164
1.63286e-164
1.34582e-164
1.086e-164
8.37435e-165
5.76795e-165
4.04111e-165
2.51426e-165
1.56174e-165
9.53142e-166
5.80147e-166
3.39228e-166
1.90112e-166
1.07888e-166
6.41805e-167
3.59784e-167
1.89235e-167
1.18347e-167
9.07373e-168
3.63098e-168
7.97861e-169
1.80033e-152
3.01974e-153
3.34428e-154
1.06733e-154
1.13338e-154
3.92432e-155
3.47845e-155
2.32815e-155
8.66606e-156
5.36506e-156
1.37928e-156
4.18829e-157
2.14136e-158
2.72339e-160
1.31493e-162
1.04326e-164
3.97909e-165
3.17294e-165
2.6626e-165
1.92293e-165
1.44876e-165
1.03596e-165
6.37795e-166
4.48147e-166
2.50502e-166
1.56098e-166
9.22639e-167
5.50056e-167
3.11888e-167
1.74337e-167
1.00469e-167
5.82955e-168
3.23936e-168
1.93472e-168
1.35363e-168
8.82554e-169
3.45389e-169
2.78244e-152
2.99541e-153
1.75054e-154
2.04263e-155
8.73385e-156
1.83604e-156
7.18221e-157
3.15891e-157
8.54607e-158
7.80135e-158
1.80105e-158
6.03229e-159
2.25258e-160
2.63242e-162
1.36833e-164
9.28503e-166
7.07699e-166
5.22626e-166
3.52009e-166
2.015e-166
1.20043e-166
7.81561e-167
4.42405e-167
3.01586e-167
1.57398e-167
9.61318e-168
5.46986e-168
3.19849e-168
1.7593e-168
1.01018e-168
5.93444e-169
3.47126e-169
2.13144e-169
1.41579e-169
9.47314e-170
5.01073e-170
1.955e-170
1.28401e-152
1.13436e-153
1.49332e-154
3.10184e-155
2.64487e-155
1.77339e-156
3.06923e-157
3.61408e-158
2.56503e-159
9.68367e-160
2.37394e-160
6.18468e-161
2.32662e-162
3.36207e-164
1.45007e-165
1.43513e-165
1.60706e-165
1.55818e-165
1.00943e-165
3.008e-166
7.41884e-167
1.45415e-167
4.04145e-168
1.94023e-168
1.00364e-168
5.8306e-169
3.1325e-169
1.73039e-169
9.26167e-170
5.2981e-170
3.07976e-170
1.82664e-170
1.21059e-170
8.0229e-171
4.6463e-171
2.13764e-171
8.14932e-172
2.7456e-172
9.12572e-153
9.13984e-154
1.1199e-154
1.16342e-154
9.50045e-155
5.44839e-156
1.32859e-156
2.81177e-157
9.38622e-159
3.06167e-160
1.10836e-161
1.2078e-162
8.37154e-164
1.85481e-164
1.19734e-164
1.43523e-164
1.81704e-164
1.91969e-164
1.70363e-164
5.26083e-165
1.11783e-165
1.3732e-166
8.52088e-168
4.68086e-169
8.38235e-170
3.72034e-170
1.91218e-170
1.02171e-170
5.37024e-171
3.04196e-171
1.78273e-171
1.0692e-171
6.99532e-172
4.17212e-172
2.02473e-172
8.2707e-173
2.88286e-173
8.69166e-174
7.9374e-153
1.16014e-153
2.57928e-154
2.6401e-154
1.96649e-154
1.03212e-155
1.01591e-156
8.88409e-158
3.94941e-159
2.02911e-160
1.78351e-161
3.4221e-162
1.19743e-162
4.12576e-163
2.17701e-163
1.9364e-163
2.39527e-163
2.81283e-163
3.12213e-163
1.09581e-163
2.02911e-164
2.22428e-165
1.16544e-166
3.89298e-168
1.01463e-169
4.54688e-171
1.17966e-171
5.87118e-172
3.10993e-172
1.7739e-172
1.05897e-172
6.17786e-173
3.77245e-173
1.96239e-173
8.24668e-174
3.02847e-174
9.64767e-175
8.46257e-153
2.35959e-153
3.80405e-154
1.3271e-154
7.22859e-155
8.20343e-156
1.23105e-156
1.22824e-157
1.33092e-158
1.71511e-159
3.05783e-160
7.99582e-161
4.22713e-161
1.55991e-161
7.19201e-162
4.76665e-162
4.26119e-162
5.28301e-162
6.99658e-162
2.71431e-162
3.97949e-163
3.80672e-164
1.59918e-165
4.31261e-167
9.14439e-169
1.66851e-170
3.30717e-172
3.63812e-173
1.73839e-173
1.01878e-173
5.98752e-174
3.22637e-174
1.82399e-174
8.22142e-175
3.12097e-175
1.04402e-175
3.07114e-176
1.61728e-152
4.49192e-153
9.33817e-154
2.83067e-154
1.53768e-154
2.13498e-155
4.59009e-156
4.74261e-157
9.45834e-158
2.77415e-158
1.04673e-158
3.9673e-159
2.03352e-159
9.87297e-160
5.16572e-160
2.77605e-160
1.64934e-160
1.33769e-160
1.83349e-160
7.57763e-161
8.83933e-162
6.75336e-163
2.01848e-164
3.97796e-166
6.5854e-168
9.55654e-170
1.29961e-171
1.86312e-173
1.13506e-174
5.52605e-175
3.10215e-175
1.544e-175
7.96988e-176
3.21307e-176
1.11988e-176
3.44469e-177
9.37427e-178
1.26496e-152
5.66161e-153
2.57902e-153
7.46255e-154
2.62898e-154
1.58794e-154
8.28624e-155
1.873e-155
5.37549e-156
1.7634e-156
7.19081e-157
2.67724e-157
1.23111e-157
6.55414e-158
3.69484e-158
1.88192e-158
8.74219e-159
4.06078e-159
3.95944e-159
1.76188e-159
2.10143e-160
1.27626e-161
2.58736e-163
2.87144e-165
2.98042e-167
2.97254e-169
2.83001e-171
2.58876e-173
3.12075e-175
2.84961e-176
1.35203e-176
6.34453e-177
3.02213e-177
1.10946e-177
3.60868e-178
1.03433e-178
2.5992e-179
1.38185e-152
6.28899e-153
3.08313e-153
1.16304e-153
7.43277e-154
7.1211e-154
4.93546e-154
2.47217e-154
1.1208e-154
4.69884e-155
2.01143e-155
7.29332e-156
2.84295e-156
1.44653e-156
8.35261e-157
4.55509e-157
2.28764e-157
8.74886e-158
4.48329e-158
2.85459e-158
4.36947e-159
2.47289e-160
4.22206e-162
2.46705e-164
1.15577e-166
5.36825e-169
2.48637e-171
9.46388e-174
5.10239e-176
1.13278e-177
3.82716e-178
1.75405e-178
8.03125e-179
2.65934e-179
8.32488e-180
2.28193e-180
5.25657e-181
1.20563e-152
8.88789e-153
5.93532e-153
3.55403e-153
2.79238e-153
2.79352e-153
2.91726e-153
2.71585e-153
1.8212e-153
9.86128e-154
4.93697e-154
1.89362e-154
6.09421e-155
2.3038e-155
1.15676e-155
6.37613e-156
3.21658e-156
1.50278e-156
6.36645e-157
1.95245e-157
3.52772e-158
2.32703e-159
2.93827e-161
9.47225e-164
2.45611e-166
5.14758e-169
9.01577e-172
1.44423e-174
2.55008e-177
1.75614e-179
5.25213e-180
2.29976e-180
1.16318e-180
2.93673e-181
9.26165e-182
2.68106e-182
5.11442e-183
3.77727e-152
5.40237e-152
1.0005e-152
1.0937e-152
1.30174e-152
1.12231e-152
1.02255e-152
8.152e-153
3.29886e-153
9.50554e-154
2.72817e-154
4.46388e-155
3.12252e-156
5.75665e-158
4.5293e-160
1.65173e-162
8.62181e-164
7.9165e-164
7.38843e-164
6.66373e-164
5.71032e-164
4.79536e-164
3.65205e-164
2.62755e-164
1.74754e-164
1.09266e-164
6.64423e-165
4.07326e-165
2.44559e-165
1.3955e-165
7.93151e-166
4.77754e-166
2.76336e-166
1.44817e-166
7.60916e-167
3.44794e-167
1.18291e-167
2.87742e-168
8.84318e-153
2.49121e-153
7.07025e-154
9.45857e-154
1.67372e-153
1.46264e-153
1.54041e-153
1.17684e-153
3.06421e-154
6.5838e-155
1.5556e-155
2.7622e-156
1.5151e-157
1.91558e-159
1.27807e-161
1.00671e-163
2.54182e-164
2.21151e-164
1.91972e-164
1.58816e-164
1.26769e-164
9.68843e-165
6.59351e-165
4.4723e-165
2.72626e-165
1.63782e-165
9.69311e-166
5.74558e-166
3.26087e-166
1.77108e-166
9.79543e-167
5.5346e-167
2.89143e-167
1.54639e-167
1.04681e-167
6.70053e-168
2.09177e-168
3.45948e-169
7.49116e-153
1.72816e-153
2.35854e-154
1.00925e-154
1.45662e-154
5.2215e-155
3.82592e-155
1.97981e-155
3.27184e-156
1.09543e-156
2.53343e-157
5.30125e-158
2.04993e-159
2.35805e-161
1.50898e-163
7.55498e-165
5.45242e-165
4.3479e-165
3.51495e-165
2.60802e-165
1.90764e-165
1.34532e-165
8.11906e-166
5.42396e-166
2.9871e-166
1.77828e-166
1.01605e-166
5.81616e-167
3.14957e-167
1.68388e-167
9.20828e-168
4.9897e-168
2.70497e-168
1.64892e-168
1.13336e-168
5.67535e-169
1.57372e-169
1.53582e-152
1.96509e-153
1.08265e-154
1.24743e-155
6.38421e-156
1.65013e-156
6.01451e-157
2.41916e-157
2.80054e-158
1.70489e-158
3.54217e-159
7.50204e-160
2.3711e-161
2.88627e-163
3.61867e-165
1.32341e-165
1.09019e-165
8.44137e-166
5.79064e-166
3.3561e-166
1.93728e-166
1.18111e-166
6.53016e-167
4.22425e-167
2.2049e-167
1.28343e-167
7.06643e-168
3.91614e-168
2.06163e-168
1.11461e-168
6.15697e-169
3.45796e-169
2.07751e-169
1.34575e-169
7.80832e-170
3.0813e-170
8.75885e-171
5.41922e-153
7.04506e-154
6.90877e-155
1.04224e-155
5.40094e-156
4.82817e-157
6.56822e-158
9.33091e-159
6.49343e-160
2.21318e-160
5.03308e-161
9.4887e-162
3.2785e-163
7.77534e-165
1.98822e-165
2.03856e-165
2.42135e-165
2.54211e-165
2.03978e-165
6.88121e-166
1.92234e-166
3.75225e-167
7.90666e-168
3.23733e-168
1.64425e-168
9.24781e-169
4.86431e-169
2.5918e-169
1.34564e-169
7.28968e-170
4.09684e-170
2.40166e-170
1.52739e-170
9.04999e-171
4.19975e-171
1.48118e-171
4.12055e-172
1.14434e-172
5.34446e-153
6.66308e-154
5.62381e-155
2.69141e-155
1.85946e-155
1.15618e-156
1.92934e-157
3.74081e-158
1.87312e-159
7.73226e-161
4.65556e-162
6.86428e-163
1.27572e-163
3.66971e-164
2.0011e-164
1.91516e-164
2.50575e-164
2.83901e-164
2.93811e-164
1.13074e-164
3.0207e-165
4.72216e-166
3.28284e-167
1.58102e-168
1.76542e-169
6.70338e-170
3.36693e-170
1.75642e-170
9.09793e-171
4.98605e-171
2.89058e-171
1.73383e-171
1.04722e-171
5.17917e-172
2.03051e-172
6.44886e-173
1.67981e-173
4.35894e-174
5.32538e-153
7.68299e-154
1.11219e-154
6.34211e-155
4.79873e-155
3.02457e-156
2.71255e-157
2.1483e-158
1.22465e-159
1.33043e-160
3.14561e-161
8.68687e-162
2.62777e-162
8.44224e-163
3.59568e-163
2.67398e-163
2.94888e-163
3.76842e-163
4.41189e-163
2.16968e-163
5.41385e-164
8.26965e-165
5.01754e-166
1.73214e-167
4.48459e-169
1.41045e-170
2.3625e-171
1.09645e-171
5.74495e-172
3.23721e-172
1.92774e-172
1.11423e-172
6.01067e-173
2.53166e-173
8.84769e-174
2.55854e-174
6.27948e-175
5.7177e-153
1.3658e-153
2.01781e-154
3.97159e-155
1.38402e-155
2.25869e-156
3.77964e-157
4.25716e-158
6.75064e-159
1.8662e-159
6.3215e-160
1.96801e-160
7.28866e-161
2.95529e-161
1.2254e-161
6.79435e-162
5.3692e-162
6.13907e-162
7.98117e-162
4.9043e-162
1.03614e-162
1.52492e-163
7.82043e-165
2.17626e-166
4.57216e-168
8.29139e-170
1.44113e-171
8.34749e-173
3.35206e-173
1.94375e-173
1.14555e-173
5.99947e-174
2.8951e-174
1.09775e-174
3.50027e-175
9.42252e-176
2.20663e-176
1.2412e-152
2.92472e-153
5.58494e-154
1.00238e-154
3.33276e-155
1.20077e-155
3.12455e-156
4.83803e-157
1.27312e-157
4.58079e-158
1.9211e-158
7.53757e-159
3.52105e-159
1.76202e-159
8.71197e-160
4.38421e-160
2.36502e-160
1.61935e-160
1.83293e-160
1.2744e-160
2.21364e-161
2.88538e-162
1.15637e-163
2.38472e-165
3.91673e-167
5.61786e-169
7.54914e-171
9.91423e-173
2.97055e-174
1.0733e-174
6.06765e-175
2.84227e-175
1.25929e-175
4.40941e-176
1.31129e-176
3.33458e-177
7.52172e-178
9.66721e-153
3.7801e-153
1.76527e-153
4.52976e-154
1.87812e-154
1.68546e-154
7.12104e-155
1.91988e-155
6.13908e-156
2.32554e-156
1.03736e-156
4.20802e-157
1.96336e-157
1.094e-157
5.98602e-158
2.96122e-158
1.39405e-158
5.76308e-159
3.96449e-159
2.78206e-159
5.03752e-160
5.60825e-161
1.65386e-162
2.04292e-164
2.25331e-166
2.29474e-168
2.16797e-170
2.04982e-172
2.06539e-174
6.92228e-176
2.65753e-176
1.15338e-176
4.85546e-177
1.55975e-177
4.39947e-178
1.07302e-178
2.33085e-179
7.91333e-153
3.86218e-153
2.22724e-153
9.91895e-154
7.5095e-154
7.79322e-154
5.2711e-154
2.64729e-154
1.19507e-154
5.2463e-155
2.38709e-155
9.40653e-156
3.87202e-156
2.0185e-156
1.19365e-156
6.49202e-157
3.32583e-157
1.33318e-157
5.14979e-158
4.08698e-158
9.65305e-159
1.08175e-159
2.63825e-161
1.61797e-163
8.64984e-166
4.17726e-168
1.91408e-170
9.15567e-173
4.85767e-175
4.32318e-177
8.02762e-178
3.12083e-178
1.34994e-178
3.76495e-179
1.03282e-179
2.50263e-180
5.11815e-181
1.20659e-152
8.76899e-153
6.04993e-153
3.74067e-153
2.92395e-153
2.9378e-153
3.03427e-153
2.75988e-153
1.77383e-153
9.54754e-154
4.8251e-154
1.94545e-154
6.75156e-155
2.71769e-155
1.43661e-155
8.23101e-156
4.34458e-156
2.08414e-156
8.97196e-157
3.04498e-157
7.20426e-158
9.69313e-159
1.92089e-160
6.1312e-163
1.37834e-165
2.64153e-168
3.99398e-171
6.10397e-174
1.21313e-176
5.8382e-179
1.55432e-179
4.40126e-180
2.94307e-180
4.11787e-181
1.13905e-181
3.23703e-182
5.18899e-183
2.02101e-152
2.91864e-152
7.20802e-153
7.48577e-153
9.29518e-153
9.6809e-153
9.20926e-153
4.78103e-153
9.83048e-154
1.72012e-154
4.10335e-155
4.76822e-156
2.37298e-157
3.00131e-159
1.8175e-161
1.54584e-163
9.0617e-164
8.60801e-164
8.0234e-164
7.1953e-164
6.20175e-164