/*--------------------------------*- C++ -*----------------------------------*\
| =========                 |                                                 |
| \\      /  F ield         | OpenFOAM: The Open Source CFD Toolbox           |
|  \\    /   O peration     | Version:  2.3.1                                 |
|   \\  /    A nd           | Web:      www.OpenFOAM.org                      |
|    \\/     M anipulation  |                                                 |
\*---------------------------------------------------------------------------*/
FoamFile
{
    version     2.0;
    format      ascii;
    class       volVectorField;
    location    "20";
    object      U;
}
// * * * * * * * * * * * * * * * * * * * * * * * * * * * * * * * * * * * * * //

dimensions      [0 1 -1 0 0 0 0];

internalField   nonuniform List<vector> 
37632
(
(3.60621 -10.5314 -5.02357)
(0.582179 -5.04148 -1.099)
(1.90205 -3.29734 -0.368921)
(2.06445 -2.31886 -0.130009)
(1.5682 -1.304 0.0749742)
(1.35366 -0.916401 0.0227522)
(0.981055 -0.639852 0.0782027)
(0.827025 -0.552547 0.0504929)
(0.708183 -0.53754 0.0200129)
(0.767563 -0.536971 0.000825862)
(1.03838 -0.406348 -0.0303755)
(1.08585 -0.168754 0.00496146)
(0.682669 0.0759698 0.053082)
(0.266263 0.0944199 0.0436541)
(0.103991 0.032811 0.0186992)
(0.0424793 0.00484146 0.00802077)
(0.0195324 -0.00303821 0.00376093)
(0.0135517 -0.00714083 0.0033081)
(0.00492244 -0.00938179 0.00182242)
(0.0147975 -0.010085 0.00250106)
(0.0102865 -0.0103952 0.00311919)
(0.0198159 -0.0106308 0.00143279)
(0.0240175 -0.00926304 0.000285829)
(0.0347394 -0.0072164 0.00135233)
(0.0378149 -0.0072111 0.0019182)
(0.0451729 -0.00771329 0.001031)
(0.0552501 -0.00819269 0.00124887)
(0.0626022 -0.00811294 0.00294096)
(0.0638107 -0.00984345 0.00391203)
(0.0687922 -0.0113832 0.00211301)
(0.0814049 -0.0123723 0.00120415)
(0.0867957 -0.0158732 0.00403283)
(0.0853472 -0.0184351 0.00377651)
(0.0957516 -0.014336 -0.00200207)
(0.108669 -0.0135517 -0.00292394)
(0.104744 -0.0244893 0.0012949)
(0.0990955 -0.0264976 0.0017477)
(0.099235 -0.0070485 -0.00214413)
(-0.812855 4.82568 -1.20895)
(-1.97661 2.29501 -1.12125)
(-1.11325 1.46103 -0.759142)
(-1.47352 0.999225 -0.191596)
(-0.763348 0.254289 -0.0260175)
(-0.842218 0.667957 -0.356814)
(-0.554291 0.0353419 0.102389)
(-0.501314 0.305929 -0.0252109)
(-0.422381 0.212047 -0.102183)
(-0.374336 0.0876774 -0.0462677)
(-0.192892 0.157008 -0.0786457)
(-0.15631 0.185987 -0.01995)
(-0.131769 0.138238 -0.00364764)
(-0.0729911 0.111342 0.0050128)
(-0.0692958 0.0447042 0.00727238)
(-0.0828334 0.0140299 0.00229774)
(-0.0774156 -0.00123308 0.00149879)
(-0.0878556 -0.00327413 0.000749322)
(-0.0803657 -0.00604506 -0.00210141)
(-0.0726616 -0.0132561 0.00141828)
(-0.0796625 -0.0126828 -0.00129995)
(-0.0525071 -0.011803 -0.00134755)
(-0.0655061 -0.0102054 -0.00109513)
(-0.043272 -0.0158364 0.000303229)
(-0.0473976 -0.0155462 -0.000573587)
(-0.0334672 -0.016296 -0.00174034)
(-0.0316798 -0.0188832 -5.48602e-05)
(-0.0229404 -0.0193478 -0.00164186)
(-0.0162358 -0.0187247 -0.00201685)
(-0.00990419 -0.0183553 -0.00202192)
(-0.00275178 -0.0156694 -0.00261976)
(0.00327621 -0.0117109 -0.00373797)
(0.00935059 -0.00566975 -0.0049875)
(0.015917 0.00248354 -0.00495768)
(0.0187803 0.0135638 -0.00520108)
(0.0219332 0.0260712 -0.0101431)
(0.0339027 0.0350138 -0.0165185)
(0.0549576 0.0352939 -0.0163775)
(-0.969634 3.05488 -0.521944)
(-1.42693 -0.250116 0.19908)
(-0.429971 0.810298 -0.111833)
(-1.03783 -0.40417 -0.31514)
(0.675855 -1.16541 -0.46141)
(-0.174177 -0.311263 0.0986175)
(0.225861 -0.476546 -0.0562442)
(-0.174956 -0.422208 0.0629678)
(-0.120256 -0.0806286 0.00969123)
(-0.0582583 -0.31608 -0.0418171)
(-0.119801 -0.122625 0.0316883)
(-0.0931987 -0.0263036 -0.00799972)
(-0.092432 0.0301196 0.0118106)
(-0.111661 0.0331257 0.00417361)
(-0.0617473 0.0131821 -0.00789638)
(-0.0919364 0.00261359 0.00789895)
(-0.0847389 -0.00966629 -0.00495021)
(-0.0880932 -0.0109493 0.00115912)
(-0.0907856 -0.0146029 -0.00440588)
(-0.0692637 -0.0188256 0.00190691)
(-0.0872165 -0.0206056 -0.00362651)
(-0.0590223 -0.0178201 0.000521595)
(-0.0702696 -0.0130723 -0.000810123)
(-0.0474994 -0.0230901 -0.0018513)
(-0.0535672 -0.014686 -0.00210316)
(-0.0331279 -0.0147361 -0.00285294)
(-0.0359574 -0.0177337 0.000180948)
(-0.0254958 -0.0150314 -0.00288202)
(-0.0202989 -0.0139905 -0.0026727)
(-0.0156173 -0.014849 -0.00144989)
(-0.00948086 -0.0129286 -0.0029748)
(-0.00382735 -0.00941592 -0.00340217)
(0.0034686 -0.00513611 -0.00323285)
(0.0114986 0.00244051 -0.00351651)
(0.0215239 0.00952004 -0.00338001)
(0.0335213 0.0164042 -0.00351984)
(0.0535057 0.020825 -0.00380912)
(-0.931704 3.01784 -0.256553)
(-0.479416 -0.888909 0.154727)
(-0.0657183 0.573264 0.166666)
(-0.562683 0.0365932 -0.00259605)
(-0.432375 0.561893 -0.23644)
(-0.295015 -0.182856 0.0182762)
(-0.0416798 0.352682 -0.045111)
(-0.358702 0.117056 0.0111074)
(-0.11081 0.00560191 -0.0424019)
(-0.229857 0.163841 -0.0266734)
(-0.193647 -0.0189124 0.00244062)
(-0.16471 0.138289 -0.0132337)
(-0.130379 0.0394619 -0.00252558)
(-0.149129 0.0419722 0.00756112)
(-0.0823731 0.041938 -0.00872647)
(-0.135823 0.00734032 0.00410717)
(-0.0969003 0.0154469 -0.00283079)
(-0.111525 -0.000339955 -0.000679834)
(-0.106707 -0.00196159 -0.00202623)
(-0.094497 -0.0241287 0.0015577)
(-0.105978 -0.00696477 -0.0031057)
(-0.0842171 -0.0268556 0.000255525)
(-0.0863829 -0.0163901 0.00162792)
(-0.0698103 -0.0192848 -0.00675505)
(-0.0713881 -0.0208336 0.00219447)
(-0.0469908 -0.0180382 0.00060915)
(-0.0628493 -0.0221435 0.000109364)
(-0.0364719 -0.0177139 -0.00251396)
(-0.0354928 -0.013199 0.000390912)
(-0.0326157 -0.016941 0.00103562)
(-0.0240157 -0.00845252 -0.00229022)
(-0.01687 -0.00520017 -0.00161051)
(-0.0126952 -0.00150298 0.000529347)
(-0.0079604 0.00507432 -0.000896077)
(-0.00248742 0.00968912 0.00144862)
(-0.00547457 0.0109454 0.00366416)
(-0.00720919 0.0117742 0.00475589)
(-1.00842 2.93716 -0.243219)
(0.302601 -0.732683 -0.317557)
(-0.0639485 -0.0405029 -0.00495596)
(0.258681 -0.314602 -0.148829)
(0.128202 -0.419797 0.0761999)
(-0.115475 -0.486252 -0.113713)
(-0.213581 -0.205504 0.0263413)
(-0.202255 -0.251657 -0.0567894)
(-0.18789 -0.0150408 0.0148334)
(-0.202269 -0.0478585 -0.0340705)
(-0.0831811 -0.100488 -0.0207201)
(-0.21314 0.00518411 0.00999652)
(-0.109148 0.0412055 -0.0128603)
(-0.138089 -0.0294039 -0.0119521)
(-0.120046 0.0265184 0.0115492)
(-0.134432 0.00657663 -0.0141245)
(-0.103346 -0.0212911 0.000563079)
(-0.131299 0.00251703 0.003852)
(-0.113755 -0.0198771 -0.0128957)
(-0.0976825 -0.0224582 0.00601043)
(-0.1342 -0.0174055 -0.00132716)
(-0.0846832 -0.0291198 -0.010595)
(-0.106807 -0.0270708 0.00265428)
(-0.0831202 -0.010582 -0.00411628)
(-0.0890637 -0.0391606 0.00171578)
(-0.0905276 -0.0179855 -0.00175633)
(-0.0775417 -0.0267169 -0.00554275)
(-0.0652609 -0.0243332 -4.98369e-05)
(-0.0750415 -0.0171555 0.00134693)
(-0.0703056 -0.0243305 -0.00392216)
(-0.0564797 -0.0127875 -0.0025316)
(-0.0564464 -0.012231 0.00308253)
(-0.0641817 -0.0142576 -0.000653689)
(-0.0422506 -0.00209121 -0.000502681)
(-0.0557053 -0.00285418 0.00323171)
(-0.0444929 0.00148004 0.000776581)
(-0.0452967 0.00318719 0.00192946)
(-0.0428158 0.00104129 0.000659873)
(-0.742416 3.1998 -0.265855)
(0.117176 -0.267009 -0.257771)
(0.130608 0.479745 -0.102174)
(0.389549 0.528197 -0.0210357)
(0.318538 0.429592 0.0244791)
(0.294978 0.502414 -0.0391334)
(0.113464 0.369736 0.0459313)
(-0.00369226 0.241736 0.043329)
(-0.225107 -0.00787863 0.0328965)
(-0.080424 0.135087 0.00190716)
(-0.186317 0.0499355 -0.0111343)
(-0.0771726 0.125733 0.00461629)
(-0.18852 0.0217605 0.00588055)
(-0.059846 0.084537 -0.0321214)
(-0.161185 0.0187485 0.0223522)
(-0.0907024 0.0344287 -0.0154593)
(-0.132583 0.0253089 -0.00132928)
(-0.108147 -0.00392624 0.00196929)
(-0.123282 0.0173733 -0.0048204)
(-0.0889895 -0.0206381 -0.000608353)
(-0.121884 -0.00923763 0.00196082)
(-0.0888482 -0.0127915 -0.0054042)
(-0.0959713 -0.0227134 -0.00170878)
(-0.0848025 -0.0164952 0.00569095)
(-0.0927969 -0.0122757 -0.00864429)
(-0.0704058 -0.0167284 -0.00130228)
(-0.0716265 -0.021532 0.00223524)
(-0.0817198 -0.0128069 -0.00248609)
(-0.0668152 -0.00746284 -0.00126614)
(-0.0664498 -0.0152174 -0.00252961)
(-0.066892 -0.0070413 0.00101121)
(-0.064761 -0.0079187 -0.000779197)
(-0.0613956 -0.00664487 -0.00217512)
(-0.0569622 0.00271091 -0.000132688)
(-0.0603358 -0.00162069 -0.000318399)
(-0.0473668 0.001767 -0.00113244)
(-0.0511222 0.00339728 0.000151665)
(-0.0435361 0.00443572 -0.00131353)
(-0.632398 3.11083 -0.360319)
(0.135133 -0.604034 -0.32798)
(0.101617 -0.0889886 -0.0828419)
(0.205125 -0.234933 0.0547539)
(-0.222361 -0.429167 0.0291807)
(-0.283069 -0.149304 0.00263234)
(-0.128339 -0.0926736 0.00780061)
(-0.351616 -0.144489 -0.0240121)
(-0.198197 -0.0883545 -0.0763941)
(-0.316356 -0.0575518 -0.0157393)
(-0.185798 -0.048148 -0.0546295)
(-0.225192 -0.00857832 -0.0109119)
(-0.171781 -0.018015 -0.0501699)
(-0.115314 0.0408005 0.0105028)
(-0.179274 -0.02848 -0.00873282)
(-0.100738 0.0310244 -0.00460308)
(-0.154156 0.00218419 0.0057062)
(-0.125661 -0.0157735 -0.0120232)
(-0.120066 -0.0165154 0.00942579)
(-0.11941 -0.0230925 -0.000828296)
(-0.118088 -0.0202547 -0.00464961)
(-0.0888282 -0.0322032 0.0048335)
(-0.112412 -0.0211053 -0.00262307)
(-0.0692559 -0.0273577 -0.00396946)
(-0.100964 -0.0193061 0.0026056)
(-0.0644759 -0.0251064 -0.00452214)
(-0.0791996 -0.0209657 0.00168926)
(-0.080117 -0.0123264 -0.00186817)
(-0.0606557 -0.0198038 -0.00362564)
(-0.0687161 -0.0115963 0.00197531)
(-0.0633294 -0.0109712 -0.00146823)
(-0.061901 -0.00919816 -0.00190381)
(-0.0558348 -0.00819665 -0.000898084)
(-0.0583274 0.00193508 0.000351873)
(-0.0520624 -0.00646735 -0.00231896)
(-0.0479291 0.000926071 4.67052e-05)
(-0.0487924 0.000797043 -0.000943348)
(-0.57763 3.80226 -0.178448)
(0.331156 0.411195 -0.261392)
(0.224237 0.485238 -0.147006)
(0.398305 0.5894 -0.106648)
(0.305201 0.64946 -0.0450567)
(-0.0290276 0.369179 -0.041042)
(0.0775199 0.303915 -0.0667221)
(0.00595017 0.306168 -0.0559905)
(0.041143 0.228113 -0.0650056)
(0.0589227 0.239512 -0.0367021)
(0.0307082 0.173069 -0.0460609)
(0.119164 0.20743 -0.0303295)
(0.0614129 0.132741 0.0283404)
(-0.101118 0.0717164 0.0296158)
(-0.108321 0.0453907 -0.0119518)
(-0.121173 0.0414057 0.00616938)
(-0.125196 0.0281409 -0.00289892)
(-0.106336 0.0157643 -0.00405944)
(-0.135358 -0.0164528 0.00485888)
(-0.104988 -0.0167776 -0.00340078)
(-0.105724 -0.0177678 0.000702308)
(-0.0921382 -0.0271253 0.00141394)
(-0.0968247 -0.0323342 0.000785808)
(-0.0839957 -0.00609449 -0.000700913)
(-0.089215 -0.0228553 -0.00385225)
(-0.0644439 -0.0153852 0.000389962)
(-0.0899221 -0.00997307 0.000813749)
(-0.0648342 -0.0171239 -0.0034304)
(-0.0737773 -0.0026932 -0.00118208)
(-0.0582781 -0.0141358 0.000503048)
(-0.0739593 -0.00410065 -0.00195663)
(-0.0482701 -0.00425915 -0.000693081)
(-0.0665482 -0.00277787 -0.000944816)
(-0.0490991 0.00130669 -0.000243209)
(-0.0516729 0.000545686 -0.00127454)
(-0.0486789 0.00166555 -0.000804877)
(-0.0431952 0.00523626 -0.000301416)
(0.0499378 2.35199 0.155273)
(0.333221 -0.103493 0.0180082)
(0.259818 0.154109 0.0167144)
(0.249395 0.211217 0.070612)
(0.0657132 0.152248 0.0901901)
(-0.123417 0.11664 -0.0145696)
(-0.175692 -0.0113973 0.0355578)
(-0.132572 0.0656502 0.00270484)
(-0.20846 -0.0119223 0.00254041)
(-0.10602 0.0704333 0.0116588)
(-0.216651 -0.0112431 0.00442167)
(-0.0958752 0.0314334 0.0182312)
(-0.248372 -0.0241351 -0.00961858)
(-0.0875753 0.0348097 -0.0267696)
(-0.141531 0.0331522 0.00546738)
(-0.143951 0.0088043 -0.000673707)
(-0.129652 0.000898302 -0.00672646)
(-0.117841 0.000847953 0.00153445)
(-0.141686 -0.0409535 -0.00112062)
(-0.10191 -0.041248 -0.00533858)
(-0.102637 -0.0430253 0.00324742)
(-0.081341 -0.0453381 -0.000186815)
(-0.0845209 -0.0306268 0.0011208)
(-0.0771634 -0.0324584 0.00260931)
(-0.0807787 -0.0177095 -0.0017665)
(-0.0756535 -0.0199381 -0.00118182)
(-0.0733223 -0.0217289 0.00167238)
(-0.0793932 -0.0111195 -0.00233247)
(-0.0678028 -0.0161724 -0.00115082)
(-0.0586924 -0.00931388 -0.00171357)
(-0.0693852 -0.0084077 0.000474181)
(-0.058765 -0.00852381 -0.00144171)
(-0.056564 -0.000151723 -0.00141743)
(-0.055068 -0.00604491 3.36544e-05)
(-0.0486895 0.00100212 -0.000899665)
(-0.0499957 -2.65681e-05 -0.000973861)
(-0.040841 0.000479045 0.000297024)
(0.0369157 1.47837 0.0924511)
(0.282187 0.50311 -0.0820318)
(0.291724 0.516402 -0.0922503)
(0.40267 0.546953 -0.0632903)
(0.392397 0.532166 -0.0711869)
(0.319062 0.429994 -0.0293757)
(0.00865742 0.293741 0.00229589)
(0.0253984 0.308058 -0.0440819)
(0.0671861 0.258781 -0.0568702)
(0.107861 0.227138 -0.0414498)
(0.111897 0.166074 -0.0382989)
(0.117422 0.161121 -0.0162995)
(0.0801283 0.197847 -0.0159745)
(0.0147363 0.104128 0.0184236)
(-0.0800468 0.081778 0.0175188)
(-0.0918692 0.0573434 0.00499386)
(-0.113111 0.0253324 0.00720469)
(-0.116206 0.0273179 0.00527514)
(-0.0987916 -0.0121187 -0.00353193)
(-0.0974992 -0.0305118 0.000128145)
(-0.0736627 -0.0427453 -0.00321918)
(-0.0698173 -0.0391497 -0.00580705)
(-0.0411955 -0.0428959 0.00215285)
(-0.0623401 -0.0188606 0.00124813)
(-0.0569138 -0.00970812 0.0029614)
(-0.0826653 -0.013405 -0.000230495)
(-0.0698577 -0.00766419 -0.0018043)
(-0.0686599 -0.00936795 0.00330658)
(-0.071642 -0.011849 -0.00450339)
(-0.055136 -0.0018469 -0.00103568)
(-0.067706 -0.0024073 0.00112087)
(-0.0594872 -0.00612554 -0.00266537)
(-0.0581024 0.00223199 -3.36905e-05)
(-0.0540925 -0.00249632 -0.00161812)
(-0.0531731 0.00230884 0.00017304)
(-0.0489219 0.000805701 -0.0010507)
(-0.0463361 0.00152986 -0.000118673)
(-0.0640505 0.708098 0.0418763)
(0.124728 0.00110783 -0.0218361)
(0.0966458 0.267302 -0.0295098)
(0.186838 0.355117 -0.0388452)
(0.253103 0.447532 -0.0159662)
(0.0825077 0.408521 0.0431632)
(-0.172923 0.236207 0.014307)
(-0.118474 0.101772 -0.00292268)
(-0.11571 0.066127 0.00852398)
(-0.0950629 0.101154 0.00400245)
(-0.0566814 0.0865406 0.0123582)
(-0.0785546 0.0934454 0.00822331)
(-0.0544281 0.0916905 0.0203948)
(-0.0875885 0.038416 0.0167137)
(-0.0724799 0.034355 0.000637386)
(-0.0477172 0.00233888 0.000623923)
(-0.0211197 -0.0292415 -7.64393e-05)
(-0.0589209 -0.0512798 -0.0043045)
(-0.0734299 -0.0629106 0.00138454)
(-0.105308 -0.0801904 0.001727)
(-0.0636985 -0.0585992 -0.0106902)
(-0.042764 -0.0530883 -0.00459525)
(-0.0397322 -0.048644 -0.00947402)
(-0.00985976 -0.0352533 -0.00441371)
(-0.0157315 -0.0176666 0.0031418)
(-0.0427283 0.000754019 0.00597978)
(-0.0701123 -0.0253391 0.00596404)
(-0.0626625 -0.0289644 0.00268656)
(-0.0767814 -0.00493814 -0.00311918)
(-0.0466296 -0.00604798 -0.00151998)
(-0.068134 -0.00682014 0.00269164)
(-0.0619751 -0.00114374 -0.00254445)
(-0.0543909 -0.00190231 -0.00101027)
(-0.0556578 -0.000889699 0.000120006)
(-0.0538066 -0.000443296 -0.000873089)
(-0.0470124 0.000260911 0.000317295)
(-0.0529782 -0.000479666 -0.00107556)
(0.0822509 0.793389 0.110363)
(0.165804 0.512332 0.0500039)
(0.0446022 0.458542 0.0505624)
(0.180449 0.520269 0.0463653)
(0.338087 0.539885 0.0566297)
(0.438078 0.477948 0.0937753)
(0.391488 0.359769 0.0888144)
(0.365637 0.247785 0.0538573)
(0.314499 0.206091 0.0339981)
(0.332362 0.161362 0.034509)
(0.327788 0.0663155 0.0380477)
(0.173728 0.0893555 0.0270853)
(0.237065 0.112135 0.0233649)
(0.247457 0.0603147 0.0198571)
(0.19731 0.0549594 0.00737748)
(0.263702 0.0210583 0.00539327)
(0.177979 0.022478 0.00316433)
(0.180436 0.0981908 -0.00601059)
(0.27147 0.0424665 0.00891438)
(0.118549 -0.0514052 0.0107391)
(0.00221048 -0.0406722 -0.00183247)
(-0.00695337 -0.0125609 -0.00853922)
(-0.00594173 -0.0123931 -0.00951948)
(0.00445276 -0.0161163 -0.00730768)
(0.00670292 -0.013084 -0.011799)
(0.0245891 0.00311482 -0.0147359)
(0.0447513 0.0109498 0.00373317)
(-0.0229543 -0.00958785 0.0109865)
(-0.0633636 -0.0230333 -0.00403384)
(-0.0524536 0.0106321 0.000439988)
(-0.0488614 -0.00483409 0.00116234)
(-0.0785794 -9.92548e-05 -0.0022421)
(-0.0325126 0.00215804 3.19581e-05)
(-0.0703899 -0.00134718 7.80215e-05)
(-0.0415568 0.00270298 -0.00180238)
(-0.0505285 -0.000858491 0.0019201)
(-0.0540129 0.00299961 -0.00190811)
(0.0905425 1.09681 2.24424)
(-0.230834 -3.0322 1.46022)
(0.808393 -1.81945 0.74808)
(1.20258 -1.26037 0.546569)
(1.0784 -0.887037 0.546447)
(0.886287 -0.606399 0.316386)
(0.851811 -0.528575 0.313452)
(0.72398 -0.501727 0.227318)
(0.743152 -0.446147 0.118914)
(0.966775 -0.361502 0.0304874)
(1.04248 -0.181154 0.0230275)
(0.843751 -0.0055006 0.114587)
(0.440722 0.126718 0.161625)
(0.170631 0.0863758 0.0991976)
(0.0742569 0.0270284 0.0426283)
(0.0296368 0.00433177 0.0195666)
(0.00953536 -0.00272604 0.0102693)
(0.00338607 -0.00671225 0.00818375)
(-0.00133473 -0.00843076 0.00504149)
(0.00413785 -0.00973492 0.0063199)
(0.00494197 -0.00928175 0.00618678)
(0.0125303 -0.00904209 0.0036574)
(0.0158791 -0.00851518 0.00241525)
(0.0238017 -0.00718978 0.00383674)
(0.0285954 -0.00762622 0.004329)
(0.0366395 -0.00825992 0.0032424)
(0.0451021 -0.00885592 0.00424491)
(0.051588 -0.00885556 0.00681879)
(0.0571325 -0.00948494 0.00739702)
(0.0654932 -0.0103804 0.00488274)
(0.0727168 -0.0126282 0.00496112)
(0.0768691 -0.0151029 0.00813567)
(0.085995 -0.0124116 0.00461554)
(0.0923096 -0.00941089 -0.00237872)
(0.0872582 -0.0164576 -0.000657356)
(0.088015 -0.0209245 0.00258203)
(0.0960752 0.00138876 -0.00377344)
(0.0883793 0.0272285 -0.0150078)
(1.57993 -3.18916 -1.87621)
(0.88853 -1.04284 -1.49528)
(-0.429847 -0.385007 -1.00807)
(-0.492802 0.513365 -0.595148)
(-0.742331 0.672267 -0.153257)
(-0.453145 -0.0709725 -0.0710777)
(-0.44026 0.284756 -0.204136)
(-0.324276 0.081213 -0.0737917)
(-0.210633 0.0500125 -0.176326)
(-0.199512 0.0953508 -0.147598)
(-0.151397 0.0916259 -0.12386)
(-0.139974 0.163631 -0.0395204)
(-0.106176 0.132034 0.0110385)
(-0.0834689 0.0903773 0.0160233)
(-0.067607 0.038909 0.0157922)
(-0.0789957 0.0127189 0.00736232)
(-0.0797889 -0.0017112 0.00383898)
(-0.0833782 -0.00707348 0.00251667)
(-0.0807133 -0.00988932 -0.00162782)
(-0.0756041 -0.0136296 0.00219764)
(-0.0725848 -0.0132198 -0.00164398)
(-0.0614969 -0.0144189 -0.000965507)
(-0.0614227 -0.0149727 -0.0005902)
(-0.047293 -0.0158554 -3.21386e-05)
(-0.0448416 -0.0170268 -1.7089e-05)
(-0.0357078 -0.0178992 -0.00119498)
(-0.0299714 -0.0188851 0.000133613)
(-0.0229544 -0.0192345 -0.0013657)
(-0.0168598 -0.0185189 -0.00191354)
(-0.0103134 -0.0176617 -0.00242919)
(-0.00455407 -0.0153025 -0.00340341)
(-9.72676e-05 -0.0114442 -0.00528209)
(0.00458322 -0.00593273 -0.00740086)
(0.00978533 0.000489983 -0.00798594)
(0.0132314 0.00772901 -0.00969187)
(0.0180326 0.0149096 -0.0178117)
(0.0290859 0.0200328 -0.0234561)
(0.0436431 0.0173561 -0.0178576)
(-0.817996 0.885001 0.552188)
(-1.66155 -1.26719 0.539761)
(-0.0870487 -0.553611 0.196688)
(-0.642746 -0.634767 0.0847953)
(-0.562114 0.125675 -0.167144)
(-0.296992 -0.63705 0.326204)
(-0.281589 -0.160435 -0.152705)
(-0.201054 -0.355849 0.122719)
(-0.127128 -0.13362 0.0107595)
(-0.190544 -0.120523 -0.0261335)
(-0.131714 -0.100352 0.0378734)
(-0.147098 0.0310711 -0.0033308)
(-0.110614 0.0286473 0.0195756)
(-0.109578 0.0350736 0.00811643)
(-0.103104 0.0137579 -0.00113042)
(-0.0980657 0.00285695 0.00604347)
(-0.107539 -0.00826282 -0.00445842)
(-0.0998468 -0.0128456 0.00038743)
(-0.105018 -0.0160784 -0.00559423)
(-0.0928347 -0.0199805 0.00108324)
(-0.0949797 -0.0194965 -0.00398674)
(-0.0831482 -0.0211973 -0.00124534)
(-0.0829019 -0.0227161 -0.0018101)
(-0.0698135 -0.0204421 -0.00442121)
(-0.0692066 -0.0212449 -0.00272909)
(-0.0597127 -0.0227351 -0.00418247)
(-0.0535523 -0.0213758 -0.00237206)
(-0.0484254 -0.0210932 -0.00540024)
(-0.0437086 -0.020587 -0.004556)
(-0.036156 -0.0198451 -0.00445481)
(-0.0313638 -0.0180415 -0.00620521)
(-0.0258556 -0.0150104 -0.00634245)
(-0.017822 -0.0112029 -0.00630566)
(-0.00965082 -0.00679184 -0.00647471)
(0.000724607 -0.00438138 -0.00556262)
(0.0128041 -0.00234058 -0.00452558)
(0.0244491 0.00114135 -0.000126393)
(-0.561015 1.30725 0.429888)
(-0.0205995 0.331276 -0.165215)
(-0.635149 0.13365 0.0993028)
(-0.170546 0.0690745 0.209679)
(-0.13734 -0.303358 -0.179656)
(-0.308861 0.165731 -0.0699613)
(-0.27685 -0.0301276 -0.0312057)
(-0.246639 0.125077 -0.0246587)
(-0.225544 0.00911897 -0.0483211)
(-0.207813 0.0626148 -0.0469137)
(-0.21515 0.0657928 -0.0118347)
(-0.172367 0.0615708 -0.0161102)
(-0.147741 0.0545043 -0.00333675)
(-0.132424 0.0483694 0.00451315)
(-0.117889 0.0135175 -0.00330758)
(-0.11927 0.0240293 -0.000540892)
(-0.115707 -0.000573147 -0.0026566)
(-0.115376 -0.00359394 -0.00202828)
(-0.115193 -0.00820637 -0.00382768)
(-0.107765 -0.0195525 -0.000473354)
(-0.108563 -0.0178123 -0.00305114)
(-0.0974134 -0.0193052 -0.0033922)
(-0.0946726 -0.0221052 -0.000408563)
(-0.0879894 -0.0208733 -0.00726815)
(-0.0834328 -0.0248789 0.00057054)
(-0.0730276 -0.0234026 -0.0020045)
(-0.0709111 -0.0205287 -0.00168021)
(-0.0636249 -0.0213975 -0.00401789)
(-0.0613335 -0.0204182 -0.000490636)
(-0.0522622 -0.0171646 -0.00166272)
(-0.0506949 -0.0133227 -0.00424349)
(-0.04714 -0.012383 -0.00166638)
(-0.0395345 -0.00772791 0.000161589)
(-0.0382083 -0.00382104 -0.000908618)
(-0.0337746 -0.00153502 0.00406237)
(-0.0331368 -0.000163126 0.00633727)
(-0.0306812 0.0019044 0.00761927)
(-0.444641 1.46953 0.099155)
(-0.00923999 -0.190149 -0.332871)
(-0.044057 -0.219401 -0.0017096)
(-0.00386542 -0.381219 -0.218697)
(-0.0107148 -0.350052 0.0929413)
(-0.170918 -0.175422 -0.0860781)
(-0.144504 -0.210852 -0.0341548)
(-0.209239 -0.113707 -0.0317068)
(-0.162555 -0.0924004 -0.0117971)
(-0.165261 -0.0424695 -0.0242885)
(-0.174062 -0.0177833 -0.0214556)
(-0.155638 -0.00558514 0.000326503)
(-0.14172 0.019847 -0.0136098)
(-0.139141 0.029928 -0.00752229)
(-0.127354 -0.00508068 0.00266486)
(-0.127105 0.0179933 -0.00905293)
(-0.123716 -0.00728143 -0.0039096)
(-0.121703 -0.00632378 0.00150692)
(-0.118768 -0.012727 -0.0105131)
(-0.11466 -0.0171383 0.00183521)
(-0.110541 -0.0216951 -0.00290214)
(-0.104191 -0.0198606 -0.00929206)
(-0.10163 -0.0242789 -0.000714168)
(-0.0926737 -0.0246279 -0.00539079)
(-0.0913959 -0.0233416 -0.00274346)
(-0.0862798 -0.0227232 -0.00450538)
(-0.0840165 -0.0243822 -0.00642493)
(-0.0789613 -0.0223345 -0.00283557)
(-0.0781178 -0.0207206 -0.00244885)
(-0.0733206 -0.019468 -0.00602854)
(-0.0723515 -0.0172239 -0.0035871)
(-0.0672385 -0.0160942 0.000853896)
(-0.0652554 -0.012446 -0.00346285)
(-0.0591317 -0.00705888 -0.00166212)
(-0.0588055 -0.00567159 0.00249093)
(-0.0510639 -0.00160642 -0.000756522)
(-0.049542 -7.644e-05 0.00164665)
(-0.0447692 -0.00013707 0.000330706)
(-0.232827 1.40201 -0.0979598)
(-0.0019325 -0.0420498 -0.292368)
(-0.0688749 0.242943 -0.0307068)
(0.0235918 0.216674 -0.0195971)
(-0.0227538 0.19283 0.00111193)
(-0.076436 0.180591 -0.000818231)
(-0.045361 0.203764 0.0434916)
(-0.149392 0.0950559 0.0558859)
(-0.170046 0.0221124 0.0382381)
(-0.123216 0.0792479 -0.00193911)
(-0.170134 0.0471381 -0.0124027)
(-0.135184 0.070304 0.0042658)
(-0.153846 0.0450891 0.00837736)
(-0.127647 0.0379284 -0.0192822)
(-0.135773 0.0392039 0.0141246)
(-0.12023 0.0193222 -0.011651)
(-0.128762 0.0150093 -0.00319207)
(-0.120745 0.00723446 0.000306791)
(-0.122407 -0.00831866 -0.00484425)
(-0.111083 -0.00871576 -0.00169791)
(-0.114303 -0.0158463 -0.00114716)
(-0.0997995 -0.0222473 -0.00542267)
(-0.102536 -0.0181194 -0.00306583)
(-0.0872834 -0.0184022 0.000677287)
(-0.0897487 -0.0182319 -0.00828309)
(-0.0831787 -0.018279 -0.00410896)
(-0.0786438 -0.0203716 -0.000768102)
(-0.0779611 -0.0142683 -0.00560215)
(-0.0736911 -0.0127555 -0.00392067)
(-0.0726114 -0.0153282 -0.00416153)
(-0.0700585 -0.0104677 -0.00226672)
(-0.0666157 -0.0081688 -0.00337981)
(-0.0651467 -0.00719982 -0.0040956)
(-0.062042 -0.00313052 -0.00204256)
(-0.0588449 -0.00207434 -0.00230289)
(-0.0537438 -0.00117668 -0.00240761)
(-0.0513213 0.00132514 -0.00108596)
(-0.0468474 0.0010791 -0.00248772)
(-0.0253081 1.01122 -0.0562263)
(-0.00472347 -0.133932 -0.32941)
(-0.0828083 -0.080834 -0.0508254)
(0.0629927 -0.150728 0.0486436)
(-0.100101 -0.224508 0.064164)
(-0.197681 -0.104831 0.00311333)
(-0.0025286 0.0508201 0.0231675)
(-0.139026 -0.0023513 0.00270653)
(-0.112955 0.0340332 -0.050644)
(-0.177057 0.0136399 -0.0431005)
(-0.151976 0.0333673 -0.0493896)
(-0.177905 0.0104941 -0.0411699)
(-0.141795 0.0205473 -0.0376427)
(-0.183651 -0.00414091 -0.00127466)
(-0.126511 0.0227971 -0.00730756)
(-0.152697 0.00342261 -0.00718492)
(-0.133353 0.00655039 0.0039048)
(-0.136701 -0.00512058 -0.0108072)
(-0.134599 -0.0183221 0.00674626)
(-0.114374 -0.0169975 -0.0015506)
(-0.123148 -0.0230179 -0.0030626)
(-0.100314 -0.0259343 0.000967223)
(-0.10401 -0.0242899 -0.00247479)
(-0.0905555 -0.0202093 -0.00501102)
(-0.0923567 -0.0220061 -0.000692772)
(-0.080339 -0.0213518 -0.00562309)
(-0.0824292 -0.0188665 -0.000278701)
(-0.0766847 -0.0158346 -0.00431058)
(-0.0738102 -0.0162842 -0.00446171)
(-0.070494 -0.013656 -0.00117644)
(-0.0685931 -0.0109477 -0.00328703)
(-0.0647981 -0.0102791 -0.00365227)
(-0.0630468 -0.00760167 -0.0027208)
(-0.059684 -0.00389795 -0.00151322)
(-0.0560446 -0.00471135 -0.00368607)
(-0.0531576 -0.00170469 -0.00149688)
(-0.0501277 -0.00104027 -0.00203073)
(0.0950549 0.922381 0.161417)
(0.175578 -0.152355 -0.204635)
(0.0483288 0.0914134 -0.0779932)
(0.123092 0.23506 -0.0749934)
(0.0422213 0.283093 -0.0287233)
(-0.0756884 0.127886 -0.00874637)
(-0.0743553 0.102552 0.0156963)
(-0.072245 0.118064 -0.0238456)
(-0.0972846 0.0452935 -0.0167354)
(-0.0564857 0.0961938 -0.031064)
(-0.0838151 0.0493083 -0.0152673)
(-0.0654247 0.0813028 0.00666031)
(-0.119949 0.0526841 0.0569538)
(-0.0778935 0.075553 0.035232)
(-0.142753 0.0328829 -0.0106232)
(-0.118439 0.0405591 0.00613554)
(-0.137957 0.0236461 -0.0026506)
(-0.128099 0.00780836 -0.00263798)
(-0.136886 -0.00617533 0.00422721)
(-0.111266 -0.0142883 -0.00416309)
(-0.118721 -0.0247414 0.00244572)
(-0.0993498 -0.0235332 0.000267723)
(-0.101336 -0.0246093 -0.000141374)
(-0.087709 -0.017984 -0.00177304)
(-0.0902323 -0.0162871 -0.00592007)
(-0.0805072 -0.0179781 -0.00261488)
(-0.081938 -0.0132987 -0.000332468)
(-0.0747242 -0.0135162 -0.00536402)
(-0.0740028 -0.0118852 -0.00352035)
(-0.0678833 -0.00865463 -0.00173309)
(-0.0700422 -0.00823791 -0.00362475)
(-0.0615458 -0.00667974 -0.00291132)
(-0.0638983 -0.00370962 -0.00272516)
(-0.0574851 -0.00241345 -0.00215784)
(-0.0552172 -0.00209637 -0.00287471)
(-0.0529687 1.61263e-05 -0.00225712)
(-0.0486171 0.000372711 -0.00174583)
(0.0431956 0.190776 0.2365)
(0.152453 -0.306904 -0.0683402)
(0.0696083 -0.0740698 -0.0531946)
(0.080721 0.0179521 0.0443986)
(-0.00880734 0.0340599 0.100383)
(-0.179633 -0.0208158 0.0977897)
(-0.228334 -0.034861 -0.0038134)
(-0.137674 -0.0245925 0.00600622)
(-0.183047 -0.0299505 -0.0080809)
(-0.13025 0.027016 0.0106276)
(-0.173308 0.00672972 0.00419169)
(-0.128486 0.0340261 0.00522986)
(-0.179503 0.0214627 -0.025238)
(-0.110953 0.0498581 -0.0190559)
(-0.16243 0.0295111 0.000938224)
(-0.136307 0.0143891 -0.00366874)
(-0.136582 0.010374 -0.00821784)
(-0.138629 -0.0102363 0.0024753)
(-0.142683 -0.0291812 -0.00149106)
(-0.12067 -0.0371066 -0.00416954)
(-0.112561 -0.0380389 0.0031691)
(-0.0969412 -0.0348207 0.000398592)
(-0.0923545 -0.0296698 0.00309333)
(-0.0862465 -0.0243841 0.00245922)
(-0.0858007 -0.0199268 -0.0041885)
(-0.0814539 -0.0179169 -0.00366576)
(-0.0783804 -0.0172523 0.00029659)
(-0.0775584 -0.0159114 -0.00360894)
(-0.0718574 -0.0128653 -0.00422316)
(-0.067327 -0.00845492 -0.00285849)
(-0.0697078 -0.00893821 -0.0015797)
(-0.0619539 -0.00746148 -0.00366904)
(-0.0618266 -0.00337158 -0.00261076)
(-0.0583476 -0.00413962 -0.001865)
(-0.0541187 -0.00237365 -0.00247427)
(-0.0530715 -0.00108697 -0.00201041)
(-0.0482823 -0.00113037 -0.00120732)
(-0.0437713 0.454188 0.143357)
(0.260681 0.0468616 -0.0750656)
(0.192843 0.199285 -0.106156)
(0.249208 0.390508 -0.0939681)
(0.152662 0.404942 -0.0677698)
(0.0139464 0.286614 0.0263433)
(-0.0917606 0.166975 -0.0252498)
(-0.0506639 0.139204 -0.0303148)
(-0.0697685 0.135183 -0.0408869)
(-0.0743551 0.133827 -0.0210399)
(-0.0957729 0.105639 -0.0268238)
(-0.0692014 0.112941 -0.0079437)
(-0.0660992 0.0935657 0.00181945)
(-0.0917193 0.062065 0.0355344)
(-0.0878159 0.0760564 0.0206128)
(-0.105549 0.051054 0.0120691)
(-0.111967 0.022637 0.0161451)
(-0.113382 0.021272 0.012031)
(-0.106744 -0.0100062 7.15705e-05)
(-0.108159 -0.0413437 7.73223e-05)
(-0.0872029 -0.0366062 -0.00660606)
(-0.0851502 -0.0373471 -0.00676171)
(-0.0669976 -0.0292625 0.00164996)
(-0.0734438 -0.0119339 0.00541985)
(-0.0755659 -0.00760497 0.00395021)
(-0.0832205 -0.0136933 -0.00364073)
(-0.0766671 -0.00562084 -0.00224633)
(-0.0703818 -0.0116116 0.00423036)
(-0.07314 -0.011858 -0.00758838)
(-0.063582 -0.00165125 -0.00239211)
(-0.0688575 -0.00557036 -5.13964e-05)
(-0.0617005 -0.00561536 -0.00573303)
(-0.0613318 -0.00067719 -0.00132212)
(-0.0580594 -0.00232362 -0.00317568)
(-0.0557059 -0.000681225 -0.0020057)
(-0.0521345 0.000101917 -0.0018976)
(-0.0509979 -8.11572e-05 -0.00177467)
(0.205791 -0.161232 0.0629901)
(0.282511 -0.438869 0.026295)
(0.0315415 -0.160723 0.0705703)
(-0.038812 0.0959816 0.0190489)
(-0.00692942 0.265927 0.0883534)
(-0.099626 0.238146 0.142498)
(-0.165796 0.0246993 0.0751193)
(-0.234272 -0.0682827 0.0246872)
(-0.208873 -0.0248395 0.0159214)
(-0.195876 0.014569 0.0255725)
(-0.147008 0.0138359 0.0405921)
(-0.138115 0.02451 0.0275023)
(-0.0962792 0.0365933 0.0331819)
(-0.0874471 0.0456354 0.0174985)
(-0.054408 0.0467574 -9.1647e-05)
(-0.0305361 0.0224665 0.00167807)
(-0.00380389 -0.00586458 0.00292891)
(-0.0226483 -0.0351332 -0.00819947)
(-0.0542907 -0.0607078 0.00765018)
(-0.0900328 -0.0753614 0.00865646)
(-0.0803968 -0.0587909 -0.0147901)
(-0.0676041 -0.0510393 -0.0146324)
(-0.053662 -0.0405721 -0.0206094)
(-0.0420747 -0.021133 -0.00518711)
(-0.0440982 -0.00440328 0.0137723)
(-0.0755584 -0.00430843 0.00813203)
(-0.0771023 -0.0260509 -0.00507378)
(-0.0637025 -0.0232254 0.00259302)
(-0.0844379 -0.00742183 6.74629e-05)
(-0.0510689 -0.00579182 -0.00696736)
(-0.0732722 -0.00522298 0.00482583)
(-0.0595172 -0.00381762 -0.0067547)
(-0.0618124 -0.000948371 -0.00139905)
(-0.0556859 -0.00194462 -0.00125198)
(-0.0582571 -0.000199357 -0.00316808)
(-0.0489866 -0.000203225 0.000302963)