/*--------------------------------*- C++ -*----------------------------------*\
| =========                 |                                                 |
| \\      /  F ield         | OpenFOAM: The Open Source CFD Toolbox           |
|  \\    /   O peration     | Version:  2.3.1                                 |
|   \\  /    A nd           | Web:      www.OpenFOAM.org                      |
|    \\/     M anipulation  |                                                 |
\*---------------------------------------------------------------------------*/
FoamFile
{
    version     2.0;
    format      ascii;
    class       volVectorField;
    location    "20";
    object      U_0;
}
// * * * * * * * * * * * * * * * * * * * * * * * * * * * * * * * * * * * * * //

dimensions      [0 1 -1 0 0 0 0];

internalField   nonuniform List<vector> 
37632
(
(3.56622 -10.6172 -4.98291)
(0.571489 -5.09346 -1.10747)
(1.93253 -3.33925 -0.366185)
(2.08233 -2.29555 -0.119638)
(1.5485 -1.26893 0.0855307)
(1.3303 -0.909853 0.0234808)
(0.968746 -0.644503 0.0765071)
(0.818797 -0.558555 0.0494373)
(0.711479 -0.545358 0.0176467)
(0.786196 -0.540769 -0.00171428)
(1.05756 -0.398742 -0.030287)
(1.07951 -0.155602 0.0081421)
(0.661195 0.0806033 0.0547093)
(0.25571 0.09162 0.0427426)
(0.100219 0.0310072 0.0179751)
(0.0407088 0.00423854 0.00780121)
(0.0187023 -0.00327783 0.00368364)
(0.0131193 -0.00725232 0.00328157)
(0.00469622 -0.00944798 0.0018075)
(0.0146909 -0.0101246 0.00249323)
(0.010241 -0.010425 0.0031189)
(0.0198154 -0.0106529 0.00143308)
(0.0240539 -0.00928082 0.000283976)
(0.0347924 -0.00722642 0.00135152)
(0.0378759 -0.007222 0.0019197)
(0.0452497 -0.00772367 0.00103008)
(0.0553432 -0.00819816 0.00125149)
(0.0626782 -0.00812011 0.00294941)
(0.0638767 -0.00985449 0.00391392)
(0.0688883 -0.0113906 0.00210719)
(0.0815134 -0.0123844 0.00120948)
(0.0868666 -0.0158951 0.00404391)
(0.0854327 -0.0184381 0.00376321)
(0.0958938 -0.0143207 -0.00202163)
(0.108776 -0.0135782 -0.00291087)
(0.104785 -0.0245442 0.00131253)
(0.0991454 -0.0264668 0.00174211)
(0.0992906 -0.00694412 -0.00217341)
(-0.784026 4.87856 -1.22876)
(-2.01885 2.32296 -1.12719)
(-1.09721 1.45816 -0.768421)
(-1.46026 0.976705 -0.200201)
(-0.775643 0.258638 -0.00801413)
(-0.835813 0.665548 -0.362261)
(-0.553805 0.0355179 0.0985003)
(-0.499921 0.301826 -0.023171)
(-0.421948 0.21328 -0.103449)
(-0.374177 0.0877312 -0.0473077)
(-0.19158 0.157676 -0.077771)
(-0.154468 0.186773 -0.0183692)
(-0.130956 0.136184 -0.00254523)
(-0.0726588 0.108409 0.00488193)
(-0.0697561 0.0431197 0.00712717)
(-0.0834474 0.0133167 0.00224004)
(-0.0778495 -0.00160241 0.00146494)
(-0.0881631 -0.00347869 0.000738582)
(-0.0806015 -0.00614105 -0.00211786)
(-0.0727729 -0.0133196 0.00140703)
(-0.0797774 -0.0127378 -0.00129613)
(-0.0525558 -0.0118432 -0.00135229)
(-0.0655354 -0.0102239 -0.00110181)
(-0.0432886 -0.0158439 0.000301317)
(-0.0473946 -0.0155657 -0.000570042)
(-0.033468 -0.0163101 -0.0017436)
(-0.0316628 -0.0188935 -5.81325e-05)
(-0.0229247 -0.0193606 -0.00164238)
(-0.0162129 -0.0187365 -0.00202025)
(-0.00987699 -0.0183616 -0.00202648)
(-0.00271858 -0.0156685 -0.0026253)
(0.00331584 -0.0117023 -0.00374668)
(0.00939903 -0.00565161 -0.00499333)
(0.0159665 0.00251712 -0.00495667)
(0.0188122 0.0136158 -0.00520929)
(0.0219796 0.0261308 -0.0101723)
(0.0339948 0.0350561 -0.0165388)
(0.0550953 0.0352993 -0.0163714)
(-0.959222 3.09212 -0.512621)
(-1.46803 -0.259452 0.183443)
(-0.413492 0.797096 -0.10158)
(-1.04278 -0.361392 -0.321734)
(0.679861 -1.17231 -0.457833)
(-0.174226 -0.313432 0.09962)
(0.224514 -0.474877 -0.0540477)
(-0.17659 -0.423973 0.0618685)
(-0.120742 -0.0815731 0.0100026)
(-0.0593061 -0.313894 -0.0421975)
(-0.11917 -0.120053 0.031355)
(-0.0924545 -0.0231704 -0.00784409)
(-0.0913709 0.0305311 0.0117811)
(-0.111609 0.0320753 0.00420048)
(-0.0619406 0.0123621 -0.00800562)
(-0.0921733 0.00209633 0.00786502)
(-0.0849975 -0.00998437 -0.00495599)
(-0.0882667 -0.0111603 0.0011458)
(-0.0909647 -0.0147276 -0.00442056)
(-0.0693436 -0.018908 0.00189958)
(-0.0872884 -0.0206891 -0.00362863)
(-0.0590661 -0.0178798 0.000509721)
(-0.0702965 -0.0130901 -0.000809435)
(-0.0475059 -0.0231156 -0.00184571)
(-0.0535714 -0.0147202 -0.00210727)
(-0.0331284 -0.0147433 -0.0028622)
(-0.0359342 -0.0177398 0.000178918)
(-0.0254883 -0.0150426 -0.00287988)
(-0.0202793 -0.0139938 -0.00267957)
(-0.0155957 -0.0148471 -0.00145478)
(-0.00945473 -0.0129287 -0.00297588)
(-0.00379522 -0.00940723 -0.00340612)
(0.00350888 -0.00511679 -0.00323649)
(0.0115482 0.00246509 -0.00351779)
(0.0215836 0.00954769 -0.00338193)
(0.0336026 0.0164355 -0.0035231)
(0.053624 0.0208348 -0.00381083)
(-0.945979 3.05858 -0.256956)
(-0.539643 -0.829428 0.146781)
(-0.0641876 0.547088 0.162553)
(-0.576339 0.0290941 0.000571041)
(-0.429666 0.564979 -0.235323)
(-0.299707 -0.175778 0.0172311)
(-0.0394652 0.349658 -0.0450852)
(-0.358417 0.117545 0.0110782)
(-0.111417 0.00525669 -0.0423533)
(-0.228983 0.1636 -0.0268813)
(-0.193383 -0.0185832 0.00264119)
(-0.163869 0.137968 -0.012949)
(-0.129218 0.0393871 -0.00258326)
(-0.148803 0.04122 0.00759353)
(-0.0823589 0.0414768 -0.00871844)
(-0.135871 0.00697141 0.00405944)
(-0.0971246 0.015148 -0.00282578)
(-0.111608 -0.000519693 -0.000693224)
(-0.106863 -0.00204778 -0.00204302)
(-0.0945442 -0.024243 0.00155466)
(-0.10603 -0.00704267 -0.00310908)
(-0.084278 -0.0268812 0.000250455)
(-0.0864035 -0.0164497 0.00164711)
(-0.0698155 -0.0193168 -0.00676163)
(-0.0714052 -0.0208339 0.00217406)
(-0.0469505 -0.0180483 0.000614725)
(-0.0628328 -0.0221492 0.000118948)
(-0.0364753 -0.0177249 -0.00251486)
(-0.0354549 -0.0131931 0.000380072)
(-0.0325846 -0.0169335 0.00104138)
(-0.0239983 -0.00845222 -0.00228479)
(-0.016843 -0.00518336 -0.00161782)
(-0.0126661 -0.00148357 0.000530711)
(-0.00794196 0.00509359 -0.00089003)
(-0.00247423 0.00970938 0.00145367)
(-0.00547132 0.0109581 0.0036708)
(-0.00722128 0.0117881 0.00476012)
(-1.01162 3.01534 -0.25209)
(0.287273 -0.723772 -0.305099)
(-0.0576534 -0.0491716 -0.0180219)
(0.253456 -0.309869 -0.149349)
(0.128679 -0.422659 0.0763184)
(-0.116488 -0.487327 -0.112551)
(-0.211883 -0.20536 0.0258814)
(-0.202907 -0.251291 -0.0566254)
(-0.187688 -0.0150712 0.0146597)
(-0.202699 -0.04607 -0.0339556)
(-0.0831589 -0.0995972 -0.0208839)
(-0.212687 0.0051485 0.0100656)
(-0.109272 0.0414618 -0.0127023)
(-0.137696 -0.0296295 -0.0121252)
(-0.120053 0.0259672 0.0115984)
(-0.1345 0.00645853 -0.0141157)
(-0.103411 -0.0215636 0.000486751)
(-0.131326 0.00230961 0.0039071)
(-0.113929 -0.0199451 -0.0129139)
(-0.0976058 -0.0225993 0.00596994)
(-0.13427 -0.0174713 -0.00126554)
(-0.0847733 -0.0291759 -0.0106134)
(-0.106807 -0.0271854 0.00263444)
(-0.0831607 -0.0105717 -0.00412548)
(-0.0890076 -0.039179 0.00172359)
(-0.0905484 -0.0180402 -0.00173318)
(-0.0776017 -0.0267099 -0.00555251)
(-0.0652217 -0.0243623 -6.5414e-05)
(-0.0750103 -0.0171514 0.00135933)
(-0.0703286 -0.0243356 -0.00390933)
(-0.0564856 -0.0127961 -0.00254634)
(-0.0564079 -0.0122033 0.0030817)
(-0.0641921 -0.0142526 -0.000640398)
(-0.0422508 -0.00208113 -0.000505331)
(-0.0556949 -0.00283328 0.00323216)
(-0.0445045 0.0014909 0.000778906)
(-0.0452926 0.00319534 0.00192764)
(-0.0428118 0.00103957 0.000658394)
(-0.721477 3.30975 -0.285496)
(0.122989 -0.239989 -0.25853)
(0.140255 0.481777 -0.105357)
(0.391887 0.530656 -0.01891)
(0.320439 0.43123 0.0250949)
(0.292701 0.501662 -0.0388629)
(0.112813 0.368886 0.0458809)
(-0.00355518 0.241951 0.0430625)
(-0.224904 -0.0075362 0.0330036)
(-0.080563 0.134771 0.00204589)
(-0.185949 0.0498509 -0.0111692)
(-0.0766371 0.125909 0.00446457)
(-0.188387 0.0216069 0.00602835)
(-0.0596885 0.0844118 -0.0321829)
(-0.161055 0.0186598 0.0223015)
(-0.0907748 0.0341443 -0.0153602)
(-0.132554 0.0252372 -0.00141293)
(-0.108206 -0.00412806 0.00197678)
(-0.123385 0.0172703 -0.00481331)
(-0.0889662 -0.0206893 -0.000634875)
(-0.121896 -0.0093745 0.00198408)
(-0.0889197 -0.0128046 -0.00540999)
(-0.0959537 -0.0227577 -0.00174712)
(-0.0848066 -0.0165499 0.00571903)
(-0.0928197 -0.0123097 -0.0086279)
(-0.0704678 -0.016707 -0.00133145)
(-0.0715819 -0.0215554 0.00223479)
(-0.0817206 -0.0128503 -0.00247404)
(-0.0668567 -0.00744496 -0.0012629)
(-0.0664459 -0.0152171 -0.00254003)
(-0.0668904 -0.00703943 0.00100912)
(-0.064768 -0.00790272 -0.000769322)
(-0.0614084 -0.00664989 -0.00217556)
(-0.0569523 0.00272448 -0.000135194)
(-0.0603439 -0.00160149 -0.000315238)
(-0.0473664 0.00177242 -0.00113306)
(-0.0511143 0.00340253 0.000151742)
(-0.0435374 0.00444323 -0.00131321)
(-0.636693 3.26464 -0.345377)
(0.151334 -0.594662 -0.324318)
(0.11314 -0.088397 -0.0831985)
(0.206038 -0.233162 0.0551083)
(-0.218123 -0.426568 0.0294647)
(-0.286035 -0.152637 0.00271874)
(-0.127585 -0.0925012 0.00706782)
(-0.351732 -0.143705 -0.0237559)
(-0.198959 -0.0885615 -0.0765497)
(-0.316118 -0.0570886 -0.0158781)
(-0.186397 -0.0481526 -0.0547471)
(-0.224537 -0.00844992 -0.0109482)
(-0.17199 -0.0181749 -0.0500101)
(-0.115085 0.0408238 0.0104404)
(-0.179311 -0.0286062 -0.00865593)
(-0.100839 0.0306944 -0.00464988)
(-0.154073 0.00218583 0.00573939)
(-0.125826 -0.015898 -0.0120307)
(-0.120046 -0.0166534 0.00937683)
(-0.119355 -0.023213 -0.000769029)
(-0.118161 -0.020308 -0.00467787)
(-0.088785 -0.0322568 0.00482116)
(-0.112439 -0.0211506 -0.00259926)
(-0.0692469 -0.0273973 -0.00398534)
(-0.100963 -0.0193187 0.00260529)
(-0.0645202 -0.0251127 -0.00452307)
(-0.0791274 -0.0210147 0.00168439)
(-0.0801692 -0.0123221 -0.00185281)
(-0.0606665 -0.0198022 -0.00363732)
(-0.0687094 -0.0116068 0.0019711)
(-0.0633349 -0.0109648 -0.00145778)
(-0.0619158 -0.00919067 -0.00190498)
(-0.0558303 -0.00820616 -0.00090289)
(-0.0583259 0.00194923 0.000356201)
(-0.0520711 -0.00645275 -0.00231796)
(-0.0479212 0.000923714 4.48586e-05)
(-0.0487862 0.000804013 -0.000941653)
(-0.522333 3.75278 -0.105186)
(0.350395 0.43174 -0.249644)
(0.242749 0.496128 -0.146536)
(0.402095 0.599612 -0.104748)
(0.306496 0.651893 -0.0430916)
(-0.0289849 0.369567 -0.0421832)
(0.0774256 0.304224 -0.0671619)
(0.00677333 0.306775 -0.0559414)
(0.041579 0.228685 -0.0651995)
(0.0597542 0.239955 -0.0365914)
(0.0309543 0.173379 -0.0461298)
(0.120157 0.207748 -0.0301693)
(0.0609839 0.132503 0.0284927)
(-0.100817 0.0716752 0.0295975)
(-0.10835 0.0453851 -0.0118942)
(-0.121231 0.0412085 0.0061205)
(-0.125259 0.0280328 -0.00286401)
(-0.106249 0.0157068 -0.0041097)
(-0.135309 -0.0165534 0.00486159)
(-0.105072 -0.0169331 -0.00338336)
(-0.105719 -0.0178068 0.000669939)
(-0.0921132 -0.0271153 0.00141525)
(-0.0968215 -0.0324287 0.000785937)
(-0.0839729 -0.0061229 -0.000695856)
(-0.0892598 -0.0228387 -0.00385426)
(-0.0644008 -0.0154268 0.000375838)
(-0.0899132 -0.00996925 0.000825456)
(-0.0648603 -0.0171427 -0.00342591)
(-0.0737819 -0.00268874 -0.00119286)
(-0.0582701 -0.0141292 0.00050784)
(-0.0739762 -0.00411247 -0.00195431)
(-0.0482744 -0.00424949 -0.000694707)
(-0.0665417 -0.00278003 -0.00094543)
(-0.0491173 0.00131264 -0.000241744)
(-0.0516631 0.000554668 -0.0012734)
(-0.0486826 0.00166475 -0.00080624)
(-0.04319 0.00524076 -0.00029996)
(0.096184 2.1102 0.180105)
(0.329495 -0.103609 0.023894)
(0.267084 0.163336 0.0193781)
(0.247774 0.21497 0.0723201)
(0.0654619 0.151714 0.0900941)
(-0.120435 0.118586 -0.0152388)
(-0.17693 -0.0109088 0.0359052)
(-0.132451 0.0661416 0.00270006)
(-0.208902 -0.0118439 0.00255937)
(-0.105781 0.0702958 0.0116716)
(-0.216451 -0.0112209 0.0044454)
(-0.0956498 0.0313983 0.0182503)
(-0.248309 -0.0239726 -0.00953052)
(-0.0879983 0.0344012 -0.0267663)
(-0.141196 0.0332252 0.00538994)
(-0.144016 0.00870414 -0.000601773)
(-0.12979 0.000645344 -0.00674605)
(-0.117828 0.000793496 0.00151187)
(-0.141698 -0.0409871 -0.00107755)
(-0.101882 -0.0413558 -0.0053712)
(-0.102602 -0.0430297 0.00322877)
(-0.0813027 -0.045388 -0.000172953)
(-0.0845253 -0.0306456 0.00110227)
(-0.0771434 -0.0324798 0.00260919)
(-0.0807705 -0.0177335 -0.00176357)
(-0.0756389 -0.0199255 -0.00119257)
(-0.0733028 -0.0217587 0.00167895)
(-0.0793851 -0.0111255 -0.00232926)
(-0.0678423 -0.0161628 -0.00115003)
(-0.058676 -0.00932667 -0.00171756)
(-0.0693789 -0.00840009 0.000473723)
(-0.0587843 -0.00853242 -0.00143666)
(-0.0565629 -0.00014664 -0.00142069)
(-0.0550749 -0.00603968 3.36273e-05)
(-0.0486892 0.000998875 -0.000897418)
(-0.0499999 -2.00462e-05 -0.000975934)
(-0.0408393 0.000475047 0.000298114)
(0.0198897 1.38929 0.0662236)
(0.261854 0.515396 -0.0869546)
(0.289506 0.525336 -0.0937818)
(0.403203 0.554264 -0.0656183)
(0.39508 0.538227 -0.0730828)
(0.317375 0.433005 -0.0289993)
(0.00542601 0.294464 0.00185821)
(0.0252659 0.308307 -0.0446532)
(0.0680171 0.259237 -0.0569874)
(0.10846 0.226996 -0.04154)
(0.112802 0.166064 -0.0382056)
(0.117538 0.161639 -0.0163388)
(0.0805633 0.198193 -0.0158437)
(0.014525 0.103966 0.0184784)
(-0.0800393 0.0816781 0.0174943)
(-0.0918192 0.0572395 0.00500875)
(-0.113032 0.0252763 0.00718941)
(-0.116217 0.0273141 0.00528414)
(-0.0987696 -0.0124195 -0.00354649)
(-0.0973518 -0.0305715 9.58562e-05)
(-0.0736544 -0.0427066 -0.00319219)
(-0.0698329 -0.0391275 -0.00583144)
(-0.041178 -0.042877 0.00214809)
(-0.0623295 -0.0189226 0.00124405)
(-0.0568771 -0.00970954 0.00295228)
(-0.082641 -0.0134099 -0.000218697)
(-0.06987 -0.00768388 -0.00181535)
(-0.0686391 -0.00934902 0.00331152)
(-0.0716611 -0.0118563 -0.00449174)
(-0.0551385 -0.00186543 -0.00104895)
(-0.0676916 -0.00238895 0.00112487)
(-0.0595025 -0.00613012 -0.00266168)
(-0.0581078 0.00223127 -3.5391e-05)
(-0.0540942 -0.0024919 -0.00161853)
(-0.0531765 0.00230748 0.000172865)
(-0.048926 0.000810571 -0.00105022)
(-0.046336 0.0015262 -0.000119007)
(-0.0744467 0.672437 0.0300153)
(0.108116 0.00447488 -0.0242396)
(0.0913503 0.272273 -0.0311551)
(0.184638 0.360887 -0.0394096)
(0.250265 0.452443 -0.015548)
(0.0797273 0.411432 0.0437571)
(-0.17094 0.23755 0.0138665)
(-0.117093 0.101376 -0.00297577)
(-0.114867 0.0658451 0.00860601)
(-0.0946118 0.100896 0.00411308)
(-0.0561876 0.0865099 0.0124509)
(-0.0784975 0.093638 0.00822607)
(-0.0543005 0.0914949 0.0204933)
(-0.0875631 0.0383205 0.0167322)
(-0.072485 0.0341904 0.000652229)
(-0.0477247 0.00213977 0.000616837)
(-0.0211053 -0.0293639 -0.000154719)
(-0.0591173 -0.0513362 -0.0042905)
(-0.073494 -0.063059 0.0014388)
(-0.105299 -0.0801141 0.001726)
(-0.0635936 -0.0584681 -0.0107027)
(-0.0427008 -0.0530303 -0.00460595)
(-0.0397069 -0.0486121 -0.0094542)
(-0.00989633 -0.03526 -0.00442391)
(-0.015702 -0.0176897 0.00313304)
(-0.042654 0.00075975 0.00596869)
(-0.0701085 -0.0253014 0.00596001)
(-0.0626349 -0.0289965 0.0027022)
(-0.0767968 -0.00496057 -0.0031121)
(-0.0466479 -0.00603257 -0.0015309)
(-0.0680979 -0.0068233 0.00269403)
(-0.0620023 -0.00114897 -0.00253567)
(-0.0543974 -0.00189966 -0.00101594)
(-0.0556523 -0.000888649 0.000119814)
(-0.053816 -0.000442744 -0.00087282)
(-0.0470065 0.000263168 0.000317843)
(-0.052983 -0.000482534 -0.00107524)
(0.0787546 0.791835 0.10637)
(0.159125 0.519533 0.0492312)
(0.0431649 0.465319 0.0504828)
(0.181496 0.526792 0.0468555)
(0.340447 0.54366 0.0576389)
(0.440314 0.477905 0.094418)
(0.394192 0.358232 0.0888498)
(0.368441 0.247298 0.053728)
(0.317292 0.206809 0.0340563)
(0.335041 0.161051 0.0347508)
(0.327974 0.0660871 0.0381639)
(0.173812 0.0901897 0.0271)
(0.238511 0.112179 0.0234209)
(0.247572 0.0600079 0.0198949)
(0.197632 0.0548091 0.00734031)
(0.263679 0.0208527 0.00540717)
(0.17731 0.0229588 0.00304927)
(0.181543 0.0984466 -0.00599762)
(0.271568 0.0416737 0.00904817)
(0.117255 -0.0517624 0.0106897)
(0.00199198 -0.040418 -0.00191855)
(-0.00696523 -0.012486 -0.00853456)
(-0.0059168 -0.0123226 -0.00951105)
(0.00448905 -0.0160915 -0.00729338)
(0.0067301 -0.013112 -0.0117995)
(0.0246667 0.00307384 -0.0147458)
(0.0447859 0.0109437 0.00374547)
(-0.0228762 -0.00954302 0.0109984)
(-0.0633378 -0.0230564 -0.00402934)
(-0.0524966 0.0106075 0.000430034)
(-0.0487988 -0.00481066 0.00116544)
(-0.0786075 -0.000113459 -0.00223746)
(-0.0325233 0.00216312 3.02385e-05)
(-0.0703734 -0.00134756 8.06999e-05)
(-0.0415877 0.00270294 -0.00180659)
(-0.0505005 -0.00085937 0.00191986)
(-0.0540306 0.00300267 -0.00190369)
(0.11801 1.1245 2.20586)
(-0.265663 -3.04062 1.48236)
(0.829845 -1.78342 0.755217)
(1.19147 -1.22371 0.552801)
(1.05283 -0.870427 0.544243)
(0.880223 -0.61028 0.312306)
(0.841744 -0.535415 0.311191)
(0.723969 -0.50903 0.225466)
(0.756413 -0.448838 0.113581)
(0.983396 -0.3575 0.0280485)
(1.04406 -0.170358 0.0279518)
(0.825162 0.00315078 0.120662)
(0.424031 0.127015 0.16162)
(0.164692 0.0832122 0.0963325)
(0.0715066 0.0255912 0.0411109)
(0.0281838 0.00381996 0.0190621)
(0.00879538 -0.00294297 0.0100707)
(0.00299031 -0.00681645 0.00811082)
(-0.00154088 -0.00849168 0.00500085)
(0.00403565 -0.00977216 0.00630069)
(0.00490333 -0.00930956 0.00618194)
(0.0125369 -0.00906015 0.00365426)
(0.0159144 -0.00852871 0.00241149)
(0.0238496 -0.00719867 0.00383523)
(0.0286575 -0.00763461 0.00433027)
(0.0367136 -0.00826762 0.00324223)
(0.0451829 -0.00886021 0.00425115)
(0.0516632 -0.0088599 0.00683069)
(0.0572148 -0.00949044 0.00739812)
(0.0655873 -0.0103874 0.00487843)
(0.072802 -0.0126422 0.00497253)
(0.0769595 -0.0151105 0.00814215)
(0.0861114 -0.0123978 0.00458891)
(0.0923895 -0.00941855 -0.00239185)
(0.0873116 -0.0165028 -0.000634973)
(0.0881146 -0.0209075 0.00258694)
(0.0961483 0.00151224 -0.00381565)
(0.088378 0.0272955 -0.0150566)
(1.6276 -3.23387 -1.87035)
(0.906896 -1.06138 -1.50566)
(-0.440861 -0.394901 -1.00583)
(-0.498713 0.522775 -0.584754)
(-0.742591 0.674736 -0.145413)
(-0.443621 -0.0661719 -0.0679623)
(-0.441031 0.279081 -0.204509)
(-0.3218 0.0816177 -0.0774888)
(-0.211358 0.0497501 -0.178315)
(-0.198257 0.0965001 -0.148429)
(-0.151428 0.0944437 -0.121583)
(-0.140571 0.164494 -0.0360938)
(-0.105214 0.129808 0.0124031)
(-0.0832149 0.087813 0.0156739)
(-0.0681253 0.0375271 0.0154532)
(-0.079555 0.0120659 0.00719071)
(-0.0802086 -0.00205132 0.00374404)
(-0.0836694 -0.00726538 0.00247431)
(-0.0809156 -0.00999675 -0.00166352)
(-0.0757319 -0.013699 0.00217616)
(-0.072673 -0.0132677 -0.00164956)
(-0.0615377 -0.014451 -0.000976876)
(-0.0614485 -0.014996 -0.000597576)
(-0.0473006 -0.0158717 -3.5862e-05)
(-0.0448293 -0.0170418 -1.65558e-05)
(-0.035695 -0.0179123 -0.00119831)
(-0.0299481 -0.0188948 0.000130318)
(-0.0229269 -0.0192443 -0.00136693)
(-0.0168275 -0.0185276 -0.00191848)
(-0.0102785 -0.0176653 -0.00243555)
(-0.00451652 -0.0152994 -0.00341126)
(-5.85838e-05 -0.0114334 -0.005295)
(0.00462603 -0.00591368 -0.00741005)
(0.00982654 0.000516592 -0.00798727)
(0.0132626 0.00776343 -0.0097103)
(0.018078 0.0149476 -0.017854)
(0.0291605 0.0200592 -0.0234673)
(0.0437308 0.0173327 -0.017829)
(-0.782737 0.916512 0.543329)
(-1.63332 -1.26283 0.532533)
(-0.108245 -0.563313 0.19129)
(-0.632456 -0.64414 0.0834456)
(-0.554895 0.116988 -0.170213)
(-0.301236 -0.637414 0.325079)
(-0.27548 -0.164246 -0.151806)
(-0.203665 -0.353653 0.121059)
(-0.126898 -0.132635 0.010897)
(-0.190688 -0.118424 -0.0262804)
(-0.13156 -0.0973835 0.0377116)
(-0.146304 0.032971 -0.00300037)
(-0.109993 0.0285631 0.0194775)
(-0.109416 0.0340614 0.00801021)
(-0.10335 0.0129912 -0.00131014)
(-0.0983269 0.00237728 0.00594843)
(-0.107791 -0.00855743 -0.00451445)
(-0.10004 -0.0130437 0.000356663)
(-0.10517 -0.0162027 -0.00562764)
(-0.0929486 -0.0200744 0.00106287)
(-0.0950534 -0.0195637 -0.00399236)
(-0.0831981 -0.021243 -0.00125946)
(-0.0829398 -0.0227571 -0.00180923)
(-0.069825 -0.0204736 -0.00442351)
(-0.0692107 -0.0212607 -0.00273757)
(-0.0597219 -0.0227521 -0.00418868)
(-0.0535458 -0.0213903 -0.00237496)
(-0.0484148 -0.0211031 -0.00540246)
(-0.0436986 -0.0205936 -0.00456526)
(-0.0361431 -0.0198495 -0.00445998)
(-0.0313415 -0.0180444 -0.00620945)
(-0.0258305 -0.0150051 -0.00634988)
(-0.0177901 -0.0111897 -0.00631015)
(-0.00960815 -0.00678139 -0.0064754)
(0.000776356 -0.00437388 -0.00556382)
(0.0128651 -0.00232329 -0.00452189)
(0.0245042 0.00115565 -8.88694e-05)
(-0.547077 1.32743 0.434697)
(-0.0396822 0.324373 -0.162012)
(-0.638289 0.142958 0.0787891)
(-0.179786 0.0669185 0.216265)
(-0.139902 -0.293095 -0.18274)
(-0.309831 0.164612 -0.070006)
(-0.277747 -0.0298251 -0.0326571)
(-0.247082 0.124358 -0.0243648)
(-0.22508 0.00952241 -0.0484063)
(-0.207649 0.0627895 -0.0467697)
(-0.214508 0.0661282 -0.0113958)
(-0.171363 0.0616425 -0.0156228)
(-0.146846 0.0540233 -0.00324901)
(-0.132072 0.0478523 0.00450582)
(-0.117859 0.012996 -0.00333703)
(-0.119354 0.0236678 -0.000608114)
(-0.11584 -0.00079822 -0.00268467)
(-0.115494 -0.00380576 -0.00205071)
(-0.115318 -0.00832389 -0.00385553)
(-0.107845 -0.019647 -0.000489172)
(-0.108634 -0.0179028 -0.00304839)
(-0.0974616 -0.019357 -0.00340247)
(-0.0946971 -0.0221485 -0.000400462)
(-0.0880047 -0.0208945 -0.00728042)
(-0.0834574 -0.024898 0.00055852)
(-0.0730343 -0.0234333 -0.00199785)
(-0.0709084 -0.0205404 -0.001676)
(-0.0636188 -0.0214001 -0.00402149)
(-0.0613339 -0.020426 -0.000497169)
(-0.0522552 -0.0171706 -0.00165517)
(-0.050677 -0.0133165 -0.00424345)
(-0.0471351 -0.0123718 -0.00167281)
(-0.0395246 -0.00771857 0.000170175)
(-0.0381972 -0.00380789 -0.000900314)
(-0.03377 -0.0015216 0.00406978)
(-0.0331312 -0.000151216 0.00634928)
(-0.0306789 0.00192495 0.0076248)
(-0.436103 1.49282 0.0932901)
(-0.00124323 -0.201004 -0.328492)
(-0.0403408 -0.224108 -0.008908)
(-0.00267028 -0.383978 -0.218303)
(-0.0103371 -0.352741 0.092001)
(-0.169599 -0.176328 -0.0843689)
(-0.144489 -0.210845 -0.0346007)
(-0.209022 -0.113196 -0.031646)
(-0.16283 -0.0917667 -0.0120083)
(-0.165207 -0.041727 -0.0242806)
(-0.174094 -0.0168834 -0.0215322)
(-0.155552 -0.00513766 0.000434021)
(-0.141456 0.0196892 -0.0134877)
(-0.138963 0.0297392 -0.00762948)
(-0.127323 -0.00541965 0.00266988)
(-0.127145 0.0176813 -0.00906986)
(-0.123803 -0.00745791 -0.00396738)
(-0.121779 -0.00651864 0.00152081)
(-0.118827 -0.0128514 -0.010531)
(-0.114716 -0.0172302 0.00179839)
(-0.110582 -0.0217837 -0.0028642)
(-0.104217 -0.0199201 -0.00931134)
(-0.101657 -0.0243199 -0.000728)
(-0.092701 -0.0246697 -0.005396)
(-0.0914047 -0.0233749 -0.00273961)
(-0.0862919 -0.02274 -0.00449353)
(-0.0840319 -0.0243953 -0.00643492)
(-0.0789663 -0.0223515 -0.002842)
(-0.0781275 -0.0207302 -0.00243776)
(-0.0733251 -0.0194714 -0.00602485)
(-0.0723558 -0.0172186 -0.0035997)
(-0.0672451 -0.0160877 0.000859473)
(-0.0652602 -0.0124443 -0.00344968)
(-0.0591284 -0.0070462 -0.00166613)
(-0.0588062 -0.0056572 0.00249548)
(-0.0510655 -0.00159515 -0.000752139)
(-0.0495364 -6.91397e-05 0.00164739)
(-0.0447641 -0.000136784 0.000331611)
(-0.221439 1.39531 -0.0960677)
(0.00355913 -0.0499495 -0.287936)
(-0.064041 0.242781 -0.0321438)
(0.0238117 0.21829 -0.016727)
(-0.0215946 0.19346 0.00140688)
(-0.0763734 0.18126 7.0671e-05)
(-0.0446455 0.203822 0.0430658)
(-0.149112 0.0952577 0.0555906)
(-0.169852 0.0220979 0.0383557)
(-0.122906 0.0791752 -0.0016545)
(-0.169707 0.0471294 -0.0123371)
(-0.134914 0.070296 0.00418183)
(-0.153587 0.0450208 0.00853083)
(-0.127498 0.0377241 -0.0193401)
(-0.135681 0.0390525 0.0140699)
(-0.120236 0.0191449 -0.0115977)
(-0.128769 0.0148221 -0.00325401)
(-0.120791 0.00712165 0.000300405)
(-0.122458 -0.00843587 -0.00484757)
(-0.111118 -0.00882468 -0.00171943)
(-0.114327 -0.0158996 -0.00113613)
(-0.0998189 -0.022308 -0.00543106)
(-0.102556 -0.0181748 -0.00309109)
(-0.0873009 -0.0184361 0.000693158)
(-0.0897454 -0.0182468 -0.00827893)
(-0.0831991 -0.0182836 -0.0041312)
(-0.0786483 -0.0203922 -0.000767346)
(-0.0779701 -0.014288 -0.00559342)
(-0.0737008 -0.0127458 -0.00392236)
(-0.0726193 -0.0153274 -0.00416854)
(-0.0700714 -0.0104716 -0.00226639)
(-0.0666231 -0.00816074 -0.00337246)
(-0.0651503 -0.00719384 -0.00409645)
(-0.0620455 -0.00312287 -0.00204293)
(-0.0588486 -0.00206286 -0.00229907)
(-0.0537417 -0.00116985 -0.00240784)
(-0.051318 0.00133169 -0.00108493)
(-0.0468459 0.00108466 -0.00248727)
(-0.0152904 0.985728 -0.0210379)
(0.011079 -0.149428 -0.323605)
(-0.0759777 -0.08195 -0.0516536)
(0.0628939 -0.149363 0.0490266)
(-0.0975447 -0.223879 0.0652771)
(-0.19779 -0.105277 0.00342688)
(-0.00197245 0.0513898 0.0224253)
(-0.13894 -0.0017342 0.0025954)
(-0.112797 0.0345403 -0.0506346)
(-0.17705 0.0139387 -0.0432578)
(-0.151863 0.0335847 -0.0495343)
(-0.178046 0.0103307 -0.041211)
(-0.141555 0.0204551 -0.0375523)
(-0.183573 -0.00420743 -0.00132967)
(-0.12657 0.022584 -0.00726954)
(-0.152645 0.00330593 -0.00723081)
(-0.133425 0.00637965 0.00392872)
(-0.136697 -0.00521674 -0.0108227)
(-0.134671 -0.0184428 0.00669593)
(-0.114358 -0.0171051 -0.00151576)
(-0.123148 -0.0230706 -0.00308531)
(-0.10033 -0.0259927 0.000951969)
(-0.104004 -0.0243458 -0.00246317)
(-0.0905562 -0.0202388 -0.00502044)
(-0.0923603 -0.0220192 -0.000693561)
(-0.0803446 -0.0213703 -0.00562795)
(-0.0824209 -0.0188907 -0.000281761)
(-0.076697 -0.0158384 -0.00429895)
(-0.0738162 -0.0162856 -0.00447097)
(-0.0705006 -0.0136639 -0.00117876)
(-0.0685996 -0.0109443 -0.00327977)
(-0.0648043 -0.0102742 -0.00365297)
(-0.0630494 -0.00760209 -0.00272436)
(-0.0596887 -0.00388954 -0.0015084)
(-0.0560454 -0.00470413 -0.00368497)
(-0.0531558 -0.00170218 -0.00149818)
(-0.0501259 -0.00103589 -0.00202848)
(0.101663 0.866588 0.195138)
(0.191196 -0.147159 -0.189714)
(0.0563643 0.0977945 -0.076682)
(0.125422 0.240025 -0.0728284)
(0.0450546 0.28519 -0.0276091)
(-0.0745113 0.128195 -0.00976445)
(-0.0746236 0.102117 0.0155692)
(-0.0718556 0.118344 -0.0238554)
(-0.0971084 0.0453418 -0.0167942)
(-0.0560259 0.0963775 -0.0309227)
(-0.0836019 0.0494263 -0.015358)
(-0.0649646 0.081459 0.00679531)
(-0.120379 0.0524344 0.0569012)
(-0.0774874 0.0755765 0.0352787)
(-0.142748 0.0328542 -0.0105809)
(-0.118486 0.0403652 0.00608283)
(-0.13793 0.0235771 -0.00262534)
(-0.128063 0.00769923 -0.00269375)
(-0.136908 -0.00632104 0.00422835)
(-0.111263 -0.0143626 -0.004169)
(-0.118718 -0.024798 0.00240807)
(-0.0993457 -0.0235855 0.000265953)
(-0.101326 -0.0246509 -0.000148564)
(-0.0877001 -0.0180193 -0.00176722)
(-0.0902301 -0.0162941 -0.00592072)
(-0.0805045 -0.0179912 -0.00263197)
(-0.0819358 -0.013315 -0.00032185)
(-0.0747269 -0.0135157 -0.00535724)
(-0.0740101 -0.0118918 -0.00352919)
(-0.0678845 -0.00865567 -0.00173054)
(-0.0700508 -0.00823242 -0.00362203)
(-0.0615509 -0.0066799 -0.00291212)
(-0.0638995 -0.0037082 -0.00272589)
(-0.0574931 -0.00240585 -0.00215592)
(-0.0552154 -0.00209227 -0.00287365)
(-0.05297 1.90479e-05 -0.00225803)
(-0.0486167 0.000376735 -0.00174418)
(0.0309962 0.149475 0.225303)
(0.146918 -0.298403 -0.0617714)
(0.0721787 -0.0691841 -0.0518798)
(0.0796357 0.02223 0.0449097)
(-0.00901868 0.0364418 0.0991402)
(-0.179395 -0.0197917 0.0982028)
(-0.229263 -0.0342942 -0.00342522)
(-0.138023 -0.0245124 0.00587605)
(-0.183109 -0.0300638 -0.00802872)
(-0.130284 0.026963 0.0106772)
(-0.173077 0.00681146 0.00427565)
(-0.128323 0.0342899 0.00522359)
(-0.179578 0.0213653 -0.0252662)
(-0.110998 0.0496228 -0.0190888)
(-0.162251 0.0296198 0.000899893)
(-0.136443 0.0142037 -0.00357759)
(-0.136566 0.0102017 -0.00826947)
(-0.138641 -0.010325 0.00245588)
(-0.142692 -0.0292778 -0.00144588)
(-0.120613 -0.0371633 -0.00421376)
(-0.112538 -0.038086 0.00314183)
(-0.0969012 -0.0348624 0.000390772)
(-0.0923395 -0.0297015 0.00306941)
(-0.0862241 -0.0244075 0.00246535)
(-0.085788 -0.019937 -0.00418039)
(-0.0814477 -0.0179235 -0.00367974)
(-0.0783715 -0.0172623 0.000301487)
(-0.0775576 -0.0159141 -0.00360114)
(-0.0718704 -0.0128741 -0.00422264)
(-0.0673212 -0.00845642 -0.0028629)
(-0.0697128 -0.00893186 -0.0015773)
(-0.0619622 -0.00746579 -0.00366529)
(-0.0618261 -0.00336999 -0.0026138)
(-0.058355 -0.00413398 -0.00186362)
(-0.054119 -0.00237331 -0.00247304)
(-0.053073 -0.00108417 -0.00201177)
(-0.0482841 -0.00112912 -0.00120587)
(-0.0501004 0.446307 0.114016)
(0.248974 0.0580721 -0.0808411)
(0.191689 0.207357 -0.109657)
(0.248239 0.397168 -0.09619)
(0.151911 0.40872 -0.068484)
(0.0124222 0.288046 0.0268288)
(-0.0918474 0.16666 -0.0261423)
(-0.050667 0.138829 -0.030918)
(-0.0694651 0.135228 -0.0409954)
(-0.0742577 0.133707 -0.0210193)
(-0.0953997 0.105662 -0.0266777)
(-0.0691324 0.113183 -0.00786213)
(-0.0656828 0.0938133 0.00196863)
(-0.0918957 0.0619701 0.0355054)
(-0.0877528 0.0759486 0.020624)
(-0.105517 0.050965 0.0120925)
(-0.111932 0.0225422 0.0161221)
(-0.113355 0.0212415 0.0120385)
(-0.106674 -0.0102052 4.74266e-05)
(-0.108073 -0.0414158 2.41313e-05)
(-0.0871549 -0.036609 -0.0065998)
(-0.0851193 -0.0373425 -0.0068024)
(-0.0669785 -0.0292834 0.00163039)
(-0.0733966 -0.0119878 0.00540484)
(-0.0755354 -0.00759904 0.00395487)
(-0.0832098 -0.0136985 -0.00362881)
(-0.0766737 -0.00563438 -0.0022621)
(-0.0703739 -0.0115947 0.00424192)
(-0.0731446 -0.0118721 -0.00757491)
(-0.063583 -0.00166037 -0.00240889)
(-0.0688555 -0.0055554 -4.31207e-05)
(-0.0617097 -0.0056214 -0.0057291)
(-0.0613323 -0.000677293 -0.00132596)
(-0.058064 -0.00231801 -0.00317349)
(-0.0557093 -0.000681546 -0.00200685)
(-0.0521349 0.000104627 -0.0018971)
(-0.0510011 -7.9918e-05 -0.00177389)
(0.207864 -0.182714 0.0493106)
(0.274546 -0.441145 0.0241832)
(0.0274258 -0.159487 0.0695065)
(-0.0421944 0.097862 0.0197141)
(-0.00939269 0.267571 0.089956)
(-0.0997225 0.239879 0.142271)
(-0.163531 0.0248198 0.075105)
(-0.233584 -0.0692019 0.0253438)
(-0.208673 -0.0253881 0.0163659)
(-0.195635 0.0143407 0.0258367)
(-0.146806 0.0137156 0.0407176)
(-0.137955 0.0245266 0.0275835)
(-0.096175 0.0365454 0.033351)
(-0.0873212 0.0456293 0.0175786)
(-0.0543715 0.0466287 -4.90862e-05)
(-0.0304186 0.0222948 0.00170722)
(-0.00373637 -0.00597314 0.00277867)
(-0.0228893 -0.0353183 -0.00819359)
(-0.0544218 -0.0608751 0.00780606)
(-0.0901066 -0.0753093 0.00860976)
(-0.0802403 -0.0586539 -0.0148509)
(-0.0675443 -0.0510072 -0.0146397)
(-0.0536064 -0.0405667 -0.0206053)
(-0.0420343 -0.0211813 -0.00523116)
(-0.0440124 -0.00440714 0.0137525)
(-0.0754763 -0.00425875 0.00817304)
(-0.0771351 -0.0260389 -0.00506985)
(-0.0636575 -0.0232603 0.00258272)
(-0.0844541 -0.00743452 8.87327e-05)
(-0.0510798 -0.00579106 -0.00697738)
(-0.0732499 -0.00521993 0.00482665)
(-0.0595354 -0.00381991 -0.00673998)
(-0.061814 -0.000947053 -0.0014108)
(-0.055686 -0.00194277 -0.001248)
(-0.058263 -0.000200491 -0.00316984)
(-0.0489842 -0.000200757 0.00030362)