/*--------------------------------*- C++ -*----------------------------------*\
| =========                 |                                                 |
| \\      /  F ield         | OpenFOAM: The Open Source CFD Toolbox           |
|  \\    /   O peration     | Version:  2.3.1                                 |
|   \\  /    A nd           | Web:      www.OpenFOAM.org                      |
|    \\/     M anipulation  |                                                 |
\*---------------------------------------------------------------------------*/
FoamFile
{
    version     2.0;
    format      ascii;
    class       volScalarField;
    location    "15";
    object      epsilon_0;
}
// * * * * * * * * * * * * * * * * * * * * * * * * * * * * * * * * * * * * * //

dimensions      [0 2 -3 0 0 0 0];

internalField   nonuniform List<scalar> 
37530
(
6.06956e-07
6.14805e-07
6.23239e-07
6.32284e-07
6.41957e-07
6.5226e-07
6.63176e-07
6.74651e-07
6.8656e-07
6.98658e-07
7.10586e-07
7.21668e-07
7.30765e-07
7.35206e-07
7.28855e-07
7.29934e-07
2.24161e-06
2.27579e-05
3.83919e-05
3.78722e-05
3.57974e-05
3.67328e-05
3.63844e-05
3.14216e-05
3.12081e-05
7.6416e-05
0.000409853
0.000900365
0.00101611
0.00103367
0.00102266
0.000919874
0.000826032
0.000800782
0.0008065
0.000853289
0.00091806
1.01672e-06
1.02848e-06
1.04109e-06
1.05459e-06
1.06898e-06
1.08427e-06
1.10043e-06
1.11737e-06
1.1349e-06
1.15269e-06
1.16999e-06
1.18548e-06
1.19696e-06
1.20092e-06
1.19164e-06
1.16195e-06
1.21605e-06
3.76595e-06
1.07884e-05
1.43745e-05
1.81273e-05
2.0667e-05
2.17827e-05
2.14302e-05
2.05811e-05
2.59062e-05
7.97617e-05
0.000205493
0.000260972
0.000325452
0.000463824
0.000607175
0.000684997
0.000724233
0.000728697
0.000708966
0.000662729
1.22678e-06
1.23956e-06
1.25328e-06
1.26796e-06
1.28363e-06
1.30029e-06
1.31794e-06
1.3365e-06
1.35581e-06
1.37556e-06
1.39523e-06
1.41388e-06
1.43002e-06
1.44135e-06
1.44618e-06
1.44199e-06
1.42305e-06
1.55031e-06
2.23252e-06
2.93931e-06
3.47137e-06
4.09832e-06
4.4554e-06
4.41733e-06
4.5481e-06
5.41515e-06
1.07891e-05
2.99034e-05
4.26813e-05
4.99674e-05
7.95572e-05
0.000130689
0.000183793
0.000234584
0.000256705
0.000256635
0.000231965
1.33073e-06
1.34403e-06
1.35832e-06
1.37364e-06
1.39001e-06
1.40749e-06
1.42608e-06
1.44577e-06
1.4665e-06
1.48812e-06
1.51044e-06
1.53317e-06
1.55599e-06
1.57864e-06
1.60136e-06
1.62642e-06
1.66045e-06
1.70337e-06
1.82863e-06
2.01239e-06
2.17009e-06
2.3212e-06
2.48192e-06
2.61902e-06
2.77051e-06
2.98987e-06
3.56725e-06
5.49171e-06
7.70287e-06
8.61635e-06
1.16865e-05
2.2551e-05
4.81816e-05
7.99155e-05
9.79739e-05
0.000107373
0.000105941
1.37606e-06
1.38963e-06
1.40421e-06
1.41988e-06
1.43667e-06
1.45465e-06
1.47385e-06
1.4943e-06
1.51598e-06
1.53882e-06
1.5627e-06
1.58742e-06
1.61272e-06
1.63831e-06
1.66408e-06
1.69057e-06
1.72083e-06
1.75846e-06
1.81134e-06
1.88212e-06
1.95938e-06
2.0362e-06
2.11346e-06
2.19296e-06
2.28214e-06
2.39213e-06
2.54453e-06
2.81252e-06
3.18219e-06
3.49874e-06
3.92333e-06
5.05378e-06
8.33305e-06
1.70434e-05
2.82763e-05
3.88429e-05
4.18272e-05
1.39207e-06
1.40576e-06
1.42051e-06
1.43637e-06
1.45341e-06
1.4717e-06
1.49132e-06
1.51232e-06
1.53476e-06
1.55872e-06
1.58429e-06
1.61165e-06
1.64108e-06
1.67311e-06
1.70868e-06
1.74943e-06
1.79804e-06
1.85818e-06
1.9321e-06
2.02151e-06
2.12023e-06
2.22145e-06
2.32899e-06
2.44418e-06
2.56212e-06
2.67926e-06
2.80158e-06
2.94653e-06
3.1267e-06
3.32452e-06
3.53046e-06
3.79466e-06
4.27725e-06
5.49395e-06
7.61515e-06
1.15199e-05
1.44967e-05
1.39206e-06
1.4058e-06
1.42062e-06
1.43659e-06
1.45379e-06
1.47228e-06
1.49217e-06
1.51354e-06
1.5365e-06
1.56114e-06
1.58758e-06
1.61594e-06
1.64642e-06
1.67926e-06
1.71489e-06
1.75396e-06
1.79739e-06
1.84663e-06
1.90298e-06
1.96659e-06
2.03627e-06
2.11112e-06
2.1916e-06
2.27909e-06
2.37618e-06
2.48632e-06
2.61308e-06
2.75955e-06
2.92555e-06
3.10523e-06
3.303e-06
3.52528e-06
3.77326e-06
4.11603e-06
4.68256e-06
5.31511e-06
6.69299e-06
1.37609e-06
1.38982e-06
1.40465e-06
1.42066e-06
1.43791e-06
1.4565e-06
1.47655e-06
1.49817e-06
1.52151e-06
1.54673e-06
1.57406e-06
1.60379e-06
1.63631e-06
1.67217e-06
1.71208e-06
1.75706e-06
1.80842e-06
1.86739e-06
1.93507e-06
2.01166e-06
2.09607e-06
2.18708e-06
2.28485e-06
2.38967e-06
2.50156e-06
2.6211e-06
2.75036e-06
2.89244e-06
3.0502e-06
3.22513e-06
3.41522e-06
3.63409e-06
3.85525e-06
4.19787e-06
4.4945e-06
5.06117e-06
5.49206e-06
1.33085e-06
1.34441e-06
1.35909e-06
1.37494e-06
1.39205e-06
1.41053e-06
1.43049e-06
1.45207e-06
1.47545e-06
1.5008e-06
1.52835e-06
1.55835e-06
1.59112e-06
1.62701e-06
1.6665e-06
1.71014e-06
1.75847e-06
1.81205e-06
1.87125e-06
1.93622e-06
2.007e-06
2.08385e-06
2.16745e-06
2.25895e-06
2.35998e-06
2.4726e-06
2.59913e-06
2.74136e-06
2.90141e-06
3.07975e-06
3.27909e-06
3.50185e-06
3.75123e-06
4.02431e-06
4.44426e-06
4.74037e-06
5.42454e-06
1.22711e-06
1.24021e-06
1.25441e-06
1.26977e-06
1.28636e-06
1.30431e-06
1.32374e-06
1.3448e-06
1.36767e-06
1.39255e-06
1.41972e-06
1.44948e-06
1.48222e-06
1.51838e-06
1.55853e-06
1.60328e-06
1.6533e-06
1.70916e-06
1.77143e-06
1.84033e-06
1.91588e-06
1.99816e-06
2.08751e-06
2.18452e-06
2.29004e-06
2.40519e-06
2.53173e-06
2.6711e-06
2.82607e-06
2.99722e-06
3.18818e-06
3.39916e-06
3.64578e-06
3.87334e-06
4.3043e-06
4.55315e-06
5.22831e-06
1.0173e-06
1.02938e-06
1.04248e-06
1.05667e-06
1.07204e-06
1.08868e-06
1.10674e-06
1.12635e-06
1.14768e-06
1.17095e-06
1.19641e-06
1.22433e-06
1.25502e-06
1.28883e-06
1.32618e-06
1.36749e-06
1.4132e-06
1.46371e-06
1.51933e-06
1.58035e-06
1.64703e-06
1.71982e-06
1.79936e-06
1.88653e-06
1.98255e-06
2.08872e-06
2.2069e-06
2.33772e-06
2.48535e-06
2.64389e-06
2.83684e-06
3.006e-06
3.29923e-06
3.44896e-06
3.87879e-06
4.0315e-06
4.66707e-06
6.07402e-07
6.15444e-07
6.24162e-07
6.33613e-07
6.4386e-07
6.54978e-07
6.67055e-07
6.8019e-07
6.94497e-07
7.10116e-07
7.27214e-07
7.45981e-07
7.66638e-07
7.89433e-07
8.14648e-07
8.42586e-07
8.73562e-07
9.0787e-07
9.45764e-07
9.87468e-07
1.03321e-06
1.08328e-06
1.13808e-06
1.19812e-06
1.26411e-06
1.33676e-06
1.41743e-06
1.50601e-06
1.60728e-06
1.71153e-06
1.8505e-06
1.94978e-06
2.16989e-06
2.25512e-06
2.58854e-06
2.60122e-06
3.12179e-06
5.7358e-07
5.77709e-07
5.82142e-07
5.86892e-07
5.91967e-07
5.97368e-07
6.03086e-07
6.09096e-07
6.15345e-07
6.21784e-07
6.28247e-07
6.34365e-07
6.3914e-07
6.40388e-07
6.33303e-07
6.11328e-07
1.10684e-06
1.16243e-05
2.60757e-05
2.73993e-05
2.49216e-05
2.42069e-05
2.42561e-05
2.38979e-05
2.25842e-05
2.52918e-05
7.09541e-05
0.000230378
0.000470438
0.000566094
0.00057757
0.000575577
0.000583482
0.000597955
0.000604517
0.000623094
0.000672226
5.7379e-07
5.75953e-07
5.78283e-07
5.80791e-07
5.83485e-07
5.86372e-07
5.8946e-07
5.9276e-07
5.96283e-07
6.00041e-07
6.04051e-07
6.0836e-07
6.13128e-07
6.19706e-07
6.32322e-07
6.64259e-07
8.12817e-07
2.93e-06
1.18212e-05
2.12195e-05
2.55311e-05
2.61771e-05
2.59213e-05
2.54045e-05
2.71619e-05
3.33699e-05
5.96893e-05
0.000159866
0.000302792
0.000433548
0.000563647
0.000602703
0.000622699
0.000643356
0.000633571
0.000638998
0.00067156
6.29444e-07
6.317e-07
6.34133e-07
6.36753e-07
6.3957e-07
6.42595e-07
6.45838e-07
6.49308e-07
6.53001e-07
6.56915e-07
6.61051e-07
6.6543e-07
6.70158e-07
6.75753e-07
6.85423e-07
7.05603e-07
7.52955e-07
9.40422e-07
1.89633e-06
3.08503e-06
3.55041e-06
3.72478e-06
3.54767e-06
3.47665e-06
3.99519e-06
6.37421e-06
1.39442e-05
3.39541e-05
5.5603e-05
6.51826e-05
8.34278e-05
0.000112095
0.000135621
0.000162491
0.000182746
0.000203364
0.000206158
6.56643e-07
6.59004e-07
6.61553e-07
6.64303e-07
6.67265e-07
6.70455e-07
6.73887e-07
6.77575e-07
6.81533e-07
6.85774e-07
6.90318e-07
6.95209e-07
7.00556e-07
7.06639e-07
7.14226e-07
7.2592e-07
7.47694e-07
7.89726e-07
8.68182e-07
9.57289e-07
1.01606e-06
1.07882e-06
1.1335e-06
1.20521e-06
1.34109e-06
1.64944e-06
2.5408e-06
4.98245e-06
8.19142e-06
9.48583e-06
1.12313e-05
1.6448e-05
2.97817e-05
5.04767e-05
6.41389e-05
7.34754e-05
7.45539e-05
6.67573e-07
6.6999e-07
6.72602e-07
6.75424e-07
6.7847e-07
6.81757e-07
6.85303e-07
6.89127e-07
6.93248e-07
6.97689e-07
7.0248e-07
7.07671e-07
7.13352e-07
7.1969e-07
7.26998e-07
7.36017e-07
7.4936e-07
7.69798e-07
8.00141e-07
8.35287e-07
8.62292e-07
8.85141e-07
9.07468e-07
9.34637e-07
9.76117e-07
1.04915e-06
1.18529e-06
1.44824e-06
1.83634e-06
2.16158e-06
2.52873e-06
3.33704e-06
5.10325e-06
9.52304e-06
1.55682e-05
2.3519e-05
2.81483e-05
6.7116e-07
6.73601e-07
6.76243e-07
6.79099e-07
6.82187e-07
6.85525e-07
6.89133e-07
6.93033e-07
6.97251e-07
7.01814e-07
7.06762e-07
7.12151e-07
7.1807e-07
7.24667e-07
7.32183e-07
7.40998e-07
7.51605e-07
7.64406e-07
7.78656e-07
7.92172e-07
8.07095e-07
8.24831e-07
8.45532e-07
8.70588e-07
9.02178e-07
9.42816e-07
9.96641e-07
1.06826e-06
1.14461e-06
1.22459e-06
1.33457e-06
1.54945e-06
1.90491e-06
2.70413e-06
3.78889e-06
5.69026e-06
7.5146e-06
6.71152e-07
6.73598e-07
6.76248e-07
6.79116e-07
6.8222e-07
6.85578e-07
6.89212e-07
6.93147e-07
6.9741e-07
7.02034e-07
7.07059e-07
7.12538e-07
7.18542e-07
7.25168e-07
7.32551e-07
7.40869e-07
7.50374e-07
7.61307e-07
7.73844e-07
7.87763e-07
8.02499e-07
8.18328e-07
8.3603e-07
8.56467e-07
8.80693e-07
9.09782e-07
9.44487e-07
9.84796e-07
1.02761e-06
1.07374e-06
1.12841e-06
1.20544e-06
1.3099e-06
1.48825e-06
1.73084e-06
2.06862e-06
2.53754e-06
6.67566e-07
6.7e-07
6.72639e-07
6.75499e-07
6.78595e-07
6.81948e-07
6.85582e-07
6.89522e-07
6.938e-07
6.98453e-07
7.03523e-07
7.09068e-07
7.15158e-07
7.21885e-07
7.29366e-07
7.37737e-07
7.47115e-07
7.57557e-07
7.69013e-07
7.81331e-07
7.94706e-07
8.09641e-07
8.26489e-07
8.4562e-07
8.67548e-07
8.92872e-07
9.22021e-07
9.55215e-07
9.91474e-07
1.03232e-06
1.07673e-06
1.13499e-06
1.19612e-06
1.28594e-06
1.38806e-06
1.4885e-06
1.67493e-06
6.56646e-07
6.59035e-07
6.61628e-07
6.6444e-07
6.67486e-07
6.70786e-07
6.74366e-07
6.78252e-07
6.82477e-07
6.87079e-07
6.92102e-07
6.97603e-07
7.03643e-07
7.10301e-07
7.17669e-07
7.25852e-07
7.34958e-07
7.4508e-07
7.56285e-07
7.68589e-07
7.82049e-07
7.96822e-07
8.13164e-07
8.31411e-07
8.51971e-07
8.75308e-07
9.01671e-07
9.3154e-07
9.64201e-07
1.00217e-06
1.0416e-06
1.09274e-06
1.14435e-06
1.20679e-06
1.29154e-06
1.36426e-06
1.46045e-06
6.29472e-07
6.31765e-07
6.34257e-07
6.36959e-07
6.39888e-07
6.43062e-07
6.46507e-07
6.50251e-07
6.54324e-07
6.58766e-07
6.63624e-07
6.68951e-07
6.74808e-07
6.81265e-07
6.88406e-07
6.96314e-07
7.05067e-07
7.14715e-07
7.25285e-07
7.36798e-07
7.49329e-07
7.63047e-07
7.78163e-07
7.94918e-07
8.13591e-07
8.34565e-07
8.58058e-07
8.84806e-07
9.13859e-07
9.49192e-07
9.82612e-07
1.03346e-06
1.07217e-06
1.13683e-06
1.19829e-06
1.27067e-06
1.35486e-06
5.73822e-07
5.7602e-07
5.78409e-07
5.80999e-07
5.83803e-07
5.86841e-07
5.90134e-07
5.93709e-07
5.97594e-07
6.01824e-07
6.06443e-07
6.11497e-07
6.17041e-07
6.23135e-07
6.2985e-07
6.37265e-07
6.45459e-07
6.54506e-07
6.6447e-07
6.75411e-07
6.87391e-07
7.00505e-07
7.14891e-07
7.30731e-07
7.48224e-07
7.67683e-07
7.89145e-07
8.13627e-07
8.39069e-07
8.72341e-07
8.98335e-07
9.47662e-07
9.76932e-07
1.0413e-06
1.08064e-06
1.16542e-06
1.22568e-06
5.7378e-07
5.7801e-07
5.82595e-07
5.87559e-07
5.92932e-07
5.98752e-07
6.05062e-07
6.11911e-07
6.19354e-07
6.27461e-07
6.36314e-07
6.46003e-07
6.5663e-07
6.68308e-07
6.81168e-07
6.95352e-07
7.11001e-07
7.28253e-07
7.47237e-07
7.68076e-07
7.90903e-07
8.15888e-07
8.43243e-07
8.73223e-07
9.0614e-07
9.42343e-07
9.82314e-07
1.02636e-06
1.07536e-06
1.12929e-06
1.18935e-06
1.25715e-06
1.32767e-06
1.41908e-06
1.50532e-06
1.58594e-06
1.77326e-06
7.1578e-07
7.20258e-07
7.25065e-07
7.30212e-07
7.35704e-07
7.41541e-07
7.47729e-07
7.54267e-07
7.6111e-07
7.6816e-07
7.75228e-07
7.81945e-07
7.87578e-07
7.90601e-07
7.87422e-07
7.72532e-07
9.20849e-07
8.04762e-06
2.45717e-05
2.62628e-05
2.36628e-05
2.305e-05
2.29037e-05
2.26229e-05
2.25775e-05
2.28637e-05
2.87643e-05
5.38902e-05
0.000108369
0.000185389
0.000241365
0.000267364
0.000306498
0.000394583
0.000537617
0.000608596
0.000651586
5.39158e-07
5.40172e-07
5.41272e-07
5.42462e-07
5.43749e-07
5.45138e-07
5.46646e-07
5.48299e-07
5.50118e-07
5.5214e-07
5.54442e-07
5.57199e-07
5.60841e-07
5.66616e-07
5.78805e-07
6.11982e-07
7.47605e-07
1.99908e-06
9.3667e-06
1.64338e-05
1.86282e-05
1.96776e-05
1.94133e-05
1.85399e-05
1.96771e-05
2.48276e-05
3.71303e-05
6.3605e-05
9.10264e-05
0.00011718
0.000159491
0.000192401
0.000218495
0.000235938
0.000269747
0.00036368
0.00042898
5.36701e-07
5.37432e-07
5.38231e-07
5.39102e-07
5.40052e-07
5.41086e-07
5.42212e-07
5.43438e-07
5.44774e-07
5.46234e-07
5.47851e-07
5.49711e-07
5.52037e-07
5.55442e-07
5.61838e-07
5.76223e-07
6.15372e-07
7.57664e-07
1.44339e-06
2.35101e-06
2.59944e-06
2.80037e-06
2.88349e-06
2.9312e-06
3.18882e-06
4.53079e-06
9.02255e-06
2.02419e-05
3.36934e-05
3.87504e-05
4.46012e-05
5.01731e-05
5.09261e-05
5.3556e-05
5.70634e-05
6.96194e-05
8.01531e-05
5.38273e-07
5.38973e-07
5.3974e-07
5.40581e-07
5.41502e-07
5.42512e-07
5.43617e-07
5.44829e-07
5.46161e-07
5.4763e-07
5.49269e-07
5.51146e-07
5.53417e-07
5.56448e-07
5.61144e-07
5.69693e-07
5.87496e-07
6.26639e-07
7.04357e-07
7.89475e-07
8.37792e-07
8.83048e-07
9.29662e-07
9.94219e-07
1.10693e-06
1.32665e-06
1.8688e-06
3.1814e-06
5.25455e-06
6.56805e-06
7.76167e-06
9.24338e-06
1.19812e-05
1.71559e-05
1.94442e-05
2.23318e-05
2.3813e-05
5.38261e-07
5.38959e-07
5.39727e-07
5.4057e-07
5.41497e-07
5.42516e-07
5.43637e-07
5.44871e-07
5.46234e-07
5.47744e-07
5.49434e-07
5.51359e-07
5.53623e-07
5.56423e-07
5.60127e-07
5.65435e-07
5.73713e-07
5.8752e-07
6.09871e-07
6.35965e-07
6.54433e-07
6.7029e-07
6.88199e-07
7.11142e-07
7.45113e-07
8.01001e-07
8.98531e-07
1.06704e-06
1.30617e-06
1.54885e-06
1.80943e-06
2.23459e-06
2.8247e-06
4.20785e-06
5.74045e-06
7.81262e-06
9.47303e-06
5.37951e-07
5.38651e-07
5.39421e-07
5.40268e-07
5.41201e-07
5.42229e-07
5.43363e-07
5.44617e-07
5.46005e-07
5.47551e-07
5.49285e-07
5.51258e-07
5.53553e-07
5.56314e-07
5.59786e-07
5.6435e-07
5.70495e-07
5.78605e-07
5.88022e-07
5.96301e-07
6.0421e-07
6.1315e-07
6.23889e-07
6.3759e-07
6.56329e-07
6.83059e-07
7.21755e-07
7.73705e-07
8.30353e-07
8.89912e-07
9.65701e-07
1.09778e-06
1.27457e-06
1.64558e-06
2.03982e-06
2.64745e-06
3.23574e-06
5.37954e-07
5.38655e-07
5.39426e-07
5.40276e-07
5.41213e-07
5.42247e-07
5.43389e-07
5.44653e-07
5.46054e-07
5.47614e-07
5.4936e-07
5.51333e-07
5.5359e-07
5.56216e-07
5.59329e-07
5.63093e-07
5.67702e-07
5.73354e-07
5.80107e-07
5.87502e-07
5.94926e-07
6.02743e-07
6.11678e-07
6.22394e-07
6.3579e-07
6.52829e-07
6.74152e-07
6.99567e-07
7.27191e-07
7.57288e-07
7.92879e-07
8.44539e-07
9.0922e-07
1.01676e-06
1.1451e-06
1.30353e-06
1.51146e-06
5.38271e-07
5.38972e-07
5.39745e-07
5.40596e-07
5.41535e-07
5.42571e-07
5.43715e-07
5.44983e-07
5.4639e-07
5.47957e-07
5.49713e-07
5.51694e-07
5.53951e-07
5.56553e-07
5.59591e-07
5.63169e-07
5.67375e-07
5.72216e-07
5.77543e-07
5.83087e-07
5.88892e-07
5.95369e-07
6.02862e-07
6.11694e-07
6.2237e-07
6.35555e-07
6.51799e-07
6.71303e-07
6.9317e-07
7.18104e-07
7.46274e-07
7.84041e-07
8.28094e-07
8.87504e-07
9.60223e-07
1.0272e-06
1.13609e-06
5.38288e-07
5.38993e-07
5.3977e-07
5.40625e-07
5.41566e-07
5.42604e-07
5.4375e-07
5.45016e-07
5.46421e-07
5.47982e-07
5.49724e-07
5.51679e-07
5.53886e-07
5.56396e-07
5.59267e-07
5.62571e-07
5.66377e-07
5.70736e-07
5.75676e-07
5.81172e-07
5.8721e-07
5.93905e-07
6.01478e-07
6.10199e-07
6.20402e-07
6.32469e-07
6.46632e-07
6.63237e-07
6.81861e-07
7.03953e-07
7.28034e-07
7.58665e-07
7.94789e-07
8.31794e-07
8.94752e-07
9.33349e-07
1.00736e-06
5.36714e-07
5.37454e-07
5.38265e-07
5.39157e-07
5.40134e-07
5.41207e-07
5.42387e-07
5.43687e-07
5.45121e-07
5.46708e-07
5.48473e-07
5.50444e-07
5.52657e-07
5.55154e-07
5.57986e-07
5.61206e-07
5.64857e-07
5.68965e-07
5.73529e-07
5.78536e-07
5.8402e-07
5.90106e-07
5.9696e-07
6.04775e-07
6.13777e-07
6.24292e-07
6.36511e-07
6.51024e-07
6.67131e-07
6.87512e-07
7.07201e-07
7.37289e-07
7.63992e-07
7.99723e-07
8.49592e-07
8.80235e-07
9.45155e-07
5.39154e-07
5.40178e-07
5.41296e-07
5.42512e-07
5.43834e-07
5.45271e-07
5.46836e-07
5.48541e-07
5.50401e-07
5.52437e-07
5.54671e-07
5.57129e-07
5.59843e-07
5.62851e-07
5.66199e-07
5.6994e-07
5.74129e-07
5.78821e-07
5.84064e-07
5.89902e-07
5.96377e-07
6.03556e-07
6.11538e-07
6.20456e-07
6.30452e-07
6.41772e-07
6.54429e-07
6.69245e-07
6.84658e-07
7.05765e-07
7.21723e-07
7.54213e-07
7.73647e-07
8.11709e-07
8.52778e-07
8.82194e-07
9.50662e-07
7.1603e-07
7.20635e-07
7.2563e-07
7.31039e-07
7.36895e-07
7.4324e-07
7.50122e-07
7.57594e-07
7.65722e-07
7.74584e-07
7.84272e-07
7.94889e-07
8.06549e-07
8.19379e-07
8.33523e-07
8.49133e-07
8.66359e-07
8.8534e-07
9.06199e-07
9.29051e-07
9.54029e-07
9.81314e-07
1.01115e-06
1.04383e-06
1.07972e-06
1.11925e-06
1.16294e-06
1.21128e-06
1.26491e-06
1.32503e-06
1.38924e-06
1.47043e-06
1.53518e-06
1.66172e-06
1.72591e-06
1.87541e-06
2.00983e-06
8.04215e-07
8.08864e-07
8.13859e-07
8.19217e-07
8.24946e-07
8.31053e-07
8.37534e-07
8.44373e-07
8.5153e-07
8.58913e-07
8.66347e-07
8.73496e-07
8.79727e-07
8.83856e-07
8.83291e-07
8.74828e-07
8.66286e-07
2.08389e-06
1.57914e-05
1.95849e-05
1.74014e-05
1.79113e-05
1.94165e-05
1.96142e-05
1.99176e-05
2.08433e-05
2.23811e-05
2.59294e-05
3.1622e-05
4.03633e-05
4.76131e-05
4.60854e-05
4.40592e-05
6.38773e-05
0.000196258
0.000439034
0.000569401
5.40882e-07
5.41691e-07
5.42574e-07
5.43541e-07
5.446e-07
5.45765e-07
5.47048e-07
5.4847e-07
5.50062e-07
5.51878e-07
5.54018e-07
5.56701e-07
5.60433e-07
5.66487e-07
5.78616e-07
6.07936e-07
7.03138e-07
1.13256e-06
4.1364e-06
7.48202e-06
8.18885e-06
1.05142e-05
1.28554e-05
1.28351e-05
1.26526e-05
1.4237e-05
1.9937e-05
2.95443e-05
3.49487e-05
3.35364e-05
3.35151e-05
3.18838e-05
3.29249e-05
3.98376e-05
7.6285e-05
0.00013981
0.000188254
5.05257e-07
5.05617e-07
5.06019e-07
5.06468e-07
5.0697e-07
5.0753e-07
5.08155e-07
5.08854e-07
5.09636e-07
5.10522e-07
5.11553e-07
5.12825e-07
5.14586e-07
5.17462e-07
5.23138e-07
5.35793e-07
5.67455e-07
6.59016e-07
9.40326e-07
1.37115e-06
1.58156e-06
1.82889e-06
2.12016e-06
2.36164e-06
2.60091e-06
3.06486e-06
4.47999e-06
8.2836e-06
1.34095e-05
1.59759e-05
1.77196e-05
1.86102e-05
1.72707e-05
1.61276e-05
1.72892e-05
2.2748e-05
3.08839e-05
4.9189e-07
4.92159e-07
4.92465e-07
4.92813e-07
4.93208e-07
4.93658e-07
4.94167e-07
4.94744e-07
4.95402e-07
4.96159e-07
4.97051e-07
4.98152e-07
4.99627e-07
5.01855e-07
5.05715e-07
5.13228e-07
5.28794e-07
5.6215e-07
6.23646e-07
6.86393e-07
7.20432e-07
7.5031e-07
7.89768e-07
8.54562e-07
9.61746e-07
1.13488e-06
1.44718e-06
2.03328e-06
2.82971e-06
3.46006e-06
4.06141e-06
4.84206e-06
5.64311e-06
7.00226e-06
7.50887e-06
8.24844e-06
8.76648e-06
4.85288e-07
4.8553e-07
4.8581e-07
4.86131e-07
4.865e-07
4.86923e-07
4.87407e-07
4.87961e-07
4.88599e-07
4.89338e-07
4.90208e-07
4.91264e-07
4.92612e-07
4.94453e-07
4.97165e-07
5.01441e-07
5.08438e-07
5.20142e-07
5.38424e-07
5.58993e-07
5.7506e-07
5.89312e-07
6.06249e-07
6.28548e-07
6.60231e-07
7.08573e-07
7.85722e-07
9.01203e-07
1.03773e-06
1.1754e-06
1.33386e-06
1.58434e-06
1.88702e-06
2.4788e-06
3.03755e-06
3.69723e-06
4.28818e-06
4.82519e-07
4.82753e-07
4.83025e-07
4.83338e-07
4.837e-07
4.84118e-07
4.84598e-07
4.85153e-07
4.85796e-07
4.86547e-07
4.87434e-07
4.88508e-07
4.89853e-07
4.91617e-07
4.94047e-07
4.97529e-07
5.02559e-07
5.09542e-07
5.1804e-07
5.25665e-07
5.32262e-07
5.3936e-07
5.47976e-07
5.59172e-07
5.74743e-07
5.97293e-07
6.29971e-07
6.7328e-07
7.19923e-07
7.6738e-07
8.26306e-07
9.19924e-07
1.0406e-06
1.25469e-06
1.46927e-06
1.75492e-06
2.02494e-06
4.82525e-07
4.8276e-07
4.83032e-07
4.83346e-07
4.8371e-07
4.84131e-07
4.84616e-07
4.85178e-07
4.8583e-07
4.86588e-07
4.87479e-07
4.8854e-07
4.89828e-07
4.91426e-07
4.93458e-07
4.9609e-07
4.99517e-07
5.03912e-07
5.09282e-07
5.15137e-07
5.20943e-07
5.27051e-07
5.34108e-07
5.42688e-07
5.53588e-07
5.67717e-07
5.85822e-07
6.07881e-07
6.32379e-07
6.59186e-07
6.91358e-07
7.36033e-07
7.93129e-07
8.76784e-07
9.7682e-07
1.08948e-06
1.22805e-06
4.85302e-07
4.85545e-07
4.85824e-07
4.86147e-07
4.86519e-07
4.86947e-07
4.87441e-07
4.88012e-07
4.88672e-07
4.8944e-07
4.9034e-07
4.91406e-07
4.92686e-07
4.9425e-07
4.96189e-07
4.98611e-07
5.01614e-07
5.05224e-07
5.09322e-07
5.13612e-07
5.18044e-07
5.22975e-07
5.28723e-07
5.35587e-07
5.44039e-07
5.54742e-07
5.68276e-07
5.84876e-07
6.03922e-07
6.25807e-07
6.51337e-07
6.84656e-07
7.26082e-07
7.7786e-07
8.44008e-07
9.06273e-07
9.9319e-07
4.91908e-07
4.92177e-07
4.92483e-07
4.92832e-07
4.93232e-07
4.93688e-07
4.94211e-07
4.94809e-07
4.95495e-07
4.96285e-07
4.97198e-07
4.98262e-07
4.99512e-07
5.00996e-07
5.0277e-07
5.04904e-07
5.07469e-07
5.10522e-07
5.14078e-07
5.18113e-07
5.22608e-07
5.27666e-07
5.33492e-07
5.40335e-07
5.48501e-07
5.58362e-07
5.70205e-07
5.8438e-07
6.00683e-07
6.20068e-07
6.42165e-07
6.69382e-07
7.0393e-07
7.37872e-07
7.96941e-07
8.33924e-07
9.03941e-07
5.05266e-07
5.05625e-07
5.06026e-07
5.06475e-07
5.06978e-07
5.07542e-07
5.08175e-07
5.08888e-07
5.09691e-07
5.106e-07
5.11633e-07
5.12815e-07
5.14178e-07
5.15762e-07
5.17616e-07
5.19791e-07
5.22337e-07
5.25287e-07
5.28651e-07
5.32428e-07
5.36648e-07
5.41415e-07
5.46871e-07
5.53192e-07
5.60597e-07
5.69401e-07
5.79832e-07
5.92381e-07
6.06689e-07
6.24564e-07
6.43366e-07
6.69075e-07
6.97225e-07
7.26299e-07
7.77748e-07
8.05519e-07
8.64626e-07
5.40856e-07
5.41654e-07
5.42525e-07
5.43475e-07
5.44513e-07
5.45646e-07
5.46885e-07
5.48241e-07
5.49727e-07
5.51359e-07
5.53155e-07
5.5514e-07
5.57342e-07
5.59799e-07
5.62556e-07
5.65667e-07
5.69192e-07
5.73195e-07
5.77735e-07
5.82865e-07
5.88634e-07
5.95103e-07
6.02361e-07
6.10529e-07
6.19736e-07
6.30206e-07
6.41994e-07
6.5577e-07
6.70494e-07
6.89803e-07
7.06499e-07
7.34805e-07
7.57473e-07
7.86701e-07
8.36406e-07
8.59459e-07
9.22176e-07
8.04469e-07
8.09241e-07
8.1442e-07
8.20031e-07
8.2611e-07
8.32702e-07
8.39859e-07
8.47637e-07
8.56109e-07
8.65359e-07
8.75488e-07
8.86603e-07
8.98827e-07
9.12298e-07
9.2717e-07
9.43603e-07
9.61751e-07
9.81751e-07
1.00372e-06
1.02777e-06
1.05403e-06
1.08268e-06
1.114e-06
1.1483e-06
1.186e-06
1.22756e-06
1.27358e-06
1.32461e-06
1.38144e-06
1.44504e-06
1.51441e-06
1.59861e-06
1.67352e-06
1.80166e-06
1.87284e-06
2.04199e-06
2.14442e-06
8.60743e-07
8.65421e-07
8.70449e-07
8.75845e-07
8.81619e-07
8.87775e-07
8.94313e-07
9.0122e-07
9.08461e-07
9.15959e-07
9.23561e-07
9.30986e-07
9.37725e-07
9.42904e-07
9.44961e-07
9.41842e-07
9.31826e-07
1.0447e-06
3.77148e-06
7.96258e-06
6.80146e-06
8.29448e-06
1.33509e-05
1.50286e-05
1.58793e-05
1.67724e-05
1.7835e-05
1.87483e-05
1.89917e-05
1.82111e-05
1.68461e-05
1.38253e-05
1.00759e-05
6.64814e-06
1.31498e-05
9.35776e-05
0.000362335
5.45771e-07
5.46556e-07
5.47416e-07
5.48362e-07
5.49405e-07
5.50559e-07
5.51841e-07
5.53271e-07
5.54884e-07
5.56738e-07
5.58945e-07
5.61733e-07
5.656e-07
5.71717e-07
5.8304e-07
6.07634e-07
6.71153e-07
8.67693e-07
1.55594e-06
2.57941e-06
2.78748e-06
3.96209e-06
6.77509e-06
7.84075e-06
8.08272e-06
8.89086e-06
1.09904e-05
1.45808e-05
1.60982e-05
1.40657e-05
1.18423e-05
9.47363e-06
8.33208e-06
7.15801e-06
9.43345e-06
2.83335e-05
0.000102717
4.89268e-07
4.89537e-07
4.89844e-07
4.90193e-07
4.9059e-07
4.91043e-07
4.91557e-07
4.92141e-07
4.92807e-07
4.93578e-07
4.94498e-07
4.9567e-07
4.97337e-07
5.00093e-07
5.05389e-07
5.16627e-07
5.41846e-07
6.02928e-07
7.29266e-07
8.84276e-07
9.88534e-07
1.11128e-06
1.37621e-06
1.76018e-06
2.17255e-06
2.52362e-06
3.03559e-06
4.04912e-06
5.56345e-06
6.50743e-06
7.31454e-06
7.95798e-06
7.81836e-06
7.41597e-06
7.14102e-06
8.13739e-06
1.46084e-05
4.65922e-07
4.66072e-07
4.66252e-07
4.66466e-07
4.66721e-07
4.67022e-07
4.67375e-07
4.67788e-07
4.68274e-07
4.68852e-07
4.69559e-07
4.7047e-07
4.71748e-07
4.73753e-07
4.77281e-07
4.84047e-07
4.97414e-07
5.2423e-07
5.70605e-07
6.14249e-07
6.36e-07
6.55852e-07
6.873e-07
7.33443e-07
8.25731e-07
9.70272e-07
1.18915e-06
1.5036e-06
1.84903e-06
2.12735e-06
2.41784e-06
2.81704e-06
3.32955e-06
4.02433e-06
4.40613e-06
4.63269e-06
5.0077e-06
4.54636e-07
4.54747e-07
4.54887e-07
4.5506e-07
4.55271e-07
4.55527e-07
4.55835e-07
4.56203e-07
4.56643e-07
4.57172e-07
4.57821e-07
4.58645e-07
4.59749e-07
4.61328e-07
4.63749e-07
4.67655e-07
4.74044e-07
4.84369e-07
4.9965e-07
5.1597e-07
5.29376e-07
5.41903e-07
5.57388e-07
5.78139e-07
6.07061e-07
6.48468e-07
7.10379e-07
7.95642e-07
8.88156e-07
9.77278e-07
1.0825e-06
1.23972e-06
1.44454e-06
1.77611e-06
2.11988e-06
2.46685e-06
2.81197e-06
4.50016e-07
4.50115e-07
4.50241e-07
4.504e-07
4.50598e-07
4.50841e-07
4.51137e-07
4.51496e-07
4.5193e-07
4.52459e-07
4.53113e-07
4.53941e-07
4.55026e-07
4.56514e-07
4.58645e-07
4.61788e-07
4.66407e-07
4.72879e-07
4.80902e-07
4.88381e-07
4.94629e-07
5.01167e-07
5.0906e-07
5.1916e-07
5.33203e-07
5.53404e-07
5.82057e-07
6.19241e-07
6.59497e-07
7.00036e-07
7.49002e-07
8.20673e-07
9.14477e-07
1.05928e-06
1.20995e-06
1.39152e-06
1.57013e-06
4.50023e-07
4.50121e-07
4.50248e-07
4.50407e-07
4.50606e-07
4.50852e-07
4.51152e-07
4.51516e-07
4.51958e-07
4.52495e-07
4.53151e-07
4.53965e-07
4.54992e-07
4.56319e-07
4.5807e-07
4.60411e-07
4.63536e-07
4.67599e-07
4.7258e-07
4.78013e-07
4.83453e-07
4.89244e-07
4.95947e-07
5.04055e-07
5.14278e-07
5.27478e-07
5.44423e-07
5.6521e-07
5.88717e-07
6.14688e-07
6.45885e-07
6.87313e-07
7.40808e-07
8.13161e-07
9.01348e-07
9.97394e-07
1.11164e-06
4.5465e-07
4.54761e-07
4.54898e-07
4.5507e-07
4.55281e-07
4.55538e-07
4.5585e-07
4.56227e-07
4.56681e-07
4.57229e-07
4.57895e-07
4.58712e-07
4.5973e-07
4.61018e-07
4.62668e-07
4.64792e-07
4.67495e-07
4.70821e-07
4.74679e-07
4.78814e-07
4.8313e-07
4.87897e-07
4.93436e-07
5.0003e-07
5.08133e-07
5.18393e-07
5.31393e-07
5.47405e-07
5.66018e-07
5.87504e-07
6.12939e-07
6.45303e-07
6.86327e-07
7.35706e-07
7.99413e-07
8.60975e-07
9.40307e-07
4.65938e-07
4.66086e-07
4.66262e-07
4.66473e-07
4.66724e-07
4.67023e-07
4.67377e-07
4.67796e-07
4.68291e-07
4.68876e-07
4.69571e-07
4.70402e-07
4.71404e-07
4.72625e-07
4.74124e-07
4.75973e-07
4.78246e-07
4.81005e-07
4.84273e-07
4.88024e-07
4.92244e-07
4.97047e-07
5.02624e-07
5.09209e-07
5.17092e-07
5.26639e-07
5.38175e-07
5.52075e-07
5.6835e-07
5.87696e-07
6.10268e-07
6.3751e-07
6.7259e-07
7.07519e-07
7.65218e-07
8.05429e-07
8.73944e-07
4.89272e-07
4.89536e-07
4.89834e-07
4.90172e-07
4.90557e-07
4.90995e-07
4.91493e-07
4.9206e-07
4.92708e-07
4.93449e-07
4.94301e-07
4.95288e-07
4.96442e-07
4.97803e-07
4.9942e-07
5.01348e-07
5.03645e-07
5.06351e-07
5.09491e-07
5.1307e-07
5.17122e-07
5.21744e-07
5.27081e-07
5.3331e-07
5.4065e-07
5.49404e-07
5.59818e-07
5.72342e-07
5.86822e-07
6.04548e-07
6.24241e-07
6.4911e-07
6.79593e-07
7.07847e-07
7.60987e-07
7.90331e-07
8.49627e-07
5.45707e-07
5.46464e-07
5.47286e-07
5.48182e-07
5.49164e-07
5.50238e-07
5.51414e-07
5.52705e-07
5.54122e-07
5.5568e-07
5.57398e-07
5.593e-07
5.61416e-07
5.63782e-07
5.66446e-07
5.69466e-07
5.72907e-07
5.76839e-07
5.81334e-07
5.86452e-07
5.92252e-07
5.988e-07
6.06184e-07
6.14526e-07
6.23961e-07
6.34703e-07
6.46855e-07
6.60965e-07
6.76425e-07
6.95695e-07
7.14576e-07
7.40935e-07
7.68666e-07
7.93573e-07
8.48282e-07
8.7159e-07
9.32805e-07
8.60909e-07
8.65693e-07
8.70877e-07
8.76495e-07
8.8259e-07
8.89209e-07
8.96406e-07
9.0424e-07
9.12786e-07
9.22135e-07
9.32389e-07
9.43661e-07
9.56078e-07
9.69781e-07
9.84926e-07
1.00167e-06
1.02017e-06
1.04055e-06
1.06294e-06
1.08744e-06
1.11419e-06
1.14337e-06
1.17527e-06
1.21023e-06
1.24868e-06
1.29114e-06
1.33821e-06
1.39052e-06
1.44897e-06
1.51417e-06
1.58713e-06
1.6701e-06
1.75918e-06
1.86949e-06
1.97453e-06
2.11832e-06
2.25153e-06
8.97093e-07
9.01727e-07
9.06712e-07
9.12065e-07
9.17795e-07
9.23908e-07
9.30407e-07
9.37283e-07
9.44511e-07
9.52029e-07
9.59714e-07
9.67342e-07
9.7453e-07
9.8067e-07
9.84852e-07
9.86117e-07
9.84797e-07
9.92475e-07
1.34401e-06
2.33367e-06
2.40355e-06
2.42042e-06
3.39046e-06
7.41908e-06
1.1906e-05
1.31613e-05
1.37858e-05
1.39406e-05
1.32155e-05
1.15149e-05
9.30518e-06
6.69093e-06
4.01298e-06
3.21172e-06
5.37446e-06
1.54855e-05
0.000118787
5.49169e-07
5.49963e-07
5.50835e-07
5.51795e-07
5.52858e-07
5.54038e-07
5.55352e-07
5.56822e-07
5.58485e-07
5.60401e-07
5.62681e-07
5.65546e-07
5.69453e-07
5.75411e-07
5.85712e-07
6.05855e-07
6.49436e-07
7.56101e-07
9.84143e-07
1.23659e-06
1.29144e-06
1.40523e-06
1.87995e-06
3.36141e-06
6.36037e-06
6.60003e-06
6.69069e-06
7.31702e-06
7.41962e-06
6.52902e-06
5.48682e-06
4.42956e-06
4.02732e-06
3.64802e-06
4.96283e-06
1.04349e-05
3.84746e-05
4.79169e-07
4.79431e-07
4.79731e-07
4.80075e-07
4.80469e-07
4.80921e-07
4.81437e-07
4.82029e-07
4.82708e-07
4.83499e-07
4.84448e-07
4.8566e-07
4.87364e-07
4.90096e-07
4.95058e-07
5.04902e-07
5.25008e-07
5.67232e-07
6.42545e-07
7.12409e-07
7.55353e-07
7.94449e-07
8.74205e-07
1.09216e-06
1.5619e-06
1.95196e-06
2.32103e-06
2.74426e-06
3.21051e-06
3.58735e-06
4.00394e-06
4.36494e-06
4.4883e-06
4.52026e-06
4.50702e-06
5.03361e-06
7.8235e-06
4.48921e-07
4.49053e-07
4.49215e-07
4.49412e-07
4.4965e-07
4.49935e-07
4.50273e-07
4.50673e-07
4.51148e-07
4.51718e-07
4.52421e-07
4.53333e-07
4.54609e-07
4.56579e-07
4.59931e-07
4.66059e-07
4.77456e-07
4.98476e-07
5.32698e-07
5.64602e-07
5.80669e-07
5.93809e-07
6.14302e-07
6.46197e-07
7.07796e-07
8.05354e-07
9.56627e-07
1.15695e-06
1.35168e-06
1.50477e-06
1.66266e-06
1.94791e-06
2.23917e-06
2.66255e-06
2.96174e-06
3.12531e-06
3.52002e-06
4.34172e-07
4.3426e-07
4.34376e-07
4.34525e-07
4.34712e-07
4.34944e-07
4.35227e-07
4.35571e-07
4.35988e-07
4.36495e-07
4.37123e-07
4.37929e-07
4.39014e-07
4.40568e-07
4.42931e-07
4.46677e-07
4.52643e-07
4.61846e-07
4.74757e-07
4.88135e-07
4.9936e-07
5.09964e-07
5.22836e-07
5.40617e-07
5.64995e-07
5.97798e-07
6.45201e-07
7.08447e-07
7.76887e-07
8.42707e-07
9.18933e-07
1.03171e-06
1.17156e-06
1.38403e-06
1.6099e-06
1.82975e-06
2.08527e-06
4.28108e-07
4.28182e-07
4.28282e-07
4.28414e-07
4.28584e-07
4.28799e-07
4.29067e-07
4.29396e-07
4.29802e-07
4.30302e-07
4.30927e-07
4.31725e-07
4.3278e-07
4.34232e-07
4.36306e-07
4.39341e-07
4.4375e-07
4.49851e-07
4.57415e-07
4.64732e-07
4.70906e-07
4.77254e-07
4.84799e-07
4.94155e-07
5.06769e-07
5.24526e-07
5.49297e-07
5.81056e-07
6.15965e-07
6.51589e-07
6.93813e-07
7.52555e-07
8.28399e-07
9.37984e-07
1.05402e-06
1.18707e-06
1.33065e-06
4.28114e-07
4.28188e-07
4.28288e-07
4.2842e-07
4.28591e-07
4.28808e-07
4.29079e-07
4.29414e-07