/*--------------------------------*- C++ -*----------------------------------*\
| =========                 |                                                 |
| \\      /  F ield         | OpenFOAM: The Open Source CFD Toolbox           |
|  \\    /   O peration     | Version:  2.3.1                                 |
|   \\  /    A nd           | Web:      www.OpenFOAM.org                      |
|    \\/     M anipulation  |                                                 |
\*---------------------------------------------------------------------------*/
FoamFile
{
    version     2.0;
    format      ascii;
    class       volScalarField;
    location    "15";
    object      epsilon;
}
// * * * * * * * * * * * * * * * * * * * * * * * * * * * * * * * * * * * * * //

dimensions      [0 2 -3 0 0 0 0];

internalField   nonuniform List<scalar> 
37530
(
6.06879e-07
6.14727e-07
6.23161e-07
6.32206e-07
6.41878e-07
6.52181e-07
6.63096e-07
6.74569e-07
6.86477e-07
6.98572e-07
7.10496e-07
7.21572e-07
7.3066e-07
7.35083e-07
7.287e-07
7.3001e-07
2.251e-06
2.28103e-05
3.83787e-05
3.7846e-05
3.57812e-05
3.67176e-05
3.63556e-05
3.14076e-05
3.12854e-05
7.75112e-05
0.000415675
0.000902293
0.00101522
0.00103224
0.00102069
0.00091733
0.00082438
0.000799499
0.00080544
0.000852354
0.000916998
1.01661e-06
1.02837e-06
1.04098e-06
1.05448e-06
1.06887e-06
1.08416e-06
1.10032e-06
1.11725e-06
1.13478e-06
1.15256e-06
1.16986e-06
1.18534e-06
1.1968e-06
1.20074e-06
1.19142e-06
1.16167e-06
1.2166e-06
3.77706e-06
1.07949e-05
1.4377e-05
1.81273e-05
2.06652e-05
2.17779e-05
2.14244e-05
2.05828e-05
2.60095e-05
8.05555e-05
0.000206311
0.000261566
0.000326254
0.000464656
0.000607799
0.000685014
0.000723693
0.00072783
0.000707969
0.000661795
1.22666e-06
1.23944e-06
1.25316e-06
1.26784e-06
1.28351e-06
1.30017e-06
1.31781e-06
1.33637e-06
1.35568e-06
1.37543e-06
1.39509e-06
1.41374e-06
1.42986e-06
1.44117e-06
1.44598e-06
1.44176e-06
1.4228e-06
1.55083e-06
2.23385e-06
2.93975e-06
3.47177e-06
4.09875e-06
4.45508e-06
4.41723e-06
4.54937e-06
5.42324e-06
1.08383e-05
3.00074e-05
4.27347e-05
5.00208e-05
7.96447e-05
0.000130805
0.00018406
0.000234857
0.00025682
0.000256635
0.000231919
1.33061e-06
1.34392e-06
1.35821e-06
1.37352e-06
1.3899e-06
1.40737e-06
1.42596e-06
1.44565e-06
1.46637e-06
1.488e-06
1.51031e-06
1.53304e-06
1.55585e-06
1.57849e-06
1.6012e-06
1.62627e-06
1.66032e-06
1.70329e-06
1.82874e-06
2.01248e-06
2.17007e-06
2.32117e-06
2.48186e-06
2.61895e-06
2.7706e-06
2.99053e-06
3.57057e-06
5.50085e-06
7.70926e-06
8.61989e-06
1.16912e-05
2.25663e-05
4.82243e-05
7.99786e-05
9.80259e-05
0.000107408
0.000105961
1.37595e-06
1.38951e-06
1.4041e-06
1.41977e-06
1.43656e-06
1.45454e-06
1.47374e-06
1.49418e-06
1.51586e-06
1.5387e-06
1.56258e-06
1.58729e-06
1.61259e-06
1.63817e-06
1.66393e-06
1.69042e-06
1.72069e-06
1.75833e-06
1.81124e-06
1.88204e-06
1.95929e-06
2.03608e-06
2.11333e-06
2.19281e-06
2.28201e-06
2.39207e-06
2.54469e-06
2.81321e-06
3.18304e-06
3.49937e-06
3.924e-06
5.05499e-06
8.33741e-06
1.70574e-05
2.82956e-05
3.88635e-05
4.18428e-05
1.39196e-06
1.40565e-06
1.4204e-06
1.43626e-06
1.4533e-06
1.47159e-06
1.49121e-06
1.5122e-06
1.53465e-06
1.55861e-06
1.58418e-06
1.61153e-06
1.64096e-06
1.67299e-06
1.70857e-06
1.74932e-06
1.79794e-06
1.8581e-06
1.93204e-06
2.02146e-06
2.12016e-06
2.22135e-06
2.32887e-06
2.44405e-06
2.56196e-06
2.67911e-06
2.80147e-06
2.94654e-06
3.12682e-06
3.32466e-06
3.53056e-06
3.79477e-06
4.27763e-06
5.49549e-06
7.61858e-06
1.15265e-05
1.45043e-05
1.39195e-06
1.40569e-06
1.42051e-06
1.43648e-06
1.45368e-06
1.47217e-06
1.49206e-06
1.51343e-06
1.53639e-06
1.56103e-06
1.58746e-06
1.61583e-06
1.6463e-06
1.67915e-06
1.71478e-06
1.75384e-06
1.79728e-06
1.84652e-06
1.90288e-06
1.96649e-06
2.03617e-06
2.11101e-06
2.1915e-06
2.27899e-06
2.37609e-06
2.48626e-06
2.61305e-06
2.75956e-06
2.92557e-06
3.10526e-06
3.30302e-06
3.5253e-06
3.77328e-06
4.11609e-06
4.68292e-06
5.31579e-06
6.69451e-06
1.37598e-06
1.38971e-06
1.40454e-06
1.42054e-06
1.43779e-06
1.45639e-06
1.47644e-06
1.49806e-06
1.5214e-06
1.54662e-06
1.57394e-06
1.60367e-06
1.6362e-06
1.67206e-06
1.71197e-06
1.75695e-06
1.80832e-06
1.8673e-06
1.93498e-06
2.01158e-06
2.09598e-06
2.187e-06
2.28476e-06
2.38958e-06
2.50147e-06
2.62102e-06
2.7503e-06
2.8924e-06
3.0502e-06
3.22515e-06
3.41524e-06
3.63413e-06
3.85527e-06
4.19794e-06
4.49455e-06
5.0613e-06
5.49235e-06
1.33073e-06
1.34429e-06
1.35897e-06
1.37482e-06
1.39194e-06
1.41041e-06
1.43037e-06
1.45196e-06
1.47533e-06
1.50068e-06
1.52823e-06
1.55824e-06
1.591e-06
1.62689e-06
1.66638e-06
1.71003e-06
1.75836e-06
1.81195e-06
1.87114e-06
1.93612e-06
2.0069e-06
2.08376e-06
2.16736e-06
2.25886e-06
2.3599e-06
2.47254e-06
2.59909e-06
2.74133e-06
2.9014e-06
3.07975e-06
3.27911e-06
3.50186e-06
3.75125e-06
4.02432e-06
4.44434e-06
4.7404e-06
5.42463e-06
1.22699e-06
1.24009e-06
1.25429e-06
1.26965e-06
1.28625e-06
1.3042e-06
1.32363e-06
1.34469e-06
1.36755e-06
1.39243e-06
1.4196e-06
1.44937e-06
1.4821e-06
1.51827e-06
1.55842e-06
1.60317e-06
1.65319e-06
1.70906e-06
1.77133e-06
1.84023e-06
1.91579e-06
1.99807e-06
2.08742e-06
2.18444e-06
2.28997e-06
2.40512e-06
2.53167e-06
2.67106e-06
2.82605e-06
2.99721e-06
3.18817e-06
3.39916e-06
3.64582e-06
3.87332e-06
4.30439e-06
4.55321e-06
5.22842e-06
1.01719e-06
1.02927e-06
1.04237e-06
1.05657e-06
1.07193e-06
1.08857e-06
1.10663e-06
1.12624e-06
1.14757e-06
1.17084e-06
1.1963e-06
1.22422e-06
1.25491e-06
1.28873e-06
1.32607e-06
1.36739e-06
1.4131e-06
1.46361e-06
1.51924e-06
1.58025e-06
1.64695e-06
1.71973e-06
1.79927e-06
1.88646e-06
1.98249e-06
2.08867e-06
2.20685e-06
2.33768e-06
2.48533e-06
2.64387e-06
2.83686e-06
3.00597e-06
3.29928e-06
3.44898e-06
3.87885e-06
4.03154e-06
4.66708e-06
6.07325e-07
6.15366e-07
6.24084e-07
6.33535e-07
6.43782e-07
6.549e-07
6.66978e-07
6.80112e-07
6.9442e-07
7.10039e-07
7.27137e-07
7.45904e-07
7.66562e-07
7.89358e-07
8.14574e-07
8.42514e-07
8.73492e-07
9.07801e-07
9.45697e-07
9.87403e-07
1.03315e-06
1.08322e-06
1.13802e-06
1.19807e-06
1.26406e-06
1.33672e-06
1.4174e-06
1.50598e-06
1.60726e-06
1.71151e-06
1.85051e-06
1.94976e-06
2.16992e-06
2.25512e-06
2.58866e-06
2.60121e-06
3.12184e-06
5.73496e-07
5.77624e-07
5.82057e-07
5.86808e-07
5.91882e-07
5.97283e-07
6.03001e-07
6.0901e-07
6.15258e-07
6.21696e-07
6.28157e-07
6.34272e-07
6.39042e-07
6.40276e-07
6.33166e-07
6.11197e-07
1.11071e-06
1.1662e-05
2.60737e-05
2.73834e-05
2.49062e-05
2.4196e-05
2.42452e-05
2.38838e-05
2.25724e-05
2.54052e-05
7.19071e-05
0.000232814
0.000471986
0.00056572
0.000576701
0.000574641
0.000582609
0.000597029
0.000603624
0.000622374
0.000671671
5.73708e-07
5.75871e-07
5.78203e-07
5.80711e-07
5.83404e-07
5.86291e-07
5.8938e-07
5.9268e-07
5.96203e-07
5.99962e-07
6.03972e-07
6.08281e-07
6.13049e-07
6.19636e-07
6.32272e-07
6.64291e-07
8.13555e-07
2.94247e-06
1.18408e-05
2.12297e-05
2.55272e-05
2.61686e-05
2.59135e-05
2.54043e-05
2.71799e-05
3.34255e-05
6.00517e-05
0.000161098
0.000304607
0.000435064
0.000564246
0.00060265
0.000622418
0.000642408
0.000632298
0.000637948
0.000671048
6.29368e-07
6.31625e-07
6.34058e-07
6.36678e-07
6.39496e-07
6.4252e-07
6.45764e-07
6.49234e-07
6.52927e-07
6.56842e-07
6.60978e-07
6.65357e-07
6.70084e-07
6.75684e-07
6.85368e-07
7.05583e-07
7.53035e-07
9.4133e-07
1.89919e-06
3.08667e-06
3.55066e-06
3.72528e-06
3.54724e-06
3.47718e-06
4.00217e-06
6.39618e-06
1.39909e-05
3.40368e-05
5.57142e-05
6.52913e-05
8.34908e-05
0.000112129
0.000135653
0.00016255
0.00018273
0.000203285
0.000206135
6.56572e-07
6.58933e-07
6.61483e-07
6.64233e-07
6.67196e-07
6.70386e-07
6.73818e-07
6.77507e-07
6.81465e-07
6.85706e-07
6.9025e-07
6.95142e-07
7.00489e-07
7.06574e-07
7.14165e-07
7.25875e-07
7.4768e-07
7.89771e-07
8.68306e-07
9.57332e-07
1.01609e-06
1.07888e-06
1.13354e-06
1.20537e-06
1.34172e-06
1.65146e-06
2.54708e-06
4.99546e-06
8.20159e-06
9.48958e-06
1.12324e-05
1.64511e-05
2.97994e-05
5.05054e-05
6.41589e-05
7.34784e-05
7.45526e-05
6.67505e-07
6.69922e-07
6.72535e-07
6.75358e-07
6.78404e-07
6.81691e-07
6.85238e-07
6.89062e-07
6.93183e-07
6.97624e-07
7.02416e-07
7.07608e-07
7.1329e-07
7.19628e-07
7.26939e-07
7.35964e-07
7.4932e-07
7.69777e-07
8.00141e-07
8.35274e-07
8.62255e-07
8.85103e-07
9.07433e-07
9.3463e-07
9.76195e-07
1.0494e-06
1.18592e-06
1.44955e-06
1.83782e-06
2.16254e-06
2.52938e-06
3.33755e-06
5.10477e-06
9.52912e-06
1.55779e-05
2.35313e-05
2.81586e-05
6.71094e-07
6.73535e-07
6.76177e-07
6.79034e-07
6.82122e-07
6.85461e-07
6.89069e-07
6.9297e-07
6.97187e-07
7.01752e-07
7.067e-07
7.12089e-07
7.18009e-07
7.24607e-07
7.32126e-07
7.40943e-07
7.51554e-07
7.64358e-07
7.78606e-07
7.92119e-07
8.07045e-07
8.24787e-07
8.45495e-07
8.70561e-07
9.0217e-07
9.4284e-07
9.96724e-07
1.0684e-06
1.14472e-06
1.22467e-06
1.33462e-06
1.54957e-06
1.90521e-06
2.7051e-06
3.79065e-06
5.69362e-06
7.51882e-06
6.71085e-07
6.73532e-07
6.76182e-07
6.79051e-07
6.82155e-07
6.85513e-07
6.89148e-07
6.93084e-07
6.97347e-07
7.01972e-07
7.06997e-07
7.12477e-07
7.18482e-07
7.25109e-07
7.32493e-07
7.40813e-07
7.5032e-07
7.61255e-07
7.73795e-07
7.87715e-07
8.0245e-07
8.1828e-07
8.35985e-07
8.56427e-07
8.80663e-07
9.09766e-07
9.44486e-07
9.84805e-07
1.02761e-06
1.07373e-06
1.12837e-06
1.20541e-06
1.3099e-06
1.48838e-06
1.73112e-06
2.06918e-06
2.53842e-06
6.67498e-07
6.69932e-07
6.72572e-07
6.75432e-07
6.78529e-07
6.81882e-07
6.85516e-07
6.89457e-07
6.93736e-07
6.98389e-07
7.0346e-07
7.09006e-07
7.15096e-07
7.21825e-07
7.29307e-07
7.3768e-07
7.47059e-07
7.57503e-07
7.6896e-07
7.81278e-07
7.94655e-07
8.09592e-07
8.26444e-07
8.45579e-07
8.67512e-07
8.92843e-07
9.21998e-07
9.55195e-07
9.91451e-07
1.03229e-06
1.0767e-06
1.13497e-06
1.19611e-06
1.28594e-06
1.38811e-06
1.48855e-06
1.67508e-06
6.56575e-07
6.58964e-07
6.61558e-07
6.6437e-07
6.67416e-07
6.70717e-07
6.74297e-07
6.78184e-07
6.8241e-07
6.87012e-07
6.92036e-07
6.97537e-07
7.03579e-07
7.10238e-07
7.17606e-07
7.25791e-07
7.34899e-07
7.45023e-07
7.56228e-07
7.68534e-07
7.81995e-07
7.9677e-07
8.13114e-07
8.31364e-07
8.51928e-07
8.7527e-07
9.01637e-07
9.31509e-07
9.64169e-07
1.00214e-06
1.04157e-06
1.09271e-06
1.14433e-06
1.20676e-06
1.29154e-06
1.36428e-06
1.46042e-06
6.29397e-07
6.3169e-07
6.34182e-07
6.36885e-07
6.39813e-07
6.42988e-07
6.46434e-07
6.50177e-07
6.54251e-07
6.58694e-07
6.63552e-07
6.6888e-07
6.74738e-07
6.81197e-07
6.88338e-07
6.96248e-07
7.05002e-07
7.14651e-07
7.25222e-07
7.36737e-07
7.49269e-07
7.62989e-07
7.78106e-07
7.94864e-07
8.1354e-07
8.34518e-07
8.58014e-07
8.84764e-07
9.13817e-07
9.49154e-07
9.8257e-07
1.03342e-06
1.07213e-06
1.13679e-06
1.19827e-06
1.27065e-06
1.35486e-06
5.7374e-07
5.75939e-07
5.78329e-07
5.80919e-07
5.83723e-07
5.86761e-07
5.90055e-07
5.9363e-07
5.97515e-07
6.01746e-07
6.06365e-07
6.1142e-07
6.16965e-07
6.23059e-07
6.29775e-07
6.37191e-07
6.45386e-07
6.54434e-07
6.644e-07
6.75342e-07
6.87323e-07
7.00439e-07
7.14827e-07
7.30668e-07
7.48163e-07
7.67625e-07
7.89089e-07
8.13574e-07
8.39014e-07
8.72293e-07
8.9828e-07
9.47614e-07
9.76888e-07
1.04126e-06
1.08061e-06
1.16538e-06
1.22567e-06
5.73696e-07
5.77926e-07
5.82511e-07
5.87475e-07
5.92848e-07
5.98668e-07
6.04978e-07
6.11827e-07
6.1927e-07
6.27377e-07
6.3623e-07
6.45919e-07
6.56546e-07
6.68225e-07
6.81086e-07
6.9527e-07
7.10919e-07
7.28173e-07
7.47157e-07
7.67996e-07
7.90825e-07
8.1581e-07
8.43166e-07
8.73147e-07
9.06066e-07
9.42271e-07
9.82244e-07
1.02629e-06
1.07529e-06
1.12922e-06
1.18928e-06
1.2571e-06
1.32761e-06
1.41903e-06
1.5053e-06
1.58585e-06
1.77325e-06
7.15681e-07
7.20159e-07
7.24966e-07
7.30112e-07
7.35605e-07
7.41441e-07
7.47628e-07
7.54166e-07
7.61008e-07
7.68057e-07
7.75123e-07
7.81837e-07
7.87465e-07
7.90478e-07
7.8728e-07
7.72359e-07
9.22556e-07
8.08843e-06
2.45762e-05
2.6248e-05
2.36481e-05
2.30387e-05
2.28928e-05
2.26138e-05
2.25682e-05
2.28685e-05
2.88873e-05
5.42879e-05
0.000109103
0.000185959
0.000241434
0.000267072
0.000306222
0.000394516
0.000537289
0.000607925
0.000650892
5.39083e-07
5.40098e-07
5.41198e-07
5.42388e-07
5.43675e-07
5.45064e-07
5.46573e-07
5.48226e-07
5.50045e-07
5.52068e-07
5.54371e-07
5.57129e-07
5.60773e-07
5.66556e-07
5.78769e-07
6.12037e-07
7.48198e-07
2.00815e-06
9.387e-06
1.64424e-05
1.86271e-05
1.96739e-05
1.94062e-05
1.8538e-05
1.96895e-05
2.48685e-05
3.72035e-05
6.3766e-05
9.12848e-05
0.000117598
0.00015995
0.000192703
0.000218622
0.000235809
0.000269628
0.000363554
0.000428914
5.36639e-07
5.3737e-07
5.38169e-07
5.39041e-07
5.39991e-07
5.41025e-07
5.42151e-07
5.43378e-07
5.44713e-07
5.46174e-07
5.47792e-07
5.49652e-07
5.5198e-07
5.55389e-07
5.61796e-07
5.7621e-07
6.15463e-07
7.5831e-07
1.44589e-06
2.35208e-06
2.59972e-06
2.80045e-06
2.88326e-06
2.93121e-06
3.19148e-06
4.54356e-06
9.05552e-06
2.02975e-05
3.37257e-05
3.87791e-05
4.46356e-05
5.01975e-05
5.09441e-05
5.35699e-05
5.70787e-05
6.96392e-05
8.01807e-05
5.38218e-07
5.38918e-07
5.39685e-07
5.40526e-07
5.41448e-07
5.42457e-07
5.43563e-07
5.44776e-07
5.46108e-07
5.47577e-07
5.49216e-07
5.51095e-07
5.53366e-07
5.564e-07
5.61101e-07
5.69663e-07
5.87498e-07
6.2671e-07
7.04515e-07
7.89551e-07
8.37816e-07
8.83086e-07
9.29692e-07
9.94323e-07
1.1073e-06
1.32781e-06
1.87224e-06
3.1887e-06
5.26137e-06
6.57088e-06
7.76231e-06
9.24353e-06
1.19832e-05
1.71573e-05
1.94411e-05
2.23264e-05
2.38092e-05
5.38209e-07
5.38908e-07
5.39675e-07
5.40518e-07
5.41445e-07
5.42465e-07
5.43586e-07
5.44821e-07
5.46184e-07
5.47694e-07
5.49385e-07
5.51311e-07
5.53575e-07
5.56377e-07
5.60084e-07
5.65397e-07
5.73684e-07
5.87508e-07
6.09877e-07
6.35957e-07
6.544e-07
6.70255e-07
6.88166e-07
7.11126e-07
7.45154e-07
8.01161e-07
8.98933e-07
1.0678e-06
1.30709e-06
1.54952e-06
1.80986e-06
2.23491e-06
2.82509e-06
4.20889e-06
5.74193e-06
7.81381e-06
9.47336e-06
5.379e-07
5.386e-07
5.3937e-07
5.40218e-07
5.41151e-07
5.42179e-07
5.43314e-07
5.44568e-07
5.45957e-07
5.47503e-07
5.49238e-07
5.51211e-07
5.53506e-07
5.56269e-07
5.59743e-07
5.6431e-07
5.70459e-07
5.78572e-07
5.87988e-07
5.96261e-07
6.04169e-07
6.13112e-07
6.23856e-07
6.37565e-07
6.56323e-07
6.83086e-07
7.21831e-07
7.73821e-07
8.30456e-07
8.89993e-07
9.65762e-07
1.09787e-06
1.27471e-06
1.64595e-06
2.04038e-06
2.6483e-06
3.23668e-06
5.37903e-07
5.38604e-07
5.39376e-07
5.40226e-07
5.41163e-07
5.42198e-07
5.4334e-07
5.44604e-07
5.46006e-07
5.47566e-07
5.49313e-07
5.51286e-07
5.53543e-07
5.5617e-07
5.59285e-07
5.63051e-07
5.67662e-07
5.73315e-07
5.8007e-07
5.87464e-07
5.94887e-07
6.02704e-07
6.11641e-07
6.22362e-07
6.35766e-07
6.52817e-07
6.74153e-07
6.99576e-07
7.27195e-07
7.57282e-07
7.92864e-07
8.44529e-07
9.09217e-07
1.01681e-06
1.14523e-06
1.30374e-06
1.51173e-06
5.38219e-07
5.3892e-07
5.39693e-07
5.40545e-07
5.41484e-07
5.4252e-07
5.43665e-07
5.44933e-07
5.4634e-07
5.47908e-07
5.49664e-07
5.51645e-07
5.53903e-07
5.56506e-07
5.59545e-07
5.63124e-07
5.67331e-07
5.72174e-07
5.77501e-07
5.83045e-07
5.8885e-07
5.95328e-07
6.02823e-07
6.1166e-07
6.22341e-07
6.35533e-07
6.51783e-07
6.71291e-07
6.93155e-07
7.18085e-07
7.46251e-07
7.84021e-07
8.28081e-07
8.87503e-07
9.60254e-07
1.02724e-06
1.13615e-06
5.38233e-07
5.38938e-07
5.39715e-07
5.4057e-07
5.41512e-07
5.4255e-07
5.43696e-07
5.44963e-07
5.46368e-07
5.47929e-07
5.49672e-07
5.51627e-07
5.53835e-07
5.56345e-07
5.59218e-07
5.62523e-07
5.66329e-07
5.7069e-07
5.75631e-07
5.81127e-07
5.87166e-07
5.93862e-07
6.01437e-07
6.10161e-07
6.20367e-07
6.32438e-07
6.46604e-07
6.63211e-07
6.81835e-07
7.03926e-07
7.28006e-07
7.58636e-07
7.94769e-07
8.31768e-07
8.94751e-07
9.33362e-07
1.00734e-06
5.36652e-07
5.37392e-07
5.38204e-07
5.39095e-07
5.40073e-07
5.41147e-07
5.42327e-07
5.43626e-07
5.45061e-07
5.46649e-07
5.48414e-07
5.50385e-07
5.52598e-07
5.55097e-07
5.5793e-07
5.6115e-07
5.64802e-07
5.68911e-07
5.73475e-07
5.78483e-07
5.83968e-07
5.90055e-07
5.9691e-07
6.04727e-07
6.13732e-07
6.2425e-07
6.36472e-07
6.50987e-07
6.67094e-07
6.87477e-07
7.07163e-07
7.37253e-07
7.63964e-07
7.99682e-07
8.49577e-07
8.80219e-07
9.45122e-07
5.39079e-07
5.40104e-07
5.41222e-07
5.42438e-07
5.4376e-07
5.45198e-07
5.46763e-07
5.48468e-07
5.50329e-07
5.52365e-07
5.54599e-07
5.57058e-07
5.59772e-07
5.62781e-07
5.6613e-07
5.69871e-07
5.74061e-07
5.78753e-07
5.83998e-07
5.89836e-07
5.96312e-07
6.03492e-07
6.11475e-07
6.20395e-07
6.30392e-07
6.41714e-07
6.54372e-07
6.69191e-07
6.84603e-07
7.05715e-07
7.21669e-07
7.54163e-07
7.73603e-07
8.11655e-07
8.52759e-07
8.82157e-07
9.50617e-07
7.15931e-07
7.20536e-07
7.25531e-07
7.3094e-07
7.36796e-07
7.43141e-07
7.50023e-07
7.57496e-07
7.65623e-07
7.74485e-07
7.84174e-07
7.94791e-07
8.06452e-07
8.19282e-07
8.33427e-07
8.49037e-07
8.66264e-07
8.85246e-07
9.06106e-07
9.28959e-07
9.53937e-07
9.81223e-07
1.01106e-06
1.04374e-06
1.07964e-06
1.11916e-06
1.16286e-06
1.21121e-06
1.26484e-06
1.32496e-06
1.38917e-06
1.47038e-06
1.5351e-06
1.66168e-06
1.72586e-06
1.87532e-06
2.00987e-06
8.04111e-07
8.0876e-07
8.13755e-07
8.19112e-07
8.24842e-07
8.30948e-07
8.37429e-07
8.44268e-07
8.51423e-07
8.58806e-07
8.66238e-07
8.73384e-07
8.7961e-07
8.8373e-07
8.83149e-07
8.74664e-07
8.66274e-07
2.09564e-06
1.58218e-05
1.95742e-05
1.73904e-05
1.79046e-05
1.94084e-05
1.96077e-05
1.99156e-05
2.08425e-05
2.23937e-05
2.5977e-05
3.17011e-05
4.04589e-05
4.76324e-05
4.60425e-05
4.40243e-05
6.40319e-05
0.00019698
0.000439266
0.000568988
5.40813e-07
5.41621e-07
5.42505e-07
5.43472e-07
5.44532e-07
5.45696e-07
5.4698e-07
5.48402e-07
5.49995e-07
5.5181e-07
5.53951e-07
5.56636e-07
5.60371e-07
5.66433e-07
5.78585e-07
6.07972e-07
7.03485e-07
1.13501e-06
4.14944e-06
7.48536e-06
8.19119e-06
1.05178e-05
1.28552e-05
1.28343e-05
1.26573e-05
1.4256e-05
1.9975e-05
2.95794e-05
3.49482e-05
3.35522e-05
3.35365e-05
3.19097e-05
3.2965e-05
3.99162e-05
7.64939e-05
0.000139818
0.000188333
5.05204e-07
5.05564e-07
5.05966e-07
5.06415e-07
5.06917e-07
5.07477e-07
5.08103e-07
5.08801e-07
5.09584e-07
5.10471e-07
5.11501e-07
5.12775e-07
5.14537e-07
5.17417e-07
5.23103e-07
5.35783e-07
5.67521e-07
6.59328e-07
9.41437e-07
1.37196e-06
1.58206e-06
1.82934e-06
2.12049e-06
2.36187e-06
2.60181e-06
3.06811e-06
4.49161e-06
8.30417e-06
1.34256e-05
1.59828e-05
1.77248e-05
1.86119e-05
1.72695e-05
1.613e-05
1.73043e-05
2.27677e-05
3.09076e-05
4.91844e-07
4.92113e-07
4.92419e-07
4.92768e-07
4.93163e-07
4.93613e-07
4.94122e-07
4.947e-07
4.95358e-07
4.96115e-07
4.97008e-07
4.9811e-07
4.99586e-07
5.01816e-07
5.05681e-07
5.13206e-07
5.28799e-07
5.62214e-07
6.23762e-07
6.86448e-07
7.2043e-07
7.50326e-07
7.89812e-07
8.54672e-07
9.62028e-07
1.13552e-06
1.44869e-06
2.03609e-06
2.83248e-06
3.46141e-06
4.06162e-06
4.84189e-06
5.64257e-06
7.0006e-06
7.50668e-06
8.24555e-06
8.76452e-06
4.85245e-07
4.85488e-07
4.85768e-07
4.86089e-07
4.86458e-07
4.86881e-07
4.87365e-07
4.8792e-07
4.88558e-07
4.89297e-07
4.90168e-07
4.91225e-07
4.92573e-07
4.94416e-07
4.9713e-07
5.01412e-07
5.08416e-07
5.20134e-07
5.38428e-07
5.58987e-07
5.75034e-07
5.89283e-07
6.0622e-07
6.28531e-07
6.60255e-07
7.08679e-07
7.85973e-07
9.01612e-07
1.03816e-06
1.17572e-06
1.33405e-06
1.58448e-06
1.88714e-06
2.4791e-06
3.03794e-06
3.69743e-06
4.28801e-06
4.82477e-07
4.82712e-07
4.82984e-07
4.83298e-07
4.8366e-07
4.84077e-07
4.84558e-07
4.85114e-07
4.85757e-07
4.86507e-07
4.87395e-07
4.8847e-07
4.89816e-07
4.91581e-07
4.94012e-07
4.97498e-07
5.02531e-07
5.09518e-07
5.18016e-07
5.25634e-07
5.32227e-07
5.39327e-07
5.47947e-07
5.59151e-07
5.74739e-07
5.97316e-07
6.30033e-07
6.7337e-07
7.19997e-07
7.6743e-07
8.26338e-07
9.19967e-07
1.04066e-06
1.25487e-06
1.46952e-06
1.75527e-06
2.02528e-06
4.82484e-07
4.82719e-07
4.82991e-07
4.83306e-07
4.8367e-07
4.8409e-07
4.84576e-07
4.85138e-07
4.8579e-07
4.86549e-07
4.8744e-07
4.88502e-07
4.8979e-07
4.9139e-07
4.93423e-07
4.96056e-07
4.99484e-07
5.03882e-07
5.09253e-07
5.15107e-07
5.20911e-07
5.27018e-07
5.34077e-07
5.42661e-07
5.53568e-07
5.67708e-07
5.85824e-07
6.07891e-07
6.32384e-07
6.59182e-07
6.91346e-07
7.36022e-07
7.93124e-07
8.76814e-07
9.76893e-07
1.0896e-06
1.22819e-06
4.8526e-07
4.85503e-07
4.85782e-07
4.86105e-07
4.86477e-07
4.86906e-07
4.874e-07
4.87971e-07
4.88632e-07
4.894e-07
4.903e-07
4.91366e-07
4.92647e-07
4.94212e-07
4.96152e-07
4.98574e-07
5.01578e-07
5.0519e-07
5.09288e-07
5.13577e-07
5.18009e-07
5.2294e-07
5.28691e-07
5.35558e-07
5.44015e-07
5.54725e-07
5.68265e-07
5.84869e-07
6.03912e-07
6.25793e-07
6.5132e-07
6.8464e-07
7.26072e-07
7.7786e-07
8.44028e-07
9.06313e-07
9.93228e-07
4.91862e-07
4.92131e-07
4.92437e-07
4.92787e-07
4.93187e-07
4.93644e-07
4.94166e-07
4.94764e-07
4.95451e-07
4.96241e-07
4.97154e-07
4.98218e-07
4.99469e-07
5.00953e-07
5.02729e-07
5.04864e-07
5.07429e-07
5.10483e-07
5.1404e-07
5.18076e-07
5.22571e-07
5.27629e-07
5.33457e-07
5.40302e-07
5.48471e-07
5.58336e-07
5.70182e-07
5.84359e-07
6.00662e-07
6.20046e-07
6.42142e-07
6.69357e-07
7.03914e-07
7.37852e-07
7.96941e-07
8.33939e-07
9.0393e-07
5.05213e-07
5.05572e-07
5.05973e-07
5.06422e-07
5.06925e-07
5.07489e-07
5.08123e-07
5.08836e-07
5.0964e-07
5.10549e-07
5.11582e-07
5.12764e-07
5.14128e-07
5.15712e-07
5.17566e-07
5.19742e-07
5.22289e-07
5.25239e-07
5.28604e-07
5.32381e-07
5.36602e-07
5.4137e-07
5.46827e-07
5.5315e-07
5.60557e-07
5.69364e-07
5.79798e-07
5.92348e-07
6.06657e-07
6.24533e-07
6.43334e-07
6.69043e-07
6.97202e-07
7.26263e-07
7.77733e-07
8.05509e-07
8.64593e-07
5.40787e-07
5.41585e-07
5.42456e-07
5.43407e-07
5.44444e-07
5.45578e-07
5.46817e-07
5.48173e-07
5.49659e-07
5.51291e-07
5.53088e-07
5.55073e-07
5.57276e-07
5.59733e-07
5.6249e-07
5.65601e-07
5.69127e-07
5.73131e-07
5.77672e-07
5.82802e-07
5.88572e-07
5.95042e-07
6.02301e-07
6.1047e-07
6.19679e-07
6.3015e-07
6.41939e-07
6.55718e-07
6.70442e-07
6.89754e-07
7.06448e-07
7.34756e-07
7.57436e-07
7.86645e-07
8.36384e-07
8.59433e-07
9.22126e-07
8.04365e-07
8.09138e-07
8.14316e-07
8.19927e-07
8.26006e-07
8.32598e-07
8.39755e-07
8.47534e-07
8.56006e-07
8.65256e-07
8.75385e-07
8.86501e-07
8.98726e-07
9.12197e-07
9.2707e-07
9.43504e-07
9.61653e-07
9.81654e-07
1.00362e-06
1.02767e-06
1.05393e-06
1.08259e-06
1.11391e-06
1.14821e-06
1.18591e-06
1.22748e-06
1.2735e-06
1.32454e-06
1.38137e-06
1.44497e-06
1.51434e-06
1.59856e-06
1.67344e-06
1.80162e-06
1.8728e-06
2.04194e-06
2.14444e-06
8.60638e-07
8.65316e-07
8.70344e-07
8.7574e-07
8.81513e-07
8.8767e-07
8.94207e-07
9.01114e-07
9.08354e-07
9.15851e-07
9.23451e-07
9.30873e-07
9.37609e-07
9.42781e-07
9.44826e-07
9.41693e-07
9.31641e-07
1.0458e-06
3.78432e-06
7.96574e-06
6.79753e-06
8.29677e-06
1.3349e-05
1.50266e-05
1.58785e-05
1.67752e-05
1.78405e-05
1.87557e-05
1.89988e-05
1.8218e-05
1.68442e-05
1.38155e-05
1.00645e-05
6.64683e-06
1.32038e-05
9.41561e-05
0.000362933
5.45706e-07
5.46491e-07
5.47351e-07
5.48297e-07
5.49341e-07
5.50495e-07
5.51777e-07
5.53207e-07
5.54821e-07
5.56675e-07
5.58883e-07
5.61672e-07
5.65542e-07
5.71667e-07
5.83008e-07
6.0765e-07
6.71334e-07
8.68455e-07
1.55901e-06
2.58118e-06
2.78846e-06
3.96538e-06
6.7792e-06
7.84174e-06
8.08567e-06
8.89876e-06
1.10078e-05
1.4599e-05
1.6097e-05
1.40609e-05
1.18348e-05
9.46816e-06
8.33146e-06
7.16072e-06
9.44994e-06
2.8465e-05
0.000103012
4.89221e-07
4.8949e-07
4.89797e-07
4.90146e-07
4.90544e-07
4.90996e-07
4.9151e-07
4.92095e-07
4.92761e-07
4.93533e-07
4.94453e-07
4.95625e-07
4.97294e-07
5.00054e-07
5.05358e-07
5.16617e-07
5.41887e-07
6.03099e-07
7.29623e-07
8.84588e-07
9.88787e-07
1.11162e-06
1.37677e-06
1.76067e-06
2.17307e-06
2.52479e-06
3.03861e-06
4.05508e-06
5.5693e-06
6.51088e-06
7.31625e-06
7.958e-06
7.81736e-06
7.41416e-06
7.14058e-06
8.14478e-06
1.46411e-05
4.65883e-07
4.66033e-07
4.66213e-07
4.66428e-07
4.66683e-07
4.66983e-07
4.67337e-07
4.6775e-07
4.68236e-07
4.68814e-07
4.69521e-07
4.70433e-07
4.71713e-07
4.7372e-07
4.77253e-07
4.8403e-07
4.97417e-07
5.24276e-07
5.70682e-07
6.14271e-07
6.35974e-07
6.55845e-07
6.8732e-07
7.33528e-07
8.25952e-07
9.70717e-07
1.18998e-06
1.50479e-06
1.8501e-06
2.1279e-06
2.41791e-06
2.81686e-06
3.329e-06
4.02343e-06
4.40473e-06
4.63112e-06
5.00756e-06
4.54601e-07
4.54712e-07
4.54852e-07
4.55025e-07
4.55237e-07
4.55493e-07
4.55801e-07
4.56169e-07
4.56609e-07
4.57138e-07
4.57788e-07
4.58612e-07
4.59716e-07
4.61298e-07
4.63721e-07
4.67631e-07
4.74027e-07
4.84362e-07
4.99651e-07
5.15962e-07
5.29354e-07
5.41878e-07
5.57363e-07
5.7812e-07
6.07068e-07
6.48534e-07
7.10538e-07
7.9588e-07
8.88378e-07
9.77436e-07
1.08259e-06
1.23978e-06
1.44458e-06
1.77626e-06
2.12009e-06
2.46699e-06
2.8121e-06
4.49982e-07
4.50081e-07
4.50207e-07
4.50366e-07
4.50564e-07
4.50807e-07
4.51104e-07
4.51463e-07
4.51897e-07
4.52427e-07
4.53081e-07
4.53909e-07
4.54995e-07
4.56484e-07
4.58617e-07
4.61763e-07
4.66385e-07
4.7286e-07
4.80884e-07
4.88356e-07
4.94599e-07
5.01138e-07
5.09036e-07
5.19143e-07
5.332e-07
5.53424e-07
5.82107e-07
6.1931e-07
6.59552e-07
7.00068e-07
7.49016e-07
8.2069e-07
9.14504e-07
1.05937e-06
1.21008e-06
1.39169e-06
1.5703e-06
4.49989e-07
4.50088e-07
4.50214e-07
4.50374e-07
4.50573e-07
4.50818e-07
4.51118e-07
4.51483e-07
4.51926e-07
4.52463e-07
4.53119e-07
4.53933e-07
4.54961e-07
4.56289e-07
4.5804e-07
4.60383e-07
4.6351e-07
4.67575e-07
4.72557e-07
4.77988e-07
4.83426e-07
4.89217e-07
4.95921e-07
5.04032e-07
5.14263e-07
5.27471e-07
5.44427e-07
5.6522e-07
5.88724e-07
6.14686e-07
6.45876e-07
6.87303e-07
7.40805e-07
8.13182e-07
9.01397e-07
9.9748e-07
1.11172e-06
4.54615e-07
4.54725e-07
4.54864e-07
4.55035e-07
4.55246e-07
4.55504e-07
4.55816e-07
4.56193e-07
4.56647e-07
4.57195e-07
4.57861e-07
4.58679e-07
4.59698e-07
4.60986e-07
4.62636e-07
4.64761e-07
4.67466e-07
4.70793e-07
4.7465e-07
4.78785e-07
4.83101e-07
4.87868e-07
4.93409e-07
5.00006e-07
5.08114e-07
5.1838e-07
5.31386e-07
5.47401e-07
5.66012e-07
5.87494e-07
6.12927e-07
6.4529e-07
6.8632e-07
7.35706e-07
7.99428e-07
8.61009e-07
9.40333e-07
4.659e-07
4.66047e-07
4.66224e-07
4.66434e-07
4.66686e-07
4.66985e-07
4.67339e-07
4.67758e-07
4.68254e-07
4.68839e-07
4.69534e-07
4.70365e-07
4.71367e-07
4.72589e-07
4.74089e-07
4.75938e-07
4.78212e-07
4.80972e-07
4.84241e-07
4.87992e-07
4.92212e-07
4.97016e-07
5.02594e-07
5.0918e-07
5.17066e-07
5.26617e-07
5.38156e-07
5.52058e-07
5.68333e-07
5.87679e-07
6.1025e-07
6.3749e-07
6.72578e-07
7.07504e-07
7.65219e-07
8.05447e-07
8.73937e-07
4.89225e-07
4.89489e-07
4.89787e-07
4.90125e-07
4.9051e-07
4.90948e-07
4.91446e-07
4.92014e-07
4.92662e-07
4.93403e-07
4.94255e-07
4.95243e-07
4.96397e-07
4.97758e-07
4.99376e-07
5.01305e-07
5.03602e-07
5.06309e-07
5.09449e-07
5.13029e-07
5.17081e-07
5.21703e-07
5.27042e-07
5.33273e-07
5.40615e-07
5.49371e-07
5.59787e-07
5.72313e-07
5.86794e-07
6.0452e-07
6.24214e-07
6.49082e-07
6.79573e-07
7.07818e-07
7.60974e-07
7.90324e-07
8.49597e-07
5.45642e-07
5.46399e-07
5.47221e-07
5.48117e-07
5.49099e-07
5.50174e-07
5.5135e-07
5.52641e-07
5.54058e-07
5.55616e-07
5.57335e-07
5.59237e-07
5.61353e-07
5.6372e-07
5.66384e-07
5.69404e-07
5.72846e-07
5.76779e-07
5.81274e-07
5.86393e-07
5.92194e-07
5.98742e-07
6.06127e-07
6.1447e-07
6.23907e-07
6.3465e-07
6.46804e-07
6.60916e-07
6.76376e-07
6.9565e-07
7.14531e-07
7.40889e-07
7.68633e-07
7.93526e-07
8.48254e-07
8.71566e-07
9.32758e-07
8.60804e-07
8.65588e-07
8.70773e-07
8.76391e-07
8.82486e-07
8.89105e-07
8.96301e-07
9.04136e-07
9.12682e-07
9.22031e-07
9.32286e-07
9.43559e-07
9.55976e-07
9.6968e-07
9.84825e-07
1.00157e-06
1.02007e-06
1.04045e-06
1.06284e-06
1.08735e-06
1.11409e-06
1.14328e-06
1.17518e-06
1.21014e-06
1.2486e-06
1.29105e-06
1.33813e-06
1.39045e-06
1.4489e-06
1.51411e-06
1.58707e-06
1.67005e-06
1.75912e-06
1.86945e-06
1.97449e-06
2.1183e-06
2.25152e-06
8.96988e-07
9.01622e-07
9.06608e-07
9.1196e-07
9.1769e-07
9.23803e-07
9.30301e-07
9.37177e-07
9.44404e-07
9.51922e-07
9.59605e-07
9.67231e-07
9.74416e-07
9.8055e-07
9.84724e-07
9.85981e-07
9.84654e-07
9.92471e-07
1.3459e-06
2.3358e-06
2.40324e-06
2.4203e-06
3.39183e-06
7.42601e-06
1.19099e-05
1.31658e-05
1.37918e-05
1.39458e-05
1.32186e-05
1.15164e-05
9.30429e-06
6.68773e-06
4.00889e-06
3.21234e-06
5.37597e-06
1.55608e-05
0.000119449
5.49108e-07
5.49901e-07
5.50773e-07
5.51734e-07
5.52797e-07
5.53977e-07
5.55291e-07
5.56762e-07
5.58425e-07
5.60341e-07
5.62622e-07
5.65488e-07
5.69399e-07
5.75363e-07
5.85678e-07
6.05855e-07
6.49524e-07
7.56425e-07
9.84858e-07
1.237e-06
1.29152e-06
1.4056e-06
1.88115e-06
3.36511e-06
6.36539e-06
6.60296e-06
6.69645e-06
7.32342e-06
7.42067e-06
6.52788e-06
5.48418e-06
4.4272e-06
4.02672e-06
3.64869e-06
4.96428e-06
1.04585e-05
3.86363e-05
4.79126e-07
4.79389e-07
4.79689e-07
4.80032e-07
4.80427e-07
4.80878e-07
4.81395e-07
4.81987e-07
4.82666e-07
4.83457e-07
4.84407e-07
4.85619e-07
4.87326e-07
4.9006e-07
4.9503e-07
5.04891e-07
5.2503e-07
5.6733e-07
6.42698e-07
7.12498e-07
7.55395e-07
7.94511e-07
8.74377e-07
1.09264e-06
1.56281e-06
1.9527e-06
2.32205e-06
2.74574e-06
3.21206e-06
3.58826e-06
4.00421e-06
4.36475e-06
4.48754e-06
4.51917e-06
4.50625e-06
5.03391e-06
7.83326e-06
4.48887e-07
4.4902e-07
4.49182e-07
4.49379e-07
4.49617e-07
4.49901e-07
4.5024e-07
4.5064e-07
4.51115e-07
4.51685e-07
4.52389e-07
4.53301e-07
4.54578e-07
4.56551e-07
4.59907e-07
4.66043e-07
4.77456e-07
4.98505e-07
5.32746e-07
5.64608e-07
5.80635e-07
5.93781e-07
6.14294e-07
6.46236e-07
7.07951e-07
8.05655e-07
9.57127e-07
1.15757e-06
1.35215e-06
1.50498e-06
1.66263e-06
1.9476e-06
2.23867e-06
2.66211e-06
2.96109e-06
3.12458e-06
3.51977e-06
4.34141e-07
4.3423e-07
4.34346e-07
4.34495e-07
4.34682e-07
4.34914e-07
4.35198e-07
4.35542e-07
4.35958e-07
4.36466e-07
4.37095e-07
4.379e-07
4.38986e-07
4.40542e-07
4.42907e-07
4.46657e-07
4.52629e-07
4.6184e-07
4.74756e-07
4.88125e-07
4.9934e-07
5.09941e-07
5.22814e-07
5.406e-07
5.64994e-07
5.97834e-07
6.45295e-07
7.0859e-07
7.77017e-07
8.42796e-07
9.18977e-07
1.03173e-06
1.17157e-06
1.3841e-06
1.61e-06
1.82981e-06
2.08536e-06
4.2808e-07
4.28153e-07
4.28253e-07
4.28385e-07
4.28556e-07
4.28771e-07
4.29038e-07
4.29368e-07
4.29774e-07
4.30274e-07
4.30899e-07
4.31698e-07
4.32754e-07
4.34207e-07
4.36283e-07
4.3932e-07
4.43732e-07
4.49836e-07
4.574e-07
4.64712e-07
4.70881e-07
4.7723e-07
4.84778e-07
4.94141e-07
5.06767e-07
5.24542e-07
5.49336e-07
5.81109e-07
6.16007e-07
6.5161e-07
6.9382e-07
7.5256e-07
8.2841e-07
9.3803e-07
1.05409e-06
1.18715e-06
1.33074e-06
4.28086e-07
4.28159e-07
4.28259e-07
4.28391e-07
4.28563e-07
4.2878e-07
4.29051e-07
4.29386e-07
4.29798e-07
4.30305e-07
4.30932e-07
4.31717e-07