/*--------------------------------*- C++ -*----------------------------------*\
| =========                 |                                                 |
| \\      /  F ield         | OpenFOAM: The Open Source CFD Toolbox           |
|  \\    /   O peration     | Version:  2.3.1                                 |
|   \\  /    A nd           | Web:      www.OpenFOAM.org                      |
|    \\/     M anipulation  |                                                 |
\*---------------------------------------------------------------------------*/
FoamFile
{
    version     2.0;
    format      ascii;
    class       volScalarField;
    location    "15";
    object      k;
}
// * * * * * * * * * * * * * * * * * * * * * * * * * * * * * * * * * * * * * //

dimensions      [0 2 -2 0 0 0 0];

internalField   nonuniform List<scalar> 
37530
(
4.17038e-06
4.20626e-06
4.24465e-06
4.28563e-06
4.32923e-06
4.37544e-06
4.42413e-06
4.47501e-06
4.52752e-06
4.58054e-06
4.63251e-06
4.68051e-06
4.71968e-06
4.73863e-06
4.71099e-06
4.71777e-06
1.00254e-05
4.68802e-05
6.61857e-05
6.55545e-05
6.31594e-05
6.42584e-05
6.38167e-05
5.79029e-05
5.78823e-05
0.000106928
0.000327518
0.000544156
0.00058735
0.000593673
0.000588989
0.000548183
0.000510795
0.000500614
0.000503201
0.00052264
0.000548717
5.88237e-06
5.92762e-06
5.97599e-06
6.02753e-06
6.08227e-06
6.14015e-06
6.201e-06
6.26445e-06
6.3298e-06
6.39575e-06
6.45955e-06
6.51638e-06
6.55826e-06
6.57253e-06
6.5383e-06
6.42878e-06
6.63334e-06
1.41433e-05
2.84332e-05
3.44076e-05
4.01518e-05
4.38141e-05
4.53686e-05
4.48747e-05
4.37034e-05
5.12348e-05
0.000109345
0.000203759
0.000238388
0.000276265
0.000349534
0.00041782
0.000452155
0.000468747
0.000470375
0.000461704
0.000441404
6.66706e-06
6.71331e-06
6.76275e-06
6.81547e-06
6.8715e-06
6.93084e-06
6.9934e-06
7.0589e-06
7.12673e-06
7.19578e-06
7.26416e-06
7.32872e-06
7.38428e-06
7.42311e-06
7.43953e-06
7.42497e-06
7.35959e-06
7.79775e-06
9.94749e-06
1.19419e-05
1.3342e-05
1.49034e-05
1.5753e-05
1.56642e-05
1.59788e-05
1.79811e-05
2.85952e-05
5.63341e-05
7.11886e-05
7.90556e-05
0.000107799
0.000150035
0.000188481
0.000221683
0.00023517
0.000234977
0.000219604
7.03863e-06
7.08548e-06
7.13562e-06
7.18916e-06
7.24619e-06
7.3068e-06
7.37101e-06
7.43871e-06
7.50963e-06
7.58326e-06
7.65889e-06
7.73552e-06
7.81204e-06
7.88764e-06
7.9631e-06
8.04601e-06
8.15803e-06
8.29841e-06
8.70168e-06
9.27511e-06
9.75279e-06
1.02004e-05
1.06658e-05
1.1055e-05
1.14783e-05
1.20797e-05
1.36024e-05
1.81544e-05
2.2721e-05
2.44691e-05
2.99814e-05
4.64883e-05
7.7141e-05
0.000108075
0.000123751
0.000131507
0.000130309
7.19766e-06
7.24489e-06
7.29551e-06
7.34968e-06
7.40752e-06
7.46919e-06
7.53478e-06
7.60431e-06
7.67768e-06
7.75461e-06
7.83462e-06
7.91702e-06
8.00089e-06
8.08528e-06
8.16981e-06
8.25627e-06
8.35457e-06
8.47601e-06
8.64536e-06
8.86926e-06
9.11029e-06
9.34676e-06
9.58163e-06
9.82036e-06
1.0085e-05
1.0407e-05
1.08458e-05
1.15975e-05
1.25931e-05
1.34133e-05
1.44774e-05
1.71412e-05
2.39337e-05
3.858e-05
5.40573e-05
6.67859e-05
7.01487e-05
7.25341e-06
7.30089e-06
7.35186e-06
7.40649e-06
7.46497e-06
7.52749e-06
7.59423e-06
7.66535e-06
7.74101e-06
7.82137e-06
7.90669e-06
7.99746e-06
8.09453e-06
8.19953e-06
8.31537e-06
8.44711e-06
8.60295e-06
8.79389e-06
9.02571e-06
9.30216e-06
9.60249e-06
9.90558e-06
1.02227e-05
1.05569e-05
1.08938e-05
1.12234e-05
1.15627e-05
1.19589e-05
1.24423e-05
1.29617e-05
1.34913e-05
1.41563e-05
1.53337e-05
1.81237e-05
2.25362e-05
2.97032e-05
3.46195e-05
7.25336e-06
7.30102e-06
7.35226e-06
7.40727e-06
7.46626e-06
7.52946e-06
7.59712e-06
7.6695e-06
7.74687e-06
7.82948e-06
7.91763e-06
8.01167e-06
8.11209e-06
8.21963e-06
8.33551e-06
8.46164e-06
8.60081e-06
8.75722e-06
8.93455e-06
9.1326e-06
9.34709e-06
9.57476e-06
9.8166e-06
1.00762e-05
1.03605e-05
1.06784e-05
1.10385e-05
1.14475e-05
1.19022e-05
1.23847e-05
1.2905e-05
1.34777e-05
1.41025e-05
1.49444e-05
1.62874e-05
1.77244e-05
2.06714e-05
7.19777e-06
7.24557e-06
7.29704e-06
7.35236e-06
7.41177e-06
7.47555e-06
7.544e-06
7.61748e-06
7.69639e-06
7.78121e-06
7.87261e-06
7.97145e-06
8.07888e-06
8.1965e-06
8.32646e-06
8.47168e-06
8.63605e-06
8.82286e-06
9.03482e-06
9.27173e-06
9.52932e-06
9.80321e-06
1.00932e-05
1.03996e-05
1.07218e-05
1.10608e-05
1.14217e-05
1.18119e-05
1.22377e-05
1.27014e-05
1.31957e-05
1.37537e-05
1.43061e-05
1.51419e-05
1.58469e-05
1.71527e-05
1.81136e-05
7.03907e-06
7.08681e-06
7.13831e-06
7.19372e-06
7.25329e-06
7.31734e-06
7.38622e-06
7.46035e-06
7.5402e-06
7.62634e-06
7.71941e-06
7.82013e-06
7.92938e-06
8.04821e-06
8.17794e-06
8.32014e-06
8.47619e-06
8.64757e-06
8.83492e-06
9.03831e-06
9.25731e-06
9.49217e-06
9.74443e-06
1.00168e-05
1.03134e-05
1.06391e-05
1.09991e-05
1.13969e-05
1.18364e-05
1.23167e-05
1.28426e-05
1.34179e-05
1.40476e-05
1.47213e-05
1.57287e-05
1.64196e-05
1.79639e-05
6.66825e-06
6.71565e-06
6.76682e-06
6.82195e-06
6.88128e-06
6.94515e-06
7.01397e-06
7.08818e-06
7.16831e-06
7.25501e-06
7.34909e-06
7.45147e-06
7.56327e-06
7.68584e-06
7.82075e-06
7.9698e-06
8.13474e-06
8.31704e-06
8.51788e-06
8.73738e-06
8.97495e-06
9.23013e-06
9.50333e-06
9.79558e-06
1.01086e-05
1.04448e-05
1.08081e-05
1.12013e-05
1.16305e-05
1.20956e-05
1.26041e-05
1.31542e-05
1.37832e-05
1.43506e-05
1.53968e-05
1.59845e-05
1.75282e-05
5.88458e-06
5.9311e-06
5.98133e-06
6.03551e-06
6.09388e-06
6.15681e-06
6.2247e-06
6.29803e-06
6.37733e-06
6.46326e-06
6.55662e-06
6.65825e-06
6.76909e-06
6.89017e-06
7.02267e-06
7.1678e-06
7.3267e-06
7.50029e-06
7.68917e-06
7.89372e-06
8.11431e-06
8.35169e-06
8.60729e-06
8.88317e-06
9.18218e-06
9.50723e-06
9.86261e-06
1.02487e-05
1.06759e-05
1.11252e-05
1.16603e-05
1.21191e-05
1.28954e-05
1.32825e-05
1.43645e-05
1.4739e-05
1.62498e-05
4.17242e-06
4.20918e-06
4.24885e-06
4.29164e-06
4.3378e-06
4.38761e-06
4.44139e-06
4.49952e-06
4.56241e-06
4.63058e-06
4.70463e-06
4.78525e-06
4.87321e-06
4.96937e-06
5.07466e-06
5.19007e-06
5.31654e-06
5.45488e-06
5.60568e-06
5.76932e-06
5.94618e-06
6.1368e-06
6.3421e-06
6.5633e-06
6.80218e-06
7.06046e-06
7.34179e-06
7.64462e-06
7.98367e-06
8.32527e-06
8.77025e-06
9.08099e-06
9.75252e-06
1.0006e-05
1.09702e-05
1.10052e-05
1.24288e-05
6.37492e-06
6.40548e-06
6.43822e-06
6.47321e-06
6.51048e-06
6.55002e-06
6.59176e-06
6.63549e-06
6.68079e-06
6.72732e-06
6.77384e-06
6.81771e-06
6.8518e-06
6.86052e-06
6.80942e-06
6.65101e-06
9.93237e-06
4.76151e-05
8.12105e-05
8.38757e-05
7.87359e-05
7.72414e-05
7.73465e-05
7.65678e-05
7.37428e-05
8.00983e-05
0.000161339
0.000352324
0.000561266
0.000631462
0.000639208
0.000637627
0.000643572
0.000654121
0.000658967
0.000672707
0.000707952
9.56573e-06
9.58671e-06
9.60913e-06
9.63297e-06
9.65817e-06
9.68465e-06
9.71224e-06
9.74058e-06
9.76901e-06
9.79589e-06
9.81882e-06
9.83388e-06
9.83337e-06
9.8067e-06
9.7428e-06
9.68624e-06
1.03179e-05
1.90406e-05
4.55538e-05
7.06562e-05
8.25604e-05
8.59586e-05
8.70294e-05
8.67592e-05
9.21297e-05
0.000102719
0.00013457
0.000253732
0.000430606
0.000571407
0.000689972
0.000724754
0.000740004
0.000744817
0.000733605
0.000753166
0.000792999
1.13906e-05
1.14149e-05
1.14409e-05
1.14686e-05
1.1498e-05
1.15291e-05
1.15618e-05
1.15957e-05
1.16304e-05
1.16649e-05
1.16976e-05
1.17261e-05
1.17469e-05
1.17551e-05
1.17408e-05
1.17032e-05
1.17254e-05
1.2339e-05
1.519e-05
1.85561e-05
1.9624e-05
1.98064e-05
1.92952e-05
1.94928e-05
2.14183e-05
2.84385e-05
4.52368e-05
7.73815e-05
0.000117292
0.000139445
0.00016644
0.000205446
0.000250261
0.000292578
0.000311097
0.000330389
0.000335727
1.22854e-05
1.2312e-05
1.23405e-05
1.2371e-05
1.24036e-05
1.24383e-05
1.2475e-05
1.25137e-05
1.2554e-05
1.25953e-05
1.26368e-05
1.26774e-05
1.27156e-05
1.27508e-05
1.27859e-05
1.28313e-05
1.2928e-05
1.31242e-05
1.35541e-05
1.40433e-05
1.46717e-05
1.52326e-05
1.5737e-05
1.63953e-05
1.7363e-05
1.87907e-05
2.14165e-05
2.6282e-05
3.23354e-05
3.57572e-05
3.97627e-05
4.81105e-05
6.88354e-05
0.000104368
0.000137381
0.000161615
0.000171537
1.26895e-05
1.27174e-05
1.27474e-05
1.27796e-05
1.28141e-05
1.28509e-05
1.28903e-05
1.2932e-05
1.2976e-05
1.30218e-05
1.30691e-05
1.31171e-05
1.31648e-05
1.32112e-05
1.3256e-05
1.33004e-05
1.33465e-05
1.34153e-05
1.35571e-05
1.3763e-05
1.39025e-05
1.40453e-05
1.42569e-05
1.45597e-05
1.49844e-05
1.55668e-05
1.63611e-05
1.73235e-05
1.82155e-05
1.88463e-05
1.96952e-05
2.1279e-05
2.42279e-05
3.17364e-05
4.19933e-05
5.916e-05
7.16226e-05
1.28395e-05
1.2868e-05
1.28987e-05
1.29317e-05
1.29672e-05
1.30053e-05
1.30461e-05
1.30896e-05
1.31359e-05
1.3185e-05
1.32369e-05
1.32916e-05
1.33494e-05
1.3411e-05
1.34783e-05
1.3555e-05
1.36473e-05
1.37624e-05
1.38955e-05
1.40454e-05
1.42402e-05
1.44662e-05
1.47286e-05
1.50419e-05
1.54097e-05
1.58296e-05
1.63262e-05
1.68922e-05
1.74333e-05
1.79489e-05
1.8571e-05
1.94368e-05
2.05912e-05
2.23715e-05
2.47117e-05
2.74588e-05
3.19611e-05
1.28389e-05
1.28675e-05
1.28984e-05
1.29317e-05
1.29676e-05
1.30061e-05
1.30474e-05
1.30917e-05
1.31391e-05
1.31897e-05
1.32436e-05
1.33009e-05
1.33617e-05
1.34262e-05
1.34952e-05
1.35698e-05
1.36522e-05
1.37465e-05
1.38589e-05
1.39882e-05
1.41313e-05
1.42929e-05
1.44826e-05
1.47073e-05
1.49751e-05
1.52914e-05
1.56579e-05
1.60559e-05
1.64639e-05
1.69069e-05
1.73632e-05
1.80133e-05
1.85444e-05
1.96066e-05
2.02857e-05
2.14901e-05
2.3003e-05
1.26884e-05
1.27167e-05
1.27473e-05
1.27804e-05
1.2816e-05
1.28544e-05
1.28957e-05
1.29402e-05
1.2988e-05
1.30396e-05
1.30953e-05
1.31555e-05
1.32209e-05
1.32924e-05
1.33714e-05
1.34595e-05
1.3559e-05
1.36714e-05
1.37971e-05
1.39382e-05
1.40976e-05
1.42786e-05
1.44837e-05
1.47152e-05
1.49757e-05
1.52677e-05
1.55942e-05
1.59595e-05
1.63533e-05
1.67986e-05
1.72621e-05
1.78827e-05
1.84666e-05
1.93478e-05
2.02063e-05
2.09825e-05
2.25387e-05
1.2284e-05
1.23113e-05
1.23409e-05
1.23729e-05
1.24073e-05
1.24445e-05
1.24846e-05
1.25278e-05
1.25746e-05
1.26253e-05
1.26803e-05
1.27401e-05
1.28051e-05
1.28762e-05
1.29543e-05
1.30404e-05
1.31359e-05
1.32419e-05
1.33592e-05
1.34882e-05
1.36295e-05
1.37853e-05
1.39589e-05
1.41541e-05
1.43751e-05
1.4627e-05
1.4911e-05
1.5235e-05
1.55846e-05
1.60081e-05
1.6411e-05
1.70223e-05
1.74662e-05
1.83249e-05
1.89589e-05
1.98584e-05
2.08476e-05
1.13897e-05
1.14148e-05
1.14422e-05
1.14718e-05
1.15037e-05
1.15381e-05
1.15754e-05
1.16156e-05
1.16593e-05
1.17069e-05
1.17588e-05
1.18157e-05
1.18783e-05
1.19473e-05
1.20239e-05
1.21091e-05
1.2204e-05
1.23093e-05
1.24255e-05
1.25527e-05
1.26918e-05
1.28449e-05
1.30144e-05
1.32028e-05
1.34125e-05
1.36474e-05
1.39084e-05
1.42061e-05
1.45203e-05
1.49179e-05
1.52493e-05
1.58486e-05
1.6191e-05
1.69843e-05
1.74515e-05
1.8213e-05
1.93781e-05
9.56578e-06
9.58765e-06
9.61146e-06
9.63722e-06
9.665e-06
9.695e-06
9.72745e-06
9.76259e-06
9.80073e-06
9.8423e-06
9.88778e-06
9.93767e-06
9.99248e-06
1.00528e-05
1.01193e-05
1.01928e-05
1.02737e-05
1.03624e-05
1.04591e-05
1.05636e-05
1.06762e-05
1.07977e-05
1.09296e-05
1.10738e-05
1.12327e-05
1.14097e-05
1.1604e-05
1.18303e-05
1.20531e-05
1.23801e-05
1.2582e-05
1.30897e-05
1.3296e-05
1.3985e-05
1.42248e-05
1.49499e-05
1.5828e-05
6.37641e-06
6.40772e-06
6.44157e-06
6.47812e-06
6.51756e-06
6.56016e-06
6.60618e-06
6.65595e-06
6.70983e-06
6.76828e-06
6.83181e-06
6.90101e-06
6.97651e-06
7.05902e-06
7.14932e-06
7.24825e-06
7.35663e-06
7.4752e-06
7.60459e-06
7.74537e-06
7.89812e-06
8.06364e-06
8.24294e-06
8.43723e-06
8.64801e-06
8.87691e-06
9.12625e-06
9.39713e-06
9.69396e-06
1.00155e-05
1.03676e-05
1.07581e-05
1.11567e-05
1.16632e-05
1.21315e-05
1.25601e-05
1.35315e-05
7.38931e-06
7.42011e-06
7.45309e-06
7.48832e-06
7.52584e-06
7.5656e-06
7.60763e-06
7.65192e-06
7.69813e-06
7.7456e-06
7.79302e-06
7.83794e-06
7.87547e-06
7.89547e-06
7.87401e-06
7.77397e-06
8.76552e-06
3.73593e-05
7.80854e-05
8.15423e-05
7.60613e-05
7.4756e-05
7.44412e-05
7.38391e-05
7.37394e-05
7.44283e-05
8.72427e-05
0.000133164
0.000211962
0.000301608
0.000358195
0.000382732
0.000419339
0.000496773
0.000610153
0.000662279
0.000693149
1.18366e-05
1.18546e-05
1.1874e-05
1.18946e-05
1.19163e-05
1.1939e-05
1.19623e-05
1.19857e-05
1.20082e-05
1.20285e-05
1.20437e-05
1.20495e-05
1.20386e-05
1.20047e-05
1.19462e-05
1.19502e-05
1.27337e-05
1.88187e-05
4.16805e-05
6.28375e-05
7.15259e-05
7.69377e-05
7.89501e-05
7.87697e-05
8.41933e-05
9.75848e-05
0.000118242
0.000158826
0.000201877
0.000247028
0.000306001
0.000343277
0.000371671
0.000387787
0.000436825
0.000556595
0.000637082
1.40714e-05
1.40923e-05
1.41148e-05
1.41388e-05
1.41643e-05
1.41913e-05
1.42196e-05
1.42488e-05
1.42784e-05
1.43074e-05
1.43342e-05
1.43565e-05
1.43719e-05
1.43791e-05
1.43853e-05
1.44221e-05
1.46501e-05
1.56064e-05
1.82083e-05
2.07546e-05
2.139e-05
2.21563e-05
2.27097e-05
2.3448e-05
2.49914e-05
2.97657e-05
4.12578e-05
6.34811e-05
9.00141e-05
0.000105832
0.000119088
0.000133193
0.000139401
0.000146824
0.000149052
0.000168322
0.000193077
1.51826e-05
1.5206e-05
1.52311e-05
1.52582e-05
1.52872e-05
1.5318e-05
1.53508e-05
1.53853e-05
1.54212e-05
1.54579e-05
1.54948e-05
1.55307e-05
1.55654e-05
1.56003e-05
1.56443e-05
1.57255e-05
1.59195e-05
1.63655e-05
1.7138e-05
1.77999e-05
1.84756e-05
1.89998e-05
1.95501e-05
2.03808e-05
2.16685e-05
2.35485e-05
2.65898e-05
3.08256e-05
3.4957e-05
3.79196e-05
4.11748e-05
4.53595e-05
5.10076e-05
6.29947e-05
7.08294e-05
7.92272e-05
8.67757e-05
1.57048e-05
1.57297e-05
1.57566e-05
1.57857e-05
1.58169e-05
1.58505e-05
1.58863e-05
1.59245e-05
1.59649e-05
1.60071e-05
1.60508e-05
1.60955e-05
1.61409e-05
1.61873e-05
1.62371e-05
1.62975e-05
1.63851e-05
1.65381e-05
1.68149e-05
1.71363e-05
1.7364e-05
1.75889e-05
1.78864e-05
1.82918e-05
1.88544e-05
1.96495e-05
2.07779e-05
2.2121e-05
2.31653e-05
2.38879e-05
2.48811e-05
2.65573e-05
2.86389e-05
3.1641e-05
3.47703e-05
3.89933e-05
4.52956e-05
1.59071e-05
1.59328e-05
1.59606e-05
1.59907e-05
1.60232e-05
1.60582e-05
1.60959e-05
1.61364e-05
1.61797e-05
1.62259e-05
1.62751e-05
1.63276e-05
1.63843e-05
1.64469e-05
1.65189e-05
1.66072e-05
1.67216e-05
1.68734e-05
1.7052e-05
1.72454e-05
1.74671e-05
1.77166e-05
1.80083e-05
1.83607e-05
1.87919e-05
1.9326e-05
2.00061e-05
2.08067e-05
2.15529e-05
2.22262e-05
2.30588e-05
2.42585e-05
2.58633e-05
2.80073e-05
3.01617e-05
3.17698e-05
3.42226e-05
1.59067e-05
1.59325e-05
1.59605e-05
1.59909e-05
1.60238e-05
1.60593e-05
1.60976e-05
1.6139e-05
1.61836e-05
1.62315e-05
1.62831e-05
1.63386e-05
1.63985e-05
1.64637e-05
1.65359e-05
1.66175e-05
1.67125e-05
1.68271e-05
1.69661e-05
1.71235e-05
1.72921e-05
1.74801e-05
1.77007e-05
1.79637e-05
1.82816e-05
1.86616e-05
1.91128e-05
1.96301e-05
2.01761e-05
2.07552e-05
2.14071e-05
2.22756e-05
2.3255e-05
2.46449e-05
2.601e-05
2.75002e-05
2.93186e-05
1.57041e-05
1.57294e-05
1.57571e-05
1.5787e-05
1.58195e-05
1.58548e-05
1.5893e-05
1.59344e-05
1.59793e-05
1.60282e-05
1.60816e-05
1.61401e-05
1.62048e-05
1.6277e-05
1.63587e-05
1.64525e-05
1.6561e-05
1.66854e-05
1.68254e-05
1.69805e-05
1.71524e-05
1.73469e-05
1.75687e-05
1.7822e-05
1.81131e-05
1.84508e-05
1.88437e-05
1.92968e-05
1.97949e-05
2.03538e-05
2.09712e-05
2.17658e-05
2.26516e-05
2.38016e-05
2.50654e-05
2.62901e-05
2.80469e-05
1.51818e-05
1.52059e-05
1.52322e-05
1.52608e-05
1.52918e-05
1.53255e-05
1.53621e-05
1.5402e-05
1.54454e-05
1.5493e-05
1.55451e-05
1.56025e-05
1.5666e-05
1.57366e-05
1.58156e-05
1.59046e-05
1.60053e-05
1.61188e-05
1.62458e-05
1.6386e-05
1.65396e-05
1.67098e-05
1.69018e-05
1.71209e-05
1.73736e-05
1.76669e-05
1.80051e-05
1.8396e-05
1.88308e-05
1.93449e-05
1.98901e-05
2.06024e-05
2.13287e-05
2.227e-05
2.33808e-05
2.43382e-05
2.59101e-05
1.4071e-05
1.40929e-05
1.41168e-05
1.41428e-05
1.41711e-05
1.42018e-05
1.42352e-05
1.42717e-05
1.43117e-05
1.43556e-05
1.44041e-05
1.4458e-05
1.4518e-05
1.45853e-05
1.46611e-05
1.47469e-05
1.48437e-05
1.49524e-05
1.5073e-05
1.52054e-05
1.53505e-05
1.55107e-05
1.56892e-05
1.58898e-05
1.61167e-05
1.6376e-05
1.6671e-05
1.70134e-05
1.73881e-05
1.78507e-05
1.82924e-05
1.89661e-05
1.94899e-05
2.03791e-05
2.12174e-05
2.19435e-05
2.34809e-05
1.1837e-05
1.18561e-05
1.18771e-05
1.18999e-05
1.19246e-05
1.19515e-05
1.19808e-05
1.20128e-05
1.20477e-05
1.20862e-05
1.21287e-05
1.21759e-05
1.22284e-05
1.22869e-05
1.23522e-05
1.24253e-05
1.25067e-05
1.2597e-05
1.26961e-05
1.2804e-05
1.29209e-05
1.30478e-05
1.3187e-05
1.33412e-05
1.35134e-05
1.37083e-05
1.39264e-05
1.41825e-05
1.44464e-05
1.48152e-05
1.50773e-05
1.56578e-05
1.59509e-05
1.66959e-05
1.71188e-05
1.78387e-05
1.89416e-05
7.39103e-06
7.4227e-06
7.45697e-06
7.49399e-06
7.53397e-06
7.57717e-06
7.62388e-06
7.67445e-06
7.72925e-06
7.78879e-06
7.85363e-06
7.92437e-06
8.0017e-06
8.08636e-06
8.17918e-06
8.28102e-06
8.39268e-06
8.51486e-06
8.64812e-06
8.79295e-06
8.9499e-06
9.11978e-06
9.30376e-06
9.50321e-06
9.7199e-06
9.95576e-06
1.02133e-05
1.04945e-05
1.08021e-05
1.11418e-05
1.14989e-05
1.19429e-05
1.22907e-05
1.29576e-05
1.32892e-05
1.40455e-05
1.47103e-05
7.98616e-06
8.01691e-06
8.0499e-06
8.08519e-06
8.12285e-06
8.1629e-06
8.20529e-06
8.2499e-06
8.29645e-06
8.34434e-06
8.3924e-06
8.43848e-06
8.47851e-06
8.50491e-06
8.50106e-06
8.44634e-06
8.39336e-06
1.51903e-05
5.82954e-05
6.70572e-05
6.19683e-05
6.31961e-05
6.66849e-05
6.71445e-05
6.7858e-05
6.99506e-05
7.34134e-05
8.11277e-05
9.26912e-05
0.000109047
0.000121404
0.000118568
0.000115091
0.000148104
0.000313559
0.000533936
0.000633869
1.32929e-05
1.33092e-05
1.33266e-05
1.33452e-05
1.33647e-05
1.3385e-05
1.34057e-05
1.34264e-05
1.3446e-05
1.34632e-05
1.34753e-05
1.34779e-05
1.34651e-05
1.34313e-05
1.33766e-05
1.33665e-05
1.38934e-05
1.6732e-05
2.81242e-05
3.90836e-05
4.42852e-05
5.50984e-05
6.36959e-05
6.53597e-05
6.76123e-05
7.52525e-05
9.30285e-05
0.000111182
0.000118772
0.000117563
0.000118475
0.000113427
0.000111788
0.000119713
0.000168872
0.000245707
0.000325679
1.57766e-05
1.57954e-05
1.58156e-05
1.58373e-05
1.58604e-05
1.58849e-05
1.59105e-05
1.59371e-05
1.59639e-05
1.59901e-05
1.60142e-05
1.60345e-05
1.60495e-05
1.60606e-05
1.6081e-05
1.61518e-05
1.64206e-05
1.73054e-05
1.90201e-05
2.05004e-05
2.17418e-05
2.32051e-05
2.47481e-05
2.61631e-05
2.77784e-05
3.05327e-05
3.64296e-05
4.62511e-05
5.66791e-05
6.30407e-05
6.81593e-05
7.13618e-05
6.95943e-05
6.98658e-05
7.36054e-05
8.39997e-05
0.000100634
1.70177e-05
1.70388e-05
1.70617e-05
1.70864e-05
1.71129e-05
1.71413e-05
1.71715e-05
1.72034e-05
1.72367e-05
1.72708e-05
1.73053e-05
1.73395e-05
1.73739e-05
1.74117e-05
1.74653e-05
1.75691e-05
1.78029e-05
1.83383e-05
1.92261e-05
1.99512e-05
2.04044e-05
2.07777e-05
2.13194e-05
2.22363e-05
2.3673e-05
2.56949e-05
2.86777e-05
3.23382e-05
3.51382e-05
3.68694e-05
3.91726e-05
4.19418e-05
4.50377e-05
4.70975e-05
4.98106e-05
5.24338e-05
5.57542e-05
1.7617e-05
1.76397e-05
1.76645e-05
1.76913e-05
1.77202e-05
1.77514e-05
1.7785e-05
1.78208e-05
1.78589e-05
1.7899e-05
1.79409e-05
1.79845e-05
1.80302e-05
1.80796e-05
1.81375e-05
1.82153e-05
1.83343e-05
1.85358e-05
1.88675e-05
1.92355e-05
1.95291e-05
1.98117e-05
2.01703e-05
2.06455e-05
2.1281e-05
2.2151e-05
2.33732e-05
2.48451e-05
2.60304e-05
2.68754e-05
2.80049e-05
2.97098e-05
3.21619e-05
3.46684e-05
3.71311e-05
3.92472e-05
4.2111e-05
1.78562e-05
1.78798e-05
1.79055e-05
1.79335e-05
1.79638e-05
1.79967e-05
1.80323e-05
1.80707e-05
1.81121e-05
1.81566e-05
1.82045e-05
1.82564e-05
1.83137e-05
1.83788e-05
1.84568e-05
1.85565e-05
1.869e-05
1.887e-05
1.9087e-05
1.93117e-05
1.95435e-05
1.97999e-05
2.0104e-05
2.04761e-05
2.09401e-05
2.15299e-05
2.22932e-05
2.32034e-05
2.40795e-05
2.48777e-05
2.58374e-05
2.71678e-05
2.89188e-05
3.11971e-05
3.34157e-05
3.56453e-05
3.77377e-05
1.78559e-05
1.78797e-05
1.79056e-05
1.79339e-05
1.79646e-05
1.7998e-05
1.80344e-05
1.80738e-05
1.81166e-05
1.81631e-05
1.82136e-05
1.82688e-05
1.83295e-05
1.83973e-05
1.84746e-05
1.85653e-05
1.86746e-05
1.88095e-05
1.89733e-05
1.91561e-05
1.9349e-05
1.9561e-05
1.98066e-05
2.00982e-05
2.04534e-05
2.08874e-05
2.14125e-05
2.20224e-05
2.26775e-05
2.33746e-05
2.41789e-05
2.52113e-05
2.646e-05
2.80687e-05
2.98262e-05
3.16753e-05
3.37569e-05
1.76167e-05
1.76399e-05
1.76653e-05
1.76931e-05
1.77234e-05
1.77565e-05
1.77926e-05
1.78321e-05
1.78753e-05
1.79227e-05
1.7975e-05
1.80331e-05
1.80983e-05
1.81724e-05
1.8258e-05
1.83581e-05
1.84759e-05
1.86126e-05
1.8767e-05
1.89365e-05
1.91211e-05
1.9328e-05
1.95638e-05
1.98346e-05
2.01501e-05
2.05239e-05
2.09686e-05
2.14894e-05
2.20705e-05
2.2723e-05
2.34642e-05
2.43902e-05
2.54848e-05
2.68211e-05
2.83615e-05
2.9907e-05
3.18257e-05
1.70175e-05
1.70394e-05
1.70634e-05
1.70897e-05
1.71184e-05
1.71498e-05
1.71842e-05
1.72219e-05
1.72634e-05
1.73092e-05
1.736e-05
1.74166e-05
1.74801e-05
1.75518e-05
1.76333e-05
1.77267e-05
1.78339e-05
1.79564e-05
1.80944e-05
1.82472e-05
1.84148e-05
1.86011e-05
1.88118e-05
1.90536e-05
1.9334e-05
1.96623e-05
2.00453e-05
2.04919e-05
2.09985e-05
2.15907e-05
2.22505e-05
2.30637e-05
2.39922e-05
2.50565e-05
2.64459e-05
2.76072e-05
2.93926e-05
1.57768e-05
1.57965e-05
1.58182e-05
1.5842e-05
1.5868e-05
1.58965e-05
1.59278e-05
1.59621e-05
1.6e-05
1.60421e-05
1.6089e-05
1.61416e-05
1.6201e-05
1.62683e-05
1.63452e-05
1.6433e-05
1.65332e-05
1.66465e-05
1.6773e-05
1.69122e-05
1.70648e-05
1.72333e-05
1.74216e-05
1.76344e-05
1.7877e-05
1.81572e-05
1.84807e-05
1.88594e-05
1.92839e-05
1.9798e-05
2.03312e-05
2.10559e-05
2.17585e-05
2.26786e-05
2.37822e-05
2.46238e-05
2.62227e-05
1.32938e-05
1.33114e-05
1.33307e-05
1.33519e-05
1.33751e-05
1.34004e-05
1.34281e-05
1.34586e-05
1.34921e-05
1.35294e-05
1.35709e-05
1.36173e-05
1.36694e-05
1.3728e-05
1.37942e-05
1.38688e-05
1.39527e-05
1.40464e-05
1.41499e-05
1.42633e-05
1.43867e-05
1.45216e-05
1.46703e-05
1.48361e-05
1.50226e-05
1.52353e-05
1.54757e-05
1.57578e-05
1.60595e-05
1.64574e-05
1.6789e-05
1.74011e-05
1.77746e-05
1.85612e-05
1.91829e-05
1.98669e-05
2.10283e-05
7.98784e-06
8.01941e-06
8.0536e-06
8.09056e-06
8.1305e-06
8.17371e-06
8.22049e-06
8.27119e-06
8.32622e-06
8.38611e-06
8.45144e-06
8.52284e-06
8.60103e-06
8.68679e-06
8.78097e-06
8.88446e-06
8.99805e-06
9.12241e-06
9.25804e-06
9.40538e-06
9.56495e-06
9.73759e-06
9.92452e-06
1.01273e-05
1.03478e-05
1.05882e-05
1.08513e-05
1.11394e-05
1.14558e-05
1.18048e-05
1.21797e-05
1.26273e-05
1.30185e-05
1.36753e-05
1.40332e-05
1.48658e-05
1.53597e-05
8.35622e-06
8.38648e-06
8.41894e-06
8.4537e-06
8.49082e-06
8.53031e-06
8.57215e-06
8.61623e-06
8.66232e-06
8.70992e-06
8.75803e-06
8.80489e-06
8.84728e-06
8.87975e-06
8.8925e-06
8.87273e-06
8.80921e-06
9.52393e-06
2.24875e-05
3.6851e-05
3.31294e-05
3.78617e-05
5.19702e-05
5.62383e-05
5.83484e-05
6.05345e-05
6.30777e-05
6.52215e-05
6.57825e-05
6.39676e-05
6.06872e-05
5.3151e-05
4.3019e-05
3.26475e-05
5.17588e-05
0.000192053
0.000470529
1.42618e-05
1.42765e-05
1.42924e-05
1.43092e-05
1.43269e-05
1.43452e-05
1.4364e-05
1.43825e-05
1.44001e-05
1.44154e-05
1.4426e-05
1.4428e-05
1.44165e-05
1.43873e-05
1.43404e-05
1.43188e-05
1.45839e-05
1.59665e-05
1.974e-05
2.35942e-05
2.4966e-05
3.06894e-05
4.2011e-05
4.78649e-05
5.17301e-05
5.73615e-05
6.82454e-05
8.10864e-05
8.32572e-05
7.68974e-05
6.88585e-05
5.95184e-05
5.5084e-05
4.88208e-05
5.3572e-05
9.26185e-05
0.000204191
1.69334e-05
1.69504e-05
1.69688e-05
1.69887e-05
1.70099e-05
1.70324e-05
1.70561e-05
1.70807e-05
1.71056e-05
1.71301e-05
1.71529e-05
1.71729e-05
1.71895e-05
1.72059e-05
1.72374e-05
1.73256e-05
1.75831e-05
1.82998e-05
1.95294e-05
2.0343e-05
2.11624e-05
2.20257e-05
2.36401e-05
2.65976e-05
2.97348e-05
3.20518e-05
3.52869e-05
3.9878e-05
4.37305e-05
4.53808e-05
4.7367e-05
4.87914e-05
4.98341e-05
5.02835e-05
5.1564e-05
5.56029e-05
7.13325e-05
1.8271e-05
1.82904e-05
1.83114e-05
1.83343e-05
1.83589e-05
1.83854e-05
1.84136e-05
1.84436e-05
1.8475e-05
1.85075e-05
1.85408e-05
1.85746e-05
1.86099e-05
1.86515e-05
1.87126e-05
1.88276e-05
1.90671e-05
1.95719e-05
2.04172e-05
2.10902e-05
2.14091e-05
2.16825e-05
2.2119e-05
2.28781e-05
2.42527e-05
2.62506e-05
2.89698e-05
3.21349e-05
3.45312e-05
3.58455e-05
3.74421e-05
3.94829e-05
4.20335e-05
4.38772e-05
4.64336e-05
4.73482e-05
4.98074e-05
1.89289e-05
1.895e-05
1.89729e-05
1.89979e-05
1.9025e-05
1.90544e-05
1.90862e-05
1.91203e-05
1.91567e-05
1.91955e-05
1.92364e-05
1.92799e-05
1.93268e-05
1.938e-05
1.9446e-05
1.95382e-05
1.96792e-05
1.99046e-05
2.02442e-05
2.06111e-05
2.09215e-05
2.12215e-05
2.15966e-05
2.21028e-05
2.27598e-05
2.3624e-05
2.48037e-05
2.62227e-05
2.74763e-05
2.84566e-05
2.96635e-05
3.13184e-05
3.35219e-05
3.60587e-05
3.89206e-05
4.11593e-05
4.36855e-05
1.91971e-05
1.9219e-05
1.9243e-05
1.92692e-05
1.92978e-05
1.9329e-05
1.93629e-05
1.93998e-05
1.94397e-05
1.94831e-05
1.95303e-05
1.95821e-05
1.96404e-05
1.97083e-05
1.97916e-05
1.99002e-05
2.00472e-05
2.02446e-05
2.04848e-05
2.07278e-05
2.09626e-05
2.12187e-05
2.15231e-05
2.18951e-05
2.2367e-05
2.29778e-05
2.37672e-05
2.47071e-05
2.56448e-05
2.65237e-05
2.75515e-05
2.89179e-05
3.06621e-05
3.28858e-05
3.51028e-05
3.74438e-05
3.9629e-05
1.9197e-05
1.92191e-05
1.92433e-05
1.92698e-05
1.92988e-05
1.93306e-05
1.93653e-05
1.94032e-05
1.94448e-05
1.94902e-05
1.95402e-05
1.95954e-05
1.96572e-05
1.97277e-05
1.98101e-05
1.9909e-05
2.00305e-05
2.01813e-05
2.03636e-05
2.05653e-05
2.07767e-05
2.10081e-05
2.12735e-05
2.15871e-05
2.19676e-05
2.24343e-05
2.30036e-05
2.36714e-05
2.44018e-05
2.51875e-05
2.60988e-05
2.72398e-05
2.86381e-05
3.03767e-05
3.23421e-05
3.44107e-05
3.66842e-05
1.8929e-05
1.89505e-05
1.89742e-05
1.90002e-05
1.90287e-05
1.906e-05
1.90945e-05
1.91324e-05
1.91742e-05
1.92206e-05
1.92722e-05
1.93302e-05
1.93961e-05
1.9472e-05
1.95609e-05
1.96662e-05
1.97914e-05
1.9938e-05
2.01042e-05
2.02858e-05
2.04817e-05
2.06998e-05
2.0948e-05
2.1234e-05
2.15695e-05
2.19711e-05
2.24528e-05
2.30217e-05
2.36655e-05
2.43918e-05
2.52278e-05
2.62535e-05
2.74886e-05
2.89559e-05
3.06753e-05
3.24245e-05
3.44769e-05
1.82713e-05
1.82914e-05
1.83136e-05
1.8338e-05
1.83649e-05
1.83945e-05
1.84271e-05
1.84632e-05
1.85032e-05
1.85477e-05
1.85976e-05
1.86537e-05
1.87173e-05
1.879e-05
1.88738e-05
1.89709e-05
1.90836e-05
1.92133e-05
1.93604e-05
1.95238e-05
1.97036e-05
1.99035e-05
2.01302e-05
2.03906e-05
2.06933e-05
2.10491e-05
2.14679e-05
2.19589e-05
2.25213e-05
2.31759e-05
2.39214e-05
2.48168e-05
2.58782e-05
2.70557e-05
2.86044e-05
2.99615e-05
3.18521e-05
1.6934e-05
1.6952e-05
1.69719e-05
1.69939e-05
1.70181e-05
1.70448e-05
1.70742e-05
1.71068e-05
1.71432e-05
1.71838e-05
1.72295e-05
1.72811e-05
1.73399e-05
1.74072e-05
1.74847e-05
1.7574e-05
1.76766e-05
1.77933e-05
1.79242e-05
1.80688e-05
1.82274e-05
1.84029e-05
1.85995e-05
1.88225e-05
1.90783e-05
1.93756e-05
1.97218e-05
2.01288e-05
2.05924e-05
2.1147e-05
2.17499e-05
2.25167e-05
2.33451e-05
2.43034e-05
2.55708e-05
2.65337e-05
2.81625e-05
1.42634e-05
1.42795e-05
1.42975e-05
1.43172e-05
1.43389e-05
1.43627e-05
1.4389e-05
1.4418e-05
1.44502e-05
1.44862e-05
1.45265e-05
1.45719e-05
1.46231e-05
1.46813e-05
1.47474e-05
1.48225e-05
1.49074e-05
1.50029e-05
1.51089e-05
1.52256e-05
1.53532e-05
1.54933e-05
1.56485e-05
1.58223e-05
1.60187e-05
1.62435e-05
1.64993e-05
1.67989e-05
1.71274e-05
1.75432e-05
1.7932e-05
1.85447e-05
1.90103e-05
1.97774e-05
2.06044e-05
2.11999e-05
2.24608e-05
8.3573e-06
8.38824e-06
8.42171e-06
8.4579e-06
8.49707e-06
8.53951e-06
8.58554e-06
8.6355e-06
8.68984e-06
8.7491e-06
8.81386e-06
8.88478e-06
8.96257e-06
9.04804e-06
9.14203e-06
9.2454e-06
9.3589e-06
9.48318e-06
9.61876e-06
9.76606e-06
9.9256e-06
1.00982e-05
1.02852e-05
1.04883e-05
1.07093e-05
1.09508e-05
1.12155e-05
1.15059e-05
1.18262e-05
1.21785e-05
1.25667e-05
1.3001e-05
1.34593e-05
1.40165e-05
1.45367e-05
1.52343e-05
1.58667e-05
8.58992e-06
8.61949e-06
8.65124e-06
8.68526e-06
8.7216e-06
8.7603e-06
8.80133e-06
8.84465e-06
8.89006e-06
8.93717e-06
8.9852e-06
9.03273e-06
9.07738e-06
9.11541e-06
9.14121e-06
9.14892e-06
9.14066e-06
9.18997e-06
1.12712e-05
1.62714e-05
1.65701e-05
1.66494e-05
2.08574e-05
3.51814e-05
4.81816e-05
5.15125e-05
5.31365e-05
5.35288e-05
5.1646e-05
4.71074e-05
4.08563e-05
3.27741e-05
2.32908e-05
2.01116e-05
2.83509e-05
5.7782e-05
0.000224961
1.49111e-05
1.49243e-05
1.49386e-05
1.49538e-05
1.49698e-05
1.49864e-05
1.50033e-05
1.50201e-05
1.50362e-05
1.50502e-05
1.50601e-05
1.50628e-05
1.50541e-05
1.50317e-05
1.4995e-05
1.49727e-05
1.50956e-05
1.57652e-05
1.72707e-05
1.84282e-05
1.86235e-05
1.93147e-05
2.18651e-05
2.89662e-05
4.1108e-05
4.4429e-05
4.81357e-05
5.37306e-05
5.51391e-05
5.12792e-05
4.64387e-05
4.08212e-05
3.89704e-05
3.53393e-05
3.91731e-05
5.62659e-05
0.000118374
1.77333e-05
1.77488e-05
1.77656e-05
1.77839e-05
1.78034e-05
1.78243e-05
1.78463e-05
1.78693e-05
1.78928e-05
1.79161e-05
1.79385e-05
1.79591e-05
1.79781e-05
1.79999e-05
1.80394e-05
1.81347e-05
1.83684e-05
1.89222e-05
1.98558e-05
2.04384e-05
2.08137e-05
2.11423e-05
2.17495e-05
2.3672e-05
2.74764e-05
3.07284e-05
3.36159e-05
3.6609e-05
3.9047e-05
4.03819e-05
4.21353e-05
4.35388e-05
4.48485e-05
4.64873e-05
4.66813e-05
4.84984e-05
5.72728e-05
1.91501e-05
1.91679e-05
1.91874e-05
1.92086e-05
1.92317e-05
1.92565e-05
1.92832e-05
1.93117e-05
1.93418e-05
1.93732e-05
1.94059e-05
1.944e-05
1.94771e-05
1.95223e-05
1.9589e-05
1.9708e-05
1.99364e-05
2.03766e-05
2.10878e-05
2.16945e-05
2.19708e-05
2.21954e-05
2.25587e-05
2.31072e-05
2.40618e-05
2.56344e-05
2.78997e-05
3.05388e-05
3.26552e-05
3.39072e-05
3.52735e-05
3.70377e-05
3.88968e-05
4.12106e-05
4.35448e-05
4.46908e-05
4.74986e-05
1.9856e-05
1.98755e-05
1.98969e-05
1.99204e-05
1.9946e-05
1.99739e-05
2.00041e-05
2.00369e-05
2.00721e-05
2.01099e-05
2.01505e-05
2.01943e-05
2.0243e-05
2.03001e-05
2.03731e-05
2.04759e-05
2.06302e-05
2.08642e-05
2.11911e-05
2.1536e-05
2.1836e-05
2.21283e-05
2.24843e-05
2.29642e-05
2.35811e-05
2.43642e-05
2.54157e-05
2.66835e-05
2.79028e-05
2.8947e-05
3.01636e-05
3.17034e-05
3.36132e-05
3.60099e-05
3.86135e-05
4.0843e-05
4.34017e-05
2.01479e-05
2.01684e-05
2.01909e-05
2.02156e-05
2.02427e-05
2.02725e-05
2.0305e-05
2.03406e-05
2.03794e-05
2.04219e-05
2.04687e-05
2.05209e-05
2.05803e-05
2.06508e-05
2.07385e-05
2.08536e-05
2.10087e-05
2.12147e-05
2.14666e-05
2.17177e-05
2.19547e-05
2.2209e-05
2.2509e-05
2.28718e-05
2.33292e-05
2.39231e-05
2.46897e-05
2.56046e-05
2.65493e-05
2.74668e-05
2.85234e-05
2.98777e-05
3.15663e-05
3.37194e-05
3.58784e-05
3.81757e-05
4.04496e-05
2.01479e-05
2.01685e-05
2.01913e-05
2.02163e-05
2.02439e-05
2.02742e-05
2.03075e-05
2.03443e-05
2.03847e-05