/*--------------------------------*- C++ -*----------------------------------*\
| =========                 |                                                 |
| \\      /  F ield         | OpenFOAM: The Open Source CFD Toolbox           |
|  \\    /   O peration     | Version:  2.3.1                                 |
|   \\  /    A nd           | Web:      www.OpenFOAM.org                      |
|    \\/     M anipulation  |                                                 |
\*---------------------------------------------------------------------------*/
FoamFile
{
    version     2.0;
    format      ascii;
    class       volScalarField;
    location    "15";
    object      k_0;
}
// * * * * * * * * * * * * * * * * * * * * * * * * * * * * * * * * * * * * * //

dimensions      [0 2 -2 0 0 0 0];

internalField   nonuniform List<scalar> 
37530
(
4.17078e-06
4.20666e-06
4.24505e-06
4.28603e-06
4.32964e-06
4.37584e-06
4.42453e-06
4.47542e-06
4.52794e-06
4.58097e-06
4.63295e-06
4.68097e-06
4.7202e-06
4.73923e-06
4.71175e-06
4.71739e-06
9.99385e-06
4.67991e-05
6.62029e-05
6.55888e-05
6.3181e-05
6.42785e-05
6.38553e-05
5.79215e-05
5.77711e-05
0.000105777
0.00032408
0.00054331
0.000587747
0.000594296
0.000589854
0.00054933
0.000511566
0.00050122
0.0005037
0.000523074
0.000549198
5.88284e-06
5.9281e-06
5.97647e-06
6.02801e-06
6.08275e-06
6.14063e-06
6.20148e-06
6.26494e-06
6.33029e-06
6.39626e-06
6.46009e-06
6.51696e-06
6.55891e-06
6.57329e-06
6.53922e-06
6.42993e-06
6.63103e-06
1.41119e-05
2.84203e-05
3.4403e-05
4.01518e-05
4.3817e-05
4.53761e-05
4.48838e-05
4.37004e-05
5.10785e-05
0.000108529
0.000203157
0.000237978
0.000275753
0.000349063
0.0004175
0.00045215
0.000469014
0.0004708
0.000462195
0.000441874
6.66754e-06
6.71379e-06
6.76323e-06
6.81595e-06
6.87198e-06
6.93133e-06
6.9939e-06
7.0594e-06
7.12724e-06
7.1963e-06
7.2647e-06
7.32929e-06
7.38491e-06
7.4238e-06
7.4403e-06
7.42584e-06
7.36058e-06
7.79577e-06
9.94303e-06
1.19405e-05
1.33409e-05
1.49022e-05
1.57539e-05
1.56645e-05
1.59754e-05
1.79607e-05
2.84964e-05
5.6187e-05
7.11219e-05
7.89921e-05
0.00010771
0.000149934
0.000188274
0.000221489
0.000235091
0.000234978
0.000219638
7.03909e-06
7.08594e-06
7.13609e-06
7.18963e-06
7.24666e-06
7.30727e-06
7.37148e-06
7.43919e-06
7.51011e-06
7.58375e-06
7.65939e-06
7.73604e-06
7.81257e-06
7.8882e-06
7.96368e-06
8.04657e-06
8.15851e-06
8.29868e-06
8.7013e-06
9.27478e-06
9.75286e-06
1.02005e-05
1.0666e-05
1.10552e-05
1.1478e-05
1.20776e-05
1.35928e-05
1.81316e-05
2.27069e-05
2.44616e-05
2.99725e-05
4.64646e-05
7.70892e-05
0.00010801
0.000123702
0.000131474
0.000130291
7.1981e-06
7.24533e-06
7.29596e-06
7.35012e-06
7.40796e-06
7.46963e-06
7.53522e-06
7.60476e-06
7.67813e-06
7.75507e-06
7.83509e-06
7.9175e-06
8.00138e-06
8.08579e-06
8.17035e-06
8.25681e-06
8.35509e-06
8.47649e-06
8.64571e-06
8.86955e-06
9.11063e-06
9.34717e-06
9.5821e-06
9.82088e-06
1.00854e-05
1.04071e-05
1.08452e-05
1.15954e-05
1.25905e-05
1.34115e-05
1.44756e-05
1.71381e-05
2.39242e-05
3.8556e-05
5.40293e-05
6.67592e-05
7.01289e-05
7.25384e-06
7.30132e-06
7.35229e-06
7.40692e-06
7.4654e-06
7.52792e-06
7.59466e-06
7.66578e-06
7.74145e-06
7.82181e-06
7.90713e-06
7.9979e-06
8.09497e-06
8.19997e-06
8.3158e-06
8.44752e-06
8.60331e-06
8.79418e-06
9.02595e-06
9.30235e-06
9.60274e-06
9.90591e-06
1.0223e-05
1.05574e-05
1.08943e-05
1.12239e-05
1.15631e-05
1.19589e-05
1.24419e-05
1.29613e-05
1.3491e-05
1.4156e-05
1.53327e-05
1.81198e-05
2.25285e-05
2.96904e-05
3.46057e-05
7.25379e-06
7.30145e-06
7.35269e-06
7.4077e-06
7.46669e-06
7.52989e-06
7.59755e-06
7.66993e-06
7.74729e-06
7.82991e-06
7.91806e-06
8.0121e-06
8.11253e-06
8.22007e-06
8.33594e-06
8.46206e-06
8.60122e-06
8.75761e-06
8.93491e-06
9.13295e-06
9.34744e-06
9.57511e-06
9.81695e-06
1.00765e-05
1.03608e-05
1.06786e-05
1.10386e-05
1.14475e-05
1.19021e-05
1.23846e-05
1.2905e-05
1.34776e-05
1.41025e-05
1.49442e-05
1.62865e-05
1.77226e-05
2.06679e-05
7.19821e-06
7.24601e-06
7.29747e-06
7.3528e-06
7.41221e-06
7.47598e-06
7.54443e-06
7.61791e-06
7.69682e-06
7.78164e-06
7.87304e-06
7.97188e-06
8.0793e-06
8.19691e-06
8.32686e-06
8.47207e-06
8.63641e-06
8.82319e-06
9.03512e-06
9.27201e-06
9.5296e-06
9.80351e-06
1.00935e-05
1.03999e-05
1.07221e-05
1.10611e-05
1.14218e-05
1.1812e-05
1.22377e-05
1.27013e-05
1.31956e-05
1.37536e-05
1.4306e-05
1.51417e-05
1.58468e-05
1.71524e-05
1.81129e-05
7.03953e-06
7.08728e-06
7.13877e-06
7.19418e-06
7.25375e-06
7.31779e-06
7.38668e-06
7.46081e-06
7.54066e-06
7.62679e-06
7.71985e-06
7.82058e-06
7.92982e-06
8.04864e-06
8.17836e-06
8.32055e-06
8.47659e-06
8.64795e-06
8.83529e-06
9.03866e-06
9.25765e-06
9.4925e-06
9.74474e-06
1.00171e-05
1.03137e-05
1.06393e-05
1.09993e-05
1.1397e-05
1.18365e-05
1.23167e-05
1.28426e-05
1.34178e-05
1.40476e-05
1.47212e-05
1.57285e-05
1.64195e-05
1.79637e-05
6.66873e-06
6.71613e-06
6.7673e-06
6.82243e-06
6.88175e-06
6.94563e-06
7.01444e-06
7.08865e-06
7.16877e-06
7.25548e-06
7.34955e-06
7.45192e-06
7.56372e-06
7.68627e-06
7.82118e-06
7.97021e-06
8.13513e-06
8.31742e-06
8.51823e-06
8.73772e-06
8.97528e-06
9.23045e-06
9.50363e-06
9.79586e-06
1.01089e-05
1.0445e-05
1.08082e-05
1.12014e-05
1.16306e-05
1.20956e-05
1.26041e-05
1.31542e-05
1.37831e-05
1.43507e-05
1.53966e-05
1.59843e-05
1.75279e-05
5.88505e-06
5.93157e-06
5.9818e-06
6.03597e-06
6.09434e-06
6.15727e-06
6.22517e-06
6.29849e-06
6.37778e-06
6.46372e-06
6.55707e-06
6.65869e-06
6.76952e-06
6.8906e-06
7.02309e-06
7.16821e-06
7.32709e-06
7.50066e-06
7.68953e-06
7.89407e-06
8.11464e-06
8.352e-06
8.60759e-06
8.88344e-06
9.18241e-06
9.50742e-06
9.86276e-06
1.02488e-05
1.06759e-05
1.11253e-05
1.16602e-05
1.21192e-05
1.28952e-05
1.32824e-05
1.43643e-05
1.47389e-05
1.62498e-05
4.17283e-06
4.20958e-06
4.24925e-06
4.29204e-06
4.33819e-06
4.388e-06
4.44178e-06
4.49991e-06
4.5628e-06
4.63096e-06
4.70501e-06
4.78562e-06
4.87358e-06
4.96973e-06
5.07501e-06
5.19041e-06
5.31686e-06
5.45519e-06
5.60597e-06
5.7696e-06
5.94645e-06
6.13706e-06
6.34235e-06
6.56352e-06
6.80238e-06
7.06063e-06
7.34193e-06
7.64473e-06
7.98374e-06
8.32535e-06
8.77021e-06
9.08107e-06
9.75242e-06
1.0006e-05
1.09698e-05
1.10053e-05
1.24286e-05
6.37563e-06
6.40619e-06
6.43893e-06
6.47391e-06
6.51118e-06
6.55073e-06
6.59247e-06
6.6362e-06
6.68151e-06
6.72804e-06
6.77457e-06
6.81847e-06
6.85261e-06
6.86143e-06
6.81054e-06
6.65208e-06
9.90612e-06
4.7499e-05
8.12154e-05
8.39127e-05
7.87726e-05
7.72678e-05
7.73726e-05
7.66018e-05
7.37715e-05
7.98211e-05
0.000159717
0.000349549
0.000559915
0.000631787
0.000639937
0.000638411
0.0006443
0.000654887
0.000659702
0.000673293
0.000708393
9.56666e-06
9.58764e-06
9.61006e-06
9.6339e-06
9.6591e-06
9.68558e-06
9.71317e-06
9.74151e-06
9.76995e-06
9.79684e-06
9.81979e-06
9.83488e-06
9.83442e-06
9.80784e-06
9.74406e-06
9.68717e-06
1.03145e-05
1.8998e-05
4.54959e-05
7.06247e-05
8.25603e-05
8.59697e-05
8.70398e-05
8.67514e-05
9.20868e-05
0.000102639
0.00013412
0.000252318
0.000428763
0.000569995
0.0006894
0.000724794
0.00074026
0.000745555
0.000734527
0.00075388
0.000793391
1.13916e-05
1.14158e-05
1.14418e-05
1.14696e-05
1.1499e-05
1.15301e-05
1.15627e-05
1.15967e-05
1.16314e-05
1.16659e-05
1.16986e-05
1.17271e-05
1.1748e-05
1.17562e-05
1.17419e-05
1.17044e-05
1.17263e-05
1.23367e-05
1.51827e-05
1.85513e-05
1.96239e-05
1.98055e-05
1.92969e-05
1.94919e-05
2.13986e-05
2.83799e-05
4.5152e-05
7.726e-05
0.000117115
0.00013927
0.000166363
0.000205405
0.000250203
0.000292532
0.00031112
0.000330442
0.000335722
1.22863e-05
1.23129e-05
1.23414e-05
1.2372e-05
1.24045e-05
1.24392e-05
1.24759e-05
1.25146e-05
1.25549e-05
1.25962e-05
1.26378e-05
1.26783e-05
1.27165e-05
1.27518e-05
1.27868e-05
1.28322e-05
1.29287e-05
1.31247e-05
1.35543e-05
1.40434e-05
1.46716e-05
1.52329e-05
1.57373e-05
1.63952e-05
1.73619e-05
1.87864e-05
2.14039e-05
2.62612e-05
3.23179e-05
3.57491e-05
3.97608e-05
4.81045e-05
6.88061e-05
0.000104314
0.000137328
0.000161598
0.000171534
1.26904e-05
1.27183e-05
1.27483e-05
1.27804e-05
1.28149e-05
1.28518e-05
1.28911e-05
1.29328e-05
1.29768e-05
1.30227e-05
1.307e-05
1.3118e-05
1.31657e-05
1.32121e-05
1.32569e-05
1.33013e-05
1.33475e-05
1.34161e-05
1.35577e-05
1.37638e-05
1.39036e-05
1.40463e-05
1.42578e-05
1.45605e-05
1.49848e-05
1.55665e-05
1.63597e-05
1.73213e-05
1.82141e-05
1.88463e-05
1.96963e-05
2.12805e-05
2.42265e-05
3.17281e-05
4.19759e-05
5.91344e-05
7.15965e-05
1.28404e-05
1.28688e-05
1.28995e-05
1.29326e-05
1.29681e-05
1.30061e-05
1.30469e-05
1.30904e-05
1.31368e-05
1.31859e-05
1.32377e-05
1.32924e-05
1.33502e-05
1.34119e-05
1.34791e-05
1.35558e-05
1.36481e-05
1.37632e-05
1.38963e-05
1.40461e-05
1.42409e-05
1.44669e-05
1.47293e-05
1.50426e-05
1.54104e-05
1.58301e-05
1.63264e-05
1.68922e-05
1.74336e-05
1.79494e-05
1.85716e-05
1.94376e-05
2.05915e-05
2.23707e-05
2.47093e-05
2.74545e-05
3.19543e-05
1.28398e-05
1.28684e-05
1.28993e-05
1.29326e-05
1.29684e-05
1.30069e-05
1.30482e-05
1.30925e-05
1.31399e-05
1.31905e-05
1.32444e-05
1.33017e-05
1.33625e-05
1.34271e-05
1.3496e-05
1.35706e-05
1.3653e-05
1.37473e-05
1.38596e-05
1.3989e-05
1.41321e-05
1.42936e-05
1.44833e-05
1.4708e-05
1.49756e-05
1.52919e-05
1.56582e-05
1.60563e-05
1.64643e-05
1.69074e-05
1.73639e-05
1.8014e-05
1.85452e-05
1.96073e-05
2.0286e-05
2.14909e-05
2.30021e-05
1.26893e-05
1.27176e-05
1.27482e-05
1.27813e-05
1.28169e-05
1.28553e-05
1.28965e-05
1.2941e-05
1.29889e-05
1.30404e-05
1.30961e-05
1.31563e-05
1.32217e-05
1.32932e-05
1.33722e-05
1.34603e-05
1.35598e-05
1.36721e-05
1.37978e-05
1.39389e-05
1.40983e-05
1.42793e-05
1.44844e-05
1.47159e-05
1.49763e-05
1.52683e-05
1.55947e-05
1.596e-05
1.63538e-05
1.67991e-05
1.72626e-05
1.78832e-05
1.8467e-05
1.93482e-05
2.02063e-05
2.0983e-05
2.25385e-05
1.22849e-05
1.23122e-05
1.23418e-05
1.23738e-05
1.24082e-05
1.24454e-05
1.24855e-05
1.25287e-05
1.25755e-05
1.26262e-05
1.26812e-05
1.27409e-05
1.2806e-05
1.28771e-05
1.29552e-05
1.30413e-05
1.31367e-05
1.32427e-05
1.336e-05
1.34889e-05
1.36303e-05
1.3786e-05
1.39597e-05
1.41548e-05
1.43758e-05
1.46276e-05
1.49116e-05
1.52355e-05
1.55852e-05
1.60086e-05
1.64116e-05
1.70227e-05
1.74667e-05
1.83254e-05
1.89591e-05
1.98588e-05
2.08477e-05
1.13906e-05
1.14158e-05
1.14432e-05
1.14727e-05
1.15046e-05
1.15391e-05
1.15763e-05
1.16166e-05
1.16603e-05
1.17078e-05
1.17598e-05
1.18166e-05
1.18792e-05
1.19482e-05
1.20248e-05
1.211e-05
1.22049e-05
1.23102e-05
1.24263e-05
1.25535e-05
1.26926e-05
1.28457e-05
1.30152e-05
1.32035e-05
1.34132e-05
1.36481e-05
1.3909e-05
1.42067e-05
1.45209e-05
1.49185e-05
1.52499e-05
1.58491e-05
1.61915e-05
1.69849e-05
1.74518e-05
1.82139e-05
1.93776e-05
9.56672e-06
9.58858e-06
9.61239e-06
9.63815e-06
9.66592e-06
9.69593e-06
9.72837e-06
9.7635e-06
9.80164e-06
9.8432e-06
9.88868e-06
9.93857e-06
9.99337e-06
1.00537e-05
1.01202e-05
1.01936e-05
1.02746e-05
1.03633e-05
1.04599e-05
1.05644e-05
1.0677e-05
1.07985e-05
1.09303e-05
1.10746e-05
1.12334e-05
1.14104e-05
1.16047e-05
1.1831e-05
1.20538e-05
1.23807e-05
1.25827e-05
1.30903e-05
1.32966e-05
1.39855e-05
1.42252e-05
1.4951e-05
1.58272e-05
6.37711e-06
6.40842e-06
6.44227e-06
6.47882e-06
6.51826e-06
6.56085e-06
6.60688e-06
6.65664e-06
6.71052e-06
6.76896e-06
6.83249e-06
6.90169e-06
6.97718e-06
7.05968e-06
7.14997e-06
7.2489e-06
7.35727e-06
7.47583e-06
7.60521e-06
7.74597e-06
7.89871e-06
8.06422e-06
8.2435e-06
8.43778e-06
8.64854e-06
8.87742e-06
9.12674e-06
9.3976e-06
9.69441e-06
1.00159e-05
1.0368e-05
1.07584e-05
1.11571e-05
1.16635e-05
1.21316e-05
1.25606e-05
1.35316e-05
7.39008e-06
7.42088e-06
7.45386e-06
7.4891e-06
7.52661e-06
7.56637e-06
7.6084e-06
7.65269e-06
7.69891e-06
7.74638e-06
7.79382e-06
7.83876e-06
7.87633e-06
7.89641e-06
7.87509e-06
7.77528e-06
8.75316e-06
3.72174e-05
7.80751e-05
8.1577e-05
7.6097e-05
7.47838e-05
7.44679e-05
7.38616e-05
7.37623e-05
7.44153e-05
8.69575e-05
0.000132426
0.000210892
0.000300918
0.000358126
0.00038305
0.000419624
0.000496836
0.000610438
0.000662831
0.000693706
1.18377e-05
1.18557e-05
1.18751e-05
1.18957e-05
1.19174e-05
1.19401e-05
1.19634e-05
1.19868e-05
1.20094e-05
1.20296e-05
1.20449e-05
1.20507e-05
1.20398e-05
1.2006e-05
1.19475e-05
1.1951e-05
1.27306e-05
1.87847e-05
4.16205e-05
6.28059e-05
7.15186e-05
7.69373e-05
7.89601e-05
7.87654e-05
8.4155e-05
9.74993e-05
0.000118106
0.000158536
0.000201488
0.000246453
0.000305447
0.000342874
0.000371411
0.000387775
0.000436769
0.000556709
0.000637132
1.40725e-05
1.40934e-05
1.41159e-05
1.41399e-05
1.41654e-05
1.41924e-05
1.42207e-05
1.425e-05
1.42796e-05
1.43086e-05
1.43354e-05
1.43577e-05
1.43731e-05
1.43804e-05
1.43865e-05
1.44232e-05
1.46503e-05
1.56038e-05
1.82016e-05
2.07527e-05
2.13899e-05
2.21566e-05
2.27107e-05
2.34485e-05
2.49814e-05
2.97283e-05
4.118e-05
6.33757e-05
8.99328e-05
0.00010577
0.000119023
0.000133143
0.000139365
0.000146798
0.000149025
0.000168255
0.000192965
1.51837e-05
1.52071e-05
1.52322e-05
1.52593e-05
1.52883e-05
1.53191e-05
1.53519e-05
1.53864e-05
1.54223e-05
1.5459e-05
1.54959e-05
1.55319e-05
1.55665e-05
1.56014e-05
1.56454e-05
1.57265e-05
1.592e-05
1.63654e-05
1.71378e-05
1.78001e-05
1.84759e-05
1.90004e-05
1.95507e-05
2.03809e-05
2.16675e-05
2.35441e-05
2.65786e-05
3.08106e-05
3.49468e-05
3.79159e-05
4.11766e-05
4.53615e-05
5.10082e-05
6.29894e-05
7.08324e-05
7.92339e-05
8.67819e-05
1.57059e-05
1.57308e-05
1.57577e-05
1.57867e-05
1.5818e-05
1.58515e-05
1.58874e-05
1.59255e-05
1.59659e-05
1.60081e-05
1.60518e-05
1.60965e-05
1.61419e-05
1.61883e-05
1.62381e-05
1.62985e-05
1.6386e-05
1.65388e-05
1.68154e-05
1.71371e-05
1.73651e-05
1.759e-05
1.78876e-05
1.82928e-05
1.88549e-05
1.96489e-05
2.07756e-05
2.21181e-05
2.3164e-05
2.38883e-05
2.48829e-05
2.65595e-05
2.86424e-05
3.16416e-05
3.4771e-05
3.8993e-05
4.52959e-05
1.59081e-05
1.59338e-05
1.59616e-05
1.59917e-05
1.60242e-05
1.60592e-05
1.60969e-05
1.61374e-05
1.61807e-05
1.62269e-05
1.62761e-05
1.63286e-05
1.63853e-05
1.64479e-05
1.65199e-05
1.66081e-05
1.67225e-05
1.68742e-05
1.70529e-05
1.72462e-05
1.7468e-05
1.77175e-05
1.80092e-05
1.83615e-05
1.87926e-05
1.93263e-05
2.00059e-05
2.08061e-05
2.15529e-05
2.22267e-05
2.30596e-05
2.42594e-05
2.58638e-05
2.8007e-05
3.01604e-05
3.17693e-05
3.42215e-05
1.59077e-05
1.59335e-05
1.59616e-05
1.59919e-05
1.60248e-05
1.60603e-05
1.60986e-05
1.614e-05
1.61846e-05
1.62325e-05
1.62841e-05
1.63396e-05
1.63995e-05
1.64647e-05
1.65368e-05
1.66184e-05
1.67134e-05
1.6828e-05
1.6967e-05
1.71244e-05
1.7293e-05
1.7481e-05
1.77015e-05
1.79645e-05
1.82822e-05
1.86621e-05
1.91131e-05
1.96304e-05
2.01764e-05
2.07558e-05
2.14078e-05
2.22764e-05
2.32559e-05
2.46455e-05
2.60102e-05
2.75006e-05
2.93186e-05
1.57051e-05
1.57305e-05
1.57581e-05
1.57881e-05
1.58206e-05
1.58558e-05
1.5894e-05
1.59354e-05
1.59804e-05
1.60293e-05
1.60826e-05
1.61411e-05
1.62058e-05
1.6278e-05
1.63597e-05
1.64535e-05
1.65619e-05
1.66863e-05
1.68263e-05
1.69814e-05
1.71533e-05
1.73478e-05
1.75696e-05
1.78228e-05
1.81138e-05
1.84514e-05
1.88442e-05
1.92972e-05
1.97954e-05
2.03544e-05
2.09718e-05
2.17664e-05
2.26521e-05
2.3802e-05
2.50654e-05
2.62902e-05
2.80467e-05
1.51829e-05
1.5207e-05
1.52333e-05
1.52619e-05
1.52929e-05
1.53266e-05
1.53632e-05
1.5403e-05
1.54465e-05
1.5494e-05
1.55462e-05
1.56036e-05
1.56671e-05
1.57376e-05
1.58167e-05
1.59056e-05
1.60062e-05
1.61198e-05
1.62468e-05
1.63869e-05
1.65405e-05
1.67107e-05
1.69026e-05
1.71218e-05
1.73743e-05
1.76676e-05
1.80057e-05
1.83966e-05
1.88314e-05
1.93454e-05
1.98907e-05
2.06029e-05
2.13292e-05
2.22706e-05
2.3381e-05
2.43385e-05
2.59103e-05
1.40721e-05
1.4094e-05
1.41179e-05
1.41439e-05
1.41722e-05
1.42029e-05
1.42364e-05
1.42729e-05
1.43128e-05
1.43567e-05
1.44052e-05
1.44591e-05
1.45191e-05
1.45863e-05
1.46622e-05
1.47479e-05
1.48448e-05
1.49534e-05
1.5074e-05
1.52064e-05
1.53514e-05
1.55116e-05
1.56901e-05
1.58907e-05
1.61176e-05
1.63768e-05
1.66717e-05
1.70141e-05
1.73888e-05
1.78514e-05
1.82932e-05
1.89667e-05
1.94905e-05
2.03798e-05
2.12175e-05
2.19442e-05
2.34809e-05
1.18381e-05
1.18572e-05
1.18782e-05
1.1901e-05
1.19257e-05
1.19526e-05
1.19819e-05
1.20138e-05
1.20488e-05
1.20873e-05
1.21298e-05
1.2177e-05
1.22294e-05
1.22879e-05
1.23532e-05
1.24263e-05
1.25077e-05
1.2598e-05
1.26971e-05
1.2805e-05
1.29218e-05
1.30488e-05
1.3188e-05
1.33421e-05
1.35143e-05
1.37092e-05
1.39272e-05
1.41833e-05
1.44472e-05
1.48159e-05
1.5078e-05
1.56585e-05
1.59516e-05
1.66966e-05
1.71191e-05
1.78398e-05
1.89412e-05
7.3918e-06
7.42347e-06
7.45774e-06
7.49476e-06
7.53473e-06
7.57793e-06
7.62464e-06
7.6752e-06
7.73e-06
7.78954e-06
7.85437e-06
7.9251e-06
8.00243e-06
8.08709e-06
8.1799e-06
8.28172e-06
8.39337e-06
8.51555e-06
8.6488e-06
8.79361e-06
8.95055e-06
9.12042e-06
9.30438e-06
9.50382e-06
9.72048e-06
9.95632e-06
1.02138e-05
1.0495e-05
1.08025e-05
1.11422e-05
1.14993e-05
1.19432e-05
1.22912e-05
1.29579e-05
1.32894e-05
1.4046e-05
1.47101e-05
7.98694e-06
8.01769e-06
8.05067e-06
8.08597e-06
8.12363e-06
8.16367e-06
8.20606e-06
8.25068e-06
8.29724e-06
8.34513e-06
8.3932e-06
8.4393e-06
8.47936e-06
8.50582e-06
8.50209e-06
8.44754e-06
8.39343e-06
1.51257e-05
5.82114e-05
6.7085e-05
6.19978e-05
6.32139e-05
6.67057e-05
6.71615e-05
6.78629e-05
6.99524e-05
7.33815e-05
8.10144e-05
9.25165e-05
0.000108854
0.000121368
0.000118652
0.000115159
0.000147832
0.000312693
0.000533729
0.000634218
1.3294e-05
1.33103e-05
1.33278e-05
1.33464e-05
1.33659e-05
1.33862e-05
1.34069e-05
1.34275e-05
1.34472e-05
1.34644e-05
1.34765e-05
1.34791e-05
1.34664e-05
1.34326e-05
1.3378e-05
1.33676e-05
1.38917e-05
1.67188e-05
2.80834e-05
3.90678e-05
4.42674e-05
5.50768e-05
6.369e-05
6.53543e-05
6.75916e-05
7.51927e-05
9.29427e-05
0.000111128
0.000118774
0.000117533
0.000118437
0.00011339
0.000111718
0.000119586
0.000168608
0.000245669
0.000325486
1.57778e-05
1.57966e-05
1.58168e-05
1.58385e-05
1.58616e-05
1.58861e-05
1.59117e-05
1.59383e-05
1.59651e-05
1.59913e-05
1.60154e-05
1.60358e-05
1.60508e-05
1.60619e-05
1.60822e-05
1.61528e-05
1.64208e-05
1.73036e-05
1.9017e-05
2.04986e-05
2.17396e-05
2.32034e-05
2.47472e-05
2.6163e-05
2.77744e-05
3.05164e-05
3.63902e-05
4.62015e-05
5.66455e-05
6.30207e-05
6.8147e-05
7.13524e-05
6.95894e-05
6.98538e-05
7.35751e-05
8.3965e-05
0.000100588
1.70188e-05
1.704e-05
1.70629e-05
1.70876e-05
1.71141e-05
1.71425e-05
1.71727e-05
1.72046e-05
1.72378e-05
1.7272e-05
1.73064e-05
1.73407e-05
1.7375e-05
1.74129e-05
1.74664e-05
1.757e-05
1.78035e-05
1.83378e-05
1.92255e-05
1.99518e-05
2.04055e-05
2.07787e-05
2.13202e-05
2.22364e-05
2.36718e-05
2.56911e-05
2.8669e-05
3.2328e-05
3.5133e-05
3.68691e-05
3.91757e-05
4.19466e-05
4.50431e-05
4.71028e-05
4.98157e-05
5.24396e-05
5.57583e-05
1.76181e-05
1.76409e-05
1.76656e-05
1.76924e-05
1.77213e-05
1.77525e-05
1.77861e-05
1.78219e-05
1.786e-05
1.79001e-05
1.7942e-05
1.79856e-05
1.80313e-05
1.80807e-05
1.81386e-05
1.82163e-05
1.83353e-05
1.85365e-05
1.88679e-05
1.92363e-05
1.95302e-05
1.98129e-05
2.01715e-05
2.06467e-05
2.12817e-05
2.21506e-05
2.33712e-05
2.48425e-05
2.60294e-05
2.68761e-05
2.80066e-05
2.9712e-05
3.21635e-05
3.46705e-05
3.71326e-05
3.92489e-05
4.21126e-05
1.78572e-05
1.78809e-05
1.79066e-05
1.79345e-05
1.79649e-05
1.79978e-05
1.80334e-05
1.80718e-05
1.81131e-05
1.81576e-05
1.82056e-05
1.82575e-05
1.83147e-05
1.83798e-05
1.84578e-05
1.85574e-05
1.86909e-05
1.88709e-05
1.90878e-05
1.93126e-05
1.95445e-05
1.98009e-05
2.0105e-05
2.0477e-05
2.09408e-05
2.15301e-05
2.22928e-05
2.32026e-05
2.40794e-05
2.48782e-05
2.58383e-05
2.71688e-05
2.89194e-05
3.1197e-05
3.3415e-05
3.56445e-05
3.77369e-05
1.7857e-05
1.78808e-05
1.79067e-05
1.7935e-05
1.79657e-05
1.79991e-05
1.80354e-05
1.80749e-05
1.81177e-05
1.81642e-05
1.82147e-05
1.82698e-05
1.83305e-05
1.83983e-05
1.84756e-05
1.85663e-05
1.86756e-05
1.88105e-05
1.89742e-05
1.9157e-05
1.935e-05
1.95619e-05
1.98075e-05
2.0099e-05
2.04541e-05
2.08879e-05
2.14127e-05
2.20225e-05
2.26778e-05
2.33751e-05
2.41796e-05
2.52121e-05
2.64609e-05
2.80692e-05
2.98263e-05
3.16751e-05
3.37568e-05
1.76178e-05
1.7641e-05
1.76665e-05
1.76942e-05
1.77245e-05
1.77576e-05
1.77937e-05
1.78331e-05
1.78763e-05
1.79238e-05
1.79761e-05
1.80342e-05
1.80994e-05
1.81735e-05
1.8259e-05
1.83591e-05
1.84768e-05
1.86135e-05
1.87679e-05
1.89374e-05
1.91221e-05
1.9329e-05
1.95647e-05
1.98354e-05
2.01508e-05
2.05245e-05
2.09691e-05
2.14898e-05
2.20709e-05
2.27235e-05
2.34648e-05
2.43908e-05
2.54853e-05
2.68214e-05
2.83615e-05
2.99068e-05
3.18255e-05
1.70186e-05
1.70405e-05
1.70646e-05
1.70908e-05
1.71196e-05
1.7151e-05
1.71853e-05
1.72231e-05
1.72646e-05
1.73104e-05
1.73612e-05
1.74178e-05
1.74812e-05
1.75528e-05
1.76344e-05
1.77277e-05
1.78349e-05
1.79574e-05
1.80954e-05
1.82481e-05
1.84158e-05
1.8602e-05
1.88127e-05
1.90544e-05
1.93348e-05
1.9663e-05
2.00459e-05
2.04925e-05
2.0999e-05
2.15913e-05
2.22511e-05
2.30643e-05
2.39926e-05
2.5057e-05
2.6446e-05
2.76072e-05
2.93928e-05
1.5778e-05
1.57977e-05
1.58195e-05
1.58432e-05
1.58692e-05
1.58977e-05
1.59289e-05
1.59633e-05
1.60012e-05
1.60433e-05
1.60902e-05
1.61428e-05
1.62021e-05
1.62695e-05
1.63463e-05
1.64341e-05
1.65343e-05
1.66476e-05
1.6774e-05
1.69133e-05
1.70658e-05
1.72342e-05
1.74226e-05
1.76353e-05
1.78779e-05
1.8158e-05
1.84814e-05
1.886e-05
1.92845e-05
1.97987e-05
2.03319e-05
2.10565e-05
2.17591e-05
2.26792e-05
2.37824e-05
2.46242e-05
2.6223e-05
1.3295e-05
1.33125e-05
1.33319e-05
1.33531e-05
1.33762e-05
1.34015e-05
1.34293e-05
1.34597e-05
1.34933e-05
1.35305e-05
1.3572e-05
1.36184e-05
1.36705e-05
1.37291e-05
1.37953e-05
1.38699e-05
1.39538e-05
1.40474e-05
1.41509e-05
1.42643e-05
1.43877e-05
1.45226e-05
1.46713e-05
1.4837e-05
1.50235e-05
1.52361e-05
1.54765e-05
1.57585e-05
1.60603e-05
1.64581e-05
1.67898e-05
1.74017e-05
1.77752e-05
1.85619e-05
1.9183e-05
1.98677e-05
2.10283e-05
7.98862e-06
8.02019e-06
8.05437e-06
8.09133e-06
8.13127e-06
8.17448e-06
8.22126e-06
8.27195e-06
8.32698e-06
8.38686e-06
8.45219e-06
8.52359e-06
8.60177e-06
8.68751e-06
8.78169e-06
8.88516e-06
8.99875e-06
9.12309e-06
9.25871e-06
9.40604e-06
9.5656e-06
9.73822e-06
9.92513e-06
1.01279e-05
1.03484e-05
1.05888e-05
1.08518e-05
1.11398e-05
1.14562e-05
1.18053e-05
1.21801e-05
1.26276e-05
1.3019e-05
1.36755e-05
1.40334e-05
1.48661e-05
1.53596e-05
8.35699e-06
8.38725e-06
8.41971e-06
8.45447e-06
8.49159e-06
8.53108e-06
8.57291e-06
8.617e-06
8.6631e-06
8.71069e-06
8.75882e-06
8.80569e-06
8.84812e-06
8.88063e-06
8.89346e-06
8.87379e-06
8.81053e-06
9.51631e-06
2.24299e-05
3.68401e-05
3.31439e-05
3.78538e-05
5.19758e-05
5.6244e-05
5.83503e-05
6.05269e-05
6.3063e-05
6.52017e-05
6.57639e-05
6.39495e-05
6.06927e-05
5.31798e-05
4.30558e-05
3.26522e-05
5.15982e-05
0.000191162
0.000469952
1.4263e-05
1.42777e-05
1.42935e-05
1.43104e-05
1.43281e-05
1.43464e-05
1.43651e-05
1.43837e-05
1.44013e-05
1.44166e-05
1.44273e-05
1.44292e-05
1.44178e-05
1.43887e-05
1.43418e-05
1.432e-05
1.45836e-05
1.5962e-05
1.97272e-05
2.35892e-05
2.49594e-05
3.06734e-05
4.19923e-05
4.78558e-05
5.17167e-05
5.73286e-05
6.81847e-05
8.10424e-05
8.32685e-05
7.69169e-05
6.88894e-05
5.95415e-05
5.50872e-05
4.88193e-05
5.35386e-05
9.24038e-05
0.000203813
1.69346e-05
1.69516e-05
1.69701e-05
1.69899e-05
1.70111e-05
1.70337e-05
1.70573e-05
1.70819e-05
1.71068e-05
1.71313e-05
1.71542e-05
1.71742e-05
1.71908e-05
1.72072e-05
1.72386e-05
1.73266e-05
1.75835e-05
1.82986e-05
1.9528e-05
2.03429e-05
2.11612e-05
2.20246e-05
2.3638e-05
2.6596e-05
2.97348e-05
3.20476e-05
3.52716e-05
3.9857e-05
4.37176e-05
4.53755e-05
4.73647e-05
4.87905e-05
4.9835e-05
5.02854e-05
5.15658e-05
5.55857e-05
7.12782e-05
1.82722e-05
1.82916e-05
1.83126e-05
1.83354e-05
1.83601e-05
1.83865e-05
1.84148e-05
1.84448e-05
1.84762e-05
1.85087e-05
1.85419e-05
1.85757e-05
1.86111e-05
1.86527e-05
1.87138e-05
1.88285e-05
1.90676e-05
1.95716e-05
2.04168e-05
2.1091e-05
2.14107e-05
2.16839e-05
2.21201e-05
2.28784e-05
2.42516e-05
2.62473e-05
2.89632e-05
3.21275e-05
3.45278e-05
3.58463e-05
3.74455e-05
3.94872e-05
4.20365e-05
4.38817e-05
4.644e-05
4.73539e-05
4.98107e-05
1.89301e-05
1.89511e-05
1.8974e-05
1.8999e-05
1.90262e-05
1.90556e-05
1.90873e-05
1.91214e-05
1.91579e-05
1.91966e-05
1.92376e-05
1.9281e-05
1.93279e-05
1.93811e-05
1.94471e-05
1.95392e-05
1.968e-05
1.99053e-05
2.02447e-05
2.06119e-05
2.09226e-05
2.12228e-05
2.15979e-05
2.2104e-05
2.27607e-05
2.3624e-05
2.48023e-05
2.62207e-05
2.74754e-05
2.84572e-05
2.96649e-05
3.13202e-05
3.35232e-05
3.60596e-05
3.89211e-05
4.116e-05
4.3686e-05
1.91982e-05
1.92201e-05
1.92441e-05
1.92703e-05
1.92989e-05
1.93301e-05
1.9364e-05
1.94008e-05
1.94408e-05
1.94841e-05
1.95313e-05
1.95832e-05
1.96415e-05
1.97093e-05
1.97926e-05
1.99012e-05
2.0048e-05
2.02454e-05
2.04856e-05
2.07287e-05
2.09637e-05
2.12197e-05
2.15241e-05
2.1896e-05
2.23676e-05
2.29779e-05
2.37667e-05
2.47063e-05
2.56445e-05
2.65242e-05
2.75524e-05
2.89189e-05
3.06629e-05
3.2886e-05
3.51026e-05
3.74434e-05
3.96287e-05
1.91981e-05
1.92202e-05
1.92444e-05
1.92709e-05
1.92999e-05
1.93316e-05
1.93664e-05
1.94043e-05
1.94458e-05
1.94913e-05
1.95412e-05
1.95965e-05
1.96583e-05
1.97288e-05
1.98111e-05
1.991e-05
2.00314e-05
2.01822e-05
2.03644e-05
2.05662e-05
2.07777e-05
2.1009e-05
2.12744e-05
2.15879e-05
2.19682e-05
2.24347e-05
2.30038e-05
2.36715e-05
2.4402e-05
2.5188e-05
2.60995e-05
2.72406e-05
2.86388e-05
3.03771e-05
3.23421e-05
3.44103e-05
3.66839e-05
1.89301e-05
1.89516e-05
1.89753e-05
1.90013e-05
1.90298e-05
1.90611e-05
1.90956e-05
1.91335e-05
1.91753e-05
1.92217e-05
1.92733e-05
1.93313e-05
1.93972e-05
1.94731e-05
1.95619e-05
1.96672e-05
1.97924e-05
1.99389e-05
2.01052e-05
2.02867e-05
2.04827e-05
2.07007e-05
2.09489e-05
2.12348e-05
2.15702e-05
2.19716e-05
2.24532e-05
2.3022e-05
2.36658e-05
2.43923e-05
2.52283e-05
2.62541e-05
2.7489e-05
2.89562e-05
3.06753e-05
3.24242e-05
3.44767e-05
1.82725e-05
1.82926e-05
1.83148e-05
1.83392e-05
1.83661e-05
1.83957e-05
1.84283e-05
1.84644e-05
1.85043e-05
1.85489e-05
1.85987e-05
1.86548e-05
1.87184e-05
1.87911e-05
1.88749e-05
1.8972e-05
1.90846e-05
1.92143e-05
1.93614e-05
1.95248e-05
1.97045e-05
1.99045e-05
2.01311e-05
2.03914e-05
2.06941e-05
2.10497e-05
2.14685e-05
2.19594e-05
2.25218e-05
2.31764e-05
2.39219e-05
2.48173e-05
2.58786e-05
2.70561e-05
2.86045e-05
2.99613e-05
3.18522e-05
1.69352e-05
1.69532e-05
1.69732e-05
1.69951e-05
1.70193e-05
1.7046e-05
1.70754e-05
1.71081e-05
1.71444e-05
1.7185e-05
1.72306e-05
1.72823e-05
1.73411e-05
1.74084e-05
1.74858e-05
1.75751e-05
1.76777e-05
1.77944e-05
1.79253e-05
1.80698e-05
1.82285e-05
1.84039e-05
1.86005e-05
1.88235e-05
1.90792e-05
1.93764e-05
1.97225e-05
2.01294e-05
2.0593e-05
2.11476e-05
2.17505e-05
2.25173e-05
2.33456e-05
2.4304e-05
2.5571e-05
2.65338e-05
2.81629e-05
1.42646e-05
1.42807e-05
1.42986e-05
1.43184e-05
1.434e-05
1.43639e-05
1.43901e-05
1.44192e-05
1.44514e-05
1.44873e-05
1.45276e-05
1.4573e-05
1.46242e-05
1.46824e-05
1.47484e-05
1.48235e-05
1.49085e-05
1.50039e-05
1.51099e-05
1.52266e-05
1.53542e-05
1.54943e-05
1.56495e-05
1.58232e-05
1.60196e-05
1.62443e-05
1.65001e-05
1.67996e-05
1.71281e-05
1.75438e-05
1.79327e-05
1.85453e-05
1.90108e-05
1.97781e-05
2.06045e-05
2.12002e-05
2.24612e-05
8.35807e-06
8.38901e-06
8.42247e-06
8.45866e-06
8.49783e-06
8.54027e-06
8.58629e-06
8.63625e-06
8.69059e-06
8.74984e-06
8.8146e-06
8.88551e-06
8.96329e-06
9.04875e-06
9.14273e-06
9.24609e-06
9.35958e-06
9.48384e-06
9.61941e-06
9.7667e-06
9.92622e-06
1.00988e-05
1.02858e-05
1.04888e-05
1.07099e-05
1.09513e-05
1.12159e-05
1.15064e-05
1.18267e-05
1.21789e-05
1.25671e-05
1.30014e-05
1.34596e-05
1.40167e-05
1.45369e-05
1.52345e-05
1.58667e-05
8.59068e-06
8.62024e-06
8.65199e-06
8.68601e-06
8.72235e-06
8.76105e-06
8.80208e-06
8.8454e-06
8.89082e-06
8.93793e-06
8.98597e-06
9.03351e-06
9.07819e-06
9.11625e-06
9.1421e-06
9.14988e-06
9.14167e-06
9.18999e-06
1.12593e-05
1.62602e-05
1.65717e-05
1.66501e-05
2.0851e-05
3.51566e-05
4.81698e-05
5.14992e-05
5.3119e-05
5.35138e-05
5.16368e-05
4.71028e-05
4.08594e-05
3.2786e-05
2.33087e-05
2.01087e-05
2.83448e-05
5.75694e-05
0.000224022
1.49123e-05
1.49255e-05
1.49397e-05
1.49549e-05
1.49709e-05
1.49876e-05
1.50045e-05
1.50213e-05
1.50373e-05
1.50514e-05
1.50613e-05
1.5064e-05
1.50554e-05
1.5033e-05
1.49964e-05
1.4974e-05
1.50961e-05
1.57637e-05
1.72674e-05
1.8428e-05
1.86233e-05
1.93131e-05
2.1859e-05
2.89489e-05
4.10898e-05
4.44134e-05
4.8109e-05
5.37039e-05
5.51386e-05
5.12873e-05
4.64529e-05
4.08334e-05
3.89713e-05
3.53398e-05
3.91745e-05
5.62057e-05
0.000118111
1.77345e-05
1.775e-05
1.77668e-05
1.77851e-05
1.78046e-05
1.78255e-05
1.78475e-05
1.78705e-05
1.7894e-05
1.79174e-05
1.79397e-05
1.79603e-05
1.79794e-05
1.80011e-05
1.80405e-05
1.81357e-05
1.83689e-05
1.89217e-05
1.98552e-05
2.04391e-05
2.08145e-05
2.1143e-05
2.17495e-05
2.367e-05
2.74735e-05
3.07278e-05
3.36137e-05
3.66037e-05
3.90441e-05
4.03822e-05
4.21372e-05
4.35408e-05
4.48515e-05
4.64906e-05
4.6687e-05
4.85013e-05
5.7258e-05
1.91512e-05
1.91691e-05
1.91886e-05
1.92098e-05
1.92328e-05
1.92577e-05
1.92844e-05
1.93129e-05
1.93429e-05
1.93744e-05
1.94071e-05
1.94412e-05
1.94783e-05
1.95235e-05
1.95901e-05
1.97089e-05
1.9937e-05
2.03766e-05
2.10876e-05
2.16953e-05
2.19724e-05
2.21969e-05
2.25601e-05
2.31079e-05
2.40612e-05
2.56318e-05
2.78949e-05
3.05334e-05
3.26528e-05
3.39081e-05
3.52764e-05
3.7042e-05
3.89007e-05
4.12137e-05
4.35496e-05
4.46966e-05
4.75035e-05
1.98571e-05
1.98766e-05
1.9898e-05
1.99215e-05
1.99471e-05
1.9975e-05
2.00052e-05
2.0038e-05
2.00732e-05
2.0111e-05
2.01516e-05
2.01954e-05
2.02441e-05
2.03012e-05
2.03741e-05
2.04769e-05
2.06311e-05
2.08648e-05
2.11916e-05
2.15368e-05
2.18371e-05
2.21295e-05
2.24855e-05
2.29654e-05
2.35821e-05
2.43646e-05
2.5415e-05
2.66822e-05
2.79022e-05
2.89474e-05
3.01647e-05
3.17048e-05
3.36144e-05
3.60106e-05
3.86143e-05
4.08443e-05
4.34026e-05
2.0149e-05
2.01695e-05
2.0192e-05
2.02167e-05
2.02438e-05
2.02736e-05
2.03061e-05
2.03416e-05
2.03805e-05
2.0423e-05
2.04698e-05
2.05219e-05
2.05814e-05
2.06518e-05
2.07395e-05
2.08545e-05
2.10095e-05
2.12154e-05
2.14674e-05
2.17186e-05
2.19558e-05
2.221e-05
2.251e-05
2.28726e-05
2.33297e-05
2.39232e-05
2.46892e-05
2.56039e-05
2.65491e-05
2.74672e-05
2.85242e-05
2.98786e-05
3.15671e-05
3.37198e-05
3.58786e-05
3.81759e-05
4.04498e-05
2.0149e-05
2.01696e-05
2.01924e-05
2.02174e-05
2.02449e-05
2.02753e-05
2.03086e-05
2.03453e-05
2.03858e-05
2.04304e-05
2.048e-05
2.05355e-05