/*--------------------------------*- C++ -*----------------------------------*\
| =========                 |                                                 |
| \\      /  F ield         | OpenFOAM: The Open Source CFD Toolbox           |
|  \\    /   O peration     | Version:  2.3.1                                 |
|   \\  /    A nd           | Web:      www.OpenFOAM.org                      |
|    \\/     M anipulation  |                                                 |
\*---------------------------------------------------------------------------*/
FoamFile
{
    version     2.0;
    format      ascii;
    class       volScalarField;
    location    "15";
    object      nut;
}
// * * * * * * * * * * * * * * * * * * * * * * * * * * * * * * * * * * * * * //

dimensions      [0 2 -1 0 0 0 0];

internalField   nonuniform List<scalar> 
37530
(
2.57924e-06
2.59031e-06
2.60211e-06
2.61465e-06
2.62792e-06
2.64191e-06
2.65657e-06
2.6718e-06
2.68743e-06
2.70312e-06
2.7184e-06
2.73243e-06
2.7438e-06
2.74923e-06
2.74106e-06
2.74403e-06
4.01861e-06
8.67142e-06
1.02726e-05
1.02194e-05
1.00338e-05
1.01211e-05
1.00818e-05
9.60746e-06
9.6381e-06
1.32758e-05
2.32251e-05
2.95353e-05
3.05827e-05
3.07296e-05
3.0589e-05
2.94827e-05
2.84845e-05
2.82118e-05
2.82939e-05
2.88422e-05
2.95509e-05
3.06331e-06
3.07507e-06
3.08759e-06
3.10088e-06
3.11493e-06
3.12972e-06
3.14519e-06
3.16124e-06
3.17768e-06
3.19419e-06
3.21006e-06
3.22413e-06
3.23442e-06
3.23786e-06
3.2293e-06
3.20195e-06
3.25506e-06
4.76641e-06
6.74024e-06
7.41108e-06
8.00423e-06
8.36047e-06
8.50623e-06
8.45934e-06
8.35159e-06
9.08323e-06
1.33581e-05
1.81114e-05
1.95538e-05
2.10541e-05
2.36641e-05
2.58501e-05
2.68607e-05
2.73253e-05
2.73591e-05
2.70991e-05
2.64967e-05
3.26127e-06
3.27256e-06
3.2846e-06
3.29738e-06
3.3109e-06
3.32517e-06
3.34015e-06
3.35575e-06
3.37183e-06
3.38812e-06
3.40417e-06
3.41925e-06
3.43215e-06
3.44112e-06
3.44486e-06
3.44142e-06
3.42615e-06
3.52872e-06
3.98672e-06
4.36593e-06
4.61461e-06
4.87711e-06
5.01319e-06
4.99932e-06
5.05102e-06
5.36559e-06
6.78998e-06
9.51822e-06
1.06729e-05
1.12449e-05
1.31314e-05
1.54883e-05
1.73707e-05
1.88323e-05
1.9381e-05
1.93632e-05
1.87149e-05
3.35095e-06
3.36209e-06
3.37397e-06
3.3866e-06
3.40001e-06
3.4142e-06
3.42917e-06
3.44488e-06
3.46126e-06
3.47819e-06
3.49549e-06
3.51292e-06
3.53024e-06
3.54727e-06
3.56419e-06
3.58271e-06
3.60762e-06
3.63867e-06
3.72647e-06
3.84724e-06
3.94482e-06
4.03431e-06
4.12528e-06
4.19985e-06
4.27979e-06
4.39143e-06
4.66375e-06
5.39233e-06
6.02679e-06
6.25138e-06
6.9197e-06
8.61928e-06
1.11057e-05
1.31437e-05
1.40606e-05
1.44911e-05
1.44227e-05
3.38862e-06
3.39972e-06
3.41158e-06
3.42422e-06
3.43767e-06
3.45196e-06
3.46708e-06
3.48304e-06
3.4998e-06
3.51729e-06
3.53539e-06
3.55393e-06
3.57269e-06
3.59148e-06
3.61019e-06
3.62924e-06
3.6508e-06
3.67728e-06
3.71392e-06
3.76174e-06
3.81249e-06
3.86162e-06
3.9098e-06
3.95819e-06
4.01121e-06
4.0749e-06
4.16034e-06
4.303e-06
4.48398e-06
4.62726e-06
4.80725e-06
5.23124e-06
6.18343e-06
7.85332e-06
9.29461e-06
1.03293e-05
1.05843e-05
3.40173e-06
3.41285e-06
3.42474e-06
3.43744e-06
3.45099e-06
3.46541e-06
3.48074e-06
3.49701e-06
3.51423e-06
3.53242e-06
3.55164e-06
3.57196e-06
3.59358e-06
3.61682e-06
3.64229e-06
3.67105e-06
3.70479e-06
3.74572e-06
3.79481e-06
3.85253e-06
3.91419e-06
3.97544e-06
4.03854e-06
4.10401e-06
4.16895e-06
4.23157e-06
4.29515e-06
4.36833e-06
4.45591e-06
4.54798e-06
4.63989e-06
4.75287e-06
4.94692e-06
5.37933e-06
5.99969e-06
6.88891e-06
7.43681e-06
3.40172e-06
3.41288e-06
3.42483e-06
3.43763e-06
3.45129e-06
3.46587e-06
3.48141e-06
3.49796e-06
3.51556e-06
3.53426e-06
3.5541e-06
3.57514e-06
3.59748e-06
3.62125e-06
3.64669e-06
3.67419e-06
3.70429e-06
3.73784e-06
3.77552e-06
3.81715e-06
3.86172e-06
3.90847e-06
3.95753e-06
4.00954e-06
4.06573e-06
4.12769e-06
4.19679e-06
4.2739e-06
4.35797e-06
4.44543e-06
4.53785e-06
4.63743e-06
4.74371e-06
4.8833e-06
5.09837e-06
5.31883e-06
5.74466e-06
3.38865e-06
3.39988e-06
3.41194e-06
3.42485e-06
3.43866e-06
3.45343e-06
3.46921e-06
3.48607e-06
3.50408e-06
3.52334e-06
3.54398e-06
3.56616e-06
3.59012e-06
3.61616e-06
3.64473e-06
3.6764e-06
3.71191e-06
3.75187e-06
3.79669e-06
3.84616e-06
3.89923e-06
3.95486e-06
4.01294e-06
4.0734e-06
4.13603e-06
4.20093e-06
4.26895e-06
4.34131e-06
4.41893e-06
4.50189e-06
4.58867e-06
4.68471e-06
4.77782e-06
4.91547e-06
5.02858e-06
5.23175e-06
5.37645e-06
3.35106e-06
3.36241e-06
3.3746e-06
3.38768e-06
3.40168e-06
3.41667e-06
3.43272e-06
3.44991e-06
3.46832e-06
3.48808e-06
3.50931e-06
3.53214e-06
3.55673e-06
3.58329e-06
3.61206e-06
3.64334e-06
3.67737e-06
3.71437e-06
3.75441e-06
3.79739e-06
3.84313e-06
3.89159e-06
3.94297e-06
3.99773e-06
4.05651e-06
4.12009e-06
4.18926e-06
4.26439e-06
4.34586e-06
4.43317e-06
4.52685e-06
4.62712e-06
4.73448e-06
4.84663e-06
5.00983e-06
5.1186e-06
5.35397e-06
3.26156e-06
3.27314e-06
3.28559e-06
3.29895e-06
3.31327e-06
3.32861e-06
3.34507e-06
3.36272e-06
3.38168e-06
3.40208e-06
3.42407e-06
3.44785e-06
3.47363e-06
3.50167e-06
3.53229e-06
3.5658e-06
3.60253e-06
3.64269e-06
3.68643e-06
3.73364e-06
3.78407e-06
3.8375e-06
3.89389e-06
3.95333e-06
4.01602e-06
4.08228e-06
4.1527e-06
4.22759e-06
4.30787e-06
4.39317e-06
4.48459e-06
4.58141e-06
4.68972e-06
4.7852e-06
4.95671e-06
5.05037e-06
5.28866e-06
3.06388e-06
3.07597e-06
3.08898e-06
3.10294e-06
3.11791e-06
3.13398e-06
3.15121e-06
3.16973e-06
3.18963e-06
3.21105e-06
3.23417e-06
3.25915e-06
3.28617e-06
3.31545e-06
3.34719e-06
3.38161e-06
3.4189e-06
3.45918e-06
3.50249e-06
3.54878e-06
3.59804e-06
3.65031e-06
3.70577e-06
3.76471e-06
3.82757e-06
3.89476e-06
3.96692e-06
4.04384e-06
4.12729e-06
4.21325e-06
4.31344e-06
4.39741e-06
4.5362e-06
4.60372e-06
4.78763e-06
4.8496e-06
5.09205e-06
2.57987e-06
2.59122e-06
2.6034e-06
2.61649e-06
2.63052e-06
2.64559e-06
2.66176e-06
2.67913e-06
2.6978e-06
2.71789e-06
2.73954e-06
2.76293e-06
2.78821e-06
2.8156e-06
2.84529e-06
2.87748e-06
2.91234e-06
2.95e-06
2.99052e-06
3.03387e-06
3.08004e-06
3.12904e-06
3.18096e-06
3.23598e-06
3.29437e-06
3.35635e-06
3.4226e-06
3.49249e-06
3.56913e-06
3.64468e-06
3.74089e-06
3.80652e-06
3.94487e-06
3.99575e-06
4.18405e-06
4.19049e-06
4.45336e-06
6.37767e-06
6.39295e-06
6.40927e-06
6.42667e-06
6.44515e-06
6.4647e-06
6.48527e-06
6.50675e-06
6.52892e-06
6.55161e-06
6.57422e-06
6.59545e-06
6.61185e-06
6.61591e-06
6.59091e-06
6.51382e-06
7.99369e-06
1.74968e-05
2.27648e-05
2.31221e-05
2.24017e-05
2.21922e-05
2.22074e-05
2.20918e-05
2.16822e-05
2.27283e-05
3.25797e-05
4.79865e-05
6.00691e-05
6.34359e-05
6.37641e-05
6.36766e-05
6.39822e-05
6.45005e-05
6.47444e-05
6.54398e-05
6.71573e-05
1.43545e-05
1.43634e-05
1.43724e-05
1.43815e-05
1.43901e-05
1.43978e-05
1.44041e-05
1.44076e-05
1.44062e-05
1.43948e-05
1.43663e-05
1.43083e-05
1.41955e-05
1.39686e-05
1.35116e-05
1.27114e-05
1.1777e-05
1.1089e-05
1.57728e-05
2.11641e-05
2.40316e-05
2.54121e-05
2.63056e-05
2.66664e-05
2.81057e-05
2.84097e-05
2.71401e-05
3.59671e-05
5.47852e-05
6.75431e-05
7.59341e-05
7.84438e-05
7.91824e-05
7.77196e-05
7.66029e-05
8.00274e-05
8.43401e-05
1.85537e-05
1.85664e-05
1.85794e-05
1.85927e-05
1.86059e-05
1.86186e-05
1.86302e-05
1.86396e-05
1.86453e-05
1.86443e-05
1.86316e-05
1.85993e-05
1.85337e-05
1.84057e-05
1.81015e-05
1.74705e-05
1.64316e-05
1.45566e-05
1.09343e-05
1.00398e-05
9.76131e-06
9.47752e-06
9.44604e-06
9.83476e-06
1.03161e-05
1.13798e-05
1.31638e-05
1.58332e-05
2.22237e-05
2.68034e-05
2.9862e-05
3.38784e-05
4.15525e-05
4.73956e-05
4.76675e-05
4.83268e-05
4.92111e-05
2.0689e-05
2.07041e-05
2.072e-05
2.07364e-05
2.07532e-05
2.077e-05
2.07865e-05
2.08017e-05
2.08143e-05
2.0822e-05
2.08215e-05
2.08079e-05
2.07737e-05
2.0709e-05
2.06017e-05
2.04137e-05
2.01181e-05
1.96286e-05
1.90419e-05
1.85403e-05
1.90665e-05
1.93561e-05
1.9663e-05
2.00706e-05
2.02222e-05
1.92424e-05
1.62069e-05
1.24447e-05
1.14736e-05
1.21262e-05
1.26684e-05
1.26627e-05
1.43106e-05
1.94106e-05
2.6475e-05
3.19925e-05
3.55219e-05
2.17109e-05
2.17277e-05
2.17455e-05
2.17641e-05
2.17835e-05
2.18034e-05
2.18235e-05
2.18431e-05
2.18612e-05
2.18759e-05
2.18848e-05
2.1884e-05
2.18678e-05
2.18283e-05
2.17554e-05
2.16328e-05
2.1395e-05
2.10415e-05
2.06733e-05
2.041e-05
2.01741e-05
2.00592e-05
2.01594e-05
2.0413e-05
2.07007e-05
2.07825e-05
2.03147e-05
1.86328e-05
1.62488e-05
1.47819e-05
1.38023e-05
1.22101e-05
1.0349e-05
9.51275e-06
1.01881e-05
1.33861e-05
1.63958e-05
2.21083e-05
2.2126e-05
2.21448e-05
2.21648e-05
2.21857e-05
2.22075e-05
2.22299e-05
2.22526e-05
2.22748e-05
2.22957e-05
2.23141e-05
2.23287e-05
2.23376e-05
2.2339e-05
2.2332e-05
2.23182e-05
2.23036e-05
2.23016e-05
2.2319e-05
2.2414e-05
2.2614e-05
2.28355e-05
2.30916e-05
2.3391e-05
2.36889e-05
2.3919e-05
2.40678e-05
2.4037e-05
2.38947e-05
2.36756e-05
2.3257e-05
2.19423e-05
2.00291e-05
1.66513e-05
1.44989e-05
1.19184e-05
1.22275e-05
2.21067e-05
2.21246e-05
2.21439e-05
2.21643e-05
2.21859e-05
2.22084e-05
2.22319e-05
2.22561e-05
2.22805e-05
2.23046e-05
2.23274e-05
2.23477e-05
2.23639e-05
2.23742e-05
2.23767e-05
2.23706e-05
2.23562e-05
2.23407e-05
2.23394e-05
2.23562e-05
2.2397e-05
2.24687e-05
2.25805e-05
2.27311e-05
2.29177e-05
2.31318e-05
2.33621e-05
2.35592e-05
2.37399e-05
2.39594e-05
2.40465e-05
2.42267e-05
2.3628e-05
2.32453e-05
2.13943e-05
2.00874e-05
1.87606e-05
2.17072e-05
2.1725e-05
2.17441e-05
2.17646e-05
2.17862e-05
2.1809e-05
2.1833e-05
2.18582e-05
2.18844e-05
2.19116e-05
2.19397e-05
2.19687e-05
2.19987e-05
2.20301e-05
2.20639e-05
2.21022e-05
2.21484e-05
2.22066e-05
2.22798e-05
2.23794e-05
2.25089e-05
2.26646e-05
2.2845e-05
2.30474e-05
2.3267e-05
2.34971e-05
2.37376e-05
2.39988e-05
2.42762e-05
2.4603e-05
2.49077e-05
2.53585e-05
2.56592e-05
2.61989e-05
2.64722e-05
2.6619e-05
2.7294e-05
2.06842e-05
2.07008e-05
2.07189e-05
2.07383e-05
2.07588e-05
2.07805e-05
2.08035e-05
2.08279e-05
2.08539e-05
2.08815e-05
2.09109e-05
2.0942e-05
2.09748e-05
2.10096e-05
2.10467e-05
2.1087e-05
2.11317e-05
2.11822e-05
2.12397e-05
2.13052e-05
2.13795e-05
2.14655e-05
2.15673e-05
2.16878e-05
2.18304e-05
2.19993e-05
2.21936e-05
2.24254e-05
2.26717e-05
2.30141e-05
2.32716e-05
2.38656e-05
2.39932e-05
2.5044e-05
2.50474e-05
2.60152e-05
2.67839e-05
1.85499e-05
1.85643e-05
1.85801e-05
1.8597e-05
1.8615e-05
1.86342e-05
1.86547e-05
1.86766e-05
1.87002e-05
1.87259e-05
1.87541e-05
1.87852e-05
1.88198e-05
1.88586e-05
1.8903e-05
1.89541e-05
1.90133e-05
1.90817e-05
1.91602e-05
1.92489e-05
1.93487e-05
1.9462e-05
1.95909e-05
1.97369e-05
1.99013e-05
2.00866e-05
2.02909e-05
2.05288e-05
2.07651e-05
2.11019e-05
2.12999e-05
2.18748e-05
2.20059e-05
2.28379e-05
2.28746e-05
2.34951e-05
2.49443e-05
1.43539e-05
1.43645e-05
1.43763e-05
1.4389e-05
1.44026e-05
1.44171e-05
1.44327e-05
1.44496e-05
1.44681e-05
1.44885e-05
1.45113e-05
1.45369e-05
1.45656e-05
1.45978e-05
1.4634e-05
1.46744e-05
1.4719e-05
1.47673e-05
1.48184e-05
1.48712e-05
1.4925e-05
1.49807e-05
1.50399e-05
1.5105e-05
1.51779e-05
1.52631e-05
1.5358e-05
1.54824e-05
1.55838e-05
1.58136e-05
1.5861e-05
1.62732e-05
1.6287e-05
1.69046e-05
1.68525e-05
1.72604e-05
1.8396e-05
6.37841e-06
6.39406e-06
6.41094e-06
6.42911e-06
6.44866e-06
6.46971e-06
6.49238e-06
6.5168e-06
6.54314e-06
6.57159e-06
6.60237e-06
6.63575e-06
6.67197e-06
6.71132e-06
6.75413e-06
6.80073e-06
6.85142e-06
6.90644e-06
6.96598e-06
7.03019e-06
7.09921e-06
7.17325e-06
7.25259e-06
7.3376e-06
7.42874e-06
7.52645e-06
7.63147e-06
7.74394e-06
7.86534e-06
7.99475e-06
8.1341e-06
8.28594e-06
8.43806e-06
8.62755e-06
8.79926e-06
8.95298e-06
9.29326e-06
6.86643e-06
6.88073e-06
6.89601e-06
6.9123e-06
6.92959e-06
6.94788e-06
6.96716e-06
6.98741e-06
7.00848e-06
7.03005e-06
7.05153e-06
7.0718e-06
7.08867e-06
7.09756e-06
7.08771e-06
7.0422e-06
7.49557e-06
1.55301e-05
2.2329e-05
2.27988e-05
2.20178e-05
2.18312e-05
2.17856e-05
2.16991e-05
2.16843e-05
2.18012e-05
2.37135e-05
2.93979e-05
3.70615e-05
4.4026e-05
4.7828e-05
4.93632e-05
5.16818e-05
5.62982e-05
6.23608e-05
6.49343e-05
6.64334e-05
2.33904e-05
2.34178e-05
2.34466e-05
2.34763e-05
2.35063e-05
2.35358e-05
2.35627e-05
2.35836e-05
2.35941e-05
2.35869e-05
2.35486e-05
2.34545e-05
2.32598e-05
2.2893e-05
2.21919e-05
2.09997e-05
1.95045e-05
1.58718e-05
1.66564e-05
2.16131e-05
2.47186e-05
2.70788e-05
2.89074e-05
3.01229e-05
3.24013e-05
3.44633e-05
3.38224e-05
3.56036e-05
4.01809e-05
4.67021e-05
5.26868e-05
5.50354e-05
5.68678e-05
5.73944e-05
6.36931e-05
7.66924e-05
8.51653e-05
3.32073e-05
3.32608e-05
3.33174e-05
3.33768e-05
3.34385e-05
3.35018e-05
3.35656e-05
3.36278e-05
3.3685e-05
3.37314e-05
3.37578e-05
3.37485e-05
3.3678e-05
3.35051e-05
3.31514e-05
3.24875e-05
3.1385e-05
2.8907e-05
2.0637e-05
1.64823e-05
1.58393e-05
1.57764e-05
1.60984e-05
1.68814e-05
1.76128e-05
1.75501e-05
1.69177e-05
1.78686e-05
2.16223e-05
2.59945e-05
2.85954e-05
3.18072e-05
3.43307e-05
3.62172e-05
3.50303e-05
3.66159e-05
4.18439e-05
3.85457e-05
3.86142e-05
3.86872e-05
3.87643e-05
3.88454e-05
3.89299e-05
3.90171e-05
3.91054e-05
3.91923e-05
3.92736e-05
3.93431e-05
3.93914e-05
3.94049e-05
3.93661e-05
3.92566e-05
3.90691e-05
3.88234e-05
3.84624e-05
3.75208e-05
3.61158e-05
3.66685e-05
3.67907e-05
3.69998e-05
3.75973e-05
3.81624e-05
3.75867e-05
3.39868e-05
2.68196e-05
2.09032e-05
1.96946e-05
1.96569e-05
2.00328e-05
1.95407e-05
2.08162e-05
2.32246e-05
2.5303e-05
2.84639e-05
4.12436e-05
4.13209e-05
4.14036e-05
4.14915e-05
4.15846e-05
4.16826e-05
4.17851e-05
4.1891e-05
4.19985e-05
4.21045e-05
4.22045e-05
4.22917e-05
4.23565e-05
4.23859e-05
4.23648e-05
4.22797e-05
4.2118e-05
4.18984e-05
4.17244e-05
4.15574e-05
4.14665e-05
4.15412e-05
4.18405e-05
4.23458e-05
4.29361e-05
4.33735e-05
4.32234e-05
4.12439e-05
3.695e-05
3.31436e-05
3.0785e-05
2.84021e-05
2.61289e-05
2.14079e-05
1.89497e-05
1.7513e-05
1.94917e-05
4.23372e-05
4.24188e-05
4.25064e-05
4.26e-05
4.26995e-05
4.28051e-05
4.29164e-05
4.30332e-05
4.31543e-05
4.32784e-05
4.34038e-05
4.35283e-05
4.36493e-05
4.37648e-05
4.3875e-05
4.39861e-05
4.41139e-05
4.42884e-05
4.45068e-05
4.48901e-05
4.54493e-05
4.6075e-05
4.67849e-05
4.75878e-05
4.84247e-05
4.92098e-05
4.99038e-05
5.03509e-05
5.03428e-05
4.99561e-05
4.95504e-05
4.82416e-05
4.72278e-05
4.28912e-05
4.01275e-05
3.43009e-05
3.25663e-05
4.23348e-05
4.24171e-05
4.25056e-05
4.26004e-05
4.27016e-05
4.28093e-05
4.29235e-05
4.30443e-05
4.31713e-05
4.33037e-05
4.34407e-05
4.35807e-05
4.37219e-05
4.38624e-05
4.40011e-05
4.41393e-05
4.42827e-05
4.44498e-05
4.46609e-05
4.49209e-05
4.52382e-05
4.56275e-05
4.61025e-05
4.66651e-05
4.7312e-05
4.80119e-05
4.87675e-05
4.95741e-05
5.03807e-05
5.11965e-05
5.20185e-05
5.28794e-05
5.35313e-05
5.37597e-05
5.31658e-05
5.22063e-05
5.11745e-05
4.1239e-05
4.13185e-05
4.14044e-05
4.14966e-05
4.15954e-05
4.1701e-05
4.18139e-05
4.19343e-05
4.20627e-05
4.21995e-05
4.23452e-05
4.25007e-05
4.26673e-05
4.28471e-05
4.30435e-05
4.32618e-05
4.35091e-05
4.37913e-05
4.41185e-05
4.45082e-05
4.49666e-05
4.54915e-05
4.60823e-05
4.67352e-05
4.74459e-05
4.82098e-05
4.90311e-05
4.9923e-05
5.08766e-05
5.19228e-05
5.30399e-05
5.4383e-05
5.57656e-05
5.74494e-05
5.88852e-05
6.05557e-05
6.23125e-05
3.85405e-05
3.86124e-05
3.86904e-05
3.87743e-05
3.88644e-05
3.89612e-05
3.9065e-05
3.91766e-05
3.92968e-05
3.94263e-05
3.95664e-05
3.97179e-05
3.98822e-05
4.00609e-05
4.02564e-05
4.04716e-05
4.07098e-05
4.0974e-05
4.1265e-05
4.15832e-05
4.19305e-05
4.23155e-05
4.27482e-05
4.32368e-05
4.37896e-05
4.44165e-05
4.51227e-05
4.5924e-05
4.68059e-05
4.78461e-05
4.89082e-05
5.0355e-05
5.15144e-05
5.36638e-05
5.4987e-05
5.71177e-05
5.99797e-05
3.32047e-05
3.32621e-05
3.33248e-05
3.33924e-05
3.34653e-05
3.35439e-05
3.36288e-05
3.37207e-05
3.38205e-05
3.39296e-05
3.40493e-05
3.41814e-05
3.43277e-05
3.44908e-05
3.46735e-05
3.4879e-05
3.51101e-05
3.53687e-05
3.56555e-05
3.59706e-05
3.6316e-05
3.66953e-05
3.71139e-05
3.7577e-05
3.80906e-05
3.86633e-05
3.92994e-05
4.00179e-05
4.07904e-05
4.17155e-05
4.2586e-05
4.39118e-05
4.47495e-05
4.67409e-05
4.76896e-05
4.92338e-05
5.2503e-05
2.33922e-05
2.34233e-05
2.34577e-05
2.34951e-05
2.35355e-05
2.35795e-05
2.36274e-05
2.36797e-05
2.37373e-05
2.38011e-05
2.38723e-05
2.39522e-05
2.40419e-05
2.41426e-05
2.42558e-05
2.43825e-05
2.4523e-05
2.46765e-05
2.48412e-05
2.50151e-05
2.51971e-05
2.53892e-05
2.55952e-05
2.58206e-05
2.60712e-05
2.63555e-05
2.66744e-05
2.70521e-05
2.74362e-05
2.79916e-05
2.83497e-05
2.92576e-05
2.96003e-05
3.09095e-05
3.09287e-05
3.24656e-05
3.39681e-05
6.86723e-06
6.88193e-06
6.89781e-06
6.91492e-06
6.93335e-06
6.9532e-06
6.97462e-06
6.99772e-06
7.02267e-06
7.04968e-06
7.07898e-06
7.1108e-06
7.14544e-06
7.18316e-06
7.22429e-06
7.26915e-06
7.31802e-06
7.37112e-06
7.42861e-06
7.49058e-06
7.55716e-06
7.62858e-06
7.70518e-06
7.78737e-06
7.87569e-06
7.97072e-06
8.0732e-06
8.18362e-06
8.30273e-06
8.43233e-06
8.5664e-06
8.73036e-06
8.85646e-06
9.09381e-06
9.20943e-06
9.46764e-06
9.68985e-06
7.13842e-06
7.15216e-06
7.16686e-06
7.18256e-06
7.19928e-06
7.21701e-06
7.23573e-06
7.25537e-06
7.27582e-06
7.29678e-06
7.31776e-06
7.3378e-06
7.35515e-06
7.36651e-06
7.36469e-06
7.34073e-06
7.31912e-06
9.90967e-06
1.9331e-05
2.06752e-05
1.98734e-05
2.00751e-05
2.06209e-05
2.06937e-05
2.08089e-05
2.11289e-05
2.16605e-05
2.2803e-05
2.43919e-05
2.6452e-05
2.78487e-05
2.748e-05
2.70789e-05
3.08304e-05
4.49219e-05
5.84109e-05
6.35533e-05
2.94058e-05
2.9434e-05
2.94632e-05
2.94928e-05
2.95216e-05
2.9548e-05
2.957e-05
2.95842e-05
2.9585e-05
2.9563e-05
2.95019e-05
2.93708e-05
2.91195e-05
2.86634e-05
2.78333e-05
2.64482e-05
2.46949e-05
2.21995e-05
1.71559e-05
1.83662e-05
2.15483e-05
2.59774e-05
2.84045e-05
2.99564e-05
3.25053e-05
3.57509e-05
3.89931e-05
3.76114e-05
3.63287e-05
3.70732e-05
3.76688e-05
3.62871e-05
3.41178e-05
3.2313e-05
3.35531e-05
3.88611e-05
5.06868e-05
4.43408e-05
4.44146e-05
4.4493e-05
4.45756e-05
4.46616e-05
4.475e-05
4.48394e-05
4.49273e-05
4.50095e-05
4.50788e-05
4.51239e-05
4.5126e-05
4.50556e-05
4.4867e-05
4.44919e-05
4.38222e-05
4.27602e-05
4.08794e-05
3.45841e-05
2.75692e-05
2.68914e-05
2.6492e-05
2.59949e-05
2.60834e-05
2.66919e-05
2.73465e-05
2.65919e-05
2.31841e-05
2.15355e-05
2.23785e-05
2.35891e-05
2.46254e-05
2.52411e-05
2.72355e-05
2.81778e-05
2.78919e-05
2.94892e-05
5.29926e-05
5.30953e-05
5.3205e-05
5.33214e-05
5.34442e-05
5.35729e-05
5.37065e-05
5.38431e-05
5.39796e-05
5.4111e-05
5.42296e-05
5.43239e-05
5.43782e-05
5.43729e-05
5.42898e-05
5.41312e-05
5.3943e-05
5.38341e-05
5.33342e-05
5.21884e-05
5.20115e-05
5.1783e-05
5.17929e-05
5.20677e-05
5.24278e-05
5.23288e-05
5.10924e-05
4.62248e-05
3.92315e-05
3.53444e-05
3.40022e-05
3.2698e-05
3.23533e-05
2.85169e-05
2.97466e-05
3.00085e-05
3.19205e-05
5.7563e-05
5.7683e-05
5.78115e-05
5.79487e-05
5.80945e-05
5.82487e-05
5.84109e-05
5.85799e-05
5.87537e-05
5.89288e-05
5.90999e-05
5.92597e-05
5.93978e-05
5.95013e-05
5.95565e-05
5.95554e-05
5.95051e-05
5.94496e-05
5.95035e-05
5.95727e-05
5.96914e-05
5.9946e-05
6.03999e-05
6.10335e-05
6.17328e-05
6.2313e-05
6.25563e-05
6.16176e-05
5.87405e-05
5.52904e-05
5.29103e-05
5.01369e-05
4.93314e-05
4.3633e-05
4.08451e-05
3.74938e-05
3.72202e-05
5.94759e-05
5.96044e-05
5.97424e-05
5.98902e-05
6.00482e-05
6.02163e-05
6.03946e-05
6.05827e-05
6.07799e-05
6.09847e-05
6.11953e-05
6.14096e-05
6.16255e-05
6.18417e-05
6.20609e-05
6.22933e-05
6.25603e-05
6.28969e-05
6.32957e-05
6.38557e-05
6.45875e-05
6.54209e-05
6.6385e-05
6.74851e-05
6.86643e-05
6.9843e-05
7.09945e-05
7.19598e-05
7.24783e-05
7.25811e-05
7.27081e-05
7.22068e-05
7.23261e-05
6.98028e-05
6.83863e-05
6.51485e-05
6.3286e-05
5.94737e-05
5.9603e-05
5.97423e-05
5.9892e-05
6.00523e-05
6.02236e-05
6.04063e-05
6.06006e-05
6.08064e-05
6.10235e-05
6.12512e-05
6.14888e-05
6.17352e-05
6.19902e-05
6.22549e-05
6.2534e-05
6.28384e-05
6.31933e-05
6.36204e-05
6.41152e-05
6.4684e-05
6.5343e-05
6.61084e-05
6.69928e-05
6.80145e-05
6.91653e-05
7.04383e-05
7.18033e-05
7.31901e-05
7.45977e-05
7.61061e-05
7.77216e-05
7.94479e-05
8.08687e-05
8.19579e-05
8.28733e-05
8.35034e-05
5.75593e-05
5.76824e-05
5.78156e-05
5.79591e-05
5.81134e-05
5.8279e-05
5.84569e-05
5.86478e-05
5.88525e-05
5.90724e-05
5.93087e-05
5.95633e-05
5.98387e-05
6.01389e-05
6.04692e-05
6.08371e-05
6.12511e-05
6.17163e-05
6.22397e-05
6.28397e-05
6.35232e-05
6.42932e-05
6.51549e-05
6.61123e-05
6.71714e-05
6.83413e-05
6.96356e-05
7.10615e-05
7.25929e-05
7.4258e-05
7.60783e-05
7.8201e-05
8.05056e-05
8.32327e-05
8.57718e-05
8.88196e-05
9.17805e-05
5.29893e-05
5.30968e-05
5.32136e-05
5.33398e-05
5.34758e-05
5.36226e-05
5.37809e-05
5.39519e-05
5.41371e-05
5.43383e-05
5.45573e-05
5.47963e-05
5.50581e-05
5.5346e-05
5.56643e-05
5.60175e-05
5.64104e-05
5.68457e-05
5.73234e-05
5.78416e-05
5.84026e-05
5.90186e-05
5.97042e-05
6.04727e-05
6.13386e-05
6.23181e-05
6.34238e-05
6.46738e-05
6.60676e-05
6.76633e-05
6.93892e-05
7.15226e-05
7.35973e-05
7.65796e-05
7.89832e-05
8.22532e-05
8.60169e-05
4.43409e-05
4.44204e-05
4.45073e-05
4.46017e-05
4.47039e-05
4.48146e-05
4.49348e-05
4.50656e-05
4.52086e-05
4.53658e-05
4.55394e-05
4.5732e-05
4.59467e-05
4.61872e-05
4.64575e-05
4.67617e-05
4.71028e-05
4.74823e-05
4.78996e-05
4.83528e-05
4.88417e-05
4.93723e-05
4.99538e-05
5.05963e-05
5.13112e-05
5.21136e-05
5.30156e-05
5.40405e-05
5.51681e-05
5.64846e-05
5.78273e-05
5.96396e-05
6.11143e-05
6.37352e-05
6.54512e-05
6.77461e-05
7.15791e-05
2.94113e-05
2.94456e-05
2.94839e-05
2.9526e-05
2.9572e-05
2.96223e-05
2.96777e-05
2.97387e-05
2.98065e-05
2.98825e-05
2.99685e-05
3.00659e-05
3.01766e-05
3.03024e-05
3.04452e-05
3.06063e-05
3.07858e-05
3.09826e-05
3.11939e-05
3.14167e-05
3.16495e-05
3.18951e-05
3.21594e-05
3.24503e-05
3.2777e-05
3.31512e-05
3.35778e-05
3.40813e-05
3.46216e-05
3.53404e-05
3.59099e-05
3.70896e-05
3.75402e-05
3.94162e-05
3.95972e-05
4.13326e-05
4.31578e-05
7.13918e-06
7.15328e-06
7.16852e-06
7.18495e-06
7.20268e-06
7.2218e-06
7.24245e-06
7.26475e-06
7.28889e-06
7.31507e-06
7.34353e-06
7.3745e-06
7.40827e-06
7.44513e-06
7.4854e-06
7.52941e-06
7.57741e-06
7.62962e-06
7.68616e-06
7.74711e-06
7.81258e-06
7.8828e-06
7.95814e-06
8.03906e-06
8.12615e-06
8.22006e-06
8.32161e-06
8.43138e-06
8.55034e-06
8.67968e-06
8.81643e-06
8.97708e-06
9.115e-06
9.34233e-06
9.46375e-06
9.7404e-06
9.90133e-06
7.302e-06
7.31521e-06
7.32936e-06
7.34449e-06
7.3606e-06
7.3777e-06
7.39577e-06
7.41477e-06
7.43458e-06
7.45497e-06
7.47553e-06
7.49548e-06
7.51347e-06
7.52719e-06
7.53249e-06
7.52398e-06
7.49666e-06
7.80597e-06
1.20264e-05
1.53431e-05
1.45318e-05
1.55501e-05
1.82097e-05
1.89429e-05
1.9297e-05
1.96598e-05
2.00718e-05
2.04122e-05
2.04992e-05
2.02144e-05
1.96782e-05
1.84034e-05
1.65489e-05
1.44321e-05
1.82605e-05
3.52562e-05
5.49022e-05
3.35455e-05
3.35665e-05
3.3588e-05
3.36091e-05
3.36283e-05
3.36438e-05
3.36532e-05
3.36531e-05
3.36375e-05
3.35966e-05
3.35132e-05
3.33557e-05
3.30747e-05
3.2588e-05
3.1746e-05
3.03669e-05
2.85136e-05
2.6419e-05
2.2495e-05
1.94104e-05
2.01176e-05
2.13765e-05
2.34309e-05
2.62945e-05
2.97861e-05
3.32778e-05
3.80794e-05
4.05337e-05
3.87562e-05
3.78489e-05
3.60576e-05
3.36728e-05
3.27772e-05
2.99568e-05
2.73332e-05
2.71223e-05
3.64271e-05
5.27503e-05
5.28273e-05
5.29091e-05
5.29951e-05
5.30846e-05
5.31762e-05
5.32684e-05
5.33584e-05
5.34418e-05
5.35111e-05
5.35543e-05
5.35523e-05
5.34758e-05
5.32823e-05
5.2916e-05
5.22935e-05
5.13483e-05
4.99743e-05
4.7046e-05
4.21046e-05
4.07632e-05
3.92777e-05
3.65326e-05
3.61619e-05
3.66186e-05
3.66202e-05
3.68803e-05
3.52947e-05
3.09037e-05
2.84673e-05
2.75999e-05
2.6923e-05
2.85914e-05
3.06924e-05
3.35121e-05
3.41632e-05
3.12783e-05
6.44899e-05
6.46058e-05
6.47297e-05
6.48612e-05
6.50001e-05
6.51457e-05
6.52968e-05
6.54515e-05
6.56065e-05
6.57565e-05
6.58934e-05
6.60057e-05
6.60777e-05
6.60917e-05
6.60335e-05
6.59111e-05
6.57795e-05
6.57579e-05
6.57419e-05
6.51697e-05
6.48637e-05
6.45151e-05
6.40641e-05
6.42191e-05
6.40928e-05
6.38896e-05
6.34736e-05
6.1762e-05
5.80056e-05
5.43451e-05
5.21823e-05
4.98077e-05
4.7766e-05
4.30649e-05
4.40543e-05
4.35676e-05
4.45866e-05
7.09357e-05
7.10759e-05
7.12262e-05
7.13868e-05
7.15576e-05
7.17386e-05
7.19292e-05
7.21283e-05
7.23338e-05
7.25424e-05
7.2749e-05
7.29467e-05
7.31262e-05
7.32775e-05
7.3392e-05
7.34698e-05
7.3528e-05
7.36175e-05
7.38202e-05
7.41015e-05
7.44183e-05
7.47987e-05
7.53138e-05
7.60532e-05
7.67966e-05
7.74489e-05
7.79268e-05
7.77588e-05
7.64821e-05
7.45627e-05
7.31513e-05
7.12025e-05
7.00096e-05
6.58805e-05
6.43055e-05
6.18032e-05
6.10784e-05
7.37084e-05
7.38606e-05
7.40244e-05
7.42001e-05
7.43879e-05
7.45882e-05
7.48011e-05
7.50263e-05
7.52632e-05
7.55107e-05
7.57674e-05
7.60316e-05
7.63022e-05
7.65798e-05
7.68698e-05
7.71864e-05
7.7554e-05
7.80061e-05
7.85356e-05
7.91791e-05
7.99615e-05
8.08577e-05
8.19039e-05
8.31096e-05
8.44441e-05
8.58622e-05
8.73364e-05
8.8711e-05
8.9741e-05
9.04423e-05
9.12101e-05
9.17059e-05
9.25255e-05
9.18779e-05
9.16455e-05
9.06688e-05
9.00091e-05
7.37067e-05
7.38601e-05
7.40254e-05
7.42033e-05
7.43941e-05
7.45985e-05
7.48168e-05
7.50498e-05
7.52975e-05
7.55602e-05
7.58378e-05
7.61305e-05
7.64387e-05
7.67639e-05
7.71104e-05
7.7486e-05
7.79054e-05
7.83956e-05
7.89761e-05
7.96337e-05
8.03649e-05
8.11919e-05
8.21307e-05
8.32092e-05
8.44542e-05
8.58751e-05
8.74771e-05
8.92223e-05
9.10278e-05
9.28881e-05
9.49149e-05
9.71631e-05
9.96383e-05
0.000102126
0.000104439
0.000106838
0.000108944
7.09338e-05
7.10779e-05
7.12339e-05
7.14022e-05
7.15837e-05
7.1779e-05
7.19894e-05
7.22159e-05
7.24601e-05
7.27235e-05
7.30083e-05
7.33174e-05
7.36544e-05
7.40247e-05
7.44353e-05
7.48951e-05
7.54133e-05
7.59933e-05
7.66379e-05
7.73544e-05
7.81517e-05
7.90443e-05
8.00425e-05
8.11577e-05
8.24065e-05
8.38102e-05
8.53834e-05
8.7139e-05
8.90526e-05
9.11439e-05
9.34529e-05
9.61309e-05
9.90879e-05
0.000102568
0.000105935
0.000109896
0.000113767
6.44893e-05
6.4611e-05
6.47435e-05
6.4887e-05
6.50422e-05
6.52102e-05
6.53921e-05
6.55895e-05
6.58044e-05
6.6039e-05
6.62961e-05
6.65789e-05
6.68912e-05
6.72377e-05
6.76241e-05
6.80563e-05
6.85394e-05
6.90757e-05
6.96639e-05
7.03006e-05
7.09872e-05
7.17353e-05
7.25639e-05
7.34902e-05
7.45345e-05
7.57206e-05
7.70753e-05
7.86104e-05
8.03205e-05
8.22574e-05
8.43933e-05
8.69482e-05
8.96125e-05
9.31176e-05
9.62327e-05
0.000100307
0.000104482
5.27534e-05
5.28374e-05
5.29296e-05
5.303e-05
5.31393e-05
5.32584e-05
5.33885e-05
5.35309e-05
5.36878e-05
5.38614e-05
5.40548e-05
5.4271e-05
5.45138e-05
5.47878e-05
5.50976e-05
5.54477e-05
5.5841e-05
5.62783e-05
5.67574e-05
5.72743e-05
5.78276e-05
5.8424e-05
5.90748e-05
5.9793e-05
6.05948e-05
6.15016e-05
6.25332e-05
6.37154e-05
6.50385e-05
6.65777e-05
6.82059e-05
7.02997e-05
7.21769e-05
7.51029e-05
7.73323e-05
8.01737e-05
8.40181e-05
3.35568e-05
3.35861e-05
3.362e-05
3.36578e-05
3.36993e-05
3.37454e-05
3.37967e-05
3.3854e-05
3.39185e-05
3.39918e-05
3.40759e-05
3.41724e-05
3.42836e-05
3.44117e-05
3.45589e-05
3.47266e-05
3.4915e-05
3.51222e-05
3.5345e-05
3.55796e-05
3.58244e-05
3.60821e-05
3.63601e-05
3.66675e-05
3.70152e-05
3.74167e-05
3.78794e-05
3.84288e-05
3.90334e-05
3.98171e-05
4.05024e-05
4.17763e-05
4.23158e-05
4.4363e-05
4.50439e-05
4.64096e-05
4.8677e-05
7.30247e-06
7.31599e-06
7.33057e-06
7.34631e-06
7.36331e-06
7.38169e-06
7.40156e-06
7.42308e-06
7.44641e-06
7.47177e-06
7.49939e-06
7.52951e-06
7.56242e-06
7.59841e-06
7.6378e-06
7.68088e-06
7.72791e-06
7.77908e-06
7.83452e-06
7.89431e-06
7.95855e-06
8.0275e-06
8.10153e-06
8.18113e-06
8.26695e-06
8.35967e-06
8.46013e-06
8.56903e-06
8.68753e-06
8.81601e-06
8.95546e-06
9.10898e-06
9.26814e-06
9.45814e-06
9.63203e-06
9.86059e-06
1.00633e-05
7.40345e-06
7.41619e-06
7.42984e-06
7.44444e-06
7.46e-06
7.47654e-06
7.49403e-06
7.51245e-06
7.53172e-06
7.55165e-06
7.5719e-06
7.59189e-06
7.61061e-06
7.6265e-06
7.63722e-06
7.64036e-06
7.63685e-06
7.65865e-06
8.49523e-06
1.02014e-05
1.02824e-05
1.03079e-05
1.15432e-05
1.50008e-05
1.75427e-05
1.81394e-05
1.8425e-05
1.84915e-05
1.81606e-05
1.73422e-05
1.61465e-05
1.44552e-05
1.21783e-05
1.13322e-05
1.34561e-05
1.93105e-05
3.81307e-05
3.64422e-05
3.64541e-05
3.64659e-05
3.64766e-05
3.64844e-05
3.64875e-05
3.64835e-05
3.64688e-05
3.64377e-05
3.63808e-05
3.62813e-05
3.611e-05
3.5821e-05
3.53441e-05
3.45524e-05
3.33024e-05
3.15752e-05
2.95715e-05
2.72577e-05
2.4708e-05
2.41692e-05
2.38868e-05
2.2873e-05
2.24402e-05
2.3893e-05
2.69052e-05
3.1141e-05
3.54791e-05
3.68739e-05
3.62538e-05
3.53908e-05
3.38754e-05
3.39438e-05
3.0805e-05
2.78203e-05
2.72435e-05
3.26408e-05
5.90705e-05
5.91414e-05
5.92167e-05
5.92958e-05
5.93777e-05
5.9461e-05
5.95441e-05
5.96241e-05
5.96968e-05
5.97548e-05
5.97866e-05
5.97742e-05
5.96914e-05
5.9502e-05
5.91633e-05
5.86225e-05
5.78365e-05
5.68005e-05
5.52091e-05
5.27656e-05
5.1614e-05
5.06346e-05
4.86905e-05
4.61568e-05
4.34765e-05
4.35197e-05
4.37986e-05
4.39298e-05
4.27203e-05
4.09008e-05
3.99042e-05
3.90874e-05
4.03395e-05
4.3038e-05
4.35225e-05
4.20525e-05
3.76875e-05
7.35268e-05
7.36421e-05
7.37653e-05
7.38962e-05
7.40344e-05
7.4179e-05
7.4329e-05
7.44823e-05
7.46358e-05
7.47842e-05
7.492e-05
7.50322e-05
7.51072e-05
7.51304e-05
7.50928e-05
7.50066e-05
7.49207e-05
7.4961e-05
7.51252e-05
7.50231e-05
7.4822e-05
7.46691e-05
7.45584e-05
7.43609e-05
7.36031e-05
7.34072e-05
7.31931e-05
7.251e-05
7.09775e-05
6.87537e-05
6.7351e-05
6.33914e-05
6.08247e-05
5.74162e-05
5.76321e-05
5.75291e-05
5.76887e-05
8.17322e-05
8.18763e-05
8.2031e-05
8.21963e-05
8.23722e-05
8.25587e-05
8.27552e-05
8.29606e-05
8.31732e-05
8.33898e-05
8.36059e-05
8.38157e-05
8.4012e-05
8.41884e-05
8.43419e-05
8.44802e-05
8.46268e-05
8.48307e-05
8.51291e-05
8.55151e-05
8.59394e-05
8.64212e-05
8.70269e-05
8.7795e-05
8.85779e-05
8.93651e-05
9.00922e-05
9.04341e-05
9.01797e-05
8.94805e-05
8.91057e-05
8.76773e-05
8.67948e-05
8.43175e-05
8.33483e-05
8.2049e-05
8.12972e-05
8.53449e-05
8.55037e-05
8.56747e-05
8.58582e-05
8.60546e-05
8.62642e-05
8.64874e-05
8.67239e-05
8.69734e-05
8.72351e-05
8.75082e-05
8.77917e-05
8.80857e-05
8.83931e-05
8.87218e-05
8.90888e-05
8.95201e-05
9.00452e-05
9.06723e-05
9.13455e-05
9.21273e-05
9.30194e-05
9.40616e-05
9.5278e-05
9.66569e-05
9.81969e-05
9.987e-05
0.000101536
0.000102983
0.000104201
0.000105536
0.000106757
0.000108254
0.00010909
0.000109908
0.000110487
0.000110657
8.5344e-05
8.55041e-05
8.56768e-05
8.58629e-05
8.60627e-05
8.6277e-05
8.65065e-05
8.67519e-05
8.70137e-05