/*--------------------------------*- C++ -*----------------------------------*\
| =========                 |                                                 |
| \\      /  F ield         | OpenFOAM: The Open Source CFD Toolbox           |
|  \\    /   O peration     | Version:  2.3.1                                 |
|   \\  /    A nd           | Web:      www.OpenFOAM.org                      |
|    \\/     M anipulation  |                                                 |
\*---------------------------------------------------------------------------*/
FoamFile
{
    version     2.0;
    format      ascii;
    class       volScalarField;
    location    "15";
    object      p;
}
// * * * * * * * * * * * * * * * * * * * * * * * * * * * * * * * * * * * * * //

dimensions      [0 2 -2 0 0 0 0];

internalField   nonuniform List<scalar> 
37530
(
0.808035
0.808036
0.808037
0.808038
0.808039
0.808041
0.808043
0.808046
0.80805
0.808056
0.808064
0.808077
0.808097
0.808131
0.808194
0.808302
0.808475
0.808374
0.807878
0.807687
0.808065
0.808246
0.808439
0.808978
0.809882
0.810699
0.809169
0.806271
0.80536
0.805471
0.805653
0.806602
0.807566
0.807814
0.807688
0.807414
0.807125
0.808035
0.808036
0.808037
0.808038
0.808039
0.808041
0.808043
0.808046
0.80805
0.808055
0.808062
0.808072
0.808086
0.808107
0.808136
0.808174
0.808198
0.808009
0.807507
0.807647
0.808158
0.808216
0.80827
0.808579
0.808964
0.80923
0.808003
0.805589
0.805236
0.805895
0.806085
0.806871
0.807613
0.80767
0.807545
0.807552
0.808032
0.808035
0.808036
0.808037
0.808038
0.808039
0.808041
0.808043
0.808045
0.808049
0.808053
0.80806
0.808068
0.808081
0.808098
0.808121
0.808147
0.808167
0.80814
0.808033
0.808015
0.808093
0.808163
0.808258
0.808414
0.808571
0.808642
0.808198
0.807275
0.806809
0.806747
0.80679
0.806995
0.80724
0.807421
0.807505
0.8075
0.807377
0.808035
0.808036
0.808037
0.808038
0.808039
0.80804
0.808042
0.808044
0.808047
0.808051
0.808055
0.808061
0.808068
0.808075
0.808082
0.808085
0.808073
0.808035
0.807941
0.807926
0.80803
0.808084
0.808119
0.808179
0.808223
0.808178
0.807886
0.807288
0.806916
0.80696
0.807076
0.807213
0.80727
0.807215
0.807148
0.807132
0.807126
0.808035
0.808036
0.808036
0.808037
0.808039
0.80804
0.808041
0.808043
0.808046
0.808049
0.808052
0.808057
0.808062
0.808068
0.808075
0.80808
0.80808
0.808071
0.808052
0.808044
0.808058
0.808078
0.808098
0.808114
0.808107
0.808045
0.80789
0.80765
0.807456
0.807372
0.807359
0.807406
0.807481
0.807481
0.807382
0.807271
0.807157
0.808035
0.808036
0.808036
0.808037
0.808038
0.808039
0.808041
0.808042
0.808044
0.808046
0.808048
0.808051
0.808053
0.808054
0.808054
0.808051
0.808042
0.808026
0.808004
0.807991
0.808002
0.808012
0.808013
0.808006
0.807979
0.807914
0.807794
0.807627
0.807469
0.807393
0.807371
0.807375
0.807381
0.807367
0.807319
0.807236
0.807115
0.808035
0.808035
0.808036
0.808037
0.808038
0.808039
0.80804
0.808041
0.808042
0.808044
0.808045
0.808047
0.808049
0.80805
0.80805
0.808049
0.808046
0.80804
0.808032
0.808025
0.80802
0.808015
0.808006
0.807987
0.807953
0.807897
0.807815
0.807718
0.807627
0.80756
0.807517
0.807491
0.807471
0.807439
0.807384
0.807306
0.807196
0.808035
0.808035
0.808036
0.808036
0.808037
0.808038
0.808039
0.80804
0.808041
0.808042
0.808042
0.808043
0.808043
0.808042
0.808039
0.808035
0.808028
0.808018
0.808007
0.807996
0.807987
0.807978
0.807963
0.80794
0.807905
0.807855
0.807788
0.807709
0.80763
0.807564
0.807513
0.807472
0.807431
0.807382
0.807318
0.80724
0.807135
0.808034
0.808035
0.808035
0.808036
0.808037
0.808037
0.808038
0.808039
0.808039
0.80804
0.80804
0.80804
0.80804
0.808039
0.808037
0.808034
0.808029
0.808022
0.808014
0.808004
0.807993
0.807979
0.80796
0.807934
0.807899
0.807854
0.8078
0.807739
0.807678
0.807622
0.807572
0.807524
0.807477
0.807422
0.807356
0.807275
0.807173
0.808034
0.808035
0.808035
0.808036
0.808036
0.808037
0.808037
0.808038
0.808038
0.808039
0.808038
0.808038
0.808037
0.808035
0.808032
0.808027
0.80802
0.808012
0.808002
0.807991
0.807977
0.807961
0.807941
0.807915
0.807882
0.807841
0.807793
0.807739
0.807683
0.807628
0.807575
0.807521
0.807467
0.807404
0.807332
0.807249
0.807141
0.808034
0.808034
0.808035
0.808035
0.808036
0.808036
0.808037
0.808037
0.808038
0.808038
0.808037
0.808037
0.808035
0.808033
0.80803
0.808026
0.80802
0.808012
0.808003
0.807992
0.807978
0.80796
0.807939
0.807912
0.807879
0.80784
0.807795
0.807746
0.807695
0.807642
0.807591
0.807535
0.807481
0.807415
0.807344
0.807262
0.807156
0.808034
0.808034
0.808035
0.808035
0.808036
0.808036
0.808037
0.808037
0.808037
0.808037
0.808037
0.808036
0.808034
0.808032
0.808028
0.808024
0.808017
0.80801
0.808
0.807988
0.807973
0.807956
0.807934
0.807907
0.807875
0.807838
0.807795
0.807748
0.807698
0.807646
0.807595
0.807538
0.807482
0.807415
0.807341
0.807255
0.80715
0.697672
0.697673
0.697674
0.697675
0.697677
0.697678
0.697681
0.697684
0.697688
0.697693
0.697701
0.697714
0.697733
0.697765
0.697825
0.697924
0.698096
0.698007
0.697522
0.697293
0.697665
0.69786
0.698052
0.698511
0.699172
0.699678
0.698413
0.696078
0.695077
0.694778
0.694984
0.695972
0.697054
0.697553
0.697407
0.696985
0.696705
0.697672
0.697673
0.697674
0.697675
0.697677
0.697678
0.69768
0.697683
0.697687
0.697692
0.697699
0.697709
0.697723
0.697743
0.697771
0.697807
0.697833
0.697682
0.697189
0.697249
0.697731
0.697825
0.697898
0.698166
0.698441
0.698652
0.697779
0.695857
0.694942
0.695238
0.695711
0.69632
0.696847
0.696979
0.696882
0.696902
0.697226
0.697672
0.697673
0.697674
0.697675
0.697676
0.697678
0.69768
0.697683
0.697686
0.69769
0.697697
0.697705
0.697717
0.697734
0.697756
0.697782
0.697801
0.697777
0.697667
0.697635
0.697713
0.697791
0.697885
0.698024
0.698154
0.698181
0.697802
0.696969
0.696465
0.69635
0.696349
0.696494
0.696758
0.696992
0.697096
0.697092
0.696987
0.697672
0.697673
0.697674
0.697675
0.697676
0.697678
0.697679
0.697682
0.697684
0.697688
0.697692
0.697698
0.697704
0.697712
0.697718
0.697721
0.69771
0.697675
0.697585
0.697562
0.697658
0.697712
0.697748
0.697802
0.697835
0.69778
0.697516
0.697
0.696619
0.696582
0.696689
0.696818
0.696864
0.696818
0.696768
0.696748
0.696731
0.697672
0.697673
0.697674
0.697675
0.697676
0.697677
0.697679
0.697681
0.697683
0.697686
0.697689
0.697694
0.697699
0.697705
0.697711
0.697716
0.697717
0.697708
0.697689
0.69768
0.697693
0.697713
0.697732
0.697746
0.697737
0.697673
0.697523
0.697297
0.697106
0.697016
0.696995
0.697027
0.697083
0.697085
0.696997
0.696888
0.696779
0.697672
0.697673
0.697674
0.697674
0.697675
0.697676
0.697678
0.697679
0.697681
0.697683
0.697685
0.697688
0.69769
0.697691
0.697691
0.697688
0.697679
0.697663
0.697642
0.697628
0.697637
0.697647
0.697648
0.697639
0.697612
0.697546
0.69743
0.697269
0.697115
0.697035
0.697008
0.697009
0.697008
0.696988
0.696937
0.69686
0.696751
0.697672
0.697673
0.697673
0.697674
0.697675
0.697676
0.697677
0.697678
0.697679
0.697681
0.697682
0.697684
0.697686
0.697687
0.697687
0.697686
0.697683
0.697677
0.697669
0.697662
0.697657
0.697652
0.697642
0.697623
0.697589
0.697533
0.697452
0.697357
0.697267
0.6972
0.697156
0.697128
0.697106
0.697074
0.697019
0.696941
0.696834
0.697672
0.697672
0.697673
0.697674
0.697674
0.697675
0.697676
0.697677
0.697678
0.697679
0.69768
0.69768
0.69768
0.697679
0.697676
0.697672
0.697665
0.697655
0.697644
0.697633
0.697624
0.697614
0.697599
0.697576
0.697541
0.697491
0.697425
0.697347
0.697268
0.697202
0.697152
0.697109
0.697067
0.697018
0.696953
0.696874
0.696771
0.697672
0.697672
0.697673
0.697673
0.697674
0.697675
0.697675
0.697676
0.697677
0.697677
0.697677
0.697677
0.697677
0.697676
0.697674
0.69767
0.697666
0.697659
0.697651
0.697641
0.69763
0.697615
0.697596
0.69757
0.697536
0.697491
0.697437
0.697376
0.697316
0.69726
0.697209
0.697161
0.697114
0.697058
0.696993
0.696912
0.696809
0.697671
0.697672
0.697672
0.697673
0.697674
0.697674
0.697675
0.697675
0.697676
0.697676
0.697676
0.697675
0.697674
0.697672
0.697669
0.697664
0.697657
0.697649
0.697639
0.697628
0.697614
0.697598
0.697578
0.697552
0.697519
0.697478
0.69743
0.697376
0.697321
0.697265
0.697213
0.697159
0.697104
0.697041
0.696968
0.696886
0.696778
0.697671
0.697672
0.697672
0.697673
0.697673
0.697674
0.697674
0.697675
0.697675
0.697675
0.697674
0.697674
0.697672
0.69767
0.697667
0.697663
0.697657
0.697649
0.69764
0.697629
0.697615
0.697597
0.697576
0.697549
0.697516
0.697477
0.697433
0.697384
0.697332
0.69728
0.697228
0.697173
0.697118
0.697052
0.696981
0.696898
0.69679
0.697671
0.697672
0.697672
0.697673
0.697673
0.697674
0.697674
0.697674
0.697674
0.697674
0.697674
0.697673
0.697671
0.697669
0.697666
0.697661
0.697655
0.697647
0.697637
0.697625
0.697611
0.697593
0.697571
0.697545
0.697513
0.697476
0.697433
0.697386
0.697336
0.697285
0.697233
0.697176
0.69712
0.697051
0.696978
0.696892
0.696789
0.58731
0.58731
0.587311
0.587313
0.587314
0.587316
0.587318
0.587321
0.587325
0.58733
0.587338
0.587349
0.587368
0.587397
0.587449
0.587531
0.58769
0.587633
0.587112
0.586833
0.587266
0.58752
0.58766
0.588015
0.58847
0.588742
0.587788
0.585881
0.584907
0.584793
0.584866
0.585519
0.586383
0.586886
0.587034
0.586815
0.586428
0.58731
0.58731
0.587311
0.587312
0.587314
0.587315
0.587318
0.58732
0.587324
0.587329
0.587336
0.587345
0.587358
0.587377
0.587402
0.587435
0.587456
0.587375
0.586896
0.586871
0.587314
0.587449
0.587503
0.587713
0.587931
0.588023
0.587386
0.585947
0.585255
0.585363
0.585574
0.586036
0.586503
0.586589
0.586325
0.586271
0.586557
0.58731
0.58731
0.587311
0.587312
0.587314
0.587315
0.587317
0.58732
0.587323
0.587327
0.587333
0.587341
0.587353
0.587368
0.587389
0.587412
0.587429
0.587411
0.587304
0.587258
0.587338
0.587429
0.58751
0.587625
0.58772
0.587708
0.587382
0.586692
0.586234
0.586106
0.586115
0.586255
0.586463
0.586655
0.586736
0.586729
0.586631
0.58731
0.58731
0.587311
0.587312
0.587313
0.587315
0.587316
0.587319
0.587321
0.587325
0.587329
0.587334
0.587341
0.587348
0.587354
0.587356
0.587346
0.587316
0.587235
0.587202
0.587286
0.587341
0.587372
0.587414
0.587435
0.58737
0.587133
0.586702
0.586363
0.586304
0.586365
0.586473
0.586548
0.58653
0.586458
0.586411
0.586375
0.58731
0.58731
0.587311
0.587312
0.587313
0.587314
0.587316
0.587318
0.58732
0.587323
0.587326
0.58733
0.587335
0.587341
0.587347
0.587352
0.587351
0.587343
0.587325
0.587315
0.587327
0.587347
0.587364
0.587374
0.58736
0.587294
0.587151
0.586945
0.586763
0.586672
0.586647
0.586671
0.586715
0.586729
0.586674
0.586584
0.586469
0.587309
0.58731
0.587311
0.587312
0.587313
0.587314
0.587315
0.587316
0.587318
0.58732
0.587322
0.587324
0.587326
0.587328
0.587327
0.587324
0.587316
0.587301
0.587281
0.587266
0.587273
0.587282
0.587281
0.58727
0.587241
0.587177
0.587065
0.586915
0.586769
0.586688
0.586657
0.586653
0.586648
0.586624
0.586569
0.586496
0.586391
0.587309
0.58731
0.58731
0.587311
0.587312
0.587313
0.587314
0.587315
0.587316
0.587318
0.587319
0.587321
0.587322
0.587323
0.587324
0.587322
0.587319
0.587313
0.587305
0.587298
0.587293
0.587287
0.587276
0.587257
0.587223
0.587167
0.587089
0.586997
0.586908
0.586842
0.586797
0.586767
0.586743
0.586709
0.586654
0.586578
0.586473
0.587309
0.58731
0.58731
0.587311
0.587312
0.587312
0.587313
0.587314
0.587315
0.587316
0.587316
0.587317
0.587317
0.587316
0.587313
0.587309
0.587302
0.587293
0.587281
0.58727
0.587261
0.58725
0.587235
0.587211
0.587177
0.587127
0.587062
0.586986
0.586909
0.586844
0.586793
0.586749
0.586706
0.586656
0.58659
0.586511
0.586408
0.587309
0.587309
0.58731
0.587311
0.587311
0.587312
0.587312
0.587313
0.587314
0.587314
0.587314
0.587314
0.587314
0.587313
0.587311
0.587307
0.587302
0.587296
0.587287
0.587278
0.587266
0.587251
0.587232
0.587206
0.587172
0.587128
0.587074
0.587014
0.586954
0.586898
0.586848
0.586799
0.586752
0.586695
0.58663
0.586549
0.586447
0.587309
0.587309
0.58731
0.58731
0.587311
0.587311
0.587312
0.587312
0.587313
0.587313
0.587313
0.587312
0.587311
0.587309
0.587306
0.587301
0.587294
0.587286
0.587276
0.587265
0.587251
0.587235
0.587215
0.587189
0.587156
0.587115
0.587068
0.587015
0.586959
0.586904
0.586851
0.586797
0.586743
0.586679
0.586607
0.586524
0.586417
0.587309
0.587309
0.58731
0.58731
0.587311
0.587311
0.587311
0.587312
0.587312
0.587312
0.587312
0.587311
0.58731
0.587307
0.587304
0.5873
0.587294
0.587286
0.587277
0.587266
0.587252
0.587234
0.587213
0.587186
0.587153
0.587115
0.58707
0.587022
0.586971
0.586918
0.586867
0.586811
0.586757
0.58669
0.58662
0.586536
0.586431
0.587309
0.587309
0.58731
0.58731
0.58731
0.587311
0.587311
0.587312
0.587312
0.587312
0.587311
0.58731
0.587309
0.587306
0.587303
0.587298
0.587292
0.587284
0.587274
0.587263
0.587248
0.587231
0.587209
0.587183
0.587151
0.587114
0.587071
0.587025
0.586975
0.586924
0.586872
0.586815
0.586759
0.58669
0.586617
0.586532
0.58643
0.476947
0.476948
0.476949
0.47695
0.476951
0.476953
0.476955
0.476958
0.476962
0.476967
0.476974
0.476985
0.477001
0.477027
0.477068
0.477131
0.477226
0.477202
0.476723
0.476442
0.476775
0.477074
0.477261
0.477519
0.477797
0.477902
0.477225
0.475811
0.47504
0.474739
0.474512
0.475172
0.476276
0.477133
0.476797
0.476189
0.475949
0.476947
0.476948
0.476949
0.47695
0.476951
0.476953
0.476955
0.476957
0.476961
0.476966
0.476972
0.476981
0.476993
0.477009
0.477031
0.477058
0.47707
0.477035
0.476727
0.476607
0.476893
0.477026
0.47709
0.477265
0.477403
0.477394
0.476934
0.475909
0.475301
0.475248
0.475387
0.475752
0.476239
0.476579
0.476157
0.475591
0.475671
0.476947
0.476948
0.476949
0.47695
0.476951
0.476952
0.476954
0.476957
0.47696
0.476964
0.47697
0.476977
0.476988
0.477002
0.47702
0.477039
0.477051
0.477037
0.476946
0.476894
0.476962
0.477048
0.477126
0.477217
0.477277
0.477231
0.476952
0.476409
0.476003
0.475837
0.475798
0.475905
0.476134
0.476354
0.476403
0.476342
0.476243
0.476947
0.476948
0.476948
0.476949
0.47695
0.476952
0.476954
0.476956
0.476958
0.476962
0.476966
0.476971
0.476977
0.476983
0.476988
0.47699
0.476981
0.476955
0.476893
0.476856
0.47692
0.476967
0.476993
0.477025
0.477031
0.476956
0.476745
0.476392
0.476093
0.475995
0.476026
0.476112
0.476188
0.476204
0.476142
0.476062
0.475988
0.476947
0.476947
0.476948
0.476949
0.47695
0.476951
0.476953
0.476955
0.476957
0.476959
0.476963
0.476967
0.476971
0.476977
0.476982
0.476986
0.476985
0.476977
0.476961
0.47695
0.47696
0.476977
0.476991
0.476997
0.476978
0.476911
0.476778
0.476593
0.476424
0.476331
0.476296
0.476304
0.476336
0.476354
0.476309
0.476227
0.476117
0.476947
0.476947
0.476948
0.476949
0.47695
0.476951
0.476952
0.476953
0.476955
0.476957
0.476959
0.476961
0.476963
0.476964
0.476964
0.47696
0.476952
0.476939
0.47692
0.476906
0.47691
0.476916
0.476914
0.476901
0.47687
0.476806
0.4767
0.476562
0.476427
0.476345
0.476308
0.476297
0.476286
0.476259
0.476202
0.476128
0.476027
0.476946
0.476947
0.476948
0.476948
0.476949
0.47695
0.476951
0.476952
0.476953
0.476955
0.476956
0.476958
0.476959
0.47696
0.47696
0.476958
0.476955
0.476949
0.476941
0.476933
0.476928
0.476921
0.47691
0.47689
0.476855
0.476801
0.476725
0.476637
0.476552
0.476486
0.476439
0.476407
0.476379
0.476344
0.476289
0.476213
0.476111
0.476946
0.476947
0.476947
0.476948
0.476949
0.476949
0.47695
0.476951
0.476952
0.476953
0.476953
0.476954
0.476953
0.476952
0.47695
0.476946
0.476939
0.47693
0.476919
0.476907
0.476898
0.476887
0.476871
0.476847
0.476812
0.476764
0.476701
0.476627
0.476553
0.476488
0.476436
0.476392
0.476348
0.476296
0.47623
0.476151
0.476049
0.476946
0.476947
0.476947
0.476948
0.476948
0.476949
0.47695
0.47695
0.476951
0.476951
0.476951
0.476951
0.476951
0.476949
0.476947
0.476944
0.476939
0.476932
0.476924
0.476914
0.476902
0.476887
0.476868
0.476842
0.476808
0.476764
0.476712
0.476653
0.476594
0.476538
0.476488
0.476439
0.47639
0.476334
0.476268
0.476187
0.476086
0.476946
0.476947
0.476947
0.476948
0.476948
0.476949
0.476949
0.476949
0.47695
0.47695
0.47695
0.476949
0.476948
0.476946
0.476943
0.476938
0.476932
0.476923
0.476913
0.476902
0.476888
0.476872
0.476852
0.476826
0.476793
0.476753
0.476706
0.476654
0.476599
0.476545
0.476492
0.476438
0.476383
0.476319
0.476248
0.476164
0.47606
0.476946
0.476946
0.476947
0.476947
0.476948
0.476948
0.476949
0.476949
0.476949
0.476949
0.476949
0.476948
0.476947
0.476944
0.476941
0.476937
0.476931
0.476923
0.476914
0.476903
0.476889
0.476871
0.47685
0.476823
0.476791
0.476753
0.476709
0.476661
0.47661
0.476558
0.476506
0.476451
0.476396
0.47633
0.47626
0.476176
0.476073
0.476946
0.476946
0.476947
0.476947
0.476948
0.476948
0.476949
0.476949
0.476949
0.476949
0.476948
0.476947
0.476946
0.476944
0.47694
0.476935
0.476929
0.476921
0.476912
0.4769
0.476886
0.476868
0.476847
0.47682
0.476789
0.476752
0.47671
0.476664
0.476615
0.476564
0.476512
0.476456
0.476399
0.476331
0.476259
0.476173
0.476072
0.366584
0.366585
0.366586
0.366587
0.366588
0.36659
0.366592
0.366595
0.366598
0.366603
0.36661
0.36662
0.366634
0.366655
0.366688
0.366734
0.366788
0.366776
0.36641
0.366138
0.36646
0.366764
0.36683
0.367001
0.367188
0.367191
0.366716
0.365707
0.365107
0.364886
0.364968
0.36522
0.365849
0.366228
0.366551
0.366611
0.365868
0.366584
0.366585
0.366586
0.366587
0.366588
0.36659
0.366592
0.366594
0.366598
0.366602
0.366608
0.366616
0.366627
0.366641
0.366659
0.36668
0.366686
0.366663
0.366467
0.366362
0.366573
0.3667
0.366694
0.366758
0.36686
0.366852
0.36649
0.365766
0.365307
0.365209
0.365292
0.365537
0.365882
0.366054
0.365966
0.36582
0.365193
0.366584
0.366585
0.366586
0.366587
0.366588
0.36659
0.366591
0.366594
0.366597
0.366601
0.366606
0.366613
0.366622
0.366635
0.36665
0.366665
0.366673
0.36666
0.366589
0.36654
0.366599
0.366684
0.36674
0.366801
0.366837
0.366772
0.366533
0.36611
0.365769
0.365621
0.365605
0.365709
0.365866
0.366006
0.366038
0.366035
0.365874
0.366584
0.366585
0.366586
0.366587
0.366588
0.366589
0.366591
0.366593
0.366595
0.366598
0.366602
0.366607
0.366612
0.366618
0.366623
0.366624
0.366615
0.366593
0.366545
0.366512
0.36656
0.366602
0.366619
0.366632
0.366624
0.36655
0.366363
0.366075
0.36582
0.365727
0.36573
0.365798
0.365862
0.365879
0.36582
0.365756
0.365649
0.366584
0.366585
0.366585
0.366586
0.366587
0.366588
0.36659
0.366592
0.366594
0.366596
0.366599
0.366603
0.366607
0.366612
0.366616
0.366619
0.366618
0.366611
0.366596
0.366584
0.366592
0.366608
0.366618
0.366617
0.366595
0.366528
0.366405
0.366241
0.366089
0.365999
0.365961
0.365966
0.365986
0.365998
0.365961
0.365892
0.365783
0.366584
0.366585
0.366585
0.366586
0.366587
0.366588
0.366589
0.36659
0.366592
0.366594
0.366596
0.366597
0.366599
0.3666
0.3666
0.366596
0.366589
0.366576
0.36656
0.366546
0.366547
0.366551
0.366547
0.366531
0.366499
0.366436
0.366337
0.366212
0.366088
0.366008
0.365967
0.36595
0.365935
0.365906
0.365848
0.365775
0.365675
0.366584
0.366584
0.366585
0.366586
0.366586
0.366587
0.366588
0.366589
0.36659
0.366592
0.366593
0.366594
0.366595
0.366596
0.366596
0.366594
0.36659
0.366585
0.366577
0.366568
0.366562
0.366555
0.366543
0.366522
0.366488
0.366434
0.366362
0.366278
0.366197
0.366132
0.366085
0.36605
0.36602
0.365983
0.365928
0.365853
0.365753
0.366584
0.366584
0.366585
0.366585
0.366586
0.366587
0.366587
0.366588
0.366589
0.36659
0.36659
0.36659
0.36659
0.366589
0.366587
0.366582
0.366576
0.366567
0.366556
0.366545
0.366535
0.366523
0.366507
0.366483
0.366448
0.366401
0.36634
0.36627
0.366198
0.366135
0.366083
0.366037
0.365992
0.365939
0.365873
0.365794
0.365694
0.366584
0.366584
0.366584
0.366585
0.366586
0.366586
0.366587
0.366587
0.366588
0.366588
0.366588
0.366588
0.366588
0.366586
0.366584
0.36658
0.366575
0.366569
0.36656
0.36655
0.366538
0.366523
0.366504
0.366478
0.366444
0.366401
0.36635
0.366293
0.366235
0.36618
0.366129
0.36608
0.366031
0.365974
0.365907
0.365827
0.365728
0.366583
0.366584
0.366584
0.366585
0.366585
0.366586
0.366586
0.366587
0.366587
0.366587
0.366587
0.366586
0.366585
0.366583
0.366579
0.366575
0.366569
0.366561
0.366551
0.366539
0.366526
0.36651
0.366489
0.366463
0.366431
0.366392
0.366345
0.366294
0.366241
0.366187
0.366134
0.36608
0.366025
0.365961
0.36589
0.365807
0.365705
0.366583
0.366584
0.366584
0.366585
0.366585
0.366586
0.366586
0.366586
0.366586
0.366586
0.366586
0.366585
0.366584
0.366581
0.366578
0.366574
0.366568
0.366561
0.366551
0.36654
0.366526
0.366508
0.366487
0.366461
0.366429
0.366391
0.366348
0.3663
0.36625
0.366199
0.366147
0.366092
0.366037
0.365971
0.365902
0.365818
0.365717
0.366583
0.366584
0.366584
0.366585
0.366585
0.366586
0.366586
0.366586
0.366586
0.366586
0.366586
0.366585
0.366583
0.366581
0.366577
0.366573
0.366566
0.366559
0.366549
0.366537
0.366523
0.366506
0.366484
0.366458
0.366427
0.366391
0.366349
0.366304
0.366255
0.366204
0.366153
0.366097
0.36604
0.365972
0.365901
0.365816
0.365715
0.256222
0.256223
0.256223
0.256224
0.256226
0.256227
0.256229
0.256232
0.256235
0.256239
0.256246
0.256254
0.256266
0.256284
0.256309
0.256342
0.25637
0.25636
0.256143
0.255964
0.256128
0.25633
0.256501
0.256625
0.256662
0.256591
0.256246
0.255523
0.25505
0.254834
0.254724
0.255012
0.255517
0.255929
0.256034
0.255988
0.255688
0.256222
0.256222
0.256223
0.256224
0.256226
0.256227
0.256229
0.256231
0.256234
0.256239
0.256244
0.256251
0.256261
0.256273
0.256287
0.256302
0.256304
0.256284
0.256168
0.256087
0.256206
0.256299
0.25637
0.256437
0.256384
0.256267
0.256029
0.255519
0.255148
0.255041
0.255082
0.255267
0.255539
0.255725
0.255657
0.255592
0.255182
0.256222
0.256222
0.256223
0.256224
0.256225
0.256227
0.256228
0.256231
0.256233
0.256237
0.256242
0.256248
0.256256
0.256267
0.256279
0.256291
0.256295
0.256283
0.256232
0.256191
0.256232
0.256293
0.256348
0.256403
0.256407
0.256329
0.256126
0.255796
0.255512
0.25537
0.255328
0.255394
0.255532
0.255663
0.255683
0.255657
0.255507
0.256222
0.256222
0.256223
0.256224
0.256225
0.256226
0.256228
0.25623
0.256232
0.256235
0.256238
0.256243
0.256247
0.256252
0.256256
0.256257
0.256249
0.25623
0.256195
0.256168
0.256199
0.256232
0.256248
0.256255
0.256231
0.256145
0.255984
0.25575
0.255533
0.255437
0.255423
0.255469
0.25552
0.25554
0.255485
0.255425
0.255315
0.256221
0.256222
0.256223
0.256224
0.256224
0.256226
0.256227
0.256229
0.25623
0.256233
0.256236
0.256239
0.256243
0.256247
0.25625
0.256252
0.256251
0.256244
0.256231
0.25622
0.256225
0.256236
0.256242
0.256238
0.256211
0.256145
0.256034
0.25589
0.255753
0.255667
0.255625
0.255619
0.255629
0.255636
0.2556
0.255535
0.25543
0.256221
0.256222
0.256222
0.256223
0.256224
0.256225
0.256226
0.256227
0.256229
0.25623
0.256232
0.256234
0.256235
0.256236
0.256236
0.256232
0.256225
0.256214
0.256199
0.256186
0.256185
0.256186
0.25618
0.256163
0.256128
0.256067
0.255976
0.255863
0.255751
0.255673
0.255629
0.255607
0.255586
0.255555
0.255497
0.255425
0.255327
0.256221
0.256222
0.256222
0.256223
0.256224
0.256224
0.256225
0.256226
0.256227
0.256228
0.25623
0.256231
0.256232
0.256232
0.256231
0.25623
0.256226
0.25622
0.256212
0.256204
0.256197
0.256189
0.256176
0.256154
0.25612
0.256068
0.255999
0.25592
0.255843
0.25578
0.255732
0.255696
0.255662
0.255624
0.255568
0.255495
0.255397
0.256221
0.256221
0.256222
0.256223
0.256223
0.256224
0.256225
0.256225
0.256226
0.256227
0.256227
0.256227
0.256227
0.256226
0.256223
0.256219
0.256213
0.256204
0.256194
0.256183
0.256172
0.25616
0.256143
0.256119
0.256085
0.256039
0.25598
0.255913
0.255845
0.255783
0.255731
0.255685
0.255639
0.255585
0.255519
0.255441
0.255343
0.256221
0.256221
0.256222
0.256222
0.256223
0.256223
0.256224
0.256224
0.256225
0.256225
0.256225
0.256225
0.256224
0.256223
0.25622
0.256217
0.256212
0.256205
0.256197
0.256186
0.256174
0.256159
0.25614
0.256114
0.256081
0.256039
0.255989
0.255933
0.255877
0.255822
0.255772
0.255722
0.255673
0.255615
0.255549
0.25547
0.255372
0.256221
0.256221
0.256222
0.256222
0.256223
0.256223
0.256223
0.256224
0.256224
0.256224
0.256224
0.256223
0.256222
0.25622
0.256216
0.256212
0.256206
0.256198
0.256188
0.256177
0.256163
0.256147
0.256127
0.256101
0.256069
0.25603
0.255985
0.255935
0.255883
0.25583
0.255778
0.255724
0.255669
0.255605
0.255534
0.255451
0.255351
0.256221
0.256221
0.256222
0.256222
0.256222
0.256223
0.256223
0.256223
0.256224
0.256223
0.256223
0.256222
0.256221
0.256218
0.256215
0.256211
0.256205
0.256197
0.256188
0.256177
0.256163
0.256146
0.256124
0.256098
0.256067
0.25603
0.255987
0.255941
0.255891
0.25584
0.255789
0.255734
0.255679
0.255614
0.255544
0.255461
0.25536
0.256221
0.256221
0.256222
0.256222
0.256222
0.256223
0.256223
0.256223
0.256223
0.256223
0.256223
0.256222
0.25622
0.256218
0.256214
0.25621
0.256204
0.256196
0.256186
0.256175
0.25616
0.256143
0.256122
0.256096
0.256066
0.25603
0.255989
0.255944
0.255896
0.255846
0.255795
0.255739
0.255683
0.255615
0.255544
0.255459
0.255359
0.145859
0.14586
0.145861
0.145862
0.145863
0.145864
0.145866
0.145868
0.145872
0.145876
0.145881
0.145889
0.145899
0.145913
0.145932
0.145954
0.145968
0.145957
0.145831
0.145703
0.145812
0.145968
0.146051
0.146154
0.146231
0.146135
0.145816
0.145279
0.144898
0.144722
0.144726
0.144874
0.145222
0.145396
0.145417
0.145609
0.145399
0.145859
0.14586
0.145861
0.145862
0.145863
0.145864
0.145866
0.145868
0.145871
0.145875
0.14588
0.145886
0.145894
0.145904
0.145915
0.145926
0.145925
0.145907
0.145834
0.145772
0.14585
0.145934
0.145971
0.146014
0.146029
0.145922
0.145655
0.145259
0.144963
0.144859
0.144889
0.145021
0.145213
0.145331
0.145229
0.145317
0.14519
0.145859
0.14586
0.14586
0.145861
0.145862
0.145864
0.145865
0.145867
0.14587
0.145873
0.145878
0.145883
0.14589
0.145899
0.145909
0.145918
0.145919
0.145908
0.145872
0.145839
0.145867
0.14592
0.145957
0.145985
0.145984
0.14591
0.145733
0.145471
0.145237
0.145112
0.145082
0.145136
0.145232
0.145316
0.145311
0.145299
0.145179
0.145859
0.145859
0.14586
0.145861
0.145862
0.145863
0.145865
0.145866
0.145869
0.145871
0.145875
0.145878
0.145883
0.145887
0.14589
0.14589
0.145883
0.145867
0.145841
0.145818
0.145838
0.145864
0.145874
0.145873
0.145846
0.145768
0.145623
0.145426
0.145243
0.14515
0.145128
0.145155
0.145189
0.145199
0.14514
0.145093
0.144999
0.145859
0.145859
0.14586
0.145861
0.145862
0.145863
0.145864
0.145865
0.145867
0.145869
0.145872
0.145875
0.145878
0.145881
0.145884
0.145885
0.145883
0.145876
0.145865
0.145855
0.145857
0.145865
0.145867
0.145858
0.145829
0.145766
0.145665
0.145539
0.145418
0.145336
0.145293
0.145282
0.145283
0.145282
0.145244
0.145185
0.145086
0.145859
0.145859
0.14586
0.14586
0.145861
0.145862
0.145863
0.145864
0.145866
0.145867
0.145869
0.14587
0.145872
0.145872
0.145871
0.145868
0.145861
0.145851
0.145838
0.145826
0.145823
0.145821
0.145813
0.145794
0.145759
0.145701
0.145617
0.145515
0.145414
0.14534
0.145294
0.145267
0.145241
0.145207
0.145149
0.145079
0.144985
0.145858
0.145859
0.145859
0.14586
0.145861
0.145862
0.145862
0.145863
0.145864
0.145865
0.145866
0.145867
0.145868
0.145868
0.145867
0.145865
0.145861
0.145855
0.145847
0.145839
0.145831
0.145822
0.145809
0.145786
0.145752
0.145702
0.145637
0.145564
0.145491
0.145429
0.145381
0.145343
0.145308
0.145267
0.145211
0.145139
0.145045
0.145858
0.145859
0.145859
0.14586
0.14586
0.145861
0.145862
0.145862
0.145863
0.145864
0.145864
0.145864
0.145863
0.145862
0.14586
0.145855
0.145849
0.145841
0.145831
0.14582
0.145809
0.145797
0.14578
0.145755
0.145722
0.145677
0.145621
0.145558
0.145493
0.145433
0.145382
0.145335
0.145287
0.145233
0.145168
0.14509
0.144994
0.145858
0.145859
0.145859
0.14586
0.14586
0.145861
0.145861
0.145862
0.145862
0.145862
0.145862
0.145862
0.145861
0.145859
0.145857
0.145853
0.145848
0.145841
0.145833
0.145823
0.145811
0.145796
0.145776
0.145751
0.145718
0.145677
0.145628
0.145575
0.14552
0.145466
0.145416
0.145366
0.145316
0.145259
0.145192
0.145114
0.145017
0.145858
0.145859
0.145859
0.145859
0.14586
0.14586
0.145861
0.145861
0.145861
0.145861
0.145861
0.14586
0.145859
0.145857
0.145853
0.145849
0.145843
0.145835
0.145825
0.145814
0.145801
0.145784
0.145764
0.145739
0.145708
0.14567
0.145626
0.145577
0.145526
0.145474
0.145422
0.145369
0.145313
0.14525
0.145179
0.145097
0.144999
0.145858
0.145858
0.145859
0.145859
0.14586
0.14586
0.14586
0.145861
0.145861
0.145861
0.14586
0.145859
0.145858
0.145855
0.145852
0.145848
0.145842
0.145834
0.145825
0.145814
0.1458
0.145783
0.145762
0.145736
0.145705
0.145669
0.145627
0.145582
0.145533
0.145483
0.145432
0.145377
0.145322
0.145257
0.145187
0.145105
0.145006
0.145858
0.145858
0.145859
0.145859
0.14586
0.14586
0.14586
0.14586
0.145861
0.14586
0.14586
0.145859
0.145857
0.145855
0.145851
0.145847
0.145841
0.145833
0.145824
0.145812
0.145798
0.145781
0.14576
0.145734
0.145704
0.145669
0.145629
0.145585
0.145538
0.145488
0.145437
0.145382
0.145325
0.145259
0.145187
0.145104
0.145005
0.0354964
0.0354971
0.0354978
0.0354988
0.0354999
0.0355013
0.035503
0.0355052
0.035508
0.0355117
0.0355165
0.0355229
0.0355315
0.0355426
0.0355562
0.0355709
0.0355775
0.0355657
0.0354913
0.0354097
0.0354672
0.0355604
0.0356434
0.0357156
0.0357285
0.035648
0.0354186
0.0350223
0.0347107
0.0345555
0.0345364
0.034647
0.0349389
0.0350031
0.0349714
0.0350781
0.0350737
0.0354964
0.035497
0.0354978
0.0354987
0.0354998
0.0355011
0.0355028
0.0355049
0.0355076
0.0355109
0.0355153
0.0355208
0.0355276
0.0355357
0.0355443
0.0355511
0.035549
0.0355329
0.0354863
0.035443
0.0354892
0.0355438
0.0355831
0.0356227
0.0355979
0.0354955
0.0353059
0.0350103
0.0347611
0.0346567
0.034662
0.0347422
0.0348921
0.0349165
0.0347855
0.0349233
0.0349052
0.0354963
0.0354969
0.0354976
0.0354985
0.0354995
0.0355008
0.0355023
0.0355043
0.0355067
0.0355097
0.0355135
0.0355184
0.0355244
0.0355315
0.0355389
0.035545
0.0355451
0.0355349
0.0355088
0.0354835
0.035501
0.0355371
0.0355666
0.0355855
0.0355699
0.0354942
0.0353465
0.0351393
0.0349473
0.0348374
0.0348024
0.0348305
0.0349022
0.0349616
0.0349402
0.0349434
0.0348397
0.0354961
0.0354967
0.0354974
0.0354982
0.0354992
0.0355003
0.0355017
0.0355033
0.0355053
0.0355078
0.0355106
0.035514
0.0355175
0.0355209
0.0355232
0.0355226
0.0355165
0.0355032
0.035483
0.0354652
0.0354761
0.0354943
0.0355006
0.0354949
0.0354634
0.0353873
0.0352627
0.0351008
0.0349462
0.0348588
0.0348283
0.0348384
0.0348558
0.0348518
0.0347874
0.0347545
0.0346723
0.035496
0.0354965
0.0354972