/*--------------------------------*- C++ -*----------------------------------*\
| =========                 |                                                 |
| \\      /  F ield         | OpenFOAM: The Open Source CFD Toolbox           |
|  \\    /   O peration     | Version:  2.3.1                                 |
|   \\  /    A nd           | Web:      www.OpenFOAM.org                      |
|    \\/     M anipulation  |                                                 |
\*---------------------------------------------------------------------------*/
FoamFile
{
    version     2.0;
    format      ascii;
    class       volScalarField;
    location    "15";
    object      p_rgh;
}
// * * * * * * * * * * * * * * * * * * * * * * * * * * * * * * * * * * * * * //

dimensions      [0 2 -2 0 0 0 0];

internalField   nonuniform List<scalar> 
37530
(
0.863216
0.863217
0.863218
0.863219
0.86322
0.863222
0.863225
0.863228
0.863232
0.863237
0.863246
0.863258
0.863278
0.863312
0.863375
0.863483
0.863656
0.863555
0.863059
0.862869
0.863246
0.863427
0.86362
0.86416
0.865063
0.86588
0.86435
0.861452
0.860541
0.860652
0.860834
0.861783
0.862747
0.862996
0.862869
0.862595
0.862306
0.863216
0.863217
0.863218
0.863219
0.86322
0.863222
0.863224
0.863227
0.863231
0.863236
0.863243
0.863253
0.863267
0.863288
0.863318
0.863355
0.863379
0.863191
0.862688
0.862828
0.863339
0.863397
0.863451
0.86376
0.864145
0.864411
0.863184
0.860771
0.860418
0.861076
0.861266
0.862052
0.862795
0.862852
0.862727
0.862733
0.863213
0.863216
0.863217
0.863218
0.863219
0.86322
0.863222
0.863224
0.863227
0.86323
0.863235
0.863241
0.86325
0.863262
0.863279
0.863302
0.863329
0.863349
0.863321
0.863214
0.863196
0.863274
0.863345
0.863439
0.863595
0.863752
0.863824
0.86338
0.862456
0.86199
0.861928
0.861971
0.862176
0.862421
0.862602
0.862686
0.862681
0.862558
0.863216
0.863217
0.863218
0.863219
0.86322
0.863222
0.863223
0.863226
0.863229
0.863232
0.863237
0.863242
0.863249
0.863256
0.863263
0.863266
0.863254
0.863216
0.863122
0.863107
0.863211
0.863265
0.863301
0.86336
0.863405
0.863359
0.863068
0.862469
0.862098
0.862141
0.862258
0.862394
0.862451
0.862397
0.862329
0.862313
0.862307
0.863216
0.863217
0.863218
0.863219
0.86322
0.863221
0.863223
0.863225
0.863227
0.86323
0.863234
0.863238
0.863243
0.86325
0.863256
0.863261
0.863261
0.863253
0.863233
0.863225
0.863239
0.863259
0.863279
0.863295
0.863288
0.863226
0.863071
0.862831
0.862638
0.862553
0.862541
0.862588
0.862662
0.862662
0.862563
0.862452
0.862339
0.863216
0.863217
0.863218
0.863218
0.863219
0.863221
0.863222
0.863223
0.863225
0.863227
0.86323
0.863232
0.863234
0.863236
0.863235
0.863232
0.863223
0.863207
0.863185
0.863172
0.863183
0.863193
0.863195
0.863187
0.863161
0.863096
0.862976
0.862808
0.86265
0.862574
0.862552
0.862556
0.862562
0.862548
0.8625
0.862417
0.862296
0.863216
0.863217
0.863217
0.863218
0.863219
0.86322
0.863221
0.863222
0.863224
0.863225
0.863227
0.863228
0.86323
0.863231
0.863232
0.863231
0.863227
0.863222
0.863214
0.863206
0.863202
0.863197
0.863187
0.863168
0.863134
0.863078
0.862997
0.8629
0.862808
0.862742
0.862698
0.862672
0.862652
0.862621
0.862565
0.862488
0.862377
0.863216
0.863216
0.863217
0.863218
0.863218
0.863219
0.86322
0.863221
0.863222
0.863223
0.863224
0.863224
0.863224
0.863223
0.863221
0.863216
0.863209
0.8632
0.863188
0.863177
0.863169
0.863159
0.863144
0.863121
0.863087
0.863037
0.86297
0.862891
0.862811
0.862745
0.862695
0.862653
0.862612
0.862563
0.8625
0.862422
0.862317
0.863216
0.863216
0.863217
0.863217
0.863218
0.863219
0.863219
0.86322
0.863221
0.863221
0.863222
0.863222
0.863221
0.86322
0.863218
0.863215
0.86321
0.863204
0.863195
0.863186
0.863174
0.86316
0.863141
0.863115
0.86308
0.863035
0.862981
0.86292
0.862859
0.862803
0.862753
0.862705
0.862659
0.862603
0.862537
0.862457
0.862354
0.863215
0.863216
0.863216
0.863217
0.863218
0.863218
0.863219
0.863219
0.86322
0.86322
0.86322
0.863219
0.863218
0.863216
0.863213
0.863208
0.863202
0.863193
0.863183
0.863172
0.863159
0.863143
0.863122
0.863096
0.863063
0.863022
0.862974
0.86292
0.862865
0.862809
0.862756
0.862703
0.862648
0.862585
0.862513
0.86243
0.862322
0.863215
0.863216
0.863216
0.863217
0.863217
0.863218
0.863218
0.863219
0.863219
0.863219
0.863219
0.863218
0.863216
0.863214
0.863211
0.863207
0.863201
0.863194
0.863184
0.863173
0.863159
0.863141
0.86312
0.863093
0.86306
0.863021
0.862977
0.862927
0.862876
0.862823
0.862772
0.862716
0.862662
0.862597
0.862525
0.862443
0.862337
0.863215
0.863215
0.863216
0.863216
0.863217
0.863217
0.863218
0.863218
0.863218
0.863218
0.863218
0.863217
0.863215
0.863213
0.86321
0.863205
0.863199
0.863191
0.863181
0.863169
0.863155
0.863137
0.863115
0.863089
0.863057
0.863019
0.862976
0.862929
0.86288
0.862828
0.862776
0.862719
0.862663
0.862596
0.862522
0.862437
0.862331
0.863216
0.863217
0.863218
0.863219
0.86322
0.863222
0.863224
0.863227
0.863231
0.863237
0.863245
0.863257
0.863277
0.863309
0.863368
0.863467
0.86364
0.86355
0.863065
0.862837
0.863208
0.863403
0.863596
0.864055
0.864716
0.865222
0.863956
0.861621
0.86062
0.860322
0.860527
0.861516
0.862598
0.863097
0.86295
0.862529
0.862248
0.863216
0.863217
0.863218
0.863219
0.86322
0.863222
0.863224
0.863227
0.863231
0.863236
0.863243
0.863252
0.863266
0.863286
0.863315
0.863351
0.863377
0.863226
0.862732
0.862793
0.863274
0.863369
0.863441
0.863709
0.863985
0.864195
0.863322
0.861401
0.860485
0.860781
0.861255
0.861864
0.86239
0.862523
0.862426
0.862445
0.862769
0.863216
0.863217
0.863218
0.863219
0.86322
0.863222
0.863224
0.863226
0.86323
0.863234
0.86324
0.863249
0.863261
0.863277
0.8633
0.863325
0.863345
0.863321
0.863211
0.863179
0.863257
0.863335
0.863429
0.863568
0.863697
0.863725
0.863346
0.862512
0.862008
0.861894
0.861893
0.862038
0.862302
0.862536
0.86264
0.862636
0.862531
0.863216
0.863217
0.863218
0.863219
0.86322
0.863221
0.863223
0.863225
0.863228
0.863232
0.863236
0.863242
0.863248
0.863255
0.863262
0.863265
0.863254
0.863219
0.863129
0.863106
0.863202
0.863256
0.863292
0.863346
0.863379
0.863324
0.86306
0.862544
0.862163
0.862126
0.862232
0.862362
0.862407
0.862362
0.862312
0.862292
0.862275
0.863216
0.863217
0.863217
0.863218
0.86322
0.863221
0.863222
0.863224
0.863227
0.863229
0.863233
0.863237
0.863243
0.863249
0.863255
0.86326
0.86326
0.863252
0.863233
0.863224
0.863237
0.863257
0.863276
0.86329
0.863281
0.863216
0.863066
0.862841
0.86265
0.86256
0.862539
0.86257
0.862627
0.862629
0.862541
0.862432
0.862323
0.863216
0.863217
0.863217
0.863218
0.863219
0.86322
0.863222
0.863223
0.863225
0.863227
0.863229
0.863231
0.863233
0.863235
0.863235
0.863231
0.863222
0.863207
0.863186
0.863172
0.863181
0.863191
0.863191
0.863183
0.863155
0.86309
0.862973
0.862813
0.862659
0.862579
0.862552
0.862553
0.862552
0.862531
0.862481
0.862404
0.862294
0.863216
0.863216
0.863217
0.863218
0.863219
0.86322
0.863221
0.863222
0.863223
0.863225
0.863226
0.863228
0.863229
0.863231
0.863231
0.86323
0.863227
0.863221
0.863213
0.863205
0.863201
0.863195
0.863185
0.863167
0.863133
0.863077
0.862996
0.862901
0.862811
0.862744
0.8627
0.862672
0.86265
0.862618
0.862562
0.862485
0.862377
0.863216
0.863216
0.863217
0.863217
0.863218
0.863219
0.86322
0.863221
0.863222
0.863223
0.863223
0.863224
0.863224
0.863223
0.86322
0.863216
0.863209
0.863199
0.863188
0.863177
0.863168
0.863158
0.863143
0.863119
0.863085
0.863035
0.862969
0.862891
0.862812
0.862746
0.862695
0.862653
0.862611
0.862561
0.862497
0.862418
0.862315
0.863215
0.863216
0.863216
0.863217
0.863218
0.863218
0.863219
0.86322
0.86322
0.863221
0.863221
0.863221
0.863221
0.86322
0.863218
0.863214
0.863209
0.863203
0.863195
0.863185
0.863173
0.863159
0.86314
0.863114
0.863079
0.863035
0.86298
0.86292
0.86286
0.862803
0.862753
0.862705
0.862658
0.862602
0.862537
0.862456
0.862353
0.863215
0.863216
0.863216
0.863217
0.863217
0.863218
0.863218
0.863219
0.863219
0.863219
0.863219
0.863219
0.863218
0.863216
0.863212
0.863208
0.863201
0.863193
0.863183
0.863171
0.863158
0.863142
0.863122
0.863096
0.863062
0.863022
0.862974
0.86292
0.862864
0.862809
0.862756
0.862702
0.862648
0.862584
0.862512
0.86243
0.862321
0.863215
0.863215
0.863216
0.863216
0.863217
0.863217
0.863218
0.863218
0.863219
0.863219
0.863218
0.863217
0.863216
0.863214
0.863211
0.863206
0.863201
0.863193
0.863184
0.863172
0.863158
0.863141
0.863119
0.863093
0.86306
0.863021
0.862976
0.862927
0.862876
0.862823
0.862772
0.862716
0.862662
0.862596
0.862525
0.862442
0.862334
0.863215
0.863215
0.863216
0.863216
0.863217
0.863217
0.863218
0.863218
0.863218
0.863218
0.863218
0.863217
0.863215
0.863213
0.863209
0.863205
0.863198
0.863191
0.863181
0.863169
0.863154
0.863137
0.863115
0.863089
0.863057
0.863019
0.862977
0.86293
0.86288
0.862828
0.862777
0.86272
0.862663
0.862595
0.862521
0.862435
0.862333
0.863216
0.863217
0.863218
0.863219
0.86322
0.863222
0.863224
0.863227
0.863231
0.863236
0.863244
0.863256
0.863274
0.863303
0.863355
0.863437
0.863597
0.863539
0.863018
0.86274
0.863172
0.863426
0.863567
0.863922
0.864377
0.864648
0.863694
0.861787
0.860813
0.860699
0.860773
0.861425
0.86229
0.862792
0.86294
0.862722
0.862334
0.863216
0.863217
0.863218
0.863219
0.86322
0.863222
0.863224
0.863227
0.86323
0.863235
0.863242
0.863251
0.863264
0.863283
0.863308
0.863342
0.863363
0.863281
0.862803
0.862777
0.86322
0.863356
0.863409
0.863619
0.863837
0.86393
0.863292
0.861853
0.861162
0.861269
0.86148
0.861942
0.862409
0.862495
0.862231
0.862177
0.862463
0.863216
0.863217
0.863218
0.863219
0.86322
0.863221
0.863223
0.863226
0.863229
0.863234
0.86324
0.863248
0.863259
0.863275
0.863295
0.863318
0.863335
0.863317
0.863211
0.863165
0.863244
0.863335
0.863416
0.863531
0.863627
0.863615
0.863288
0.862598
0.862141
0.862012
0.862021
0.862161
0.86237
0.862561
0.862643
0.862635
0.862537
0.863216
0.863217
0.863217
0.863218
0.86322
0.863221
0.863223
0.863225
0.863228
0.863231
0.863235
0.863241
0.863247
0.863254
0.86326
0.863263
0.863252
0.863222
0.863141
0.863108
0.863192
0.863247
0.863279
0.86332
0.863341
0.863277
0.86304
0.862608
0.862269
0.86221
0.862271
0.862379
0.862454
0.862436
0.862365
0.862318
0.862281
0.863216
0.863216
0.863217
0.863218
0.863219
0.86322
0.863222
0.863224
0.863226
0.863229
0.863232
0.863237
0.863242
0.863247
0.863253
0.863258
0.863258
0.86325
0.863231
0.863221
0.863234
0.863253
0.86327
0.86328
0.863266
0.8632
0.863058
0.862851
0.862669
0.862578
0.862553
0.862577
0.862621
0.862635
0.86258
0.86249
0.862375
0.863216
0.863216
0.863217
0.863218
0.863219
0.86322
0.863221
0.863223
0.863224
0.863226
0.863228
0.863231
0.863233
0.863234
0.863234
0.86323
0.863222
0.863207
0.863187
0.863173
0.863179
0.863188
0.863187
0.863177
0.863148
0.863083
0.862971
0.862821
0.862675
0.862594
0.862563
0.862559
0.862554
0.86253
0.862475
0.862402
0.862297
0.863215
0.863216
0.863217
0.863217
0.863218
0.863219
0.86322
0.863221
0.863223
0.863224
0.863226
0.863227
0.863229
0.86323
0.86323
0.863229
0.863225
0.86322
0.863212
0.863204
0.863199
0.863193
0.863183
0.863163
0.863129
0.863074
0.862995
0.862903
0.862815
0.862748
0.862703
0.862673
0.862649
0.862616
0.862561
0.862484
0.862379
0.863215
0.863216
0.863216
0.863217
0.863218
0.863219
0.863219
0.86322
0.863221
0.863222
0.863223
0.863223
0.863223
0.863222
0.863219
0.863215
0.863208
0.863199
0.863188
0.863176
0.863167
0.863157
0.863141
0.863118
0.863083
0.863034
0.862969
0.862893
0.862815
0.86275
0.862699
0.862655
0.862613
0.862562
0.862497
0.862418
0.862315
0.863215
0.863216
0.863216
0.863217
0.863217
0.863218
0.863219
0.863219
0.86322
0.86322
0.863221
0.863221
0.86322
0.863219
0.863217
0.863213
0.863209
0.863202
0.863194
0.863184
0.863172
0.863158
0.863138
0.863113
0.863078
0.863034
0.86298
0.862921
0.862861
0.862804
0.862754
0.862706
0.862658
0.862602
0.862536
0.862455
0.862353
0.863215
0.863215
0.863216
0.863216
0.863217
0.863218
0.863218
0.863219
0.863219
0.863219
0.863219
0.863218
0.863217
0.863215
0.863212
0.863207
0.863201
0.863193
0.863183
0.863171
0.863158
0.863141
0.863121
0.863095
0.863062
0.863021
0.862974
0.862921
0.862866
0.86281
0.862758
0.862704
0.862649
0.862585
0.862513
0.86243
0.862324
0.863215
0.863215
0.863216
0.863216
0.863217
0.863217
0.863218
0.863218
0.863218
0.863218
0.863218
0.863217
0.863216
0.863214
0.86321
0.863206
0.8632
0.863193
0.863183
0.863172
0.863158
0.86314
0.863119
0.863092
0.86306
0.863021
0.862977
0.862928
0.862877
0.862824
0.862773
0.862717
0.862663
0.862597
0.862527
0.862442
0.862337
0.863215
0.863215
0.863216
0.863216
0.863217
0.863217
0.863218
0.863218
0.863218
0.863218
0.863217
0.863217
0.863215
0.863213
0.863209
0.863204
0.863198
0.86319
0.863181
0.863169
0.863154
0.863137
0.863115
0.863089
0.863057
0.86302
0.862977
0.862931
0.862882
0.86283
0.862779
0.862722
0.862665
0.862596
0.862524
0.862438
0.862336
0.863216
0.863217
0.863218
0.863219
0.86322
0.863222
0.863224
0.863227
0.86323
0.863236
0.863243
0.863253
0.86327
0.863295
0.863337
0.8634
0.863495
0.863471
0.862992
0.862711
0.863043
0.863343
0.86353
0.863788
0.864065
0.86417
0.863493
0.86208
0.861309
0.861007
0.86078
0.861441
0.862544
0.863401
0.863066
0.862458
0.862218
0.863216
0.863217
0.863217
0.863219
0.86322
0.863221
0.863224
0.863226
0.86323
0.863234
0.863241
0.863249
0.863261
0.863278
0.8633
0.863327
0.863339
0.863304
0.862996
0.862876
0.863162
0.863295
0.863359
0.863534
0.863672
0.863663
0.863203
0.862177
0.86157
0.861517
0.861656
0.86202
0.862507
0.862848
0.862426
0.86186
0.86194
0.863216
0.863216
0.863217
0.863218
0.86322
0.863221
0.863223
0.863225
0.863229
0.863233
0.863238
0.863246
0.863257
0.863271
0.863288
0.863308
0.86332
0.863306
0.863215
0.863163
0.863231
0.863317
0.863395
0.863486
0.863546
0.8635
0.863221
0.862678
0.862272
0.862106
0.862066
0.862173
0.862403
0.862623
0.862672
0.862611
0.862512
0.863216
0.863216
0.863217
0.863218
0.863219
0.863221
0.863222
0.863224
0.863227
0.86323
0.863234
0.863239
0.863245
0.863252
0.863257
0.863259
0.86325
0.863224
0.863161
0.863125
0.863188
0.863235
0.863262
0.863293
0.8633
0.863225
0.863014
0.862661
0.862362
0.862264
0.862295
0.862381
0.862457
0.862473
0.86241
0.862331
0.862256
0.863216
0.863216
0.863217
0.863218
0.863219
0.86322
0.863222
0.863223
0.863225
0.863228
0.863231
0.863235
0.86324
0.863245
0.863251
0.863254
0.863254
0.863246
0.863229
0.863218
0.863229
0.863246
0.86326
0.863266
0.863247
0.86318
0.863047
0.862861
0.862693
0.8626
0.862564
0.862573
0.862604
0.862622
0.862578
0.862496
0.862386
0.863215
0.863216
0.863217
0.863217
0.863218
0.863219
0.863221
0.863222
0.863224
0.863226
0.863228
0.86323
0.863232
0.863233
0.863232
0.863229
0.863221
0.863207
0.863189
0.863175
0.863179
0.863185
0.863182
0.86317
0.863139
0.863075
0.862969
0.862831
0.862696
0.862614
0.862577
0.862566
0.862555
0.862528
0.862471
0.862397
0.862295
0.863215
0.863216
0.863216
0.863217
0.863218
0.863219
0.86322
0.863221
0.863222
0.863223
0.863225
0.863226
0.863228
0.863228
0.863228
0.863227
0.863224
0.863218
0.86321
0.863202
0.863196
0.86319
0.863179
0.863159
0.863124
0.86307
0.862994
0.862906
0.86282
0.862754
0.862708
0.862676
0.862648
0.862613
0.862558
0.862482
0.862379
0.863215
0.863216
0.863216
0.863217
0.863217
0.863218
0.863219
0.86322
0.863221
0.863221
0.863222
0.863222
0.863222
0.863221
0.863219
0.863214
0.863208
0.863198
0.863187
0.863176
0.863166
0.863155
0.86314
0.863116
0.863081
0.863033
0.862969
0.862896
0.862821
0.862757
0.862705
0.862661
0.862616
0.862565
0.862499
0.862419
0.862318
0.863215
0.863215
0.863216
0.863217
0.863217
0.863218
0.863218
0.863219
0.863219
0.86322
0.86322
0.86322
0.863219
0.863218
0.863216
0.863213
0.863208
0.863201
0.863193
0.863183
0.863171
0.863156
0.863137
0.863111
0.863077
0.863033
0.86298
0.862922
0.862863
0.862807
0.862756
0.862707
0.862659
0.862602
0.862536
0.862456
0.862355
0.863215
0.863215
0.863216
0.863216
0.863217
0.863217
0.863218
0.863218
0.863219
0.863219
0.863219
0.863218
0.863217
0.863215
0.863211
0.863207
0.8632
0.863192
0.863182
0.863171
0.863157
0.863141
0.863121
0.863095
0.863062
0.863022
0.862975
0.862923
0.862868
0.862813
0.862761
0.862707
0.862652
0.862588
0.862516
0.862433
0.862329
0.863215
0.863215
0.863216
0.863216
0.863217
0.863217
0.863217
0.863218
0.863218
0.863218
0.863218
0.863217
0.863215
0.863213
0.86321
0.863206
0.8632
0.863192
0.863183
0.863171
0.863157
0.86314
0.863118
0.863092
0.86306
0.863021
0.862978
0.862929
0.862879
0.862827
0.862775
0.86272
0.862665
0.862599
0.862529
0.862444
0.862342
0.863215
0.863215
0.863216
0.863216
0.863217
0.863217
0.863217
0.863218
0.863218
0.863218
0.863217
0.863216
0.863215
0.863212
0.863209
0.863204
0.863198
0.86319
0.863181
0.863169
0.863154
0.863137
0.863115
0.863089
0.863058
0.863021
0.862979
0.862933
0.862884
0.862832
0.862781
0.862724
0.862668
0.862599
0.862527
0.862442
0.862341
0.863216
0.863216
0.863217
0.863218
0.86322
0.863221
0.863223
0.863226
0.86323
0.863234
0.863241
0.863251
0.863265
0.863287
0.863319
0.863366
0.863419
0.863407
0.863042
0.86277
0.863091
0.863396
0.863461
0.863632
0.86382
0.863823
0.863348
0.862338
0.861738
0.861517
0.861599
0.861851
0.86248
0.862859
0.863182
0.863242
0.862499
0.863216
0.863216
0.863217
0.863218
0.86322
0.863221
0.863223
0.863226
0.863229
0.863233
0.863239
0.863247
0.863258
0.863273
0.863291
0.863311
0.863317
0.863294
0.863099
0.862994
0.863204
0.863331
0.863325
0.863389
0.863492
0.863483
0.863121
0.862397
0.861938
0.86184
0.861924
0.862168
0.862514
0.862686
0.862597
0.862452
0.861824
0.863216
0.863216
0.863217
0.863218
0.863219
0.863221
0.863223
0.863225
0.863228
0.863232
0.863237
0.863244
0.863254
0.863266
0.863281
0.863297
0.863304
0.863291
0.86322
0.863171
0.86323
0.863315
0.863371
0.863433
0.863469
0.863403
0.863164
0.862742
0.8624
0.862252
0.862236
0.86234
0.862498
0.862637
0.86267
0.862666
0.862505
0.863215
0.863216
0.863217
0.863218
0.863219
0.86322
0.863222
0.863224
0.863226
0.86323
0.863233
0.863238
0.863243
0.863249
0.863254
0.863255
0.863247
0.863224
0.863176
0.863144
0.863191
0.863233
0.863251
0.863263
0.863255
0.863181
0.862995
0.862707
0.862451
0.862358
0.862361
0.86243
0.862494
0.862511
0.862451
0.862388
0.86228
0.863215
0.863216
0.863217
0.863218
0.863219
0.86322
0.863221
0.863223
0.863225
0.863227
0.86323
0.863234
0.863238
0.863243
0.863247
0.86325
0.863249
0.863242
0.863227
0.863216
0.863224
0.863239
0.863249
0.863249
0.863226
0.863159
0.863037
0.862873
0.86272
0.86263
0.862593
0.862598
0.862617
0.862629
0.862592
0.862523
0.862414
0.863215
0.863216
0.863216
0.863217
0.863218
0.863219
0.86322
0.863222
0.863223
0.863225
0.863227
0.863229
0.86323
0.863231
0.863231
0.863228
0.86322
0.863208
0.863191
0.863177
0.863179
0.863182
0.863178
0.863163
0.86313
0.863067
0.862969
0.862843
0.862719
0.862639
0.862598
0.862582
0.862566
0.862537
0.86248
0.862406
0.862306
0.863215
0.863216
0.863216
0.863217
0.863218
0.863218
0.863219
0.86322
0.863222
0.863223
0.863224
0.863225
0.863226
0.863227
0.863227
0.863225
0.863222
0.863216
0.863208
0.8632
0.863193
0.863186
0.863174
0.863153
0.863119
0.863065
0.862993
0.86291
0.862828
0.862763
0.862716
0.862681
0.862651
0.862614
0.862559
0.862484
0.862384
0.863215
0.863215
0.863216
0.863217
0.863217
0.863218
0.863219
0.863219
0.86322
0.863221
0.863221
0.863222
0.863221
0.86322
0.863218
0.863213
0.863207
0.863198
0.863187
0.863176
0.863166
0.863155
0.863138
0.863114
0.86308
0.863032
0.862971
0.862901
0.862829
0.862766
0.862714
0.862669
0.862623
0.862571
0.862505
0.862425
0.862325
0.863215
0.863215
0.863216
0.863216
0.863217
0.863217
0.863218
0.863219
0.863219
0.863219
0.86322
0.863219
0.863219
0.863217
0.863215
0.863212
0.863207
0.8632
0.863191
0.863181
0.863169
0.863155
0.863135
0.863109
0.863076
0.863033
0.862981
0.862924
0.862866
0.862811
0.86276
0.862711
0.862662
0.862605
0.862539
0.862459
0.862359
0.863215
0.863215
0.863216
0.863216
0.863217
0.863217
0.863218
0.863218
0.863218
0.863218
0.863218
0.863217
0.863216
0.863214
0.863211
0.863206
0.8632
0.863192
0.863182
0.86317
0.863157
0.863141
0.86312
0.863095
0.863062
0.863023
0.862977
0.862925
0.862872
0.862818
0.862766
0.862712
0.862656
0.862593
0.862521
0.862438
0.862336
0.863215
0.863215
0.863216
0.863216
0.863216
0.863217
0.863217
0.863218
0.863218
0.863218
0.863217
0.863216
0.863215
0.863213
0.86321
0.863205
0.863199
0.863192
0.863182
0.863171
0.863157
0.86314
0.863118
0.863092
0.86306
0.863022
0.862979
0.862932
0.862882
0.86283
0.862779
0.862723
0.862668
0.862603
0.862533
0.862449
0.862348
0.863215
0.863215
0.863215
0.863216
0.863216
0.863217
0.863217
0.863217
0.863217
0.863217
0.863217
0.863216
0.863214
0.863212
0.863208
0.863204
0.863198
0.86319
0.86318
0.863169
0.863154
0.863137
0.863115
0.86309
0.863058
0.863022
0.86298
0.862935
0.862887
0.862836
0.862784
0.862728
0.862672
0.862604
0.862532
0.862447
0.862346
0.863216
0.863216
0.863217
0.863218
0.863219
0.863221
0.863223
0.863225
0.863229
0.863233
0.863239
0.863248
0.86326
0.863278
0.863303
0.863335
0.863363
0.863354
0.863136
0.862958
0.863121
0.863324
0.863495
0.863618
0.863655
0.863585
0.86324
0.862517
0.862044
0.861827
0.861718
0.862006
0.862511
0.862923
0.863027
0.862982
0.862681
0.863215
0.863216
0.863217
0.863218
0.863219
0.863221
0.863223
0.863225
0.863228
0.863232
0.863238
0.863245
0.863254
0.863267
0.863281
0.863296
0.863298
0.863278
0.863162
0.86308
0.8632
0.863292
0.863364
0.863431
0.863377
0.863261
0.863023
0.862513
0.862141
0.862035
0.862076
0.862261
0.862533
0.862719
0.862651
0.862586
0.862176
0.863215
0.863216
0.863217
0.863218
0.863219
0.86322
0.863222
0.863224
0.863227
0.863231
0.863236
0.863242
0.86325
0.863261
0.863273
0.863285
0.863289
0.863277
0.863226
0.863185
0.863226
0.863287
0.863342
0.863396
0.8634
0.863322
0.86312
0.862789
0.862506
0.862364
0.862322
0.862388
0.862525
0.862657
0.862677
0.862651
0.8625
0.863215
0.863216
0.863217
0.863218
0.863219
0.86322
0.863221
0.863223
0.863226
0.863229
0.863232
0.863236
0.863241
0.863246
0.86325
0.863251
0.863243
0.863224
0.863189
0.863161
0.863193
0.863226
0.863241
0.863249
0.863225
0.863138
0.862978
0.862744
0.862526
0.862431
0.862417
0.862463
0.862513
0.862534
0.862478
0.862419
0.862309
0.863215
0.863216
0.863216
0.863217
0.863218
0.863219
0.863221
0.863222
0.863224
0.863226
0.863229
0.863233
0.863236
0.86324
0.863244
0.863246
0.863244
0.863237
0.863224
0.863213
0.863218
0.86323
0.863236
0.863232
0.863205
0.863139
0.863028
0.862884
0.862747
0.862661
0.862619
0.862613
0.862622
0.862629
0.862594
0.862529
0.862424
0.863215
0.863216
0.863216
0.863217
0.863218
0.863219
0.86322
0.863221
0.863223
0.863224
0.863226
0.863228
0.863229
0.86323
0.863229
0.863226
0.863219
0.863208
0.863193
0.86318
0.863179
0.86318
0.863173
0.863156
0.863122
0.863061
0.86297
0.862857
0.862744
0.862667
0.862623
0.862601
0.86258
0.862549
0.862491
0.862419
0.862321
0.863215
0.863215
0.863216
0.863217
0.863217
0.863218
0.863219
0.86322
0.863221
0.863222
0.863223
0.863224
0.863225
0.863226
0.863225
0.863223
0.86322
0.863214
0.863206
0.863197
0.86319
0.863183
0.86317
0.863148
0.863113
0.863062
0.862993
0.862914
0.862837
0.862773
0.862726
0.862689
0.862656
0.862618
0.862562
0.862488
0.862391
0.863215
0.863215
0.863216
0.863216
0.863217
0.863218
0.863218
0.863219
0.86322
0.86322
0.863221
0.863221
0.863221
0.863219
0.863217
0.863213
0.863206
0.863198
0.863187
0.863176
0.863166
0.863154
0.863137
0.863113
0.863079
0.863032
0.862974
0.862907
0.862839
0.862777
0.862725
0.862679
0.862632
0.862579
0.862513
0.862434
0.862336
0.863215
0.863215
0.863216
0.863216
0.863217
0.863217
0.863218
0.863218
0.863219
0.863219
0.863219
0.863219
0.863218
0.863217
0.863214
0.863211
0.863206
0.863199
0.86319
0.86318
0.863168
0.863153
0.863134
0.863108
0.863075
0.863033
0.862983
0.862927
0.862871
0.862816
0.862766
0.862716
0.862666
0.862609
0.862543
0.862463
0.862365
0.863215
0.863215
0.863215
0.863216
0.863216
0.863217
0.863217
0.863218
0.863218
0.863218
0.863218
0.863217
0.863216
0.863213
0.86321
0.863206
0.863199
0.863191
0.863182
0.86317
0.863157
0.863141
0.86312
0.863095
0.863063
0.863024
0.862979
0.862929
0.862877
0.862824
0.862772
0.862718
0.862662
0.862599
0.862528
0.862445
0.862345
0.863215
0.863215
0.863215
0.863216
0.863216
0.863217
0.863217
0.863217
0.863217
0.863217
0.863217
0.863216
0.863214
0.863212
0.863209
0.863205
0.863199
0.863191
0.863182
0.86317
0.863156
0.863139
0.863118
0.863092
0.863061
0.863023
0.862981
0.862934
0.862885
0.862834
0.862783
0.862728
0.862673
0.862608
0.862537
0.862455
0.862354
0.863215
0.863215
0.863215
0.863216
0.863216
0.863217
0.863217
0.863217
0.863217
0.863217
0.863216
0.863215
0.863214
0.863211
0.863208
0.863203
0.863197
0.86319
0.86318
0.863168
0.863154
0.863137
0.863116
0.86309
0.863059
0.863023
0.862983
0.862938
0.86289
0.86284
0.862789
0.862733
0.862676
0.862609
0.862538
0.862453
0.862353
0.863215
0.863216
0.863217
0.863218
0.863219
0.863221
0.863222
0.863225
0.863228
0.863232
0.863237
0.863245
0.863255
0.863269
0.863288
0.86331
0.863324
0.863314
0.863187
0.86306
0.863168
0.863324
0.863407
0.86351
0.863587
0.863492
0.863173
0.862635
0.862254
0.862078
0.862082
0.86223
0.862578
0.862752
0.862773
0.862965
0.862755
0.863215
0.863216
0.863217
0.863218
0.863219
0.86322
0.863222
0.863224
0.863227
0.863231
0.863236
0.863242
0.86325
0.86326
0.863272
0.863282
0.863281
0.863263
0.86319
0.863129
0.863206
0.863291
0.863327
0.86337
0.863386
0.863278
0.863011
0.862615
0.862319
0.862215
0.862245
0.862377
0.862569
0.862687
0.862585
0.862673
0.862547
0.863215
0.863216
0.863217
0.863218
0.863219
0.86322
0.863222
0.863224
0.863226
0.86323
0.863234
0.86324
0.863247
0.863255
0.863265
0.863274
0.863276
0.863264
0.863228
0.863195
0.863223
0.863276
0.863313
0.863341
0.86334
0.863266
0.863089
0.862827
0.862593
0.862469
0.862438
0.862493
0.862588
0.862672
0.862667
0.862655
0.862536
0.863215
0.863216
0.863216
0.863217
0.863218
0.863219
0.863221
0.863223
0.863225
0.863228
0.863231
0.863235
0.863239
0.863243
0.863246
0.863246
0.863239
0.863223
0.863197
0.863175
0.863194
0.86322
0.863231
0.863229
0.863202
0.863124
0.862979
0.862782
0.862599
0.862507
0.862484
0.862511
0.862545
0.862555
0.862496
0.862449
0.862355
0.863215
0.863216
0.863216
0.863217
0.863218
0.863219
0.86322
0.863222
0.863223
0.863226
0.863228
0.863231
0.863234
0.863238
0.86324
0.863242
0.863239
0.863233
0.863221
0.863211
0.863213
0.863221
0.863224
0.863215
0.863185
0.863122
0.863021
0.862895
0.862774
0.862693
0.86265
0.862638
0.86264
0.862639
0.862601
0.862541
0.862442
0.863215
0.863215
0.863216
0.863217
0.863217
0.863218
0.863219
0.863221
0.863222
0.863223
0.863225
0.863226
0.863228
0.863228
0.863227
0.863224
0.863218
0.863207
0.863194
0.863183
0.863179
0.863178
0.863169
0.86315
0.863116
0.863057
0.862973
0.862872
0.86277
0.862696
0.86265
0.862623
0.862597
0.862564
0.862505
0.862435
0.862341
0.863215
0.863215
0.863216
0.863216
0.863217
0.863218
0.863219
0.86322
0.86322
0.863221
0.863222
0.863223
0.863224
0.863224
0.863223
0.863221
0.863217
0.863211
0.863204
0.863195
0.863187
0.863179
0.863165
0.863143
0.863108
0.863058
0.862994
0.86292
0.862847
0.862785
0.862737
0.862699
0.862664
0.862623
0.862567
0.862495
0.862401
0.863215
0.863215
0.863215
0.863216
0.863217
0.863217
0.863218
0.863219
0.863219
0.86322
0.86322
0.86322
0.86322
0.863218
0.863216
0.863212
0.863206
0.863197
0.863187
0.863177
0.863166
0.863153
0.863136
0.863112
0.863078
0.863033
0.862977
0.862914
0.862849
0.86279
0.862738
0.862691
0.862643
0.862589
0.862524
0.862446
0.86235
0.863214
0.863215
0.863215
0.863216
0.863216
0.863217
0.863217
0.863218
0.863218
0.863218
0.863218
0.863218
0.863217
0.863216
0.863213
0.86321
0.863204
0.863198
0.863189
0.863179
0.863167
0.863152
0.863132
0.863107
0.863074
0.863033
0.862985
0.862931
0.862876
0.862823
0.862772
0.862723
0.862672
0.862615
0.862549
0.86247
0.862374
0.863214
0.863215
0.863215
0.863216
0.863216
0.863217
0.863217
0.863217
0.863217
0.863217
0.863217
0.863216
0.863215
0.863213
0.86321
0.863205
0.863199
0.863191
0.863182
0.86317
0.863157
0.863141
0.863121
0.863095
0.863064
0.863026
0.862982
0.862933
0.862882
0.86283
0.862778
0.862725
0.86267
0.862606
0.862536
0.862454
0.862355
0.863214
0.863215
0.863215
0.863216
0.863216
0.863216
0.863217
0.863217
0.863217
0.863217
0.863216
0.863215
0.863214
0.863212
0.863208
0.863204
0.863198
0.863191
0.863181
0.86317
0.863156
0.863139
0.863118
0.863092
0.863062
0.863025
0.862984
0.862938
0.862889
0.862839
0.862788
0.862734
0.862678
0.862613
0.862543
0.862461
0.862362
0.863214
0.863215
0.863215
0.863216
0.863216
0.863216
0.863217
0.863217
0.863217
0.863217
0.863216
0.863215
0.863213
0.863211
0.863208
0.863203
0.863197
0.863189
0.86318
0.863168
0.863154
0.863137
0.863116
0.863091
0.86306
0.863025
0.862985
0.862941
0.862894
0.862844
0.862793
0.862738
0.862681
0.862615
0.862544
0.86246
0.862361
0.863215
0.863216
0.863217
0.863218
0.863219
0.86322
0.863222
0.863224
0.863227
0.86323
0.863235
0.863242
0.86325
0.863261
0.863275
0.86329
0.863296
0.863284
0.86321
0.863128
0.863186
0.863279
0.863362
0.863434
0.863447
0.863367
0.863137
0.862741
0.862429
0.862274
0.862255
0.862366
0.862658
0.862722
0.86269
0.862797
0.862792
0.863215
0.863216
0.863217
0.863217
0.863219
0.86322
0.863222
0.863224
0.863226
0.86323
0.863234
0.86324
0.863246
0.863254
0.863263
0.86327
0.863268
0.863252
0.863205
0.863162
0.863208
0.863263
0.863302
0.863341
0.863317
0.863214
0.863025
0.862729
0.86248
0.862375
0.862381
0.862461
0.862611
0.862635
0.862504
0.862642
0.862624
0.863215
0.863216
0.863216
0.863217
0.863218
0.86322
0.863221
0.863223
0.863225
0.863228
0.863232
0.863237
0.863243
0.86325
0.863258
0.863264
0.863264
0.863254
0.863228
0.863202
0.86322
0.863256
0.863285
0.863304
0.863289
0.863213
0.863065
0.862858
0.862666
0.862556
0.862521
0.862549
0.862621
0.86268
0.862659
0.862662
0.862558
0.863215
0.863215
0.863216
0.863217
0.863218
0.863219
0.86322
0.863222
0.863224
0.863227
0.863229
0.863233
0.863236
0.86324
0.863242
0.863241
0.863235
0.863222
0.863202
0.863184
0.863195
0.863213
0.863219
0.863214
0.863182
0.863106
0.862981
0.86282
0.862665
0.862578
0.862547
0.862557
0.862575
0.862571
0.862506
0.862473
0.862391
0.863215
0.863215
0.863216
0.863217
0.863218
0.863219
0.86322
0.863221
0.863223
0.863225
0.863227
0.863229
0.863232
0.863235
0.863237
0.863237
0.863235
0.863228
0.863218