/*--------------------------------*- C++ -*----------------------------------*\
| =========                 |                                                 |
| \\      /  F ield         | OpenFOAM: The Open Source CFD Toolbox           |
|  \\    /   O peration     | Version:  2.3.1                                 |
|   \\  /    A nd           | Web:      www.OpenFOAM.org                      |
|    \\/     M anipulation  |                                                 |
\*---------------------------------------------------------------------------*/
FoamFile
{
    version     2.0;
    format      ascii;
    class       surfaceScalarField;
    location    "15";
    object      phi;
}
// * * * * * * * * * * * * * * * * * * * * * * * * * * * * * * * * * * * * * //

dimensions      [0 3 -1 0 0 0 0];

internalField   nonuniform List<scalar> 
107940
(
1.15598e-06
-9.2332e-09
-1.8372e-08
1.18515e-06
-9.73621e-09
-1.94321e-08
1.2158e-06
-1.01843e-08
-2.04704e-08
1.24777e-06
-1.05269e-08
-2.14405e-08
1.28073e-06
-1.06877e-08
-2.22696e-08
1.31412e-06
-1.05463e-08
-2.2846e-08
1.34702e-06
-9.90057e-09
-2.29937e-08
1.37782e-06
-8.38065e-09
-2.24247e-08
1.40377e-06
-5.32108e-09
-2.06264e-08
1.42001e-06
2.93744e-10
-1.6534e-08
1.41714e-06
1.1261e-08
-8.38929e-09
1.37655e-06
3.25435e-08
8.04316e-09
1.25891e-06
7.55304e-08
4.2113e-08
9.73913e-07
1.67894e-07
1.171e-07
2.97608e-07
3.77916e-07
2.98388e-07
-1.36169e-06
8.89368e-07
7.69929e-07
-5.57584e-06
2.28083e-06
1.93332e-06
-1.17953e-05
3.69338e-06
2.52612e-06
-1.43855e-05
1.27943e-06
1.31069e-06
-1.28331e-05
-1.78501e-06
2.32651e-07
-1.26619e-05
-9.94099e-07
8.22863e-07
-1.36108e-05
4.90349e-07
4.58608e-07
-1.27074e-05
-1.32734e-07
-7.70731e-07
-1.20753e-05
-5.29777e-07
-1.02294e-07
-1.68374e-05
1.00643e-06
3.75564e-06
-3.13649e-05
4.59827e-06
9.92923e-06
-4.89873e-05
7.26563e-06
1.03568e-05
-5.50292e-05
3.49817e-06
2.54373e-06
-5.31249e-05
-8.40104e-07
-1.06422e-06
-5.3002e-05
-7.26891e-07
6.03993e-07
-4.89339e-05
-2.09647e-06
-1.97164e-06
-4.03249e-05
-3.69536e-06
-4.91359e-06
-3.5328e-05
-2.38778e-06
-2.60912e-06
-3.44716e-05
-1.37095e-06
5.14474e-07
-3.49262e-05
-1.21023e-06
1.66483e-06
-3.4454e-05
-1.37982e-06
9.07644e-07
-2.07265e-06
9.63873e-07
1.23557e-06
-1.02907e-08
-2.76181e-08
1.26591e-06
-1.0691e-08
-2.93894e-08
1.29787e-06
-1.09481e-08
-3.11909e-08
1.33129e-06
-1.09676e-08
-3.29805e-08
1.36591e-06
-1.06103e-08
-3.46954e-08
1.40127e-06
-9.66291e-09
-3.62438e-08
1.43665e-06
-7.79921e-09
-3.74809e-08
1.47089e-06
-4.4499e-09
-3.81702e-08
1.50213e-06
1.35011e-09
-3.79178e-08
1.5274e-06
1.10646e-08
-3.60352e-08
1.54215e-06
2.76123e-08
-3.11046e-08
1.53921e-06
5.63065e-08
-2.08241e-08
1.50798e-06
1.07481e-07
-7.15353e-10
1.4346e-06
2.02838e-07
3.84337e-08
1.31222e-06
3.8685e-07
1.13443e-07
1.19223e-06
7.55459e-07
2.539e-07
1.42972e-06
1.50697e-06
5.36368e-07
1.88488e-06
2.63917e-06
5.99057e-07
1.64786e-06
2.37282e-06
-8.56377e-07
6.73317e-07
1.12807e-06
-1.93852e-06
-2.08355e-07
1.08425e-06
-1.19668e-06
-3.07628e-07
1.25641e-06
-6.66788e-07
-3.66803e-07
9.13002e-07
-9.8656e-07
-1.02398e-06
9.84133e-07
-8.56733e-07
-2.62478e-06
2.06949e-06
5.37732e-07
-6.30024e-06
4.47032e-06
3.80342e-06
-1.20445e-05
7.09329e-06
5.91659e-06
-1.49712e-05
6.08809e-06
3.36746e-07
-1.32747e-05
3.16985e-06
-5.70644e-06
-1.13964e-05
2.26662e-06
-4.87179e-06
-1.01697e-05
2.22894e-06
-5.55216e-06
-8.49281e-06
2.93795e-06
-8.31017e-06
-7.12669e-06
4.28734e-06
-8.04124e-06
-5.86975e-06
4.79617e-06
-7.42406e-06
-4.96806e-06
4.5231e-06
-6.63502e-06
-5.61607e-06
4.04944e-06
-4.78126e-06
3.6214e-06
-1.3402e-06
1.25042e-06
-7.40017e-09
-3.17724e-08
1.28104e-06
-7.43539e-09
-3.38725e-08
1.31336e-06
-7.2375e-09
-3.60308e-08
1.34728e-06
-6.67834e-09
-3.82073e-08
1.38259e-06
-5.5673e-09
-4.03552e-08
1.41894e-06
-3.60831e-09
-4.24057e-08
1.45576e-06
-3.93951e-10
-4.42197e-08
1.49206e-06
4.82807e-09
-4.55806e-08
1.52631e-06
1.31744e-08
-4.607e-08
1.55597e-06
2.64846e-08
-4.50803e-08
1.57717e-06
4.78602e-08
-4.14497e-08
1.58406e-06
8.25264e-08
-3.31099e-08
1.56839e-06
1.39442e-07
-1.62931e-08
1.52104e-06
2.34023e-07
1.61631e-08
1.43965e-06
3.90969e-07
7.72732e-08
1.35996e-06
6.4913e-07
1.86021e-07
1.45841e-06
1.04044e-06
3.68066e-07
1.93092e-06
1.56048e-06
6.06182e-07
2.3632e-06
1.29825e-06
6.42294e-07
2.38133e-06
3.55512e-07
7.5442e-07
2.15771e-06
2.62318e-07
1.04556e-06
1.8589e-06
5.25151e-07
1.03006e-06
1.43558e-06
4.77751e-07
8.58575e-07
9.32582e-07
5.87791e-07
8.99337e-07
4.17409e-07
1.28215e-06
1.30252e-06
-4.92929e-08
2.66669e-06
2.27033e-06
-1.21702e-06
4.50799e-06
3.75302e-06
-2.91544e-06
4.4042e-06
3.38231e-06
-3.91257e-06
2.22308e-06
1.9439e-06
-4.8463e-06
1.29804e-06
1.90232e-06
-6.37064e-06
1.53941e-06
2.21388e-06
-6.92676e-06
2.31375e-06
1.18032e-06
-6.03337e-06
3.93122e-06
-5.37279e-07
-4.83849e-06
5.46303e-06
-1.86174e-06
-3.56237e-06
5.68693e-06
-2.43995e-06
-2.08133e-06
5.4228e-06
-2.85439e-06
4.96348e-06
-2.95748e-06
1.25509e-06
-3.45134e-09
-3.29959e-08
1.28595e-06
-3.09064e-09
-3.52034e-08
1.31862e-06
-2.42637e-09
-3.74837e-08
1.35306e-06
-1.31218e-09
-3.98043e-08
1.38915e-06
4.65355e-10
-4.21283e-08
1.42672e-06
3.24256e-09
-4.44146e-08
1.46543e-06
7.46364e-09
-4.65764e-08
1.50489e-06
1.38035e-08
-4.84343e-08
1.54456e-06
2.32595e-08
-4.97503e-08
1.58375e-06
3.7449e-08
-5.01606e-08
1.6219e-06
5.87865e-08
-4.9076e-08
1.65899e-06
9.10215e-08
-4.55826e-08
1.69686e-06
1.39872e-07
-3.82965e-08
1.74247e-06
2.13866e-07
-2.54595e-08
1.8132e-06
3.24693e-07
-4.44854e-09
1.94951e-06
4.85656e-07
2.71665e-08
2.23101e-06
6.96362e-07
6.25759e-08
2.7823e-06
9.31537e-07
7.76579e-08
3.1947e-06
9.47726e-07
-6.18777e-08
3.12546e-06
6.658e-07
-2.41053e-07
3.02847e-06
5.20839e-07
-1.61527e-07
3.08334e-06
5.19867e-07
-4.95837e-08
3.06665e-06
5.17349e-07
-2.29078e-08
2.94756e-06
6.50883e-07
5.59942e-08
2.86233e-06
1.05263e-06
3.14754e-07
3.0615e-06
1.69562e-06
7.71895e-07
3.69999e-06
2.51792e-06
1.35158e-06
4.04131e-06
2.78163e-06
1.28125e-06
3.59418e-06
2.18837e-06
4.81847e-07
2.6193e-06
1.80087e-06
4.72051e-07
8.38839e-07
1.80266e-06
1.5172e-06
-1.6739e-06
2.08372e-06
2.74277e-06
-3.28773e-06
2.87535e-06
2.66971e-06
-3.05722e-06
4.33278e-06
8.99731e-07
-1.86408e-06
5.26784e-06
-7.74043e-07
-6.71678e-07
5.94615e-06
-1.71576e-06
5.74529e-06
-1.87643e-06
1.25706e-06
4.27254e-10
-3.31128e-08
1.28819e-06
1.12787e-09
-3.53524e-08
1.32127e-06
2.17997e-09
-3.76792e-08
1.35628e-06
3.74125e-09
-4.0072e-08
1.39322e-06
6.03644e-09
-4.25045e-08
1.432e-06
9.38466e-09
-4.49237e-08
1.47248e-06
1.42383e-08
-4.72561e-08
1.5144e-06
2.12525e-08
-4.93683e-08
1.55731e-06
3.13849e-08
-5.10398e-08
1.60066e-06
4.60279e-08
-5.19218e-08
1.64377e-06
6.71658e-08
-5.14934e-08
1.68615e-06
9.75938e-08
-4.89542e-08
1.72806e-06
1.41051e-07
-4.30858e-08
1.7721e-06
2.02027e-07
-3.21969e-08
1.82612e-06
2.84991e-07
-1.43248e-08
1.90684e-06
3.91919e-07
1.30157e-08
2.04051e-06
5.12743e-07
4.99518e-08
2.26318e-06
6.1722e-07
9.16471e-08
2.49725e-06
5.95285e-07
1.1837e-07
2.63669e-06
3.94033e-07
1.32328e-07
2.70904e-06
3.0217e-07
1.46317e-07
2.75514e-06
3.34607e-07
1.39164e-07
2.77793e-06
3.69365e-07
1.25197e-07
2.82339e-06
4.67957e-07
1.3746e-07
2.96688e-06
7.09754e-07
1.99391e-07
3.27521e-06
1.0672e-06
3.20087e-07
3.81834e-06
1.48099e-06
4.93809e-07
4.36751e-06
1.65704e-06
5.75425e-07
4.67604e-06
1.38607e-06
4.9376e-07
4.79159e-06
1.20153e-06
4.83793e-07
4.61117e-06
1.31382e-06
6.6927e-07
3.85387e-06
1.68037e-06
1.16065e-06
2.49176e-06
2.12431e-06
2.11315e-06
1.20069e-06
2.89208e-06
2.73177e-06
6.45009e-07
3.50265e-06
2.32087e-06
1.06741e-06
4.2774e-06
1.24635e-06
4.379e-06
4.59573e-07
1.25817e-06
3.9163e-09
-3.29293e-08
1.2896e-06
4.87815e-09
-3.51825e-08
1.32311e-06
6.21322e-09
-3.75355e-08
1.35874e-06
8.07619e-09
-3.99723e-08
1.39657e-06
1.06793e-08
-4.24706e-08
1.43663e-06
1.43137e-08
-4.49928e-08
1.47898e-06
1.93779e-08
-4.74821e-08
1.52367e-06
2.64146e-08
-4.98541e-08
1.57094e-06
3.61061e-08
-5.19913e-08
1.62125e-06
4.94918e-08
-5.37694e-08
1.67548e-06
6.79459e-08
-5.50175e-08
1.73543e-06
9.31749e-08
-5.55262e-08
1.8043e-06
1.27234e-07
-5.5057e-08
1.88756e-06
1.72207e-07
-5.34332e-08
1.99391e-06
2.29394e-07
-5.07559e-08
2.13607e-06
2.97722e-07
-4.79593e-08
2.32694e-06
3.69977e-07
-4.81133e-08
2.57282e-06
4.2942e-07
-5.80724e-08
2.81085e-06
4.45e-07
-8.77475e-08
2.94333e-06
3.9721e-07
-1.35653e-07
3.0447e-06
3.59879e-07
-1.59079e-07
3.17228e-06
3.68876e-07
-1.61857e-07
3.29672e-06
4.10417e-07
-1.65484e-07
3.42094e-06
5.00329e-07
-1.56591e-07
3.59571e-06
6.55381e-07
-1.20397e-07
3.86503e-06
8.5493e-07
-5.70488e-08
4.27559e-06
1.05489e-06
1.5541e-08
4.72986e-06
1.16184e-06
4.09245e-08
5.02335e-06
1.11282e-06
-2.02364e-08
5.1943e-06
1.07199e-06
-4.14171e-08
5.36469e-06
1.10343e-06
4.00083e-08
5.55235e-06
1.27019e-06
2.22507e-07
5.64368e-06
1.51521e-06
5.17777e-07
5.56357e-06
1.96641e-06
1.00579e-06
5.42766e-06
2.24776e-06
1.39079e-06
5.44571e-06
2.59507e-06
1.66429e-06
2.89112e-06
1.1476e-06
1.25897e-06
7.09824e-09
-3.2844e-08
1.29071e-06
8.26029e-09
-3.51275e-08
1.32465e-06
9.79317e-09
-3.75235e-08
1.36091e-06
1.18388e-08
-4.00172e-08
1.39959e-06
1.4585e-08
-4.25894e-08
1.44084e-06
1.8282e-08
-4.52123e-08
1.4848e-06
2.32666e-08
-4.78471e-08
1.53166e-06
2.99904e-08
-5.0436e-08
1.5816e-06
3.90544e-08
-5.28907e-08
1.63489e-06
5.12581e-08
-5.50539e-08
1.69199e-06
6.75654e-08
-5.67215e-08
1.75371e-06
8.90813e-08
-5.76302e-08
1.82147e-06
1.16927e-07
-5.74488e-08
1.89758e-06
1.51903e-07
-5.58129e-08
1.98555e-06
1.93847e-07
-5.24234e-08
2.09e-06
2.40493e-07
-4.72171e-08
2.21503e-06
2.85712e-07
-4.07673e-08
2.36113e-06
3.17962e-07
-3.46356e-08
2.51466e-06
3.22324e-07
-3.08601e-08
2.65268e-06
2.89715e-07
-3.05217e-08
2.77942e-06
2.64682e-07
-3.15402e-08
2.90859e-06
2.74214e-07
-3.45161e-08
3.05071e-06
3.04831e-07
-3.65289e-08
3.22265e-06
3.61658e-07
-3.32698e-08
3.4477e-06
4.53142e-07
-2.28121e-08
3.73931e-06
5.70536e-07
-7.22117e-09
4.09821e-06
6.87548e-07
8.44297e-09
4.4865e-06
7.61613e-07
1.19376e-08
4.84156e-06
7.57144e-07
6.15419e-10
5.17205e-06
7.53467e-07
-1.1967e-08
5.48606e-06
7.88132e-07
1.28469e-09
5.81345e-06
9.1894e-07
2.38662e-08
6.15828e-06
1.04038e-06
1.29996e-07
6.59638e-06
1.30034e-06
2.27971e-07
7.00927e-06
1.45388e-06
3.80989e-07
7.50534e-06
1.58311e-06
5.15889e-07
1.92509e-06
4.34727e-07
1.25939e-06
1.0074e-08
-3.2857e-08
1.29144e-06
1.1394e-08
-3.51835e-08
1.32581e-06
1.30631e-08
-3.76356e-08
1.36264e-06
1.51991e-08
-4.01923e-08
1.40211e-06
1.79557e-08
-4.28389e-08
1.44442e-06
2.15342e-08
-4.55614e-08
1.48982e-06
2.61985e-08
-4.83363e-08
1.53865e-06
3.22859e-08
-5.11286e-08
1.59141e-06
4.02005e-08
-5.38978e-08
1.64888e-06
5.03988e-08
-5.66141e-08
1.71217e-06
6.35538e-08
-5.92749e-08
1.78284e-06
8.02801e-08
-6.18704e-08
1.86309e-06
1.01113e-07
-6.4442e-08
1.95585e-06
1.26274e-07
-6.71323e-08
2.06466e-06
1.5531e-07
-7.02745e-08
2.19309e-06
1.86586e-07
-7.45223e-08
2.34306e-06
2.16743e-07
-8.09934e-08
2.51153e-06
2.40776e-07
-9.12907e-08
2.68609e-06
2.53955e-07
-1.06185e-07
2.84626e-06
2.55272e-07
-1.25728e-07
2.99743e-06
2.57898e-07
-1.44388e-07
3.15821e-06
2.73496e-07
-1.60057e-07
3.33144e-06
3.05203e-07
-1.73601e-07
3.52197e-06
3.54991e-07
-1.83867e-07
3.74172e-06
4.22884e-07
-1.89492e-07
4.00182e-06
5.0117e-07
-1.90739e-07
4.30613e-06
5.74678e-07
-1.91441e-07
4.63895e-06
6.27838e-07
-1.99038e-07
4.96213e-06
6.49508e-07
-2.15545e-07
5.27426e-06
6.74282e-07
-2.32947e-07
5.60311e-06
6.96005e-07
-2.36724e-07
5.96397e-06
7.92466e-07
-2.34381e-07
6.39594e-06
8.16641e-07
-2.08242e-07
6.83863e-06
1.03307e-06
-1.75409e-07
7.40087e-06
1.03553e-06
-1.43895e-07
7.94386e-06
1.10969e-06
-6.95765e-08
1.46782e-06
-1.44163e-07
1.25881e-06
1.25952e-08
-3.26009e-08
1.29113e-06
1.40166e-08
-3.49439e-08
1.32586e-06
1.57498e-08
-3.74222e-08
1.36319e-06
1.78779e-08
-4.0007e-08
1.40332e-06
2.05161e-08
-4.26891e-08
1.44651e-06
2.38163e-08
-4.54668e-08
1.49306e-06
2.79731e-08
-4.83264e-08
1.54336e-06
3.32308e-08
-5.12493e-08
1.59789e-06
3.98902e-08
-5.42188e-08
1.65717e-06
4.83172e-08
-5.7199e-08
1.72192e-06
5.89189e-08
-6.01163e-08
1.79304e-06
7.20512e-08
-6.2892e-08
1.87166e-06
8.79342e-08
-6.54418e-08
1.95914e-06
1.06512e-07
-6.77127e-08
2.05695e-06
1.27208e-07
-6.97116e-08
2.16645e-06
1.48631e-07
-7.15374e-08
2.28823e-06
1.68379e-07
-7.34185e-08
2.42144e-06
1.83286e-07
-7.57246e-08
2.56318e-06
1.90862e-07
-7.86454e-08
2.70962e-06
1.91062e-07
-8.22296e-08
2.86213e-06
1.91646e-07
-8.62591e-08
3.02589e-06
2.00456e-07
-9.0717e-08
3.20708e-06
2.1919e-07
-9.51774e-08
3.41272e-06
2.4833e-07
-9.89794e-08
3.65004e-06
2.87639e-07
-1.02072e-07
3.9229e-06
3.33864e-07
-1.0556e-07
4.22918e-06
3.79076e-07
-1.10674e-07
4.56046e-06
4.16892e-07
-1.20335e-07
4.90244e-06
4.38621e-07
-1.31094e-07
5.25764e-06
4.68632e-07
-1.4955e-07
5.62471e-06
4.80432e-07
-1.51499e-07
6.02478e-06
5.78885e-07
-1.86489e-07
6.44812e-06
5.42146e-07
-1.48841e-07
6.92873e-06
7.73213e-07
-2.20761e-07
7.42633e-06
6.81374e-07
-1.43441e-07
8.03373e-06
7.127e-07
-2.10404e-07
1.25792e-06
-2.63639e-07
1.25529e-06
1.37191e-08
-3.13594e-08
1.28782e-06
1.51089e-08
-3.36207e-08
1.32283e-06
1.67524e-08
-3.60159e-08
1.36053e-06
1.86952e-08
-3.85153e-08
1.40115e-06
2.10112e-08
-4.11146e-08
1.44498e-06
2.38014e-08
-4.3818e-08
1.49238e-06
2.71918e-08
-4.6617e-08
1.54378e-06
3.13355e-08
-4.95036e-08
1.59974e-06
3.64129e-08
-5.24793e-08
1.66099e-06
4.26163e-08
-5.55504e-08
1.72855e-06
5.00752e-08
-5.87211e-08
1.80358e-06
5.90807e-08
-6.20572e-08
1.88745e-06
6.97149e-08
-6.56456e-08
1.9817e-06
8.18875e-08
-6.96243e-08
2.08787e-06
9.52611e-08
-7.42302e-08
2.20717e-06
1.0914e-07
-7.9808e-08
2.33988e-06
1.22468e-07
-8.68001e-08
2.48478e-06
1.34079e-07
-9.56913e-08
2.63889e-06
1.43371e-07
-1.06614e-07
2.79846e-06
1.50971e-07
-1.19481e-07
2.964e-06
1.59736e-07
-1.3363e-07
3.14005e-06
1.72813e-07
-1.48412e-07
3.33093e-06
1.91912e-07
-1.63601e-07
3.54056e-06
2.17522e-07
-1.7882e-07
3.77319e-06
2.48794e-07
-1.93783e-07
4.03235e-06
2.83332e-07
-2.08626e-07
4.31838e-06
3.16503e-07
-2.23456e-07
4.62876e-06
3.46771e-07
-2.40268e-07
4.95668e-06
3.66806e-07
-2.56102e-07
5.30349e-06
3.99494e-07
-2.77672e-07
5.67092e-06
3.96976e-07
-2.83968e-07
6.07332e-06
4.95204e-07
-3.18721e-07
6.50211e-06
4.07527e-07
-2.94172e-07
6.99615e-06
6.31268e-07
-3.52092e-07
7.46481e-06
5.4368e-07
-3.30972e-07
8.08362e-06
3.82381e-07
-2.88488e-07
1.27451e-06
-5.78058e-07
1.24128e-06
1.08286e-08
-2.73728e-08
1.27386e-06
1.18441e-08
-2.93136e-08
1.30896e-06
1.30172e-08
-3.13661e-08
1.3468e-06
1.43626e-08
-3.35087e-08
1.38764e-06
1.59145e-08
-3.57402e-08
1.43178e-06
1.77237e-08
-3.80665e-08
1.47961e-06
1.98521e-08
-4.0484e-08
1.53156e-06
2.23742e-08
-4.29926e-08
1.5882e-06
2.53789e-08
-4.56027e-08
1.65018e-06
2.89682e-08
-4.83306e-08
1.7182e-06
3.3244e-08
-5.11981e-08
1.79316e-06
3.82888e-08
-5.41677e-08
1.876e-06
4.41128e-08
-5.72379e-08
1.96771e-06
5.06434e-08
-6.04576e-08
2.06918e-06
5.76624e-08
-6.38711e-08
2.1811e-06
6.47614e-08
-6.75429e-08
2.30375e-06
7.13502e-08
-7.15372e-08
2.43694e-06
7.67897e-08
-7.59015e-08
2.58019e-06
8.07335e-08
-8.06099e-08
2.73323e-06
8.34357e-08
-8.55079e-08
2.8972e-06
8.62232e-08
-9.04559e-08
3.0747e-06
9.07067e-08
-9.53928e-08
3.26915e-06
9.77172e-08
-1.00251e-07
3.48419e-06
1.07483e-07
-1.04999e-07
3.72303e-06
1.19712e-07
-1.0976e-07
3.98782e-06
1.33699e-07
-1.15155e-07
4.27796e-06
1.47531e-07
-1.21175e-07
4.59346e-06
1.61512e-07
-1.30237e-07
4.92668e-06
1.70395e-07
-1.36812e-07
5.29231e-06
1.90149e-07
-1.56282e-07
5.65279e-06
1.82531e-07
-1.4604e-07
6.10623e-06
2.48686e-07
-2.06915e-07
6.4635e-06
1.7829e-07
-1.28032e-07
7.05164e-06
3.19167e-07
-2.76047e-07
7.45544e-06
2.89591e-07
-1.49705e-07
7.94917e-06
5.44864e-08
-1.65833e-07
9.40723e-07
-5.31025e-07
1.16209e-06
-1.84721e-08
1.19364e-06
-1.97047e-08
1.22765e-06
-2.09967e-08
1.26435e-06
-2.23382e-08
1.304e-06
-2.373e-08
1.3469e-06
-2.51803e-08
1.39344e-06
-2.66895e-08
1.44408e-06
-2.82599e-08
1.49936e-06
-2.99041e-08
1.55997e-06
-3.16432e-08
1.62672e-06
-3.35085e-08
1.70055e-06
-3.55411e-08
1.78247e-06
-3.78025e-08
1.87347e-06
-4.03626e-08
1.97449e-06
-4.33522e-08
2.08618e-06
-4.6927e-08
2.20877e-06
-5.12473e-08
2.34202e-06
-5.64574e-08
2.48536e-06
-6.26099e-08
2.63844e-06
-6.96408e-08
2.80206e-06
-7.73969e-08
2.97848e-06
-8.57151e-08
3.17068e-06
-9.44788e-08
3.38174e-06
-1.03582e-07
3.61442e-06
-1.12962e-07
3.87088e-06
-1.2276e-07
4.15104e-06
-1.3263e-07
4.45673e-06
-1.4418e-07
4.77924e-06
-1.52111e-07
5.14284e-06
-1.73457e-07
5.47598e-06
-1.50611e-07
5.97821e-06
-2.53543e-07
6.17984e-06
-2.33404e-08
7.03141e-06
-5.32402e-07
6.9436e-06
3.77408e-07
7.91314e-06
-9.15055e-07
3.2172e-07
1.28563e-06
-5.345e-09
-4.27752e-08
1.31709e-06
-5.53596e-09
-4.53554e-08
1.3502e-06
-5.64981e-09
-4.79242e-08
1.38478e-06
-5.63493e-09
-5.03921e-08
1.42055e-06
-5.41223e-09
-5.26202e-08
1.45695e-06
-4.85686e-09
-5.43968e-08
1.49311e-06
-3.76335e-09
-5.53838e-08
1.52748e-06
-1.7729e-09
-5.50225e-08
1.55746e-06
1.70017e-09
-5.23062e-08
1.57837e-06
7.92026e-09
-4.53711e-08
1.58149e-06
1.91687e-08
-3.06694e-08
1.54973e-06
4.03733e-08
-5.69664e-10
1.44804e-06
8.2148e-08
6.16469e-08
1.19842e-06
1.69724e-07
1.97004e-07
6.16456e-07
3.63486e-07
5.16863e-07
-7.35495e-07
8.1594e-07
1.30594e-06
-4.38346e-06
2.06147e-06
3.51981e-06
-1.10107e-05
3.71802e-06
5.43535e-06
-1.49358e-05
1.99622e-06
3.23951e-06
-1.28694e-05
-1.3928e-06
-4.4087e-07
-9.84496e-06
-1.67455e-06
-5.27058e-07
-9.04541e-06
-6.70503e-07
3.29562e-07
-9.24337e-06
-7.96531e-07
2.23759e-07
-9.65185e-06
-8.64794e-07
1.17097e-06
-1.06746e-05
-1.92625e-08
4.79765e-06
-1.4472e-05
2.12043e-06
1.16062e-05
-2.48768e-05
5.03917e-06
1.57225e-05
-3.94128e-05
6.29532e-06
1.07844e-05
-4.80947e-05
3.75744e-06
3.8602e-06
-4.79367e-05
3.43763e-07
1.02221e-07
-4.54951e-05
-5.99069e-07
-3.81413e-06
-4.31339e-05
-8.02667e-07
-6.4722e-06
-3.87594e-05
-9.42057e-07
-6.04158e-06
-3.22648e-05
-1.18063e-06
-4.7995e-06
-2.7253e-05
-1.82939e-06
-1.51758e-06
-2.53088e-05
-2.37131e-06
1.33478e-06
-3.40737e-06
3.42649e-06
1.34892e-06
-6.30335e-09
-5.73495e-08
1.38141e-06
-6.37037e-09
-6.10532e-08
1.41567e-06
-6.27007e-09
-6.48287e-08
1.45156e-06
-5.90618e-09
-6.85958e-08
1.48882e-06
-5.13482e-09
-7.22357e-08
1.52703e-06
-3.73849e-09
-7.55668e-08
1.56547e-06
-1.38629e-09
-7.83059e-08
1.60305e-06
2.47521e-09
-7.9991e-08
1.63795e-06
8.73011e-09
-7.98533e-08
1.66739e-06
1.89339e-08
-7.6482e-08
1.68698e-06
3.58309e-08
-6.73652e-08
1.69004e-06
6.45229e-08
-4.80339e-08
1.66677e-06
1.14787e-07
-1.00758e-08
1.60518e-06
2.0674e-07
6.3002e-08
1.49948e-06
3.80358e-07
2.02272e-07
1.38348e-06
7.20543e-07
4.65293e-07
1.61294e-06
1.40009e-06
9.68301e-07
1.97326e-06
2.49279e-06
1.46396e-06
1.47401e-06
2.36187e-06
-7.22768e-07
4.93609e-07
8.60142e-07
-3.21107e-06
5.05928e-08
2.22483e-07
-2.65069e-06
4.20684e-07
2.00184e-07
-1.90757e-06
6.36158e-07
-2.92761e-08
-1.96929e-06
3.33217e-07
9.08746e-08
-1.50946e-06
-2.6326e-07
9.42645e-07
1.72301e-07
-8.99306e-07
2.6666e-06
3.89329e-06
-2.66252e-06
4.79623e-06
7.92274e-06
-5.70717e-06
5.01439e-06
4.66233e-06
-7.59565e-06
3.03735e-06
-3.09786e-06
-7.54933e-06
1.21648e-06
-5.79083e-06
-7.02368e-06
1.32768e-07
-6.80964e-06
-6.53158e-06
-3.34956e-07
-9.26998e-06
-5.58336e-06
2.36962e-07
-1.01685e-05
-4.20634e-06
1.38772e-06
-1.13694e-05
-3.19172e-06
1.98892e-06
-1.14679e-05
-3.3369e-06
2.32147e-06
-9.32886e-06
2.326e-06
-5.57239e-06
1.35767e-06
-4.80396e-09
-6.40826e-08
1.39035e-06
-4.60013e-09
-6.8323e-08
1.42488e-06
-4.14357e-09
-7.26846e-08
1.46116e-06
-3.3034e-09
-7.7093e-08
1.49901e-06
-1.88631e-09
-8.14563e-08
1.5381e-06
3.94323e-10
-8.56277e-08
1.57787e-06
3.98489e-09
-8.93572e-08
1.61739e-06
9.57477e-09
-9.22043e-08
1.65519e-06
1.82762e-08
-9.34135e-08
1.68891e-06
3.19013e-08
-9.17724e-08
1.71497e-06
5.34512e-08
-8.51297e-08
1.72806e-06
8.79721e-08
-6.96447e-08
1.72092e-06
1.4402e-07
-3.83853e-08
1.68643e-06
2.36153e-07
2.12409e-08
1.62469e-06
3.87103e-07
1.32269e-07
1.57035e-06
6.32604e-07
3.28296e-07
1.68739e-06
9.97853e-07
6.53265e-07
2.18827e-06
1.50631e-06
1.09179e-06
2.65935e-06
1.32915e-06
1.20393e-06
2.70245e-06
3.76766e-07
1.19469e-06
2.52235e-06
5.63345e-08
1.39181e-06
2.31009e-06
1.55519e-07
1.28698e-06
1.99427e-06
1.00486e-07
1.04464e-06
1.63941e-06
2.27141e-07
1.11792e-06
1.35644e-06
8.06948e-07
1.72119e-06
1.44549e-06
1.84564e-06
3.00225e-06
1.7626e-06
3.26105e-06
4.97109e-06
1.35052e-06
3.58307e-06
5.22571e-06
5.66386e-07
2.18727e-06
3.57811e-06
3.2567e-08
8.95056e-07
2.75756e-06
-5.0993e-07
2.1969e-07
2.66946e-06
-1.12491e-06
-1.38165e-07
1.5985e-06
-1.4039e-06
1.50553e-07
-1.71875e-07
-1.01262e-06
1.28492e-06
-2.15022e-06
1.34185e-08
1.8768e-06
-3.35386e-06
1.26009e-06
2.4562e-06
-4.2358e-06
2.54436e-06
-4.49494e-06
1.35941e-06
-2.19462e-09
-6.65329e-08
1.39228e-06
-1.68705e-09
-7.0988e-08
1.42711e-06
-8.61504e-10
-7.55936e-08
1.46386e-06
4.31869e-10
-8.0292e-08
1.50244e-06
2.41948e-09
-8.50119e-08
1.54266e-06
5.4048e-09
-8.96502e-08
1.58424e-06
9.84707e-09
-9.40162e-08
1.62676e-06
1.6408e-08
-9.77907e-08
1.66971e-06
2.608e-08
-1.00504e-07
1.71244e-06
4.04519e-08
-1.01438e-07
1.75437e-06
6.1891e-08
-9.94481e-08
1.79548e-06
9.40472e-08
-9.27672e-08
1.83754e-06
1.42437e-07
-7.8774e-08
1.88696e-06
2.15214e-07
-5.39396e-08
1.95999e-06
3.23237e-07
-1.36107e-08
2.09445e-06
4.78564e-07
4.6741e-08
2.36084e-06
6.79662e-07
1.14384e-07
2.88585e-06
9.04092e-07
1.54856e-07
3.2999e-06
9.23313e-07
-7.00903e-08
3.26012e-06
6.20757e-07
-4.45262e-07
3.18005e-06
4.21007e-07
-4.46129e-07
3.23755e-06
3.94451e-07
-3.46018e-07
3.23069e-06
4.01765e-07
-3.1733e-07
3.14699e-06
5.41043e-07
-1.74209e-07
3.12814e-06
9.09332e-07
2.31221e-07
3.38806e-06
1.45226e-06
9.05357e-07
4.16186e-06
2.10052e-06
1.7383e-06
4.83668e-06
2.34228e-06
1.84723e-06
4.79002e-06
1.88376e-06
8.32016e-07
4.35069e-06
1.44086e-06
3.65572e-07
3.81417e-06
1.2189e-06
1.05452e-06
3.16108e-06
1.05523e-06
2.20246e-06
2.52464e-06
8.09951e-07
2.64676e-06
2.3017e-06
1.10156e-06
1.30604e-06
2.64625e-06
1.35139e-06
-5.93196e-07
3.31717e-06
2.06553e-06
-1.996e-06
2.47303e-06
-2.57685e-06
1.36009e-06
7.13582e-10
-6.71169e-08
1.39322e-06
1.49212e-09
-7.16594e-08
1.42842e-06
2.63511e-09
-7.63845e-08
1.46573e-06
4.29973e-09
-8.12485e-08
1.50513e-06
6.70759e-09
-8.61881e-08
1.54655e-06
1.01729e-08
-9.11102e-08
1.58985e-06
1.51457e-08
-9.58621e-08
1.63481e-06
2.22761e-08
-1.00191e-07
1.68102e-06
3.25137e-08
-1.03681e-07
1.72799e-06
4.72372e-08
-1.05679e-07
1.7752e-06
6.84005e-08
-1.05211e-07
1.82234e-06
9.87382e-08
-1.00794e-07
1.87002e-06
1.41885e-07
-9.02095e-08
1.92126e-06
2.02203e-07
-7.04231e-08
1.98404e-06
2.83982e-07
-3.78492e-08
2.07528e-06
3.89008e-07
1.13269e-08
2.22032e-06
5.07603e-07
7.69686e-08
2.45493e-06
6.12113e-07
1.49018e-07
2.70669e-06
6.02092e-07
1.87826e-07
2.86267e-06
4.15076e-07
1.8203e-07
2.94782e-06
3.12973e-07
1.69203e-07
3.01187e-06
3.31034e-07
1.38532e-07
3.06177e-06
3.62217e-07
1.14842e-07
3.13905e-06
4.57933e-07
1.43294e-07
3.31056e-06
6.81612e-07
2.55603e-07
3.63109e-06
9.97516e-07
4.54293e-07
4.16342e-06
1.34712e-06
7.14887e-07
4.73028e-06
1.50042e-06
8.50429e-07
5.10228e-06
1.27715e-06
7.28361e-07
5.32729e-06
1.06374e-06
6.35895e-07
5.43149e-06
1.04234e-06
7.41635e-07
5.38025e-06
1.20068e-06
1.06644e-06
5.20672e-06
1.28758e-06
1.80906e-06
5.1181e-06
1.41376e-06
2.50818e-06
5.07058e-06
1.30964e-06
2.41015e-06
5.28805e-06
1.48468e-06
1.60973e-06
1.70097e-06
6.52461e-07
1.36075e-06
3.51413e-09
-6.70313e-08
1.39418e-06
4.50482e-09
-7.16201e-08
1.42981e-06
5.87875e-09
-7.64154e-08
1.46774e-06
7.78625e-09
-8.13842e-08
1.50802e-06
1.04359e-08
-8.6479e-08
1.55071e-06
1.41156e-08
-9.16261e-08
1.59587e-06
1.92224e-08
-9.67151e-08
1.64357e-06
2.62974e-08
-1.01582e-07
1.69406e-06
3.60321e-08
-1.05994e-07
1.74777e-06
4.94496e-08
-1.09691e-07
1.80556e-06
6.79111e-08
-1.12317e-07
1.8691e-06
9.31017e-08
-1.13429e-07
1.94142e-06
1.27033e-07
-1.12528e-07
2.02768e-06
1.71731e-07
-1.09228e-07
2.13613e-06
2.28449e-07
-1.03667e-07
2.27865e-06
2.96064e-07
-9.75328e-08
2.46706e-06
3.67481e-07
-9.64056e-08
2.70684e-06
4.26503e-07
-1.12239e-07
2.94166e-06
4.43356e-07
-1.63835e-07
3.07704e-06
3.96148e-07
-2.52107e-07
3.17988e-06
3.55336e-07
-3.04283e-07
3.30651e-06
3.61059e-07
-3.18506e-07
3.43104e-06
4.00004e-07
-3.27803e-07
3.55973e-06
4.83826e-07
-3.1118e-07
3.74307e-06
6.26107e-07
-2.48225e-07
4.02209e-06
8.05932e-07
-1.4449e-07
4.4354e-06
9.82207e-07
-3.28527e-08
4.89849e-06
1.07552e-06
2.73236e-09
5.22866e-06
1.02801e-06
-1.01266e-07
5.45592e-06
9.74467e-07
-1.79401e-07
5.69295e-06
9.73356e-07
-1.28038e-07
6.01048e-06
1.07356e-06
3.20979e-08
6.3667e-06
1.19877e-06
2.50369e-07
6.76684e-06
1.44652e-06
5.7288e-07
7.14649e-06
1.52225e-06
7.98527e-07
7.60464e-06
1.59142e-06
1.0994e-06
1.68006e-06
6.77519e-07
1.36158e-06
6.04738e-09
-6.6909e-08
1.39532e-06
7.18511e-09
-7.15533e-08
1.4314e-06
8.70057e-09
-7.6428e-08
1.46995e-06
1.07279e-08
-8.15037e-08
1.51109e-06
1.34512e-08
-8.67418e-08
1.55496e-06
1.71203e-08
-9.20891e-08
1.60173e-06
2.20713e-08
-9.74693e-08
1.65161e-06
2.87553e-08
-1.02769e-07
1.70479e-06
3.77744e-08
-1.0782e-07
1.7616e-06
4.99272e-08
-1.12334e-07
1.82254e-06
6.61809e-08
-1.15939e-07
1.88853e-06
8.76346e-08
-1.18152e-07
1.96109e-06
1.15407e-07
-1.18382e-07
2.04271e-06
1.50308e-07
-1.16004e-07
2.13706e-06
1.92217e-07
-1.10549e-07
2.24899e-06
2.38972e-07
-1.02052e-07
2.3828e-06
2.84711e-07
-9.18117e-08
2.53914e-06
3.18488e-07
-8.29552e-08
2.70529e-06
3.26249e-07
-7.9909e-08
2.85789e-06
2.98676e-07
-8.5647e-08
3.00005e-06
2.76874e-07
-9.52378e-08
3.14585e-06
2.87582e-07
-1.06836e-07
3.30523e-06
3.19246e-07
-1.15159e-07
3.4931e-06
3.76178e-07
-1.13492e-07
3.73011e-06
4.65412e-07
-9.91253e-08
4.028e-06
5.76976e-07
-7.61492e-08
4.38729e-06
6.85858e-07
-5.4503e-08
4.77444e-06
7.54337e-07
-5.40316e-08
5.13372e-06
7.51461e-07
-8.21108e-08
5.46946e-06
7.43331e-07
-1.16569e-07
5.79852e-06
7.65878e-07
-1.20303e-07
6.13998e-06
8.65389e-07
-1.09425e-07
6.52778e-06
9.54186e-07
-1.32203e-08
7.00321e-06
1.1322e-06
6.68641e-08
7.53988e-06
1.20501e-06
1.61548e-07
8.13234e-06
1.2865e-06
2.28355e-07
1.41892e-06
7.718e-08
1.3625e-06
8.17472e-09
-6.67543e-08
1.39656e-06
9.39274e-09
-7.14577e-08
1.43308e-06
1.09612e-08
-7.6413e-08
1.47221e-06
1.29891e-08
-8.15853e-08
1.51414e-06
1.56278e-08
-8.69465e-08
1.55909e-06
1.90789e-08
-9.24674e-08
1.60732e-06
2.36054e-08
-9.80998e-08
1.65918e-06
2.95461e-08
-1.03776e-07
1.71515e-06
3.7316e-08
-1.09416e-07
1.77604e-06
4.73736e-08
-1.14944e-07
1.84289e-06
6.0385e-08
-1.20334e-07
1.91724e-06
7.69723e-08
-1.25551e-07
2.00118e-06
9.76685e-08
-1.30652e-07
2.09753e-06
1.22703e-07
-1.35878e-07
2.20965e-06
1.51641e-07
-1.41816e-07
2.34087e-06
1.82872e-07
-1.49641e-07
2.49287e-06
2.13092e-07
-1.61369e-07
2.66249e-06
2.37368e-07
-1.79789e-07
2.83832e-06
2.50923e-07
-2.06689e-07
3.00098e-06
2.52382e-07
-2.42102e-07
3.15561e-06
2.54196e-07
-2.76331e-07
3.31985e-06
2.6819e-07
-3.04905e-07
3.49712e-06
2.97347e-07
-3.28974e-07
3.69308e-06
3.43102e-07
-3.4675e-07
3.92014e-06
4.05229e-07
-3.56367e-07
4.18927e-06
4.76431e-07
-3.59324e-07
4.50376e-06
5.42844e-07
-3.6292e-07
4.84817e-06
5.90189e-07
-3.79301e-07
5.18773e-06
6.088e-07
-4.12444e-07
5.52074e-06
6.27877e-07
-4.50497e-07
5.87089e-06
6.48786e-07
-4.69787e-07
6.25773e-06
7.26527e-07
-4.82358e-07
6.70287e-06
7.66503e-07
-4.65702e-07
7.19004e-06
9.26426e-07
-4.56799e-07
7.74232e-06
9.56214e-07
-4.4738e-07
8.34091e-06
1.03514e-06
-4.16807e-07
1.21801e-06
-5.45754e-07
1.36324e-06
9.56757e-09
-6.59963e-08
1.39761e-06
1.07809e-08
-7.07016e-08
1.43452e-06
1.22976e-08
-7.56722e-08
1.47417e-06
1.41959e-08
-8.0867e-08
1.51679e-06
1.65896e-08
-8.6269e-08
1.56264e-06
1.96297e-08
-9.18677e-08
1.61205e-06
2.35096e-08
-9.76344e-08
1.6654e-06
2.84742e-08
-1.03534e-07
1.7232e-06
3.48291e-08
-1.09529e-07
1.78598e-06
4.29452e-08
-1.15556e-07
1.8545e-06
5.32362e-08
-1.21486e-07
1.9297e-06
6.6069e-08
-1.27189e-07
2.01279e-06
8.16797e-08
-1.32537e-07
2.10521e-06
1.00038e-07
-1.37466e-07
2.20856e-06
1.20608e-07
-1.42033e-07
2.32432e-06
1.42059e-07
-1.4648e-07
2.45322e-06
1.62084e-07
-1.51314e-07
2.59451e-06
1.77644e-07
-1.57287e-07
2.74546e-06
1.86305e-07
-1.64982e-07
2.90233e-06
1.8798e-07
-1.74695e-07
3.06615e-06
1.89979e-07
-1.85866e-07
3.24182e-06
1.99907e-07
-1.981e-07
3.43497e-06
2.19496e-07
-2.10476e-07
3.65192e-06
2.49143e-07
-2.21971e-07
3.89924e-06
2.88461e-07
-2.32623e-07
4.18038e-06
3.34034e-07
-2.44305e-07
4.4936e-06
3.78276e-07
-2.59329e-07
4.83056e-06
4.14949e-07
-2.82049e-07
5.17996e-06
4.36831e-07
-3.08524e-07
5.5396e-06
4.6374e-07
-3.45054e-07
5.91985e-06
4.80386e-07
-3.63358e-07
6.31676e-06
5.57662e-07
-4.14531e-07
6.769e-06
5.56966e-07
-3.9154e-07
7.23176e-06
7.14567e-07
-4.71662e-07
7.78585e-06
6.84578e-07
-4.25899e-07
8.34938e-06
7.49263e-07
-4.88056e-07
9.9299e-07
-6.07651e-07
1.36266e-06
9.55102e-09
-6.35554e-08
1.39729e-06
1.06272e-08
-6.80989e-08
1.43453e-06
1.19386e-08
-7.29037e-08
1.47461e-06
1.35303e-08
-7.79303e-08
1.51778e-06
1.54763e-08
-8.31709e-08
1.56435e-06
1.78762e-08
-8.86254e-08
1.61466e-06
2.08546e-08
-9.42778e-08
1.66918e-06
2.45652e-08
-1.00116e-07
1.72848e-06
2.91938e-08
-1.06137e-07
1.79328e-06
3.49417e-08
-1.12351e-07
1.86459e-06
4.1956e-08
-1.18752e-07
1.94355e-06
5.0514e-08
-1.25462e-07
2.03152e-06
6.06989e-08
-1.32635e-07
2.13002e-06
7.24334e-08
-1.40523e-07
2.24057e-06
8.5384e-08
-1.49549e-07
2.36429e-06
9.88492e-08
-1.60327e-07
2.50146e-06
1.11757e-07
-1.73643e-07
2.65083e-06
1.22904e-07
-1.90316e-07
2.80962e-06
1.31567e-07
-2.10662e-07
2.97443e-06
1.38204e-07
-2.34522e-07
3.14587e-06
1.45469e-07
-2.60558e-07
3.32845e-06
1.56414e-07
-2.875e-07
3.52644e-06
1.72696e-07
-3.14793e-07
3.74387e-06
1.94721e-07
-3.41827e-07
3.98512e-06
2.21673e-07
-3.68242e-07
4.25367e-06
2.51347e-07
-3.94494e-07
4.5501e-06
2.79538e-07
-4.21142e-07
4.87138e-06
3.04816e-07
-4.51419e-07
5.2122e-06
3.21188e-07
-4.81279e-07
5.57062e-06
3.47324e-07
-5.19674e-07
5.95605e-06
3.48986e-07
-5.37997e-07
6.36348e-06
4.23986e-07
-5.92482e-07
6.8256e-06
3.73992e-07
-5.73312e-07
7.29829e-06
5.46227e-07
-6.56445e-07
7.84302e-06
4.5348e-07
-6.44604e-07
8.41438e-06
5.16058e-07
-6.26638e-07
7.92869e-07
-9.5145e-07
1.35472e-06