/*--------------------------------*- C++ -*----------------------------------*\
| =========                 |                                                 |
| \\      /  F ield         | OpenFOAM: The Open Source CFD Toolbox           |
|  \\    /   O peration     | Version:  2.3.1                                 |
|   \\  /    A nd           | Web:      www.OpenFOAM.org                      |
|    \\/     M anipulation  |                                                 |
\*---------------------------------------------------------------------------*/
FoamFile
{
    version     2.0;
    format      ascii;
    class       surfaceScalarField;
    location    "15";
    object      phi_0;
}
// * * * * * * * * * * * * * * * * * * * * * * * * * * * * * * * * * * * * * //

dimensions      [0 3 -1 0 0 0 0];

internalField   nonuniform List<scalar> 
107940
(
1.15604e-06
-9.23264e-09
-1.83765e-08
1.18521e-06
-9.73583e-09
-1.94372e-08
1.21587e-06
-1.01842e-08
-2.04761e-08
1.24785e-06
-1.05273e-08
-2.1447e-08
1.28081e-06
-1.06888e-08
-2.22772e-08
1.31422e-06
-1.05485e-08
-2.28551e-08
1.34713e-06
-9.90465e-09
-2.30049e-08
1.37795e-06
-8.38778e-09
-2.24389e-08
1.40393e-06
-5.33295e-09
-2.06453e-08
1.42022e-06
2.72034e-10
-1.65603e-08
1.41742e-06
1.12234e-08
-8.42978e-09
1.37698e-06
3.24725e-08
7.97572e-09
1.2596e-06
7.53879e-08
4.19876e-08
9.75161e-07
1.67592e-07
1.16848e-07
3.00186e-07
3.77184e-07
2.97791e-07
-1.35569e-06
8.87523e-07
7.68355e-07
-5.56362e-06
2.27647e-06
1.93146e-06
-1.17859e-05
3.6937e-06
2.52854e-06
-1.43891e-05
1.28871e-06
1.31454e-06
-1.28372e-05
-1.78304e-06
2.31156e-07
-1.26585e-05
-9.99361e-07
8.20657e-07
-1.3608e-05
4.87988e-07
4.61512e-07
-1.27033e-05
-1.33119e-07
-7.71613e-07
-1.20484e-05
-5.36964e-07
-1.17938e-07
-1.6745e-05
9.84772e-07
3.71189e-06
-3.11856e-05
4.56322e-06
9.87737e-06
-4.88524e-05
7.27285e-06
1.03939e-05
-5.50362e-05
3.55761e-06
2.62623e-06
-5.31658e-05
-8.16539e-07
-1.05394e-06
-5.30526e-05
-7.14091e-07
6.00899e-07
-4.90424e-05
-2.0732e-06
-1.93694e-06
-4.04239e-05
-3.7004e-06
-4.9181e-06
-3.53701e-05
-2.40773e-06
-2.64614e-06
-3.44902e-05
-1.38017e-06
5.00327e-07
-3.49506e-05
-1.21307e-06
1.67341e-06
-3.44907e-05
-1.37866e-06
9.18791e-07
-2.0711e-06
9.63854e-07
1.23562e-06
-1.02906e-08
-2.76214e-08
1.26597e-06
-1.06912e-08
-2.93931e-08
1.29793e-06
-1.09489e-08
-3.11952e-08
1.33135e-06
-1.09694e-08
-3.29855e-08
1.36598e-06
-1.06135e-08
-3.47015e-08
1.40135e-06
-9.66822e-09
-3.62512e-08
1.43674e-06
-7.8077e-09
-3.74901e-08
1.471e-06
-4.46349e-09
-3.81821e-08
1.50227e-06
1.32873e-09
-3.79338e-08
1.52757e-06
1.10299e-08
-3.60579e-08
1.54238e-06
2.75552e-08
-3.11376e-08
1.53952e-06
5.62093e-08
-2.08754e-08
1.5084e-06
1.07308e-07
-7.99257e-10
1.43519e-06
2.02518e-07
3.82849e-08
1.31298e-06
3.86216e-07
1.1317e-07
1.19282e-06
7.5424e-07
2.53449e-07
1.4292e-06
1.50457e-06
5.35525e-07
1.88446e-06
2.63776e-06
6.00676e-07
1.65044e-06
2.37613e-06
-8.53399e-07
6.77184e-07
1.12991e-06
-1.9397e-06
-2.05006e-07
1.08275e-06
-1.19993e-06
-3.04585e-07
1.25535e-06
-6.67787e-07
-3.61701e-07
9.11197e-07
-9.872e-07
-1.01564e-06
9.78308e-07
-8.61335e-07
-2.61237e-06
2.05687e-06
5.24636e-07
-6.27939e-06
4.44859e-06
3.78166e-06
-1.20222e-05
7.08461e-06
5.9311e-06
-1.49652e-05
6.11028e-06
3.90306e-07
-1.3283e-05
3.19177e-06
-5.69058e-06
-1.14031e-05
2.28169e-06
-4.87566e-06
-1.01773e-05
2.2407e-06
-5.53969e-06
-8.50192e-06
2.938e-06
-8.31377e-06
-7.13547e-06
4.28348e-06
-8.05766e-06
-5.87856e-06
4.79482e-06
-7.43191e-06
-4.9724e-06
4.52357e-06
-6.64281e-06
-5.60642e-06
4.04991e-06
-4.79455e-06
3.6195e-06
-1.37499e-06
1.25047e-06
-7.40078e-09
-3.17752e-08
1.28109e-06
-7.43661e-09
-3.38757e-08
1.31341e-06
-7.23961e-09
-3.60345e-08
1.34734e-06
-6.68176e-09
-3.82117e-08
1.38266e-06
-5.57269e-09
-4.03605e-08
1.41902e-06
-3.61662e-09
-4.24122e-08
1.45585e-06
-4.0639e-10
-4.4228e-08
1.49216e-06
4.80881e-09
-4.55913e-08
1.52643e-06
1.31449e-08
-4.60843e-08
1.55612e-06
2.64389e-08
-4.51005e-08
1.57737e-06
4.77884e-08
-4.14791e-08
1.58432e-06
8.24118e-08
-3.31551e-08
1.56874e-06
1.39256e-07
-1.63654e-08
1.5215e-06
2.33718e-07
1.60426e-08
1.44017e-06
3.90472e-07
7.70712e-08
1.36035e-06
6.4835e-07
1.85712e-07
1.45796e-06
1.03931e-06
3.67639e-07
1.92999e-06
1.5597e-06
6.06039e-07
2.36347e-06
1.29997e-06
6.42665e-07
2.38279e-06
3.56717e-07
7.5388e-07
2.15951e-06
2.61139e-07
1.0449e-06
1.86132e-06
5.23713e-07
1.02983e-06
1.43875e-06
4.75788e-07
8.57977e-07
9.3608e-07
5.83664e-07
8.97318e-07
4.19517e-07
1.27503e-06
1.2984e-06
-4.94315e-08
2.65557e-06
2.26197e-06
-1.21458e-06
4.50111e-06
3.74865e-06
-2.90997e-06
4.41439e-06
3.39128e-06
-3.90781e-06
2.23741e-06
1.9522e-06
-4.83945e-06
1.30758e-06
1.90575e-06
-6.36255e-06
1.54765e-06
2.21615e-06
-6.92278e-06
2.31708e-06
1.18115e-06
-6.03287e-06
3.93021e-06
-5.36639e-07
-4.83996e-06
5.46205e-06
-1.86014e-06
-3.5653e-06
5.68742e-06
-2.43851e-06
-2.08493e-06
5.42334e-06
-2.8538e-06
4.9619e-06
-2.95746e-06
1.25513e-06
-3.45282e-09
-3.29984e-08
1.28599e-06
-3.0929e-09
-3.52063e-08
1.31867e-06
-2.42972e-09
-3.74871e-08
1.35311e-06
-1.31711e-09
-3.98082e-08
1.38921e-06
4.58088e-10
-4.2133e-08
1.42679e-06
3.23199e-09
-4.44204e-08
1.46552e-06
7.44826e-09
-4.65836e-08
1.50499e-06
1.37811e-08
-4.84435e-08
1.54467e-06
2.32267e-08
-4.97623e-08
1.58388e-06
3.74007e-08
-5.01765e-08
1.62205e-06
5.87147e-08
-4.90979e-08
1.65916e-06
9.09142e-08
-4.56135e-08
1.69705e-06
1.39711e-07
-3.83405e-08
1.74266e-06
2.13625e-07
-2.55224e-08
1.81333e-06
3.2434e-07
-4.53756e-09
1.94947e-06
4.85162e-07
2.70488e-08
2.23056e-06
6.95767e-07
6.24577e-08
2.78157e-06
9.3104e-07
7.76471e-08
3.19502e-06
9.48066e-07
-6.15424e-08
3.12673e-06
6.66171e-07
-2.41156e-07
3.02958e-06
5.20379e-07
-1.62095e-07
3.08447e-06
5.18942e-07
-5.01193e-08
3.06793e-06
5.15855e-07
-2.35304e-08
2.94844e-06
6.48338e-07
5.4822e-08
2.86187e-06
1.04889e-06
3.12711e-07
3.05762e-06
1.69091e-06
7.68902e-07
3.69423e-06
2.51484e-06
1.34965e-06
4.03911e-06
2.78476e-06
1.28475e-06
3.59556e-06
2.19468e-06
4.86273e-07
2.62307e-06
1.80667e-06
4.73403e-07
8.45421e-07
1.80765e-06
1.51765e-06
-1.66684e-06
2.08676e-06
2.74259e-06
-3.28347e-06
2.87604e-06
2.67079e-06
-3.0561e-06
4.33247e-06
9.0221e-07
-1.86414e-06
5.26771e-06
-7.72246e-07
-6.72095e-07
5.94611e-06
-1.71481e-06
5.74483e-06
-1.8762e-06
1.2571e-06
4.2497e-10
-3.31152e-08
1.28824e-06
1.1247e-09
-3.53551e-08
1.32132e-06
2.17556e-09
-3.76824e-08
1.35634e-06
3.7351e-09
-4.00756e-08
1.39328e-06
6.02781e-09
-4.25089e-08
1.43207e-06
9.37255e-09
-4.4929e-08
1.47256e-06
1.42212e-08
-4.72627e-08
1.51449e-06
2.12283e-08
-4.93765e-08
1.55741e-06
3.13504e-08
-5.10505e-08
1.60077e-06
4.59786e-08
-5.1936e-08
1.6439e-06
6.70953e-08
-5.15126e-08
1.6863e-06
9.74934e-08
-4.89809e-08
1.72823e-06
1.4091e-07
-4.31233e-08
1.77227e-06
2.01831e-07
-3.22494e-08
1.82628e-06
2.8473e-07
-1.43971e-08
1.90693e-06
3.91593e-07
1.29211e-08
2.04045e-06
5.12404e-07
4.98443e-08
2.26297e-06
6.16961e-07
9.15568e-08
2.49727e-06
5.95419e-07
1.18344e-07
2.63701e-06
3.94175e-07
1.32256e-07
2.70946e-06
3.01724e-07
1.46203e-07
2.75558e-06
3.33809e-07
1.39018e-07
2.77826e-06
3.68223e-07
1.2495e-07
2.82328e-06
4.66291e-07
1.37025e-07
2.96588e-06
7.07591e-07
1.987e-07
3.2727e-06
1.06492e-06
3.1917e-07
3.81469e-06
1.47973e-06
4.9312e-07
4.36495e-06
1.65871e-06
5.75797e-07
4.67516e-06
1.3898e-06
4.9467e-07
4.79212e-06
1.20511e-06
4.84604e-07
4.61312e-06
1.31688e-06
6.69775e-07
3.85701e-06
1.68238e-06
1.16048e-06
2.49583e-06
2.12511e-06
2.11211e-06
1.20486e-06
2.89187e-06
2.73156e-06
6.48208e-07
3.50213e-06
2.32224e-06
1.06943e-06
4.27668e-06
1.24821e-06
4.37797e-06
4.61204e-07
1.25821e-06
3.9134e-09
-3.29317e-08
1.28965e-06
4.8743e-09
-3.51852e-08
1.32315e-06
6.20809e-09
-3.75385e-08
1.3588e-06
8.06928e-09
-3.99758e-08
1.39663e-06
1.06699e-08
-4.24747e-08
1.4367e-06
1.43009e-08
-4.49977e-08
1.47905e-06
1.93604e-08
-4.74881e-08
1.52375e-06
2.63906e-08
-4.98614e-08
1.57102e-06
3.60732e-08
-5.20003e-08
1.62134e-06
4.94464e-08
-5.37807e-08
1.67558e-06
6.78836e-08
-5.50316e-08
1.73553e-06
9.30899e-08
-5.5544e-08
1.8044e-06
1.2712e-07
-5.50794e-08
1.88763e-06
1.72057e-07
-5.34609e-08
1.99394e-06
2.29205e-07
-5.07886e-08
2.13603e-06
2.97497e-07
-4.79941e-08
2.32684e-06
3.69741e-07
-4.81415e-08
2.57267e-06
4.29213e-07
-5.80805e-08
2.81092e-06
4.44886e-07
-8.77193e-08
2.94366e-06
3.97094e-07
-1.35661e-07
3.04502e-06
3.5956e-07
-1.59189e-07
3.17251e-06
3.68328e-07
-1.62014e-07
3.29679e-06
4.09641e-07
-1.65694e-07
3.42063e-06
4.99324e-07
-1.56876e-07
3.59476e-06
6.54233e-07
-1.20771e-07
3.86318e-06
8.53937e-07
-5.74417e-08
4.27301e-06
1.05457e-06
1.53353e-08
4.72778e-06
1.16273e-06
4.12228e-08
5.0224e-06
1.11471e-06
-1.95458e-08
5.19425e-06
1.0741e-06
-4.08396e-08
5.36532e-06
1.10536e-06
4.04521e-08
5.5534e-06
1.27156e-06
2.22744e-07
5.645e-06
1.51589e-06
5.17624e-07
5.56526e-06
1.96646e-06
1.00516e-06
5.42977e-06
2.24753e-06
1.39008e-06
5.44802e-06
2.59467e-06
1.66376e-06
2.89028e-06
1.14758e-06
1.25901e-06
7.09494e-09
-3.28464e-08
1.29075e-06
8.25605e-09
-3.51302e-08
1.3247e-06
9.78768e-09
-3.75266e-08
1.36096e-06
1.18316e-08
-4.00206e-08
1.39965e-06
1.45755e-08
-4.25934e-08
1.4409e-06
1.82694e-08
-4.5217e-08
1.48486e-06
2.32497e-08
-4.78526e-08
1.53172e-06
2.99678e-08
-5.04426e-08
1.58167e-06
3.90239e-08
-5.28988e-08
1.63497e-06
5.12171e-08
-5.50639e-08
1.69207e-06
6.75107e-08
-5.67341e-08
1.7538e-06
8.90091e-08
-5.76461e-08
1.82155e-06
1.16834e-07
-5.74689e-08
1.89766e-06
1.51786e-07
-5.5838e-08
1.98562e-06
1.93706e-07
-5.2454e-08
2.09003e-06
2.40333e-07
-4.72527e-08
2.21503e-06
2.85549e-07
-4.08059e-08
2.3611e-06
3.17819e-07
-3.46726e-08
2.51466e-06
3.22219e-07
-3.08935e-08
2.65271e-06
2.89598e-07
-3.05578e-08
2.77943e-06
2.64423e-07
-3.1585e-08
2.90853e-06
2.738e-07
-3.45704e-08
3.05049e-06
3.04284e-07
-3.6602e-08
3.22218e-06
3.61004e-07
-3.33633e-08
3.44687e-06
4.52453e-07
-2.29161e-08
3.73811e-06
5.69999e-07
-7.30107e-09
4.0968e-06
6.87427e-07
8.44823e-09
4.48531e-06
7.62149e-07
1.20754e-08
4.84084e-06
7.58328e-07
8.51663e-10
5.1718e-06
7.54837e-07
-1.16926e-08
5.48622e-06
7.89419e-07
1.52111e-09
5.81383e-06
9.19911e-07
2.40399e-08
6.15868e-06
1.041e-06
1.30039e-07
6.59667e-06
1.30058e-06
2.2788e-07
7.00955e-06
1.45377e-06
3.80887e-07
7.50563e-06
1.58309e-06
5.15496e-07
1.92449e-06
4.34647e-07
1.25943e-06
1.00706e-08
-3.28595e-08
1.29148e-06
1.13897e-08
-3.51862e-08
1.32585e-06
1.30577e-08
-3.76387e-08
1.36269e-06
1.51921e-08
-4.01958e-08
1.40216e-06
1.79467e-08
-4.28428e-08
1.44447e-06
2.15226e-08
-4.5566e-08
1.48988e-06
2.61833e-08
-4.83416e-08
1.53872e-06
3.22659e-08
-5.11348e-08
1.59147e-06
4.01744e-08
-5.3905e-08
1.64895e-06
5.03647e-08
-5.66225e-08
1.71223e-06
6.35095e-08
-5.92848e-08
1.7829e-06
8.02232e-08
-6.18818e-08
1.86315e-06
1.01041e-07
-6.44551e-08
1.95589e-06
1.26186e-07
-6.71468e-08
2.06468e-06
1.55206e-07
-7.029e-08
2.19308e-06
1.86468e-07
-7.45374e-08
2.34302e-06
2.16618e-07
-8.10061e-08
2.51149e-06
2.4065e-07
-9.12992e-08
2.68607e-06
2.53826e-07
-1.06191e-07
2.84629e-06
2.55123e-07
-1.25738e-07
2.99744e-06
2.57688e-07
-1.44417e-07
3.15813e-06
2.73207e-07
-1.60103e-07
3.33123e-06
3.04846e-07
-1.73661e-07
3.52158e-06
3.54596e-07
-1.83938e-07
3.74108e-06
4.22514e-07
-1.89564e-07
4.00093e-06
5.00935e-07
-1.90789e-07
4.30508e-06
5.74709e-07
-1.91432e-07
4.63795e-06
6.28215e-07
-1.98937e-07
4.96143e-06
6.50205e-07
-2.15356e-07
5.27389e-06
6.75103e-07
-2.32724e-07
5.60299e-06
6.96828e-07
-2.3651e-07
5.96401e-06
7.93091e-07
-2.34194e-07
6.39599e-06
8.17122e-07
-2.08105e-07
6.83863e-06
1.0333e-06
-1.75354e-07
7.40077e-06
1.03547e-06
-1.43848e-07
7.94356e-06
1.10999e-06
-6.96933e-08
1.46728e-06
-1.44185e-07
1.25885e-06
1.25919e-08
-3.26035e-08
1.29117e-06
1.40126e-08
-3.49468e-08
1.32591e-06
1.57448e-08
-3.74254e-08
1.36324e-06
1.78717e-08
-4.00106e-08
1.40337e-06
2.05084e-08
-4.26931e-08
1.44656e-06
2.38064e-08
-4.54713e-08
1.49311e-06
2.79604e-08
-4.83316e-08
1.54342e-06
3.32145e-08
-5.12552e-08
1.59795e-06
3.98691e-08
-5.42256e-08
1.65723e-06
4.82901e-08
-5.72069e-08
1.72198e-06
5.88844e-08
-6.01255e-08
1.7931e-06
7.20078e-08
-6.29028e-08
1.87172e-06
8.78808e-08
-6.54544e-08
1.95918e-06
1.06448e-07
-6.77272e-08
2.05698e-06
1.27134e-07
-6.97279e-08
2.16646e-06
1.48549e-07
-7.15553e-08
2.28822e-06
1.68293e-07
-7.34374e-08
2.42141e-06
1.83198e-07
-7.57438e-08
2.56313e-06
1.90771e-07
-7.86648e-08
2.70955e-06
1.90956e-07
-8.22498e-08
2.86202e-06
1.915e-07
-8.62802e-08
3.0257e-06
2.0026e-07
-9.07373e-08
3.20679e-06
2.18955e-07
-9.51964e-08
3.4123e-06
2.48081e-07
-9.89942e-08
3.64947e-06
2.87417e-07
-1.02076e-07
3.92222e-06
3.33732e-07
-1.05542e-07
4.22845e-06
3.79101e-07
-1.10622e-07
4.55979e-06
4.17115e-07
-1.20244e-07
4.90193e-06
4.3904e-07
-1.30977e-07
5.25731e-06
4.69135e-07
-1.49412e-07
5.62454e-06
4.80975e-07
-1.51376e-07
6.02471e-06
5.79278e-07
-1.8635e-07
6.44805e-06
5.42532e-07
-1.48753e-07
6.9286e-06
7.73422e-07
-2.20676e-07
7.42613e-06
6.81263e-07
-1.43319e-07
8.03329e-06
7.13298e-07
-2.10473e-07
1.25714e-06
-2.63327e-07
1.25533e-06
1.37163e-08
-3.13622e-08
1.28786e-06
1.51055e-08
-3.36238e-08
1.32288e-06
1.67484e-08
-3.60193e-08
1.36058e-06
1.86903e-08
-3.85191e-08
1.4012e-06
2.10052e-08
-4.11188e-08
1.44504e-06
2.37939e-08
-4.38227e-08
1.49244e-06
2.71823e-08
-4.66223e-08
1.54384e-06
3.13236e-08
-4.95095e-08
1.59979e-06
3.63979e-08
-5.24859e-08
1.66104e-06
4.25975e-08
-5.55579e-08
1.72861e-06
5.00518e-08
-5.87294e-08
1.80363e-06
5.90517e-08
-6.20663e-08
1.88749e-06
6.96797e-08
-6.56554e-08
1.98172e-06
8.18456e-08
-6.96346e-08
2.08788e-06
9.52128e-08
-7.42406e-08
2.20717e-06
1.09086e-07
-7.98181e-08
2.33986e-06
1.22409e-07
-8.68091e-08
2.48474e-06
1.34016e-07
-9.56989e-08
2.63883e-06
1.43301e-07
-1.0662e-07
2.79839e-06
1.50888e-07
-1.19488e-07
2.96389e-06
1.59634e-07
-1.33639e-07
3.13989e-06
1.72689e-07
-1.48423e-07
3.33068e-06
1.91772e-07
-1.63613e-07
3.54021e-06
2.17382e-07
-1.78829e-07
3.77273e-06
2.4868e-07
-1.93786e-07
4.0318e-06
2.83276e-07
-2.08614e-07
4.31779e-06
3.16541e-07
-2.23424e-07
4.62819e-06
3.46916e-07
-2.40208e-07
4.95619e-06
3.67057e-07
-2.56018e-07
5.30311e-06
3.99779e-07
-2.77564e-07
5.67064e-06
3.97316e-07
-2.83864e-07
6.0731e-06
4.95411e-07
-3.18592e-07
6.50191e-06
4.07784e-07
-2.94066e-07
6.99589e-06
6.31447e-07
-3.52006e-07
7.46452e-06
5.43396e-07
-3.30766e-07
8.08326e-06
3.8318e-07
-2.88617e-07
1.27362e-06
-5.77554e-07
1.24132e-06
1.08267e-08
-2.7376e-08
1.2739e-06
1.1842e-08
-2.93171e-08
1.30901e-06
1.30147e-08
-3.137e-08
1.34685e-06
1.43597e-08
-3.3513e-08
1.38769e-06
1.59109e-08
-3.57449e-08
1.43184e-06
1.77194e-08
-3.80716e-08
1.47966e-06
1.98468e-08
-4.04897e-08
1.53162e-06
2.23676e-08
-4.29988e-08
1.58825e-06
2.53708e-08
-4.56096e-08
1.65023e-06
2.89582e-08
-4.83382e-08
1.71826e-06
3.32317e-08
-5.12064e-08
1.79321e-06
3.82738e-08
-5.41768e-08
1.87604e-06
4.40949e-08
-5.72479e-08
1.96774e-06
5.06225e-08
-6.04684e-08
2.06919e-06
5.76388e-08
-6.38827e-08
2.1811e-06
6.47355e-08
-6.7555e-08
2.30373e-06
7.13226e-08
-7.15497e-08
2.4369e-06
7.67605e-08
-7.59141e-08
2.58013e-06
8.07016e-08
-8.06227e-08
2.73314e-06
8.33986e-08
-8.55206e-08
2.89706e-06
8.61771e-08
-9.04679e-08
3.0745e-06
9.06503e-08
-9.54027e-08
3.26888e-06
9.76537e-08
-1.00257e-07
3.48384e-06
1.0742e-07
-1.04999e-07
3.7226e-06
1.19662e-07
-1.0975e-07
3.98734e-06
1.33675e-07
-1.15131e-07
4.27746e-06
1.47549e-07
-1.21135e-07
4.59298e-06
1.61577e-07
-1.30177e-07
4.92627e-06
1.70511e-07
-1.36742e-07
5.29196e-06
1.90275e-07
-1.56186e-07
5.65255e-06
1.82701e-07
-1.45975e-07
6.10597e-06
2.48769e-07
-2.06785e-07
6.46331e-06
1.78431e-07
-1.27983e-07
7.05143e-06
3.19299e-07
-2.75971e-07
7.45497e-06
2.8932e-07
-1.49463e-07
7.94914e-06
5.52038e-08
-1.66192e-07
9.39846e-07
-5.30195e-07
1.16214e-06
-1.84764e-08
1.19369e-06
-1.97093e-08
1.22771e-06
-2.10017e-08
1.26441e-06
-2.23436e-08
1.30406e-06
-2.37359e-08
1.34696e-06
-2.51867e-08
1.39351e-06
-2.66964e-08
1.44414e-06
-2.82674e-08
1.49942e-06
-2.99122e-08
1.56003e-06
-3.16519e-08
1.62678e-06
-3.35178e-08
1.70061e-06
-3.55509e-08
1.78252e-06
-3.78128e-08
1.87351e-06
-4.03731e-08
1.97451e-06
-4.33628e-08
2.08619e-06
-4.69372e-08
2.20876e-06
-5.1257e-08
2.34199e-06
-5.64661e-08
2.48531e-06
-6.26177e-08
2.63836e-06
-6.96476e-08
2.80194e-06
-7.74024e-08
2.97831e-06
-8.57186e-08
3.17044e-06
-9.44788e-08
3.38143e-06
-1.03576e-07
3.61404e-06
-1.12949e-07
3.87045e-06
-1.22735e-07
4.1506e-06
-1.32592e-07
4.4563e-06
-1.44124e-07
4.77886e-06
-1.52048e-07
5.14249e-06
-1.73358e-07
5.47577e-06
-1.50578e-07
5.97786e-06
-2.53323e-07
6.17981e-06
-2.35221e-08
7.03102e-06
-5.31911e-07
6.94324e-06
3.77102e-07
7.91342e-06
-9.14979e-07
3.22857e-07
1.28568e-06
-5.34486e-09
-4.27835e-08
1.31714e-06
-5.53603e-09
-4.53648e-08
1.35025e-06
-5.65022e-09
-4.79349e-08
1.38484e-06
-5.63584e-09
-5.04044e-08
1.42061e-06
-5.41391e-09
-5.26345e-08
1.45703e-06
-4.85972e-09
-5.4414e-08
1.4932e-06
-3.76808e-09
-5.5405e-08
1.52759e-06
-1.78051e-09
-5.50496e-08
1.5576e-06
1.6875e-09
-5.23423e-08
1.57856e-06
7.89899e-09
-4.54221e-08
1.58175e-06
1.91311e-08
-3.07471e-08
1.55012e-06
4.03034e-08
-6.96967e-10
1.44868e-06
8.20109e-08
6.14125e-08
1.19955e-06
1.69439e-07
1.96542e-07
6.18758e-07
3.62811e-07
5.15774e-07
-7.30391e-07
8.1432e-07
1.30318e-06
-4.37066e-06
2.05718e-06
3.51455e-06
-1.0997e-05
3.71702e-06
5.4379e-06
-1.49376e-05
2.00529e-06
3.24981e-06
-1.28798e-05
-1.38804e-06
-4.38643e-07
-9.84917e-06
-1.67748e-06
-5.32453e-07
-9.04272e-06
-6.7324e-07
3.28309e-07
-9.23632e-06
-7.98583e-07
2.20564e-07
-9.63766e-06
-8.70586e-07
1.15399e-06
-1.06474e-05
-3.06774e-08
4.75232e-06
-1.43993e-05
2.09539e-06
1.15339e-05
-2.47317e-05
5.01843e-06
1.57079e-05
-3.92693e-05
6.30929e-06
1.08545e-05
-4.80582e-05
3.79941e-06
3.93554e-06
-4.79822e-05
3.77359e-07
1.47496e-07
-4.55507e-05
-5.87216e-07
-3.78121e-06
-4.31954e-05
-8.00236e-07
-6.47315e-06
-3.88385e-05
-9.42312e-07
-6.06067e-06
-3.23388e-05
-1.18148e-06
-4.81793e-06
-2.72984e-05
-1.83135e-06
-1.53569e-06
-2.53367e-05
-2.37102e-06
1.32816e-06
-3.40507e-06
3.42387e-06
1.34895e-06
-6.30368e-09
-5.73558e-08
1.38146e-06
-6.37115e-09
-6.10604e-08
1.41572e-06
-6.27151e-09
-6.48371e-08
1.45161e-06
-5.90861e-09
-6.86056e-08
1.48888e-06
-5.13871e-09
-7.22475e-08
1.5271e-06
-3.74455e-09
-7.55812e-08
1.56556e-06
-1.39559e-09
-7.83239e-08
1.60315e-06
2.46088e-09
-8.00141e-08
1.63808e-06
8.70779e-09
-7.98843e-08
1.66755e-06
1.88986e-08
-7.65255e-08
1.6872e-06
3.57737e-08
-6.74289e-08
1.69033e-06
6.44266e-08
-4.81328e-08
1.66716e-06
1.14618e-07
-1.02372e-08
1.60573e-06
2.06432e-07
6.27207e-08
1.50019e-06
3.79759e-07
2.01761e-07
1.3841e-06
7.19414e-07
4.64449e-07
1.61251e-06
1.39782e-06
9.66475e-07
1.97363e-06
2.49111e-06
1.46546e-06
1.47718e-06
2.36496e-06
-7.16621e-07
4.96709e-07
8.63154e-07
-3.21042e-06
5.26804e-08
2.21803e-07
-2.65518e-06
4.22368e-07
1.99165e-07
-1.90988e-06
6.39714e-07
-3.13451e-08
-1.97178e-06
3.38315e-07
8.60056e-08
-1.51653e-06
-2.58971e-07
9.3319e-07
1.58055e-07
-8.98218e-07
2.65097e-06
3.86532e-06
-2.65279e-06
4.78681e-06
7.91729e-06
-5.6878e-06
5.02484e-06
4.70977e-06
-7.58235e-06
3.05816e-06
-3.05477e-06
-7.54535e-06
1.23605e-06
-5.77135e-06
-7.02276e-06
1.4773e-07
-6.79722e-06
-6.53525e-06
-3.28528e-07
-9.27299e-06
-5.59195e-06
2.3564e-07
-1.01789e-05
-4.21692e-06
1.38483e-06
-1.13733e-05
-3.19891e-06
1.98723e-06
-1.14794e-05
-3.33653e-06
2.32038e-06
-9.34834e-06
2.32153e-06
-5.61013e-06
1.35771e-06
-4.80497e-09
-6.4088e-08
1.39039e-06
-4.60179e-09
-6.83293e-08
1.42492e-06
-4.14617e-09
-7.2692e-08
1.46121e-06
-3.30737e-09
-7.71017e-08
1.49907e-06
-1.8923e-09
-8.14668e-08
1.53817e-06
3.85377e-10
-8.56405e-08
1.57795e-06
3.97154e-09
-8.93733e-08
1.61749e-06
9.5548e-09
-9.22252e-08
1.65531e-06
1.8246e-08
-9.34416e-08
1.68906e-06
3.18551e-08
-9.18115e-08
1.71516e-06
5.33793e-08
-8.51866e-08
1.72831e-06
8.78584e-08
-6.97313e-08
1.72124e-06
1.43838e-07
-3.85225e-08
1.68685e-06
2.35857e-07
2.10154e-08
1.62516e-06
3.86626e-07
1.31894e-07
1.5707e-06
6.31858e-07
3.27723e-07
1.68694e-06
9.9678e-07
6.52447e-07
2.18729e-06
1.50547e-06
1.09132e-06
2.65957e-06
1.33069e-06
1.20466e-06
2.70386e-06
3.78297e-07
1.19444e-06
2.52397e-06
5.55925e-08
1.391e-06
2.31217e-06
1.54305e-07
1.28649e-06
1.99685e-06
9.8558e-08
1.04339e-06
1.64195e-06
2.23373e-07
1.11485e-06
1.35727e-06
8.01098e-07
1.71517e-06
1.44115e-06
1.83724e-06
2.99183e-06
1.75739e-06
3.2554e-06
4.96382e-06
1.35088e-06
3.58886e-06
5.23377e-06
5.70166e-07
2.19979e-06
3.59128e-06
3.81314e-08
9.0659e-07
2.76724e-06
-5.02992e-07
2.28632e-07
2.67637e-06
-1.11851e-06
-1.33755e-07
1.6019e-06
-1.4002e-06
1.50869e-07
-1.70181e-07
-1.01203e-06
1.28377e-06
-2.14724e-06
1.19773e-08
1.876e-06
-3.35129e-06
1.2579e-06
2.45553e-06
-4.23488e-06
2.54231e-06
-4.49534e-06
1.35944e-06
-2.19634e-09
-6.65379e-08
1.39232e-06
-1.68957e-09
-7.09937e-08
1.42715e-06
-8.65166e-10
-7.56003e-08
1.46391e-06
4.26543e-10
-8.02999e-08
1.50249e-06
2.41183e-09
-8.50214e-08
1.54272e-06
5.39378e-09
-8.96618e-08
1.58431e-06
9.83118e-09
-9.40305e-08
1.62685e-06
1.63851e-08
-9.7809e-08
1.66981e-06
2.60466e-08
-1.00528e-07
1.71256e-06
4.0403e-08
-1.01469e-07
1.75451e-06
6.18189e-08
-9.94914e-08
1.79564e-06
9.39401e-08
-9.28278e-08
1.83772e-06
1.42277e-07
-7.886e-08
1.88714e-06
2.14977e-07
-5.40623e-08
1.96012e-06
3.22892e-07
-1.37827e-08
2.09443e-06
4.78085e-07
4.65124e-08
2.36043e-06
6.79087e-07
1.14149e-07
2.88517e-06
9.03594e-07
1.54786e-07
3.30018e-06
9.23629e-07
-6.94925e-08
3.2613e-06
6.21218e-07
-4.45203e-07
3.18112e-06
4.20659e-07
-4.46976e-07
3.23861e-06
3.93604e-07
-3.46915e-07
3.23181e-06
4.0034e-07
-3.1851e-07
3.14754e-06
5.38677e-07
-1.76209e-07
3.12729e-06
9.06e-07
2.28059e-07
3.38394e-06
1.44837e-06
9.01112e-07
4.15526e-06
2.09821e-06
1.73553e-06
4.83271e-06
2.34495e-06
1.85121e-06
4.78996e-06
1.88962e-06
8.39178e-07
4.35296e-06
1.44682e-06
3.70171e-07
3.81808e-06
1.22399e-06
1.05717e-06
3.16509e-06
1.05864e-06
2.20319e-06
2.52756e-06
8.11637e-07
2.64755e-06
2.303e-06
1.10201e-06
1.30854e-06
2.64654e-06
1.35127e-06
-5.9105e-07
3.31695e-06
2.06528e-06
-1.99497e-06
2.47238e-06
-2.57697e-06
1.36012e-06
7.1124e-10
-6.71217e-08
1.39325e-06
1.48887e-09
-7.16648e-08
1.42847e-06
2.63059e-09
-7.63908e-08
1.46578e-06
4.29343e-09
-8.12559e-08
1.50518e-06
6.69879e-09
-8.61969e-08
1.54661e-06
1.01606e-08
-9.11208e-08
1.58992e-06
1.51283e-08
-9.58752e-08
1.63489e-06
2.22515e-08
-1.00208e-07
1.6811e-06
3.24789e-08
-1.03702e-07
1.72809e-06
4.71877e-08
-1.05706e-07
1.77531e-06
6.833e-08
-1.05248e-07
1.82248e-06
9.8638e-08
-1.00846e-07
1.87017e-06
1.41744e-07
-9.02816e-08
1.92141e-06
2.02009e-07
-7.05233e-08
1.98417e-06
2.83724e-07
-3.79857e-08
2.07534e-06
3.88687e-07
1.11506e-08
2.22023e-06
5.07267e-07
7.67694e-08
2.45469e-06
6.11845e-07
1.48854e-07
2.70667e-06
6.02187e-07
1.87801e-07
2.86296e-06
4.1521e-07
1.81972e-07
2.94821e-06
3.12564e-07
1.6905e-07
3.01227e-06
3.30279e-07
1.38288e-07
3.06204e-06
3.61113e-07
1.14399e-07
3.13887e-06
4.56343e-07
1.42528e-07
3.30952e-06
6.79607e-07
2.54452e-07
3.62865e-06
9.95507e-07
4.529e-07
4.15989e-06
1.34613e-06
7.13963e-07
4.72762e-06
1.50193e-06
8.51093e-07
5.10115e-06
1.28061e-06
7.30151e-07
5.32747e-06
1.06741e-06
6.37695e-07
5.43277e-06
1.04546e-06
7.43004e-07
5.38205e-06
1.20281e-06
1.06703e-06
5.20846e-06
1.28877e-06
1.80858e-06
5.11973e-06
1.41434e-06
2.50796e-06
5.07197e-06
1.30998e-06
2.41129e-06
5.289e-06
1.48482e-06
1.61164e-06
1.70068e-06
6.54519e-07
1.36079e-06
3.51133e-09
-6.7036e-08
1.39422e-06
4.50107e-09
-7.16255e-08
1.42985e-06
5.87369e-09
-7.64215e-08
1.46778e-06
7.77941e-09
-8.13912e-08
1.50807e-06
1.04265e-08
-8.64873e-08
1.55077e-06
1.41029e-08
-9.1636e-08
1.59593e-06
1.92048e-08
-9.67271e-08
1.64364e-06
2.62734e-08
-1.01596e-07
1.69413e-06
3.59991e-08
-1.06012e-07
1.74785e-06
4.94041e-08
-1.09713e-07
1.80564e-06
6.78487e-08
-1.12345e-07
1.86919e-06
9.30168e-08
-1.13465e-07
1.9415e-06
1.26919e-07
-1.12573e-07
2.02775e-06
1.71582e-07
-1.09283e-07
2.13616e-06
2.28261e-07
-1.03733e-07
2.27862e-06
2.95841e-07
-9.76042e-08
2.46696e-06
3.67245e-07
-9.64665e-08
2.7067e-06
4.26294e-07
-1.12265e-07
2.94173e-06
4.43237e-07
-1.63798e-07
3.07736e-06
3.96039e-07
-2.52123e-07
3.18018e-06
3.55035e-07
-3.04479e-07
3.30671e-06
3.6053e-07
-3.18797e-07
3.43108e-06
3.99254e-07
-3.282e-07
3.55939e-06
4.82861e-07
-3.11706e-07
3.74208e-06
6.25016e-07
-2.48878e-07
4.02027e-06
8.05008e-07
-1.45125e-07
4.43291e-06
9.81934e-07
-3.31127e-08
4.89642e-06
1.07636e-06
3.27249e-09
5.22765e-06
1.02982e-06
-9.99796e-08
5.4558e-06
9.76539e-07
-1.78125e-07
5.69346e-06
9.75268e-07
-1.27014e-07
6.01128e-06
1.07496e-06
3.27744e-08
6.36746e-06
1.19959e-06
2.50621e-07
6.76746e-06
1.44683e-06
5.72668e-07
7.14703e-06
1.52237e-06
7.98128e-07
7.60515e-06
1.59157e-06
1.0989e-06
1.67999e-06
6.77444e-07
1.36161e-06
6.04433e-09
-6.69138e-08
1.39536e-06
7.18113e-09
-7.15586e-08
1.43144e-06
8.69535e-09
-7.6434e-08
1.46999e-06
1.0721e-08
-8.15106e-08
1.51113e-06
1.3442e-08
-8.67498e-08
1.55501e-06
1.71079e-08
-9.20985e-08
1.60179e-06
2.20546e-08
-9.74804e-08
1.65167e-06
2.87328e-08
-1.02783e-07
1.70486e-06
3.77441e-08
-1.07836e-07
1.76167e-06
4.98864e-08
-1.12354e-07
1.82262e-06
6.61263e-08
-1.15964e-07
1.88861e-06
8.75627e-08
-1.18183e-07
1.96117e-06
1.15314e-07
-1.18421e-07
2.04277e-06
1.50191e-07
-1.16052e-07
2.13711e-06
1.92076e-07
-1.10607e-07
2.24901e-06
2.38811e-07
-1.0212e-07
2.38278e-06
2.84547e-07
-9.18835e-08
2.53909e-06
3.18339e-07
-8.30227e-08
2.70526e-06
3.26135e-07
-7.99657e-08
2.8579e-06
2.9855e-07
-8.57033e-08
3.00004e-06
2.76613e-07
-9.53107e-08
3.14576e-06
2.87172e-07
-1.06932e-07
3.305e-06
3.18708e-07
-1.15292e-07
3.49262e-06
3.75538e-07
-1.13663e-07
3.72929e-06
4.64747e-07
-9.93124e-08
4.02682e-06
5.76467e-07
-7.62859e-08
4.38592e-06
6.85754e-07
-5.4478e-08
4.77327e-06
7.54856e-07
-5.37617e-08
5.13298e-06
7.52593e-07
-8.16335e-08
5.46918e-06
7.44667e-07
-1.16017e-07
5.79862e-06
7.67146e-07
-1.198e-07
6.14029e-06
8.66367e-07
-1.09032e-07
6.52807e-06
9.54848e-07
-1.29988e-08
7.00331e-06
1.13253e-06
6.69295e-08
7.53984e-06
1.20509e-06
1.61635e-07
8.13207e-06
1.28662e-06
2.28209e-07
1.41874e-06
7.73567e-08
1.36253e-06
8.17166e-09
-6.67591e-08
1.3966e-06
9.38885e-09
-7.14632e-08
1.43312e-06
1.09562e-08
-7.64191e-08
1.47225e-06
1.29827e-08
-8.15922e-08
1.51419e-06
1.56193e-08
-8.69544e-08
1.55914e-06
1.90677e-08
-9.24765e-08
1.60737e-06
2.35907e-08
-9.81103e-08
1.65923e-06
2.95265e-08
-1.03788e-07
1.71521e-06
3.72903e-08
-1.0943e-07
1.7761e-06
4.73399e-08
-1.14961e-07
1.84295e-06
6.0341e-08
-1.20354e-07
1.91729e-06
7.69156e-08
-1.25574e-07
2.00123e-06
9.7597e-08
-1.30679e-07
2.09757e-06
1.22615e-07
-1.35907e-07
2.20966e-06
1.51537e-07
-1.41849e-07
2.34086e-06
1.82754e-07
-1.49673e-07
2.49283e-06
2.12966e-07
-1.61397e-07
2.66244e-06
2.37241e-07
-1.79812e-07
2.8383e-06
2.50794e-07
-2.06707e-07
3.001e-06
2.52235e-07
-2.42129e-07
3.1556e-06
2.5399e-07
-2.76392e-07
3.31976e-06
2.67908e-07
-3.04997e-07
3.4969e-06
2.96999e-07
-3.29093e-07
3.69267e-06
3.42717e-07
-3.46887e-07
3.91948e-06
4.0487e-07
-3.56501e-07
4.18837e-06
4.76203e-07
-3.5941e-07
4.50271e-06
5.42872e-07
-3.6289e-07
4.84718e-06
5.9055e-07
-3.791e-07
5.18702e-06
6.0947e-07
-4.12076e-07
5.52034e-06
6.28678e-07
-4.50054e-07
5.87074e-06
6.49584e-07
-4.69352e-07
6.25773e-06
7.27157e-07
-4.81969e-07
6.70289e-06
7.66973e-07
-4.65393e-07
7.18999e-06
9.26679e-07
-4.56595e-07
7.74217e-06
9.56255e-07
-4.47195e-07
8.34056e-06
1.03532e-06
-4.16788e-07
1.21775e-06
-5.45599e-07
1.36327e-06
9.56475e-09
-6.60013e-08
1.39764e-06
1.07774e-08
-7.07072e-08
1.43456e-06
1.22933e-08
-7.56785e-08
1.47421e-06
1.41903e-08
-8.08741e-08
1.51683e-06
1.65824e-08
-8.6277e-08
1.56269e-06
1.96204e-08
-9.18767e-08
1.61209e-06
2.34975e-08
-9.76446e-08
1.66545e-06
2.84584e-08
-1.03545e-07
1.72325e-06
3.48086e-08
-1.09542e-07
1.78604e-06
4.29186e-08
-1.15571e-07
1.85455e-06
5.32022e-08
-1.21504e-07
1.92975e-06
6.6026e-08
-1.2721e-07
2.01283e-06
8.16266e-08
-1.32562e-07
2.10524e-06
9.99744e-08
-1.37494e-07
2.20858e-06
1.20534e-07
-1.42064e-07
2.32431e-06
1.41976e-07
-1.46514e-07
2.4532e-06
1.61996e-07
-1.51349e-07
2.59446e-06
1.77554e-07
-1.57323e-07
2.7454e-06
1.86211e-07
-1.65017e-07
2.90224e-06
1.8787e-07
-1.74729e-07
3.06602e-06
1.8983e-07
-1.85901e-07
3.24161e-06
1.9971e-07
-1.98134e-07
3.43466e-06
2.19261e-07
-2.10508e-07
3.65149e-06
2.48895e-07
-2.21995e-07
3.89867e-06
2.88241e-07
-2.32626e-07
4.17969e-06
3.33902e-07
-2.44266e-07
4.49287e-06
3.78298e-07
-2.59226e-07
4.82988e-06
4.15164e-07
-2.81873e-07
5.17944e-06
4.37235e-07
-3.08293e-07
5.53925e-06
4.64233e-07
-3.44785e-07
5.91966e-06
4.80906e-07
-3.631e-07
6.31666e-06
5.58069e-07
-4.14267e-07
6.76889e-06
5.5732e-07
-3.91333e-07
7.2316e-06
7.14781e-07
-4.71481e-07
7.7856e-06
6.84587e-07
-4.25659e-07
8.3489e-06
7.49569e-07
-4.88014e-07
9.9262e-07
-6.07216e-07
1.36269e-06
9.54872e-09
-6.35608e-08
1.39732e-06
1.06244e-08
-6.81049e-08
1.43457e-06
1.19352e-08
-7.29104e-08
1.47465e-06
1.3526e-08
-7.79378e-08
1.51782e-06
1.54709e-08
-8.31791e-08
1.56439e-06
1.78693e-08
-8.86346e-08
1.61471e-06
2.08458e-08
-9.42881e-08
1.66923e-06
2.45539e-08
-1.00127e-07
1.72852e-06
2.91794e-08
-1.0615e-07
1.79332e-06
3.49234e-08
-1.12366e-07
1.86463e-06
4.19331e-08
-1.18768e-07
1.94359e-06
5.04854e-08
-1.2548e-07
2.03155e-06
6.0664e-08
-1.32655e-07
2.13004e-06
7.23918e-08
-1.40544e-07
2.24057e-06
8.53357e-08
-1.4957e-07
2.36428e-06
9.8795e-08
-1.60348e-07
2.50143e-06
1.11698e-07
-1.73662e-07
2.65078e-06
1.2284e-07
-1.90333e-07
2.80955e-06
1.31497e-07
-2.10678e-07
2.97435e-06
1.38123e-07
-2.34539e-07
3.14575e-06
1.45368e-07
-2.60579e-07
3.32827e-06
1.56293e-07
-2.87525e-07
3.52618e-06
1.72559e-07
-3.14819e-07
3.7435e-06
1.94585e-07
-3.41848e-07
3.98465e-06
2.21562e-07
-3.68249e-07
4.25311e-06
2.51293e-07
-3.94473e-07
4.54949e-06
2.79575e-07
-4.21079e-07
4.87079e-06
3.04956e-07
-4.51302e-07
5.2117e-06
3.21431e-07
-4.81115e-07
5.57022e-06
3.47606e-07
-5.19464e-07
5.95574e-06
3.49307e-07
-5.37784e-07
6.36325e-06
4.24208e-07
-5.92238e-07
6.82536e-06
3.7423e-07
-5.73092e-07
7.29803e-06
5.46358e-07
-6.5625e-07
7.84271e-06
4.53408e-07
-6.4427e-07
8.41391e-06
5.16418e-07
-6.26663e-07
7.9243e-07
-9.50812e-07