/*--------------------------------*- C++ -*----------------------------------*\
| =========                 |                                                 |
| \\      /  F ield         | OpenFOAM: The Open Source CFD Toolbox           |
|  \\    /   O peration     | Version:  2.3.1                                 |
|   \\  /    A nd           | Web:      www.OpenFOAM.org                      |
|    \\/     M anipulation  |                                                 |
\*---------------------------------------------------------------------------*/
FoamFile
{
    version     2.0;
    format      ascii;
    class       volScalarField;
    location    "15";
    object      Sed;
}
// * * * * * * * * * * * * * * * * * * * * * * * * * * * * * * * * * * * * * //

dimensions      [0 0 0 0 0 0 0];

internalField   nonuniform List<scalar> 
37530
(
5.95022e-114
3.00117e-115
1.51948e-116
7.72122e-118
3.93803e-119
2.0157e-120
1.03505e-121
5.32625e-123
2.74144e-124
1.40849e-125
7.23939e-127
3.68388e-128
1.82323e-129
8.45973e-131
3.36301e-132
8.61573e-134
1.88245e-135
1.00037e-136
8.46416e-138
3.21387e-138
2.49004e-139
8.10139e-141
8.78932e-142
9.45042e-143
3.02965e-144
7.43376e-146
1.97705e-147
1.02097e-148
1.70981e-149
2.51391e-150
5.79211e-151
1.88674e-151
2.1496e-152
1.51409e-153
1.46333e-154
1.61328e-155
1.9098e-156
6.15336e-112
3.10838e-113
1.57565e-114
8.01441e-116
4.09101e-117
2.09596e-118
1.07772e-119
5.5593e-121
2.87504e-122
1.49029e-123
7.71221e-125
3.96112e-126
1.99889e-127
9.73251e-129
4.42429e-130
1.7719e-131
5.82306e-133
1.94403e-134
1.47341e-135
1.81688e-136
1.32345e-137
6.53105e-139
5.26785e-140
4.30738e-141
2.05537e-142
5.94706e-144
1.59157e-145
7.94699e-147
1.88564e-147
2.84798e-148
3.72237e-149
6.32627e-150
8.49327e-151
9.0405e-152
8.93995e-153
8.54163e-154
7.11754e-155
1.64413e-110
8.33596e-112
4.24008e-113
2.16378e-114
1.10809e-115
5.69597e-117
2.93957e-118
1.52327e-119
7.92127e-121
4.12812e-122
2.15092e-123
1.1159e-124
5.72427e-126
2.86978e-127
1.37809e-128
6.14854e-130
2.47531e-131
9.23641e-133
3.92224e-134
2.07212e-135
1.15617e-136
6.55177e-138
3.93618e-139
2.49622e-140
1.42553e-141
6.98672e-143
3.04448e-144
1.70653e-145
1.31834e-146
1.03476e-147
7.82689e-149
6.7888e-150
1.04105e-150
1.67549e-151
2.21631e-152
2.98739e-153
4.21448e-154
1.62981e-109
8.29671e-111
4.23634e-112
2.16991e-113
1.11531e-114
5.75472e-116
2.98161e-117
1.55139e-118
8.10553e-120
4.25052e-121
2.23518e-122
1.17694e-123
6.1922e-125
3.24714e-126
1.69381e-127
8.79582e-129
4.60211e-130
2.5065e-131
1.58436e-132
1.16097e-133
8.31424e-135
5.62452e-136
3.87187e-137
2.63678e-138
1.64313e-139
8.85746e-141
4.36519e-142
2.25834e-143
1.35971e-144
8.22028e-146
4.04537e-147
1.67029e-148
8.312e-150
6.71088e-151
1.30595e-151
2.39002e-152
3.83401e-153
7.05972e-109
3.60756e-110
1.84889e-111
9.50505e-113
4.90343e-114
2.53943e-115
1.32084e-116
6.90214e-118
3.62414e-119
1.91187e-120
1.01287e-121
5.38411e-123
2.86784e-124
1.52804e-125
8.1323e-127
4.3234e-128
2.30641e-129
1.25262e-130
7.16446e-132
4.40348e-133
2.8095e-134
1.82818e-135
1.21406e-136
8.13897e-138
5.43977e-139
3.60294e-140
2.35842e-141
1.58765e-142
1.14644e-143
8.45589e-145
5.94672e-146
3.88765e-147
2.32455e-148
1.22165e-149
6.93718e-151
5.67418e-152
6.93886e-153
1.43959e-108
7.37519e-110
3.78953e-111
1.95331e-112
1.01046e-113
5.24876e-115
2.73928e-116
1.43712e-117
7.58307e-119
4.02631e-120
2.15238e-121
1.15925e-122
6.29685e-124
3.45541e-125
1.92124e-126
1.08786e-127
6.32417e-129
3.81883e-130
2.42817e-131
1.63011e-132
1.11983e-133
7.74933e-135
5.44623e-136
3.87344e-137
2.76287e-138
1.97662e-139
1.43329e-140
1.08138e-141
8.6807e-143
7.18584e-144
5.91542e-145
4.74321e-146
3.6837e-147
2.65743e-148
1.94094e-149
1.42316e-150
1.18969e-151
1.43961e-108
7.37735e-110
3.79214e-111
1.95573e-112
1.01248e-113
5.26477e-115
2.75156e-116
1.44638e-117
7.65223e-119
4.07737e-120
2.18948e-121
1.1857e-122
6.48112e-124
3.57974e-125
2.0013e-126
1.13542e-127
6.56205e-129
3.88316e-130
2.36623e-131
1.48844e-132
9.61775e-134
6.36205e-135
4.30883e-136
2.99027e-137
2.13207e-138
1.56973e-139
1.20024e-140
9.59166e-142
8.02748e-143
6.98837e-144
6.26722e-145
5.79728e-146
5.4192e-147
5.19788e-148
5.02816e-149
4.99155e-150
5.32553e-151
7.06647e-109
3.61455e-110
1.85505e-111
9.55505e-113
4.94231e-114
2.56891e-115
1.34287e-116
7.06579e-118
3.74559e-119
2.00241e-120
1.0809e-121
5.89982e-123
3.26197e-124
1.8309e-125
1.04614e-126
6.10528e-128
3.65319e-129
2.24964e-130
1.42871e-131
9.34808e-133
6.27219e-134
4.30324e-135
3.02068e-136
2.1706e-137
1.59781e-138
1.20811e-139
9.42991e-141
7.64684e-142
6.46531e-143
5.69432e-144
5.19743e-145
4.93587e-146
4.86101e-147
5.01948e-148
5.40689e-149
6.10544e-150
7.39002e-151
1.63228e-109
8.32225e-111
4.25879e-112
2.18812e-113
1.12943e-114
5.86108e-116
3.06063e-117
1.60979e-118
8.53694e-120
4.56976e-121
2.47214e-122
1.3534e-123
7.50953e-125
4.23046e-126
2.42444e-127
1.41655e-128
8.4574e-130
5.17049e-131
3.24147e-132
2.08478e-133
1.37549e-134
9.31596e-136
6.48746e-137
4.6571e-138
3.45976e-139
2.6673e-140
2.13923e-141
1.78859e-142
1.55815e-143
1.41853e-144
1.34245e-145
1.34128e-146
1.38123e-147
1.53767e-148
1.74201e-149
2.11277e-150
2.7466e-151
1.6489e-110
8.37869e-112
4.2752e-113
2.19125e-114
1.12892e-115
5.85117e-117
3.05384e-118
1.60669e-119
8.53105e-121
4.57742e-122
2.48554e-123
1.36813e-124
7.64804e-126
4.35096e-127
2.52459e-128
1.49742e-129
9.09785e-131
5.671e-132
3.62951e-133
2.38493e-134
1.60861e-135
1.11436e-136
7.9407e-138
5.83217e-139
4.42591e-140
3.47995e-141
2.8419e-142
2.41686e-143
2.14043e-144
1.98291e-145
1.90816e-146
1.94698e-147
2.03949e-148
2.31826e-149
2.68543e-150
3.26699e-151
4.5667e-152
6.18512e-112
3.13379e-113
1.59527e-114
8.16216e-116
4.2005e-117
2.17634e-118
1.13643e-119
5.98757e-121
3.18717e-122
1.71643e-123
9.3667e-125
5.18839e-126
2.9225e-127
1.67718e-128
9.82509e-130
5.88555e-131
3.61041e-132
2.27022e-133
1.46404e-134
9.68612e-136
6.57988e-137
4.59746e-138
3.31198e-139
2.46669e-140
1.90465e-141
1.52878e-142
1.27757e-143
1.11407e-144
1.0114e-145
9.64935e-147
9.49583e-148
1.0098e-148
1.06944e-149
1.28793e-150
1.50998e-151
1.8449e-152
2.91267e-153
5.99976e-114
3.03813e-115
1.54679e-116
7.92127e-118
4.08372e-119
2.12162e-120
1.11208e-121
5.88865e-123
3.15447e-124
1.71222e-125
9.43369e-127
5.28583e-128
3.01782e-129
1.7589e-130
1.04834e-131
6.39818e-133
4.00178e-134
2.56547e-135
1.6855e-136
1.13489e-137
7.84133e-139
5.57536e-140
4.09369e-141
3.11507e-142
2.4647e-143
2.03345e-144
1.75121e-145
1.57755e-146
1.47973e-147
1.46567e-148
1.4812e-149
1.67042e-150
1.74609e-151
2.37597e-152
2.59487e-153
3.56617e-154
6.1271e-155
1.80343e-112
9.11098e-114
4.61872e-115
2.3493e-116
1.19908e-117
6.1412e-119
3.15601e-120
1.62643e-121
8.40138e-123
4.35122e-124
2.2489e-125
1.15151e-126
5.76321e-128
2.74294e-129
1.16568e-130
3.89649e-132
9.57718e-134
3.87686e-135
2.51703e-136
5.25343e-137
6.22622e-138
3.02479e-139
2.45959e-140
2.0497e-141
9.15116e-143
2.52524e-144
7.17032e-146
3.59177e-147
3.69663e-148
4.92011e-149
7.18659e-150
1.10456e-150
1.45304e-151
1.67741e-152
1.99981e-153
2.45876e-154
3.0978e-155
1.58506e-110
8.02624e-112
4.07692e-113
2.07739e-114
1.06203e-115
5.44849e-117
2.80529e-118
1.44961e-119
7.51581e-121
3.90323e-122
2.02487e-123
1.0443e-124
5.31008e-126
2.62404e-127
1.22813e-128
5.21065e-130
1.92089e-131
6.85582e-133
3.70704e-134
3.47785e-135
2.57685e-136
1.526e-137
1.17911e-138
8.98467e-140
4.98863e-141
1.88572e-142
6.17165e-144
3.00977e-145
3.38214e-146
4.56364e-147
5.27692e-148
6.974e-149
8.4524e-150
8.80132e-151
8.72147e-152
8.77511e-153
8.45842e-154
3.82951e-109
1.94657e-110
9.92283e-112
5.07329e-113
2.60224e-114
1.33945e-115
6.92126e-117
3.59001e-118
1.86846e-119
9.74845e-121
5.08932e-122
2.65008e-123
1.36895e-124
6.95437e-126
3.4259e-127
1.60414e-128
7.02669e-130
2.98559e-131
1.34941e-132
7.26301e-134
4.27357e-135
2.5345e-136
1.57893e-137
1.01308e-138
5.99082e-140
3.13118e-141
1.46513e-142
7.61269e-144
5.24436e-145
3.97104e-146
2.93034e-147
2.42904e-148
2.67815e-149
3.35086e-150
3.99194e-151
4.98214e-152
6.80781e-153
3.60444e-108
1.8395e-109
9.41249e-111
4.82982e-112
2.48612e-113
1.28417e-114
6.65839e-116
3.46615e-117
1.81159e-118
9.50347e-120
5.00065e-121
2.6363e-122
1.39018e-123
7.31843e-125
3.84089e-126
2.01207e-127
1.0632e-128
5.81488e-130
3.56871e-131
2.47959e-132
1.73032e-133
1.16459e-134
7.91176e-136
5.31303e-137
3.36365e-138
1.95427e-139
1.07172e-140
6.01481e-142
3.73406e-143
2.45718e-144
1.48495e-145
8.58175e-147
5.04758e-148
3.5263e-149
4.20554e-150
5.90379e-151
8.27513e-152
1.52451e-107
7.80936e-109
4.01041e-110
2.06513e-111
1.06672e-112
5.52935e-114
2.87748e-115
1.50393e-116
7.89625e-118
4.1649e-119
2.20635e-120
1.17326e-121
6.2572e-123
3.3433e-124
1.78847e-125
9.58698e-127
5.17404e-128
2.84805e-129
1.64458e-130
1.01381e-131
6.48746e-133
4.22442e-134
2.79553e-135
1.86867e-136
1.25303e-137
8.42657e-139
5.703e-140
3.9763e-141
2.90732e-142
2.17791e-143
1.63059e-144
1.19704e-145
8.50331e-147
5.67392e-148
3.97852e-149
3.14767e-150
3.13047e-151
3.08264e-107
1.58304e-108
8.14974e-110
4.20727e-111
2.17895e-112
1.13266e-113
5.91288e-115
3.10163e-116
1.6357e-117
8.67707e-119
4.63278e-120
2.49119e-121
1.35047e-122
7.39177e-124
4.09566e-125
2.30738e-126
1.33113e-127
7.94081e-129
4.95311e-130
3.2396e-131
2.16983e-132
1.46944e-133
1.01142e-134
7.05704e-136
4.96483e-137
3.53036e-138
2.56314e-139
1.93797e-140
1.54678e-141
1.27513e-142
1.06339e-143
8.88737e-145
7.54343e-146
6.32466e-147
5.42973e-148
4.67897e-149
4.47049e-150
3.08276e-107
1.58349e-108
8.15494e-110
4.21202e-111
2.18289e-112
1.13576e-113
5.9366e-115
3.11947e-116
1.649e-117
8.77513e-119
4.70415e-120
2.54234e-121
1.38644e-122
7.63845e-124
4.25884e-125
2.40916e-126
1.38778e-127
8.17986e-129
4.95823e-130
3.09893e-131
1.98945e-132
1.30776e-133
8.8008e-135
6.06758e-136
4.29473e-137
3.1339e-138
2.3694e-139
1.86699e-140
1.53702e-141
1.31639e-142
1.16546e-143
1.06658e-144
1.00169e-145
9.7291e-147
9.75011e-148
1.01919e-148
1.12996e-149
1.5257e-107
7.82231e-109
4.022e-110
2.07463e-111
1.07415e-112
5.58591e-114
2.91982e-115
1.53538e-116
8.12947e-118
4.33834e-119
2.33613e-120
1.27108e-121
6.99931e-123
3.90866e-124
2.21911e-125
1.28476e-126
7.61121e-128
4.62945e-129
2.8974e-130
1.86476e-131
1.22974e-132
8.29004e-134
5.7176e-135
4.03847e-136
2.92561e-137
2.18036e-138
1.67993e-139
1.34513e-140
1.12183e-141
9.73062e-143
8.75629e-144
8.2054e-145
8.00417e-146
8.19186e-147
8.76782e-148
9.84291e-149
1.1729e-149
3.60911e-108
1.84445e-109
9.45635e-111
4.86555e-112
2.51384e-113
1.30512e-114
6.8145e-116
3.58169e-117
1.89692e-118
1.01343e-119
5.46809e-121
2.98369e-122
1.64891e-123
9.24523e-125
5.26945e-126
3.05979e-127
1.81423e-128
1.10078e-129
6.84546e-131
4.36609e-132
2.85619e-133
1.91738e-134
1.32263e-135
9.39322e-137
6.88538e-138
5.22478e-139
4.11581e-140
3.37421e-141
2.88031e-142
2.5657e-143
2.37804e-144
2.31417e-145
2.33647e-146
2.51294e-147
2.79781e-148
3.31108e-149
4.16243e-150
3.83871e-109
1.95509e-110
9.99397e-112
5.1294e-113
2.64495e-114
1.3713e-115
7.15506e-117
3.76098e-118
1.9938e-119
1.06733e-120
5.7777e-122
3.16765e-123
1.76203e-124
9.96395e-126
5.73995e-127
3.37586e-128
2.03115e-129
1.25224e-130
7.91835e-132
5.13653e-133
3.4182e-134
2.33509e-135
1.63995e-136
1.1864e-137
8.8621e-139
6.85353e-140
5.50109e-141
4.59443e-142
3.99477e-143
3.62849e-144
3.42891e-145
3.41829e-146
3.52384e-147
3.89588e-148
4.43192e-149
5.33029e-150
6.99825e-151
1.59163e-110
8.08081e-112
4.11994e-113
2.11018e-114
1.08651e-115
5.62872e-117
2.93687e-118
1.54505e-119
8.20575e-121
4.40556e-122
2.39465e-123
1.31995e-124
7.39126e-126
4.21248e-127
2.44822e-128
1.45362e-129
8.83135e-131
5.49646e-132
3.50699e-133
2.29492e-134
1.54135e-135
1.06406e-136
7.56572e-138
5.55402e-139
4.22042e-140
3.32829e-141
2.72898e-142
2.3319e-143
2.07424e-144
1.93469e-145
1.86858e-146
1.93069e-147
2.02249e-148
2.34936e-149
2.69736e-150
3.36234e-151
4.6707e-152
1.81521e-112
9.20186e-114
4.68733e-115
2.40022e-116
1.23646e-117
6.41405e-119
3.35422e-120
1.77044e-121
9.44475e-123
5.10003e-124
2.79224e-125
1.55281e-126
8.78775e-128
5.07046e-129
2.98817e-130
1.80143e-131
1.11213e-132
7.03497e-134
4.56057e-135
3.03054e-136
2.06652e-137
1.4494e-138
1.04864e-139
7.85051e-141
6.09925e-142
4.93093e-143
4.15347e-144
3.6536e-145
3.34487e-146
3.2256e-147
3.19034e-148
3.46779e-149
3.60792e-150
4.66395e-151
4.9879e-152
7.23767e-153
9.87176e-154
2.28256e-111
1.15551e-112
5.86781e-114
2.98898e-115
1.52745e-116
7.83191e-118
4.03286e-119
2.08455e-120
1.08063e-121
5.60883e-123
2.90573e-124
1.49399e-125
7.5425e-127
3.66305e-128
1.63897e-129
6.2853e-131
1.73791e-132
5.84671e-134
3.04628e-135
3.60386e-136
5.36776e-137
3.26415e-138
2.73753e-139
2.19167e-140
1.08867e-141
3.54626e-143
1.2625e-144
6.44361e-146
4.96995e-147
4.98264e-148
5.2595e-149
6.39752e-150
7.19625e-151
6.91096e-152
6.85336e-153
9.6581e-154
1.51267e-154
1.79413e-109
9.1056e-111
4.63412e-112
2.36522e-113
1.21089e-114
6.22068e-116
3.20742e-117
1.65956e-118
8.61238e-120
4.47767e-121
2.32727e-122
1.20463e-123
6.16925e-125
3.09243e-126
1.4902e-127
6.71048e-129
2.78447e-130
1.09618e-131
5.17743e-133
3.89749e-134
2.95008e-135
1.8817e-136
1.37636e-137
9.79156e-139
5.72651e-140
2.77215e-141
1.24505e-142
6.81903e-144
4.98675e-145
4.97113e-146
4.96706e-147
5.62207e-148
6.12305e-149
5.64477e-150
5.07922e-151
5.00792e-152
4.98209e-153
3.9681e-108
2.02148e-109
1.03235e-110
5.28605e-112
2.71477e-113
1.39878e-114
7.2323e-116
3.75278e-117
1.95383e-118
1.01997e-119
5.33153e-121
2.78372e-122
1.44597e-123
7.42578e-125
3.7368e-126
1.82238e-127
8.57783e-129
4.02493e-130
2.0071e-131
1.1362e-132
6.94312e-134
4.19389e-135
2.60651e-136
1.63351e-137
9.71661e-139
5.3958e-140
2.80923e-141
1.57057e-142
1.03644e-143
7.56672e-145
5.68459e-146
4.70327e-147
4.59899e-148
4.50055e-149
4.66065e-150
5.20065e-151
6.31888e-152
3.55503e-107
1.8181e-108
9.31862e-110
4.78796e-111
2.46692e-112
1.27502e-113
6.61273e-115
3.4424e-116
1.79888e-117
9.43518e-119
4.96495e-120
2.61908e-121
1.3834e-122
7.30731e-124
3.85751e-125
2.03907e-126
1.0898e-127
6.01621e-129
3.63609e-130
2.44173e-131
1.65494e-132
1.09369e-133
7.28943e-135
4.82824e-136
3.08256e-137
1.88517e-138
1.12718e-139
7.00787e-141
4.71347e-142
3.29897e-143
2.27233e-144
1.55737e-145
1.11388e-146
8.67356e-148
8.50542e-149
9.25394e-150
1.09275e-150
1.46862e-106
7.53813e-108
3.87709e-109
1.99876e-110
1.03323e-111
5.35795e-113
2.78834e-114
1.45687e-115
7.64465e-117
4.02925e-118
2.13305e-119
1.1339e-120
6.04985e-122
3.23828e-123
1.73899e-124
9.38386e-126
5.11527e-127
2.84839e-128
1.65755e-129
1.02238e-130
6.52597e-132
4.22715e-133
2.77579e-134
1.84298e-135
1.23319e-136
8.34546e-138
5.75958e-139
4.13452e-140
3.11452e-141
2.40658e-142
1.88737e-143
1.48395e-144
1.17806e-145
9.17195e-147
7.5387e-148
6.6091e-149
6.7171e-150
2.94485e-106
1.51519e-107
7.81182e-109
4.03701e-110
2.09209e-111
1.08775e-112
5.67723e-114
2.97611e-115
1.56788e-116
8.30562e-118
4.42681e-119
2.37562e-120
1.28483e-121
7.01355e-123
3.87335e-124
2.17263e-125
1.24532e-126
7.35568e-128
4.51593e-129
2.88946e-130
1.89219e-131
1.25539e-132
8.47016e-134
5.80323e-135
4.02652e-136
2.83955e-137
2.0546e-138
1.54832e-139
1.22517e-140
1.00241e-141
8.37897e-143
7.13795e-144
6.2817e-145
5.6629e-146
5.34613e-147
5.18964e-148
5.40151e-149
2.94507e-106
1.51564e-107
7.81661e-109
4.04126e-110
2.09556e-111
1.09046e-112
5.69781e-114
2.99151e-115
1.5793e-116
8.38957e-118
4.48783e-119
2.4194e-120
1.31575e-121
7.22736e-123
4.0169e-124
2.26463e-125
1.2996e-126
7.62519e-128
4.59483e-129
2.84994e-130
1.81409e-131
1.18152e-132
7.87234e-134
5.37055e-135
3.75892e-136
2.70932e-137
2.02069e-138
1.56814e-139
1.26943e-140
1.06784e-141
9.29929e-143
8.38152e-144
7.81665e-145
7.57237e-146
7.65351e-147
8.10339e-148
9.05288e-149
1.46966e-106
7.54933e-108
3.88711e-109
2.00698e-110
1.03966e-111
5.40677e-113
2.82485e-114
1.48394e-115
7.84482e-117
4.17751e-118
2.24336e-119
1.21643e-120
6.67042e-122
3.7061e-123
2.09115e-124
1.20159e-125
7.05324e-127
4.24216e-128
2.61966e-129
1.66088e-130
1.07798e-131
7.15057e-133
4.85187e-134
3.37157e-135
2.40379e-136
1.76405e-137
1.33836e-138
1.05413e-139
8.6347e-141
7.35201e-142
6.49923e-143
5.98166e-144
5.7396e-145
5.77276e-146
6.07914e-147
6.72201e-148
7.83571e-149
3.55928e-107
1.82254e-108
9.3577e-110
4.81965e-111
2.49151e-112
1.29361e-113
6.75125e-115
3.54479e-116
1.87435e-117
9.9915e-119
5.3757e-120
2.92301e-121
1.60865e-122
8.97553e-124
5.08709e-125
2.9351e-126
1.72783e-127
1.03999e-128
6.41093e-130
4.05061e-131
2.62348e-132
1.74254e-133
1.18832e-134
8.33466e-136
6.02595e-137
4.50334e-138
3.48822e-139
2.80721e-140
2.3495e-141
2.04757e-142
1.85648e-143
1.7599e-144
1.73628e-145
1.80788e-146
1.96342e-147
2.25162e-148
2.72762e-149
3.9765e-108
2.02932e-109
1.03891e-110
5.33782e-112
2.75404e-113
1.42797e-114
7.44714e-116
3.91032e-117
2.06948e-118
1.10524e-119
5.96464e-121
3.25761e-122
1.80357e-123
1.01414e-124
5.80329e-126
3.38662e-127
2.01946e-128
1.23253e-129
7.70746e-131
4.94022e-132
3.24621e-133
2.18829e-134
1.51548e-135
1.08028e-136
7.9444e-138
6.04308e-139
4.76675e-140
3.90833e-141
3.33428e-142
2.96713e-143
2.7497e-144
2.67628e-145
2.70688e-146
2.90877e-147
3.24136e-148
3.81387e-149
4.78566e-150
1.80045e-109
9.15928e-111
4.67686e-112
2.39796e-113
1.23538e-114
6.4001e-116
3.3375e-117
1.75377e-118
9.29727e-120
4.97898e-121
2.69749e-122
1.48082e-123
8.25125e-125
4.67526e-126
2.6989e-127
1.59025e-128
9.5798e-130
5.90764e-131
3.73259e-132
2.41759e-133
1.60634e-134
1.09633e-135
7.7e-137
5.57765e-138
4.17715e-139
3.24244e-140
2.61403e-141
2.19369e-142
1.91629e-143
1.75129e-144
1.66281e-145
1.67485e-146
1.73111e-147
1.94722e-148
2.20143e-149
2.70918e-150
3.52041e-151
2.29503e-111
1.16538e-112
5.94326e-114
3.04539e-115
1.56902e-116
8.13554e-118
4.24988e-119
2.23929e-120
1.19165e-121
6.41402e-123
3.4974e-124
1.93535e-125
1.08885e-126
6.23967e-128
3.64863e-129
2.18059e-130
1.33362e-131
8.35287e-133
5.3599e-134
3.5249e-135
2.37818e-136
1.64944e-137
1.17907e-138
8.711e-140
6.66962e-141
5.30596e-142
4.39246e-143
3.79238e-144
3.40781e-145
3.21755e-146
3.13296e-147
3.30661e-148
3.43348e-149
4.22667e-150
4.5342e-151
6.47115e-152
7.95976e-153
1.62117e-110
8.2196e-112
4.17936e-113
2.13127e-114
1.09026e-115
5.596e-117
2.88225e-118
1.48944e-119
7.71789e-121
4.00483e-122
2.07581e-123
1.06979e-124
5.43611e-126
2.68268e-127
1.24944e-128
5.24093e-130
1.83868e-131
5.65608e-133
2.72157e-134
1.9203e-135
1.94743e-136
1.56322e-137
1.33062e-138
1.19112e-139
7.16435e-141
2.94465e-142
1.24643e-143
7.22392e-145
5.54479e-146
4.98485e-147
4.76466e-148
4.95631e-149
4.64216e-150
3.55238e-151
2.81876e-152
2.76573e-153
4.27795e-154
1.1636e-108
5.91458e-110
3.01376e-111
1.53963e-112
7.88767e-114
4.05331e-115
2.08966e-116
1.0808e-117
5.60626e-119
2.91399e-120
1.51514e-121
7.85719e-123
4.04341e-124
2.04843e-125
1.00915e-126
4.75333e-128
2.13396e-129
9.34297e-131
4.69779e-132
3.06998e-133
2.21442e-134
1.42151e-135
9.31708e-137
6.14615e-138
3.7194e-139
2.0788e-140
1.15584e-141
7.54908e-143
6.00646e-144
5.30539e-145
4.88733e-146
4.89804e-147
4.75145e-148
3.68864e-149
2.82679e-150
2.53165e-151
2.37708e-152
2.41789e-107
1.23362e-108
6.30708e-110
3.23202e-111
1.66054e-112
8.55623e-114
4.42272e-115
2.2937e-116
1.19341e-117
6.22665e-119
3.25455e-120
1.70103e-121
8.86418e-123
4.58538e-124
2.34131e-125
1.17353e-126
5.78785e-128
2.87736e-129
1.54905e-130
9.31282e-132
5.88774e-133
3.64439e-134
2.22391e-135
1.34796e-136
8.02659e-138
4.7031e-139
2.74006e-140
1.69043e-141
1.15968e-142
8.56527e-144
6.65123e-145
5.63126e-146
5.33782e-147
4.66198e-148
4.27856e-149
4.28446e-150
4.54957e-151
2.08899e-106
1.0699e-107
5.48933e-109
2.82219e-110
1.45446e-111
7.51657e-113
3.89666e-114
2.02698e-115
1.05821e-116
5.54453e-118
2.91489e-119
1.53683e-120
8.12012e-122
4.29664e-123
2.27693e-124
1.21138e-125
6.5269e-127
3.62574e-128
2.16321e-129
1.41033e-130
9.33029e-132
6.08149e-133
3.993e-134
2.61791e-135
1.68083e-136
1.06091e-137
6.70586e-139
4.4735e-140
3.2237e-141
2.41012e-142
1.81605e-143
1.37853e-144
1.09039e-145
9.04575e-147
8.34864e-148
8.26291e-149
8.8261e-150
8.4802e-106
4.35875e-107
2.24393e-108
1.15743e-109
5.98396e-111
3.10229e-112
1.61346e-113
8.42181e-115
4.4135e-116
2.32275e-117
1.22776e-118
6.51779e-120
3.47466e-121
1.86014e-122
1.00058e-123
5.41901e-125
2.97049e-126
1.66445e-127
9.69636e-129
5.94421e-130
3.76146e-131
2.41361e-132
1.56864e-133
1.03227e-134
6.87294e-136
4.65245e-137
3.23055e-138
2.3401e-139
1.78492e-140
1.40714e-141
1.13586e-142
9.32758e-144
7.82956e-145
6.60741e-146
5.87115e-147
5.5404e-148
5.64912e-149
1.6902e-105
8.70813e-107
4.49353e-108
2.3232e-109
1.20398e-110
6.25752e-112
3.26331e-113
1.70857e-114
8.98634e-116
4.75078e-117
2.52615e-118
1.35203e-119
7.2908e-121
3.96688e-122
2.18266e-123
1.21876e-124
6.94313e-126
4.06407e-127
2.46155e-128
1.54588e-129
9.92991e-131
6.47009e-132
4.2882e-133
2.88949e-134
1.97763e-135
1.38062e-136
9.91226e-138
7.40349e-139
5.78733e-140
4.68542e-141
3.89751e-142
3.33019e-143
2.9501e-144
2.71013e-145
2.61055e-146
2.62347e-147
2.78221e-148
1.69038e-105
8.71085e-107
4.49622e-108
2.32552e-109
1.20584e-110
6.27185e-112
3.27412e-113
1.71661e-114
9.0456e-116
4.79412e-117
2.55754e-118
1.37451e-119
7.44947e-121
4.07684e-122
2.25689e-123
1.26692e-124
7.23545e-126
4.22095e-127
2.52525e-128
1.55236e-129
9.78197e-131
6.30178e-132
4.15003e-133
2.79659e-134
1.93235e-135
1.37407e-136
1.01027e-137
7.71715e-139
6.13661e-140
5.06668e-141
4.33276e-142
3.83813e-143
3.52626e-144
3.37241e-145
3.37238e-146
3.53763e-147
3.90571e-148
8.48582e-106
4.36473e-107
2.24924e-108
1.16176e-109
6.01768e-111
3.12784e-112
1.63252e-113
8.56264e-115
4.51721e-116
2.39917e-117
1.28424e-118
6.93692e-120
3.78674e-121
2.09275e-122
1.17346e-123
6.69313e-125
3.89441e-126
2.31792e-127
1.41394e-128
8.84172e-130
5.65546e-131
3.69558e-132
2.4693e-133
1.6894e-134
1.18584e-135
8.56699e-137
6.39441e-138
4.94934e-139
3.98042e-140
3.3255e-141
2.88461e-142
2.60392e-143
2.45041e-144
2.41503e-145
2.49267e-146
2.69958e-147
3.07313e-148
2.09135e-106
1.07232e-107
5.51042e-109
2.83923e-110
1.46764e-111
7.61604e-113
3.97057e-114
2.08146e-115
1.09823e-116
5.83823e-118
3.13063e-119
1.69551e-120
9.28786e-122
5.15467e-123
2.90385e-124
1.66398e-125
9.72015e-127
5.80033e-128
3.54154e-129
2.21449e-130
1.41836e-131
9.30908e-133
6.26767e-134
4.33604e-135
3.08888e-136
2.27175e-137
1.72953e-138
1.36624e-139
1.12126e-140
9.57103e-142
8.49717e-143
7.87343e-144
7.60154e-145
7.70956e-146
8.16394e-147
9.1014e-148
1.06747e-148
2.42248e-107
1.23791e-108
6.3428e-110
3.26012e-111
1.68192e-112
8.71572e-114
4.54038e-115
2.38005e-116
1.25675e-117
6.69248e-119
3.59886e-120
1.95711e-121
1.07807e-122
6.02608e-124
3.42476e-125
1.98292e-126
1.17194e-127
7.08166e-129
4.38012e-130
2.77453e-131
1.80041e-132
1.19769e-133
8.17922e-135
5.74474e-136
4.15902e-137
3.11159e-138
2.41176e-139
1.9412e-140
1.62461e-141
1.41677e-142
1.28675e-143
1.22448e-144
1.21357e-145
1.27093e-146
1.38505e-147
1.59163e-148
1.92941e-149
1.16712e-108
5.94494e-110
3.03797e-111
1.55816e-112
8.02608e-114
4.15527e-115
2.16422e-116
1.13518e-117
6.00332e-119
3.20506e-120
1.72986e-121
9.45328e-123
5.23938e-124
2.95039e-125
1.69119e-126
9.88577e-128
5.90275e-129
3.60498e-130
2.25405e-131
1.44381e-132
9.48109e-134
6.39052e-135
4.42893e-136
3.16271e-137
2.33258e-138
1.78119e-139
1.41127e-140
1.16284e-141
9.97034e-143
8.93069e-144
8.32306e-145
8.19043e-146
8.3204e-147
9.0998e-148
1.01254e-148
1.21571e-149
1.52033e-150
1.62829e-110
8.27664e-112
4.22322e-113
2.16411e-114
1.11446e-115
5.77279e-117
3.01083e-118
1.58293e-119
8.39967e-121
4.50506e-122
2.44596e-123
1.34659e-124
7.53101e-126
4.28618e-127
2.48699e-128
1.47359e-129
8.92773e-131
5.53548e-132
3.51436e-133
2.28564e-134
1.52426e-135
1.04424e-136
7.36665e-138
5.36527e-139
4.04488e-140
3.16457e-141
2.57356e-142
2.18063e-143
1.92352e-144
1.77941e-145
1.70373e-146
1.75161e-147
1.80409e-148
2.12624e-149
2.30427e-150
3.11739e-151
3.71912e-152
7.60423e-110
3.85973e-111
1.96394e-112
1.00187e-113
5.12515e-115
2.62975e-116
1.35364e-117
6.9895e-119
3.61872e-120
1.87664e-121
9.72869e-123
5.02332e-124
2.56709e-125
1.28444e-126
6.17817e-128
2.77404e-129
1.13364e-130
4.33559e-132
2.13318e-133
1.31039e-134
8.57836e-136
4.94524e-137
2.93882e-138
2.67762e-139
2.34092e-140
1.34636e-141
6.91511e-143
4.34646e-144
3.4039e-145
3.04807e-146
2.90331e-147
2.78922e-148
2.24634e-149
1.88334e-150
1.47926e-151
9.99663e-153
9.62057e-154
5.12226e-108
2.60678e-109
1.32934e-110
6.79409e-112
3.48102e-113
1.78844e-114
9.21557e-116
4.76306e-117
2.46876e-118
1.28243e-119
6.66784e-121
3.46211e-122
1.78844e-123
9.13959e-125
4.58413e-126
2.2365e-127
1.06309e-128
5.02854e-130
2.70462e-131
1.75538e-132
1.17728e-133
6.75668e-135
3.96452e-136
2.53177e-137
1.53969e-138
8.94099e-140
5.49889e-141
4.01112e-142
3.37928e-143
2.96428e-144
2.67645e-145
2.4345e-146
2.16603e-147
1.69395e-148
1.38322e-149
1.15268e-150
9.49975e-152
1.01915e-106
5.20584e-108
2.66361e-109
1.3655e-110
7.01612e-112
3.61428e-113
1.8672e-114
9.67599e-116
5.0298e-117
2.62205e-118
1.36981e-119
7.16224e-121
3.7403e-122
1.94523e-123
1.0042e-124
5.13583e-126
2.61619e-127
1.35272e-128
7.54579e-130
4.68626e-131
3.01691e-132
1.86938e-133
1.13338e-134
6.88969e-136
4.13844e-137
2.49626e-138
1.54178e-139
1.0259e-140
7.47627e-142
5.7442e-143
4.5807e-144
3.79774e-145
3.36404e-146
2.92937e-147
2.64456e-148
2.45389e-149
2.32392e-150
8.58487e-106
4.40182e-107
2.26008e-108
1.16238e-109
5.99051e-111
3.09487e-112
1.60337e-113
8.33274e-115
4.34521e-116
2.27382e-117
1.19397e-118
6.2896e-120
3.32266e-121
1.75994e-122
9.35254e-124
5.00033e-125
2.71068e-126
1.51224e-127
8.93235e-129
5.67235e-130
3.66792e-131
2.35205e-132
1.52329e-133
9.94058e-135
6.42598e-136
4.13649e-137
2.70365e-138
1.86205e-139
1.38127e-140
1.06269e-141
8.30649e-143
6.56841e-144
5.35236e-145
4.50357e-146
4.0825e-147
3.89093e-148
3.92119e-149
3.44387e-105
1.77206e-106
9.12897e-108
4.71015e-109
2.43499e-110
1.26184e-111
6.55755e-113
3.41903e-114
1.78924e-115
9.40125e-117
4.96089e-118
2.62941e-119
1.40006e-120
7.49158e-122
4.03234e-123
2.18839e-124
1.20351e-125
6.76516e-127
3.93721e-128
2.39389e-129
1.49826e-130
9.50693e-132
6.11509e-133
3.99148e-134
2.64375e-135
1.78629e-136
1.24156e-137
8.99287e-139
6.84054e-140
5.39604e-141
4.37744e-142
3.62974e-143
3.08532e-144
2.67691e-145
2.43268e-146
2.32637e-147
2.36101e-148
6.83822e-105
3.52689e-106
1.82108e-107
9.41742e-109
4.87974e-110
2.53481e-111
1.32069e-112
6.90566e-114
3.62592e-115
1.91299e-116
1.0148e-117
5.41706e-119
2.91272e-120
1.57983e-121
8.66222e-123
4.81693e-124
2.72942e-125
1.58534e-126
9.49317e-128
5.87049e-129
3.71089e-130
2.3814e-131
1.5548e-132
1.03316e-133
6.98838e-135
4.83166e-136
3.43915e-137
2.54307e-138
1.96219e-139
1.56863e-140
1.29221e-141
1.09716e-142
9.66413e-144
8.85308e-145
8.49815e-146
8.52359e-147
8.97527e-148
6.83915e-105
3.52803e-106
1.82215e-107
9.42638e-109
4.88681e-110
2.5402e-111
1.32473e-112
6.93548e-114
3.64777e-115
1.92888e-116
1.02626e-117
5.49878e-119
2.97025e-120
1.61963e-121
8.93105e-123
4.99213e-124
2.83728e-125
1.64567e-126
9.77497e-128
5.95647e-129
3.71614e-130
2.36858e-131
1.5424e-132
1.02733e-133
7.01342e-135
4.925e-136
3.57267e-137
2.68835e-138
2.10242e-139
1.70595e-140
1.43387e-141
1.24888e-142
1.12907e-143
1.06319e-144
1.04699e-145
1.08079e-146
1.17191e-147
3.44608e-105
1.77435e-106
9.14905e-108
4.72642e-109
2.4476e-110
1.27136e-111
6.62827e-113
3.47109e-114
1.8274e-115
9.68082e-117
5.16607e-118
2.78038e-119
1.51136e-120
8.31171e-122
4.63413e-123
2.6257e-124
1.51589e-125
8.94005e-127
5.39565e-128
3.33378e-129
2.10559e-130
1.35809e-131
8.95367e-133
6.04267e-134
4.18316e-135
2.97921e-136
2.1907e-137
1.66897e-138
1.31987e-139
1.08369e-140
9.23684e-142
8.18997e-143
7.56812e-144
7.31685e-145
7.40495e-146
7.85586e-147
8.74654e-148
8.59416e-106
4.41117e-107
2.26816e-108
1.16887e-109
6.04056e-111
3.13249e-112
1.63124e-113
8.53736e-115
4.49487e-116
2.38312e-117
1.27379e-118
6.87263e-120
3.74833e-121
2.06989e-122
1.15945e-123
6.60136e-125
3.82837e-126
2.26603e-127
1.37115e-128
8.48938e-130
5.37984e-131
3.49107e-132
2.32221e-133
1.58595e-134
1.11436e-135
8.07597e-137
6.05245e-138
4.70166e-139
3.7912e-140
3.17699e-141
2.76792e-142
2.51417e-143
2.38019e-144
2.3623e-145
2.44993e-146
2.66903e-147
3.05071e-148
1.02084e-106
5.22186e-108
2.67711e-109
1.3762e-110
7.09789e-112
3.67544e-113
1.91236e-114
1.00073e-115
5.27226e-117
2.7997e-118
1.5004e-119
8.12637e-121
4.45519e-122
2.47668e-123
1.39871e-124
8.04056e-126
4.71372e-127
2.8227e-128
1.72862e-129
1.08329e-130
6.94992e-132
4.56806e-133
3.08026e-134
2.13465e-135
1.52371e-136
1.12303e-137
8.5681e-139
6.78253e-140
5.57907e-141
4.77807e-142
4.26118e-143
3.97578e-144
3.86726e-145
3.96249e-146
4.23289e-147
4.7622e-148
5.62515e-149
5.13427e-108
2.6177e-109
1.33836e-110
6.86487e-112
3.53482e-113
1.82854e-114
9.5112e-116
4.97966e-117
2.62718e-118
1.39844e-119
7.52068e-121
4.09241e-122
2.25693e-123
1.26366e-124
7.19635e-126
4.17583e-127
2.47308e-128
1.49689e-129
9.26897e-131
5.87588e-132
3.8163e-133
2.54248e-134
1.74037e-135
1.22652e-136
8.91974e-138
6.71012e-139
5.23329e-140
4.24114e-141
3.57511e-142
3.14524e-143
2.88104e-144
2.77831e-145
2.77641e-146
2.96372e-147
3.25102e-148
3.81044e-149
4.65286e-150
7.62572e-110
3.87874e-111
1.9794e-112
1.01406e-113
5.21869e-115
2.70017e-116
1.406e-117
7.37608e-119
3.90343e-120
2.08661e-121
1.1284e-122
6.18317e-124
3.4392e-125
1.9452e-126
1.12073e-127
6.58846e-129
3.95723e-130
2.43077e-131
1.52796e-132
9.83401e-134
6.48656e-135
4.39249e-136
3.06052e-137
2.19959e-138
1.63475e-139
1.25953e-140
1.0078e-141
8.39658e-143
7.28169e-144
6.6139e-145
6.23188e-146
6.26546e-147
6.38879e-148
7.25802e-149
7.96941e-150
1.01298e-150
1.22895e-151
2.58605e-109
1.31367e-110
6.68749e-112
3.41205e-113
1.74522e-114
8.95112e-116
4.6045e-117
2.37563e-118
1.22898e-119
6.37014e-121
3.30314e-122
1.70879e-123
8.77874e-125
4.44608e-126
2.19529e-127
1.0403e-128
4.70693e-130
2.08023e-131
1.09797e-132
7.49499e-134
5.29795e-135
3.07212e-136
1.37235e-137
6.53344e-139
3.62185e-140
2.36425e-141
2.02811e-142
1.57214e-143
1.31722e-144
1.11008e-145
1.00098e-146
8.71412e-148
7.31902e-149
7.14108e-150
6.06722e-151
3.72848e-152
2.37769e-153
1.67041e-107
8.50854e-109
4.34142e-110