/*--------------------------------*- C++ -*----------------------------------*\
| =========                 |                                                 |
| \\      /  F ield         | OpenFOAM: The Open Source CFD Toolbox           |
|  \\    /   O peration     | Version:  2.3.1                                 |
|   \\  /    A nd           | Web:      www.OpenFOAM.org                      |
|    \\/     M anipulation  |                                                 |
\*---------------------------------------------------------------------------*/
FoamFile
{
    version     2.0;
    format      ascii;
    class       volScalarField;
    location    "15";
    object      Sed_0;
}
// * * * * * * * * * * * * * * * * * * * * * * * * * * * * * * * * * * * * * //

dimensions      [0 0 0 0 0 0 0];

internalField   nonuniform List<scalar> 
37530
(
5.87101e-114
2.96086e-115
1.49889e-116
7.61574e-118
3.88379e-119
1.98772e-120
1.02057e-121
5.2512e-123
2.70256e-124
1.3884e-125
7.1355e-127
3.63084e-128
1.79701e-129
8.33938e-131
3.31682e-132
8.51167e-134
1.8563e-135
9.84993e-137
8.32302e-138
3.15393e-138
2.45751e-139
7.98188e-141
8.6585e-142
9.35598e-143
3.00795e-144
7.38275e-146
1.95579e-147
1.00274e-148
1.65828e-149
2.44638e-150
5.6168e-151
1.83844e-151
2.1132e-152
1.49012e-153
1.43839e-154
1.58497e-155
1.87834e-156
6.07212e-112
3.06697e-113
1.55448e-114
7.90581e-116
4.0351e-117
2.06708e-118
1.06275e-119
5.48152e-121
2.83452e-122
1.46914e-123
7.60219e-125
3.90439e-126
1.97021e-127
9.59329e-129
4.36168e-130
1.74736e-131
5.74518e-133
1.9159e-134
1.44898e-135
1.78732e-136
1.30418e-137
6.43703e-139
5.1893e-140
4.24991e-141
2.03474e-142
5.88892e-144
1.57433e-145
7.79248e-147
1.84039e-147
2.78589e-148
3.63675e-149
6.19023e-150
8.32867e-151
8.87364e-152
8.78195e-153
8.39977e-154
7.01888e-155
1.62259e-110
8.22571e-112
4.18352e-113
2.13467e-114
1.09305e-115
5.61803e-117
2.89902e-118
1.50209e-119
7.81032e-121
4.0699e-122
2.1204e-123
1.09998e-124
5.6424e-126
2.82873e-127
1.35846e-128
6.0619e-130
2.44096e-131
9.10761e-133
3.86497e-134
2.04131e-135
1.1389e-136
6.4544e-138
3.87879e-139
2.46189e-140
1.40668e-141
6.8982e-143
3.00399e-144
1.68034e-145
1.29571e-146
1.01622e-147
7.6856e-149
6.66299e-150
1.02107e-150
1.64393e-151
2.17465e-152
2.93109e-153
4.13451e-154
1.60856e-109
8.18754e-111
4.18012e-112
2.14086e-113
1.10025e-114
5.67636e-116
2.94068e-117
1.52992e-118
7.99249e-120
4.1908e-121
2.20356e-122
1.16019e-123
6.10356e-125
3.20044e-126
1.66934e-127
8.6682e-129
4.53485e-130
2.4693e-131
1.56003e-132
1.14295e-133
8.18729e-135
5.53957e-136
3.81378e-137
2.59796e-138
1.6198e-139
8.73772e-141
4.30422e-142
2.22445e-143
1.33714e-144
8.08195e-146
3.97917e-147
1.64402e-148
8.17223e-150
6.59351e-151
1.28128e-151
2.34472e-152
3.76291e-153
6.96794e-109
3.56022e-110
1.82442e-111
9.37815e-113
4.8374e-114
2.50494e-115
1.30275e-116
6.80684e-118
3.5737e-119
1.88506e-120
9.98565e-122
5.30754e-123
2.82681e-124
1.50605e-125
8.01466e-127
4.26054e-128
2.27268e-129
1.23414e-130
7.05708e-132
4.33668e-133
2.76664e-134
1.80019e-135
1.19544e-136
8.01431e-138
5.35678e-139
3.54813e-140
2.32235e-141
1.5627e-142
1.12784e-143
8.31566e-145
5.84707e-146
3.82305e-147
2.28662e-148
1.20212e-149
6.8248e-151
5.57848e-152
6.81347e-153
1.42089e-108
7.27849e-110
3.73942e-111
1.92725e-112
9.96859e-114
5.17752e-115
2.70178e-116
1.41728e-117
7.47755e-119
3.96984e-120
2.12195e-121
1.14273e-122
6.20646e-124
3.40542e-125
1.89323e-126
1.07185e-127
6.23022e-129
3.76145e-130
2.39121e-131
1.60508e-132
1.10258e-133
7.62964e-135
5.36185e-136
3.81327e-137
2.71979e-138
1.94556e-139
1.41042e-140
1.06368e-141
8.53477e-143
7.06306e-144
5.81338e-145
4.66106e-146
3.62002e-147
2.61174e-148
1.90779e-149
1.39898e-150
1.16946e-151
1.42091e-108
7.28062e-110
3.74199e-111
1.92964e-112
9.98855e-114
5.1933e-115
2.71389e-116
1.42641e-117
7.54569e-119
4.02013e-120
2.1585e-121
1.16879e-122
6.38795e-124
3.52788e-125
1.97208e-126
1.1187e-127
6.4646e-129
3.82495e-130
2.33041e-131
1.46569e-132
9.46952e-134
6.26319e-135
4.24131e-136
2.943e-137
2.09803e-138
1.54437e-139
1.18058e-140
9.43213e-142
7.89195e-143
6.86892e-144
6.15907e-145
5.69657e-146
5.32474e-147
5.10716e-148
4.94019e-149
4.90448e-150
5.2323e-151
6.97459e-109
3.56711e-110
1.83048e-111
9.42743e-113
4.87571e-114
2.53399e-115
1.32446e-116
6.96807e-118
3.69335e-119
1.97425e-120
1.06557e-121
5.81541e-123
3.2149e-124
1.80425e-125
1.03077e-126
6.01478e-128
3.59851e-129
2.21564e-130
1.40691e-131
9.20418e-133
6.17489e-134
4.23599e-135
2.97309e-136
2.13611e-137
1.57217e-138
1.1885e-139
9.27484e-141
7.51924e-142
6.35587e-143
5.59677e-144
5.10752e-145
4.84976e-146
4.77558e-147
4.9307e-148
5.31059e-149
5.99614e-150
7.25674e-151
1.61099e-109
8.2127e-111
4.20224e-112
2.15881e-113
1.11416e-114
5.78117e-116
3.01853e-117
1.58746e-118
8.41748e-120
4.50526e-121
2.43694e-122
1.33396e-123
7.40076e-125
4.16865e-126
2.38869e-127
1.39548e-128
8.33042e-130
5.09212e-131
3.19187e-132
2.05258e-133
1.35404e-134
9.1693e-136
6.38429e-137
4.58223e-138
3.40351e-139
2.62342e-140
2.1036e-141
1.75846e-142
1.53162e-143
1.39414e-144
1.31917e-145
1.31781e-146
1.35688e-147
1.51033e-148
1.71076e-149
2.07467e-150
2.69641e-151
1.62729e-110
8.26782e-112
4.21813e-113
2.16173e-114
1.11358e-115
5.77095e-117
3.0116e-118
1.58427e-119
8.411e-121
4.51244e-122
2.44994e-123
1.34836e-124
7.53654e-126
4.28695e-127
2.4871e-128
1.47498e-129
8.96017e-131
5.58435e-132
3.57353e-133
2.3478e-134
1.58333e-135
1.09668e-136
7.81342e-138
5.73769e-139
4.35341e-140
3.42229e-141
2.79428e-142
2.3759e-143
2.10378e-144
1.94862e-145
1.87488e-146
1.91271e-147
2.0033e-148
2.27676e-149
2.63684e-150
3.20768e-151
4.4823e-152
6.10343e-112
3.09201e-113
1.57381e-114
8.05141e-116
4.143e-117
2.14629e-118
1.1206e-119
5.90341e-121
3.14197e-122
1.69187e-123
9.23149e-125
5.11282e-126
2.87955e-127
1.6523e-128
9.67795e-130
5.79657e-131
3.5553e-132
2.23524e-133
1.44126e-134
9.53392e-136
6.47546e-137
4.52374e-138
3.25829e-139
2.42626e-140
1.87308e-141
1.50316e-142
1.25593e-143
1.095e-144
9.93939e-146
9.48133e-147
9.32928e-148
9.91921e-149
1.05037e-149
1.26476e-150
1.48243e-151
1.81138e-152
2.85814e-153
5.91984e-114
2.99728e-115
1.52581e-116
7.81287e-118
4.02734e-119
2.09206e-120
1.09645e-121
5.80516e-123
3.10934e-124
1.68751e-125
9.29627e-127
5.20811e-128
2.97303e-129
1.73255e-130
1.03248e-131
6.30045e-133
3.94006e-134
2.52552e-135
1.659e-136
1.11686e-137
7.71552e-139
5.48493e-140
4.02653e-141
3.06337e-142
2.42331e-143
1.99893e-144
1.72118e-145
1.55025e-146
1.45393e-147
1.43992e-148
1.45504e-149
1.64059e-150
1.71482e-151
2.33284e-152
2.5471e-153
3.50137e-154
6.00999e-155
1.77965e-112
8.98969e-114
4.55671e-115
2.31749e-116
1.18271e-117
6.05667e-119
3.11223e-120
1.6037e-121
8.28308e-123
4.28954e-124
2.21685e-125
1.13505e-126
5.68078e-128
2.70397e-129
1.14951e-130
3.84507e-132
9.44884e-134
3.82006e-135
2.47629e-136
5.15297e-137
6.13353e-138
2.9829e-139
2.42473e-140
2.02568e-141
9.08842e-143
2.50754e-144
7.10019e-146
3.53405e-147
3.61994e-148
4.81119e-149
7.00644e-150
1.07989e-150
1.42375e-151
1.64521e-152
1.96308e-153
2.41415e-154
3.04403e-155
1.56433e-110
7.92025e-112
4.02262e-113
2.04948e-114
1.04764e-115
5.37406e-117
2.76665e-118
1.42949e-119
7.41071e-121
3.84827e-122
1.99619e-123
1.02944e-124
5.23435e-126
2.58666e-127
1.21076e-128
5.1381e-130
1.89464e-131
6.7608e-133
3.64896e-134
3.42251e-135
2.5383e-136
1.50369e-137
1.16196e-138
8.86469e-140
4.93155e-141
1.866e-142
6.10346e-144
2.96195e-145
3.30924e-146
4.46747e-147
5.16558e-148
6.8301e-149
8.28767e-150
8.63677e-151
8.56528e-152
8.6246e-153
8.32302e-154
3.77979e-109
1.92105e-110
9.79163e-112
5.00563e-113
2.56723e-114
1.32128e-115
6.82658e-117
3.54051e-118
1.84249e-119
9.61203e-121
5.01764e-122
2.61255e-123
1.34949e-124
6.85532e-126
3.37718e-127
1.58145e-128
6.92815e-130
2.94341e-131
1.3299e-132
7.155e-134
4.20987e-135
2.49687e-136
1.55593e-137
9.98967e-139
5.91005e-140
3.09041e-141
1.44542e-142
7.49749e-144
5.15641e-145
3.90117e-146
2.87867e-147
2.38389e-148
2.62794e-149
3.28891e-150
3.91849e-151
4.88972e-152
6.68029e-153
3.5579e-108
1.81552e-109
9.2887e-111
4.76575e-112
2.45285e-113
1.26684e-114
6.56776e-116
3.41859e-117
1.78653e-118
9.37105e-120
4.93047e-121
2.59906e-122
1.37043e-123
7.21386e-125
3.78574e-126
1.98304e-127
1.04774e-128
5.72919e-130
3.51466e-131
2.44157e-132
1.70406e-133
1.14704e-134
7.79322e-136
5.23441e-137
3.31494e-138
1.92656e-139
1.05633e-140
5.92343e-142
3.67428e-143
2.41592e-144
1.46011e-145
8.4397e-147
4.96443e-148
3.4662e-149
4.12919e-150
5.79551e-151
8.12445e-152
1.50488e-107
7.70784e-109
3.95783e-110
2.03781e-111
1.05248e-112
5.45494e-114
2.83843e-115
1.48335e-116
7.78731e-118
4.10699e-119
2.17544e-120
1.15671e-121
6.16833e-123
3.29552e-124
1.76276e-125
9.44838e-127
5.09874e-128
2.80622e-129
1.62007e-130
9.98517e-132
6.38903e-133
4.16007e-134
2.75285e-135
1.84013e-136
1.2339e-137
8.29757e-139
5.61477e-140
3.91333e-141
2.86007e-142
2.14178e-143
1.60322e-144
1.17697e-145
8.36184e-147
5.58e-148
3.91235e-149
3.09447e-150
3.07555e-151
3.043e-107
1.56248e-108
8.04299e-110
4.15168e-111
2.1499e-112
1.11743e-113
5.83269e-115
3.05921e-116
1.61315e-117
8.55644e-119
4.56786e-120
2.456e-121
1.33125e-122
7.28573e-124
4.03643e-125
2.27372e-126
1.31152e-127
7.82259e-129
4.87849e-130
3.19035e-131
2.13671e-132
1.44692e-133
9.95858e-135
6.94799e-136
4.8877e-137
3.47498e-138
2.5223e-139
1.90637e-140
1.52096e-141
1.25351e-142
1.04519e-143
8.73441e-145
7.41321e-146
6.21548e-147
5.33595e-148
4.59805e-149
4.39292e-150
3.04312e-107
1.56292e-108
8.04811e-110
4.15636e-111
2.15379e-112
1.12049e-113
5.85606e-115
3.07679e-116
1.62625e-117
8.65304e-119
4.63817e-120
2.50639e-121
1.36668e-122
7.5287e-124
4.19715e-125
2.37398e-126
1.36734e-127
8.05821e-129
4.88376e-130
3.05194e-131
1.95902e-132
1.2876e-133
8.66397e-135
5.9724e-136
4.22669e-137
3.08368e-138
2.33092e-139
1.83621e-140
1.5113e-141
1.29409e-142
1.14553e-143
1.04821e-144
9.84355e-146
9.56006e-147
9.57986e-148
1.00133e-148
1.11004e-149
1.50606e-107
7.7206e-109
3.96924e-110
2.04718e-111
1.05981e-112
5.51068e-114
2.88015e-115
1.51434e-116
8.0171e-118
4.27786e-119
2.30329e-120
1.25305e-121
6.89919e-123
3.85227e-124
2.1868e-125
1.26589e-126
7.49832e-128
4.56012e-129
2.85359e-130
1.83631e-131
1.21083e-132
8.16155e-134
5.62824e-135
3.97479e-136
2.87901e-137
2.14522e-138
1.65249e-139
1.32285e-140
1.103e-141
9.5654e-143
8.60618e-144
8.06354e-145
7.86474e-146
8.04814e-147
8.61289e-148
9.66789e-149
1.15187e-149
3.5625e-108
1.82039e-109
9.33193e-111
4.80096e-112
2.48018e-113
1.28749e-114
6.72161e-116
3.53243e-117
1.87061e-118
9.99248e-120
5.39091e-121
2.94121e-122
1.62523e-123
9.11128e-125
5.19242e-126
3.01465e-127
1.78722e-128
1.08423e-129
6.74157e-131
4.2992e-132
2.81201e-133
1.88744e-134
1.30177e-135
9.24351e-137
6.77443e-138
5.13961e-139
4.04792e-140
3.3179e-141
2.83171e-142
2.52197e-143
2.33714e-144
2.27403e-145
2.29562e-146
2.46863e-147
2.74803e-148
3.25173e-149
4.08702e-150
3.78885e-109
1.92945e-110
9.86174e-112
5.06093e-113
2.60933e-114
1.35267e-115
7.05697e-117
3.70896e-118
1.96599e-119
1.05231e-120
5.69565e-122
3.12227e-123
1.73656e-124
9.8186e-126
5.65544e-127
3.32568e-128
2.00067e-129
1.23327e-130
7.79725e-132
5.05723e-133
3.36493e-134
2.29834e-135
1.61388e-136
1.16734e-137
8.71815e-139
6.74093e-140
5.40968e-141
4.51723e-142
3.92694e-143
3.56628e-144
3.3696e-145
3.35862e-146
3.46182e-147
3.82671e-148
4.35244e-149
5.23412e-150
6.87025e-151
1.5708e-110
7.97403e-112
4.06502e-113
2.0818e-114
1.07177e-115
5.55165e-117
2.8963e-118
1.52352e-119
8.09038e-121
4.34307e-122
2.36038e-123
1.30089e-124
7.28355e-126
4.15053e-127
2.41187e-128
1.43184e-129
8.69771e-131
5.41248e-132
3.45288e-133
2.25917e-134
1.51709e-135
1.04714e-136
7.44418e-138
5.46382e-139
4.15111e-140
3.27302e-141
2.68318e-142
2.29236e-143
2.03875e-144
1.90128e-145
1.83605e-146
1.89677e-147
1.98669e-148
2.30738e-149
2.64863e-150
3.30142e-151
4.58429e-152
1.79126e-112
9.07927e-114
4.62433e-115
2.36767e-116
1.21954e-117
6.32551e-119
3.3075e-120
1.74557e-121
9.31085e-123
5.02707e-124
2.75194e-125
1.53019e-126
8.65853e-128
4.99519e-129
2.94339e-130
1.77417e-131
1.09514e-132
6.92643e-134
4.48952e-135
2.98286e-136
2.03368e-137
1.42611e-138
1.03161e-139
7.72152e-141
5.99789e-142
4.84808e-143
4.08297e-144
3.591e-145
3.2871e-146
3.16942e-147
3.13443e-148
3.40637e-149
3.54376e-150
4.57983e-151
4.89713e-152
7.1059e-153
9.68616e-154
2.25267e-111
1.14024e-112
5.7896e-114
2.9488e-115
1.50674e-116
7.72484e-118
3.97727e-119
2.05559e-120
1.0655e-121
5.52981e-123
2.86456e-124
1.47273e-125
7.43504e-127
3.61106e-128
1.61607e-129
6.20025e-131
1.71578e-132
5.76444e-134
2.99937e-135
3.53036e-136
5.28338e-137
3.2171e-138
2.69847e-139
2.16429e-140
1.07865e-141
3.5167e-143
1.2498e-144
6.35038e-146
4.88307e-147
4.88691e-148
5.1509e-149
6.2636e-150
7.053e-151
6.78046e-152
6.72586e-153
9.46835e-154
1.48463e-154
1.77084e-109
8.98623e-111
4.57284e-112
2.33367e-113
1.1946e-114
6.13629e-116
3.16355e-117
1.63668e-118
8.49273e-120
4.41503e-121
2.29451e-122
1.18758e-123
6.08166e-125
3.04849e-126
1.46911e-127
6.61635e-129
2.74586e-130
1.08092e-131
5.09995e-133
3.83697e-134
2.90536e-135
1.85391e-136
1.35637e-137
9.65916e-139
5.65446e-140
2.73964e-141
1.22947e-142
6.71635e-144
4.89904e-145
4.87691e-146
4.86976e-147
5.50994e-148
6.00515e-149
5.54127e-150
4.98938e-151
4.92079e-152
4.89853e-153
3.91699e-108
1.99518e-109
1.0188e-110
5.21607e-112
2.67852e-113
1.37994e-114
7.13407e-116
3.70139e-117
1.92687e-118
1.00579e-119
5.25691e-121
2.74452e-122
1.42551e-123
7.32038e-125
3.68371e-126
1.79652e-127
8.45637e-129
3.96749e-130
1.97791e-131
1.11932e-132
6.83985e-134
4.1317e-135
2.56856e-136
1.61042e-137
9.58176e-139
5.3223e-140
2.76999e-141
1.54651e-142
1.01935e-143
7.4369e-145
5.58501e-146
4.61686e-147
4.51393e-148
4.41863e-149
4.57675e-150
5.10616e-151
6.20318e-152
3.5095e-107
1.79458e-108
9.197e-110
4.72493e-111
2.43416e-112
1.25794e-113
6.52339e-115
3.3955e-116
1.77418e-117
9.30462e-119
4.89574e-120
2.58231e-121
1.36385e-122
7.20347e-124
3.80239e-125
2.00976e-126
1.07402e-127
5.92798e-129
3.58149e-130
2.40463e-131
1.62996e-132
1.07727e-133
7.18029e-135
4.75647e-136
3.03724e-137
1.85764e-138
1.11042e-139
6.89892e-141
4.637e-142
3.24366e-143
2.23361e-144
1.53096e-145
1.09502e-146
8.52312e-148
8.3545e-149
9.08754e-150
1.07309e-150
1.44988e-106
7.44093e-108
3.82666e-109
1.97254e-110
1.01956e-111
5.28641e-113
2.75079e-114
1.43708e-115
7.53997e-117
3.97363e-118
2.10338e-119
1.11801e-120
5.96449e-122
3.19228e-123
1.71413e-124
9.24884e-126
5.04112e-127
2.80671e-128
1.63296e-129
1.00704e-130
6.4274e-132
4.16304e-133
2.73356e-134
1.81489e-135
1.21434e-136
8.21708e-138
5.6697e-139
4.06847e-140
3.06358e-141
2.36652e-142
1.85556e-143
1.4588e-144
1.15813e-145
9.01684e-147
7.41051e-148
6.49556e-149
6.59961e-150
2.90731e-106
1.49568e-107
7.71034e-109
3.9841e-110
2.06443e-111
1.07324e-112
5.60085e-114
2.93572e-115
1.54642e-116
8.19102e-118
4.36524e-119
2.34231e-120
1.26667e-121
6.91364e-123
3.81773e-124
2.14116e-125
1.22712e-126
7.24701e-128
4.44846e-129
2.8459e-130
1.86352e-131
1.23628e-132
8.34051e-134
5.71392e-135
3.96412e-136
2.79507e-137
2.0219e-138
1.52315e-139
1.20484e-140
9.85532e-142
8.23653e-143
7.01582e-144
6.17368e-145
5.56511e-146
5.25335e-147
5.09916e-148
5.30674e-149
2.90753e-106
1.49612e-107
7.71506e-109
3.98829e-110
2.06785e-111
1.07591e-112
5.62113e-114
2.9509e-115
1.55768e-116
8.27375e-118
4.42536e-119
2.38544e-120
1.29713e-121
7.12426e-123
3.95913e-124
2.23178e-125
1.28058e-126
7.51255e-128
4.52629e-129
2.80702e-130
1.78653e-131
1.16343e-132
7.75075e-134
5.28687e-135
3.69977e-136
2.66619e-137
1.98809e-138
1.54246e-139
1.24834e-140
1.04989e-141
9.14146e-143
8.2382e-144
7.68218e-145
7.44138e-146
7.52027e-147
7.96144e-148
8.8931e-149
1.4509e-106
7.45196e-108
3.83653e-109
1.98064e-110
1.02589e-111
5.33453e-113
2.78677e-114
1.46376e-115
7.73721e-117
4.11971e-118
2.21205e-119
1.19931e-120
6.57572e-122
3.65302e-123
2.06093e-124
1.18407e-125
6.94941e-127
4.17911e-128
2.58035e-129
1.63574e-130
1.06153e-131
7.04051e-133
4.77655e-134
3.31873e-135
2.36573e-136
1.73579e-137
1.31664e-138
1.03679e-139
8.49084e-141
7.22813e-142
6.38866e-143
5.87903e-144
5.64035e-145
5.67219e-146
5.97242e-147
6.60315e-148
7.69603e-149
3.51369e-107
1.79896e-108
9.23553e-110
4.75617e-111
2.4584e-112
1.27627e-113
6.65992e-115
3.49641e-116
1.84855e-117
9.85272e-119
5.30038e-120
2.8817e-121
1.58571e-122
8.84642e-124
5.01325e-125
2.8921e-126
1.70228e-127
1.02447e-128
6.31432e-130
3.98898e-131
2.58319e-132
1.71551e-133
1.16971e-134
8.20278e-136
5.92956e-137
4.43048e-138
3.43112e-139
2.76072e-140
2.31016e-141
2.01294e-142
1.82479e-143
1.7296e-144
1.70614e-145
1.77624e-146
1.92874e-147
2.21153e-148
2.67856e-149
3.92526e-108
2.00291e-109
1.02527e-110
5.2671e-112
2.71722e-113
1.40871e-114
7.34579e-116
3.85663e-117
2.04081e-118
1.0898e-119
5.88054e-121
3.21127e-122
1.77768e-123
9.99453e-125
5.71845e-126
3.33664e-127
1.98938e-128
1.21399e-129
7.59042e-131
4.86449e-132
3.19597e-133
2.1541e-134
1.49156e-135
1.06305e-136
7.81627e-138
5.94451e-139
4.68811e-140
3.84313e-141
3.27808e-142
2.91662e-143
2.70246e-144
2.62989e-145
2.65956e-146
2.85747e-147
3.18366e-148
3.74546e-149
4.69885e-150
1.77707e-109
9.03913e-111
4.61497e-112
2.36594e-113
1.21874e-114
6.31311e-116
3.29173e-117
1.7295e-118
9.16748e-120
4.90886e-121
2.65916e-122
1.45959e-123
8.13185e-125
4.60698e-126
2.65911e-127
1.56659e-128
9.43585e-130
5.81801e-131
3.67541e-132
2.38019e-133
1.58124e-134
1.07902e-135
7.57719e-137
5.48772e-138
4.10905e-139
3.18899e-140
2.57047e-141
2.15676e-142
1.88372e-143
1.72125e-144
1.63404e-145
1.64561e-146
1.70065e-147
1.91263e-148
2.16193e-149
2.66028e-150
3.45587e-151
2.26497e-111
1.14996e-112
5.86396e-114
3.00439e-115
1.54771e-116
8.02404e-118
4.19111e-119
2.20804e-120
1.17488e-121
6.32291e-123
3.44727e-124
1.90735e-125
1.07295e-126
6.1477e-128
3.59434e-129
2.14783e-130
1.31339e-131
8.22492e-133
5.27699e-134
3.46983e-135
2.34065e-136
1.62313e-137
1.16006e-138
8.56895e-140
6.55963e-141
5.21749e-142
4.31847e-143
3.72788e-144
3.34935e-145
3.16188e-146
3.07838e-147
3.24841e-148
3.37271e-149
4.15087e-150
4.45233e-151
6.35355e-152
7.81178e-153
1.60007e-110
8.11161e-112
4.12397e-113
2.10278e-114
1.07556e-115
5.51992e-117
2.84274e-118
1.46887e-119
7.61047e-121
3.94871e-122
2.04654e-123
1.05463e-124
5.35891e-126
2.64464e-127
1.23187e-128
5.16858e-130
1.81432e-131
5.58067e-133
2.6809e-134
1.89052e-135
1.91314e-136
1.5396e-137
1.31135e-138
1.17545e-139
7.08589e-141
2.92053e-142
1.23262e-143
7.1221e-145
5.45268e-146
4.89487e-147
4.67241e-148
4.85154e-149
4.55536e-150
3.49078e-151
2.76934e-152
2.71506e-153
4.18909e-154
1.14859e-108
5.83751e-110
2.97414e-111
1.51922e-112
7.78219e-114
3.99864e-115
2.06124e-116
1.06598e-117
5.52881e-119
2.87344e-120
1.49392e-121
7.74651e-123
3.98622e-124
2.01939e-125
9.94859e-127
4.68628e-128
2.10398e-129
9.21087e-131
4.62892e-132
3.02313e-133
2.18058e-134
1.40037e-135
9.18174e-137
6.0615e-138
3.66985e-139
2.05198e-140
1.14013e-141
7.43334e-143
5.90578e-144
5.21204e-145
4.79597e-146
4.80497e-147
4.66406e-148
3.62455e-149
2.7785e-150
2.48747e-151
2.33653e-152
2.38694e-107
1.21767e-108
6.22482e-110
3.1895e-111
1.6385e-112
8.44169e-114
4.36301e-115
2.26247e-116
1.17704e-117
6.14056e-119
3.20924e-120
1.67719e-121
8.73929e-123
4.5205e-124
2.30809e-125
1.15685e-126
5.70541e-128
2.836e-129
1.52632e-130
9.17373e-132
5.79975e-133
3.59021e-134
2.19113e-135
1.32846e-136
7.91204e-138
4.63625e-139
2.70018e-140
1.66419e-141
1.14063e-142
8.41913e-144
6.53496e-145
5.52865e-146
5.24102e-147
4.57968e-148
4.20322e-149
4.20812e-150
4.46851e-151
2.06242e-106
1.05615e-107
5.41815e-109
2.78528e-110
1.43526e-111
7.41651e-113
3.84434e-114
1.99954e-115
1.04377e-116
5.46825e-118
2.87449e-119
1.51538e-120
8.00598e-122
4.23586e-123
2.24452e-124
1.19403e-125
6.43263e-127
3.57277e-128
2.13097e-129
1.38907e-130
9.19002e-132
5.99032e-133
3.93325e-134
2.5789e-135
1.65588e-136
1.0451e-137
6.60388e-139
4.40271e-140
3.17065e-141
2.36948e-142
1.78493e-143
1.35477e-144
1.07155e-145
8.88854e-147
8.20199e-148
8.11584e-149
8.66847e-150
8.37274e-106
4.30292e-107
2.21494e-108
1.14234e-109
5.90527e-111
3.06114e-112
1.59188e-113
8.30816e-115
4.35344e-116
2.29088e-117
1.21078e-118
6.42698e-120
3.4259e-121
1.83386e-122
9.86337e-124
5.34134e-125
2.92758e-126
1.64018e-127
9.55317e-129
5.85543e-130
3.70491e-131
2.37716e-132
1.54486e-133
1.01657e-134
6.76789e-136
4.58071e-137
3.17996e-138
2.3026e-139
1.75565e-140
1.38366e-141
1.11667e-142
9.1689e-144
7.69595e-145
6.49446e-146
5.77021e-147
5.4442e-148
5.55e-149
1.66881e-105
8.59675e-107
4.43555e-108
2.29296e-109
1.18817e-110
6.17462e-112
3.2197e-113
1.68554e-114
8.86417e-116
4.68565e-117
2.49123e-118
1.33319e-119
7.18839e-121
3.91071e-122
2.15149e-123
1.20121e-124
6.84221e-126
4.0044e-127
2.42502e-128
1.52273e-129
9.78035e-131
6.37209e-132
4.22286e-133
2.84517e-134
1.94706e-135
1.35902e-136
9.7548e-138
7.28359e-139
5.6918e-140
4.60698e-141
3.83161e-142
3.27347e-143
2.89956e-144
2.66346e-145
2.56533e-146
2.57772e-147
2.73335e-148
1.66899e-105
8.59943e-107
4.4382e-108
2.29524e-109
1.19e-110
6.18875e-112
3.23035e-113
1.69347e-114
8.92258e-116
4.72837e-117
2.52216e-118
1.35534e-119
7.34471e-121
4.01903e-122
2.22462e-123
1.24865e-124
7.13017e-126
4.15896e-127
2.4878e-128
1.52912e-129
9.63424e-131
6.20581e-132
4.08629e-133
2.75325e-134
1.9021e-135
1.35231e-136
9.94057e-138
7.59152e-139
6.03531e-140
4.98205e-141
4.25969e-142
3.77288e-143
3.4659e-144
3.31432e-145
3.31387e-146
3.47581e-147
3.8369e-148
8.37828e-106
4.30882e-107
2.22017e-108
1.14661e-109
5.93852e-111
3.08633e-112
1.61066e-113
8.44696e-115
4.45565e-116
2.36619e-117
1.26643e-118
6.83989e-120
3.73331e-121
2.06297e-122
1.15661e-123
6.59613e-125
3.83744e-126
2.28369e-127
1.39286e-128
8.70871e-130
5.56966e-131
3.63903e-132
2.43118e-133
1.66306e-134
1.16716e-135
8.43046e-137
6.29122e-138
4.86841e-139
3.91452e-140
3.26982e-141
2.83585e-142
2.55952e-143
2.4083e-144
2.3732e-145
2.44915e-146
2.65208e-147
3.0186e-148
2.06475e-106
1.05853e-107
5.43894e-109
2.80208e-110
1.44826e-111
7.51457e-113
3.9172e-114
2.05323e-115
1.0832e-116
5.75764e-118
3.08703e-119
1.67169e-120
9.15623e-122
5.08096e-123
2.86196e-124
1.63975e-125
9.57729e-127
5.71426e-128
3.48849e-129
2.181e-130
1.3967e-131
9.16558e-133
6.1701e-134
4.26785e-135
3.03977e-136
2.23522e-137
1.7014e-138
1.34376e-139
1.10261e-140
9.41017e-142
8.35302e-143
7.73869e-144
7.47037e-145
7.57541e-146
8.02065e-147
8.94026e-148
1.04839e-148
2.39146e-107
1.22189e-108
6.26002e-110
3.21719e-111
1.65957e-112
8.59888e-114
4.47896e-115
2.34757e-116
1.23945e-117
6.59951e-119
3.54843e-120
1.92944e-121
1.06268e-122
5.93931e-124
3.37499e-125
1.95384e-126
1.15458e-127
6.97579e-129
4.31401e-130
2.73226e-131
1.77271e-132
1.17909e-133
8.05087e-135
5.65364e-136
4.09235e-137
3.06114e-138
2.37221e-139
1.90901e-140
1.59739e-141
1.39279e-142
1.26478e-143
1.20338e-144
1.19248e-145
1.24864e-146
1.36054e-147
1.56323e-148
1.89463e-149
1.15206e-108
5.86744e-110
2.99801e-111
1.53748e-112
7.91861e-114
4.09913e-115
2.13472e-116
1.11957e-117
5.92001e-119
3.16019e-120
1.70542e-121
9.31853e-123
5.16401e-124
2.90755e-125
1.6664e-126
9.73951e-128
5.81458e-129
3.55061e-130
2.21973e-131
1.42161e-132
9.33385e-134
6.29026e-135
4.35871e-136
3.11202e-137
2.29479e-138
1.75201e-139
1.3879e-140
1.14339e-141
9.80187e-143
8.77836e-144
8.17987e-145
8.04822e-146
8.17472e-147
8.93898e-148
9.9447e-149
1.19385e-149
1.49264e-150
1.60709e-110
8.16784e-112
4.16721e-113
2.13515e-114
1.09942e-115
5.69414e-117
2.96944e-118
1.56097e-119
8.28212e-121
4.44145e-122
2.41111e-123
1.32723e-124
7.4217e-126
4.22339e-127
2.45021e-128
1.45158e-129
8.7931e-131
5.45119e-132
3.46032e-133
2.25014e-134
1.50035e-135
1.02769e-136
7.24859e-138
5.27833e-139
3.97859e-140
3.11214e-141
2.53048e-142
2.14376e-143
1.89071e-144
1.74879e-145
1.67419e-146
1.72095e-147
1.77229e-148
2.08831e-149
2.26286e-150
3.06089e-151
3.65056e-152
7.50571e-110
3.80925e-111
1.93803e-112
9.88539e-114
5.05636e-115
2.59416e-116
1.33517e-117
6.89335e-119
3.56856e-120
1.85045e-121
9.59202e-123
4.95238e-124
2.53071e-125
1.26623e-126
6.0909e-128
2.73524e-129
1.11808e-130
4.27558e-132
2.10197e-133
1.29108e-134
8.44701e-136
4.87183e-137
2.8955e-138
2.6396e-139
2.31159e-140
1.33128e-141
6.83852e-143
4.28511e-144
3.34576e-145
2.99341e-146
2.84237e-147
2.72842e-148
2.20414e-149
1.85077e-150
1.4554e-151
9.82368e-153
9.44476e-154
5.05648e-108
2.57296e-109
1.31194e-110
6.70442e-112
3.43468e-113
1.76442e-114
9.0908e-116
4.69804e-117
2.4348e-118
1.26465e-119
6.57479e-121
3.41351e-122
1.76321e-123
9.0102e-125
4.51913e-126
2.20481e-127
1.04802e-128
4.95668e-130
2.66455e-131
1.72875e-132
1.15956e-133
6.65718e-135
3.90646e-136
2.4958e-137
1.51833e-138
8.81713e-140
5.41894e-141
3.94768e-142
3.32238e-143
2.9129e-144
2.62755e-145
2.38943e-146
2.12675e-147
1.66396e-148
1.35925e-149
1.13303e-150
9.33756e-152
1.00617e-106
5.13884e-108
2.62903e-109
1.34762e-110
6.92343e-112
3.56612e-113
1.84211e-114
9.54486e-116
4.96108e-117
2.58595e-118
1.35082e-119
7.06225e-121
3.68776e-122
1.91777e-123
9.89969e-125
5.06277e-126
2.57878e-127
1.3332e-128
7.43447e-130
4.61601e-131
2.97173e-132
1.84155e-133
1.11659e-134
6.78849e-136
4.0782e-137
2.45992e-138
1.51877e-139
1.00976e-140
7.35328e-142
5.64671e-143
4.50142e-144
3.73065e-145
3.30454e-146
2.87792e-147
2.59841e-148
2.41119e-149
2.28334e-150
8.47625e-106
4.34552e-107
2.23091e-108
1.14725e-109
5.91185e-111
3.05387e-112
1.58195e-113
8.22046e-115
4.28617e-116
2.24268e-117
1.1775e-118
6.20215e-120
3.27613e-121
1.73513e-122
9.21981e-124
4.92887e-125
2.67161e-126
1.4902e-127
8.80005e-129
5.58738e-130
3.61298e-131
2.31684e-132
1.50047e-133
9.79174e-135
6.32974e-136
4.07408e-137
2.66202e-138
1.83234e-139
1.35848e-140
1.04479e-141
8.16475e-143
6.45562e-144
5.26008e-145
4.42549e-146
4.01127e-147
3.82261e-148
3.85193e-149
3.40047e-105
1.74948e-106
9.01163e-108
4.64907e-109
2.40313e-110
1.24518e-111
6.47026e-113
3.37312e-114
1.76501e-115
9.2729e-117
4.89262e-118
2.59294e-119
1.3805e-120
7.38612e-122
3.97516e-123
2.15713e-124
1.18618e-125
6.66676e-127
3.87928e-128
2.35828e-129
1.47582e-130
9.36381e-132
6.02259e-133
3.93082e-134
2.60332e-135
1.7587e-136
1.22207e-137
8.8487e-139
6.7285e-140
5.30618e-141
4.30368e-142
3.56814e-143
3.03272e-144
2.6311e-145
2.39082e-146
2.28604e-147
2.3197e-148
6.75218e-105
3.48202e-106
1.79771e-107
9.2955e-109
4.816e-110
2.5014e-111
1.30313e-112
6.81306e-114
3.57688e-115
1.8869e-116
1.00084e-117
5.34195e-119
2.872e-120
1.55756e-121
8.53911e-123
4.74788e-124
2.68992e-125
1.56218e-126
9.35304e-128
5.78305e-129
3.65525e-130
2.34548e-131
1.53118e-132
1.01735e-133
6.88052e-135
4.7562e-136
3.38462e-137
2.50202e-138
1.92995e-139
1.5425e-140
1.27047e-141
1.07856e-142
9.49927e-144
8.70113e-145
8.35135e-146
8.37533e-147
8.818e-148
6.7531e-105
3.48315e-106
1.79877e-107
9.30432e-109
4.82297e-110
2.50672e-111
1.30711e-112
6.84245e-114
3.59842e-115
1.90256e-116
1.01213e-117
5.42247e-119
2.92868e-120
1.59677e-121
8.80395e-123
4.92046e-124
2.79618e-125
1.6216e-126
9.63066e-128
5.8677e-129
3.66027e-130
2.33267e-131
1.51881e-132
1.01147e-133
6.90408e-135
4.84733e-136
3.51558e-137
2.64478e-138
2.06789e-139
1.6776e-140
1.40981e-141
1.22775e-142
1.10983e-143
1.04495e-144
1.02889e-145
1.06196e-146
1.15131e-147
3.40264e-105
1.75174e-106
9.03143e-108
4.66512e-109
2.41557e-110
1.25457e-111
6.53996e-113
3.42443e-114
1.80262e-115
9.54839e-117
5.09479e-118
2.74169e-119
1.49014e-120
8.19398e-122
4.5679e-123
2.58783e-124
1.49382e-125
8.80867e-127
5.31561e-128
3.28388e-129
2.07379e-130
1.3374e-131
8.81604e-133
5.94887e-134
4.11754e-135
2.93193e-136
2.15551e-137
1.64181e-138
1.29813e-139
1.06564e-140
9.08151e-142
8.05103e-143
7.43867e-144
7.19069e-145
7.27624e-146
7.7182e-147
8.59195e-148
8.4854e-106
4.35473e-107
2.23888e-108
1.15365e-109
5.96119e-111
3.09096e-112
1.60942e-113
8.42214e-115
4.43366e-116
2.35038e-117
1.25614e-118
6.77655e-120
3.69546e-121
2.04043e-122
1.1428e-123
6.50569e-125
3.77236e-126
2.23257e-127
1.35071e-128
8.36159e-130
5.29809e-131
3.4375e-132
2.28622e-133
1.56112e-134
1.09672e-135
7.94674e-137
5.95448e-138
4.62467e-139
3.72844e-140
3.12386e-141
2.72119e-142
2.47135e-143
2.3393e-144
2.32138e-145
2.40712e-146
2.62199e-147
2.99644e-148
1.00783e-106
5.15463e-108
2.64234e-109
1.35817e-110
7.00404e-112
3.6264e-113
1.88662e-114
9.87135e-116
5.20001e-117
2.76099e-118
1.47947e-119
8.012e-121
4.39191e-122
2.44119e-123
1.37848e-124
7.92317e-126
4.64424e-127
2.7807e-128
1.70265e-129
1.06686e-130
6.8435e-132
4.49742e-133
3.03214e-134
2.10096e-135
1.4994e-136
1.10491e-137
8.42828e-139
6.67063e-140
5.48605e-141
4.6976e-142
4.18875e-143
3.90758e-144
3.80034e-145
3.89331e-146
4.15832e-147
4.67757e-148
5.52419e-149
5.06831e-108
2.58373e-109
1.32084e-110
6.7742e-112
3.4877e-113
1.80395e-114
9.38214e-116
4.91148e-117
2.59089e-118
1.37895e-119
7.41492e-121
4.03433e-122
2.22461e-123
1.2454e-124
7.09137e-126
4.11433e-127
2.43631e-128
1.47442e-129
9.12846e-131
5.78594e-132
3.75731e-133
2.50278e-134
1.71291e-135
1.20696e-136
8.77592e-138
6.60073e-139
5.14705e-140
4.17051e-141
3.51498e-142
3.09184e-143
2.83168e-144
2.73028e-145
2.72799e-146
2.91156e-147
3.19326e-148
3.74215e-149
4.56853e-150
7.52689e-110
3.82798e-111
1.95327e-112
1.00055e-113
5.14855e-115
2.66355e-116
1.38676e-117
7.27423e-119
3.84905e-120
2.05728e-121
1.11239e-122
6.09466e-124
3.38951e-125
1.91683e-126
1.10423e-127
6.49051e-129
3.89783e-130
2.39392e-131
1.50457e-132
9.68199e-134
6.38527e-135
4.32319e-136
3.0117e-137
2.16411e-138
1.60809e-139
1.23876e-140
9.91015e-142
8.2553e-143
7.15806e-144
6.5006e-145
6.12427e-146
6.15621e-147
6.27655e-148
7.12914e-149
7.82666e-150
9.94676e-151
1.20643e-151
2.55264e-109
1.29654e-110
6.59952e-112
3.36678e-113
1.72186e-114
8.8303e-116
4.54183e-117
2.34304e-118
1.21199e-119
6.28143e-121
3.25684e-122
1.6847e-123
8.65442e-125
4.38297e-126
2.16414e-127
1.02559e-128
4.64075e-130
2.05077e-131
1.08164e-132
7.37993e-134
5.21778e-135
3.02722e-136
1.35336e-137
6.43856e-139
3.5697e-140
2.33052e-141
1.99987e-142
1.54678e-143
1.29272e-144
1.08737e-145
9.79083e-147
8.53011e-148
7.18555e-149
7.01824e-150
5.96742e-151
3.67064e-152
2.33606e-153
1.64903e-107
8.39852e-109
4.28479e-110
2.19021e-111