/*--------------------------------*- C++ -*----------------------------------*\
| =========                 |                                                 |
| \\      /  F ield         | OpenFOAM: The Open Source CFD Toolbox           |
|  \\    /   O peration     | Version:  2.3.1                                 |
|   \\  /    A nd           | Web:      www.OpenFOAM.org                      |
|    \\/     M anipulation  |                                                 |
\*---------------------------------------------------------------------------*/
FoamFile
{
    version     2.0;
    format      ascii;
    class       volVectorField;
    location    "15";
    object      U;
}
// * * * * * * * * * * * * * * * * * * * * * * * * * * * * * * * * * * * * * //

dimensions      [0 1 -1 0 0 0 0];

internalField   nonuniform List<vector> 
37530
(
(0.00451085 -2.51353e-05 -1.45455e-05)
(0.00462291 -2.66836e-05 -1.53414e-05)
(0.00474099 -2.81744e-05 -1.6105e-05)
(0.00486462 -2.9514e-05 -1.67928e-05)
(0.00499283 -3.05568e-05 -1.73359e-05)
(0.00512396 -3.10677e-05 -1.76271e-05)
(0.00525518 -3.06276e-05 -1.74996e-05)
(0.00538181 -2.84125e-05 -1.66824e-05)
(0.00549579 -2.27655e-05 -1.4725e-05)
(0.00558324 -1.02125e-05 -1.05218e-05)
(0.00561855 1.61685e-05 -2.45984e-06)
(0.00555329 7.26228e-05 1.34739e-05)
(0.00528671 0.000195874 4.59305e-05)
(0.0046064 0.000479252 0.000117589)
(0.00304163 0.00116598 0.000293157)
(-0.000733372 0.00301544 0.000768635)
(-0.00975609 0.00873743 0.00178063)
(-0.0338766 0.0122765 0.0021252)
(-0.0604687 -0.00568346 0.000828741)
(-0.0541543 -0.0239513 0.000185465)
(-0.0459184 -0.0168248 0.00188406)
(-0.0541576 -0.00589977 0.000664272)
(-0.0542772 -0.00868737 -0.00311407)
(-0.046053 -0.0123184 -0.00217893)
(-0.0490617 -0.00673973 0.00463659)
(-0.0816148 0.00704697 0.0125909)
(-0.165311 0.0146239 0.00737535)
(-0.226587 -0.00823544 -0.00646776)
(-0.209826 -0.0295065 -0.00382045)
(-0.207035 -0.0254638 0.00713518)
(-0.213319 -0.0321273 0.000980326)
(-0.173825 -0.0421469 -0.0101158)
(-0.142354 -0.0335206 -0.00577194)
(-0.136008 -0.0280233 0.00343641)
(-0.137119 -0.0285368 0.00588687)
(-0.139702 -0.0286042 0.000752635)
(-0.133254 -0.0291171 -0.00251411)
(0.00482301 -4.03076e-05 -2.47673e-05)
(0.0049395 -4.23206e-05 -2.63458e-05)
(0.00506248 -4.40007e-05 -2.79482e-05)
(0.00519154 -4.50836e-05 -2.95349e-05)
(0.0053259 -4.51767e-05 -3.10443e-05)
(0.00546417 -4.36693e-05 -3.2391e-05)
(0.00560409 -3.95756e-05 -3.34439e-05)
(0.00574211 -3.12185e-05 -3.39805e-05)
(0.00587258 -1.57402e-05 -3.36175e-05)
(0.00598637 1.20982e-05 -3.17664e-05)
(0.00606933 6.18007e-05 -2.70153e-05)
(0.00609942 0.000153138 -1.71614e-05)
(0.00604251 0.000327723 2.21311e-06)
(0.00585289 0.000683481 3.91867e-05)
(0.00546883 0.00144651 0.000111295)
(0.00496211 0.00313763 0.000245655)
(0.00464473 0.00706908 0.000526245)
(0.00685111 0.0133122 0.000432634)
(0.00746934 0.0142454 -0.00112992)
(0.00575519 0.010827 -0.00230734)
(-0.000105721 0.00994309 -0.00122582)
(-0.00166945 0.00939421 -0.000256349)
(-0.000880628 0.00764915 -0.000825619)
(-0.00191485 0.00828574 -0.000989605)
(-0.00602813 0.0134295 0.000798611)
(-0.0139483 0.0243993 0.00545331)
(-0.0353302 0.0353867 0.00724121)
(-0.0624306 0.0317038 -0.0041633)
(-0.0561344 0.0229917 -0.0122818)
(-0.0467479 0.0201733 -0.00759203)
(-0.0447606 0.0171106 -0.00792925)
(-0.0355118 0.0160394 -0.0130213)
(-0.030488 0.0169721 -0.0120554)
(-0.0264223 0.0183357 -0.00983512)
(-0.0205515 0.0196579 -0.00809791)
(-0.0192142 0.0189683 -0.00526912)
(-0.0253486 0.0152882 0.000279746)
(0.00488124 -3.29648e-05 -2.92886e-05)
(0.00499867 -3.38127e-05 -3.1221e-05)
(0.00512291 -3.39812e-05 -3.3206e-05)
(0.00525367 -3.30655e-05 -3.52041e-05)
(0.00539037 -3.04635e-05 -3.71702e-05)
(0.00553192 -2.52461e-05 -3.90478e-05)
(0.00567655 -1.59454e-05 -4.07028e-05)
(0.00582132 -2.55171e-07 -4.19317e-05)
(0.0059615 2.56347e-05 -4.23231e-05)
(0.00608942 6.82141e-05 -4.1319e-05)
(0.006193 0.0001387 -3.77908e-05)
(0.00625376 0.0002564 -2.9727e-05)
(0.00624428 0.000455561 -1.34131e-05)
(0.00612982 0.000797383 1.78808e-05)
(0.00587901 0.00138387 7.70913e-05)
(0.00553262 0.00239373 0.000184494)
(0.00529644 0.00398163 0.000366025)
(0.00634399 0.00611044 0.000592817)
(0.00868596 0.00350781 0.000584943)
(0.00986115 -0.00234338 0.000742501)
(0.00915534 -0.0023601 0.00114093)
(0.00791201 -0.000424606 0.00122485)
(0.00665568 -0.000914631 0.00108758)
(0.0047892 -0.00103271 0.00110987)
(0.00268855 0.00174208 0.00150915)
(0.000788567 0.00825317 0.00268104)
(-0.00116371 0.0167093 0.00460288)
(-0.00890198 0.0138836 0.00347321)
(-0.0143319 0.00103689 0.00123823)
(-0.0161392 -0.00329844 0.00181309)
(-0.0223683 -0.000630731 0.00226906)
(-0.0280768 0.00507101 0.000155114)
(-0.0262244 0.0128393 -0.00252532)
(-0.0211601 0.015543 -0.00379731)
(-0.0170946 0.0132224 -0.00368167)
(-0.0109359 0.0103504 -0.00379485)
(-0.00544088 0.00944918 -0.0036362)
(0.0048993 -1.96639e-05 -3.02589e-05)
(0.00501754 -1.90662e-05 -3.22768e-05)
(0.00514294 -1.74903e-05 -3.43591e-05)
(0.00527542 -1.44339e-05 -3.64723e-05)
(0.00541467 -9.16091e-06 -3.85782e-05)
(0.00556011 -5.71108e-07 -4.06531e-05)
(0.00571079 1.30416e-05 -4.26223e-05)
(0.00586528 3.42679e-05 -4.43162e-05)
(0.00602176 6.71711e-05 -4.55011e-05)
(0.00617787 0.00011806 -4.58391e-05)
(0.00633111 0.000197262 -4.47761e-05)
(0.0064803 0.000321676 -4.14488e-05)
(0.00662889 0.000519131 -3.45338e-05)
(0.00679077 0.000835366 -2.24785e-05)
(0.00700372 0.00133981 -2.79589e-06)
(0.00737408 0.00212545 2.69283e-05)
(0.00809004 0.00325174 6.08226e-05)
(0.00965831 0.00468182 7.06204e-05)
(0.0120747 0.00529643 -7.19421e-05)
(0.0129735 0.00466197 -0.000247881)
(0.0120421 0.00416127 -0.00010412)
(0.0118908 0.00406772 9.20351e-05)
(0.0122944 0.0041729 0.000164952)
(0.0120159 0.00506137 0.000237864)
(0.0114589 0.00718086 0.000493309)
(0.0113993 0.010431 0.00100742)
(0.0130394 0.0146387 0.00172075)
(0.0156575 0.0162281 0.00160534)
(0.0158302 0.0138913 0.000536915)
(0.013035 0.0120757 0.000850404)
(0.00783519 0.011223 0.00272526)
(-0.00117687 0.0112546 0.00442157)
(-0.0119116 0.0152046 0.00306776)
(-0.0141808 0.0227459 -0.000590913)
(-0.0101331 0.0263505 -0.00283654)
(-0.00452192 0.0273978 -0.00360244)
(-0.000730268 0.02571 -0.00310581)
(0.0049067 -5.02943e-06 -3.00743e-05)
(0.00502584 -3.06548e-06 -3.21002e-05)
(0.00515257 9.018e-08 -3.42012e-05)
(0.00528698 4.99242e-06 -3.63558e-05)
(0.00542901 1.24373e-05 -3.85484e-05)
(0.00557849 2.35709e-05 -4.07235e-05)
(0.00573498 4.00454e-05 -4.28184e-05)
(0.00589771 6.42727e-05 -4.4706e-05)
(0.00606533 9.97193e-05 -4.61747e-05)
(0.00623588 0.00015148 -4.68861e-05)
(0.00640696 0.000227091 -4.63363e-05)
(0.00657623 0.000337243 -4.37482e-05)
(0.00674317 0.000496301 -3.79264e-05)
(0.00691285 0.000721493 -2.71803e-05)
(0.00710183 0.00103002 -9.63725e-06)
(0.00735341 0.00142742 1.71105e-05)
(0.00774699 0.00185768 5.40128e-05)
(0.00841517 0.00216789 9.6784e-05)
(0.00940125 0.00172682 0.000127811)
(0.0102483 0.000312537 0.000152756)
(0.0106361 -0.000310954 0.000185919)
(0.0108266 -0.000241602 0.000196582)
(0.0109582 -0.000347232 0.000194051)
(0.0110545 -0.000255535 0.000205294)
(0.0113685 0.000546158 0.000258817)
(0.0121872 0.00198487 0.00037655)
(0.0138033 0.00377435 0.000569927)
(0.0161825 0.0042506 0.000674199)
(0.0180685 0.00237504 0.000570923)
(0.0188804 0.00124831 0.000582777)
(0.0189266 0.00197905 0.00091402)
(0.0174318 0.00393213 0.00182394)
(0.0132757 0.00583247 0.00344337)
(0.00656426 0.00900268 0.00398709)
(0.00278354 0.0121805 0.00261105)
(0.00227348 0.0159203 0.000436917)
(0.0062286 0.0159305 -0.000442652)
(0.00491067 8.05875e-06 -2.97141e-05)
(0.0050308 1.10753e-05 -3.17397e-05)
(0.00515895 1.54021e-05 -3.38512e-05)
(0.00529542 2.1603e-05 -3.60343e-05)
(0.00544043 3.04715e-05 -3.82705e-05)
(0.00559418 4.3122e-05 -4.05255e-05)
(0.00575686 6.10989e-05 -4.27459e-05)
(0.00592869 8.65992e-05 -4.48519e-05)
(0.00611029 0.000122775 -4.67324e-05)
(0.00630296 0.000174114 -4.82759e-05)
(0.00650927 0.000246871 -4.93316e-05)
(0.00673413 0.000349704 -4.97231e-05)
(0.00698674 0.000494043 -4.92461e-05)
(0.00728319 0.000693522 -4.7755e-05)
(0.00765028 0.000961253 -4.53747e-05)
(0.00812961 0.00130407 -4.30351e-05)
(0.00877518 0.00170416 -4.37477e-05)
(0.00962577 0.00210192 -5.44305e-05)
(0.0106453 0.00235206 -8.47852e-05)
(0.0114638 0.00235516 -0.000132564)
(0.0118758 0.00236842 -0.000152728)
(0.0122654 0.00253599 -0.000151033)
(0.0127808 0.00288091 -0.000152337)
(0.0132841 0.00348224 -0.000144363)
(0.0138442 0.00438879 -0.000110239)
(0.0146644 0.00547296 -4.44856e-05)
(0.01596 0.00654545 3.71264e-05)
(0.0177546 0.00717068 6.92151e-05)
(0.0193576 0.00708006 9.29064e-06)
(0.0202814 0.00695924 1.0843e-05)
(0.0208804 0.00706002 0.000152547)
(0.0215944 0.00769512 0.000447249)
(0.0222793 0.00886187 0.000975761)
(0.0224014 0.0110535 0.00189029)
(0.0216138 0.0122414 0.00260695)
(0.0213708 0.0140607 0.00283663)
(0.0214673 0.0148428 0.00184211)
(0.00491335 1.9809e-05 -2.96067e-05)
(0.00503452 2.36319e-05 -3.16631e-05)
(0.00516416 2.87991e-05 -3.38176e-05)
(0.0053027 3.58481e-05 -3.60563e-05)
(0.0054506 4.54996e-05 -3.83629e-05)
(0.00560836 5.87218e-05 -4.07112e-05)
(0.00577652 7.68275e-05 -4.30642e-05)
(0.00595576 0.000101584 -4.53689e-05)
(0.00614683 0.000135319 -4.75423e-05)
(0.00635058 0.000180907 -4.94292e-05)
(0.00656844 0.000241957 -5.08281e-05)
(0.00680286 0.000322561 -5.14808e-05)
(0.00705802 0.000426567 -5.10544e-05)
(0.00734092 0.000555975 -4.91734e-05)
(0.00766262 0.000707851 -4.55099e-05)
(0.00803897 0.000868503 -3.9937e-05)
(0.0084881 0.00100424 -3.2908e-05)
(0.00901994 0.00105246 -2.58045e-05)
(0.00961969 0.000930503 -2.03224e-05)
(0.0102124 0.000588134 -1.68784e-05)
(0.0107417 0.000294523 -1.38052e-05)
(0.0112432 0.000184899 -1.2873e-05)
(0.0117714 0.00014163 -1.16089e-05)
(0.0123781 0.000193894 -5.60123e-06)
(0.0131445 0.000410209 7.09785e-06)
(0.0141503 0.000773161 2.51038e-05)
(0.015428 0.0011607 4.38796e-05)
(0.0169167 0.00133951 5.03272e-05)
(0.0184239 0.00111899 4.2751e-05)
(0.019763 0.000948711 3.6597e-05)
(0.021084 0.00106549 6.5176e-05)
(0.0222294 0.00163635 0.000102729)
(0.0237769 0.00226107 0.000270175)
(0.0249585 0.00333448 0.000439269)
(0.027208 0.00414883 0.000742717)
(0.0282561 0.00482048 0.00101478)
(0.0309098 0.00617944 0.000962075)
(0.00491458 3.07241e-05 -2.97534e-05)
(0.00503677 3.51698e-05 -3.18666e-05)
(0.00516783 4.09096e-05 -3.40933e-05)
(0.00530834 4.84162e-05 -3.64096e-05)
(0.00545892 5.8305e-05 -3.88013e-05)
(0.0056203 7.13857e-05 -4.12571e-05)
(0.00579338 8.87349e-05 -4.37557e-05)
(0.00597934 0.00011177 -4.62638e-05)
(0.00617976 0.000142333 -4.87417e-05)
(0.00639713 0.000182889 -5.11658e-05)
(0.0066351 0.000236471 -5.35467e-05)
(0.0068988 0.000306646 -5.58789e-05)
(0.00719549 0.000397201 -5.82122e-05)
(0.00753513 0.000511402 -6.06949e-05)
(0.00793046 0.000650568 -6.36657e-05)
(0.00839591 0.000811862 -6.77829e-05)
(0.00894309 0.000985348 -7.41679e-05)
(0.00957026 0.00115292 -8.44814e-05)
(0.0102544 0.00129417 -9.94209e-05)
(0.0109301 0.00140189 -0.000118993)
(0.0115519 0.00152411 -0.000137719)
(0.0121648 0.00170526 -0.000153679)
(0.012821 0.00196542 -0.000167938)
(0.0135364 0.0023148 -0.000179302)
(0.0143382 0.00274634 -0.000186194)
(0.0152727 0.00321205 -0.000188229)
(0.0163789 0.00363857 -0.000188668)
(0.017634 0.00395203 -0.000195204)
(0.0189471 0.00410931 -0.000209945)
(0.0201985 0.00424514 -0.000224238)
(0.0214824 0.00437294 -0.000222468)
(0.0228161 0.00472263 -0.000211032)
(0.0243461 0.00494567 -0.000170103)
(0.026215 0.0056954 -0.000101946)
(0.0278073 0.00595866 -4.18392e-05)
(0.0307653 0.00619569 0.00011545)
(0.0318703 0.00724821 4.81278e-05)
(0.00491187 4.10464e-05 -2.97466e-05)
(0.00503499 4.59985e-05 -3.19008e-05)
(0.0051673 5.21412e-05 -3.41837e-05)
(0.00530951 5.98386e-05 -3.65568e-05)
(0.00546235 6.95734e-05 -3.90103e-05)
(0.00562674 8.19751e-05 -4.15473e-05)
(0.0058038 9.78586e-05 -4.41564e-05)
(0.00599487 0.000118252 -4.68179e-05)
(0.00620166 0.000144405 -4.95178e-05)
(0.00642612 0.000177728 -5.2224e-05)
(0.00667069 0.000219499 -5.48572e-05)
(0.00693854 0.000270857 -5.73339e-05)
(0.00723362 0.000332106 -5.95579e-05)
(0.00756079 0.000401836 -6.14605e-05)
(0.00792569 0.00047571 -6.30317e-05)
(0.00833399 0.000544967 -6.43397e-05)
(0.00878976 0.0005953 -6.55666e-05)
(0.00929254 0.000608109 -6.70331e-05)
(0.00983578 0.000568395 -6.88263e-05)
(0.0104069 0.000474399 -7.0838e-05)
(0.0109995 0.000371208 -7.28899e-05)
(0.0116245 0.000301175 -7.51041e-05)
(0.0123039 0.000269071 -7.71613e-05)
(0.0130636 0.000278467 -7.83685e-05)
(0.0139334 0.000335674 -7.86078e-05)
(0.0149352 0.000433592 -7.89604e-05)
(0.0160794 0.000538808 -8.05955e-05)
(0.0173307 0.000616617 -8.6853e-05)
(0.0186838 0.000629947 -9.31672e-05)
(0.0200152 0.000683628 -0.000109784)
(0.0215478 0.000719262 -0.000101942)
(0.0228478 0.00107151 -0.0001469)
(0.0248357 0.00103312 -7.57129e-05)
(0.0260609 0.00185296 -0.000192654)
(0.0287732 0.0016138 -3.23444e-05)
(0.0299044 0.00191202 -0.000168187)
(0.0334844 0.00344516 -0.000177383)
(0.00489768 4.85549e-05 -2.87364e-05)
(0.00502151 5.37152e-05 -3.08279e-05)
(0.00515477 5.99043e-05 -3.30493e-05)
(0.00529824 6.73504e-05 -3.53591e-05)
(0.00545278 7.63917e-05 -3.77528e-05)
(0.0056194 8.74799e-05 -4.02395e-05)
(0.00579938 0.000101186 -4.28117e-05)
(0.00599427 0.000118215 -4.54585e-05)
(0.006206 0.000139421 -4.81832e-05)
(0.00643709 0.000165835 -5.09935e-05)
(0.00669096 0.000198772 -5.38965e-05)
(0.00697187 0.000239515 -5.69569e-05)
(0.00728478 0.0002893 -6.02578e-05)
(0.00763547 0.000348994 -6.39358e-05)
(0.00803013 0.000418695 -6.82295e-05)
(0.00847431 0.000497244 -7.34875e-05)
(0.00897113 0.000582025 -8.01642e-05)
(0.00951866 0.000669663 -8.87738e-05)
(0.0101093 0.000758418 -9.94525e-05)
(0.0107305 0.000850933 -0.000112096)
(0.0113751 0.000958119 -0.000126136)
(0.0120511 0.00109155 -0.000140989)
(0.0127757 0.0012573 -0.000156499)
(0.013565 0.00145535 -0.00017227)
(0.014436 0.00167792 -0.00018795)
(0.0154019 0.00190822 -0.000203544)
(0.0164788 0.0021213 -0.000218994)
(0.017645 0.00230459 -0.000236279)
(0.0189279 0.00243495 -0.000251988)
(0.0202077 0.00258606 -0.000274208)
(0.0217296 0.00262874 -0.00027724)
(0.0230304 0.00296786 -0.000317668)
(0.0250329 0.00274034 -0.00027764)
(0.0262885 0.00354646 -0.000351987)
(0.0290498 0.00313015 -0.000313388)
(0.0300039 0.00305053 -0.00022488)
(0.0336826 0.00535677 -0.000672141)
(0.0048423 4.90915e-05 -2.44107e-05)
(0.00496628 5.38205e-05 -2.61511e-05)
(0.00509981 5.93274e-05 -2.79952e-05)
(0.00524373 6.57078e-05 -2.99138e-05)
(0.00539897 7.315e-05 -3.19048e-05)
(0.00556663 8.1923e-05 -3.39781e-05)
(0.00574805 9.23576e-05 -3.61308e-05)
(0.00594486 0.000104851 -3.83592e-05)
(0.00615901 0.000119869 -4.06762e-05)
(0.00639288 0.000137916 -4.31e-05)
(0.00664919 0.000159389 -4.5648e-05)
(0.00693106 0.00018424 -4.82787e-05)
(0.0072421 0.000211932 -5.09937e-05)
(0.00758615 0.000241168 -5.38233e-05)
(0.00796697 0.000269504 -5.67973e-05)
(0.0083878 0.000293107 -5.99669e-05)
(0.00885061 0.000306906 -6.33695e-05)
(0.00935557 0.000305632 -6.70185e-05)
(0.00990134 0.000286281 -7.08615e-05)
(0.0104866 0.000250274 -7.46705e-05)
(0.0111131 0.000206796 -7.82772e-05)
(0.0117876 0.000167209 -8.16171e-05)
(0.0125215 0.000138148 -8.46258e-05)
(0.0133282 0.000123248 -8.72484e-05)
(0.0142229 0.000124049 -8.95799e-05)
(0.0152131 0.000140109 -9.22348e-05)
(0.0163131 0.000163615 -9.52455e-05)
(0.0174916 0.000197243 -0.000101156)
(0.0188158 0.000212775 -0.000104172)
(0.0200806 0.000299852 -0.000121538)
(0.0217859 0.000244189 -0.000104272)
(0.0228039 0.000614693 -0.000172528)
(0.0255436 0.000220587 -6.8432e-05)
(0.0254347 0.00102811 -0.000247301)
(0.0303807 0.000823552 -8.32203e-05)
(0.0285371 -0.00025543 -8.0663e-05)
(0.0341186 0.00386512 -0.000567525)
(0.00453148 2.77135e-05 -1.46315e-05)
(0.00465152 3.01924e-05 -1.55903e-05)
(0.00478087 3.30143e-05 -1.65937e-05)
(0.0049204 3.61893e-05 -1.76292e-05)
(0.00507103 3.97724e-05 -1.86969e-05)
(0.00523389 4.38575e-05 -1.98076e-05)
(0.00541033 4.85548e-05 -2.09602e-05)
(0.00560199 5.39978e-05 -2.21547e-05)
(0.00581086 6.03504e-05 -2.34041e-05)
(0.00603936 6.78177e-05 -2.47308e-05)
(0.00629041 7.6655e-05 -2.61706e-05)
(0.00656748 8.73327e-05 -2.77593e-05)
(0.00687442 0.000100463 -2.95405e-05)
(0.00721522 0.000116811 -3.15915e-05)
(0.00759376 0.000137254 -3.40318e-05)
(0.00801323 0.000162738 -3.70079e-05)
(0.00847549 0.000194213 -4.06639e-05)
(0.00898046 0.000232565 -4.51374e-05)
(0.00952647 0.000278574 -5.04707e-05)
(0.0101119 0.000332873 -5.65911e-05)
(0.0107377 0.00039593 -6.3351e-05)
(0.0114095 0.000467638 -7.06023e-05)
(0.0121373 0.000547059 -7.82606e-05)
(0.0129323 0.000632119 -8.62043e-05)
(0.0138077 0.000719215 -9.43946e-05)
(0.014769 0.00080363 -0.000102879)
(0.0158341 0.000879246 -0.000111502)
(0.0169687 0.00094492 -0.00012125)
(0.0182645 0.000991514 -0.000128486)
(0.0194623 0.00104325 -0.000146358)
(0.0212321 0.00104354 -0.000123645)
(0.0219529 0.00114153 -0.000228262)
(0.0253892 0.00103191 3.482e-05)
(0.0233502 0.00122099 -0.000577237)
(0.0323026 0.00120863 0.000596895)
(0.0225552 0.000626797 -0.00120802)
(0.0398021 0.00277534 0.000749175)
(0.00501857 -1.41667e-05 -5.15091e-05)
(0.00513938 -1.48439e-05 -5.45263e-05)
(0.00526683 -1.53994e-05 -5.74983e-05)
(0.00540048 -1.57368e-05 -6.03025e-05)
(0.00553942 -1.57052e-05 -6.27468e-05)
(0.00568207 -1.50575e-05 -6.45386e-05)
(0.0058257 -1.33703e-05 -6.52127e-05)
(0.00596577 -9.83345e-06 -6.40044e-05)
(0.00609462 -2.82256e-06 -5.95411e-05)
(0.00619892 1.08651e-05 -4.91133e-05)
(0.00625443 3.80145e-05 -2.79461e-05)
(0.00621614 9.38469e-05 1.48101e-05)
(0.0059921 0.000212594 0.000103237)
(0.00539538 0.000479051 0.000297659)
(0.00402646 0.0011069 0.00076732)
(0.000772876 0.00270897 0.00196202)
(-0.00638428 0.00782563 0.00517652)
(-0.0278817 0.0134901 0.00684313)
(-0.0601632 2.14437e-05 0.00396726)
(-0.0588944 -0.0183782 0.000683404)
(-0.0414667 -0.0161271 0.000977698)
(-0.036329 -0.0081553 0.000889324)
(-0.0357946 -0.00808372 0.000315862)
(-0.0369122 -0.00950925 0.00177062)
(-0.0389686 -0.00736091 0.00830732)
(-0.0437757 -0.000587389 0.0217098)
(-0.0701116 0.0109292 0.0285307)
(-0.129368 0.0180117 0.0156578)
(-0.182886 0.00627127 0.000111868)
(-0.195523 -0.010148 -0.00532363)
(-0.184999 -0.0109231 -0.00856875)
(-0.174728 -0.00908032 -0.00806529)
(-0.163808 -0.0109851 -0.00368222)
(-0.140862 -0.0165612 -0.00138245)
(-0.11454 -0.0246961 0.000304101)
(-0.102101 -0.0306161 0.0022405)
(-0.0983872 -0.036337 0.0057543)
(0.00526647 -2.37889e-05 -7.46219e-05)
(0.0053912 -2.44624e-05 -7.94177e-05)
(0.005523 -2.47085e-05 -8.42991e-05)
(0.00566152 -2.42583e-05 -8.91541e-05)
(0.00580604 -2.27057e-05 -9.38193e-05)
(0.00595524 -1.9421e-05 -9.80483e-05)
(0.00610694 -1.34019e-05 -0.000101453)
(0.00625771 -2.99649e-06 -0.000103409)
(0.00640202 1.46253e-05 -0.000102874)
(0.0065312 4.44279e-05 -9.79588e-05)
(0.00663172 9.56985e-05 -8.50403e-05)
(0.0066827 0.000187222 -5.79883e-05)
(0.00665225 0.000358047 -4.96052e-06)
(0.00649965 0.000697793 9.75987e-05)
(0.00616854 0.00140742 0.000295091)
(0.00574279 0.00293775 0.000667063)
(0.00536426 0.0064523 0.00141462)
(0.00762435 0.0123289 0.00174337)
(0.00740266 0.0135556 -0.00187289)
(0.00425343 0.0080938 -0.00472989)
(-7.46945e-05 0.00436894 -0.00317145)
(0.000411788 0.00332117 -0.00219991)
(0.00278085 0.00219505 -0.00264326)
(0.0023886 0.00304392 -0.00206095)
(0.000309089 0.00713898 0.000998805)
(-0.00217296 0.0149573 0.00777868)
(-0.00476628 0.0239466 0.014281)
(-0.0172528 0.0255316 0.00562659)
(-0.0284423 0.0193647 -0.00864908)
(-0.0304621 0.0124233 -0.0107844)
(-0.0290572 0.00692973 -0.0124057)
(-0.0264754 0.00362807 -0.0174207)
(-0.0244648 0.00407002 -0.0177313)
(-0.019775 0.00763529 -0.0175725)
(-0.0139393 0.0109885 -0.0162605)
(-0.0115881 0.0132779 -0.0123)
(-0.0151572 0.0128517 -0.00546295)
(0.00530076 -2.10762e-05 -8.50857e-05)
(0.00542609 -2.08885e-05 -9.07131e-05)
(0.00555878 -1.99439e-05 -9.64976e-05)
(0.00569861 -1.78281e-05 -0.000102335)
(0.00584506 -1.3918e-05 -0.000108101)
(0.00599714 -7.28246e-06 -0.000113605)
(0.00615314 3.53304e-06 -0.000118491)
(0.00631023 2.0813e-05 -0.000122169)
(0.00646387 4.82956e-05 -0.000123555)
(0.00660679 9.23461e-05 -0.000121025)
(0.00672773 0.000163765 -0.000111533)
(0.00680969 0.00028121 -8.96683e-05)
(0.00682804 0.000477379 -4.55747e-05)
(0.00675362 0.000810134 3.91966e-05)
(0.00656382 0.00137365 0.000198352)
(0.0063095 0.00233461 0.000481881)
(0.00618105 0.00381477 0.000956879)
(0.00728295 0.00598418 0.00158524)
(0.0097751 0.00407553 0.0016855)
(0.0110718 -0.00157131 0.00189829)
(0.0104959 -0.00277908 0.00252551)
(0.00950233 -0.0018474 0.00238884)
(0.00862467 -0.00236192 0.00193656)
(0.00724318 -0.00232942 0.00205174)
(0.00585585 -0.000139528 0.00304774)
(0.00510752 0.00454925 0.0052348)
(0.00650011 0.0111596 0.00863772)
(0.00694642 0.0117357 0.00863613)
(0.00355541 0.00363759 0.00552208)
(0.00108665 -0.00311853 0.00471463)
(-0.000851552 -0.0058871 0.00527975)
(-0.00320296 -0.00614255 0.00375332)
(-0.00551464 -0.0024321 0.000430916)
(-0.00540743 0.00271073 -0.00307232)
(-0.00262984 0.00389005 -0.00521705)
(0.00273367 0.0038845 -0.00659185)
(0.00724745 0.00328647 -0.00709337)
(0.00530735 -1.30535e-05 -8.85383e-05)
(0.00543328 -1.17886e-05 -9.44679e-05)
(0.00556693 -9.48324e-06 -0.000100595)
(0.00570826 -5.62612e-06 -0.000106838)
(0.00585704 5.24913e-07 -0.000113098)
(0.00601273 1.00722e-05 -0.000119256)
(0.00617441 2.46853e-05 -0.000125066)
(0.00634073 4.69247e-05 -0.000130068)
(0.00650988 8.07654e-05 -0.000133627)
(0.00667957 0.000132427 -0.000134775)
(0.00684737 0.000211954 -0.00013195)
(0.00701203 0.000335672 -0.000122728)
(0.00717653 0.000530169 -0.000103447)
(0.00735391 0.000838564 -6.92983e-05)
(0.00758012 0.00132439 -1.33537e-05)
(0.00795509 0.00207112 7.06992e-05)
(0.00864904 0.00312478 0.000164775)
(0.0101246 0.00444889 0.000211519)
(0.0124433 0.00496679 -0.000144019)
(0.0134229 0.00403776 -0.000625618)
(0.0126491 0.0031434 -0.000489297)
(0.0125136 0.00289506 -0.000278942)
(0.0128989 0.00301102 -0.000251119)
(0.0126974 0.00384824 -4.30141e-05)
(0.0123487 0.00570011 0.000604405)
(0.0125777 0.00832503 0.00169084)
(0.0144222 0.0115039 0.00307246)
(0.0180185 0.0128641 0.0031036)
(0.019721 0.0111022 0.00123598)
(0.0184587 0.0090506 0.000730408)
(0.0162087 0.00733007 0.00252484)
(0.0140688 0.00522991 0.00515618)
(0.0110096 0.00351608 0.00619121)
(0.00882486 0.00605965 0.00364094)
(0.0093274 0.00887004 -3.58185e-05)
(0.0116489 0.0129447 -0.00266175)
(0.0146425 0.0144392 -0.00374378)
(0.00530968 -2.62738e-06 -8.91524e-05)
(0.00543643 -2.89143e-07 -9.51904e-05)
(0.00557132 3.29238e-06 -0.000101468)
(0.00571448 8.67444e-06 -0.000107928)
(0.00586593 1.66433e-05 -0.000114495)
(0.00602552 2.83372e-05 -0.00012103)
(0.00619287 4.53965e-05 -0.000127335)
(0.00636727 7.02093e-05 -0.000133057)
(0.00654749 0.000106226 -0.000137616)
(0.00673178 0.000158502 -0.000140095)
(0.00691813 0.000234475 -0.000139126)
(0.00710478 0.000344671 -0.000132608)
(0.00729212 0.000503193 -0.000117356)
(0.00748637 0.000727147 -8.89548e-05)
(0.00770576 0.00103351 -4.21858e-05)
(0.00799511 0.00142822 2.90416e-05)
(0.00843338 0.00186006 0.00012488)
(0.00914783 0.00219572 0.000232321)
(0.0101901 0.00186837 0.00029699)
(0.0111104 0.000601994 0.000317291)
(0.0115555 -1.68526e-05 0.000333638)
(0.0117974 2.57269e-05 0.000298162)
(0.0120168 -2.36647e-05 0.000255558)
(0.0122374 0.000160694 0.000288845)
(0.0126775 0.000990394 0.000453113)
(0.0135878 0.00232357 0.000755597)
(0.0152044 0.00387858 0.00118003)
(0.0175416 0.00436888 0.00140303)
(0.0195753 0.00289413 0.00120927)
(0.0207111 0.00166053 0.00112048)
(0.0213539 0.00163974 0.00142584)
(0.0214826 0.00248001 0.00222025)
(0.0212552 0.00251825 0.00393171)
(0.0201205 0.0022138 0.00556067)
(0.0201058 0.00124272 0.00547576)
(0.0198168 0.00230601 0.00385422)
(0.0221302 0.00363872 0.00199501)
(0.00531187 7.70126e-06 -8.88568e-05)
(0.0054396 1.0903e-05 -9.49443e-05)
(0.0055759 1.54556e-05 -0.000101305)
(0.00572109 2.19157e-05 -0.000107896)
(0.00587546 3.10652e-05 -0.000114655)
(0.00603926 4.39966e-05 -0.000121482)
(0.00621268 6.22475e-05 -0.000128225)
(0.00639602 8.79997e-05 -0.000134661)
(0.00658987 0.00012438 -0.000140477)
(0.00679553 0.00017582 -0.000145333)
(0.00701546 0.000248457 -0.000148767)
(0.00725432 0.0003507 -0.0001502)
(0.00752083 0.000493521 -0.000148979)
(0.00783023 0.000689798 -0.00014461)
(0.00820789 0.000951638 -0.000137324)
(0.00869289 0.00128422 -0.000129529)
(0.00933524 0.00166789 -0.000129208)
(0.0101702 0.00204196 -0.000153824)
(0.0111663 0.00226297 -0.000230132)
(0.0119788 0.00221374 -0.000356466)
(0.012406 0.00214761 -0.000422582)
(0.0128019 0.00224091 -0.00043446)
(0.0133122 0.00250524 -0.00044603)
(0.0138178 0.00299263 -0.000422199)
(0.0144009 0.00373975 -0.000327061)
(0.0152632 0.00463126 -0.00016527)
(0.016591 0.00549771 1.58608e-05)
(0.0183941 0.00597905 7.8493e-05)
(0.0200696 0.0058204 -7.9614e-05)
(0.021177 0.00558072 -0.000165446)
(0.0220225 0.00549367 -1.93288e-05)
(0.0230622 0.00578651 0.000321999)
(0.0244268 0.00632143 0.000823712)
(0.0259406 0.00747779 0.00161947)
(0.0275065 0.00775764 0.00226224)
(0.0290872 0.00798317 0.00301483)
(0.030844 0.00822024 0.00221244)
(0.00531463 1.73069e-05 -8.86567e-05)
(0.00544343 2.11515e-05 -9.48224e-05)
(0.00558123 2.63712e-05 -0.000101295)
(0.0057285 3.34809e-05 -0.000108035)
(0.00588576 4.31865e-05 -0.00011499)
(0.00605352 5.64534e-05 -0.000122086)
(0.00623241 7.45921e-05 -0.00012922)
(0.00642314 9.93691e-05 -0.000136238)
(0.00662651 0.000133122 -0.000142905)
(0.00684353 0.000178759 -0.000148814)
(0.00707579 0.000239915 -0.000153429)
(0.007326 0.000320743 -0.000156061)
(0.00759874 0.000425228 -0.000155851)
(0.00790161 0.000555691 -0.000151862)
(0.00824639 0.00070984 -0.000143342)
(0.00864978 0.000875271 -0.000130185)
(0.00913075 0.00102092 -0.000114)
(0.00970042 0.0010893 -9.89903e-05)
(0.0103463 0.00100532 -9.08981e-05)
(0.0109945 0.000720131 -9.30896e-05)
(0.0115832 0.000482254 -9.97017e-05)
(0.012146 0.00042399 -0.000111038)
(0.0127411 0.000442711 -0.000119396)
(0.0134157 0.000564987 -0.00011369)
(0.0142394 0.000848869 -8.89518e-05)
(0.0152818 0.00126216 -5.09188e-05)
(0.0165716 0.00168336 -1.30693e-05)
(0.0180573 0.00190455 -6.34034e-06)
(0.0195647 0.00175798 -4.00804e-05)
(0.0209342 0.00161669 -7.88496e-05)
(0.0222629 0.00168736 -6.09409e-05)
(0.0235266 0.00211575 -2.04129e-05)
(0.0250407 0.00250305 0.000184346)
(0.0266111 0.00315104 0.000361681)
(0.0287742 0.00340419 0.000601492)
(0.0308551 0.00366107 0.000803296)
(0.0333167 0.00406221 0.000579713)
(0.00531777 2.57302e-05 -8.8553e-05)
(0.00544767 2.99815e-05 -9.48161e-05)
(0.00558694 3.55456e-05 -0.000101418)
(0.0057362 4.28624e-05 -0.000108307)
(0.00589616 5.25354e-05 -0.000115445)
(0.00606758 6.53758e-05 -0.000122792)
(0.00625141 8.24578e-05 -0.000130284)
(0.00644886 0.000105198 -0.00013783)
(0.00666155 0.000135449 -0.000145322)
(0.00689195 0.000175667 -0.000152673)
(0.00714362 0.000228841 -0.000159866)
(0.00742155 0.000298442 -0.000166868)
(0.00773275 0.000388105 -0.00017378)
(0.0080868 0.000500859 -0.000180963)
(0.00849586 0.000637673 -0.000189277)
(0.0089735 0.00079517 -0.000200409)
(0.0095304 0.000962682 -0.000217255)
(0.0101647 0.00112111 -0.000243912)
(0.0108543 0.00124839 -0.00028261)
(0.011537 0.00133373 -0.000333496)
(0.0121696 0.00142204 -0.000382291)
(0.012795 0.00155974 -0.000422897)
(0.0134649 0.00176515 -0.000457508)
(0.0141977 0.0020451 -0.000483238)
(0.0150238 0.00239278 -0.000496809)
(0.0159909 0.00276647 -0.000499465)
(0.0171354 0.0031028 -0.000501453)
(0.0184353 0.00333749 -0.000521545)
(0.0198033 0.00343387 -0.000565478)
(0.021129 0.00350803 -0.000614463)
(0.0224938 0.00359552 -0.000630833)
(0.0239125 0.00386744 -0.000634921)
(0.0255652 0.00409726 -0.000583709)
(0.027416 0.00469214 -0.000535722)
(0.0293803 0.00494512 -0.00048335)
(0.0318762 0.00526259 -0.000372552)
(0.0339253 0.00579592 -0.000572659)
(0.00532022 3.24711e-05 -8.7629e-05)
(0.00545116 3.68909e-05 -9.39094e-05)
(0.0055918 4.2492e-05 -0.000100549)
(0.00574286 4.96108e-05 -0.000107481)
(0.00590518 5.87228e-05 -0.000114684)
(0.00607971 7.04575e-05 -0.000122147)
(0.00626761 8.56253e-05 -0.000129833)
(0.0064703 0.000105258 -0.000137693)
(0.0066895 0.000130625 -0.000145684)
(0.00692726 0.000163182 -0.000153711)
(0.00718609 0.000204281 -0.000161585)
(0.00746929 0.000255132 -0.000169109)
(0.00778107 0.000316192 -0.000176075)
(0.00812664 0.00038634 -0.000182359)
(0.00851203 0.000461716 -0.000187995)
(0.00894345 0.000534289 -0.000193269)
(0.00942553 0.000590869 -0.000198815)
(0.00995858 0.000614415 -0.000205637)
(0.0105368 0.000591299 -0.00021436)
(0.0111477 0.000520761 -0.000225247)
(0.0117835 0.000445908 -0.000237675)
(0.0124538 0.000408002 -0.000251434)
(0.0131798 0.000412422 -0.000265375)
(0.0139855 0.000462312 -0.000277837)
(0.0148975 0.000562054 -0.000288722)
(0.0159356 0.000701219 -0.000300847)
(0.0171086 0.00084555 -0.000317426)
(0.0183871 0.000959607 -0.00034559)
(0.0197589 0.0010105 -0.000377788)
(0.0211332 0.00108419 -0.000427518)
(0.0226516 0.00115415 -0.00044243)
(0.0240812 0.00144885 -0.000523305)
(0.0259018 0.00151739 -0.000459593)
(0.0275346 0.0020849 -0.000601801)
(0.0296911 0.0020547 -0.000483125)
(0.0318214 0.00230666 -0.000590087)
(0.0340725 0.00309588 -0.00076992)
(0.0053175 3.55554e-05 -8.41523e-05)
(0.00544938 3.9765e-05 -9.02e-05)
(0.00559117 4.49534e-05 -9.66001e-05)
(0.00574373 5.13398e-05 -0.000103287)
(0.00590797 5.92604e-05 -0.00011025)
(0.00608498 6.91618e-05 -0.000117495)
(0.00627606 8.16089e-05 -0.000124998)
(0.00648282 9.73081e-05 -0.000132741)
(0.00670724 0.000117134 -0.000140728)
(0.00695188 0.00014214 -0.000148973)
(0.00722011 0.000173623 -0.000157479)
(0.00751612 0.000212855 -0.000166419)
(0.00784486 0.00026101 -0.000176024)
(0.00821203 0.000318852 -0.000186653)
(0.00862369 0.000386296 -0.000198917)
(0.00908524 0.00046188 -0.000213704)
(0.00959966 0.000542528 -0.00023215)
(0.0101652 0.000624197 -0.000255481)
(0.0107745 0.000704093 -0.000284078)
(0.0114159 0.000783532 -0.000317717)
(0.0120824 0.000872194 -0.0003546)