/*--------------------------------*- C++ -*----------------------------------*\
| =========                 |                                                 |
| \\      /  F ield         | OpenFOAM: The Open Source CFD Toolbox           |
|  \\    /   O peration     | Version:  2.3.1                                 |
|   \\  /    A nd           | Web:      www.OpenFOAM.org                      |
|    \\/     M anipulation  |                                                 |
\*---------------------------------------------------------------------------*/
FoamFile
{
    version     2.0;
    format      ascii;
    class       volVectorField;
    location    "15";
    object      U_0;
}
// * * * * * * * * * * * * * * * * * * * * * * * * * * * * * * * * * * * * * //

dimensions      [0 1 -1 0 0 0 0];

internalField   nonuniform List<vector> 
37530
(
(0.00451106 -2.51335e-05 -1.45499e-05)
(0.00462314 -2.66821e-05 -1.53463e-05)
(0.00474124 -2.81734e-05 -1.61105e-05)
(0.0048649 -2.95138e-05 -1.67991e-05)
(0.00499314 -3.05579e-05 -1.73432e-05)
(0.0051243 -3.1071e-05 -1.76358e-05)
(0.00525558 -3.06344e-05 -1.75102e-05)
(0.00538228 -2.84256e-05 -1.66959e-05)
(0.00549636 -2.279e-05 -1.4743e-05)
(0.00558396 -1.02584e-05 -1.0547e-05)
(0.0056195 1.60784e-05 -2.49829e-06)
(0.00555464 7.2439e-05 1.34112e-05)
(0.00528876 0.000195481 4.5813e-05)
(0.00460996 0.000478371 0.00011735)
(0.00304808 0.00116368 0.000292588)
(-0.000719848 0.00300882 0.000767123)
(-0.00972491 0.0087208 0.00177959)
(-0.0338097 0.0122923 0.00212751)
(-0.0604558 -0.0056243 0.000832696)
(-0.0541988 -0.0239416 0.000181273)
(-0.0459088 -0.0168627 0.00188086)
(-0.0541325 -0.00591556 0.000672527)
(-0.0542791 -0.0086837 -0.00311233)
(-0.0460182 -0.0123435 -0.00220443)
(-0.0488994 -0.0068239 0.00457515)
(-0.0810701 0.00691501 0.0125514)
(-0.164396 0.0147308 0.0075037)
(-0.226403 -0.00790152 -0.00637437)
(-0.210115 -0.0294148 -0.00392935)
(-0.207072 -0.0254467 0.00708106)
(-0.213664 -0.032026 0.00110087)
(-0.174368 -0.0422103 -0.0100887)
(-0.142589 -0.0336571 -0.00586305)
(-0.136086 -0.0280831 0.00339297)
(-0.137183 -0.0285606 0.00591878)
(-0.139831 -0.028614 0.000792363)
(-0.13342 -0.0291411 -0.00251121)
(0.00482319 -4.03059e-05 -2.47701e-05)
(0.0049397 -4.232e-05 -2.6349e-05)
(0.00506269 -4.40017e-05 -2.79519e-05)
(0.00519178 -4.50871e-05 -2.95393e-05)
(0.00532617 -4.51841e-05 -3.10495e-05)
(0.00546447 -4.36826e-05 -3.23975e-05)
(0.00560444 -3.9598e-05 -3.3452e-05)
(0.00574252 -3.12555e-05 -3.39912e-05)
(0.00587307 -1.58008e-05 -3.36319e-05)
(0.00598698 1.19981e-05 -3.17869e-05)
(0.00607011 6.16295e-05 -2.70457e-05)
(0.00610045 0.000152832 -1.72094e-05)
(0.00604392 0.000327143 2.13178e-06)
(0.00585483 0.000682321 3.90467e-05)
(0.00547147 0.00144392 0.000111035)
(0.00496528 0.00313209 0.000245224)
(0.00464424 0.00705681 0.000525518)
(0.00684891 0.013302 0.000434314)
(0.00747149 0.0142535 -0.00112659)
(0.00576748 0.0108319 -0.00230855)
(-8.80483e-05 0.00994222 -0.00122982)
(-0.00165869 0.00939356 -0.000257793)
(-0.000866376 0.00764342 -0.000825274)
(-0.00189022 0.00826101 -0.000993663)
(-0.00598993 0.0133702 0.000782127)
(-0.0138985 0.024296 0.00542542)
(-0.0351953 0.0353412 0.00727637)
(-0.062374 0.031789 -0.00406427)
(-0.0561868 0.0230761 -0.0122703)
(-0.0467569 0.0202444 -0.00762092)
(-0.044801 0.0171683 -0.0079107)
(-0.0355563 0.0160525 -0.0130185)
(-0.0305106 0.016968 -0.0120772)
(-0.0264596 0.0183329 -0.0098471)
(-0.0205843 0.019661 -0.00810794)
(-0.0192134 0.0189792 -0.00528711)
(-0.0252872 0.0153126 0.000222204)
(0.00488141 -3.29655e-05 -2.92906e-05)
(0.00499886 -3.38152e-05 -3.12233e-05)
(0.00512311 -3.39864e-05 -3.32087e-05)
(0.00525389 -3.30748e-05 -3.52075e-05)
(0.00539062 -3.04789e-05 -3.71743e-05)
(0.0055322 -2.52707e-05 -3.9053e-05)
(0.00567687 -1.59839e-05 -4.07097e-05)
(0.0058217 -3.1488e-07 -4.19408e-05)
(0.00596196 2.55414e-05 -4.23355e-05)
(0.00608998 6.80664e-05 -4.1337e-05)
(0.0061937 0.000138463 -3.78176e-05)
(0.00625467 0.000256011 -2.9769e-05)
(0.00624548 0.000454907 -1.34817e-05)
(0.00613139 0.00079626 1.77666e-05)
(0.00588095 0.00138193 7.68949e-05)
(0.00553461 0.00239044 0.000184187)
(0.00529703 0.00397639 0.000365599)
(0.00634037 0.00610815 0.000592725)
(0.00868345 0.00352014 0.000585365)
(0.0098648 -0.00233589 0.000741877)
(0.00916258 -0.00236748 0.00114025)
(0.00792027 -0.000431788 0.00122448)
(0.00666645 -0.000922439 0.00108707)
(0.0048026 -0.00105085 0.00110804)
(0.00270207 0.00170788 0.00150491)
(0.000789922 0.0081968 0.0026708)
(-0.00116397 0.0166805 0.00459791)
(-0.00887867 0.0139478 0.00348864)
(-0.014317 0.00110999 0.00124856)
(-0.016118 -0.00325983 0.00181394)
(-0.022335 -0.000600801 0.00226932)
(-0.0280512 0.00507046 0.000156163)
(-0.0262169 0.0128208 -0.00252311)
(-0.0211619 0.0155369 -0.0037949)
(-0.0171043 0.0132231 -0.00367956)
(-0.0109498 0.0103478 -0.0037941)
(-0.00545976 0.00942399 -0.00363653)
(0.00489947 -1.96675e-05 -3.02605e-05)
(0.00501771 -1.90723e-05 -3.22787e-05)
(0.00514313 -1.75e-05 -3.43614e-05)
(0.00527563 -1.44489e-05 -3.64751e-05)
(0.0054149 -9.18358e-06 -3.85817e-05)
(0.00556038 -6.0508e-07 -4.06575e-05)
(0.00571109 1.29908e-05 -4.26278e-05)
(0.00586563 3.41921e-05 -4.43236e-05)
(0.00602216 6.70573e-05 -4.5511e-05)
(0.00617833 0.000117888 -4.58527e-05)
(0.00633165 0.000196998 -4.47953e-05)
(0.00648093 0.000321267 -4.14763e-05)
(0.00662961 0.000518487 -3.45736e-05)
(0.00679153 0.000834349 -2.25358e-05)
(0.00700442 0.00133822 -2.87791e-06)
(0.00737435 0.00212311 2.68189e-05)
(0.00808941 0.00324867 6.071e-05)
(0.00965554 0.00467906 7.06185e-05)
(0.0120726 0.00529732 -7.15791e-05)
(0.0129774 0.00466312 -0.000247963)
(0.0120481 0.00415997 -0.000104742)
(0.0118949 0.00406464 9.13756e-05)
(0.0122989 0.00416708 0.000164323)
(0.0120206 0.00505048 0.000236763)
(0.0114606 0.00716397 0.000491198)
(0.011392 0.010408 0.00100402)
(0.0130177 0.0146229 0.001718)
(0.0156393 0.0162407 0.00160969)
(0.0158284 0.0139185 0.00054179)
(0.0130462 0.0121028 0.000849562)
(0.00785415 0.0112484 0.00272375)
(-0.00114749 0.0112706 0.00442093)
(-0.0118843 0.0152063 0.00307116)
(-0.0141713 0.0227447 -0.000585766)
(-0.0101329 0.0263543 -0.00283334)
(-0.00452351 0.0274043 -0.00360134)
(-0.000733018 0.0257155 -0.00310563)
(0.00490686 -5.03618e-06 -3.00758e-05)
(0.00502601 -3.07523e-06 -3.21019e-05)
(0.00515276 7.61878e-08 -3.42032e-05)
(0.00528718 4.9724e-06 -3.63582e-05)
(0.00542924 1.24087e-05 -3.85515e-05)
(0.00557874 2.353e-05 -4.07274e-05)
(0.00573526 3.99869e-05 -4.28233e-05)
(0.00589803 6.41886e-05 -4.47125e-05)
(0.00606569 9.95985e-05 -4.61834e-05)
(0.00623629 0.000151306 -4.68981e-05)
(0.00640744 0.000226839 -4.63531e-05)
(0.00657679 0.000336879 -4.37721e-05)
(0.0067438 0.00049578 -3.79609e-05)
(0.00691353 0.000720762 -2.72295e-05)
(0.00710251 0.00102903 -9.70597e-06)
(0.00735392 0.00142617 1.70199e-05)
(0.0077471 0.00185644 5.39045e-05)
(0.00841462 0.00216712 9.66881e-05)
(0.00940063 0.00172842 0.000127767)
(0.0102489 0.000314125 0.000152656)
(0.0106377 -0.000312858 0.000185777)
(0.0108284 -0.000245089 0.000196413)
(0.0109597 -0.000352166 0.0001938)
(0.0110551 -0.000263122 0.000204871)
(0.0113667 0.000535747 0.000258131)
(0.0121806 0.00197324 0.000375578)
(0.0137912 0.00376785 0.000569025)
(0.0161692 0.00425985 0.000674391)
(0.018061 0.00239377 0.000571764)
(0.0188795 0.00126444 0.000583381)
(0.018931 0.0019919 0.000914106)
(0.0174412 0.00394006 0.00182293)
(0.0132905 0.0058355 0.00344129)
(0.00658244 0.0090006 0.00398753)
(0.00279855 0.0121753 0.00261451)
(0.00228357 0.0159141 0.000440541)
(0.00623421 0.0159231 -0.000440304)
(0.00491082 8.04945e-06 -2.97155e-05)
(0.00503096 1.10627e-05 -3.17413e-05)
(0.00515913 1.53849e-05 -3.38531e-05)
(0.00529562 2.15795e-05 -3.60366e-05)
(0.00544064 3.04391e-05 -3.82734e-05)
(0.00559442 4.30771e-05 -4.0529e-05)
(0.00575712 6.10365e-05 -4.27503e-05)
(0.00592898 8.6512e-05 -4.48575e-05)
(0.0061106 0.000122652 -4.67396e-05)
(0.0063033 0.000173941 -4.82851e-05)
(0.00650964 0.000246628 -4.93433e-05)
(0.00673452 0.000349363 -4.97381e-05)
(0.00698713 0.000493569 -4.92653e-05)
(0.00728353 0.000692874 -4.77789e-05)
(0.00765051 0.000960398 -4.54029e-05)
(0.00812964 0.001303 -4.30647e-05)
(0.00877493 0.00170297 -4.37704e-05)
(0.00962525 0.00210082 -5.44312e-05)
(0.010645 0.0023514 -8.47489e-05)
(0.0114645 0.00235454 -0.000132561)
(0.0118773 0.00236712 -0.000152829)
(0.0122666 0.0025338 -0.00015118)
(0.0127814 0.00287772 -0.000152533)
(0.0132837 0.00347794 -0.00014463)
(0.013842 0.00438369 -0.000110607)
(0.0146591 0.00546827 -4.49044e-05)
(0.0159515 0.00654361 3.68752e-05)
(0.0177448 0.0071743 6.94327e-05)
(0.0193509 0.00708793 9.91301e-06)
(0.0202793 0.00696817 1.12847e-05)
(0.0208816 0.00706827 0.000152783)
(0.0215976 0.00770091 0.000447241)
(0.0222836 0.00886462 0.00097516)
(0.0224073 0.0110539 0.00188898)
(0.0216214 0.0122416 0.00260566)
(0.0213802 0.0140596 0.00283617)
(0.0214762 0.0148407 0.00184236)
(0.0049135 1.97978e-05 -2.96081e-05)
(0.00503468 2.36173e-05 -3.16647e-05)
(0.00516433 2.87799e-05 -3.38196e-05)
(0.00530289 3.58227e-05 -3.60586e-05)
(0.00545081 4.54657e-05 -3.83656e-05)
(0.00560858 5.86761e-05 -4.07145e-05)
(0.00577676 7.67657e-05 -4.30683e-05)
(0.00595603 0.0001015 -4.53738e-05)
(0.00614711 0.000135205 -4.75485e-05)
(0.00635088 0.000180753 -4.94372e-05)
(0.00656877 0.000241751 -5.08385e-05)
(0.0068032 0.000322288 -5.14944e-05)
(0.00705836 0.000426213 -5.10721e-05)
(0.00734125 0.000555532 -4.9196e-05)
(0.00766291 0.000707323 -4.5538e-05)
(0.00803917 0.000867926 -3.99706e-05)
(0.00848817 0.0010037 -3.29453e-05)
(0.00901989 0.00105208 -2.58414e-05)
(0.0096196 0.000930396 -2.03579e-05)
(0.0102125 0.000587996 -1.69188e-05)
(0.0107418 0.000293594 -1.38544e-05)
(0.0112431 0.000183169 -1.29293e-05)
(0.0117709 0.000139229 -1.16814e-05)
(0.0123768 0.000190888 -5.69232e-06)
(0.013142 0.000406878 6.99621e-06)
(0.0141463 0.000770399 2.50223e-05)
(0.0154229 0.00115994 4.38754e-05)
(0.0169114 0.00134209 5.04491e-05)
(0.0184199 0.00112477 4.2976e-05)
(0.019761 0.000955195 3.68317e-05)
(0.0210837 0.00107136 6.53615e-05)
(0.0222304 0.00164063 0.000102843)
(0.0237783 0.00226358 0.000270112)
(0.0249599 0.00333513 0.000438989)
(0.027209 0.00414807 0.000742367)
(0.028257 0.0048197 0.00101395)
(0.0309115 0.00617611 0.000961688)
(0.00491473 3.07119e-05 -2.97549e-05)
(0.00503693 3.51544e-05 -3.18683e-05)
(0.005168 4.08899e-05 -3.40953e-05)
(0.00530852 4.83907e-05 -3.64119e-05)
(0.00545911 5.82719e-05 -3.8804e-05)
(0.00562051 7.13421e-05 -4.12602e-05)
(0.00579361 8.86772e-05 -4.37594e-05)
(0.00597958 0.000111693 -4.62683e-05)
(0.00618001 0.000142231 -4.87471e-05)
(0.00639739 0.000182754 -5.11723e-05)
(0.00663536 0.000236291 -5.35544e-05)
(0.00689905 0.00030641 -5.5888e-05)
(0.00719572 0.000396896 -5.82226e-05)
(0.00753532 0.000511017 -6.07064e-05)
(0.00793058 0.000650098 -6.36778e-05)
(0.00839592 0.000811313 -6.77943e-05)
(0.00894301 0.000984742 -7.41764e-05)
(0.0095701 0.0011523 -8.44847e-05)
(0.0102543 0.00129353 -9.9421e-05)
(0.0109301 0.00140118 -0.000118997)
(0.011552 0.00152318 -0.00013774)
(0.0121647 0.00170403 -0.000153714)
(0.0128205 0.00196392 -0.000167987)
(0.0135353 0.00231313 -0.000179362)
(0.0143362 0.00274477 -0.000186258)
(0.0152697 0.00321105 -0.000188276)
(0.0163751 0.0036387 -0.000188663)
(0.0176299 0.00395362 -0.000195113)
(0.0189437 0.00411217 -0.000209768)
(0.0201963 0.00424849 -0.000224033)
(0.0214814 0.00437619 -0.000222276)
(0.0228158 0.00472509 -0.00021087)
(0.0243464 0.00494736 -0.000169995)
(0.0262148 0.00569614 -0.000101954)
(0.0278075 0.00595835 -4.18591e-05)
(0.0307641 0.00619611 0.000115181)
(0.0318693 0.00724713 4.79243e-05)
(0.00491202 4.10341e-05 -2.97482e-05)
(0.00503515 4.59834e-05 -3.19027e-05)
(0.00516747 5.21223e-05 -3.41858e-05)
(0.00530969 5.98149e-05 -3.65593e-05)
(0.00546254 6.95432e-05 -3.90131e-05)
(0.00562695 8.19363e-05 -4.15505e-05)
(0.00580401 9.78083e-05 -4.41601e-05)
(0.0059951 0.000118187 -4.68222e-05)
(0.00620189 0.00014432 -4.95229e-05)
(0.00642636 0.000177619 -5.223e-05)
(0.00667093 0.00021936 -5.48644e-05)
(0.00693877 0.000270683 -5.73425e-05)
(0.00723383 0.000331893 -5.95683e-05)
(0.00756098 0.000401583 -6.14727e-05)
(0.00792583 0.000475424 -6.30459e-05)
(0.00833407 0.000544661 -6.43555e-05)
(0.00878976 0.000594997 -6.55836e-05)
(0.00929246 0.000607826 -6.70508e-05)
(0.00983563 0.00056812 -6.88449e-05)
(0.0104067 0.000474059 -7.0858e-05)
(0.0109991 0.000370649 -7.29113e-05)
(0.0116239 0.00030034 -7.51248e-05)
(0.012303 0.000268006 -7.71807e-05)
(0.0130623 0.000277274 -7.83841e-05)
(0.0139315 0.00033454 -7.86135e-05)
(0.0149328 0.000432827 -7.89456e-05)
(0.0160766 0.000538787 -8.05494e-05)
(0.017328 0.000617593 -8.67696e-05)
(0.0186814 0.000631929 -9.30614e-05)
(0.0200136 0.000686069 -0.000109655)
(0.0215467 0.000721834 -0.000101837)
(0.0228474 0.0010735 -0.000146758)
(0.0248353 0.00103491 -7.56565e-05)
(0.0260606 0.00185398 -0.000192567)
(0.0287725 0.00161376 -3.22331e-05)
(0.0299032 0.00191387 -0.00016836)
(0.0334827 0.00344259 -0.000176951)
(0.00489783 4.85437e-05 -2.87384e-05)
(0.00502167 5.37019e-05 -3.08302e-05)
(0.00515494 5.9888e-05 -3.30518e-05)
(0.00529842 6.73304e-05 -3.53619e-05)
(0.00545297 7.63667e-05 -3.77559e-05)
(0.0056196 8.74485e-05 -4.0243e-05)
(0.00579959 0.000101146 -4.28156e-05)
(0.00599448 0.000118164 -4.5463e-05)
(0.00620621 0.000139356 -4.81883e-05)
(0.00643731 0.000165753 -5.09994e-05)
(0.00669117 0.000198667 -5.39031e-05)
(0.00697206 0.000239383 -5.69642e-05)
(0.00728495 0.000289136 -6.02655e-05)
(0.0076356 0.000348795 -6.39439e-05)
(0.0080302 0.000418458 -6.82375e-05)
(0.00847432 0.000496972 -7.34949e-05)
(0.00897107 0.00058172 -8.01703e-05)
(0.00951852 0.000669329 -8.8778e-05)
(0.0101091 0.000758049 -9.94554e-05)
(0.0107303 0.000850514 -0.000112099)
(0.0113747 0.000957626 -0.000126141)
(0.0120506 0.00109098 -0.000140994)
(0.0127749 0.00125668 -0.000156504)
(0.0135639 0.00145475 -0.000172272)
(0.0144345 0.00167746 -0.000187947)
(0.0153999 0.00190805 -0.000203528)
(0.0164766 0.00212157 -0.000218959)
(0.0176428 0.00230533 -0.000236218)
(0.0189258 0.00243612 -0.000251906)
(0.020206 0.00258736 -0.000274102)
(0.0217282 0.00263015 -0.000277144)
(0.0230295 0.00296874 -0.000317536)
(0.0250319 0.0027413 -0.000277548)
(0.0262877 0.0035469 -0.000351913)
(0.0290486 0.00312935 -0.000313139)
(0.0300024 0.00305281 -0.000225167)
(0.0336816 0.00535375 -0.000671409)
(0.00484247 4.90827e-05 -2.44134e-05)
(0.00496645 5.38103e-05 -2.61541e-05)
(0.00509999 5.93153e-05 -2.79984e-05)
(0.00524392 6.56933e-05 -2.99173e-05)
(0.00539917 7.31324e-05 -3.19087e-05)
(0.00556683 8.19013e-05 -3.39824e-05)
(0.00574826 9.23308e-05 -3.61356e-05)
(0.00594507 0.000104818 -3.83645e-05)
(0.00615923 0.000119828 -4.06821e-05)
(0.0063931 0.000137864 -4.31064e-05)
(0.0066494 0.000159325 -4.56551e-05)
(0.00693126 0.000184163 -4.82866e-05)
(0.00724228 0.000211843 -5.10024e-05)
(0.00758629 0.000241066 -5.38327e-05)
(0.00796707 0.000269393 -5.68074e-05)
(0.00838783 0.00029299 -5.99776e-05)
(0.00885057 0.000306786 -6.33806e-05)
(0.00935545 0.00030551 -6.70299e-05)
(0.00990113 0.000286148 -7.08733e-05)
(0.0104863 0.000250108 -7.46825e-05)
(0.0111126 0.000206564 -7.82889e-05)
(0.0117869 0.000166898 -8.16271e-05)
(0.0125206 0.00013777 -8.46325e-05)
(0.013327 0.000122844 -8.72496e-05)
(0.0142214 0.000123686 -8.95725e-05)
(0.0152113 0.000139875 -9.22147e-05)
(0.0163112 0.000163605 -9.52105e-05)
(0.0174897 0.000197498 -0.000101102)
(0.018814 0.000213332 -0.00010411)
(0.0200792 0.000300493 -0.000121449)
(0.0217845 0.000245112 -0.000104224)
(0.0228034 0.00061518 -0.000172394)
(0.0255421 0.000221413 -6.84092e-05)
(0.0254347 0.00102892 -0.00024723)
(0.0303791 0.000822307 -8.29398e-05)
(0.0285345 -0.000251929 -8.11783e-05)
(0.0341215 0.00386186 -0.000566404)
(0.00453168 2.77094e-05 -1.46356e-05)
(0.00465173 3.01878e-05 -1.55948e-05)
(0.00478108 3.30089e-05 -1.65985e-05)
(0.00492062 3.61831e-05 -1.76344e-05)
(0.00507127 3.97651e-05 -1.87025e-05)
(0.00523413 4.38488e-05 -1.98138e-05)
(0.00541058 4.85442e-05 -2.09669e-05)
(0.00560225 5.3985e-05 -2.21619e-05)
(0.00581112 6.03347e-05 -2.34119e-05)
(0.00603961 6.77985e-05 -2.47392e-05)
(0.00629066 7.66314e-05 -2.61795e-05)
(0.00656771 8.73033e-05 -2.77686e-05)
(0.00687462 0.000100426 -2.95503e-05)
(0.00721539 0.000116766 -3.16015e-05)
(0.00759388 0.000137199 -3.40418e-05)
(0.0080133 0.000162672 -3.70176e-05)
(0.00847549 0.000194137 -4.0673e-05)
(0.00898038 0.000232478 -4.51457e-05)
(0.0095263 0.000278478 -5.04782e-05)
(0.0101116 0.000332772 -5.65976e-05)
(0.0107373 0.000395827 -6.33565e-05)
(0.011409 0.000467539 -7.06058e-05)
(0.0121365 0.000546976 -7.8261e-05)
(0.0129312 0.000632064 -8.61996e-05)
(0.0138063 0.000719208 -9.43826e-05)
(0.0147674 0.000803693 -0.000102856)
(0.0158324 0.000879396 -0.000111468)
(0.016967 0.000945155 -0.000121201)
(0.0182628 0.000991828 -0.000128428)
(0.0194611 0.00104357 -0.000146267)
(0.0212304 0.0010439 -0.000123623)
(0.0219528 0.00114174 -0.000228025)
(0.0253865 0.00103214 3.45502e-05)
(0.0233526 0.00122117 -0.000576578)
(0.0322973 0.00120796 0.00059632)
(0.0225574 0.000628316 -0.00120764)
(0.0398026 0.00277233 0.000750345)
(0.00501873 -1.41659e-05 -5.15205e-05)
(0.00513956 -1.48435e-05 -5.45392e-05)
(0.00526703 -1.53995e-05 -5.75129e-05)
(0.0054007 -1.57379e-05 -6.03192e-05)
(0.00553967 -1.57076e-05 -6.27663e-05)
(0.00568236 -1.50622e-05 -6.4562e-05)
(0.00582604 -1.33786e-05 -6.52415e-05)
(0.00596618 -9.84804e-06 -6.40412e-05)
(0.00609512 -2.84831e-06 -5.95903e-05)
(0.00619956 1.08182e-05 -4.91826e-05)
(0.00625531 3.79252e-05 -2.80523e-05)
(0.00621739 9.36678e-05 1.46332e-05)
(0.00599402 0.000212219 0.000102909)
(0.00539866 0.000478226 0.000297007)
(0.00403226 0.00110481 0.000765777)
(0.000784989 0.00270334 0.00195789)
(-0.00635844 0.0078085 0.00517082)
(-0.0278054 0.0134971 0.00684903)
(-0.0601265 7.93689e-05 0.0039767)
(-0.0589476 -0.0183547 0.000682173)
(-0.0414974 -0.0161514 0.000973655)
(-0.0363245 -0.00817261 0.000891116)
(-0.0357774 -0.008091 0.000311179)
(-0.0368738 -0.00952829 0.00173997)
(-0.0389053 -0.00740995 0.00821973)
(-0.0436391 -0.000684752 0.0215737)
(-0.0696432 0.0108328 0.0285343)
(-0.128667 0.0180771 0.0158458)
(-0.182483 0.00648564 0.000263719)
(-0.195632 -0.0100122 -0.00527353)
(-0.185256 -0.0109233 -0.00856053)
(-0.174939 -0.00910395 -0.00810947)
(-0.164081 -0.0109809 -0.00372841)
(-0.141201 -0.0165506 -0.00139301)
(-0.114774 -0.0246969 0.000305041)
(-0.102225 -0.0306131 0.00224007)
(-0.0984934 -0.0363289 0.00575085)
(0.00526662 -2.3789e-05 -7.463e-05)
(0.00539136 -2.44637e-05 -7.94271e-05)
(0.00552318 -2.47115e-05 -8.43099e-05)
(0.00566172 -2.42641e-05 -8.91669e-05)
(0.00580627 -2.27154e-05 -9.38345e-05)
(0.0059555 -1.94368e-05 -9.80671e-05)
(0.00610725 -1.3427e-05 -0.000101477)
(0.00625807 -3.0363e-06 -0.00010344)
(0.00640247 1.4562e-05 -0.000102916)
(0.00653176 4.43255e-05 -9.80173e-05)
(0.00663245 9.55268e-05 -8.51265e-05)
(0.00668367 0.00018692 -5.8123e-05)
(0.00665358 0.000357485 -5.18388e-06)
(0.00650148 0.00069669 9.72092e-05)
(0.00617103 0.001405 0.000294376)
(0.00574582 0.00293272 0.000665897)
(0.00536411 0.00644081 0.00141213)
(0.00762205 0.0123179 0.00174736)
(0.00741097 0.013564 -0.00186589)
(0.00426501 0.00810563 -0.00473156)
(-6.24673e-05 0.00437053 -0.00317866)
(0.000415484 0.00331978 -0.00220216)
(0.00279071 0.00218888 -0.0026459)
(0.00240586 0.00302333 -0.00207234)
(0.000332121 0.00709461 0.000971828)
(-0.00216713 0.0148856 0.00773025)
(-0.0047559 0.0239004 0.0142836)
(-0.0171784 0.025567 0.00573209)
(-0.0283695 0.0194469 -0.00858156)
(-0.0304359 0.0125155 -0.0107666)
(-0.0290529 0.00700802 -0.0123818)
(-0.026481 0.00366744 -0.0174322)
(-0.0244848 0.00406925 -0.0177647)
(-0.0198172 0.00762102 -0.0175865)
(-0.0139794 0.010977 -0.0162761)
(-0.0116045 0.0132748 -0.012328)
(-0.0151425 0.0128496 -0.00553179)
(0.0053009 -2.10786e-05 -8.50923e-05)
(0.00542624 -2.08929e-05 -9.07208e-05)
(0.00555894 -1.99512e-05 -9.65067e-05)
(0.0056988 -1.78396e-05 -0.000102345)
(0.00584528 -1.39359e-05 -0.000108114)
(0.00599739 -7.30966e-06 -0.000113622)
(0.00615342 3.49176e-06 -0.000118512)
(0.00631057 2.07504e-05 -0.000122196)
(0.00646428 4.81995e-05 -0.000123592)
(0.00660731 9.21964e-05 -0.000121077)
(0.00672838 0.000163527 -0.00011161)
(0.00681054 0.000280825 -8.97865e-05)
(0.00682916 0.000476739 -4.57644e-05)
(0.00675507 0.000809045 3.8883e-05)
(0.00656559 0.00137179 0.000197822)
(0.00631128 0.00233147 0.000481068)
(0.00618155 0.00380977 0.000955728)
(0.00727927 0.0059812 0.00158475)
(0.00977247 0.0040863 0.00168656)
(0.0110754 -0.00156231 0.00189725)
(0.0105026 -0.00278359 0.00252398)
(0.00950949 -0.00185311 0.00238841)
(0.00863363 -0.00236942 0.00193487)
(0.00725377 -0.0023455 0.00204691)
(0.00586443 -0.000165902 0.00303802)
(0.00510234 0.00450763 0.00521638)
(0.006474 0.0111332 0.0086255)
(0.00693595 0.0117685 0.00865078)
(0.00356657 0.00370117 0.00554302)
(0.00110437 -0.00306627 0.00472704)
(-0.00082672 -0.00585248 0.00528844)
(-0.00317429 -0.0061322 0.00375634)
(-0.00549314 -0.00244022 0.000431795)
(-0.00539919 0.00270292 -0.00306798)
(-0.00263297 0.00388745 -0.005213)
(0.00272558 0.0038802 -0.0065895)
(0.00723462 0.00326898 -0.00709274)
(0.00530749 -1.30583e-05 -8.85442e-05)
(0.00543343 -1.17961e-05 -9.44747e-05)
(0.00556709 -9.49451e-06 -0.000100603)
(0.00570844 -5.64282e-06 -0.000106848)
(0.00585724 5.00325e-07 -0.00011311)
(0.00601296 1.00361e-05 -0.000119271)
(0.00617468 2.46323e-05 -0.000125084)
(0.00634104 4.68465e-05 -0.000130092)
(0.00651024 8.06494e-05 -0.000133657)
(0.00668 0.000132253 -0.000134816)
(0.00684788 0.00021169 -0.000132007)
(0.00701262 0.000335265 -0.000122809)
(0.00717721 0.000529535 -0.000103563)
(0.00735464 0.000837573 -6.94642e-05)
(0.0075808 0.00132287 -1.35888e-05)
(0.00795537 0.00206889 7.03879e-05)
(0.00864851 0.00312187 0.000164456)
(0.0101221 0.00444624 0.000211472)
(0.0124412 0.00496787 -0.000143191)
(0.0134265 0.00403975 -0.000625792)
(0.0126548 0.00314275 -0.000490654)
(0.0125175 0.00289232 -0.000280193)
(0.0129029 0.00300551 -0.000252713)
(0.0127011 0.00383829 -4.59713e-05)
(0.012349 0.00568531 0.000599494)
(0.0125691 0.00830651 0.00168387)
(0.0143999 0.0114921 0.00306765)
(0.0179943 0.0128751 0.00311101)
(0.0197122 0.0111278 0.00124752)
(0.0184639 0.00907781 0.000736387)
(0.0162207 0.00735529 0.00252815)
(0.0140846 0.00524782 0.00515652)
(0.0110259 0.00352324 0.006192)
(0.00883413 0.0060597 0.0036449)
(0.00932965 0.00886842 -3.2142e-05)
(0.0116483 0.0129451 -0.00265912)
(0.0146399 0.0144398 -0.00374284)
(0.00530981 -2.63463e-06 -8.91579e-05)
(0.00543657 -2.99513e-07 -9.51967e-05)
(0.00557148 3.27764e-06 -0.000101475)
(0.00571465 8.65352e-06 -0.000107936)
(0.00586612 1.66137e-05 -0.000114505)
(0.00602574 2.8295e-05 -0.000121043)
(0.00619312 4.53365e-05 -0.000127352)
(0.00636756 7.01236e-05 -0.000133078)
(0.00654781 0.000106104 -0.000137643)
(0.00673216 0.000158326 -0.000140131)
(0.00691856 0.000234222 -0.000139175)
(0.00710529 0.000344306 -0.000132677)
(0.00729269 0.000502673 -0.000117454)
(0.00748699 0.000726418 -8.90925e-05)
(0.00770636 0.00103253 -4.23757e-05)
(0.00799554 0.00142698 2.8796e-05)
(0.0084334 0.00185879 0.000124595)
(0.00914719 0.00219483 0.000232082)
(0.0101893 0.00186963 0.00029693)
(0.0111108 0.000603391 0.000317136)
(0.0115569 -1.86645e-05 0.00033337)
(0.0117991 2.23775e-05 0.000297819)
(0.0120181 -2.851e-05 0.000254928)
(0.0122378 0.000153414 0.000287738)
(0.0126755 0.000980835 0.000451392)
(0.0135813 0.00231352 0.000753396)
(0.0151927 0.00387357 0.0011784)
(0.0175285 0.00437694 0.00140389)
(0.0195669 0.00291135 0.00121169)
(0.0207091 0.00167748 0.00112286)
(0.0213566 0.00165318 0.00142763)
(0.0214887 0.00248861 0.00222084)
(0.0212623 0.00252329 0.0039303)
(0.020128 0.0022163 0.00555975)
(0.0201119 0.00124297 0.00547747)
(0.0198216 0.00230402 0.00385751)
(0.0221324 0.00363423 0.00199853)
(0.00531199 7.69203e-06 -8.88622e-05)
(0.00543974 1.08904e-05 -9.49505e-05)
(0.00557605 1.54384e-05 -0.000101312)
(0.00572126 2.1892e-05 -0.000107904)
(0.00587565 3.10325e-05 -0.000114665)
(0.00603946 4.39514e-05 -0.000121493)
(0.00621291 6.21846e-05 -0.000128239)
(0.00639628 8.79119e-05 -0.000134679)
(0.00659015 0.000124257 -0.000140499)
(0.00679584 0.000175648 -0.000145362)
(0.00701579 0.000248214 -0.000148803)
(0.00725467 0.000350361 -0.000150246)
(0.00752118 0.000493052 -0.000149038)
(0.00783055 0.00068916 -0.000144682)
(0.0082081 0.0009508 -0.00013741)
(0.00869292 0.00128318 -0.000129621)
(0.009335 0.00166675 -0.000129284)
(0.0101697 0.00204091 -0.000153849)
(0.011166 0.00226239 -0.000230062)
(0.0119794 0.00221328 -0.00035648)
(0.0124074 0.00214651 -0.000422862)
(0.012803 0.00223891 -0.000434865)
(0.0133127 0.00250227 -0.000446575)
(0.0138173 0.00298861 -0.000422936)
(0.0143984 0.003735 -0.000328017)
(0.0152578 0.00462698 -0.00016625)
(0.0165826 0.00549612 1.53999e-05)
(0.0183846 0.00598246 7.92768e-05)
(0.0200629 0.00582797 -7.77935e-05)
(0.0211747 0.00558949 -0.000163747)
(0.0220233 0.00550186 -1.80025e-05)
(0.0230648 0.00579255 0.000322893)
(0.0244299 0.00632484 0.000823863)
(0.0259434 0.00747929 0.00161871)
(0.0275088 0.00775907 0.00226116)
(0.0290894 0.00798473 0.00301353)
(0.0308458 0.00822116 0.00221209)
(0.00531475 1.72963e-05 -8.86621e-05)
(0.00544357 2.11375e-05 -9.48285e-05)
(0.00558137 2.63527e-05 -0.000101302)
(0.00572866 3.34561e-05 -0.000108043)
(0.00588593 4.31531e-05 -0.000114999)
(0.00605371 5.64082e-05 -0.000122097)
(0.00623262 7.45306e-05 -0.000129233)
(0.00642337 9.92854e-05 -0.000136254)
(0.00662676 0.000133009 -0.000142925)
(0.0068438 0.000178605 -0.000148839)
(0.00707608 0.000239709 -0.000153461)
(0.0073263 0.000320469 -0.000156101)
(0.00759905 0.000424873 -0.000155902)
(0.00790189 0.000555244 -0.000151926)
(0.00824662 0.000709305 -0.000143421)
(0.00864991 0.000874677 -0.000130278)
(0.00913075 0.00102035 -0.0001141)
(0.00970029 0.00108885 -9.90861e-05)
(0.0103461 0.0010051 -9.09822e-05)
(0.0109945 0.000719871 -9.31773e-05)
(0.0115832 0.000481235 -9.98115e-05)
(0.0121459 0.000422195 -0.000111173)
(0.0127405 0.000440267 -0.000119581)
(0.0134143 0.000561977 -0.000113929)
(0.0142369 0.0008456 -8.92191e-05)
(0.0152779 0.00125952 -5.11227e-05)
(0.0165666 0.00168268 -1.3051e-05)
(0.0180521 0.00190703 -5.97503e-06)
(0.0195608 0.00176348 -3.94236e-05)
(0.0209321 0.00162299 -7.81121e-05)
(0.0222625 0.00169315 -6.02854e-05)
(0.0235273 0.00212007 -1.99099e-05)
(0.0250418 0.00250581 0.000184564)
(0.026612 0.00315229 0.000361642)
(0.0287743 0.00340438 0.000601497)
(0.0308544 0.00366132 0.000802766)
(0.0333156 0.00406128 0.000579811)
(0.00531789 2.57191e-05 -8.85585e-05)
(0.0054478 2.99673e-05 -9.48224e-05)
(0.00558708 3.55271e-05 -0.000101425)
(0.00573636 4.28382e-05 -0.000108316)
(0.00589632 5.25035e-05 -0.000115454)
(0.00606776 6.53334e-05 -0.000122803)
(0.00625161 8.24012e-05 -0.000130297)
(0.00644907 0.000105123 -0.000137845)
(0.00666177 0.000135348 -0.00014534)
(0.00689217 0.000175532 -0.000152694)
(0.00714384 0.000228662 -0.000159891)
(0.00742177 0.000298207 -0.000166897)
(0.00773295 0.000387802 -0.000173813)
(0.00808695 0.000500478 -0.000181001)
(0.00849594 0.00063721 -0.000189317)
(0.00897349 0.000794632 -0.000200448)
(0.0095303 0.000962093 -0.000217288)
(0.0101645 0.00112051 -0.000243935)
(0.0108541 0.00124779 -0.000282626)
(0.0115369 0.00133308 -0.000333524)
(0.0121696 0.00142119 -0.000382367)
(0.0127949 0.00155861 -0.000423017)
(0.0134644 0.00176376 -0.000457665)
(0.0141965 0.00204354 -0.000483422)
(0.0150217 0.00239132 -0.000496994)
(0.0159878 0.00276555 -0.000499589)
(0.0171316 0.00310296 -0.00050142)
(0.0184312 0.00333904 -0.000521272)
(0.0197998 0.00343666 -0.000564968)
(0.0211268 0.00351133 -0.000613854)
(0.0224927 0.00359873 -0.00063024)
(0.0239122 0.00386995 -0.000634392)
(0.0255653 0.004099 -0.0005833)
(0.0274159 0.004693 -0.000535488)
(0.0293801 0.00494527 -0.000483127)
(0.0318751 0.00526302 -0.000372669)
(0.0339238 0.0057954 -0.000572501)
(0.00532034 3.24604e-05 -8.76349e-05)
(0.00545129 3.68776e-05 -9.3916e-05)
(0.00559194 4.2475e-05 -0.000100556)
(0.00574301 4.9589e-05 -0.00010749)
(0.00590534 5.86946e-05 -0.000114693)
(0.00607988 7.04206e-05 -0.000122158)
(0.00626779 8.5577e-05 -0.000129845)
(0.00647048 0.000105195 -0.000137708)
(0.00668969 0.000130542 -0.000145701)
(0.00692746 0.000163075 -0.00015373)
(0.00718629 0.000204143 -0.000161608)
(0.00746948 0.000254958 -0.000169136)
(0.00778124 0.000315978 -0.000176106)
(0.00812678 0.000386085 -0.000182396)
(0.00851212 0.000461425 -0.000188037)
(0.00894348 0.000533972 -0.000193314)
(0.00942547 0.000590547 -0.000198863)
(0.00995844 0.000614102 -0.000205684)
(0.0105366 0.000590981 -0.000214408)
(0.0111474 0.000520369 -0.000225295)
(0.011783 0.000445297 -0.000237725)
(0.0124532 0.000407117 -0.000251481)
(0.0131788 0.00041131 -0.000265419)
(0.0139841 0.000461078 -0.00027787)
(0.0148955 0.000560886 -0.000288725)
(0.0159331 0.000700422 -0.000300792)
(0.0171058 0.000845486 -0.000317284)
(0.0183843 0.000960513 -0.000345345)
(0.0197565 0.00101238 -0.000377471)
(0.0211315 0.00108654 -0.000427146)
(0.0226505 0.0011566 -0.000442084)
(0.0240806 0.00145084 -0.000522935)
(0.0259014 0.00151904 -0.000459325)
(0.027534 0.00208593 -0.000601567)
(0.0296904 0.00205494 -0.000482789)
(0.0318198 0.0023077 -0.000590146)
(0.0340707 0.00309465 -0.000769222)
(0.00531762 3.55462e-05 -8.41588e-05)
(0.00544951 3.97537e-05 -9.02073e-05)
(0.00559131 4.49393e-05 -9.66082e-05)
(0.00574387 5.1322e-05 -0.000103296)
(0.00590812 5.92377e-05 -0.00011026)
(0.00608514 6.91327e-05 -0.000117506)
(0.00627623 8.15714e-05 -0.00012501)
(0.00648299 9.72596e-05 -0.000132756)
(0.00670742 0.000117072 -0.000140745)
(0.00695206 0.000142059 -0.000148991)
(0.00722028 0.00017352 -0.000157499)
(0.00751628 0.000212725 -0.000166442)
(0.00784498 0.000260849 -0.000176049)
(0.00821211 0.000318655 -0.000186679)
(0.00862372 0.000386063 -0.000198943)
(0.00908521 0.000461612 -0.000213729)
(0.00959955 0.00054223 -0.000232172)
(0.010165 0.000623874 -0.000255499)
(0.0107743 0.000703742 -0.000284095)
(0.0114156 0.00078314 -0.000317734)
(0.012082 0.000871737 -0.000354624)
(0.0127818 0.00098069 -0.000392966)