/*--------------------------------*- C++ -*----------------------------------*\
| =========                 |                                                 |
| \\      /  F ield         | OpenFOAM: The Open Source CFD Toolbox           |
|  \\    /   O peration     | Version:  2.3.1                                 |
|   \\  /    A nd           | Web:      www.OpenFOAM.org                      |
|    \\/     M anipulation  |                                                 |
\*---------------------------------------------------------------------------*/
FoamFile
{
    version     2.0;
    format      ascii;
    class       volScalarField;
    location    "15";
    object      epsilon_0;
}
// * * * * * * * * * * * * * * * * * * * * * * * * * * * * * * * * * * * * * //

dimensions      [0 2 -3 0 0 0 0];

internalField   nonuniform List<scalar> 
37632
(
81.4166
49.966
21.0977
7.39007
2.68651
1.73434
0.619703
0.400286
0.208172
0.181123
0.145972
0.100284
0.0718849
0.0679291
0.0647478
0.0380538
0.00359494
0.000228769
0.000138746
0.000149195
0.00014746
0.000149325
0.000155687
0.000152272
0.000165382
0.000169906
0.000173783
0.000183724
0.000206618
0.000227574
0.000247281
0.000259208
0.000272404
0.000285362
0.000294687
0.00030882
0.000348401
0.000398489
26.5905
13.3666
3.8998
0.840397
0.263525
0.251894
0.0392077
0.0477005
0.0233422
0.0424568
0.0296663
0.031536
0.0178816
0.0129629
0.00803342
0.00394823
0.000414974
0.000272577
0.000245298
0.000261489
0.000243806
0.000244199
0.000249909
0.000260421
0.000255607
0.00026525
0.000284302
0.000292164
0.000328137
0.000330412
0.000383882
0.000384726
0.000398581
0.000420468
0.00045421
0.000476024
0.000493568
0.000525391
17.4537
4.32586
1.15128
0.932525
0.162592
0.068114
0.0140357
0.00921287
0.00179989
0.0011879
0.000968499
0.00114398
0.00139539
0.00086705
0.000388617
0.000332303
0.00015203
0.000135241
0.000120268
0.000112692
9.86692e-05
9.29869e-05
9.15308e-05
8.49705e-05
8.09999e-05
8.03768e-05
8.33761e-05
8.35479e-05
0.000100053
9.7819e-05
0.000122014
0.000118976
0.000156944
0.000174213
0.000177397
0.000180631
0.000190444
17.8559
2.21923
0.689146
0.121159
0.0484746
0.00880188
0.00313181
0.00111527
0.00100081
0.000559259
0.0003942
0.000354416
0.000239518
0.000221791
0.000172818
0.000146436
0.000123166
0.000112026
9.7452e-05
9.34389e-05
7.95238e-05
7.26504e-05
6.76391e-05
5.82363e-05
5.45021e-05
4.76951e-05
4.6636e-05
4.13604e-05
4.22199e-05
3.91079e-05
4.13535e-05
4.18947e-05
5.06006e-05
5.20052e-05
5.25215e-05
5.67768e-05
5.91542e-05
17.1981
0.793527
0.282931
0.0433819
0.0201589
0.010197
0.0119716
0.00205262
0.00156114
0.000624268
0.000388813
0.000253865
0.000205867
0.000187966
0.000155601
0.000143088
0.000135573
0.000113738
0.000106283
8.85159e-05
8.01589e-05
7.58699e-05
6.42896e-05
5.78288e-05
5.24808e-05
4.38569e-05
4.10715e-05
3.4469e-05
3.26363e-05
2.87504e-05
2.71359e-05
2.65538e-05
2.62679e-05
2.56729e-05
2.61958e-05
2.75653e-05
2.73914e-05
2.7869e-05
17.3586
0.760454
0.276616
0.0568185
0.0392611
0.0112823
0.015181
0.00303728
0.00293747
0.00194911
0.000450193
0.000255049
0.000208114
0.000185651
0.000152887
0.000142346
0.000127203
0.000120588
0.000107986
8.92418e-05
8.30582e-05
7.57532e-05
6.70212e-05
6.07122e-05
5.2081e-05
4.36564e-05
4.048e-05
3.33875e-05
3.14963e-05
2.7562e-05
2.48396e-05
2.31381e-05
2.12905e-05
2.07694e-05
2.07515e-05
2.13399e-05
2.26068e-05
2.43342e-05
17.1672
0.739629
0.0949454
0.022205
0.0191046
0.00817607
0.00397655
0.00206222
0.00135324
0.00104014
0.000495157
0.000361594
0.000277778
0.000241585
0.000151799
0.000148976
0.00012458
0.000119016
0.000104017
9.64135e-05
7.87233e-05
7.30326e-05
6.96726e-05
5.75404e-05
5.40447e-05
4.36957e-05
4.01143e-05
3.29984e-05
3.06857e-05
2.76821e-05
2.42892e-05
2.30443e-05
1.95948e-05
1.87935e-05
1.75355e-05
1.68472e-05
1.67695e-05
17.6171
0.750073
0.10271
0.082325
0.0376029
0.0187219
0.0159063
0.0079246
0.00452403
0.00366916
0.00208597
0.00128274
0.000696185
0.000240021
0.000143036
0.000130453
0.000127282
0.000104115
9.89246e-05
9.1652e-05
7.8454e-05
7.19754e-05
6.35617e-05
6.05129e-05
4.88065e-05
4.24342e-05
3.67567e-05
3.26064e-05
2.7821e-05
2.60439e-05
2.28286e-05
2.18529e-05
1.88667e-05
1.72993e-05
1.63579e-05
1.47266e-05
1.41131e-05
18.468
0.853503
0.10079
0.0705419
0.0265223
0.0103161
0.0082864
0.00474296
0.0029307
0.00227272
0.00118742
0.000647504
0.000313229
0.000184777
0.000150317
0.000138092
0.000119489
0.000112148
9.6771e-05
9.69271e-05
8.74173e-05
8.53651e-05
6.40339e-05
5.67472e-05
4.81511e-05
4.13821e-05
3.19096e-05
2.99006e-05
2.50549e-05
2.44814e-05
2.08791e-05
2.01813e-05
1.70831e-05
1.63688e-05
1.46499e-05
1.35459e-05
1.20749e-05
19.3685
1.50114
0.276938
0.128068
0.0641542
0.0583894
0.0299906
0.0116132
0.00534828
0.00320178
0.00220547
0.00181683
0.000851258
0.000276535
0.000169158
0.000182956
0.000175991
0.00020804
0.000195831
0.000224842
0.000228423
0.000224674
0.00014555
0.000104498
5.5256e-05
3.60434e-05
2.59638e-05
2.39921e-05
2.09625e-05
2.05091e-05
1.80188e-05
1.77e-05
1.49294e-05
1.43089e-05
1.35308e-05
1.19144e-05
1.13414e-05
18.1936
1.685
0.175011
0.10113
0.0605946
0.0340164
0.018468
0.00863237
0.0050473
0.00360956
0.00240551
0.00174354
0.000989233
0.000783881
0.00138204
0.00155196
0.0014348
0.00173895
0.00186686
0.00163703
0.00144705
0.000858302
0.000568955
0.000362721
0.000237142
7.0237e-05
1.61751e-05
1.64342e-05
1.48238e-05
1.46694e-05
1.39265e-05
1.33707e-05
1.1666e-05
1.12092e-05
1.07558e-05
9.41878e-06
9.20924e-06
13.5834
5.44939
1.32281
0.271145
0.0897179
0.0492382
0.0264589
0.0148594
0.0104916
0.00965746
0.00859246
0.00536611
0.00275975
0.00224876
0.00217881
0.00178086
0.0015047
0.00129044
0.00119448
0.0011207
0.00106645
0.00118847
0.00112622
0.00107211
0.000965783
0.000395628
1.31031e-05
9.45445e-06
9.48189e-06
8.38452e-06
8.44326e-06
7.22438e-06
6.93254e-06
6.32236e-06
6.06368e-06
5.34474e-06
5.17967e-06
11.7809
16.933
9.80463
4.34466
1.77487
0.982008
0.431802
0.230249
0.150587
0.129247
0.0908904
0.0632153
0.0600482
0.0615747
0.0552752
0.0206387
0.00131943
0.000157136
0.000165075
0.000162723
0.000190141
0.000181264
0.000203354
0.000219127
0.000223305
0.000249301
0.000246347
0.00027441
0.000307513
0.000331626
0.000348055
0.000354036
0.000371784
0.000382881
0.000390147
0.000410585
0.000446597
0.000482292
28.8249
13.9712
7.36691
1.32905
0.423891
0.373154
0.0963122
0.0707001
0.0624768
0.0651265
0.0458371
0.0441704
0.0337928
0.028178
0.0170547
0.00379578
0.000453523
0.000270953
0.000233676
0.000218153
0.000207516
0.000214133
0.000218637
0.000240485
0.000247559
0.00026046
0.000287872
0.000299914
0.000336346
0.000352448
0.000391056
0.00040771
0.000430283
0.000451977
0.000479002
0.000500025
0.000515913
0.000537931
27.3381
4.73464
1.11748
1.06164
0.241904
0.197859
0.0272458
0.00933747
0.00375088
0.00250816
0.00214326
0.00251752
0.00194095
0.00217767
0.00124757
0.000320607
0.000113486
8.38566e-05
6.75554e-05
5.82686e-05
5.46654e-05
5.34e-05
5.31691e-05
5.65446e-05
5.63075e-05
6.0987e-05
6.817e-05
7.60316e-05
8.83113e-05
9.97379e-05
0.000116591
0.000131376
0.000150622
0.00017313
0.00018754
0.000200944
0.000215868
31.5549
4.60013
0.935235
0.176354
0.0571948
0.0125765
0.00343326
0.00137425
0.000730161
0.000741219
0.00024475
0.000217014
0.000178482
0.000188131
0.00011511
7.16251e-05
4.78296e-05
4.18489e-05
4.0456e-05
2.94633e-05
2.58346e-05
2.33266e-05
2.17607e-05
2.15956e-05
2.01903e-05
2.07942e-05
2.00212e-05
2.26543e-05
2.27466e-05
2.69075e-05
2.84153e-05
3.5489e-05
3.88577e-05
4.74396e-05
5.04612e-05
5.58679e-05
6.06884e-05
25.9192
1.42096
0.276474
0.0616303
0.0393081
0.0110283
0.00762118
0.00139426
0.000890545
0.000712995
0.000206931
0.000148628
8.02402e-05
6.22698e-05
5.16667e-05
4.37005e-05
3.61586e-05
3.43266e-05
3.09209e-05
2.50371e-05
2.13272e-05
1.94914e-05
1.61834e-05
1.5081e-05
1.3835e-05
1.22826e-05
1.07828e-05
1.04727e-05
1.0399e-05
9.96834e-06
1.10008e-05
1.12116e-05
1.2573e-05
1.57893e-05
1.68991e-05
1.80464e-05
1.92629e-05
1.79487e-05
23.4932
1.19968
0.171691
0.0494886
0.0516801
0.0169693
0.00980677
0.00298985
0.00204588
0.00242437
0.000492249
0.000168869
0.000106921
6.31199e-05
5.67683e-05
4.39987e-05
3.37485e-05
3.20148e-05
2.56426e-05
2.50958e-05
2.01803e-05
1.82135e-05
1.62978e-05
1.51971e-05
1.29036e-05
1.12799e-05
9.3697e-06
8.49933e-06
7.40287e-06
7.06744e-06
6.9239e-06
6.55213e-06
6.80492e-06
7.56773e-06
8.3573e-06
9.54202e-06
1.06302e-05
1.08628e-05
22.9422
1.01947
0.0633381
0.0205226
0.0136282
0.00483342
0.00835664
0.00187753
0.0014355
0.00119884
0.000256186
0.000147234
0.000109089
8.76646e-05
4.50224e-05
3.99386e-05
3.46777e-05
3.22343e-05
2.77755e-05
2.51533e-05
2.41587e-05
2.25554e-05
1.698e-05
1.6125e-05
1.24615e-05
1.14323e-05
9.20991e-06
8.24038e-06
6.96041e-06
6.63624e-06
6.13972e-06
5.43893e-06
5.179e-06
5.07128e-06
5.23068e-06
5.80336e-06
6.59678e-06
22.5668
1.06705
0.0868618
0.041808
0.033594
0.0107276
0.0111698
0.00497493
0.00319657
0.00340976
0.00228694
0.00123902
0.00107038
0.000201659
6.33462e-05
6.81081e-05
3.90343e-05
3.43944e-05
2.79144e-05
2.63536e-05
2.53253e-05
2.55285e-05
2.05746e-05
1.76557e-05
1.4534e-05
1.13106e-05
1.02294e-05
7.70534e-06
7.13133e-06
5.981e-06
5.76471e-06
4.94083e-06
4.42932e-06
4.20786e-06
4.03328e-06
3.9881e-06
4.03808e-06
23.1287
1.22947
0.09622
0.0614958
0.022424
0.00559655
0.00290755
0.0017761
0.00145168
0.00111979
0.000858667
0.000443968
0.000311823
9.62862e-05
6.38967e-05
6.38968e-05
5.31011e-05
5.12957e-05
4.94926e-05
4.82468e-05
5.08376e-05
5.10955e-05
3.25514e-05
2.57043e-05
1.72662e-05
1.4205e-05
1.38194e-05
7.79166e-06
6.92233e-06
5.72162e-06
5.69374e-06
4.44895e-06
4.03149e-06
3.68335e-06
3.43288e-06
3.10516e-06
2.96224e-06
23.0664
1.55488
0.221595
0.117382
0.060697
0.0450682
0.0165976
0.00598398
0.0033175
0.00228258
0.00213768
0.00178198
0.000959137
0.000391921
0.000229655
0.000222605
0.000242761
0.000304735
0.00032707
0.000366559
0.000395289
0.000412284
0.000187292
9.85145e-05
4.58053e-05
1.88902e-05
1.60674e-05
7.83003e-06
5.82614e-06
5.03533e-06
4.68794e-06
4.0018e-06
3.43681e-06
3.25337e-06
3.09112e-06
2.71109e-06
2.54545e-06
21.5422
1.35766
0.166563
0.0861419
0.0554023
0.0293848
0.0173116
0.0102208
0.00755262
0.00639101
0.00520577
0.00394479
0.00291917
0.00263064
0.00325276
0.00335318
0.00307163
0.00308735
0.00330703
0.00288861
0.00269193
0.00196986
0.00108127
0.000650488
0.000299626
4.41965e-05
1.22215e-05
6.93632e-06
4.9645e-06
4.55178e-06
3.87377e-06
3.29661e-06
3.06291e-06
2.80318e-06
2.7039e-06
2.40194e-06
2.19559e-06
10.1095
3.30262
0.732576
0.15287
0.0566036
0.0305078
0.018531
0.0112479
0.0089842
0.00881256
0.00805861
0.00520616
0.00275875
0.00200451
0.00191273
0.00173068
0.00168109
0.00163285
0.00168854
0.00152329
0.00160476
0.00159383
0.00132102
0.001199
0.000867173
0.000132547
6.3331e-06
5.51849e-06
5.44031e-06
4.91302e-06
4.58225e-06
4.42525e-06
3.8762e-06
3.68974e-06
3.52599e-06
3.1234e-06
3.00317e-06
6.7399
9.81951
6.23207
3.70202
1.90942
0.836543
0.431532
0.228538
0.171517
0.135969
0.0914955
0.074717
0.0746269
0.072139
0.0552772
0.0120636
0.000596935
0.000208797
0.000233266
0.000239424
0.000267121
0.000269083
0.000287745
0.000309789
0.00031749
0.000344259
0.000352693
0.000379719
0.000413237
0.000439143
0.000459813
0.000474216
0.000492758
0.000506281
0.000522072
0.000545191
0.000573781
0.000603081
5.9557
2.69055
0.854123
0.442763
0.374639
0.0973032
0.0982887
0.0415508
0.0452691
0.044332
0.0344769
0.035167
0.0331224
0.0246598
0.0143854
0.00219355
0.000415759
0.000295497
0.000253916
0.000247562
0.000244077
0.00025473
0.000259765
0.000282325
0.000295704
0.000303723
0.00033758
0.00035142
0.000382949
0.000406982
0.000439426
0.000465509
0.000489933
0.000515481
0.000547993
0.000572517
0.000586373
0.000609087
7.01534
4.93625
0.576111
0.198239
0.124386
0.0874212
0.00717886
0.00410563
0.00189889
0.00219182
0.00188039
0.00224172
0.0017489
0.00189976
0.00097512
0.000237716
0.00012571
9.69037e-05
7.42266e-05
7.07956e-05
6.65145e-05
6.55498e-05
6.59973e-05
7.15466e-05
7.41564e-05
7.71499e-05
9.0409e-05
9.70483e-05
0.000111554
0.00012869
0.000144027
0.00016381
0.000182986
0.000206697
0.000225696
0.000241853
0.000257724
4.45765
2.62699
0.412725
0.0394275
0.0176041
0.0110956
0.00187351
0.000979539
0.000422435
0.000271604
0.000239377
0.000188245
0.000164591
0.000162832
9.68196e-05
5.66978e-05
4.34864e-05
3.39307e-05
3.00457e-05
2.47548e-05
2.33667e-05
2.0871e-05
1.99033e-05
1.94628e-05
1.91605e-05
1.90395e-05
2.02138e-05
2.16905e-05
2.36008e-05
2.75372e-05
2.93772e-05
3.52755e-05
3.85898e-05
4.39186e-05
4.74795e-05
5.10467e-05
5.37138e-05
5.00169
0.422935
0.0747467
0.0261816
0.00996633
0.00556521
0.00142682
0.000638767
0.000362011
0.000231504
0.000155654
0.000112012
6.23776e-05
4.87871e-05
3.68247e-05
3.05666e-05
2.46364e-05
2.18471e-05
2.05071e-05
1.69087e-05
1.47907e-05
1.38047e-05
1.16405e-05
1.08434e-05
1.02664e-05
9.16434e-06
8.53145e-06
8.25063e-06
8.16333e-06
8.0353e-06
8.48922e-06
8.67021e-06
9.26048e-06
1.01946e-05
1.07633e-05
1.11297e-05
1.14805e-05
1.15097e-05
6.16241
0.36649
0.0705994
0.0226958
0.00785004
0.00438384
0.00140783
0.00101116
0.000471678
0.000481696
0.00024488
7.72804e-05
4.95602e-05
3.98567e-05
3.0538e-05
2.68819e-05
2.08991e-05
1.92368e-05
1.69454e-05
1.61154e-05
1.33394e-05
1.21846e-05
1.0453e-05
9.5152e-06
8.66738e-06
7.59155e-06
6.53212e-06
5.96913e-06
5.36788e-06
5.10322e-06
4.97799e-06
4.85624e-06
4.87956e-06
5.09454e-06
5.37521e-06
5.73644e-06
6.19754e-06
6.34972e-06
6.7646
0.268195
0.0351493
0.0142051
0.00772548
0.00234357
0.00190208
0.000709498
0.00039199
0.000319599
0.000109889
6.91906e-05
5.37545e-05
4.41081e-05
2.92496e-05
2.31872e-05
2.08228e-05
1.9511e-05
1.75718e-05
1.65546e-05
1.49423e-05
1.33896e-05
1.08173e-05
1.01993e-05
8.57753e-06
7.36696e-06
6.1612e-06
5.47768e-06
4.63916e-06
4.32995e-06
4.05117e-06
3.7916e-06
3.5972e-06
3.58357e-06
3.56865e-06
3.76575e-06
4.07426e-06
6.76269
0.341621
0.042582
0.0146729
0.0127146
0.00392306
0.00167565
0.00113846
0.000470296
0.000396555
0.000239042
0.000175781
0.000154482
8.93402e-05
3.12868e-05
2.86541e-05
2.35015e-05
2.19821e-05
2.12669e-05
2.11098e-05
2.03598e-05
1.98925e-05
1.50801e-05
1.34314e-05
1.05612e-05
7.71856e-06
6.83575e-06
5.36451e-06
4.48081e-06
3.97987e-06
3.76785e-06
3.4359e-06
3.09231e-06
2.97483e-06
2.84019e-06
2.80736e-06
2.80303e-06
6.72849
0.38634
0.0769463
0.0401079
0.0125294
0.00258468
0.0012484
0.000681417
0.000411308
0.000299273
0.000196311
0.00015261
0.000102185
6.361e-05
4.86204e-05
4.52651e-05
4.41523e-05
4.88305e-05
5.13513e-05
5.62815e-05
5.91565e-05
5.88306e-05
3.17219e-05
2.25599e-05
1.53628e-05
9.79119e-06
8.59444e-06
5.85489e-06
4.30621e-06
3.78325e-06
3.4958e-06
3.1575e-06
2.73209e-06
2.58998e-06
2.39563e-06
2.27326e-06
2.16089e-06
6.52143
0.656652
0.178032
0.078724
0.0353619
0.0158596
0.00532646
0.00245456
0.00164723
0.00119196
0.00110037
0.000770478
0.000597304
0.000438735
0.000412152
0.000412107
0.000409328
0.000447205
0.000490706
0.000508121
0.000527435
0.00051955
0.00021469
9.1623e-05
4.00473e-05
1.27499e-05
1.07857e-05
7.23049e-06
4.30593e-06
3.81664e-06
3.28086e-06
3.04263e-06
2.53107e-06
2.36396e-06
2.23319e-06
2.04917e-06
1.88107e-06
5.66151
0.744512
0.170053
0.0628903
0.0417745
0.0354559
0.0277388
0.0178997
0.0147677
0.0135908
0.012726
0.0103575
0.00840408
0.00705049
0.00655182
0.00568582
0.00496557
0.00439075
0.00457373
0.00371822
0.00348605
0.00254596
0.00140481
0.000674951
0.000258895
2.34832e-05
1.2767e-05
7.67911e-06
4.98954e-06
4.12649e-06
3.69197e-06
2.96983e-06
2.68507e-06
2.37905e-06
2.31983e-06
2.04781e-06
1.79834e-06
8.34536
2.92018
0.658131
0.142542
0.0606992
0.0369366
0.0287769
0.0204133
0.0181422
0.0180396
0.0167314
0.0112717
0.00663343
0.00468336
0.00394952
0.0031953
0.00292443
0.00275576
0.00265933
0.00230917
0.00241318
0.0022673
0.00176819
0.00155342
0.000912863
4.4816e-05
7.47607e-06
6.55059e-06
6.1473e-06
5.99572e-06
5.37349e-06
5.243e-06
4.64561e-06
4.38883e-06
4.26195e-06
3.73454e-06
3.56034e-06
3.42985
6.37443
3.95084
2.77964
1.73638
0.729409
0.395852
0.228656
0.18129
0.134562
0.0937073
0.0875408
0.0793869
0.0606219
0.0279426
0.00300459
0.000300602
0.000256592
0.00028617
0.000296069
0.00032669
0.000335927
0.000351649
0.000377352
0.000387522
0.000413753
0.000426831
0.000453
0.000481234
0.000505212
0.000526754
0.000545089
0.000563792
0.000581041
0.000601828
0.000622583
0.000644619
0.000664055
1.47657
2.01121
0.463457
0.256866
0.183787
0.0673792
0.065204
0.0388996
0.0423862
0.0409855
0.0332538
0.0329448
0.024546
0.0146052
0.00594644
0.000959979
0.000397522
0.000322745
0.000284991
0.000283112
0.000281705
0.000294865
0.000300677
0.000319392
0.000336334
0.000343738
0.000376801
0.000392669
0.000418553
0.000445251
0.000474662
0.000504511
0.000529804
0.000559375
0.000596951
0.000621636
0.000634929
0.000660061
2.05017
3.31254
0.631553
0.0648744
0.0336772
0.0268182
0.00350727
0.00223804
0.00198384
0.00200902
0.00186021
0.00204487
0.00139983
0.00109624
0.000521963
0.000214181
0.000145884
0.000116931
9.53181e-05
9.17606e-05
8.83509e-05
8.79796e-05
8.8089e-05
9.34917e-05
9.83215e-05
0.000101185
0.00011595
0.000124136
0.000137898
0.000157375
0.000171932
0.000193056
0.000213462
0.000237878
0.000257647
0.000273676
0.000289041
0.533006
0.610886
0.109611
0.0157413
0.00870561
0.00813674
0.00132845
0.000784328
0.000379573
0.00028004
0.000237771
0.000223423
0.000183884
0.000138396
9.97322e-05
6.29262e-05
5.14449e-05
4.04508e-05
3.58228e-05
3.07172e-05
2.90004e-05
2.65216e-05
2.54955e-05
2.51036e-05
2.51305e-05
2.50684e-05
2.71432e-05
2.87065e-05
3.10113e-05
3.5086e-05
3.68815e-05
4.16906e-05
4.48421e-05
4.84034e-05
5.09888e-05
5.30205e-05
5.44604e-05
0.607348
0.100318
0.0371436
0.0136188
0.00622315
0.00262248
0.00095443
0.00052115
0.000321799
0.000207158
0.00015665
0.000108916
6.93748e-05
5.24721e-05
4.07574e-05
3.25842e-05
2.59134e-05
2.25686e-05
2.10033e-05
1.71011e-05
1.51503e-05
1.408e-05
1.21094e-05
1.12957e-05
1.08512e-05
1.00264e-05
9.54488e-06
9.35203e-06
9.3377e-06
9.23922e-06
9.39106e-06
9.40996e-06
9.64146e-06
9.84764e-06
9.94281e-06
9.93283e-06
9.94606e-06
9.81135e-06
1.11355
0.0716008
0.0239278
0.010505
0.00393974
0.00218948
0.00072254
0.000456776
0.000273595
0.000236919
0.000152908
7.15251e-05
5.10621e-05
3.88267e-05
3.05331e-05
2.60095e-05
2.00972e-05
1.81217e-05
1.60831e-05
1.50404e-05
1.26018e-05
1.15403e-05
9.73457e-06
8.86516e-06
8.22458e-06
7.27899e-06
6.35929e-06
5.9074e-06
5.46341e-06
5.16519e-06
5.06073e-06
4.89833e-06
4.85206e-06
4.85203e-06
4.89494e-06
4.95869e-06
5.05204e-06
5.04734e-06
1.39501
0.064497
0.0220811
0.0085952
0.00481761
0.00161611
0.00110509
0.000484259
0.000289638
0.000187507
9.08711e-05
6.18978e-05
5.01465e-05
4.23604e-05
2.9601e-05
2.20283e-05
1.95614e-05
1.77956e-05
1.62482e-05
1.54772e-05
1.37373e-05
1.22786e-05
9.86565e-06
9.10007e-06
8.03979e-06
6.72855e-06
5.74416e-06
5.2039e-06
4.43336e-06
4.08417e-06
3.86475e-06
3.68942e-06
3.48406e-06
3.4425e-06
3.37415e-06
3.40997e-06
3.50217e-06
1.42037
0.103987
0.0264357
0.008087
0.00493149
0.00151676
0.000750989
0.00051035
0.000249147
0.00014932
0.000100341
7.81349e-05
7.08221e-05
6.26034e-05
2.8464e-05
2.40086e-05
2.22397e-05
2.10982e-05
2.09162e-05
2.10912e-05
2.09269e-05
2.01313e-05
1.45226e-05
1.25535e-05
9.87645e-06
6.94764e-06
6.0683e-06
5.18787e-06
4.17751e-06
3.73916e-06
3.46182e-06
3.26449e-06
2.96163e-06
2.8577e-06
2.706e-06
2.66063e-06
2.63247e-06
1.21951
0.160213
0.0620481
0.0208577
0.00638572
0.00225221
0.00126569
0.000514607
0.000370173
0.000203415
0.000164655
0.00012023
0.000100364
7.12821e-05
5.69451e-05
5.28841e-05
5.23292e-05
5.30975e-05
6.10937e-05
6.71877e-05
7.58073e-05
7.64373e-05
3.74213e-05
2.29039e-05
1.54212e-05
8.80855e-06
7.24377e-06
5.86588e-06
4.07448e-06
3.63736e-06
3.23461e-06
3.07147e-06
2.64318e-06
2.51008e-06
2.30384e-06
2.2205e-06
2.11612e-06
1.33258
0.344868
0.143925
0.0535922
0.0214218
0.0127812
0.00542514
0.00346148
0.0024589
0.0019856
0.00190966
0.00142215
0.00115136
0.000846616
0.000764968
0.000719402
0.000641444
0.000619663
0.000650508
0.000634604
0.000661151
0.000669293
0.000309
0.000110898
4.18188e-05
1.16997e-05
9.41718e-06
6.94646e-06
4.3107e-06
3.8508e-06
3.19319e-06
3.10915e-06
2.52233e-06
2.36079e-06
2.16624e-06
2.04742e-06
1.9055e-06
1.43198
0.535509
0.169879
0.0644751
0.0482088
0.0547128
0.0393089
0.0316905
0.0256718
0.023172
0.0226296
0.0184049
0.0151521
0.012403
0.0105888
0.00887013
0.00740908
0.00603567
0.0059384
0.00465462
0.00408764
0.0030643
0.00187803
0.000941232
0.000274792
2.042e-05
1.3037e-05
7.9018e-06
5.5869e-06
4.85204e-06
3.85e-06
3.67769e-06
2.82687e-06
2.55482e-06
2.47758e-06
2.26797e-06
1.97422e-06
5.3193
1.99301
0.493304
0.126383
0.0633215
0.0453238
0.0401194
0.032447
0.0297442
0.0292443
0.0269698
0.0184815
0.0112542
0.00868716
0.00720181
0.00544148
0.0044945
0.00401555
0.00371002
0.0030327
0.00307969
0.00283727
0.0021614
0.00186661
0.000989049
2.91142e-05
8.90525e-06
7.43008e-06
6.81875e-06
6.51339e-06
6.15107e-06
5.80158e-06
5.161e-06
4.99297e-06
4.61721e-06
4.40462e-06
3.96568e-06
3.34972
4.74187
1.94688
1.52499
1.24053
0.601243
0.347545
0.232844
0.187424
0.130267
0.10471
0.0919105
0.0552224
0.0240351
0.00655292
0.000631216
0.000279387
0.000300337
0.000330296
0.000342915
0.000373295
0.000388965
0.000403299
0.000430108
0.000442488
0.000465672
0.000479557
0.000502594
0.000526195
0.000547855
0.000569025
0.000588394
0.000607335
0.000627381
0.00064915
0.000666533
0.000682855
0.000693247
0.717604
0.915086
0.285918
0.137353
0.130489
0.0528284
0.0540275
0.0425558
0.0442451
0.0413762
0.0368354
0.0282413
0.0126378
0.00536653
0.00182891
0.000611462
0.000392069
0.000342427
0.000311064
0.000312781
0.000312999
0.000326985
0.000334987
0.00035041
0.000368964
0.000376809
0.000405509
0.000422653
0.000445065
0.00047111
0.000498655
0.000527742
0.00055394
0.000587508
0.000626449
0.000649331
0.000664566
0.000692016
0.774615
2.08685
0.359665
0.0360983
0.0135504
0.0104464
0.00286065
0.00226092
0.00231992
0.00249972
0.00195195
0.00177025
0.000936159
0.000578024
0.000356808
0.000222481
0.000162998
0.000135922
0.000118028
0.000113855
0.000111178
0.000111488
0.000111731
0.000116565
0.000122776
0.000125948
0.000140223
0.00014963
0.000162141
0.000181747
0.00019701
0.000218828
0.000239448
0.000262
0.000280825
0.00029545
0.000309571
0.120411
0.224967
0.0521255
0.0105018
0.00591673
0.00376197
0.00103968
0.000626069
0.000459669
0.000329293
0.0002672
0.000262334
0.000200247
0.000142369
0.000114063
7.62029e-05
6.37191e-05
5.20721e-05
4.61688e-05
4.04148e-05
3.81362e-05
3.53201e-05
3.40282e-05
3.35938e-05
3.38539e-05
3.39054e-05
3.64487e-05
3.84149e-05
4.09154e-05
4.54867e-05
4.75844e-05
5.20196e-05
5.50764e-05
5.78574e-05
5.94131e-05
6.02454e-05
6.06087e-05
0.0834946
0.0417137
0.0208545
0.0115097
0.0042238
0.00192094
0.000871633
0.00052192
0.00036835
0.000238012
0.000179003
0.000127514
9.17205e-05
6.90185e-05
5.45663e-05
4.28265e-05
3.32216e-05
2.84883e-05
2.52041e-05
2.02943e-05
1.80537e-05
1.64303e-05
1.43439e-05
1.34196e-05
1.29458e-05
1.22698e-05
1.19324e-05
1.18235e-05
1.19573e-05
1.20188e-05
1.21992e-05
1.22867e-05
1.23694e-05
1.23198e-05
1.20942e-05
1.16892e-05
1.13514e-05
1.07713e-05
0.131885
0.0248988
0.0131474
0.00580789
0.00296003
0.0014434
0.00061611
0.000395056
0.000265805
0.00022448
0.000140178
9.11734e-05
7.30431e-05
5.11782e-05
4.131e-05
3.29033e-05
2.44237e-05
2.11272e-05
1.77383e-05
1.6049e-05
1.34618e-05
1.22162e-05
1.01552e-05
9.24532e-06
8.62338e-06
7.7792e-06
6.94604e-06
6.5895e-06
6.27917e-06
5.98714e-06
5.9066e-06
5.75715e-06
5.67875e-06
5.61193e-06
5.50023e-06
5.40603e-06
5.34741e-06
5.18128e-06
0.174508
0.0266811
0.0151737
0.00632474
0.00424895
0.00137125
0.000931041
0.000457215
0.000287091
0.00018985
0.000111893
8.40942e-05
6.53916e-05
5.09005e-05
3.82114e-05
2.68983e-05
2.26005e-05
1.94755e-05
1.71616e-05
1.60768e-05
1.41324e-05
1.25121e-05
9.86706e-06
8.92041e-06
8.03369e-06
6.794e-06
5.83783e-06
5.37025e-06
4.76144e-06
4.32733e-06
4.12941e-06
3.98922e-06
3.80013e-06
3.73746e-06
3.61396e-06
3.58305e-06
3.56624e-06
0.174381
0.0486609
0.0189738
0.0059661
0.00299956
0.00111109
0.000634128
0.000414472
0.000236553
0.000154901
0.000112433
8.66722e-05
7.52841e-05
5.44282e-05
3.47108e-05
2.79118e-05
2.47168e-05
2.27386e-05
2.22375e-05
2.24038e-05
2.24783e-05
2.1331e-05
1.49587e-05
1.23314e-05
9.72124e-06
6.86357e-06
5.90499e-06
5.26114e-06
4.36e-06
3.84944e-06
3.51616e-06
3.36349e-06
3.09887e-06
2.99311e-06
2.81227e-06
2.75668e-06
2.70736e-06
0.17471
0.0987353
0.0494657
0.01481
0.00483845
0.00220216
0.00113528
0.000578037
0.000413084
0.000266493
0.000215374
0.000162511
0.000132361
9.48765e-05
7.90196e-05
6.88008e-05
6.42371e-05
6.30843e-05
6.93801e-05
7.75201e-05
8.92734e-05
9.16217e-05
4.80192e-05
2.7147e-05
1.60891e-05
8.83896e-06
6.93066e-06
5.87474e-06
4.29072e-06
3.78706e-06
3.27306e-06
3.13379e-06
2.78344e-06
2.64773e-06
2.38884e-06
2.31494e-06
2.22436e-06
0.306053
0.218895
0.12474
0.0418157
0.0194396
0.0136266
0.00636374
0.00476327
0.00348732
0.00287624
0.00271949
0.00220415
0.00183894
0.00143849
0.00125383
0.00115346
0.000946663
0.000848825
0.000830416
0.000769796
0.00075501
0.000768165
0.000449295
0.000171745
5.76159e-05
1.48442e-05
9.02948e-06
6.71119e-06
4.78095e-06
4.15366e-06
3.24728e-06
3.1646e-06
2.72097e-06
2.56557e-06
2.24288e-06
2.16606e-06
2.0398e-06
0.800925
0.435458
0.173033
0.0771783
0.0629158
0.0691336
0.0495324
0.043845
0.0354773
0.0315354
0.0305968
0.0256456
0.0208276
0.017297
0.0147963
0.0126164
0.0104329
0.00807784
0.00745663
0.00589699
0.00473253
0.00368369
0.0022964
0.0014919
0.000393587
4.08097e-05
1.22419e-05
8.03769e-06
6.5991e-06
5.76049e-06
4.04601e-06
3.90024e-06
3.17388e-06
2.8865e-06
2.59864e-06
2.5083e-06
2.20031e-06
3.12527
1.24954
0.376173
0.122437
0.0706478
0.0573184
0.0520328
0.0455516
0.0420722
0.0406759
0.0370283
0.0256676
0.015909
0.012739
0.0111549
0.00853218
0.00657701
0.00552205
0.00494682
0.0038434
0.00375263
0.00340136
0.00256158
0.0022026
0.0012409
8.18076e-05
1.24187e-05
8.21499e-06
7.64276e-06
6.76004e-06
6.48923e-06
6.22762e-06
5.63747e-06
5.28943e-06
4.96411e-06
4.79679e-06
4.25687e-06
2.61817
3.5488
0.753172
0.777412
0.771417
0.510848
0.318039
0.24553
0.188535
0.130442
0.112657
0.0741558
0.0224608
0.00627065
0.00125041
0.000324364
0.00031296
0.000338306
0.000368617
0.000384197
0.000411505
0.000432313
0.000446366
0.000471413
0.000484362
0.000504035
0.000517989
0.000537893
0.000557894
0.000577233
0.000597163
0.000615615
0.000634207
0.000655104
0.000674505
0.00068846
0.000700713
0.000705862
0.418771
0.525884
0.108155
0.102236
0.105802
0.0500377
0.051649
0.0470997
0.0465771
0.0444534
0.0382211
0.0170999
0.00503554
0.0019374
0.000819783
0.000515431
0.000390534
0.000356273
0.000332861
0.000336973
0.000339834
0.00035249
0.00036323
0.000376052
0.000394954
0.000403414
0.000428052
0.00044527
0.000465208
0.000488673
0.000513216
0.000540303
0.000567504
0.000603232
0.000640043
0.000660988
0.00068
0.0007089
0.262594
0.712367
0.128294
0.0168718
0.00822463
0.00530849
0.00266062
0.00247364
0.00302737
0.00307859
0.00226522
0.00116968
0.000638848
0.000416132
0.000329159
0.000222251
0.000180341
0.000154243
0.000140253
0.000135914
0.000133638
0.000134062
0.000134954
0.000138834
0.00014539
0.000148672
0.000161208
0.000171085
0.00018303
0.000201993
0.000218672
0.000239099
0.000258566
0.000278435
0.000294839
0.000307162
0.00031927
0.0464341
0.0558094
0.0209033
0.00706319
0.00362939
0.0019059
0.000906439
0.000609344
0.000520363
0.000415048
0.000321608
0.000283496
0.000221671
0.000162666
0.000133735
9.44006e-05
7.99089e-05
6.77611e-05
5.94141e-05
5.25752e-05
4.93087e-05
4.60613e-05
4.42542e-05
4.3645e-05
4.38792e-05
4.39744e-05
4.66108e-05
4.89461e-05
5.18088e-05
5.68603e-05
5.95771e-05
6.39184e-05
6.71581e-05
6.95426e-05
7.05494e-05
7.0633e-05
7.01115e-05
0.0244816
0.0170198
0.0131169
0.00734644
0.00300505
0.00159888
0.000849073
0.000561268
0.00041371
0.000286712
0.000212358
0.000156865
0.000119315
9.3972e-05
7.50881e-05
5.94573e-05
4.57207e-05
3.85893e-05
3.22645e-05
2.59697e-05
2.26121e-05
2.02303e-05
1.77415e-05
1.66048e-05
1.59837e-05
1.54419e-05
1.52605e-05
1.52739e-05
1.56562e-05
1.6077e-05
1.64662e-05
1.68188e-05
1.70595e-05
1.70912e-05
1.68084e-05
1.62319e-05
1.5624e-05
1.46556e-05
0.0239426
0.0118231
0.00791061
0.0041156
0.00218548
0.00108039
0.000568696
0.000380271
0.000288668
0.000237896
0.000165448
0.000122736
0.000101628
7.27971e-05
5.94682e-05
4.61191e-05
3.35306e-05
2.78779e-05
2.17174e-05
1.88051e-05
1.53677e-05
1.36805e-05
1.12434e-05
1.01913e-05
9.46907e-06
8.66921e-06
7.95034e-06
7.67087e-06
7.474e-06
7.30077e-06
7.28369e-06
7.26671e-06
7.2884e-06
7.28857e-06
7.18481e-06
7.06211e-06
6.9443e-06
6.67775e-06
0.0320244
0.0155331
0.0106105
0.00492089
0.00312156
0.00126057
0.000841107
0.000472253
0.000337841
0.000223394
0.000149633
0.000117603
9.07495e-05
6.89271e-05
5.39991e-05
3.73978e-05
2.99754e-05
2.39957e-05
1.97671e-05
1.77916e-05
1.52161e-05
1.32505e-05
1.0367e-05
9.21608e-06
8.26912e-06
7.07801e-06
6.1113e-06
5.68934e-06
5.23228e-06
4.79403e-06
4.61561e-06
4.51174e-06
4.38969e-06
4.34452e-06
4.21753e-06
4.1748e-06
4.13926e-06
0.0369238
0.0296626
0.014906
0.00487595
0.00222861
0.000998421
0.000626443
0.000415726
0.000285651
0.00019821
0.000147577
0.000114525
9.22515e-05
6.92497e-05
4.94892e-05
3.74731e-05
3.125e-05
2.65933e-05
2.47447e-05
2.41114e-05
2.36229e-05
2.19541e-05
1.645e-05
1.29442e-05
1.00244e-05
7.06418e-06
5.91212e-06
5.33906e-06
4.63612e-06
4.03789e-06
3.69554e-06
3.54152e-06
3.34606e-06
3.24744e-06
3.05104e-06
2.99084e-06
2.94833e-06
0.062652
0.0718006
0.0406905
0.0122889
0.00443639
0.0021097
0.00113688
0.000700008
0.000505977
0.000357631
0.000285301
0.000227192
0.000180624
0.000142895
0.000117072
9.66619e-05
8.2957e-05
7.76442e-05
7.9048e-05
8.5107e-05
9.53799e-05
9.80523e-05
6.6343e-05
3.70427e-05
2.00996e-05
9.8306e-06
6.84113e-06
5.76346e-06
4.54162e-06
3.91596e-06
3.36019e-06
3.165e-06
2.95053e-06
2.82243e-06
2.51442e-06
2.436e-06
2.37213e-06
0.139468
0.164776
0.10973
0.0382174
0.0202181
0.0133247
0.00731814
0.00579809
0.00443365
0.003689
0.00345264
0.00293316
0.00248432
0.00210123
0.00184425
0.00168373
0.00138013
0.0011419
0.00104979
0.000915902
0.000846988
0.000842336