/*--------------------------------*- C++ -*----------------------------------*\
| =========                 |                                                 |
| \\      /  F ield         | OpenFOAM: The Open Source CFD Toolbox           |
|  \\    /   O peration     | Version:  2.3.1                                 |
|   \\  /    A nd           | Web:      www.OpenFOAM.org                      |
|    \\/     M anipulation  |                                                 |
\*---------------------------------------------------------------------------*/
FoamFile
{
    version     2.0;
    format      ascii;
    class       volScalarField;
    location    "15";
    object      epsilon;
}
// * * * * * * * * * * * * * * * * * * * * * * * * * * * * * * * * * * * * * //

dimensions      [0 2 -3 0 0 0 0];

internalField   nonuniform List<scalar> 
37632
(
81.5227
49.7959
21.4079
7.52435
2.73402
1.76334
0.633678
0.406053
0.208203
0.179886
0.14567
0.100638
0.0716878
0.0674158
0.0644913
0.0392038
0.00387438
0.000238125
0.000138695
0.000148944
0.000147248
0.000149152
0.000155514
0.000152103
0.0001652
0.000169688
0.000173564
0.000183477
0.000206331
0.00022726
0.000246952
0.000258863
0.000272046
0.000285
0.000294321
0.000308397
0.000347828
0.00039784
26.0321
13.7244
3.98871
0.832884
0.262581
0.255064
0.0393946
0.0480295
0.0233413
0.0425043
0.0296401
0.0316436
0.0180212
0.0131085
0.00811432
0.00416369
0.000431437
0.000272205
0.000244904
0.000261289
0.000243595
0.000244033
0.000249739
0.000260177
0.000255346
0.000265003
0.000284017
0.000291869
0.000327789
0.000330062
0.000383454
0.000384237
0.000398125
0.000419961
0.00045364
0.000475455
0.000492967
0.000524713
16.9239
4.44173
1.15206
0.915259
0.156956
0.0698384
0.0143051
0.0093397
0.00182372
0.00118921
0.000967909
0.00115026
0.00140314
0.000871838
0.000394015
0.000342691
0.000152505
0.000135448
0.000120363
0.000112675
9.86296e-05
9.29727e-05
9.15153e-05
8.49305e-05
8.09676e-05
8.03453e-05
8.33363e-05
8.35136e-05
9.99944e-05
9.77519e-05
0.00012192
0.000118887
0.000156877
0.000174083
0.000177255
0.000180505
0.000190303
17.1469
2.18779
0.672565
0.121228
0.0473507
0.00898955
0.00313874
0.00112371
0.00100601
0.000561169
0.000394222
0.000353946
0.000239787
0.000222377
0.000173166
0.000146911
0.000123159
0.000111987
9.74407e-05
9.34483e-05
7.94878e-05
7.26409e-05
6.76223e-05
5.82256e-05
5.44912e-05
4.76893e-05
4.66286e-05
4.13539e-05
4.22119e-05
3.90973e-05
4.13429e-05
4.18912e-05
5.05795e-05
5.19722e-05
5.249e-05
5.67474e-05
5.9109e-05
16.5387
0.773261
0.275156
0.0432114
0.0203911
0.0102466
0.012041
0.00205848
0.00156169
0.000624734
0.000389481
0.000253786
0.000205925
0.00018798
0.000155612
0.000143117
0.000135514
0.000113697
0.000106253
8.84892e-05
8.01542e-05
7.58641e-05
6.42702e-05
5.78275e-05
5.24685e-05
4.38512e-05
4.10657e-05
3.44664e-05
3.26356e-05
2.8749e-05
2.7136e-05
2.65537e-05
2.62637e-05
2.56691e-05
2.61942e-05
2.75597e-05
2.73838e-05
2.78655e-05
16.7101
0.747175
0.27366
0.0565092
0.0394319
0.0112755
0.015251
0.00303191
0.0029299
0.00194166
0.000448455
0.000255031
0.000208144
0.000185661
0.000152885
0.000142403
0.000127236
0.000120582
0.000107917
8.92189e-05
8.30644e-05
7.5749e-05
6.70253e-05
6.07077e-05
5.20709e-05
4.36508e-05
4.04735e-05
3.33868e-05
3.14988e-05
2.75602e-05
2.48395e-05
2.31385e-05
2.12909e-05
2.07705e-05
2.07525e-05
2.13397e-05
2.26062e-05
2.43327e-05
16.4988
0.725891
0.0956289
0.0221195
0.0191582
0.00813688
0.00397803
0.00205636
0.00135141
0.0010385
0.000494643
0.000361856
0.000278098
0.000241635
0.000151819
0.000149019
0.000124581
0.000119042
0.000104007
9.63775e-05
7.87193e-05
7.30515e-05
6.96792e-05
5.7542e-05
5.40408e-05
4.36887e-05
4.01067e-05
3.29978e-05
3.06882e-05
2.76803e-05
2.42894e-05
2.30434e-05
1.95953e-05
1.87957e-05
1.75354e-05
1.68479e-05
1.67704e-05
16.9079
0.743101
0.102113
0.0814117
0.0371402
0.0185499
0.0158801
0.00788761
0.00451388
0.00365935
0.00207985
0.00127959
0.000695664
0.000239703
0.000143117
0.000130516
0.000127303
0.000104149
9.89778e-05
9.16592e-05
7.84553e-05
7.19837e-05
6.35827e-05
6.05293e-05
4.87998e-05
4.2437e-05
3.67496e-05
3.26028e-05
2.78194e-05
2.60436e-05
2.28297e-05
2.18541e-05
1.88649e-05
1.73006e-05
1.63584e-05
1.47273e-05
1.4114e-05
17.6722
0.849117
0.0994474
0.0695662
0.026129
0.0102458
0.00827558
0.00471884
0.00292228
0.00226771
0.00118508
0.00064625
0.000313082
0.000184813
0.000150345
0.000138067
0.000119504
0.000112124
9.68127e-05
9.69804e-05
8.74377e-05
8.53652e-05
6.40436e-05
5.67787e-05
4.81719e-05
4.13816e-05
3.19071e-05
2.98996e-05
2.50559e-05
2.4483e-05
2.08792e-05
2.01812e-05
1.70839e-05
1.63709e-05
1.46499e-05
1.35459e-05
1.2076e-05
18.86
1.51591
0.276403
0.127097
0.0635055
0.0579959
0.0299682
0.0116214
0.00534365
0.00319172
0.00219655
0.00181131
0.00084967
0.000276169
0.000169147
0.000182919
0.000175931
0.000207906
0.000195661
0.000224793
0.000228344
0.000224812
0.000145561
0.000104474
5.53021e-05
3.60745e-05
2.59467e-05
2.39922e-05
2.09621e-05
2.05095e-05
1.80194e-05
1.76994e-05
1.49294e-05
1.43109e-05
1.35307e-05
1.19149e-05
1.13423e-05
17.7524
1.74772
0.173844
0.0999372
0.0598646
0.0337796
0.0184332
0.00862027
0.00503418
0.00359624
0.0023994
0.0017407
0.000987501
0.000782696
0.00138036
0.00154973
0.00143288
0.00173859
0.00186425
0.00163578
0.00144655
0.000858297
0.00056884
0.00036246
0.000237675
7.06822e-05
1.61741e-05
1.64304e-05
1.48221e-05
1.46696e-05
1.39271e-05
1.33692e-05
1.1666e-05
1.12105e-05
1.07554e-05
9.41927e-06
9.2101e-06
13.5233
5.60175
1.39487
0.285489
0.0908311
0.0491975
0.0263659
0.014754
0.0103871
0.00955198
0.00851565
0.00534956
0.00275065
0.00223956
0.00217159
0.0017782
0.0015026
0.00128934
0.00119365
0.00112007
0.00106541
0.00118709
0.00112521
0.00107109
0.000965851
0.000398166
1.3201e-05
9.4529e-06
9.48114e-06
8.38471e-06
8.44357e-06
7.22436e-06
6.93304e-06
6.32266e-06
6.06374e-06
5.34504e-06
5.18011e-06
11.5518
16.6724
9.92359
4.38798
1.79445
1.00242
0.442915
0.233292
0.15
0.128741
0.0912143
0.0630961
0.0594637
0.0610935
0.0553502
0.0216994
0.00144279
0.000159674
0.000164654
0.000162381
0.000189846
0.000180989
0.000203138
0.000218862
0.000223049
0.000248992
0.000246025
0.000274064
0.000307096
0.000331185
0.000347624
0.000353591
0.000371318
0.00038243
0.000389673
0.000410034
0.000445966
0.000481617
27.7535
13.882
7.626
1.31535
0.42492
0.36761
0.0989107
0.0720808
0.0629195
0.0650695
0.0458653
0.0441325
0.0338763
0.0284655
0.0175288
0.00407227
0.000470261
0.000272349
0.000234078
0.00021815
0.000207424
0.00021396
0.000218439
0.000240194
0.00024722
0.000260119
0.000287475
0.000299499
0.000335871
0.000351945
0.000390497
0.000407107
0.000429672
0.00045134
0.000478322
0.000499331
0.000515204
0.000537165
26.6171
4.8355
1.11458
1.05785
0.237532
0.202552
0.0276564
0.00950669
0.00380007
0.00250123
0.00213838
0.00250791
0.00194469
0.00220462
0.00129499
0.000335858
0.000114625
8.4446e-05
6.77739e-05
5.83547e-05
5.46735e-05
5.33932e-05
5.31559e-05
5.65068e-05
5.62564e-05
6.09388e-05
6.81072e-05
7.59638e-05
8.82168e-05
9.96303e-05
0.000116451
0.000131222
0.000150459
0.000172932
0.000187319
0.000200722
0.000215637
30.1538
4.43227
0.939492
0.180396
0.0557352
0.0125794
0.00343262
0.00136441
0.000731616
0.000747023
0.000245046
0.000216675
0.000179096
0.000189594
0.000117145
7.23268e-05
4.80135e-05
4.19313e-05
4.04822e-05
2.94848e-05
2.58429e-05
2.33215e-05
2.17572e-05
2.15903e-05
2.01833e-05
2.07849e-05
2.00132e-05
2.26439e-05
2.27356e-05
2.6892e-05
2.83962e-05
3.54649e-05
3.88308e-05
4.7399e-05
5.04136e-05
5.58189e-05
6.06278e-05
24.6768
1.38007
0.269974
0.0610216
0.0391874
0.0111587
0.00770433
0.00139725
0.000893114
0.000712924
0.000207899
0.000148999
8.04444e-05
6.24244e-05
5.18025e-05
4.37309e-05
3.61813e-05
3.43501e-05
3.09261e-05
2.50377e-05
2.13311e-05
1.94925e-05
1.61808e-05
1.50814e-05
1.38338e-05
1.22783e-05
1.0781e-05
1.04711e-05
1.03956e-05
9.96787e-06
1.0999e-05
1.12072e-05
1.25718e-05
1.57812e-05
1.68872e-05
1.80341e-05
1.92464e-05
1.79317e-05
22.1182
1.1622
0.17121
0.0491594
0.0512694
0.0170144
0.00985313
0.00298126
0.00204052
0.00241955
0.000489832
0.000168589
0.000106708
6.3124e-05
5.67374e-05
4.399e-05
3.37645e-05
3.20215e-05
2.56503e-05
2.51029e-05
2.01722e-05
1.82113e-05
1.6298e-05
1.51994e-05
1.29047e-05
1.12766e-05
9.36763e-06
8.49859e-06
7.40283e-06
7.06789e-06
6.92374e-06
6.55246e-06
6.80547e-06
7.56683e-06
8.35596e-06
9.53995e-06
1.06253e-05
1.08571e-05
21.4174
0.987061
0.0634413
0.0203943
0.0135511
0.00483662
0.00836245
0.00187374
0.00143878
0.00119288
0.000255452
0.000147293
0.000109222
8.75012e-05
4.50886e-05
3.99876e-05
3.46963e-05
3.22144e-05
2.77722e-05
2.51544e-05
2.41651e-05
2.25344e-05
1.69846e-05
1.6134e-05
1.24622e-05
1.14331e-05
9.20768e-06
8.23739e-06
6.96067e-06
6.63697e-06
6.13896e-06
5.43936e-06
5.17982e-06
5.07178e-06
5.2314e-06
5.80397e-06
6.59763e-06
21.3216
1.04476
0.0859782
0.0410675
0.0331783
0.0106546
0.0111249
0.00494961
0.00319013
0.00339933
0.00227226
0.00123549
0.00106765
0.000201178
6.33745e-05
6.81396e-05
3.90755e-05
3.44289e-05
2.79104e-05
2.63561e-05
2.53303e-05
2.55295e-05
2.05614e-05
1.76665e-05
1.45437e-05
1.13122e-05
1.02288e-05
7.70416e-06
7.13139e-06
5.98156e-06
5.76577e-06
4.94016e-06
4.42956e-06
4.20829e-06
4.0337e-06
3.98856e-06
4.03883e-06
21.7319
1.20324
0.0951714
0.0604938
0.0220431
0.00554806
0.00289136
0.00176655
0.00144352
0.00111722
0.000856224
0.000443318
0.000311288
9.62074e-05
6.38664e-05
6.38347e-05
5.30618e-05
5.12751e-05
4.94634e-05
4.8228e-05
5.08104e-05
5.10578e-05
3.25596e-05
2.57047e-05
1.72794e-05
1.42216e-05
1.38293e-05
7.7931e-06
6.92435e-06
5.72302e-06
5.69489e-06
4.44927e-06
4.03221e-06
3.68388e-06
3.43303e-06
3.10543e-06
2.96269e-06
21.8826
1.55002
0.220759
0.116773
0.0601901
0.0445452
0.0165753
0.00599834
0.00330993
0.00227755
0.00213024
0.00177385
0.000955832
0.000390673
0.000229224
0.000222184
0.000242468
0.000304201
0.000326446
0.000366288
0.000394836
0.00041179
0.000187419
9.862e-05
4.59415e-05
1.89324e-05
1.60709e-05
7.83259e-06
5.82886e-06
5.03686e-06
4.68856e-06
4.00148e-06
3.43713e-06
3.254e-06
3.09126e-06
2.71119e-06
2.54583e-06
20.7599
1.35044
0.165925
0.0854956
0.0546709
0.0291601
0.0172072
0.0101768
0.00752001
0.00635968
0.00518863
0.00393216
0.00290995
0.00262364
0.00324628
0.00334704
0.00306659
0.00308429
0.00330199
0.00288677
0.00268773
0.00197006
0.00108098
0.000651087
0.000300992
4.45879e-05
1.22036e-05
6.93746e-06
4.96794e-06
4.55452e-06
3.87307e-06
3.2965e-06
3.06289e-06
2.80347e-06
2.70426e-06
2.40188e-06
2.19582e-06
10.1371
3.39518
0.772291
0.159468
0.0570906
0.0304782
0.0184358
0.0111487
0.00886853
0.00869866
0.0079727
0.00518766
0.00275096
0.00199807
0.00190874
0.00172827
0.00167874
0.00163134
0.00168797
0.00152279
0.0016029
0.00159226
0.00132007
0.00119836
0.000868554
0.000134111
6.33647e-06
5.5184e-06
5.44059e-06
4.91296e-06
4.58251e-06
4.42525e-06
3.87622e-06
3.69012e-06
3.52603e-06
3.12356e-06
3.00342e-06
6.46341
9.67294
6.27097
3.7222
1.94282
0.862077
0.441831
0.230449
0.170802
0.135963
0.0917355
0.0741374
0.0739889
0.0717677
0.0559565
0.0130613
0.000647752
0.000209155
0.000232757
0.000238999
0.000266728
0.000268703
0.000287421
0.000309425
0.000317121
0.000343844
0.000352254
0.000379242
0.000412697
0.000438569
0.000459231
0.000473613
0.000492141
0.000505658
0.00052142
0.000544491
0.000573037
0.000602321
6.22731
2.67739
0.86787
0.450494
0.381984
0.0993649
0.102943
0.0418338
0.0454946
0.0443637
0.0344584
0.0351548
0.0332332
0.0249502
0.0149821
0.00237352
0.000425183
0.000296947
0.000254239
0.000247499
0.000243917
0.000254467
0.000259472
0.000281982
0.000295287
0.000303304
0.000337102
0.000350909
0.000382399
0.000406391
0.000438787
0.00046482
0.000489226
0.000514738
0.000547196
0.000571716
0.000585574
0.000608238
7.15185
4.96073
0.561294
0.197503
0.127255
0.0885085
0.00735084
0.00418211
0.00190187
0.00218885
0.00187908
0.00223892
0.00175927
0.00193665
0.00102094
0.000246123
0.000126677
9.74941e-05
7.44348e-05
7.08948e-05
6.65096e-05
6.55263e-05
6.59656e-05
7.14936e-05
7.40771e-05
7.70728e-05
9.03133e-05
9.69349e-05
0.000111425
0.000128535
0.00014384
0.000163604
0.00018276
0.000206446
0.000225421
0.000241576
0.000257439
4.36751
2.64533
0.416628
0.0392896
0.0174897
0.0112457
0.00186727
0.000982878
0.000422392
0.000272645
0.000240612
0.000188145
0.000165477
0.000165066
9.89106e-05
5.72534e-05
4.37044e-05
3.40254e-05
3.00818e-05
2.47753e-05
2.33727e-05
2.08701e-05
1.99007e-05
1.94574e-05
1.91516e-05
1.90298e-05
2.02029e-05
2.16757e-05
2.35861e-05
2.75156e-05
2.93532e-05
3.52482e-05
3.85559e-05
4.38807e-05
4.74375e-05
5.10029e-05
5.36683e-05
4.76965
0.415587
0.0735477
0.0262335
0.00993121
0.00561988
0.00142667
0.000638625
0.000362669
0.000232315
0.000156457
0.000112405
6.25536e-05
4.89799e-05
3.696e-05
3.0614e-05
2.46701e-05
2.18666e-05
2.05215e-05
1.6907e-05
1.47927e-05
1.38039e-05
1.16397e-05
1.08445e-05
1.02653e-05
9.16126e-06
8.5293e-06
8.24881e-06
8.1613e-06
8.03389e-06
8.48724e-06
8.6676e-06
9.25839e-06
1.01912e-05
1.07585e-05
1.11245e-05
1.14743e-05
1.15031e-05
5.83442
0.358597
0.070632
0.0226082
0.00782679
0.00438783
0.00141317
0.00100998
0.000471708
0.000481793
0.000244155
7.72269e-05
4.95814e-05
3.98957e-05
3.05311e-05
2.68881e-05
2.09073e-05
1.92443e-05
1.69522e-05
1.61163e-05
1.33385e-05
1.21847e-05
1.04536e-05
9.5187e-06
8.66823e-06
7.58962e-06
6.53042e-06
5.96804e-06
5.36735e-06
5.10314e-06
4.97776e-06
4.85609e-06
4.87954e-06
5.09431e-06
5.3746e-06
5.73565e-06
6.19562e-06
6.34733e-06
6.45639
0.262867
0.0350219
0.014088
0.00767495
0.00233862
0.00190845
0.000709273
0.00039211
0.000318821
0.000109731
6.91271e-05
5.37482e-05
4.41251e-05
2.92613e-05
2.3188e-05
2.08236e-05
1.95125e-05
1.75736e-05
1.65564e-05
1.49447e-05
1.33869e-05
1.08225e-05
1.02055e-05
8.57791e-06
7.36568e-06
6.16063e-06
5.47611e-06
4.63882e-06
4.33012e-06
4.05122e-06
3.79149e-06
3.59742e-06
3.58383e-06
3.56889e-06
3.7661e-06
4.07465e-06
6.50533
0.337251
0.0422261
0.0145266
0.0126214
0.00388822
0.00167059
0.00113526
0.000469383
0.000395819
0.000238231
0.000175393
0.000153998
8.91536e-05
3.12839e-05
2.86586e-05
2.34996e-05
2.19794e-05
2.12638e-05
2.11076e-05
2.03583e-05
1.98843e-05
1.50854e-05
1.34447e-05
1.0562e-05
7.72036e-06
6.83842e-06
5.36286e-06
4.48017e-06
3.97989e-06
3.76813e-06
3.43554e-06
3.09242e-06
2.97505e-06
2.84041e-06
2.80764e-06
2.80334e-06
6.4844
0.381186
0.0759366
0.0394675
0.0123642
0.00256711
0.00124472
0.000679504
0.000410318
0.000298825
0.000196229
0.000152467
0.000101973
6.35282e-05
4.85842e-05
4.52248e-05
4.41043e-05
4.87647e-05
5.12926e-05
5.62424e-05
5.90998e-05
5.87487e-05
3.17275e-05
2.25704e-05
1.53636e-05
9.79971e-06
8.60602e-06
5.85249e-06
4.30647e-06
3.78391e-06
3.4961e-06
3.15722e-06
2.73224e-06
2.59035e-06
2.39581e-06
2.27345e-06
2.16112e-06
6.37803
0.655104
0.176802
0.0781541
0.0351641
0.0157743
0.00529738
0.00244251
0.00164056
0.0011879
0.00109827
0.000768431
0.000595383
0.00043752
0.000411214
0.000411191
0.000408522
0.000446417
0.000489956
0.000507658
0.000526792
0.000518876
0.000214698
9.17341e-05
4.01677e-05
1.27673e-05
1.08016e-05
7.22301e-06
4.30678e-06
3.81827e-06
3.28097e-06
3.04237e-06
2.53109e-06
2.36442e-06
2.23344e-06
2.04929e-06
1.88127e-06
5.51484
0.737408
0.168907
0.0629082
0.0414896
0.0352506
0.0274745
0.0177544
0.0146676
0.0135079
0.0126723
0.0103205
0.00837153
0.00702626
0.00653437
0.00567443
0.00495666
0.00438523
0.00456713
0.00371572
0.00348038
0.00254704
0.00140388
0.000675764
0.000260088
2.36404e-05
1.27719e-05
7.669e-06
4.99149e-06
4.12826e-06
3.69177e-06
2.96975e-06
2.68474e-06
2.37943e-06
2.32038e-06
2.04764e-06
1.79856e-06
8.40529
3.01739
0.694095
0.147754
0.0609735
0.036789
0.0285444
0.020194
0.0179112
0.017821
0.0165683
0.011242
0.00661896
0.00467201
0.00394382
0.00319142
0.0029202
0.00275255
0.00265864
0.0023084
0.00241099
0.00226561
0.00176697
0.0015528
0.000915342
4.54299e-05
7.47502e-06
6.55023e-06
6.14744e-06
5.99582e-06
5.37387e-06
5.24339e-06
4.64548e-06
4.38914e-06
4.26201e-06
3.7347e-06
3.56068e-06
3.316
6.21671
4.01979
2.84912
1.78017
0.756688
0.405061
0.229461
0.180637
0.134871
0.0934963
0.0868786
0.0791351
0.0612138
0.0291873
0.00328637
0.000309196
0.000256085
0.00028561
0.000295574
0.000326227
0.000335473
0.000351243
0.000376912
0.000387068
0.000413263
0.00042631
0.000452435
0.000480613
0.000504558
0.000526084
0.000544395
0.000563082
0.000580311
0.000601076
0.000621812
0.000643834
0.000663286
1.49425
1.98248
0.479126
0.260503
0.187021
0.0690139
0.0663038
0.0389821
0.0425508
0.0410413
0.0331799
0.0330312
0.0248672
0.0149984
0.00629829
0.00100958
0.000401967
0.00032388
0.000285207
0.000283021
0.000281495
0.000294545
0.000300316
0.000318995
0.000335865
0.000343254
0.000376269
0.000392093
0.000417947
0.000444605
0.000473967
0.000503767
0.000529029
0.000558552
0.000596075
0.00062077
0.000634069
0.000659164
2.06578
3.29136
0.630054
0.0657245
0.0344053
0.0270336
0.00352618
0.00224034
0.00198136
0.00200638
0.00186581
0.00205226
0.00141797
0.00112666
0.00054206
0.000217375
0.000147232
0.000117477
9.55084e-05
9.18408e-05
8.83437e-05
8.79382e-05
8.8034e-05
9.34196e-05
9.82177e-05
0.000101077
0.000115823
0.000123982
0.000137732
0.000157176
0.000171703
0.000192805
0.000213192
0.00023758
0.000257327
0.000273356
0.000288716
0.51905
0.626934
0.10667
0.015737
0.00878489
0.00828833
0.00133321
0.000789438
0.000380217
0.00028081
0.000238794
0.000223831
0.00018498
0.000140068
0.000100982
6.33857e-05
5.16946e-05
4.05545e-05
3.58684e-05
3.07419e-05
2.90101e-05
2.65213e-05
2.54915e-05
2.50967e-05
2.5118e-05
2.50541e-05
2.71268e-05
2.86845e-05
3.09898e-05
3.50568e-05
3.68493e-05
4.16566e-05
4.48032e-05
4.83623e-05
5.09469e-05
5.29795e-05
5.44215e-05
0.578728
0.102853
0.0365745
0.0136257
0.00620603
0.00262512
0.000951232
0.000521061
0.000322564
0.000207817
0.000157461
0.000109317
6.95519e-05
5.26473e-05
4.08733e-05
3.26351e-05
2.59551e-05
2.25944e-05
2.10216e-05
1.7103e-05
1.51551e-05
1.4081e-05
1.21091e-05
1.12965e-05
1.08504e-05
1.00232e-05
9.54238e-06
9.34984e-06
9.33536e-06
9.23717e-06
9.38897e-06
9.40787e-06
9.63959e-06
9.84542e-06
9.94034e-06
9.93034e-06
9.94356e-06
9.80885e-06
1.06536
0.0710779
0.0238435
0.0105173
0.00393095
0.00218556
0.000724246
0.000457612
0.000274122
0.000237212
0.000153038
7.15597e-05
5.10969e-05
3.88516e-05
3.05332e-05
2.6014e-05
2.01043e-05
1.81308e-05
1.60905e-05
1.50425e-05
1.26023e-05
1.15404e-05
9.73489e-06
8.86852e-06
8.22598e-06
7.2772e-06
6.35797e-06
5.90665e-06
5.46241e-06
5.16495e-06
5.06051e-06
4.89825e-06
4.85206e-06
4.85203e-06
4.89475e-06
4.95849e-06
5.05148e-06
5.04661e-06
1.35092
0.0640481
0.0219974
0.00853775
0.00478836
0.00161257
0.00110617
0.000484293
0.000289854
0.000187371
9.08758e-05
6.19014e-05
5.01482e-05
4.23994e-05
2.95936e-05
2.20245e-05
1.9561e-05
1.7797e-05
1.62515e-05
1.54796e-05
1.37389e-05
1.22761e-05
9.86961e-06
9.10582e-06
8.04111e-06
6.72702e-06
5.74401e-06
5.20291e-06
4.43261e-06
4.08412e-06
3.86481e-06
3.68931e-06
3.48423e-06
3.44273e-06
3.37435e-06
3.41026e-06
3.50243e-06
1.39232
0.103136
0.0262779
0.00804167
0.00491321
0.00151024
0.000749934
0.00051
0.000248852
0.000149263
0.000100287
7.81021e-05
7.07763e-05
6.25384e-05
2.84449e-05
2.39976e-05
2.22289e-05
2.10914e-05
2.09123e-05
2.10874e-05
2.09226e-05
2.01137e-05
1.45263e-05
1.25669e-05
9.87778e-06
6.94855e-06
6.07091e-06
5.18671e-06
4.17673e-06
3.739e-06
3.46188e-06
3.26433e-06
2.9617e-06
2.85783e-06
2.70618e-06
2.66087e-06
2.63269e-06
1.2087
0.158469
0.0611976
0.0206143
0.00633665
0.00224144
0.00126439
0.000513728
0.000369855
0.000203305
0.000164659
0.000120145
0.000100254
7.11838e-05
5.68831e-05
5.28178e-05
5.22615e-05
5.3037e-05
6.10456e-05
6.71602e-05
7.571e-05
7.62885e-05
3.74013e-05
2.29158e-05
1.54256e-05
8.81283e-06
7.2522e-06
5.86432e-06
4.07412e-06
3.63746e-06
3.23466e-06
3.0713e-06
2.64324e-06
2.51033e-06
2.30404e-06
2.22075e-06
2.11628e-06
1.34088
0.343534
0.142767
0.0531212
0.0213084
0.0127129
0.00538788
0.00344005
0.00244686
0.00197791
0.00190466
0.00141842
0.00114757
0.000844075
0.000763088
0.000717669
0.000640192
0.000618629
0.000649558
0.000634086
0.000660492
0.000668404
0.000308687
0.000111013
4.19142e-05
1.17092e-05
9.43224e-06
6.94167e-06
4.31053e-06
3.85106e-06
3.19336e-06
3.10909e-06
2.5223e-06
2.36125e-06
2.16644e-06
2.04768e-06
1.90565e-06
1.46295
0.53395
0.170075
0.0646079
0.0480074
0.0543692
0.03896
0.0314307
0.0254842
0.0230265
0.0225224
0.018343
0.0150985
0.0123539
0.0105556
0.00884938
0.00739561
0.0060272
0.00592954
0.00465131
0.00408133
0.0030661
0.0018769
0.000942256
0.000275727
2.04826e-05
1.30473e-05
7.89537e-06
5.5882e-06
4.85318e-06
3.85072e-06
3.67795e-06
2.82646e-06
2.5554e-06
2.47814e-06
2.26808e-06
1.97439e-06
5.50607
2.10267
0.518267
0.129188
0.0632845
0.0449968
0.0397444
0.0320946
0.0293902
0.0289219
0.026741
0.0184533
0.0112385
0.00866375
0.00718861
0.00543504
0.0044885
0.00401018
0.00370925
0.00303148
0.00307714
0.00283538
0.00216
0.00186584
0.000991515
2.93758e-05
8.90544e-06
7.42972e-06
6.81883e-06
6.51367e-06
6.15158e-06
5.80128e-06
5.16134e-06
4.99353e-06
4.61742e-06
4.4047e-06
3.96607e-06
3.24399
4.64117
2.05353
1.60124
1.29667
0.620945
0.352481
0.23197
0.187071
0.130556
0.103883
0.0918119
0.056287
0.0247344
0.00696208
0.000672751
0.00027992
0.00029972
0.000329701
0.000342354
0.000372796
0.000388461
0.000402828
0.000429613
0.000441969
0.000465123
0.000478974
0.00050197
0.000525524
0.000547152
0.000568302
0.000587646
0.000606567
0.000626588
0.000648344
0.000665728
0.000682061
0.000692482
0.70447
0.917638
0.289325
0.140912
0.1334
0.0538169
0.0544601
0.0425582
0.0444286
0.0413649
0.0368262
0.0286948
0.0130323
0.00556469
0.00191998
0.000622869
0.000394751
0.000343222
0.000311186
0.000312649
0.000312737
0.000326624
0.000334575
0.000349968
0.00036845
0.000376272
0.000404937
0.000422034
0.000444419
0.000470427
0.000497925
0.000526962
0.000553123
0.000586633
0.000625529
0.000648427
0.000663664
0.00069109
0.782383
2.12015
0.36822
0.036964
0.0138298
0.0105662
0.00286253
0.00225586
0.00231981
0.00249733
0.00196807
0.00180534
0.000954174
0.000590356
0.000362579
0.000224694
0.000164076
0.000136393
0.000118192
0.000113906
0.000111167
0.000111431
0.000111655
0.000116472
0.000122648
0.000125809
0.000140065
0.000149441
0.00016194
0.000181514
0.000196746
0.000218541
0.000239138
0.000261665
0.000280473
0.000295099
0.000309218
0.117851
0.232019
0.0512277
0.0105451
0.0059773
0.00381416
0.00104197
0.000628673
0.00046115
0.000329434
0.000268603
0.000264221
0.000201242
0.000143344
0.000114904
7.66186e-05
6.39676e-05
5.21754e-05
4.6221e-05
4.0443e-05
3.81499e-05
3.53204e-05
3.40235e-05
3.35853e-05
3.38367e-05
3.38853e-05
3.64256e-05
3.83848e-05
4.08853e-05
4.54483e-05
4.75425e-05
5.1976e-05
5.50295e-05
5.78093e-05
5.93667e-05
6.02028e-05
6.05686e-05
0.0816037
0.0419768
0.0205843
0.0115541
0.00421511
0.00191409
0.000870056
0.00052221
0.000369284
0.000238588
0.000179902
0.00012795
9.18868e-05
6.91602e-05
5.46611e-05
4.28705e-05
3.32655e-05
2.85203e-05
2.52219e-05
2.0302e-05
1.8062e-05
1.64328e-05
1.43448e-05
1.34206e-05
1.29454e-05
1.22668e-05
1.19297e-05
1.18209e-05
1.19546e-05
1.20162e-05
1.21968e-05
1.22845e-05
1.23673e-05
1.23179e-05
1.20924e-05
1.1688e-05
1.13504e-05
1.07706e-05
0.128193
0.0250553
0.0130981
0.00581359
0.00295314
0.00144358
0.000617637
0.00039606
0.000266334
0.000224735
0.000140341
9.12422e-05
7.31e-05
5.11963e-05
4.13215e-05
3.28994e-05
2.44293e-05
2.1137e-05
1.77459e-05
1.60528e-05
1.34632e-05
1.22157e-05
1.0156e-05
9.24885e-06
8.62524e-06
7.77759e-06
6.9452e-06
6.58907e-06
6.27824e-06
5.98697e-06
5.90656e-06
5.75727e-06
5.67905e-06
5.61227e-06
5.50051e-06
5.40638e-06
5.34763e-06
5.18133e-06
0.172186
0.0266411
0.0151969
0.00629868
0.00422149
0.00136909
0.000931292
0.000457449
0.000287459
0.000189881
0.000111956
8.41265e-05
6.53846e-05
5.09258e-05
3.81957e-05
2.68887e-05
2.25977e-05
1.94742e-05
1.71649e-05
1.60801e-05
1.41338e-05
1.25084e-05
9.86967e-06
8.9258e-06
8.03576e-06
6.79272e-06
5.83784e-06
5.37001e-06
4.76034e-06
4.32712e-06
4.12952e-06
3.98929e-06
3.80038e-06
3.73775e-06
3.61429e-06
3.58342e-06
3.56656e-06
0.174202
0.0483798
0.0189176
0.00594602
0.00299119
0.00110804
0.000633673
0.000414418
0.0002365
0.000154966
0.000112467
8.6682e-05
7.52798e-05
5.44056e-05
3.46823e-05
2.78952e-05
2.47048e-05
2.27319e-05
2.22337e-05
2.23994e-05
2.24703e-05
2.13054e-05
1.49576e-05
1.23446e-05
9.72491e-06
6.86423e-06
5.90702e-06
5.26101e-06
4.35878e-06
3.84888e-06
3.51614e-06
3.3635e-06
3.09896e-06
2.99322e-06
2.81248e-06
2.75698e-06
2.70759e-06
0.175673
0.0975416
0.0490174
0.0147106
0.00481538
0.00219243
0.00113329
0.000577265
0.000412773
0.000266355
0.000215305
0.000162366
0.000132205
9.47409e-05
7.89047e-05
6.87034e-05
6.41586e-05
6.30201e-05
6.93426e-05
7.74959e-05
8.91514e-05
9.14342e-05
4.79781e-05
2.71613e-05
1.61012e-05
8.84349e-06
6.93622e-06
5.87462e-06
4.28996e-06
3.78624e-06
3.27309e-06
3.13384e-06
2.78351e-06
2.64783e-06
2.38906e-06
2.31527e-06
2.22453e-06
0.309648
0.217935
0.12363
0.0415243
0.0193306
0.0135244
0.00632496
0.00473617
0.00346981
0.00286472
0.00271147
0.00219895
0.00183339
0.00143377
0.00125042
0.00115056
0.000944751
0.000847482
0.000829334
0.000769147
0.00075426
0.000767048
0.00044905
0.000171808
5.7702e-05
1.48594e-05
9.03755e-06
6.71199e-06
4.78051e-06
4.152e-06
3.24744e-06
3.16483e-06
2.72101e-06
2.56571e-06
2.24313e-06
2.16646e-06
2.03993e-06
0.827512
0.435315
0.173224
0.0772549
0.06264
0.0685962
0.0491379
0.0434965
0.0352179
0.031333
0.0304435
0.0255626
0.020761
0.0172292
0.0147449
0.0125833
0.0104138
0.00806587
0.00744486
0.00589256
0.00472615
0.00368555
0.0022959
0.00149261
0.000394415
4.08196e-05
1.22498e-05
8.03899e-06
6.60082e-06
5.75734e-06
4.04659e-06
3.90064e-06
3.17364e-06
2.88699e-06
2.59906e-06
2.50873e-06
2.20035e-06
3.35321
1.32818
0.389568
0.123632
0.0701818
0.05677
0.0515263
0.0450758
0.041609
0.0402678
0.0367565
0.0256515
0.015896
0.0127039
0.0111277
0.00852014
0.00656925
0.0055144
0.00494554
0.00384195
0.00375011
0.00339945
0.00256003
0.00220154
0.00124307
8.19468e-05
1.24311e-05
8.21538e-06
7.64227e-06
6.75997e-06
6.48999e-06
6.22799e-06
5.63759e-06
5.28968e-06
4.96451e-06
4.79687e-06
4.25727e-06
2.55556
3.47707
0.800303
0.809991
0.79765
0.522362
0.319006
0.243628
0.188605
0.130431
0.11245
0.0755652
0.0233017
0.00651702
0.0013231
0.000328294
0.000312118
0.000337702
0.000367999
0.000383592
0.000410974
0.000431773
0.000445841
0.000470871
0.000483795
0.000503441
0.000517361
0.000537227
0.000557187
0.0005765
0.000596407
0.000614837
0.000633405
0.000654278
0.000673679
0.000687642
0.00069992
0.000705095
0.403409
0.528855
0.110111
0.107941
0.108071
0.0506046
0.0517809
0.0471638
0.0467921
0.0444006
0.0384757
0.0177739
0.00523411
0.0019953
0.000838338
0.000519706
0.00039218
0.000356768
0.000332889
0.000336796
0.000339524
0.000352096
0.000362778
0.000375571
0.000394406
0.000402841
0.000427445
0.00044462
0.000464532
0.000487964
0.000512463
0.000539506
0.000566659
0.000602324
0.000639103
0.000660063
0.000679062
0.000707946
0.262583
0.737481
0.13078
0.0171613
0.00833797
0.00534158
0.0026587
0.00247173
0.00302538
0.0030852
0.00230438
0.00120476
0.000647495
0.000420268
0.000331245
0.000223901
0.00018119
0.000154618
0.000140385
0.00013594
0.000133615
0.000133992
0.00013486
0.00013872
0.00014524
0.000148507
0.000161024
0.00017087
0.0001828
0.000201734
0.00021838
0.000238782
0.000258227
0.000278074
0.000294467
0.000306792
0.000318901
0.0460724
0.0570655
0.0206632
0.00705519
0.00364051
0.00191536
0.000908257
0.00061133
0.000522245
0.000415823
0.000322649
0.000285553
0.000222596
0.000163428
0.00013441
9.47368e-05
8.01391e-05
6.78618e-05
5.94691e-05
5.26051e-05
4.93257e-05
4.60622e-05
4.42484e-05
4.36345e-05
4.38579e-05
4.3949e-05
4.65813e-05
4.89088e-05
5.17699e-05
5.68132e-05
5.95255e-05
6.38646e-05
6.71022e-05
6.94866e-05
7.04947e-05
7.05836e-05
7.00672e-05
0.0243168
0.0171797
0.0130386
0.00735703
0.00300243
0.00159411
0.000848748
0.000562009
0.000414858
0.000287488
0.000213286
0.000157269
0.000119467
9.40892e-05
7.51622e-05
5.94912e-05
4.5765e-05
3.86248e-05
3.22843e-05
2.59804e-05
2.26233e-05
2.02351e-05
1.77442e-05
1.66068e-05
1.59837e-05
1.54399e-05
1.52582e-05
1.52712e-05
1.56533e-05
1.60739e-05
1.64629e-05
1.68159e-05
1.7057e-05
1.70887e-05
1.68064e-05
1.62306e-05
1.56232e-05
1.46552e-05
0.0237428
0.011876
0.00790448
0.00412032
0.0021864
0.00108245
0.000570166
0.000381234
0.000289157
0.000238072
0.000165598
0.000122821
0.000101678
7.2817e-05
5.948e-05
4.61077e-05
3.35331e-05
2.78859e-05
2.17246e-05
1.88099e-05
1.53698e-05
1.36802e-05
1.12451e-05
1.01952e-05
9.47138e-06
8.66821e-06
7.95002e-06
7.67078e-06
7.47349e-06
7.3009e-06
7.28399e-06
7.26723e-06
7.2891e-06
7.28931e-06
7.18556e-06
7.06302e-06
6.94514e-06
6.67848e-06
0.0319781
0.0155049
0.0106385
0.00490666
0.00310733
0.00125872
0.00084125
0.000472579
0.000338286
0.000223502
0.000149735
0.000117658
9.0739e-05
6.89382e-05
5.3977e-05
3.73806e-05
2.99687e-05
2.39901e-05
1.9769e-05
1.77944e-05
1.52172e-05
1.32469e-05
1.0369e-05
9.22121e-06
8.27179e-06
7.07718e-06
6.11154e-06
5.68948e-06
5.23129e-06
4.79383e-06
4.61585e-06
4.51205e-06
4.39014e-06
4.34499e-06
4.21809e-06
4.17545e-06
4.13986e-06
0.0369251
0.029477
0.014881
0.00486254
0.00222347
0.000996617
0.000626202
0.000415718
0.000285733
0.000198295
0.000147626
0.000114545
9.22536e-05
6.92388e-05
4.94406e-05
3.74529e-05
3.12357e-05
2.65852e-05
2.47392e-05
2.41045e-05
2.36107e-05
2.19345e-05
1.64473e-05
1.29577e-05
1.00306e-05
7.06531e-06
5.91337e-06
5.33948e-06
4.63496e-06
4.03699e-06
3.69555e-06
3.54164e-06
3.34625e-06
3.24758e-06
3.05134e-06
2.99125e-06
2.94868e-06
0.062648
0.0710692
0.0404832
0.0122285
0.00441867
0.00210253
0.00113528
0.00069924
0.000505572
0.000357414
0.000285144
0.000227015
0.000180429
0.000142678
0.000116894
9.65133e-05
8.28586e-05
7.75697e-05
7.89968e-05
8.5062e-05
9.52456e-05
9.78758e-05
6.63399e-05
3.70745e-05
2.01174e-05
9.83816e-06
6.84554e-06
5.76439e-06
4.54077e-06
3.91458e-06
3.36016e-06
3.16519e-06
2.95074e-06
2.82242e-06
2.51464e-06
2.43638e-06
2.37237e-06
0.140597
0.163866
0.108882
0.0380326
0.0200994
0.0132262
0.00727733
0.00576722
0.00441186
0.00367418
0.00344194
0.00292649
0.0024776
0.00209422
0.00183893
0.00167945
0.00137738