/*--------------------------------*- C++ -*----------------------------------*\
| =========                 |                                                 |
| \\      /  F ield         | OpenFOAM: The Open Source CFD Toolbox           |
|  \\    /   O peration     | Version:  2.3.1                                 |
|   \\  /    A nd           | Web:      www.OpenFOAM.org                      |
|    \\/     M anipulation  |                                                 |
\*---------------------------------------------------------------------------*/
FoamFile
{
    version     2.0;
    format      ascii;
    class       volScalarField;
    location    "15";
    object      k;
}
// * * * * * * * * * * * * * * * * * * * * * * * * * * * * * * * * * * * * * //

dimensions      [0 2 -2 0 0 0 0];

internalField   nonuniform List<scalar> 
37632
(
1.09772
0.785078
0.452803
0.226359
0.115341
0.0859721
0.043654
0.0322766
0.0204587
0.0184487
0.0160807
0.0126223
0.0100225
0.00958272
0.00932789
0.00685958
0.00151709
0.000230835
0.00015588
0.000163284
0.000162073
0.000163501
0.000168125
0.000165657
0.000175037
0.000178168
0.000180874
0.000187686
0.000202957
0.000216461
0.000228799
0.000236099
0.000244051
0.000251747
0.00025721
0.000265322
0.000287421
0.000314355
0.501464
0.339131
0.148816
0.0512021
0.0238057
0.0235996
0.00676039
0.00773242
0.00475248
0.00709306
0.00556872
0.00583549
0.0040228
0.00326203
0.00236615
0.00156585
0.000342599
0.000244162
0.000227483
0.000237671
0.000226801
0.000227105
0.000230631
0.000236968
0.00023401
0.000239889
0.000251217
0.000255825
0.000276395
0.000277673
0.000306849
0.000307231
0.00031462
0.000326007
0.000343198
0.000354131
0.000362768
0.000378159
0.374557
0.160445
0.0639938
0.0540576
0.0164907
0.0100602
0.00347809
0.00260765
0.000877244
0.000653675
0.000569086
0.000641423
0.000732285
0.000533123
0.000315966
0.000291799
0.000166512
0.000153642
0.00014193
0.000135724
0.000124172
0.0001194
0.000118147
0.000112384
0.000108866
0.000108308
0.000110973
0.000111136
0.000125297
0.000123407
0.000142982
0.000140602
0.000169194
0.000181305
0.000183494
0.000185744
0.0001924
0.374745
0.0972494
0.0437974
0.0142698
0.00747914
0.00255656
0.00124947
0.000632525
0.000586452
0.000396879
0.000312842
0.000290849
0.000224768
0.000213989
0.000181045
0.000162423
0.000144028
0.00013515
0.000123199
0.000119829
0.000107531
0.000101289
9.65592e-05
8.73973e-05
8.36184e-05
7.65109e-05
7.537e-05
6.95733e-05
7.05307e-05
6.70128e-05
6.95557e-05
7.01787e-05
7.95539e-05
8.09945e-05
8.15337e-05
8.58902e-05
8.82405e-05
0.366426
0.0480342
0.0240923
0.00714651
0.0043832
0.00275468
0.00307024
0.000943568
0.000783383
0.000425469
0.000310721
0.000233184
0.000202947
0.000190949
0.000168348
0.000159226
0.00015346
0.000136521
0.000130502
0.000115517
0.000108164
0.000104267
9.33377e-05
8.70091e-05
8.1534e-05
7.23481e-05
6.92506e-05
6.16201e-05
5.94205e-05
5.46029e-05
5.25431e-05
5.17882e-05
5.14044e-05
5.06263e-05
5.13174e-05
5.30801e-05
5.28512e-05
5.34753e-05
0.369259
0.0472741
0.0243112
0.00853056
0.00676181
0.0029245
0.00359068
0.00121723
0.00118906
0.000902951
0.00033991
0.000233986
0.000204381
0.000189371
0.000166364
0.000158718
0.000147223
0.000142011
0.000131825
0.000116155
0.000110777
0.000104164
9.60126e-05
8.98712e-05
8.11241e-05
7.21277e-05
6.85821e-05
6.0329e-05
5.80371e-05
5.30864e-05
4.95346e-05
4.72473e-05
4.46975e-05
4.39676e-05
4.39418e-05
4.47652e-05
4.65186e-05
4.88567e-05
0.365745
0.0463093
0.012225
0.00457201
0.0041746
0.00234546
0.00146132
0.000938925
0.000710516
0.00059598
0.000363645
0.000295635
0.000248116
0.000225761
0.000165607
0.000163583
0.000145141
0.000140828
0.000128674
0.000122277
0.00010687
0.0001017
9.85331e-05
8.67258e-05
8.31649e-05
7.21678e-05
6.81655e-05
5.98597e-05
5.70371e-05
5.32405e-05
4.88011e-05
4.7116e-05
4.22922e-05
4.11366e-05
3.92729e-05
3.82409e-05
3.81237e-05
0.371734
0.0473832
0.0126561
0.0108384
0.00641699
0.00404903
0.00367141
0.00229747
0.00158654
0.00137891
0.000945956
0.000684526
0.000456564
0.0002243
0.000159269
0.000149767
0.000147264
0.000128833
0.000124552
0.000118293
0.000106636
0.000100696
9.27151e-05
8.97185e-05
7.76933e-05
7.07947e-05
6.43064e-05
5.93767e-05
5.3419e-05
5.11228e-05
4.68272e-05
4.54839e-05
4.12308e-05
3.89237e-05
3.7496e-05
3.49608e-05
3.39837e-05
0.38099
0.0519389
0.0123652
0.00973842
0.00506558
0.00273085
0.00237828
0.00163065
0.00118674
0.00100265
0.000650623
0.000434288
0.000268184
0.000188812
0.00016454
0.000155411
0.000141181
0.000135274
0.000122719
0.000122872
0.000114645
0.000112807
9.31502e-05
8.59913e-05
7.70585e-05
6.9612e-05
5.85306e-05
5.6051e-05
4.98237e-05
4.90623e-05
4.41191e-05
4.31301e-05
3.85972e-05
3.75179e-05
3.48369e-05
3.30638e-05
3.06288e-05
0.403371
0.0771425
0.0246585
0.0146259
0.00919146
0.00867319
0.00560984
0.00298678
0.0017773
0.00125837
0.000980199
0.000862593
0.00052123
0.000246506
0.000177952
0.000187466
0.000182642
0.000204103
0.000195975
0.000215081
0.000217318
0.000215226
0.000161016
0.000129046
8.45118e-05
6.35674e-05
5.09707e-05
4.84022e-05
4.42353e-05
4.35974e-05
3.99932e-05
3.95164e-05
3.52788e-05
3.4301e-05
3.3039e-05
3.03544e-05
2.9375e-05
0.388026
0.0863953
0.0180372
0.0124199
0.00882242
0.00604792
0.00405429
0.00244364
0.00170576
0.00136199
0.00104083
0.000840927
0.000576233
0.000493611
0.000720692
0.000778359
0.000738783
0.000841156
0.000880423
0.000807324
0.000744029
0.000525499
0.0003994
0.000295633
0.000223635
9.99454e-05
3.72121e-05
3.75988e-05
3.51064e-05
3.48684e-05
3.36823e-05
3.2773e-05
2.99295e-05
2.91476e-05
2.83501e-05
2.59524e-05
2.55676e-05
0.32782
0.186736
0.0754354
0.0262558
0.0118831
0.00780967
0.00514114
0.00348172
0.00274935
0.00259791
0.00240996
0.00177552
0.00113942
0.000992917
0.000973296
0.000853054
0.000762524
0.000688829
0.000654397
0.000627281
0.000606512
0.000651763
0.00062904
0.000608677
0.000568561
0.00031643
3.26862e-05
2.60099e-05
2.60634e-05
2.4015e-05
2.41275e-05
2.17444e-05
2.11571e-05
1.9896e-05
1.93485e-05
1.77883e-05
1.74209e-05
0.464643
0.594337
0.429725
0.249367
0.137447
0.0938835
0.0547171
0.0353853
0.0260144
0.0234771
0.018764
0.0146228
0.0139687
0.0142419
0.0134212
0.00745026
0.00126095
0.000275577
0.00027694
0.000274472
0.000304738
0.000295191
0.000318919
0.000335134
0.000339411
0.000365218
0.000362294
0.000389334
0.000419992
0.000441685
0.000456216
0.000461415
0.000476712
0.000486202
0.000492309
0.000509263
0.000538568
0.000566907
0.730239
0.462753
0.345244
0.10844
0.0512013
0.0421817
0.0187762
0.0153784
0.0165792
0.016807
0.0130616
0.0125031
0.0100158
0.00832347
0.00569791
0.002186
0.000616468
0.000470317
0.000424799
0.000403204
0.000412719
0.000410049
0.000433905
0.000466861
0.000476093
0.000492882
0.000543366
0.000562107
0.000620202
0.000642803
0.000699737
0.000720478
0.000745403
0.000770758
0.000800253
0.000820626
0.000832684
0.000852548
0.775409
0.206013
0.0946753
0.0971022
0.0360317
0.0284916
0.00850351
0.00358486
0.00208664
0.00143901
0.00128864
0.00141693
0.0010688
0.00109462
0.000810104
0.000425616
0.0002468
0.000220461
0.000185207
0.000184101
0.000172763
0.000171604
0.00016912
0.00017691
0.000173502
0.000183628
0.000199459
0.000212988
0.000245236
0.000264752
0.000306448
0.000334302
0.000380342
0.000423975
0.000443832
0.000464419
0.000484604
0.853248
0.187969
0.0562282
0.0276211
0.0150155
0.00601661
0.0029357
0.00159115
0.00104349
0.000999269
0.000455734
0.000379676
0.000298567
0.000289538
0.000268259
0.000198651
0.000183498
0.000157415
0.000145585
0.000143023
0.000124375
0.000115696
0.000111142
0.000109614
0.000102211
0.000101691
9.61769e-05
0.000101404
9.9141e-05
0.000108692
0.000109576
0.000127923
0.000135533
0.000152629
0.000157434
0.000168824
0.00017534
0.744521
0.0800476
0.0291708
0.0131013
0.0111434
0.00578124
0.00497994
0.00170978
0.00124187
0.0010877
0.000561554
0.000403421
0.00027813
0.000225916
0.000210728
0.000179294
0.000171931
0.000165317
0.000145939
0.000136879
0.000126937
0.000111702
0.000105968
0.000100171
9.35516e-05
8.63335e-05
7.63258e-05
7.24722e-05
6.81393e-05
6.84406e-05
6.54633e-05
6.8589e-05
6.91326e-05
7.55272e-05
7.63748e-05
7.91841e-05
8.08798e-05
7.7209e-05
0.71278
0.067533
0.0209138
0.010786
0.0127404
0.00700832
0.0052449
0.00189066
0.00153445
0.00158479
0.000594132
0.000407637
0.000340747
0.000230112
0.000214442
0.000173274
0.000173018
0.000150594
0.000141141
0.000136663
0.000125289
0.000113943
0.000111145
0.000108578
9.77368e-05
8.42607e-05
7.72624e-05
7.14441e-05
6.39641e-05
6.21154e-05
5.83838e-05
5.52581e-05
5.46202e-05
5.50203e-05
5.58602e-05
5.80723e-05
5.95374e-05
5.9458e-05
0.702853
0.0578939
0.0103819
0.0067217
0.00532523
0.00357293
0.00417806
0.00153103
0.00128219
0.00106796
0.000566623
0.000459046
0.000384136
0.00034323
0.000191741
0.000181809
0.00016888
0.000155523
0.00015129
0.000136979
0.000133922
0.00012049
0.000113766
0.000111717
9.92619e-05
8.56417e-05
8.03169e-05
7.23265e-05
6.43474e-05
6.25236e-05
5.86828e-05
5.28043e-05
5.07175e-05
4.77122e-05
4.75022e-05
4.73837e-05
4.81317e-05
0.706659
0.0673082
0.0168672
0.0123757
0.00925902
0.00472535
0.00494856
0.00289981
0.00202551
0.00193578
0.00144239
0.000950089
0.000806097
0.0003146
0.000206506
0.000236293
0.000164941
0.00015459
0.000134356
0.000126627
0.000123483
0.000123416
0.000116062
0.000114431
0.000110995
9.09429e-05
8.48174e-05
7.15617e-05
6.50962e-05
6.02442e-05
5.68105e-05
5.23469e-05
4.86333e-05
4.5293e-05
4.37821e-05
4.20969e-05
4.10293e-05
0.718935
0.0807258
0.0187005
0.0134039
0.00588609
0.00289815
0.00179463
0.00127079
0.00105331
0.000827078
0.000676859
0.000442924
0.000355228
0.000229858
0.000197355
0.000192531
0.000157877
0.000146933
0.000139995
0.000130512
0.000132078
0.000128772
0.000114131
0.000106951
0.000104507
0.000102898
9.15179e-05
6.96817e-05
6.33514e-05
5.6883e-05
5.5555e-05
4.82294e-05
4.5833e-05
4.1662e-05
4.05445e-05
3.69573e-05
3.52068e-05
0.727678
0.110614
0.038663
0.024847
0.0153668
0.0124127
0.00585851
0.00316445
0.00198827
0.00148161
0.00137068
0.00120493
0.000815458
0.000439989
0.000308944
0.000334517
0.000345197
0.000411795
0.000428559
0.000463177
0.000473431
0.000465833
0.000257315
0.00016597
0.000127005
0.000104928
0.000100281
6.10324e-05
5.4055e-05
4.7993e-05
4.63712e-05
4.09219e-05
3.85295e-05
3.57982e-05
3.55297e-05
3.24704e-05
3.08065e-05
0.699036
0.103679
0.0292389
0.02035
0.0123302
0.00926359
0.00809704
0.00512245
0.00400844
0.00352259
0.00299955
0.00251492
0.00200224
0.00186796
0.00243128
0.0025917
0.00247563
0.00255264
0.0027155
0.00248123
0.00231435
0.00165887
0.00100723
0.000669516
0.000375084
0.000122257
5.81814e-05
3.92858e-05
3.47422e-05
3.21083e-05
3.1852e-05
2.88505e-05
2.79737e-05
2.61381e-05
2.6239e-05
2.44625e-05
2.30682e-05
0.432021
0.212391
0.0807954
0.028083
0.013797
0.0090076
0.00642125
0.0045792
0.00391919
0.00386861
0.00365632
0.00276023
0.00180948
0.00146169
0.00141899
0.00132878
0.00130327
0.00127908
0.00130908
0.00122224
0.00126394
0.0012585
0.00111087
0.00104164
0.000841813
0.00024414
3.16409e-05
2.88429e-05
2.85726e-05
2.66928e-05
2.54834e-05
2.48959e-05
2.27917e-05
2.20579e-05
2.13975e-05
1.97372e-05
1.92283e-05
0.310361
0.413783
0.315218
0.222543
0.145477
0.0855072
0.0545889
0.0349801
0.0283537
0.0244184
0.0188266
0.0162082
0.0161731
0.0158854
0.0136244
0.00542767
0.000736861
0.000326033
0.000348913
0.000355232
0.000382293
0.000384196
0.000401924
0.000422169
0.000429145
0.000452913
0.000460254
0.000483469
0.00051148
0.000532638
0.000549257
0.000560662
0.000575199
0.000585694
0.000597795
0.000615284
0.000636599
0.000658124
0.299959
0.202639
0.0946161
0.0597278
0.0517007
0.0194948
0.0190752
0.0102245
0.0123282
0.0130007
0.0105469
0.0106799
0.00996641
0.00758852
0.00528071
0.0017835
0.000704745
0.000592182
0.000540289
0.000534752
0.000537096
0.000552086
0.00056545
0.000604518
0.000626397
0.000642394
0.000699208
0.000724353
0.000776855
0.000809889
0.000854307
0.000885321
0.000913814
0.000945128
0.000983079
0.00101023
0.00102455
0.00104762
0.352583
0.231685
0.0648126
0.0348837
0.0253755
0.0166069
0.00414956
0.00268152
0.00146426
0.00147331
0.00132916
0.00142387
0.0011012
0.00109742
0.000813389
0.000465354
0.000340571
0.000297663
0.000250846
0.000246165
0.000233622
0.000229645
0.000229287
0.00023943
0.000243004
0.000249535
0.000278546
0.000293306
0.000330604
0.000371639
0.000412895
0.000455847
0.000498412
0.000543347
0.000570965
0.000595212
0.000616881
0.206763
0.136252
0.0333797
0.013001
0.00959082
0.00883063
0.00270747
0.00183353
0.000947216
0.000638378
0.000556895
0.000412641
0.000381741
0.000342886
0.000292342
0.00023627
0.000213885
0.000184589
0.000173488
0.000157051
0.000151935
0.000139401
0.000132779
0.000127644
0.000123599
0.000119169
0.00011782
0.000117765
0.000121744
0.000130346
0.000133769
0.000147923
0.000156319
0.000168085
0.000175001
0.000182683
0.000186948
0.230069
0.0367199
0.0150052
0.00968207
0.00628684
0.00539072
0.00221623
0.00138491
0.000963024
0.000700958
0.000589408
0.00045339
0.000301589
0.000251728
0.000221289
0.000196982
0.000178149
0.000167645
0.000163115
0.000149914
0.000138883
0.000133742
0.000120649
0.000114638
0.000110218
0.000100116
9.25861e-05
8.5971e-05
8.22179e-05
7.82817e-05
7.67948e-05
7.47797e-05
7.44369e-05
7.55078e-05
7.59438e-05
7.62034e-05
7.63959e-05
7.58275e-05
0.288617
0.0347319
0.0171665
0.00784967
0.00478052
0.00428054
0.00198175
0.0014287
0.000883698
0.000810143
0.000564644
0.000364363
0.000280879
0.000249279
0.000208414
0.000193391
0.000174696
0.000166856
0.000158292
0.000154278
0.000140797
0.000132882
0.00012435
0.000117788
0.000111315
9.99354e-05
9.15854e-05
8.37755e-05
7.67449e-05
7.22151e-05
6.91374e-05
6.53025e-05
6.27598e-05
6.16428e-05
6.09258e-05
6.07413e-05
6.12021e-05
6.08383e-05
0.315866
0.0272499
0.0092568
0.00603191
0.00448969
0.00301289
0.00247485
0.00131
0.000867582
0.000725339
0.000455784
0.000365582
0.000306341
0.000276946
0.000209118
0.000181682
0.000171376
0.000165634
0.000159886
0.000152658
0.000145806
0.000136382
0.000128304
0.000126187
0.000116596
0.000101589
9.38417e-05
8.5186e-05
7.56107e-05
7.18491e-05
6.72456e-05
6.39305e-05
5.94112e-05
5.76614e-05
5.54588e-05
5.45734e-05
5.4164e-05
0.320667
0.0398528
0.0126716
0.00662827
0.00558815
0.00308724
0.00191516
0.00146366
0.000850072
0.000629587
0.000471889
0.000393765
0.000348241
0.000277602
0.000191887
0.000187568
0.000162032
0.000154947
0.000150115
0.000145603
0.000141789
0.000141933
0.00014052
0.000140236
0.000126668
0.000105938
9.9496e-05
8.67591e-05
7.59575e-05
7.12514e-05
6.71752e-05
6.41331e-05
5.87149e-05
5.64194e-05
5.36718e-05
5.20545e-05
4.99897e-05
0.319131
0.0502003
0.0204642
0.0114036
0.00510878
0.00236134
0.00149061
0.00100669
0.000650096
0.000505072
0.000401934
0.000351627
0.000273814
0.000227951
0.000190581
0.000176587
0.00016752
0.000165818
0.000159364
0.000158304
0.000158041
0.00015769
0.000143866
0.000137148
0.000127143
0.000110085
0.00010518
8.64855e-05
7.08355e-05
6.60135e-05
6.20598e-05
5.96686e-05
5.42879e-05
5.18127e-05
4.94577e-05
4.73987e-05
4.50766e-05
0.320955
0.0819349
0.0398845
0.0232367
0.0131856
0.00744496
0.00334488
0.00192098
0.0013705
0.00105963
0.000996225
0.000784548
0.0006546
0.00053503
0.000518026
0.000535916
0.00054171
0.000592185
0.00063115
0.000645738
0.000649154
0.000581376
0.000304138
0.00017483
0.000124988
9.84053e-05
0.000100819
8.07257e-05
6.18663e-05
5.76947e-05
5.2954e-05
5.16777e-05
4.64478e-05
4.40785e-05
4.31227e-05
4.09724e-05
3.87041e-05
0.295331
0.0916492
0.035075
0.0190645
0.0141176
0.014128
0.0121697
0.00878092
0.00752012
0.00696187
0.00660343
0.00570734
0.0049417
0.0044313
0.00432757
0.0040844
0.00375769
0.00351985
0.00367234
0.00321965
0.00300546
0.00213568
0.00123834
0.000684464
0.000324185
9.76161e-05
7.89639e-05
5.60646e-05
4.62308e-05
4.14413e-05
3.93245e-05
3.62684e-05
3.52013e-05
3.21257e-05
3.25156e-05
3.04405e-05
2.85421e-05
0.382359
0.196971
0.0753139
0.0265661
0.014368
0.0101875
0.00857454
0.0067941
0.00626236
0.00624409
0.00595836
0.00462545
0.00325061
0.00257655
0.00230306
0.0020003
0.00188497
0.00181249
0.00177223
0.00161289
0.00165959
0.00159238
0.00134926
0.00123817
0.000872515
0.000118815
3.53074e-05
3.23338e-05
3.0996e-05
3.04842e-05
2.8339e-05
2.78784e-05
2.57147e-05
2.47617e-05
2.42801e-05
2.22341e-05
2.15389e-05
0.200355
0.305903
0.235905
0.188585
0.137979
0.0788521
0.0515148
0.034747
0.0294379
0.0243295
0.0190025
0.0180128
0.0169812
0.0144413
0.0090354
0.0021832
0.000432407
0.000371934
0.00039998
0.00040932
0.000437235
0.000445482
0.000459405
0.000481519
0.000490127
0.000511995
0.000522701
0.000543832
0.000566166
0.000584816
0.000601343
0.000615216
0.000629223
0.000641995
0.000657222
0.000672258
0.000688048
0.00070187
0.149552
0.177859
0.0776651
0.0449448
0.0307825
0.0159713
0.0138148
0.00965958
0.0112407
0.01167
0.00985793
0.00965644
0.00798537
0.00544838
0.00320263
0.00123072
0.000746079
0.000672571
0.000626926
0.000630269
0.000635414
0.000655911
0.000671081
0.000706224
0.000736402
0.00075229
0.000805675
0.000833266
0.000872091
0.00090521
0.000943001
0.000978144
0.00100848
0.00104431
0.0010873
0.00111559
0.00113042
0.00115587
0.178905
0.196518
0.0796574
0.0203549
0.012929
0.0107236
0.00294034
0.00205442
0.00155131
0.00148484
0.00143322
0.00141826
0.00113847
0.000950824
0.000754154
0.000513827
0.000408722
0.000363177
0.000318695
0.000311589
0.000302113
0.000298871
0.000298344
0.000309437
0.000319529
0.000327072
0.000361268
0.000382866
0.000422937
0.000471537
0.000505821
0.000549037
0.000587236
0.000627509
0.000656111
0.000678833
0.000698676
0.0546415
0.06505
0.019805
0.0101328
0.00796012
0.00909838
0.00252207
0.00178614
0.00098501
0.000775949
0.000627307
0.000525228
0.000491531
0.000394164
0.000359669
0.000277619
0.00025112
0.000217885
0.000204344
0.000185941
0.000179835
0.000168216
0.000159787
0.000154269
0.000151349
0.000148139
0.000147661
0.000149378
0.000154761
0.000163971
0.000167714
0.000178033
0.0001855
0.000192548
0.000197235
0.00020053
0.00020204
0.0495182
0.0204374
0.0119194
0.00898901
0.00620146
0.00417654
0.00216976
0.00146592
0.00105773
0.00077633
0.00065482
0.000476253
0.000354104
0.000293316
0.000255398
0.000223406
0.00019813
0.00018536
0.000180452
0.000164145
0.000153627
0.000148144
0.000134197
0.000126621
0.000122371
0.000113592
0.00010483
9.88375e-05
9.55319e-05
9.12611e-05
8.99682e-05
8.65539e-05
8.53581e-05
8.42157e-05
8.30503e-05
8.14094e-05
8.04035e-05
7.87651e-05
0.0821353
0.0163297
0.011423
0.00660794
0.00416134
0.00384132
0.00180275
0.00126025
0.000872982
0.000772651
0.000632095
0.00039673
0.000324574
0.000270849
0.000233389
0.000212503
0.000186377
0.000177407
0.000169185
0.000164972
0.000151507
0.000145149
0.000133809
0.000126248
0.0001207
0.000111044
0.000100289
9.30528e-05
8.63081e-05
8.05942e-05
7.80039e-05
7.40832e-05
7.10866e-05
6.95012e-05
6.74761e-05
6.64065e-05
6.57384e-05
6.43201e-05
0.101233
0.0153779
0.0086644
0.00523506
0.00389675
0.00286805
0.00243514
0.00135425
0.000964102
0.000699356
0.000460773
0.00036307
0.000318487
0.000288743
0.00023226
0.000193117
0.000180089
0.000173138
0.000166507
0.000162976
0.000154392
0.000146707
0.000136822
0.000133819
0.000125167
0.000111268
0.000101474
9.37678e-05
8.41906e-05
7.84019e-05
7.43713e-05
7.13849e-05
6.68549e-05
6.51928e-05
6.2448e-05
6.14309e-05
6.03717e-05
0.105945
0.0239839
0.0111689
0.00540591
0.00393581
0.00228582
0.00167334
0.00126672
0.000805153
0.00054003
0.000422396
0.000359001
0.000331456
0.000296636
0.000197494
0.000177518
0.000169171
0.000161247
0.00015616
0.000152791
0.000147982
0.00014759
0.000147976
0.000148341
0.00013424
0.000112459
0.000105865
9.62981e-05
8.40619e-05
7.78605e-05
7.34476e-05
7.08798e-05
6.56547e-05
6.3554e-05
6.03564e-05
5.89977e-05
5.72143e-05
0.0987422
0.0375304
0.0206769
0.00880907
0.00421007
0.00248567
0.001912
0.000996621
0.000817016
0.000511358
0.000436838
0.000350829
0.000310599
0.000248773
0.000206482
0.000190487
0.00018428
0.000178332
0.000176141
0.000174933
0.000174536
0.000173486
0.000151202
0.000144143
0.00013344
0.000112095
0.000108117
9.68557e-05
7.83272e-05
7.32518e-05
6.80308e-05
6.65809e-05
6.10145e-05
5.89461e-05
5.56336e-05
5.42323e-05
5.23318e-05
0.116428
0.0644217
0.0380891
0.0199653
0.0103829
0.00688374
0.00358267
0.00242658
0.00184746
0.00152645
0.00148201
0.00120687
0.00103568
0.000849161
0.000814425
0.000806586
0.000767128
0.000762861
0.000802602
0.00079703
0.000796828
0.000733151
0.000381127
0.000187462
0.000122368
9.33363e-05
9.69002e-05
8.69612e-05
6.8888e-05
6.4833e-05
5.82825e-05
5.88889e-05
5.27212e-05
5.04797e-05
4.81476e-05
4.67967e-05
4.51427e-05
0.140447
0.0869975
0.0378746
0.0218898
0.0180034
0.0199475
0.015573
0.0132381
0.011325
0.0103962
0.0101114
0.00885178
0.00775706
0.00678855
0.00626792
0.00571949
0.00511051
0.00451712
0.00451301
0.00387538
0.00348248
0.00257073
0.00156575
0.000882288
0.000327791
8.93095e-05
8.12234e-05
6.30294e-05
5.32709e-05
4.97403e-05
4.2224e-05
4.40468e-05
3.93286e-05
3.67079e-05
3.66239e-05
3.49133e-05
3.41153e-05
0.293621
0.157182
0.061896
0.0240352
0.0146684
0.0116221
0.0106811
0.00925172
0.00871747
0.00863025
0.00820617
0.00644177
0.00462921
0.00388825
0.00343555
0.00285266
0.00251073
0.00232901
0.00221286
0.0019341
0.00195282
0.00184938
0.00154262
0.00139942
0.000920125
8.85334e-05
3.96838e-05
3.5167e-05
3.32134e-05
3.22157e-05
3.10114e-05
2.98196e-05
2.75867e-05
2.69864e-05
2.56125e-05
2.48191e-05
2.31442e-05
0.197532
0.252599
0.154812
0.13095
0.113492
0.0690065
0.0466623
0.0348104
0.0301657
0.0238148
0.0202895
0.0187748
0.013755
0.00800699
0.00352138
0.000745428
0.000395955
0.000413019
0.000440205
0.000451455
0.000477943
0.000491257
0.000503344
0.000525424
0.000535442
0.00055398
0.000564909
0.000582837
0.000600914
0.000617288
0.000633099
0.000647386
0.000661212
0.000675683
0.000691246
0.000703566
0.00071505
0.000722348
0.10222
0.116739
0.0596689
0.0285746
0.0244875
0.0131652
0.0121182
0.0103323
0.0112608
0.0113943
0.0102521
0.00848438
0.00521383
0.00302478
0.0017213
0.00101215
0.000778977
0.000733715
0.000697183
0.000707155
0.000716452
0.000738665
0.000757848
0.00078853
0.000820715
0.0008363
0.000878021
0.000904149
0.000935423
0.00096659
0.00100046
0.00103556
0.00106692
0.00110588
0.00115004
0.00117603
0.00119179
0.00121855
0.126399
0.19974
0.0671884
0.0170813
0.00867811
0.00721749
0.00246455
0.00191005
0.00170182
0.00170081
0.00153655
0.00135387
0.00106585
0.000842219
0.000738879
0.000561321
0.000471289
0.000426091
0.000389185
0.000380156
0.00037378
0.000372429
0.000373309
0.000384947
0.000399473
0.000411018
0.000449415
0.000474743
0.000508228
0.000554159
0.000584912
0.000623615
0.000657726
0.000692402
0.000718154
0.0007369
0.000753268
0.0299292
0.0515499
0.0188969
0.00960876
0.00702677
0.00565
0.00221469
0.00151227
0.00116878
0.000886126
0.000732381
0.00066071
0.000586719
0.00047221
0.000424599
0.00033011
0.000298135
0.000260292
0.000242741
0.000222323
0.000214368
0.000202726
0.000192738
0.000187576
0.000184814
0.000182617
0.000184159
0.000187493
0.000193174
0.000204034
0.000208585
0.000218
0.000224909
0.00022951
0.000231335
0.000231295
0.000229862
0.0183418
0.0182149
0.0110278
0.0097124
0.00538031
0.00380721
0.00219832
0.00155381
0.00121419
0.000875209
0.00072139
0.00054255
0.000435325
0.000359424
0.000308553
0.00026588
0.000228488
0.000209232
0.000198666
0.000178807
0.000168571
0.000160923
0.000146801
0.000138161
0.000133763
0.000126227
0.000117118
0.000112242
0.000109369
0.000106289
0.000105375
0.000103007
0.000102194
0.000100664
9.86163e-05
9.59905e-05
9.36193e-05
9.00699e-05
0.0208039
0.0124378
0.00950011
0.00584962
0.00397216
0.00327521
0.00181682
0.00132082
0.000992572
0.000864072
0.000646901
0.000469551
0.000405041
0.00032004
0.000277417
0.00024251
0.000204919
0.000191087
0.000178029
0.000171744
0.000158882
0.000152346
0.000139699
0.000132048
0.000126818
0.000118193
0.000106234
9.99715e-05
9.38051e-05
8.77322e-05
8.53939e-05
8.19701e-05
7.94204e-05
7.78961e-05
7.56671e-05
7.43302e-05
7.31385e-05
7.11387e-05
0.0257517
0.012533
0.00860425
0.005254
0.00415254
0.00281057
0.00241144
0.00144074
0.0010683
0.000792568
0.000547076
0.000444709
0.000374797
0.000320027
0.000265626
0.000214879
0.000193114
0.000181637
0.000172013
0.000167854
0.000159122
0.00015128
0.000139528
0.0001354
0.000128971
0.000116902
0.000105424
9.8798e-05
9.06018e-05
8.30315e-05
7.93423e-05
7.64728e-05
7.25578e-05
7.09587e-05
6.81567e-05
6.71417e-05
6.60996e-05
0.0277613
0.0182696
0.0103521
0.00514872
0.00361086
0.00218263
0.00169473
0.00123935
0.000863605
0.000632858
0.000498435
0.000417859
0.000380979
0.000302799
0.000218764
0.000189094
0.000175544
0.000164969
0.000159431
0.000156031
0.000150296
0.000148047
0.000146289
0.000145792
0.000136209
0.000115982
0.000107745
0.000100493
8.99061e-05
8.19065e-05
7.71457e-05
7.46858e-05
7.02573e-05
6.83087e-05
6.49553e-05
6.37401e-05
6.23983e-05
0.0336347
0.0321002
0.019827
0.00828128
0.00405235
0.00255608
0.00185974
0.00112395
0.000895249
0.000630005
0.000526157
0.000429732
0.000370509
0.000282357
0.000241914
0.000213041
0.000199527
0.000191926
0.000189876
0.000188432
0.000188082
0.000185535
0.000152901
0.000140723
0.000132217
0.000112725
0.000108925
0.000101028
8.43856e-05
7.81983e-05
7.15517e-05
7.00681e-05
6.57344e-05
6.39001e-05
5.99463e-05
5.87822e-05
5.74276e-05
0.0555346
0.0546135
0.0366298
0.0179741
0.00989233
0.00712633
0.00398626
0.00304107
0.00240461
0.0020353
0.00195337
0.00169647
0.0014841
0.00126004
0.00117914
0.0011425
0.00102007
0.000970958
0.000976893
0.000931546
0.000902734
0.000861706
0.000510203
0.000250768
0.000136391
9.97871e-05
9.57319e-05
8.96115e-05
7.57995e-05
7.01658e-05
6.10954e-05
6.15483e-05
5.75584e-05
5.59595e-05
5.17222e-05
5.10277e-05
4.99332e-05
0.12812
0.0801324
0.0406289
0.026255
0.0228405
0.0236367
0.0185041
0.0167856
0.0145242
0.0131924
0.0127937
0.011437
0.00995676
0.00878831
0.00807131
0.00741756
0.00659165
0.00560997
0.00534565
0.00461365
0.00393179
0.00308168
0.00190519
0.00125879
0.000428621
0.000114792
7.16077e-05
6.36072e-05
6.23616e-05
5.77152e-05
4.40491e-05
4.63779e-05
4.38392e-05
4.1886e-05
3.85767e-05
3.88635e-05
3.83369e-05
0.216793
0.116707
0.05067
0.0231117
0.0156403
0.0135449
0.0126956
0.0116064
0.0109986
0.0107688
0.0101535
0.00802901
0.0058356
0.00501829
0.00459517
0.0038489
0.00323688
0.00287991
0.00268053
0.00226509
0.00222833
0.00208733
0.0017277
0.00156253
0.00106922
0.000174485
4.96024e-05
3.76072e-05
3.58341e-05
3.30215e-05
3.21394e-05
3.12671e-05
2.92576e-05
2.80417e-05
2.68811e-05
2.62713e-05
2.42635e-05
0.169254
0.208509
0.0834637
0.0829355
0.0816246
0.0610404
0.0432875
0.0358203
0.0303806
0.0237581
0.0214872
0.0167298
0.00774407
0.00331667
0.00116178
0.000444059
0.000424145
0.000447305
0.000473714
0.000487038
0.000510059
0.000527144
0.000538561
0.000558547
0.000568712
0.000584002
0.000594704
0.00060982
0.00062482
0.000639173
0.000653807
0.000667208
0.000680574
0.000695447
0.000709146
0.000718933
0.000727496
0.000731102
0.0706926
0.0845601
0.0312445
0.0231054
0.0216269
0.012081
0.0116856
0.011225
0.0117176
0.0116092
0.0101985
0.00615527
0.00305804
0.00179616
0.0011722
0.000950596
0.00081046
0.000783395
0.000757749
0.000770928
0.000784069
0.000805919
0.000827367
0.000852332
0.000882196
0.000897646
0.000931767
0.000955981
0.000982107
0.00100993
0.00104033
0.00107263
0.00110399
0.00114441
0.00118579
0.00120842
0.00122641
0.00125381
0.0716574
0.117061
0.0414358
0.0112222
0.00630022
0.00462263
0.00220417
0.00190552
0.00191687
0.00187542
0.00161385
0.00121579
0.00100116
0.000829336
0.000769218
0.000603803
0.000539325
0.000492079
0.00046374
0.00045453
0.000449958
0.000451177
0.000455199
0.000467172
0.000483006
0.000495218
0.000527753
0.000552738
0.000581134
0.000621121
0.000649615
0.000683551
0.000713806
0.0007426
0.000763732
0.000777524
0.000789296
0.0223425
0.0243722
0.0136048
0.00817957
0.0052924
0.0034968
0.00199225
0.00147782
0.00127752
0.00105651
0.000885227
0.000790261
0.00068989
0.000566069
0.000503244
0.000400611
0.000361033
0.000317776
0.000292759
0.000268308
0.000256915
0.000244425
0.000233263
0.000227403
0.00022407
0.000222049
0.000224632
0.000229049
0.000235179
0.000247647
0.000253734
0.000263592
0.000270756
0.000274449
0.000275636
0.000272971
0.00026892
0.0134222
0.0128527
0.0102728
0.00832438
0.00479346
0.00344214
0.00219453
0.00165567
0.00132714
0.00100608
0.000817456
0.000643429
0.000533091
0.000450042
0.000385106
0.000328049
0.000278518
0.000246398
0.000224518
0.000199607
0.00018658
0.000176127
0.00016175
0.00015222
0.000147139
0.000140151
0.000132083
0.000128407
0.00012618
0.000125018
0.000125097
0.00012476
0.000125121
0.000124411
0.000122775
0.000119905
0.000116732
0.000111931
0.0116175
0.0102201
0.00799705
0.00564053
0.00382059
0.00275965
0.00176443
0.00131937
0.00107824
0.000924853
0.000723907
0.000574566
0.000501918
0.000399742
0.000344209
0.000290864
0.000238091
0.00021379
0.000190457
0.000179514
0.00016514
0.000157578
0.000144109
0.000136429
0.000131285
0.000123227
0.000111373
0.000105976
0.000100398
9.4904e-05
9.28675e-05
9.03507e-05
8.88188e-05
8.78183e-05
8.61574e-05
8.498e-05
8.37667e-05
8.16967e-05
0.0130033
0.0105571
0.0080131
0.00532592
0.00415362
0.00279666
0.00229958
0.00150578
0.00119549
0.000896831
0.00067059
0.000558063
0.000465098
0.000382221
0.000320418
0.00025495
0.000217686
0.000194934
0.000178314
0.000171195
0.00016152
0.00015308
0.0001399
0.000134684
0.000129898
0.000119639
0.000107425
0.000101696
9.44017e-05
8.64817e-05
8.29355e-05
8.00371e-05
7.70704e-05
7.56777e-05
7.31325e-05
7.22115e-05
7.13595e-05
0.0148751
0.0150827
0.00954528
0.00491561
0.00334644
0.00217169
0.00173402
0.00127753
0.000980164
0.000747522
0.000591897
0.000492423
0.000416871
0.000340715
0.000263519
0.000217447
0.000191325
0.000172716
0.000163808
0.000158814
0.000152007
0.000146979
0.000142464
0.000140904
0.000134952
0.000118769
0.000107499
0.000101514
9.28955e-05
8.39115e-05
7.91831e-05
7.62769e-05
7.29743e-05
7.12475e-05
6.79408e-05
6.683e-05
6.59245e-05
0.0234054
0.0270025
0.0183009
0.00795036
0.00403601
0.00258383
0.00184348
0.00127932
0.00101751
0.000769573
0.000632014
0.000527851
0.000441031
0.000364455
0.000305142
0.000256185
0.000227583
0.000210112
0.000204363
0.00020047
0.000198383
0.000195739
0.000160508
0.000142485
0.00013008