/*--------------------------------*- C++ -*----------------------------------*\
| =========                 |                                                 |
| \\      /  F ield         | OpenFOAM: The Open Source CFD Toolbox           |
|  \\    /   O peration     | Version:  2.3.1                                 |
|   \\  /    A nd           | Web:      www.OpenFOAM.org                      |
|    \\/     M anipulation  |                                                 |
\*---------------------------------------------------------------------------*/
FoamFile
{
    version     2.0;
    format      ascii;
    class       volScalarField;
    location    "15";
    object      k_0;
}
// * * * * * * * * * * * * * * * * * * * * * * * * * * * * * * * * * * * * * //

dimensions      [0 2 -2 0 0 0 0];

internalField   nonuniform List<scalar> 
37632
(
1.09396
0.787551
0.448606
0.223424
0.113767
0.0849259
0.0429268
0.0319059
0.0204397
0.0185417
0.0161088
0.012589
0.0100411
0.00963809
0.0093573
0.00671483
0.00143533
0.000223539
0.000155904
0.000163493
0.000162249
0.000163645
0.000168266
0.000165796
0.000175182
0.00017834
0.000181046
0.000187876
0.00020317
0.000216687
0.000229029
0.000236336
0.000244293
0.000251988
0.000257452
0.000265597
0.000287779
0.000314743
0.51108
0.333537
0.146343
0.0515077
0.0238594
0.0234018
0.00673661
0.00768815
0.00475226
0.0070866
0.00557275
0.00582113
0.0039995
0.00323482
0.00234955
0.00150592
0.000332222
0.000244388
0.000227761
0.00023781
0.000226949
0.000227221
0.000230749
0.000237135
0.00023419
0.000240058
0.000251408
0.00025602
0.000276617
0.000277895
0.000307108
0.000307526
0.000314893
0.000326304
0.000343524
0.000354451
0.000363102
0.000378528
0.383545
0.157224
0.0639441
0.0548503
0.0169304
0.00986762
0.00342881
0.00258051
0.000868537
0.000653113
0.000569341
0.000638775
0.000729263
0.000531015
0.000312722
0.000284939
0.000166089
0.000153461
0.000141844
0.000135738
0.000124209
0.000119413
0.000118162
0.000112424
0.000108899
0.00010834
0.000111013
0.00011117
0.000125353
0.000123471
0.000143065
0.000140682
0.000169248
0.000181407
0.000183604
0.000185841
0.000192507
0.386907
0.0980589
0.0446656
0.0142523
0.00761554
0.0025156
0.00124734
0.000628906
0.000584187
0.000395863
0.000312831
0.000291144
0.000224578
0.000213571
0.000180769
0.000162002
0.000144032
0.000135185
0.000123209
0.00011982
0.000107568
0.000101299
9.65775e-05
8.74096e-05
8.3631e-05
7.6518e-05
7.53791e-05
6.95815e-05
7.05407e-05
6.70266e-05
6.95692e-05
7.0183e-05
7.95791e-05
8.10334e-05
8.15707e-05
8.59238e-05
8.82914e-05
0.377703
0.0490193
0.0246151
0.00716498
0.00434287
0.00274495
0.00305674
0.00094156
0.000783214
0.00042522
0.000310318
0.000233236
0.000202903
0.000190937
0.000168337
0.0001592
0.000153511
0.000136558
0.00013053
0.000115543
0.000108168
0.000104273
9.3359e-05
8.70107e-05
8.15484e-05
7.23553e-05
6.92579e-05
6.16236e-05
5.94215e-05
5.46049e-05
5.25429e-05
5.17884e-05
5.14107e-05
5.06319e-05
5.13199e-05
5.30883e-05
5.28623e-05
5.34803e-05
0.380308
0.0479105
0.0245259
0.00856832
0.00674085
0.00292577
0.00357834
0.00121888
0.00119138
0.000905591
0.000340901
0.000233998
0.000204358
0.000189363
0.000166364
0.00015867
0.000147194
0.000142016
0.000131889
0.000116177
0.000110771
0.000104168
9.60083e-05
8.98763e-05
8.11359e-05
7.21347e-05
6.85904e-05
6.03299e-05
5.80336e-05
5.30891e-05
4.95349e-05
4.72468e-05
4.4697e-05
4.39658e-05
4.39403e-05
4.47654e-05
4.65195e-05
4.88589e-05
0.377095
0.0469963
0.0121677
0.00458494
0.004166
0.0023539
0.00146081
0.000940913
0.000711228
0.000596696
0.000363924
0.000295466
0.000247903
0.00022573
0.00016559
0.000163547
0.000145139
0.000140805
0.000128684
0.000122311
0.000106874
0.00010168
9.85262e-05
8.6724e-05
8.31695e-05
7.21765e-05
6.81753e-05
5.98604e-05
5.70336e-05
5.32431e-05
4.88009e-05
4.71174e-05
4.22913e-05
4.11329e-05
3.9273e-05
3.82397e-05
3.81222e-05
0.383304
0.0477362
0.0127117
0.0109297
0.00647708
0.00407735
0.00367608
0.00230558
0.00158922
0.00138172
0.000948063
0.000685797
0.000456824
0.000224526
0.0001592
0.000149712
0.000147246
0.000128801
0.000124502
0.000118286
0.000106635
0.000100687
9.2692e-05
8.97002e-05
7.77013e-05
7.07912e-05
6.43158e-05
5.93817e-05
5.34214e-05
5.11231e-05
4.68255e-05
4.54819e-05
4.12338e-05
3.89215e-05
3.74952e-05
3.49595e-05
3.3982e-05
0.394769
0.0521749
0.0124895
0.00984197
0.00512347
0.00274481
0.00238058
0.00163697
0.00118932
0.00100433
0.000651601
0.000434927
0.00026828
0.000188786
0.000164516
0.000155433
0.000141168
0.000135295
0.000122679
0.000122821
0.000114626
0.000112807
9.31394e-05
8.59554e-05
7.70334e-05
6.96126e-05
5.8534e-05
5.60523e-05
4.98222e-05
4.90599e-05
4.4119e-05
4.31302e-05
3.85959e-05
3.75143e-05
3.48369e-05
3.30639e-05
3.06266e-05
0.412265
0.0767832
0.0246895
0.0147086
0.00926169
0.00871795
0.0056138
0.00298531
0.00177845
0.00126134
0.000983203
0.000864592
0.000521975
0.000246755
0.000177961
0.000187495
0.000182689
0.000204203
0.000196104
0.000215116
0.000217375
0.000215128
0.000161008
0.000129069
8.44586e-05
6.35257e-05
5.09962e-05
4.8402e-05
4.42358e-05
4.35967e-05
3.99923e-05
3.95175e-05
3.52786e-05
3.42974e-05
3.30392e-05
3.03535e-05
2.93732e-05
0.395963
0.0844237
0.0181241
0.0125305
0.00890423
0.00608022
0.00406023
0.00244623
0.0017091
0.00136578
0.00104284
0.000841975
0.000576998
0.000494172
0.000721349
0.000779207
0.00073953
0.000841295
0.000881359
0.000807792
0.000744228
0.000525502
0.000399463
0.000295794
0.000223257
9.94694e-05
3.72131e-05
3.76053e-05
3.51094e-05
3.48681e-05
3.36813e-05
3.27758e-05
2.99294e-05
2.91451e-05
2.83509e-05
2.59514e-05
2.55658e-05
0.330272
0.183527
0.0726394
0.0252276
0.0117573
0.00781229
0.0051544
0.00350018
0.00277
0.00261946
0.0024264
0.00177976
0.00114228
0.000995997
0.000975743
0.000854025
0.00076333
0.000689277
0.00065474
0.000627548
0.00060696
0.000652337
0.000629467
0.000609116
0.000568534
0.000314915
3.25003e-05
2.60132e-05
2.60649e-05
2.40146e-05
2.41268e-05
2.17445e-05
2.11559e-05
1.98953e-05
1.93483e-05
1.77876e-05
1.74198e-05
0.471993
0.602793
0.426529
0.247559
0.136393
0.0925131
0.0536681
0.0350028
0.0260754
0.0235494
0.0187159
0.0146388
0.0140714
0.0143274
0.0134147
0.00718569
0.00117934
0.000271847
0.000277471
0.000274912
0.000305097
0.000295532
0.000319176
0.000335441
0.000339706
0.000365561
0.000362651
0.000389706
0.000420422
0.00044213
0.000456643
0.000461853
0.000477163
0.000486636
0.000492761
0.00050978
0.000539143
0.000567506
0.746838
0.466219
0.340474
0.10865
0.0512057
0.0426229
0.0184383
0.0150948
0.0165006
0.0168248
0.0130606
0.012504
0.00998849
0.00825315
0.00558181
0.00209659
0.0006036
0.000469117
0.00042454
0.000403273
0.000412866
0.000410313
0.000434112
0.000467239
0.000476544
0.000493297
0.000543849
0.000562608
0.000620775
0.000643406
0.000700395
0.000721191
0.000746103
0.000771473
0.000800999
0.000821364
0.000833424
0.000853346
0.788275
0.202991
0.0954308
0.0974789
0.0366368
0.02803
0.00845338
0.0035479
0.00207022
0.00144163
0.00129181
0.00142267
0.00106728
0.00108632
0.00079424
0.000418484
0.000245676
0.000219663
0.000184902
0.000183956
0.000172762
0.000171611
0.000169136
0.000176965
0.00017359
0.000183696
0.000199557
0.000213074
0.000245384
0.000264909
0.000306665
0.000334526
0.000380563
0.000424266
0.000444152
0.000464724
0.000484919
0.875763
0.192371
0.0562637
0.0272807
0.0152281
0.00608077
0.00293666
0.00159971
0.00104215
0.000994191
0.0004556
0.000380221
0.000298066
0.000288835
0.00026741
0.00019795
0.000183223
0.000157387
0.000145547
0.000142937
0.000124397
0.000115715
0.000111154
0.000109633
0.000102231
0.000101713
9.61946e-05
0.000101424
9.91571e-05
0.00010872
0.000109613
0.00012796
0.00013558
0.000152701
0.000157518
0.000168907
0.000175441
0.768231
0.0813319
0.0295925
0.0131671
0.0111306
0.00572223
0.00494949
0.00170842
0.00124059
0.00108672
0.000559971
0.000403132
0.000277743
0.000225714
0.000210513
0.000179287
0.000171911
0.000165353
0.000145957
0.000136833
0.000126954
0.00011172
0.000105979
0.000100187
9.35607e-05
8.63593e-05
7.63399e-05
7.24834e-05
6.81434e-05
6.84449e-05
6.54678e-05
6.85915e-05
6.91338e-05
7.55405e-05
7.6395e-05
7.9205e-05
8.0912e-05
7.72409e-05
0.740672
0.0683814
0.0209469
0.0108277
0.0128046
0.00698776
0.00523202
0.00189339
0.00153628
0.0015867
0.000594829
0.000407406
0.000340934
0.000230078
0.00021458
0.000173211
0.000172958
0.000150651
0.000141139
0.00013667
0.000125347
0.000113948
0.000111128
0.000108568
9.77499e-05
8.42919e-05
7.72713e-05
7.14579e-05
6.39653e-05
6.2112e-05
5.83865e-05
5.52544e-05
5.46154e-05
5.50207e-05
5.58584e-05
5.80744e-05
5.95473e-05
5.94703e-05
0.734034
0.058664
0.0103776
0.00673649
0.00534231
0.00357616
0.00417877
0.00153223
0.00127923
0.00107086
0.000566825
0.000458689
0.000383751
0.00034368
0.000191666
0.000181642
0.000168812
0.000155587
0.000151303
0.000136991
0.0001339
0.00012055
0.000113721
0.000111652
9.9291e-05
8.56586e-05
8.03235e-05
7.23551e-05
6.43496e-05
6.2522e-05
5.86928e-05
5.28023e-05
5.07124e-05
4.77087e-05
4.74972e-05
4.73805e-05
4.81254e-05
0.731858
0.0677792
0.0169962
0.0124946
0.00934778
0.00474514
0.00495691
0.00291083
0.00202853
0.00194006
0.00144833
0.000951691
0.000806954
0.000314931
0.000206427
0.0002362
0.000164747
0.000154411
0.000134389
0.000126626
0.000123471
0.000123412
0.000116038
0.000114365
0.00011096
9.09415e-05
8.48239e-05
7.15911e-05
6.50959e-05
6.02463e-05
5.68109e-05
5.23492e-05
4.86359e-05
4.5291e-05
4.37787e-05
4.20951e-05
4.10247e-05
0.74761
0.0815635
0.0188774
0.0135403
0.00594401
0.0029102
0.00180057
0.00127504
0.00105691
0.000828381
0.000678101
0.000443212
0.000355362
0.000229794
0.000197355
0.000192638
0.000157885
0.00014687
0.000139961
0.000130485
0.000132073
0.000128822
0.000114126
0.000106939
0.000104448
0.00010284
9.15287e-05
6.9679e-05
6.33405e-05
5.68787e-05
5.55518e-05
4.82274e-05
4.58317e-05
4.16598e-05
4.05418e-05
3.69582e-05
3.52039e-05
0.75169
0.110663
0.0388269
0.0249289
0.0154442
0.0124985
0.0058629
0.00316038
0.00199121
0.00148369
0.00137375
0.00120869
0.000817206
0.000440794
0.000309287
0.000334826
0.000345444
0.000412265
0.000429066
0.000463405
0.000473806
0.000466146
0.000257197
0.000165838
0.000126802
0.000104849
0.000100309
6.10263e-05
5.40367e-05
4.79888e-05
4.63692e-05
4.09227e-05
3.85324e-05
3.57955e-05
3.55262e-05
3.24726e-05
3.08046e-05
0.715163
0.103667
0.0292979
0.0204397
0.0124314
0.00930123
0.00813769
0.00514289
0.00402141
0.00353327
0.00300582
0.00252034
0.00200637
0.00187102
0.0024348
0.00259528
0.00247892
0.0025544
0.00271869
0.00248232
0.00231672
0.00165824
0.00100731
0.000668874
0.00037374
0.000121762
5.8293e-05
3.92811e-05
3.4735e-05
3.21085e-05
3.18541e-05
2.88528e-05
2.79764e-05
2.6137e-05
2.62359e-05
2.44654e-05
2.30672e-05
0.432626
0.208647
0.0777482
0.0271614
0.0136945
0.00901217
0.0064458
0.0046095
0.00395735
0.00390665
0.00368615
0.0027679
0.0018134
0.00146525
0.00142124
0.00133018
0.00130464
0.00127997
0.00130942
0.00122254
0.00126505
0.00125944
0.00111148
0.00104206
0.000840816
0.000241998
3.16277e-05
2.88433e-05
2.85715e-05
2.66931e-05
2.54823e-05
2.48959e-05
2.27916e-05
2.20562e-05
2.13974e-05
1.97365e-05
1.92271e-05
0.320487
0.419316
0.314094
0.221838
0.143811
0.083663
0.0535806
0.0347178
0.0284336
0.0244221
0.0187872
0.0163003
0.0162785
0.015951
0.0135125
0.00512263
0.000691473
0.000325448
0.000349493
0.000355713
0.00038272
0.000384608
0.000402268
0.000422545
0.000429523
0.000453326
0.000460688
0.000483928
0.000511985
0.000533165
0.000549782
0.000561201
0.000575744
0.000586238
0.000598359
0.000615881
0.000637223
0.000658751
0.294225
0.204525
0.0940065
0.0588896
0.0511543
0.0192386
0.0184848
0.0101636
0.0122661
0.012993
0.0105467
0.0106765
0.00993019
0.00751421
0.00513695
0.00171204
0.000696716
0.000590608
0.00053998
0.000534854
0.000537301
0.000552443
0.000565816
0.00060497
0.000626961
0.000642949
0.000699834
0.000725022
0.000777571
0.000810654
0.000855112
0.000886177
0.000914672
0.000946008
0.000984
0.00101113
0.00102544
0.00104856
0.348425
0.229208
0.0661035
0.0349838
0.0250006
0.016509
0.00411989
0.00265811
0.00146417
0.00147562
0.00133128
0.00142648
0.00109728
0.00108611
0.000797936
0.000459785
0.00033834
0.000296676
0.000250472
0.000245945
0.000233607
0.000229661
0.000229312
0.00023951
0.000243133
0.000249651
0.000278694
0.00029348
0.000330801
0.000371868
0.000413199
0.000456172
0.00049876
0.000543743
0.000571389
0.000595626
0.000617295
0.208887
0.13456
0.0335553
0.0130045
0.00958795
0.00881205
0.00271703
0.00182873
0.000947529
0.000636782
0.000555125
0.000412159
0.000380689
0.000342004
0.000290862
0.000235375
0.000213373
0.000184373
0.000173411
0.000156993
0.000151917
0.000139418
0.000132785
0.00012765
0.000123619
0.000119191
0.000117843
0.000117791
0.000121766
0.000130385
0.000133815
0.000147967
0.000156382
0.000168157
0.000175081
0.000182765
0.000187033
0.237636
0.0369493
0.0150957
0.00963896
0.0062688
0.00534514
0.00221849
0.00138552
0.000962217
0.000699295
0.000587185
0.000452495
0.000301219
0.000251389
0.000220946
0.000196895
0.000178055
0.000167599
0.000163072
0.000149926
0.000138881
0.000133753
0.000120667
0.000114634
0.000110227
0.00010014
9.26044e-05
8.59809e-05
8.22268e-05
7.82851e-05
7.67988e-05
7.47825e-05
7.44387e-05
7.55132e-05
7.59525e-05
7.62144e-05
7.64082e-05
7.58421e-05
0.299052
0.0350517
0.0171719
0.00786266
0.00478064
0.00427326
0.00197755
0.00142786
0.000882472
0.000808786
0.000564504
0.000364442
0.000280736
0.000249145
0.000208478
0.000193351
0.000174667
0.000166835
0.000158262
0.000154275
0.000140813
0.000132883
0.000124339
0.000117766
0.000111318
9.99598e-05
9.16044e-05
8.379e-05
7.67549e-05
7.22155e-05
6.91403e-05
6.53037e-05
6.27586e-05
6.1641e-05
6.09247e-05
6.07411e-05
6.12047e-05
6.08433e-05
0.324744
0.0275164
0.00929584
0.00605359
0.00450117
0.00301563
0.00247127
0.00130933
0.000866854
0.000725402
0.000455926
0.000365835
0.000306359
0.000276885
0.000209071
0.000181672
0.000171365
0.000165616
0.000159869
0.000152652
0.000145786
0.000136376
0.00012825
0.000126134
0.000116599
0.000101612
9.38478e-05
8.52104e-05
7.56181e-05
7.1851e-05
6.72485e-05
6.39337e-05
5.94105e-05
5.76592e-05
5.5456e-05
5.45701e-05
5.41601e-05
0.327596
0.0402033
0.0127406
0.00665706
0.00561284
0.0031023
0.00191726
0.00146512
0.000851041
0.000629962
0.000472418
0.000393957
0.000348622
0.000277889
0.000191822
0.000187489
0.000161987
0.000154907
0.000150106
0.000145615
0.000141765
0.000141892
0.000140457
0.000140176
0.000126688
0.000105929
9.94772e-05
8.67861e-05
7.59678e-05
7.12564e-05
6.71777e-05
6.4139e-05
5.87169e-05
5.64181e-05
5.36704e-05
5.20529e-05
4.99874e-05
0.325705
0.0507247
0.0206675
0.0115097
0.00514578
0.00236959
0.00149156
0.00100785
0.000650758
0.000505259
0.000401934
0.000351747
0.000274049
0.000228108
0.000190577
0.000176578
0.000167532
0.000165857
0.000159382
0.000158312
0.000158049
0.00015769
0.000143841
0.00013717
0.000127205
0.000110054
0.000105116
8.65203e-05
7.08411e-05
6.60124e-05
6.20609e-05
5.96718e-05
5.42916e-05
5.18105e-05
4.94562e-05
4.7398e-05
4.50751e-05
0.325387
0.0821873
0.0400835
0.023333
0.0132267
0.00746685
0.0033568
0.00192665
0.00137367
0.00106155
0.000997205
0.000785757
0.000655949
0.000535937
0.000518779
0.000536715
0.000542419
0.000592911
0.000631809
0.000646151
0.000649706
0.000581823
0.000304154
0.000174803
0.000124916
9.83357e-05
0.000100745
8.07862e-05
6.18678e-05
5.76892e-05
5.2954e-05
5.16784e-05
4.64535e-05
4.40763e-05
4.31201e-05
4.09731e-05
3.87029e-05
0.299206
0.0919422
0.0352797
0.0191003
0.0141803
0.0141788
0.0122517
0.00883372
0.00755827
0.00699189
0.00662263
0.00572112
0.00495537
0.00444205
0.004336
0.00409057
0.00376264
0.00352305
0.00367616
0.00322114
0.00300861
0.00213426
0.00123867
0.000683594
0.000323099
9.73012e-05
7.89396e-05
5.61207e-05
4.6228e-05
4.14367e-05
3.93283e-05
3.62697e-05
3.52071e-05
3.21248e-05
3.25116e-05
3.04437e-05
2.85411e-05
0.381831
0.192867
0.0724073
0.0258145
0.0143086
0.0102168
0.00862682
0.00684937
0.00632295
0.00630169
0.00600281
0.00463516
0.00325609
0.0025813
0.00230559
0.00200213
0.00188703
0.00181409
0.0017726
0.00161328
0.00166073
0.00159328
0.00134997
0.00123855
0.000870747
0.000117597
3.53111e-05
3.23351e-05
3.09955e-05
3.04838e-05
2.83375e-05
2.78769e-05
2.57152e-05
2.47603e-05
2.42799e-05
2.22334e-05
2.15373e-05
0.20539
0.31228
0.23351
0.185628
0.135668
0.0766974
0.050565
0.0346186
0.0295149
0.0242912
0.0190268
0.0181181
0.0170248
0.0143462
0.00875586
0.00204165
0.000422337
0.000372471
0.000400576
0.00040984
0.000437706
0.000445938
0.000459806
0.000481944
0.000490562
0.000512453
0.000523183
0.000544344
0.000566718
0.000585388
0.000601922
0.000615809
0.000629822
0.000642604
0.000657843
0.000672888
0.000688682
0.000702484
0.148905
0.181487
0.0757536
0.0444541
0.0303956
0.0157144
0.0136484
0.00964034
0.0111998
0.0116507
0.00985564
0.00962737
0.00791068
0.00535052
0.00309652
0.00120038
0.000741471
0.000671332
0.000626753
0.000630427
0.000635701
0.000656354
0.000671558
0.000706762
0.00073705
0.000752957
0.000806392
0.000834047
0.000872903
0.000906057
0.000943887
0.000979075
0.00100943
0.00104529
0.00108832
0.00111658
0.0011314
0.00115686
0.178954
0.198023
0.0800532
0.0201754
0.0128003
0.0106935
0.0029311
0.00205251
0.00155367
0.00148731
0.00143288
0.00141523
0.00113204
0.00094057
0.000744615
0.000510613
0.000406667
0.000362198
0.000318308
0.000311366
0.000302088
0.000298905
0.000298401
0.000309532
0.000319694
0.000327238
0.000361469
0.000383109
0.0004232
0.000471861
0.000506209
0.00054945
0.000587674
0.000627982
0.000656602
0.000679311
0.000699146
0.0555811
0.0641863
0.0199832
0.0100964
0.00789127
0.00899684
0.00251511
0.00177697
0.000983233
0.000774524
0.000626238
0.000524407
0.000490525
0.000393022
0.000357997
0.000276661
0.00025051
0.000217617
0.000204218
0.000185858
0.000179789
0.000168215
0.000159791
0.000154276
0.000151367
0.000148168
0.000147692
0.000149415
0.000154794
0.000164022
0.000167774
0.000178091
0.00018557
0.000192624
0.000197311
0.000200602
0.000202109
0.0509769
0.0201432
0.0119247
0.00896586
0.00618989
0.00416833
0.0021738
0.00146657
0.00105568
0.00077463
0.000652587
0.00047518
0.000353696
0.00029291
0.000255105
0.000223293
0.000198005
0.000185274
0.000180379
0.000164142
0.000153609
0.000148141
0.000134215
0.000126612
0.00012237
0.000113613
0.00010485
9.88463e-05
9.55414e-05
9.12645e-05
8.99717e-05
8.65552e-05
8.53575e-05
8.42155e-05
8.30518e-05
8.14106e-05
8.0405e-05
7.87681e-05
0.0845839
0.0163753
0.0114587
0.00659455
0.00415785
0.00384374
0.00179984
0.00125794
0.000871294
0.000771436
0.000631255
0.000396529
0.000324408
0.000270772
0.000233421
0.000212494
0.000186347
0.00017736
0.000169136
0.000164952
0.000151502
0.000145144
0.000133806
0.000126222
0.000120691
0.000111066
0.00010031
9.3064e-05
8.63219e-05
8.05976e-05
7.80062e-05
7.40849e-05
7.10853e-05
6.94988e-05
6.74743e-05
6.64038e-05
6.57372e-05
6.43201e-05
0.103333
0.0154414
0.00869297
0.00524572
0.00390081
0.00287013
0.00243534
0.00135407
0.000963159
0.000699347
0.000460669
0.000363041
0.00031846
0.00028853
0.000232279
0.000193129
0.000180074
0.000173112
0.000166475
0.000162953
0.000154368
0.000146692
0.000136772
0.000133767
0.000125156
0.00011129
0.000101483
9.3784e-05
8.42063e-05
7.84074e-05
7.43736e-05
7.1389e-05
6.68551e-05
6.51915e-05
6.24457e-05
6.14277e-05
6.03687e-05
0.107152
0.0241125
0.0112038
0.00541566
0.00394051
0.00228947
0.0016742
0.00126689
0.000806097
0.000540121
0.000422485
0.000359065
0.000331562
0.000296852
0.000197527
0.000177517
0.000169167
0.000161248
0.000156148
0.000152797
0.000147958
0.000147542
0.000147897
0.00014827
0.000134257
0.000112456
0.00010584
9.63158e-05
8.4083e-05
7.787e-05
7.34515e-05
7.08855e-05
6.56573e-05
6.35546e-05
6.03556e-05
5.89959e-05
5.72131e-05
0.0991546
0.0378401
0.0208355
0.00885777
0.00422587
0.00249064
0.00191214
0.000997332
0.000817298
0.000511407
0.000436762
0.000350903
0.00031072
0.000248944
0.000206518
0.000190519
0.000184317
0.00017837
0.000176174
0.000174969
0.000174574
0.000173547
0.000151161
0.00014412
0.000133523
0.000112068
0.000108041
9.68812e-05
7.83417e-05
7.32605e-05
6.80341e-05
6.65848e-05
6.10177e-05
5.89461e-05
5.56329e-05
5.42305e-05
5.2331e-05
0.115917
0.0646226
0.0383053
0.0200626
0.0104162
0.00690515
0.0035968
0.00243545
0.0018525
0.0015298
0.00148426
0.00120878
0.00103791
0.000850807
0.000815818
0.000807994
0.000768189
0.000763765
0.000803435
0.000797523
0.000797474
0.000733878
0.000381311
0.000187404
0.000122318
9.32722e-05
9.68069e-05
8.69985e-05
6.89018e-05
6.48436e-05
5.82836e-05
5.88902e-05
5.27273e-05
5.04772e-05
4.8147e-05
4.67949e-05
4.51423e-05
0.1374
0.0870196
0.0379562
0.0219025
0.0180495
0.0200334
0.0156726
0.0133167
0.011386
0.0104426
0.0101443
0.00887213
0.00777605
0.00680744
0.00628218
0.00572935
0.00511733
0.00452167
0.00451782
0.00387712
0.00348588
0.00256858
0.00156597
0.000881231
0.000327075
8.91739e-05
8.11728e-05
6.30806e-05
5.32755e-05
4.97498e-05
4.22224e-05
4.40385e-05
3.93408e-05
3.67063e-05
3.66223e-05
3.49129e-05
3.41151e-05
0.288003
0.151595
0.0595944
0.023604
0.0146679
0.0116849
0.0107569
0.00932805
0.0087964
0.0087027
0.00825951
0.00644989
0.00463421
0.00389619
0.00344033
0.00285521
0.00251326
0.00233137
0.00221323
0.00193467
0.00195404
0.00185031
0.00154338
0.00139986
0.000918409
8.79352e-05
3.96832e-05
3.51683e-05
3.32131e-05
3.22147e-05
3.10095e-05
2.98208e-05
2.75853e-05
2.69841e-05
2.56116e-05
2.48188e-05
2.31425e-05
0.202406
0.256993
0.149223
0.126417
0.10983
0.0672262
0.0460886
0.0348705
0.0302116
0.0237703
0.0204111
0.0187976
0.0135657
0.00784098
0.00336767
0.000709152
0.000395238
0.000413663
0.000440808
0.000452015
0.000478428
0.000491739
0.00050379
0.000525881
0.000535917
0.000554474
0.000565428
0.000583384
0.000601494
0.000617886
0.000633708
0.000648008
0.000661844
0.000676329
0.000691895
0.000704208
0.000715679
0.000722951
0.103034
0.116938
0.0596133
0.0281206
0.0241009
0.0130111
0.012046
0.0103281
0.0112195
0.0113766
0.010246
0.00838982
0.00511329
0.00296216
0.00168003
0.00100287
0.000776113
0.000732908
0.000697173
0.000707356
0.000716822
0.000739177
0.000758412
0.000789145
0.000821437
0.000837055
0.000878813
0.000904992
0.000936291
0.000967486
0.00100139
0.00103653
0.00106792
0.00110692
0.00115112
0.00117707
0.00119281
0.00121957
0.126103
0.199573
0.066688
0.0168161
0.00856428
0.00716479
0.00246278
0.00191289
0.00170273
0.00170192
0.00153164
0.00134336
0.00105853
0.00083644
0.000734329
0.000558084
0.000469564
0.000425218
0.000388815
0.000379965
0.000373738
0.00037247
0.000373386
0.000385068
0.000399669
0.000411227
0.000449673
0.000475067
0.00050857
0.00055456
0.000585368
0.000624097
0.000658229
0.00069293
0.00071869
0.000737418
0.000753773
0.0301132
0.0507357
0.0189878
0.00956899
0.00696538
0.00559012
0.00221057
0.00150793
0.00116633
0.000885927
0.000730846
0.000659162
0.000585571
0.000470936
0.000423031
0.000329204
0.000297515
0.00026
0.000242576
0.000222212
0.000214294
0.000202706
0.000192731
0.000187579
0.000184833
0.000182645
0.000184199
0.000187543
0.000193221
0.000204101
0.000208661
0.000218076
0.00022499
0.000229593
0.000231417
0.000231367
0.000229927
0.0184655
0.0182243
0.0110588
0.00967609
0.00537823
0.00381219
0.00219999
0.00155266
0.00121185
0.000873592
0.000718916
0.000541456
0.000434859
0.000359076
0.000308327
0.000265775
0.000228347
0.000209117
0.000198578
0.000178777
0.000168528
0.00016091
0.000146809
0.000138147
0.000133753
0.000126243
0.000117135
0.000112246
0.000109376
0.000106291
0.000105377
0.000103006
0.000102191
0.000100661
9.86139e-05
9.59861e-05
9.36152e-05
9.00657e-05
0.0211199
0.0124035
0.00952211
0.00584294
0.00396855
0.00327234
0.0018136
0.0013182
0.000991004
0.000863205
0.000646283
0.000469295
0.000404812
0.000320017
0.000277398
0.000242538
0.000204892
0.00019103
0.000177971
0.000171706
0.000158865
0.000152336
0.000139695
0.00013202
0.000126801
0.000118212
0.000106253
9.9978e-05
9.38191e-05
8.77349e-05
8.53941e-05
8.19703e-05
7.94173e-05
7.78925e-05
7.56635e-05
7.43249e-05
7.31346e-05
7.11352e-05
0.0259453
0.012552
0.00860195
0.00525946
0.00415878
0.00281168
0.0024116
0.00144007
0.00106721
0.000792309
0.000546859
0.000444558
0.000374786
0.000319913
0.000265668
0.000214923
0.000193105
0.000181611
0.000171975
0.00016782
0.000159094
0.000151268
0.000139487
0.000135347
0.00012895
0.000116922
0.000105434
9.88074e-05
9.06217e-05
8.30398e-05
7.93441e-05
7.64761e-05
7.25579e-05
7.09579e-05
6.81543e-05
6.7138e-05
6.60969e-05
0.0278084
0.0183362
0.0103625
0.00515375
0.00361371
0.0021851
0.00169516
0.00123936
0.00086371
0.000632634
0.000498345
0.000417814
0.000380974
0.000302883
0.000218851
0.000189126
0.000175545
0.000164962
0.000159413
0.000156026
0.000150283
0.000148025
0.00014622
0.00014571
0.000136194
0.000115987
0.000107726
0.000100501
8.99308e-05
8.19217e-05
7.71509e-05
7.46909e-05
7.02603e-05
6.83108e-05
6.49549e-05
6.37381e-05
6.23975e-05
0.0336045
0.0323226
0.0199265
0.00830838
0.0040624
0.00256126
0.00186036
0.00112459
0.000895364
0.000630007
0.000526129
0.000429825
0.000370682
0.000282511
0.000242037
0.000213118
0.000199582
0.000191955
0.000189899
0.000188473
0.000188153
0.000185669
0.000152868
0.000140673
0.000132242
0.000112699
0.00010886
0.000101039
8.44048e-05
7.82187e-05
7.15563e-05
7.00709e-05
6.57376e-05
6.39029e-05
5.99463e-05
5.87799e-05
5.74273e-05
0.0552021
0.0548226
0.0368462
0.0180472
0.00992474
0.00715857
0.0040002
0.00305118
0.00241158
0.00204002
0.00195685
0.00169889
0.00148708
0.00126271
0.00118146
0.00114468
0.00102154
0.000972052
0.000977809
0.000932104
0.000903459
0.000862557
0.000510306
0.000250574
0.000136328
9.97384e-05
9.56659e-05
8.96094e-05
7.58151e-05
7.01961e-05
6.10988e-05
6.15479e-05
5.75621e-05
5.59626e-05
5.17219e-05
5.10244e-05
4.99335e-05
0.125065
0.0801013
0.0407014
0.0263048
0.0229179
0.0237597
0.0186098
0.0168807
0.0146003
0.0132511
0.0128374
0.0114624
0.00997839
0.00881233
0.00809144
0.00743177
0.00660055
0.00561588
0.00535155
0.00461591
0.00393506
0.00307942
0.00190473
0.0012583
0.000428089
0.000114772
7.15945e-05
6.3605e-05
6.23532e-05
5.776e-05
4.40509e-05
4.6371e-05
4.38431e-05
4.18896e-05
3.85766e-05
3.88594e-05
3.83386e-05
0.206924
0.111602
0.0492673
0.0229223
0.0157152
0.0136432
0.0127896
0.0116985
0.0110908
0.0108511
0.0102108
0.00803362
0.00583931
0.00502875
0.00460369
0.00385302
0.00323977
0.00288294
0.00268109
0.00226571
0.00222946
0.00208822
0.00172849
0.0015631
0.00106782
0.000174257
4.95652e-05
3.76058e-05
3.58359e-05
3.30217e-05
3.21365e-05
3.12657e-05
2.92571e-05
2.80407e-05
2.68795e-05
2.62709e-05
2.42618e-05
0.172648
0.211988
0.079617
0.0802583
0.079441
0.0599079
0.0431224
0.0360292
0.0303766
0.0237552
0.0215183
0.0165089
0.00753519
0.00322257
0.00111318
0.000439553
0.000424994
0.000447911
0.000474316
0.000487622
0.000510559
0.000527643
0.000539042
0.000559033
0.000569216
0.000584523
0.00059525
0.000610391
0.000625418
0.000639787
0.000654433
0.000667846
0.000681225
0.00069611
0.000709804
0.000719578
0.000728119
0.000731703
0.0721543
0.0838786
0.0310038
0.0224839
0.0213107
0.01198
0.0116586
0.0112052
0.0116651
0.0116015
0.0101357
0.00600725
0.00299469
0.00176953
0.00116081
0.000946463
0.000808758
0.000782965
0.000757867
0.000771182
0.000784521
0.000806496
0.000828008
0.000853019
0.000882969
0.000898452
0.000932607
0.000956864
0.000983011
0.00101086
0.00104129
0.00107363
0.00110502
0.0011455
0.00118689
0.00120949
0.00122747
0.00125486
0.0721384
0.115574
0.0410913
0.0111207
0.00623858
0.00459972
0.00220339
0.00190634
0.00191787
0.0018735
0.00160241
0.00120381
0.000996473
0.000826411
0.000765843
0.000601469
0.000537913
0.000491366
0.000463403
0.000454384
0.000449902
0.000451221
0.000455293
0.000467324
0.000483243
0.000495488
0.000528069
0.00055312
0.00058154
0.000621577
0.00065012
0.000684081
0.000714355
0.000743166
0.000764297
0.000778068
0.000789819
0.0223333
0.0241786
0.0136922
0.00818127
0.00527633
0.00348254
0.0019891
0.00147502
0.00127524
0.00105605
0.000883992
0.000788108
0.000688415
0.000564722
0.00050188
0.00039984
0.000360443
0.000317482
0.000292565
0.000268173
0.000256815
0.00024438
0.000233242
0.0002274
0.000224088
0.000222078
0.000224676
0.000229108
0.000235239
0.000247726
0.000253824
0.000263684
0.000270851
0.000274544
0.000275729
0.000273052
0.000268991
0.0134475
0.0128005
0.0102943
0.00830922
0.0047921
0.00344575
0.00219459
0.00165382
0.00132445
0.00100406
0.000815013
0.00064241
0.000532673
0.000449751
0.000384926
0.00032795
0.000278373
0.000246265
0.00022442
0.000199547
0.000186517
0.000176098
0.000161743
0.000152198
0.000147123
0.00014016
0.000132089
0.000128406
0.00012618
0.000125015
0.000125095
0.000124756
0.000125116
0.000124406
0.00012277
0.000119898
0.000116725
0.000111923
0.0116497
0.0101974
0.00799955
0.0056342
0.00381592
0.00275442
0.00176121
0.00131692
0.0010768
0.000924252
0.000723379
0.000574264
0.000501701
0.000399695
0.000344178
0.000290907
0.000238073
0.000213739
0.000190398
0.000179466
0.00016511
0.00015756
0.0001441
0.000136397
0.000131262
0.000123243
0.000111386
0.000105978
0.000100409
9.49036e-05
9.28643e-05
9.0347e-05
8.88121e-05
8.78114e-05
8.61501e-05
8.49713e-05
8.37589e-05
8.16894e-05
0.0130209
0.01057
0.00800371
0.00533242
0.0041599
0.00279823
0.00229946
0.00150502
0.00119441
0.000896397
0.000670252
0.00055783
0.000465071
0.000382152
0.000320447
0.00025504
0.00021769
0.000194923
0.000178276
0.000171155
0.000161489
0.00015307
0.000139867
0.000134634
0.00012987
0.000119656
0.000107433
0.0001017
9.44225e-05
8.64902e-05
8.29362e-05
8.00389e-05
7.70693e-05
7.56761e-05
7.31291e-05
7.22067e-05
7.13554e-05
0.0149038
0.0151325
0.00955197
0.00492125
0.00334953
0.00217344
0.00173434
0.0012776
0.000979965
0.000747266
0.000591741
0.00049233
0.000416822
0.000340731
0.000263677
0.000217497
0.000191336
0.000172703
0.000163785
0.000158803
0.000152008
0.000146978
0.000142418
0.000140826
0.000134905
0.000118778
0.00010749
0.000101516
9.29203e-05
8.39304e-05
7.91876e-05
7.62819e-05
7.29766e-05
7.12504e-05
6.79407e-05
6.6828e-05
6.59233e-05
0.0234306
0.0271575
0.0183527
0.00797198
0.00404418
0.00258823
0.00184388
0.00127973
0.00101759
0.000769529
0.000632024
0.00052792
0.000441149
0.000364627
0.000305357
0.000256315
0.000227664
0.000210147
0.000204385
0.000200521
0.000198471
0.00019588
0.00016048
0.000142413
0.000130057