/*--------------------------------*- C++ -*----------------------------------*\
| =========                 |                                                 |
| \\      /  F ield         | OpenFOAM: The Open Source CFD Toolbox           |
|  \\    /   O peration     | Version:  2.3.1                                 |
|   \\  /    A nd           | Web:      www.OpenFOAM.org                      |
|    \\/     M anipulation  |                                                 |
\*---------------------------------------------------------------------------*/
FoamFile
{
    version     2.0;
    format      ascii;
    class       volScalarField;
    location    "15";
    object      nut;
}
// * * * * * * * * * * * * * * * * * * * * * * * * * * * * * * * * * * * * * //

dimensions      [0 2 -1 0 0 0 0];

internalField   nonuniform List<scalar> 
37632
(
0.00133029
0.00111397
0.000861959
0.000612868
0.000437935
0.000377243
0.000270659
0.000230906
0.00018093
0.000170285
0.000159766
0.000142481
0.00012611
0.000122591
0.000121425
0.000108022
5.3464e-05
2.01391e-05
1.57675e-05
1.61104e-05
1.60551e-05
1.61307e-05
1.63582e-05
1.62377e-05
1.66913e-05
1.68364e-05
1.69643e-05
1.72791e-05
1.79674e-05
1.85558e-05
1.90783e-05
1.93802e-05
1.97043e-05
2.00136e-05
2.02301e-05
2.05437e-05
2.13755e-05
2.2355e-05
0.000869386
0.000754199
0.000499698
0.000283291
0.000194241
0.000196519
0.000104412
0.000112038
8.70879e-05
0.000106531
9.41616e-05
9.68526e-05
8.08194e-05
7.3058e-05
6.20975e-05
5.29988e-05
2.44848e-05
1.97107e-05
1.90172e-05
1.94569e-05
1.90048e-05
1.90216e-05
1.91687e-05
1.94246e-05
1.93011e-05
1.9544e-05
1.99985e-05
2.01809e-05
2.09754e-05
2.10239e-05
2.20994e-05
2.21092e-05
2.23767e-05
2.27765e-05
2.3368e-05
2.37389e-05
2.4026e-05
2.45284e-05
0.000746068
0.000521608
0.00031992
0.00028735
0.000155935
0.000130424
7.61087e-05
6.55251e-05
3.79774e-05
3.23377e-05
3.01136e-05
3.21909e-05
3.43955e-05
2.93401e-05
2.2804e-05
2.23618e-05
1.63625e-05
1.56853e-05
1.50625e-05
1.47138e-05
1.40697e-05
1.38005e-05
1.37276e-05
1.3384e-05
1.3174e-05
1.31403e-05
1.32996e-05
1.33104e-05
1.41302e-05
1.40217e-05
1.50915e-05
1.49656e-05
1.64229e-05
1.69944e-05
1.70956e-05
1.72021e-05
1.75067e-05
0.000737103
0.000389054
0.000256688
0.000151174
0.000106321
6.54359e-05
4.47652e-05
3.20438e-05
3.07683e-05
2.52618e-05
2.23435e-05
2.15099e-05
1.8962e-05
1.85325e-05
1.70354e-05
1.61615e-05
1.51589e-05
1.46794e-05
1.40189e-05
1.38293e-05
1.30921e-05
1.27111e-05
1.24091e-05
1.18066e-05
1.15483e-05
1.10476e-05
1.09645e-05
1.05344e-05
1.06063e-05
1.03374e-05
1.05319e-05
1.05811e-05
1.12614e-05
1.13601e-05
1.13983e-05
1.16999e-05
1.18556e-05
0.000730658
0.000268545
0.000189854
0.000106373
8.47978e-05
6.6651e-05
7.04572e-05
3.89261e-05
3.53667e-05
2.60786e-05
2.23099e-05
1.92829e-05
1.80011e-05
1.74568e-05
1.63913e-05
1.59433e-05
1.56404e-05
1.47534e-05
1.44257e-05
1.3572e-05
1.31365e-05
1.28974e-05
1.21996e-05
1.17825e-05
1.1403e-05
1.07428e-05
1.05102e-05
9.91496e-06
9.73696e-06
9.33365e-06
9.15646e-06
9.09033e-06
9.055e-06
8.98635e-06
9.04832e-06
9.20093e-06
9.18034e-06
9.23596e-06
0.000734387
0.000269195
0.000194377
0.000115899
0.000104357
6.82666e-05
7.60851e-05
4.39816e-05
4.3431e-05
3.77918e-05
2.31875e-05
1.9321e-05
1.80617e-05
1.7384e-05
1.62928e-05
1.59213e-05
1.53315e-05
1.50523e-05
1.44926e-05
1.36101e-05
1.32963e-05
1.28913e-05
1.23783e-05
1.1974e-05
1.13749e-05
1.07264e-05
1.04591e-05
9.81115e-06
9.62407e-06
9.20294e-06
8.89032e-06
8.68286e-06
8.44532e-06
8.37647e-06
8.37391e-06
8.45152e-06
8.61525e-06
8.82875e-06
0.000729704
0.000265893
0.000140654
8.50514e-05
8.18689e-05
6.0847e-05
4.83129e-05
3.85838e-05
3.36203e-05
3.07823e-05
2.40605e-05
2.17379e-05
1.9923e-05
1.89836e-05
1.62582e-05
1.61614e-05
1.52184e-05
1.49942e-05
1.43273e-05
1.39622e-05
1.30578e-05
1.27425e-05
1.25402e-05
1.1764e-05
1.15186e-05
1.0729e-05
1.04269e-05
9.77295e-06
9.54082e-06
9.21628e-06
8.8244e-06
8.67026e-06
8.21506e-06
8.10289e-06
7.9161e-06
7.81183e-06
7.79992e-06
0.000735557
0.000271922
0.000141175
0.000129863
9.97839e-05
7.9543e-05
7.63934e-05
6.0228e-05
5.01872e-05
4.67641e-05
3.87216e-05
3.29575e-05
2.69678e-05
1.88898e-05
1.5952e-05
1.54672e-05
1.53319e-05
1.43431e-05
1.41061e-05
1.37399e-05
1.30445e-05
1.26774e-05
1.21676e-05
1.19685e-05
1.11325e-05
1.06292e-05
1.01274e-05
9.73239e-06
9.23179e-06
9.03173e-06
8.64449e-06
8.5197e-06
8.11019e-06
7.88153e-06
7.7352e-06
7.46934e-06
7.36435e-06
0.000739229
0.000285931
0.000138372
0.000122694
8.8385e-05
6.55077e-05
6.15132e-05
5.07143e-05
4.33741e-05
3.98982e-05
3.2148e-05
2.62663e-05
2.06752e-05
1.73609e-05
1.62067e-05
1.57441e-05
1.50112e-05
1.46884e-05
1.40003e-05
1.40108e-05
1.35287e-05
1.34163e-05
1.21937e-05
1.1721e-05
1.1094e-05
1.05391e-05
9.66318e-06
9.45678e-06
8.91671e-06
8.84857e-06
8.39039e-06
8.29573e-06
7.84813e-06
7.73837e-06
7.45569e-06
7.26342e-06
6.9916e-06
0.000776445
0.00035331
0.000197985
0.00015148
0.000119729
0.000116735
9.45112e-05
6.90858e-05
5.32018e-05
4.46514e-05
3.93669e-05
3.69711e-05
2.87774e-05
1.98026e-05
1.68494e-05
1.72913e-05
1.70647e-05
1.80332e-05
1.76661e-05
1.85209e-05
1.86142e-05
1.85444e-05
1.60301e-05
1.43457e-05
1.16235e-05
1.00812e-05
9.01157e-06
8.78824e-06
8.40125e-06
8.34079e-06
7.98867e-06
7.94034e-06
7.50284e-06
7.39928e-06
7.26069e-06
6.95978e-06
6.84691e-06
0.00076332
0.000384371
0.000168431
0.000138915
0.000117017
9.74542e-05
8.02549e-05
6.23441e-05
5.20175e-05
4.64237e-05
4.06351e-05
3.65624e-05
3.02623e-05
2.80169e-05
3.38647e-05
3.51842e-05
3.42821e-05
3.66267e-05
3.74214e-05
3.58603e-05
3.44419e-05
2.89567e-05
2.52388e-05
2.17014e-05
1.89382e-05
1.27191e-05
7.70534e-06
7.74358e-06
7.48349e-06
7.45914e-06
7.3314e-06
7.23053e-06
6.91065e-06
6.82064e-06
6.72551e-06
6.43549e-06
6.3879e-06
0.000715206
0.00056024
0.000367163
0.000217322
0.000139916
0.000111575
9.02232e-05
7.39469e-05
6.54948e-05
6.35912e-05
6.13824e-05
5.30366e-05
4.24794e-05
3.96193e-05
3.92603e-05
3.6831e-05
3.48261e-05
3.31207e-05
3.22885e-05
3.1617e-05
3.10746e-05
3.22061e-05
3.16493e-05
3.11308e-05
3.01222e-05
2.26325e-05
7.28391e-06
6.44103e-06
6.44828e-06
6.19042e-06
6.20498e-06
5.89033e-06
5.81072e-06
5.63473e-06
5.55641e-06
5.32797e-06
5.27284e-06
0.00168203
0.00190682
0.00167477
0.00127543
0.000947507
0.000791353
0.00060837
0.000483046
0.000406051
0.000385313
0.0003474
0.000305
0.000295326
0.000298802
0.000292892
0.000230216
9.91816e-05
4.2805e-05
4.1922e-05
4.17545e-05
4.40244e-05
4.33307e-05
4.50622e-05
4.61859e-05
4.6483e-05
4.82127e-05
4.80158e-05
4.97779e-05
5.16951e-05
5.30148e-05
5.38856e-05
5.41907e-05
5.50818e-05
5.56321e-05
5.5978e-05
5.69256e-05
5.85358e-05
6.0057e-05
0.00172924
0.00138832
0.00140669
0.000804595
0.000555262
0.000435614
0.000320787
0.000295289
0.000393172
0.000390701
0.000334776
0.000318803
0.000266514
0.000219044
0.000166695
0.000105611
7.27317e-05
7.30968e-05
6.93826e-05
6.70712e-05
7.39082e-05
7.07263e-05
7.75712e-05
8.16687e-05
8.25168e-05
8.40535e-05
9.24329e-05
9.49478e-05
0.000103071
0.000105663
0.000112848
0.000114756
0.000116382
0.000118461
0.000120497
0.000121379
0.000121122
0.000121779
0.00203303
0.000789932
0.000723776
0.000802192
0.000491914
0.000360696
0.000235311
0.000121663
0.000103121
7.45108e-05
6.98914e-05
7.20491e-05
5.28673e-05
4.89139e-05
4.56099e-05
4.85426e-05
4.78246e-05
5.17995e-05
4.55508e-05
5.22729e-05
4.91322e-05
4.96377e-05
4.8426e-05
4.98476e-05
4.81594e-05
4.97995e-05
5.25725e-05
5.37461e-05
6.13563e-05
6.33182e-05
7.25794e-05
7.66501e-05
8.65313e-05
9.35512e-05
9.46452e-05
9.6709e-05
9.80152e-05
0.00217296
0.000717449
0.000302871
0.000380625
0.000364077
0.000258991
0.000225964
0.000167002
0.000133948
0.000120302
7.62811e-05
5.9877e-05
4.47962e-05
3.9795e-05
5.52876e-05
4.91049e-05
6.31162e-05
5.31861e-05
4.71206e-05
6.24391e-05
5.38726e-05
5.16558e-05
5.10972e-05
5.00861e-05
4.65848e-05
4.47772e-05
4.15974e-05
4.08696e-05
3.89083e-05
3.95378e-05
3.80554e-05
4.15278e-05
4.25752e-05
4.42331e-05
4.42477e-05
4.59548e-05
4.56386e-05
0.00202166
0.000417867
0.000283674
0.000253156
0.000285186
0.000269569
0.000289705
0.0001883
0.000155414
0.000149355
0.000136512
9.83056e-05
8.6545e-05
7.35839e-05
7.71498e-05
6.61585e-05
7.353e-05
7.16059e-05
6.19813e-05
6.73473e-05
6.79836e-05
5.76103e-05
6.24587e-05
5.98807e-05
5.69382e-05
5.4634e-05
4.86325e-05
4.51433e-05
4.01964e-05
4.22928e-05
3.5066e-05
3.77793e-05
3.42144e-05
3.25318e-05
3.10874e-05
3.12913e-05
3.05896e-05
2.99197e-05
0.0020673
0.000353179
0.00022992
0.000212989
0.000284937
0.000259809
0.000251271
0.000107912
0.00010385
9.34229e-05
6.48577e-05
8.87073e-05
9.79282e-05
7.54964e-05
7.29443e-05
6.14261e-05
7.97931e-05
6.37409e-05
6.98969e-05
6.69612e-05
7.00346e-05
6.41617e-05
6.82161e-05
6.98069e-05
6.66212e-05
5.6665e-05
5.7352e-05
5.40541e-05
4.97413e-05
4.91305e-05
4.43084e-05
4.19401e-05
3.94541e-05
3.6006e-05
3.36087e-05
3.18152e-05
3.00248e-05
2.93055e-05
0.00207589
0.000305607
0.000152906
0.000199385
0.000188341
0.000237547
0.00018787
0.00011259
0.000102838
8.60508e-05
0.000113116
0.000128757
0.000121591
0.000121171
7.33848e-05
7.43955e-05
7.39806e-05
6.7574e-05
7.41737e-05
6.71331e-05
6.67968e-05
5.79825e-05
6.85823e-05
6.96204e-05
7.11564e-05
5.77362e-05
6.30531e-05
5.71541e-05
5.3537e-05
5.30104e-05
5.04858e-05
4.61353e-05
4.46934e-05
4.03963e-05
3.88196e-05
3.48157e-05
3.16021e-05
0.00210786
0.000390266
0.000297812
0.000335648
0.000232551
0.000188613
0.000198108
0.000152901
0.000115745
9.92117e-05
8.24039e-05
6.57557e-05
5.47759e-05
4.42772e-05
6.05611e-05
7.3747e-05
6.26609e-05
6.24717e-05
5.82089e-05
5.47537e-05
5.41775e-05
5.36964e-05
5.89621e-05
6.67085e-05
7.62381e-05
6.5801e-05
6.32979e-05
5.98245e-05
5.34785e-05
5.46082e-05
5.03782e-05
4.9921e-05
4.80562e-05
4.38731e-05
4.27692e-05
3.99878e-05
3.75125e-05
0.00214055
0.000487433
0.000330707
0.000267298
0.000141457
0.000136252
0.000100252
8.22737e-05
6.91721e-05
5.51057e-05
4.81562e-05
3.98278e-05
3.64834e-05
4.94256e-05
5.48865e-05
5.22621e-05
4.22764e-05
3.78943e-05
3.56602e-05
3.17868e-05
3.08995e-05
2.92299e-05
3.60059e-05
4.00498e-05
5.68856e-05
6.70046e-05
5.45074e-05
5.60751e-05
5.21645e-05
5.08841e-05
4.87758e-05
4.70518e-05
4.68873e-05
4.24051e-05
4.30952e-05
3.95843e-05
3.76539e-05
0.00217782
0.000710436
0.000609417
0.000475825
0.000353088
0.000311298
0.000186362
0.000150248
0.000107492
8.67444e-05
7.93756e-05
7.36633e-05
6.2613e-05
4.45977e-05
3.7475e-05
4.53278e-05
4.42306e-05
5.017e-05
5.06352e-05
5.27124e-05
5.10904e-05
4.74272e-05
3.17951e-05
2.51383e-05
3.15996e-05
5.23378e-05
5.63173e-05
4.28014e-05
4.5116e-05
4.11565e-05
4.12763e-05
3.76646e-05
3.88717e-05
3.54443e-05
3.67528e-05
3.49992e-05
3.35504e-05
0.00211844
0.000716384
0.000463715
0.00043594
0.000250279
0.000264857
0.000342913
0.000232053
0.000192298
0.000175603
0.000156064
0.000144764
0.000123991
0.000119694
0.00016388
0.000180614
0.00017987
0.000190136
0.000200986
0.000191939
0.000179356
0.000125715
8.44663e-05
6.1962e-05
4.20673e-05
3.01699e-05
2.49646e-05
2.00222e-05
2.18666e-05
2.0372e-05
2.35755e-05
2.27246e-05
2.29938e-05
2.19329e-05
2.29134e-05
2.2423e-05
2.1811e-05
0.00165706
0.00119578
0.000760738
0.000445097
0.000300085
0.000239591
0.00020129
0.000169276
0.000155877
0.000154846
0.000150913
0.000132178
0.000107119
9.62364e-05
9.49415e-05
9.19474e-05
9.10597e-05
9.02592e-05
9.13717e-05
8.82908e-05
8.96993e-05
8.95237e-05
8.41344e-05
8.14871e-05
7.34306e-05
3.99996e-05
1.42197e-05
1.35678e-05
1.35051e-05
1.30523e-05
1.27542e-05
1.26055e-05
1.20611e-05
1.18667e-05
1.16865e-05
1.12244e-05
1.10792e-05
0.00134127
0.00159305
0.00142603
0.00119749
0.000980385
0.000763311
0.000607007
0.000477869
0.000423612
0.000394689
0.000347735
0.000318916
0.000318171
0.000316454
0.000298557
0.000202995
7.54406e-05
4.57403e-05
4.70733e-05
4.75195e-05
4.93136e-05
4.94397e-05
5.0584e-05
5.18395e-05
5.22668e-05
5.36921e-05
5.41231e-05
5.54706e-05
5.70517e-05
5.82196e-05
5.91238e-05
5.97339e-05
6.05048e-05
6.10557e-05
6.1682e-05
6.25753e-05
6.3649e-05
6.47187e-05
0.00130036
0.00138031
0.000928363
0.0007127
0.000629783
0.000344227
0.000318113
0.000224903
0.000300667
0.000342883
0.000290535
0.000292004
0.000268997
0.000207723
0.000167515
0.000120614
0.000105131
0.000106286
0.000103336
0.000103986
0.00010644
0.000107801
0.000110902
0.000116638
0.00011959
0.000122452
0.000130525
0.00013457
0.000142039
0.000145261
0.000149698
0.00015176
0.00015362
0.000156184
0.000158956
0.000160657
0.000161333
0.000162398
0.0015644
0.000973849
0.000673553
0.000554518
0.000455403
0.000280437
0.000210819
0.000154743
0.00010146
8.9251e-05
8.46154e-05
8.14977e-05
6.20355e-05
5.59679e-05
5.83231e-05
7.91878e-05
8.24063e-05
8.17928e-05
7.6082e-05
7.69271e-05
7.38557e-05
7.24336e-05
7.17275e-05
7.21661e-05
7.17441e-05
7.27114e-05
7.73188e-05
7.98738e-05
8.82828e-05
9.67084e-05
0.00010667
0.00011431
0.000122332
0.000128704
0.000130157
0.000131987
0.000133036
0.000880959
0.000631614
0.000240691
0.000387185
0.000473338
0.000624081
0.000353315
0.000307835
0.000191172
0.000134524
0.000116003
8.14506e-05
7.92578e-05
6.41039e-05
7.77648e-05
8.77525e-05
9.42064e-05
9.01258e-05
9.00489e-05
8.95998e-05
8.88889e-05
8.3801e-05
7.97313e-05
7.5363e-05
7.17912e-05
6.71634e-05
6.18393e-05
5.75844e-05
5.65567e-05
5.55726e-05
5.48651e-05
5.58697e-05
5.70394e-05
5.79462e-05
5.81037e-05
5.88901e-05
5.86092e-05
0.00099879
0.000292
0.000275523
0.000321605
0.000358183
0.000465382
0.000309848
0.000270297
0.000230147
0.000190348
0.000199839
0.000164589
0.000130864
0.000116436
0.000119242
0.000114071
0.000115781
0.000115675
0.000116687
0.000119636
0.000117352
0.000116621
0.000112552
0.000109066
0.000106505
9.84681e-05
9.04527e-05
8.06408e-05
7.45446e-05
6.86495e-05
6.25374e-05
5.80645e-05
5.38621e-05
5.03499e-05
4.82476e-05
4.698e-05
4.5778e-05
4.49865e-05
0.00128496
0.000302755
0.000375497
0.00024529
0.00026279
0.000375828
0.000250117
0.000181892
0.000148997
0.000122604
0.000117524
0.000154718
0.000143207
0.00014018
0.000128042
0.000125185
0.000131374
0.000130203
0.000133025
0.000132918
0.000133759
0.000130425
0.000133129
0.000131179
0.000128653
0.00011843
0.000115599
0.000105839
9.87601e-05
9.19732e-05
8.6424e-05
7.90341e-05
7.26486e-05
6.71308e-05
6.21582e-05
5.78934e-05
5.44114e-05
5.24814e-05
0.00139078
0.000254236
0.000220204
0.000232437
0.000236375
0.00034934
0.000288841
0.000217756
0.000172765
0.000148517
0.000170384
0.000174006
0.000157141
0.00015644
0.000134504
0.000128116
0.000126937
0.00012654
0.00013092
0.000126683
0.000128028
0.000125048
0.000136898
0.000140422
0.000142636
0.000126101
0.00012865
0.000119263
0.000110918
0.000107296
0.000100458
9.70172e-05
8.83056e-05
8.34959e-05
7.75623e-05
7.11727e-05
6.47998e-05
0.0014226
0.000423847
0.000342238
0.000272194
0.000222675
0.000220614
0.000197598
0.000169833
0.000138556
9.01275e-05
8.41249e-05
7.95615e-05
7.08742e-05
7.77944e-05
0.000105929
0.000110486
0.00010055
9.83086e-05
9.53785e-05
9.03953e-05
8.88763e-05
9.11797e-05
0.000117804
0.000131647
0.000136718
0.00013083
0.000130286
0.000126321
0.000115902
0.000114804
0.000107779
0.000107749
0.000100332
9.62953e-05
9.12754e-05
8.68596e-05
8.02283e-05
0.00141355
0.000595001
0.000496343
0.000296542
0.000189982
0.000195486
0.000160657
0.000134228
9.26995e-05
7.68305e-05
7.4095e-05
7.29849e-05
6.61711e-05
7.36137e-05
6.72833e-05
6.20556e-05
5.72657e-05
5.07457e-05
4.45624e-05
4.01019e-05
3.8036e-05
3.80937e-05
5.87113e-05
7.50034e-05
9.46966e-05
0.000111297
0.000115692
0.000115024
0.000104863
0.000103649
9.91469e-05
0.000101491
9.70801e-05
9.32731e-05
9.18878e-05
8.89384e-05
8.46184e-05
0.0014536
0.000922295
0.000809775
0.000621782
0.000444983
0.000316241
0.000190083
0.000135973
0.00010304
8.50691e-05
8.13297e-05
7.20903e-05
6.47736e-05
5.88844e-05
5.87324e-05
6.28626e-05
6.46489e-05
7.06995e-05
7.31731e-05
7.39238e-05
7.19945e-05
5.86265e-05
3.87752e-05
2.99877e-05
3.50026e-05
6.82621e-05
8.46907e-05
8.11984e-05
7.99831e-05
7.846e-05
7.69197e-05
7.90019e-05
7.67122e-05
7.39555e-05
7.49344e-05
7.37263e-05
7.1665e-05
0.0014234
0.00102516
0.000655526
0.000519978
0.000432343
0.000509611
0.00048515
0.000390856
0.000347002
0.00032293
0.00030969
0.000284061
0.000262537
0.000251525
0.000257944
0.000264592
0.000256387
0.000254272
0.000265757
0.000251083
0.000233581
0.000161169
9.83096e-05
6.23948e-05
3.6367e-05
3.62769e-05
4.39384e-05
3.68877e-05
3.85367e-05
3.74405e-05
3.76994e-05
3.98638e-05
4.15393e-05
3.90368e-05
4.1008e-05
4.07279e-05
4.07651e-05
0.00156542
0.00115722
0.000735485
0.00042989
0.000304716
0.000253899
0.000231816
0.000205724
0.000197058
0.000196902
0.000192849
0.000171281
0.000143676
0.000127884
0.000121042
0.000112836
0.000109506
0.000107413
0.000106322
0.000101423
0.000102813
0.000100729
9.27265e-05
8.88564e-05
7.48524e-05
2.7967e-05
1.50093e-05
1.43647e-05
1.40657e-05
1.3949e-05
1.345e-05
1.33403e-05
1.28107e-05
1.25725e-05
1.24488e-05
1.19132e-05
1.17262e-05
0.0010895
0.00135472
0.00124599
0.00112344
0.000962516
0.000739524
0.000589638
0.000473551
0.000431767
0.000394994
0.000347593
0.000336118
0.000327954
0.000306622
0.000251735
0.000130531
5.44245e-05
4.86173e-05
5.04134e-05
5.10155e-05
5.27415e-05
5.32408e-05
5.40786e-05
5.53642e-05
5.58565e-05
5.70883e-05
5.76797e-05
5.88323e-05
6.00253e-05
6.10056e-05
6.18631e-05
6.25726e-05
6.32819e-05
6.39212e-05
6.46752e-05
6.54117e-05
6.61769e-05
6.68428e-05
0.00134712
0.0014361
0.00113304
0.000697893
0.000455995
0.000332648
0.000259056
0.000215424
0.000267252
0.000298649
0.000263596
0.000254069
0.000230784
0.000178128
0.000146566
0.000135027
0.00012463
0.0001257
0.000124026
0.000126321
0.000129088
0.000131456
0.000134963
0.000140716
0.000145314
0.000148388
0.000155261
0.000159375
0.000163774
0.00016587
0.000168857
0.00017093
0.000173021
0.000175726
0.0001785
0.000180435
0.00018138
0.000182418
0.00139446
0.00105602
0.000906394
0.000567352
0.000437268
0.000382845
0.000220665
0.000169554
0.000109314
9.88982e-05
9.90833e-05
8.82116e-05
8.2265e-05
7.22184e-05
9.44312e-05
0.000109312
0.000102116
0.000101047
9.57086e-05
9.51414e-05
9.29832e-05
9.14184e-05
9.09972e-05
9.22465e-05
9.35566e-05
9.52526e-05
0.000101417
0.000106409
0.000116885
0.000127317
0.000134109
0.000140711
0.000145578
0.000149167
0.000150561
0.000151719
0.000152168
0.000517701
0.000607456
0.000330942
0.000587189
0.00064915
0.000898884
0.000429398
0.000363712
0.000229664
0.000192973
0.000148313
0.000110922
0.000117549
9.98289e-05
0.000115293
0.000109434
0.000109789
0.000105355
0.000104774
0.000101219
0.000100333
9.60243e-05
9.01425e-05
8.53458e-05
8.20765e-05
7.88322e-05
7.23391e-05
7.00113e-05
6.95579e-05
6.90245e-05
6.86994e-05
6.84791e-05
6.91228e-05
6.89946e-05
6.87217e-05
6.83111e-05
6.75068e-05
0.000381328
0.000365493
0.000349602
0.000533711
0.00055772
0.000598036
0.000445428
0.00037117
0.000312161
0.000261009
0.000245083
0.000186737
0.000162254
0.000147074
0.000143627
0.000137641
0.00013612
0.000136859
0.000139412
0.000141785
0.000140158
0.000140275
0.000133849
0.000127735
0.000124209
0.000115858
0.000103647
9.40334e-05
8.79849e-05
8.11474e-05
7.75894e-05
7.16678e-05
6.80258e-05
6.48328e-05
6.24487e-05
6.00658e-05
5.85128e-05
5.69236e-05
0.000569907
0.000337649
0.000492531
0.000373655
0.000396471
0.000607633
0.000403856
0.000312365
0.000250213
0.000226503
0.000234968
0.000197954
0.000185556
0.000169937
0.000160558
0.00015623
0.000155503
0.000156232
0.000160102
0.000162833
0.000163929
0.000164305
0.000165532
0.000161747
0.000159393
0.000152498
0.000142375
0.000131935
0.000122733
0.000113184
0.000108213
0.000100842
9.37328e-05
8.9599e-05
8.37169e-05
8.00412e-05
7.69948e-05
7.37794e-05
0.000682738
0.0003323
0.000307149
0.000288896
0.000285405
0.000459091
0.00048247
0.000340824
0.000288609
0.000234929
0.000210266
0.000191656
0.000182041
0.000176972
0.000164057
0.000152397
0.000149219
0.000151593
0.000153537
0.00015443
0.000156149
0.000157792
0.000170707
0.000176995
0.000175351
0.000165639
0.000161339
0.000152091
0.000143916
0.000135456
0.000128803
0.000124311
0.000115452
0.000111106
0.000104013
9.9593e-05
9.36567e-05
0.000725544
0.000501963
0.00042724
0.000327065
0.000283756
0.000311373
0.000336039
0.000283163
0.000234454
0.000175844
0.000160118
0.000148515
0.000139703
0.000126632
0.000123408
0.000118183
0.000115872
0.000110949
0.00010495
9.96359e-05
9.41988e-05
9.74689e-05
0.000135665
0.000157593
0.00016419
0.000163808
0.000166146
0.000160911
0.000152267
0.000145922
0.000140244
0.000138514
0.000130989
0.000127201
0.000121153
0.000117731
0.000111906
0.000725988
0.000799955
0.000628751
0.000338793
0.000251746
0.000248086
0.000260218
0.000174008
0.000162432
0.000115757
0.000104303
9.21991e-05
8.66041e-05
7.8247e-05
6.74566e-05
6.18292e-05
5.84811e-05
5.39665e-05
4.57415e-05
4.10084e-05
3.62127e-05
3.5507e-05
5.50136e-05
8.16005e-05
0.00010389
0.000128322
0.000145064
0.000143971
0.00013553
0.000132764
0.000128773
0.000129903
0.000126757
0.000124572
0.0001209
0.000119195
0.000116466
0.000909844
0.00108727
0.000914569
0.000675343
0.000455332
0.000335465
0.000214406
0.000154052
0.00012554
0.000106023
0.000103784
9.24184e-05
8.41229e-05
7.6885e-05
7.82294e-05
8.15868e-05
8.2731e-05
8.46648e-05
8.92535e-05
9.01662e-05
8.65174e-05
7.23752e-05
4.2351e-05
2.84901e-05
3.21527e-05
6.69603e-05
8.95936e-05
9.8046e-05
9.90831e-05
9.82323e-05
9.57349e-05
0.000100387
9.91783e-05
9.71259e-05
9.63042e-05
9.62522e-05
9.62445e-05
0.00121349
0.00127572
0.000759098
0.000667483
0.000607639
0.000658666
0.000560234
0.000501813
0.000452945
0.000422442
0.000408554
0.000384445
0.000358677
0.000335732
0.000334971
0.000332694
0.000317832
0.000304685
0.000309139
0.0002906
0.000267435
0.000193985
0.000117556
7.43523e-05
3.50717e-05
3.50472e-05
4.55075e-05
4.52852e-05
4.57037e-05
4.5881e-05
4.16696e-05
4.74751e-05
4.92512e-05
4.74573e-05
4.87133e-05
4.83689e-05
5.30528e-05
0.00140921
0.00105749
0.000665295
0.000402453
0.000305993
0.000270164
0.000258345
0.000240025
0.000232713
0.000231773
0.000226645
0.000202386
0.000171612
0.000157052
0.000147771
0.000134753
0.000126398
0.000121737
0.000118813
0.000111057
0.000111537
0.000108563
9.91534e-05
9.44636e-05
7.68488e-05
2.40141e-05
1.59153e-05
1.4981e-05
1.45599e-05
1.43401e-05
1.40702e-05
1.3795e-05
1.32703e-05
1.31257e-05
1.27863e-05
1.25863e-05
1.21553e-05
0.00108253
0.00123731
0.00105039
0.000963826
0.000894007
0.000690192
0.000555953
0.000470142
0.000437788
0.000390966
0.000356648
0.000345538
0.000302519
0.000233281
0.000160298
7.4336e-05
5.04081e-05
5.12232e-05
5.28972e-05
5.35792e-05
5.51473e-05
5.59128e-05
5.66048e-05
5.78342e-05
5.83816e-05
5.93831e-05
5.99636e-05
6.09059e-05
6.18407e-05
6.26772e-05
6.34757e-05
6.41879e-05
6.48702e-05
6.55762e-05
6.63289e-05
6.69198e-05
6.74672e-05
6.78152e-05
0.00133492
0.0013366
0.00110752
0.0005215
0.000404553
0.000289854
0.000242684
0.000225761
0.000256875
0.00028248
0.00025687
0.000225777
0.00018773
0.000147975
0.000138886
0.000148026
0.000138347
0.000141164
0.000140577
0.000143951
0.000147719
0.000150345
0.000154494
0.000159901
0.000164532
0.000167288
0.000171342
0.000174331
0.000177201
0.000178745
0.000180915
0.000183153
0.000185218
0.000187625
0.000190293
0.000191965
0.000192618
0.000193372
0.00183786
0.00169358
0.00110338
0.000710403
0.00049009
0.000443707
0.000190972
0.000145552
0.000112362
0.00010425
0.000107969
9.13776e-05
0.000107153
0.000108138
0.000135515
0.000126204
0.000121835
0.0001198
0.000115337
0.000114188
0.00011311
0.000112027
0.000112331
0.000114505
0.0001171
0.000120851
0.00012978
0.000135734
0.000143551
0.000152266
0.000156501
0.000160156
0.000162811
0.000164897
0.000165496
0.000165612
0.000165149
0.000684069
0.0010308
0.000627363
0.000787999
0.000743445
0.000753253
0.000423655
0.000327398
0.000266605
0.000214519
0.000179724
0.000148695
0.000153952
0.000140002
0.00014121
0.000128005
0.000125057
0.000116869
0.000114733
0.000109993
0.00010841
0.000104722
9.82649e-05
9.4286e-05
9.08498e-05
8.85753e-05
8.37954e-05
8.24237e-05
8.21434e-05
8.24387e-05
8.23616e-05
8.22912e-05
8.27294e-05
8.20064e-05
8.11298e-05
7.99759e-05
7.85106e-05
0.000371037
0.000711354
0.000531718
0.000734783
0.000618086
0.000681545
0.000499895
0.000416095
0.000359297
0.000288947
0.000260344
0.000207054
0.000185616
0.000168113
0.000156756
0.000148407
0.000141246
0.000138148
0.000140836
0.000141733
0.000141593
0.000141829
0.000135209
0.000128009
0.000124393
0.000116901
0.00010348
9.59177e-05
9.00524e-05
8.46165e-05
8.1936e-05
7.7735e-05
7.60003e-05
7.40373e-05
7.23813e-05
7.09511e-05
6.94963e-05
6.77896e-05
0.000303855
0.00055569
0.000620142
0.000529728
0.000480852
0.000668773
0.000480986
0.00039643
0.00033292
0.000299
0.000268371
0.000217476
0.000201986
0.000180058
0.000167622
0.000160884
0.000154701
0.000155475
0.000160741
0.00016537
0.000168749
0.000170996
0.000172944
0.000169676
0.000167816
0.000161653
0.000146245
0.000136512
0.000126141
0.000115705
0.000111112
0.000105036
9.99609e-05
9.73052e-05
9.36816e-05
9.19744e-05
9.00271e-05
8.79048e-05
0.00034662
0.000530643
0.000438444
0.000394433
0.000367625
0.000519276
0.000561966
0.000408387
0.000357318
0.000297738
0.000240597
0.000211574
0.000193357
0.000180999
0.000166253
0.000154547
0.000148526
0.000152472
0.00015514
0.000157694
0.000161229
0.000164666
0.000177527
0.000184857
0.000186294
0.000181068
0.000171343
0.000163593
0.000155195
0.000143394
0.0001372
0.000131935
0.000124676
0.000121239
0.000115674
0.000113222
0.000110253
0.000398169
0.000620919
0.000509842
0.00040125
0.000392301
0.000386944
0.000407921
0.000333575
0.000283819
0.000232605
0.000198809
0.000181289
0.000173527
0.000151673
0.000124189
0.000115364
0.000112262
0.000107749
0.00010289
9.78198e-05
9.04747e-05
9.25879e-05
0.000128767
0.000154965
0.000171699
0.000176374
0.000176876
0.00017276
0.0001669
0.000156872
0.000152335
0.000149255
0.000143354
0.000140299
0.000135015
0.000132628
0.000129421
0.00057958
0.000950754
0.000721784
0.000419572
0.00030692
0.000268205
0.000274666
0.000196953
0.000174751
0.000134113
0.000115723
0.000102363
9.34531e-05
7.57358e-05
6.67515e-05
5.94553e-05
5.58461e-05
5.26054e-05
4.67933e-05
4.12356e-05
3.57114e-05
3.38833e-05
4.38552e-05
6.56178e-05
9.77146e-05
0.000129318
0.000153948
0.000156368
0.000149391
0.000145355
0.000140774
0.000140996
0.000139712
0.000138789
0.000135376
0.000134317
0.000133428
0.0008964
0.00123173
0.000976761
0.000700218
0.000455611
0.000337953
0.000226108
0.000175739
0.000149978
0.000130142
0.00012665
0.000117793
0.000108122
9.96629e-05
0.000100073
0.000102105
9.9126e-05
0.000100118
0.000103564
0.000101541
9.7239e-05
8.71241e-05
5.21715e-05
3.29413e-05
2.9015e-05
6.031e-05
9.12653e-05
0.000107676
0.000108169
0.000106718
0.000103447
0.000107727
0.00010958
0.000109846
0.000107335
0.000108169
0.000110003
0.00178527
0.00132756
0.000857638
0.000803048
0.000749551
0.000733022
0.000627139
0.000582991
0.000539095
0.000499903
0.000483883
0.000460534
0.000429765
0.000403448
0.000397638
0.000393522
0.000375509
0.000351166
0.000345452
0.000325107
0.000294384
0.000231908
0.000142288
9.55444e-05
4.19214e-05
2.90534e-05
3.76733e-05
4.52954e-05
5.30248e-05
5.20717e-05
4.31546e-05
4.96283e-05
5.45016e-05
5.46933e-05
5.15318e-05
5.41842e-05
6.01152e-05
0.00126145
0.000922957
0.000593146
0.000388842
0.000313695
0.000290853
0.000281527
0.000268965
0.000261657
0.000259191
0.000252431
0.00022618
0.000192809
0.00017841
0.000170782
0.000156483
0.000143542
0.000135364
0.000130759
0.000120188
0.000119167
0.00011535
0.000104938
9.98095e-05
8.27723e-05
3.34369e-05
1.7813e-05
1.54937e-05
1.51222e-05
1.45174e-05
1.43243e-05
1.41276e-05
1.36655e-05
1.3379e-05
1.30997e-05
1.29493e-05
1.24457e-05
0.00100887
0.00112532
0.000783399
0.000764263
0.000751748
0.000641957
0.000528649
0.000473996
0.000440434
0.000389478
0.000369525
0.00033335
0.00023163
0.000151914
9.18111e-05
5.40582e-05
5.18744e-05
5.33232e-05
5.48818e-05
5.56543e-05
5.6973e-05
5.79223e-05
5.85509e-05
5.96294e-05
6.0168e-05
6.0971e-05
6.15249e-05
6.23e-05
6.30596e-05
6.37794e-05
6.45058e-05
6.51636e-05
6.58131e-05
6.65286e-05
6.71833e-05
6.76482e-05
6.80542e-05
6.82261e-05
0.00111492
0.00121685
0.000797919
0.000445124
0.000389511
0.000259571
0.000237341
0.000240441
0.000264088
0.000273185
0.000243292
0.000191847
0.0001608
0.000145521
0.000147511
0.000156486
0.000150737
0.000154817
0.000155236
0.000158819
0.00016296
0.000166022
0.000169823
0.000174088
0.000177594
0.000180019
0.0001828
0.000184991
0.000186872
0.000188121
0.000190074
0.000191931
0.000193576
0.000195693
0.000198011
0.000199111
0.000199345
0.000199852
0.00175994
0.00167229
0.00118155
0.000660466
0.000428443
0.00036004
0.000164462
0.000132211
0.000109307
0.000102602
0.000101721
0.000110422
0.000139319
0.000147291
0.000160765
0.000146547
0.00014448
0.000140946
0.000137871
0.00013678
0.000136373
0.000136728
0.000138281
0.000141598
0.000144565
0.000148624
0.000155673
0.000160922
0.000166272
0.000172114
0.000173917
0.00017611
0.000177583
0.000178481
0.000178274
0.000177348
0.000175819
0.000975138
0.000936821
0.000806169
0.000853482
0.000692445
0.000574558
0.000393298
0.000321521
0.000281258
0.000241593
0.000218586
0.000196833
0.000192435
0.000176463
0.000169577
0.000152465
0.000146384
0.000133924
0.000129709
0.000123163
0.000120434
0.000116731
0.000110672
0.000106661
0.000103029
0.000100969
9.74935e-05
9.65414e-05
9.61527e-05
9.7154e-05
9.73411e-05
9.79145e-05
9.83247e-05
9.75587e-05
9.69971e-05
9.50108e-05
9.2891e-05
0.000666778
0.000865394
0.00072843
0.000847704
0.000688761
0.00066893
0.000510679
0.00043898
0.000382098
0.000316872
0.000281974
0.000236919
0.00021409
0.000193735
0.000177584
0.000162805
0.000152551
0.000141466
0.000140525
0.000138022
0.00013849
0.000137971
0.0001327
0.000125574
0.000121906
0.000114497
0.000102904
9.7174e-05
9.15409e-05
8.75123e-05
8.55522e-05
8.33053e-05
8.26041e-05
8.1518e-05
8.07218e-05
7.97226e-05
7.84966e-05
7.69396e-05
0.000511611
0.00079155
0.000728164
0.000694946
0.000600861
0.000633204
0.000491416
0.000410946
0.000361857
0.000323356
0.000284809
0.000241909
0.000222986
0.000197501
0.000179273
0.000165138
0.000152144
0.000147513
0.000150274
0.000154188
0.000159691
0.000163359
0.000166211
0.000164309
0.00016378
0.00015766
0.000140421
0.00013177
0.000121387