/*--------------------------------*- C++ -*----------------------------------*\
| =========                 |                                                 |
| \\      /  F ield         | OpenFOAM: The Open Source CFD Toolbox           |
|  \\    /   O peration     | Version:  2.3.1                                 |
|   \\  /    A nd           | Web:      www.OpenFOAM.org                      |
|    \\/     M anipulation  |                                                 |
\*---------------------------------------------------------------------------*/
FoamFile
{
    version     2.0;
    format      ascii;
    class       volScalarField;
    location    "15";
    object      p;
}
// * * * * * * * * * * * * * * * * * * * * * * * * * * * * * * * * * * * * * //

dimensions      [0 2 -2 0 0 0 0];

internalField   nonuniform List<scalar> 
37632
(
0
5.30792
2.82851
1.69079
1.16986
1.00951
1.00045
0.90109
0.875825
0.79751
0.783713
0.775276
0.765999
0.754975
0.778616
0.832349
0.862964
0.847042
0.830737
0.82097
0.815354
0.812191
0.810105
0.808885
0.808121
0.80761
0.807325
0.807079
0.807
0.806881
0.806806
0.806757
0.806715
0.806679
0.806668
0.806673
0.80668
0.806671
-0.917949
0.761462
0.718188
0.41871
0.459194
0.415502
0.713043
0.733011
0.762433
0.759173
0.748879
0.756381
0.761821
0.739788
0.736302
0.790133
0.828456
0.827549
0.822576
0.817506
0.813722
0.811288
0.809546
0.808516
0.807827
0.807381
0.807115
0.806922
0.806843
0.806755
0.806692
0.806656
0.806619
0.80659
0.806589
0.806594
0.806605
0.806602
0.816952
0.866584
0.517763
0.807698
0.876932
0.729309
0.718395
0.782791
0.765867
0.789178
0.782311
0.784646
0.786501
0.790676
0.796753
0.808607
0.819109
0.81898
0.816895
0.814165
0.811744
0.810018
0.808756
0.807961
0.807408
0.807081
0.80687
0.806721
0.806677
0.806635
0.806583
0.806582
0.806563
0.806548
0.80656
0.806568
0.806567
1.07611
1.21341
0.479936
0.70878
0.715706
0.819225
0.744362
0.783499
0.765874
0.763745
0.770885
0.773079
0.776057
0.77942
0.787545
0.802725
0.810549
0.812473
0.812128
0.810951
0.809697
0.808643
0.8078
0.807262
0.806888
0.80671
0.80659
0.806521
0.806533
0.806517
0.806512
0.806536
0.806533
0.806523
0.806551
0.806563
0.806555
0.821745
0.968629
0.73286
0.805393
0.71444
0.784824
0.785217
0.785511
0.794318
0.79237
0.788344
0.79272
0.793044
0.79558
0.798573
0.803052
0.806722
0.80836
0.808669
0.808295
0.807729
0.807097
0.806655
0.806433
0.806298
0.806278
0.806304
0.806328
0.806409
0.806418
0.806457
0.806498
0.806496
0.806511
0.806544
0.80655
0.80655
0.806574
0.721624
0.700671
0.690858
0.75519
0.737581
0.788644
0.770776
0.776435
0.781277
0.775806
0.783312
0.787296
0.789403
0.793292
0.797387
0.801594
0.804114
0.805636
0.806175
0.806173
0.806003
0.805828
0.805672
0.805617
0.805671
0.805836
0.805997
0.806159
0.806298
0.806354
0.806423
0.806468
0.806499
0.806519
0.806542
0.806551
0.806566
0.806576
0.727871
0.642695
0.718511
0.767768
0.775305
0.781802
0.786282
0.791037
0.790274
0.792197
0.794572
0.794013
0.793103
0.79332
0.797998
0.800157
0.802134
0.803371
0.804
0.804155
0.804141
0.804135
0.804154
0.804446
0.804841
0.805357
0.80573
0.806023
0.806207
0.806325
0.80641
0.806472
0.8065
0.806535
0.806558
0.806576
0.806591
0.823349
0.755618
0.755541
0.75813
0.772853
0.783959
0.780213
0.789927
0.789193
0.789252
0.792225
0.792535
0.79195
0.797583
0.800517
0.800297
0.801463
0.801856
0.802314
0.802292
0.802396
0.802665
0.803238
0.803796
0.804429
0.805135
0.805608
0.805976
0.806202
0.806332
0.806431
0.806481
0.806518
0.806545
0.806572
0.806589
0.806605
0.774445
0.656439
0.692372
0.740674
0.772111
0.783073
0.789977
0.792727
0.790386
0.790627
0.792448
0.793664
0.795541
0.795941
0.796056
0.798492
0.799498
0.800017
0.800613
0.800769
0.800484
0.80087
0.80131
0.801687
0.802884
0.804505
0.805469
0.805986
0.806286
0.806395
0.806481
0.806514
0.806543
0.806564
0.806589
0.80661
0.806625
0.933213
0.884955
0.787165
0.761018
0.786258
0.780196
0.792966
0.798402
0.798826
0.799281
0.796107
0.794003
0.794214
0.796262
0.799395
0.799822
0.799325
0.799049
0.798915
0.798904
0.797716
0.79815
0.800166
0.801668
0.803234
0.805002
0.806031
0.80637
0.806512
0.806528
0.806558
0.80654
0.806562
0.806571
0.806596
0.806616
0.806634
1.25336
0.480371
0.423944
0.646561
0.78682
0.791915
0.809292
0.806572
0.803135
0.79362
0.790121
0.793861
0.795782
0.79665
0.796119
0.796642
0.79775
0.79759
0.797652
0.798683
0.796905
0.796603
0.79915
0.797455
0.79811
0.803808
0.806543
0.806691
0.806739
0.806632
0.806641
0.806573
0.806577
0.806574
0.806594
0.806616
0.806629
2.3399
0.757626
0.954611
0.914681
0.867228
0.839083
0.840975
0.829238
0.815997
0.804156
0.79776
0.799134
0.800433
0.798815
0.798451
0.798725
0.798378
0.798274
0.797215
0.798038
0.795924
0.795122
0.797963
0.798954
0.802288
0.807415
0.809403
0.807864
0.807218
0.80687
0.806715
0.806625
0.80658
0.806578
0.806591
0.806609
0.806627
-1.6869
0.653289
1.46512
1.15322
0.972775
0.851382
0.823153
0.800819
0.740429
0.692466
0.669786
0.660887
0.652466
0.641439
0.669623
0.724477
0.750044
0.733969
0.719023
0.710135
0.704771
0.701694
0.699712
0.698478
0.69775
0.697233
0.696949
0.696734
0.69663
0.696519
0.696448
0.696398
0.696361
0.696325
0.696315
0.696323
0.696315
0.69629
0.00110286
-0.607854
0.425074
0.204493
0.312823
0.307862
0.591724
0.621239
0.646759
0.642364
0.634356
0.639961
0.643793
0.62635
0.633505
0.687302
0.718514
0.716545
0.711654
0.706796
0.703138
0.700809
0.699142
0.698099
0.697445
0.697004
0.69672
0.696559
0.69645
0.696371
0.6963
0.696258
0.696233
0.6962
0.696196
0.696215
0.69623
0.696212
0.507777
-0.514796
0.312076
0.688175
0.71212
0.591945
0.627532
0.643135
0.65835
0.671081
0.671883
0.673039
0.673706
0.678542
0.686045
0.698785
0.708412
0.708217
0.706278
0.703539
0.701288
0.699547
0.698356
0.697531
0.697023
0.696686
0.696472
0.696358
0.696277
0.69625
0.696195
0.696195
0.696183
0.696161
0.69618
0.696194
0.696194
0.847312
0.66024
0.401053
0.647001
0.598287
0.681186
0.654752
0.669606
0.656756
0.65529
0.658536
0.662137
0.665827
0.669519
0.678608
0.692734
0.69997
0.70188
0.701649
0.700442
0.69923
0.69821
0.697368
0.69684
0.696481
0.696322
0.696192
0.696139
0.696151
0.696116
0.696133
0.696149
0.696153
0.696141
0.696175
0.696188
0.696178
0.721529
0.659206
0.574572
0.642488
0.627527
0.660587
0.671667
0.673087
0.680692
0.681022
0.678139
0.682482
0.682525
0.6852
0.688134
0.692659
0.696264
0.69781
0.6982
0.697857
0.697245
0.69671
0.696228
0.696021
0.695895
0.695881
0.695908
0.695937
0.69604
0.696011
0.696103
0.696104
0.696125
0.696142
0.696178
0.696182
0.696184
0.696207
0.555524
0.608924
0.565607
0.657379
0.641565
0.670446
0.661264
0.664484
0.669578
0.665196
0.672516
0.676291
0.678704
0.682973
0.687134
0.691264
0.693624
0.695182
0.695641
0.695782
0.695541
0.695411
0.695252
0.695196
0.695266
0.695447
0.695598
0.695765
0.695898
0.695958
0.69604
0.696083
0.69612
0.696145
0.696171
0.696182
0.696201
0.696205
0.556141
0.599848
0.622233
0.663546
0.656458
0.668013
0.676317
0.679316
0.681399
0.681508
0.683617
0.683422
0.683262
0.683722
0.687716
0.689729
0.691766
0.692947
0.693566
0.693768
0.693702
0.693769
0.693726
0.694067
0.694419
0.694991
0.695314
0.695634
0.695808
0.695937
0.696022
0.696092
0.69611
0.696164
0.696181
0.696207
0.696223
0.649726
0.680682
0.64867
0.644781
0.655936
0.668874
0.670697
0.676961
0.677311
0.678075
0.679551
0.681054
0.680504
0.686054
0.689548
0.689694
0.691052
0.691432
0.691907
0.691958
0.692013
0.692296
0.692844
0.693395
0.693989
0.694717
0.695213
0.695556
0.695831
0.695923
0.696051
0.696093
0.696132
0.696168
0.696191
0.696216
0.696234
0.617536
0.567846
0.589397
0.62518
0.659483
0.670914
0.678426
0.679187
0.679792
0.679434
0.681525
0.682618
0.684263
0.685316
0.686007
0.688129
0.689146
0.68968
0.690209
0.6904
0.690099
0.690512
0.690906
0.691293
0.692495
0.694039
0.695069
0.695563
0.695909
0.695983
0.696104
0.696127
0.696152
0.696189
0.696206
0.696236
0.696254
0.758092
0.760186
0.669704
0.650625
0.678574
0.673158
0.679766
0.686026
0.686584
0.685782
0.684273
0.682907
0.683199
0.684785
0.688037
0.689143
0.688786
0.6887
0.688568
0.6886
0.687406
0.68777
0.689748
0.691221
0.69272
0.694547
0.695575
0.695963
0.69609
0.69613
0.696168
0.696168
0.69617
0.696199
0.696215
0.69624
0.696264
0.544209
0.269402
0.319134
0.542013
0.669056
0.679036
0.695227
0.692364
0.687859
0.679673
0.677513
0.681843
0.684626
0.68546
0.685396
0.686107
0.687387
0.68721
0.687166
0.688225
0.686412
0.686306
0.688763
0.686665
0.687933
0.693945
0.696033
0.696299
0.696303
0.696258
0.696249
0.696211
0.696192
0.696204
0.696221
0.696242
0.696263
1.33733
0.611764
0.795672
0.774512
0.744066
0.724333
0.726929
0.713606
0.701965
0.691527
0.685849
0.68776
0.689427
0.688768
0.688608
0.688442
0.688193
0.68804
0.686947
0.687784
0.68565
0.684698
0.687392
0.688493
0.692056
0.696951
0.698672
0.697297
0.696793
0.696495
0.696341
0.696246
0.696209
0.696206
0.696219
0.69624
0.69626
0.917568
1.0678
1.11435
0.916184
0.815931
0.738796
0.692215
0.677939
0.613321
0.576027
0.553886
0.546171
0.540531
0.531441
0.562501
0.615592
0.634857
0.619058
0.606538
0.598784
0.593957
0.591075
0.589212
0.588032
0.587327
0.58684
0.586554
0.586355
0.586243
0.586142
0.586073
0.586022
0.585989
0.585958
0.585947
0.58595
0.585944
0.585913
0.127667
-0.769689
-0.0254043
0.0485251
0.205447
0.291213
0.502129
0.5326
0.531701
0.527654
0.518071
0.521755
0.529236
0.518658
0.536097
0.58628
0.607572
0.604791
0.600258
0.59582
0.592443
0.590234
0.588653
0.587648
0.587018
0.586592
0.586316
0.586161
0.58605
0.585972
0.585909
0.585867
0.585849
0.585819
0.585821
0.585845
0.585851
0.585824
1.0432
0.115712
0.166089
0.492217
0.57608
0.474706
0.529062
0.560756
0.554886
0.56712
0.56259
0.564446
0.564847
0.568258
0.576354
0.589234
0.597418
0.597184
0.595333
0.592801
0.590677
0.589044
0.587883
0.587099
0.586603
0.586276
0.586067
0.585966
0.585888
0.585854
0.585816
0.585804
0.585802
0.585786
0.585807
0.585821
0.585822
0.666767
0.624032
0.40753
0.52147
0.502781
0.555381
0.545423
0.548569
0.545179
0.543896
0.547648
0.551532
0.556286
0.561009
0.570885
0.58328
0.589505
0.591281
0.590991
0.589882
0.588717
0.587727
0.586921
0.586409
0.586071
0.585909
0.585791
0.585755
0.585758
0.585733
0.585755
0.58576
0.585772
0.585771
0.585803
0.585814
0.585812
0.60001
0.568179
0.51246
0.561396
0.530234
0.55686
0.560529
0.56698
0.568964
0.570434
0.569205
0.572496
0.572615
0.575103
0.578076
0.582515
0.585818
0.587339
0.587699
0.58736
0.586787
0.586244
0.585795
0.585588
0.585478
0.585473
0.585501
0.585546
0.585636
0.585634
0.585714
0.585721
0.585752
0.585772
0.585806
0.585813
0.585824
0.585835
0.512199
0.527002
0.49466
0.537921
0.539157
0.558436
0.553265
0.55837
0.558757
0.557958
0.563536
0.565801
0.569101
0.573231
0.577201
0.581079
0.58328
0.584759
0.585196
0.585301
0.58509
0.584971
0.584821
0.584785
0.584856
0.585038
0.585189
0.585362
0.585496
0.585563
0.585651
0.585693
0.585735
0.585766
0.585794
0.585811
0.58583
0.585834
0.507571
0.529412
0.532351
0.553453
0.557534
0.559469
0.567624
0.569945
0.57032
0.571655
0.572565
0.572886
0.572939
0.574233
0.577446
0.579506
0.581388
0.582557
0.583135
0.583352
0.583306
0.583363
0.583337
0.583648
0.584021
0.58457
0.58491
0.585224
0.585416
0.585535
0.585633
0.585695
0.585729
0.58578
0.585802
0.585831
0.585851
0.561717
0.570719
0.547535
0.539345
0.553773
0.558887
0.562517
0.567651
0.567566
0.568907
0.57069
0.571562
0.572687
0.576396
0.578553
0.579389
0.580573
0.581038
0.581486
0.581582
0.581623
0.581907
0.58243
0.582983
0.583589
0.584285
0.584785
0.58515
0.585424
0.585523
0.585653
0.585696
0.585741
0.585782
0.585808
0.585837
0.585859
0.507999
0.461121
0.485296
0.524354
0.554239
0.559947
0.568863
0.570387
0.570007
0.570207
0.571421
0.572537
0.573961
0.575018
0.576028
0.577834
0.578768
0.579359
0.579821
0.580033
0.579733
0.580126
0.580523
0.580926
0.582157
0.583653
0.584639
0.585165
0.585503
0.58559
0.585707
0.585733
0.585763
0.585803
0.585822
0.585856
0.585877
0.658393
0.624792
0.568172
0.54547
0.567692
0.56643
0.572648
0.57609
0.575462
0.575173
0.573192
0.573229
0.574117
0.576028
0.578046
0.578323
0.578457
0.578322
0.578255
0.578315
0.577197
0.5774
0.579268
0.58078
0.582292
0.58407
0.585082
0.58557
0.58569
0.585753
0.585779
0.585782
0.585786
0.585818
0.585832
0.585864
0.585889
0.155142
0.127875
0.265189
0.456602
0.559515
0.567935
0.583182
0.580509
0.576852
0.569528
0.566958
0.571047
0.574358
0.575508
0.575095
0.575752
0.576985
0.576893
0.576776
0.577803
0.576052
0.57597
0.578363
0.576279
0.577905
0.58387
0.585409
0.585923
0.585897
0.585905
0.58586
0.585834
0.585809
0.585828
0.585839
0.585872
0.585892
0.709285
0.484556
0.650496
0.64111
0.625661
0.611446
0.612114
0.599056
0.589354
0.579726
0.574636
0.576753
0.578678
0.578737
0.578426
0.578001
0.577849
0.577668
0.576729
0.577451
0.575343
0.574454
0.576896
0.578176
0.582135
0.586511
0.587698
0.586826
0.586331
0.586116
0.585967
0.58588
0.585836
0.585829
0.585844
0.585873
0.585889
0.102747
1.04806
0.819158
0.673763
0.663537
0.608887
0.571529
0.535649
0.483546
0.455407
0.433982
0.433779
0.433681
0.426141
0.456303
0.503057
0.515469
0.503134
0.493609
0.487157
0.482979
0.480357
0.47865
0.477543
0.476874
0.476419
0.476138
0.475958
0.475841
0.475751
0.475687
0.475639
0.475613
0.475588
0.47558
0.475586
0.475574
0.475536
0.120734
-0.195377
0.011613
0.0325226
0.170306
0.296294
0.419132
0.424287
0.415542
0.410199
0.396488
0.404517
0.421135
0.420689
0.443929
0.482344
0.494942
0.492454
0.488506
0.484629
0.481615
0.479573
0.478111
0.477158
0.476563
0.476155
0.475892
0.475748
0.475637
0.475566
0.47551
0.475474
0.475461
0.475439
0.475449
0.475474
0.475471
0.475441
0.362127
0.117191
0.236324
0.428919
0.424047
0.423907
0.433805
0.456797
0.449829
0.454543
0.453652
0.456225
0.45712
0.459535
0.46781
0.479494
0.486003
0.485824
0.484169
0.481894
0.479962
0.478454
0.477365
0.476624
0.476156
0.475844
0.475648
0.475556
0.475481
0.475451
0.475424
0.475413
0.475418
0.47541
0.475433
0.475448
0.475447
0.459156
0.38457
0.333692
0.377417
0.399217
0.425162
0.431334
0.433242
0.433168
0.432761
0.436259
0.441675
0.447855
0.453856
0.463514
0.47374
0.478918
0.480464
0.480198
0.479205
0.478118
0.477198
0.476438
0.475952
0.475639
0.475481
0.475375
0.475351
0.47535
0.475338
0.475364
0.47537
0.475389
0.475397
0.475429
0.475441
0.475442
0.463148
0.489131
0.383216
0.441355
0.431029
0.449035
0.45165
0.457048
0.458359
0.459961
0.459723
0.462615
0.46284
0.465209
0.468199
0.472347
0.475341
0.476764
0.47711
0.476807
0.476271
0.47576
0.475343
0.475146
0.47505
0.475055
0.475087
0.475146
0.475227
0.475245
0.47532
0.475333
0.475371
0.475396
0.47543
0.475441
0.475454
0.475461
0.397378
0.430866
0.391656
0.432127
0.433348
0.44454
0.444152
0.446443
0.448111
0.448199
0.453385
0.455734
0.459439
0.463586
0.46737
0.470832
0.472918
0.47426
0.474713
0.47481
0.47462
0.474516
0.474377
0.474361
0.474437
0.474617
0.474777
0.474953
0.47509
0.475168
0.475256
0.475303
0.475349
0.475385
0.475417
0.475438
0.475457
0.475462
0.410526
0.437039
0.424094
0.441177
0.444414
0.449902
0.45724
0.458816
0.460174
0.461104
0.461927
0.46257
0.463091
0.464594
0.467302
0.46929
0.471036
0.47213
0.472697
0.47292
0.472887
0.47294
0.47294
0.473229
0.473618
0.474137
0.474498
0.47481
0.475013
0.475133
0.475237
0.475299
0.475344
0.475393
0.475422
0.475453
0.475475
0.451458
0.45526
0.432898
0.430761
0.443609
0.448594
0.453456
0.456768
0.457258
0.458291
0.459946
0.461378
0.462612
0.466269
0.467993
0.469013
0.470123
0.470638
0.47107
0.471206
0.471233
0.471507
0.471989
0.472552
0.473172
0.473841
0.474349
0.47474
0.475012
0.475126
0.475251
0.475301
0.475351
0.475395
0.475425
0.475458
0.475483
0.376105
0.350344
0.382177
0.418538
0.446143
0.450993
0.458526
0.459103
0.459634
0.459556
0.460681
0.462011
0.463579
0.464933
0.466014
0.467499
0.468419
0.468973
0.469431
0.469641
0.469384
0.46971
0.470113
0.470553
0.471786
0.473223
0.474179
0.474759
0.475091
0.475194
0.475307
0.475338
0.475374
0.475415
0.47544
0.475476
0.475501
0.523111
0.494545
0.451562
0.439626
0.457745
0.458278
0.463457
0.464823
0.464399
0.463254
0.462261
0.462693
0.463985
0.465725
0.46743
0.467715
0.467975
0.467947
0.467941
0.468054
0.46702
0.467036
0.468675
0.470258
0.47183
0.473546
0.474554
0.475139
0.475298
0.475364
0.47539
0.475391
0.475401
0.475433
0.47545
0.475487
0.475513
-0.132046
0.0283224
0.195623
0.370118
0.450673
0.457967
0.470639
0.467368
0.463758
0.457738
0.455902
0.459688
0.463778
0.465377
0.464988
0.465409
0.466556
0.466577
0.46643
0.467404
0.4658
0.465545
0.467886
0.466191
0.467929
0.473252
0.474753
0.475504
0.475514
0.475519
0.475485
0.475445
0.475428
0.475449
0.475457
0.475499
0.475517
0.422859
0.369816
0.50696
0.515337
0.508319
0.498179
0.496871
0.485096
0.476622
0.467913
0.463525
0.465571
0.467857
0.468449
0.468096
0.467518
0.467416
0.467277
0.466503
0.467077
0.465135
0.464292
0.466328
0.467962
0.472132
0.475708
0.476359
0.476354
0.475892
0.475743
0.475595
0.475498
0.475454
0.475446
0.475463
0.475498
0.475516
0.312042
0.540946
0.574852
0.491114
0.498692
0.481614
0.436788
0.395053
0.355427
0.333854
0.318705
0.329998
0.337504
0.333621
0.35307
0.389156
0.395685
0.387581
0.380598
0.375423
0.371887
0.369569
0.36803
0.367016
0.36639
0.365969
0.365702
0.365537
0.365425
0.365345
0.365287
0.365247
0.365227
0.36521
0.365207
0.365214
0.3652
0.365161
0.147834
-0.0411771
-0.0138372
0.0504716
0.156017
0.269675
0.317464
0.312108
0.297663
0.290286
0.270571
0.296923
0.323235
0.32881
0.349204
0.374345
0.381695
0.379848
0.376593
0.373314
0.370689
0.368847
0.367518
0.366636
0.366079
0.365697
0.365453
0.365318
0.365213
0.36515
0.365103
0.365076
0.36507
0.365059
0.365077
0.365101
0.365091
0.365065
0.529202
0.450191
0.219543
0.315128
0.335456
0.331683
0.338047
0.346072
0.341065
0.344634
0.345052
0.348684
0.35012
0.352398
0.3599
0.36941
0.374353
0.374294
0.372866
0.370899
0.369172
0.367814
0.366806
0.366122
0.365684
0.365394
0.365215
0.365132
0.365066
0.365041
0.365024
0.365019
0.36503
0.365033
0.365058
0.365075
0.365073
0.340106
0.241498
0.241241
0.26904
0.293113
0.309667
0.321139
0.319916
0.321366
0.321449
0.32578
0.333507
0.340935
0.347472
0.355971
0.364055
0.368243
0.369579
0.369321
0.368453
0.367466
0.366624
0.365924
0.365473
0.365186
0.365038
0.364949
0.364935
0.364935
0.364936
0.364966
0.364977
0.365003
0.365021
0.365054
0.365069
0.365073
0.366297
0.392455
0.309189
0.336813
0.32962
0.340371
0.342928
0.347296
0.348073
0.349639
0.35033
0.352716
0.353261
0.355543
0.358458
0.362208
0.364841
0.36616
0.36647
0.366211
0.365722
0.365253
0.364875
0.364693
0.364613
0.364629
0.364667
0.364737
0.364814
0.364848
0.36492
0.364943
0.364987
0.365017
0.365052
0.365069
0.365084
0.365087
0.314216
0.321725
0.297322
0.319926
0.326681
0.332497
0.334645
0.336206
0.337669
0.338977
0.343225
0.34627
0.350173
0.35411
0.357592
0.360642
0.362541
0.363767
0.364202
0.3643
0.364136
0.364048
0.363924
0.363926
0.364011
0.36419
0.364361
0.364541
0.36468
0.364769
0.364859
0.364912
0.364963
0.365004
0.365039
0.365064
0.365085
0.365091
0.316134
0.338609
0.328494
0.332536
0.34033
0.341155
0.34705
0.34842
0.349587
0.350678
0.351426
0.352283
0.353123
0.354862
0.35719
0.359104
0.360683
0.361712
0.362249
0.362477
0.362463
0.362506
0.362534
0.36281
0.363201
0.3637
0.364078
0.364393
0.364604
0.36473
0.364837
0.364902
0.364956
0.365007
0.365042
0.365076
0.3651
0.347631
0.341083
0.325192
0.323173
0.336477
0.339413
0.34411
0.346539
0.347385
0.348512
0.350106
0.351639
0.353396
0.356146
0.357557
0.358699
0.359676
0.360244
0.360651
0.360824
0.360849
0.361109
0.361546
0.36211
0.362737
0.363389
0.363914
0.364324
0.364597
0.364726
0.364848
0.364904
0.36496
0.365008
0.365043
0.36508
0.365108
0.253575
0.244312
0.286712
0.314601
0.338806
0.342456
0.34838
0.349094
0.349164
0.349325
0.350286
0.351756
0.353439
0.354849
0.355951
0.357192
0.358049
0.358605
0.359034
0.359267
0.359048
0.359308
0.359705
0.360191
0.36137
0.362743
0.363723
0.364339
0.364674
0.364795
0.364904
0.364941
0.364983
0.365026
0.365057
0.365097
0.365126
0.378233
0.373716
0.343292
0.334201
0.348676
0.349658
0.353925
0.354681
0.353664
0.352727
0.351861
0.352771
0.354313
0.356026
0.356996
0.35714
0.357497
0.357551
0.357623
0.3578
0.356904
0.356724
0.358071
0.359661
0.361308
0.362958
0.364023
0.364714
0.364898
0.364973
0.364996
0.364996
0.365012
0.365045
0.365069
0.365109
0.365139
-0.258685
-0.0337467
0.148486
0.281464
0.342912
0.349467
0.358908
0.355613
0.351773
0.347034
0.345262
0.34883
0.353425
0.355427
0.355023
0.355096
0.356082
0.356244
0.356101
0.357024
0.35565
0.355145
0.357336
0.35626
0.357763
0.362305
0.364111
0.365088
0.365119
0.365132
0.3651
0.365054
0.365042
0.365057
0.365078
0.365119
0.365144
0.34992
0.281551
0.380573
0.395515
0.392097
0.384818
0.381917
0.371609
0.363913
0.356329
0.352561
0.354492
0.35712
0.358149
0.357791
0.357071
0.356943
0.356873
0.356256
0.356678
0.355009
0.354163
0.355735
0.357479
0.361534
0.364423
0.36482
0.365995
0.365502
0.365386
0.365205
0.365102
0.36507
0.365058
0.365075
0.365116
0.36515
0.255202
0.303197
0.4016
0.33541
0.345983
0.345505
0.297193
0.258081
0.231866
0.212239
0.214462
0.237617
0.245329
0.238167
0.250698
0.274787
0.2778
0.272767
0.267736
0.263693
0.26074
0.258731
0.257367
0.256455
0.25588
0.255496
0.255247
0.255098
0.254994
0.254925
0.254876
0.254846
0.254835
0.254827
0.254832
0.254841
0.254826
0.25479
-0.0103735
-0.0555781
0.0730931
0.0687134
0.14351
0.20338
0.207533
0.192657
0.182007
0.162819
0.152911
0.203247
0.228813
0.234383
0.249059
0.263918
0.268546
0.267235
0.264643
0.261932
0.2597
0.258072
0.256886
0.256084
0.255571
0.25522
0.254998
0.254873
0.25478
0.254726
0.25469
0.254673
0.254675
0.254677
0.254704
0.254727
0.254715
0.254695
0.242837
0.22321
0.17141
0.224678
0.225214
0.233688
0.232217
0.235444
0.231607
0.234955
0.237576
0.24174
0.243528
0.245582
0.251867
0.259007
0.262645
0.262684
0.261495
0.259821
0.258327
0.257126
0.256214
0.255593
0.25519
0.254927
0.254768
0.254694
0.25464
0.254623
0.254617
0.254622
0.254641
0.254655
0.254684
0.254703
0.254701
0.181563
0.123996
0.152675
0.169173
0.190966
0.199947
0.210439
0.208265
0.209846
0.210356
0.216606
0.227029
0.234694
0.240951
0.247947
0.254164
0.257482
0.258605
0.258382
0.257639
0.256774
0.256013
0.25538
0.254971
0.254713
0.254581
0.25451
0.254506
0.254511
0.254525
0.25456
0.254581
0.254615
0.254643
0.254679
0.254697
0.254705
0.227951
0.256775
0.200634
0.227594
0.224757
0.231426
0.234161
0.237212
0.237966
0.239524
0.240979
0.242917
0.243799
0.246004
0.248752
0.252034
0.254312
0.255504
0.255787
0.255575
0.255135
0.254723
0.254386
0.254225
0.254161
0.254188
0.254236
0.254316
0.254393
0.254442
0.254514
0.254547
0.254598
0.254635
0.254673
0.254695
0.254713
0.254716
0.208515
0.211687
0.196633
0.211112
0.218464
0.221637
0.224839
0.22576
0.22746
0.229342
0.233302
0.237075
0.24101
0.244666
0.247785
0.250436
0.252139
0.253251
0.253666
0.253771
0.253635
0.25355
0.253459
0.25348
0.253575
0.253757
0.253937
0.254122
0.254265
0.254364
0.254457
0.254516
0.254574
0.254621
0.254661
0.254691
0.254713
0.254723
0.213889
0.229606
0.220922
0.224014
0.231153
0.232154
0.236924
0.23808
0.239189
0.240219
0.241047
0.242079
0.243215
0.245027
0.247108
0.248893
0.250319
0.251277
0.251788
0.252022
0.25203
0.252083
0.25212
0.252387
0.252771
0.253255
0.253649
0.253969
0.254187
0.254321
0.254432
0.254503
0.254565
0.25462
0.254661
0.254698
0.254726
0.237563
0.227646
0.215869
0.215996
0.22783
0.230221
0.234498
0.23628
0.237155
0.238362
0.239981
0.241726
0.24357
0.245968
0.247236
0.248358
0.249242
0.249829
0.250227
0.250432
0.250469
0.2507
0.251101
0.25166
0.252285
0.25293
0.253476
0.253901
0.254178
0.25432
0.25444
0.254504
0.254566
0.254619
0.254661
0.254702
0.254734
0.143094
0.144552
0.186654
0.209947
0.230872
0.233621
0.238123
0.238538
0.238618
0.238839
0.239868
0.241497
0.243325
0.244804
0.245836
0.246882
0.247661
0.248213
0.248634
0.24889
0.248732
0.248921
0.249305
0.249828
0.250924
0.252232
0.253262
0.25391
0.254254
0.254387
0.254495
0.254538
0.254586
0.254635
0.254673
0.254718
0.254751
0.244097
0.25333
0.233199
0.228654
0.239626
0.240659
0.243963
0.243946
0.242792
0.241741
0.241335
0.242452
0.24422
0.245804
0.246515
0.24663
0.246957
0.24713
0.247287
0.24753
0.246821
0.24649
0.247488
0.249038
0.250735
0.25234
0.253512
0.254303
0.254504
0.254575
0.254595
0.254595
0.254616
0.254652
0.254684
0.25473
0.254764
-0.273147
-0.0775761
0.0900072
0.189082
0.235915
0.241479
0.247477
0.243637
0.239611
0.235911
0.234719
0.238171
0.243138
0.245501
0.245104
0.244807
0.245554
0.245867
0.245776
0.246652
0.24558
0.244868
0.246706
0.246345
0.247454
0.251224
0.253511
0.254722
0.254746
0.254742
0.2547
0.254656
0.254643
0.254659
0.254694
0.254738
0.254767
0.298341
0.20326
0.267391
0.279348
0.277337
0.271669
0.267632
0.258446
0.251233
0.244809
0.241699
0.243565
0.246494
0.247874
0.24751
0.246651
0.246433
0.246445
0.245982
0.246271
0.244972
0.244077
0.245132
0.246726
0.250555
0.25297
0.253666
0.255778
0.255212
0.255048
0.254821
0.254702
0.254676
0.254672
0.254689
0.254733
0.254778
0.0662173
0.132595
0.236915
0.201439
0.204157
0.206311
0.159007
0.127941
0.111837
0.0971571
0.119162
0.149945
0.149389
0.140003
0.146753
0.160417
0.16182
0.15875
0.155124
0.151988
0.149575
0.147865
0.146674
0.145866
0.145346
0.145001
0.144776
0.144643
0.144551
0.144493
0.144456
0.144437
0.144437
0.144442
0.144455
0.144467
0.144454
0.144424
-0.0677286
-0.147653
0.033237
0.0459834
0.0779108
0.105668
0.0880948
0.0767984
0.0650903
0.0324355
0.0555184
0.114835
0.131737
0.13541
0.14421
0.152685
0.155694
0.15477
0.152743
0.150549
0.148677
0.147265
0.146222
0.145506
0.145041
0.144726
0.144527
0.144415
0.144336
0.144293
0.144269
0.144265
0.144277
0.144295
0.14433
0.144352
0.144343
0.144332
0.176991
0.15999
0.0924489
0.123867
0.123089
0.128693
0.124295
0.12378
0.122539
0.126583
0.130344
0.135271
0.136826
0.138565
0.143298
0.148373
0.15099
0.151083
0.150113
0.148737
0.14745
0.146404
0.145595
0.145041
0.144678
0.144444
0.144307
0.144245
0.144205
0.144198
0.144204
0.14422
0.144249
0.144275
0.14431
0.144331
0.144333
0.0854394
0.0313206
0.0614641
0.0734791
0.089145
0.0927082
0.100705
0.0976793
0.0984339
0.0999922
0.10981
0.121469
0.12845
0.133909
0.139381
0.144076
0.146661
0.14759
0.147407
0.146784
0.14604
0.145371
0.144812
0.144448
0.144222
0.14411
0.144057
0.144064
0.144079
0.144106
0.144147
0.14418
0.144224
0.144262
0.144302
0.144326
0.144338
0.135164
0.146126
0.104422
0.118982
0.118663
0.122665
0.124936
0.127115
0.128014
0.129553
0.131312
0.133216
0.134396
0.136499
0.139017
0.14181
0.143753
0.144807
0.145068
0.144905
0.144528
0.14417
0.143877
0.14374
0.143694
0.143733
0.143792
0.143882
0.143963
0.144025
0.144101
0.144146
0.144204
0.144249
0.144292
0.14432
0.14434
0.144346
0.108849
0.104432
0.0958264
0.103469
0.110409
0.111737
0.115115
0.115625
0.11745
0.119838
0.124002
0.128102
0.13188
0.135182
0.137908
0.140196
0.141706
0.142707
0.143105
0.143223
0.143119
0.143051
0.142986
0.143023
0.143129
0.143314
0.143503
0.143693
0.143841
0.143949
0.144047
0.144115
0.14418
0.144234
0.14428
0.144315
0.144341
0.144354
0.111178
0.120042
0.115759
0.115999
0.122603
0.123063
0.126869
0.127792
0.128796
0.129809
0.130732
0.131936
0.133312
0.135138
0.137018
0.138652
0.139934
0.140821
0.141311
0.141553
0.141588
0.141647
0.141698
0.141958
0.142331
0.142801
0.143208
0.143536
0.143761
0.143905
0.14402
0.144098
0.144168
0.144229
0.144278
0.14432
0.144352
0.128372
0.116373
0.109091
0.109367
0.119686
0.121221
0.124802
0.126139
0.127047
0.128339
0.130008
0.131859
0.133722
0.135771
0.136951
0.138002
0.138801
0.13939
0.13979
0.140029
0.140091
0.140295
0.140659
0.141204
0.141824
0.142466
0.143033
0.143469
0.143752
0.143904
0.144024
0.144096
0.144166
0.144226
0.144276
0.144322
0.144359
0.0417527
0.0484734
0.0881226
0.105516
0.122858
0.124712
0.12787
0.128034
0.128017
0.128394
0.129522
0.131311
0.133234
0.134743
0.135698
0.136559
0.13725
0.137799
0.138224
0.138515
0.138437
0.138575
0.138919
0.139469
0.140471
0.141706
0.142793
0.143472
0.143829
0.143971
0.144078
0.144127
0.144183
0.144238
0.144285
0.144336
0.144375
0.122862
0.136677
0.124677
0.122926
0.130951
0.131579
0.133865
0.133335
0.131976
0.1311
0.130961
0.132306
0.134172
0.135664
0.136121
0.136152
0.13641
0.136678
0.136928
0.137237
0.136753
0.136319
0.136976
0.138425
0.140153
0.141715
0.143025
0.143898
0.144119
0.144174
0.144186
0.144185
0.144211
0.144254
0.144295
0.144348
0.144388
-0.251908
-0.117958
0.0240385
0.0943774
0.129444
0.133487
0.136304
0.131681
0.127534
0.124866
0.124342
0.127792
0.132955
0.135572
0.135191
0.134523
0.134981
0.135433
0.135445
0.136273
0.135566
0.134703
0.136056
0.136411
0.137133
0.140186
0.142861
0.144392
0.14441
0.14436
0.144289
0.144246
0.144237
0.144256
0.144299
0.144357
0.144389
0.206903
0.115963
0.159822
0.165654
0.163932
0.158857
0.154049
0.14544
0.138545
0.133289
0.130953
0.13283
0.135982
0.137628
0.137249
0.136242
0.13589
0.135977
0.135682
0.13589
0.135005
0.134035
0.134574
0.135958
0.139609
0.141767
0.143204
0.145572
0.145053
0.144726
0.144441
0.144305
0.144272
0.144279
0.1443
0.14435
0.144401
-0.0293529
0.00210885
0.0681399
0.0753989
0.0724531
0.0723016
0.0296946
0.00784393
-0.00712673
-0.00483162
0.032647
0.0578328
0.047913
0.0373195
0.0399762
0.0466142
0.047369
0.0453957
0.04279
0.0403694
0.0384188
0.036984
0.0359598
0.0352547
0.0347936
0.0344884
0.0342895
0.0341734
0.0340959
0.0340506
0.0340267
0.0340225
0.0340365
0.0340554
0.0340768
0.0340918
0.0340832
0.0340623
-0.161851
-0.217663
-0.0316088
-0.01813
-0.00728071
-0.0036989
-0.0285588
-0.0318199
-0.0592117
-0.0867371
-0.0260892
0.0234195
0.0309113
0.0320531
0.0364684
0.0412726
0.0431828
0.042515
0.0409385
0.0391918
0.0376435
0.0364389
0.0355362
0.0349065
0.0344936
0.0342155
0.0340421
0.0339463
0.0338826
0.0338529
0.0338429
0.0338518
0.0338781
0.0339134
0.0339561
0.0339795
0.0339757
0.0339755
0.0169486
0.0250555
-0.00492983
0.0173198
0.0167586
0.0210813
0.0136645
0.0134711
0.0140364
0.0181589
0.0236744
0.0286665
0.0296672
0.0308678
0.0341203
0.0375879
0.0394329
0.0395363
0.0387555
0.0376359
0.0365555
0.0356583
0.0349552
0.0344688
0.034149
0.0339473
0.0338325
0.0337848
0.0337599
0.0337651
0.0337842
0.0338137
0.0338548
0.033894
0.0339346
0.0339601
0.0339672
-0.0240706
-0.0588871
-0.0336995
-0.024363
-0.013428
-0.0133006
-0.00873147
-0.0123795
-0.0125393