/*--------------------------------*- C++ -*----------------------------------*\
| =========                 |                                                 |
| \\      /  F ield         | OpenFOAM: The Open Source CFD Toolbox           |
|  \\    /   O peration     | Version:  2.3.1                                 |
|   \\  /    A nd           | Web:      www.OpenFOAM.org                      |
|    \\/     M anipulation  |                                                 |
\*---------------------------------------------------------------------------*/
FoamFile
{
    version     2.0;
    format      ascii;
    class       volScalarField;
    location    "15";
    object      p_rgh;
}
// * * * * * * * * * * * * * * * * * * * * * * * * * * * * * * * * * * * * * //

dimensions      [0 2 -2 0 0 0 0];

internalField   nonuniform List<scalar> 
37632
(
0.0551813
5.3631
2.88369
1.74597
1.22504
1.06469
1.05563
0.956272
0.931006
0.852691
0.838895
0.830457
0.821181
0.810157
0.833797
0.887531
0.918146
0.902224
0.885918
0.876152
0.870535
0.867372
0.865286
0.864066
0.863302
0.862791
0.862506
0.86226
0.862181
0.862062
0.861987
0.861938
0.861896
0.861861
0.861849
0.861854
0.861861
0.861852
-0.862767
0.816643
0.773369
0.473891
0.514375
0.470683
0.768224
0.788192
0.817614
0.814354
0.804061
0.811562
0.817002
0.79497
0.791484
0.845315
0.883637
0.88273
0.877757
0.872687
0.868903
0.86647
0.864727
0.863697
0.863008
0.862563
0.862297
0.862104
0.862024
0.861936
0.861873
0.861837
0.8618
0.861771
0.86177
0.861776
0.861786
0.861784
0.872133
0.921765
0.572944
0.862879
0.932113
0.78449
0.773576
0.837972
0.821048
0.84436
0.837493
0.839828
0.841682
0.845857
0.851934
0.863788
0.87429
0.874161
0.872076
0.869347
0.866925
0.8652
0.863937
0.863142
0.86259
0.862262
0.862051
0.861902
0.861858
0.861816
0.861765
0.861763
0.861744
0.86173
0.861741
0.86175
0.861749
1.1313
1.26859
0.535117
0.763962
0.770888
0.874406
0.799544
0.83868
0.821056
0.818926
0.826066
0.82826
0.831238
0.834601
0.842726
0.857907
0.86573
0.867655
0.86731
0.866132
0.864878
0.863824
0.862981
0.862444
0.862069
0.861891
0.861771
0.861702
0.861714
0.861698
0.861693
0.861717
0.861714
0.861705
0.861732
0.861744
0.861736
0.876926
1.02381
0.788042
0.860574
0.769622
0.840005
0.840398
0.840692
0.849499
0.847552
0.843525
0.847901
0.848225
0.850761
0.853755
0.858233
0.861903
0.863541
0.863851
0.863476
0.86291
0.862278
0.861836
0.861615
0.861479
0.861459
0.861486
0.86151
0.861591
0.861599
0.861639
0.861679
0.861677
0.861693
0.861726
0.861731
0.861731
0.861755
0.776805
0.755852
0.74604
0.810371
0.792763
0.843825
0.825957
0.831616
0.836458
0.830987
0.838493
0.842478
0.844585
0.848473
0.852568
0.856776
0.859295
0.860817
0.861356
0.861354
0.861184
0.86101
0.860854
0.860799
0.860852
0.861018
0.861178
0.86134
0.861479
0.861535
0.861604
0.861649
0.86168
0.861701
0.861723
0.861732
0.861748
0.861757
0.783052
0.697876
0.773693
0.822949
0.830487
0.836983
0.841463
0.846218
0.845455
0.847378
0.849753
0.849194
0.848284
0.848501
0.853179
0.855339
0.857315
0.858552
0.859182
0.859336
0.859322
0.859317
0.859335
0.859627
0.860023
0.860538
0.860911
0.861204
0.861388
0.861507
0.861591
0.861653
0.861682
0.861716
0.86174
0.861757
0.861772
0.87853
0.810799
0.810722
0.813311
0.828034
0.839141
0.835394
0.845108
0.844374
0.844434
0.847407
0.847716
0.847131
0.852764
0.855698
0.855479
0.856645
0.857037
0.857495
0.857474
0.857577
0.857846
0.85842
0.858977
0.859611
0.860316
0.860789
0.861158
0.861383
0.861513
0.861613
0.861663
0.8617
0.861726
0.861753
0.86177
0.861786
0.829626
0.71162
0.747553
0.795855
0.827292
0.838254
0.845158
0.847909
0.845568
0.845808
0.847629
0.848845
0.850722
0.851122
0.851238
0.853674
0.854679
0.855199
0.855794
0.85595
0.855666
0.856051
0.856491
0.856868
0.858065
0.859687
0.86065
0.861168
0.861468
0.861576
0.861663
0.861695
0.861724
0.861745
0.86177
0.861791
0.861806
0.988394
0.940136
0.842346
0.816199
0.841439
0.835377
0.848148
0.853584
0.854007
0.854462
0.851289
0.849184
0.849395
0.851443
0.854576
0.855003
0.854506
0.85423
0.854096
0.854085
0.852897
0.853331
0.855347
0.85685
0.858415
0.860183
0.861212
0.861552
0.861693
0.861709
0.861739
0.861721
0.861743
0.861752
0.861777
0.861797
0.861815
1.30854
0.535552
0.479125
0.701742
0.842001
0.847096
0.864474
0.861753
0.858317
0.848802
0.845303
0.849042
0.850963
0.851831
0.8513
0.851823
0.852931
0.852771
0.852833
0.853865
0.852086
0.851784
0.854331
0.852637
0.853291
0.85899
0.861725
0.861872
0.86192
0.861814
0.861822
0.861755
0.861758
0.861756
0.861776
0.861797
0.86181
2.39508
0.812807
1.00979
0.969862
0.922409
0.894265
0.896156
0.884419
0.871178
0.859338
0.852941
0.854315
0.855614
0.853996
0.853632
0.853907
0.853559
0.853455
0.852396
0.853219
0.851105
0.850303
0.853144
0.854135
0.85747
0.862596
0.864584
0.863045
0.862399
0.862051
0.861896
0.861807
0.861761
0.86176
0.861772
0.86179
0.861809
-1.52136
0.818833
1.63067
1.31877
1.13832
1.01693
0.988696
0.966363
0.905973
0.858009
0.83533
0.826431
0.81801
0.806983
0.835167
0.89002
0.915588
0.899512
0.884566
0.875679
0.870314
0.867238
0.865256
0.864022
0.863294
0.862777
0.862493
0.862278
0.862174
0.862063
0.861992
0.861942
0.861905
0.861869
0.861859
0.861867
0.861859
0.861833
0.166647
-0.44231
0.590618
0.370037
0.478367
0.473405
0.757268
0.786782
0.812303
0.807907
0.7999
0.805505
0.809337
0.791894
0.799048
0.852845
0.884058
0.882089
0.877198
0.87234
0.868682
0.866353
0.864686
0.863642
0.862989
0.862548
0.862264
0.862103
0.861994
0.861915
0.861844
0.861802
0.861777
0.861743
0.861739
0.861759
0.861774
0.861756
0.673321
-0.349252
0.47762
0.853719
0.877664
0.757489
0.793076
0.808679
0.823894
0.836625
0.837427
0.838583
0.83925
0.844086
0.851589
0.864329
0.873956
0.87376
0.871822
0.869083
0.866832
0.865091
0.8639
0.863075
0.862567
0.86223
0.862016
0.861902
0.86182
0.861794
0.861739
0.861738
0.861727
0.861705
0.861723
0.861738
0.861738
1.01286
0.825784
0.566596
0.812545
0.76383
0.846729
0.820296
0.83515
0.8223
0.820833
0.82408
0.827681
0.831371
0.835062
0.844152
0.858277
0.865514
0.867424
0.867193
0.865985
0.864773
0.863753
0.862912
0.862384
0.862025
0.861865
0.861736
0.861683
0.861695
0.86166
0.861677
0.861693
0.861697
0.861685
0.861719
0.861732
0.861722
0.887073
0.824749
0.740116
0.808031
0.79307
0.826131
0.837211
0.838631
0.846236
0.846566
0.843683
0.848026
0.848069
0.850744
0.853678
0.858203
0.861807
0.863354
0.863744
0.863401
0.862789
0.862254
0.861772
0.861565
0.861439
0.861424
0.861452
0.861481
0.861584
0.861555
0.861646
0.861648
0.861668
0.861685
0.861722
0.861725
0.861728
0.861751
0.721068
0.774468
0.731151
0.822923
0.807109
0.835989
0.826807
0.830028
0.835122
0.83074
0.83806
0.841834
0.844248
0.848517
0.852678
0.856808
0.859168
0.860726
0.861184
0.861325
0.861085
0.860955
0.860796
0.86074
0.86081
0.860991
0.861142
0.861309
0.861442
0.861501
0.861584
0.861626
0.861664
0.861689
0.861715
0.861726
0.861745
0.861749
0.721685
0.765392
0.787777
0.82909
0.822002
0.833557
0.841861
0.84486
0.846943
0.847052
0.849161
0.848966
0.848805
0.849265
0.85326
0.855273
0.85731
0.858491
0.85911
0.859311
0.859246
0.859313
0.859269
0.85961
0.859963
0.860535
0.860858
0.861178
0.861352
0.861481
0.861566
0.861636
0.861654
0.861707
0.861725
0.861751
0.861766
0.81527
0.846225
0.814214
0.810325
0.821479
0.834418
0.836241
0.842505
0.842854
0.843619
0.845094
0.846598
0.846047
0.851598
0.855091
0.855238
0.856595
0.856976
0.857451
0.857502
0.857556
0.85784
0.858388
0.858939
0.859532
0.860261
0.860756
0.8611
0.861375
0.861467
0.861595
0.861636
0.861676
0.861712
0.861735
0.86176
0.861778
0.78308
0.73339
0.75494
0.790723
0.825026
0.836458
0.84397
0.844731
0.845336
0.844978
0.847068
0.848162
0.849806
0.85086
0.851551
0.853672
0.85469
0.855224
0.855752
0.855944
0.855643
0.856056
0.85645
0.856837
0.858039
0.859582
0.860612
0.861107
0.861453
0.861526
0.861647
0.86167
0.861696
0.861732
0.86175
0.86178
0.861797
0.923636
0.92573
0.835248
0.816169
0.844118
0.838701
0.845309
0.85157
0.852128
0.851325
0.849817
0.84845
0.848743
0.850329
0.853581
0.854686
0.854329
0.854244
0.854112
0.854144
0.85295
0.853313
0.855291
0.856765
0.858264
0.860091
0.861118
0.861507
0.861634
0.861673
0.861712
0.861711
0.861714
0.861743
0.861759
0.861784
0.861808
0.709753
0.434946
0.484678
0.707557
0.8346
0.84458
0.860771
0.857908
0.853403
0.845217
0.843057
0.847386
0.85017
0.851004
0.85094
0.851651
0.85293
0.852754
0.85271
0.853768
0.851956
0.85185
0.854306
0.852209
0.853476
0.859489
0.861577
0.861843
0.861846
0.861802
0.861792
0.861754
0.861736
0.861747
0.861764
0.861786
0.861807
1.50287
0.777308
0.961216
0.940056
0.90961
0.889877
0.892473
0.879149
0.867509
0.857071
0.851392
0.853304
0.85497
0.854312
0.854152
0.853986
0.853737
0.853584
0.852491
0.853327
0.851194
0.850242
0.852936
0.854037
0.857599
0.862495
0.864216
0.862841
0.862337
0.862038
0.861885
0.86179
0.861752
0.86175
0.861763
0.861784
0.861804
1.19347
1.34371
1.39026
1.19209
1.09184
1.0147
0.968121
0.953845
0.889227
0.851934
0.829792
0.822077
0.816438
0.807347
0.838407
0.891498
0.910763
0.894964
0.882444
0.87469
0.869864
0.866982
0.865118
0.863938
0.863233
0.862747
0.86246
0.862261
0.862149
0.862048
0.86198
0.861928
0.861895
0.861864
0.861854
0.861857
0.86185
0.861819
0.403573
-0.493783
0.250502
0.324431
0.481353
0.567119
0.778035
0.808506
0.807607
0.80356
0.793978
0.797661
0.805143
0.794564
0.812004
0.862186
0.883478
0.880698
0.876165
0.871726
0.868349
0.86614
0.864559
0.863554
0.862924
0.862498
0.862222
0.862067
0.861957
0.861879
0.861815
0.861774
0.861755
0.861725
0.861728
0.861751
0.861757
0.86173
1.3191
0.391618
0.441995
0.768124
0.851986
0.750613
0.804968
0.836663
0.830792
0.843026
0.838496
0.840352
0.840754
0.844164
0.85226
0.86514
0.873324
0.87309
0.871239
0.868707
0.866583
0.86495
0.863789
0.863005
0.862509
0.862183
0.861974
0.861872
0.861795
0.861761
0.861722
0.861711
0.861708
0.861692
0.861713
0.861727
0.861728
0.942673
0.899938
0.683437
0.797376
0.778687
0.831287
0.821329
0.824476
0.821086
0.819803
0.823554
0.827438
0.832192
0.836916
0.846791
0.859186
0.865411
0.867187
0.866897
0.865788
0.864623
0.863633
0.862827
0.862315
0.861978
0.861815
0.861697
0.861661
0.861665
0.861639
0.861661
0.861667
0.861679
0.861677
0.86171
0.86172
0.861718
0.875916
0.844086
0.788366
0.837303
0.80614
0.832766
0.836435
0.842886
0.84487
0.846341
0.845112
0.848402
0.848521
0.85101
0.853982
0.858421
0.861724
0.863246
0.863605
0.863266
0.862693
0.862151
0.861701
0.861495
0.861384
0.861379
0.861407
0.861452
0.861542
0.86154
0.86162
0.861627
0.861658
0.861678
0.861712
0.861719
0.86173
0.861741
0.788105
0.802909
0.770566
0.813827
0.815064
0.834342
0.829171
0.834277
0.834663
0.833864
0.839442
0.841707
0.845007
0.849137
0.853107
0.856985
0.859186
0.860665
0.861102
0.861207
0.860996
0.860877
0.860727
0.860691
0.860762
0.860944
0.861095
0.861268
0.861403
0.861469
0.861557
0.8616
0.861641
0.861672
0.861701
0.861717
0.861737
0.86174
0.783477
0.805318
0.808257
0.829359
0.83344
0.835376
0.84353
0.845851
0.846226
0.847561
0.848471
0.848793
0.848845
0.850139
0.853352
0.855412
0.857294
0.858464
0.859041
0.859258
0.859212
0.859269
0.859244
0.859554
0.859927
0.860476
0.860816
0.86113
0.861322
0.861442
0.861539
0.861602
0.861635
0.861686
0.861708
0.861738
0.861757
0.837623
0.846625
0.823441
0.815252
0.829679
0.834793
0.838423
0.843557
0.843472
0.844813
0.846597
0.847468
0.848594
0.852303
0.854459
0.855295
0.856479
0.856944
0.857393
0.857489
0.857529
0.857814
0.858336
0.85889
0.859495
0.860192
0.860692
0.861056
0.86133
0.86143
0.861559
0.861603
0.861648
0.861688
0.861714
0.861743
0.861765
0.783905
0.737028
0.761202
0.80026
0.830145
0.835853
0.84477
0.846294
0.845913
0.846113
0.847327
0.848444
0.849867
0.850925
0.851934
0.85374
0.854674
0.855265
0.855727
0.855939
0.85564
0.856032
0.856429
0.856832
0.858063
0.859559
0.860545
0.861071
0.861409
0.861496
0.861613
0.86164
0.861669
0.86171
0.861728
0.861762
0.861784
0.934299
0.900698
0.844078
0.821376
0.843598
0.842337
0.848554
0.851996
0.851368
0.851079
0.849098
0.849136
0.850023
0.851934
0.853953
0.854229
0.854364
0.854228
0.854162
0.854221
0.853103
0.853306
0.855174
0.856686
0.858198
0.859977
0.860988
0.861476
0.861596
0.861659
0.861685
0.861688
0.861692
0.861725
0.861738
0.86177
0.861795
0.431049
0.403782
0.541095
0.732508
0.835421
0.843842
0.859089
0.856415
0.852758
0.845434
0.842865
0.846953
0.850264
0.851414
0.851001
0.851659
0.852891
0.8528
0.852682
0.853709
0.851958
0.851877
0.854269
0.852185
0.853811
0.859776
0.861315
0.861829
0.861804
0.861811
0.861766
0.86174
0.861716
0.861735
0.861746
0.861779
0.861798
0.985191
0.760462
0.926402
0.917017
0.901568
0.887353
0.88802
0.874962
0.86526
0.855632
0.850542
0.852659
0.854584
0.854644
0.854332
0.853907
0.853755
0.853575
0.852635
0.853358
0.85125
0.850361
0.852802
0.854083
0.858041
0.862417
0.863605
0.862733
0.862237
0.862022
0.861874
0.861786
0.861742
0.861735
0.861751
0.86178
0.861796
0.489016
1.43433
1.20543
1.06003
1.04981
0.995156
0.957798
0.921917
0.869815
0.841676
0.820251
0.820047
0.81995
0.81241
0.842572
0.889326
0.901738
0.889402
0.879877
0.873425
0.869247
0.866626
0.864919
0.863812
0.863143
0.862687
0.862407
0.862227
0.86211
0.862019
0.861956
0.861908
0.861882
0.861857
0.861849
0.861854
0.861843
0.861805
0.507003
0.190892
0.397882
0.418791
0.556575
0.682563
0.805401
0.810556
0.801811
0.796467
0.782756
0.790786
0.807403
0.806958
0.830197
0.868612
0.88121
0.878722
0.874774
0.870898
0.867884
0.865841
0.86438
0.863427
0.862831
0.862423
0.862161
0.862017
0.861906
0.861835
0.861779
0.861742
0.86173
0.861708
0.861718
0.861743
0.86174
0.86171
0.748396
0.50346
0.622593
0.815188
0.810316
0.810176
0.820073
0.843066
0.836098
0.840811
0.839921
0.842494
0.843388
0.845804
0.854079
0.865763
0.872272
0.872093
0.870438
0.868163
0.86623
0.864722
0.863633
0.862893
0.862424
0.862112
0.861917
0.861825
0.86175
0.86172
0.861692
0.861682
0.861687
0.861679
0.861701
0.861717
0.861716
0.845425
0.770839
0.71996
0.763686
0.785486
0.811431
0.817603
0.819511
0.819437
0.819029
0.822528
0.827944
0.834124
0.840125
0.849782
0.860009
0.865187
0.866733
0.866466
0.865474
0.864387
0.863466
0.862706
0.86222
0.861908
0.861749
0.861644
0.86162
0.861619
0.861607
0.861633
0.861639
0.861658
0.861665
0.861698
0.86171
0.861711
0.849417
0.8754
0.769485
0.827624
0.817298
0.835304
0.837919
0.843316
0.844628
0.84623
0.845992
0.848884
0.849109
0.851478
0.854468
0.858616
0.86161
0.863032
0.863379
0.863076
0.862539
0.862029
0.861612
0.861414
0.861318
0.861324
0.861356
0.861415
0.861495
0.861514
0.861588
0.861602
0.86164
0.861665
0.861698
0.86171
0.861723
0.861729
0.783647
0.817134
0.777925
0.818396
0.819617
0.830809
0.83042
0.832712
0.83438
0.834468
0.839654
0.842003
0.845708
0.849854
0.853639
0.857101
0.859187
0.860528
0.860982
0.861078
0.860888
0.860785
0.860645
0.860629
0.860706
0.860885
0.861046
0.861222
0.861358
0.861436
0.861525
0.861572
0.861618
0.861654
0.861685
0.861706
0.861726
0.861731
0.796795
0.823308
0.810363
0.827446
0.830683
0.836171
0.843509
0.845085
0.846443
0.847373
0.848196
0.848839
0.84936
0.850863
0.853571
0.855559
0.857305
0.858399
0.858966
0.859188
0.859156
0.859208
0.859209
0.859498
0.859886
0.860406
0.860766
0.861079
0.861281
0.861402
0.861506
0.861568
0.861612
0.861662
0.861691
0.861722
0.861744
0.837726
0.841529
0.819166
0.817029
0.829878
0.834863
0.839725
0.843037
0.843527
0.84456
0.846214
0.847647
0.848881
0.852538
0.854261
0.855281
0.856392
0.856907
0.857339
0.857474
0.857502
0.857776
0.858258
0.858821
0.859441
0.86011
0.860618
0.861009
0.861281
0.861395
0.86152
0.861569
0.86162
0.861664
0.861694
0.861727
0.861751
0.762373
0.736613
0.768446
0.804806
0.832411
0.837262
0.844795
0.845372
0.845903
0.845824
0.84695
0.84828
0.849848
0.851202
0.852283
0.853768
0.854688
0.855242
0.8557
0.85591
0.855653
0.855979
0.856382
0.856822
0.858055
0.859492
0.860448
0.861028
0.861359
0.861463
0.861576
0.861607
0.861642
0.861684
0.861708
0.861745
0.86177
0.90938
0.880814
0.837831
0.825895
0.844014
0.844547
0.849725
0.851092
0.850668
0.849522
0.84853
0.848962
0.850254
0.851994
0.853699
0.853984
0.854244
0.854216
0.85421
0.854323
0.853289
0.853304
0.854943
0.856526
0.858099
0.859814
0.860823
0.861407
0.861567
0.861633
0.861659
0.86166
0.861669
0.861702
0.861719
0.861756
0.861782
0.254223
0.414591
0.581891
0.756387
0.836942
0.844235
0.856908
0.853637
0.850026
0.844007
0.84217
0.845957
0.850047
0.851646
0.851256
0.851677
0.852824
0.852846
0.852699
0.853672
0.852069
0.851814
0.854155
0.85246
0.854198
0.859521
0.861022
0.861773
0.861783
0.861788
0.861754
0.861714
0.861696
0.861718
0.861725
0.861768
0.861786
0.809128
0.756085
0.893229
0.901605
0.894588
0.884448
0.88314
0.871364
0.862891
0.854182
0.849794
0.85184
0.854126
0.854717
0.854365
0.853787
0.853685
0.853545
0.852771
0.853346
0.851404
0.850561
0.852597
0.854231
0.858401
0.861977
0.862627
0.862623
0.862161
0.862012
0.861863
0.861767
0.861723
0.861714
0.861731
0.861767
0.861785
0.808673
1.03758
1.07148
0.987746
0.995323
0.978245
0.933419
0.891684
0.852058
0.830486
0.815336
0.82663
0.834135
0.830252
0.849702
0.885787
0.892317
0.884212
0.87723
0.872054
0.868518
0.8662
0.864661
0.863647
0.863022
0.862601
0.862333
0.862169
0.862056
0.861976
0.861919
0.861878
0.861859
0.861841
0.861838
0.861845
0.861831
0.861792
0.644465
0.455454
0.482794
0.547103
0.652648
0.766307
0.814095
0.808739
0.794294
0.786917
0.767202
0.793554
0.819866
0.825441
0.845835
0.870976
0.878326
0.876479
0.873224
0.869945
0.86732
0.865478
0.86415
0.863267
0.86271
0.862328
0.862084
0.861949
0.861845
0.861782
0.861734
0.861707
0.861701
0.86169
0.861708
0.861732
0.861723
0.861696
1.02583
0.946822
0.716174
0.811759
0.832088
0.828314
0.834678
0.842704
0.837696
0.841265
0.841684
0.845316
0.846752
0.849029
0.856531
0.866041
0.870985
0.870926
0.869497
0.867531
0.865803
0.864445
0.863437
0.862754
0.862315
0.862025
0.861846
0.861763
0.861697
0.861672
0.861655
0.86165
0.861662
0.861664
0.86169
0.861706
0.861704
0.836738
0.738129
0.737872
0.765672
0.789744
0.806298
0.81777
0.816547
0.817997
0.818081
0.822411
0.830138
0.837567
0.844104
0.852602
0.860686
0.864874
0.86621
0.865953
0.865084
0.864098
0.863255
0.862555
0.862104
0.861817
0.86167
0.86158
0.861566
0.861566
0.861567
0.861597
0.861608
0.861635
0.861653
0.861686
0.8617
0.861704
0.862928
0.889086
0.80582
0.833445
0.826252
0.837002
0.839559
0.843927
0.844704
0.846271
0.846961
0.849347
0.849892
0.852174
0.855089
0.858839
0.861473
0.862791
0.863102
0.862843
0.862353
0.861885
0.861506
0.861324
0.861244
0.86126
0.861299
0.861368
0.861445
0.86148
0.861551
0.861574
0.861618
0.861648
0.861683
0.8617
0.861715
0.861718
0.810847
0.818357
0.793953
0.816557
0.823312
0.829128
0.831276
0.832837
0.8343
0.835608
0.839856
0.842902
0.846804
0.850741
0.854223
0.857273
0.859172
0.860399
0.860833
0.860931
0.860768
0.860679
0.860555
0.860557
0.860642
0.860821
0.860993
0.861172
0.861312
0.861401
0.86149
0.861543
0.861594
0.861635
0.86167
0.861696
0.861716
0.861723
0.812765
0.83524
0.825126
0.829167
0.836962
0.837786
0.843682
0.845051
0.846219
0.84731
0.848058
0.848915
0.849754
0.851493
0.853821
0.855735
0.857314
0.858343
0.858881
0.859108
0.859094
0.859137
0.859166
0.859441
0.859833
0.860331
0.86071
0.861024
0.861235
0.861361
0.861469
0.861534
0.861587
0.861638
0.861673
0.861707
0.861732
0.844263
0.837714
0.821823
0.819804
0.833108
0.836044
0.840741
0.843171
0.844016
0.845143
0.846737
0.84827
0.850027
0.852778
0.854189
0.85533
0.856307
0.856875
0.857282
0.857455
0.857481
0.85774
0.858177
0.858742
0.859368
0.86002
0.860545
0.860955
0.861228
0.861358
0.861479
0.861536
0.861591
0.861639
0.861675
0.861711
0.861739
0.750206
0.740943
0.783344
0.811232
0.835437
0.839087
0.845011
0.845726
0.845796
0.845957
0.846917
0.848388
0.85007
0.85148
0.852582
0.853823
0.85468
0.855236
0.855665
0.855898
0.855679
0.85594
0.856336
0.856822
0.858001
0.859375
0.860354
0.860971
0.861306
0.861426
0.861535
0.861572
0.861614
0.861658
0.861689
0.861729
0.861758
0.874864
0.870348
0.839923
0.830832
0.845307
0.846289
0.850557
0.851313
0.850296
0.849358
0.848493
0.849402
0.850945
0.852657
0.853627
0.853771
0.854128
0.854183
0.854254
0.854431
0.853535
0.853356
0.854703
0.856292
0.857939
0.859589
0.860654
0.861345
0.86153
0.861604
0.861628
0.861628
0.861643
0.861676
0.8617
0.86174
0.86177
0.237946
0.462885
0.645118
0.778095
0.839543
0.846098
0.855539
0.852244
0.848404
0.843666
0.841893
0.845461
0.850056
0.852059
0.851654
0.851727
0.852713
0.852875
0.852733
0.853655
0.852281
0.851776
0.853967
0.852891
0.854394
0.858936
0.860742
0.861719
0.86175
0.861763
0.861731
0.861685
0.861673
0.861688
0.861709
0.86175
0.861775
0.846551
0.778182
0.877204
0.892146
0.888728
0.881449
0.878548
0.868241
0.860544
0.85296
0.849192
0.851123
0.853751
0.85478
0.854423
0.853702
0.853574
0.853504
0.852887
0.853309
0.851641
0.850794
0.852366
0.854111
0.858165
0.861054
0.861451
0.862626
0.862133
0.862017
0.861836
0.861733
0.861701
0.861689
0.861706
0.861748
0.861781
0.862196
0.910191
1.00859
0.942404
0.952977
0.952498
0.904187
0.865075
0.838859
0.819233
0.821456
0.84461
0.852323
0.845161
0.857692
0.88178
0.884793
0.87976
0.874729
0.870687
0.867734
0.865725
0.864361
0.863449
0.862873
0.862489
0.862241
0.862092
0.861988
0.861918
0.86187
0.86184
0.861829
0.861821
0.861826
0.861835
0.86182
0.861783
0.59662
0.551416
0.680087
0.675707
0.750504
0.810373
0.814527
0.799651
0.789001
0.769813
0.759905
0.810241
0.835807
0.841377
0.856052
0.870912
0.87554
0.874228
0.871636
0.868926
0.866694
0.865066
0.86388
0.863077
0.862565
0.862214
0.861991
0.861867
0.861773
0.86172
0.861683
0.861666
0.861669
0.861671
0.861697
0.86172
0.861708
0.861688
0.849831
0.830204
0.778404
0.831672
0.832208
0.840682
0.839211
0.842437
0.8386
0.841949
0.84457
0.848734
0.850522
0.852576
0.858861
0.866001
0.869639
0.869678
0.868489
0.866815
0.865321
0.86412
0.863208
0.862587
0.862184
0.861921
0.861762
0.861688
0.861634
0.861617
0.861611
0.861615
0.861634
0.861649
0.861678
0.861696
0.861695
0.788557
0.73099
0.759668
0.776167
0.79796
0.806941
0.817433
0.815259
0.81684
0.81735
0.8236
0.834023
0.841687
0.847945
0.854941
0.861158
0.864476
0.865598
0.865375
0.864633
0.863767
0.863007
0.862374
0.861964
0.861707
0.861575
0.861503
0.861499
0.861505
0.861519
0.861554
0.861574
0.861609
0.861637
0.861673
0.861691
0.861699
0.834944
0.863769
0.807628
0.834588
0.831751
0.83842
0.841155
0.844205
0.844959
0.846518
0.847973
0.849911
0.850793
0.852998
0.855746
0.859028
0.861306
0.862498
0.862781
0.862568
0.862129
0.861716
0.861379
0.861219
0.861155
0.861182
0.86123
0.86131
0.861387
0.861436
0.861508
0.861541
0.861592
0.861629
0.861666
0.861689
0.861706
0.861709
0.815509
0.818681
0.803626
0.818106
0.825458
0.828631
0.831833
0.832754
0.834454
0.836336
0.840296
0.844069
0.848003
0.851659
0.854779
0.85743
0.859133
0.860245
0.86066
0.860765
0.860629
0.860544
0.860453
0.860473
0.860568
0.86075
0.860931
0.861115
0.861259
0.861358
0.861451
0.86151
0.861568
0.861615
0.861655
0.861685
0.861707
0.861716
0.820883
0.8366
0.827916
0.831008
0.838147
0.839148
0.843917
0.845073
0.846183
0.847213
0.848041
0.849073
0.850208
0.852021
0.854102
0.855886
0.857313
0.858271
0.858782
0.859015
0.859024
0.859077
0.859114
0.85938
0.859765
0.860248
0.860643
0.860962
0.861181
0.861315
0.861426
0.861497
0.861558
0.861613
0.861655
0.861692
0.86172
0.844557
0.834639
0.822862
0.82299
0.834823
0.837215
0.841491
0.843274
0.844149
0.845356
0.846975
0.84872
0.850564
0.852962
0.85423
0.855351
0.856236
0.856823
0.857221
0.857426
0.857463
0.857693
0.858095
0.858653
0.859279
0.859923
0.86047
0.860894
0.861172
0.861313
0.861433
0.861498
0.861559
0.861613
0.861655
0.861696
0.861728
0.750088
0.751546
0.793648
0.81694
0.837866
0.840615
0.845117
0.845532
0.845611
0.845833
0.846862
0.848491
0.850319
0.851798
0.852829
0.853876
0.854655
0.855207
0.855628
0.855884
0.855726
0.855915
0.856299
0.856822
0.857918
0.859226
0.860256
0.860903
0.861248
0.861381
0.861489
0.861531
0.86158
0.861628
0.861667
0.861711
0.861745
0.851091
0.860324
0.840193
0.835648
0.84662
0.847653
0.850957
0.85094
0.849786
0.848735
0.848329
0.849446
0.851214
0.852798
0.853509
0.853623
0.853951
0.854124
0.85428
0.854524
0.853814
0.853484
0.854481
0.856031
0.857729
0.859333
0.860505
0.861297
0.861498
0.861569
0.861589
0.861589
0.861609
0.861646
0.861678
0.861724
0.861758
0.333847
0.529418
0.697001
0.796075
0.842909
0.848473
0.85447
0.85063
0.846605
0.842905
0.841712
0.845164
0.850131
0.852494
0.852097
0.851801
0.852547
0.852861
0.852769
0.853645
0.852573
0.851861
0.853699
0.853339
0.854448
0.858217
0.860505
0.861716
0.861739
0.861735
0.861694
0.86165
0.861637
0.861653
0.861687
0.861732
0.861761
0.905335
0.810254
0.874385
0.886342
0.88433
0.878663
0.874625
0.865439
0.858227
0.851803
0.848692
0.850559
0.853488
0.854867
0.854504
0.853645
0.853426
0.853438
0.852976
0.853265
0.851966
0.851071
0.852126
0.85372
0.857548
0.859964
0.86066
0.862772
0.862206
0.862041
0.861814
0.861696
0.86167
0.861666
0.861683
0.861727
0.861772
0.783574
0.849951
0.954271
0.918795
0.921513
0.923667
0.876364
0.845298
0.829194
0.814513
0.836518
0.867301
0.866745
0.857359
0.864109
0.877773
0.879177
0.876106
0.87248
0.869345
0.866931
0.865221
0.86403
0.863222
0.862702
0.862357
0.862132
0.861999
0.861907
0.861849
0.861812
0.861793
0.861794
0.861798
0.861811
0.861823
0.86181
0.86178
0.649628
0.569703
0.750593
0.76334
0.795267
0.823024
0.805451
0.794155
0.782447
0.749792
0.772875
0.832191
0.849094
0.852766
0.861566
0.870041
0.87305
0.872126
0.870099
0.867905
0.866034
0.864622
0.863579
0.862862
0.862397
0.862082
0.861883
0.861772
0.861692
0.86165
0.861626
0.861621
0.861634
0.861651
0.861686
0.861709
0.861699
0.861688
0.894347
0.877346
0.809805
0.841223
0.840445
0.846049
0.841651
0.841137
0.839895
0.843939
0.847701
0.852627
0.854182
0.855921
0.860654
0.865729
0.868347
0.868439
0.867469
0.866093
0.864806
0.86376
0.862951
0.862397
0.862034
0.861801
0.861663
0.861601
0.861561
0.861554
0.86156
0.861576
0.861605
0.861632
0.861666
0.861688
0.86169
0.802796
0.748677
0.77882
0.790835
0.806501
0.810064
0.818061
0.815036
0.81579
0.817348
0.827166
0.838825
0.845806
0.851265
0.856737
0.861432
0.864018
0.864946
0.864763
0.86414
0.863396
0.862727
0.862168
0.861804
0.861578
0.861466
0.861413
0.86142
0.861435
0.861462
0.861504
0.861536
0.86158
0.861618
0.861658
0.861682
0.861694
0.852521
0.863482
0.821778
0.836339
0.836019
0.840021
0.842292
0.844472
0.84537
0.846909
0.848668
0.850573
0.851752
0.853856
0.856373
0.859166
0.86111
0.862163
0.862425
0.862261
0.861885
0.861526
0.861233
0.861096
0.861051
0.861089
0.861149
0.861239
0.861319
0.861382
0.861457
0.861502
0.86156
0.861606
0.861648
0.861676
0.861697
0.861702
0.826205
0.821788
0.813183
0.820826
0.827765
0.829093
0.832472
0.832981
0.834807
0.837195
0.841358
0.845458
0.849237
0.852538
0.855264
0.857552
0.859062
0.860063
0.860461
0.860579
0.860475
0.860407
0.860342
0.860379
0.860485
0.86067
0.860859
0.861049
0.861197
0.861306
0.861404
0.861471
0.861536
0.861591
0.861636
0.861672
0.861697
0.86171
0.828534
0.837398
0.833115
0.833355
0.839959
0.84042
0.844225
0.845148
0.846153
0.847166
0.848088
0.849292
0.850668
0.852494
0.854374
0.856008
0.85729
0.858177
0.858667
0.85891
0.858944
0.859003
0.859054
0.859314
0.859687
0.860158
0.860565
0.860892
0.861117
0.861261
0.861376
0.861454
0.861524
0.861585
0.861634
0.861676
0.861708
0.845728
0.833729
0.826447
0.826723
0.837042
0.838578
0.842158
0.843495
0.844404
0.845695
0.847365
0.849215
0.851079
0.853127
0.854307
0.855359
0.856157
0.856747
0.857146
0.857385
0.857447
0.857651
0.858016
0.85856
0.859181
0.859823
0.860389
0.860826
0.861108
0.86126
0.86138
0.861453
0.861522
0.861582
0.861632
0.861679
0.861715
0.759109
0.76583
0.805479
0.822872
0.840214
0.842068
0.845226
0.84539
0.845373
0.84575
0.846878
0.848667
0.85059
0.852099
0.853054
0.853915
0.854606
0.855156
0.85558
0.855871
0.855793
0.855932
0.856275
0.856825
0.857828
0.859062
0.860149
0.860829
0.861185
0.861327
0.861434
0.861483
0.861539
0.861595
0.861642
0.861692
0.861732
0.840219
0.854033
0.842034
0.840283
0.848307
0.848935
0.851222
0.850691
0.849333
0.848456
0.848318
0.849662
0.851528
0.85302
0.853477
0.853509
0.853766
0.854034
0.854285
0.854593
0.85411
0.853675
0.854332
0.855782
0.857509
0.859071
0.860382
0.861254
0.861475
0.86153
0.861542
0.861541
0.861567
0.86161
0.861651
0.861704
0.861744
0.465448
0.599398
0.741395
0.811734
0.8468
0.850843
0.85366
0.849038
0.84489
0.842223
0.841698
0.845149
0.850311
0.852928
0.852547
0.851879
0.852337
0.85279
0.852801
0.853629
0.852923
0.852059
0.853413
0.853768
0.854489
0.857543
0.860217
0.861748
0.861766
0.861717
0.861646
0.861602
0.861593
0.861612
0.861655
0.861714
0.861745
0.924259
0.833319
0.877178
0.883011
0.881288
0.876213
0.871405
0.862796
0.855901
0.850645
0.848309
0.850186
0.853338
0.854984
0.854605
0.853598
0.853246
0.853333
0.853039
0.853246
0.852362
0.851391
0.85193
0.853314
0.856965
0.859123
0.86056
0.862928
0.862409
0.862082
0.861798
0.861662
0.861629
0.861635
0.861657
0.861706
0.861757
0.798366
0.829828
0.895859
0.903118
0.900172
0.90002
0.857413
0.835563
0.820592
0.822887
0.860366
0.885552
0.875632
0.865038
0.867695
0.874333
0.875088
0.873114
0.870509
0.868088
0.866138
0.864703
0.863679
0.862973
0.862512
0.862207
0.862008
0.861892
0.861815
0.861769
0.861745
0.861741
0.861755
0.861774
0.861796
0.861811
0.861802
0.861781
0.665868
0.610055
0.79611
0.809589
0.820438
0.82402
0.79916
0.795899
0.768507
0.740982
0.80163
0.851138
0.85863
0.859772
0.864187
0.868991
0.870902
0.870234
0.868657
0.866911
0.865362
0.864158
0.863255
0.862625
0.862212
0.861934
0.861761
0.861665
0.861601
0.861572
0.861562
0.861571
0.861597
0.861632
0.861675
0.861698
0.861694
0.861694
0.844667
0.852774
0.822789
0.845039
0.844477
0.8488
0.841383
0.84119
0.841755
0.845878
0.851393
0.856385
0.857386
0.858587
0.861839
0.865307
0.867152
0.867255
0.866474
0.865355
0.864274
0.863377
0.862674
0.862188
0.861868
0.861666
0.861551
0.861504
0.861479
0.861484
0.861503
0.861532
0.861574
0.861613
0.861653
0.861679
0.861686
0.803648
0.768832
0.794019
0.803356
0.814291
0.814418
0.818987
0.815339
0.815179
0.819528
0.832524
0.843575
0.849434
0.85389
0.858033
0.861534
0.863522
0.864278
0.86414
0.863634
0.863002
0.862426
0.861943
0.861627
0.861434
0.861344
0.86131
0.861329
0.861356
0.861395