/*--------------------------------*- C++ -*----------------------------------*\
| =========                 |                                                 |
| \\      /  F ield         | OpenFOAM: The Open Source CFD Toolbox           |
|  \\    /   O peration     | Version:  2.3.1                                 |
|   \\  /    A nd           | Web:      www.OpenFOAM.org                      |
|    \\/     M anipulation  |                                                 |
\*---------------------------------------------------------------------------*/
FoamFile
{
    version     2.0;
    format      ascii;
    class       surfaceScalarField;
    location    "15";
    object      phi;
}
// * * * * * * * * * * * * * * * * * * * * * * * * * * * * * * * * * * * * * //

dimensions      [0 3 -1 0 0 0 0];

internalField   nonuniform List<scalar> 
108164
(
0.000568089
-0.000564085
-0.000675584
0.000575629
-0.000239678
0.000232139
0.000467214
-0.000215503
0.000323918
0.000393927
-0.000207298
0.000280585
0.000362737
-0.000135291
0.000166481
0.000304692
-2.8427e-05
8.64729e-05
0.000264346
-9.30451e-05
0.000133391
0.000216529
-1.39768e-06
4.92149e-05
0.000197563
-5.49275e-05
7.38931e-05
0.000192578
-2.1257e-05
2.62423e-05
0.000182814
-2.62394e-05
3.60033e-05
0.000151033
-1.39964e-05
4.57767e-05
0.000144634
-1.68617e-05
2.32607e-05
0.000163643
-1.60746e-05
-2.93373e-06
0.00015503
2.81777e-06
5.79479e-06
9.59504e-05
3.79083e-05
2.11714e-05
3.82152e-05
2.98668e-05
2.78684e-05
1.17821e-05
1.19486e-05
1.44845e-05
1.38384e-06
5.96376e-06
4.43451e-06
-3.75514e-06
5.23435e-07
4.61555e-06
-4.72124e-06
3.16753e-07
6.49349e-07
-5.66572e-06
-1.38005e-06
2.32452e-06
-4.90529e-06
-1.56662e-06
8.06198e-07
-4.00619e-06
-1.36047e-06
4.61363e-07
-2.69145e-06
-2.20605e-06
8.91315e-07
-7.74969e-07
-1.48255e-06
-4.33936e-07
5.85251e-07
-2.43231e-06
1.07209e-06
2.35774e-06
-1.78929e-06
1.68008e-08
4.16457e-06
-1.97571e-06
1.68883e-07
6.3798e-06
-2.11759e-06
-9.76414e-08
8.15558e-06
-1.9361e-06
1.60328e-07
9.58197e-06
-1.95909e-06
5.327e-07
1.12303e-05
-1.872e-06
2.23686e-07
1.269e-05
-1.60357e-06
1.43815e-07
1.3672e-05
-1.42564e-06
4.43717e-07
1.48928e-05
-1.18213e-06
-3.86955e-08
1.66438e-05
-7.85604e-07
-9.6542e-07
-7.15132e-07
-1.22484e-06
-0.000349829
0.000743789
-0.000604503
-0.000443993
0.000669494
-0.000815009
-0.000394121
0.000171538
-0.000436914
-0.000196988
-0.000138579
-0.000265852
-0.000175291
-0.000100981
-5.60081e-05
-0.000185894
0.000150337
-0.000168161
-0.000102572
-0.000140524
-3.58434e-05
-0.000126128
6.22911e-05
-4.01329e-05
-9.61065e-05
-7.25675e-05
-1.23815e-05
-8.00077e-05
-5.6439e-06
-3.17119e-05
-6.19635e-05
-1.63775e-05
-2.79061e-05
-4.1789e-05
-2.3598e-06
-3.18111e-05
-3.35438e-05
6.77687e-06
-3.18837e-05
-3.15261e-05
1.16113e-05
-2.97037e-05
-1.97755e-05
8.06495e-06
-1.69978e-05
-1.41614e-05
3.64732e-05
-4.17897e-06
-1.24432e-05
1.71776e-05
1.09709e-05
-1.26956e-05
8.54205e-06
3.65895e-06
-1.44536e-05
5.77147e-06
1.95037e-06
-1.8071e-05
5.8521e-07
3.55562e-06
-1.70011e-05
-7.69551e-07
1.63585e-08
-1.78513e-05
-2.08389e-06
1.55403e-06
-1.66668e-05
-2.92197e-06
1.70889e-07
-1.58099e-05
-2.30854e-06
9.11497e-08
-1.42819e-05
-4.01447e-06
2.80433e-07
-1.32426e-05
-3.17625e-06
6.54423e-07
-1.14223e-05
-4.23716e-06
-1.55006e-08
-9.588e-06
-3.85484e-06
2.31267e-07
-8.16423e-06
-3.19033e-06
-2.09149e-07
-6.38577e-06
-4.00691e-06
1.10859e-07
-4.69049e-06
-2.94386e-06
-6.87519e-07
-2.86758e-06
-3.26612e-06
-5.15888e-07
-1.19907e-06
-2.87223e-06
-6.68275e-07
5.8675e-07
-2.54119e-06
-8.48194e-07
2.3255e-06
-2.19517e-06
-9.6922e-07
4.10233e-06
-1.9985e-06
-9.60459e-07
5.76989e-06
-1.75281e-06
-7.0035e-07
-5.20608e-07
-0.00035809
0.000863121
-1.5391e-05
-0.000238148
0.000357201
0.000192351
-3.4348e-05
-3.05424e-05
-1.71909e-06
-3.80476e-05
-6.78015e-05
-6.70779e-05
-0.000136548
-5.61866e-05
5.37069e-05
-7.49388e-05
6.29983e-05
2.57295e-05
-2.73086e-05
-7.59095e-05
-0.000112245
-4.78335e-05
8.16934e-06
7.46467e-05
-1.90756e-05
-4.96005e-05
-5.17249e-05
-4.48983e-05
-2.1576e-06
2.23364e-05
-4.2614e-05
-1.81251e-05
-5.36658e-07
-4.16719e-05
-2.92532e-06
-3.76574e-07
-3.4928e-05
2.3705e-06
-2.33751e-06
-3.45863e-05
6.62137e-06
4.64817e-06
-3.11261e-05
5.84649e-06
-1.2417e-06
-1.98688e-05
2.37831e-05
1.43282e-06
-2.08125e-05
1.21719e-05
5.94937e-06
-1.90028e-05
7.55905e-06
-8.26713e-07
-1.95253e-05
1.99391e-06
4.30003e-06
-2.12001e-05
4.25907e-06
-1.99899e-06
-2.03056e-05
-2.92848e-06
1.26437e-06
-2.03453e-05
-8.84644e-07
-1.15947e-06
-2.01431e-05
-3.52641e-06
4.0225e-07
-1.85959e-05
-2.28331e-06
-1.57243e-06
-1.79152e-05
-4.90811e-06
2.12871e-07
-1.67267e-05
-3.93228e-06
-4.32454e-07
-1.52781e-05
-4.70528e-06
-9.80438e-07
-1.37542e-05
-5.39373e-06
1.49404e-08
-1.29245e-05
-2.60912e-06
-1.41088e-06
-1.13234e-05
-5.60301e-06
-5.06261e-09
-1.00112e-05
-2.72581e-06
-1.53025e-06
-8.6876e-06
-4.39455e-06
-1.95126e-07
-7.51794e-06
-3.03958e-06
-1.00232e-06
-5.9469e-06
-2.90985e-06
-1.20238e-06
-4.81483e-06
-2.591e-06
-7.36241e-07
-3.51612e-06
-2.60694e-06
-6.90275e-07
-2.17222e-06
-7.33362e-07
-0.000119405
0.000822128
-3.86156e-05
7.81215e-05
-2.0459e-05
0.000180134
-8.70111e-05
5.7174e-05
7.74163e-05
-0.000153825
8.1382e-05
-8.23697e-05
-7.00829e-05
-4.93168e-05
-9.06119e-05
-4.66595e-05
-2.58711e-05
6.5446e-05
-7.60294e-05
-4.60108e-05
-5.2882e-07
-5.40211e-05
-2.05264e-05
6.68747e-06
-5.99251e-05
-2.51131e-05
-1.85834e-05
-5.42008e-05
4.28637e-06
-1.21682e-05
-5.26008e-05
-1.50293e-05
-4.6958e-06
-4.51222e-05
1.64533e-06
-1.20493e-05
-4.24073e-05
6.12018e-07
-9.56405e-07
-4.03785e-05
5.8241e-06
-1.23156e-06
-3.42369e-05
1.16335e-05
-1.19285e-05
-2.8025e-05
1.12182e-05
6.35294e-06
-2.33253e-05
9.22582e-06
-1.7536e-06
-2.28976e-05
8.28633e-06
-1.15496e-06
-2.25535e-05
-9.09582e-07
2.55941e-06
-2.23099e-05
7.73095e-06
-3.71547e-06
-2.2025e-05
-3.43793e-06
2.2447e-07
-2.22926e-05
-3.56897e-07
-2.60092e-07
-2.11419e-05
-3.22371e-06
-1.45338e-06
-2.03676e-05
-2.21022e-06
-8.47456e-07
-1.90319e-05
-5.4542e-06
-7.89553e-07
-1.84743e-05
-4.50003e-06
1.01017e-08
-1.66547e-05
-4.92964e-06
-1.59524e-06
-1.53461e-05
-5.45132e-06
-1.25104e-06
-1.47942e-05
-3.14054e-06
-2.04742e-08
-1.27894e-05
-5.84476e-06
-1.76303e-06
-1.20431e-05
-3.21458e-06
-2.57508e-07
-1.09529e-05
-4.67667e-06
-8.08095e-07
-9.88486e-06
-2.79622e-06
-1.31138e-06
-8.36e-06
-3.11307e-06
-1.32163e-06
-7.82054e-06
-2.50393e-06
-6.26536e-07
-6.60012e-06
-2.69875e-06
-1.1286e-06
-1.949e-06
-1.20449e-06
-8.62715e-05
0.000792268
-5.8544e-05
1.11145e-05
-0.000110733
-7.11241e-06
-7.8241e-05
0.000125692
2.08378e-05
-6.01189e-05
3.34717e-05
2.97881e-05
-5.72578e-05
-2.20286e-05
-3.01493e-05
-3.08429e-05
-4.84628e-05
-3.82326e-06
-2.79621e-05
-1.67071e-05
-3.21844e-05
-4.62745e-05
5.74611e-06
-7.96009e-06
-4.40487e-05
-1.10614e-05
-1.62775e-05
-4.29069e-05
7.71369e-06
-4.56917e-06
-3.99156e-05
4.12984e-06
-2.21505e-05
-4.09465e-05
-1.08422e-06
3.7604e-06
-3.63296e-05
6.7891e-06
-1.0794e-05
-3.64072e-05
5.78244e-06
1.19268e-07
-3.0635e-05
1.06607e-05
-4.79938e-06
-3.07035e-05
1.03964e-05
8.90279e-07
-2.64773e-05
8.1041e-06
-3.10442e-06
-2.48383e-05
8.67206e-06
-2.02473e-06
-2.59393e-05
6.16458e-07
-4.25112e-07
-2.31604e-05
5.92251e-06
-9.70397e-07
-2.38071e-05
9.95276e-08
-2.8908e-06
-2.40249e-05
-6.33064e-07
4.93993e-07
-2.23291e-05
-2.81437e-06
-2.1051e-06
-2.2208e-05
-1.17098e-06
-1.16034e-06
-1.98345e-05
-6.98655e-06
-8.41169e-07
-1.90898e-05
-4.12317e-06
-1.12154e-06
-1.82695e-05
-4.73165e-06
-1.01829e-06
-1.66909e-05
-5.40502e-06
-1.62497e-06
-1.55796e-05
-4.89321e-06
6.41369e-07
-1.40533e-05
-4.4757e-06
-2.89533e-06
-1.31478e-05
-5.24711e-06
1.127e-06
-1.20837e-05
-3.50029e-06
-2.24047e-06
-1.0674e-05
-3.61677e-06
-5.8911e-07
-9.40723e-06
-3.53359e-06
-8.46261e-07
-9.32168e-06
-2.2437e-06
-3.45796e-07
-8.4119e-06
-2.59139e-06
-1.01713e-06
-8.44094e-06
-1.4709e-06
-4.4906e-07
-1.9589e-06
-3.03789e-08
-4.68108e-05
0.000775086
-6.55634e-05
3.11573e-05
-0.000150486
-3.8215e-05
1.32847e-05
8.47006e-05
5.88638e-05
2.33763e-05
4.8294e-06
1.85507e-05
-2.22912e-05
5.72149e-05
-3.35759e-05
-1.54513e-05
-5.69851e-05
1.68242e-06
-1.1439e-07
1.05398e-05
-4.25838e-05
-1.71092e-05
6.77105e-06
1.59698e-05
-5.87252e-06
-3.43725e-06
-1.88608e-05
-7.08714e-06
1.10552e-05
-2.12694e-06
-3.03777e-05
8.2138e-06
1.92066e-05
-3.59201e-05
1.9332e-06
2.52495e-06
-3.46091e-05
8.19802e-06
-2.71985e-06
-3.27108e-05
3.75314e-06
1.31002e-07
-2.97837e-05
1.21723e-05
-4.43883e-06
-2.95255e-05
6.82247e-06
3.31586e-06
-2.62071e-05
1.11546e-05
-6.36895e-06
-2.87186e-05
9.74838e-06
1.43518e-06
-2.61508e-05
1.75412e-06
-3.70542e-06
-2.47755e-05
4.06323e-06
4.84021e-07
-2.55356e-05
3.42446e-06
-2.56485e-06
-2.54956e-05
2.24448e-09
-6.75316e-07
-2.38215e-05
-2.87656e-06
-1.61195e-06
-2.22385e-05
-6.00663e-07
-2.15328e-06
-2.05694e-05
-7.05967e-06
-1.59601e-06
-2.03136e-05
-3.84616e-06
-5.32763e-07
-1.86978e-05
-4.87997e-06
-1.4675e-06
-1.72685e-05
-5.55803e-06
-1.27632e-06
-1.69649e-05
-4.33998e-06
-8.56832e-07
-1.52155e-05
-4.23402e-06
-1.99105e-06
-1.45766e-05
-5.28265e-06
-6.03326e-07
-1.38129e-05
-2.82398e-06
-1.44001e-06
-1.24202e-05
-4.05159e-06
-9.57941e-07
-1.16255e-05
-3.41313e-06
-9.15122e-07
-1.07228e-05
-2.24284e-06
-9.03586e-07
-9.90277e-06
-2.46621e-06
-9.45181e-07
-9.77403e-06
-1.25512e-06
-3.44527e-07
-7.20204e-07
-5.0835e-05
0.000807008
-5.57827e-05
-1.36718e-05
-8.3247e-05
-0.000104402
-3.74717e-05
5.03778e-05
5.81227e-05
-4.45119e-05
7.90021e-06
3.96936e-06
-3.45514e-05
4.43831e-05
2.87133e-06
-5.89202e-05
8.59925e-06
-4.12156e-05
-6.43082e-05
7.11022e-06
8.81763e-06
-5.65404e-05
2.02156e-05
-2.12124e-05
-6.54492e-05
1.05165e-05
-5.04497e-06
-5.86225e-05
1.41991e-05
-9.97059e-06
-5.41394e-05
1.94698e-05
-1.5739e-05
-5.07626e-05
1.72876e-05
-1.87313e-05
-4.65701e-05
1.89444e-05
-1.49389e-05
-3.66942e-05
9.17992e-06
-1.53026e-05
-3.30624e-05
7.25518e-06
1.28537e-06
-3.22117e-05
1.03379e-05
-4.36619e-06
-2.72027e-05
8.82847e-06
-2.68282e-06
-2.85066e-05
1.15943e-05
-5.42051e-07
-2.81346e-05
4.1739e-06
-2.79171e-06
-2.65471e-05
3.75273e-06
-1.27704e-06
-2.44156e-05
3.35097e-06
-2.058e-06
-2.68693e-05
1.68571e-06
7.70205e-07
-2.51316e-05
-1.53704e-06
-3.07725e-06
-2.2474e-05
-3.27456e-06
1.63374e-08
-2.1944e-05
-4.33114e-06
-3.2585e-06
-1.97687e-05
-6.40889e-06
3.87434e-07
-1.82762e-05
-4.14901e-06
-2.22345e-06
-1.71989e-05
-5.89045e-06
-7.44926e-07
-1.70584e-05
-2.79789e-06
-1.68256e-06
-1.51655e-05
-4.99956e-06
-1.12742e-06
-1.53036e-05
-3.77394e-06
-1.37052e-06
-1.44177e-05
-2.93381e-06
-7.76076e-07
-1.30894e-05
-3.49524e-06
-1.88474e-06
-1.3026e-05
-2.98421e-06
-4.9223e-07
-1.16153e-05
-2.36933e-06
-1.28422e-06
-1.09064e-05
-2.46186e-06
-7.13297e-07
-1.49035e-06
-6.74956e-07
-1.13787e-05
0.000846137
-4.99688e-05
1.06226e-05
-4.75472e-05
-5.77011e-05
8.86136e-06
5.06461e-05
1.49287e-06
1.03718e-05
6.01992e-05
-5.38094e-05
2.76496e-06
4.92255e-05
2.76445e-06
1.17557e-05
3.11399e-06
-3.50547e-06
1.10973e-05
3.72538e-05
-2.94851e-05
7.35669e-06
3.70458e-05
-1.30897e-05
1.18721e-05
2.76752e-05
-2.16741e-05
8.87576e-06
3.14235e-05
-1.42279e-05
5.15525e-06
3.35267e-05
-1.03364e-05
9.52509e-06
2.16412e-05
-8.72334e-06
5.03762e-06
2.56216e-05
-2.18979e-06
-2.01209e-05
1.46393e-05
1.96991e-05
-2.5064e-05
9.71017e-06
2.48812e-06
-2.67708e-05
1.2607e-05
-5.62288e-07
-2.96594e-05
1.19137e-05
-1.96598e-07
-2.60803e-05
9.75954e-06
-1.74437e-06
-3.03324e-05
1.0557e-05
-2.13102e-06
-2.94944e-05
3.64156e-06
-7.2687e-07
-2.83098e-05
3.36148e-06
-1.1951e-06
-2.66285e-05
2.76088e-07
-2.71662e-07
-2.66343e-05
-1.25816e-06
-2.73161e-07
-2.43218e-05
-5.31186e-06
-2.75189e-07
-2.10073e-05
-4.98631e-06
-2.65932e-06
-1.97135e-05
-6.7579e-06
-9.44775e-07
-1.8205e-05
-5.30921e-06
-3.48317e-07
-1.71572e-05
-4.58228e-06
-2.35595e-06
-1.62286e-05
-3.60161e-06
-1.2488e-07
-1.52566e-05
-3.71867e-06
-2.25292e-06
-1.4805e-05
-3.61931e-06
-6.06174e-07
-1.45346e-05
-1.99965e-06
-1.20454e-06
-1.36476e-05
-2.91672e-06
-1.46552e-06
-1.34e-05
-2.48529e-06
-7.46572e-07
-1.26278e-05
-1.90336e-06
-1.23818e-06
-1.19912e-05
-2.22455e-06
-8.73887e-07
-1.43429e-06
-8.48974e-07
-6.79331e-06
0.000885846
-5.47796e-05
-6.30078e-06
-1.53304e-06
-4.65066e-05
-8.89834e-06
4.43089e-05
8.93472e-06
-2.35074e-05
6.28558e-05
1.19525e-05
-5.09563e-05
4.78055e-05
2.88689e-05
-5.17899e-05
1.48481e-05
-1.09004e-05
-4.66716e-05
3.31257e-05
-9.90298e-07
-4.37314e-05
3.49332e-05
-8.27544e-07
-4.34192e-05
2.91991e-05
-1.83618e-06
-3.87349e-05
2.68946e-05
-1.55432e-07
-4.13745e-05
2.83354e-05
7.83088e-06
-4.00411e-05
1.8045e-05
2.2627e-06
-4.13847e-05
2.47297e-05
2.2355e-06
-4.16992e-05
1.90371e-05
-4.08327e-06
-3.54106e-05
1.30262e-05
-9.60465e-06
-3.05445e-05
7.91897e-06
-1.78118e-07
-3.19209e-05
1.52281e-05
-1.93805e-06
-2.97549e-05
6.83708e-06
7.56529e-07
-2.79646e-05
1.08274e-05
-2.06073e-06
-3.02382e-05
5.1523e-06
7.62914e-07
-2.89462e-05
3.88111e-06
-1.81167e-06
-2.86292e-05
-1.53375e-06
1.49285e-06
-2.59178e-05
-3.07989e-06
-8.89686e-07
-2.66153e-05
-5.14994e-06
5.35633e-07
-2.41917e-05
-7.10793e-06
-3.01975e-07
-1.81845e-05
-7.94594e-06
-4.8192e-06
-1.76593e-05
-7.66686e-06
1.83249e-06
-1.67656e-05
-3.03066e-06
-2.4454e-06
-1.54048e-05
-4.65728e-06
-3.0511e-07
-1.50517e-05
-1.69872e-06
-2.37303e-06
-1.44028e-05
-3.58412e-06
-6.84091e-07
-1.44063e-05
-9.32599e-07
-1.06355e-06
-1.33974e-05
-2.14251e-06
-1.7831e-06
-1.34772e-05
-1.87287e-06
-5.32618e-07
-1.28718e-05
-1.08935e-06
-1.41938e-06
-1.24724e-05
-1.69285e-06
-9.31102e-07
-1.10688e-06
-8.55927e-07
1.0813e-05
0.000924889
-8.07149e-05
4.02873e-05
1.10069e-05
-4.20142e-05
5.3988e-05
3.70585e-05
-6.45032e-06
4.52767e-05
7.07475e-05
8.19574e-07
3.81151e-05
6.29171e-05
-7.94999e-06
5.39206e-05
3.24073e-05
-3.33647e-05
4.87394e-05
4.31895e-05
-4.88266e-06
3.38003e-05
5.63144e-05
-6.44203e-06
1.89187e-05
5.10157e-05
-6.93497e-06
1.11622e-05
4.37782e-05
-9.12703e-06
1.16816e-05
3.7821e-05
-1.0005e-05
1.3531e-05
2.80434e-05
-1.18478e-05
1.13393e-05
3.07417e-05
-3.8203e-06
-1.153e-06
2.78422e-05
3.6872e-06
-2.08517e-05
1.54961e-05
1.72288e-05
-2.72784e-05
1.23269e-05
2.01882e-06
-2.81913e-05
1.33161e-05
2.82489e-06
-2.88041e-05
9.17887e-06
-1.72895e-06
-2.75804e-05
7.93004e-06
1.67367e-06
-2.847e-05
5.01695e-06
1.02493e-06
-2.73969e-05
3.18224e-06
-3.74222e-07
-2.71633e-05
-3.63437e-06
1.86705e-06
-2.49933e-05
-7.06508e-06
1.81522e-06
-2.437e-05
-8.08582e-06
2.31254e-06
-2.30756e-05
-9.62133e-06
1.21899e-06
-1.61659e-05
-1.16066e-05
-3.24906e-06
-1.55045e-05
-8.38169e-06
5.34356e-08
-1.63097e-05
-2.8767e-06
6.51206e-07
-1.47801e-05
-3.40054e-06
-2.7863e-06
-1.47284e-05
-1.06615e-06
-6.84325e-07
-1.41357e-05
-2.45238e-06
-1.72439e-06
-1.42806e-05
-3.41031e-07
-4.46672e-07
-1.31062e-05
-1.09559e-06
-2.22133e-06
-1.35105e-05
-1.21794e-06
-2.50635e-07
-1.27477e-05
-4.16974e-07
-1.43514e-06
-1.24359e-05
-8.57159e-07
-1.14753e-06
-8.15237e-07
-6.24903e-07
4.82832e-05
0.000826714
7.73515e-06
-3.26189e-05
0.000163289
-7.13796e-05
-6.65214e-05
5.14372e-05
1.95237e-05
-1.99574e-06
2.06563e-05
-1.44344e-05
-3.70926e-06
4.00883e-05
2.45423e-05
-2.03973e-05
2.5701e-05
2.33944e-05
-2.37316e-05
3.45044e-05
1.20195e-05
-2.07929e-05
4.41936e-05
9.18205e-06
-2.49764e-05
4.31799e-05
1.20192e-05
-2.66314e-05
3.67824e-05
8.65075e-06
-2.29549e-05
2.44286e-05
9.71597e-06
-2.20578e-05
1.83854e-05
8.76087e-06
-2.34901e-05
2.27614e-05
9.41259e-06
-2.68735e-05
1.90696e-05
1.2156e-05
-2.79747e-05
1.03531e-05
6.2442e-06
-2.3575e-05
9.03425e-06
-1.10701e-06
-1.78802e-05
6.95759e-06
6.63722e-07
-1.26202e-05
6.26253e-06
-2.34371e-06
-6.95291e-06
3.65994e-06
-1.39719e-06
-3.5502e-06
3.13998e-06
-1.52574e-06
-3.64229e-06
5.11256e-06
-1.83823e-06
-6.3561e-06
-1.30137e-07
-7.90426e-07
-1.07144e-05
-2.42554e-06
-2.81253e-07
-1.82074e-05
-5.78611e-07
-1.41786e-08
-2.04738e-05
-6.55772e-06
-7.97191e-07
-1.46755e-05
-1.53417e-05
-2.06322e-06
-1.49352e-05
-8.72957e-06
6.07533e-07
-1.56936e-05
-3.82733e-06
1.70911e-06
-1.35527e-05
-1.64516e-06
-3.89635e-06
-1.43484e-05
-1.62919e-06
1.35877e-06
-1.43095e-05
-6.16777e-07
-1.87452e-06
-1.37338e-05
-6.18647e-07
-2.98012e-07
-1.29649e-05
-3.47286e-07
-1.51728e-06
-1.35606e-05
-4.96434e-07
-1.25743e-07
-1.26008e-05
-3.05496e-07
-1.07133e-06
-1.21936e-05
-2.09185e-07
-1.05514e-06
-5.26319e-07
-3.54622e-07
0.000236345
0.000478435
0.000254899
0.000144735
0.000175984
0.000130352
0.000107709
8.89317e-05
8.63778e-05
6.14192e-05
5.59883e-05
5.60905e-05
3.87036e-05
5.17891e-05
3.54263e-05
4.74709e-05
3.79114e-05
4.06947e-05
4.12594e-05
3.34344e-05
3.5223e-05
3.0465e-05
2.85916e-05
2.50168e-05
2.99095e-05
2.14435e-05
3.07501e-05
1.8229e-05
2.74742e-05
1.36289e-05
2.53274e-05
1.1181e-05
2.50924e-05
7.19257e-06
2.53705e-05
5.98444e-06
2.88019e-05
2.28549e-07
2.8141e-05
3.80097e-06
3.03672e-05
2.88631e-06
3.50532e-05
-4.81612e-06
3.07338e-05
1.89379e-06
3.25624e-05
-2.40714e-06
2.7761e-05
-1.75631e-06
4.48936e-06
7.92993e-06
-7.83101e-06
3.59081e-06
-1.17019e-05
4.35554e-08
-1.26104e-05
-7.36655e-07
-1.33419e-05
-8.97665e-07
-1.41327e-05
1.74033e-07
-1.2784e-05
-1.96733e-06
-1.31671e-05
3.57485e-08
-1.31401e-05
-5.23385e-07
-1.24253e-05
-1.02032e-06
-1.19261e-05
-7.08413e-07
-4.48038e-07
-0.000176285
-0.000251405
-7.7244e-05
0.000166985
-0.000536679
0.000425548
0.000311538
-0.000236187
0.000415553
0.000320171
-0.000100864
0.000372816
0.000285513
-0.000111962
0.000313101
0.000261881
-3.05827e-05
0.000140688
0.000215196
-6.9799e-06
0.000187056
0.00018559
-4.28068e-05
0.000121628
0.000173845
-2.06903e-05
0.000106329
0.000167545
-3.25775e-05
6.51198e-05
0.000150681
-2.31988e-05
7.60657e-05
0.000140357
-1.73539e-05
7.34542e-05
0.000158829
-1.40967e-05
1.88854e-05
0.000176083
-7.3022e-06
-1.28852e-05
0.000144905
1.85007e-05
1.8472e-05
7.61926e-05
4.01865e-05
4.96973e-05
2.80143e-05
2.76346e-05
4.84121e-05
7.58008e-06
1.11921e-05
2.37265e-05
-1.21415e-06
4.11442e-06
9.11431e-06
-5.28728e-06
1.14009e-06
7.54859e-06
-6.63801e-06
-6.54764e-07
2.65485e-06
-6.94322e-06
-1.06868e-06
3.69841e-06
-6.4462e-06
-1.98861e-06
2.29778e-06
-5.44026e-06
-1.89814e-06
1.35357e-06
-4.2132e-06
-2.25616e-06
1.92041e-06
-2.7026e-06
-2.44362e-06
4.99078e-07
-1.0339e-06
-2.47247e-06
1.87586e-06
6.31733e-07
-2.5179e-06
8.69071e-07
2.46556e-06
-2.53576e-06
8.70821e-07
4.35702e-06
-2.56692e-06
5.77819e-07
6.12558e-06
-2.47553e-06
8.67297e-07
7.82822e-06
-2.25994e-06
1.09001e-06
9.43653e-06
-2.11497e-06
7.30353e-07
1.08318e-05
-1.87762e-06
6.26141e-07
1.23677e-05
-1.61212e-06
5.19978e-07
1.40417e-05
-1.29606e-06
-4.16695e-07
1.54986e-05
-1.22338e-06
-1.19888e-06
-1.38613e-06
-1.54862e-06
0.00032954
-0.000261249
-0.000564056
-5.95123e-06
-7.67438e-05
-0.000939454
-0.000155163
-6.51504e-05
-0.000458739
-0.000219321
5.63861e-05
-0.000358945
-0.000152504
-8.78796e-05
-0.000146907
-0.000127756
1.07643e-05
-0.000234256
-0.000121084
2.54518e-06
-5.20399e-05
-8.47012e-05
-4.63456e-05
-7.29772e-05
-6.20945e-05
-1.76177e-05
-3.80608e-05
-5.12727e-05
-3.27822e-05
-4.23291e-05
-3.15433e-05
-2.29391e-05
-4.78952e-05
-2.12329e-05
-1.04257e-05
-4.90496e-05
-1.42154e-05
-1.88502e-06
-5.11129e-05
-1.3212e-05
8.69632e-06
-4.67056e-05
-1.69453e-05
2.10679e-05
-1.58315e-05
-1.42813e-05
2.82924e-05
5.05112e-06
-1.22148e-05
1.77398e-05
1.87992e-05
-1.39143e-05
9.23859e-06
7.312e-06
-1.60259e-05
3.40623e-06
4.77012e-06
-1.76284e-05
1.63379e-06
4.66444e-06
-1.76326e-05
-1.44002e-06
8.05789e-07
-1.76767e-05
-1.62564e-06
2.15511e-06
-1.67858e-05
-3.17866e-06
4.70073e-07
-1.58914e-05
-2.93509e-06
2.33739e-07
-1.45611e-05
-3.77918e-06
4.7314e-07
-1.30447e-05
-3.97658e-06
6.70976e-07
-1.14394e-05
-4.05862e-06
-3.47022e-08
-9.74209e-06
-4.10638e-06
1.22469e-07
-8.07283e-06
-4.03504e-06
-3.79132e-07
-6.34532e-06
-3.93795e-06
-2.45614e-07
-4.6668e-06
-3.85061e-06
-9.90967e-07
-2.92049e-06
-3.53211e-06
-9.90036e-07
-1.23994e-06
-3.32911e-06
-1.13468e-06
4.39397e-07
-2.99148e-06
-1.41367e-06
2.09264e-06
-2.6835e-06
-1.55108e-06
3.74008e-06
-2.46176e-06
-1.44221e-06
5.29252e-06
-2.30576e-06
-1.1704e-06
-1.08916e-06
-0.000261218
0.000139607
-0.000199578
-0.000299936
-0.000104703
0.000259028
-0.000142969
-0.000147794
-7.60421e-05
-5.20063e-05
-8.15501e-05
-2.01046e-05
-3.46205e-05
-7.34915e-05
2.19329e-05
-9.02036e-05
-1.18159e-05
0.000103893
-5.67415e-05
-3.47342e-05
-0.000108428
-5.60409e-05
-2.58382e-05
5.34387e-05
-4.60915e-05
-2.69785e-05
-5.23134e-05
-4.25936e-05
-1.74609e-05
3.5172e-06
-4.04863e-05
-1.56995e-05
-9.88358e-06
-3.81053e-05
-6.40597e-06
-6.77728e-06
-3.66893e-05
-1.22743e-06
-4.41117e-06
-3.31327e-05
5.65441e-06
4.13354e-06
-3.05197e-05
1.43646e-05
2.84853e-06
-2.40239e-05
1.82245e-05
5.00495e-06
-2.15815e-05
1.27075e-05
8.53924e-06
-2.15273e-05
7.50461e-06
8.53069e-07
-2.15478e-05
3.31515e-06
4.41161e-06
-2.25272e-05
1.73465e-06
-1.12041e-06
-2.20729e-05
-7.43739e-07
1.13769e-07
-2.20993e-05
-1.99991e-06
-7.58848e-07
-2.12861e-05
-2.91449e-06
-6.75061e-07
-2.04953e-05
-3.51948e-06
-1.77881e-06
-1.92444e-05
-4.267e-06
-5.50258e-07
-1.79617e-05
-4.78085e-06
-9.1093e-07
-1.66808e-05
-4.70503e-06
-1.61486e-06
-1.5204e-05
-4.82011e-06
-7.48097e-07
-1.39865e-05
-4.84243e-06
-1.82103e-06
-1.24541e-05
-4.50928e-06
-9.66192e-07
-1.11348e-05
-4.74516e-06
-1.95501e-06
-9.64357e-06
-4.12841e-06
-1.09002e-06
-8.38366e-06
-3.99266e-06
-1.59868e-06
-7.07308e-06
-3.71024e-06
-1.7942e-06
-5.83558e-06
-3.37146e-06
-1.28579e-06
-4.62091e-06
-3.223e-06
-1.14371e-06
-3.05974e-06
-1.07484e-06
3.89653e-05
0.000162003
-0.000105685
0.000101608
-0.000100015
0.000112803
1.08775e-05
-7.11642e-05
9.15164e-05
-3.70669e-05
-6.87518e-05
-4.72236e-05
-6.92886e-05
-3.99667e-05
-9.19151e-05
-5.30323e-05
-2.59088e-06
3.99647e-05
-5.79788e-05
-1.88278e-05
-1.14887e-05
-5.24512e-05
-1.20948e-05
-1.25836e-05
-6.03828e-05
-1.71914e-05
-2.04388e-05
-5.74288e-05
-7.78214e-06
-2.48011e-05
-5.39213e-05
-9.31039e-06
-1.45924e-05
-4.97059e-05
-2.46325e-06
-2.02075e-05
-4.66596e-05
3.53384e-06
-8.76392e-06
-4.22138e-05
6.54293e-06
-6.56589e-06
-3.69564e-05
9.20591e-06
-1.20272e-05
-2.89987e-05
1.14683e-05
5.15153e-06
-2.58589e-05
9.80955e-06
-1.99554e-06
-2.48217e-05
6.09657e-06
-7.84081e-07
-2.40254e-05
4.03427e-06
1.04396e-06
-2.45079e-05
1.86115e-06
-3.35941e-06
-2.39223e-05
4.67714e-07
-1.57258e-06
-2.35208e-05
-1.67326e-06
-9.88258e-07
-2.30991e-05
-2.26052e-06
-2.52904e-06
-2.21903e-05
-3.32305e-06
-1.95269e-06
-2.11084e-05
-4.39192e-06
-1.74656e-06
-2.01112e-05
-4.77299e-06
-9.94956e-07
-1.91022e-05
-4.88944e-06
-2.41984e-06
-1.8154e-05
-5.04717e-06
-1.9722e-06
-1.69781e-05
-4.93022e-06
-1.10858e-06
-1.58755e-05
-4.7503e-06
-2.62453e-06
-1.47804e-05
-4.9319e-06
-1.16586e-06
-1.37073e-05
-4.2326e-06
-1.77705e-06
-1.28681e-05
-4.08107e-06
-2.06219e-06
-1.18297e-05
-3.99213e-06
-2.07816e-06
-1.09599e-05
-3.52059e-06
-1.34717e-06
-1.00979e-05
-3.4321e-06
-1.78147e-06
-3.30523e-06
-1.73629e-06
-5.87036e-05
0.000234811
-7.0427e-05
-4.99711e-05
-2.574e-05
-9.01196e-05
-6.84183e-05
2.10052e-06
-3.39797e-05
-7.47139e-05
-2.38073e-05
-8.86077e-06
-5.53748e-05
-4.03402e-05
-4.91148e-05
-3.92673e-05
-1.52539e-05
-7.26781e-06
-3.59149e-05
-2.39001e-05
-3.04645e-05
-3.97081e-05
-9.57589e-07
-1.5304e-05
-3.86098e-05
-1.46339e-05
-1.99334e-05
-4.11929e-05
1.66042e-06
-1.14287e-05
-4.41566e-05
-3.54455e-06
-2.49527e-05
-4.02496e-05
3.46498e-07
-2.95629e-06
-3.90021e-05
5.18901e-06
-1.36967e-05
-3.6751e-05
7.62225e-06
-3.21118e-06
-3.34163e-05
8.18562e-06
-7.11378e-06
-3.04415e-05
1.00984e-05
-7.14574e-07
-2.77322e-05
8.34308e-06
-4.34727e-06
-2.6948e-05
6.40264e-06
-3.11507e-06
-2.58226e-05
4.19781e-06
-1.71401e-06
-2.50822e-05
2.84862e-06
-2.69828e-06
-2.49601e-05
1.10762e-06
-3.65276e-06
-2.41043e-05
-6.89636e-07
-1.34551e-06
-2.34118e-05
-1.89519e-06
-3.16293e-06
-2.24509e-05
-2.96879e-06
-2.4755e-06
-2.09831e-05
-4.46309e-06
-2.2378e-06
-2.00499e-05
-4.77053e-06
-2.05717e-06
-1.90224e-05
-4.59437e-06
-2.34089e-06
-1.79432e-05
-5.2073e-06
-2.54404e-06
-1.68752e-05
-4.54953e-06
-8.07307e-07
-1.61196e-05
-4.77996e-06
-3.62129e-06
-1.50593e-05
-4.49304e-06
-3.72155e-07
-1.44597e-05
-4.08247e-06
-2.9902e-06
-1.35519e-05
-3.88483e-06
-1.69313e-06
-1.28519e-05
-3.8088e-06
-1.72962e-06
-1.23717e-05
-3.09302e-06
-1.25352e-06
-1.19161e-05
-3.13915e-06
-1.76571e-06
-1.16924e-05
-2.78618e-06
-1.19184e-06
-2.67602e-06
-8.83133e-07
-4.11108e-05
0.000289716
-6.14968e-05
-3.03469e-05
-3.22926e-05
-4.24262e-05
-9.29629e-06
4.08331e-05
-9.19374e-07
-2.32893e-05
-1.24257e-05
2.11621e-05
-4.83374e-05
-1.72034e-05
-3.16646e-05
-4.31946e-05
-1.56114e-05
-3.10292e-06
-4.11163e-05
-2.66425e-05
-4.19197e-05
-3.92306e-05
1.95525e-05
-6.42599e-06
-3.69192e-05
-1.39058e-05
-2.19002e-05
-3.87633e-05
1.36854e-05
-1.23079e-05
-4.12893e-05
5.84754e-06
1.23405e-05
-3.93107e-05
9.51954e-06
-8.62672e-06
-3.82405e-05
6.95396e-06
-5.55495e-06
-3.47968e-05
7.56805e-06
-3.25848e-06
-3.24179e-05
7.72312e-06
-6.35529e-06
-3.01382e-05
1.02481e-05
8.86499e-07
-2.85188e-05
7.50967e-06
-7.15498e-06
-2.81777e-05
8.27352e-06
-7.7681e-07
-2.73285e-05
4.23619e-06
-4.59297e-06
-2.64625e-05
3.92148e-06
-1.45487e-06
-2.61342e-05
1.77418e-06
-3.55969e-06
-2.5517e-05
-9.60527e-08
-1.88609e-06
-2.43893e-05
-1.76802e-06
-2.86678e-06
-2.32725e-05
-3.14931e-06
-3.08962e-06
-2.18228e-05
-4.6256e-06
-2.88322e-06
-2.06048e-05
-4.88247e-06
-1.63874e-06
-1.93236e-05
-4.58125e-06
-2.76188e-06
-1.82681e-05
-5.14349e-06
-2.3956e-06
-1.73311e-05
-4.34641e-06
-1.99697e-06
-1.65181e-05
-4.45925e-06
-3.12475e-06
-1.56509e-05
-4.21526e-06
-1.74828e-06
-1.49176e-05
-3.73715e-06
-2.51871e-06
-1.41114e-05
-3.54227e-06
-2.10668e-06
-1.34259e-05
-3.46068e-06
-1.94875e-06
-1.26965e-05
-2.84076e-06
-1.88517e-06
-1.20965e-05
-2.86989e-06
-1.81447e-06
-1.16226e-05
-2.3171e-06
-1.28755e-06
-1.51827e-06
-4.34156e-05
0.000345402
-5.02305e-05
-4.98714e-05
-4.22407e-05
-8.79982e-05
-2.50613e-05
1.92188e-05
5.49269e-05
-2.21591e-05
-1.02936e-05
-1.06492e-06
-2.79423e-05
-1.08777e-05
2.32886e-06
-3.14726e-05
-1.0219e-05
-4.30778e-05
-3.40454e-05
-5.71138e-06
-9.54061e-06
-3.32437e-05
1.04756e-05
-1.29372e-05
-3.56772e-05
-1.12438e-06
-1.53929e-05
-3.58966e-05
1.1963e-05
-8.02872e-06
-3.64905e-05
7.53617e-06
-1.68338e-05
-3.942e-05
1.23987e-05
-1.86809e-05
-3.93445e-05
1.00261e-05
-1.80865e-05
-3.74043e-05
7.11516e-06
-1.67899e-05
-3.43513e-05
7.29255e-06
-1.33705e-06
-3.24984e-05
1.05659e-05
-6.53685e-06
-2.98163e-05
6.96772e-06
-4.82302e-06
-2.91297e-05
9.14135e-06
-2.09651e-06
-2.87111e-05
5.29861e-06
-4.27271e-06
-2.77917e-05
4.07217e-06
-2.34712e-06
-2.72419e-05
2.44304e-06
-3.27666e-06
-2.64135e-05
4.66295e-07
-6.2057e-07
-2.58619e-05
-1.73789e-06
-3.65893e-06
-2.39731e-05
-3.61525e-06
-1.40657e-06
-2.24436e-05
-5.51787e-06
-3.89569e-06
-2.05654e-05
-5.32619e-06
-1.04707e-06
-1.92889e-05
-4.99135e-06
-3.08985e-06
-1.80155e-05
-5.01837e-06
-2.14342e-06
-1.73587e-05
-4.31206e-06
-2.37376e-06
-1.63758e-05
-4.01547e-06
-2.55408e-06
-1.58189e-05
-3.98841e-06
-2.15426e-06
-1.50853e-05
-3.23289e-06
-2.014e-06
-1.45308e-05
-3.29656e-06
-2.68492e-06
-1.39069e-05
-2.98965e-06
-1.5871e-06
-1.32206e-05
-2.68283e-06
-2.12848e-06
-1.26008e-05
-2.5686e-06
-1.63439e-06
-2.16181e-06
-1.50138e-06
-3.58316e-05
0.000376679
-5.49641e-05
-2.7271e-05
-3.78366e-05
-7.06659e-05
-2.06093e-05
2.92975e-05
-1.52475e-05
-3.26424e-05
6.68221e-06
-5.87522e-05
-3.60268e-05
-1.08811e-05
6.15229e-06
-2.58636e-05
-1.68821e-05
-7.0055e-06
-3.21895e-05
4.9048e-06
-3.37755e-05
-3.17812e-05
-2.47801e-07
-2.77454e-06
-3.08535e-05
6.39223e-06
-3.01184e-05
-3.0638e-05
9.65348e-06
-1.21339e-05
-2.67415e-05
7.37483e-06
-1.40716e-05
-2.47881e-05
1.04301e-05
-8.70815e-06
-2.58685e-05
1.2968e-05
-4.05132e-06
-2.97136e-05
1.25657e-05
1.80937e-05
-2.8941e-05
8.4329e-06
5.75099e-07
-2.86553e-05
1.21468e-05
-2.42878e-06
-2.99446e-05
9.91903e-06
-1.85867e-06
-2.92365e-05
9.17047e-06
-2.48158e-06
-3.03176e-05
7.81075e-06
-3.56209e-06
-3.01449e-05
4.71055e-06
-1.5379e-06
-2.96202e-05
2.85966e-06
-2.13646e-06
-2.80741e-05
-3.7548e-07
-9.7599e-07
-2.65906e-05
-2.59916e-06
-8.95382e-07
-2.47251e-05
-4.7797e-06
-9.76218e-07
-2.25023e-05
-7.06437e-06
-3.33558e-06
-2.05666e-05
-5.94854e-06
-2.25814e-06
-1.88846e-05
-5.40909e-06
-1.61261e-06
-1.78781e-05
-5.01287e-06
-3.36795e-06
-1.68471e-05
-4.05823e-06
-1.40975e-06
-1.62553e-05
-3.4473e-06
-3.41281e-06
-1.54967e-05
-3.53163e-06
-1.8216e-06
-1.49717e-05
-2.5833e-06
-2.37911e-06
-1.44868e-05
-2.69888e-06
-2.5481e-06
-1.3993e-05
-2.40738e-06
-1.82263e-06
-1.3485e-05
-2.18061e-06
-2.24844e-06
-1.29938e-05
-2.07456e-06
-1.85909e-06
-1.79178e-06
-1.72372e-06
-3.91334e-05
0.000396918
-6.69612e-05
-4.0398e-05
2.12999e-06
-8.52086e-05
-2.28709e-05
2.17242e-05
-1.01908e-06
-3.5487e-05
2.22947e-05
8.95608e-06
-4.84273e-05
1.05022e-05
2.04258e-05
-4.51115e-05
4.96932e-06
-3.60677e-05
-4.94262e-05
1.28539e-05
-4.62469e-06
-4.95454e-05
1.14642e-05
-1.24203e-05
-4.72421e-05
1.21183e-05
-9.86551e-06
-4.38493e-05
1.14759e-05
-5.3707e-06
-3.92082e-05
1.23997e-05
-1.83507e-06
-3.80947e-05
1.25077e-05
-9.28291e-07
-3.67635e-05
1.5735e-05
-1.86274e-06
-3.87014e-05
1.5102e-05
-4.68171e-06
-3.63359e-05
8.16765e-06
-1.17049e-05
-3.33269e-05
1.07956e-05
-1.83598e-06
-3.41632e-05
1.09514e-05
-2.13402e-06
-3.13107e-05
8.85709e-06
-1.78267e-06
-3.08849e-05
7.67933e-06
-2.35506e-06
-3.13146e-05
5.85537e-06
4.78042e-08
-3.06951e-05
3.46172e-06
-3.03329e-06
-2.92929e-05
-1.07191e-06
7.87148e-07
-2.73572e-05
-3.66461e-06
-1.75999e-06
-2.65693e-05
-5.77499e-06
7.43097e-07
-2.40673e-05
-8.78444e-06
-1.08392e-06
-2.07357e-05
-8.42492e-06
-5.67446e-06
-1.82662e-05
-6.18709e-06
1.4103e-07
-1.73749e-05
-4.93614e-06
-3.4135e-06
-1.64341e-05
-3.78804e-06
-1.51607e-06
-1.60197e-05
-2.77344e-06
-3.46132e-06
-1.52716e-05
-3.02638e-06
-1.93745e-06
-1.48236e-05
-1.86521e-06
-2.22959e-06
-1.44068e-05
-2.06923e-06
-2.82963e-06
-1.39593e-05
-1.77488e-06
-1.61263e-06
-1.3487e-05
-1.63787e-06
-2.43435e-06
-1.30604e-05
-1.52245e-06
-1.90984e-06
-1.33424e-06
-1.73148e-06
-3.34541e-05
0.000384991
-9.0884e-05
-2.55028e-06
-8.8402e-06
-6.19478e-05
1.78244e-05
2.6103e-06
-7.7111e-06
2.18465e-05
3.54635e-05
-1.63713e-05
4.26625e-06
3.24854e-05
-1.23529e-05
-5.65465e-06
5.07834e-06