/*--------------------------------*- C++ -*----------------------------------*\
| =========                 |                                                 |
| \\      /  F ield         | OpenFOAM: The Open Source CFD Toolbox           |
|  \\    /   O peration     | Version:  2.3.1                                 |
|   \\  /    A nd           | Web:      www.OpenFOAM.org                      |
|    \\/     M anipulation  |                                                 |
\*---------------------------------------------------------------------------*/
FoamFile
{
    version     2.0;
    format      ascii;
    class       surfaceScalarField;
    location    "15";
    object      phi_0;
}
// * * * * * * * * * * * * * * * * * * * * * * * * * * * * * * * * * * * * * //

dimensions      [0 3 -1 0 0 0 0];

internalField   nonuniform List<scalar> 
108164
(
0.000591636
-0.000593082
-0.000657358
0.000577903
-0.000251881
0.000265615
0.0004651
-0.000219465
0.000332267
0.000390727
-0.000206501
0.000280873
0.000361387
-0.000136267
0.000165607
0.000302214
-2.59122e-05
8.5085e-05
0.000261919
-9.27426e-05
0.000133037
0.000215064
-2.09863e-06
4.89537e-05
0.000197506
-5.51582e-05
7.27168e-05
0.000193086
-2.15494e-05
2.59689e-05
0.000182275
-2.59942e-05
3.68054e-05
0.000150515
-1.41006e-05
4.58601e-05
0.000145468
-1.71399e-05
2.21871e-05
0.000164687
-1.5903e-05
-3.31607e-06
0.000154244
3.90627e-06
6.53682e-06
9.41586e-05
3.82628e-05
2.18225e-05
3.70687e-05
2.93381e-05
2.77518e-05
1.12965e-05
1.15861e-05
1.4186e-05
1.171e-06
5.82545e-06
4.30009e-06
-3.86898e-06
4.62569e-07
4.57741e-06
-4.78575e-06
2.87884e-07
6.28886e-07
-5.70311e-06
-1.39522e-06
2.31258e-06
-4.9284e-06
-1.57797e-06
8.03246e-07
-4.01891e-06
-1.36633e-06
4.56846e-07
-2.69801e-06
-2.21105e-06
8.90152e-07
-7.76516e-07
-1.48513e-06
-4.36366e-07
5.87109e-07
-2.43469e-06
1.07107e-06
2.36206e-06
-1.79171e-06
1.67584e-08
4.17171e-06
-1.97746e-06
1.67808e-07
6.38887e-06
-2.11873e-06
-9.8424e-08
8.16545e-06
-1.93765e-06
1.61069e-07
9.59254e-06
-1.96016e-06
5.33063e-07
1.12418e-05
-1.87279e-06
2.23572e-07
1.2701e-05
-1.60405e-06
1.44805e-07
1.36824e-05
-1.42596e-06
4.44572e-07
1.4905e-05
-1.18179e-06
-4.07755e-08
1.66586e-05
-7.85197e-07
-9.68486e-07
-7.1599e-07
-1.22754e-06
-0.00036539
0.000781279
-0.000635351
-0.000455554
0.000660196
-0.000821914
-0.000401538
0.000168057
-0.000441538
-0.000199787
-0.000139214
-0.000269038
-0.000171134
-0.000107112
-5.78078e-05
-0.00018634
0.000151905
-0.000162611
-0.000102157
-0.000139343
-3.75832e-05
-0.000125815
6.13982e-05
-3.98389e-05
-9.6361e-05
-7.21087e-05
-1.25031e-05
-8.00923e-05
-6.00516e-06
-3.18129e-05
-6.18867e-05
-1.6198e-05
-2.80018e-05
-4.16877e-05
-2.33913e-06
-3.19605e-05
-3.35562e-05
6.81381e-06
-3.20852e-05
-3.16983e-05
1.18913e-05
-2.96521e-05
-1.97221e-05
8.33648e-06
-1.64065e-05
-1.40584e-05
3.63774e-05
-3.77824e-06
-1.25094e-05
1.68656e-05
1.09235e-05
-1.28331e-05
8.32094e-06
3.58888e-06
-1.45536e-05
5.6498e-06
1.89613e-06
-1.81448e-05
5.2426e-07
3.52947e-06
-1.7053e-05
-8.06993e-07
3.09278e-09
-1.78844e-05
-2.10783e-06
1.54405e-06
-1.66919e-05
-2.93969e-06
1.69203e-07
-1.58264e-05
-2.31855e-06
8.67624e-08
-1.4293e-05
-4.02109e-06
2.76585e-07
-1.32501e-05
-3.18189e-06
6.53843e-07
-1.14277e-05
-4.24082e-06
-1.62548e-08
-9.59086e-06
-3.85957e-06
2.31039e-07
-8.16476e-06
-3.19339e-06
-2.10184e-07
-6.38528e-06
-4.00832e-06
1.10107e-07
-4.68852e-06
-2.94647e-06
-6.87928e-07
-2.86437e-06
-3.26668e-06
-5.17624e-07
-1.1948e-06
-2.87362e-06
-6.68737e-07
5.91859e-07
-2.54201e-06
-8.48708e-07
2.33154e-06
-2.19547e-06
-9.70161e-07
4.10899e-06
-1.99852e-06
-9.60722e-07
5.77685e-06
-1.75291e-06
-7.00145e-07
-5.21273e-07
-0.000347269
0.00089659
-1.97111e-05
-0.000232236
0.000337415
0.000207748
-3.31887e-05
-2.79201e-05
-3.06992e-06
-3.47946e-05
-6.77734e-05
-6.98345e-05
-0.00013482
-5.68135e-05
4.97274e-05
-7.4282e-05
6.16425e-05
2.97247e-05
-2.68727e-05
-7.58753e-05
-0.000110877
-4.75974e-05
7.88582e-06
7.4237e-05
-1.92599e-05
-4.97441e-05
-5.07021e-05
-4.48558e-05
-2.1875e-06
2.17783e-05
-4.26548e-05
-1.79602e-05
-4.38798e-07
-4.16772e-05
-2.94107e-06
-3.75579e-07
-3.48919e-05
2.44625e-06
-2.41778e-06
-3.44956e-05
6.8809e-06
4.6141e-06
-3.10344e-05
6.07917e-06
-1.2039e-06
-1.97677e-05
2.36214e-05
1.48932e-06
-2.08087e-05
1.2006e-05
5.90065e-06
-1.90603e-05
7.43747e-06
-8.64943e-07
-1.95788e-05
1.88749e-06
4.28076e-06
-2.12461e-05
4.20733e-06
-2.01571e-06
-2.03431e-05
-2.96157e-06
1.25153e-06
-2.03691e-05
-9.16217e-07
-1.16556e-06
-2.01642e-05
-3.54555e-06
4.00946e-07
-1.86109e-05
-2.29531e-06
-1.5765e-06
-1.79252e-05
-4.91518e-06
2.08359e-07
-1.67348e-05
-3.94094e-06
-4.31381e-07
-1.5285e-05
-4.70787e-06
-9.82764e-07
-1.37582e-05
-5.40314e-06
1.68448e-08
-1.29271e-05
-2.61115e-06
-1.4134e-06
-1.13263e-05
-5.60477e-06
-4.35449e-09
-1.00121e-05
-2.72887e-06
-1.53175e-06
-8.68762e-06
-4.3948e-06
-1.96397e-07
-7.51757e-06
-3.04245e-06
-1.00121e-06
-5.94588e-06
-2.91041e-06
-1.2033e-06
-4.81281e-06
-2.59129e-06
-7.37257e-07
-3.51378e-06
-2.60719e-06
-6.90356e-07
-2.17238e-06
-7.33657e-07
-0.000106182
0.000847517
-4.41644e-05
8.66287e-05
-2.91424e-05
0.000173746
-8.5585e-05
6.24768e-05
8.18168e-05
-0.000154191
8.08115e-05
-7.99791e-05
-7.09887e-05
-4.76048e-05
-9.24109e-05
-4.55143e-05
-2.65617e-05
6.27298e-05
-7.55746e-05
-4.61087e-05
2.93728e-07
-5.39498e-05
-2.03717e-05
6.63266e-06
-5.98174e-05
-2.54084e-05
-1.84681e-05
-5.42231e-05
4.32762e-06
-1.21095e-05
-5.26075e-05
-1.48592e-05
-4.71653e-06
-4.51362e-05
1.66398e-06
-1.20763e-05
-4.23908e-05
6.981e-07
-9.97329e-07
-4.02769e-05
5.86879e-06
-1.10174e-06
-3.40543e-05
1.16908e-05
-1.18342e-05
-2.79371e-05
1.11637e-05
6.34044e-06
-2.3305e-05
9.12663e-06
-1.75275e-06
-2.29076e-05
8.22898e-06
-1.18892e-06
-2.25817e-05
-9.94274e-07
2.55587e-06
-2.2338e-05
7.68254e-06
-3.71886e-06
-2.20463e-05
-3.45917e-06
2.05909e-07
-2.23122e-05
-3.90507e-07
-2.59851e-07
-2.11591e-05
-3.24408e-06
-1.45459e-06
-2.03794e-05
-2.22191e-06
-8.53113e-07
-1.90405e-05
-5.45995e-06
-7.94071e-07
-1.84811e-05
-4.51186e-06
1.15157e-08
-1.6661e-05
-4.93442e-06
-1.5936e-06
-1.53487e-05
-5.46065e-06
-1.25474e-06
-1.47979e-05
-3.14086e-06
-2.1096e-08
-1.27928e-05
-5.84822e-06
-1.7617e-06
-1.20438e-05
-3.21626e-06
-2.61569e-07
-1.09537e-05
-4.67921e-06
-8.05685e-07
-9.88606e-06
-2.79866e-06
-1.31146e-06
-8.35981e-06
-3.11305e-06
-1.3236e-06
-7.81931e-06
-2.50443e-06
-6.27365e-07
-6.59895e-06
-2.69933e-06
-1.12822e-06
-1.94879e-06
-1.2058e-06
-8.38296e-05
0.000818117
-5.80544e-05
8.25759e-06
-0.000108501
-1.27286e-05
-7.77647e-05
0.000127585
2.09139e-05
-5.97166e-05
3.36886e-05
2.90748e-05
-5.73047e-05
-2.16245e-05
-2.83921e-05
-3.08351e-05
-4.88453e-05
-4.18598e-06
-2.81151e-05
-1.66385e-05
-3.21903e-05
-4.62432e-05
5.69334e-06
-7.93692e-06
-4.41666e-05
-1.0981e-05
-1.65039e-05
-4.29646e-05
7.70309e-06
-4.57751e-06
-3.99158e-05
4.23196e-06
-2.214e-05
-4.09293e-05
-1.03829e-06
3.71583e-06
-3.63209e-05
6.84804e-06
-1.07584e-05
-3.63727e-05
5.82717e-06
9.34092e-08
-3.05747e-05
1.06759e-05
-4.78308e-06
-3.06534e-05
1.03626e-05
8.79828e-07
-2.64719e-05
8.04628e-06
-3.10116e-06
-2.48369e-05
8.63664e-06
-2.04264e-06
-2.59563e-05
5.6293e-07
-4.37862e-07
-2.31806e-05
5.86891e-06
-9.62082e-07
-2.38165e-05
7.98441e-08
-2.9031e-06
-2.40401e-05
-6.56934e-07
4.90022e-07
-2.23406e-05
-2.8413e-06
-2.10221e-06
-2.2219e-05
-1.17727e-06
-1.16632e-06
-1.98442e-05
-6.99249e-06
-8.42195e-07
-1.90932e-05
-4.14076e-06
-1.12215e-06
-1.82744e-05
-4.73515e-06
-1.01806e-06
-1.66956e-05
-5.40901e-06
-1.63045e-06
-1.55831e-05
-4.89852e-06
6.4516e-07
-1.40559e-05
-4.47766e-06
-2.89772e-06
-1.31492e-05
-5.2496e-06
1.12663e-06
-1.20854e-05
-3.50517e-06
-2.23778e-06
-1.06761e-05
-3.61619e-06
-5.91827e-07
-9.40658e-06
-3.53579e-06
-8.46756e-07
-9.3209e-06
-2.24499e-06
-3.4512e-07
-8.41082e-06
-2.59239e-06
-1.01702e-06
-8.43797e-06
-1.47118e-06
-4.50476e-07
-1.9589e-06
-2.97279e-08
-4.40734e-05
0.000803891
-6.34337e-05
3.15842e-05
-0.000148415
-3.57437e-05
1.41829e-05
8.51098e-05
5.98767e-05
2.4164e-05
4.77242e-06
1.89351e-05
-2.20188e-05
5.73912e-05
-3.28329e-05
-1.54141e-05
-5.70485e-05
1.59849e-06
2.99081e-09
1.04273e-05
-4.24829e-05
-1.70259e-05
6.74012e-06
1.59821e-05
-5.79877e-06
-3.35169e-06
-1.88564e-05
-6.95543e-06
1.10377e-05
-2.17796e-06
-3.02459e-05
8.29041e-06
1.9232e-05
-3.58717e-05
1.97431e-06
2.61325e-06
-3.45703e-05
8.24612e-06
-2.69947e-06
-3.26493e-05
3.7516e-06
1.54568e-07
-2.97237e-05
1.21756e-05
-4.4253e-06
-2.9491e-05
6.80096e-06
3.32897e-06
-2.61847e-05
1.11031e-05
-6.36315e-06
-2.87165e-05
9.74353e-06
1.42486e-06
-2.6169e-05
1.72667e-06
-3.71122e-06
-2.4784e-05
4.00633e-06
4.77599e-07
-2.55373e-05
3.3986e-06
-2.56547e-06
-2.55057e-05
-6.57043e-09
-6.81905e-07
-2.38343e-05
-2.90452e-06
-1.60823e-06
-2.22487e-05
-6.06693e-07
-2.15619e-06
-2.05715e-05
-7.06919e-06
-1.60046e-06
-2.03162e-05
-3.86106e-06
-5.34977e-07
-1.87041e-05
-4.88184e-06
-1.4654e-06
-1.72708e-05
-5.56264e-06
-1.27972e-06
-1.6968e-05
-4.34669e-06
-8.54586e-07
-1.52196e-05
-4.2323e-06
-1.99379e-06
-1.4578e-05
-5.28797e-06
-6.03249e-07
-1.38157e-05
-2.82693e-06
-1.4405e-06
-1.24226e-05
-4.05073e-06
-9.58543e-07
-1.16262e-05
-3.41671e-06
-9.15497e-07
-1.07241e-05
-2.24409e-06
-9.03039e-07
-9.90296e-06
-2.4674e-06
-9.46098e-07
-9.77368e-06
-1.25604e-06
-3.44417e-07
-7.19645e-07
-4.6979e-05
0.000834656
-5.168e-05
-1.21377e-05
-8.27691e-05
-0.000100487
-3.66691e-05
5.04734e-05
5.91677e-05
-4.45071e-05
8.06275e-06
4.54766e-06
-3.44927e-05
4.43216e-05
3.05522e-06
-5.88069e-05
8.69607e-06
-4.14304e-05
-6.43193e-05
7.18247e-06
8.75727e-06
-5.6514e-05
2.02001e-05
-2.12653e-05
-6.54136e-05
1.06295e-05
-5.0816e-06
-5.86808e-05
1.41967e-05
-9.89178e-06
-5.41426e-05
1.95297e-05
-1.57775e-05
-5.0741e-05
1.73402e-05
-1.87675e-05
-4.6579e-05
1.90132e-05
-1.49291e-05
-3.67161e-05
9.19388e-06
-1.53052e-05
-3.30276e-05
7.23934e-06
1.24784e-06
-3.22011e-05
1.03214e-05
-4.34702e-06
-2.72016e-05
8.7928e-06
-2.68917e-06
-2.84863e-05
1.15748e-05
-5.46628e-07
-2.81415e-05
4.1722e-06
-2.7903e-06
-2.65663e-05
3.71283e-06
-1.2817e-06
-2.44157e-05
3.31601e-06
-2.06799e-06
-2.6867e-05
1.6689e-06
7.75755e-07
-2.51444e-05
-1.54956e-06
-3.07754e-06
-2.24773e-05
-3.28994e-06
1.61974e-08
-2.19442e-05
-4.34066e-06
-3.26165e-06
-1.97729e-05
-6.41703e-06
3.84664e-07
-1.82785e-05
-4.15329e-06
-2.22299e-06
-1.71986e-05
-5.8965e-06
-7.4598e-07
-1.70622e-05
-2.79978e-06
-1.68336e-06
-1.5168e-05
-4.9981e-06
-1.12833e-06
-1.53044e-05
-3.77949e-06
-1.37213e-06
-1.44217e-05
-2.93442e-06
-7.75172e-07
-1.30911e-05
-3.49555e-06
-1.88583e-06
-1.30278e-05
-2.9867e-06
-4.93313e-07
-1.16179e-05
-2.37008e-06
-1.28385e-06
-1.09079e-05
-2.46313e-06
-7.14262e-07
-1.49121e-06
-6.75021e-07
-9.27832e-06
0.000874058
-4.95428e-05
1.09076e-05
-4.74812e-05
-5.54738e-05
9.09761e-06
5.05122e-05
1.77116e-06
1.08006e-05
6.01684e-05
-5.38086e-05
3.03807e-06
4.94421e-05
2.64194e-06
1.19284e-05
3.30731e-06
-3.50158e-06
1.12346e-05
3.72199e-05
-2.93437e-05
7.46117e-06
3.71493e-05
-1.31758e-05
1.19755e-05
2.77733e-05
-2.16581e-05
8.97049e-06
3.14595e-05
-1.42578e-05
5.23074e-06
3.36015e-05
-1.03321e-05
9.60985e-06
2.16893e-05
-8.72825e-06
5.13183e-06
2.56651e-05
-2.17381e-06
-2.00649e-05
1.46761e-05
1.97145e-05
-2.50336e-05
9.70092e-06
2.50707e-06
-2.67391e-05
1.2579e-05
-5.52026e-07
-2.96626e-05
1.19112e-05
-1.94942e-07
-2.60732e-05
9.72194e-06
-1.73654e-06
-3.03142e-05
1.05505e-05
-2.13736e-06
-2.95061e-05
3.63256e-06
-7.27741e-07
-2.83206e-05
3.32799e-06
-1.19747e-06
-2.66263e-05
2.51459e-07
-2.76861e-07
-2.66323e-05
-1.26877e-06
-2.74808e-07
-2.43288e-05
-5.32526e-06
-2.68246e-07
-2.10086e-05
-4.99783e-06
-2.66294e-06
-1.97134e-05
-6.76255e-06
-9.49741e-07
-1.82062e-05
-5.31213e-06
-3.48337e-07
-1.71583e-05
-4.58686e-06
-2.35756e-06
-1.62318e-05
-3.6007e-06
-1.25559e-07
-1.52584e-05
-3.71912e-06
-2.25233e-06
-1.48065e-05
-3.6224e-06
-6.09081e-07
-1.4537e-05
-2.00091e-06
-1.203e-06
-1.36496e-05
-2.91594e-06
-1.46699e-06
-1.34016e-05
-2.48763e-06
-7.47019e-07
-1.26299e-05
-1.90381e-06
-1.23807e-06
-1.19931e-05
-2.22547e-06
-8.74426e-07
-1.43492e-06
-8.49191e-07
-7.22576e-06
0.000915742
-5.80873e-05
-5.69067e-06
-4.7783e-06
-4.4238e-05
-7.5339e-06
4.30807e-05
9.27478e-06
-2.24161e-05
6.27644e-05
1.22862e-05
-5.05114e-05
4.83042e-05
2.92332e-05
-5.16254e-05
1.51209e-05
-1.06996e-05
-4.65612e-05
3.31864e-05
-1.0306e-06
-4.36588e-05
3.50837e-05
-8.36737e-07
-4.34591e-05
2.93696e-05
-1.796e-06
-3.87711e-05
2.69529e-05
-1.81432e-07
-4.13607e-05
2.83763e-05
7.81482e-06
-4.00267e-05
1.80781e-05
2.2772e-06
-4.13475e-05
2.47594e-05
2.22646e-06
-4.16807e-05
1.90717e-05
-4.06239e-06
-3.54393e-05
1.30341e-05
-9.57465e-06
-3.05374e-05
7.89026e-06
-2.13122e-07
-3.19056e-05
1.52176e-05
-1.93812e-06
-2.97701e-05
6.82462e-06
7.61756e-07
-2.79558e-05
1.07948e-05
-2.05859e-06
-3.02378e-05
5.15039e-06
7.64175e-07
-2.89532e-05
3.8591e-06
-1.81577e-06
-2.8633e-05
-1.55745e-06
1.48878e-06
-2.59193e-05
-3.09388e-06
-8.88623e-07
-2.66052e-05
-5.1691e-06
5.29757e-07
-2.4191e-05
-7.12608e-06
-2.85925e-07
-1.81881e-05
-7.93841e-06
-4.82705e-06
-1.76564e-05
-7.66832e-06
1.82449e-06
-1.6767e-05
-3.03168e-06
-2.44457e-06
-1.54075e-05
-4.65646e-06
-3.03738e-07
-1.50533e-05
-1.69895e-06
-2.37438e-06
-1.44042e-05
-3.585e-06
-6.86492e-07
-1.44087e-05
-9.34772e-07
-1.06169e-06
-1.33993e-05
-2.14067e-06
-1.78461e-06
-1.34782e-05
-1.87537e-06
-5.33425e-07
-1.28736e-05
-1.08956e-06
-1.41878e-06
-1.2474e-05
-1.69309e-06
-9.32036e-07
-1.10761e-06
-8.55975e-07
1.22359e-05
0.00095047
-7.78569e-05
3.97705e-05
9.70757e-06
-4.20205e-05
5.36785e-05
3.55839e-05
-6.41128e-06
4.55279e-05
6.98997e-05
1.01522e-06
3.87649e-05
6.30251e-05
-7.95784e-06
5.44654e-05
3.26517e-05
-3.32312e-05
4.88663e-05
4.3562e-05
-4.77657e-06
3.37842e-05
5.65821e-05
-6.41618e-06
1.89001e-05
5.12387e-05
-6.98506e-06
1.11792e-05
4.3886e-05
-9.21227e-06
1.17858e-05
3.78354e-05
-1.00657e-05
1.36378e-05
2.80888e-05
-1.18627e-05
1.14246e-05
3.07989e-05
-3.8263e-06
-1.06707e-06
2.78763e-05
3.68701e-06
-2.079e-05
1.55038e-05
1.72533e-05
-2.72534e-05
1.23152e-05
2.03842e-06
-2.81744e-05
1.32975e-05
2.84121e-06
-2.8798e-05
9.17744e-06
-1.72931e-06
-2.75732e-05
7.90369e-06
1.66637e-06
-2.84683e-05
5.00901e-06
1.03647e-06
-2.74048e-05
3.16867e-06
-3.73063e-07
-2.71612e-05
-3.65855e-06
1.8575e-06
-2.49898e-05
-7.07491e-06
1.80967e-06
-2.43601e-05
-8.11023e-06
2.31142e-06
-2.30748e-05
-9.64382e-06
1.2324e-06
-1.61693e-05
-1.15911e-05
-3.25279e-06
-1.54991e-05
-8.37593e-06
3.74407e-08
-1.63103e-05
-2.87494e-06
6.54461e-07
-1.47837e-05
-3.39919e-06
-2.78389e-06
-1.47299e-05
-1.06449e-06
-6.88247e-07
-1.41366e-05
-2.45304e-06
-1.72523e-06
-1.42833e-05
-3.42809e-07
-4.45345e-07
-1.31077e-05
-1.09363e-06
-2.22255e-06
-1.35113e-05
-1.21961e-06
-2.52171e-07
-1.27498e-05
-4.17546e-07
-1.43354e-06
-1.24371e-05
-8.56664e-07
-1.14915e-06
-8.16121e-07
-6.24988e-07
4.68724e-05
0.000842843
1.26755e-05
-2.97591e-05
0.000159869
-7.35298e-05
-6.32923e-05
4.80825e-05
2.10345e-05
-2.80988e-07
2.05474e-05
-1.3659e-05
-2.87947e-06
4.11706e-05
2.4453e-05
-2.03285e-05
2.64323e-05
2.36685e-05
-2.3904e-05
3.49844e-05
1.2153e-05
-2.09645e-05
4.44338e-05
9.20885e-06
-2.50581e-05
4.33168e-05
1.20155e-05
-2.6658e-05
3.67988e-05
8.68717e-06
-2.29313e-05
2.43778e-05
9.73102e-06
-2.20253e-05
1.84166e-05
8.76624e-06
-2.34618e-05
2.27935e-05
9.44189e-06
-2.6839e-05
1.90588e-05
1.21947e-05
-2.79308e-05
1.03347e-05
6.26097e-06
-2.35437e-05
9.02844e-06
-1.10041e-06
-1.78579e-05
6.9497e-06
6.61999e-07
-1.25983e-05
6.2539e-06
-2.33609e-06
-6.92942e-06
3.64254e-06
-1.40773e-06
-3.53558e-06
3.14591e-06
-1.53075e-06
-3.63755e-06
5.1116e-06
-1.84095e-06
-6.35737e-06
-1.49309e-07
-7.89427e-07
-1.07211e-05
-2.42788e-06
-2.83294e-07
-1.82204e-05
-5.83817e-07
-2.70916e-08
-2.04896e-05
-6.60469e-06
-7.6998e-07
-1.46748e-05
-1.53452e-05
-2.06074e-06
-1.49277e-05
-8.70539e-06
5.82402e-07
-1.56999e-05
-3.82306e-06
1.72034e-06
-1.35567e-05
-1.64246e-06
-3.89992e-06
-1.43485e-05
-1.62765e-06
1.35491e-06
-1.43115e-05
-6.17645e-07
-1.87232e-06
-1.37376e-05
-6.18207e-07
-2.98578e-07
-1.29654e-05
-3.474e-07
-1.51841e-06
-1.35615e-05
-4.96556e-07
-1.26949e-07
-1.26034e-05
-3.06136e-07
-1.06951e-06
-1.21944e-05
-2.08895e-07
-1.05675e-06
-5.26774e-07
-3.55117e-07
0.000236089
0.000489125
0.000253166
0.000142791
0.000171893
0.000129356
0.000105489
8.69507e-05
8.5697e-05
6.09631e-05
5.57757e-05
5.63536e-05
3.87327e-05
5.20274e-05
3.56028e-05
4.75636e-05
3.81782e-05
4.07414e-05
4.15142e-05
3.34628e-05
3.5397e-05
3.04949e-05
2.87806e-05
2.50329e-05
3.01086e-05
2.14655e-05
3.08908e-05
1.82766e-05
2.75565e-05
1.3669e-05
2.53886e-05
1.11964e-05
2.51409e-05
7.19741e-06
2.54169e-05
5.97783e-06
2.88346e-05
2.2492e-07
2.81541e-05
3.82635e-06
3.04095e-05
2.85624e-06
3.5087e-05
-4.82685e-06
3.0761e-05
1.89814e-06
3.26023e-05
-2.4251e-06
2.77079e-05
-1.71028e-06
4.41502e-06
7.94766e-06
-7.85197e-06
3.5616e-06
-1.17133e-05
3.82575e-08
-1.26146e-05
-7.41124e-07
-1.33431e-05
-8.99223e-07
-1.41366e-05
1.75862e-07
-1.27874e-05
-1.9674e-06
-1.31671e-05
3.23192e-08
-1.31417e-05
-5.21939e-07
-1.24277e-05
-1.02014e-06
-1.19269e-05
-7.09645e-07
-4.4872e-07
-0.000169768
-0.000269988
-6.80853e-05
0.000168574
-0.000532238
0.000459511
0.000312026
-0.000231115
0.000419931
0.00032088
-9.81439e-05
0.000370162
0.000284268
-0.000109342
0.000311562
0.000258958
-2.83511e-05
0.000138746
0.000212877
-7.32415e-06
0.000186442
0.000184376
-4.36244e-05
0.000121079
0.000173776
-2.14068e-05
0.000104724
0.000167457
-3.26671e-05
6.49557e-05
0.0001502
-2.31866e-05
7.72483e-05
0.000140854
-1.73664e-05
7.25735e-05
0.000160144
-1.41009e-05
1.69973e-05
0.000176443
-6.89803e-06
-1.2717e-05
0.000143272
1.94636e-05
2.02441e-05
7.43084e-05
4.02621e-05
5.05244e-05
2.70974e-05
2.7063e-05
4.78998e-05
7.1807e-06
1.08785e-05
2.32243e-05
-1.41888e-06
3.98726e-06
8.91241e-06
-5.39268e-06
1.08431e-06
7.4669e-06
-6.69913e-06
-6.81529e-07
2.61687e-06
-6.97921e-06
-1.0837e-06
3.67636e-06
-6.46746e-06
-1.99838e-06
2.28987e-06
-5.45237e-06
-1.90481e-06
1.34657e-06
-4.21905e-06
-2.26032e-06
1.91715e-06
-2.70421e-06
-2.44691e-06
4.95708e-07
-1.03217e-06
-2.47513e-06
1.87416e-06
6.36063e-07
-2.52015e-06
8.68678e-07
2.47216e-06
-2.53772e-06
8.69434e-07
4.36519e-06
-2.56848e-06
5.77022e-07
6.13502e-06
-2.47693e-06
8.68169e-07
7.83857e-06
-2.26098e-06
1.09049e-06
9.44729e-06
-2.1157e-06
7.3056e-07
1.0843e-05
-1.87814e-06
6.2721e-07
1.23801e-05
-1.61216e-06
5.19709e-07
1.40548e-05
-1.29604e-06
-4.1953e-07
1.55126e-05
-1.22419e-06
-1.20204e-06
-1.38742e-06
-1.55278e-06
0.000317445
-0.000276421
-0.000583849
-1.45906e-05
-7.64732e-05
-0.000945644
-0.000156706
-6.11207e-05
-0.000469417
-0.000216345
5.6535e-05
-0.000364077
-0.000153176
-8.66255e-05
-0.000143694
-0.000126429
1.2178e-05
-0.000229887
-0.000120067
1.74431e-06
-5.30134e-05
-8.47516e-05
-4.68842e-05
-7.18948e-05
-6.21036e-05
-1.82072e-05
-3.83507e-05
-5.12145e-05
-3.27487e-05
-4.26203e-05
-3.14171e-05
-2.28629e-05
-4.81229e-05
-2.11068e-05
-1.02862e-05
-4.93512e-05
-1.43638e-05
-1.6614e-06
-5.12676e-05
-1.35494e-05
9.02516e-06
-4.63897e-05
-1.7071e-05
2.13711e-05
-1.47923e-05
-1.42373e-05
2.81585e-05
5.49156e-06
-1.22855e-05
1.74119e-05
1.86229e-05
-1.40399e-05
9.04364e-06
7.17806e-06
-1.61231e-05
3.29093e-06
4.67565e-06
-1.7698e-05
1.57203e-06
4.6167e-06
-1.768e-05
-1.47552e-06
7.79029e-07
-1.77092e-05
-1.64815e-06
2.13774e-06
-1.68082e-05
-3.19418e-06
4.6402e-07
-1.59066e-05
-2.94609e-06
2.26413e-07
-1.45718e-05
-3.78573e-06
4.67205e-07
-1.30514e-05
-3.98257e-06
6.69128e-07
-1.14432e-05
-4.06324e-06
-3.64358e-08
-9.74363e-06
-4.11001e-06
1.21373e-07
-8.0724e-06
-4.0383e-06
-3.80842e-07
-6.34357e-06
-3.94031e-06
-2.46889e-07
-4.66371e-06
-3.85267e-06
-9.92041e-07
-2.91643e-06
-3.53369e-06
-9.92204e-07
-1.23487e-06
-3.33028e-06
-1.13571e-06
4.45347e-07
-2.9924e-06
-1.41467e-06
2.09937e-06
-2.68392e-06
-1.55243e-06
3.74748e-06
-2.46208e-06
-1.44279e-06
5.30037e-06
-2.30625e-06
-1.17098e-06
-1.09088e-06
-0.000256121
0.000132768
-0.000201818
-0.00029943
-0.000100311
0.000274894
-0.000146327
-0.000142202
-7.50911e-05
-5.2711e-05
-8.20595e-05
-2.48564e-05
-3.50269e-05
-7.29993e-05
1.84172e-05
-8.9002e-05
-1.06153e-05
0.000106493
-5.54729e-05
-3.53191e-05
-0.000107343
-5.53405e-05
-2.59503e-05
5.31708e-05
-4.57416e-05
-2.70602e-05
-5.1448e-05
-4.25718e-05
-1.74053e-05
3.26505e-06
-4.04606e-05
-1.56272e-05
-9.78558e-06
-3.80926e-05
-6.33508e-06
-6.69466e-06
-3.66547e-05
-1.14458e-06
-4.37251e-06
-3.30958e-05
5.8907e-06
4.1896e-06
-3.04075e-05
1.45327e-05
2.94616e-06
-2.39212e-05
1.81096e-05
5.05193e-06
-2.15915e-05
1.25349e-05
8.44794e-06
-2.15816e-05
7.38196e-06
7.8687e-07
-2.16008e-05
3.22675e-06
4.36407e-06
-2.25728e-05
1.67657e-06
-1.14822e-06
-2.21083e-05
-7.78164e-07
8.9644e-08
-2.21252e-05
-2.02611e-06
-7.70676e-07
-2.13056e-05
-2.93309e-06
-6.79722e-07
-2.05102e-05
-3.53185e-06
-1.78615e-06
-1.92559e-05
-4.27537e-06
-5.56285e-07
-1.79699e-05
-4.78865e-06
-9.11401e-07
-1.6687e-05
-4.71112e-06
-1.61773e-06
-1.5208e-05
-4.82414e-06
-7.47999e-07
-1.39893e-05
-4.84678e-06
-1.82363e-06
-1.2456e-05
-4.51173e-06
-9.66309e-07
-1.11356e-05
-4.7478e-06
-1.95699e-06
-9.64355e-06
-4.13064e-06
-1.09149e-06
-8.38269e-06
-3.99397e-06
-1.59838e-06
-7.07166e-06
-3.71138e-06
-1.79535e-06
-5.83359e-06
-3.3722e-06
-1.28704e-06
-4.61854e-06
-3.22346e-06
-1.14402e-06
-3.06012e-06
-1.07544e-06
3.86332e-05
0.000160082
-0.000112772
9.69184e-05
-9.71411e-05
0.000112292
8.62531e-06
-6.78196e-05
9.57276e-05
-3.69031e-05
-6.90829e-05
-4.74274e-05
-6.90052e-05
-4.09596e-05
-9.23485e-05
-5.31441e-05
-1.98937e-06
3.82427e-05
-5.81375e-05
-1.88038e-05
-1.12282e-05
-5.25382e-05
-1.20633e-05
-1.28537e-05
-6.04585e-05
-1.71162e-05
-2.04917e-05
-5.74448e-05
-7.71208e-06
-2.48165e-05
-5.39015e-05
-9.25429e-06
-1.46327e-05
-4.96872e-05
-2.39767e-06
-2.02281e-05
-4.66547e-05
3.58834e-06
-8.76279e-06
-4.21193e-05
6.62891e-06
-6.37534e-06
-3.67808e-05
9.25141e-06
-1.18914e-05
-2.89079e-05
1.14149e-05
5.16222e-06
-2.58393e-05
9.72311e-06
-2.00951e-06
-2.48385e-05
6.01976e-06
-8.27537e-07
-2.40517e-05
3.97175e-06
1.02404e-06
-2.45338e-05
1.81173e-06
-3.37184e-06
-2.39465e-05
4.35612e-07
-1.59519e-06
-2.35395e-05
-1.69861e-06
-9.94356e-07
-2.31146e-05
-2.28042e-06
-2.53218e-06
-2.22032e-05
-3.33578e-06
-1.96053e-06
-2.11186e-05
-4.40143e-06
-1.7526e-06
-2.01187e-05
-4.78195e-06
-9.95094e-07
-1.91079e-05
-4.89598e-06
-2.41961e-06
-1.81588e-05
-5.05167e-06
-1.97629e-06
-1.69823e-05
-4.93481e-06
-1.10952e-06
-1.58786e-05
-4.75257e-06
-2.62453e-06
-1.47831e-05
-4.93512e-06
-1.16977e-06
-1.37088e-05
-4.2353e-06
-1.7754e-06
-1.28692e-05
-4.08227e-06
-2.06274e-06
-1.18304e-05
-3.99339e-06
-2.08033e-06
-1.09599e-05
-3.52188e-06
-1.34819e-06
-1.00976e-05
-3.43264e-06
-1.78142e-06
-3.30567e-06
-1.73776e-06
-5.77938e-05
0.000238105
-7.14759e-05
-4.9916e-05
-2.67809e-05
-9.09665e-05
-6.7633e-05
2.76965e-06
-3.19584e-05
-7.457e-05
-2.39949e-05
-9.07622e-06
-5.54715e-05
-4.03974e-05
-4.80528e-05
-3.90915e-05
-1.5331e-05
-7.22437e-06
-3.57737e-05
-2.39048e-05
-3.04071e-05
-3.96324e-05
-9.93034e-07
-1.51485e-05
-3.86002e-05
-1.45899e-05
-2.00624e-05
-4.11767e-05
1.68848e-06
-1.14016e-05
-4.41285e-05
-3.48956e-06
-2.49529e-05
-4.02321e-05
3.94049e-07
-2.97228e-06
-3.8978e-05
5.23066e-06
-1.36548e-05
-3.67162e-05
7.67553e-06
-3.21497e-06
-3.33588e-05
8.20056e-06
-7.08968e-06
-3.03987e-05
1.00555e-05
-7.20801e-07
-2.77167e-05
8.28995e-06
-4.35e-06
-2.6952e-05
6.35259e-06
-3.14018e-06
-2.58382e-05
4.15038e-06
-1.73027e-06
-2.5097e-05
2.80876e-06
-2.70036e-06
-2.49752e-05
1.07854e-06
-3.66786e-06
-2.41178e-05
-7.13446e-07
-1.35247e-06
-2.34223e-05
-1.91458e-06
-3.16357e-06
-2.24608e-05
-2.98142e-06
-2.48219e-06
-2.09906e-05
-4.47234e-06
-2.24146e-06
-2.00551e-05
-4.7808e-06
-2.05888e-06
-1.90273e-05
-4.6004e-06
-2.34138e-06
-1.79477e-05
-5.21206e-06
-2.54966e-06
-1.68785e-05
-4.55384e-06
-8.05031e-07
-1.61226e-05
-4.78233e-06
-3.62386e-06
-1.50617e-05
-4.49613e-06
-3.73323e-07
-1.44615e-05
-4.08489e-06
-2.98836e-06
-1.35538e-05
-3.88608e-06
-1.69569e-06
-1.28528e-05
-3.81073e-06
-1.73044e-06
-1.23723e-05
-3.09448e-06
-1.25304e-06
-1.19163e-05
-3.13982e-06
-1.76578e-06
-1.16924e-05
-2.78704e-06
-1.19306e-06
-2.67631e-06
-8.82388e-07
-3.99934e-05
0.000297818
-5.82776e-05
-3.05829e-05
-3.2902e-05
-3.9033e-05
-8.98657e-06
4.06667e-05
3.83355e-07
-2.29554e-05
-1.24976e-05
2.14067e-05
-4.81096e-05
-1.69628e-05
-3.11133e-05
-4.31456e-05
-1.55186e-05
-3.17791e-06
-4.09994e-05
-2.66166e-05
-4.19173e-05
-3.91764e-05
1.95689e-05
-6.40282e-06
-3.68646e-05
-1.3849e-05
-2.19092e-05
-3.87046e-05
1.36816e-05
-1.23311e-05
-4.12459e-05
5.90305e-06
1.23807e-05
-3.92678e-05
9.55954e-06
-8.53033e-06
-3.8196e-05
6.98505e-06
-5.52567e-06
-3.47405e-05
7.58094e-06
-3.20639e-06
-3.23616e-05
7.72553e-06
-6.32919e-06
-3.01039e-05
1.02261e-05
9.00637e-07
-2.84994e-05
7.47402e-06
-7.15167e-06
-2.81734e-05
8.24101e-06
-7.89572e-07
-2.73365e-05
4.20417e-06
-4.6019e-06
-2.64722e-05
3.88578e-06
-1.46377e-06
-2.61417e-05
1.74782e-06
-3.56519e-06
-2.55265e-05
-1.17089e-07
-1.89344e-06
-2.43981e-05
-1.78536e-06
-2.86592e-06
-2.32801e-05
-3.16191e-06
-3.09369e-06
-2.18281e-05
-4.63535e-06
-2.88947e-06
-2.06093e-05
-4.89291e-06
-1.64163e-06
-1.93274e-05
-4.58644e-06
-2.76125e-06
-1.82714e-05
-5.1479e-06
-2.39992e-06
-1.73339e-05
-4.35023e-06
-1.99571e-06
-1.65211e-05
-4.46124e-06
-3.12765e-06
-1.56534e-05
-4.21772e-06
-1.74933e-06
-1.492e-05
-3.73948e-06
-2.51938e-06
-1.41134e-05
-3.54333e-06
-2.10782e-06
-1.34276e-05
-3.46258e-06
-1.94953e-06
-1.26981e-05
-2.84193e-06
-1.88509e-06
-1.20977e-05
-2.87084e-06
-1.81546e-06
-1.16235e-05
-2.31801e-06
-1.28762e-06
-1.5179e-06
-4.38606e-05
0.000354608
-4.72393e-05
-4.98001e-05
-4.24089e-05
-8.50406e-05
-2.498e-05
1.93116e-05
5.57027e-05
-2.19823e-05
-1.02883e-05
-6.59334e-07
-2.76994e-05
-1.08575e-05
2.66707e-06
-3.12775e-05
-1.02278e-05
-4.31431e-05
-3.39038e-05
-5.63384e-06
-9.59912e-06
-3.3192e-05
1.04972e-05
-1.29054e-05
-3.5646e-05
-1.08241e-06
-1.53942e-05
-3.58745e-05
1.19979e-05
-7.97961e-06
-3.6466e-05
7.56859e-06
-1.68516e-05
-3.94119e-05
1.24288e-05
-1.86907e-05
-3.93483e-05
1.00646e-05
-1.80723e-05
-3.73852e-05
7.11974e-06
-1.68071e-05
-3.43277e-05
7.27649e-06
-1.36065e-06
-3.24851e-05
1.0552e-05
-6.51548e-06
-2.98086e-05
6.94288e-06
-4.83457e-06
-2.91231e-05
9.11014e-06
-2.1012e-06
-2.87151e-05
5.28141e-06
-4.27558e-06
-2.77997e-05
4.0424e-06
-2.35366e-06
-2.72491e-05
2.41607e-06
-3.28689e-06
-2.64177e-05
4.46347e-07
-6.19024e-07
-2.58674e-05
-1.75329e-06
-3.6599e-06
-2.39779e-05
-3.6276e-06
-1.4077e-06
-2.24459e-05
-5.52851e-06
-3.90045e-06
-2.05678e-05
-5.33573e-06
-1.05062e-06
-1.92913e-05
-4.99565e-06
-3.09031e-06
-1.80173e-05
-5.02159e-06
-2.14623e-06
-1.73611e-05
-4.31531e-06
-2.37454e-06
-1.63783e-05
-4.01677e-06
-2.5556e-06
-1.58211e-05
-3.99058e-06
-2.15647e-06
-1.50874e-05
-3.23474e-06
-2.01359e-06
-1.45326e-05
-3.29741e-06
-2.68653e-06
-1.39089e-05
-2.99122e-06
-1.58835e-06
-1.32225e-05
-2.68372e-06
-2.12852e-06
-1.26025e-05
-2.5696e-06
-1.63545e-06
-2.16258e-06
-1.50169e-06
-3.82799e-05
0.000385658
-5.55295e-05
-2.77438e-05
-3.78922e-05
-7.05267e-05
-2.05837e-05
2.89038e-05
-1.49812e-05
-3.23824e-05
6.54578e-06
-5.8844e-05
-3.58927e-05
-1.08886e-05
6.18334e-06
-2.57669e-05
-1.70389e-05
-6.81622e-06
-3.20413e-05
5.01633e-06
-3.37195e-05
-3.17322e-05
-2.21194e-07
-2.76647e-06
-3.08041e-05
6.44345e-06
-3.01121e-05
-3.05983e-05
9.69151e-06
-1.21573e-05
-2.67024e-05
7.39723e-06
-1.40565e-05
-2.47402e-05
1.04274e-05
-8.68917e-06
-2.58161e-05
1.29995e-05
-4.03272e-06
-2.9678e-05
1.25906e-05
1.81055e-05
-2.89202e-05
8.4152e-06
6.10648e-07
-2.86355e-05
1.21263e-05
-2.41106e-06
-2.99351e-05
9.90878e-06
-1.86126e-06
-2.9231e-05
9.14391e-06
-2.47443e-06
-3.03121e-05
7.79339e-06
-3.56818e-06
-3.01505e-05
4.69397e-06
-1.54098e-06
-2.96272e-05
2.83533e-06
-2.14e-06
-2.80769e-05
-3.97174e-07
-9.83632e-07
-2.65921e-05
-2.6145e-06
-8.98433e-07
-2.47267e-05
-4.78983e-06
-9.71397e-07
-2.25025e-05
-7.07718e-06
-3.33848e-06
-2.05674e-05
-5.95643e-06
-2.26414e-06
-1.88863e-05
-5.41097e-06
-1.61414e-06
-1.78796e-05
-5.01452e-06
-3.37124e-06
-1.68489e-05
-4.06114e-06
-1.41047e-06
-1.62573e-05
-3.44746e-06
-3.4133e-06
-1.54989e-05
-3.53322e-06
-1.82479e-06
-1.49735e-05
-2.58481e-06
-2.37836e-06
-1.44885e-05
-2.69936e-06
-2.55003e-06
-1.39947e-05
-2.40856e-06
-1.82345e-06
-1.34866e-05
-2.18129e-06
-2.24861e-06
-1.29954e-05
-2.07528e-06
-1.85998e-06
-1.79237e-06
-1.7241e-06
-4.20547e-05
0.000403889
-6.95747e-05
-4.03025e-05
1.37288e-06
-8.52552e-05
-2.20827e-05
2.063e-05
-6.71172e-07
-3.46852e-05
2.20519e-05
9.38251e-06
-4.81141e-05
1.07978e-05
2.09757e-05
-4.50205e-05
5.10716e-06
-3.59393e-05
-4.93361e-05
1.29919e-05
-4.69065e-06
-4.95463e-05
1.15524e-05
-1.24e-05
-4.72726e-05
1.22091e-05
-9.83541e-06
-4.38897e-05
1.15051e-05
-5.37791e-06
-3.92126e-05
1.24108e-05
-1.87577e-06
-3.80828e-05
1.25102e-05
-9.35347e-07
-3.6739e-05
1.57435e-05
-1.86135e-06
-3.86851e-05
1.51178e-05
-4.64356e-06
-3.6338e-05
8.16783e-06
-1.16743e-05
-3.33177e-05
1.07689e-05
-1.87604e-06
-3.41601e-05
1.0939e-05
-2.12596e-06
-3.13182e-05
8.8431e-06
-1.77939e-06
-3.08777e-05
7.6547e-06
-2.36037e-06
-3.13164e-05
5.84313e-06
5.3692e-08
-3.07021e-05
3.44259e-06
-3.03731e-06
-2.92966e-05
-1.0918e-06
7.77879e-07
-2.73606e-05
-3.67435e-06
-1.7647e-06
-2.65649e-05
-5.79294e-06
7.37158e-07
-2.40604e-05
-8.80125e-06
-1.06642e-06
-2.07357e-05
-8.42473e-06
-5.6834e-06
-1.82673e-05
-6.18752e-06
1.32595e-07
-1.73755e-05
-4.93536e-06
-3.41552e-06
-1.64352e-05
-3.78994e-06
-1.51517e-06
-1.60219e-05
-2.7725e-06
-3.4627e-06
-1.52738e-05
-3.02731e-06
-1.94045e-06
-1.48253e-05
-1.86653e-06
-2.22851e-06
-1.44082e-05
-2.0693e-06
-2.83171e-06
-1.39608e-05
-1.77579e-06
-1.61364e-06
-1.34885e-05
-1.63832e-06
-2.43406e-06
-1.30617e-05
-1.52298e-06
-1.91109e-06
-1.33472e-06
-1.73174e-06
-3.5895e-05
0.000394685
-9.08242e-05
-3.21289e-06
-8.8116e-06
-6.45181e-05
1.77079e-05
9.79335e-07
-7.68144e-06
2.20489e-05
3.48661e-05
-1.614e-05
4.58436e-06
3.26345e-05
-1.23299e-05
-5.45053e-06
5.31973e-06
-2.34089e-05
-1.2331e-05