/*--------------------------------*- C++ -*----------------------------------*\
| =========                 |                                                 |
| \\      /  F ield         | OpenFOAM: The Open Source CFD Toolbox           |
|  \\    /   O peration     | Version:  2.3.1                                 |
|   \\  /    A nd           | Web:      www.OpenFOAM.org                      |
|    \\/     M anipulation  |                                                 |
\*---------------------------------------------------------------------------*/
FoamFile
{
    version     2.0;
    format      ascii;
    class       volScalarField;
    location    "15";
    object      Sed;
}
// * * * * * * * * * * * * * * * * * * * * * * * * * * * * * * * * * * * * * //

dimensions      [0 0 0 0 0 0 0];

internalField   nonuniform List<scalar> 
37632
(
4.77318e-173
3.39498e-173
1.853e-173
9.16128e-174
4.43375e-174
2.95208e-174
1.26416e-174
8.29335e-175
5.1957e-175
4.73308e-175
3.88067e-175
2.29087e-175
1.17446e-175
8.54789e-176
6.376e-176
2.6602e-176
4.46499e-177
2.07934e-178
2.12433e-180
1.66812e-183
4.08358e-187
1.12104e-190
3.33571e-194
1.05044e-197
1.46788e-200
4.62558e-201
3.87835e-201
3.95044e-201
3.87738e-201
3.81033e-201
3.84331e-201
3.90239e-201
3.91877e-201
3.96125e-201
3.96421e-201
3.87305e-201
3.51311e-201
3.04608e-201
1.48701e-173
1.61858e-174
4.56366e-175
1.74358e-175
8.4896e-176
8.14631e-176
2.14801e-176
2.77564e-176
1.3377e-176
1.55583e-176
1.01899e-176
8.43244e-177
7.52622e-177
7.80179e-177
8.36175e-177
4.3246e-177
3.36109e-178
4.66754e-180
2.05493e-182
9.08139e-186
3.5446e-189
1.34158e-192
6.42136e-196
1.42476e-198
3.17709e-199
1.71001e-200
1.8289e-201
6.8042e-202
6.19146e-202
6.15935e-202
6.64663e-202
6.67871e-202
6.74606e-202
6.77229e-202
6.61067e-202
6.19388e-202
5.66908e-202
5.08194e-202
7.43434e-174
8.30887e-175
1.99333e-175
2.3643e-176
1.0569e-176
3.03233e-176
1.09233e-177
5.33562e-177
3.06731e-178
3.18606e-178
2.65146e-178
4.87402e-178
8.20496e-178
8.96241e-178
3.31565e-178
2.64174e-178
6.11528e-180
3.39746e-182
9.15981e-185
3.09848e-188
9.28906e-192
3.47198e-195
1.48594e-196
2.31758e-197
1.16267e-197
3.6709e-199
1.75666e-200
8.04649e-202
1.02689e-202
7.45393e-203
8.82692e-203
8.32256e-203
9.055e-203
9.25484e-203
8.79271e-203
7.95426e-203
7.54026e-203
6.72126e-174
1.29028e-174
4.97323e-175
6.55798e-177
9.38892e-178
3.30387e-177
2.92807e-179
8.42211e-179
4.85745e-180
7.34274e-180
6.90663e-180
1.93374e-179
3.78668e-179
4.41546e-179
7.88374e-180
8.22612e-180
7.03117e-182
2.10458e-184
1.76918e-187
1.26831e-190
3.78001e-194
3.42097e-195
3.719e-195
6.68878e-196
4.45317e-196
1.121e-197
3.87119e-199
1.53238e-200
2.53124e-202
1.82549e-203
6.285e-204
5.81482e-204
6.95433e-204
6.99262e-204
6.25999e-204
5.84854e-204
5.71825e-204
5.70084e-174
8.07932e-175
2.23004e-175
3.52286e-177
3.65428e-178
4.51405e-179
3.0803e-180
5.77135e-181
2.76805e-181
3.65296e-181
2.24315e-181
5.57374e-181
8.16618e-181
1.0881e-180
1.92572e-181
1.0393e-181
5.80605e-184
1.41334e-186
4.82999e-190
7.5429e-193
6.5661e-194
6.6217e-194
8.27041e-194
1.98874e-194
1.4634e-194
3.71053e-196
8.79747e-198
3.15669e-199
5.53655e-201
2.33887e-202
3.19442e-204
4.05325e-205
2.94006e-205
2.76765e-205
2.44251e-205
2.26525e-205
2.02588e-205
1.35448e-205
5.5189e-174
8.41653e-175
1.94018e-175
1.5865e-176
2.43778e-177
7.74753e-179
8.40175e-180
3.98872e-180
2.76811e-181
1.03996e-181
1.91749e-182
1.06405e-182
3.18119e-182
1.83217e-182
3.37569e-183
1.09246e-183
4.22208e-186
9.75734e-189
4.55442e-192
6.24508e-193
1.06549e-192
1.29168e-192
1.87474e-192
7.16094e-193
3.58638e-193
1.33883e-194
2.03721e-196
5.26315e-198
1.14715e-199
3.38072e-201
6.20659e-203
1.14235e-204
3.14179e-206
9.61079e-207
8.12945e-207
6.61245e-207
5.19124e-207
3.43206e-207
5.52051e-174
5.81478e-175
5.84508e-176
3.48862e-177
1.06351e-177
7.38849e-179
9.91512e-180
2.32234e-180
4.94541e-181
1.08643e-181
1.57053e-182
2.29479e-183
9.81915e-184
1.91448e-184
5.36097e-185
7.20662e-186
3.85163e-188
1.67682e-190
3.66479e-191
1.77482e-191
2.21693e-191
2.5487e-191
4.16025e-191
4.52216e-191
8.34601e-192
6.87618e-193
4.8055e-195
7.12606e-197
1.42257e-198
3.54231e-200
7.45121e-202
1.24335e-203
2.71878e-205
3.61046e-207
3.49049e-208
1.8292e-208
1.27516e-208
5.76511e-174
5.51602e-175
5.33659e-176
9.52593e-177
4.7866e-177
2.02784e-177
5.40548e-178
1.73746e-178
4.97892e-179
1.51355e-179
2.79948e-180
3.67705e-181
5.78786e-182
4.33691e-183
1.4865e-185
1.85267e-187
1.81824e-188
5.2942e-189
1.63846e-189
6.75871e-190
1.03435e-189
1.3259e-189
1.00449e-189
1.21712e-189
2.85247e-190
2.77847e-191
1.39974e-193
9.53979e-196
9.8885e-198
2.92239e-199
4.63653e-201
9.82377e-203
1.95245e-204
2.66095e-206
4.47181e-208
1.32011e-209
3.94826e-210
5.80447e-174
4.74696e-175
5.1929e-176
1.58677e-176
4.71978e-177
8.83387e-178
3.15691e-178
9.49008e-179
2.23749e-179
5.65278e-180
9.92472e-181
9.92732e-182
1.40062e-182
7.09496e-184
3.11911e-185
6.10986e-186
1.63284e-186
4.78568e-187
1.5287e-187
4.69314e-188
5.37765e-188
8.99956e-188
3.53578e-188
2.14718e-188
9.57764e-189
1.08982e-189
4.97842e-192
1.17049e-194
6.36858e-197
1.18035e-198
1.55827e-200
2.65236e-202
5.26293e-204
6.18011e-206
1.10164e-207
1.44468e-209
3.42801e-211
5.70663e-174
7.06961e-175
1.07076e-175
4.22779e-176
1.59713e-176
7.98446e-177
3.98701e-177
1.14677e-177
1.6961e-178
1.89697e-179
3.3527e-180
8.8876e-181
1.62141e-181
2.3862e-182
2.86192e-183
8.55008e-184
2.34187e-184
9.95447e-185
2.58002e-185
6.88296e-186
3.16805e-186
3.89939e-186
1.25575e-186
3.80373e-187
2.54114e-187
3.74837e-188
1.56512e-190
1.84649e-193
4.43906e-196
1.86863e-198
2.08107e-200
1.90076e-202
3.62989e-204
2.92609e-206
4.72199e-208
5.56965e-210
6.29688e-212
5.74459e-174
8.24027e-175
7.24302e-176
3.29594e-176
1.66608e-176
6.7056e-177
2.24581e-177
6.84394e-178
2.18784e-178
1.14955e-178
6.54516e-179
2.08719e-179
4.06819e-180
1.01182e-180
3.57863e-181
1.09106e-181
3.10277e-182
1.0518e-182
3.50441e-183
8.86868e-184
2.13546e-184
8.97581e-185
3.09193e-185
5.1095e-186
4.38926e-186
8.50011e-187
5.15557e-189
4.19676e-192
3.38766e-195
2.91191e-198
5.6262e-201
1.60723e-203
1.42458e-205
7.13618e-208
8.87367e-210
9.36594e-212
9.21293e-214
5.70569e-174
3.09513e-174
9.44943e-175
1.99743e-175
4.49066e-176
1.88929e-176
8.99157e-177
5.70401e-177
5.33829e-177
5.52164e-177
5.13421e-177
2.44837e-177
6.27696e-178
1.5894e-178
4.16258e-179
9.9481e-180
2.42524e-180
6.04968e-181
1.61443e-181
4.18554e-182
9.79346e-183
2.88259e-183
7.90639e-184
1.98838e-184
4.67748e-185
7.08051e-186
1.02634e-187
5.6031e-191
2.77964e-194
1.47626e-197
8.72134e-201
6.53374e-204
5.24219e-207
7.42271e-210
4.42631e-212
3.66278e-214
4.52834e-216
1.4197e-173
1.62423e-173
1.28174e-173
8.274e-174
4.26961e-174
2.53506e-174
1.29494e-174
6.82577e-175
5.20028e-175
4.22775e-175
3.18091e-175
1.85393e-175
1.09292e-175
8.56719e-176
5.86419e-176
2.18525e-176
2.92545e-177
9.84513e-179
6.47183e-181
5.69613e-184
4.70683e-187
3.7684e-190
2.97128e-193
2.40043e-196
2.8053e-199
1.32016e-200
3.71217e-201
2.86182e-201
2.75088e-201
2.73196e-201
2.75397e-201
2.80784e-201
2.81165e-201
2.80768e-201
2.77293e-201
2.62823e-201
2.27024e-201
1.92535e-201
1.11042e-173
1.96613e-174
5.93636e-175
3.41098e-175
1.55176e-175
9.89765e-176
5.58095e-176
3.15346e-176
3.21719e-176
2.24261e-176
1.64944e-176
1.34324e-176
1.16505e-176
1.16766e-176
1.10813e-176
3.30505e-177
2.01389e-178
2.42257e-180
8.19915e-183
1.25416e-185
1.75104e-188
2.43131e-191
3.41173e-194
6.27584e-197
2.57036e-198
2.79146e-199
2.16364e-200
1.91259e-201
7.69455e-202
7.0472e-202
7.28812e-202
7.42882e-202
7.40204e-202
7.304e-202
7.04449e-202
6.47902e-202
5.68617e-202
4.98726e-202
4.915e-174
7.97661e-175
1.61164e-175
4.08034e-176
1.04622e-176
1.70761e-176
2.32787e-177
1.9821e-177
1.06872e-177
8.35537e-178
7.66187e-178
8.93607e-178
9.26554e-178
1.11831e-177
7.19804e-178
1.43521e-178
3.94269e-180
2.55533e-182
5.49074e-185
8.07379e-188
1.00834e-190
1.27219e-193
8.92271e-196
2.81961e-196
6.05951e-197
5.62776e-198
3.24759e-199
1.45651e-200
6.97183e-202
1.72488e-202
1.53094e-202
1.56447e-202
1.56707e-202
1.5422e-202
1.44147e-202
1.29264e-202
1.15197e-202
7.53952e-174
2.25018e-174
5.18825e-175
1.03166e-176
7.39688e-178
9.39374e-178
6.37895e-179
3.36304e-179
2.1534e-179
1.98446e-179
1.86876e-179
2.60431e-179
2.93903e-179
4.40408e-179
2.26755e-179
3.38596e-180
5.28988e-182
2.38248e-184
4.16175e-187
6.21555e-190
8.22225e-193
3.0622e-194
1.78199e-194
8.35954e-195
1.88523e-195
1.46557e-196
7.37861e-198
3.03614e-199
8.52532e-201
2.71062e-202
2.44844e-203
1.83722e-203
1.86049e-203
1.82714e-203
1.64222e-203
1.48519e-203
1.31942e-203
6.7632e-174
8.39068e-175
6.62785e-176
2.23228e-177
1.65508e-178
3.14242e-179
4.04435e-180
1.25126e-180
6.94432e-181
6.60553e-181
5.72376e-181
7.83006e-181
1.08368e-180
1.22708e-180
4.26523e-181
4.77532e-182
5.90549e-184
2.3078e-186
4.74699e-189
8.06537e-192
5.41825e-193
5.54003e-193
4.01006e-193
2.52405e-193
5.77804e-194
3.94936e-195
1.7642e-196
7.085e-198
1.87091e-199
5.71912e-201
1.08056e-202
3.5787e-204
1.20089e-204
1.0552e-204
9.23021e-205
8.30193e-205
6.88443e-205
5.4001e-205
6.15164e-174
6.83624e-175
6.81385e-176
5.20365e-177
4.8448e-178
3.38395e-179
3.45992e-180
1.08856e-180
7.05289e-182
3.25979e-182
1.91112e-182
2.5606e-182
3.62398e-182
2.87859e-182
6.55924e-183
5.68293e-184
5.91357e-186
2.3235e-188
7.05722e-191
8.64485e-192
9.45423e-192
9.79015e-192
8.16157e-192
6.71656e-192
1.61313e-192
9.10865e-194
3.5439e-195
1.26392e-196
3.51642e-198
9.75357e-200
2.0914e-201
4.16073e-203
7.79606e-205
6.60059e-206
4.23265e-206
3.46822e-206
2.59879e-206
1.89671e-206
4.87823e-174
3.98018e-175
2.74502e-176
3.21552e-177
7.55353e-178
9.71509e-179
1.21382e-179
1.14046e-180
1.67278e-181
2.6452e-182
4.34064e-183
1.67514e-183
1.06526e-183
5.51426e-184
8.52241e-185
6.40739e-186
6.59374e-188
2.71877e-189
7.1434e-190
2.3049e-190
1.91192e-190
1.95314e-190
1.69944e-190
1.52701e-190
4.33397e-191
2.12387e-192
6.14075e-194
1.71633e-195
4.36549e-197
1.11886e-198
2.5074e-200
5.02112e-202
9.58265e-204
1.50657e-205
4.52015e-207
1.47737e-207
9.6347e-208
3.78421e-174
3.48201e-175
2.19894e-176
4.03907e-177
1.97977e-177
3.89204e-178
7.30486e-179
2.06228e-179
3.85439e-180
9.38634e-181
1.52607e-181
1.70106e-182
2.56561e-183
9.42751e-184
1.30605e-185
2.09057e-186
4.75107e-187
1.35483e-187
3.71673e-188
9.32329e-189
5.85405e-189
6.22233e-189
3.82231e-189
3.16422e-189
1.072e-189
5.31891e-191
9.89734e-193
1.94886e-194
3.65767e-196
8.81977e-198
1.79737e-199
3.80228e-201
7.371e-203
1.20855e-204
1.94611e-206
3.57424e-208
4.64646e-209
3.14072e-174
3.19992e-175
3.41581e-176
1.25465e-176
3.06441e-177
2.93993e-178
5.74436e-179
1.14109e-179
2.54979e-180
6.34927e-181
1.75111e-181
2.36944e-182
3.99352e-183
1.02553e-183
3.74716e-184
1.27448e-184
3.65477e-185
1.2228e-185
3.61355e-186
8.5079e-187
3.46735e-187
2.65528e-187
1.01647e-187
5.76525e-188
2.4897e-188
1.41898e-189
1.6975e-191
1.80012e-193
2.14686e-195
3.75255e-197
6.28776e-199
1.11746e-200
2.02664e-202
3.05794e-204
4.9247e-206
7.16442e-208
1.18395e-209
2.61252e-174
3.52536e-175
6.84069e-176
2.74551e-176
9.21397e-177
2.79642e-177
7.41478e-178
1.59941e-178
4.50091e-179
1.84373e-179
7.31212e-180
2.04449e-180
3.84218e-181
8.07936e-182
3.04019e-182
1.34052e-182
4.08823e-183
1.48256e-183
4.65253e-184
1.134e-184
3.14249e-185
1.31154e-185
3.24265e-186
1.06985e-186
5.63777e-187
3.63102e-188
2.85708e-190
1.63855e-192
9.80869e-195
7.50867e-197
8.21344e-199
9.8312e-201
1.44787e-202
1.67237e-204
2.30924e-206
2.89988e-208
3.4746e-210
2.7309e-174
3.5788e-175
5.8733e-176
1.99572e-176
9.42072e-177
3.6179e-177
1.49281e-177
7.99465e-178
5.57742e-178
4.24587e-178
2.48813e-178
9.10947e-179
2.20282e-179
5.58444e-180
1.91405e-180
6.23615e-181
1.87471e-181
5.96867e-182
2.03351e-182
5.27433e-183
1.311e-183
4.00455e-184
7.40815e-185
1.66864e-185
1.00723e-185
8.33374e-187
3.43344e-189
8.90067e-192
2.11964e-194
5.09372e-197
1.92854e-199
9.12942e-202
7.38329e-204
4.95967e-206
5.47965e-208
5.70176e-210
6.0037e-212
4.52288e-174
2.26986e-174
6.94203e-175
1.49556e-175
3.76512e-176
1.77415e-176
9.32901e-177
6.72856e-177
6.66493e-177
6.91655e-177
6.59603e-177
3.74188e-177
1.10889e-177
2.94814e-178
7.69788e-179
1.90783e-179
4.78783e-180
1.22349e-180
3.61018e-181
9.07115e-182
2.31112e-182
7.46205e-183
1.85809e-183
4.54552e-184
8.93033e-185
7.52232e-186
2.47196e-188
3.59372e-191
4.83975e-194
6.24835e-197
7.78784e-200
1.00971e-202
1.5372e-205
3.88195e-208
2.89969e-210
2.57367e-212
2.72269e-214
8.74539e-174
1.08828e-173
7.93853e-174
6.27426e-174
4.09908e-174
1.98118e-174
1.16718e-174
6.3856e-175
5.0908e-175
3.97126e-175
2.63818e-175
1.57729e-175
1.07524e-175
7.96074e-176
4.70054e-176
1.34372e-176
1.13715e-177
2.31802e-179
8.05269e-182
7.24926e-185
6.41385e-188
5.84531e-191
5.40694e-194
5.33587e-197
4.72902e-199
6.63315e-200
7.92182e-201
2.82235e-201
2.38242e-201
2.36642e-201
2.37976e-201
2.40404e-201
2.3963e-201
2.3678e-201
2.2972e-201
2.12331e-201
1.83034e-201
1.55508e-201
4.88312e-174
8.52339e-175
2.95056e-175
2.27676e-175
1.83512e-175
7.01118e-176
7.87161e-176
3.14276e-176
3.15421e-176
2.36649e-176
1.71182e-176
1.54366e-176
1.28734e-176
1.32182e-176
8.97146e-177
1.70793e-177
6.40267e-179
5.80843e-181
1.81698e-183
4.08209e-186
8.5839e-189
1.79644e-191
3.78838e-194
1.34908e-196
1.23568e-197
1.70966e-198
1.41061e-199
9.39598e-201
1.20941e-201
7.50112e-202
7.41829e-202
7.53898e-202
7.44903e-202
7.27664e-202
6.93539e-202
6.28962e-202
5.4549e-202
4.7593e-202
3.09178e-174
1.01546e-174
1.03893e-175
1.50927e-176
1.7808e-176
5.60216e-177
2.60632e-177
9.80743e-178
1.03086e-177
9.73668e-178
7.81308e-178
9.2441e-178
8.09695e-178
1.00918e-177
5.21511e-178
5.98083e-179
1.22548e-180
7.24756e-183
1.94252e-185
4.13441e-188
7.77464e-191
1.5089e-193
3.3092e-195
1.22179e-195
2.79223e-196
3.4479e-197
2.33802e-198
1.17703e-199
5.07728e-201
3.61211e-202
1.93482e-202
1.90163e-202
1.86124e-202
1.79779e-202
1.66141e-202
1.47467e-202
1.29032e-202
4.79598e-174
1.55306e-174
1.6629e-175
2.85916e-177
7.09392e-178
2.85435e-178
7.40724e-179
3.51494e-179
2.76194e-179
2.38095e-179
2.18951e-179
2.69212e-179
2.55468e-179
3.8181e-179
1.59845e-179
1.22578e-180
1.758e-182
8.6748e-185
2.4032e-187
5.33215e-190
1.16139e-192
1.20661e-193
6.84276e-194
3.38396e-194
8.03756e-195
8.74628e-196
5.41636e-197
2.48881e-198
8.51909e-200
2.44542e-201
8.72678e-203
2.89842e-203
2.58127e-203
2.46599e-203
2.19475e-203
1.93091e-203
1.67308e-203
3.58989e-174
3.99262e-175
2.11916e-176
1.1381e-177
1.22339e-178
2.44186e-179
4.65687e-180
1.72819e-180
1.04221e-180
7.68339e-181
7.10982e-181
8.8475e-181
9.22514e-181
9.88782e-181
3.0309e-181
1.79108e-182
2.24433e-184
1.15097e-186
3.97345e-189
1.29431e-191
2.08755e-192
2.25355e-192
1.41897e-192
9.03379e-193
2.25904e-193
2.23266e-194
1.31857e-195
6.01746e-197
1.97236e-198
5.71206e-200
1.29477e-201
2.86898e-203
2.54946e-204
1.7041e-204
1.4702e-204
1.24675e-204
1.0169e-204
8.21787e-205
3.57007e-174
3.0573e-175
1.57133e-176
1.64072e-177
2.15366e-178
1.84584e-179
1.68739e-180
2.14634e-181
4.1232e-182
2.3354e-182
2.24533e-182
3.60141e-182
2.79461e-182
2.36271e-182
4.87529e-183
2.39004e-184
2.80422e-186
1.6674e-188
1.9866e-190
4.67118e-191
3.80187e-191
3.9273e-191
2.6377e-191
1.99007e-191
5.5531e-192
4.61116e-193
2.51398e-194
1.09499e-195
3.6291e-197
1.04082e-198
2.48465e-200
5.27811e-202
9.80343e-204
2.82128e-205
9.24737e-206
7.00251e-206
5.18772e-206
3.82353e-206
2.79608e-174
1.72425e-175
1.23998e-176
2.26947e-177
5.56702e-178
4.59178e-179
4.90386e-180
4.00853e-181
3.62799e-182
4.92243e-183
1.58397e-183
1.61824e-183
7.89831e-184
4.64834e-184
6.97869e-185
3.37292e-186
1.08688e-187
1.87906e-188
4.9101e-189
1.30684e-189
7.89441e-190
7.31506e-190
4.85723e-190
3.74421e-190
1.27226e-190
8.28217e-192
3.74575e-193
1.45428e-194
4.54356e-196
1.25744e-197
3.02683e-199
6.58782e-201
1.28959e-202
2.23562e-204
4.18754e-206
4.85029e-207
2.81535e-207
2.005e-174
1.75998e-175
1.51866e-176
2.12183e-177
7.72511e-178
1.20841e-178
1.73785e-179
3.85221e-180
5.07794e-181
8.13615e-182
1.42192e-182
2.08041e-183
4.44974e-184
1.86499e-184
3.43556e-185
1.05799e-185
3.04695e-186
8.47784e-187
2.26389e-187
5.22473e-188
2.2565e-188
1.82352e-188
9.52118e-189
6.542e-189
2.71985e-189
1.3461e-190
4.42915e-192
1.44254e-193
3.87191e-195
1.00445e-196
2.28827e-198
5.02329e-200
1.00452e-201
1.80033e-203
3.0224e-205
4.95118e-207
2.40611e-208
1.60939e-174
1.81006e-175
2.89518e-176
7.51236e-177
1.46478e-177
1.59057e-178
3.01648e-179
7.76567e-180
2.51219e-180
7.79423e-181
3.03466e-181
7.74071e-182
1.90134e-182
5.11276e-183
1.77781e-183
6.03485e-184
1.90297e-184
6.03463e-185
1.77733e-185
4.16456e-186
1.31179e-186
6.82401e-187
2.36427e-187
1.14395e-187
5.61931e-188
2.05152e-189
4.2527e-191
9.6942e-193
2.02024e-194
4.36877e-196
8.50937e-198
1.61285e-199
2.9567e-201
4.93342e-203
8.02929e-205
1.23761e-206
1.9084e-208
1.26423e-174
2.27069e-175
6.0245e-176
1.81947e-176
4.57775e-177
1.43088e-177
4.29907e-178
1.89345e-178
1.04195e-178
5.03909e-179
2.54412e-179
7.59066e-180
1.9119e-180
4.49476e-181
1.3909e-181
5.16454e-182
1.63019e-182
5.44241e-183
1.7387e-183
4.3079e-184
1.11027e-184
3.49246e-185
7.8627e-186
2.43304e-186
1.15001e-186
3.26279e-188
3.64102e-190
4.26801e-192
5.65647e-194
7.99886e-196
1.14297e-197
1.63126e-199
2.397e-201
3.15727e-203
4.29095e-205
5.60949e-207
7.11965e-209
1.30857e-174
2.39539e-175
5.94443e-176
1.54958e-176
6.1801e-177
3.30122e-177
1.99838e-177
1.54142e-177
1.20601e-177
9.17765e-178
6.208e-178
2.58072e-178
7.60659e-179
1.97897e-179
5.72776e-180
1.75129e-180
5.29004e-181
1.65389e-181
5.58556e-182
1.50791e-182
3.86447e-183
1.08095e-183
1.80913e-184
4.27559e-185
2.06384e-185
6.57092e-187
3.24116e-189
1.42873e-191
7.14269e-194
3.90675e-196
2.59575e-198
1.76579e-200
1.53863e-202
1.22871e-204
1.26572e-206
1.34807e-208
1.52199e-210
3.16074e-174
1.46418e-174
4.39785e-175
1.00437e-175
2.95499e-176
1.61972e-176
1.00561e-176
8.58081e-177
8.77235e-177
9.18619e-177
8.99195e-177
6.11159e-177
2.14958e-177
6.14362e-178
1.6379e-178
4.16885e-179
1.05301e-179
2.72699e-180
8.17711e-181
2.10377e-181
5.66494e-182
1.80871e-182
4.41664e-183
1.06946e-183
1.75657e-184
6.69123e-186
1.49111e-188
2.47656e-191
3.8122e-194
7.3411e-197
1.44877e-199
3.73981e-202
1.41596e-204
7.44433e-207
6.91093e-209
6.85122e-211
7.26664e-213
4.59473e-174
6.83365e-174
5.57818e-174
4.82161e-174
3.48752e-174
1.61253e-174
9.38022e-175
6.04857e-175
5.09994e-175
3.74692e-175
2.34847e-175
1.54205e-175
9.74345e-176
5.70521e-176
2.57393e-176
4.78641e-177
2.18661e-178
2.48855e-180
3.76464e-183
4.39842e-186
4.7453e-189
5.05218e-192
5.32647e-195
1.1689e-197
1.41767e-198
2.42585e-199
2.44683e-200
3.88113e-201
2.30282e-201
2.19553e-201
2.20178e-201
2.20201e-201
2.17867e-201
2.1278e-201
2.05046e-201
1.891e-201
1.65158e-201
1.41671e-201
2.06875e-174
6.79731e-175
2.21836e-175
1.91811e-175
1.2619e-175
6.16414e-176
5.70978e-176
3.68007e-176
3.55444e-176
2.69161e-176
2.12704e-176
1.86686e-176
1.39996e-176
9.4558e-177
4.25105e-177
4.74462e-178
1.06635e-179
7.3e-182
2.35936e-184
6.60079e-187
1.7562e-189
4.63699e-192
1.26575e-194
1.85867e-196
3.85644e-197
6.25969e-198
5.67209e-199
3.83497e-200
2.79769e-201
8.53554e-202
7.50266e-202
7.5712e-202
7.43392e-202
7.20977e-202
6.81868e-202
6.1386e-202
5.31087e-202
4.61458e-202
1.72002e-174
6.5598e-175
4.52638e-176
8.5861e-177
6.87248e-177
2.68797e-177
1.86439e-177
1.115e-177
1.30647e-177
1.0999e-177
8.6301e-178
9.37571e-178
6.32619e-178
5.46555e-178
2.02497e-178
1.39416e-179
2.03248e-181
1.07961e-183
3.35273e-186
8.60375e-189
2.0489e-191
6.14233e-194
8.15807e-195
3.19829e-195
8.17259e-196
1.22057e-196
9.41141e-198
5.25576e-199
2.35665e-200
1.04895e-201
2.47546e-202
2.11168e-202
2.05008e-202
1.9507e-202
1.78266e-202
1.566e-202
1.35481e-202
1.7971e-174
2.57247e-175
2.01752e-176
1.07936e-177
3.71019e-178
1.70673e-178
7.64572e-179
4.78279e-179
4.05802e-179
2.97168e-179
2.28549e-179
2.84774e-179
1.99941e-179
1.87497e-179
5.66476e-180
2.62967e-181
3.03165e-183
1.48922e-185
4.77118e-188
1.23192e-190
5.18424e-193
2.60762e-193
1.69047e-193
8.04652e-194
2.15283e-194
2.93353e-195
2.05895e-196
1.03657e-197
3.88331e-199
1.15173e-200
3.29598e-202
4.29707e-203
3.19119e-203
2.95496e-203
2.58459e-203
2.21734e-203
1.88559e-203
9.04176e-175
8.55311e-176
7.55449e-177
6.46294e-178
9.56442e-179
2.13192e-179
5.54098e-180
2.54627e-180
1.64687e-180
1.01263e-180
6.88115e-181
8.44935e-181
5.56949e-181
4.40422e-181
1.02214e-181
3.88811e-183
4.26794e-185
2.36066e-187
9.53821e-190
8.12242e-192
4.42589e-192
4.85788e-192
3.32988e-192
2.0126e-192
5.77763e-193
7.34201e-194
5.01328e-195
2.4893e-196
8.95634e-198
2.65209e-199
6.48874e-201
1.42033e-202
5.57617e-204
2.40554e-204
1.978e-204
1.61179e-204
1.29492e-204
1.0191e-204
1.46977e-174
9.15787e-176
6.32222e-177
7.09627e-178
1.3028e-178
1.32484e-179
1.34211e-180
1.81308e-181
6.13391e-182
3.11615e-182
2.16323e-182
2.88394e-182
1.50717e-182
9.80634e-183
1.62083e-183
5.58788e-185
6.24064e-187
5.71216e-189
4.58293e-190
1.32128e-190
8.69762e-191
8.54192e-191
5.9379e-191
4.13223e-191
1.35471e-191
1.5084e-192
9.82775e-194
4.74502e-195
1.70965e-196
5.06255e-198
1.26599e-199
2.79953e-201
5.43665e-203
1.1461e-204
1.63313e-205
1.08613e-205
8.1084e-206
5.76618e-206
1.05939e-174
6.34298e-176
6.67003e-177
1.13167e-177
2.8472e-178
2.64037e-179
2.87339e-180
2.48277e-181
2.43806e-182
3.7403e-183
1.37246e-183
1.1098e-183
4.24728e-184
1.91115e-184
2.68302e-185
1.68807e-186
2.60314e-187
6.43147e-188
1.64482e-188
4.06728e-189
1.88896e-189
1.56062e-189
1.04995e-189
7.24232e-190
2.92528e-190
2.59532e-191
1.48394e-192
6.59005e-194
2.25941e-195
6.52069e-197
1.62468e-198
3.63362e-200
7.32519e-202
1.33858e-203
2.35817e-205
1.18462e-206
5.41284e-207
8.59637e-175
8.8385e-176
1.04384e-176
1.19251e-177
2.70114e-178
4.44356e-179
7.20794e-180
1.37856e-180
2.86201e-181
5.64442e-182
1.58455e-182
4.13088e-183
1.0915e-183
2.93017e-184
9.9778e-185
3.30305e-185
1.01805e-185
2.83296e-186
7.46592e-187
1.70044e-187
5.76915e-188
3.8125e-188
2.07175e-188
1.21327e-188
5.85433e-189
3.85686e-190
1.75336e-191
6.79479e-193
2.05431e-194
5.54635e-196
1.30884e-197
2.88733e-199
5.89787e-201
1.09942e-202
1.914e-204
3.16796e-206
8.65223e-208
8.30236e-175
1.19706e-175
2.37565e-176
4.10517e-177
6.50804e-178
1.29737e-178
3.43749e-179
1.23744e-179
5.27248e-180
1.86825e-180
7.50791e-181
2.17258e-181
5.83274e-182
1.57069e-182
5.40285e-183
1.90187e-183
6.1973e-184
1.92818e-184
5.74007e-185
1.38241e-185
3.81036e-186
1.58654e-186
5.61679e-187
2.26987e-187
1.1326e-187
4.98588e-189
1.60084e-190
4.79869e-192
1.16364e-193
2.69787e-195
5.51217e-197
1.06419e-198
1.95693e-200
3.37844e-202
5.60151e-204
8.8575e-206
1.37983e-207
6.73482e-175
1.69677e-175
5.05047e-176
1.19532e-176
2.87251e-177
1.18827e-177
4.83313e-178
3.08681e-178
1.7764e-178
9.39136e-179
4.99555e-179
1.72498e-179
4.8781e-180
1.26404e-180
3.99017e-181
1.43274e-181
4.69275e-182
1.53016e-182
4.90842e-183
1.26096e-183
3.13332e-184
8.37961e-185
2.05469e-185
5.50775e-186
2.25589e-186
6.04586e-188
1.1861e-189
2.13682e-191
3.61361e-193
5.86229e-195
8.73233e-197
1.28e-198
1.88174e-200
2.59476e-202
3.54432e-204
4.70187e-206
6.19034e-208
6.46042e-175
1.76714e-175
5.81004e-176
1.40668e-176
5.77649e-177
3.76985e-177
2.64438e-177
2.308e-177
1.83838e-177
1.42492e-177
1.00741e-177
4.73126e-178
1.55401e-178
4.31741e-179
1.25197e-179
3.89183e-180
1.22606e-180
3.91903e-181
1.31888e-181
3.71688e-182
9.81489e-183
2.5133e-183
4.90278e-184
1.03659e-184
4.20642e-185
9.05441e-187
9.5795e-189
7.19768e-191
5.19768e-193
3.86115e-195
2.62649e-197
1.85776e-199
1.54264e-201
1.27377e-203
1.24727e-205
1.30113e-207
1.53791e-209
2.18411e-174
9.46708e-175
2.92727e-175
7.32389e-176
2.53253e-176
1.54748e-176
1.08951e-176
1.02654e-176
1.07034e-176
1.13194e-176
1.11707e-176
8.39692e-177
3.3541e-177
1.03985e-177
2.9297e-178
7.97489e-179
2.14046e-179
5.8268e-180
1.78114e-180
4.7585e-181
1.33541e-181
4.18319e-182
1.03966e-182
2.50476e-183
3.74e-184
8.12979e-186
4.22793e-188
1.47672e-190
3.40401e-193
8.26152e-196
1.80005e-198
4.74986e-201
1.62771e-203
8.48436e-206
7.26346e-208
7.12871e-210
8.22233e-212
4.33331e-174
5.25987e-174
3.25185e-174
2.87228e-174
2.33473e-174
1.1903e-174
7.80744e-175
5.91549e-175
5.13571e-175
3.51997e-175
2.31291e-175
1.43808e-175
6.81206e-176
2.72456e-176
8.53914e-177
9.15207e-178
2.14351e-179
1.22936e-181
1.77686e-184
2.27782e-187
2.69566e-190
3.15517e-193
4.07938e-196
1.4502e-197
3.61232e-198
6.69276e-199
6.86103e-200
7.13026e-201
2.45474e-201
2.13305e-201
2.12015e-201
2.10503e-201
2.0633e-201
2.0119e-201
1.94614e-201
1.80852e-201
1.59601e-201
1.38056e-201
9.01705e-175
3.37727e-175
1.17453e-175
1.16452e-175
1.00233e-175
5.71205e-176
5.68759e-176
4.31924e-176
4.11897e-176
3.33261e-176
2.92749e-176
2.27957e-176
9.4454e-177
3.84449e-177
1.15003e-177
7.31637e-179
1.08511e-180
6.09399e-183
2.26846e-185
7.59649e-188
2.4307e-190
7.70158e-193
3.3232e-195
3.51291e-196
9.42657e-197
1.70925e-197
1.68221e-198
1.18248e-199
7.2547e-201
1.08811e-201
7.71605e-202
7.64567e-202
7.47241e-202
7.21241e-202
6.78582e-202
6.0827e-202
5.25983e-202
4.54341e-202
6.33359e-175
2.37636e-175
2.52868e-176
5.534e-177
4.19797e-177
2.19944e-177
2.03122e-177
1.49085e-177
1.73419e-177
1.58321e-177
1.08727e-177
9.65679e-178
3.6238e-178
1.7995e-178
4.64286e-179
1.93182e-180
2.19591e-182
1.13264e-184
4.07768e-187
1.24549e-189
3.65871e-192
3.09998e-194
1.66811e-194
6.64742e-195
1.88236e-195
3.23232e-196
2.76529e-197
1.65409e-198
7.61152e-200
3.03485e-201
3.37271e-202
2.29616e-202
2.19601e-202
2.06471e-202
1.86682e-202
1.62259e-202
1.38708e-202
7.31073e-175
8.50643e-176
7.80683e-177
7.65119e-178
2.74235e-178
1.4314e-178
8.85337e-179
6.46424e-179
6.18367e-179
4.30813e-179
2.52204e-179
2.81161e-179
1.04586e-179
5.61918e-180
1.1783e-180
3.51097e-182
3.50032e-184
1.76152e-186
6.29091e-189
1.8671e-191
3.671e-193
3.8218e-193
3.21032e-193
1.51582e-193
4.55284e-194
7.3501e-195
5.63662e-196
2.98452e-197
1.1542e-198
3.4943e-200
9.50249e-202
6.45542e-203
3.79643e-203
3.40484e-203
2.92912e-203
2.45524e-203
2.04366e-203
3.54596e-175
4.4193e-176
5.20596e-177
4.78835e-178
7.18986e-179
1.73066e-179
6.29084e-180
3.41285e-180
2.6351e-180
1.39506e-180
6.42138e-181
6.29727e-181
2.43226e-181
1.21821e-181
2.00849e-182
5.3483e-184
5.29409e-186
2.98287e-188
1.49401e-190
8.8822e-192
6.37754e-192
7.02116e-192
6.15531e-192
3.60421e-192
1.19457e-192
1.84273e-193
1.37043e-194
7.04286e-196
2.59262e-197
7.61233e-199
1.87873e-200
4.08956e-202
1.16698e-203
3.26864e-204
2.52235e-204
2.00897e-204
1.57884e-204
1.205e-204
6.11943e-175
4.79334e-176
4.30167e-177
4.13303e-178
6.70546e-179
7.91973e-180
9.9425e-181
2.1137e-181
9.79468e-182
4.11087e-182
1.68461e-182
1.62002e-182
5.83189e-183
2.4966e-183
3.10533e-184
8.07676e-186
9.88873e-188
4.43801e-189
9.7388e-190
2.629e-190
1.38401e-190
1.2504e-190
1.10798e-190
7.26496e-191
2.84026e-191
4.00117e-192
2.88607e-193
1.44201e-194
5.25872e-196
1.53222e-197
3.79092e-199
8.27867e-201
1.61005e-202
3.1298e-204
2.55812e-205
1.48738e-205
1.10443e-205
7.67764e-206
4.3403e-175
3.46623e-176
4.21036e-177
5.66344e-178
1.3299e-178
1.47395e-179
1.73956e-180
1.80739e-181
2.6394e-182
5.67019e-183
1.61398e-183
7.11195e-184
2.21596e-184
7.06404e-185
1.18007e-185
2.22017e-186
5.78102e-187
1.51196e-187
3.87721e-188
9.13602e-189
3.30569e-189
2.31083e-189
2.00798e-189
1.27316e-189
6.14883e-190
7.36161e-191
4.81857e-192
2.22737e-193
7.72058e-195
2.19398e-196
5.37031e-198
1.17505e-199
2.33174e-201
4.26919e-203
7.44291e-205
2.39861e-206
8.11367e-207
4.56487e-175
5.52008e-176
7.4566e-177
7.68984e-178
1.28203e-178
2.48464e-179
5.04532e-180
1.22465e-180
3.54206e-181
9.77866e-182
2.98442e-182
8.55327e-183
2.42155e-183
6.88388e-184
2.33538e-184
7.84564e-185
2.44999e-185
6.90227e-186
1.85137e-186
4.18918e-187
1.15424e-187
5.87155e-188
4.25232e-188
2.23187e-188
1.19975e-188
1.19045e-189
6.49139e-191
2.60317e-192
7.94143e-194
2.09756e-195
4.84678e-197
1.02914e-198
2.04681e-200
3.80941e-202
6.66032e-204
1.10793e-205
2.34337e-207
5.87617e-175
8.64323e-176
1.77412e-176
2.53675e-177
4.25068e-178
1.25315e-178
4.07888e-179
1.79932e-179
8.00758e-180
3.17975e-180
1.29183e-180
4.17737e-181
1.19646e-181
3.49238e-182
1.25434e-182
4.6337e-183
1.55653e-183
4.90291e-184
1.47522e-184
3.61709e-185
8.95787e-186
3.04717e-186
1.28763e-186
4.65074e-187
2.32055e-187
1.79574e-188
7.22252e-190
2.23034e-191
5.41889e-193
1.21974e-194
2.4262e-196
4.5437e-198
8.11364e-200
1.3817e-201
2.27045e-203
3.59024e-205
5.6004e-207
4.63006e-175
1.27449e-175
4.03956e-176
8.75113e-177
2.39569e-177
1.20159e-177
5.82302e-178
4.15976e-178
2.51848e-178
1.39241e-178
7.52713e-179
2.86756e-179
8.75825e-180
2.50028e-180
8.27362e-181
3.07663e-181
1.06929e-181
3.54268e-182
1.14287e-182
3.07103e-183
7.45242e-184
1.7411e-184
5.05277e-185
1.20755e-185
4.73402e-186
2.80331e-187
7.12421e-189
1.32063e-190
2.17876e-192
3.41407e-194
4.8524e-196
6.7895e-198
9.55075e-200
1.31305e-201
1.77293e-203
2.33793e-205
3.11092e-207
4.09016e-175
1.3764e-175
5.37219e-176
1.42932e-176
6.21954e-177
4.39567e-177
3.23332e-177
2.90861e-177
2.4115e-177
1.87122e-177
1.34466e-177
6.80637e-178
2.39488e-178
7.06795e-179
2.12141e-179
6.94381e-180
2.34215e-180
7.85478e-181
2.68775e-181
7.97547e-182
2.17132e-182
5.30546e-183
1.25553e-183
2.23635e-184
8.98367e-185
4.86964e-186
7.63487e-188
5.89191e-190
4.29211e-192
3.34129e-194
2.13353e-196
1.40062e-198
1.06122e-200
8.68546e-203
7.74968e-205
7.61114e-207
8.89206e-209
1.4366e-174
6.09577e-175
2.14035e-175
6.10414e-176
2.40366e-176
1.54262e-176
1.18953e-176
1.16741e-176
1.23809e-176
1.30984e-176
1.29294e-176
1.01769e-176
4.40371e-177
1.44645e-177
4.25879e-178
1.2344e-178
3.58866e-179
1.05845e-179
3.4013e-180
9.76715e-181
2.85076e-181
8.78599e-182
2.26704e-182
5.52915e-183
8.50935e-184
4.17577e-185
4.53892e-187
1.90843e-189
4.6602e-192
1.02837e-194
2.06938e-197
4.79953e-200
1.36697e-202
6.48468e-205
4.70901e-207
4.42774e-209
5.16061e-211
3.45218e-174
4.1975e-174
1.44096e-174
1.45443e-174
1.40647e-174
9.66154e-175
6.87676e-175
5.9626e-175
5.13924e-175
3.40462e-175
2.29165e-175
1.10533e-175
3.36192e-176
8.34687e-177
1.74405e-177
9.74424e-179
1.1518e-180
4.18243e-183
7.07804e-186
1.01268e-188
1.32422e-191
1.72109e-194
9.03098e-197