/*--------------------------------*- C++ -*----------------------------------*\
| =========                 |                                                 |
| \\      /  F ield         | OpenFOAM: The Open Source CFD Toolbox           |
|  \\    /   O peration     | Version:  2.3.1                                 |
|   \\  /    A nd           | Web:      www.OpenFOAM.org                      |
|    \\/     M anipulation  |                                                 |
\*---------------------------------------------------------------------------*/
FoamFile
{
    version     2.0;
    format      ascii;
    class       volScalarField;
    location    "15";
    object      Sed_0;
}
// * * * * * * * * * * * * * * * * * * * * * * * * * * * * * * * * * * * * * //

dimensions      [0 0 0 0 0 0 0];

internalField   nonuniform List<scalar> 
37632
(
4.69471e-173
3.3259e-173
1.78691e-173
8.79363e-174
4.25172e-174
2.82434e-174
1.20349e-174
8.04732e-175
5.16688e-175
4.73007e-175
3.84372e-175
2.23225e-175
1.14761e-175
8.4578e-176
6.23654e-176
2.54205e-176
4.12464e-177
1.8387e-178
1.7759e-180
1.19315e-183
2.99512e-187
8.5158e-191
2.5693e-194
8.08463e-198
1.36678e-200
4.61261e-201
3.87918e-201
3.95268e-201
3.87934e-201
3.81245e-201
3.84542e-201
3.90443e-201
3.92082e-201
3.96319e-201
3.96591e-201
3.87394e-201
3.51232e-201
3.04529e-201
1.4792e-173
1.54176e-174
4.39055e-175
1.68013e-175
8.15947e-176
7.88313e-176
2.10589e-176
2.73278e-176
1.32625e-176
1.53351e-176
1.00312e-176
8.30436e-177
7.44577e-177
7.73956e-177
8.24264e-177
4.06456e-177
3.00723e-178
3.96628e-180
1.66598e-182
7.13575e-186
2.76423e-189
1.04315e-192
5.00862e-196
1.30232e-198
3.09607e-199
1.6684e-200
1.79667e-201
6.7842e-202
6.19281e-202
6.16192e-202
6.64848e-202
6.68095e-202
6.74755e-202
6.77291e-202
6.61031e-202
6.19253e-202
5.66698e-202
5.07972e-202
7.61807e-174
8.31039e-175
2.03703e-175
2.40092e-176
1.01408e-176
2.96107e-176
1.06398e-177
5.19123e-177
2.98882e-178
3.13667e-178
2.6215e-178
4.79939e-178
8.08972e-178
8.85557e-178
3.19572e-178
2.423e-178
5.30924e-180
2.79871e-182
7.23679e-185
2.40125e-188
7.15995e-192
2.71387e-195
1.47264e-196
2.27097e-197
1.13168e-197
3.57836e-199
1.70928e-200
7.84599e-202
1.02027e-202
7.44891e-203
8.82615e-203
8.32206e-203
9.05083e-203
9.2509e-203
8.78849e-203
7.94954e-203
7.53534e-203
6.89708e-174
1.33551e-174
4.98606e-175
6.41035e-177
9.0078e-178
3.11904e-177
2.77377e-179
7.85436e-179
4.75633e-180
7.24554e-180
6.80466e-180
1.89779e-179
3.7284e-179
4.35296e-179
7.46261e-180
7.36288e-180
5.97296e-182
1.70249e-184
1.35498e-187
9.67123e-191
2.97455e-194
3.3835e-195
3.67499e-195
6.55389e-196
4.34038e-196
1.09291e-197
3.7661e-199
1.49119e-200
2.45878e-202
1.78893e-203
6.27324e-204
5.80863e-204
6.94684e-204
6.98655e-204
6.25419e-204
5.84204e-204
5.71242e-204
5.83198e-174
8.08309e-175
2.21376e-175
3.45955e-177
3.62043e-178
4.4545e-179
3.07211e-180
5.63715e-181
2.72642e-181
3.6031e-181
2.20055e-181
5.46572e-181
8.0184e-181
1.05263e-180
1.7874e-181
9.11898e-182
4.85392e-184
1.13462e-186
3.83836e-190
5.84945e-193
6.48131e-194
6.54501e-194
8.17309e-194
1.94982e-194
1.42887e-194
3.61566e-196
8.55646e-198
3.07183e-199
5.37561e-201
2.26901e-202
3.10404e-204
4.01998e-205
2.93508e-205
2.7635e-205
2.43815e-205
2.26091e-205
2.0226e-205
1.35164e-205
5.67401e-174
8.48846e-175
1.88973e-175
1.54785e-176
2.42425e-177
7.75712e-179
8.45631e-180
4.01786e-180
2.78349e-181
1.04068e-181
1.90944e-182
1.03281e-182
3.09295e-182
1.74409e-182
3.07588e-183
9.46267e-184
3.49512e-186
7.79961e-189
3.8237e-192
6.13442e-193
1.05007e-192
1.27475e-192
1.85102e-192
7.04218e-193
3.50806e-193
1.30104e-194
1.97845e-196
5.12004e-198
1.11462e-199
3.28133e-201
6.01812e-203
1.10643e-204
3.07561e-206
9.57183e-207
8.10586e-207
6.59345e-207
5.17627e-207
3.42031e-207
5.68834e-174
5.85421e-175
5.60601e-176
3.48191e-177
1.06003e-177
7.41202e-179
9.9669e-180
2.33686e-180
4.96731e-181
1.08959e-181
1.5699e-182
2.26971e-183
9.51177e-184
1.79495e-184
4.81249e-185
6.16697e-186
3.16816e-188
1.50068e-190
3.58686e-191
1.74533e-191
2.18757e-191
2.51477e-191
4.10297e-191
4.46306e-191
8.17758e-192
6.66035e-193
4.65616e-195
6.92566e-197
1.38272e-198
3.43903e-200
7.23049e-202
1.20435e-203
2.63115e-205
3.50328e-207
3.45944e-208
1.82177e-208
1.26963e-208
5.93266e-174
5.44982e-175
5.21219e-176
9.59269e-177
4.83815e-177
2.0358e-177
5.43297e-178
1.74932e-178
5.0106e-179
1.52014e-179
2.80747e-180
3.68251e-181
5.77698e-182
4.32939e-183
1.46677e-185
1.72762e-187
1.77278e-188
5.17935e-189
1.60483e-189
6.63166e-190
1.02287e-189
1.31795e-189
9.90493e-190
1.20146e-189
2.79481e-190
2.68964e-191
1.35097e-193
9.25272e-196
9.60471e-198
2.83738e-199
4.50214e-201
9.51839e-203
1.89076e-204
2.57397e-206
4.32375e-208
1.29632e-209
3.92404e-210
5.94681e-174
4.65247e-175
5.16862e-176
1.61104e-176
4.78846e-177
8.94136e-178
3.17452e-178
9.55177e-179
2.25035e-179
5.66551e-180
9.93684e-181
9.91824e-182
1.39509e-182
7.05458e-184
3.07006e-185
6.03262e-186
1.60604e-186
4.69673e-187
1.49898e-187
4.59516e-188
5.29749e-188
8.9006e-188
3.47871e-188
2.12206e-188
9.37565e-189
1.05538e-189
4.78363e-192
1.12979e-194
6.16832e-197
1.14566e-198
1.51243e-200
2.56979e-202
5.09736e-204
5.9797e-206
1.06439e-207
1.39596e-209
3.35455e-211
5.83649e-174
6.78683e-175
1.0345e-175
4.20342e-176
1.59481e-176
8.00064e-177
3.98498e-177
1.1356e-177
1.66094e-178
1.87392e-179
3.3409e-180
8.8589e-181
1.6178e-181
2.37699e-182
2.82674e-183
8.43275e-184
2.30753e-184
9.78799e-185
2.53612e-185
6.74692e-186
3.10923e-186
3.84647e-186
1.23113e-186
3.74763e-187
2.48941e-187
3.63816e-188
1.49453e-190
1.76904e-193
4.27825e-196
1.80925e-198
2.01745e-200
1.84073e-202
3.51496e-204
2.83138e-206
4.55998e-208
5.37829e-210
6.09265e-212
5.86516e-174
7.57398e-175
7.08226e-176
3.30199e-176
1.66831e-176
6.71421e-177
2.23775e-177
6.79068e-178
2.18219e-178
1.15315e-178
6.51571e-179
2.06067e-179
4.00888e-180
9.96093e-181
3.52274e-181
1.07509e-181
3.05933e-182
1.03571e-182
3.44922e-183
8.70404e-184
2.09397e-184
8.86051e-185
3.02666e-185
5.02907e-186
4.30494e-186
8.27467e-187
4.89425e-189
3.97917e-192
3.2305e-195
2.79227e-198
5.42581e-201
1.55406e-203
1.37887e-205
6.90339e-208
8.56301e-210
9.04094e-212
8.92471e-214
5.72055e-174
2.93987e-174
8.56775e-175
1.79386e-175
4.24982e-176
1.85759e-176
8.95794e-177
5.74843e-177
5.40131e-177
5.58132e-177
5.15918e-177
2.42603e-177
6.20659e-178
1.56849e-178
4.09954e-179
9.79434e-180
2.38966e-180
5.96259e-181
1.59012e-181
4.1148e-182
9.61598e-183
2.82822e-183
7.74994e-184
1.94774e-184
4.57637e-185
6.90261e-186
9.77428e-188
5.29429e-191
2.62196e-194
1.39882e-197
8.32149e-201
6.26478e-204
5.03812e-207
7.14712e-210
4.26733e-212
3.53394e-214
4.40776e-216
1.39237e-173
1.63478e-173
1.24596e-173
7.98983e-174
4.11884e-174
2.41818e-174
1.23409e-174
6.63852e-175
5.17144e-175
4.21374e-175
3.13481e-175
1.80824e-175
1.07467e-175
8.46514e-176
5.71731e-176
2.07531e-176
2.66952e-177
8.57412e-179
5.28257e-181
4.56493e-184
3.72007e-187
2.94594e-190
2.30722e-193
1.86036e-196
2.34379e-199
1.29184e-200
3.69275e-201
2.86206e-201
2.75281e-201
2.73373e-201
2.75573e-201
2.80954e-201
2.8133e-201
2.80923e-201
2.77417e-201
2.62863e-201
2.26971e-201
1.92489e-201
1.03352e-173
1.86458e-174
5.74116e-175
3.30359e-175
1.50314e-175
9.56307e-176
5.40671e-176
3.09801e-176
3.17425e-176
2.21618e-176
1.62367e-176
1.32554e-176
1.15463e-176
1.15581e-176
1.0757e-176
3.07759e-177
1.77892e-178
2.04718e-180
6.64982e-183
1.00606e-185
1.39733e-188
1.93391e-191
2.70922e-194
5.19161e-197
2.49862e-198
2.72307e-199
2.10941e-200
1.88052e-201
7.67608e-202
7.05063e-202
7.29152e-202
7.43205e-202
7.40474e-202
7.30577e-202
7.04512e-202
6.47809e-202
5.6844e-202
4.98576e-202
5.07532e-174
8.08889e-175
1.56054e-175
3.99103e-176
1.02889e-176
1.69441e-176
2.24308e-177
1.92107e-177
1.04929e-177
8.26443e-178
7.57049e-178
8.84693e-178
9.16177e-178
1.09781e-177
6.85468e-178
1.30662e-178
3.39533e-180
2.11968e-182
4.42495e-185
6.43039e-188
8.00894e-191
1.01174e-193
8.48023e-196
2.7627e-196
5.92081e-197
5.49065e-198
3.16381e-199
1.41695e-200
6.81735e-202
1.71849e-202
1.53104e-202
1.56472e-202
1.56703e-202
1.54199e-202
1.44109e-202
1.29209e-202
1.15141e-202
7.71461e-174
2.28172e-174
5.02529e-175
9.49138e-177
7.18312e-178
8.82019e-178
6.19623e-179
3.2658e-179
2.11368e-179
1.95812e-179
1.84503e-179
2.57256e-179
2.89262e-179
4.29238e-179
2.1281e-179
3.02004e-180
4.48179e-182
1.95766e-184
3.3537e-187
4.95136e-190
6.58647e-193
3.01511e-194
1.75477e-194
8.18137e-195
1.84221e-195
1.43021e-196
7.18947e-198
2.9547e-199
8.28452e-201
2.63505e-202
2.43042e-203
1.83547e-203
1.85946e-203
1.82603e-203
1.64101e-203
1.48389e-203
1.31826e-203
6.8978e-174
8.43034e-175
6.54388e-176
2.19771e-177
1.64887e-178
3.07615e-179
3.98837e-180
1.22761e-180
6.8181e-181
6.49305e-181
5.60711e-181
7.69301e-181
1.05564e-180
1.17548e-180
3.95189e-181
4.18814e-182
4.95881e-184
1.89267e-186
3.84244e-189
6.54619e-192
5.3211e-193
5.47041e-193
3.94568e-193
2.47193e-193
5.64627e-194
3.85365e-195
1.71903e-196
6.89755e-198
1.81872e-199
5.55237e-201
1.04813e-202
3.50666e-204
1.19731e-204
1.05394e-204
9.21629e-205
8.289e-205
6.87378e-205
5.39012e-205
6.18618e-174
6.74598e-175
6.56435e-176
5.1127e-177
4.84507e-178
3.38586e-179
3.46266e-180
1.09815e-180
7.0219e-182
3.22765e-182
1.87617e-182
2.49513e-182
3.49485e-182
2.71404e-182
5.98884e-183
4.91306e-184
4.93348e-186
1.90273e-188
6.02657e-191
8.45554e-192
9.31184e-192
9.66317e-192
8.02159e-192
6.58725e-192
1.57646e-192
8.88019e-194
3.45105e-195
1.23038e-196
3.41971e-198
9.47438e-200
2.02929e-201
4.03231e-203
7.56686e-205
6.54815e-206
4.22206e-206
3.45945e-206
2.5919e-206
1.89089e-206
4.85787e-174
3.90831e-175
2.63543e-176
3.22986e-177
7.59088e-178
9.75436e-179
1.21441e-179
1.14567e-180
1.66723e-181
2.6452e-182
4.30359e-183
1.62714e-183
1.01483e-183
5.12654e-184
7.67523e-185
5.48147e-186
5.63105e-188
2.61672e-189
6.98614e-190
2.25901e-190
1.87972e-190
1.92585e-190
1.6698e-190
1.49985e-190
4.23423e-191
2.0664e-192
5.97113e-194
1.66972e-195
4.24563e-197
1.08714e-198
2.43423e-200
4.86858e-202
9.28151e-204
1.45839e-205
4.4371e-207
1.47106e-207
9.59722e-208
3.76032e-174
3.3998e-175
2.16322e-176
4.0628e-177
1.99256e-177
3.91645e-178
7.34904e-179
2.07631e-179
3.87515e-180
9.41161e-181
1.5284e-181
1.69864e-182
2.54618e-183
9.35473e-184
1.2765e-185
2.04165e-186
4.66425e-187
1.32823e-187
3.64177e-188
9.12706e-189
5.74849e-189
6.14535e-189
3.75485e-189
3.11217e-189
1.04653e-189
5.16034e-191
9.5984e-193
1.89299e-194
3.55517e-196
8.56914e-198
1.74557e-199
3.68792e-201
7.14283e-203
1.16993e-204
1.88208e-206
3.47647e-208
4.61155e-209
3.13047e-174
3.13801e-175
3.40427e-176
1.27109e-176
3.10113e-177
2.96209e-178
5.76379e-179
1.14365e-179
2.54911e-180
6.3162e-181
1.7353e-181
2.33299e-182
3.92308e-183
1.00801e-183
3.6871e-184
1.25711e-184
3.59805e-185
1.2022e-185
3.54854e-186
8.33157e-187
3.40202e-187
2.61955e-187
9.9658e-188
5.68106e-188
2.42691e-188
1.37318e-189
1.64178e-191
1.74323e-193
2.08247e-195
3.64322e-197
6.10377e-199
1.08365e-200
1.96397e-202
2.96063e-204
4.76258e-206
6.92419e-208
1.14947e-209
2.61351e-174
3.43077e-175
6.7684e-176
2.73485e-176
9.17516e-177
2.80106e-177
7.387e-178
1.58905e-178
4.47796e-179
1.83201e-179
7.21995e-180
2.00954e-180
3.77101e-181
7.93628e-182
2.99071e-182
1.322e-182
4.03099e-183
1.46037e-183
4.57894e-184
1.11266e-184
3.08236e-185
1.29038e-185
3.17294e-186
1.05225e-186
5.49866e-187
3.51305e-188
2.76031e-190
1.58242e-192
9.47972e-195
7.27095e-197
7.96292e-199
9.52722e-201
1.40254e-202
1.61879e-204
2.23231e-206
2.80141e-208
3.35664e-210
2.73806e-174
3.46802e-175
5.76029e-176
1.98507e-176
9.41197e-177
3.62083e-177
1.49503e-177
8.02692e-178
5.60797e-178
4.25536e-178
2.47611e-178
9.00041e-179
2.16889e-179
5.48864e-180
1.88124e-180
6.1384e-181
1.84805e-181
5.88349e-182
2.00323e-182
5.18333e-183
1.28707e-183
3.93537e-184
7.24118e-185
1.64171e-185
9.83742e-186
8.07653e-187
3.31702e-189
8.59206e-192
2.04435e-194
4.91399e-197
1.86387e-199
8.83441e-202
7.14852e-204
4.79919e-206
5.29361e-208
5.50591e-210
5.80028e-212
4.46124e-174
2.12724e-174
6.25759e-175
1.35549e-175
3.59243e-176
1.74883e-176
9.31309e-177
6.78749e-177
6.74173e-177
6.99199e-177
6.63955e-177
3.7182e-177
1.09708e-177
2.90839e-178
7.57588e-179
1.87605e-179
4.71252e-180
1.20604e-180
3.55859e-181
8.92666e-182
2.27345e-182
7.32737e-183
1.82163e-183
4.45026e-184
8.72051e-185
7.30422e-186
2.38302e-188
3.46015e-191
4.6551e-194
6.00435e-197
7.47689e-200
9.69203e-203
1.47799e-205
3.74319e-208
2.79824e-210
2.48384e-212
2.63551e-214
8.81787e-174
1.08267e-173
7.73871e-174
6.12405e-174
3.95136e-174
1.87088e-174
1.11391e-174
6.25125e-175
5.06429e-175
3.93741e-175
2.58914e-175
1.54603e-175
1.05964e-175
7.82474e-176
4.54301e-176
1.25556e-176
1.01402e-177
1.97135e-179
6.32128e-182
5.62038e-185
4.95723e-188
4.5322e-191
4.21021e-194
4.20338e-197
4.52587e-199
6.47714e-200
7.78551e-201
2.8139e-201
2.3836e-201
2.36811e-201
2.38137e-201
2.40555e-201
2.39775e-201
2.36909e-201
2.29815e-201
2.12355e-201
1.83013e-201
1.55478e-201
4.61961e-174
8.30374e-175
2.83954e-175
2.199e-175
1.76544e-175
6.71725e-176
7.39909e-176
3.1037e-176
3.1116e-176
2.33441e-176
1.68804e-176
1.52743e-176
1.2727e-176
1.30447e-176
8.58221e-177
1.55889e-177
5.54368e-179
4.84163e-181
1.47297e-183
3.28943e-186
6.90108e-189
1.44111e-191
3.0349e-194
1.17422e-196
1.20527e-197
1.66845e-198
1.37484e-199
9.16263e-201
1.197e-201
7.49767e-202
7.42239e-202
7.54251e-202
7.45194e-202
7.27865e-202
6.93621e-202
6.28891e-202
5.45345e-202
4.75801e-202
3.02339e-174
1.02618e-174
1.02564e-175
1.47471e-176
1.74003e-176
5.50725e-177
2.47475e-177
9.63422e-178
1.01306e-177
9.61737e-178
7.7139e-178
9.14472e-178
7.97774e-178
9.81296e-178
4.90057e-178
5.34131e-179
1.04066e-180
5.97183e-183
1.57352e-185
3.32112e-188
6.22717e-191
1.21624e-193
3.21046e-195
1.19704e-195
2.72919e-196
3.36544e-197
2.27899e-198
1.14535e-199
4.93933e-201
3.56463e-202
1.93277e-202
1.90221e-202
1.86138e-202
1.79766e-202
1.66104e-202
1.47409e-202
1.28972e-202
4.79481e-174
1.51308e-174
1.56462e-175
2.7574e-177
6.91818e-178
2.75811e-178
7.23251e-179
3.44758e-179
2.71509e-179
2.34373e-179
2.15295e-179
2.65809e-179
2.50876e-179
3.67123e-179
1.48081e-179
1.07572e-180
1.47638e-182
7.11842e-185
1.94741e-187
4.28711e-190
9.51204e-193
1.19105e-193
6.73501e-194
3.3115e-194
7.85416e-195
8.53868e-196
5.28106e-197
2.42298e-198
8.28292e-200
2.37473e-201
8.5513e-203
2.89022e-203
2.58022e-203
2.46452e-203
2.19317e-203
1.92928e-203
1.67155e-203
3.60674e-174
3.92373e-175
2.0907e-176
1.12895e-177
1.21882e-178
2.39951e-179
4.58649e-180
1.69034e-180
1.02013e-180
7.51546e-181
6.93801e-181
8.68149e-181
8.92686e-181
9.35649e-181
2.77142e-181
1.55243e-182
1.87659e-184
9.44972e-187
3.22922e-189
1.07975e-191
2.05088e-192
2.22324e-192
1.39512e-192
8.84404e-193
2.20647e-193
2.17945e-194
1.28576e-195
5.86068e-197
1.9186e-198
5.54893e-200
1.25632e-201
2.78725e-203
2.53091e-204
1.70164e-204
1.46798e-204
1.24477e-204
1.01514e-204
8.20157e-205
3.54789e-174
3.00259e-175
1.53361e-176
1.62478e-177
2.16145e-178
1.84604e-179
1.68024e-180
2.13252e-181
4.03129e-182
2.2698e-182
2.17363e-182
3.50928e-182
2.67132e-182
2.20089e-182
4.39366e-183
2.05141e-184
2.339e-186
1.37703e-188
1.83183e-190
4.57156e-191
3.7365e-191
3.87215e-191
2.59e-191
1.94956e-191
5.41983e-192
4.49885e-193
2.45065e-194
1.06647e-195
3.53117e-197
1.0116e-198
2.41218e-200
5.11845e-202
9.4994e-204
2.76689e-205
9.21464e-206
6.98543e-206
5.17308e-206
3.81153e-206
2.74807e-174
1.69205e-175
1.21988e-176
2.28508e-177
5.60633e-178
4.61067e-179
4.90378e-180
4.00414e-181
3.60687e-182
4.86965e-183
1.53924e-183
1.56014e-183
7.46455e-184
4.26988e-184
6.21513e-185
2.91176e-186
1.01539e-187
1.83435e-188
4.8041e-189
1.27854e-189
7.7501e-190
7.21107e-190
4.76626e-190
3.67043e-190
1.24024e-190
8.07102e-192
3.64849e-193
1.41584e-194
4.42072e-196
1.22234e-197
2.93965e-199
6.3915e-201
1.24988e-202
2.16471e-204
4.06959e-206
4.81403e-207
2.8053e-207
1.96892e-174
1.73221e-175
1.50838e-176
2.12448e-177
7.77072e-178
1.2152e-178
1.74377e-179
3.86975e-180
5.07281e-181
8.10117e-182
1.40829e-182
2.0447e-183
4.35605e-184
1.8314e-184
3.36244e-185
1.03991e-185
2.99597e-186
8.3226e-187
2.21921e-187
5.11331e-188
2.2137e-188
1.79927e-188
9.33712e-189
6.4201e-189
2.64679e-189
1.30908e-190
4.3076e-192
1.40315e-193
3.76572e-195
9.76267e-197
2.22271e-198
4.8748e-200
9.73929e-202
1.74384e-203
2.92472e-205
4.79523e-207
2.37485e-208
1.58419e-174
1.79035e-175
2.89603e-176
7.5612e-177
1.47356e-177
1.5934e-178
3.01467e-179
7.7323e-180
2.48809e-180
7.68598e-181
2.97708e-181
7.57734e-182
1.86181e-182
5.01878e-183
1.74929e-183
5.94947e-184
1.8747e-184
5.93803e-185
1.74638e-185
4.08187e-186
1.28646e-186
6.72811e-187
2.3152e-187
1.12363e-187
5.46626e-188
1.9883e-189
4.12424e-191
9.41284e-193
1.96316e-194
4.24388e-196
8.26188e-198
1.56461e-199
2.86616e-201
4.77851e-203
7.76984e-205
1.19664e-206
1.84651e-208
1.24597e-174
2.2413e-175
5.99193e-176
1.81286e-176
4.55518e-177
1.43005e-177
4.30185e-178
1.89408e-178
1.03894e-178
5.00888e-179
2.50975e-179
7.46007e-180
1.87535e-180
4.40962e-181
1.36708e-181
5.08829e-182
1.60751e-182
5.3641e-183
1.71175e-183
4.23001e-184
1.08946e-184
3.43165e-185
7.68791e-186
2.38793e-186
1.11944e-186
3.1486e-188
3.51485e-190
4.12857e-192
5.48178e-194
7.75905e-196
1.10869e-197
1.58125e-199
2.32217e-201
3.05668e-203
4.15024e-205
5.42125e-207
6.87681e-209
1.28932e-174
2.35596e-175
5.84845e-176
1.51761e-176
6.16584e-177
3.30337e-177
2.00562e-177
1.55034e-177
1.21143e-177
9.19289e-178
6.17848e-178
2.54988e-178
7.48403e-179
1.94289e-179
5.62192e-180
1.72176e-180
5.21162e-181
1.63076e-181
5.50476e-182
1.48299e-182
3.79583e-183
1.06203e-183
1.7679e-184
4.20248e-185
2.0118e-185
6.33076e-187
3.11787e-189
1.37544e-191
6.89688e-194
3.78006e-196
2.5147e-198
1.71056e-200
1.49e-202
1.18916e-204
1.22352e-206
1.30219e-208
1.46959e-210
3.03864e-174
1.35446e-174
3.98771e-175
9.29346e-176
2.85613e-176
1.60493e-176
1.00725e-176
8.65721e-177
8.86744e-177
9.27697e-177
9.05523e-177
6.08288e-177
2.12611e-177
6.05446e-178
1.61005e-178
4.09381e-179
1.03513e-179
2.68672e-180
8.06278e-181
2.07204e-181
5.57713e-182
1.77687e-182
4.33153e-183
1.04673e-183
1.71356e-184
6.45985e-186
1.43206e-188
2.37824e-191
3.66367e-194
7.07092e-197
1.39831e-199
3.6142e-202
1.36984e-204
7.1996e-207
6.67515e-209
6.61425e-211
7.01885e-213
4.61142e-174
6.83112e-174
5.37875e-174
4.60265e-174
3.28614e-174
1.50597e-174
9.00174e-175
5.97413e-175
5.07682e-175
3.69668e-175
2.3061e-175
1.51384e-175
9.52706e-176
5.54568e-176
2.45032e-176
4.37143e-177
1.90245e-178
2.06231e-180
2.96795e-183
3.48171e-186
3.73993e-189
3.96365e-192
4.16564e-195
1.03334e-197
1.38541e-198
2.36781e-199
2.39033e-200
3.84008e-201
2.3016e-201
2.19728e-201
2.20332e-201
2.20343e-201
2.17995e-201
2.12891e-201
2.0513e-201
1.89135e-201
1.65157e-201
1.4165e-201
1.98815e-174
6.62053e-175
2.09274e-175
1.83212e-175
1.20579e-175
5.95217e-176
5.60364e-176
3.64498e-176
3.50941e-176
2.65588e-176
2.10222e-176
1.83783e-176
1.37226e-176
9.15017e-177
3.98935e-177
4.23165e-178
9.07757e-180
6.01631e-182
1.9216e-184
5.34537e-187
1.41651e-189
3.72843e-192
1.02319e-194
1.76412e-196
3.77051e-197
6.11076e-198
5.52889e-199
3.73409e-200
2.74146e-201
8.5092e-202
7.50651e-202
7.57492e-202
7.4369e-202
7.2119e-202
6.81968e-202
6.13818e-202
5.30969e-202
4.61331e-202
1.66896e-174
6.48355e-175
4.46483e-176
8.32033e-177
6.62902e-177
2.636e-177
1.83674e-177
1.10089e-177
1.28647e-177
1.08549e-177
8.47492e-178
9.2375e-178
6.16283e-178
5.22435e-178
1.87193e-178
1.22081e-179
1.70739e-181
8.85353e-184
2.71774e-186
6.92496e-189
1.64432e-191
5.15697e-194
8.02564e-195
3.13508e-195
7.99182e-196
1.19181e-196
9.17618e-198
5.11538e-199
2.29116e-200
1.02491e-201
2.46601e-202
2.11205e-202
2.05032e-202
1.95062e-202
1.78231e-202
1.56541e-202
1.35417e-202
1.78195e-174
2.48337e-175
1.99542e-176
1.06088e-177
3.61965e-178
1.66898e-178
7.52024e-179
4.69338e-179
3.98021e-179
2.91537e-179
2.22886e-179
2.81022e-179
1.93316e-179
1.77134e-179
5.16686e-180
2.27154e-181
2.52819e-183
1.21892e-185
3.86462e-188
9.91292e-191
4.57666e-193
2.57896e-193
1.66342e-193
7.88032e-194
2.10448e-194
2.86491e-195
2.0081e-196
1.00931e-197
3.7762e-199
1.11845e-200
3.20804e-202
4.27414e-203
3.18939e-203
2.95331e-203
2.5827e-203
2.21539e-203
1.88374e-203
9.05032e-175
8.36565e-176
7.49659e-177
6.41246e-178
9.50799e-179
2.09947e-179
5.44408e-180
2.48385e-180
1.60174e-180
9.86534e-181
6.64961e-181
8.22836e-181
5.3249e-181
4.10535e-181
9.19606e-182
3.33196e-183
3.55357e-185
1.93597e-187
7.76922e-190
7.41894e-192
4.35211e-192
4.79059e-192
3.27289e-192
1.97111e-192
5.6435e-193
7.16916e-194
4.88975e-195
2.42464e-196
8.71316e-198
2.5768e-199
6.29717e-201
1.3776e-202
5.49018e-204
2.39984e-204
1.97508e-204
1.60909e-204
1.29254e-204
1.01698e-204
1.44719e-174
9.00809e-176
6.23318e-177
7.06302e-178
1.30955e-178
1.32386e-179
1.33063e-180
1.77153e-181
5.92639e-182
3.0085e-182
2.07292e-182
2.77965e-182
1.4256e-182
9.01748e-183
1.43944e-183
4.76097e-185
5.20319e-187
4.96061e-189
4.44306e-190
1.29233e-190
8.54052e-191
8.42156e-191
5.82713e-191
4.04734e-191
1.32157e-191
1.47211e-192
9.58237e-194
4.62145e-195
1.66349e-196
4.92081e-198
1.22925e-199
2.7155e-201
5.26849e-203
1.11534e-204
1.62333e-205
1.08362e-205
8.08557e-206
5.7482e-206
1.04186e-174
6.2643e-176
6.60817e-177
1.13455e-177
2.87207e-178
2.65147e-179
2.87143e-180
2.46811e-181
2.40207e-182
3.65027e-183
1.32168e-183
1.06138e-183
3.99392e-184
1.74546e-184
2.38986e-185
1.55177e-186
2.53887e-187
6.30315e-188
1.60977e-188
3.97736e-189
1.85369e-189
1.53908e-189
1.02926e-189
7.09406e-190
2.84877e-190
2.5307e-191
1.44586e-192
6.41523e-194
2.19792e-195
6.33814e-197
1.57785e-198
3.52577e-200
7.10132e-202
1.29648e-203
2.28505e-205
1.1699e-206
5.3924e-207
8.43107e-175
8.7487e-176
1.03502e-176
1.18594e-177
2.70435e-178
4.44615e-179
7.18655e-180
1.37005e-180
2.82689e-181
5.54211e-182
1.54896e-182
4.03325e-183
1.06786e-183
2.87383e-184
9.81211e-185
3.25222e-185
1.00153e-185
2.78257e-186
7.3212e-187
1.66471e-187
5.65868e-188
3.7643e-188
2.0304e-188
1.18821e-188
5.69844e-189
3.75717e-190
1.70665e-191
6.609e-193
1.99724e-194
5.38916e-196
1.27095e-197
2.80179e-199
5.71864e-201
1.06513e-202
1.8527e-204
3.06541e-206
8.47489e-208
8.1668e-175
1.19427e-175
2.37492e-176
4.10214e-177
6.50177e-178
1.29532e-178
3.42387e-179
1.22821e-179
5.21598e-180
1.84104e-180
7.36394e-181
2.12527e-181
5.70725e-182
1.54134e-182
5.31687e-183
1.87499e-183
6.10759e-184
1.89804e-184
5.6418e-185
1.35566e-185
3.73771e-186
1.5646e-186
5.5004e-187
2.22292e-187
1.10245e-187
4.85011e-189
1.55601e-190
4.66203e-192
1.13019e-193
2.61926e-195
5.34932e-197
1.03206e-198
1.89664e-200
3.27217e-202
5.42124e-204
8.56615e-206
1.33421e-207
6.6372e-175
1.6856e-175
5.02181e-176
1.19015e-176
2.8585e-177
1.18852e-177
4.8374e-178
3.08513e-178
1.77078e-178
9.32976e-179
4.92813e-179
1.69394e-179
4.77902e-180
1.23888e-180
3.91935e-181
1.41111e-181
4.6275e-182
1.50851e-182
4.83321e-183
1.23863e-183
3.07506e-184
8.23373e-185
2.00952e-185
5.39754e-186
2.19675e-186
5.86501e-188
1.15079e-189
2.07289e-191
3.50471e-193
5.68486e-195
8.46577e-197
1.24017e-198
1.82222e-200
2.51129e-202
3.42783e-204
4.54425e-206
5.97931e-208
6.34256e-175
1.74304e-175
5.68822e-176
1.37844e-176
5.76205e-177
3.7745e-177
2.65397e-177
2.31914e-177
1.84536e-177
1.42632e-177
1.00276e-177
4.66919e-178
1.52696e-178
4.23234e-179
1.22719e-179
3.82257e-180
1.2073e-180
3.86442e-181
1.30015e-181
3.65721e-182
9.64334e-183
2.46937e-183
4.79347e-184
1.01734e-184
4.10107e-185
8.7569e-187
9.28314e-189
6.97525e-191
5.03652e-193
3.74087e-195
2.54452e-197
1.79843e-199
1.49281e-201
1.23212e-203
1.20556e-205
1.25683e-207
1.4848e-209
2.04934e-174
8.66516e-175
2.69923e-175
6.92319e-176
2.47885e-176
1.54037e-176
1.09362e-176
1.03517e-176
1.08135e-176
1.14219e-176
1.12463e-176
8.36168e-177
3.31467e-177
1.02296e-177
2.87456e-178
7.81849e-179
2.10138e-179
5.73703e-180
1.75634e-180
4.68933e-181
1.3153e-181
4.11092e-182
1.01996e-182
2.45151e-183
3.64927e-184
7.85157e-186
4.1008e-188
1.42991e-190
3.29321e-193
7.98495e-196
1.73917e-198
4.58827e-201
1.57346e-203
8.20106e-206
7.01582e-208
6.8822e-210
7.93708e-212
4.36688e-174
5.25295e-174
3.02397e-174
2.65626e-174
2.15769e-174
1.12321e-174
7.60037e-175
5.89137e-175
5.10603e-175
3.46121e-175
2.2743e-175
1.40037e-175
6.5638e-176
2.60712e-176
7.98082e-177
8.15938e-178
1.8245e-179
9.85809e-182
1.40762e-184
1.79493e-187
2.11615e-190
2.46926e-193
3.26521e-196
1.41324e-197
3.53271e-198
6.53202e-199
6.69084e-200
6.99915e-201
2.44822e-201
2.13434e-201
2.12166e-201
2.10638e-201
2.06449e-201
2.01299e-201
1.94702e-201
1.80898e-201
1.59611e-201
1.38039e-201
8.8207e-175
3.3144e-175
1.10141e-175
1.10705e-175
9.56252e-176
5.56766e-176
5.6185e-176
4.28563e-176
4.06719e-176
3.29283e-176
2.88197e-176
2.21677e-176
9.03344e-177
3.65454e-177
1.05958e-177
6.39674e-179
9.12904e-181
5.00044e-183
1.84796e-185
6.16193e-188
1.96495e-190
6.21024e-193
2.83489e-195
3.43273e-196
9.22047e-197
1.66875e-197
1.63968e-198
1.15091e-199
7.07339e-201
1.07979e-201
7.71643e-202
7.64955e-202
7.47552e-202
7.21474e-202
6.78703e-202
6.08253e-202
5.25887e-202
4.54208e-202
6.1281e-175
2.29684e-175
2.45303e-176
5.35808e-177
4.09014e-177
2.16254e-177
2.00787e-177
1.4732e-177
1.70972e-177
1.56152e-177
1.05939e-177
9.28155e-178
3.45291e-178
1.69317e-178
4.217e-179
1.66637e-180
1.83243e-182
9.28326e-185
3.31096e-187
1.00541e-189
2.94888e-192
2.8615e-194
1.64297e-194
6.51849e-195
1.84115e-195
3.15651e-196
2.69601e-197
1.60979e-198
7.39793e-200
2.95299e-201
3.34471e-202
2.29577e-202
2.19639e-202
2.0647e-202
1.86649e-202
1.622e-202
1.38641e-202
7.16978e-175
8.33509e-176
7.75954e-177
7.54794e-178
2.68651e-178
1.40496e-178
8.72587e-179
6.34279e-179
6.05762e-179
4.21533e-179
2.43403e-179
2.68988e-179
9.915e-180
5.22695e-180
1.05539e-180
3.00058e-182
2.90824e-184
1.44162e-186
5.1005e-189
1.50929e-191
3.5256e-193
3.76731e-193
3.15792e-193
1.4858e-193
4.45146e-194
7.17892e-195
5.49682e-196
2.90538e-197
1.12205e-198
3.39241e-200
9.22759e-202
6.38981e-203
3.79293e-203
3.40317e-203
2.92696e-203
2.45302e-203
2.04156e-203
3.48659e-175
4.34488e-176
5.16153e-177
4.73452e-178
7.11941e-179
1.70272e-179
6.17559e-180
3.32302e-180
2.55476e-180
1.35361e-180
6.13074e-181
5.98391e-181
2.2893e-181
1.11957e-181
1.77735e-182
4.54807e-184
4.39626e-186
2.4452e-188
1.25321e-190
8.6118e-192
6.26594e-192
6.91922e-192
6.04838e-192
3.53263e-192
1.16688e-192
1.79949e-193
1.33643e-194
6.85744e-196
2.52127e-197
7.39386e-199
1.82276e-200
3.96453e-202
1.14202e-203
3.25656e-204
2.51874e-204
2.00553e-204
1.57587e-204
1.20244e-204
6.00489e-175
4.71005e-176
4.25493e-177
4.09555e-178
6.70496e-179
7.87489e-180
9.79257e-181
2.04827e-181
9.40953e-182
3.94933e-182
1.59575e-182
1.52946e-182
5.44208e-183
2.26929e-183
2.71894e-184
6.84656e-186
8.45939e-188
4.2553e-189
9.50885e-190
2.5687e-190
1.35816e-190
1.23228e-190
1.08695e-190
7.11952e-191
2.77021e-191
3.90538e-192
2.81328e-193
1.40379e-194
5.11417e-196
1.48868e-197
3.67958e-199
8.02808e-201
1.55995e-202
3.03785e-204
2.53662e-205
1.48363e-205
1.10137e-205
7.65391e-206
4.26812e-175
3.42437e-176
4.15941e-177
5.63388e-178
1.33775e-178
1.47605e-179
1.73244e-180
1.78572e-181
2.58087e-182
5.50911e-183
1.55736e-183
6.78658e-184
2.09711e-184
6.56896e-185
1.10687e-185
2.16417e-186
5.67446e-187
1.48213e-187
3.79412e-188
8.93149e-189
3.24281e-189
2.27596e-189
1.96719e-189
1.24715e-189
5.99249e-190
7.18124e-191
4.69343e-192
2.16695e-193
7.5053e-195
2.13126e-196
5.21285e-198
1.13972e-199
2.2599e-201
4.13438e-203
7.20631e-205
2.3557e-206
8.0794e-207
4.48094e-175
5.45902e-176
7.36449e-177
7.59588e-178
1.27515e-178
2.47298e-179
5.00323e-180
1.20909e-180
3.48119e-181
9.57567e-182
2.91508e-182
8.35131e-183
2.37107e-183
6.76624e-184
2.30045e-184
7.729e-185
2.41071e-185
6.7797e-186
1.81548e-186
4.10153e-187
1.13216e-187
5.78924e-188
4.16354e-188
2.1851e-188
1.16932e-188
1.16075e-189
6.31701e-191
2.53021e-192
7.71401e-194
2.03642e-195
4.70304e-197
9.9802e-199
1.98379e-200
3.68956e-202
6.44618e-204
1.07177e-205
2.28291e-207
5.81232e-175
8.61312e-176
1.76603e-176
2.51756e-177
4.22732e-178
1.24982e-178
4.05492e-179
1.78406e-179
7.91606e-180
3.1315e-180
1.26652e-180
4.08344e-181
1.17007e-181
3.42684e-182
1.23496e-182
4.56954e-183
1.53437e-183
4.82679e-184
1.45001e-184
3.54794e-185
8.78576e-186
2.99954e-186
1.26137e-186
4.55268e-187
2.26188e-187
1.75008e-188
7.02144e-190
2.16541e-191
5.25804e-193
1.18306e-194
2.35243e-196
4.40334e-198
7.85879e-200
1.33758e-201
2.19666e-203
3.47153e-205
5.41356e-207
4.58577e-175
1.26617e-175
4.01057e-176
8.69043e-177
2.38569e-177
1.20316e-177
5.82335e-178
4.15468e-178
2.50909e-178
1.38221e-178
7.42331e-179
2.81336e-179
8.57033e-180
2.44831e-180
8.12502e-181
3.03033e-181
1.05454e-181
3.49294e-182
1.12544e-182
3.01734e-183
7.31291e-184
1.70887e-184
4.94395e-185
1.1827e-185
4.61547e-186
2.73061e-187
6.92167e-189
1.28097e-190
2.1115e-192
3.30743e-194
4.69967e-196
6.57251e-198
9.24116e-200
1.2699e-201
1.71376e-203
2.25873e-205
3.00425e-207
4.03495e-175
1.36064e-175
5.2706e-176
1.40575e-176
6.20664e-177
4.40382e-177
3.24448e-177
2.92101e-177
2.4192e-177
1.87183e-177
1.33789e-177
6.71133e-178
2.35024e-178
6.91895e-179
2.07735e-179
6.81714e-180
2.30604e-180
7.74591e-181
2.65001e-181
7.85e-182
2.13363e-182
5.20328e-183
1.22832e-183
2.19257e-184
8.7666e-185
4.74401e-186
7.42007e-188
5.71267e-190
4.15504e-192
3.23318e-194
2.06457e-196
1.35449e-198
1.02577e-200
8.3926e-203
7.48557e-205
7.34859e-207
8.58309e-209
1.32086e-174
5.57429e-175
2.01862e-175
5.88305e-176
2.37303e-176
1.53912e-176
1.19574e-176
1.17674e-176
1.25037e-176
1.32086e-176
1.30105e-176
1.01312e-176
4.34734e-177
1.42069e-177
4.17191e-178
1.20877e-178
3.52074e-179
1.04178e-179
3.35413e-180
9.62881e-181
2.8082e-181
8.6366e-182
2.22449e-182
5.412e-183
8.30795e-184
4.06934e-185
4.42038e-187
1.84852e-189
4.50521e-192
9.92968e-195
1.99678e-197
4.63007e-200
1.31936e-202
6.26141e-205
4.54574e-207
4.27293e-209
4.98038e-211
3.46958e-174
4.20475e-174
1.31289e-174
1.34427e-174
1.31479e-174
9.27608e-175
6.7858e-175
5.96536e-175
5.09699e-175
3.35003e-175
2.24232e-175
1.06065e-175
3.17512e-176
7.85213e-177
1.59987e-177
8.47737e-179
9.60535e-181
3.34408e-183
5.60196e-186