/*--------------------------------*- C++ -*----------------------------------*\
| =========                 |                                                 |
| \\      /  F ield         | OpenFOAM: The Open Source CFD Toolbox           |
|  \\    /   O peration     | Version:  2.3.1                                 |
|   \\  /    A nd           | Web:      www.OpenFOAM.org                      |
|    \\/     M anipulation  |                                                 |
\*---------------------------------------------------------------------------*/
FoamFile
{
    version     2.0;
    format      ascii;
    class       volVectorField;
    location    "15";
    object      U;
}
// * * * * * * * * * * * * * * * * * * * * * * * * * * * * * * * * * * * * * //

dimensions      [0 1 -1 0 0 0 0];

internalField   nonuniform List<vector> 
37632
(
(4.33553 -8.05484 -4.42073)
(1.45666 -5.64482 -1.10139)
(2.11391 -3.85116 -0.0866601)
(1.84549 -2.39227 0.0372295)
(1.35276 -1.4164 0.0277137)
(1.57288 -0.882384 0.0308412)
(0.945686 -0.526015 0.0918847)
(1.05259 -0.466457 0.0261796)
(0.72478 -0.358043 0.066613)
(0.778577 -0.337743 0.0185145)
(0.787502 -0.242775 0.0218344)
(0.648131 -0.198825 0.0415495)
(0.527535 -0.217064 0.0284224)
(0.603674 -0.247174 -0.00305544)
(0.716364 -0.109836 -0.00418347)
(0.536998 0.0774508 0.0114779)
(0.216753 0.10092 0.0245331)
(0.068812 0.0371728 0.0147511)
(0.0236544 0.0116034 0.00329264)
(-0.0122079 0.00144335 0.00517216)
(-0.0166713 -0.00154594 -0.000269602)
(-0.0195555 -0.00252097 0.0026668)
(-0.0253304 -0.00516369 0.000569163)
(-0.0129076 -0.00353205 0.000123537)
(-0.0184121 -0.00566927 0.000957999)
(-0.0029567 -0.00440605 -0.00131371)
(-0.00300673 -0.00469677 0.00121012)
(0.00750513 -0.00464175 -0.000364908)
(0.011425 -0.00515309 -0.000117775)
(0.0212024 -0.00563864 -0.000562647)
(0.029365 -0.00592991 -0.00014942)
(0.0350217 -0.00652887 0.000654527)
(0.0406578 -0.00671673 0.000201117)
(0.0479751 -0.00582976 -8.11811e-06)
(0.0524022 -0.00572739 0.000784004)
(0.0558574 -0.00491222 0.000460863)
(0.0619044 -0.00278268 -0.00123748)
(0.0696058 -0.00271708 -0.00187986)
(-0.572912 3.29814 -0.329451)
(-1.59295 3.27373 -1.58125)
(-2.24544 1.90359 -0.289218)
(-0.995461 0.573896 -0.364509)
(-0.433927 0.233215 -0.0536339)
(-1.06862 0.591303 -0.222327)
(-0.257496 -0.237022 -0.10044)
(-0.625739 0.444382 -0.0794941)
(-0.376196 -0.0822837 0.0335364)
(-0.384507 0.165019 -0.0582001)
(-0.246619 0.0331946 -0.0373221)
(-0.229734 0.0855728 -0.0455581)
(-0.0970642 0.0861234 -0.0399442)
(-0.185827 0.116569 -0.0355763)
(-0.0652382 0.119318 -0.0217733)
(-0.0744395 0.165912 -0.0105418)
(-0.0357507 0.0947615 0.0110699)
(-0.071585 0.040383 0.00357254)
(-0.0291789 0.0277831 0.000515472)
(-0.0848562 0.00176817 0.00476882)
(-0.0585878 0.0035637 -0.000556144)
(-0.0743666 -0.00767423 0.00187766)
(-0.0673702 -0.00630897 0.000238812)
(-0.0634533 -0.00638014 -6.67297e-05)
(-0.0611476 -0.0103242 0.000384114)
(-0.0516955 -0.00637158 0.00113284)
(-0.0525257 -0.0129288 -7.36452e-05)
(-0.038045 -0.00830879 0.000585294)
(-0.037306 -0.00917075 -0.000312881)
(-0.02743 -0.00968942 0.000515257)
(-0.0229921 -0.00808524 -0.00102087)
(-0.0140557 -0.00765732 -0.000580673)
(-0.00858617 -0.00684827 -0.00079861)
(-0.000950884 -0.00580762 -0.00104178)
(0.00563353 -0.00462377 -0.00126457)
(0.012804 -0.00368583 -0.00125315)
(0.0197248 -0.00294482 -0.000771043)
(0.0259858 -0.00249842 -0.000476876)
(-1.02795 2.78893 -0.404468)
(-1.90423 2.25901 -0.573912)
(-0.196723 -0.437712 0.257814)
(0.000311584 -1.32099 -0.137921)
(-0.293761 -0.76352 0.132553)
(-0.876134 0.660896 -0.0386292)
(0.28283 -0.688976 -0.147448)
(-0.470492 0.0543792 0.0560076)
(0.0593157 -0.394859 -0.0748379)
(-0.193816 -0.193004 0.0300547)
(-0.178074 -0.131151 0.00666265)
(-0.150203 -0.0960313 -0.00151197)
(-0.183394 -0.0284423 -0.00656875)
(-0.0912687 -0.0161783 0.0052612)
(-0.180315 -0.0448574 -0.00536016)
(-0.0602355 0.117655 -0.000411115)
(-0.0941314 0.0360139 0.00716043)
(-0.0757543 0.0239452 -0.0032955)
(-0.0743411 0.0144448 0.00752306)
(-0.0801097 0.00246607 -0.00492863)
(-0.0881456 -0.00921062 0.00365079)
(-0.0713408 -0.00748381 -0.00310278)
(-0.0899137 -0.0144814 0.00194734)
(-0.0684366 -0.010041 -0.00303474)
(-0.0787544 -0.0182329 0.00107695)
(-0.0623821 -0.0162152 -0.000612977)
(-0.0694412 -0.0171874 -0.00128384)
(-0.0516375 -0.0193107 0.000709224)
(-0.056708 -0.0136861 -0.00248053)
(-0.0452377 -0.0187973 0.000900731)
(-0.0445704 -0.0130038 -0.00255237)
(-0.0342678 -0.0155622 0.000438778)
(-0.0343865 -0.0135439 -0.00124201)
(-0.0251954 -0.0121867 -0.00166677)
(-0.0216329 -0.010911 -0.000871725)
(-0.0163266 -0.0104601 -0.000810187)
(-0.0115305 -0.00955104 -0.00101312)
(-0.962669 2.92955 -0.343341)
(0.134112 0.274315 0.0516012)
(0.307719 0.200192 -0.034635)
(-0.859235 0.743038 -0.224315)
(-0.444537 0.272147 -0.122827)
(-0.0467637 -0.227955 0.0974488)
(-0.371889 0.167958 0.0138504)
(-0.180763 -0.00502889 0.0422634)
(-0.27196 0.0211019 -0.0469601)
(-0.203593 0.170684 0.00682054)
(-0.212095 -0.0142934 -0.0104472)
(-0.210941 0.0686831 -0.0136488)
(-0.14895 0.0397931 0.00227003)
(-0.184928 0.0521862 0.00201564)
(-0.131017 0.0760593 -0.0203518)
(-0.131959 0.0410851 0.0105976)
(-0.0930542 0.0482266 -0.00343507)
(-0.0946127 0.029298 -0.00331457)
(-0.0882761 -0.000527987 0.00584282)
(-0.0898302 0.0274511 -0.00748541)
(-0.0870075 -0.0116209 0.00180351)
(-0.0865557 0.00132186 -6.50529e-05)
(-0.0901726 -0.010519 -0.00180065)
(-0.0760947 -0.00618947 -0.000808811)
(-0.0853187 -0.0169439 -0.000820756)
(-0.0644447 -0.0118722 0.000807254)
(-0.0813002 -0.0165036 -0.00231971)
(-0.0506972 -0.0192707 -0.00186317)
(-0.0700612 -0.00486179 0.000727824)
(-0.0470578 -0.0211593 -0.00256967)
(-0.0542551 -0.00633949 0.000107842)
(-0.0407137 -0.0156727 -0.000523335)
(-0.045697 -0.00799113 -0.00167304)
(-0.0327137 -0.00850205 -0.00179464)
(-0.0330946 -0.00749545 -0.000566488)
(-0.0285522 -0.00802339 -0.00135222)
(-0.0237734 -0.0058545 -0.00179744)
(-0.761547 2.73058 -0.34803)
(0.16145 -0.478662 0.00862134)
(-0.10851 0.268196 0.0122796)
(-0.425639 -0.0941793 0.0269569)
(-0.109991 -0.590164 -0.0115899)
(-0.29394 0.0138966 -0.0247848)
(0.032386 -0.472666 -0.0609607)
(-0.26149 -0.132972 -0.019007)
(-0.0930955 -0.181277 -0.028767)
(-0.257302 -0.130841 -0.000628211)
(-0.091339 -0.0807114 -0.0398511)
(-0.214158 -0.052609 0.0114186)
(-0.116493 -0.0328626 -0.0179741)
(-0.166785 -0.00328815 0.00233631)
(-0.119783 0.015451 -0.00668496)
(-0.120361 0.0428494 0.00187411)
(-0.121998 0.0197857 -0.00467839)
(-0.0888172 0.0302072 -0.00355062)
(-0.108858 -0.00596338 -0.000111225)
(-0.0969279 0.0273267 0.000152925)
(-0.0862948 -0.013321 -0.00525628)
(-0.101802 -0.00407372 0.00278574)
(-0.0884908 -0.0129381 -0.00296982)
(-0.0871681 -0.00980801 -0.00098911)
(-0.0882326 -0.0218434 -0.000322479)
(-0.0684365 -0.0203801 -0.00138956)
(-0.0819354 -0.018509 -0.000696289)
(-0.0629402 -0.019704 -0.00232633)
(-0.068354 -0.0175724 0.00241682)
(-0.0551489 -0.0206418 -0.00491815)
(-0.0560299 -0.0166515 0.00339853)
(-0.047522 -0.017604 -0.00350092)
(-0.0482381 -0.0121153 -0.000186601)
(-0.0362809 -0.0137903 -0.000884458)
(-0.0377709 -0.0103484 9.59641e-05)
(-0.0358741 -0.0113107 -0.00119491)
(-0.0308309 -0.0081198 -0.000392794)
(-0.0355482 -0.0104858 0.000633808)
(-0.561202 2.86507 -0.35856)
(0.221445 -0.358212 -0.0453335)
(0.0285395 0.572127 0.090742)
(0.0973943 0.296262 0.0413236)
(0.0611465 0.436554 -0.0478328)
(-0.21368 -0.33558 -0.0149648)
(0.0750764 0.337107 -0.0789059)
(-0.075362 0.167739 0.0322977)
(-0.054076 0.0907088 -0.0339718)
(0.00262167 0.17493 -0.00250793)
(-0.0540183 0.104391 0.0279176)
(-0.188634 0.0420896 0.0160204)
(-0.099692 0.0750802 -0.00517456)
(-0.170237 0.039642 0.00143712)
(-0.0894198 0.0554613 -0.00644102)
(-0.143865 0.0315766 0.00666269)
(-0.0913495 0.0390497 -0.0112988)
(-0.115789 0.0328122 0.00388762)
(-0.11144 0.010563 -0.00656418)
(-0.0964313 0.0155408 0.00303596)
(-0.0990187 0.0140865 -0.00406722)
(-0.102984 -0.000137394 -0.000239603)
(-0.0982481 -0.00650412 -0.00170993)
(-0.0897246 0.00175114 -0.00328033)
(-0.0856419 -0.0275822 -0.00167246)
(-0.0763339 -0.00900791 -0.000119201)
(-0.0840435 -0.0154711 -0.00138014)
(-0.0639295 -0.0188653 -0.00134964)
(-0.0720451 -0.0172178 -0.000701668)
(-0.0625559 -0.0113396 -0.00253339)
(-0.0574888 -0.0206792 -0.00013323)
(-0.0576294 -0.00749837 -0.00166306)
(-0.0516066 -0.013534 -0.000627778)
(-0.0466993 -0.0113169 -0.000735779)
(-0.0449536 -0.00573155 -0.000722328)
(-0.0399743 -0.00726129 -0.000974153)
(-0.0382571 -0.00231994 0.000185474)
(-0.0388039 -0.0036191 -0.00064053)
(-0.378386 2.73402 -0.282346)
(-0.0090994 -0.717863 -0.167439)
(-0.0784666 0.0489366 0.0701515)
(-0.205914 -0.252783 0.0259634)
(-0.156824 -0.00357444 -0.0157283)
(-0.122201 -0.0846763 -0.082778)
(-0.336234 -0.251751 0.0428076)
(-0.172889 -0.112248 -0.0649019)
(-0.280797 -0.110634 0.0170625)
(-0.232397 -0.0854031 -0.0304244)
(-0.225556 -0.0387626 -0.0259962)
(-0.205891 -0.0254465 -0.033264)
(-0.197507 -0.0121319 -0.0140642)
(-0.175556 -0.01413 -0.0239093)
(-0.107485 0.0297061 0.00405463)
(-0.157577 0.0155776 -0.00659017)
(-0.09674 0.0391258 -0.00201882)
(-0.119267 0.0357386 -0.000307535)
(-0.105394 0.00166945 -0.00379743)
(-0.118145 0.0131867 -0.00134524)
(-0.0925172 0.00991328 -0.00302806)
(-0.0996127 0.000130876 0.00270756)
(-0.113915 -0.0148362 -0.00533557)
(-0.0836613 -0.0063665 0.00140614)
(-0.093656 -0.0237017 -0.00532985)
(-0.078784 -0.0188995 0.00211723)
(-0.0779475 -0.0196072 -0.00346283)
(-0.0665099 -0.020961 0.000110349)
(-0.0696467 -0.0139703 -0.00270627)
(-0.065349 -0.0187671 -0.000506407)
(-0.0547298 -0.0171269 -0.00194092)
(-0.0659201 -0.0125145 -0.000146895)
(-0.0483174 -0.0153579 -0.00277544)
(-0.055029 -0.0129326 0.000176759)
(-0.0478502 -0.0101702 -0.00154783)
(-0.0440202 -0.010198 -0.000438467)
(-0.0421379 -0.0065622 -0.000537673)
(-0.153787 3.10514 -0.205732)
(0.0823657 0.201263 -0.0777459)
(0.00369224 0.331775 0.0143689)
(0.0701186 0.302889 -0.109973)
(0.0177523 0.300439 -0.0261414)
(0.00541393 0.149809 -0.0296166)
(0.0796086 0.29518 -0.0456444)
(0.0151602 0.247683 -0.0551148)
(0.03901 0.180463 -0.0361494)
(0.0523207 0.178604 -0.0452488)
(0.0209991 0.169869 -0.0266888)
(0.0184404 0.14281 -0.0275451)
(0.0531509 0.14149 -0.0133279)
(-0.0103102 0.0838829 0.0273075)
(-0.147104 0.0255973 0.00626153)
(-0.055532 0.0608831 -0.000998181)
(-0.152734 0.0259801 0.0016572)
(-0.0838097 0.0485671 -0.00313205)
(-0.120673 0.0287387 -0.00255242)
(-0.120555 0.0132436 -0.000382025)
(-0.113236 0.014377 -0.0013815)
(-0.109907 0.0122643 0.000210349)
(-0.0995623 0.0045817 -0.000435748)
(-0.110629 -0.0158423 -0.000171754)
(-0.0817686 -0.00603389 -0.00430777)
(-0.0832121 -0.0258902 -0.000340135)
(-0.0732517 -0.00963439 0.00027475)
(-0.0706158 -0.0209866 -0.00337287)
(-0.0650036 -0.00601764 0.000989367)
(-0.0636679 -0.017027 -0.00301519)
(-0.0567332 -0.00970304 1.57425e-05)
(-0.0604668 -0.00852131 -0.00106568)
(-0.0544085 -0.00957972 -0.00161146)
(-0.0535549 -0.00844562 -0.000367191)
(-0.0522721 -0.0067894 -0.00127526)
(-0.0475978 -0.00746384 -0.000644763)
(-0.0471922 -0.00414183 -0.000745907)
(-0.118205 2.77218 -0.171072)
(0.0568729 -0.611507 -0.0262284)
(-0.094201 -0.0193238 0.0293357)
(0.0280732 0.129583 0.000687691)
(-0.210896 0.0578577 0.0316534)
(-0.205441 -0.126093 0.0163002)
(-0.197303 -0.0172106 0.00130725)
(-0.166518 0.013484 -0.00467622)
(-0.186676 0.0113369 0.00249389)
(-0.156844 0.0406594 -0.00294203)
(-0.144389 0.0656475 0.0189355)
(-0.1856 0.0131323 -0.00134553)
(-0.128418 0.0478542 0.0061906)
(-0.199481 0.0157538 -0.00551848)
(-0.134512 0.0383839 -0.012455)
(-0.140416 0.0254865 -0.000688663)
(-0.102514 0.0562524 -0.00289231)
(-0.15149 0.0195008 0.00305025)
(-0.0822511 0.0460696 -0.00351166)
(-0.13773 0.0134164 0.00152463)
(-0.103876 0.0102161 -0.00139436)
(-0.122659 -0.0101449 0.00284439)
(-0.104513 -0.0142362 -0.00137656)
(-0.102337 -0.023993 -1.48703e-05)
(-0.106268 -0.0312762 0.000242325)
(-0.0829447 -0.0237599 -0.00746582)
(-0.0614002 -0.0290951 0.00389926)
(-0.0790095 -0.0122246 -0.00357424)
(-0.0531895 -0.0197889 0.00069919)
(-0.0692242 -0.0095005 -0.00354079)
(-0.0493835 -0.0160659 -1.03954e-05)
(-0.0646787 -0.00563427 -0.00090534)
(-0.0491609 -0.0111438 -0.00225983)
(-0.056709 -0.00918418 -1.82959e-05)
(-0.0498369 -0.00671974 -0.00159444)
(-0.0517411 -0.00830413 -0.000781802)
(-0.0469488 -0.0060203 -0.000734477)
(-0.0773717 3.51648 -0.210796)
(0.181618 0.627428 -0.088588)
(0.104665 0.406184 -0.0243728)
(0.3159 0.356511 0.0104469)
(0.0691013 0.279821 -0.000773682)
(0.21141 0.223845 -0.0631383)
(0.232659 0.242743 -0.0244084)
(0.153658 0.241223 -0.0120156)
(0.106973 0.205651 -0.0200902)
(0.0461006 0.161967 -0.0230812)
(0.0391447 0.145033 -0.0164343)
(0.0515435 0.11675 -0.0261391)
(0.0565948 0.122915 -0.0116058)
(0.0333676 0.123116 -0.00539508)
(-0.0416697 0.0606021 0.0260788)
(-0.125766 0.0344257 0.00487649)
(-0.0918783 0.0555403 0.00262548)
(-0.13176 0.0306734 -0.00121605)
(-0.0948641 0.0304205 0.00239606)
(-0.120423 0.0219572 0.000998378)
(-0.108382 0.016072 -0.000472248)
(-0.106635 -0.00159848 0.00232765)
(-0.10487 -0.00703629 0.00295237)
(-0.0943525 -0.010193 0.0020107)
(-0.0972708 -0.0162136 0.000311247)
(-0.0834111 -0.0308469 -0.00350061)
(-0.0451336 -0.0244395 0.000844326)
(-0.0783731 -0.00886034 0.00114906)
(-0.0506117 -0.0130802 -0.00348318)
(-0.0667756 -0.00243709 -0.000501132)
(-0.0491449 -0.0094002 -0.00209743)
(-0.0629875 -0.00107278 0.000448039)
(-0.0494868 -0.00416117 -0.00323962)
(-0.0542979 -0.00423007 0.000413164)
(-0.0522967 -0.00103798 -0.00142712)
(-0.0484619 -0.00382984 -0.00129516)
(-0.0497619 -0.00186596 -0.000272934)
(0.00794838 2.74317 -0.0759349)
(0.255233 -0.601385 -0.10285)
(-0.463457 -0.239009 0.0270753)
(-0.0107566 0.0670927 -0.0199941)
(-0.00366939 0.145095 0.00512421)
(-0.0349312 0.00982595 0.0204744)
(-0.114867 0.0637345 0.0203193)
(-0.0813189 0.148093 0.00898201)
(-0.0789888 0.146027 0.0101932)
(-0.125684 0.134063 0.00734983)
(-0.0828347 0.111766 0.00867083)
(-0.0923677 0.0776524 0.00911853)
(-0.0845536 0.0934507 0.0106541)
(-0.099618 0.0718124 0.0156325)
(-0.115803 0.0438711 0.0101592)
(-0.105401 0.0487082 -0.00339463)
(-0.0781895 0.0363915 0.00158961)
(-0.0652591 0.0326328 -0.00353599)
(-0.0352863 0.0254739 -0.00161663)
(-0.0174609 0.0152085 -0.00185719)
(-0.0122847 0.0077239 -0.00247389)
(-0.017147 -0.0234486 -0.00282884)
(-0.0301643 -0.0435317 2.75566e-05)
(-0.0582078 -0.0514634 0.000848241)
(-0.0870488 -0.0576671 -0.00323411)
(-0.0692374 -0.0556561 -0.00367753)
(-0.0484632 -0.0373473 0.00320192)
(-0.0718552 -0.0123851 0.000974555)
(-0.0515923 -0.0115979 -0.00452128)
(-0.056343 -0.00535478 0.00227085)
(-0.0563043 -0.00802353 -0.00212488)
(-0.0573586 -0.00138936 0.000566293)
(-0.0507407 -0.00362888 -0.00198434)
(-0.0518052 -0.00447788 0.000124674)
(-0.0553801 -0.00196259 -0.000418229)
(-0.0439638 -0.00225881 -0.00148414)
(-0.0526183 -0.00400018 4.1212e-05)
(-0.0552609 3.70392 0.27491)
(1.52174 1.93047 0.110053)
(0.804398 0.720799 0.0959489)
(0.491619 0.131365 0.0807904)
(0.37443 0.175403 0.0503949)
(0.29736 0.193579 0.0532449)
(0.165141 0.199498 0.0528412)
(0.133957 0.184506 0.0469816)
(0.140803 0.175251 0.0407904)
(0.153166 0.141939 0.0353866)
(0.174504 0.0723193 0.0312841)
(0.110997 0.0595552 0.0234106)
(0.115292 0.0747065 0.0219674)
(0.116259 0.068066 0.0209591)
(0.129041 0.0339304 0.014477)
(0.0899897 0.0192778 0.0103901)
(0.108292 0.015165 0.00598863)
(0.092103 0.0138541 0.00581217)
(0.104797 0.00107365 -0.00229457)
(0.127902 0.00639903 0.00385339)
(0.0896009 0.0277377 0.00519805)
(0.14878 0.0223094 -0.00825467)
(0.133991 0.0254739 0.000382828)
(0.103883 0.0482523 -0.00150528)
(0.156246 0.0150602 -0.00447481)
(0.0677446 -0.048941 0.0064747)
(-0.0325006 -0.0220338 0.00568021)
(-0.0318584 -0.013725 0.000671131)
(-0.059407 0.000333013 -0.00125786)
(-0.0398998 -0.0059332 -0.000235898)
(-0.0649853 0.00371038 0.000112975)
(-0.0464239 -0.00293428 -0.00164904)
(-0.0545685 0.00113334 -0.000208871)
(-0.0492942 0.000939945 -0.000262012)
(-0.0543986 -0.00022301 -0.00056107)
(-0.0437499 0.000742871 -0.0013015)
(-0.0504026 0.000264379 8.22188e-05)
(-1.33054 1.02539 1.12381)
(0.415886 -3.60263 1.23635)
(0.766023 -2.47643 0.871484)
(1.53401 -1.88663 0.774201)
(1.0599 -1.18007 0.50996)
(1.15652 -0.53686 0.244104)
(0.957042 -0.3891 0.333301)
(0.747919 -0.307881 0.166255)
(0.690354 -0.274353 0.17725)
(0.685679 -0.2437 0.0837566)
(0.655666 -0.188149 0.102071)
(0.53667 -0.163509 0.115893)
(0.557365 -0.160162 0.0508331)
(0.685493 -0.157491 -0.0094818)
(0.732994 -0.0315482 0.0245264)
(0.439609 0.113296 0.0672647)
(0.155238 0.0928372 0.0729185)
(0.0527258 0.0328876 0.0355656)
(0.00688613 0.00980087 0.0120529)
(-0.0154786 0.00191573 0.0111166)
(-0.0254679 -0.00262723 0.00257864)
(-0.0258771 -0.00300747 0.0055619)
(-0.028551 -0.0053567 0.00241149)
(-0.0222221 -0.00532349 0.00151345)
(-0.0202853 -0.0055404 0.00230518)
(-0.0132065 -0.00680622 -0.000218174)
(-0.00788743 -0.00578537 0.00264374)
(-0.000381156 -0.00660449 0.000437933)
(0.00549334 -0.00687563 0.000736764)
(0.0138211 -0.00722032 0.000231374)
(0.0207278 -0.00719766 0.000746312)
(0.027624 -0.00668486 0.00129232)
(0.0342227 -0.00633222 0.000630839)
(0.0401929 -0.00572141 0.000545284)
(0.0455176 -0.00489027 0.000845006)
(0.0524264 -0.00343693 -0.00058168)
(0.0584835 -0.00329025 -0.00221712)
(0.0639619 -0.00462789 -0.00256437)
(1.48345 -2.46595 -1.38176)
(0.85907 -0.714178 -1.90683)
(-0.825128 0.510033 -1.286)
(-0.597879 0.960186 -0.658058)
(-1.01559 0.196936 -0.175499)
(-0.294017 0.231799 -0.424927)
(-0.608833 0.312634 -0.0454712)
(-0.418139 -0.0530658 -0.0773228)
(-0.24227 0.098324 -0.0791032)
(-0.259959 -0.0163202 -0.0609431)
(-0.146044 0.00110977 -0.0660813)
(-0.0941848 0.0241774 -0.0735366)
(-0.0705153 0.0485124 -0.0819554)
(-0.0532151 0.0950281 -0.0767919)
(-0.050571 0.141411 -0.0361931)
(-0.0683126 0.148684 -0.00242479)
(-0.0470614 0.0887228 0.0285698)
(-0.0575154 0.040058 0.00969403)
(-0.0530009 0.0170919 0.0063409)
(-0.073452 0.00543854 0.00775314)
(-0.066281 -0.00247504 0.000608291)
(-0.0718223 -0.00491781 0.00359914)
(-0.0680645 -0.00916575 0.000408001)
(-0.0642304 -0.00846177 0.000374941)
(-0.0608461 -0.0108223 0.000649331)
(-0.0539834 -0.0108611 0.0012499)
(-0.0491637 -0.0121472 9.47136e-06)
(-0.0409894 -0.011605 0.000277116)
(-0.0359305 -0.0114944 -0.000463166)
(-0.0278539 -0.0113624 -0.000131349)
(-0.022368 -0.010741 -0.00149198)
(-0.0145501 -0.00972398 -0.00132355)
(-0.00842355 -0.00902404 -0.00163835)
(-0.00145376 -0.00793117 -0.00205756)
(0.004935 -0.00685612 -0.00228365)
(0.0117032 -0.00601237 -0.00223296)
(0.0179259 -0.00560048 -0.00175749)
(0.0238116 -0.00543468 -0.00143324)
(-0.86609 0.533893 0.291968)
(-1.55038 0.24599 0.89773)
(-0.495891 -0.882909 -0.273121)
(-0.59106 -0.413044 -0.0860687)
(0.14056 -0.664115 0.0336769)
(-0.458937 -0.10573 0.113358)
(-0.203754 -0.283813 -0.227204)
(-0.247643 -0.23621 0.175596)
(-0.194597 -0.203233 -0.107379)
(-0.166956 -0.189716 0.0403951)
(-0.177574 -0.141466 -0.00886407)
(-0.139697 -0.0846312 -0.000395943)
(-0.165018 -0.0569113 -0.0035318)
(-0.123542 -0.017747 0.00957031)
(-0.135267 0.0337852 0.000383797)
(-0.100754 0.0710307 0.00583098)
(-0.0885163 0.0453037 0.0137552)
(-0.0871843 0.0289066 0.000171032)
(-0.0820906 0.00793264 0.0080512)
(-0.0897837 0.0062635 -0.00243702)
(-0.0874309 -0.00767244 0.000985299)
(-0.0871886 -0.00696692 -0.0011639)
(-0.086772 -0.013376 -0.000460697)
(-0.0815246 -0.0124737 -0.00270964)
(-0.0799499 -0.0159985 -0.00029926)
(-0.0717934 -0.017616 -0.000964061)
(-0.07033 -0.0167114 -0.00228624)
(-0.0610897 -0.0175975 -0.000645751)
(-0.059353 -0.0174098 -0.00266515)
(-0.0507616 -0.0165554 -0.000921649)
(-0.0480139 -0.0166314 -0.00300241)
(-0.0397475 -0.0152769 -0.00116258)
(-0.03635 -0.0145409 -0.00238063)
(-0.0301266 -0.0132196 -0.00270794)
(-0.0255808 -0.0120829 -0.00181025)
(-0.0204373 -0.0113875 -0.00169039)
(-0.016144 -0.0107516 -0.00163977)
(-0.256939 0.463394 0.166553)
(0.516071 -0.791286 0.417608)
(0.184352 -0.126655 0.274483)
(-0.0605441 -0.259908 -0.0316301)
(-0.285983 0.0456334 -0.214706)
(-0.206839 0.0117728 0.12147)
(-0.251593 0.0379403 -0.0134632)
(-0.178805 0.0561642 -0.0162149)
(-0.254504 -0.0046973 -0.0179149)
(-0.218764 0.0478619 -0.047023)
(-0.227011 0.0134124 -0.00806575)
(-0.202193 0.0292172 -0.0308057)
(-0.193735 0.0443595 -0.00601562)
(-0.17419 0.0479412 -0.00678376)
(-0.155018 0.0538891 -0.0218579)
(-0.130757 0.0507155 0.0117029)
(-0.101911 0.0429112 -0.00314572)
(-0.105615 0.0240934 -0.00104634)
(-0.0916475 0.0152476 0.00345863)
(-0.0991251 0.00585656 -0.00600721)
(-0.0949461 0.00218374 -0.00104096)
(-0.0934753 -0.00706736 -0.000892118)
(-0.0929788 -0.00752472 -0.00349582)
(-0.0888462 -0.0125293 -0.00230576)
(-0.0868992 -0.0146667 -0.00207363)
(-0.0791714 -0.0163278 -0.000769496)
(-0.08003 -0.0168292 -0.00346009)
(-0.0711741 -0.0169569 -0.00266689)
(-0.0717506 -0.0169809 -0.000806862)
(-0.0628034 -0.0157396 -0.00384917)
(-0.0626316 -0.017167 -0.00105744)
(-0.0541013 -0.0140759 -0.00241178)
(-0.0540223 -0.0138256 -0.00306497)
(-0.0480208 -0.013227 -0.00300588)
(-0.045135 -0.0119508 -0.0017117)
(-0.0413051 -0.0115103 -0.00272182)
(-0.0387119 -0.0110419 -0.00257239)
(-0.138431 0.618812 0.117223)
(-0.368141 -0.0635363 -0.0646622)
(-0.0709599 -0.359596 0.037874)
(-0.413299 -0.237923 0.051995)
(-0.219583 -0.296124 -0.0835557)
(-0.194644 -0.0378501 0.00584034)
(-0.120855 -0.163756 -0.0587796)
(-0.172897 -0.141233 -0.0129154)
(-0.132542 -0.103652 -0.0332056)
(-0.172858 -0.0921517 -0.0169169)
(-0.161377 -0.0695575 -0.041272)
(-0.177873 -0.0415403 0.00169658)
(-0.147228 -0.0134464 -0.0216721)
(-0.156874 0.00625755 -0.00197611)
(-0.132792 0.0187313 -0.0109996)
(-0.129294 0.0348077 0.00109348)
(-0.1107 0.0293575 -0.00663539)
(-0.110285 0.0196886 -0.00399796)
(-0.103418 0.0135553 -0.00148493)
(-0.100741 0.00730965 -0.00360515)
(-0.0984986 0.00104712 -0.00532631)
(-0.097941 -0.00521585 -0.000956742)
(-0.0932737 -0.00896352 -0.00467133)
(-0.0909762 -0.0114067 -0.0032302)
(-0.0863324 -0.0165048 -0.00273946)
(-0.0793242 -0.0179576 -0.00267796)
(-0.0787034 -0.0179208 -0.00299839)
(-0.0721525 -0.0191283 -0.00356665)
(-0.0688355 -0.0179757 -6.71766e-05)
(-0.0653352 -0.0182875 -0.00560709)
(-0.0613182 -0.0177858 0.000712497)
(-0.0581071 -0.0161415 -0.00461461)
(-0.0560092 -0.0154192 -0.00194352)
(-0.0513184 -0.0152129 -0.00216815)
(-0.0499032 -0.0130584 -0.00132192)
(-0.0478975 -0.0129622 -0.00246163)
(-0.0465103 -0.0124725 -0.00123701)
(-0.0455111 -0.0120363 -0.000739464)
(-0.0441897 1.01365 0.0783096)
(-0.254579 -0.115303 -0.0797165)
(-0.0236927 0.363065 0.0902429)
(-0.0291272 0.0786979 0.0364524)
(-0.18012 0.00766108 -0.0610585)
(-0.176519 -0.0590905 0.0188699)
(-0.183517 -0.0219032 -0.0764354)
(-0.137869 0.13176 0.019905)
(-0.162973 -0.0135509 -0.0361588)
(-0.140641 0.0990171 -0.00634057)
(-0.155361 0.0389103 0.0376862)
(-0.1717 0.0422683 -0.0077935)
(-0.143567 0.0449782 -0.00538357)
(-0.154589 0.0425431 -0.00110185)
(-0.121775 0.0354924 -0.00979718)
(-0.132319 0.03781 0.00490217)
(-0.108002 0.0309512 -0.011973)
(-0.116242 0.0269955 0.00105453)
(-0.108009 0.0168673 -0.00708301)
(-0.107264 0.0134372 -0.00123909)
(-0.102925 0.00712856 -0.00530898)
(-0.103207 0.00057793 -0.00222141)
(-0.0982347 -0.00403835 -0.00414075)
(-0.0946132 -0.0093599 -0.0045588)
(-0.0889927 -0.0149945 -0.00412532)
(-0.0828439 -0.0160575 -0.00181123)
(-0.0799786 -0.0150266 -0.00392545)
(-0.0728775 -0.0179855 -0.00327511)
(-0.0710546 -0.0147159 -0.00242553)
(-0.0664211 -0.015699 -0.00467949)
(-0.0636883 -0.0144834 -0.00205471)
(-0.0602564 -0.0130843 -0.0035426)
(-0.057472 -0.0121611 -0.002829)
(-0.0542073 -0.0119724 -0.00256096)
(-0.0516696 -0.0091188 -0.00251058)
(-0.0488749 -0.00954082 -0.0024261)
(-0.0465396 -0.00736798 -0.00140145)
(-0.0452738 -0.00723205 -0.00195974)
(-0.00876024 1.08581 0.0423422)
(-0.284506 -0.132144 -0.162638)
(-0.135237 -0.0460827 0.132818)
(-0.044143 -0.160606 -0.00849525)
(-0.1463 -0.122886 0.0218216)
(-0.0730797 -0.0577683 -0.0723619)
(-0.169585 -0.152976 -0.0113067)
(-0.105126 0.0201403 -0.0143952)
(-0.154495 -0.0754312 -0.0331397)
(-0.132119 0.0103765 -0.0064514)
(-0.146773 0.00890522 -0.0311894)
(-0.144514 0.032144 -0.0344861)
(-0.166433 0.00924573 -0.0374916)
(-0.148647 0.0111274 -0.0292727)
(-0.140951 0.0186997 0.000670675)
(-0.134022 0.033422 -0.0094419)
(-0.120845 0.021716 -0.00756249)
(-0.115813 0.0311856 -0.00172071)
(-0.114875 0.0131187 -0.00636043)
(-0.112096 0.0141965 -0.00322695)
(-0.108819 0.00522338 -0.0045336)
(-0.105189 -0.00138229 0.000102175)
(-0.104975 -0.0092226 -0.00587595)
(-0.0981353 -0.0137931 -0.00133921)
(-0.0920023 -0.018741 -0.00650828)
(-0.0841069 -0.0191718 -0.000675482)
(-0.079247 -0.0179872 -0.00462647)
(-0.0726202 -0.0186225 -0.00278943)
(-0.0701743 -0.0164928 -0.00340817)
(-0.0669353 -0.015957 -0.003562)
(-0.0627349 -0.0156516 -0.0030213)
(-0.0619253 -0.0134054 -0.00261247)
(-0.0577081 -0.0132319 -0.00405555)
(-0.0567352 -0.0125873 -0.00191358)
(-0.0533913 -0.0110554 -0.0030842)
(-0.0509979 -0.0107853 -0.00210692)
(-0.0486539 -0.00907617 -0.00188321)
(-0.0830688 1.41662 -0.00870562)
(-0.148733 -0.123147 -0.105371)
(-0.089446 0.187829 -0.0100466)
(-0.0708856 0.0795481 -0.0928994)
(-0.17766 0.038336 0.0326796)
(-0.108734 -0.0168513 0.0145307)
(-0.10284 0.106184 -0.0618472)
(-0.144522 0.047954 0.00450439)
(-0.112427 0.0652239 -0.0450663)
(-0.129844 0.0673881 -0.00824477)
(-0.110209 0.0392763 -0.0136683)
(-0.0977511 0.0507191 -0.00583783)
(-0.104135 0.0571296 0.00410314)
(-0.0941283 0.0421741 0.039606)
(-0.138091 0.0363672 0.00207524)
(-0.0954077 0.044465 -0.00124472)
(-0.127705 0.0297569 -0.00233321)
(-0.111249 0.0353114 -0.00324914)
(-0.118266 0.0253266 -0.00515924)
(-0.122461 0.0147161 -0.00211528)
(-0.116817 0.0125872 -0.00292561)
(-0.116451 0.0048894 -0.00114608)
(-0.104858 -0.00240626 -0.000561692)
(-0.104865 -0.010837 -0.000842331)
(-0.0910103 -0.0193696 -0.00541558)
(-0.0857523 -0.0180461 -0.00311526)
(-0.077075 -0.0171696 -0.00150369)
(-0.0726536 -0.0173298 -0.00520353)
(-0.0680207 -0.0140623 -0.00140871)
(-0.065828 -0.0128849 -0.00516418)
(-0.0621319 -0.0126804 -0.00219261)
(-0.0605829 -0.00980809 -0.00328916)
(-0.0578472 -0.0101649 -0.00368654)
(-0.0564618 -0.00885691 -0.00232062)
(-0.0542458 -0.00813657 -0.00319529)
(-0.0522236 -0.00764568 -0.00249705)
(-0.0505322 -0.00643253 -0.00230533)
(-0.13521 1.17496 -0.0552767)
(-0.150314 -0.206561 -0.128342)
(-0.156069 -0.0130929 0.00638397)
(-0.0277987 -0.0369719 0.0349785)
(-0.241558 -0.113985 0.0638642)
(-0.155224 -0.0992275 -0.0576217)
(-0.193595 -0.0667452 -0.00563955)
(-0.203754 -0.0497849 0.000577328)
(-0.185393 -0.0188231 -0.00961413)
(-0.192968 0.000206492 0.00207158)
(-0.147873 0.0159582 0.00760667)
(-0.165226 0.0266175 0.00855464)
(-0.134328 0.0405914 0.000886459)
(-0.155224 0.0445365 -0.00968439)
(-0.1541 0.0195848 -0.0211059)
(-0.129148 0.0390588 1.21461e-05)
(-0.134557 0.0386701 -0.0038974)
(-0.137 0.0287218 -0.000358925)
(-0.109437 0.0298749 -0.00399091)
(-0.13343 0.0195244 0.0011473)
(-0.116725 0.00831073 -0.00518353)
(-0.123526 -0.00733047 0.00255305)
(-0.109034 -0.0171107 -0.00189787)
(-0.109101 -0.0250593 0.00185296)
(-0.0991494 -0.0329787 -0.00137544)
(-0.0895047 -0.0257378 -0.01012)
(-0.0739756 -0.022236 0.00259508)
(-0.0714324 -0.0189433 -0.00534221)
(-0.0651704 -0.0149336 -0.00175782)
(-0.065603 -0.0117429 -0.00509141)
(-0.0603831 -0.0124313 -0.00243144)
(-0.0606102 -0.00851046 -0.00294274)
(-0.0567023 -0.00904765 -0.00419501)
(-0.0568837 -0.00821609 -0.00189879)
(-0.0536302 -0.00735488 -0.00353192)
(-0.0527676 -0.00705758 -0.00257157)
(-0.0505284 -0.00627441 -0.00233993)
(-0.219648 1.79609 -0.120063)
(-0.0100445 0.249095 -0.0748388)
(-0.0201362 0.215284 -0.00394777)
(0.156313 0.222163 -0.00856428)
(0.0344986 0.195961 -0.0247747)
(-0.00729445 0.131826 -0.0517699)
(-0.0337098 0.151386 0.00417867)
(-0.0616049 0.135383 -0.0133311)
(-0.0657527 0.110331 -0.0066663)
(-0.117806 0.0879449 -0.0127665)
(-0.107639 0.0774697 -0.0213474)
(-0.120593 0.0640043 -0.0183204)
(-0.0934097 0.0672475 -0.00340439)
(-0.101949 0.0638849 0.016883)
(-0.0930053 0.0427131 0.0325825)
(-0.120737 0.0416548 0.00207113)
(-0.102431 0.0418405 0.00697849)
(-0.119417 0.0359953 -0.00484186)
(-0.105595 0.0246989 0.00350491)
(-0.117174 0.0209314 0.00275102)
(-0.11791 0.0151541 -0.000909545)
(-0.118028 -0.00100932 0.00425165)
(-0.11015 -0.0082978 0.00347266)
(-0.0958867 -0.0134096 0.00604067)
(-0.0993378 -0.0263 0.0037965)
(-0.0844727 -0.0324434 -0.00830291)
(-0.0681359 -0.0209374 -0.000666344)
(-0.0670855 -0.0155976 0.00108512)
(-0.0638171 -0.0118667 -0.00664988)
(-0.0638936 -0.0078154 -0.0020252)
(-0.0591093 -0.00920639 -0.00414723)
(-0.0601072 -0.00480604 -0.00202148)
(-0.0556501 -0.00575996 -0.00480526)
(-0.0568901 -0.00448139 -0.00131565)
(-0.053442 -0.0043225 -0.0037507)
(-0.0521882 -0.00386104 -0.00284853)
(-0.0508938 -0.00323058 -0.00196486)
(-0.176952 0.666736 0.053297)
(-0.186062 -0.363659 -0.201215)
(-0.504711 -0.231629 0.02852)
(-0.157425 -0.0242148 -0.037171)
(-0.173117 0.0114463 0.0739989)
(-0.221293 -0.101186 0.0590451)
(-0.206854 -0.0269031 0.0188528)
(-0.194103 0.0265238 0.0204635)
(-0.184039 0.0356064 0.028103)
(-0.191742 0.0487934 0.0199966)
(-0.163586 0.038048 0.0231863)
(-0.154675 0.0261388 0.0199595)
(-0.130778 0.0389941 0.0211928)
(-0.122686 0.0387536 0.0255548)
(-0.0991939 0.045367 0.0111729)
(-0.0895268 0.0437703 -0.000818297)
(-0.067371 0.0358556 0.000843785)
(-0.053713 0.0345192 -0.00498562)
(-0.0319502 0.0277098 -0.00360673)
(-0.014886 0.0198817 -0.00377989)
(-0.0105587 0.0130928 -0.00436435)
(-0.0150971 -0.0182594 0.000132079)
(-0.0431934 -0.0411367 -0.00106483)
(-0.0624961 -0.0480008 -0.00096158)
(-0.087411 -0.0617063 0.000453414)
(-0.0837106 -0.0502445 -0.00315807)
(-0.0661761 -0.028146 -0.00109382)
(-0.0591224 -0.0170132 0.00499494)
(-0.0640985 -0.0111416 -0.00964955)
(-0.0602256 -0.00553159 0.0024876)
(-0.0579778 -0.0081022 -0.0046642)
(-0.0597871 -0.0025459 -0.00160131)
(-0.053816 -0.00442489 -0.00350812)