/*--------------------------------*- C++ -*----------------------------------*\
| =========                 |                                                 |
| \\      /  F ield         | OpenFOAM: The Open Source CFD Toolbox           |
|  \\    /   O peration     | Version:  2.3.1                                 |
|   \\  /    A nd           | Web:      www.OpenFOAM.org                      |
|    \\/     M anipulation  |                                                 |
\*---------------------------------------------------------------------------*/
FoamFile
{
    version     2.0;
    format      ascii;
    class       volVectorField;
    location    "15";
    object      U_0;
}
// * * * * * * * * * * * * * * * * * * * * * * * * * * * * * * * * * * * * * //

dimensions      [0 1 -1 0 0 0 0];

internalField   nonuniform List<vector> 
37632
(
(4.52071 -8.47878 -4.25441)
(1.45616 -5.81299 -1.0438)
(2.13139 -3.85079 -0.0604216)
(1.82229 -2.37446 0.0432596)
(1.3453 -1.39413 0.0289778)
(1.56387 -0.869301 0.0322718)
(0.934914 -0.522883 0.0930376)
(1.04361 -0.469072 0.0260898)
(0.721747 -0.361003 0.0655034)
(0.782134 -0.338245 0.0178271)
(0.78793 -0.241567 0.0225776)
(0.643054 -0.199637 0.0419965)
(0.527971 -0.21938 0.0274085)
(0.61107 -0.246517 -0.00391647)
(0.718079 -0.103928 -0.0037583)
(0.528078 0.0809383 0.0122637)
(0.21056 0.0993648 0.0246413)
(0.0663582 0.0359311 0.0144773)
(0.0225157 0.0112199 0.00315627)
(-0.0128105 0.0012933 0.0051373)
(-0.0170042 -0.00161395 -0.000289662)
(-0.0197375 -0.00255592 0.0026551)
(-0.0254524 -0.00518736 0.000567665)
(-0.0129729 -0.00354664 0.000118595)
(-0.0184495 -0.00568033 0.000957483)
(-0.00297292 -0.00441493 -0.00131654)
(-0.00300351 -0.00470246 0.0012088)
(0.00751624 -0.00464692 -0.000364687)
(0.0114476 -0.00515865 -0.0001193)
(0.0212356 -0.0056429 -0.000563956)
(0.0294035 -0.00593517 -0.000148249)
(0.0350603 -0.00653472 0.000655246)
(0.0407026 -0.00672079 0.000200667)
(0.0480214 -0.00583272 -6.61114e-06)
(0.0524426 -0.0057305 0.000786429)
(0.0558999 -0.00491098 0.00045859)
(0.0619577 -0.00278059 -0.00124321)
(0.0696693 -0.0027242 -0.00188397)
(-0.591057 3.48479 -0.427241)
(-1.69975 3.33052 -1.56591)
(-2.22871 1.86403 -0.291048)
(-1.05757 0.560841 -0.360633)
(-0.39242 0.206477 -0.0628405)
(-1.07744 0.602259 -0.211366)
(-0.254669 -0.236057 -0.102557)
(-0.624345 0.440615 -0.0813028)
(-0.376864 -0.0803872 0.0343347)
(-0.384878 0.163481 -0.0576715)
(-0.245942 0.033974 -0.0376203)
(-0.229986 0.0856904 -0.0457408)
(-0.0969684 0.0863899 -0.0402009)
(-0.186185 0.11716 -0.0355555)
(-0.0647601 0.119903 -0.0211888)
(-0.0745993 0.165231 -0.0100554)
(-0.0356406 0.0929382 0.0110165)
(-0.0721134 0.0392967 0.00350648)
(-0.0295987 0.027285 0.000462658)
(-0.0851721 0.00152813 0.00474462)
(-0.0588571 0.00344155 -0.000569876)
(-0.0745097 -0.00774358 0.00186706)
(-0.067494 -0.00636437 0.000239225)
(-0.0635323 -0.0064065 -7.11678e-05)
(-0.0612015 -0.0103482 0.000378753)
(-0.0517317 -0.00638056 0.00113297)
(-0.0525495 -0.0129396 -7.43858e-05)
(-0.0380645 -0.00832052 0.00058542)
(-0.0373101 -0.0091774 -0.000314017)
(-0.0274305 -0.00969299 0.000514293)
(-0.0229875 -0.00809072 -0.00102091)
(-0.0140458 -0.0076588 -0.000583325)
(-0.00857036 -0.0068495 -0.00079891)
(-0.000932954 -0.00580777 -0.00104221)
(0.00565592 -0.00462263 -0.00126565)
(0.0128297 -0.00368423 -0.00125297)
(0.0197517 -0.0029436 -0.000770095)
(0.0260137 -0.00249722 -0.000477395)
(-1.01067 2.90033 -0.463253)
(-1.85542 2.16049 -0.54396)
(-0.202456 -0.413701 0.245504)
(0.0159268 -1.31098 -0.143651)
(-0.282916 -0.778757 0.129436)
(-0.871796 0.658222 -0.0307273)
(0.281246 -0.684667 -0.144917)
(-0.46579 0.0503194 0.0561851)
(0.0566221 -0.393697 -0.072785)
(-0.192654 -0.193726 0.0292596)
(-0.178637 -0.130814 0.0068455)
(-0.150012 -0.0960696 -0.00151031)
(-0.183604 -0.0284161 -0.00676314)
(-0.0907844 -0.0145437 0.00519644)
(-0.179913 -0.0434501 -0.0053387)
(-0.0600049 0.117158 -0.000303406)
(-0.0938626 0.0353953 0.00711672)
(-0.0759349 0.0233517 -0.00334219)
(-0.0745686 0.014046 0.0075158)
(-0.0802692 0.00227177 -0.0049492)
(-0.0883402 -0.00935035 0.0036389)
(-0.0714421 -0.00758312 -0.00310894)
(-0.090003 -0.0145495 0.00194732)
(-0.0685155 -0.010084 -0.00303824)
(-0.0787957 -0.0182548 0.00106998)
(-0.0624223 -0.016246 -0.000609579)
(-0.0694655 -0.0172019 -0.00128807)
(-0.0516676 -0.0193316 0.000714636)
(-0.0567121 -0.0137008 -0.00248489)
(-0.0452535 -0.0188034 0.000902862)
(-0.0445777 -0.0130164 -0.00255418)
(-0.0342691 -0.0155642 0.000436452)
(-0.0343844 -0.0135523 -0.00123911)
(-0.0251949 -0.0121921 -0.00166787)
(-0.0216253 -0.0109139 -0.000873236)
(-0.016318 -0.0104618 -0.000810083)
(-0.0115207 -0.00955347 -0.00101324)
(-0.95345 3.03292 -0.385268)
(0.210191 0.197797 0.0461711)
(0.299697 0.19826 -0.0275618)
(-0.845421 0.734462 -0.220326)
(-0.458527 0.283696 -0.125705)
(-0.0396356 -0.231165 0.0953812)
(-0.369121 0.165286 0.0147065)
(-0.180714 -0.00286655 0.0426261)
(-0.271005 0.0185156 -0.0470388)
(-0.203964 0.171139 0.00681027)
(-0.211868 -0.0133794 -0.0103443)
(-0.211211 0.068589 -0.0137396)
(-0.148862 0.040214 0.00217963)
(-0.184698 0.0521949 0.00219962)
(-0.130307 0.0762384 -0.0202459)
(-0.131479 0.04071 0.0105603)
(-0.0928735 0.0477211 -0.00341807)
(-0.0945871 0.0290287 -0.00337082)
(-0.0883597 -0.000881113 0.00585003)
(-0.08994 0.0272837 -0.00748112)
(-0.0871122 -0.0117106 0.00177646)
(-0.0866175 0.00119844 -5.88925e-05)
(-0.0902654 -0.010587 -0.00180032)
(-0.0761367 -0.00623123 -0.000816707)
(-0.0853711 -0.0169723 -0.000827738)
(-0.0644614 -0.0119029 0.000811084)
(-0.0813371 -0.0165072 -0.00231524)
(-0.0507112 -0.0193173 -0.00186962)
(-0.0700693 -0.00486111 0.00072655)
(-0.047079 -0.0211651 -0.00256537)
(-0.0542613 -0.00634873 0.000100212)
(-0.0407148 -0.0156727 -0.000518313)
(-0.0457013 -0.00800307 -0.00167226)
(-0.0327193 -0.00850043 -0.00179772)
(-0.033088 -0.00749475 -0.000568016)
(-0.0285486 -0.00802345 -0.00135106)
(-0.0237678 -0.00585304 -0.00179929)
(-0.735798 2.8196 -0.376609)
(0.150417 -0.467555 -0.0118223)
(-0.113099 0.290261 0.00986133)
(-0.4176 -0.0923972 0.0259792)
(-0.114145 -0.590416 -0.00922973)
(-0.291254 0.0117088 -0.0253938)
(0.0305693 -0.471267 -0.0607713)
(-0.261072 -0.133768 -0.0190943)
(-0.0934846 -0.180696 -0.0292346)
(-0.257532 -0.131004 -0.000619888)
(-0.0915924 -0.0804928 -0.0398003)
(-0.213898 -0.0523598 0.011323)
(-0.116626 -0.0325268 -0.0179036)
(-0.16657 -0.00297434 0.00227799)
(-0.119676 0.0155905 -0.00665043)
(-0.120058 0.0427758 0.00185587)
(-0.121953 0.0195439 -0.00466852)
(-0.0888125 0.0300281 -0.00357556)
(-0.108845 -0.0062291 -0.000132956)
(-0.097063 0.0271435 0.000180596)
(-0.0863148 -0.0133875 -0.00527454)
(-0.101847 -0.0041954 0.00277951)
(-0.0885674 -0.0130147 -0.00295972)
(-0.0871819 -0.00984874 -0.00099973)
(-0.0883039 -0.021854 -0.000321678)
(-0.0684445 -0.0204327 -0.00138983)
(-0.0819531 -0.018539 -0.000695403)
(-0.0629616 -0.0197237 -0.00233639)
(-0.0683704 -0.0175759 0.00242522)
(-0.0551584 -0.0206606 -0.00492245)
(-0.0560425 -0.0166543 0.00339835)
(-0.0475205 -0.0176219 -0.00349461)
(-0.0482526 -0.0121208 -0.000191566)
(-0.0362834 -0.013792 -0.00088526)
(-0.0377631 -0.0103525 9.69467e-05)
(-0.0358749 -0.0113144 -0.00119421)
(-0.0308219 -0.00811989 -0.00039558)
(-0.0355339 -0.0104851 0.000634424)
(-0.543469 2.956 -0.369497)
(0.225039 -0.347706 -0.0412032)
(0.0310124 0.575153 0.0915223)
(0.102159 0.296429 0.0421462)
(0.0629528 0.439438 -0.0466127)
(-0.213834 -0.335485 -0.0151272)
(0.0756901 0.336431 -0.0786015)
(-0.0750282 0.168182 0.0323309)
(-0.0537041 0.0907774 -0.0339879)
(0.00287743 0.175047 -0.00263114)
(-0.0532888 0.104847 0.0279171)
(-0.188303 0.0422228 0.0161463)
(-0.0996137 0.0751531 -0.00511949)
(-0.169995 0.0396609 0.00143614)
(-0.0891893 0.0555169 -0.00642983)
(-0.143664 0.0314906 0.00668587)
(-0.0912772 0.0388841 -0.011285)
(-0.115684 0.0327334 0.003873)
(-0.111512 0.010433 -0.00657324)
(-0.0965015 0.015338 0.00302669)
(-0.0990079 0.0140018 -0.00406238)
(-0.103008 -0.000184905 -0.000251346)
(-0.0983012 -0.00661883 -0.00169947)
(-0.0897716 0.00174723 -0.00328441)
(-0.0856736 -0.0276159 -0.00167851)
(-0.0763204 -0.00908213 -0.000123171)
(-0.0840771 -0.0154659 -0.00137492)
(-0.0639476 -0.0188736 -0.00135465)
(-0.0720449 -0.0172512 -0.000696679)
(-0.0625813 -0.0113348 -0.00253841)
(-0.0574969 -0.0206936 -0.000131426)
(-0.0576314 -0.00751538 -0.00166415)
(-0.0516268 -0.0135248 -0.000628056)
(-0.0466988 -0.0113308 -0.000736048)
(-0.0449596 -0.00573653 -0.000720953)
(-0.0399788 -0.00726489 -0.000975605)
(-0.0382545 -0.00232191 0.000185708)
(-0.0388036 -0.00361982 -0.000639286)
(-0.35724 2.85112 -0.277315)
(-0.00226424 -0.715141 -0.161951)
(-0.074014 0.0468638 0.0711432)
(-0.20378 -0.253198 0.0269247)
(-0.157771 -0.00514406 -0.0156721)
(-0.121083 -0.08511 -0.0834343)
(-0.336163 -0.251976 0.0430186)
(-0.173285 -0.112949 -0.0650549)
(-0.280044 -0.110147 0.0169708)
(-0.232905 -0.0856797 -0.0301789)
(-0.225541 -0.0386656 -0.0260987)
(-0.205884 -0.0252668 -0.03339)
(-0.197308 -0.011867 -0.014029)
(-0.17581 -0.0141777 -0.0238648)
(-0.107413 0.029623 0.00398557)
(-0.157374 0.0155025 -0.00656765)
(-0.0968818 0.0389146 -0.00202075)
(-0.119121 0.0357731 -0.000314048)
(-0.105372 0.00160077 -0.00379455)
(-0.118222 0.0129822 -0.00135167)
(-0.0925925 0.00981231 -0.00304704)
(-0.0995327 9.66371e-05 0.00272121)
(-0.113979 -0.0149227 -0.00533473)
(-0.083697 -0.00640691 0.00140583)
(-0.0936451 -0.0237358 -0.00533342)
(-0.0787979 -0.0189314 0.00211277)
(-0.0779675 -0.0196246 -0.00346096)
(-0.0665087 -0.0209845 0.000110356)
(-0.0696452 -0.0139847 -0.00270792)
(-0.0653796 -0.0187591 -0.000507491)
(-0.0547202 -0.0171505 -0.00194302)
(-0.065935 -0.0125183 -0.000144959)
(-0.0483341 -0.0153602 -0.00277659)
(-0.0550266 -0.0129441 0.000174885)
(-0.0478662 -0.0101742 -0.00154655)
(-0.044025 -0.0102028 -0.000439939)
(-0.0421455 -0.00656674 -0.000537527)
(-0.139344 3.1794 -0.204784)
(0.0820529 0.201536 -0.0759184)
(0.00382685 0.331326 0.0145135)
(0.0726563 0.303832 -0.109904)
(0.0186647 0.301377 -0.0263646)
(0.00627943 0.150757 -0.030101)
(0.0801858 0.295928 -0.0453861)
(0.0156216 0.248279 -0.0552923)
(0.0393954 0.180758 -0.0361773)
(0.0527274 0.178886 -0.0452952)
(0.0213539 0.170221 -0.0266784)
(0.0186858 0.143026 -0.0275797)
(0.0535735 0.141751 -0.013317)
(-0.00997869 0.0840284 0.027345)
(-0.146984 0.0255637 0.00627856)
(-0.0554041 0.0608464 -0.000992065)
(-0.152615 0.0259376 0.00166492)
(-0.0839544 0.0483969 -0.00311482)
(-0.120473 0.028795 -0.00256676)
(-0.120604 0.0131647 -0.000382382)
(-0.113282 0.0142264 -0.00138392)
(-0.109939 0.0121731 0.000205601)
(-0.0995192 0.00458004 -0.000437558)
(-0.110652 -0.0159094 -0.000159283)
(-0.0818011 -0.00606708 -0.00431586)
(-0.0831919 -0.0259156 -0.000346785)
(-0.0732713 -0.00964793 0.000276856)
(-0.0706074 -0.0210077 -0.00337453)
(-0.0650187 -0.00601665 0.000988017)
(-0.0636781 -0.0170244 -0.00301227)
(-0.0567381 -0.00971874 1.04208e-05)
(-0.0604724 -0.00852199 -0.00106208)
(-0.0544212 -0.00958013 -0.00161356)
(-0.0535576 -0.00845193 -0.000367608)
(-0.0522828 -0.00679076 -0.00127478)
(-0.0476033 -0.00746814 -0.000645323)
(-0.0472016 -0.00414349 -0.000746148)
(-0.118908 2.90205 -0.180845)
(0.0570741 -0.612108 -0.0236255)
(-0.0904541 -0.0186499 0.0298291)
(0.0343405 0.130463 0.00118778)
(-0.208559 0.0593123 0.0317991)
(-0.204408 -0.12543 0.0164675)
(-0.196865 -0.0182912 0.00151421)
(-0.165999 0.0135082 -0.00472592)
(-0.186601 0.0116905 0.00254438)
(-0.157276 0.0405833 -0.00299173)
(-0.144202 0.065771 0.0189735)
(-0.185678 0.0131336 -0.00130916)
(-0.128283 0.0478528 0.00614935)
(-0.199279 0.0158677 -0.00549829)
(-0.134565 0.0383647 -0.0123868)
(-0.140602 0.0253231 -0.000735081)
(-0.102253 0.0562714 -0.00290734)
(-0.151631 0.0193999 0.00306053)
(-0.0822373 0.0459623 -0.0035004)
(-0.137667 0.01343 0.0015172)
(-0.103941 0.0101224 -0.00139974)
(-0.12264 -0.0102383 0.00284548)
(-0.104574 -0.014312 -0.00136959)
(-0.102286 -0.0240224 -2.69976e-05)
(-0.106232 -0.0313259 0.000265725)
(-0.0829865 -0.0237688 -0.00747367)
(-0.0613836 -0.0291019 0.00388732)
(-0.0790033 -0.0122358 -0.00357132)
(-0.0532054 -0.0197821 0.000702415)
(-0.0692301 -0.00950563 -0.00354263)
(-0.0493903 -0.0160721 -1.46698e-05)
(-0.0646824 -0.00564245 -0.000901117)
(-0.0491763 -0.0111377 -0.00226176)
(-0.0567086 -0.0091945 -1.96103e-05)
(-0.0498454 -0.00672157 -0.00159306)
(-0.0517468 -0.00830634 -0.000783112)
(-0.0469554 -0.00602312 -0.000734363)
(-0.0625765 3.59596 -0.205146)
(0.180237 0.613851 -0.0895177)
(0.100593 0.394398 -0.0245408)
(0.316638 0.351718 0.0106442)
(0.0705721 0.280602 -0.00101027)
(0.214665 0.224792 -0.0629124)
(0.233956 0.244351 -0.0241658)
(0.15347 0.242468 -0.0119809)
(0.106968 0.206608 -0.0202167)
(0.0459548 0.16248 -0.0232731)
(0.0394529 0.145207 -0.0165768)
(0.0520618 0.117013 -0.0261479)
(0.0569267 0.123183 -0.0116043)
(0.0336827 0.123275 -0.00540417)
(-0.0413433 0.0606691 0.0261169)
(-0.125606 0.0343765 0.00491575)
(-0.0918301 0.0554529 0.00264521)
(-0.131685 0.0306897 -0.00122172)
(-0.0948832 0.0303019 0.00239091)
(-0.120347 0.0219348 0.00101153)
(-0.108442 0.0160206 -0.000474311)
(-0.106622 -0.00167438 0.00231478)
(-0.104875 -0.00705418 0.00295094)
(-0.0943221 -0.0102993 0.00201387)
(-0.0972103 -0.016299 0.00032293)
(-0.0834772 -0.0307889 -0.00350561)
(-0.0451006 -0.0244378 0.000826296)
(-0.0783577 -0.00885499 0.00115459)
(-0.0506297 -0.0130814 -0.00347761)
(-0.0667856 -0.00243368 -0.0005073)
(-0.0491465 -0.00940047 -0.00209929)
(-0.0629926 -0.00108022 0.000451317)
(-0.0495026 -0.0041541 -0.0032405)
(-0.0542939 -0.00423758 0.000409898)
(-0.0523076 -0.00103759 -0.00142372)
(-0.0484671 -0.00382942 -0.00129744)
(-0.0497659 -0.00186852 -0.000273062)
(-0.0117697 2.83348 -0.0667242)
(0.26765 -0.591563 -0.108082)
(-0.45433 -0.233878 0.0279153)
(-0.00209647 0.0684743 -0.0191507)
(0.00338526 0.147467 0.00478722)
(-0.0340619 0.0115948 0.0208407)
(-0.115121 0.0648532 0.0205438)
(-0.0823029 0.148649 0.00909509)
(-0.0794167 0.14654 0.0102022)
(-0.125868 0.134297 0.00738749)
(-0.08278 0.111713 0.00868537)
(-0.0922504 0.0777154 0.00915575)
(-0.0844516 0.0935346 0.0107048)
(-0.0994908 0.0718613 0.0156793)
(-0.115636 0.0438678 0.0101765)
(-0.105241 0.0486862 -0.00338293)
(-0.0781091 0.0363457 0.00158672)
(-0.0651619 0.0326059 -0.00352281)
(-0.0351928 0.0254083 -0.00163279)
(-0.0173765 0.0151689 -0.00186143)
(-0.0122488 0.00766934 -0.00247642)
(-0.0171138 -0.0235463 -0.00283155)
(-0.0302206 -0.0435979 2.43358e-05)
(-0.0582034 -0.0515277 0.000822401)
(-0.0870705 -0.057722 -0.00320485)
(-0.0693618 -0.0555802 -0.00367417)
(-0.0483597 -0.0373073 0.00317276)
(-0.0718737 -0.0123776 0.000990946)
(-0.0516219 -0.0115875 -0.00452535)
(-0.0563457 -0.00534647 0.00226626)
(-0.0563022 -0.00802803 -0.00212271)
(-0.0573763 -0.0013947 0.00056689)
(-0.0507527 -0.00362208 -0.00198475)
(-0.0517963 -0.00448218 0.00012127)
(-0.0553965 -0.0019671 -0.000414592)
(-0.0439675 -0.00225561 -0.00148565)
(-0.0526208 -0.00400387 3.97599e-05)
(-0.0729588 3.7485 0.282034)
(1.53336 1.89309 0.10693)
(0.782396 0.686013 0.0950846)
(0.47908 0.127883 0.0791562)
(0.370957 0.180028 0.0498547)
(0.295531 0.196817 0.0535744)
(0.165069 0.201633 0.0531052)
(0.134504 0.185575 0.0470864)
(0.141596 0.175707 0.0408652)
(0.154461 0.14179 0.035437)
(0.175334 0.0719672 0.0312928)
(0.111543 0.059696 0.0234107)
(0.116133 0.0748474 0.0220058)
(0.116997 0.0679449 0.0210064)
(0.12943 0.0337922 0.0145001)
(0.0902331 0.0192471 0.0103949)
(0.108536 0.015151 0.00598885)
(0.0922319 0.0138142 0.00579973)
(0.105043 0.00101046 -0.002301)
(0.127911 0.00648257 0.00389675)
(0.0896905 0.0277907 0.00515691)
(0.149099 0.0222612 -0.00828117)
(0.133921 0.0255302 0.00039952)
(0.104167 0.04828 -0.00152855)
(0.156309 0.0147714 -0.00443317)
(0.0672275 -0.0490732 0.00650617)
(-0.0325879 -0.0219189 0.00565358)
(-0.0319188 -0.0137092 0.000663518)
(-0.0594362 0.000339362 -0.00126277)
(-0.0399061 -0.00593169 -0.000238155)
(-0.0649886 0.00370847 0.000114908)
(-0.0464506 -0.00292601 -0.00164781)
(-0.054568 0.00112586 -0.000212462)
(-0.0492954 0.000943173 -0.000261853)
(-0.0544099 -0.000222885 -0.000559065)
(-0.0437577 0.000741783 -0.00130331)
(-0.0504014 0.000264881 8.09213e-05)
(-1.25242 0.900783 1.04442)
(0.380078 -3.61251 1.2818)
(0.792153 -2.4513 0.878729)
(1.54219 -1.86667 0.771215)
(1.05996 -1.15273 0.50737)
(1.1455 -0.521781 0.239972)
(0.944096 -0.387521 0.331707)
(0.740998 -0.311758 0.165337)
(0.688372 -0.276867 0.174594)
(0.687652 -0.244252 0.0833531)
(0.653141 -0.188001 0.104028)
(0.534891 -0.164 0.115689)
(0.562454 -0.160905 0.0481477)
(0.692169 -0.155691 -0.00996728)
(0.729812 -0.0259287 0.0267804)
(0.428945 0.115277 0.06872)
(0.150352 0.0908657 0.0723543)
(0.0507604 0.0318441 0.0347951)
(0.00586674 0.00945863 0.01174)
(-0.0160221 0.00177655 0.0110077)
(-0.0257791 -0.00269466 0.00252472)
(-0.0260579 -0.00304246 0.00553137)
(-0.028662 -0.00537734 0.00240193)
(-0.0222874 -0.00533876 0.00150272)
(-0.0203181 -0.00554927 0.00230126)
(-0.0132212 -0.00681428 -0.000223998)
(-0.0078864 -0.00579175 0.00264121)
(-0.000368912 -0.00660932 0.000437433)
(0.00551543 -0.00688103 0.000734294)
(0.0138505 -0.00722482 0.000229847)
(0.0207632 -0.00720188 0.000747724)
(0.0276627 -0.00668832 0.00129282)
(0.0342653 -0.00633476 0.000630742)
(0.0402355 -0.00572335 0.000547295)
(0.0455637 -0.00489007 0.000845563)
(0.0524781 -0.00343606 -0.000586555)
(0.0585352 -0.00329481 -0.00222272)
(0.0640208 -0.00463622 -0.00256998)
(1.45014 -2.48794 -1.39739)
(0.843087 -0.695924 -1.92791)
(-0.85525 0.511837 -1.30015)
(-0.57161 0.961909 -0.668627)
(-1.01947 0.192443 -0.173288)
(-0.296016 0.237564 -0.414882)
(-0.598968 0.308531 -0.0497102)
(-0.418912 -0.0544187 -0.0745167)
(-0.242641 0.0957381 -0.0798749)
(-0.259197 -0.0162241 -0.0616165)
(-0.145692 0.0011813 -0.0661922)
(-0.0935281 0.0246593 -0.0740157)
(-0.0708624 0.0492802 -0.0824294)
(-0.0541718 0.0963692 -0.0764905)
(-0.0513908 0.142297 -0.0346686)
(-0.0685454 0.147585 -0.00157177)
(-0.0469916 0.0869766 0.0283425)
(-0.0580018 0.039092 0.00950637)
(-0.053407 0.0166153 0.0062052)
(-0.0737678 0.00521241 0.00768783)
(-0.0665136 -0.00259759 0.000567979)
(-0.0719703 -0.0049867 0.00357473)
(-0.0681761 -0.00921261 0.000401389)
(-0.0643028 -0.00849337 0.0003642)
(-0.060896 -0.0108426 0.000640516)
(-0.0540188 -0.010876 0.00124763)
(-0.0491832 -0.0121592 7.40636e-06)
(-0.0410008 -0.0116159 0.000275979)
(-0.0359318 -0.0115026 -0.000465691)
(-0.02785 -0.0113686 -0.000133026)
(-0.0223579 -0.0107463 -0.00149325)
(-0.0145367 -0.00972746 -0.00132698)
(-0.00840482 -0.00902616 -0.00163958)
(-0.00143229 -0.00793245 -0.00205877)
(0.00496039 -0.00685606 -0.00228567)
(0.0117314 -0.00601244 -0.00223382)
(0.0179557 -0.00560133 -0.00175769)
(0.0238437 -0.0054353 -0.00143505)
(-0.822724 0.486012 0.323993)
(-1.54447 0.24663 0.919018)
(-0.515246 -0.851678 -0.266805)
(-0.590298 -0.413619 -0.0948007)
(0.136177 -0.653571 0.0244753)
(-0.458158 -0.100485 0.119058)
(-0.196156 -0.288498 -0.224606)
(-0.244375 -0.23923 0.174431)
(-0.192434 -0.204589 -0.105636)
(-0.166703 -0.189577 0.0394561)
(-0.17749 -0.141098 -0.00865577)
(-0.139574 -0.0842582 -0.000381831)
(-0.164921 -0.0564213 -0.00365056)
(-0.123423 -0.0164926 0.00954311)
(-0.134926 0.0349862 0.000513911)
(-0.100361 0.0707369 0.00593254)
(-0.0883485 0.0445386 0.0136213)
(-0.0873681 0.0283893 7.59463e-05)
(-0.0822955 0.00756484 0.0079893)
(-0.0899753 0.00605154 -0.0024753)
(-0.0875918 -0.0078006 0.000951958)
(-0.0873066 -0.00705739 -0.00117937)
(-0.0868612 -0.0134377 -0.000465499)
(-0.0815918 -0.0125178 -0.00272043)
(-0.0800029 -0.0160236 -0.000308723)
(-0.0718318 -0.017643 -0.000963316)
(-0.0703582 -0.0167322 -0.00229031)
(-0.0611105 -0.0176115 -0.000643954)
(-0.059365 -0.0174243 -0.00266962)
(-0.0507719 -0.0165654 -0.000920958)
(-0.0480187 -0.0166401 -0.00300569)
(-0.0397504 -0.0152842 -0.00116472)
(-0.0363464 -0.0145468 -0.00237936)
(-0.0301227 -0.0132245 -0.00270983)
(-0.0255736 -0.0120857 -0.00181223)
(-0.0204286 -0.0113898 -0.00169067)
(-0.0161342 -0.0107542 -0.00164062)
(-0.237238 0.450782 0.180153)
(0.500858 -0.770261 0.412667)
(0.161572 -0.119026 0.27909)
(-0.0602267 -0.261925 -0.0291902)
(-0.283845 0.0399013 -0.216638)
(-0.207043 0.0177335 0.11607)
(-0.252711 0.0385968 -0.0112325)
(-0.178731 0.0573845 -0.0167709)
(-0.255185 -0.00426453 -0.0177084)
(-0.218888 0.0480601 -0.0468572)
(-0.226932 0.013601 -0.0082337)
(-0.202173 0.0293953 -0.0308152)
(-0.19366 0.0445808 -0.00607327)
(-0.174005 0.0481893 -0.00647199)
(-0.154377 0.0539803 -0.0216427)
(-0.130276 0.050424 0.0117007)
(-0.101705 0.0424797 -0.00315805)
(-0.105626 0.0237416 -0.00111396)
(-0.0917369 0.0149886 0.0034388)
(-0.0992152 0.00566077 -0.00602237)
(-0.0950558 0.00206895 -0.00107766)
(-0.0935531 -0.00716128 -0.000897034)
(-0.093048 -0.00759474 -0.00349974)
(-0.0888993 -0.0125727 -0.00231804)
(-0.0869494 -0.0147012 -0.00208278)
(-0.0792026 -0.0163563 -0.000768087)
(-0.080058 -0.0168506 -0.00345832)
(-0.0711926 -0.0169718 -0.00267379)
(-0.0717708 -0.0169975 -0.000807911)
(-0.0628157 -0.0157463 -0.00384831)
(-0.062646 -0.0171775 -0.00106446)
(-0.0541086 -0.0140844 -0.00240788)
(-0.0540258 -0.0138287 -0.00306589)
(-0.0480264 -0.0132301 -0.00300972)
(-0.045136 -0.0119534 -0.00171311)
(-0.0413038 -0.0115111 -0.00272148)
(-0.0387105 -0.0110416 -0.00257509)
(-0.108551 0.624874 0.136319)
(-0.374181 -0.0622462 -0.0689258)
(-0.0672294 -0.353526 0.0410499)
(-0.409971 -0.23932 0.0513938)
(-0.22178 -0.297789 -0.0803345)
(-0.193858 -0.0386707 0.00520795)
(-0.119974 -0.164034 -0.0588815)
(-0.172682 -0.141719 -0.0127078)
(-0.132292 -0.103504 -0.0335149)
(-0.172878 -0.0918935 -0.0169556)
(-0.161232 -0.0693906 -0.0412845)
(-0.177788 -0.0413181 0.0016331)
(-0.147177 -0.0132364 -0.0216044)
(-0.15673 0.00663905 -0.00199755)
(-0.132604 0.0188912 -0.0109662)
(-0.1291 0.0346623 0.00107747)
(-0.110596 0.0291333 -0.00663301)
(-0.110261 0.0194606 -0.00403726)
(-0.103465 0.0133563 -0.00150848)
(-0.100801 0.00715105 -0.00360168)
(-0.0985548 0.000936475 -0.00535073)
(-0.0979974 -0.00530338 -0.000965481)
(-0.0933226 -0.0090352 -0.00467014)
(-0.0910117 -0.0114528 -0.00324093)
(-0.086374 -0.0165365 -0.00274378)
(-0.0793446 -0.0179925 -0.0026797)
(-0.0787229 -0.017946 -0.00299825)
(-0.0721737 -0.0191455 -0.00357629)
(-0.06885 -0.0179914 -6.18038e-05)
(-0.0653469 -0.0182973 -0.00561113)
(-0.0613315 -0.0177983 0.0007111)
(-0.0581116 -0.0161512 -0.00461077)
(-0.0560195 -0.0154249 -0.00194832)
(-0.0513237 -0.0152194 -0.00216914)
(-0.0499053 -0.0130648 -0.00132055)
(-0.0478988 -0.0129648 -0.00246181)
(-0.0465115 -0.012476 -0.00123931)
(-0.0455101 -0.0120388 -0.000737794)
(-0.0241535 1.03601 0.0931274)
(-0.258241 -0.120177 -0.0738698)
(-0.023502 0.361232 0.0928865)
(-0.0270899 0.0786825 0.0373777)
(-0.179022 0.00962155 -0.0598181)
(-0.176278 -0.0584318 0.0188289)
(-0.183129 -0.0216247 -0.0764896)
(-0.137689 0.131938 0.0199436)
(-0.162697 -0.0133744 -0.0361344)
(-0.140462 0.0989378 -0.00641214)
(-0.155104 0.0391829 0.0377761)
(-0.171532 0.0422901 -0.00760721)
(-0.143399 0.0450551 -0.00536117)
(-0.154385 0.0425634 -0.00102512)
(-0.121548 0.0355083 -0.00975897)
(-0.132138 0.0377121 0.0049261)
(-0.107912 0.0308045 -0.0119647)
(-0.116179 0.0268592 0.00103317)
(-0.108031 0.0167241 -0.00709491)
(-0.107303 0.0133074 -0.0012534)
(-0.102956 0.0070297 -0.00531602)
(-0.103239 0.000497348 -0.00223253)
(-0.0982722 -0.00410414 -0.00413698)
(-0.0946446 -0.00940371 -0.00456466)
(-0.0890206 -0.0150301 -0.00413524)
(-0.0828588 -0.0160971 -0.00181535)
(-0.0799974 -0.0150442 -0.00392269)
(-0.0728917 -0.0180016 -0.00328221)
(-0.0710651 -0.0147305 -0.00242214)
(-0.0664333 -0.0157062 -0.00468416)
(-0.0636996 -0.0144922 -0.00205603)
(-0.0602652 -0.0130923 -0.00354317)
(-0.057482 -0.0121643 -0.00283072)
(-0.054214 -0.0119792 -0.00256198)
(-0.0516762 -0.00912276 -0.00250994)
(-0.0488806 -0.00954318 -0.0024279)
(-0.0465434 -0.00737063 -0.00140132)
(-0.0452773 -0.00723163 -0.00195891)
(-0.00934678 1.12074 0.0512281)
(-0.28453 -0.131702 -0.154205)
(-0.136168 -0.0460462 0.134777)
(-0.0423003 -0.16098 -0.00744825)
(-0.146187 -0.123049 0.0224014)
(-0.0721101 -0.057519 -0.0724727)
(-0.168798 -0.153072 -0.0116586)
(-0.104855 0.0201003 -0.0143861)
(-0.154328 -0.0752185 -0.0331777)
(-0.132027 0.0104083 -0.00639222)
(-0.146716 0.00903568 -0.0312152)
(-0.144348 0.0323985 -0.0344887)
(-0.166509 0.00938519 -0.0374861)
(-0.148593 0.0111285 -0.0293233)
(-0.14086 0.0186572 0.00060697)
(-0.133932 0.0333533 -0.00939463)
(-0.120836 0.0215976 -0.00758383)
(-0.11576 0.0310835 -0.00172965)
(-0.114874 0.0130272 -0.00635854)
(-0.112123 0.0140704 -0.0032375)
(-0.108857 0.0051342 -0.00455075)
(-0.105204 -0.00145907 0.000107659)
(-0.104994 -0.00928192 -0.00587696)
(-0.0981582 -0.0138406 -0.00133943)
(-0.0920155 -0.0187751 -0.00651543)
(-0.0841133 -0.0192058 -0.000681385)
(-0.0792593 -0.0180059 -0.00462619)
(-0.0726276 -0.0186368 -0.00279312)
(-0.0701805 -0.0165054 -0.0034091)
(-0.0669478 -0.0159636 -0.00356411)
(-0.0627423 -0.0156605 -0.00302481)
(-0.0619341 -0.0134137 -0.00261104)
(-0.0577163 -0.0132358 -0.00405806)
(-0.0567416 -0.0125941 -0.00191565)
(-0.0534001 -0.0110597 -0.00308397)
(-0.0510042 -0.0107896 -0.00210882)
(-0.0486609 -0.00907985 -0.00188357)
(-0.099593 1.44118 -0.00904386)
(-0.151112 -0.126015 -0.101945)
(-0.0913768 0.186261 -0.00927548)
(-0.0692539 0.0796106 -0.0931056)
(-0.177111 0.0384062 0.0325719)
(-0.108769 -0.0173398 0.0150433)
(-0.101868 0.106872 -0.0616556)
(-0.144387 0.0481469 0.00439777)
(-0.112171 0.065348 -0.044986)
(-0.129675 0.0676082 -0.00829679)
(-0.110055 0.0393883 -0.0136499)
(-0.097586 0.0507013 -0.00581079)
(-0.103905 0.0572811 0.00416198)
(-0.093965 0.0422131 0.0396364)
(-0.137973 0.0362947 0.00212483)
(-0.0953566 0.0444418 -0.00121157)
(-0.127601 0.0297 -0.00233509)
(-0.111279 0.0351928 -0.00323722)
(-0.118194 0.0252949 -0.00516758)
(-0.122485 0.0146306 -0.00211844)
(-0.116838 0.0124821 -0.0029311)
(-0.116478 0.00481916 -0.00115903)
(-0.104861 -0.00245523 -0.000565687)
(-0.10487 -0.0108759 -0.000829476)
(-0.0910177 -0.0194105 -0.0054199)
(-0.0857478 -0.0180792 -0.00312636)
(-0.0770842 -0.0171816 -0.00150563)
(-0.0726586 -0.0173387 -0.00520733)
(-0.068027 -0.0140729 -0.00140978)
(-0.0658361 -0.0128872 -0.0051645)
(-0.0621399 -0.0126869 -0.00219791)
(-0.0605907 -0.00981302 -0.00328694)
(-0.057854 -0.0101673 -0.00368959)
(-0.056468 -0.00886125 -0.00232174)
(-0.054253 -0.00813877 -0.00319522)
(-0.0522293 -0.00764854 -0.00249838)
(-0.0505388 -0.00643443 -0.00230582)
(-0.153703 1.21576 -0.0583876)
(-0.152491 -0.203717 -0.125542)
(-0.15465 -0.0132832 0.00704899)
(-0.0237117 -0.0365223 0.0355715)
(-0.239339 -0.113503 0.0649791)
(-0.155147 -0.0996173 -0.0570669)
(-0.192766 -0.0666018 -0.00598647)
(-0.203823 -0.0497947 0.000601585)
(-0.185336 -0.0186634 -0.00950862)
(-0.193254 0.00022227 0.00201546)
(-0.147885 0.015984 0.0075225)
(-0.165251 0.0265717 0.00856951)
(-0.134241 0.0406346 0.000902891)
(-0.155101 0.0446625 -0.00962319)
(-0.154095 0.0195416 -0.0210653)
(-0.129182 0.0389321 -6.30815e-05)
(-0.134428 0.0386488 -0.00388226)
(-0.137103 0.0286465 -0.000351382)
(-0.109399 0.0297787 -0.00399456)
(-0.133407 0.0194901 0.00115838)
(-0.116764 0.00823777 -0.00519244)
(-0.123533 -0.0074113 0.0025361)
(-0.109065 -0.017173 -0.00190079)
(-0.109097 -0.0250933 0.00184483)
(-0.0991122 -0.0330306 -0.00133954)
(-0.0894979 -0.025762 -0.0101391)
(-0.073981 -0.0222365 0.00257872)
(-0.0714353 -0.0189454 -0.00534174)
(-0.06517 -0.0149419 -0.00175613)
(-0.0656121 -0.0117413 -0.00509389)
(-0.0603913 -0.012436 -0.00243606)
(-0.0606177 -0.00851614 -0.00294001)
(-0.0567082 -0.00904861 -0.00419829)
(-0.0568892 -0.00822018 -0.00190034)
(-0.0536368 -0.00735743 -0.00353098)
(-0.0527726 -0.00705982 -0.00257357)
(-0.0505336 -0.00627672 -0.00234016)
(-0.233587 1.80224 -0.116233)
(-0.0129659 0.240374 -0.0767569)
(-0.023166 0.205554 -0.00368584)
(0.157091 0.218677 -0.00817918)
(0.0355072 0.196427 -0.0246352)
(-0.00606236 0.13292 -0.0515182)
(-0.0332967 0.15224 0.00437733)
(-0.0614001 0.136101 -0.0132808)
(-0.0655673 0.110877 -0.00672104)
(-0.117755 0.0881496 -0.0128781)
(-0.107606 0.0775237 -0.0214249)
(-0.120449 0.0641008 -0.0183607)
(-0.0933251 0.0673057 -0.00342217)
(-0.101818 0.0639228 0.0168974)
(-0.0928541 0.0427532 0.0326375)
(-0.120616 0.0415872 0.00210305)
(-0.10235 0.0417796 0.00701582)
(-0.119329 0.0359761 -0.00483799)
(-0.105557 0.0246252 0.00348434)
(-0.117114 0.0208842 0.00277942)
(-0.117929 0.0151012 -0.000901871)
(-0.118056 -0.00107106 0.00423136)
(-0.110194 -0.00829852 0.00345317)
(-0.0958708 -0.0135048 0.00603382)
(-0.0992758 -0.0263737 0.00383259)
(-0.0844776 -0.0324194 -0.0083116)
(-0.068134 -0.0209361 -0.000702145)
(-0.0670886 -0.0155887 0.00109088)
(-0.0638105 -0.0118719 -0.00664603)
(-0.0639074 -0.0078104 -0.00203284)
(-0.0591155 -0.00920848 -0.00414817)
(-0.0601163 -0.00481005 -0.00201998)
(-0.0556548 -0.0057595 -0.00480847)
(-0.0568948 -0.00448386 -0.00131794)
(-0.0534495 -0.00432303 -0.00374814)
(-0.0521923 -0.00386262 -0.00285198)
(-0.0508985 -0.00323176 -0.00196502)
(-0.194299 0.721313 0.0592231)
(-0.171457 -0.353797 -0.205431)
(-0.496727 -0.231684 0.0323081)
(-0.150338 -0.0231398 -0.035234)
(-0.168912 0.0130263 0.0740528)
(-0.22142 -0.100118 0.0597404)
(-0.206987 -0.0266437 0.0190758)
(-0.194563 0.0267981 0.0204434)
(-0.184412 0.0357119 0.0280978)
(-0.191853 0.0488124 0.0200959)
(-0.163688 0.0379352 0.023237)
(-0.154655 0.0261015 0.0199495)
(-0.130687 0.0389894 0.0212487)
(-0.12258 0.0387185 0.0256495)
(-0.0990653 0.045345 0.0112176)
(-0.0893859 0.0437501 -0.000804518)
(-0.0672778 0.0358204 0.000840479)
(-0.0536133 0.0344869 -0.00497028)
(-0.0318411 0.0276597 -0.00362852)
(-0.014793 0.0198533 -0.00379381)
(-0.0104923 0.0130506 -0.00436852)
(-0.0150748 -0.0183522 0.000137993)
(-0.043267 -0.0411994 -0.00106974)
(-0.0625172 -0.048051 -0.000993782)
(-0.0874939 -0.0617747 0.00052035)
(-0.0837081 -0.0501954 -0.00315628)
(-0.0661751 -0.028103 -0.00115389)
(-0.0591342 -0.0169992 0.00501814)
(-0.0640915 -0.0111437 -0.00965769)
(-0.060246 -0.00552263 0.00247877)
(-0.0579803 -0.00810468 -0.00465818)
(-0.0598004 -0.00254948 -0.00160395)