/*--------------------------------*- C++ -*----------------------------------*\
| =========                 |                                                 |
| \\      /  F ield         | OpenFOAM: The Open Source CFD Toolbox           |
|  \\    /   O peration     | Version:  2.3.1                                 |
|   \\  /    A nd           | Web:      www.OpenFOAM.org                      |
|    \\/     M anipulation  |                                                 |
\*---------------------------------------------------------------------------*/
FoamFile
{
    version     2.0;
    format      ascii;
    class       volScalarField;
    location    "20";
    object      Sed;
}
// * * * * * * * * * * * * * * * * * * * * * * * * * * * * * * * * * * * * * //

dimensions      [0 0 0 0 0 0 0];

internalField   nonuniform List<scalar> 
303072
(
0.0235291
0.0240633
0.0250332
0.0259286
0.026547
0.0276382
0.0281487
0.0289763
0.0297368
0.0301868
0.0311731
0.0316104
0.0234974
0.0240469
0.0249045
0.0258171
0.0263696
0.0273821
0.0279295
0.0285834
0.029413
0.0297495
0.0304612
0.0308468
0.0234948
0.0240707
0.024877
0.0258041
0.0263504
0.02736
0.0279556
0.0285549
0.0293939
0.0296976
0.0303103
0.0306799
0.0234994
0.0240728
0.0248735
0.0258057
0.0263434
0.027365
0.0280022
0.028557
0.0294128
0.0297085
0.0302699
0.0306815
0.0235026
0.0240691
0.024877
0.0258033
0.0263413
0.0273741
0.0280174
0.0285601
0.029418
0.0297093
0.0302465
0.0306742
0.0235041
0.0240652
0.024881
0.0258017
0.0263415
0.0273809
0.0280229
0.0285624
0.0294213
0.0297104
0.0302392
0.0306689
0.0235041
0.0240653
0.0248809
0.0258018
0.0263415
0.0273809
0.028023
0.0285624
0.0294212
0.0297104
0.0302391
0.0306688
0.0235026
0.0240691
0.0248769
0.0258033
0.0263413
0.027374
0.0280175
0.02856
0.0294179
0.0297092
0.0302461
0.0306739
0.0234993
0.0240729
0.0248733
0.0258057
0.0263434
0.0273649
0.0280023
0.0285568
0.0294127
0.0297084
0.0302694
0.030681
0.0234948
0.0240709
0.0248768
0.0258042
0.0263504
0.0273598
0.0279557
0.0285547
0.0293938
0.0296974
0.0303097
0.0306794
0.0234974
0.0240471
0.0249042
0.0258172
0.0263695
0.027382
0.0279298
0.0285832
0.029413
0.0297493
0.0304606
0.0308464
0.0235292
0.0240634
0.0250328
0.0259288
0.0265469
0.0276381
0.028149
0.028976
0.029737
0.0301868
0.0311727
0.0316107
0.0230069
0.0230218
0.0230678
0.0231387
0.023178
0.0232955
0.023323
0.0233779
0.0234097
0.0233737
0.0233914
0.0233145
0.0230213
0.0230303
0.0230628
0.0230763
0.023037
0.0230141
0.0229233
0.022802
0.0227108
0.0224274
0.0222896
0.0220438
0.0230245
0.0230357
0.0230683
0.0230896
0.0230492
0.023022
0.0229384
0.0227694
0.0226513
0.0223073
0.0220923
0.0218177
0.0230252
0.0230353
0.0230638
0.0230871
0.0230452
0.0230222
0.0229486
0.0227759
0.0226588
0.0223095
0.0220705
0.0218169
0.0230254
0.0230346
0.0230618
0.0230854
0.0230441
0.0230223
0.0229497
0.0227765
0.0226585
0.0223038
0.0220598
0.0218174
0.0230254
0.0230343
0.0230613
0.0230854
0.0230451
0.0230238
0.0229508
0.022777
0.0226578
0.0222984
0.0220533
0.0218131
0.0230254
0.0230343
0.0230613
0.0230854
0.0230451
0.0230238
0.0229508
0.0227769
0.0226577
0.0222983
0.0220532
0.0218129
0.0230254
0.0230346
0.0230618
0.0230854
0.0230441
0.0230223
0.0229497
0.0227764
0.0226583
0.0223036
0.0220593
0.021817
0.0230252
0.0230353
0.0230638
0.0230871
0.0230452
0.0230222
0.0229485
0.0227758
0.0226585
0.0223092
0.0220698
0.0218163
0.0230245
0.0230357
0.0230683
0.0230896
0.0230492
0.023022
0.0229384
0.0227692
0.022651
0.0223069
0.0220915
0.0218171
0.0230213
0.0230303
0.0230628
0.0230763
0.023037
0.023014
0.0229233
0.0228018
0.0227106
0.0224271
0.022289
0.0220434
0.0230069
0.0230218
0.0230677
0.0231387
0.023178
0.0232955
0.0233231
0.0233779
0.0234097
0.0233737
0.0233913
0.0233146
0.0229843
0.0228845
0.0228091
0.0226929
0.0224401
0.0223026
0.0219835
0.0217072
0.0214308
0.0209057
0.0206768
0.0201952
0.0229243
0.0226577
0.0223806
0.0219937
0.0213816
0.0210105
0.0204369
0.019946
0.0195304
0.0188922
0.0185642
0.0180799
0.0229342
0.0226632
0.0223981
0.0220281
0.0214046
0.0209902
0.0204107
0.0198512
0.0193824
0.0186947
0.0182691
0.0177813
0.0229327
0.0226479
0.0223711
0.0220157
0.0213931
0.0209957
0.0204356
0.0198857
0.0194229
0.018721
0.0182759
0.0177885
0.0229318
0.0226409
0.0223585
0.0220062
0.0213868
0.0209931
0.020439
0.0198981
0.0194375
0.018731
0.018292
0.0178073
0.0229316
0.0226387
0.0223554
0.0220039
0.0213881
0.0209937
0.0204398
0.0199014
0.0194388
0.0187286
0.0182946
0.0178113
0.0229316
0.0226387
0.0223554
0.0220039
0.0213881
0.0209936
0.0204398
0.0199013
0.0194387
0.0187285
0.0182944
0.0178112
0.0229318
0.0226409
0.0223584
0.0220062
0.0213868
0.0209931
0.020439
0.0198978
0.0194371
0.0187306
0.0182914
0.0178068
0.0229327
0.0226479
0.022371
0.0220157
0.0213931
0.0209956
0.0204355
0.0198853
0.0194224
0.0187204
0.018275
0.0177878
0.0229342
0.0226632
0.022398
0.0220282
0.0214047
0.0209901
0.0204107
0.0198508
0.0193818
0.018694
0.0182682
0.0177806
0.0229243
0.0226578
0.0223805
0.0219938
0.0213817
0.0210104
0.0204369
0.0199456
0.01953
0.0188917
0.0185634
0.0180795
0.0229843
0.0228845
0.0228091
0.022693
0.0224402
0.0223026
0.0219837
0.0217072
0.021431
0.0209056
0.0206767
0.0201953
0.0222956
0.021203
0.020723
0.0200227
0.0192569
0.0188445
0.018093
0.017656
0.0171362
0.0165223
0.0162443
0.0156768
0.0218903
0.0204971
0.0193302
0.018367
0.0174903
0.0169427
0.0163366
0.0158793
0.0154957
0.015029
0.0147571
0.0143314
0.0219551
0.0204021
0.0193227
0.0183911
0.0175354
0.0169785
0.0164053
0.0159237
0.0154991
0.0149924
0.0146357
0.0142047
0.021948
0.0203032
0.0192701
0.0183982
0.0175948
0.0170835
0.0165457
0.016078
0.0156418
0.0151136
0.0147278
0.0142724
0.021942
0.0202677
0.0192423
0.0183918
0.0176177
0.0171307
0.0166109
0.0161537
0.0157155
0.0151802
0.0147936
0.0143241
0.0219396
0.0202573
0.0192332
0.0183899
0.0176273
0.017148
0.0166339
0.0161792
0.0157394
0.0152013
0.0148177
0.0143434
0.0219396
0.0202572
0.0192332
0.0183899
0.0176273
0.0171479
0.0166339
0.0161791
0.0157392
0.0152011
0.0148174
0.0143432
0.021942
0.0202676
0.0192422
0.0183918
0.0176176
0.0171305
0.0166107
0.0161533
0.0157151
0.0151797
0.014793
0.0143236
0.021948
0.0203031
0.01927
0.0183983
0.0175947
0.0170833
0.0165454
0.0160775
0.0156411
0.0151129
0.0147269
0.0142716
0.0219551
0.020402
0.0193226
0.0183911
0.0175354
0.0169783
0.016405
0.0159231
0.0154985
0.0149917
0.0146348
0.0142041
0.0218903
0.020497
0.01933
0.0183672
0.0174904
0.0169427
0.0163365
0.0158789
0.0154953
0.0150286
0.0147565
0.0143312
0.0222958
0.0212028
0.0207225
0.020023
0.0192571
0.018845
0.0180937
0.0176561
0.0171367
0.0165225
0.0162445
0.0156775
0.00357294
0.00552608
0.00669834
0.00759513
0.00856417
0.00929012
0.00963256
0.0100856
0.010429
0.0106227
0.0106178
0.0104312
0.00603408
0.00899286
0.0104083
0.0109682
0.0112911
0.0114694
0.0114674
0.0114465
0.0113996
0.0112608
0.0111021
0.0108372
0.00666726
0.00988522
0.0112477
0.0118011
0.0120314
0.0121231
0.0120722
0.0119543
0.0117868
0.0115313
0.0112999
0.0109945
0.00695276
0.010213
0.0115777
0.0121489
0.0123843
0.0124712
0.0124118
0.0122678
0.0120467
0.0117495
0.0114772
0.0111382
0.00705224
0.0103215
0.0116955
0.0122801
0.0125362
0.0126283
0.0125676
0.0124149
0.012177
0.0118633
0.0115777
0.0112193
0.00708346
0.0103541
0.0117327
0.0123235
0.0125902
0.012685
0.012624
0.0124676
0.0122239
0.0119048
0.0116167
0.0112509
0.00708344
0.010354
0.0117326
0.0123235
0.0125901
0.0126849
0.0126238
0.0124674
0.0122237
0.0119046
0.0116165
0.0112507
0.00705215
0.0103213
0.0116953
0.01228
0.012536
0.012628
0.0125673
0.0124145
0.0121765
0.0118628
0.0115771
0.0112188
0.0069526
0.0102127
0.0115774
0.0121487
0.0123841
0.0124709
0.0124114
0.0122671
0.012046
0.0117488
0.0114764
0.0111375
0.00666705
0.00988474
0.0112473
0.011801
0.0120312
0.0121228
0.0120719
0.0119537
0.0117862
0.0115306
0.0112992
0.0109939
0.0060339
0.00899232
0.0104082
0.0109685
0.0112914
0.0114696
0.0114676
0.0114464
0.0113994
0.0112606
0.0111019
0.0108373
0.00357291
0.0055259
0.00669899
0.00759631
0.00856528
0.00929146
0.00963365
0.0100865
0.01043
0.0106238
0.0106189
0.0104328
0.000561003
0.00118928
0.00182728
0.00263847
0.00355714
0.00440081
0.00514261
0.00588441
0.00644043
0.00675819
0.0067927
0.00677444
0.00121363
0.00289548
0.00439347
0.00548573
0.00639864
0.00706046
0.00748474
0.00781557
0.00803358
0.00808194
0.00806207
0.00799718
0.00157668
0.00407127
0.00563808
0.00670958
0.00747406
0.00799386
0.0082957
0.00849314
0.00857242
0.00854411
0.00848218
0.00841253
0.00172619
0.00454811
0.00618753
0.00726448
0.0079999
0.00847872
0.00873284
0.00887561
0.00888015
0.00882099
0.00871841
0.00861927
0.00179534
0.00472738
0.00640899
0.00749744
0.00823397
0.00870296
0.00894116
0.00905593
0.00904202
0.0089592
0.0088395
0.00871841
0.00182252
0.00478573
0.00648471
0.00758014
0.00831934
0.00878621
0.00901944
0.00912348
0.00910392
0.00901237
0.00888721
0.00875737
0.0018225
0.00478566
0.00648464
0.00758007
0.00831923
0.00878607
0.00901928
0.0091233
0.00910373
0.00901218
0.00888702
0.00875722
0.00179528
0.00472718
0.00640877
0.00749723
0.00823367
0.00870259
0.00894074
0.00905541
0.00904149
0.00895866
0.00883898
0.00871799
0.0017261
0.00454781
0.00618722
0.00726422
0.00799953
0.00847825
0.0087323
0.00887494
0.00887946
0.00882031
0.00871775
0.00861874
0.00157658
0.00407094
0.00563785
0.00670944
0.00747384
0.00799357
0.00829532
0.00849263
0.00857189
0.00854359
0.00848169
0.00841214
0.00121357
0.00289537
0.00439371
0.00548624
0.00639912
0.00706091
0.00748501
0.00781564
0.00803362
0.00808202
0.00806215
0.00799728
0.00056105
0.00118947
0.00182791
0.00263947
0.00355833
0.00440211
0.00514384
0.00588558
0.00644167
0.00675938
0.00679391
0.00677532
0.000169823
0.000371168
0.000653091
0.00111615
0.00170775
0.00239923
0.00309526
0.00376808
0.00423684
0.00448006
0.00472318
0.00531352
0.000376107
0.00097521
0.00168659
0.00250441
0.00334464
0.00412449
0.00471536
0.00520545
0.00554751
0.00575792
0.00594419
0.00631414
0.000554579
0.0015586
0.00248979
0.00339447
0.0042632
0.00493472
0.00543251
0.00582096
0.00608261
0.00626016
0.00644198
0.00671704
0.000651124
0.00188472
0.00293835
0.00390952
0.00477621
0.00539438
0.00584682
0.00618043
0.00639021
0.00653818
0.00669173
0.00691372
0.000700621
0.00203833
0.00315325
0.00416259
0.00502019
0.00562262
0.00605676
0.00636251
0.00655086
0.00667942
0.00681263
0.00700722
0.000721036
0.00209657
0.00323525
0.00426026
0.0051137
0.00571221
0.00613972
0.00643493
0.00661552
0.00673601
0.00686021
0.0070433
0.000721023
0.00209652
0.00323517
0.00426016
0.00511358
0.00571207
0.00613957
0.00643476
0.00661535
0.00673585
0.00686007
0.00704318
0.000700583
0.00203818
0.00315303
0.00416232
0.00501986
0.00562224
0.00605635
0.00636207
0.00655042
0.006679
0.00681225
0.0070069
0.000651072
0.00188452
0.00293808
0.00390919
0.00477582
0.00539394
0.00584632
0.00617987
0.00638967
0.00653766
0.00669125
0.00691331
0.000554532
0.00155843
0.00248963
0.00339433
0.004263
0.00493449
0.0054322
0.00582059
0.00608224
0.0062598
0.0064416
0.00671667
0.000376095
0.000975212
0.00168681
0.00250483
0.00334512
0.00412498
0.00471565
0.00520563
0.00554767
0.00575803
0.00594415
0.00631384
0.000169862
0.000371309
0.000653501
0.0011169
0.00170873
0.0024003
0.00309627
0.003769
0.00423769
0.00448076
0.00472347
0.00531293
9.34037e-05
0.000205951
0.000367913
0.000643207
0.0010198
0.00152638
0.00208706
0.00261046
0.00299556
0.00332667
0.00391583
0.00512811
0.000192854
0.000481593
0.000818067
0.00127922
0.00184122
0.0024538
0.00302633
0.00353959
0.00395326
0.00433871
0.00483957
0.00569906
0.00027965
0.00074464
0.0012111
0.00176884
0.00240479
0.00301294
0.0035552
0.00402545
0.00441625
0.00479243
0.00524565
0.00590412
0.000335771
0.000918998
0.00147598
0.00210027
0.00276875
0.0033681
0.00388644
0.00432173
0.00468456
0.00503553
0.00544575
0.00599949
0.00036815
0.00101675
0.00162427
0.00228618
0.00296903
0.00356058
0.00406588
0.00448075
0.00482664
0.00515857
0.0055398
0.00603994
0.000382473
0.00105861
0.00168734
0.00236485
0.00305218
0.00364116
0.00414097
0.0045474
0.00488604
0.0052086
0.00557606
0.00605318
0.000382464
0.00105858
0.00168729
0.00236477
0.00305208
0.00364105
0.00414085
0.00454728
0.00488592
0.00520849
0.00557596
0.0060531
0.000368125
0.00101667
0.00162414
0.00228598
0.00296878
0.00356029
0.00406557
0.00448043
0.00482632
0.00515826
0.00553952
0.00603972
0.00033574
0.000918893
0.00147582
0.00210005
0.00276846
0.00336778
0.00388608
0.00432134
0.00468418
0.00503515
0.00544538
0.00599917
0.000279625
0.000744565
0.00121102
0.00176877
0.0024047
0.00301282
0.00355502
0.00402523
0.004416
0.00479213
0.00524528
0.00590371
0.000192847
0.000481598
0.000818188
0.0012795
0.0018416
0.00245419
0.00302662
0.00353978
0.00395335
0.00433861
0.0048392
0.00569837
9.34261e-05
0.000206035
0.000368173
0.000643728
0.00102053
0.00152722
0.0020878
0.00261109
0.00299599
0.00332668
0.00391526
0.00512652
7.25909e-05
0.000156364
0.000269871
0.000457541
0.000720256
0.00106446
0.00145058
0.00184976
0.00225514
0.00277765
0.00369715
0.00571026
0.000128216
0.000324216
0.000531426
0.000818732
0.00119265
0.00164072
0.00211684
0.0025927
0.00306298
0.00360432
0.0043722
0.00560645
0.000181472
0.000473692
0.000754322
0.00110115
0.00153029
0.00200575
0.00249515
0.00297446
0.00344746
0.00397348
0.00464939
0.00561849
0.000219278
0.000580073
0.000913689
0.00130373
0.00176444
0.00225265
0.00274026
0.00320725
0.00366493
0.00416356
0.00477489
0.00560034
0.000242791
0.000645189
0.00101118
0.00142713
0.00190363
0.0023965
0.00287972
0.00333561
0.00377962
0.00425679
0.00482861
0.00557927
0.000253716
0.000675013
0.00105567
0.00148313
0.00196629
0.00246037
0.00294088
0.00339103
0.00382796
0.00429404
0.00484719
0.0055653
0.000253709
0.000674993
0.00105564
0.00148308
0.00196623
0.0024603
0.0029408
0.00339095
0.00382788
0.00429396
0.00484712
0.00556524
0.000242773
0.000645137
0.0010111
0.00142702
0.00190348
0.00239632
0.00287952
0.00333538
0.00377939
0.00425656
0.00482839
0.00557911
0.000219256
0.000580011
0.000913601
0.00130361
0.00176429
0.00225246
0.00274003
0.00320699
0.00366464
0.00416325
0.00477458
0.00560007
0.000181455
0.000473652
0.000754292
0.00110114
0.00153028
0.00200572
0.00249506
0.00297431
0.00344724
0.00397316
0.00464898
0.00561808
0.000128212
0.000324221
0.000531508
0.000818931
0.00119294
0.00164102
0.00211707
0.00259281
0.00306292
0.00360401
0.0043716
0.00560563
7.2609e-05
0.000156427
0.000270066
0.000457935
0.000720816
0.00106509
0.00145116
0.00185014
0.00225516
0.00277718
0.00369606
0.00570771
4.87708e-05
0.000106053
0.000184793
0.000313924
0.000501343
0.000754959
0.00105651
0.00141078
0.00185235
0.00250229
0.00364958
0.0061681
9.36172e-05
0.000239759
0.000393241
0.000601287
0.000878249
0.00122431
0.00162055
0.0020595
0.00256321
0.00321577
0.0041763
0.00572827
0.000130767
0.00034354
0.000546487
0.000795421
0.00111274
0.00149209
0.00191668
0.00237753
0.00289096
0.00351654
0.00435758
0.00556466
0.000158225
0.000418067
0.00065595
0.000933278
0.00127445
0.00166985
0.00210324
0.00256455
0.00306822
0.00366148
0.00442126
0.00545799
0.000175957
0.000465628
0.000725647
0.00102043
0.0013743
0.00177644
0.00221085
0.00266717
0.00315906
0.00372771
0.0044381
0.0053836
0.000184459
0.000488271
0.000758753
0.0010616
0.00142091
0.00182532
0.00225911
0.00271179
0.00319674
0.00375262
0.00443983
0.00534529
0.000184454
0.000488258
0.000758733
0.00106158
0.00142088
0.00182528
0.00225906
0.00271173
0.00319668
0.00375255
0.00443977
0.00534525
0.000175944
0.000465594
0.000725597
0.00102036
0.00137421
0.00177633
0.00221071
0.00266701
0.00315888
0.00372752
0.00443792
0.00538347
0.000158209
0.000418027
0.0006559
0.00093322
0.00127437
0.00166975
0.0021031
0.00256436
0.00306798
0.0036612
0.00442097
0.00545776
0.000130755
0.000343515
0.000546477
0.000795436
0.00111277
0.0014921
0.00191663
0.00237741
0.00289073
0.00351619
0.00435715
0.00556427
9.36128e-05
0.00023976
0.000393301
0.000601443
0.000878484
0.00122456
0.00162073
0.00205954
0.00256303
0.00321533
0.00417558
0.00572743
4.87791e-05
0.000106088
0.000184918
0.000314196
0.000501754
0.000755422
0.00105689
0.00141094
0.00185216
0.00250161
0.00364823
0.00616549
3.92081e-05
8.48168e-05
0.000144608
0.000241594
0.000381383
0.000571063
0.000811836
0.00111316
0.0015226
0.00222488
0.00356509
0.00634331
7.15465e-05
0.000185347
0.000303766
0.000463599
0.000680937
0.000960399
0.00129922
0.00170597
0.00222078
0.00294469
0.00405778
0.00582915
9.8968e-05
0.000263001
0.000420877
0.000615392
0.000868068
0.00118305
0.00155668
0.00199373
0.00252314
0.00321373
0.00418188
0.00557884
0.000119962
0.00031994
0.000504737
0.000721312
0.000993728
0.00132551
0.00171224
0.00215568
0.00267795
0.00333158
0.00420308
0.00540909
0.000133871
0.000356991
0.000558751
0.000788593
0.00107148
0.00141051
0.00180082
0.00224251
0.002754
0.00337996
0.00419305
0.00529568
0.000140678
0.000374974
0.000584839
0.000820847
0.0011082
0.00144979
0.00184058
0.00227991
0.00278467
0.00339628
0.00418206
0.00523932
0.000140674
0.000374965
0.000584826
0.00082083
0.00110818
0.00144976
0.00184054
0.00227986
0.00278461
0.00339622
0.00418201
0.00523928
0.000133862
0.000356968
0.000558719
0.000788553
0.00107142
0.00141044
0.00180073
0.00224238
0.00275385
0.00337978
0.00419288
0.00529558
0.000119951
0.000319913
0.000504707
0.000721282
0.000993691
0.00132545
0.00171214
0.00215552
0.00267773
0.00333131
0.00420279
0.00540889
9.89595e-05
0.000262985
0.000420876
0.000615419
0.000868111
0.00118308
0.00155666
0.00199361
0.0025229
0.00321337
0.00418144
0.00557846
7.15428e-05
0.000185348
0.000303814
0.00046373
0.000681142
0.000960623
0.00129938
0.00170599
0.00222056
0.00294419
0.00405702
0.00582833
3.92141e-05
8.48427e-05
0.000144704
0.00024181
0.000381706
0.000571431
0.000812143
0.0011133
0.00152243
0.00222417
0.00356361
0.00634071
2.68643e-05
5.80171e-05
9.95039e-05
0.00016753
0.000271204
0.000414854
0.000600275
0.000852444
0.00123696
0.0019385
0.00333999
0.0063321
5.44257e-05
0.000141771
0.00023294
0.00035778
0.000531172
0.000760711
0.0010517
0.00142442
0.00193159
0.00268714
0.0038908
0.00583785
7.58234e-05
0.000203456
0.00032839
0.000484731
0.000692095
0.000958853
0.00128962
0.00169928
0.00222708
0.00295247
0.00400525
0.00555563
9.24384e-05
0.000249048
0.000396671
0.000572458
0.000798346
0.001083
0.00142996
0.00185001
0.00237329
0.00306019
0.00400759
0.00534538
0.000103624
0.000279029
0.000440825
0.000628054
0.000863657
0.00115628
0.00150872
0.00192927
0.00244289
0.00310024
0.0039829
0.0052057
0.00010917
0.000293737
0.000462307
0.000654819
0.000894552
0.00119009
0.00154386
0.00196303
0.00247029
0.00311222
0.00396449
0.00513686
0.000109167
0.000293731
0.000462298
0.000654808
0.000894537
0.00119007
0.00154383
0.001963
0.00247024
0.00311217
0.00396444
0.00513682
0.000103617
0.000279012
0.000440804
0.000628029
0.000863624
0.00115623
0.00150865
0.00192916
0.00244275
0.00310007
0.00398274
0.0052056
9.24304e-05
0.00024903
0.000396653
0.000572445
0.000798331
0.00108296
0.00142989
0.00184988
0.00237309
0.00305992
0.00400731
0.00534519
7.58173e-05
0.000203446
0.000328395
0.000484764
0.000692149
0.000958898
0.00128961
0.00169918
0.00222684
0.00295211
0.00400481
0.00555528
5.44226e-05
0.000141771
0.00023298
0.000357893
0.000531358
0.000760924
0.00105186
0.00142443
0.00193137
0.00268663
0.00389006
0.00583706
2.68674e-05
5.80316e-05
9.95692e-05
0.000167692
0.00027147
0.000415175
0.000600559
0.000852568
0.00123677
0.00193781
0.00333856
0.0063296
2.10067e-05
4.56536e-05
7.77566e-05
0.000128864
0.000204216
0.000310376
0.000456369
0.000667008
0.000999653
0.00163077
0.00297273
0.00578797
4.17391e-05
0.000109206
0.000179863
0.000277111
0.000414851
0.000602066
0.000849258
0.00118268
0.00166105
0.00240438
0.00362507
0.00562817
5.84669e-05
0.000157964
0.000256832
0.000382662
0.000553169
0.000778636
0.0010688
0.00144499
0.00195326
0.00268007
0.00376435
0.00538941
7.17918e-05
0.000194969
0.000313326
0.000457058
0.000645823
0.000890468
0.00119955
0.00158995
0.00209779
0.00278936
0.00376911
0.00517767
8.09043e-05
0.000219629
0.000350238
0.000504489
0.000702932
0.000956539
0.00127293
0.00166609
0.00216613
0.00282861
0.00374183
0.00503047
8.54702e-05
0.000231838
0.000368321
0.000527419
0.000730008
0.000987042
0.00130566
0.00169847
0.00219288
0.00283985
0.00372142
0.00495703
8.54683e-05
0.000231833
0.000368315
0.000527412
0.000729999
0.000987027
0.00130564
0.00169844
0.00219283
0.0028398
0.00372137
0.00495699
8.08995e-05
0.000219617
0.000350224
0.000504475
0.000702914
0.000956508
0.00127288
0.001666
0.002166
0.00282845
0.00374167
0.00503037
7.17861e-05
0.000194957
0.000313317
0.000457056
0.000645823
0.000890455
0.0011995
0.00158984
0.00209761
0.00278911
0.00376884
0.00517749
5.84626e-05
0.000157958
0.000256842
0.000382698
0.000553228
0.000778694
0.00106881
0.00144491
0.00195305
0.00267972
0.00376393
0.00538907
4.1737e-05
0.000109208
0.000179897
0.000277209
0.000415019
0.000602267
0.000849419
0.00118271
0.00166085
0.0024039
0.00362438
0.00562744
2.10088e-05
4.56639e-05
7.78074e-05
0.000128991
0.000204423
0.00031063
0.000456596
0.000667111
0.000999512
0.00163022
0.00297149
0.00578585
1.45307e-05
3.10947e-05
5.3469e-05
9.07673e-05
0.000148251
0.000230253
0.000343209
0.000506516
0.000776114
0.00130826
0.00248666
0.00507092
3.16572e-05
8.31608e-05
0.000137663
0.000213775
0.000323042
0.000474706
0.00068123
0.000970688
0.00140232
0.00209458
0.00326072
0.00521127
4.50094e-05
0.000122328
0.00020044
0.000301491
0.00044084
0.000629365
0.000879578
0.00121606
0.0016875
0.00238216
0.00344197
0.00505781
5.5792e-05
0.000152551
0.00024734
0.000364635
0.000521633
0.000729895
0.00100089
0.00135496
0.00183118
0.00249811
0.00346295
0.00487213
6.32652e-05
0.000172959
0.000278378
0.000405398
0.000572045
0.000790067
0.00106994
0.00142899
0.00190013
0.00254095
0.0034422
0.00473318
6.70433e-05
0.000183149
0.000293705
0.000425242
0.000596101
0.000818031
0.00110097
0.00146075
0.00192742
0.00255379
0.00342416
0.00466217
6.70419e-05
0.000183146
0.000293701
0.000425238
0.000596095
0.000818022
0.00110095
0.00146073
0.00192738
0.00255374
0.00342411
0.00466213
6.32617e-05
0.000172951
0.000278369
0.000405392
0.000572037
0.000790049
0.0010699
0.00142892
0.00190002
0.00254081
0.00344206
0.00473308
5.5788e-05
0.000152543
0.000247337
0.000364641
0.000521645
0.000729898
0.00100086
0.00135487
0.00183103
0.00249788
0.0034627
0.00487194
4.50064e-05
0.000122325
0.000200451
0.000301529
0.000440902
0.000629431
0.000879608
0.00121601
0.00168732
0.00238184
0.00344158
0.00505748
3.16556e-05
8.31629e-05
0.000137693
0.00021386
0.000323192
0.000474892
0.000681389
0.000970734
0.00140217
0.00209417
0.0032601
0.00521063
1.45318e-05
3.11015e-05
5.3505e-05
9.08649e-05
0.000148418
0.000230465
0.000343411
0.000506629
0.000776034
0.00130785
0.00248567
0.00506944
1.08595e-05
2.38972e-05
4.13578e-05
6.93167e-05
0.000110797
0.00017
0.000254994
0.000384994
0.000601126
0.00102058
0.00195788
0.00418294
2.39056e-05
6.30789e-05
0.000105306
0.000164878
0.000251113
0.000372523
0.000541957
0.000786463
0.00116089
0.00177432
0.00282867
0.00463857
3.45175e-05
9.43646e-05
0.000156002
0.000236928
0.000349974
0.00050559
0.000717229
0.00101003
0.00143154
0.0020667
0.00305426
0.00458834
4.3259e-05
0.000119039
0.0001948
0.000290142
0.000419671
0.000594629
0.000827714
0.00114047
0.00157203
0.00218932
0.0030975
0.00444425
4.93973e-05
0.000135934
0.000220849
0.000325032
0.000463899
0.000648929
0.00089192
0.00121158
0.0016412
0.00223722
0.00308844
0.0043238
5.25258e-05
0.000144438
0.000233822
0.000342169
0.000485201
0.000674432
0.000921125
0.00124253
0.00166912
0.00225268
0.00307548
0.00426005
5.25248e-05
0.000144436
0.00023382
0.000342167
0.000485199
0.000674427
0.000921114
0.00124251
0.00166909
0.00225263
0.00307544
0.00426001
4.93948e-05
0.000135929
0.000220844
0.000325031
0.000463899
0.000648922
0.000891896
0.00121152
0.00164111
0.00223709
0.00308831
0.00432369
4.32563e-05
0.000119035
0.0001948
0.000290153
0.00041969
0.000594644
0.000827704
0.00114041
0.0015719
0.00218912
0.00309727
0.00444406
3.45156e-05
9.43639e-05
0.000156015
0.000236965
0.000350036
0.000505659
0.000717271
0.00101
0.00143139
0.00206643
0.0030539
0.00458803
2.39048e-05
6.30823e-05
0.000105333
0.000164951
0.000251244
0.00037269
0.000542108
0.00078652
0.00116077
0.00177398
0.00282814
0.00463803
1.08602e-05
2.39019e-05
4.13857e-05
6.93932e-05
0.000110927
0.000170171
0.000255162
0.00038509
0.000601076
0.0010203
0.00195729
0.0041819
7.38527e-06
1.58588e-05
2.79277e-05
4.8299e-05
7.98233e-05
0.000125537
0.000190622
0.000287926
0.000448354
0.000757486
0.00146754
0.00320922
1.78213e-05
4.72372e-05
7.97587e-05
0.000126327
0.000194084
0.000290387
0.00042702
0.000627973
0.000940929
0.00146073
0.00236863
0.00396504
2.62983e-05
7.23468e-05
0.00012088
0.000185504
0.000276523
0.000403333
0.000578973
0.000827132
0.00119142
0.00174936
0.00263027
0.00402454
3.33905e-05
9.24869e-05
0.0001529
0.000230081
0.000336032
0.000481018
0.000677691
0.000947036
0.00132585
0.00187627
0.00269698
0.00393147
3.84319e-05
0.000106457
0.000174691
0.000259749
0.000374447
0.000529331
0.000736335
0.00101401
0.00139402
0.00192899
0.00270196
0.00383639
4.10198e-05
0.00011354
0.000185629
0.000274455
0.000393139
0.000552289
0.000763374
0.00104362
0.00142216
0.00194725
0.00269554
0.00378328
4.10191e-05
0.000113539
0.000185628
0.000274455
0.000393139
0.000552287
0.000763367
0.00104361
0.00142213
0.00194721
0.0026955
0.00378325
3.84303e-05
0.000106454
0.00017469
0.000259751
0.000374451
0.000529332
0.000736322
0.00101397
0.00139395
0.00192888
0.00270184
0.00383628
3.33887e-05
9.24845e-05
0.000152904
0.000230095
0.000336055
0.000481041
0.000677694
0.000946995
0.00132574
0.0018761
0.00269677
0.00393128
2.62972e-05
7.23475e-05
0.000120893
0.000185539
0.000276582
0.000403402
0.000579021
0.000827119
0.0011913
0.00174913
0.00262997
0.00402425
1.78211e-05
4.72411e-05
7.97819e-05
0.000126389
0.000194197
0.000290535
0.000427158
0.000628036
0.000940847
0.00146046
0.00236819
0.00396458
7.38586e-06
1.58622e-05
2.79481e-05
4.83583e-05
7.99266e-05
0.000125674
0.00019076
0.000288019
0.000448339
0.00075731
0.00146717
0.00320864
5.20453e-06
1.15903e-05
2.09679e-05
3.61096e-05
5.82214e-05
9.02534e-05
0.000136803
0.000209183
0.000330749
0.00055784
0.00106558
0.00229708
1.31334e-05
3.50148e-05
6.00333e-05
9.62873e-05
0.000149049
0.000224362
0.00033248
0.000493624
0.000747179
0.00117111
0.00191753
0.00325317
1.98726e-05
5.50441e-05
9.31521e-05
0.000144547
0.000217215
0.000319203
0.000462309
0.000667551
0.000972854
0.00144548
0.00219978
0.00341292
2.56178e-05
7.14485e-05
0.000119489
0.000181679
0.000267572
0.000386118
0.000549066
0.000775632
0.00109868
0.00157323
0.00228762
0.00337472
2.97525e-05
8.29779e-05
0.000137653
0.000206747
0.000300616
0.000428525
0.000601724
0.000837508
0.00116453
0.00162966
0.00230708
0.00330944
3.18886e-05
8.88617e-05
0.000146838
0.000219283
0.000316857
0.000448912
0.000626335
0.000865321
0.00119234
0.00165043
0.00230778
0.0032694
3.18882e-05
8.88608e-05
0.000146838
0.000219283
0.000316859
0.000448912
0.000626331
0.00086531
0.00119232
0.00165039
0.00230774
0.00326937
2.97514e-05
8.2976e-05
0.000137654
0.000206752
0.000300624
0.000428531
0.00060172
0.000837482
0.00116447
0.00162957
0.00230697
0.00330933
2.56167e-05
7.14475e-05
0.000119494
0.000181694
0.000267597
0.000386145
0.000549078
0.000775608
0.0010986
0.00157309
0.00228743
0.00337453
1.9872e-05
5.50456e-05
9.31646e-05
0.00014458
0.00021727
0.000319268
0.00046236
0.000667553
0.000972772
0.0014453
0.00219952
0.00341264
1.31335e-05
3.50186e-05
6.00531e-05
9.63396e-05
0.000149144
0.000224489
0.000332604
0.000493689
0.000747127
0.0011709
0.00191717
0.00325278
5.20498e-06
1.1593e-05
2.09833e-05
3.61538e-05
5.83e-05
9.03623e-05
0.000136917
0.000209263
0.000330753
0.000557739
0.00106534
0.00229675
3.37696e-06
7.35933e-06
1.37981e-05
2.47996e-05
4.12474e-05
6.50124e-05
0.000100056
0.000153321
0.000239468
0.000398519
0.000726664
0.00152493
9.51761e-06
2.55145e-05
4.46251e-05
7.26846e-05
0.00011342
0.000171644
0.000255832
0.000382164
0.000581572
0.000914953
0.00150138
0.00256252
1.4866e-05
4.14748e-05
7.1276e-05
0.00011192
0.000169395
0.000250347
0.00036492
0.000530872
0.00077968
0.00116693
0.0017883
0.00279839
1.95139e-05
5.4808e-05
9.28666e-05
0.00014269
0.000211663
0.000307314
0.000440007
0.0006265
0.00089486
0.00129168
0.00189217
0.00281245
2.28995e-05
6.43011e-05
0.000107953
0.00016375
0.000239835
0.00034408
0.000486562
0.000682644
0.000957161
0.00135014
0.0019248
0.00277835
2.46588e-05
6.91766e-05
0.000115636
0.000174367
0.000253815
0.000361955
0.000508609
0.000708291
0.000984075
0.00137278
0.00193237
0.00275259
2.46585e-05
6.91761e-05
0.000115636
0.000174368
0.000253817
0.000361957
0.000508608
0.000708284
0.00098406
0.00137276
0.00193233
0.00275256
2.28987e-05
6.43001e-05
0.000107954
0.000163756
0.000239844
0.000344089
0.000486563
0.000682628
0.000957119
0.00135007
0.0019247
0.00277825
1.95132e-05
5.48079e-05
9.28718e-05
0.000142705
0.000211687
0.000307342
0.000440025
0.000626488
0.000894801
0.00129156
0.00189201
0.00281228
1.48658e-05
4.14767e-05
7.12874e-05
0.000111949
0.000169443
0.000250407
0.00036497
0.000530883
0.000779623
0.00116679
0.00178808
0.00279815
9.51784e-06
2.55179e-05
4.46416e-05
7.27278e-05
0.000113499
0.000171751
0.000255939
0.000382227
0.000581542
0.000914795
0.0015011
0.0025622
3.37727e-06
7.36109e-06
1.38092e-05
2.48327e-05
4.13069e-05
6.50948e-05
0.000100143
0.000153387
0.000239485
0.000398449
0.000726498
0.00152484
2.18175e-06
5.02219e-06
9.95927e-06
1.79882e-05
2.96829e-05
4.66537e-05
7.08827e-05
0.000107849
0.000169006
0.000275957
0.0004903
0.00100522
6.77399e-06
1.82692e-05
3.28142e-05
5.43518e-05
8.54306e-05
0.000129813
0.000194189
0.000291067
0.000443841
0.000697649
0.00114127
0.00194526
1.09944e-05
3.08893e-05
5.40789e-05
8.59814e-05
0.000130962
0.000194364
0.000284554
0.000415939
0.000613591
0.000921378
0.00141516
0.0022209
1.47471e-05
4.16925e-05
7.16941e-05
0.000111323
0.00016614
0.00024231
0.000348605
0.000499057
0.000716708
0.00103936
0.00152799
0.00227795
1.75159e-05
4.94887e-05
8.41685e-05
0.000128906
0.000189948
0.000273808
0.000389155
0.000549104
0.000774384
0.00109785
0.00157093
0.00227282
1.89626e-05
5.35175e-05
9.0568e-05
0.000137841
0.000201872
0.000289291