/*--------------------------------*- C++ -*----------------------------------*\
| =========                 |                                                 |
| \\      /  F ield         | OpenFOAM: The Open Source CFD Toolbox           |
|  \\    /   O peration     | Version:  2.3.1                                 |
|   \\  /    A nd           | Web:      www.OpenFOAM.org                      |
|    \\/     M anipulation  |                                                 |
\*---------------------------------------------------------------------------*/
FoamFile
{
    version     2.0;
    format      ascii;
    class       volScalarField;
    location    "20";
    object      Sed_0;
}
// * * * * * * * * * * * * * * * * * * * * * * * * * * * * * * * * * * * * * //

dimensions      [0 0 0 0 0 0 0];

internalField   nonuniform List<scalar> 
303072
(
0.0235289
0.0240628
0.025034
0.0259283
0.0265475
0.0276382
0.0281481
0.0289765
0.029736
0.0301869
0.0311737
0.0316096
0.0234973
0.0240465
0.0249053
0.025817
0.0263697
0.0273823
0.0279288
0.0285838
0.0294126
0.0297491
0.0304616
0.0308461
0.0234948
0.0240702
0.0248777
0.025804
0.0263506
0.0273604
0.0279548
0.0285552
0.0293936
0.0296971
0.0303106
0.0306795
0.0234994
0.0240722
0.0248741
0.0258055
0.0263436
0.0273655
0.0280014
0.0285572
0.0294125
0.029708
0.0302702
0.030681
0.0235026
0.0240685
0.0248777
0.0258031
0.0263415
0.0273747
0.0280166
0.0285603
0.0294176
0.0297087
0.0302468
0.0306737
0.0235041
0.0240647
0.0248816
0.0258016
0.0263417
0.0273815
0.0280221
0.0285626
0.0294209
0.0297098
0.0302395
0.0306684
0.0235041
0.0240647
0.0248816
0.0258016
0.0263417
0.0273815
0.0280221
0.0285625
0.0294209
0.0297097
0.0302394
0.0306682
0.0235026
0.0240686
0.0248776
0.0258031
0.0263415
0.0273746
0.0280166
0.0285602
0.0294175
0.0297086
0.0302464
0.0306734
0.0234994
0.0240724
0.024874
0.0258055
0.0263436
0.0273654
0.0280015
0.028557
0.0294124
0.0297078
0.0302697
0.0306806
0.0234948
0.0240704
0.0248775
0.0258041
0.0263506
0.0273602
0.027955
0.028555
0.0293934
0.0296969
0.03031
0.030679
0.0234974
0.0240467
0.0249049
0.0258171
0.0263697
0.0273822
0.027929
0.0285835
0.0294126
0.029749
0.030461
0.0308458
0.023529
0.024063
0.0250336
0.0259286
0.0265473
0.0276382
0.0281484
0.0289763
0.0297363
0.0301868
0.0311732
0.0316098
0.0230069
0.0230218
0.0230679
0.0231386
0.023178
0.0232956
0.0233229
0.0233778
0.0234095
0.0233737
0.0233914
0.0233142
0.0230213
0.0230302
0.0230629
0.0230762
0.0230369
0.023014
0.022923
0.0228021
0.0227107
0.0224271
0.0222895
0.0220435
0.0230245
0.0230357
0.0230683
0.0230895
0.0230492
0.023022
0.0229381
0.0227695
0.0226512
0.0223068
0.0220923
0.0218172
0.0230252
0.0230353
0.0230638
0.023087
0.0230451
0.0230222
0.0229484
0.0227759
0.0226587
0.022309
0.0220706
0.0218164
0.0230254
0.0230346
0.0230618
0.0230853
0.023044
0.0230223
0.0229495
0.0227765
0.0226584
0.0223032
0.0220599
0.0218169
0.0230254
0.0230342
0.0230614
0.0230854
0.0230451
0.0230238
0.0229506
0.0227769
0.0226576
0.0222977
0.0220534
0.0218126
0.0230254
0.0230342
0.0230614
0.0230854
0.0230451
0.0230238
0.0229505
0.0227769
0.0226575
0.0222977
0.0220533
0.0218125
0.0230254
0.0230346
0.0230618
0.0230853
0.023044
0.0230223
0.0229495
0.0227763
0.0226582
0.022303
0.0220595
0.0218165
0.0230252
0.0230353
0.0230638
0.023087
0.0230452
0.0230222
0.0229484
0.0227757
0.0226584
0.0223086
0.0220699
0.0218158
0.0230245
0.0230357
0.0230683
0.0230895
0.0230492
0.023022
0.0229381
0.0227692
0.0226509
0.0223064
0.0220916
0.0218167
0.0230213
0.0230303
0.0230629
0.0230763
0.0230369
0.023014
0.022923
0.0228018
0.0227105
0.0224268
0.022289
0.0220431
0.0230069
0.0230218
0.0230678
0.0231386
0.023178
0.0232956
0.023323
0.0233778
0.0234095
0.0233736
0.0233913
0.0233143
0.0229842
0.0228846
0.0228093
0.0226928
0.0224401
0.0223025
0.0219831
0.0217073
0.0214302
0.0209056
0.0206769
0.0201948
0.0229243
0.0226577
0.0223808
0.0219932
0.0213814
0.0210104
0.0204364
0.019946
0.01953
0.0188919
0.0185644
0.0180795
0.0229342
0.0226632
0.0223983
0.0220276
0.0214043
0.0209903
0.0204103
0.0198512
0.019382
0.0186942
0.0182693
0.0177809
0.0229327
0.0226478
0.0223713
0.0220153
0.0213928
0.0209958
0.0204352
0.0198856
0.0194224
0.0187205
0.018276
0.0177881
0.0229318
0.0226409
0.0223588
0.0220058
0.0213865
0.0209932
0.0204386
0.0198981
0.0194369
0.0187304
0.0182921
0.0178069
0.0229316
0.0226387
0.0223557
0.0220035
0.0213879
0.0209937
0.0204394
0.0199014
0.0194382
0.018728
0.0182947
0.0178109
0.0229316
0.0226387
0.0223556
0.0220035
0.0213879
0.0209937
0.0204393
0.0199013
0.0194381
0.0187279
0.0182945
0.0178107
0.0229318
0.0226409
0.0223587
0.0220059
0.0213866
0.0209931
0.0204386
0.0198978
0.0194366
0.01873
0.0182915
0.0178063
0.0229327
0.0226478
0.0223713
0.0220153
0.0213929
0.0209957
0.0204351
0.0198852
0.0194219
0.0187199
0.0182751
0.0177874
0.0229342
0.0226632
0.0223982
0.0220277
0.0214044
0.0209901
0.0204102
0.0198507
0.0193814
0.0186936
0.0182684
0.0177802
0.0229243
0.0226577
0.0223807
0.0219933
0.0213815
0.0210103
0.0204364
0.0199456
0.0195296
0.0188914
0.0185636
0.0180791
0.0229842
0.0228845
0.0228092
0.0226929
0.0224401
0.0223026
0.0219833
0.0217072
0.0214304
0.0209055
0.0206767
0.0201949
0.022295
0.0212034
0.020724
0.0200224
0.019257
0.0188441
0.0180923
0.0176558
0.0171353
0.0165222
0.0162444
0.0156766
0.0218903
0.0204972
0.0193304
0.0183665
0.01749
0.0169425
0.0163361
0.0158791
0.0154953
0.0150289
0.0147572
0.014331
0.0219552
0.0204023
0.019323
0.0183907
0.0175352
0.0169784
0.0164049
0.0159235
0.0154987
0.0149921
0.0146357
0.0142044
0.0219481
0.0203034
0.0192705
0.0183979
0.0175946
0.0170834
0.0165453
0.0160778
0.0156413
0.0151133
0.0147278
0.014272
0.0219421
0.0202679
0.0192426
0.0183915
0.0176176
0.0171306
0.0166105
0.0161534
0.015715
0.0151798
0.0147935
0.0143237
0.0219397
0.0202575
0.0192336
0.0183896
0.0176272
0.0171479
0.0166335
0.016179
0.0157387
0.0152008
0.0148176
0.014343
0.0219397
0.0202574
0.0192336
0.0183896
0.0176272
0.0171478
0.0166334
0.0161788
0.0157386
0.0152006
0.0148173
0.0143428
0.0219421
0.0202678
0.0192425
0.0183915
0.0176175
0.0171305
0.0166103
0.016153
0.0157145
0.0151793
0.0147929
0.0143232
0.0219481
0.0203034
0.0192703
0.0183979
0.0175946
0.0170832
0.0165451
0.0160772
0.0156406
0.0151125
0.0147269
0.0142712
0.0219552
0.0204022
0.0193229
0.0183907
0.0175352
0.0169782
0.0164046
0.0159229
0.015498
0.0149914
0.0146349
0.0142038
0.0218903
0.0204972
0.0193303
0.0183667
0.0174901
0.0169425
0.016336
0.0158787
0.0154949
0.0150284
0.0147567
0.0143309
0.0222952
0.0212032
0.0207235
0.0200227
0.0192571
0.0188447
0.018093
0.0176559
0.0171358
0.0165224
0.0162445
0.0156773
0.00357299
0.00552668
0.00669841
0.00759478
0.00856414
0.0092894
0.00963197
0.0100855
0.010429
0.010623
0.010618
0.0104311
0.00603409
0.00899392
0.0104088
0.0109681
0.0112911
0.0114692
0.0114671
0.0114462
0.0113994
0.0112608
0.0111021
0.010837
0.00666731
0.00988603
0.0112483
0.0118011
0.0120314
0.0121229
0.0120719
0.011954
0.0117865
0.0115311
0.0112998
0.0109942
0.00695272
0.0102137
0.0115783
0.0121489
0.0123844
0.0124711
0.0124115
0.0122675
0.0120463
0.0117492
0.0114771
0.0111379
0.00705217
0.0103221
0.0116961
0.0122801
0.0125362
0.0126281
0.0125673
0.0124145
0.0121765
0.011863
0.0115775
0.011219
0.00708338
0.0103547
0.0117332
0.0123236
0.0125902
0.0126848
0.0126236
0.0124672
0.0122233
0.0119044
0.0116165
0.0112506
0.00708335
0.0103547
0.0117331
0.0123235
0.0125902
0.0126847
0.0126235
0.012467
0.0122231
0.0119042
0.0116163
0.0112504
0.00705208
0.0103219
0.0116959
0.01228
0.012536
0.0126278
0.012567
0.0124141
0.012176
0.0118624
0.0115769
0.0112185
0.00695256
0.0102134
0.0115779
0.0121488
0.0123841
0.0124707
0.0124111
0.0122668
0.0120455
0.0117485
0.0114762
0.0111372
0.0066671
0.00988555
0.0112479
0.011801
0.0120312
0.0121226
0.0120716
0.0119534
0.0117858
0.0115304
0.0112991
0.0109937
0.0060339
0.00899338
0.0104087
0.0109684
0.0112914
0.0114694
0.0114672
0.0114462
0.0113993
0.0112606
0.011102
0.0108371
0.00357296
0.0055265
0.00669906
0.00759597
0.00856524
0.00929074
0.00963306
0.0100864
0.01043
0.0106241
0.0106191
0.0104326
0.000561039
0.00118944
0.00182735
0.00263855
0.00355726
0.00440077
0.00514278
0.00588476
0.00644079
0.00675855
0.00679293
0.00677481
0.00121376
0.00289593
0.00439371
0.00548575
0.00639867
0.00706031
0.00748459
0.00781558
0.00803358
0.00808198
0.00806215
0.00799728
0.00157684
0.00407177
0.00563836
0.00670961
0.00747407
0.00799371
0.00829548
0.008493
0.00857224
0.00854399
0.00848216
0.00841259
0.00172634
0.0045486
0.00618783
0.00726452
0.0079999
0.00847855
0.00873255
0.00887536
0.00887987
0.00882077
0.0087183
0.00861927
0.00179549
0.00472785
0.00640928
0.00749749
0.00823395
0.00870276
0.00894082
0.00905561
0.00904168
0.00895892
0.00883933
0.00871836
0.00182267
0.0047862
0.00648501
0.00758019
0.00831931
0.00878598
0.00901907
0.00912313
0.00910355
0.00901207
0.00888702
0.00875729
0.00182265
0.00478614
0.00648494
0.00758012
0.0083192
0.00878585
0.00901891
0.00912294
0.00910335
0.00901187
0.00888682
0.00875713
0.00179544
0.00472766
0.00640906
0.00749728
0.00823365
0.00870239
0.0089404
0.00905509
0.00904115
0.00895838
0.00883881
0.00871794
0.00172626
0.00454829
0.00618751
0.00726426
0.00799953
0.00847808
0.00873201
0.00887469
0.00887918
0.00882009
0.00871764
0.00861874
0.00157674
0.00407144
0.00563812
0.00670948
0.00747385
0.00799342
0.0082951
0.00849248
0.00857171
0.00854347
0.00848167
0.00841219
0.0012137
0.00289583
0.00439395
0.00548625
0.00639915
0.00706077
0.00748486
0.00781565
0.00803362
0.00808205
0.00806223
0.00799738
0.000561086
0.00118963
0.00182799
0.00263955
0.00355844
0.00440207
0.00514401
0.00588593
0.00644203
0.00675974
0.00679415
0.00677569
0.000169841
0.000371231
0.000653184
0.00111631
0.00170801
0.00239955
0.00309575
0.00376865
0.00423742
0.0044807
0.00472402
0.005315
0.000376161
0.000975376
0.00168676
0.00250455
0.00334478
0.00412456
0.00471548
0.00520564
0.00554769
0.00575818
0.0059446
0.00631492
0.000554653
0.00155883
0.00248998
0.00339459
0.00426328
0.0049347
0.00543248
0.00582098
0.00608263
0.00626029
0.00644225
0.0067176
0.000651205
0.00188497
0.00293855
0.00390961
0.00477624
0.0053943
0.0058467
0.00618033
0.00639013
0.00653821
0.00669192
0.00691413
0.000700705
0.00203858
0.00315344
0.00416267
0.00502018
0.00562249
0.00605658
0.00636236
0.00655072
0.00667938
0.00681276
0.00700754
0.000721121
0.00209682
0.00323544
0.00426033
0.00511367
0.00571206
0.00613951
0.00643474
0.00661534
0.00673595
0.00686031
0.00704359
0.000721107
0.00209677
0.00323536
0.00426023
0.00511355
0.00571192
0.00613936
0.00643457
0.00661518
0.00673579
0.00686017
0.00704348
0.000700667
0.00203844
0.00315323
0.0041624
0.00501985
0.00562212
0.00605617
0.00636191
0.00655028
0.00667896
0.00681238
0.00700723
0.000651154
0.00188477
0.00293827
0.00390928
0.00477585
0.00539385
0.0058462
0.00617978
0.00638959
0.00653769
0.00669143
0.00691372
0.000554607
0.00155866
0.00248982
0.00339444
0.00426308
0.00493447
0.00543218
0.00582061
0.00608226
0.00625992
0.00644187
0.00671722
0.000376149
0.000975378
0.00168697
0.00250497
0.00334526
0.00412505
0.00471577
0.00520581
0.00554785
0.00575828
0.00594457
0.00631463
0.00016988
0.000371373
0.000653594
0.00111706
0.00170899
0.00240062
0.00309676
0.00376958
0.00423827
0.00448141
0.00472431
0.00531441
9.34153e-05
0.00020599
0.000367987
0.000643351
0.00102005
0.00152679
0.00208763
0.00261114
0.00299628
0.00332751
0.00391709
0.00513037
0.000192884
0.000481681
0.000818196
0.0012794
0.00184144
0.00245404
0.00302664
0.00353995
0.00395368
0.00433928
0.00484046
0.00570056
0.000279693
0.000744761
0.00121125
0.00176901
0.00240497
0.00301309
0.00355538
0.00402568
0.00441654
0.00479287
0.00524635
0.00590523
0.00033582
0.000919135
0.00147614
0.00210043
0.00276888
0.00336819
0.00388653
0.00432186
0.00468476
0.00503588
0.00544632
0.00600039
0.0003682
0.00101689
0.00162443
0.00228632
0.00296913
0.00356063
0.00406592
0.00448083
0.00482677
0.00515885
0.0055403
0.00604074
0.000382524
0.00105875
0.0016875
0.00236498
0.00305226
0.00364119
0.00414099
0.00454745
0.00488615
0.00520886
0.00557653
0.00605393
0.000382515
0.00105872
0.00168745
0.0023649
0.00305216
0.00364108
0.00414087
0.00454733
0.00488603
0.00520874
0.00557642
0.00605385
0.000368176
0.00101681
0.00162429
0.00228612
0.00296888
0.00356034
0.00406561
0.0044805
0.00482646
0.00515855
0.00554002
0.00604051
0.000335788
0.000919029
0.00147597
0.00210021
0.0027686
0.00336787
0.00388618
0.00432147
0.00468437
0.0050355
0.00544595
0.00600008
0.000279668
0.000744687
0.00121118
0.00176894
0.00240488
0.00301297
0.0035552
0.00402545
0.00441629
0.00479257
0.00524598
0.00590482
0.000192877
0.000481686
0.000818317
0.00127967
0.00184182
0.00245443
0.00302692
0.00354014
0.00395377
0.00433918
0.00484008
0.00569988
9.34377e-05
0.000206074
0.000368248
0.000643872
0.00102078
0.00152763
0.00208838
0.00261177
0.00299671
0.00332751
0.00391652
0.00512879
7.26003e-05
0.000156393
0.00026993
0.000457658
0.000720459
0.00106477
0.00145102
0.0018503
0.0022558
0.00277856
0.00369867
0.0057135
0.000128238
0.000324278
0.000531525
0.000818885
0.00119287
0.00164101
0.00211721
0.00259316
0.00306357
0.00360513
0.00437344
0.00560836
0.000181502
0.000473774
0.000754442
0.00110132
0.0015305
0.002006
0.00249546
0.00297484
0.00344796
0.00397418
0.00465042
0.00562005
0.000219313
0.000580165
0.000913816
0.00130389
0.00176463
0.00225286
0.00274051
0.00320757
0.00366535
0.00416417
0.00477578
0.00560165
0.000242828
0.000645285
0.00101131
0.00142729
0.0019038
0.00239668
0.00287994
0.00333588
0.00378
0.00425734
0.00482942
0.00558047
0.000253753
0.000675109
0.0010558
0.00148327
0.00196645
0.00246054
0.00294107
0.00339128
0.00382831
0.00429456
0.00484797
0.00556644
0.000253747
0.000675089
0.00105577
0.00148323
0.00196639
0.00246046
0.00294099
0.0033912
0.00382823
0.00429448
0.00484789
0.00556639
0.00024281
0.000645233
0.00101123
0.00142717
0.00190365
0.0023965
0.00287973
0.00333566
0.00377977
0.00425711
0.0048292
0.00558031
0.000219291
0.000580103
0.000913728
0.00130377
0.00176448
0.00225267
0.00274029
0.00320731
0.00366507
0.00416386
0.00477547
0.00560139
0.000181485
0.000473733
0.000754412
0.00110131
0.00153049
0.00200597
0.00249537
0.00297469
0.00344774
0.00397386
0.00465001
0.00561964
0.000128234
0.000324282
0.000531607
0.000819084
0.00119316
0.00164132
0.00211745
0.00259328
0.00306351
0.00360482
0.00437284
0.00560754
7.26184e-05
0.000156456
0.000270125
0.000458052
0.000721019
0.00106541
0.0014516
0.00185069
0.00225581
0.00277809
0.00369759
0.00571095
4.87769e-05
0.000106073
0.000184832
0.000314
0.000501474
0.000755169
0.00105682
0.0014112
0.00185297
0.00250325
0.0036513
0.00617176
9.36343e-05
0.000239805
0.000393319
0.000601415
0.000878444
0.00122458
0.00162092
0.00205999
0.00256388
0.00321673
0.00417776
0.00573059
0.000130791
0.000343601
0.000546584
0.000795566
0.00111295
0.00149236
0.00191703
0.00237799
0.00289158
0.0035174
0.00435885
0.00556652
0.000158252
0.000418136
0.000656055
0.000933426
0.00127465
0.00167011
0.00210357
0.00256497
0.00306878
0.00366227
0.00442239
0.00545963
0.000175985
0.000465701
0.000725754
0.00102057
0.00137449
0.00177667
0.00221115
0.00266756
0.00315959
0.00372845
0.00443915
0.00538512
0.000184488
0.000488344
0.00075886
0.00106175
0.0014211
0.00182555
0.00225939
0.00271216
0.00319725
0.00375333
0.00444084
0.00534676
0.000184483
0.000488331
0.00075884
0.00106172
0.00142106
0.0018255
0.00225934
0.0027121
0.00319718
0.00375326
0.00444078
0.00534672
0.000175973
0.000465667
0.000725704
0.00102051
0.0013744
0.00177656
0.00221101
0.0026674
0.00315941
0.00372825
0.00443897
0.00538499
0.000158236
0.000418097
0.000656005
0.000933368
0.00127457
0.00167
0.00210343
0.00256479
0.00306854
0.00366199
0.0044221
0.0054594
0.000130779
0.000343577
0.000546574
0.000795581
0.00111297
0.00149237
0.00191699
0.00237787
0.00289135
0.00351706
0.00435842
0.00556612
9.36298e-05
0.000239806
0.000393379
0.000601572
0.00087868
0.00122484
0.0016211
0.00206003
0.0025637
0.00321628
0.00417704
0.00572974
4.87852e-05
0.000106107
0.000184958
0.000314273
0.000501886
0.000755632
0.00105719
0.00141136
0.00185278
0.00250257
0.00364995
0.00616916
3.9213e-05
8.48318e-05
0.000144638
0.000241653
0.000381485
0.000571228
0.000812087
0.00111353
0.00152316
0.00222586
0.00356696
0.00634717
7.15599e-05
0.000185383
0.000303828
0.000463703
0.000681101
0.000960641
0.00129956
0.00170645
0.00222146
0.00294571
0.0040594
0.00583172
9.89866e-05
0.000263049
0.000420956
0.000615515
0.00086825
0.0011833
0.00155703
0.00199421
0.00252381
0.0032147
0.00418331
0.00558093
0.000119983
0.000319995
0.000504824
0.000721441
0.000993913
0.00132576
0.00171258
0.00215614
0.00267858
0.00333248
0.00420438
0.00541097
0.000133894
0.00035705
0.000558841
0.000788723
0.00107166
0.00141075
0.00180115
0.00224294
0.0027546
0.0033808
0.00419426
0.00529744
0.000140701
0.000375033
0.000584929
0.000820976
0.00110838
0.00145003
0.00184089
0.00228034
0.00278525
0.0033971
0.00418324
0.00524102
0.000140698
0.000375024
0.000584916
0.000820959
0.00110836
0.00145
0.00184085
0.00228029
0.00278519
0.00339704
0.00418318
0.00524098
0.000133885
0.000357026
0.000558809
0.000788683
0.0010716
0.00141068
0.00180105
0.00224282
0.00275444
0.00338063
0.00419409
0.00529733
0.000119972
0.000319968
0.000504794
0.000721411
0.000993875
0.0013257
0.00171248
0.00215598
0.00267836
0.0033322
0.00420409
0.00541077
9.89781e-05
0.000263033
0.000420955
0.000615542
0.000868293
0.00118333
0.00155701
0.00199409
0.00252357
0.00321433
0.00418287
0.00558056
7.15562e-05
0.000185384
0.000303876
0.000463834
0.000681306
0.000960864
0.00129972
0.00170646
0.00222124
0.00294521
0.00405864
0.0058309
3.9219e-05
8.48577e-05
0.000144735
0.00024187
0.000381808
0.000571595
0.000812394
0.00111367
0.00152299
0.00222515
0.00356548
0.00634456
2.68676e-05
5.80273e-05
9.95251e-05
0.000167571
0.000271278
0.000414975
0.000600461
0.000852727
0.00123743
0.00193943
0.00334186
0.00633608
5.4436e-05
0.000141798
0.000232989
0.000357863
0.000531305
0.000760913
0.00105199
0.00142485
0.00193224
0.00268816
0.00389248
0.00584054
7.5838e-05
0.000203494
0.000328454
0.000484833
0.000692251
0.000959082
0.00128994
0.00169974
0.00222774
0.00295346
0.00400676
0.0055579
9.24555e-05
0.000249093
0.000396742
0.000572568
0.000798509
0.00108323
0.00143029
0.00185047
0.00237394
0.00306113
0.00400897
0.00534742
0.000103642
0.000279076
0.0004409
0.000628167
0.000863821
0.00115651
0.00150905
0.00192971
0.00244351
0.00310113
0.00398421
0.00520762
0.000109188
0.000293785
0.000462383
0.000654932
0.000894715
0.00119032
0.00154418
0.00196347
0.0024709
0.0031131
0.00396576
0.00513872
0.000109186
0.000293779
0.000462374
0.000654921
0.0008947
0.0011903
0.00154415
0.00196343
0.00247085
0.00311304
0.00396571
0.00513868
0.000103636
0.000279059
0.000440879
0.000628142
0.000863788
0.00115647
0.00150897
0.00192961
0.00244337
0.00310097
0.00398405
0.00520752
9.24475e-05
0.000249074
0.000396725
0.000572555
0.000798494
0.0010832
0.00143022
0.00185033
0.00237373
0.00306086
0.00400869
0.00534723
7.58319e-05
0.000203484
0.000328459
0.000484866
0.000692305
0.000959127
0.00128994
0.00169964
0.00222751
0.0029531
0.00400632
0.00555754
5.4433e-05
0.000141799
0.000233028
0.000357976
0.000531491
0.000761126
0.00105215
0.00142486
0.00193202
0.00268766
0.00389174
0.00583975
2.68707e-05
5.80418e-05
9.95904e-05
0.000167734
0.000271544
0.000415296
0.000600745
0.000852851
0.00123725
0.00193874
0.00334043
0.00633358
2.10093e-05
4.56615e-05
7.7773e-05
0.000128895
0.000204269
0.000310462
0.000456505
0.000667233
0.00100006
0.00163158
0.00297452
0.00579185
4.17472e-05
0.000109228
0.000179901
0.000277176
0.000414957
0.000602231
0.000849506
0.00118305
0.00166164
0.00240535
0.00362671
0.00563087
5.84784e-05
0.000157994
0.000256884
0.000382745
0.000553299
0.000778833
0.00106908
0.00144541
0.00195389
0.00268103
0.00376585
0.00539171
7.18054e-05
0.000195005
0.000313385
0.00045715
0.000645963
0.000890675
0.00119985
0.00159038
0.00209841
0.00279028
0.0037705
0.00517975
8.0919e-05
0.000219667
0.000350299
0.000504585
0.000703075
0.000956747
0.00127323
0.00166651
0.00216674
0.0028295
0.00374314
0.00503241
8.54854e-05
0.000231877
0.000368385
0.000527515
0.000730152
0.000987249
0.00130596
0.00169889
0.00219347
0.00284072
0.00372271
0.00495892
8.54835e-05
0.000231873
0.000368379
0.000527508
0.000730142
0.000987234
0.00130594
0.00169886
0.00219343
0.00284067
0.00372265
0.00495889
8.09142e-05
0.000219656
0.000350286
0.00050457
0.000703057
0.000956716
0.00127318
0.00166642
0.00216661
0.00282934
0.00374299
0.00503232
7.17997e-05
0.000194993
0.000313375
0.000457148
0.000645963
0.000890662
0.0011998
0.00159027
0.00209823
0.00279003
0.00377023
0.00517956
5.8474e-05
0.000157988
0.000256893
0.000382782
0.000553359
0.00077889
0.0010691
0.00144533
0.00195368
0.00268068
0.00376543
0.00539137
4.1745e-05
0.00010923
0.000179936
0.000277274
0.000415125
0.000602432
0.000849668
0.00118308
0.00166145
0.00240487
0.00362602
0.00563014
2.10114e-05
4.56718e-05
7.78238e-05
0.000129022
0.000204476
0.000310716
0.000456732
0.000667336
0.000999915
0.00163103
0.00297328
0.00578973
1.45325e-05
3.11e-05
5.34802e-05
9.07886e-05
0.00014829
0.000230318
0.000343313
0.000506685
0.00077642
0.00130891
0.00248822
0.0050743
3.16633e-05
8.31772e-05
0.000137693
0.000213826
0.000323126
0.000474839
0.000681434
0.000971006
0.00140284
0.00209545
0.00326223
0.00521381
4.50183e-05
0.000122351
0.00020048
0.000301558
0.000440946
0.000629529
0.000879824
0.00121643
0.00168807
0.00238304
0.00344338
0.00505999
5.58027e-05
0.000152579
0.000247387
0.00036471
0.00052175
0.000730072
0.00100115
0.00135534
0.00183175
0.00249897
0.00346426
0.0048741
6.32769e-05
0.00017299
0.000278428
0.000405478
0.000572167
0.000790248
0.0010702
0.00142937
0.00190069
0.00254178
0.00344345
0.00473504
6.70555e-05
0.000183181
0.000293757
0.000425323
0.000596223
0.000818213
0.00110123
0.00146113
0.00192797
0.0025546
0.00342538
0.00466398
6.70541e-05
0.000183177
0.000293754
0.000425319
0.000596218
0.000818204
0.00110122
0.00146111
0.00192793
0.00255455
0.00342533
0.00466394
6.32734e-05
0.000172982
0.00027842
0.000405471
0.000572159
0.00079023
0.00107017
0.0014293
0.00190058
0.00254164
0.0034433
0.00473494
5.57987e-05
0.000152571
0.000247384
0.000364716
0.000521762
0.000730075
0.00100112
0.00135525
0.00183159
0.00249874
0.00346401
0.00487392
4.50153e-05
0.000122348
0.000200492
0.000301596
0.000441009
0.000629595
0.000879853
0.00121638
0.00168788
0.00238273
0.00344299
0.00505967
3.16617e-05
8.31793e-05
0.000137722
0.000213911
0.000323276
0.000475024
0.000681593
0.000971052
0.00140268
0.00209504
0.00326162
0.00521317
1.45336e-05
3.11069e-05
5.35162e-05
9.08863e-05
0.000148456
0.00023053
0.000343515
0.000506798
0.00077634
0.0013085
0.00248723
0.00507282
1.08609e-05
2.39013e-05
4.13663e-05
6.9333e-05
0.000110825
0.000170044
0.000255066
0.000385116
0.000601357
0.00102108
0.00195909
0.00418579
2.39102e-05
6.30913e-05
0.000105329
0.000164918
0.000251178
0.000372627
0.00054212
0.000786722
0.00116132
0.00177507
0.00282999
0.00464085
3.45243e-05
9.4383e-05
0.000156034
0.000236981
0.00035006
0.000505723
0.000717433
0.00101034
0.00143202
0.00206748
0.00305551
0.00459032
4.32673e-05
0.000119062
0.000194838
0.000290203
0.000419767
0.000594776
0.000827935
0.0011408
0.00157252
0.00219008
0.00309867
0.00444604
4.94065e-05
0.000135959
0.00022089
0.000325097
0.000464001
0.000649082
0.000892146
0.00121191
0.00164169
0.00223796
0.00308956
0.00432548
5.25354e-05
0.000144464
0.000233865
0.000342236
0.000485304
0.000674587
0.000921353
0.00124286
0.00166961
0.0022534
0.00307658
0.00426169
5.25345e-05
0.000144462
0.000233863
0.000342234
0.000485302
0.000674582
0.000921342
0.00124284
0.00166958
0.00225336
0.00307653
0.00426165
4.94041e-05
0.000135954
0.000220886
0.000325096
0.000464
0.000649075
0.000892122
0.00121186
0.0016416
0.00223783
0.00308943
0.00432538
4.32646e-05
0.000119057
0.000194838
0.000290214
0.000419786
0.000594791
0.000827924
0.00114074
0.00157239
0.00218988
0.00309844
0.00444585
3.45224e-05
9.43822e-05
0.000156047
0.000237018
0.000350122
0.000505793
0.000717474
0.00101031
0.00143187
0.00206721
0.00305516
0.00459001
2.39094e-05
6.30947e-05
0.000105356
0.000164991
0.000251309
0.000372794
0.000542271
0.000786779
0.0011612
0.00177472
0.00282946
0.00464031
1.08616e-05
2.3906e-05
4.13943e-05
6.94095e-05
0.000110955
0.000170216
0.000255234
0.000385213
0.000601306
0.0010208
0.0019585
0.00418475
7.38617e-06
1.58614e-05
2.79334e-05
4.83098e-05
7.98429e-05
0.00012557
0.000190677
0.000288018
0.000448518
0.000757832
0.00146838
0.0032114
1.78247e-05
4.72464e-05
7.97758e-05
0.000126357
0.000194133
0.000290467
0.000427147
0.000628177
0.000941271
0.00146134
0.00236972
0.00396697
2.63034e-05
7.23608e-05
0.000120905
0.000185545
0.00027659
0.000403439
0.000579136
0.000827385
0.00119182
0.00175001
0.00263134
0.00402625
3.3397e-05
9.25043e-05
0.00015293
0.00023013
0.000336109
0.000481138
0.000677873
0.00094731
0.00132626
0.00187692
0.00269798
0.00393302
3.84391e-05
0.000106477
0.000174724
0.000259802
0.00037453
0.000529457
0.000736523
0.00101428
0.00139444
0.00192962
0.00270292
0.00383784
4.10274e-05
0.00011356
0.000185664
0.00027451
0.000393224
0.000552417
0.000763564
0.00104391
0.00142258
0.00194787
0.00269647
0.00378469
4.10267e-05
0.000113559
0.000185662
0.000274509
0.000393224
0.000552415
0.000763557
0.00104389
0.00142255
0.00194783
0.00269643
0.00378466
3.84375e-05
0.000106474
0.000174723
0.000259804
0.000374534
0.000529458
0.00073651
0.00101425
0.00139436
0.00192951
0.00270279
0.00383773
3.33952e-05
9.25019e-05
0.000152934
0.000230144
0.000336132
0.000481161
0.000677875
0.000947269
0.00132616
0.00187674
0.00269777
0.00393283
2.63023e-05
7.23615e-05
0.000120918
0.000185581
0.00027665
0.000403508
0.000579185
0.000827373
0.0011917
0.00174978
0.00263103
0.00402596
1.78245e-05
4.72503e-05
7.9799e-05
0.000126419
0.000194246
0.000290615
0.000427285
0.000628241
0.00094119
0.00146106
0.00236928
0.00396651
7.38675e-06
1.58649e-05
2.79538e-05
4.83691e-05
7.99462e-05
0.000125707
0.000190814
0.00028811
0.000448504
0.000757656
0.00146801
0.00321082
5.20519e-06
1.15923e-05
2.0972e-05
3.61173e-05
5.82348e-05
9.02757e-05
0.000136839
0.000209243
0.00033086
0.000558066
0.00106616
0.00229862
1.31359e-05
3.50216e-05
6.0046e-05
9.63097e-05
0.000149086
0.000224423
0.000332576
0.00049378
0.000747442
0.00117158
0.00191838
0.00325471
1.98764e-05
5.50547e-05
9.31712e-05
0.000144579
0.000217268
0.000319285
0.000462437
0.000667752
0.000973173
0.001446
0.00220064
0.00341432
2.56228e-05
7.14619e-05
0.000119513
0.000181718
0.000267633
0.000386214
0.000549211
0.000775852
0.00109902
0.00157376
0.00228844
0.00337599
2.97581e-05
8.29931e-05
0.00013768
0.00020679
0.000300682
0.000428626
0.000601877
0.000837735
0.00116487
0.00163018
0.00230787
0.00331063
3.18945e-05
8.88776e-05
0.000146866
0.000219327
0.000316926
0.000449016
0.00062649
0.00086555
0.00119268
0.00165094
0.00230855
0.00327056
3.18941e-05
8.88768e-05
0.000146865
0.000219327
0.000316927
0.000449016
0.000626486
0.00086554
0.00119266
0.0016509
0.00230851
0.00327052
2.9757e-05
8.29912e-05
0.00013768
0.000206794
0.00030069
0.000428632
0.000601873
0.000837709
0.00116482
0.00163009
0.00230776
0.00331052
2.56216e-05
7.14609e-05
0.000119517
0.000181732
0.000267658
0.00038624
0.000549223
0.000775828
0.00109894
0.00157362
0.00228825
0.00337581
1.98759e-05
5.50563e-05
9.31837e-05
0.000144612
0.000217322
0.000319351
0.000462488
0.000667754
0.000973091
0.00144581
0.00220038
0.00341405
1.3136e-05
3.50254e-05
6.00658e-05
9.6362e-05
0.000149181
0.00022455
0.0003327
0.000493845
0.00074739
0.00117137
0.00191802
0.00325432
5.20563e-06
1.15949e-05
2.09875e-05
3.61615e-05
5.83134e-05
9.03846e-05
0.000136953
0.000209323
0.000330864
0.000557965
0.00106592
0.00229829
3.37737e-06
7.36052e-06
1.38007e-05
2.48046e-05
4.12559e-05
6.50263e-05
0.000100079
0.000153362
0.000239542
0.000398671
0.000727023
0.00152581
9.51935e-06
2.55193e-05
4.46344e-05
7.2701e-05
0.000113447
0.000171688
0.000255903
0.00038228
0.000581766
0.000915296
0.00150201
0.00256367
1.48688e-05
4.14827e-05
7.12904e-05
0.000111944
0.000169434
0.00025041
0.000365018
0.000531025
0.000779925
0.00116733
0.00178896
0.00279948
1.95176e-05
5.48182e-05
9.28847e-05
0.00014272
0.00021171
0.000307388
0.00044012
0.000626672
0.000895124
0.00129209
0.00189281
0.00281345
2.29038e-05
6.43128e-05
0.000107973
0.000163783
0.000239887
0.00034416
0.000486682
0.000682824
0.000957431
0.00135055
0.00192541
0.00277929
2.46633e-05
6.91889e-05
0.000115657
0.000174401
0.000253869
0.000362037
0.000508732
0.000708474
0.000984346
0.00137318
0.00193297
0.0027535
2.4663e-05
6.91885e-05
0.000115657
0.000174403
0.000253871
0.000362039
0.000508731
0.000708467
0.000984331
0.00137316
0.00193294
0.00275347
2.2903e-05
6.43118e-05
0.000107974
0.000163789
0.000239896
0.000344169
0.000486683
0.000682808
0.000957388
0.00135047
0.00192532
0.00277919
1.95169e-05
5.48182e-05
9.28899e-05
0.000142735
0.000211735
0.000307416
0.000440138
0.00062666
0.000895066
0.00129197
0.00189266
0.00281328
1.48686e-05
4.14846e-05
7.13019e-05
0.000111973
0.000169483
0.00025047
0.000365068
0.000531037
0.000779868
0.00116719
0.00178874
0.00279924
9.51958e-06
2.55227e-05
4.46509e-05
7.27442e-05
0.000113526
0.000171795
0.00025601
0.000382342
0.000581736
0.000915138
0.00150173
0.00256335
3.37767e-06
7.36228e-06
1.38118e-05
2.48376e-05
4.13154e-05
6.51087e-05
0.000100166
0.000153428
0.000239559
0.000398602
0.000726856
0.00152571
2.18201e-06
5.02301e-06
9.96111e-06
1.79917e-05
2.96891e-05
4.6664e-05
7.08991e-05
0.000107875
0.000169053
0.000276049
0.000490485
0.00100572
6.77519e-06
1.82726e-05
3.28208e-05
5.43636e-05
8.54504e-05
0.000129845
0.00019424
0.000291149
0.00044398
0.000697892
0.00114171
0.00194606
1.09964e-05
3.08951e-05
5.40897e-05
8.59997e-05
0.000130992
0.000194411
0.000284626
0.000416053
0.000613773
0.000921673
0.00141564
0.0022217
1.47498e-05
4.17001e-05
7.17079e-05
0.000111346
0.000166177
0.000242366
0.000348691
0.000499187
0.000716908
0.00103967
0.00152847
0.00227869
1.75191e-05
4.94976e-05
8.41842e-05
0.000128932
0.000189988
0.00027387
0.000389247
0.000549242
0.000774591
0.00109816
0.0015714
0.00227352
1.89661e-05
5.35269e-05
9.05846e-05
0.000137868
0.000201914