/*--------------------------------*- C++ -*----------------------------------*\
| =========                 |                                                 |
| \\      /  F ield         | OpenFOAM: The Open Source CFD Toolbox           |
|  \\    /   O peration     | Version:  2.3.1                                 |
|   \\  /    A nd           | Web:      www.OpenFOAM.org                      |
|    \\/     M anipulation  |                                                 |
\*---------------------------------------------------------------------------*/
FoamFile
{
    version     2.0;
    format      ascii;
    class       volScalarField;
    location    "5";
    object      epsilon;
}
// * * * * * * * * * * * * * * * * * * * * * * * * * * * * * * * * * * * * * //

dimensions      [0 2 -3 0 0 0 0];

internalField   nonuniform List<scalar> 
37530
(
2.10265e-06
2.10574e-06
2.10909e-06
2.11272e-06
2.11667e-06
2.12095e-06
2.12561e-06
2.13068e-06
2.13621e-06
2.14222e-06
2.14878e-06
2.15593e-06
2.16374e-06
2.17225e-06
2.18154e-06
2.19169e-06
2.20279e-06
2.21494e-06
2.22824e-06
2.24283e-06
2.25883e-06
2.27641e-06
2.29576e-06
2.31707e-06
2.34059e-06
2.36658e-06
2.39534e-06
2.42721e-06
2.46257e-06
2.50187e-06
2.54558e-06
2.59428e-06
2.64859e-06
2.70921e-06
2.77694e-06
2.85267e-06
2.93731e-06
2.697e-06
2.70133e-06
2.70604e-06
2.71115e-06
2.71669e-06
2.72272e-06
2.72928e-06
2.73642e-06
2.7442e-06
2.75267e-06
2.76191e-06
2.77199e-06
2.78298e-06
2.79497e-06
2.80806e-06
2.82235e-06
2.83799e-06
2.85509e-06
2.87383e-06
2.89438e-06
2.91692e-06
2.94168e-06
2.96894e-06
2.99897e-06
3.03213e-06
3.06878e-06
3.10934e-06
3.15429e-06
3.20419e-06
3.25966e-06
3.32142e-06
3.39029e-06
3.46727e-06
3.55352e-06
3.65067e-06
3.7622e-06
3.88953e-06
2.86905e-06
2.87354e-06
2.87841e-06
2.88369e-06
2.88943e-06
2.89567e-06
2.90247e-06
2.90988e-06
2.91794e-06
2.92673e-06
2.9363e-06
2.94674e-06
2.95812e-06
2.97055e-06
2.9841e-06
2.99891e-06
3.01511e-06
3.03284e-06
3.05226e-06
3.07355e-06
3.09691e-06
3.12258e-06
3.15081e-06
3.18193e-06
3.21628e-06
3.25425e-06
3.29626e-06
3.34283e-06
3.39452e-06
3.452e-06
3.51604e-06
3.5876e-06
3.66804e-06
3.75969e-06
3.86358e-06
3.98064e-06
4.11265e-06
2.90649e-06
2.911e-06
2.9159e-06
2.92121e-06
2.92698e-06
2.93326e-06
2.94011e-06
2.94756e-06
2.95568e-06
2.96451e-06
2.97413e-06
2.98462e-06
2.99606e-06
3.00854e-06
3.02216e-06
3.03703e-06
3.0533e-06
3.07112e-06
3.09065e-06
3.11206e-06
3.13554e-06
3.16133e-06
3.18969e-06
3.22094e-06
3.25541e-06
3.29349e-06
3.33562e-06
3.3823e-06
3.43409e-06
3.49166e-06
3.55581e-06
3.62753e-06
3.70843e-06
3.8006e-06
3.90445e-06
4.02146e-06
4.15351e-06
2.91291e-06
2.91742e-06
2.92232e-06
2.92763e-06
2.93341e-06
2.93969e-06
2.94654e-06
2.95399e-06
2.9621e-06
2.97092e-06
2.98053e-06
2.99101e-06
3.00244e-06
3.0149e-06
3.02849e-06
3.04334e-06
3.05957e-06
3.07736e-06
3.09686e-06
3.11823e-06
3.14168e-06
3.16742e-06
3.19572e-06
3.22686e-06
3.26121e-06
3.29913e-06
3.34106e-06
3.38748e-06
3.43895e-06
3.49613e-06
3.5598e-06
3.63097e-06
3.71122e-06
3.8026e-06
3.90549e-06
4.02143e-06
4.15236e-06
2.91378e-06
2.91829e-06
2.92318e-06
2.9285e-06
2.93428e-06
2.94057e-06
2.94741e-06
2.95485e-06
2.96295e-06
2.97176e-06
2.98136e-06
2.99182e-06
3.00324e-06
3.01568e-06
3.02924e-06
3.04406e-06
3.06026e-06
3.07801e-06
3.09746e-06
3.11878e-06
3.14217e-06
3.16785e-06
3.19605e-06
3.22708e-06
3.26127e-06
3.29899e-06
3.34066e-06
3.38676e-06
3.43784e-06
3.49454e-06
3.55764e-06
3.62809e-06
3.70744e-06
3.79773e-06
3.89939e-06
4.01394e-06
4.14339e-06
2.91374e-06
2.91825e-06
2.92315e-06
2.92848e-06
2.93426e-06
2.94055e-06
2.94739e-06
2.95483e-06
2.96292e-06
2.97173e-06
2.98132e-06
2.99179e-06
3.00319e-06
3.01561e-06
3.02917e-06
3.04397e-06
3.06015e-06
3.07787e-06
3.09729e-06
3.11857e-06
3.14191e-06
3.16752e-06
3.19565e-06
3.22658e-06
3.26062e-06
3.29816e-06
3.33959e-06
3.3854e-06
3.4361e-06
3.49234e-06
3.55486e-06
3.6246e-06
3.70301e-06
3.79217e-06
3.89256e-06
4.00566e-06
4.13348e-06
2.91279e-06
2.91732e-06
2.92223e-06
2.92756e-06
2.93335e-06
2.93965e-06
2.94649e-06
2.95393e-06
2.96202e-06
2.97084e-06
2.98044e-06
2.9909e-06
3.00229e-06
3.01471e-06
3.02825e-06
3.04305e-06
3.05924e-06
3.07695e-06
3.09635e-06
3.1176e-06
3.1409e-06
3.16647e-06
3.19453e-06
3.22538e-06
3.25931e-06
3.29669e-06
3.33792e-06
3.38346e-06
3.43383e-06
3.48964e-06
3.55163e-06
3.62069e-06
3.6982e-06
3.78625e-06
3.88537e-06
3.99699e-06
4.12313e-06
2.90629e-06
2.91083e-06
2.91576e-06
2.9211e-06
2.92689e-06
2.93319e-06
2.94003e-06
2.94746e-06
2.95556e-06
2.96437e-06
2.97397e-06
2.98443e-06
2.99582e-06
3.00822e-06
3.02177e-06
3.03657e-06
3.05275e-06
3.07045e-06
3.08982e-06
3.11104e-06
3.13429e-06
3.1598e-06
3.18779e-06
3.21854e-06
3.25235e-06
3.28956e-06
3.33058e-06
3.37584e-06
3.42586e-06
3.48122e-06
3.54261e-06
3.61091e-06
3.68737e-06
3.77412e-06
3.8718e-06
3.98169e-06
4.10581e-06
2.86881e-06
2.87333e-06
2.87823e-06
2.88354e-06
2.8893e-06
2.89556e-06
2.90236e-06
2.90975e-06
2.91779e-06
2.92655e-06
2.93609e-06
2.94648e-06
2.95779e-06
2.97012e-06
2.98358e-06
2.99829e-06
3.01436e-06
3.03192e-06
3.05114e-06
3.07217e-06
3.09521e-06
3.12048e-06
3.1482e-06
3.17863e-06
3.21208e-06
3.24887e-06
3.28936e-06
3.334e-06
3.38325e-06
3.43766e-06
3.49785e-06
3.56461e-06
3.63895e-06
3.72262e-06
3.8175e-06
3.92404e-06
4.04408e-06
2.69681e-06
2.70116e-06
2.70589e-06
2.71101e-06
2.71657e-06
2.72261e-06
2.72917e-06
2.7363e-06
2.74405e-06
2.75249e-06
2.76169e-06
2.77172e-06
2.78263e-06
2.79452e-06
2.80749e-06
2.82165e-06
2.83712e-06
2.85402e-06
2.87249e-06
2.8927e-06
2.91482e-06
2.93906e-06
2.96564e-06
2.99479e-06
3.02678e-06
3.06191e-06
3.10052e-06
3.14301e-06
3.18976e-06
3.24121e-06
3.29792e-06
3.3605e-06
3.42958e-06
3.50586e-06
3.59047e-06
3.6852e-06
3.79338e-06
2.10258e-06
2.10566e-06
2.10901e-06
2.11265e-06
2.1166e-06
2.12089e-06
2.12555e-06
2.13061e-06
2.13612e-06
2.14212e-06
2.14865e-06
2.15576e-06
2.16351e-06
2.17195e-06
2.18116e-06
2.1912e-06
2.20217e-06
2.21414e-06
2.22723e-06
2.24154e-06
2.25721e-06
2.27436e-06
2.29315e-06
2.31376e-06
2.33635e-06
2.36115e-06
2.38837e-06
2.41828e-06
2.45115e-06
2.48732e-06
2.52714e-06
2.57096e-06
2.61935e-06
2.67301e-06
2.73252e-06
2.79862e-06
2.87229e-06
1.93345e-06
1.93504e-06
1.93677e-06
1.93865e-06
1.94069e-06
1.94291e-06
1.94532e-06
1.94794e-06
1.95079e-06
1.9539e-06
1.95729e-06
1.96099e-06
1.96502e-06
1.96942e-06
1.97422e-06
1.97946e-06
1.98519e-06
1.99147e-06
1.99833e-06
2.00586e-06
2.01412e-06
2.02319e-06
2.03318e-06
2.04418e-06
2.05632e-06
2.06974e-06
2.08459e-06
2.10106e-06
2.11934e-06
2.13967e-06
2.16229e-06
2.18751e-06
2.21566e-06
2.2471e-06
2.28227e-06
2.3216e-06
2.36559e-06
1.49946e-06
1.49972e-06
1.50001e-06
1.50032e-06
1.50066e-06
1.50102e-06
1.50142e-06
1.50186e-06
1.50233e-06
1.50285e-06
1.50341e-06
1.50403e-06
1.50471e-06
1.50545e-06
1.50627e-06
1.50717e-06
1.50816e-06
1.50926e-06
1.51047e-06
1.51182e-06
1.51331e-06
1.51497e-06
1.51683e-06
1.5189e-06
1.52124e-06
1.52387e-06
1.52685e-06
1.53025e-06
1.53413e-06
1.53858e-06
1.54372e-06
1.54966e-06
1.55658e-06
1.56466e-06
1.57414e-06
1.58534e-06
1.59851e-06
1.41558e-06
1.41579e-06
1.41601e-06
1.41626e-06
1.41653e-06
1.41682e-06
1.41714e-06
1.41749e-06
1.41787e-06
1.41828e-06
1.41873e-06
1.41923e-06
1.41977e-06
1.42037e-06
1.42104e-06
1.42177e-06
1.42258e-06
1.42347e-06
1.42447e-06
1.42558e-06
1.42682e-06
1.42821e-06
1.42977e-06
1.43153e-06
1.43352e-06
1.43579e-06
1.43839e-06
1.44138e-06
1.44484e-06
1.44887e-06
1.45358e-06
1.45911e-06
1.46566e-06
1.47345e-06
1.48269e-06
1.49369e-06
1.50677e-06
1.39511e-06
1.39531e-06
1.39554e-06
1.39578e-06
1.39604e-06
1.39632e-06
1.39663e-06
1.39696e-06
1.39733e-06
1.39773e-06
1.39817e-06
1.39866e-06
1.39919e-06
1.39978e-06
1.40042e-06
1.40114e-06
1.40192e-06
1.40279e-06
1.40376e-06
1.40484e-06
1.40605e-06
1.40741e-06
1.40894e-06
1.41066e-06
1.41261e-06
1.41484e-06
1.41739e-06
1.42033e-06
1.42374e-06
1.42771e-06
1.43236e-06
1.43784e-06
1.44435e-06
1.45209e-06
1.4613e-06
1.47228e-06
1.48542e-06
1.39093e-06
1.39113e-06
1.39135e-06
1.39159e-06
1.39185e-06
1.39213e-06
1.39244e-06
1.39278e-06
1.39314e-06
1.39355e-06
1.39399e-06
1.39447e-06
1.395e-06
1.39559e-06
1.39623e-06
1.39694e-06
1.39773e-06
1.39859e-06
1.39955e-06
1.40062e-06
1.40182e-06
1.40317e-06
1.40468e-06
1.40638e-06
1.40832e-06
1.41051e-06
1.41303e-06
1.41592e-06
1.41926e-06
1.42315e-06
1.4277e-06
1.43306e-06
1.43941e-06
1.44696e-06
1.45595e-06
1.46669e-06
1.47957e-06
1.39025e-06
1.39046e-06
1.39068e-06
1.39092e-06
1.39118e-06
1.39146e-06
1.39177e-06
1.3921e-06
1.39247e-06
1.39287e-06
1.39332e-06
1.3938e-06
1.39433e-06
1.39492e-06
1.39556e-06
1.39627e-06
1.39706e-06
1.39792e-06
1.39888e-06
1.39994e-06
1.40113e-06
1.40246e-06
1.40396e-06
1.40565e-06
1.40756e-06
1.40972e-06
1.4122e-06
1.41503e-06
1.4183e-06
1.42209e-06
1.42651e-06
1.4317e-06
1.43785e-06
1.44514e-06
1.45382e-06
1.46421e-06
1.47669e-06
1.39026e-06
1.39046e-06
1.39068e-06
1.39092e-06
1.39118e-06
1.39146e-06
1.39177e-06
1.39211e-06
1.39247e-06
1.39288e-06
1.39332e-06
1.3938e-06
1.39433e-06
1.39492e-06
1.39556e-06
1.39627e-06
1.39705e-06
1.39791e-06
1.39886e-06
1.39992e-06
1.4011e-06
1.40242e-06
1.4039e-06
1.40556e-06
1.40744e-06
1.40958e-06
1.412e-06
1.41477e-06
1.41796e-06
1.42164e-06
1.42592e-06
1.43093e-06
1.43684e-06
1.44385e-06
1.45217e-06
1.46214e-06
1.47414e-06
1.39095e-06
1.39115e-06
1.39136e-06
1.3916e-06
1.39186e-06
1.39214e-06
1.39245e-06
1.39279e-06
1.39315e-06
1.39355e-06
1.39399e-06
1.39448e-06
1.39501e-06
1.39559e-06
1.39623e-06
1.39694e-06
1.39771e-06
1.39856e-06
1.39951e-06
1.40056e-06
1.40172e-06
1.40303e-06
1.40449e-06
1.40614e-06
1.40799e-06
1.41009e-06
1.41247e-06
1.41518e-06
1.41828e-06
1.42186e-06
1.426e-06
1.43083e-06
1.43651e-06
1.44323e-06
1.4512e-06
1.46075e-06
1.47229e-06
1.39514e-06
1.39534e-06
1.39555e-06
1.39579e-06
1.39605e-06
1.39633e-06
1.39664e-06
1.39698e-06
1.39735e-06
1.39775e-06
1.39819e-06
1.39867e-06
1.3992e-06
1.39979e-06
1.40043e-06
1.40113e-06
1.4019e-06
1.40275e-06
1.40369e-06
1.40474e-06
1.40591e-06
1.40721e-06
1.40866e-06
1.41029e-06
1.41213e-06
1.41421e-06
1.41656e-06
1.41923e-06
1.42228e-06
1.42578e-06
1.42982e-06
1.43452e-06
1.44002e-06
1.44651e-06
1.4542e-06
1.4634e-06
1.47453e-06
1.41561e-06
1.41581e-06
1.41603e-06
1.41628e-06
1.41655e-06
1.41684e-06
1.41716e-06
1.41751e-06
1.41789e-06
1.4183e-06
1.41875e-06
1.41925e-06
1.41979e-06
1.42039e-06
1.42105e-06
1.42177e-06
1.42256e-06
1.42343e-06
1.4244e-06
1.42548e-06
1.42667e-06
1.428e-06
1.42949e-06
1.43115e-06
1.43302e-06
1.43513e-06
1.43751e-06
1.44022e-06
1.4433e-06
1.44683e-06
1.45089e-06
1.45559e-06
1.46107e-06
1.46752e-06
1.47515e-06
1.48426e-06
1.49528e-06
1.49948e-06
1.49974e-06
1.50002e-06
1.50033e-06
1.50066e-06
1.50103e-06
1.50143e-06
1.50187e-06
1.50234e-06
1.50286e-06
1.50343e-06
1.50404e-06
1.50472e-06
1.50546e-06
1.50628e-06
1.50717e-06
1.50815e-06
1.50924e-06
1.51043e-06
1.51175e-06
1.51321e-06
1.51484e-06
1.51665e-06
1.51867e-06
1.52092e-06
1.52346e-06
1.52631e-06
1.52951e-06
1.53316e-06
1.53739e-06
1.54228e-06
1.54794e-06
1.55451e-06
1.56219e-06
1.57127e-06
1.58214e-06
1.59533e-06
1.93342e-06
1.93502e-06
1.93675e-06
1.93863e-06
1.94068e-06
1.9429e-06
1.94531e-06
1.94792e-06
1.95077e-06
1.95386e-06
1.95724e-06
1.96091e-06
1.9649e-06
1.96925e-06
1.974e-06
1.97917e-06
1.98481e-06
1.99097e-06
1.9977e-06
2.00505e-06
2.01309e-06
2.02188e-06
2.0315e-06
2.04204e-06
2.05359e-06
2.06624e-06
2.08011e-06
2.09532e-06
2.11203e-06
2.13051e-06
2.15087e-06
2.17331e-06
2.19805e-06
2.22538e-06
2.2556e-06
2.28911e-06
2.32637e-06
2.158e-06
2.15962e-06
2.16137e-06
2.16328e-06
2.16535e-06
2.16759e-06
2.17003e-06
2.17269e-06
2.17558e-06
2.17874e-06
2.18218e-06
2.18592e-06
2.19001e-06
2.19447e-06
2.19933e-06
2.20465e-06
2.21046e-06
2.21682e-06
2.22378e-06
2.23142e-06
2.2398e-06
2.249e-06
2.25914e-06
2.27032e-06
2.28266e-06
2.29632e-06
2.31146e-06
2.32826e-06
2.34694e-06
2.36773e-06
2.39093e-06
2.41684e-06
2.44582e-06
2.47829e-06
2.5147e-06
2.55554e-06
2.60136e-06
1.19667e-06
1.19668e-06
1.19668e-06
1.19668e-06
1.19668e-06
1.19669e-06
1.1967e-06
1.19671e-06
1.19672e-06
1.19673e-06
1.19674e-06
1.19676e-06
1.19679e-06
1.19683e-06
1.19688e-06
1.19695e-06
1.19704e-06
1.19714e-06
1.19728e-06
1.19745e-06
1.19766e-06
1.19793e-06
1.19826e-06
1.19866e-06
1.19917e-06
1.19979e-06
1.20057e-06
1.20154e-06
1.20275e-06
1.20426e-06
1.20614e-06
1.20849e-06
1.21141e-06
1.21503e-06
1.21953e-06
1.2251e-06
1.23195e-06
1.003e-06
1.00289e-06
1.00278e-06
1.00265e-06
1.00252e-06
1.00237e-06
1.00222e-06
1.00205e-06
1.00186e-06
1.00167e-06
1.00146e-06
1.00124e-06
1.001e-06
1.00075e-06
1.00049e-06
1.00022e-06
9.99931e-07
9.99636e-07
9.99333e-07
9.9903e-07
9.98731e-07
9.98441e-07
9.98169e-07
9.97925e-07
9.97725e-07
9.97594e-07
9.97561e-07
9.97665e-07
9.97947e-07
9.98478e-07
9.99336e-07
1.00062e-06
1.00245e-06
1.00497e-06
1.00837e-06
1.01287e-06
1.01874e-06
9.54283e-07
9.54157e-07
9.54021e-07
9.53876e-07
9.53718e-07
9.53546e-07
9.5336e-07
9.53159e-07
9.52944e-07
9.52714e-07
9.52468e-07
9.52205e-07
9.51926e-07
9.51632e-07
9.51321e-07
9.50994e-07
9.50649e-07
9.50288e-07
9.49915e-07
9.49534e-07
9.49151e-07
9.48773e-07
9.48407e-07
9.48065e-07
9.47761e-07
9.4752e-07
9.47371e-07
9.47358e-07
9.47526e-07
9.47933e-07
9.48675e-07
9.49852e-07
9.51591e-07
9.54054e-07
9.57444e-07
9.62004e-07
9.68031e-07
9.43349e-07
9.43218e-07
9.43077e-07
9.42926e-07
9.42762e-07
9.42584e-07
9.42391e-07
9.42184e-07
9.41962e-07
9.41725e-07
9.41472e-07
9.41201e-07
9.40914e-07
9.4061e-07
9.40289e-07
9.39951e-07
9.39593e-07
9.39216e-07
9.38824e-07
9.38423e-07
9.38017e-07
9.37614e-07
9.37223e-07
9.36853e-07
9.3652e-07
9.36245e-07
9.36058e-07
9.35998e-07
9.36116e-07
9.36462e-07
9.37132e-07
9.38228e-07
9.39879e-07
9.4225e-07
9.45553e-07
9.50048e-07
9.56057e-07
9.41358e-07
9.41226e-07
9.41084e-07
9.40931e-07
9.40765e-07
9.40586e-07
9.40393e-07
9.40185e-07
9.39963e-07
9.39726e-07
9.39472e-07
9.39201e-07
9.38912e-07
9.38607e-07
9.38285e-07
9.37944e-07
9.37584e-07
9.37204e-07
9.36807e-07
9.36399e-07
9.35985e-07
9.35571e-07
9.35168e-07
9.34784e-07
9.34435e-07
9.34139e-07
9.33926e-07
9.3383e-07
9.33903e-07
9.3419e-07
9.34779e-07
9.35777e-07
9.37309e-07
9.39542e-07
9.42691e-07
9.47033e-07
9.52915e-07
9.41366e-07
9.41232e-07
9.41088e-07
9.40934e-07
9.40768e-07
9.40589e-07
9.40396e-07
9.40189e-07
9.39967e-07
9.3973e-07
9.39476e-07
9.39205e-07
9.38916e-07
9.38611e-07
9.38289e-07
9.37946e-07
9.37584e-07
9.37202e-07
9.36802e-07
9.3639e-07
9.3597e-07
9.35549e-07
9.35135e-07
9.34739e-07
9.34374e-07
9.34059e-07
9.33818e-07
9.33686e-07
9.3371e-07
9.33935e-07
9.34439e-07
9.3533e-07
9.36733e-07
9.38813e-07
9.4179e-07
9.45956e-07
9.51694e-07
9.43371e-07
9.43236e-07
9.43091e-07
9.42936e-07
9.4277e-07
9.42592e-07
9.424e-07
9.42194e-07
9.41974e-07
9.41737e-07
9.41484e-07
9.41214e-07
9.40928e-07
9.40625e-07
9.40303e-07
9.3996e-07
9.39596e-07
9.39214e-07
9.38815e-07
9.38403e-07
9.37982e-07
9.37558e-07
9.3714e-07
9.36737e-07
9.36363e-07
9.36036e-07
9.35776e-07
9.35616e-07
9.356e-07
9.35778e-07
9.36215e-07
9.37021e-07
9.38316e-07
9.40264e-07
9.43091e-07
9.47105e-07
9.52728e-07
9.54318e-07
9.54185e-07
9.54043e-07
9.53893e-07
9.53732e-07
9.53559e-07
9.53374e-07
9.53176e-07
9.52963e-07
9.52734e-07
9.52488e-07
9.52228e-07
9.51953e-07
9.5166e-07
9.51349e-07
9.51017e-07
9.50666e-07
9.50299e-07
9.49916e-07
9.49522e-07
9.49121e-07
9.48718e-07
9.4832e-07
9.47939e-07
9.47588e-07
9.47285e-07
9.47052e-07
9.46919e-07
9.4693e-07
9.47131e-07
9.47593e-07
9.48418e-07
9.49729e-07
9.51691e-07
9.54537e-07
9.58598e-07
9.6434e-07
1.00304e-06
1.00293e-06
1.0028e-06
1.00267e-06
1.00254e-06
1.00239e-06
1.00223e-06
1.00207e-06
1.00189e-06
1.00169e-06
1.00149e-06
1.00127e-06
1.00104e-06
1.0008e-06
1.00054e-06
1.00027e-06
9.99981e-07
9.99687e-07
9.99386e-07
9.99081e-07
9.98776e-07
9.9848e-07
9.98203e-07
9.97957e-07
9.97756e-07
9.97621e-07
9.97579e-07
9.97662e-07
9.9791e-07
9.98386e-07
9.99171e-07
1.00036e-06
1.0021e-06
1.00456e-06
1.00799e-06
1.01278e-06
1.01944e-06
1.19671e-06
1.1967e-06
1.1967e-06
1.19669e-06
1.19669e-06
1.1967e-06
1.19671e-06
1.19672e-06
1.19673e-06
1.19675e-06
1.19677e-06
1.1968e-06
1.19684e-06
1.1969e-06
1.19696e-06
1.19704e-06
1.19714e-06
1.19727e-06
1.19743e-06
1.19764e-06
1.19789e-06
1.19822e-06
1.19865e-06
1.19919e-06
1.19988e-06
1.20074e-06
1.20183e-06
1.20319e-06
1.2049e-06
1.20707e-06
1.20982e-06
1.21331e-06
1.21774e-06
1.22338e-06
1.2306e-06
1.23995e-06
1.25214e-06
2.15797e-06
2.15959e-06
2.16135e-06
2.16326e-06
2.16533e-06
2.16759e-06
2.17003e-06
2.17268e-06
2.17556e-06
2.1787e-06
2.18212e-06
2.18583e-06
2.18988e-06
2.19428e-06
2.19908e-06
2.20431e-06
2.21002e-06
2.21625e-06
2.22304e-06
2.23047e-06
2.23858e-06
2.24747e-06
2.25721e-06
2.26789e-06
2.27959e-06
2.29242e-06
2.30649e-06
2.32194e-06
2.33891e-06
2.35755e-06
2.37806e-06
2.40061e-06
2.42544e-06
2.4528e-06
2.483e-06
2.51639e-06
2.55341e-06
2.23896e-06
2.24055e-06
2.24229e-06
2.24417e-06
2.24622e-06
2.24844e-06
2.25085e-06
2.25348e-06
2.25634e-06
2.25945e-06
2.26284e-06
2.26654e-06
2.27058e-06
2.27497e-06
2.27978e-06
2.28502e-06
2.29075e-06
2.29702e-06
2.3039e-06
2.31144e-06
2.31973e-06
2.32883e-06
2.33886e-06
2.34992e-06
2.36216e-06
2.37571e-06
2.39074e-06
2.40744e-06
2.42603e-06
2.44677e-06
2.46993e-06
2.49585e-06
2.52491e-06
2.55754e-06
2.59421e-06
2.63544e-06
2.68182e-06
1.06852e-06
1.06854e-06
1.06856e-06
1.06859e-06
1.06862e-06
1.06865e-06
1.06869e-06
1.06874e-06
1.06878e-06
1.06883e-06
1.06889e-06
1.06895e-06
1.06903e-06
1.06912e-06
1.06923e-06
1.06936e-06
1.06952e-06
1.0697e-06
1.06993e-06
1.0702e-06
1.07053e-06
1.07093e-06
1.07139e-06
1.07196e-06
1.07265e-06
1.07349e-06
1.07451e-06
1.07574e-06
1.07724e-06
1.07907e-06
1.08131e-06
1.08404e-06
1.08739e-06
1.09148e-06
1.09648e-06
1.10258e-06
1.11001e-06
8.17046e-07
8.16944e-07
8.16834e-07
8.16717e-07
8.16592e-07
8.16457e-07
8.16312e-07
8.16155e-07
8.15988e-07
8.15808e-07
8.15617e-07
8.15416e-07
8.15204e-07
8.14984e-07
8.14755e-07
8.14518e-07
8.14276e-07
8.14029e-07
8.13783e-07
8.13543e-07
8.13318e-07
8.13113e-07
8.12938e-07
8.12807e-07
8.12739e-07
8.12761e-07
8.12897e-07
8.13192e-07
8.13699e-07
8.14482e-07
8.15622e-07
8.1722e-07
8.194e-07
8.22315e-07
8.26153e-07
8.31141e-07
8.37541e-07
7.50291e-07
7.50167e-07
7.50033e-07
7.4989e-07
7.49735e-07
7.49569e-07
7.49389e-07
7.49196e-07
7.48989e-07
7.48769e-07
7.48535e-07
7.48286e-07
7.48023e-07
7.47747e-07
7.47458e-07
7.47156e-07
7.46842e-07
7.46519e-07
7.46189e-07
7.4586e-07
7.45538e-07
7.45231e-07
7.44949e-07
7.44707e-07
7.44523e-07
7.44421e-07
7.4444e-07
7.44611e-07
7.44992e-07
7.45658e-07
7.46691e-07
7.482e-07
7.5032e-07
7.5322e-07
7.5711e-07
7.62246e-07
7.68929e-07
7.33903e-07
7.33773e-07
7.33633e-07
7.33482e-07
7.3332e-07
7.33144e-07
7.32956e-07
7.32753e-07
7.32537e-07
7.32307e-07
7.32062e-07
7.31801e-07
7.31526e-07
7.31236e-07
7.30932e-07
7.30614e-07
7.30282e-07
7.29937e-07
7.29584e-07
7.29229e-07
7.28878e-07
7.28539e-07
7.28225e-07
7.27947e-07
7.27724e-07
7.27581e-07
7.27554e-07
7.27683e-07
7.28014e-07
7.28629e-07
7.29611e-07
7.3107e-07
7.33146e-07
7.36015e-07
7.39902e-07
7.45079e-07
7.51891e-07
7.30599e-07
7.30467e-07
7.30325e-07
7.30172e-07
7.30007e-07
7.2983e-07
7.2964e-07
7.29436e-07
7.29219e-07
7.28987e-07
7.28739e-07
7.28477e-07
7.28198e-07
7.27906e-07
7.27599e-07
7.27277e-07
7.2694e-07
7.2659e-07
7.26231e-07
7.25868e-07
7.25507e-07
7.25157e-07
7.2483e-07
7.24537e-07
7.24298e-07
7.24135e-07
7.24081e-07
7.2418e-07
7.24471e-07
7.25039e-07
7.25963e-07
7.27354e-07
7.29354e-07
7.32144e-07
7.35961e-07
7.41099e-07
7.47938e-07
7.30604e-07
7.30471e-07
7.30328e-07
7.30174e-07
7.30009e-07
7.29832e-07
7.29642e-07
7.29439e-07
7.29221e-07
7.28989e-07
7.28742e-07
7.28479e-07
7.28201e-07
7.27909e-07
7.27601e-07
7.27278e-07
7.2694e-07
7.26589e-07
7.26228e-07
7.25862e-07
7.25497e-07
7.25142e-07
7.24807e-07
7.24506e-07
7.24255e-07
7.24077e-07
7.24003e-07
7.24075e-07
7.24332e-07
7.24851e-07
7.25715e-07
7.27033e-07
7.28946e-07
7.31641e-07
7.35366e-07
7.40439e-07
7.47291e-07
7.33918e-07
7.33785e-07
7.33642e-07
7.33489e-07
7.33326e-07
7.3315e-07
7.32962e-07
7.3276e-07
7.32545e-07
7.32315e-07
7.3207e-07
7.31811e-07
7.31537e-07
7.31247e-07
7.30943e-07
7.30622e-07
7.30287e-07
7.2994e-07
7.29583e-07
7.29221e-07
7.2886e-07
7.28509e-07
7.28176e-07
7.27877e-07
7.27628e-07
7.27449e-07
7.27373e-07
7.27439e-07
7.27683e-07
7.2818e-07
7.29013e-07
7.30289e-07
7.32151e-07
7.34789e-07
7.38459e-07
7.43516e-07
7.50446e-07
7.50316e-07
7.50187e-07
7.50049e-07
7.49903e-07
7.49746e-07
7.49578e-07
7.49399e-07
7.49207e-07
7.49003e-07
7.48784e-07
7.48551e-07
7.48304e-07
7.48045e-07
7.47771e-07
7.47483e-07
7.47181e-07
7.46866e-07
7.46541e-07
7.4621e-07
7.45877e-07
7.45548e-07
7.45232e-07
7.44937e-07
7.4468e-07
7.44477e-07
7.44351e-07
7.44333e-07
7.44456e-07
7.44766e-07
7.45335e-07
7.46245e-07
7.47605e-07
7.49565e-07
7.52323e-07
7.56156e-07
7.61454e-07
7.68768e-07
8.17078e-07
8.16971e-07
8.16856e-07
8.16735e-07
8.16607e-07
8.1647e-07
8.16324e-07
8.16171e-07
8.16007e-07
8.15831e-07
8.15645e-07
8.1545e-07
8.15247e-07
8.15035e-07
8.14814e-07
8.14585e-07
8.14352e-07
8.14118e-07
8.13887e-07
8.13665e-07
8.13459e-07
8.13278e-07
8.13135e-07
8.13046e-07
8.13033e-07
8.13122e-07
8.13341e-07
8.13739e-07
8.1437e-07
8.15307e-07
8.16645e-07
8.18509e-07
8.21065e-07
8.24535e-07
8.29235e-07
8.35614e-07
8.44321e-07
1.06856e-06
1.06857e-06
1.06858e-06
1.0686e-06
1.06863e-06
1.06866e-06
1.0687e-06
1.06875e-06
1.0688e-06
1.06886e-06
1.06893e-06
1.06902e-06
1.06912e-06
1.06925e-06
1.06939e-06
1.06957e-06
1.06978e-06
1.07003e-06
1.07034e-06
1.07071e-06
1.07116e-06
1.0717e-06
1.07237e-06
1.07319e-06
1.07419e-06
1.07543e-06
1.07696e-06
1.07885e-06
1.08118e-06
1.08409e-06
1.08773e-06
1.09228e-06
1.098e-06
1.10523e-06
1.11441e-06
1.12622e-06
1.14154e-06
2.23893e-06
2.24053e-06
2.24226e-06
2.24415e-06
2.2462e-06
2.24842e-06
2.25084e-06
2.25346e-06
2.25631e-06
2.25941e-06
2.26279e-06
2.26647e-06
2.27047e-06
2.27483e-06
2.27958e-06
2.28476e-06
2.29041e-06
2.29658e-06
2.30332e-06
2.31068e-06
2.31873e-06
2.32754e-06
2.33718e-06
2.34774e-06
2.35931e-06
2.372e-06
2.38591e-06
2.40117e-06
2.41793e-06
2.43633e-06
2.45655e-06
2.47877e-06
2.50321e-06
2.53011e-06
2.55975e-06
2.59246e-06
2.62865e-06
2.27202e-06
2.27359e-06
2.2753e-06
2.27716e-06
2.27917e-06
2.28136e-06
2.28373e-06
2.28632e-06
2.28913e-06
2.2922e-06
2.29554e-06
2.29919e-06
2.30316e-06
2.3075e-06
2.31223e-06
2.31739e-06
2.32304e-06
2.32922e-06
2.33599e-06
2.34341e-06
2.35155e-06
2.36049e-06
2.37033e-06
2.38124e-06
2.39331e-06
2.4067e-06
2.42156e-06
2.43809e-06
2.4565e-06
2.47707e-06
2.50007e-06
2.52585e-06
2.55479e-06
2.58733e-06
2.62397e-06
2.66524e-06
2.71175e-06
1.00973e-06
1.00979e-06
1.00986e-06
1.00993e-06
1.01002e-06
1.01011e-06
1.01022e-06
1.01033e-06
1.01045e-06
1.01058e-06
1.01072e-06
1.01088e-06
1.01106e-06
1.01127e-06
1.01151e-06
1.01178e-06
1.01208e-06
1.01243e-06
1.01283e-06
1.01328e-06
1.01381e-06
1.0144e-06
1.01509e-06
1.01593e-06
1.01692e-06
1.0181e-06
1.01948e-06
1.02112e-06
1.02307e-06
1.02539e-06
1.02816e-06
1.03148e-06
1.03545e-06
1.04022e-06
1.04596e-06
1.05286e-06
1.06115e-06
7.24704e-07
7.24642e-07
7.24576e-07
7.24506e-07
7.24433e-07
7.24356e-07
7.24273e-07
7.24186e-07
7.24092e-07
7.23994e-07
7.23892e-07
7.23788e-07
7.23683e-07
7.23579e-07
7.23478e-07
7.23382e-07
7.23293e-07
7.23216e-07
7.23156e-07
7.23123e-07
7.23124e-07
7.23168e-07
7.23267e-07
7.23441e-07
7.23712e-07
7.24106e-07
7.24658e-07
7.25412e-07
7.26423e-07
7.27762e-07
7.29513e-07
7.31783e-07
7.34701e-07
7.38428e-07
7.43156e-07
7.49119e-07
7.56587e-07
6.45696e-07
6.45611e-07
6.45521e-07
6.45425e-07
6.45322e-07
6.45213e-07
6.45096e-07
6.44971e-07
6.44839e-07
6.44701e-07
6.44555e-07
6.44404e-07
6.44249e-07
6.4409e-07
6.43929e-07
6.43769e-07
6.43611e-07
6.43459e-07
6.4332e-07
6.43199e-07
6.43107e-07
6.43053e-07
6.43053e-07
6.4312e-07
6.43277e-07
6.43556e-07
6.43991e-07
6.44631e-07
6.45532e-07
6.46771e-07
6.48441e-07
6.50658e-07
6.53566e-07
6.57341e-07
6.62204e-07
6.6842e-07
6.76305e-07
6.25017e-07
6.24926e-07
6.24829e-07
6.24725e-07
6.24614e-07
6.24496e-07
6.24369e-07
6.24235e-07
6.24093e-07
6.23944e-07
6.23787e-07
6.23624e-07
6.23455e-07
6.23281e-07
6.23105e-07
6.22927e-07
6.2275e-07
6.22578e-07
6.22416e-07
6.2227e-07
6.22151e-07
6.22069e-07
6.22037e-07
6.22076e-07
6.22199e-07
6.22443e-07
6.22844e-07
6.23448e-07
6.24313e-07
6.25516e-07
6.27151e-07
6.29338e-07
6.32226e-07
6.36008e-07
6.40922e-07
6.47267e-07
6.55397e-07
6.20538e-07
6.20445e-07
6.20346e-07
6.2024e-07
6.20127e-07
6.20006e-07
6.19877e-07
6.19741e-07
6.19597e-07
6.19445e-07
6.19286e-07
6.19119e-07
6.18947e-07
6.1877e-07
6.1859e-07
6.18407e-07
6.18226e-07
6.18048e-07
6.17879e-07
6.17726e-07
6.17597e-07
6.17505e-07
6.17462e-07
6.17488e-07
6.17597e-07
6.17824e-07
6.18205e-07
6.18785e-07
6.19623e-07
6.20791e-07
6.22387e-07
6.2453e-07
6.27374e-07
6.31117e-07
6.36014e-07
6.42394e-07
6.50667e-07
6.20541e-07
6.20448e-07
6.20348e-07
6.20242e-07
6.20128e-07
6.20007e-07
6.19879e-07
6.19742e-07
6.19598e-07
6.19447e-07
6.19287e-07
6.19121e-07
6.18949e-07
6.18772e-07
6.18591e-07
6.18409e-07
6.18226e-07
6.18047e-07
6.17877e-07
6.17722e-07
6.1759e-07
6.17494e-07
6.17445e-07
6.17464e-07
6.17566e-07
6.17781e-07
6.18146e-07
6.18706e-07
6.19516e-07
6.20649e-07
6.22201e-07
6.24291e-07
6.27077e-07
6.30765e-07
6.35625e-07
6.4202e-07
6.50417e-07
6.25027e-07
6.24934e-07
6.24835e-07
6.2473e-07
6.24619e-07
6.245e-07
6.24373e-07
6.2424e-07
6.24098e-07
6.23949e-07
6.23793e-07
6.23631e-07
6.23463e-07
6.2329e-07
6.23113e-07
6.22935e-07
6.22757e-07
6.22583e-07
6.22418e-07
6.22269e-07
6.22144e-07
6.22054e-07
6.22012e-07
6.22036e-07
6.22143e-07
6.22363e-07
6.22733e-07
6.23294e-07
6.24101e-07
6.25228e-07
6.26769e-07
6.28845e-07
6.31618e-07
6.35302e-07
6.40189e-07
6.46672e-07
6.55289e-07
6.45713e-07
6.45626e-07
6.45533e-07
6.45435e-07
6.4533e-07
6.4522e-07
6.45103e-07
6.4498e-07
6.4485e-07
6.44713e-07
6.44569e-07
6.44421e-07
6.44268e-07
6.44112e-07
6.43954e-07
6.43795e-07
6.43639e-07
6.4349e-07
6.43354e-07
6.43235e-07
6.43144e-07
6.43091e-07
6.43091e-07
6.43159e-07
6.43316e-07
6.43595e-07
6.44029e-07
6.44662e-07
6.45552e-07
6.46774e-07
6.48427e-07
6.50638e-07
6.53575e-07
6.57461e-07
6.62612e-07
6.69466e-07
6.78653e-07
7.24731e-07
7.24666e-07
7.24596e-07
7.24524e-07
7.24448e-07
7.24368e-07
7.24285e-07
7.242e-07
7.2411e-07
7.24016e-07
7.2392e-07
7.23823e-07
7.23727e-07
7.23633e-07
7.23543e-07
7.23459e-07
7.23386e-07
7.23329e-07
7.23295e-07
7.23291e-07
7.23327e-07
7.23413e-07
7.23569e-07
7.23814e-07
7.24174e-07
7.24683e-07
7.25379e-07
7.26313e-07
7.27552e-07
7.29181e-07
7.31311e-07
7.34086e-07
7.37697e-07
7.424e-07
7.48558e-07
7.56688e-07
7.67543e-07
1.00978e-06
1.00984e-06
1.0099e-06
1.00997e-06
1.01004e-06
1.01013e-06
1.01023e-06
1.01035e-06
1.01048e-06
1.01062e-06
1.01078e-06
1.01096e-06
1.01118e-06
1.01142e-06
1.01169e-06
1.01201e-06
1.01238e-06
1.01281e-06
1.01332e-06
1.01391e-06
1.0146e-06
1.01542e-06
1.01639e-06
1.01754e-06
1.01892e-06
1.02059e-06
1.0226e-06
1.02503e-06
1.028e-06
1.03162e-06
1.03608e-06
1.0416e-06
1.04844e-06
1.057e-06
1.06779e-06
1.08156e-06
1.09936e-06
2.27199e-06
2.27357e-06
2.27528e-06
2.27713e-06
2.27915e-06
2.28134e-06
2.28372e-06
2.2863e-06
2.28911e-06
2.29216e-06
2.29549e-06
2.29911e-06
2.30305e-06
2.30734e-06
2.31203e-06
2.31713e-06
2.3227e-06
2.32878e-06
2.33541e-06
2.34266e-06
2.35059e-06
2.35927e-06
2.36877e-06
2.37917e-06
2.39057e-06
2.40306e-06
2.41675e-06
2.43178e-06
2.44828e-06
2.46638e-06
2.48626e-06
2.5081e-06
2.5321e-06
2.55849e-06
2.58753e-06
2.61954e-06
2.65488e-06
2.28547e-06
2.28702e-06
2.28871e-06
2.29054e-06
2.29253e-06
2.29468e-06
2.29702e-06
2.29957e-06
2.30235e-06
2.30538e-06
2.30868e-06
2.31227e-06
2.3162e-06
2.32048e-06
2.32515e-06
2.33025e-06
2.33583e-06
2.34193e-06
2.34862e-06
2.35594e-06
2.36398e-06
2.37282e-06
2.38254e-06
2.39332e-06
2.40527e-06
2.41852e-06
2.43325e-06
2.44964e-06
2.46791e-06
2.48834e-06
2.51121e-06
2.53686e-06
2.5657e-06
2.59816e-06
2.63475e-06
2.67603e-06
2.7226e-06
9.83277e-07
9.83366e-07
9.83461e-07
9.83568e-07
9.83691e-07
9.83829e-07
9.8398e-07
9.8414e-07
9.84309e-07
9.8449e-07
9.84691e-07
9.84918e-07
9.85175e-07
9.85465e-07
9.85791e-07
9.86157e-07
9.86569e-07
9.87031e-07
9.87553e-07
9.88145e-07
9.88816e-07
9.89571e-07
9.90422e-07
9.9144e-07
9.92646e-07
9.9405e-07
9.95685e-07
9.97597e-07
9.99839e-07
1.00248e-06
1.00559e-06
1.00927e-06
1.01364e-06
1.01883e-06
1.02501e-06
1.03239e-06
1.04118e-06
6.78334e-07
6.78307e-07
6.78279e-07
6.78251e-07
6.78223e-07
6.78196e-07
6.78169e-07
6.7814e-07
6.78111e-07
6.78083e-07
6.78058e-07
6.78038e-07
6.78025e-07
6.78022e-07
6.78031e-07
6.78054e-07
6.78097e-07
6.78164e-07
6.78262e-07
6.784e-07
6.7859e-07
6.78843e-07
6.79172e-07
6.79598e-07
6.80146e-07
6.80845e-07
6.81732e-07
6.82854e-07
6.84268e-07
6.86045e-07
6.88276e-07
6.91069e-07
6.94557e-07
6.98903e-07
7.04305e-07
7.11e-07
7.19264e-07
5.90893e-07
5.90845e-07
5.90794e-07
5.90741e-07
5.90685e-07
5.90627e-07
5.90566e-07
5.90503e-07
5.90439e-07
5.90373e-07
5.90307e-07
5.90244e-07
5.90183e-07
5.90128e-07
5.90081e-07
5.90045e-07
5.90025e-07
5.90024e-07
5.9005e-07
5.90111e-07
5.90218e-07
5.90385e-07
5.90625e-07
5.9096e-07
5.91414e-07
5.92018e-07
5.92813e-07
5.93849e-07
5.95188e-07
5.96907e-07
5.99106e-07
6.01903e-07
6.05448e-07
6.09924e-07
6.15559e-07
6.22627e-07
6.31456e-07
5.66966e-07
5.66912e-07
5.66855e-07
5.66795e-07
5.66731e-07
5.66664e-07
5.66595e-07
5.66522e-07
5.66448e-07
5.66372e-07
5.66296e-07
5.6622e-07
5.66147e-07
5.66078e-07
5.66017e-07
5.65965e-07
5.65926e-07
5.65906e-07
5.65912e-07
5.65951e-07
5.66033e-07
5.66174e-07
5.66388e-07
5.66696e-07
5.67122e-07
5.67697e-07
5.68464e-07
5.69472e-07
5.70785e-07
5.72484e-07
5.74669e-07
5.77467e-07
5.81036e-07
5.85572e-07
5.91324e-07
5.986e-07
6.07777e-07
5.61525e-07
5.61469e-07
5.6141e-07
5.61347e-07
5.61282e-07
5.61213e-07
5.61141e-07
5.61066e-07
5.6099e-07
5.60911e-07
5.60832e-07
5.60754e-07
5.60677e-07
5.60605e-07
5.60539e-07
5.60483e-07
5.6044e-07
5.60415e-07
5.60415e-07
5.60446e-07
5.60521e-07
5.60653e-07
5.60857e-07
5.61154e-07
5.61568e-07
5.6213e-07
5.62882e-07
5.63872e-07
5.65164e-07
5.66839e-07
5.68998e-07
5.7177e-07
5.75319e-07
5.79853e-07
5.85641e-07
5.93023e-07
6.02437e-07
5.61527e-07
5.61471e-07
5.61411e-07
5.61349e-07
5.61283e-07
5.61214e-07