/*--------------------------------*- C++ -*----------------------------------*\
| =========                 |                                                 |
| \\      /  F ield         | OpenFOAM: The Open Source CFD Toolbox           |
|  \\    /   O peration     | Version:  2.3.1                                 |
|   \\  /    A nd           | Web:      www.OpenFOAM.org                      |
|    \\/     M anipulation  |                                                 |
\*---------------------------------------------------------------------------*/
FoamFile
{
    version     2.0;
    format      ascii;
    class       volScalarField;
    location    "5";
    object      epsilon_0;
}
// * * * * * * * * * * * * * * * * * * * * * * * * * * * * * * * * * * * * * //

dimensions      [0 2 -3 0 0 0 0];

internalField   nonuniform List<scalar> 
37530
(
2.1037e-06
2.10679e-06
2.11014e-06
2.11377e-06
2.11771e-06
2.12199e-06
2.12665e-06
2.13171e-06
2.13723e-06
2.14324e-06
2.1498e-06
2.15695e-06
2.16474e-06
2.17325e-06
2.18253e-06
2.19268e-06
2.20377e-06
2.21591e-06
2.2292e-06
2.24377e-06
2.25977e-06
2.27734e-06
2.29667e-06
2.31797e-06
2.34147e-06
2.36744e-06
2.39618e-06
2.42803e-06
2.46337e-06
2.50264e-06
2.54633e-06
2.59499e-06
2.64927e-06
2.70985e-06
2.77755e-06
2.85324e-06
2.93784e-06
2.69806e-06
2.7024e-06
2.7071e-06
2.7122e-06
2.71775e-06
2.72377e-06
2.73032e-06
2.73746e-06
2.74523e-06
2.7537e-06
2.76293e-06
2.773e-06
2.78398e-06
2.79596e-06
2.80904e-06
2.82333e-06
2.83895e-06
2.85604e-06
2.87477e-06
2.8953e-06
2.91782e-06
2.94257e-06
2.9698e-06
2.99982e-06
3.03295e-06
3.06957e-06
3.11011e-06
3.15503e-06
3.2049e-06
3.26033e-06
3.32205e-06
3.39088e-06
3.46781e-06
3.55401e-06
3.65112e-06
3.7626e-06
3.88985e-06
2.87006e-06
2.87455e-06
2.87942e-06
2.8847e-06
2.89043e-06
2.89667e-06
2.90346e-06
2.91086e-06
2.91892e-06
2.9277e-06
2.93726e-06
2.94769e-06
2.95907e-06
2.97148e-06
2.98503e-06
2.99983e-06
3.01601e-06
3.03373e-06
3.05314e-06
3.07441e-06
3.09775e-06
3.1234e-06
3.15162e-06
3.18271e-06
3.21704e-06
3.25498e-06
3.29696e-06
3.3435e-06
3.39516e-06
3.4526e-06
3.5166e-06
3.58811e-06
3.66851e-06
3.76011e-06
3.86393e-06
3.98092e-06
4.11286e-06
2.90748e-06
2.91199e-06
2.91688e-06
2.92218e-06
2.92795e-06
2.93423e-06
2.94107e-06
2.94852e-06
2.95662e-06
2.96545e-06
2.97506e-06
2.98555e-06
2.99698e-06
3.00945e-06
3.02306e-06
3.03792e-06
3.05418e-06
3.07198e-06
3.0915e-06
3.11289e-06
3.13635e-06
3.16212e-06
3.19047e-06
3.22169e-06
3.25613e-06
3.29419e-06
3.33629e-06
3.38293e-06
3.43469e-06
3.49223e-06
3.55633e-06
3.62801e-06
3.70886e-06
3.80098e-06
3.90476e-06
4.02169e-06
4.15366e-06
2.91389e-06
2.9184e-06
2.92329e-06
2.9286e-06
2.93437e-06
2.94065e-06
2.94749e-06
2.95494e-06
2.96304e-06
2.97186e-06
2.98146e-06
2.99193e-06
3.00335e-06
3.0158e-06
3.02938e-06
3.04421e-06
3.06044e-06
3.07821e-06
3.0977e-06
3.11905e-06
3.14248e-06
3.16821e-06
3.19648e-06
3.22761e-06
3.26192e-06
3.29982e-06
3.34172e-06
3.3881e-06
3.43954e-06
3.49668e-06
3.56031e-06
3.63144e-06
3.71165e-06
3.80297e-06
3.90579e-06
4.02165e-06
4.1525e-06
2.91475e-06
2.91926e-06
2.92415e-06
2.92947e-06
2.93524e-06
2.94153e-06
2.94836e-06
2.9558e-06
2.96389e-06
2.97269e-06
2.98228e-06
2.99274e-06
3.00415e-06
3.01658e-06
3.03013e-06
3.04494e-06
3.06113e-06
3.07886e-06
3.09829e-06
3.1196e-06
3.14298e-06
3.16863e-06
3.19682e-06
3.22782e-06
3.26198e-06
3.29968e-06
3.34132e-06
3.38739e-06
3.43844e-06
3.4951e-06
3.55815e-06
3.62856e-06
3.70786e-06
3.7981e-06
3.89969e-06
4.01416e-06
4.14352e-06
2.91472e-06
2.91923e-06
2.92413e-06
2.92945e-06
2.93523e-06
2.94151e-06
2.94834e-06
2.95577e-06
2.96386e-06
2.97266e-06
2.98225e-06
2.9927e-06
3.0041e-06
3.01651e-06
3.03005e-06
3.04484e-06
3.06102e-06
3.07873e-06
3.09813e-06
3.11939e-06
3.14272e-06
3.16831e-06
3.19642e-06
3.22732e-06
3.26134e-06
3.29885e-06
3.34025e-06
3.38602e-06
3.43669e-06
3.49289e-06
3.55537e-06
3.62507e-06
3.70343e-06
3.79254e-06
3.89286e-06
4.00588e-06
4.13361e-06
2.91377e-06
2.91829e-06
2.9232e-06
2.92853e-06
2.93432e-06
2.94061e-06
2.94744e-06
2.95488e-06
2.96296e-06
2.97177e-06
2.98137e-06
2.99182e-06
3.0032e-06
3.01561e-06
3.02914e-06
3.04393e-06
3.06011e-06
3.07781e-06
3.09719e-06
3.11843e-06
3.14171e-06
3.16725e-06
3.1953e-06
3.22612e-06
3.26003e-06
3.29738e-06
3.33858e-06
3.38409e-06
3.43442e-06
3.4902e-06
3.55215e-06
3.62116e-06
3.69863e-06
3.78662e-06
3.88567e-06
3.99721e-06
4.12325e-06
2.90728e-06
2.91181e-06
2.91674e-06
2.92207e-06
2.92786e-06
2.93415e-06
2.94099e-06
2.94842e-06
2.95651e-06
2.96531e-06
2.97491e-06
2.98536e-06
2.99673e-06
3.00913e-06
3.02266e-06
3.03746e-06
3.05363e-06
3.07131e-06
3.09067e-06
3.11187e-06
3.13511e-06
3.16059e-06
3.18857e-06
3.2193e-06
3.25308e-06
3.29027e-06
3.33125e-06
3.37648e-06
3.42646e-06
3.48178e-06
3.54314e-06
3.61139e-06
3.68781e-06
3.7745e-06
3.87211e-06
3.98192e-06
4.10595e-06
2.86983e-06
2.87434e-06
2.87924e-06
2.88455e-06
2.8903e-06
2.89656e-06
2.90335e-06
2.91073e-06
2.91877e-06
2.92752e-06
2.93705e-06
2.94743e-06
2.95874e-06
2.97106e-06
2.98451e-06
2.99921e-06
3.01526e-06
3.03281e-06
3.05201e-06
3.07303e-06
3.09606e-06
3.1213e-06
3.149e-06
3.17941e-06
3.21284e-06
3.2496e-06
3.29007e-06
3.33467e-06
3.38389e-06
3.43826e-06
3.49842e-06
3.56513e-06
3.63943e-06
3.72304e-06
3.81786e-06
3.92432e-06
4.04427e-06
2.69787e-06
2.70222e-06
2.70695e-06
2.71207e-06
2.71762e-06
2.72366e-06
2.73021e-06
2.73733e-06
2.74508e-06
2.75352e-06
2.76271e-06
2.77273e-06
2.78363e-06
2.79551e-06
2.80848e-06
2.82263e-06
2.83808e-06
2.85497e-06
2.87342e-06
2.89362e-06
2.91573e-06
2.93995e-06
2.9665e-06
2.99563e-06
3.0276e-06
3.06271e-06
3.1013e-06
3.14376e-06
3.19047e-06
3.2419e-06
3.29856e-06
3.36111e-06
3.43014e-06
3.50638e-06
3.59093e-06
3.6856e-06
3.79371e-06
2.10363e-06
2.10671e-06
2.11006e-06
2.11369e-06
2.11764e-06
2.12192e-06
2.12658e-06
2.13164e-06
2.13715e-06
2.14314e-06
2.14967e-06
2.15678e-06
2.16452e-06
2.17295e-06
2.18215e-06
2.19219e-06
2.20314e-06
2.21511e-06
2.22819e-06
2.24249e-06
2.25814e-06
2.27529e-06
2.29407e-06
2.31466e-06
2.33724e-06
2.36202e-06
2.38922e-06
2.4191e-06
2.45195e-06
2.4881e-06
2.52789e-06
2.57168e-06
2.62005e-06
2.67367e-06
2.73314e-06
2.7992e-06
2.87282e-06
1.93423e-06
1.93582e-06
1.93755e-06
1.93943e-06
1.94147e-06
1.94368e-06
1.94609e-06
1.94871e-06
1.95156e-06
1.95467e-06
1.95806e-06
1.96175e-06
1.96578e-06
1.97018e-06
1.97497e-06
1.98021e-06
1.98594e-06
1.9922e-06
1.99907e-06
2.00659e-06
2.01484e-06
2.02391e-06
2.03388e-06
2.04487e-06
2.05701e-06
2.07042e-06
2.08526e-06
2.10172e-06
2.11998e-06
2.14029e-06
2.1629e-06
2.1881e-06
2.21623e-06
2.24766e-06
2.2828e-06
2.32211e-06
2.36608e-06
1.49992e-06
1.50018e-06
1.50046e-06
1.50077e-06
1.50111e-06
1.50148e-06
1.50188e-06
1.50231e-06
1.50278e-06
1.5033e-06
1.50386e-06
1.50448e-06
1.50515e-06
1.5059e-06
1.50672e-06
1.50761e-06
1.50861e-06
1.5097e-06
1.51091e-06
1.51225e-06
1.51374e-06
1.5154e-06
1.51725e-06
1.51933e-06
1.52165e-06
1.52428e-06
1.52726e-06
1.53065e-06
1.53452e-06
1.53897e-06
1.54409e-06
1.55003e-06
1.55694e-06
1.565e-06
1.57447e-06
1.58566e-06
1.59881e-06
1.41595e-06
1.41616e-06
1.41639e-06
1.41664e-06
1.41691e-06
1.4172e-06
1.41751e-06
1.41786e-06
1.41824e-06
1.41865e-06
1.4191e-06
1.41959e-06
1.42014e-06
1.42074e-06
1.4214e-06
1.42213e-06
1.42294e-06
1.42383e-06
1.42482e-06
1.42593e-06
1.42717e-06
1.42856e-06
1.43012e-06
1.43187e-06
1.43386e-06
1.43613e-06
1.43872e-06
1.44171e-06
1.44516e-06
1.44918e-06
1.45388e-06
1.4594e-06
1.46594e-06
1.47371e-06
1.48294e-06
1.49392e-06
1.50699e-06
1.39548e-06
1.39568e-06
1.3959e-06
1.39614e-06
1.3964e-06
1.39668e-06
1.39699e-06
1.39733e-06
1.39769e-06
1.39809e-06
1.39853e-06
1.39901e-06
1.39955e-06
1.40013e-06
1.40078e-06
1.40149e-06
1.40227e-06
1.40314e-06
1.40411e-06
1.40519e-06
1.40639e-06
1.40775e-06
1.40927e-06
1.41099e-06
1.41294e-06
1.41516e-06
1.41771e-06
1.42064e-06
1.42404e-06
1.42801e-06
1.43265e-06
1.43812e-06
1.44461e-06
1.45234e-06
1.46153e-06
1.4725e-06
1.48562e-06
1.39129e-06
1.3915e-06
1.39172e-06
1.39196e-06
1.39222e-06
1.3925e-06
1.3928e-06
1.39314e-06
1.3935e-06
1.39391e-06
1.39434e-06
1.39483e-06
1.39536e-06
1.39594e-06
1.39659e-06
1.3973e-06
1.39808e-06
1.39894e-06
1.3999e-06
1.40097e-06
1.40216e-06
1.4035e-06
1.40501e-06
1.40672e-06
1.40864e-06
1.41084e-06
1.41334e-06
1.41623e-06
1.41957e-06
1.42345e-06
1.42799e-06
1.43334e-06
1.43968e-06
1.44722e-06
1.45619e-06
1.46691e-06
1.47977e-06
1.39062e-06
1.39082e-06
1.39104e-06
1.39128e-06
1.39154e-06
1.39182e-06
1.39213e-06
1.39246e-06
1.39283e-06
1.39323e-06
1.39367e-06
1.39416e-06
1.39469e-06
1.39527e-06
1.39592e-06
1.39663e-06
1.39741e-06
1.39827e-06
1.39922e-06
1.40029e-06
1.40147e-06
1.4028e-06
1.4043e-06
1.40598e-06
1.40789e-06
1.41005e-06
1.41251e-06
1.41534e-06
1.41861e-06
1.42239e-06
1.4268e-06
1.43198e-06
1.43811e-06
1.4454e-06
1.45406e-06
1.46443e-06
1.47689e-06
1.39063e-06
1.39083e-06
1.39104e-06
1.39128e-06
1.39154e-06
1.39182e-06
1.39213e-06
1.39247e-06
1.39283e-06
1.39324e-06
1.39368e-06
1.39416e-06
1.39469e-06
1.39527e-06
1.39592e-06
1.39662e-06
1.3974e-06
1.39826e-06
1.39921e-06
1.40026e-06
1.40144e-06
1.40275e-06
1.40423e-06
1.4059e-06
1.40777e-06
1.4099e-06
1.41232e-06
1.41509e-06
1.41827e-06
1.42194e-06
1.42621e-06
1.43121e-06
1.43711e-06
1.4441e-06
1.45241e-06
1.46236e-06
1.47435e-06
1.39131e-06
1.39151e-06
1.39173e-06
1.39196e-06
1.39222e-06
1.3925e-06
1.39281e-06
1.39315e-06
1.39351e-06
1.39391e-06
1.39435e-06
1.39483e-06
1.39536e-06
1.39595e-06
1.39659e-06
1.39729e-06
1.39806e-06
1.39891e-06
1.39985e-06
1.4009e-06
1.40207e-06
1.40337e-06
1.40483e-06
1.40647e-06
1.40832e-06
1.41041e-06
1.41278e-06
1.41549e-06
1.41859e-06
1.42215e-06
1.42629e-06
1.43111e-06
1.43678e-06
1.44348e-06
1.45144e-06
1.46097e-06
1.47249e-06
1.39551e-06
1.3957e-06
1.39592e-06
1.39615e-06
1.39641e-06
1.39669e-06
1.397e-06
1.39734e-06
1.39771e-06
1.39811e-06
1.39855e-06
1.39903e-06
1.39956e-06
1.40014e-06
1.40078e-06
1.40148e-06
1.40225e-06
1.4031e-06
1.40404e-06
1.40509e-06
1.40625e-06
1.40755e-06
1.409e-06
1.41063e-06
1.41246e-06
1.41453e-06
1.41687e-06
1.41954e-06
1.42258e-06
1.42608e-06
1.43011e-06
1.4348e-06
1.44029e-06
1.44677e-06
1.45445e-06
1.46363e-06
1.47474e-06
1.41599e-06
1.41619e-06
1.41641e-06
1.41665e-06
1.41692e-06
1.41721e-06
1.41753e-06
1.41788e-06
1.41826e-06
1.41867e-06
1.41912e-06
1.41961e-06
1.42016e-06
1.42076e-06
1.42141e-06
1.42213e-06
1.42292e-06
1.42379e-06
1.42476e-06
1.42583e-06
1.42702e-06
1.42835e-06
1.42983e-06
1.4315e-06
1.43336e-06
1.43546e-06
1.43784e-06
1.44054e-06
1.44362e-06
1.44714e-06
1.45119e-06
1.45588e-06
1.46135e-06
1.46779e-06
1.47541e-06
1.4845e-06
1.49549e-06
1.49994e-06
1.5002e-06
1.50048e-06
1.50078e-06
1.50112e-06
1.50149e-06
1.50188e-06
1.50232e-06
1.5028e-06
1.50331e-06
1.50388e-06
1.50449e-06
1.50517e-06
1.50591e-06
1.50672e-06
1.50761e-06
1.50859e-06
1.50968e-06
1.51087e-06
1.51218e-06
1.51364e-06
1.51527e-06
1.51707e-06
1.51909e-06
1.52134e-06
1.52387e-06
1.52672e-06
1.52992e-06
1.53355e-06
1.53778e-06
1.54266e-06
1.54831e-06
1.55487e-06
1.56254e-06
1.57161e-06
1.58246e-06
1.59563e-06
1.9342e-06
1.9358e-06
1.93753e-06
1.93941e-06
1.94145e-06
1.94367e-06
1.94608e-06
1.94869e-06
1.95154e-06
1.95463e-06
1.958e-06
1.96167e-06
1.96566e-06
1.97001e-06
1.97475e-06
1.97992e-06
1.98556e-06
1.99171e-06
1.99843e-06
2.00578e-06
2.01381e-06
2.02259e-06
2.03221e-06
2.04274e-06
2.05428e-06
2.06692e-06
2.08078e-06
2.09598e-06
2.11268e-06
2.13114e-06
2.15149e-06
2.17391e-06
2.19864e-06
2.22594e-06
2.25614e-06
2.28963e-06
2.32686e-06
2.15877e-06
2.16039e-06
2.16214e-06
2.16405e-06
2.16611e-06
2.16836e-06
2.1708e-06
2.17345e-06
2.17634e-06
2.17949e-06
2.18293e-06
2.18667e-06
2.19076e-06
2.19521e-06
2.20007e-06
2.20538e-06
2.21119e-06
2.21754e-06
2.2245e-06
2.23213e-06
2.2405e-06
2.2497e-06
2.25983e-06
2.271e-06
2.28333e-06
2.29698e-06
2.31211e-06
2.32889e-06
2.34756e-06
2.36834e-06
2.39152e-06
2.41741e-06
2.44637e-06
2.47882e-06
2.5152e-06
2.55602e-06
2.60181e-06
1.19689e-06
1.19689e-06
1.19689e-06
1.1969e-06
1.1969e-06
1.19691e-06
1.19691e-06
1.19692e-06
1.19693e-06
1.19694e-06
1.19696e-06
1.19698e-06
1.19701e-06
1.19705e-06
1.1971e-06
1.19716e-06
1.19725e-06
1.19735e-06
1.19749e-06
1.19766e-06
1.19787e-06
1.19813e-06
1.19846e-06
1.19887e-06
1.19937e-06
1.19999e-06
1.20077e-06
1.20173e-06
1.20294e-06
1.20445e-06
1.20632e-06
1.20867e-06
1.21158e-06
1.2152e-06
1.21969e-06
1.22525e-06
1.23209e-06
1.00312e-06
1.00301e-06
1.0029e-06
1.00277e-06
1.00264e-06
1.0025e-06
1.00234e-06
1.00217e-06
1.00198e-06
1.00179e-06
1.00158e-06
1.00136e-06
1.00112e-06
1.00087e-06
1.00061e-06
1.00034e-06
1.00005e-06
9.99755e-07
9.99453e-07
9.99149e-07
9.98849e-07
9.98559e-07
9.98286e-07
9.98041e-07
9.9784e-07
9.97707e-07
9.97672e-07
9.97774e-07
9.98053e-07
9.98581e-07
9.99435e-07
1.00071e-06
1.00253e-06
1.00505e-06
1.00845e-06
1.01294e-06
1.0188e-06
9.54397e-07
9.54271e-07
9.54135e-07
9.5399e-07
9.53832e-07
9.53661e-07
9.53475e-07
9.53274e-07
9.53059e-07
9.52829e-07
9.52583e-07
9.5232e-07
9.52041e-07
9.51746e-07
9.51436e-07
9.51108e-07
9.50764e-07
9.50402e-07
9.50028e-07
9.49647e-07
9.49264e-07
9.48886e-07
9.48519e-07
9.48175e-07
9.47871e-07
9.47628e-07
9.47478e-07
9.47462e-07
9.47628e-07
9.48032e-07
9.4877e-07
9.49942e-07
9.51676e-07
9.54133e-07
9.57514e-07
9.62066e-07
9.68082e-07
9.43466e-07
9.43335e-07
9.43195e-07
9.43044e-07
9.4288e-07
9.42702e-07
9.42509e-07
9.42302e-07
9.4208e-07
9.41843e-07
9.4159e-07
9.41319e-07
9.41032e-07
9.40728e-07
9.40407e-07
9.40068e-07
9.3971e-07
9.39334e-07
9.38941e-07
9.3854e-07
9.38134e-07
9.3773e-07
9.37338e-07
9.36968e-07
9.36634e-07
9.36357e-07
9.36168e-07
9.36106e-07
9.36221e-07
9.36565e-07
9.3723e-07
9.38322e-07
9.39967e-07
9.42332e-07
9.45626e-07
9.50112e-07
9.56111e-07
9.41477e-07
9.41345e-07
9.41203e-07
9.4105e-07
9.40884e-07
9.40705e-07
9.40512e-07
9.40305e-07
9.40083e-07
9.39846e-07
9.39592e-07
9.3932e-07
9.39032e-07
9.38726e-07
9.38404e-07
9.38064e-07
9.37703e-07
9.37323e-07
9.36926e-07
9.36517e-07
9.36103e-07
9.35689e-07
9.35285e-07
9.349e-07
9.3455e-07
9.34253e-07
9.34038e-07
9.3394e-07
9.34011e-07
9.34295e-07
9.3488e-07
9.35873e-07
9.374e-07
9.39626e-07
9.42767e-07
9.47098e-07
9.52969e-07
9.41484e-07
9.41351e-07
9.41207e-07
9.41053e-07
9.40887e-07
9.40708e-07
9.40515e-07
9.40308e-07
9.40087e-07
9.39849e-07
9.39595e-07
9.39324e-07
9.39036e-07
9.38731e-07
9.38408e-07
9.38065e-07
9.37703e-07
9.37321e-07
9.36921e-07
9.36508e-07
9.36088e-07
9.35667e-07
9.35252e-07
9.34855e-07
9.3449e-07
9.34173e-07
9.33931e-07
9.33796e-07
9.33817e-07
9.34039e-07
9.3454e-07
9.35427e-07
9.36824e-07
9.38897e-07
9.41866e-07
9.46022e-07
9.51747e-07
9.43488e-07
9.43353e-07
9.43208e-07
9.43054e-07
9.42888e-07
9.42709e-07
9.42518e-07
9.42312e-07
9.42091e-07
9.41855e-07
9.41601e-07
9.41332e-07
9.41046e-07
9.40743e-07
9.40421e-07
9.40077e-07
9.39714e-07
9.39332e-07
9.38933e-07
9.3852e-07
9.38099e-07
9.37675e-07
9.37255e-07
9.36852e-07
9.36477e-07
9.36148e-07
9.35887e-07
9.35725e-07
9.35706e-07
9.35881e-07
9.36315e-07
9.37116e-07
9.38406e-07
9.40347e-07
9.43165e-07
9.47169e-07
9.52779e-07
9.54433e-07
9.543e-07
9.54157e-07
9.54007e-07
9.53846e-07
9.53673e-07
9.53488e-07
9.5329e-07
9.53077e-07
9.52848e-07
9.52603e-07
9.52343e-07
9.52067e-07
9.51775e-07
9.51463e-07
9.51131e-07
9.5078e-07
9.50413e-07
9.5003e-07
9.49636e-07
9.49234e-07
9.4883e-07
9.48432e-07
9.4805e-07
9.47698e-07
9.47394e-07
9.47159e-07
9.47024e-07
9.47032e-07
9.47231e-07
9.47689e-07
9.4851e-07
9.49815e-07
9.5177e-07
9.54608e-07
9.58657e-07
9.64385e-07
1.00316e-06
1.00305e-06
1.00292e-06
1.0028e-06
1.00266e-06
1.00251e-06
1.00235e-06
1.00219e-06
1.00201e-06
1.00182e-06
1.00161e-06
1.00139e-06
1.00116e-06
1.00092e-06
1.00066e-06
1.00039e-06
1.0001e-06
9.99807e-07
9.99505e-07
9.99199e-07
9.98894e-07
9.98598e-07
9.9832e-07
9.98072e-07
9.9787e-07
9.97735e-07
9.9769e-07
9.97772e-07
9.98016e-07
9.9849e-07
9.99271e-07
1.00046e-06
1.00219e-06
1.00464e-06
1.00807e-06
1.01284e-06
1.01949e-06
1.19692e-06
1.19692e-06
1.19691e-06
1.19691e-06
1.19691e-06
1.19691e-06
1.19692e-06
1.19693e-06
1.19695e-06
1.19697e-06
1.19699e-06
1.19702e-06
1.19706e-06
1.19711e-06
1.19717e-06
1.19725e-06
1.19736e-06
1.19748e-06
1.19764e-06
1.19785e-06
1.1981e-06
1.19843e-06
1.19886e-06
1.1994e-06
1.20008e-06
1.20094e-06
1.20202e-06
1.20338e-06
1.20509e-06
1.20726e-06
1.21e-06
1.21349e-06
1.21791e-06
1.22354e-06
1.23075e-06
1.24008e-06
1.25226e-06
2.15874e-06
2.16036e-06
2.16212e-06
2.16403e-06
2.1661e-06
2.16835e-06
2.17079e-06
2.17344e-06
2.17632e-06
2.17945e-06
2.18287e-06
2.18658e-06
2.19062e-06
2.19502e-06
2.19982e-06
2.20505e-06
2.21075e-06
2.21697e-06
2.22376e-06
2.23118e-06
2.23929e-06
2.24817e-06
2.2579e-06
2.26857e-06
2.28026e-06
2.29308e-06
2.30715e-06
2.32258e-06
2.33953e-06
2.35817e-06
2.37866e-06
2.40119e-06
2.426e-06
2.45335e-06
2.48352e-06
2.51689e-06
2.55387e-06
2.2397e-06
2.2413e-06
2.24303e-06
2.24492e-06
2.24696e-06
2.24918e-06
2.25159e-06
2.25421e-06
2.25707e-06
2.26018e-06
2.26357e-06
2.26727e-06
2.2713e-06
2.27569e-06
2.28049e-06
2.28573e-06
2.29145e-06
2.29772e-06
2.30459e-06
2.31213e-06
2.32041e-06
2.3295e-06
2.33952e-06
2.35058e-06
2.3628e-06
2.37634e-06
2.39136e-06
2.40805e-06
2.42663e-06
2.44735e-06
2.47049e-06
2.4964e-06
2.52544e-06
2.55804e-06
2.59468e-06
2.63589e-06
2.68224e-06
1.06865e-06
1.06867e-06
1.0687e-06
1.06872e-06
1.06875e-06
1.06879e-06
1.06883e-06
1.06887e-06
1.06892e-06
1.06897e-06
1.06902e-06
1.06908e-06
1.06916e-06
1.06926e-06
1.06937e-06
1.0695e-06
1.06965e-06
1.06983e-06
1.07006e-06
1.07033e-06
1.07066e-06
1.07105e-06
1.07152e-06
1.07209e-06
1.07278e-06
1.07361e-06
1.07463e-06
1.07586e-06
1.07735e-06
1.07918e-06
1.08141e-06
1.08414e-06
1.08748e-06
1.09157e-06
1.09656e-06
1.10265e-06
1.11007e-06
8.17081e-07
8.16979e-07
8.1687e-07
8.16753e-07
8.16627e-07
8.16493e-07
8.16347e-07
8.16191e-07
8.16023e-07
8.15844e-07
8.15653e-07
8.15452e-07
8.15241e-07
8.1502e-07
8.14791e-07
8.14555e-07
8.14312e-07
8.14065e-07
8.13819e-07
8.13579e-07
8.13353e-07
8.13148e-07
8.12973e-07
8.12841e-07
8.12772e-07
8.12793e-07
8.12928e-07
8.13221e-07
8.13727e-07
8.14507e-07
8.15643e-07
8.17237e-07
8.19412e-07
8.22322e-07
8.26154e-07
8.31135e-07
8.37526e-07
7.50322e-07
7.50197e-07
7.50064e-07
7.49921e-07
7.49766e-07
7.496e-07
7.4942e-07
7.49227e-07
7.49021e-07
7.48801e-07
7.48566e-07
7.48317e-07
7.48055e-07
7.47779e-07
7.4749e-07
7.47188e-07
7.46875e-07
7.46551e-07
7.46221e-07
7.45892e-07
7.4557e-07
7.45263e-07
7.44981e-07
7.44739e-07
7.44553e-07
7.4445e-07
7.44468e-07
7.44637e-07
7.45016e-07
7.4568e-07
7.4671e-07
7.48215e-07
7.5033e-07
7.53224e-07
7.57108e-07
7.62236e-07
7.6891e-07
7.33938e-07
7.33808e-07
7.33668e-07
7.33518e-07
7.33355e-07
7.3318e-07
7.32992e-07
7.3279e-07
7.32574e-07
7.32344e-07
7.32099e-07
7.31838e-07
7.31563e-07
7.31273e-07
7.30969e-07
7.30651e-07
7.30319e-07
7.29975e-07
7.29622e-07
7.29266e-07
7.28915e-07
7.28577e-07
7.28261e-07
7.27983e-07
7.2776e-07
7.27616e-07
7.27588e-07
7.27715e-07
7.28044e-07
7.28657e-07
7.29636e-07
7.31091e-07
7.33162e-07
7.36025e-07
7.39904e-07
7.45074e-07
7.51876e-07
7.30637e-07
7.30505e-07
7.30363e-07
7.3021e-07
7.30046e-07
7.29869e-07
7.29678e-07
7.29475e-07
7.29257e-07
7.29025e-07
7.28778e-07
7.28516e-07
7.28238e-07
7.27945e-07
7.27638e-07
7.27316e-07
7.2698e-07
7.2663e-07
7.26271e-07
7.25908e-07
7.25547e-07
7.25197e-07
7.24869e-07
7.24576e-07
7.24336e-07
7.24172e-07
7.24117e-07
7.24215e-07
7.24505e-07
7.25069e-07
7.25991e-07
7.27378e-07
7.29372e-07
7.32157e-07
7.35966e-07
7.41095e-07
7.47923e-07
7.30642e-07
7.30509e-07
7.30366e-07
7.30212e-07
7.30048e-07
7.2987e-07
7.2968e-07
7.29477e-07
7.2926e-07
7.29028e-07
7.28781e-07
7.28518e-07
7.28241e-07
7.27948e-07
7.27641e-07
7.27318e-07
7.2698e-07
7.26629e-07
7.26268e-07
7.25902e-07
7.25537e-07
7.25182e-07
7.24847e-07
7.24545e-07
7.24293e-07
7.24114e-07
7.24039e-07
7.2411e-07
7.24365e-07
7.24882e-07
7.25743e-07
7.27056e-07
7.28964e-07
7.31654e-07
7.35371e-07
7.40434e-07
7.47274e-07
7.33954e-07
7.3382e-07
7.33678e-07
7.33525e-07
7.33361e-07
7.33186e-07
7.32998e-07
7.32797e-07
7.32582e-07
7.32352e-07
7.32107e-07
7.31848e-07
7.31573e-07
7.31285e-07
7.3098e-07
7.3066e-07
7.30325e-07
7.29977e-07
7.2962e-07
7.29258e-07
7.28898e-07
7.28546e-07
7.28213e-07
7.27914e-07
7.27664e-07
7.27485e-07
7.27407e-07
7.27471e-07
7.27714e-07
7.28208e-07
7.29038e-07
7.3031e-07
7.32167e-07
7.34799e-07
7.38461e-07
7.43507e-07
7.50424e-07
7.50347e-07
7.50218e-07
7.5008e-07
7.49933e-07
7.49777e-07
7.49609e-07
7.4943e-07
7.49239e-07
7.49034e-07
7.48815e-07
7.48582e-07
7.48336e-07
7.48077e-07
7.47803e-07
7.47515e-07
7.47213e-07
7.46898e-07
7.46574e-07
7.46243e-07
7.4591e-07
7.4558e-07
7.45264e-07
7.44969e-07
7.44712e-07
7.44508e-07
7.44381e-07
7.44361e-07
7.44483e-07
7.4479e-07
7.45357e-07
7.46264e-07
7.4762e-07
7.49575e-07
7.52326e-07
7.56151e-07
7.61437e-07
7.68736e-07
8.17114e-07
8.17006e-07
8.16892e-07
8.16771e-07
8.16642e-07
8.16505e-07
8.1636e-07
8.16207e-07
8.16043e-07
8.15867e-07
8.15681e-07
8.15486e-07
8.15283e-07
8.15071e-07
8.1485e-07
8.14621e-07
8.14388e-07
8.14154e-07
8.13923e-07
8.13701e-07
8.13495e-07
8.13314e-07
8.1317e-07
8.1308e-07
8.13066e-07
8.13154e-07
8.13372e-07
8.13768e-07
8.14397e-07
8.1533e-07
8.16665e-07
8.18525e-07
8.21075e-07
8.24538e-07
8.29228e-07
8.35595e-07
8.44285e-07
1.06869e-06
1.06871e-06
1.06872e-06
1.06874e-06
1.06877e-06
1.0688e-06
1.06884e-06
1.06888e-06
1.06894e-06
1.069e-06
1.06907e-06
1.06915e-06
1.06926e-06
1.06938e-06
1.06953e-06
1.0697e-06
1.06991e-06
1.07016e-06
1.07047e-06
1.07084e-06
1.07129e-06
1.07183e-06
1.0725e-06
1.07331e-06
1.07432e-06
1.07555e-06
1.07708e-06
1.07896e-06
1.0813e-06
1.0842e-06
1.08783e-06
1.09238e-06
1.09809e-06
1.1053e-06
1.11448e-06
1.12627e-06
1.14157e-06
2.23967e-06
2.24127e-06
2.24301e-06
2.24489e-06
2.24694e-06
2.24916e-06
2.25157e-06
2.25419e-06
2.25704e-06
2.26014e-06
2.26352e-06
2.26719e-06
2.27119e-06
2.27554e-06
2.28029e-06
2.28547e-06
2.29112e-06
2.29728e-06
2.30401e-06
2.31137e-06
2.31941e-06
2.32821e-06
2.33785e-06
2.3484e-06
2.35996e-06
2.37264e-06
2.38654e-06
2.40179e-06
2.41853e-06
2.43692e-06
2.45713e-06
2.47933e-06
2.50375e-06
2.53063e-06
2.56024e-06
2.59293e-06
2.62909e-06
2.27275e-06
2.27432e-06
2.27603e-06
2.27788e-06
2.2799e-06
2.28208e-06
2.28445e-06
2.28704e-06
2.28985e-06
2.29291e-06
2.29625e-06
2.29989e-06
2.30386e-06
2.3082e-06
2.31292e-06
2.31808e-06
2.32373e-06
2.3299e-06
2.33667e-06
2.34408e-06
2.35221e-06
2.36114e-06
2.37098e-06
2.38188e-06
2.39394e-06
2.40732e-06
2.42217e-06
2.43868e-06
2.45708e-06
2.47763e-06
2.50062e-06
2.52637e-06
2.55529e-06
2.58781e-06
2.62442e-06
2.66567e-06
2.71215e-06
1.00985e-06
1.00991e-06
1.00997e-06
1.01005e-06
1.01013e-06
1.01023e-06
1.01033e-06
1.01044e-06
1.01056e-06
1.01069e-06
1.01083e-06
1.01099e-06
1.01117e-06
1.01138e-06
1.01162e-06
1.01189e-06
1.01219e-06
1.01254e-06
1.01293e-06
1.01339e-06
1.01391e-06
1.01451e-06
1.0152e-06
1.01603e-06
1.01703e-06
1.0182e-06
1.01958e-06
1.02122e-06
1.02316e-06
1.02548e-06
1.02824e-06
1.03155e-06
1.03552e-06
1.04029e-06
1.04602e-06
1.05291e-06
1.06119e-06
7.24715e-07
7.24653e-07
7.24587e-07
7.24517e-07
7.24444e-07
7.24366e-07
7.24284e-07
7.24197e-07
7.24103e-07
7.24005e-07
7.23903e-07
7.23799e-07
7.23694e-07
7.2359e-07
7.23489e-07
7.23393e-07
7.23304e-07
7.23227e-07
7.23167e-07
7.23133e-07
7.23134e-07
7.23178e-07
7.23276e-07
7.2345e-07
7.23719e-07
7.24112e-07
7.24663e-07
7.25415e-07
7.26424e-07
7.2776e-07
7.29507e-07
7.31773e-07
7.34687e-07
7.38408e-07
7.4313e-07
7.49085e-07
7.56545e-07
6.45702e-07
6.45618e-07
6.45528e-07
6.45432e-07
6.45329e-07
6.4522e-07
6.45103e-07
6.44978e-07
6.44847e-07
6.44708e-07
6.44563e-07
6.44412e-07
6.44256e-07
6.44098e-07
6.43937e-07
6.43777e-07
6.43619e-07
6.43467e-07
6.43327e-07
6.43207e-07
6.43114e-07
6.4306e-07
6.4306e-07
6.43126e-07
6.43282e-07
6.4356e-07
6.43994e-07
6.44632e-07
6.45531e-07
6.46767e-07
6.48434e-07
6.50647e-07
6.5355e-07
6.57319e-07
6.62175e-07
6.68383e-07
6.7626e-07
6.2503e-07
6.24939e-07
6.24842e-07
6.24738e-07
6.24628e-07
6.24509e-07
6.24383e-07
6.24249e-07
6.24107e-07
6.23958e-07
6.23801e-07
6.23638e-07
6.23469e-07
6.23295e-07
6.23119e-07
6.22942e-07
6.22765e-07
6.22592e-07
6.2243e-07
6.22285e-07
6.22165e-07
6.22082e-07
6.22051e-07
6.22088e-07
6.22211e-07
6.22454e-07
6.22854e-07
6.23456e-07
6.24319e-07
6.25519e-07
6.27151e-07
6.29333e-07
6.32217e-07
6.35992e-07
6.409e-07
6.47235e-07
6.55356e-07
6.20554e-07
6.20461e-07
6.20362e-07
6.20256e-07
6.20143e-07
6.20022e-07
6.19894e-07
6.19757e-07
6.19613e-07
6.19462e-07
6.19303e-07
6.19136e-07
6.18964e-07
6.18787e-07
6.18607e-07
6.18425e-07
6.18243e-07
6.18065e-07
6.17896e-07
6.17743e-07
6.17614e-07
6.17522e-07
6.17478e-07
6.17504e-07
6.17613e-07
6.17838e-07
6.18218e-07
6.18797e-07
6.19632e-07
6.20798e-07
6.2239e-07
6.24529e-07
6.27367e-07
6.31104e-07
6.35994e-07
6.42364e-07
6.50626e-07
6.20557e-07
6.20464e-07
6.20364e-07
6.20258e-07
6.20144e-07
6.20024e-07
6.19895e-07
6.19759e-07
6.19615e-07
6.19463e-07
6.19304e-07
6.19138e-07
6.18966e-07
6.18789e-07
6.18609e-07
6.18426e-07
6.18244e-07
6.18065e-07
6.17894e-07
6.17739e-07
6.17608e-07
6.17511e-07
6.17462e-07
6.1748e-07
6.17581e-07
6.17795e-07
6.18159e-07
6.18717e-07
6.19525e-07
6.20656e-07
6.22204e-07
6.2429e-07
6.27071e-07
6.30752e-07
6.35604e-07
6.41989e-07
6.50373e-07
6.25039e-07
6.24947e-07
6.24848e-07
6.24743e-07
6.24632e-07
6.24513e-07
6.24387e-07
6.24253e-07
6.24112e-07
6.23963e-07
6.23807e-07
6.23645e-07
6.23477e-07
6.23304e-07
6.23128e-07
6.22949e-07
6.22771e-07
6.22597e-07
6.22433e-07
6.22284e-07
6.22158e-07
6.22068e-07
6.22025e-07
6.22049e-07
6.22155e-07
6.22374e-07
6.22743e-07
6.23302e-07
6.24107e-07
6.25231e-07
6.26769e-07
6.2884e-07
6.31608e-07
6.35285e-07
6.40164e-07
6.46636e-07
6.55238e-07
6.45719e-07
6.45632e-07
6.4554e-07
6.45441e-07
6.45337e-07
6.45227e-07
6.4511e-07
6.44987e-07
6.44857e-07
6.4472e-07
6.44577e-07
6.44428e-07
6.44276e-07
6.4412e-07
6.43962e-07
6.43803e-07
6.43647e-07
6.43498e-07
6.43361e-07
6.43243e-07
6.43152e-07
6.43098e-07
6.43097e-07
6.43164e-07
6.43321e-07
6.43599e-07
6.44032e-07
6.44663e-07
6.45551e-07
6.4677e-07
6.48419e-07
6.50626e-07
6.53557e-07
6.57437e-07
6.62578e-07
6.6942e-07
6.7859e-07
7.24742e-07
7.24676e-07
7.24607e-07
7.24534e-07
7.24458e-07
7.24379e-07
7.24296e-07
7.24211e-07
7.24121e-07
7.24027e-07
7.23931e-07
7.23834e-07
7.23738e-07
7.23644e-07
7.23554e-07
7.2347e-07
7.23397e-07
7.2334e-07
7.23306e-07
7.23301e-07
7.23337e-07
7.23423e-07
7.23578e-07
7.23822e-07
7.24181e-07
7.24688e-07
7.25383e-07
7.26315e-07
7.27551e-07
7.29177e-07
7.31303e-07
7.34074e-07
7.37678e-07
7.42373e-07
7.4852e-07
7.56636e-07
7.67473e-07
1.0099e-06
1.00995e-06
1.01001e-06
1.01008e-06
1.01016e-06
1.01025e-06
1.01035e-06
1.01046e-06
1.01059e-06
1.01073e-06
1.01089e-06
1.01108e-06
1.01129e-06
1.01153e-06
1.0118e-06
1.01212e-06
1.01249e-06
1.01292e-06
1.01343e-06
1.01402e-06
1.01471e-06
1.01552e-06
1.01649e-06
1.01764e-06
1.01902e-06
1.02068e-06
1.02269e-06
1.02512e-06
1.02808e-06
1.0317e-06
1.03616e-06
1.04166e-06
1.0485e-06
1.05705e-06
1.06783e-06
1.08158e-06
1.09936e-06
2.27272e-06
2.27429e-06
2.276e-06
2.27786e-06
2.27987e-06
2.28206e-06
2.28444e-06
2.28702e-06
2.28982e-06
2.29287e-06
2.2962e-06
2.29982e-06
2.30375e-06
2.30805e-06
2.31272e-06
2.31782e-06
2.32339e-06
2.32946e-06
2.33609e-06
2.34333e-06
2.35126e-06
2.35993e-06
2.36942e-06
2.37981e-06
2.3912e-06
2.40368e-06
2.41737e-06
2.43238e-06
2.44886e-06
2.46696e-06
2.48682e-06
2.50864e-06
2.53262e-06
2.55899e-06
2.58801e-06
2.62e-06
2.65531e-06
2.28619e-06
2.28774e-06
2.28943e-06
2.29125e-06
2.29324e-06
2.29539e-06
2.29773e-06
2.30028e-06
2.30306e-06
2.30608e-06
2.30938e-06
2.31297e-06
2.31689e-06
2.32117e-06
2.32583e-06
2.33093e-06
2.3365e-06
2.3426e-06
2.34928e-06
2.3566e-06
2.36464e-06
2.37347e-06
2.38318e-06
2.39395e-06
2.40589e-06
2.41913e-06
2.43385e-06
2.45022e-06
2.46848e-06
2.48889e-06
2.51174e-06
2.53738e-06
2.56619e-06
2.59863e-06
2.6352e-06
2.67645e-06
2.72299e-06
9.83388e-07
9.83477e-07
9.83572e-07
9.83678e-07
9.83801e-07
9.83939e-07
9.8409e-07
9.8425e-07
9.84418e-07
9.84599e-07
9.84799e-07
9.85026e-07
9.85283e-07
9.85573e-07
9.85898e-07
9.86264e-07
9.86675e-07
9.87136e-07
9.87657e-07
9.88249e-07
9.88918e-07
9.89672e-07
9.90522e-07
9.91538e-07
9.92742e-07
9.94144e-07
9.95777e-07
9.97686e-07
9.99924e-07
1.00256e-06
1.00566e-06
1.00934e-06
1.0137e-06
1.01889e-06
1.02507e-06
1.03243e-06
1.04121e-06
6.78342e-07
6.78315e-07
6.78287e-07
6.78259e-07
6.78231e-07
6.78204e-07
6.78176e-07
6.78148e-07
6.78119e-07
6.78091e-07
6.78065e-07
6.78045e-07
6.78033e-07
6.78029e-07
6.78038e-07
6.78061e-07
6.78104e-07
6.78171e-07
6.78268e-07
6.78406e-07
6.78596e-07
6.78848e-07
6.79176e-07
6.79602e-07
6.80149e-07
6.80846e-07
6.81732e-07
6.82851e-07
6.84262e-07
6.86037e-07
6.88264e-07
6.91053e-07
6.94536e-07
6.98876e-07
7.04271e-07
7.10958e-07
7.19214e-07
5.90897e-07
5.90849e-07
5.90798e-07
5.90745e-07
5.9069e-07
5.90632e-07
5.90571e-07
5.90508e-07
5.90444e-07
5.90378e-07
5.90312e-07
5.90249e-07
5.90188e-07
5.90133e-07
5.90086e-07
5.9005e-07
5.90029e-07
5.90029e-07
5.90054e-07
5.90115e-07
5.90222e-07
5.90388e-07
5.90628e-07
5.90962e-07
5.91415e-07
5.92018e-07
5.92812e-07
5.93845e-07
5.95181e-07
5.96898e-07
5.99093e-07
6.01886e-07
6.05425e-07
6.09896e-07
6.15523e-07
6.22583e-07
6.31402e-07
5.66978e-07
5.66924e-07
5.66867e-07
5.66807e-07
5.66743e-07
5.66677e-07
5.66607e-07
5.66535e-07
5.6646e-07
5.66385e-07
5.66308e-07
5.66233e-07
5.6616e-07
5.66091e-07
5.66029e-07
5.65977e-07
5.65939e-07
5.65919e-07
5.65925e-07
5.65963e-07
5.66045e-07
5.66185e-07
5.66399e-07
5.66706e-07
5.67131e-07
5.67705e-07
5.6847e-07
5.69476e-07
5.70787e-07
5.72483e-07
5.74664e-07
5.77458e-07
5.81021e-07
5.85551e-07
5.91295e-07
5.98562e-07
6.07728e-07
5.6154e-07
5.61485e-07
5.61426e-07
5.61363e-07
5.61298e-07
5.61229e-07
5.61157e-07
5.61082e-07
5.61006e-07
5.60928e-07
5.60849e-07
5.6077e-07
5.60694e-07
5.60622e-07
5.60556e-07
5.605e-07
5.60457e-07
5.60431e-07
5.60431e-07
5.60462e-07
5.60536e-07
5.60668e-07
5.60872e-07
5.61168e-07
5.61581e-07
5.62142e-07
5.62891e-07
5.63879e-07
5.6517e-07
5.66842e-07
5.68997e-07
5.71765e-07
5.75308e-07
5.79836e-07
5.85614e-07
5.92987e-07
6.02388e-07
5.61542e-07
5.61486e-07
5.61427e-07
5.61364e-07
5.61299e-07
5.6123e-07
5.61158e-07
5.61083e-07
5.61007e-07