/*--------------------------------*- C++ -*----------------------------------*\
| =========                 |                                                 |
| \\      /  F ield         | OpenFOAM: The Open Source CFD Toolbox           |
|  \\    /   O peration     | Version:  2.3.1                                 |
|   \\  /    A nd           | Web:      www.OpenFOAM.org                      |
|    \\/     M anipulation  |                                                 |
\*---------------------------------------------------------------------------*/
FoamFile
{
    version     2.0;
    format      ascii;
    class       volScalarField;
    location    "5";
    object      k;
}
// * * * * * * * * * * * * * * * * * * * * * * * * * * * * * * * * * * * * * //

dimensions      [0 2 -2 0 0 0 0];

internalField   nonuniform List<scalar> 
37530
(
9.54623e-06
9.55558e-06
9.56572e-06
9.57673e-06
9.58866e-06
9.60162e-06
9.61569e-06
9.631e-06
9.64765e-06
9.66579e-06
9.68553e-06
9.70704e-06
9.73048e-06
9.75601e-06
9.78386e-06
9.81423e-06
9.84737e-06
9.88359e-06
9.92317e-06
9.96648e-06
1.00139e-05
1.00659e-05
1.01229e-05
1.01855e-05
1.02544e-05
1.03303e-05
1.04139e-05
1.05062e-05
1.06081e-05
1.07208e-05
1.08454e-05
1.09834e-05
1.11363e-05
1.13058e-05
1.14936e-05
1.17018e-05
1.19323e-05
1.12704e-05
1.12825e-05
1.12957e-05
1.13099e-05
1.13253e-05
1.13421e-05
1.13603e-05
1.13802e-05
1.14017e-05
1.14252e-05
1.14508e-05
1.14787e-05
1.1509e-05
1.15421e-05
1.15782e-05
1.16175e-05
1.16604e-05
1.17072e-05
1.17585e-05
1.18145e-05
1.18759e-05
1.19431e-05
1.20168e-05
1.20978e-05
1.21869e-05
1.2285e-05
1.23931e-05
1.25124e-05
1.26442e-05
1.27898e-05
1.2951e-05
1.31296e-05
1.33278e-05
1.3548e-05
1.3794e-05
1.40738e-05
1.43898e-05
1.17452e-05
1.17574e-05
1.17707e-05
1.17852e-05
1.18008e-05
1.18178e-05
1.18363e-05
1.18565e-05
1.18784e-05
1.19023e-05
1.19282e-05
1.19565e-05
1.19873e-05
1.20209e-05
1.20575e-05
1.20974e-05
1.2141e-05
1.21886e-05
1.22406e-05
1.22976e-05
1.23599e-05
1.24281e-05
1.2503e-05
1.25853e-05
1.26758e-05
1.27755e-05
1.28853e-05
1.30065e-05
1.31404e-05
1.32884e-05
1.34524e-05
1.36345e-05
1.38377e-05
1.40674e-05
1.43256e-05
1.46138e-05
1.49353e-05
1.18473e-05
1.18595e-05
1.18728e-05
1.18873e-05
1.19029e-05
1.192e-05
1.19386e-05
1.19588e-05
1.19807e-05
1.20046e-05
1.20306e-05
1.20589e-05
1.20897e-05
1.21233e-05
1.21599e-05
1.21998e-05
1.22434e-05
1.22911e-05
1.23432e-05
1.24002e-05
1.24625e-05
1.25309e-05
1.26058e-05
1.26881e-05
1.27785e-05
1.28781e-05
1.29878e-05
1.31088e-05
1.32424e-05
1.33901e-05
1.35538e-05
1.37356e-05
1.39392e-05
1.41694e-05
1.44266e-05
1.47136e-05
1.50342e-05
1.18647e-05
1.1877e-05
1.18903e-05
1.19047e-05
1.19204e-05
1.19374e-05
1.1956e-05
1.19762e-05
1.19981e-05
1.20219e-05
1.20479e-05
1.20761e-05
1.21069e-05
1.21404e-05
1.21769e-05
1.22167e-05
1.22602e-05
1.23077e-05
1.23597e-05
1.24166e-05
1.24788e-05
1.2547e-05
1.26217e-05
1.27036e-05
1.27937e-05
1.28928e-05
1.30019e-05
1.31222e-05
1.32549e-05
1.34016e-05
1.3564e-05
1.37443e-05
1.39462e-05
1.41744e-05
1.44292e-05
1.47136e-05
1.50315e-05
1.18671e-05
1.18794e-05
1.18927e-05
1.19071e-05
1.19228e-05
1.19398e-05
1.19583e-05
1.19785e-05
1.20004e-05
1.20242e-05
1.20501e-05
1.20783e-05
1.21091e-05
1.21425e-05
1.2179e-05
1.22187e-05
1.22621e-05
1.23095e-05
1.23613e-05
1.24181e-05
1.24801e-05
1.25481e-05
1.26226e-05
1.27042e-05
1.27939e-05
1.28924e-05
1.30009e-05
1.31204e-05
1.32521e-05
1.33975e-05
1.35585e-05
1.3737e-05
1.39368e-05
1.41623e-05
1.44142e-05
1.46953e-05
1.50099e-05
1.1867e-05
1.18793e-05
1.18926e-05
1.1907e-05
1.19227e-05
1.19398e-05
1.19583e-05
1.19784e-05
1.20003e-05
1.20241e-05
1.205e-05
1.20782e-05
1.21089e-05
1.21424e-05
1.21787e-05
1.22184e-05
1.22618e-05
1.23091e-05
1.23609e-05
1.24175e-05
1.24795e-05
1.25473e-05
1.26215e-05
1.27029e-05
1.27922e-05
1.28903e-05
1.29981e-05
1.31168e-05
1.32476e-05
1.33919e-05
1.35514e-05
1.37282e-05
1.39257e-05
1.41485e-05
1.43973e-05
1.46751e-05
1.49859e-05
1.18644e-05
1.18767e-05
1.18901e-05
1.19045e-05
1.19203e-05
1.19373e-05
1.19559e-05
1.1976e-05
1.19979e-05
1.20217e-05
1.20476e-05
1.20758e-05
1.21065e-05
1.21399e-05
1.21763e-05
1.2216e-05
1.22593e-05
1.23067e-05
1.23584e-05
1.24149e-05
1.24768e-05
1.25445e-05
1.26186e-05
1.26997e-05
1.27888e-05
1.28864e-05
1.29938e-05
1.31118e-05
1.32417e-05
1.3385e-05
1.35432e-05
1.37183e-05
1.39136e-05
1.41338e-05
1.43796e-05
1.46539e-05
1.49609e-05
1.18467e-05
1.18591e-05
1.18725e-05
1.1887e-05
1.19027e-05
1.19198e-05
1.19383e-05
1.19585e-05
1.19804e-05
1.20042e-05
1.20302e-05
1.20584e-05
1.20891e-05
1.21225e-05
1.21589e-05
1.21986e-05
1.2242e-05
1.22893e-05
1.2341e-05
1.23975e-05
1.24592e-05
1.25268e-05
1.26008e-05
1.26818e-05
1.27705e-05
1.28678e-05
1.29747e-05
1.30921e-05
1.32212e-05
1.33634e-05
1.35202e-05
1.36936e-05
1.38864e-05
1.41035e-05
1.4346e-05
1.46165e-05
1.4919e-05
1.17445e-05
1.17569e-05
1.17703e-05
1.17848e-05
1.18005e-05
1.18175e-05
1.1836e-05
1.18561e-05
1.1878e-05
1.19018e-05
1.19277e-05
1.19558e-05
1.19865e-05
1.20198e-05
1.20561e-05
1.20957e-05
1.2139e-05
1.21861e-05
1.22376e-05
1.22939e-05
1.23553e-05
1.24226e-05
1.24961e-05
1.25766e-05
1.26648e-05
1.27614e-05
1.28673e-05
1.29836e-05
1.31113e-05
1.32516e-05
1.3406e-05
1.35762e-05
1.37644e-05
1.39748e-05
1.42114e-05
1.44749e-05
1.47689e-05
1.12699e-05
1.12821e-05
1.12952e-05
1.13095e-05
1.1325e-05
1.13418e-05
1.136e-05
1.13798e-05
1.14013e-05
1.14247e-05
1.14502e-05
1.14779e-05
1.15081e-05
1.15409e-05
1.15766e-05
1.16155e-05
1.1658e-05
1.17043e-05
1.17548e-05
1.18099e-05
1.18702e-05
1.19359e-05
1.20079e-05
1.20865e-05
1.21725e-05
1.22666e-05
1.23697e-05
1.24825e-05
1.26061e-05
1.27415e-05
1.28898e-05
1.30525e-05
1.32309e-05
1.34266e-05
1.36419e-05
1.3881e-05
1.41516e-05
9.54599e-06
9.55534e-06
9.56548e-06
9.57649e-06
9.58844e-06
9.60141e-06
9.6155e-06
9.63079e-06
9.6474e-06
9.66548e-06
9.68514e-06
9.70653e-06
9.72981e-06
9.75513e-06
9.78271e-06
9.81276e-06
9.84551e-06
9.88122e-06
9.92017e-06
9.96268e-06
1.00091e-05
1.00598e-05
1.01152e-05
1.01758e-05
1.0242e-05
1.03144e-05
1.03937e-05
1.04803e-05
1.05752e-05
1.06791e-05
1.07929e-05
1.09174e-05
1.10542e-05
1.12048e-05
1.13706e-05
1.15535e-05
1.17555e-05
1.43304e-05
1.43383e-05
1.43469e-05
1.43562e-05
1.43662e-05
1.43772e-05
1.43891e-05
1.4402e-05
1.44161e-05
1.44315e-05
1.44482e-05
1.44664e-05
1.44862e-05
1.45079e-05
1.45315e-05
1.45572e-05
1.45853e-05
1.46161e-05
1.46497e-05
1.46865e-05
1.47269e-05
1.47711e-05
1.48197e-05
1.48732e-05
1.49321e-05
1.49971e-05
1.50688e-05
1.51482e-05
1.5236e-05
1.53334e-05
1.54414e-05
1.55614e-05
1.56947e-05
1.5843e-05
1.6008e-05
1.61916e-05
1.63957e-05
1.87518e-05
1.87551e-05
1.87588e-05
1.87628e-05
1.87672e-05
1.87719e-05
1.87771e-05
1.87829e-05
1.87891e-05
1.8796e-05
1.88036e-05
1.88119e-05
1.8821e-05
1.88309e-05
1.88419e-05
1.88539e-05
1.88672e-05
1.88819e-05
1.88982e-05
1.89162e-05
1.89362e-05
1.89584e-05
1.89832e-05
1.90111e-05
1.90424e-05
1.90777e-05
1.91174e-05
1.91623e-05
1.92133e-05
1.92711e-05
1.93369e-05
1.9412e-05
1.94979e-05
1.95964e-05
1.97095e-05
1.98394e-05
1.99884e-05
2.00442e-05
2.00478e-05
2.00517e-05
2.00559e-05
2.00605e-05
2.00656e-05
2.00712e-05
2.00773e-05
2.0084e-05
2.00914e-05
2.00994e-05
2.01083e-05
2.0118e-05
2.01287e-05
2.01405e-05
2.01535e-05
2.01679e-05
2.01838e-05
2.02014e-05
2.0221e-05
2.02428e-05
2.02671e-05
2.02944e-05
2.0325e-05
2.03595e-05
2.03985e-05
2.04425e-05
2.04925e-05
2.05494e-05
2.06142e-05
2.06884e-05
2.07734e-05
2.08713e-05
2.09843e-05
2.11149e-05
2.12659e-05
2.14406e-05
2.03637e-05
2.03674e-05
2.03714e-05
2.03757e-05
2.03805e-05
2.03857e-05
2.03915e-05
2.03978e-05
2.04047e-05
2.04123e-05
2.04206e-05
2.04297e-05
2.04398e-05
2.04508e-05
2.04629e-05
2.04763e-05
2.04912e-05
2.05076e-05
2.0526e-05
2.05463e-05
2.05689e-05
2.05942e-05
2.06225e-05
2.06543e-05
2.06901e-05
2.07306e-05
2.07764e-05
2.08284e-05
2.08877e-05
2.09553e-05
2.10327e-05
2.11216e-05
2.12243e-05
2.1343e-05
2.14807e-05
2.16405e-05
2.18263e-05
2.04299e-05
2.04336e-05
2.04376e-05
2.0442e-05
2.04468e-05
2.04521e-05
2.04579e-05
2.04642e-05
2.04712e-05
2.04788e-05
2.04871e-05
2.04963e-05
2.05063e-05
2.05174e-05
2.05296e-05
2.0543e-05
2.05579e-05
2.05745e-05
2.05929e-05
2.06134e-05
2.06362e-05
2.06617e-05
2.06902e-05
2.07221e-05
2.07582e-05
2.07989e-05
2.08451e-05
2.08974e-05
2.09571e-05
2.10252e-05
2.11032e-05
2.11931e-05
2.12969e-05
2.14173e-05
2.15572e-05
2.17204e-05
2.19113e-05
2.04411e-05
2.04448e-05
2.04488e-05
2.04532e-05
2.0458e-05
2.04633e-05
2.04691e-05
2.04754e-05
2.04823e-05
2.04899e-05
2.04982e-05
2.05074e-05
2.05174e-05
2.05285e-05
2.05406e-05
2.0554e-05
2.05689e-05
2.05855e-05
2.06039e-05
2.06244e-05
2.06472e-05
2.06727e-05
2.07012e-05
2.07331e-05
2.07692e-05
2.08098e-05
2.08559e-05
2.09082e-05
2.09678e-05
2.10359e-05
2.1114e-05
2.1204e-05
2.13082e-05
2.14293e-05
2.15706e-05
2.17361e-05
2.19311e-05
2.04409e-05
2.04447e-05
2.04487e-05
2.04532e-05
2.0458e-05
2.04633e-05
2.0469e-05
2.04754e-05
2.04823e-05
2.04899e-05
2.04982e-05
2.05073e-05
2.05173e-05
2.05284e-05
2.05405e-05
2.05539e-05
2.05688e-05
2.05854e-05
2.06038e-05
2.06243e-05
2.06471e-05
2.06726e-05
2.07011e-05
2.07331e-05
2.07691e-05
2.08097e-05
2.08557e-05
2.09079e-05
2.09675e-05
2.10356e-05
2.11138e-05
2.1204e-05
2.13086e-05
2.14304e-05
2.15731e-05
2.17412e-05
2.19406e-05
2.04296e-05
2.04333e-05
2.04374e-05
2.04419e-05
2.04467e-05
2.0452e-05
2.04578e-05
2.04641e-05
2.0471e-05
2.04786e-05
2.04869e-05
2.0496e-05
2.05061e-05
2.05171e-05
2.05292e-05
2.05427e-05
2.05576e-05
2.05742e-05
2.05926e-05
2.06131e-05
2.06359e-05
2.06614e-05
2.06899e-05
2.07218e-05
2.07578e-05
2.07984e-05
2.08443e-05
2.08965e-05
2.0956e-05
2.1024e-05
2.11022e-05
2.11925e-05
2.12972e-05
2.14196e-05
2.15634e-05
2.17337e-05
2.19371e-05
2.03631e-05
2.03669e-05
2.0371e-05
2.03755e-05
2.03803e-05
2.03855e-05
2.03913e-05
2.03976e-05
2.04044e-05
2.0412e-05
2.04203e-05
2.04293e-05
2.04393e-05
2.04502e-05
2.04623e-05
2.04757e-05
2.04906e-05
2.0507e-05
2.05253e-05
2.05456e-05
2.05683e-05
2.05935e-05
2.06218e-05
2.06534e-05
2.0689e-05
2.07291e-05
2.07745e-05
2.0826e-05
2.08847e-05
2.09518e-05
2.10288e-05
2.11176e-05
2.12208e-05
2.13414e-05
2.14834e-05
2.16523e-05
2.18549e-05
2.00436e-05
2.00473e-05
2.00513e-05
2.00556e-05
2.00603e-05
2.00654e-05
2.00709e-05
2.0077e-05
2.00836e-05
2.00909e-05
2.0099e-05
2.01078e-05
2.01174e-05
2.0128e-05
2.01397e-05
2.01526e-05
2.01669e-05
2.01828e-05
2.02003e-05
2.02198e-05
2.02414e-05
2.02656e-05
2.02926e-05
2.03228e-05
2.03566e-05
2.03947e-05
2.04377e-05
2.04862e-05
2.05413e-05
2.06041e-05
2.06758e-05
2.07582e-05
2.08535e-05
2.09645e-05
2.10949e-05
2.12496e-05
2.14353e-05
1.87513e-05
1.87547e-05
1.87585e-05
1.87625e-05
1.87669e-05
1.87717e-05
1.87769e-05
1.87826e-05
1.87888e-05
1.87956e-05
1.88031e-05
1.88113e-05
1.88203e-05
1.88301e-05
1.88409e-05
1.88528e-05
1.88659e-05
1.88804e-05
1.88963e-05
1.8914e-05
1.89335e-05
1.89552e-05
1.89793e-05
1.9006e-05
1.90358e-05
1.9069e-05
1.91062e-05
1.9148e-05
1.91948e-05
1.92469e-05
1.93054e-05
1.93714e-05
1.94464e-05
1.95322e-05
1.96311e-05
1.97465e-05
1.98828e-05
1.43303e-05
1.43382e-05
1.43468e-05
1.43561e-05
1.43662e-05
1.43771e-05
1.4389e-05
1.4402e-05
1.4416e-05
1.44313e-05
1.44479e-05
1.4466e-05
1.44856e-05
1.4507e-05
1.45304e-05
1.45558e-05
1.45835e-05
1.46137e-05
1.46466e-05
1.46826e-05
1.47218e-05
1.47647e-05
1.48116e-05
1.48628e-05
1.49189e-05
1.49801e-05
1.50472e-05
1.51205e-05
1.52009e-05
1.52895e-05
1.53869e-05
1.54939e-05
1.56114e-05
1.57406e-05
1.5883e-05
1.60401e-05
1.62139e-05
1.54201e-05
1.54278e-05
1.54362e-05
1.54453e-05
1.54551e-05
1.54658e-05
1.54775e-05
1.54901e-05
1.55039e-05
1.55189e-05
1.55352e-05
1.5553e-05
1.55724e-05
1.55936e-05
1.56166e-05
1.56418e-05
1.56693e-05
1.56994e-05
1.57323e-05
1.57683e-05
1.58078e-05
1.58512e-05
1.58988e-05
1.59513e-05
1.60092e-05
1.6073e-05
1.61437e-05
1.62219e-05
1.63086e-05
1.64049e-05
1.6512e-05
1.66312e-05
1.67641e-05
1.69123e-05
1.70777e-05
1.72623e-05
1.74682e-05
2.16536e-05
2.16558e-05
2.16581e-05
2.16607e-05
2.16636e-05
2.16667e-05
2.16701e-05
2.16739e-05
2.16781e-05
2.16827e-05
2.16878e-05
2.16935e-05
2.16998e-05
2.17068e-05
2.17145e-05
2.17231e-05
2.17327e-05
2.17435e-05
2.17556e-05
2.17692e-05
2.17845e-05
2.18018e-05
2.18215e-05
2.18441e-05
2.18699e-05
2.18995e-05
2.19337e-05
2.19732e-05
2.20191e-05
2.20724e-05
2.21346e-05
2.22074e-05
2.22927e-05
2.23929e-05
2.25107e-05
2.26491e-05
2.28114e-05
2.32861e-05
2.32883e-05
2.32907e-05
2.32933e-05
2.32962e-05
2.32994e-05
2.3303e-05
2.33069e-05
2.33113e-05
2.33161e-05
2.33215e-05
2.33274e-05
2.33341e-05
2.33415e-05
2.33498e-05
2.3359e-05
2.33694e-05
2.33812e-05
2.33945e-05
2.34095e-05
2.34267e-05
2.34462e-05
2.34685e-05
2.34943e-05
2.3524e-05
2.35584e-05
2.35984e-05
2.36451e-05
2.36996e-05
2.37636e-05
2.3839e-05
2.3928e-05
2.40333e-05
2.41584e-05
2.43069e-05
2.44833e-05
2.46927e-05
2.37274e-05
2.37297e-05
2.37322e-05
2.3735e-05
2.37381e-05
2.37414e-05
2.37452e-05
2.37494e-05
2.3754e-05
2.3759e-05
2.37647e-05
2.3771e-05
2.3778e-05
2.37858e-05
2.37946e-05
2.38044e-05
2.38155e-05
2.3828e-05
2.38422e-05
2.38583e-05
2.38766e-05
2.38976e-05
2.39216e-05
2.39492e-05
2.39812e-05
2.40182e-05
2.40613e-05
2.41117e-05
2.41707e-05
2.424e-05
2.43218e-05
2.44186e-05
2.45336e-05
2.46706e-05
2.4834e-05
2.5029e-05
2.5262e-05
2.38346e-05
2.3837e-05
2.38395e-05
2.38423e-05
2.38455e-05
2.38489e-05
2.38527e-05
2.38569e-05
2.38616e-05
2.38668e-05
2.38725e-05
2.38789e-05
2.38861e-05
2.3894e-05
2.39029e-05
2.39129e-05
2.39242e-05
2.3937e-05
2.39514e-05
2.39679e-05
2.39866e-05
2.4008e-05
2.40325e-05
2.40607e-05
2.40933e-05
2.41311e-05
2.41751e-05
2.42265e-05
2.42867e-05
2.43575e-05
2.44412e-05
2.45404e-05
2.46584e-05
2.47993e-05
2.4968e-05
2.51705e-05
2.54136e-05
2.38561e-05
2.38584e-05
2.3861e-05
2.38639e-05
2.3867e-05
2.38705e-05
2.38743e-05
2.38785e-05
2.38832e-05
2.38884e-05
2.38941e-05
2.39005e-05
2.39077e-05
2.39157e-05
2.39246e-05
2.39346e-05
2.39459e-05
2.39587e-05
2.39733e-05
2.39898e-05
2.40085e-05
2.403e-05
2.40546e-05
2.40829e-05
2.41155e-05
2.41534e-05
2.41975e-05
2.42489e-05
2.43092e-05
2.43802e-05
2.44641e-05
2.45637e-05
2.46824e-05
2.48245e-05
2.49954e-05
2.52017e-05
2.54514e-05
2.3856e-05
2.38584e-05
2.3861e-05
2.38638e-05
2.3867e-05
2.38704e-05
2.38743e-05
2.38785e-05
2.38832e-05
2.38883e-05
2.38941e-05
2.39005e-05
2.39076e-05
2.39156e-05
2.39245e-05
2.39345e-05
2.39459e-05
2.39587e-05
2.39732e-05
2.39897e-05
2.40084e-05
2.40299e-05
2.40544e-05
2.40826e-05
2.41152e-05
2.4153e-05
2.41969e-05
2.42482e-05
2.43083e-05
2.43791e-05
2.44628e-05
2.45622e-05
2.46809e-05
2.48236e-05
2.49958e-05
2.52051e-05
2.54606e-05
2.38344e-05
2.38368e-05
2.38394e-05
2.38422e-05
2.38454e-05
2.38488e-05
2.38526e-05
2.38568e-05
2.38615e-05
2.38667e-05
2.38724e-05
2.38788e-05
2.38859e-05
2.38938e-05
2.39027e-05
2.39127e-05
2.39239e-05
2.39367e-05
2.39511e-05
2.39675e-05
2.39862e-05
2.40075e-05
2.40319e-05
2.40599e-05
2.40922e-05
2.41297e-05
2.41732e-05
2.4224e-05
2.42835e-05
2.43535e-05
2.44364e-05
2.45348e-05
2.46526e-05
2.47944e-05
2.49664e-05
2.51767e-05
2.54358e-05
2.37271e-05
2.37295e-05
2.3732e-05
2.37349e-05
2.37379e-05
2.37413e-05
2.37451e-05
2.37492e-05
2.37538e-05
2.37588e-05
2.37645e-05
2.37707e-05
2.37777e-05
2.37854e-05
2.37942e-05
2.3804e-05
2.3815e-05
2.38275e-05
2.38416e-05
2.38576e-05
2.38758e-05
2.38965e-05
2.39202e-05
2.39475e-05
2.39789e-05
2.40151e-05
2.40572e-05
2.41063e-05
2.41637e-05
2.42312e-05
2.43108e-05
2.44054e-05
2.45186e-05
2.46548e-05
2.48205e-05
2.5024e-05
2.52767e-05
2.32857e-05
2.3288e-05
2.32904e-05
2.32931e-05
2.3296e-05
2.32993e-05
2.33028e-05
2.33067e-05
2.3311e-05
2.33158e-05
2.33211e-05
2.3327e-05
2.33336e-05
2.33409e-05
2.33491e-05
2.33583e-05
2.33686e-05
2.33802e-05
2.33933e-05
2.34081e-05
2.34249e-05
2.3444e-05
2.34658e-05
2.34907e-05
2.35193e-05
2.35522e-05
2.35902e-05
2.36342e-05
2.36855e-05
2.37455e-05
2.38159e-05
2.38991e-05
2.3998e-05
2.41168e-05
2.42607e-05
2.44372e-05
2.46568e-05
2.16533e-05
2.16555e-05
2.16579e-05
2.16605e-05
2.16634e-05
2.16665e-05
2.167e-05
2.16737e-05
2.16778e-05
2.16824e-05
2.16875e-05
2.1693e-05
2.16992e-05
2.1706e-05
2.17135e-05
2.17219e-05
2.17313e-05
2.17417e-05
2.17533e-05
2.17664e-05
2.1781e-05
2.17974e-05
2.18158e-05
2.18365e-05
2.18599e-05
2.18863e-05
2.19164e-05
2.19506e-05
2.19896e-05
2.20343e-05
2.20855e-05
2.21447e-05
2.22135e-05
2.22941e-05
2.23897e-05
2.25044e-05
2.26443e-05
1.542e-05
1.54277e-05
1.54361e-05
1.54452e-05
1.54551e-05
1.54658e-05
1.54774e-05
1.549e-05
1.55038e-05
1.55187e-05
1.55349e-05
1.55526e-05
1.55718e-05
1.55927e-05
1.56154e-05
1.56402e-05
1.56673e-05
1.56967e-05
1.57288e-05
1.57639e-05
1.58021e-05
1.5844e-05
1.58898e-05
1.59399e-05
1.59948e-05
1.60548e-05
1.61205e-05
1.61925e-05
1.62714e-05
1.63578e-05
1.64526e-05
1.65566e-05
1.66707e-05
1.6796e-05
1.69337e-05
1.70854e-05
1.72527e-05
1.58037e-05
1.58112e-05
1.58194e-05
1.58282e-05
1.58379e-05
1.58483e-05
1.58597e-05
1.5872e-05
1.58855e-05
1.59001e-05
1.5916e-05
1.59334e-05
1.59523e-05
1.59729e-05
1.59954e-05
1.602e-05
1.60468e-05
1.60761e-05
1.61082e-05
1.61434e-05
1.6182e-05
1.62243e-05
1.62709e-05
1.63223e-05
1.6379e-05
1.64416e-05
1.6511e-05
1.65879e-05
1.66733e-05
1.67682e-05
1.6874e-05
1.6992e-05
1.71238e-05
1.72711e-05
1.7436e-05
1.76204e-05
1.78267e-05
2.29327e-05
2.29343e-05
2.29361e-05
2.2938e-05
2.29401e-05
2.29425e-05
2.29451e-05
2.29479e-05
2.29512e-05
2.29548e-05
2.29589e-05
2.29634e-05
2.29685e-05
2.29741e-05
2.29805e-05
2.29876e-05
2.29957e-05
2.30048e-05
2.30152e-05
2.3027e-05
2.30405e-05
2.3056e-05
2.30738e-05
2.30945e-05
2.31185e-05
2.31464e-05
2.31791e-05
2.32174e-05
2.32625e-05
2.33158e-05
2.33789e-05
2.34537e-05
2.35427e-05
2.36486e-05
2.37746e-05
2.39245e-05
2.41021e-05
2.47659e-05
2.47675e-05
2.47692e-05
2.47711e-05
2.47732e-05
2.47756e-05
2.47783e-05
2.47812e-05
2.47846e-05
2.47883e-05
2.47925e-05
2.47973e-05
2.48026e-05
2.48087e-05
2.48155e-05
2.48234e-05
2.48323e-05
2.48425e-05
2.48543e-05
2.48679e-05
2.48836e-05
2.49018e-05
2.4923e-05
2.49479e-05
2.49771e-05
2.50115e-05
2.50521e-05
2.51003e-05
2.51575e-05
2.52258e-05
2.53075e-05
2.54054e-05
2.55229e-05
2.56641e-05
2.58339e-05
2.60378e-05
2.62822e-05
2.52875e-05
2.52892e-05
2.5291e-05
2.52931e-05
2.52953e-05
2.52979e-05
2.53008e-05
2.5304e-05
2.53076e-05
2.53116e-05
2.53161e-05
2.53213e-05
2.53271e-05
2.53336e-05
2.53411e-05
2.53496e-05
2.53594e-05
2.53706e-05
2.53835e-05
2.53984e-05
2.54157e-05
2.54358e-05
2.54593e-05
2.54868e-05
2.55192e-05
2.55573e-05
2.56024e-05
2.56559e-05
2.57197e-05
2.57958e-05
2.5887e-05
2.59965e-05
2.61283e-05
2.62873e-05
2.64792e-05
2.67108e-05
2.699e-05
2.54273e-05
2.5429e-05
2.54309e-05
2.5433e-05
2.54354e-05
2.5438e-05
2.5441e-05
2.54443e-05
2.5448e-05
2.54521e-05
2.54568e-05
2.54621e-05
2.5468e-05
2.54748e-05
2.54825e-05
2.54913e-05
2.55014e-05
2.5513e-05
2.55263e-05
2.55418e-05
2.55596e-05
2.55804e-05
2.56047e-05
2.56331e-05
2.56665e-05
2.57058e-05
2.57524e-05
2.58077e-05
2.58735e-05
2.59521e-05
2.60464e-05
2.61597e-05
2.62963e-05
2.64615e-05
2.66617e-05
2.69047e-05
2.71997e-05
2.54586e-05
2.54603e-05
2.54622e-05
2.54644e-05
2.54668e-05
2.54694e-05
2.54724e-05
2.54757e-05
2.54794e-05
2.54836e-05
2.54883e-05
2.54936e-05
2.54996e-05
2.55065e-05
2.55142e-05
2.55231e-05
2.55332e-05
2.55449e-05
2.55583e-05
2.55739e-05
2.55919e-05
2.56128e-05
2.56372e-05
2.56658e-05
2.56993e-05
2.57389e-05
2.57856e-05
2.58411e-05
2.59072e-05
2.59861e-05
2.60808e-05
2.61947e-05
2.63324e-05
2.64993e-05
2.67025e-05
2.69506e-05
2.72545e-05
2.54585e-05
2.54603e-05
2.54622e-05
2.54644e-05
2.54667e-05
2.54694e-05
2.54724e-05
2.54757e-05
2.54794e-05
2.54836e-05
2.54883e-05
2.54936e-05
2.54996e-05
2.55064e-05
2.55142e-05
2.5523e-05
2.55332e-05
2.55448e-05
2.55582e-05
2.55737e-05
2.55917e-05
2.56126e-05
2.56369e-05
2.56654e-05
2.56988e-05
2.57381e-05
2.57846e-05
2.58398e-05
2.59054e-05
2.59839e-05
2.6078e-05
2.61913e-05
2.63286e-05
2.64955e-05
2.66997e-05
2.69508e-05
2.72611e-05
2.54272e-05
2.54289e-05
2.54308e-05
2.5433e-05
2.54353e-05
2.5438e-05
2.54409e-05
2.54442e-05
2.54479e-05
2.5452e-05
2.54567e-05
2.5462e-05
2.54679e-05
2.54747e-05
2.54823e-05
2.54911e-05
2.55011e-05
2.55127e-05
2.5526e-05
2.55413e-05
2.5559e-05
2.55796e-05
2.56036e-05
2.56317e-05
2.56646e-05
2.57033e-05
2.5749e-05
2.58032e-05
2.58676e-05
2.59446e-05
2.60369e-05
2.61482e-05
2.62831e-05
2.64475e-05
2.66495e-05
2.68996e-05
2.72117e-05
2.52873e-05
2.5289e-05
2.52909e-05
2.5293e-05
2.52953e-05
2.52978e-05
2.53007e-05
2.53039e-05
2.53074e-05
2.53114e-05
2.5316e-05
2.5321e-05
2.53268e-05
2.53333e-05
2.53407e-05
2.53492e-05
2.53589e-05
2.537e-05
2.53828e-05
2.53975e-05
2.54145e-05
2.54343e-05
2.54572e-05
2.5484e-05
2.55154e-05
2.55523e-05
2.55958e-05
2.56472e-05
2.57083e-05
2.57811e-05
2.58683e-05
2.59732e-05
2.61004e-05
2.62556e-05
2.64466e-05
2.66842e-05
2.69831e-05
2.47656e-05
2.47672e-05
2.4769e-05
2.4771e-05
2.47731e-05
2.47755e-05
2.47781e-05
2.47811e-05
2.47844e-05
2.47881e-05
2.47923e-05
2.47969e-05
2.48022e-05
2.48082e-05
2.48149e-05
2.48226e-05
2.48314e-05
2.48414e-05
2.48529e-05
2.48661e-05
2.48812e-05
2.48988e-05
2.49191e-05
2.49428e-05
2.49704e-05
2.50026e-05
2.50404e-05
2.50849e-05
2.51375e-05
2.51999e-05
2.52742e-05
2.53633e-05
2.54707e-05
2.56013e-05
2.57616e-05
2.59609e-05
2.62122e-05
2.29324e-05
2.2934e-05
2.29359e-05
2.29378e-05
2.294e-05
2.29424e-05
2.2945e-05
2.29478e-05
2.2951e-05
2.29545e-05
2.29585e-05
2.29628e-05
2.29677e-05
2.29731e-05
2.29791e-05
2.29859e-05
2.29936e-05
2.30022e-05
2.30118e-05
2.30228e-05
2.30352e-05
2.30492e-05
2.30652e-05
2.30835e-05
2.31043e-05
2.31282e-05
2.31556e-05
2.31872e-05
2.32237e-05
2.3266e-05
2.33152e-05
2.33727e-05
2.34404e-05
2.35207e-05
2.36172e-05
2.37346e-05
2.388e-05
1.58035e-05
1.58111e-05
1.58193e-05
1.58281e-05
1.58378e-05
1.58482e-05
1.58596e-05
1.58719e-05
1.58853e-05
1.58999e-05
1.59158e-05
1.5933e-05
1.59518e-05
1.59722e-05
1.59945e-05
1.60188e-05
1.60452e-05
1.6074e-05
1.61055e-05
1.61398e-05
1.61773e-05
1.62183e-05
1.62631e-05
1.63122e-05
1.63658e-05
1.64245e-05
1.64887e-05
1.6559e-05
1.66361e-05
1.67205e-05
1.6813e-05
1.69143e-05
1.70254e-05
1.71473e-05
1.72811e-05
1.74282e-05
1.75902e-05
1.5959e-05
1.59664e-05
1.59744e-05
1.59831e-05
1.59925e-05
1.60028e-05
1.60139e-05
1.6026e-05
1.60392e-05
1.60535e-05
1.60691e-05
1.60862e-05
1.61047e-05
1.61249e-05
1.6147e-05
1.61711e-05
1.61974e-05
1.62261e-05
1.62576e-05
1.6292e-05
1.63298e-05
1.63712e-05
1.64167e-05
1.64671e-05
1.65228e-05
1.65844e-05
1.66527e-05
1.67285e-05
1.68127e-05
1.69065e-05
1.70111e-05
1.7128e-05
1.72587e-05
1.74051e-05
1.75692e-05
1.77531e-05
1.79592e-05
2.3528e-05
2.35292e-05
2.35306e-05
2.35321e-05
2.35338e-05
2.35356e-05
2.35376e-05
2.354e-05
2.35426e-05
2.35456e-05
2.3549e-05
2.35528e-05
2.3557e-05
2.35618e-05
2.35672e-05
2.35734e-05
2.35804e-05
2.35885e-05
2.35978e-05
2.36085e-05
2.36209e-05
2.36354e-05
2.36522e-05
2.36717e-05
2.36946e-05
2.37214e-05
2.37532e-05
2.37908e-05
2.38354e-05
2.38887e-05
2.39523e-05
2.40285e-05
2.41197e-05
2.42292e-05
2.43605e-05
2.45176e-05
2.47051e-05
2.55029e-05
2.55041e-05
2.55054e-05
2.55069e-05
2.55086e-05
2.55104e-05
2.55126e-05
2.5515e-05
2.55177e-05
2.55209e-05
2.55244e-05
2.55285e-05
2.55331e-05
2.55384e-05
2.55445e-05
2.55515e-05
2.55597e-05
2.55692e-05
2.55802e-05
2.5593e-05
2.56081e-05
2.56258e-05
2.56468e-05
2.56715e-05
2.57009e-05
2.57358e-05
2.57775e-05
2.58274e-05
2.58873e-05
2.59594e-05
2.60464e-05
2.61514e-05
2.62783e-05
2.64319e-05
2.66177e-05
2.68421e-05
2.71124e-05
2.60839e-05
2.60852e-05
2.60866e-05
2.60883e-05
2.60901e-05
2.60922e-05
2.60945e-05
2.60972e-05
2.61002e-05
2.61037e-05
2.61076e-05
2.61121e-05
2.61172e-05
2.61231e-05
2.61299e-05
2.61378e-05
2.61469e-05
2.61576e-05
2.617e-05
2.61845e-05
2.62015e-05
2.62216e-05
2.62453e-05
2.62733e-05
2.63066e-05
2.63463e-05
2.63938e-05
2.64506e-05
2.65188e-05
2.66011e-05
2.67004e-05
2.68205e-05
2.69661e-05
2.71427e-05
2.73571e-05
2.76173e-05
2.79326e-05
2.62496e-05
2.6251e-05
2.62525e-05
2.62542e-05
2.62561e-05
2.62583e-05
2.62607e-05
2.62635e-05
2.62666e-05
2.62702e-05
2.62743e-05
2.6279e-05
2.62843e-05
2.62905e-05
2.62976e-05
2.63058e-05
2.63154e-05
2.63265e-05
2.63394e-05
2.63546e-05
2.63724e-05
2.63933e-05
2.64181e-05
2.64473e-05
2.64821e-05
2.65235e-05
2.65729e-05
2.66321e-05
2.67032e-05
2.67889e-05
2.68924e-05
2.70178e-05
2.717e-05
2.73551e-05
2.75807e-05
2.7856e-05
2.8192e-05
2.62894e-05
2.62908e-05
2.62923e-05
2.62941e-05
2.6296e-05
2.62982e-05
2.63007e-05
2.63035e-05
2.63067e-05
2.63103e-05
2.63144e-05
2.63192e-05
2.63246e-05
2.63308e-05
2.6338e-05
2.63463e-05
2.6356e-05
2.63672e-05
2.63803e-05
2.63956e-05
2.64136e-05
2.64347e-05
2.64597e-05
2.64892e-05
2.65242e-05
2.65659e-05
2.66156e-05
2.66752e-05
2.67468e-05
2.6833e-05
2.69371e-05
2.70634e-05
2.7217e-05
2.74044e-05
2.76338e-05
2.79156e-05
2.82624e-05
2.62894e-05
2.62908e-05
2.62923e-05
2.62941e-05
2.6296e-05
2.62982e-05
2.63007e-05
2.63035e-05
2.63067e-05
2.63103e-05
2.63144e-05
2.63191e-05
2.63246e-05
2.63308e-05
2.6338e-05
2.63463e-05
2.63559e-05
2.63671e-05
2.63802e-05
2.63955e-05
2.64134e-05
2.64344e-05
2.64592e-05
2.64886e-05
2.65234e-05
2.65648e-05
2.66142e-05
2.66734e-05
2.67443e-05
2.68298e-05
2.69331e-05
2.70585e-05
2.72113e-05
2.73983e-05
2.76284e-05
2.79131e-05
2.8267e-05
2.62495e-05
2.62509e-05
2.62524e-05
2.62541e-05
2.62561e-05
2.62582e-05
2.62607e-05
2.62634e-05
2.62666e-05
2.62702e-05
2.62742e-05
2.62789e-05
2.62842e-05
2.62904e-05
2.62975e-05
2.63056e-05
2.63151e-05
2.63262e-05
2.6339e-05
2.6354e-05
2.63716e-05
2.63923e-05
2.64166e-05
2.64454e-05
2.64795e-05
2.652e-05
2.65683e-05
2.66261e-05
2.66953e-05
2.67786e-05
2.68793e-05
2.70016e-05
2.71507e-05
2.73338e-05
2.756e-05
2.78418e-05
2.81958e-05
2.60838e-05
2.60851e-05
2.60865e-05
2.60882e-05
2.609e-05
2.60921e-05
2.60945e-05
2.60971e-05
2.61001e-05
2.61035e-05
2.61074e-05
2.61119e-05
2.6117e-05
2.61228e-05
2.61296e-05
2.61374e-05
2.61464e-05
2.61569e-05
2.61691e-05
2.61833e-05
2.62e-05
2.62196e-05
2.62426e-05
2.62697e-05
2.63018e-05
2.63399e-05
2.63852e-05
2.64393e-05
2.6504e-05
2.65818e-05
2.66756e-05
2.67894e-05
2.69282e-05
2.70986e-05
2.73098e-05
2.75741e-05
2.79091e-05
2.55027e-05
2.55039e-05
2.55053e-05
2.55068e-05
2.55085e-05
2.55103e-05
2.55125e-05
2.55149e-05
2.55176e-05
2.55207e-05
2.55242e-05
2.55282e-05
2.55327e-05
2.55379e-05
2.55439e-05
2.55508e-05
2.55587e-05
2.55679e-05
2.55786e-05
2.55909e-05
2.56054e-05
2.56223e-05
2.56421e-05
2.56653e-05
2.56927e-05
2.57251e-05
2.57634e-05
2.58089e-05
2.58631e-05
2.5928e-05
2.60058e-05
2.60998e-05
2.6214e-05
2.63537e-05
2.65264e-05
2.67426e-05
2.70175e-05
2.35276e-05
2.35289e-05
2.35303e-05
2.35318e-05
2.35336e-05
2.35354e-05
2.35375e-05
2.35398e-05
2.35424e-05
2.35453e-05
2.35485e-05
2.35521e-05
2.35561e-05
2.35607e-05
2.35658e-05
2.35716e-05
2.35782e-05
2.35856e-05
2.35941e-05
2.36037e-05
2.36147e-05
2.36274e-05
2.36419e-05
2.36586e-05
2.36779e-05
2.37001e-05
2.37259e-05
2.37559e-05
2.37908e-05
2.38315e-05
2.38793e-05
2.39355e-05
2.40022e-05
2.4082e-05
2.41784e-05
2.42967e-05
2.44443e-05
1.59589e-05
1.59663e-05
1.59743e-05
1.5983e-05
1.59924e-05
1.60027e-05
1.60138e-05
1.60259e-05
1.6039e-05
1.60533e-05
1.60689e-05
1.60858e-05
1.61042e-05
1.61242e-05
1.61461e-05
1.61698e-05
1.61958e-05
1.6224e-05
1.62549e-05
1.62886e-05
1.63253e-05
1.63655e-05
1.64095e-05
1.64575e-05
1.65101e-05
1.65677e-05
1.66306e-05
1.66996e-05
1.67751e-05
1.68578e-05
1.69484e-05
1.70476e-05
1.71563e-05
1.72754e-05
1.7406e-05
1.75494e-05
1.77071e-05
1.6022e-05
1.60293e-05
1.60372e-05
1.60457e-05
1.6055e-05
1.60651e-05
1.60761e-05
1.6088e-05
1.61009e-05
1.61151e-05
1.61304e-05
1.61472e-05
1.61655e-05
1.61854e-05
1.62072e-05
1.62309e-05
1.62568e-05
1.62852e-05
1.63162e-05
1.63501e-05
1.63874e-05
1.64282e-05
1.64731e-05
1.65228e-05
1.65778e-05
1.66388e-05
1.67063e-05
1.67813e-05
1.68648e-05
1.69578e-05
1.70617e-05
1.71778e-05
1.73079e-05
1.74537e-05
1.76173e-05
1.7801e-05
1.80072e-05
2.38039e-05
2.3805e-05
2.38061e-05
2.38073e-05
2.38087e-05
2.38102e-05
2.38119e-05
2.38139e-05
2.38161e-05
2.38187e-05
2.38216e-05
2.38249e-05
2.38286e-05
2.38328e-05
2.38376e-05
2.38432e-05
2.38495e-05
2.38569e-05
2.38654e-05
2.38753e-05
2.38869e-05
2.39004e-05
2.39165e-05
2.39351e-05
2.39571e-05
2.39831e-05
2.4014e-05
2.40509e-05
2.4095e-05
2.41479e-05
2.42114e-05
2.42879e-05
2.438e-05
2.4491e-05
2.46248e-05
2.47855e-05
2.49782e-05
2.58806e-05
2.58816e-05
2.58827e-05
2.58839e-05
2.58853e-05
2.58868e-05
2.58886e-05
2.58907e-05
2.5893e-05
2.58957e-05
2.58988e-05
2.59024e-05
2.59066e-05
2.59114e-05
2.5917e-05
2.59235e-05
2.59311e-05
2.59401e-05
2.59506e-05
2.5963e-05
2.59776e-05
2.5995e-05
2.60157e-05
2.60403e-05
2.60697e-05
2.61049e-05
2.61472e-05
2.61981e-05
2.62596e-05
2.6334e-05
2.64241e-05
2.65334e-05
2.66662e-05
2.68274e-05
2.70231e-05
2.72603e-05
2.75469e-05
2.65073e-05
2.65084e-05
2.65096e-05
2.65109e-05
2.65125e-05
2.65142e-05
2.65163e-05
2.65186e-05
2.65212e-05
2.65243e-05
2.65278e-05
2.65319e-05
2.65366e-05
2.65421e-05
2.65485e-05
2.65559e-05
2.65647e-05
2.6575e-05
2.6587e-05
2.66013e-05
2.66182e-05
2.66383e-05
2.66621e-05
2.66906e-05
2.67246e-05
2.67654e-05
2.68144e-05
2.68735e-05
2.69448e-05
2.70311e-05
2.71358e-05
2.7263e-05
2.74177e-05
2.7606e-05
2.78353e-05
2.81144e-05
2.84535e-05
2.66934e-05
2.66945e-05
2.66958e-05
2.66972e-05
2.66989e-05
2.67007e-05
2.67028e-05
2.67053e-05
2.67081e-05
2.67113e-05
2.6715e-05
2.67193e-05
2.67243e-05
2.673e-05
2.67368e-05
2.67447e-05
2.67539e-05
2.67647e-05
2.67774e-05
2.67925e-05
2.68103e-05
2.68314e-05
2.68565e-05
2.68864e-05
2.69222e-05
2.6965e-05
2.70165e-05
2.70785e-05
2.71533e-05
2.72438e-05
2.73536e-05
2.74872e-05
2.76499e-05
2.78485e-05
2.80913e-05
2.83884e-05
2.87521e-05
2.67402e-05
2.67414e-05
2.67427e-05
2.67441e-05
2.67458e-05
2.67477e-05
2.67498e-05
2.67523e-05
2.67551e-05
2.67584e-05
2.67622e-05
2.67665e-05
2.67716e-05
2.67774e-05
2.67843e-05
2.67923e-05
2.68016e-05
2.68126e-05
2.68255e-05
2.68407e-05
2.68588e-05
2.68801e-05
2.69055e-05
2.69357e-05
2.69718e-05
2.70151e-05
2.7067e-05
2.71294e-05
2.72048e-05
2.7296e-05
2.74067e-05
2.75414e-05
2.77058e-05
2.79071e-05
2.81544e-05
2.84591e-05
2.88355e-05
2.67402e-05
2.67414e-05
2.67426e-05
2.67441e-05
2.67458e-05
2.67477e-05
2.67498e-05
2.67523e-05
2.67551e-05