/*--------------------------------*- C++ -*----------------------------------*\
| =========                 |                                                 |
| \\      /  F ield         | OpenFOAM: The Open Source CFD Toolbox           |
|  \\    /   O peration     | Version:  2.3.1                                 |
|   \\  /    A nd           | Web:      www.OpenFOAM.org                      |
|    \\/     M anipulation  |                                                 |
\*---------------------------------------------------------------------------*/
FoamFile
{
    version     2.0;
    format      ascii;
    class       volScalarField;
    location    "5";
    object      k_0;
}
// * * * * * * * * * * * * * * * * * * * * * * * * * * * * * * * * * * * * * //

dimensions      [0 2 -2 0 0 0 0];

internalField   nonuniform List<scalar> 
37530
(
9.54981e-06
9.55915e-06
9.56929e-06
9.58028e-06
9.5922e-06
9.60514e-06
9.61921e-06
9.6345e-06
9.65113e-06
9.66925e-06
9.68898e-06
9.71046e-06
9.73387e-06
9.75939e-06
9.7872e-06
9.81754e-06
9.85066e-06
9.88683e-06
9.92638e-06
9.96965e-06
1.0017e-05
1.00689e-05
1.01259e-05
1.01885e-05
1.02573e-05
1.03331e-05
1.04166e-05
1.05088e-05
1.06107e-05
1.07232e-05
1.08478e-05
1.09857e-05
1.11385e-05
1.13078e-05
1.14955e-05
1.17035e-05
1.19339e-05
1.12738e-05
1.12859e-05
1.1299e-05
1.13132e-05
1.13286e-05
1.13454e-05
1.13636e-05
1.13834e-05
1.14049e-05
1.14284e-05
1.1454e-05
1.14818e-05
1.15121e-05
1.15452e-05
1.15812e-05
1.16205e-05
1.16633e-05
1.17102e-05
1.17614e-05
1.18173e-05
1.18786e-05
1.19458e-05
1.20194e-05
1.21004e-05
1.21894e-05
1.22874e-05
1.23954e-05
1.25146e-05
1.26463e-05
1.27918e-05
1.29528e-05
1.31313e-05
1.33293e-05
1.35495e-05
1.37953e-05
1.40749e-05
1.43907e-05
1.17483e-05
1.17606e-05
1.17738e-05
1.17882e-05
1.18039e-05
1.18209e-05
1.18394e-05
1.18595e-05
1.18814e-05
1.19052e-05
1.19312e-05
1.19594e-05
1.19902e-05
1.20238e-05
1.20603e-05
1.21002e-05
1.21437e-05
1.21913e-05
1.22433e-05
1.23001e-05
1.23624e-05
1.24306e-05
1.25054e-05
1.25876e-05
1.26781e-05
1.27776e-05
1.28874e-05
1.30085e-05
1.31422e-05
1.32902e-05
1.3454e-05
1.3636e-05
1.3839e-05
1.40686e-05
1.43266e-05
1.46145e-05
1.49359e-05
1.18503e-05
1.18625e-05
1.18758e-05
1.18903e-05
1.19059e-05
1.19229e-05
1.19415e-05
1.19617e-05
1.19836e-05
1.20075e-05
1.20334e-05
1.20617e-05
1.20925e-05
1.21261e-05
1.21626e-05
1.22025e-05
1.22461e-05
1.22937e-05
1.23457e-05
1.24027e-05
1.2465e-05
1.25332e-05
1.26081e-05
1.26903e-05
1.27807e-05
1.28801e-05
1.29898e-05
1.31107e-05
1.32442e-05
1.33918e-05
1.35553e-05
1.3737e-05
1.39404e-05
1.41705e-05
1.44274e-05
1.47143e-05
1.50346e-05
1.18677e-05
1.188e-05
1.18933e-05
1.19077e-05
1.19233e-05
1.19404e-05
1.19589e-05
1.1979e-05
1.2001e-05
1.20248e-05
1.20507e-05
1.20789e-05
1.21097e-05
1.21432e-05
1.21796e-05
1.22194e-05
1.22628e-05
1.23103e-05
1.23622e-05
1.24191e-05
1.24812e-05
1.25493e-05
1.26239e-05
1.27058e-05
1.27958e-05
1.28948e-05
1.30039e-05
1.3124e-05
1.32566e-05
1.34032e-05
1.35654e-05
1.37456e-05
1.39474e-05
1.41755e-05
1.443e-05
1.47142e-05
1.50319e-05
1.18701e-05
1.18823e-05
1.18956e-05
1.191e-05
1.19257e-05
1.19427e-05
1.19612e-05
1.19814e-05
1.20032e-05
1.2027e-05
1.20529e-05
1.20811e-05
1.21118e-05
1.21452e-05
1.21816e-05
1.22213e-05
1.22647e-05
1.2312e-05
1.23638e-05
1.24205e-05
1.24825e-05
1.25504e-05
1.26248e-05
1.27064e-05
1.2796e-05
1.28945e-05
1.30028e-05
1.31222e-05
1.32538e-05
1.33991e-05
1.35599e-05
1.37384e-05
1.39379e-05
1.41633e-05
1.4415e-05
1.46959e-05
1.50102e-05
1.187e-05
1.18822e-05
1.18955e-05
1.191e-05
1.19257e-05
1.19427e-05
1.19612e-05
1.19813e-05
1.20032e-05
1.2027e-05
1.20528e-05
1.2081e-05
1.21117e-05
1.21451e-05
1.21814e-05
1.22211e-05
1.22644e-05
1.23117e-05
1.23634e-05
1.242e-05
1.24819e-05
1.25496e-05
1.26238e-05
1.27051e-05
1.27943e-05
1.28923e-05
1.30001e-05
1.31187e-05
1.32493e-05
1.33935e-05
1.35529e-05
1.37295e-05
1.39268e-05
1.41495e-05
1.43982e-05
1.46757e-05
1.49863e-05
1.18674e-05
1.18797e-05
1.1893e-05
1.19075e-05
1.19232e-05
1.19402e-05
1.19588e-05
1.19789e-05
1.20008e-05
1.20246e-05
1.20504e-05
1.20786e-05
1.21093e-05
1.21426e-05
1.2179e-05
1.22186e-05
1.22619e-05
1.23092e-05
1.23609e-05
1.24174e-05
1.24792e-05
1.25468e-05
1.26208e-05
1.27019e-05
1.27909e-05
1.28885e-05
1.29957e-05
1.31136e-05
1.32435e-05
1.33866e-05
1.35447e-05
1.37197e-05
1.39148e-05
1.41348e-05
1.43804e-05
1.46545e-05
1.49612e-05
1.18497e-05
1.18621e-05
1.18755e-05
1.189e-05
1.19057e-05
1.19227e-05
1.19413e-05
1.19614e-05
1.19833e-05
1.20071e-05
1.2033e-05
1.20612e-05
1.20919e-05
1.21252e-05
1.21616e-05
1.22013e-05
1.22446e-05
1.22919e-05
1.23435e-05
1.24e-05
1.24617e-05
1.25292e-05
1.26031e-05
1.2684e-05
1.27727e-05
1.28699e-05
1.29766e-05
1.3094e-05
1.3223e-05
1.3365e-05
1.35217e-05
1.3695e-05
1.38876e-05
1.41046e-05
1.43469e-05
1.46171e-05
1.49193e-05
1.17477e-05
1.176e-05
1.17734e-05
1.17878e-05
1.18035e-05
1.18206e-05
1.18391e-05
1.18591e-05
1.1881e-05
1.19047e-05
1.19306e-05
1.19587e-05
1.19893e-05
1.20226e-05
1.20589e-05
1.20985e-05
1.21417e-05
1.21888e-05
1.22403e-05
1.22965e-05
1.23579e-05
1.2425e-05
1.24985e-05
1.25789e-05
1.2667e-05
1.27635e-05
1.28694e-05
1.29855e-05
1.31131e-05
1.32533e-05
1.34076e-05
1.35776e-05
1.37658e-05
1.3976e-05
1.42125e-05
1.44757e-05
1.47694e-05
1.12733e-05
1.12854e-05
1.12985e-05
1.13128e-05
1.13283e-05
1.13451e-05
1.13633e-05
1.1383e-05
1.14045e-05
1.14279e-05
1.14534e-05
1.14811e-05
1.15112e-05
1.1544e-05
1.15796e-05
1.16186e-05
1.1661e-05
1.17072e-05
1.17577e-05
1.18128e-05
1.18729e-05
1.19387e-05
1.20105e-05
1.20891e-05
1.2175e-05
1.22691e-05
1.2372e-05
1.24848e-05
1.26082e-05
1.27435e-05
1.28917e-05
1.30543e-05
1.32326e-05
1.3428e-05
1.36432e-05
1.38822e-05
1.41525e-05
9.54958e-06
9.55891e-06
9.56905e-06
9.58004e-06
9.59198e-06
9.60494e-06
9.61901e-06
9.63428e-06
9.65088e-06
9.66894e-06
9.68858e-06
9.70996e-06
9.73321e-06
9.75851e-06
9.78606e-06
9.81608e-06
9.84879e-06
9.88447e-06
9.92338e-06
9.96585e-06
1.00122e-05
1.00629e-05
1.01182e-05
1.01788e-05
1.02449e-05
1.03173e-05
1.03964e-05
1.0483e-05
1.05778e-05
1.06816e-05
1.07953e-05
1.09198e-05
1.10564e-05
1.12069e-05
1.13726e-05
1.15553e-05
1.17571e-05
1.43348e-05
1.43427e-05
1.43512e-05
1.43605e-05
1.43706e-05
1.43815e-05
1.43934e-05
1.44063e-05
1.44204e-05
1.44357e-05
1.44524e-05
1.44706e-05
1.44904e-05
1.4512e-05
1.45356e-05
1.45613e-05
1.45894e-05
1.46201e-05
1.46537e-05
1.46905e-05
1.47308e-05
1.4775e-05
1.48236e-05
1.4877e-05
1.49358e-05
1.50008e-05
1.50724e-05
1.51517e-05
1.52395e-05
1.53368e-05
1.54447e-05
1.55645e-05
1.56978e-05
1.5846e-05
1.60108e-05
1.61943e-05
1.63982e-05
1.87562e-05
1.87596e-05
1.87632e-05
1.87672e-05
1.87716e-05
1.87763e-05
1.87815e-05
1.87872e-05
1.87935e-05
1.88004e-05
1.88079e-05
1.88162e-05
1.88253e-05
1.88352e-05
1.88462e-05
1.88582e-05
1.88715e-05
1.88862e-05
1.89024e-05
1.89204e-05
1.89403e-05
1.89625e-05
1.89874e-05
1.90152e-05
1.90465e-05
1.90816e-05
1.91213e-05
1.91662e-05
1.92171e-05
1.92748e-05
1.93405e-05
1.94156e-05
1.95014e-05
1.95998e-05
1.97127e-05
1.98426e-05
1.99915e-05
2.00481e-05
2.00517e-05
2.00556e-05
2.00598e-05
2.00644e-05
2.00695e-05
2.00751e-05
2.00812e-05
2.00879e-05
2.00952e-05
2.01033e-05
2.01121e-05
2.01219e-05
2.01325e-05
2.01443e-05
2.01573e-05
2.01716e-05
2.01875e-05
2.02051e-05
2.02247e-05
2.02465e-05
2.02707e-05
2.0298e-05
2.03285e-05
2.0363e-05
2.04019e-05
2.04459e-05
2.04959e-05
2.05527e-05
2.06174e-05
2.06914e-05
2.07764e-05
2.08742e-05
2.0987e-05
2.11175e-05
2.12684e-05
2.14428e-05
2.03673e-05
2.0371e-05
2.0375e-05
2.03794e-05
2.03841e-05
2.03894e-05
2.03951e-05
2.04014e-05
2.04083e-05
2.04159e-05
2.04242e-05
2.04333e-05
2.04433e-05
2.04543e-05
2.04665e-05
2.04798e-05
2.04947e-05
2.05111e-05
2.05294e-05
2.05497e-05
2.05723e-05
2.05975e-05
2.06258e-05
2.06575e-05
2.06933e-05
2.07337e-05
2.07795e-05
2.08315e-05
2.08906e-05
2.09581e-05
2.10354e-05
2.11243e-05
2.12268e-05
2.13454e-05
2.14829e-05
2.16426e-05
2.18282e-05
2.04335e-05
2.04372e-05
2.04412e-05
2.04456e-05
2.04504e-05
2.04556e-05
2.04614e-05
2.04678e-05
2.04747e-05
2.04823e-05
2.04906e-05
2.04998e-05
2.05098e-05
2.05209e-05
2.0533e-05
2.05464e-05
2.05613e-05
2.05779e-05
2.05963e-05
2.06167e-05
2.06395e-05
2.06649e-05
2.06934e-05
2.07253e-05
2.07613e-05
2.0802e-05
2.08481e-05
2.09004e-05
2.09599e-05
2.10279e-05
2.11059e-05
2.11956e-05
2.12993e-05
2.14195e-05
2.15593e-05
2.17223e-05
2.1913e-05
2.04446e-05
2.04483e-05
2.04524e-05
2.04568e-05
2.04616e-05
2.04668e-05
2.04726e-05
2.04789e-05
2.04859e-05
2.04934e-05
2.05017e-05
2.05109e-05
2.05209e-05
2.05319e-05
2.0544e-05
2.05574e-05
2.05723e-05
2.05888e-05
2.06072e-05
2.06277e-05
2.06505e-05
2.06759e-05
2.07044e-05
2.07363e-05
2.07723e-05
2.08129e-05
2.08589e-05
2.09111e-05
2.09706e-05
2.10386e-05
2.11167e-05
2.12066e-05
2.13106e-05
2.14316e-05
2.15726e-05
2.1738e-05
2.19328e-05
2.04445e-05
2.04482e-05
2.04523e-05
2.04567e-05
2.04615e-05
2.04668e-05
2.04726e-05
2.04789e-05
2.04858e-05
2.04934e-05
2.05017e-05
2.05108e-05
2.05208e-05
2.05318e-05
2.05439e-05
2.05574e-05
2.05722e-05
2.05887e-05
2.06071e-05
2.06276e-05
2.06504e-05
2.06758e-05
2.07043e-05
2.07362e-05
2.07722e-05
2.08127e-05
2.08587e-05
2.09109e-05
2.09703e-05
2.10384e-05
2.11165e-05
2.12066e-05
2.1311e-05
2.14327e-05
2.15752e-05
2.1743e-05
2.19422e-05
2.04332e-05
2.04369e-05
2.0441e-05
2.04454e-05
2.04503e-05
2.04555e-05
2.04613e-05
2.04676e-05
2.04745e-05
2.04821e-05
2.04904e-05
2.04995e-05
2.05095e-05
2.05205e-05
2.05327e-05
2.05461e-05
2.0561e-05
2.05775e-05
2.05959e-05
2.06164e-05
2.06392e-05
2.06646e-05
2.06931e-05
2.0725e-05
2.07609e-05
2.08014e-05
2.08473e-05
2.08994e-05
2.09588e-05
2.10268e-05
2.11049e-05
2.1195e-05
2.12996e-05
2.14218e-05
2.15655e-05
2.17355e-05
2.19387e-05
2.03668e-05
2.03706e-05
2.03747e-05
2.03791e-05
2.03839e-05
2.03892e-05
2.03949e-05
2.04012e-05
2.0408e-05
2.04156e-05
2.04239e-05
2.04329e-05
2.04429e-05
2.04538e-05
2.04659e-05
2.04793e-05
2.04941e-05
2.05105e-05
2.05288e-05
2.0549e-05
2.05717e-05
2.05969e-05
2.06251e-05
2.06567e-05
2.06922e-05
2.07323e-05
2.07776e-05
2.08291e-05
2.08877e-05
2.09547e-05
2.10316e-05
2.11203e-05
2.12233e-05
2.13437e-05
2.14856e-05
2.16542e-05
2.18566e-05
2.00475e-05
2.00512e-05
2.00552e-05
2.00595e-05
2.00641e-05
2.00692e-05
2.00748e-05
2.00809e-05
2.00875e-05
2.00948e-05
2.01028e-05
2.01116e-05
2.01212e-05
2.01318e-05
2.01435e-05
2.01564e-05
2.01707e-05
2.01865e-05
2.0204e-05
2.02234e-05
2.02451e-05
2.02692e-05
2.02961e-05
2.03263e-05
2.03601e-05
2.03982e-05
2.04411e-05
2.04896e-05
2.05446e-05
2.06073e-05
2.06789e-05
2.07612e-05
2.08563e-05
2.09672e-05
2.10974e-05
2.12519e-05
2.14374e-05
1.87557e-05
1.87591e-05
1.87629e-05
1.87669e-05
1.87713e-05
1.87761e-05
1.87813e-05
1.8787e-05
1.87932e-05
1.88e-05
1.88075e-05
1.88156e-05
1.88246e-05
1.88344e-05
1.88452e-05
1.88571e-05
1.88702e-05
1.88846e-05
1.89006e-05
1.89182e-05
1.89377e-05
1.89593e-05
1.89834e-05
1.90101e-05
1.90398e-05
1.9073e-05
1.91102e-05
1.91519e-05
1.91986e-05
1.92507e-05
1.93091e-05
1.9375e-05
1.945e-05
1.95356e-05
1.96345e-05
1.97497e-05
1.98857e-05
1.43346e-05
1.43425e-05
1.43511e-05
1.43604e-05
1.43705e-05
1.43815e-05
1.43933e-05
1.44062e-05
1.44203e-05
1.44355e-05
1.44521e-05
1.44702e-05
1.44898e-05
1.45112e-05
1.45345e-05
1.45599e-05
1.45876e-05
1.46177e-05
1.46506e-05
1.46866e-05
1.47258e-05
1.47686e-05
1.48154e-05
1.48666e-05
1.49226e-05
1.49838e-05
1.50508e-05
1.51241e-05
1.52044e-05
1.5293e-05
1.53903e-05
1.54971e-05
1.56145e-05
1.57436e-05
1.58859e-05
1.60428e-05
1.62165e-05
1.54243e-05
1.5432e-05
1.54403e-05
1.54494e-05
1.54592e-05
1.54699e-05
1.54815e-05
1.54942e-05
1.55079e-05
1.55229e-05
1.55392e-05
1.5557e-05
1.55764e-05
1.55975e-05
1.56206e-05
1.56457e-05
1.56732e-05
1.57032e-05
1.57361e-05
1.57721e-05
1.58116e-05
1.58549e-05
1.59025e-05
1.59549e-05
1.60127e-05
1.60765e-05
1.61471e-05
1.62252e-05
1.63119e-05
1.64081e-05
1.65151e-05
1.66342e-05
1.67669e-05
1.6915e-05
1.70802e-05
1.72647e-05
1.74704e-05
2.16578e-05
2.16599e-05
2.16623e-05
2.16649e-05
2.16677e-05
2.16708e-05
2.16742e-05
2.1678e-05
2.16822e-05
2.16868e-05
2.16919e-05
2.16976e-05
2.17039e-05
2.17108e-05
2.17186e-05
2.17272e-05
2.17368e-05
2.17475e-05
2.17596e-05
2.17731e-05
2.17884e-05
2.18057e-05
2.18254e-05
2.18479e-05
2.18737e-05
2.19033e-05
2.19374e-05
2.19769e-05
2.20227e-05
2.20759e-05
2.2138e-05
2.22107e-05
2.2296e-05
2.23961e-05
2.25138e-05
2.2652e-05
2.28141e-05
2.32896e-05
2.32918e-05
2.32942e-05
2.32969e-05
2.32997e-05
2.3303e-05
2.33065e-05
2.33104e-05
2.33148e-05
2.33196e-05
2.3325e-05
2.33309e-05
2.33376e-05
2.33449e-05
2.33532e-05
2.33625e-05
2.33729e-05
2.33846e-05
2.33979e-05
2.34129e-05
2.343e-05
2.34495e-05
2.34718e-05
2.34975e-05
2.35272e-05
2.35616e-05
2.36015e-05
2.36481e-05
2.37025e-05
2.37665e-05
2.38417e-05
2.39306e-05
2.40358e-05
2.41607e-05
2.43091e-05
2.44853e-05
2.46945e-05
2.37307e-05
2.3733e-05
2.37355e-05
2.37382e-05
2.37413e-05
2.37447e-05
2.37484e-05
2.37526e-05
2.37571e-05
2.37622e-05
2.37679e-05
2.37742e-05
2.37812e-05
2.3789e-05
2.37977e-05
2.38075e-05
2.38186e-05
2.38311e-05
2.38453e-05
2.38613e-05
2.38796e-05
2.39005e-05
2.39245e-05
2.39521e-05
2.3984e-05
2.4021e-05
2.4064e-05
2.41143e-05
2.41732e-05
2.42424e-05
2.43241e-05
2.44208e-05
2.45357e-05
2.46725e-05
2.48357e-05
2.50305e-05
2.52632e-05
2.38377e-05
2.38401e-05
2.38426e-05
2.38455e-05
2.38486e-05
2.3852e-05
2.38558e-05
2.386e-05
2.38647e-05
2.38699e-05
2.38756e-05
2.3882e-05
2.38891e-05
2.3897e-05
2.39059e-05
2.39159e-05
2.39272e-05
2.39399e-05
2.39544e-05
2.39708e-05
2.39895e-05
2.40108e-05
2.40353e-05
2.40635e-05
2.4096e-05
2.41338e-05
2.41777e-05
2.4229e-05
2.42891e-05
2.43599e-05
2.44434e-05
2.45424e-05
2.46603e-05
2.4801e-05
2.49695e-05
2.51717e-05
2.54146e-05
2.38592e-05
2.38615e-05
2.38641e-05
2.38669e-05
2.38701e-05
2.38735e-05
2.38774e-05
2.38816e-05
2.38862e-05
2.38914e-05
2.38972e-05
2.39036e-05
2.39107e-05
2.39187e-05
2.39276e-05
2.39376e-05
2.39489e-05
2.39617e-05
2.39762e-05
2.39926e-05
2.40114e-05
2.40328e-05
2.40573e-05
2.40856e-05
2.41182e-05
2.4156e-05
2.42e-05
2.42514e-05
2.43116e-05
2.43825e-05
2.44663e-05
2.45657e-05
2.46842e-05
2.48262e-05
2.49969e-05
2.52029e-05
2.54523e-05
2.38591e-05
2.38615e-05
2.38641e-05
2.38669e-05
2.387e-05
2.38735e-05
2.38773e-05
2.38815e-05
2.38862e-05
2.38914e-05
2.38971e-05
2.39035e-05
2.39106e-05
2.39186e-05
2.39275e-05
2.39375e-05
2.39488e-05
2.39616e-05
2.39761e-05
2.39925e-05
2.40113e-05
2.40327e-05
2.40572e-05
2.40854e-05
2.41179e-05
2.41556e-05
2.41995e-05
2.42507e-05
2.43107e-05
2.43814e-05
2.44649e-05
2.45642e-05
2.46828e-05
2.48252e-05
2.49972e-05
2.52062e-05
2.54614e-05
2.38375e-05
2.38399e-05
2.38425e-05
2.38454e-05
2.38485e-05
2.38519e-05
2.38557e-05
2.38599e-05
2.38646e-05
2.38697e-05
2.38755e-05
2.38818e-05
2.38889e-05
2.38968e-05
2.39057e-05
2.39157e-05
2.39269e-05
2.39396e-05
2.39541e-05
2.39704e-05
2.39891e-05
2.40103e-05
2.40347e-05
2.40627e-05
2.40949e-05
2.41323e-05
2.41758e-05
2.42265e-05
2.42859e-05
2.43558e-05
2.44385e-05
2.45369e-05
2.46545e-05
2.4796e-05
2.49678e-05
2.51778e-05
2.54366e-05
2.37303e-05
2.37327e-05
2.37353e-05
2.37381e-05
2.37412e-05
2.37445e-05
2.37483e-05
2.37524e-05
2.3757e-05
2.3762e-05
2.37676e-05
2.37739e-05
2.37808e-05
2.37886e-05
2.37973e-05
2.38071e-05
2.38181e-05
2.38305e-05
2.38446e-05
2.38606e-05
2.38788e-05
2.38995e-05
2.39232e-05
2.39504e-05
2.39817e-05
2.40179e-05
2.406e-05
2.41089e-05
2.41663e-05
2.42336e-05
2.43132e-05
2.44076e-05
2.45206e-05
2.46567e-05
2.48221e-05
2.50253e-05
2.52776e-05
2.32892e-05
2.32915e-05
2.3294e-05
2.32966e-05
2.32996e-05
2.33028e-05
2.33063e-05
2.33102e-05
2.33145e-05
2.33193e-05
2.33246e-05
2.33305e-05
2.33371e-05
2.33444e-05
2.33525e-05
2.33617e-05
2.3372e-05
2.33836e-05
2.33967e-05
2.34115e-05
2.34282e-05
2.34473e-05
2.34691e-05
2.34939e-05
2.35225e-05
2.35553e-05
2.35932e-05
2.36372e-05
2.36885e-05
2.37483e-05
2.38186e-05
2.39017e-05
2.40005e-05
2.41191e-05
2.42628e-05
2.44391e-05
2.46583e-05
2.16574e-05
2.16596e-05
2.1662e-05
2.16647e-05
2.16675e-05
2.16707e-05
2.16741e-05
2.16778e-05
2.16819e-05
2.16865e-05
2.16916e-05
2.16971e-05
2.17032e-05
2.171e-05
2.17176e-05
2.1726e-05
2.17353e-05
2.17457e-05
2.17573e-05
2.17703e-05
2.17849e-05
2.18013e-05
2.18197e-05
2.18403e-05
2.18637e-05
2.18901e-05
2.19201e-05
2.19543e-05
2.19933e-05
2.20378e-05
2.2089e-05
2.21481e-05
2.22168e-05
2.22974e-05
2.23928e-05
2.25073e-05
2.2647e-05
1.54241e-05
1.54318e-05
1.54402e-05
1.54493e-05
1.54592e-05
1.54699e-05
1.54815e-05
1.54941e-05
1.55078e-05
1.55227e-05
1.55389e-05
1.55566e-05
1.55758e-05
1.55966e-05
1.56194e-05
1.56441e-05
1.56711e-05
1.57006e-05
1.57326e-05
1.57676e-05
1.58059e-05
1.58477e-05
1.58934e-05
1.59435e-05
1.59983e-05
1.60583e-05
1.61239e-05
1.61958e-05
1.62746e-05
1.6361e-05
1.64558e-05
1.65596e-05
1.66736e-05
1.67988e-05
1.69364e-05
1.70879e-05
1.72551e-05
1.58076e-05
1.58151e-05
1.58233e-05
1.58322e-05
1.58418e-05
1.58522e-05
1.58636e-05
1.58759e-05
1.58893e-05
1.59039e-05
1.59199e-05
1.59372e-05
1.59561e-05
1.59767e-05
1.59992e-05
1.60237e-05
1.60505e-05
1.60798e-05
1.61119e-05
1.6147e-05
1.61856e-05
1.62279e-05
1.62744e-05
1.63257e-05
1.63823e-05
1.64449e-05
1.65142e-05
1.6591e-05
1.66764e-05
1.67712e-05
1.68769e-05
1.69948e-05
1.71265e-05
1.72737e-05
1.74384e-05
1.76227e-05
1.78288e-05
2.29365e-05
2.2938e-05
2.29398e-05
2.29417e-05
2.29438e-05
2.29462e-05
2.29488e-05
2.29517e-05
2.29549e-05
2.29585e-05
2.29626e-05
2.29671e-05
2.29721e-05
2.29778e-05
2.29841e-05
2.29912e-05
2.29993e-05
2.30084e-05
2.30188e-05
2.30306e-05
2.3044e-05
2.30595e-05
2.30773e-05
2.3098e-05
2.31219e-05
2.31498e-05
2.31824e-05
2.32207e-05
2.32658e-05
2.3319e-05
2.33819e-05
2.34567e-05
2.35455e-05
2.36513e-05
2.37772e-05
2.39269e-05
2.41045e-05
2.4769e-05
2.47706e-05
2.47723e-05
2.47742e-05
2.47763e-05
2.47787e-05
2.47813e-05
2.47843e-05
2.47876e-05
2.47914e-05
2.47956e-05
2.48003e-05
2.48057e-05
2.48117e-05
2.48186e-05
2.48264e-05
2.48353e-05
2.48455e-05
2.48572e-05
2.48708e-05
2.48864e-05
2.49046e-05
2.49259e-05
2.49507e-05
2.49798e-05
2.50142e-05
2.50547e-05
2.51028e-05
2.516e-05
2.52282e-05
2.53098e-05
2.54075e-05
2.55249e-05
2.5666e-05
2.58356e-05
2.60393e-05
2.62834e-05
2.52902e-05
2.52919e-05
2.52938e-05
2.52958e-05
2.52981e-05
2.53006e-05
2.53035e-05
2.53067e-05
2.53103e-05
2.53143e-05
2.53188e-05
2.53239e-05
2.53297e-05
2.53363e-05
2.53437e-05
2.53523e-05
2.5362e-05
2.53732e-05
2.53861e-05
2.5401e-05
2.54183e-05
2.54383e-05
2.54618e-05
2.54892e-05
2.55215e-05
2.55596e-05
2.56046e-05
2.56581e-05
2.57217e-05
2.57977e-05
2.58888e-05
2.59982e-05
2.61298e-05
2.62886e-05
2.64802e-05
2.67116e-05
2.69906e-05
2.54299e-05
2.54316e-05
2.54335e-05
2.54356e-05
2.5438e-05
2.54406e-05
2.54436e-05
2.54469e-05
2.54506e-05
2.54547e-05
2.54594e-05
2.54646e-05
2.54706e-05
2.54773e-05
2.5485e-05
2.54938e-05
2.55039e-05
2.55154e-05
2.55288e-05
2.55442e-05
2.5562e-05
2.55828e-05
2.5607e-05
2.56353e-05
2.56687e-05
2.5708e-05
2.57545e-05
2.58097e-05
2.58754e-05
2.59539e-05
2.6048e-05
2.61611e-05
2.62976e-05
2.64626e-05
2.66626e-05
2.69052e-05
2.72e-05
2.54612e-05
2.54629e-05
2.54648e-05
2.54669e-05
2.54693e-05
2.5472e-05
2.54749e-05
2.54783e-05
2.5482e-05
2.54861e-05
2.54908e-05
2.54961e-05
2.55021e-05
2.55089e-05
2.55167e-05
2.55255e-05
2.55357e-05
2.55473e-05
2.55607e-05
2.55762e-05
2.55942e-05
2.56151e-05
2.56395e-05
2.5668e-05
2.57015e-05
2.5741e-05
2.57876e-05
2.5843e-05
2.5909e-05
2.59878e-05
2.60823e-05
2.61961e-05
2.63336e-05
2.65003e-05
2.67032e-05
2.69511e-05
2.72545e-05
2.54611e-05
2.54629e-05
2.54648e-05
2.54669e-05
2.54693e-05
2.5472e-05
2.54749e-05
2.54782e-05
2.54819e-05
2.54861e-05
2.54908e-05
2.54961e-05
2.55021e-05
2.55089e-05
2.55166e-05
2.55255e-05
2.55356e-05
2.55472e-05
2.55606e-05
2.55761e-05
2.5594e-05
2.56149e-05
2.56392e-05
2.56676e-05
2.57009e-05
2.57402e-05
2.57866e-05
2.58417e-05
2.59072e-05
2.59856e-05
2.60795e-05
2.61927e-05
2.63298e-05
2.64965e-05
2.67004e-05
2.69511e-05
2.72611e-05
2.54298e-05
2.54315e-05
2.54334e-05
2.54356e-05
2.54379e-05
2.54406e-05
2.54435e-05
2.54468e-05
2.54505e-05
2.54546e-05
2.54593e-05
2.54645e-05
2.54704e-05
2.54772e-05
2.54848e-05
2.54936e-05
2.55036e-05
2.55151e-05
2.55284e-05
2.55437e-05
2.55614e-05
2.5582e-05
2.56059e-05
2.56339e-05
2.56668e-05
2.57054e-05
2.57511e-05
2.58052e-05
2.58695e-05
2.59464e-05
2.60386e-05
2.61497e-05
2.62843e-05
2.64486e-05
2.66503e-05
2.69e-05
2.72117e-05
2.529e-05
2.52917e-05
2.52936e-05
2.52957e-05
2.5298e-05
2.53005e-05
2.53034e-05
2.53066e-05
2.53101e-05
2.53141e-05
2.53187e-05
2.53237e-05
2.53295e-05
2.5336e-05
2.53434e-05
2.53518e-05
2.53615e-05
2.53726e-05
2.53853e-05
2.54e-05
2.5417e-05
2.54368e-05
2.54597e-05
2.54865e-05
2.55178e-05
2.55546e-05
2.5598e-05
2.56494e-05
2.57104e-05
2.5783e-05
2.58701e-05
2.59749e-05
2.61019e-05
2.62569e-05
2.64476e-05
2.66849e-05
2.69833e-05
2.47687e-05
2.47703e-05
2.47721e-05
2.4774e-05
2.47762e-05
2.47786e-05
2.47812e-05
2.47842e-05
2.47875e-05
2.47912e-05
2.47953e-05
2.48e-05
2.48052e-05
2.48112e-05
2.48179e-05
2.48256e-05
2.48344e-05
2.48444e-05
2.48558e-05
2.4869e-05
2.48841e-05
2.49017e-05
2.4922e-05
2.49456e-05
2.49731e-05
2.50053e-05
2.50431e-05
2.50875e-05
2.514e-05
2.52023e-05
2.52765e-05
2.53655e-05
2.54727e-05
2.56031e-05
2.57632e-05
2.59622e-05
2.62131e-05
2.29361e-05
2.29378e-05
2.29396e-05
2.29416e-05
2.29437e-05
2.29461e-05
2.29487e-05
2.29515e-05
2.29547e-05
2.29582e-05
2.29622e-05
2.29665e-05
2.29713e-05
2.29767e-05
2.29828e-05
2.29896e-05
2.29972e-05
2.30058e-05
2.30154e-05
2.30264e-05
2.30387e-05
2.30528e-05
2.30687e-05
2.3087e-05
2.31078e-05
2.31316e-05
2.3159e-05
2.31905e-05
2.3227e-05
2.32692e-05
2.33183e-05
2.33757e-05
2.34433e-05
2.35236e-05
2.36199e-05
2.37372e-05
2.38823e-05
1.58075e-05
1.5815e-05
1.58232e-05
1.58321e-05
1.58417e-05
1.58521e-05
1.58635e-05
1.58758e-05
1.58892e-05
1.59038e-05
1.59196e-05
1.59369e-05
1.59556e-05
1.5976e-05
1.59983e-05
1.60225e-05
1.60489e-05
1.60777e-05
1.61091e-05
1.61434e-05
1.61809e-05
1.62219e-05
1.62666e-05
1.63156e-05
1.63692e-05
1.64278e-05
1.6492e-05
1.65622e-05
1.66392e-05
1.67235e-05
1.68159e-05
1.69172e-05
1.70282e-05
1.71499e-05
1.72836e-05
1.74306e-05
1.75924e-05
1.59629e-05
1.59702e-05
1.59782e-05
1.59869e-05
1.59964e-05
1.60066e-05
1.60177e-05
1.60298e-05
1.60429e-05
1.60573e-05
1.60729e-05
1.60899e-05
1.61084e-05
1.61286e-05
1.61506e-05
1.61747e-05
1.6201e-05
1.62297e-05
1.62611e-05
1.62955e-05
1.63332e-05
1.63746e-05
1.64201e-05
1.64704e-05
1.65261e-05
1.65876e-05
1.66558e-05
1.67315e-05
1.68157e-05
1.69094e-05
1.70139e-05
1.71307e-05
1.72613e-05
1.74075e-05
1.75715e-05
1.77553e-05
1.79612e-05
2.35314e-05
2.35326e-05
2.3534e-05
2.35355e-05
2.35372e-05
2.3539e-05
2.3541e-05
2.35434e-05
2.3546e-05
2.3549e-05
2.35524e-05
2.35561e-05
2.35604e-05
2.35652e-05
2.35706e-05
2.35767e-05
2.35838e-05
2.35919e-05
2.36011e-05
2.36118e-05
2.36242e-05
2.36386e-05
2.36554e-05
2.36749e-05
2.36977e-05
2.37245e-05
2.37562e-05
2.37938e-05
2.38384e-05
2.38916e-05
2.39551e-05
2.40311e-05
2.41223e-05
2.42316e-05
2.43627e-05
2.45197e-05
2.4707e-05
2.55056e-05
2.55068e-05
2.55081e-05
2.55096e-05
2.55113e-05
2.55132e-05
2.55153e-05
2.55177e-05
2.55204e-05
2.55236e-05
2.55271e-05
2.55312e-05
2.55358e-05
2.55411e-05
2.55472e-05
2.55542e-05
2.55623e-05
2.55718e-05
2.55828e-05
2.55956e-05
2.56107e-05
2.56284e-05
2.56493e-05
2.5674e-05
2.57033e-05
2.57381e-05
2.57798e-05
2.58296e-05
2.58895e-05
2.59614e-05
2.60483e-05
2.61531e-05
2.62799e-05
2.64333e-05
2.66189e-05
2.68431e-05
2.71132e-05
2.60863e-05
2.60875e-05
2.6089e-05
2.60906e-05
2.60925e-05
2.60945e-05
2.60969e-05
2.60995e-05
2.61026e-05
2.6106e-05
2.61099e-05
2.61144e-05
2.61195e-05
2.61254e-05
2.61322e-05
2.61401e-05
2.61492e-05
2.61598e-05
2.61722e-05
2.61867e-05
2.62037e-05
2.62237e-05
2.62473e-05
2.62753e-05
2.63086e-05
2.63482e-05
2.63956e-05
2.64523e-05
2.65205e-05
2.66026e-05
2.67018e-05
2.68217e-05
2.69671e-05
2.71435e-05
2.73577e-05
2.76176e-05
2.79326e-05
2.62518e-05
2.62532e-05
2.62547e-05
2.62564e-05
2.62583e-05
2.62605e-05
2.62629e-05
2.62657e-05
2.62688e-05
2.62724e-05
2.62765e-05
2.62811e-05
2.62865e-05
2.62926e-05
2.62997e-05
2.63079e-05
2.63175e-05
2.63286e-05
2.63415e-05
2.63566e-05
2.63744e-05
2.63953e-05
2.642e-05
2.64492e-05
2.64839e-05
2.65252e-05
2.65746e-05
2.66337e-05
2.67047e-05
2.67903e-05
2.68936e-05
2.70188e-05
2.71708e-05
2.73557e-05
2.7581e-05
2.7856e-05
2.81916e-05
2.62916e-05
2.6293e-05
2.62945e-05
2.62962e-05
2.62982e-05
2.63003e-05
2.63028e-05
2.63056e-05
2.63088e-05
2.63124e-05
2.63165e-05
2.63213e-05
2.63267e-05
2.63329e-05
2.63401e-05
2.63484e-05
2.6358e-05
2.63692e-05
2.63823e-05
2.63976e-05
2.64155e-05
2.64366e-05
2.64615e-05
2.6491e-05
2.65259e-05
2.65676e-05
2.66172e-05
2.66767e-05
2.67482e-05
2.68342e-05
2.69382e-05
2.70643e-05
2.72177e-05
2.74048e-05
2.7634e-05
2.79154e-05
2.82618e-05
2.62916e-05
2.62929e-05
2.62945e-05
2.62962e-05
2.62981e-05
2.63003e-05
2.63028e-05
2.63056e-05
2.63088e-05
2.63124e-05
2.63165e-05
2.63212e-05
2.63266e-05
2.63329e-05
2.634e-05
2.63483e-05
2.63579e-05
2.63691e-05
2.63822e-05
2.63974e-05
2.64153e-05
2.64363e-05
2.64611e-05
2.64904e-05
2.65252e-05
2.65665e-05
2.66158e-05
2.66749e-05
2.67457e-05
2.68311e-05
2.69342e-05
2.70594e-05
2.7212e-05
2.73987e-05
2.76285e-05
2.79128e-05
2.82663e-05
2.62517e-05
2.62531e-05
2.62546e-05
2.62563e-05
2.62583e-05
2.62604e-05
2.62629e-05
2.62656e-05
2.62688e-05
2.62723e-05
2.62764e-05
2.6281e-05
2.62864e-05
2.62925e-05
2.62996e-05
2.63077e-05
2.63172e-05
2.63282e-05
2.63411e-05
2.6356e-05
2.63736e-05
2.63942e-05
2.64186e-05
2.64473e-05
2.64813e-05
2.65218e-05
2.657e-05
2.66276e-05
2.66968e-05
2.678e-05
2.68805e-05
2.70026e-05
2.71515e-05
2.73343e-05
2.75602e-05
2.78416e-05
2.81951e-05
2.60861e-05
2.60874e-05
2.60889e-05
2.60906e-05
2.60924e-05
2.60945e-05
2.60968e-05
2.60995e-05
2.61025e-05
2.61059e-05
2.61098e-05
2.61142e-05
2.61193e-05
2.61251e-05
2.61319e-05
2.61397e-05
2.61487e-05
2.61591e-05
2.61713e-05
2.61855e-05
2.62022e-05
2.62217e-05
2.62446e-05
2.62717e-05
2.63038e-05
2.63418e-05
2.63871e-05
2.64411e-05
2.65057e-05
2.65834e-05
2.66771e-05
2.67907e-05
2.69292e-05
2.70994e-05
2.73103e-05
2.75742e-05
2.79087e-05
2.55054e-05
2.55066e-05
2.5508e-05
2.55095e-05
2.55112e-05
2.55131e-05
2.55152e-05
2.55176e-05
2.55203e-05
2.55234e-05
2.55269e-05
2.55308e-05
2.55354e-05
2.55406e-05
2.55466e-05
2.55534e-05
2.55613e-05
2.55705e-05
2.55812e-05
2.55935e-05
2.56079e-05
2.56248e-05
2.56445e-05
2.56678e-05
2.56951e-05
2.57274e-05
2.57657e-05
2.58111e-05
2.58653e-05
2.593e-05
2.60078e-05
2.61016e-05
2.62156e-05
2.63551e-05
2.65276e-05
2.67435e-05
2.7018e-05
2.3531e-05
2.35323e-05
2.35337e-05
2.35353e-05
2.3537e-05
2.35388e-05
2.35409e-05
2.35432e-05
2.35458e-05
2.35486e-05
2.35519e-05
2.35555e-05
2.35595e-05
2.3564e-05
2.35692e-05
2.3575e-05
2.35815e-05
2.35889e-05
2.35974e-05
2.3607e-05
2.3618e-05
2.36306e-05
2.36451e-05
2.36618e-05
2.3681e-05
2.37033e-05
2.3729e-05
2.37589e-05
2.37937e-05
2.38344e-05
2.38821e-05
2.39383e-05
2.40049e-05
2.40846e-05
2.41809e-05
2.42989e-05
2.44463e-05
1.59627e-05
1.59701e-05
1.59781e-05
1.59868e-05
1.59962e-05
1.60065e-05
1.60176e-05
1.60297e-05
1.60428e-05
1.60571e-05
1.60726e-05
1.60895e-05
1.61079e-05
1.61279e-05
1.61497e-05
1.61735e-05
1.61994e-05
1.62276e-05
1.62584e-05
1.62921e-05
1.63288e-05
1.6369e-05
1.64129e-05
1.64609e-05
1.65134e-05
1.65709e-05
1.66338e-05
1.67027e-05
1.67781e-05
1.68607e-05
1.69512e-05
1.70503e-05
1.71589e-05
1.72779e-05
1.74085e-05
1.75517e-05
1.77092e-05
1.60258e-05
1.60331e-05
1.60409e-05
1.60495e-05
1.60588e-05
1.60688e-05
1.60798e-05
1.60917e-05
1.61046e-05
1.61187e-05
1.61341e-05
1.61509e-05
1.61691e-05
1.6189e-05
1.62108e-05
1.62345e-05
1.62604e-05
1.62887e-05
1.63197e-05
1.63536e-05
1.63908e-05
1.64316e-05
1.64764e-05
1.65261e-05
1.65811e-05
1.66419e-05
1.67094e-05
1.67843e-05
1.68677e-05
1.69607e-05
1.70644e-05
1.71804e-05
1.73104e-05
1.74561e-05
1.76196e-05
1.78031e-05
1.80091e-05
2.38072e-05
2.38082e-05
2.38093e-05
2.38105e-05
2.38119e-05
2.38134e-05
2.38151e-05
2.38171e-05
2.38193e-05
2.38219e-05
2.38248e-05
2.38281e-05
2.38318e-05
2.3836e-05
2.38408e-05
2.38463e-05
2.38527e-05
2.386e-05
2.38685e-05
2.38784e-05
2.38899e-05
2.39035e-05
2.39195e-05
2.39381e-05
2.396e-05
2.3986e-05
2.40169e-05
2.40537e-05
2.40977e-05
2.41505e-05
2.4214e-05
2.42904e-05
2.43824e-05
2.44933e-05
2.46269e-05
2.47875e-05
2.498e-05
2.58831e-05
2.58841e-05
2.58852e-05
2.58864e-05
2.58877e-05
2.58893e-05
2.58911e-05
2.58931e-05
2.58955e-05
2.58982e-05
2.59013e-05
2.59049e-05
2.5909e-05
2.59138e-05
2.59194e-05
2.59259e-05
2.59335e-05
2.59425e-05
2.5953e-05
2.59653e-05
2.59799e-05
2.59973e-05
2.60179e-05
2.60425e-05
2.60718e-05
2.6107e-05
2.61492e-05
2.62001e-05
2.62615e-05
2.63357e-05
2.64257e-05
2.65349e-05
2.66675e-05
2.68285e-05
2.7024e-05
2.7261e-05
2.75473e-05
2.65094e-05
2.65105e-05
2.65117e-05
2.6513e-05
2.65146e-05
2.65163e-05
2.65183e-05
2.65206e-05
2.65233e-05
2.65263e-05
2.65299e-05
2.65339e-05
2.65386e-05
2.65441e-05
2.65505e-05
2.65579e-05
2.65667e-05
2.65769e-05
2.6589e-05
2.66032e-05
2.66201e-05
2.66401e-05
2.66639e-05
2.66924e-05
2.67263e-05
2.67671e-05
2.6816e-05
2.6875e-05
2.69462e-05
2.70324e-05
2.71369e-05
2.72639e-05
2.74184e-05
2.76065e-05
2.78355e-05
2.81143e-05
2.84531e-05
2.66953e-05
2.66965e-05
2.66977e-05
2.66991e-05
2.67008e-05
2.67026e-05
2.67048e-05
2.67072e-05
2.671e-05
2.67132e-05
2.67169e-05
2.67212e-05
2.67261e-05
2.67319e-05
2.67386e-05
2.67465e-05
2.67557e-05
2.67665e-05
2.67792e-05
2.67942e-05
2.6812e-05
2.6833e-05
2.68581e-05
2.6888e-05
2.69237e-05
2.69665e-05
2.70178e-05
2.70797e-05
2.71544e-05
2.72448e-05
2.73545e-05
2.74878e-05
2.76503e-05
2.78487e-05
2.80911e-05
2.83879e-05
2.87513e-05
2.67421e-05
2.67432e-05
2.67445e-05
2.6746e-05
2.67476e-05
2.67495e-05
2.67517e-05
2.67541e-05
2.6757e-05
2.67602e-05
2.6764e-05
2.67683e-05
2.67734e-05
2.67792e-05
2.67861e-05
2.6794e-05
2.68034e-05
2.68143e-05
2.68272e-05
2.68424e-05
2.68604e-05
2.68817e-05
2.6907e-05
2.69372e-05
2.69733e-05
2.70164e-05
2.70683e-05
2.71306e-05
2.72059e-05
2.72969e-05
2.74074e-05
2.75419e-05
2.77061e-05
2.79072e-05
2.81542e-05
2.84585e-05
2.88343e-05
2.67421e-05
2.67432e-05
2.67445e-05
2.6746e-05
2.67476e-05
2.67495e-05
2.67517e-05
2.67541e-05