/*--------------------------------*- C++ -*----------------------------------*\
| =========                 |                                                 |
| \\      /  F ield         | OpenFOAM: The Open Source CFD Toolbox           |
|  \\    /   O peration     | Version:  2.3.1                                 |
|   \\  /    A nd           | Web:      www.OpenFOAM.org                      |
|    \\/     M anipulation  |                                                 |
\*---------------------------------------------------------------------------*/
FoamFile
{
    version     2.0;
    format      ascii;
    class       volScalarField;
    location    "5";
    object      nut;
}
// * * * * * * * * * * * * * * * * * * * * * * * * * * * * * * * * * * * * * //

dimensions      [0 2 -1 0 0 0 0];

internalField   nonuniform List<scalar> 
37530
(
3.90066e-06
3.90258e-06
3.90466e-06
3.90691e-06
3.90936e-06
3.91201e-06
3.91489e-06
3.91802e-06
3.92142e-06
3.92511e-06
3.92914e-06
3.93352e-06
3.93828e-06
3.94347e-06
3.94911e-06
3.95526e-06
3.96196e-06
3.96927e-06
3.97724e-06
3.98594e-06
3.99545e-06
4.00584e-06
4.01721e-06
4.02967e-06
4.04332e-06
4.0583e-06
4.07475e-06
4.09283e-06
4.1127e-06
4.13455e-06
4.1586e-06
4.18506e-06
4.21417e-06
4.2462e-06
4.28142e-06
4.32012e-06
4.36256e-06
4.23881e-06
4.24109e-06
4.24357e-06
4.24625e-06
4.24916e-06
4.25231e-06
4.25574e-06
4.25947e-06
4.26352e-06
4.26793e-06
4.27272e-06
4.27794e-06
4.28361e-06
4.28979e-06
4.29651e-06
4.30382e-06
4.31179e-06
4.32048e-06
4.32996e-06
4.3403e-06
4.35159e-06
4.36393e-06
4.37742e-06
4.3922e-06
4.4084e-06
4.42617e-06
4.44566e-06
4.46707e-06
4.4906e-06
4.51647e-06
4.54492e-06
4.57623e-06
4.61072e-06
4.64876e-06
4.69086e-06
4.73828e-06
4.79129e-06
4.32737e-06
4.32964e-06
4.33209e-06
4.33476e-06
4.33764e-06
4.34078e-06
4.34419e-06
4.34791e-06
4.35194e-06
4.35632e-06
4.36109e-06
4.36628e-06
4.37192e-06
4.37806e-06
4.38474e-06
4.39202e-06
4.39995e-06
4.4086e-06
4.41803e-06
4.42833e-06
4.43957e-06
4.45186e-06
4.46529e-06
4.48001e-06
4.49614e-06
4.51384e-06
4.53326e-06
4.5546e-06
4.57804e-06
4.60384e-06
4.63223e-06
4.66356e-06
4.69826e-06
4.73719e-06
4.78056e-06
4.82851e-06
4.88147e-06
4.3462e-06
4.34846e-06
4.35091e-06
4.35356e-06
4.35644e-06
4.35957e-06
4.36298e-06
4.36668e-06
4.3707e-06
4.37507e-06
4.37983e-06
4.385e-06
4.39062e-06
4.39674e-06
4.40339e-06
4.41064e-06
4.41854e-06
4.42716e-06
4.43656e-06
4.44683e-06
4.45804e-06
4.47028e-06
4.48367e-06
4.49833e-06
4.51439e-06
4.53199e-06
4.55132e-06
4.57253e-06
4.59584e-06
4.62148e-06
4.64971e-06
4.68087e-06
4.71552e-06
4.75439e-06
4.79745e-06
4.84505e-06
4.89767e-06
4.34942e-06
4.35168e-06
4.35412e-06
4.35677e-06
4.35965e-06
4.36278e-06
4.36618e-06
4.36987e-06
4.37389e-06
4.37825e-06
4.38299e-06
4.38814e-06
4.39375e-06
4.39985e-06
4.40649e-06
4.41371e-06
4.42158e-06
4.43017e-06
4.43955e-06
4.44979e-06
4.46096e-06
4.47317e-06
4.48651e-06
4.5011e-06
4.51708e-06
4.5346e-06
4.5538e-06
4.57488e-06
4.59802e-06
4.62346e-06
4.65146e-06
4.68236e-06
4.71671e-06
4.75524e-06
4.79789e-06
4.84506e-06
4.89725e-06
4.34986e-06
4.35211e-06
4.35456e-06
4.35721e-06
4.36009e-06
4.36322e-06
4.36661e-06
4.3703e-06
4.37431e-06
4.37866e-06
4.3834e-06
4.38854e-06
4.39414e-06
4.40023e-06
4.40685e-06
4.41406e-06
4.42191e-06
4.43049e-06
4.43984e-06
4.45005e-06
4.4612e-06
4.47337e-06
4.48667e-06
4.50121e-06
4.51711e-06
4.53453e-06
4.55362e-06
4.57456e-06
4.59753e-06
4.62277e-06
4.65052e-06
4.68113e-06
4.71511e-06
4.75321e-06
4.7954e-06
4.84206e-06
4.89373e-06
4.34984e-06
4.3521e-06
4.35454e-06
4.3572e-06
4.36008e-06
4.36321e-06
4.3666e-06
4.37029e-06
4.3743e-06
4.37865e-06
4.38338e-06
4.38853e-06
4.39412e-06
4.4002e-06
4.40682e-06
4.41402e-06
4.42186e-06
4.43042e-06
4.43976e-06
4.44995e-06
4.46108e-06
4.47322e-06
4.48648e-06
4.50097e-06
4.51681e-06
4.53415e-06
4.55314e-06
4.57394e-06
4.59675e-06
4.62179e-06
4.64931e-06
4.67962e-06
4.71323e-06
4.75089e-06
4.79259e-06
4.83873e-06
4.88983e-06
4.34936e-06
4.35163e-06
4.35408e-06
4.35674e-06
4.35962e-06
4.36276e-06
4.36615e-06
4.36984e-06
4.37385e-06
4.37821e-06
4.38294e-06
4.38809e-06
4.39368e-06
4.39976e-06
4.40637e-06
4.41357e-06
4.42142e-06
4.42998e-06
4.43931e-06
4.44949e-06
4.4606e-06
4.47272e-06
4.48595e-06
4.50041e-06
4.5162e-06
4.53347e-06
4.55237e-06
4.57306e-06
4.59573e-06
4.6206e-06
4.64789e-06
4.67793e-06
4.71118e-06
4.74841e-06
4.78964e-06
4.83523e-06
4.88575e-06
4.3461e-06
4.34837e-06
4.35084e-06
4.35351e-06
4.3564e-06
4.35954e-06
4.36294e-06
4.36663e-06
4.37065e-06
4.37501e-06
4.37975e-06
4.3849e-06
4.3905e-06
4.39658e-06
4.4032e-06
4.41041e-06
4.41827e-06
4.42683e-06
4.43617e-06
4.44634e-06
4.45744e-06
4.46956e-06
4.48277e-06
4.49721e-06
4.51297e-06
4.53018e-06
4.54901e-06
4.56961e-06
4.59215e-06
4.61685e-06
4.64393e-06
4.67369e-06
4.70656e-06
4.74331e-06
4.78403e-06
4.82903e-06
4.87888e-06
4.32725e-06
4.32953e-06
4.33201e-06
4.33468e-06
4.33758e-06
4.34073e-06
4.34414e-06
4.34784e-06
4.35186e-06
4.35623e-06
4.36098e-06
4.36615e-06
4.37176e-06
4.37785e-06
4.38449e-06
4.39171e-06
4.39958e-06
4.40815e-06
4.41749e-06
4.42766e-06
4.43875e-06
4.45085e-06
4.46405e-06
4.47845e-06
4.49417e-06
4.51134e-06
4.53008e-06
4.55056e-06
4.57295e-06
4.59743e-06
4.62421e-06
4.65355e-06
4.68578e-06
4.72154e-06
4.76146e-06
4.80551e-06
4.8542e-06
4.23871e-06
4.241e-06
4.24349e-06
4.24618e-06
4.24909e-06
4.25226e-06
4.25569e-06
4.25941e-06
4.26345e-06
4.26784e-06
4.27261e-06
4.2778e-06
4.28343e-06
4.28956e-06
4.29622e-06
4.30346e-06
4.31135e-06
4.31993e-06
4.32928e-06
4.33945e-06
4.35054e-06
4.36262e-06
4.37579e-06
4.39015e-06
4.40579e-06
4.42284e-06
4.44144e-06
4.46172e-06
4.48382e-06
4.50789e-06
4.53413e-06
4.56274e-06
4.59391e-06
4.62784e-06
4.6649e-06
4.7057e-06
4.75145e-06
3.90061e-06
3.90253e-06
3.90461e-06
3.90687e-06
3.90931e-06
3.91197e-06
3.91485e-06
3.91797e-06
3.92136e-06
3.92505e-06
3.92906e-06
3.93341e-06
3.93814e-06
3.94329e-06
3.94888e-06
3.95496e-06
3.96158e-06
3.96879e-06
3.97663e-06
3.98518e-06
3.99449e-06
4.00463e-06
4.01569e-06
4.02774e-06
4.04087e-06
4.05518e-06
4.07078e-06
4.08778e-06
4.1063e-06
4.12649e-06
4.14849e-06
4.17243e-06
4.19856e-06
4.22715e-06
4.25842e-06
4.29262e-06
4.33011e-06
9.55935e-06
9.56199e-06
9.56486e-06
9.56796e-06
9.57134e-06
9.575e-06
9.57898e-06
9.5833e-06
9.58801e-06
9.59313e-06
9.5987e-06
9.60477e-06
9.61138e-06
9.61859e-06
9.62644e-06
9.63499e-06
9.64433e-06
9.65453e-06
9.66567e-06
9.67786e-06
9.69119e-06
9.7058e-06
9.72181e-06
9.7394e-06
9.75874e-06
9.78003e-06
9.80348e-06
9.82935e-06
9.85791e-06
9.88947e-06
9.92435e-06
9.96296e-06
1.00057e-05
1.0053e-05
1.01054e-05
1.01633e-05
1.02273e-05
2.11053e-05
2.11092e-05
2.11135e-05
2.11181e-05
2.11231e-05
2.11287e-05
2.11348e-05
2.11416e-05
2.11491e-05
2.11573e-05
2.11663e-05
2.11763e-05
2.11872e-05
2.11992e-05
2.12123e-05
2.12268e-05
2.12427e-05
2.12604e-05
2.12799e-05
2.13015e-05
2.13255e-05
2.13521e-05
2.13819e-05
2.14154e-05
2.14531e-05
2.14954e-05
2.15429e-05
2.15962e-05
2.16562e-05
2.17237e-05
2.17995e-05
2.18849e-05
2.1981e-05
2.2089e-05
2.221e-05
2.23449e-05
2.24948e-05
2.55439e-05
2.55492e-05
2.5555e-05
2.55613e-05
2.55682e-05
2.55759e-05
2.55844e-05
2.55938e-05
2.5604e-05
2.56153e-05
2.56277e-05
2.56414e-05
2.56563e-05
2.56728e-05
2.56908e-05
2.57107e-05
2.57328e-05
2.57572e-05
2.57842e-05
2.58142e-05
2.58473e-05
2.58842e-05
2.59255e-05
2.59718e-05
2.60238e-05
2.60822e-05
2.61478e-05
2.62213e-05
2.63039e-05
2.63966e-05
2.65007e-05
2.66176e-05
2.6749e-05
2.68966e-05
2.70626e-05
2.7249e-05
2.74578e-05
2.67514e-05
2.67571e-05
2.67634e-05
2.67702e-05
2.67777e-05
2.67861e-05
2.67953e-05
2.68055e-05
2.68167e-05
2.68288e-05
2.68422e-05
2.6857e-05
2.68731e-05
2.68908e-05
2.69103e-05
2.69318e-05
2.69558e-05
2.69824e-05
2.7012e-05
2.70447e-05
2.7081e-05
2.71214e-05
2.71664e-05
2.7217e-05
2.72737e-05
2.73375e-05
2.7409e-05
2.74895e-05
2.75798e-05
2.76815e-05
2.77958e-05
2.79245e-05
2.80696e-05
2.82333e-05
2.84184e-05
2.86277e-05
2.88639e-05
2.70065e-05
2.70124e-05
2.70188e-05
2.70257e-05
2.70334e-05
2.70419e-05
2.70512e-05
2.70615e-05
2.70728e-05
2.7085e-05
2.70985e-05
2.71133e-05
2.71296e-05
2.71475e-05
2.71671e-05
2.71889e-05
2.72131e-05
2.72401e-05
2.72702e-05
2.73036e-05
2.73407e-05
2.73819e-05
2.74279e-05
2.74795e-05
2.75373e-05
2.76024e-05
2.76757e-05
2.77581e-05
2.78509e-05
2.79556e-05
2.80739e-05
2.82075e-05
2.83589e-05
2.85307e-05
2.87263e-05
2.89494e-05
2.92041e-05
2.70492e-05
2.70551e-05
2.70615e-05
2.70685e-05
2.70762e-05
2.70847e-05
2.7094e-05
2.71042e-05
2.71154e-05
2.71276e-05
2.7141e-05
2.71558e-05
2.71721e-05
2.71899e-05
2.72094e-05
2.72311e-05
2.72553e-05
2.72823e-05
2.73125e-05
2.73461e-05
2.73834e-05
2.74249e-05
2.74712e-05
2.7523e-05
2.75813e-05
2.76468e-05
2.77207e-05
2.78041e-05
2.78984e-05
2.8005e-05
2.8126e-05
2.82635e-05
2.842e-05
2.85988e-05
2.8804e-05
2.90405e-05
2.9314e-05
2.70488e-05
2.70548e-05
2.70613e-05
2.70683e-05
2.70761e-05
2.70846e-05
2.70938e-05
2.7104e-05
2.71152e-05
2.71274e-05
2.71408e-05
2.71556e-05
2.71718e-05
2.71896e-05
2.72092e-05
2.7231e-05
2.72552e-05
2.72823e-05
2.73126e-05
2.73463e-05
2.73838e-05
2.74256e-05
2.74723e-05
2.75245e-05
2.75832e-05
2.76494e-05
2.7724e-05
2.78086e-05
2.79043e-05
2.80132e-05
2.81372e-05
2.82788e-05
2.84409e-05
2.86275e-05
2.88436e-05
2.90952e-05
2.939e-05
2.70053e-05
2.70114e-05
2.7018e-05
2.70252e-05
2.70329e-05
2.70414e-05
2.70507e-05
2.70609e-05
2.70721e-05
2.70843e-05
2.70978e-05
2.71126e-05
2.71288e-05
2.71465e-05
2.71662e-05
2.71882e-05
2.72126e-05
2.72399e-05
2.72702e-05
2.73041e-05
2.73418e-05
2.73838e-05
2.74308e-05
2.74834e-05
2.75426e-05
2.76092e-05
2.76846e-05
2.77702e-05
2.78674e-05
2.79782e-05
2.81049e-05
2.82501e-05
2.84172e-05
2.86108e-05
2.88369e-05
2.91027e-05
2.94178e-05
2.67494e-05
2.67556e-05
2.67622e-05
2.67693e-05
2.6777e-05
2.67854e-05
2.67946e-05
2.68046e-05
2.68156e-05
2.68277e-05
2.68411e-05
2.68556e-05
2.68716e-05
2.68892e-05
2.69087e-05
2.69305e-05
2.69547e-05
2.69816e-05
2.70116e-05
2.70449e-05
2.7082e-05
2.71235e-05
2.71699e-05
2.72219e-05
2.72802e-05
2.73459e-05
2.74202e-05
2.75046e-05
2.76005e-05
2.77098e-05
2.7835e-05
2.79787e-05
2.81447e-05
2.83377e-05
2.85644e-05
2.88327e-05
2.91533e-05
2.55417e-05
2.55474e-05
2.55536e-05
2.55602e-05
2.55673e-05
2.5575e-05
2.55834e-05
2.55926e-05
2.56027e-05
2.56139e-05
2.56262e-05
2.56396e-05
2.56543e-05
2.56705e-05
2.56885e-05
2.57085e-05
2.57307e-05
2.57553e-05
2.57825e-05
2.58127e-05
2.58465e-05
2.5884e-05
2.5926e-05
2.5973e-05
2.60256e-05
2.60848e-05
2.61513e-05
2.62264e-05
2.63114e-05
2.64078e-05
2.65176e-05
2.6643e-05
2.67872e-05
2.69542e-05
2.71494e-05
2.738e-05
2.76554e-05
2.11039e-05
2.1108e-05
2.11125e-05
2.11173e-05
2.11225e-05
2.11281e-05
2.11342e-05
2.11408e-05
2.11481e-05
2.11562e-05
2.11651e-05
2.11748e-05
2.11854e-05
2.11971e-05
2.121e-05
2.12242e-05
2.12399e-05
2.12572e-05
2.12764e-05
2.12975e-05
2.13209e-05
2.13468e-05
2.13755e-05
2.14073e-05
2.14426e-05
2.14817e-05
2.15253e-05
2.15742e-05
2.16283e-05
2.1686e-05
2.17488e-05
2.18179e-05
2.18942e-05
2.19792e-05
2.20741e-05
2.21809e-05
2.23021e-05
9.5593e-06
9.56195e-06
9.56482e-06
9.56793e-06
9.57131e-06
9.57498e-06
9.57896e-06
9.58327e-06
9.58796e-06
9.59306e-06
9.59861e-06
9.60463e-06
9.61119e-06
9.61831e-06
9.62607e-06
9.63452e-06
9.64371e-06
9.65373e-06
9.66465e-06
9.67655e-06
9.68952e-06
9.70368e-06
9.71913e-06
9.73599e-06
9.75439e-06
9.77448e-06
9.79641e-06
9.82034e-06
9.8465e-06
9.87527e-06
9.90678e-06
9.94126e-06
9.97902e-06
1.00204e-05
1.00657e-05
1.01156e-05
1.01704e-05
9.91667e-06
9.91916e-06
9.92186e-06
9.92479e-06
9.92796e-06
9.93142e-06
9.93516e-06
9.93924e-06
9.94367e-06
9.9485e-06
9.95375e-06
9.95948e-06
9.96571e-06
9.97251e-06
9.97991e-06
9.98798e-06
9.9968e-06
1.00064e-05
1.00169e-05
1.00285e-05
1.00411e-05
1.00549e-05
1.007e-05
1.00867e-05
1.0105e-05
1.01252e-05
1.01475e-05
1.01722e-05
1.01994e-05
1.02296e-05
1.02631e-05
1.03002e-05
1.03413e-05
1.03871e-05
1.04379e-05
1.04943e-05
1.05569e-05
3.52637e-05
3.52707e-05
3.52783e-05
3.52867e-05
3.52958e-05
3.53057e-05
3.53167e-05
3.53288e-05
3.53421e-05
3.53569e-05
3.53732e-05
3.53911e-05
3.54108e-05
3.54323e-05
3.54561e-05
3.54822e-05
3.55111e-05
3.55432e-05
3.55787e-05
3.56181e-05
3.56618e-05
3.57106e-05
3.57655e-05
3.58272e-05
3.58969e-05
3.59755e-05
3.60645e-05
3.61654e-05
3.62799e-05
3.64101e-05
3.65584e-05
3.67277e-05
3.69213e-05
3.71429e-05
3.73962e-05
3.76855e-05
3.80148e-05
4.86558e-05
4.86702e-05
4.86858e-05
4.87029e-05
4.87215e-05
4.87419e-05
4.87645e-05
4.87892e-05
4.88164e-05
4.88462e-05
4.88789e-05
4.89148e-05
4.89543e-05
4.89975e-05
4.9045e-05
4.90974e-05
4.91552e-05
4.92192e-05
4.92901e-05
4.93685e-05
4.94555e-05
4.95523e-05
4.96605e-05
4.97817e-05
4.99177e-05
5.00705e-05
5.02423e-05
5.04359e-05
5.06545e-05
5.09014e-05
5.11807e-05
5.14975e-05
5.18573e-05
5.22668e-05
5.27329e-05
5.32633e-05
5.3866e-05
5.30966e-05
5.31139e-05
5.31327e-05
5.31532e-05
5.31757e-05
5.32004e-05
5.32276e-05
5.32575e-05
5.32901e-05
5.33258e-05
5.3365e-05
5.3408e-05
5.34552e-05
5.35069e-05
5.35638e-05
5.36265e-05
5.36959e-05
5.37728e-05
5.38581e-05
5.39524e-05
5.40571e-05
5.41735e-05
5.43033e-05
5.44486e-05
5.46115e-05
5.47944e-05
5.49999e-05
5.5231e-05
5.54917e-05
5.57865e-05
5.61198e-05
5.64975e-05
5.69268e-05
5.74154e-05
5.79724e-05
5.86076e-05
5.93319e-05
5.41984e-05
5.42166e-05
5.42363e-05
5.42579e-05
5.42815e-05
5.43074e-05
5.43359e-05
5.43671e-05
5.44012e-05
5.44385e-05
5.44793e-05
5.45242e-05
5.45734e-05
5.46275e-05
5.46868e-05
5.47523e-05
5.48248e-05
5.49054e-05
5.49948e-05
5.50939e-05
5.52038e-05
5.5326e-05
5.54622e-05
5.56144e-05
5.57851e-05
5.59767e-05
5.61923e-05
5.6435e-05
5.67088e-05
5.7019e-05
5.73703e-05
5.77692e-05
5.82237e-05
5.87427e-05
5.93367e-05
6.00177e-05
6.07983e-05
5.44109e-05
5.44293e-05
5.44493e-05
5.44711e-05
5.44951e-05
5.45212e-05
5.45499e-05
5.45813e-05
5.46156e-05
5.46531e-05
5.46942e-05
5.47393e-05
5.47889e-05
5.48433e-05
5.4903e-05
5.4969e-05
5.50422e-05
5.51234e-05
5.52136e-05
5.53138e-05
5.5425e-05
5.55486e-05
5.56863e-05
5.58403e-05
5.60128e-05
5.62066e-05
5.64248e-05
5.66709e-05
5.69487e-05
5.72642e-05
5.76226e-05
5.80306e-05
5.84971e-05
5.90321e-05
5.96478e-05
6.03585e-05
6.11803e-05
5.44102e-05
5.44287e-05
5.44489e-05
5.44708e-05
5.44948e-05
5.4521e-05
5.45496e-05
5.45809e-05
5.46151e-05
5.46526e-05
5.46938e-05
5.47389e-05
5.47884e-05
5.48427e-05
5.49025e-05
5.49686e-05
5.50419e-05
5.51232e-05
5.52135e-05
5.53138e-05
5.54253e-05
5.55493e-05
5.56875e-05
5.58419e-05
5.6015e-05
5.62095e-05
5.64287e-05
5.66762e-05
5.69561e-05
5.72745e-05
5.76372e-05
5.80513e-05
5.85262e-05
5.90733e-05
5.97068e-05
6.04435e-05
6.13031e-05
5.41962e-05
5.42148e-05
5.4235e-05
5.42568e-05
5.42806e-05
5.43066e-05
5.4335e-05
5.43661e-05
5.44e-05
5.44372e-05
5.44781e-05
5.45228e-05
5.45718e-05
5.46256e-05
5.46849e-05
5.47506e-05
5.48235e-05
5.49042e-05
5.49939e-05
5.50934e-05
5.52039e-05
5.5327e-05
5.54642e-05
5.56176e-05
5.57894e-05
5.59825e-05
5.62002e-05
5.64463e-05
5.6725e-05
5.70419e-05
5.74037e-05
5.78175e-05
5.82933e-05
5.88436e-05
5.94839e-05
6.02339e-05
6.11173e-05
5.30932e-05
5.31111e-05
5.31306e-05
5.31516e-05
5.31743e-05
5.31992e-05
5.32263e-05
5.32558e-05
5.32882e-05
5.33238e-05
5.33628e-05
5.34055e-05
5.34522e-05
5.35036e-05
5.35603e-05
5.36232e-05
5.36927e-05
5.37697e-05
5.38551e-05
5.39498e-05
5.40549e-05
5.41719e-05
5.43023e-05
5.4448e-05
5.4611e-05
5.47939e-05
5.49997e-05
5.5232e-05
5.54947e-05
5.57932e-05
5.61332e-05
5.65217e-05
5.69682e-05
5.74845e-05
5.8086e-05
5.87921e-05
5.96283e-05
4.86521e-05
4.86672e-05
4.86834e-05
4.87009e-05
4.87199e-05
4.87405e-05
4.87629e-05
4.87874e-05
4.88142e-05
4.88437e-05
4.88761e-05
4.89115e-05
4.89502e-05
4.89928e-05
4.90398e-05
4.90918e-05
4.91491e-05
4.92124e-05
4.92824e-05
4.93599e-05
4.94459e-05
4.95413e-05
4.96471e-05
4.97648e-05
4.9896e-05
5.00424e-05
5.02062e-05
5.03897e-05
5.05961e-05
5.08283e-05
5.109e-05
5.13862e-05
5.1723e-05
5.21084e-05
5.25523e-05
5.30679e-05
5.36725e-05
3.52615e-05
3.5269e-05
3.52771e-05
3.52857e-05
3.5295e-05
3.53051e-05
3.5316e-05
3.53279e-05
3.53409e-05
3.53553e-05
3.53711e-05
3.53884e-05
3.54072e-05
3.54278e-05
3.54506e-05
3.54756e-05
3.55031e-05
3.55334e-05
3.55667e-05
3.56033e-05
3.56435e-05
3.56873e-05
3.57347e-05
3.57864e-05
3.58426e-05
3.59036e-05
3.59698e-05
3.60414e-05
3.61183e-05
3.61998e-05
3.62857e-05
3.63756e-05
3.64689e-05
3.65649e-05
3.66623e-05
3.67598e-05
3.68558e-05
9.91662e-06
9.91912e-06
9.92183e-06
9.92476e-06
9.92795e-06
9.9314e-06
9.93515e-06
9.93922e-06
9.94363e-06
9.94844e-06
9.95366e-06
9.95934e-06
9.96551e-06
9.97222e-06
9.97952e-06
9.98747e-06
9.99613e-06
1.00056e-05
1.00158e-05
1.0027e-05
1.00392e-05
1.00526e-05
1.00671e-05
1.00831e-05
1.01005e-05
1.01195e-05
1.01402e-05
1.01629e-05
1.01877e-05
1.02149e-05
1.02445e-05
1.0277e-05
1.03124e-05
1.03512e-05
1.03937e-05
1.04403e-05
1.04915e-05
1.00395e-05
1.00419e-05
1.00445e-05
1.00474e-05
1.00504e-05
1.00537e-05
1.00574e-05
1.00613e-05
1.00656e-05
1.00702e-05
1.00753e-05
1.00808e-05
1.00868e-05
1.00933e-05
1.01005e-05
1.01083e-05
1.01167e-05
1.0126e-05
1.01362e-05
1.01473e-05
1.01594e-05
1.01728e-05
1.01874e-05
1.02035e-05
1.02213e-05
1.02409e-05
1.02626e-05
1.02865e-05
1.03131e-05
1.03425e-05
1.03752e-05
1.04115e-05
1.04519e-05
1.04969e-05
1.0547e-05
1.06028e-05
1.06649e-05
4.42969e-05
4.43021e-05
4.4308e-05
4.43144e-05
4.43213e-05
4.43288e-05
4.43371e-05
4.43465e-05
4.43571e-05
4.43692e-05
4.43826e-05
4.43975e-05
4.44138e-05
4.44318e-05
4.44517e-05
4.44738e-05
4.44987e-05
4.45265e-05
4.45572e-05
4.45915e-05
4.463e-05
4.46735e-05
4.47232e-05
4.47795e-05
4.48436e-05
4.49171e-05
4.50015e-05
4.50987e-05
4.52111e-05
4.53413e-05
4.54926e-05
4.56688e-05
4.58744e-05
4.61146e-05
4.63949e-05
4.67216e-05
4.71008e-05
6.75623e-05
6.75793e-05
6.75978e-05
6.76179e-05
6.76399e-05
6.7664e-05
6.76906e-05
6.77198e-05
6.7752e-05
6.77873e-05
6.78262e-05
6.7869e-05
6.79159e-05
6.79674e-05
6.80242e-05
6.80868e-05
6.81562e-05
6.82331e-05
6.83184e-05
6.84131e-05
6.85184e-05
6.86361e-05
6.87681e-05
6.89165e-05
6.90837e-05
6.92721e-05
6.94857e-05
6.97279e-05
7.00027e-05
7.03157e-05
7.06728e-05
7.10813e-05
7.15496e-05
7.20871e-05
7.27046e-05
7.34137e-05
7.42266e-05
7.67051e-05
7.67279e-05
7.67528e-05
7.678e-05
7.68096e-05
7.68422e-05
7.68781e-05
7.69174e-05
7.69604e-05
7.70076e-05
7.70594e-05
7.71162e-05
7.71786e-05
7.72472e-05
7.73226e-05
7.74059e-05
7.74981e-05
7.76003e-05
7.77136e-05
7.78394e-05
7.79791e-05
7.81347e-05
7.83086e-05
7.85034e-05
7.87222e-05
7.89684e-05
7.92454e-05
7.95589e-05
7.99138e-05
8.03158e-05
8.07727e-05
8.12934e-05
8.1888e-05
8.25682e-05
8.33473e-05
8.42403e-05
8.52634e-05
7.92874e-05
7.93123e-05
7.93393e-05
7.93688e-05
7.94011e-05
7.94365e-05
7.94754e-05
7.95179e-05
7.95645e-05
7.96155e-05
7.96714e-05
7.97328e-05
7.98002e-05
7.98743e-05
7.99559e-05
8.00459e-05
8.01457e-05
8.02564e-05
8.03792e-05
8.05156e-05
8.06672e-05
8.0836e-05
8.10244e-05
8.12353e-05
8.1472e-05
8.17382e-05
8.20376e-05
8.23755e-05
8.27585e-05
8.3192e-05
8.36845e-05
8.42458e-05
8.48872e-05
8.5622e-05
8.64659e-05
8.74373e-05
8.85558e-05
7.98421e-05
7.98675e-05
7.98951e-05
7.99252e-05
7.99582e-05
7.99943e-05
8.00338e-05
8.0077e-05
8.01243e-05
8.01761e-05
8.02329e-05
8.02954e-05
8.03639e-05
8.04392e-05
8.05221e-05
8.06137e-05
8.07152e-05
8.08279e-05
8.09531e-05
8.10921e-05
8.12467e-05
8.14188e-05
8.1611e-05
8.18259e-05
8.20671e-05
8.23384e-05
8.26439e-05
8.29886e-05
8.33799e-05
8.38231e-05
8.43273e-05
8.49031e-05
8.55626e-05
8.63206e-05
8.7195e-05
8.82073e-05
8.93823e-05
7.98413e-05
7.98668e-05
7.98946e-05
7.99248e-05
7.99578e-05
7.9994e-05
8.00334e-05
8.00766e-05
8.01239e-05
8.01757e-05
8.02325e-05
8.02948e-05
8.03633e-05
8.04386e-05
8.05215e-05
8.06132e-05
8.07147e-05
8.08275e-05
8.09527e-05
8.10918e-05
8.12466e-05
8.1419e-05
8.16115e-05
8.18268e-05
8.20683e-05
8.23401e-05
8.26463e-05
8.29919e-05
8.33846e-05
8.38303e-05
8.4338e-05
8.49188e-05
8.55858e-05
8.63553e-05
8.72473e-05
8.82868e-05
8.95035e-05
7.9285e-05
7.93103e-05
7.93378e-05
7.93676e-05
7.94001e-05
7.94356e-05
7.94744e-05
7.95168e-05
7.95632e-05
7.96141e-05
7.96699e-05
7.97311e-05
7.97982e-05
7.98721e-05
7.99535e-05
8.00437e-05
8.01435e-05
8.02542e-05
8.03771e-05
8.05135e-05
8.06653e-05
8.08344e-05
8.10231e-05
8.12341e-05
8.14707e-05
8.17367e-05
8.20365e-05
8.23746e-05
8.27588e-05
8.31952e-05
8.36926e-05
8.4262e-05
8.49169e-05
8.56743e-05
8.65557e-05
8.75879e-05
8.88044e-05
7.67013e-05
7.67248e-05
7.67504e-05
7.6778e-05
7.6808e-05
7.68408e-05
7.68765e-05
7.69155e-05
7.69583e-05
7.70052e-05
7.70566e-05
7.7113e-05
7.71748e-05
7.72428e-05
7.73178e-05
7.74008e-05
7.74926e-05
7.75942e-05
7.77068e-05
7.78317e-05
7.79705e-05
7.81249e-05
7.8297e-05
7.84891e-05
7.8704e-05
7.89451e-05
7.92159e-05
7.95214e-05
7.98674e-05
8.02589e-05
8.07041e-05
8.12124e-05
8.17952e-05
8.24673e-05
8.32477e-05
8.41605e-05
8.52377e-05
6.75582e-05
6.75758e-05
6.7595e-05
6.76156e-05
6.7638e-05
6.76624e-05
6.76889e-05
6.77177e-05
6.77494e-05
6.77842e-05
6.78225e-05
6.78643e-05
6.79101e-05
6.79604e-05
6.80159e-05
6.80772e-05
6.81447e-05
6.82193e-05
6.83017e-05
6.83928e-05
6.84938e-05
6.86057e-05
6.873e-05
6.88681e-05
6.90214e-05
6.91922e-05
6.9383e-05
6.95958e-05
6.98338e-05
7.01002e-05
7.03988e-05
7.07343e-05
7.11125e-05
7.15411e-05
7.20294e-05
7.25898e-05
7.3239e-05
4.42938e-05
4.42998e-05
4.43062e-05
4.43129e-05
4.43202e-05
4.43281e-05
4.43365e-05
4.43455e-05
4.43555e-05
4.43667e-05
4.4379e-05
4.43923e-05
4.44067e-05
4.44224e-05
4.44398e-05
4.4459e-05
4.44798e-05
4.45025e-05
4.45272e-05
4.45541e-05
4.45833e-05
4.4615e-05
4.46492e-05
4.46858e-05
4.47247e-05
4.47654e-05
4.48079e-05
4.48517e-05
4.48958e-05
4.49385e-05
4.49779e-05
4.50117e-05
4.50369e-05
4.50499e-05
4.50457e-05
4.5018e-05
4.49594e-05
1.00395e-05
1.00419e-05
1.00445e-05
1.00473e-05
1.00504e-05
1.00537e-05
1.00573e-05
1.00613e-05
1.00655e-05
1.00702e-05
1.00752e-05
1.00807e-05
1.00866e-05
1.00931e-05
1.01002e-05
1.01079e-05
1.01162e-05
1.01254e-05
1.01353e-05
1.01461e-05
1.0158e-05
1.01709e-05
1.0185e-05
1.02004e-05
1.02172e-05
1.02355e-05
1.02556e-05
1.02775e-05
1.03015e-05
1.03277e-05
1.03563e-05
1.03876e-05
1.04218e-05
1.04591e-05
1.05e-05
1.05447e-05
1.05938e-05
1.00889e-05
1.00912e-05
1.00938e-05
1.00965e-05
1.00995e-05
1.01028e-05
1.01063e-05
1.01101e-05
1.01143e-05
1.01188e-05
1.01238e-05
1.01291e-05
1.0135e-05
1.01414e-05
1.01484e-05
1.01559e-05
1.01642e-05
1.01733e-05
1.01832e-05
1.0194e-05
1.02058e-05
1.02188e-05
1.02331e-05
1.02488e-05
1.02662e-05
1.02854e-05
1.03066e-05
1.03301e-05
1.03562e-05
1.03851e-05
1.04173e-05
1.04532e-05
1.04931e-05
1.05377e-05
1.05874e-05
1.06428e-05
1.07046e-05
4.93406e-05
4.93428e-05
4.93454e-05
4.93482e-05
4.9351e-05
4.9354e-05
4.93575e-05
4.93618e-05
4.93671e-05
4.93734e-05
4.93807e-05
4.93888e-05
4.93976e-05
4.94075e-05
4.94186e-05
4.94313e-05
4.94459e-05
4.94629e-05
4.94825e-05
4.95052e-05
4.95316e-05
4.95628e-05
4.95999e-05
4.96408e-05
4.9688e-05
4.97433e-05
4.98087e-05
4.98862e-05
4.99785e-05
5.00885e-05
5.022e-05
5.03774e-05
5.0566e-05
5.07919e-05
5.1062e-05
5.13838e-05
5.17651e-05
8.07718e-05
8.07863e-05
8.08021e-05
8.08194e-05
8.08381e-05
8.08587e-05
8.08814e-05
8.09065e-05
8.09343e-05
8.09651e-05
8.09991e-05
8.10365e-05
8.10776e-05
8.1123e-05
8.11731e-05
8.12287e-05
8.12905e-05
8.13594e-05
8.14362e-05
8.15219e-05
8.16178e-05
8.17259e-05
8.18482e-05
8.19864e-05
8.21433e-05
8.2322e-05
8.25261e-05
8.27599e-05
8.30286e-05
8.33381e-05
8.36958e-05
8.41102e-05
8.45915e-05
8.51515e-05
8.58032e-05
8.65615e-05
8.7442e-05
9.48329e-05
9.48548e-05
9.48787e-05
9.49047e-05
9.49331e-05
9.49644e-05
9.49987e-05
9.50364e-05
9.50778e-05
9.51233e-05
9.51734e-05
9.52284e-05
9.52889e-05
9.53555e-05
9.5429e-05
9.55104e-05
9.56006e-05
9.57009e-05
9.58125e-05
9.59367e-05
9.60754e-05
9.62305e-05
9.64045e-05
9.66006e-05
9.68222e-05
9.70726e-05
9.73565e-05
9.76791e-05
9.80468e-05
9.84669e-05
9.89479e-05
9.95e-05
0.000100136
0.000100869
0.000101717
0.000102697
0.00010383
9.92194e-05
9.92441e-05
9.92709e-05
9.93003e-05
9.93325e-05
9.93677e-05
9.94064e-05
9.94488e-05
9.94952e-05
9.95462e-05
9.96022e-05
9.96637e-05
9.97314e-05
9.9806e-05
9.98882e-05
9.99792e-05
0.00010008
0.000100192
0.000100317
0.000100456
0.000100611
0.000100784
0.000100978
0.000101196
0.000101442
0.000101719
0.000102033
0.000102389
0.000102794
0.000103256
0.000103784
0.00010439
0.000105087
0.000105891
0.000106819
0.000107894
0.000109141
0.000100239
0.000100264
0.000100292
0.000100322
0.000100356
0.000100392
0.000100432
0.000100475
0.000100523
0.000100575
0.000100633
0.000100696
0.000100766
0.000100842
0.000100927
0.00010102
0.000101124
0.000101239
0.000101368
0.00010151
0.00010167
0.000101848
0.000102047
0.000102271
0.000102523
0.000102808
0.00010313
0.000103495
0.00010391
0.000104384
0.000104926
0.000105549
0.000106266
0.000107096
0.000108058
0.000109178
0.000110485
0.000100238
0.000100264
0.000100292
0.000100322
0.000100355
0.000100392
0.000100431
0.000100475
0.000100523
0.000100575
0.000100632
0.000100696
0.000100765
0.000100842
0.000100926
0.00010102
0.000101123
0.000101239
0.000101367
0.00010151
0.000101669
0.000101847
0.000102047
0.00010227
0.000102522
0.000102807
0.000103129
0.000103494
0.000103909
0.000104383
0.000104926
0.000105551
0.000106272
0.000107108
0.000108082
0.000109222
0.000110563
9.92173e-05
9.92423e-05
9.92695e-05
9.92992e-05
9.93315e-05
9.93668e-05
9.94054e-05
9.94477e-05
9.9494e-05
9.95448e-05
9.96006e-05
9.96619e-05
9.97293e-05
9.98036e-05
9.98856e-05
9.99765e-05
0.000100077
0.000100189
0.000100313
0.000100452
0.000100606
0.000100779
0.000100972
0.000101188
0.000101431
0.000101706
0.000102016
0.000102368
0.000102768
0.000103224
0.000103746
0.000104346
0.000105039
0.000105843
0.00010678
0.000107883
0.000109189
9.48295e-05
9.48519e-05
9.48762e-05
9.49026e-05
9.49314e-05
9.49628e-05
9.49971e-05
9.50345e-05
9.50756e-05
9.51207e-05
9.51703e-05
9.52247e-05
9.52844e-05
9.53503e-05
9.5423e-05
9.55035e-05
9.55926e-05
9.56915e-05
9.58011e-05
9.5923e-05
9.60588e-05
9.62101e-05
9.6379e-05
9.65683e-05
9.67808e-05
9.70192e-05
9.72878e-05
9.7591e-05
9.79343e-05
9.83238e-05
9.87668e-05
9.92727e-05
9.98532e-05
0.000100523
0.000101302
0.000102215
0.000103297
8.07676e-05
8.07826e-05
8.07989e-05
8.08166e-05
8.08358e-05
8.08567e-05
8.08794e-05
8.09041e-05
8.09314e-05
8.09614e-05
8.09945e-05
8.10306e-05
8.10702e-05
8.11138e-05
8.11619e-05
8.12151e-05
8.12738e-05
8.13386e-05
8.14102e-05
8.14895e-05
8.15775e-05
8.16754e-05
8.1784e-05
8.19047e-05
8.20388e-05
8.21878e-05
8.23538e-05
8.25387e-05
8.27448e-05
8.29745e-05
8.32304e-05
8.35161e-05
8.38358e-05
8.4195e-05
8.46005e-05
8.50617e-05
8.55917e-05
4.93366e-05
4.93394e-05
4.93424e-05
4.93455e-05
4.93489e-05
4.93525e-05
4.93562e-05
4.936e-05
4.93645e-05
4.93698e-05
4.93756e-05
4.93817e-05
4.93882e-05
4.93955e-05
4.94036e-05
4.94124e-05
4.94218e-05
4.94318e-05
4.94426e-05
4.94542e-05
4.94665e-05
4.94797e-05
4.94935e-05
4.95074e-05
4.95208e-05
4.95328e-05
4.9543e-05
4.95503e-05
4.95527e-05
4.95478e-05
4.95324e-05
4.95027e-05
4.9454e-05
4.93803e-05
4.92734e-05
4.91231e-05
4.89167e-05
1.00888e-05
1.00912e-05
1.00937e-05
1.00965e-05
1.00995e-05
1.01027e-05
1.01063e-05
1.01101e-05
1.01142e-05
1.01188e-05
1.01237e-05
1.0129e-05
1.01348e-05
1.01412e-05
1.01481e-05
1.01556e-05
1.01637e-05
1.01726e-05
1.01823e-05
1.01929e-05
1.02045e-05
1.02171e-05
1.02308e-05
1.02458e-05
1.02623e-05
1.02802e-05
1.02998e-05
1.03212e-05
1.03446e-05
1.03701e-05
1.0398e-05
1.04285e-05
1.04618e-05
1.04982e-05
1.05379e-05
1.05814e-05
1.0629e-05
1.01089e-05
1.01112e-05
1.01137e-05
1.01164e-05
1.01193e-05
1.01225e-05
1.01259e-05
1.01297e-05
1.01338e-05
1.01383e-05
1.01431e-05
1.01484e-05
1.01542e-05
1.01605e-05
1.01673e-05
1.01748e-05
1.01829e-05
1.01918e-05
1.02016e-05
1.02122e-05
1.02239e-05
1.02367e-05
1.02507e-05
1.02662e-05
1.02834e-05
1.03023e-05
1.03233e-05
1.03465e-05
1.03723e-05
1.04009e-05
1.04328e-05
1.04684e-05
1.05081e-05
1.05524e-05
1.06019e-05
1.06572e-05
1.07189e-05
5.18638e-05
5.18635e-05
5.18634e-05
5.18632e-05
5.18627e-05
5.1862e-05
5.18614e-05
5.18615e-05
5.18624e-05
5.18641e-05
5.18662e-05
5.18686e-05
5.18712e-05
5.18743e-05
5.18781e-05
5.18829e-05
5.18889e-05
5.18966e-05
5.19062e-05
5.19181e-05
5.19332e-05
5.19526e-05
5.19776e-05
5.20054e-05
5.20375e-05
5.20769e-05
5.21254e-05
5.21854e-05
5.22596e-05
5.23511e-05
5.24641e-05
5.26034e-05
5.27749e-05
5.29853e-05
5.32423e-05
5.35545e-05
5.39311e-05
8.88687e-05
8.88788e-05
8.88899e-05
8.89019e-05
8.8915e-05
8.89293e-05
8.89451e-05
8.89629e-05
8.89829e-05
8.90053e-05
8.903e-05
8.90574e-05
8.90876e-05
8.91211e-05
8.91585e-05
8.92002e-05
8.92471e-05
8.92999e-05
8.93593e-05
8.94265e-05
8.95023e-05
8.95886e-05
8.96876e-05
8.98009e-05
8.99313e-05
9.00819e-05
9.02565e-05
9.04597e-05
9.06971e-05
9.09751e-05
9.13019e-05
9.1687e-05
9.21417e-05
9.26793e-05
9.33151e-05
9.40661e-05
9.49507e-05
0.00010702
0.000107037
0.000107056
0.000107077
0.000107099
0.000107124
0.000107151
0.000107182
0.000107215
0.000107251
0.000107292
0.000107336
0.000107386
0.00010744
0.0001075
0.000107567
0.000107642
0.000107725
0.000107819
0.000107923
0.000108041
0.000108173
0.000108323
0.000108493
0.000108686
0.000108907
0.00010916
0.00010945
0.000109784
0.00011017
0.000110618
0.000111138
0.000111745
0.000112453
0.000113283
0.000114254
0.000115391
0.000113108
0.000113128
0.00011315
0.000113175
0.000113201
0.00011323
0.000113262
0.000113297
0.000113336
0.000113378
0.000113425
0.000113477
0.000113534
0.000113597
0.000113666
0.000113744
0.00011383
0.000113926
0.000114033
0.000114154
0.000114289
0.00011444
0.000114611
0.000114804
0.000115023
0.000115273
0.000115557
0.000115883
0.000116256
0.000116685
0.00011718
0.000117754
0.00011842
0.000119197
0.000120105
0.000121168
0.000122416
0.000114605
0.000114626
0.000114649
0.000114675
0.000114702
0.000114733
0.000114766
0.000114802
0.000114842
0.000114886
0.000114935
0.000114989
0.000115048
0.000115113
0.000115185
0.000115265
0.000115355
0.000115455
0.000115566
0.00011569
0.00011583
0.000115987
0.000116164
0.000116364
0.00011659
0.000116847
0.00011714
0.000117474
0.000117858
0.000118299
0.000118808
0.000119397
0.000120081
0.00012088
0.000121816
0.000122918
0.000124218
0.000114605
0.000114626
0.000114649
0.000114674
0.000114702
0.000114732