/*--------------------------------*- C++ -*----------------------------------*\
| =========                 |                                                 |
| \\      /  F ield         | OpenFOAM: The Open Source CFD Toolbox           |
|  \\    /   O peration     | Version:  2.3.1                                 |
|   \\  /    A nd           | Web:      www.OpenFOAM.org                      |
|    \\/     M anipulation  |                                                 |
\*---------------------------------------------------------------------------*/
FoamFile
{
    version     2.0;
    format      ascii;
    class       surfaceScalarField;
    location    "5";
    object      phi;
}
// * * * * * * * * * * * * * * * * * * * * * * * * * * * * * * * * * * * * * //

dimensions      [0 3 -1 0 0 0 0];

internalField   nonuniform List<scalar> 
107940
(
1.0553e-06
-1.53979e-09
-1.3364e-08
1.07145e-06
-1.67599e-09
-1.44786e-08
1.08897e-06
-1.82394e-09
-1.56892e-08
1.10795e-06
-1.98544e-09
-1.70015e-08
1.12854e-06
-2.16509e-09
-1.84226e-08
1.15087e-06
-2.36803e-09
-1.99644e-08
1.17511e-06
-2.5954e-09
-2.16435e-08
1.20144e-06
-2.8453e-09
-2.34777e-08
1.23004e-06
-3.11666e-09
-2.54837e-08
1.26113e-06
-3.41245e-09
-2.76761e-08
1.29493e-06
-3.7393e-09
-3.00668e-08
1.3317e-06
-4.10232e-09
-3.26684e-08
1.3717e-06
-4.50494e-09
-3.54974e-08
1.41523e-06
-4.95297e-09
-3.85748e-08
1.46261e-06
-5.45444e-09
-4.19246e-08
1.5142e-06
-6.01959e-09
-4.55721e-08
1.57041e-06
-6.66151e-09
-4.95447e-08
1.63168e-06
-7.39303e-09
-5.38732e-08
1.69849e-06
-8.2244e-09
-5.85917e-08
1.77139e-06
-9.16618e-09
-6.37369e-08
1.85098e-06
-1.02353e-08
-6.93497e-08
1.93791e-06
-1.14576e-08
-7.54766e-08
2.03295e-06
-1.2867e-08
-8.21672e-08
2.13692e-06
-1.45055e-08
-8.94691e-08
2.25077e-06
-1.64191e-08
-9.74274e-08
2.37551e-06
-1.86572e-08
-1.06083e-07
2.51226e-06
-2.12779e-08
-1.15477e-07
2.66226e-06
-2.4349e-08
-1.25647e-07
2.82683e-06
-2.79449e-08
-1.36623e-07
3.0074e-06
-3.21454e-08
-1.48423e-07
3.20548e-06
-3.70347e-08
-1.61049e-07
3.42266e-06
-4.26968e-08
-1.74484e-07
3.66054e-06
-4.91972e-08
-1.8868e-07
3.92064e-06
-5.65562e-08
-2.03548e-07
4.2043e-06
-6.47242e-08
-2.18937e-07
4.51247e-06
-7.35362e-08
-2.3463e-07
-8.26517e-08
-2.50307e-07
1.08168e-06
-1.56897e-09
-1.49846e-08
1.09795e-06
-1.72137e-09
-1.62294e-08
1.1156e-06
-1.88756e-09
-1.75795e-08
1.13472e-06
-2.07019e-09
-1.90418e-08
1.15546e-06
-2.27471e-09
-2.06288e-08
1.17796e-06
-2.50581e-09
-2.23602e-08
1.20238e-06
-2.76374e-09
-2.4253e-08
1.2289e-06
-3.04604e-09
-2.63212e-08
1.25772e-06
-3.35149e-09
-2.85791e-08
1.28903e-06
-3.68364e-09
-3.10439e-08
1.32308e-06
-4.05043e-09
-3.3736e-08
1.36011e-06
-4.46014e-09
-3.6671e-08
1.40039e-06
-4.92048e-09
-3.9863e-08
1.44421e-06
-5.44089e-09
-4.33357e-08
1.4919e-06
-6.03459e-09
-4.7116e-08
1.54384e-06
-6.7206e-09
-5.12306e-08
1.60041e-06
-7.5215e-09
-5.57116e-08
1.66207e-06
-8.45789e-09
-6.05961e-08
1.72931e-06
-9.54719e-09
-6.59197e-08
1.80267e-06
-1.08087e-08
-7.17194e-08
1.88275e-06
-1.22718e-08
-7.80397e-08
1.97021e-06
-1.39777e-08
-8.49375e-08
2.0658e-06
-1.59801e-08
-9.24756e-08
2.17036e-06
-1.83484e-08
-1.00718e-07
2.28482e-06
-2.11655e-08
-1.09716e-07
2.4102e-06
-2.45278e-08
-1.19515e-07
2.54763e-06
-2.85449e-08
-1.30161e-07
2.69833e-06
-3.33453e-08
-1.41704e-07
2.86364e-06
-3.90757e-08
-1.54176e-07
3.04499e-06
-4.58956e-08
-1.67599e-07
3.24391e-06
-5.39729e-08
-1.81984e-07
3.46201e-06
-6.34729e-08
-1.97327e-07
3.70094e-06
-7.4529e-08
-2.1359e-07
3.96226e-06
-8.71862e-08
-2.3069e-07
4.24734e-06
-1.01347e-07
-2.48462e-07
4.55724e-06
-1.1673e-07
-2.66701e-07
-1.3275e-07
-2.85124e-07
1.08416e-06
-9.11644e-10
-1.56655e-08
1.10043e-06
-1.02687e-09
-1.69641e-08
1.11807e-06
-1.15429e-09
-1.83695e-08
1.13718e-06
-1.29595e-09
-1.989e-08
1.15791e-06
-1.45432e-09
-2.15459e-08
1.18039e-06
-1.63006e-09
-2.33625e-08
1.20481e-06
-1.82245e-09
-2.5355e-08
1.23132e-06
-2.03103e-09
-2.75315e-08
1.26013e-06
-2.25668e-09
-2.9901e-08
1.29143e-06
-2.50321e-09
-3.24818e-08
1.32546e-06
-2.77785e-09
-3.52982e-08
1.36246e-06
-3.09004e-09
-3.83687e-08
1.4027e-06
-3.4498e-09
-4.17104e-08
1.44647e-06
-3.86856e-09
-4.53464e-08
1.4941e-06
-4.36313e-09
-4.93027e-08
1.54595e-06
-4.95755e-09
-5.36123e-08
1.60242e-06
-5.67891e-09
-5.83166e-08
1.66397e-06
-6.55296e-09
-6.34546e-08
1.73109e-06
-7.60439e-09
-6.90574e-08
1.8043e-06
-8.86137e-09
-7.51577e-08
1.88419e-06
-1.03617e-08
-8.18036e-08
1.97143e-06
-1.21556e-08
-8.90565e-08
2.06674e-06
-1.43092e-08
-9.69834e-08
2.17096e-06
-1.69102e-08
-1.05655e-07
2.28499e-06
-2.00704e-08
-1.15132e-07
2.40986e-06
-2.39256e-08
-1.25467e-07
2.54666e-06
-2.86326e-08
-1.3671e-07
2.6966e-06
-3.43757e-08
-1.48912e-07
2.86101e-06
-4.13698e-08
-1.62116e-07
3.04131e-06
-4.98516e-08
-1.7635e-07
3.23905e-06
-6.00709e-08
-1.91635e-07
3.45583e-06
-7.22731e-08
-2.07982e-07
3.69333e-06
-8.66606e-08
-2.25373e-07
3.95325e-06
-1.03336e-07
-2.43768e-07
4.23721e-06
-1.22241e-07
-2.63067e-07
4.54658e-06
-1.43046e-07
-2.83052e-07
-1.64982e-07
-3.03385e-07
1.08447e-06
-2.7851e-10
-1.56332e-08
1.10073e-06
-3.58894e-10
-1.69287e-08
1.11835e-06
-4.49668e-10
-1.83299e-08
1.13746e-06
-5.5066e-10
-1.98483e-08
1.15817e-06
-6.60084e-10
-2.15074e-08
1.18065e-06
-7.75427e-10
-2.33303e-08
1.20505e-06
-8.96351e-10
-2.53294e-08
1.23155e-06
-1.02564e-09
-2.75106e-08
1.26035e-06
-1.16754e-09
-2.98811e-08
1.29163e-06
-1.32716e-09
-3.24576e-08
1.32563e-06
-1.51142e-09
-3.52641e-08
1.36259e-06
-1.72925e-09
-3.83226e-08
1.40278e-06
-1.99077e-09
-4.16521e-08
1.44649e-06
-2.30907e-09
-4.52725e-08
1.49404e-06
-2.70288e-09
-4.92105e-08
1.54579e-06
-3.19622e-09
-5.35079e-08
1.60214e-06
-3.81576e-09
-5.82139e-08
1.66355e-06
-4.5908e-09
-6.33681e-08
1.73049e-06
-5.5544e-09
-6.89973e-08
1.80351e-06
-6.74416e-09
-7.51292e-08
1.88316e-06
-8.20537e-09
-8.18104e-08
1.9701e-06
-9.99555e-09
-8.91006e-08
2.06505e-06
-1.21917e-08
-9.70636e-08
2.1688e-06
-1.48962e-08
-1.05772e-07
2.28227e-06
-1.82429e-08
-1.15293e-07
2.40643e-06
-2.24027e-08
-1.25687e-07
2.54238e-06
-2.75623e-08
-1.37016e-07
2.69129e-06
-3.39566e-08
-1.49333e-07
2.85448e-06
-4.1858e-08
-1.62695e-07
3.03335e-06
-5.1575e-08
-1.77146e-07
3.22944e-06
-6.34389e-08
-1.92722e-07
3.4444e-06
-7.7782e-08
-2.09451e-07
3.67999e-06
-9.49042e-08
-2.27347e-07
3.93807e-06
-1.1501e-07
-2.46407e-07
4.22051e-06
-1.38122e-07
-2.66559e-07
4.52902e-06
-1.63941e-07
-2.87621e-07
-1.91646e-07
-3.09286e-07
1.08446e-06
1.80874e-10
-1.54507e-08
1.10072e-06
1.23586e-10
-1.67345e-08
1.11833e-06
5.8986e-11
-1.81251e-08
1.13743e-06
-1.02354e-11
-1.96371e-08
1.15814e-06
-7.8751e-11
-2.1291e-08
1.18061e-06
-1.45746e-10
-2.31021e-08
1.20501e-06
-2.1204e-10
-2.50819e-08
1.2315e-06
-2.82457e-10
-2.7239e-08
1.26028e-06
-3.6351e-10
-2.95823e-08
1.29154e-06
-4.61574e-10
-3.21277e-08
1.32552e-06
-5.82927e-10
-3.48991e-08
1.36244e-06
-7.34777e-10
-3.79206e-08
1.40259e-06
-9.27299e-10
-4.12098e-08
1.44624e-06
-1.17571e-09
-4.47839e-08
1.49371e-06
-1.49935e-09
-4.86712e-08
1.54535e-06
-1.91951e-09
-5.29183e-08
1.60157e-06
-2.45931e-09
-5.75775e-08
1.66282e-06
-3.14848e-09
-6.26909e-08
1.72958e-06
-4.02562e-09
-6.82874e-08
1.80236e-06
-5.13609e-09
-7.43939e-08
1.88174e-06
-6.53283e-09
-8.10525e-08
1.96834e-06
-8.28128e-09
-8.83168e-08
2.06287e-06
-1.04693e-08
-9.62468e-08
2.1661e-06
-1.3208e-08
-1.04916e-07
2.2789e-06
-1.66382e-08
-1.14404e-07
2.40222e-06
-2.09467e-08
-1.24785e-07
2.53714e-06
-2.63594e-08
-1.36118e-07
2.6848e-06
-3.31467e-08
-1.48467e-07
2.84647e-06
-4.16252e-08
-1.61904e-07
3.02355e-06
-5.21604e-08
-1.76499e-07
3.21759e-06
-6.51539e-08
-1.92318e-07
3.43025e-06
-8.10244e-08
-2.09418e-07
3.66338e-06
-1.00177e-07
-2.27858e-07
3.919e-06
-1.22947e-07
-2.47682e-07
4.19924e-06
-1.49497e-07
-2.68869e-07
4.50627e-06
-1.79659e-07
-2.91309e-07
-2.12709e-07
-3.14752e-07
1.08443e-06
5.13159e-10
-1.53161e-08
1.10067e-06
4.75041e-10
-1.65977e-08
1.11829e-06
4.34374e-10
-1.79882e-08
1.13738e-06
3.96341e-10
-1.95026e-08
1.15809e-06
3.63955e-10
-2.11548e-08
1.18057e-06
3.3695e-10
-2.29563e-08
1.20496e-06
3.12913e-10
-2.49193e-08
1.23145e-06
2.86652e-10
-2.7056e-08
1.26021e-06
2.50978e-10
-2.93782e-08
1.29145e-06
1.99339e-10
-3.19029e-08
1.3254e-06
1.27161e-10
-3.46545e-08
1.36229e-06
2.93023e-11
-3.76556e-08
1.40239e-06
-1.04962e-10
-4.09218e-08
1.44598e-06
-2.92859e-10
-4.44711e-08
1.49337e-06
-5.54089e-10
-4.83337e-08
1.54491e-06
-9.06464e-10
-5.25561e-08
1.60101e-06
-1.36741e-09
-5.71891e-08
1.6621e-06
-1.96396e-09
-6.22766e-08
1.72866e-06
-2.73526e-09
-6.78546e-08
1.80121e-06
-3.73111e-09
-7.39528e-08
1.8803e-06
-5.01116e-09
-8.06101e-08
1.96654e-06
-6.6464e-09
-8.78749e-08
2.06061e-06
-8.72706e-09
-9.581e-08
2.16325e-06
-1.13664e-08
-1.04489e-07
2.27532e-06
-1.4712e-08
-1.13989e-07
2.39772e-06
-1.89562e-08
-1.24398e-07
2.53149e-06
-2.43376e-08
-1.35791e-07
2.67774e-06
-3.11471e-08
-1.48248e-07
2.8377e-06
-3.97272e-08
-1.61858e-07
3.01274e-06
-5.04787e-08
-1.76723e-07
3.20439e-06
-6.38526e-08
-1.92945e-07
3.41433e-06
-8.03408e-08
-2.10624e-07
3.64447e-06
-1.00452e-07
-2.29867e-07
3.89698e-06
-1.24659e-07
-2.50795e-07
4.17427e-06
-1.53299e-07
-2.73491e-07
4.47897e-06
-1.86413e-07
-2.97941e-07
-2.23522e-07
-3.24007e-07
1.08439e-06
8.06905e-10
-1.52727e-08
1.10064e-06
7.93559e-10
-1.6563e-08
1.11825e-06
7.81832e-10
-1.79623e-08
1.13735e-06
7.78866e-10
-1.94833e-08
1.15807e-06
7.85529e-10
-2.1138e-08
1.18055e-06
7.99569e-10
-2.29384e-08
1.20494e-06
8.18373e-10
-2.48978e-08
1.23142e-06
8.37223e-10
-2.70296e-08
1.26017e-06
8.491e-10
-2.93488e-08
1.29139e-06
8.48183e-10
-3.1874e-08
1.32532e-06
8.31552e-10
-3.46273e-08
1.36218e-06
7.95301e-10
-3.76269e-08
1.40223e-06
7.28818e-10
-4.08888e-08
1.44576e-06
6.1554e-10
-4.44365e-08
1.49307e-06
4.37852e-10
-4.83049e-08
1.54453e-06
1.83025e-10
-5.25408e-08
1.60051e-06
-1.63749e-10
-5.71862e-08
1.66145e-06
-6.26401e-10
-6.22835e-08
1.72783e-06
-1.23783e-09
-6.78747e-08
1.80014e-06
-2.04824e-09
-7.39944e-08
1.87893e-06
-3.11749e-09
-8.06845e-08
1.9648e-06
-4.51815e-09
-8.79942e-08
2.0584e-06
-6.33866e-09
-9.59878e-08
2.16045e-06
-8.68776e-09
-1.04735e-07
2.27177e-06
-1.17078e-08
-1.14316e-07
2.39322e-06
-1.55817e-08
-1.2483e-07
2.5258e-06
-2.05431e-08
-1.36369e-07
2.67056e-06
-2.68795e-08
-1.49035e-07
2.82871e-06
-3.49333e-08
-1.6294e-07
3.00156e-06
-4.51114e-08
-1.78219e-07
3.19061e-06
-5.78842e-08
-1.95015e-07
3.39753e-06
-7.37868e-08
-2.13479e-07
3.62427e-06
-9.34018e-08
-2.33791e-07
3.87311e-06
-1.17317e-07
-2.56179e-07
4.14672e-06
-1.46038e-07
-2.80868e-07
4.44816e-06
-1.79848e-07
-3.08008e-07
-2.186e-07
-3.37629e-07
1.08437e-06
1.1412e-09
-1.53091e-08
1.10062e-06
1.1699e-09
-1.66231e-08
1.11824e-06
1.20383e-09
-1.80443e-08
1.13735e-06
1.24963e-09
-1.95794e-08
1.15807e-06
1.30751e-09
-2.12439e-08
1.18055e-06
1.37552e-09
-2.30548e-08
1.20494e-06
1.4518e-09
-2.50249e-08
1.23141e-06
1.53228e-09
-2.71678e-08
1.26015e-06
1.61071e-09
-2.95017e-08
1.29137e-06
1.68198e-09
-3.2046e-08
1.32527e-06
1.74338e-09
-3.4818e-08
1.36211e-06
1.79153e-09
-3.7831e-08
1.40212e-06
1.81807e-09
-4.11041e-08
1.4456e-06
1.81104e-09
-4.46686e-08
1.49284e-06
1.75924e-09
-4.85687e-08
1.54422e-06
1.6544e-09
-5.28475e-08
1.60011e-06
1.48681e-09
-5.75397e-08
1.66093e-06
1.23744e-09
-6.26847e-08
1.72714e-06
8.76154e-10
-6.83235e-08
1.79923e-06
3.5993e-10
-7.45001e-08
1.87774e-06
-3.7039e-10
-8.12588e-08
1.96326e-06
-1.3809e-09
-8.86521e-08
2.05641e-06
-2.74519e-09
-9.67499e-08
2.15791e-06
-4.56195e-09
-1.0562e-07
2.2685e-06
-6.95511e-09
-1.15349e-07
2.38905e-06
-1.00847e-08
-1.26041e-07
2.52047e-06
-1.41563e-08
-1.37811e-07
2.6638e-06
-1.94271e-08
-1.50783e-07
2.82017e-06
-2.62101e-08
-1.65092e-07
2.99085e-06
-3.48796e-08
-1.80912e-07
3.17728e-06
-4.58861e-08
-1.98426e-07
3.3811e-06
-5.97585e-08
-2.17848e-07
3.60425e-06
-7.70931e-08
-2.39456e-07
3.84908e-06
-9.85337e-08
-2.63612e-07
4.11844e-06
-1.24694e-07
-2.90713e-07
4.4158e-06
-1.5607e-07
-3.2113e-07
-1.92846e-07
-3.5516e-07
1.08433e-06
1.56174e-09
-1.53921e-08
1.10058e-06
1.65468e-09
-1.67363e-08
1.11821e-06
1.75674e-09
-1.81855e-08
1.13733e-06
1.87043e-09
-1.97393e-08
1.15806e-06
1.99737e-09
-2.14197e-08
1.18055e-06
2.13801e-09
-2.32479e-08
1.20494e-06
2.29153e-09
-2.52341e-08
1.23141e-06
2.45515e-09
-2.73932e-08
1.26014e-06
2.62498e-09
-2.97479e-08
1.29135e-06
2.79761e-09
-3.23192e-08
1.32524e-06
2.96992e-09
-3.51209e-08
1.36206e-06
3.13875e-09
-3.81628e-08
1.40204e-06
3.29978e-09
-4.14672e-08
1.44548e-06
3.44939e-09
-4.50727e-08
1.49268e-06
3.58524e-09
-4.90269e-08
1.544e-06
3.70345e-09
-5.3369e-08
1.59982e-06
3.79593e-09
-5.81256e-08
1.66054e-06
3.84729e-09
-6.33343e-08
1.72662e-06
3.83403e-09
-6.90363e-08
1.79854e-06
3.72208e-09
-7.5281e-08
1.87682e-06
3.46914e-09
-8.2122e-08
1.96204e-06
3.02511e-09
-8.96216e-08
2.05481e-06
2.33056e-09
-9.78501e-08
2.15582e-06
1.31018e-09
-1.06878e-07
2.26579e-06
-1.31323e-10
-1.16796e-07
2.38554e-06
-2.12802e-09
-1.27705e-07
2.51595e-06
-4.82576e-09
-1.39743e-07
2.658e-06
-8.42653e-09
-1.53056e-07
2.81278e-06
-1.31837e-08
-1.67804e-07
2.98149e-06
-1.94067e-08
-1.84186e-07
3.16551e-06
-2.74666e-08
-2.02437e-07
3.36642e-06
-3.78224e-08
-2.22848e-07
3.58613e-06
-5.09986e-08
-2.45798e-07
3.82699e-06
-6.75907e-08
-2.71809e-07
4.09199e-06
-8.8219e-08
-3.01473e-07
4.38482e-06
-1.13475e-07
-3.35428e-07
-1.43792e-07
-3.74326e-07
1.084e-06
1.94692e-09
-1.53603e-08
1.10026e-06
2.10679e-09
-1.67112e-08
1.1179e-06
2.2794e-09
-1.81648e-08
1.13703e-06
2.46163e-09
-1.97192e-08
1.15777e-06
2.65754e-09
-2.13995e-08
1.18026e-06
2.86985e-09
-2.32265e-08
1.20466e-06
3.09821e-09
-2.52075e-08
1.23114e-06
3.34199e-09
-2.73594e-08
1.25987e-06
3.60204e-09
-2.9709e-08
1.29107e-06
3.87913e-09
-3.22809e-08
1.32495e-06
4.1706e-09
-3.50887e-08
1.36176e-06
4.47282e-09
-3.81399e-08
1.40173e-06
4.78418e-09
-4.14574e-08
1.44515e-06
5.10808e-09
-4.50779e-08
1.49234e-06
5.44989e-09
-4.90477e-08
1.54363e-06
5.80974e-09
-5.34013e-08
1.59941e-06
6.18201e-09
-5.81646e-08
1.66007e-06
6.55593e-09
-6.33736e-08
1.72606e-06
6.91776e-09
-6.9072e-08
1.79785e-06
7.24785e-09
-7.53167e-08
1.87597e-06
7.52092e-09
-8.21655e-08
1.96097e-06
7.70773e-09
-8.96825e-08
2.05346e-06
7.77023e-09
-9.79338e-08
2.15411e-06
7.66311e-09
-1.07e-07
2.26363e-06
7.32748e-09
-1.16977e-07
2.38279e-06
6.68726e-09
-1.27975e-07
2.51245e-06
5.64184e-09
-1.40127e-07
2.65354e-06
4.05867e-09
-1.53576e-07
2.8071e-06
1.76931e-09
-1.68517e-07
2.97428e-06
-1.40913e-09
-1.85181e-07
3.15639e-06
-5.72469e-09
-2.03845e-07
3.35495e-06
-1.15267e-08
-2.24854e-07
3.5718e-06
-1.91782e-08
-2.48678e-07
3.80928e-06
-2.91238e-08
-2.75943e-07
4.07034e-06
-4.18289e-08
-3.07451e-07
4.35885e-06
-5.78842e-08
-3.44102e-07
-7.76749e-08
-3.86961e-07
1.08151e-06
1.67226e-09
-1.47063e-08
1.09778e-06
1.82714e-09
-1.59832e-08
1.11542e-06
1.99373e-09
-1.736e-08
1.13455e-06
2.16688e-09
-1.8838e-08
1.1553e-06
2.35086e-09
-2.04393e-08
1.1778e-06
2.54861e-09
-2.21803e-08
1.20221e-06
2.75963e-09
-2.40673e-08
1.22868e-06
2.98489e-09
-2.61177e-08
1.25741e-06
3.22834e-09
-2.83575e-08
1.28861e-06
3.49384e-09
-3.08117e-08
1.32249e-06
3.7803e-09
-3.34944e-08
1.3593e-06
4.08412e-09
-3.6414e-08
1.39927e-06
4.40445e-09
-3.95914e-08
1.44269e-06
4.74594e-09
-4.30558e-08
1.48987e-06
5.11637e-09
-4.68462e-08
1.54115e-06
5.51842e-09
-5.09941e-08
1.59691e-06
5.9494e-09
-5.55269e-08
1.65754e-06
6.4046e-09
-6.0482e-08
1.72348e-06
6.87924e-09
-6.59018e-08
1.79521e-06
7.36727e-09
-7.18419e-08
1.87322e-06
7.85973e-09
-7.83561e-08
1.95809e-06
8.34616e-09
-8.55071e-08
2.05042e-06
8.81289e-09
-9.33682e-08
2.15085e-06
9.24187e-09
-1.02009e-07
2.26008e-06
9.60791e-09
-1.11514e-07
2.37887e-06
9.87965e-09
-1.21984e-07
2.50805e-06
1.00167e-08
-1.33553e-07
2.64853e-06
9.96508e-09
-1.46385e-07
2.8013e-06
9.64799e-09
-1.60647e-07
2.96747e-06
8.96339e-09
-1.76549e-07
3.14833e-06
7.78339e-09
-1.94366e-07
3.34535e-06
5.95691e-09
-2.14506e-07
3.56037e-06
3.29104e-09
-2.37486e-07
3.79571e-06
-4.53188e-10
-2.6401e-07
4.05422e-06
-5.28569e-09
-2.95055e-07
4.33973e-06
-1.17485e-08
-3.31647e-07
-2.01319e-08
-3.75133e-07
1.05513e-06
-1.32014e-08
1.07127e-06
-1.43149e-08
1.08879e-06
-1.55198e-08
1.10778e-06
-1.68236e-08
1.12837e-06
-1.82417e-08
1.15071e-06
-1.97864e-08
1.17493e-06
-2.14652e-08
1.20121e-06
-2.32925e-08
1.22972e-06
-2.52881e-08
1.26069e-06
-2.74699e-08
1.29432e-06
-2.98509e-08
1.33085e-06
-3.24437e-08
1.37052e-06
-3.52689e-08
1.41362e-06
-3.83503e-08
1.46045e-06
-4.17142e-08
1.51135e-06
-4.53854e-08
1.56669e-06
-4.93915e-08
1.62686e-06
-5.37689e-08
1.6923e-06
-5.85562e-08
1.76347e-06
-6.38006e-08
1.84088e-06
-6.95489e-08
1.92508e-06
-7.58563e-08
2.01667e-06
-8.27792e-08
2.11629e-06
-9.038e-08
2.22464e-06
-9.87343e-08
2.34244e-06
-1.07924e-07
2.47052e-06
-1.18062e-07
2.60976e-06
-1.29279e-07
2.76115e-06
-1.41738e-07
2.92576e-06
-1.55653e-07
3.10486e-06
-1.71307e-07
3.29988e-06
-1.8907e-07
3.51262e-06
-2.0945e-07
3.7453e-06
-2.3313e-07
4.00091e-06
-2.60897e-07
4.28322e-06
-2.94058e-07
-3.34144e-07
1.10356e-06
-8.92411e-10
-2.76526e-08
1.12001e-06
-9.70885e-10
-2.99624e-08
1.13785e-06
-1.05743e-09
-3.24709e-08
1.15719e-06
-1.15268e-09
-3.51906e-08
1.17817e-06
-1.25884e-09
-3.81376e-08
1.20092e-06
-1.37896e-09
-4.13372e-08
1.22561e-06
-1.51458e-09
-4.4822e-08
1.25243e-06
-1.6659e-09
-4.86264e-08
1.28156e-06
-1.8336e-09
-5.27832e-08
1.31322e-06
-2.02082e-09
-5.73209e-08
1.34765e-06
-2.23155e-09
-6.22658e-08
1.3851e-06
-2.46737e-09
-6.76472e-08
1.42583e-06
-2.72964e-09
-7.35016e-08
1.47016e-06
-3.02286e-09
-7.98736e-08
1.5184e-06
-3.35358e-09
-8.68128e-08
1.57093e-06
-3.73006e-09
-9.43714e-08
1.62815e-06
-4.16291e-09
-1.02608e-07
1.69053e-06
-4.66304e-09
-1.11585e-07
1.75855e-06
-5.23908e-09
-1.21375e-07
1.83277e-06
-5.90022e-09
-1.32054e-07
1.91379e-06
-6.66161e-09
-1.43708e-07
2.00229e-06
-7.54756e-09
-1.56431e-07
2.09904e-06
-8.59149e-09
-1.70323e-07
2.20488e-06
-9.83437e-09
-1.85479e-07
2.32077e-06
-1.13185e-08
-2.01995e-07
2.44773e-06
-1.30898e-08
-2.19959e-07
2.58692e-06
-1.5204e-08
-2.39457e-07
2.73957e-06
-1.77276e-08
-2.6057e-07
2.90704e-06
-2.07333e-08
-2.83362e-07
3.09079e-06
-2.42993e-08
-3.07873e-07
3.29237e-06
-2.85104e-08
-3.34112e-07
3.51338e-06
-3.34505e-08
-3.62046e-07
3.75547e-06
-3.9185e-08
-3.91583e-07
4.0202e-06
-4.57381e-08
-4.22542e-07
4.30895e-06
-5.30623e-08
-4.54629e-07
4.62272e-06
-6.09908e-08
-4.87413e-07
-6.91621e-08
-5.20275e-07
1.13147e-06
-1.08821e-09
-3.0124e-08
1.1481e-06
-1.19154e-09
-3.26321e-08
1.16612e-06
-1.30625e-09
-3.53533e-08
1.18566e-06
-1.43288e-09
-3.83038e-08
1.20686e-06
-1.57345e-09
-4.15093e-08
1.22985e-06
-1.7313e-09
-4.50041e-08
1.25481e-06
-1.90881e-09
-4.88193e-08
1.28192e-06
-2.10738e-09
-5.29837e-08
1.31136e-06
-2.32884e-09
-5.75263e-08
1.34335e-06
-2.5769e-09
-6.24815e-08
1.37813e-06
-2.85638e-09
-6.78889e-08
1.41595e-06
-3.17085e-09
-7.3782e-08
1.45707e-06
-3.52485e-09
-8.01952e-08
1.50182e-06
-3.92687e-09
-8.7176e-08
1.55051e-06
-4.38872e-09
-9.47777e-08
1.60354e-06
-4.92519e-09
-1.03056e-07
1.66129e-06
-5.55424e-09
-1.12078e-07
1.72424e-06
-6.29416e-09
-1.21916e-07
1.79289e-06
-7.16225e-09
-1.32642e-07
1.86778e-06
-8.17887e-09
-1.44335e-07
1.94954e-06
-9.37402e-09
-1.57083e-07
2.03884e-06
-1.07902e-08
-1.70997e-07
2.13645e-06
-1.24838e-08
-1.86194e-07
2.24322e-06
-1.45249e-08
-2.02796e-07
2.36009e-06
-1.69934e-08
-2.2091e-07
2.4881e-06
-1.99811e-08
-2.4063e-07
2.62838e-06
-2.35984e-08
-2.62053e-07
2.7822e-06
-2.7975e-08
-2.85273e-07
2.95091e-06
-3.32573e-08
-3.10364e-07
3.13599e-06
-3.96057e-08
-3.37374e-07
3.33902e-06
-4.71924e-08
-3.66328e-07
3.56165e-06
-5.61878e-08
-3.97217e-07
3.80557e-06
-6.67298e-08
-4.29967e-07
4.07244e-06
-7.8881e-08
-4.64415e-07
4.36375e-06
-9.25689e-08
-5.00266e-07
4.68066e-06
-1.07521e-07
-5.37086e-07
-1.23151e-07
-5.74235e-07
1.13328e-06
-7.81115e-10
-3.12963e-08
1.1499e-06
-8.69653e-10
-3.38982e-08
1.16791e-06
-9.68922e-10
-3.67179e-08
1.18744e-06
-1.07876e-09
-3.9774e-08
1.20862e-06
-1.20033e-09
-4.31022e-08
1.23161e-06
-1.33603e-09
-4.67432e-08
1.25656e-06
-1.48805e-09
-5.07263e-08
1.28365e-06
-1.65848e-09
-5.50732e-08
1.31308e-06
-1.84978e-09
-5.98071e-08
1.34505e-06
-2.06584e-09
-6.49643e-08
1.37979e-06
-2.31192e-09
-7.05889e-08
1.41757e-06
-2.59354e-09
-7.67188e-08
1.45864e-06
-2.91808e-09
-8.33923e-08
1.50332e-06
-3.29682e-09
-9.06565e-08
1.55194e-06
-3.74461e-09
-9.85652e-08
1.60487e-06
-4.27995e-09
-1.07185e-07
1.66252e-06
-4.92506e-09
-1.16594e-07
1.72534e-06
-5.70364e-09
-1.26868e-07
1.79384e-06
-6.64103e-09
-1.38076e-07
1.86855e-06
-7.76804e-09
-1.50287e-07
1.9501e-06
-9.12611e-09
-1.636e-07
2.03916e-06
-1.07711e-08
-1.7813e-07
2.13647e-06
-1.27756e-08
-1.94002e-07
2.24287e-06
-1.52313e-08
-2.11349e-07
2.35928e-06
-1.82492e-08
-2.30292e-07
2.48673e-06
-2.19614e-08
-2.50938e-07
2.62635e-06
-2.65272e-08
-2.73393e-07
2.77936e-06
-3.21344e-08
-2.97761e-07
2.94711e-06
-3.89983e-08
-3.24132e-07
3.13109e-06
-4.73594e-08
-3.52572e-07
3.33287e-06
-5.74773e-08
-3.83129e-07
3.55414e-06
-6.96115e-08
-4.15827e-07
3.79666e-06
-8.39843e-08
-4.50642e-07
4.06221e-06
-1.00727e-07
-4.87467e-07
4.35244e-06
-1.19801e-07
-5.2607e-07
4.66879e-06
-1.40886e-07
-5.66037e-07
-1.63214e-07
-6.0673e-07
1.13336e-06
-3.43596e-10
-3.13834e-08
1.14996e-06
-4.06139e-10
-3.39932e-08
1.16796e-06
-4.77098e-10
-3.68208e-08
1.18747e-06
-5.55431e-10
-3.98889e-08
1.20864e-06
-6.41248e-10
-4.32364e-08
1.23161e-06
-7.35789e-10
-4.69018e-08
1.25655e-06
-8.40891e-10
-5.09118e-08
1.28363e-06
-9.59225e-10
-5.5285e-08
1.31303e-06
-1.09409e-09
-6.00422e-08
1.34497e-06
-1.25009e-09
-6.52174e-08
1.37969e-06
-1.43307e-09
-7.08543e-08
1.41742e-06
-1.64967e-09
-7.69958e-08
1.45844e-06
-1.90878e-09
-8.36826e-08
1.50305e-06
-2.22307e-09
-9.09589e-08
1.55158e-06
-2.60851e-09
-9.88813e-08
1.60441e-06
-3.08486e-09
-1.07528e-07
1.66194e-06
-3.67613e-09
-1.16989e-07
1.72461e-06
-4.41018e-09
-1.2734e-07
1.79294e-06
-5.31963e-09
-1.38642e-07
1.86745e-06
-6.44417e-09
-1.50963e-07
1.94874e-06
-7.83531e-09
-1.64395e-07
2.03748e-06
-9.55772e-09
-1.79055e-07
2.1344e-06
-1.16949e-08
-1.95066e-07
2.24032e-06
-1.43552e-08
-2.12566e-07
2.35614e-06
-1.76729e-08
-2.31689e-07
2.48286e-06
-2.18129e-08
-2.52558e-07
2.62159e-06
-2.69758e-08
-2.75291e-07
2.77353e-06
-3.33988e-08
-3.00007e-07
2.94001e-06
-4.1359e-08
-3.26819e-07
3.1225e-06
-5.11697e-08
-3.55824e-07
3.32258e-06
-6.3174e-08
-3.87106e-07
3.54197e-06
-7.77244e-08
-4.20733e-07
3.78253e-06
-9.51466e-08
-4.56739e-07
4.04616e-06
-1.15677e-07
-4.95084e-07
4.33477e-06
-1.39369e-07
-5.35598e-07
4.65014e-06
-1.65951e-07
-5.77934e-07
-1.94623e-07
-6.21493e-07
1.13331e-06
1.82722e-11
-3.11175e-08
1.14991e-06
-2.22741e-11
-3.37119e-08
1.1679e-06
-6.79255e-11
-3.65259e-08
1.18741e-06
-1.17509e-10
-3.95853e-08
1.20857e-06
-1.70673e-10
-4.29242e-08
1.23153e-06
-2.27919e-10
-4.65728e-08
1.25646e-06
-2.9117e-10
-5.05562e-08
1.28352e-06
-3.63594e-10
-5.48961e-08
1.31291e-06
-4.49224e-10
-5.96151e-08
1.34483e-06
-5.53223e-10
-6.47457e-08
1.37951e-06
-6.81523e-10
-7.03325e-08
1.4172e-06
-8.41269e-10
-7.64207e-08
1.45817e-06
-1.0422e-09
-8.30493e-08
1.50273e-06
-1.29746e-09
-9.02602e-08
1.55118e-06
-1.62311e-09
-9.81125e-08
1.60391e-06
-2.03862e-09
-1.06691e-07
1.66131e-06
-2.56792e-09
-1.1609e-07
1.72384e-06
-3.24072e-09
-1.26389e-07
1.79198e-06
-4.09388e-09
-1.37653e-07
1.86626e-06
-5.1728e-09
-1.49949e-07
1.94728e-06
-6.53554e-09
-1.63366e-07
2.03567e-06
-8.25557e-09
-1.78008e-07
2.13215e-06
-1.04259e-08
-1.93997e-07
2.23752e-06
-1.31625e-08
-2.11476e-07
2.35265e-06
-1.66163e-08
-2.3059e-07
2.47851e-06
-2.09751e-08
-2.51486e-07
2.61618e-06
-2.64665e-08
-2.74294e-07
2.76683e-06
-3.33651e-08
-2.99153e-07
2.93177e-06
-4.19953e-08
-3.26205e-07
3.11242e-06
-5.27304e-08
-3.55597e-07
3.31039e-06
-6.59885e-08
-3.87468e-07
3.52741e-06
-8.22136e-08
-4.21947e-07
3.7654e-06
-1.01844e-07
-4.59156e-07
4.02644e-06
-1.25251e-07
-4.99151e-07
4.31272e-06
-1.52635e-07
-5.41876e-07
4.62645e-06
-1.83871e-07
-5.87124e-07
-2.1828e-07
-6.34411e-07
1.13328e-06
3.00078e-10
-3.08979e-08
1.14987e-06
2.7898e-10
-3.3488e-08
1.16786e-06
2.55735e-10
-3.62998e-08
1.18736e-06
2.32167e-10
-3.93595e-08
1.20852e-06
2.08801e-10
-4.26938e-08
1.23148e-06
1.84809e-10
-4.63271e-08
1.2564e-06
1.57822e-10
-5.02854e-08
1.28345e-06
1.24492e-10
-5.45944e-08
1.31282e-06
8.05915e-11
-5.92804e-08
1.34472e-06
2.10565e-11
-6.43777e-08
1.37938e-06
-5.97239e-11
-6.99314e-08
1.41703e-06
-1.69019e-10
-7.59845e-08
1.45796e-06
-3.16686e-10
-8.25744e-08
1.50245e-06
-5.15675e-10
-8.97444e-08
1.55083e-06
-7.81318e-10
-9.7556e-08
1.60346e-06
-1.13144e-09
-1.06095e-07
1.66075e-06
-1.5884e-09
-1.15453e-07
1.72313e-06
-2.18134e-09
-1.25713e-07
1.79108e-06
-2.94828e-09
-1.36951e-07
1.86512e-06
-3.93757e-09
-1.49235e-07
1.94584e-06
-5.21042e-09
-1.62652e-07
2.03385e-06
-6.84237e-09
-1.77303e-07
2.12986e-06
-8.92971e-09
-1.93313e-07
2.23463e-06
-1.15952e-08
-2.10823e-07
2.349e-06
-1.49941e-08
-2.29985e-07
2.47392e-06
-1.93225e-08
-2.50967e-07
2.61041e-06
-2.48211e-08
-2.73928e-07
2.75962e-06
-3.17842e-08
-2.99037e-07
2.9228e-06
-4.05641e-08
-3.26471e-07
3.10136e-06
-5.15736e-08
-3.56437e-07
3.29685e-06
-6.52848e-08
-3.89147e-07
3.51105e-06
-8.22194e-08
-4.24813e-07
3.74592e-06
-1.02922e-07
-4.63664e-07
4.00369e-06
-1.27904e-07
-5.05913e-07
4.28682e-06
-1.57552e-07
-5.51703e-07
4.59801e-06
-1.91966e-07
-6.01031e-07
-2.30734e-07
-6.53627e-07
1.13326e-06
5.54275e-10
-3.08243e-08
1.14985e-06
5.57028e-10
-3.34286e-08
1.16784e-06
5.60708e-10
-3.6255e-08
1.18734e-06
5.67092e-10
-3.93257e-08
1.2085e-06
5.76751e-10
-4.26649e-08
1.23146e-06
5.88716e-10
-4.62981e-08
1.25637e-06
6.00242e-10
-5.02522e-08
1.28341e-06
6.08095e-10
-5.45547e-08
1.31277e-06
6.08608e-10
-5.92363e-08
1.34465e-06
5.97531e-10
-6.43335e-08
1.37929e-06
5.69476e-10
-6.98882e-08
1.41691e-06
5.17539e-10
-7.59384e-08
1.4578e-06
4.32779e-10
-8.25228e-08
1.50223e-06
3.03957e-10
-8.96918e-08
1.55054e-06
1.18762e-10
-9.75143e-08
1.60308e-06
-1.40287e-10
-1.06074e-07
1.66025e-06
-4.92756e-10
-1.15452e-07
1.72248e-06
-9.63438e-10
-1.25733e-07
1.79025e-06
-1.5892e-09
-1.36998e-07
1.86406e-06
-2.41684e-09
-1.49325e-07
1.94447e-06
-3.50641e-09
-1.62804e-07
2.03211e-06
-4.93156e-09
-1.77537e-07
2.12763e-06
-6.78587e-09
-1.93655e-07
2.23178e-06
-9.18697e-09
-2.11295e-07
2.34538e-06
-1.22849e-08
-2.30621e-07
2.46931e-06
-1.62699e-08
-2.51819e-07
2.60458e-06
-2.13776e-08
-2.75079e-07
2.75227e-06
-2.78996e-08
-3.00608e-07
2.91359e-06
-3.61898e-08
-3.28632e-07
3.08989e-06
-4.66717e-08
-3.59423e-07
3.2827e-06
-5.98402e-08
-3.9327e-07
3.49376e-06
-7.62618e-08
-4.30494e-07
3.72508e-06
-9.65558e-08
-4.71477e-07
3.97899e-06
-1.21354e-07
-5.16642e-07
4.2582e-06
-1.51221e-07
-5.66409e-07
4.56585e-06
-1.86525e-07
-6.21096e-07
-2.27212e-07
-6.80776e-07
1.13326e-06
8.35869e-10
-3.08884e-08
1.14985e-06
8.73276e-10
-3.35287e-08
1.16784e-06
9.14894e-10
-3.63892e-08
1.18735e-06
9.61333e-10
-3.94839e-08
1.20851e-06
1.01379e-09
-4.28412e-08
1.23147e-06
1.07135e-09
-4.6493e-08
1.25638e-06
1.13119e-09
-5.04649e-08
1.28341e-06
1.19072e-09
-5.47854e-08
1.31276e-06
1.24776e-09
-5.94902e-08
1.34463e-06
1.29938e-09
-6.46166e-08
1.37924e-06
1.34026e-09
-7.02009e-08
1.41684e-06
1.36418e-09
-7.6275e-08
1.45769e-06
1.36401e-09
-8.28824e-08
1.50207e-06
1.33206e-09
-9.00837e-08
1.55032e-06
1.25988e-09
-9.79592e-08
1.60279e-06
1.13513e-09
-1.0659e-07
1.65986e-06
9.41955e-10
-1.16046e-07
1.72196e-06
6.57055e-10
-1.26408e-07
1.78956e-06
2.49846e-10
-1.37757e-07
1.86315e-06
-3.24295e-10
-1.50183e-07
1.94328e-06
-1.11841e-09
-1.63781e-07
2.03056e-06
-2.19457e-09
-1.78663e-07
2.12562e-06
-3.63699e-09
-1.94965e-07
2.22919e-06
-5.54969e-09
-2.12827e-07
2.34205e-06
-8.065e-09
-2.32425e-07
2.46505e-06
-1.13525e-08
-2.53958e-07
2.59913e-06
-1.56215e-08
-2.77654e-07
2.74535e-06
-2.11353e-08
-3.0376e-07
2.90484e-06
-2.82212e-08
-3.32552e-07
3.0789e-06
-3.72767e-08
-3.64369e-07
3.269e-06
-4.87767e-08
-3.99588e-07
3.47683e-06
-6.32805e-08
-4.38661e-07
3.7044e-06
-8.14242e-08
-4.82157e-07
3.9541e-06
-1.03898e-07
-5.30769e-07
4.22882e-06
-1.31395e-07
-5.85254e-07
4.53205e-06
-1.64513e-07
-6.46373e-07
-2.03567e-07
-7.14733e-07
1.13328e-06
1.14353e-09
-3.10016e-08
1.14987e-06
1.22622e-09
-3.36842e-08
1.16787e-06
1.31622e-09
-3.65835e-08
1.18739e-06
1.41184e-09
-3.97057e-08
1.20855e-06
1.5155e-09
-4.30867e-08
1.23151e-06
1.62678e-09
-4.67625e-08
1.25642e-06
1.74312e-09
-5.07562e-08
1.28345e-06
1.86317e-09
-5.50991e-08
1.3128e-06
1.98767e-09
-5.98324e-08
1.34466e-06
2.11597e-09
-6.49967e-08
1.37926e-06
2.24277e-09
-7.06234e-08
1.41684e-06
2.36226e-09
-7.67401e-08
1.45766e-06
2.46985e-09
-8.33951e-08
1.50201e-06
2.56372e-09
-9.06586e-08
1.55022e-06
2.64019e-09
-9.86139e-08
1.60263e-06
2.69046e-09
-1.07335e-07
1.65963e-06
2.70261e-09
-1.16883e-07
1.72163e-06
2.65788e-09
-1.27337e-07
1.78909e-06
2.53268e-09
-1.3878e-07
1.86251e-06
2.29355e-09
-1.51314e-07
1.94241e-06
1.89831e-09
-1.65042e-07
2.02938e-06
1.29663e-09
-1.80087e-07
2.12406e-06
4.21367e-10
-1.96589e-07
2.22714e-06
-7.9852e-10
-2.14702e-07
2.33936e-06
-2.47584e-09
-2.34605e-07
2.46154e-06
-4.74537e-09
-2.56499e-07
2.5946e-06
-7.77595e-09
-2.80646e-07
2.73951e-06
-1.17695e-08
-3.07335e-07
2.89738e-06
-1.70005e-08
-3.36888e-07
3.06942e-06
-2.38e-08
-3.69703e-07
3.25703e-06
-3.25722e-08
-4.06257e-07
3.46186e-06
-4.38081e-08
-4.47145e-07
3.68585e-06
-5.80791e-08
-4.93137e-07
3.93142e-06
-7.60419e-08
-5.45228e-07
4.20152e-06
-9.84102e-08
-6.04563e-07
4.49992e-06
-1.25905e-07
-6.72435e-07
-1.59135e-07
-7.50152e-07
1.13319e-06
1.29646e-09
-3.08256e-08
1.14979e-06
1.41287e-09
-3.3503e-08
1.1678e-06
1.53848e-09
-3.63938e-08
1.18733e-06
1.66866e-09
-3.95016e-08
1.2085e-06
1.80708e-09
-4.28662e-08
1.23147e-06
1.954e-09
-4.65219e-08
1.25639e-06
2.10709e-09
-5.04892e-08
1.28343e-06
2.26646e-09
-5.48022e-08
1.31278e-06
2.43672e-09
-5.95069e-08
1.34464e-06
2.62042e-09
-6.46491e-08
1.37924e-06
2.81244e-09
-7.02588e-08
1.41682e-06
3.00659e-09
-7.63613e-08
1.45763e-06
3.19989e-09
-8.30047e-08
1.50198e-06
3.39549e-09
-9.0255e-08
1.55017e-06
3.59532e-09
-9.81957e-08
1.60256e-06
3.79472e-09
-1.06893e-07
1.65952e-06
3.98531e-09
-1.16408e-07
1.72147e-06
4.15415e-09
-1.26816e-07
1.78885e-06
4.28641e-09
-1.38204e-07
1.86214e-06
4.35971e-09
-1.50682e-07
1.94189e-06
4.34813e-09
-1.64363e-07