/*--------------------------------*- C++ -*----------------------------------*\
| =========                 |                                                 |
| \\      /  F ield         | OpenFOAM: The Open Source CFD Toolbox           |
|  \\    /   O peration     | Version:  2.3.1                                 |
|   \\  /    A nd           | Web:      www.OpenFOAM.org                      |
|    \\/     M anipulation  |                                                 |
\*---------------------------------------------------------------------------*/
FoamFile
{
    version     2.0;
    format      ascii;
    class       surfaceScalarField;
    location    "5";
    object      phi_0;
}
// * * * * * * * * * * * * * * * * * * * * * * * * * * * * * * * * * * * * * //

dimensions      [0 3 -1 0 0 0 0];

internalField   nonuniform List<scalar> 
107940
(
1.05524e-06
-1.53798e-09
-1.33591e-08
1.07139e-06
-1.67403e-09
-1.44733e-08
1.08889e-06
-1.82179e-09
-1.56836e-08
1.10787e-06
-1.9831e-09
-1.69955e-08
1.12845e-06
-2.16253e-09
-1.84161e-08
1.15077e-06
-2.36523e-09
-1.99575e-08
1.175e-06
-2.59234e-09
-2.16361e-08
1.20132e-06
-2.84195e-09
-2.34698e-08
1.2299e-06
-3.11298e-09
-2.54753e-08
1.26098e-06
-3.40842e-09
-2.76672e-08
1.29477e-06
-3.73488e-09
-3.00573e-08
1.33153e-06
-4.09746e-09
-3.26583e-08
1.37151e-06
-4.49962e-09
-3.54867e-08
1.41502e-06
-4.94714e-09
-3.85635e-08
1.46238e-06
-5.44805e-09
-4.19127e-08
1.51396e-06
-6.01262e-09
-4.55596e-08
1.57014e-06
-6.6539e-09
-4.95316e-08
1.63139e-06
-7.38473e-09
-5.38596e-08
1.69818e-06
-8.21534e-09
-5.85776e-08
1.77106e-06
-9.1563e-09
-6.37224e-08
1.85062e-06
-1.02245e-08
-6.9335e-08
1.93753e-06
-1.14458e-08
-7.54618e-08
2.03253e-06
-1.28541e-08
-8.21527e-08
2.13648e-06
-1.44916e-08
-8.94551e-08
2.2503e-06
-1.64041e-08
-9.74144e-08
2.37501e-06
-1.86409e-08
-1.06072e-07
2.51174e-06
-2.12606e-08
-1.15468e-07
2.66171e-06
-2.43307e-08
-1.25641e-07
2.82626e-06
-2.7926e-08
-1.36621e-07
3.00681e-06
-3.21264e-08
-1.48426e-07
3.20489e-06
-3.70166e-08
-1.6106e-07
3.42207e-06
-4.2681e-08
-1.74504e-07
3.65997e-06
-4.91858e-08
-1.88712e-07
3.92011e-06
-5.65527e-08
-2.03594e-07
4.20385e-06
-6.47336e-08
-2.19003e-07
4.51214e-06
-7.35655e-08
-2.34721e-07
-8.27109e-08
-2.50429e-07
1.08161e-06
-1.56718e-09
-1.49777e-08
1.09787e-06
-1.71939e-09
-1.62221e-08
1.11551e-06
-1.88536e-09
-1.75716e-08
1.13463e-06
-2.06776e-09
-1.90333e-08
1.15536e-06
-2.27202e-09
-2.06197e-08
1.17784e-06
-2.50284e-09
-2.23505e-08
1.20225e-06
-2.76044e-09
-2.42426e-08
1.22876e-06
-3.04238e-09
-2.631e-08
1.25757e-06
-3.34744e-09
-2.85671e-08
1.28887e-06
-3.67915e-09
-3.1031e-08
1.3229e-06
-4.04546e-09
-3.37223e-08
1.35991e-06
-4.45463e-09
-3.66563e-08
1.40018e-06
-4.9144e-09
-3.98474e-08
1.44398e-06
-5.43417e-09
-4.3319e-08
1.49166e-06
-6.0272e-09
-4.70983e-08
1.54357e-06
-6.7125e-09
-5.12117e-08
1.60012e-06
-7.51264e-09
-5.56916e-08
1.66176e-06
-8.44822e-09
-6.05749e-08
1.72898e-06
-9.53661e-09
-6.58975e-08
1.80232e-06
-1.07971e-08
-7.1696e-08
1.88237e-06
-1.22592e-08
-7.80153e-08
1.9698e-06
-1.39639e-08
-8.49122e-08
2.06536e-06
-1.5965e-08
-9.24496e-08
2.16989e-06
-1.83319e-08
-1.00691e-07
2.28432e-06
-2.11477e-08
-1.0969e-07
2.40968e-06
-2.45086e-08
-1.19489e-07
2.54708e-06
-2.85246e-08
-1.30136e-07
2.69775e-06
-3.33242e-08
-1.4168e-07
2.86304e-06
-3.90544e-08
-1.54156e-07
3.04437e-06
-4.58752e-08
-1.67582e-07
3.24328e-06
-5.39552e-08
-1.81973e-07
3.46138e-06
-6.34608e-08
-1.97323e-07
3.70032e-06
-7.45268e-08
-2.13596e-07
3.96167e-06
-8.72002e-08
-2.30709e-07
4.24683e-06
-1.01387e-07
-2.48498e-07
4.55683e-06
-1.1681e-07
-2.66761e-07
-1.32889e-07
-2.85213e-07
1.08409e-06
-9.10661e-10
-1.56578e-08
1.10035e-06
-1.02573e-09
-1.69559e-08
1.11798e-06
-1.15297e-09
-1.83607e-08
1.13708e-06
-1.29442e-09
-1.98805e-08
1.1578e-06
-1.45256e-09
-2.15357e-08
1.18028e-06
-1.62806e-09
-2.33516e-08
1.20468e-06
-1.82016e-09
-2.53433e-08
1.23118e-06
-2.02842e-09
-2.75189e-08
1.25998e-06
-2.25372e-09
-2.98876e-08
1.29127e-06
-2.49986e-09
-3.24674e-08
1.32528e-06
-2.77407e-09
-3.52828e-08
1.36226e-06
-3.08578e-09
-3.83522e-08
1.40248e-06
-3.44503e-09
-4.16927e-08
1.44624e-06
-3.86324e-09
-4.53274e-08
1.49385e-06
-4.35723e-09
-4.92824e-08
1.54568e-06
-4.95105e-09
-5.35907e-08
1.60214e-06
-5.67177e-09
-5.82936e-08
1.66366e-06
-6.54513e-09
-6.34302e-08
1.73075e-06
-7.59581e-09
-6.90317e-08
1.80394e-06
-8.85195e-09
-7.51306e-08
1.88381e-06
-1.03514e-08
-8.17751e-08
1.97101e-06
-1.21442e-08
-8.90267e-08
2.0663e-06
-1.42967e-08
-9.69525e-08
2.17048e-06
-1.68965e-08
-1.05623e-07
2.28449e-06
-2.00555e-08
-1.151e-07
2.40933e-06
-2.39096e-08
-1.25435e-07
2.5461e-06
-2.86158e-08
-1.36678e-07
2.69601e-06
-3.43587e-08
-1.48881e-07
2.8604e-06
-4.13534e-08
-1.62086e-07
3.04068e-06
-4.98375e-08
-1.76324e-07
3.2384e-06
-6.00616e-08
-1.91613e-07
3.45518e-06
-7.22725e-08
-2.07966e-07
3.6927e-06
-8.66747e-08
-2.25366e-07
3.95264e-06
-1.03374e-07
-2.43773e-07
4.23666e-06
-1.22317e-07
-2.63088e-07
4.54612e-06
-1.43178e-07
-2.83094e-07
-1.65197e-07
-3.03455e-07
1.08439e-06
-2.78386e-10
-1.56255e-08
1.10065e-06
-3.58663e-10
-1.69205e-08
1.11826e-06
-4.49302e-10
-1.8321e-08
1.13736e-06
-5.50137e-10
-1.98388e-08
1.15806e-06
-6.59384e-10
-2.14971e-08
1.18053e-06
-7.74525e-10
-2.33192e-08
1.20492e-06
-8.9522e-10
-2.53175e-08
1.23141e-06
-1.02425e-09
-2.74979e-08
1.26019e-06
-1.16588e-09
-2.98674e-08
1.29146e-06
-1.32519e-09
-3.24429e-08
1.32545e-06
-1.50912e-09
-3.52484e-08
1.36239e-06
-1.72658e-09
-3.83058e-08
1.40257e-06
-1.98771e-09
-4.1634e-08
1.44626e-06
-2.30559e-09
-4.52531e-08
1.4938e-06
-2.69899e-09
-4.91898e-08
1.54552e-06
-3.19188e-09
-5.34857e-08
1.60185e-06
-3.81095e-09
-5.81904e-08
1.66324e-06
-4.58548e-09
-6.33431e-08
1.73016e-06
-5.54852e-09
-6.89708e-08
1.80315e-06
-6.73764e-09
-7.51013e-08
1.88277e-06
-8.19813e-09
-8.17811e-08
1.96969e-06
-9.9875e-09
-8.90699e-08
2.0646e-06
-1.21827e-08
-9.70317e-08
2.16833e-06
-1.48863e-08
-1.05739e-07
2.28177e-06
-1.82321e-08
-1.15259e-07
2.4059e-06
-2.23912e-08
-1.25654e-07
2.54182e-06
-2.75504e-08
-1.36982e-07
2.69071e-06
-3.39449e-08
-1.493e-07
2.85387e-06
-4.18478e-08
-1.62664e-07
3.03271e-06
-5.1568e-08
-1.77117e-07
3.22879e-06
-6.34382e-08
-1.92696e-07
3.44374e-06
-7.77923e-08
-2.09431e-07
3.67933e-06
-9.49327e-08
-2.27334e-07
3.93743e-06
-1.15068e-07
-2.46406e-07
4.21991e-06
-1.38225e-07
-2.66572e-07
4.5285e-06
-1.64113e-07
-2.87652e-07
-1.9192e-07
-3.09343e-07
1.08439e-06
1.80371e-10
-1.54433e-08
1.10063e-06
1.23139e-10
-1.67265e-08
1.11824e-06
5.86285e-11
-1.81165e-08
1.13733e-06
-1.04746e-11
-1.96278e-08
1.15803e-06
-7.88732e-11
-2.1281e-08
1.18049e-06
-1.45714e-10
-2.30914e-08
1.20488e-06
-2.1183e-10
-2.50704e-08
1.23136e-06
-2.82053e-10
-2.72266e-08
1.26013e-06
-3.629e-10
-2.95689e-08
1.29138e-06
-4.60747e-10
-3.21133e-08
1.32534e-06
-5.81871e-10
-3.48837e-08
1.36225e-06
-7.33474e-10
-3.7904e-08
1.40238e-06
-9.25736e-10
-4.11919e-08
1.44601e-06
-1.17388e-09
-4.47647e-08
1.49346e-06
-1.49723e-09
-4.86507e-08
1.54508e-06
-1.91709e-09
-5.28964e-08
1.60128e-06
-2.45656e-09
-5.75543e-08
1.66251e-06
-3.14537e-09
-6.26663e-08
1.72924e-06
-4.0221e-09
-6.82614e-08
1.802e-06
-5.1321e-09
-7.43665e-08
1.88136e-06
-6.5283e-09
-8.10237e-08
1.96793e-06
-8.27613e-09
-8.82866e-08
2.06243e-06
-1.04635e-08
-9.62155e-08
2.16563e-06
-1.32014e-08
-1.04884e-07
2.2784e-06
-1.6631e-08
-1.1437e-07
2.4017e-06
-2.0939e-08
-1.24751e-07
2.53658e-06
-2.63515e-08
-1.36084e-07
2.68421e-06
-3.31394e-08
-1.48434e-07
2.84585e-06
-4.16198e-08
-1.61872e-07
3.02291e-06
-5.21588e-08
-1.76469e-07
3.21693e-06
-6.51593e-08
-1.92291e-07
3.42957e-06
-8.10419e-08
-2.09396e-07
3.6627e-06
-1.00215e-07
-2.27842e-07
3.91832e-06
-1.23016e-07
-2.47675e-07
4.19858e-06
-1.49615e-07
-2.68875e-07
4.50565e-06
-1.79852e-07
-2.91331e-07
-2.13016e-07
-3.14797e-07
1.08435e-06
5.1226e-10
-1.5309e-08
1.10059e-06
4.74145e-10
-1.65899e-08
1.1182e-06
4.33506e-10
-1.79798e-08
1.13728e-06
3.95531e-10
-1.94935e-08
1.15799e-06
3.6323e-10
-2.1145e-08
1.18045e-06
3.36334e-10
-2.29458e-08
1.20483e-06
3.12422e-10
-2.4908e-08
1.23131e-06
2.86293e-10
-2.70438e-08
1.26006e-06
2.50751e-10
-2.93651e-08
1.29129e-06
1.9924e-10
-3.18888e-08
1.32522e-06
1.27186e-10
-3.46393e-08
1.3621e-06
2.94478e-11
-3.76392e-08
1.40218e-06
-1.04695e-10
-4.09042e-08
1.44575e-06
-2.92461e-10
-4.44522e-08
1.49312e-06
-5.53541e-10
-4.83134e-08
1.54464e-06
-9.05739e-10
-5.25345e-08
1.60072e-06
-1.36648e-09
-5.71661e-08
1.66179e-06
-1.96278e-09
-6.22523e-08
1.72833e-06
-2.7338e-09
-6.7829e-08
1.80085e-06
-3.72933e-09
-7.39258e-08
1.87991e-06
-5.009e-09
-8.05817e-08
1.96613e-06
-6.64379e-09
-8.78451e-08
2.06017e-06
-8.72396e-09
-9.57791e-08
2.16279e-06
-1.13628e-08
-1.04457e-07
2.27482e-06
-1.4708e-08
-1.13957e-07
2.3972e-06
-1.89518e-08
-1.24364e-07
2.53093e-06
-2.43334e-08
-1.35757e-07
2.67715e-06
-3.11437e-08
-1.48215e-07
2.83709e-06
-3.97258e-08
-1.61826e-07
3.0121e-06
-5.04813e-08
-1.76691e-07
3.20372e-06
-6.38622e-08
-1.92916e-07
3.41364e-06
-8.03626e-08
-2.10599e-07
3.64376e-06
-1.00494e-07
-2.29846e-07
3.89626e-06
-1.24732e-07
-2.50781e-07
4.17355e-06
-1.53421e-07
-2.73486e-07
4.47826e-06
-1.86611e-07
-2.9795e-07
-2.23834e-07
-3.24036e-07
1.08432e-06
8.05706e-10
-1.52656e-08
1.10056e-06
7.92312e-10
-1.65554e-08
1.11816e-06
7.80558e-10
-1.7954e-08
1.13726e-06
7.77596e-10
-1.94743e-08
1.15796e-06
7.84292e-10
-2.11284e-08
1.18043e-06
7.98384e-10
-2.2928e-08
1.20481e-06
8.17244e-10
-2.48865e-08
1.23128e-06
8.36145e-10
-2.70175e-08
1.26002e-06
8.48062e-10
-2.93357e-08
1.29123e-06
8.47169e-10
-3.18599e-08
1.32514e-06
8.30544e-10
-3.46121e-08
1.36198e-06
7.94281e-10
-3.76106e-08
1.40202e-06
7.27775e-10
-4.08712e-08
1.44553e-06
6.14483e-10
-4.44175e-08
1.49283e-06
4.36802e-10
-4.82846e-08
1.54426e-06
1.82011e-10
-5.25192e-08
1.60022e-06
-1.64708e-10
-5.71632e-08
1.66114e-06
-6.27248e-10
-6.22591e-08
1.7275e-06
-1.23854e-09
-6.78489e-08
1.79978e-06
-2.04879e-09
-7.39673e-08
1.87855e-06
-3.11787e-09
-8.0656e-08
1.96439e-06
-4.51831e-09
-8.79643e-08
2.05796e-06
-6.33857e-09
-9.59566e-08
2.15999e-06
-8.68743e-09
-1.04702e-07
2.27127e-06
-1.17073e-08
-1.14283e-07
2.39269e-06
-1.55812e-08
-1.24796e-07
2.52524e-06
-2.0543e-08
-1.36334e-07
2.66997e-06
-2.68804e-08
-1.49e-07
2.82809e-06
-3.49363e-08
-1.62905e-07
3.00091e-06
-4.51183e-08
-1.78185e-07
3.18993e-06
-5.78979e-08
-1.94982e-07
3.39683e-06
-7.38118e-08
-2.13447e-07
3.62354e-06
-9.34452e-08
-2.33763e-07
3.87235e-06
-1.1739e-07
-2.56155e-07
4.14594e-06
-1.46157e-07
-2.8085e-07
4.44736e-06
-1.80038e-07
-3.07998e-07
-2.18897e-07
-3.37633e-07
1.0843e-06
1.13966e-09
-1.53021e-08
1.10054e-06
1.16827e-09
-1.66154e-08
1.11815e-06
1.20211e-09
-1.8036e-08
1.13725e-06
1.24786e-09
-1.95704e-08
1.15796e-06
1.3057e-09
-2.12342e-08
1.18043e-06
1.37367e-09
-2.30443e-08
1.20481e-06
1.44992e-09
-2.50135e-08
1.23127e-06
1.53034e-09
-2.71554e-08
1.26e-06
1.60869e-09
-2.94884e-08
1.2912e-06
1.67985e-09
-3.20317e-08
1.32509e-06
1.74113e-09
-3.48026e-08
1.36191e-06
1.78911e-09
-3.78143e-08
1.40191e-06
1.81547e-09
-4.10862e-08
1.44537e-06
1.80827e-09
-4.46494e-08
1.4926e-06
1.75629e-09
-4.85481e-08
1.54395e-06
1.65131e-09
-5.28256e-08
1.59982e-06
1.48359e-09
-5.75163e-08
1.66062e-06
1.23412e-09
-6.26599e-08
1.7268e-06
8.72747e-10
-6.82972e-08
1.79887e-06
3.56439e-10
-7.44724e-08
1.87736e-06
-3.74014e-10
-8.12297e-08
1.96285e-06
-1.3846e-09
-8.86215e-08
2.05597e-06
-2.749e-09
-9.67178e-08
2.15744e-06
-4.56592e-09
-1.05586e-07
2.268e-06
-6.95932e-09
-1.15314e-07
2.38852e-06
-1.00893e-08
-1.26005e-07
2.51991e-06
-1.41617e-08
-1.37774e-07
2.66321e-06
-1.94338e-08
-1.50746e-07
2.81955e-06
-2.62191e-08
-1.65055e-07
2.9902e-06
-3.48924e-08
-1.80874e-07
3.17659e-06
-4.59053e-08
-1.98388e-07
3.38038e-06
-5.9788e-08
-2.17809e-07
3.60349e-06
-7.71389e-08
-2.39418e-07
3.84828e-06
-9.86052e-08
-2.63575e-07
4.11761e-06
-1.24806e-07
-2.90677e-07
4.41491e-06
-1.56243e-07
-3.21098e-07
-1.93113e-07
-3.55135e-07
1.08425e-06
1.55977e-09
-1.53849e-08
1.1005e-06
1.65258e-09
-1.67286e-08
1.11812e-06
1.75451e-09
-1.81771e-08
1.13723e-06
1.86806e-09
-1.97303e-08
1.15795e-06
1.99487e-09
-2.14099e-08
1.18043e-06
2.13536e-09
-2.32372e-08
1.20481e-06
2.28872e-09
-2.52226e-08
1.23127e-06
2.45215e-09
-2.73806e-08
1.25999e-06
2.62176e-09
-2.97343e-08
1.29118e-06
2.79415e-09
-3.23046e-08
1.32506e-06
2.96617e-09
-3.51052e-08
1.36186e-06
3.13469e-09
-3.81459e-08
1.40183e-06
3.29538e-09
-4.1449e-08
1.44525e-06
3.44462e-09
-4.50532e-08
1.49243e-06
3.58009e-09
-4.9006e-08
1.54373e-06
3.69793e-09
-5.33467e-08
1.59953e-06
3.79005e-09
-5.81019e-08
1.66023e-06
3.84103e-09
-6.3309e-08
1.72628e-06
3.82738e-09
-6.90095e-08
1.79818e-06
3.71501e-09
-7.52527e-08
1.87644e-06
3.4616e-09
-8.20922e-08
1.96162e-06
3.01707e-09
-8.95901e-08
2.05437e-06
2.32194e-09
-9.7817e-08
2.15535e-06
1.30091e-09
-1.06843e-07
2.26529e-06
-1.41434e-10
-1.1676e-07
2.38501e-06
-2.13906e-09
-1.27668e-07
2.51539e-06
-4.83807e-09
-1.39705e-07
2.65741e-06
-8.44065e-09
-1.53017e-07
2.81215e-06
-1.32005e-08
-1.67763e-07
2.98083e-06
-1.94273e-08
-1.84144e-07
3.16482e-06
-2.74932e-08
-2.02394e-07
3.36569e-06
-3.78581e-08
-2.22803e-07
3.58535e-06
-5.10482e-08
-2.45751e-07
3.82616e-06
-6.76617e-08
-2.71759e-07
4.0911e-06
-8.83228e-08
-3.0142e-07
4.38386e-06
-1.13628e-07
-3.35372e-07
-1.44021e-07
-3.74269e-07
1.08392e-06
1.94462e-09
-1.53532e-08
1.10018e-06
2.10432e-09
-1.67036e-08
1.11781e-06
2.27675e-09
-1.81566e-08
1.13693e-06
2.45878e-09
-1.97102e-08
1.15766e-06
2.65447e-09
-2.13898e-08
1.18015e-06
2.86653e-09
-2.32159e-08
1.20454e-06
3.09462e-09
-2.5196e-08
1.231e-06
3.33811e-09
-2.7347e-08
1.25972e-06
3.59784e-09
-2.96956e-08
1.2909e-06
3.87457e-09
-3.22665e-08
1.32478e-06
4.16565e-09
-3.50732e-08
1.36157e-06
4.46743e-09
-3.81233e-08
1.40152e-06
4.77831e-09
-4.14395e-08
1.44492e-06
5.1017e-09
-4.50588e-08
1.49209e-06
5.44297e-09
-4.90273e-08
1.54336e-06
5.80227e-09
-5.33795e-08
1.59912e-06
6.17395e-09
-5.81413e-08
1.65976e-06
6.54724e-09
-6.33489e-08
1.72573e-06
6.90841e-09
-6.90457e-08
1.7975e-06
7.23778e-09
-7.52889e-08
1.87558e-06
7.51005e-09
-8.21362e-08
1.96056e-06
7.69597e-09
-8.96516e-08
2.05302e-06
7.75749e-09
-9.79014e-08
2.15364e-06
7.64927e-09
-1.06966e-07
2.26313e-06
7.31237e-09
-1.16942e-07
2.38226e-06
6.67068e-09
-1.27938e-07
2.51188e-06
5.62346e-09
-1.40089e-07
2.65294e-06
4.03818e-09
-1.53537e-07
2.80647e-06
1.74607e-09
-1.68476e-07
2.97362e-06
-1.43571e-09
-1.85139e-07
3.15568e-06
-5.75692e-09
-2.03801e-07
3.3542e-06
-1.15666e-08
-2.24807e-07
3.57101e-06
-1.92292e-08
-2.48627e-07
3.80842e-06
-2.91909e-08
-2.75887e-07
4.06941e-06
-4.19206e-08
-3.07388e-07
4.35782e-06
-5.80128e-08
-3.4403e-07
-7.78581e-08
-3.86881e-07
1.08144e-06
1.67031e-09
-1.46999e-08
1.0977e-06
1.82504e-09
-1.59763e-08
1.11533e-06
1.99146e-09
-1.73526e-08
1.13446e-06
2.16443e-09
-1.88299e-08
1.1552e-06
2.3482e-09
-2.04306e-08
1.17769e-06
2.54571e-09
-2.21708e-08
1.20208e-06
2.75646e-09
-2.4057e-08
1.22855e-06
2.98144e-09
-2.61066e-08
1.25726e-06
3.2246e-09
-2.83456e-08
1.28845e-06
3.48978e-09
-3.0799e-08
1.32232e-06
3.77588e-09
-3.34807e-08
1.35911e-06
4.0793e-09
-3.63993e-08
1.39906e-06
4.3992e-09
-3.95756e-08
1.44246e-06
4.74023e-09
-4.3039e-08
1.48962e-06
5.11017e-09
-4.68283e-08
1.54089e-06
5.5117e-09
-5.09751e-08
1.59663e-06
5.94212e-09
-5.55067e-08
1.65724e-06
6.39672e-09
-6.04605e-08
1.72315e-06
6.87071e-09
-6.5879e-08
1.79485e-06
7.35803e-09
-7.1818e-08
1.87284e-06
7.84972e-09
-7.83309e-08
1.95768e-06
8.33529e-09
-8.54808e-08
2.04998e-06
8.80108e-09
-9.33408e-08
2.15038e-06
9.229e-09
-1.0198e-07
2.25959e-06
9.59384e-09
-1.11485e-07
2.37835e-06
9.86423e-09
-1.21954e-07
2.50749e-06
9.99978e-09
-1.33522e-07
2.64794e-06
9.94628e-09
-1.46353e-07
2.80067e-06
9.62693e-09
-1.60615e-07
2.96681e-06
8.93949e-09
-1.76515e-07
3.14763e-06
7.75584e-09
-1.9433e-07
3.3446e-06
5.92448e-09
-2.14468e-07
3.55957e-06
3.25171e-09
-2.37444e-07
3.79484e-06
-4.98522e-10
-2.63964e-07
4.05326e-06
-5.34686e-09
-2.95e-07
4.33866e-06
-1.183e-08
-3.31581e-07
-2.02428e-08
-3.75056e-07
1.05507e-06
-1.31968e-08
1.07121e-06
-1.43099e-08
1.08872e-06
-1.55144e-08
1.1077e-06
-1.68178e-08
1.12828e-06
-1.82354e-08
1.15061e-06
-1.97796e-08
1.17482e-06
-2.14579e-08
1.20109e-06
-2.32847e-08
1.22959e-06
-2.52798e-08
1.26054e-06
-2.7461e-08
1.29416e-06
-2.98414e-08
1.33067e-06
-3.24336e-08
1.37033e-06
-3.52582e-08
1.41341e-06
-3.8339e-08
1.46022e-06
-4.17023e-08
1.51111e-06
-4.53728e-08
1.56643e-06
-4.93783e-08
1.62658e-06
-5.37551e-08
1.69199e-06
-5.85418e-08
1.76313e-06
-6.37857e-08
1.84052e-06
-6.95337e-08
1.92469e-06
-7.58407e-08
2.01626e-06
-8.27635e-08
2.11585e-06
-9.03643e-08
2.22416e-06
-9.87189e-08
2.34194e-06
-1.07909e-07
2.46999e-06
-1.18048e-07
2.6092e-06
-1.29265e-07
2.76055e-06
-1.41725e-07
2.92513e-06
-1.55641e-07
3.10418e-06
-1.71295e-07
3.29916e-06
-1.89057e-07
3.51185e-06
-2.09435e-07
3.74446e-06
-2.33108e-07
3.99998e-06
-2.60869e-07
4.28217e-06
-2.94021e-07
-3.34096e-07
1.10348e-06
-8.91325e-10
-2.76417e-08
1.11992e-06
-9.69705e-10
-2.99508e-08
1.13776e-06
-1.05614e-09
-3.24583e-08
1.15709e-06
-1.15128e-09
-3.51771e-08
1.17805e-06
-1.25731e-09
-3.81231e-08
1.20079e-06
-1.37729e-09
-4.13217e-08
1.22548e-06
-1.51275e-09
-4.48054e-08
1.25228e-06
-1.6639e-09
-4.86086e-08
1.2814e-06
-1.83141e-09
-5.27642e-08
1.31305e-06
-2.01842e-09
-5.73007e-08
1.34747e-06
-2.22891e-09
-6.22442e-08
1.3849e-06
-2.46445e-09
-6.76242e-08
1.42561e-06
-2.72644e-09
-7.34772e-08
1.46992e-06
-3.01933e-09
-7.98477e-08
1.51814e-06
-3.3497e-09
-8.67853e-08
1.57065e-06
-3.72581e-09
-9.43425e-08
1.62785e-06
-4.15826e-09
-1.02577e-07
1.6902e-06
-4.65795e-09
-1.11553e-07
1.7582e-06
-5.23351e-09
-1.21342e-07
1.83239e-06
-5.8941e-09
-1.3202e-07
1.91339e-06
-6.6549e-09
-1.43673e-07
2.00186e-06
-7.54021e-09
-1.56396e-07
2.09858e-06
-8.58346e-09
-1.70287e-07
2.20439e-06
-9.82563e-09
-1.85444e-07
2.32025e-06
-1.13091e-08
-2.01961e-07
2.44718e-06
-1.30796e-08
-2.19927e-07
2.58634e-06
-1.51933e-08
-2.39429e-07
2.73896e-06
-1.77164e-08
-2.60548e-07
2.90641e-06
-2.0722e-08
-2.83347e-07
3.09014e-06
-2.42885e-08
-3.07868e-07
3.2917e-06
-2.8501e-08
-3.3412e-07
3.51271e-06
-3.34441e-08
-3.62072e-07
3.75482e-06
-3.91837e-08
-3.91631e-07
4.01959e-06
-4.57455e-08
-4.22619e-07
4.30841e-06
-5.30832e-08
-4.54744e-07
4.6223e-06
-6.10324e-08
-4.87576e-07
-6.92344e-08
-5.20501e-07
1.13138e-06
-1.08696e-09
-3.01101e-08
1.148e-06
-1.19016e-09
-3.26171e-08
1.16601e-06
-1.30473e-09
-3.53372e-08
1.18555e-06
-1.43119e-09
-3.82865e-08
1.20673e-06
-1.57158e-09
-4.14908e-08
1.22972e-06
-1.72924e-09
-4.49842e-08
1.25467e-06
-1.90653e-09
-4.8798e-08
1.28176e-06
-2.10486e-09
-5.29608e-08
1.31119e-06
-2.32605e-09
-5.75018e-08
1.34317e-06
-2.57381e-09
-6.24553e-08
1.37793e-06
-2.85295e-09
-6.78608e-08
1.41573e-06
-3.16704e-09
-7.3752e-08
1.45684e-06
-3.52062e-09
-8.01632e-08
1.50156e-06
-3.92219e-09
-8.71418e-08
1.55024e-06
-4.38354e-09
-9.47413e-08
1.60324e-06
-4.91949e-09
-1.03018e-07
1.66097e-06
-5.54799e-09
-1.12037e-07
1.7239e-06
-6.2873e-09
-1.21872e-07
1.79252e-06
-7.15472e-09
-1.32596e-07
1.86739e-06
-8.17059e-09
-1.44286e-07
1.94912e-06
-9.36492e-09
-1.57033e-07
2.03839e-06
-1.07802e-08
-1.70945e-07
2.13597e-06
-1.24729e-08
-1.8614e-07
2.24271e-06
-1.45129e-08
-2.02742e-07
2.35954e-06
-1.69805e-08
-2.20856e-07
2.48752e-06
-1.99672e-08
-2.40576e-07
2.62777e-06
-2.35837e-08
-2.62e-07
2.78156e-06
-2.796e-08
-2.85224e-07
2.95025e-06
-3.32426e-08
-3.10321e-07
3.13531e-06
-3.95923e-08
-3.37338e-07
3.33832e-06
-4.71821e-08
-3.66303e-07
3.56094e-06
-5.61836e-08
-3.97206e-07
3.80487e-06
-6.67359e-08
-4.29976e-07
4.07177e-06
-7.89039e-08
-4.6445e-07
4.36314e-06
-9.26181e-08
-5.00336e-07
4.68016e-06
-1.07611e-07
-5.37201e-07
-1.233e-07
-5.7441e-07
1.13319e-06
-7.80278e-10
-3.1281e-08
1.1498e-06
-8.68701e-10
-3.38818e-08
1.1678e-06
-9.67832e-10
-3.67002e-08
1.18732e-06
-1.07751e-09
-3.9755e-08
1.20849e-06
-1.19892e-09
-4.30818e-08
1.23147e-06
-1.33442e-09
-4.67213e-08
1.25641e-06
-1.48623e-09
-5.07029e-08
1.28349e-06
-1.65642e-09
-5.5048e-08
1.3129e-06
-1.84746e-09
-5.97801e-08
1.34486e-06
-2.06322e-09
-6.49353e-08
1.37959e-06
-2.30896e-09
-7.05579e-08
1.41735e-06
-2.5902e-09
-7.66855e-08
1.4584e-06
-2.91434e-09
-8.33567e-08
1.50307e-06
-3.29263e-09
-9.06184e-08
1.55166e-06
-3.73995e-09
-9.85244e-08
1.60457e-06
-4.2748e-09
-1.07141e-07
1.6622e-06
-4.91937e-09
-1.16548e-07
1.725e-06
-5.69736e-09
-1.2682e-07
1.79347e-06
-6.6341e-09
-1.38024e-07
1.86816e-06
-7.76038e-09
-1.50233e-07
1.94968e-06
-9.11763e-09
-1.63543e-07
2.0387e-06
-1.07617e-08
-1.7807e-07
2.13598e-06
-1.27652e-08
-1.9394e-07
2.24235e-06
-1.522e-08
-2.11285e-07
2.35874e-06
-1.82368e-08
-2.30227e-07
2.48616e-06
-2.19481e-08
-2.50873e-07
2.62574e-06
-2.65134e-08
-2.73329e-07
2.77871e-06
-3.21204e-08
-2.97699e-07
2.94644e-06
-3.89852e-08
-3.24074e-07
3.1304e-06
-4.73486e-08
-3.5252e-07
3.33216e-06
-5.74714e-08
-3.83085e-07
3.55342e-06
-6.96142e-08
-4.15797e-07
3.79595e-06
-8.40018e-08
-4.50628e-07
4.06152e-06
-1.00768e-07
-4.87478e-07
4.3518e-06
-1.19879e-07
-5.26112e-07
4.66824e-06
-1.41021e-07
-5.6612e-07
-1.63433e-07
-6.06869e-07
1.13326e-06
-3.43347e-10
-3.1368e-08
1.14986e-06
-4.05808e-10
-3.39766e-08
1.16785e-06
-4.76662e-10
-3.68029e-08
1.18736e-06
-5.54871e-10
-3.98696e-08
1.20852e-06
-6.4055e-10
-4.32157e-08
1.23148e-06
-7.34934e-10
-4.68796e-08
1.2564e-06
-8.39857e-10
-5.08879e-08
1.28346e-06
-9.5799e-10
-5.52593e-08
1.31286e-06
-1.09263e-09
-6.00147e-08
1.34479e-06
-1.24838e-09
-6.51879e-08
1.37948e-06
-1.43109e-09
-7.08226e-08
1.4172e-06
-1.64737e-09
-7.69617e-08
1.4582e-06
-1.90616e-09
-8.3646e-08
1.50279e-06
-2.22008e-09
-9.09196e-08
1.55131e-06
-2.60515e-09
-9.88393e-08
1.60411e-06
-3.08109e-09
-1.07483e-07
1.66162e-06
-3.67192e-09
-1.16941e-07
1.72427e-06
-4.40548e-09
-1.27289e-07
1.79257e-06
-5.31439e-09
-1.38589e-07
1.86705e-06
-6.43831e-09
-1.50906e-07
1.94832e-06
-7.82875e-09
-1.64336e-07
2.03703e-06
-9.55037e-09
-1.78993e-07
2.13392e-06
-1.16866e-08
-1.95001e-07
2.23981e-06
-1.43461e-08
-2.125e-07
2.3556e-06
-1.76629e-08
-2.31621e-07
2.48228e-06
-2.18021e-08
-2.52489e-07
2.62098e-06
-2.69646e-08
-2.75223e-07
2.77288e-06
-3.33879e-08
-2.9994e-07
2.93934e-06
-4.13494e-08
-3.26755e-07
3.1218e-06
-5.11632e-08
-3.55765e-07
3.32186e-06
-6.31736e-08
-3.87055e-07
3.54125e-06
-7.77347e-08
-4.20692e-07
3.7818e-06
-9.51747e-08
-4.56714e-07
4.04544e-06
-1.15734e-07
-4.9508e-07
4.33408e-06
-1.39471e-07
-5.35622e-07
4.64952e-06
-1.66121e-07
-5.77996e-07
-1.94895e-07
-6.21606e-07
1.13322e-06
1.80362e-11
-3.11024e-08
1.14981e-06
-2.24706e-11
-3.36956e-08
1.16779e-06
-6.80673e-11
-3.65083e-08
1.18729e-06
-1.17573e-10
-3.95663e-08
1.20844e-06
-1.70637e-10
-4.29038e-08
1.2314e-06
-2.27763e-10
-4.65509e-08
1.25631e-06
-2.90875e-10
-5.05326e-08
1.28336e-06
-3.63145e-10
-5.48707e-08
1.31273e-06
-4.4861e-10
-5.95879e-08
1.34464e-06
-5.52431e-10
-6.47165e-08
1.37931e-06
-6.80538e-10
-7.0301e-08
1.41698e-06
-8.40072e-10
-7.63868e-08
1.45794e-06
-1.04077e-09
-8.30129e-08
1.50247e-06
-1.29579e-09
-9.02211e-08
1.55091e-06
-1.62116e-09
-9.80707e-08
1.60361e-06
-2.03637e-09
-1.06647e-07
1.66099e-06
-2.56534e-09
-1.16042e-07
1.7235e-06
-3.23776e-09
-1.26338e-07
1.79161e-06
-4.0905e-09
-1.376e-07
1.86587e-06
-5.16893e-09
-1.49893e-07
1.94686e-06
-6.5311e-09
-1.63307e-07
2.03522e-06
-8.25048e-09
-1.77946e-07
2.13167e-06
-1.04201e-08
-1.93933e-07
2.237e-06
-1.31559e-08
-2.1141e-07
2.3521e-06
-1.6609e-08
-2.30522e-07
2.47793e-06
-2.09672e-08
-2.51417e-07
2.61557e-06
-2.64585e-08
-2.74225e-07
2.76619e-06
-3.33575e-08
-2.99084e-07
2.93109e-06
-4.19893e-08
-3.26139e-07
3.11172e-06
-5.2728e-08
-3.55535e-07
3.30966e-06
-6.59927e-08
-3.87412e-07
3.52666e-06
-8.22294e-08
-4.219e-07
3.76465e-06
-1.01879e-07
-4.59122e-07
4.02569e-06
-1.25317e-07
-4.99134e-07
4.31198e-06
-1.52749e-07
-5.41883e-07
4.62575e-06
-1.84059e-07
-5.87165e-07
-2.1858e-07
-6.34497e-07
1.13319e-06
2.99473e-10
-3.08832e-08
1.14977e-06
2.78376e-10
-3.34721e-08
1.16775e-06
2.5515e-10
-3.62826e-08
1.18725e-06
2.31623e-10
-3.93409e-08
1.2084e-06
2.08316e-10
-4.26738e-08
1.23134e-06
1.84401e-10
-4.63055e-08
1.25625e-06
1.57506e-10
-5.02622e-08
1.28329e-06
1.24273e-10
-5.45694e-08
1.31265e-06
8.04735e-11
-5.92535e-08
1.34453e-06
2.10407e-11
-6.43488e-08
1.37917e-06
-5.96366e-11
-6.99002e-08
1.41681e-06
-1.68823e-10
-7.5951e-08
1.45772e-06
-3.16372e-10
-8.25383e-08
1.5022e-06
-5.15228e-10
-8.97056e-08
1.55056e-06
-7.80715e-10
-9.75145e-08
1.60317e-06
-1.13065e-09
-1.06051e-07
1.66043e-06
-1.58739e-09
-1.15406e-07
1.72278e-06
-2.18006e-09
-1.25663e-07
1.79071e-06
-2.94669e-09
-1.36898e-07
1.86473e-06
-3.93562e-09
-1.49179e-07
1.94542e-06
-5.20804e-09
-1.62593e-07
2.0334e-06
-6.83949e-09
-1.77241e-07
2.12938e-06
-8.92629e-09
-1.93249e-07
2.23411e-06
-1.15912e-08
-2.10757e-07
2.34845e-06
-1.49895e-08
-2.29917e-07
2.47334e-06
-1.93175e-08
-2.50898e-07
2.6098e-06
-2.48161e-08
-2.73859e-07
2.75897e-06
-3.17798e-08
-2.98967e-07
2.92212e-06
-4.05614e-08
-3.26404e-07
3.10065e-06
-5.15745e-08
-3.56372e-07
3.29612e-06
-6.52924e-08
-3.89086e-07
3.51029e-06
-8.22384e-08
-4.24758e-07
3.74514e-06
-1.0296e-07
-4.63619e-07
4.0029e-06
-1.27973e-07
-5.05881e-07
4.28602e-06
-1.57668e-07
-5.5169e-07
4.59721e-06
-1.92156e-07
-6.01044e-07
-2.31037e-07
-6.53678e-07
1.13317e-06
5.53386e-10
-3.08099e-08
1.14975e-06
5.56103e-10
-3.3413e-08
1.16773e-06
5.5976e-10
-3.6238e-08
1.18723e-06
5.66139e-10
-3.93073e-08
1.20838e-06
5.7581e-10
-4.26451e-08
1.23132e-06
5.87799e-10
-4.62767e-08
1.25622e-06
5.99354e-10
-5.02291e-08
1.28325e-06
6.07235e-10
-5.45298e-08
1.3126e-06
6.07771e-10
-5.92094e-08
1.34447e-06
5.96707e-10
-6.43045e-08
1.37908e-06
5.68658e-10
-6.9857e-08
1.41669e-06
5.16719e-10
-7.59049e-08
1.45756e-06
4.31957e-10
-8.24867e-08
1.50198e-06
3.03142e-10
-8.9653e-08
1.55027e-06
1.17975e-10
-9.74728e-08
1.60279e-06
-1.41022e-10
-1.0603e-07
1.65993e-06
-4.93385e-10
-1.15405e-07
1.72214e-06
-9.63936e-10
-1.25683e-07
1.78988e-06
-1.58953e-09
-1.36945e-07
1.86366e-06
-2.41696e-09
-1.49269e-07
1.94405e-06
-3.50628e-09
-1.62745e-07
2.03166e-06
-4.93113e-09
-1.77476e-07
2.12715e-06
-6.78511e-09
-1.93591e-07
2.23127e-06
-9.18586e-09
-2.11228e-07
2.34483e-06
-1.22835e-08
-2.30552e-07
2.46874e-06
-1.62683e-08
-2.51749e-07
2.60397e-06
-2.13762e-08
-2.75007e-07
2.75162e-06
-2.78989e-08
-3.00536e-07
2.91291e-06
-3.61909e-08
-3.2856e-07
3.08918e-06
-4.66763e-08
-3.59353e-07
3.28196e-06
-5.9851e-08
-3.93201e-07
3.49298e-06
-7.62831e-08
-4.30429e-07
3.72427e-06
-9.65947e-08
-4.71417e-07
3.97815e-06
-1.21421e-07
-5.1659e-07
4.25734e-06
-1.51333e-07
-5.66368e-07
4.56496e-06
-1.86705e-07
-6.21072e-07
-2.27497e-07
-6.80779e-07
1.13317e-06
8.34692e-10
-3.08739e-08
1.14975e-06
8.7203e-10
-3.35131e-08
1.16773e-06
9.13584e-10
-3.63723e-08
1.18723e-06
9.59967e-10
-3.94655e-08
1.20838e-06
1.01237e-09
-4.28214e-08
1.23133e-06
1.06989e-09
-4.64715e-08
1.25623e-06
1.12968e-09
-5.04416e-08
1.28325e-06
1.18915e-09
-5.47603e-08
1.31259e-06
1.24612e-09
-5.94631e-08
1.34444e-06
1.29765e-09
-6.45874e-08
1.37904e-06
1.33843e-09
-7.01694e-08
1.41662e-06
1.36222e-09
-7.62411e-08
1.45745e-06
1.36192e-09
-8.28459e-08
1.50182e-06
1.32984e-09
-9.00446e-08
1.55005e-06
1.25754e-09
-9.79173e-08
1.60249e-06
1.1327e-09
-1.06545e-07
1.65954e-06
9.3946e-10
-1.15999e-07
1.72162e-06
6.5452e-10
-1.26357e-07
1.78919e-06
2.47299e-10
-1.37703e-07
1.86275e-06
-3.26857e-10
-1.50126e-07
1.94286e-06
-1.12094e-09
-1.63721e-07
2.03011e-06
-2.19707e-09
-1.78601e-07
2.12514e-06
-3.63946e-09
-1.949e-07
2.22868e-06
-5.55214e-09
-2.12759e-07
2.3415e-06
-8.06749e-09
-2.32354e-07
2.46447e-06
-1.13552e-08
-2.53885e-07
2.59852e-06
-1.56246e-08
-2.77578e-07
2.7447e-06
-2.11394e-08
-3.03684e-07
2.90416e-06
-2.82271e-08
-3.32474e-07
3.07818e-06
-3.7286e-08
-3.64291e-07
3.26825e-06
-4.87915e-08
-3.9951e-07
3.47604e-06
-6.33047e-08
-4.38582e-07
3.70357e-06
-8.14636e-08
-4.82079e-07
3.95323e-06
-1.03962e-07
-5.30692e-07
4.22789e-06
-1.31497e-07
-5.8518e-07
4.53107e-06
-1.64674e-07
-6.46305e-07
-2.03818e-07
-7.14678e-07
1.13319e-06
1.14208e-09
-3.0987e-08
1.14977e-06
1.22468e-09
-3.36684e-08
1.16776e-06
1.31458e-09
-3.65665e-08
1.18727e-06
1.41009e-09
-3.96873e-08
1.20842e-06
1.51364e-09
-4.30668e-08
1.23137e-06
1.62479e-09
-4.67409e-08
1.25627e-06
1.74099e-09
-5.07328e-08
1.28329e-06
1.86089e-09
-5.50737e-08
1.31262e-06
1.98522e-09
-5.98051e-08
1.34447e-06
2.11333e-09
-6.49672e-08
1.37906e-06
2.23991e-09
-7.05917e-08
1.41662e-06
2.35917e-09
-7.67059e-08
1.45742e-06
2.46651e-09
-8.33584e-08
1.50176e-06
2.56012e-09
-9.06192e-08
1.54995e-06
2.63632e-09
-9.85717e-08
1.60234e-06
2.68634e-09
-1.0729e-07
1.65931e-06
2.69824e-09
-1.16835e-07
1.72129e-06
2.65327e-09
-1.27286e-07
1.78872e-06
2.52784e-09
-1.38726e-07
1.86211e-06
2.28846e-09
-1.51257e-07
1.94199e-06
1.89298e-09
-1.64981e-07
2.02893e-06
1.29104e-09
-1.80023e-07
2.12358e-06
4.15486e-10
-1.96522e-07
2.22662e-06
-8.04712e-10
-2.14632e-07
2.33881e-06
-2.48251e-09
-2.34532e-07
2.46097e-06
-4.75264e-09
-2.56423e-07
2.59399e-06
-7.78398e-09
-2.80568e-07
2.73887e-06
-1.17788e-08
-3.07255e-07
2.89669e-06
-1.70117e-08
-3.36806e-07
3.0687e-06
-2.38143e-08
-3.69619e-07
3.25627e-06
-3.25915e-08
-4.0617e-07
3.46106e-06
-4.38352e-08
-4.47055e-07
3.685e-06
-5.81185e-08
-4.93043e-07
3.93051e-06
-7.61007e-08
-5.45128e-07
4.20055e-06
-9.84992e-08
-6.04456e-07
4.49887e-06
-1.26041e-07
-6.72322e-07
-1.59342e-07
-7.50037e-07
1.1331e-06
1.29494e-09
-3.08113e-08
1.14969e-06
1.41123e-09
-3.34875e-08
1.16769e-06
1.53672e-09
-3.63771e-08
1.18721e-06
1.66676e-09
-3.94836e-08
1.20837e-06
1.80503e-09
-4.28466e-08
1.23133e-06
1.95177e-09
-4.65007e-08
1.25624e-06
2.10465e-09
-5.04662e-08
1.28327e-06
2.26381e-09
-5.47773e-08
1.3126e-06
2.43385e-09
-5.94801e-08
1.34445e-06
2.6173e-09
-6.46202e-08
1.37904e-06
2.80905e-09
-7.02277e-08
1.4166e-06
3.00291e-09
-7.6328e-08
1.4574e-06
3.19588e-09
-8.29689e-08
1.50173e-06
3.39115e-09
-9.02167e-08
1.5499e-06
3.59064e-09
-9.81546e-08
1.60226e-06
3.78969e-09
-1.06849e-07
1.6592e-06
3.97992e-09
-1.16361e-07
1.72112e-06
4.14839e-09
-1.26766e-07
1.78848e-06
4.28024e-09
-1.38151e-07
1.86175e-06
4.35313e-09
-1.50626e-07
1.94147e-06
4.3411e-09
-1.64304e-07
2.02821e-06
4.2119e-09
-1.79315e-07
2.12259e-06