/*--------------------------------*- C++ -*----------------------------------*\
| =========                 |                                                 |
| \\      /  F ield         | OpenFOAM: The Open Source CFD Toolbox           |
|  \\    /   O peration     | Version:  2.3.1                                 |
|   \\  /    A nd           | Web:      www.OpenFOAM.org                      |
|    \\/     M anipulation  |                                                 |
\*---------------------------------------------------------------------------*/
FoamFile
{
    version     2.0;
    format      ascii;
    class       volScalarField;
    location    "5";
    object      Sed;
}
// * * * * * * * * * * * * * * * * * * * * * * * * * * * * * * * * * * * * * //

dimensions      [0 0 0 0 0 0 0];

internalField   nonuniform List<scalar> 
37530
(
9.62395e-166
1.53068e-167
2.41866e-169
3.8164e-171
6.01797e-173
9.48001e-175
1.49174e-176
2.34573e-178
3.68856e-180
5.80439e-182
9.14731e-184
1.44467e-185
2.28817e-187
3.63729e-189
5.80785e-191
9.32443e-193
1.50686e-194
2.45409e-196
4.03299e-198
6.69675e-200
1.12515e-201
1.91562e-203
3.31004e-205
5.81427e-207
1.04003e-208
1.89785e-210
3.53976e-212
6.76156e-214
1.32554e-215
2.67274e-217
5.55548e-219
1.19315e-220
2.65389e-222
6.12741e-224
1.47165e-225
3.68375e-227
9.6251e-229
2.47631e-163
3.96696e-165
6.30636e-167
1.00022e-168
1.58495e-170
2.50898e-172
3.96691e-174
6.26555e-176
9.89132e-178
1.5619e-179
2.46879e-181
3.90895e-183
6.20419e-185
9.87801e-187
1.57891e-188
2.53593e-190
4.09679e-192
6.66452e-194
1.09305e-195
1.80976e-197
3.02908e-199
5.13257e-201
8.81763e-203
1.53834e-204
2.72999e-206
4.93656e-208
9.11239e-210
1.72033e-211
3.32834e-213
6.61281e-215
1.35215e-216
2.85181e-218
6.21807e-220
1.40482e-221
3.29586e-223
8.04629e-225
2.04791e-226
1.31808e-161
2.12765e-163
3.40604e-165
5.43592e-167
8.66449e-169
1.37956e-170
2.19376e-172
3.48421e-174
5.52913e-176
8.77263e-178
1.39268e-179
2.21384e-181
3.52642e-183
5.63276e-185
9.02895e-187
1.45358e-188
2.35255e-190
3.8317e-192
6.28782e-194
1.0409e-195
1.74061e-197
2.94435e-199
5.04571e-201
8.77363e-203
1.55047e-204
2.78939e-206
5.11771e-208
9.59308e-210
1.84072e-211
3.6227e-213
7.32814e-215
1.52689e-216
3.28425e-218
7.30903e-220
1.68675e-221
4.0453e-223
1.0103e-224
1.73222e-160
2.81827e-162
4.54586e-164
7.3071e-166
1.17271e-167
1.87975e-169
3.00896e-171
4.80987e-173
7.6804e-175
1.2258e-176
1.95684e-178
3.12699e-180
5.00565e-182
8.03289e-184
1.29325e-185
2.09046e-187
3.39575e-189
5.5488e-191
9.13084e-193
1.51494e-194
2.53754e-196
4.29703e-198
7.36712e-200
1.28076e-201
2.26139e-203
4.06199e-205
7.43542e-207
1.38948e-208
2.65573e-210
5.20168e-212
1.04618e-213
2.16512e-215
4.62078e-217
1.01924e-218
2.32889e-220
5.52467e-222
1.36365e-223
6.30439e-160
1.03288e-161
1.67744e-163
2.71435e-165
4.38473e-167
7.07362e-169
1.13949e-170
1.83289e-172
2.94464e-174
4.72757e-176
7.5904e-178
1.21968e-179
1.96295e-181
3.16648e-183
5.12349e-185
8.32185e-187
1.35806e-188
2.22885e-190
3.68279e-192
6.13358e-194
1.03096e-195
1.75127e-197
3.01071e-199
5.24625e-201
9.28067e-203
1.66944e-204
3.05888e-206
5.71894e-208
1.09301e-209
2.13951e-211
4.29784e-213
8.87832e-215
1.89015e-216
4.15647e-218
9.46279e-220
2.23562e-221
5.49409e-223
9.81654e-160
1.61267e-161
2.626e-163
4.26036e-165
6.89988e-167
1.11596e-168
1.80223e-170
2.90611e-172
4.68022e-174
7.53189e-176
1.21209e-177
1.95207e-179
3.14855e-181
5.08978e-183
8.25243e-185
1.34306e-186
2.19593e-188
3.61048e-190
5.9758e-192
9.96814e-194
1.67789e-195
2.8538e-197
4.91148e-199
8.56588e-201
1.51628e-202
2.72854e-204
4.99979e-206
9.34528e-208
1.78496e-209
3.49038e-211
7.00123e-213
1.44351e-214
3.06579e-216
6.7224e-218
1.52544e-219
3.59111e-221
8.79318e-223
9.81636e-160
1.61265e-161
2.62599e-163
4.26042e-165
6.90009e-167
1.11601e-168
1.80233e-170
2.90629e-172
4.6805e-174
7.53234e-176
1.21216e-177
1.95214e-179
3.14857e-181
5.08961e-183
8.25169e-185
1.34285e-186
2.19538e-188
3.60915e-190
5.97265e-192
9.9609e-194
1.67625e-195
2.85013e-197
4.90323e-199
8.54729e-201
1.51205e-202
2.71883e-204
4.97725e-206
9.29228e-208
1.77234e-209
3.45988e-211
6.9263e-213
1.42477e-214
3.01803e-216
6.59824e-218
1.49252e-219
3.50209e-221
8.54809e-223
6.30277e-160
1.03264e-161
1.67711e-163
2.71395e-165
4.38431e-167
7.0733e-169
1.13949e-170
1.83292e-172
2.94473e-174
4.72771e-176
7.59048e-178
1.21963e-179
1.96271e-181
3.16566e-183
5.12127e-185
8.31639e-187
1.35678e-188
2.22592e-190
3.67614e-192
6.11869e-194
1.02765e-195
1.74392e-197
2.99435e-199
5.2096e-201
9.19771e-203
1.65045e-204
3.01488e-206
5.61568e-208
1.06843e-209
2.0801e-211
4.15176e-213
8.51232e-215
1.7966e-216
3.91229e-218
8.81183e-220
2.05838e-221
5.00158e-223
1.73235e-160
2.81853e-162
4.54651e-164
7.30866e-166
1.17306e-167
1.88045e-169
3.01027e-171
4.81214e-173
7.68411e-175
1.22637e-176
1.95767e-178
3.12802e-180
5.00649e-182
8.03239e-184
1.29278e-185
2.08889e-187
3.39152e-189
5.53834e-191
9.10615e-193
1.50927e-194
2.52475e-196
4.26842e-198
7.30312e-200
1.26637e-201
2.22877e-203
3.98724e-205
7.26212e-207
1.34878e-208
2.5588e-210
4.96709e-212
9.88407e-214
2.02012e-215
4.24934e-217
9.22049e-219
2.06895e-220
4.81394e-222
1.16509e-223
1.31866e-161
2.1286e-163
3.40775e-165
5.43909e-167
8.67039e-169
1.38064e-170
2.19566e-172
3.48738e-174
5.5342e-176
8.78039e-178
1.39379e-179
2.21527e-181
3.52782e-183
5.63302e-185
9.02514e-187
1.45211e-188
2.34838e-190
3.8212e-192
6.26283e-194
1.03515e-195
1.7276e-197
2.91523e-199
4.98059e-201
8.62744e-203
1.51743e-204
2.71406e-206
4.94385e-208
9.18597e-210
1.74385e-211
3.38812e-213
6.74909e-215
1.38099e-216
2.90852e-218
6.3191e-220
1.41972e-221
3.30753e-223
8.01558e-225
2.4779e-163
3.96956e-165
6.31086e-167
1.00102e-168
1.58641e-170
2.51161e-172
3.97145e-174
6.27304e-176
9.9031e-178
1.56366e-179
2.47122e-181
3.91185e-183
6.20648e-185
9.87654e-187
1.57759e-188
2.53159e-190
4.08523e-192
6.63627e-194
1.08646e-195
1.79477e-197
2.99547e-199
5.05758e-201
8.6503e-203
1.50081e-204
2.64502e-206
4.74191e-208
8.66055e-210
1.61406e-211
3.07429e-213
5.99518e-215
1.19926e-216
2.46487e-218
5.2152e-220
1.1383e-221
2.56903e-223
6.01103e-225
1.46263e-226
9.62999e-166
1.53174e-167
2.42056e-169
3.81989e-171
6.02434e-173
9.49135e-175
1.49367e-176
2.34885e-178
3.69333e-180
5.81121e-182
9.15607e-184
1.44554e-185
2.28835e-187
3.63496e-189
5.79864e-191
9.29846e-193
1.50038e-194
2.43881e-196
3.99807e-198
6.61838e-200
1.10771e-201
1.87688e-203
3.22374e-205
5.62063e-207
9.96095e-209
1.79681e-210
3.30378e-212
6.20128e-214
1.19004e-215
2.33894e-217
4.71734e-219
9.77918e-221
2.08724e-222
4.59859e-224
1.05051e-225
2.49234e-227
6.15841e-229
8.04016e-164
1.28807e-165
2.0474e-167
3.24653e-169
5.14319e-171
8.13964e-173
1.28661e-174
2.03157e-176
3.20627e-178
5.06137e-180
7.99765e-182
1.26589e-183
2.00849e-185
3.19667e-187
5.10765e-189
8.20026e-191
1.32421e-192
2.15327e-194
3.53006e-196
5.84218e-198
9.77404e-200
1.65543e-201
2.84282e-203
4.95781e-205
8.79556e-207
1.59013e-208
2.93491e-210
5.54111e-212
1.07231e-213
2.13153e-215
4.36185e-217
9.20983e-219
2.01114e-220
4.55241e-222
1.07055e-223
2.62066e-225
6.68973e-227
1.72384e-161
2.78364e-163
4.45442e-165
7.10144e-167
1.13048e-168
1.7977e-170
2.85523e-172
4.5292e-174
7.17809e-176
1.1373e-177
1.8028e-179
2.86122e-181
4.54987e-183
7.25439e-185
1.16059e-186
1.86463e-188
3.01121e-190
4.89306e-192
8.00959e-194
1.32243e-195
2.2052e-197
3.71925e-199
6.35396e-201
1.10128e-202
1.93966e-204
3.4775e-206
6.35763e-208
1.18747e-209
2.27036e-211
4.4525e-213
8.97591e-215
1.86415e-216
3.99758e-218
8.87212e-220
2.04244e-221
4.88759e-223
1.21823e-224
8.49359e-160
1.38241e-161
2.2285e-163
3.57561e-165
5.72491e-167
9.15457e-169
1.46207e-170
2.33195e-172
3.71507e-174
5.91455e-176
9.41636e-178
1.50032e-179
2.39414e-181
3.82916e-183
6.14276e-185
9.89165e-187
1.60027e-188
2.6035e-190
4.26415e-192
7.03934e-194
1.17278e-195
1.97464e-197
3.36496e-199
5.81253e-201
1.01939e-202
1.81813e-204
3.30351e-206
6.126e-208
1.16158e-209
2.25657e-211
4.50062e-213
9.23526e-215
1.95409e-216
4.27311e-218
9.67913e-220
2.2761e-221
5.56856e-223
1.09854e-158
1.8022e-160
2.92763e-162
4.73126e-164
7.62658e-166
1.22751e-167
1.97305e-169
3.16688e-171
5.07629e-173
8.12921e-175
1.30139e-176
2.08427e-178
3.34209e-180
5.36948e-182
8.65012e-184
1.39836e-185
2.27032e-187
3.70528e-189
6.08507e-191
1.00672e-192
1.67993e-194
2.83134e-196
4.82649e-198
8.33428e-200
1.46012e-201
2.59957e-203
4.71142e-205
8.70772e-207
1.64422e-208
3.17799e-210
6.30013e-212
1.28369e-213
2.69416e-215
5.83735e-217
1.30867e-218
3.04269e-220
7.35337e-222
4.02704e-158
6.6526e-160
1.08808e-161
1.77009e-163
2.87173e-165
4.65136e-167
7.52303e-169
1.21493e-170
1.95923e-172
3.15604e-174
5.08132e-176
8.18295e-178
1.3191e-179
2.13018e-181
3.44865e-183
5.60159e-185
9.136e-187
1.49752e-188
2.46939e-190
4.10091e-192
6.86702e-194
1.16097e-195
1.98445e-197
3.43459e-199
6.02838e-201
1.07478e-202
1.94968e-204
3.60486e-206
6.80581e-208
1.31449e-209
2.60242e-211
5.29217e-213
1.1078e-214
2.39238e-216
5.34262e-218
1.23669e-219
2.97442e-221
6.31056e-158
1.04532e-159
1.71424e-161
2.79601e-163
4.54778e-165
7.3847e-167
1.19738e-168
1.93848e-170
3.13366e-172
5.0599e-174
8.16555e-176
1.31795e-177
2.12923e-179
3.44576e-181
5.59004e-183
9.09793e-185
1.48669e-186
2.44136e-188
4.03273e-190
6.70798e-192
1.12492e-193
1.90435e-195
3.25886e-197
5.64558e-199
9.91609e-201
1.76869e-202
3.20895e-204
5.93215e-206
1.11936e-207
2.15995e-209
4.27039e-211
8.66809e-213
1.81023e-214
3.8983e-216
8.67704e-218
2.00123e-219
4.79489e-221
6.31062e-158
1.04534e-159
1.71428e-161
2.7961e-163
4.54798e-165
7.38509e-167
1.19745e-168
1.93861e-170
3.13386e-172
5.06022e-174
8.16603e-176
1.31801e-177
2.12928e-179
3.44572e-181
5.5897e-183
9.09684e-185
1.48639e-186
2.44061e-188
4.03093e-190
6.70377e-192
1.12396e-193
1.90217e-195
3.25393e-197
5.63444e-199
9.89075e-201
1.76289e-202
3.19551e-204
5.90075e-206
1.11193e-207
2.14213e-209
4.22698e-211
8.56049e-213
1.78307e-214
3.82838e-216
8.49349e-218
1.95209e-219
4.66081e-221
4.02637e-158
6.6516e-160
1.08794e-161
1.76992e-163
2.87157e-165
4.65127e-167
7.52312e-169
1.21497e-170
1.95931e-172
3.15616e-174
5.08145e-176
8.18284e-178
1.31899e-179
2.12977e-181
3.44748e-183
5.59862e-185
9.12887e-187
1.49585e-188
2.46556e-190
4.09224e-192
6.84756e-194
1.15662e-195
1.97473e-197
3.41275e-199
5.97895e-201
1.06349e-202
1.92365e-204
3.5441e-206
6.66218e-208
1.28004e-209
2.51841e-211
5.08364e-213
1.05502e-214
2.25611e-216
4.98326e-218
1.13991e-219
2.7083e-221
1.09874e-158
1.80257e-160
2.92832e-162
4.73261e-164
7.62918e-166
1.228e-167
1.97393e-169
3.16838e-171
5.07875e-173
8.13308e-175
1.30197e-176
2.08502e-178
3.34287e-180
5.36971e-182
8.64827e-184
1.3976e-185
2.26809e-187
3.69952e-189
6.07112e-191
1.00347e-192
1.67249e-194
2.81453e-196
4.78866e-198
8.24893e-200
1.44075e-201
2.55528e-203
4.60915e-205
8.46889e-207
1.58771e-208
3.04227e-210
5.96877e-212
1.20129e-213
2.4852e-215
5.29631e-217
1.16552e-218
2.65553e-220
6.283e-222
8.49799e-160
1.38316e-161
2.2298e-163
3.5779e-165
5.72898e-167
9.16178e-169
1.46332e-170
2.33405e-172
3.71846e-174
5.91981e-176
9.42411e-178
1.50136e-179
2.39531e-181
3.8299e-183
6.1415e-185
9.8845e-187
1.59804e-188
2.59763e-190
4.24981e-192
7.00574e-194
1.1651e-195
1.95733e-197
3.32609e-199
5.72519e-201
9.9967e-203
1.77323e-204
3.20014e-206
5.88492e-208
1.10452e-209
2.11931e-211
4.16441e-213
8.39549e-215
1.73989e-216
3.71452e-218
8.18846e-220
1.86875e-221
4.4284e-223
1.7249e-161
2.78552e-163
4.45769e-165
7.10719e-167
1.1315e-168
1.79952e-170
2.85837e-172
4.53442e-174
7.1864e-176
1.13857e-177
1.8046e-179
2.86349e-181
4.55206e-183
7.25468e-185
1.15996e-186
1.8622e-188
3.00437e-190
4.87586e-192
7.96874e-194
1.31304e-195
2.18399e-197
3.67173e-199
6.24778e-201
1.07749e-202
1.88596e-204
3.35503e-206
6.07506e-208
1.12163e-209
2.1146e-211
4.07714e-213
8.05289e-215
1.63221e-216
3.40131e-218
7.30197e-220
1.61855e-221
3.71351e-223
8.84437e-225
8.04413e-164
1.2889e-165
2.04892e-167
3.24929e-169
5.14823e-171
8.14866e-173
1.28816e-174
2.03412e-176
3.21025e-178
5.06721e-180
8.00551e-182
1.26677e-183
2.00901e-185
3.19557e-187
5.10185e-189
8.18266e-191
1.31966e-192
2.14233e-194
3.50477e-196
5.78497e-198
9.64616e-200
1.62696e-201
2.77948e-203
4.81618e-205
8.47584e-207
1.51704e-208
2.76549e-210
5.14248e-212
9.76881e-214
1.89936e-215
3.78848e-217
7.76291e-219
1.63698e-220
3.55947e-222
7.99871e-224
1.8623e-225
4.5057e-227
2.39226e-162
3.85911e-164
6.17185e-166
9.8376e-168
1.56589e-169
2.4897e-171
3.95334e-173
6.2693e-175
9.93294e-177
1.57333e-178
2.49328e-180
3.95599e-182
6.28899e-184
1.00243e-185
1.60326e-187
2.57503e-189
4.15715e-191
6.7531e-193
1.10511e-194
1.82408e-196
3.0409e-198
5.12744e-200
8.75784e-202
1.51768e-203
2.67284e-205
4.79204e-207
8.76215e-209
1.63708e-210
3.13161e-212
6.1463e-214
1.24039e-215
2.57982e-217
5.54263e-219
1.23297e-220
2.84636e-222
6.83352e-224
1.70941e-225
4.56666e-160
7.42941e-162
1.19693e-163
1.91875e-165
3.06889e-167
4.90197e-169
7.82006e-171
1.24582e-172
1.98233e-174
3.15191e-176
5.01126e-178
7.97304e-180
1.27037e-181
2.02854e-183
3.24861e-185
5.2217e-187
8.43132e-189
1.36889e-190
2.23714e-192
3.68458e-194
6.12365e-196
1.0284e-197
1.74775e-199
3.01049e-201
5.26423e-203
9.36055e-205
1.69551e-206
3.1342e-208
5.92409e-210
1.14725e-211
2.28116e-213
4.66733e-215
9.84879e-217
2.14834e-218
4.85543e-220
1.13952e-221
2.7829e-223
2.1117e-158
3.46326e-160
5.62313e-162
9.07483e-164
1.45987e-165
2.34439e-167
3.75977e-169
6.02135e-171
9.63024e-173
1.53857e-174
2.45684e-176
3.92402e-178
6.27357e-180
1.00475e-181
1.61318e-183
2.5985e-185
4.20266e-187
6.83089e-189
1.1169e-190
1.83914e-192
3.05359e-194
5.11895e-196
8.67649e-198
1.48921e-199
2.59239e-201
4.58453e-203
8.25052e-205
1.51368e-206
2.8364e-208
5.43906e-210
1.06952e-211
2.16115e-213
4.49753e-215
9.6614e-217
2.14725e-218
4.94866e-220
1.18527e-221
2.70016e-157
4.46356e-159
7.3041e-161
1.18741e-162
1.92314e-164
3.10805e-166
5.01533e-168
8.08129e-170
1.30025e-171
2.0894e-173
3.35475e-175
5.38558e-177
8.65107e-179
1.39159e-180
2.24333e-182
3.62697e-184
5.88586e-186
9.59535e-188
1.57291e-189
2.59533e-191
4.3155e-193
7.24055e-195
1.22747e-196
2.10568e-198
3.66084e-200
6.46074e-202
1.15938e-203
2.1192e-205
3.95283e-207
7.53807e-209
1.4726e-210
2.95313e-212
6.09236e-214
1.29587e-215
2.84843e-217
6.48516e-219
1.53288e-220
1.00001e-156
1.66454e-158
2.74241e-160
4.48785e-162
7.31512e-164
1.18958e-165
1.93132e-167
3.13074e-169
5.06723e-171
8.19011e-173
1.32246e-174
2.13464e-176
3.447e-178
5.57279e-180
9.02729e-182
1.46633e-183
2.3902e-185
3.91318e-187
6.44042e-189
1.06666e-190
1.77971e-192
2.99516e-194
5.0912e-196
8.75332e-198
1.52453e-199
2.69403e-201
4.83828e-203
8.84598e-205
1.64948e-206
3.14269e-208
6.1299e-210
1.22655e-211
2.523e-213
5.34706e-215
1.17025e-216
2.6512e-218
6.23243e-220
1.57893e-156
2.6353e-158
4.35335e-160
7.14267e-162
1.16722e-163
1.90289e-165
3.09704e-167
5.03274e-169
8.16541e-171
1.32291e-172
2.14109e-174
3.46388e-176
5.60576e-178
9.08224e-180
1.47426e-181
2.39947e-183
3.91882e-185
6.42764e-187
1.05973e-188
1.758e-190
2.93765e-192
4.95066e-194
8.42519e-196
1.44997e-197
2.52728e-199
4.46822e-201
8.02625e-203
1.46729e-204
2.73469e-206
5.20569e-208
1.01403e-209
2.02531e-211
4.15629e-213
8.78323e-215
1.91578e-216
4.32357e-218
1.01219e-219
1.57899e-156
2.63541e-158
4.35355e-160
7.14306e-162
1.16729e-163
1.90302e-165
3.09727e-167
5.03311e-169
8.16603e-171
1.32301e-172
2.14124e-174
3.46408e-176
5.60598e-178
9.08232e-180
1.47422e-181
2.39927e-183
3.9182e-185
6.42602e-187
1.05933e-188
1.75704e-190
2.93543e-192
4.94558e-194
8.41363e-196
1.44735e-197
2.52131e-199
4.45457e-201
7.99478e-203
1.45998e-204
2.71749e-206
5.16473e-208
1.00413e-209
2.001e-211
4.09551e-213
8.62839e-215
1.87556e-216
4.21699e-218
9.83394e-220
9.9994e-157
1.66445e-158
2.7423e-160
4.48776e-162
7.31516e-164
1.18962e-165
1.93141e-167
3.13094e-169
5.06759e-171
8.19067e-173
1.32254e-174
2.13469e-176
3.44688e-178
5.5721e-180
9.02507e-182
1.46572e-183
2.38868e-185
3.90952e-187
6.43185e-189
1.06469e-190
1.77524e-192
2.98508e-194
5.06854e-196
8.70227e-198
1.51298e-199
2.6677e-201
4.77776e-203
8.70552e-205
1.61649e-206
3.06415e-208
5.94003e-210
1.17986e-211
2.40605e-213
5.04835e-215
1.09237e-216
2.44384e-218
5.66861e-220
2.70102e-157
4.46505e-159
7.30669e-161
1.18787e-162
1.92394e-164
3.10946e-166
5.01778e-168
8.08542e-170
1.30093e-171
2.09047e-173
3.35638e-175
5.38786e-177
8.6538e-179
1.39181e-180
2.24319e-182
3.62568e-184
5.88149e-186
9.58329e-188
1.56988e-189
2.58807e-191
4.29864e-193
7.20199e-195
1.21873e-196
2.08586e-198
3.61583e-200
6.35798e-202
1.13574e-203
2.06427e-205
3.82372e-207
7.23034e-209
1.3981e-210
2.76962e-212
5.6317e-214
1.17788e-215
2.53977e-217
5.65986e-219
1.30727e-220
2.11307e-158
3.46564e-160
5.62718e-162
9.08172e-164
1.46105e-165
2.34642e-167
3.76323e-169
6.02712e-171
9.63961e-173
1.54004e-174
2.45907e-176
3.92717e-178
6.27752e-180
1.00513e-181
1.61324e-183
2.59741e-185
4.19841e-187
6.81867e-189
1.11377e-190
1.83162e-192
3.03615e-194
5.07924e-196
8.58678e-198
1.46896e-199
2.54655e-201
4.48006e-203
8.01034e-205
1.45786e-206
2.70494e-208
5.12481e-210
9.93127e-212
1.97198e-213
4.0196e-215
8.42787e-217
1.82163e-218
4.06885e-220
9.41807e-222
4.56997e-160
7.43557e-162
1.198e-163
1.92059e-165
3.07207e-167
4.90748e-169
7.82947e-171
1.24739e-172
1.98484e-174
3.1558e-176
5.01698e-178
7.98078e-180
1.27127e-181
2.0292e-183
3.24802e-185
5.21729e-187
8.41695e-189
1.36503e-190
2.22764e-192
3.66225e-194
6.07248e-196
1.01683e-197
1.72184e-199
2.9525e-201
5.13376e-203
9.06439e-205
1.62752e-206
2.97607e-208
5.55067e-210
1.05757e-211
2.06177e-213
4.11967e-215
8.45189e-217
1.78379e-218
3.88092e-220
8.72432e-222
2.03185e-223
2.39379e-162
3.86236e-164
6.17765e-166
9.8478e-168
1.56769e-169
2.49285e-171
3.95873e-173
6.27819e-175
9.94704e-177
1.57547e-178
2.49631e-180
3.95983e-182
6.29274e-184
1.00251e-185
1.60229e-187
2.5712e-189
4.14626e-191
6.72551e-193
1.09853e-194
1.80889e-196
3.00651e-198
5.05023e-200
8.5865e-202
1.47965e-203
2.5877e-205
4.59923e-207
8.31941e-209
1.53382e-210
2.88663e-212
5.55409e-214
1.09431e-215
2.21156e-217
4.59261e-219
9.81855e-221
2.16551e-222
4.93853e-224
1.16767e-225
3.251e-161
5.27909e-163
8.49435e-165
1.36116e-166
2.17696e-168
3.477e-170
5.54552e-172
8.83154e-174
1.40472e-175
2.23269e-177
3.54863e-179
5.6443e-181
8.99075e-183
1.43526e-184
2.29787e-186
3.69249e-188
5.96054e-190
9.67522e-192
1.58094e-193
2.60353e-195
4.32669e-197
7.26616e-199
1.23497e-200
2.1276e-202
3.72146e-204
6.62014e-206
1.19985e-207
2.21977e-209
4.20017e-211
8.1452e-213
1.62239e-214
3.32668e-216
7.03845e-218
1.5402e-219
3.49397e-221
8.23481e-223
2.02049e-224
5.6837e-159
9.31042e-161
1.50986e-162
2.43413e-164
3.91216e-166
6.27672e-168
1.00562e-169
1.60878e-171
2.57005e-173
4.10112e-175
6.5408e-177
1.04337e-178
1.66591e-180
2.66442e-182
4.27177e-184
6.87058e-186
1.10945e-187
1.80029e-189
2.9385e-191
4.82993e-193
8.00425e-195
1.3392e-196
2.26536e-198
3.88019e-200
6.74031e-202
1.18943e-203
2.13592e-205
3.91026e-207
7.31185e-209
1.39931e-210
2.74647e-212
5.54058e-214
1.15143e-215
2.47075e-217
5.48701e-219
1.264e-220
3.0269e-222
2.5285e-157
4.17552e-159
6.82648e-161
1.1083e-162
1.79189e-164
2.89011e-166
4.65383e-168
7.48286e-170
1.20138e-171
1.92622e-173
3.08552e-175
4.94102e-177
7.91583e-179
1.26971e-180
2.04067e-182
3.28876e-184
5.31886e-186
8.63962e-188
1.41079e-189
2.31828e-191
3.838e-193
6.40957e-195
1.08127e-196
1.84526e-198
3.19057e-200
5.59851e-202
9.98625e-204
1.81395e-205
3.36156e-207
6.36774e-209
1.23547e-210
2.46032e-212
5.03989e-214
1.06438e-215
2.32286e-217
5.25043e-219
1.23196e-220
3.23137e-156
5.37829e-158
8.86273e-160
1.44967e-161
2.35985e-163
3.83019e-165
6.20464e-167
1.00351e-168
1.62051e-170
2.61301e-172
4.20838e-174
6.77335e-176
1.09021e-177
1.7562e-179
2.83358e-181
4.58283e-183
7.43543e-185
1.21117e-186
1.98249e-188
3.26393e-190
5.41086e-192
9.04286e-194
1.52556e-195
2.60164e-197
4.49176e-199
7.86364e-201
1.39825e-202
2.5296e-204
4.66448e-206
8.78319e-208
1.69218e-209
3.34249e-211
6.78343e-213
1.41756e-214
3.0573e-216
6.82089e-218
1.57785e-219
1.21528e-155
2.03661e-157
3.37896e-159
5.56364e-161
9.11472e-163
1.4885e-164
2.42573e-166
3.94641e-168
6.41e-170
1.03952e-171
1.68358e-173
2.7244e-175
4.40793e-177
7.13607e-179
1.15688e-180
1.87959e-182
3.06284e-184
5.00981e-186
8.23233e-188
1.3603e-189
2.26262e-191
3.7927e-193
6.41503e-195
1.09637e-196
1.8961e-198
3.3234e-200
5.91327e-202
1.06987e-203
1.97178e-205
3.70859e-207
7.13196e-209
1.40517e-210
2.84237e-212
5.91575e-214
1.26972e-215
2.81708e-217
6.47651e-219
1.93661e-155
3.25425e-157
5.4136e-159
8.93713e-161
1.46788e-162
2.40315e-164
3.92591e-166
6.40255e-168
1.04244e-169
1.69456e-171
2.75085e-173
4.4616e-175
7.23458e-177
1.17372e-178
1.90674e-180
3.10407e-182
5.06789e-184
8.30469e-186
1.36706e-187
2.26264e-189
3.76924e-191
6.32691e-193
1.07144e-194
1.83301e-196
3.17255e-198
5.56362e-200
9.90156e-202
1.79129e-203
3.29982e-205
6.20093e-207
1.1909e-208
2.34201e-210
4.72599e-212
9.80672e-214
2.09736e-215
4.63434e-217
1.06065e-218
1.93674e-155
3.25448e-157
5.414e-159
8.93783e-161
1.468e-162
2.40336e-164
3.92626e-166
6.40313e-168
1.04253e-169
1.6947e-171
2.75108e-173
4.46192e-175
7.23497e-177
1.17376e-178
1.90672e-180
3.1039e-182
5.06729e-184
8.30297e-186
1.36661e-187
2.26157e-189
3.7667e-191
6.32104e-193
1.07009e-194
1.82994e-196
3.16555e-198
5.54764e-200
9.86484e-202
1.78279e-203
3.27996e-205
6.15395e-207
1.17963e-208
2.31459e-210
4.6581e-212
9.63557e-214
2.05338e-215
4.51908e-217
1.02985e-218
1.21531e-155
2.03669e-157
3.37913e-159
5.564e-161
9.11542e-163
1.48863e-164
2.42598e-166
3.94684e-168
6.41073e-170
1.03964e-171
1.68374e-173
2.72459e-175
4.40802e-177
7.13567e-179
1.15669e-180
1.87901e-182
3.06127e-184
5.00587e-186
8.22287e-188
1.35809e-189
2.25753e-191
3.78113e-193
6.38883e-195
1.09044e-196
1.88267e-198
3.29284e-200
5.84327e-202
1.0537e-203
1.93403e-205
3.61934e-207
6.91796e-209
1.35303e-210
2.71306e-212
5.58898e-214
1.18549e-215
2.59546e-217
5.88102e-219
3.23283e-156
5.38082e-158
8.86705e-160
1.4504e-161
2.36109e-163
3.83228e-165
6.20814e-167
1.00409e-168
1.62146e-170
2.61452e-172
4.2107e-174
6.77671e-176
1.09065e-177
1.75667e-179
2.83381e-181
4.582e-183
7.43146e-185
1.20995e-186
1.97926e-188
3.25598e-190
5.39201e-192
8.99919e-194
1.51556e-195
2.5789e-197
4.44003e-199
7.74563e-201
1.37118e-202
2.46699e-204
4.51817e-206
8.43691e-208
1.60902e-209
3.13951e-211
6.27894e-213
1.28973e-214
2.72665e-216
5.94718e-218
1.34186e-219
2.53055e-157
4.17912e-159
6.83261e-161
1.10933e-162
1.7936e-164
2.893e-166
4.65867e-168
7.49086e-170
1.20268e-171
1.9283e-173
3.08871e-175
4.9457e-177
7.92217e-179
1.27045e-180
2.04126e-182
3.28839e-184
5.31544e-186
8.62801e-188
1.4076e-189
2.3103e-191
3.81897e-193
6.36541e-195
1.07116e-196
1.82225e-198
3.13824e-200
5.47906e-202
9.7119e-204
1.75037e-205
3.2125e-207
6.01352e-209
1.14998e-210
2.25037e-212
4.51437e-214
9.30122e-216
1.97231e-217
4.31413e-219
9.75928e-221
5.6889e-159
9.32022e-161
1.51156e-162
2.43699e-164
3.91701e-166
6.28495e-168
1.00701e-169
1.61109e-171
2.57378e-173
4.10699e-175
6.54966e-177
1.04463e-178
1.66756e-180
2.66621e-182
4.27279e-184
6.86828e-186
1.10825e-187
1.79656e-189
2.92868e-191
4.80592e-193
7.94785e-195
1.32624e-196
2.23588e-198
3.81338e-200
6.58868e-202
1.15483e-203
2.05632e-205
3.72515e-207
6.87573e-209
1.295e-210
2.49272e-212
4.9116e-214
9.92317e-216
2.05936e-217
4.3985e-219
9.68928e-221
2.20675e-222
3.25394e-161
5.28498e-163
8.50459e-165
1.3629e-166
2.17994e-168
3.48212e-170
5.55423e-172
8.84605e-174
1.40707e-175
2.23639e-177
3.55419e-179
5.6522e-181
9.00095e-183
1.43634e-184
2.29842e-186
3.69089e-188
5.95271e-190
9.65107e-192
1.57454e-193
2.58778e-195
4.28958e-197
7.18061e-199
1.21543e-200
2.08307e-202
3.61968e-204
6.38598e-206
1.14548e-207
2.09204e-209
3.89594e-211
7.40895e-213
1.441e-214
2.87093e-216
5.86869e-218
1.23304e-219
2.66772e-221
5.95561e-223
1.37519e-224
2.2383e-160
3.65698e-162
5.91858e-164
9.5339e-166
1.53206e-167
2.45793e-169
3.93716e-171
6.29628e-173
1.00539e-174
1.60367e-176
2.55682e-178
4.07764e-180
6.50973e-182
1.04107e-183
1.66907e-185
2.68454e-187
4.3353e-189
7.03589e-191
1.14871e-192
1.88879e-194
3.13163e-196
5.24272e-198
8.87536e-200
1.52186e-201
2.64724e-203
4.67915e-205
8.41907e-207
1.54487e-208
2.8967e-210
5.5615e-212
1.09571e-213
2.22021e-215
4.63771e-217
1.00106e-218
2.2381e-220
5.19459e-222
1.25425e-223
3.73919e-158
6.1635e-160
1.00565e-161
1.6302e-163
2.63284e-165
4.24283e-167
6.82612e-169
1.09648e-170
1.75846e-172
2.81618e-174
4.50592e-176
7.20755e-178
1.15344e-179
1.84816e-181
2.96717e-183
4.77671e-185
7.71676e-187
1.25208e-188
2.04234e-190
3.35252e-192
5.54458e-194
9.25075e-196
1.5592e-197
2.65873e-199
4.59381e-201
8.05583e-203
1.43626e-204
2.60811e-206
4.83291e-208
9.15672e-210
1.77755e-211
3.54322e-213
7.2686e-215
1.53811e-216
3.36535e-218
7.63101e-220
1.79728e-221
1.63613e-156
2.71869e-158
4.4728e-160
7.30368e-162
1.18678e-163
1.92258e-165
3.10832e-167
5.01711e-169
8.08506e-171
1.3009e-172
2.09054e-174
3.35703e-176
5.39053e-178
8.66206e-180
1.394e-181
2.24848e-183
3.63775e-185
5.90805e-187
9.64047e-189
1.58202e-190
2.6137e-192
4.35257e-194
7.31569e-196
1.24279e-197
2.13714e-199
3.72603e-201
6.59731e-203
1.18837e-204
2.1817e-206
4.09e-208
7.84525e-210
1.54295e-211
3.11822e-213
6.49009e-215
1.3944e-216
3.09979e-218
7.14632e-220
2.11294e-155
3.53831e-157
5.86782e-159
9.65454e-161
1.57968e-162
2.5752e-164
4.1879e-166
6.79803e-168
1.10165e-169
1.78238e-171
2.87956e-173
4.64728e-175
7.49691e-177
1.20975e-178
1.95426e-180
3.16289e-182
5.13266e-184
8.35794e-186
1.36684e-187
2.24693e-189
3.71667e-191
6.19298e-193
1.04079e-194
1.76659e-196
3.03282e-198
5.27431e-200
9.30681e-202
1.66913e-203
3.04793e-205
5.67742e-207
1.08086e-208
2.10735e-210
4.21668e-212
8.67815e-214
1.84116e-215
4.03626e-217
9.16457e-219
8.11175e-155
1.36765e-156
2.28354e-158
3.78222e-160
6.22814e-162
1.02155e-163
1.67112e-165
2.72835e-167
4.44663e-169
7.23481e-171
1.1753e-172
1.90697e-174
3.09217e-176
5.01433e-178
8.13829e-180
1.32303e-181
2.15609e-183
3.52507e-185
5.78666e-187
9.5462e-189
1.58415e-190
2.64724e-192
4.46003e-194
7.58576e-196
1.30433e-197
2.2707e-199
4.0087e-201
7.18854e-203
1.31168e-204
2.43978e-206
4.63482e-208
9.01014e-210
1.79617e-211
3.67979e-213
7.76498e-215
1.6917e-216
3.81445e-218
1.30681e-154
2.20926e-156
3.69869e-158
6.1423e-160
1.01405e-161
1.66741e-163
2.73434e-165
4.47496e-167
7.31062e-169
1.19226e-170
1.94133e-172
3.15707e-174
5.13053e-176
8.33758e-178
1.35599e-179
2.20879e-181
3.60646e-183
5.90713e-185
9.71388e-187
1.60512e-188
2.66767e-190
4.46403e-192
7.53004e-194
1.28203e-195
2.2061e-197
3.84256e-199
6.78515e-201
1.21659e-202
2.21878e-204
4.12317e-206
7.82163e-208
1.51756e-209
3.01754e-211
6.16234e-213
1.29539e-214
2.80966e-216
6.30384e-218
1.30694e-154
2.20948e-156
3.69907e-158
6.14294e-160
1.01415e-161
1.66759e-163
2.73463e-165
4.47544e-167
7.31139e-169
1.19239e-170
1.94152e-172
3.15734e-174
5.13089e-176
8.33798e-178
1.35601e-179
2.20873e-181
3.60614e-183
5.90612e-185
9.71117e-187
1.60444e-188
2.66604e-190
4.46021e-192
7.52122e-194
1.28e-195
2.20148e-197
3.83201e-199
6.76094e-201
1.21101e-202
2.20578e-204
4.09262e-206
7.74887e-208
1.49998e-209
2.97436e-211
6.05443e-213
1.26792e-214
2.73837e-216
6.11517e-218
8.11268e-155
1.36782e-156
2.28386e-158
3.78279e-160
6.22911e-162
1.02171e-163
1.6714e-165
2.72881e-167
4.44738e-169
7.23596e-171
1.17547e-172
1.9072e-174
3.0924e-176
5.01436e-178
8.13754e-180
1.32273e-181
2.1552e-183
3.52271e-185
5.78081e-187
9.53224e-189
1.58089e-190
2.63975e-192
4.44298e-194
7.54703e-196
1.29554e-197
2.25071e-199
3.96299e-201
7.08331e-203
1.28723e-204
2.38231e-206
4.49794e-208
8.67914e-210
1.71478e-211
3.47599e-213
7.24476e-215
1.5562e-216
3.45415e-218
2.11417e-155
3.54045e-157
5.87146e-159
9.66063e-161
1.58069e-162
2.57687e-164
4.19066e-166
6.80256e-168
1.10238e-169
1.78354e-171
2.88137e-173
4.64997e-175
7.50064e-177
1.21021e-178
1.95466e-180
3.16277e-182
5.13078e-184
8.35118e-186
1.36493e-187
2.24206e-189
3.70489e-191
6.16531e-193
1.0344e-194
1.75197e-196
2.99949e-198
5.1983e-200
9.13274e-202
1.629e-203
2.95458e-205
5.45774e-207
1.02845e-208
1.98038e-210
3.90375e-212
7.89232e-214
1.63986e-215
3.50968e-217
7.75702e-219
1.63774e-156
2.72154e-158
4.47766e-160
7.31178e-162
1.18813e-163
1.92481e-165
3.11203e-167
5.02322e-169
8.09502e-171
1.3025e-172
2.09304e-174
3.3608e-176
5.39593e-178
8.66913e-180
1.39477e-181
2.24891e-183
3.63668e-185
5.90244e-187
9.62298e-189
1.57737e-190
2.60222e-192
4.32533e-194
7.25242e-196
1.22826e-197
2.10391e-199
3.65004e-201
6.42277e-203
1.148e-204
2.08737e-206
3.86691e-208
7.30994e-210
1.41238e-211
2.79391e-213
5.66858e-215
1.18188e-216
2.53766e-218
5.62475e-220
3.74344e-158
6.17147e-160
1.00702e-161
1.63251e-163
2.6367e-165
4.2493e-167
6.83695e-169
1.09828e-170
1.76139e-172
2.82086e-174
4.51319e-176
7.21841e-178
1.15498e-179
1.85014e-181
2.96928e-183
4.77778e-185
7.71346e-187
1.25044e-188
2.03725e-190
3.33903e-192
5.51129e-194
9.17168e-196
1.5408e-197
2.61642e-199
4.49691e-201
7.83363e-203
1.38503e-204
2.48901e-206
4.55286e-208
8.48927e-210
1.61596e-211
3.14507e-213
6.2684e-215
1.28155e-216
2.69236e-218
5.82364e-220
1.29982e-221
2.24092e-160
3.66209e-162
5.92736e-164
9.54869e-166
1.53455e-167
2.46217e-169
3.9443e-171
6.30816e-173
1.00732e-174
1.60674e-176
2.56155e-178
4.08461e-180
6.51938e-182
1.04227e-183
1.67023e-185
2.68478e-187
4.3322e-189
7.02335e-191
1.14505e-192
1.87934e-194
3.10869e-196
5.18883e-198
8.75044e-200
1.49289e-201
2.58014e-203
4.5234e-205
8.05546e-207
1.45924e-208
2.69267e-210
5.06854e-212
9.74659e-214
1.91749e-215
3.86534e-217
7.99653e-219
1.70061e-220
3.72464e-222
8.41856e-224
8.58125e-160
1.40956e-161
2.29301e-163
3.71127e-165
5.98998e-167
9.64954e-169
1.55179e-170
2.49107e-172
3.99212e-174
6.389e-176
1.02169e-177
1.63369e-179
2.61399e-181
4.18831e-183
6.72503e-185
1.0829e-186
1.7501e-188
2.84111e-190
4.63748e-192
7.61915e-194
1.26151e-195
2.10765e-197
3.55832e-199
6.08012e-201
1.05325e-202
1.85269e-204
3.31501e-206
6.04483e-208
1.12551e-209
2.14426e-211
4.18898e-213
8.41061e-215
1.73964e-216
3.71579e-218
8.21572e-220
1.88475e-221
4.49594e-223
1.40999e-157
2.33672e-159
3.83284e-161
6.2438e-163
1.0129e-164