/*--------------------------------*- C++ -*----------------------------------*\
| =========                 |                                                 |
| \\      /  F ield         | OpenFOAM: The Open Source CFD Toolbox           |
|  \\    /   O peration     | Version:  2.3.1                                 |
|   \\  /    A nd           | Web:      www.OpenFOAM.org                      |
|    \\/     M anipulation  |                                                 |
\*---------------------------------------------------------------------------*/
FoamFile
{
    version     2.0;
    format      ascii;
    class       volScalarField;
    location    "5";
    object      Sed_0;
}
// * * * * * * * * * * * * * * * * * * * * * * * * * * * * * * * * * * * * * //

dimensions      [0 0 0 0 0 0 0];

internalField   nonuniform List<scalar> 
37530
(
9.08998e-166
1.44454e-167
2.28117e-169
3.59763e-171
5.6701e-173
8.92716e-175
1.40395e-176
2.2064e-178
3.46746e-180
5.4533e-182
8.58898e-184
1.35569e-185
2.14592e-187
3.40907e-189
5.44002e-191
8.72834e-193
1.40963e-194
2.29427e-196
3.76792e-198
6.25258e-200
1.04985e-201
1.78624e-203
3.08445e-205
5.41438e-207
9.67836e-209
1.7649e-210
3.28947e-212
6.27898e-214
1.23004e-215
2.47837e-217
5.14768e-219
1.10474e-220
2.45543e-222
5.66504e-224
1.35961e-225
3.40087e-227
8.87986e-229
2.33998e-163
3.74537e-165
5.95029e-167
9.43253e-169
1.49394e-170
2.36368e-172
3.73509e-174
5.89601e-176
9.30254e-178
1.46808e-179
2.31914e-181
3.66985e-183
5.8212e-185
9.2626e-187
1.47962e-188
2.37496e-190
3.83431e-192
6.23352e-194
1.0217e-195
1.69055e-197
2.82772e-199
4.78825e-201
8.22072e-203
1.43326e-204
2.54179e-206
4.59311e-208
8.47254e-210
1.59841e-211
3.09024e-213
6.1353e-215
1.2536e-216
2.64199e-218
5.75632e-220
1.29953e-221
3.04661e-223
7.43239e-225
1.89032e-226
1.24587e-161
2.00936e-163
3.21456e-165
5.1276e-167
8.16901e-169
1.30001e-170
2.06614e-172
3.27965e-174
5.20151e-176
8.24801e-178
1.30863e-179
2.07903e-181
3.30972e-183
5.28345e-185
8.46383e-187
1.36175e-188
2.20253e-190
3.58506e-192
5.8793e-194
9.72645e-196
1.62541e-197
2.7477e-199
4.70565e-201
8.17693e-203
1.44406e-204
2.5962e-206
4.75999e-208
8.91633e-210
1.70966e-211
3.36234e-213
6.79653e-215
1.41508e-216
3.04151e-218
6.7638e-220
1.55977e-221
3.73801e-223
9.32877e-225
1.63732e-160
2.66157e-162
4.29025e-164
6.89252e-166
1.10563e-167
1.77134e-169
2.83392e-171
4.52753e-173
7.2254e-175
1.15251e-176
1.83877e-178
2.93662e-180
4.69814e-182
7.53493e-184
1.21235e-185
1.95847e-187
3.17934e-189
5.19187e-191
8.538e-193
1.41566e-194
2.36971e-196
4.01021e-198
6.87089e-200
1.19371e-201
2.10629e-203
3.78085e-205
6.91612e-207
1.29154e-208
2.46682e-210
4.82824e-212
9.70373e-214
2.00677e-215
4.27968e-217
9.43303e-219
2.15378e-220
5.10548e-222
1.25926e-223
5.95684e-160
9.75105e-162
1.58255e-163
2.55941e-165
4.13242e-167
6.66328e-169
1.07282e-170
1.72469e-172
2.76922e-174
4.44336e-176
7.12993e-178
1.14502e-179
1.84173e-181
2.96917e-183
4.80134e-185
7.79381e-187
1.27109e-188
2.08479e-190
3.44254e-192
5.72975e-194
9.62458e-196
1.63384e-197
2.807e-199
4.88807e-201
8.64132e-203
1.5534e-204
2.84434e-206
5.31419e-208
1.01495e-209
1.98531e-211
3.98522e-213
8.22657e-215
1.75011e-216
3.84569e-218
8.74874e-220
2.06538e-221
5.07195e-223
9.27299e-160
1.52206e-161
2.47679e-163
4.01611e-165
6.50112e-167
1.05094e-168
1.69634e-170
2.73384e-172
4.40024e-174
7.0772e-176
1.13826e-177
1.83209e-179
2.95331e-181
4.77135e-183
7.73147e-185
1.25751e-186
2.05476e-188
3.37622e-190
5.58447e-192
9.30933e-194
1.56598e-195
2.66172e-197
4.5779e-199
7.97887e-201
1.41143e-202
2.53818e-204
4.64785e-206
8.68152e-208
1.65703e-209
3.23795e-211
6.49024e-213
1.33718e-214
2.83788e-216
6.21806e-218
1.40994e-219
3.3167e-221
8.11511e-223
9.27283e-160
1.52204e-161
2.47679e-163
4.01617e-165
6.50132e-167
1.05099e-168
1.69643e-170
2.73401e-172
4.40051e-174
7.07762e-176
1.13832e-177
1.83216e-179
2.95333e-181
4.77119e-183
7.73078e-185
1.25731e-186
2.05425e-188
3.37497e-190
5.58153e-192
9.30258e-194
1.56445e-195
2.65829e-197
4.57022e-199
7.96156e-201
1.4075e-202
2.52916e-204
4.62689e-206
8.63229e-208
1.64532e-209
3.20965e-211
6.42076e-213
1.31982e-214
2.79365e-216
6.10313e-218
1.37948e-219
3.23438e-221
7.88856e-223
5.95532e-160
9.74874e-162
1.58223e-163
2.55903e-165
4.13203e-167
6.66299e-169
1.07282e-170
1.72473e-172
2.76931e-174
4.4435e-176
7.13003e-178
1.14498e-179
1.8415e-181
2.96841e-183
4.79927e-185
7.78872e-187
1.26989e-188
2.08205e-190
3.43634e-192
5.71586e-194
9.5937e-196
1.62698e-197
2.79175e-199
4.85393e-201
8.5641e-203
1.53573e-204
2.80343e-206
5.21825e-208
9.92129e-210
1.93019e-211
3.84976e-213
7.88738e-215
1.66346e-216
3.61966e-218
8.14648e-220
1.90148e-221
4.6167e-223
1.63744e-160
2.66182e-162
4.29087e-164
6.894e-166
1.10596e-167
1.77201e-169
2.83517e-171
4.52969e-173
7.22892e-175
1.15305e-176
1.83956e-178
2.9376e-180
4.69896e-182
7.5345e-184
1.21191e-185
1.95701e-187
3.1754e-189
5.18211e-191
8.51495e-193
1.41037e-194
2.35778e-196
3.98353e-198
6.81124e-200
1.18031e-201
2.07592e-203
3.7113e-205
6.75497e-207
1.25373e-208
2.3768e-210
4.61051e-212
9.16786e-214
1.87236e-215
3.93558e-217
8.53317e-219
1.91324e-220
4.44813e-222
1.07569e-223
1.24642e-161
2.01027e-163
3.21618e-165
5.1306e-167
8.17461e-169
1.30103e-170
2.06793e-172
3.28266e-174
5.20631e-176
8.25537e-178
1.30969e-179
2.08039e-181
3.31106e-183
5.28373e-185
8.46032e-187
1.36038e-188
2.19864e-190
3.57526e-192
5.85597e-194
9.67273e-196
1.61328e-197
2.72055e-199
4.64495e-201
8.04076e-203
1.4133e-204
2.52612e-206
4.59835e-208
8.53808e-210
1.61971e-211
3.14466e-213
6.25954e-215
1.27987e-216
2.69351e-218
5.84746e-220
1.31273e-221
3.05583e-223
7.39955e-225
2.3415e-163
3.74785e-165
5.95457e-167
9.44019e-169
1.49533e-170
2.36617e-172
3.7394e-174
5.90311e-176
9.3137e-178
1.46974e-179
2.32144e-181
3.67259e-183
5.82341e-185
9.26129e-187
1.4784e-188
2.37092e-190
3.82352e-192
6.20715e-194
1.01555e-195
1.67656e-197
2.79637e-199
4.71836e-201
8.06483e-203
1.39831e-204
2.46272e-206
4.4121e-208
8.05263e-210
1.49971e-211
2.85445e-213
5.56245e-215
1.11188e-216
2.28357e-218
4.82792e-220
1.05296e-221
2.37455e-223
5.55153e-225
1.34971e-226
9.09578e-166
1.44555e-167
2.28298e-169
3.60095e-171
5.67616e-173
8.93793e-175
1.40578e-176
2.20937e-178
3.47199e-180
5.45977e-182
8.5973e-184
1.35652e-185
2.14612e-187
3.40692e-189
5.43145e-191
8.70413e-193
1.40358e-194
2.28001e-196
3.73535e-198
6.17949e-200
1.03359e-201
1.75014e-203
3.00409e-205
5.23418e-207
9.2698e-209
1.67099e-210
3.07027e-212
5.75888e-214
1.10435e-215
2.16892e-217
4.37118e-219
9.05473e-221
1.93113e-222
4.25143e-224
9.70441e-226
2.30054e-227
5.67975e-229
7.59791e-164
1.21617e-165
1.93188e-167
3.06175e-169
4.84804e-171
7.66852e-173
1.21146e-174
1.91182e-176
3.01553e-178
4.75751e-180
7.51314e-182
1.1885e-183
1.88458e-185
2.99762e-187
4.78664e-189
7.68004e-191
1.23941e-192
2.01409e-194
3.29977e-196
5.45754e-198
9.12461e-200
1.54443e-201
2.65047e-203
4.61929e-205
8.1895e-207
1.47955e-208
2.72892e-210
5.14857e-212
9.95633e-214
1.97768e-215
4.04405e-217
8.53252e-219
1.86186e-220
4.21138e-222
9.8963e-224
2.42083e-225
6.1753e-227
1.6298e-161
2.62949e-163
4.20484e-165
6.69985e-167
1.06602e-168
1.69434e-170
2.68961e-172
4.26408e-174
6.75402e-176
1.06949e-177
1.69432e-179
2.68749e-181
4.27109e-183
6.8058e-185
1.08816e-186
1.74716e-188
2.81973e-190
4.57898e-192
7.49064e-194
1.23595e-195
2.05966e-197
3.47152e-199
5.92687e-201
1.02658e-202
1.80689e-204
3.23727e-206
5.91439e-208
1.10391e-209
2.10911e-211
4.13331e-213
8.32638e-215
1.72798e-216
3.70285e-218
8.21191e-220
1.88906e-221
4.51726e-223
1.12511e-224
8.03277e-160
1.30627e-161
2.10426e-163
3.37431e-165
5.39987e-167
8.63053e-169
1.37766e-170
2.19611e-172
3.49666e-174
5.5636e-176
8.85246e-178
1.40965e-179
2.24814e-181
3.59352e-183
5.76127e-185
9.27161e-187
1.49902e-188
2.43722e-190
3.98924e-192
6.58126e-194
1.09575e-195
1.84374e-197
3.13985e-199
5.42011e-201
9.49935e-203
1.69312e-204
3.07429e-206
5.69701e-208
1.07948e-209
2.09559e-211
4.17654e-213
8.56401e-215
1.81073e-216
3.95668e-218
8.95574e-220
2.10444e-221
5.14481e-223
1.03896e-158
1.70299e-160
2.76444e-162
4.4649e-164
7.19353e-166
1.15725e-167
1.85916e-169
2.98247e-171
4.77799e-173
7.64708e-175
1.2235e-176
1.95837e-178
3.13838e-180
5.03924e-182
8.11326e-184
1.31078e-185
2.1268e-187
3.46885e-189
5.69314e-191
9.41273e-193
1.56969e-194
2.64381e-196
4.50388e-198
7.7721e-200
1.36073e-201
2.42101e-203
4.38483e-205
8.09859e-207
1.52814e-208
2.95156e-210
5.84708e-212
1.19051e-213
2.49678e-215
5.40571e-217
1.211e-218
2.81353e-220
6.79453e-222
3.8073e-158
6.28418e-160
1.02707e-161
1.66984e-163
2.7077e-165
4.38355e-167
7.08632e-169
1.14379e-170
1.84348e-172
2.96785e-174
4.77556e-176
7.68607e-178
1.23828e-179
1.9985e-181
3.23355e-183
5.24902e-185
8.5557e-187
1.40152e-188
2.30961e-190
3.8331e-192
6.41439e-194
1.08373e-195
1.85122e-197
3.20191e-199
5.61627e-201
1.00064e-202
1.81398e-204
3.35168e-206
6.32346e-208
1.22048e-209
2.41459e-211
4.90667e-213
1.02635e-214
2.21487e-216
4.94254e-218
1.14323e-219
2.74759e-221
5.96469e-158
9.87178e-160
1.6177e-161
2.63697e-163
4.2869e-165
6.95768e-167
1.12757e-168
1.8245e-170
2.94773e-172
4.75693e-174
7.67216e-176
1.2376e-177
1.99824e-179
3.23189e-181
5.23996e-183
8.52303e-185
1.39189e-186
2.28424e-188
3.77079e-190
6.26822e-192
1.05049e-193
1.77719e-195
3.03926e-197
5.26168e-199
9.2357e-201
1.64624e-202
2.98478e-204
5.51402e-206
1.03975e-207
2.00493e-209
3.96111e-211
8.03452e-213
1.6767e-214
3.60807e-216
8.02506e-218
1.84947e-219
4.42793e-221
5.96474e-158
9.87191e-160
1.61774e-161
2.63705e-163
4.28708e-165
6.95805e-167
1.12764e-168
1.82462e-170
2.94793e-172
4.75724e-174
7.67262e-176
1.23765e-177
1.99829e-179
3.23185e-181
5.23966e-183
8.52201e-185
1.39161e-186
2.28354e-188
3.76911e-190
6.26429e-192
1.04959e-193
1.77515e-195
3.03466e-197
5.2513e-199
9.21211e-201
1.64084e-202
2.97229e-204
5.48483e-206
1.03285e-207
1.98839e-209
3.92083e-211
7.93476e-213
1.65153e-214
3.54333e-216
7.85517e-218
1.80401e-219
4.30393e-221
3.80667e-158
6.28323e-160
1.02694e-161
1.66969e-163
2.70756e-165
4.38348e-167
7.08641e-169
1.14383e-170
1.84356e-172
2.96798e-174
4.7757e-176
7.686e-178
1.23818e-179
1.99812e-181
3.23246e-183
5.24626e-185
8.54905e-187
1.39996e-188
2.30603e-190
3.825e-192
6.39623e-194
1.07968e-195
1.84216e-197
3.18156e-199
5.57024e-201
9.90138e-203
1.78976e-204
3.2952e-206
6.19003e-208
1.18849e-209
2.33664e-211
4.71331e-213
9.77451e-215
2.08866e-216
4.60991e-218
1.05369e-219
2.5015e-221
1.03915e-158
1.70333e-160
2.7651e-162
4.46617e-164
7.19599e-166
1.15771e-167
1.85999e-169
2.98389e-171
4.78033e-173
7.65076e-175
1.22404e-176
1.95909e-178
3.13913e-180
5.03949e-182
8.11157e-184
1.31007e-185
2.12472e-187
3.46348e-189
5.68012e-191
9.38233e-193
1.56275e-194
2.62814e-196
4.4686e-198
7.69255e-200
1.34269e-201
2.37978e-203
4.28968e-205
7.87653e-207
1.47563e-208
2.82553e-210
5.53956e-212
1.11409e-213
2.3031e-215
4.90453e-217
1.07848e-218
2.45528e-220
5.80455e-222
8.03696e-160
1.30699e-161
2.10549e-163
3.37647e-165
5.40373e-167
8.63737e-169
1.37884e-170
2.1981e-172
3.49987e-174
5.56858e-176
8.85981e-178
1.41064e-179
2.24926e-181
3.59424e-183
5.76012e-185
9.26497e-187
1.49694e-188
2.43175e-190
3.97585e-192
6.54989e-194
1.08859e-195
1.82759e-197
3.1036e-199
5.33872e-201
9.31572e-203
1.65134e-204
2.97814e-206
5.4729e-208
1.02647e-209
1.96815e-211
3.86459e-213
7.78531e-215
1.61223e-216
3.43935e-218
7.57596e-220
1.72759e-221
4.09059e-223
1.63081e-161
2.63128e-163
4.20795e-165
6.70531e-167
1.06699e-168
1.69607e-170
2.69259e-172
4.26903e-174
6.76189e-176
1.07069e-177
1.69603e-179
2.68964e-181
4.27318e-183
6.80613e-185
1.08757e-186
1.7449e-188
2.81335e-190
4.56293e-192
7.45251e-194
1.22718e-195
2.03987e-197
3.42721e-199
5.8279e-201
1.00442e-202
1.75689e-204
3.12333e-206
5.65166e-208
1.04273e-209
1.96447e-211
3.78496e-213
7.47034e-215
1.51302e-216
3.15054e-218
6.75843e-220
1.4969e-221
3.43167e-223
8.16645e-225
7.60176e-164
1.21697e-165
1.93333e-167
3.06438e-169
4.85284e-171
7.67709e-173
1.21294e-174
1.91424e-176
3.0193e-178
4.76305e-180
7.5206e-182
1.18934e-183
1.88509e-185
2.99662e-187
4.78126e-189
7.66363e-191
1.23517e-192
2.00388e-194
3.27616e-196
5.40415e-198
9.00535e-200
1.51789e-201
2.59146e-203
4.48742e-205
7.89197e-207
1.41158e-208
2.57146e-210
4.77832e-212
9.07055e-214
1.76233e-215
3.51258e-217
7.19218e-219
1.51548e-220
3.29273e-222
7.39349e-224
1.72001e-225
4.15801e-227
2.26164e-162
3.64526e-164
5.82591e-166
9.28119e-168
1.4766e-169
2.34653e-171
3.72399e-173
5.90225e-175
9.346e-177
1.4795e-178
2.34323e-180
3.71574e-182
5.90357e-184
9.40434e-186
1.50318e-187
2.41278e-189
3.89275e-191
6.31955e-193
1.03349e-194
1.70477e-196
2.84017e-198
4.78587e-200
8.16908e-202
1.41472e-203
2.48985e-205
4.46096e-207
8.15118e-209
1.52187e-210
2.90916e-212
5.70561e-214
1.15062e-215
2.39135e-217
5.13393e-219
1.14121e-220
2.6326e-222
6.31576e-224
1.57878e-225
4.31943e-160
7.02112e-162
1.13033e-163
1.81091e-165
2.89494e-167
4.62184e-169
7.36935e-171
1.17337e-172
1.86598e-174
2.9652e-176
4.71167e-178
7.49202e-180
1.19303e-181
1.90391e-183
3.04719e-185
4.89493e-187
7.89874e-189
1.2816e-190
2.09315e-192
3.4452e-194
5.72209e-196
9.60335e-198
1.63102e-199
2.80757e-201
4.90615e-203
8.718e-205
1.57805e-206
2.91507e-208
5.50604e-210
1.06554e-211
2.11715e-213
4.32861e-215
9.12734e-217
1.9895e-218
4.49313e-220
1.05372e-221
2.5715e-223
1.99806e-158
3.27411e-160
5.31199e-162
8.56732e-164
1.3775e-165
2.21102e-167
3.54409e-169
5.67292e-171
9.06791e-173
1.44789e-174
2.3107e-176
3.68846e-178
5.89352e-180
9.43328e-182
1.51367e-183
2.43672e-185
3.93857e-187
6.39761e-189
1.04538e-190
1.72027e-192
2.85437e-194
4.78187e-196
8.09984e-198
1.38932e-199
2.41692e-201
4.27136e-203
7.68176e-205
1.40838e-206
2.63724e-208
5.0536e-210
9.93016e-212
2.00512e-213
4.16975e-215
8.95069e-217
1.98782e-218
4.57785e-220
1.09566e-221
2.55495e-157
4.21998e-159
6.90023e-161
1.12104e-162
1.81464e-164
2.93124e-166
4.7277e-168
7.61389e-170
1.22438e-171
1.96635e-173
3.15536e-175
5.06253e-177
8.1274e-179
1.30659e-180
2.10506e-182
3.40138e-184
5.5164e-186
8.98743e-188
1.47232e-189
2.4278e-191
4.0343e-193
6.76434e-195
1.14599e-196
1.96461e-198
3.41333e-200
6.01993e-202
1.07955e-203
1.97195e-205
3.67566e-207
7.00463e-209
1.36743e-210
2.74026e-212
5.64909e-214
1.20071e-215
2.63731e-217
6.00004e-219
1.41717e-220
9.45915e-157
1.57318e-158
2.58991e-160
4.23553e-162
6.90005e-164
1.12153e-165
1.81993e-167
2.94868e-169
4.76997e-171
7.70527e-173
1.24345e-174
2.00594e-176
3.23729e-178
5.2307e-180
8.46817e-182
1.37469e-183
2.23946e-185
3.66413e-187
6.02673e-189
9.97502e-191
1.66324e-192
2.79733e-194
4.75182e-196
8.16445e-198
1.42103e-199
2.50948e-201
4.50382e-203
8.22895e-205
1.53338e-206
2.91947e-208
5.69053e-210
1.13782e-211
2.33881e-213
4.9531e-215
1.08324e-216
2.45224e-218
5.76043e-220
1.49314e-156
2.49001e-158
4.11019e-160
6.73932e-162
1.1007e-163
1.79355e-165
2.91766e-167
4.73881e-169
7.68436e-171
1.24427e-172
2.01264e-174
3.25417e-176
5.2633e-178
8.52242e-180
1.38258e-181
2.24891e-183
3.6707e-185
6.01695e-187
9.91395e-189
1.64358e-190
2.74468e-192
4.62243e-194
7.86144e-196
1.35206e-197
2.35507e-199
4.161e-201
7.4694e-203
1.36458e-204
2.54153e-206
4.83466e-208
9.41098e-210
1.87831e-211
3.85184e-213
8.13392e-215
1.77284e-216
3.998e-218
9.35268e-220
1.49319e-156
2.49012e-158
4.11038e-160
6.73968e-162
1.10076e-163
1.79367e-165
2.91787e-167
4.73917e-169
7.68495e-171
1.24436e-172
2.01278e-174
3.25436e-176
5.26351e-178
8.52251e-180
1.38254e-181
2.24872e-183
3.67013e-185
6.01543e-187
9.91019e-189
1.64269e-190
2.7426e-192
4.61769e-194
7.85067e-196
1.34962e-197
2.34951e-199
4.14828e-201
7.44012e-203
1.35777e-204
2.52554e-206
4.79661e-208
9.3191e-210
1.85575e-211
3.7955e-213
7.99046e-215
1.7356e-216
3.89936e-218
9.08628e-220
9.4585e-157
1.57309e-158
2.5898e-160
4.23545e-162
6.90008e-164
1.12156e-165
1.82002e-167
2.94887e-169
4.77031e-171
7.70582e-173
1.24353e-174
2.00599e-176
3.23719e-178
5.23007e-180
8.46611e-182
1.37413e-183
2.23805e-185
3.66072e-187
6.01872e-189
9.95663e-191
1.65907e-192
2.78793e-194
4.73068e-196
8.11686e-198
1.41027e-199
2.48495e-201
4.4475e-203
8.09832e-205
1.50272e-206
2.84652e-208
5.51428e-210
1.09451e-211
2.23039e-213
4.67632e-215
1.01111e-216
2.26032e-218
5.23885e-220
2.55577e-157
4.22139e-159
6.90268e-161
1.12147e-162
1.8154e-164
2.93258e-166
4.73002e-168
7.61781e-170
1.22502e-171
1.96737e-173
3.1569e-175
5.06469e-177
8.13e-179
1.3068e-180
2.10494e-182
3.40019e-184
5.51233e-186
8.97618e-188
1.46949e-189
2.42102e-191
4.01856e-193
6.72836e-195
1.13783e-196
1.94613e-198
3.37139e-200
5.92423e-202
1.05755e-203
1.92086e-205
3.55563e-207
6.71873e-209
1.29826e-210
2.56997e-212
5.22191e-214
1.09136e-215
2.35142e-217
5.23606e-219
1.20843e-220
1.99936e-158
3.27636e-160
5.31582e-162
8.57384e-164
1.37861e-165
2.21293e-167
3.54736e-169
5.67837e-171
9.07677e-173
1.44929e-174
2.31281e-176
3.69144e-178
5.89727e-180
9.4369e-182
1.51373e-183
2.43572e-185
3.93461e-187
6.3862e-189
1.04247e-190
1.71325e-192
2.83809e-194
4.74481e-196
8.01616e-198
1.37045e-199
2.3742e-201
4.17408e-203
7.45823e-205
1.35645e-206
2.51505e-208
4.76169e-210
9.22101e-212
1.82962e-213
3.72665e-215
7.80775e-217
1.6863e-218
3.76361e-220
8.70455e-222
4.32259e-160
7.02697e-162
1.13134e-163
1.81265e-165
2.89795e-167
4.62705e-169
7.37824e-171
1.17485e-172
1.86836e-174
2.96888e-176
4.71707e-178
7.49934e-180
1.19388e-181
1.90454e-183
3.04665e-185
4.89082e-187
7.88531e-189
1.278e-190
2.08428e-192
3.42434e-194
5.67431e-196
9.49537e-198
1.60685e-199
2.75352e-201
4.78462e-203
8.44229e-205
1.5148e-206
2.76804e-208
5.15908e-210
9.82268e-212
1.91357e-213
3.82076e-215
7.8328e-217
1.65187e-218
3.59114e-220
8.06652e-222
1.87713e-223
2.26311e-162
3.64834e-164
5.83141e-166
9.29084e-168
1.4783e-169
2.34951e-171
3.72908e-173
5.91066e-175
9.35931e-177
1.48152e-178
2.34609e-180
3.71937e-182
5.90712e-184
9.40513e-186
1.50228e-187
2.40921e-189
3.88257e-191
6.29377e-193
1.02734e-194
1.69059e-196
2.80806e-198
4.71383e-200
8.00934e-202
1.37928e-203
2.41058e-205
4.28155e-207
7.73947e-209
1.42591e-210
2.68165e-212
5.15599e-214
1.01513e-215
2.05002e-217
4.25395e-219
9.08758e-221
2.00273e-222
4.56368e-224
1.07816e-225
3.07436e-161
4.98796e-163
8.02036e-165
1.28449e-166
2.05332e-168
3.27789e-170
5.22522e-172
8.31684e-174
1.32209e-175
2.10015e-177
3.33604e-179
5.30307e-181
8.44228e-183
1.3469e-184
2.15511e-186
3.46096e-188
5.58328e-190
9.0571e-192
1.47899e-193
2.43406e-195
4.04245e-197
6.7844e-199
1.15234e-200
1.98394e-202
3.46789e-204
6.16494e-206
1.11659e-207
2.06432e-209
3.90329e-211
7.56412e-213
1.50557e-214
3.08489e-216
6.5221e-218
1.42616e-219
3.2329e-221
7.61401e-223
1.86684e-224
5.37758e-159
8.80146e-161
1.42626e-162
2.29792e-164
3.6913e-166
5.91946e-168
9.47904e-170
1.51564e-171
2.4199e-173
3.85931e-175
6.15156e-177
9.80706e-179
1.56495e-180
2.50148e-182
4.00815e-184
6.44267e-186
1.03971e-187
1.68606e-189
2.75029e-191
4.51766e-193
7.4819e-195
1.25099e-196
2.11477e-198
3.61988e-200
6.28398e-202
1.10817e-203
1.98866e-205
3.63819e-207
6.79839e-209
1.30014e-210
2.55e-212
5.14052e-214
1.06752e-215
2.289e-217
5.07966e-219
1.1693e-220
2.7981e-222
2.39318e-157
3.9488e-159
6.45085e-161
1.04663e-162
1.69121e-164
2.72636e-166
4.388e-168
7.05181e-170
1.13156e-171
1.81325e-173
2.90288e-175
4.64584e-177
7.43858e-179
1.19246e-180
1.91539e-182
3.08501e-184
4.9863e-186
8.09439e-188
1.32092e-189
2.16921e-191
3.58888e-193
5.98964e-195
1.00977e-196
1.7221e-198
2.97567e-200
5.21796e-202
9.30124e-204
1.68838e-205
3.12672e-207
5.91877e-209
1.14755e-210
2.28361e-212
4.67451e-214
9.86497e-216
2.1513e-217
4.85909e-219
1.1393e-220
3.05863e-156
5.08666e-158
8.37567e-160
1.36907e-161
2.22734e-163
3.61326e-165
5.85036e-167
9.45737e-169
1.52641e-170
2.45992e-172
3.95954e-174
6.36913e-176
1.02455e-177
1.64947e-179
2.65981e-181
4.29924e-183
6.97113e-185
1.13484e-186
1.85639e-188
3.05438e-190
5.0602e-192
8.45131e-194
1.42483e-195
2.42826e-197
4.18966e-199
7.3299e-201
1.30248e-202
2.35476e-204
4.33913e-206
8.16494e-208
1.57197e-209
3.10285e-211
6.29258e-213
1.31404e-214
2.83194e-216
6.31348e-218
1.4594e-219
1.14994e-155
1.92556e-157
3.19224e-159
5.25258e-161
8.60006e-163
1.40372e-164
2.28646e-166
3.71799e-168
6.03585e-170
9.78305e-172
1.58353e-173
2.56101e-175
4.14116e-177
6.70028e-179
1.0856e-180
1.76274e-182
2.87071e-184
4.69269e-186
7.70644e-188
1.2726e-189
2.11538e-191
3.54359e-193
5.98976e-195
1.02301e-196
1.76807e-198
3.09695e-200
5.5067e-202
9.95644e-204
1.83375e-205
3.44661e-207
6.62358e-209
1.30409e-210
2.63603e-212
5.48235e-214
1.17584e-215
2.60688e-217
5.98883e-219
1.83203e-155
3.07602e-157
5.11312e-159
8.43525e-161
1.38463e-162
2.26568e-164
3.69952e-166
6.03036e-168
9.81331e-170
1.59434e-171
2.58669e-173
4.19291e-175
6.79491e-177
1.10175e-178
1.78877e-180
2.91031e-182
4.74871e-184
7.77692e-186
1.27938e-187
2.11619e-189
3.52301e-191
5.90976e-193
1.00014e-194
1.70991e-196
2.95753e-198
5.18313e-200
9.21828e-202
1.66656e-203
3.06799e-205
5.76135e-207
1.10571e-208
2.17296e-210
4.38174e-212
9.08584e-214
1.94177e-215
4.28737e-217
9.80507e-219
1.83216e-155
3.07624e-157
5.1135e-159
8.43591e-161
1.38475e-162
2.26587e-164
3.69985e-166
6.03091e-168
9.8142e-170
1.59448e-171
2.5869e-173
4.19321e-175
6.79528e-177
1.10178e-178
1.78876e-180
2.91015e-182
4.74815e-184
7.77532e-186
1.27897e-187
2.11519e-189
3.52065e-191
5.90428e-193
9.98886e-195
1.70705e-196
2.95102e-198
5.16825e-200
9.1841e-202
1.65865e-203
3.04952e-205
5.7177e-207
1.09525e-208
2.14752e-210
4.3188e-212
8.92722e-214
1.90103e-215
4.18067e-217
9.52006e-219
1.14997e-155
1.92564e-157
3.19241e-159
5.25291e-161
8.60072e-163
1.40385e-164
2.28669e-166
3.7184e-168
6.03654e-170
9.78414e-172
1.58369e-173
2.56119e-175
4.14125e-177
6.69992e-179
1.08542e-180
1.7622e-182
2.86925e-184
4.68902e-186
7.69761e-188
1.27053e-189
2.11063e-191
3.53278e-193
5.96531e-195
1.01749e-196
1.75555e-198
3.06848e-200
5.44153e-202
9.80599e-204
1.79864e-205
3.36368e-207
6.42486e-209
1.2557e-210
2.5161e-212
5.17948e-214
1.09782e-215
2.40169e-217
5.43779e-219
3.06002e-156
5.08906e-158
8.37974e-160
1.36976e-161
2.22851e-163
3.61523e-165
5.85367e-167
9.46286e-169
1.52731e-170
2.46134e-172
3.96173e-174
6.37231e-176
1.02497e-177
1.64992e-179
2.66003e-181
4.29848e-183
6.96744e-185
1.13371e-186
1.85337e-188
3.04695e-190
5.04259e-192
8.41054e-194
1.4155e-195
2.40705e-197
4.14143e-199
7.21995e-201
1.27727e-202
2.2965e-204
4.20306e-206
7.84311e-208
1.49473e-209
2.91444e-211
5.82459e-213
1.19552e-214
2.52559e-216
5.50442e-218
1.24099e-219
2.39513e-157
3.95221e-159
6.45663e-161
1.04759e-162
1.69283e-164
2.72909e-166
4.39256e-168
7.05937e-170
1.13279e-171
1.81521e-173
2.90589e-175
4.65025e-177
7.44456e-179
1.19316e-180
1.91595e-182
3.08468e-184
4.98311e-186
8.08355e-188
1.31794e-189
2.16175e-191
3.57111e-193
5.9484e-195
1.00033e-196
1.70064e-198
2.92688e-200
5.10668e-202
9.0458e-204
1.62922e-205
2.98811e-207
5.58961e-209
1.06816e-210
2.08876e-212
4.18711e-214
8.62053e-216
1.82659e-217
3.99228e-219
9.02405e-221
5.38253e-159
8.81072e-161
1.42785e-162
2.30062e-164
3.69587e-166
5.92721e-168
9.49213e-170
1.51782e-171
2.42342e-173
3.86483e-175
6.1599e-177
9.81898e-179
1.56651e-180
2.50316e-182
4.00911e-184
6.44052e-186
1.03858e-187
1.68257e-189
2.7411e-191
4.49521e-193
7.4292e-195
1.23889e-196
2.08726e-198
3.55757e-200
6.14266e-202
1.07594e-203
1.91457e-205
3.466e-207
6.393e-209
1.20324e-210
2.31444e-212
4.55703e-214
9.20003e-216
1.90785e-217
4.0718e-219
8.96261e-221
2.03963e-222
3.07716e-161
4.99353e-163
8.03001e-165
1.28613e-166
2.05613e-168
3.28272e-170
5.23343e-172
8.33051e-174
1.32431e-175
2.10363e-177
3.34127e-179
5.3105e-181
8.45185e-183
1.34792e-184
2.15563e-186
3.45946e-188
5.57595e-190
9.03449e-192
1.473e-193
2.41934e-195
4.00778e-197
6.70452e-199
1.13411e-200
1.94243e-202
3.37306e-204
5.94692e-206
1.066e-207
1.94556e-209
3.62063e-211
6.88051e-213
1.33726e-214
2.6623e-216
5.43816e-218
1.14172e-219
2.46824e-221
5.50596e-223
1.27034e-224
2.11689e-160
3.45566e-162
5.58883e-164
8.99761e-166
1.44515e-167
2.31738e-169
3.71011e-171
5.92997e-173
9.4636e-175
1.50864e-176
2.40393e-178
3.83158e-180
6.11336e-182
9.77107e-184
1.56559e-185
2.51657e-187
4.06153e-189
6.58744e-191
1.07481e-192
1.76613e-194
2.92638e-196
4.89593e-198
8.28289e-200
1.41934e-201
2.46729e-203
4.35819e-205
7.83631e-207
1.43696e-208
2.6925e-210
5.16582e-212
1.01703e-213
2.0593e-215
4.29848e-217
9.27155e-219
2.07137e-220
4.80414e-222
1.15915e-223
3.53822e-158
5.82733e-160
9.50074e-162
1.53914e-163
2.48442e-165
4.00168e-167
6.43496e-169
1.03311e-170
1.65593e-172
2.65046e-174
4.23832e-176
6.77557e-178
1.08368e-179
1.73537e-181
2.78445e-183
4.47988e-185
7.23282e-187
1.17283e-188
1.91186e-190
3.13632e-192
5.18368e-194
8.643e-196
1.45581e-197
2.48081e-199
4.28359e-201
7.50686e-203
1.3375e-204
2.42713e-206
4.49446e-208
8.50957e-210
1.65076e-211
3.28815e-213
6.74047e-215
1.42532e-216
3.11628e-218
7.06109e-220
1.66185e-221
1.54879e-156
2.57148e-158
4.22734e-160
6.89813e-162
1.12023e-163
1.81383e-165
2.93106e-167
4.72864e-169
7.61617e-171
1.22478e-172
1.96708e-174
3.15694e-176
5.06628e-178
8.13629e-180
1.30862e-181
2.10952e-183
3.41088e-185
5.5362e-187
9.02804e-189
1.48058e-190
2.44453e-192
4.06821e-194
6.83328e-196
1.16008e-197
1.99359e-199
3.47347e-201
6.14604e-203
1.10634e-204
2.02972e-206
3.80249e-208
7.28868e-210
1.43248e-211
2.89288e-213
6.01673e-215
1.29176e-216
2.86951e-218
6.61061e-220
2.00032e-155
3.34707e-157
5.54639e-159
9.11924e-161
1.49118e-162
2.42963e-164
3.94922e-166
6.40745e-168
1.03782e-169
1.6782e-171
2.70973e-173
4.37067e-175
7.04657e-177
1.13642e-178
1.83473e-180
2.96769e-182
4.81303e-184
7.83272e-186
1.28015e-187
2.10311e-189
3.47655e-191
5.78912e-193
9.72286e-195
1.64923e-196
2.82947e-198
4.91742e-200
8.6713e-202
1.55412e-203
2.836e-205
5.27906e-207
1.00433e-208
1.95677e-210
3.91261e-212
8.04657e-214
1.70593e-215
3.73707e-217
8.47902e-219
7.67701e-155
1.29334e-156
2.15779e-158
3.57141e-160
5.87736e-162
9.63488e-164
1.57536e-165
2.57076e-167
4.18769e-169
6.80986e-171
1.10565e-172
1.79293e-174
2.90555e-176
4.70896e-178
7.63822e-180
1.24101e-181
2.02123e-183
3.3026e-185
5.41815e-187
8.93269e-189
1.4814e-190
2.47393e-192
4.16534e-194
7.0799e-196
1.21655e-197
2.11649e-199
3.73397e-201
6.69144e-203
1.22016e-204
2.26801e-206
4.30556e-208
8.36426e-210
1.66624e-211
3.41118e-213
7.19299e-215
1.56594e-216
3.52831e-218
1.23646e-154
2.08869e-156
3.49411e-158
5.79842e-160
9.56678e-162
1.57222e-163
2.57696e-165
4.21535e-167
6.88304e-169
1.12193e-170
1.8258e-172
2.96747e-174
4.8196e-176
7.82772e-178
1.27232e-179
2.0713e-181
3.37997e-183
5.53283e-185
9.09282e-187
1.50156e-188
2.49397e-190
4.17067e-192
7.03062e-194
1.19621e-195
2.05708e-197
3.58063e-199
6.31844e-201
1.13216e-202
2.06341e-204
3.83186e-206
7.26404e-208
1.4084e-209
2.79853e-211
5.711e-213
1.19965e-214
2.6001e-216
5.82934e-218
1.23658e-154
2.0889e-156
3.49447e-158
5.79902e-160
9.56779e-162
1.57239e-163
2.57724e-165
4.21581e-167
6.88377e-169
1.12205e-170
1.82597e-172
2.96773e-174
4.81994e-176
7.8281e-178
1.27234e-179
2.07124e-181
3.37967e-183
5.5319e-185
9.09029e-187
1.50092e-188
2.49245e-190
4.16711e-192
7.02239e-194
1.19433e-195
2.05277e-197
3.5708e-199
6.29591e-201
1.12696e-202
2.05133e-204
3.80347e-206
7.19647e-208
1.39208e-209
2.75848e-211
5.61098e-213
1.1742e-214
2.53409e-216
5.65474e-218
7.67789e-155
1.2935e-156
2.15809e-158
3.57194e-160
5.87827e-162
9.63643e-164
1.57562e-165
2.57119e-167
4.18839e-169
6.81096e-171
1.10581e-172
1.79314e-174
2.90577e-176
4.709e-178
7.63754e-180
1.24073e-181
2.0204e-183
3.3004e-185
5.41269e-187
8.91964e-189
1.47836e-190
2.46695e-192
4.14943e-194
7.04378e-196
1.20836e-197
2.09786e-199
3.69141e-201
6.59352e-203
1.19742e-204
2.2146e-206
4.17843e-208
8.05703e-210
1.59075e-211
3.22225e-213
6.711e-215
1.44048e-216
3.19486e-218
2.00148e-155
3.3491e-157
5.54982e-159
9.12497e-161
1.49213e-162
2.43121e-164
3.95182e-166
6.41172e-168
1.03852e-169
1.67931e-171
2.71144e-173
4.37321e-175
7.0501e-177
1.13685e-178
1.8351e-180
2.96759e-182
4.81129e-184
7.82642e-186
1.27837e-187
2.09856e-189
3.46554e-191
5.76328e-193
9.66322e-195
1.63559e-196
2.79839e-198
4.84658e-200
8.50919e-202
1.51677e-203
2.74917e-205
5.07485e-207
9.55643e-209
1.83889e-210
3.62226e-212
7.31791e-214
1.51939e-215
3.24938e-217
7.17616e-219
1.55032e-156
2.57418e-158
4.23192e-160
6.90576e-162
1.1215e-163
1.81593e-165
2.93455e-167
4.73438e-169
7.62555e-171
1.22628e-172
1.96944e-174
3.16049e-176
5.07136e-178
8.14293e-180
1.30935e-181
2.10993e-183
3.40988e-185
5.53094e-187
9.01168e-189
1.47623e-190
2.43379e-192
4.04275e-194
6.7742e-196
1.14652e-197
1.96261e-199
3.40265e-201
5.98349e-203
1.06876e-204
1.94199e-206
3.59513e-208
6.79145e-210
1.31127e-211
2.59204e-213
5.25514e-215
1.09486e-216
2.34902e-218
5.20256e-220
3.54225e-158
5.83485e-160
9.51368e-162
1.5413e-163
2.48805e-165
4.00776e-167
6.44515e-169
1.0348e-170
1.65868e-172
2.65486e-174
4.24515e-176
6.78576e-178
1.08512e-179
1.73722e-181
2.78643e-183
4.48088e-185
7.22971e-187
1.17129e-188
1.90709e-190
3.1237e-192
5.15254e-194
8.56911e-196
1.43863e-197
2.44134e-199
4.19325e-201
7.29983e-203
1.2898e-204
2.31631e-206
4.23408e-208
7.88942e-210
1.50072e-211
2.91871e-213
5.81302e-215
1.18757e-216
2.49304e-218
5.38837e-220
1.20173e-221
2.11939e-160
3.46048e-162
5.5971e-164
9.0115e-166
1.4475e-167
2.32135e-169
3.71683e-171
5.94115e-173
9.48179e-175
1.51153e-176
2.40837e-178
3.83812e-180
6.1224e-182
9.78229e-184
1.56667e-185
2.51679e-187
4.05861e-189
6.57566e-191
1.07138e-192
1.75729e-194
2.90494e-196
4.84559e-198
8.1663e-200
1.39233e-201
2.40476e-203
4.21314e-205
7.49792e-207
1.35732e-208
2.50289e-210
4.70802e-212
9.04689e-214
1.77855e-215
3.58263e-217
7.40615e-219
1.57386e-220
3.44437e-222
7.77891e-224
8.11515e-160
1.33186e-161
2.16509e-163
3.50219e-165
5.64968e-167
9.09692e-169
1.46219e-170
2.34598e-172
3.7575e-174
6.01007e-176
9.60542e-178
1.53502e-179
2.45469e-181
3.93078e-183
6.3078e-185
1.01511e-186
1.63953e-188
2.65996e-190
4.33904e-192
7.12426e-194
1.17881e-195
1.96821e-197
3.32074e-199
5.67049e-201
9.81646e-203
1.7256e-204
3.08556e-206
5.62263e-208
1.04619e-209
1.99175e-211
3.88831e-213
7.80136e-215
1.61246e-216
3.44165e-218
7.60408e-220
1.74318e-221
4.15527e-223
1.33412e-157
2.20915e-159
3.62083e-161