/*--------------------------------*- C++ -*----------------------------------*\
| =========                 |                                                 |
| \\      /  F ield         | OpenFOAM: The Open Source CFD Toolbox           |
|  \\    /   O peration     | Version:  2.3.1                                 |
|   \\  /    A nd           | Web:      www.OpenFOAM.org                      |
|    \\/     M anipulation  |                                                 |
\*---------------------------------------------------------------------------*/
FoamFile
{
    version     2.0;
    format      ascii;
    class       volVectorField;
    location    "5";
    object      U;
}
// * * * * * * * * * * * * * * * * * * * * * * * * * * * * * * * * * * * * * //

dimensions      [0 1 -1 0 0 0 0];

internalField   nonuniform List<vector> 
37530
(
(0.00413927 -4.27072e-06 -1.22265e-05)
(0.00420058 -4.63586e-06 -1.32456e-05)
(0.00426703 -5.03218e-06 -1.43526e-05)
(0.00433908 -5.46341e-06 -1.5552e-05)
(0.00441719 -5.94077e-06 -1.68501e-05)
(0.00450189 -6.47836e-06 -1.82574e-05)
(0.0045938 -7.08055e-06 -1.97901e-05)
(0.00469358 -7.74343e-06 -2.14655e-05)
(0.00480197 -8.46442e-06 -2.32991e-05)
(0.00491976 -9.25158e-06 -2.53054e-05)
(0.00504781 -1.01224e-05 -2.74946e-05)
(0.00518708 -1.10876e-05 -2.98771e-05)
(0.00533858 -1.21518e-05 -3.24675e-05)
(0.0055034 -1.33274e-05 -3.5284e-05)
(0.00568277 -1.46315e-05 -3.83488e-05)
(0.00587804 -1.60828e-05 -4.16854e-05)
(0.00609072 -1.77072e-05 -4.53181e-05)
(0.00632248 -1.95326e-05 -4.92753e-05)
(0.00657516 -2.15812e-05 -5.35884e-05)
(0.00685079 -2.38743e-05 -5.82911e-05)
(0.0071516 -2.64455e-05 -6.34209e-05)
(0.00748007 -2.93507e-05 -6.90209e-05)
(0.00783898 -3.26641e-05 -7.51386e-05)
(0.00823149 -3.64751e-05 -8.18188e-05)
(0.00866109 -4.08729e-05 -8.91023e-05)
(0.00913163 -4.59481e-05 -9.7027e-05)
(0.00964734 -5.181e-05 -0.000105629)
(0.0102128 -5.85857e-05 -0.000114943)
(0.0108332 -6.641e-05 -0.000124999)
(0.0115138 -7.54262e-05 -0.000135812)
(0.0122606 -8.57896e-05 -0.000147383)
(0.0130796 -9.76552e-05 -0.000159698)
(0.0139771 -0.000111148 -0.000172713)
(0.0149593 -0.00012632 -0.000186348)
(0.0160319 -0.000143101 -0.000200461)
(0.0171995 -0.000161162 -0.000214851)
(0.0184646 -0.000179843 -0.000229205)
(0.0042432 -6.55253e-06 -1.39143e-05)
(0.00430495 -7.1454e-06 -1.50674e-05)
(0.0043719 -7.7897e-06 -1.63173e-05)
(0.00444447 -8.49448e-06 -1.767e-05)
(0.00452315 -9.2811e-06 -1.91364e-05)
(0.00460847 -1.01718e-05 -2.07371e-05)
(0.00470107 -1.11701e-05 -2.249e-05)
(0.0048016 -1.22663e-05 -2.44066e-05)
(0.00491079 -1.3455e-05 -2.65009e-05)
(0.00502945 -1.47491e-05 -2.87896e-05)
(0.00515842 -1.61783e-05 -3.12921e-05)
(0.00529867 -1.77681e-05 -3.40224e-05)
(0.00545121 -1.95381e-05 -3.69899e-05)
(0.00561716 -2.15169e-05 -4.02156e-05)
(0.00579773 -2.37443e-05 -4.37262e-05)
(0.0059943 -2.6274e-05 -4.75445e-05)
(0.00620836 -2.91727e-05 -5.16997e-05)
(0.00644161 -3.25032e-05 -5.62278e-05)
(0.0066959 -3.63159e-05 -6.11615e-05)
(0.00697328 -4.06644e-05 -6.65328e-05)
(0.00727595 -4.56345e-05 -7.23819e-05)
(0.00760642 -5.13539e-05 -7.87653e-05)
(0.00796745 -5.7989e-05 -8.57456e-05)
(0.0083622 -6.57485e-05 -9.33855e-05)
(0.00879417 -7.48683e-05 -0.000101735)
(0.00926719 -8.56095e-05 -0.000110831)
(0.00978549 -9.82768e-05 -0.000120715)
(0.0103537 -0.000113224 -0.000131434)
(0.0109769 -0.000130848 -0.000143018)
(0.0116605 -0.000151572 -0.00015548)
(0.0124105 -0.000175843 -0.000168832)
(0.0132329 -0.000204107 -0.000183068)
(0.0141342 -0.000236711 -0.000198155)
(0.0151209 -0.000273754 -0.000214005)
(0.0161988 -0.000314943 -0.000230449)
(0.0173726 -0.000359436 -0.000247307)
(0.0186453 -0.000405512 -0.000264344)
(0.00425299 -4.56093e-06 -1.45059e-05)
(0.00431473 -5.04818e-06 -1.57041e-05)
(0.00438165 -5.58174e-06 -1.69992e-05)
(0.00445419 -6.1716e-06 -1.83972e-05)
(0.00453282 -6.83491e-06 -1.99195e-05)
(0.00461809 -7.58264e-06 -2.15954e-05)
(0.00471065 -8.41265e-06 -2.34392e-05)
(0.00481115 -9.31744e-06 -2.5455e-05)
(0.00492032 -1.02941e-05 -2.76488e-05)
(0.00503893 -1.13547e-05 -3.00367e-05)
(0.00516784 -1.25261e-05 -3.26447e-05)
(0.00530798 -1.38412e-05 -3.54899e-05)
(0.00546039 -1.53351e-05 -3.85847e-05)
(0.00562616 -1.7046e-05 -4.19503e-05)
(0.00580651 -1.90287e-05 -4.561e-05)
(0.00600278 -2.13647e-05 -4.95935e-05)
(0.00621648 -2.41472e-05 -5.39422e-05)
(0.00644932 -2.74599e-05 -5.86931e-05)
(0.00670314 -3.13757e-05 -6.3872e-05)
(0.00697996 -3.59785e-05 -6.95049e-05)
(0.00728198 -4.13909e-05 -7.56357e-05)
(0.00761165 -4.77782e-05 -8.23251e-05)
(0.00797171 -5.5356e-05 -8.96389e-05)
(0.00836524 -6.4409e-05 -9.7648e-05)
(0.0087957 -7.52922e-05 -0.000106411)
(0.00926686 -8.84287e-05 -0.00011597)
(0.0097829 -0.000104295 -0.00012637)
(0.0103484 -0.000123451 -0.000137656)
(0.0109683 -0.000146548 -0.000149863)
(0.0116481 -0.0001743 -0.000163012)
(0.0123937 -0.000207462 -0.000177117)
(0.0132112 -0.000246771 -0.000192177)
(0.0141072 -0.000292837 -0.000208178)
(0.0150882 -0.000345899 -0.000225089)
(0.0161609 -0.000405635 -0.000242832)
(0.0173314 -0.000470937 -0.000261191)
(0.0186038 -0.000539336 -0.000279831)
(0.00425422 -1.9618e-06 -1.43737e-05)
(0.00431592 -2.2988e-06 -1.556e-05)
(0.00438281 -2.67664e-06 -1.68404e-05)
(0.0044553 -3.09989e-06 -1.82252e-05)
(0.00453387 -3.56858e-06 -1.97409e-05)
(0.0046191 -4.07688e-06 -2.14135e-05)
(0.00471162 -4.62162e-06 -2.32534e-05)
(0.00481208 -5.20729e-06 -2.52622e-05)
(0.0049212 -5.84331e-06 -2.74419e-05)
(0.00503974 -6.54481e-06 -2.98077e-05)
(0.00516856 -7.33666e-06 -3.23857e-05)
(0.00530857 -8.25298e-06 -3.51956e-05)
(0.00546082 -9.33027e-06 -3.82537e-05)
(0.00562638 -1.06118e-05 -4.15761e-05)
(0.00580645 -1.21628e-05 -4.51854e-05)
(0.00600235 -1.4073e-05 -4.9123e-05)
(0.00621561 -1.64419e-05 -5.34392e-05)
(0.00644792 -1.93695e-05 -5.81724e-05)
(0.00670113 -2.29588e-05 -6.33431e-05)
(0.00697724 -2.73273e-05 -6.89702e-05)
(0.0072784 -3.26232e-05 -7.50961e-05)
(0.00760702 -3.90383e-05 -8.17778e-05)
(0.00796579 -4.6829e-05 -8.90761e-05)
(0.00835771 -5.63349e-05 -9.70603e-05)
(0.00878614 -6.7994e-05 -0.000105795)
(0.00925481 -8.23483e-05 -0.000115331)
(0.00976781 -0.000100045 -0.000125726)
(0.0103296 -0.000121833 -0.000137028)
(0.0109451 -0.000148585 -0.000149287)
(0.0116197 -0.000181286 -0.000162534)
(0.0123592 -0.000220988 -0.000176794)
(0.0131699 -0.000268731 -0.000192086)
(0.0140585 -0.00032542 -0.000208418)
(0.0150321 -0.000391601 -0.0002258)
(0.0160981 -0.000467204 -0.000244166)
(0.0172638 -0.000551084 -0.000263335)
(0.0185351 -0.000640335 -0.000283011)
(0.00425422 -4.00778e-08 -1.41657e-05)
(0.00431589 -2.78606e-07 -1.53379e-05)
(0.00438274 -5.50479e-07 -1.66056e-05)
(0.0044552 -8.50015e-07 -1.79836e-05)
(0.00453376 -1.16527e-06 -1.94947e-05)
(0.00461897 -1.48275e-06 -2.11546e-05)
(0.00471147 -1.80391e-06 -2.2972e-05)
(0.0048119 -2.14418e-06 -2.49521e-05)
(0.00492098 -2.52433e-06 -2.70999e-05)
(0.00503946 -2.9657e-06 -2.94301e-05)
(0.00516818 -3.49308e-06 -3.19669e-05)
(0.00530807 -4.13633e-06 -3.47339e-05)
(0.00546015 -4.93129e-06 -3.77465e-05)
(0.0056255 -5.92808e-06 -4.10151e-05)
(0.00580529 -7.19494e-06 -4.45644e-05)
(0.00600083 -8.8134e-06 -4.84414e-05)
(0.00621362 -1.08741e-05 -5.27011e-05)
(0.00644536 -1.34859e-05 -5.73856e-05)
(0.0066979 -1.67814e-05 -6.25158e-05)
(0.00697319 -2.0911e-05 -6.811e-05)
(0.00727337 -2.6049e-05 -7.42048e-05)
(0.0076008 -3.24122e-05 -8.08498e-05)
(0.00795808 -4.02902e-05 -8.80997e-05)
(0.00834814 -5.00673e-05 -9.60234e-05)
(0.00877423 -6.22459e-05 -0.000104703)
(0.00923996 -7.7462e-05 -0.00011421)
(0.0097493 -9.64903e-05 -0.000124587)
(0.0103066 -0.000120239 -0.00013589)
(0.0109167 -0.00014977 -0.00014818)
(0.0115848 -0.000186304 -0.000161518)
(0.0123168 -0.000231166 -0.000175958)
(0.0131189 -0.000285709 -0.000191544)
(0.0139981 -0.000351198 -0.000208326)
(0.0149619 -0.0004286 -0.000226358)
(0.0160188 -0.000518251 -0.000245615)
(0.0171771 -0.000619321 -0.000265984)
(0.018445 -0.000729027 -0.000287224)
(0.00425409 1.31523e-06 -1.40226e-05)
(0.00431573 1.1469e-06 -1.51933e-05)
(0.00438256 9.61108e-07 -1.64622e-05)
(0.00445501 7.72135e-07 -1.78456e-05)
(0.00453357 5.92618e-07 -1.93574e-05)
(0.0046188 4.29079e-07 -2.10075e-05)
(0.00471129 2.74433e-07 -2.28057e-05)
(0.0048117 1.09468e-07 -2.47622e-05)
(0.00492073 -9.15944e-08 -2.68868e-05)
(0.00503914 -3.53046e-07 -2.91946e-05)
(0.00516777 -6.95083e-07 -3.17106e-05)
(0.00530755 -1.13943e-06 -3.44583e-05)
(0.00545947 -1.72302e-06 -3.74482e-05)
(0.00562461 -2.50419e-06 -4.06915e-05)
(0.00580411 -3.55245e-06 -4.42156e-05)
(0.0059993 -4.93826e-06 -4.80669e-05)
(0.00621166 -6.73612e-06 -5.22988e-05)
(0.00644285 -9.04957e-06 -5.69544e-05)
(0.0066947 -1.20203e-05 -6.20645e-05)
(0.00696914 -1.58198e-05 -6.76528e-05)
(0.00726829 -2.06493e-05 -7.37486e-05)
(0.00759443 -2.67563e-05 -8.03942e-05)
(0.00795012 -3.44579e-05 -8.76478e-05)
(0.00833816 -4.41607e-05 -9.55804e-05)
(0.00876167 -5.63965e-05 -0.000104266)
(0.00922416 -7.18529e-05 -0.000113785)
(0.00972945 -9.13686e-05 -0.000124207)
(0.0102818 -0.00011596 -0.000135596)
(0.0108857 -0.000146824 -0.000148033)
(0.0115465 -0.000185347 -0.000161607)
(0.0122697 -0.000233076 -0.00017641)
(0.0130618 -0.000291657 -0.000192523)
(0.0139298 -0.000362743 -0.000210036)
(0.0148816 -0.000447797 -0.000229071)
(0.0159264 -0.000547735 -0.000249699)
(0.0170742 -0.000662332 -0.000271896)
(0.0183353 -0.000789443 -0.000295526)
(0.00425397 2.34367e-06 -1.3976e-05)
(0.0043156 2.24102e-06 -1.51568e-05)
(0.00438243 2.13782e-06 -1.64353e-05)
(0.00445489 2.0568e-06 -1.78258e-05)
(0.00453348 2.00435e-06 -1.93402e-05)
(0.00461872 1.97432e-06 -2.09878e-05)
(0.00471121 1.95679e-06 -2.27804e-05)
(0.0048116 1.93391e-06 -2.47306e-05)
(0.00492059 1.87997e-06 -2.68515e-05)
(0.00503894 1.77292e-06 -2.91603e-05)
(0.0051675 1.60056e-06 -3.16802e-05)
(0.00530717 1.34761e-06 -3.4427e-05)
(0.00545895 9.7438e-07 -3.74109e-05)
(0.00562388 4.17573e-07 -4.06514e-05)
(0.00580312 -3.93656e-07 -4.41807e-05)
(0.00599798 -1.51584e-06 -4.80485e-05)
(0.00620993 -2.99877e-06 -5.22946e-05)
(0.00644062 -4.9294e-06 -5.69578e-05)
(0.00669181 -7.44641e-06 -6.20798e-05)
(0.00696542 -1.07329e-05 -6.76871e-05)
(0.00726352 -1.50117e-05 -7.38145e-05)
(0.00758835 -2.05419e-05 -8.0506e-05)
(0.00794239 -2.76464e-05 -8.78177e-05)
(0.00832836 -3.67243e-05 -9.58166e-05)
(0.00874926 -4.82967e-05 -0.000104576)
(0.00920841 -6.30449e-05 -0.000114189)
(0.0097095 -8.18299e-05 -0.000124741)
(0.0102566 -0.000105705 -0.000136319)
(0.0108541 -0.000135916 -0.000149027)
(0.011507 -0.000173929 -0.000162983)
(0.0122208 -0.00022142 -0.000178321)
(0.0130019 -0.000280256 -0.000195161)
(0.0138573 -0.00035243 -0.000213661)
(0.0147952 -0.000439879 -0.000234037)
(0.0158255 -0.000544154 -0.000256496)
(0.0169594 -0.000665874 -0.000281172)
(0.0182098 -0.000803939 -0.000308075)
(0.00425389 3.43357e-06 -1.40077e-05)
(0.00431551 3.44248e-06 -1.52153e-05)
(0.00438236 3.46327e-06 -1.65187e-05)
(0.00445486 3.52426e-06 -1.79239e-05)
(0.00453347 3.62565e-06 -1.9447e-05)
(0.00461872 3.75755e-06 -2.11045e-05)
(0.00471122 3.91131e-06 -2.29082e-05)
(0.0048116 4.07081e-06 -2.48698e-05)
(0.00492055 4.21141e-06 -2.70064e-05)
(0.00503886 4.31353e-06 -2.93372e-05)
(0.00516736 4.36863e-06 -3.18776e-05)
(0.00530695 4.36426e-06 -3.46361e-05)
(0.0054586 4.26426e-06 -3.76278e-05)
(0.00562334 4.01279e-06 -4.08821e-05)
(0.00580234 3.55326e-06 -4.44445e-05)
(0.00599692 2.84724e-06 -4.83567e-05)
(0.00620855 1.85853e-06 -5.26507e-05)
(0.00643881 5.14131e-07 -5.73639e-05)
(0.00668943 -1.30703e-06 -6.25322e-05)
(0.00696229 -3.77575e-06 -6.81978e-05)
(0.00725941 -7.09593e-06 -7.43939e-05)
(0.00758301 -1.15199e-05 -8.11668e-05)
(0.00793549 -1.73569e-05 -8.85835e-05)
(0.0083195 -2.49816e-05 -9.67041e-05)
(0.0087379 -3.48838e-05 -0.000105605)
(0.00919387 -4.76868e-05 -0.000115389)
(0.00969093 -6.41923e-05 -0.000126157)
(0.0102329 -8.5393e-05 -0.000138027)
(0.0108241 -0.000112483 -0.00015112)
(0.0114693 -0.000146892 -0.000165593)
(0.0121738 -0.000190298 -0.000181614)
(0.0129436 -0.000244646 -0.000199354)
(0.0137858 -0.000312101 -0.000219069)
(0.0147088 -0.000394932 -0.000241096)
(0.0157228 -0.000495212 -0.000265808)
(0.0168403 -0.000614408 -0.000293531)
(0.0180759 -0.000752672 -0.000324528)
(0.00425373 4.72909e-06 -1.40999e-05)
(0.00431535 4.92771e-06 -1.53444e-05)
(0.00438223 5.15145e-06 -1.66822e-05)
(0.00445477 5.41943e-06 -1.81088e-05)
(0.00453341 5.73315e-06 -1.96493e-05)
(0.0046187 6.08897e-06 -2.1327e-05)
(0.00471122 6.48222e-06 -2.31498e-05)
(0.0048116 6.89988e-06 -2.51297e-05)
(0.00492053 7.32195e-06 -2.72903e-05)
(0.00503881 7.73157e-06 -2.96529e-05)
(0.00516727 8.11801e-06 -3.22273e-05)
(0.0053068 8.46953e-06 -3.50181e-05)
(0.00545836 8.76276e-06 -3.80431e-05)
(0.00562296 8.9681e-06 -4.13414e-05)
(0.00580179 9.06151e-06 -4.49656e-05)
(0.00599617 9.02221e-06 -4.89528e-05)
(0.00620755 8.81651e-06 -5.3324e-05)
(0.00643749 8.38184e-06 -5.81103e-05)
(0.00668766 7.62046e-06 -6.33492e-05)
(0.00695992 6.38849e-06 -6.90842e-05)
(0.00725626 4.51099e-06 -7.537e-05)
(0.00757882 1.77755e-06 -8.22617e-05)
(0.00792998 -2.06663e-06 -8.98269e-05)
(0.00831228 -7.34345e-06 -9.81219e-05)
(0.00872851 -1.44488e-05 -0.000107229)
(0.00918171 -2.3888e-05 -0.000117242)
(0.00967523 -3.63253e-05 -0.000128294)
(0.0102128 -5.25938e-05 -0.000140521)
(0.0107984 -7.37284e-05 -0.000154066)
(0.0114366 -0.000100961 -0.00016911)
(0.0121325 -0.000135813 -0.000185865)
(0.0128919 -0.000180105 -0.000204583)
(0.0137217 -0.000235917 -0.00022561)
(0.0146301 -0.000305581 -0.000249439)
(0.0156277 -0.000391406 -0.000276629)
(0.0167276 -0.000495499 -0.000307747)
(0.0179461 -0.000619114 -0.000343395)
(0.00425242 6.43466e-06 -1.41503e-05)
(0.00431407 6.90106e-06 -1.5414e-05)
(0.00438098 7.40735e-06 -1.67681e-05)
(0.00445355 7.95212e-06 -1.82056e-05)
(0.00453224 8.54596e-06 -1.97574e-05)
(0.00461756 9.19554e-06 -2.14461e-05)
(0.00471011 9.89961e-06 -2.32758e-05)
(0.00481051 1.06517e-05 -2.52601e-05)
(0.00491945 1.14442e-05 -2.74291e-05)
(0.00503771 1.227e-05 -2.9808e-05)
(0.00516615 1.31172e-05 -3.24074e-05)
(0.00530565 1.39748e-05 -3.52288e-05)
(0.00545716 1.48351e-05 -3.829e-05)
(0.00562171 1.57014e-05 -4.16317e-05)
(0.00580048 1.65813e-05 -4.53007e-05)
(0.00599478 1.74676e-05 -4.93304e-05)
(0.00620604 1.83362e-05 -5.37406e-05)
(0.00643579 1.91389e-05 -5.856e-05)
(0.00668568 1.98064e-05 -6.38324e-05)
(0.00695751 2.02394e-05 -6.96083e-05)
(0.00725326 2.03094e-05 -7.5943e-05)
(0.00757508 1.98753e-05 -8.28986e-05)
(0.00792526 1.87576e-05 -9.05335e-05)
(0.00830632 1.6738e-05 -9.89278e-05)
(0.00872096 1.35409e-05 -0.000108167)
(0.00917212 8.81373e-06 -0.00011836)
(0.00966303 2.08155e-06 -0.000129606)
(0.0101972 -7.2588e-06 -0.00014204)
(0.0107786 -1.99616e-05 -0.000155859)
(0.0114114 -3.69849e-05 -0.000171295)
(0.0121005 -5.9492e-05 -0.000188581)
(0.0128516 -8.88943e-05 -0.000208026)
(0.0136712 -0.000126844 -0.000230055)
(0.0145675 -0.000175234 -0.000255251)
(0.0155507 -0.000236104 -0.000284368)
(0.0166344 -0.000311608 -0.000318192)
(0.0178356 -0.00040352 -0.000357772)
(0.0042426 7.3663e-06 -1.35847e-05)
(0.00430427 8.03268e-06 -1.47803e-05)
(0.0043712 8.74958e-06 -1.60643e-05)
(0.00444379 9.49628e-06 -1.74353e-05)
(0.0045225 1.0291e-05 -1.89191e-05)
(0.00460785 1.11458e-05 -2.05335e-05)
(0.00470042 1.20597e-05 -2.22807e-05)
(0.00480084 1.30347e-05 -2.41757e-05)
(0.00490978 1.40847e-05 -2.62484e-05)
(0.00502804 1.52224e-05 -2.85247e-05)
(0.00515647 1.64406e-05 -3.10174e-05)
(0.00529596 1.7724e-05 -3.37277e-05)
(0.00544746 1.90688e-05 -3.66739e-05)
(0.00561201 2.04959e-05 -3.9886e-05)
(0.00579077 2.20359e-05 -4.34014e-05)
(0.00598505 2.36969e-05 -4.72532e-05)
(0.00619626 2.54632e-05 -5.14597e-05)
(0.00642591 2.73065e-05 -5.60574e-05)
(0.00667564 2.91982e-05 -6.10847e-05)
(0.00694725 3.10975e-05 -6.65934e-05)
(0.00724269 3.29527e-05 -7.26392e-05)
(0.00756406 3.46958e-05 -7.92753e-05)
(0.00791366 3.62387e-05 -8.65759e-05)
(0.00829396 3.7478e-05 -9.45994e-05)
(0.00870763 3.82654e-05 -0.000103426)
(0.00915753 3.84215e-05 -0.000113145)
(0.00964678 3.77042e-05 -0.000123895)
(0.0101788 3.58006e-05 -0.00013585)
(0.0107574 3.22929e-05 -0.000149136)
(0.0113867 2.66148e-05 -0.00016391)
(0.0120715 1.80826e-05 -0.000180438)
(0.0128171 5.89673e-06 -0.000199108)
(0.01363 -1.09053e-05 -0.000220411)
(0.0145185 -3.35006e-05 -0.000245043)
(0.0154927 -6.33987e-05 -0.000273893)
(0.0165657 -0.000102001 -0.000307886)
(0.0177546 -0.000150944 -0.000348229)
(0.00413867 4.40168e-06 -1.20502e-05)
(0.00419988 4.82536e-06 -1.30709e-05)
(0.00426632 5.28075e-06 -1.41742e-05)
(0.00433837 5.75214e-06 -1.53659e-05)
(0.0044165 6.25154e-06 -1.66618e-05)
(0.00450122 6.78756e-06 -1.80744e-05)
(0.00459312 7.3578e-06 -1.96075e-05)
(0.00469279 7.96666e-06 -2.12752e-05)
(0.00480092 8.62821e-06 -2.30977e-05)
(0.0049183 9.35703e-06 -2.50924e-05)
(0.00504577 1.01526e-05 -2.72714e-05)
(0.00518423 1.10042e-05 -2.9643e-05)
(0.0053346 1.19099e-05 -3.22268e-05)
(0.00549793 1.28814e-05 -3.50433e-05)
(0.00567537 1.39429e-05 -3.81189e-05)
(0.00586822 1.51051e-05 -4.14754e-05)
(0.00607786 1.6364e-05 -4.51363e-05)
(0.00630578 1.77143e-05 -4.91368e-05)
(0.00655362 1.91508e-05 -5.35089e-05)
(0.00682315 2.0671e-05 -5.83009e-05)
(0.0071163 2.22629e-05 -6.35516e-05)
(0.00743516 2.39201e-05 -6.93138e-05)
(0.00778201 2.56328e-05 -7.56409e-05)
(0.00815929 2.73755e-05 -8.25837e-05)
(0.00856962 2.91198e-05 -9.02165e-05)
(0.00901582 3.08216e-05 -9.86036e-05)
(0.00950098 3.24396e-05 -0.000107856)
(0.0100284 3.38971e-05 -0.000118083)
(0.0106019 3.50793e-05 -0.000129435)
(0.0112254 3.58388e-05 -0.000142135)
(0.0119037 3.59581e-05 -0.000156426)
(0.0126419 3.52072e-05 -0.000172642)
(0.0134465 3.32719e-05 -0.000191227)
(0.0143253 2.97375e-05 -0.000212768)
(0.0152885 2.39882e-05 -0.000237979)
(0.0163494 1.55998e-05 -0.000268071)
(0.0175251 3.8615e-06 -0.000304421)
(0.00432923 -2.20905e-06 -3.5856e-05)
(0.00439167 -2.39656e-06 -3.88474e-05)
(0.00445935 -2.60226e-06 -4.20964e-05)
(0.00453273 -2.82779e-06 -4.56188e-05)
(0.0046123 -3.08032e-06 -4.94338e-05)
(0.00469859 -3.3689e-06 -5.3574e-05)
(0.00479221 -3.69673e-06 -5.80829e-05)
(0.00489385 -4.06123e-06 -6.30073e-05)
(0.00500425 -4.4616e-06 -6.83915e-05)
(0.00512422 -4.90689e-06 -7.42732e-05)
(0.00525464 -5.40883e-06 -8.06854e-05)
(0.00539646 -5.97016e-06 -8.76634e-05)
(0.00555072 -6.59156e-06 -9.52519e-05)
(0.00571854 -7.28095e-06 -0.000103508)
(0.00590116 -8.05044e-06 -0.000112497)
(0.00609998 -8.91538e-06 -0.000122284)
(0.0063165 -9.8977e-06 -0.000132945)
(0.00655245 -1.10207e-05 -0.000144563)
(0.00680968 -1.23e-05 -0.000157228)
(0.00709027 -1.3749e-05 -0.000171039)
(0.00739648 -1.53932e-05 -0.000186106)
(0.00773085 -1.72819e-05 -0.000202552)
(0.00809622 -1.94857e-05 -0.00022051)
(0.00849578 -2.20905e-05 -0.000240104)
(0.00893307 -2.51768e-05 -0.000261457)
(0.00941199 -2.88256e-05 -0.000284679)
(0.00993686 -3.31383e-05 -0.00030988)
(0.0105124 -3.82362e-05 -0.000337161)
(0.0111436 -4.42511e-05 -0.000366603)
(0.0118363 -5.13216e-05 -0.000398252)
(0.0125961 -5.96023e-05 -0.000432117)
(0.0134295 -6.92512e-05 -0.00046815)
(0.0143428 -8.03986e-05 -0.000506225)
(0.0153424 -9.31028e-05 -0.000546101)
(0.0164341 -0.000107291 -0.000587385)
(0.0176228 -0.000122669 -0.000629498)
(0.018911 -0.000138639 -0.000671605)
(0.004439 -4.08932e-06 -4.00748e-05)
(0.00450206 -4.45605e-06 -4.3407e-05)
(0.00457043 -4.86162e-06 -4.70215e-05)
(0.00464455 -5.30889e-06 -5.09377e-05)
(0.00472493 -5.80626e-06 -5.51899e-05)
(0.00481212 -6.36657e-06 -5.98277e-05)
(0.00490674 -6.99745e-06 -6.4895e-05)
(0.00500946 -7.70244e-06 -7.04303e-05)
(0.00512102 -8.48708e-06 -7.64714e-05)
(0.00524223 -9.36455e-06 -8.30635e-05)
(0.00537397 -1.03517e-05 -9.0261e-05)
(0.00551718 -1.14571e-05 -9.81058e-05)
(0.00567291 -1.269e-05 -0.00010664)
(0.00584232 -1.4074e-05 -0.000115927)
(0.00602665 -1.56437e-05 -0.000126038)
(0.0062273 -1.74423e-05 -0.000137046)
(0.00644582 -1.95235e-05 -0.000149037)
(0.00668392 -2.1941e-05 -0.00016211)
(0.00694348 -2.47412e-05 -0.00017636)
(0.00722659 -2.79757e-05 -0.000191888)
(0.00753555 -3.17271e-05 -0.000208815)
(0.00787291 -3.6119e-05 -0.000227289)
(0.00824152 -4.13187e-05 -0.000247474)
(0.00864457 -4.75316e-05 -0.000269536)
(0.00908558 -5.49794e-05 -0.000293617)
(0.00956844 -6.39082e-05 -0.000319835)
(0.0100975 -7.46166e-05 -0.000348322)
(0.0106774 -8.74577e-05 -0.000379204)
(0.0113134 -0.000102822 -0.000412575)
(0.012011 -0.000121134 -0.000448494)
(0.0127762 -0.000142849 -0.000486994)
(0.0136155 -0.000168422 -0.000528065)
(0.0145355 -0.000198205 -0.00057161)
(0.0155428 -0.000232338 -0.00061741)
(0.0166437 -0.00027058 -0.00066505)
(0.0178434 -0.000312128 -0.000713976)
(0.0191455 -0.000355292 -0.000763384)
(0.00444612 -3.59613e-06 -4.19406e-05)
(0.00450913 -3.95963e-06 -4.54218e-05)
(0.00457744 -4.36493e-06 -4.9191e-05)
(0.00465151 -4.81293e-06 -5.32717e-05)
(0.00473184 -5.30959e-06 -5.77164e-05)
(0.00481898 -5.86564e-06 -6.25866e-05)
(0.00491356 -6.48993e-06 -6.79226e-05)
(0.00501623 -7.18919e-06 -7.37496e-05)
(0.00512773 -7.97095e-06 -8.00942e-05)
(0.00524886 -8.84832e-06 -8.70057e-05)
(0.00538048 -9.8386e-06 -9.45461e-05)
(0.00552354 -1.09583e-05 -0.000102765)
(0.00567909 -1.22301e-05 -0.000111711)
(0.00584825 -1.36909e-05 -0.000121448)
(0.00603229 -1.53903e-05 -0.000132045)
(0.00623259 -1.73901e-05 -0.000143591)
(0.0064507 -1.97639e-05 -0.000156195)
(0.00668832 -2.25877e-05 -0.000169959)
(0.00694733 -2.59379e-05 -0.000184971)
(0.00722979 -2.99071e-05 -0.000201322)
(0.00753798 -3.46261e-05 -0.000219141)
(0.00787444 -4.02729e-05 -0.00023859)
(0.00824196 -4.70814e-05 -0.000259844)
(0.00864368 -5.53444e-05 -0.000283085)
(0.00908306 -6.54089e-05 -0.00030848)
(0.00956393 -7.76812e-05 -0.000336168)
(0.0100905 -9.26475e-05 -0.00036629)
(0.0106675 -0.00011088 -0.000398983)
(0.0113 -0.000133031 -0.000434365)
(0.0119935 -0.000159819 -0.000472521)
(0.0127541 -0.000192021 -0.000513514)
(0.0135882 -0.000230401 -0.000557379)
(0.0145027 -0.000275597 -0.000604075)
(0.0155046 -0.000327937 -0.000653488)
(0.0166006 -0.000387187 -0.000705331)
(0.017797 -0.00045226 -0.000759036)
(0.0190984 -0.000520696 -0.000813732)
(0.00444641 -1.9566e-06 -4.19528e-05)
(0.00450938 -2.22305e-06 -4.54345e-05)
(0.00457764 -2.52415e-06 -4.92027e-05)
(0.00465166 -2.85763e-06 -5.32886e-05)
(0.00473194 -3.22553e-06 -5.77507e-05)
(0.00481902 -3.63406e-06 -6.26461e-05)
(0.00491354 -4.09027e-06 -6.80093e-05)
(0.00501615 -4.60251e-06 -7.386e-05)
(0.00512757 -5.18076e-06 -8.02212e-05)
(0.00524861 -5.83996e-06 -8.71384e-05)
(0.0053801 -6.60017e-06 -9.46726e-05)
(0.00552301 -7.48369e-06 -0.000102883)
(0.00567836 -8.52029e-06 -0.000111821)
(0.00584728 -9.75349e-06 -0.000121543)
(0.00603102 -1.12394e-05 -0.000132123)
(0.00623096 -1.30473e-05 -0.00014367)
(0.00644862 -1.52612e-05 -0.00015631)
(0.00668571 -1.79739e-05 -0.000170149)
(0.00694409 -2.12901e-05 -0.000185261)
(0.0072258 -2.53365e-05 -0.000201729)
(0.00753308 -3.02781e-05 -0.000219677)
(0.00786842 -3.63352e-05 -0.000239264)
(0.00823457 -4.37915e-05 -0.000260659)
(0.00863458 -5.30069e-05 -0.000284053)
(0.00907184 -6.44231e-05 -0.000309629)
(0.00955011 -7.85764e-05 -0.00033755)
(0.0100735 -9.61186e-05 -0.000367977)
(0.0106467 -0.000117816 -0.000401061)
(0.0112745 -0.000144556 -0.000436956)
(0.0119626 -0.000177338 -0.000475787)
(0.0127169 -0.000217244 -0.000517659)
(0.013544 -0.000265373 -0.00056266)
(0.014451 -0.000322703 -0.000610836)
(0.0154451 -0.000389887 -0.000662167)
(0.0165341 -0.000466939 -0.000716441)
(0.0177252 -0.000552783 -0.000773188)
(0.0190249 -0.000644592 -0.000831599)
(0.00444625 -5.01047e-07 -4.15005e-05)
(0.00450918 -6.81291e-07 -4.49537e-05)
(0.00457742 -8.86954e-07 -4.86965e-05)
(0.00465141 -1.11249e-06 -5.27659e-05)
(0.00473166 -1.3574e-06 -5.7213e-05)
(0.00481872 -1.62425e-06 -6.20786e-05)
(0.00491319 -1.91935e-06 -6.73942e-05)
(0.00501575 -2.25302e-06 -7.31858e-05)
(0.00512712 -2.63861e-06 -7.94803e-05)
(0.00524807 -3.09418e-06 -8.63205e-05)
(0.00537946 -3.64139e-06 -9.37688e-05)
(0.00552224 -4.30548e-06 -0.000101888)
(0.00567742 -5.12051e-06 -0.000110726)
(0.00584613 -6.13285e-06 -0.000120334)
(0.00602959 -7.39993e-06 -0.000130791)
(0.00622918 -8.99242e-06 -0.000142215)
(0.00644641 -1.09974e-05 -0.000154743)
(0.00668297 -1.35197e-05 -0.000168481)
(0.00694069 -1.66856e-05 -0.000183515)
(0.0072216 -2.06479e-05 -0.000199923)
(0.00752789 -2.56016e-05 -0.00021782)
(0.00786199 -3.17954e-05 -0.000237349)
(0.00822659 -3.95472e-05 -0.000258672)
(0.00862466 -4.92702e-05 -0.000281985)
(0.00905949 -6.14782e-05 -0.000307491)
(0.00953473 -7.68088e-05 -0.00033539)
(0.0100544 -9.60385e-05 -0.000365848)
(0.0106229 -0.000120092 -0.000399044)
(0.0112452 -0.00015006 -0.000435173)
(0.0119267 -0.000187182 -0.000474425)
(0.0126733 -0.000232834 -0.000516987)
(0.0134915 -0.00028845 -0.000563024)
(0.0143887 -0.000355406 -0.0006127)
(0.0153727 -0.000434792 -0.000666125)
(0.0164519 -0.000527059 -0.000723228)
(0.017635 -0.0006315 -0.000783734)
(0.0189307 -0.000745441 -0.000846985)
(0.00444613 6.25794e-07 -4.11584e-05)
(0.00450905 5.16258e-07 -4.4605e-05)
(0.00457727 3.93112e-07 -4.83454e-05)
(0.00465125 2.62951e-07 -5.24179e-05)
(0.00473148 1.27085e-07 -5.68586e-05)
(0.00481852 -1.63452e-08 -6.16992e-05)
(0.00491297 -1.74725e-07 -6.69734e-05)
(0.0050155 -3.60106e-07 -7.27148e-05)
(0.00512681 -5.8783e-07 -7.89565e-05)
(0.00524769 -8.76753e-07 -8.57445e-05)
(0.00537899 -1.2477e-06 -9.31418e-05)
(0.00552165 -1.72669e-06 -0.000101207)
(0.00567667 -2.34922e-06 -0.000109985)
(0.00584517 -3.16242e-06 -0.000119529)
(0.00602837 -4.22292e-06 -0.000129921)
(0.00622763 -5.59917e-06 -0.000141283)
(0.00644443 -7.37533e-06 -0.000153742)
(0.00668046 -9.65813e-06 -0.000167417)
(0.00693752 -1.25827e-05 -0.000182403)
(0.0072176 -1.63176e-05 -0.000198786)
(0.00752284 -2.10787e-05 -0.000216676)
(0.00785563 -2.71329e-05 -0.000236206)
(0.00821857 -3.48209e-05 -0.000257543)
(0.00861454 -4.4583e-05 -0.000280881)
(0.00904671 -5.69726e-05 -0.000306426)
(0.00951862 -7.26859e-05 -0.000334409)
(0.0100341 -9.25706e-05 -0.000365039)
(0.0105975 -0.000117658 -0.000398536)
(0.0112136 -0.000149176 -0.00043514)
(0.0118875 -0.000188548 -0.000475125)
(0.0126251 -0.000237387 -0.000518777)
(0.013433 -0.00029744 -0.000566367)
(0.0143184 -0.000370488 -0.000618205)
(0.0152898 -0.000458132 -0.0006746)
(0.0163563 -0.000561427 -0.000735765)
(0.017528 -0.000680339 -0.000801685)
(0.018816 -0.000812914 -0.000872004)
(0.00444606 1.51515e-06 -4.10484e-05)
(0.00450897 1.4742e-06 -4.45165e-05)
(0.00457719 1.43144e-06 -4.82791e-05)
(0.00465117 1.39365e-06 -5.23682e-05)
(0.0047314 1.36232e-06 -5.68157e-05)
(0.00481844 1.33423e-06 -6.16545e-05)
(0.00491288 1.30011e-06 -6.69209e-05)
(0.00501537 1.24756e-06 -7.26512e-05)
(0.00512665 1.16186e-06 -7.88858e-05)
(0.00524747 1.02619e-06 -8.56746e-05)
(0.00537869 8.2112e-07 -9.30744e-05)
(0.00552123 5.20965e-07 -0.000101135)
(0.00567611 9.13065e-08 -0.000109903)
(0.00584442 -5.12967e-07 -0.000119445)
(0.00602737 -1.34421e-06 -0.000129853)
(0.00622631 -2.46073e-06 -0.000141246)
(0.00644272 -3.93675e-06 -0.000153736)
(0.00667824 -5.87329e-06 -0.000167438)
(0.00693465 -8.40666e-06 -0.000182461)
(0.0072139 -1.17124e-05 -0.000198902)
(0.00751809 -1.60113e-05 -0.000216879)
(0.00784955 -2.1573e-05 -0.000236524)
(0.00821079 -2.87413e-05 -0.000258013)
(0.00860462 -3.79514e-05 -0.000281529)
(0.00903408 -4.9755e-05 -0.000307294)
(0.00950255 -6.48538e-05 -0.000335563)
(0.0100138 -8.41133e-05 -0.000366588)
(0.0105718 -0.000108599 -0.000400648)
(0.0111812 -0.000139593 -0.000438041)
(0.011847 -0.000178616 -0.000479139)
(0.0125749 -0.000227424 -0.000524322)
(0.0133714 -0.000287999 -0.000574013)
(0.0142437 -0.00036246 -0.00062872)
(0.0152005 -0.000452896 -0.000689033)
(0.0162516 -0.00056105 -0.00075555)
(0.0174085 -0.000687789 -0.000828685)
(0.0186844 -0.000832306 -0.000908542)
(0.00444606 2.45332e-06 -4.11493e-05)
(0.00450897 2.51542e-06 -4.46752e-05)
(0.0045772 2.58566e-06 -4.84921e-05)
(0.00465119 2.66995e-06 -5.26174e-05)
(0.00473143 2.7713e-06 -5.70914e-05)
(0.00481847 2.88626e-06 -6.19582e-05)
(0.0049129 3.00433e-06 -6.72524e-05)
(0.00501538 3.11447e-06 -7.30111e-05)
(0.00512662 3.20504e-06 -7.92833e-05)
(0.0052474 3.26251e-06 -8.61194e-05)
(0.00537855 3.26802e-06 -9.35661e-05)
(0.005521 3.19811e-06 -0.000101663)
(0.00567575 3.02317e-06 -0.000110464)
(0.00584389 2.70668e-06 -0.000120052)
(0.00602664 2.20937e-06 -0.000130541)
(0.00622531 1.48211e-06 -0.000142045)
(0.00644138 4.62115e-07 -0.000154657)
(0.00667646 -9.41821e-07 -0.000168481)
(0.00693229 -2.85363e-06 -0.000183629)
(0.00721077 -5.43101e-06 -0.000200218)
(0.00751399 -8.87867e-06 -0.000218373)
(0.0078442 -1.34505e-05 -0.000238239)
(0.00820385 -1.94705e-05 -0.000259999)
(0.00859565 -2.73396e-05 -0.000283838)
(0.00902252 -3.75736e-05 -0.000309993)
(0.00948771 -5.08274e-05 -0.000338736)
(0.00999478 -6.79131e-05 -0.000370376)
(0.0105476 -8.98401e-05 -0.000405248)
(0.0111506 -0.000117848 -0.000443717)
(0.0118084 -0.000153436 -0.000486248)
(0.0125267 -0.00019837 -0.000533337)
(0.0133114 -0.000254712 -0.000585582)
(0.0141701 -0.000324762 -0.000643742)
(0.0151112 -0.000410946 -0.000708781)
(0.0161452 -0.00051559 -0.000781744)
(0.0172845 -0.000640498 -0.00086365)
(0.0185442 -0.000786205 -0.000955319)
(0.00444612 3.50791e-06 -4.13593e-05)
(0.00450906 3.71708e-06 -4.49577e-05)
(0.0045773 3.94634e-06 -4.8841e-05)
(0.00465132 4.19462e-06 -5.3013e-05)
(0.00473158 4.46851e-06 -5.75272e-05)
(0.00481864 4.76534e-06 -6.24363e-05)
(0.00491308 5.07523e-06 -6.77699e-05)
(0.00501556 5.39108e-06 -7.3569e-05)
(0.00512679 5.7088e-06 -7.98926e-05)
(0.00524754 6.02111e-06 -8.67945e-05)
(0.00537865 6.30892e-06 -9.43152e-05)
(0.00552105 6.55122e-06 -0.000102485)
(0.00567571 6.72718e-06 -0.000111366)
(0.00584374 6.81868e-06 -0.000121059)
(0.00602634 6.80385e-06 -0.000131682)
(0.00622482 6.64297e-06 -0.00014334)
(0.00644064 6.2864e-06 -0.000156108)
(0.00667537 5.65711e-06 -0.000170089)
(0.00693075 4.65597e-06 -0.000185396)
(0.00720863 3.1491e-06 -0.000202162)
(0.00751106 9.61382e-07 -0.000220527)
(0.00784023 -2.11409e-06 -0.000240658)
(0.00819854 -6.34839e-06 -0.000262742)
(0.00858861 -1.20817e-05 -0.000286978)