/*--------------------------------*- C++ -*----------------------------------*\
| =========                 |                                                 |
| \\      /  F ield         | OpenFOAM: The Open Source CFD Toolbox           |
|  \\    /   O peration     | Version:  2.3.1                                 |
|   \\  /    A nd           | Web:      www.OpenFOAM.org                      |
|    \\/     M anipulation  |                                                 |
\*---------------------------------------------------------------------------*/
FoamFile
{
    version     2.0;
    format      ascii;
    class       volVectorField;
    location    "5";
    object      U_0;
}
// * * * * * * * * * * * * * * * * * * * * * * * * * * * * * * * * * * * * * //

dimensions      [0 1 -1 0 0 0 0];

internalField   nonuniform List<vector> 
37530
(
(0.00413906 -4.26613e-06 -1.22214e-05)
(0.00420034 -4.63086e-06 -1.32402e-05)
(0.00426676 -5.02674e-06 -1.43467e-05)
(0.00433878 -5.45749e-06 -1.55457e-05)
(0.00441685 -5.93431e-06 -1.68433e-05)
(0.00450152 -6.47132e-06 -1.82501e-05)
(0.00459339 -7.07287e-06 -1.97824e-05)
(0.00469313 -7.73505e-06 -2.14572e-05)
(0.00480147 -8.45526e-06 -2.32903e-05)
(0.00491921 -9.24157e-06 -2.52959e-05)
(0.00504721 -1.01115e-05 -2.74845e-05)
(0.00518642 -1.10756e-05 -2.98664e-05)
(0.00533785 -1.21387e-05 -3.2456e-05)
(0.00550261 -1.33131e-05 -3.52719e-05)
(0.00568191 -1.46159e-05 -3.83359e-05)
(0.00587711 -1.60658e-05 -4.16718e-05)
(0.00608971 -1.76887e-05 -4.53038e-05)
(0.00632138 -1.95124e-05 -4.92603e-05)
(0.00657397 -2.15592e-05 -5.35727e-05)
(0.00684951 -2.38503e-05 -5.82749e-05)
(0.00715022 -2.64194e-05 -6.34042e-05)
(0.00747859 -2.93223e-05 -6.90038e-05)
(0.0078374 -3.26332e-05 -7.51215e-05)
(0.00822979 -3.64417e-05 -8.18018e-05)
(0.00865928 -4.08368e-05 -8.90859e-05)
(0.00912971 -4.59092e-05 -9.70116e-05)
(0.00964531 -5.17683e-05 -0.000105615)
(0.0102107 -5.85416e-05 -0.000114932)
(0.010831 -6.63639e-05 -0.000124991)
(0.0115116 -7.53792e-05 -0.000135808)
(0.0122583 -8.57432e-05 -0.000147385)
(0.0130772 -9.76121e-05 -0.000159708)
(0.0139748 -0.000111112 -0.000172733)
(0.0149571 -0.000126298 -0.000186381)
(0.01603 -0.000143101 -0.000200511)
(0.017198 -0.000161197 -0.000214924)
(0.0184636 -0.000179931 -0.000229306)
(0.00424293 -6.54541e-06 -1.39067e-05)
(0.00430465 -7.1376e-06 -1.50593e-05)
(0.00437157 -7.78113e-06 -1.63086e-05)
(0.00444411 -8.48508e-06 -1.76606e-05)
(0.00452275 -9.27078e-06 -1.91262e-05)
(0.00460804 -1.01604e-05 -2.07262e-05)
(0.00470059 -1.11577e-05 -2.24783e-05)
(0.00480108 -1.22526e-05 -2.43941e-05)
(0.00491023 -1.34399e-05 -2.64875e-05)
(0.00502883 -1.47325e-05 -2.87752e-05)
(0.00515775 -1.616e-05 -3.12767e-05)
(0.00529794 -1.77479e-05 -3.40058e-05)
(0.00545042 -1.95159e-05 -3.69721e-05)
(0.0056163 -2.14926e-05 -4.01965e-05)
(0.0057968 -2.37177e-05 -4.37059e-05)
(0.00599329 -2.62449e-05 -4.75228e-05)
(0.00620727 -2.91408e-05 -5.16766e-05)
(0.00644043 -3.24684e-05 -5.62032e-05)
(0.00669464 -3.6278e-05 -6.11354e-05)
(0.00697192 -4.0623e-05 -6.65052e-05)
(0.00727449 -4.55893e-05 -7.23529e-05)
(0.00760485 -5.13046e-05 -7.87348e-05)
(0.00796577 -5.79353e-05 -8.57138e-05)
(0.00836041 -6.56901e-05 -9.33526e-05)
(0.00879226 -7.48052e-05 -0.000101702)
(0.00926517 -8.55416e-05 -0.000110797)
(0.00978336 -9.82046e-05 -0.000120681)
(0.0103515 -0.000113149 -0.000131401)
(0.0109746 -0.00013077 -0.000142986)
(0.0116581 -0.000151496 -0.000155451)
(0.012408 -0.000175773 -0.000168806)
(0.0132304 -0.000204051 -0.000183048)
(0.0141318 -0.000236681 -0.000198142)
(0.0151185 -0.000273767 -0.000214002)
(0.0161967 -0.000315026 -0.000230461)
(0.0173708 -0.000359625 -0.000247339)
(0.0186441 -0.000405861 -0.000264402)
(0.00425272 -4.55576e-06 -1.44975e-05)
(0.00431442 -5.04238e-06 -1.56951e-05)
(0.00438131 -5.57522e-06 -1.69895e-05)
(0.00445382 -6.16427e-06 -1.83868e-05)
(0.00453241 -6.8267e-06 -1.99083e-05)
(0.00461765 -7.57344e-06 -2.15834e-05)
(0.00471016 -8.40235e-06 -2.34263e-05)
(0.00481062 -9.30591e-06 -2.54411e-05)
(0.00491975 -1.02812e-05 -2.76338e-05)
(0.00503831 -1.13403e-05 -3.00207e-05)
(0.00516716 -1.251e-05 -3.26274e-05)
(0.00530725 -1.38233e-05 -3.54714e-05)
(0.00545959 -1.53151e-05 -3.85648e-05)
(0.00562529 -1.70239e-05 -4.19289e-05)
(0.00580557 -1.90044e-05 -4.55871e-05)
(0.00600176 -2.13379e-05 -4.9569e-05)
(0.00621539 -2.4118e-05 -5.39161e-05)
(0.00644814 -2.74278e-05 -5.86652e-05)
(0.00670187 -3.13406e-05 -6.38424e-05)
(0.00697859 -3.59401e-05 -6.94734e-05)
(0.00728051 -4.13488e-05 -7.56024e-05)
(0.00761007 -4.7732e-05 -8.229e-05)
(0.00797002 -5.53054e-05 -8.96021e-05)
(0.00836344 -6.43538e-05 -9.76097e-05)
(0.00879378 -7.52324e-05 -0.000106371)
(0.00926483 -8.83644e-05 -0.000115929)
(0.00978076 -0.000104227 -0.000126328)
(0.0103461 -0.000123381 -0.000137614)
(0.010966 -0.000146479 -0.000149822)
(0.0116457 -0.000174237 -0.000162973)
(0.0123912 -0.000207411 -0.00017708)
(0.0132086 -0.000246746 -0.000192145)
(0.0141047 -0.000292856 -0.000208152)
(0.0150858 -0.00034599 -0.000225073)
(0.0161586 -0.000405838 -0.000242828)
(0.0173294 -0.000471314 -0.000261205)
(0.0186023 -0.000539969 -0.000279869)
(0.00425394 -1.95985e-06 -1.43654e-05)
(0.00431562 -2.29638e-06 -1.55511e-05)
(0.00438247 -2.67366e-06 -1.68308e-05)
(0.00445493 -3.09627e-06 -1.82149e-05)
(0.00453347 -3.56425e-06 -1.97298e-05)
(0.00461866 -4.07175e-06 -2.14016e-05)
(0.00471113 -4.61557e-06 -2.32406e-05)
(0.00481155 -5.20022e-06 -2.52484e-05)
(0.00492063 -5.83511e-06 -2.7427e-05)
(0.00503912 -6.53539e-06 -2.97918e-05)
(0.00516788 -7.32588e-06 -3.23685e-05)
(0.00530784 -8.24069e-06 -3.51771e-05)
(0.00546002 -9.31637e-06 -3.82338e-05)
(0.00562551 -1.05962e-05 -4.15547e-05)
(0.00580551 -1.21455e-05 -4.51624e-05)
(0.00600134 -1.40538e-05 -4.90984e-05)
(0.00621451 -1.64207e-05 -5.3413e-05)
(0.00644674 -1.93461e-05 -5.81445e-05)
(0.00669986 -2.29331e-05 -6.33134e-05)
(0.00697587 -2.7299e-05 -6.89387e-05)
(0.00727693 -3.25919e-05 -7.50627e-05)
(0.00760544 -3.90037e-05 -8.17426e-05)
(0.0079641 -4.67908e-05 -8.90391e-05)
(0.00835591 -5.62929e-05 -9.70218e-05)
(0.00878422 -6.79482e-05 -0.000105755)
(0.00925278 -8.22993e-05 -0.00011529)
(0.00976566 -9.99936e-05 -0.000125684)
(0.0103273 -0.000121781 -0.000136986)
(0.0109428 -0.000148537 -0.000149245)
(0.0116173 -0.000181248 -0.000162493)
(0.0123567 -0.00022097 -0.000176755)
(0.0131673 -0.000268748 -0.000192051)
(0.0140559 -0.000325496 -0.000208389)
(0.0150295 -0.000391772 -0.000225779)
(0.0160957 -0.000467523 -0.000244157)
(0.0172616 -0.000551628 -0.000263341)
(0.0185333 -0.000641214 -0.000283039)
(0.00425394 -4.08283e-08 -1.41577e-05)
(0.00431558 -2.79076e-07 -1.53293e-05)
(0.0043824 -5.50573e-07 -1.65963e-05)
(0.00445483 -8.4965e-07 -1.79736e-05)
(0.00453335 -1.16434e-06 -1.9484e-05)
(0.00461853 -1.48119e-06 -2.1143e-05)
(0.00471098 -1.80163e-06 -2.29595e-05)
(0.00481137 -2.1411e-06 -2.49387e-05)
(0.0049204 -2.52039e-06 -2.70854e-05)
(0.00503883 -2.96084e-06 -2.94145e-05)
(0.0051675 -3.48722e-06 -3.19501e-05)
(0.00530734 -4.12939e-06 -3.47159e-05)
(0.00545936 -4.92321e-06 -3.77271e-05)
(0.00562464 -5.9188e-06 -4.09942e-05)
(0.00580435 -7.18442e-06 -4.45419e-05)
(0.00599981 -8.80157e-06 -4.84174e-05)
(0.00621252 -1.08609e-05 -5.26755e-05)
(0.00644418 -1.34711e-05 -5.73584e-05)
(0.00669662 -1.67649e-05 -6.24869e-05)
(0.00697182 -2.08925e-05 -6.80793e-05)
(0.0072719 -2.60283e-05 -7.41723e-05)
(0.00759922 -3.23889e-05 -8.08156e-05)
(0.0079564 -4.0264e-05 -8.80637e-05)
(0.00834635 -5.00381e-05 -9.59859e-05)
(0.00877232 -6.22139e-05 -0.000104664)
(0.00923793 -7.74277e-05 -0.00011417)
(0.00974716 -9.64551e-05 -0.000124546)
(0.0103044 -0.000120205 -0.000135849)
(0.0109143 -0.000149742 -0.000148138)
(0.0115823 -0.000186289 -0.000161478)
(0.0123142 -0.000231175 -0.000175919)
(0.0131162 -0.000285759 -0.000191508)
(0.0139954 -0.000351316 -0.000208295)
(0.0149593 -0.000428827 -0.000226334)
(0.0160161 -0.000518647 -0.000245601)
(0.0171745 -0.000619975 -0.000265983)
(0.0184427 -0.000730066 -0.000287243)
(0.00425381 1.31269e-06 -1.40149e-05)
(0.00431542 1.14446e-06 -1.51849e-05)
(0.00438222 9.58848e-07 -1.64531e-05)
(0.00445464 7.70163e-07 -1.78358e-05)
(0.00453317 5.91047e-07 -1.93469e-05)
(0.00461836 4.27989e-07 -2.09962e-05)
(0.00471081 2.73883e-07 -2.27935e-05)
(0.00481117 1.09498e-07 -2.4749e-05)
(0.00492016 -9.09649e-08 -2.68726e-05)
(0.00503852 -3.51805e-07 -2.91793e-05)
(0.0051671 -6.93217e-07 -3.16942e-05)
(0.00530681 -1.13692e-06 -3.44406e-05)
(0.00545867 -1.71983e-06 -3.7429e-05)
(0.00562374 -2.5003e-06 -4.06709e-05)
(0.00580318 -3.5478e-06 -4.41935e-05)
(0.00599829 -4.93275e-06 -4.80432e-05)
(0.00621057 -6.72965e-06 -5.22736e-05)
(0.00644167 -9.042e-06 -5.69275e-05)
(0.00669343 -1.20115e-05 -6.2036e-05)
(0.00696777 -1.58096e-05 -6.76226e-05)
(0.00726682 -2.06374e-05 -7.37166e-05)
(0.00759286 -2.67424e-05 -8.03605e-05)
(0.00794844 -3.4442e-05 -8.76124e-05)
(0.00833636 -4.41425e-05 -9.55434e-05)
(0.00875976 -5.63762e-05 -0.000104228)
(0.00922213 -7.18313e-05 -0.000113745)
(0.0097273 -9.13469e-05 -0.000124166)
(0.0102795 -0.000115941 -0.000135555)
(0.0108833 -0.000146811 -0.000147991)
(0.011544 -0.000185349 -0.000161566)
(0.0122671 -0.000233103 -0.000176369)
(0.0130591 -0.000291727 -0.000192485)
(0.013927 -0.000362884 -0.00021)
(0.0148788 -0.000448052 -0.00022904)
(0.0159236 -0.000548166 -0.000249675)
(0.0170713 -0.000663033 -0.000271883)
(0.0183326 -0.000790549 -0.000295529)
(0.00425369 2.33995e-06 -1.39684e-05)
(0.00431529 2.23724e-06 -1.51486e-05)
(0.00438209 2.13404e-06 -1.64264e-05)
(0.00445452 2.05314e-06 -1.78161e-05)
(0.00453307 2.00091e-06 -1.93297e-05)
(0.00461827 1.97117e-06 -2.09766e-05)
(0.00471072 1.95397e-06 -2.27682e-05)
(0.00481107 1.93142e-06 -2.47175e-05)
(0.00492002 1.87779e-06 -2.68373e-05)
(0.00503832 1.77101e-06 -2.91451e-05)
(0.00516682 1.59889e-06 -3.16637e-05)
(0.00530644 1.34614e-06 -3.44092e-05)
(0.00545815 9.731e-07 -3.73917e-05)
(0.00562301 4.16522e-07 -4.06307e-05)
(0.00580218 -3.94402e-07 -4.41586e-05)
(0.00599697 -1.51617e-06 -4.80248e-05)
(0.00620884 -2.99858e-06 -5.22694e-05)
(0.00643944 -4.92858e-06 -5.6931e-05)
(0.00669054 -7.44483e-06 -6.20513e-05)
(0.00696406 -1.07304e-05 -6.76568e-05)
(0.00726206 -1.50082e-05 -7.37825e-05)
(0.00758678 -2.05372e-05 -8.04721e-05)
(0.00794071 -2.76404e-05 -8.77821e-05)
(0.00832657 -3.67168e-05 -9.57792e-05)
(0.00874735 -4.82881e-05 -0.000104537)
(0.00920638 -6.30356e-05 -0.000114148)
(0.00970735 -8.18214e-05 -0.000124699)
(0.0102543 -0.0001057 -0.000136276)
(0.0108517 -0.000135918 -0.000148983)
(0.0115045 -0.000173945 -0.000162939)
(0.0122182 -0.00022146 -0.000178276)
(0.0129991 -0.000280339 -0.000195117)
(0.0138544 -0.000352581 -0.000213618)
(0.0147922 -0.000440139 -0.000233996)
(0.0158224 -0.000544584 -0.00025646)
(0.0169563 -0.000666566 -0.000281141)
(0.0182066 -0.000805027 -0.000308056)
(0.00425361 3.42874e-06 -1.40001e-05)
(0.0043152 3.4374e-06 -1.5207e-05)
(0.00438202 3.45802e-06 -1.65097e-05)
(0.00445449 3.51892e-06 -1.79142e-05)
(0.00453306 3.6203e-06 -1.94365e-05)
(0.00461828 3.75224e-06 -2.10931e-05)
(0.00471074 3.90605e-06 -2.28958e-05)
(0.00481107 4.06554e-06 -2.48565e-05)
(0.00491998 4.20608e-06 -2.6992e-05)
(0.00503824 4.30806e-06 -2.93216e-05)
(0.00516668 4.36295e-06 -3.18609e-05)
(0.00530622 4.3583e-06 -3.4618e-05)
(0.0054578 4.25797e-06 -3.76083e-05)
(0.00562247 4.00618e-06 -4.08612e-05)
(0.0058014 3.5464e-06 -4.44221e-05)
(0.00599591 2.84022e-06 -4.83326e-05)
(0.00620746 1.85144e-06 -5.2625e-05)
(0.00643763 5.0707e-07 -5.73365e-05)
(0.00668816 -1.31397e-06 -6.2503e-05)
(0.00696092 -3.78251e-06 -6.81668e-05)
(0.00725794 -7.10243e-06 -7.4361e-05)
(0.00758144 -1.15261e-05 -8.1132e-05)
(0.00793381 -1.73628e-05 -8.85469e-05)
(0.00831771 -2.49874e-05 -9.66655e-05)
(0.00873599 -3.48896e-05 -0.000105565)
(0.00919184 -4.76932e-05 -0.000115347)
(0.00968878 -6.42007e-05 -0.000126113)
(0.0102307 -8.54055e-05 -0.000137982)
(0.0108217 -0.000112503 -0.000151073)
(0.0114668 -0.000146926 -0.000165545)
(0.0121711 -0.000190355 -0.000181564)
(0.0129408 -0.000244742 -0.000199303)
(0.0137829 -0.000312259 -0.000219017)
(0.0147057 -0.000395188 -0.000241042)
(0.0157196 -0.000495622 -0.000265754)
(0.0168369 -0.000615055 -0.000293478)
(0.0180723 -0.000753679 -0.000324479)
(0.00425345 4.72286e-06 -1.40922e-05)
(0.00431504 4.92108e-06 -1.53359e-05)
(0.00438189 5.14445e-06 -1.6673e-05)
(0.0044544 5.41209e-06 -1.80989e-05)
(0.00453301 5.72549e-06 -1.96386e-05)
(0.00461826 6.081e-06 -2.13153e-05)
(0.00471073 6.47389e-06 -2.31372e-05)
(0.00481107 6.89111e-06 -2.5116e-05)
(0.00491996 7.31266e-06 -2.72755e-05)
(0.00503819 7.72166e-06 -2.9637e-05)
(0.00516659 8.10738e-06 -3.22102e-05)
(0.00530607 8.45807e-06 -3.49996e-05)
(0.00545756 8.75037e-06 -3.80232e-05)
(0.00562209 8.95475e-06 -4.13199e-05)
(0.00580085 9.0472e-06 -4.49426e-05)
(0.00599516 9.00698e-06 -4.89281e-05)
(0.00620646 8.8004e-06 -5.32976e-05)
(0.00643631 8.36491e-06 -5.80821e-05)
(0.00668639 7.6027e-06 -6.33191e-05)
(0.00695856 6.36985e-06 -6.90522e-05)
(0.0072548 4.4914e-06 -7.5336e-05)
(0.00757725 1.75687e-06 -8.22257e-05)
(0.0079283 -2.08854e-06 -8.97888e-05)
(0.00831049 -7.3668e-06 -9.80817e-05)
(0.0087266 -1.44739e-05 -0.000107187)
(0.00917968 -2.39155e-05 -0.000117198)
(0.00967307 -3.63564e-05 -0.000128247)
(0.0102105 -5.26304e-05 -0.000140472)
(0.010796 -7.37737e-05 -0.000154015)
(0.011434 -0.00010102 -0.000169057)
(0.0121298 -0.000135893 -0.000185809)
(0.012889 -0.00018022 -0.000204523)
(0.0137187 -0.000236087 -0.000225547)
(0.0146269 -0.000305835 -0.000249372)
(0.0156243 -0.00039179 -0.000276557)
(0.016724 -0.000496083 -0.000307669)
(0.0179421 -0.000620003 -0.000343313)
(0.00425214 6.42685e-06 -1.41425e-05)
(0.00431376 6.89269e-06 -1.54055e-05)
(0.00438064 7.3984e-06 -1.67589e-05)
(0.00445318 7.94256e-06 -1.81956e-05)
(0.00453184 8.53574e-06 -1.97466e-05)
(0.00461712 9.18461e-06 -2.14344e-05)
(0.00470963 9.88786e-06 -2.32631e-05)
(0.00480998 1.0639e-05 -2.52464e-05)
(0.00491888 1.14306e-05 -2.74143e-05)
(0.00503709 1.22553e-05 -2.97921e-05)
(0.00516547 1.31012e-05 -3.23902e-05)
(0.00530492 1.39575e-05 -3.52103e-05)
(0.00545636 1.48163e-05 -3.827e-05)
(0.00562085 1.56809e-05 -4.16103e-05)
(0.00579954 1.65591e-05 -4.52777e-05)
(0.00599377 1.74438e-05 -4.93057e-05)
(0.00620495 1.83106e-05 -5.37142e-05)
(0.00643461 1.91114e-05 -5.85318e-05)
(0.00668441 1.9777e-05 -6.38023e-05)
(0.00695615 2.02078e-05 -6.95762e-05)
(0.0072518 2.02755e-05 -7.59089e-05)
(0.00757351 1.98388e-05 -8.28625e-05)
(0.00792358 1.87182e-05 -9.04952e-05)
(0.00830452 1.66953e-05 -9.88874e-05)
(0.00871905 1.34945e-05 -0.000108125)
(0.00917009 8.76275e-06 -0.000118315)
(0.00966087 2.02487e-06 -0.000129559)
(0.0101949 -7.32272e-06 -0.00014199)
(0.0107761 -2.00354e-05 -0.000155807)
(0.0114088 -3.70728e-05 -0.00017124)
(0.0120978 -5.96001e-05 -0.000188522)
(0.0128487 -8.90324e-05 -0.000207963)
(0.0136681 -0.000127027 -0.000229986)
(0.0145642 -0.000175484 -0.000255175)
(0.0155472 -0.000236456 -0.000284283)
(0.0166305 -0.000312115 -0.000318096)
(0.0178313 -0.00040426 -0.000357664)
(0.00424234 7.35805e-06 -1.35776e-05)
(0.00430397 8.02381e-06 -1.47726e-05)
(0.00437087 8.74002e-06 -1.60559e-05)
(0.00444343 9.48596e-06 -1.74263e-05)
(0.0045221 1.02798e-05 -1.89093e-05)
(0.00460742 1.11337e-05 -2.05229e-05)
(0.00469995 1.20465e-05 -2.22693e-05)
(0.00480032 1.30205e-05 -2.41633e-05)
(0.00490922 1.40693e-05 -2.62351e-05)
(0.00502743 1.52056e-05 -2.85104e-05)
(0.0051558 1.64223e-05 -3.1002e-05)
(0.00529524 1.77041e-05 -3.37111e-05)
(0.00544667 1.90472e-05 -3.66561e-05)
(0.00561115 2.04724e-05 -3.98669e-05)
(0.00578984 2.20103e-05 -4.3381e-05)
(0.00598405 2.36692e-05 -4.72314e-05)
(0.00619518 2.54333e-05 -5.14364e-05)
(0.00642474 2.72742e-05 -5.60325e-05)
(0.00667439 2.91633e-05 -6.10582e-05)
(0.0069459 3.10597e-05 -6.65653e-05)
(0.00724123 3.29119e-05 -7.26094e-05)
(0.0075625 3.46514e-05 -7.92438e-05)
(0.00791199 3.61905e-05 -8.65427e-05)
(0.00829218 3.74255e-05 -9.45645e-05)
(0.00870573 3.8208e-05 -0.000103389)
(0.00915551 3.83584e-05 -0.000113107)
(0.00964463 3.76344e-05 -0.000123855)
(0.0101765 3.57229e-05 -0.000135808)
(0.010755 3.22053e-05 -0.000149092)
(0.0113842 2.6514e-05 -0.000163863)
(0.0120688 1.79649e-05 -0.000180389)
(0.0128142 5.75544e-06 -0.000199054)
(0.013627 -1.108e-05 -0.000220352)
(0.0145152 -3.37248e-05 -0.000244978)
(0.0154891 -6.36913e-05 -0.000273817)
(0.0165617 -0.000102395 -0.000307797)
(0.01775 -0.000151487 -0.000348126)
(0.00413845 4.39684e-06 -1.20454e-05)
(0.00419964 4.82014e-06 -1.30656e-05)
(0.00426605 5.27511e-06 -1.41685e-05)
(0.00433807 5.74603e-06 -1.53598e-05)
(0.00441616 6.24491e-06 -1.66552e-05)
(0.00450085 6.78035e-06 -1.80673e-05)
(0.00459271 7.34995e-06 -1.95999e-05)
(0.00469233 7.95813e-06 -2.1267e-05)
(0.00480042 8.61894e-06 -2.30889e-05)
(0.00491775 9.34696e-06 -2.5083e-05)
(0.00504517 1.01416e-05 -2.72614e-05)
(0.00518357 1.09923e-05 -2.96323e-05)
(0.00533388 1.18969e-05 -3.22153e-05)
(0.00549714 1.28673e-05 -3.50312e-05)
(0.00567452 1.39276e-05 -3.8106e-05)
(0.00586729 1.50884e-05 -4.14618e-05)
(0.00607685 1.6346e-05 -4.51219e-05)
(0.00630469 1.76948e-05 -4.91216e-05)
(0.00655244 1.91296e-05 -5.3493e-05)
(0.00682188 2.0648e-05 -5.82844e-05)
(0.00711493 2.22379e-05 -6.35344e-05)
(0.00743369 2.38929e-05 -6.92961e-05)
(0.00778043 2.56033e-05 -7.56227e-05)
(0.0081576 2.73434e-05 -8.25652e-05)
(0.00856782 2.90847e-05 -9.01979e-05)
(0.0090139 3.07831e-05 -9.8585e-05)
(0.00949893 3.23974e-05 -0.000107837)
(0.0100263 3.38505e-05 -0.000118064)
(0.0105996 3.50273e-05 -0.000129417)
(0.011223 3.57804e-05 -0.000142117)
(0.0119011 3.58915e-05 -0.000156407)
(0.0126391 3.51298e-05 -0.000172622)
(0.0134435 3.31799e-05 -0.000191203)
(0.0143221 2.96232e-05 -0.000212738)
(0.015285 2.38485e-05 -0.000237942)
(0.0163455 1.54229e-05 -0.000268025)
(0.0175207 3.6306e-06 -0.000304363)
(0.00432894 -2.20643e-06 -3.58423e-05)
(0.00439134 -2.39372e-06 -3.88326e-05)
(0.004459 -2.59916e-06 -4.20806e-05)
(0.00453234 -2.82441e-06 -4.56017e-05)
(0.00461187 -3.07663e-06 -4.94155e-05)
(0.00469812 -3.36487e-06 -5.35544e-05)
(0.0047917 -3.69233e-06 -5.8062e-05)
(0.0048933 -4.05642e-06 -6.29849e-05)
(0.00500364 -4.45633e-06 -6.83677e-05)
(0.00512356 -4.90112e-06 -7.42478e-05)
(0.00525393 -5.4025e-06 -8.06583e-05)
(0.00539569 -5.9632e-06 -8.76346e-05)
(0.00554988 -6.58391e-06 -9.52213e-05)
(0.00571763 -7.27255e-06 -0.000103476)
(0.00590018 -8.04124e-06 -0.000112462)
(0.00609892 -8.90533e-06 -0.000122248)
(0.00631536 -9.88672e-06 -0.000132907)
(0.00655121 -1.10087e-05 -0.000144523)
(0.00680835 -1.22869e-05 -0.000157187)
(0.00708884 -1.37347e-05 -0.000170997)
(0.00739495 -1.53775e-05 -0.000186063)
(0.00772921 -1.72648e-05 -0.000202509)
(0.00809447 -1.94671e-05 -0.000220467)
(0.0084939 -2.20703e-05 -0.000240062)
(0.00893107 -2.51549e-05 -0.000261417)
(0.00940988 -2.88021e-05 -0.000284643)
(0.00993462 -3.31133e-05 -0.000309849)
(0.01051 -3.821e-05 -0.000337137)
(0.0111412 -4.42242e-05 -0.00036659)
(0.0118337 -5.1295e-05 -0.000398253)
(0.0125935 -5.95778e-05 -0.000432136)
(0.0134269 -6.92314e-05 -0.000468193)
(0.0143402 -8.03875e-05 -0.000506299)
(0.0153399 -9.31066e-05 -0.000546215)
(0.0164319 -0.000107319 -0.000587549)
(0.0176209 -0.000122733 -0.000629728)
(0.0189096 -0.000138757 -0.000671919)
(0.00443866 -4.0848e-06 -4.00556e-05)
(0.00450169 -4.4511e-06 -4.33863e-05)
(0.00457002 -4.85619e-06 -4.69994e-05)
(0.00464411 -5.30291e-06 -5.09138e-05)
(0.00472445 -5.79969e-06 -5.51643e-05)
(0.0048116 -6.35935e-06 -5.98003e-05)
(0.00490618 -6.98951e-06 -6.48655e-05)
(0.00500885 -7.69371e-06 -7.03987e-05)
(0.00512037 -8.47748e-06 -7.64376e-05)
(0.00524152 -9.35396e-06 -8.30273e-05)
(0.0053732 -1.034e-05 -9.02222e-05)
(0.00551635 -1.14442e-05 -9.80643e-05)
(0.00567202 -1.26757e-05 -0.000106596)
(0.00584135 -1.40582e-05 -0.00011588)
(0.00602561 -1.56264e-05 -0.000125987)
(0.00622618 -1.74233e-05 -0.000136992)
(0.00644461 -1.95026e-05 -0.00014898)
(0.00668261 -2.19182e-05 -0.000162049)
(0.00694208 -2.47162e-05 -0.000176296)
(0.00722509 -2.79483e-05 -0.000191821)
(0.00753394 -3.1697e-05 -0.000208745)
(0.00787118 -3.6086e-05 -0.000227216)
(0.00823968 -4.12827e-05 -0.000247399)
(0.0086426 -4.74923e-05 -0.00026946)
(0.00908348 -5.49369e-05 -0.000293539)
(0.00956623 -6.38626e-05 -0.000319758)
(0.0100951 -7.45684e-05 -0.000348247)
(0.0106749 -8.7408e-05 -0.000379133)
(0.0113108 -0.000102773 -0.00041251)
(0.0120083 -0.000121087 -0.000448439)
(0.0127735 -0.000142811 -0.000486952)
(0.0136127 -0.000168399 -0.000528042)
(0.0145328 -0.000198211 -0.000571613)
(0.0155401 -0.000232389 -0.000617446)
(0.0166412 -0.000270703 -0.000665131)
(0.0178412 -0.00031236 -0.000714117)
(0.0191438 -0.000355685 -0.000763603)
(0.00444577 -3.5922e-06 -4.19192e-05)
(0.00450875 -3.95526e-06 -4.53987e-05)
(0.00457703 -4.36004e-06 -4.91662e-05)
(0.00465107 -4.80746e-06 -5.3245e-05)
(0.00473136 -5.30349e-06 -5.76878e-05)
(0.00481846 -5.85884e-06 -6.25559e-05)
(0.00491299 -6.48233e-06 -6.78896e-05)
(0.00501562 -7.18071e-06 -7.37141e-05)
(0.00512707 -7.96151e-06 -8.00562e-05)
(0.00524815 -8.83779e-06 -8.69649e-05)
(0.00537971 -9.82684e-06 -9.45024e-05)
(0.00552271 -1.09451e-05 -0.000102718)
(0.00567819 -1.22154e-05 -0.000111661)
(0.00584728 -1.36746e-05 -0.000121394)
(0.00603124 -1.53723e-05 -0.000131987)
(0.00623146 -1.73702e-05 -0.000143529)
(0.00644949 -1.97421e-05 -0.000156129)
(0.00668701 -2.25637e-05 -0.000169889)
(0.00694593 -2.59114e-05 -0.000184897)
(0.00722828 -2.98779e-05 -0.000201244)
(0.00753637 -3.45939e-05 -0.000219059)
(0.00787271 -4.02374e-05 -0.000238504)
(0.00824011 -4.70423e-05 -0.000259754)
(0.00864171 -5.53017e-05 -0.000282993)
(0.00908096 -6.53626e-05 -0.000308386)
(0.00956171 -7.76315e-05 -0.000336072)
(0.0100882 -9.25953e-05 -0.000366195)
(0.010665 -0.000110827 -0.00039889)
(0.0112974 -0.00013298 -0.000434276)
(0.0119908 -0.000159775 -0.000472439)
(0.0127513 -0.000191991 -0.000513442)
(0.0135854 -0.000230398 -0.000557322)
(0.0144999 -0.000275639 -0.00060404)
(0.0155018 -0.000328051 -0.000653484)
(0.016598 -0.000387416 -0.000705367)
(0.0177946 -0.000452662 -0.000759126)
(0.0190965 -0.000521356 -0.000813895)
(0.00444606 -1.95456e-06 -4.19311e-05)
(0.004509 -2.22066e-06 -4.54111e-05)
(0.00457723 -2.52134e-06 -4.91775e-05)
(0.00465122 -2.85433e-06 -5.32615e-05)
(0.00473145 -3.22168e-06 -5.77216e-05)
(0.0048185 -3.6296e-06 -6.26148e-05)
(0.00491297 -4.0851e-06 -6.79758e-05)
(0.00501554 -4.59655e-06 -7.38239e-05)
(0.00512691 -5.17393e-06 -8.01824e-05)
(0.00524789 -5.83215e-06 -8.70968e-05)
(0.00537933 -6.59126e-06 -9.46279e-05)
(0.00552217 -7.47356e-06 -0.000102835)
(0.00567746 -8.50885e-06 -0.000111769)
(0.00584631 -9.74062e-06 -0.000121487)
(0.00602997 -1.1225e-05 -0.000132064)
(0.00622983 -1.30313e-05 -0.000143607)
(0.00644741 -1.52434e-05 -0.000156243)
(0.00668441 -1.79542e-05 -0.000170077)
(0.00694269 -2.12681e-05 -0.000185185)
(0.0072243 -2.53121e-05 -0.000201648)
(0.00753147 -3.0251e-05 -0.000219592)
(0.0078667 -3.6305e-05 -0.000239175)
(0.00823272 -4.3758e-05 -0.000260567)
(0.00863261 -5.29699e-05 -0.000283957)
(0.00906975 -6.43827e-05 -0.00030953)
(0.00954789 -7.85331e-05 -0.000337449)
(0.0100712 -9.60734e-05 -0.000367876)
(0.0106442 -0.000117771 -0.000400961)
(0.0112719 -0.000144515 -0.00043686)
(0.0119599 -0.000177306 -0.000475695)
(0.0127142 -0.000217232 -0.000517577)
(0.0135412 -0.000265396 -0.00056259)
(0.0144481 -0.000322785 -0.000610785)
(0.0154422 -0.000390062 -0.000662143)
(0.0165313 -0.000467261 -0.000716453)
(0.0177226 -0.000553329 -0.000773248)
(0.0190227 -0.00064547 -0.000831726)
(0.0044459 -5.01031e-07 -4.14795e-05)
(0.00450881 -6.81065e-07 -4.4931e-05)
(0.00457701 -8.86437e-07 -4.86719e-05)
(0.00465097 -1.11161e-06 -5.27395e-05)
(0.00473118 -1.3561e-06 -5.71845e-05)
(0.00481819 -1.62245e-06 -6.2048e-05)
(0.00491263 -1.91699e-06 -6.73613e-05)
(0.00501514 -2.25003e-06 -7.31503e-05)
(0.00512646 -2.63493e-06 -7.94422e-05)
(0.00524736 -3.08974e-06 -8.62795e-05)
(0.00537869 -3.63612e-06 -9.37247e-05)
(0.00552141 -4.2993e-06 -0.00010184)
(0.00567652 -5.11334e-06 -0.000110675)
(0.00584516 -6.12462e-06 -0.000120279)
(0.00602855 -7.39055e-06 -0.000130732)
(0.00622805 -8.98177e-06 -0.000142153)
(0.0064452 -1.09854e-05 -0.000154676)
(0.00668166 -1.35061e-05 -0.000168411)
(0.00693929 -1.66702e-05 -0.00018344)
(0.0072201 -2.06305e-05 -0.000199844)
(0.00752628 -2.55819e-05 -0.000217736)
(0.00786027 -3.17731e-05 -0.000237261)
(0.00822475 -3.95221e-05 -0.00025858)
(0.0086227 -4.92421e-05 -0.00028189)
(0.00905741 -6.14472e-05 -0.000307393)
(0.00953252 -7.67754e-05 -0.00033529)
(0.0100521 -9.6004e-05 -0.000365747)
(0.0106205 -0.000120059 -0.000398943)
(0.0112427 -0.000150032 -0.000435075)
(0.011924 -0.000187166 -0.000474331)
(0.0126705 -0.00023284 -0.0005169)
(0.0134886 -0.000288496 -0.000562947)
(0.0143858 -0.000355519 -0.000612639)
(0.0153697 -0.000435011 -0.000666086)
(0.0164489 -0.000527445 -0.000723219)
(0.0176322 -0.000632141 -0.000783768)
(0.018928 -0.000746463 -0.000847078)
(0.00444578 6.24262e-07 -4.1138e-05)
(0.00450867 5.14798e-07 -4.45828e-05)
(0.00457686 3.91801e-07 -4.83214e-05)
(0.0046508 2.61861e-07 -5.2392e-05)
(0.004731 1.26288e-07 -5.68307e-05)
(0.004818 -1.67873e-08 -6.16692e-05)
(0.00491241 -1.7476e-07 -6.69411e-05)
(0.00501489 -3.59697e-07 -7.26799e-05)
(0.00512615 -5.86952e-07 -7.8919e-05)
(0.00524698 -8.75384e-07 -8.57041e-05)
(0.00537822 -1.24581e-06 -9.30983e-05)
(0.00552081 -1.72423e-06 -0.00010116)
(0.00567577 -2.34615e-06 -0.000109934)
(0.0058442 -3.15867e-06 -0.000119475)
(0.00602733 -4.21841e-06 -0.000129863)
(0.0062265 -5.59379e-06 -0.00014122)
(0.00644322 -7.36895e-06 -0.000153676)
(0.00667916 -9.6506e-06 -0.000167346)
(0.00693612 -1.25738e-05 -0.000182329)
(0.00721609 -1.63072e-05 -0.000198707)
(0.00752123 -2.10664e-05 -0.000216593)
(0.00785391 -2.71186e-05 -0.000236119)
(0.00821673 -3.48042e-05 -0.000257453)
(0.00861258 -4.4564e-05 -0.000280787)
(0.00904463 -5.69512e-05 -0.000306329)
(0.00951641 -7.26628e-05 -0.00033431)
(0.0100318 -9.2547e-05 -0.000364938)
(0.0105951 -0.000117636 -0.000398435)
(0.011211 -0.00014916 -0.00043504)
(0.0118848 -0.000188545 -0.000475027)
(0.0126223 -0.000237408 -0.000518683)
(0.01343 -0.000297502 -0.000566281)
(0.0143154 -0.000370618 -0.00061813)
(0.0152867 -0.000458372 -0.000674542)
(0.0163531 -0.00056184 -0.000735729)
(0.0175249 -0.000681017 -0.000801683)
(0.0188129 -0.000813993 -0.00087205)
(0.00444571 1.51251e-06 -4.10283e-05)
(0.00450859 1.47151e-06 -4.44946e-05)
(0.00457678 1.42875e-06 -4.82555e-05)
(0.00465072 1.39104e-06 -5.23426e-05)
(0.00473092 1.35984e-06 -5.67881e-05)
(0.00481792 1.33192e-06 -6.16247e-05)
(0.00491231 1.29802e-06 -6.68887e-05)
(0.00501476 1.24569e-06 -7.26164e-05)
(0.00512599 1.16021e-06 -7.88483e-05)
(0.00524675 1.02473e-06 -8.56342e-05)
(0.00537792 8.1986e-07 -9.30309e-05)
(0.0055204 5.19908e-07 -0.000101088)
(0.00567521 9.04803e-08 -0.000109853)
(0.00584345 -5.13511e-07 -0.00011939)
(0.00602633 -1.3444e-06 -0.000129795)
(0.00622519 -2.46047e-06 -0.000141184)
(0.00644151 -3.93591e-06 -0.00015367)
(0.00667694 -5.87173e-06 -0.000167368)
(0.00693325 -8.40422e-06 -0.000182386)
(0.0072124 -1.17089e-05 -0.000198823)
(0.00751649 -1.60065e-05 -0.000216796)
(0.00784783 -2.15668e-05 -0.000236437)
(0.00820896 -2.87335e-05 -0.000257922)
(0.00860266 -3.79419e-05 -0.000281434)
(0.00903199 -4.9744e-05 -0.000307195)
(0.00950033 -6.48417e-05 -0.000335461)
(0.0100114 -8.41013e-05 -0.000366484)
(0.0105693 -0.000108589 -0.000400542)
(0.0111786 -0.00013959 -0.000437935)
(0.0118443 -0.000178625 -0.000479033)
(0.0125721 -0.000227456 -0.000524218)
(0.0133684 -0.00028807 -0.000573913)
(0.0142406 -0.000362597 -0.000628625)
(0.0151972 -0.000453137 -0.000688947)
(0.0162482 -0.000561457 -0.000755477)
(0.0174051 -0.000688452 -0.000828632)
(0.0186809 -0.000833357 -0.000908524)
(0.00444571 2.44965e-06 -4.11291e-05)
(0.00450859 2.51158e-06 -4.46533e-05)
(0.00457679 2.58168e-06 -4.84684e-05)
(0.00465074 2.66588e-06 -5.25918e-05)
(0.00473095 2.76715e-06 -5.70636e-05)
(0.00481795 2.88208e-06 -6.19281e-05)
(0.00491234 3.0001e-06 -6.72199e-05)
(0.00501477 3.11017e-06 -7.29759e-05)
(0.00512596 3.20066e-06 -7.92454e-05)
(0.00524668 3.25799e-06 -8.60784e-05)
(0.00537778 3.26333e-06 -9.3522e-05)
(0.00552017 3.19322e-06 -0.000101616)
(0.00567486 3.01807e-06 -0.000110413)
(0.00584293 2.7014e-06 -0.000119997)
(0.00602559 2.20396e-06 -0.000130483)
(0.00622419 1.47665e-06 -0.000141982)
(0.00644017 4.56705e-07 -0.00015459)
(0.00667516 -9.47061e-07 -0.00016841)
(0.00693089 -2.85858e-06 -0.000183553)
(0.00720927 -5.43555e-06 -0.000200138)
(0.00751238 -8.88268e-06 -0.000218288)
(0.00784248 -1.34539e-05 -0.000238149)
(0.00820202 -1.94732e-05 -0.000259905)
(0.00859369 -2.73416e-05 -0.00028374)
(0.00902044 -3.75751e-05 -0.00030989)
(0.0094855 -5.08288e-05 -0.00033863)
(0.00999243 -6.79156e-05 -0.000370267)
(0.0105451 -8.98456e-05 -0.000405136)
(0.011148 -0.00011786 -0.000443602)
(0.0118057 -0.000153459 -0.000486131)
(0.0125238 -0.000198415 -0.000533219)
(0.0133084 -0.000254792 -0.000585462)
(0.0141669 -0.0003249 -0.000643621)
(0.0151078 -0.000411178 -0.00070866)
(0.0161416 -0.00051597 -0.000781624)
(0.0172807 -0.000641107 -0.000863535)
(0.0185402 -0.000787164 -0.000955219)
(0.00444577 3.50319e-06 -4.13389e-05)
(0.00450868 3.71207e-06 -4.49356e-05)
(0.00457689 3.94104e-06 -4.88171e-05)
(0.00465087 4.18903e-06 -5.29871e-05)
(0.0047311 4.46262e-06 -5.74992e-05)
(0.00481812 4.75912e-06 -6.24059e-05)
(0.00491252 5.06866e-06 -6.77369e-05)
(0.00501495 5.38412e-06 -7.35333e-05)
(0.00512613 5.70141e-06 -7.98541e-05)
(0.00524683 6.01323e-06 -8.6753e-05)
(0.00537788 6.30046e-06 -9.42705e-05)
(0.00552022 6.54213e-06 -0.000102437)
(0.00567482 6.71741e-06 -0.000111314)
(0.00584278 6.80821e-06 -0.000121003)
(0.0060253 6.79269e-06 -0.000131623)
(0.0062237 6.63117e-06 -0.000143276)
(0.00643943 6.27404e-06 -0.00015604)
(0.00667407 5.64423e-06 -0.000170016)
(0.00692935 4.6426e-06 -0.000185319)
(0.00720713 3.13528e-06 -0.00020208)
(0.00750945 9.47118e-07 -0.000220441)
(0.00783851 -2.12879e-06 -0.000240566)
(0.0081967 -6.36357e-06 -0.000262646)
(0.00858665 -1.20975e-05 -0.000286877)