/*--------------------------------*- C++ -*----------------------------------*\
| =========                 |                                                 |
| \\      /  F ield         | OpenFOAM: The Open Source CFD Toolbox           |
|  \\    /   O peration     | Version:  2.3.1                                 |
|   \\  /    A nd           | Web:      www.OpenFOAM.org                      |
|    \\/     M anipulation  |                                                 |
\*---------------------------------------------------------------------------*/
FoamFile
{
    version     2.0;
    format      ascii;
    class       volScalarField;
    location    "15";
    object      epsilon_0;
}
// * * * * * * * * * * * * * * * * * * * * * * * * * * * * * * * * * * * * * //

dimensions      [0 2 -3 0 0 0 0];

internalField   nonuniform List<scalar> 
37692
(
5.15961e-07
5.16067e-07
5.16216e-07
5.16411e-07
5.16654e-07
5.16949e-07
5.173e-07
5.17719e-07
5.1822e-07
5.18809e-07
5.1949e-07
5.20263e-07
5.21132e-07
5.22099e-07
5.23168e-07
5.2434e-07
5.25621e-07
5.27022e-07
5.28554e-07
5.30229e-07
5.32052e-07
5.34026e-07
5.36161e-07
5.38475e-07
5.40988e-07
5.43719e-07
5.46686e-07
5.49908e-07
5.53398e-07
5.57172e-07
5.6124e-07
5.65611e-07
5.70304e-07
5.75344e-07
5.80766e-07
5.86602e-07
5.92889e-07
5.99663e-07
8.78399e-07
8.78633e-07
8.78925e-07
8.79284e-07
8.79713e-07
8.80214e-07
8.80804e-07
8.81509e-07
8.82352e-07
8.83339e-07
8.84461e-07
8.85715e-07
8.87107e-07
8.88645e-07
8.90328e-07
8.92157e-07
8.94143e-07
8.96309e-07
8.98675e-07
9.01254e-07
9.04043e-07
9.07045e-07
9.10283e-07
9.13791e-07
9.17604e-07
9.21747e-07
9.26242e-07
9.31114e-07
9.36384e-07
9.42069e-07
9.48179e-07
9.54728e-07
9.61752e-07
9.69301e-07
9.7743e-07
9.8619e-07
9.95625e-07
1.00579e-06
1.07545e-06
1.07575e-06
1.07612e-06
1.07656e-06
1.07708e-06
1.07768e-06
1.07837e-06
1.07919e-06
1.08017e-06
1.08129e-06
1.08256e-06
1.08397e-06
1.08553e-06
1.08726e-06
1.08914e-06
1.09118e-06
1.09339e-06
1.09579e-06
1.09841e-06
1.10124e-06
1.10428e-06
1.10754e-06
1.11106e-06
1.11488e-06
1.11904e-06
1.12357e-06
1.12848e-06
1.1338e-06
1.13954e-06
1.14572e-06
1.15235e-06
1.15944e-06
1.16705e-06
1.17523e-06
1.18406e-06
1.19358e-06
1.20383e-06
1.21488e-06
1.17324e-06
1.17358e-06
1.174e-06
1.1745e-06
1.17507e-06
1.17573e-06
1.17649e-06
1.17737e-06
1.1784e-06
1.17957e-06
1.1809e-06
1.18238e-06
1.18403e-06
1.18586e-06
1.18785e-06
1.19e-06
1.19233e-06
1.19485e-06
1.19758e-06
1.20051e-06
1.20364e-06
1.20699e-06
1.21061e-06
1.21457e-06
1.21889e-06
1.2236e-06
1.22872e-06
1.23425e-06
1.24022e-06
1.24664e-06
1.2535e-06
1.26084e-06
1.26871e-06
1.27719e-06
1.28635e-06
1.29623e-06
1.30688e-06
1.31836e-06
1.21589e-06
1.21627e-06
1.21672e-06
1.21725e-06
1.21786e-06
1.21856e-06
1.21936e-06
1.22027e-06
1.22131e-06
1.22249e-06
1.22382e-06
1.22533e-06
1.22702e-06
1.22889e-06
1.23094e-06
1.23316e-06
1.23554e-06
1.23811e-06
1.24088e-06
1.24383e-06
1.24697e-06
1.25034e-06
1.25399e-06
1.258e-06
1.26239e-06
1.26719e-06
1.2724e-06
1.27803e-06
1.2841e-06
1.29061e-06
1.29757e-06
1.30501e-06
1.31301e-06
1.32163e-06
1.33093e-06
1.34097e-06
1.3518e-06
1.36347e-06
1.23096e-06
1.23138e-06
1.23185e-06
1.23241e-06
1.23305e-06
1.23377e-06
1.23459e-06
1.2355e-06
1.23653e-06
1.2377e-06
1.23903e-06
1.24054e-06
1.24225e-06
1.24414e-06
1.2462e-06
1.24843e-06
1.25084e-06
1.25342e-06
1.25619e-06
1.25913e-06
1.26226e-06
1.26562e-06
1.26928e-06
1.2733e-06
1.27771e-06
1.28253e-06
1.28777e-06
1.29343e-06
1.29953e-06
1.30606e-06
1.31306e-06
1.32056e-06
1.32861e-06
1.33729e-06
1.34665e-06
1.35674e-06
1.36763e-06
1.37938e-06
1.23092e-06
1.23137e-06
1.23188e-06
1.23246e-06
1.23312e-06
1.23386e-06
1.23468e-06
1.2356e-06
1.23661e-06
1.23776e-06
1.23909e-06
1.2406e-06
1.24231e-06
1.2442e-06
1.24625e-06
1.24846e-06
1.25084e-06
1.25341e-06
1.25615e-06
1.25908e-06
1.2622e-06
1.26555e-06
1.26922e-06
1.27323e-06
1.27764e-06
1.28245e-06
1.28767e-06
1.29332e-06
1.2994e-06
1.30592e-06
1.31292e-06
1.32044e-06
1.32852e-06
1.33722e-06
1.34658e-06
1.35667e-06
1.36756e-06
1.37933e-06
1.21625e-06
1.2168e-06
1.21739e-06
1.21806e-06
1.21879e-06
1.21961e-06
1.22052e-06
1.22153e-06
1.22268e-06
1.224e-06
1.22551e-06
1.22721e-06
1.22906e-06
1.23107e-06
1.23324e-06
1.23557e-06
1.23809e-06
1.24081e-06
1.24372e-06
1.24683e-06
1.25018e-06
1.25383e-06
1.25782e-06
1.26219e-06
1.26696e-06
1.27214e-06
1.27774e-06
1.28376e-06
1.29025e-06
1.29721e-06
1.30471e-06
1.31278e-06
1.32145e-06
1.33077e-06
1.34082e-06
1.35167e-06
1.3634e-06
1.17353e-06
1.17408e-06
1.17467e-06
1.17532e-06
1.17603e-06
1.17684e-06
1.17773e-06
1.17873e-06
1.17986e-06
1.18117e-06
1.18266e-06
1.18432e-06
1.18612e-06
1.18806e-06
1.19014e-06
1.1924e-06
1.19486e-06
1.19752e-06
1.20038e-06
1.20345e-06
1.20677e-06
1.21038e-06
1.21431e-06
1.2186e-06
1.22328e-06
1.22836e-06
1.23385e-06
1.23978e-06
1.24615e-06
1.25302e-06
1.26042e-06
1.26838e-06
1.27694e-06
1.28614e-06
1.29606e-06
1.30676e-06
1.31833e-06
1.07564e-06
1.07615e-06
1.0767e-06
1.0773e-06
1.07796e-06
1.07872e-06
1.07957e-06
1.08053e-06
1.08163e-06
1.08288e-06
1.0843e-06
1.08588e-06
1.08758e-06
1.08942e-06
1.09139e-06
1.09353e-06
1.09587e-06
1.09841e-06
1.10116e-06
1.10413e-06
1.10735e-06
1.11085e-06
1.11465e-06
1.11878e-06
1.12327e-06
1.12815e-06
1.13343e-06
1.13913e-06
1.14528e-06
1.1519e-06
1.15904e-06
1.16673e-06
1.17501e-06
1.18391e-06
1.1935e-06
1.20385e-06
1.21502e-06
8.78429e-07
8.78856e-07
8.79315e-07
8.79817e-07
8.80384e-07
8.81035e-07
8.81786e-07
8.82644e-07
8.83626e-07
8.84748e-07
8.86015e-07
8.87422e-07
8.88959e-07
8.90623e-07
8.92421e-07
8.94368e-07
8.96489e-07
8.988e-07
9.01313e-07
9.04043e-07
9.07011e-07
9.10234e-07
9.1373e-07
9.17522e-07
9.21638e-07
9.26106e-07
9.30947e-07
9.36182e-07
9.41831e-07
9.47924e-07
9.54497e-07
9.61584e-07
9.69222e-07
9.77445e-07
9.863e-07
9.95848e-07
1.00615e-06
5.15873e-07
5.16084e-07
5.16336e-07
5.16629e-07
5.16968e-07
5.1736e-07
5.17814e-07
5.18337e-07
5.1894e-07
5.19631e-07
5.20418e-07
5.21305e-07
5.22289e-07
5.2337e-07
5.24548e-07
5.2583e-07
5.27224e-07
5.28741e-07
5.30393e-07
5.32191e-07
5.34147e-07
5.36272e-07
5.38577e-07
5.41078e-07
5.43791e-07
5.46736e-07
5.49932e-07
5.53395e-07
5.5714e-07
5.61186e-07
5.65554e-07
5.70268e-07
5.75352e-07
5.80832e-07
5.86737e-07
5.93105e-07
5.99977e-07
5.25035e-07
5.25107e-07
5.25203e-07
5.25323e-07
5.25469e-07
5.25642e-07
5.25847e-07
5.26093e-07
5.26388e-07
5.26734e-07
5.27129e-07
5.27571e-07
5.28061e-07
5.28601e-07
5.2919e-07
5.2983e-07
5.30526e-07
5.31284e-07
5.32113e-07
5.33018e-07
5.33998e-07
5.35055e-07
5.36194e-07
5.37428e-07
5.38768e-07
5.40225e-07
5.41807e-07
5.43522e-07
5.45377e-07
5.47378e-07
5.49527e-07
5.51829e-07
5.54296e-07
5.56945e-07
5.59795e-07
5.62866e-07
5.66176e-07
5.69741e-07
5.48606e-07
5.48657e-07
5.48718e-07
5.48791e-07
5.48877e-07
5.48975e-07
5.49089e-07
5.49225e-07
5.49388e-07
5.49579e-07
5.49795e-07
5.50034e-07
5.50296e-07
5.50584e-07
5.50896e-07
5.51232e-07
5.51594e-07
5.51988e-07
5.52418e-07
5.52886e-07
5.53391e-07
5.53933e-07
5.54516e-07
5.55148e-07
5.55835e-07
5.56582e-07
5.57393e-07
5.58272e-07
5.59222e-07
5.60247e-07
5.61347e-07
5.62525e-07
5.6379e-07
5.65151e-07
5.66621e-07
5.68211e-07
5.69929e-07
5.71785e-07
6.03365e-07
6.03417e-07
6.03482e-07
6.03561e-07
6.03652e-07
6.03757e-07
6.03877e-07
6.0402e-07
6.04188e-07
6.04382e-07
6.04601e-07
6.04845e-07
6.05114e-07
6.0541e-07
6.05733e-07
6.06081e-07
6.06457e-07
6.06864e-07
6.07308e-07
6.07789e-07
6.08307e-07
6.08861e-07
6.09459e-07
6.10108e-07
6.10817e-07
6.11588e-07
6.12426e-07
6.13334e-07
6.14316e-07
6.15374e-07
6.16511e-07
6.1773e-07
6.19039e-07
6.20452e-07
6.2198e-07
6.23633e-07
6.25421e-07
6.27355e-07
6.29508e-07
6.29563e-07
6.29632e-07
6.29715e-07
6.29813e-07
6.29925e-07
6.30054e-07
6.30204e-07
6.30377e-07
6.30576e-07
6.30799e-07
6.31048e-07
6.31326e-07
6.31633e-07
6.31969e-07
6.32332e-07
6.32724e-07
6.33149e-07
6.3361e-07
6.34107e-07
6.34639e-07
6.35209e-07
6.35825e-07
6.36497e-07
6.37232e-07
6.38035e-07
6.38907e-07
6.39852e-07
6.40873e-07
6.41974e-07
6.43155e-07
6.44422e-07
6.45785e-07
6.47256e-07
6.48848e-07
6.50573e-07
6.5244e-07
6.54459e-07
6.39909e-07
6.39968e-07
6.40041e-07
6.40127e-07
6.40229e-07
6.40347e-07
6.40481e-07
6.40634e-07
6.40809e-07
6.41008e-07
6.41231e-07
6.41483e-07
6.41765e-07
6.42078e-07
6.42421e-07
6.42793e-07
6.43195e-07
6.43629e-07
6.44097e-07
6.446e-07
6.45136e-07
6.45711e-07
6.46334e-07
6.47016e-07
6.47765e-07
6.48583e-07
6.49473e-07
6.50437e-07
6.51479e-07
6.526e-07
6.53803e-07
6.55094e-07
6.56484e-07
6.57986e-07
6.59612e-07
6.61372e-07
6.63277e-07
6.6534e-07
6.43297e-07
6.43362e-07
6.43438e-07
6.43528e-07
6.43633e-07
6.43754e-07
6.43891e-07
6.44046e-07
6.4422e-07
6.44416e-07
6.44638e-07
6.4489e-07
6.45174e-07
6.45489e-07
6.45835e-07
6.4621e-07
6.46615e-07
6.47052e-07
6.47522e-07
6.48024e-07
6.48559e-07
6.49134e-07
6.49759e-07
6.50445e-07
6.51199e-07
6.52022e-07
6.52919e-07
6.5389e-07
6.54937e-07
6.56065e-07
6.57276e-07
6.58577e-07
6.5998e-07
6.61495e-07
6.63134e-07
6.64907e-07
6.66827e-07
6.68906e-07
6.43289e-07
6.43361e-07
6.43442e-07
6.43535e-07
6.43643e-07
6.43766e-07
6.43905e-07
6.4406e-07
6.44233e-07
6.44426e-07
6.44646e-07
6.44898e-07
6.45183e-07
6.45498e-07
6.45842e-07
6.46214e-07
6.46616e-07
6.4705e-07
6.47517e-07
6.48017e-07
6.48551e-07
6.49125e-07
6.49751e-07
6.50436e-07
6.51188e-07
6.52011e-07
6.52906e-07
6.53874e-07
6.54919e-07
6.56045e-07
6.57255e-07
6.58559e-07
6.59966e-07
6.61484e-07
6.63123e-07
6.64896e-07
6.66815e-07
6.68896e-07
6.39963e-07
6.40049e-07
6.40146e-07
6.40255e-07
6.40378e-07
6.40517e-07
6.40671e-07
6.40842e-07
6.41035e-07
6.41255e-07
6.41507e-07
6.4179e-07
6.42103e-07
6.42441e-07
6.42806e-07
6.432e-07
6.43627e-07
6.44089e-07
6.44585e-07
6.45117e-07
6.45689e-07
6.46312e-07
6.46993e-07
6.4774e-07
6.48555e-07
6.49441e-07
6.50401e-07
6.51436e-07
6.52552e-07
6.53754e-07
6.55052e-07
6.56451e-07
6.57961e-07
6.59591e-07
6.61351e-07
6.63257e-07
6.65324e-07
6.29551e-07
6.29642e-07
6.2974e-07
6.29848e-07
6.29968e-07
6.30104e-07
6.30256e-07
6.30426e-07
6.30618e-07
6.30837e-07
6.31088e-07
6.31368e-07
6.31673e-07
6.32001e-07
6.32354e-07
6.32736e-07
6.33152e-07
6.33603e-07
6.3409e-07
6.34613e-07
6.35178e-07
6.35793e-07
6.36464e-07
6.37196e-07
6.37994e-07
6.38862e-07
6.39802e-07
6.40817e-07
6.41911e-07
6.43091e-07
6.44365e-07
6.4574e-07
6.47223e-07
6.48823e-07
6.50551e-07
6.52421e-07
6.54447e-07
6.03397e-07
6.03488e-07
6.03585e-07
6.03687e-07
6.03802e-07
6.03932e-07
6.04079e-07
6.04246e-07
6.04435e-07
6.04652e-07
6.04897e-07
6.05168e-07
6.05462e-07
6.05776e-07
6.06114e-07
6.06478e-07
6.06874e-07
6.07306e-07
6.07775e-07
6.08281e-07
6.08829e-07
6.09425e-07
6.10073e-07
6.10779e-07
6.11547e-07
6.12381e-07
6.13285e-07
6.14261e-07
6.15314e-07
6.16449e-07
6.17674e-07
6.18997e-07
6.20423e-07
6.21962e-07
6.23622e-07
6.25419e-07
6.27363e-07
5.4863e-07
5.48722e-07
5.48815e-07
5.48913e-07
5.49021e-07
5.49146e-07
5.49289e-07
5.49453e-07
5.4964e-07
5.49854e-07
5.50094e-07
5.50358e-07
5.50643e-07
5.50948e-07
5.51274e-07
5.51625e-07
5.52007e-07
5.52423e-07
5.52876e-07
5.53368e-07
5.53903e-07
5.54485e-07
5.55116e-07
5.55801e-07
5.56544e-07
5.57351e-07
5.58225e-07
5.59169e-07
5.60187e-07
5.61284e-07
5.62468e-07
5.63745e-07
5.65122e-07
5.66605e-07
5.68205e-07
5.69932e-07
5.71798e-07
5.25038e-07
5.25177e-07
5.25331e-07
5.25501e-07
5.25696e-07
5.25921e-07
5.26182e-07
5.26483e-07
5.26828e-07
5.27224e-07
5.27671e-07
5.28168e-07
5.28711e-07
5.29299e-07
5.29933e-07
5.30619e-07
5.31364e-07
5.32175e-07
5.33059e-07
5.34022e-07
5.3507e-07
5.36207e-07
5.37439e-07
5.38774e-07
5.40221e-07
5.41791e-07
5.43492e-07
5.45332e-07
5.47317e-07
5.49457e-07
5.51765e-07
5.54253e-07
5.56933e-07
5.59817e-07
5.62921e-07
5.66267e-07
5.69877e-07
6.62913e-07
6.62995e-07
6.631e-07
6.63232e-07
6.63391e-07
6.6358e-07
6.63806e-07
6.6408e-07
6.6441e-07
6.64798e-07
6.65242e-07
6.65737e-07
6.66285e-07
6.66884e-07
6.67536e-07
6.68241e-07
6.69005e-07
6.69837e-07
6.70746e-07
6.71736e-07
6.72806e-07
6.73956e-07
6.75194e-07
6.76535e-07
6.77993e-07
6.79577e-07
6.81298e-07
6.83163e-07
6.85181e-07
6.87355e-07
6.89688e-07
6.92185e-07
6.94859e-07
6.97731e-07
7.00822e-07
7.04153e-07
7.07744e-07
7.11614e-07
5.2781e-07
5.2783e-07
5.27855e-07
5.27886e-07
5.27923e-07
5.27966e-07
5.28015e-07
5.28074e-07
5.28145e-07
5.28227e-07
5.28322e-07
5.28426e-07
5.28542e-07
5.28667e-07
5.28803e-07
5.2895e-07
5.29108e-07
5.2928e-07
5.29469e-07
5.29674e-07
5.29896e-07
5.30135e-07
5.30392e-07
5.30671e-07
5.30976e-07
5.31307e-07
5.31668e-07
5.3206e-07
5.32485e-07
5.32945e-07
5.3344e-07
5.33973e-07
5.34546e-07
5.35166e-07
5.35838e-07
5.36568e-07
5.37361e-07
5.38222e-07
5.29067e-07
5.29073e-07
5.29084e-07
5.29099e-07
5.29119e-07
5.29142e-07
5.29169e-07
5.29202e-07
5.29241e-07
5.29287e-07
5.29341e-07
5.29402e-07
5.2947e-07
5.29546e-07
5.2963e-07
5.29722e-07
5.29822e-07
5.29931e-07
5.30051e-07
5.30182e-07
5.30324e-07
5.30478e-07
5.30646e-07
5.30828e-07
5.31027e-07
5.31246e-07
5.31485e-07
5.31747e-07
5.32032e-07
5.32342e-07
5.32679e-07
5.33044e-07
5.33441e-07
5.33872e-07
5.34343e-07
5.34857e-07
5.35418e-07
5.36031e-07
5.31254e-07
5.31255e-07
5.31259e-07
5.31269e-07
5.31283e-07
5.313e-07
5.31322e-07
5.31348e-07
5.31379e-07
5.31417e-07
5.3146e-07
5.31509e-07
5.31565e-07
5.3163e-07
5.31702e-07
5.31782e-07
5.3187e-07
5.31967e-07
5.32074e-07
5.32191e-07
5.3232e-07
5.32458e-07
5.32609e-07
5.32774e-07
5.32955e-07
5.33154e-07
5.33373e-07
5.33613e-07
5.33875e-07
5.34163e-07
5.34476e-07
5.34817e-07
5.35188e-07
5.35593e-07
5.36036e-07
5.36522e-07
5.37053e-07
5.37635e-07
5.31386e-07
5.31384e-07
5.31386e-07
5.31393e-07
5.31404e-07
5.3142e-07
5.3144e-07
5.31464e-07
5.31493e-07
5.31527e-07
5.31566e-07
5.31611e-07
5.31663e-07
5.31723e-07
5.31792e-07
5.31868e-07
5.31953e-07
5.32047e-07
5.32151e-07
5.32265e-07
5.3239e-07
5.32524e-07
5.3267e-07
5.3283e-07
5.33006e-07
5.332e-07
5.33414e-07
5.33648e-07
5.33906e-07
5.34188e-07
5.34497e-07
5.34833e-07
5.35199e-07
5.356e-07
5.36039e-07
5.3652e-07
5.37047e-07
5.37626e-07
5.31116e-07
5.31112e-07
5.31114e-07
5.31119e-07
5.31129e-07
5.31144e-07
5.31164e-07
5.31188e-07
5.31216e-07
5.31249e-07
5.31286e-07
5.3133e-07
5.31381e-07
5.3144e-07
5.31507e-07
5.31583e-07
5.31667e-07
5.3176e-07
5.31863e-07
5.31977e-07
5.321e-07
5.32233e-07
5.32377e-07
5.32535e-07
5.3271e-07
5.32903e-07
5.33115e-07
5.33348e-07
5.33604e-07
5.33884e-07
5.34191e-07
5.34526e-07
5.34891e-07
5.35291e-07
5.35729e-07
5.3621e-07
5.36737e-07
5.37315e-07
5.31114e-07
5.3111e-07
5.31112e-07
5.31118e-07
5.31128e-07
5.31144e-07
5.31164e-07
5.31188e-07
5.31216e-07
5.31249e-07
5.31286e-07
5.3133e-07
5.31381e-07
5.31441e-07
5.31509e-07
5.31584e-07
5.31668e-07
5.31762e-07
5.31865e-07
5.31978e-07
5.32101e-07
5.32234e-07
5.32379e-07
5.32537e-07
5.32712e-07
5.32905e-07
5.33117e-07
5.3335e-07
5.33605e-07
5.33885e-07
5.34191e-07
5.34526e-07
5.34892e-07
5.35292e-07
5.35731e-07
5.36212e-07
5.36739e-07
5.37318e-07
5.31379e-07
5.31382e-07
5.31389e-07
5.31401e-07
5.31417e-07
5.31438e-07
5.31464e-07
5.31493e-07
5.31527e-07
5.31566e-07
5.31611e-07
5.31665e-07
5.31727e-07
5.31796e-07
5.31873e-07
5.31958e-07
5.32052e-07
5.32156e-07
5.32271e-07
5.32395e-07
5.32529e-07
5.32675e-07
5.32836e-07
5.33012e-07
5.33206e-07
5.3342e-07
5.33654e-07
5.33911e-07
5.34192e-07
5.34499e-07
5.34834e-07
5.35202e-07
5.35604e-07
5.36044e-07
5.36526e-07
5.37054e-07
5.37634e-07
5.31246e-07
5.31253e-07
5.31264e-07
5.31279e-07
5.31298e-07
5.31321e-07
5.31349e-07
5.31381e-07
5.31418e-07
5.31461e-07
5.31512e-07
5.3157e-07
5.31636e-07
5.31709e-07
5.31789e-07
5.31877e-07
5.31974e-07
5.32081e-07
5.32199e-07
5.32326e-07
5.32464e-07
5.32615e-07
5.3278e-07
5.32962e-07
5.33161e-07
5.3338e-07
5.33619e-07
5.33881e-07
5.34166e-07
5.34478e-07
5.34819e-07
5.35191e-07
5.35598e-07
5.36043e-07
5.3653e-07
5.37063e-07
5.37647e-07
5.29064e-07
5.2908e-07
5.29098e-07
5.2912e-07
5.29145e-07
5.29175e-07
5.29209e-07
5.2925e-07
5.29296e-07
5.29349e-07
5.29411e-07
5.29481e-07
5.29558e-07
5.29641e-07
5.29732e-07
5.2983e-07
5.29938e-07
5.30056e-07
5.30185e-07
5.30325e-07
5.30478e-07
5.30645e-07
5.30827e-07
5.31027e-07
5.31245e-07
5.31484e-07
5.31745e-07
5.32028e-07
5.32337e-07
5.32673e-07
5.33039e-07
5.33437e-07
5.33871e-07
5.34345e-07
5.34861e-07
5.35424e-07
5.3604e-07
5.27823e-07
5.27861e-07
5.279e-07
5.27942e-07
5.27989e-07
5.28042e-07
5.28103e-07
5.28174e-07
5.28256e-07
5.28349e-07
5.28453e-07
5.28569e-07
5.28693e-07
5.28825e-07
5.28967e-07
5.29119e-07
5.29285e-07
5.29466e-07
5.29664e-07
5.2988e-07
5.30115e-07
5.30372e-07
5.3065e-07
5.30953e-07
5.31283e-07
5.31641e-07
5.32031e-07
5.32452e-07
5.32909e-07
5.33403e-07
5.33937e-07
5.34516e-07
5.35143e-07
5.35821e-07
5.36554e-07
5.3735e-07
5.38214e-07
6.62923e-07
6.63079e-07
6.6325e-07
6.63438e-07
6.63652e-07
6.639e-07
6.6419e-07
6.64526e-07
6.64914e-07
6.65357e-07
6.65857e-07
6.6641e-07
6.6701e-07
6.67655e-07
6.68348e-07
6.69095e-07
6.69906e-07
6.70789e-07
6.71751e-07
6.72801e-07
6.73945e-07
6.75186e-07
6.7653e-07
6.77985e-07
6.79562e-07
6.81273e-07
6.83126e-07
6.85128e-07
6.87286e-07
6.89612e-07
6.92119e-07
6.94821e-07
6.9773e-07
7.0086e-07
7.04229e-07
7.07862e-07
7.11785e-07
7.49625e-07
7.49705e-07
7.49807e-07
7.49937e-07
7.50097e-07
7.5029e-07
7.50522e-07
7.50802e-07
7.51137e-07
7.51542e-07
7.52006e-07
7.52525e-07
7.53097e-07
7.53722e-07
7.54398e-07
7.55128e-07
7.55918e-07
7.56778e-07
7.57718e-07
7.58742e-07
7.59847e-07
7.61032e-07
7.62308e-07
7.63688e-07
7.65189e-07
7.66822e-07
7.68597e-07
7.70523e-07
7.72606e-07
7.74851e-07
7.77259e-07
7.79836e-07
7.82595e-07
7.85556e-07
7.88746e-07
7.92185e-07
7.95894e-07
7.99896e-07
5.32343e-07
5.32355e-07
5.32372e-07
5.32393e-07
5.3242e-07
5.3245e-07
5.32485e-07
5.32524e-07
5.32568e-07
5.32621e-07
5.32684e-07
5.32755e-07
5.32835e-07
5.32923e-07
5.33019e-07
5.33123e-07
5.33236e-07
5.3336e-07
5.33495e-07
5.33644e-07
5.33806e-07
5.3398e-07
5.34169e-07
5.34375e-07
5.34599e-07
5.34844e-07
5.35111e-07
5.35402e-07
5.3572e-07
5.36064e-07
5.36438e-07
5.36845e-07
5.37285e-07
5.37764e-07
5.38284e-07
5.38851e-07
5.39468e-07
5.40143e-07
5.0227e-07
5.02264e-07
5.0226e-07
5.02258e-07
5.02258e-07
5.02259e-07
5.02261e-07
5.02264e-07
5.02268e-07
5.02273e-07
5.02281e-07
5.02292e-07
5.02306e-07
5.02324e-07
5.02345e-07
5.02369e-07
5.02397e-07
5.02429e-07
5.02465e-07
5.02506e-07
5.02552e-07
5.02604e-07
5.02662e-07
5.02725e-07
5.02796e-07
5.02874e-07
5.02961e-07
5.03059e-07
5.03167e-07
5.03289e-07
5.03426e-07
5.03579e-07
5.0375e-07
5.0394e-07
5.0415e-07
5.04384e-07
5.04645e-07
5.04934e-07
4.90208e-07
4.90192e-07
4.90179e-07
4.90168e-07
4.90158e-07
4.90149e-07
4.90141e-07
4.90133e-07
4.90125e-07
4.90117e-07
4.9011e-07
4.90105e-07
4.901e-07
4.90098e-07
4.90099e-07
4.90102e-07
4.90108e-07
4.90116e-07
4.90128e-07
4.90143e-07
4.90162e-07
4.90185e-07
4.90211e-07
4.90241e-07
4.90274e-07
4.90313e-07
4.90357e-07
4.90409e-07
4.9047e-07
4.90542e-07
4.90625e-07
4.90722e-07
4.90833e-07
4.90958e-07
4.91101e-07
4.91262e-07
4.91446e-07
4.91654e-07
4.84033e-07
4.84013e-07
4.83995e-07
4.83979e-07
4.83965e-07
4.83952e-07
4.83939e-07
4.83927e-07
4.83915e-07
4.83903e-07
4.8389e-07
4.83879e-07
4.83868e-07
4.83858e-07
4.83851e-07
4.83847e-07
4.83844e-07
4.83845e-07
4.83849e-07
4.83857e-07
4.83868e-07
4.83881e-07
4.83897e-07
4.83915e-07
4.83936e-07
4.83961e-07
4.83991e-07
4.84028e-07
4.84073e-07
4.84129e-07
4.84195e-07
4.84274e-07
4.84365e-07
4.84471e-07
4.84592e-07
4.84732e-07
4.84892e-07
4.85076e-07
4.81409e-07
4.81386e-07
4.81366e-07
4.81347e-07
4.81331e-07
4.81315e-07
4.81301e-07
4.81288e-07
4.81275e-07
4.81262e-07
4.81248e-07
4.81234e-07
4.8122e-07
4.81209e-07
4.81199e-07
4.81192e-07
4.81188e-07
4.81186e-07
4.81188e-07
4.81194e-07
4.81202e-07
4.81213e-07
4.81225e-07
4.81239e-07
4.81256e-07
4.81276e-07
4.81301e-07
4.81333e-07
4.81373e-07
4.81423e-07
4.81484e-07
4.81556e-07
4.8164e-07
4.81739e-07
4.81854e-07
4.81986e-07
4.82139e-07
4.82315e-07
4.81409e-07
4.81385e-07
4.81363e-07
4.81344e-07
4.81327e-07
4.81311e-07
4.81298e-07
4.81285e-07
4.81272e-07
4.81259e-07
4.81245e-07
4.81231e-07
4.81219e-07
4.81208e-07
4.81199e-07
4.81193e-07
4.81189e-07
4.81189e-07
4.81191e-07
4.81197e-07
4.81206e-07
4.81217e-07
4.8123e-07
4.81244e-07
4.81261e-07
4.81281e-07
4.81307e-07
4.81339e-07
4.8138e-07
4.81429e-07
4.81489e-07
4.81561e-07
4.81645e-07
4.81744e-07
4.81858e-07
4.81991e-07
4.82145e-07
4.82321e-07
4.84008e-07
4.83987e-07
4.83969e-07
4.83954e-07
4.8394e-07
4.83928e-07
4.83917e-07
4.83906e-07
4.83895e-07
4.83884e-07
4.83873e-07
4.83863e-07
4.83856e-07
4.83851e-07
4.83849e-07
4.83849e-07
4.83852e-07
4.83858e-07
4.83867e-07
4.83879e-07
4.83894e-07
4.8391e-07
4.83928e-07
4.8395e-07
4.83976e-07
4.84007e-07
4.84045e-07
4.8409e-07
4.84145e-07
4.84211e-07
4.84287e-07
4.84378e-07
4.84483e-07
4.84604e-07
4.84745e-07
4.84906e-07
4.8509e-07
4.90185e-07
4.90168e-07
4.90155e-07
4.90143e-07
4.90134e-07
4.90126e-07
4.9012e-07
4.90113e-07
4.90108e-07
4.90102e-07
4.90097e-07
4.90095e-07
4.90096e-07
4.90099e-07
4.90105e-07
4.90114e-07
4.90125e-07
4.9014e-07
4.90157e-07
4.90178e-07
4.90201e-07
4.90228e-07
4.90258e-07
4.90292e-07
4.90332e-07
4.90377e-07
4.9043e-07
4.90492e-07
4.90563e-07
4.90645e-07
4.9074e-07
4.90848e-07
4.90973e-07
4.91115e-07
4.91278e-07
4.91462e-07
4.91671e-07
5.02257e-07
5.0225e-07
5.02247e-07
5.02246e-07
5.02247e-07
5.0225e-07
5.02254e-07
5.0226e-07
5.02268e-07
5.02277e-07
5.02289e-07
5.02305e-07
5.02324e-07
5.02347e-07
5.02374e-07
5.02403e-07
5.02437e-07
5.02475e-07
5.02517e-07
5.02563e-07
5.02615e-07
5.02672e-07
5.02736e-07
5.02807e-07
5.02886e-07
5.02974e-07
5.03072e-07
5.03181e-07
5.03302e-07
5.03438e-07
5.03589e-07
5.03758e-07
5.03947e-07
5.04157e-07
5.04392e-07
5.04653e-07
5.04943e-07
5.3235e-07
5.3237e-07
5.32395e-07
5.32423e-07
5.32456e-07
5.32492e-07
5.32533e-07
5.3258e-07
5.32635e-07
5.32699e-07
5.32771e-07
5.32851e-07
5.32938e-07
5.33033e-07
5.33135e-07
5.33245e-07
5.33365e-07
5.33496e-07
5.3364e-07
5.33798e-07
5.3397e-07
5.34159e-07
5.34364e-07
5.34587e-07
5.34831e-07
5.35096e-07
5.35385e-07
5.357e-07
5.36042e-07
5.36415e-07
5.36821e-07
5.37263e-07
5.37743e-07
5.38265e-07
5.38833e-07
5.39451e-07
5.40124e-07
7.49627e-07
7.49786e-07
7.49959e-07
7.50151e-07
7.50369e-07
7.50623e-07
7.5092e-07
7.51268e-07
7.51671e-07
7.52134e-07
7.52657e-07
7.53233e-07
7.53855e-07
7.5452e-07
7.55232e-07
7.55999e-07
7.56831e-07
7.57738e-07
7.58729e-07
7.59813e-07
7.60995e-07
7.62277e-07
7.63665e-07
7.65167e-07
7.66793e-07
7.68558e-07
7.7047e-07
7.72536e-07
7.74764e-07
7.77165e-07
7.79754e-07
7.82543e-07
7.85546e-07
7.88778e-07
7.92259e-07
7.96014e-07
8.00073e-07
8.06017e-07
8.06088e-07
8.06181e-07
8.06302e-07
8.06454e-07
8.06642e-07
8.0687e-07
8.07149e-07
8.07485e-07
8.0788e-07
8.0834e-07
8.08861e-07
8.09436e-07
8.1006e-07
8.10734e-07
8.1146e-07
8.12246e-07
8.13103e-07
8.14041e-07
8.15062e-07
8.16165e-07
8.17347e-07
8.18618e-07
8.19992e-07
8.21488e-07
8.23118e-07
8.24894e-07
8.26821e-07
8.28909e-07
8.31155e-07
8.33576e-07
8.36173e-07
8.38957e-07
8.41946e-07
8.45162e-07
8.48628e-07
8.52366e-07
8.56398e-07
5.37736e-07
5.37747e-07
5.37764e-07
5.37784e-07
5.37809e-07
5.37837e-07
5.37867e-07
5.379e-07
5.37935e-07
5.37975e-07
5.38023e-07
5.38084e-07
5.38154e-07
5.38231e-07
5.38316e-07
5.38408e-07
5.38509e-07
5.3862e-07
5.38742e-07
5.38876e-07
5.39023e-07
5.39182e-07
5.39355e-07
5.39544e-07
5.3975e-07
5.39975e-07
5.40221e-07
5.4049e-07
5.40784e-07
5.41105e-07
5.41459e-07
5.41849e-07
5.42277e-07
5.42742e-07
5.43248e-07
5.43799e-07
5.44399e-07
5.45054e-07
4.87524e-07
4.87515e-07
4.87508e-07
4.87502e-07
4.87497e-07
4.87492e-07
4.87487e-07
4.87481e-07
4.87473e-07
4.87466e-07
4.87459e-07
4.87455e-07
4.87453e-07
4.87454e-07
4.87456e-07
4.87461e-07
4.87469e-07
4.87478e-07
4.8749e-07
4.87505e-07
4.87523e-07
4.87546e-07
4.87573e-07
4.87604e-07
4.87638e-07
4.87677e-07
4.87722e-07
4.87774e-07
4.87834e-07
4.87905e-07
4.87988e-07
4.88085e-07
4.88198e-07
4.88326e-07
4.88471e-07
4.88635e-07
4.88821e-07
4.8903e-07
4.65794e-07
4.65775e-07
4.65757e-07
4.65741e-07
4.65724e-07
4.65708e-07
4.65691e-07
4.65672e-07
4.65652e-07
4.65631e-07
4.65608e-07
4.65586e-07
4.65564e-07
4.65542e-07
4.65521e-07
4.65501e-07
4.65482e-07
4.65464e-07
4.65447e-07
4.65431e-07
4.65417e-07
4.65405e-07
4.65393e-07
4.65382e-07
4.65371e-07
4.65362e-07
4.65354e-07
4.6535e-07
4.65351e-07
4.65359e-07
4.65375e-07
4.654e-07
4.65435e-07
4.65481e-07
4.65538e-07
4.65608e-07
4.65694e-07
4.65797e-07
4.55077e-07
4.55053e-07
4.55029e-07
4.55007e-07
4.54985e-07
4.54963e-07
4.54941e-07
4.54918e-07
4.54893e-07
4.54867e-07
4.54839e-07
4.5481e-07
4.5478e-07
4.54749e-07
4.54719e-07
4.5469e-07
4.54661e-07
4.54633e-07
4.54606e-07
4.5458e-07
4.54555e-07
4.54531e-07
4.54506e-07
4.5448e-07
4.54453e-07
4.54426e-07
4.544e-07
4.54376e-07
4.54356e-07
4.54342e-07
4.54335e-07
4.54336e-07
4.54344e-07
4.54361e-07
4.54388e-07
4.54427e-07
4.54479e-07
4.54548e-07
4.50659e-07
4.50631e-07
4.50605e-07
4.50579e-07
4.50555e-07
4.50531e-07
4.50506e-07
4.50481e-07
4.50455e-07
4.50428e-07
4.50398e-07
4.50366e-07
4.50334e-07
4.50301e-07
4.50268e-07
4.50235e-07
4.50203e-07
4.50172e-07
4.50142e-07
4.50113e-07
4.50085e-07
4.50057e-07
4.50027e-07
4.49996e-07
4.49963e-07
4.4993e-07
4.49897e-07
4.49867e-07
4.4984e-07
4.49818e-07
4.49802e-07
4.49793e-07
4.49792e-07
4.49799e-07
4.49815e-07
4.49843e-07
4.49884e-07
4.49941e-07
4.5066e-07
4.5063e-07
4.50602e-07
4.50575e-07
4.5055e-07
4.50526e-07
4.50501e-07
4.50477e-07
4.50451e-07
4.50424e-07
4.50395e-07
4.50364e-07
4.50332e-07
4.50299e-07
4.50267e-07
4.50236e-07
4.50205e-07
4.50174e-07
4.50145e-07
4.50117e-07
4.50089e-07
4.50061e-07
4.50032e-07
4.50001e-07
4.49969e-07
4.49936e-07
4.49904e-07
4.49874e-07
4.49847e-07
4.49825e-07
4.49809e-07
4.498e-07
4.49797e-07
4.49804e-07
4.4982e-07
4.49848e-07
4.4989e-07
4.49947e-07
4.55048e-07
4.55021e-07
4.54996e-07
4.54972e-07
4.54949e-07
4.54927e-07
4.54905e-07
4.54882e-07
4.54857e-07
4.54831e-07
4.54802e-07
4.54774e-07
4.54745e-07
4.54718e-07
4.54691e-07
4.54665e-07
4.5464e-07
4.54615e-07
4.54591e-07
4.54568e-07
4.54544e-07
4.5452e-07
4.54495e-07
4.54469e-07
4.54443e-07
4.54418e-07
4.54396e-07
4.54377e-07
4.54363e-07
4.54354e-07
4.54353e-07
4.54359e-07
4.54375e-07
4.54402e-07
4.5444e-07
4.54493e-07
4.54562e-07
4.65768e-07
4.65745e-07
4.65724e-07
4.65706e-07
4.65688e-07
4.65671e-07
4.65654e-07
4.65636e-07
4.65618e-07
4.65597e-07
4.65577e-07
4.65556e-07
4.65537e-07
4.65519e-07
4.65503e-07
4.65488e-07
4.65473e-07
4.65459e-07
4.65447e-07
4.65435e-07
4.65424e-07
4.65413e-07
4.65402e-07
4.65393e-07
4.65384e-07
4.65379e-07
4.65376e-07
4.65379e-07
4.65386e-07
4.65401e-07
4.65424e-07
4.65456e-07
4.65499e-07
4.65555e-07
4.65625e-07
4.65711e-07
4.65814e-07
4.87507e-07
4.87494e-07
4.87485e-07
4.87478e-07
4.87472e-07
4.87468e-07
4.87463e-07
4.87459e-07
4.87454e-07
4.87451e-07
4.87448e-07
4.87448e-07
4.87451e-07
4.87456e-07
4.87464e-07
4.87474e-07
4.87487e-07
4.87502e-07
4.87519e-07
4.87539e-07
4.87563e-07
4.87589e-07
4.8762e-07
4.87656e-07
4.87696e-07
4.87742e-07
4.87795e-07
4.87856e-07
4.87927e-07
4.88009e-07
4.88104e-07
4.88213e-07
4.88338e-07
4.88481e-07
4.88644e-07
4.88828e-07
4.89037e-07
5.37738e-07
5.37751e-07
5.37772e-07
5.37798e-07
5.37827e-07
5.37859e-07
5.37893e-07
5.37932e-07
5.37977e-07
5.38032e-07
5.38094e-07
5.38164e-07
5.38241e-07
5.38326e-07
5.38418e-07
5.38518e-07
5.38627e-07
5.38747e-07
5.38879e-07
5.39023e-07
5.39181e-07
5.39354e-07
5.39543e-07
5.39749e-07
5.39974e-07
5.40219e-07
5.40487e-07
5.40779e-07
5.41099e-07
5.41451e-07
5.41837e-07
5.42258e-07
5.42718e-07
5.4322e-07
5.43767e-07
5.44362e-07
5.45007e-07
8.06007e-07
8.06163e-07
8.06329e-07
8.06515e-07
8.06728e-07
8.06978e-07
8.07271e-07
8.0761e-07
8.08009e-07
8.08472e-07
8.08995e-07
8.09571e-07
8.1019e-07
8.10851e-07
8.11556e-07
8.12316e-07
8.13139e-07
8.14038e-07
8.15026e-07
8.16109e-07
8.1729e-07
8.18571e-07
8.19956e-07
8.21454e-07
8.23076e-07
8.24837e-07
8.26747e-07
8.2881e-07
8.3104e-07
8.33451e-07
8.36053e-07
8.38858e-07
8.4188e-07
8.45132e-07
8.48636e-07
8.52415e-07
8.56495e-07
8.43129e-07
8.43186e-07
8.43265e-07
8.43372e-07
8.43513e-07
8.4369e-07
8.43911e-07
8.44183e-07
8.44514e-07
8.44904e-07
8.4535e-07
8.4586e-07
8.46425e-07
8.47036e-07
8.47693e-07
8.48402e-07
8.49169e-07
8.50007e-07
8.50925e-07
8.51927e-07
8.5301e-07
8.5417e-07
8.55417e-07
8.56766e-07
8.58242e-07
8.59855e-07
8.61613e-07
8.63524e-07
8.65595e-07
8.67828e-07
8.70227e-07
8.72797e-07
8.7555e-07
8.78504e-07
8.81681e-07
8.85106e-07
8.88802e-07
8.92791e-07
5.41181e-07
5.41193e-07
5.41212e-07
5.41233e-07
5.41258e-07
5.41284e-07
5.41313e-07
5.41342e-07
5.41373e-07
5.41407e-07
5.41448e-07
5.41502e-07
5.41567e-07
5.41641e-07
5.41722e-07
5.4181e-07
5.41908e-07
5.42014e-07
5.42132e-07
5.42261e-07
5.42403e-07
5.42558e-07
5.42727e-07
5.42912e-07
5.43116e-07
5.43338e-07
5.43581e-07
5.43846e-07
5.44136e-07
5.44457e-07
5.44811e-07
5.45203e-07
5.45634e-07
5.46105e-07
5.46618e-07
5.47176e-07
5.47783e-07
5.48445e-07
4.77622e-07
4.77614e-07
4.77608e-07
4.77603e-07
4.77597e-07
4.77592e-07
4.77585e-07
4.77577e-07
4.77567e-07
4.77556e-07
4.77545e-07
4.77538e-07
4.77532e-07
4.77529e-07
4.77527e-07
4.77528e-07
4.77531e-07
4.77536e-07
4.77543e-07
4.77552e-07
4.77565e-07
4.77582e-07
4.77603e-07
4.77627e-07
4.77654e-07
4.77685e-07
4.77722e-07
4.77764e-07
4.77815e-07
4.77877e-07
4.77951e-07
4.7804e-07
4.78144e-07
4.78266e-07
4.78404e-07
4.7856e-07
4.78738e-07
4.7894e-07
4.49086e-07
4.49068e-07
4.49051e-07
4.49034e-07
4.49018e-07
4.49e-07
4.48982e-07
4.48961e-07
4.48939e-07
4.48915e-07
4.48889e-07
4.48864e-07
4.48838e-07
4.48812e-07
4.48787e-07
4.48763e-07
4.48739e-07
4.48715e-07
4.48691e-07
4.48668e-07
4.48647e-07
4.48627e-07
4.48607e-07
4.48587e-07
4.48567e-07
4.48547e-07
4.48529e-07
4.48513e-07
4.48501e-07
4.48495e-07
4.48498e-07
4.48508e-07
4.48529e-07
4.48561e-07
4.48603e-07
4.48657e-07
4.48727e-07
4.48813e-07
4.34961e-07
4.34936e-07
4.34914e-07
4.34891e-07
4.34869e-07
4.34846e-07
4.34822e-07
4.34797e-07
4.34769e-07
4.34741e-07
4.3471e-07
4.34678e-07
4.34644e-07
4.3461e-07
4.34575e-07
4.34541e-07
4.34506e-07
4.34472e-07
4.34437e-07
4.34403e-07
4.3437e-07
4.34337e-07
4.34302e-07
4.34266e-07
4.34229e-07
4.3419e-07
4.34152e-07
4.34114e-07
4.3408e-07
4.3405e-07
4.34027e-07
4.3401e-07
4.34001e-07
4.34e-07
4.34008e-07
4.34027e-07
4.34058e-07
4.34106e-07
4.29125e-07
4.29097e-07
4.29071e-07
4.29045e-07