/*--------------------------------*- C++ -*----------------------------------*\
| =========                 |                                                 |
| \\      /  F ield         | OpenFOAM: The Open Source CFD Toolbox           |
|  \\    /   O peration     | Version:  2.3.1                                 |
|   \\  /    A nd           | Web:      www.OpenFOAM.org                      |
|    \\/     M anipulation  |                                                 |
\*---------------------------------------------------------------------------*/
FoamFile
{
    version     2.0;
    format      ascii;
    class       volScalarField;
    location    "15";
    object      epsilon;
}
// * * * * * * * * * * * * * * * * * * * * * * * * * * * * * * * * * * * * * //

dimensions      [0 2 -3 0 0 0 0];

internalField   nonuniform List<scalar> 
37692
(
5.15884e-07
5.1599e-07
5.16138e-07
5.16333e-07
5.16577e-07
5.16871e-07
5.17223e-07
5.17642e-07
5.18142e-07
5.18731e-07
5.19412e-07
5.20186e-07
5.21054e-07
5.22022e-07
5.2309e-07
5.24263e-07
5.25544e-07
5.26944e-07
5.28477e-07
5.30152e-07
5.31974e-07
5.33948e-07
5.36084e-07
5.38397e-07
5.4091e-07
5.43641e-07
5.46609e-07
5.4983e-07
5.53321e-07
5.57095e-07
5.61162e-07
5.65534e-07
5.70226e-07
5.75267e-07
5.80688e-07
5.86525e-07
5.92812e-07
5.99585e-07
8.78291e-07
8.78526e-07
8.78818e-07
8.79176e-07
8.79605e-07
8.80106e-07
8.80696e-07
8.81401e-07
8.82245e-07
8.83231e-07
8.84353e-07
8.85607e-07
8.86999e-07
8.88537e-07
8.9022e-07
8.92049e-07
8.94035e-07
8.96201e-07
8.98567e-07
9.01146e-07
9.03935e-07
9.06937e-07
9.10175e-07
9.13683e-07
9.17496e-07
9.21639e-07
9.26134e-07
9.31006e-07
9.36276e-07
9.41961e-07
9.48071e-07
9.5462e-07
9.61644e-07
9.69193e-07
9.77322e-07
9.86081e-07
9.95517e-07
1.00568e-06
1.07534e-06
1.07563e-06
1.076e-06
1.07644e-06
1.07696e-06
1.07756e-06
1.07825e-06
1.07908e-06
1.08005e-06
1.08117e-06
1.08244e-06
1.08385e-06
1.08542e-06
1.08714e-06
1.08903e-06
1.09107e-06
1.09327e-06
1.09567e-06
1.09829e-06
1.10112e-06
1.10417e-06
1.10743e-06
1.11094e-06
1.11476e-06
1.11893e-06
1.12345e-06
1.12836e-06
1.13368e-06
1.13942e-06
1.1456e-06
1.15223e-06
1.15932e-06
1.16693e-06
1.17512e-06
1.18394e-06
1.19346e-06
1.20372e-06
1.21477e-06
1.17312e-06
1.17347e-06
1.17388e-06
1.17438e-06
1.17495e-06
1.17561e-06
1.17637e-06
1.17726e-06
1.17828e-06
1.17946e-06
1.18078e-06
1.18226e-06
1.18391e-06
1.18574e-06
1.18773e-06
1.18989e-06
1.19221e-06
1.19473e-06
1.19746e-06
1.2004e-06
1.20353e-06
1.20688e-06
1.2105e-06
1.21445e-06
1.21878e-06
1.22349e-06
1.2286e-06
1.23414e-06
1.24011e-06
1.24652e-06
1.25338e-06
1.26072e-06
1.26859e-06
1.27708e-06
1.28623e-06
1.29611e-06
1.30676e-06
1.31824e-06
1.21578e-06
1.21616e-06
1.21661e-06
1.21714e-06
1.21775e-06
1.21845e-06
1.21925e-06
1.22016e-06
1.2212e-06
1.22238e-06
1.22371e-06
1.22522e-06
1.22691e-06
1.22878e-06
1.23083e-06
1.23304e-06
1.23543e-06
1.238e-06
1.24077e-06
1.24372e-06
1.24686e-06
1.25023e-06
1.25388e-06
1.25789e-06
1.26228e-06
1.26708e-06
1.27228e-06
1.27792e-06
1.28399e-06
1.2905e-06
1.29746e-06
1.3049e-06
1.3129e-06
1.32152e-06
1.33082e-06
1.34086e-06
1.35168e-06
1.36336e-06
1.23085e-06
1.23127e-06
1.23174e-06
1.2323e-06
1.23294e-06
1.23366e-06
1.23448e-06
1.23539e-06
1.23642e-06
1.23759e-06
1.23892e-06
1.24043e-06
1.24214e-06
1.24403e-06
1.24609e-06
1.24832e-06
1.25073e-06
1.25331e-06
1.25608e-06
1.25902e-06
1.26215e-06
1.26551e-06
1.26917e-06
1.27319e-06
1.2776e-06
1.28243e-06
1.28766e-06
1.29333e-06
1.29942e-06
1.30595e-06
1.31295e-06
1.32045e-06
1.3285e-06
1.33718e-06
1.34654e-06
1.35663e-06
1.36752e-06
1.37927e-06
1.23081e-06
1.23126e-06
1.23177e-06
1.23235e-06
1.23301e-06
1.23375e-06
1.23457e-06
1.23549e-06
1.2365e-06
1.23766e-06
1.23898e-06
1.24049e-06
1.2422e-06
1.24409e-06
1.24614e-06
1.24835e-06
1.25073e-06
1.2533e-06
1.25604e-06
1.25897e-06
1.26209e-06
1.26544e-06
1.26911e-06
1.27312e-06
1.27753e-06
1.28234e-06
1.28757e-06
1.29321e-06
1.29929e-06
1.30581e-06
1.31281e-06
1.32033e-06
1.32841e-06
1.33711e-06
1.34647e-06
1.35656e-06
1.36745e-06
1.37922e-06
1.21614e-06
1.21668e-06
1.21728e-06
1.21794e-06
1.21868e-06
1.2195e-06
1.22041e-06
1.22142e-06
1.22257e-06
1.22388e-06
1.2254e-06
1.22709e-06
1.22895e-06
1.23096e-06
1.23312e-06
1.23546e-06
1.23798e-06
1.2407e-06
1.24361e-06
1.24672e-06
1.25007e-06
1.25372e-06
1.25771e-06
1.26208e-06
1.26685e-06
1.27203e-06
1.27763e-06
1.28365e-06
1.29013e-06
1.2971e-06
1.3046e-06
1.31267e-06
1.32134e-06
1.33066e-06
1.34071e-06
1.35156e-06
1.36329e-06
1.17341e-06
1.17396e-06
1.17456e-06
1.1752e-06
1.17592e-06
1.17672e-06
1.17762e-06
1.17861e-06
1.17975e-06
1.18106e-06
1.18255e-06
1.1842e-06
1.18601e-06
1.18794e-06
1.19003e-06
1.19229e-06
1.19474e-06
1.1974e-06
1.20026e-06
1.20333e-06
1.20665e-06
1.21026e-06
1.21419e-06
1.21849e-06
1.22317e-06
1.22825e-06
1.23374e-06
1.23966e-06
1.24604e-06
1.25291e-06
1.2603e-06
1.26826e-06
1.27682e-06
1.28603e-06
1.29594e-06
1.30665e-06
1.31821e-06
1.07552e-06
1.07604e-06
1.07659e-06
1.07718e-06
1.07785e-06
1.0786e-06
1.07945e-06
1.08041e-06
1.08151e-06
1.08277e-06
1.08419e-06
1.08576e-06
1.08746e-06
1.0893e-06
1.09128e-06
1.09342e-06
1.09575e-06
1.09829e-06
1.10104e-06
1.10401e-06
1.10723e-06
1.11073e-06
1.11453e-06
1.11866e-06
1.12316e-06
1.12803e-06
1.13332e-06
1.13902e-06
1.14516e-06
1.15179e-06
1.15892e-06
1.16661e-06
1.17489e-06
1.1838e-06
1.19339e-06
1.20373e-06
1.2149e-06
8.78322e-07
8.78748e-07
8.79207e-07
8.79709e-07
8.80276e-07
8.80928e-07
8.81678e-07
8.82536e-07
8.83518e-07
8.8464e-07
8.85907e-07
8.87314e-07
8.88851e-07
8.90515e-07
8.92313e-07
8.9426e-07
8.96381e-07
8.98692e-07
9.01205e-07
9.03935e-07
9.06903e-07
9.10126e-07
9.13622e-07
9.17414e-07
9.2153e-07
9.25998e-07
9.30839e-07
9.36074e-07
9.41723e-07
9.47816e-07
9.54389e-07
9.61476e-07
9.69114e-07
9.77337e-07
9.86192e-07
9.9574e-07
1.00604e-06
5.15796e-07
5.16006e-07
5.16259e-07
5.16552e-07
5.1689e-07
5.17283e-07
5.17737e-07
5.1826e-07
5.18862e-07
5.19553e-07
5.20341e-07
5.21227e-07
5.22212e-07
5.23293e-07
5.24471e-07
5.25752e-07
5.27146e-07
5.28664e-07
5.30316e-07
5.32114e-07
5.3407e-07
5.36195e-07
5.385e-07
5.41e-07
5.43713e-07
5.46659e-07
5.49855e-07
5.53318e-07
5.57063e-07
5.61108e-07
5.65476e-07
5.7019e-07
5.75274e-07
5.80754e-07
5.86659e-07
5.93028e-07
5.99899e-07
5.2495e-07
5.25023e-07
5.25119e-07
5.25239e-07
5.25385e-07
5.25558e-07
5.25763e-07
5.26009e-07
5.26304e-07
5.2665e-07
5.27045e-07
5.27487e-07
5.27977e-07
5.28517e-07
5.29106e-07
5.29746e-07
5.30441e-07
5.312e-07
5.32029e-07
5.32934e-07
5.33914e-07
5.34971e-07
5.3611e-07
5.37344e-07
5.38684e-07
5.40141e-07
5.41723e-07
5.43438e-07
5.45293e-07
5.47293e-07
5.49442e-07
5.51745e-07
5.54212e-07
5.56861e-07
5.59711e-07
5.62782e-07
5.66091e-07
5.69657e-07
5.48522e-07
5.48573e-07
5.48634e-07
5.48707e-07
5.48792e-07
5.4889e-07
5.49004e-07
5.4914e-07
5.49304e-07
5.49495e-07
5.49711e-07
5.4995e-07
5.50212e-07
5.505e-07
5.50812e-07
5.51148e-07
5.5151e-07
5.51904e-07
5.52335e-07
5.52803e-07
5.53308e-07
5.5385e-07
5.54433e-07
5.55064e-07
5.55751e-07
5.56499e-07
5.5731e-07
5.58189e-07
5.59139e-07
5.60164e-07
5.61264e-07
5.62443e-07
5.63707e-07
5.65069e-07
5.66539e-07
5.68129e-07
5.69847e-07
5.71703e-07
6.03286e-07
6.03338e-07
6.03403e-07
6.03482e-07
6.03573e-07
6.03678e-07
6.03798e-07
6.03941e-07
6.04109e-07
6.04303e-07
6.04523e-07
6.04766e-07
6.05035e-07
6.05331e-07
6.05654e-07
6.06002e-07
6.06378e-07
6.06786e-07
6.0723e-07
6.07711e-07
6.08228e-07
6.08783e-07
6.0938e-07
6.1003e-07
6.10739e-07
6.1151e-07
6.12348e-07
6.13256e-07
6.14238e-07
6.15297e-07
6.16434e-07
6.17653e-07
6.18962e-07
6.20375e-07
6.21903e-07
6.23556e-07
6.25345e-07
6.27279e-07
6.29434e-07
6.29488e-07
6.29558e-07
6.29641e-07
6.29739e-07
6.29851e-07
6.2998e-07
6.30129e-07
6.30303e-07
6.30501e-07
6.30725e-07
6.30974e-07
6.31252e-07
6.31559e-07
6.31895e-07
6.32258e-07
6.3265e-07
6.33075e-07
6.33536e-07
6.34033e-07
6.34565e-07
6.35135e-07
6.35751e-07
6.36423e-07
6.37159e-07
6.37961e-07
6.38833e-07
6.39779e-07
6.408e-07
6.41901e-07
6.43083e-07
6.4435e-07
6.45712e-07
6.47184e-07
6.48777e-07
6.50502e-07
6.52368e-07
6.54388e-07
6.39837e-07
6.39897e-07
6.39969e-07
6.40056e-07
6.40158e-07
6.40275e-07
6.40409e-07
6.40563e-07
6.40738e-07
6.40937e-07
6.4116e-07
6.41412e-07
6.41694e-07
6.42007e-07
6.4235e-07
6.42722e-07
6.43124e-07
6.43558e-07
6.44026e-07
6.44529e-07
6.45065e-07
6.4564e-07
6.46263e-07
6.46946e-07
6.47694e-07
6.48513e-07
6.49403e-07
6.50367e-07
6.51409e-07
6.52531e-07
6.53734e-07
6.55025e-07
6.56415e-07
6.57917e-07
6.59543e-07
6.61303e-07
6.63209e-07
6.65272e-07
6.43227e-07
6.43292e-07
6.43368e-07
6.43458e-07
6.43563e-07
6.43684e-07
6.43821e-07
6.43976e-07
6.4415e-07
6.44346e-07
6.44568e-07
6.4482e-07
6.45104e-07
6.4542e-07
6.45766e-07
6.46141e-07
6.46545e-07
6.46982e-07
6.47452e-07
6.47954e-07
6.4849e-07
6.49065e-07
6.4969e-07
6.50376e-07
6.5113e-07
6.51954e-07
6.5285e-07
6.53821e-07
6.54869e-07
6.55997e-07
6.57208e-07
6.58509e-07
6.59912e-07
6.61428e-07
6.63067e-07
6.6484e-07
6.6676e-07
6.6884e-07
6.43219e-07
6.4329e-07
6.43372e-07
6.43465e-07
6.43573e-07
6.43696e-07
6.43835e-07
6.4399e-07
6.44162e-07
6.44356e-07
6.44576e-07
6.44828e-07
6.45113e-07
6.45428e-07
6.45772e-07
6.46145e-07
6.46547e-07
6.46981e-07
6.47448e-07
6.47948e-07
6.48482e-07
6.49056e-07
6.49681e-07
6.50367e-07
6.51119e-07
6.51942e-07
6.52837e-07
6.53806e-07
6.54851e-07
6.55976e-07
6.57187e-07
6.58491e-07
6.59898e-07
6.61416e-07
6.63056e-07
6.64829e-07
6.66749e-07
6.68829e-07
6.39891e-07
6.39978e-07
6.40075e-07
6.40184e-07
6.40307e-07
6.40446e-07
6.406e-07
6.40771e-07
6.40963e-07
6.41183e-07
6.41435e-07
6.41719e-07
6.42032e-07
6.4237e-07
6.42735e-07
6.43129e-07
6.43557e-07
6.44018e-07
6.44515e-07
6.45046e-07
6.45619e-07
6.46241e-07
6.46923e-07
6.47669e-07
6.48485e-07
6.49371e-07
6.50331e-07
6.51366e-07
6.52482e-07
6.53685e-07
6.54982e-07
6.56382e-07
6.57892e-07
6.59522e-07
6.61283e-07
6.63189e-07
6.65256e-07
6.29477e-07
6.29567e-07
6.29666e-07
6.29774e-07
6.29894e-07
6.3003e-07
6.30182e-07
6.30352e-07
6.30543e-07
6.30763e-07
6.31014e-07
6.31293e-07
6.31599e-07
6.31927e-07
6.3228e-07
6.32662e-07
6.33078e-07
6.33529e-07
6.34016e-07
6.34539e-07
6.35105e-07
6.35719e-07
6.3639e-07
6.37122e-07
6.37921e-07
6.38789e-07
6.39729e-07
6.40744e-07
6.41838e-07
6.43019e-07
6.44293e-07
6.45668e-07
6.47151e-07
6.48751e-07
6.50479e-07
6.5235e-07
6.54376e-07
6.03318e-07
6.03409e-07
6.03505e-07
6.03608e-07
6.03723e-07
6.03853e-07
6.04e-07
6.04167e-07
6.04356e-07
6.04573e-07
6.04818e-07
6.05089e-07
6.05383e-07
6.05698e-07
6.06035e-07
6.06399e-07
6.06796e-07
6.07228e-07
6.07696e-07
6.08202e-07
6.0875e-07
6.09347e-07
6.09995e-07
6.10701e-07
6.11469e-07
6.12303e-07
6.13207e-07
6.14183e-07
6.15236e-07
6.16372e-07
6.17597e-07
6.1892e-07
6.20346e-07
6.21885e-07
6.23546e-07
6.25342e-07
6.27287e-07
5.48546e-07
5.48637e-07
5.48731e-07
5.48829e-07
5.48937e-07
5.49062e-07
5.49205e-07
5.49369e-07
5.49556e-07
5.4977e-07
5.5001e-07
5.50274e-07
5.50559e-07
5.50864e-07
5.5119e-07
5.51541e-07
5.51923e-07
5.52339e-07
5.52792e-07
5.53284e-07
5.53819e-07
5.54401e-07
5.55033e-07
5.55717e-07
5.56461e-07
5.57267e-07
5.58141e-07
5.59086e-07
5.60104e-07
5.61201e-07
5.62385e-07
5.63662e-07
5.6504e-07
5.66523e-07
5.68123e-07
5.6985e-07
5.71717e-07
5.24954e-07
5.25092e-07
5.25246e-07
5.25417e-07
5.25611e-07
5.25836e-07
5.26097e-07
5.26398e-07
5.26744e-07
5.2714e-07
5.27587e-07
5.28084e-07
5.28627e-07
5.29215e-07
5.29849e-07
5.30535e-07
5.3128e-07
5.32091e-07
5.32975e-07
5.33938e-07
5.34985e-07
5.36123e-07
5.37355e-07
5.38689e-07
5.40136e-07
5.41706e-07
5.43408e-07
5.45248e-07
5.47233e-07
5.49373e-07
5.51681e-07
5.54169e-07
5.56848e-07
5.59733e-07
5.62837e-07
5.66183e-07
5.69793e-07
6.62814e-07
6.62896e-07
6.63001e-07
6.63133e-07
6.63292e-07
6.63481e-07
6.63707e-07
6.63981e-07
6.64311e-07
6.64699e-07
6.65143e-07
6.65638e-07
6.66185e-07
6.66785e-07
6.67437e-07
6.68142e-07
6.68906e-07
6.69738e-07
6.70647e-07
6.71637e-07
6.72707e-07
6.73857e-07
6.75095e-07
6.76436e-07
6.77894e-07
6.79478e-07
6.81199e-07
6.83064e-07
6.85082e-07
6.87256e-07
6.89589e-07
6.92086e-07
6.9476e-07
6.97632e-07
7.00723e-07
7.04054e-07
7.07645e-07
7.11515e-07
5.27734e-07
5.27754e-07
5.27779e-07
5.2781e-07
5.27847e-07
5.27889e-07
5.27939e-07
5.27998e-07
5.28068e-07
5.28151e-07
5.28245e-07
5.2835e-07
5.28465e-07
5.28591e-07
5.28727e-07
5.28874e-07
5.29032e-07
5.29204e-07
5.29393e-07
5.29598e-07
5.2982e-07
5.30059e-07
5.30317e-07
5.30596e-07
5.309e-07
5.31231e-07
5.31592e-07
5.31985e-07
5.3241e-07
5.3287e-07
5.33365e-07
5.33897e-07
5.34471e-07
5.35091e-07
5.35763e-07
5.36493e-07
5.37286e-07
5.38148e-07
5.29003e-07
5.29009e-07
5.2902e-07
5.29035e-07
5.29054e-07
5.29078e-07
5.29105e-07
5.29138e-07
5.29177e-07
5.29223e-07
5.29277e-07
5.29338e-07
5.29406e-07
5.29482e-07
5.29566e-07
5.29658e-07
5.29758e-07
5.29867e-07
5.29987e-07
5.30118e-07
5.3026e-07
5.30415e-07
5.30582e-07
5.30764e-07
5.30964e-07
5.31183e-07
5.31422e-07
5.31683e-07
5.31968e-07
5.32279e-07
5.32616e-07
5.32981e-07
5.33378e-07
5.33809e-07
5.3428e-07
5.34794e-07
5.35356e-07
5.35969e-07
5.31196e-07
5.31197e-07
5.31202e-07
5.31211e-07
5.31225e-07
5.31243e-07
5.31264e-07
5.3129e-07
5.31322e-07
5.31359e-07
5.31402e-07
5.31451e-07
5.31508e-07
5.31572e-07
5.31644e-07
5.31724e-07
5.31813e-07
5.3191e-07
5.32016e-07
5.32134e-07
5.32262e-07
5.32401e-07
5.32552e-07
5.32717e-07
5.32898e-07
5.33097e-07
5.33316e-07
5.33556e-07
5.33819e-07
5.34106e-07
5.34419e-07
5.34761e-07
5.35132e-07
5.35537e-07
5.3598e-07
5.36466e-07
5.36997e-07
5.3758e-07
5.31332e-07
5.31329e-07
5.31332e-07
5.31338e-07
5.31349e-07
5.31365e-07
5.31385e-07
5.31409e-07
5.31438e-07
5.31472e-07
5.31511e-07
5.31557e-07
5.31609e-07
5.31669e-07
5.31737e-07
5.31814e-07
5.31899e-07
5.31993e-07
5.32097e-07
5.32211e-07
5.32335e-07
5.3247e-07
5.32616e-07
5.32776e-07
5.32952e-07
5.33146e-07
5.3336e-07
5.33595e-07
5.33852e-07
5.34135e-07
5.34443e-07
5.3478e-07
5.35146e-07
5.35547e-07
5.35986e-07
5.36467e-07
5.36995e-07
5.37574e-07
5.31062e-07
5.31059e-07
5.3106e-07
5.31065e-07
5.31076e-07
5.31091e-07
5.31111e-07
5.31135e-07
5.31163e-07
5.31195e-07
5.31233e-07
5.31276e-07
5.31327e-07
5.31387e-07
5.31454e-07
5.31529e-07
5.31613e-07
5.31707e-07
5.3181e-07
5.31923e-07
5.32047e-07
5.3218e-07
5.32324e-07
5.32482e-07
5.32657e-07
5.3285e-07
5.33062e-07
5.33295e-07
5.33551e-07
5.33832e-07
5.34139e-07
5.34473e-07
5.34839e-07
5.35239e-07
5.35678e-07
5.36158e-07
5.36685e-07
5.37264e-07
5.3106e-07
5.31057e-07
5.31058e-07
5.31064e-07
5.31075e-07
5.3109e-07
5.3111e-07
5.31135e-07
5.31163e-07
5.31195e-07
5.31233e-07
5.31276e-07
5.31328e-07
5.31388e-07
5.31455e-07
5.31531e-07
5.31615e-07
5.31709e-07
5.31812e-07
5.31925e-07
5.32048e-07
5.32181e-07
5.32326e-07
5.32484e-07
5.32659e-07
5.32852e-07
5.33064e-07
5.33297e-07
5.33553e-07
5.33833e-07
5.34139e-07
5.34474e-07
5.3484e-07
5.35241e-07
5.35679e-07
5.3616e-07
5.36688e-07
5.37266e-07
5.31324e-07
5.31327e-07
5.31334e-07
5.31346e-07
5.31363e-07
5.31384e-07
5.31409e-07
5.31439e-07
5.31472e-07
5.31511e-07
5.31557e-07
5.3161e-07
5.31672e-07
5.31742e-07
5.31819e-07
5.31904e-07
5.31998e-07
5.32102e-07
5.32216e-07
5.32341e-07
5.32475e-07
5.32621e-07
5.32782e-07
5.32958e-07
5.33152e-07
5.33366e-07
5.33601e-07
5.33858e-07
5.34138e-07
5.34445e-07
5.34781e-07
5.35149e-07
5.35551e-07
5.35991e-07
5.36473e-07
5.37002e-07
5.37581e-07
5.31188e-07
5.31195e-07
5.31206e-07
5.31221e-07
5.3124e-07
5.31264e-07
5.31292e-07
5.31324e-07
5.31361e-07
5.31404e-07
5.31454e-07
5.31512e-07
5.31578e-07
5.31652e-07
5.31732e-07
5.3182e-07
5.31917e-07
5.32024e-07
5.32141e-07
5.32269e-07
5.32407e-07
5.32558e-07
5.32723e-07
5.32905e-07
5.33104e-07
5.33323e-07
5.33562e-07
5.33824e-07
5.3411e-07
5.34421e-07
5.34762e-07
5.35135e-07
5.35542e-07
5.35987e-07
5.36474e-07
5.37007e-07
5.37592e-07
5.28999e-07
5.29015e-07
5.29034e-07
5.29055e-07
5.29081e-07
5.2911e-07
5.29145e-07
5.29185e-07
5.29232e-07
5.29285e-07
5.29347e-07
5.29417e-07
5.29494e-07
5.29577e-07
5.29668e-07
5.29766e-07
5.29874e-07
5.29992e-07
5.30121e-07
5.30261e-07
5.30414e-07
5.30581e-07
5.30764e-07
5.30963e-07
5.31182e-07
5.31421e-07
5.31681e-07
5.31965e-07
5.32274e-07
5.3261e-07
5.32976e-07
5.33374e-07
5.33809e-07
5.34282e-07
5.34798e-07
5.35362e-07
5.35978e-07
5.27747e-07
5.27784e-07
5.27824e-07
5.27866e-07
5.27912e-07
5.27966e-07
5.28027e-07
5.28098e-07
5.28179e-07
5.28272e-07
5.28377e-07
5.28492e-07
5.28617e-07
5.28749e-07
5.28891e-07
5.29043e-07
5.29209e-07
5.2939e-07
5.29588e-07
5.29804e-07
5.30039e-07
5.30296e-07
5.30575e-07
5.30878e-07
5.31207e-07
5.31565e-07
5.31955e-07
5.32377e-07
5.32834e-07
5.33327e-07
5.33862e-07
5.34441e-07
5.35068e-07
5.35746e-07
5.3648e-07
5.37275e-07
5.38139e-07
6.62824e-07
6.6298e-07
6.63151e-07
6.63339e-07
6.63553e-07
6.63801e-07
6.64091e-07
6.64427e-07
6.64815e-07
6.65258e-07
6.65758e-07
6.66311e-07
6.66911e-07
6.67556e-07
6.68249e-07
6.68996e-07
6.69807e-07
6.7069e-07
6.71652e-07
6.72702e-07
6.73846e-07
6.75087e-07
6.76431e-07
6.77886e-07
6.79463e-07
6.81174e-07
6.83027e-07
6.85029e-07
6.87187e-07
6.89513e-07
6.92021e-07
6.94722e-07
6.97631e-07
7.00761e-07
7.0413e-07
7.07763e-07
7.11686e-07
7.4952e-07
7.496e-07
7.49703e-07
7.49833e-07
7.49993e-07
7.50185e-07
7.50417e-07
7.50697e-07
7.51033e-07
7.51437e-07
7.51902e-07
7.52421e-07
7.52993e-07
7.53618e-07
7.54294e-07
7.55023e-07
7.55813e-07
7.56674e-07
7.57614e-07
7.58638e-07
7.59742e-07
7.60928e-07
7.62204e-07
7.63584e-07
7.65085e-07
7.66718e-07
7.68493e-07
7.70419e-07
7.72502e-07
7.74747e-07
7.77155e-07
7.79732e-07
7.82491e-07
7.85452e-07
7.88642e-07
7.92081e-07
7.9579e-07
7.99792e-07
5.32272e-07
5.32284e-07
5.32301e-07
5.32322e-07
5.32349e-07
5.32379e-07
5.32414e-07
5.32453e-07
5.32497e-07
5.3255e-07
5.32613e-07
5.32684e-07
5.32764e-07
5.32852e-07
5.32948e-07
5.33052e-07
5.33165e-07
5.33289e-07
5.33425e-07
5.33573e-07
5.33735e-07
5.3391e-07
5.34099e-07
5.34304e-07
5.34529e-07
5.34774e-07
5.35041e-07
5.35332e-07
5.35649e-07
5.35994e-07
5.36368e-07
5.36775e-07
5.37215e-07
5.37694e-07
5.38215e-07
5.38781e-07
5.39398e-07
5.40073e-07
5.02215e-07
5.02209e-07
5.02205e-07
5.02203e-07
5.02203e-07
5.02204e-07
5.02206e-07
5.02209e-07
5.02213e-07
5.02218e-07
5.02226e-07
5.02237e-07
5.02252e-07
5.02269e-07
5.0229e-07
5.02315e-07
5.02343e-07
5.02374e-07
5.0241e-07
5.02451e-07
5.02497e-07
5.02549e-07
5.02607e-07
5.02671e-07
5.02741e-07
5.02819e-07
5.02907e-07
5.03004e-07
5.03113e-07
5.03235e-07
5.03372e-07
5.03525e-07
5.03696e-07
5.03886e-07
5.04096e-07
5.04331e-07
5.04591e-07
5.04881e-07
4.9016e-07
4.90145e-07
4.90132e-07
4.90121e-07
4.90111e-07
4.90102e-07
4.90094e-07
4.90086e-07
4.90077e-07
4.9007e-07
4.90063e-07
4.90057e-07
4.90053e-07
4.90051e-07
4.90052e-07
4.90055e-07
4.90061e-07
4.90069e-07
4.90081e-07
4.90096e-07
4.90115e-07
4.90138e-07
4.90165e-07
4.90194e-07
4.90227e-07
4.90266e-07
4.90311e-07
4.90363e-07
4.90424e-07
4.90495e-07
4.90579e-07
4.90676e-07
4.90786e-07
4.90912e-07
4.91054e-07
4.91216e-07
4.914e-07
4.91608e-07
4.83989e-07
4.83969e-07
4.83951e-07
4.83935e-07
4.83921e-07
4.83908e-07
4.83895e-07
4.83883e-07
4.83871e-07
4.83859e-07
4.83847e-07
4.83835e-07
4.83824e-07
4.83814e-07
4.83807e-07
4.83803e-07
4.83801e-07
4.83801e-07
4.83805e-07
4.83813e-07
4.83824e-07
4.83838e-07
4.83854e-07
4.83871e-07
4.83892e-07
4.83917e-07
4.83948e-07
4.83985e-07
4.8403e-07
4.84085e-07
4.84152e-07
4.84231e-07
4.84322e-07
4.84428e-07
4.8455e-07
4.84689e-07
4.8485e-07
4.85034e-07
4.81366e-07
4.81343e-07
4.81323e-07
4.81304e-07
4.81288e-07
4.81273e-07
4.81259e-07
4.81245e-07
4.81232e-07
4.81219e-07
4.81205e-07
4.81191e-07
4.81178e-07
4.81166e-07
4.81156e-07
4.8115e-07
4.81145e-07
4.81144e-07
4.81146e-07
4.81151e-07
4.8116e-07
4.81171e-07
4.81183e-07
4.81197e-07
4.81213e-07
4.81234e-07
4.81259e-07
4.81291e-07
4.81331e-07
4.81381e-07
4.81442e-07
4.81514e-07
4.81598e-07
4.81697e-07
4.81812e-07
4.81945e-07
4.82098e-07
4.82274e-07
4.81366e-07
4.81342e-07
4.8132e-07
4.81301e-07
4.81284e-07
4.81269e-07
4.81255e-07
4.81242e-07
4.81229e-07
4.81216e-07
4.81203e-07
4.81189e-07
4.81176e-07
4.81165e-07
4.81157e-07
4.8115e-07
4.81147e-07
4.81146e-07
4.81149e-07
4.81155e-07
4.81164e-07
4.81175e-07
4.81187e-07
4.81202e-07
4.81218e-07
4.81239e-07
4.81265e-07
4.81297e-07
4.81338e-07
4.81387e-07
4.81447e-07
4.81519e-07
4.81603e-07
4.81702e-07
4.81817e-07
4.8195e-07
4.82103e-07
4.8228e-07
4.83964e-07
4.83943e-07
4.83925e-07
4.8391e-07
4.83896e-07
4.83884e-07
4.83873e-07
4.83862e-07
4.83851e-07
4.8384e-07
4.83829e-07
4.83819e-07
4.83812e-07
4.83807e-07
4.83805e-07
4.83805e-07
4.83808e-07
4.83814e-07
4.83824e-07
4.83836e-07
4.8385e-07
4.83866e-07
4.83885e-07
4.83906e-07
4.83932e-07
4.83963e-07
4.84001e-07
4.84047e-07
4.84102e-07
4.84167e-07
4.84244e-07
4.84335e-07
4.8444e-07
4.84562e-07
4.84702e-07
4.84863e-07
4.85048e-07
4.90138e-07
4.90121e-07
4.90107e-07
4.90096e-07
4.90087e-07
4.90079e-07
4.90072e-07
4.90066e-07
4.9006e-07
4.90055e-07
4.9005e-07
4.90048e-07
4.90049e-07
4.90052e-07
4.90058e-07
4.90067e-07
4.90078e-07
4.90093e-07
4.9011e-07
4.90131e-07
4.90154e-07
4.90181e-07
4.90211e-07
4.90245e-07
4.90285e-07
4.90331e-07
4.90384e-07
4.90445e-07
4.90516e-07
4.90599e-07
4.90693e-07
4.90802e-07
4.90927e-07
4.91069e-07
4.91232e-07
4.91416e-07
4.91625e-07
5.02202e-07
5.02195e-07
5.02192e-07
5.02191e-07
5.02192e-07
5.02195e-07
5.02199e-07
5.02205e-07
5.02213e-07
5.02222e-07
5.02235e-07
5.0225e-07
5.0227e-07
5.02293e-07
5.02319e-07
5.02349e-07
5.02382e-07
5.0242e-07
5.02462e-07
5.02509e-07
5.0256e-07
5.02618e-07
5.02682e-07
5.02753e-07
5.02832e-07
5.02919e-07
5.03017e-07
5.03126e-07
5.03248e-07
5.03384e-07
5.03535e-07
5.03704e-07
5.03893e-07
5.04104e-07
5.04338e-07
5.04599e-07
5.0489e-07
5.32279e-07
5.32299e-07
5.32324e-07
5.32352e-07
5.32385e-07
5.32421e-07
5.32462e-07
5.32509e-07
5.32564e-07
5.32628e-07
5.327e-07
5.3278e-07
5.32868e-07
5.32962e-07
5.33064e-07
5.33174e-07
5.33294e-07
5.33426e-07
5.3357e-07
5.33727e-07
5.339e-07
5.34088e-07
5.34293e-07
5.34517e-07
5.3476e-07
5.35025e-07
5.35315e-07
5.35629e-07
5.35972e-07
5.36345e-07
5.36751e-07
5.37193e-07
5.37673e-07
5.38195e-07
5.38764e-07
5.39381e-07
5.40054e-07
7.49522e-07
7.49682e-07
7.49855e-07
7.50047e-07
7.50265e-07
7.50518e-07
7.50815e-07
7.51163e-07
7.51567e-07
7.5203e-07
7.52553e-07
7.53129e-07
7.5375e-07
7.54415e-07
7.55128e-07
7.55895e-07
7.56727e-07
7.57634e-07
7.58625e-07
7.59709e-07
7.60891e-07
7.62173e-07
7.63561e-07
7.65062e-07
7.66689e-07
7.68454e-07
7.70366e-07
7.72432e-07
7.7466e-07
7.77061e-07
7.7965e-07
7.82439e-07
7.85442e-07
7.88674e-07
7.92155e-07
7.9591e-07
7.99969e-07
8.05911e-07
8.05982e-07
8.06075e-07
8.06196e-07
8.06349e-07
8.06536e-07
8.06764e-07
8.07043e-07
8.07379e-07
8.07774e-07
8.08234e-07
8.08756e-07
8.0933e-07
8.09955e-07
8.10628e-07
8.11354e-07
8.1214e-07
8.12997e-07
8.13935e-07
8.14957e-07
8.16059e-07
8.17242e-07
8.18512e-07
8.19887e-07
8.21383e-07
8.23013e-07
8.24788e-07
8.26716e-07
8.28803e-07
8.3105e-07
8.3347e-07
8.36068e-07
8.38852e-07
8.41841e-07
8.45057e-07
8.48523e-07
8.52261e-07
8.56293e-07
5.3767e-07
5.3768e-07
5.37697e-07
5.37718e-07
5.37742e-07
5.3777e-07
5.37801e-07
5.37833e-07
5.37868e-07
5.37908e-07
5.37957e-07
5.38018e-07
5.38087e-07
5.38164e-07
5.38249e-07
5.38342e-07
5.38443e-07
5.38554e-07
5.38676e-07
5.3881e-07
5.38957e-07
5.39116e-07
5.39289e-07
5.39478e-07
5.39684e-07
5.39909e-07
5.40155e-07
5.40424e-07
5.40718e-07
5.41039e-07
5.41393e-07
5.41784e-07
5.42211e-07
5.42677e-07
5.43183e-07
5.43734e-07
5.44334e-07
5.44989e-07
4.87476e-07
4.87466e-07
4.87459e-07
4.87454e-07
4.87449e-07
4.87444e-07
4.87439e-07
4.87432e-07
4.87425e-07
4.87417e-07
4.87411e-07
4.87407e-07
4.87405e-07
4.87405e-07
4.87408e-07
4.87413e-07
4.8742e-07
4.8743e-07
4.87442e-07
4.87457e-07
4.87475e-07
4.87498e-07
4.87525e-07
4.87556e-07
4.8759e-07
4.87629e-07
4.87674e-07
4.87726e-07
4.87786e-07
4.87857e-07
4.8794e-07
4.88037e-07
4.8815e-07
4.88278e-07
4.88424e-07
4.88588e-07
4.88773e-07
4.88983e-07
4.65754e-07
4.65735e-07
4.65717e-07
4.65701e-07
4.65684e-07
4.65668e-07
4.65651e-07
4.65632e-07
4.65612e-07
4.65591e-07
4.65569e-07
4.65546e-07
4.65524e-07
4.65502e-07
4.65481e-07
4.65461e-07
4.65442e-07
4.65424e-07
4.65407e-07
4.65391e-07
4.65377e-07
4.65365e-07
4.65354e-07
4.65342e-07
4.65332e-07
4.65322e-07
4.65315e-07
4.65311e-07
4.65312e-07
4.6532e-07
4.65336e-07
4.65361e-07
4.65396e-07
4.65442e-07
4.65499e-07
4.65569e-07
4.65655e-07
4.65758e-07
4.55041e-07
4.55016e-07
4.54993e-07
4.54971e-07
4.54949e-07
4.54927e-07
4.54905e-07
4.54881e-07
4.54857e-07
4.5483e-07
4.54803e-07
4.54773e-07
4.54743e-07
4.54713e-07
4.54683e-07
4.54654e-07
4.54625e-07
4.54597e-07
4.54569e-07
4.54543e-07
4.54519e-07
4.54495e-07
4.5447e-07
4.54444e-07
4.54417e-07
4.5439e-07
4.54364e-07
4.5434e-07
4.54321e-07
4.54306e-07
4.54299e-07
4.543e-07
4.54308e-07
4.54326e-07
4.54353e-07
4.54391e-07
4.54444e-07
4.54512e-07
4.50624e-07
4.50596e-07
4.5057e-07
4.50544e-07
4.5052e-07
4.50495e-07
4.50471e-07
4.50446e-07
4.5042e-07
4.50393e-07
4.50363e-07
4.50331e-07
4.50299e-07
4.50266e-07
4.50233e-07
4.502e-07
4.50168e-07
4.50137e-07
4.50107e-07
4.50078e-07
4.5005e-07
4.50022e-07
4.49992e-07
4.49961e-07
4.49928e-07
4.49895e-07
4.49863e-07
4.49832e-07
4.49805e-07
4.49783e-07
4.49768e-07
4.49759e-07
4.49757e-07
4.49764e-07
4.49781e-07
4.49809e-07
4.4985e-07
4.49906e-07
4.50625e-07
4.50595e-07
4.50567e-07
4.5054e-07
4.50515e-07
4.50491e-07
4.50466e-07
4.50442e-07
4.50416e-07
4.50389e-07
4.5036e-07
4.50329e-07
4.50297e-07
4.50264e-07
4.50232e-07
4.50201e-07
4.5017e-07
4.50139e-07
4.5011e-07
4.50082e-07
4.50054e-07
4.50027e-07
4.49997e-07
4.49966e-07
4.49934e-07
4.49901e-07
4.49869e-07
4.49839e-07
4.49813e-07
4.49791e-07
4.49775e-07
4.49765e-07
4.49763e-07
4.4977e-07
4.49786e-07
4.49814e-07
4.49856e-07
4.49913e-07
4.55012e-07
4.54985e-07
4.54959e-07
4.54936e-07
4.54913e-07
4.54891e-07
4.54869e-07
4.54846e-07
4.54821e-07
4.54794e-07
4.54766e-07
4.54738e-07
4.54709e-07
4.54682e-07
4.54655e-07
4.54629e-07
4.54604e-07
4.54579e-07
4.54555e-07
4.54532e-07
4.54508e-07
4.54484e-07
4.54459e-07
4.54433e-07
4.54407e-07
4.54382e-07
4.5436e-07
4.54341e-07
4.54327e-07
4.54319e-07
4.54317e-07
4.54324e-07
4.54339e-07
4.54366e-07
4.54405e-07
4.54458e-07
4.54527e-07
4.65728e-07
4.65705e-07
4.65684e-07
4.65666e-07
4.65648e-07
4.65631e-07
4.65614e-07
4.65597e-07
4.65578e-07
4.65558e-07
4.65537e-07
4.65516e-07
4.65497e-07
4.6548e-07
4.65463e-07
4.65448e-07
4.65433e-07
4.6542e-07
4.65407e-07
4.65395e-07
4.65384e-07
4.65373e-07
4.65362e-07
4.65353e-07
4.65345e-07
4.65339e-07
4.65337e-07
4.65339e-07
4.65347e-07
4.65362e-07
4.65384e-07
4.65416e-07
4.6546e-07
4.65516e-07
4.65586e-07
4.65672e-07
4.65776e-07
4.87459e-07
4.87446e-07
4.87436e-07
4.8743e-07
4.87424e-07
4.87419e-07
4.87415e-07
4.8741e-07
4.87406e-07
4.87403e-07
4.874e-07
4.874e-07
4.87402e-07
4.87408e-07
4.87416e-07
4.87426e-07
4.87439e-07
4.87454e-07
4.87471e-07
4.87491e-07
4.87515e-07
4.87541e-07
4.87572e-07
4.87608e-07
4.87648e-07
4.87694e-07
4.87747e-07
4.87809e-07
4.8788e-07
4.87962e-07
4.88056e-07
4.88165e-07
4.8829e-07
4.88433e-07
4.88596e-07
4.88781e-07
4.8899e-07
5.37671e-07
5.37685e-07
5.37705e-07
5.37731e-07
5.3776e-07
5.37792e-07
5.37827e-07
5.37865e-07
5.37911e-07
5.37965e-07
5.38028e-07
5.38098e-07
5.38175e-07
5.3826e-07
5.38352e-07
5.38452e-07
5.38561e-07
5.38681e-07
5.38813e-07
5.38957e-07
5.39115e-07
5.39288e-07
5.39477e-07
5.39683e-07
5.39908e-07
5.40153e-07
5.40421e-07
5.40713e-07
5.41034e-07
5.41386e-07
5.41771e-07
5.42192e-07
5.42652e-07
5.43154e-07
5.43702e-07
5.44296e-07
5.44942e-07
8.05902e-07
8.06057e-07
8.06224e-07
8.06409e-07
8.06623e-07
8.06873e-07
8.07165e-07
8.07504e-07
8.07904e-07
8.08366e-07
8.0889e-07
8.09465e-07
8.10085e-07
8.10745e-07
8.11451e-07
8.1221e-07
8.13034e-07
8.13933e-07
8.1492e-07
8.16003e-07
8.17184e-07
8.18465e-07
8.19851e-07
8.21348e-07
8.22971e-07
8.24732e-07
8.26641e-07
8.28705e-07
8.30935e-07
8.33346e-07
8.35948e-07
8.38753e-07
8.41775e-07
8.45027e-07
8.48531e-07
8.5231e-07
8.5639e-07
8.43024e-07
8.43081e-07
8.4316e-07
8.43267e-07
8.43408e-07
8.43585e-07
8.43806e-07
8.44077e-07
8.44409e-07
8.44798e-07
8.45244e-07
8.45755e-07
8.4632e-07
8.46931e-07
8.47588e-07
8.48297e-07
8.49064e-07
8.49902e-07
8.5082e-07
8.51822e-07
8.52905e-07
8.54066e-07
8.55312e-07
8.56661e-07
8.58137e-07
8.5975e-07
8.61508e-07
8.63419e-07
8.6549e-07
8.67724e-07
8.70122e-07
8.72693e-07
8.75446e-07
8.78399e-07
8.81576e-07
8.85002e-07
8.88697e-07
8.92686e-07
5.41118e-07
5.4113e-07
5.41148e-07
5.4117e-07
5.41194e-07
5.41221e-07
5.4125e-07
5.41279e-07
5.4131e-07
5.41344e-07
5.41385e-07
5.41439e-07
5.41504e-07
5.41578e-07
5.41659e-07
5.41747e-07
5.41845e-07
5.41951e-07
5.42069e-07
5.42198e-07
5.4234e-07
5.42495e-07
5.42665e-07
5.42849e-07
5.43053e-07
5.43276e-07
5.43518e-07
5.43783e-07
5.44074e-07
5.44394e-07
5.44748e-07
5.4514e-07
5.45571e-07
5.46043e-07
5.46556e-07
5.47114e-07
5.47721e-07
5.48383e-07
4.77578e-07
4.7757e-07
4.77564e-07
4.77559e-07
4.77554e-07
4.77548e-07
4.77542e-07
4.77533e-07
4.77523e-07
4.77512e-07
4.77502e-07
4.77494e-07
4.77488e-07
4.77485e-07
4.77484e-07
4.77485e-07
4.77488e-07
4.77493e-07
4.77499e-07
4.77509e-07
4.77522e-07
4.77539e-07
4.77559e-07
4.77583e-07
4.77611e-07
4.77642e-07
4.77679e-07
4.77721e-07
4.77772e-07
4.77833e-07
4.77908e-07
4.77997e-07
4.78101e-07
4.78223e-07
4.78361e-07
4.78518e-07
4.78695e-07
4.78897e-07
4.49051e-07
4.49033e-07
4.49016e-07
4.49e-07
4.48983e-07
4.48966e-07
4.48947e-07
4.48927e-07
4.48904e-07
4.4888e-07
4.48855e-07
4.48829e-07
4.48803e-07
4.48778e-07
4.48753e-07
4.48728e-07
4.48704e-07
4.4868e-07
4.48657e-07
4.48634e-07
4.48613e-07
4.48592e-07
4.48573e-07
4.48553e-07
4.48533e-07
4.48513e-07
4.48494e-07
4.48478e-07
4.48467e-07
4.48461e-07
4.48463e-07
4.48474e-07
4.48495e-07
4.48526e-07
4.48569e-07
4.48623e-07
4.48693e-07
4.4878e-07
4.3493e-07
4.34906e-07
4.34883e-07
4.3486e-07
4.34838e-07
4.34815e-07
4.34791e-07
4.34766e-07
4.34739e-07
4.3471e-07
4.34679e-07
4.34647e-07
4.34613e-07
4.34579e-07
4.34545e-07
4.3451e-07
4.34476e-07
4.34441e-07
4.34407e-07
4.34373e-07
4.34339e-07
4.34306e-07
4.34272e-07
4.34236e-07
4.34198e-07
4.3416e-07
4.34121e-07
4.34084e-07
4.34049e-07
4.3402e-07
4.33996e-07
4.3398e-07
4.3397e-07
4.3397e-07
4.33978e-07
4.33996e-07
4.34028e-07
4.34076e-07
4.29095e-07
4.29067e-07
4.29041e-07
4.29015e-07
4.2899e-07