/*--------------------------------*- C++ -*----------------------------------*\
| =========                 |                                                 |
| \\      /  F ield         | OpenFOAM: The Open Source CFD Toolbox           |
|  \\    /   O peration     | Version:  2.3.1                                 |
|   \\  /    A nd           | Web:      www.OpenFOAM.org                      |
|    \\/     M anipulation  |                                                 |
\*---------------------------------------------------------------------------*/
FoamFile
{
    version     2.0;
    format      ascii;
    class       volScalarField;
    location    "15";
    object      k;
}
// * * * * * * * * * * * * * * * * * * * * * * * * * * * * * * * * * * * * * //

dimensions      [0 2 -2 0 0 0 0];

internalField   nonuniform List<scalar> 
37692
(
3.74227e-06
3.74278e-06
3.7435e-06
3.74444e-06
3.74562e-06
3.74704e-06
3.74874e-06
3.75077e-06
3.75318e-06
3.75603e-06
3.75932e-06
3.76305e-06
3.76724e-06
3.7719e-06
3.77705e-06
3.78269e-06
3.78885e-06
3.79558e-06
3.80293e-06
3.81097e-06
3.8197e-06
3.82914e-06
3.83935e-06
3.85039e-06
3.86236e-06
3.87535e-06
3.88944e-06
3.90471e-06
3.92122e-06
3.93904e-06
3.95819e-06
3.97872e-06
4.0007e-06
4.02425e-06
4.0495e-06
4.07659e-06
4.10567e-06
4.13689e-06
5.33583e-06
5.33678e-06
5.33796e-06
5.33941e-06
5.34115e-06
5.34318e-06
5.34556e-06
5.34842e-06
5.35183e-06
5.35582e-06
5.36035e-06
5.36542e-06
5.37104e-06
5.37725e-06
5.38404e-06
5.39141e-06
5.39941e-06
5.40813e-06
5.41765e-06
5.42801e-06
5.4392e-06
5.45124e-06
5.46421e-06
5.47824e-06
5.49348e-06
5.51e-06
5.52791e-06
5.54728e-06
5.56819e-06
5.59071e-06
5.61487e-06
5.6407e-06
5.66834e-06
5.69797e-06
5.72979e-06
5.76397e-06
5.80069e-06
5.8401e-06
6.10675e-06
6.10787e-06
6.10926e-06
6.11094e-06
6.1129e-06
6.11516e-06
6.11779e-06
6.12091e-06
6.12458e-06
6.12883e-06
6.13362e-06
6.13894e-06
6.14485e-06
6.15137e-06
6.15848e-06
6.16617e-06
6.17448e-06
6.18352e-06
6.19335e-06
6.204e-06
6.21543e-06
6.22766e-06
6.24084e-06
6.25514e-06
6.27071e-06
6.28761e-06
6.30592e-06
6.32571e-06
6.34705e-06
6.36999e-06
6.39454e-06
6.42076e-06
6.44882e-06
6.47895e-06
6.51135e-06
6.5462e-06
6.58366e-06
6.62389e-06
6.47162e-06
6.47288e-06
6.47442e-06
6.47624e-06
6.47836e-06
6.48078e-06
6.48357e-06
6.48682e-06
6.49059e-06
6.4949e-06
6.49976e-06
6.50519e-06
6.51125e-06
6.51795e-06
6.52525e-06
6.53314e-06
6.54165e-06
6.55086e-06
6.56084e-06
6.57155e-06
6.58297e-06
6.59518e-06
6.60837e-06
6.62276e-06
6.63847e-06
6.65557e-06
6.6741e-06
6.69413e-06
6.71571e-06
6.73884e-06
6.76355e-06
6.78993e-06
6.81818e-06
6.84854e-06
6.88123e-06
6.91643e-06
6.95427e-06
6.99495e-06
6.62761e-06
6.62899e-06
6.63062e-06
6.63253e-06
6.63476e-06
6.6373e-06
6.64019e-06
6.6435e-06
6.64727e-06
6.65155e-06
6.65639e-06
6.66185e-06
6.66798e-06
6.67477e-06
6.68218e-06
6.69019e-06
6.69882e-06
6.70812e-06
6.71811e-06
6.72877e-06
6.74009e-06
6.75221e-06
6.76537e-06
6.77977e-06
6.79555e-06
6.81275e-06
6.83141e-06
6.85156e-06
6.87324e-06
6.89646e-06
6.92123e-06
6.94769e-06
6.97605e-06
7.00655e-06
7.0394e-06
7.07475e-06
7.11278e-06
7.15368e-06
6.68228e-06
6.68378e-06
6.68551e-06
6.68751e-06
6.68982e-06
6.69244e-06
6.69539e-06
6.6987e-06
6.70242e-06
6.70664e-06
6.71143e-06
6.7169e-06
6.72305e-06
6.72988e-06
6.73733e-06
6.74537e-06
6.75402e-06
6.76332e-06
6.77327e-06
6.78384e-06
6.79508e-06
6.80713e-06
6.82026e-06
6.83466e-06
6.85045e-06
6.86768e-06
6.88636e-06
6.90654e-06
6.92822e-06
6.95143e-06
6.97623e-06
7.00277e-06
7.03123e-06
7.06183e-06
7.09473e-06
7.13014e-06
7.16824e-06
7.20926e-06
6.68212e-06
6.68376e-06
6.68561e-06
6.68771e-06
6.69008e-06
6.69275e-06
6.69573e-06
6.69904e-06
6.70272e-06
6.70688e-06
6.71165e-06
6.71712e-06
6.72329e-06
6.73009e-06
6.73749e-06
6.74546e-06
6.75404e-06
6.76327e-06
6.77315e-06
6.78367e-06
6.79487e-06
6.80691e-06
6.82003e-06
6.83442e-06
6.85018e-06
6.86737e-06
6.88601e-06
6.90613e-06
6.92775e-06
6.95092e-06
6.97573e-06
7.00234e-06
7.0309e-06
7.06156e-06
7.09448e-06
7.12989e-06
7.16801e-06
7.20909e-06
6.62891e-06
6.63088e-06
6.63305e-06
6.63546e-06
6.63814e-06
6.64112e-06
6.64442e-06
6.64809e-06
6.65223e-06
6.65702e-06
6.6625e-06
6.66865e-06
6.67538e-06
6.68266e-06
6.69048e-06
6.69893e-06
6.70805e-06
6.71786e-06
6.72836e-06
6.73957e-06
6.75164e-06
6.76477e-06
6.77913e-06
6.79484e-06
6.81195e-06
6.8305e-06
6.85052e-06
6.87205e-06
6.89516e-06
6.91997e-06
6.94662e-06
6.97522e-06
7.00591e-06
7.03884e-06
7.07424e-06
7.11235e-06
7.15345e-06
6.47269e-06
6.47472e-06
6.4769e-06
6.47927e-06
6.4819e-06
6.48485e-06
6.48813e-06
6.4918e-06
6.49597e-06
6.50076e-06
6.50623e-06
6.51231e-06
6.51892e-06
6.52602e-06
6.53365e-06
6.54192e-06
6.55089e-06
6.56061e-06
6.57106e-06
6.58227e-06
6.59437e-06
6.6075e-06
6.62182e-06
6.63742e-06
6.6544e-06
6.67282e-06
6.6927e-06
6.7141e-06
6.73711e-06
6.76184e-06
6.78843e-06
6.81698e-06
6.84762e-06
6.8805e-06
6.91583e-06
6.95387e-06
6.99485e-06
6.10744e-06
6.1094e-06
6.11148e-06
6.11374e-06
6.11625e-06
6.1191e-06
6.12232e-06
6.12596e-06
6.1301e-06
6.13485e-06
6.14021e-06
6.14615e-06
6.15259e-06
6.15951e-06
6.16695e-06
6.17502e-06
6.1838e-06
6.19336e-06
6.2037e-06
6.21486e-06
6.22693e-06
6.24004e-06
6.25427e-06
6.26972e-06
6.2865e-06
6.30469e-06
6.32435e-06
6.34555e-06
6.36836e-06
6.39289e-06
6.41928e-06
6.44765e-06
6.47812e-06
6.51081e-06
6.54594e-06
6.58372e-06
6.62438e-06
5.33595e-06
5.33768e-06
5.33954e-06
5.34157e-06
5.34386e-06
5.3465e-06
5.34954e-06
5.35301e-06
5.35698e-06
5.36151e-06
5.36663e-06
5.37231e-06
5.37852e-06
5.38523e-06
5.39247e-06
5.40032e-06
5.40885e-06
5.41815e-06
5.42824e-06
5.4392e-06
5.4511e-06
5.46401e-06
5.478e-06
5.49315e-06
5.50957e-06
5.52736e-06
5.54661e-06
5.56739e-06
5.58977e-06
5.61386e-06
5.63979e-06
5.66768e-06
5.69766e-06
5.72984e-06
5.76441e-06
5.80156e-06
5.84151e-06
3.74185e-06
3.74286e-06
3.74408e-06
3.7455e-06
3.74714e-06
3.74903e-06
3.75123e-06
3.75375e-06
3.75666e-06
3.76e-06
3.7638e-06
3.76807e-06
3.77281e-06
3.77802e-06
3.78369e-06
3.78985e-06
3.79655e-06
3.80383e-06
3.81175e-06
3.82037e-06
3.82972e-06
3.83988e-06
3.85088e-06
3.86279e-06
3.87569e-06
3.88968e-06
3.90483e-06
3.92121e-06
3.93889e-06
3.95794e-06
3.97845e-06
4.00054e-06
4.02428e-06
4.0498e-06
4.07722e-06
4.10667e-06
4.13834e-06
6.00984e-06
6.01039e-06
6.01112e-06
6.01204e-06
6.01315e-06
6.01447e-06
6.01603e-06
6.01791e-06
6.02016e-06
6.0228e-06
6.02581e-06
6.02918e-06
6.03292e-06
6.03703e-06
6.04151e-06
6.04639e-06
6.05168e-06
6.05744e-06
6.06375e-06
6.07062e-06
6.07807e-06
6.08608e-06
6.09472e-06
6.10407e-06
6.11422e-06
6.12524e-06
6.1372e-06
6.15014e-06
6.16413e-06
6.17921e-06
6.19537e-06
6.21267e-06
6.23118e-06
6.25102e-06
6.27234e-06
6.29527e-06
6.31992e-06
6.34644e-06
9.30102e-06
9.3022e-06
9.3034e-06
9.30467e-06
9.30605e-06
9.30754e-06
9.30923e-06
9.31127e-06
9.31372e-06
9.31654e-06
9.3196e-06
9.32283e-06
9.32623e-06
9.32982e-06
9.33357e-06
9.33747e-06
9.34158e-06
9.34601e-06
9.35082e-06
9.35601e-06
9.36149e-06
9.36725e-06
9.37338e-06
9.38001e-06
9.38723e-06
9.39508e-06
9.40357e-06
9.4127e-06
9.42249e-06
9.43292e-06
9.44395e-06
9.45558e-06
9.46794e-06
9.48122e-06
9.49559e-06
9.51116e-06
9.52799e-06
9.54616e-06
1.10865e-05
1.1088e-05
1.10895e-05
1.10912e-05
1.10929e-05
1.10948e-05
1.10969e-05
1.10993e-05
1.11022e-05
1.11054e-05
1.11089e-05
1.11126e-05
1.11166e-05
1.11208e-05
1.11252e-05
1.11298e-05
1.11346e-05
1.11397e-05
1.11452e-05
1.1151e-05
1.11572e-05
1.11636e-05
1.11705e-05
1.11781e-05
1.11863e-05
1.11953e-05
1.1205e-05
1.12154e-05
1.12265e-05
1.12384e-05
1.12508e-05
1.1264e-05
1.12781e-05
1.12933e-05
1.13098e-05
1.13277e-05
1.13471e-05
1.1368e-05
1.19558e-05
1.19576e-05
1.19594e-05
1.19613e-05
1.19633e-05
1.19654e-05
1.19678e-05
1.19705e-05
1.19735e-05
1.19769e-05
1.19805e-05
1.19845e-05
1.19888e-05
1.19935e-05
1.19983e-05
1.20033e-05
1.20086e-05
1.20141e-05
1.202e-05
1.20262e-05
1.20326e-05
1.20393e-05
1.20467e-05
1.20547e-05
1.20637e-05
1.20734e-05
1.20839e-05
1.20952e-05
1.21073e-05
1.212e-05
1.21334e-05
1.21477e-05
1.21629e-05
1.21794e-05
1.21973e-05
1.22168e-05
1.22379e-05
1.22607e-05
1.2347e-05
1.2349e-05
1.2351e-05
1.2353e-05
1.23552e-05
1.23575e-05
1.236e-05
1.23628e-05
1.23658e-05
1.23692e-05
1.23729e-05
1.2377e-05
1.23815e-05
1.23863e-05
1.23914e-05
1.23967e-05
1.24022e-05
1.24079e-05
1.24139e-05
1.24201e-05
1.24266e-05
1.24334e-05
1.24409e-05
1.24493e-05
1.24585e-05
1.24687e-05
1.24797e-05
1.24915e-05
1.2504e-05
1.25172e-05
1.25311e-05
1.25459e-05
1.25617e-05
1.25789e-05
1.25976e-05
1.26179e-05
1.26399e-05
1.26637e-05
1.24921e-05
1.24942e-05
1.24963e-05
1.24985e-05
1.25008e-05
1.25032e-05
1.25058e-05
1.25085e-05
1.25115e-05
1.25148e-05
1.25185e-05
1.25226e-05
1.25272e-05
1.25321e-05
1.25372e-05
1.25426e-05
1.25481e-05
1.25539e-05
1.25599e-05
1.2566e-05
1.25724e-05
1.25792e-05
1.25868e-05
1.25953e-05
1.26047e-05
1.2615e-05
1.26261e-05
1.26381e-05
1.26507e-05
1.26641e-05
1.26783e-05
1.26933e-05
1.27095e-05
1.2727e-05
1.2746e-05
1.27666e-05
1.27889e-05
1.28132e-05
1.24921e-05
1.24944e-05
1.24967e-05
1.2499e-05
1.25013e-05
1.25038e-05
1.25063e-05
1.2509e-05
1.25119e-05
1.25151e-05
1.25188e-05
1.25229e-05
1.25274e-05
1.25323e-05
1.25373e-05
1.25425e-05
1.2548e-05
1.25536e-05
1.25595e-05
1.25656e-05
1.25719e-05
1.25787e-05
1.25863e-05
1.25947e-05
1.26041e-05
1.26143e-05
1.26254e-05
1.26373e-05
1.26499e-05
1.26633e-05
1.26775e-05
1.26926e-05
1.27089e-05
1.27265e-05
1.27455e-05
1.2766e-05
1.27883e-05
1.28126e-05
1.23495e-05
1.23519e-05
1.23542e-05
1.23566e-05
1.2359e-05
1.23615e-05
1.23641e-05
1.23669e-05
1.23701e-05
1.23737e-05
1.23778e-05
1.23822e-05
1.23869e-05
1.23916e-05
1.23966e-05
1.24018e-05
1.24072e-05
1.2413e-05
1.2419e-05
1.24252e-05
1.2432e-05
1.24395e-05
1.24478e-05
1.2457e-05
1.2467e-05
1.24778e-05
1.24895e-05
1.25018e-05
1.2515e-05
1.2529e-05
1.25441e-05
1.25602e-05
1.25776e-05
1.25963e-05
1.26165e-05
1.26384e-05
1.26623e-05
1.19583e-05
1.19607e-05
1.1963e-05
1.19652e-05
1.19675e-05
1.19699e-05
1.19724e-05
1.19752e-05
1.19783e-05
1.19818e-05
1.19857e-05
1.19899e-05
1.19943e-05
1.19987e-05
1.20033e-05
1.20081e-05
1.20132e-05
1.20187e-05
1.20245e-05
1.20306e-05
1.20373e-05
1.20445e-05
1.20525e-05
1.20613e-05
1.20709e-05
1.20813e-05
1.20924e-05
1.21043e-05
1.2117e-05
1.21305e-05
1.21451e-05
1.21607e-05
1.21775e-05
1.21955e-05
1.22149e-05
1.2236e-05
1.2259e-05
1.10886e-05
1.10909e-05
1.1093e-05
1.1095e-05
1.1097e-05
1.10992e-05
1.11015e-05
1.11041e-05
1.11071e-05
1.11104e-05
1.1114e-05
1.11179e-05
1.11218e-05
1.11258e-05
1.11299e-05
1.11342e-05
1.11389e-05
1.11439e-05
1.11493e-05
1.11551e-05
1.11613e-05
1.11682e-05
1.11756e-05
1.11837e-05
1.11926e-05
1.12021e-05
1.12124e-05
1.12234e-05
1.12352e-05
1.12478e-05
1.12613e-05
1.12758e-05
1.12914e-05
1.13081e-05
1.13261e-05
1.13455e-05
1.13667e-05
9.3026e-06
9.30454e-06
9.30622e-06
9.30778e-06
9.30939e-06
9.31117e-06
9.3132e-06
9.31548e-06
9.31805e-06
9.32093e-06
9.32409e-06
9.32742e-06
9.33081e-06
9.33425e-06
9.33778e-06
9.3415e-06
9.34552e-06
9.3499e-06
9.35466e-06
9.35983e-06
9.36547e-06
9.37158e-06
9.37819e-06
9.38534e-06
9.39308e-06
9.40146e-06
9.41051e-06
9.4202e-06
9.43056e-06
9.44165e-06
9.45356e-06
9.46633e-06
9.48003e-06
9.4947e-06
9.51045e-06
9.52743e-06
9.54579e-06
6.00986e-06
6.01092e-06
6.01209e-06
6.0134e-06
6.01488e-06
6.01659e-06
6.01859e-06
6.02088e-06
6.02352e-06
6.02653e-06
6.02994e-06
6.03373e-06
6.03787e-06
6.04234e-06
6.04717e-06
6.05239e-06
6.05805e-06
6.06422e-06
6.07093e-06
6.07824e-06
6.0862e-06
6.09482e-06
6.10416e-06
6.11426e-06
6.12521e-06
6.13707e-06
6.14992e-06
6.16379e-06
6.17875e-06
6.19485e-06
6.21219e-06
6.23086e-06
6.25093e-06
6.2725e-06
6.29568e-06
6.32061e-06
6.34745e-06
7.02072e-06
7.0213e-06
7.02204e-06
7.02297e-06
7.02409e-06
7.02543e-06
7.02703e-06
7.02896e-06
7.03129e-06
7.03403e-06
7.03716e-06
7.04065e-06
7.04451e-06
7.04874e-06
7.05333e-06
7.0583e-06
7.06368e-06
7.06954e-06
7.07594e-06
7.0829e-06
7.09042e-06
7.0985e-06
7.1072e-06
7.11661e-06
7.12683e-06
7.13793e-06
7.14997e-06
7.16302e-06
7.17712e-06
7.1923e-06
7.20858e-06
7.22597e-06
7.24458e-06
7.26453e-06
7.28597e-06
7.30905e-06
7.33389e-06
7.3606e-06
1.16093e-05
1.16104e-05
1.16115e-05
1.16126e-05
1.16138e-05
1.16152e-05
1.16167e-05
1.16186e-05
1.16208e-05
1.16234e-05
1.16262e-05
1.16292e-05
1.16322e-05
1.16354e-05
1.16387e-05
1.16421e-05
1.16457e-05
1.16495e-05
1.16537e-05
1.16581e-05
1.16628e-05
1.16677e-05
1.16729e-05
1.16785e-05
1.16846e-05
1.16913e-05
1.16985e-05
1.17063e-05
1.17146e-05
1.17235e-05
1.17328e-05
1.17427e-05
1.17531e-05
1.17643e-05
1.17765e-05
1.17898e-05
1.18041e-05
1.18197e-05
1.38132e-05
1.38146e-05
1.3816e-05
1.38175e-05
1.38191e-05
1.38208e-05
1.38226e-05
1.38248e-05
1.38273e-05
1.38302e-05
1.38333e-05
1.38365e-05
1.384e-05
1.38436e-05
1.38473e-05
1.38512e-05
1.38553e-05
1.38596e-05
1.38643e-05
1.38692e-05
1.38743e-05
1.38797e-05
1.38854e-05
1.38917e-05
1.38986e-05
1.39061e-05
1.39142e-05
1.39229e-05
1.39323e-05
1.39422e-05
1.39527e-05
1.39638e-05
1.39756e-05
1.39884e-05
1.40024e-05
1.40176e-05
1.40341e-05
1.4052e-05
1.4899e-05
1.49006e-05
1.49023e-05
1.49041e-05
1.49059e-05
1.49078e-05
1.49099e-05
1.49123e-05
1.49149e-05
1.49179e-05
1.49211e-05
1.49246e-05
1.49283e-05
1.49323e-05
1.49364e-05
1.49407e-05
1.49452e-05
1.49499e-05
1.49549e-05
1.49601e-05
1.49655e-05
1.49712e-05
1.49774e-05
1.49842e-05
1.49917e-05
1.5e-05
1.50089e-05
1.50185e-05
1.50287e-05
1.50395e-05
1.5051e-05
1.50632e-05
1.50762e-05
1.50904e-05
1.51059e-05
1.51227e-05
1.51411e-05
1.5161e-05
1.54063e-05
1.54082e-05
1.541e-05
1.54119e-05
1.54139e-05
1.5416e-05
1.54183e-05
1.54207e-05
1.54234e-05
1.54264e-05
1.54297e-05
1.54333e-05
1.54372e-05
1.54413e-05
1.54457e-05
1.54502e-05
1.54549e-05
1.54598e-05
1.54649e-05
1.54702e-05
1.54758e-05
1.54816e-05
1.5488e-05
1.54952e-05
1.55031e-05
1.55117e-05
1.55211e-05
1.55312e-05
1.5542e-05
1.55533e-05
1.55654e-05
1.55782e-05
1.55921e-05
1.56071e-05
1.56235e-05
1.56413e-05
1.56607e-05
1.56818e-05
1.56021e-05
1.56042e-05
1.56062e-05
1.56082e-05
1.56103e-05
1.56125e-05
1.56148e-05
1.56173e-05
1.56199e-05
1.56229e-05
1.56261e-05
1.56297e-05
1.56337e-05
1.56379e-05
1.56424e-05
1.5647e-05
1.56517e-05
1.56567e-05
1.56618e-05
1.56671e-05
1.56726e-05
1.56785e-05
1.5685e-05
1.56923e-05
1.57004e-05
1.57092e-05
1.57188e-05
1.57291e-05
1.574e-05
1.57517e-05
1.5764e-05
1.57772e-05
1.57914e-05
1.58068e-05
1.58236e-05
1.58419e-05
1.58618e-05
1.58835e-05
1.56021e-05
1.56043e-05
1.56064e-05
1.56086e-05
1.56107e-05
1.56129e-05
1.56153e-05
1.56177e-05
1.56203e-05
1.56232e-05
1.56264e-05
1.563e-05
1.56339e-05
1.56381e-05
1.56424e-05
1.56469e-05
1.56516e-05
1.56564e-05
1.56615e-05
1.56667e-05
1.56722e-05
1.56781e-05
1.56846e-05
1.56918e-05
1.56998e-05
1.57087e-05
1.57182e-05
1.57284e-05
1.57394e-05
1.5751e-05
1.57633e-05
1.57766e-05
1.57909e-05
1.58064e-05
1.58231e-05
1.58414e-05
1.58613e-05
1.5883e-05
1.54085e-05
1.54108e-05
1.5413e-05
1.54151e-05
1.54173e-05
1.54195e-05
1.54219e-05
1.54244e-05
1.54272e-05
1.54304e-05
1.54339e-05
1.54378e-05
1.54418e-05
1.54459e-05
1.54501e-05
1.54546e-05
1.54592e-05
1.54641e-05
1.54692e-05
1.54746e-05
1.54804e-05
1.54868e-05
1.54938e-05
1.55017e-05
1.55102e-05
1.55195e-05
1.55295e-05
1.55401e-05
1.55515e-05
1.55636e-05
1.55767e-05
1.55908e-05
1.56059e-05
1.56223e-05
1.56402e-05
1.56596e-05
1.56808e-05
1.49012e-05
1.49034e-05
1.49055e-05
1.49076e-05
1.49096e-05
1.49118e-05
1.4914e-05
1.49165e-05
1.49192e-05
1.49223e-05
1.49257e-05
1.49293e-05
1.4933e-05
1.49368e-05
1.49407e-05
1.49448e-05
1.49491e-05
1.49537e-05
1.49586e-05
1.49638e-05
1.49693e-05
1.49755e-05
1.49822e-05
1.49896e-05
1.49977e-05
1.50065e-05
1.5016e-05
1.50261e-05
1.50369e-05
1.50485e-05
1.50609e-05
1.50743e-05
1.50888e-05
1.51043e-05
1.51212e-05
1.51396e-05
1.51598e-05
1.38152e-05
1.38173e-05
1.38192e-05
1.3821e-05
1.38228e-05
1.38248e-05
1.38269e-05
1.38292e-05
1.38317e-05
1.38346e-05
1.38378e-05
1.38411e-05
1.38445e-05
1.38479e-05
1.38513e-05
1.38549e-05
1.38588e-05
1.3863e-05
1.38675e-05
1.38723e-05
1.38775e-05
1.38832e-05
1.38894e-05
1.38962e-05
1.39036e-05
1.39116e-05
1.39202e-05
1.39295e-05
1.39394e-05
1.395e-05
1.39613e-05
1.39736e-05
1.39868e-05
1.40009e-05
1.40163e-05
1.40329e-05
1.40511e-05
1.16108e-05
1.16127e-05
1.16142e-05
1.16157e-05
1.16171e-05
1.16187e-05
1.16206e-05
1.16226e-05
1.1625e-05
1.16276e-05
1.16304e-05
1.16334e-05
1.16364e-05
1.16393e-05
1.16424e-05
1.16455e-05
1.16489e-05
1.16526e-05
1.16566e-05
1.1661e-05
1.16658e-05
1.1671e-05
1.16766e-05
1.16827e-05
1.16893e-05
1.16964e-05
1.17041e-05
1.17123e-05
1.17212e-05
1.17306e-05
1.17407e-05
1.17516e-05
1.17632e-05
1.17757e-05
1.17892e-05
1.18038e-05
1.18196e-05
7.02079e-06
7.02189e-06
7.0231e-06
7.02443e-06
7.02594e-06
7.02769e-06
7.02974e-06
7.03211e-06
7.03484e-06
7.03797e-06
7.0415e-06
7.0454e-06
7.04963e-06
7.05417e-06
7.05905e-06
7.06432e-06
7.07003e-06
7.07624e-06
7.08301e-06
7.09039e-06
7.09842e-06
7.10713e-06
7.11657e-06
7.12677e-06
7.13782e-06
7.1498e-06
7.16276e-06
7.17676e-06
7.19183e-06
7.20805e-06
7.22551e-06
7.24431e-06
7.26452e-06
7.28624e-06
7.30958e-06
7.3347e-06
7.36178e-06
7.62043e-06
7.62097e-06
7.62167e-06
7.62255e-06
7.62363e-06
7.62494e-06
7.62651e-06
7.62841e-06
7.63068e-06
7.63342e-06
7.63657e-06
7.64008e-06
7.64396e-06
7.64818e-06
7.65276e-06
7.65769e-06
7.66303e-06
7.66885e-06
7.6752e-06
7.68212e-06
7.68957e-06
7.69757e-06
7.70618e-06
7.71548e-06
7.72559e-06
7.73658e-06
7.74851e-06
7.76146e-06
7.77544e-06
7.7905e-06
7.80664e-06
7.82389e-06
7.84234e-06
7.86212e-06
7.88339e-06
7.90629e-06
7.93096e-06
7.95753e-06
1.30902e-05
1.30911e-05
1.3092e-05
1.30929e-05
1.3094e-05
1.30951e-05
1.30965e-05
1.30982e-05
1.31003e-05
1.31027e-05
1.31053e-05
1.31079e-05
1.31107e-05
1.31136e-05
1.31165e-05
1.31195e-05
1.31227e-05
1.31261e-05
1.31298e-05
1.31337e-05
1.31379e-05
1.31422e-05
1.31468e-05
1.31517e-05
1.31571e-05
1.31631e-05
1.31695e-05
1.31765e-05
1.31839e-05
1.31918e-05
1.32002e-05
1.32089e-05
1.32182e-05
1.32282e-05
1.3239e-05
1.32508e-05
1.32637e-05
1.32777e-05
1.55512e-05
1.55525e-05
1.55537e-05
1.55549e-05
1.55563e-05
1.55577e-05
1.55594e-05
1.55613e-05
1.55635e-05
1.55659e-05
1.55686e-05
1.55715e-05
1.55744e-05
1.55776e-05
1.55808e-05
1.55841e-05
1.55876e-05
1.55913e-05
1.55953e-05
1.55995e-05
1.56039e-05
1.56085e-05
1.56134e-05
1.56188e-05
1.56248e-05
1.56312e-05
1.56382e-05
1.56458e-05
1.56539e-05
1.56625e-05
1.56717e-05
1.56814e-05
1.56918e-05
1.5703e-05
1.57153e-05
1.57287e-05
1.57433e-05
1.57593e-05
1.67694e-05
1.67708e-05
1.67723e-05
1.67738e-05
1.67754e-05
1.67771e-05
1.67789e-05
1.67809e-05
1.67832e-05
1.67858e-05
1.67886e-05
1.67915e-05
1.67947e-05
1.67981e-05
1.68016e-05
1.68052e-05
1.6809e-05
1.6813e-05
1.68173e-05
1.68217e-05
1.68264e-05
1.68313e-05
1.68367e-05
1.68425e-05
1.6849e-05
1.68561e-05
1.68637e-05
1.6872e-05
1.68809e-05
1.68903e-05
1.69004e-05
1.69111e-05
1.69227e-05
1.69352e-05
1.69489e-05
1.69639e-05
1.69803e-05
1.69982e-05
1.73537e-05
1.73554e-05
1.7357e-05
1.73587e-05
1.73604e-05
1.73622e-05
1.73642e-05
1.73663e-05
1.73687e-05
1.73712e-05
1.73741e-05
1.73771e-05
1.73804e-05
1.7384e-05
1.73877e-05
1.73915e-05
1.73955e-05
1.73997e-05
1.74041e-05
1.74087e-05
1.74135e-05
1.74186e-05
1.74241e-05
1.74303e-05
1.74371e-05
1.74446e-05
1.74527e-05
1.74615e-05
1.74708e-05
1.74808e-05
1.74915e-05
1.75029e-05
1.75152e-05
1.75287e-05
1.75433e-05
1.75594e-05
1.75769e-05
1.75961e-05
1.75859e-05
1.75877e-05
1.75895e-05
1.75912e-05
1.75931e-05
1.7595e-05
1.7597e-05
1.75992e-05
1.76015e-05
1.7604e-05
1.76069e-05
1.761e-05
1.76133e-05
1.76169e-05
1.76207e-05
1.76246e-05
1.76287e-05
1.76329e-05
1.76373e-05
1.76419e-05
1.76467e-05
1.76519e-05
1.76576e-05
1.76639e-05
1.76709e-05
1.76785e-05
1.76868e-05
1.76958e-05
1.77054e-05
1.77156e-05
1.77266e-05
1.77384e-05
1.77511e-05
1.7765e-05
1.77801e-05
1.77966e-05
1.78147e-05
1.78345e-05
1.75858e-05
1.75878e-05
1.75897e-05
1.75915e-05
1.75934e-05
1.75954e-05
1.75974e-05
1.75995e-05
1.76018e-05
1.76043e-05
1.76071e-05
1.76101e-05
1.76135e-05
1.7617e-05
1.76207e-05
1.76246e-05
1.76286e-05
1.76327e-05
1.76371e-05
1.76416e-05
1.76464e-05
1.76515e-05
1.76572e-05
1.76635e-05
1.76704e-05
1.76781e-05
1.76864e-05
1.76953e-05
1.77049e-05
1.77151e-05
1.77261e-05
1.77379e-05
1.77507e-05
1.77646e-05
1.77798e-05
1.77963e-05
1.78144e-05
1.78342e-05
1.73556e-05
1.73576e-05
1.73595e-05
1.73614e-05
1.73633e-05
1.73652e-05
1.73673e-05
1.73695e-05
1.73719e-05
1.73747e-05
1.73777e-05
1.73809e-05
1.73843e-05
1.73878e-05
1.73915e-05
1.73953e-05
1.73992e-05
1.74034e-05
1.74078e-05
1.74125e-05
1.74175e-05
1.74231e-05
1.74292e-05
1.7436e-05
1.74434e-05
1.74514e-05
1.74601e-05
1.74694e-05
1.74793e-05
1.74901e-05
1.75016e-05
1.75141e-05
1.75277e-05
1.75425e-05
1.75585e-05
1.75762e-05
1.75955e-05
1.67712e-05
1.67732e-05
1.6775e-05
1.67768e-05
1.67786e-05
1.67805e-05
1.67824e-05
1.67845e-05
1.67869e-05
1.67895e-05
1.67924e-05
1.67955e-05
1.67986e-05
1.68019e-05
1.68052e-05
1.68087e-05
1.68124e-05
1.68163e-05
1.68205e-05
1.68249e-05
1.68298e-05
1.68351e-05
1.68409e-05
1.68472e-05
1.68542e-05
1.68618e-05
1.68699e-05
1.68787e-05
1.68881e-05
1.68983e-05
1.69092e-05
1.69211e-05
1.69339e-05
1.69477e-05
1.69629e-05
1.69794e-05
1.69975e-05
1.55529e-05
1.55548e-05
1.55565e-05
1.5558e-05
1.55596e-05
1.55613e-05
1.55631e-05
1.55651e-05
1.55673e-05
1.55698e-05
1.55726e-05
1.55754e-05
1.55783e-05
1.55812e-05
1.55842e-05
1.55873e-05
1.55906e-05
1.55941e-05
1.5598e-05
1.56021e-05
1.56066e-05
1.56115e-05
1.56169e-05
1.56227e-05
1.56291e-05
1.5636e-05
1.56434e-05
1.56514e-05
1.566e-05
1.56693e-05
1.56793e-05
1.569e-05
1.57016e-05
1.57141e-05
1.57277e-05
1.57426e-05
1.57589e-05
1.30915e-05
1.30932e-05
1.30946e-05
1.30958e-05
1.30971e-05
1.30985e-05
1.31002e-05
1.3102e-05
1.31041e-05
1.31065e-05
1.3109e-05
1.31117e-05
1.31144e-05
1.3117e-05
1.31197e-05
1.31225e-05
1.31255e-05
1.31287e-05
1.31322e-05
1.31361e-05
1.31404e-05
1.3145e-05
1.315e-05
1.31553e-05
1.31612e-05
1.31675e-05
1.31743e-05
1.31817e-05
1.31896e-05
1.3198e-05
1.3207e-05
1.32167e-05
1.32271e-05
1.32383e-05
1.32504e-05
1.32635e-05
1.32779e-05
7.62045e-06
7.62153e-06
7.6227e-06
7.624e-06
7.62548e-06
7.6272e-06
7.62921e-06
7.63157e-06
7.6343e-06
7.63744e-06
7.64097e-06
7.64487e-06
7.64908e-06
7.65358e-06
7.6584e-06
7.66359e-06
7.66921e-06
7.67534e-06
7.68203e-06
7.68935e-06
7.69732e-06
7.70597e-06
7.71532e-06
7.72543e-06
7.73638e-06
7.74825e-06
7.7611e-06
7.77497e-06
7.78992e-06
7.80601e-06
7.82334e-06
7.84199e-06
7.86205e-06
7.8836e-06
7.90679e-06
7.93176e-06
7.95871e-06
7.99806e-06
7.99853e-06
7.99915e-06
7.99995e-06
8.00096e-06
8.0022e-06
8.00371e-06
8.00555e-06
8.00777e-06
8.01038e-06
8.01343e-06
8.01687e-06
8.02067e-06
8.0248e-06
8.02925e-06
8.03404e-06
8.03923e-06
8.04489e-06
8.05107e-06
8.05781e-06
8.06508e-06
8.07286e-06
8.08123e-06
8.09028e-06
8.10012e-06
8.11083e-06
8.12249e-06
8.13515e-06
8.14884e-06
8.16356e-06
8.1794e-06
8.19639e-06
8.21458e-06
8.23409e-06
8.25505e-06
8.27761e-06
8.3019e-06
8.32807e-06
1.4083e-05
1.40837e-05
1.40843e-05
1.4085e-05
1.40858e-05
1.40867e-05
1.40879e-05
1.40894e-05
1.40913e-05
1.40936e-05
1.4096e-05
1.40984e-05
1.41008e-05
1.41034e-05
1.41059e-05
1.41086e-05
1.41114e-05
1.41143e-05
1.41176e-05
1.4121e-05
1.41247e-05
1.41285e-05
1.41326e-05
1.41369e-05
1.41417e-05
1.41469e-05
1.41526e-05
1.41588e-05
1.41655e-05
1.41726e-05
1.41799e-05
1.41876e-05
1.41957e-05
1.42044e-05
1.42139e-05
1.42243e-05
1.42357e-05
1.42482e-05
1.67357e-05
1.67367e-05
1.67377e-05
1.67387e-05
1.67398e-05
1.67411e-05
1.67425e-05
1.67441e-05
1.6746e-05
1.67482e-05
1.67505e-05
1.6753e-05
1.67555e-05
1.67582e-05
1.67609e-05
1.67638e-05
1.67668e-05
1.67699e-05
1.67733e-05
1.67769e-05
1.67807e-05
1.67847e-05
1.6789e-05
1.67936e-05
1.67987e-05
1.68043e-05
1.68104e-05
1.6817e-05
1.68241e-05
1.68317e-05
1.68398e-05
1.68483e-05
1.68575e-05
1.68675e-05
1.68784e-05
1.68903e-05
1.69034e-05
1.69177e-05
1.80523e-05
1.80536e-05
1.80548e-05
1.80561e-05
1.80574e-05
1.80588e-05
1.80604e-05
1.80622e-05
1.80641e-05
1.80663e-05
1.80687e-05
1.80712e-05
1.80739e-05
1.80768e-05
1.80797e-05
1.80828e-05
1.8086e-05
1.80895e-05
1.80931e-05
1.80969e-05
1.81009e-05
1.81052e-05
1.81098e-05
1.81149e-05
1.81205e-05
1.81266e-05
1.81332e-05
1.81404e-05
1.81482e-05
1.81565e-05
1.81653e-05
1.81749e-05
1.81852e-05
1.81964e-05
1.82087e-05
1.82223e-05
1.82371e-05
1.82533e-05
1.86956e-05
1.8697e-05
1.86984e-05
1.86999e-05
1.87014e-05
1.87029e-05
1.87046e-05
1.87064e-05
1.87084e-05
1.87106e-05
1.8713e-05
1.87156e-05
1.87184e-05
1.87214e-05
1.87245e-05
1.87278e-05
1.87312e-05
1.87348e-05
1.87385e-05
1.87425e-05
1.87467e-05
1.87511e-05
1.8756e-05
1.87613e-05
1.87672e-05
1.87737e-05
1.87808e-05
1.87884e-05
1.87966e-05
1.88054e-05
1.88149e-05
1.88251e-05
1.88362e-05
1.88483e-05
1.88616e-05
1.88762e-05
1.88922e-05
1.89097e-05
1.89565e-05
1.89581e-05
1.89596e-05
1.89611e-05
1.89627e-05
1.89644e-05
1.89661e-05
1.8968e-05
1.897e-05
1.89722e-05
1.89746e-05
1.89772e-05
1.898e-05
1.8983e-05
1.89862e-05
1.89895e-05
1.8993e-05
1.89966e-05
1.90004e-05
1.90044e-05
1.90086e-05
1.90132e-05
1.90181e-05
1.90236e-05
1.90297e-05
1.90364e-05
1.90436e-05
1.90514e-05
1.90599e-05
1.9069e-05
1.90787e-05
1.90893e-05
1.91008e-05
1.91134e-05
1.91272e-05
1.91423e-05
1.91589e-05
1.91771e-05
1.89564e-05
1.89581e-05
1.89598e-05
1.89614e-05
1.8963e-05
1.89647e-05
1.89664e-05
1.89682e-05
1.89702e-05
1.89724e-05
1.89747e-05
1.89773e-05
1.89802e-05
1.89831e-05
1.89863e-05
1.89895e-05
1.89929e-05
1.89965e-05
1.90003e-05
1.90042e-05
1.90084e-05
1.90129e-05
1.90178e-05
1.90233e-05
1.90294e-05
1.9036e-05
1.90432e-05
1.9051e-05
1.90595e-05
1.90685e-05
1.90783e-05
1.9089e-05
1.91005e-05
1.91131e-05
1.91269e-05
1.9142e-05
1.91586e-05
1.91769e-05
1.86972e-05
1.86989e-05
1.87006e-05
1.87022e-05
1.87038e-05
1.87055e-05
1.87073e-05
1.87092e-05
1.87112e-05
1.87136e-05
1.87161e-05
1.87188e-05
1.87217e-05
1.87247e-05
1.87278e-05
1.8731e-05
1.87344e-05
1.8738e-05
1.87418e-05
1.87459e-05
1.87503e-05
1.87551e-05
1.87604e-05
1.87663e-05
1.87727e-05
1.87797e-05
1.87872e-05
1.87954e-05
1.88042e-05
1.88138e-05
1.88241e-05
1.88353e-05
1.88476e-05
1.8861e-05
1.88756e-05
1.88917e-05
1.89095e-05
1.80539e-05
1.80556e-05
1.80571e-05
1.80586e-05
1.80602e-05
1.80617e-05
1.80634e-05
1.80653e-05
1.80673e-05
1.80695e-05
1.80719e-05
1.80745e-05
1.80772e-05
1.808e-05
1.80828e-05
1.80858e-05
1.80889e-05
1.80923e-05
1.80959e-05
1.80997e-05
1.81039e-05
1.81085e-05
1.81135e-05
1.8119e-05
1.8125e-05
1.81316e-05
1.81387e-05
1.81463e-05
1.81546e-05
1.81636e-05
1.81733e-05
1.81839e-05
1.81953e-05
1.82078e-05
1.82215e-05
1.82365e-05
1.8253e-05
1.67371e-05
1.67387e-05
1.67402e-05
1.67415e-05
1.67428e-05
1.67442e-05
1.67458e-05
1.67475e-05
1.67494e-05
1.67516e-05
1.67539e-05
1.67563e-05
1.67588e-05
1.67613e-05
1.67638e-05
1.67665e-05
1.67693e-05
1.67723e-05
1.67756e-05
1.67792e-05
1.67831e-05
1.67873e-05
1.6792e-05
1.6797e-05
1.68025e-05
1.68084e-05
1.68149e-05
1.68219e-05
1.68295e-05
1.68376e-05
1.68464e-05
1.68559e-05
1.68662e-05
1.68774e-05
1.68896e-05
1.69029e-05
1.69177e-05
1.40842e-05
1.40856e-05
1.40868e-05
1.40878e-05
1.40888e-05
1.409e-05
1.40914e-05
1.40931e-05
1.4095e-05
1.40971e-05
1.40993e-05
1.41017e-05
1.4104e-05
1.41064e-05
1.41087e-05
1.41111e-05
1.41137e-05
1.41165e-05
1.41196e-05
1.41231e-05
1.41268e-05
1.41309e-05
1.41352e-05
1.41399e-05
1.4145e-05
1.41506e-05
1.41567e-05
1.41632e-05
1.41702e-05
1.41776e-05
1.41856e-05
1.41942e-05
1.42034e-05
1.42133e-05
1.42241e-05
1.42359e-05
1.42489e-05
7.998e-06
7.99903e-06
8.00013e-06
8.00136e-06
8.00277e-06
8.00442e-06
8.00636e-06
8.0086e-06
8.01124e-06
8.0143e-06
8.01776e-06
8.02156e-06
8.02565e-06
8.03002e-06
8.03468e-06
8.03969e-06
8.04512e-06
8.05106e-06
8.05757e-06
8.0647e-06
8.07249e-06
8.08092e-06
8.09004e-06
8.09989e-06
8.11056e-06
8.12212e-06
8.13466e-06
8.14819e-06
8.1628e-06
8.17859e-06
8.19561e-06
8.21394e-06
8.23365e-06
8.25485e-06
8.27766e-06
8.30222e-06
8.3287e-06
8.2418e-06
8.24217e-06
8.24268e-06
8.24338e-06
8.2443e-06
8.24546e-06
8.24689e-06
8.24867e-06
8.25082e-06
8.25336e-06
8.25627e-06
8.25959e-06
8.26327e-06
8.26725e-06
8.27153e-06
8.27613e-06
8.28113e-06
8.28657e-06
8.29254e-06
8.29905e-06
8.30609e-06
8.31362e-06
8.32171e-06
8.33046e-06
8.34003e-06
8.35047e-06
8.36185e-06
8.37422e-06
8.38761e-06
8.40203e-06
8.41751e-06
8.43408e-06
8.45181e-06
8.47082e-06
8.49123e-06
8.51321e-06
8.5369e-06
8.56243e-06
1.4755e-05
1.47554e-05
1.47558e-05
1.47562e-05
1.47568e-05
1.47575e-05
1.47585e-05
1.47599e-05
1.47616e-05
1.47637e-05
1.47659e-05
1.47681e-05
1.47702e-05
1.47724e-05
1.47746e-05
1.47769e-05
1.47793e-05
1.47818e-05
1.47846e-05
1.47876e-05
1.47908e-05
1.47941e-05
1.47976e-05
1.48014e-05
1.48055e-05
1.48101e-05
1.48151e-05
1.48206e-05
1.48265e-05
1.48327e-05
1.48392e-05
1.48459e-05
1.48529e-05
1.48604e-05
1.48687e-05
1.48778e-05
1.48878e-05
1.48989e-05
1.75603e-05
1.7561e-05
1.75618e-05
1.75626e-05
1.75635e-05
1.75645e-05
1.75657e-05
1.75671e-05
1.75688e-05
1.75707e-05
1.75727e-05
1.75748e-05
1.7577e-05
1.75792e-05
1.75815e-05
1.75839e-05
1.75864e-05
1.75891e-05
1.7592e-05
1.7595e-05
1.75983e-05
1.76017e-05
1.76054e-05
1.76094e-05
1.76138e-05
1.76186e-05
1.76239e-05
1.76297e-05
1.76359e-05
1.76426e-05
1.76497e-05
1.76572e-05
1.76653e-05
1.76741e-05
1.76838e-05
1.76944e-05
1.77062e-05
1.77191e-05
1.89571e-05
1.89581e-05
1.89591e-05
1.89602e-05
1.89613e-05
1.89625e-05
1.89638e-05
1.89653e-05
1.8967e-05
1.89689e-05
1.89709e-05
1.8973e-05
1.89753e-05
1.89777e-05
1.89802e-05
1.89828e-05
1.89855e-05
1.89884e-05
1.89915e-05
1.89947e-05
1.89982e-05
1.90019e-05
1.90059e-05
1.90102e-05
1.90151e-05
1.90204e-05
1.90261e-05
1.90324e-05
1.90392e-05
1.90465e-05
1.90544e-05
1.90629e-05
1.90721e-05
1.90822e-05
1.90933e-05
1.91055e-05
1.9119e-05
1.91338e-05
1.96486e-05
1.96498e-05
1.9651e-05
1.96522e-05
1.96535e-05
1.96548e-05
1.96563e-05
1.96578e-05
1.96595e-05
1.96614e-05
1.96634e-05
1.96656e-05
1.9668e-05
1.96705e-05
1.96731e-05
1.96758e-05
1.96787e-05
1.96818e-05
1.9685e-05
1.96884e-05
1.9692e-05
1.96959e-05
1.97001e-05
1.97047e-05
1.97099e-05
1.97155e-05
1.97216e-05
1.97283e-05
1.97356e-05
1.97434e-05
1.97518e-05
1.9761e-05
1.9771e-05
1.9782e-05
1.97941e-05
1.98074e-05
1.9822e-05
1.98382e-05
1.99333e-05
1.99346e-05
1.99359e-05
1.99372e-05
1.99386e-05
1.994e-05