/*--------------------------------*- C++ -*----------------------------------*\
| =========                 |                                                 |
| \\      /  F ield         | OpenFOAM: The Open Source CFD Toolbox           |
|  \\    /   O peration     | Version:  2.3.1                                 |
|   \\  /    A nd           | Web:      www.OpenFOAM.org                      |
|    \\/     M anipulation  |                                                 |
\*---------------------------------------------------------------------------*/
FoamFile
{
    version     2.0;
    format      ascii;
    class       volScalarField;
    location    "15";
    object      k_0;
}
// * * * * * * * * * * * * * * * * * * * * * * * * * * * * * * * * * * * * * //

dimensions      [0 2 -2 0 0 0 0];

internalField   nonuniform List<scalar> 
37692
(
3.7427e-06
3.74321e-06
3.74393e-06
3.74487e-06
3.74604e-06
3.74747e-06
3.74917e-06
3.75119e-06
3.75361e-06
3.75645e-06
3.75974e-06
3.76347e-06
3.76766e-06
3.77232e-06
3.77747e-06
3.78311e-06
3.78927e-06
3.796e-06
3.80336e-06
3.81139e-06
3.82012e-06
3.82956e-06
3.83977e-06
3.85081e-06
3.86278e-06
3.87577e-06
3.88986e-06
3.90513e-06
3.92164e-06
3.93945e-06
3.9586e-06
3.97913e-06
4.00112e-06
4.02466e-06
4.04991e-06
4.077e-06
4.10608e-06
4.1373e-06
5.33632e-06
5.33727e-06
5.33845e-06
5.33991e-06
5.34164e-06
5.34367e-06
5.34606e-06
5.34891e-06
5.35232e-06
5.35631e-06
5.36085e-06
5.36592e-06
5.37154e-06
5.37774e-06
5.38453e-06
5.3919e-06
5.3999e-06
5.40862e-06
5.41814e-06
5.4285e-06
5.43969e-06
5.45173e-06
5.4647e-06
5.47873e-06
5.49396e-06
5.51049e-06
5.52839e-06
5.54776e-06
5.56868e-06
5.5912e-06
5.61535e-06
5.64118e-06
5.66882e-06
5.69845e-06
5.73027e-06
5.76445e-06
5.80117e-06
5.84058e-06
6.10725e-06
6.10837e-06
6.10976e-06
6.11144e-06
6.1134e-06
6.11566e-06
6.11829e-06
6.12141e-06
6.12508e-06
6.12933e-06
6.13412e-06
6.13945e-06
6.14536e-06
6.15187e-06
6.15898e-06
6.16667e-06
6.17498e-06
6.18402e-06
6.19385e-06
6.2045e-06
6.21593e-06
6.22816e-06
6.24134e-06
6.25564e-06
6.2712e-06
6.2881e-06
6.30641e-06
6.3262e-06
6.34755e-06
6.37049e-06
6.39503e-06
6.42125e-06
6.44931e-06
6.47943e-06
6.51184e-06
6.54669e-06
6.58414e-06
6.62438e-06
6.4721e-06
6.47336e-06
6.4749e-06
6.47672e-06
6.47884e-06
6.48126e-06
6.48405e-06
6.4873e-06
6.49107e-06
6.49538e-06
6.50024e-06
6.50567e-06
6.51173e-06
6.51843e-06
6.52573e-06
6.53362e-06
6.54213e-06
6.55134e-06
6.56131e-06
6.57203e-06
6.58345e-06
6.59566e-06
6.60885e-06
6.62324e-06
6.63895e-06
6.65605e-06
6.67458e-06
6.69461e-06
6.71618e-06
6.73932e-06
6.76402e-06
6.7904e-06
6.81865e-06
6.84901e-06
6.8817e-06
6.9169e-06
6.95474e-06
6.99541e-06
6.62807e-06
6.62945e-06
6.63108e-06
6.633e-06
6.63522e-06
6.63776e-06
6.64065e-06
6.64396e-06
6.64773e-06
6.65201e-06
6.65685e-06
6.66231e-06
6.66844e-06
6.67523e-06
6.68264e-06
6.69065e-06
6.69928e-06
6.70858e-06
6.71857e-06
6.72923e-06
6.74055e-06
6.75267e-06
6.76582e-06
6.78023e-06
6.796e-06
6.8132e-06
6.83186e-06
6.85201e-06
6.87369e-06
6.89691e-06
6.92168e-06
6.94814e-06
6.9765e-06
7.007e-06
7.03984e-06
7.07519e-06
7.11322e-06
7.15412e-06
6.68273e-06
6.68423e-06
6.68596e-06
6.68796e-06
6.69026e-06
6.69289e-06
6.69584e-06
6.69915e-06
6.70287e-06
6.70709e-06
6.71188e-06
6.71735e-06
6.7235e-06
6.73033e-06
6.73778e-06
6.74582e-06
6.75447e-06
6.76377e-06
6.77372e-06
6.78429e-06
6.79552e-06
6.80758e-06
6.8207e-06
6.8351e-06
6.85089e-06
6.86812e-06
6.88681e-06
6.90698e-06
6.92866e-06
6.95187e-06
6.97667e-06
7.0032e-06
7.03167e-06
7.06226e-06
7.09517e-06
7.13057e-06
7.16867e-06
7.20969e-06
6.68257e-06
6.68421e-06
6.68606e-06
6.68816e-06
6.69053e-06
6.6932e-06
6.69618e-06
6.69949e-06
6.70317e-06
6.70733e-06
6.7121e-06
6.71757e-06
6.72373e-06
6.73054e-06
6.73794e-06
6.74591e-06
6.75449e-06
6.76372e-06
6.7736e-06
6.78412e-06
6.79531e-06
6.80736e-06
6.82048e-06
6.83486e-06
6.85062e-06
6.86781e-06
6.88646e-06
6.90657e-06
6.92819e-06
6.95135e-06
6.97617e-06
7.00278e-06
7.03134e-06
7.06199e-06
7.09492e-06
7.13032e-06
7.16844e-06
7.20952e-06
6.62937e-06
6.63134e-06
6.63352e-06
6.63592e-06
6.6386e-06
6.64158e-06
6.64488e-06
6.64855e-06
6.6527e-06
6.65748e-06
6.66296e-06
6.66911e-06
6.67584e-06
6.68312e-06
6.69094e-06
6.69939e-06
6.70851e-06
6.71832e-06
6.72881e-06
6.74002e-06
6.7521e-06
6.76523e-06
6.77959e-06
6.79529e-06
6.8124e-06
6.83096e-06
6.85098e-06
6.8725e-06
6.89561e-06
6.92042e-06
6.94707e-06
6.97567e-06
7.00635e-06
7.03928e-06
7.07468e-06
7.1128e-06
7.15389e-06
6.47317e-06
6.4752e-06
6.47738e-06
6.47975e-06
6.48238e-06
6.48533e-06
6.48861e-06
6.49228e-06
6.49645e-06
6.50125e-06
6.50671e-06
6.51279e-06
6.5194e-06
6.5265e-06
6.53413e-06
6.5424e-06
6.55137e-06
6.56109e-06
6.57153e-06
6.58275e-06
6.59484e-06
6.60798e-06
6.6223e-06
6.6379e-06
6.65488e-06
6.67329e-06
6.69317e-06
6.71457e-06
6.73758e-06
6.76231e-06
6.7889e-06
6.81745e-06
6.84809e-06
6.88097e-06
6.9163e-06
6.95433e-06
6.99531e-06
6.10794e-06
6.1099e-06
6.11198e-06
6.11424e-06
6.11675e-06
6.1196e-06
6.12282e-06
6.12646e-06
6.1306e-06
6.13535e-06
6.14072e-06
6.14665e-06
6.15309e-06
6.16001e-06
6.16745e-06
6.17552e-06
6.1843e-06
6.19386e-06
6.2042e-06
6.21535e-06
6.22743e-06
6.24054e-06
6.25477e-06
6.27022e-06
6.287e-06
6.30519e-06
6.32485e-06
6.34604e-06
6.36885e-06
6.39338e-06
6.41977e-06
6.44814e-06
6.4786e-06
6.5113e-06
6.54642e-06
6.5842e-06
6.62487e-06
5.33645e-06
5.33817e-06
5.34003e-06
5.34207e-06
5.34436e-06
5.347e-06
5.35003e-06
5.3535e-06
5.35747e-06
5.36201e-06
5.36713e-06
5.37281e-06
5.37901e-06
5.38572e-06
5.39297e-06
5.40081e-06
5.40935e-06
5.41864e-06
5.42874e-06
5.4397e-06
5.45159e-06
5.4645e-06
5.47849e-06
5.49364e-06
5.51006e-06
5.52785e-06
5.5471e-06
5.56788e-06
5.59026e-06
5.61434e-06
5.64027e-06
5.66816e-06
5.69814e-06
5.73032e-06
5.76488e-06
5.80203e-06
5.84199e-06
3.74227e-06
3.74329e-06
3.74451e-06
3.74592e-06
3.74756e-06
3.74946e-06
3.75165e-06
3.75418e-06
3.75708e-06
3.76042e-06
3.76422e-06
3.76849e-06
3.77324e-06
3.77844e-06
3.78411e-06
3.79027e-06
3.79697e-06
3.80425e-06
3.81217e-06
3.82079e-06
3.83014e-06
3.8403e-06
3.85129e-06
3.86321e-06
3.87611e-06
3.8901e-06
3.90525e-06
3.92163e-06
3.9393e-06
3.95835e-06
3.97886e-06
4.00095e-06
4.02469e-06
4.05021e-06
4.07762e-06
4.10708e-06
4.13874e-06
6.01056e-06
6.01112e-06
6.01185e-06
6.01276e-06
6.01388e-06
6.0152e-06
6.01676e-06
6.01864e-06
6.02089e-06
6.02353e-06
6.02654e-06
6.02991e-06
6.03364e-06
6.03775e-06
6.04224e-06
6.04711e-06
6.0524e-06
6.05817e-06
6.06448e-06
6.07135e-06
6.07879e-06
6.08681e-06
6.09545e-06
6.10479e-06
6.11494e-06
6.12596e-06
6.13792e-06
6.15086e-06
6.16485e-06
6.17992e-06
6.19609e-06
6.21339e-06
6.2319e-06
6.25174e-06
6.27305e-06
6.29598e-06
6.32063e-06
6.34715e-06
9.30199e-06
9.30317e-06
9.30436e-06
9.30564e-06
9.30701e-06
9.3085e-06
9.31019e-06
9.31223e-06
9.31469e-06
9.31751e-06
9.32056e-06
9.32379e-06
9.3272e-06
9.33079e-06
9.33453e-06
9.33843e-06
9.34255e-06
9.34697e-06
9.35178e-06
9.35697e-06
9.36245e-06
9.36821e-06
9.37434e-06
9.38097e-06
9.38819e-06
9.39604e-06
9.40452e-06
9.41365e-06
9.42344e-06
9.43387e-06
9.4449e-06
9.45652e-06
9.46888e-06
9.48216e-06
9.49653e-06
9.5121e-06
9.52893e-06
9.5471e-06
1.10875e-05
1.1089e-05
1.10905e-05
1.10922e-05
1.10939e-05
1.10958e-05
1.10979e-05
1.11003e-05
1.11032e-05
1.11064e-05
1.11099e-05
1.11136e-05
1.11176e-05
1.11218e-05
1.11262e-05
1.11308e-05
1.11355e-05
1.11407e-05
1.11462e-05
1.1152e-05
1.11582e-05
1.11646e-05
1.11715e-05
1.1179e-05
1.11873e-05
1.11963e-05
1.1206e-05
1.12164e-05
1.12275e-05
1.12393e-05
1.12518e-05
1.1265e-05
1.12791e-05
1.12943e-05
1.13108e-05
1.13287e-05
1.1348e-05
1.1369e-05
1.19568e-05
1.19586e-05
1.19604e-05
1.19623e-05
1.19643e-05
1.19664e-05
1.19688e-05
1.19714e-05
1.19744e-05
1.19778e-05
1.19815e-05
1.19855e-05
1.19898e-05
1.19944e-05
1.19992e-05
1.20043e-05
1.20095e-05
1.20151e-05
1.2021e-05
1.20271e-05
1.20335e-05
1.20403e-05
1.20476e-05
1.20557e-05
1.20646e-05
1.20744e-05
1.20849e-05
1.20962e-05
1.21082e-05
1.2121e-05
1.21344e-05
1.21486e-05
1.21638e-05
1.21803e-05
1.21982e-05
1.22177e-05
1.22388e-05
1.22617e-05
1.2348e-05
1.23499e-05
1.23519e-05
1.23539e-05
1.23561e-05
1.23584e-05
1.23609e-05
1.23637e-05
1.23667e-05
1.23701e-05
1.23738e-05
1.23779e-05
1.23824e-05
1.23873e-05
1.23923e-05
1.23976e-05
1.24031e-05
1.24088e-05
1.24148e-05
1.24211e-05
1.24275e-05
1.24343e-05
1.24418e-05
1.24502e-05
1.24595e-05
1.24696e-05
1.24806e-05
1.24924e-05
1.25049e-05
1.25181e-05
1.2532e-05
1.25468e-05
1.25626e-05
1.25798e-05
1.25985e-05
1.26188e-05
1.26408e-05
1.26646e-05
1.2493e-05
1.24951e-05
1.24972e-05
1.24994e-05
1.25017e-05
1.25041e-05
1.25067e-05
1.25094e-05
1.25124e-05
1.25157e-05
1.25194e-05
1.25235e-05
1.25281e-05
1.2533e-05
1.25381e-05
1.25435e-05
1.2549e-05
1.25548e-05
1.25608e-05
1.25669e-05
1.25733e-05
1.25801e-05
1.25877e-05
1.25961e-05
1.26056e-05
1.26159e-05
1.2627e-05
1.2639e-05
1.26516e-05
1.2665e-05
1.26791e-05
1.26942e-05
1.27104e-05
1.27279e-05
1.27469e-05
1.27675e-05
1.27898e-05
1.2814e-05
1.2493e-05
1.24953e-05
1.24976e-05
1.24999e-05
1.25022e-05
1.25047e-05
1.25072e-05
1.25099e-05
1.25128e-05
1.2516e-05
1.25197e-05
1.25238e-05
1.25283e-05
1.25332e-05
1.25382e-05
1.25434e-05
1.25489e-05
1.25545e-05
1.25604e-05
1.25665e-05
1.25728e-05
1.25796e-05
1.25872e-05
1.25956e-05
1.2605e-05
1.26152e-05
1.26263e-05
1.26382e-05
1.26508e-05
1.26641e-05
1.26783e-05
1.26935e-05
1.27098e-05
1.27274e-05
1.27463e-05
1.27669e-05
1.27892e-05
1.28134e-05
1.23504e-05
1.23528e-05
1.23551e-05
1.23575e-05
1.23599e-05
1.23624e-05
1.2365e-05
1.23679e-05
1.2371e-05
1.23746e-05
1.23787e-05
1.23831e-05
1.23878e-05
1.23926e-05
1.23975e-05
1.24027e-05
1.24082e-05
1.24139e-05
1.24199e-05
1.24262e-05
1.24329e-05
1.24404e-05
1.24487e-05
1.24579e-05
1.24679e-05
1.24788e-05
1.24904e-05
1.25027e-05
1.25159e-05
1.25299e-05
1.2545e-05
1.25611e-05
1.25785e-05
1.25972e-05
1.26174e-05
1.26393e-05
1.26632e-05
1.19592e-05
1.19617e-05
1.1964e-05
1.19662e-05
1.19685e-05
1.19709e-05
1.19734e-05
1.19761e-05
1.19792e-05
1.19828e-05
1.19867e-05
1.19909e-05
1.19952e-05
1.19997e-05
1.20042e-05
1.2009e-05
1.20142e-05
1.20197e-05
1.20255e-05
1.20316e-05
1.20382e-05
1.20455e-05
1.20535e-05
1.20623e-05
1.20718e-05
1.20822e-05
1.20933e-05
1.21052e-05
1.21179e-05
1.21315e-05
1.2146e-05
1.21617e-05
1.21784e-05
1.21964e-05
1.22159e-05
1.2237e-05
1.22599e-05
1.10896e-05
1.10919e-05
1.1094e-05
1.1096e-05
1.1098e-05
1.11002e-05
1.11025e-05
1.11051e-05
1.11081e-05
1.11114e-05
1.1115e-05
1.11189e-05
1.11228e-05
1.11268e-05
1.11309e-05
1.11352e-05
1.11399e-05
1.11449e-05
1.11503e-05
1.11561e-05
1.11623e-05
1.11692e-05
1.11766e-05
1.11847e-05
1.11936e-05
1.12031e-05
1.12134e-05
1.12244e-05
1.12362e-05
1.12488e-05
1.12623e-05
1.12768e-05
1.12924e-05
1.13091e-05
1.1327e-05
1.13465e-05
1.13676e-05
9.30357e-06
9.3055e-06
9.30718e-06
9.30874e-06
9.31035e-06
9.31214e-06
9.31416e-06
9.31644e-06
9.31901e-06
9.3219e-06
9.32505e-06
9.32838e-06
9.33177e-06
9.33521e-06
9.33874e-06
9.34246e-06
9.34648e-06
9.35086e-06
9.35562e-06
9.36079e-06
9.36642e-06
9.37254e-06
9.37915e-06
9.38629e-06
9.39403e-06
9.40242e-06
9.41146e-06
9.42115e-06
9.43151e-06
9.4426e-06
9.4545e-06
9.46728e-06
9.48097e-06
9.49564e-06
9.51139e-06
9.52837e-06
9.54673e-06
6.01059e-06
6.01165e-06
6.01282e-06
6.01413e-06
6.01561e-06
6.01732e-06
6.01931e-06
6.02161e-06
6.02425e-06
6.02726e-06
6.03067e-06
6.03446e-06
6.0386e-06
6.04307e-06
6.0479e-06
6.05311e-06
6.05878e-06
6.06495e-06
6.07166e-06
6.07897e-06
6.08692e-06
6.09554e-06
6.10488e-06
6.11498e-06
6.12593e-06
6.13779e-06
6.15064e-06
6.16451e-06
6.17947e-06
6.19557e-06
6.21291e-06
6.23157e-06
6.25165e-06
6.27321e-06
6.29639e-06
6.32132e-06
6.34816e-06
7.02151e-06
7.02209e-06
7.02284e-06
7.02376e-06
7.02489e-06
7.02622e-06
7.02782e-06
7.02975e-06
7.03208e-06
7.03482e-06
7.03795e-06
7.04145e-06
7.0453e-06
7.04953e-06
7.05413e-06
7.05909e-06
7.06447e-06
7.07033e-06
7.07672e-06
7.08369e-06
7.09121e-06
7.09929e-06
7.10798e-06
7.11739e-06
7.12761e-06
7.13871e-06
7.15076e-06
7.16381e-06
7.17791e-06
7.19309e-06
7.20936e-06
7.22675e-06
7.24536e-06
7.2653e-06
7.28675e-06
7.30983e-06
7.33466e-06
7.36138e-06
1.16104e-05
1.16115e-05
1.16126e-05
1.16138e-05
1.1615e-05
1.16163e-05
1.16178e-05
1.16197e-05
1.1622e-05
1.16246e-05
1.16274e-05
1.16303e-05
1.16334e-05
1.16366e-05
1.16399e-05
1.16433e-05
1.16468e-05
1.16507e-05
1.16548e-05
1.16592e-05
1.16639e-05
1.16688e-05
1.1674e-05
1.16796e-05
1.16857e-05
1.16924e-05
1.16996e-05
1.17074e-05
1.17157e-05
1.17246e-05
1.1734e-05
1.17438e-05
1.17542e-05
1.17655e-05
1.17776e-05
1.17909e-05
1.18053e-05
1.18208e-05
1.38144e-05
1.38158e-05
1.38172e-05
1.38187e-05
1.38203e-05
1.3822e-05
1.38238e-05
1.3826e-05
1.38285e-05
1.38314e-05
1.38344e-05
1.38377e-05
1.38411e-05
1.38448e-05
1.38485e-05
1.38524e-05
1.38565e-05
1.38608e-05
1.38654e-05
1.38703e-05
1.38755e-05
1.38808e-05
1.38866e-05
1.38929e-05
1.38998e-05
1.39072e-05
1.39154e-05
1.39241e-05
1.39334e-05
1.39434e-05
1.39539e-05
1.39649e-05
1.39768e-05
1.39896e-05
1.40035e-05
1.40187e-05
1.40352e-05
1.40531e-05
1.49001e-05
1.49018e-05
1.49035e-05
1.49052e-05
1.4907e-05
1.4909e-05
1.49111e-05
1.49134e-05
1.49161e-05
1.49191e-05
1.49223e-05
1.49257e-05
1.49295e-05
1.49334e-05
1.49376e-05
1.49418e-05
1.49463e-05
1.4951e-05
1.4956e-05
1.49612e-05
1.49666e-05
1.49723e-05
1.49785e-05
1.49854e-05
1.49929e-05
1.50011e-05
1.501e-05
1.50196e-05
1.50298e-05
1.50406e-05
1.50521e-05
1.50643e-05
1.50774e-05
1.50915e-05
1.5107e-05
1.51238e-05
1.51422e-05
1.51621e-05
1.54074e-05
1.54093e-05
1.54111e-05
1.5413e-05
1.5415e-05
1.54171e-05
1.54194e-05
1.54218e-05
1.54245e-05
1.54275e-05
1.54308e-05
1.54344e-05
1.54382e-05
1.54424e-05
1.54468e-05
1.54513e-05
1.5456e-05
1.54609e-05
1.5466e-05
1.54713e-05
1.54768e-05
1.54827e-05
1.54891e-05
1.54963e-05
1.55042e-05
1.55128e-05
1.55222e-05
1.55323e-05
1.5543e-05
1.55544e-05
1.55665e-05
1.55793e-05
1.55931e-05
1.56082e-05
1.56245e-05
1.56423e-05
1.56618e-05
1.56829e-05
1.56032e-05
1.56052e-05
1.56072e-05
1.56093e-05
1.56114e-05
1.56136e-05
1.56159e-05
1.56183e-05
1.5621e-05
1.56239e-05
1.56272e-05
1.56308e-05
1.56348e-05
1.5639e-05
1.56434e-05
1.5648e-05
1.56528e-05
1.56577e-05
1.56629e-05
1.56682e-05
1.56737e-05
1.56796e-05
1.56861e-05
1.56933e-05
1.57014e-05
1.57103e-05
1.57199e-05
1.57301e-05
1.57411e-05
1.57527e-05
1.57651e-05
1.57782e-05
1.57925e-05
1.58079e-05
1.58247e-05
1.58429e-05
1.58628e-05
1.58845e-05
1.56031e-05
1.56054e-05
1.56075e-05
1.56096e-05
1.56118e-05
1.5614e-05
1.56163e-05
1.56188e-05
1.56214e-05
1.56242e-05
1.56274e-05
1.56311e-05
1.5635e-05
1.56392e-05
1.56435e-05
1.5648e-05
1.56527e-05
1.56575e-05
1.56626e-05
1.56678e-05
1.56732e-05
1.56791e-05
1.56856e-05
1.56929e-05
1.57009e-05
1.57097e-05
1.57193e-05
1.57295e-05
1.57404e-05
1.5752e-05
1.57644e-05
1.57777e-05
1.5792e-05
1.58074e-05
1.58242e-05
1.58424e-05
1.58623e-05
1.5884e-05
1.54096e-05
1.54119e-05
1.54141e-05
1.54162e-05
1.54184e-05
1.54206e-05
1.5423e-05
1.54255e-05
1.54283e-05
1.54315e-05
1.5435e-05
1.54389e-05
1.54428e-05
1.5447e-05
1.54512e-05
1.54557e-05
1.54603e-05
1.54652e-05
1.54703e-05
1.54757e-05
1.54815e-05
1.54878e-05
1.54949e-05
1.55028e-05
1.55113e-05
1.55206e-05
1.55306e-05
1.55412e-05
1.55526e-05
1.55647e-05
1.55778e-05
1.55918e-05
1.5607e-05
1.56234e-05
1.56412e-05
1.56607e-05
1.56819e-05
1.49023e-05
1.49046e-05
1.49067e-05
1.49087e-05
1.49108e-05
1.49129e-05
1.49152e-05
1.49176e-05
1.49203e-05
1.49234e-05
1.49268e-05
1.49304e-05
1.49341e-05
1.49379e-05
1.49418e-05
1.49459e-05
1.49502e-05
1.49548e-05
1.49597e-05
1.49649e-05
1.49705e-05
1.49766e-05
1.49834e-05
1.49908e-05
1.49989e-05
1.50076e-05
1.50171e-05
1.50272e-05
1.5038e-05
1.50496e-05
1.5062e-05
1.50754e-05
1.50899e-05
1.51055e-05
1.51224e-05
1.51408e-05
1.51609e-05
1.38164e-05
1.38185e-05
1.38204e-05
1.38222e-05
1.3824e-05
1.3826e-05
1.38281e-05
1.38304e-05
1.38329e-05
1.38358e-05
1.3839e-05
1.38423e-05
1.38457e-05
1.3849e-05
1.38525e-05
1.38561e-05
1.386e-05
1.38642e-05
1.38687e-05
1.38735e-05
1.38787e-05
1.38844e-05
1.38906e-05
1.38974e-05
1.39048e-05
1.39128e-05
1.39214e-05
1.39306e-05
1.39405e-05
1.39511e-05
1.39625e-05
1.39748e-05
1.39879e-05
1.40021e-05
1.40174e-05
1.40341e-05
1.40522e-05
1.16119e-05
1.16138e-05
1.16154e-05
1.16168e-05
1.16183e-05
1.16199e-05
1.16217e-05
1.16238e-05
1.16261e-05
1.16287e-05
1.16315e-05
1.16345e-05
1.16375e-05
1.16405e-05
1.16435e-05
1.16467e-05
1.16501e-05
1.16538e-05
1.16578e-05
1.16622e-05
1.16669e-05
1.16721e-05
1.16777e-05
1.16838e-05
1.16904e-05
1.16975e-05
1.17052e-05
1.17135e-05
1.17223e-05
1.17317e-05
1.17418e-05
1.17527e-05
1.17643e-05
1.17768e-05
1.17903e-05
1.18049e-05
1.18207e-05
7.02158e-06
7.02268e-06
7.02389e-06
7.02522e-06
7.02673e-06
7.02849e-06
7.03053e-06
7.0329e-06
7.03564e-06
7.03876e-06
7.04229e-06
7.04619e-06
7.05042e-06
7.05497e-06
7.05984e-06
7.06511e-06
7.07082e-06
7.07703e-06
7.0838e-06
7.09118e-06
7.09921e-06
7.10792e-06
7.11735e-06
7.12756e-06
7.13861e-06
7.15058e-06
7.16355e-06
7.17754e-06
7.19261e-06
7.20883e-06
7.22629e-06
7.24509e-06
7.2653e-06
7.28701e-06
7.31035e-06
7.33548e-06
7.36256e-06
7.62123e-06
7.62178e-06
7.62247e-06
7.62335e-06
7.62443e-06
7.62574e-06
7.62731e-06
7.62921e-06
7.63148e-06
7.63422e-06
7.63737e-06
7.64088e-06
7.64476e-06
7.64898e-06
7.65356e-06
7.65849e-06
7.66383e-06
7.66965e-06
7.676e-06
7.68291e-06
7.69037e-06
7.69837e-06
7.70697e-06
7.71627e-06
7.72638e-06
7.73737e-06
7.74931e-06
7.76225e-06
7.77624e-06
7.79129e-06
7.80743e-06
7.82468e-06
7.84312e-06
7.8629e-06
7.88417e-06
7.90708e-06
7.93174e-06
7.95831e-06
1.30914e-05
1.30923e-05
1.30932e-05
1.30942e-05
1.30952e-05
1.30963e-05
1.30977e-05
1.30994e-05
1.31015e-05
1.31039e-05
1.31065e-05
1.31091e-05
1.31119e-05
1.31148e-05
1.31177e-05
1.31207e-05
1.31239e-05
1.31273e-05
1.3131e-05
1.31349e-05
1.3139e-05
1.31434e-05
1.3148e-05
1.31529e-05
1.31583e-05
1.31643e-05
1.31707e-05
1.31776e-05
1.31851e-05
1.3193e-05
1.32014e-05
1.32101e-05
1.32194e-05
1.32293e-05
1.32402e-05
1.3252e-05
1.32649e-05
1.32789e-05
1.55525e-05
1.55537e-05
1.55549e-05
1.55562e-05
1.55575e-05
1.5559e-05
1.55606e-05
1.55625e-05
1.55647e-05
1.55672e-05
1.55699e-05
1.55727e-05
1.55757e-05
1.55788e-05
1.5582e-05
1.55854e-05
1.55889e-05
1.55926e-05
1.55965e-05
1.56007e-05
1.56051e-05
1.56097e-05
1.56147e-05
1.56201e-05
1.5626e-05
1.56324e-05
1.56395e-05
1.5647e-05
1.56551e-05
1.56638e-05
1.56729e-05
1.56826e-05
1.5693e-05
1.57043e-05
1.57165e-05
1.57299e-05
1.57446e-05
1.57605e-05
1.67706e-05
1.67721e-05
1.67735e-05
1.6775e-05
1.67766e-05
1.67783e-05
1.67801e-05
1.67821e-05
1.67844e-05
1.6787e-05
1.67898e-05
1.67927e-05
1.67959e-05
1.67993e-05
1.68028e-05
1.68064e-05
1.68102e-05
1.68143e-05
1.68185e-05
1.6823e-05
1.68276e-05
1.68325e-05
1.68379e-05
1.68437e-05
1.68502e-05
1.68573e-05
1.68649e-05
1.68732e-05
1.68821e-05
1.68915e-05
1.69016e-05
1.69123e-05
1.69238e-05
1.69364e-05
1.69501e-05
1.69651e-05
1.69815e-05
1.69994e-05
1.73549e-05
1.73565e-05
1.73582e-05
1.73598e-05
1.73616e-05
1.73634e-05
1.73654e-05
1.73675e-05
1.73698e-05
1.73724e-05
1.73752e-05
1.73783e-05
1.73816e-05
1.73851e-05
1.73888e-05
1.73927e-05
1.73967e-05
1.74009e-05
1.74053e-05
1.74098e-05
1.74146e-05
1.74197e-05
1.74253e-05
1.74315e-05
1.74383e-05
1.74458e-05
1.74539e-05
1.74626e-05
1.7472e-05
1.7482e-05
1.74926e-05
1.7504e-05
1.75164e-05
1.75298e-05
1.75445e-05
1.75605e-05
1.7578e-05
1.75972e-05
1.7587e-05
1.75888e-05
1.75906e-05
1.75924e-05
1.75942e-05
1.75962e-05
1.75982e-05
1.76003e-05
1.76026e-05
1.76052e-05
1.7608e-05
1.76111e-05
1.76145e-05
1.7618e-05
1.76218e-05
1.76257e-05
1.76298e-05
1.7634e-05
1.76385e-05
1.7643e-05
1.76479e-05
1.7653e-05
1.76587e-05
1.7665e-05
1.7672e-05
1.76796e-05
1.7688e-05
1.76969e-05
1.77065e-05
1.77168e-05
1.77277e-05
1.77395e-05
1.77522e-05
1.77661e-05
1.77812e-05
1.77978e-05
1.78158e-05
1.78356e-05
1.7587e-05
1.75889e-05
1.75908e-05
1.75927e-05
1.75946e-05
1.75965e-05
1.75985e-05
1.76007e-05
1.76029e-05
1.76054e-05
1.76082e-05
1.76113e-05
1.76146e-05
1.76182e-05
1.76219e-05
1.76257e-05
1.76297e-05
1.76339e-05
1.76382e-05
1.76427e-05
1.76475e-05
1.76527e-05
1.76583e-05
1.76646e-05
1.76716e-05
1.76792e-05
1.76875e-05
1.76964e-05
1.7706e-05
1.77162e-05
1.77272e-05
1.7739e-05
1.77518e-05
1.77657e-05
1.77809e-05
1.77974e-05
1.78155e-05
1.78353e-05
1.73568e-05
1.73588e-05
1.73607e-05
1.73625e-05
1.73644e-05
1.73664e-05
1.73685e-05
1.73707e-05
1.73731e-05
1.73758e-05
1.73788e-05
1.73821e-05
1.73855e-05
1.7389e-05
1.73926e-05
1.73964e-05
1.74004e-05
1.74046e-05
1.7409e-05
1.74137e-05
1.74187e-05
1.74242e-05
1.74304e-05
1.74371e-05
1.74445e-05
1.74526e-05
1.74612e-05
1.74705e-05
1.74805e-05
1.74912e-05
1.75028e-05
1.75153e-05
1.75289e-05
1.75436e-05
1.75597e-05
1.75773e-05
1.75966e-05
1.67725e-05
1.67744e-05
1.67763e-05
1.6778e-05
1.67798e-05
1.67817e-05
1.67836e-05
1.67858e-05
1.67881e-05
1.67907e-05
1.67936e-05
1.67967e-05
1.67999e-05
1.68031e-05
1.68064e-05
1.68099e-05
1.68136e-05
1.68175e-05
1.68217e-05
1.68262e-05
1.6831e-05
1.68363e-05
1.68421e-05
1.68484e-05
1.68554e-05
1.6863e-05
1.68711e-05
1.68799e-05
1.68893e-05
1.68995e-05
1.69104e-05
1.69223e-05
1.69351e-05
1.69489e-05
1.6964e-05
1.69806e-05
1.69987e-05
1.55542e-05
1.5556e-05
1.55577e-05
1.55593e-05
1.55609e-05
1.55625e-05
1.55643e-05
1.55664e-05
1.55686e-05
1.55711e-05
1.55738e-05
1.55767e-05
1.55795e-05
1.55825e-05
1.55854e-05
1.55885e-05
1.55918e-05
1.55954e-05
1.55992e-05
1.56034e-05
1.56079e-05
1.56128e-05
1.56181e-05
1.5624e-05
1.56303e-05
1.56372e-05
1.56447e-05
1.56527e-05
1.56613e-05
1.56705e-05
1.56805e-05
1.56912e-05
1.57028e-05
1.57154e-05
1.5729e-05
1.57438e-05
1.57601e-05
1.30927e-05
1.30944e-05
1.30958e-05
1.3097e-05
1.30983e-05
1.30997e-05
1.31014e-05
1.31032e-05
1.31053e-05
1.31077e-05
1.31102e-05
1.31129e-05
1.31156e-05
1.31182e-05
1.31209e-05
1.31237e-05
1.31267e-05
1.31299e-05
1.31334e-05
1.31373e-05
1.31416e-05
1.31462e-05
1.31512e-05
1.31565e-05
1.31623e-05
1.31687e-05
1.31755e-05
1.31829e-05
1.31907e-05
1.31991e-05
1.32082e-05
1.32179e-05
1.32283e-05
1.32395e-05
1.32516e-05
1.32647e-05
1.32791e-05
7.62125e-06
7.62233e-06
7.6235e-06
7.6248e-06
7.62628e-06
7.628e-06
7.63001e-06
7.63237e-06
7.6351e-06
7.63824e-06
7.64177e-06
7.64567e-06
7.64988e-06
7.65438e-06
7.6592e-06
7.66438e-06
7.67001e-06
7.67613e-06
7.68283e-06
7.69015e-06
7.69812e-06
7.70676e-06
7.71612e-06
7.72623e-06
7.73718e-06
7.74905e-06
7.76189e-06
7.77576e-06
7.79071e-06
7.8068e-06
7.82413e-06
7.84278e-06
7.86284e-06
7.88439e-06
7.90757e-06
7.93254e-06
7.95949e-06
7.99886e-06
7.99932e-06
7.99994e-06
8.00074e-06
8.00175e-06
8.00299e-06
8.0045e-06
8.00634e-06
8.00857e-06
8.01118e-06
8.01422e-06
8.01767e-06
8.02146e-06
8.02559e-06
8.03004e-06
8.03483e-06
8.04002e-06
8.04567e-06
8.05186e-06
8.0586e-06
8.06586e-06
8.07365e-06
8.08202e-06
8.09106e-06
8.1009e-06
8.11162e-06
8.12328e-06
8.13593e-06
8.14962e-06
8.16434e-06
8.18018e-06
8.19717e-06
8.21536e-06
8.23486e-06
8.25582e-06
8.27838e-06
8.30268e-06
8.32884e-06
1.40842e-05
1.40849e-05
1.40855e-05
1.40862e-05
1.4087e-05
1.40879e-05
1.40891e-05
1.40906e-05
1.40925e-05
1.40948e-05
1.40972e-05
1.40996e-05
1.41021e-05
1.41046e-05
1.41072e-05
1.41098e-05
1.41126e-05
1.41156e-05
1.41188e-05
1.41223e-05
1.41259e-05
1.41297e-05
1.41338e-05
1.41381e-05
1.41429e-05
1.41481e-05
1.41538e-05
1.416e-05
1.41667e-05
1.41738e-05
1.41811e-05
1.41888e-05
1.41969e-05
1.42056e-05
1.42151e-05
1.42255e-05
1.42369e-05
1.42494e-05
1.6737e-05
1.6738e-05
1.6739e-05
1.674e-05
1.67411e-05
1.67423e-05
1.67437e-05
1.67454e-05
1.67473e-05
1.67495e-05
1.67518e-05
1.67543e-05
1.67568e-05
1.67595e-05
1.67622e-05
1.67651e-05
1.6768e-05
1.67712e-05
1.67746e-05
1.67782e-05
1.6782e-05
1.6786e-05
1.67902e-05
1.67949e-05
1.68e-05
1.68056e-05
1.68117e-05
1.68183e-05
1.68254e-05
1.6833e-05
1.6841e-05
1.68496e-05
1.68588e-05
1.68687e-05
1.68796e-05
1.68915e-05
1.69046e-05
1.6919e-05
1.80535e-05
1.80548e-05
1.8056e-05
1.80573e-05
1.80586e-05
1.80601e-05
1.80616e-05
1.80634e-05
1.80654e-05
1.80675e-05
1.80699e-05
1.80725e-05
1.80751e-05
1.8078e-05
1.80809e-05
1.8084e-05
1.80873e-05
1.80907e-05
1.80943e-05
1.80981e-05
1.81021e-05
1.81064e-05
1.8111e-05
1.81161e-05
1.81217e-05
1.81278e-05
1.81344e-05
1.81416e-05
1.81494e-05
1.81577e-05
1.81666e-05
1.81761e-05
1.81864e-05
1.81976e-05
1.82099e-05
1.82234e-05
1.82383e-05
1.82545e-05
1.86968e-05
1.86982e-05
1.86996e-05
1.8701e-05
1.87025e-05
1.87041e-05
1.87058e-05
1.87076e-05
1.87096e-05
1.87118e-05
1.87142e-05
1.87168e-05
1.87196e-05
1.87226e-05
1.87257e-05
1.8729e-05
1.87324e-05
1.8736e-05
1.87397e-05
1.87437e-05
1.87478e-05
1.87523e-05
1.87571e-05
1.87625e-05
1.87684e-05
1.87749e-05
1.87819e-05
1.87896e-05
1.87978e-05
1.88066e-05
1.88161e-05
1.88263e-05
1.88374e-05
1.88495e-05
1.88628e-05
1.88773e-05
1.88933e-05
1.89109e-05
1.89576e-05
1.89592e-05
1.89607e-05
1.89623e-05
1.89639e-05
1.89655e-05
1.89673e-05
1.89691e-05
1.89711e-05
1.89733e-05
1.89757e-05
1.89783e-05
1.89812e-05
1.89842e-05
1.89874e-05
1.89907e-05
1.89942e-05
1.89978e-05
1.90016e-05
1.90056e-05
1.90098e-05
1.90143e-05
1.90193e-05
1.90248e-05
1.90308e-05
1.90375e-05
1.90447e-05
1.90526e-05
1.9061e-05
1.90701e-05
1.90799e-05
1.90905e-05
1.9102e-05
1.91145e-05
1.91283e-05
1.91434e-05
1.916e-05
1.91782e-05
1.89576e-05
1.89593e-05
1.89609e-05
1.89625e-05
1.89642e-05
1.89658e-05
1.89676e-05
1.89694e-05
1.89714e-05
1.89735e-05
1.89759e-05
1.89785e-05
1.89813e-05
1.89843e-05
1.89874e-05
1.89907e-05
1.89941e-05
1.89977e-05
1.90014e-05
1.90053e-05
1.90095e-05
1.9014e-05
1.9019e-05
1.90244e-05
1.90305e-05
1.90371e-05
1.90444e-05
1.90522e-05
1.90606e-05
1.90697e-05
1.90795e-05
1.90901e-05
1.91016e-05
1.91142e-05
1.9128e-05
1.91431e-05
1.91598e-05
1.9178e-05
1.86984e-05
1.87001e-05
1.87017e-05
1.87033e-05
1.8705e-05
1.87067e-05
1.87084e-05
1.87103e-05
1.87124e-05
1.87147e-05
1.87173e-05
1.872e-05
1.87229e-05
1.87258e-05
1.87289e-05
1.87322e-05
1.87356e-05
1.87392e-05
1.8743e-05
1.8747e-05
1.87514e-05
1.87563e-05
1.87616e-05
1.87674e-05
1.87739e-05
1.87808e-05
1.87884e-05
1.87966e-05
1.88054e-05
1.88149e-05
1.88253e-05
1.88365e-05
1.88487e-05
1.88621e-05
1.88768e-05
1.88929e-05
1.89106e-05
1.80551e-05
1.80568e-05
1.80584e-05
1.80599e-05
1.80614e-05
1.8063e-05
1.80647e-05
1.80665e-05
1.80685e-05
1.80707e-05
1.80732e-05
1.80758e-05
1.80784e-05
1.80812e-05
1.8084e-05
1.8087e-05
1.80901e-05
1.80935e-05
1.80971e-05
1.81009e-05
1.81051e-05
1.81097e-05
1.81147e-05
1.81202e-05
1.81262e-05
1.81328e-05
1.81399e-05
1.81476e-05
1.81558e-05
1.81648e-05
1.81745e-05
1.81851e-05
1.81965e-05
1.8209e-05
1.82227e-05
1.82377e-05
1.82542e-05
1.67384e-05
1.674e-05
1.67414e-05
1.67427e-05
1.67441e-05
1.67455e-05
1.6747e-05
1.67488e-05
1.67507e-05
1.67528e-05
1.67552e-05
1.67576e-05
1.67601e-05
1.67626e-05
1.67651e-05
1.67677e-05
1.67706e-05
1.67736e-05
1.67769e-05
1.67805e-05
1.67844e-05
1.67886e-05
1.67932e-05
1.67982e-05
1.68037e-05
1.68097e-05
1.68162e-05
1.68232e-05
1.68307e-05
1.68388e-05
1.68476e-05
1.68571e-05
1.68674e-05
1.68786e-05
1.68908e-05
1.69042e-05
1.69189e-05
1.40854e-05
1.40868e-05
1.4088e-05
1.4089e-05
1.409e-05
1.40912e-05
1.40926e-05
1.40943e-05
1.40962e-05
1.40983e-05
1.41006e-05
1.41029e-05
1.41053e-05
1.41076e-05
1.41099e-05
1.41123e-05
1.41149e-05
1.41177e-05
1.41208e-05
1.41243e-05
1.4128e-05
1.41321e-05
1.41364e-05
1.41411e-05
1.41462e-05
1.41518e-05
1.41579e-05
1.41644e-05
1.41714e-05
1.41788e-05
1.41868e-05
1.41954e-05
1.42046e-05
1.42145e-05
1.42253e-05
1.42371e-05
1.42501e-05
7.99879e-06
7.99982e-06
8.00092e-06
8.00215e-06
8.00356e-06
8.00521e-06
8.00715e-06
8.00939e-06
8.01203e-06
8.01509e-06
8.01855e-06
8.02235e-06
8.02644e-06
8.03081e-06
8.03547e-06
8.04048e-06
8.04591e-06
8.05184e-06
8.05835e-06
8.06549e-06
8.07327e-06
8.08171e-06
8.09082e-06
8.10068e-06
8.11134e-06
8.12291e-06
8.13544e-06
8.14897e-06
8.16358e-06
8.17937e-06
8.19639e-06
8.21472e-06
8.23443e-06
8.25563e-06
8.27843e-06
8.30299e-06
8.32947e-06
8.24258e-06
8.24294e-06
8.24346e-06
8.24416e-06
8.24508e-06
8.24623e-06
8.24767e-06
8.24944e-06
8.2516e-06
8.25414e-06
8.25704e-06
8.26037e-06
8.26404e-06
8.26802e-06
8.2723e-06
8.27691e-06
8.2819e-06
8.28735e-06
8.29331e-06
8.29983e-06
8.30686e-06
8.31439e-06
8.32248e-06
8.33123e-06
8.3408e-06
8.35124e-06
8.36262e-06
8.37499e-06
8.38837e-06
8.4028e-06
8.41828e-06
8.43485e-06
8.45258e-06
8.47158e-06
8.49199e-06
8.51397e-06
8.53766e-06
8.56319e-06
1.47562e-05
1.47566e-05
1.4757e-05
1.47574e-05
1.4758e-05
1.47587e-05
1.47597e-05
1.47611e-05
1.47628e-05
1.47649e-05
1.47671e-05
1.47693e-05
1.47714e-05
1.47736e-05
1.47758e-05
1.47781e-05
1.47805e-05
1.4783e-05
1.47858e-05
1.47888e-05
1.4792e-05
1.47953e-05
1.47988e-05
1.48026e-05
1.48067e-05
1.48113e-05
1.48163e-05
1.48218e-05
1.48277e-05
1.48339e-05
1.48404e-05
1.48471e-05
1.48541e-05
1.48616e-05
1.48699e-05
1.4879e-05
1.4889e-05
1.49001e-05
1.75615e-05
1.75623e-05
1.7563e-05
1.75639e-05
1.75648e-05
1.75658e-05
1.7567e-05
1.75684e-05
1.757e-05
1.75719e-05
1.75739e-05
1.7576e-05
1.75782e-05
1.75805e-05
1.75828e-05
1.75852e-05
1.75877e-05
1.75903e-05
1.75932e-05
1.75963e-05
1.75995e-05
1.7603e-05
1.76066e-05
1.76106e-05
1.7615e-05
1.76199e-05
1.76252e-05
1.76309e-05
1.76372e-05
1.76438e-05
1.76509e-05
1.76584e-05
1.76665e-05
1.76754e-05
1.7685e-05
1.76957e-05
1.77074e-05
1.77203e-05
1.89583e-05
1.89593e-05
1.89603e-05
1.89614e-05
1.89625e-05
1.89637e-05
1.8965e-05
1.89665e-05
1.89682e-05
1.89701e-05
1.89721e-05
1.89742e-05
1.89765e-05
1.89789e-05
1.89814e-05
1.8984e-05
1.89867e-05
1.89896e-05
1.89927e-05
1.89959e-05
1.89994e-05
1.90031e-05
1.90071e-05
1.90114e-05
1.90163e-05
1.90216e-05
1.90273e-05
1.90336e-05
1.90404e-05
1.90477e-05
1.90556e-05
1.90641e-05
1.90733e-05
1.90834e-05
1.90945e-05
1.91067e-05
1.91202e-05
1.9135e-05
1.96498e-05
1.9651e-05
1.96522e-05
1.96534e-05
1.96547e-05
1.9656e-05
1.96574e-05
1.9659e-05
1.96607e-05
1.96626e-05
1.96646e-05
1.96668e-05
1.96691e-05
1.96716e-05
1.96742e-05
1.9677e-05
1.96799e-05
1.96829e-05
1.96861e-05
1.96895e-05
1.96931e-05
1.9697e-05
1.97012e-05
1.97059e-05
1.9711e-05
1.97166e-05
1.97228e-05
1.97295e-05
1.97367e-05
1.97445e-05
1.9753e-05
1.97621e-05
1.97721e-05
1.97831e-05
1.97952e-05
1.98085e-05
1.98232e-05
1.98393e-05
1.99344e-05
1.99358e-05
1.99371e-05
1.99384e-05
1.99397e-05
1.99411e-05
1.99426e-05