/*--------------------------------*- C++ -*----------------------------------*\
| =========                 |                                                 |
| \\      /  F ield         | OpenFOAM: The Open Source CFD Toolbox           |
|  \\    /   O peration     | Version:  2.3.1                                 |
|   \\  /    A nd           | Web:      www.OpenFOAM.org                      |
|    \\/     M anipulation  |                                                 |
\*---------------------------------------------------------------------------*/
FoamFile
{
    version     2.0;
    format      ascii;
    class       volScalarField;
    location    "15";
    object      nut;
}
// * * * * * * * * * * * * * * * * * * * * * * * * * * * * * * * * * * * * * //

dimensions      [0 2 -1 0 0 0 0];

internalField   nonuniform List<scalar> 
37692
(
2.44321e-06
2.44338e-06
2.44361e-06
2.44392e-06
2.4443e-06
2.44477e-06
2.44532e-06
2.44598e-06
2.44677e-06
2.4477e-06
2.44877e-06
2.44999e-06
2.45135e-06
2.45287e-06
2.45454e-06
2.45637e-06
2.45837e-06
2.46056e-06
2.46294e-06
2.46554e-06
2.46837e-06
2.47142e-06
2.47471e-06
2.47827e-06
2.48212e-06
2.48629e-06
2.49081e-06
2.4957e-06
2.50097e-06
2.50665e-06
2.51274e-06
2.51925e-06
2.5262e-06
2.53363e-06
2.54157e-06
2.55006e-06
2.55914e-06
2.56886e-06
2.91748e-06
2.91774e-06
2.91806e-06
2.91846e-06
2.91893e-06
2.91949e-06
2.92014e-06
2.92092e-06
2.92185e-06
2.92294e-06
2.92418e-06
2.92556e-06
2.92709e-06
2.92878e-06
2.93063e-06
2.93264e-06
2.93482e-06
2.93718e-06
2.93977e-06
2.94258e-06
2.94561e-06
2.94887e-06
2.95238e-06
2.95617e-06
2.96028e-06
2.96473e-06
2.96955e-06
2.97475e-06
2.98035e-06
2.98637e-06
2.99282e-06
2.9997e-06
3.00704e-06
3.01489e-06
3.0233e-06
3.03231e-06
3.04196e-06
3.05228e-06
3.12118e-06
3.12146e-06
3.12182e-06
3.12225e-06
3.12275e-06
3.12333e-06
3.124e-06
3.12479e-06
3.12573e-06
3.12682e-06
3.12804e-06
3.1294e-06
3.1309e-06
3.13256e-06
3.13437e-06
3.13633e-06
3.13845e-06
3.14074e-06
3.14324e-06
3.14594e-06
3.14884e-06
3.15194e-06
3.15527e-06
3.15889e-06
3.16281e-06
3.16708e-06
3.17168e-06
3.17666e-06
3.18202e-06
3.18776e-06
3.1939e-06
3.20045e-06
3.20743e-06
3.21492e-06
3.22295e-06
3.23157e-06
3.2408e-06
3.25069e-06
3.21311e-06
3.21342e-06
3.2138e-06
3.21425e-06
3.21478e-06
3.21538e-06
3.21607e-06
3.21688e-06
3.21781e-06
3.21888e-06
3.22009e-06
3.22143e-06
3.22293e-06
3.22459e-06
3.22639e-06
3.22835e-06
3.23045e-06
3.23272e-06
3.23518e-06
3.23782e-06
3.24064e-06
3.24364e-06
3.24689e-06
3.25042e-06
3.25428e-06
3.25847e-06
3.263e-06
3.26789e-06
3.27316e-06
3.27879e-06
3.2848e-06
3.2912e-06
3.29804e-06
3.30538e-06
3.31326e-06
3.32173e-06
3.33081e-06
3.34053e-06
3.25162e-06
3.25196e-06
3.25236e-06
3.25283e-06
3.25338e-06
3.254e-06
3.25471e-06
3.25552e-06
3.25644e-06
3.25749e-06
3.25868e-06
3.26001e-06
3.26151e-06
3.26317e-06
3.26499e-06
3.26694e-06
3.26905e-06
3.27132e-06
3.27376e-06
3.27635e-06
3.27911e-06
3.28206e-06
3.28525e-06
3.28875e-06
3.29258e-06
3.29674e-06
3.30125e-06
3.30612e-06
3.31135e-06
3.31694e-06
3.32289e-06
3.32924e-06
3.33603e-06
3.34332e-06
3.35115e-06
3.35955e-06
3.36857e-06
3.37825e-06
3.26502e-06
3.26538e-06
3.26581e-06
3.26629e-06
3.26686e-06
3.2675e-06
3.26822e-06
3.26903e-06
3.26994e-06
3.27096e-06
3.27213e-06
3.27347e-06
3.27497e-06
3.27663e-06
3.27844e-06
3.2804e-06
3.2825e-06
3.28476e-06
3.28718e-06
3.28974e-06
3.29247e-06
3.29539e-06
3.29856e-06
3.30205e-06
3.30586e-06
3.31001e-06
3.31452e-06
3.31937e-06
3.32458e-06
3.33014e-06
3.33608e-06
3.34242e-06
3.34921e-06
3.35649e-06
3.3643e-06
3.37269e-06
3.38169e-06
3.39136e-06
3.26498e-06
3.26538e-06
3.26583e-06
3.26634e-06
3.26692e-06
3.26758e-06
3.2683e-06
3.26911e-06
3.27001e-06
3.27102e-06
3.27219e-06
3.27352e-06
3.27502e-06
3.27668e-06
3.27848e-06
3.28042e-06
3.28251e-06
3.28475e-06
3.28715e-06
3.2897e-06
3.29242e-06
3.29533e-06
3.29851e-06
3.30199e-06
3.30579e-06
3.30994e-06
3.31443e-06
3.31927e-06
3.32446e-06
3.33002e-06
3.33596e-06
3.34232e-06
3.34913e-06
3.35643e-06
3.36424e-06
3.37263e-06
3.38164e-06
3.39132e-06
3.25194e-06
3.25242e-06
3.25296e-06
3.25355e-06
3.2542e-06
3.25494e-06
3.25574e-06
3.25664e-06
3.25766e-06
3.25883e-06
3.26017e-06
3.26168e-06
3.26332e-06
3.2651e-06
3.26701e-06
3.26908e-06
3.2713e-06
3.2737e-06
3.27625e-06
3.27898e-06
3.28192e-06
3.28511e-06
3.28859e-06
3.2924e-06
3.29655e-06
3.30103e-06
3.30587e-06
3.31106e-06
3.31663e-06
3.32259e-06
3.32898e-06
3.33583e-06
3.34316e-06
3.35101e-06
3.35943e-06
3.36847e-06
3.37819e-06
3.21337e-06
3.21387e-06
3.21442e-06
3.215e-06
3.21566e-06
3.21639e-06
3.2172e-06
3.21811e-06
3.21915e-06
3.22033e-06
3.22169e-06
3.22319e-06
3.22483e-06
3.22659e-06
3.22847e-06
3.23051e-06
3.23273e-06
3.23513e-06
3.2377e-06
3.24047e-06
3.24344e-06
3.24667e-06
3.25019e-06
3.25402e-06
3.25818e-06
3.26269e-06
3.26754e-06
3.27277e-06
3.27837e-06
3.28439e-06
3.29084e-06
3.29775e-06
3.30516e-06
3.31309e-06
3.32158e-06
3.33071e-06
3.34051e-06
3.12135e-06
3.12185e-06
3.12239e-06
3.12296e-06
3.1236e-06
3.12433e-06
3.12515e-06
3.12608e-06
3.12714e-06
3.12835e-06
3.12972e-06
3.13123e-06
3.13287e-06
3.13464e-06
3.13653e-06
3.13858e-06
3.14081e-06
3.14324e-06
3.14586e-06
3.14869e-06
3.15175e-06
3.15507e-06
3.15866e-06
3.16257e-06
3.1668e-06
3.17138e-06
3.17632e-06
3.18164e-06
3.18735e-06
3.19349e-06
3.20008e-06
3.20714e-06
3.21471e-06
3.22282e-06
3.2315e-06
3.24082e-06
3.25081e-06
2.91751e-06
2.91798e-06
2.91849e-06
2.91905e-06
2.91967e-06
2.92039e-06
2.92122e-06
2.92217e-06
2.92326e-06
2.92449e-06
2.92589e-06
2.92744e-06
2.92913e-06
2.93096e-06
2.93293e-06
2.93506e-06
2.93738e-06
2.9399e-06
2.94264e-06
2.94561e-06
2.94884e-06
2.95233e-06
2.9561e-06
2.96019e-06
2.96461e-06
2.9694e-06
2.97457e-06
2.98014e-06
2.98612e-06
2.99255e-06
2.99946e-06
3.00687e-06
3.01481e-06
3.02332e-06
3.03243e-06
3.04219e-06
3.05265e-06
2.44307e-06
2.4434e-06
2.4438e-06
2.44426e-06
2.4448e-06
2.44542e-06
2.44613e-06
2.44696e-06
2.4479e-06
2.44899e-06
2.45023e-06
2.45162e-06
2.45316e-06
2.45486e-06
2.4567e-06
2.4587e-06
2.46087e-06
2.46323e-06
2.4658e-06
2.46858e-06
2.47161e-06
2.47488e-06
2.47843e-06
2.48226e-06
2.4864e-06
2.49089e-06
2.49574e-06
2.50097e-06
2.5066e-06
2.51266e-06
2.51917e-06
2.52615e-06
2.53364e-06
2.54167e-06
2.55026e-06
2.55946e-06
2.56931e-06
6.19226e-06
6.19255e-06
6.19292e-06
6.1934e-06
6.19397e-06
6.19465e-06
6.19546e-06
6.19642e-06
6.19758e-06
6.19894e-06
6.20049e-06
6.20223e-06
6.20415e-06
6.20626e-06
6.20857e-06
6.21107e-06
6.21379e-06
6.21675e-06
6.21999e-06
6.22352e-06
6.22733e-06
6.23144e-06
6.23586e-06
6.24065e-06
6.24584e-06
6.25147e-06
6.25757e-06
6.26417e-06
6.27129e-06
6.27896e-06
6.28717e-06
6.29595e-06
6.30532e-06
6.31536e-06
6.32612e-06
6.33768e-06
6.35009e-06
6.3634e-06
1.41942e-05
1.41965e-05
1.41985e-05
1.42005e-05
1.42025e-05
1.42045e-05
1.42067e-05
1.42094e-05
1.42127e-05
1.42164e-05
1.42201e-05
1.42238e-05
1.42274e-05
1.42309e-05
1.42343e-05
1.42375e-05
1.42407e-05
1.4244e-05
1.42475e-05
1.42513e-05
1.4255e-05
1.42585e-05
1.42622e-05
1.42661e-05
1.42704e-05
1.42751e-05
1.42801e-05
1.42853e-05
1.42907e-05
1.42962e-05
1.43015e-05
1.43067e-05
1.4312e-05
1.43176e-05
1.43237e-05
1.43305e-05
1.43379e-05
1.4346e-05
1.8336e-05
1.83394e-05
1.83426e-05
1.83456e-05
1.83486e-05
1.83516e-05
1.83549e-05
1.83587e-05
1.8363e-05
1.83677e-05
1.83726e-05
1.83776e-05
1.83825e-05
1.83874e-05
1.83922e-05
1.83967e-05
1.84011e-05
1.84057e-05
1.84104e-05
1.84152e-05
1.84198e-05
1.84243e-05
1.8429e-05
1.84342e-05
1.844e-05
1.84463e-05
1.84529e-05
1.84599e-05
1.8467e-05
1.84741e-05
1.8481e-05
1.84878e-05
1.84948e-05
1.85025e-05
1.85109e-05
1.85203e-05
1.85306e-05
1.85418e-05
2.04387e-05
2.04429e-05
2.04468e-05
2.04506e-05
2.04542e-05
2.04579e-05
2.04618e-05
2.0466e-05
2.04708e-05
2.04759e-05
2.04812e-05
2.04868e-05
2.04925e-05
2.04983e-05
2.05039e-05
2.05092e-05
2.05145e-05
2.05197e-05
2.05249e-05
2.05298e-05
2.05345e-05
2.05391e-05
2.05442e-05
2.055e-05
2.05567e-05
2.0564e-05
2.05718e-05
2.05798e-05
2.05879e-05
2.05959e-05
2.06037e-05
2.06113e-05
2.06195e-05
2.06284e-05
2.06384e-05
2.06494e-05
2.06615e-05
2.06747e-05
2.14436e-05
2.14484e-05
2.14528e-05
2.14571e-05
2.14612e-05
2.14653e-05
2.14695e-05
2.14739e-05
2.14786e-05
2.14837e-05
2.14892e-05
2.1495e-05
2.15012e-05
2.15074e-05
2.15135e-05
2.15194e-05
2.1525e-05
2.15304e-05
2.15356e-05
2.15404e-05
2.15447e-05
2.15492e-05
2.15544e-05
2.15607e-05
2.15679e-05
2.15758e-05
2.15842e-05
2.15929e-05
2.16016e-05
2.161e-05
2.16182e-05
2.16265e-05
2.16353e-05
2.1645e-05
2.16559e-05
2.16678e-05
2.16809e-05
2.16953e-05
2.18348e-05
2.184e-05
2.18448e-05
2.18494e-05
2.18538e-05
2.18581e-05
2.18624e-05
2.18667e-05
2.18713e-05
2.18761e-05
2.18815e-05
2.18875e-05
2.18938e-05
2.19002e-05
2.19064e-05
2.19123e-05
2.1918e-05
2.19233e-05
2.19283e-05
2.19327e-05
2.19369e-05
2.19413e-05
2.19465e-05
2.19529e-05
2.19603e-05
2.19684e-05
2.19771e-05
2.1986e-05
2.19948e-05
2.20035e-05
2.2012e-05
2.20208e-05
2.20301e-05
2.20402e-05
2.20513e-05
2.20635e-05
2.20771e-05
2.2092e-05
2.18349e-05
2.18407e-05
2.18459e-05
2.18507e-05
2.18552e-05
2.18596e-05
2.18638e-05
2.1868e-05
2.18723e-05
2.18769e-05
2.18822e-05
2.18881e-05
2.18943e-05
2.19005e-05
2.19064e-05
2.1912e-05
2.19174e-05
2.19225e-05
2.19272e-05
2.19314e-05
2.19354e-05
2.19398e-05
2.1945e-05
2.19513e-05
2.19586e-05
2.19666e-05
2.19751e-05
2.19838e-05
2.19925e-05
2.20012e-05
2.20099e-05
2.20189e-05
2.20285e-05
2.20387e-05
2.20497e-05
2.20618e-05
2.20753e-05
2.20902e-05
2.14503e-05
2.14557e-05
2.14606e-05
2.14651e-05
2.14693e-05
2.14734e-05
2.14774e-05
2.14815e-05
2.14859e-05
2.14911e-05
2.14968e-05
2.15027e-05
2.15084e-05
2.15137e-05
2.15187e-05
2.15235e-05
2.15281e-05
2.15326e-05
2.15367e-05
2.15408e-05
2.15451e-05
2.15502e-05
2.15563e-05
2.15632e-05
2.15708e-05
2.15789e-05
2.15872e-05
2.15955e-05
2.1604e-05
2.16127e-05
2.16218e-05
2.16312e-05
2.16412e-05
2.1652e-05
2.16637e-05
2.16766e-05
2.16911e-05
2.04455e-05
2.04509e-05
2.04556e-05
2.04597e-05
2.04636e-05
2.04673e-05
2.04711e-05
2.0475e-05
2.04793e-05
2.04842e-05
2.04896e-05
2.04949e-05
2.04998e-05
2.05043e-05
2.05084e-05
2.05125e-05
2.05166e-05
2.05207e-05
2.05247e-05
2.05287e-05
2.0533e-05
2.05379e-05
2.05435e-05
2.05498e-05
2.05567e-05
2.05641e-05
2.05717e-05
2.05795e-05
2.05875e-05
2.05958e-05
2.06044e-05
2.06135e-05
2.0623e-05
2.0633e-05
2.06439e-05
2.06559e-05
2.06692e-05
1.83421e-05
1.8347e-05
1.8351e-05
1.83544e-05
1.83576e-05
1.83608e-05
1.83642e-05
1.83678e-05
1.83717e-05
1.83761e-05
1.83807e-05
1.83852e-05
1.83893e-05
1.83928e-05
1.83961e-05
1.83993e-05
1.84027e-05
1.84062e-05
1.84098e-05
1.84136e-05
1.84177e-05
1.84222e-05
1.84272e-05
1.84326e-05
1.84386e-05
1.84449e-05
1.84516e-05
1.84585e-05
1.84655e-05
1.84729e-05
1.84806e-05
1.84886e-05
1.84971e-05
1.85059e-05
1.85154e-05
1.85257e-05
1.85371e-05
1.41984e-05
1.42019e-05
1.42046e-05
1.42068e-05
1.42089e-05
1.42112e-05
1.42137e-05
1.42164e-05
1.42194e-05
1.42227e-05
1.42261e-05
1.42294e-05
1.42324e-05
1.4235e-05
1.42373e-05
1.42396e-05
1.4242e-05
1.42446e-05
1.42474e-05
1.42505e-05
1.42539e-05
1.42575e-05
1.42614e-05
1.42655e-05
1.427e-05
1.42748e-05
1.42799e-05
1.42851e-05
1.42906e-05
1.42962e-05
1.43021e-05
1.43083e-05
1.43147e-05
1.43215e-05
1.43285e-05
1.43362e-05
1.43445e-05
6.19227e-06
6.19282e-06
6.19343e-06
6.1941e-06
6.19486e-06
6.19574e-06
6.19677e-06
6.19795e-06
6.19931e-06
6.20086e-06
6.20262e-06
6.20457e-06
6.20669e-06
6.209e-06
6.21148e-06
6.21416e-06
6.21707e-06
6.22023e-06
6.22368e-06
6.22742e-06
6.2315e-06
6.23591e-06
6.24069e-06
6.24586e-06
6.25145e-06
6.2575e-06
6.26405e-06
6.27112e-06
6.27873e-06
6.28691e-06
6.2957e-06
6.30516e-06
6.31531e-06
6.32621e-06
6.33789e-06
6.35043e-06
6.36391e-06
6.6929e-06
6.69317e-06
6.69353e-06
6.69397e-06
6.69451e-06
6.69515e-06
6.69591e-06
6.69683e-06
6.69794e-06
6.69924e-06
6.70073e-06
6.7024e-06
6.70424e-06
6.70625e-06
6.70843e-06
6.7108e-06
6.71336e-06
6.71614e-06
6.71918e-06
6.72249e-06
6.72606e-06
6.72989e-06
6.73401e-06
6.73847e-06
6.74331e-06
6.74856e-06
6.75426e-06
6.76042e-06
6.76708e-06
6.77423e-06
6.7819e-06
6.79008e-06
6.79882e-06
6.80818e-06
6.81822e-06
6.82902e-06
6.84062e-06
6.85307e-06
2.29847e-05
2.29882e-05
2.29914e-05
2.29946e-05
2.29978e-05
2.30012e-05
2.30051e-05
2.301e-05
2.30159e-05
2.30226e-05
2.30296e-05
2.30366e-05
2.30437e-05
2.30509e-05
2.3058e-05
2.30651e-05
2.30724e-05
2.308e-05
2.30882e-05
2.30968e-05
2.31057e-05
2.31146e-05
2.3124e-05
2.3134e-05
2.3145e-05
2.3157e-05
2.31698e-05
2.31836e-05
2.31981e-05
2.32132e-05
2.32287e-05
2.32444e-05
2.32608e-05
2.32782e-05
2.32971e-05
2.33178e-05
2.33402e-05
2.33645e-05
3.24618e-05
3.24681e-05
3.24742e-05
3.24802e-05
3.24864e-05
3.24928e-05
3.25e-05
3.25082e-05
3.25176e-05
3.25281e-05
3.25393e-05
3.25509e-05
3.25629e-05
3.25753e-05
3.25878e-05
3.26005e-05
3.26135e-05
3.26271e-05
3.26415e-05
3.26566e-05
3.26719e-05
3.26878e-05
3.27046e-05
3.27229e-05
3.2743e-05
3.27648e-05
3.27883e-05
3.28134e-05
3.28399e-05
3.28675e-05
3.28961e-05
3.29258e-05
3.29572e-05
3.2991e-05
3.30276e-05
3.30675e-05
3.31106e-05
3.31572e-05
3.76098e-05
3.76181e-05
3.76263e-05
3.76344e-05
3.76426e-05
3.7651e-05
3.76602e-05
3.76703e-05
3.76815e-05
3.76938e-05
3.7707e-05
3.77211e-05
3.77359e-05
3.77514e-05
3.77672e-05
3.77831e-05
3.77995e-05
3.78164e-05
3.7834e-05
3.7852e-05
3.78703e-05
3.78894e-05
3.791e-05
3.79328e-05
3.7958e-05
3.79854e-05
3.80149e-05
3.80463e-05
3.80794e-05
3.81139e-05
3.81496e-05
3.8187e-05
3.82267e-05
3.82697e-05
3.83165e-05
3.83672e-05
3.84222e-05
3.84816e-05
4.02044e-05
4.02143e-05
4.02238e-05
4.02332e-05
4.02428e-05
4.02526e-05
4.02628e-05
4.02738e-05
4.02857e-05
4.02987e-05
4.03128e-05
4.03281e-05
4.03445e-05
4.03617e-05
4.03793e-05
4.03971e-05
4.04152e-05
4.04338e-05
4.04527e-05
4.04718e-05
4.04912e-05
4.05117e-05
4.05341e-05
4.05593e-05
4.05873e-05
4.06179e-05
4.06508e-05
4.06857e-05
4.07224e-05
4.07605e-05
4.08001e-05
4.08418e-05
4.08863e-05
4.09344e-05
4.09867e-05
4.10435e-05
4.1105e-05
4.11716e-05
4.12538e-05
4.12648e-05
4.12753e-05
4.12857e-05
4.1296e-05
4.13065e-05
4.13172e-05
4.13283e-05
4.13402e-05
4.13532e-05
4.13676e-05
4.13834e-05
4.14004e-05
4.14181e-05
4.14363e-05
4.14548e-05
4.14735e-05
4.14925e-05
4.15116e-05
4.15308e-05
4.15504e-05
4.15713e-05
4.15946e-05
4.16207e-05
4.16499e-05
4.16818e-05
4.17161e-05
4.17525e-05
4.17906e-05
4.18303e-05
4.18718e-05
4.19157e-05
4.19625e-05
4.20131e-05
4.20678e-05
4.21272e-05
4.21916e-05
4.22615e-05
4.12537e-05
4.12657e-05
4.12769e-05
4.12878e-05
4.12984e-05
4.13089e-05
4.13196e-05
4.13306e-05
4.13421e-05
4.13548e-05
4.13689e-05
4.13846e-05
4.14014e-05
4.14189e-05
4.14366e-05
4.14545e-05
4.14727e-05
4.14911e-05
4.15098e-05
4.15286e-05
4.1548e-05
4.15688e-05
4.1592e-05
4.1618e-05
4.1647e-05
4.16787e-05
4.17128e-05
4.17489e-05
4.17868e-05
4.18265e-05
4.18682e-05
4.19125e-05
4.19598e-05
4.20105e-05
4.20652e-05
4.21244e-05
4.21888e-05
4.22588e-05
4.02167e-05
4.02282e-05
4.02389e-05
4.02492e-05
4.02594e-05
4.02695e-05
4.028e-05
4.02909e-05
4.0303e-05
4.03166e-05
4.03317e-05
4.03476e-05
4.03638e-05
4.038e-05
4.03964e-05
4.04132e-05
4.04304e-05
4.0448e-05
4.0466e-05
4.04847e-05
4.05048e-05
4.05271e-05
4.05519e-05
4.05794e-05
4.06095e-05
4.06419e-05
4.06762e-05
4.07123e-05
4.07504e-05
4.07907e-05
4.08335e-05
4.08792e-05
4.0928e-05
4.09804e-05
4.10371e-05
4.10987e-05
4.11658e-05
3.76214e-05
3.76324e-05
3.76422e-05
3.76514e-05
3.76604e-05
3.76696e-05
3.7679e-05
3.76891e-05
3.77002e-05
3.77127e-05
3.77263e-05
3.77404e-05
3.77545e-05
3.77685e-05
3.77825e-05
3.77969e-05
3.78119e-05
3.78276e-05
3.78439e-05
3.7861e-05
3.78795e-05
3.78998e-05
3.79222e-05
3.79468e-05
3.79736e-05
3.80025e-05
3.80333e-05
3.80658e-05
3.81002e-05
3.81367e-05
3.81755e-05
3.82169e-05
3.8261e-05
3.83082e-05
3.83591e-05
3.84144e-05
3.84746e-05
3.24713e-05
3.24804e-05
3.24883e-05
3.24954e-05
3.25024e-05
3.25097e-05
3.25174e-05
3.25257e-05
3.2535e-05
3.25453e-05
3.25564e-05
3.25677e-05
3.25788e-05
3.25896e-05
3.26003e-05
3.26113e-05
3.26229e-05
3.26353e-05
3.26485e-05
3.26625e-05
3.26777e-05
3.26943e-05
3.27123e-05
3.27319e-05
3.27532e-05
3.27762e-05
3.28008e-05
3.28268e-05
3.28543e-05
3.28836e-05
3.29147e-05
3.29478e-05
3.29831e-05
3.30207e-05
3.30611e-05
3.31048e-05
3.31524e-05
2.29901e-05
2.29959e-05
2.30004e-05
2.30042e-05
2.3008e-05
2.3012e-05
2.30166e-05
2.30217e-05
2.30273e-05
2.30336e-05
2.30403e-05
2.3047e-05
2.30534e-05
2.30595e-05
2.30653e-05
2.30712e-05
2.30774e-05
2.30842e-05
2.30915e-05
2.30994e-05
2.31081e-05
2.31175e-05
2.31276e-05
2.31384e-05
2.31501e-05
2.31627e-05
2.31762e-05
2.31905e-05
2.32055e-05
2.32214e-05
2.32381e-05
2.32559e-05
2.32748e-05
2.32948e-05
2.33162e-05
2.33392e-05
2.33644e-05
6.69293e-06
6.69346e-06
6.69403e-06
6.69467e-06
6.69539e-06
6.69622e-06
6.6972e-06
6.69833e-06
6.69963e-06
6.70112e-06
6.7028e-06
6.70466e-06
6.70667e-06
6.70883e-06
6.71116e-06
6.71366e-06
6.71637e-06
6.71932e-06
6.72254e-06
6.72604e-06
6.72985e-06
6.73398e-06
6.73845e-06
6.74329e-06
6.74851e-06
6.75418e-06
6.7603e-06
6.7669e-06
6.77401e-06
6.78165e-06
6.78986e-06
6.79869e-06
6.80818e-06
6.81835e-06
6.82927e-06
6.841e-06
6.85362e-06
6.97298e-06
6.97323e-06
6.97355e-06
6.97395e-06
6.97444e-06
6.97504e-06
6.97576e-06
6.97663e-06
6.97767e-06
6.97892e-06
6.98036e-06
6.98197e-06
6.98374e-06
6.98567e-06
6.98776e-06
6.99001e-06
6.99245e-06
6.99511e-06
6.998e-06
7.00116e-06
7.00456e-06
7.0082e-06
7.01212e-06
7.01635e-06
7.02095e-06
7.02594e-06
7.03136e-06
7.03724e-06
7.04358e-06
7.0504e-06
7.0577e-06
7.0655e-06
7.07383e-06
7.08275e-06
7.09232e-06
7.10263e-06
7.1137e-06
7.12561e-06
2.89736e-05
2.8977e-05
2.898e-05
2.8983e-05
2.8986e-05
2.89894e-05
2.89935e-05
2.89989e-05
2.90059e-05
2.90136e-05
2.90217e-05
2.90296e-05
2.90375e-05
2.90454e-05
2.90531e-05
2.90609e-05
2.90688e-05
2.90771e-05
2.9086e-05
2.90953e-05
2.91049e-05
2.91145e-05
2.91246e-05
2.91353e-05
2.91471e-05
2.91599e-05
2.91739e-05
2.91888e-05
2.92046e-05
2.92209e-05
2.92375e-05
2.9254e-05
2.9271e-05
2.92891e-05
2.93087e-05
2.93302e-05
2.93537e-05
2.9379e-05
4.33393e-05
4.33467e-05
4.33539e-05
4.33611e-05
4.33685e-05
4.33765e-05
4.33854e-05
4.33958e-05
4.34078e-05
4.34211e-05
4.34354e-05
4.34503e-05
4.34657e-05
4.34815e-05
4.34977e-05
4.35142e-05
4.35312e-05
4.35492e-05
4.35682e-05
4.35881e-05
4.36087e-05
4.36301e-05
4.36528e-05
4.36774e-05
4.37043e-05
4.37336e-05
4.37653e-05
4.37991e-05
4.38351e-05
4.38729e-05
4.39122e-05
4.39532e-05
4.39966e-05
4.40431e-05
4.40935e-05
4.41482e-05
4.42075e-05
4.42717e-05
5.16343e-05
5.16449e-05
5.16553e-05
5.16657e-05
5.16764e-05
5.16877e-05
5.16999e-05
5.17134e-05
5.17284e-05
5.17449e-05
5.17627e-05
5.17817e-05
5.18017e-05
5.18227e-05
5.18443e-05
5.18664e-05
5.18893e-05
5.19132e-05
5.19382e-05
5.19641e-05
5.19909e-05
5.20189e-05
5.20491e-05
5.20822e-05
5.21186e-05
5.21583e-05
5.2201e-05
5.22467e-05
5.22951e-05
5.2346e-05
5.23994e-05
5.24556e-05
5.25155e-05
5.258e-05
5.265e-05
5.27258e-05
5.2808e-05
5.28968e-05
5.60004e-05
5.60134e-05
5.60261e-05
5.60387e-05
5.60516e-05
5.6065e-05
5.60791e-05
5.60943e-05
5.61108e-05
5.61288e-05
5.61484e-05
5.61696e-05
5.61923e-05
5.62161e-05
5.62409e-05
5.62663e-05
5.62925e-05
5.63196e-05
5.63476e-05
5.63763e-05
5.6406e-05
5.64375e-05
5.64718e-05
5.65097e-05
5.65515e-05
5.6597e-05
5.66462e-05
5.66987e-05
5.67542e-05
5.68126e-05
5.6874e-05
5.69389e-05
5.70085e-05
5.70835e-05
5.71647e-05
5.72528e-05
5.73482e-05
5.74515e-05
5.7822e-05
5.78368e-05
5.78509e-05
5.7865e-05
5.78791e-05
5.78936e-05
5.79085e-05
5.79243e-05
5.79412e-05
5.79595e-05
5.79797e-05
5.80018e-05
5.80256e-05
5.80506e-05
5.80765e-05
5.81032e-05
5.81306e-05
5.81588e-05
5.81877e-05
5.82173e-05
5.82481e-05
5.82809e-05
5.83169e-05
5.83569e-05
5.8401e-05
5.84492e-05
5.85012e-05
5.85566e-05
5.86152e-05
5.86769e-05
5.87421e-05
5.88113e-05
5.88855e-05
5.89655e-05
5.90519e-05
5.91455e-05
5.9247e-05
5.93569e-05
5.78218e-05
5.78376e-05
5.78527e-05
5.78673e-05
5.78819e-05
5.78965e-05
5.79114e-05
5.7927e-05
5.79435e-05
5.79615e-05
5.79814e-05
5.80033e-05
5.80269e-05
5.80515e-05
5.80769e-05
5.81029e-05
5.81297e-05
5.81573e-05
5.81857e-05
5.82149e-05
5.82453e-05
5.8278e-05
5.83139e-05
5.83537e-05
5.83976e-05
5.84456e-05
5.84973e-05
5.85524e-05
5.86108e-05
5.86725e-05
5.87379e-05
5.88076e-05
5.88822e-05
5.89624e-05
5.90489e-05
5.91425e-05
5.9244e-05
5.93541e-05
5.60158e-05
5.60309e-05
5.60452e-05
5.60591e-05
5.6073e-05
5.60871e-05
5.61017e-05
5.61172e-05
5.61342e-05
5.61531e-05
5.61739e-05
5.61959e-05
5.62187e-05
5.6242e-05
5.62657e-05
5.62903e-05
5.63158e-05
5.63422e-05
5.63696e-05
5.63984e-05
5.64294e-05
5.64634e-05
5.6501e-05
5.65423e-05
5.65872e-05
5.66358e-05
5.66876e-05
5.67426e-05
5.68009e-05
5.6863e-05
5.69292e-05
5.7e-05
5.7076e-05
5.71577e-05
5.7246e-05
5.73418e-05
5.7446e-05
5.16481e-05
5.1662e-05
5.16748e-05
5.16869e-05
5.16988e-05
5.17111e-05
5.17239e-05
5.17376e-05
5.17528e-05
5.17696e-05
5.17879e-05
5.1807e-05
5.18265e-05
5.18461e-05
5.1866e-05
5.18866e-05
5.19082e-05
5.1931e-05
5.19549e-05
5.19802e-05
5.20075e-05
5.20374e-05
5.20701e-05
5.21058e-05
5.21447e-05
5.21867e-05
5.22316e-05
5.22794e-05
5.23302e-05
5.23844e-05
5.24422e-05
5.25039e-05
5.257e-05
5.2641e-05
5.27175e-05
5.28005e-05
5.28908e-05
4.33499e-05
4.33609e-05
4.33705e-05
4.33793e-05
4.3388e-05
4.33971e-05
4.34068e-05
4.34175e-05
4.34294e-05
4.34425e-05
4.34566e-05
4.34711e-05
4.34856e-05
4.34999e-05
4.35142e-05
4.3529e-05
4.35445e-05
4.35611e-05
4.35789e-05
4.3598e-05
4.36187e-05
4.36411e-05
4.36655e-05
4.36919e-05
4.37206e-05
4.37516e-05
4.37848e-05
4.38202e-05
4.38578e-05
4.38977e-05
4.39404e-05
4.39858e-05
4.40344e-05
4.40863e-05
4.41421e-05
4.42026e-05
4.42685e-05
2.89791e-05
2.89854e-05
2.89902e-05
2.89941e-05
2.89979e-05
2.90023e-05
2.90073e-05
2.9013e-05
2.90193e-05
2.90263e-05
2.90336e-05
2.9041e-05
2.90481e-05
2.90547e-05
2.90611e-05
2.90674e-05
2.9074e-05
2.90812e-05
2.90891e-05
2.90977e-05
2.91071e-05
2.91172e-05
2.91281e-05
2.91397e-05
2.91522e-05
2.91658e-05
2.91803e-05
2.91958e-05
2.92119e-05
2.92289e-05
2.92467e-05
2.92656e-05
2.92855e-05
2.93067e-05
2.93293e-05
2.93539e-05
2.9381e-05
6.97298e-06
6.97348e-06
6.97402e-06
6.97461e-06
6.97529e-06
6.97607e-06
6.97699e-06
6.97807e-06
6.97932e-06
6.98076e-06
6.98237e-06
6.98416e-06
6.98608e-06
6.98814e-06
6.99034e-06
6.9927e-06
6.99527e-06
6.99806e-06
7.00112e-06
7.00445e-06
7.00809e-06
7.01202e-06
7.01628e-06
7.02088e-06
7.02585e-06
7.03124e-06
7.03708e-06
7.04336e-06
7.05013e-06
7.05742e-06
7.06525e-06
7.07367e-06
7.08272e-06
7.09242e-06
7.10285e-06
7.11406e-06
7.12614e-06
7.14373e-06
7.14394e-06
7.14421e-06
7.14457e-06
7.14502e-06
7.14557e-06
7.14625e-06
7.14707e-06
7.14807e-06
7.14923e-06
7.15059e-06
7.15213e-06
7.15382e-06
7.15566e-06
7.15765e-06
7.15978e-06
7.1621e-06
7.16462e-06
7.16737e-06
7.17037e-06
7.17361e-06
7.17707e-06
7.18079e-06
7.18481e-06
7.18918e-06
7.19394e-06
7.19911e-06
7.20472e-06
7.21078e-06
7.2173e-06
7.2243e-06
7.2318e-06
7.23982e-06
7.24842e-06
7.25764e-06
7.26756e-06
7.27822e-06
7.28969e-06
3.31984e-05
3.32009e-05
3.32028e-05
3.32047e-05
3.32069e-05
3.32096e-05
3.32133e-05
3.32185e-05
3.32254e-05
3.32336e-05
3.32418e-05
3.32495e-05
3.32568e-05
3.32639e-05
3.32708e-05
3.32776e-05
3.32844e-05
3.32916e-05
3.32993e-05
3.33074e-05
3.33156e-05
3.33237e-05
3.3332e-05
3.33409e-05
3.33507e-05
3.33614e-05
3.33732e-05
3.33858e-05
3.33991e-05
3.34127e-05
3.34255e-05
3.34376e-05
3.34494e-05
3.34616e-05
3.34751e-05
3.34902e-05
3.3507e-05
3.35256e-05
5.17104e-05
5.17175e-05
5.17244e-05
5.17314e-05
5.17389e-05
5.1747e-05
5.17562e-05
5.1767e-05
5.17797e-05
5.17938e-05
5.18089e-05
5.18245e-05
5.18406e-05
5.1857e-05
5.18737e-05
5.18907e-05
5.19084e-05
5.19269e-05
5.19467e-05
5.19674e-05
5.19889e-05
5.20112e-05
5.20348e-05
5.20604e-05
5.20884e-05
5.21189e-05
5.21519e-05
5.21874e-05
5.2225e-05
5.22645e-05
5.23056e-05
5.23483e-05
5.23934e-05
5.24415e-05
5.24936e-05
5.25502e-05
5.26117e-05
5.26784e-05
6.29726e-05
6.29839e-05
6.29949e-05
6.3006e-05
6.30175e-05
6.30297e-05
6.3043e-05
6.30578e-05
6.30743e-05
6.30925e-05
6.3112e-05
6.31327e-05
6.31546e-05
6.31774e-05
6.3201e-05
6.32252e-05
6.32504e-05
6.32768e-05
6.33045e-05
6.33334e-05
6.33634e-05
6.3395e-05
6.34289e-05
6.34659e-05
6.35065e-05
6.35506e-05
6.35983e-05
6.36493e-05
6.37036e-05
6.37608e-05
6.3821e-05
6.38845e-05
6.39522e-05
6.4025e-05
6.41038e-05
6.41893e-05
6.42818e-05
6.43819e-05
6.91306e-05
6.91449e-05
6.91589e-05
6.91729e-05
6.91873e-05
6.92022e-05
6.92181e-05
6.92352e-05
6.92538e-05
6.92741e-05
6.92961e-05
6.93198e-05
6.93451e-05
6.93717e-05
6.93994e-05
6.9428e-05
6.94577e-05
6.94886e-05
6.95207e-05
6.9554e-05
6.95887e-05
6.96254e-05
6.96653e-05
6.9709e-05
6.97571e-05
6.98094e-05
6.98659e-05
6.99264e-05
6.99906e-05
7.00585e-05
7.01301e-05
7.02062e-05
7.02877e-05
7.03755e-05
7.04705e-05
7.05734e-05
7.06849e-05
7.08055e-05
7.17701e-05
7.17864e-05
7.18023e-05
7.18181e-05
7.18341e-05
7.18505e-05
7.18675e-05
7.18855e-05
7.19048e-05
7.19258e-05
7.19487e-05
7.19737e-05
7.20005e-05
7.20287e-05
7.20581e-05
7.20885e-05
7.212e-05
7.21526e-05
7.21863e-05
7.22212e-05
7.22577e-05
7.22966e-05
7.23391e-05
7.23859e-05
7.24374e-05
7.24934e-05
7.25539e-05
7.26186e-05
7.26874e-05
7.27602e-05
7.28373e-05
7.29196e-05
7.30077e-05
7.31028e-05
7.32055e-05
7.33166e-05
7.34369e-05
7.35673e-05
7.17697e-05
7.17872e-05
7.18041e-05
7.18205e-05
7.18369e-05
7.18534e-05
7.18705e-05
7.18883e-05
7.19073e-05
7.19279e-05
7.19505e-05
7.19753e-05
7.20018e-05
7.20296e-05
7.20585e-05
7.20883e-05
7.21192e-05
7.21512e-05
7.21843e-05
7.22187e-05
7.22549e-05
7.22937e-05
7.2336e-05
7.23827e-05
7.24339e-05
7.24897e-05
7.255e-05
7.26144e-05
7.26829e-05
7.27557e-05
7.28331e-05
7.29157e-05
7.30043e-05
7.30996e-05
7.32025e-05
7.33137e-05
7.34342e-05
7.3565e-05
6.91472e-05
6.91638e-05
6.91797e-05
6.91952e-05
6.92107e-05
6.92265e-05
6.92431e-05
6.92607e-05
6.92799e-05
6.93011e-05
6.93242e-05
6.93488e-05
6.93744e-05
6.94006e-05
6.94276e-05
6.94556e-05
6.94848e-05
6.95153e-05
6.95471e-05
6.95808e-05
6.96171e-05
6.96566e-05
6.97e-05
6.97475e-05
6.97992e-05
6.9855e-05
6.99148e-05
6.99785e-05
7.00463e-05
7.01186e-05
7.01959e-05
7.02787e-05
7.03677e-05
7.04635e-05
7.0567e-05
7.06792e-05
7.08012e-05
6.29871e-05
6.3002e-05
6.30157e-05
6.30287e-05
6.30417e-05
6.3055e-05
6.30691e-05
6.30842e-05
6.31009e-05
6.31192e-05
6.31391e-05
6.31599e-05
6.31812e-05
6.32029e-05
6.32249e-05
6.32478e-05
6.32718e-05
6.32971e-05
6.33239e-05
6.33525e-05
6.33833e-05
6.34169e-05
6.34534e-05
6.34933e-05
6.35366e-05
6.35834e-05
6.36335e-05
6.36871e-05
6.37442e-05
6.38051e-05
6.38703e-05
6.394e-05
6.40147e-05
6.40949e-05
6.41815e-05
6.42755e-05
6.43777e-05
5.1721e-05
5.17322e-05
5.1742e-05
5.17509e-05
5.17597e-05
5.1769e-05
5.17791e-05
5.17903e-05
5.18026e-05
5.18162e-05
5.18308e-05
5.18459e-05
5.18609e-05
5.18758e-05
5.18907e-05
5.1906e-05
5.19221e-05
5.19392e-05
5.19578e-05
5.19778e-05
5.19995e-05
5.20229e-05
5.20482e-05
5.20756e-05
5.21053e-05
5.21374e-05
5.2172e-05
5.22089e-05
5.22481e-05
5.22898e-05
5.23343e-05
5.23817e-05
5.24323e-05
5.24865e-05
5.25448e-05
5.26081e-05
5.26773e-05
3.32038e-05
3.32097e-05
3.32139e-05
3.32171e-05
3.32201e-05
3.32238e-05
3.32285e-05
3.3234e-05
3.324e-05
3.32465e-05
3.32534e-05
3.32601e-05
3.32664e-05
3.32722e-05
3.32775e-05
3.32827e-05
3.32881e-05
3.3294e-05
3.33005e-05
3.33078e-05
3.33157e-05
3.33242e-05
3.33331e-05
3.33426e-05
3.33527e-05
3.33638e-05
3.33758e-05
3.33885e-05
3.34017e-05
3.3415e-05
3.34289e-05
3.34433e-05
3.34584e-05
3.34743e-05
3.34913e-05
3.35103e-05
3.35318e-05
7.1437e-06
7.14416e-06
7.14465e-06
7.1452e-06
7.14583e-06
7.14657e-06
7.14743e-06
7.14843e-06
7.14961e-06
7.15098e-06
7.15252e-06
7.15422e-06
7.15605e-06
7.15799e-06
7.16007e-06
7.1623e-06
7.16472e-06
7.16737e-06
7.17027e-06
7.17344e-06
7.1769e-06
7.18065e-06
7.18471e-06
7.18908e-06
7.19382e-06
7.19895e-06
7.2045e-06
7.21049e-06
7.21696e-06
7.22394e-06
7.23146e-06
7.23954e-06
7.24823e-06
7.25756e-06
7.26758e-06
7.27836e-06
7.28996e-06
7.25182e-06
7.25198e-06
7.2522e-06
7.25251e-06
7.25291e-06
7.25342e-06
7.25406e-06
7.25484e-06
7.25578e-06
7.2569e-06
7.25818e-06
7.25964e-06
7.26126e-06
7.26301e-06
7.26489e-06
7.26691e-06
7.2691e-06
7.27149e-06
7.27411e-06
7.27697e-06
7.28005e-06
7.28336e-06
7.2869e-06
7.29073e-06
7.29492e-06
7.29949e-06
7.30447e-06
7.30987e-06
7.31571e-06
7.322e-06
7.32875e-06
7.33596e-06
7.34367e-06
7.35192e-06
7.36078e-06
7.37031e-06
7.38056e-06
7.39159e-06
3.62101e-05
3.62112e-05
3.62117e-05
3.62124e-05
3.62136e-05
3.62155e-05
3.62185e-05
3.62232e-05
3.62298e-05
3.62376e-05
3.62457e-05
3.62527e-05
3.6259e-05
3.62647e-05
3.62702e-05
3.62753e-05
3.62805e-05
3.6286e-05
3.62918e-05
3.62979e-05
3.63041e-05
3.631e-05
3.63158e-05
3.63219e-05
3.63285e-05
3.63361e-05
3.63446e-05
3.63537e-05
3.63632e-05
3.63723e-05
3.63803e-05
3.6387e-05
3.63927e-05
3.63981e-05
3.64043e-05
3.64117e-05
3.64206e-05
3.64308e-05
5.81111e-05
5.81172e-05
5.8123e-05
5.8129e-05
5.81356e-05
5.8143e-05
5.81517e-05
5.81621e-05
5.81743e-05
5.81881e-05
5.82028e-05
5.82177e-05
5.82328e-05
5.8248e-05
5.82634e-05
5.82792e-05
5.82954e-05
5.83126e-05
5.83309e-05
5.83501e-05
5.83701e-05
5.83908e-05
5.84126e-05
5.84362e-05
5.84621e-05
5.84904e-05
5.85211e-05
5.85542e-05
5.85892e-05
5.86259e-05
5.86639e-05
5.87031e-05
5.87442e-05
5.87879e-05
5.88352e-05
5.88868e-05
5.89431e-05
5.90043e-05
7.20261e-05
7.20367e-05
7.20471e-05
7.20578e-05
7.20689e-05
7.20809e-05
7.2094e-05
7.21086e-05
7.2125e-05
7.21431e-05
7.21625e-05
7.21829e-05
7.22043e-05
7.22266e-05
7.22495e-05
7.22732e-05
7.22979e-05
7.23238e-05
7.23511e-05
7.23796e-05
7.24094e-05
7.24408e-05
7.24744e-05
7.2511e-05
7.25511e-05
7.25947e-05
7.26418e-05
7.26924e-05
7.27462e-05
7.28031e-05
7.28629e-05
7.29261e-05
7.29933e-05
7.30655e-05
7.31435e-05
7.32282e-05
7.33201e-05
7.34195e-05
7.98893e-05
7.99035e-05
7.99173e-05
7.99313e-05
7.99457e-05
7.99607e-05
7.99768e-05
7.99941e-05
8.00129e-05
8.00335e-05
8.00557e-05
8.00795e-05
8.01048e-05
8.01314e-05
8.01591e-05
8.01878e-05
8.02177e-05
8.02489e-05
8.02815e-05
8.03155e-05
8.03511e-05
8.03889e-05
8.04297e-05
8.04744e-05
8.05233e-05
8.05765e-05
8.06339e-05
8.06955e-05
8.0761e-05
8.08305e-05
8.09041e-05
8.09824e-05
8.10662e-05
8.11565e-05
8.12541e-05
8.13599e-05
8.14744e-05
8.15983e-05
8.33387e-05
8.33551e-05
8.33712e-05
8.33872e-05
8.34034e-05
8.34201e-05