/*--------------------------------*- C++ -*----------------------------------*\
| =========                 |                                                 |
| \\      /  F ield         | OpenFOAM: The Open Source CFD Toolbox           |
|  \\    /   O peration     | Version:  2.3.1                                 |
|   \\  /    A nd           | Web:      www.OpenFOAM.org                      |
|    \\/     M anipulation  |                                                 |
\*---------------------------------------------------------------------------*/
FoamFile
{
    version     2.0;
    format      ascii;
    class       surfaceScalarField;
    location    "15";
    object      phi;
}
// * * * * * * * * * * * * * * * * * * * * * * * * * * * * * * * * * * * * * //

dimensions      [0 3 -1 0 0 0 0];

internalField   nonuniform List<scalar> 
108425
(
7.90123e-07
3.48306e-11
4.74773e-11
7.90239e-07
-7.2043e-11
-4.4127e-11
7.90556e-07
-1.75395e-10
-1.41945e-10
7.91084e-07
-2.72379e-10
-2.5528e-10
7.91832e-07
-3.59693e-10
-3.88487e-10
7.92814e-07
-4.38136e-10
-5.43427e-10
7.94055e-07
-5.16741e-10
-7.24217e-10
7.956e-07
-6.08676e-10
-9.36248e-10
7.97499e-07
-7.21931e-10
-1.17781e-09
7.99793e-07
-8.56831e-10
-1.43658e-09
8.025e-07
-1.0101e-09
-1.6976e-09
8.05633e-07
-1.18003e-09
-1.95248e-09
8.09201e-07
-1.36679e-09
-2.20101e-09
8.13214e-07
-1.5658e-09
-2.44729e-09
8.17677e-07
-1.7665e-09
-2.69694e-09
8.22597e-07
-1.96082e-09
-2.95849e-09
8.27989e-07
-2.14812e-09
-3.24457e-09
8.33889e-07
-2.33191e-09
-3.56811e-09
8.4034e-07
-2.51406e-09
-3.93637e-09
8.47378e-07
-2.69151e-09
-4.34692e-09
8.55029e-07
-2.86148e-09
-4.78958e-09
8.63316e-07
-3.03108e-09
-5.25578e-09
8.7228e-07
-3.21734e-09
-5.7466e-09
8.81985e-07
-3.43504e-09
-6.27035e-09
8.92507e-07
-3.68701e-09
-6.83463e-09
9.03917e-07
-3.96737e-09
-7.44233e-09
9.16279e-07
-4.26964e-09
-8.09289e-09
9.29653e-07
-4.58938e-09
-8.78406e-09
9.44087e-07
-4.92274e-09
-9.51124e-09
9.59618e-07
-5.26458e-09
-1.02666e-08
9.7627e-07
-5.61086e-09
-1.10411e-08
9.94067e-07
-5.96577e-09
-1.18311e-08
1.01305e-06
-6.34216e-09
-1.26426e-08
1.03329e-06
-6.7523e-09
-1.34873e-08
1.05487e-06
-7.20034e-09
-1.43761e-08
1.07786e-06
-7.68174e-09
-1.53131e-08
1.10235e-06
-8.18739e-09
-1.62967e-08
-8.70935e-09
-1.73207e-08
8.57267e-07
6.70466e-11
4.92772e-11
8.57403e-07
-9.68048e-11
-1.11377e-10
8.57761e-07
-2.52611e-10
-2.80454e-10
8.58347e-07
-3.95895e-10
-4.62567e-10
8.59168e-07
-5.2309e-10
-6.57847e-10
8.60234e-07
-6.35505e-10
-8.69166e-10
8.61572e-07
-7.41909e-10
-1.11204e-09
8.63223e-07
-8.5523e-10
-1.40474e-09
8.65234e-07
-9.85873e-10
-1.74714e-09
8.67638e-07
-1.13951e-09
-2.12175e-09
8.70456e-07
-1.3187e-09
-2.50861e-09
8.73699e-07
-1.52509e-09
-2.89854e-09
8.77385e-07
-1.75723e-09
-3.29568e-09
8.81528e-07
-2.00506e-09
-3.70379e-09
8.86135e-07
-2.25291e-09
-4.11982e-09
8.91211e-07
-2.48913e-09
-4.54778e-09
8.96777e-07
-2.70951e-09
-5.00454e-09
9.02868e-07
-2.91405e-09
-5.50909e-09
9.09526e-07
-3.102e-09
-6.07048e-09
9.16785e-07
-3.27098e-09
-6.67959e-09
9.24666e-07
-3.42507e-09
-7.31713e-09
9.33194e-07
-3.5826e-09
-7.97655e-09
9.42419e-07
-3.77025e-09
-8.67209e-09
9.52413e-07
-4.00668e-09
-9.42193e-09
9.63251e-07
-4.2937e-09
-1.02319e-08
9.75005e-07
-4.62217e-09
-1.10989e-08
9.87738e-07
-4.98091e-09
-1.20218e-08
1.00151e-06
-5.35994e-09
-1.30015e-08
1.01637e-06
-5.74998e-09
-1.4036e-08
1.03237e-06
-6.14204e-09
-1.51166e-08
1.04952e-06
-6.53188e-09
-1.62318e-08
1.06786e-06
-6.92673e-09
-1.73833e-08
1.08746e-06
-7.34193e-09
-1.85909e-08
1.10837e-06
-7.78969e-09
-1.98761e-08
1.13069e-06
-8.27191e-09
-2.1251e-08
1.15451e-06
-8.78006e-09
-2.27163e-08
1.17989e-06
-9.29916e-09
-2.42681e-08
-9.81211e-09
-2.59055e-08
8.71068e-07
6.12288e-11
8.79204e-11
8.71218e-07
-1.26368e-10
-1.20899e-10
8.71604e-07
-2.9962e-10
-3.39013e-10
8.72229e-07
-4.55882e-10
-5.64262e-10
8.73094e-07
-5.93196e-10
-7.95184e-10
8.74208e-07
-7.10605e-10
-1.03866e-09
8.75594e-07
-8.11001e-10
-1.31693e-09
8.7729e-07
-9.02034e-10
-1.65009e-09
8.79337e-07
-9.95047e-10
-2.03753e-09
8.81763e-07
-1.10277e-09
-2.46301e-09
8.8459e-07
-1.23565e-09
-2.90921e-09
8.87835e-07
-1.39826e-09
-3.3725e-09
8.91525e-07
-1.58628e-09
-3.86032e-09
8.95676e-07
-1.78677e-09
-4.36932e-09
9.00294e-07
-1.98472e-09
-4.88694e-09
9.05388e-07
-2.16863e-09
-5.41366e-09
9.10975e-07
-2.33097e-09
-5.96609e-09
9.17092e-07
-2.46686e-09
-6.56356e-09
9.23774e-07
-2.57321e-09
-7.21145e-09
9.31047e-07
-2.65176e-09
-7.89201e-09
9.38923e-07
-2.71591e-09
-8.58497e-09
9.47429e-07
-2.79106e-09
-9.29819e-09
9.56627e-07
-2.90394e-09
-1.00643e-08
9.66598e-07
-3.06933e-09
-1.09082e-08
9.77422e-07
-3.28658e-09
-1.18304e-08
9.89166e-07
-3.5459e-09
-1.28211e-08
1.0019e-06
-3.83453e-09
-1.38757e-08
1.01567e-06
-4.13945e-09
-1.49927e-08
1.03053e-06
-4.4489e-09
-1.61671e-08
1.04653e-06
-4.7542e-09
-1.73844e-08
1.06368e-06
-5.05358e-09
-1.86317e-08
1.08203e-06
-5.35377e-09
-1.99207e-08
1.10164e-06
-5.66351e-09
-2.12847e-08
1.12259e-06
-5.9862e-09
-2.27532e-08
1.14497e-06
-6.31752e-09
-2.4339e-08
1.16888e-06
-6.64643e-09
-2.60383e-08
1.19438e-06
-6.95526e-09
-2.78441e-08
-7.21975e-09
-2.97579e-08
8.75333e-07
1.78292e-11
1.16486e-10
8.75502e-07
-1.73746e-10
-1.21901e-10
8.75913e-07
-3.44836e-10
-3.65679e-10
8.76567e-07
-4.95528e-10
-6.14382e-10
8.77467e-07
-6.24022e-10
-8.68924e-10
8.78619e-07
-7.26662e-10
-1.13581e-09
8.80042e-07
-8.01521e-10
-1.43275e-09
8.81767e-07
-8.52311e-10
-1.77491e-09
8.83828e-07
-8.90746e-10
-2.16462e-09
8.86253e-07
-9.34003e-10
-2.59427e-09
8.89069e-07
-9.96827e-10
-3.05514e-09
8.92305e-07
-1.0837e-09
-3.55007e-09
8.9599e-07
-1.18746e-09
-4.08392e-09
9.00144e-07
-1.29577e-09
-4.64449e-09
9.04771e-07
-1.39799e-09
-5.2145e-09
9.0988e-07
-1.48593e-09
-5.79161e-09
9.15489e-07
-1.55233e-09
-6.38761e-09
9.2163e-07
-1.59101e-09
-7.01636e-09
9.28331e-07
-1.59928e-09
-7.67544e-09
9.35606e-07
-1.5831e-09
-8.34327e-09
9.43461e-07
-1.5614e-09
-9.00956e-09
9.5193e-07
-1.5569e-09
-9.70276e-09
9.61084e-07
-1.58792e-09
-1.04701e-08
9.71014e-07
-1.66171e-09
-1.13377e-08
9.81803e-07
-1.7759e-09
-1.23001e-08
9.93522e-07
-1.92297e-09
-1.33421e-08
1.00623e-06
-2.09253e-09
-1.4453e-08
1.01999e-06
-2.2734e-09
-1.56253e-08
1.03485e-06
-2.45669e-09
-1.6847e-08
1.05083e-06
-2.63838e-09
-1.80979e-08
1.06796e-06
-2.81915e-09
-1.93682e-08
1.08629e-06
-3.00004e-09
-2.06819e-08
1.10589e-06
-3.17702e-09
-2.20812e-08
1.12684e-06
-3.34116e-09
-2.35976e-08
1.14924e-06
-3.48178e-09
-2.52418e-08
1.17319e-06
-3.58738e-09
-2.70072e-08
1.19876e-06
-3.64004e-09
-2.88864e-08
-3.61056e-09
-3.08845e-08
8.76766e-07
-2.94209e-11
1.05496e-10
8.76954e-07
-2.12842e-10
-1.48928e-10
8.77385e-07
-3.73365e-10
-4.02832e-10
8.78064e-07
-5.08094e-10
-6.65672e-10
8.78993e-07
-6.14548e-10
-9.39327e-10
8.8018e-07
-6.89536e-10
-1.22409e-09
8.81638e-07
-7.30857e-10
-1.52775e-09
8.83386e-07
-7.40591e-10
-1.86008e-09
8.85453e-07
-7.29029e-10
-2.22904e-09
8.87871e-07
-7.12974e-10
-2.63914e-09
8.90675e-07
-7.06574e-10
-3.09369e-09
8.93902e-07
-7.11701e-10
-3.59882e-09
8.97585e-07
-7.19284e-10
-4.15164e-09
9.01743e-07
-7.19685e-10
-4.73374e-09
9.06381e-07
-7.08497e-10
-5.32762e-09
9.11507e-07
-6.84299e-10
-5.92787e-09
9.17139e-07
-6.45104e-10
-6.53912e-09
9.23303e-07
-5.8828e-10
-7.16685e-09
9.30019e-07
-5.14051e-10
-7.80161e-09
9.37291e-07
-4.29784e-10
-8.42529e-09
9.45124e-07
-3.49639e-10
-9.04478e-09
9.53559e-07
-2.8644e-10
-9.70501e-09
9.62676e-07
-2.46513e-10
-1.04587e-08
9.72573e-07
-2.29874e-10
-1.13281e-08
9.83334e-07
-2.34394e-10
-1.23032e-08
9.95033e-07
-2.57112e-10
-1.3365e-08
1.00773e-06
-2.93171e-10
-1.44976e-08
1.02148e-06
-3.37228e-10
-1.56873e-08
1.03633e-06
-3.87278e-10
-1.69166e-08
1.0523e-06
-4.45409e-10
-1.81649e-08
1.06943e-06
-5.12181e-10
-1.94306e-08
1.08775e-06
-5.79417e-10
-2.07457e-08
1.10735e-06
-6.29448e-10
-2.21512e-08
1.12833e-06
-6.42826e-10
-2.36728e-08
1.15077e-06
-6.04814e-10
-2.53186e-08
1.17477e-06
-5.04199e-10
-2.7085e-08
1.20043e-06
-3.23539e-10
-2.89697e-08
-3.12399e-11
-3.09791e-08
8.77132e-07
-6.51513e-11
7.94458e-11
8.77339e-07
-2.26725e-10
-1.93799e-10
8.77793e-07
-3.65767e-10
-4.61371e-10
8.78498e-07
-4.7356e-10
-7.39053e-10
8.79458e-07
-5.47422e-10
-1.02729e-09
8.80678e-07
-5.87847e-10
-1.32185e-09
8.82166e-07
-5.95426e-10
-1.62355e-09
8.83935e-07
-5.71638e-10
-1.93816e-09
8.86008e-07
-5.23189e-10
-2.27885e-09
8.8842e-07
-4.61842e-10
-2.66334e-09
8.91217e-07
-3.96047e-10
-3.10705e-09
8.94444e-07
-3.23681e-10
-3.61466e-09
8.98133e-07
-2.36036e-10
-4.17235e-09
9.02299e-07
-1.28326e-10
-4.75713e-09
9.06947e-07
-3.82009e-12
-5.35295e-09
9.12086e-07
1.30182e-10
-5.95336e-09
9.17732e-07
2.67386e-10
-6.5591e-09
9.23909e-07
4.0439e-10
-7.16981e-09
9.3063e-07
5.38553e-10
-7.77349e-09
9.37894e-07
6.65834e-10
-8.35939e-09
9.45709e-07
7.82365e-10
-8.94711e-09
9.54123e-07
8.88559e-10
-9.58878e-09
9.63221e-07
9.89485e-10
-1.0334e-08
9.731e-07
1.08986e-09
-1.11988e-08
9.83847e-07
1.1898e-09
-1.21712e-08
9.95535e-07
1.28674e-09
-1.32319e-08
1.00823e-06
1.37883e-09
-1.4362e-08
1.02197e-06
1.46428e-09
-1.5544e-08
1.0368e-06
1.53838e-09
-1.6761e-08
1.05276e-06
1.59547e-09
-1.80003e-08
1.06988e-06
1.63763e-09
-1.92696e-08
1.08822e-06
1.68078e-09
-2.05982e-08
1.10785e-06
1.75068e-09
-2.2014e-08
1.12887e-06
1.87201e-09
-2.35324e-08
1.15137e-06
2.06233e-09
-2.51624e-08
1.17544e-06
2.33486e-09
-2.69104e-08
1.20119e-06
2.70899e-09
-2.87843e-08
3.21875e-09
-3.07912e-08
8.76996e-07
6.70359e-11
8.77223e-07
-2.14301e-10
-2.39963e-10
8.77705e-07
-3.12381e-10
-5.34835e-10
8.78439e-07
-3.78319e-10
-8.29886e-10
8.79429e-07
-4.1074e-10
-1.12623e-09
8.80678e-07
-4.13513e-10
-1.42311e-09
8.82192e-07
-3.89565e-10
-1.72056e-09
8.83981e-07
-3.39421e-10
-2.0212e-09
8.86064e-07
-2.64374e-10
-2.34114e-09
8.88479e-07
-1.67268e-10
-2.70954e-09
8.91281e-07
-4.83991e-11
-3.14995e-09
8.94521e-07
9.67558e-11
-3.66039e-09
8.98226e-07
2.73113e-10
-4.21463e-09
9.02405e-07
4.7798e-10
-4.78536e-09
9.07061e-07
7.00657e-10
-5.35999e-09
9.12202e-07
9.27096e-10
-5.93778e-09
9.17847e-07
1.14494e-09
-6.52287e-09
9.2402e-07
1.34603e-09
-7.11458e-09
9.30733e-07
1.52644e-09
-7.7009e-09
9.37986e-07
1.68671e-09
-8.27426e-09
9.45793e-07
1.8332e-09
-8.8572e-09
9.54203e-07
1.97818e-09
-9.4996e-09
9.633e-07
2.13545e-09
-1.02437e-08
9.73179e-07
2.31266e-09
-1.11012e-08
9.83923e-07
2.50796e-09
-1.20627e-08
9.95607e-07
2.71382e-09
-1.31111e-08
1.00829e-06
2.92197e-09
-1.42267e-08
1.02202e-06
3.12452e-09
-1.53912e-08
1.03684e-06
3.31319e-09
-1.65938e-08
1.05279e-06
3.48288e-09
-1.78339e-08
1.06991e-06
3.63877e-09
-1.91236e-08
1.08827e-06
3.79904e-09
-2.04811e-08
1.10795e-06
3.98976e-09
-2.19172e-08
1.12903e-06
4.23617e-09
-2.34388e-08
1.15159e-06
4.55924e-09
-2.50595e-08
1.17574e-06
4.97759e-09
-2.67974e-08
1.20161e-06
5.51527e-09
-2.86694e-08
6.20663e-09
-3.0686e-08
8.7662e-07
-1.78352e-10
-2.83668e-10
8.77131e-07
-2.14123e-10
-6.09401e-10
8.77894e-07
-2.2484e-10
-9.17117e-10
8.78907e-07
-2.10327e-10
-1.21349e-09
8.80176e-07
-1.74339e-10
-1.50805e-09
8.8171e-07
-1.19279e-10
-1.80395e-09
8.83516e-07
-4.38622e-11
-2.10135e-09
8.85612e-07
5.62652e-11
-2.4166e-09
8.88041e-07
1.87819e-10
-2.78442e-09
8.90864e-07
3.5818e-10
-3.2293e-09
8.94129e-07
5.70975e-10
-3.73965e-09
8.97858e-07
8.22533e-10
-4.27862e-09
9.02052e-07
1.10202e-09
-4.81744e-09
9.06709e-07
1.39341e-09
-5.3503e-09
9.11841e-07
1.68262e-09
-5.88759e-09
9.17471e-07
1.9574e-09
-6.44225e-09
9.23626e-07
2.20844e-09
-7.0175e-09
9.30324e-07
2.43041e-09
-7.60124e-09
9.37568e-07
2.62535e-09
-8.18278e-09
9.45375e-07
2.80535e-09
-8.77964e-09
9.53797e-07
2.99059e-09
-9.43385e-09
9.6291e-07
3.20122e-09
-1.01795e-08
9.72803e-07
3.44779e-09
-1.10273e-08
9.83555e-07
3.7281e-09
-1.19727e-08
9.95241e-07
4.03137e-09
-1.30035e-08
1.00792e-06
4.34426e-09
-1.41015e-08
1.02164e-06
4.65468e-09
-1.52504e-08
1.03645e-06
4.95367e-09
-1.64458e-08
1.05238e-06
5.23867e-09
-1.76946e-08
1.06952e-06
5.51648e-09
-1.90089e-08
1.08791e-06
5.80271e-09
-2.03962e-08
1.10763e-06
6.11885e-09
-2.18555e-08
1.12877e-06
6.48846e-09
-2.33904e-08
1.15141e-06
6.93602e-09
-2.50171e-08
1.17566e-06
7.48682e-09
-2.67601e-08
1.20165e-06
8.16989e-09
-2.86409e-08
9.01936e-09
-3.0672e-08
8.74973e-07
-1.19524e-10
-3.25338e-10
8.75509e-07
-8.33404e-11
-6.66622e-10
8.76294e-07
-3.68872e-11
-9.72665e-10
8.77321e-07
2.15821e-11
-1.25886e-09
8.78599e-07
9.30105e-11
-1.5454e-09
8.80142e-07
1.78015e-10
-1.83995e-09
8.8196e-07
2.79912e-10
-2.14175e-09
8.84073e-07
4.07472e-10
-2.46468e-09
8.86527e-07
5.74244e-10
-2.83997e-09
8.89379e-07
7.90857e-10
-3.28519e-09
8.92675e-07
1.05617e-09
-3.78065e-09
8.96427e-07
1.35651e-09
-4.28656e-09
9.00633e-07
1.67387e-09
-4.7779e-09
9.05291e-07
1.99389e-09
-5.25788e-09
9.10411e-07
2.30753e-09
-5.74532e-09
9.16021e-07
2.60841e-09
-6.26062e-09
9.22152e-07
2.88969e-09
-6.81277e-09
9.28829e-07
3.14452e-09
-7.39119e-09
9.36064e-07
3.37278e-09
-7.98207e-09
9.43878e-07
3.58742e-09
-8.59627e-09
9.52321e-07
3.812e-09
-9.26459e-09
9.61464e-07
4.06976e-09
-1.00109e-08
9.71382e-07
4.37327e-09
-1.08438e-08
9.82152e-07
4.72157e-09
-1.17638e-08
9.93846e-07
5.10348e-09
-1.27662e-08
1.00653e-06
5.50355e-09
-1.38387e-08
1.02024e-06
5.90758e-09
-1.49686e-08
1.03504e-06
6.30643e-09
-1.61535e-08
1.05098e-06
6.69921e-09
-1.7401e-08
1.06813e-06
7.09315e-09
-1.87219e-08
1.08655e-06
7.50064e-09
-2.01205e-08
1.10632e-06
7.93808e-09
-2.15928e-08
1.12753e-06
8.42576e-09
-2.31403e-08
1.15025e-06
8.98858e-09
-2.47758e-08
1.1746e-06
9.65504e-09
-2.65212e-08
1.20072e-06
1.04562e-08
-2.83982e-08
1.14248e-08
-3.04183e-08
8.70514e-07
-4.26535e-11
-3.57603e-10
8.71066e-07
5.09945e-11
-6.86336e-10
8.71861e-07
1.38615e-10
-9.70586e-10
8.72891e-07
2.25521e-10
-1.23355e-09
8.74166e-07
3.18623e-10
-1.50121e-09
8.75706e-07
4.2346e-10
-1.78534e-09
8.77527e-07
5.44664e-10
-2.08586e-09
8.79654e-07
6.91411e-10
-2.41089e-09
8.82131e-07
8.77587e-10
-2.77998e-09
8.8501e-07
1.11202e-09
-3.20013e-09
8.88328e-07
1.38853e-09
-3.65061e-09
8.92096e-07
1.68836e-09
-4.10014e-09
8.96311e-07
1.99236e-09
-4.53292e-09
9.0097e-07
2.28972e-09
-4.95514e-09
9.06085e-07
2.57827e-09
-5.38558e-09
9.1168e-07
2.85944e-09
-5.84661e-09
9.17791e-07
3.1319e-09
-6.35324e-09
9.24448e-07
3.38973e-09
-6.90182e-09
9.31672e-07
3.63065e-09
-7.48225e-09
9.39495e-07
3.86531e-09
-8.10037e-09
9.47965e-07
4.11474e-09
-8.77238e-09
9.57143e-07
4.39895e-09
-9.50754e-09
9.67096e-07
4.72872e-09
-1.03083e-08
9.77891e-07
5.10461e-09
-1.11787e-08
9.896e-07
5.51865e-09
-1.21235e-08
1.00229e-06
5.95781e-09
-1.31399e-08
1.016e-06
6.4088e-09
-1.42206e-08
1.03081e-06
6.8626e-09
-1.53628e-08
1.04676e-06
7.31876e-09
-1.65709e-08
1.06393e-06
7.78481e-09
-1.78554e-08
1.08238e-06
8.27149e-09
-1.92224e-08
1.10219e-06
8.79075e-09
-2.06689e-08
1.12346e-06
9.3571e-09
-2.21933e-08
1.14625e-06
9.98992e-09
-2.37998e-08
1.1707e-06
1.07139e-08
-2.55027e-08
1.19692e-06
1.15573e-08
-2.73205e-08
1.25482e-08
-2.92625e-08
8.56516e-07
1.6674e-11
-3.51616e-10
8.57078e-07
1.1307e-10
-6.24156e-10
8.57876e-07
1.95899e-10
-8.55233e-10
8.58899e-07
2.72388e-10
-1.06978e-09
8.60159e-07
3.51633e-10
-1.293e-09
8.6168e-07
4.4034e-10
-1.53752e-09
8.63486e-07
5.42201e-10
-1.80421e-09
8.6561e-07
6.62698e-10
-2.09463e-09
8.68092e-07
8.10214e-10
-2.41507e-09
8.7098e-07
9.88874e-10
-2.7645e-09
8.74305e-07
1.19194e-09
-3.1285e-09
8.78078e-07
1.40493e-09
-3.49007e-09
8.82298e-07
1.61484e-09
-3.84239e-09
8.86962e-07
1.81589e-09
-4.1901e-09
8.92076e-07
2.00943e-09
-4.54516e-09
8.97661e-07
2.20073e-09
-4.92573e-09
9.03749e-07
2.39307e-09
-5.34944e-09
9.10377e-07
2.58403e-09
-5.82215e-09
9.17578e-07
2.77135e-09
-6.34213e-09
9.25393e-07
2.96117e-09
-6.9111e-09
9.33872e-07
3.16618e-09
-7.53038e-09
9.43069e-07
3.39727e-09
-8.19527e-09
9.5304e-07
3.65963e-09
-8.90172e-09
9.63846e-07
3.95424e-09
-9.65521e-09
9.75553e-07
4.27818e-09
-1.04673e-08
9.8823e-07
4.62455e-09
-1.13438e-08
1.00194e-06
4.98505e-09
-1.2284e-08
1.01673e-06
5.35333e-09
-1.32861e-08
1.03267e-06
5.72909e-09
-1.43516e-08
1.04983e-06
6.11859e-09
-1.5489e-08
1.06828e-06
6.52989e-09
-1.67038e-08
1.08809e-06
6.97e-09
-1.79942e-08
1.10936e-06
7.44583e-09
-1.93559e-08
1.13217e-06
7.96673e-09
-2.07858e-08
1.15662e-06
8.54682e-09
-2.22902e-08
1.18286e-06
9.20433e-09
-2.3882e-08
9.95696e-09
-2.55671e-08
7.89214e-07
-2.7595e-10
7.89768e-07
-4.41154e-10
7.90542e-07
-5.78655e-10
7.91523e-07
-7.07832e-10
7.9272e-07
-8.4615e-10
7.94163e-07
-1.00258e-09
7.95883e-07
-1.1777e-09
7.97915e-07
-1.36941e-09
8.00303e-07
-1.5769e-09
8.0309e-07
-1.79812e-09
8.06309e-07
-2.02735e-09
8.09972e-07
-2.25848e-09
8.14076e-07
-2.48922e-09
8.18614e-07
-2.72192e-09
8.23586e-07
-2.96223e-09
8.29006e-07
-3.21969e-09
8.34906e-07
-3.50641e-09
8.41322e-07
-3.83199e-09
8.48294e-07
-4.20123e-09
8.55869e-07
-4.61311e-09
8.64094e-07
-5.0597e-09
8.73022e-07
-5.53033e-09
8.82701e-07
-6.01941e-09
8.93187e-07
-6.5318e-09
9.04545e-07
-7.07926e-09
9.1684e-07
-7.67132e-09
9.30138e-07
-8.31235e-09
9.44493e-07
-9.00178e-09
9.5996e-07
-9.73792e-09
9.76602e-07
-1.05232e-08
9.9449e-07
-1.13589e-08
1.0137e-06
-1.22423e-08
1.03432e-06
-1.31697e-08
1.05642e-06
-1.41372e-08
1.08012e-06
-1.51461e-08
1.10552e-06
-1.62027e-08
-1.73077e-08
8.92354e-07
2.89725e-11
1.00504e-10
8.92494e-07
-4.40987e-11
-1.40564e-10
8.92858e-07
-1.09915e-10
-3.95796e-10
8.93453e-07
-1.67896e-10
-6.82577e-10
8.94291e-07
-2.16544e-10
-1.00985e-09
8.95387e-07
-2.58326e-10
-1.38113e-09
8.96769e-07
-3.03529e-10
-1.80203e-09
8.98477e-07
-3.6523e-10
-2.27948e-09
9.00558e-07
-4.50141e-10
-2.80913e-09
9.0305e-07
-5.56554e-10
-3.37111e-09
9.05973e-07
-6.79002e-10
-3.94245e-09
9.09345e-07
-8.14063e-10
-4.50987e-09
9.13177e-07
-9.60222e-10
-5.07306e-09
9.17482e-07
-1.11195e-09
-5.63988e-09
9.22266e-07
-1.25988e-09
-6.22176e-09
9.27541e-07
-1.39837e-09
-6.83526e-09
9.33328e-07
-1.52842e-09
-7.50287e-09
9.39661e-07
-1.65414e-09
-8.24673e-09
9.46582e-07
-1.77727e-09
-9.0798e-09
9.54128e-07
-1.89392e-09
-9.99975e-09
9.6233e-07
-1.99908e-09
-1.09922e-08
9.71216e-07
-2.0961e-09
-1.20459e-08
9.80833e-07
-2.19816e-09
-1.31651e-08
9.91246e-07
-2.31824e-09
-1.43651e-08
1.00253e-06
-2.46033e-09
-1.56597e-08
1.01476e-06
-2.62114e-09
-1.70542e-08
1.02801e-06
-2.79598e-09
-1.85474e-08
1.04235e-06
-2.98095e-09
-2.01342e-08
1.05781e-06
-3.17198e-09
-2.18054e-08
1.07446e-06
-3.3632e-09
-2.35474e-08
1.09231e-06
-3.54952e-09
-2.53457e-08
1.11141e-06
-3.7332e-09
-2.71957e-08
1.1318e-06
-3.92423e-09
-2.91097e-08
1.15355e-06
-4.1327e-09
-3.11103e-08
1.17676e-06
-4.36199e-09
-3.32186e-08
1.2015e-06
-4.6076e-09
-3.54457e-08
1.22785e-06
-4.86066e-09
-3.77901e-08
-5.11174e-09
-4.02413e-08
9.45456e-07
4.59078e-11
1.1092e-10
9.45626e-07
-6.34143e-11
-2.62813e-10
9.46046e-07
-1.61544e-10
-6.4879e-10
9.46721e-07
-2.47989e-10
-1.05684e-09
9.47659e-07
-3.22188e-10
-1.4906e-09
9.48877e-07
-3.87942e-10
-1.95739e-09
9.50398e-07
-4.56556e-10
-2.48045e-09
9.52254e-07
-5.42202e-10
-3.08376e-09
9.54477e-07
-6.53117e-10
-3.76643e-09
9.57093e-07
-7.89509e-10
-4.50572e-09
9.60128e-07
-9.47605e-10
-5.27505e-09
9.63602e-07
-1.12389e-09
-6.06172e-09
9.67531e-07
-1.31428e-09
-6.87081e-09
9.71931e-07
-1.5097e-09
-7.70674e-09
9.76817e-07
-1.69835e-09
-8.56698e-09
9.82205e-07
-1.87344e-09
-9.46052e-09
9.8812e-07
-2.03499e-09
-1.04129e-08
9.94594e-07
-2.18576e-09
-1.1452e-08
1.00166e-06
-2.32657e-09
-1.25908e-08
1.00936e-06
-2.45412e-09
-1.38173e-08
1.01772e-06
-2.56656e-09
-1.51075e-08
1.02678e-06
-2.67225e-09
-1.64574e-08
1.03659e-06
-2.78893e-09
-1.78912e-08
1.04722e-06
-2.93234e-09
-1.9437e-08
1.05874e-06
-3.10743e-09
-2.11049e-08
1.07122e-06
-3.31024e-09
-2.2892e-08
1.08473e-06
-3.53379e-09
-2.47968e-08
1.09934e-06
-3.77043e-09
-2.68189e-08
1.1151e-06
-4.01181e-09
-2.89539e-08
1.13205e-06
-4.24875e-09
-3.11891e-08
1.15026e-06
-4.4751e-09
-3.35105e-08
1.16976e-06
-4.6939e-09
-3.59251e-08
1.19063e-06
-4.91603e-09
-3.84648e-08
1.21293e-06
-5.1514e-09
-4.11635e-08
1.23676e-06
-5.40177e-09
-4.40427e-08
1.26221e-06
-5.65945e-09
-4.71063e-08
1.28934e-06
-5.91008e-09
-5.03503e-08
-6.13479e-09
-5.37709e-08
9.54595e-07
4.22595e-11
1.60733e-10
9.5479e-07
-8.09882e-11
-2.97993e-10
9.55247e-07
-1.91316e-10
-7.66753e-10
9.55971e-07
-2.88426e-10
-1.24733e-09
9.56968e-07
-3.72284e-10
-1.74213e-09
9.58251e-07
-4.45448e-10
-2.26469e-09
9.59841e-07
-5.1618e-10
-2.84694e-09
9.6176e-07
-5.95525e-10
-3.5157e-09
9.64032e-07
-6.91617e-10
-4.27146e-09
9.66683e-07
-8.07933e-10
-5.09488e-09
9.69734e-07
-9.4427e-10
-5.96431e-09
9.73211e-07
-1.09822e-09
-6.87504e-09
9.77136e-07
-1.26463e-09
-7.83431e-09
9.81526e-07
-1.43375e-09
-8.83516e-09
9.86397e-07
-1.5948e-09
-9.86238e-09
9.91771e-07
-1.74153e-09
-1.09195e-08
9.97673e-07
-1.87233e-09
-1.20303e-08
1.00413e-06
-1.98753e-09
-1.32212e-08
1.01118e-06
-2.08735e-09
-1.44988e-08
1.01885e-06
-2.17124e-09
-1.58398e-08
1.02716e-06
-2.24211e-09
-1.72222e-08
1.03616e-06
-2.31124e-09
-1.8663e-08
1.04592e-06
-2.39555e-09
-2.0211e-08
1.05649e-06
-2.50843e-09
-2.19033e-08
1.06795e-06
-2.65366e-09
-2.37435e-08
1.08036e-06
-2.82739e-09
-2.57208e-08
1.0938e-06
-3.02212e-09
-2.78279e-08
1.10833e-06
-3.22856e-09
-3.00608e-08
1.124e-06
-3.43687e-09
-3.24108e-08
1.14086e-06
-3.63781e-09
-3.48582e-08
1.15897e-06
-3.82575e-09
-3.73901e-08
1.17839e-06
-4.00223e-09
-4.00293e-08
1.19919e-06
-4.17346e-09
-4.2826e-08
1.22145e-06
-4.34367e-09
-4.58246e-08
1.24527e-06
-4.51042e-09
-4.90462e-08
1.27072e-06
-4.66312e-09
-5.24888e-08
1.29789e-06
-4.78322e-09
-5.61447e-08
-4.84424e-09
-6.00137e-08
9.56825e-07
1.70102e-11
1.97961e-10
9.57041e-07
-1.04664e-10
-3.14077e-10
9.57527e-07
-2.13203e-10
-8.29734e-10
9.58286e-07
-3.07933e-10
-1.35352e-09
9.59323e-07
-3.88028e-10
-1.89045e-09
9.60649e-07
-4.53981e-10
-2.45334e-09
9.62279e-07
-5.10401e-10
-3.06829e-09
9.6423e-07
-5.64758e-10
-3.75727e-09
9.66525e-07
-6.24576e-10
-4.52625e-09
9.69186e-07
-6.9556e-10
-5.36785e-09
9.7224e-07
-7.7996e-10
-6.27284e-09
9.75712e-07
-8.76519e-10
-7.24468e-09
9.7963e-07
-9.80527e-10
-8.28537e-09
9.84011e-07
-1.08388e-09
-9.37571e-09
9.88874e-07
-1.1788e-09
-1.04938e-08
9.9424e-07
-1.26094e-09
-1.16381e-08
1.00013e-06
-1.3283e-09
-1.28251e-08
1.00658e-06
-1.3802e-09
-1.4073e-08
1.01361e-06
-1.41712e-09
-1.53772e-08
1.02125e-06
-1.44089e-09
-1.67113e-08
1.02953e-06
-1.45676e-09
-1.80689e-08
1.03848e-06
-1.47512e-09
-1.94947e-08
1.04818e-06
-1.50845e-09
-2.10573e-08
1.0587e-06
-1.56549e-09
-2.27959e-08
1.0701e-06
-1.64825e-09
-2.47075e-08
1.08246e-06
-1.75382e-09
-2.67733e-08
1.09584e-06
-1.87622e-09
-2.89773e-08
1.1103e-06
-2.00761e-09
-3.13062e-08
1.12589e-06
-2.14002e-09
-3.37414e-08
1.14268e-06
-2.26631e-09
-3.62562e-08
1.16071e-06
-2.38126e-09
-3.88442e-08
1.18006e-06
-2.48278e-09
-4.15453e-08
1.20079e-06
-2.56985e-09
-4.44215e-08
1.22301e-06
-2.63929e-09
-4.75195e-08
1.2468e-06
-2.68364e-09
-5.08581e-08
1.27225e-06
-2.68946e-09
-5.44318e-08
1.29945e-06
-2.63462e-09
-5.82343e-08
-2.4867e-09
-6.22711e-08
9.57433e-07
-2.07209e-11
1.88839e-10
9.57664e-07
-1.28112e-10
-3.56764e-10
9.5817e-07
-2.23834e-10
-8.98436e-10
9.58954e-07
-3.05464e-10
-1.45173e-09
9.60019e-07
-3.70962e-10
-2.02198e-09
9.61374e-07
-4.19198e-10
-2.61395e-09
9.6303e-07
-4.52011e-10
-3.24165e-09
9.65e-07
-4.7395e-10
-3.92142e-09
9.67306e-07
-4.91149e-10
-4.66753e-09
9.6997e-07
-5.09225e-10
-5.48946e-09
9.73021e-07
-5.30838e-10
-6.39461e-09
9.76492e-07
-5.5553e-10
-7.39001e-09
9.80406e-07
-5.80137e-10
-8.46681e-09
9.84786e-07
-5.99823e-10
-9.59743e-09
9.89649e-07
-6.1119e-10
-1.07582e-08
9.95015e-07
-6.13208e-10
-1.19422e-08
1.00091e-06
-6.05449e-10
-1.31564e-08
1.00736e-06
-5.87906e-10
-1.44072e-08
1.01438e-06
-5.6162e-10
-1.56816e-08
1.022e-06
-5.28882e-10
-1.69595e-08
1.03025e-06
-4.93751e-10
-1.82574e-08
1.03918e-06
-4.62206e-10
-1.96426e-08
1.04884e-06
-4.40454e-10
-2.11916e-08
1.05932e-06
-4.32334e-10
-2.29396e-08
1.07069e-06
-4.38702e-10
-2.48776e-08
1.08301e-06
-4.58476e-10
-2.69814e-08
1.09635e-06
-4.88881e-10
-2.92271e-08
1.11077e-06
-5.25996e-10
-3.15922e-08
1.12633e-06
-5.65875e-10
-3.40503e-08
1.14308e-06
-6.0403e-10
-3.65752e-08
1.16108e-06
-6.34743e-10
-3.91721e-08
1.18039e-06
-6.51447e-10
-4.18908e-08
1.20111e-06
-6.4603e-10
-4.47913e-08
1.22332e-06
-6.08576e-10
-4.79133e-08
1.24711e-06
-5.27082e-10
-5.12732e-08
1.2726e-06
-3.85262e-10
-5.48708e-08
1.29986e-06
-1.58067e-10
-5.87071e-08
1.89618e-10
-6.27903e-08
9.57554e-07
-6.22448e-11
1.59583e-10
9.57798e-07
-1.42403e-10
-4.22766e-10
9.5832e-07
-2.14088e-10
-9.93649e-10
9.59124e-07
-2.73007e-10
-1.5748e-09
9.60211e-07
-3.1567e-10
-2.16991e-09
9.61588e-07
-3.39783e-10
-2.77811e-09
9.63262e-07
-3.45367e-10
-3.40453e-09
9.65246e-07
-3.34605e-10
-4.06119e-09
9.67557e-07
-3.1106e-10
-4.77047e-09
9.70223e-07
-2.77845e-10
-5.56048e-09
9.73276e-07
-2.3632e-10
-6.45413e-09
9.76748e-07
-1.86774e-10
-7.45529e-09
9.80665e-07
-1.28761e-10
-8.54097e-09
9.85047e-07
-6.20606e-11
-9.67745e-09
9.89913e-07
1.16257e-11
-1.08419e-08
9.95283e-07
8.96276e-11
-1.2026e-08
1.00118e-06
1.69703e-10
-1.32317e-08
1.00763e-06
2.50431e-10
-1.44573e-08
1.01465e-06
3.3061e-10
-1.56871e-08
1.02227e-06
4.09451e-10
-1.69117e-08
1.0305e-06
4.86832e-10
-1.81645e-08
1.03941e-06
5.62866e-10
-1.95229e-08
1.04906e-06
6.37591e-10
-2.10598e-08
1.05952e-06
7.11083e-10
-2.28026e-08
1.07087e-06
7.82893e-10
-2.47396e-08
1.08317e-06
8.51898e-10
-2.68456e-08
1.09649e-06
9.17029e-10
-2.90926e-08
1.1109e-06
9.77396e-10
-3.14531e-08
1.12644e-06
1.0326e-09
-3.39014e-08
1.14317e-06
1.08492e-09
-3.64223e-08
1.16116e-06
1.14077e-09
-3.90319e-08
1.18048e-06
1.21014e-09
-4.17749e-08
1.20121e-06
1.30609e-09
-4.46947e-08
1.22344e-06
1.44338e-09
-4.78186e-08
1.24728e-06
1.63781e-09
-5.11654e-08
1.27282e-06
1.90863e-09
-5.47481e-08
1.30018e-06
2.28316e-09
-5.8581e-08
2.7998e-09
-6.26765e-08
9.57478e-07
1.42469e-10
9.57731e-07
-1.41407e-10
-4.9358e-10
9.58268e-07
-1.77789e-10
-1.1077e-09
9.59087e-07
-2.05736e-10
-1.71687e-09
9.60192e-07
-2.20169e-10
-2.32644e-09
9.61586e-07
-2.17308e-10
-2.93964e-09
9.63276e-07
-1.95459e-10
-3.56012e-09
9.65271e-07
-1.54439e-10
-4.19673e-09
9.6759e-07
-9.41668e-11
-4.87731e-09
9.70262e-07
-1.38289e-11
-5.64527e-09
9.73321e-07
8.74623e-11
-6.53305e-09
9.76801e-07
2.07605e-10
-7.53461e-09
9.80726e-07
3.42586e-10
-8.61092e-09
9.85115e-07
4.87123e-10
-9.72298e-09
9.89984e-07
6.35317e-10
-1.08531e-08
9.95355e-07
7.8176e-10
-1.20012e-08
1.00125e-06
9.2257e-10
-1.31733e-08
1.0077e-06
1.05532e-09
-1.43675e-08
1.01472e-06
1.17897e-09
-1.55684e-08
1.02233e-06
1.29503e-09
-1.67709e-08
1.03057e-06
1.40815e-09
-1.80128e-08
1.03947e-06
1.52421e-09
-1.93686e-08
1.04912e-06
1.64825e-09
-2.09012e-08
1.05958e-06
1.78299e-09
-2.26321e-08
1.07092e-06
1.92797e-09
-2.45523e-08
1.08322e-06
2.08013e-09
-2.66394e-08
1.09654e-06
2.23501e-09
-2.88649e-08
1.11094e-06
2.3876e-09
-3.12017e-08
1.12648e-06
2.53402e-09
-3.36328e-08
1.14322e-06
2.67491e-09
-3.6158e-08
1.16121e-06
2.81693e-09
-3.87975e-08
1.18055e-06
2.9714e-09
-4.15806e-08
1.20132e-06
3.15357e-09
-4.45284e-08
1.2236e-06
3.38087e-09
-4.76586e-08
1.2475e-06
3.67209e-09
-5.09959e-08
1.27313e-06
4.04961e-09
-5.45684e-08
1.3006e-06
4.5433e-09
-5.84034e-08
5.19151e-09
-6.25181e-08
9.57465e-07
-1.23348e-10
-5.61284e-10
9.58013e-07
-1.16621e-10
-1.2185e-09
9.58845e-07
-1.09045e-10
-1.84618e-09
9.59962e-07
-9.37241e-11
-2.45725e-09
9.61369e-07
-6.44134e-11
-3.0672e-09
9.6307e-07
-1.70977e-11
-3.68337e-09
9.65075e-07
5.11634e-11
-4.31261e-09
9.67404e-07
1.44334e-10
-4.98413e-09
9.70087e-07
2.67306e-10
-5.74806e-09
9.73159e-07
4.21925e-10
-6.63571e-09
9.76652e-07
6.03274e-10
-7.62821e-09
9.80588e-07
8.01421e-10
-8.67356e-09
9.84984e-07
1.00566e-09
-9.73169e-09
9.89856e-07
1.20768e-09
-1.07953e-08
9.95228e-07
1.40199e-09
-1.18792e-08
1.00112e-06
1.58533e-09
-1.30009e-08
1.00757e-06
1.75555e-09
-1.41639e-08
1.01459e-06
1.91186e-09
-1.5353e-08
1.0222e-06
2.0577e-09
-1.65594e-08
1.03044e-06
2.20138e-09
-1.7815e-08
1.03936e-06
2.35291e-09
-1.91826e-08
1.04903e-06
2.52048e-09
-2.07133e-08
1.0595e-06
2.70832e-09
-2.24265e-08
1.07086e-06
2.91605e-09
-2.43186e-08
1.08317e-06
3.13946e-09
-2.6374e-08
1.0965e-06
3.37186e-09
-2.85677e-08
1.11091e-06
3.60543e-09
-3.08765e-08
1.12645e-06
3.83372e-09
-3.3293e-08
1.1432e-06
4.05618e-09
-3.58267e-08
1.16123e-06
4.27926e-09
-3.84965e-08
1.18061e-06
4.514e-09
-4.13172e-08
1.20143e-06
4.77546e-09
-4.42946e-08
1.22378e-06
5.08125e-09
-4.74408e-08
1.24776e-06
5.45151e-09
-5.0783e-08
1.2735e-06
5.911e-09
-5.43577e-08
1.30111e-06
6.49125e-09
-5.81993e-08
7.22959e-09
-6.23291e-08
9.56703e-07
-9.02525e-11
-6.22284e-10
9.57258e-07
-4.15631e-11
-1.29706e-09
9.58099e-07
-1.95384e-12
-1.91997e-09
9.59222e-07
3.85136e-11
-2.51499e-09
9.60634e-07
8.89967e-11
-3.11035e-09
9.6234e-07
1.56631e-10
-3.71985e-09
9.64352e-07
2.4673e-10
-4.34939e-09
9.6669e-07
3.65779e-10
-5.02428e-09
9.69385e-07
5.20787e-10
-5.78847e-09
9.72472e-07
7.1351e-10
-6.66372e-09
9.75981e-07
9.35844e-10
-7.6215e-09
9.7993e-07
1.17244e-09
-8.60736e-09
9.84337e-07
1.40843e-09
-9.58719e-09
9.89217e-07
1.6348e-09
-1.05651e-08
9.94593e-07
1.84838e-09
-1.15675e-08
1.00049e-06
2.04902e-09
-1.26225e-08
1.00694e-06
2.23626e-09
-1.37418e-08
1.01396e-06
2.40982e-09
-1.49129e-08
1.02159e-06
2.57415e-09
-1.61235e-08
1.02985e-06
2.73927e-09
-1.73956e-08
1.0388e-06
2.91668e-09
-1.87752e-08
1.04849e-06
3.1154e-09
-2.02987e-08
1.059e-06
3.34009e-09
-2.19818e-08
1.07038e-06
3.59077e-09
-2.38275e-08
1.08272e-06
3.86323e-09
-2.58302e-08
1.09608e-06
4.15002e-09
-2.79738e-08
1.11052e-06
4.44174e-09
-3.0241e-08
1.1261e-06
4.7301e-09
-3.26286e-08
1.14289e-06
5.01388e-09
-3.51477e-08
1.16096e-06
5.29944e-09
-3.78158e-08
1.1804e-06
5.59706e-09
-4.06425e-08
1.20129e-06
5.91982e-09
-4.36279e-08
1.22373e-06
6.28279e-09
-4.67795e-08
1.24782e-06
6.7048e-09
-5.01187e-08
1.27368e-06
7.21062e-09
-5.36797e-08
1.30143e-06
7.83143e-09
-5.7497e-08
8.60266e-09
-6.15933e-08
9.54288e-07
-4.94114e-11
-6.66327e-10
9.54849e-07
2.57982e-11
-1.31502e-09
9.55693e-07
8.42082e-11
-1.9004e-09
9.56816e-07
1.36963e-10
-2.45508e-09
9.58223e-07
1.96465e-10
-3.01558e-09
9.59923e-07
2.7206e-10
-3.60105e-09
9.61931e-07
3.6987e-10
-4.21736e-09
9.6427e-07
4.96462e-10
-4.88078e-09
9.66972e-07
6.58631e-10
-5.61938e-09
9.7007e-07
8.57343e-10
-6.44205e-09
9.73593e-07
1.08263e-09
-7.32021e-09
9.7756e-07
1.31665e-09