/*--------------------------------*- C++ -*----------------------------------*\
| =========                 |                                                 |
| \\      /  F ield         | OpenFOAM: The Open Source CFD Toolbox           |
|  \\    /   O peration     | Version:  2.3.1                                 |
|   \\  /    A nd           | Web:      www.OpenFOAM.org                      |
|    \\/     M anipulation  |                                                 |
\*---------------------------------------------------------------------------*/
FoamFile
{
    version     2.0;
    format      ascii;
    class       surfaceScalarField;
    location    "15";
    object      phi_0;
}
// * * * * * * * * * * * * * * * * * * * * * * * * * * * * * * * * * * * * * //

dimensions      [0 3 -1 0 0 0 0];

internalField   nonuniform List<scalar> 
108425
(
7.90138e-07
3.48409e-11
4.70072e-11
7.90255e-07
-7.20214e-11
-4.46079e-11
7.90573e-07
-1.75366e-10
-1.42439e-10
7.91101e-07
-2.72343e-10
-2.55783e-10
7.91849e-07
-3.59646e-10
-3.88994e-10
7.92832e-07
-4.38074e-10
-5.43934e-10
7.94073e-07
-5.16664e-10
-7.24729e-10
7.95618e-07
-6.08584e-10
-9.36773e-10
7.97518e-07
-7.21825e-10
-1.17835e-09
7.99812e-07
-8.56709e-10
-1.43715e-09
8.0252e-07
-1.00996e-09
-1.69819e-09
8.05653e-07
-1.17987e-09
-1.95311e-09
8.09222e-07
-1.36662e-09
-2.20166e-09
8.13235e-07
-1.56561e-09
-2.44798e-09
8.17699e-07
-1.76628e-09
-2.69767e-09
8.22619e-07
-1.96057e-09
-2.95926e-09
8.28012e-07
-2.14784e-09
-3.24538e-09
8.33913e-07
-2.3316e-09
-3.56898e-09
8.40364e-07
-2.51372e-09
-3.9373e-09
8.47403e-07
-2.69114e-09
-4.34792e-09
8.55055e-07
-2.86107e-09
-4.79065e-09
8.63342e-07
-3.03064e-09
-5.25692e-09
8.72307e-07
-3.21688e-09
-5.74782e-09
8.82013e-07
-3.43456e-09
-6.27164e-09
8.92536e-07
-3.6865e-09
-6.83602e-09
9.03946e-07
-3.96684e-09
-7.44383e-09
9.1631e-07
-4.26909e-09
-8.0945e-09
9.29684e-07
-4.58879e-09
-8.7858e-09
9.4412e-07
-4.92212e-09
-9.51312e-09
9.59652e-07
-5.26392e-09
-1.02686e-08
9.76306e-07
-5.61015e-09
-1.10433e-08
9.94104e-07
-5.96503e-09
-1.18335e-08
1.01309e-06
-6.34141e-09
-1.26451e-08
1.03333e-06
-6.75153e-09
-1.34901e-08
1.05491e-06
-7.19958e-09
-1.43791e-08
1.07791e-06
-7.68098e-09
-1.53164e-08
1.1024e-06
-8.18667e-09
-1.63004e-08
-8.70869e-09
-1.73248e-08
8.57275e-07
6.70796e-11
4.87925e-11
8.57412e-07
-9.67506e-11
-1.11869e-10
8.5777e-07
-2.52544e-10
-2.80956e-10
8.58357e-07
-3.9582e-10
-4.6307e-10
8.59178e-07
-5.23006e-10
-6.58339e-10
8.60245e-07
-6.3541e-10
-8.69637e-10
8.61583e-07
-7.41801e-10
-1.1125e-09
8.63235e-07
-8.55106e-10
-1.40519e-09
8.65246e-07
-9.85729e-10
-1.7476e-09
8.67651e-07
-1.13934e-09
-2.12222e-09
8.70469e-07
-1.31851e-09
-2.5091e-09
8.73713e-07
-1.52488e-09
-2.89904e-09
8.77399e-07
-1.757e-09
-3.2962e-09
8.81543e-07
-2.0048e-09
-3.70432e-09
8.8615e-07
-2.25263e-09
-4.12037e-09
8.91226e-07
-2.48881e-09
-4.54834e-09
8.96793e-07
-2.70915e-09
-5.00512e-09
9.02884e-07
-2.91364e-09
-5.50972e-09
9.09543e-07
-3.10155e-09
-6.07115e-09
9.16803e-07
-3.27047e-09
-6.6803e-09
9.24684e-07
-3.42451e-09
-7.31789e-09
9.33213e-07
-3.582e-09
-7.97736e-09
9.42439e-07
-3.76962e-09
-8.67295e-09
9.52433e-07
-4.00604e-09
-9.42284e-09
9.63272e-07
-4.29305e-09
-1.02328e-08
9.75027e-07
-4.6215e-09
-1.10999e-08
9.87761e-07
-4.98022e-09
-1.20229e-08
1.00153e-06
-5.35922e-09
-1.30027e-08
1.0164e-06
-5.74923e-09
-1.40373e-08
1.03239e-06
-6.14125e-09
-1.51179e-08
1.04955e-06
-6.53106e-09
-1.62332e-08
1.06789e-06
-6.92589e-09
-1.73849e-08
1.08749e-06
-7.34109e-09
-1.85926e-08
1.1084e-06
-7.78887e-09
-1.9878e-08
1.13073e-06
-8.27114e-09
-2.12532e-08
1.15454e-06
-8.77936e-09
-2.27187e-08
1.17993e-06
-9.29857e-09
-2.42708e-08
-9.81169e-09
-2.59084e-08
8.71074e-07
6.12781e-11
8.74481e-11
8.71225e-07
-1.26289e-10
-1.21378e-10
8.71612e-07
-2.99522e-10
-3.39503e-10
8.72236e-07
-4.55775e-10
-5.64755e-10
8.73102e-07
-5.93085e-10
-7.95663e-10
8.74216e-07
-7.1049e-10
-1.03911e-09
8.75603e-07
-8.10878e-10
-1.31736e-09
8.773e-07
-9.01898e-10
-1.65052e-09
8.79347e-07
-9.94891e-10
-2.03796e-09
8.81774e-07
-1.1026e-09
-2.46345e-09
8.846e-07
-1.23545e-09
-2.90965e-09
8.87846e-07
-1.39805e-09
-3.37294e-09
8.91536e-07
-1.58605e-09
-3.86077e-09
8.95688e-07
-1.78653e-09
-4.36979e-09
9.00307e-07
-1.98446e-09
-4.8874e-09
9.05401e-07
-2.16833e-09
-5.41412e-09
9.10989e-07
-2.33064e-09
-5.96656e-09
9.17106e-07
-2.46648e-09
-6.56406e-09
9.23789e-07
-2.57278e-09
-7.21198e-09
9.31062e-07
-2.65127e-09
-7.89257e-09
9.38939e-07
-2.71536e-09
-8.58555e-09
9.47446e-07
-2.79047e-09
-9.2988e-09
9.56645e-07
-2.90333e-09
-1.0065e-08
9.66616e-07
-3.06872e-09
-1.09089e-08
9.7744e-07
-3.28597e-09
-1.18311e-08
9.89186e-07
-3.5453e-09
-1.28219e-08
1.00192e-06
-3.83392e-09
-1.38766e-08
1.01569e-06
-4.13883e-09
-1.49936e-08
1.03056e-06
-4.44827e-09
-1.61681e-08
1.04655e-06
-4.75355e-09
-1.73855e-08
1.06371e-06
-5.05293e-09
-1.86328e-08
1.08206e-06
-5.35314e-09
-1.9922e-08
1.10167e-06
-5.66291e-09
-2.12861e-08
1.12262e-06
-5.98567e-09
-2.27547e-08
1.145e-06
-6.31708e-09
-2.43407e-08
1.16891e-06
-6.64613e-09
-2.60403e-08
1.19441e-06
-6.95517e-09
-2.78463e-08
-7.21995e-09
-2.97604e-08
8.75339e-07
1.78818e-11
1.16034e-10
8.75508e-07
-1.7366e-10
-1.22353e-10
8.7592e-07
-3.44727e-10
-3.66142e-10
8.76574e-07
-4.95406e-10
-6.14852e-10
8.77474e-07
-6.23897e-10
-8.69387e-10
8.78627e-07
-7.26535e-10
-1.13626e-09
8.8005e-07
-8.01389e-10
-1.43318e-09
8.81776e-07
-8.52167e-10
-1.77533e-09
8.83837e-07
-8.90585e-10
-2.16504e-09
8.86263e-07
-9.33825e-10
-2.59468e-09
8.89079e-07
-9.96637e-10
-3.05555e-09
8.92315e-07
-1.08351e-09
-3.55048e-09
8.96001e-07
-1.18727e-09
-4.08434e-09
9.00155e-07
-1.29558e-09
-4.64491e-09
9.04783e-07
-1.39779e-09
-5.21491e-09
9.09892e-07
-1.48572e-09
-5.79202e-09
9.15502e-07
-1.55211e-09
-6.38802e-09
9.21643e-07
-1.59074e-09
-7.01678e-09
9.28345e-07
-1.59898e-09
-7.67588e-09
9.3562e-07
-1.58275e-09
-8.34371e-09
9.43476e-07
-1.561e-09
-9.01001e-09
9.51945e-07
-1.55646e-09
-9.70322e-09
9.611e-07
-1.58747e-09
-1.04706e-08
9.71031e-07
-1.66126e-09
-1.13383e-08
9.81821e-07
-1.77548e-09
-1.23008e-08
9.93541e-07
-1.92256e-09
-1.33428e-08
1.00625e-06
-2.09213e-09
-1.44538e-08
1.02001e-06
-2.273e-09
-1.56261e-08
1.03487e-06
-2.4563e-09
-1.68479e-08
1.05085e-06
-2.63801e-09
-1.80989e-08
1.06799e-06
-2.81881e-09
-1.93692e-08
1.08632e-06
-2.99975e-09
-2.0683e-08
1.10591e-06
-3.17682e-09
-2.20824e-08
1.12687e-06
-3.34106e-09
-2.3599e-08
1.14928e-06
-3.48183e-09
-2.52434e-08
1.17323e-06
-3.58763e-09
-2.7009e-08
1.1988e-06
-3.64058e-09
-2.88884e-08
-3.61149e-09
-3.08867e-08
8.76771e-07
-2.93709e-11
1.05055e-10
8.76959e-07
-2.12761e-10
-1.49359e-10
8.77391e-07
-3.73259e-10
-4.03269e-10
8.7807e-07
-5.07973e-10
-6.66118e-10
8.79e-07
-6.1442e-10
-9.39773e-10
8.80188e-07
-6.89405e-10
-1.22452e-09
8.81645e-07
-7.30721e-10
-1.52818e-09
8.83394e-07
-7.40445e-10
-1.8605e-09
8.85462e-07
-7.28873e-10
-2.22944e-09
8.8788e-07
-7.12814e-10
-2.63953e-09
8.90684e-07
-7.06419e-10
-3.09407e-09
8.93911e-07
-7.11558e-10
-3.59919e-09
8.97595e-07
-7.19157e-10
-4.15203e-09
9.01753e-07
-7.19573e-10
-4.73413e-09
9.06392e-07
-7.08398e-10
-5.32801e-09
9.11519e-07
-6.84207e-10
-5.92825e-09
9.17151e-07
-6.45011e-10
-6.5395e-09
9.23316e-07
-5.88175e-10
-7.16724e-09
9.30033e-07
-5.13923e-10
-7.80199e-09
9.37305e-07
-4.29629e-10
-8.42565e-09
9.45139e-07
-3.49459e-10
-9.04513e-09
9.53574e-07
-2.86244e-10
-9.70536e-09
9.62692e-07
-2.46313e-10
-1.04591e-08
9.72589e-07
-2.29683e-10
-1.13286e-08
9.83351e-07
-2.3422e-10
-1.23037e-08
9.95051e-07
-2.5696e-10
-1.33656e-08
1.00775e-06
-2.9304e-10
-1.44983e-08
1.0215e-06
-3.37121e-10
-1.5688e-08
1.03635e-06
-3.87202e-10
-1.69174e-08
1.05232e-06
-4.45379e-10
-1.81658e-08
1.06945e-06
-5.12218e-10
-1.94315e-08
1.08778e-06
-5.79542e-10
-2.07467e-08
1.10738e-06
-6.29685e-10
-2.21524e-08
1.12836e-06
-6.43204e-10
-2.36741e-08
1.1508e-06
-6.05376e-10
-2.53201e-08
1.1748e-06
-5.05013e-10
-2.70866e-08
1.20046e-06
-3.247e-10
-2.89716e-08
-3.28654e-11
-3.09813e-08
8.77137e-07
-6.51056e-11
7.90087e-11
8.77345e-07
-2.26656e-10
-1.94216e-10
8.77799e-07
-3.65676e-10
-4.61788e-10
8.78504e-07
-4.73452e-10
-7.39476e-10
8.79464e-07
-5.47304e-10
-1.02772e-09
8.80685e-07
-5.87724e-10
-1.32228e-09
8.82174e-07
-5.95298e-10
-1.62396e-09
8.83943e-07
-5.71506e-10
-1.93856e-09
8.86017e-07
-5.2306e-10
-2.27922e-09
8.88429e-07
-4.61726e-10
-2.66369e-09
8.91226e-07
-3.95953e-10
-3.10739e-09
8.94453e-07
-3.23615e-10
-3.61501e-09
8.98143e-07
-2.35997e-10
-4.17271e-09
9.02309e-07
-1.28313e-10
-4.75751e-09
9.06958e-07
-3.83015e-12
-5.35333e-09
9.12097e-07
1.30151e-10
-5.95375e-09
9.17744e-07
2.67339e-10
-6.55949e-09
9.23922e-07
4.04332e-10
-7.17019e-09
9.30643e-07
5.38491e-10
-7.77386e-09
9.37908e-07
6.65768e-10
-8.35974e-09
9.45723e-07
7.82295e-10
-8.94743e-09
9.54138e-07
8.88483e-10
-9.58909e-09
9.63236e-07
9.89401e-10
-1.03344e-08
9.73116e-07
1.08976e-09
-1.11992e-08
9.83864e-07
1.1897e-09
-1.21718e-08
9.95553e-07
1.28661e-09
-1.32326e-08
1.00824e-06
1.37867e-09
-1.43627e-08
1.02199e-06
1.46408e-09
-1.55448e-08
1.03682e-06
1.53813e-09
-1.67618e-08
1.05278e-06
1.59515e-09
-1.80012e-08
1.06991e-06
1.63722e-09
-1.92705e-08
1.08825e-06
1.68025e-09
-2.05992e-08
1.10788e-06
1.75003e-09
-2.20152e-08
1.1289e-06
1.87119e-09
-2.35337e-08
1.1514e-06
2.0613e-09
-2.51639e-08
1.17547e-06
2.33355e-09
-2.69121e-08
1.20122e-06
2.7073e-09
-2.87862e-08
3.21654e-09
-3.07933e-08
8.77001e-07
6.65994e-11
8.77228e-07
-2.14252e-10
-2.40372e-10
8.7771e-07
-3.12315e-10
-5.35238e-10
8.78445e-07
-3.78237e-10
-8.30292e-10
8.79435e-07
-4.10644e-10
-1.12664e-09
8.80685e-07
-4.13409e-10
-1.42352e-09
8.822e-07
-3.89459e-10
-1.72096e-09
8.83989e-07
-3.39322e-10
-2.02157e-09
8.86072e-07
-2.64294e-10
-2.34149e-09
8.88487e-07
-1.67219e-10
-2.70986e-09
8.9129e-07
-4.83878e-11
-3.15027e-09
8.9453e-07
9.67289e-11
-3.66072e-09
8.98236e-07
2.73052e-10
-4.21499e-09
9.02416e-07
4.7789e-10
-4.78574e-09
9.07072e-07
7.00539e-10
-5.36038e-09
9.12213e-07
9.2695e-10
-5.93817e-09
9.17859e-07
1.14477e-09
-6.52328e-09
9.24032e-07
1.34583e-09
-7.11499e-09
9.30746e-07
1.52621e-09
-7.7013e-09
9.38e-07
1.68645e-09
-8.27463e-09
9.45807e-07
1.8329e-09
-8.85754e-09
9.54218e-07
1.97785e-09
-9.49993e-09
9.63316e-07
2.1351e-09
-1.0244e-08
9.73195e-07
2.31229e-09
-1.11016e-08
9.8394e-07
2.50758e-09
-1.20632e-08
9.95625e-07
2.71342e-09
-1.31118e-08
1.00831e-06
2.92154e-09
-1.42274e-08
1.02204e-06
3.12404e-09
-1.5392e-08
1.03686e-06
3.31264e-09
-1.65946e-08
1.05281e-06
3.48224e-09
-1.78347e-08
1.06993e-06
3.63802e-09
-1.91245e-08
1.0883e-06
3.79816e-09
-2.04822e-08
1.10798e-06
3.98873e-09
-2.19183e-08
1.12905e-06
4.23497e-09
-2.34401e-08
1.15162e-06
4.55782e-09
-2.5061e-08
1.17577e-06
4.97588e-09
-2.67991e-08
1.20164e-06
5.51318e-09
-2.86713e-08
6.20403e-09
-3.06881e-08
8.76625e-07
-1.78324e-10
-2.84077e-10
8.77137e-07
-2.14086e-10
-6.09799e-10
8.77901e-07
-2.24788e-10
-9.17514e-10
8.78914e-07
-2.10261e-10
-1.21389e-09
8.80184e-07
-1.74265e-10
-1.50845e-09
8.81718e-07
-1.1921e-10
-1.80433e-09
8.83524e-07
-4.38126e-11
-2.1017e-09
8.8562e-07
5.62809e-11
-2.41693e-09
8.8805e-07
1.87791e-10
-2.78473e-09
8.90873e-07
3.58106e-10
-3.22961e-09
8.94139e-07
5.7086e-10
-3.73999e-09
8.97869e-07
8.22383e-10
-4.27899e-09
9.02062e-07
1.10184e-09
-4.81783e-09
9.06721e-07
1.3932e-09
-5.35071e-09
9.11853e-07
1.68238e-09
-5.88801e-09
9.17483e-07
1.95713e-09
-6.44268e-09
9.23639e-07
2.20812e-09
-7.01793e-09
9.30337e-07
2.43004e-09
-7.60168e-09
9.37582e-07
2.62493e-09
-8.18319e-09
9.4539e-07
2.80487e-09
-8.78004e-09
9.53812e-07
2.99006e-09
-9.43424e-09
9.62926e-07
3.20066e-09
-1.01799e-08
9.72819e-07
3.4472e-09
-1.10278e-08
9.83572e-07
3.7275e-09
-1.19733e-08
9.95259e-07
4.03075e-09
-1.30041e-08
1.00794e-06
4.3436e-09
-1.41022e-08
1.02166e-06
4.65396e-09
-1.52512e-08
1.03647e-06
4.95287e-09
-1.64466e-08
1.05241e-06
5.23777e-09
-1.76955e-08
1.06954e-06
5.51546e-09
-1.90099e-08
1.08793e-06
5.80156e-09
-2.03973e-08
1.10766e-06
6.11756e-09
-2.18568e-08
1.1288e-06
6.48699e-09
-2.33918e-08
1.15144e-06
6.93433e-09
-2.50187e-08
1.1757e-06
7.48485e-09
-2.67618e-08
1.20168e-06
8.16756e-09
-2.86429e-08
9.01655e-09
-3.06742e-08
8.74979e-07
-1.19512e-10
-3.25762e-10
8.75516e-07
-8.33267e-11
-6.67029e-10
8.76301e-07
-3.6863e-11
-9.73064e-10
8.77328e-07
2.16167e-11
-1.25925e-09
8.78607e-07
9.30467e-11
-1.54578e-09
8.8015e-07
1.78038e-10
-1.84031e-09
8.81968e-07
2.79905e-10
-2.14209e-09
8.84082e-07
4.07424e-10
-2.46499e-09
8.86536e-07
5.74151e-10
-2.84029e-09
8.89389e-07
7.90721e-10
-3.28553e-09
8.92685e-07
1.056e-09
-3.78103e-09
8.96438e-07
1.3563e-09
-4.28697e-09
9.00644e-07
1.67363e-09
-4.77832e-09
9.05302e-07
1.99362e-09
-5.25831e-09
9.10423e-07
2.30722e-09
-5.74577e-09
9.16033e-07
2.60806e-09
-6.26108e-09
9.22165e-07
2.88929e-09
-6.81324e-09
9.28843e-07
3.14407e-09
-7.39166e-09
9.36078e-07
3.37226e-09
-7.98255e-09
9.43893e-07
3.58684e-09
-8.59674e-09
9.52337e-07
3.81136e-09
-9.26508e-09
9.6148e-07
4.06907e-09
-1.00114e-08
9.71399e-07
4.37256e-09
-1.08444e-08
9.8217e-07
4.72084e-09
-1.17645e-08
9.93865e-07
5.10272e-09
-1.27669e-08
1.00655e-06
5.50274e-09
-1.38395e-08
1.02026e-06
5.90671e-09
-1.49695e-08
1.03506e-06
6.30548e-09
-1.61545e-08
1.05101e-06
6.69816e-09
-1.7402e-08
1.06815e-06
7.09198e-09
-1.8723e-08
1.08658e-06
7.49936e-09
-2.01217e-08
1.10635e-06
7.93665e-09
-2.15942e-08
1.12756e-06
8.42416e-09
-2.31418e-08
1.15028e-06
8.98678e-09
-2.47774e-08
1.17464e-06
9.65299e-09
-2.6523e-08
1.20075e-06
1.04538e-08
-2.84003e-08
1.1422e-08
-3.04205e-08
8.70521e-07
-4.26463e-11
-3.58048e-10
8.71073e-07
5.09965e-11
-6.86759e-10
8.71869e-07
1.38619e-10
-9.70992e-10
8.72899e-07
2.25526e-10
-1.23394e-09
8.74175e-07
3.18621e-10
-1.50158e-09
8.75715e-07
4.23438e-10
-1.78569e-09
8.77537e-07
5.44611e-10
-2.0862e-09
8.79664e-07
6.91322e-10
-2.41123e-09
8.82141e-07
8.77464e-10
-2.78034e-09
8.8502e-07
1.11187e-09
-3.20052e-09
8.88339e-07
1.38835e-09
-3.65104e-09
8.92108e-07
1.68815e-09
-4.10061e-09
8.96323e-07
1.99212e-09
-4.5334e-09
9.00983e-07
2.28944e-09
-4.95563e-09
9.06098e-07
2.57795e-09
-5.38607e-09
9.11694e-07
2.85908e-09
-5.84712e-09
9.17806e-07
3.13149e-09
-6.35377e-09
9.24463e-07
3.38927e-09
-6.90236e-09
9.31688e-07
3.63013e-09
-7.48281e-09
9.39511e-07
3.86473e-09
-8.10096e-09
9.47981e-07
4.1141e-09
-8.773e-09
9.5716e-07
4.39827e-09
-9.5082e-09
9.67114e-07
4.72801e-09
-1.0309e-08
9.7791e-07
5.10387e-09
-1.11794e-08
9.89619e-07
5.51787e-09
-1.21243e-08
1.00231e-06
5.95699e-09
-1.31408e-08
1.01603e-06
6.40792e-09
-1.42216e-08
1.03083e-06
6.86164e-09
-1.53639e-08
1.04679e-06
7.31772e-09
-1.6572e-08
1.06395e-06
7.78367e-09
-1.78567e-08
1.0824e-06
8.27024e-09
-1.92238e-08
1.10222e-06
8.78938e-09
-2.06704e-08
1.12349e-06
9.35559e-09
-2.2195e-08
1.14629e-06
9.98824e-09
-2.38017e-08
1.17073e-06
1.0712e-08
-2.55047e-08
1.19695e-06
1.15551e-08
-2.73228e-08
1.25458e-08
-2.9265e-08
8.56525e-07
1.66794e-11
-3.52073e-10
8.57088e-07
1.13069e-10
-6.2459e-10
8.57886e-07
1.95893e-10
-8.55646e-10
8.5891e-07
2.72375e-10
-1.07017e-09
8.6017e-07
3.51609e-10
-1.29338e-09
8.61691e-07
4.40298e-10
-1.53789e-09
8.63498e-07
5.42138e-10
-1.80459e-09
8.65622e-07
6.62614e-10
-2.09502e-09
8.68105e-07
8.10111e-10
-2.41549e-09
8.70993e-07
9.88755e-10
-2.76496e-09
8.74318e-07
1.19181e-09
-3.129e-09
8.78092e-07
1.40478e-09
-3.4906e-09
8.82313e-07
1.61466e-09
-3.84294e-09
8.86977e-07
1.81568e-09
-4.19066e-09
8.92091e-07
2.00919e-09
-4.54574e-09
8.97676e-07
2.20047e-09
-4.92633e-09
9.03765e-07
2.39277e-09
-5.35008e-09
9.10394e-07
2.58368e-09
-5.82282e-09
9.17596e-07
2.77097e-09
-6.34284e-09
9.25411e-07
2.96074e-09
-6.91186e-09
9.33891e-07
3.16571e-09
-7.53118e-09
9.43089e-07
3.39677e-09
-8.19613e-09
9.5306e-07
3.65911e-09
-8.90264e-09
9.63867e-07
3.95369e-09
-9.65619e-09
9.75575e-07
4.2776e-09
-1.04684e-08
9.88253e-07
4.62394e-09
-1.13449e-08
1.00196e-06
4.9844e-09
-1.22852e-08
1.01676e-06
5.35262e-09
-1.32874e-08
1.0327e-06
5.72832e-09
-1.43531e-08
1.04986e-06
6.11775e-09
-1.54905e-08
1.0683e-06
6.52898e-09
-1.67056e-08
1.08812e-06
6.969e-09
-1.79961e-08
1.10939e-06
7.44474e-09
-1.93579e-08
1.1322e-06
7.96554e-09
-2.07881e-08
1.15666e-06
8.5455e-09
-2.22927e-08
1.1829e-06
9.20286e-09
-2.38847e-08
9.95532e-09
-2.557e-08
7.8923e-07
-2.76404e-10
7.89785e-07
-4.41594e-10
7.9056e-07
-5.79083e-10
7.9154e-07
-7.08254e-10
7.92738e-07
-8.46575e-10
7.94182e-07
-1.00302e-09
7.95902e-07
-1.17816e-09
7.97934e-07
-1.36989e-09
8.00322e-07
-1.57743e-09
8.03109e-07
-1.79868e-09
8.06329e-07
-2.02795e-09
8.09993e-07
-2.25912e-09
8.14098e-07
-2.4899e-09
8.18636e-07
-2.72264e-09
8.23608e-07
-2.963e-09
8.29029e-07
-3.2205e-09
8.34929e-07
-3.50728e-09
8.41346e-07
-3.83293e-09
8.48319e-07
-4.20223e-09
8.55894e-07
-4.61419e-09
8.6412e-07
-5.06086e-09
8.73049e-07
-5.53157e-09
8.82729e-07
-6.02073e-09
8.93216e-07
-6.53321e-09
9.04574e-07
-7.08077e-09
9.16871e-07
-7.67293e-09
9.30169e-07
-8.31409e-09
9.44526e-07
-9.00365e-09
9.59994e-07
-9.73994e-09
9.76637e-07
-1.05254e-08
9.94527e-07
-1.13613e-08
1.01374e-06
-1.22449e-08
1.03436e-06
-1.31725e-08
1.05646e-06
-1.41402e-08
1.08016e-06
-1.51495e-08
1.10557e-06
-1.62063e-08
-1.73116e-08
8.9236e-07
2.89806e-11
9.95503e-11
8.92501e-07
-4.40852e-11
-1.41532e-10
8.92865e-07
-1.099e-10
-3.96776e-10
8.93461e-07
-1.67877e-10
-6.83565e-10
8.94299e-07
-2.16514e-10
-1.01084e-09
8.95396e-07
-2.58281e-10
-1.38213e-09
8.96777e-07
-3.03467e-10
-1.80303e-09
8.98486e-07
-3.65155e-10
-2.2805e-09
9.00568e-07
-4.50056e-10
-2.81018e-09
9.0306e-07
-5.56459e-10
-3.3722e-09
9.05984e-07
-6.78896e-10
-3.94358e-09
9.09356e-07
-8.13947e-10
-4.51105e-09
9.13189e-07
-9.60094e-10
-5.07428e-09
9.17494e-07
-1.11181e-09
-5.64116e-09
9.22279e-07
-1.25972e-09
-6.2231e-09
9.27554e-07
-1.39818e-09
-6.83667e-09
9.33342e-07
-1.52821e-09
-7.50437e-09
9.39675e-07
-1.65391e-09
-8.24832e-09
9.46596e-07
-1.77702e-09
-9.08151e-09
9.54143e-07
-1.89365e-09
-1.00016e-08
9.62346e-07
-1.99879e-09
-1.09941e-08
9.71232e-07
-2.0958e-09
-1.20479e-08
9.8085e-07
-2.19784e-09
-1.31673e-08
9.91263e-07
-2.31791e-09
-1.43674e-08
1.00255e-06
-2.45998e-09
-1.56622e-08
1.01478e-06
-2.62078e-09
-1.70568e-08
1.02803e-06
-2.79561e-09
-1.85503e-08
1.04237e-06
-2.98056e-09
-2.01373e-08
1.05783e-06
-3.17157e-09
-2.18088e-08
1.07448e-06
-3.36276e-09
-2.35511e-08
1.09233e-06
-3.54906e-09
-2.53496e-08
1.11143e-06
-3.73272e-09
-2.72e-08
1.13183e-06
-3.92375e-09
-2.91143e-08
1.15358e-06
-4.13223e-09
-3.11153e-08
1.17679e-06
-4.36155e-09
-3.32242e-08
1.20153e-06
-4.60719e-09
-3.54518e-08
1.22789e-06
-4.86031e-09
-3.77968e-08
-5.11146e-09
-4.02488e-08
9.45458e-07
4.59307e-11
1.09935e-10
9.45629e-07
-6.33801e-11
-2.63802e-10
9.46049e-07
-1.61506e-10
-6.49783e-10
9.46724e-07
-2.47946e-10
-1.05783e-09
9.47663e-07
-3.22135e-10
-1.49156e-09
9.48881e-07
-3.87875e-10
-1.95832e-09
9.50403e-07
-4.56472e-10
-2.48135e-09
9.5226e-07
-5.42104e-10
-3.08465e-09
9.54482e-07
-6.53004e-10
-3.76733e-09
9.571e-07
-7.89382e-10
-4.50664e-09
9.60135e-07
-9.47462e-10
-5.27599e-09
9.63609e-07
-1.12374e-09
-6.06269e-09
9.67538e-07
-1.31411e-09
-6.8718e-09
9.71939e-07
-1.5095e-09
-7.70775e-09
9.76825e-07
-1.69813e-09
-8.56802e-09
9.82214e-07
-1.8732e-09
-9.46159e-09
9.88129e-07
-2.03472e-09
-1.0414e-08
9.94604e-07
-2.18546e-09
-1.14532e-08
1.00167e-06
-2.32624e-09
-1.25921e-08
1.00937e-06
-2.45375e-09
-1.38186e-08
1.01773e-06
-2.56616e-09
-1.5109e-08
1.02679e-06
-2.67183e-09
-1.6459e-08
1.0366e-06
-2.78849e-09
-1.78928e-08
1.04723e-06
-2.9319e-09
-1.94387e-08
1.05875e-06
-3.10698e-09
-2.11067e-08
1.07123e-06
-3.30979e-09
-2.2894e-08
1.08475e-06
-3.53332e-09
-2.47989e-08
1.09935e-06
-3.76995e-09
-2.68212e-08
1.11511e-06
-4.01131e-09
-2.89564e-08
1.13207e-06
-4.24823e-09
-3.11917e-08
1.15028e-06
-4.47457e-09
-3.35134e-08
1.16978e-06
-4.69336e-09
-3.59282e-08
1.19065e-06
-4.91551e-09
-3.84681e-08
1.21296e-06
-5.15093e-09
-4.11672e-08
1.23679e-06
-5.40136e-09
-4.40468e-08
1.26223e-06
-5.65915e-09
-4.71108e-08
1.28937e-06
-5.90991e-09
-5.03553e-08
-6.13482e-09
-5.37766e-08
9.54596e-07
4.22963e-11
1.59763e-10
9.54791e-07
-8.09356e-11
-2.98964e-10
9.55249e-07
-1.91255e-10
-7.6773e-10
9.55973e-07
-2.8836e-10
-1.2483e-09
9.56971e-07
-3.72213e-10
-1.74307e-09
9.58255e-07
-4.45367e-10
-2.26559e-09
9.59845e-07
-5.16088e-10
-2.8478e-09
9.61764e-07
-5.95419e-10
-3.51654e-09
9.64037e-07
-6.91497e-10
-4.27231e-09
9.66687e-07
-8.07798e-10
-5.09573e-09
9.6974e-07
-9.44119e-10
-5.96516e-09
9.73217e-07
-1.09806e-09
-6.87591e-09
9.77142e-07
-1.26446e-09
-7.8352e-09
9.81532e-07
-1.43357e-09
-8.83606e-09
9.86404e-07
-1.59459e-09
-9.86327e-09
9.91779e-07
-1.7413e-09
-1.09204e-08
9.97681e-07
-1.87207e-09
-1.20312e-08
1.00414e-06
-1.98725e-09
-1.32222e-08
1.01119e-06
-2.08703e-09
-1.44998e-08
1.01885e-06
-2.17088e-09
-1.58409e-08
1.02717e-06
-2.24172e-09
-1.72233e-08
1.03617e-06
-2.31082e-09
-1.86642e-08
1.04593e-06
-2.39512e-09
-2.02123e-08
1.0565e-06
-2.508e-09
-2.19046e-08
1.06796e-06
-2.65324e-09
-2.3745e-08
1.08038e-06
-2.82697e-09
-2.57224e-08
1.09382e-06
-3.0217e-09
-2.78296e-08
1.10834e-06
-3.22814e-09
-3.00626e-08
1.12401e-06
-3.43644e-09
-3.24128e-08
1.14088e-06
-3.63739e-09
-3.48604e-08
1.15899e-06
-3.82534e-09
-3.73924e-08
1.17841e-06
-4.00184e-09
-4.00318e-08
1.19921e-06
-4.17312e-09
-4.28288e-08
1.22147e-06
-4.34341e-09
-4.58276e-08
1.24529e-06
-4.51028e-09
-4.90497e-08
1.27075e-06
-4.66314e-09
-5.24927e-08
1.29792e-06
-4.78347e-09
-5.6149e-08
-4.8448e-09
-6.00186e-08
9.56826e-07
1.70537e-11
1.97022e-10
9.57042e-07
-1.04602e-10
-3.15005e-10
9.57528e-07
-2.13129e-10
-8.30669e-10
9.58287e-07
-3.07854e-10
-1.35446e-09
9.59325e-07
-3.87944e-10
-1.89137e-09
9.60652e-07
-4.53891e-10
-2.45422e-09
9.62282e-07
-5.10303e-10
-3.06914e-09
9.64234e-07
-5.64649e-10
-3.75811e-09
9.66529e-07
-6.24456e-10
-4.52707e-09
9.6919e-07
-6.95428e-10
-5.36866e-09
9.72244e-07
-7.79819e-10
-6.27364e-09
9.75718e-07
-8.76373e-10
-7.24548e-09
9.79635e-07
-9.80379e-10
-8.28619e-09
9.84017e-07
-1.08373e-09
-9.37654e-09
9.88881e-07
-1.17865e-09
-1.04946e-08
9.94247e-07
-1.26077e-09
-1.16389e-08
1.00014e-06
-1.32812e-09
-1.28259e-08
1.00659e-06
-1.37999e-09
-1.40738e-08
1.01362e-06
-1.41688e-09
-1.53781e-08
1.02126e-06
-1.44062e-09
-1.67122e-08
1.02954e-06
-1.45647e-09
-1.80697e-08
1.03849e-06
-1.4748e-09
-1.94957e-08
1.04819e-06
-1.50813e-09
-2.10583e-08
1.05871e-06
-1.56517e-09
-2.2797e-08
1.07011e-06
-1.64795e-09
-2.47088e-08
1.08247e-06
-1.75353e-09
-2.67747e-08
1.09585e-06
-1.87594e-09
-2.89788e-08
1.11031e-06
-2.00734e-09
-3.13079e-08
1.12591e-06
-2.13976e-09
-3.37432e-08
1.1427e-06
-2.26608e-09
-3.62581e-08
1.16073e-06
-2.38106e-09
-3.88462e-08
1.18007e-06
-2.48263e-09
-4.15475e-08
1.20081e-06
-2.56979e-09
-4.4424e-08
1.22303e-06
-2.63935e-09
-4.75223e-08
1.24682e-06
-2.68386e-09
-5.08612e-08
1.27228e-06
-2.68989e-09
-5.44353e-08
1.29948e-06
-2.63536e-09
-5.82383e-08
-2.48785e-09
-6.22755e-08
9.57433e-07
-2.06761e-11
1.8792e-10
9.57665e-07
-1.2805e-10
-3.57656e-10
9.58171e-07
-2.23759e-10
-8.99328e-10
9.58955e-07
-3.05382e-10
-1.45263e-09
9.60021e-07
-3.70875e-10
-2.02287e-09
9.61377e-07
-4.19106e-10
-2.61482e-09
9.63033e-07
-4.51913e-10
-3.24249e-09
9.65004e-07
-4.73845e-10
-3.92224e-09
9.67309e-07
-4.91038e-10
-4.66833e-09
9.69974e-07
-5.09111e-10
-5.49023e-09
9.73026e-07
-5.30725e-10
-6.39536e-09
9.76496e-07
-5.55423e-10
-7.39075e-09
9.80412e-07
-5.80038e-10
-8.46758e-09
9.84792e-07
-5.99732e-10
-9.5982e-09
9.89655e-07
-6.11106e-10
-1.0759e-08
9.95022e-07
-6.13126e-10
-1.1943e-08
1.00092e-06
-6.05366e-10
-1.31572e-08
1.00737e-06
-5.87815e-10
-1.4408e-08
1.01439e-06
-5.61516e-10
-1.56824e-08
1.02201e-06
-5.28762e-10
-1.69603e-08
1.03026e-06
-4.93616e-10
-1.82581e-08
1.03919e-06
-4.62062e-10
-1.96433e-08
1.04885e-06
-4.4031e-10
-2.11924e-08
1.05933e-06
-4.32198e-10
-2.29405e-08
1.0707e-06
-4.3858e-10
-2.48787e-08
1.08302e-06
-4.58372e-10
-2.69827e-08
1.09636e-06
-4.88797e-10
-2.92285e-08
1.11079e-06
-5.25936e-10
-3.15937e-08
1.12635e-06
-5.65845e-10
-3.40519e-08
1.1431e-06
-6.04044e-10
-3.6577e-08
1.16109e-06
-6.34817e-10
-3.9174e-08
1.18041e-06
-6.51602e-10
-4.18929e-08
1.20113e-06
-6.46293e-10
-4.47936e-08
1.22334e-06
-6.08981e-10
-4.7916e-08
1.24714e-06
-5.27678e-10
-5.12762e-08
1.27262e-06
-3.86116e-10
-5.48741e-08
1.29989e-06
-1.59273e-10
-5.87108e-08
1.87931e-10
-6.27946e-08
9.57555e-07
-6.22024e-11
1.58674e-10
9.57798e-07
-1.42348e-10
-4.23633e-10
9.58321e-07
-2.14022e-10
-9.94506e-10
9.59125e-07
-2.72933e-10
-1.57566e-09
9.60213e-07
-3.1559e-10
-2.17076e-09
9.6159e-07
-3.39699e-10
-2.77896e-09
9.63265e-07
-3.4528e-10
-3.40535e-09
9.65249e-07
-3.34516e-10
-4.06198e-09
9.67561e-07
-3.10974e-10
-4.77121e-09
9.70227e-07
-2.77768e-10
-5.56119e-09
9.7328e-07
-2.36256e-10
-6.45482e-09
9.76752e-07
-1.86726e-10
-7.45599e-09
9.8067e-07
-1.2873e-10
-8.54169e-09
9.85053e-07
-6.20463e-11
-9.6782e-09
9.89919e-07
1.1624e-11
-1.08426e-08
9.9529e-07
8.96121e-11
-1.20268e-08
1.00119e-06
1.69676e-10
-1.32324e-08
1.00764e-06
2.50395e-10
-1.4458e-08
1.01466e-06
3.30567e-10
-1.56879e-08
1.02227e-06
4.09403e-10
-1.69124e-08
1.03051e-06
4.86778e-10
-1.81652e-08
1.03942e-06
5.62805e-10
-1.95236e-08
1.04907e-06
6.37522e-10
-2.10606e-08
1.05953e-06
7.11003e-10
-2.28035e-08
1.07088e-06
7.82799e-10
-2.47407e-08
1.08318e-06
8.51787e-10
-2.68468e-08
1.09651e-06
9.16893e-10
-2.90939e-08
1.11091e-06
9.77226e-10
-3.14546e-08
1.12646e-06
1.03239e-09
-3.3903e-08
1.14319e-06
1.08464e-09
-3.64241e-08
1.16118e-06
1.14042e-09
-3.90337e-08
1.1805e-06
1.20968e-09
-4.1777e-08
1.20123e-06
1.30551e-09
-4.4697e-08
1.22346e-06
1.44264e-09
-4.78213e-08
1.2473e-06
1.63686e-09
-5.11684e-08
1.27285e-06
1.9074e-09
-5.47515e-08
1.30021e-06
2.28156e-09
-5.85847e-08
2.79769e-09
-6.26807e-08
9.57478e-07
1.41562e-10
9.57732e-07
-1.41366e-10
-4.94432e-10
9.58269e-07
-1.77741e-10
-1.10853e-09
9.59089e-07
-2.0568e-10
-1.7177e-09
9.60194e-07
-2.20106e-10
-2.32727e-09
9.61588e-07
-2.17241e-10
-2.94046e-09
9.63278e-07
-1.95393e-10
-3.56091e-09
9.65274e-07
-1.5438e-10
-4.19747e-09
9.67594e-07
-9.41215e-11
-4.87801e-09
9.70266e-07
-1.38023e-11
-5.64593e-09
9.73326e-07
8.74659e-11
-6.5337e-09
9.76806e-07
2.07586e-10
-7.53528e-09
9.80731e-07
3.42544e-10
-8.61163e-09
9.8512e-07
4.87059e-10
-9.72372e-09
9.8999e-07
6.35231e-10
-1.08538e-08
9.95362e-07
7.81652e-10
-1.2002e-08
1.00126e-06
9.2244e-10
-1.31741e-08
1.00771e-06
1.05517e-09
-1.43683e-08
1.01473e-06
1.17879e-09
-1.55692e-08
1.02234e-06
1.29483e-09
-1.67716e-08
1.03057e-06
1.40791e-09
-1.80135e-08
1.03948e-06
1.52395e-09
-1.93693e-08
1.04913e-06
1.64798e-09
-2.09019e-08
1.05959e-06
1.7827e-09
-2.2633e-08
1.07093e-06
1.92767e-09
-2.45534e-08
1.08324e-06
2.07981e-09
-2.66406e-08
1.09656e-06
2.23466e-09
-2.88663e-08
1.11096e-06
2.38721e-09
-3.12032e-08
1.1265e-06
2.53358e-09
-3.36344e-08
1.14323e-06
2.67439e-09
-3.61598e-08
1.16123e-06
2.81632e-09
-3.87994e-08
1.18057e-06
2.97068e-09
-4.15828e-08
1.20134e-06
3.15272e-09
-4.45308e-08
1.22362e-06
3.37986e-09
-4.76613e-08
1.24752e-06
3.67087e-09
-5.09989e-08
1.27316e-06
4.04811e-09
-5.45717e-08
1.30063e-06
4.54143e-09
-5.84072e-08
5.18913e-09
-6.25223e-08
9.57465e-07
-1.23323e-10
-5.62137e-10
9.58014e-07
-1.16593e-10
-1.21932e-09
9.58847e-07
-1.0901e-10
-1.847e-09
9.59964e-07
-9.36819e-11
-2.45806e-09
9.61371e-07
-6.43692e-11
-3.068e-09
9.63073e-07
-1.70598e-11
-3.68413e-09
9.65079e-07
5.11851e-11
-4.31332e-09
9.67408e-07
1.44333e-10
-4.98479e-09
9.70091e-07
2.67279e-10
-5.7487e-09
9.73163e-07
4.21871e-10
-6.63635e-09
9.76657e-07
6.03195e-10
-7.62889e-09
9.80593e-07
8.01318e-10
-8.6743e-09
9.84989e-07
1.00553e-09
-9.73246e-09
9.89862e-07
1.20752e-09
-1.0796e-08
9.95234e-07
1.40181e-09
-1.188e-08
1.00113e-06
1.58512e-09
-1.30018e-08
1.00758e-06
1.75531e-09
-1.41647e-08
1.0146e-06
1.91158e-09
-1.53538e-08
1.02221e-06
2.05737e-09
-1.65602e-08
1.03045e-06
2.20101e-09
-1.78158e-08
1.03937e-06
2.3525e-09
-1.91834e-08
1.04904e-06
2.52005e-09
-2.07142e-08
1.05951e-06
2.70787e-09
-2.24275e-08
1.07087e-06
2.91559e-09
-2.43198e-08
1.08318e-06
3.13898e-09
-2.63753e-08
1.09651e-06
3.37135e-09
-2.85691e-08
1.11092e-06
3.60487e-09
-3.08781e-08
1.12647e-06
3.8331e-09
-3.32947e-08
1.14322e-06
4.05548e-09
-3.58286e-08
1.16125e-06
4.27846e-09
-3.84985e-08
1.18063e-06
4.5131e-09
-4.13195e-08
1.20145e-06
4.77444e-09
-4.42971e-08
1.2238e-06
5.08006e-09
-4.74436e-08
1.24779e-06
5.45012e-09
-5.07861e-08
1.27352e-06
5.90935e-09
-5.43611e-08
1.30114e-06
6.48926e-09
-5.82032e-08
7.22714e-09
-6.23334e-08
9.56704e-07
-9.02392e-11
-6.23159e-10
9.5726e-07
-4.1552e-11
-1.2979e-09
9.581e-07
-1.93887e-12
-1.92078e-09
9.59225e-07
3.85325e-11
-2.51579e-09
9.60637e-07
8.90126e-11
-3.11112e-09
9.62343e-07
1.56634e-10
-3.72058e-09
9.64356e-07
2.46713e-10
-4.35008e-09
9.66694e-07
3.65736e-10
-5.02494e-09
9.6939e-07
5.20719e-10
-5.78913e-09
9.72477e-07
7.13419e-10
-6.66442e-09
9.75986e-07
9.35731e-10
-7.62226e-09
9.79936e-07
1.1723e-09
-8.60816e-09
9.84343e-07
1.40826e-09
-9.58803e-09
9.89223e-07
1.6346e-09
-1.05659e-08
9.946e-07
1.84816e-09
-1.15684e-08
1.0005e-06
2.04876e-09
-1.26234e-08
1.00695e-06
2.23596e-09
-1.37428e-08
1.01397e-06
2.40948e-09
-1.49139e-08
1.0216e-06
2.57375e-09
-1.61245e-08
1.02986e-06
2.73882e-09
-1.73965e-08
1.03881e-06
2.91619e-09
-1.87762e-08
1.0485e-06
3.11489e-09
-2.02997e-08
1.05901e-06
3.33955e-09
-2.1983e-08
1.0704e-06
3.59021e-09
-2.38288e-08
1.08274e-06
3.86265e-09
-2.58317e-08
1.0961e-06
4.14941e-09
-2.79753e-08
1.11053e-06
4.44108e-09
-3.02427e-08
1.12611e-06
4.72938e-09
-3.26305e-08
1.1429e-06
5.01309e-09
-3.51497e-08
1.16098e-06
5.29856e-09
-3.7818e-08
1.18042e-06
5.59609e-09
-4.06449e-08
1.20131e-06
5.91873e-09
-4.36306e-08
1.22375e-06
6.28155e-09
-4.67825e-08
1.24784e-06
6.70339e-09
-5.0122e-08
1.2737e-06
7.20898e-09
-5.36833e-08
1.30146e-06
7.82951e-09
-5.75011e-08
8.60035e-09
-6.15979e-08
9.54289e-07
-4.94036e-11
-6.67235e-10
9.54851e-07
2.58003e-11
-1.31589e-09
9.55695e-07
8.42089e-11
-1.90123e-09
9.56818e-07
1.3696e-10
-2.45587e-09
9.58226e-07
1.96454e-10
-3.01633e-09
9.59926e-07
2.72034e-10
-3.60177e-09
9.61935e-07
3.69824e-10
-4.21806e-09
9.64275e-07
4.96395e-10
-4.88148e-09
9.66977e-07
6.58547e-10
-5.62012e-09
9.70075e-07
8.57244e-10
-6.44284e-09
9.73598e-07
1.08251e-09
-7.32106e-09
9.77566e-07
1.31651e-09
-8.21197e-09