/*--------------------------------*- C++ -*----------------------------------*\
| =========                 |                                                 |
| \\      /  F ield         | OpenFOAM: The Open Source CFD Toolbox           |
|  \\    /   O peration     | Version:  2.3.1                                 |
|   \\  /    A nd           | Web:      www.OpenFOAM.org                      |
|    \\/     M anipulation  |                                                 |
\*---------------------------------------------------------------------------*/
FoamFile
{
    version     2.0;
    format      ascii;
    class       volScalarField;
    location    "15";
    object      Sed;
}
// * * * * * * * * * * * * * * * * * * * * * * * * * * * * * * * * * * * * * //

dimensions      [0 0 0 0 0 0 0];

internalField   nonuniform List<scalar> 
37692
(
1.65761e-65
9.96098e-67
5.9314e-68
3.49932e-69
2.04568e-70
1.18521e-71
6.80701e-73
3.87648e-74
2.18961e-75
1.22704e-76
6.82335e-78
3.76587e-79
2.06319e-80
1.12226e-81
6.0617e-83
3.25176e-84
1.73281e-85
9.17493e-87
4.82829e-88
2.52604e-89
1.31416e-90
6.80029e-92
3.50124e-93
1.79431e-94
9.15664e-96
4.65497e-97
2.3584e-98
1.19128e-99
6.00174e-101
3.01701e-102
1.5138e-103
7.58433e-105
3.79595e-106
1.8989e-107
9.49962e-109
4.7554e-110
2.38338e-111
1.19671e-112
1.23984e-63
7.55309e-65
4.55836e-66
2.72502e-67
1.61388e-68
9.47087e-70
5.50837e-71
3.17599e-72
1.81581e-73
1.02967e-74
5.7922e-76
3.23286e-77
1.79063e-78
9.8442e-80
5.37263e-81
2.91141e-82
1.56683e-83
8.37621e-85
4.44938e-86
2.34903e-87
1.23287e-88
6.43418e-90
3.34006e-91
1.72528e-92
8.87114e-94
4.5424e-95
2.31712e-96
1.17799e-97
5.97084e-99
3.0185e-100
1.52255e-101
7.66553e-103
3.85388e-104
1.93579e-105
9.71998e-107
4.88162e-108
2.45359e-109
1.23492e-110
2.35051e-62
1.45111e-63
8.87319e-65
5.37352e-66
3.22329e-67
1.91549e-68
1.12796e-69
6.58323e-71
3.80904e-72
2.18533e-73
1.24345e-74
7.0182e-76
3.93008e-77
2.18391e-78
1.2045e-79
6.5947e-81
3.58503e-82
1.93555e-83
1.0381e-84
5.53225e-86
2.93017e-87
1.54285e-88
8.07856e-90
4.20806e-91
2.1814e-92
1.12579e-93
5.78651e-95
2.96331e-96
1.51253e-97
7.69764e-99
3.90749e-100
1.97924e-101
1.00082e-102
5.05473e-104
2.55127e-105
1.28759e-106
6.50133e-108
3.28619e-109
1.69555e-61
1.05921e-62
6.55282e-64
4.01429e-65
2.43549e-66
1.46366e-67
8.71482e-69
5.14201e-70
3.00715e-71
1.74347e-72
1.0023e-73
5.71463e-75
3.23206e-76
1.81367e-77
1.00995e-78
5.58191e-80
3.06267e-81
1.66859e-82
9.02886e-84
4.85343e-85
2.59236e-86
1.37623e-87
7.26406e-89
3.81351e-90
1.99202e-91
1.03573e-92
5.36216e-94
2.76526e-95
1.42099e-96
7.27884e-98
3.71796e-99
1.89451e-100
9.63474e-102
4.89283e-103
2.48253e-104
1.25916e-105
6.38805e-107
3.24347e-108
5.69716e-61
3.59101e-62
2.24133e-63
1.38513e-64
8.47685e-66
5.13823e-67
3.0854e-68
1.83574e-69
1.08244e-70
6.3266e-72
3.66613e-73
2.10673e-74
1.20078e-75
6.78981e-77
3.80951e-78
2.12118e-79
1.17237e-80
6.43325e-82
3.50562e-83
1.89741e-84
1.02028e-85
5.45218e-87
2.8964e-88
1.53021e-89
8.04293e-91
4.20732e-92
2.19119e-93
1.13656e-94
5.87342e-96
3.02501e-97
1.55332e-98
7.95551e-100
4.0659e-101
2.07467e-102
1.0575e-103
5.38751e-105
2.74485e-106
1.39938e-107
1.00745e-60
6.38053e-62
4.00134e-63
2.48448e-64
1.52758e-65
9.30234e-67
5.61147e-68
3.35379e-69
1.98634e-70
1.16605e-71
6.78625e-73
3.91639e-74
2.2417e-75
1.27288e-76
7.17125e-78
4.00935e-79
2.2249e-80
1.22573e-81
6.70526e-83
3.64306e-84
1.9663e-85
1.05463e-86
5.62295e-88
2.98134e-89
1.57255e-90
8.25469e-92
4.31372e-93
2.24495e-94
1.1639e-95
6.01347e-97
3.09745e-98
1.59122e-99
8.15666e-101
4.17412e-102
2.13364e-103
1.08998e-104
5.56813e-106
2.84617e-107
1.00722e-60
6.37935e-62
4.00086e-63
2.48435e-64
1.52761e-65
9.30307e-67
5.61221e-68
3.35436e-69
1.98671e-70
1.16628e-71
6.78758e-73
3.91718e-74
2.24217e-75
1.27314e-76
7.17252e-78
4.00991e-79
2.22509e-80
1.22576e-81
6.705e-83
3.64268e-84
1.96598e-85
1.0544e-86
5.62154e-88
2.98048e-89
1.57203e-90
8.25162e-92
4.31191e-93
2.24389e-94
1.16329e-95
6.01007e-97
3.09564e-98
1.59032e-99
8.15236e-101
4.17212e-102
2.13272e-103
1.08958e-104
5.56653e-106
2.8457e-107
3.58628e-62
2.23824e-63
1.38359e-64
8.47001e-66
5.13554e-67
3.08454e-68
1.83559e-69
1.08249e-70
6.32752e-72
3.66695e-73
2.10737e-74
1.20123e-75
6.79259e-77
3.81099e-78
2.12185e-79
1.17263e-80
6.43379e-82
3.50539e-83
1.89698e-84
1.01991e-85
5.44949e-87
2.89468e-88
1.52917e-89
8.03668e-91
4.20364e-92
2.18904e-93
1.1353e-94
5.86621e-96
3.021e-97
1.55121e-98
7.94516e-100
4.06113e-101
2.0726e-102
1.05666e-103
5.38458e-105
2.74428e-106
1.39976e-107
1.05821e-62
6.54652e-64
4.01157e-65
2.43461e-66
1.46358e-67
8.71676e-69
5.14431e-70
3.00895e-71
1.74469e-72
1.00308e-73
5.71959e-75
3.23508e-76
1.81537e-77
1.01083e-78
5.58605e-80
3.06439e-81
1.66916e-82
9.02968e-84
4.85255e-85
2.5912e-86
1.37531e-87
7.25785e-89
3.80963e-90
1.98967e-91
1.03434e-92
5.35412e-94
2.76064e-95
1.41837e-96
7.26435e-98
3.71032e-99
1.89072e-100
9.61709e-102
4.88511e-103
2.4794e-104
1.25809e-105
6.38603e-107
3.2449e-108
1.44916e-63
8.86258e-65
5.36939e-66
3.22224e-67
1.91567e-68
1.12851e-69
6.58856e-71
3.81303e-72
2.18796e-73
1.24509e-74
7.02824e-76
3.93599e-77
2.18721e-78
1.20622e-79
6.6031e-81
3.58881e-82
1.93706e-83
1.03858e-84
5.53281e-86
2.92943e-87
1.542e-88
8.07215e-90
4.20387e-91
2.17881e-92
1.12425e-93
5.77752e-95
2.95814e-96
1.50959e-97
7.68137e-99
3.89888e-100
1.97497e-101
9.9887e-103
5.04659e-104
2.54835e-105
1.28689e-106
6.50303e-108
3.29066e-109
7.53788e-65
4.55044e-66
2.72185e-67
1.61294e-68
9.47059e-70
5.51108e-71
3.179e-72
1.81816e-73
1.03125e-74
5.8021e-76
3.23886e-77
1.79416e-78
9.86405e-80
5.3832e-81
2.91673e-82
1.56934e-83
8.38725e-85
4.45366e-86
2.35033e-87
1.23306e-88
6.43305e-90
3.33865e-91
1.72422e-92
8.86416e-94
4.53805e-95
2.3145e-96
1.17644e-97
5.96176e-99
3.01336e-100
1.5198e-101
7.65211e-103
3.84813e-104
1.93379e-105
9.71618e-107
4.88382e-108
2.45743e-109
1.23871e-110
9.93426e-67
5.91738e-68
3.49331e-69
2.04354e-70
1.18475e-71
6.80874e-73
3.87972e-74
2.19246e-75
1.22905e-76
6.8364e-78
3.77398e-79
2.06805e-80
1.12503e-81
6.07676e-83
3.25951e-84
1.73661e-85
9.19256e-87
4.83585e-88
2.52893e-89
1.31512e-90
6.80311e-92
3.50195e-93
1.79443e-94
9.15627e-96
4.65426e-97
2.35774e-98
1.19077e-99
5.99816e-101
3.01469e-102
1.5125e-103
7.5786e-105
3.79438e-106
1.89923e-107
9.50921e-109
4.76542e-110
2.39189e-111
1.20337e-112
3.65192e-64
2.22359e-65
1.34132e-66
8.01487e-68
4.74463e-69
2.78312e-70
1.61802e-71
9.32543e-73
5.32974e-74
3.02133e-75
1.69913e-76
9.48131e-78
5.25045e-79
2.88595e-80
1.57477e-81
8.53215e-83
4.59096e-84
2.45393e-85
1.30332e-86
6.87989e-88
3.61043e-89
1.88405e-90
9.77941e-92
5.05106e-93
2.59701e-94
1.32972e-95
6.78293e-97
3.44837e-98
1.74792e-99
8.83699e-101
4.45778e-102
2.24455e-103
1.12857e-104
5.66943e-106
2.84707e-107
1.43006e-108
7.18871e-110
3.61869e-111
2.29333e-62
1.4156e-63
8.65521e-65
5.24103e-66
3.14349e-67
1.86786e-68
1.09979e-69
6.41815e-71
3.71323e-72
2.13024e-73
1.21204e-74
6.84066e-76
3.83042e-77
2.12835e-78
1.17372e-79
6.42531e-81
3.49238e-82
1.88519e-83
1.0109e-84
5.38623e-86
2.85228e-87
1.50154e-88
7.86056e-90
4.09347e-91
2.12136e-92
1.09444e-93
5.62323e-95
2.8785e-96
1.46859e-97
7.4705e-99
3.7903e-100
1.91885e-101
9.69712e-103
4.89438e-104
2.46853e-105
1.24482e-106
6.2798e-108
3.1711e-109
3.91814e-61
2.4509e-62
1.5183e-63
9.31376e-65
5.65809e-66
3.40465e-67
2.02967e-68
1.19901e-69
7.0203e-71
4.07489e-72
2.34522e-73
1.33857e-74
7.57822e-76
4.25645e-77
2.37225e-78
1.31216e-79
7.20484e-81
3.92799e-82
2.12683e-83
1.14397e-84
6.1139e-86
3.24756e-87
1.71501e-88
9.00727e-90
4.70651e-91
2.44761e-92
1.26731e-93
6.53562e-95
3.35823e-96
1.71995e-97
8.78343e-99
4.47435e-100
2.27462e-101
1.15456e-102
5.85444e-104
2.96723e-105
1.50402e-106
7.62859e-108
2.68442e-60
1.69902e-61
1.06481e-62
6.60721e-64
4.05958e-65
2.47023e-66
1.48893e-67
8.89163e-69
5.26194e-70
3.0864e-71
1.79467e-72
1.03473e-73
5.91648e-75
3.35567e-76
1.88823e-77
1.05431e-78
5.84276e-80
3.21436e-81
1.7559e-82
9.52655e-84
5.13453e-85
2.74988e-86
1.4639e-87
7.74901e-89
4.08014e-90
2.13773e-91
1.1149e-92
5.78997e-94
2.99525e-95
1.54404e-96
7.93447e-98
4.06616e-99
2.07902e-100
1.0611e-101
5.4089e-103
2.75517e-104
1.40318e-105
7.14915e-107
8.82112e-60
5.63272e-61
3.56122e-62
2.22903e-63
1.38138e-64
8.47735e-66
5.15281e-67
3.10276e-68
1.85121e-69
1.09459e-70
6.41534e-72
3.72779e-73
2.14799e-74
1.22757e-75
6.95937e-77
3.91461e-78
2.18518e-79
1.21077e-80
6.66042e-82
3.63837e-83
1.97415e-84
1.06425e-85
5.70211e-87
3.03747e-88
1.60926e-89
8.48271e-91
4.45025e-92
2.32448e-93
1.20924e-94
6.26748e-96
3.23765e-97
1.66764e-98
8.56862e-100
4.39408e-101
2.2501e-102
1.15119e-103
5.88764e-105
3.01187e-106
1.5486e-59
9.93531e-61
6.31099e-62
3.96858e-63
2.47078e-64
1.52324e-65
9.30071e-67
5.62546e-68
3.37114e-69
2.00196e-70
1.17839e-71
6.87641e-73
3.97892e-74
2.28339e-75
1.29983e-76
7.34112e-78
4.11429e-79
2.28862e-80
1.26384e-81
6.93019e-83
3.77431e-84
2.04218e-85
1.09814e-86
5.8706e-88
3.1212e-89
1.65091e-90
8.69043e-92
4.55427e-93
2.37687e-94
1.23582e-95
6.4037e-97
3.30837e-98
1.70491e-99
8.76811e-101
4.50248e-102
2.3098e-103
1.18444e-104
6.07473e-106
1.54833e-59
9.9338e-61
6.31028e-62
3.96834e-63
2.47076e-64
1.5233e-65
9.30148e-67
5.62611e-68
3.37158e-69
2.00224e-70
1.17856e-71
6.87745e-73
3.97954e-74
2.28374e-75
1.3e-76
7.34185e-78
4.11453e-79
2.28864e-80
1.26379e-81
6.92952e-83
3.77376e-84
2.0418e-85
1.0979e-86
5.86909e-88
3.12029e-89
1.65037e-90
8.68724e-92
4.55241e-93
2.3758e-94
1.23523e-95
6.40054e-97
3.30677e-98
1.70413e-99
8.76446e-101
4.50081e-102
2.30906e-103
1.18415e-104
6.07394e-106
5.62619e-61
3.55665e-62
2.2266e-63
1.38024e-64
8.47258e-66
5.15104e-67
3.10223e-68
1.85113e-69
1.09464e-70
6.41616e-72
3.72854e-73
2.14855e-74
1.22792e-75
6.96123e-77
3.91543e-78
2.18545e-79
1.21078e-80
6.65962e-82
3.63744e-83
1.97339e-84
1.06372e-85
5.69876e-87
3.03543e-88
1.60805e-89
8.47554e-91
4.44607e-92
2.32207e-93
1.20786e-94
6.25986e-96
3.23364e-97
1.66565e-98
8.55922e-100
4.38989e-101
2.24835e-102
1.15055e-103
5.88616e-105
3.01241e-106
1.69786e-61
1.06391e-62
6.60279e-64
4.05792e-65
2.46987e-66
1.48906e-67
8.89412e-69
5.26414e-70
3.08799e-71
1.79573e-72
1.03542e-73
5.92073e-75
3.35809e-76
1.88948e-77
1.0549e-78
5.84507e-80
3.21502e-81
1.75589e-82
9.52422e-84
5.13212e-85
2.74805e-86
1.46268e-87
7.74144e-89
4.07558e-90
2.13504e-91
1.11334e-92
5.78101e-94
2.99017e-95
1.54125e-96
7.91969e-98
4.05876e-99
2.07552e-100
1.05954e-101
5.40243e-103
2.75286e-104
1.40269e-105
7.1515e-107
2.44847e-62
1.51679e-63
9.3074e-65
5.65635e-66
3.40484e-67
2.03044e-68
1.19979e-69
7.0263e-71
4.07894e-72
2.34779e-73
1.34015e-74
7.58758e-76
4.26167e-77
2.37497e-78
1.31348e-79
7.21061e-81
3.93016e-82
2.12739e-83
1.14391e-84
6.11169e-86
3.24553e-87
1.71356e-88
8.99803e-90
4.70088e-91
2.44428e-92
1.26538e-93
6.5245e-95
3.35194e-96
1.71647e-97
8.76502e-99
4.46515e-100
2.27033e-101
1.15272e-102
5.84746e-104
2.96526e-105
1.50409e-106
7.63645e-108
1.41338e-63
8.64292e-65
5.23609e-66
3.14213e-67
1.86796e-68
1.10034e-69
6.42383e-71
3.71759e-72
2.13316e-73
1.21387e-74
6.85174e-76
3.83691e-77
2.13198e-78
1.17564e-79
6.43482e-81
3.49677e-82
1.88702e-83
1.01153e-84
5.38756e-86
2.85194e-87
1.50091e-88
7.85541e-90
4.09004e-91
2.11924e-92
1.09316e-93
5.61574e-95
2.87416e-96
1.4661e-97
7.45659e-99
3.78289e-100
1.91519e-101
9.68082e-103
4.8881e-104
2.46674e-105
1.24483e-106
6.28596e-108
3.17841e-109
2.21874e-65
1.33874e-66
8.00413e-68
4.74117e-69
2.78273e-70
1.6187e-71
9.33401e-73
5.33672e-74
3.02612e-75
1.70218e-76
9.49995e-78
5.26148e-79
2.89217e-80
1.5781e-81
8.54897e-83
4.59897e-84
2.45747e-85
1.30471e-86
6.88432e-88
3.61131e-89
1.88392e-90
9.77669e-92
5.04893e-93
2.5956e-94
1.32883e-95
6.77743e-97
3.44504e-98
1.74592e-99
8.82539e-101
4.45154e-102
2.24159e-103
1.12742e-104
5.6666e-106
2.84771e-107
1.43174e-108
7.20625e-110
3.63373e-111
3.43079e-63
2.11387e-64
1.29012e-65
7.7983e-67
4.66919e-68
2.76975e-69
1.62816e-70
9.48666e-72
5.48029e-73
3.13952e-74
1.7839e-75
1.00552e-76
5.6235e-78
3.12094e-79
1.71911e-80
9.40025e-82
5.10372e-83
2.75205e-84
1.47421e-85
7.84707e-87
4.15147e-88
2.18348e-89
1.14204e-90
5.94226e-92
3.07697e-93
1.58624e-94
8.14429e-96
4.16628e-97
2.12431e-98
1.08e-99
5.47671e-101
2.77122e-102
1.39981e-103
7.06196e-105
3.56024e-106
1.79461e-107
9.04995e-109
4.56838e-110
1.91728e-61
1.19758e-62
7.40846e-64
4.53832e-65
2.75328e-66
1.65453e-67
9.85057e-69
5.81179e-70
3.39876e-71
1.97052e-72
1.13283e-73
6.45879e-75
3.6527e-76
2.04942e-77
1.14099e-78
6.30447e-80
3.45799e-81
1.88327e-82
1.01865e-83
5.47347e-85
2.92236e-86
1.55077e-87
8.18143e-89
4.29266e-90
2.24076e-91
1.16412e-92
6.02133e-94
3.10203e-95
1.59228e-96
8.14657e-98
4.15594e-99
2.11481e-100
1.07392e-101
5.44476e-103
2.75755e-104
1.39586e-105
7.06603e-107
3.57906e-108
3.00019e-60
1.89891e-61
1.19014e-62
7.38534e-64
4.53793e-65
2.76143e-66
1.66451e-67
9.94054e-69
5.8829e-70
3.45078e-71
2.00662e-72
1.15695e-73
6.61525e-75
3.7518e-76
2.11093e-77
1.17852e-78
6.53001e-80
3.59178e-81
1.96168e-82
1.06407e-83
5.73376e-85
3.07008e-86
1.63392e-87
8.64613e-89
4.55069e-90
2.38314e-91
1.24221e-92
6.44725e-94
3.33305e-95
1.71695e-96
8.81621e-98
4.5143e-99
2.30608e-100
1.17583e-101
5.98713e-103
3.04603e-104
1.54926e-105
7.88197e-107
1.96062e-59
1.25546e-60
7.95954e-62
4.99574e-63
3.10432e-64
1.9101e-65
1.16401e-66
7.02674e-68
4.20273e-69
2.49099e-70
1.46338e-71
8.52247e-73
4.92131e-74
2.81827e-75
1.60087e-76
9.0215e-78
5.04482e-79
2.79995e-80
1.54274e-81
8.44055e-83
4.58659e-84
2.47608e-85
1.32839e-86
7.08459e-88
3.75734e-89
1.98232e-90
1.04075e-91
5.43932e-93
2.83092e-94
1.46774e-95
7.58349e-97
3.9063e-98
2.00692e-99
1.0289e-100
5.2664e-102
2.69266e-103
1.37597e-104
7.03133e-106
6.30717e-59
4.07421e-60
2.60551e-61
1.64943e-62
1.0337e-63
6.41413e-65
3.94137e-66
2.39886e-67
1.44642e-68
8.64159e-70
5.11668e-71
3.00303e-72
1.7474e-73
1.00824e-74
5.76978e-76
3.27535e-77
1.8448e-78
1.03116e-79
5.72113e-81
3.15148e-82
1.72396e-83
9.36784e-85
5.05804e-86
2.71455e-87
1.44855e-88
7.68844e-90
4.06028e-91
2.1342e-92
1.11693e-93
5.82212e-95
3.02386e-96
1.56546e-97
8.082e-99
4.16291e-100
2.14041e-101
1.09912e-102
5.63992e-104
2.89351e-105
1.09945e-58
7.1352e-60
4.58422e-61
2.91543e-62
1.83545e-63
1.14406e-64
7.06157e-66
4.31696e-67
2.61434e-68
1.56867e-69
9.32771e-71
5.49762e-72
3.21229e-73
1.86113e-74
1.06939e-75
6.09507e-77
3.44659e-78
1.93402e-79
1.07717e-80
5.95601e-82
3.27025e-83
1.78353e-84
9.66466e-86
5.20526e-87
2.78736e-88
1.48451e-89
7.86604e-91
4.1482e-92
2.17792e-93
1.13882e-94
5.93283e-96
3.08063e-97
1.59507e-98
8.23931e-100
4.24802e-101
2.18723e-102
1.12526e-103
5.7876e-105
1.0993e-58
7.13427e-60
4.58371e-61
2.9152e-62
1.83538e-63
1.14406e-64
7.06182e-66
4.31723e-67
2.61454e-68
1.56881e-69
9.32862e-71
5.4982e-72
3.21264e-73
1.86132e-74
1.06949e-75
6.09548e-77
3.44672e-78
1.93402e-79
1.07712e-80
5.95551e-82
3.26985e-83
1.78325e-84
9.66285e-86
5.20413e-87
2.78667e-88
1.4841e-89
7.86363e-91
4.1468e-92
2.17712e-93
1.13837e-94
5.93043e-96
3.07941e-97
1.59447e-98
8.23645e-100
4.24671e-101
2.18667e-102
1.12505e-103
5.78714e-105
4.06985e-60
2.60231e-61
1.64763e-62
1.03281e-63
6.4101e-65
3.93969e-66
2.39823e-67
1.44621e-68
8.64118e-70
5.11683e-71
3.00333e-72
1.74766e-73
1.00842e-74
5.77074e-76
3.27576e-77
1.84491e-78
1.03113e-79
5.72035e-81
3.1507e-82
1.72335e-83
9.36362e-85
5.05534e-86
2.7129e-87
1.44757e-88
7.68261e-90
4.05688e-91
2.13224e-92
1.11581e-93
5.81594e-95
3.02058e-96
1.56381e-97
8.07411e-99
4.15934e-100
2.1389e-101
1.09857e-102
5.63866e-104
2.89398e-105
1.25481e-60
7.95344e-62
4.9923e-63
3.10281e-64
1.90961e-65
1.16395e-66
7.02753e-68
4.20374e-69
2.49182e-70
1.46398e-71
8.52652e-73
4.92387e-74
2.81976e-75
1.60164e-76
9.02511e-78
5.04621e-79
2.80029e-80
1.54265e-81
8.43847e-83
4.5846e-84
2.4746e-85
1.32741e-86
7.07845e-88
3.75364e-89
1.98013e-90
1.03946e-91
5.43194e-93
2.82673e-94
1.46542e-95
7.57121e-97
3.90009e-98
2.00394e-99
1.02755e-100
5.26079e-102
2.69066e-103
1.37556e-104
7.03361e-106
1.89749e-61
1.18911e-62
7.38053e-64
4.53637e-65
2.76134e-66
1.66492e-67
9.94529e-69
5.88674e-70
3.45346e-71
2.00836e-72
1.15804e-73
6.62172e-75
3.75544e-76
2.11284e-77
1.17944e-78
6.53402e-80
3.59323e-81
1.96198e-82
1.06395e-83
5.73164e-85
3.06825e-86
1.63264e-87
8.638e-89
4.54574e-90
2.3802e-91
1.2405e-92
6.43733e-94
3.32741e-95
1.71382e-96
8.79958e-98
4.50591e-99
2.30211e-100
1.17409e-101
5.98042e-103
3.04406e-104
1.54926e-105
7.88893e-107
1.19606e-62
7.39948e-64
4.53458e-65
2.75225e-66
1.65462e-67
9.8549e-69
5.81625e-70
3.4022e-71
1.97283e-72
1.13429e-73
6.46764e-75
3.65788e-76
2.05232e-77
1.14252e-78
6.31202e-80
3.46143e-81
1.88465e-82
1.01908e-83
5.47395e-85
2.92169e-86
1.55e-87
8.1757e-89
4.28896e-90
2.2385e-91
1.16277e-92
6.01339e-94
3.09742e-95
1.58964e-96
8.13177e-98
4.14803e-99
2.11086e-100
1.07212e-101
5.43751e-103
2.75523e-104
1.3956e-105
7.07085e-107
3.58576e-108
2.11e-64
1.28802e-65
7.7898e-67
4.66673e-68
2.76976e-69
1.62896e-70
9.49543e-72
5.48716e-73
3.14416e-74
1.78681e-75
1.00729e-76
5.63388e-78
3.12675e-79
1.72219e-80
9.41561e-82
5.11088e-83
2.75506e-84
1.47528e-85
7.84963e-87
4.1513e-88
2.18278e-89
1.14146e-90
5.93843e-92
3.07464e-93
1.58483e-94
8.13593e-96
4.16132e-97
2.1214e-98
1.07834e-99
5.4678e-101
2.7669e-102
1.398e-103
7.05614e-105
3.55962e-106
1.79584e-107
9.06638e-109
4.58369e-110
1.87921e-62
1.16997e-63
7.21408e-65
4.40501e-66
2.66398e-67
1.59594e-68
9.47325e-70
5.57282e-71
3.24976e-72
1.87903e-73
1.07743e-74
6.12748e-76
3.45686e-77
1.9349e-78
1.0747e-79
5.92451e-81
3.24223e-82
1.76186e-83
9.50929e-85
5.09894e-86
2.71686e-87
1.43885e-88
7.57624e-90
3.9676e-91
2.06727e-92
1.07208e-93
5.53578e-95
2.8472e-96
1.45917e-97
7.45416e-99
3.79706e-100
1.92937e-101
9.7833e-103
4.95304e-104
2.50499e-105
1.26627e-106
6.40134e-108
3.23835e-109
9.56343e-61
6.03574e-62
3.77224e-63
2.33433e-64
1.43041e-65
8.681e-67
5.21895e-68
3.10882e-69
1.83529e-70
1.07397e-71
6.23063e-73
3.58423e-74
2.04483e-75
1.15715e-76
6.49642e-78
3.61903e-79
2.00096e-80
1.09828e-81
5.98583e-83
3.24023e-84
1.74249e-85
9.3115e-87
4.94589e-88
2.61208e-89
1.37213e-90
7.17178e-92
3.7311e-93
1.93279e-94
9.97305e-96
5.12771e-97
2.62801e-98
1.34309e-99
6.84771e-101
3.48459e-102
1.77072e-103
8.99027e-105
4.56303e-106
2.31651e-107
1.4068e-59
8.99588e-61
5.69564e-62
3.57008e-63
2.21552e-64
1.36146e-65
8.28617e-67
4.99585e-68
2.98441e-69
1.76678e-70
1.03672e-71
6.03066e-73
3.47835e-74
1.9896e-75
1.12881e-76
6.35362e-78
3.54862e-79
1.96713e-80
1.08254e-81
5.91553e-83
3.2106e-84
1.73114e-85
9.27594e-87
4.94081e-88
2.61697e-89
1.37881e-90
7.2289e-92
3.77268e-93
1.96062e-94
1.01498e-95
5.23609e-97
2.69283e-98
1.38119e-99
7.0687e-101
3.61149e-102
1.84298e-103
9.39887e-105
4.79273e-106
8.88243e-59
5.74571e-60
3.67947e-61
2.33244e-62
1.46367e-63
9.09382e-65
5.595e-66
3.40948e-67
2.05823e-68
1.23111e-69
7.29756e-71
4.28755e-72
2.49731e-73
1.44227e-74
8.26055e-76
4.69297e-77
2.64514e-78
1.47948e-79
8.21342e-81
4.52683e-82
2.47756e-83
1.34687e-84
7.2748e-86
3.90525e-87
2.08425e-88
1.10629e-89
5.8418e-91
3.06998e-92
1.60615e-93
8.3685e-95
4.34396e-96
2.24735e-97
1.15929e-98
5.96552e-100
3.06377e-101
1.57122e-102
8.05043e-104
4.12319e-105
2.81334e-58
1.83567e-59
1.18565e-60
7.58005e-62
4.79689e-63
3.00524e-64
1.86425e-65
1.1453e-66
6.96957e-68
4.20185e-69
2.51016e-70
1.48617e-71
8.72213e-73
5.07504e-74
2.9282e-75
1.67568e-76
9.51246e-78
5.35799e-79
2.9951e-80
1.66196e-81
9.15651e-83
5.0102e-84
2.72347e-85
1.47118e-86
7.89992e-88
4.21828e-89
2.24051e-90
1.18413e-91
6.22932e-93
3.26304e-94
1.70257e-95
8.85241e-97
4.58859e-98
2.37224e-99
1.2238e-100
6.30314e-102
3.24283e-103
1.66741e-104
4.87961e-58
3.19859e-59
2.07543e-60
1.33291e-61
8.47322e-63
5.33226e-64
3.32247e-65
2.05012e-66
1.25298e-67
7.58642e-69
4.55129e-70
2.70594e-71
1.59466e-72
9.31664e-74
5.39728e-75
3.10096e-76
1.76729e-77
9.99314e-79
5.60752e-80
3.12328e-81
1.72714e-82
9.48498e-84
5.17442e-85
2.80503e-86
1.51148e-87
8.09829e-89
4.31572e-90
2.28835e-91
1.20767e-92
6.34572e-94
3.3211e-95
1.73191e-96
9.00322e-98
4.66765e-99
2.41455e-100
1.2469e-101
6.43148e-103
3.3152e-104
4.87912e-58
3.19823e-59
2.07522e-60
1.33279e-61
8.47274e-63
5.33212e-64
3.32248e-65
2.05017e-66
1.25303e-67
7.58679e-69
4.55155e-70
2.70611e-71
1.59476e-72
9.31726e-74
5.39759e-75
3.10108e-76
1.76732e-77
9.99304e-79
5.60729e-80
3.12305e-81
1.72696e-82
9.48372e-84
5.1736e-85
2.80452e-86
1.51117e-87
8.09644e-89
4.31462e-90
2.28771e-91
1.2073e-92
6.34366e-94
3.32e-95
1.73134e-96
9.00041e-98
4.66631e-99
2.41394e-100
1.24664e-101
6.43062e-103
3.31509e-104
1.83381e-59
1.18425e-60
7.57179e-62
4.79261e-63
3.0032e-64
1.86334e-65
1.14492e-66
6.96803e-68
4.2013e-69
2.51002e-70
1.48619e-71
8.72261e-73
5.07545e-74
2.92843e-75
1.67576e-76
9.51246e-78
5.35762e-79
2.99465e-80
1.66156e-81
9.15349e-83
5.00816e-84
2.72217e-85
1.47038e-86
7.89513e-88
4.21544e-89
2.23884e-90
1.18317e-91
6.22385e-93
3.26002e-94
1.70096e-95
8.84425e-97
4.58464e-98
2.37043e-99
1.22304e-100
6.30037e-102
3.24222e-103
1.66769e-104
5.74348e-60
3.67691e-61
2.33084e-62
1.46289e-63
9.0907e-65
5.59408e-66
3.40943e-67
2.05844e-68
1.23134e-69
7.29943e-71
4.2889e-72
2.49819e-73
1.44279e-74
8.2633e-76
4.69422e-77
2.6456e-78
1.47955e-79
8.21265e-81
4.5257e-82
2.47656e-83
1.34614e-84
7.27002e-86
3.90227e-87
2.08245e-88
1.10521e-89
5.8355e-91
3.06633e-92
1.60407e-93
8.357e-95
4.33781e-96
2.24422e-97
1.15777e-98
5.95863e-100
3.0609e-101
1.57021e-102
8.04855e-104
4.12458e-105
8.99081e-61
5.6914e-62
3.5679e-63
2.21472e-64
1.36134e-65
8.28738e-67
4.99756e-68
2.98588e-69
1.76784e-70
1.03742e-71
6.03505e-73
3.48099e-74
1.99109e-75
1.12959e-76
6.3574e-78
3.55023e-79
1.96767e-80
1.08261e-81
5.91462e-83
3.20941e-84
1.73018e-85
9.26933e-87
4.93662e-88
2.61441e-89
1.37729e-90
7.21992e-92
3.76746e-93
1.95764e-94
1.01332e-95
5.22719e-97
2.6883e-98
1.37902e-99
7.05914e-101
3.60775e-102
1.84186e-103
9.39864e-105
4.79648e-106
6.0295e-62
3.76833e-63
2.33267e-64
1.42996e-65
8.68151e-67
5.221e-68
3.11091e-69
1.8369e-70
1.07505e-71
6.23744e-73
3.58834e-74
2.04723e-75
1.15849e-76
6.50345e-78
3.62249e-79
2.00251e-80
1.09888e-81
5.98743e-83
3.24015e-84
1.74197e-85
9.3066e-87
4.94243e-88
2.60988e-89
1.3708e-90
7.16379e-92
3.72638e-93
1.93002e-94
9.95709e-96
5.11873e-97
2.62318e-98
1.34066e-99
6.83645e-101
3.47993e-102
1.76913e-103
8.98743e-105
4.56516e-106
2.32008e-107
1.16811e-63
7.20394e-65
4.40099e-66
2.66293e-67
1.59606e-68
9.47797e-70
5.57768e-71
3.25357e-72
1.88157e-73
1.07901e-74
6.13699e-76
3.46238e-77
1.93797e-78
1.07632e-79
5.93247e-81
3.24586e-82
1.76331e-83
9.5138e-85
5.09948e-86
2.71626e-87
1.43818e-88
7.5715e-90
3.96466e-91
2.06551e-92
1.07103e-93
5.52953e-95
2.84349e-96
1.45699e-97
7.44165e-99
3.7903e-100
1.92603e-101
9.7687e-103
4.94773e-104
2.50378e-105
1.26663e-106
6.40971e-108
3.24685e-109
7.02437e-62
4.41286e-63
2.74532e-64
1.69113e-65
1.03166e-66
6.23373e-68
3.73173e-69
2.21368e-70
1.30155e-71
7.58629e-73
4.38444e-74
2.51293e-75
1.42852e-76
8.05556e-78
4.50695e-79
2.50225e-80
1.3789e-81
7.54393e-83
4.09859e-84
2.21182e-85
1.18588e-86
6.31852e-88
3.34652e-89
1.76246e-90
9.23311e-92
4.81326e-93
2.49778e-94
1.29077e-95
6.64474e-97
3.40873e-98
1.74327e-99
8.89095e-101
4.52397e-102
2.29765e-103
1.16537e-104
5.90605e-106
2.99239e-107
1.51662e-108
3.35329e-60
2.13536e-61
1.34641e-62
8.40499e-64
5.19503e-65
3.17984e-66
1.92787e-67
1.15797e-68
6.89214e-70
4.06565e-71
2.37741e-72
1.37828e-73
7.92322e-75
4.51719e-76
2.55456e-77
1.43327e-78
7.97984e-80
4.4098e-81
2.41938e-82
1.31812e-83
7.13297e-85
3.83498e-86
2.04904e-87
1.08835e-88
5.74863e-90
3.02054e-91
1.57937e-92
8.2208e-94
4.26118e-95
2.2003e-96
1.13221e-97
5.80794e-99
2.97135e-100
1.51681e-101
7.72992e-103
3.93465e-104
2.0015e-105
1.01804e-106
4.72811e-59
3.05026e-60
1.94819e-61
1.23175e-62
7.70971e-64
4.77792e-65
2.93231e-66
1.78253e-67
1.0735e-68
6.40601e-70
3.7885e-71
2.22083e-72
1.29063e-73
7.43715e-75
4.25017e-76
2.40926e-77
1.35497e-78
7.56208e-80
4.18906e-81
2.30386e-82
1.25825e-83
6.82581e-85
3.6791e-86
1.97087e-87
1.04965e-88
5.5596e-90
2.92955e-91
1.53626e-92
8.02016e-94
4.16977e-95
2.15978e-96
1.11491e-97
5.73842e-99
2.94619e-100
1.50958e-101
7.72332e-103
3.94756e-104
2.01678e-105
2.9155e-58
1.90247e-59
1.22887e-60
7.85678e-62
4.97224e-63
3.1152e-64
1.93251e-65
1.18725e-66
7.22489e-68
4.35575e-69
2.60204e-70
1.54048e-71
9.04004e-73
5.25931e-74
3.03398e-75
1.73582e-76
9.85126e-78
5.54713e-79
3.09978e-80
1.7194e-81
9.46916e-83
5.17896e-84
2.8138e-85
1.51911e-86
8.15209e-88
4.3498e-89
2.3085e-90
1.21898e-91
6.40641e-93
3.35224e-94
1.7471e-95
9.0726e-97
4.69634e-98
2.42437e-99
1.24869e-100
6.42012e-102
3.29677e-103
1.69167e-104
9.13924e-58
6.01503e-59
3.91845e-60
2.52644e-61
1.61228e-62
1.01849e-63
6.36999e-65
3.94511e-66
2.4199e-67
1.4704e-68
8.85203e-70
5.28079e-71
3.12233e-72
1.83004e-73
1.06346e-74
6.12833e-76
3.50278e-77
1.98619e-78
1.11754e-79
6.24071e-81
3.45969e-82
1.90451e-83
1.04134e-84
5.65713e-86
3.05438e-87
1.63949e-88
8.75164e-90
4.64738e-91
2.45588e-92
1.29193e-93
6.76793e-95
3.53209e-96
1.83717e-97
9.52797e-99
4.92938e-100
2.5453e-101
1.31238e-102
6.76049e-104
1.58032e-57
1.04486e-58
6.83764e-60
4.42853e-61
2.83881e-62
1.80129e-63
1.13155e-64
7.03858e-66
4.33604e-67
2.64592e-68
1.5996e-69
9.5824e-71
5.68907e-72
3.34802e-73
1.95342e-74
1.13016e-75
6.48504e-77
3.69148e-78
2.08495e-79
1.16868e-80
6.50282e-82
3.59276e-83
1.97149e-84
1.07479e-85
5.8231e-87
3.13627e-88
1.67973e-89
8.94891e-91
4.74404e-92
2.50337e-93
1.3154e-94
6.88516e-96
3.59153e-97
1.86786e-98
9.6898e-100
5.01651e-101
2.59315e-102
1.33911e-103
1.58019e-57
1.04476e-58
6.83696e-60
4.42814e-61
2.83861e-62
1.80121e-63
1.13153e-64
7.03855e-66
4.33608e-67
2.64597e-68
1.59964e-69
9.58271e-71
5.68927e-72
3.34814e-73
1.95347e-74
1.13018e-75
6.48505e-77
3.6914e-78
2.08486e-79
1.1686e-80
6.50223e-82
3.59235e-83
1.97122e-84
1.07463e-85
5.8221e-87
3.13567e-88
1.67937e-89
8.9468e-91
4.74283e-92
2.50269e-93
1.31503e-94
6.88328e-96
3.5906e-97
1.86742e-98
9.68783e-100
5.01573e-101
2.59292e-102
1.33912e-103
6.00916e-59
3.91395e-60
2.52371e-61
1.61081e-62
1.01777e-63
6.36656e-65
3.94355e-66
2.41922e-67
1.47011e-68
8.85092e-70
5.28044e-71
3.12227e-72
1.83004e-73
1.06347e-74
6.12827e-76
3.50261e-77
1.98599e-78
1.11736e-79
6.23924e-81
3.45863e-82
1.90381e-83
1.0409e-84
5.6544e-86
3.05273e-87
1.63851e-88
8.74588e-90
4.64404e-91
2.45398e-92
1.29087e-93
6.7623e-95
3.52922e-96
1.83577e-97
9.52154e-99
4.92666e-100
2.54432e-101
1.31219e-102
6.76172e-104
1.90189e-59
1.22809e-60
7.85148e-62
4.96944e-63
3.11396e-64
1.93205e-65
1.18713e-66
7.22486e-68
4.35607e-69
2.60239e-70
1.54077e-71
9.04202e-73
5.26051e-74
3.03461e-75
1.7361e-76
9.85212e-78
5.54708e-79
3.09939e-80
1.71897e-81
9.46562e-83
5.17645e-84
2.81216e-85
1.51809e-86
8.14589e-88
4.34609e-89
2.30631e-90
1.2177e-91
6.3991e-93
3.34817e-94
1.74492e-95
9.0614e-97
4.69089e-98
2.42187e-99
1.24765e-100
6.41655e-102
3.29619e-103
1.69226e-104
3.04893e-60
1.94692e-61
1.23105e-62
7.70689e-64
4.77727e-65
2.93252e-66
1.78295e-67
1.07389e-68
6.40894e-70
3.79047e-71
2.22207e-72
1.29138e-73
7.44138e-75
4.25239e-76
2.41032e-77
1.35541e-78
7.56341e-80
4.18907e-81
2.30345e-82
1.2578e-83
6.82231e-85
3.67673e-86
1.96938e-87
1.04874e-88
5.55412e-90
2.92629e-91
1.53434e-92
8.00912e-94
4.16357e-95
2.15643e-96
1.1132e-97
5.73016e-99
2.9425e-100
1.50812e-101
7.7188e-103
3.94731e-104
2.01811e-105
2.1335e-61
1.34519e-62
8.39973e-64
5.19362e-65
3.18004e-66
1.92855e-67
1.15865e-68
6.89736e-70
4.06919e-71
2.37962e-72
1.3796e-73
7.93086e-75
4.52142e-76
2.55677e-77
1.43435e-78
7.98458e-80
4.41152e-81
2.41974e-82
1.31798e-83
7.13059e-85
3.83297e-86
2.04767e-87
1.08749e-88
5.7434e-90
3.01739e-91
1.57748e-92
8.20957e-94
4.25462e-95
2.19658e-96
1.13019e-97
5.79769e-99
2.96654e-100
1.51475e-101
7.7222e-103
3.93265e-104
2.00182e-105
1.01913e-106
4.4066e-63
2.74188e-64
1.68981e-65
1.03135e-66
6.23454e-68
3.7336e-69
2.21546e-70
1.30288e-71
7.59534e-73
4.39013e-74
2.51633e-75
1.43047e-76
8.06634e-78
4.51258e-79
2.505e-80
1.38013e-81
7.54858e-83
4.0998e-84
2.21174e-85
1.18551e-86
6.31523e-88
3.34434e-89
1.76114e-90
9.22525e-92
4.80851e-93
2.49488e-94
1.28901e-95
6.63425e-97
3.40267e-98
1.73991e-99
8.87365e-101
4.5158e-102
2.29418e-103
1.16413e-104
5.90326e-106
2.99334e-107
1.51872e-108
1.96468e-61
1.24385e-62
7.79759e-64
4.83982e-65
2.97462e-66
1.81072e-67
1.0919e-68
6.524e-70
3.86314e-71
2.26748e-72
1.31945e-73
7.61322e-75
4.35641e-76
2.47248e-77
1.39204e-78
7.77619e-80
4.31097e-81
2.37236e-82
1.29626e-83
7.03425e-85
3.79186e-86
2.03095e-87
1.08113e-88
5.7218e-90
3.01178e-91
1.57724e-92
8.2206e-94
4.26579e-95
2.20463e-96
1.13517e-97
5.82547e-99
2.98058e-100
1.52106e-101
7.74572e-103
3.93791e-104
1.99981e-105
1.01501e-106
5.15171e-108
8.99231e-60
5.77028e-61
3.666e-62
2.30572e-63
1.43574e-64
8.8527e-66
5.40617e-67
3.27046e-68
1.96029e-69
1.1644e-70
6.85528e-72
4.00093e-73
2.3151e-74
1.32838e-75
7.55957e-77
4.26752e-78
2.39029e-79
1.32867e-80
7.33135e-82
4.01651e-83
2.18533e-84
1.18111e-85
6.34297e-87
3.38571e-88
1.79682e-89
9.48424e-91
4.98074e-92
2.60331e-93
1.35471e-94
7.02111e-96
3.62543e-97
1.86581e-98
9.57433e-100
4.90089e-101
2.50368e-102
1.27715e-103
6.50866e-105
3.31562e-106
1.23312e-58
8.01571e-60
5.15803e-61
3.28543e-62
2.07152e-63
1.29311e-64
7.99306e-66
4.89331e-67
2.96748e-68
1.78298e-69
1.06157e-70
6.26429e-72
3.66421e-73
2.12495e-74
1.22196e-75
6.96924e-77
3.94297e-78
2.21343e-79
1.23314e-80
6.8196e-82
3.74465e-83
2.0421e-84
1.1063e-85
5.95563e-87
3.18694e-88
1.6957e-89
8.97422e-91
4.72564e-92
2.47677e-93
1.29247e-94
6.71776e-96
3.47903e-97
1.79601e-98
9.24621e-100
4.7493e-101
2.43512e-102
1.24697e-103
6.38065e-105
7.48949e-58
4.92383e-59
3.20406e-60
2.06356e-61
1.31544e-62
8.30075e-64
5.18591e-65
3.20832e-66
1.96586e-67
1.19324e-68
7.17586e-70
4.27627e-71
2.52565e-72
1.47868e-73
8.58311e-75
4.94046e-76
2.82052e-77
1.59743e-78
8.97715e-80
5.00703e-81
2.77234e-82
1.52422e-83
8.32337e-85
4.51571e-86
2.43477e-87
1.30505e-88
6.95623e-90
3.68837e-91
1.94604e-92
1.02206e-93
5.34517e-95
2.78469e-96
1.44576e-97
7.48372e-99
3.86401e-100
1.99098e-101
1.0243e-102
5.26417e-104
2.33358e-57
1.54728e-58
1.01538e-59
6.59439e-61
4.23865e-62
2.69671e-63
1.69849e-64
1.05923e-65
6.5418e-67
4.00181e-68
2.42516e-69