/*--------------------------------*- C++ -*----------------------------------*\
| =========                 |                                                 |
| \\      /  F ield         | OpenFOAM: The Open Source CFD Toolbox           |
|  \\    /   O peration     | Version:  2.3.1                                 |
|   \\  /    A nd           | Web:      www.OpenFOAM.org                      |
|    \\/     M anipulation  |                                                 |
\*---------------------------------------------------------------------------*/
FoamFile
{
    version     2.0;
    format      ascii;
    class       volScalarField;
    location    "15";
    object      Sed_0;
}
// * * * * * * * * * * * * * * * * * * * * * * * * * * * * * * * * * * * * * //

dimensions      [0 0 0 0 0 0 0];

internalField   nonuniform List<scalar> 
37692
(
1.64285e-65
9.87119e-67
5.87727e-68
3.467e-69
2.02655e-70
1.174e-71
6.74182e-73
3.83891e-74
2.16814e-75
1.21486e-76
6.75488e-78
3.72765e-79
2.04201e-80
1.11061e-81
5.99809e-83
3.21726e-84
1.71422e-85
9.07545e-87
4.77538e-88
2.49806e-89
1.29945e-90
6.72339e-92
3.46123e-93
1.7736e-94
9.04988e-96
4.60015e-97
2.33034e-98
1.17697e-99
5.92893e-101
2.98005e-102
1.49507e-103
7.48963e-105
3.7481e-106
1.87474e-107
9.37764e-109
4.69377e-110
2.35221e-111
1.18092e-112
1.22893e-63
7.48578e-65
4.51723e-66
2.70013e-67
1.59895e-68
9.38222e-70
5.45619e-71
3.14554e-72
1.79819e-73
1.01956e-74
5.73469e-76
3.20039e-77
1.77244e-78
9.74306e-80
5.31682e-81
2.88083e-82
1.55019e-83
8.28628e-85
4.4011e-86
2.32326e-87
1.2192e-88
6.36211e-90
3.30226e-91
1.70555e-92
8.76866e-94
4.48939e-95
2.28981e-96
1.16397e-97
5.89906e-99
2.98186e-100
1.50389e-101
7.57066e-103
3.80573e-104
1.91138e-105
9.59624e-107
4.8189e-108
2.42177e-109
1.21877e-110
2.33004e-62
1.43831e-63
8.79393e-65
5.32493e-66
3.19377e-67
1.89774e-68
1.11738e-69
6.52072e-71
3.77244e-72
2.16408e-73
1.23121e-74
6.94836e-76
3.89052e-77
2.16168e-78
1.1921e-79
6.52605e-81
3.54729e-82
1.91495e-83
1.02693e-84
5.47209e-86
2.89797e-87
1.52572e-88
7.98789e-90
4.16034e-91
2.15641e-92
1.11276e-93
5.71886e-95
2.92832e-96
1.49449e-97
7.60494e-99
3.85997e-100
1.95494e-101
9.88416e-103
4.99146e-104
2.51904e-105
1.27117e-106
6.41766e-108
3.24351e-109
1.68088e-61
1.04993e-62
6.49467e-64
3.97822e-65
2.41333e-66
1.45018e-67
8.63357e-69
5.09349e-70
2.97843e-71
1.72662e-72
9.92497e-74
5.65811e-75
3.19973e-76
1.79531e-77
9.9961e-79
5.52414e-80
3.03062e-81
1.65094e-82
8.93229e-84
4.80096e-85
2.56403e-86
1.36103e-87
7.183e-89
3.77051e-90
1.96932e-91
1.02381e-92
5.29982e-94
2.73279e-95
1.40414e-96
7.19166e-98
3.67299e-99
1.87137e-100
9.51594e-102
4.83193e-103
2.45133e-104
1.24319e-105
6.30627e-107
3.20157e-108
5.648e-61
3.55962e-62
2.2215e-63
1.37272e-64
8.39994e-66
5.09104e-67
3.05672e-68
1.81847e-69
1.07213e-70
6.26564e-72
3.63039e-73
2.08595e-74
1.1888e-75
6.7213e-77
3.77063e-78
2.09929e-79
1.16014e-80
6.36538e-82
3.46823e-83
1.87695e-84
1.00917e-85
5.39214e-87
2.86417e-88
1.51301e-89
7.95156e-91
4.15904e-92
2.16579e-93
1.12325e-94
5.80395e-96
2.98888e-97
1.53458e-98
7.85862e-100
4.01591e-101
2.04892e-102
1.04425e-103
5.31937e-105
2.70981e-106
1.38135e-107
9.98761e-61
6.32479e-62
3.96595e-63
2.46222e-64
1.51373e-65
9.21694e-67
5.55933e-68
3.32225e-69
1.96743e-70
1.15483e-71
6.72013e-73
3.87778e-74
2.21935e-75
1.26005e-76
7.09811e-78
3.96801e-79
2.2017e-80
1.21281e-81
6.63379e-83
3.60381e-84
1.94489e-85
1.04302e-86
5.56042e-88
2.94785e-89
1.5547e-90
8.16003e-92
4.26375e-93
2.21868e-94
1.15014e-95
5.94171e-97
3.06012e-98
1.57186e-99
8.05645e-101
4.12235e-102
2.10692e-103
1.0762e-104
5.4971e-106
2.80953e-107
9.98534e-61
6.32363e-62
3.96547e-63
2.4621e-64
1.51375e-65
9.21767e-67
5.56006e-68
3.32281e-69
1.9678e-70
1.15505e-71
6.72145e-73
3.87857e-74
2.21981e-75
1.2603e-76
7.09937e-78
3.96855e-79
2.20189e-80
1.21284e-81
6.63354e-83
3.60344e-84
1.94458e-85
1.0428e-86
5.55903e-88
2.94699e-89
1.55419e-90
8.15699e-92
4.26196e-93
2.21764e-94
1.14954e-95
5.93834e-97
3.05834e-98
1.57097e-99
8.0522e-101
4.12038e-102
2.10602e-103
1.07581e-104
5.49553e-106
2.80907e-107
3.55493e-62
2.21843e-63
1.37119e-64
8.39316e-66
5.08837e-67
3.05587e-68
1.81832e-69
1.07219e-70
6.26655e-72
3.6312e-73
2.08659e-74
1.18925e-75
6.72404e-77
3.77209e-78
2.09995e-79
1.16039e-80
6.36592e-82
3.468e-83
1.87653e-84
1.00879e-85
5.38948e-87
2.86247e-88
1.51197e-89
7.94538e-91
4.15539e-92
2.16366e-93
1.12201e-94
5.79683e-96
2.98492e-97
1.5325e-98
7.8484e-100
4.0112e-101
2.04687e-102
1.04342e-103
5.31647e-105
2.70925e-106
1.38172e-107
1.04894e-62
6.48842e-64
3.97552e-65
2.41246e-66
1.4501e-67
8.63549e-69
5.09577e-70
2.98022e-71
1.72783e-72
9.93273e-74
5.66302e-75
3.20272e-76
1.797e-77
1.00048e-78
5.52824e-80
3.03232e-81
1.6515e-82
8.93311e-84
4.80009e-85
2.56289e-86
1.36012e-87
7.17686e-89
3.76667e-90
1.96701e-91
1.02244e-92
5.29188e-94
2.72822e-95
1.40155e-96
7.17734e-98
3.66545e-99
1.86763e-100
9.4985e-102
4.8243e-103
2.44825e-104
1.24213e-105
6.30427e-107
3.20297e-108
1.43637e-63
8.78342e-65
5.32083e-66
3.19273e-67
1.89792e-68
1.11792e-69
6.526e-71
3.77639e-72
2.16669e-73
1.23284e-74
6.9583e-76
3.89638e-77
2.16495e-78
1.19381e-79
6.53436e-81
3.55103e-82
1.91644e-83
1.0274e-84
5.47264e-86
2.89724e-87
1.52487e-88
7.98156e-90
4.1562e-91
2.15385e-92
1.11124e-93
5.70998e-95
2.92321e-96
1.49159e-97
7.58886e-99
3.85146e-100
1.95072e-101
9.86486e-103
4.98343e-104
2.51615e-105
1.27048e-106
6.41932e-108
3.24791e-109
7.47072e-65
4.50939e-66
2.69699e-67
1.59802e-68
9.38194e-70
5.45887e-71
3.14852e-72
1.80052e-73
1.02112e-74
5.74449e-76
3.20633e-77
1.77594e-78
9.76271e-80
5.32727e-81
2.88609e-82
1.55268e-83
8.29721e-85
4.40533e-86
2.32455e-87
1.21939e-88
6.36099e-90
3.30086e-91
1.7045e-92
8.76176e-94
4.48509e-95
2.28722e-96
1.16243e-97
5.89009e-99
2.97678e-100
1.50117e-101
7.55741e-103
3.80004e-104
1.9094e-105
9.59248e-107
4.82106e-108
2.42555e-109
1.2225e-110
9.84472e-67
5.86338e-68
3.46104e-69
2.02443e-70
1.17354e-71
6.74353e-73
3.84212e-74
2.17096e-75
1.21686e-76
6.7678e-78
3.73568e-79
2.04682e-80
1.11336e-81
6.01298e-83
3.22493e-84
1.71799e-85
9.09289e-87
4.78285e-88
2.50092e-89
1.30041e-90
6.72618e-92
3.46194e-93
1.77372e-94
9.04951e-96
4.59945e-97
2.3297e-98
1.17647e-99
5.9254e-101
2.97776e-102
1.4938e-103
7.48397e-105
3.74655e-106
1.87507e-107
9.38708e-109
4.70365e-110
2.3606e-111
1.18748e-112
3.61984e-64
2.2038e-65
1.32924e-66
7.94176e-68
4.70081e-69
2.75711e-70
1.60271e-71
9.23614e-73
5.27811e-74
2.99172e-75
1.68228e-76
9.3862e-78
5.19718e-79
2.85634e-80
1.55843e-81
8.44263e-83
4.54226e-84
2.42761e-85
1.28919e-86
6.80452e-88
3.57046e-89
1.86297e-90
9.66885e-92
4.99337e-93
2.56705e-94
1.31422e-95
6.70306e-97
3.40736e-98
1.72693e-99
8.72982e-101
4.40319e-102
2.2168e-103
1.11449e-104
5.59799e-106
2.81086e-107
1.4117e-108
7.09558e-110
3.57138e-111
2.27341e-62
1.40315e-63
8.57811e-65
5.19376e-66
3.11478e-67
1.85059e-68
1.0895e-69
6.35736e-71
3.67764e-72
2.10958e-73
1.20015e-74
6.77274e-76
3.79195e-77
2.10673e-78
1.16166e-79
6.35856e-81
3.4557e-82
1.86517e-83
1.00005e-84
5.32778e-86
2.82099e-87
1.4849e-88
7.77251e-90
4.04714e-91
2.09711e-92
1.0818e-93
5.55761e-95
2.84458e-96
1.45111e-97
7.38069e-99
3.74428e-100
1.89533e-101
9.57711e-103
4.83323e-104
2.43739e-105
1.22897e-106
6.19912e-108
3.12999e-109
3.88447e-61
2.42956e-62
1.50492e-63
9.23061e-65
5.60694e-66
3.37349e-67
2.01086e-68
1.18776e-69
6.95366e-71
4.03575e-72
2.32243e-73
1.3254e-74
7.50282e-76
4.21361e-77
2.3481e-78
1.29866e-79
7.12984e-81
3.88665e-82
2.1042e-83
1.13166e-84
6.04743e-86
3.21188e-87
1.69596e-88
8.90619e-90
4.65314e-91
2.41957e-92
1.25265e-93
6.45921e-95
3.31858e-96
1.69944e-97
8.67765e-99
4.41994e-100
2.24669e-101
1.14025e-102
5.78117e-104
2.92974e-105
1.48484e-106
7.53042e-108
2.66152e-60
1.68433e-61
1.05549e-62
6.54863e-64
4.02313e-65
2.44777e-66
1.47523e-67
8.80879e-69
5.21232e-70
3.05695e-71
1.77734e-72
1.02462e-73
5.858e-75
3.32212e-76
1.86913e-77
1.04353e-78
5.78232e-80
3.18074e-81
1.73734e-82
9.42472e-84
5.07905e-85
2.71985e-86
1.44774e-87
7.66258e-89
4.03415e-90
2.11339e-91
1.10207e-92
5.72268e-94
2.96009e-95
1.52574e-96
7.83947e-98
4.017e-99
2.05364e-100
1.04802e-101
5.34159e-103
2.72056e-104
1.38539e-105
7.05766e-107
8.74609e-60
5.58417e-61
3.53014e-62
2.20933e-63
1.36901e-64
8.40053e-66
5.10554e-67
3.07394e-68
1.83381e-69
1.08417e-70
6.35359e-72
3.69148e-73
2.12682e-74
1.21533e-75
6.88921e-77
3.8747e-78
2.16265e-79
1.19814e-80
6.59022e-82
3.5996e-83
1.95289e-84
1.05266e-85
5.63937e-87
3.0037e-88
1.59118e-89
8.38641e-91
4.39921e-92
2.29755e-93
1.19509e-94
6.1934e-96
3.19901e-97
1.64754e-98
8.46433e-100
4.34009e-101
2.22219e-102
1.13677e-103
5.81321e-105
2.97344e-106
1.53543e-59
9.84975e-61
6.25595e-62
3.93353e-63
2.44868e-64
1.50945e-65
9.21545e-67
5.57327e-68
3.33948e-69
1.98294e-70
1.16705e-71
6.8095e-73
3.93975e-74
2.26066e-75
1.28674e-76
7.26634e-78
4.07191e-79
2.26479e-80
1.25053e-81
6.85641e-83
3.73369e-84
2.01997e-85
1.08607e-86
5.80539e-88
3.08616e-89
1.63219e-90
8.59086e-92
4.50156e-93
2.34909e-94
1.22123e-95
6.32734e-97
3.26853e-98
1.68418e-99
8.66047e-101
4.44669e-102
2.2809e-103
1.16949e-104
5.99731e-106
1.53517e-59
9.84825e-61
6.25525e-62
3.93329e-63
2.44866e-64
1.50951e-65
9.21622e-67
5.5739e-68
3.33992e-69
1.98321e-70
1.16722e-71
6.81053e-73
3.94037e-74
2.26099e-75
1.2869e-76
7.26706e-78
4.07214e-79
2.26481e-80
1.25048e-81
6.85575e-83
3.73315e-84
2.01959e-85
1.08583e-86
5.8039e-88
3.08526e-89
1.63166e-90
8.58771e-92
4.49972e-93
2.34803e-94
1.22064e-95
6.32422e-97
3.26695e-98
1.68341e-99
8.65687e-101
4.44503e-102
2.28017e-103
1.1692e-104
5.99653e-106
5.57772e-61
3.5256e-62
2.20692e-63
1.36789e-64
8.3958e-66
5.10379e-67
3.07343e-68
1.83373e-69
1.08423e-70
6.3544e-72
3.69223e-73
2.12738e-74
1.21568e-75
6.89105e-77
3.87551e-78
2.16291e-79
1.19815e-80
6.58942e-82
3.59868e-83
1.95213e-84
1.05214e-85
5.63605e-87
3.00168e-88
1.58998e-89
8.37933e-91
4.39508e-92
2.29516e-93
1.19373e-94
6.18588e-96
3.19505e-97
1.64557e-98
8.45505e-100
4.33595e-101
2.22046e-102
1.13614e-103
5.81175e-105
2.97397e-106
1.68318e-61
1.05459e-62
6.54424e-64
4.02149e-65
2.44742e-66
1.47536e-67
8.81126e-69
5.2145e-70
3.05852e-71
1.77839e-72
1.0253e-73
5.86221e-75
3.32451e-76
1.87037e-77
1.04411e-78
5.78461e-80
3.1814e-81
1.73732e-82
9.42241e-84
5.07666e-85
2.71803e-86
1.44654e-87
7.65509e-89
4.02965e-90
2.11073e-91
1.10053e-92
5.71382e-94
2.95507e-95
1.52297e-96
7.82486e-98
4.00969e-99
2.05018e-100
1.04648e-101
5.33519e-103
2.71827e-104
1.3849e-105
7.05997e-107
2.42716e-62
1.50342e-63
9.2243e-65
5.60522e-66
3.37367e-67
2.01163e-68
1.18854e-69
6.95961e-71
4.03976e-72
2.32497e-73
1.32697e-74
7.51209e-76
4.21878e-77
2.3508e-78
1.29996e-79
7.13555e-81
3.88879e-82
2.10475e-83
1.1316e-84
6.04524e-86
3.20986e-87
1.69453e-88
8.89706e-90
4.64758e-91
2.41628e-92
1.25073e-93
6.44822e-95
3.31236e-96
1.696e-97
8.65946e-99
4.41085e-100
2.24245e-101
1.13843e-102
5.77427e-104
2.9278e-105
1.48491e-106
7.53815e-108
1.40095e-63
8.56592e-65
5.18886e-66
3.11344e-67
1.85069e-68
1.09004e-69
6.36299e-71
3.68196e-72
2.11247e-73
1.20196e-74
6.78372e-76
3.79838e-77
2.11032e-78
1.16356e-79
6.36797e-81
3.46004e-82
1.86698e-83
1.00067e-84
5.3291e-86
2.82066e-87
1.48427e-88
7.76742e-90
4.04375e-91
2.09501e-92
1.08054e-93
5.55021e-95
2.84028e-96
1.44865e-97
7.36695e-99
3.73697e-100
1.89171e-101
9.56101e-103
4.82702e-104
2.43562e-105
1.22898e-106
6.20518e-108
3.13718e-109
2.199e-65
1.32667e-66
7.93112e-68
4.69739e-69
2.75672e-70
1.60339e-71
9.24465e-73
5.28502e-74
2.99646e-75
1.6853e-76
9.40466e-78
5.20809e-79
2.8625e-80
1.56172e-81
8.45927e-83
4.55019e-84
2.43111e-85
1.29056e-86
6.8089e-88
3.57133e-89
1.86284e-90
9.66616e-92
4.99125e-93
2.56564e-94
1.31334e-95
6.69763e-97
3.40407e-98
1.72495e-99
8.71836e-101
4.39702e-102
2.21387e-103
1.11335e-104
5.59518e-106
2.81149e-107
1.41336e-108
7.11286e-110
3.5862e-111
3.40095e-63
2.09524e-64
1.27861e-65
7.72785e-67
4.62649e-68
2.74411e-69
1.6129e-70
9.39669e-72
5.4277e-73
3.10903e-74
1.76637e-75
9.9553e-77
5.56696e-78
3.0892e-79
1.70143e-80
9.30248e-82
5.05006e-83
2.72279e-84
1.45837e-85
7.76183e-87
4.10589e-88
2.15926e-89
1.12924e-90
5.87494e-92
3.04176e-93
1.5679e-94
8.04916e-96
4.11712e-97
2.099e-98
1.067e-99
5.41016e-101
2.73722e-102
1.38247e-103
6.97365e-105
3.51529e-106
1.77175e-107
8.93357e-109
4.50909e-110
1.9008e-61
1.18715e-62
7.34313e-64
4.49779e-65
2.72838e-66
1.63938e-67
9.75928e-69
5.75728e-70
3.3665e-71
1.95158e-72
1.12182e-73
6.39526e-75
3.61635e-76
2.02879e-77
1.12937e-78
6.23957e-80
3.422e-81
1.86345e-82
1.00781e-83
5.41459e-85
2.89058e-86
1.53373e-87
8.09057e-89
4.24449e-90
2.21535e-91
1.15078e-92
5.95165e-94
3.06577e-95
1.57348e-96
8.04942e-98
4.10589e-99
2.08909e-100
1.06073e-101
5.37726e-103
2.72304e-104
1.37823e-105
6.97593e-107
3.533e-108
2.97468e-60
1.88255e-61
1.17975e-62
7.32008e-64
4.49732e-65
2.73641e-66
1.64924e-67
9.84824e-69
5.82761e-70
3.41796e-71
1.98731e-72
1.14568e-73
6.55006e-75
3.7144e-76
2.08965e-77
1.1665e-78
6.46266e-80
3.55432e-81
1.94099e-82
1.05272e-83
5.67197e-85
3.03664e-86
1.61593e-87
8.54994e-89
4.49953e-90
2.35607e-91
1.22796e-92
6.37251e-94
3.29402e-95
1.69664e-96
8.7109e-98
4.45985e-99
2.27799e-100
1.16137e-101
5.9128e-103
3.00785e-104
1.52966e-105
7.78132e-107
1.94408e-59
1.24472e-60
7.89061e-62
4.95192e-63
3.07674e-64
1.89292e-65
1.15341e-66
6.96196e-68
4.16351e-69
2.46747e-70
1.44939e-71
8.44004e-73
4.87314e-74
2.79037e-75
1.58483e-76
8.93012e-78
4.99314e-79
2.77094e-80
1.52658e-81
8.35117e-83
4.53749e-84
2.44928e-85
1.31386e-86
7.00627e-88
3.71537e-89
1.95995e-90
1.02888e-91
5.37666e-93
2.79798e-94
1.45049e-95
7.49347e-97
3.85947e-98
1.98262e-99
1.01632e-100
5.2014e-102
2.65911e-103
1.35866e-104
6.94206e-106
6.25415e-59
4.0395e-60
2.58303e-61
1.63502e-62
1.02455e-63
6.35664e-65
3.9056e-66
2.37682e-67
1.43297e-68
8.56027e-70
5.06795e-71
2.97409e-72
1.73036e-73
9.98295e-75
5.7122e-76
3.2423e-77
1.82597e-78
1.02052e-79
5.66141e-81
3.11822e-82
1.70557e-83
9.26683e-85
5.00291e-86
2.68465e-87
1.43243e-88
7.60197e-90
4.01414e-91
2.1097e-92
1.10398e-93
5.75392e-95
2.98808e-96
1.54676e-97
7.98449e-99
4.1122e-100
2.11408e-101
1.08547e-102
5.56923e-104
2.8569e-105
1.09021e-58
7.07447e-60
4.5447e-61
2.88998e-62
1.81922e-63
1.13382e-64
6.99756e-66
4.27735e-67
2.59006e-68
1.55393e-69
9.23898e-71
5.4447e-72
3.18101e-73
1.84279e-74
1.05873e-75
6.03363e-77
3.41146e-78
1.91408e-79
1.06594e-80
5.89323e-82
3.23541e-83
1.76432e-84
9.55945e-86
5.14799e-87
2.75637e-88
1.46783e-89
7.77676e-91
4.10064e-92
2.1527e-93
1.1255e-94
5.86273e-96
3.04387e-97
1.57585e-98
8.13907e-100
4.19584e-101
2.16011e-102
1.11117e-103
5.71446e-105
1.09007e-58
7.07354e-60
4.5442e-61
2.88976e-62
1.81916e-63
1.13382e-64
6.99782e-66
4.27762e-67
2.59026e-68
1.55407e-69
9.23988e-71
5.44527e-72
3.18135e-73
1.84298e-74
1.05883e-75
6.03404e-77
3.41158e-78
1.91408e-79
1.06589e-80
5.89274e-82
3.23501e-83
1.76404e-84
9.55766e-86
5.14688e-87
2.75569e-88
1.46743e-89
7.77438e-91
4.09925e-92
2.1519e-93
1.12505e-94
5.86036e-96
3.04266e-97
1.57526e-98
8.13624e-100
4.19454e-101
2.15955e-102
1.11096e-103
5.71401e-105
4.0352e-60
2.57985e-61
1.63323e-62
1.02367e-63
6.35265e-65
3.90394e-66
2.3762e-67
1.43277e-68
8.55986e-70
5.0681e-71
2.97438e-72
1.73062e-73
9.9847e-75
5.71315e-76
3.2427e-77
1.82607e-78
1.02048e-79
5.66064e-81
3.11745e-82
1.70496e-83
9.26265e-85
5.00025e-86
2.68302e-87
1.43145e-88
7.59621e-90
4.01078e-91
2.10776e-92
1.10287e-93
5.74781e-95
2.98485e-96
1.54513e-97
7.9767e-99
4.10867e-100
2.11259e-101
1.08492e-102
5.56797e-104
2.85736e-105
1.24409e-60
7.88454e-62
4.94851e-63
3.07525e-64
1.89243e-65
1.15335e-66
6.96274e-68
4.16451e-69
2.46829e-70
1.44998e-71
8.44405e-73
4.87568e-74
2.79184e-75
1.5856e-76
8.93369e-78
4.99452e-79
2.77128e-80
1.52649e-81
8.3491e-83
4.53552e-84
2.44782e-85
1.31289e-86
7.00021e-88
3.71171e-89
1.95778e-90
1.02761e-91
5.36936e-93
2.79384e-94
1.4482e-95
7.48132e-97
3.85333e-98
1.97968e-99
1.01499e-100
5.19585e-102
2.65713e-103
1.35826e-104
6.9443e-106
1.88115e-61
1.17874e-62
7.31531e-64
4.49578e-65
2.73632e-66
1.64965e-67
9.85294e-69
5.83142e-70
3.42061e-71
1.98903e-72
1.14676e-73
6.55647e-75
3.718e-76
2.09154e-77
1.16741e-78
6.46663e-80
3.55576e-81
1.9413e-82
1.05261e-83
5.66987e-85
3.03483e-86
1.61467e-87
8.5419e-89
4.49464e-90
2.35317e-91
1.22626e-92
6.36271e-94
3.28845e-95
1.69355e-96
8.69447e-98
4.45156e-99
2.27407e-100
1.15965e-101
5.90616e-103
3.0059e-104
1.52965e-105
7.78817e-107
1.18565e-62
7.33422e-64
4.49409e-65
2.72737e-66
1.63947e-67
9.76357e-69
5.7617e-70
3.3699e-71
1.95388e-72
1.12326e-73
6.40403e-75
3.62149e-76
2.03166e-77
1.13089e-78
6.24704e-80
3.4254e-81
1.86482e-82
1.00823e-83
5.41507e-85
2.88992e-86
1.53296e-87
8.0849e-89
4.24082e-90
2.21311e-91
1.14945e-92
5.9438e-94
3.06121e-95
1.57087e-96
8.03479e-98
4.09807e-99
2.08519e-100
1.05895e-101
5.37009e-103
2.72075e-104
1.37797e-105
6.98067e-107
3.5396e-108
2.09141e-64
1.27653e-65
7.71943e-67
4.62405e-68
2.74412e-69
1.6137e-70
9.40537e-72
5.4345e-73
3.11362e-74
1.76926e-75
9.97282e-77
5.57723e-78
3.09495e-79
1.70447e-80
9.31769e-82
5.05714e-83
2.72577e-84
1.45943e-85
7.76436e-87
4.10572e-88
2.15856e-89
1.12866e-90
5.87116e-92
3.03944e-93
1.56651e-94
8.0409e-96
4.11223e-97
2.09613e-98
1.06536e-99
5.40135e-101
2.73295e-102
1.38068e-103
6.96789e-105
3.51468e-106
1.77295e-107
8.94976e-109
4.52418e-110
1.86299e-62
1.15974e-63
7.15021e-65
4.36552e-66
2.6398e-67
1.58128e-68
9.38514e-70
5.52036e-71
3.2188e-72
1.86092e-73
1.06692e-74
6.06701e-76
3.42235e-77
1.91537e-78
1.06373e-79
5.86333e-81
3.20838e-82
1.74326e-83
9.40779e-85
5.04393e-86
2.68723e-87
1.42299e-88
7.49187e-90
3.92295e-91
2.04376e-92
1.05976e-93
5.47154e-95
2.81383e-96
1.4419e-97
7.36504e-99
3.75121e-100
1.90584e-101
9.66288e-103
4.89149e-104
2.47356e-105
1.25023e-106
6.31952e-108
3.19658e-109
9.4819e-61
5.9836e-62
3.73924e-63
2.31365e-64
1.41758e-65
8.60215e-67
5.17096e-68
3.07988e-69
1.818e-70
1.06373e-71
6.17052e-73
3.54924e-74
2.02463e-75
1.14559e-76
6.43077e-78
3.58205e-79
1.98028e-80
1.0868e-81
5.92259e-83
3.20562e-84
1.72368e-85
9.20988e-87
4.89134e-88
2.58297e-89
1.35668e-90
7.09017e-92
3.68821e-93
1.91035e-94
9.85607e-96
5.06696e-97
2.59657e-98
1.32687e-99
6.76416e-101
3.44167e-102
1.7487e-103
8.8774e-105
4.50521e-106
2.28688e-107
1.39494e-59
8.91901e-61
5.64635e-62
3.53879e-63
2.19585e-64
1.34923e-65
8.21077e-67
4.94983e-68
2.95658e-69
1.75011e-70
1.02682e-71
5.97237e-73
3.44434e-74
1.96992e-75
1.11751e-76
6.2893e-78
3.51229e-79
1.94677e-80
1.07121e-81
5.85292e-83
3.17625e-84
1.71242e-85
9.17456e-87
4.88624e-88
2.58775e-89
1.36326e-90
7.14652e-92
3.72924e-93
1.93782e-94
1.00306e-95
5.17396e-97
2.66056e-98
1.36447e-99
6.98233e-101
3.56695e-102
1.82003e-103
9.28072e-105
4.73192e-106
8.80814e-59
5.697e-60
3.64787e-61
2.31216e-62
1.45078e-63
9.01271e-65
5.54447e-66
3.37831e-67
2.03918e-68
1.21958e-69
7.22837e-71
4.24641e-72
2.47306e-73
1.4281e-74
8.17848e-76
4.6458e-77
2.61825e-78
1.46427e-79
8.12804e-81
4.47926e-82
2.45123e-83
1.3324e-84
7.19582e-86
3.8624e-87
2.06114e-88
1.09389e-89
5.77567e-91
3.03487e-92
1.58759e-93
8.27083e-95
4.29275e-96
2.22059e-97
1.14535e-98
5.89309e-100
3.02621e-101
1.55178e-102
7.94985e-104
4.07119e-105
2.78991e-58
1.82016e-59
1.17551e-60
7.51439e-62
4.75481e-63
2.97854e-64
1.84749e-65
1.13487e-66
6.90533e-68
4.16265e-69
2.48646e-70
1.47197e-71
8.63779e-73
5.0254e-74
2.89922e-75
1.6589e-76
9.41615e-78
5.30313e-79
2.96409e-80
1.64456e-81
9.0596e-83
4.9566e-84
2.69402e-85
1.4551e-86
7.81265e-88
4.1712e-89
2.21524e-90
1.17064e-91
6.15761e-93
3.2251e-94
1.68258e-95
8.74741e-97
4.53362e-98
2.34354e-99
1.20885e-100
6.22542e-102
3.20247e-103
1.64646e-104
4.83903e-58
3.17161e-59
2.05771e-60
1.32138e-61
8.39899e-63
5.28495e-64
3.29263e-65
2.03148e-66
1.24145e-67
7.51573e-69
4.50837e-70
2.68012e-71
1.57926e-72
9.22563e-74
5.34394e-75
3.06996e-76
1.74942e-77
9.89096e-79
5.54954e-80
3.09063e-81
1.70889e-82
9.38364e-84
5.11854e-85
2.77442e-86
1.49481e-87
8.00803e-89
4.26711e-90
2.26231e-91
1.19379e-92
6.27204e-94
3.28215e-95
1.7114e-96
8.89553e-98
4.61127e-99
2.3851e-100
1.23154e-101
6.35154e-103
3.2736e-104
4.83854e-58
3.17126e-59
2.05749e-60
1.32126e-61
8.39852e-63
5.28482e-64
3.29264e-65
2.03153e-66
1.2415e-67
7.5161e-69
4.50863e-70
2.68029e-71
1.57936e-72
9.22624e-74
5.34424e-75
3.07008e-76
1.74945e-77
9.89086e-79
5.54931e-80
3.09041e-81
1.70871e-82
9.3824e-84
5.11773e-85
2.77391e-86
1.4945e-87
8.0062e-89
4.26603e-90
2.26168e-91
1.19342e-92
6.27001e-94
3.28107e-95
1.71084e-96
8.89276e-98
4.60995e-99
2.3845e-100
1.23129e-101
6.35069e-103
3.27349e-104
1.81834e-59
1.17412e-60
7.50621e-62
4.75057e-63
2.97652e-64
1.84658e-65
1.13449e-66
6.9038e-68
4.1621e-69
2.48632e-70
1.47198e-71
8.63827e-73
5.0258e-74
2.89945e-75
1.65898e-76
9.41615e-78
5.30276e-79
2.96364e-80
1.64416e-81
9.05661e-83
4.95457e-84
2.69273e-85
1.45431e-86
7.80792e-88
4.16839e-89
2.21359e-90
1.16969e-91
6.15221e-93
3.22211e-94
1.68099e-95
8.73934e-97
4.52973e-98
2.34176e-99
1.2081e-100
6.22268e-102
3.20186e-103
1.64673e-104
5.69481e-60
3.64533e-61
2.31057e-62
1.45001e-63
9.00962e-65
5.54356e-66
3.37825e-67
2.03938e-68
1.21981e-69
7.23022e-71
4.24775e-72
2.47394e-73
1.42862e-74
8.1812e-76
4.64705e-77
2.61871e-78
1.46434e-79
8.12728e-81
4.47814e-82
2.45025e-83
1.33168e-84
7.19109e-86
3.85946e-87
2.05935e-88
1.09283e-89
5.76943e-91
3.03126e-92
1.58553e-93
8.25945e-95
4.28667e-96
2.2175e-97
1.14385e-98
5.88628e-100
3.02337e-101
1.55078e-102
7.94799e-104
4.07256e-105
8.91403e-61
5.64214e-62
3.53663e-63
2.19507e-64
1.3491e-65
8.21197e-67
4.95152e-68
2.95804e-69
1.75115e-70
1.02751e-71
5.97673e-73
3.44695e-74
1.97139e-75
1.11829e-76
6.29304e-78
3.51389e-79
1.9473e-80
1.07128e-81
5.85202e-83
3.17508e-84
1.71147e-85
9.16801e-87
4.88209e-88
2.58523e-89
1.36175e-90
7.13764e-92
3.72409e-93
1.93487e-94
1.00142e-95
5.16517e-97
2.65609e-98
1.36234e-99
6.97289e-101
3.56324e-102
1.81893e-103
9.28048e-105
4.73561e-106
5.97744e-62
3.73536e-63
2.312e-64
1.41713e-65
8.60265e-67
5.17299e-68
3.08196e-69
1.81959e-70
1.0648e-71
6.17726e-73
3.55331e-74
2.02701e-75
1.14691e-76
6.43773e-78
3.58546e-79
1.98181e-80
1.08739e-81
5.92417e-83
3.20554e-84
1.72316e-85
9.20503e-87
4.88792e-88
2.5808e-89
1.35536e-90
7.08228e-92
3.68354e-93
1.90761e-94
9.84029e-96
5.05809e-97
2.5918e-98
1.32446e-99
6.75304e-101
3.43706e-102
1.74713e-103
8.87459e-105
4.50731e-106
2.2904e-107
1.1579e-63
7.14016e-65
4.36154e-66
2.63876e-67
1.5814e-68
9.38982e-70
5.52518e-71
3.22257e-72
1.86343e-73
1.06849e-74
6.07642e-76
3.42782e-77
1.91841e-78
1.06533e-79
5.87121e-81
3.21196e-82
1.7447e-83
9.41226e-85
5.04446e-86
2.68664e-87
1.42233e-88
7.48718e-90
3.92004e-91
2.04203e-92
1.05873e-93
5.46536e-95
2.81016e-96
1.43974e-97
7.35268e-99
3.74454e-100
1.90255e-101
9.64845e-103
4.88624e-104
2.47236e-105
1.25059e-106
6.32777e-108
3.20496e-109
6.96407e-62
4.37449e-63
2.72114e-64
1.67606e-65
1.02234e-66
6.17676e-68
3.6972e-69
2.19295e-70
1.28921e-71
7.51354e-73
4.34189e-74
2.48826e-75
1.41433e-76
7.97464e-78
4.46116e-79
2.47654e-80
1.36457e-81
7.46468e-83
4.05506e-84
2.18807e-85
1.17301e-86
6.24922e-88
3.30943e-89
1.74272e-90
9.12863e-92
4.75824e-93
2.46893e-94
1.27571e-95
6.56645e-97
3.36817e-98
1.72232e-99
8.78306e-101
4.46854e-102
2.26923e-103
1.15082e-104
5.8316e-106
2.95432e-107
1.49715e-108
3.32487e-60
2.11701e-61
1.3347e-62
8.33094e-64
5.14869e-65
3.15112e-66
1.91024e-67
1.14725e-68
6.82755e-70
4.0271e-71
2.35459e-72
1.3649e-73
7.84538e-75
4.4723e-76
2.52888e-77
1.41869e-78
7.8978e-80
4.36395e-81
2.39395e-82
1.30411e-83
7.05634e-85
3.79334e-86
2.02656e-87
1.07628e-88
5.68421e-90
2.98634e-91
1.5613e-92
8.1258e-94
4.21144e-95
2.17436e-96
1.11872e-97
5.7381e-99
2.93527e-100
1.49822e-101
7.63425e-103
3.88549e-104
1.97626e-105
1.00508e-106
4.68849e-59
3.02435e-60
1.93143e-61
1.22102e-62
7.64167e-64
4.73523e-65
2.90578e-66
1.7662e-67
1.06355e-68
6.34589e-70
3.75252e-71
2.19948e-72
1.27808e-73
7.36398e-75
4.20787e-76
2.38501e-77
1.34118e-78
7.48422e-80
4.14544e-81
2.27961e-82
1.24486e-83
6.75238e-85
3.63909e-86
1.94922e-87
1.038e-88
5.49722e-90
2.89633e-91
1.51866e-92
7.92736e-94
4.12103e-95
2.13428e-96
1.10162e-97
5.66934e-99
2.91038e-100
1.49105e-101
7.62762e-103
3.89818e-104
1.99132e-105
2.89128e-58
1.88644e-59
1.21838e-60
7.78887e-62
4.92872e-63
3.08759e-64
1.91517e-65
1.17646e-66
7.15843e-68
4.31519e-69
2.57751e-70
1.52579e-71
8.95279e-73
5.20796e-74
3.00401e-75
1.71847e-76
9.7517e-78
5.49043e-79
3.06774e-80
1.70143e-81
9.36911e-83
5.12365e-84
2.78342e-85
1.50254e-86
8.06219e-88
4.30133e-89
2.28251e-90
1.20511e-91
6.33278e-93
3.31333e-94
1.72661e-95
8.96515e-97
4.64017e-98
2.39509e-99
1.23346e-100
6.34108e-102
3.2558e-103
1.67044e-104
9.06364e-58
5.96457e-59
3.88516e-60
2.5047e-61
1.59823e-62
1.00951e-63
6.31306e-65
3.90941e-66
2.39774e-67
1.45676e-68
8.76896e-70
5.23064e-71
3.09233e-72
1.81225e-73
1.053e-74
6.06736e-76
3.46753e-77
1.96598e-78
1.10604e-79
6.17576e-81
3.42329e-82
1.88426e-83
1.03015e-84
5.59566e-86
3.02083e-87
1.62129e-88
8.6535e-90
4.59473e-91
2.42777e-92
1.27699e-93
6.68889e-95
3.49043e-96
1.81528e-97
9.41336e-99
4.86951e-100
2.51409e-101
1.29613e-102
6.676e-104
1.56727e-57
1.03611e-58
6.77964e-60
4.39049e-61
2.81411e-62
1.78542e-63
1.12146e-64
6.975e-66
4.29639e-67
2.62143e-68
1.58461e-69
9.49155e-71
5.63449e-72
3.31553e-73
1.93423e-74
1.11894e-75
6.41989e-77
3.65397e-78
2.06352e-79
1.15654e-80
6.43452e-82
3.55461e-83
1.95032e-84
1.06313e-85
5.75926e-87
3.10152e-88
1.66092e-89
8.84769e-91
4.68983e-92
2.47447e-93
1.30006e-94
6.80408e-96
3.54882e-97
1.84543e-98
9.5723e-100
4.9551e-101
2.5611e-102
1.32241e-103
1.56714e-57
1.03601e-58
6.77896e-60
4.3901e-61
2.81392e-62
1.78534e-63
1.12143e-64
6.97497e-66
4.29643e-67
2.62147e-68
1.58466e-69
9.49186e-71
5.6347e-72
3.31565e-73
1.93429e-74
1.11896e-75
6.41989e-77
3.6539e-78
2.06344e-79
1.15646e-80
6.43393e-82
3.55421e-83
1.95006e-84
1.06297e-85
5.75826e-87
3.10092e-88
1.66057e-89
8.8456e-91
4.68864e-92
2.4738e-93
1.2997e-94
6.80223e-96
3.54789e-97
1.84499e-98
9.57035e-100
4.95432e-101
2.56087e-102
1.32241e-103
5.9588e-59
3.88069e-60
2.50199e-61
1.59677e-62
1.00878e-63
6.30966e-65
3.90787e-66
2.39706e-67
1.45648e-68
8.76787e-70
5.2303e-71
3.09226e-72
1.81225e-73
1.05301e-74
6.0673e-76
3.46736e-77
1.96578e-78
1.10586e-79
6.17431e-81
3.42224e-82
1.88356e-83
1.02971e-84
5.59296e-86
3.01921e-87
1.62032e-88
8.64781e-90
4.59142e-91
2.42589e-92
1.27595e-93
6.68332e-95
3.48759e-96
1.8139e-97
9.40701e-99
4.86682e-100
2.51312e-101
1.29594e-102
6.67721e-104
1.88587e-59
1.2176e-60
7.78361e-62
4.92594e-63
3.08635e-64
1.91471e-65
1.17634e-66
7.15839e-68
4.31551e-69
2.57786e-70
1.52607e-71
8.95475e-73
5.20914e-74
3.00464e-75
1.71875e-76
9.75254e-78
5.49038e-79
3.06735e-80
1.70101e-81
9.36561e-83
5.12116e-84
2.7818e-85
1.50153e-86
8.05606e-88
4.29765e-89
2.28034e-90
1.20385e-91
6.32555e-93
3.3093e-94
1.72446e-95
8.95408e-97
4.63479e-98
2.39262e-99
1.23244e-100
6.33754e-102
3.25521e-103
1.67103e-104
3.02305e-60
1.93016e-61
1.22032e-62
7.63889e-64
4.73459e-65
2.90599e-66
1.76662e-67
1.06394e-68
6.34879e-70
3.75447e-71
2.20072e-72
1.27882e-73
7.36817e-75
4.21007e-76
2.38606e-77
1.34161e-78
7.48554e-80
4.14546e-81
2.2792e-82
1.24441e-83
6.74892e-85
3.63676e-86
1.94774e-87
1.03709e-88
5.4918e-90
2.89311e-91
1.51677e-92
7.91645e-94
4.11491e-95
2.13098e-96
1.09993e-97
5.66117e-99
2.90673e-100
1.48961e-101
7.62315e-103
3.89793e-104
1.99263e-105
2.11518e-61
1.33349e-62
8.32572e-64
5.14729e-65
3.15131e-66
1.91091e-67
1.14792e-68
6.83272e-70
4.0306e-71
2.35678e-72
1.36621e-73
7.85295e-75
4.47649e-76
2.53107e-77
1.41976e-78
7.90249e-80
4.36565e-81
2.39431e-82
1.30398e-83
7.05399e-85
3.79135e-86
2.0252e-87
1.07543e-88
5.67904e-90
2.98322e-91
1.55943e-92
8.11471e-94
4.20496e-95
2.17069e-96
1.11673e-97
5.72797e-99
2.93052e-100
1.49618e-101
7.62661e-103
3.8835e-104
1.97657e-105
1.00616e-106
4.36829e-63
2.71774e-64
1.67474e-65
1.02203e-66
6.17756e-68
3.69905e-69
2.19472e-70
1.29053e-71
7.5225e-73
4.34753e-74
2.49162e-75
1.41627e-76
7.9853e-78
4.46673e-79
2.47926e-80
1.36579e-81
7.46928e-83
4.05626e-84
2.188e-85
1.17264e-86
6.24597e-88
3.30728e-89
1.74142e-90
9.12087e-92
4.75354e-93
2.46607e-94
1.27397e-95
6.55609e-97
3.36218e-98
1.719e-99
8.76597e-101
4.46047e-102
2.26581e-103
1.14959e-104
5.82884e-106
2.95525e-107
1.49922e-108
1.94787e-61
1.23306e-62
7.72914e-64
4.7968e-65
2.94784e-66
1.79422e-67
1.08183e-68
6.4631e-70
3.82665e-71
2.2458e-72
1.30669e-73
7.53871e-75
4.31328e-76
2.44772e-77
1.37794e-78
7.69653e-80
4.26631e-81
2.34752e-82
1.28254e-83
6.95897e-85
3.75084e-86
2.00875e-87
1.06919e-88
5.65791e-90
2.97781e-91
1.55926e-92
8.12595e-94
4.21618e-95
2.17873e-96
1.12171e-97
5.75568e-99
2.94452e-100
1.50248e-101
7.65019e-103
3.88888e-104
1.97468e-105
1.00213e-106
5.08576e-108
8.91635e-60
5.72088e-61
3.63421e-62
2.28548e-63
1.42298e-64
8.773e-66
5.3569e-67
3.24029e-68
1.94198e-69
1.15339e-70
6.78972e-72
3.96221e-73
2.29243e-74
1.31522e-75
7.48383e-77
4.22428e-78
2.36579e-79
1.31491e-80
7.25454e-82
3.97397e-83
2.16193e-84
1.16833e-85
6.27358e-87
3.34828e-88
1.77675e-89
9.37719e-91
4.92394e-92
2.57332e-93
1.33895e-94
6.93859e-96
3.5824e-97
1.84345e-98
9.45845e-100
4.841e-101
2.47279e-102
1.26124e-103
6.42683e-105
3.27354e-106
1.22283e-58
7.94786e-60
5.11382e-61
3.25691e-62
2.05331e-63
1.2816e-64
7.92101e-66
4.84866e-67
2.94007e-68
1.76631e-69
1.05153e-70
6.2043e-72
3.6287e-73
2.10412e-74
1.20984e-75
6.89934e-77
3.90297e-78
2.19072e-79
1.22034e-80
6.74807e-82
3.70494e-83
2.02021e-84
1.09432e-85
5.89042e-87
3.15167e-88
1.67674e-89
8.87283e-91
4.67169e-92
2.44821e-93
1.27742e-94
6.63873e-96
3.4377e-97
1.77446e-98
9.13418e-100
4.6912e-101
2.40504e-102
1.23143e-103
6.30035e-105
7.42752e-58
4.8825e-59
3.17683e-60
2.0458e-61
1.30397e-62
8.22746e-64
5.13955e-65
3.17928e-66
1.94785e-67
1.18217e-68
7.1085e-70
4.23564e-71
2.50137e-72
1.4643e-73
8.49865e-75
4.89128e-76
2.79212e-77
1.58116e-78
8.88472e-80
4.9549e-81
2.74316e-82
1.508e-83
8.23385e-85
4.46662e-86
2.40802e-87
1.29057e-88
6.8782e-90
3.64656e-91
1.92376e-92
1.01024e-93
5.28272e-95
2.75183e-96
1.42854e-97
7.39367e-99
3.81705e-100
1.96656e-101
1.01161e-102
5.19836e-104
2.31436e-57
1.53436e-58
1.00679e-59
6.5379e-61
4.20187e-62
2.67301e-63
1.68338e-64
1.04969e-65
6.48214e-67
3.96486e-68
2.40251e-69