/*--------------------------------*- C++ -*----------------------------------*\
| =========                 |                                                 |
| \\      /  F ield         | OpenFOAM: The Open Source CFD Toolbox           |
|  \\    /   O peration     | Version:  2.3.1                                 |
|   \\  /    A nd           | Web:      www.OpenFOAM.org                      |
|    \\/     M anipulation  |                                                 |
\*---------------------------------------------------------------------------*/
FoamFile
{
    version     2.0;
    format      ascii;
    class       volVectorField;
    location    "15";
    object      U;
}
// * * * * * * * * * * * * * * * * * * * * * * * * * * * * * * * * * * * * * //

dimensions      [0 1 -1 0 0 0 0];

internalField   nonuniform List<vector> 
37692
(
(0.00312154 4.94644e-08 3.04808e-08)
(0.00312161 -1.90471e-07 -3.00494e-08)
(0.00312246 -4.24585e-07 -9.54482e-08)
(0.00312413 -6.49063e-07 -1.7507e-07)
(0.00312664 -8.54541e-07 -2.73138e-07)
(0.00313005 -1.04091e-06 -3.91236e-07)
(0.00313442 -1.23248e-06 -5.33891e-07)
(0.0031399 -1.46689e-06 -7.07622e-07)
(0.00314667 -1.7651e-06 -9.11747e-07)
(0.00315493 -2.12296e-06 -1.13277e-06)
(0.00316479 -2.52429e-06 -1.35336e-06)
(0.00317632 -2.9594e-06 -1.56411e-06)
(0.00318954 -3.43029e-06 -1.7649e-06)
(0.00320451 -3.93121e-06 -1.95995e-06)
(0.00322125 -4.43908e-06 -2.15481e-06)
(0.00323977 -4.9355e-06 -2.35758e-06)
(0.00326013 -5.42266e-06 -2.58102e-06)
(0.00328241 -5.91462e-06 -2.83901e-06)
(0.00330677 -6.42058e-06 -3.13915e-06)
(0.00333339 -6.93271e-06 -3.47834e-06)
(0.00336238 -7.43602e-06 -3.84469e-06)
(0.00339384 -7.93686e-06 -4.22728e-06)
(0.00342788 -8.47086e-06 -4.62567e-06)
(0.00346471 -9.07465e-06 -5.04805e-06)
(0.0035046 -9.75717e-06 -5.50242e-06)
(0.00354787 -1.05056e-05 -5.99183e-06)
(0.00359477 -1.13069e-05 -6.51576e-06)
(0.00364555 -1.21551e-05 -7.07238e-06)
(0.00370044 -1.30462e-05 -7.65754e-06)
(0.00375959 -1.39709e-05 -8.26318e-06)
(0.00382314 -1.49183e-05 -8.8797e-06)
(0.00389115 -1.58958e-05 -9.50212e-06)
(0.00396375 -1.69354e-05 -1.01353e-05)
(0.00404116 -1.80707e-05 -1.07911e-05)
(0.00412367 -1.93156e-05 -1.14796e-05)
(0.00421162 -2.06621e-05 -1.2204e-05)
(0.00430531 -2.20913e-05 -1.29621e-05)
(0.00440499 -2.35911e-05 -1.37467e-05)
(0.00338676 1.99346e-07 3.14568e-08)
(0.00338687 -3.20649e-07 -9.21006e-08)
(0.00338784 -8.20315e-07 -2.25938e-07)
(0.0033897 -1.28439e-06 -3.7429e-07)
(0.00339247 -1.6988e-06 -5.3526e-07)
(0.00339619 -2.06913e-06 -7.097e-07)
(0.00340092 -2.43495e-06 -9.15861e-07)
(0.0034068 -2.852e-06 -1.17892e-06)
(0.00341401 -3.35639e-06 -1.50031e-06)
(0.00342271 -3.95502e-06 -1.85659e-06)
(0.00343301 -4.64095e-06 -2.22112e-06)
(0.00344496 -5.41173e-06 -2.58195e-06)
(0.00345864 -6.26633e-06 -2.94498e-06)
(0.00347409 -7.17784e-06 -3.31621e-06)
(0.00349137 -8.09424e-06 -3.69072e-06)
(0.00351048 -8.97663e-06 -4.07078e-06)
(0.00353148 -9.81801e-06 -4.47665e-06)
(0.00355448 -1.0629e-05 -4.93218e-06)
(0.00357964 -1.14136e-05 -5.44893e-06)
(0.0036071 -1.21582e-05 -6.0157e-06)
(0.00363698 -1.28582e-05 -6.60605e-06)
(0.00366937 -1.35582e-05 -7.20782e-06)
(0.00370439 -1.43434e-05 -7.83638e-06)
(0.0037423 -1.52819e-05 -8.51358e-06)
(0.00378339 -1.6385e-05 -9.24596e-06)
(0.00382796 -1.7624e-05 -1.00287e-05)
(0.00387627 -1.89657e-05 -1.08603e-05)
(0.00392857 -2.03844e-05 -1.17432e-05)
(0.00398509 -2.18568e-05 -1.26764e-05)
(0.004046 -2.33553e-05 -1.36496e-05)
(0.00411143 -2.48621e-05 -1.46476e-05)
(0.00418151 -2.63995e-05 -1.56686e-05)
(0.00425638 -2.80265e-05 -1.6735e-05)
(0.00433631 -2.97967e-05 -1.78725e-05)
(0.00442162 -3.1726e-05 -1.9094e-05)
(0.00451266 -3.37902e-05 -2.03988e-05)
(0.00460974 -3.59436e-05 -2.17806e-05)
(0.00471312 -3.81416e-05 -2.32403e-05)
(0.00344127 2.75715e-07 8.40297e-08)
(0.00344141 -3.72782e-07 -8.74963e-08)
(0.00344246 -9.81289e-07 -2.73912e-07)
(0.00344445 -1.53567e-06 -4.68557e-07)
(0.00344739 -2.02621e-06 -6.66425e-07)
(0.00345129 -2.45545e-06 -8.7298e-07)
(0.00345621 -2.84597e-06 -1.11643e-06)
(0.00346228 -3.23446e-06 -1.42483e-06)
(0.00346965 -3.6593e-06 -1.79695e-06)
(0.00347847 -4.15388e-06 -2.20943e-06)
(0.00348882 -4.74316e-06 -2.63794e-06)
(0.0035008 -5.44105e-06 -3.07728e-06)
(0.00351448 -6.23805e-06 -3.53975e-06)
(0.00352995 -7.08979e-06 -4.02349e-06)
(0.00354726 -7.93708e-06 -4.51019e-06)
(0.00356644 -8.73576e-06 -4.99789e-06)
(0.00358751 -9.46287e-06 -5.50774e-06)
(0.00361061 -1.01077e-05 -6.0653e-06)
(0.00363586 -1.06611e-05 -6.67898e-06)
(0.00366341 -1.11197e-05 -7.32554e-06)
(0.00369331 -1.15172e-05 -7.9741e-06)
(0.00372564 -1.19391e-05 -8.62998e-06)
(0.00376056 -1.24896e-05 -9.33353e-06)
(0.00379837 -1.32334e-05 -1.01161e-05)
(0.00383938 -1.41727e-05 -1.09763e-05)
(0.0038839 -1.52711e-05 -1.18999e-05)
(0.00393219 -1.64823e-05 -1.28811e-05)
(0.00398448 -1.7761e-05 -1.39201e-05)
(0.004041 -1.90649e-05 -1.50124e-05)
(0.00410192 -2.03577e-05 -1.61399e-05)
(0.00416736 -2.1627e-05 -1.7282e-05)
(0.00423744 -2.29019e-05 -1.84486e-05)
(0.00431234 -2.42321e-05 -1.96801e-05)
(0.00439237 -2.56511e-05 -2.10128e-05)
(0.00447787 -2.71565e-05 -2.24615e-05)
(0.00456921 -2.87121e-05 -2.40197e-05)
(0.0046667 -3.02574e-05 -2.56764e-05)
(0.00477063 -3.1716e-05 -2.74352e-05)
(0.00345809 1.59004e-07 1.22936e-07)
(0.00345829 -5.29957e-07 -7.81679e-08)
(0.00345943 -1.15334e-06 -2.89907e-07)
(0.00346152 -1.71062e-06 -5.07093e-07)
(0.00346459 -2.19679e-06 -7.28262e-07)
(0.00346863 -2.60233e-06 -9.58982e-07)
(0.00347371 -2.92564e-06 -1.22181e-06)
(0.00347991 -3.18478e-06 -1.53671e-06)
(0.00348737 -3.42192e-06 -1.90487e-06)
(0.00349621 -3.69399e-06 -2.31399e-06)
(0.00350654 -4.05011e-06 -2.7505e-06)
(0.00351847 -4.50895e-06 -3.21815e-06)
(0.00353212 -5.0492e-06 -3.72752e-06)
(0.00354759 -5.6235e-06 -4.265e-06)
(0.00356492 -6.18404e-06 -4.80591e-06)
(0.00358414 -6.69305e-06 -5.34575e-06)
(0.0036053 -7.12011e-06 -5.89996e-06)
(0.00362848 -7.44123e-06 -6.48772e-06)
(0.00365382 -7.64385e-06 -7.10777e-06)
(0.00368141 -7.74378e-06 -7.72963e-06)
(0.00371128 -7.80225e-06 -8.33327e-06)
(0.0037435 -7.9142e-06 -8.95167e-06)
(0.00377825 -8.16577e-06 -9.64533e-06)
(0.00381588 -8.59763e-06 -1.04467e-05)
(0.00385674 -9.20316e-06 -1.13457e-05)
(0.00390114 -9.94895e-06 -1.23202e-05)
(0.00394935 -1.07904e-05 -1.3358e-05)
(0.00400158 -1.16802e-05 -1.44519e-05)
(0.00405806 -1.25773e-05 -1.5589e-05)
(0.00411893 -1.34563e-05 -1.67422e-05)
(0.0041843 -1.43167e-05 -1.78932e-05)
(0.00425429 -1.51771e-05 -1.90677e-05)
(0.00432913 -1.60495e-05 -2.03185e-05)
(0.00440914 -1.69249e-05 -2.16848e-05)
(0.00449469 -1.77749e-05 -2.31787e-05)
(0.00458616 -1.85577e-05 -2.47892e-05)
(0.00468387 -1.92083e-05 -2.6503e-05)
(0.00478816 -1.96305e-05 -2.83284e-05)
(0.00346371 -3.1907e-08 1.03977e-07)
(0.00346398 -7.08359e-07 -1.10714e-07)
(0.0034652 -1.30501e-06 -3.2672e-07)
(0.00346738 -1.82078e-06 -5.54758e-07)
(0.00347056 -2.24877e-06 -7.95631e-07)
(0.00347473 -2.57335e-06 -1.04667e-06)
(0.00347995 -2.78307e-06 -1.31638e-06)
(0.00348626 -2.88633e-06 -1.61587e-06)
(0.00349378 -2.92398e-06 -1.95317e-06)
(0.00350262 -2.96102e-06 -2.33184e-06)
(0.00351291 -3.05302e-06 -2.7537e-06)
(0.0035248 -3.21299e-06 -3.2279e-06)
(0.00353842 -3.4116e-06 -3.7551e-06)
(0.00355389 -3.60862e-06 -4.31282e-06)
(0.00357126 -3.77593e-06 -4.87741e-06)
(0.00359053 -3.89332e-06 -5.44159e-06)
(0.00361176 -3.93997e-06 -6.01124e-06)
(0.00363504 -3.89628e-06 -6.5947e-06)
(0.00366047 -3.75787e-06 -7.18046e-06)
(0.00368808 -3.55353e-06 -7.74085e-06)
(0.00371791 -3.34524e-06 -8.27892e-06)
(0.00375001 -3.20357e-06 -8.84993e-06)
(0.00378462 -3.17455e-06 -9.52129e-06)
(0.0038221 -3.26974e-06 -1.03194e-05)
(0.00386284 -3.4791e-06 -1.12275e-05)
(0.00390715 -3.78214e-06 -1.22192e-05)
(0.00395528 -4.14975e-06 -1.3276e-05)
(0.00400748 -4.54993e-06 -1.43831e-05)
(0.00406392 -4.96128e-06 -1.55203e-05)
(0.00412476 -5.38085e-06 -1.6659e-05)
(0.00419009 -5.81337e-06 -1.77909e-05)
(0.00426006 -6.24732e-06 -1.89534e-05)
(0.0043349 -6.64178e-06 -2.01986e-05)
(0.00441497 -6.94232e-06 -2.15576e-05)
(0.00450063 -7.10119e-06 -2.30379e-05)
(0.00459228 -7.07819e-06 -2.46309e-05)
(0.00469026 -6.81036e-06 -2.63296e-05)
(0.00479495 -6.18631e-06 -2.81438e-05)
(0.00346512 -1.76911e-07 6.48335e-08)
(0.00346545 -8.06693e-07 -1.67268e-07)
(0.00346676 -1.35396e-06 -3.93275e-07)
(0.00346905 -1.79779e-06 -6.35202e-07)
(0.00347233 -2.12762e-06 -8.91818e-07)
(0.00347663 -2.33711e-06 -1.15412e-06)
(0.00348197 -2.42233e-06 -1.42085e-06)
(0.0034884 -2.38951e-06 -1.69673e-06)
(0.00349597 -2.27092e-06 -1.99571e-06)
(0.00350481 -2.12159e-06 -2.33826e-06)
(0.00351507 -1.98479e-06 -2.74335e-06)
(0.00352694 -1.86014e-06 -3.21941e-06)
(0.00354057 -1.71386e-06 -3.75167e-06)
(0.00355607 -1.51837e-06 -4.31119e-06)
(0.00357347 -1.2704e-06 -4.87759e-06)
(0.00359279 -9.80053e-07 -5.4423e-06)
(0.00361408 -6.54303e-07 -6.0057e-06)
(0.00363741 -2.94048e-07 -6.56866e-06)
(0.00366287 9.4294e-08 -7.11523e-06)
(0.00369049 4.8697e-07 -7.62688e-06)
(0.00372026 8.49496e-07 -8.12401e-06)
(0.00375228 1.15898e-06 -8.6716e-06)
(0.00378681 1.41531e-06 -9.33245e-06)
(0.00382422 1.62941e-06 -1.0124e-05)
(0.00386489 1.80638e-06 -1.10267e-05)
(0.00390915 1.94695e-06 -1.20143e-05)
(0.00395725 2.0567e-06 -1.30647e-05)
(0.00400941 2.14187e-06 -1.41577e-05)
(0.00406582 2.19555e-06 -1.52733e-05)
(0.00412661 2.20005e-06 -1.63934e-05)
(0.0041919 2.15618e-06 -1.75232e-05)
(0.00426188 2.11036e-06 -1.86984e-05)
(0.00433681 2.14688e-06 -1.99532e-05)
(0.00441702 2.34957e-06 -2.13038e-05)
(0.00450288 2.77655e-06 -2.27571e-05)
(0.00459477 3.46876e-06 -2.43176e-05)
(0.00469308 4.48908e-06 -2.59933e-05)
(0.00479823 5.95715e-06 -2.7792e-05)
(0.00346456 -2.87793e-07 4.86872e-08)
(0.00346495 -8.08055e-07 -2.21885e-07)
(0.00346635 -1.25022e-06 -4.79508e-07)
(0.00346875 -1.5736e-06 -7.41385e-07)
(0.00347216 -1.76977e-06 -1.00639e-06)
(0.00347657 -1.84852e-06 -1.27071e-06)
(0.00348203 -1.81777e-06 -1.53236e-06)
(0.00348854 -1.68167e-06 -1.79087e-06)
(0.00349618 -1.45561e-06 -2.0627e-06)
(0.00350504 -1.16808e-06 -2.38362e-06)
(0.00351531 -8.35928e-07 -2.78512e-06)
(0.00352721 -4.44676e-07 -3.26752e-06)
(0.00354091 3.33294e-08 -3.79852e-06)
(0.00355647 6.04734e-07 -4.34325e-06)
(0.00357391 1.24332e-06 -4.88573e-06)
(0.00359325 1.90675e-06 -5.4243e-06)
(0.00361453 2.55752e-06 -5.96431e-06)
(0.00363786 3.17252e-06 -6.50617e-06)
(0.0036633 3.73949e-06 -7.03328e-06)
(0.00369087 4.2534e-06 -7.53154e-06)
(0.0037206 4.72114e-06 -8.02542e-06)
(0.0037526 5.16827e-06 -8.57674e-06)
(0.00378712 5.63077e-06 -9.23829e-06)
(0.00382453 6.13131e-06 -1.00218e-05)
(0.0038652 6.66579e-06 -1.09114e-05)
(0.00390944 7.21505e-06 -1.1885e-05)
(0.00395752 7.76038e-06 -1.29179e-05)
(0.00400965 8.28306e-06 -1.3988e-05)
(0.004066 8.75671e-06 -1.50826e-05)
(0.00412673 9.1591e-06 -1.62003e-05)
(0.004192 9.50392e-06 -1.73549e-05)
(0.00426203 9.8572e-06 -1.85681e-05)
(0.00433709 1.03175e-05 -1.98499e-05)
(0.00441751 1.09767e-05 -2.12038e-05)
(0.00450362 1.19026e-05 -2.26425e-05)
(0.0045958 1.31489e-05 -2.41868e-05)
(0.00469449 1.47909e-05 -2.58568e-05)
(0.00480017 1.69505e-05 -2.76647e-05)
(0.00346251 -7.17628e-07 -2.72348e-07)
(0.00346402 -9.73452e-07 -5.70099e-07)
(0.00346654 -1.11987e-06 -8.48007e-07)
(0.00347005 -1.15539e-06 -1.11204e-06)
(0.00347456 -1.09729e-06 -1.3734e-06)
(0.00348008 -9.58105e-07 -1.63473e-06)
(0.00348667 -7.37252e-07 -1.89113e-06)
(0.00349437 -4.28449e-07 -2.15831e-06)
(0.00350328 -2.37456e-08 -2.48018e-06)
(0.00351362 4.91296e-07 -2.89154e-06)
(0.00352561 1.1355e-06 -3.38001e-06)
(0.00353941 1.91306e-06 -3.89818e-06)
(0.00355505 2.79933e-06 -4.40846e-06)
(0.00357252 3.74585e-06 -4.90267e-06)
(0.00359185 4.69492e-06 -5.39392e-06)
(0.00361309 5.59609e-06 -5.89984e-06)
(0.00363634 6.41447e-06 -6.42583e-06)
(0.00366171 7.13406e-06 -6.95519e-06)
(0.00368924 7.76333e-06 -7.46958e-06)
(0.00371895 8.33992e-06 -7.98615e-06)
(0.00375096 8.92538e-06 -8.55651e-06)
(0.00378554 9.58241e-06 -9.22317e-06)
(0.00382302 1.03434e-05 -9.99687e-06)
(0.00386373 1.11996e-05 -1.08698e-05)
(0.003908 1.21164e-05 -1.1826e-05)
(0.00395607 1.30533e-05 -1.28422e-05)
(0.00400817 1.3973e-05 -1.38971e-05)
(0.00406447 1.48432e-05 -1.49854e-05)
(0.00412515 1.565e-05 -1.61171e-05)
(0.00419042 1.64159e-05 -1.7307e-05)
(0.00426052 1.72037e-05 -1.85625e-05)
(0.00433574 1.81e-05 -1.98776e-05)
(0.00441639 1.91932e-05 -2.12508e-05)
(0.00450277 2.05654e-05 -2.26997e-05)
(0.0045953 2.22952e-05 -2.42546e-05)
(0.00469442 2.44786e-05 -2.5941e-05)
(0.00480066 2.72379e-05 -2.77728e-05)
(0.00345597 -5.51178e-07 -3.23099e-07)
(0.00345756 -5.4994e-07 -6.44365e-07)
(0.00346018 -4.80116e-07 -9.22163e-07)
(0.00346376 -3.41647e-07 -1.17438e-06)
(0.00346831 -1.43643e-07 -1.42773e-06)
(0.00347387 1.09438e-07 -1.69057e-06)
(0.0034805 4.25732e-07 -1.95641e-06)
(0.00348825 8.31419e-07 -2.23829e-06)
(0.00349725 1.36707e-06 -2.57685e-06)
(0.0035077 2.06857e-06 -2.99786e-06)
(0.00351981 2.94243e-06 -3.47727e-06)
(0.00353371 3.95617e-06 -3.96257e-06)
(0.00354943 5.05409e-06 -4.4201e-06)
(0.00356693 6.18113e-06 -4.85427e-06)
(0.00358623 7.29127e-06 -5.28956e-06)
(0.0036074 8.34753e-06 -5.75293e-06)
(0.00363057 9.31824e-06 -6.25707e-06)
(0.00365585 1.01812e-05 -6.78742e-06)
(0.00368331 1.09419e-05 -7.32089e-06)
(0.00371301 1.16483e-05 -7.86595e-06)
(0.00374509 1.23826e-05 -8.46086e-06)
(0.00377977 1.32261e-05 -9.13491e-06)
(0.00381736 1.42216e-05 -9.89659e-06)
(0.00385817 1.53627e-05 -1.07454e-05)
(0.00390248 1.66071e-05 -1.16752e-05)
(0.00395057 1.79001e-05 -1.26699e-05)
(0.00400266 1.9193e-05 -1.37121e-05)
(0.00405894 2.04539e-05 -1.47987e-05)
(0.00411961 2.16786e-05 -1.59397e-05)
(0.0041849 2.28925e-05 -1.7148e-05)
(0.00425509 2.41447e-05 -1.8427e-05)
(0.00433047 2.55017e-05 -1.9768e-05)
(0.00441133 2.7043e-05 -2.11684e-05)
(0.00449801 2.88604e-05 -2.26423e-05)
(0.0045909 3.10543e-05 -2.42163e-05)
(0.00469048 3.37352e-05 -2.59161e-05)
(0.00479726 3.70237e-05 -2.7751e-05)
(0.00343832 -2.9962e-07 -3.65615e-07)
(0.00343998 -4.5762e-08 -6.77395e-07)
(0.00344265 2.15163e-07 -9.32498e-07)
(0.00344626 4.93786e-07 -1.16067e-06)
(0.00345081 8.0274e-07 -1.39576e-06)
(0.00345636 1.15387e-06 -1.65166e-06)
(0.00346299 1.56237e-06 -1.92378e-06)
(0.00347077 2.06432e-06 -2.21869e-06)
(0.00347984 2.71526e-06 -2.56151e-06)
(0.00349038 3.55494e-06 -2.96299e-06)
(0.0035026 4.56891e-06 -3.39658e-06)
(0.00351658 5.69258e-06 -3.82098e-06)
(0.00353234 6.85361e-06 -4.21551e-06)
(0.00354986 8.00489e-06 -4.58853e-06)
(0.00356916 9.12756e-06 -4.96369e-06)
(0.00359029 1.02131e-05 -5.36923e-06)
(0.00361339 1.12444e-05 -5.82531e-06)
(0.00363859 1.21951e-05 -6.32638e-06)
(0.00366598 1.3059e-05 -6.85478e-06)
(0.00369568 1.38803e-05 -7.41477e-06)
(0.00372782 1.47442e-05 -8.02652e-06)
(0.00376263 1.57351e-05 -8.69979e-06)
(0.00380037 1.68992e-05 -9.43487e-06)
(0.0038413 1.82364e-05 -1.02354e-05)
(0.00388569 1.97095e-05 -1.11075e-05)
(0.00393382 2.12631e-05 -1.20482e-05)
(0.00398593 2.28448e-05 -1.3047e-05)
(0.00404222 2.44212e-05 -1.40994e-05)
(0.00410292 2.599e-05 -1.521e-05)
(0.00416827 2.75775e-05 -1.63904e-05)
(0.00423856 2.92233e-05 -1.76477e-05)
(0.00431407 3.09776e-05 -1.89763e-05)
(0.00439514 3.2905e-05 -2.03713e-05)
(0.00448209 3.50906e-05 -2.18364e-05)
(0.00457531 3.76363e-05 -2.33863e-05)
(0.00467527 4.06527e-05 -2.50445e-05)
(0.00478252 4.42527e-05 -2.68136e-05)
(0.003383 -3.90303e-09 -3.56898e-07)
(0.0033847 4.08828e-07 -6.05649e-07)
(0.00338741 7.71005e-07 -8.0271e-07)
(0.00339101 1.11076e-06 -9.79647e-07)
(0.00339552 1.46455e-06 -1.16843e-06)
(0.003401 1.85992e-06 -1.38374e-06)
(0.00340755 2.31453e-06 -1.62388e-06)
(0.0034153 2.85728e-06 -1.88821e-06)
(0.00342437 3.53114e-06 -2.18382e-06)
(0.00343495 4.35918e-06 -2.50925e-06)
(0.00344719 5.31232e-06 -2.84553e-06)
(0.0034612 6.32209e-06 -3.17093e-06)
(0.00347699 7.32448e-06 -3.47762e-06)
(0.00349453 8.2893e-06 -3.77189e-06)
(0.00351384 9.21967e-06 -4.06743e-06)
(0.00353495 1.01345e-05 -4.38554e-06)
(0.00355798 1.10416e-05 -4.74844e-06)
(0.00358307 1.1926e-05 -5.16266e-06)
(0.00361036 1.27776e-05 -5.62397e-06)
(0.00363999 1.36278e-05 -6.13393e-06)
(0.00367214 1.45403e-05 -6.69359e-06)
(0.00370701 1.55731e-05 -7.29461e-06)
(0.00374482 1.67562e-05 -7.92865e-06)
(0.00378581 1.8094e-05 -8.60028e-06)
(0.00383023 1.95674e-05 -9.32443e-06)
(0.00387834 2.1139e-05 -1.01088e-05)
(0.0039304 2.27669e-05 -1.09515e-05)
(0.00398665 2.44204e-05 -1.18495e-05)
(0.00404731 2.60984e-05 -1.28025e-05)
(0.00411263 2.78286e-05 -1.382e-05)
(0.00418288 2.96478e-05 -1.49098e-05)
(0.00425839 3.15908e-05 -1.60681e-05)
(0.00433946 3.3696e-05 -1.72884e-05)
(0.00442644 3.60157e-05 -1.8565e-05)
(0.00451971 3.86234e-05 -1.99021e-05)
(0.00461974 4.16089e-05 -2.1316e-05)
(0.00472705 4.50609e-05 -2.28064e-05)
(0.00311714 1.20869e-07 -2.55631e-07)
(0.00311884 3.91006e-07 -3.84719e-07)
(0.00312149 6.15984e-07 -4.83279e-07)
(0.00312496 8.18364e-07 -5.73781e-07)
(0.00312926 1.02612e-06 -6.75658e-07)
(0.00313446 1.25937e-06 -7.98e-07)
(0.00314069 1.52678e-06 -9.40198e-07)
(0.00314808 1.83852e-06 -1.09873e-06)
(0.00315678 2.21122e-06 -1.27172e-06)
(0.00316697 2.65121e-06 -1.45554e-06)
(0.00317881 3.13986e-06 -1.64287e-06)
(0.0031924 3.64274e-06 -1.82694e-06)
(0.00320774 4.13133e-06 -2.00597e-06)
(0.00322481 4.59454e-06 -2.1826e-06)
(0.00324359 5.03871e-06 -2.36199e-06)
(0.0032641 5.48232e-06 -2.55388e-06)
(0.00328644 5.9405e-06 -2.77158e-06)
(0.00331074 6.41126e-06 -3.02526e-06)
(0.00333715 6.88852e-06 -3.32023e-06)
(0.00336586 7.38442e-06 -3.65611e-06)
(0.00339703 7.92546e-06 -4.02364e-06)
(0.00343087 8.53134e-06 -4.40883e-06)
(0.00346758 9.2087e-06 -4.80267e-06)
(0.00350737 9.9603e-06 -5.20941e-06)
(0.00355046 1.07845e-05 -5.64266e-06)
(0.00359713 1.16694e-05 -6.11258e-06)
(0.00364763 1.25985e-05 -6.62333e-06)
(0.00370221 1.35568e-05 -7.17341e-06)
(0.00376107 1.45432e-05 -7.75962e-06)
(0.00382444 1.55743e-05 -8.3852e-06)
(0.00389258 1.66705e-05 -9.05204e-06)
(0.0039658 1.78468e-05 -9.75671e-06)
(0.00404441 1.91145e-05 -1.04943e-05)
(0.00412872 2.04879e-05 -1.12584e-05)
(0.00421909 2.19939e-05 -1.20492e-05)
(0.00431597 2.36719e-05 -1.28732e-05)
(0.00441989 2.55595e-05 -1.37291e-05)
(0.00352536 6.04617e-08 1.38814e-07)
(0.00352548 -1.09752e-07 -1.30101e-07)
(0.00352647 -2.64683e-07 -4.16753e-07)
(0.00352836 -4.02421e-07 -7.44852e-07)
(0.00353118 -5.15618e-07 -1.12598e-06)
(0.00353498 -6.07873e-07 -1.5652e-06)
(0.00353985 -7.07163e-07 -2.07264e-06)
(0.00354593 -8.51414e-07 -2.66098e-06)
(0.00355339 -1.06009e-06 -3.32476e-06)
(0.00356239 -1.32684e-06 -4.03339e-06)
(0.00357307 -1.63294e-06 -4.75066e-06)
(0.00358549 -1.96807e-06 -5.4559e-06)
(0.00359971 -2.33213e-06 -6.14838e-06)
(0.00361577 -2.71421e-06 -6.83858e-06)
(0.00363371 -3.08938e-06 -7.54125e-06)
(0.00365357 -3.44141e-06 -8.27893e-06)
(0.0036754 -3.77381e-06 -9.08411e-06)
(0.00369931 -4.10047e-06 -9.98928e-06)
(0.00372546 -4.42906e-06 -1.10127e-05)
(0.003754 -4.74845e-06 -1.2149e-05)
(0.00378508 -5.03984e-06 -1.33736e-05)
(0.00381881 -5.30624e-06 -1.46668e-05)
(0.00385532 -5.58063e-06 -1.60329e-05)
(0.00389483 -5.89797e-06 -1.74933e-05)
(0.00393762 -6.26829e-06 -1.90674e-05)
(0.00398401 -6.68207e-06 -2.07625e-05)
(0.00403429 -7.12796e-06 -2.25773e-05)
(0.00408871 -7.59917e-06 -2.45054e-05)
(0.00414752 -8.08985e-06 -2.65345e-05)
(0.0042109 -8.58749e-06 -2.86444e-05)
(0.00427901 -9.07792e-06 -3.08127e-05)
(0.00435195 -9.56543e-06 -3.3031e-05)
(0.0044299 -1.00772e-05 -3.53155e-05)
(0.00451307 -1.06429e-05 -3.76974e-05)
(0.00460179 -1.12747e-05 -4.02045e-05)
(0.00469639 -1.19634e-05 -4.28495e-05)
(0.00479721 -1.26882e-05 -4.56288e-05)
(0.00490454 -1.34325e-05 -4.85268e-05)
(0.00373508 1.46657e-07 1.44448e-07)
(0.00373526 -2.03587e-07 -3.1012e-07)
(0.00373642 -5.17119e-07 -7.84869e-07)
(0.00373858 -7.92194e-07 -1.29208e-06)
(0.00374175 -1.02587e-06 -1.83426e-06)
(0.00374599 -1.23157e-06 -2.42079e-06)
(0.00375138 -1.45337e-06 -3.08891e-06)
(0.00375803 -1.74652e-06 -3.87892e-06)
(0.00376606 -2.14044e-06 -4.78916e-06)
(0.00377559 -2.62995e-06 -5.78039e-06)
(0.00378673 -3.19491e-06 -6.80767e-06)
(0.00379957 -3.82093e-06 -7.84989e-06)
(0.00381418 -4.49678e-06 -8.91582e-06)
(0.00383062 -5.19398e-06 -1.0013e-05)
(0.00384894 -5.87112e-06 -1.11356e-05)
(0.00386921 -6.50407e-06 -1.22958e-05)
(0.00389151 -7.0962e-06 -1.35338e-05)
(0.00391596 -7.6624e-06 -1.48939e-05)
(0.00394268 -8.20757e-06 -1.63969e-05)
(0.00397181 -8.71566e-06 -1.80215e-05)
(0.00400349 -9.17042e-06 -1.97251e-05)
(0.00403785 -9.59268e-06 -2.14963e-05)
(0.00407507 -1.00426e-05 -2.33707e-05)
(0.00411538 -1.05775e-05 -2.53917e-05)
(0.00415907 -1.1216e-05 -2.75737e-05)
(0.00420641 -1.19446e-05 -2.9911e-05)
(0.00425769 -1.27413e-05 -3.24007e-05)
(0.00431317 -1.3585e-05 -3.50436e-05)
(0.0043731 -1.4452e-05 -3.78334e-05)
(0.00443766 -1.53131e-05 -4.07489e-05)
(0.00450706 -1.61461e-05 -4.37647e-05)
(0.00458148 -1.69624e-05 -4.68881e-05)
(0.00466114 -1.78056e-05 -5.01675e-05)
(0.00474633 -1.87182e-05 -5.36552e-05)
(0.00483737 -1.97121e-05 -5.73816e-05)
(0.0049346 -2.07653e-05 -6.13501e-05)
(0.00503834 -2.18351e-05 -6.55528e-05)
(0.00514889 -2.28708e-05 -6.99855e-05)
(0.00377115 1.78124e-07 2.29778e-07)
(0.0037714 -2.51061e-07 -3.49028e-07)
(0.00377268 -6.35262e-07 -9.47663e-07)
(0.003775 -9.74115e-07 -1.56396e-06)
(0.00377839 -1.26795e-06 -2.19772e-06)
(0.00378288 -1.52931e-06 -2.86804e-06)
(0.00378854 -1.79469e-06 -3.62641e-06)
(0.00379545 -2.11024e-06 -4.51711e-06)
(0.00380371 -2.50532e-06 -5.5393e-06)
(0.00381341 -2.98637e-06 -6.65819e-06)
(0.00382465 -3.54647e-06 -7.83576e-06)
(0.00383752 -4.17474e-06 -9.06403e-06)
(0.00385213 -4.85327e-06 -1.03573e-05)
(0.00386853 -5.54627e-06 -1.17056e-05)
(0.0038868 -6.21146e-06 -1.30821e-05)
(0.00390701 -6.82454e-06 -1.44906e-05)
(0.00392926 -7.38207e-06 -1.59694e-05)
(0.00395365 -7.88891e-06 -1.75626e-05)
(0.0039803 -8.34604e-06 -1.92808e-05)
(0.00400933 -8.74613e-06 -2.10838e-05)
(0.00404085 -9.09219e-06 -2.29297e-05)
(0.00407501 -9.42219e-06 -2.48414e-05)
(0.00411201 -9.80201e-06 -2.68956e-05)
(0.0041521 -1.02867e-05 -2.91506e-05)
(0.00419554 -1.0893e-05 -3.16096e-05)
(0.00424264 -1.16064e-05 -3.42525e-05)
(0.00429365 -1.23993e-05 -3.70676e-05)
(0.00434883 -1.32385e-05 -4.00497e-05)
(0.00440842 -1.40884e-05 -4.31851e-05)
(0.00447261 -1.49133e-05 -4.64401e-05)
(0.00454162 -1.56914e-05 -4.97884e-05)
(0.00461568 -1.64328e-05 -5.32625e-05)
(0.00469503 -1.71711e-05 -5.69414e-05)
(0.00478001 -1.79344e-05 -6.08947e-05)
(0.00487093 -1.87232e-05 -6.51543e-05)
(0.00496815 -1.95053e-05 -6.9713e-05)
(0.005072 -2.02216e-05 -7.45567e-05)
(0.00518278 -2.07889e-05 -7.96872e-05)
(0.00377992 1.21722e-07 2.93725e-07)
(0.00378024 -3.26748e-07 -3.62012e-07)
(0.00378162 -7.27117e-07 -1.02775e-06)
(0.00378407 -1.07871e-06 -1.70592e-06)
(0.00378761 -1.38071e-06 -2.40129e-06)
(0.00379226 -1.63895e-06 -3.13162e-06)
(0.00379809 -1.87624e-06 -3.93792e-06)
(0.00380515 -2.12516e-06 -4.85484e-06)
(0.00381352 -2.41395e-06 -5.88975e-06)
(0.00382328 -2.76063e-06 -7.02748e-06)
(0.00383455 -3.17049e-06 -8.25031e-06)
(0.00384742 -3.63716e-06 -9.56447e-06)
(0.00386199 -4.14206e-06 -1.09768e-05)
(0.00387836 -4.65176e-06 -1.24572e-05)
(0.0038966 -5.13158e-06 -1.39683e-05)
(0.00391678 -5.56147e-06 -1.55063e-05)
(0.00393899 -5.9334e-06 -1.7098e-05)
(0.00396335 -6.24513e-06 -1.87739e-05)
(0.00398995 -6.49734e-06 -2.05267e-05)
(0.00401889 -6.69339e-06 -2.23093e-05)
(0.00405028 -6.85064e-06 -2.41048e-05)
(0.00408427 -7.01104e-06 -2.59822e-05)
(0.00412107 -7.22947e-06 -2.80511e-05)
(0.00416093 -7.54626e-06 -3.0373e-05)
(0.00420416 -7.97164e-06 -3.2939e-05)
(0.00425102 -8.49256e-06 -3.57159e-05)
(0.0043018 -9.08334e-06 -3.86778e-05)
(0.00435672 -9.71095e-06 -4.18044e-05)
(0.00441604 -1.03413e-05 -4.50662e-05)
(0.00447994 -1.09445e-05 -4.84169e-05)
(0.00454864 -1.15019e-05 -5.18399e-05)
(0.00462239 -1.20141e-05 -5.53958e-05)
(0.00470148 -1.24915e-05 -5.91833e-05)
(0.00478624 -1.2936e-05 -6.32762e-05)
(0.00487701 -1.333e-05 -6.77016e-05)
(0.00497417 -1.3631e-05 -7.24468e-05)
(0.00507806 -1.37662e-05 -7.74987e-05)
(0.00518903 -1.36302e-05 -8.28669e-05)
(0.00378229 -3.88312e-10 2.7371e-07)
(0.00378266 -4.19332e-07 -4.26829e-07)
(0.00378411 -7.92723e-07 -1.12489e-06)
(0.00378666 -1.11514e-06 -1.84301e-06)
(0.0037903 -1.38224e-06 -2.58726e-06)
(0.00379507 -1.59268e-06 -3.36143e-06)
(0.00380101 -1.7569e-06 -4.18514e-06)
(0.00380816 -1.89533e-06 -5.08239e-06)
(0.00381658 -2.03297e-06 -6.07375e-06)
(0.00382638 -2.19215e-06 -7.17187e-06)
(0.00383764 -2.38339e-06 -8.38672e-06)
(0.0038505 -2.60417e-06 -9.73105e-06)
(0.00386506 -2.8398e-06 -1.11939e-05)
(0.00388142 -3.06592e-06 -1.27317e-05)
(0.00389965 -3.26168e-06 -1.43053e-05)
(0.00391984 -3.41647e-06 -1.59024e-05)
(0.00394206 -3.52443e-06 -1.75338e-05)
(0.00396641 -3.58303e-06 -1.92106e-05)
(0.003993 -3.59514e-06 -2.09104e-05)
(0.0040219 -3.56987e-06 -2.2596e-05)
(0.00405321 -3.52675e-06 -2.4289e-05)
(0.00408709 -3.49751e-06 -2.60953e-05)
(0.00412375 -3.51642e-06 -2.81375e-05)
(0.00416347 -3.60544e-06 -3.04694e-05)
(0.00420655 -3.76899e-06 -3.3072e-05)
(0.00425327 -3.99922e-06 -3.59034e-05)
(0.0043039 -4.27936e-06 -3.89248e-05)
(0.00435868 -4.58682e-06 -4.21013e-05)
(0.00441785 -4.89935e-06 -4.53904e-05)
(0.00448159 -5.19628e-06 -4.87466e-05)
(0.00455015 -5.45854e-06 -5.21727e-05)
(0.00462377 -5.6705e-06 -5.57459e-05)
(0.00470275 -5.81475e-06 -5.95616e-05)
(0.00478745 -5.86684e-06 -6.36811e-05)
(0.00487823 -5.7916e-06 -6.81262e-05)
(0.00497546 -5.53623e-06 -7.28929e-05)
(0.00507953 -5.01689e-06 -7.798e-05)
(0.00519082 -4.11065e-06 -8.3401e-05)
(0.00378275 -1.4684e-07 2.19417e-07)
(0.00378316 -4.92818e-07 -5.31943e-07)
(0.00378467 -8.01253e-07 -1.26928e-06)
(0.00378729 -1.05964e-06 -2.02681e-06)
(0.00379101 -1.25839e-06 -2.80765e-06)
(0.00379587 -1.3913e-06 -3.60577e-06)
(0.00380189 -1.46108e-06 -4.42544e-06)
(0.0038091 -1.47948e-06 -5.28267e-06)
(0.00381757 -1.46496e-06 -6.21073e-06)
(0.00382738 -1.43481e-06 -7.25284e-06)
(0.00383865 -1.39718e-06 -8.44539e-06)
(0.00385151 -1.3517e-06 -9.79672e-06)
(0.00386608 -1.29065e-06 -1.1272e-05)
(0.00388245 -1.20397e-06 -1.28178e-05)
(0.00390069 -1.08854e-06 -1.43966e-05)
(0.00392089 -9.4779e-07 -1.5994e-05)
(0.00394312 -7.84638e-07 -1.76119e-05)
(0.00396748 -6.01539e-07 -1.92481e-05)
(0.00399407 -4.02755e-07 -2.08755e-05)
(0.00402294 -1.95005e-07 -2.2474e-05)
(0.00405422 1.2496e-08 -2.40936e-05)
(0.00408804 2.08628e-07 -2.58566e-05)
(0.00412464 3.83025e-07 -2.7879e-05)
(0.00416429 5.30189e-07 -3.02008e-05)
(0.00420729 6.4851e-07 -3.27993e-05)
(0.00425394 7.37981e-07 -3.5631e-05)
(0.0043045 8.01715e-07 -3.865e-05)
(0.00435921 8.45033e-07 -4.18131e-05)
(0.00441831 8.73827e-07 -4.50794e-05)
(0.00448199 8.9961e-07 -4.8422e-05)
(0.0045505 9.44042e-07 -5.18629e-05)
(0.0046241 1.03779e-06 -5.5472e-05)
(0.00470311 1.22066e-06 -5.93154e-05)
(0.00478788 1.53856e-06 -6.34323e-05)
(0.00487878 2.04201e-06 -6.78481e-05)
(0.00497621 2.79421e-06 -7.25813e-05)
(0.00508059 3.88786e-06 -7.76526e-05)
(0.00519233 5.45783e-06 -8.30799e-05)
(0.00378244 -2.97566e-07 1.90263e-07)
(0.00378287 -5.21419e-07 -6.43603e-07)
(0.00378443 -7.22541e-07 -1.44754e-06)
(0.00378711 -8.83328e-07 -2.24761e-06)
(0.0037909 -9.88496e-07 -3.04926e-06)
(0.00379583 -1.02766e-06 -3.85376e-06)
(0.00380192 -9.98056e-07 -4.6632e-06)
(0.00380918 -9.03413e-07 -5.48753e-06)
(0.00381769 -7.50561e-07 -6.36812e-06)
(0.00382752 -5.44045e-07 -7.37386e-06)
(0.00383882 -2.85485e-07 -8.55798e-06)
(0.0038517 2.23707e-08 -9.913e-06)
(0.0038663 3.74592e-07 -1.13771e-05)
(0.0038827 7.62583e-07 -1.28872e-05)
(0.00390097 1.17172e-06 -1.44138e-05)
(0.00392117 1.58568e-06 -1.5956e-05)
(0.00394341 1.99219e-06 -1.7523e-05)
(0.00396777 2.38357e-06 -1.9112e-05)
(0.00399434 2.75565e-06 -2.06963e-05)
(0.00402321 3.10951e-06 -2.22631e-05)
(0.00405447 3.45333e-06 -2.38687e-05)
(0.00408829 3.7988e-06 -2.56307e-05)
(0.00412488 4.15643e-06 -2.76481e-05)
(0.00416453 4.53233e-06 -2.99519e-05)
(0.00420752 4.92505e-06 -3.2524e-05)
(0.00425416 5.32653e-06 -3.53258e-05)
(0.0043047 5.72603e-06 -3.831e-05)
(0.0043594 6.11203e-06 -4.1433e-05)
(0.00441847 6.4763e-06 -4.46686e-05)
(0.00448215 6.82371e-06 -4.80162e-05)
(0.00455068 7.17799e-06 -5.15056e-05)
(0.00462435 7.57846e-06 -5.51807e-05)
(0.00470347 8.07782e-06 -5.90699e-05)
(0.0047884 8.73567e-06 -6.31952e-05)
(0.00487952 9.61478e-06 -6.75924e-05)
(0.00497725 1.07893e-05 -7.23055e-05)
(0.00508203 1.23614e-05 -7.73759e-05)
(0.00519432 1.44686e-05 -8.28287e-05)
(0.0037818 -4.84975e-07 -7.50398e-07)
(0.0037834 -5.42589e-07 -1.6252e-06)
(0.00378612 -5.81278e-07 -2.45493e-06)
(0.00378997 -5.79946e-07 -3.25783e-06)
(0.00379495 -5.21549e-07 -4.05695e-06)
(0.00380108 -3.96696e-07 -4.861e-06)
(0.00380839 -1.99771e-07 -5.67571e-06)
(0.00381693 7.69676e-08 -6.54398e-06)
(0.00382681 4.44415e-07 -7.5466e-06)
(0.00383815 9.07301e-07 -8.73667e-06)
(0.00385109 1.45513e-06 -1.00852e-05)
(0.00386574 2.06381e-06 -1.15072e-05)
(0.00388217 2.70433e-06 -1.29369e-05)
(0.00390046 3.3498e-06 -1.43616e-05)
(0.00392067 3.97847e-06 -1.58053e-05)
(0.0039429 4.57505e-06 -1.72968e-05)
(0.00396725 5.12985e-06 -1.88422e-05)
(0.00399382 5.63917e-06 -2.04149e-05)
(0.00402269 6.11225e-06 -2.19949e-05)
(0.00405398 6.57369e-06 -2.3628e-05)
(0.00408783 7.05395e-06 -2.54135e-05)
(0.00412448 7.57883e-06 -2.74315e-05)
(0.00416419 8.16182e-06 -2.97101e-05)
(0.00420724 8.80118e-06 -3.2241e-05)
(0.00425393 9.48301e-06 -3.49961e-05)
(0.00430451 1.0186e-05 -3.79337e-05)
(0.00435924 1.08861e-05 -4.10158e-05)
(0.00441834 1.15642e-05 -4.42315e-05)
(0.00448207 1.222e-05 -4.75963e-05)
(0.00455069 1.28766e-05 -5.11387e-05)
(0.00462449 1.3575e-05 -5.48784e-05)
(0.00470379 1.43711e-05 -5.88182e-05)
(0.00478896 1.53297e-05 -6.29718e-05)
(0.00488038 1.6522e-05 -6.73802e-05)
(0.00497849 1.80331e-05 -7.21006e-05)
(0.00508374 1.99736e-05 -7.7186e-05)
(0.00519665 2.24784e-05 -8.26669e-05)
(0.00377878 -3.9216e-07 -8.49279e-07)
(0.0037804 -2.86909e-07 -1.75651e-06)
(0.00378316 -1.94853e-07 -2.58051e-06)
(0.00378704 -8.78171e-08 -3.35872e-06)
(0.00379204 6.19908e-08 -4.13693e-06)
(0.00379819 2.74218e-07 -4.93453e-06)
(0.00380552 5.64401e-07 -5.75535e-06)
(0.00381409 9.52914e-07 -6.63626e-06)