/*--------------------------------*- C++ -*----------------------------------*\
| =========                 |                                                 |
| \\      /  F ield         | OpenFOAM: The Open Source CFD Toolbox           |
|  \\    /   O peration     | Version:  2.3.1                                 |
|   \\  /    A nd           | Web:      www.OpenFOAM.org                      |
|    \\/     M anipulation  |                                                 |
\*---------------------------------------------------------------------------*/
FoamFile
{
    version     2.0;
    format      ascii;
    class       volVectorField;
    location    "15";
    object      U_0;
}
// * * * * * * * * * * * * * * * * * * * * * * * * * * * * * * * * * * * * * //

dimensions      [0 1 -1 0 0 0 0];

internalField   nonuniform List<vector> 
37692
(
(0.0031216 4.94664e-08 3.00596e-08)
(0.00312167 -1.90438e-07 -3.04914e-08)
(0.00312253 -4.2453e-07 -9.5901e-08)
(0.00312419 -6.48985e-07 -1.75532e-07)
(0.00312671 -8.54436e-07 -2.73605e-07)
(0.00313012 -1.04077e-06 -3.91709e-07)
(0.00313449 -1.23231e-06 -5.34372e-07)
(0.00313997 -1.46668e-06 -7.08119e-07)
(0.00314674 -1.76486e-06 -9.12265e-07)
(0.003155 -2.12268e-06 -1.13331e-06)
(0.00316487 -2.52397e-06 -1.35393e-06)
(0.0031764 -2.95904e-06 -1.5647e-06)
(0.00318962 -3.42989e-06 -1.76552e-06)
(0.00320459 -3.93077e-06 -1.96061e-06)
(0.00322133 -4.43857e-06 -2.15551e-06)
(0.00323986 -4.93493e-06 -2.35832e-06)
(0.00326022 -5.42202e-06 -2.58181e-06)
(0.0032825 -5.91391e-06 -2.83986e-06)
(0.00330686 -6.41979e-06 -3.14006e-06)
(0.00333348 -6.93184e-06 -3.47932e-06)
(0.00336248 -7.43507e-06 -3.84574e-06)
(0.00339395 -7.93583e-06 -4.22839e-06)
(0.00342799 -8.46977e-06 -4.62686e-06)
(0.00346482 -9.0735e-06 -5.04932e-06)
(0.00350472 -9.75596e-06 -5.50378e-06)
(0.00354798 -1.05043e-05 -5.99329e-06)
(0.00359489 -1.13055e-05 -6.51733e-06)
(0.00364568 -1.21537e-05 -7.07409e-06)
(0.00370057 -1.30447e-05 -7.65938e-06)
(0.00375973 -1.39693e-05 -8.26516e-06)
(0.00382327 -1.49166e-05 -8.88185e-06)
(0.00389129 -1.58939e-05 -9.50444e-06)
(0.0039639 -1.69335e-05 -1.01378e-05)
(0.00404132 -1.80688e-05 -1.07938e-05)
(0.00412384 -1.93137e-05 -1.14826e-05)
(0.0042118 -2.06601e-05 -1.22072e-05)
(0.0043055 -2.20893e-05 -1.29657e-05)
(0.00440519 -2.35891e-05 -1.37507e-05)
(0.00338679 1.99403e-07 3.10181e-08)
(0.00338691 -3.20526e-07 -9.25495e-08)
(0.00338788 -8.20148e-07 -2.26392e-07)
(0.00338974 -1.28419e-06 -3.74743e-07)
(0.00339251 -1.69855e-06 -5.35701e-07)
(0.00339623 -2.06884e-06 -7.10124e-07)
(0.00340097 -2.4346e-06 -9.16271e-07)
(0.00340685 -2.8516e-06 -1.17932e-06)
(0.00341406 -3.35592e-06 -1.50072e-06)
(0.00342276 -3.95448e-06 -1.85701e-06)
(0.00343306 -4.64033e-06 -2.22155e-06)
(0.00344502 -5.41104e-06 -2.58238e-06)
(0.00345869 -6.26557e-06 -2.94542e-06)
(0.00347415 -7.17698e-06 -3.31667e-06)
(0.00349142 -8.09329e-06 -3.69118e-06)
(0.00351054 -8.97555e-06 -4.07125e-06)
(0.00353154 -9.81679e-06 -4.47714e-06)
(0.00355455 -1.06276e-05 -4.93271e-06)
(0.0035797 -1.14121e-05 -5.44949e-06)
(0.00360717 -1.21565e-05 -6.01629e-06)
(0.00363706 -1.28564e-05 -6.60668e-06)
(0.00366944 -1.35562e-05 -7.20848e-06)
(0.00370447 -1.43413e-05 -7.83707e-06)
(0.00374238 -1.52798e-05 -8.51432e-06)
(0.00378347 -1.63828e-05 -9.24674e-06)
(0.00382804 -1.76217e-05 -1.00296e-05)
(0.00387636 -1.89633e-05 -1.08612e-05)
(0.00392867 -2.03819e-05 -1.17442e-05)
(0.00398518 -2.18541e-05 -1.26774e-05)
(0.0040461 -2.33524e-05 -1.36508e-05)
(0.00411154 -2.48591e-05 -1.46488e-05)
(0.00418162 -2.63964e-05 -1.56699e-05)
(0.0042565 -2.80233e-05 -1.67364e-05)
(0.00433644 -2.97936e-05 -1.78741e-05)
(0.00442176 -3.17229e-05 -1.90958e-05)
(0.0045128 -3.37872e-05 -2.04007e-05)
(0.00460989 -3.59409e-05 -2.17828e-05)
(0.00471329 -3.81393e-05 -2.32427e-05)
(0.00344129 2.75848e-07 8.35964e-08)
(0.00344143 -3.72555e-07 -8.7934e-08)
(0.00344249 -9.81005e-07 -2.74354e-07)
(0.00344448 -1.53535e-06 -4.68995e-07)
(0.00344742 -2.02587e-06 -6.66846e-07)
(0.00345132 -2.45508e-06 -8.73375e-07)
(0.00345625 -2.84555e-06 -1.11681e-06)
(0.00346232 -3.23398e-06 -1.42519e-06)
(0.00346969 -3.65875e-06 -1.79731e-06)
(0.00347851 -4.15325e-06 -2.20978e-06)
(0.00348886 -4.74244e-06 -2.6383e-06)
(0.00350084 -5.44026e-06 -3.07763e-06)
(0.00351453 -6.2372e-06 -3.54011e-06)
(0.00353 -7.08887e-06 -4.02384e-06)
(0.00354731 -7.93606e-06 -4.51053e-06)
(0.00356649 -8.73463e-06 -4.99822e-06)
(0.00358757 -9.46159e-06 -5.50807e-06)
(0.00361066 -1.01063e-05 -6.06565e-06)
(0.00363592 -1.06595e-05 -6.67934e-06)
(0.00366347 -1.11179e-05 -7.32591e-06)
(0.00369337 -1.15152e-05 -7.97448e-06)
(0.0037257 -1.19369e-05 -8.63037e-06)
(0.00376063 -1.24873e-05 -9.33395e-06)
(0.00379844 -1.32311e-05 -1.01165e-05)
(0.00383945 -1.41704e-05 -1.09768e-05)
(0.00388397 -1.52687e-05 -1.19004e-05)
(0.00393227 -1.64799e-05 -1.28816e-05)
(0.00398456 -1.77585e-05 -1.39207e-05)
(0.00404109 -1.90623e-05 -1.50131e-05)
(0.00410201 -2.0355e-05 -1.61406e-05)
(0.00416746 -2.16243e-05 -1.72828e-05)
(0.00423754 -2.28991e-05 -1.84495e-05)
(0.00431245 -2.42294e-05 -1.9681e-05)
(0.00439248 -2.56485e-05 -2.10138e-05)
(0.004478 -2.71542e-05 -2.24626e-05)
(0.00456935 -2.87102e-05 -2.4021e-05)
(0.00466685 -3.02561e-05 -2.56779e-05)
(0.00477079 -3.17155e-05 -2.74369e-05)
(0.00345811 1.59178e-07 1.22518e-07)
(0.00345831 -5.29667e-07 -7.85828e-08)
(0.00345945 -1.15297e-06 -2.90323e-07)
(0.00346155 -1.71021e-06 -5.07508e-07)
(0.00346462 -2.19637e-06 -7.28664e-07)
(0.00346866 -2.60189e-06 -9.5936e-07)
(0.00347374 -2.92518e-06 -1.22217e-06)
(0.00347995 -3.18427e-06 -1.53706e-06)
(0.0034874 -3.42134e-06 -1.90521e-06)
(0.00349625 -3.69333e-06 -2.31432e-06)
(0.00350658 -4.0494e-06 -2.75081e-06)
(0.00351851 -4.50819e-06 -3.21846e-06)
(0.00353217 -5.04842e-06 -3.72783e-06)
(0.00354763 -5.62269e-06 -4.2653e-06)
(0.00356497 -6.18318e-06 -4.80618e-06)
(0.00358419 -6.69212e-06 -5.346e-06)
(0.00360535 -7.11907e-06 -5.90021e-06)
(0.00362853 -7.44005e-06 -6.48796e-06)
(0.00365388 -7.64249e-06 -7.10801e-06)
(0.00368147 -7.74222e-06 -7.72986e-06)
(0.00371134 -7.8005e-06 -8.33349e-06)
(0.00374356 -7.91232e-06 -8.95189e-06)
(0.00377832 -8.16382e-06 -9.64556e-06)
(0.00381595 -8.59569e-06 -1.04469e-05)
(0.00385681 -9.20126e-06 -1.1346e-05)
(0.00390122 -9.94708e-06 -1.23206e-05)
(0.00394942 -1.07885e-05 -1.33584e-05)
(0.00400166 -1.16784e-05 -1.44524e-05)
(0.00405814 -1.25754e-05 -1.55894e-05)
(0.00411901 -1.34543e-05 -1.67427e-05)
(0.00418439 -1.43148e-05 -1.78938e-05)
(0.00425439 -1.51753e-05 -1.90682e-05)
(0.00432924 -1.6048e-05 -2.03192e-05)
(0.00440925 -1.69237e-05 -2.16856e-05)
(0.00449481 -1.77741e-05 -2.31796e-05)
(0.00458628 -1.85575e-05 -2.47902e-05)
(0.00468401 -1.9209e-05 -2.65041e-05)
(0.00478831 -1.96324e-05 -2.83298e-05)
(0.00346373 -3.17294e-08 1.03568e-07)
(0.003464 -7.08063e-07 -1.11109e-07)
(0.00346522 -1.30463e-06 -3.27113e-07)
(0.00346741 -1.82034e-06 -5.55151e-07)
(0.00347058 -2.24832e-06 -7.96015e-07)
(0.00347476 -2.57289e-06 -1.04703e-06)
(0.00347998 -2.78258e-06 -1.31672e-06)
(0.00348629 -2.88581e-06 -1.6162e-06)
(0.00349382 -2.92341e-06 -1.95348e-06)
(0.00350266 -2.96041e-06 -2.33214e-06)
(0.00351295 -3.05239e-06 -2.75399e-06)
(0.00352483 -3.21238e-06 -3.22818e-06)
(0.00353846 -3.41101e-06 -3.75538e-06)
(0.00355393 -3.60806e-06 -4.31308e-06)
(0.0035713 -3.77538e-06 -4.87766e-06)
(0.00359058 -3.89276e-06 -5.44182e-06)
(0.00361181 -3.93938e-06 -6.01145e-06)
(0.00363509 -3.8956e-06 -6.59491e-06)
(0.00366052 -3.75707e-06 -7.18064e-06)
(0.00368814 -3.55259e-06 -7.741e-06)
(0.00371796 -3.34418e-06 -8.27904e-06)
(0.00375006 -3.20241e-06 -8.85005e-06)
(0.00378468 -3.17337e-06 -9.52143e-06)
(0.00382217 -3.26859e-06 -1.03196e-05)
(0.0038629 -3.47801e-06 -1.12277e-05)
(0.00390722 -3.78112e-06 -1.22194e-05)
(0.00395536 -4.14878e-06 -1.32763e-05)
(0.00400756 -4.54901e-06 -1.43835e-05)
(0.00406401 -4.96043e-06 -1.55206e-05)
(0.00412485 -5.3801e-06 -1.66594e-05)
(0.00419018 -5.8128e-06 -1.77914e-05)
(0.00426015 -6.247e-06 -1.89539e-05)
(0.00433501 -6.64181e-06 -2.01992e-05)
(0.00441508 -6.94279e-06 -2.15583e-05)
(0.00450075 -7.10225e-06 -2.30386e-05)
(0.0045924 -7.08008e-06 -2.46318e-05)
(0.00469039 -6.81339e-06 -2.63307e-05)
(0.00479509 -6.19091e-06 -2.8145e-05)
(0.00346514 -1.76745e-07 6.44291e-08)
(0.00346547 -8.06428e-07 -1.67651e-07)
(0.00346678 -1.35361e-06 -3.9365e-07)
(0.00346907 -1.79738e-06 -6.35575e-07)
(0.00347236 -2.12718e-06 -8.92184e-07)
(0.00347666 -2.33666e-06 -1.15447e-06)
(0.003482 -2.42185e-06 -1.42119e-06)
(0.00348843 -2.38901e-06 -1.69704e-06)
(0.003496 -2.27041e-06 -1.996e-06)
(0.00350484 -2.12109e-06 -2.33852e-06)
(0.0035151 -1.98434e-06 -2.74361e-06)
(0.00352697 -1.85976e-06 -3.21966e-06)
(0.00354061 -1.71356e-06 -3.75192e-06)
(0.00355611 -1.51814e-06 -4.31144e-06)
(0.00357351 -1.27023e-06 -4.87783e-06)
(0.00359283 -9.79934e-07 -5.44253e-06)
(0.00361412 -6.54209e-07 -6.00592e-06)
(0.00363746 -2.9395e-07 -6.56886e-06)
(0.00366292 9.44225e-08 -7.11541e-06)
(0.00369054 4.87141e-07 -7.62702e-06)
(0.00372031 8.49703e-07 -8.12411e-06)
(0.00375233 1.15921e-06 -8.67168e-06)
(0.00378687 1.41553e-06 -9.33256e-06)
(0.00382428 1.62959e-06 -1.01242e-05)
(0.00386496 1.8065e-06 -1.10269e-05)
(0.00390922 1.947e-06 -1.20146e-05)
(0.00395732 2.05666e-06 -1.3065e-05)
(0.00400949 2.14172e-06 -1.4158e-05)
(0.0040659 2.19525e-06 -1.52736e-05)
(0.00412669 2.19954e-06 -1.63938e-05)
(0.00419199 2.15539e-06 -1.75236e-05)
(0.00426198 2.10921e-06 -1.86989e-05)
(0.00433691 2.14529e-06 -1.99538e-05)
(0.00441713 2.34743e-06 -2.13044e-05)
(0.004503 2.77371e-06 -2.27579e-05)
(0.00459489 3.46496e-06 -2.43185e-05)
(0.00469321 4.48397e-06 -2.59943e-05)
(0.00479838 5.95027e-06 -2.77933e-05)
(0.00346458 -2.87647e-07 4.82841e-08)
(0.00346497 -8.07848e-07 -2.2226e-07)
(0.00346637 -1.24995e-06 -4.79868e-07)
(0.00346878 -1.57326e-06 -7.41739e-07)
(0.00347218 -1.7694e-06 -1.00674e-06)
(0.0034766 -1.84812e-06 -1.27105e-06)
(0.00348205 -1.81735e-06 -1.53268e-06)
(0.00348857 -1.68126e-06 -1.79116e-06)
(0.00349621 -1.45524e-06 -2.06296e-06)
(0.00350507 -1.16779e-06 -2.38386e-06)
(0.00351534 -8.35746e-07 -2.78535e-06)
(0.00352725 -4.44611e-07 -3.26776e-06)
(0.00354094 3.3286e-08 -3.79876e-06)
(0.00355651 6.04593e-07 -4.34349e-06)
(0.00357395 1.24309e-06 -4.88596e-06)
(0.00359329 1.90643e-06 -5.42454e-06)
(0.00361458 2.55713e-06 -5.96454e-06)
(0.00363791 3.17205e-06 -6.50639e-06)
(0.00366335 3.73896e-06 -7.03348e-06)
(0.00369093 4.2528e-06 -7.5317e-06)
(0.00372066 4.72047e-06 -8.02555e-06)
(0.00375265 5.16753e-06 -8.57685e-06)
(0.00378718 5.62998e-06 -9.23841e-06)
(0.00382459 6.13047e-06 -1.0022e-05)
(0.00386526 6.6649e-06 -1.09117e-05)
(0.00390951 7.21409e-06 -1.18852e-05)
(0.00395759 7.7593e-06 -1.29182e-05)
(0.00400973 8.28182e-06 -1.39883e-05)
(0.00406608 8.75525e-06 -1.5083e-05)
(0.00412681 9.15735e-06 -1.62007e-05)
(0.00419209 9.50181e-06 -1.73553e-05)
(0.00426212 9.85467e-06 -1.85686e-05)
(0.0043372 1.03145e-05 -1.98505e-05)
(0.00441762 1.09731e-05 -2.12045e-05)
(0.00450374 1.18982e-05 -2.26433e-05)
(0.00459592 1.31435e-05 -2.41878e-05)
(0.00469462 1.4784e-05 -2.58579e-05)
(0.00480031 1.69419e-05 -2.76659e-05)
(0.00346253 -7.1749e-07 -2.72726e-07)
(0.00346404 -9.73269e-07 -5.70455e-07)
(0.00346657 -1.11963e-06 -8.48351e-07)
(0.00347008 -1.1551e-06 -1.11238e-06)
(0.00347458 -1.09698e-06 -1.37372e-06)
(0.00348011 -9.57798e-07 -1.63503e-06)
(0.0034867 -7.36996e-07 -1.8914e-06)
(0.0034944 -4.2829e-07 -2.15855e-06)
(0.00350331 -2.37193e-08 -2.48041e-06)
(0.00351366 4.91174e-07 -2.89176e-06)
(0.00352565 1.13523e-06 -3.38025e-06)
(0.00353945 1.91268e-06 -3.89843e-06)
(0.00355509 2.79884e-06 -4.40871e-06)
(0.00357257 3.74525e-06 -4.90291e-06)
(0.00359189 4.69422e-06 -5.39416e-06)
(0.00361313 5.59527e-06 -5.90009e-06)
(0.00363639 6.41352e-06 -6.42608e-06)
(0.00366176 7.13296e-06 -6.95542e-06)
(0.00368929 7.76207e-06 -7.46978e-06)
(0.003719 8.3385e-06 -7.98633e-06)
(0.00375102 8.92382e-06 -8.55668e-06)
(0.0037856 9.58076e-06 -9.22335e-06)
(0.00382308 1.03417e-05 -9.99709e-06)
(0.0038638 1.11978e-05 -1.087e-05)
(0.00390807 1.21145e-05 -1.18263e-05)
(0.00395614 1.30513e-05 -1.28425e-05)
(0.00400825 1.39708e-05 -1.38974e-05)
(0.00406455 1.48408e-05 -1.49858e-05)
(0.00412524 1.56472e-05 -1.61176e-05)
(0.00419051 1.64127e-05 -1.73075e-05)
(0.00426062 1.72e-05 -1.85631e-05)
(0.00433585 1.80958e-05 -1.98782e-05)
(0.00441649 1.91884e-05 -2.12515e-05)
(0.00450289 2.05598e-05 -2.27006e-05)
(0.00459542 2.22885e-05 -2.42556e-05)
(0.00469455 2.44706e-05 -2.59421e-05)
(0.0048008 2.72281e-05 -2.77741e-05)
(0.00345599 -5.51102e-07 -3.23489e-07)
(0.00345759 -5.49847e-07 -6.44729e-07)
(0.00346021 -4.7998e-07 -9.22507e-07)
(0.00346379 -3.4147e-07 -1.17471e-06)
(0.00346834 -1.43455e-07 -1.42804e-06)
(0.0034739 1.09588e-07 -1.69085e-06)
(0.00348053 4.25791e-07 -1.95667e-06)
(0.00348829 8.31341e-07 -2.23853e-06)
(0.00349728 1.36683e-06 -2.57709e-06)
(0.00350773 2.06817e-06 -2.99811e-06)
(0.00351985 2.94189e-06 -3.47754e-06)
(0.00353375 3.95552e-06 -3.96285e-06)
(0.00354947 5.05332e-06 -4.42038e-06)
(0.00356697 6.18025e-06 -4.85455e-06)
(0.00358627 7.29026e-06 -5.28984e-06)
(0.00360745 8.34639e-06 -5.75322e-06)
(0.00363062 9.31693e-06 -6.25735e-06)
(0.0036559 1.01797e-05 -6.78771e-06)
(0.00368336 1.09401e-05 -7.32116e-06)
(0.00371307 1.16463e-05 -7.86622e-06)
(0.00374515 1.23805e-05 -8.46113e-06)
(0.00377983 1.32238e-05 -9.13519e-06)
(0.00381742 1.42193e-05 -9.89691e-06)
(0.00385823 1.53603e-05 -1.07458e-05)
(0.00390255 1.66046e-05 -1.16756e-05)
(0.00395065 1.78974e-05 -1.26703e-05)
(0.00400274 1.91901e-05 -1.37126e-05)
(0.00405902 2.04507e-05 -1.47992e-05)
(0.0041197 2.1675e-05 -1.59402e-05)
(0.00418499 2.28885e-05 -1.71486e-05)
(0.00425519 2.41402e-05 -1.84277e-05)
(0.00433057 2.54967e-05 -1.97688e-05)
(0.00441144 2.70374e-05 -2.11692e-05)
(0.00449813 2.8854e-05 -2.26433e-05)
(0.00459103 3.1047e-05 -2.42174e-05)
(0.00469061 3.37266e-05 -2.59173e-05)
(0.0047974 3.70135e-05 -2.77524e-05)
(0.00343835 -2.99576e-07 -3.66025e-07)
(0.00344 -4.57256e-08 -6.77773e-07)
(0.00344268 2.15217e-07 -9.32849e-07)
(0.00344629 4.93855e-07 -1.161e-06)
(0.00345084 8.02793e-07 -1.39607e-06)
(0.0034564 1.15386e-06 -1.65195e-06)
(0.00346302 1.56225e-06 -1.92406e-06)
(0.00347081 2.06406e-06 -2.21897e-06)
(0.00347988 2.71486e-06 -2.5618e-06)
(0.00349043 3.5544e-06 -2.9633e-06)
(0.00350264 4.56826e-06 -3.39691e-06)
(0.00351662 5.69181e-06 -3.82132e-06)
(0.00353239 6.85273e-06 -4.21586e-06)
(0.00354991 8.00388e-06 -4.58887e-06)
(0.00356921 9.12642e-06 -4.96404e-06)
(0.00359035 1.02118e-05 -5.36958e-06)
(0.00361345 1.1243e-05 -5.82568e-06)
(0.00363864 1.21934e-05 -6.32675e-06)
(0.00366604 1.30571e-05 -6.85517e-06)
(0.00369574 1.38781e-05 -7.41517e-06)
(0.00372788 1.47419e-05 -8.02694e-06)
(0.0037627 1.57326e-05 -8.70024e-06)
(0.00380044 1.68966e-05 -9.43535e-06)
(0.00384137 1.82337e-05 -1.02359e-05)
(0.00388577 1.97066e-05 -1.11081e-05)
(0.0039339 2.12601e-05 -1.20488e-05)
(0.00398601 2.28416e-05 -1.30477e-05)
(0.00404231 2.44176e-05 -1.41001e-05)
(0.00410301 2.59862e-05 -1.52107e-05)
(0.00416837 2.75732e-05 -1.63912e-05)
(0.00423866 2.92186e-05 -1.76487e-05)
(0.00431418 3.09725e-05 -1.89773e-05)
(0.00439525 3.28993e-05 -2.03724e-05)
(0.00448221 3.50842e-05 -2.18377e-05)
(0.00457543 3.76291e-05 -2.33877e-05)
(0.00467541 4.06445e-05 -2.50461e-05)
(0.00478266 4.42432e-05 -2.68153e-05)
(0.00338304 -3.85958e-09 -3.57317e-07)
(0.00338474 4.08843e-07 -6.06039e-07)
(0.00338745 7.71007e-07 -8.03076e-07)
(0.00339105 1.11074e-06 -9.79993e-07)
(0.00339556 1.46449e-06 -1.16876e-06)
(0.00340104 1.85979e-06 -1.38406e-06)
(0.0034076 2.31431e-06 -1.62421e-06)
(0.00341534 2.85695e-06 -1.88855e-06)
(0.00342442 3.53071e-06 -2.18419e-06)
(0.003435 4.35866e-06 -2.50964e-06)
(0.00344724 5.31172e-06 -2.84595e-06)
(0.00346125 6.32139e-06 -3.17137e-06)
(0.00347704 7.32368e-06 -3.47808e-06)
(0.00349459 8.28837e-06 -3.77236e-06)
(0.0035139 9.21861e-06 -4.06791e-06)
(0.00353501 1.01333e-05 -4.38604e-06)
(0.00355805 1.10403e-05 -4.74897e-06)
(0.00358314 1.19244e-05 -5.16323e-06)
(0.00361043 1.27758e-05 -5.62456e-06)
(0.00364006 1.36258e-05 -6.13456e-06)
(0.00367221 1.45382e-05 -6.69426e-06)
(0.00370708 1.55708e-05 -7.29532e-06)
(0.0037449 1.67539e-05 -7.92941e-06)
(0.00378589 1.80916e-05 -8.6011e-06)
(0.00383031 1.95648e-05 -9.3253e-06)
(0.00387843 2.11363e-05 -1.01097e-05)
(0.00393049 2.27639e-05 -1.09525e-05)
(0.00398675 2.44172e-05 -1.18506e-05)
(0.00404741 2.60949e-05 -1.28037e-05)
(0.00411273 2.78248e-05 -1.38213e-05)
(0.00418299 2.96436e-05 -1.49112e-05)
(0.0042585 3.15863e-05 -1.60696e-05)
(0.00433958 3.36911e-05 -1.72901e-05)
(0.00442657 3.60102e-05 -1.85668e-05)
(0.00451985 3.86173e-05 -1.99041e-05)
(0.00461988 4.16021e-05 -2.13182e-05)
(0.0047272 4.50532e-05 -2.28088e-05)
(0.00311721 1.20896e-07 -2.56047e-07)
(0.0031189 3.91008e-07 -3.85123e-07)
(0.00312155 6.15966e-07 -4.83676e-07)
(0.00312503 8.18325e-07 -5.74178e-07)
(0.00312933 1.02605e-06 -6.76062e-07)
(0.00313453 1.25926e-06 -7.98418e-07)
(0.00314076 1.52662e-06 -9.40638e-07)
(0.00314815 1.83832e-06 -1.0992e-06)
(0.00315686 2.21098e-06 -1.27222e-06)
(0.00316705 2.65093e-06 -1.45608e-06)
(0.00317889 3.13954e-06 -1.64345e-06)
(0.00319248 3.64236e-06 -1.82756e-06)
(0.00320782 4.1309e-06 -2.00663e-06)
(0.0032249 4.59404e-06 -2.18329e-06)
(0.00324368 5.03815e-06 -2.36273e-06)
(0.00326419 5.48169e-06 -2.55467e-06)
(0.00328653 5.93979e-06 -2.77242e-06)
(0.00331083 6.41047e-06 -3.02617e-06)
(0.00333725 6.88763e-06 -3.32121e-06)
(0.00336595 7.38343e-06 -3.65717e-06)
(0.00339713 7.92439e-06 -4.02478e-06)
(0.00343098 8.5302e-06 -4.41004e-06)
(0.00346769 9.20749e-06 -4.80396e-06)
(0.00350748 9.95902e-06 -5.21078e-06)
(0.00355058 1.07831e-05 -5.64413e-06)
(0.00359725 1.1668e-05 -6.11416e-06)
(0.00364776 1.25969e-05 -6.62503e-06)
(0.00370234 1.35552e-05 -7.17524e-06)
(0.0037612 1.45414e-05 -7.7616e-06)
(0.00382457 1.55724e-05 -8.38735e-06)
(0.00389273 1.66684e-05 -9.05437e-06)
(0.00396595 1.78445e-05 -9.75924e-06)
(0.00404456 1.9112e-05 -1.0497e-05)
(0.00412888 2.04852e-05 -1.12614e-05)
(0.00421926 2.19908e-05 -1.20524e-05)
(0.00431615 2.36686e-05 -1.28767e-05)
(0.00442008 2.55558e-05 -1.37329e-05)
(0.00352538 6.04695e-08 1.37556e-07)
(0.0035255 -1.09722e-07 -1.31374e-07)
(0.0035265 -2.6464e-07 -4.18048e-07)
(0.00352839 -4.02363e-07 -7.46164e-07)
(0.00353121 -5.15537e-07 -1.1273e-06)
(0.00353501 -6.07762e-07 -1.56652e-06)
(0.00353989 -7.07022e-07 -2.07398e-06)
(0.00354597 -8.51248e-07 -2.66235e-06)
(0.00355342 -1.0599e-06 -3.32618e-06)
(0.00356243 -1.32663e-06 -4.03487e-06)
(0.00357311 -1.63269e-06 -4.7522e-06)
(0.00358553 -1.9678e-06 -5.4575e-06)
(0.00359975 -2.33183e-06 -6.15005e-06)
(0.00361582 -2.71387e-06 -6.84033e-06)
(0.00363376 -3.08899e-06 -7.54308e-06)
(0.00365362 -3.44097e-06 -8.28086e-06)
(0.00367545 -3.77331e-06 -9.08616e-06)
(0.00369936 -4.09992e-06 -9.99147e-06)
(0.00372551 -4.42846e-06 -1.10151e-05)
(0.00375406 -4.74779e-06 -1.21515e-05)
(0.00378514 -5.03913e-06 -1.33763e-05)
(0.00381887 -5.30548e-06 -1.46697e-05)
(0.00385538 -5.57983e-06 -1.60359e-05)
(0.00389489 -5.89713e-06 -1.74965e-05)
(0.00393769 -6.26742e-06 -1.90708e-05)
(0.00398409 -6.68116e-06 -2.07662e-05)
(0.00403436 -7.12701e-06 -2.25813e-05)
(0.00408879 -7.59816e-06 -2.45097e-05)
(0.0041476 -8.08878e-06 -2.65392e-05)
(0.00421099 -8.58635e-06 -2.86494e-05)
(0.0042791 -9.07672e-06 -3.08181e-05)
(0.00435205 -9.56418e-06 -3.30369e-05)
(0.00443 -1.00759e-05 -3.53219e-05)
(0.00451318 -1.06416e-05 -3.77044e-05)
(0.00460191 -1.12735e-05 -4.02122e-05)
(0.00469652 -1.19622e-05 -4.28579e-05)
(0.00479735 -1.26871e-05 -4.5638e-05)
(0.00490469 -1.34315e-05 -4.85371e-05)
(0.00373508 1.46692e-07 1.43141e-07)
(0.00373527 -2.03512e-07 -3.11427e-07)
(0.00373644 -5.17024e-07 -7.86184e-07)
(0.00373859 -7.92077e-07 -1.29339e-06)
(0.00374176 -1.02571e-06 -1.83554e-06)
(0.00374601 -1.23136e-06 -2.42202e-06)
(0.0037514 -1.4531e-06 -3.09009e-06)
(0.00375805 -1.74619e-06 -3.88009e-06)
(0.00376608 -2.14006e-06 -4.79034e-06)
(0.00377562 -2.62953e-06 -5.7816e-06)
(0.00378676 -3.19444e-06 -6.8089e-06)
(0.0037996 -3.8204e-06 -7.85115e-06)
(0.00381421 -4.49621e-06 -8.91711e-06)
(0.00383065 -5.19334e-06 -1.00143e-05)
(0.00384897 -5.87039e-06 -1.1137e-05)
(0.00386924 -6.50325e-06 -1.22972e-05)
(0.00389155 -7.09528e-06 -1.35352e-05)
(0.00391599 -7.66138e-06 -1.48954e-05)
(0.00394272 -8.20645e-06 -1.63985e-05)
(0.00397186 -8.71444e-06 -1.80233e-05)
(0.00400353 -9.16909e-06 -1.9727e-05)
(0.00403789 -9.59127e-06 -2.14982e-05)
(0.00407512 -1.00412e-05 -2.33727e-05)
(0.00411543 -1.0576e-05 -2.53938e-05)
(0.00415912 -1.12144e-05 -2.7576e-05)
(0.00420647 -1.1943e-05 -2.99134e-05)
(0.00425775 -1.27397e-05 -3.24033e-05)
(0.00431324 -1.35832e-05 -3.50464e-05)
(0.00437316 -1.44502e-05 -3.78365e-05)
(0.00443773 -1.53112e-05 -4.07522e-05)
(0.00450713 -1.61441e-05 -4.37682e-05)
(0.00458156 -1.69604e-05 -4.6892e-05)
(0.00466123 -1.78036e-05 -5.01718e-05)
(0.00474643 -1.87163e-05 -5.36599e-05)
(0.00483747 -1.97104e-05 -5.73868e-05)
(0.00493471 -2.07638e-05 -6.13558e-05)
(0.00503846 -2.18339e-05 -6.55592e-05)
(0.00514902 -2.28701e-05 -6.99927e-05)
(0.00377115 1.78203e-07 2.28488e-07)
(0.0037714 -2.50932e-07 -3.50313e-07)
(0.00377268 -6.35108e-07 -9.48955e-07)
(0.00377501 -9.7394e-07 -1.56524e-06)
(0.0037784 -1.26774e-06 -2.19896e-06)
(0.00378289 -1.52904e-06 -2.86921e-06)
(0.00378855 -1.79437e-06 -3.62753e-06)
(0.00379547 -2.10986e-06 -4.5182e-06)
(0.00380373 -2.50489e-06 -5.54039e-06)
(0.00381343 -2.98588e-06 -6.65928e-06)
(0.00382467 -3.54593e-06 -7.83686e-06)
(0.00383755 -4.17415e-06 -9.06514e-06)
(0.00385215 -4.85263e-06 -1.03584e-05)
(0.00386855 -5.54557e-06 -1.17067e-05)
(0.00388682 -6.21068e-06 -1.30832e-05)
(0.00390704 -6.82367e-06 -1.44917e-05)
(0.00392929 -7.3811e-06 -1.59706e-05)
(0.00395368 -7.88784e-06 -1.75637e-05)
(0.00398034 -8.34484e-06 -1.9282e-05)
(0.00400937 -8.74482e-06 -2.10851e-05)
(0.00404089 -9.09076e-06 -2.29311e-05)
(0.00407505 -9.42067e-06 -2.48428e-05)
(0.00411205 -9.80045e-06 -2.68971e-05)
(0.00415214 -1.02851e-05 -2.91522e-05)
(0.00419559 -1.08914e-05 -3.16113e-05)
(0.00424269 -1.16048e-05 -3.42544e-05)
(0.0042937 -1.23976e-05 -3.70696e-05)
(0.00434889 -1.32369e-05 -4.00519e-05)
(0.00440848 -1.40867e-05 -4.31875e-05)
(0.00447268 -1.49116e-05 -4.64426e-05)
(0.00454169 -1.56897e-05 -4.97911e-05)
(0.00461575 -1.64311e-05 -5.32654e-05)
(0.00469512 -1.71695e-05 -5.69446e-05)
(0.00478009 -1.7933e-05 -6.08983e-05)
(0.00487102 -1.87222e-05 -6.51584e-05)
(0.00496825 -1.95048e-05 -6.97176e-05)
(0.00507211 -2.02217e-05 -7.45619e-05)
(0.00518291 -2.07899e-05 -7.9693e-05)
(0.00377992 1.21854e-07 2.92477e-07)
(0.00378024 -3.26555e-07 -3.63239e-07)
(0.00378162 -7.26889e-07 -1.02898e-06)
(0.00378408 -1.07846e-06 -1.70715e-06)
(0.00378761 -1.38043e-06 -2.40249e-06)
(0.00379227 -1.63864e-06 -3.13276e-06)
(0.0037981 -1.87589e-06 -3.939e-06)
(0.00380516 -2.12476e-06 -4.8559e-06)
(0.00381353 -2.4135e-06 -5.89079e-06)
(0.0038233 -2.76014e-06 -7.0285e-06)
(0.00383456 -3.16995e-06 -8.25132e-06)
(0.00384743 -3.63659e-06 -9.56548e-06)
(0.00386201 -4.14147e-06 -1.09778e-05)
(0.00387838 -4.65113e-06 -1.24582e-05)
(0.00389662 -5.13091e-06 -1.39693e-05)
(0.0039168 -5.56073e-06 -1.55073e-05)
(0.00393902 -5.93258e-06 -1.7099e-05)
(0.00396338 -6.24422e-06 -1.87749e-05)
(0.00398998 -6.49632e-06 -2.05277e-05)
(0.00401892 -6.69225e-06 -2.23102e-05)
(0.00405032 -6.84938e-06 -2.41057e-05)
(0.00408431 -7.0097e-06 -2.59832e-05)
(0.00412111 -7.2281e-06 -2.80522e-05)
(0.00416098 -7.5449e-06 -3.03742e-05)
(0.0042042 -7.9703e-06 -3.29403e-05)
(0.00425107 -8.49125e-06 -3.57174e-05)
(0.00430185 -9.08205e-06 -3.86795e-05)
(0.00435678 -9.70966e-06 -4.18063e-05)
(0.0044161 -1.034e-05 -4.50682e-05)
(0.00448 -1.09432e-05 -4.8419e-05)
(0.00454871 -1.15007e-05 -5.18421e-05)
(0.00462247 -1.20131e-05 -5.53983e-05)
(0.00470156 -1.24907e-05 -5.9186e-05)
(0.00478632 -1.29355e-05 -6.32793e-05)
(0.00487711 -1.33301e-05 -6.77051e-05)
(0.00497427 -1.36317e-05 -7.24508e-05)
(0.00507817 -1.37678e-05 -7.75032e-05)
(0.00518915 -1.36332e-05 -8.28721e-05)
(0.00378229 -2.33352e-10 2.72489e-07)
(0.00378266 -4.19114e-07 -4.28006e-07)
(0.00378412 -7.92463e-07 -1.12607e-06)
(0.00378666 -1.11486e-06 -1.84419e-06)
(0.00379031 -1.38194e-06 -2.58841e-06)
(0.00379508 -1.59236e-06 -3.36255e-06)
(0.00380102 -1.75655e-06 -4.18621e-06)
(0.00380817 -1.89494e-06 -5.08342e-06)
(0.0038166 -2.03255e-06 -6.07474e-06)
(0.00382639 -2.19171e-06 -7.17282e-06)
(0.00383766 -2.38294e-06 -8.38765e-06)
(0.00385052 -2.60371e-06 -9.73197e-06)
(0.00386508 -2.83935e-06 -1.11948e-05)
(0.00388144 -3.06547e-06 -1.27326e-05)
(0.00389968 -3.26123e-06 -1.43062e-05)
(0.00391986 -3.416e-06 -1.59033e-05)
(0.00394208 -3.52392e-06 -1.75346e-05)
(0.00396644 -3.58247e-06 -1.92114e-05)
(0.00399303 -3.59451e-06 -2.09113e-05)
(0.00402193 -3.56916e-06 -2.25968e-05)
(0.00405325 -3.52596e-06 -2.42897e-05)
(0.00408713 -3.49667e-06 -2.60961e-05)
(0.00412379 -3.51557e-06 -2.81383e-05)
(0.00416352 -3.60461e-06 -3.04703e-05)
(0.0042066 -3.76821e-06 -3.30731e-05)
(0.00425332 -3.99849e-06 -3.59047e-05)
(0.00430395 -4.27868e-06 -3.89263e-05)
(0.00435874 -4.5862e-06 -4.21029e-05)
(0.0044179 -4.89881e-06 -4.53922e-05)
(0.00448166 -5.19585e-06 -4.87485e-05)
(0.00455022 -5.45828e-06 -5.21747e-05)
(0.00462384 -5.67048e-06 -5.57481e-05)
(0.00470283 -5.81507e-06 -5.95641e-05)
(0.00478753 -5.86761e-06 -6.3684e-05)
(0.00487832 -5.793e-06 -6.81295e-05)
(0.00497556 -5.53849e-06 -7.28966e-05)
(0.00507964 -5.02033e-06 -7.79842e-05)
(0.00519094 -4.11568e-06 -8.34058e-05)
(0.00378275 -1.4669e-07 2.18209e-07)
(0.00378316 -4.92615e-07 -5.33086e-07)
(0.00378467 -8.01008e-07 -1.2704e-06)
(0.00378729 -1.05937e-06 -2.02792e-06)
(0.00379102 -1.25809e-06 -2.80876e-06)
(0.00379588 -1.39098e-06 -3.60685e-06)
(0.0038019 -1.46075e-06 -4.42647e-06)
(0.00380911 -1.47914e-06 -5.28366e-06)
(0.00381758 -1.46461e-06 -6.21165e-06)
(0.00382739 -1.43447e-06 -7.25371e-06)
(0.00383866 -1.39687e-06 -8.44623e-06)
(0.00385152 -1.35143e-06 -9.79756e-06)
(0.0038661 -1.29042e-06 -1.12729e-05)
(0.00388247 -1.20378e-06 -1.28187e-05)
(0.00390072 -1.08839e-06 -1.43975e-05)
(0.00392091 -9.47658e-07 -1.59948e-05)
(0.00394315 -7.84518e-07 -1.76127e-05)
(0.00396751 -6.01418e-07 -1.92489e-05)
(0.0039941 -4.02622e-07 -2.08763e-05)
(0.00402298 -1.94856e-07 -2.24748e-05)
(0.00405425 1.26582e-08 -2.40943e-05)
(0.00408808 2.08792e-07 -2.58573e-05)
(0.00412468 3.83171e-07 -2.78797e-05)
(0.00416433 5.30299e-07 -3.02017e-05)
(0.00420734 6.48568e-07 -3.28004e-05)
(0.00425399 7.37976e-07 -3.56322e-05)
(0.00430455 8.01632e-07 -3.86514e-05)
(0.00435927 8.4485e-07 -4.18147e-05)
(0.00441836 8.73508e-07 -4.50811e-05)
(0.00448205 8.99105e-07 -4.84238e-05)
(0.00455057 9.43291e-07 -5.18649e-05)
(0.00462418 1.03672e-06 -5.54742e-05)
(0.00470319 1.21917e-06 -5.93178e-05)
(0.00478796 1.53654e-06 -6.34351e-05)
(0.00487887 2.03927e-06 -6.78513e-05)
(0.00497631 2.7905e-06 -7.2585e-05)
(0.0050807 3.88284e-06 -7.76568e-05)
(0.00519245 5.45103e-06 -8.30847e-05)
(0.00378244 -2.97431e-07 1.89059e-07)
(0.00378287 -5.21259e-07 -6.44723e-07)
(0.00378444 -7.22347e-07 -1.44862e-06)
(0.00378711 -8.83102e-07 -2.24868e-06)
(0.00379091 -9.88244e-07 -3.05033e-06)
(0.00379584 -1.02739e-06 -3.8548e-06)
(0.00380193 -9.97785e-07 -4.6642e-06)
(0.00380919 -9.0316e-07 -5.48846e-06)
(0.0038177 -7.50344e-07 -6.36898e-06)
(0.00382754 -5.43878e-07 -7.37466e-06)
(0.00383883 -2.8538e-07 -8.55876e-06)
(0.00385172 2.241e-08 -9.9138e-06)
(0.00386632 3.74564e-07 -1.1378e-05)
(0.00388272 7.62487e-07 -1.2888e-05)
(0.00390099 1.17156e-06 -1.44147e-05)
(0.0039212 1.58546e-06 -1.59568e-05)
(0.00394343 1.99191e-06 -1.75239e-05)
(0.0039678 2.38323e-06 -1.91129e-05)
(0.00399437 2.75526e-06 -2.06972e-05)
(0.00402324 3.10906e-06 -2.22638e-05)
(0.00405451 3.45282e-06 -2.38694e-05)
(0.00408832 3.79823e-06 -2.56313e-05)
(0.00412492 4.15581e-06 -2.76488e-05)
(0.00416457 4.53167e-06 -2.99528e-05)
(0.00420757 4.92433e-06 -3.25251e-05)
(0.00425421 5.32574e-06 -3.53271e-05)
(0.00430476 5.72514e-06 -3.83114e-05)
(0.00435945 6.11101e-06 -4.14346e-05)
(0.00441853 6.47509e-06 -4.46703e-05)
(0.00448221 6.82226e-06 -4.8018e-05)
(0.00455075 7.17624e-06 -5.15076e-05)
(0.00462442 7.57634e-06 -5.5183e-05)
(0.00470355 8.07524e-06 -5.90724e-05)
(0.00478848 8.7325e-06 -6.31981e-05)
(0.00487961 9.61085e-06 -6.75957e-05)
(0.00497735 1.07844e-05 -7.23093e-05)
(0.00508213 1.23551e-05 -7.73802e-05)
(0.00519444 1.44605e-05 -8.28335e-05)
(0.0037818 -4.84859e-07 -7.5152e-07)
(0.0037834 -5.42454e-07 -1.62627e-06)
(0.00378613 -5.81115e-07 -2.45598e-06)
(0.00378998 -5.7976e-07 -3.25887e-06)
(0.00379496 -5.21355e-07 -4.05796e-06)
(0.00380109 -3.96521e-07 -4.86196e-06)
(0.0038084 -1.99643e-07 -5.67659e-06)
(0.00381694 7.70294e-08 -6.54479e-06)
(0.00382682 4.44397e-07 -7.54737e-06)
(0.00383817 9.072e-07 -8.73745e-06)
(0.00385111 1.45495e-06 -1.0086e-05)
(0.00386576 2.06354e-06 -1.1508e-05)
(0.00388219 2.70397e-06 -1.29378e-05)
(0.00390048 3.34936e-06 -1.43625e-05)
(0.00392069 3.97794e-06 -1.58062e-05)
(0.00394293 4.57442e-06 -1.72978e-05)
(0.00396728 5.12912e-06 -1.88432e-05)
(0.00399385 5.63832e-06 -2.04158e-05)
(0.00402273 6.11129e-06 -2.19958e-05)
(0.00405401 6.57261e-06 -2.36288e-05)
(0.00408787 7.05276e-06 -2.54143e-05)
(0.00412452 7.57756e-06 -2.74324e-05)
(0.00416423 8.16049e-06 -2.97111e-05)
(0.00420729 8.79979e-06 -3.22422e-05)
(0.00425398 9.48155e-06 -3.49975e-05)
(0.00430456 1.01844e-05 -3.79352e-05)
(0.00435929 1.08843e-05 -4.10175e-05)
(0.0044184 1.15623e-05 -4.42333e-05)
(0.00448213 1.22177e-05 -4.75983e-05)
(0.00455076 1.28741e-05 -5.11408e-05)
(0.00462456 1.35721e-05 -5.48809e-05)
(0.00470387 1.43677e-05 -5.8821e-05)
(0.00478905 1.53257e-05 -6.29749e-05)
(0.00488047 1.65173e-05 -6.73837e-05)
(0.00497858 1.80274e-05 -7.21045e-05)
(0.00508384 1.99666e-05 -7.71904e-05)
(0.00519676 2.24696e-05 -8.26718e-05)
(0.00377878 -3.9208e-07 -8.50434e-07)
(0.00378041 -2.86829e-07 -1.7576e-06)
(0.00378316 -1.94759e-07 -2.58156e-06)
(0.00378704 -8.77139e-08 -3.35973e-06)
(0.00379205 6.20836e-08 -4.13791e-06)
(0.0037982 2.74271e-07 -4.93544e-06)
(0.00380553 5.6439e-07 -5.7562e-06)