/*--------------------------------*- C++ -*----------------------------------*\
| =========                 |                                                 |
| \\      /  F ield         | OpenFOAM: The Open Source CFD Toolbox           |
|  \\    /   O peration     | Version:  2.3.1                                 |
|   \\  /    A nd           | Web:      www.OpenFOAM.org                      |
|    \\/     M anipulation  |                                                 |
\*---------------------------------------------------------------------------*/
FoamFile
{
    version     2.0;
    format      ascii;
    class       volScalarField;
    location    "20";
    object      epsilon;
}
// * * * * * * * * * * * * * * * * * * * * * * * * * * * * * * * * * * * * * //

dimensions      [0 2 -3 0 0 0 0];

internalField   nonuniform List<scalar> 
37692
(
3.56109e-07
3.5605e-07
3.56043e-07
3.5609e-07
3.56193e-07
3.5635e-07
3.56566e-07
3.56852e-07
3.57221e-07
3.57684e-07
3.58243e-07
3.58899e-07
3.59654e-07
3.6051e-07
3.61468e-07
3.62529e-07
3.63696e-07
3.64978e-07
3.66384e-07
3.67925e-07
3.69608e-07
3.71436e-07
3.73414e-07
3.75557e-07
3.77882e-07
3.80407e-07
3.83148e-07
3.86118e-07
3.89328e-07
3.92785e-07
3.96489e-07
4.00436e-07
4.04621e-07
4.09037e-07
4.13675e-07
4.18509e-07
4.23485e-07
4.28527e-07
6.44466e-07
6.44467e-07
6.44524e-07
6.44653e-07
6.4486e-07
6.45153e-07
6.45541e-07
6.46051e-07
6.46702e-07
6.47503e-07
6.48453e-07
6.49543e-07
6.50776e-07
6.52157e-07
6.53685e-07
6.55358e-07
6.57183e-07
6.59177e-07
6.61359e-07
6.63744e-07
6.66331e-07
6.6912e-07
6.72124e-07
6.75374e-07
6.78901e-07
6.82732e-07
6.86883e-07
6.91371e-07
6.96206e-07
7.01393e-07
7.06924e-07
7.12785e-07
7.18967e-07
7.25468e-07
7.32271e-07
7.3933e-07
7.46543e-07
7.53718e-07
8.12862e-07
8.12906e-07
8.13026e-07
8.13228e-07
8.1352e-07
8.13907e-07
8.14405e-07
8.15037e-07
8.15821e-07
8.16765e-07
8.17866e-07
8.1912e-07
8.20532e-07
8.22109e-07
8.23846e-07
8.25738e-07
8.27793e-07
8.30029e-07
8.32466e-07
8.35114e-07
8.37965e-07
8.4102e-07
8.44306e-07
8.47867e-07
8.51741e-07
8.55954e-07
8.60521e-07
8.65454e-07
8.70762e-07
8.76445e-07
8.82489e-07
8.88884e-07
8.95632e-07
9.02743e-07
9.10213e-07
9.18002e-07
9.26018e-07
9.34106e-07
9.0841e-07
9.08512e-07
9.08687e-07
9.08947e-07
9.09303e-07
9.09763e-07
9.10341e-07
9.11048e-07
9.11903e-07
9.12914e-07
9.14086e-07
9.15423e-07
9.16935e-07
9.18627e-07
9.20489e-07
9.22515e-07
9.24709e-07
9.27087e-07
9.29664e-07
9.3244e-07
9.35407e-07
9.38575e-07
9.41989e-07
9.45704e-07
9.49763e-07
9.54188e-07
9.58992e-07
9.64182e-07
9.69764e-07
9.75731e-07
9.8207e-07
9.88779e-07
9.95878e-07
1.00339e-06
1.01133e-06
1.01967e-06
1.02837e-06
1.03731e-06
9.57193e-07
9.57344e-07
9.57562e-07
9.57865e-07
9.5827e-07
9.58785e-07
9.59416e-07
9.60165e-07
9.61048e-07
9.62081e-07
9.63277e-07
9.6465e-07
9.66214e-07
9.67967e-07
9.699e-07
9.72002e-07
9.74275e-07
9.76728e-07
9.79369e-07
9.82192e-07
9.85194e-07
9.88399e-07
9.91865e-07
9.95654e-07
9.99807e-07
1.00435e-06
1.00928e-06
1.01462e-06
1.02036e-06
1.02648e-06
1.033e-06
1.03991e-06
1.04725e-06
1.05505e-06
1.06334e-06
1.07212e-06
1.08136e-06
1.09104e-06
9.77084e-07
9.77276e-07
9.77531e-07
9.7787e-07
9.78312e-07
9.78867e-07
9.79527e-07
9.80294e-07
9.81181e-07
9.82209e-07
9.83403e-07
9.84788e-07
9.86374e-07
9.88154e-07
9.90114e-07
9.92244e-07
9.94545e-07
9.97021e-07
9.99677e-07
1.0025e-06
1.00551e-06
1.00872e-06
1.0122e-06
1.01602e-06
1.02022e-06
1.02481e-06
1.0298e-06
1.0352e-06
1.04101e-06
1.04721e-06
1.05382e-06
1.06086e-06
1.06837e-06
1.07638e-06
1.08492e-06
1.09402e-06
1.10371e-06
1.11399e-06
9.77018e-07
9.77248e-07
9.77539e-07
9.77912e-07
9.78383e-07
9.78959e-07
9.79631e-07
9.804e-07
9.81279e-07
9.82293e-07
9.83479e-07
9.84864e-07
9.8645e-07
9.88225e-07
9.90172e-07
9.92283e-07
9.94562e-07
9.97017e-07
9.99651e-07
1.00246e-06
1.00545e-06
1.00866e-06
1.01214e-06
1.01596e-06
1.02015e-06
1.02474e-06
1.02973e-06
1.03512e-06
1.04093e-06
1.04715e-06
1.0538e-06
1.06091e-06
1.06852e-06
1.07665e-06
1.08536e-06
1.09469e-06
1.10468e-06
1.11541e-06
9.57254e-07
9.57571e-07
9.57965e-07
9.58446e-07
9.59021e-07
9.59685e-07
9.60445e-07
9.6131e-07
9.62309e-07
9.63483e-07
9.64857e-07
9.66426e-07
9.68168e-07
9.70068e-07
9.72121e-07
9.74341e-07
9.76742e-07
9.79332e-07
9.82107e-07
9.85073e-07
9.88263e-07
9.91729e-07
9.95519e-07
9.99672e-07
1.00421e-06
1.00915e-06
1.0145e-06
1.02025e-06
1.02644e-06
1.03308e-06
1.0402e-06
1.04785e-06
1.05605e-06
1.06487e-06
1.07435e-06
1.08457e-06
1.09564e-06
9.08357e-07
9.08674e-07
9.09061e-07
9.09523e-07
9.10068e-07
9.10702e-07
9.11435e-07
9.12276e-07
9.13254e-07
9.14403e-07
9.15742e-07
9.17261e-07
9.18936e-07
9.20753e-07
9.22714e-07
9.24839e-07
9.27148e-07
9.29655e-07
9.32359e-07
9.35266e-07
9.38404e-07
9.41811e-07
9.45527e-07
9.49587e-07
9.54018e-07
9.58838e-07
9.64059e-07
9.69693e-07
9.7576e-07
9.82289e-07
9.89318e-07
9.96882e-07
1.00502e-06
1.01379e-06
1.02326e-06
1.03353e-06
1.04469e-06
8.1267e-07
8.12951e-07
8.13294e-07
8.13701e-07
8.14185e-07
8.14758e-07
8.15433e-07
8.16223e-07
8.17147e-07
8.18233e-07
8.19491e-07
8.20912e-07
8.22478e-07
8.24176e-07
8.26012e-07
8.28002e-07
8.30171e-07
8.32538e-07
8.35108e-07
8.3789e-07
8.40906e-07
8.44184e-07
8.4775e-07
8.51633e-07
8.55861e-07
8.60458e-07
8.65444e-07
8.70834e-07
8.76651e-07
8.82924e-07
8.89691e-07
8.96993e-07
9.04876e-07
9.13391e-07
9.22608e-07
9.32626e-07
9.43553e-07
6.44134e-07
6.44345e-07
6.44603e-07
6.44916e-07
6.45298e-07
6.45767e-07
6.46336e-07
6.47016e-07
6.47822e-07
6.48771e-07
6.49873e-07
6.51123e-07
6.52511e-07
6.54029e-07
6.55678e-07
6.5747e-07
6.59423e-07
6.61557e-07
6.63884e-07
6.66419e-07
6.69178e-07
6.72181e-07
6.75445e-07
6.78991e-07
6.82846e-07
6.87035e-07
6.91584e-07
6.96511e-07
7.01839e-07
7.07595e-07
7.13816e-07
7.20544e-07
7.27823e-07
7.35705e-07
7.44253e-07
7.53557e-07
7.63722e-07
3.55786e-07
3.55831e-07
3.55952e-07
3.56118e-07
3.56331e-07
3.56601e-07
3.56934e-07
3.57338e-07
3.57822e-07
3.58396e-07
3.59067e-07
3.59842e-07
3.60718e-07
3.61692e-07
3.62765e-07
3.63938e-07
3.65218e-07
3.66616e-07
3.68142e-07
3.69807e-07
3.71621e-07
3.73598e-07
3.75747e-07
3.78083e-07
3.8062e-07
3.83379e-07
3.86377e-07
3.89633e-07
3.93162e-07
3.96982e-07
4.01117e-07
4.05592e-07
4.10439e-07
4.15691e-07
4.21388e-07
4.27584e-07
4.34344e-07
3.46914e-07
3.46944e-07
3.46999e-07
3.4708e-07
3.47187e-07
3.47322e-07
3.47487e-07
3.4769e-07
3.47941e-07
3.48243e-07
3.48595e-07
3.48995e-07
3.49443e-07
3.49939e-07
3.50485e-07
3.51079e-07
3.51725e-07
3.52429e-07
3.53199e-07
3.54041e-07
3.54956e-07
3.55943e-07
3.57005e-07
3.58153e-07
3.59397e-07
3.60748e-07
3.62213e-07
3.63798e-07
3.65507e-07
3.67343e-07
3.69303e-07
3.71384e-07
3.73587e-07
3.75911e-07
3.78357e-07
3.80919e-07
3.83592e-07
3.86341e-07
3.84475e-07
3.84509e-07
3.84553e-07
3.84611e-07
3.84687e-07
3.84782e-07
3.84899e-07
3.85047e-07
3.85228e-07
3.85444e-07
3.85692e-07
3.8597e-07
3.86276e-07
3.86611e-07
3.86975e-07
3.87368e-07
3.8779e-07
3.88247e-07
3.88744e-07
3.89285e-07
3.89868e-07
3.90494e-07
3.91166e-07
3.9189e-07
3.92677e-07
3.93531e-07
3.94457e-07
3.95459e-07
3.9654e-07
3.97701e-07
3.98942e-07
4.00263e-07
4.01668e-07
4.03165e-07
4.04762e-07
4.06467e-07
4.08284e-07
4.10215e-07
4.4362e-07
4.43644e-07
4.43682e-07
4.43739e-07
4.43818e-07
4.43922e-07
4.44052e-07
4.44212e-07
4.44404e-07
4.44629e-07
4.44888e-07
4.45178e-07
4.45499e-07
4.45853e-07
4.46239e-07
4.46656e-07
4.47105e-07
4.47589e-07
4.48115e-07
4.48685e-07
4.49297e-07
4.49952e-07
4.50655e-07
4.51416e-07
4.52245e-07
4.53148e-07
4.54127e-07
4.55186e-07
4.56328e-07
4.57555e-07
4.58867e-07
4.60264e-07
4.61752e-07
4.6334e-07
4.65039e-07
4.66855e-07
4.68789e-07
4.70844e-07
4.769e-07
4.7692e-07
4.76957e-07
4.77016e-07
4.77102e-07
4.77217e-07
4.77361e-07
4.77532e-07
4.77734e-07
4.77968e-07
4.78235e-07
4.78535e-07
4.7887e-07
4.79241e-07
4.79647e-07
4.80087e-07
4.80561e-07
4.81073e-07
4.81626e-07
4.82222e-07
4.82859e-07
4.8354e-07
4.84272e-07
4.85068e-07
4.85938e-07
4.86888e-07
4.87919e-07
4.89036e-07
4.9024e-07
4.91534e-07
4.92916e-07
4.9439e-07
4.95964e-07
4.97649e-07
4.99458e-07
5.01399e-07
5.0348e-07
5.05706e-07
4.92997e-07
4.93019e-07
4.93059e-07
4.93122e-07
4.93215e-07
4.9334e-07
4.93494e-07
4.93673e-07
4.93879e-07
4.94115e-07
4.94384e-07
4.94689e-07
4.95031e-07
4.95413e-07
4.95831e-07
4.96285e-07
4.96774e-07
4.97301e-07
4.97869e-07
4.98477e-07
4.99125e-07
4.99817e-07
5.00563e-07
5.01378e-07
5.02271e-07
5.03247e-07
5.0431e-07
5.05461e-07
5.06702e-07
5.08034e-07
5.09459e-07
5.1098e-07
5.12609e-07
5.14357e-07
5.16238e-07
5.18263e-07
5.20442e-07
5.22786e-07
4.99266e-07
4.99291e-07
4.99335e-07
4.99404e-07
4.99505e-07
4.99638e-07
4.99798e-07
4.9998e-07
5.00187e-07
5.00422e-07
5.0069e-07
5.00995e-07
5.01341e-07
5.01727e-07
5.0215e-07
5.0261e-07
5.03105e-07
5.03637e-07
5.04209e-07
5.0482e-07
5.0547e-07
5.06165e-07
5.06918e-07
5.0774e-07
5.08643e-07
5.09631e-07
5.10708e-07
5.11873e-07
5.1313e-07
5.1448e-07
5.15924e-07
5.17471e-07
5.1913e-07
5.20914e-07
5.22837e-07
5.24909e-07
5.27146e-07
5.29563e-07
4.99253e-07
4.99281e-07
4.99331e-07
4.99407e-07
4.99516e-07
4.99656e-07
4.99818e-07
5.00001e-07
5.00206e-07
5.00438e-07
5.00704e-07
5.01009e-07
5.01354e-07
5.0174e-07
5.02161e-07
5.02616e-07
5.03107e-07
5.03635e-07
5.04203e-07
5.04811e-07
5.05458e-07
5.06151e-07
5.06903e-07
5.07725e-07
5.08627e-07
5.09614e-07
5.10689e-07
5.11854e-07
5.13109e-07
5.14457e-07
5.15904e-07
5.17457e-07
5.19127e-07
5.20924e-07
5.2286e-07
5.24949e-07
5.27208e-07
5.29654e-07
4.9299e-07
4.93045e-07
4.93129e-07
4.93243e-07
4.93384e-07
4.93545e-07
4.93726e-07
4.93929e-07
4.94158e-07
4.94421e-07
4.94724e-07
4.95068e-07
4.95448e-07
4.95861e-07
4.96306e-07
4.96784e-07
4.97302e-07
4.9786e-07
4.98458e-07
4.99099e-07
4.99787e-07
5.00533e-07
5.01349e-07
5.02241e-07
5.03217e-07
5.04279e-07
5.05429e-07
5.06669e-07
5.08004e-07
5.09439e-07
5.10984e-07
5.12648e-07
5.14441e-07
5.16375e-07
5.18465e-07
5.20729e-07
5.2319e-07
4.76873e-07
4.76934e-07
4.77023e-07
4.77139e-07
4.77275e-07
4.77431e-07
4.77607e-07
4.77806e-07
4.78032e-07
4.78292e-07
4.78591e-07
4.78928e-07
4.79297e-07
4.79695e-07
4.80122e-07
4.80582e-07
4.81079e-07
4.81618e-07
4.822e-07
4.82826e-07
4.835e-07
4.84231e-07
4.85028e-07
4.85899e-07
4.86848e-07
4.8788e-07
4.88999e-07
4.90206e-07
4.91507e-07
4.92907e-07
4.94417e-07
4.96045e-07
4.97801e-07
4.99697e-07
5.01748e-07
5.03974e-07
5.06397e-07
4.43583e-07
4.43652e-07
4.43743e-07
4.43853e-07
4.43982e-07
4.44128e-07
4.44296e-07
4.44487e-07
4.44707e-07
4.4496e-07
4.45249e-07
4.45572e-07
4.45924e-07
4.46301e-07
4.46704e-07
4.47137e-07
4.47606e-07
4.48116e-07
4.48668e-07
4.49266e-07
4.49912e-07
4.50614e-07
4.51377e-07
4.52208e-07
4.53112e-07
4.54094e-07
4.55158e-07
4.56307e-07
4.57546e-07
4.58881e-07
4.6032e-07
4.61873e-07
4.6355e-07
4.65361e-07
4.67322e-07
4.6945e-07
4.71768e-07
3.84441e-07
3.84523e-07
3.84616e-07
3.8472e-07
3.84838e-07
3.84975e-07
3.85133e-07
3.85317e-07
3.85528e-07
3.85771e-07
3.86047e-07
3.86354e-07
3.86688e-07
3.87045e-07
3.87425e-07
3.87833e-07
3.88274e-07
3.88754e-07
3.89276e-07
3.89843e-07
3.90459e-07
3.91129e-07
3.91856e-07
3.92645e-07
3.935e-07
3.94427e-07
3.95432e-07
3.96518e-07
3.97688e-07
3.98948e-07
4.00306e-07
4.0177e-07
4.03349e-07
4.05053e-07
4.06892e-07
4.08883e-07
4.11045e-07
3.46864e-07
3.4697e-07
3.47093e-07
3.47229e-07
3.47386e-07
3.4757e-07
3.47789e-07
3.48047e-07
3.48348e-07
3.48699e-07
3.49102e-07
3.49556e-07
3.50058e-07
3.50603e-07
3.51193e-07
3.51831e-07
3.52523e-07
3.53277e-07
3.54099e-07
3.54996e-07
3.55974e-07
3.57037e-07
3.5819e-07
3.59439e-07
3.60794e-07
3.62264e-07
3.63859e-07
3.65586e-07
3.67453e-07
3.69468e-07
3.71642e-07
3.73991e-07
3.76528e-07
3.79269e-07
3.82234e-07
3.85449e-07
3.88946e-07
4.49147e-07
4.49182e-07
4.4924e-07
4.49326e-07
4.4944e-07
4.49585e-07
4.49766e-07
4.49993e-07
4.50276e-07
4.5062e-07
4.51022e-07
4.51478e-07
4.51985e-07
4.52544e-07
4.53154e-07
4.53815e-07
4.54531e-07
4.55309e-07
4.5616e-07
4.57088e-07
4.58094e-07
4.59176e-07
4.60338e-07
4.61593e-07
4.62953e-07
4.6443e-07
4.66031e-07
4.67762e-07
4.69628e-07
4.7163e-07
4.73763e-07
4.76023e-07
4.78408e-07
4.80922e-07
4.83579e-07
4.86377e-07
4.89295e-07
4.92296e-07
3.73898e-07
3.73927e-07
3.73961e-07
3.74002e-07
3.74053e-07
3.74112e-07
3.74182e-07
3.74266e-07
3.74366e-07
3.74484e-07
3.74618e-07
3.74768e-07
3.7493e-07
3.75107e-07
3.75296e-07
3.75499e-07
3.75716e-07
3.7595e-07
3.76205e-07
3.76481e-07
3.76779e-07
3.77099e-07
3.7744e-07
3.77809e-07
3.7821e-07
3.78646e-07
3.79119e-07
3.79632e-07
3.80186e-07
3.80781e-07
3.81419e-07
3.82099e-07
3.82825e-07
3.83602e-07
3.84444e-07
3.85358e-07
3.86356e-07
3.87451e-07
3.93947e-07
3.93963e-07
3.93985e-07
3.94014e-07
3.94051e-07
3.94097e-07
3.94151e-07
3.94215e-07
3.94291e-07
3.94379e-07
3.94481e-07
3.94594e-07
3.94719e-07
3.94856e-07
3.95004e-07
3.95164e-07
3.95336e-07
3.95521e-07
3.95722e-07
3.95939e-07
3.96174e-07
3.96425e-07
3.96695e-07
3.96988e-07
3.97307e-07
3.97655e-07
3.98034e-07
3.98445e-07
3.98891e-07
3.99371e-07
3.99888e-07
4.00441e-07
4.01034e-07
4.01671e-07
4.02357e-07
4.03097e-07
4.03896e-07
4.04761e-07
4.07722e-07
4.0773e-07
4.07744e-07
4.07768e-07
4.07801e-07
4.07843e-07
4.07894e-07
4.07953e-07
4.08023e-07
4.08104e-07
4.08196e-07
4.08299e-07
4.08415e-07
4.08544e-07
4.08685e-07
4.08838e-07
4.09003e-07
4.09182e-07
4.09376e-07
4.09586e-07
4.09812e-07
4.10054e-07
4.10315e-07
4.10599e-07
4.1091e-07
4.11251e-07
4.11622e-07
4.12027e-07
4.12466e-07
4.1294e-07
4.13452e-07
4.14001e-07
4.14593e-07
4.15233e-07
4.15925e-07
4.16676e-07
4.17494e-07
4.18385e-07
4.14274e-07
4.14278e-07
4.1429e-07
4.14311e-07
4.14344e-07
4.14385e-07
4.14435e-07
4.14494e-07
4.14561e-07
4.14639e-07
4.14727e-07
4.14827e-07
4.14939e-07
4.15065e-07
4.15204e-07
4.15357e-07
4.15521e-07
4.157e-07
4.15894e-07
4.16103e-07
4.16327e-07
4.16568e-07
4.16828e-07
4.17112e-07
4.17424e-07
4.17767e-07
4.18141e-07
4.18549e-07
4.18993e-07
4.19473e-07
4.19991e-07
4.20549e-07
4.21153e-07
4.21806e-07
4.22517e-07
4.2329e-07
4.24135e-07
4.2506e-07
4.16711e-07
4.16714e-07
4.16726e-07
4.16748e-07
4.16781e-07
4.16823e-07
4.16874e-07
4.16932e-07
4.16999e-07
4.17075e-07
4.17161e-07
4.17259e-07
4.1737e-07
4.17496e-07
4.17635e-07
4.17787e-07
4.17952e-07
4.1813e-07
4.18324e-07
4.18533e-07
4.18757e-07
4.18998e-07
4.19258e-07
4.19543e-07
4.19856e-07
4.202e-07
4.20577e-07
4.20988e-07
4.21434e-07
4.21917e-07
4.2244e-07
4.23004e-07
4.23616e-07
4.24279e-07
4.25001e-07
4.25789e-07
4.26651e-07
4.27596e-07
4.16707e-07
4.16711e-07
4.16724e-07
4.16749e-07
4.16784e-07
4.16827e-07
4.16878e-07
4.16937e-07
4.17004e-07
4.17079e-07
4.17164e-07
4.17262e-07
4.17374e-07
4.17499e-07
4.17638e-07
4.17789e-07
4.17953e-07
4.18131e-07
4.18323e-07
4.18531e-07
4.18755e-07
4.18995e-07
4.19255e-07
4.1954e-07
4.19853e-07
4.20197e-07
4.20573e-07
4.20984e-07
4.21429e-07
4.21912e-07
4.22435e-07
4.23001e-07
4.23614e-07
4.24281e-07
4.25007e-07
4.25799e-07
4.26665e-07
4.27616e-07
4.14268e-07
4.14285e-07
4.14313e-07
4.14351e-07
4.14396e-07
4.14448e-07
4.14507e-07
4.14575e-07
4.1465e-07
4.14736e-07
4.14836e-07
4.14949e-07
4.15075e-07
4.15214e-07
4.15364e-07
4.15526e-07
4.15702e-07
4.15893e-07
4.161e-07
4.16322e-07
4.16562e-07
4.16822e-07
4.17107e-07
4.17419e-07
4.17762e-07
4.18136e-07
4.18545e-07
4.18988e-07
4.19468e-07
4.19988e-07
4.20552e-07
4.21165e-07
4.21831e-07
4.22557e-07
4.23348e-07
4.24215e-07
4.25167e-07
4.07714e-07
4.07738e-07
4.07772e-07
4.07813e-07
4.0786e-07
4.07914e-07
4.07975e-07
4.08044e-07
4.08123e-07
4.08213e-07
4.08316e-07
4.08432e-07
4.08561e-07
4.087e-07
4.0885e-07
4.09011e-07
4.09185e-07
4.09375e-07
4.09581e-07
4.09803e-07
4.10043e-07
4.10304e-07
4.10588e-07
4.109e-07
4.11241e-07
4.11614e-07
4.12019e-07
4.12459e-07
4.12936e-07
4.13452e-07
4.14011e-07
4.14619e-07
4.15279e-07
4.15998e-07
4.16782e-07
4.1764e-07
4.18582e-07
3.93943e-07
3.9398e-07
3.94023e-07
3.9407e-07
3.94123e-07
3.94181e-07
3.94248e-07
3.94323e-07
3.94409e-07
3.94508e-07
3.9462e-07
3.94745e-07
3.94881e-07
3.95027e-07
3.95181e-07
3.95346e-07
3.95525e-07
3.95719e-07
3.95929e-07
3.96157e-07
3.96405e-07
3.96674e-07
3.96968e-07
3.97288e-07
3.97636e-07
3.98016e-07
3.98429e-07
3.98876e-07
3.9936e-07
3.99883e-07
4.00449e-07
4.01062e-07
4.01727e-07
4.0245e-07
4.03236e-07
4.04094e-07
4.05034e-07
3.73906e-07
3.73964e-07
3.74025e-07
3.74089e-07
3.74157e-07
3.74234e-07
3.74321e-07
3.7442e-07
3.74534e-07
3.74664e-07
3.74811e-07
3.74973e-07
3.75147e-07
3.75331e-07
3.75526e-07
3.75733e-07
3.75956e-07
3.76198e-07
3.76462e-07
3.76749e-07
3.77062e-07
3.77402e-07
3.77772e-07
3.78172e-07
3.78607e-07
3.79079e-07
3.79591e-07
3.80145e-07
3.80742e-07
3.81386e-07
3.8208e-07
3.8283e-07
3.83639e-07
3.84513e-07
3.85458e-07
3.86482e-07
3.87596e-07
4.49087e-07
4.49207e-07
4.49343e-07
4.49495e-07
4.49669e-07
4.49875e-07
4.5012e-07
4.50411e-07
4.50753e-07
4.51152e-07
4.51608e-07
4.5212e-07
4.5268e-07
4.53286e-07
4.53936e-07
4.54637e-07
4.55396e-07
4.56221e-07
4.57122e-07
4.58106e-07
4.59179e-07
4.60346e-07
4.61612e-07
4.62983e-07
4.64468e-07
4.6608e-07
4.67829e-07
4.69722e-07
4.71766e-07
4.73971e-07
4.76352e-07
4.78923e-07
4.81701e-07
4.84704e-07
4.87956e-07
4.91489e-07
4.95341e-07
5.20843e-07
5.20875e-07
5.20929e-07
5.21009e-07
5.21121e-07
5.21267e-07
5.21454e-07
5.21689e-07
5.21984e-07
5.22348e-07
5.22776e-07
5.23262e-07
5.23802e-07
5.24394e-07
5.25037e-07
5.25732e-07
5.26483e-07
5.273e-07
5.28192e-07
5.29166e-07
5.30219e-07
5.31351e-07
5.32565e-07
5.33875e-07
5.35295e-07
5.36837e-07
5.38511e-07
5.40323e-07
5.42276e-07
5.4437e-07
5.466e-07
5.48971e-07
5.51483e-07
5.5414e-07
5.56946e-07
5.59897e-07
5.62975e-07
5.66142e-07
3.85408e-07
3.85433e-07
3.85463e-07
3.85499e-07
3.85541e-07
3.85589e-07
3.85644e-07
3.85707e-07
3.85782e-07
3.85871e-07
3.85972e-07
3.86086e-07
3.8621e-07
3.86344e-07
3.86489e-07
3.86643e-07
3.86809e-07
3.86988e-07
3.87182e-07
3.87394e-07
3.87623e-07
3.87869e-07
3.88133e-07
3.88418e-07
3.88728e-07
3.89065e-07
3.89432e-07
3.89831e-07
3.90263e-07
3.90728e-07
3.9123e-07
3.91773e-07
3.9236e-07
3.92996e-07
3.93689e-07
3.94449e-07
3.95287e-07
3.96224e-07
3.82273e-07
3.82281e-07
3.82292e-07
3.82306e-07
3.82325e-07
3.82348e-07
3.82374e-07
3.82405e-07
3.82441e-07
3.82484e-07
3.82533e-07
3.82588e-07
3.82649e-07
3.82717e-07
3.82791e-07
3.82871e-07
3.82957e-07
3.8305e-07
3.83152e-07
3.83263e-07
3.83383e-07
3.83513e-07
3.83654e-07
3.83808e-07
3.83975e-07
3.84159e-07
3.84361e-07
3.84581e-07
3.84822e-07
3.85083e-07
3.85368e-07
3.85676e-07
3.86011e-07
3.86376e-07
3.86773e-07
3.87207e-07
3.87684e-07
3.88211e-07
3.84594e-07
3.84591e-07
3.84593e-07
3.84597e-07
3.84607e-07
3.84619e-07
3.84635e-07
3.84655e-07
3.84678e-07
3.84705e-07
3.84738e-07
3.84775e-07
3.84817e-07
3.84864e-07
3.84917e-07
3.84976e-07
3.85041e-07
3.85112e-07
3.85189e-07
3.85275e-07
3.85369e-07
3.85471e-07
3.85581e-07
3.85703e-07
3.85837e-07
3.85984e-07
3.86148e-07
3.86327e-07
3.86525e-07
3.86742e-07
3.8698e-07
3.87241e-07
3.87526e-07
3.87839e-07
3.88183e-07
3.88563e-07
3.88983e-07
3.89453e-07
3.85595e-07
3.85587e-07
3.85583e-07
3.85583e-07
3.85588e-07
3.85596e-07
3.85608e-07
3.85623e-07
3.85641e-07
3.85663e-07
3.85689e-07
3.85719e-07
3.85753e-07
3.85793e-07
3.85839e-07
3.85891e-07
3.85948e-07
3.86012e-07
3.86082e-07
3.8616e-07
3.86246e-07
3.86339e-07
3.86441e-07
3.86553e-07
3.86677e-07
3.86814e-07
3.86966e-07
3.87134e-07
3.87321e-07
3.87526e-07
3.87753e-07
3.88002e-07
3.88277e-07
3.8858e-07
3.88915e-07
3.89287e-07
3.89701e-07
3.90166e-07
3.858e-07
3.85789e-07
3.85783e-07
3.85782e-07
3.85785e-07
3.85792e-07
3.85802e-07
3.85815e-07
3.85832e-07
3.85852e-07
3.85875e-07
3.85902e-07
3.85934e-07
3.85972e-07
3.86016e-07
3.86065e-07
3.8612e-07
3.86181e-07
3.8625e-07
3.86325e-07
3.86409e-07
3.86499e-07
3.86598e-07
3.86707e-07
3.86828e-07
3.86962e-07
3.87111e-07
3.87277e-07
3.8746e-07
3.87662e-07
3.87886e-07
3.88133e-07
3.88406e-07
3.88709e-07
3.89044e-07
3.89417e-07
3.89833e-07
3.90302e-07
3.85799e-07
3.85788e-07
3.85782e-07
3.85781e-07
3.85784e-07
3.85791e-07
3.85802e-07
3.85816e-07
3.85832e-07
3.85852e-07
3.85875e-07
3.85902e-07
3.85935e-07
3.85973e-07
3.86016e-07
3.86066e-07
3.86121e-07
3.86182e-07
3.86251e-07
3.86326e-07
3.86409e-07
3.865e-07
3.86599e-07
3.86708e-07
3.86829e-07
3.86963e-07
3.87112e-07
3.87278e-07
3.87461e-07
3.87664e-07
3.87888e-07
3.88135e-07
3.88409e-07
3.88712e-07
3.89049e-07
3.89423e-07
3.89842e-07
3.90313e-07
3.85582e-07
3.85579e-07
3.85581e-07
3.85586e-07
3.85596e-07
3.85608e-07
3.85624e-07
3.85642e-07
3.85664e-07
3.85689e-07
3.85719e-07
3.85755e-07
3.85796e-07
3.85842e-07
3.85894e-07
3.85951e-07
3.86015e-07
3.86085e-07
3.86163e-07
3.86248e-07
3.86341e-07
3.86443e-07
3.86555e-07
3.86679e-07
3.86817e-07
3.8697e-07
3.87139e-07
3.87325e-07
3.87531e-07
3.87758e-07
3.88008e-07
3.88286e-07
3.88592e-07
3.88933e-07
3.89311e-07
3.89734e-07
3.90207e-07
3.84584e-07
3.84588e-07
3.84596e-07
3.84607e-07
3.84621e-07
3.84638e-07
3.84658e-07
3.84682e-07
3.84709e-07
3.84741e-07
3.84778e-07
3.84821e-07
3.84869e-07
3.84923e-07
3.84981e-07
3.85045e-07
3.85115e-07
3.85192e-07
3.85277e-07
3.85369e-07
3.8547e-07
3.85581e-07
3.85703e-07
3.85837e-07
3.85986e-07
3.8615e-07
3.8633e-07
3.86528e-07
3.86746e-07
3.86985e-07
3.87248e-07
3.87538e-07
3.87858e-07
3.88212e-07
3.88604e-07
3.8904e-07
3.89526e-07
3.82273e-07
3.8229e-07
3.82311e-07
3.82333e-07
3.82358e-07
3.82386e-07
3.82419e-07
3.82455e-07
3.82497e-07
3.82545e-07
3.826e-07
3.82661e-07
3.82729e-07
3.82801e-07
3.82878e-07
3.82962e-07
3.83052e-07
3.8315e-07
3.83258e-07
3.83375e-07
3.83503e-07
3.83643e-07
3.83797e-07
3.83965e-07
3.84149e-07
3.84351e-07
3.84571e-07
3.84812e-07
3.85074e-07
3.8536e-07
3.85672e-07
3.86013e-07
3.86387e-07
3.86796e-07
3.87244e-07
3.87738e-07
3.88284e-07
3.85424e-07
3.85471e-07
3.85519e-07
3.8557e-07
3.85623e-07
3.85681e-07
3.85747e-07
3.85822e-07
3.85908e-07
3.86007e-07
3.86118e-07
3.86241e-07
3.86373e-07
3.86513e-07
3.86662e-07
3.8682e-07
3.8699e-07
3.87175e-07
3.87377e-07
3.87597e-07
3.87838e-07
3.881e-07
3.88385e-07
3.88694e-07
3.8903e-07
3.89394e-07
3.8979e-07
3.90219e-07
3.90683e-07
3.91184e-07
3.91726e-07
3.92312e-07
3.92945e-07
3.93629e-07
3.9437e-07
3.95172e-07
3.96045e-07
5.2077e-07
5.20896e-07
5.21036e-07
5.21191e-07
5.21369e-07
5.2158e-07
5.21835e-07
5.22141e-07
5.22501e-07
5.22923e-07
5.23407e-07
5.23949e-07
5.2454e-07
5.25174e-07
5.25854e-07
5.26584e-07
5.27374e-07
5.28234e-07
5.29175e-07
5.30204e-07
5.31328e-07
5.32552e-07
5.33878e-07
5.35313e-07
5.36869e-07
5.38556e-07
5.40388e-07
5.4237e-07
5.44513e-07
5.46825e-07
5.49323e-07
5.52021e-07
5.54939e-07
5.58096e-07
5.61518e-07
5.65243e-07
5.69315e-07
5.71728e-07
5.71748e-07
5.71791e-07
5.7186e-07
5.71963e-07
5.72103e-07
5.72286e-07
5.72521e-07
5.72817e-07
5.73176e-07
5.73605e-07
5.74098e-07
5.74647e-07
5.75246e-07
5.75894e-07
5.76593e-07
5.77348e-07
5.7817e-07
5.79068e-07
5.80049e-07
5.81111e-07
5.82251e-07
5.83474e-07
5.84791e-07
5.86221e-07
5.87777e-07
5.89469e-07
5.91306e-07
5.93291e-07
5.95424e-07
5.97704e-07
6.00127e-07
6.02692e-07
6.05401e-07
6.08259e-07
6.11263e-07
6.14399e-07
6.17632e-07
3.97289e-07
3.9731e-07
3.97337e-07
3.97368e-07
3.97406e-07
3.97448e-07
3.97497e-07
3.97553e-07
3.97617e-07
3.9769e-07
3.97775e-07
3.97873e-07
3.97982e-07
3.98101e-07
3.98229e-07
3.98366e-07
3.98514e-07
3.98674e-07
3.98849e-07
3.99039e-07
3.99246e-07
3.9947e-07
3.9971e-07
3.99971e-07
4.00255e-07
4.00564e-07
4.00902e-07
4.0127e-07
4.01672e-07
4.0211e-07
4.02587e-07
4.03105e-07
4.03669e-07
4.04284e-07
4.04956e-07
4.05697e-07
4.06519e-07
4.07447e-07
3.78829e-07
3.78832e-07
3.78837e-07
3.78845e-07
3.78855e-07
3.78868e-07
3.78883e-07
3.789e-07
3.78919e-07
3.78942e-07
3.78969e-07
3.79001e-07
3.79036e-07
3.79076e-07
3.7912e-07
3.79169e-07
3.79222e-07
3.7928e-07
3.79344e-07
3.79415e-07
3.79492e-07
3.79577e-07
3.79671e-07
3.79773e-07
3.79885e-07
3.80009e-07
3.80146e-07
3.80297e-07
3.80463e-07
3.80646e-07
3.80849e-07
3.81073e-07
3.8132e-07
3.81592e-07
3.81892e-07
3.82225e-07
3.82595e-07
3.83012e-07
3.73329e-07
3.73321e-07
3.73315e-07
3.73311e-07
3.7331e-07
3.7331e-07
3.73311e-07
3.73314e-07
3.73318e-07
3.73324e-07
3.73331e-07
3.73341e-07
3.73354e-07
3.73369e-07
3.73387e-07
3.73408e-07
3.73433e-07
3.73461e-07
3.73494e-07
3.73531e-07
3.73572e-07
3.7362e-07
3.73672e-07
3.73731e-07
3.73796e-07
3.7387e-07
3.73953e-07
3.74046e-07
3.74151e-07
3.7427e-07
3.74404e-07
3.74556e-07
3.74726e-07
3.74917e-07
3.75132e-07
3.75374e-07
3.75649e-07
3.75963e-07
3.70433e-07
3.70418e-07
3.70406e-07
3.70397e-07
3.70389e-07
3.70383e-07
3.70379e-07
3.70376e-07
3.70374e-07
3.70372e-07
3.70372e-07
3.70374e-07
3.70377e-07
3.70382e-07
3.70391e-07
3.70402e-07
3.70416e-07
3.70434e-07
3.70455e-07
3.7048e-07
3.7051e-07
3.70544e-07
3.70583e-07
3.70626e-07
3.70676e-07
3.70732e-07
3.70797e-07
3.70871e-07
3.70956e-07
3.71054e-07
3.71167e-07
3.71296e-07
3.71443e-07
3.71611e-07
3.71801e-07
3.72019e-07
3.72268e-07
3.72557e-07
3.69033e-07
3.69015e-07
3.69e-07
3.68988e-07
3.68978e-07
3.68969e-07
3.68963e-07
3.68957e-07
3.68953e-07
3.68949e-07
3.68946e-07
3.68945e-07
3.68945e-07
3.68947e-07
3.68951e-07
3.68959e-07
3.6897e-07
3.68984e-07
3.69001e-07
3.69023e-07
3.69049e-07
3.69078e-07
3.69112e-07
3.69151e-07
3.69195e-07
3.69245e-07
3.69304e-07
3.69372e-07
3.69451e-07
3.69542e-07
3.69648e-07
3.69769e-07
3.69909e-07
3.7007e-07
3.70254e-07
3.70464e-07
3.70707e-07
3.7099e-07
3.69033e-07
3.69014e-07
3.68999e-07
3.68986e-07
3.68976e-07
3.68967e-07
3.68961e-07
3.68955e-07
3.68951e-07
3.68948e-07
3.68945e-07
3.68944e-07
3.68944e-07
3.68946e-07
3.68952e-07
3.68959e-07
3.6897e-07
3.68985e-07
3.69003e-07
3.69025e-07
3.69051e-07
3.6908e-07
3.69114e-07
3.69153e-07
3.69197e-07
3.69248e-07
3.69307e-07
3.69375e-07
3.69454e-07
3.69545e-07
3.69651e-07
3.69773e-07
3.69913e-07
3.70073e-07
3.70258e-07
3.7047e-07
3.70714e-07
3.70998e-07
3.70416e-07
3.70402e-07
3.70392e-07
3.70384e-07
3.70378e-07
3.70374e-07
3.70371e-07
3.7037e-07
3.70369e-07
3.70369e-07
3.70371e-07
3.70375e-07
3.70382e-07
3.70391e-07
3.70403e-07
3.70418e-07
3.70436e-07
3.70459e-07
3.70485e-07
3.70515e-07
3.70549e-07
3.70588e-07
3.70632e-07
3.70682e-07
3.70739e-07
3.70804e-07
3.70878e-07
3.70964e-07
3.71062e-07
3.71174e-07
3.71302e-07
3.71449e-07
3.71616e-07
3.71807e-07
3.72026e-07
3.72276e-07
3.72564e-07
3.73317e-07
3.7331e-07
3.73306e-07
3.73304e-07
3.73304e-07
3.73306e-07
3.7331e-07
3.73315e-07
3.73321e-07
3.73329e-07
3.7334e-07
3.73353e-07
3.73369e-07
3.73388e-07
3.73411e-07
3.73436e-07
3.73465e-07
3.73498e-07
3.73535e-07
3.73577e-07
3.73624e-07
3.73677e-07
3.73736e-07
3.73802e-07
3.73876e-07
3.73959e-07
3.74053e-07
3.74158e-07
3.74277e-07
3.7441e-07
3.74561e-07
3.7473e-07
3.74921e-07
3.75137e-07
3.75381e-07
3.75657e-07
3.7597e-07
3.78827e-07
3.78834e-07
3.78844e-07
3.78856e-07
3.78869e-07
3.78885e-07
3.78903e-07
3.78923e-07
3.78947e-07
3.78974e-07
3.79006e-07
3.79042e-07
3.79082e-07
3.79126e-07
3.79173e-07
3.79225e-07
3.79282e-07
3.79345e-07
3.79414e-07
3.7949e-07
3.79574e-07
3.79667e-07
3.79768e-07
3.79881e-07
3.80004e-07
3.80141e-07
3.80291e-07
3.80456e-07
3.80638e-07
3.80839e-07
3.8106e-07
3.81304e-07
3.81574e-07
3.81872e-07
3.82201e-07
3.82566e-07
3.82971e-07
3.97301e-07
3.97338e-07
3.97378e-07
3.97422e-07
3.97469e-07
3.9752e-07
3.97578e-07
3.97641e-07
3.97715e-07
3.97801e-07
3.97898e-07
3.98006e-07
3.98123e-07
3.98248e-07
3.98381e-07
3.98523e-07
3.98677e-07
3.98844e-07
3.99027e-07
3.99227e-07
3.99446e-07
3.99686e-07
3.99946e-07
4.00228e-07
4.00535e-07
4.00868e-07
4.01231e-07
4.01624e-07
4.02051e-07
4.02513e-07
4.03013e-07
4.03555e-07
4.04142e-07
4.04777e-07
4.05465e-07
4.06209e-07
4.07017e-07
5.71637e-07
5.7176e-07
5.71895e-07
5.72045e-07
5.72218e-07
5.72426e-07
5.72678e-07
5.72976e-07
5.73335e-07
5.73759e-07
5.74249e-07
5.74796e-07
5.75391e-07
5.76029e-07
5.7671e-07
5.77441e-07
5.78231e-07
5.79091e-07
5.80036e-07
5.81073e-07
5.82209e-07
5.83444e-07
5.84783e-07
5.86231e-07
5.878e-07
5.89503e-07
5.91352e-07
5.93356e-07
5.95523e-07
5.97865e-07
6.00397e-07
6.03135e-07
6.06097e-07
6.09305e-07
6.12787e-07
6.16583e-07
6.20738e-07
6.08129e-07
6.0813e-07
6.08153e-07
6.08206e-07
6.08294e-07
6.08422e-07
6.08596e-07
6.08824e-07
6.09115e-07
6.09472e-07
6.0989e-07
6.10372e-07
6.10914e-07
6.11504e-07
6.1214e-07
6.12825e-07
6.13565e-07
6.14371e-07
6.15254e-07
6.1622e-07
6.17267e-07
6.18391e-07
6.19597e-07
6.20903e-07
6.22327e-07
6.23879e-07
6.25569e-07
6.27404e-07
6.29386e-07
6.31516e-07
6.3379e-07
6.36204e-07
6.38758e-07
6.41455e-07
6.44299e-07
6.47292e-07
6.50422e-07
6.53662e-07
4.06392e-07
4.06411e-07
4.06435e-07
4.06465e-07
4.06499e-07
4.06539e-07
4.06584e-07
4.06634e-07
4.06691e-07
4.06756e-07
4.0683e-07
4.06916e-07
4.07017e-07
4.07127e-07
4.07246e-07
4.07375e-07
4.07513e-07
4.07664e-07
4.07829e-07
4.08009e-07
4.08206e-07
4.08419e-07
4.0865e-07
4.08903e-07
4.0918e-07
4.09481e-07
4.0981e-07
4.10168e-07
4.1056e-07
4.10988e-07
4.11457e-07
4.1197e-07
4.12532e-07
4.13147e-07
4.13821e-07
4.14567e-07
4.15398e-07
4.16339e-07
3.77463e-07
3.77464e-07
3.77467e-07
3.77472e-07
3.77479e-07
3.77487e-07
3.77497e-07
3.77508e-07
3.7752e-07
3.77534e-07
3.77551e-07
3.77571e-07
3.77595e-07
3.77623e-07
3.77655e-07
3.77691e-07
3.7773e-07
3.77774e-07
3.77823e-07
3.77877e-07
3.77938e-07
3.78005e-07
3.7808e-07
3.78162e-07
3.78254e-07
3.78355e-07
3.78467e-07
3.78591e-07
3.7873e-07
3.78885e-07
3.79058e-07
3.79253e-07
3.7947e-07
3.79712e-07
3.79983e-07
3.80285e-07
3.80624e-07
3.81012e-07
3.66404e-07
3.66394e-07
3.66385e-07
3.66379e-07
3.66373e-07
3.66368e-07
3.66363e-07
3.66359e-07
3.66355e-07
3.66351e-07
3.66348e-07
3.66346e-07
3.66346e-07
3.66348e-07
3.66352e-07
3.66358e-07
3.66367e-07
3.66378e-07
3.66391e-07
3.66408e-07
3.66429e-07
3.66454e-07
3.66483e-07
3.66517e-07
3.66555e-07
3.66599e-07
3.6665e-07
3.6671e-07
3.66778e-07
3.66859e-07
3.66953e-07
3.67063e-07
3.67191e-07
3.67338e-07
3.67506e-07
3.67699e-07
3.67922e-07
3.68183e-07
3.60624e-07
3.60607e-07
3.60592e-07
3.60578e-07
3.60566e-07
3.60554e-07
3.60543e-07
3.60532e-07
3.60521e-07
3.60511e-07
3.605e-07
3.60489e-07
3.6048e-07
3.60471e-07
3.60464e-07
3.60458e-07
3.60455e-07
3.60453e-07
3.60454e-07
3.60457e-07
3.60464e-07
3.60473e-07
3.60486e-07
3.60501e-07
3.60521e-07
3.60544e-07
3.60573e-07
3.60609e-07
3.60654e-07
3.60709e-07
3.60776e-07
3.60857e-07
3.60955e-07
3.6107e-07
3.61205e-07
3.61363e-07
3.6155e-07
3.61773e-07
3.57999e-07
3.57978e-07
3.5796e-07