/*--------------------------------*- C++ -*----------------------------------*\
| =========                 |                                                 |
| \\      /  F ield         | OpenFOAM: The Open Source CFD Toolbox           |
|  \\    /   O peration     | Version:  2.3.1                                 |
|   \\  /    A nd           | Web:      www.OpenFOAM.org                      |
|    \\/     M anipulation  |                                                 |
\*---------------------------------------------------------------------------*/
FoamFile
{
    version     2.0;
    format      ascii;
    class       volScalarField;
    location    "20";
    object      epsilon_0;
}
// * * * * * * * * * * * * * * * * * * * * * * * * * * * * * * * * * * * * * //

dimensions      [0 2 -3 0 0 0 0];

internalField   nonuniform List<scalar> 
37692
(
3.56146e-07
3.56087e-07
3.56081e-07
3.56128e-07
3.56231e-07
3.56388e-07
3.56604e-07
3.5689e-07
3.5726e-07
3.57722e-07
3.58281e-07
3.58938e-07
3.59693e-07
3.60548e-07
3.61506e-07
3.62568e-07
3.63735e-07
3.65017e-07
3.66423e-07
3.67964e-07
3.69647e-07
3.71475e-07
3.73454e-07
3.75597e-07
3.77922e-07
3.80447e-07
3.83188e-07
3.86158e-07
3.89369e-07
3.92826e-07
3.96531e-07
4.00479e-07
4.04664e-07
4.0908e-07
4.13719e-07
4.18554e-07
4.23532e-07
4.28575e-07
6.44524e-07
6.44525e-07
6.44582e-07
6.44711e-07
6.44919e-07
6.45211e-07
6.456e-07
6.4611e-07
6.46761e-07
6.47563e-07
6.48512e-07
6.49602e-07
6.50836e-07
6.52217e-07
6.53745e-07
6.55418e-07
6.57244e-07
6.59237e-07
6.6142e-07
6.63804e-07
6.66392e-07
6.69181e-07
6.72185e-07
6.75435e-07
6.78963e-07
6.82794e-07
6.86946e-07
6.91434e-07
6.9627e-07
7.01457e-07
7.06989e-07
7.1285e-07
7.19034e-07
7.25536e-07
7.3234e-07
7.39401e-07
7.46616e-07
7.53795e-07
8.1293e-07
8.12974e-07
8.13094e-07
8.13296e-07
8.13588e-07
8.13975e-07
8.14473e-07
8.15106e-07
8.15889e-07
8.16834e-07
8.17935e-07
8.19189e-07
8.20602e-07
8.22178e-07
8.23915e-07
8.25808e-07
8.27863e-07
8.30099e-07
8.32537e-07
8.35185e-07
8.38036e-07
8.41091e-07
8.44377e-07
8.47938e-07
8.51813e-07
8.56027e-07
8.60594e-07
8.65527e-07
8.70835e-07
8.76519e-07
8.82564e-07
8.8896e-07
8.95709e-07
9.02821e-07
9.10292e-07
9.18083e-07
9.26102e-07
9.34193e-07
9.0848e-07
9.08582e-07
9.08757e-07
9.09018e-07
9.09374e-07
9.09833e-07
9.10411e-07
9.11119e-07
9.11973e-07
9.12985e-07
9.14157e-07
9.15494e-07
9.17007e-07
9.18698e-07
9.2056e-07
9.22587e-07
9.24781e-07
9.27159e-07
9.29736e-07
9.32513e-07
9.3548e-07
9.38648e-07
9.42062e-07
9.45778e-07
9.49837e-07
9.54263e-07
9.59067e-07
9.64257e-07
9.69839e-07
9.75807e-07
9.82147e-07
9.88857e-07
9.95957e-07
1.00347e-06
1.01141e-06
1.01976e-06
1.02845e-06
1.0374e-06
9.57262e-07
9.57413e-07
9.57631e-07
9.57935e-07
9.58339e-07
9.58855e-07
9.59486e-07
9.60235e-07
9.61119e-07
9.62151e-07
9.63347e-07
9.6472e-07
9.66284e-07
9.68038e-07
9.69971e-07
9.72073e-07
9.74346e-07
9.76799e-07
9.79441e-07
9.82264e-07
9.85266e-07
9.88472e-07
9.91938e-07
9.95727e-07
9.99881e-07
1.00442e-06
1.00936e-06
1.01469e-06
1.02043e-06
1.02656e-06
1.03308e-06
1.03999e-06
1.04733e-06
1.05513e-06
1.06342e-06
1.0722e-06
1.08145e-06
1.09113e-06
9.77152e-07
9.77345e-07
9.77599e-07
9.77939e-07
9.78381e-07
9.78935e-07
9.79596e-07
9.80363e-07
9.8125e-07
9.82278e-07
9.83473e-07
9.84858e-07
9.86444e-07
9.88223e-07
9.90184e-07
9.92315e-07
9.94615e-07
9.97092e-07
9.99747e-07
1.00257e-06
1.00558e-06
1.00879e-06
1.01228e-06
1.01609e-06
1.02029e-06
1.02488e-06
1.02987e-06
1.03527e-06
1.04108e-06
1.04729e-06
1.0539e-06
1.06094e-06
1.06844e-06
1.07645e-06
1.085e-06
1.0941e-06
1.10379e-06
1.11408e-06
9.77086e-07
9.77316e-07
9.77607e-07
9.7798e-07
9.78452e-07
9.79028e-07
9.797e-07
9.80469e-07
9.81348e-07
9.82363e-07
9.83549e-07
9.84933e-07
9.8652e-07
9.88295e-07
9.90242e-07
9.92353e-07
9.94632e-07
9.97088e-07
9.99722e-07
1.00253e-06
1.00552e-06
1.00873e-06
1.01221e-06
1.01603e-06
1.02022e-06
1.02481e-06
1.0298e-06
1.0352e-06
1.041e-06
1.04722e-06
1.05388e-06
1.06099e-06
1.06859e-06
1.07673e-06
1.08544e-06
1.09477e-06
1.10476e-06
1.11549e-06
9.57324e-07
9.57641e-07
9.58034e-07
9.58516e-07
9.5909e-07
9.59755e-07
9.60515e-07
9.6138e-07
9.6238e-07
9.63554e-07
9.64928e-07
9.66497e-07
9.68239e-07
9.70139e-07
9.72192e-07
9.74412e-07
9.76814e-07
9.79404e-07
9.82179e-07
9.85145e-07
9.88335e-07
9.91801e-07
9.95592e-07
9.99745e-07
1.00429e-06
1.00923e-06
1.01457e-06
1.02033e-06
1.02651e-06
1.03315e-06
1.04028e-06
1.04793e-06
1.05613e-06
1.06494e-06
1.07442e-06
1.08465e-06
1.09572e-06
9.08427e-07
9.08744e-07
9.09131e-07
9.09593e-07
9.10139e-07
9.10773e-07
9.11505e-07
9.12347e-07
9.13325e-07
9.14475e-07
9.15814e-07
9.17333e-07
9.19008e-07
9.20825e-07
9.22786e-07
9.24911e-07
9.2722e-07
9.29727e-07
9.32432e-07
9.35339e-07
9.38477e-07
9.41884e-07
9.45601e-07
9.49661e-07
9.54092e-07
9.58912e-07
9.64134e-07
9.69769e-07
9.75836e-07
9.82366e-07
9.89395e-07
9.9696e-07
1.0051e-06
1.01387e-06
1.02334e-06
1.03361e-06
1.04477e-06
8.12738e-07
8.13019e-07
8.13362e-07
8.13769e-07
8.14253e-07
8.14826e-07
8.15502e-07
8.16291e-07
8.17216e-07
8.18302e-07
8.1956e-07
8.20982e-07
8.22547e-07
8.24246e-07
8.26081e-07
8.28072e-07
8.30241e-07
8.32608e-07
8.35178e-07
8.37961e-07
8.40977e-07
8.44255e-07
8.47822e-07
8.51705e-07
8.55933e-07
8.6053e-07
8.65516e-07
8.70908e-07
8.76725e-07
8.82998e-07
8.89765e-07
8.97068e-07
9.04951e-07
9.13466e-07
9.22685e-07
9.32702e-07
9.4363e-07
6.44192e-07
6.44404e-07
6.44662e-07
6.44974e-07
6.45357e-07
6.45826e-07
6.46395e-07
6.47075e-07
6.47881e-07
6.48831e-07
6.49932e-07
6.51183e-07
6.52571e-07
6.54089e-07
6.55738e-07
6.5753e-07
6.59483e-07
6.61618e-07
6.63945e-07
6.6648e-07
6.69239e-07
6.72242e-07
6.75507e-07
6.79053e-07
6.82908e-07
6.87098e-07
6.91646e-07
6.96575e-07
7.01903e-07
7.07659e-07
7.1388e-07
7.20609e-07
7.27888e-07
7.3577e-07
7.44319e-07
7.53623e-07
7.63789e-07
3.55824e-07
3.55868e-07
3.5599e-07
3.56155e-07
3.56369e-07
3.56639e-07
3.56972e-07
3.57376e-07
3.5786e-07
3.58434e-07
3.59106e-07
3.5988e-07
3.60756e-07
3.61731e-07
3.62803e-07
3.63976e-07
3.65257e-07
3.66655e-07
3.68181e-07
3.69846e-07
3.71661e-07
3.73637e-07
3.75787e-07
3.78122e-07
3.8066e-07
3.83419e-07
3.86418e-07
3.89674e-07
3.93202e-07
3.97023e-07
4.01158e-07
4.05634e-07
4.10481e-07
4.15733e-07
4.2143e-07
4.27627e-07
4.34387e-07
3.46956e-07
3.46986e-07
3.47041e-07
3.47123e-07
3.4723e-07
3.47364e-07
3.47529e-07
3.47733e-07
3.47984e-07
3.48285e-07
3.48637e-07
3.49038e-07
3.49486e-07
3.49982e-07
3.50528e-07
3.51122e-07
3.51768e-07
3.52472e-07
3.53243e-07
3.54085e-07
3.54999e-07
3.55986e-07
3.57049e-07
3.58196e-07
3.59441e-07
3.60792e-07
3.62257e-07
3.63842e-07
3.65551e-07
3.67387e-07
3.69347e-07
3.71429e-07
3.73631e-07
3.75956e-07
3.78402e-07
3.80965e-07
3.83638e-07
3.86388e-07
3.8452e-07
3.84555e-07
3.84599e-07
3.84657e-07
3.84732e-07
3.84828e-07
3.84945e-07
3.85093e-07
3.85274e-07
3.8549e-07
3.85738e-07
3.86016e-07
3.86322e-07
3.86657e-07
3.87021e-07
3.87414e-07
3.87836e-07
3.88293e-07
3.8879e-07
3.89331e-07
3.89914e-07
3.9054e-07
3.91212e-07
3.91936e-07
3.92722e-07
3.93577e-07
3.94503e-07
3.95505e-07
3.96586e-07
3.97747e-07
3.98988e-07
4.00309e-07
4.01714e-07
4.03211e-07
4.04808e-07
4.06513e-07
4.0833e-07
4.10261e-07
4.43666e-07
4.43691e-07
4.43728e-07
4.43785e-07
4.43865e-07
4.43968e-07
4.44099e-07
4.44258e-07
4.4445e-07
4.44676e-07
4.44935e-07
4.45224e-07
4.45546e-07
4.459e-07
4.46286e-07
4.46703e-07
4.47151e-07
4.47636e-07
4.48162e-07
4.48731e-07
4.49343e-07
4.49998e-07
4.50702e-07
4.51463e-07
4.52292e-07
4.53194e-07
4.54173e-07
4.55232e-07
4.56375e-07
4.57601e-07
4.58913e-07
4.6031e-07
4.61798e-07
4.63387e-07
4.65086e-07
4.66901e-07
4.68836e-07
4.70891e-07
4.76945e-07
4.76965e-07
4.77002e-07
4.77061e-07
4.77148e-07
4.77262e-07
4.77406e-07
4.77578e-07
4.77779e-07
4.78013e-07
4.7828e-07
4.7858e-07
4.78915e-07
4.79286e-07
4.79693e-07
4.80132e-07
4.80606e-07
4.81118e-07
4.81671e-07
4.82267e-07
4.82904e-07
4.83585e-07
4.84317e-07
4.85114e-07
4.85984e-07
4.86933e-07
4.87965e-07
4.89081e-07
4.90286e-07
4.91579e-07
4.92961e-07
4.94435e-07
4.96009e-07
4.97695e-07
4.99503e-07
5.01444e-07
5.03525e-07
5.05751e-07
4.93041e-07
4.93063e-07
4.93103e-07
4.93166e-07
4.93259e-07
4.93384e-07
4.93538e-07
4.93717e-07
4.93923e-07
4.94159e-07
4.94428e-07
4.94733e-07
4.95075e-07
4.95456e-07
4.95875e-07
4.96329e-07
4.96818e-07
4.97345e-07
4.97913e-07
4.98521e-07
4.99169e-07
4.99861e-07
5.00607e-07
5.01422e-07
5.02314e-07
5.03291e-07
5.04353e-07
5.05504e-07
5.06745e-07
5.08078e-07
5.09502e-07
5.11024e-07
5.12652e-07
5.14401e-07
5.16282e-07
5.18307e-07
5.20486e-07
5.2283e-07
4.99309e-07
4.99334e-07
4.99378e-07
4.99447e-07
4.99548e-07
4.99681e-07
4.99841e-07
5.00023e-07
5.0023e-07
5.00465e-07
5.00733e-07
5.01038e-07
5.01384e-07
5.0177e-07
5.02193e-07
5.02653e-07
5.03148e-07
5.0368e-07
5.04252e-07
5.04863e-07
5.05513e-07
5.06208e-07
5.0696e-07
5.07783e-07
5.08686e-07
5.09674e-07
5.10751e-07
5.11916e-07
5.13173e-07
5.14522e-07
5.15967e-07
5.17513e-07
5.19173e-07
5.20957e-07
5.22879e-07
5.24952e-07
5.27189e-07
5.29605e-07
4.99296e-07
4.99324e-07
4.99374e-07
4.9945e-07
4.99559e-07
4.99699e-07
4.99861e-07
5.00044e-07
5.00249e-07
5.00482e-07
5.00747e-07
5.01052e-07
5.01398e-07
5.01783e-07
5.02204e-07
5.02659e-07
5.0315e-07
5.03678e-07
5.04246e-07
5.04854e-07
5.05501e-07
5.06194e-07
5.06946e-07
5.07768e-07
5.0867e-07
5.09657e-07
5.10732e-07
5.11897e-07
5.13152e-07
5.145e-07
5.15947e-07
5.175e-07
5.1917e-07
5.20967e-07
5.22903e-07
5.24992e-07
5.2725e-07
5.29696e-07
4.93034e-07
4.93089e-07
4.93173e-07
4.93287e-07
4.93428e-07
4.93589e-07
4.9377e-07
4.93973e-07
4.94202e-07
4.94465e-07
4.94768e-07
4.95112e-07
4.95492e-07
4.95905e-07
4.96349e-07
4.96828e-07
4.97345e-07
4.97903e-07
4.98502e-07
4.99143e-07
4.99831e-07
5.00577e-07
5.01392e-07
5.02285e-07
5.0326e-07
5.04322e-07
5.05473e-07
5.06713e-07
5.08048e-07
5.09483e-07
5.11027e-07
5.12691e-07
5.14484e-07
5.16418e-07
5.18508e-07
5.20772e-07
5.23233e-07
4.76918e-07
4.7698e-07
4.77069e-07
4.77184e-07
4.77321e-07
4.77476e-07
4.77653e-07
4.77851e-07
4.78077e-07
4.78338e-07
4.78636e-07
4.78973e-07
4.79342e-07
4.7974e-07
4.80167e-07
4.80627e-07
4.81124e-07
4.81664e-07
4.82245e-07
4.82871e-07
4.83545e-07
4.84276e-07
4.85074e-07
4.85944e-07
4.86893e-07
4.87925e-07
4.89044e-07
4.90251e-07
4.91552e-07
4.92952e-07
4.94462e-07
4.9609e-07
4.97846e-07
4.99742e-07
5.01793e-07
5.04019e-07
5.06441e-07
4.43629e-07
4.43698e-07
4.43789e-07
4.439e-07
4.44028e-07
4.44174e-07
4.44342e-07
4.44534e-07
4.44753e-07
4.45006e-07
4.45295e-07
4.45618e-07
4.4597e-07
4.46347e-07
4.46751e-07
4.47184e-07
4.47653e-07
4.48163e-07
4.48715e-07
4.49312e-07
4.49958e-07
4.5066e-07
4.51424e-07
4.52255e-07
4.53158e-07
4.5414e-07
4.55204e-07
4.56354e-07
4.57592e-07
4.58927e-07
4.60366e-07
4.61919e-07
4.63596e-07
4.65407e-07
4.67368e-07
4.69496e-07
4.71814e-07
3.84487e-07
3.84569e-07
3.84662e-07
3.84766e-07
3.84884e-07
3.8502e-07
3.85179e-07
3.85363e-07
3.85574e-07
3.85817e-07
3.86093e-07
3.864e-07
3.86734e-07
3.87091e-07
3.87471e-07
3.87879e-07
3.8832e-07
3.888e-07
3.89322e-07
3.89889e-07
3.90505e-07
3.91175e-07
3.91902e-07
3.92691e-07
3.93546e-07
3.94473e-07
3.95478e-07
3.96564e-07
3.97734e-07
3.98994e-07
4.00352e-07
4.01816e-07
4.03395e-07
4.05098e-07
4.06938e-07
4.08929e-07
4.11091e-07
3.46907e-07
3.47013e-07
3.47135e-07
3.47272e-07
3.47428e-07
3.47613e-07
3.47832e-07
3.48089e-07
3.48391e-07
3.48742e-07
3.49145e-07
3.49599e-07
3.50101e-07
3.50646e-07
3.51236e-07
3.51874e-07
3.52566e-07
3.5332e-07
3.54142e-07
3.55039e-07
3.56017e-07
3.5708e-07
3.58233e-07
3.59482e-07
3.60837e-07
3.62308e-07
3.63903e-07
3.6563e-07
3.67497e-07
3.69512e-07
3.71687e-07
3.74035e-07
3.76572e-07
3.79314e-07
3.82278e-07
3.85493e-07
3.88991e-07
4.49199e-07
4.49234e-07
4.49292e-07
4.49378e-07
4.49492e-07
4.49637e-07
4.49818e-07
4.50046e-07
4.50329e-07
4.50673e-07
4.51075e-07
4.5153e-07
4.52038e-07
4.52597e-07
4.53207e-07
4.53868e-07
4.54584e-07
4.55362e-07
4.56213e-07
4.57141e-07
4.58147e-07
4.59229e-07
4.60391e-07
4.61646e-07
4.63006e-07
4.64483e-07
4.66084e-07
4.67816e-07
4.69682e-07
4.71684e-07
4.73817e-07
4.76077e-07
4.78462e-07
4.80977e-07
4.83635e-07
4.86433e-07
4.89352e-07
4.92354e-07
3.73942e-07
3.73971e-07
3.74005e-07
3.74047e-07
3.74097e-07
3.74157e-07
3.74227e-07
3.7431e-07
3.7441e-07
3.74528e-07
3.74663e-07
3.74812e-07
3.74975e-07
3.75151e-07
3.75341e-07
3.75544e-07
3.75761e-07
3.75995e-07
3.76249e-07
3.76525e-07
3.76823e-07
3.77143e-07
3.77485e-07
3.77853e-07
3.78254e-07
3.7869e-07
3.79163e-07
3.79676e-07
3.8023e-07
3.80825e-07
3.81463e-07
3.82143e-07
3.82869e-07
3.83646e-07
3.84488e-07
3.85402e-07
3.864e-07
3.87494e-07
3.93988e-07
3.94004e-07
3.94025e-07
3.94054e-07
3.94092e-07
3.94137e-07
3.94192e-07
3.94255e-07
3.94331e-07
3.9442e-07
3.94521e-07
3.94635e-07
3.94759e-07
3.94896e-07
3.95045e-07
3.95205e-07
3.95377e-07
3.95562e-07
3.95762e-07
3.9598e-07
3.96214e-07
3.96466e-07
3.96735e-07
3.97028e-07
3.97347e-07
3.97695e-07
3.98074e-07
3.98486e-07
3.98931e-07
3.99412e-07
3.99928e-07
4.00481e-07
4.01074e-07
4.01711e-07
4.02397e-07
4.03137e-07
4.03936e-07
4.04801e-07
4.0776e-07
4.07768e-07
4.07782e-07
4.07806e-07
4.07839e-07
4.07881e-07
4.07932e-07
4.07991e-07
4.08061e-07
4.08141e-07
4.08234e-07
4.08337e-07
4.08453e-07
4.08582e-07
4.08723e-07
4.08876e-07
4.09041e-07
4.0922e-07
4.09414e-07
4.09623e-07
4.09849e-07
4.10092e-07
4.10353e-07
4.10637e-07
4.10948e-07
4.11288e-07
4.1166e-07
4.12064e-07
4.12503e-07
4.12977e-07
4.13489e-07
4.14039e-07
4.14631e-07
4.1527e-07
4.15962e-07
4.16713e-07
4.17531e-07
4.18422e-07
4.1431e-07
4.14314e-07
4.14326e-07
4.14348e-07
4.1438e-07
4.14421e-07
4.14471e-07
4.1453e-07
4.14597e-07
4.14675e-07
4.14763e-07
4.14863e-07
4.14975e-07
4.15101e-07
4.15241e-07
4.15393e-07
4.15557e-07
4.15736e-07
4.1593e-07
4.16139e-07
4.16363e-07
4.16604e-07
4.16864e-07
4.17148e-07
4.1746e-07
4.17802e-07
4.18177e-07
4.18585e-07
4.19028e-07
4.19508e-07
4.20026e-07
4.20585e-07
4.21188e-07
4.21842e-07
4.22552e-07
4.23326e-07
4.2417e-07
4.25095e-07
4.16746e-07
4.1675e-07
4.16761e-07
4.16783e-07
4.16816e-07
4.16858e-07
4.16909e-07
4.16967e-07
4.17034e-07
4.1711e-07
4.17196e-07
4.17294e-07
4.17406e-07
4.17531e-07
4.1767e-07
4.17822e-07
4.17987e-07
4.18166e-07
4.18359e-07
4.18568e-07
4.18792e-07
4.19033e-07
4.19293e-07
4.19578e-07
4.19891e-07
4.20235e-07
4.20612e-07
4.21022e-07
4.21469e-07
4.21952e-07
4.22474e-07
4.23039e-07
4.2365e-07
4.24314e-07
4.25036e-07
4.25823e-07
4.26685e-07
4.2763e-07
4.16742e-07
4.16746e-07
4.16759e-07
4.16784e-07
4.16819e-07
4.16862e-07
4.16914e-07
4.16972e-07
4.17039e-07
4.17114e-07
4.17199e-07
4.17297e-07
4.17409e-07
4.17534e-07
4.17673e-07
4.17824e-07
4.17988e-07
4.18166e-07
4.18358e-07
4.18566e-07
4.1879e-07
4.1903e-07
4.1929e-07
4.19574e-07
4.19887e-07
4.20231e-07
4.20608e-07
4.21018e-07
4.21464e-07
4.21947e-07
4.2247e-07
4.23035e-07
4.23649e-07
4.24316e-07
4.25042e-07
4.25833e-07
4.26699e-07
4.2765e-07
4.14304e-07
4.14321e-07
4.1435e-07
4.14387e-07
4.14432e-07
4.14484e-07
4.14544e-07
4.14611e-07
4.14686e-07
4.14772e-07
4.14872e-07
4.14985e-07
4.15111e-07
4.1525e-07
4.154e-07
4.15562e-07
4.15738e-07
4.15929e-07
4.16136e-07
4.16358e-07
4.16598e-07
4.16858e-07
4.17142e-07
4.17455e-07
4.17797e-07
4.18172e-07
4.1858e-07
4.19023e-07
4.19504e-07
4.20024e-07
4.20588e-07
4.212e-07
4.21867e-07
4.22592e-07
4.23384e-07
4.2425e-07
4.25202e-07
4.07752e-07
4.07776e-07
4.0781e-07
4.07851e-07
4.07898e-07
4.07952e-07
4.08013e-07
4.08082e-07
4.08161e-07
4.08251e-07
4.08354e-07
4.0847e-07
4.08599e-07
4.08738e-07
4.08887e-07
4.09048e-07
4.09223e-07
4.09413e-07
4.09618e-07
4.0984e-07
4.1008e-07
4.10341e-07
4.10626e-07
4.10938e-07
4.11279e-07
4.11651e-07
4.12057e-07
4.12497e-07
4.12973e-07
4.13489e-07
4.14048e-07
4.14656e-07
4.15316e-07
4.16035e-07
4.16819e-07
4.17677e-07
4.18619e-07
3.93984e-07
3.94021e-07
3.94064e-07
3.94111e-07
3.94163e-07
3.94222e-07
3.94288e-07
3.94364e-07
3.9445e-07
3.94549e-07
3.94661e-07
3.94786e-07
3.94922e-07
3.95067e-07
3.95222e-07
3.95387e-07
3.95565e-07
3.95759e-07
3.9597e-07
3.96198e-07
3.96445e-07
3.96715e-07
3.97008e-07
3.97328e-07
3.97677e-07
3.98056e-07
3.98469e-07
3.98916e-07
3.994e-07
3.99923e-07
4.00489e-07
4.01102e-07
4.01767e-07
4.0249e-07
4.03276e-07
4.04134e-07
4.05074e-07
3.73951e-07
3.74008e-07
3.7407e-07
3.74133e-07
3.74202e-07
3.74278e-07
3.74365e-07
3.74465e-07
3.74579e-07
3.74709e-07
3.74855e-07
3.75017e-07
3.75191e-07
3.75375e-07
3.7557e-07
3.75777e-07
3.76e-07
3.76242e-07
3.76506e-07
3.76793e-07
3.77106e-07
3.77446e-07
3.77816e-07
3.78217e-07
3.78651e-07
3.79123e-07
3.79635e-07
3.80189e-07
3.80786e-07
3.8143e-07
3.82124e-07
3.82874e-07
3.83683e-07
3.84557e-07
3.85502e-07
3.86526e-07
3.8764e-07
4.49139e-07
4.49259e-07
4.49396e-07
4.49548e-07
4.49721e-07
4.49927e-07
4.50173e-07
4.50464e-07
4.50806e-07
4.51204e-07
4.51661e-07
4.52172e-07
4.52733e-07
4.53338e-07
4.53989e-07
4.54689e-07
4.55448e-07
4.56274e-07
4.57175e-07
4.58159e-07
4.59232e-07
4.60399e-07
4.61665e-07
4.63036e-07
4.64522e-07
4.66134e-07
4.67882e-07
4.69775e-07
4.71819e-07
4.74025e-07
4.76406e-07
4.78977e-07
4.81755e-07
4.84759e-07
4.88011e-07
4.91543e-07
4.95396e-07
5.209e-07
5.20932e-07
5.20986e-07
5.21066e-07
5.21178e-07
5.21324e-07
5.21511e-07
5.21746e-07
5.22041e-07
5.22406e-07
5.22834e-07
5.23319e-07
5.23859e-07
5.24451e-07
5.25094e-07
5.25789e-07
5.26541e-07
5.27357e-07
5.2825e-07
5.29223e-07
5.30277e-07
5.31408e-07
5.32623e-07
5.33933e-07
5.35353e-07
5.36896e-07
5.3857e-07
5.40382e-07
5.42335e-07
5.44429e-07
5.46659e-07
5.4903e-07
5.51542e-07
5.54199e-07
5.57006e-07
5.59957e-07
5.63037e-07
5.66204e-07
3.85451e-07
3.85477e-07
3.85507e-07
3.85542e-07
3.85584e-07
3.85632e-07
3.85687e-07
3.85751e-07
3.85826e-07
3.85914e-07
3.86016e-07
3.86129e-07
3.86253e-07
3.86388e-07
3.86532e-07
3.86687e-07
3.86852e-07
3.87031e-07
3.87225e-07
3.87437e-07
3.87666e-07
3.87912e-07
3.88176e-07
3.88461e-07
3.88771e-07
3.89108e-07
3.89475e-07
3.89874e-07
3.90306e-07
3.90772e-07
3.91273e-07
3.91816e-07
3.92403e-07
3.93039e-07
3.93732e-07
3.94491e-07
3.9533e-07
3.96267e-07
3.8231e-07
3.82318e-07
3.82329e-07
3.82344e-07
3.82362e-07
3.82385e-07
3.82411e-07
3.82442e-07
3.82478e-07
3.82521e-07
3.8257e-07
3.82625e-07
3.82687e-07
3.82754e-07
3.82828e-07
3.82908e-07
3.82994e-07
3.83087e-07
3.83189e-07
3.833e-07
3.8342e-07
3.8355e-07
3.83691e-07
3.83845e-07
3.84012e-07
3.84196e-07
3.84398e-07
3.84618e-07
3.84859e-07
3.8512e-07
3.85405e-07
3.85713e-07
3.86048e-07
3.86412e-07
3.86809e-07
3.87244e-07
3.8772e-07
3.88247e-07
3.84628e-07
3.84625e-07
3.84626e-07
3.84631e-07
3.8464e-07
3.84653e-07
3.84669e-07
3.84688e-07
3.84711e-07
3.84739e-07
3.84771e-07
3.84808e-07
3.8485e-07
3.84898e-07
3.84951e-07
3.8501e-07
3.85074e-07
3.85145e-07
3.85223e-07
3.85308e-07
3.85402e-07
3.85504e-07
3.85615e-07
3.85736e-07
3.8587e-07
3.86018e-07
3.86181e-07
3.8636e-07
3.86558e-07
3.86775e-07
3.87013e-07
3.87274e-07
3.87559e-07
3.87872e-07
3.88216e-07
3.88595e-07
3.89016e-07
3.89485e-07
3.85626e-07
3.85618e-07
3.85614e-07
3.85615e-07
3.85619e-07
3.85628e-07
3.8564e-07
3.85654e-07
3.85673e-07
3.85695e-07
3.8572e-07
3.8575e-07
3.85785e-07
3.85825e-07
3.85871e-07
3.85922e-07
3.8598e-07
3.86043e-07
3.86114e-07
3.86192e-07
3.86277e-07
3.86371e-07
3.86472e-07
3.86584e-07
3.86708e-07
3.86845e-07
3.86997e-07
3.87166e-07
3.87352e-07
3.87557e-07
3.87784e-07
3.88033e-07
3.88308e-07
3.88611e-07
3.88946e-07
3.89318e-07
3.89732e-07
3.90197e-07
3.8583e-07
3.8582e-07
3.85814e-07
3.85813e-07
3.85816e-07
3.85822e-07
3.85833e-07
3.85846e-07
3.85863e-07
3.85882e-07
3.85906e-07
3.85933e-07
3.85965e-07
3.86003e-07
3.86046e-07
3.86095e-07
3.8615e-07
3.86212e-07
3.8628e-07
3.86356e-07
3.86439e-07
3.86529e-07
3.86628e-07
3.86737e-07
3.86858e-07
3.86992e-07
3.87141e-07
3.87307e-07
3.8749e-07
3.87692e-07
3.87916e-07
3.88163e-07
3.88436e-07
3.88738e-07
3.89073e-07
3.89446e-07
3.89863e-07
3.90331e-07
3.85829e-07
3.85818e-07
3.85812e-07
3.85812e-07
3.85815e-07
3.85822e-07
3.85833e-07
3.85846e-07
3.85863e-07
3.85883e-07
3.85906e-07
3.85933e-07
3.85965e-07
3.86003e-07
3.86047e-07
3.86096e-07
3.86151e-07
3.86213e-07
3.86281e-07
3.86357e-07
3.8644e-07
3.8653e-07
3.86629e-07
3.86738e-07
3.86859e-07
3.86993e-07
3.87143e-07
3.87308e-07
3.87491e-07
3.87694e-07
3.87918e-07
3.88165e-07
3.88438e-07
3.88742e-07
3.89078e-07
3.89453e-07
3.89872e-07
3.90342e-07
3.85614e-07
3.8561e-07
3.85612e-07
3.85618e-07
3.85627e-07
3.8564e-07
3.85655e-07
3.85674e-07
3.85696e-07
3.85721e-07
3.85751e-07
3.85786e-07
3.85827e-07
3.85874e-07
3.85925e-07
3.85983e-07
3.86046e-07
3.86116e-07
3.86194e-07
3.86279e-07
3.86372e-07
3.86474e-07
3.86586e-07
3.86711e-07
3.86848e-07
3.87001e-07
3.8717e-07
3.87356e-07
3.87562e-07
3.87789e-07
3.88039e-07
3.88316e-07
3.88623e-07
3.88964e-07
3.89342e-07
3.89764e-07
3.90237e-07
3.84618e-07
3.84622e-07
3.8463e-07
3.84641e-07
3.84655e-07
3.84672e-07
3.84692e-07
3.84716e-07
3.84743e-07
3.84775e-07
3.84812e-07
3.84855e-07
3.84903e-07
3.84956e-07
3.85015e-07
3.85078e-07
3.85148e-07
3.85225e-07
3.8531e-07
3.85403e-07
3.85504e-07
3.85614e-07
3.85736e-07
3.85871e-07
3.86019e-07
3.86183e-07
3.86363e-07
3.86561e-07
3.86779e-07
3.87018e-07
3.87281e-07
3.87571e-07
3.87891e-07
3.88245e-07
3.88637e-07
3.89072e-07
3.89558e-07
3.8231e-07
3.82327e-07
3.82348e-07
3.82371e-07
3.82396e-07
3.82424e-07
3.82456e-07
3.82493e-07
3.82534e-07
3.82582e-07
3.82637e-07
3.82699e-07
3.82766e-07
3.82838e-07
3.82916e-07
3.82999e-07
3.83089e-07
3.83187e-07
3.83295e-07
3.83412e-07
3.8354e-07
3.8368e-07
3.83834e-07
3.84002e-07
3.84186e-07
3.84387e-07
3.84608e-07
3.84848e-07
3.85111e-07
3.85397e-07
3.85709e-07
3.8605e-07
3.86423e-07
3.86832e-07
3.87281e-07
3.87775e-07
3.88321e-07
3.85468e-07
3.85514e-07
3.85563e-07
3.85613e-07
3.85666e-07
3.85724e-07
3.8579e-07
3.85866e-07
3.85952e-07
3.8605e-07
3.86162e-07
3.86284e-07
3.86416e-07
3.86557e-07
3.86705e-07
3.86863e-07
3.87033e-07
3.87218e-07
3.8742e-07
3.87641e-07
3.87881e-07
3.88143e-07
3.88428e-07
3.88737e-07
3.89073e-07
3.89437e-07
3.89833e-07
3.90262e-07
3.90726e-07
3.91227e-07
3.91769e-07
3.92355e-07
3.92988e-07
3.93672e-07
3.94413e-07
3.95215e-07
3.96088e-07
5.20827e-07
5.20953e-07
5.21093e-07
5.21248e-07
5.21427e-07
5.21637e-07
5.21893e-07
5.22198e-07
5.22559e-07
5.22981e-07
5.23465e-07
5.24006e-07
5.24597e-07
5.25232e-07
5.25911e-07
5.26642e-07
5.27432e-07
5.28292e-07
5.29232e-07
5.30262e-07
5.31386e-07
5.32609e-07
5.33936e-07
5.35371e-07
5.36927e-07
5.38614e-07
5.40446e-07
5.42429e-07
5.44571e-07
5.46884e-07
5.49381e-07
5.5208e-07
5.54998e-07
5.58155e-07
5.61578e-07
5.65303e-07
5.69374e-07
5.71787e-07
5.71807e-07
5.7185e-07
5.71919e-07
5.72022e-07
5.72162e-07
5.72345e-07
5.7258e-07
5.72876e-07
5.73236e-07
5.73664e-07
5.74158e-07
5.74706e-07
5.75306e-07
5.75954e-07
5.76653e-07
5.77408e-07
5.7823e-07
5.79128e-07
5.80109e-07
5.81171e-07
5.82311e-07
5.83534e-07
5.84851e-07
5.86281e-07
5.87837e-07
5.89529e-07
5.91366e-07
5.93352e-07
5.95485e-07
5.97765e-07
6.00189e-07
6.02753e-07
6.05463e-07
6.08321e-07
6.11326e-07
6.14463e-07
6.17696e-07
3.97331e-07
3.97353e-07
3.97379e-07
3.97411e-07
3.97448e-07
3.97491e-07
3.9754e-07
3.97595e-07
3.97659e-07
3.97732e-07
3.97817e-07
3.97915e-07
3.98024e-07
3.98143e-07
3.98271e-07
3.98408e-07
3.98556e-07
3.98716e-07
3.98891e-07
3.99082e-07
3.99289e-07
3.99512e-07
3.99752e-07
4.00013e-07
4.00297e-07
4.00606e-07
4.00944e-07
4.01312e-07
4.01714e-07
4.02152e-07
4.02629e-07
4.03147e-07
4.03711e-07
4.04326e-07
4.04998e-07
4.05738e-07
4.06561e-07
4.07488e-07
3.78864e-07
3.78867e-07
3.78872e-07
3.7888e-07
3.7889e-07
3.78903e-07
3.78917e-07
3.78934e-07
3.78954e-07
3.78977e-07
3.79004e-07
3.79035e-07
3.79071e-07
3.79111e-07
3.79155e-07
3.79204e-07
3.79257e-07
3.79315e-07
3.79379e-07
3.79449e-07
3.79527e-07
3.79612e-07
3.79705e-07
3.79807e-07
3.7992e-07
3.80044e-07
3.8018e-07
3.80331e-07
3.80497e-07
3.80681e-07
3.80883e-07
3.81107e-07
3.81354e-07
3.81626e-07
3.81926e-07
3.82259e-07
3.82629e-07
3.83046e-07
3.73359e-07
3.73351e-07
3.73345e-07
3.73342e-07
3.7334e-07
3.7334e-07
3.73342e-07
3.73344e-07
3.73348e-07
3.73354e-07
3.73362e-07
3.73372e-07
3.73384e-07
3.73399e-07
3.73417e-07
3.73439e-07
3.73464e-07
3.73492e-07
3.73524e-07
3.73561e-07
3.73603e-07
3.7365e-07
3.73702e-07
3.73761e-07
3.73826e-07
3.739e-07
3.73983e-07
3.74076e-07
3.74181e-07
3.743e-07
3.74434e-07
3.74586e-07
3.74756e-07
3.74947e-07
3.75162e-07
3.75404e-07
3.75678e-07
3.75993e-07
3.70461e-07
3.70446e-07
3.70434e-07
3.70425e-07
3.70417e-07
3.70412e-07
3.70407e-07
3.70404e-07
3.70402e-07
3.704e-07
3.704e-07
3.70402e-07
3.70405e-07
3.70411e-07
3.70419e-07
3.7043e-07
3.70444e-07
3.70462e-07
3.70483e-07
3.70508e-07
3.70538e-07
3.70572e-07
3.7061e-07
3.70654e-07
3.70703e-07
3.7076e-07
3.70824e-07
3.70899e-07
3.70984e-07
3.71082e-07
3.71194e-07
3.71324e-07
3.71471e-07
3.71638e-07
3.71829e-07
3.72046e-07
3.72295e-07
3.72584e-07
3.6906e-07
3.69042e-07
3.69027e-07
3.69015e-07
3.69005e-07
3.68996e-07
3.6899e-07
3.68984e-07
3.6898e-07
3.68976e-07
3.68973e-07
3.68972e-07
3.68972e-07
3.68974e-07
3.68979e-07
3.68986e-07
3.68997e-07
3.69011e-07
3.69028e-07
3.6905e-07
3.69076e-07
3.69105e-07
3.69139e-07
3.69178e-07
3.69222e-07
3.69272e-07
3.69331e-07
3.69399e-07
3.69477e-07
3.69569e-07
3.69674e-07
3.69796e-07
3.69936e-07
3.70096e-07
3.7028e-07
3.70491e-07
3.70734e-07
3.71016e-07
3.6906e-07
3.69041e-07
3.69026e-07
3.69013e-07
3.69003e-07
3.68994e-07
3.68988e-07
3.68983e-07
3.68978e-07
3.68975e-07
3.68972e-07
3.68971e-07
3.68971e-07
3.68973e-07
3.68979e-07
3.68987e-07
3.68997e-07
3.69012e-07
3.6903e-07
3.69051e-07
3.69077e-07
3.69107e-07
3.69141e-07
3.6918e-07
3.69224e-07
3.69275e-07
3.69334e-07
3.69402e-07
3.69481e-07
3.69572e-07
3.69678e-07
3.69799e-07
3.69939e-07
3.701e-07
3.70284e-07
3.70496e-07
3.70741e-07
3.71024e-07
3.70444e-07
3.7043e-07
3.7042e-07
3.70412e-07
3.70406e-07
3.70402e-07
3.70399e-07
3.70398e-07
3.70397e-07
3.70397e-07
3.70399e-07
3.70403e-07
3.7041e-07
3.70419e-07
3.70431e-07
3.70446e-07
3.70465e-07
3.70487e-07
3.70513e-07
3.70543e-07
3.70577e-07
3.70616e-07
3.7066e-07
3.70709e-07
3.70766e-07
3.70832e-07
3.70906e-07
3.70992e-07
3.7109e-07
3.71202e-07
3.7133e-07
3.71476e-07
3.71643e-07
3.71835e-07
3.72053e-07
3.72303e-07
3.72591e-07
3.73347e-07
3.7334e-07
3.73336e-07
3.73335e-07
3.73335e-07
3.73337e-07
3.7334e-07
3.73345e-07
3.73352e-07
3.7336e-07
3.7337e-07
3.73383e-07
3.734e-07
3.73419e-07
3.73441e-07
3.73466e-07
3.73495e-07
3.73528e-07
3.73566e-07
3.73608e-07
3.73654e-07
3.73707e-07
3.73766e-07
3.73832e-07
3.73906e-07
3.73989e-07
3.74083e-07
3.74188e-07
3.74307e-07
3.7444e-07
3.74591e-07
3.7476e-07
3.74951e-07
3.75167e-07
3.75411e-07
3.75686e-07
3.76e-07
3.78862e-07
3.78869e-07
3.78879e-07
3.7889e-07
3.78904e-07
3.78919e-07
3.78937e-07
3.78958e-07
3.78981e-07
3.79009e-07
3.7904e-07
3.79076e-07
3.79116e-07
3.7916e-07
3.79208e-07
3.7926e-07
3.79317e-07
3.7938e-07
3.79449e-07
3.79525e-07
3.79609e-07
3.79701e-07
3.79803e-07
3.79915e-07
3.80039e-07
3.80175e-07
3.80325e-07
3.80491e-07
3.80673e-07
3.80873e-07
3.81095e-07
3.81339e-07
3.81608e-07
3.81906e-07
3.82235e-07
3.826e-07
3.83005e-07
3.97344e-07
3.9738e-07
3.97421e-07
3.97464e-07
3.97511e-07
3.97563e-07
3.9762e-07
3.97684e-07
3.97758e-07
3.97843e-07
3.9794e-07
3.98048e-07
3.98165e-07
3.9829e-07
3.98423e-07
3.98565e-07
3.98719e-07
3.98886e-07
3.99069e-07
3.99269e-07
3.99489e-07
3.99728e-07
3.99988e-07
4.0027e-07
4.00577e-07
4.00911e-07
4.01273e-07
4.01666e-07
4.02093e-07
4.02555e-07
4.03055e-07
4.03598e-07
4.04184e-07
4.04819e-07
4.05507e-07
4.06251e-07
4.07059e-07
5.71696e-07
5.71819e-07
5.71954e-07
5.72104e-07
5.72278e-07
5.72486e-07
5.72737e-07
5.73035e-07
5.73394e-07
5.73819e-07
5.74308e-07
5.74855e-07
5.75451e-07
5.76088e-07
5.76769e-07
5.775e-07
5.7829e-07
5.79151e-07
5.80095e-07
5.81133e-07
5.82269e-07
5.83504e-07
5.84843e-07
5.86291e-07
5.8786e-07
5.89563e-07
5.91413e-07
5.93417e-07
5.95584e-07
5.97926e-07
6.00457e-07
6.03195e-07
6.06158e-07
6.09366e-07
6.12848e-07
6.16644e-07
6.20799e-07
6.08188e-07
6.0819e-07
6.08213e-07
6.08266e-07
6.08354e-07
6.08482e-07
6.08656e-07
6.08884e-07
6.09175e-07
6.09532e-07
6.0995e-07
6.10432e-07
6.10974e-07
6.11564e-07
6.122e-07
6.12885e-07
6.13625e-07
6.14431e-07
6.15314e-07
6.1628e-07
6.17327e-07
6.18452e-07
6.19658e-07
6.20963e-07
6.22388e-07
6.2394e-07
6.25631e-07
6.27465e-07
6.29447e-07
6.31577e-07
6.33851e-07
6.36266e-07
6.3882e-07
6.41517e-07
6.44362e-07
6.47355e-07
6.50486e-07
6.53727e-07
4.06433e-07
4.06452e-07
4.06476e-07
4.06506e-07
4.0654e-07
4.0658e-07
4.06625e-07
4.06675e-07
4.06732e-07
4.06797e-07
4.06871e-07
4.06957e-07
4.07058e-07
4.07168e-07
4.07287e-07
4.07416e-07
4.07554e-07
4.07705e-07
4.0787e-07
4.0805e-07
4.08247e-07
4.0846e-07
4.08691e-07
4.08944e-07
4.09221e-07
4.09522e-07
4.09851e-07
4.10209e-07
4.10601e-07
4.11029e-07
4.11497e-07
4.12011e-07
4.12572e-07
4.13187e-07
4.13862e-07
4.14607e-07
4.15438e-07
4.16379e-07
3.77496e-07
3.77497e-07
3.775e-07
3.77505e-07
3.77512e-07
3.7752e-07
3.7753e-07
3.7754e-07
3.77552e-07
3.77566e-07
3.77583e-07
3.77604e-07
3.77628e-07
3.77656e-07
3.77688e-07
3.77724e-07
3.77763e-07
3.77807e-07
3.77855e-07
3.7791e-07
3.7797e-07
3.78038e-07
3.78112e-07
3.78195e-07
3.78286e-07
3.78387e-07
3.78499e-07
3.78624e-07
3.78762e-07
3.78917e-07
3.79091e-07
3.79285e-07
3.79502e-07
3.79745e-07
3.80015e-07
3.80317e-07
3.80656e-07
3.81044e-07
3.66432e-07
3.66422e-07
3.66414e-07
3.66407e-07
3.66401e-07
3.66396e-07
3.66391e-07
3.66387e-07
3.66383e-07
3.66379e-07
3.66376e-07
3.66374e-07
3.66374e-07
3.66376e-07
3.6638e-07
3.66386e-07
3.66395e-07
3.66405e-07
3.66419e-07
3.66436e-07
3.66457e-07
3.66482e-07
3.66511e-07
3.66545e-07
3.66583e-07
3.66627e-07
3.66678e-07
3.66737e-07
3.66806e-07
3.66887e-07
3.66981e-07
3.67091e-07
3.67219e-07
3.67365e-07
3.67534e-07
3.67727e-07
3.6795e-07
3.6821e-07
3.6065e-07
3.60633e-07
3.60617e-07
3.60604e-07
3.60591e-07
3.6058e-07
3.60569e-07
3.60558e-07
3.60547e-07
3.60536e-07
3.60525e-07
3.60515e-07
3.60505e-07
3.60496e-07
3.60489e-07
3.60484e-07
3.6048e-07
3.60478e-07
3.60479e-07
3.60482e-07
3.60489e-07
3.60498e-07
3.60511e-07
3.60527e-07
3.60546e-07
3.6057e-07
3.60599e-07
3.60634e-07
3.60679e-07
3.60734e-07
3.60801e-07
3.60882e-07
3.6098e-07
3.61095e-07
3.6123e-07
3.61388e-07
3.61575e-07
3.61797e-07
3.58023e-07
3.58003e-07
3.57984e-07
3.57967e-07
3.57952e-07
3.57937e-07