/*--------------------------------*- C++ -*----------------------------------*\
| =========                 |                                                 |
| \\      /  F ield         | OpenFOAM: The Open Source CFD Toolbox           |
|  \\    /   O peration     | Version:  2.3.1                                 |
|   \\  /    A nd           | Web:      www.OpenFOAM.org                      |
|    \\/     M anipulation  |                                                 |
\*---------------------------------------------------------------------------*/
FoamFile
{
    version     2.0;
    format      ascii;
    class       volScalarField;
    location    "20";
    object      k;
}
// * * * * * * * * * * * * * * * * * * * * * * * * * * * * * * * * * * * * * //

dimensions      [0 2 -2 0 0 0 0];

internalField   nonuniform List<scalar> 
37692
(
2.92306e-06
2.92273e-06
2.9227e-06
2.92295e-06
2.92352e-06
2.92437e-06
2.92556e-06
2.92712e-06
2.92914e-06
2.93167e-06
2.93472e-06
2.9383e-06
2.94242e-06
2.94709e-06
2.95231e-06
2.95808e-06
2.96443e-06
2.97139e-06
2.97901e-06
2.98736e-06
2.99647e-06
3.00634e-06
3.017e-06
3.02854e-06
3.04102e-06
3.05455e-06
3.06921e-06
3.08505e-06
3.10212e-06
3.12046e-06
3.14005e-06
3.16086e-06
3.18284e-06
3.20595e-06
3.23014e-06
3.25525e-06
3.281e-06
3.30698e-06
4.34097e-06
4.34098e-06
4.34123e-06
4.34181e-06
4.34274e-06
4.34405e-06
4.3458e-06
4.34808e-06
4.351e-06
4.3546e-06
4.35885e-06
4.36374e-06
4.36926e-06
4.37544e-06
4.38227e-06
4.38974e-06
4.39789e-06
4.40678e-06
4.4165e-06
4.42711e-06
4.43861e-06
4.45098e-06
4.4643e-06
4.47867e-06
4.49426e-06
4.51115e-06
4.52941e-06
4.54912e-06
4.57031e-06
4.59298e-06
4.61709e-06
4.64257e-06
4.66938e-06
4.69748e-06
4.7268e-06
4.75712e-06
4.788e-06
4.81862e-06
5.06758e-06
5.06776e-06
5.06826e-06
5.0691e-06
5.07031e-06
5.07192e-06
5.07399e-06
5.07661e-06
5.07987e-06
5.08378e-06
5.08835e-06
5.09355e-06
5.09941e-06
5.10594e-06
5.11312e-06
5.12095e-06
5.12944e-06
5.13867e-06
5.14873e-06
5.15964e-06
5.17138e-06
5.18394e-06
5.19743e-06
5.21204e-06
5.2279e-06
5.24513e-06
5.26377e-06
5.28386e-06
5.30545e-06
5.3285e-06
5.35297e-06
5.3788e-06
5.40599e-06
5.43456e-06
5.4645e-06
5.49562e-06
5.52756e-06
5.55969e-06
5.45732e-06
5.45773e-06
5.45843e-06
5.45947e-06
5.4609e-06
5.46273e-06
5.46505e-06
5.46788e-06
5.4713e-06
5.47534e-06
5.48003e-06
5.48537e-06
5.49141e-06
5.49816e-06
5.50558e-06
5.51366e-06
5.5224e-06
5.53186e-06
5.54211e-06
5.55314e-06
5.56491e-06
5.57747e-06
5.59098e-06
5.60568e-06
5.6217e-06
5.63915e-06
5.65806e-06
5.67846e-06
5.70035e-06
5.72371e-06
5.74847e-06
5.77462e-06
5.80223e-06
5.83137e-06
5.86209e-06
5.89428e-06
5.92773e-06
5.96203e-06
5.65101e-06
5.6516e-06
5.65246e-06
5.65365e-06
5.65524e-06
5.65727e-06
5.65975e-06
5.6627e-06
5.66617e-06
5.67023e-06
5.67492e-06
5.68032e-06
5.68645e-06
5.69333e-06
5.70091e-06
5.70914e-06
5.71804e-06
5.72763e-06
5.73795e-06
5.74897e-06
5.76068e-06
5.77317e-06
5.78666e-06
5.80138e-06
5.81751e-06
5.8351e-06
5.8542e-06
5.87482e-06
5.89694e-06
5.92053e-06
5.94556e-06
5.97204e-06
6.0001e-06
6.02986e-06
6.0614e-06
6.09471e-06
6.1297e-06
6.16621e-06
5.72904e-06
5.72979e-06
5.73078e-06
5.73211e-06
5.73384e-06
5.736e-06
5.73858e-06
5.74158e-06
5.74504e-06
5.74905e-06
5.75371e-06
5.75911e-06
5.76529e-06
5.77222e-06
5.77985e-06
5.78814e-06
5.79709e-06
5.80671e-06
5.81701e-06
5.82797e-06
5.8396e-06
5.85203e-06
5.8655e-06
5.88025e-06
5.89642e-06
5.91409e-06
5.93329e-06
5.95401e-06
5.97625e-06
5.99998e-06
6.02521e-06
6.05201e-06
6.08052e-06
6.11086e-06
6.14315e-06
6.17747e-06
6.21387e-06
6.25241e-06
5.72878e-06
5.72968e-06
5.73081e-06
5.73227e-06
5.73411e-06
5.73636e-06
5.73899e-06
5.74199e-06
5.74542e-06
5.74938e-06
5.75401e-06
5.7594e-06
5.76559e-06
5.7725e-06
5.78008e-06
5.78829e-06
5.79715e-06
5.80669e-06
5.81691e-06
5.8278e-06
5.83938e-06
5.85179e-06
5.86526e-06
5.88e-06
5.89616e-06
5.91382e-06
5.933e-06
5.95372e-06
5.97596e-06
5.99974e-06
6.02512e-06
6.05219e-06
6.08108e-06
6.11192e-06
6.14483e-06
6.17998e-06
6.21753e-06
6.25771e-06
5.65125e-06
5.6525e-06
5.65405e-06
5.65594e-06
5.6582e-06
5.66081e-06
5.6638e-06
5.6672e-06
5.67112e-06
5.67574e-06
5.68113e-06
5.68729e-06
5.69412e-06
5.70156e-06
5.70961e-06
5.7183e-06
5.72769e-06
5.73781e-06
5.74864e-06
5.76021e-06
5.77264e-06
5.78613e-06
5.80086e-06
5.81698e-06
5.83458e-06
5.85369e-06
5.87435e-06
5.89655e-06
5.92036e-06
5.94586e-06
5.97317e-06
6.0024e-06
6.0337e-06
6.06721e-06
6.10317e-06
6.14184e-06
6.18356e-06
5.45711e-06
5.45838e-06
5.45992e-06
5.46177e-06
5.46396e-06
5.46649e-06
5.46942e-06
5.47279e-06
5.4767e-06
5.48129e-06
5.48664e-06
5.49271e-06
5.49939e-06
5.50664e-06
5.51446e-06
5.52292e-06
5.53211e-06
5.54207e-06
5.55282e-06
5.56435e-06
5.57679e-06
5.59028e-06
5.60498e-06
5.62101e-06
5.63848e-06
5.65746e-06
5.67798e-06
5.70008e-06
5.72383e-06
5.74933e-06
5.77673e-06
5.80614e-06
5.8377e-06
5.87162e-06
5.90812e-06
5.94756e-06
5.99031e-06
5.06678e-06
5.06795e-06
5.06938e-06
5.07107e-06
5.07307e-06
5.07545e-06
5.07826e-06
5.08153e-06
5.08537e-06
5.08987e-06
5.09509e-06
5.10098e-06
5.10746e-06
5.11449e-06
5.12208e-06
5.13031e-06
5.13926e-06
5.14903e-06
5.15962e-06
5.17107e-06
5.18347e-06
5.19693e-06
5.21156e-06
5.22746e-06
5.24475e-06
5.26351e-06
5.28382e-06
5.30574e-06
5.32934e-06
5.35473e-06
5.38206e-06
5.41147e-06
5.44313e-06
5.47722e-06
5.51401e-06
5.55386e-06
5.59716e-06
4.33948e-06
4.34043e-06
4.34159e-06
4.34299e-06
4.34471e-06
4.34681e-06
4.34936e-06
4.35241e-06
4.35603e-06
4.36028e-06
4.36522e-06
4.37081e-06
4.37702e-06
4.38381e-06
4.39117e-06
4.39917e-06
4.40788e-06
4.41738e-06
4.42774e-06
4.439e-06
4.45124e-06
4.46455e-06
4.47899e-06
4.49466e-06
4.51165e-06
4.53008e-06
4.55006e-06
4.57165e-06
4.59493e-06
4.62002e-06
4.64706e-06
4.67621e-06
4.70765e-06
4.74158e-06
4.77824e-06
4.81799e-06
4.86122e-06
2.92129e-06
2.92153e-06
2.9222e-06
2.9231e-06
2.92427e-06
2.92575e-06
2.92757e-06
2.92978e-06
2.93242e-06
2.93555e-06
2.93922e-06
2.94345e-06
2.94822e-06
2.95353e-06
2.95936e-06
2.96574e-06
2.97269e-06
2.98028e-06
2.98854e-06
2.99754e-06
3.00734e-06
3.01799e-06
3.02956e-06
3.0421e-06
3.0557e-06
3.07044e-06
3.08643e-06
3.10375e-06
3.12246e-06
3.14265e-06
3.16444e-06
3.18794e-06
3.21328e-06
3.24064e-06
3.27018e-06
3.30217e-06
3.33688e-06
4.55978e-06
4.56005e-06
4.56053e-06
4.56124e-06
4.56218e-06
4.56336e-06
4.5648e-06
4.56659e-06
4.56878e-06
4.57142e-06
4.5745e-06
4.578e-06
4.58192e-06
4.58626e-06
4.59102e-06
4.59621e-06
4.60185e-06
4.60799e-06
4.6147e-06
4.62203e-06
4.62999e-06
4.63857e-06
4.64779e-06
4.65775e-06
4.66853e-06
4.68023e-06
4.69289e-06
4.70657e-06
4.7213e-06
4.73709e-06
4.75393e-06
4.77178e-06
4.79062e-06
4.81047e-06
4.83131e-06
4.8531e-06
4.87577e-06
4.89903e-06
7.30496e-06
7.30682e-06
7.30858e-06
7.31035e-06
7.31218e-06
7.31412e-06
7.31624e-06
7.3187e-06
7.32163e-06
7.32502e-06
7.32877e-06
7.33278e-06
7.33701e-06
7.34148e-06
7.34613e-06
7.35097e-06
7.35603e-06
7.36142e-06
7.36722e-06
7.37346e-06
7.38009e-06
7.38704e-06
7.39438e-06
7.40226e-06
7.4108e-06
7.42007e-06
7.43006e-06
7.44078e-06
7.45222e-06
7.46432e-06
7.47698e-06
7.49014e-06
7.50381e-06
7.51807e-06
7.53295e-06
7.54835e-06
7.56386e-06
7.57885e-06
8.95484e-06
8.95723e-06
8.95958e-06
8.96194e-06
8.96435e-06
8.96684e-06
8.96953e-06
8.97257e-06
8.97608e-06
8.98007e-06
8.98445e-06
8.98915e-06
8.99416e-06
8.99946e-06
9.005e-06
9.01075e-06
9.01675e-06
9.0231e-06
9.02987e-06
9.03707e-06
9.04461e-06
9.05251e-06
9.06089e-06
9.06995e-06
9.07982e-06
9.09055e-06
9.10214e-06
9.11455e-06
9.12775e-06
9.14169e-06
9.15626e-06
9.17142e-06
9.18726e-06
9.20389e-06
9.22139e-06
9.23967e-06
9.25849e-06
9.27742e-06
9.85756e-06
9.8604e-06
9.86318e-06
9.86596e-06
9.86876e-06
9.87165e-06
9.87471e-06
9.8781e-06
9.88192e-06
9.88618e-06
9.89086e-06
9.89593e-06
9.9014e-06
9.90724e-06
9.91337e-06
9.91975e-06
9.92639e-06
9.93336e-06
9.94072e-06
9.94843e-06
9.95643e-06
9.96482e-06
9.97379e-06
9.9836e-06
9.99438e-06
1.00061e-05
1.00188e-05
1.00325e-05
1.00469e-05
1.00622e-05
1.00781e-05
1.00948e-05
1.01123e-05
1.01308e-05
1.01504e-05
1.01712e-05
1.01929e-05
1.02152e-05
1.03191e-05
1.03223e-05
1.03254e-05
1.03284e-05
1.03315e-05
1.03347e-05
1.0338e-05
1.03415e-05
1.03455e-05
1.03498e-05
1.03546e-05
1.03598e-05
1.03655e-05
1.03717e-05
1.03781e-05
1.03849e-05
1.03919e-05
1.03992e-05
1.04068e-05
1.04147e-05
1.04228e-05
1.04314e-05
1.04406e-05
1.04509e-05
1.04621e-05
1.04745e-05
1.04879e-05
1.05022e-05
1.05174e-05
1.05335e-05
1.05502e-05
1.05678e-05
1.05865e-05
1.06063e-05
1.06274e-05
1.06499e-05
1.06736e-05
1.06985e-05
1.05107e-05
1.05142e-05
1.05176e-05
1.05208e-05
1.05241e-05
1.05274e-05
1.05308e-05
1.05344e-05
1.05383e-05
1.05426e-05
1.05474e-05
1.05527e-05
1.05585e-05
1.05647e-05
1.05713e-05
1.05782e-05
1.05853e-05
1.05927e-05
1.06003e-05
1.06082e-05
1.06163e-05
1.06249e-05
1.06343e-05
1.06447e-05
1.06562e-05
1.06688e-05
1.06825e-05
1.06971e-05
1.07127e-05
1.07291e-05
1.07463e-05
1.07644e-05
1.07837e-05
1.08043e-05
1.08263e-05
1.08499e-05
1.08749e-05
1.09016e-05
1.05106e-05
1.05144e-05
1.0518e-05
1.05214e-05
1.05247e-05
1.0528e-05
1.05315e-05
1.05351e-05
1.05389e-05
1.05431e-05
1.05478e-05
1.0553e-05
1.05588e-05
1.0565e-05
1.05715e-05
1.05782e-05
1.05851e-05
1.05924e-05
1.05999e-05
1.06077e-05
1.06157e-05
1.06243e-05
1.06336e-05
1.0644e-05
1.06555e-05
1.0668e-05
1.06816e-05
1.06962e-05
1.07117e-05
1.07281e-05
1.07454e-05
1.07638e-05
1.07834e-05
1.08042e-05
1.08265e-05
1.08504e-05
1.08761e-05
1.09035e-05
1.03227e-05
1.03264e-05
1.03299e-05
1.03332e-05
1.03364e-05
1.03398e-05
1.03433e-05
1.0347e-05
1.03511e-05
1.03557e-05
1.03608e-05
1.03665e-05
1.03724e-05
1.03786e-05
1.0385e-05
1.03916e-05
1.03986e-05
1.04058e-05
1.04134e-05
1.04213e-05
1.04298e-05
1.0439e-05
1.04492e-05
1.04604e-05
1.04726e-05
1.04859e-05
1.05002e-05
1.05154e-05
1.05315e-05
1.05487e-05
1.05669e-05
1.05864e-05
1.06073e-05
1.06297e-05
1.06537e-05
1.06797e-05
1.07078e-05
9.86089e-06
9.86463e-06
9.86799e-06
9.8711e-06
9.87415e-06
9.8773e-06
9.88062e-06
9.88418e-06
9.88811e-06
9.89254e-06
9.8975e-06
9.90284e-06
9.90842e-06
9.91412e-06
9.91999e-06
9.9261e-06
9.93257e-06
9.93942e-06
9.94665e-06
9.95428e-06
9.96246e-06
9.97136e-06
9.98111e-06
9.9918e-06
1.00035e-05
1.00161e-05
1.00297e-05
1.00442e-05
1.00597e-05
1.00761e-05
1.00938e-05
1.01126e-05
1.01328e-05
1.01545e-05
1.01779e-05
1.02032e-05
1.02308e-05
8.95764e-06
8.96112e-06
8.96416e-06
8.96691e-06
8.96959e-06
8.97238e-06
8.97539e-06
8.97867e-06
8.98232e-06
8.98643e-06
8.99098e-06
8.99585e-06
9.00087e-06
9.00597e-06
9.01119e-06
9.01663e-06
9.02241e-06
9.0286e-06
9.03523e-06
9.04232e-06
9.04996e-06
9.05825e-06
9.06728e-06
9.07709e-06
9.08777e-06
9.09933e-06
9.11178e-06
9.12511e-06
9.13935e-06
9.15456e-06
9.17086e-06
9.18833e-06
9.20708e-06
9.22724e-06
9.249e-06
9.27262e-06
9.29841e-06
7.30691e-06
7.30982e-06
7.31224e-06
7.31438e-06
7.31646e-06
7.31868e-06
7.32114e-06
7.3239e-06
7.32701e-06
7.33051e-06
7.33438e-06
7.33851e-06
7.34279e-06
7.34713e-06
7.35156e-06
7.35617e-06
7.36108e-06
7.36638e-06
7.37212e-06
7.37833e-06
7.38508e-06
7.3924e-06
7.40032e-06
7.40888e-06
7.41813e-06
7.42815e-06
7.43896e-06
7.45056e-06
7.46298e-06
7.47625e-06
7.49047e-06
7.50575e-06
7.52216e-06
7.53982e-06
7.55886e-06
7.57953e-06
7.6021e-06
4.55935e-06
4.56028e-06
4.56135e-06
4.56255e-06
4.56392e-06
4.56553e-06
4.56745e-06
4.5697e-06
4.57234e-06
4.57542e-06
4.57894e-06
4.58291e-06
4.58729e-06
4.59206e-06
4.59721e-06
4.60277e-06
4.60881e-06
4.61538e-06
4.62254e-06
4.63034e-06
4.63883e-06
4.64807e-06
4.65807e-06
4.66889e-06
4.68062e-06
4.69333e-06
4.70709e-06
4.72198e-06
4.73804e-06
4.75534e-06
4.77399e-06
4.79408e-06
4.81574e-06
4.83909e-06
4.86427e-06
4.89151e-06
4.92106e-06
5.41657e-06
5.41685e-06
5.41732e-06
5.41801e-06
5.41892e-06
5.42009e-06
5.42154e-06
5.42337e-06
5.42565e-06
5.42841e-06
5.43164e-06
5.43529e-06
5.43936e-06
5.44385e-06
5.44874e-06
5.45403e-06
5.45977e-06
5.466e-06
5.47281e-06
5.48023e-06
5.48827e-06
5.49691e-06
5.50618e-06
5.51618e-06
5.52701e-06
5.53876e-06
5.55148e-06
5.56522e-06
5.58002e-06
5.59586e-06
5.61272e-06
5.63055e-06
5.64934e-06
5.66912e-06
5.68998e-06
5.71191e-06
5.73473e-06
5.75815e-06
9.21206e-06
9.21387e-06
9.21556e-06
9.21723e-06
9.21897e-06
9.22083e-06
9.2229e-06
9.22534e-06
9.22826e-06
9.23162e-06
9.23533e-06
9.23925e-06
9.24335e-06
9.24762e-06
9.25202e-06
9.25655e-06
9.26125e-06
9.26622e-06
9.27155e-06
9.27726e-06
9.28327e-06
9.28956e-06
9.29617e-06
9.30325e-06
9.31092e-06
9.31925e-06
9.32824e-06
9.33789e-06
9.34817e-06
9.35901e-06
9.3703e-06
9.38193e-06
9.39391e-06
9.40626e-06
9.41891e-06
9.43169e-06
9.44423e-06
9.45584e-06
1.12489e-05
1.12512e-05
1.12534e-05
1.12556e-05
1.12579e-05
1.12603e-05
1.12629e-05
1.12659e-05
1.12693e-05
1.12731e-05
1.12773e-05
1.12817e-05
1.12865e-05
1.12914e-05
1.12965e-05
1.13018e-05
1.13073e-05
1.13131e-05
1.13192e-05
1.13257e-05
1.13325e-05
1.13396e-05
1.13471e-05
1.13552e-05
1.1364e-05
1.13736e-05
1.1384e-05
1.13951e-05
1.14069e-05
1.14194e-05
1.14324e-05
1.14459e-05
1.146e-05
1.14747e-05
1.14901e-05
1.15061e-05
1.15224e-05
1.15386e-05
1.23686e-05
1.23714e-05
1.2374e-05
1.23766e-05
1.23793e-05
1.23821e-05
1.23851e-05
1.23884e-05
1.23921e-05
1.23961e-05
1.24005e-05
1.24053e-05
1.24105e-05
1.24159e-05
1.24215e-05
1.24274e-05
1.24335e-05
1.24399e-05
1.24466e-05
1.24536e-05
1.24609e-05
1.24685e-05
1.24767e-05
1.24856e-05
1.24953e-05
1.2506e-05
1.25175e-05
1.25298e-05
1.25429e-05
1.25567e-05
1.25712e-05
1.25864e-05
1.26023e-05
1.26191e-05
1.26369e-05
1.26557e-05
1.26752e-05
1.26952e-05
1.2953e-05
1.29561e-05
1.2959e-05
1.29619e-05
1.29649e-05
1.2968e-05
1.29712e-05
1.29747e-05
1.29785e-05
1.29826e-05
1.29872e-05
1.29921e-05
1.29975e-05
1.30032e-05
1.30092e-05
1.30154e-05
1.30219e-05
1.30286e-05
1.30356e-05
1.30428e-05
1.30503e-05
1.30582e-05
1.30668e-05
1.30761e-05
1.30864e-05
1.30977e-05
1.31099e-05
1.31231e-05
1.3137e-05
1.31517e-05
1.31672e-05
1.31835e-05
1.32007e-05
1.3219e-05
1.32386e-05
1.32594e-05
1.32813e-05
1.33044e-05
1.32006e-05
1.32039e-05
1.32071e-05
1.32102e-05
1.32134e-05
1.32166e-05
1.322e-05
1.32235e-05
1.32273e-05
1.32315e-05
1.3236e-05
1.3241e-05
1.32465e-05
1.32523e-05
1.32584e-05
1.32647e-05
1.32713e-05
1.32781e-05
1.32852e-05
1.32925e-05
1.33e-05
1.3308e-05
1.33167e-05
1.33263e-05
1.33368e-05
1.33484e-05
1.3361e-05
1.33745e-05
1.33888e-05
1.3404e-05
1.342e-05
1.34369e-05
1.34549e-05
1.34742e-05
1.34948e-05
1.35168e-05
1.35404e-05
1.35655e-05
1.32004e-05
1.3204e-05
1.32074e-05
1.32107e-05
1.32139e-05
1.32172e-05
1.32206e-05
1.32241e-05
1.32279e-05
1.32319e-05
1.32364e-05
1.32414e-05
1.32468e-05
1.32525e-05
1.32585e-05
1.32648e-05
1.32712e-05
1.32779e-05
1.32848e-05
1.3292e-05
1.32995e-05
1.33074e-05
1.33161e-05
1.33256e-05
1.33362e-05
1.33477e-05
1.33602e-05
1.33737e-05
1.3388e-05
1.34032e-05
1.34193e-05
1.34364e-05
1.34547e-05
1.34742e-05
1.34952e-05
1.35177e-05
1.35419e-05
1.35679e-05
1.29563e-05
1.29598e-05
1.29632e-05
1.29664e-05
1.29696e-05
1.29729e-05
1.29763e-05
1.29799e-05
1.29839e-05
1.29882e-05
1.29931e-05
1.29984e-05
1.30039e-05
1.30096e-05
1.30155e-05
1.30217e-05
1.3028e-05
1.30347e-05
1.30417e-05
1.3049e-05
1.30567e-05
1.30652e-05
1.30745e-05
1.30848e-05
1.3096e-05
1.31082e-05
1.31213e-05
1.31352e-05
1.31501e-05
1.3166e-05
1.31829e-05
1.3201e-05
1.32205e-05
1.32414e-05
1.32641e-05
1.32886e-05
1.33153e-05
1.23716e-05
1.23751e-05
1.23784e-05
1.23815e-05
1.23845e-05
1.23876e-05
1.23908e-05
1.23942e-05
1.2398e-05
1.24022e-05
1.24068e-05
1.24118e-05
1.2417e-05
1.24222e-05
1.24277e-05
1.24333e-05
1.24392e-05
1.24454e-05
1.24519e-05
1.24589e-05
1.24663e-05
1.24744e-05
1.24832e-05
1.24929e-05
1.25035e-05
1.25149e-05
1.25273e-05
1.25405e-05
1.25546e-05
1.25697e-05
1.25858e-05
1.26031e-05
1.26218e-05
1.26418e-05
1.26636e-05
1.26873e-05
1.27132e-05
1.12514e-05
1.12547e-05
1.12577e-05
1.12604e-05
1.12631e-05
1.12658e-05
1.12687e-05
1.12719e-05
1.12753e-05
1.12792e-05
1.12835e-05
1.12881e-05
1.12927e-05
1.12974e-05
1.13022e-05
1.13072e-05
1.13124e-05
1.13179e-05
1.13239e-05
1.13302e-05
1.13371e-05
1.13445e-05
1.13526e-05
1.13614e-05
1.1371e-05
1.13813e-05
1.13925e-05
1.14045e-05
1.14173e-05
1.1431e-05
1.14458e-05
1.14616e-05
1.14786e-05
1.1497e-05
1.15169e-05
1.15387e-05
1.15626e-05
9.21382e-06
9.2167e-06
9.21915e-06
9.2213e-06
9.22338e-06
9.22557e-06
9.228e-06
9.23071e-06
9.23375e-06
9.23716e-06
9.24089e-06
9.24485e-06
9.24891e-06
9.25298e-06
9.25708e-06
9.26129e-06
9.26574e-06
9.27051e-06
9.27568e-06
9.28129e-06
9.28738e-06
9.29399e-06
9.30113e-06
9.30885e-06
9.31719e-06
9.32623e-06
9.336e-06
9.34649e-06
9.35772e-06
9.36973e-06
9.38261e-06
9.39645e-06
9.41135e-06
9.42744e-06
9.44487e-06
9.46392e-06
9.48489e-06
5.41609e-06
5.41705e-06
5.41815e-06
5.41937e-06
5.42077e-06
5.42242e-06
5.42439e-06
5.42673e-06
5.42948e-06
5.43267e-06
5.43634e-06
5.44044e-06
5.44494e-06
5.44979e-06
5.45501e-06
5.46062e-06
5.46669e-06
5.4733e-06
5.4805e-06
5.48836e-06
5.49693e-06
5.50624e-06
5.51633e-06
5.52725e-06
5.53907e-06
5.55188e-06
5.56575e-06
5.58076e-06
5.59694e-06
5.61437e-06
5.63315e-06
5.65341e-06
5.67525e-06
5.69882e-06
5.72428e-06
5.75188e-06
5.7819e-06
5.97868e-06
5.97893e-06
5.97934e-06
5.97995e-06
5.98081e-06
5.98193e-06
5.98335e-06
5.98515e-06
5.98741e-06
5.9902e-06
5.99347e-06
5.99718e-06
6.0013e-06
6.00583e-06
6.01073e-06
6.01604e-06
6.02177e-06
6.02799e-06
6.03479e-06
6.04221e-06
6.05022e-06
6.05883e-06
6.06806e-06
6.078e-06
6.08878e-06
6.10047e-06
6.11314e-06
6.12685e-06
6.1416e-06
6.1574e-06
6.17421e-06
6.19205e-06
6.21092e-06
6.23086e-06
6.25187e-06
6.27393e-06
6.29691e-06
6.32049e-06
1.05175e-05
1.05191e-05
1.05206e-05
1.0522e-05
1.05236e-05
1.05253e-05
1.05272e-05
1.05295e-05
1.05323e-05
1.05356e-05
1.05391e-05
1.05429e-05
1.05468e-05
1.05508e-05
1.05549e-05
1.05591e-05
1.05635e-05
1.05681e-05
1.0573e-05
1.05783e-05
1.05839e-05
1.05897e-05
1.05958e-05
1.06023e-05
1.06093e-05
1.0617e-05
1.06253e-05
1.06343e-05
1.06438e-05
1.06538e-05
1.06642e-05
1.06748e-05
1.06855e-05
1.06965e-05
1.07076e-05
1.07187e-05
1.07294e-05
1.07391e-05
1.27936e-05
1.27957e-05
1.27977e-05
1.27997e-05
1.28018e-05
1.2804e-05
1.28064e-05
1.28092e-05
1.28123e-05
1.28158e-05
1.28197e-05
1.28238e-05
1.28281e-05
1.28326e-05
1.28372e-05
1.2842e-05
1.2847e-05
1.28522e-05
1.28577e-05
1.28635e-05
1.28697e-05
1.28761e-05
1.28829e-05
1.28902e-05
1.28981e-05
1.29068e-05
1.29162e-05
1.29262e-05
1.29369e-05
1.29482e-05
1.296e-05
1.29723e-05
1.29851e-05
1.29984e-05
1.30122e-05
1.30266e-05
1.30412e-05
1.30556e-05
1.40439e-05
1.40464e-05
1.40488e-05
1.40512e-05
1.40537e-05
1.40563e-05
1.4059e-05
1.4062e-05
1.40654e-05
1.40691e-05
1.40731e-05
1.40775e-05
1.40821e-05
1.4087e-05
1.4092e-05
1.40973e-05
1.41028e-05
1.41085e-05
1.41145e-05
1.41208e-05
1.41274e-05
1.41343e-05
1.41417e-05
1.41497e-05
1.41585e-05
1.41681e-05
1.41784e-05
1.41896e-05
1.42015e-05
1.4214e-05
1.42272e-05
1.4241e-05
1.42556e-05
1.4271e-05
1.42873e-05
1.43044e-05
1.43222e-05
1.43404e-05
1.4706e-05
1.47088e-05
1.47115e-05
1.47142e-05
1.47169e-05
1.47198e-05
1.47227e-05
1.47259e-05
1.47294e-05
1.47332e-05
1.47373e-05
1.47418e-05
1.47466e-05
1.47517e-05
1.47571e-05
1.47627e-05
1.47685e-05
1.47745e-05
1.47808e-05
1.47873e-05
1.47942e-05
1.48014e-05
1.48091e-05
1.48176e-05
1.48269e-05
1.48371e-05
1.48482e-05
1.48601e-05
1.48727e-05
1.48862e-05
1.49004e-05
1.49153e-05
1.49312e-05
1.49482e-05
1.49663e-05
1.49855e-05
1.50059e-05
1.50272e-05
1.49907e-05
1.49937e-05
1.49967e-05
1.49996e-05
1.50025e-05
1.50055e-05
1.50086e-05
1.50119e-05
1.50154e-05
1.50191e-05
1.50233e-05
1.50278e-05
1.50327e-05
1.50379e-05
1.50433e-05
1.5049e-05
1.50549e-05
1.50611e-05
1.50674e-05
1.50741e-05
1.5081e-05
1.50883e-05
1.50962e-05
1.51049e-05
1.51145e-05
1.5125e-05
1.51364e-05
1.51486e-05
1.51617e-05
1.51756e-05
1.51904e-05
1.5206e-05
1.52227e-05
1.52406e-05
1.52599e-05
1.52805e-05
1.53025e-05
1.53261e-05
1.49905e-05
1.49938e-05
1.49969e-05
1.5e-05
1.5003e-05
1.5006e-05
1.50091e-05
1.50124e-05
1.50158e-05
1.50195e-05
1.50236e-05
1.50281e-05
1.50329e-05
1.50381e-05
1.50435e-05
1.50491e-05
1.50549e-05
1.50609e-05
1.50672e-05
1.50737e-05
1.50805e-05
1.50878e-05
1.50957e-05
1.51044e-05
1.51139e-05
1.51244e-05
1.51358e-05
1.5148e-05
1.51611e-05
1.5175e-05
1.51899e-05
1.52057e-05
1.52227e-05
1.52409e-05
1.52605e-05
1.52816e-05
1.53045e-05
1.53291e-05
1.47089e-05
1.47122e-05
1.47152e-05
1.47182e-05
1.47212e-05
1.47242e-05
1.47274e-05
1.47307e-05
1.47343e-05
1.47383e-05
1.47426e-05
1.47474e-05
1.47523e-05
1.47575e-05
1.47628e-05
1.47683e-05
1.4774e-05
1.478e-05
1.47863e-05
1.4793e-05
1.48001e-05
1.48078e-05
1.48162e-05
1.48255e-05
1.48357e-05
1.48467e-05
1.48586e-05
1.48713e-05
1.4885e-05
1.48995e-05
1.49152e-05
1.4932e-05
1.49501e-05
1.49697e-05
1.4991e-05
1.50142e-05
1.50395e-05
1.40466e-05
1.40498e-05
1.40528e-05
1.40556e-05
1.40584e-05
1.40612e-05
1.40642e-05
1.40674e-05
1.40708e-05
1.40746e-05
1.40788e-05
1.40832e-05
1.40879e-05
1.40926e-05
1.40975e-05
1.41026e-05
1.41079e-05
1.41134e-05
1.41193e-05
1.41256e-05
1.41324e-05
1.41397e-05
1.41477e-05
1.41564e-05
1.41659e-05
1.41763e-05
1.41875e-05
1.41995e-05
1.42124e-05
1.42262e-05
1.4241e-05
1.4257e-05
1.42743e-05
1.4293e-05
1.43133e-05
1.43356e-05
1.43602e-05
1.27958e-05
1.27989e-05
1.28016e-05
1.28042e-05
1.28066e-05
1.28091e-05
1.28118e-05
1.28147e-05
1.28179e-05
1.28215e-05
1.28254e-05
1.28295e-05
1.28337e-05
1.2838e-05
1.28423e-05
1.28468e-05
1.28515e-05
1.28565e-05
1.28618e-05
1.28676e-05
1.28738e-05
1.28805e-05
1.28878e-05
1.28958e-05
1.29044e-05
1.29138e-05
1.29239e-05
1.29348e-05
1.29465e-05
1.29591e-05
1.29726e-05
1.29872e-05
1.30029e-05
1.302e-05
1.30386e-05
1.30591e-05
1.30818e-05
1.05191e-05
1.05218e-05
1.05241e-05
1.05261e-05
1.0528e-05
1.053e-05
1.05323e-05
1.05348e-05
1.05377e-05
1.05409e-05
1.05445e-05
1.05482e-05
1.0552e-05
1.05557e-05
1.05596e-05
1.05634e-05
1.05675e-05
1.05719e-05
1.05767e-05
1.05818e-05
1.05875e-05
1.05936e-05
1.06002e-05
1.06073e-05
1.0615e-05
1.06234e-05
1.06325e-05
1.06422e-05
1.06527e-05
1.06639e-05
1.0676e-05
1.06889e-05
1.0703e-05
1.07181e-05
1.07347e-05
1.07529e-05
1.07731e-05
5.97812e-06
5.97909e-06
5.98016e-06
5.98135e-06
5.98271e-06
5.98432e-06
5.98627e-06
5.98861e-06
5.99137e-06
5.99459e-06
5.99829e-06
6.00243e-06
6.00694e-06
6.01178e-06
6.01697e-06
6.02254e-06
6.02856e-06
6.03511e-06
6.04227e-06
6.05011e-06
6.05866e-06
6.06796e-06
6.07802e-06
6.08892e-06
6.1007e-06
6.11348e-06
6.12734e-06
6.14232e-06
6.15848e-06
6.1759e-06
6.1947e-06
6.21497e-06
6.23685e-06
6.26049e-06
6.28606e-06
6.31383e-06
6.34411e-06
6.36203e-06
6.36218e-06
6.3625e-06
6.36301e-06
6.36377e-06
6.36481e-06
6.36617e-06
6.36791e-06
6.37011e-06
6.37277e-06
6.37595e-06
6.3796e-06
6.38367e-06
6.38811e-06
6.3929e-06
6.39807e-06
6.40366e-06
6.40973e-06
6.41637e-06
6.42362e-06
6.43145e-06
6.43986e-06
6.44887e-06
6.45858e-06
6.4691e-06
6.48055e-06
6.49297e-06
6.50646e-06
6.52102e-06
6.53664e-06
6.55331e-06
6.57101e-06
6.58972e-06
6.60945e-06
6.63023e-06
6.65205e-06
6.67478e-06
6.69816e-06
1.14511e-05
1.14524e-05
1.14536e-05
1.14547e-05
1.1456e-05
1.14575e-05
1.14592e-05
1.14614e-05
1.1464e-05
1.14671e-05
1.14705e-05
1.1474e-05
1.14776e-05
1.14813e-05
1.14851e-05
1.14889e-05
1.14929e-05
1.14971e-05
1.15016e-05
1.15064e-05
1.15115e-05
1.15168e-05
1.15223e-05
1.15283e-05
1.15347e-05
1.15417e-05
1.15493e-05
1.15575e-05
1.15663e-05
1.15754e-05
1.15848e-05
1.15943e-05
1.16038e-05
1.16135e-05
1.16233e-05
1.16331e-05
1.16424e-05
1.16506e-05
1.39071e-05
1.3909e-05
1.39107e-05
1.39125e-05
1.39143e-05
1.39162e-05
1.39184e-05
1.39209e-05
1.39237e-05
1.39269e-05
1.39304e-05
1.39342e-05
1.3938e-05
1.39421e-05
1.39462e-05
1.39504e-05
1.39549e-05
1.39595e-05
1.39645e-05
1.39697e-05
1.39752e-05
1.39809e-05
1.3987e-05
1.39936e-05
1.40008e-05
1.40086e-05
1.4017e-05
1.40261e-05
1.40358e-05
1.40461e-05
1.40568e-05
1.40679e-05
1.40795e-05
1.40915e-05
1.41041e-05
1.4117e-05
1.41302e-05
1.41431e-05
1.52533e-05
1.52555e-05
1.52576e-05
1.52598e-05
1.5262e-05
1.52643e-05
1.52667e-05
1.52695e-05
1.52725e-05
1.52758e-05
1.52794e-05
1.52833e-05
1.52874e-05
1.52917e-05
1.52962e-05
1.53008e-05
1.53057e-05
1.53108e-05
1.53161e-05
1.53217e-05
1.53276e-05
1.53338e-05
1.53405e-05
1.53477e-05
1.53556e-05
1.53641e-05
1.53735e-05
1.53835e-05
1.53942e-05
1.54056e-05
1.54176e-05
1.54302e-05
1.54435e-05
1.54576e-05
1.54725e-05
1.54881e-05
1.55044e-05
1.55211e-05
1.59732e-05
1.59757e-05
1.59781e-05
1.59806e-05
1.5983e-05
1.59856e-05
1.59882e-05
1.59911e-05
1.59942e-05
1.59976e-05
1.60013e-05
1.60053e-05
1.60095e-05
1.6014e-05
1.60188e-05
1.60237e-05
1.60288e-05
1.60342e-05
1.60398e-05
1.60456e-05
1.60518e-05
1.60583e-05
1.60653e-05
1.60729e-05
1.60813e-05
1.60904e-05
1.61004e-05
1.61111e-05
1.61226e-05
1.61348e-05
1.61477e-05
1.61615e-05
1.61761e-05
1.61917e-05
1.62084e-05
1.62262e-05
1.62451e-05
1.6265e-05
1.62862e-05
1.62889e-05
1.62916e-05
1.62942e-05
1.62968e-05
1.62995e-05
1.63023e-05
1.63052e-05
1.63084e-05
1.63118e-05
1.63154e-05
1.63195e-05
1.63238e-05
1.63284e-05
1.63332e-05
1.63382e-05
1.63434e-05
1.63489e-05
1.63546e-05
1.63605e-05
1.63667e-05
1.63734e-05
1.63805e-05
1.63884e-05
1.6397e-05
1.64065e-05
1.64167e-05
1.64278e-05
1.64396e-05
1.64523e-05
1.64658e-05
1.64802e-05
1.64957e-05
1.65123e-05
1.65301e-05
1.65494e-05
1.657e-05
1.65922e-05
1.6286e-05
1.6289e-05
1.62918e-05
1.62945e-05
1.62972e-05
1.62999e-05
1.63028e-05
1.63057e-05
1.63088e-05
1.63121e-05
1.63157e-05
1.63197e-05
1.6324e-05
1.63285e-05
1.63333e-05
1.63382e-05
1.63434e-05
1.63487e-05
1.63543e-05
1.63602e-05
1.63664e-05
1.6373e-05
1.63801e-05
1.63879e-05
1.63966e-05
1.6406e-05
1.64162e-05
1.64273e-05
1.64391e-05
1.64519e-05
1.64655e-05
1.64801e-05
1.64958e-05
1.65127e-05
1.6531e-05
1.65508e-05
1.65722e-05
1.65955e-05
1.59758e-05
1.59787e-05
1.59815e-05
1.59842e-05
1.59868e-05
1.59896e-05
1.59924e-05
1.59954e-05
1.59986e-05
1.60021e-05
1.6006e-05
1.60101e-05
1.60145e-05
1.60191e-05
1.60238e-05
1.60287e-05
1.60338e-05
1.60391e-05
1.60448e-05
1.60508e-05
1.60572e-05
1.60641e-05
1.60717e-05
1.60801e-05
1.60892e-05
1.60991e-05
1.61099e-05
1.61214e-05
1.61339e-05
1.61472e-05
1.61616e-05
1.61772e-05
1.6194e-05
1.62123e-05
1.62322e-05
1.62541e-05
1.62781e-05
1.52556e-05
1.52585e-05
1.52612e-05
1.52637e-05
1.52662e-05
1.52688e-05
1.52714e-05
1.52742e-05
1.52773e-05
1.52807e-05
1.52844e-05
1.52884e-05
1.52925e-05
1.52967e-05
1.5301e-05
1.53055e-05
1.53102e-05
1.53152e-05
1.53205e-05
1.53261e-05
1.53321e-05
1.53387e-05
1.53459e-05
1.53538e-05
1.53623e-05
1.53716e-05
1.53817e-05
1.53926e-05
1.54043e-05
1.54169e-05
1.54305e-05
1.54453e-05
1.54612e-05
1.54787e-05
1.54977e-05
1.55187e-05
1.5542e-05
1.39091e-05
1.39119e-05
1.39143e-05
1.39166e-05
1.39188e-05
1.3921e-05
1.39234e-05
1.3926e-05
1.39289e-05
1.39321e-05
1.39356e-05
1.39392e-05
1.3943e-05
1.39468e-05
1.39507e-05
1.39547e-05
1.39589e-05
1.39633e-05
1.39681e-05
1.39733e-05
1.39789e-05
1.39849e-05
1.39915e-05
1.39987e-05
1.40064e-05
1.40149e-05
1.40241e-05
1.4034e-05
1.40446e-05
1.40561e-05
1.40685e-05
1.4082e-05
1.40965e-05
1.41124e-05
1.41298e-05
1.41491e-05
1.41705e-05
1.14525e-05
1.14549e-05
1.1457e-05
1.14587e-05
1.14604e-05
1.14622e-05
1.14642e-05
1.14666e-05
1.14692e-05
1.14722e-05
1.14755e-05
1.14789e-05
1.14823e-05
1.14858e-05
1.14893e-05
1.14928e-05
1.14965e-05
1.15004e-05
1.15047e-05
1.15094e-05
1.15146e-05
1.15202e-05
1.15262e-05
1.15327e-05
1.15398e-05
1.15474e-05
1.15557e-05
1.15647e-05
1.15744e-05
1.15848e-05
1.1596e-05
1.16081e-05
1.16212e-05
1.16354e-05
1.1651e-05
1.16683e-05
1.16876e-05
6.36136e-06
6.36227e-06
6.36327e-06
6.36438e-06
6.36567e-06
6.36721e-06
6.36907e-06
6.37129e-06
6.37395e-06
6.37709e-06
6.38072e-06
6.38477e-06
6.38918e-06
6.3939e-06
6.39894e-06
6.40434e-06
6.41018e-06
6.41654e-06
6.42352e-06
6.43118e-06
6.43955e-06
6.44866e-06
6.45852e-06
6.46918e-06
6.48071e-06
6.49323e-06
6.5068e-06
6.52149e-06
6.53736e-06
6.55449e-06
6.57298e-06
6.59295e-06
6.61452e-06
6.63784e-06
6.66311e-06
6.6906e-06
6.72063e-06
6.62931e-06
6.62931e-06
6.62948e-06
6.62987e-06
6.63051e-06
6.63144e-06
6.6327e-06
6.63436e-06
6.63647e-06
6.63906e-06
6.6421e-06
6.6456e-06
6.64953e-06
6.65381e-06
6.65843e-06
6.66339e-06
6.66876e-06
6.6746e-06
6.68099e-06
6.68798e-06
6.69555e-06
6.70368e-06
6.7124e-06
6.72182e-06
6.7321e-06
6.74329e-06
6.75546e-06
6.76866e-06
6.78291e-06
6.7982e-06
6.81452e-06
6.83181e-06
6.85008e-06
6.86935e-06
6.88964e-06
6.91095e-06
6.93322e-06
6.95621e-06
1.21265e-05
1.21274e-05
1.21282e-05
1.21291e-05
1.21301e-05
1.21313e-05
1.21328e-05
1.21347e-05
1.21372e-05
1.21401e-05
1.21433e-05
1.21466e-05
1.21499e-05
1.21532e-05
1.21565e-05
1.21599e-05
1.21635e-05
1.21672e-05
1.21712e-05
1.21755e-05
1.21801e-05
1.21849e-05
1.21899e-05
1.21951e-05
1.22009e-05
1.22071e-05
1.2214e-05
1.22215e-05
1.22294e-05
1.22377e-05
1.22462e-05
1.22547e-05
1.22632e-05
1.22717e-05
1.22802e-05
1.22887e-05
1.22967e-05
1.23037e-05
1.47278e-05
1.47293e-05
1.47308e-05
1.47322e-05
1.47338e-05
1.47355e-05
1.47374e-05
1.47396e-05
1.47422e-05
1.47451e-05
1.47482e-05
1.47515e-05
1.4755e-05
1.47585e-05
1.47622e-05
1.47659e-05
1.47698e-05
1.47739e-05
1.47782e-05
1.47829e-05
1.47877e-05
1.47929e-05
1.47983e-05
1.48042e-05
1.48106e-05
1.48175e-05
1.48251e-05
1.48334e-05
1.48421e-05
1.48514e-05
1.48611e-05
1.48711e-05
1.48816e-05
1.48925e-05
1.49038e-05
1.49155e-05
1.49274e-05
1.49392e-05
1.61517e-05
1.61536e-05
1.61554e-05
1.61573e-05
1.61592e-05
1.61612e-05
1.61634e-05
1.61658e-05
1.61685e-05
1.61714e-05
1.61746e-05
1.6178e-05
1.61817e-05
1.61854e-05
1.61894e-05
1.61934e-05
1.61977e-05
1.62021e-05
1.62069e-05
1.62118e-05
1.62171e-05
1.62226e-05
1.62286e-05
1.6235e-05
1.6242e-05
1.62497e-05
1.62581e-05
1.62671e-05
1.62767e-05
1.6287e-05
1.62979e-05
1.63094e-05
1.63215e-05
1.63344e-05
1.6348e-05
1.63624e-05
1.63774e-05
1.63928e-05
1.69185e-05
1.69207e-05
1.69228e-05
1.69249e-05
1.69271e-05
1.69293e-05
1.69317e-05
1.69342e-05
1.6937e-05
1.694e-05
1.69432e-05
1.69467e-05
1.69504e-05
1.69544e-05
1.69585e-05
1.69628e-05
1.69673e-05
1.6972e-05
1.6977e-05
1.69822e-05
1.69877e-05
1.69935e-05
1.69998e-05
1.70066e-05
1.70141e-05
1.70223e-05
1.70312e-05
1.70409e-05
1.70512e-05
1.70623e-05
1.70741e-05
1.70867e-05
1.71001e-05
1.71145e-05
1.71299e-05
1.71464e-05
1.7164e-05
1.71826e-05
1.72545e-05
1.72569e-05
1.72592e-05
1.72615e-05
1.72639e-05