/*--------------------------------*- C++ -*----------------------------------*\
| =========                 |                                                 |
| \\      /  F ield         | OpenFOAM: The Open Source CFD Toolbox           |
|  \\    /   O peration     | Version:  2.3.1                                 |
|   \\  /    A nd           | Web:      www.OpenFOAM.org                      |
|    \\/     M anipulation  |                                                 |
\*---------------------------------------------------------------------------*/
FoamFile
{
    version     2.0;
    format      ascii;
    class       volScalarField;
    location    "20";
    object      k_0;
}
// * * * * * * * * * * * * * * * * * * * * * * * * * * * * * * * * * * * * * //

dimensions      [0 2 -2 0 0 0 0];

internalField   nonuniform List<scalar> 
37692
(
2.92329e-06
2.92296e-06
2.92293e-06
2.92318e-06
2.92375e-06
2.92461e-06
2.92579e-06
2.92736e-06
2.92937e-06
2.9319e-06
2.93495e-06
2.93854e-06
2.94266e-06
2.94732e-06
2.95254e-06
2.95832e-06
2.96467e-06
2.97162e-06
2.97925e-06
2.9876e-06
2.9967e-06
3.00657e-06
3.01724e-06
3.02877e-06
3.04126e-06
3.05479e-06
3.06945e-06
3.08529e-06
3.10237e-06
3.1207e-06
3.14029e-06
3.1611e-06
3.18309e-06
3.20621e-06
3.2304e-06
3.25551e-06
3.28127e-06
3.30726e-06
4.34126e-06
4.34127e-06
4.34153e-06
4.3421e-06
4.34304e-06
4.34435e-06
4.34609e-06
4.34838e-06
4.3513e-06
4.35489e-06
4.35915e-06
4.36404e-06
4.36956e-06
4.37574e-06
4.38257e-06
4.39004e-06
4.39819e-06
4.40708e-06
4.4168e-06
4.42741e-06
4.43891e-06
4.45129e-06
4.4646e-06
4.47898e-06
4.49456e-06
4.51145e-06
4.52972e-06
4.54943e-06
4.57062e-06
4.59329e-06
4.61741e-06
4.64289e-06
4.6697e-06
4.69781e-06
4.72713e-06
4.75746e-06
4.78835e-06
4.81898e-06
5.0679e-06
5.06808e-06
5.06858e-06
5.06942e-06
5.07063e-06
5.07224e-06
5.07431e-06
5.07693e-06
5.08018e-06
5.0841e-06
5.08867e-06
5.09387e-06
5.09973e-06
5.10626e-06
5.11345e-06
5.12127e-06
5.12977e-06
5.139e-06
5.14905e-06
5.15997e-06
5.1717e-06
5.18427e-06
5.19776e-06
5.21236e-06
5.22823e-06
5.24546e-06
5.2641e-06
5.2842e-06
5.30578e-06
5.32884e-06
5.35331e-06
5.37914e-06
5.40633e-06
5.43491e-06
5.46485e-06
5.49598e-06
5.52793e-06
5.56007e-06
5.45763e-06
5.45804e-06
5.45874e-06
5.45978e-06
5.46121e-06
5.46305e-06
5.46536e-06
5.46819e-06
5.47161e-06
5.47566e-06
5.48034e-06
5.48568e-06
5.49172e-06
5.49848e-06
5.5059e-06
5.51398e-06
5.52272e-06
5.53218e-06
5.54243e-06
5.55346e-06
5.56523e-06
5.57779e-06
5.59131e-06
5.606e-06
5.62203e-06
5.63948e-06
5.65839e-06
5.67879e-06
5.70068e-06
5.72404e-06
5.74881e-06
5.77496e-06
5.80257e-06
5.83172e-06
5.86244e-06
5.89464e-06
5.92809e-06
5.96241e-06
5.65131e-06
5.65191e-06
5.65276e-06
5.65396e-06
5.65555e-06
5.65758e-06
5.66006e-06
5.663e-06
5.66648e-06
5.67054e-06
5.67523e-06
5.68063e-06
5.68676e-06
5.69364e-06
5.70122e-06
5.70945e-06
5.71835e-06
5.72794e-06
5.73826e-06
5.74929e-06
5.76099e-06
5.77348e-06
5.78697e-06
5.8017e-06
5.81782e-06
5.83542e-06
5.85452e-06
5.87514e-06
5.89726e-06
5.92086e-06
5.94588e-06
5.97237e-06
6.00044e-06
6.0302e-06
6.06174e-06
6.09506e-06
6.13005e-06
6.16657e-06
5.72934e-06
5.73009e-06
5.73108e-06
5.73241e-06
5.73414e-06
5.7363e-06
5.73888e-06
5.74188e-06
5.74534e-06
5.74935e-06
5.75401e-06
5.75941e-06
5.76559e-06
5.77253e-06
5.78016e-06
5.78845e-06
5.79739e-06
5.80701e-06
5.81732e-06
5.82828e-06
5.83991e-06
5.85234e-06
5.86581e-06
5.88056e-06
5.89673e-06
5.91441e-06
5.9336e-06
5.95433e-06
5.97657e-06
6.0003e-06
6.02553e-06
6.05233e-06
6.08084e-06
6.11119e-06
6.14348e-06
6.1778e-06
6.21421e-06
6.25275e-06
5.72908e-06
5.72997e-06
5.73111e-06
5.73257e-06
5.73441e-06
5.73666e-06
5.73929e-06
5.74229e-06
5.74572e-06
5.74968e-06
5.75431e-06
5.75971e-06
5.76589e-06
5.77281e-06
5.78038e-06
5.7886e-06
5.79746e-06
5.80699e-06
5.81722e-06
5.82811e-06
5.83969e-06
5.8521e-06
5.86557e-06
5.88031e-06
5.89647e-06
5.91413e-06
5.93332e-06
5.95403e-06
5.97627e-06
6.00006e-06
6.02544e-06
6.05251e-06
6.08141e-06
6.11224e-06
6.14516e-06
6.18031e-06
6.21787e-06
6.25805e-06
5.65155e-06
5.6528e-06
5.65435e-06
5.65624e-06
5.6585e-06
5.66112e-06
5.6641e-06
5.6675e-06
5.67143e-06
5.67605e-06
5.68144e-06
5.6876e-06
5.69443e-06
5.70187e-06
5.70992e-06
5.71861e-06
5.728e-06
5.73812e-06
5.74896e-06
5.76052e-06
5.77295e-06
5.78644e-06
5.80118e-06
5.8173e-06
5.8349e-06
5.85401e-06
5.87467e-06
5.89688e-06
5.92068e-06
5.94618e-06
5.97349e-06
6.00273e-06
6.03403e-06
6.06754e-06
6.1035e-06
6.14218e-06
6.18389e-06
5.45742e-06
5.45869e-06
5.46024e-06
5.46209e-06
5.46427e-06
5.46681e-06
5.46974e-06
5.47311e-06
5.47702e-06
5.48161e-06
5.48696e-06
5.49303e-06
5.49971e-06
5.50696e-06
5.51478e-06
5.52324e-06
5.53243e-06
5.5424e-06
5.55314e-06
5.56468e-06
5.57711e-06
5.5906e-06
5.6053e-06
5.62134e-06
5.63881e-06
5.65778e-06
5.67831e-06
5.70041e-06
5.72416e-06
5.74967e-06
5.77706e-06
5.80647e-06
5.83804e-06
5.87196e-06
5.90846e-06
5.9479e-06
5.99065e-06
5.0671e-06
5.06827e-06
5.06969e-06
5.07138e-06
5.07339e-06
5.07577e-06
5.07858e-06
5.08185e-06
5.08569e-06
5.09019e-06
5.09541e-06
5.1013e-06
5.10778e-06
5.11481e-06
5.1224e-06
5.13063e-06
5.13959e-06
5.14935e-06
5.15994e-06
5.1714e-06
5.1838e-06
5.19726e-06
5.21189e-06
5.22779e-06
5.24508e-06
5.26384e-06
5.28415e-06
5.30608e-06
5.32968e-06
5.35507e-06
5.3824e-06
5.41181e-06
5.44347e-06
5.47756e-06
5.51435e-06
5.5542e-06
5.5975e-06
4.33977e-06
4.34072e-06
4.34188e-06
4.34328e-06
4.345e-06
4.34711e-06
4.34966e-06
4.35271e-06
4.35632e-06
4.36058e-06
4.36551e-06
4.37111e-06
4.37732e-06
4.38411e-06
4.39147e-06
4.39947e-06
4.40818e-06
4.41768e-06
4.42804e-06
4.4393e-06
4.45154e-06
4.46485e-06
4.4793e-06
4.49496e-06
4.51196e-06
4.53039e-06
4.55036e-06
4.57195e-06
4.59524e-06
4.62033e-06
4.64737e-06
4.67653e-06
4.70797e-06
4.7419e-06
4.77856e-06
4.8183e-06
4.86153e-06
2.92152e-06
2.92176e-06
2.92243e-06
2.92334e-06
2.92451e-06
2.92598e-06
2.9278e-06
2.93001e-06
2.93266e-06
2.93579e-06
2.93946e-06
2.94368e-06
2.94846e-06
2.95376e-06
2.9596e-06
2.96598e-06
2.97293e-06
2.98051e-06
2.98878e-06
2.99778e-06
3.00758e-06
3.01823e-06
3.0298e-06
3.04234e-06
3.05594e-06
3.07068e-06
3.08667e-06
3.10399e-06
3.1227e-06
3.1429e-06
3.16468e-06
3.18818e-06
3.21353e-06
3.24088e-06
3.27043e-06
3.30241e-06
3.33712e-06
4.5602e-06
4.56046e-06
4.56095e-06
4.56166e-06
4.5626e-06
4.56378e-06
4.56522e-06
4.567e-06
4.5692e-06
4.57184e-06
4.57492e-06
4.57842e-06
4.58234e-06
4.58668e-06
4.59144e-06
4.59663e-06
4.60226e-06
4.60841e-06
4.61512e-06
4.62245e-06
4.63041e-06
4.63899e-06
4.64821e-06
4.65817e-06
4.66895e-06
4.68065e-06
4.69331e-06
4.70699e-06
4.72172e-06
4.73751e-06
4.75435e-06
4.7722e-06
4.79105e-06
4.8109e-06
4.83175e-06
4.85353e-06
4.87621e-06
4.89948e-06
7.30556e-06
7.30742e-06
7.30917e-06
7.31094e-06
7.31278e-06
7.31471e-06
7.31684e-06
7.3193e-06
7.32222e-06
7.32561e-06
7.32936e-06
7.33337e-06
7.33761e-06
7.34207e-06
7.34673e-06
7.35157e-06
7.35663e-06
7.36201e-06
7.36782e-06
7.37406e-06
7.38068e-06
7.38763e-06
7.39498e-06
7.40285e-06
7.4114e-06
7.42066e-06
7.43065e-06
7.44138e-06
7.45281e-06
7.46491e-06
7.47757e-06
7.49073e-06
7.5044e-06
7.51866e-06
7.53354e-06
7.54896e-06
7.56447e-06
7.57946e-06
8.9555e-06
8.95789e-06
8.96023e-06
8.9626e-06
8.96501e-06
8.9675e-06
8.97018e-06
8.97322e-06
8.97674e-06
8.98073e-06
8.9851e-06
8.9898e-06
8.99481e-06
9.00011e-06
9.00565e-06
9.01141e-06
9.01741e-06
9.02375e-06
9.03053e-06
9.03772e-06
9.04527e-06
9.05316e-06
9.06154e-06
9.0706e-06
9.08047e-06
9.09121e-06
9.10279e-06
9.1152e-06
9.1284e-06
9.14234e-06
9.15691e-06
9.17208e-06
9.18791e-06
9.20455e-06
9.22204e-06
9.24033e-06
9.25915e-06
9.27809e-06
9.85822e-06
9.86106e-06
9.86384e-06
9.86662e-06
9.86942e-06
9.8723e-06
9.87537e-06
9.87876e-06
9.88258e-06
9.88684e-06
9.89152e-06
9.89659e-06
9.90206e-06
9.9079e-06
9.91403e-06
9.9204e-06
9.92704e-06
9.93402e-06
9.94137e-06
9.94908e-06
9.95709e-06
9.96547e-06
9.97445e-06
9.98426e-06
9.99503e-06
1.00068e-05
1.00195e-05
1.00331e-05
1.00476e-05
1.00628e-05
1.00788e-05
1.00954e-05
1.01129e-05
1.01314e-05
1.01511e-05
1.01719e-05
1.01935e-05
1.02158e-05
1.03197e-05
1.03229e-05
1.0326e-05
1.03291e-05
1.03322e-05
1.03353e-05
1.03386e-05
1.03422e-05
1.03461e-05
1.03504e-05
1.03552e-05
1.03605e-05
1.03662e-05
1.03723e-05
1.03788e-05
1.03855e-05
1.03925e-05
1.03998e-05
1.04074e-05
1.04153e-05
1.04235e-05
1.0432e-05
1.04413e-05
1.04515e-05
1.04628e-05
1.04751e-05
1.04885e-05
1.05028e-05
1.05181e-05
1.05341e-05
1.05509e-05
1.05685e-05
1.05871e-05
1.06069e-05
1.06281e-05
1.06505e-05
1.06743e-05
1.06992e-05
1.05113e-05
1.05149e-05
1.05182e-05
1.05215e-05
1.05247e-05
1.0528e-05
1.05314e-05
1.0535e-05
1.05389e-05
1.05432e-05
1.0548e-05
1.05533e-05
1.05591e-05
1.05654e-05
1.05719e-05
1.05788e-05
1.05859e-05
1.05933e-05
1.06009e-05
1.06088e-05
1.06169e-05
1.06255e-05
1.06349e-05
1.06453e-05
1.06568e-05
1.06694e-05
1.06831e-05
1.06978e-05
1.07133e-05
1.07297e-05
1.07469e-05
1.07651e-05
1.07844e-05
1.0805e-05
1.0827e-05
1.08505e-05
1.08756e-05
1.09022e-05
1.05112e-05
1.0515e-05
1.05186e-05
1.0522e-05
1.05253e-05
1.05287e-05
1.05321e-05
1.05357e-05
1.05395e-05
1.05437e-05
1.05484e-05
1.05537e-05
1.05594e-05
1.05656e-05
1.05721e-05
1.05788e-05
1.05858e-05
1.0593e-05
1.06005e-05
1.06083e-05
1.06163e-05
1.06249e-05
1.06343e-05
1.06446e-05
1.06561e-05
1.06686e-05
1.06823e-05
1.06969e-05
1.07124e-05
1.07287e-05
1.07461e-05
1.07644e-05
1.0784e-05
1.08048e-05
1.08272e-05
1.08511e-05
1.08767e-05
1.09042e-05
1.03233e-05
1.03271e-05
1.03305e-05
1.03338e-05
1.03371e-05
1.03404e-05
1.03439e-05
1.03476e-05
1.03517e-05
1.03563e-05
1.03615e-05
1.03671e-05
1.03731e-05
1.03792e-05
1.03856e-05
1.03922e-05
1.03992e-05
1.04065e-05
1.0414e-05
1.0422e-05
1.04304e-05
1.04396e-05
1.04498e-05
1.0461e-05
1.04733e-05
1.04866e-05
1.05008e-05
1.0516e-05
1.05322e-05
1.05493e-05
1.05676e-05
1.05871e-05
1.06079e-05
1.06303e-05
1.06543e-05
1.06803e-05
1.07084e-05
9.86155e-06
9.86529e-06
9.86865e-06
9.87176e-06
9.87481e-06
9.87796e-06
9.88128e-06
9.88483e-06
9.88876e-06
9.8932e-06
9.89815e-06
9.9035e-06
9.90907e-06
9.91478e-06
9.92064e-06
9.92676e-06
9.93322e-06
9.94008e-06
9.9473e-06
9.95494e-06
9.96312e-06
9.97201e-06
9.98176e-06
9.99245e-06
1.00041e-05
1.00168e-05
1.00303e-05
1.00448e-05
1.00603e-05
1.00768e-05
1.00944e-05
1.01133e-05
1.01335e-05
1.01551e-05
1.01785e-05
1.02038e-05
1.02314e-05
8.9583e-06
8.96178e-06
8.96482e-06
8.96757e-06
8.97024e-06
8.97304e-06
8.97604e-06
8.97933e-06
8.98298e-06
8.98709e-06
8.99164e-06
8.9965e-06
9.00152e-06
9.00663e-06
9.01184e-06
9.01728e-06
9.02306e-06
9.02926e-06
9.03588e-06
9.04297e-06
9.05061e-06
9.0589e-06
9.06793e-06
9.07775e-06
9.08842e-06
9.09998e-06
9.11243e-06
9.12576e-06
9.14e-06
9.15521e-06
9.17151e-06
9.18898e-06
9.20773e-06
9.22789e-06
9.24964e-06
9.27327e-06
9.29905e-06
7.3075e-06
7.31041e-06
7.31284e-06
7.31498e-06
7.31706e-06
7.31927e-06
7.32174e-06
7.3245e-06
7.32761e-06
7.33111e-06
7.33498e-06
7.33911e-06
7.34338e-06
7.34772e-06
7.35216e-06
7.35676e-06
7.36167e-06
7.36697e-06
7.37271e-06
7.37893e-06
7.38568e-06
7.393e-06
7.40092e-06
7.40947e-06
7.41872e-06
7.42874e-06
7.43955e-06
7.45116e-06
7.46357e-06
7.47684e-06
7.49106e-06
7.50634e-06
7.52275e-06
7.5404e-06
7.55945e-06
7.58012e-06
7.60268e-06
4.55977e-06
4.5607e-06
4.56177e-06
4.56296e-06
4.56433e-06
4.56595e-06
4.56787e-06
4.57012e-06
4.57276e-06
4.57583e-06
4.57936e-06
4.58333e-06
4.58771e-06
4.59248e-06
4.59763e-06
4.60319e-06
4.60922e-06
4.6158e-06
4.62296e-06
4.63076e-06
4.63925e-06
4.64849e-06
4.65849e-06
4.66931e-06
4.68104e-06
4.69375e-06
4.70752e-06
4.7224e-06
4.73846e-06
4.75577e-06
4.77441e-06
4.79451e-06
4.81616e-06
4.83951e-06
4.86469e-06
4.89194e-06
4.92148e-06
5.41704e-06
5.41732e-06
5.41779e-06
5.41848e-06
5.41939e-06
5.42056e-06
5.42201e-06
5.42384e-06
5.42612e-06
5.42888e-06
5.43211e-06
5.43576e-06
5.43983e-06
5.44432e-06
5.44921e-06
5.45451e-06
5.46024e-06
5.46648e-06
5.47328e-06
5.48071e-06
5.48874e-06
5.49738e-06
5.50665e-06
5.51665e-06
5.52749e-06
5.53923e-06
5.55196e-06
5.5657e-06
5.58049e-06
5.59634e-06
5.6132e-06
5.63103e-06
5.64983e-06
5.6696e-06
5.69047e-06
5.7124e-06
5.73522e-06
5.75865e-06
9.21279e-06
9.2146e-06
9.21629e-06
9.21796e-06
9.2197e-06
9.22155e-06
9.22363e-06
9.22607e-06
9.22899e-06
9.23235e-06
9.23605e-06
9.23998e-06
9.24408e-06
9.24835e-06
9.25275e-06
9.25728e-06
9.26198e-06
9.26695e-06
9.27228e-06
9.27798e-06
9.284e-06
9.29028e-06
9.2969e-06
9.30398e-06
9.31164e-06
9.31997e-06
9.32896e-06
9.33862e-06
9.3489e-06
9.35974e-06
9.37102e-06
9.38265e-06
9.39463e-06
9.40699e-06
9.41963e-06
9.43242e-06
9.44497e-06
9.45659e-06
1.12497e-05
1.1252e-05
1.12542e-05
1.12564e-05
1.12587e-05
1.12611e-05
1.12637e-05
1.12667e-05
1.12701e-05
1.12739e-05
1.12781e-05
1.12825e-05
1.12873e-05
1.12922e-05
1.12973e-05
1.13026e-05
1.13081e-05
1.13139e-05
1.132e-05
1.13265e-05
1.13333e-05
1.13404e-05
1.13479e-05
1.1356e-05
1.13648e-05
1.13744e-05
1.13848e-05
1.13959e-05
1.14077e-05
1.14202e-05
1.14332e-05
1.14467e-05
1.14608e-05
1.14755e-05
1.14909e-05
1.15069e-05
1.15232e-05
1.15395e-05
1.23695e-05
1.23722e-05
1.23748e-05
1.23774e-05
1.23801e-05
1.23829e-05
1.23859e-05
1.23892e-05
1.23929e-05
1.23969e-05
1.24014e-05
1.24061e-05
1.24113e-05
1.24167e-05
1.24224e-05
1.24282e-05
1.24343e-05
1.24407e-05
1.24474e-05
1.24544e-05
1.24617e-05
1.24693e-05
1.24775e-05
1.24864e-05
1.24961e-05
1.25067e-05
1.25183e-05
1.25306e-05
1.25437e-05
1.25575e-05
1.2572e-05
1.25872e-05
1.26031e-05
1.26199e-05
1.26377e-05
1.26565e-05
1.2676e-05
1.26961e-05
1.29538e-05
1.29569e-05
1.29598e-05
1.29627e-05
1.29657e-05
1.29688e-05
1.2972e-05
1.29755e-05
1.29793e-05
1.29834e-05
1.2988e-05
1.29929e-05
1.29983e-05
1.3004e-05
1.301e-05
1.30162e-05
1.30227e-05
1.30294e-05
1.30364e-05
1.30436e-05
1.30511e-05
1.3059e-05
1.30675e-05
1.30769e-05
1.30872e-05
1.30985e-05
1.31107e-05
1.31238e-05
1.31378e-05
1.31525e-05
1.3168e-05
1.31843e-05
1.32015e-05
1.32198e-05
1.32394e-05
1.32601e-05
1.32821e-05
1.33052e-05
1.32014e-05
1.32047e-05
1.32079e-05
1.3211e-05
1.32142e-05
1.32174e-05
1.32208e-05
1.32243e-05
1.32281e-05
1.32322e-05
1.32368e-05
1.32418e-05
1.32472e-05
1.32531e-05
1.32592e-05
1.32655e-05
1.32721e-05
1.32789e-05
1.3286e-05
1.32932e-05
1.33008e-05
1.33088e-05
1.33175e-05
1.3327e-05
1.33376e-05
1.33492e-05
1.33618e-05
1.33752e-05
1.33896e-05
1.34047e-05
1.34207e-05
1.34377e-05
1.34557e-05
1.34749e-05
1.34955e-05
1.35176e-05
1.35411e-05
1.35662e-05
1.32012e-05
1.32048e-05
1.32082e-05
1.32115e-05
1.32147e-05
1.3218e-05
1.32214e-05
1.32249e-05
1.32286e-05
1.32327e-05
1.32372e-05
1.32421e-05
1.32475e-05
1.32533e-05
1.32593e-05
1.32655e-05
1.3272e-05
1.32787e-05
1.32856e-05
1.32928e-05
1.33003e-05
1.33082e-05
1.33169e-05
1.33264e-05
1.33369e-05
1.33485e-05
1.3361e-05
1.33745e-05
1.33888e-05
1.3404e-05
1.34201e-05
1.34372e-05
1.34554e-05
1.3475e-05
1.34959e-05
1.35184e-05
1.35426e-05
1.35687e-05
1.29571e-05
1.29606e-05
1.2964e-05
1.29672e-05
1.29704e-05
1.29737e-05
1.29771e-05
1.29807e-05
1.29847e-05
1.2989e-05
1.29939e-05
1.29991e-05
1.30047e-05
1.30104e-05
1.30163e-05
1.30224e-05
1.30288e-05
1.30355e-05
1.30424e-05
1.30497e-05
1.30575e-05
1.3066e-05
1.30753e-05
1.30856e-05
1.30968e-05
1.3109e-05
1.31221e-05
1.3136e-05
1.31509e-05
1.31668e-05
1.31837e-05
1.32018e-05
1.32213e-05
1.32422e-05
1.32648e-05
1.32894e-05
1.33161e-05
1.23724e-05
1.2376e-05
1.23792e-05
1.23823e-05
1.23853e-05
1.23884e-05
1.23916e-05
1.2395e-05
1.23988e-05
1.2403e-05
1.24076e-05
1.24126e-05
1.24178e-05
1.2423e-05
1.24285e-05
1.24341e-05
1.244e-05
1.24462e-05
1.24527e-05
1.24597e-05
1.24671e-05
1.24752e-05
1.2484e-05
1.24937e-05
1.25043e-05
1.25157e-05
1.25281e-05
1.25413e-05
1.25554e-05
1.25705e-05
1.25866e-05
1.26039e-05
1.26225e-05
1.26426e-05
1.26644e-05
1.26881e-05
1.2714e-05
1.12522e-05
1.12555e-05
1.12585e-05
1.12612e-05
1.12639e-05
1.12666e-05
1.12695e-05
1.12727e-05
1.12761e-05
1.128e-05
1.12843e-05
1.12888e-05
1.12935e-05
1.12982e-05
1.1303e-05
1.1308e-05
1.13132e-05
1.13187e-05
1.13247e-05
1.1331e-05
1.13379e-05
1.13453e-05
1.13534e-05
1.13622e-05
1.13717e-05
1.13821e-05
1.13933e-05
1.14053e-05
1.14181e-05
1.14318e-05
1.14465e-05
1.14624e-05
1.14794e-05
1.14978e-05
1.15177e-05
1.15395e-05
1.15634e-05
9.21455e-06
9.21743e-06
9.21988e-06
9.22203e-06
9.22411e-06
9.2263e-06
9.22872e-06
9.23144e-06
9.23448e-06
9.23788e-06
9.24162e-06
9.24558e-06
9.24963e-06
9.2537e-06
9.2578e-06
9.26202e-06
9.26646e-06
9.27124e-06
9.2764e-06
9.28201e-06
9.28811e-06
9.29471e-06
9.30186e-06
9.30957e-06
9.31792e-06
9.32696e-06
9.33672e-06
9.34722e-06
9.35844e-06
9.37045e-06
9.38333e-06
9.39717e-06
9.41207e-06
9.42815e-06
9.44559e-06
9.46463e-06
9.4856e-06
5.41656e-06
5.41752e-06
5.41862e-06
5.41984e-06
5.42124e-06
5.42289e-06
5.42486e-06
5.4272e-06
5.42995e-06
5.43315e-06
5.43681e-06
5.44091e-06
5.44541e-06
5.45027e-06
5.45548e-06
5.46109e-06
5.46716e-06
5.47377e-06
5.48098e-06
5.48884e-06
5.49741e-06
5.50672e-06
5.5168e-06
5.52772e-06
5.53954e-06
5.55235e-06
5.56623e-06
5.58123e-06
5.59741e-06
5.61484e-06
5.63363e-06
5.65388e-06
5.67573e-06
5.69929e-06
5.72475e-06
5.75235e-06
5.78237e-06
5.97917e-06
5.97942e-06
5.97983e-06
5.98044e-06
5.9813e-06
5.98242e-06
5.98384e-06
5.98564e-06
5.9879e-06
5.99068e-06
5.99396e-06
5.99767e-06
6.00179e-06
6.00631e-06
6.01122e-06
6.01653e-06
6.02226e-06
6.02848e-06
6.03528e-06
6.0427e-06
6.05071e-06
6.05932e-06
6.06855e-06
6.0785e-06
6.08927e-06
6.10096e-06
6.11364e-06
6.12734e-06
6.1421e-06
6.1579e-06
6.17471e-06
6.19255e-06
6.21142e-06
6.23136e-06
6.25237e-06
6.27444e-06
6.29742e-06
6.32101e-06
1.05183e-05
1.05199e-05
1.05214e-05
1.05228e-05
1.05244e-05
1.05261e-05
1.0528e-05
1.05303e-05
1.05331e-05
1.05364e-05
1.05399e-05
1.05437e-05
1.05476e-05
1.05516e-05
1.05557e-05
1.05599e-05
1.05643e-05
1.05689e-05
1.05738e-05
1.05791e-05
1.05846e-05
1.05905e-05
1.05966e-05
1.06031e-05
1.06101e-05
1.06178e-05
1.06261e-05
1.06351e-05
1.06446e-05
1.06546e-05
1.0665e-05
1.06756e-05
1.06863e-05
1.06972e-05
1.07084e-05
1.07195e-05
1.07303e-05
1.07399e-05
1.27945e-05
1.27966e-05
1.27986e-05
1.28006e-05
1.28027e-05
1.28049e-05
1.28073e-05
1.281e-05
1.28132e-05
1.28167e-05
1.28205e-05
1.28246e-05
1.28289e-05
1.28334e-05
1.28381e-05
1.28429e-05
1.28478e-05
1.2853e-05
1.28586e-05
1.28644e-05
1.28705e-05
1.28769e-05
1.28837e-05
1.2891e-05
1.2899e-05
1.29076e-05
1.2917e-05
1.29271e-05
1.29378e-05
1.29491e-05
1.29609e-05
1.29732e-05
1.29859e-05
1.29992e-05
1.30131e-05
1.30275e-05
1.3042e-05
1.30565e-05
1.40448e-05
1.40473e-05
1.40497e-05
1.40521e-05
1.40546e-05
1.40571e-05
1.40599e-05
1.40629e-05
1.40663e-05
1.407e-05
1.4074e-05
1.40783e-05
1.4083e-05
1.40878e-05
1.40929e-05
1.40982e-05
1.41037e-05
1.41094e-05
1.41154e-05
1.41217e-05
1.41283e-05
1.41352e-05
1.41426e-05
1.41506e-05
1.41594e-05
1.41689e-05
1.41793e-05
1.41905e-05
1.42023e-05
1.42149e-05
1.42281e-05
1.42419e-05
1.42565e-05
1.42719e-05
1.42881e-05
1.43053e-05
1.43231e-05
1.43413e-05
1.47069e-05
1.47097e-05
1.47124e-05
1.47151e-05
1.47178e-05
1.47206e-05
1.47236e-05
1.47268e-05
1.47303e-05
1.47341e-05
1.47382e-05
1.47427e-05
1.47475e-05
1.47526e-05
1.47579e-05
1.47635e-05
1.47693e-05
1.47754e-05
1.47816e-05
1.47882e-05
1.4795e-05
1.48022e-05
1.481e-05
1.48185e-05
1.48278e-05
1.4838e-05
1.4849e-05
1.48609e-05
1.48736e-05
1.4887e-05
1.49012e-05
1.49162e-05
1.49321e-05
1.49491e-05
1.49671e-05
1.49864e-05
1.50067e-05
1.50281e-05
1.49915e-05
1.49946e-05
1.49975e-05
1.50005e-05
1.50034e-05
1.50064e-05
1.50095e-05
1.50127e-05
1.50162e-05
1.502e-05
1.50241e-05
1.50286e-05
1.50335e-05
1.50387e-05
1.50442e-05
1.50499e-05
1.50558e-05
1.50619e-05
1.50683e-05
1.50749e-05
1.50818e-05
1.50891e-05
1.5097e-05
1.51057e-05
1.51153e-05
1.51258e-05
1.51372e-05
1.51495e-05
1.51626e-05
1.51765e-05
1.51912e-05
1.52069e-05
1.52236e-05
1.52415e-05
1.52607e-05
1.52813e-05
1.53034e-05
1.5327e-05
1.49914e-05
1.49947e-05
1.49978e-05
1.50008e-05
1.50038e-05
1.50069e-05
1.501e-05
1.50132e-05
1.50167e-05
1.50204e-05
1.50244e-05
1.50289e-05
1.50338e-05
1.50389e-05
1.50443e-05
1.50499e-05
1.50557e-05
1.50617e-05
1.5068e-05
1.50745e-05
1.50814e-05
1.50886e-05
1.50965e-05
1.51052e-05
1.51148e-05
1.51252e-05
1.51366e-05
1.51488e-05
1.51619e-05
1.51759e-05
1.51907e-05
1.52065e-05
1.52235e-05
1.52417e-05
1.52613e-05
1.52825e-05
1.53053e-05
1.53299e-05
1.47098e-05
1.4713e-05
1.47161e-05
1.47191e-05
1.47221e-05
1.47251e-05
1.47282e-05
1.47316e-05
1.47352e-05
1.47391e-05
1.47435e-05
1.47482e-05
1.47532e-05
1.47583e-05
1.47636e-05
1.47691e-05
1.47749e-05
1.47809e-05
1.47872e-05
1.47938e-05
1.48009e-05
1.48086e-05
1.48171e-05
1.48264e-05
1.48365e-05
1.48476e-05
1.48594e-05
1.48722e-05
1.48858e-05
1.49004e-05
1.4916e-05
1.49329e-05
1.4951e-05
1.49706e-05
1.49918e-05
1.5015e-05
1.50404e-05
1.40475e-05
1.40507e-05
1.40537e-05
1.40565e-05
1.40593e-05
1.40621e-05
1.40651e-05
1.40682e-05
1.40717e-05
1.40755e-05
1.40797e-05
1.40841e-05
1.40888e-05
1.40935e-05
1.40984e-05
1.41034e-05
1.41087e-05
1.41143e-05
1.41202e-05
1.41265e-05
1.41332e-05
1.41405e-05
1.41485e-05
1.41573e-05
1.41668e-05
1.41772e-05
1.41883e-05
1.42004e-05
1.42132e-05
1.4227e-05
1.42419e-05
1.42579e-05
1.42751e-05
1.42938e-05
1.43142e-05
1.43365e-05
1.43611e-05
1.27967e-05
1.27998e-05
1.28025e-05
1.2805e-05
1.28075e-05
1.281e-05
1.28127e-05
1.28156e-05
1.28188e-05
1.28223e-05
1.28262e-05
1.28303e-05
1.28346e-05
1.28389e-05
1.28432e-05
1.28477e-05
1.28524e-05
1.28574e-05
1.28627e-05
1.28684e-05
1.28746e-05
1.28814e-05
1.28887e-05
1.28966e-05
1.29053e-05
1.29146e-05
1.29248e-05
1.29357e-05
1.29474e-05
1.296e-05
1.29735e-05
1.29881e-05
1.30038e-05
1.30209e-05
1.30395e-05
1.306e-05
1.30826e-05
1.05199e-05
1.05226e-05
1.05248e-05
1.05268e-05
1.05288e-05
1.05308e-05
1.05331e-05
1.05356e-05
1.05385e-05
1.05417e-05
1.05452e-05
1.0549e-05
1.05527e-05
1.05565e-05
1.05603e-05
1.05642e-05
1.05683e-05
1.05727e-05
1.05774e-05
1.05826e-05
1.05883e-05
1.05944e-05
1.0601e-05
1.06081e-05
1.06158e-05
1.06242e-05
1.06332e-05
1.0643e-05
1.06535e-05
1.06647e-05
1.06767e-05
1.06897e-05
1.07037e-05
1.07189e-05
1.07355e-05
1.07537e-05
1.07739e-05
5.97861e-06
5.97958e-06
5.98065e-06
5.98183e-06
5.9832e-06
5.98481e-06
5.98676e-06
5.9891e-06
5.99186e-06
5.99508e-06
5.99878e-06
6.00292e-06
6.00743e-06
6.01227e-06
6.01746e-06
6.02303e-06
6.02905e-06
6.0356e-06
6.04276e-06
6.0506e-06
6.05915e-06
6.06845e-06
6.07852e-06
6.08941e-06
6.1012e-06
6.11398e-06
6.12783e-06
6.14281e-06
6.15897e-06
6.1764e-06
6.19519e-06
6.21546e-06
6.23735e-06
6.26098e-06
6.28655e-06
6.31432e-06
6.3446e-06
6.36252e-06
6.36267e-06
6.36299e-06
6.3635e-06
6.36426e-06
6.3653e-06
6.36666e-06
6.3684e-06
6.3706e-06
6.37326e-06
6.37644e-06
6.38009e-06
6.38416e-06
6.3886e-06
6.3934e-06
6.39857e-06
6.40415e-06
6.41023e-06
6.41687e-06
6.42411e-06
6.43195e-06
6.44036e-06
6.44937e-06
6.45907e-06
6.4696e-06
6.48104e-06
6.49347e-06
6.50695e-06
6.52151e-06
6.53713e-06
6.55381e-06
6.57151e-06
6.59022e-06
6.60995e-06
6.63074e-06
6.65255e-06
6.67529e-06
6.69868e-06
1.1452e-05
1.14532e-05
1.14544e-05
1.14556e-05
1.14568e-05
1.14583e-05
1.146e-05
1.14622e-05
1.14648e-05
1.14679e-05
1.14713e-05
1.14748e-05
1.14784e-05
1.14821e-05
1.14859e-05
1.14897e-05
1.14937e-05
1.14979e-05
1.15024e-05
1.15072e-05
1.15123e-05
1.15176e-05
1.15231e-05
1.15291e-05
1.15355e-05
1.15425e-05
1.15502e-05
1.15584e-05
1.15671e-05
1.15762e-05
1.15856e-05
1.15951e-05
1.16047e-05
1.16144e-05
1.16241e-05
1.16339e-05
1.16432e-05
1.16514e-05
1.3908e-05
1.39099e-05
1.39116e-05
1.39134e-05
1.39152e-05
1.39171e-05
1.39193e-05
1.39218e-05
1.39246e-05
1.39278e-05
1.39313e-05
1.39351e-05
1.39389e-05
1.3943e-05
1.39471e-05
1.39514e-05
1.39558e-05
1.39604e-05
1.39654e-05
1.39706e-05
1.39761e-05
1.39818e-05
1.39879e-05
1.39945e-05
1.40017e-05
1.40095e-05
1.40179e-05
1.4027e-05
1.40367e-05
1.4047e-05
1.40577e-05
1.40688e-05
1.40804e-05
1.40924e-05
1.4105e-05
1.41179e-05
1.41311e-05
1.4144e-05
1.52542e-05
1.52564e-05
1.52586e-05
1.52607e-05
1.52629e-05
1.52652e-05
1.52677e-05
1.52704e-05
1.52734e-05
1.52767e-05
1.52803e-05
1.52842e-05
1.52883e-05
1.52926e-05
1.52971e-05
1.53018e-05
1.53066e-05
1.53117e-05
1.5317e-05
1.53226e-05
1.53285e-05
1.53347e-05
1.53414e-05
1.53486e-05
1.53565e-05
1.5365e-05
1.53744e-05
1.53844e-05
1.53951e-05
1.54065e-05
1.54185e-05
1.54311e-05
1.54444e-05
1.54585e-05
1.54734e-05
1.5489e-05
1.55053e-05
1.55221e-05
1.59741e-05
1.59766e-05
1.5979e-05
1.59815e-05
1.59839e-05
1.59865e-05
1.59891e-05
1.5992e-05
1.59951e-05
1.59985e-05
1.60022e-05
1.60062e-05
1.60104e-05
1.60149e-05
1.60197e-05
1.60246e-05
1.60297e-05
1.60351e-05
1.60407e-05
1.60465e-05
1.60527e-05
1.60592e-05
1.60662e-05
1.60738e-05
1.60822e-05
1.60913e-05
1.61013e-05
1.6112e-05
1.61235e-05
1.61357e-05
1.61486e-05
1.61623e-05
1.6177e-05
1.61926e-05
1.62093e-05
1.62271e-05
1.6246e-05
1.62659e-05
1.62871e-05
1.62898e-05
1.62925e-05
1.62951e-05
1.62977e-05
1.63004e-05
1.63032e-05
1.63061e-05
1.63093e-05
1.63126e-05
1.63163e-05
1.63203e-05
1.63247e-05
1.63292e-05
1.63341e-05
1.63391e-05
1.63443e-05
1.63498e-05
1.63554e-05
1.63614e-05
1.63676e-05
1.63742e-05
1.63814e-05
1.63893e-05
1.63979e-05
1.64073e-05
1.64176e-05
1.64287e-05
1.64405e-05
1.64532e-05
1.64667e-05
1.64811e-05
1.64966e-05
1.65132e-05
1.6531e-05
1.65502e-05
1.65709e-05
1.65931e-05
1.62869e-05
1.62899e-05
1.62927e-05
1.62954e-05
1.62981e-05
1.63008e-05
1.63036e-05
1.63066e-05
1.63097e-05
1.6313e-05
1.63166e-05
1.63206e-05
1.63249e-05
1.63294e-05
1.63342e-05
1.63391e-05
1.63442e-05
1.63496e-05
1.63552e-05
1.63611e-05
1.63672e-05
1.63738e-05
1.6381e-05
1.63888e-05
1.63974e-05
1.64069e-05
1.64171e-05
1.64282e-05
1.644e-05
1.64527e-05
1.64663e-05
1.64809e-05
1.64966e-05
1.65136e-05
1.65319e-05
1.65517e-05
1.65731e-05
1.65964e-05
1.59767e-05
1.59796e-05
1.59824e-05
1.59851e-05
1.59877e-05
1.59905e-05
1.59933e-05
1.59963e-05
1.59995e-05
1.6003e-05
1.60069e-05
1.6011e-05
1.60154e-05
1.602e-05
1.60247e-05
1.60296e-05
1.60347e-05
1.604e-05
1.60457e-05
1.60516e-05
1.60581e-05
1.6065e-05
1.60726e-05
1.6081e-05
1.60901e-05
1.61e-05
1.61108e-05
1.61223e-05
1.61348e-05
1.61481e-05
1.61625e-05
1.6178e-05
1.61949e-05
1.62132e-05
1.62331e-05
1.62549e-05
1.6279e-05
1.52566e-05
1.52594e-05
1.52621e-05
1.52647e-05
1.52671e-05
1.52697e-05
1.52723e-05
1.52752e-05
1.52782e-05
1.52816e-05
1.52853e-05
1.52893e-05
1.52934e-05
1.52976e-05
1.53019e-05
1.53064e-05
1.53111e-05
1.53161e-05
1.53214e-05
1.5327e-05
1.53331e-05
1.53396e-05
1.53468e-05
1.53547e-05
1.53632e-05
1.53725e-05
1.53826e-05
1.53935e-05
1.54052e-05
1.54178e-05
1.54314e-05
1.54462e-05
1.54622e-05
1.54796e-05
1.54986e-05
1.55196e-05
1.55429e-05
1.391e-05
1.39128e-05
1.39152e-05
1.39175e-05
1.39197e-05
1.39219e-05
1.39243e-05
1.39269e-05
1.39298e-05
1.3933e-05
1.39365e-05
1.39401e-05
1.39439e-05
1.39477e-05
1.39516e-05
1.39556e-05
1.39598e-05
1.39642e-05
1.3969e-05
1.39742e-05
1.39798e-05
1.39858e-05
1.39924e-05
1.39996e-05
1.40073e-05
1.40158e-05
1.4025e-05
1.40349e-05
1.40455e-05
1.4057e-05
1.40694e-05
1.40829e-05
1.40974e-05
1.41133e-05
1.41307e-05
1.415e-05
1.41714e-05
1.14533e-05
1.14557e-05
1.14578e-05
1.14595e-05
1.14612e-05
1.1463e-05
1.14651e-05
1.14674e-05
1.14701e-05
1.1473e-05
1.14763e-05
1.14797e-05
1.14832e-05
1.14866e-05
1.14901e-05
1.14936e-05
1.14973e-05
1.15012e-05
1.15055e-05
1.15103e-05
1.15154e-05
1.1521e-05
1.15271e-05
1.15336e-05
1.15406e-05
1.15482e-05
1.15565e-05
1.15655e-05
1.15752e-05
1.15856e-05
1.15968e-05
1.16089e-05
1.1622e-05
1.16362e-05
1.16518e-05
1.16691e-05
1.16884e-05
6.36185e-06
6.36276e-06
6.36376e-06
6.36487e-06
6.36616e-06
6.3677e-06
6.36957e-06
6.37178e-06
6.37444e-06
6.37758e-06
6.38121e-06
6.38526e-06
6.38967e-06
6.39439e-06
6.39943e-06
6.40483e-06
6.41067e-06
6.41703e-06
6.42401e-06
6.43167e-06
6.44005e-06
6.44915e-06
6.45901e-06
6.46967e-06
6.48121e-06
6.49372e-06
6.50729e-06
6.52199e-06
6.53786e-06
6.55498e-06
6.57348e-06
6.59345e-06
6.61502e-06
6.63834e-06
6.66361e-06
6.6911e-06
6.72112e-06
6.62979e-06
6.6298e-06
6.62997e-06
6.63036e-06
6.631e-06
6.63193e-06
6.63319e-06
6.63485e-06
6.63696e-06
6.63955e-06
6.64259e-06
6.64609e-06
6.65002e-06
6.6543e-06
6.65892e-06
6.66388e-06
6.66925e-06
6.67508e-06
6.68148e-06
6.68847e-06
6.69604e-06
6.70417e-06
6.71289e-06
6.72231e-06
6.73259e-06
6.74378e-06
6.75595e-06
6.76915e-06
6.7834e-06
6.7987e-06
6.81501e-06
6.83231e-06
6.85058e-06
6.86984e-06
6.89014e-06
6.91146e-06
6.93373e-06
6.95673e-06
1.21273e-05
1.21283e-05
1.21291e-05
1.21299e-05
1.21309e-05
1.21321e-05
1.21336e-05
1.21356e-05
1.2138e-05
1.21409e-05
1.21441e-05
1.21474e-05
1.21507e-05
1.2154e-05
1.21574e-05
1.21608e-05
1.21643e-05
1.2168e-05
1.2172e-05
1.21764e-05
1.21809e-05
1.21857e-05
1.21907e-05
1.2196e-05
1.22017e-05
1.2208e-05
1.22149e-05
1.22223e-05
1.22303e-05
1.22385e-05
1.2247e-05
1.22555e-05
1.2264e-05
1.22725e-05
1.22811e-05
1.22895e-05
1.22976e-05
1.23046e-05
1.47287e-05
1.47303e-05
1.47317e-05
1.47332e-05
1.47347e-05
1.47364e-05
1.47383e-05
1.47405e-05
1.47431e-05
1.4746e-05
1.47491e-05
1.47525e-05
1.47559e-05
1.47595e-05
1.47631e-05
1.47668e-05
1.47707e-05
1.47748e-05
1.47792e-05
1.47838e-05
1.47887e-05
1.47938e-05
1.47992e-05
1.48051e-05
1.48115e-05
1.48185e-05
1.48261e-05
1.48343e-05
1.4843e-05
1.48523e-05
1.4862e-05
1.48721e-05
1.48825e-05
1.48934e-05
1.49047e-05
1.49164e-05
1.49283e-05
1.49401e-05
1.61526e-05
1.61545e-05
1.61564e-05
1.61582e-05
1.61601e-05
1.61621e-05
1.61643e-05
1.61667e-05
1.61694e-05
1.61724e-05
1.61756e-05
1.6179e-05
1.61826e-05
1.61864e-05
1.61903e-05
1.61944e-05
1.61986e-05
1.62031e-05
1.62078e-05
1.62128e-05
1.6218e-05
1.62235e-05
1.62295e-05
1.62359e-05
1.62429e-05
1.62506e-05
1.6259e-05
1.6268e-05
1.62777e-05
1.62879e-05
1.62988e-05
1.63103e-05
1.63225e-05
1.63353e-05
1.6349e-05
1.63633e-05
1.63783e-05
1.63938e-05
1.69194e-05
1.69216e-05
1.69237e-05
1.69258e-05
1.6928e-05
1.69302e-05
1.69326e-05
1.69351e-05
1.69379e-05
1.69409e-05
1.69441e-05
1.69476e-05
1.69514e-05
1.69553e-05
1.69594e-05
1.69637e-05
1.69682e-05
1.69729e-05
1.69779e-05
1.69831e-05
1.69886e-05
1.69944e-05
1.70007e-05
1.70075e-05
1.7015e-05
1.70232e-05
1.70321e-05
1.70418e-05
1.70521e-05
1.70632e-05
1.7075e-05
1.70876e-05
1.7101e-05
1.71154e-05
1.71308e-05
1.71473e-05
1.71649e-05
1.71835e-05
1.72554e-05
1.72578e-05
1.72601e-05
1.72624e-05
1.72648e-05
1.72671e-05
1.72696e-05
1.72722e-05
1.7275e-05