/*--------------------------------*- C++ -*----------------------------------*\
| =========                 |                                                 |
| \\      /  F ield         | OpenFOAM: The Open Source CFD Toolbox           |
|  \\    /   O peration     | Version:  2.3.1                                 |
|   \\  /    A nd           | Web:      www.OpenFOAM.org                      |
|    \\/     M anipulation  |                                                 |
\*---------------------------------------------------------------------------*/
FoamFile
{
    version     2.0;
    format      ascii;
    class       volScalarField;
    location    "20";
    object      nut;
}
// * * * * * * * * * * * * * * * * * * * * * * * * * * * * * * * * * * * * * //

dimensions      [0 2 -1 0 0 0 0];

internalField   nonuniform List<scalar> 
37692
(
2.15941e-06
2.15929e-06
2.15927e-06
2.15937e-06
2.15958e-06
2.15989e-06
2.16033e-06
2.16091e-06
2.16165e-06
2.16258e-06
2.16371e-06
2.16503e-06
2.16654e-06
2.16826e-06
2.17018e-06
2.1723e-06
2.17463e-06
2.17718e-06
2.17998e-06
2.18303e-06
2.18635e-06
2.18995e-06
2.19383e-06
2.19802e-06
2.20255e-06
2.20744e-06
2.21273e-06
2.21844e-06
2.22457e-06
2.23113e-06
2.23813e-06
2.24553e-06
2.25332e-06
2.26149e-06
2.27e-06
2.2788e-06
2.28779e-06
2.29683e-06
2.63158e-06
2.63158e-06
2.63166e-06
2.63183e-06
2.63212e-06
2.63251e-06
2.63304e-06
2.63373e-06
2.63462e-06
2.6357e-06
2.63699e-06
2.63847e-06
2.64014e-06
2.642e-06
2.64406e-06
2.64632e-06
2.64877e-06
2.65145e-06
2.65437e-06
2.65756e-06
2.66101e-06
2.66471e-06
2.6687e-06
2.67299e-06
2.67764e-06
2.68266e-06
2.68809e-06
2.69393e-06
2.7002e-06
2.70689e-06
2.71398e-06
2.72146e-06
2.7293e-06
2.7375e-06
2.74603e-06
2.75482e-06
2.76374e-06
2.77255e-06
2.84333e-06
2.84338e-06
2.84352e-06
2.84375e-06
2.84409e-06
2.84454e-06
2.84512e-06
2.84586e-06
2.84677e-06
2.84787e-06
2.84915e-06
2.8506e-06
2.85224e-06
2.85406e-06
2.85607e-06
2.85826e-06
2.86063e-06
2.8632e-06
2.866e-06
2.86904e-06
2.8723e-06
2.87578e-06
2.87952e-06
2.88357e-06
2.88795e-06
2.8927e-06
2.89784e-06
2.90337e-06
2.90929e-06
2.9156e-06
2.92229e-06
2.92933e-06
2.93672e-06
2.94447e-06
2.95257e-06
2.96096e-06
2.96954e-06
2.97815e-06
2.95066e-06
2.95077e-06
2.95096e-06
2.95124e-06
2.95163e-06
2.95212e-06
2.95275e-06
2.95351e-06
2.95443e-06
2.95553e-06
2.95679e-06
2.95823e-06
2.95986e-06
2.96168e-06
2.96368e-06
2.96585e-06
2.9682e-06
2.97074e-06
2.97349e-06
2.97645e-06
2.9796e-06
2.98296e-06
2.98657e-06
2.9905e-06
2.99477e-06
2.99941e-06
3.00444e-06
3.00985e-06
3.01564e-06
3.02181e-06
3.02834e-06
3.03522e-06
3.04247e-06
3.0501e-06
3.05812e-06
3.0665e-06
3.07518e-06
3.08406e-06
3.00258e-06
3.00274e-06
3.00297e-06
3.00328e-06
3.00371e-06
3.00424e-06
3.0049e-06
3.00568e-06
3.00661e-06
3.00768e-06
3.00893e-06
3.01036e-06
3.01198e-06
3.0138e-06
3.01581e-06
3.01798e-06
3.02033e-06
3.02287e-06
3.02559e-06
3.02849e-06
3.03158e-06
3.03486e-06
3.0384e-06
3.04227e-06
3.04649e-06
3.05109e-06
3.05608e-06
3.06146e-06
3.06722e-06
3.07335e-06
3.07983e-06
3.08669e-06
3.09393e-06
3.10159e-06
3.10969e-06
3.11822e-06
3.12715e-06
3.13645e-06
3.02325e-06
3.02345e-06
3.02371e-06
3.02406e-06
3.02451e-06
3.02508e-06
3.02576e-06
3.02655e-06
3.02747e-06
3.02852e-06
3.02975e-06
3.03117e-06
3.0328e-06
3.03462e-06
3.03662e-06
3.0388e-06
3.04115e-06
3.04367e-06
3.04637e-06
3.04924e-06
3.05228e-06
3.05553e-06
3.05904e-06
3.06288e-06
3.06709e-06
3.07169e-06
3.07667e-06
3.08203e-06
3.08778e-06
3.09391e-06
3.1004e-06
3.10729e-06
3.1146e-06
3.12236e-06
3.1306e-06
3.13933e-06
3.14856e-06
3.15831e-06
3.02318e-06
3.02342e-06
3.02372e-06
3.0241e-06
3.02459e-06
3.02518e-06
3.02587e-06
3.02666e-06
3.02757e-06
3.02861e-06
3.02983e-06
3.03125e-06
3.03288e-06
3.03469e-06
3.03668e-06
3.03884e-06
3.04117e-06
3.04367e-06
3.04634e-06
3.04919e-06
3.05222e-06
3.05546e-06
3.05898e-06
3.06282e-06
3.06702e-06
3.07161e-06
3.07659e-06
3.08196e-06
3.08771e-06
3.09385e-06
3.10038e-06
3.10734e-06
3.11475e-06
3.12263e-06
3.13103e-06
3.13997e-06
3.1495e-06
3.15965e-06
3.00265e-06
3.00298e-06
3.00339e-06
3.00389e-06
3.00449e-06
3.00518e-06
3.00598e-06
3.00688e-06
3.00792e-06
3.00914e-06
3.01057e-06
3.0122e-06
3.01401e-06
3.01598e-06
3.01811e-06
3.0204e-06
3.02288e-06
3.02555e-06
3.02841e-06
3.03145e-06
3.03472e-06
3.03826e-06
3.04213e-06
3.04635e-06
3.05096e-06
3.05595e-06
3.06134e-06
3.06712e-06
3.0733e-06
3.07991e-06
3.08698e-06
3.09452e-06
3.10258e-06
3.11119e-06
3.12039e-06
3.13026e-06
3.14087e-06
2.9506e-06
2.95095e-06
2.95136e-06
2.95186e-06
2.95245e-06
2.95314e-06
2.95393e-06
2.95484e-06
2.95589e-06
2.95713e-06
2.95858e-06
2.96021e-06
2.96201e-06
2.96396e-06
2.96606e-06
2.96834e-06
2.97081e-06
2.97348e-06
2.97636e-06
2.97945e-06
2.98278e-06
2.98639e-06
2.99031e-06
2.99458e-06
2.99923e-06
3.00428e-06
3.00972e-06
3.01557e-06
3.02185e-06
3.02857e-06
3.03578e-06
3.0435e-06
3.05176e-06
3.06061e-06
3.07011e-06
3.08034e-06
3.09139e-06
2.8431e-06
2.84343e-06
2.84383e-06
2.8443e-06
2.84487e-06
2.84553e-06
2.84632e-06
2.84724e-06
2.84831e-06
2.84957e-06
2.85103e-06
2.85268e-06
2.85449e-06
2.85645e-06
2.85857e-06
2.86087e-06
2.86336e-06
2.86608e-06
2.86903e-06
2.87221e-06
2.87565e-06
2.87938e-06
2.88343e-06
2.88783e-06
2.8926e-06
2.89777e-06
2.90336e-06
2.90937e-06
2.91584e-06
2.92277e-06
2.93022e-06
2.93822e-06
2.9468e-06
2.95602e-06
2.96593e-06
2.97663e-06
2.98821e-06
2.63113e-06
2.63142e-06
2.63177e-06
2.63219e-06
2.63271e-06
2.63335e-06
2.63412e-06
2.63504e-06
2.63614e-06
2.63742e-06
2.63892e-06
2.64061e-06
2.64248e-06
2.64453e-06
2.64675e-06
2.64916e-06
2.65178e-06
2.65464e-06
2.65775e-06
2.66112e-06
2.66479e-06
2.66877e-06
2.67309e-06
2.67776e-06
2.68281e-06
2.68829e-06
2.69421e-06
2.70059e-06
2.70746e-06
2.71485e-06
2.72278e-06
2.73131e-06
2.74048e-06
2.75033e-06
2.76095e-06
2.77241e-06
2.78482e-06
2.15875e-06
2.15884e-06
2.15909e-06
2.15942e-06
2.15985e-06
2.1604e-06
2.16107e-06
2.16188e-06
2.16286e-06
2.16401e-06
2.16537e-06
2.16692e-06
2.16868e-06
2.17063e-06
2.17277e-06
2.17511e-06
2.17766e-06
2.18044e-06
2.18346e-06
2.18674e-06
2.19032e-06
2.19419e-06
2.19839e-06
2.20294e-06
2.20786e-06
2.21318e-06
2.21894e-06
2.22515e-06
2.23185e-06
2.23906e-06
2.24681e-06
2.25513e-06
2.26408e-06
2.2737e-06
2.28404e-06
2.29519e-06
2.30722e-06
5.39398e-06
5.39414e-06
5.39442e-06
5.39485e-06
5.3954e-06
5.3961e-06
5.39695e-06
5.398e-06
5.3993e-06
5.40086e-06
5.40268e-06
5.40475e-06
5.40706e-06
5.40962e-06
5.41243e-06
5.41549e-06
5.41881e-06
5.42242e-06
5.42637e-06
5.43068e-06
5.43535e-06
5.44039e-06
5.4458e-06
5.45163e-06
5.45794e-06
5.46477e-06
5.47216e-06
5.48013e-06
5.4887e-06
5.49787e-06
5.50763e-06
5.51796e-06
5.52885e-06
5.54029e-06
5.55228e-06
5.56478e-06
5.57776e-06
5.59104e-06
1.24914e-05
1.24966e-05
1.25012e-05
1.25054e-05
1.25092e-05
1.25127e-05
1.25162e-05
1.25198e-05
1.25239e-05
1.25285e-05
1.25332e-05
1.25379e-05
1.25425e-05
1.25469e-05
1.2551e-05
1.25548e-05
1.25584e-05
1.2562e-05
1.25657e-05
1.25695e-05
1.25732e-05
1.25768e-05
1.25801e-05
1.25837e-05
1.25875e-05
1.25916e-05
1.25958e-05
1.26002e-05
1.26045e-05
1.26086e-05
1.2612e-05
1.26147e-05
1.26165e-05
1.26175e-05
1.26175e-05
1.2616e-05
1.26115e-05
1.26019e-05
1.62685e-05
1.62763e-05
1.62834e-05
1.629e-05
1.62958e-05
1.6301e-05
1.6306e-05
1.63112e-05
1.63169e-05
1.63231e-05
1.63296e-05
1.6336e-05
1.63424e-05
1.63487e-05
1.63547e-05
1.63603e-05
1.63657e-05
1.6371e-05
1.63763e-05
1.63816e-05
1.63866e-05
1.63913e-05
1.63961e-05
1.64012e-05
1.64068e-05
1.64128e-05
1.64192e-05
1.64257e-05
1.64321e-05
1.64381e-05
1.64434e-05
1.64479e-05
1.64515e-05
1.64545e-05
1.64568e-05
1.64579e-05
1.64568e-05
1.6452e-05
1.83381e-05
1.83479e-05
1.83568e-05
1.83649e-05
1.8372e-05
1.83783e-05
1.83842e-05
1.83902e-05
1.83967e-05
1.84035e-05
1.84107e-05
1.8418e-05
1.84255e-05
1.84329e-05
1.84401e-05
1.84469e-05
1.84534e-05
1.84597e-05
1.84658e-05
1.84716e-05
1.84769e-05
1.8482e-05
1.84873e-05
1.84933e-05
1.85e-05
1.85074e-05
1.85152e-05
1.85232e-05
1.85311e-05
1.85384e-05
1.8545e-05
1.85509e-05
1.85562e-05
1.85612e-05
1.85658e-05
1.85696e-05
1.85717e-05
1.8571e-05
1.94393e-05
1.94505e-05
1.94606e-05
1.94696e-05
1.94775e-05
1.94845e-05
1.94908e-05
1.94972e-05
1.95039e-05
1.95109e-05
1.95183e-05
1.9526e-05
1.95341e-05
1.95422e-05
1.95501e-05
1.95576e-05
1.95646e-05
1.95714e-05
1.95777e-05
1.95834e-05
1.95886e-05
1.95936e-05
1.95992e-05
1.96056e-05
1.96131e-05
1.96213e-05
1.963e-05
1.96389e-05
1.96476e-05
1.96558e-05
1.96634e-05
1.96703e-05
1.9677e-05
1.96836e-05
1.96901e-05
1.96962e-05
1.97013e-05
1.97045e-05
1.99147e-05
1.99271e-05
1.9938e-05
1.99476e-05
1.99559e-05
1.9963e-05
1.99696e-05
1.99761e-05
1.99826e-05
1.99895e-05
1.99968e-05
2.00047e-05
2.0013e-05
2.00213e-05
2.00294e-05
2.0037e-05
2.00442e-05
2.00509e-05
2.00571e-05
2.00625e-05
2.00675e-05
2.00724e-05
2.0078e-05
2.00847e-05
2.00924e-05
2.0101e-05
2.01101e-05
2.01194e-05
2.01285e-05
2.01371e-05
2.01452e-05
2.0153e-05
2.01607e-05
2.01684e-05
2.01762e-05
2.0184e-05
2.01913e-05
2.01978e-05
1.99147e-05
1.9928e-05
1.99396e-05
1.99495e-05
1.99578e-05
1.99648e-05
1.99714e-05
1.99777e-05
1.9984e-05
1.99906e-05
1.99978e-05
2.00056e-05
2.00137e-05
2.00218e-05
2.00295e-05
2.00368e-05
2.00436e-05
2.005e-05
2.00558e-05
2.0061e-05
2.00658e-05
2.00706e-05
2.00762e-05
2.00827e-05
2.00903e-05
2.00987e-05
2.01077e-05
2.01168e-05
2.01258e-05
2.01345e-05
2.01429e-05
2.01511e-05
2.01594e-05
2.01676e-05
2.0176e-05
2.01845e-05
2.01931e-05
2.02016e-05
1.94531e-05
1.9465e-05
1.94748e-05
1.94827e-05
1.94894e-05
1.94957e-05
1.95017e-05
1.95077e-05
1.9514e-05
1.95209e-05
1.95285e-05
1.95362e-05
1.95437e-05
1.95506e-05
1.95571e-05
1.95632e-05
1.9569e-05
1.95744e-05
1.95793e-05
1.9584e-05
1.95888e-05
1.95941e-05
1.96004e-05
1.96076e-05
1.96155e-05
1.9624e-05
1.96326e-05
1.96413e-05
1.96498e-05
1.96583e-05
1.96668e-05
1.96754e-05
1.96842e-05
1.96932e-05
1.97026e-05
1.97127e-05
1.97235e-05
1.83515e-05
1.83631e-05
1.83722e-05
1.83793e-05
1.83854e-05
1.83911e-05
1.83967e-05
1.84023e-05
1.84082e-05
1.84147e-05
1.84217e-05
1.84286e-05
1.84351e-05
1.84411e-05
1.84465e-05
1.84516e-05
1.84565e-05
1.84613e-05
1.84658e-05
1.84702e-05
1.84748e-05
1.84799e-05
1.84856e-05
1.8492e-05
1.84991e-05
1.85066e-05
1.85144e-05
1.85223e-05
1.85301e-05
1.85381e-05
1.85462e-05
1.85545e-05
1.85629e-05
1.85717e-05
1.8581e-05
1.85912e-05
1.86024e-05
1.628e-05
1.62901e-05
1.62978e-05
1.63038e-05
1.63088e-05
1.63136e-05
1.63184e-05
1.63233e-05
1.63285e-05
1.63341e-05
1.63401e-05
1.63459e-05
1.63512e-05
1.6356e-05
1.63601e-05
1.6364e-05
1.63678e-05
1.63717e-05
1.63755e-05
1.63794e-05
1.63835e-05
1.6388e-05
1.63929e-05
1.63983e-05
1.64041e-05
1.64103e-05
1.64167e-05
1.64233e-05
1.643e-05
1.64368e-05
1.64438e-05
1.6451e-05
1.64585e-05
1.64663e-05
1.64746e-05
1.64838e-05
1.64942e-05
1.24991e-05
1.25064e-05
1.25117e-05
1.25156e-05
1.25189e-05
1.25221e-05
1.25253e-05
1.25288e-05
1.25326e-05
1.25367e-05
1.25409e-05
1.25451e-05
1.25488e-05
1.25521e-05
1.25549e-05
1.25574e-05
1.25599e-05
1.25625e-05
1.25652e-05
1.25681e-05
1.25712e-05
1.25746e-05
1.25782e-05
1.25819e-05
1.2586e-05
1.25903e-05
1.25949e-05
1.25996e-05
1.26044e-05
1.26094e-05
1.26145e-05
1.26198e-05
1.26254e-05
1.26314e-05
1.26379e-05
1.26453e-05
1.26538e-05
5.39373e-06
5.39428e-06
5.39491e-06
5.39562e-06
5.39643e-06
5.39738e-06
5.39851e-06
5.39985e-06
5.40141e-06
5.40322e-06
5.4053e-06
5.40765e-06
5.41023e-06
5.41304e-06
5.41607e-06
5.41935e-06
5.4229e-06
5.42677e-06
5.43098e-06
5.43556e-06
5.44055e-06
5.44596e-06
5.45181e-06
5.45815e-06
5.465e-06
5.47241e-06
5.48044e-06
5.4891e-06
5.49843e-06
5.50846e-06
5.51925e-06
5.53086e-06
5.54334e-06
5.55676e-06
5.57121e-06
5.58679e-06
5.60364e-06
5.87899e-06
5.87914e-06
5.8794e-06
5.87977e-06
5.88027e-06
5.8809e-06
5.88169e-06
5.88268e-06
5.88391e-06
5.88541e-06
5.88716e-06
5.88914e-06
5.89135e-06
5.89377e-06
5.89642e-06
5.89929e-06
5.90239e-06
5.90576e-06
5.90943e-06
5.91344e-06
5.91778e-06
5.92243e-06
5.92743e-06
5.93281e-06
5.93863e-06
5.94494e-06
5.95176e-06
5.95913e-06
5.96704e-06
5.97551e-06
5.9845e-06
5.994e-06
6.004e-06
6.0145e-06
6.02555e-06
6.03715e-06
6.04919e-06
6.06153e-06
2.04269e-05
2.04334e-05
2.0439e-05
2.04442e-05
2.04491e-05
2.04541e-05
2.04595e-05
2.04657e-05
2.04732e-05
2.04817e-05
2.04907e-05
2.05e-05
2.05093e-05
2.05186e-05
2.05278e-05
2.05368e-05
2.05457e-05
2.0555e-05
2.05647e-05
2.05749e-05
2.05853e-05
2.05958e-05
2.06064e-05
2.06177e-05
2.06298e-05
2.06429e-05
2.0657e-05
2.06718e-05
2.06871e-05
2.07027e-05
2.07179e-05
2.07324e-05
2.0746e-05
2.07585e-05
2.07688e-05
2.07757e-05
2.07773e-05
2.07695e-05
2.89084e-05
2.89191e-05
2.89289e-05
2.89382e-05
2.89472e-05
2.89562e-05
2.89657e-05
2.89762e-05
2.89881e-05
2.90012e-05
2.90152e-05
2.90299e-05
2.90449e-05
2.90603e-05
2.90758e-05
2.90913e-05
2.91069e-05
2.9123e-05
2.91398e-05
2.91572e-05
2.91749e-05
2.91929e-05
2.92117e-05
2.92318e-05
2.92538e-05
2.92775e-05
2.9303e-05
2.93299e-05
2.9358e-05
2.93867e-05
2.94157e-05
2.94445e-05
2.94732e-05
2.95021e-05
2.95309e-05
2.95588e-05
2.95841e-05
2.96041e-05
3.37693e-05
3.37835e-05
3.37967e-05
3.38091e-05
3.3821e-05
3.38328e-05
3.3845e-05
3.3858e-05
3.38723e-05
3.38878e-05
3.39044e-05
3.39219e-05
3.39403e-05
3.39593e-05
3.39786e-05
3.3998e-05
3.40177e-05
3.40377e-05
3.40582e-05
3.40791e-05
3.41002e-05
3.41218e-05
3.41448e-05
3.41698e-05
3.41972e-05
3.4227e-05
3.42591e-05
3.42929e-05
3.43282e-05
3.43644e-05
3.44011e-05
3.44382e-05
3.44761e-05
3.4515e-05
3.45549e-05
3.4595e-05
3.4634e-05
3.46696e-05
3.645e-05
3.64668e-05
3.64824e-05
3.64969e-05
3.65108e-05
3.65244e-05
3.65383e-05
3.65527e-05
3.65681e-05
3.65846e-05
3.66024e-05
3.66216e-05
3.66418e-05
3.66629e-05
3.66844e-05
3.67061e-05
3.6728e-05
3.67501e-05
3.67724e-05
3.67948e-05
3.68173e-05
3.68405e-05
3.68656e-05
3.68932e-05
3.69238e-05
3.69572e-05
3.69931e-05
3.7031e-05
3.70706e-05
3.71112e-05
3.71526e-05
3.7195e-05
3.72389e-05
3.72845e-05
3.7332e-05
3.73809e-05
3.74302e-05
3.74784e-05
3.76351e-05
3.76539e-05
3.76711e-05
3.7687e-05
3.7702e-05
3.77166e-05
3.77313e-05
3.77462e-05
3.77618e-05
3.77785e-05
3.77967e-05
3.78163e-05
3.78374e-05
3.78593e-05
3.78816e-05
3.79041e-05
3.79267e-05
3.79494e-05
3.79721e-05
3.79948e-05
3.80176e-05
3.80415e-05
3.80674e-05
3.80963e-05
3.81283e-05
3.81633e-05
3.82009e-05
3.82408e-05
3.82823e-05
3.83251e-05
3.83691e-05
3.84146e-05
3.84621e-05
3.85118e-05
3.8564e-05
3.86186e-05
3.8675e-05
3.87326e-05
3.76346e-05
3.76546e-05
3.76729e-05
3.76894e-05
3.77048e-05
3.77196e-05
3.77343e-05
3.77491e-05
3.77643e-05
3.77806e-05
3.77985e-05
3.7818e-05
3.78388e-05
3.78603e-05
3.78821e-05
3.7904e-05
3.7926e-05
3.79481e-05
3.79702e-05
3.79923e-05
3.80148e-05
3.80385e-05
3.80643e-05
3.8093e-05
3.81248e-05
3.81596e-05
3.8197e-05
3.82366e-05
3.82781e-05
3.8321e-05
3.83656e-05
3.84121e-05
3.84607e-05
3.85119e-05
3.85658e-05
3.86226e-05
3.86823e-05
3.87449e-05
3.64689e-05
3.64873e-05
3.65036e-05
3.65185e-05
3.65327e-05
3.65466e-05
3.65606e-05
3.6575e-05
3.65905e-05
3.66076e-05
3.66262e-05
3.66458e-05
3.66659e-05
3.6686e-05
3.67061e-05
3.67262e-05
3.67467e-05
3.67674e-05
3.67884e-05
3.68099e-05
3.68326e-05
3.68574e-05
3.68848e-05
3.6915e-05
3.69481e-05
3.69836e-05
3.70214e-05
3.7061e-05
3.71025e-05
3.7146e-05
3.71916e-05
3.72397e-05
3.72906e-05
3.73446e-05
3.74022e-05
3.7464e-05
3.75305e-05
3.37863e-05
3.38035e-05
3.38184e-05
3.38318e-05
3.38444e-05
3.38568e-05
3.38693e-05
3.38824e-05
3.38964e-05
3.39119e-05
3.39287e-05
3.39462e-05
3.39638e-05
3.39811e-05
3.39983e-05
3.40156e-05
3.40333e-05
3.40516e-05
3.40703e-05
3.40898e-05
3.41106e-05
3.41331e-05
3.41578e-05
3.41848e-05
3.42143e-05
3.4246e-05
3.42798e-05
3.43155e-05
3.43531e-05
3.43926e-05
3.44344e-05
3.44787e-05
3.45256e-05
3.45757e-05
3.46295e-05
3.46878e-05
3.47514e-05
2.89215e-05
2.89359e-05
2.8948e-05
2.89585e-05
2.89683e-05
2.89781e-05
2.89882e-05
2.89989e-05
2.90105e-05
2.90233e-05
2.9037e-05
2.90511e-05
2.90652e-05
2.90788e-05
2.9092e-05
2.91053e-05
2.9119e-05
2.91334e-05
2.91484e-05
2.91643e-05
2.91814e-05
2.91998e-05
2.92198e-05
2.92416e-05
2.92651e-05
2.92905e-05
2.93177e-05
2.93465e-05
2.93769e-05
2.94091e-05
2.94432e-05
2.94794e-05
2.95181e-05
2.95595e-05
2.96043e-05
2.96532e-05
2.97073e-05
2.04343e-05
2.04439e-05
2.04514e-05
2.04575e-05
2.04629e-05
2.04685e-05
2.04745e-05
2.04811e-05
2.04884e-05
2.04964e-05
2.05049e-05
2.05136e-05
2.05221e-05
2.05301e-05
2.05376e-05
2.0545e-05
2.05525e-05
2.05605e-05
2.0569e-05
2.05782e-05
2.05881e-05
2.05988e-05
2.06103e-05
2.06226e-05
2.06359e-05
2.06502e-05
2.06656e-05
2.06819e-05
2.06991e-05
2.07173e-05
2.07365e-05
2.0757e-05
2.0779e-05
2.08026e-05
2.08285e-05
2.08571e-05
2.08895e-05
5.87873e-06
5.87925e-06
5.87985e-06
5.88051e-06
5.88127e-06
5.88216e-06
5.88323e-06
5.8845e-06
5.88599e-06
5.88772e-06
5.88971e-06
5.89193e-06
5.89437e-06
5.89699e-06
5.89981e-06
5.90285e-06
5.90613e-06
5.9097e-06
5.91359e-06
5.91783e-06
5.92245e-06
5.92746e-06
5.93289e-06
5.93876e-06
5.94511e-06
5.95198e-06
5.95941e-06
5.96744e-06
5.97609e-06
5.98539e-06
5.99539e-06
6.00617e-06
6.01776e-06
6.03024e-06
6.04371e-06
6.05826e-06
6.07406e-06
6.17656e-06
6.17669e-06
6.1769e-06
6.17722e-06
6.17766e-06
6.17824e-06
6.17897e-06
6.1799e-06
6.18107e-06
6.1825e-06
6.18419e-06
6.18611e-06
6.18823e-06
6.19056e-06
6.19309e-06
6.19583e-06
6.19878e-06
6.20198e-06
6.20548e-06
6.20929e-06
6.21341e-06
6.21783e-06
6.22256e-06
6.22766e-06
6.23318e-06
6.23916e-06
6.24564e-06
6.25264e-06
6.26016e-06
6.26821e-06
6.27676e-06
6.28582e-06
6.29539e-06
6.30549e-06
6.31611e-06
6.32724e-06
6.33881e-06
6.35067e-06
2.58314e-05
2.58376e-05
2.58428e-05
2.58476e-05
2.58523e-05
2.58574e-05
2.58632e-05
2.58704e-05
2.58791e-05
2.58891e-05
2.58998e-05
2.59106e-05
2.59214e-05
2.5932e-05
2.59425e-05
2.59529e-05
2.59632e-05
2.59739e-05
2.59851e-05
2.59968e-05
2.60088e-05
2.60209e-05
2.60332e-05
2.60461e-05
2.606e-05
2.60751e-05
2.60914e-05
2.61086e-05
2.61265e-05
2.61445e-05
2.61618e-05
2.61774e-05
2.61909e-05
2.6202e-05
2.62102e-05
2.62142e-05
2.62111e-05
2.61962e-05
3.85349e-05
3.85468e-05
3.85578e-05
3.85684e-05
3.85791e-05
3.85901e-05
3.8602e-05
3.86154e-05
3.86306e-05
3.86475e-05
3.86658e-05
3.86849e-05
3.87047e-05
3.8725e-05
3.87456e-05
3.87664e-05
3.87876e-05
3.88097e-05
3.88328e-05
3.88568e-05
3.88816e-05
3.89071e-05
3.89338e-05
3.89625e-05
3.89935e-05
3.90272e-05
3.90633e-05
3.91018e-05
3.91423e-05
3.9184e-05
3.92266e-05
3.92694e-05
3.93125e-05
3.93559e-05
3.93994e-05
3.94421e-05
3.94819e-05
3.95154e-05
4.61548e-05
4.61715e-05
4.61872e-05
4.62024e-05
4.62174e-05
4.62328e-05
4.62491e-05
4.62666e-05
4.62859e-05
4.63069e-05
4.63296e-05
4.63537e-05
4.63791e-05
4.64055e-05
4.64326e-05
4.64602e-05
4.64885e-05
4.65177e-05
4.6548e-05
4.65792e-05
4.66113e-05
4.66445e-05
4.66799e-05
4.67181e-05
4.67599e-05
4.68052e-05
4.6854e-05
4.69058e-05
4.69604e-05
4.7017e-05
4.70754e-05
4.71352e-05
4.71969e-05
4.72607e-05
4.73265e-05
4.73936e-05
4.74602e-05
4.75238e-05
5.04778e-05
5.04981e-05
5.05172e-05
5.05356e-05
5.05538e-05
5.05722e-05
5.05911e-05
5.06111e-05
5.06326e-05
5.06557e-05
5.06807e-05
5.07075e-05
5.07361e-05
5.0766e-05
5.07969e-05
5.08285e-05
5.08609e-05
5.08941e-05
5.09281e-05
5.0963e-05
5.09987e-05
5.1036e-05
5.10761e-05
5.11198e-05
5.11677e-05
5.12199e-05
5.12761e-05
5.1336e-05
5.13989e-05
5.14645e-05
5.15325e-05
5.1603e-05
5.16765e-05
5.17535e-05
5.1834e-05
5.19177e-05
5.20034e-05
5.20895e-05
5.24232e-05
5.2446e-05
5.24675e-05
5.2488e-05
5.2508e-05
5.2528e-05
5.25483e-05
5.25693e-05
5.25915e-05
5.26153e-05
5.26411e-05
5.2669e-05
5.26989e-05
5.27303e-05
5.27627e-05
5.27959e-05
5.28298e-05
5.28644e-05
5.28998e-05
5.29358e-05
5.29729e-05
5.30119e-05
5.3054e-05
5.31002e-05
5.31511e-05
5.32064e-05
5.32661e-05
5.33296e-05
5.33965e-05
5.34665e-05
5.35395e-05
5.36158e-05
5.3696e-05
5.37805e-05
5.38697e-05
5.39636e-05
5.40618e-05
5.41635e-05
5.24223e-05
5.24466e-05
5.24693e-05
5.24907e-05
5.25113e-05
5.25316e-05
5.2552e-05
5.25728e-05
5.25946e-05
5.26179e-05
5.26434e-05
5.26711e-05
5.27007e-05
5.27316e-05
5.27634e-05
5.27959e-05
5.28291e-05
5.2863e-05
5.28976e-05
5.29331e-05
5.29697e-05
5.30084e-05
5.30504e-05
5.30964e-05
5.3147e-05
5.32022e-05
5.32616e-05
5.3325e-05
5.33919e-05
5.34621e-05
5.35358e-05
5.36134e-05
5.36952e-05
5.37818e-05
5.38736e-05
5.3971e-05
5.40741e-05
5.4183e-05
5.04996e-05
5.05222e-05
5.05431e-05
5.05629e-05
5.05821e-05
5.06013e-05
5.06209e-05
5.06413e-05
5.06632e-05
5.06872e-05
5.07133e-05
5.07411e-05
5.07698e-05
5.07991e-05
5.08288e-05
5.08592e-05
5.08904e-05
5.09226e-05
5.09557e-05
5.09902e-05
5.10268e-05
5.10665e-05
5.111e-05
5.11576e-05
5.12095e-05
5.12655e-05
5.13252e-05
5.13886e-05
5.14555e-05
5.15262e-05
5.16011e-05
5.16806e-05
5.17652e-05
5.18555e-05
5.19524e-05
5.20567e-05
5.21693e-05
4.61734e-05
4.61941e-05
4.62128e-05
4.62301e-05
4.62468e-05
4.62634e-05
4.62804e-05
4.62984e-05
4.63177e-05
4.6339e-05
4.6362e-05
4.63862e-05
4.64109e-05
4.64359e-05
4.6461e-05
4.64866e-05
4.6513e-05
4.65405e-05
4.65692e-05
4.65994e-05
4.66317e-05
4.66665e-05
4.67045e-05
4.67459e-05
4.67909e-05
4.68395e-05
4.68915e-05
4.69469e-05
4.70056e-05
4.70678e-05
4.7134e-05
4.72046e-05
4.72799e-05
4.73607e-05
4.74478e-05
4.75425e-05
4.76461e-05
3.85484e-05
3.8565e-05
3.85795e-05
3.85925e-05
3.86047e-05
3.8617e-05
3.86299e-05
3.86437e-05
3.86588e-05
3.86754e-05
3.86933e-05
3.8712e-05
3.87307e-05
3.87492e-05
3.87676e-05
3.87862e-05
3.88054e-05
3.88256e-05
3.88469e-05
3.88697e-05
3.88942e-05
3.89206e-05
3.89493e-05
3.89802e-05
3.90138e-05
3.905e-05
3.9089e-05
3.91305e-05
3.91747e-05
3.92217e-05
3.92717e-05
3.93252e-05
3.93825e-05
3.94443e-05
3.95114e-05
3.9585e-05
3.96666e-05
2.58379e-05
2.58481e-05
2.58561e-05
2.58625e-05
2.58684e-05
2.58745e-05
2.58812e-05
2.58888e-05
2.58971e-05
2.59063e-05
2.59161e-05
2.59262e-05
2.59359e-05
2.59451e-05
2.59539e-05
2.59624e-05
2.59711e-05
2.59802e-05
2.599e-05
2.60006e-05
2.60122e-05
2.60246e-05
2.6038e-05
2.60523e-05
2.60677e-05
2.60843e-05
2.61023e-05
2.61215e-05
2.61418e-05
2.61634e-05
2.61863e-05
2.62108e-05
2.62373e-05
2.6266e-05
2.62977e-05
2.63334e-05
2.63742e-05
6.17627e-06
6.17677e-06
6.17732e-06
6.17794e-06
6.17864e-06
6.17947e-06
6.18048e-06
6.18168e-06
6.18311e-06
6.18477e-06
6.18668e-06
6.18881e-06
6.19114e-06
6.19364e-06
6.19631e-06
6.19917e-06
6.20227e-06
6.20564e-06
6.20932e-06
6.21335e-06
6.21774e-06
6.22251e-06
6.22767e-06
6.23325e-06
6.23928e-06
6.24581e-06
6.25289e-06
6.26053e-06
6.26876e-06
6.27762e-06
6.28717e-06
6.29745e-06
6.30853e-06
6.32048e-06
6.33337e-06
6.34735e-06
6.36256e-06
6.37155e-06
6.37162e-06
6.37178e-06
6.37203e-06
6.37242e-06
6.37293e-06
6.37362e-06
6.37449e-06
6.37559e-06
6.37692e-06
6.37851e-06
6.38034e-06
6.38237e-06
6.38459e-06
6.38698e-06
6.38957e-06
6.39236e-06
6.39539e-06
6.3987e-06
6.40231e-06
6.40622e-06
6.4104e-06
6.41489e-06
6.41971e-06
6.42494e-06
6.43062e-06
6.43679e-06
6.44347e-06
6.45067e-06
6.45839e-06
6.46663e-06
6.47536e-06
6.48457e-06
6.49427e-06
6.50447e-06
6.51516e-06
6.52627e-06
6.53769e-06
2.97052e-05
2.97103e-05
2.97144e-05
2.97181e-05
2.97219e-05
2.97262e-05
2.97316e-05
2.97385e-05
2.97475e-05
2.97581e-05
2.97693e-05
2.97803e-05
2.97909e-05
2.98011e-05
2.9811e-05
2.98206e-05
2.98301e-05
2.98399e-05
2.98502e-05
2.98609e-05
2.98718e-05
2.98827e-05
2.98936e-05
2.99049e-05
2.9917e-05
2.99302e-05
2.99446e-05
2.99596e-05
2.99748e-05
2.99894e-05
3.00024e-05
3.0013e-05
3.00207e-05
3.00251e-05
3.00258e-05
3.00213e-05
3.00085e-05
2.99823e-05
4.59489e-05
4.59607e-05
4.59715e-05
4.59821e-05
4.59928e-05
4.60042e-05
4.60168e-05
4.60312e-05
4.60476e-05
4.6066e-05
4.60859e-05
4.61067e-05
4.6128e-05
4.61497e-05
4.61717e-05
4.61941e-05
4.62169e-05
4.62406e-05
4.62655e-05
4.62915e-05
4.63185e-05
4.63463e-05
4.63754e-05
4.64065e-05
4.64401e-05
4.64767e-05
4.65161e-05
4.6558e-05
4.66022e-05
4.66477e-05
4.66941e-05
4.67406e-05
4.67872e-05
4.68339e-05
4.68803e-05
4.69256e-05
4.69676e-05
4.70025e-05
5.60891e-05
5.61065e-05
5.61231e-05
5.61393e-05
5.61557e-05
5.61726e-05
5.61906e-05
5.62102e-05
5.62318e-05
5.62554e-05
5.62808e-05
5.63079e-05
5.63363e-05
5.63658e-05
5.63961e-05
5.64272e-05
5.64593e-05
5.64925e-05
5.65271e-05
5.65629e-05
5.66001e-05
5.66389e-05
5.668e-05
5.67243e-05
5.67726e-05
5.68249e-05
5.68812e-05
5.69413e-05
5.70047e-05
5.70709e-05
5.71392e-05
5.72097e-05
5.72824e-05
5.73576e-05
5.74351e-05
5.75142e-05
5.75932e-05
5.76693e-05
6.19894e-05
6.20113e-05
6.20321e-05
6.20525e-05
6.20728e-05
6.20935e-05
6.21151e-05
6.2138e-05
6.21625e-05
6.2189e-05
6.22176e-05
6.22483e-05
6.22809e-05
6.23151e-05
6.23505e-05
6.23869e-05
6.24245e-05
6.24633e-05
6.25034e-05
6.25447e-05
6.25876e-05
6.26325e-05
6.26806e-05
6.27329e-05
6.27899e-05
6.28518e-05
6.29186e-05
6.29898e-05
6.3065e-05
6.31438e-05
6.32259e-05
6.33116e-05
6.34012e-05
6.34951e-05
6.35935e-05
6.36959e-05
6.38014e-05
6.39082e-05
6.46868e-05
6.47118e-05
6.47355e-05
6.47584e-05
6.47811e-05
6.4804e-05
6.48273e-05
6.48516e-05
6.48773e-05
6.49049e-05
6.49347e-05
6.4967e-05
6.50013e-05
6.50375e-05
6.5075e-05
6.51137e-05
6.51535e-05
6.51945e-05
6.52368e-05
6.52803e-05
6.53255e-05
6.53731e-05
6.54244e-05
6.54804e-05
6.55415e-05
6.5608e-05
6.56797e-05
6.57561e-05
6.58371e-05
6.59222e-05
6.60116e-05
6.61055e-05
6.62045e-05
6.6309e-05
6.64196e-05
6.65362e-05
6.66587e-05
6.67863e-05
6.46857e-05
6.47122e-05
6.47373e-05
6.47612e-05
6.47846e-05
6.48078e-05
6.48312e-05
6.48554e-05
6.48807e-05
6.49078e-05
6.49372e-05
6.49691e-05
6.50032e-05
6.50389e-05
6.50758e-05
6.51138e-05
6.51529e-05
6.51932e-05
6.52347e-05
6.52776e-05
6.53222e-05
6.53696e-05
6.54207e-05
6.54765e-05
6.55374e-05
6.56037e-05
6.56752e-05
6.57515e-05
6.58325e-05
6.59181e-05
6.60083e-05
6.61036e-05
6.62046e-05
6.63117e-05
6.64256e-05
6.65466e-05
6.66753e-05
6.68118e-05
6.20125e-05
6.20372e-05
6.20604e-05
6.20826e-05
6.21044e-05
6.21262e-05
6.21486e-05
6.21721e-05
6.21973e-05
6.22248e-05
6.22545e-05
6.22861e-05
6.23191e-05
6.23528e-05
6.23874e-05
6.2423e-05
6.24597e-05
6.24978e-05
6.25374e-05
6.25789e-05
6.26231e-05
6.26708e-05
6.27228e-05
6.27796e-05
6.28412e-05
6.29077e-05
6.2979e-05
6.30549e-05
6.31355e-05
6.32209e-05
6.33118e-05
6.34086e-05
6.3512e-05
6.36228e-05
6.3742e-05
6.38706e-05
6.40101e-05
5.61081e-05
5.61303e-05
5.61506e-05
5.61696e-05
5.61879e-05
5.62064e-05
5.62253e-05
5.62454e-05
5.62672e-05
5.62909e-05
5.63165e-05
5.63436e-05
5.63714e-05
5.63996e-05
5.64282e-05
5.64575e-05
5.64879e-05
5.65195e-05
5.65528e-05
5.6588e-05
5.66257e-05
5.66664e-05
5.67105e-05
5.67585e-05
5.68105e-05
5.68667e-05
5.69271e-05
5.69916e-05
5.70602e-05
5.71333e-05
5.72113e-05
5.72947e-05
5.73841e-05
5.74803e-05
5.75845e-05
5.76982e-05
5.7823e-05
4.59621e-05
4.59794e-05
4.59945e-05
4.6008e-05
4.60208e-05
4.60337e-05
4.60474e-05
4.60622e-05
4.60784e-05
4.60962e-05
4.61153e-05
4.61353e-05
4.61554e-05
4.61755e-05
4.61954e-05
4.62155e-05
4.62362e-05
4.6258e-05
4.62812e-05
4.63062e-05
4.6333e-05
4.63619e-05
4.63931e-05
4.64267e-05
4.64632e-05
4.65026e-05
4.65451e-05
4.65906e-05
4.66391e-05
4.66909e-05
4.67462e-05
4.68055e-05
4.68693e-05
4.69383e-05
4.70137e-05
4.70969e-05
4.71898e-05
2.97113e-05
2.97212e-05
2.97288e-05
2.97346e-05
2.97397e-05
2.97453e-05
2.97516e-05
2.97591e-05
2.97673e-05
2.97764e-05
2.97859e-05
2.97955e-05
2.98047e-05
2.98134e-05
2.98214e-05
2.9829e-05
2.98366e-05
2.98446e-05
2.98533e-05
2.98628e-05
2.98732e-05
2.98844e-05
2.98962e-05
2.99088e-05
2.99224e-05
2.99371e-05
2.99532e-05
2.99704e-05
2.99887e-05
3.00081e-05
3.00288e-05
3.0051e-05
3.00751e-05
3.01015e-05
3.01312e-05
3.01652e-05
3.0205e-05
6.37121e-06
6.37166e-06
6.37216e-06
6.37272e-06
6.37336e-06
6.37414e-06
6.37507e-06
6.37618e-06
6.37751e-06
6.37908e-06
6.38089e-06
6.38292e-06
6.38512e-06
6.38748e-06
6.39e-06
6.3927e-06
6.39561e-06
6.39878e-06
6.40226e-06
6.40608e-06
6.41025e-06
6.41478e-06
6.41968e-06
6.42498e-06
6.43071e-06
6.43691e-06
6.44364e-06
6.45091e-06
6.45876e-06
6.46721e-06
6.47633e-06
6.48616e-06
6.49677e-06
6.50821e-06
6.52059e-06
6.53404e-06
6.54869e-06
6.50404e-06
6.50404e-06
6.50413e-06
6.50432e-06
6.50463e-06
6.50509e-06
6.5057e-06
6.50652e-06
6.50755e-06
6.50882e-06
6.51031e-06
6.51203e-06
6.51395e-06
6.51605e-06
6.51831e-06
6.52074e-06
6.52336e-06
6.52622e-06
6.52935e-06
6.53276e-06
6.53646e-06
6.54043e-06
6.54468e-06
6.54927e-06
6.55427e-06
6.55972e-06
6.56564e-06
6.57205e-06
6.57897e-06
6.58638e-06
6.59428e-06
6.60264e-06
6.61146e-06
6.62075e-06
6.63052e-06
6.64077e-06
6.65145e-06
6.66247e-06
3.25662e-05
3.25697e-05
3.25721e-05
3.25743e-05
3.25769e-05
3.25802e-05
3.25848e-05
3.25912e-05
3.25998e-05
3.26101e-05
3.26214e-05
3.26322e-05
3.26418e-05
3.26508e-05
3.26592e-05
3.26672e-05
3.2675e-05
3.2683e-05
3.26913e-05
3.27001e-05
3.27089e-05
3.27174e-05
3.27256e-05
3.27337e-05
3.27423e-05
3.27519e-05
3.27626e-05
3.2774e-05
3.27853e-05
3.27955e-05
3.28034e-05
3.2808e-05
3.28089e-05
3.28056e-05
3.27977e-05
3.27838e-05
3.2761e-05
3.27241e-05
5.17184e-05
5.1729e-05
5.17386e-05
5.17481e-05
5.17581e-05
5.17689e-05
5.1781e-05
5.17951e-05
5.18114e-05
5.18298e-05
5.18497e-05
5.18703e-05
5.18912e-05
5.19123e-05
5.19335e-05
5.19549e-05
5.19768e-05
5.19996e-05
5.20235e-05
5.20486e-05
5.20747e-05
5.21016e-05
5.21296e-05
5.21595e-05
5.21919e-05
5.22271e-05
5.22652e-05
5.23059e-05
5.23486e-05
5.23925e-05
5.24369e-05
5.24811e-05
5.25248e-05
5.25681e-05
5.26105e-05
5.26513e-05
5.26882e-05
5.27176e-05
6.40794e-05
6.40963e-05
6.41123e-05
6.41281e-05
6.41443e-05
6.41612e-05
6.41794e-05
6.41993e-05
6.42213e-05
6.42454e-05
6.42713e-05
6.42988e-05
6.43275e-05
6.43572e-05
6.43877e-05
6.44191e-05
6.44514e-05
6.4485e-05
6.45201e-05
6.45567e-05
6.45948e-05
6.46346e-05
6.46768e-05
6.47222e-05
6.47714e-05
6.48249e-05
6.48825e-05
6.4944e-05
6.5009e-05
6.50768e-05
6.51471e-05
6.52194e-05
6.5294e-05
6.53708e-05
6.54498e-05
6.55304e-05
6.56107e-05
6.5688e-05
7.14349e-05
7.14568e-05
7.14777e-05
7.14983e-05
7.1519e-05
7.15403e-05
7.15625e-05
7.15862e-05
7.16116e-05
7.16391e-05
7.16687e-05
7.17004e-05
7.17339e-05
7.17689e-05
7.18053e-05
7.18429e-05
7.18817e-05
7.1922e-05
7.19638e-05
7.20072e-05
7.20524e-05
7.21e-05
7.21508e-05
7.22058e-05
7.22656e-05
7.23305e-05
7.24004e-05
7.24751e-05
7.25542e-05
7.26373e-05
7.27243e-05
7.28151e-05
7.29101e-05
7.30097e-05
7.3114e-05
7.32227e-05
7.33348e-05
7.34485e-05
7.48452e-05
7.48705e-05
7.48947e-05
7.49182e-05
7.49417e-05
7.49653e-05