/*--------------------------------*- C++ -*----------------------------------*\
| =========                 |                                                 |
| \\      /  F ield         | OpenFOAM: The Open Source CFD Toolbox           |
|  \\    /   O peration     | Version:  2.3.1                                 |
|   \\  /    A nd           | Web:      www.OpenFOAM.org                      |
|    \\/     M anipulation  |                                                 |
\*---------------------------------------------------------------------------*/
FoamFile
{
    version     2.0;
    format      ascii;
    class       surfaceScalarField;
    location    "20";
    object      phi;
}
// * * * * * * * * * * * * * * * * * * * * * * * * * * * * * * * * * * * * * //

dimensions      [0 3 -1 0 0 0 0];

internalField   nonuniform List<scalar> 
108425
(
7.56146e-07
2.36038e-10
1.33206e-09
7.54832e-07
8.48232e-11
1.22944e-09
7.53761e-07
-5.91583e-11
1.13037e-09
7.52932e-07
-1.94762e-10
1.02298e-09
7.52352e-07
-3.20462e-10
9.00905e-10
7.52026e-07
-4.36157e-10
7.61769e-10
7.51974e-07
-5.50205e-10
6.03062e-10
7.5223e-07
-6.75267e-10
4.1914e-10
7.52842e-07
-8.21151e-10
2.09276e-10
7.53849e-07
-9.91281e-10
-1.58925e-11
7.5527e-07
-1.18418e-09
-2.37508e-10
7.57113e-07
-1.39708e-09
-4.45646e-10
7.59379e-07
-1.62961e-09
-6.36163e-10
7.62068e-07
-1.87812e-09
-8.11449e-10
7.65178e-07
-2.13262e-09
-9.76578e-10
7.68701e-07
-2.38344e-09
-1.13941e-09
7.7264e-07
-2.62714e-09
-1.31196e-09
7.77012e-07
-2.86537e-09
-1.50748e-09
7.81847e-07
-3.10012e-09
-1.73469e-09
7.8717e-07
-3.32921e-09
-1.99312e-09
7.92991e-07
-3.54865e-09
-2.27288e-09
7.99315e-07
-3.76182e-09
-2.56219e-09
8.06155e-07
-3.98265e-09
-2.85674e-09
8.13541e-07
-4.22619e-09
-3.16004e-09
8.21514e-07
-4.49673e-09
-3.47622e-09
8.30105e-07
-4.78691e-09
-3.80436e-09
8.39327e-07
-5.084e-09
-4.13797e-09
8.49166e-07
-5.37322e-09
-4.46596e-09
8.59574e-07
-5.63669e-09
-4.77139e-09
8.70453e-07
-5.84986e-09
-5.02917e-09
8.81638e-07
-5.97959e-09
-5.20466e-09
8.92879e-07
-5.9862e-09
-5.25516e-09
9.03827e-07
-5.81884e-09
-5.12922e-09
9.13976e-07
-5.39553e-09
-4.75393e-09
9.22556e-07
-4.57058e-09
-4.00936e-09
9.28332e-07
-3.08426e-09
-2.69115e-09
9.29284e-07
-5.16998e-10
-4.35669e-10
3.95089e-09
3.4215e-09
8.39632e-07
3.28954e-10
1.50494e-09
8.38314e-07
1.01318e-10
1.302e-09
8.37266e-07
-1.12927e-10
1.10161e-09
8.36487e-07
-3.11127e-10
8.95016e-10
8.35979e-07
-4.91018e-10
6.79257e-10
8.35744e-07
-6.53776e-10
4.52599e-10
8.358e-07
-8.07919e-10
2.01596e-10
8.36183e-07
-9.66436e-10
-9.225e-11
8.36935e-07
-1.14309e-09
-4.29384e-10
8.38086e-07
-1.34579e-09
-7.96853e-10
8.39655e-07
-1.57822e-09
-1.17471e-09
8.41649e-07
-1.84183e-09
-1.54995e-09
8.44078e-07
-2.1355e-09
-1.92282e-09
8.46947e-07
-2.45019e-09
-2.2966e-09
8.50253e-07
-2.76994e-09
-2.66935e-09
8.53994e-07
-3.08049e-09
-3.04389e-09
8.58176e-07
-3.37424e-09
-3.43428e-09
8.62818e-07
-3.64894e-09
-3.85831e-09
8.67948e-07
-3.90333e-09
-4.32685e-09
8.73587e-07
-4.1343e-09
-4.83437e-09
8.79743e-07
-4.34237e-09
-5.36241e-09
8.86422e-07
-4.54014e-09
-5.89996e-09
8.93645e-07
-4.75046e-09
-6.45518e-09
9.01454e-07
-4.99206e-09
-7.04318e-09
9.09893e-07
-5.26706e-09
-7.66906e-09
9.18995e-07
-5.56175e-09
-8.32719e-09
9.28774e-07
-5.85336e-09
-9.00963e-09
9.39222e-07
-6.11333e-09
-9.70746e-09
9.50297e-07
-6.30609e-09
-1.04064e-08
9.61914e-07
-6.38504e-09
-1.10817e-08
9.73922e-07
-6.28988e-09
-1.16978e-08
9.86101e-07
-5.94573e-09
-1.22188e-08
9.98145e-07
-5.25584e-09
-1.26075e-08
1.00962e-06
-4.06613e-09
-1.28049e-08
1.01987e-06
-2.11789e-09
-1.27044e-08
1.0279e-06
1.0098e-09
-1.21191e-08
1.0321e-06
6.04286e-09
-1.07645e-08
1.40573e-08
-8.09765e-09
8.59022e-07
3.02617e-10
1.62959e-09
8.57715e-07
4.77227e-11
1.36053e-09
8.56696e-07
-1.87581e-10
1.0935e-09
8.5596e-07
-4.01142e-10
8.25823e-10
8.55504e-07
-5.91371e-10
5.56746e-10
8.55327e-07
-7.58462e-10
2.81443e-10
8.55446e-07
-9.06273e-10
-2.0979e-11
8.55892e-07
-1.04389e-09
-3.68e-10
8.56697e-07
-1.18372e-09
-7.64637e-10
8.57889e-07
-1.33932e-09
-1.19785e-09
8.59483e-07
-1.52189e-09
-1.65042e-09
8.61493e-07
-1.73714e-09
-2.11494e-09
8.63936e-07
-1.98228e-09
-2.59588e-09
8.66821e-07
-2.245e-09
-3.09107e-09
8.7015e-07
-2.50875e-09
-3.58956e-09
8.73918e-07
-2.75918e-09
-4.08972e-09
8.78134e-07
-2.98613e-09
-4.60378e-09
8.82816e-07
-3.18286e-09
-5.14864e-09
8.8799e-07
-3.3448e-09
-5.73175e-09
8.93666e-07
-3.47078e-09
-6.33955e-09
8.99843e-07
-3.56864e-09
-6.95135e-09
9.06529e-07
-3.65776e-09
-7.56842e-09
9.13757e-07
-3.76153e-09
-8.2171e-09
9.21581e-07
-3.89374e-09
-8.92181e-09
9.3005e-07
-4.05094e-09
-9.6856e-09
9.39201e-07
-4.21472e-09
-1.04979e-08
9.49051e-07
-4.35619e-09
-1.13471e-08
9.59597e-07
-4.43743e-09
-1.22215e-08
9.70806e-07
-4.41063e-09
-1.31046e-08
9.82603e-07
-4.21525e-09
-1.39668e-08
9.94859e-07
-3.7746e-09
-1.47709e-08
1.00739e-06
-2.98796e-09
-1.54917e-08
1.01996e-06
-1.7112e-09
-1.61126e-08
1.03222e-06
2.63222e-10
-1.65921e-08
1.04366e-06
3.30267e-09
-1.68552e-08
1.05347e-06
7.93214e-09
-1.67306e-08
1.06043e-06
1.50111e-08
-1.5929e-08
2.59229e-08
-1.40107e-08
8.65726e-07
2.03749e-10
1.69326e-09
8.6444e-07
-4.73617e-11
1.38043e-09
8.63452e-07
-2.74812e-10
1.07511e-09
8.62754e-07
-4.76486e-10
7.73481e-10
8.62341e-07
-6.51034e-10
4.72358e-10
8.62214e-07
-7.9635e-10
1.65842e-10
8.62382e-07
-9.11775e-10
-1.63144e-10
8.6287e-07
-1.00204e-09
-5.29331e-10
8.63703e-07
-1.07844e-09
-9.38338e-10
8.64906e-07
-1.15767e-09
-1.38492e-09
8.665e-07
-1.25527e-09
-1.86044e-09
8.68506e-07
-1.37804e-09
-2.36515e-09
8.70948e-07
-1.52114e-09
-2.90285e-09
8.73838e-07
-1.67221e-09
-3.46332e-09
8.77178e-07
-1.81835e-09
-4.03001e-09
8.80965e-07
-1.94885e-09
-4.59755e-09
8.85207e-07
-2.05477e-09
-5.17293e-09
8.8992e-07
-2.12864e-09
-5.76739e-09
8.95121e-07
-2.16586e-09
-6.38055e-09
9.00812e-07
-2.16767e-09
-6.9939e-09
9.06985e-07
-2.14678e-09
-7.59454e-09
9.13651e-07
-2.12106e-09
-8.20296e-09
9.20857e-07
-2.10553e-09
-8.86167e-09
9.28666e-07
-2.10434e-09
-9.5991e-09
9.37139e-07
-2.10844e-09
-1.04147e-08
9.46314e-07
-2.09742e-09
-1.12932e-08
9.56217e-07
-2.0411e-09
-1.22176e-08
9.66849e-07
-1.89882e-09
-1.31709e-08
9.78189e-07
-1.61923e-09
-1.41306e-08
9.90173e-07
-1.13791e-09
-1.50619e-08
1.0027e-06
-3.71691e-10
-1.59303e-08
1.01564e-06
8.0409e-10
-1.67274e-08
1.02881e-06
2.56615e-09
-1.74525e-08
1.04199e-06
5.16695e-09
-1.80827e-08
1.05484e-06
8.98898e-09
-1.85396e-08
1.06688e-06
1.45915e-08
-1.86973e-08
1.07742e-06
2.28191e-08
-1.83488e-08
3.49328e-08
-1.7185e-08
8.68343e-07
8.10304e-11
1.70262e-09
8.67081e-07
-1.45383e-10
1.36053e-09
8.6612e-07
-3.48316e-10
1.03416e-09
8.65454e-07
-5.22019e-10
7.11484e-10
8.65079e-07
-6.63362e-10
3.86912e-10
8.64995e-07
-7.69639e-10
5.79338e-11
8.65206e-07
-8.39355e-10
-2.83572e-10
8.65727e-07
-8.74865e-10
-6.47787e-10
8.66577e-07
-8.85312e-10
-1.04353e-09
8.67782e-07
-8.86461e-10
-1.47621e-09
8.69369e-07
-8.93119e-10
-1.94923e-09
8.71369e-07
-9.10028e-10
-2.4684e-09
8.73811e-07
-9.30803e-10
-3.03193e-09
8.76707e-07
-9.45511e-10
-3.62291e-09
8.80059e-07
-9.47302e-10
-4.22306e-09
8.83866e-07
-9.32612e-10
-4.82337e-09
8.88134e-07
-8.98552e-10
-5.42414e-09
8.92876e-07
-8.41854e-10
-6.02887e-09
8.98101e-07
-7.60806e-10
-6.62982e-09
9.03802e-07
-6.58485e-10
-7.20958e-09
9.09968e-07
-5.4305e-10
-7.77025e-09
9.16619e-07
-4.22887e-10
-8.34939e-09
9.23812e-07
-3.00457e-10
-8.99736e-09
9.31618e-07
-1.69818e-10
-9.74103e-09
9.40105e-07
-1.92295e-11
-1.05758e-08
9.4932e-07
1.7114e-10
-1.14835e-08
9.59293e-07
4.27992e-10
-1.24425e-08
9.70036e-07
7.88384e-10
-1.34301e-08
9.81536e-07
1.30036e-09
-1.44197e-08
9.93749e-07
2.02668e-09
-1.53776e-08
1.0066e-06
3.05622e-09
-1.62814e-08
1.02002e-06
4.52138e-09
-1.71297e-08
1.03389e-06
6.61367e-09
-1.79256e-08
1.04811e-06
9.60444e-09
-1.86517e-08
1.06248e-06
1.38739e-08
-1.92531e-08
1.07674e-06
1.996e-08
-1.96307e-08
1.09054e-06
2.86413e-08
-1.96289e-08
4.10573e-08
-1.90183e-08
8.69193e-07
-4.01317e-11
1.68758e-09
8.67953e-07
-2.21872e-10
1.31669e-09
8.67019e-07
-3.83606e-10
9.68583e-10
8.66386e-07
-5.14075e-10
6.25678e-10
8.66048e-07
-6.08305e-10
2.83033e-10
8.66002e-07
-6.65273e-10
-5.90339e-11
8.66251e-07
-6.85172e-10
-4.02836e-10
8.668e-07
-6.69173e-10
-7.54648e-10
8.67664e-07
-6.22782e-10
-1.12659e-09
8.6887e-07
-5.56485e-10
-1.53557e-09
8.70453e-07
-4.7953e-10
-1.99737e-09
8.72455e-07
-3.92589e-10
-2.51901e-09
8.74903e-07
-2.89225e-10
-3.08978e-09
8.77809e-07
-1.64182e-10
-3.68742e-09
8.81174e-07
-1.87226e-11
-4.29332e-09
8.84997e-07
1.41448e-10
-4.89688e-09
8.89283e-07
3.10405e-10
-5.4952e-09
8.94043e-07
4.8475e-10
-6.087e-09
8.99281e-07
6.63082e-10
-6.6616e-09
9.04985e-07
8.4463e-10
-7.20718e-09
9.11149e-07
1.02997e-09
-7.73697e-09
9.17799e-07
1.224e-09
-8.29677e-09
9.24998e-07
1.43722e-09
-8.93627e-09
9.32822e-07
1.68301e-09
-9.67745e-09
9.41343e-07
1.97455e-09
-1.05141e-08
9.50613e-07
2.32675e-09
-1.14264e-08
9.60672e-07
2.76046e-09
-1.23906e-08
9.71536e-07
3.30582e-09
-1.33817e-08
9.83206e-07
4.00364e-09
-1.43736e-08
9.95662e-07
4.91145e-09
-1.53405e-08
1.00887e-06
6.11716e-09
-1.62701e-08
1.0228e-06
7.75469e-09
-1.71667e-08
1.03743e-06
1.00162e-08
-1.80307e-08
1.05272e-06
1.31622e-08
-1.88428e-08
1.06861e-06
1.7543e-08
-1.95639e-08
1.08507e-06
2.36342e-08
-2.01284e-08
1.10205e-06
3.20929e-08
-2.04372e-08
4.38217e-08
-2.03449e-08
8.69035e-07
1.68096e-09
8.67814e-07
-2.72869e-10
1.27147e-09
8.66911e-07
-3.71204e-10
8.91359e-10
8.66311e-07
-4.40664e-10
5.26418e-10
8.66007e-07
-4.7621e-10
1.72022e-10
8.65995e-07
-4.78362e-10
-1.74892e-10
8.66275e-07
-4.48579e-10
-5.16634e-10
8.66849e-07
-3.86758e-10
-8.5653e-10
8.67728e-07
-2.93262e-10
-1.20857e-09
8.68941e-07
-1.70029e-10
-1.59945e-09
8.70533e-07
-1.80547e-11
-2.05369e-09
8.72549e-07
1.66159e-10
-2.57472e-09
8.75015e-07
3.85567e-10
-3.14078e-09
8.77937e-07
6.37828e-10
-3.7242e-09
8.81313e-07
9.13351e-10
-4.30784e-09
8.85142e-07
1.19862e-09
-4.88593e-09
8.89431e-07
1.48112e-09
-5.45975e-09
8.94192e-07
1.75247e-09
-6.02903e-09
8.99429e-07
2.00928e-09
-6.58354e-09
9.05134e-07
2.25402e-09
-7.11395e-09
9.11304e-07
2.49627e-09
-7.63623e-09
9.1797e-07
2.75281e-09
-8.19473e-09
9.25196e-07
3.04426e-09
-8.83275e-09
9.33058e-07
3.38882e-09
-9.56778e-09
9.41628e-07
3.79891e-09
-1.03946e-08
9.50966e-07
4.28451e-09
-1.1296e-08
9.61116e-07
4.85923e-09
-1.22485e-08
9.72104e-07
5.54494e-09
-1.32275e-08
9.83946e-07
6.37499e-09
-1.42129e-08
9.96647e-07
7.40128e-09
-1.51913e-08
1.01022e-06
8.70643e-09
-1.61586e-08
1.02467e-06
1.04149e-08
-1.71149e-08
1.04004e-06
1.27013e-08
-1.80503e-08
1.05635e-06
1.57973e-08
-1.89454e-08
1.07366e-06
2.0008e-08
-1.97765e-08
1.09207e-06
2.57345e-08
-2.05091e-08
1.11174e-06
3.35086e-08
-2.10878e-08
4.40273e-08
-2.14275e-08
8.66678e-07
-2.99771e-10
1.2297e-09
8.65803e-07
-3.13311e-10
8.16682e-10
8.65234e-07
-3.07213e-10
4.35465e-10
8.64957e-07
-2.77239e-10
7.80759e-11
8.64969e-07
-2.23025e-10
-2.6698e-10
8.65271e-07
-1.44597e-10
-6.06208e-10
8.65865e-07
-3.95926e-11
-9.41239e-10
8.66761e-07
9.63233e-11
-1.28553e-09
8.67991e-07
2.70689e-10
-1.67056e-09
8.69605e-07
4.911e-10
-2.12295e-09
8.71647e-07
7.61365e-10
-2.63793e-09
8.74139e-07
1.07798e-09
-3.18439e-09
8.7708e-07
1.4294e-09
-3.73171e-09
8.80462e-07
1.79888e-09
-4.26776e-09
8.84286e-07
2.17136e-09
-4.79716e-09
8.88564e-07
2.53407e-09
-5.33074e-09
8.93312e-07
2.87787e-09
-5.8737e-09
8.9854e-07
3.19817e-09
-6.41697e-09
9.04245e-07
3.4981e-09
-6.94863e-09
9.10429e-07
3.79186e-09
-7.4798e-09
9.17126e-07
4.10355e-09
-8.04713e-09
9.24395e-07
4.46044e-09
-8.68539e-09
9.32309e-07
4.88391e-09
-9.40955e-09
9.4094e-07
5.3858e-09
-1.02181e-08
9.50352e-07
5.97185e-09
-1.10987e-08
9.60593e-07
6.64856e-09
-1.2031e-08
9.71702e-07
7.42968e-09
-1.29934e-08
9.83709e-07
8.34113e-09
-1.39725e-08
9.96646e-07
9.42783e-09
-1.49635e-08
1.01056e-06
1.07618e-08
-1.59655e-08
1.0255e-06
1.24487e-08
-1.69736e-08
1.04153e-06
1.46341e-08
-1.79724e-08
1.05877e-06
1.75103e-08
-1.89456e-08
1.07733e-06
2.13274e-08
-1.98814e-08
1.09742e-06
2.64066e-08
-2.07674e-08
1.11936e-06
3.31548e-08
-2.15796e-08
4.20747e-08
-2.22757e-08
8.63792e-07
-2.96398e-10
1.18522e-09
8.6294e-07
-2.18694e-10
7.56988e-10
8.62393e-07
-1.36765e-10
3.76422e-10
8.62133e-07
-4.59443e-11
2.92949e-11
8.62156e-07
5.82277e-11
-3.04532e-10
8.62469e-07
1.79925e-10
-6.37284e-10
8.63076e-07
3.23658e-10
-9.70109e-10
8.63988e-07
4.98247e-10
-1.31479e-09
8.65241e-07
7.17187e-10
-1.69939e-09
8.66884e-07
9.92448e-10
-2.14419e-09
8.68958e-07
1.32527e-09
-2.63721e-09
8.71475e-07
1.70319e-09
-3.1431e-09
8.74432e-07
2.1069e-09
-3.6341e-09
8.77818e-07
2.51902e-09
-4.10644e-09
8.81635e-07
2.92783e-09
-4.57341e-09
8.85897e-07
3.32627e-09
-5.05395e-09
8.90626e-07
3.70874e-09
-5.55999e-09
8.95839e-07
4.07014e-09
-6.08515e-09
9.01541e-07
4.41131e-09
-6.61531e-09
9.07743e-07
4.74602e-09
-7.15533e-09
9.14477e-07
5.10034e-09
-7.73072e-09
9.21799e-07
5.50357e-09
-8.36514e-09
9.29774e-07
5.97801e-09
-9.06969e-09
9.38471e-07
6.53515e-09
-9.84637e-09
9.47955e-07
7.17825e-09
-1.06904e-08
9.58283e-07
7.90862e-09
-1.15882e-08
9.69503e-07
8.73272e-09
-1.25232e-08
9.81662e-07
9.66791e-09
-1.34851e-08
9.94812e-07
1.0749e-08
-1.44714e-08
1.00902e-06
1.20334e-08
-1.54824e-08
1.02438e-06
1.36033e-08
-1.65135e-08
1.041e-06
1.55703e-08
-1.75506e-08
1.05901e-06
1.80815e-08
-1.85814e-08
1.07861e-06
2.13272e-08
-1.95991e-08
1.10007e-06
2.55474e-08
-2.06013e-08
1.12377e-06
3.10359e-08
-2.15833e-08
3.81385e-08
-2.25281e-08
8.56834e-07
-2.51001e-10
1.13325e-09
8.55998e-07
-1.05534e-10
7.22713e-10
8.55464e-07
2.86835e-11
3.68965e-10
8.55208e-07
1.57869e-10
5.17857e-11
8.5523e-07
2.91618e-10
-2.5506e-10
8.55539e-07
4.38535e-10
-5.67296e-10
8.56145e-07
6.0502e-10
-8.87715e-10
8.57066e-07
8.00298e-10
-1.22332e-09
8.58337e-07
1.03816e-09
-1.59177e-09
8.60003e-07
1.32947e-09
-2.00282e-09
8.62098e-07
1.67163e-09
-2.44155e-09
8.64633e-07
2.04761e-09
-2.87918e-09
8.676e-07
2.43634e-09
-3.29665e-09
8.70991e-07
2.82289e-09
-3.69471e-09
8.74805e-07
3.20171e-09
-4.08808e-09
8.79056e-07
3.5735e-09
-4.49803e-09
8.83768e-07
3.93897e-09
-4.94212e-09
8.88964e-07
4.29491e-09
-5.4207e-09
8.94659e-07
4.64002e-09
-5.92389e-09
9.00873e-07
4.98445e-09
-6.45278e-09
9.07643e-07
5.35014e-09
-7.01931e-09
9.15017e-07
5.76162e-09
-7.63229e-09
9.23053e-07
6.2373e-09
-8.29508e-09
9.31812e-07
6.78721e-09
-9.0112e-09
9.4136e-07
7.41422e-09
-9.78422e-09
9.51761e-07
8.11777e-09
-1.06105e-08
9.63075e-07
8.89912e-09
-1.14799e-08
9.7536e-07
9.76676e-09
-1.2384e-08
9.88685e-07
1.07432e-08
-1.33189e-08
1.00314e-06
1.18687e-08
-1.42864e-08
1.01882e-06
1.32011e-08
-1.52852e-08
1.03588e-06
1.48164e-08
-1.63055e-08
1.05449e-06
1.6813e-08
-1.73373e-08
1.07487e-06
1.93171e-08
-1.83729e-08
1.09734e-06
2.24869e-08
-1.94111e-08
1.12232e-06
2.65127e-08
-2.04571e-08
3.16091e-08
-2.15077e-08
8.37192e-07
-1.50226e-10
1.06734e-09
8.36369e-07
-1.08424e-11
7.2812e-10
8.35843e-07
1.11164e-10
4.44092e-10
8.35584e-07
2.24235e-10
1.92766e-10
8.3559e-07
3.37137e-10
-5.20514e-11
8.35876e-07
4.58894e-10
-3.06239e-10
8.3646e-07
5.94935e-10
-5.74177e-10
8.37367e-07
7.5086e-10
-8.57585e-10
8.38632e-07
9.35275e-10
-1.16237e-09
8.40297e-07
1.15393e-09
-1.48909e-09
8.42392e-07
1.40305e-09
-1.82602e-09
8.44926e-07
1.6694e-09
-2.15618e-09
8.47894e-07
1.93837e-09
-2.47e-09
8.51285e-07
2.20116e-09
-2.76931e-09
8.55094e-07
2.45668e-09
-3.06404e-09
8.59329e-07
2.70963e-09
-3.37121e-09
8.64013e-07
2.96499e-09
-3.70947e-09
8.69172e-07
3.22276e-09
-4.08715e-09
8.74834e-07
3.4814e-09
-4.50298e-09
8.81029e-07
3.74587e-09
-4.95634e-09
8.87796e-07
4.02879e-09
-5.44646e-09
8.95182e-07
4.34383e-09
-5.96828e-09
9.03236e-07
4.70079e-09
-6.51666e-09
9.12011e-07
5.10576e-09
-7.0941e-09
9.21573e-07
5.56156e-09
-7.70949e-09
9.3199e-07
6.06807e-09
-8.36741e-09
9.4333e-07
6.62464e-09
-9.06552e-09
9.55662e-07
7.23337e-09
-9.79835e-09
9.69062e-07
7.90452e-09
-1.05615e-08
9.83628e-07
8.65978e-09
-1.13565e-08
9.99482e-07
9.53025e-09
-1.21835e-08
1.01678e-06
1.05551e-08
-1.30362e-08
1.03572e-06
1.1783e-08
-1.3906e-08
1.05654e-06
1.32749e-08
-1.47842e-08
1.07959e-06
1.51077e-08
-1.56691e-08
1.1053e-06
1.73744e-08
-1.65689e-08
2.01766e-08
-1.74876e-08
7.53539e-07
9.96233e-10
7.52728e-07
7.99779e-10
7.52193e-07
6.46033e-10
7.519e-07
5.17024e-10
7.51845e-07
3.92749e-10
7.52044e-07
2.59972e-10
7.52524e-07
1.15101e-10
7.53315e-07
-4.02749e-11
7.54454e-07
-2.04201e-10
7.55983e-07
-3.75195e-10
7.57933e-07
-5.47082e-10
7.60315e-07
-7.12635e-10
7.63122e-07
-8.6795e-10
7.66337e-07
-1.01379e-09
7.69948e-07
-1.15463e-09
7.73957e-07
-1.29902e-09
7.78381e-07
-1.45886e-09
7.83248e-07
-1.64429e-09
7.8859e-07
-1.86075e-09
7.94444e-07
-2.10792e-09
8.0085e-07
-2.37808e-09
8.07853e-07
-2.65898e-09
8.15495e-07
-2.94111e-09
8.23825e-07
-3.22455e-09
8.32905e-07
-3.51771e-09
8.42801e-07
-3.82851e-09
8.53586e-07
-4.16048e-09
8.65331e-07
-4.5115e-09
8.78112e-07
-4.87605e-09
8.92023e-07
-5.25188e-09
9.0719e-07
-5.63641e-09
9.23769e-07
-6.0242e-09
9.41962e-07
-6.40928e-09
9.62023e-07
-6.78601e-09
9.84285e-07
-7.15508e-09
1.00919e-06
-7.52687e-09
-7.91279e-09
8.80909e-07
1.71777e-10
2.81084e-09
8.79549e-07
6.43838e-11
2.52511e-09
8.78466e-07
-3.27479e-11
2.24575e-09
8.77659e-07
-1.20036e-10
1.95014e-09
8.77132e-07
-1.97285e-10
1.62525e-09
8.76894e-07
-2.66023e-10
1.26577e-09
8.76965e-07
-3.3503e-10
8.67568e-10
8.77378e-07
-4.18003e-10
4.23595e-10
8.78176e-07
-5.25083e-10
-6.39421e-11
8.79396e-07
-6.56228e-10
-5.79309e-10
8.8106e-07
-8.07162e-10
-1.09417e-09
8.83179e-07
-9.74347e-10
-1.58986e-09
8.85758e-07
-1.15553e-09
-2.05996e-09
8.88801e-07
-1.34545e-09
-2.50905e-09
8.92306e-07
-1.53467e-09
-2.94725e-09
8.96273e-07
-1.71577e-09
-3.38992e-09
9.00707e-07
-1.88715e-09
-3.85889e-09
9.05627e-07
-2.05102e-09
-4.3772e-09
9.11062e-07
-2.20913e-09
-4.96054e-09
9.17037e-07
-2.35853e-09
-5.60964e-09
9.23568e-07
-2.49353e-09
-6.30972e-09
9.30663e-07
-2.61431e-09
-7.04343e-09
9.38343e-07
-2.73071e-09
-7.80536e-09
9.4664e-07
-2.85482e-09
-8.60242e-09
9.55596e-07
-2.99105e-09
-9.44179e-09
9.65248e-07
-3.13456e-09
-1.03212e-08
9.75612e-07
-3.27499e-09
-1.12274e-08
9.86683e-07
-3.39863e-09
-1.21377e-08
9.98417e-07
-3.48739e-09
-1.30182e-08
1.01072e-06
-3.51572e-09
-1.38206e-08
1.02345e-06
-3.44929e-09
-1.44793e-08
1.03635e-06
-3.24686e-09
-1.49134e-08
1.0491e-06
-2.8545e-09
-1.50233e-08
1.0612e-06
-2.18763e-09
-1.46661e-08
1.0719e-06
-1.0987e-09
-1.36094e-08
1.08001e-06
6.5463e-10
-1.1451e-08
1.08355e-06
3.52164e-09
-7.4976e-09
8.28211e-09
-5.00679e-10
9.43175e-07
2.40141e-10
3.11978e-09
9.41816e-07
8.29012e-11
2.64253e-09
9.40768e-07
-5.83224e-11
2.17453e-09
9.40028e-07
-1.84356e-10
1.69969e-09
9.39596e-07
-2.96107e-10
1.21014e-09
9.3948e-07
-3.97096e-10
6.99426e-10
9.39697e-07
-4.98261e-10
1.47748e-10
9.40273e-07
-6.14646e-10
-4.71059e-10
9.41234e-07
-7.56575e-10
-1.15876e-09
9.42605e-07
-9.27405e-10
-1.89673e-09
9.44406e-07
-1.12467e-09
-2.65819e-09
9.46651e-07
-1.34456e-09
-3.42536e-09
9.49353e-07
-1.58236e-09
-4.19778e-09
9.52518e-07
-1.82878e-09
-4.97868e-09
9.56152e-07
-2.07106e-09
-5.76625e-09
9.60259e-07
-2.29993e-09
-6.56731e-09
9.64854e-07
-2.51241e-09
-7.40346e-09
9.69954e-07
-2.7092e-09
-8.3005e-09
9.75583e-07
-2.89063e-09
-9.27402e-09
9.81759e-07
-3.05328e-09
-1.03162e-08
9.885e-07
-3.19318e-09
-1.14033e-08
9.95823e-07
-3.31415e-09
-1.25237e-08
1.00376e-06
-3.42946e-09
-1.36922e-08
1.01235e-06
-3.55246e-09
-1.49315e-08
1.02162e-06
-3.68621e-09
-1.62496e-08
1.03162e-06
-3.82171e-09
-1.76378e-08
1.04236e-06
-3.94096e-09
-1.90817e-08
1.05383e-06
-4.01834e-09
-2.05619e-08
1.06601e-06
-4.01929e-09
-2.20494e-08
1.0788e-06
-3.89651e-09
-2.34989e-08
1.09209e-06
-3.58866e-09
-2.48472e-08
1.10567e-06
-3.02087e-09
-2.60263e-08
1.11926e-06
-2.08956e-09
-2.6959e-08
1.13243e-06
-6.3729e-10
-2.75237e-08
1.14454e-06
1.60766e-09
-2.75199e-08
1.1546e-06
5.06619e-09
-2.65905e-08
1.16108e-06
1.04101e-08
-2.4135e-08
1.87343e-08
-1.91331e-08
9.55844e-07
2.27063e-10
3.31979e-09
9.54508e-07
5.51079e-11
2.72456e-09
9.535e-07
-9.93677e-11
2.14216e-09
9.52815e-07
-2.36816e-10
1.56336e-09
9.52451e-07
-3.58e-10
9.82578e-10
9.52414e-07
-4.66066e-10
3.87908e-10
9.52715e-07
-5.69655e-10
-2.50191e-10
9.53371e-07
-6.80377e-10
-9.58684e-10
9.54401e-07
-8.08539e-10
-1.74315e-09
9.55825e-07
-9.59461e-10
-2.58923e-09
9.57659e-07
-1.13387e-09
-3.47553e-09
9.59922e-07
-1.32941e-09
-4.39267e-09
9.62628e-07
-1.54068e-09
-5.34415e-09
9.6579e-07
-1.75736e-09
-6.32399e-09
9.69414e-07
-1.96708e-09
-7.31807e-09
9.73512e-07
-2.16113e-09
-8.32636e-09
9.78098e-07
-2.33536e-09
-9.36636e-09
9.83189e-07
-2.48833e-09
-1.04609e-08
9.88805e-07
-2.61907e-09
-1.16187e-08
9.94958e-07
-2.72549e-09
-1.28213e-08
1.00167e-06
-2.80708e-09
-1.40448e-08
1.00895e-06
-2.87006e-09
-1.52966e-08
1.01685e-06
-2.92641e-09
-1.66164e-08
1.0254e-06
-2.98549e-09
-1.80394e-08
1.03464e-06
-3.04619e-09
-1.95717e-08
1.04462e-06
-3.09564e-09
-2.11988e-08
1.05534e-06
-3.11054e-09
-2.2901e-08
1.06681e-06
-3.05709e-09
-2.46551e-08
1.07901e-06
-2.88942e-09
-2.64291e-08
1.09186e-06
-2.54655e-09
-2.81716e-08
1.10527e-06
-1.94833e-09
-2.98232e-08
1.11909e-06
-9.90048e-10
-3.13376e-08
1.13308e-06
4.75115e-10
-3.26689e-08
1.14691e-06
2.66833e-09
-3.37298e-08
1.16008e-06
5.9306e-09
-3.43408e-08
1.1718e-06
1.07962e-08
-3.41818e-08
1.18089e-06
1.81118e-08
-3.27226e-08
2.92417e-08
-2.91024e-08
9.59484e-07
1.56689e-10
3.42643e-09
9.58173e-07
-5.899e-12
2.75302e-09
9.57199e-07
-1.52164e-10
2.10103e-09
9.56558e-07
-2.81381e-10
1.45983e-09
9.56244e-07
-3.93136e-10
8.20956e-10
9.56261e-07
-4.88613e-10
1.71365e-10
9.56616e-07
-5.73015e-10
-5.14627e-10
9.5732e-07
-6.54123e-10
-1.25958e-09
9.58387e-07
-7.40466e-10
-2.07381e-09
9.59835e-07
-8.38567e-10
-2.95329e-09
9.61681e-07
-9.5129e-10
-3.88914e-09
9.63946e-07
-1.0778e-09
-4.88206e-09
9.66649e-07
-1.2135e-09
-5.93312e-09
9.69803e-07
-1.34965e-09
-7.0251e-09
9.73419e-07
-1.47682e-09
-8.13592e-09
9.77508e-07
-1.58855e-09
-9.2591e-09
9.82085e-07
-1.68105e-09
-1.04041e-08
9.87166e-07
-1.75215e-09
-1.1585e-08
9.92767e-07
-1.80072e-09
-1.27993e-08
9.98897e-07
-1.82596e-09
-1.40235e-08
1.00557e-06
-1.82889e-09
-1.52467e-08
1.01282e-06
-1.81464e-09
-1.65029e-08
1.02067e-06
-1.79037e-09
-1.78531e-08
1.02918e-06
-1.75909e-09
-1.9339e-08
1.0384e-06
-1.71495e-09
-2.09627e-08
1.04836e-06
-1.64234e-09
-2.27036e-08
1.05908e-06
-1.51555e-09
-2.45345e-08
1.07057e-06
-1.29745e-09
-2.64244e-08
1.08282e-06
-9.37899e-10
-2.83328e-08
1.09579e-06
-3.70392e-10
-3.02032e-08
1.1094e-06
4.98273e-10
-3.19845e-08
1.12354e-06
1.79475e-09
-3.36546e-08
1.13806e-06
3.68864e-09
-3.51899e-08
1.15274e-06
6.43368e-09
-3.6526e-08
1.16724e-06
1.04051e-08
-3.75167e-08
1.18109e-06
1.61613e-08
-3.79121e-08
1.19363e-06
2.45403e-08
-3.73154e-08
3.67931e-08
-3.51217e-08
9.60669e-07
5.38016e-11
3.4558e-09
9.59377e-07
-8.03438e-11
2.72703e-09
9.5843e-07
-2.01779e-10
2.03052e-09
9.57821e-07
-3.07416e-10
1.34678e-09
9.57544e-07
-3.95293e-10
6.65415e-10
9.576e-07
-4.64423e-10
-2.19925e-11
9.57991e-07
-5.16393e-10
-7.31473e-10
9.58725e-07
-5.55709e-10
-1.48012e-09
9.59814e-07
-5.88452e-10
-2.28397e-09
9.61273e-07
-6.20285e-10
-3.15387e-09
9.63124e-07
-6.54259e-10
-4.09755e-09
9.65391e-07
-6.90587e-10
-5.12229e-09
9.68094e-07
-7.26534e-10
-6.2213e-09
9.71246e-07
-7.56831e-10
-7.36859e-09
9.74862e-07
-7.76756e-10
-8.5383e-09
9.78951e-07
-7.83758e-10
-9.71759e-09
9.83529e-07
-7.76235e-10
-1.09067e-08
9.8861e-07
-7.53069e-10
-1.21089e-08
9.94205e-07
-7.13546e-10
-1.33126e-08
1.00032e-06
-6.56906e-10
-1.4498e-08
1.00698e-06
-5.82823e-10
-1.56743e-08
1.01421e-06
-4.91976e-10
-1.68978e-08
1.02205e-06
-3.8467e-10
-1.82412e-08
1.03055e-06
-2.57446e-10
-1.97448e-08
1.03977e-06
-1.00749e-10
-2.14065e-08
1.04974e-06
1.01598e-10
-2.32013e-08
1.0605e-06
3.74894e-10
-2.50952e-08
1.07207e-06
7.55149e-10
-2.70503e-08
1.08444e-06
1.29217e-09
-2.90211e-08
1.09759e-06
2.0548e-09
-3.09557e-08
1.11149e-06
3.13884e-09
-3.28171e-08
1.12607e-06
4.67657e-09
-3.4594e-08
1.14126e-06
6.85309e-09
-3.62768e-08
1.15693e-06
9.93101e-09
-3.78167e-08
1.1729e-06
1.42848e-08
-3.91032e-08
1.18892e-06
2.04524e-08
-3.99448e-08
1.20466e-06
2.92135e-08
-4.00451e-08
4.17014e-08
-3.89587e-08
9.60993e-07
-6.27774e-11
3.44659e-09
9.59715e-07
-1.51355e-10
2.66512e-09
9.58789e-07
-2.32735e-10
1.92579e-09
9.58205e-07
-3.02115e-10
1.20453e-09
9.57957e-07
-3.55403e-10
4.9169e-10
9.58041e-07
-3.8942e-10
-2.1835e-10
9.58458e-07
-4.02799e-10
-9.33772e-10
9.59213e-07
-3.96917e-10
-1.668e-09
9.60315e-07
-3.74658e-10
-2.4425e-09
9.61782e-07
-3.38752e-10
-3.28433e-09
9.63638e-07
-2.90716e-10
-4.21723e-09
9.65909e-07
-2.31421e-10
-5.24911e-09
9.68616e-07
-1.61066e-10
-6.36165e-09
9.71773e-07
-7.9417e-11
-7.52178e-09
9.75392e-07
1.23887e-11
-8.70202e-09
9.79486e-07
1.12552e-10
-9.88725e-09
9.84069e-07
2.19384e-10
-1.10734e-08
9.89154e-07
3.32272e-10
-1.22572e-08
9.94751e-07
4.51619e-10
-1.34242e-08
1.00087e-06
5.79562e-10
-1.45627e-08
1.00753e-06
7.20234e-10
-1.56971e-08
1.01475e-06
8.79081e-10
-1.6895e-08
1.0226e-06
1.06266e-09
-1.82282e-08
1.03112e-06
1.27958e-09
-1.97316e-08
1.04036e-06
1.54131e-09
-2.14005e-08
1.05038e-06
1.86344e-09
-2.32083e-08
1.06122e-06
2.26816e-09
-2.51183e-08
1.07289e-06
2.78718e-09
-2.70895e-08
1.08542e-06
3.46565e-09
-2.90784e-08
1.09881e-06
4.36876e-09
-3.10439e-08
1.11306e-06
5.58999e-09
-3.29649e-08
1.12814e-06
7.2603e-09
-3.48394e-08
1.14406e-06
9.56129e-09
-3.66557e-08
1.16078e-06
1.27438e-08
-3.83719e-08
1.17825e-06
1.71537e-08
-3.99093e-08
1.19645e-06
2.32689e-08
-4.11393e-08
1.21534e-06
3.17506e-08
-4.18683e-08
4.35008e-08
-4.18123e-08
9.60899e-07
3.43856e-09
9.59631e-07
-2.07563e-10
2.5955e-09
9.58721e-07
-2.36195e-10
1.8054e-09
9.58156e-07
-2.59595e-10
1.04894e-09
9.57928e-07
-2.7151e-10
3.16034e-10
9.58033e-07
-2.66401e-10
-4.03362e-10
9.5847e-07
-2.39917e-10
-1.11636e-09
9.59241e-07
-1.90398e-10
-1.83362e-09
9.60355e-07
-1.16834e-10
-2.58038e-09
9.61831e-07
-1.78044e-11
-3.39709e-09
9.63697e-07
1.07961e-10
-4.31807e-09
9.65978e-07
2.58153e-10
-5.34522e-09
9.68694e-07
4.28238e-10
-6.44626e-09
9.7186e-07
6.12313e-10
-7.58136e-09
9.75486e-07
8.0401e-10
-8.72545e-09
9.79585e-07
9.97701e-10
-9.87019e-09
9.84172e-07
1.18959e-09
-1.1017e-08
9.89261e-07
1.37788e-09
-1.2164e-08
9.94864e-07
1.56301e-09
-1.32979e-08
1.00099e-06
1.74906e-09
-1.44107e-08
1.00766e-06
1.94451e-09
-1.55304e-08
1.01491e-06
2.16051e-09
-1.67228e-08
1.02278e-06
2.40897e-09
-1.80511e-08
1.03133e-06
2.70179e-09
-1.95444e-08
1.04063e-06
3.05097e-09
-2.1199e-08
1.05072e-06
3.47005e-09
-2.29916e-08
1.06165e-06
3.97703e-09
-2.48867e-08
1.07345e-06
4.59771e-09
-2.68453e-08
1.08617e-06
5.37033e-09
-2.88336e-08
1.09982e-06
6.3529e-09
-3.08274e-08
1.11444e-06
7.63091e-09
-3.28161e-08
1.13005e-06
9.3245e-09
-3.47936e-08
1.14671e-06
1.15991e-08
-3.67397e-08
1.16444e-06
1.4679e-08
-3.86189e-08
1.18334e-06
1.88649e-08
-4.03822e-08
1.20349e-06
2.45596e-08
-4.19557e-08
1.22508e-06
3.2299e-08
-4.32258e-08
4.27824e-08
-4.40221e-08
9.59123e-07
-2.42088e-10
2.52715e-09
9.58223e-07
-2.11147e-10
1.69147e-09
9.57671e-07
-1.84489e-10
9.12111e-10
9.57457e-07
-1.53833e-10
1.74633e-10
9.57576e-07
-1.10526e-10
-5.42281e-10
9.58026e-07
-4.70661e-11
-1.24899e-09
9.58809e-07
4.13728e-11
-1.95536e-09
9.59934e-07
1.59761e-10
-2.68713e-09
9.61422e-07
3.13884e-10
-3.49067e-09
9.63301e-07
5.0631e-10
-4.40076e-09
9.65597e-07
7.33429e-10
-5.4089e-09
9.68327e-07
9.84599e-10
-6.47085e-09
9.71504e-07
1.2479e-09
-7.54388e-09
9.75138e-07
1.51319e-09
-8.61093e-09
9.79243e-07
1.77359e-09
-9.67787e-09
9.83835e-07
2.02545e-09
-1.07586e-08
9.8893e-07
2.26732e-09
-1.18588e-08
9.94543e-07
2.49998e-09
-1.29671e-08
1.00069e-06
2.72903e-09
-1.40723e-08
1.00738e-06
2.96606e-09
-1.51967e-08
1.01466e-06
3.22584e-09
-1.63946e-08
1.02258e-06
3.52327e-09
-1.77174e-08
1.03119e-06
3.87157e-09
-1.91901e-08
1.04056e-06
4.28217e-09
-2.08133e-08
1.05073e-06
4.76617e-09
-2.25701e-08
1.06177e-06
5.33709e-09
-2.44308e-08
1.07372e-06
6.01418e-09
-2.63622e-08
1.08664e-06
6.82707e-09
-2.83409e-08
1.10056e-06
7.8236e-09
-3.03549e-08
1.11554e-06
9.0766e-09
-3.23983e-08
1.13167e-06
1.06886e-08
-3.44605e-08
1.14901e-06
1.27997e-08
-3.65171e-08
1.16769e-06
1.5597e-08
-3.85407e-08
1.18785e-06
1.93264e-08
-4.05049e-08
1.20971e-06
2.43078e-08
-4.23755e-08
1.23358e-06
3.09511e-08
-4.40981e-08
3.97623e-08
-4.55859e-08
9.57734e-07
-2.48155e-10
2.45394e-09
9.56839e-07
-1.62395e-10
1.60254e-09
9.56295e-07
-9.16648e-11
8.28108e-10
9.56087e-07
-2.58641e-11
1.08927e-10
9.56212e-07
4.79505e-11
-5.88073e-10
9.56667e-07
1.39814e-10
-1.279e-09
9.57455e-07
2.57611e-10
-1.97408e-09
9.58587e-07
4.08994e-10
-2.69634e-09
9.60086e-07
6.01782e-10
-3.48639e-09
9.6198e-07
8.39249e-10
-4.37049e-09
9.64291e-07
1.11508e-09
-5.33077e-09
9.67038e-07
1.41427e-09
-6.31936e-09
9.7023e-07
1.72003e-09
-7.29814e-09
9.73877e-07
2.0202e-09
-8.26072e-09
9.77993e-07
2.30902e-09
-9.22501e-09
9.82596e-07
2.58562e-09
-1.02166e-08
9.87704e-07
2.85059e-09
-1.1251e-08
9.93334e-07
3.10538e-09
-1.23205e-08
9.99503e-07
3.35621e-09
-1.34116e-08
1.00624e-06
3.61555e-09
-1.45373e-08
1.01357e-06
3.89883e-09
-1.57357e-08
1.02155e-06
4.22092e-09
-1.70423e-08
1.03023e-06
4.59434e-09
-1.84763e-08
1.03968e-06
5.0293e-09
-2.00425e-08
1.04996e-06
5.53452e-09
-2.17345e-08
1.06112e-06
6.11933e-09
-2.35326e-08
1.07322e-06
6.79619e-09
-2.54116e-08
1.08634e-06
7.58492e-09
-2.73544e-08
1.10052e-06
8.52122e-09
-2.93533e-08
1.11586e-06
9.66223e-09
-3.14059e-08
1.13245e-06
1.10886e-08
-3.35029e-08
1.15041e-06
1.29095e-08
-3.56232e-08
1.1699e-06
1.52683e-08
-3.77468e-08
1.19114e-06
1.83508e-08
-3.98585e-08
1.2144e-06
2.23944e-08
-4.19463e-08
1.24006e-06
2.76945e-08
-4.39929e-08
3.46011e-08
-4.59648e-08
9.53848e-07
-2.17047e-10
2.36588e-09
9.52958e-07
-9.99944e-11
1.55027e-09
9.52418e-07
-5.07438e-12
8.23041e-10
9.5221e-07
7.79401e-11
1.55879e-10
9.5233e-07
1.64826e-10
-4.91752e-10
9.52776e-07
2.6732e-10
-1.14157e-09
9.53557e-07
3.94386e-10
-1.80461e-09
9.54685e-07
5.53793e-10
-2.49649e-09
9.56186e-07
7.53356e-10
-3.24392e-09
9.58086e-07
9.95441e-10
-4.05987e-09
9.60411e-07
1.27245e-09
-4.92394e-09
9.63176e-07
1.56739e-09
-5.79702e-09
9.6639e-07
1.86183e-09
-6.65214e-09
9.70061e-07
2.14382e-09
-7.48923e-09
9.742e-07
2.41038e-09
-8.32904e-09
9.78825e-07