/*--------------------------------*- C++ -*----------------------------------*\
| =========                 |                                                 |
| \\      /  F ield         | OpenFOAM: The Open Source CFD Toolbox           |
|  \\    /   O peration     | Version:  2.3.1                                 |
|   \\  /    A nd           | Web:      www.OpenFOAM.org                      |
|    \\/     M anipulation  |                                                 |
\*---------------------------------------------------------------------------*/
FoamFile
{
    version     2.0;
    format      ascii;
    class       surfaceScalarField;
    location    "20";
    object      phi_0;
}
// * * * * * * * * * * * * * * * * * * * * * * * * * * * * * * * * * * * * * //

dimensions      [0 3 -1 0 0 0 0];

internalField   nonuniform List<scalar> 
108425
(
7.5616e-07
2.35927e-10
1.33123e-09
7.54847e-07
8.47272e-11
1.2286e-09
7.53777e-07
-5.92428e-11
1.1295e-09
7.5295e-07
-1.94838e-10
1.02209e-09
7.5237e-07
-3.20528e-10
8.99995e-10
7.52045e-07
-4.36212e-10
7.60837e-10
7.51994e-07
-5.50252e-10
6.02104e-10
7.52251e-07
-6.75301e-10
4.18138e-10
7.52864e-07
-8.21176e-10
2.08222e-10
7.53872e-07
-9.91299e-10
-1.69867e-11
7.55295e-07
-1.18419e-09
-2.38669e-10
7.57139e-07
-1.39707e-09
-4.46872e-10
7.59406e-07
-1.62959e-09
-6.37462e-10
7.62097e-07
-1.87809e-09
-8.12831e-10
7.65207e-07
-2.13257e-09
-9.78051e-10
7.68732e-07
-2.38338e-09
-1.14098e-09
7.72672e-07
-2.62706e-09
-1.31365e-09
7.77047e-07
-2.86527e-09
-1.50929e-09
7.81884e-07
-3.10002e-09
-1.73663e-09
7.87208e-07
-3.3291e-09
-1.99522e-09
7.93032e-07
-3.54855e-09
-2.27514e-09
7.99358e-07
-3.76171e-09
-2.56463e-09
8.062e-07
-3.98256e-09
-2.85937e-09
8.13589e-07
-4.22612e-09
-3.16289e-09
8.21565e-07
-4.4967e-09
-3.47932e-09
8.3016e-07
-4.78694e-09
-3.80774e-09
8.39385e-07
-5.08411e-09
-4.14168e-09
8.49229e-07
-5.37344e-09
-4.47003e-09
8.59642e-07
-5.63708e-09
-4.77591e-09
8.70527e-07
-5.85049e-09
-5.0342e-09
8.81718e-07
-5.98056e-09
-5.21034e-09
8.92967e-07
-5.9877e-09
-5.26166e-09
9.03925e-07
-5.82112e-09
-5.13679e-09
9.14087e-07
-5.39899e-09
-4.76295e-09
9.22683e-07
-4.57589e-09
-4.02043e-09
9.28481e-07
-3.09265e-09
-2.7052e-09
9.29465e-07
-5.29932e-10
-4.54431e-10
3.92906e-09
3.39502e-09
8.39641e-07
3.28822e-10
1.504e-09
8.38323e-07
1.01211e-10
1.30106e-09
8.37277e-07
-1.13017e-10
1.10065e-09
8.36499e-07
-3.11205e-10
8.9404e-10
8.35991e-07
-4.91086e-10
6.78274e-10
8.35757e-07
-6.53835e-10
4.51611e-10
8.35814e-07
-8.07966e-10
2.00586e-10
8.36199e-07
-9.66472e-10
-9.32854e-11
8.36951e-07
-1.14311e-09
-4.30463e-10
8.38104e-07
-1.34579e-09
-7.97978e-10
8.39674e-07
-1.5782e-09
-1.17589e-09
8.41669e-07
-1.8418e-09
-1.55118e-09
8.44099e-07
-2.13545e-09
-1.92412e-09
8.46969e-07
-2.45013e-09
-2.29798e-09
8.50278e-07
-2.76986e-09
-2.6708e-09
8.5402e-07
-3.08038e-09
-3.04542e-09
8.58203e-07
-3.37411e-09
-3.43591e-09
8.62847e-07
-3.6488e-09
-3.86005e-09
8.67978e-07
-3.90318e-09
-4.32872e-09
8.7362e-07
-4.13415e-09
-4.83638e-09
8.79778e-07
-4.34222e-09
-5.36457e-09
8.86459e-07
-4.54e-09
-5.90228e-09
8.93684e-07
-4.75036e-09
-6.45769e-09
9.01496e-07
-4.99202e-09
-7.0459e-09
9.09938e-07
-5.26711e-09
-7.67202e-09
9.19044e-07
-5.56191e-09
-8.33041e-09
9.28826e-07
-5.85369e-09
-9.01315e-09
9.39278e-07
-6.1139e-09
-9.71134e-09
9.50359e-07
-6.30698e-09
-1.04107e-08
9.61981e-07
-6.3864e-09
-1.10865e-08
9.73996e-07
-6.29192e-09
-1.17032e-08
9.86182e-07
-5.94877e-09
-1.22249e-08
9.98236e-07
-5.26033e-09
-1.26147e-08
1.00972e-06
-4.0728e-09
-1.28135e-08
1.01999e-06
-2.12781e-09
-1.27149e-08
1.02803e-06
9.94663e-10
-1.21324e-08
1.03227e-06
6.0198e-09
-1.07818e-08
1.40216e-08
-8.12142e-09
8.59028e-07
3.02506e-10
1.62862e-09
8.57722e-07
4.76434e-11
1.35954e-09
8.56705e-07
-1.87638e-10
1.0925e-09
8.5597e-07
-4.01185e-10
8.24812e-10
8.55514e-07
-5.91407e-10
5.55732e-10
8.55339e-07
-7.58496e-10
2.80426e-10
8.55459e-07
-9.06299e-10
-2.20045e-11
8.55905e-07
-1.0439e-09
-3.6906e-10
8.56712e-07
-1.18372e-09
-7.65733e-10
8.57904e-07
-1.3393e-09
-1.19899e-09
8.59499e-07
-1.52186e-09
-1.65159e-09
8.61511e-07
-1.73709e-09
-2.11616e-09
8.63955e-07
-1.98221e-09
-2.59716e-09
8.66842e-07
-2.24492e-09
-3.09242e-09
8.70172e-07
-2.50865e-09
-3.59099e-09
8.73942e-07
-2.75907e-09
-4.09121e-09
8.78159e-07
-2.98601e-09
-4.60536e-09
8.82843e-07
-3.18273e-09
-5.15032e-09
8.88018e-07
-3.34466e-09
-5.73355e-09
8.93696e-07
-3.47064e-09
-6.34149e-09
8.99876e-07
-3.56852e-09
-6.95343e-09
9.06564e-07
-3.65767e-09
-7.57065e-09
9.13795e-07
-3.76149e-09
-8.21952e-09
9.21621e-07
-3.89379e-09
-8.92443e-09
9.30094e-07
-4.05112e-09
-9.68846e-09
9.39248e-07
-4.21508e-09
-1.0501e-08
9.49101e-07
-4.35678e-09
-1.13505e-08
9.59651e-07
-4.43836e-09
-1.22252e-08
9.70865e-07
-4.41203e-09
-1.31087e-08
9.82667e-07
-4.21732e-09
-1.39714e-08
9.94929e-07
-3.77762e-09
-1.47761e-08
1.00747e-06
-2.99235e-09
-1.54977e-08
1.02005e-06
-1.71758e-09
-1.61195e-08
1.03232e-06
2.53892e-10
-1.66003e-08
1.04377e-06
3.28904e-09
-1.68651e-08
1.05359e-06
7.91189e-09
-1.6743e-08
1.06058e-06
1.49807e-08
-1.59451e-08
2.58764e-08
-1.40326e-08
8.65731e-07
2.03669e-10
1.69228e-09
8.64447e-07
-4.74063e-11
1.37944e-09
8.6346e-07
-2.7483e-10
1.07411e-09
8.62763e-07
-4.76491e-10
7.72473e-10
8.62351e-07
-6.51035e-10
4.71343e-10
8.62224e-07
-7.9635e-10
1.64817e-10
8.62394e-07
-9.11769e-10
-1.64184e-10
8.62882e-07
-1.00202e-09
-5.30399e-10
8.63716e-07
-1.0784e-09
-9.39436e-10
8.64921e-07
-1.15763e-09
-1.38605e-09
8.66516e-07
-1.25522e-09
-1.8616e-09
8.68523e-07
-1.37799e-09
-2.36635e-09
8.70966e-07
-1.52108e-09
-2.90411e-09
8.73858e-07
-1.67215e-09
-3.46465e-09
8.77199e-07
-1.81828e-09
-4.0314e-09
8.80988e-07
-1.94878e-09
-4.599e-09
8.85231e-07
-2.05469e-09
-5.17445e-09
8.89946e-07
-2.12857e-09
-5.76902e-09
8.95149e-07
-2.16579e-09
-6.3823e-09
9.00842e-07
-2.1676e-09
-6.99578e-09
9.07016e-07
-2.14674e-09
-7.59654e-09
9.13685e-07
-2.12107e-09
-8.20511e-09
9.20893e-07
-2.10562e-09
-8.864e-09
9.28705e-07
-2.10454e-09
-9.60163e-09
9.37181e-07
-2.10879e-09
-1.04175e-08
9.4636e-07
-2.09799e-09
-1.12962e-08
9.56266e-07
-2.04197e-09
-1.22209e-08
9.66902e-07
-1.90011e-09
-1.31746e-08
9.78246e-07
-1.62109e-09
-1.41346e-08
9.90235e-07
-1.14058e-09
-1.50664e-08
1.00277e-06
-3.75474e-10
-1.59353e-08
1.01571e-06
7.98651e-10
-1.67331e-08
1.02889e-06
2.55841e-09
-1.7459e-08
1.04208e-06
5.15588e-09
-1.80904e-08
1.05495e-06
8.97309e-09
-1.85489e-08
1.067e-06
1.45685e-08
-1.87087e-08
1.07756e-06
2.27857e-08
-1.83632e-08
3.4884e-08
-1.72037e-08
8.68348e-07
8.09955e-11
1.70162e-09
8.67087e-07
-1.4539e-10
1.35955e-09
8.66127e-07
-3.48301e-10
1.03318e-09
8.65462e-07
-5.21991e-10
7.1049e-10
8.65089e-07
-6.63328e-10
3.85905e-10
8.65005e-07
-7.696e-10
5.69023e-11
8.65217e-07
-8.39313e-10
-2.84618e-10
8.65739e-07
-8.74812e-10
-6.48857e-10
8.6659e-07
-8.85251e-10
-1.04462e-09
8.67796e-07
-8.86398e-10
-1.47732e-09
8.69384e-07
-8.93061e-10
-1.95037e-09
8.71386e-07
-9.09979e-10
-2.46959e-09
8.73829e-07
-9.30762e-10
-3.03317e-09
8.76726e-07
-9.45477e-10
-3.62422e-09
8.8008e-07
-9.47277e-10
-4.22442e-09
8.83888e-07
-9.32598e-10
-4.82479e-09
8.88158e-07
-8.98551e-10
-5.42564e-09
8.92902e-07
-8.41866e-10
-6.03046e-09
8.98128e-07
-7.60833e-10
-6.63152e-09
9.03831e-07
-6.58536e-10
-7.2114e-09
9.09999e-07
-5.43142e-10
-7.77219e-09
9.16653e-07
-4.23041e-10
-8.35147e-09
9.23847e-07
-3.00701e-10
-8.99962e-09
9.31657e-07
-1.70189e-10
-9.74351e-09
9.40146e-07
-1.97731e-11
-1.05785e-08
9.49364e-07
1.70346e-10
-1.14865e-08
9.59341e-07
4.26862e-10
-1.24457e-08
9.70088e-07
7.86793e-10
-1.34337e-08
9.81592e-07
1.29813e-09
-1.44237e-08
9.9381e-07
2.02356e-09
-1.53819e-08
1.00667e-06
3.05187e-09
-1.62862e-08
1.02009e-06
4.51529e-09
-1.71352e-08
1.03397e-06
6.60514e-09
-1.79319e-08
1.0482e-06
9.59248e-09
-1.8659e-08
1.06257e-06
1.38571e-08
-1.92618e-08
1.07685e-06
1.99361e-08
-1.96412e-08
1.09067e-06
2.86074e-08
-1.96418e-08
4.10088e-08
-1.90347e-08
8.69198e-07
-4.01147e-11
1.68658e-09
8.67959e-07
-2.2184e-10
1.31571e-09
8.67026e-07
-3.83561e-10
9.67614e-10
8.66394e-07
-5.14019e-10
6.24697e-10
8.66057e-07
-6.08243e-10
2.82033e-10
8.66012e-07
-6.65205e-10
-6.00552e-11
8.66262e-07
-6.85098e-10
-4.0388e-10
8.66812e-07
-6.69093e-10
-7.55709e-10
8.67677e-07
-6.22703e-10
-1.12766e-09
8.68884e-07
-5.56415e-10
-1.53666e-09
8.70469e-07
-4.79478e-10
-1.9985e-09
8.72471e-07
-3.9256e-10
-2.52018e-09
8.74921e-07
-2.89215e-10
-3.09101e-09
8.77828e-07
-1.64192e-10
-3.68872e-09
8.81194e-07
-1.87542e-11
-4.29467e-09
8.85019e-07
1.41392e-10
-4.89828e-09
8.89307e-07
3.10322e-10
-5.49669e-09
8.94069e-07
4.84639e-10
-6.08858e-09
8.99308e-07
6.62942e-10
-6.66328e-09
9.05014e-07
8.44452e-10
-7.20897e-09
9.1118e-07
1.02974e-09
-7.73888e-09
9.17832e-07
1.2237e-09
-8.29883e-09
9.25033e-07
1.43682e-09
-8.93851e-09
9.3286e-07
1.68248e-09
-9.6799e-09
9.41384e-07
1.97383e-09
-1.05168e-08
9.50657e-07
2.32577e-09
-1.14293e-08
9.60719e-07
2.75914e-09
-1.23938e-08
9.71587e-07
3.30402e-09
-1.33852e-08
9.83261e-07
4.00119e-09
-1.43775e-08
9.95722e-07
4.9081e-09
-1.53448e-08
1.00894e-06
6.11256e-09
-1.62749e-08
1.02287e-06
7.74838e-09
-1.71721e-08
1.03751e-06
1.00075e-08
-1.80368e-08
1.0528e-06
1.31502e-08
-1.88498e-08
1.0687e-06
1.75264e-08
-1.9572e-08
1.08517e-06
2.36113e-08
-2.0138e-08
1.10216e-06
3.20611e-08
-2.04487e-08
4.37778e-08
-2.0359e-08
8.6904e-07
1.67997e-09
8.6782e-07
-2.72806e-10
1.2705e-09
8.66918e-07
-3.71136e-10
8.90398e-10
8.66319e-07
-4.40588e-10
5.25447e-10
8.66016e-07
-4.76126e-10
1.71032e-10
8.66005e-07
-4.7827e-10
-1.75906e-10
8.66286e-07
-4.48484e-10
-5.17667e-10
8.66861e-07
-3.86665e-10
-8.57572e-10
8.67741e-07
-2.93179e-10
-1.20962e-09
8.68955e-07
-1.69966e-10
-1.60052e-09
8.70548e-07
-1.80193e-11
-2.0548e-09
8.72565e-07
1.66165e-10
-2.57589e-09
8.75033e-07
3.85544e-10
-3.14202e-09
8.77956e-07
6.37776e-10
-3.72549e-09
8.81333e-07
9.13268e-10
-4.30919e-09
8.85164e-07
1.1985e-09
-4.88734e-09
8.89454e-07
1.48097e-09
-5.46125e-09
8.94217e-07
1.75227e-09
-6.03063e-09
8.99456e-07
2.00904e-09
-6.58524e-09
9.05163e-07
2.25373e-09
-7.11575e-09
9.11335e-07
2.49593e-09
-7.63815e-09
9.18003e-07
2.75239e-09
-8.1968e-09
9.25231e-07
3.04374e-09
-8.83498e-09
9.33095e-07
3.38816e-09
-9.57022e-09
9.41668e-07
3.79807e-09
-1.03972e-08
9.5101e-07
4.28342e-09
-1.1299e-08
9.61163e-07
4.85781e-09
-1.22517e-08
9.72155e-07
5.54307e-09
-1.3231e-08
9.84e-07
6.37249e-09
-1.42168e-08
9.96706e-07
7.39793e-09
-1.51956e-08
1.01028e-06
8.70192e-09
-1.61633e-08
1.02474e-06
1.04088e-08
-1.71201e-08
1.04011e-06
1.2693e-08
-1.80561e-08
1.05643e-06
1.57861e-08
-1.89521e-08
1.07374e-06
1.99928e-08
-1.97842e-08
1.09216e-06
2.57138e-08
-2.0518e-08
1.11184e-06
3.34805e-08
-2.10982e-08
4.39893e-08
-2.14399e-08
8.66684e-07
-2.99683e-10
1.22873e-09
8.6581e-07
-3.13224e-10
8.15724e-10
8.65242e-07
-3.0712e-10
4.34501e-10
8.64966e-07
-2.7714e-10
7.70939e-11
8.64979e-07
-2.2292e-10
-2.67982e-10
8.65282e-07
-1.44494e-10
-6.07224e-10
8.65877e-07
-3.95006e-11
-9.42261e-10
8.66774e-07
9.63952e-11
-1.28655e-09
8.68005e-07
2.70734e-10
-1.67161e-09
8.6962e-07
4.91116e-10
-2.12406e-09
8.71664e-07
7.6135e-10
-2.6391e-09
8.74157e-07
1.07794e-09
-3.18563e-09
8.77099e-07
1.42932e-09
-3.73301e-09
8.80482e-07
1.79876e-09
-4.26913e-09
8.84308e-07
2.1712e-09
-4.79859e-09
8.88588e-07
2.53387e-09
-5.33227e-09
8.93338e-07
2.87763e-09
-5.87532e-09
8.98567e-07
3.19787e-09
-6.4187e-09
9.04274e-07
3.49775e-09
-6.95047e-09
9.1046e-07
3.79144e-09
-7.48176e-09
9.17159e-07
4.10306e-09
-8.04923e-09
9.2443e-07
4.45986e-09
-8.68766e-09
9.32347e-07
4.8832e-09
-9.41202e-09
9.40981e-07
5.38492e-09
-1.02207e-08
9.50395e-07
5.97074e-09
-1.11016e-08
9.6064e-07
6.64715e-09
-1.20342e-08
9.71752e-07
7.42787e-09
-1.29969e-08
9.83763e-07
8.33878e-09
-1.39764e-08
9.96703e-07
9.42473e-09
-1.49677e-08
1.01062e-06
1.07577e-08
-1.59701e-08
1.02556e-06
1.24433e-08
-1.69787e-08
1.04161e-06
1.46268e-08
-1.79782e-08
1.05884e-06
1.75005e-08
-1.8952e-08
1.07741e-06
2.13143e-08
-1.98887e-08
1.09751e-06
2.63891e-08
-2.07757e-08
1.11945e-06
3.31315e-08
-2.15891e-08
4.2044e-08
-2.22867e-08
8.63799e-07
-2.96286e-10
1.18425e-09
8.62948e-07
-2.18589e-10
7.56026e-10
8.62402e-07
-1.3666e-10
3.75461e-10
8.62142e-07
-4.58353e-11
2.83205e-11
8.62167e-07
5.83369e-11
-3.05519e-10
8.6248e-07
1.80026e-10
-6.38284e-10
8.63088e-07
3.2374e-10
-9.71116e-10
8.64002e-07
4.98304e-10
-1.31581e-09
8.65256e-07
7.17216e-10
-1.70045e-09
8.669e-07
9.92451e-10
-2.1453e-09
8.68975e-07
1.32524e-09
-2.6384e-09
8.71494e-07
1.70314e-09
-3.14435e-09
8.74452e-07
2.10681e-09
-3.63542e-09
8.77839e-07
2.51889e-09
-4.10783e-09
8.81658e-07
2.92766e-09
-4.57487e-09
8.85921e-07
3.32606e-09
-5.05551e-09
8.90652e-07
3.70849e-09
-5.56166e-09
8.95867e-07
4.06984e-09
-6.08693e-09
9.01571e-07
4.41096e-09
-6.6172e-09
9.07774e-07
4.7456e-09
-7.15734e-09
9.1451e-07
5.09984e-09
-7.73287e-09
9.21834e-07
5.50299e-09
-8.36746e-09
9.29812e-07
5.97733e-09
-9.07221e-09
9.38512e-07
6.53433e-09
-9.84911e-09
9.47999e-07
7.17725e-09
-1.06934e-08
9.5833e-07
7.90738e-09
-1.15915e-08
9.69554e-07
8.73115e-09
-1.25267e-08
9.81716e-07
9.66589e-09
-1.3489e-08
9.94869e-07
1.07464e-08
-1.44756e-08
1.00908e-06
1.203e-08
-1.54871e-08
1.02445e-06
1.35988e-08
-1.65186e-08
1.04107e-06
1.55644e-08
-1.75563e-08
1.05908e-06
1.80737e-08
-1.85877e-08
1.07868e-06
2.13168e-08
-1.96061e-08
1.10015e-06
2.55337e-08
-2.06092e-08
1.12385e-06
3.10181e-08
-2.15921e-08
3.81154e-08
-2.25381e-08
8.56842e-07
-2.5087e-10
1.13228e-09
8.56007e-07
-1.05415e-10
7.2175e-10
8.55473e-07
2.87957e-11
3.68009e-10
8.55219e-07
1.57979e-10
5.08245e-11
8.55241e-07
2.91722e-10
-2.56031e-10
8.55551e-07
4.38626e-10
-5.68281e-10
8.56159e-07
6.05089e-10
-8.88716e-10
8.57081e-07
8.00344e-10
-1.22435e-09
8.58353e-07
1.03819e-09
-1.59284e-09
8.6002e-07
1.32948e-09
-2.00395e-09
8.62116e-07
1.67161e-09
-2.44276e-09
8.64652e-07
2.04757e-09
-2.88046e-09
8.67621e-07
2.43627e-09
-3.29799e-09
8.71013e-07
2.82279e-09
-3.69613e-09
8.74828e-07
3.20157e-09
-4.08958e-09
8.79081e-07
3.57332e-09
-4.49963e-09
8.83794e-07
3.93876e-09
-4.94384e-09
8.88992e-07
4.29466e-09
-5.42253e-09
8.94689e-07
4.63972e-09
-5.92583e-09
9.00906e-07
4.9841e-09
-6.45485e-09
9.07677e-07
5.34973e-09
-7.02153e-09
9.15054e-07
5.76114e-09
-7.63469e-09
9.23092e-07
6.23675e-09
-8.29768e-09
9.31854e-07
6.78656e-09
-9.01401e-09
9.41405e-07
7.41345e-09
-9.78728e-09
9.51809e-07
8.11682e-09
-1.06138e-08
9.63126e-07
8.89795e-09
-1.14835e-08
9.75414e-07
9.76527e-09
-1.23879e-08
9.88743e-07
1.07413e-08
-1.33232e-08
1.0032e-06
1.18663e-08
-1.42911e-08
1.01889e-06
1.3198e-08
-1.52903e-08
1.03595e-06
1.48123e-08
-1.63112e-08
1.05456e-06
1.68076e-08
-1.73436e-08
1.07495e-06
1.93099e-08
-1.83797e-08
1.09742e-06
2.24776e-08
-1.94187e-08
1.12241e-06
2.65008e-08
-2.04655e-08
3.15939e-08
-2.15169e-08
8.37202e-07
-1.50117e-10
1.06641e-09
8.3638e-07
-1.07434e-11
7.2719e-10
8.35854e-07
1.11253e-10
4.43168e-10
8.35596e-07
2.24316e-10
1.9184e-10
8.35604e-07
3.3721e-10
-5.29895e-11
8.3589e-07
4.58956e-10
-3.07199e-10
8.36476e-07
5.94981e-10
-5.75166e-10
8.37384e-07
7.50892e-10
-8.58613e-10
8.3865e-07
9.35294e-10
-1.16345e-09
8.40316e-07
1.15394e-09
-1.49024e-09
8.42412e-07
1.40305e-09
-1.82723e-09
8.44947e-07
1.66938e-09
-2.15747e-09
8.47917e-07
1.93833e-09
-2.47137e-09
8.51309e-07
2.2011e-09
-2.77075e-09
8.5512e-07
2.45661e-09
-3.06557e-09
8.59356e-07
2.70954e-09
-3.37285e-09
8.64041e-07
2.96487e-09
-3.71123e-09
8.69202e-07
3.22262e-09
-4.08903e-09
8.74866e-07
3.48122e-09
-4.50498e-09
8.81063e-07
3.74565e-09
-4.95848e-09
8.87833e-07
4.02854e-09
-5.44877e-09
8.95221e-07
4.34355e-09
-5.97077e-09
9.03277e-07
4.70047e-09
-6.51935e-09
9.12055e-07
5.10538e-09
-7.097e-09
9.2162e-07
5.56112e-09
-7.71264e-09
9.3204e-07
6.06755e-09
-8.37083e-09
9.43383e-07
6.624e-09
-9.06922e-09
9.55718e-07
7.23257e-09
-9.80236e-09
9.69122e-07
7.90349e-09
-1.05659e-08
9.83691e-07
8.65848e-09
-1.13613e-08
9.99549e-07
9.52858e-09
-1.21887e-08
1.01685e-06
1.0553e-08
-1.30418e-08
1.03579e-06
1.17802e-08
-1.39122e-08
1.05662e-06
1.32713e-08
-1.4791e-08
1.07967e-06
1.5103e-08
-1.56765e-08
1.10538e-06
1.73685e-08
-1.65769e-08
2.01692e-08
-1.74964e-08
7.53554e-07
9.95396e-10
7.52744e-07
7.98941e-10
7.5221e-07
6.45188e-10
7.51919e-07
5.16164e-10
7.51864e-07
3.91864e-10
7.52064e-07
2.59053e-10
7.52545e-07
1.14133e-10
7.53337e-07
-4.12848e-11
7.54477e-07
-2.05271e-10
7.56008e-07
-3.76329e-10
7.57959e-07
-5.48287e-10
7.60342e-07
-7.13919e-10
7.6315e-07
-8.69322e-10
7.66366e-07
-1.01526e-09
7.69979e-07
-1.1562e-09
7.73989e-07
-1.3007e-09
7.78415e-07
-1.46066e-09
7.83284e-07
-1.64623e-09
7.88628e-07
-1.86283e-09
7.94484e-07
-2.11016e-09
8.00893e-07
-2.3805e-09
8.07898e-07
-2.66159e-09
8.15542e-07
-2.94392e-09
8.23875e-07
-3.22758e-09
8.32957e-07
-3.52099e-09
8.42857e-07
-3.83204e-09
8.53645e-07
-4.16431e-09
8.65393e-07
-4.51564e-09
8.78177e-07
-4.88054e-09
8.92093e-07
-5.25675e-09
9.07263e-07
-5.64171e-09
9.23846e-07
-6.02996e-09
9.42042e-07
-6.41554e-09
9.62106e-07
-6.79279e-09
9.84371e-07
-7.16239e-09
1.00927e-06
-7.53472e-09
-7.92116e-09
8.80915e-07
1.71703e-10
2.80909e-09
8.79556e-07
6.43184e-11
2.52334e-09
8.78475e-07
-3.28064e-11
2.24394e-09
8.77669e-07
-1.20087e-10
1.9483e-09
8.77143e-07
-1.97326e-10
1.62337e-09
8.76906e-07
-2.66052e-10
1.26385e-09
8.76977e-07
-3.35048e-10
8.65594e-10
8.77392e-07
-4.18018e-10
4.21547e-10
8.78191e-07
-5.25093e-10
-6.60815e-11
8.79412e-07
-6.56229e-10
-5.81539e-10
8.81077e-07
-8.07155e-10
-1.09652e-09
8.83197e-07
-9.74331e-10
-1.59233e-09
8.85777e-07
-1.15551e-09
-2.06257e-09
8.88822e-07
-1.34542e-09
-2.51182e-09
8.92328e-07
-1.53462e-09
-2.95019e-09
8.96296e-07
-1.71571e-09
-3.39306e-09
9.00732e-07
-1.88707e-09
-3.86225e-09
9.05654e-07
-2.05094e-09
-4.3808e-09
9.11091e-07
-2.20904e-09
-4.96441e-09
9.17068e-07
-2.35843e-09
-5.6138e-09
9.23601e-07
-2.49345e-09
-6.31421e-09
9.30699e-07
-2.61423e-09
-7.04826e-09
9.3838e-07
-2.73065e-09
-7.81058e-09
9.4668e-07
-2.85479e-09
-8.60807e-09
9.5564e-07
-2.99107e-09
-9.44792e-09
9.65295e-07
-3.13463e-09
-1.03278e-08
9.75663e-07
-3.27515e-09
-1.12347e-08
9.86738e-07
-3.39891e-09
-1.21458e-08
9.98477e-07
-3.48784e-09
-1.30271e-08
1.01079e-06
-3.51641e-09
-1.38305e-08
1.02352e-06
-3.45033e-09
-1.44906e-08
1.03643e-06
-3.24843e-09
-1.49262e-08
1.04919e-06
-2.85685e-09
-1.50382e-08
1.0613e-06
-2.19118e-09
-1.4684e-08
1.07202e-06
-1.10412e-09
-1.36312e-08
1.08015e-06
6.4628e-10
-1.14787e-08
1.08372e-06
3.50841e-09
-7.53442e-09
8.2604e-09
-5.52251e-10
9.43178e-07
2.40047e-10
3.11785e-09
9.4182e-07
8.28228e-11
2.64058e-09
9.40774e-07
-5.83908e-11
2.17257e-09
9.40034e-07
-1.84416e-10
1.69771e-09
9.39603e-07
-2.96157e-10
1.20815e-09
9.39488e-07
-3.97135e-10
6.97423e-10
9.39707e-07
-4.98295e-10
1.45718e-10
9.40283e-07
-6.14668e-10
-4.73157e-10
9.41245e-07
-7.56589e-10
-1.16093e-09
9.42617e-07
-9.27406e-10
-1.89899e-09
9.44419e-07
-1.12466e-09
-2.66055e-09
9.46666e-07
-1.34454e-09
-3.42782e-09
9.49369e-07
-1.58233e-09
-4.20037e-09
9.52536e-07
-1.82873e-09
-4.98141e-09
9.56171e-07
-2.07099e-09
-5.76913e-09
9.6028e-07
-2.29985e-09
-6.57037e-09
9.64876e-07
-2.51231e-09
-7.4067e-09
9.69978e-07
-2.70909e-09
-8.30396e-09
9.75608e-07
-2.89053e-09
-9.27773e-09
9.81787e-07
-3.05318e-09
-1.03202e-08
9.8853e-07
-3.19309e-09
-1.14075e-08
9.95855e-07
-3.31408e-09
-1.25283e-08
1.00379e-06
-3.42943e-09
-1.36971e-08
1.01238e-06
-3.55249e-09
-1.49369e-08
1.02166e-06
-3.68633e-09
-1.62555e-08
1.03166e-06
-3.82197e-09
-1.76442e-08
1.0424e-06
-3.94139e-09
-1.90887e-08
1.05388e-06
-4.019e-09
-2.05696e-08
1.06606e-06
-4.02029e-09
-2.20579e-08
1.07887e-06
-3.89799e-09
-2.35084e-08
1.09216e-06
-3.59083e-09
-2.48579e-08
1.10575e-06
-3.02403e-09
-2.60385e-08
1.11935e-06
-2.09418e-09
-2.69733e-08
1.13253e-06
-6.44059e-10
-2.75407e-08
1.14465e-06
1.5975e-09
-2.75406e-08
1.15473e-06
5.05099e-09
-2.66167e-08
1.16124e-06
1.03869e-08
-2.41692e-08
1.86988e-08
-1.91799e-08
9.55846e-07
2.2698e-10
3.31779e-09
9.54511e-07
5.50446e-11
2.72255e-09
9.53504e-07
-9.94177e-11
2.14014e-09
9.5282e-07
-2.36857e-10
1.56133e-09
9.52457e-07
-3.58035e-10
9.80538e-10
9.52421e-07
-4.66094e-10
3.8586e-10
9.52723e-07
-5.69676e-10
-2.52268e-10
9.5338e-07
-6.8039e-10
-9.60812e-10
9.54412e-07
-8.08542e-10
-1.74535e-09
9.55836e-07
-9.59453e-10
-2.5915e-09
9.57672e-07
-1.13385e-09
-3.47787e-09
9.59935e-07
-1.32938e-09
-4.39511e-09
9.62643e-07
-1.54064e-09
-5.34671e-09
9.65806e-07
-1.75731e-09
-6.32669e-09
9.69432e-07
-1.96702e-09
-7.3209e-09
9.73531e-07
-2.16105e-09
-8.32934e-09
9.78119e-07
-2.33528e-09
-9.36952e-09
9.83212e-07
-2.48824e-09
-1.04642e-08
9.88829e-07
-2.61899e-09
-1.16223e-08
9.94985e-07
-2.72542e-09
-1.28251e-08
1.00169e-06
-2.80704e-09
-1.40489e-08
1.00898e-06
-2.87005e-09
-1.53011e-08
1.01688e-06
-2.92647e-09
-1.66212e-08
1.02543e-06
-2.98563e-09
-1.80446e-08
1.03468e-06
-3.04647e-09
-1.95774e-08
1.04466e-06
-3.09609e-09
-2.1205e-08
1.05539e-06
-3.11125e-09
-2.29078e-08
1.06686e-06
-3.05814e-09
-2.46626e-08
1.07906e-06
-2.89094e-09
-2.64374e-08
1.09192e-06
-2.54876e-09
-2.81808e-08
1.10534e-06
-1.95149e-09
-2.98335e-08
1.11916e-06
-9.94583e-10
-3.13494e-08
1.13316e-06
4.68588e-10
-3.26826e-08
1.14701e-06
2.65888e-09
-3.3746e-08
1.16018e-06
5.91678e-09
-3.43605e-08
1.17192e-06
1.07758e-08
-3.42064e-08
1.18104e-06
1.80813e-08
-3.27544e-08
2.91953e-08
-2.91452e-08
9.59485e-07
1.56631e-10
3.42441e-09
9.58175e-07
-5.93613e-12
2.751e-09
9.57203e-07
-1.52187e-10
2.09901e-09
9.56562e-07
-2.81396e-10
1.45779e-09
9.5625e-07
-3.93147e-10
8.1891e-10
9.56268e-07
-4.88619e-10
1.69301e-10
9.56623e-07
-5.73015e-10
-5.16721e-10
9.57329e-07
-6.54117e-10
-1.26173e-09
9.58397e-07
-7.40452e-10
-2.07601e-09
9.59846e-07
-8.38545e-10
-2.95555e-09
9.61693e-07
-9.51261e-10
-3.89146e-09
9.63959e-07
-1.07777e-09
-4.88447e-09
9.66664e-07
-1.21346e-09
-5.93565e-09
9.69819e-07
-1.34961e-09
-7.02776e-09
9.73436e-07
-1.47677e-09
-8.1387e-09
9.77527e-07
-1.5885e-09
-9.26201e-09
9.82105e-07
-1.681e-09
-1.04071e-08
9.87188e-07
-1.75211e-09
-1.15882e-08
9.9279e-07
-1.80069e-09
-1.28028e-08
9.98922e-07
-1.82595e-09
-1.40272e-08
1.0056e-06
-1.82891e-09
-1.52507e-08
1.01285e-06
-1.81472e-09
-1.65072e-08
1.0207e-06
-1.79053e-09
-1.78578e-08
1.02922e-06
-1.75937e-09
-1.93441e-08
1.03844e-06
-1.71539e-09
-2.09683e-08
1.0484e-06
-1.643e-09
-2.27097e-08
1.05912e-06
-1.51652e-09
-2.45411e-08
1.07062e-06
-1.29883e-09
-2.64317e-08
1.08288e-06
-9.39864e-10
-2.83409e-08
1.09585e-06
-3.73159e-10
-3.02122e-08
1.10946e-06
4.94331e-10
-3.19946e-08
1.12361e-06
1.78919e-09
-3.3666e-08
1.13814e-06
3.68077e-09
-3.52031e-08
1.15283e-06
6.42247e-09
-3.65414e-08
1.16734e-06
1.03891e-08
-3.75352e-08
1.18121e-06
1.61382e-08
-3.79348e-08
1.19376e-06
2.45068e-08
-3.73439e-08
3.67442e-08
-3.51587e-08
9.6067e-07
5.37798e-11
3.45377e-09
9.59379e-07
-8.03496e-11
2.72503e-09
9.58433e-07
-2.01773e-10
2.02852e-09
9.57825e-07
-3.07404e-10
1.34476e-09
9.5755e-07
-3.95278e-10
6.63378e-10
9.57606e-07
-4.64404e-10
-2.40662e-11
9.57999e-07
-5.16368e-10
-7.33575e-10
9.58734e-07
-5.55679e-10
-1.48227e-09
9.59823e-07
-5.88419e-10
-2.28616e-09
9.61284e-07
-6.20251e-10
-3.15611e-09
9.63136e-07
-6.54226e-10
-4.09984e-09
9.65404e-07
-6.90558e-10
-5.12468e-09
9.68108e-07
-7.2651e-10
-6.2238e-09
9.71262e-07
-7.56813e-10
-7.37121e-09
9.74878e-07
-7.76746e-10
-8.54103e-09
9.78969e-07
-7.83756e-10
-9.72046e-09
9.83549e-07
-7.76246e-10
-1.09097e-08
9.88631e-07
-7.53096e-10
-1.21121e-08
9.94229e-07
-7.13593e-10
-1.33161e-08
1.00035e-06
-6.56985e-10
-1.45017e-08
1.00701e-06
-5.82946e-10
-1.56782e-08
1.01424e-06
-4.92164e-10
-1.69021e-08
1.02208e-06
-3.84951e-10
-1.82457e-08
1.03058e-06
-2.57858e-10
-1.97498e-08
1.0398e-06
-1.01342e-10
-2.1412e-08
1.04978e-06
1.00759e-10
-2.32072e-08
1.06055e-06
3.73717e-10
-2.51017e-08
1.07212e-06
7.53509e-10
-2.70574e-08
1.08449e-06
1.28989e-09
-2.9029e-08
1.09765e-06
2.05162e-09
-3.09645e-08
1.11155e-06
3.13442e-09
-3.28269e-08
1.12614e-06
4.67041e-09
-3.4605e-08
1.14133e-06
6.84448e-09
-3.62894e-08
1.15701e-06
9.91895e-09
-3.78314e-08
1.17299e-06
1.42679e-08
-3.91206e-08
1.18902e-06
2.04285e-08
-3.99657e-08
1.20478e-06
2.91795e-08
-4.00708e-08
4.16529e-08
-3.89913e-08
9.60994e-07
-6.27577e-11
3.44454e-09
9.59718e-07
-1.51328e-10
2.66313e-09
9.58792e-07
-2.32703e-10
1.9238e-09
9.58209e-07
-3.02078e-10
1.20253e-09
9.57962e-07
-3.55362e-10
4.89664e-10
9.58047e-07
-3.89375e-10
-2.20412e-10
9.58465e-07
-4.02751e-10
-9.35871e-10
9.59221e-07
-3.96867e-10
-1.67014e-09
9.60324e-07
-3.74609e-10
-2.44467e-09
9.61792e-07
-3.3871e-10
-3.28653e-09
9.6365e-07
-2.90684e-10
-4.2195e-09
9.65922e-07
-2.31401e-10
-5.25147e-09
9.6863e-07
-1.61061e-10
-6.36413e-09
9.71788e-07
-7.94277e-11
-7.52439e-09
9.75409e-07
1.23606e-11
-8.70474e-09
9.79505e-07
1.12504e-10
-9.8901e-09
9.84089e-07
2.19314e-10
-1.10764e-08
9.89175e-07
3.32175e-10
-1.22604e-08
9.94775e-07
4.5149e-10
-1.34276e-08
1.0009e-06
5.79393e-10
-1.45664e-08
1.00755e-06
7.20011e-10
-1.5701e-08
1.01478e-06
8.78787e-10
-1.68991e-08
1.02263e-06
1.06226e-09
-1.82327e-08
1.03115e-06
1.27905e-09
-1.97366e-08
1.0404e-06
1.54059e-09
-2.14059e-08
1.05042e-06
1.86247e-09
-2.32142e-08
1.06126e-06
2.26684e-09
-2.51248e-08
1.07294e-06
2.78538e-09
-2.70966e-08
1.08547e-06
3.4632e-09
-2.90862e-08
1.09887e-06
4.36541e-09
-3.10526e-08
1.11312e-06
5.58539e-09
-3.29744e-08
1.12821e-06
7.25398e-09
-3.48501e-08
1.14413e-06
9.55259e-09
-3.66679e-08
1.16086e-06
1.27318e-08
-3.83859e-08
1.17834e-06
1.71371e-08
-3.99255e-08
1.19654e-06
2.3246e-08
-4.11585e-08
1.21545e-06
3.17187e-08
-4.18914e-08
4.34569e-08
-4.18404e-08
9.609e-07
3.43652e-09
9.59634e-07
-2.07509e-10
2.59352e-09
9.58724e-07
-2.3614e-10
1.80343e-09
9.5816e-07
-2.59538e-10
1.04696e-09
9.57933e-07
-2.71448e-10
3.14023e-10
9.58039e-07
-2.66336e-10
-4.05411e-10
9.58477e-07
-2.39851e-10
-1.11844e-09
9.59249e-07
-1.90335e-10
-1.83572e-09
9.60364e-07
-1.16779e-10
-2.58251e-09
9.61842e-07
-1.77634e-11
-3.39926e-09
9.63709e-07
1.07986e-10
-4.32033e-09
9.65991e-07
2.5816e-10
-5.34758e-09
9.68708e-07
4.28224e-10
-6.44874e-09
9.71875e-07
6.12277e-10
-7.58396e-09
9.75502e-07
8.03947e-10
-8.72817e-09
9.79603e-07
9.9761e-10
-9.87305e-09
9.84192e-07
1.18947e-09
-1.102e-08
9.89283e-07
1.37773e-09
-1.21672e-08
9.94887e-07
1.56281e-09
-1.33013e-08
1.00102e-06
1.74881e-09
-1.44143e-08
1.00769e-06
1.9442e-09
-1.55343e-08
1.01494e-06
2.16013e-09
-1.6727e-08
1.02281e-06
2.40849e-09
-1.80556e-08
1.03137e-06
2.70118e-09
-1.95493e-08
1.04067e-06
3.05017e-09
-2.12044e-08
1.05076e-06
3.46901e-09
-2.29975e-08
1.06169e-06
3.97566e-09
-2.48931e-08
1.0735e-06
4.59589e-09
-2.68523e-08
1.08622e-06
5.36789e-09
-2.88413e-08
1.09988e-06
6.3496e-09
-3.08359e-08
1.1145e-06
7.62645e-09
-3.28255e-08
1.13012e-06
9.31845e-09
-3.48042e-08
1.14678e-06
1.15909e-08
-3.67516e-08
1.16452e-06
1.46678e-08
-3.86323e-08
1.18342e-06
1.88497e-08
-4.03976e-08
1.20358e-06
2.45389e-08
-4.19735e-08
1.22518e-06
3.22709e-08
-4.32466e-08
4.27444e-08
-4.40467e-08
9.59125e-07
-2.42012e-10
2.52517e-09
9.58226e-07
-2.11075e-10
1.68951e-09
9.57675e-07
-1.84416e-10
9.10142e-10
9.57462e-07
-1.53757e-10
1.72642e-10
9.57582e-07
-1.1045e-10
-5.44308e-10
9.58033e-07
-4.69927e-11
-1.25104e-09
9.58817e-07
4.14373e-11
-1.95743e-09
9.59943e-07
1.59812e-10
-2.68922e-09
9.61432e-07
3.13918e-10
-3.49282e-09
9.63313e-07
5.06326e-10
-4.40301e-09
9.6561e-07
7.33425e-10
-5.41127e-09
9.68341e-07
9.84571e-10
-6.47335e-09
9.71519e-07
1.24784e-09
-7.5465e-09
9.75155e-07
1.51311e-09
-8.61368e-09
9.79261e-07
1.77347e-09
-9.68076e-09
9.83854e-07
2.02529e-09
-1.07617e-08
9.88952e-07
2.26713e-09
-1.18621e-08
9.94567e-07
2.49974e-09
-1.29706e-08
1.00071e-06
2.72874e-09
-1.4076e-08
1.00741e-06
2.96571e-09
-1.52006e-08
1.01469e-06
3.22541e-09
-1.63988e-08
1.02261e-06
3.52275e-09
-1.7722e-08
1.03123e-06
3.87093e-09
-1.91951e-08
1.04059e-06
4.28136e-09
-2.08187e-08
1.05077e-06
4.76515e-09
-2.2576e-08
1.06182e-06
5.33578e-09
-2.44372e-08
1.07377e-06
6.01246e-09
-2.63692e-08
1.08669e-06
6.8248e-09
-2.83486e-08
1.10061e-06
7.8206e-09
-3.03634e-08
1.1156e-06
9.07259e-09
-3.24077e-08
1.13173e-06
1.06832e-08
-3.44708e-08
1.14908e-06
1.27925e-08
-3.65286e-08
1.16776e-06
1.55873e-08
-3.85536e-08
1.18793e-06
1.93133e-08
-4.05195e-08
1.20979e-06
2.42904e-08
-4.23921e-08
1.23366e-06
3.09279e-08
-4.41171e-08
3.97316e-08
-4.56078e-08
9.57736e-07
-2.48063e-10
2.45196e-09
9.56843e-07
-1.62311e-10
1.60058e-09
9.56299e-07
-9.15835e-11
8.26148e-10
9.56093e-07
-2.57848e-11
1.06955e-10
9.56219e-07
4.80293e-11
-5.90074e-10
9.56675e-07
1.39886e-10
-1.28102e-09
9.57463e-07
2.5767e-10
-1.97612e-09
9.58597e-07
4.09036e-10
-2.69841e-09
9.60097e-07
6.01807e-10
-3.48854e-09
9.61991e-07
8.39258e-10
-4.37275e-09
9.64305e-07
1.11507e-09
-5.33316e-09
9.67052e-07
1.41424e-09
-6.32188e-09
9.70246e-07
1.71997e-09
-7.30079e-09
9.73894e-07
2.0201e-09
-8.26351e-09
9.78012e-07
2.3089e-09
-9.22795e-09
9.82616e-07
2.58547e-09
-1.02198e-08
9.87725e-07
2.8504e-09
-1.12543e-08
9.93357e-07
3.10514e-09
-1.23241e-08
9.99528e-07
3.35592e-09
-1.34154e-08
1.00626e-06
3.6152e-09
-1.45413e-08
1.0136e-06
3.89841e-09
-1.574e-08
1.02158e-06
4.22042e-09
-1.7047e-08
1.03027e-06
4.59374e-09
-1.84813e-08
1.03972e-06
5.02856e-09
-2.0048e-08
1.05e-06
5.53362e-09
-2.17405e-08
1.06116e-06
6.11819e-09
-2.35391e-08
1.07327e-06
6.79472e-09
-2.54187e-08
1.08639e-06
7.58301e-09
-2.73621e-08
1.10057e-06
8.51871e-09
-2.93617e-08
1.11592e-06
9.65892e-09
-3.14152e-08
1.13251e-06
1.10842e-08
-3.35132e-08
1.15048e-06
1.29037e-08
-3.56346e-08
1.16997e-06
1.52606e-08
-3.77594e-08
1.19121e-06
1.83405e-08
-3.98725e-08
1.21448e-06
2.23808e-08
-4.19621e-08
1.24015e-06
2.76767e-08
-4.40105e-08
3.4578e-08
-4.59847e-08
9.53851e-07
-2.16948e-10
2.3639e-09
9.52962e-07
-9.99063e-11
1.54831e-09
9.52423e-07
-4.99357e-12
8.21096e-10
9.52216e-07
7.80137e-11
1.53933e-10
9.52337e-07
1.64895e-10
-4.93723e-10
9.52784e-07
2.67381e-10
-1.14357e-09
9.53566e-07
3.94432e-10
-1.80664e-09
9.54695e-07
5.53825e-10
-2.49857e-09
9.56197e-07
7.53374e-10
-3.24609e-09
9.58099e-07
9.95447e-10
-4.06216e-09
9.60425e-07
1.27244e-09
-4.92635e-09
9.63191e-07
1.56736e-09
-5.79957e-09
9.66406e-07
1.86178e-09
-6.65482e-09
9.70078e-07
2.14374e-09
-7.49206e-09
9.74219e-07
2.41027e-09
-8.33204e-09
9.78846e-07
2.66452e-09