/*--------------------------------*- C++ -*----------------------------------*\
| =========                 |                                                 |
| \\      /  F ield         | OpenFOAM: The Open Source CFD Toolbox           |
|  \\    /   O peration     | Version:  2.3.1                                 |
|   \\  /    A nd           | Web:      www.OpenFOAM.org                      |
|    \\/     M anipulation  |                                                 |
\*---------------------------------------------------------------------------*/
FoamFile
{
    version     2.0;
    format      ascii;
    class       volScalarField;
    location    "20";
    object      Sed;
}
// * * * * * * * * * * * * * * * * * * * * * * * * * * * * * * * * * * * * * //

dimensions      [0 0 0 0 0 0 0];

internalField   nonuniform List<scalar> 
37692
(
5.90707e-57
4.49874e-58
3.39864e-59
2.54715e-60
1.89372e-61
1.39676e-62
1.02221e-63
7.42476e-65
5.35393e-66
3.83373e-67
2.72658e-68
1.92632e-69
1.35212e-70
9.4306e-72
6.53653e-73
4.50289e-74
3.08345e-75
2.09929e-76
1.42136e-77
9.57282e-79
6.4146e-80
4.27749e-81
2.83934e-82
1.87674e-83
1.23571e-84
8.10804e-86
5.30343e-87
3.45922e-88
2.25059e-89
1.46083e-90
9.46077e-92
6.11344e-93
3.94137e-94
2.53473e-95
1.6255e-96
1.03869e-97
6.60825e-99
4.18763e-100
3.49815e-55
2.69917e-56
2.0654e-57
1.56741e-58
1.17976e-59
8.80799e-61
6.52381e-62
4.79473e-63
3.49762e-64
2.53294e-65
1.82136e-66
1.30063e-67
9.22479e-69
6.49936e-70
4.54938e-71
3.16417e-72
2.18708e-73
1.50264e-74
1.02644e-75
6.97266e-77
4.71131e-78
3.16705e-79
2.11863e-80
1.41086e-81
9.35613e-83
6.18092e-84
4.06916e-85
2.67049e-86
1.74758e-87
1.14063e-88
7.42644e-90
4.82379e-91
3.12601e-92
2.02112e-93
1.3036e-94
8.38642e-96
5.38134e-97
3.43861e-98
5.39773e-54
4.21622e-55
3.2656e-56
2.5081e-57
1.91031e-58
1.44305e-59
1.08128e-60
8.03832e-62
5.92993e-63
4.34186e-64
3.15586e-65
2.27742e-66
1.63201e-67
1.16151e-68
8.2111e-70
5.76666e-71
4.02404e-72
2.79063e-73
1.9237e-74
1.31844e-75
8.98585e-77
6.09153e-78
4.1085e-79
2.75787e-80
1.84313e-81
1.22682e-82
8.13578e-84
5.3771e-85
3.54288e-86
2.32773e-87
1.52532e-88
9.97055e-90
6.50243e-91
4.23154e-92
2.74833e-93
1.78113e-94
1.15115e-95
7.4123e-97
3.38618e-53
2.67284e-54
2.09182e-55
1.62321e-56
1.249e-57
9.53074e-59
7.2132e-60
5.41551e-61
4.03404e-62
2.982e-63
2.18783e-64
1.59343e-65
1.15222e-66
8.27361e-68
5.90025e-69
4.1795e-70
2.94122e-71
2.05666e-72
1.42927e-73
9.87337e-75
6.78112e-76
4.63151e-77
3.14671e-78
2.12742e-79
1.43176e-80
9.5953e-82
6.40568e-83
4.26113e-84
2.82531e-85
1.86766e-86
1.23118e-87
8.09541e-89
5.31073e-90
3.47658e-91
2.27132e-92
1.4809e-93
9.63372e-95
6.24965e-96
1.06027e-52
8.43385e-54
6.65121e-55
5.2006e-56
4.03202e-57
3.09988e-58
2.36361e-59
1.78763e-60
1.34129e-61
9.98575e-63
7.37787e-64
5.41067e-65
3.93929e-66
2.84773e-67
2.04436e-68
1.45765e-69
1.03242e-70
7.26506e-72
5.0802e-73
3.5307e-74
2.43928e-75
1.67569e-76
1.14496e-77
7.78402e-79
5.26739e-80
3.54908e-81
2.38182e-82
1.59261e-83
1.06132e-84
7.05068e-86
4.67065e-87
3.08603e-88
2.03434e-89
1.33835e-90
8.78909e-92
5.76254e-93
3.77218e-94
2.46506e-95
1.83181e-52
1.46308e-53
1.15856e-54
9.09571e-56
7.08046e-57
5.46552e-58
4.18403e-59
3.17694e-60
2.39298e-61
1.78836e-62
1.32629e-63
9.76286e-65
7.13417e-66
5.17615e-67
3.7293e-68
2.66849e-69
1.89665e-70
1.33925e-71
9.39657e-73
6.55214e-74
4.54142e-75
3.12974e-76
2.14522e-77
1.46298e-78
9.93043e-80
6.71133e-81
4.51756e-82
3.02964e-83
2.02487e-84
1.34912e-85
8.96341e-87
5.9403e-88
3.92829e-89
2.59307e-90
1.70919e-91
1.12532e-92
7.40274e-94
4.867e-95
1.83117e-52
1.46265e-53
1.15831e-54
9.09452e-56
7.08012e-57
5.46571e-58
4.1845e-59
3.1775e-60
2.3935e-61
1.78879e-62
1.32664e-63
9.76553e-65
7.1362e-66
5.17762e-67
3.73029e-68
2.66909e-69
1.89697e-70
1.3394e-71
9.39693e-73
6.55193e-74
4.54099e-75
3.12929e-76
2.14484e-77
1.4627e-78
9.92835e-80
6.70993e-81
4.5167e-82
3.0292e-83
2.02475e-84
1.34924e-85
8.96662e-87
5.94487e-88
3.93368e-89
2.59881e-90
1.71497e-91
1.13094e-92
7.45644e-94
4.91768e-95
8.41937e-54
6.64129e-55
5.19451e-56
4.02856e-57
3.09822e-58
2.36307e-59
1.78769e-60
1.34159e-61
9.98939e-63
7.38135e-64
5.41378e-65
3.9419e-66
2.84976e-67
2.04581e-68
1.4586e-69
1.03298e-70
7.26808e-72
5.08155e-73
3.53109e-74
2.43922e-75
1.67548e-76
1.14477e-77
7.78278e-79
5.26682e-80
3.54906e-81
2.38221e-82
1.5933e-83
1.06221e-84
7.06108e-86
4.68217e-87
3.09824e-88
2.04676e-89
1.35056e-90
8.90604e-92
5.87276e-93
3.87508e-94
2.56064e-95
2.6683e-54
2.08892e-55
1.62157e-56
1.24821e-57
9.5285e-59
7.21437e-60
5.41828e-61
4.03718e-62
2.98487e-63
2.19025e-64
1.5954e-65
1.15377e-66
8.28504e-68
5.90817e-69
4.18463e-70
2.94431e-71
2.05837e-72
1.43009e-73
9.87638e-75
6.78149e-76
4.63089e-77
3.14595e-78
2.12686e-79
1.43146e-80
9.59468e-82
6.40695e-83
4.2638e-84
2.82894e-85
1.87197e-86
1.23594e-87
8.14554e-89
5.36132e-90
3.52602e-91
2.31857e-92
1.52536e-93
1.00482e-94
6.63408e-96
4.20629e-55
3.25957e-56
2.50487e-57
1.90888e-58
1.44276e-59
1.08167e-60
8.04513e-62
5.93724e-63
4.34841e-64
3.16127e-65
2.28172e-66
1.6353e-67
1.16392e-68
8.22782e-70
5.77764e-71
4.03087e-72
2.79462e-73
1.92584e-74
1.31945e-75
8.98981e-77
6.09273e-78
4.1088e-79
2.75807e-80
1.84348e-81
1.22737e-82
8.14287e-84
5.38538e-85
3.55187e-86
2.33711e-87
1.53488e-88
1.0066e-89
6.59565e-91
4.32049e-92
2.83122e-93
1.85745e-94
1.22112e-95
8.0533e-97
2.69035e-56
2.06001e-57
1.56444e-58
1.17839e-59
8.80421e-61
6.52574e-62
4.7993e-63
3.50281e-64
2.53768e-65
1.8253e-66
1.30374e-67
9.24865e-69
6.5169e-70
4.5617e-71
3.17243e-72
2.19237e-73
1.50588e-74
1.02831e-75
6.98274e-77
4.71647e-78
3.16976e-79
2.12028e-80
1.41209e-81
9.36673e-83
6.19066e-84
4.07832e-85
2.67916e-86
1.75577e-87
1.14836e-88
7.49955e-90
4.89295e-91
3.1911e-92
2.08176e-93
1.35946e-94
8.89471e-96
5.83681e-97
3.84635e-98
4.48065e-58
3.38691e-59
2.54031e-60
1.89024e-61
1.39542e-62
1.02213e-63
7.43022e-65
5.36152e-66
3.8412e-67
2.73302e-68
1.93157e-69
1.35623e-70
9.46131e-72
6.55849e-73
4.51792e-74
3.09335e-75
2.10557e-76
1.4252e-77
9.5953e-79
6.42766e-80
4.28549e-81
2.8448e-82
1.88088e-83
1.23905e-84
8.13603e-86
5.32734e-87
3.47993e-88
2.26872e-89
1.47687e-90
9.60455e-92
6.2437e-93
4.05999e-94
2.64272e-95
1.72344e-96
1.12719e-97
7.40256e-99
4.88867e-100
1.00452e-55
7.74564e-57
5.92316e-58
4.49244e-59
3.37952e-60
2.5218e-61
1.8669e-62
1.37146e-63
1.00004e-64
7.23961e-66
5.20425e-67
3.71543e-68
2.63466e-69
1.85594e-70
1.29891e-71
9.0329e-73
6.24277e-74
4.28864e-75
2.92926e-76
1.98972e-77
1.34436e-78
9.03684e-80
6.04519e-81
4.02567e-82
2.66968e-83
1.76372e-84
1.1612e-85
7.62121e-87
4.98777e-88
3.2557e-89
2.1198e-90
1.37686e-91
8.92134e-93
5.76632e-94
3.71758e-95
2.39e-96
1.53322e-97
9.79571e-99
5.03152e-54
3.92995e-55
3.04369e-56
2.33752e-57
1.78028e-58
1.34475e-59
1.00759e-60
7.49036e-62
5.52573e-63
4.04607e-64
2.94107e-65
2.1226e-66
1.52118e-67
1.08269e-68
7.65418e-70
5.37555e-71
3.75105e-72
2.60121e-73
1.79303e-74
1.22882e-75
8.37459e-77
5.67687e-78
3.82857e-79
2.5697e-80
1.7171e-81
1.14269e-82
7.57589e-84
5.00548e-85
3.2968e-86
2.1651e-87
1.41802e-88
9.2634e-90
6.03652e-91
3.92452e-92
2.54577e-93
1.64769e-94
1.06326e-95
6.83258e-97
6.99617e-53
5.53104e-54
4.33553e-55
3.36952e-56
2.59672e-57
1.98452e-58
1.50424e-59
1.13106e-60
8.43792e-62
6.24666e-63
4.58976e-64
3.34756e-65
2.42398e-66
1.74283e-67
1.24442e-68
8.8253e-70
6.21752e-71
4.35225e-72
3.02769e-73
2.09362e-74
1.43934e-75
9.84022e-77
6.69171e-78
4.5279e-79
3.04953e-80
2.04499e-81
1.36589e-82
9.08967e-84
6.02853e-85
3.98584e-86
2.62768e-87
1.72765e-88
1.1331e-89
7.41494e-91
4.84161e-92
3.15398e-93
2.04903e-94
1.32653e-95
4.14698e-52
3.31256e-53
2.62334e-54
2.05969e-55
1.6034e-56
1.23772e-57
9.47522e-59
7.19463e-60
5.41936e-61
4.05022e-62
3.00377e-63
2.21097e-64
1.61545e-65
1.17183e-66
8.44037e-68
6.03733e-69
4.2893e-70
3.02739e-71
2.12312e-72
1.47975e-73
1.02517e-74
7.06154e-76
4.8375e-77
3.29685e-78
2.23605e-79
1.50977e-80
1.01515e-81
6.79947e-83
4.53806e-84
3.0188e-85
2.00206e-86
1.32406e-87
8.73438e-89
5.74831e-90
3.77485e-91
2.4736e-92
1.6172e-93
1.05446e-94
1.26144e-51
1.01528e-52
8.10115e-54
6.40835e-55
5.02599e-56
3.90854e-57
3.01418e-58
2.30538e-59
1.74901e-60
1.3164e-61
9.83102e-63
7.28609e-64
5.35977e-65
3.91399e-66
2.83777e-67
2.04306e-68
1.46083e-69
1.03755e-70
7.32136e-72
5.13361e-73
3.5776e-74
2.47859e-75
1.7076e-76
1.17026e-77
7.98054e-79
5.41733e-80
3.66168e-81
2.4652e-82
1.65358e-83
1.10541e-84
7.3665e-86
4.89512e-87
3.24459e-88
2.14574e-89
1.41621e-90
9.33019e-92
6.13629e-93
4.02857e-94
2.15374e-51
1.74042e-52
1.3943e-53
1.10737e-54
8.71959e-56
6.80781e-57
5.2707e-58
4.04696e-59
3.08208e-60
2.32853e-61
1.74547e-62
1.29841e-63
9.58624e-65
7.02568e-66
5.11202e-67
3.69337e-68
2.65001e-69
1.88859e-70
1.33713e-71
9.40655e-73
6.5766e-74
4.57082e-75
3.15893e-76
2.1716e-77
1.48545e-78
1.0114e-79
6.85661e-81
4.62969e-82
3.11446e-83
2.08799e-84
1.39548e-85
9.30056e-87
6.18352e-88
4.10259e-89
2.71725e-90
1.79721e-91
1.18741e-92
7.83894e-94
2.15314e-51
1.73998e-52
1.39403e-53
1.10722e-54
8.719e-56
6.8078e-57
5.27103e-58
4.04743e-59
3.08256e-60
2.32895e-61
1.74581e-62
1.29868e-63
9.58836e-65
7.02723e-66
5.11307e-67
3.69401e-68
2.65036e-69
1.88874e-70
1.33716e-71
9.40625e-73
6.57605e-74
4.57026e-75
3.15845e-76
2.17123e-77
1.48519e-78
1.01122e-79
6.85555e-81
4.62919e-82
3.11438e-83
2.08825e-84
1.39599e-85
9.30735e-87
6.19132e-88
4.11084e-89
2.72554e-90
1.80528e-91
1.19513e-92
7.91185e-94
1.01364e-52
8.08966e-54
6.40121e-55
5.02186e-56
3.90641e-57
3.01334e-58
2.30527e-59
1.74924e-60
1.31675e-61
9.83465e-63
7.28945e-64
5.36262e-65
3.91621e-66
2.83935e-67
2.04409e-68
1.46144e-69
1.03786e-70
7.32258e-72
5.13377e-73
3.57728e-74
2.47815e-75
1.70722e-76
1.16999e-77
7.97907e-79
5.41682e-80
3.66189e-81
2.46592e-82
1.65468e-83
1.10678e-84
7.38218e-86
4.91201e-87
3.26194e-88
2.16292e-89
1.43277e-90
9.48731e-92
6.28373e-93
4.16607e-94
3.30768e-53
2.62001e-54
2.05773e-55
1.6024e-56
1.23736e-57
9.47569e-59
7.19717e-60
5.42258e-61
4.05333e-62
3.00649e-63
2.21321e-64
1.61722e-65
1.17315e-66
8.44952e-68
6.04325e-69
4.29285e-70
3.02931e-71
2.12399e-72
1.48001e-73
1.02513e-74
7.06011e-76
4.83607e-77
3.2958e-78
2.23544e-79
1.50956e-80
1.01525e-81
6.80273e-83
4.54296e-84
3.02483e-85
2.00885e-86
1.33127e-87
8.8078e-89
5.82067e-90
3.84447e-91
2.53948e-92
1.6789e-93
1.1119e-94
5.51993e-54
4.32848e-55
3.36567e-56
2.59498e-57
1.98414e-58
1.50467e-59
1.13186e-60
8.44676e-62
6.25473e-63
4.59653e-64
3.35297e-65
2.42813e-66
1.74586e-67
1.24652e-68
8.83909e-70
6.22602e-71
4.35712e-72
3.0302e-73
2.09471e-74
1.43967e-75
9.84035e-77
6.69103e-78
4.52742e-79
3.0495e-80
2.04543e-81
1.3667e-82
9.10037e-84
6.04098e-85
3.99938e-86
2.64182e-87
1.74198e-88
1.14721e-89
7.54993e-91
4.96855e-92
3.27206e-93
2.15821e-94
1.42723e-95
3.9189e-55
3.03687e-56
2.33382e-57
1.77863e-58
1.34439e-59
1.00796e-60
7.49736e-62
5.53342e-63
4.05304e-64
2.94684e-65
2.12715e-66
1.52464e-67
1.08522e-68
7.6718e-70
5.38727e-71
3.75845e-72
2.60562e-73
1.79548e-74
1.23005e-75
8.38017e-77
5.67935e-78
3.82991e-79
2.57077e-80
1.71818e-81
1.14384e-82
7.58786e-84
5.01768e-85
3.30896e-86
2.17705e-87
1.42967e-88
9.37586e-90
6.14388e-91
4.02534e-92
2.63876e-93
1.73219e-94
1.13976e-95
7.52603e-97
7.71857e-57
5.90611e-58
4.48275e-59
3.37485e-60
2.52031e-61
1.86725e-62
1.37271e-63
1.00153e-64
7.25358e-66
5.21601e-67
3.72482e-68
2.6419e-69
1.86129e-70
1.30269e-71
9.05838e-73
6.25923e-74
4.29879e-75
2.93519e-76
1.993e-77
1.34613e-78
9.04699e-80
6.05202e-81
4.03105e-82
2.67431e-83
1.76785e-84
1.16493e-85
7.65511e-87
5.01865e-88
3.28396e-89
2.14585e-90
1.40098e-91
9.14464e-93
5.97182e-94
3.9048e-95
2.55889e-96
1.68248e-97
1.11144e-98
7.81403e-55
6.08981e-56
4.70621e-57
3.60667e-58
2.74121e-59
2.06645e-60
1.54534e-61
1.14664e-62
8.44389e-64
6.17243e-65
4.47958e-66
3.22807e-67
2.31009e-68
1.64191e-69
1.15919e-70
8.13028e-72
5.666e-73
3.92426e-74
2.70177e-75
1.84948e-76
1.25906e-77
8.52576e-79
5.74405e-80
3.85157e-81
2.57124e-82
1.70958e-83
1.13247e-84
7.47637e-86
4.92048e-87
3.22903e-88
2.11326e-89
1.37948e-90
8.98226e-92
5.83557e-93
3.78429e-94
2.44831e-95
1.57912e-96
1.0141e-97
3.47325e-53
2.74151e-54
2.14555e-55
1.66489e-56
1.28107e-57
9.77581e-59
7.39915e-60
5.55569e-61
4.1391e-62
3.06029e-63
2.24582e-64
1.63607e-65
1.18331e-66
8.49822e-68
6.061e-69
4.29351e-70
3.02139e-71
2.11258e-72
1.468e-73
1.014e-74
6.96373e-76
4.75587e-77
3.23081e-78
2.18383e-79
1.46924e-80
9.84191e-82
6.56639e-83
4.36487e-84
2.89162e-85
1.9096e-86
1.25739e-87
8.25669e-89
5.40795e-90
3.534e-91
2.30399e-92
1.49828e-93
9.71377e-95
6.27269e-96
4.41032e-52
3.52298e-53
2.79008e-54
2.19069e-55
1.70546e-56
1.31658e-57
1.00797e-58
7.65434e-60
5.76626e-61
4.31e-62
3.19685e-63
2.35338e-64
1.71968e-65
1.24753e-66
8.98593e-68
6.42759e-69
4.56647e-70
3.22286e-71
2.26006e-72
1.57509e-73
1.09116e-74
7.51556e-76
5.14803e-77
3.50797e-78
2.37872e-79
1.60563e-80
1.07921e-81
7.22531e-83
4.81977e-84
3.2043e-85
2.12366e-86
1.40342e-87
9.25016e-89
6.08178e-90
3.9891e-91
2.61013e-92
1.70323e-93
1.10774e-94
2.47973e-51
2.00099e-52
1.60077e-53
1.26954e-54
9.98217e-56
7.78242e-57
6.01673e-58
4.61334e-59
3.50863e-60
2.64722e-61
1.98169e-62
1.47211e-63
1.08534e-64
7.94288e-66
5.77079e-67
4.16298e-68
2.98233e-69
2.12211e-70
1.50012e-71
1.05369e-72
7.35556e-74
5.10431e-75
3.52201e-76
2.41717e-77
1.65053e-78
1.1217e-79
7.58937e-81
5.1138e-82
3.43255e-83
2.29588e-84
1.53058e-85
1.01729e-86
6.74263e-88
4.45769e-89
2.94012e-90
1.93478e-91
1.27023e-92
8.31742e-94
7.33481e-51
5.96273e-52
4.8055e-53
3.83926e-54
3.04091e-55
2.38809e-56
1.85965e-57
1.43611e-58
1.09996e-59
8.35705e-61
6.29917e-62
4.7112e-63
3.49673e-64
2.57596e-65
1.88375e-66
1.36766e-67
9.85994e-69
7.05968e-70
5.021e-71
3.5479e-72
2.49126e-73
1.73873e-74
1.20651e-75
8.32613e-77
5.71622e-78
3.90539e-79
2.65611e-80
1.79881e-81
1.21341e-82
8.15528e-84
5.46265e-85
3.64777e-86
2.42908e-87
1.61353e-88
1.06943e-89
7.07393e-91
4.67048e-92
3.07796e-93
1.23773e-50
1.01015e-51
8.173e-53
6.55528e-54
5.21245e-55
4.10937e-56
3.2124e-57
2.49027e-58
1.91459e-59
1.46007e-60
1.1046e-61
8.29153e-63
6.17634e-64
4.56619e-65
3.35093e-66
2.44134e-67
1.76609e-68
1.26878e-69
9.05383e-71
6.41843e-72
4.52134e-73
3.16556e-74
2.20344e-75
1.52528e-76
1.05034e-77
7.19748e-79
4.90948e-80
3.33448e-81
2.25574e-82
1.52037e-83
1.02128e-84
6.8394e-86
4.56793e-87
3.04372e-88
2.02408e-89
1.34383e-90
8.91031e-92
5.90211e-93
1.23744e-50
1.00992e-51
8.17141e-53
6.55431e-54
5.21196e-55
4.10921e-56
3.21245e-57
2.49042e-58
1.91477e-59
1.46025e-60
1.10475e-61
8.29282e-63
6.17735e-64
4.56695e-65
3.35146e-66
2.44167e-67
1.76627e-68
1.26886e-69
9.05403e-71
6.4183e-72
4.52106e-73
3.16527e-74
2.20318e-75
1.52508e-76
1.0502e-77
7.19657e-79
4.90898e-80
3.3343e-81
2.25581e-82
1.52063e-83
1.02167e-84
6.84429e-86
4.57337e-87
3.04938e-88
2.02973e-89
1.34931e-90
8.96267e-92
5.95153e-93
5.9535e-52
4.79879e-53
3.83495e-54
3.03834e-55
2.38668e-56
1.85899e-57
1.4359e-58
1.09998e-59
8.35834e-61
6.3008e-62
4.71281e-63
3.49815e-64
2.57708e-65
1.88456e-66
1.3682e-67
9.8631e-69
7.0613e-70
5.02162e-71
3.54794e-72
2.49103e-73
1.73845e-74
1.20626e-75
8.32444e-77
5.71527e-78
3.90506e-79
2.65625e-80
1.79929e-81
1.21415e-82
8.16455e-84
5.47321e-85
3.65911e-86
2.44072e-87
1.62508e-88
1.0806e-89
7.18014e-91
4.7704e-92
3.17129e-93
1.99835e-52
1.59881e-53
1.26831e-54
9.97542e-56
7.77944e-57
6.01619e-58
4.61416e-59
3.51003e-60
2.64873e-61
1.98308e-62
1.47329e-63
1.08629e-64
7.94998e-66
5.77579e-67
4.16626e-68
2.98431e-69
2.12319e-70
1.50061e-71
1.05383e-72
7.35527e-74
5.10343e-75
3.52113e-76
2.41653e-77
1.65017e-78
1.1216e-79
7.59035e-81
5.11627e-82
3.43609e-83
2.30016e-84
1.53534e-85
1.02233e-86
6.79392e-88
4.5083e-89
2.98891e-90
1.98107e-91
1.31367e-92
8.72241e-94
3.51674e-53
2.78585e-54
2.18826e-55
1.70429e-56
1.31623e-57
1.00813e-58
7.65837e-60
5.77106e-61
4.31456e-62
3.20076e-63
2.35654e-64
1.72212e-65
1.24932e-66
8.99846e-68
6.43586e-69
4.57159e-70
3.2258e-71
2.26156e-72
1.57573e-73
1.09134e-74
7.51545e-76
5.14748e-77
3.5076e-78
2.3787e-79
1.60595e-80
1.07979e-81
7.23302e-83
4.82877e-84
3.21411e-85
2.13392e-86
1.41379e-87
9.352e-89
6.17982e-90
4.08198e-91
2.69711e-92
1.78409e-93
1.18262e-94
2.73465e-54
2.14116e-55
1.66247e-56
1.27998e-57
9.77332e-59
7.40151e-60
5.56029e-61
4.1442e-62
3.06495e-63
2.24969e-64
1.63912e-65
1.18563e-66
8.51514e-68
6.07281e-69
4.30136e-70
3.02633e-71
2.1155e-72
1.46958e-73
1.01477e-74
6.96697e-76
4.75714e-77
3.23144e-78
2.18439e-79
1.46989e-80
9.84959e-82
6.57489e-83
4.37384e-84
2.90077e-85
1.91876e-86
1.26643e-87
8.34462e-89
5.49206e-90
3.61268e-91
2.37677e-92
1.56515e-93
1.03261e-94
6.83303e-96
6.07056e-56
4.69409e-57
3.59991e-58
2.7381e-59
2.06564e-60
1.54584e-61
1.14775e-62
8.45638e-64
6.18384e-65
4.48905e-66
3.23555e-67
2.31578e-68
1.64607e-69
1.16211e-70
8.14982e-72
5.67846e-73
3.93178e-74
2.70602e-75
1.8517e-76
1.26018e-77
8.5318e-79
5.74814e-80
3.85502e-81
2.57445e-82
1.71263e-83
1.13535e-84
7.50352e-86
4.94591e-87
3.25284e-88
2.13562e-89
1.40043e-90
9.17763e-92
6.01486e-93
3.94527e-94
2.59223e-95
1.70796e-96
1.12992e-97
3.69426e-54
2.90552e-55
2.26581e-56
1.75202e-57
1.34344e-58
1.02168e-59
7.7071e-61
5.76798e-62
4.28366e-63
3.15756e-64
2.31044e-65
1.67839e-66
1.21059e-67
8.67071e-69
6.16763e-70
4.35762e-71
3.05861e-72
2.1332e-73
1.47867e-74
1.01891e-75
6.98104e-77
4.75674e-78
3.22412e-79
2.17448e-80
1.45979e-81
9.75801e-83
6.49711e-84
4.31028e-85
2.84995e-86
1.87852e-87
1.23466e-88
8.0948e-90
5.29424e-91
3.45432e-92
2.24836e-93
1.45958e-94
9.4452e-96
6.08652e-97
1.49286e-52
1.18901e-53
9.389e-55
7.35053e-56
5.70594e-57
4.39235e-58
3.35337e-59
2.53953e-60
1.90804e-61
1.4225e-62
1.05248e-63
7.72908e-65
5.63433e-66
4.07769e-67
2.93022e-68
2.09106e-69
1.48212e-70
1.04361e-71
7.30168e-73
5.07725e-74
3.50951e-75
2.41196e-76
1.64856e-77
1.12093e-78
7.58443e-80
5.10839e-81
3.42611e-82
2.28881e-83
1.52349e-84
1.01065e-85
6.68345e-87
4.40713e-88
2.8982e-89
1.90094e-90
1.24364e-91
8.1145e-93
5.27844e-94
3.4205e-95
1.7784e-51
1.43319e-52
1.14506e-53
9.06952e-55
7.12209e-56
5.54556e-57
4.28201e-58
3.27921e-59
2.49098e-60
1.87722e-61
1.40368e-62
1.04155e-63
7.67037e-65
5.60701e-66
4.06899e-67
2.93187e-68
2.09788e-69
1.49098e-70
1.05271e-71
7.38539e-73
5.14945e-74
3.56915e-75
2.45978e-76
1.68607e-77
1.14984e-78
7.80393e-80
5.27282e-81
3.54779e-82
2.37786e-83
1.58799e-84
1.05697e-85
7.01344e-87
4.64033e-88
3.06195e-89
2.01526e-90
1.32298e-91
8.66132e-93
5.65211e-94
9.61963e-51
7.82982e-52
6.31799e-53
5.05377e-54
4.00765e-55
3.15098e-56
2.45656e-57
1.89925e-58
1.45634e-59
1.10771e-60
8.35853e-62
6.25796e-63
4.64938e-64
3.42829e-65
2.50922e-66
1.82324e-67
1.31542e-68
9.42491e-70
6.70753e-71
4.74249e-72
3.33194e-73
2.32666e-74
1.61519e-75
1.11504e-76
7.65713e-78
5.23214e-79
3.55848e-80
2.40963e-81
1.62505e-82
1.09177e-83
7.30909e-85
4.8773e-86
3.24485e-87
2.15285e-88
1.42471e-89
9.40559e-91
6.19426e-92
4.06868e-93
2.78616e-50
2.2843e-51
1.85663e-52
1.49589e-53
1.19479e-54
9.46131e-56
7.42871e-57
5.78391e-58
4.46603e-59
3.42032e-60
2.59845e-61
1.9585e-62
1.46471e-63
1.08709e-64
8.0079e-66
5.85569e-67
4.2512e-68
3.06474e-69
2.19433e-70
1.5607e-71
1.10289e-72
7.74539e-74
5.40707e-75
3.75329e-76
2.59132e-77
1.77999e-78
1.21685e-79
8.28139e-81
5.61235e-82
3.78867e-83
2.54833e-84
1.70837e-85
1.14182e-86
7.61092e-88
5.0608e-89
3.35777e-90
2.22336e-91
1.46935e-92
4.6598e-50
3.83514e-51
3.12913e-52
2.53084e-53
2.02919e-54
1.613e-55
1.27129e-56
9.93535e-58
7.70015e-59
5.91892e-60
4.51304e-61
3.41382e-62
2.56222e-63
1.90834e-64
1.41065e-65
1.03507e-66
7.54004e-68
5.45387e-69
3.91778e-70
2.79551e-71
1.98179e-72
1.39614e-73
9.77667e-75
6.80713e-76
4.71385e-77
3.24756e-78
2.22657e-79
1.51965e-80
1.03278e-81
6.99139e-83
4.71568e-84
3.17026e-85
2.12503e-86
1.42072e-87
9.47732e-89
6.31028e-90
4.19516e-91
2.78564e-92
4.6589e-50
3.83436e-51
3.12855e-52
2.53046e-53
2.02897e-54
1.6129e-55
1.27126e-56
9.93553e-58
7.70054e-59
5.91936e-60
4.51347e-61
3.41419e-62
2.56253e-63
1.90857e-64
1.41081e-65
1.03517e-66
7.54062e-68
5.45414e-69
3.91784e-70
2.79546e-71
1.9817e-72
1.39604e-73
9.77581e-75
6.80647e-76
4.7134e-77
3.24728e-78
2.22643e-79
1.51963e-80
1.03285e-81
6.99279e-83
4.71758e-84
3.17249e-85
2.12744e-86
1.42319e-87
9.5018e-89
6.33395e-90
4.2177e-91
2.80686e-92
2.28089e-51
1.8541e-52
1.49422e-53
1.19377e-54
9.45545e-56
7.42568e-57
5.78263e-58
4.46575e-59
3.42054e-60
2.59887e-61
1.95897e-62
1.46515e-63
1.08744e-64
8.0105e-66
5.85742e-67
4.25223e-68
3.06526e-69
2.19451e-70
1.56069e-71
1.1028e-72
7.74428e-74
5.40614e-75
3.75265e-76
2.59097e-77
1.77989e-78
1.21693e-79
8.28364e-81
5.61565e-82
3.79273e-83
2.55291e-84
1.71326e-85
1.14682e-86
7.66044e-88
5.10874e-89
3.40342e-90
2.26633e-91
1.5095e-92
7.8205e-52
6.31066e-53
5.04897e-54
4.00487e-55
3.1496e-56
2.45611e-57
1.89935e-58
1.45671e-59
1.10817e-60
8.36297e-62
6.26185e-63
4.65255e-64
3.4307e-65
2.51093e-66
1.82438e-67
1.31611e-68
9.42868e-70
6.70924e-71
4.74297e-72
3.33181e-73
2.32632e-74
1.61486e-75
1.11481e-76
7.65596e-78
5.23197e-79
3.5591e-80
2.41084e-81
1.62668e-82
1.0937e-83
7.33039e-85
4.8997e-86
3.26757e-87
2.17525e-88
1.44631e-89
9.6106e-91
6.38677e-92
4.24813e-93
1.43093e-52
1.14346e-53
9.06005e-55
7.11736e-56
5.54394e-57
4.2823e-58
3.2805e-59
2.49264e-60
1.87885e-61
1.4051e-62
1.04271e-63
7.67936e-65
5.61365e-66
4.07363e-67
2.93495e-68
2.09979e-69
1.49208e-70
1.05326e-71
7.38771e-73
5.15006e-74
3.56907e-75
2.45956e-76
1.68594e-77
1.14986e-78
7.80558e-80
5.2756e-81
3.55137e-82
2.38198e-83
1.59246e-84
1.0616e-85
7.06019e-87
4.68646e-88
3.10659e-89
2.05776e-90
1.36295e-91
9.03401e-93
5.99787e-94
1.18633e-53
9.37159e-55
7.34095e-56
5.70168e-57
4.39143e-58
3.35438e-59
2.54144e-60
1.91015e-61
1.42443e-62
1.05408e-63
7.74164e-65
5.64382e-66
4.08458e-67
2.93502e-68
2.09424e-69
1.48412e-70
1.04478e-71
7.30792e-73
5.08016e-74
3.51066e-75
2.41235e-76
1.64875e-77
1.12113e-78
7.58719e-80
5.1118e-81
3.42998e-82
2.29296e-83
1.52776e-84
1.01496e-85
6.72607e-87
4.44841e-88
2.9377e-89
1.93831e-90
1.27863e-91
8.43923e-93
5.57811e-94
3.69621e-95
2.89709e-55
2.26051e-56
1.74915e-57
1.34219e-58
1.02143e-59
7.71015e-61
5.77364e-62
4.28983e-63
3.1631e-64
2.31497e-65
1.68192e-66
1.21325e-67
8.68997e-69
6.18102e-70
4.36652e-71
3.06422e-72
2.13652e-73
1.48048e-74
1.01981e-75
6.9852e-77
4.75886e-78
3.22561e-79
2.17588e-80
1.4612e-81
9.77214e-83
6.51091e-84
4.32352e-85
2.86256e-86
1.8905e-87
1.24597e-88
8.19912e-90
5.39026e-91
3.54252e-92
2.32915e-93
1.53334e-94
1.01177e-95
6.69972e-97
1.24392e-53
9.86046e-55
7.74951e-56
6.0386e-57
4.66589e-58
3.57537e-59
2.71741e-60
2.04885e-61
1.53273e-62
1.13789e-63
8.3848e-65
6.13334e-66
4.45395e-67
3.21128e-68
2.29904e-69
1.63461e-70
1.1544e-71
8.09956e-73
5.64714e-74
3.91338e-75
2.696e-76
1.8468e-77
1.25822e-78
8.52818e-80
5.75255e-81
3.86293e-82
2.58333e-83
1.7211e-84
1.14265e-85
7.56152e-87
4.98864e-88
3.28175e-89
2.15299e-90
1.40876e-91
9.19377e-93
5.98351e-94
3.88186e-95
2.50826e-96
4.70566e-52
3.77689e-53
3.00536e-54
2.3708e-55
1.85429e-56
1.43812e-57
1.10611e-58
8.43821e-60
6.38586e-61
4.79486e-62
3.57257e-63
2.6417e-64
1.93878e-65
1.41244e-66
1.02155e-67
7.33607e-69
5.23185e-70
3.70611e-71
2.60821e-72
1.82398e-73
1.26777e-74
8.75978e-76
6.01848e-77
4.11281e-78
2.79628e-79
1.89213e-80
1.27465e-81
8.55122e-83
5.71485e-84
3.80567e-85
2.52584e-86
1.67116e-87
1.10241e-88
7.25189e-90
4.75744e-91
3.11234e-92
2.0299e-93
1.31906e-94
5.35863e-51
4.35119e-52
3.50263e-53
2.79506e-54
2.21121e-55
1.73443e-56
1.34902e-57
1.04056e-58
7.96086e-60
6.04161e-61
4.54886e-62
3.39833e-63
2.51939e-64
1.85373e-65
1.35387e-66
9.81637e-68
7.06707e-69
5.05267e-70
3.58824e-71
2.53167e-72
1.77495e-73
1.23685e-74
8.56842e-76
5.90281e-77
4.04498e-78
2.75806e-79
1.87178e-80
1.26472e-81
8.51057e-83
5.70508e-84
3.8108e-85
2.53704e-86
1.68383e-87
1.11434e-88
7.35439e-90
4.84075e-91
3.17736e-92
2.07899e-93
2.81908e-50
2.31158e-51
1.87902e-52
1.51407e-53
1.20941e-54
9.57766e-56
7.52047e-57
5.85563e-58
4.52161e-59
3.46303e-60
2.63096e-61
1.983e-62
1.483e-63
1.10058e-64
8.10631e-66
5.92669e-67
4.30187e-68
3.10051e-69
2.21932e-70
1.57798e-71
1.11473e-72
7.82554e-74
5.46068e-75
3.78863e-76
2.61423e-77
1.79456e-78
1.22589e-79
8.33587e-81
5.64393e-82
3.80596e-83
2.55693e-84
1.71185e-85
1.14241e-86
7.60143e-88
5.04412e-89
3.33854e-90
2.20411e-91
1.45134e-92
8.04146e-50
6.64102e-51
5.4369e-52
4.41218e-53
3.5494e-54
2.83071e-55
2.23828e-56
1.7549e-57
1.36443e-58
1.0521e-59
8.0468e-61
6.10526e-62
4.59575e-63
3.4327e-64
2.5445e-65
1.87205e-66
1.36725e-67
9.91447e-69
7.13933e-70
5.10616e-71
3.62801e-72
2.5614e-73
1.79732e-74
1.2538e-75
8.69785e-77
6.00202e-78
4.12107e-79
2.81627e-80
1.9161e-81
1.29827e-82
8.76276e-84
5.89359e-85
3.95108e-86
2.64107e-87
1.76077e-88
1.1711e-89
7.77234e-91
5.14784e-92
1.33624e-49
1.1077e-50
9.10289e-52
7.41519e-53
5.98769e-54
4.79323e-55
3.80424e-56
2.99374e-57
2.33619e-58
1.80798e-59
1.38778e-60
1.05669e-61
7.9823e-63
5.983e-64
4.4502e-65
3.28527e-66
2.40746e-67
1.75153e-68
1.26539e-69
9.07937e-71
6.47149e-72
4.58317e-73
3.22589e-74
2.2572e-75
1.57053e-76
1.08694e-77
7.48461e-79
5.12938e-80
3.49962e-81
2.37776e-82
1.60932e-83
1.08539e-84
7.29713e-86
4.89206e-87
3.27164e-88
2.18338e-89
1.4546e-90
9.67726e-92
1.33601e-49
1.10749e-50
9.10127e-52
7.41407e-53
5.98699e-54
4.79284e-55
3.80407e-56
2.99371e-57
2.33623e-58
1.80805e-59
1.38786e-60
1.05677e-61
7.98296e-63
5.98351e-64
4.45056e-65
3.2855e-66
2.4076e-67
1.7516e-68
1.2654e-69
9.07926e-71
6.47126e-72
4.58293e-73
3.22568e-74
2.25704e-75
1.57043e-76
1.08688e-77
7.48441e-79
5.1295e-80
3.49998e-81
2.3783e-82
1.60999e-83
1.08614e-84
7.30504e-86
4.90008e-87
3.27952e-88
2.19098e-89
1.4618e-90
9.74489e-92
6.63138e-51
5.42964e-52
4.40729e-53
3.54635e-54
2.8289e-55
2.23729e-56
1.75442e-57
1.36425e-58
1.05209e-59
8.04749e-61
6.10622e-62
4.5967e-63
3.43351e-64
2.5451e-65
1.87245e-66
1.36749e-67
9.91567e-69
7.13972e-70
5.10609e-71
3.62774e-72
2.56109e-73
1.79706e-74
1.25363e-75
8.69698e-77
6.00184e-78
4.12144e-79
2.81706e-80
1.9172e-81
1.2996e-82
8.77759e-84
5.90929e-85
3.96708e-86
2.6569e-87
1.77609e-88
1.18569e-89
7.90961e-91
5.27596e-92
2.30904e-51
1.87694e-52
1.51266e-53
1.20857e-54
9.57322e-56
7.51866e-57
5.85544e-58
4.52228e-59
3.46404e-60
2.63202e-61
1.98396e-62
1.48379e-63
1.10118e-64
8.11066e-66
5.92959e-67
4.30365e-68
3.10148e-69
2.21976e-70
1.5781e-71
1.11469e-72
7.82466e-74
5.45986e-75
3.78808e-76
2.614e-77
1.7946e-78
1.22616e-79
8.34024e-81
5.64953e-82
3.81244e-83
2.56399e-84
1.71922e-85
1.14985e-86
7.67467e-88
5.1147e-89
3.40554e-90
2.267e-91
1.5099e-92
4.34493e-52
3.49809e-53
2.79231e-54
2.2098e-55
1.7339e-56
1.34904e-57
1.04088e-58
7.9652e-60
6.04599e-61
4.55273e-62
3.40149e-63
2.52184e-64
1.85554e-65
1.35514e-66
9.8248e-68
7.07234e-69
5.0557e-70
3.58978e-71
2.5323e-72
1.77512e-73
1.23683e-74
8.56793e-76
5.90263e-77
4.04526e-78
2.75875e-79
1.87278e-80
1.26596e-81
8.52437e-83
5.71982e-84
3.82609e-85
2.55253e-86
1.69918e-87
1.12925e-88
7.4968e-90
4.97501e-91
3.30275e-92
2.19535e-93
3.76907e-53
3.00025e-54
2.36802e-55
1.85308e-56
1.43788e-57
1.10643e-58
8.44399e-60
6.39227e-61
4.80074e-62
3.57742e-63
2.64547e-64
1.9416e-65
1.41447e-66
1.02296e-67
7.34541e-69
5.23771e-70
3.70952e-71
2.61e-72
1.82479e-73
1.26807e-74
8.76076e-76
6.01899e-77
4.11348e-78
2.79723e-79
1.8933e-80
1.27596e-81
8.56517e-83
5.72904e-84
3.81986e-85
2.5399e-86
1.68498e-87
1.11584e-88
7.3806e-90
4.87911e-91
3.22607e-92
2.13536e-93
1.41635e-94
9.83365e-55
7.73286e-56
6.02981e-57
4.66226e-58
3.57486e-59
2.71861e-60
2.05077e-61
1.53476e-62
1.13973e-63
8.39994e-65
6.14501e-66
4.46261e-67
3.2175e-68
2.30334e-69
1.63745e-70
1.15618e-71
8.10993e-73
5.65263e-74
3.91597e-75
2.69712e-76
1.84735e-77
1.25864e-78
8.53254e-80
5.7572e-81
3.86767e-82
2.58794e-83
1.72542e-84
1.14668e-85
7.59937e-87
5.02457e-88
3.31607e-89
2.18571e-90
1.43972e-91
9.48393e-93
6.25305e-94
4.13065e-95
2.73704e-96
3.2596e-53
2.60139e-54
2.05823e-55
1.6145e-56
1.25573e-57
9.68535e-59
7.40896e-60
5.62199e-61
4.23243e-62
3.16173e-63
2.34398e-64
1.72481e-65
1.25987e-66
9.13567e-68
6.57703e-69
4.70172e-70
3.33808e-71
2.35418e-72
1.64962e-73
1.14874e-74
7.95131e-76
5.47175e-77
3.74441e-78
2.54895e-79
1.72656e-80
1.1641e-81
7.81488e-83
5.22536e-84
3.48093e-85
2.31082e-86
1.52904e-87
1.00862e-88
6.63383e-90
4.35088e-91
2.84572e-92
1.85599e-93
1.20668e-94
7.81536e-96
1.17819e-51
9.51952e-53
7.625e-54
6.05452e-55
4.76626e-56
3.72037e-57
2.87977e-58
2.2108e-59
1.68354e-60
1.27187e-61
9.53368e-63
7.09144e-64
5.23483e-65
3.8354e-66
2.78942e-67
2.01407e-68
1.44399e-69
1.02818e-70
7.27233e-72
5.11059e-73
3.56903e-74
2.47743e-75
1.70973e-76
1.17339e-77
8.01089e-79
5.44226e-80
3.68021e-81
2.47793e-82
1.66169e-83
1.11012e-84
7.39002e-86
4.9031e-87
3.24286e-88
2.13842e-89
1.40608e-90
9.21893e-92
6.02597e-93
3.92503e-94
1.3e-50
1.06248e-51
8.60825e-53
6.91352e-54
5.5043e-55
4.34481e-56
3.40056e-57
2.63929e-58
2.03159e-59
1.55112e-60
1.17483e-61
8.82819e-63
6.58248e-64
4.87055e-65
3.57681e-66
2.60737e-67
1.887e-68
1.35606e-69
9.67843e-71
6.86182e-72
4.83359e-73
3.38369e-74
2.35453e-75
1.62901e-76
1.12092e-77
7.67325e-79
5.22722e-80
3.54464e-81
2.39336e-82
1.60951e-83
1.07832e-84
7.19899e-86
4.79043e-87
3.17797e-88
2.10219e-89
1.38671e-90
9.12161e-92
5.98168e-93
6.70639e-50
5.5342e-51
4.52718e-52
3.67095e-53
2.95066e-54
2.35123e-55
1.85758e-56
1.45518e-57
1.13044e-58
8.70942e-60
6.6556e-61
5.0454e-62
3.7946e-63
2.83174e-64
2.09707e-65
1.54138e-66
1.12463e-67
8.14682e-69
5.86035e-70
4.18697e-71
2.97169e-72
2.0957e-73
1.46886e-74
1.02346e-75
7.09113e-77
4.88694e-78
3.35088e-79
2.28668e-80
1.55345e-81
1.05088e-82
7.08105e-84
4.7539e-85
3.18075e-86
2.12154e-87
1.41097e-88
9.35863e-90
6.19123e-91
4.08508e-92
1.89265e-49
1.57286e-50
1.29573e-51
1.05806e-52
8.56421e-54
6.87194e-55
5.46674e-56
4.31192e-57
3.37246e-58
2.61577e-59
2.01222e-60
1.53542e-61
1.16227e-62
8.72905e-64
6.50529e-65
4.81135e-66
3.5321e-67
2.57418e-68
1.86277e-69
1.33868e-70
9.55598e-72
6.77723e-73
4.77651e-74
3.34626e-75
2.33086e-76
1.61473e-77
1.11284e-78
7.6319e-80
5.20986e-81
3.54108e-82
2.39713e-83
1.61668e-84
1.08659e-85
7.28046e-87
4.8644e-88
3.24192e-89
2.15567e-90
1.43036e-91
3.13086e-49
2.61156e-50
2.15944e-51
1.76993e-52
1.43796e-53
1.1581e-54
9.24688e-56
7.32028e-57