/*--------------------------------*- C++ -*----------------------------------*\
| =========                 |                                                 |
| \\      /  F ield         | OpenFOAM: The Open Source CFD Toolbox           |
|  \\    /   O peration     | Version:  2.3.1                                 |
|   \\  /    A nd           | Web:      www.OpenFOAM.org                      |
|    \\/     M anipulation  |                                                 |
\*---------------------------------------------------------------------------*/
FoamFile
{
    version     2.0;
    format      ascii;
    class       volScalarField;
    location    "20";
    object      Sed_0;
}
// * * * * * * * * * * * * * * * * * * * * * * * * * * * * * * * * * * * * * //

dimensions      [0 0 0 0 0 0 0];

internalField   nonuniform List<scalar> 
37692
(
5.86975e-57
4.47e-58
3.3767e-59
2.53052e-60
1.88122e-61
1.38744e-62
1.01532e-63
7.37414e-65
5.31703e-66
3.80703e-67
2.70738e-68
1.91262e-69
1.3424e-70
9.36209e-72
6.48856e-73
4.4695e-74
3.06035e-75
2.08341e-76
1.4105e-77
9.49894e-79
6.36461e-80
4.24383e-81
2.81678e-82
1.86169e-83
1.2257e-84
8.04177e-86
5.25969e-87
3.43043e-88
2.23169e-89
1.44845e-90
9.37995e-92
6.06078e-93
3.90715e-94
2.51256e-95
1.61118e-96
1.02948e-97
6.54934e-99
4.15007e-100
3.47631e-55
2.68213e-56
2.05222e-57
1.5573e-58
1.17206e-59
8.74989e-61
6.48031e-62
4.7624e-63
3.47379e-64
2.51549e-65
1.80868e-66
1.29147e-67
9.15919e-69
6.45266e-70
4.51635e-71
3.14095e-72
2.17087e-73
1.49139e-74
1.01868e-75
6.9194e-77
4.67497e-78
3.14238e-79
2.10196e-80
1.39965e-81
9.28111e-83
6.13089e-84
4.03592e-85
2.64848e-86
1.73305e-87
1.13106e-88
7.36358e-90
4.78261e-91
3.0991e-92
2.00358e-93
1.29221e-94
8.3126e-96
5.33366e-97
3.40798e-98
5.36439e-54
4.18989e-55
3.24498e-56
2.49209e-57
1.89798e-58
1.43363e-59
1.07415e-60
7.98469e-62
5.88993e-63
4.31225e-64
3.13411e-65
2.26156e-66
1.62052e-67
1.15324e-68
8.15206e-70
5.72476e-71
3.9945e-72
2.76993e-73
1.90929e-74
1.30847e-75
8.91718e-77
6.04451e-78
4.07648e-79
2.73617e-80
1.82849e-81
1.21698e-82
8.06991e-84
5.33317e-85
3.51367e-86
2.30836e-87
1.51252e-88
9.88614e-90
6.44692e-91
4.19512e-92
2.72449e-93
1.76556e-94
1.14102e-95
7.34671e-97
3.36541e-53
2.65628e-54
2.07871e-55
1.61292e-56
1.24099e-57
9.469e-59
7.16595e-60
5.37965e-61
4.00704e-62
2.96182e-63
2.17287e-64
1.58241e-65
1.14417e-66
8.21519e-68
5.85814e-69
4.14936e-70
2.91979e-71
2.04152e-72
1.41864e-73
9.79921e-75
6.72967e-76
4.59602e-77
3.12236e-78
2.1108e-79
1.42046e-80
9.51888e-82
6.35418e-83
4.22656e-84
2.80217e-85
1.85223e-86
1.22091e-87
8.02732e-89
5.26569e-90
3.44685e-91
2.25174e-92
1.46804e-93
9.54943e-95
6.19462e-96
1.0538e-52
8.3818e-54
6.60971e-55
5.16779e-56
4.0063e-57
3.07989e-58
2.3482e-59
1.77585e-60
1.33235e-61
9.91848e-63
7.32763e-64
5.37344e-65
3.91189e-66
2.82772e-67
2.02984e-68
1.44719e-69
1.02493e-70
7.21182e-72
5.0426e-73
3.5043e-74
2.42086e-75
1.66291e-76
1.13614e-77
7.72348e-79
5.22602e-80
3.52094e-81
2.36276e-82
1.57975e-83
1.05267e-84
6.99267e-86
4.63187e-87
3.06019e-88
2.01715e-89
1.32695e-90
8.71361e-92
5.71266e-93
3.73928e-94
2.44341e-95
1.82065e-52
1.45407e-53
1.15134e-54
9.03843e-56
7.03538e-57
5.43033e-58
4.1568e-59
3.15604e-60
2.37706e-61
1.77634e-62
1.31728e-63
9.6958e-65
7.08465e-66
5.13984e-67
3.70286e-68
2.64937e-69
1.88292e-70
1.32946e-71
9.32716e-73
6.50325e-74
4.50719e-75
3.10592e-76
2.12873e-77
1.45163e-78
9.8526e-80
6.65822e-81
4.48148e-82
3.00521e-83
2.0084e-84
1.33804e-85
8.88914e-87
5.89064e-88
3.89517e-89
2.57101e-90
1.69453e-91
1.11559e-92
7.33822e-94
4.82426e-95
1.82002e-52
1.45364e-53
1.15109e-54
9.03725e-56
7.03505e-57
5.43052e-58
4.15727e-59
3.1566e-60
2.37758e-61
1.77676e-62
1.31762e-63
9.69845e-65
7.08667e-66
5.1413e-67
3.70384e-68
2.64997e-69
1.88324e-70
1.3296e-71
9.32752e-73
6.50304e-74
4.50677e-75
3.10547e-76
2.12836e-77
1.45134e-78
9.85054e-80
6.65683e-81
4.48062e-82
3.00477e-83
2.00827e-84
1.33816e-85
8.89231e-87
5.89517e-88
3.9005e-89
2.5767e-90
1.70025e-91
1.12115e-92
7.39139e-94
4.87443e-95
8.3674e-54
6.59985e-55
5.16174e-56
4.00287e-57
3.07823e-58
2.34766e-59
1.77591e-60
1.33265e-61
9.9221e-63
7.33109e-64
5.37652e-65
3.91448e-66
2.82973e-67
2.03127e-68
1.44813e-69
1.02549e-70
7.21482e-72
5.04394e-73
3.50468e-74
2.42079e-75
1.6627e-76
1.13595e-77
7.72224e-79
5.22545e-80
3.52091e-81
2.36314e-82
1.58042e-83
1.05354e-84
7.00296e-86
4.64328e-87
3.07227e-88
2.02945e-89
1.33904e-90
8.8294e-92
5.82179e-93
3.84116e-94
2.53803e-95
2.65176e-54
2.07582e-55
1.6113e-56
1.24021e-57
9.46677e-59
7.16712e-60
5.3824e-61
4.01015e-62
2.96467e-63
2.17527e-64
1.58437e-65
1.1457e-66
8.22653e-68
5.86601e-69
4.15445e-70
2.92286e-71
2.04322e-72
1.41946e-73
9.80219e-75
6.73003e-76
4.5954e-77
3.12161e-78
2.11024e-79
1.42016e-80
9.51825e-82
6.35543e-83
4.22919e-84
2.80576e-85
1.85649e-86
1.22563e-87
8.07695e-89
5.31577e-90
3.4958e-91
2.29852e-92
1.51206e-93
9.95981e-95
6.57519e-96
4.18002e-55
3.23899e-56
2.48888e-57
1.89655e-58
1.43334e-59
1.07453e-60
7.99145e-62
5.89719e-63
4.31876e-64
3.13948e-65
2.26582e-66
1.62379e-67
1.15563e-68
8.16866e-70
5.73567e-71
4.00128e-72
2.7739e-73
1.91142e-74
1.30947e-75
8.92111e-77
6.04571e-78
4.07678e-79
2.73637e-80
1.82883e-81
1.21752e-82
8.07693e-84
5.34135e-85
3.52257e-86
2.31765e-87
1.52199e-88
9.98065e-90
6.53922e-91
4.28319e-92
2.80656e-93
1.84113e-94
1.21029e-95
7.98126e-97
2.67337e-56
2.04687e-57
1.55435e-58
1.1707e-59
8.74614e-61
6.48222e-62
4.76694e-63
3.47894e-64
2.5202e-65
1.81259e-66
1.29457e-67
9.18288e-69
6.47007e-70
4.52857e-71
3.14915e-72
2.17612e-73
1.4946e-74
1.02053e-75
6.9294e-77
4.68008e-78
3.14507e-79
2.1036e-80
1.40087e-81
9.29161e-83
6.14054e-84
4.04499e-85
2.65706e-86
1.74115e-87
1.13871e-88
7.43597e-90
4.85109e-91
3.16355e-92
2.06363e-93
1.34752e-94
8.81583e-96
5.78458e-97
3.81162e-98
4.45203e-58
3.36504e-59
2.52372e-60
1.87776e-61
1.3861e-62
1.01523e-63
7.37956e-65
5.32457e-66
3.81444e-67
2.71378e-68
1.91783e-69
1.34648e-70
9.39258e-72
6.51035e-73
4.48442e-74
3.07018e-75
2.08964e-76
1.4143e-77
9.52124e-79
6.37756e-80
4.25176e-81
2.82219e-82
1.86579e-83
1.22902e-84
8.06951e-86
5.28337e-87
3.45094e-88
2.24965e-89
1.46434e-90
9.52233e-92
6.18976e-93
4.0246e-94
2.61948e-95
1.70814e-96
1.11709e-97
7.33564e-99
4.84406e-100
9.9826e-56
7.6968e-57
5.8854e-58
4.46348e-59
3.35749e-60
2.50519e-61
1.85446e-62
1.36223e-63
9.9323e-65
7.18979e-66
5.16806e-67
3.68931e-68
2.61595e-69
1.84262e-70
1.28949e-71
8.96671e-73
6.19655e-74
4.25657e-75
2.90713e-76
1.97454e-77
1.334e-78
8.96651e-80
5.99769e-81
3.99373e-82
2.64829e-83
1.74946e-84
1.15172e-85
7.55845e-87
4.94632e-88
3.2284e-89
2.10187e-90
1.36512e-91
8.84464e-93
5.71636e-94
3.68513e-95
2.36899e-96
1.51965e-97
9.70854e-99
5.0005e-54
3.90545e-55
3.0245e-56
2.32262e-57
1.7688e-58
1.33599e-59
1.00096e-60
7.44047e-62
5.48852e-63
4.01853e-64
2.92084e-65
2.10784e-66
1.51049e-67
1.075e-68
7.59924e-70
5.33657e-71
3.72356e-72
2.58195e-73
1.77962e-74
1.21953e-75
8.31069e-77
5.63313e-78
3.79878e-79
2.54951e-80
1.70348e-81
1.13354e-82
7.51465e-84
4.96464e-85
3.26965e-86
2.14712e-87
1.40614e-88
9.18509e-90
5.98507e-91
3.8908e-92
2.52372e-93
1.63332e-94
1.05392e-95
6.77223e-97
6.95348e-53
5.49692e-54
4.30849e-55
3.34827e-56
2.58016e-57
1.97172e-58
1.49443e-59
1.1236e-60
8.38169e-62
6.20457e-63
4.55851e-64
3.32452e-65
2.40711e-66
1.73057e-67
1.23557e-68
8.76192e-70
6.1724e-71
4.32034e-72
3.00526e-73
2.07796e-74
1.42846e-75
9.76511e-77
6.64012e-78
4.49265e-79
3.02556e-80
2.02876e-81
1.35495e-82
9.01616e-84
5.97933e-85
3.95301e-86
2.60584e-87
1.71317e-88
1.12352e-89
7.35172e-91
4.80001e-92
3.12667e-93
2.03117e-94
1.31489e-95
4.12188e-52
3.29229e-53
2.60711e-54
2.0468e-55
1.59326e-56
1.2298e-57
9.41393e-59
7.14758e-60
5.38353e-61
4.02315e-62
2.98348e-63
2.19587e-64
1.6043e-65
1.16366e-66
8.38085e-68
5.9943e-69
4.25842e-70
3.00536e-71
2.10751e-72
1.46876e-73
1.01748e-74
7.00804e-76
4.80048e-77
3.27137e-78
2.2186e-79
1.49788e-80
1.00708e-81
6.74487e-83
4.50128e-84
2.99411e-85
1.98553e-86
1.31304e-87
8.66103e-89
5.69962e-90
3.74262e-91
2.45231e-92
1.60318e-93
1.04525e-94
1.25384e-51
1.00909e-52
8.05125e-54
6.36844e-55
4.99435e-56
3.88366e-57
2.99478e-58
2.29037e-59
1.7375e-60
1.30764e-61
9.76491e-63
7.23656e-64
5.32295e-65
3.88682e-66
2.81786e-67
2.02857e-68
1.45036e-69
1.03004e-70
7.2678e-72
5.09567e-73
3.55089e-74
2.4599e-75
1.6946e-76
1.16125e-77
7.91856e-79
5.37485e-80
3.6327e-81
2.4455e-82
1.64024e-83
1.09641e-84
7.30598e-86
4.85455e-87
3.21747e-88
2.12765e-89
1.40416e-90
9.2502e-92
6.08328e-93
3.99351e-94
2.14079e-51
1.72984e-52
1.38573e-53
1.10049e-54
8.6648e-56
6.76456e-57
5.23685e-58
4.02068e-59
3.06185e-60
2.31307e-61
1.73376e-62
1.2896e-63
9.52052e-65
6.977e-66
5.07623e-67
3.66724e-68
2.63106e-69
1.87495e-70
1.32737e-71
9.33719e-73
6.52761e-74
4.53643e-75
3.13492e-76
2.15493e-77
1.47394e-78
1.00349e-79
6.80245e-81
4.59278e-82
3.08939e-83
2.07103e-84
1.38404e-85
9.22363e-87
6.13192e-88
4.06805e-89
2.69419e-90
1.78183e-91
1.17716e-92
7.77076e-94
2.14019e-51
1.7294e-52
1.38546e-53
1.10034e-54
8.66422e-56
6.76455e-57
5.23717e-58
4.02114e-59
3.06232e-60
2.31349e-61
1.7341e-62
1.28987e-63
9.52263e-65
6.97854e-66
5.07726e-67
3.66788e-68
2.63141e-69
1.8751e-70
1.3274e-71
9.33689e-73
6.52707e-74
4.53587e-75
3.13445e-76
2.15457e-77
1.47368e-78
1.00331e-79
6.80139e-81
4.59228e-82
3.08932e-83
2.07128e-84
1.38454e-85
9.23035e-87
6.13964e-88
4.07622e-89
2.70239e-90
1.78982e-91
1.1848e-92
7.84295e-94
1.00746e-52
8.03984e-54
6.36134e-55
4.99024e-56
3.88154e-57
2.99395e-58
2.29026e-59
1.73773e-60
1.30799e-61
9.76852e-63
7.2399e-64
5.32578e-65
3.88902e-66
2.81942e-67
2.02959e-68
1.45096e-69
1.03035e-70
7.26901e-72
5.09582e-73
3.55057e-74
2.45946e-75
1.69422e-76
1.16099e-77
7.9171e-79
5.37434e-80
3.6329e-81
2.44621e-82
1.64133e-83
1.09777e-84
7.3215e-86
4.87127e-87
3.23464e-88
2.14465e-89
1.42057e-90
9.40578e-92
6.22927e-93
4.12965e-94
3.28744e-53
2.60379e-54
2.04486e-55
1.59227e-56
1.22945e-57
9.4144e-59
7.1501e-60
5.38672e-61
4.02623e-62
2.98617e-63
2.1981e-64
1.60606e-65
1.16496e-66
8.38993e-68
6.00018e-69
4.26194e-70
3.00727e-71
2.10838e-72
1.46902e-73
1.01744e-74
7.00662e-76
4.79906e-77
3.27032e-78
2.21799e-79
1.49766e-80
1.00717e-81
6.7481e-83
4.50612e-84
3.00008e-85
1.99226e-86
1.32018e-87
8.73373e-89
5.77128e-90
3.81156e-91
2.51755e-92
1.66428e-93
1.10212e-94
5.48588e-54
4.30148e-55
3.34445e-56
2.57843e-57
1.97135e-58
1.49486e-59
1.1244e-60
8.39047e-62
6.2126e-63
4.56522e-64
3.32989e-65
2.41123e-66
1.73358e-67
1.23766e-68
8.77561e-70
6.18084e-71
4.32518e-72
3.00775e-73
2.07903e-74
1.42879e-75
9.76522e-77
6.63944e-78
4.49217e-79
3.02553e-80
2.02919e-81
1.35575e-82
9.02675e-84
5.99165e-85
3.96641e-86
2.61984e-87
1.72736e-88
1.13749e-89
7.4854e-91
4.9257e-92
3.24359e-93
2.13926e-94
1.41458e-95
3.89447e-55
3.01773e-56
2.31894e-57
1.76716e-58
1.33563e-59
1.00132e-60
7.44743e-62
5.49617e-63
4.02546e-64
2.92656e-65
2.11235e-66
1.51392e-67
1.07751e-68
7.61673e-70
5.34819e-71
3.73091e-72
2.58633e-73
1.78205e-74
1.22075e-75
8.31622e-77
5.63558e-78
3.8001e-79
2.55056e-80
1.70455e-81
1.13468e-82
7.52649e-84
4.97672e-85
3.2817e-86
2.15895e-87
1.41767e-88
9.29645e-90
6.09137e-91
3.99062e-92
2.6158e-93
1.71698e-94
1.12966e-95
7.45873e-97
7.6699e-57
5.86846e-58
4.45385e-59
3.35285e-60
2.50371e-61
1.85482e-62
1.36346e-63
9.94712e-65
7.20367e-66
5.17974e-67
3.69864e-68
2.62313e-69
1.84793e-70
1.29324e-71
8.99199e-73
6.21288e-74
4.26664e-75
2.91302e-76
1.97779e-77
1.33575e-78
8.97657e-80
6.00445e-81
3.99906e-82
2.65288e-83
1.75355e-84
1.15542e-85
7.59202e-87
4.9769e-88
3.25639e-89
2.12767e-90
1.389e-91
9.06575e-93
5.91983e-94
3.8705e-95
2.5362e-96
1.66743e-97
1.10141e-98
7.76574e-55
6.05176e-56
4.67648e-57
3.58364e-58
2.72351e-59
2.05296e-60
1.53513e-61
1.13899e-62
8.38693e-64
6.13033e-65
4.4487e-66
3.20558e-67
2.29383e-68
1.63022e-69
1.15085e-70
8.07121e-72
5.62441e-73
3.89516e-74
2.68153e-75
1.83548e-76
1.24944e-77
8.45995e-79
5.69928e-80
3.82126e-81
2.55081e-82
1.69587e-83
1.1233e-84
7.41528e-86
4.8799e-87
3.20216e-88
2.09552e-89
1.3678e-90
8.90559e-92
5.78535e-93
3.75146e-94
2.42692e-95
1.56524e-96
1.00514e-97
3.45203e-53
2.72458e-54
2.13215e-55
1.65438e-56
1.27289e-57
9.7127e-59
7.35085e-60
5.51903e-61
4.11148e-62
3.03965e-63
2.23051e-64
1.62479e-65
1.17507e-66
8.4384e-68
6.01789e-69
4.26265e-70
2.99944e-71
2.09707e-72
1.45711e-73
1.00641e-74
6.91104e-76
4.71953e-77
3.20588e-78
2.16681e-79
1.45768e-80
9.76373e-82
6.51373e-83
4.32954e-84
2.86799e-85
1.89386e-86
1.24693e-87
8.18743e-89
5.36219e-90
3.50385e-91
2.28418e-92
1.4853e-93
9.62904e-95
6.21765e-96
4.38366e-52
3.50145e-53
2.77284e-54
2.177e-55
1.69469e-56
1.30817e-57
1.00146e-58
7.60436e-60
5.7282e-61
4.28124e-62
3.17529e-63
2.33733e-64
1.70783e-65
1.23884e-66
8.92265e-68
6.38185e-69
4.53363e-70
3.19944e-71
2.24347e-72
1.56341e-73
1.08298e-74
7.45869e-76
5.10869e-77
3.48089e-78
2.36018e-79
1.593e-80
1.07063e-81
7.16736e-83
4.78075e-84
3.17812e-85
2.10615e-86
1.39175e-87
9.17256e-89
6.03033e-90
3.95508e-91
2.5877e-92
1.68849e-93
1.09809e-94
2.46486e-51
1.98886e-52
1.59096e-53
1.26167e-54
9.91963e-56
7.73312e-57
5.97819e-58
4.58346e-59
3.48565e-60
2.6297e-61
1.96843e-62
1.46215e-63
1.07792e-64
7.88798e-66
5.73048e-67
4.13359e-68
2.96105e-69
2.10681e-70
1.48919e-71
1.04593e-72
7.30088e-74
5.06598e-75
3.4953e-76
2.39865e-77
1.63776e-78
1.11294e-79
7.52952e-81
5.07309e-82
3.40497e-83
2.27726e-84
1.51805e-85
1.00889e-86
6.68646e-88
4.42023e-89
2.91521e-90
1.91826e-91
1.2593e-92
8.24535e-94
7.29105e-51
5.92677e-52
4.7762e-53
3.81559e-54
3.02196e-55
2.37304e-56
1.8478e-57
1.42686e-58
1.09279e-59
8.30201e-61
6.25723e-62
4.67949e-63
3.47294e-64
2.55825e-65
1.87066e-66
1.35806e-67
9.78995e-69
7.00905e-70
4.98462e-71
3.52193e-72
2.47283e-73
1.72574e-74
1.1974e-75
8.26268e-77
5.67223e-78
3.87504e-79
2.63527e-80
1.78456e-81
1.20371e-82
8.08946e-84
5.41815e-85
3.61779e-86
2.40894e-87
1.60004e-88
1.06041e-89
7.01377e-91
4.63045e-92
3.05137e-93
1.23036e-50
1.00407e-51
8.12328e-53
6.51496e-54
5.18003e-55
4.08353e-56
3.19198e-57
2.47427e-58
1.90215e-59
1.45048e-60
1.09726e-61
8.23586e-63
6.13442e-64
4.53487e-65
3.3277e-66
2.42424e-67
1.75358e-68
1.2597e-69
8.98838e-71
6.37155e-72
4.48798e-73
3.14197e-74
2.18685e-75
1.51368e-76
1.04227e-77
7.14168e-79
4.87105e-80
3.30813e-81
2.23775e-82
1.50813e-83
1.01298e-84
6.78332e-86
4.53014e-87
3.01831e-88
2.00704e-89
1.33242e-90
8.83404e-92
5.85118e-93
1.23008e-50
1.00384e-51
8.1217e-53
6.514e-54
5.17954e-55
4.08337e-56
3.19202e-57
2.47441e-58
1.90233e-59
1.45065e-60
1.09741e-61
8.23714e-63
6.13543e-64
4.53562e-65
3.32822e-66
2.42456e-67
1.75376e-68
1.25979e-69
8.98858e-71
6.37142e-72
4.48771e-73
3.14168e-74
2.1866e-75
1.51348e-76
1.04214e-77
7.14078e-79
4.87055e-80
3.30795e-81
2.23781e-82
1.50838e-83
1.01337e-84
6.78815e-86
4.53552e-87
3.02392e-88
2.01263e-89
1.33785e-90
8.88588e-92
5.90011e-93
5.91759e-52
4.76953e-53
3.81131e-54
3.0194e-55
2.37164e-56
1.84714e-57
1.42665e-58
1.09282e-59
8.3033e-61
6.25885e-62
4.68109e-63
3.47435e-64
2.55936e-65
1.87146e-66
1.35859e-67
9.79309e-69
7.01065e-70
4.98522e-71
3.52197e-72
2.47261e-73
1.72546e-74
1.19716e-75
8.261e-77
5.67128e-78
3.87471e-79
2.6354e-80
1.78504e-81
1.20444e-82
8.09864e-84
5.42861e-85
3.62902e-86
2.42047e-87
1.61147e-88
1.07147e-89
7.11895e-91
4.72938e-92
3.14379e-93
1.98623e-52
1.58901e-53
1.26045e-54
9.91292e-56
7.73016e-57
5.97765e-58
4.58427e-59
3.48704e-60
2.63119e-61
1.96981e-62
1.46332e-63
1.07886e-64
7.89503e-66
5.73544e-67
4.13684e-68
2.96302e-69
2.10788e-70
1.48968e-71
1.04608e-72
7.30059e-74
5.0651e-75
3.49442e-76
2.39802e-77
1.6374e-78
1.11283e-79
7.53048e-81
5.07553e-82
3.40847e-83
2.2815e-84
1.52277e-85
1.01388e-86
6.73725e-88
4.47035e-89
2.96353e-90
1.9641e-91
1.30232e-92
8.64634e-94
3.49525e-53
2.76864e-54
2.17459e-55
1.69352e-56
1.30783e-57
1.00161e-58
7.60837e-60
5.73296e-61
4.28576e-62
3.17916e-63
2.34046e-64
1.71025e-65
1.24062e-66
8.93509e-68
6.39006e-69
4.53871e-70
3.20236e-71
2.24496e-72
1.56404e-73
1.08316e-74
7.45857e-76
5.10814e-77
3.48052e-78
2.36016e-79
1.59331e-80
1.07121e-81
7.17499e-83
4.78966e-84
3.18784e-85
2.11631e-86
1.40202e-87
9.27341e-89
6.12742e-90
4.04705e-91
2.67382e-92
1.76855e-93
1.17222e-94
2.71776e-54
2.12779e-55
1.65197e-56
1.27181e-57
9.71023e-59
7.3532e-60
5.5236e-61
4.11655e-62
3.04427e-63
2.23435e-64
1.62782e-65
1.17737e-66
8.45519e-68
6.0296e-69
4.27043e-70
3.00435e-71
2.09997e-72
1.45869e-73
1.00717e-74
6.91426e-76
4.72078e-77
3.20651e-78
2.16736e-79
1.45833e-80
9.77133e-82
6.52214e-83
4.33842e-84
2.87706e-85
1.90293e-86
1.25588e-87
8.2745e-89
5.44549e-90
3.58177e-91
2.35625e-92
1.55151e-93
1.02353e-94
6.7724e-96
6.03263e-56
4.66444e-57
3.57692e-58
2.72042e-59
2.05215e-60
1.53563e-61
1.14009e-62
8.39933e-64
6.14167e-65
4.45811e-66
3.21301e-67
2.29948e-68
1.63436e-69
1.15375e-70
8.0906e-72
5.63678e-73
3.90262e-74
2.68574e-75
1.83769e-76
1.25054e-77
8.46594e-79
5.70333e-80
3.82467e-81
2.55399e-82
1.69888e-83
1.12615e-84
7.44216e-86
4.90509e-87
3.22575e-88
2.11767e-89
1.38854e-90
9.09906e-92
5.9629e-93
3.91087e-94
2.56942e-95
1.69279e-96
1.11979e-97
3.6716e-54
2.8875e-55
2.2516e-56
1.74091e-57
1.33483e-58
1.01506e-59
7.65659e-61
5.72976e-62
4.25497e-63
3.13618e-64
2.29463e-65
1.66678e-66
1.20213e-67
8.60945e-69
6.1236e-70
4.32618e-71
3.03631e-72
2.11749e-73
1.46766e-74
1.01126e-75
6.92805e-77
4.72027e-78
3.19916e-79
2.15748e-80
1.44826e-81
9.68026e-83
6.44485e-84
4.27528e-85
2.8266e-86
1.86299e-87
1.22436e-88
8.02669e-90
5.24932e-91
3.42476e-92
2.22898e-93
1.4469e-94
9.3626e-96
6.03298e-97
1.48381e-52
1.18172e-53
9.33079e-55
7.30445e-56
5.66978e-57
4.3642e-58
3.33164e-59
2.52289e-60
1.8954e-61
1.41298e-62
1.04536e-63
7.6762e-65
5.59537e-66
4.04919e-67
2.90953e-68
2.07613e-69
1.47143e-70
1.036e-71
7.24792e-73
5.03949e-74
3.48314e-75
2.39366e-76
1.63593e-77
1.11225e-78
7.52516e-80
5.06808e-81
3.39882e-82
2.27041e-83
1.51112e-84
1.00237e-85
6.62822e-87
4.37039e-88
2.87383e-89
1.88482e-90
1.23301e-91
8.04461e-93
5.23266e-94
3.39065e-95
1.76773e-51
1.4245e-52
1.13804e-53
9.01328e-55
7.07743e-56
5.5104e-57
4.25456e-58
3.25795e-59
2.47466e-60
1.86479e-61
1.39427e-62
1.0345e-63
7.61788e-65
5.56823e-66
4.04054e-67
2.91116e-68
2.0829e-69
1.48022e-70
1.04503e-71
7.331e-73
5.11114e-74
3.54233e-75
2.44111e-76
1.67315e-77
1.14094e-78
7.74293e-80
5.23121e-81
3.51953e-82
2.35874e-83
1.5751e-84
1.04831e-85
6.95549e-87
4.60165e-88
3.03621e-89
1.99818e-90
1.31168e-91
8.58678e-93
5.60314e-94
9.56239e-51
7.78273e-52
6.27957e-53
5.0227e-54
3.98273e-55
3.13117e-56
2.44095e-57
1.88705e-58
1.44688e-59
1.10043e-60
8.30301e-62
6.21594e-63
4.61783e-64
3.40477e-65
2.49182e-66
1.81047e-67
1.30611e-68
9.35746e-70
6.65903e-71
4.70784e-72
3.30735e-73
2.30931e-74
1.60302e-75
1.10656e-76
7.59831e-78
5.19156e-79
3.53062e-80
2.39058e-81
1.61208e-82
1.08298e-83
7.24968e-85
4.83729e-86
3.218e-87
2.13488e-88
1.41272e-89
9.32578e-91
6.14128e-92
4.03363e-93
2.76967e-50
2.27063e-51
1.8454e-52
1.48674e-53
1.18741e-54
9.40215e-56
7.38174e-57
5.74693e-58
4.43717e-59
3.39797e-60
2.58128e-61
1.94542e-62
1.45483e-63
1.07967e-64
7.95268e-66
5.81488e-67
4.22126e-68
3.04292e-69
2.17854e-70
1.54935e-71
1.09479e-72
7.68795e-74
5.36657e-75
3.72489e-76
2.57152e-77
1.76626e-78
1.20737e-79
8.21626e-81
5.56779e-82
3.75831e-83
2.52772e-84
1.69443e-85
1.13242e-86
7.54769e-88
5.0184e-89
3.3294e-90
2.20442e-91
1.45674e-92
4.63228e-50
3.81224e-51
3.11025e-52
2.5154e-53
2.01667e-54
1.60294e-55
1.26327e-56
9.872e-58
7.65051e-59
5.88034e-60
4.48331e-61
3.39108e-62
2.54497e-63
1.89535e-64
1.40095e-65
1.02787e-66
7.48707e-68
5.41515e-69
3.88967e-70
2.77525e-71
1.96728e-72
1.38581e-73
9.70362e-75
6.75576e-76
4.67793e-77
3.22257e-78
2.20927e-79
1.50773e-80
1.0246e-81
6.9355e-83
4.67763e-84
3.14445e-85
2.10757e-86
1.40895e-87
9.39808e-89
6.25706e-90
4.15949e-91
2.76176e-92
4.63138e-50
3.81147e-51
3.10967e-52
2.51502e-53
2.01645e-54
1.60284e-55
1.26324e-56
9.87217e-58
7.6509e-59
5.88079e-60
4.48373e-61
3.39145e-62
2.54527e-63
1.89558e-64
1.40111e-65
1.02798e-66
7.48764e-68
5.41542e-69
3.88974e-70
2.7752e-71
1.96719e-72
1.38572e-73
9.70278e-75
6.75511e-76
4.67748e-77
3.22229e-78
2.20913e-79
1.50771e-80
1.02467e-81
6.93689e-83
4.67951e-84
3.14665e-85
2.10995e-86
1.41139e-87
9.42231e-89
6.28051e-90
4.18181e-91
2.78277e-92
2.26724e-51
1.84289e-52
1.48508e-53
1.18639e-54
9.39632e-56
7.37873e-57
5.74567e-58
4.43689e-59
3.39819e-60
2.5817e-61
1.94588e-62
1.45526e-63
1.08002e-64
7.95525e-66
5.81659e-67
4.22228e-68
3.04344e-69
2.17873e-70
1.54935e-71
1.0947e-72
7.68685e-74
5.36565e-75
3.72426e-76
2.57117e-77
1.76615e-78
1.20745e-79
8.21847e-81
5.57105e-82
3.76233e-83
2.53226e-84
1.69927e-85
1.13737e-86
7.59673e-88
5.06587e-89
3.37461e-90
2.24698e-91
1.49649e-92
7.77345e-52
6.27228e-53
5.01792e-54
3.97997e-55
3.1298e-56
2.4405e-57
1.88715e-58
1.44724e-59
1.10089e-60
8.30743e-62
6.21981e-63
4.62098e-64
3.40716e-65
2.49352e-66
1.81159e-67
1.30679e-68
9.36121e-70
6.66073e-71
4.70832e-72
3.30722e-73
2.30898e-74
1.6027e-75
1.10633e-76
7.59715e-78
5.19139e-79
3.53122e-80
2.39178e-81
1.6137e-82
1.08489e-83
7.27076e-85
4.85948e-86
3.2405e-87
2.15706e-88
1.43411e-89
9.52879e-91
6.33192e-92
4.21132e-93
1.42225e-52
1.13645e-53
9.00388e-55
7.07273e-56
5.50879e-57
4.25485e-58
3.25924e-59
2.4763e-60
1.86641e-61
1.39569e-62
1.03565e-63
7.6268e-65
5.57482e-66
4.04516e-67
2.91422e-68
2.0848e-69
1.48131e-70
1.04559e-71
7.3333e-73
5.11175e-74
3.54225e-75
2.44089e-76
1.67302e-77
1.14096e-78
7.74457e-80
5.23395e-81
3.52307e-82
2.36282e-83
1.57952e-84
1.0529e-85
7.00178e-87
4.64734e-88
3.08042e-89
2.04027e-90
1.35126e-91
8.95582e-93
5.94548e-94
1.17906e-53
9.31349e-55
7.29494e-56
5.66555e-57
4.36329e-58
3.33265e-59
2.52479e-60
1.8975e-61
1.4149e-62
1.04695e-63
7.68868e-65
5.60479e-66
4.05604e-67
2.91429e-68
2.07929e-69
1.47341e-70
1.03717e-71
7.25411e-73
5.04238e-74
3.48428e-75
2.39405e-76
1.63611e-77
1.11245e-78
7.52788e-80
5.07146e-81
3.40265e-82
2.27452e-83
1.51536e-84
1.00664e-85
6.67043e-87
4.41127e-88
2.91295e-89
1.92183e-90
1.26766e-91
8.36616e-93
5.52938e-94
3.66362e-95
2.87912e-55
2.24633e-56
1.73806e-57
1.33359e-58
1.01481e-59
7.65962e-61
5.73538e-62
4.2611e-63
3.14168e-64
2.29912e-65
1.67029e-66
1.20476e-67
8.62857e-69
6.13689e-70
4.33501e-71
3.04188e-72
2.12078e-73
1.46946e-74
1.01214e-75
6.93217e-77
4.72237e-78
3.20063e-79
2.15886e-80
1.44966e-81
9.69424e-83
6.45851e-84
4.2884e-85
2.83908e-86
1.87485e-87
1.23556e-88
8.13e-90
5.34441e-91
3.51211e-92
2.30897e-93
1.51993e-94
1.00284e-95
6.64005e-97
1.23633e-53
9.79963e-55
7.70117e-56
6.00051e-57
4.63613e-58
3.55232e-59
2.6997e-60
2.03535e-61
1.52252e-62
1.13022e-63
8.32772e-65
6.09114e-66
4.42297e-67
3.18871e-68
2.28272e-69
1.62288e-70
1.14603e-71
8.04022e-73
5.60534e-74
3.88413e-75
2.67564e-76
1.83271e-77
1.24853e-78
8.46185e-80
5.70738e-81
3.8323e-82
2.56265e-83
1.7072e-84
1.13334e-85
7.49931e-87
4.94723e-88
3.25427e-89
2.13481e-90
1.39676e-91
9.11485e-93
5.93176e-94
3.84806e-95
2.48629e-96
4.67727e-52
3.75386e-53
2.98683e-54
2.35602e-55
1.8426e-56
1.42895e-57
1.09898e-58
8.38324e-60
6.3438e-61
4.76293e-62
3.54853e-63
2.62372e-64
1.92545e-65
1.40262e-66
1.01437e-67
7.28399e-69
5.19432e-70
3.67925e-71
2.58911e-72
1.81049e-73
1.25829e-74
8.69366e-76
5.97259e-77
4.08114e-78
2.77454e-79
1.87728e-80
1.26455e-81
8.48281e-83
5.66871e-84
3.77466e-85
2.50507e-86
1.65729e-87
1.09319e-88
7.19069e-90
4.71697e-91
3.08566e-92
2.01237e-93
1.3076e-94
5.32666e-51
4.32494e-52
3.48127e-53
2.77782e-54
2.19742e-55
1.72349e-56
1.34043e-57
1.03386e-58
7.90899e-60
6.00181e-61
4.51857e-62
3.37545e-63
2.50224e-64
1.84098e-65
1.34446e-66
9.7474e-68
7.01689e-69
5.01642e-70
3.56223e-71
2.51312e-72
1.76182e-73
1.2276e-74
8.50374e-76
5.85781e-77
4.01384e-78
2.73662e-79
1.85708e-80
1.2547e-81
8.4425e-83
5.65902e-84
3.77975e-85
2.51619e-86
1.66987e-87
1.10501e-88
7.29236e-90
4.79959e-91
3.15014e-92
2.06105e-93
2.8024e-50
2.29776e-51
1.86766e-52
1.50481e-53
1.20194e-54
9.5178e-56
7.47294e-57
5.81822e-58
4.4924e-59
3.44041e-60
2.61359e-61
1.96977e-62
1.47299e-63
1.09307e-64
8.05043e-66
5.8854e-67
4.27158e-68
3.07844e-69
2.20336e-70
1.56652e-71
1.10654e-72
7.76752e-74
5.41979e-75
3.75998e-76
2.59426e-77
1.78071e-78
1.21634e-79
8.27032e-81
5.59913e-82
3.77547e-83
2.53626e-84
1.69788e-85
1.133e-86
7.53831e-88
5.00187e-89
3.31035e-90
2.18535e-91
1.4389e-92
7.99414e-50
6.60152e-51
5.4042e-52
4.38536e-53
3.52757e-54
2.81311e-55
2.22421e-56
1.74375e-57
1.35566e-58
1.04527e-59
7.99397e-61
6.06474e-62
4.56491e-63
3.40942e-64
2.52705e-65
1.85908e-66
1.35768e-67
9.84431e-69
7.08829e-70
5.06928e-71
3.60154e-72
2.54251e-73
1.78393e-74
1.24437e-75
8.63178e-77
5.95597e-78
4.08914e-79
2.79425e-80
1.90097e-81
1.28792e-82
8.69227e-84
5.84575e-85
3.91871e-86
2.61925e-87
1.74609e-88
1.16126e-89
7.70646e-91
5.10387e-92
1.32839e-49
1.10113e-50
9.04829e-52
7.37022e-53
5.95097e-54
4.76351e-55
3.7804e-56
2.97477e-57
2.32122e-58
1.79626e-59
1.37869e-60
1.04969e-61
7.92888e-63
5.94253e-64
4.41977e-65
3.26257e-66
2.39065e-67
1.73917e-68
1.25636e-69
9.01396e-71
6.42438e-72
4.54947e-73
3.20193e-74
2.24027e-75
1.55863e-76
1.07862e-77
7.42678e-79
5.08937e-80
3.47206e-81
2.35886e-82
1.59641e-83
1.0766e-84
7.2375e-86
4.85173e-87
3.24443e-88
2.16507e-89
1.44229e-90
9.59471e-92
1.32817e-49
1.10092e-50
9.04668e-52
7.36911e-53
5.95028e-54
4.76313e-55
3.78023e-56
2.97474e-57
2.32126e-58
1.79634e-59
1.37878e-60
1.04977e-61
7.92954e-63
5.94304e-64
4.42014e-65
3.2628e-66
2.39079e-67
1.73924e-68
1.25638e-69
9.01385e-71
6.42416e-72
4.54923e-73
3.20172e-74
2.24011e-75
1.55853e-76
1.07856e-77
7.42659e-79
5.08949e-80
3.47241e-81
2.35939e-82
1.59707e-83
1.07735e-84
7.24534e-86
4.85967e-87
3.25224e-88
2.17259e-89
1.44943e-90
9.66169e-92
6.59193e-51
5.39699e-52
4.38049e-53
3.52455e-54
2.81132e-55
2.22323e-56
1.74327e-57
1.35549e-58
1.04526e-59
7.99465e-61
6.06569e-62
4.56586e-63
3.41022e-64
2.52765e-65
1.85948e-66
1.35792e-67
9.84551e-69
7.08868e-70
5.0692e-71
3.60126e-72
2.5422e-73
1.78368e-74
1.2442e-75
8.63091e-77
5.95579e-78
4.08951e-79
2.79503e-80
1.90206e-81
1.28924e-82
8.70695e-84
5.8613e-85
3.93456e-86
2.63493e-87
1.76126e-88
1.17571e-89
7.84241e-91
5.23074e-92
2.29523e-51
1.86559e-52
1.50341e-53
1.2011e-54
9.51339e-56
7.47114e-57
5.81803e-58
4.49307e-59
3.44141e-60
2.61464e-61
1.97072e-62
1.47377e-63
1.09367e-64
8.05474e-66
5.88828e-67
4.27334e-68
3.07941e-69
2.2038e-70
1.56664e-71
1.10651e-72
7.76665e-74
5.41897e-75
3.75943e-76
2.59403e-77
1.78076e-78
1.21661e-79
8.27464e-81
5.60467e-82
3.78188e-83
2.54324e-84
1.70518e-85
1.14037e-86
7.61084e-88
5.07178e-89
3.3767e-90
2.24763e-91
1.49688e-92
4.31872e-52
3.47676e-53
2.7751e-54
2.19602e-55
1.72297e-56
1.34044e-57
1.03417e-58
7.9133e-60
6.00616e-61
4.52241e-62
3.37859e-63
2.50468e-64
1.84277e-65
1.34572e-66
9.75577e-68
7.02212e-69
5.01943e-70
3.56375e-71
2.51376e-72
1.76199e-73
1.22759e-74
8.50325e-76
5.85762e-77
4.01411e-78
2.7373e-79
1.85808e-80
1.25592e-81
8.45615e-83
5.67362e-84
3.79489e-85
2.53153e-86
1.68507e-87
1.11978e-88
7.43339e-90
4.93254e-91
3.2743e-92
2.17627e-93
3.74608e-53
2.98176e-54
2.35326e-55
1.8414e-56
1.42872e-57
1.0993e-58
8.38898e-60
6.35017e-61
4.76877e-62
3.55334e-63
2.62746e-64
1.92824e-65
1.40464e-66
1.01577e-67
7.29326e-69
5.20013e-70
3.68263e-71
2.59089e-72
1.81129e-73
1.25859e-74
8.69463e-76
5.9731e-77
4.08181e-78
2.77548e-79
1.87844e-80
1.26584e-81
8.49662e-83
5.68276e-84
3.78871e-85
2.519e-86
1.67098e-87
1.10649e-88
7.31815e-90
4.83745e-91
3.19828e-92
2.11679e-93
1.40392e-94
9.77297e-55
7.68462e-56
5.99178e-57
4.63252e-58
3.55181e-59
2.70089e-60
2.03726e-61
1.52453e-62
1.13205e-63
8.34276e-65
6.10272e-66
4.43157e-67
3.19488e-68
2.28698e-69
1.6257e-70
1.14779e-71
8.05051e-73
5.61079e-74
3.88669e-75
2.67675e-76
1.83326e-77
1.24894e-78
8.46616e-80
5.71198e-81
3.837e-82
2.56722e-83
1.71147e-84
1.13732e-85
7.53679e-87
4.98281e-88
3.28825e-89
2.16721e-90
1.42742e-91
9.40217e-93
6.19864e-94
4.09438e-95
2.71278e-96
3.23978e-53
2.5854e-54
2.04543e-55
1.60435e-56
1.24775e-57
9.62312e-59
7.36084e-60
5.58508e-61
4.20433e-62
3.14051e-63
2.32808e-64
1.71298e-65
1.25114e-66
9.0717e-68
6.53048e-69
4.66809e-70
3.31396e-71
2.337e-72
1.63745e-73
1.14018e-74
7.89148e-76
5.43016e-77
3.71567e-78
2.52919e-79
1.71305e-80
1.1549e-81
7.75255e-83
5.1833e-84
3.45265e-85
2.29187e-86
1.51639e-87
1.0002e-88
6.57799e-90
4.31395e-91
2.82137e-92
1.83999e-93
1.19621e-94
7.74706e-96
1.17111e-51
9.46168e-53
7.57816e-54
6.01691e-55
4.73633e-56
3.69675e-57
2.86128e-58
2.19645e-59
1.67249e-60
1.26343e-61
9.46976e-63
7.04338e-64
5.19897e-65
3.80884e-66
2.7699e-67
1.99982e-68
1.43367e-69
1.02075e-70
7.21928e-72
5.07292e-73
3.54245e-74
2.4588e-75
1.69674e-76
1.16439e-77
7.94884e-79
5.3997e-80
3.65115e-81
2.45818e-82
1.64832e-83
1.1011e-84
7.32947e-86
4.86257e-87
3.21582e-88
2.12043e-89
1.39415e-90
9.14014e-92
5.97409e-93
3.89101e-94
1.29227e-50
1.0561e-51
8.55595e-53
6.87106e-54
5.47012e-55
4.31752e-56
3.37897e-57
2.62235e-58
2.0184e-59
1.54095e-60
1.16704e-61
8.769e-63
6.53786e-64
4.83719e-65
3.55204e-66
2.58913e-67
1.87365e-68
1.34637e-69
9.60854e-71
6.81176e-72
4.79796e-73
3.3585e-74
2.33682e-75
1.61664e-76
1.11232e-77
7.61383e-79
5.18634e-80
3.51666e-81
2.37429e-82
1.59657e-83
1.06956e-84
7.14002e-86
4.75084e-87
3.15148e-88
2.08452e-89
1.37496e-90
9.04371e-92
5.93023e-93
6.66686e-50
5.50124e-51
4.49992e-52
3.6486e-53
2.9325e-54
2.3366e-55
1.84589e-56
1.44592e-57
1.12317e-58
8.65277e-60
6.61184e-61
5.01186e-62
3.7691e-63
2.8125e-64
2.08268e-65
1.53069e-66
1.11674e-67
8.08909e-69
5.81839e-70
4.15668e-71
2.94997e-72
2.08023e-73
1.45791e-74
1.01575e-75
7.03718e-77
4.8494e-78
3.32489e-79
2.26877e-80
1.54116e-81
1.04249e-82
7.02402e-84
4.71526e-85
3.15466e-86
2.10399e-87
1.3992e-88
9.27988e-90
6.13871e-91
4.05016e-92
1.88156e-49
1.56354e-50
1.28797e-51
1.05166e-52
8.51178e-54
6.82941e-55
5.43253e-56
4.28464e-57
3.35089e-58
2.59885e-59
1.99907e-60
1.52527e-61
1.1545e-62
8.6701e-64
6.46089e-65
4.77816e-66
3.50748e-67
2.55604e-68
1.84951e-69
1.32905e-70
9.48653e-72
6.72748e-73
4.74108e-74
3.3212e-75
2.31323e-76
1.6024e-77
1.10425e-78
7.57246e-80
5.16889e-81
3.51298e-82
2.37792e-83
1.60361e-84
1.07773e-85
7.22053e-87
4.82401e-88
3.21477e-89
2.13746e-90
1.41818e-91
3.11256e-49
2.59613e-50
2.14654e-51
1.75925e-52
1.42918e-53