/*--------------------------------*- C++ -*----------------------------------*\
| =========                 |                                                 |
| \\      /  F ield         | OpenFOAM: The Open Source CFD Toolbox           |
|  \\    /   O peration     | Version:  2.3.1                                 |
|   \\  /    A nd           | Web:      www.OpenFOAM.org                      |
|    \\/     M anipulation  |                                                 |
\*---------------------------------------------------------------------------*/
FoamFile
{
    version     2.0;
    format      ascii;
    class       volVectorField;
    location    "20";
    object      U;
}
// * * * * * * * * * * * * * * * * * * * * * * * * * * * * * * * * * * * * * //

dimensions      [0 1 -1 0 0 0 0];

internalField   nonuniform List<vector> 
37692
(
(0.00299019 5.40631e-07 1.1573e-06)
(0.00298451 1.97958e-07 1.09909e-06)
(0.0029798 -1.32146e-07 1.04452e-06)
(0.00297604 -4.51273e-07 9.81919e-07)
(0.00297325 -7.51857e-07 9.05292e-07)
(0.00297145 -1.03079e-06 8.1286e-07)
(0.00297069 -1.30735e-06 7.02017e-07)
(0.00297106 -1.61969e-06 5.66996e-07)
(0.00297274 -1.99515e-06 4.07369e-07)
(0.00297591 -2.43827e-06 2.3353e-07)
(0.00298069 -2.93732e-06 6.12947e-08)
(0.00298712 -3.47893e-06 -9.27996e-08)
(0.00299523 -4.06239e-06 -2.25492e-07)
(0.00300501 -4.68432e-06 -3.39512e-07)
(0.00301646 -5.32431e-06 -4.40016e-07)
(0.00302956 -5.96049e-06 -5.34493e-07)
(0.00304429 -6.58779e-06 -6.34943e-07)
(0.00306069 -7.21579e-06 -7.55302e-07)
(0.00307884 -7.85504e-06 -9.04573e-07)
(0.00309888 -8.5019e-06 -1.08179e-06)
(0.00312087 -9.14086e-06 -1.2757e-06)
(0.00314484 -9.7701e-06 -1.47244e-06)
(0.00317082 -1.04175e-05 -1.66606e-06)
(0.00319887 -1.11203e-05 -1.85975e-06)
(0.00322916 -1.18928e-05 -2.05795e-06)
(0.00326182 -1.27205e-05 -2.26014e-06)
(0.00329695 -1.35782e-05 -2.46038e-06)
(0.00333456 -1.44395e-05 -2.6488e-06)
(0.00337452 -1.52741e-05 -2.81008e-06)
(0.00341655 -1.60382e-05 -2.92056e-06)
(0.00346013 -1.66676e-05 -2.94714e-06)
(0.00350446 -1.70872e-05 -2.84876e-06)
(0.00354837 -1.72109e-05 -2.57669e-06)
(0.00359019 -1.68963e-05 -2.06356e-06)
(0.00362751 -1.58725e-05 -1.19749e-06)
(0.00365655 -1.36298e-05 2.12755e-07)
(0.00367123 -9.18569e-06 2.5266e-06)
(0.00366135 -7.34173e-07 6.2892e-06)
(0.00332002 1.12798e-06 1.32726e-06)
(0.00331427 3.98332e-07 1.17575e-06)
(0.0033096 -2.96995e-07 1.0242e-06)
(0.00330599 -9.49449e-07 8.63657e-07)
(0.00330344 -1.54651e-06 6.92816e-07)
(0.00330196 -2.09094e-06 5.11383e-07)
(0.0033016 -2.61902e-06 3.064e-07)
(0.00330244 -3.18828e-06 5.29334e-08)
(0.00330465 -3.846e-06 -2.54889e-07)
(0.00330838 -4.6103e-06 -5.96517e-07)
(0.00331373 -5.48023e-06 -9.45872e-07)
(0.00332076 -6.45026e-06 -1.28618e-06)
(0.00332948 -7.51826e-06 -1.61853e-06)
(0.00333994 -8.66132e-06 -1.94859e-06)
(0.00335213 -9.82881e-06 -2.27343e-06)
(0.00336604 -1.09737e-05 -2.59412e-06)
(0.00338168 -1.20762e-05 -2.92735e-06)
(0.00339908 -1.31386e-05 -3.29551e-06)
(0.00341835 -1.41645e-05 -3.71266e-06)
(0.0034396 -1.51423e-05 -4.17254e-06)
(0.00346288 -1.60593e-05 -4.65049e-06)
(0.00348821 -1.69413e-05 -5.12925e-06)
(0.00351563 -1.78598e-05 -5.61695e-06)
(0.00354528 -1.8884e-05 -6.13216e-06)
(0.00357731 -2.00305e-05 -6.68126e-06)
(0.0036119 -2.12612e-05 -7.25721e-06)
(0.00364915 -2.25108e-05 -7.8517e-06)
(0.00368906 -2.37006e-05 -8.45776e-06)
(0.00373153 -2.47336e-05 -9.06327e-06)
(0.00377634 -2.54797e-05 -9.64411e-06)
(0.003823 -2.57679e-05 -1.01627e-05)
(0.0038708 -2.53906e-05 -1.05832e-05)
(0.0039187 -2.40725e-05 -1.08742e-05)
(0.00396527 -2.13811e-05 -1.09872e-05)
(0.00400844 -1.65666e-05 -1.08221e-05)
(0.00404505 -8.37146e-06 -1.01917e-05)
(0.0040702 5.34238e-06 -8.84779e-06)
(0.00407632 2.82835e-05 -6.28394e-06)
(0.00339662 1.20951e-06 1.46621e-06)
(0.00339088 3.19859e-07 1.24813e-06)
(0.00338628 -5.12751e-07 1.02615e-06)
(0.00338281 -1.27548e-06 8.0076e-07)
(0.00338046 -1.96127e-06 5.74203e-07)
(0.0033792 -2.5744e-06 3.42625e-07)
(0.00337907 -3.13971e-06 8.53824e-08)
(0.00338017 -3.69825e-06 -2.29555e-07)
(0.00338262 -4.29678e-06 -6.03421e-07)
(0.00338653 -4.97413e-06 -1.01801e-06)
(0.00339202 -5.75825e-06 -1.44927e-06)
(0.00339912 -6.66428e-06 -1.8867e-06)
(0.0034079 -7.6861e-06 -2.33816e-06)
(0.00341841 -8.78261e-06 -2.80381e-06)
(0.00343067 -9.89109e-06 -3.26847e-06)
(0.00344468 -1.0957e-05 -3.72767e-06)
(0.00346044 -1.1946e-05 -4.19692e-06)
(0.00347799 -1.284e-05 -4.69886e-06)
(0.00349743 -1.36261e-05 -5.24501e-06)
(0.00351884 -1.42942e-05 -5.8184e-06)
(0.00354224 -1.48607e-05 -6.38836e-06)
(0.00356762 -1.5389e-05 -6.95172e-06)
(0.00359507 -1.59701e-05 -7.54094e-06)
(0.00362475 -1.6668e-05 -8.18742e-06)
(0.00365687 -1.74816e-05 -8.8942e-06)
(0.00369161 -1.83519e-05 -9.64672e-06)
(0.00372909 -1.9183e-05 -1.04321e-05)
(0.00376934 -1.98513e-05 -1.12404e-05)
(0.00381227 -2.02019e-05 -1.20566e-05)
(0.00385769 -2.00367e-05 -1.285e-05)
(0.0039052 -1.91061e-05 -1.35779e-05)
(0.00395417 -1.70928e-05 -1.42133e-05)
(0.00400378 -1.35496e-05 -1.47486e-05)
(0.0040529 -7.78292e-06 -1.51513e-05)
(0.00409987 1.30447e-06 -1.53604e-05)
(0.00414219 1.54886e-05 -1.52235e-05)
(0.00417601 3.76089e-05 -1.44487e-05)
(0.00419531 7.23667e-05 -1.26275e-05)
(0.00342307 9.42994e-07 1.53554e-06)
(0.00341739 1.90764e-08 1.27328e-06)
(0.0034129 -8.24353e-07 1.01342e-06)
(0.00340957 -1.58122e-06 7.55167e-07)
(0.00340737 -2.24936e-06 4.97346e-07)
(0.0034063 -2.82513e-06 2.3428e-07)
(0.00340637 -3.31167e-06 -5.248e-08)
(0.00340765 -3.73176e-06 -3.84347e-07)
(0.00341024 -4.12811e-06 -7.65341e-07)
(0.00341424 -4.55784e-06 -1.18677e-06)
(0.00341974 -5.07269e-06 -1.63508e-06)
(0.00342683 -5.69796e-06 -2.10998e-06)
(0.0034356 -6.41994e-06 -2.62002e-06)
(0.00344611 -7.19231e-06 -3.15477e-06)
(0.0034584 -7.95996e-06 -3.69147e-06)
(0.00347247 -8.67534e-06 -4.22204e-06)
(0.00348832 -9.30039e-06 -4.7559e-06)
(0.00350598 -9.80553e-06 -5.30908e-06)
(0.00352555 -1.01712e-05 -5.88344e-06)
(0.00354704 -1.03993e-05 -6.4539e-06)
(0.00357046 -1.05287e-05 -6.99735e-06)
(0.0035958 -1.06337e-05 -7.53588e-06)
(0.00362316 -1.07899e-05 -8.12414e-06)
(0.00365276 -1.10316e-05 -8.79854e-06)
(0.00368485 -1.13359e-05 -9.55626e-06)
(0.00371965 -1.16307e-05 -1.03764e-05)
(0.00375729 -1.1806e-05 -1.12397e-05)
(0.0037978 -1.17157e-05 -1.21293e-05)
(0.00384117 -1.11746e-05 -1.30226e-05)
(0.00388721 -9.95122e-06 -1.38805e-05)
(0.00393562 -7.75213e-06 -1.46612e-05)
(0.00398591 -4.186e-06 -1.53555e-05)
(0.00403748 1.31977e-06 -1.5979e-05)
(0.00408956 9.64193e-06 -1.65211e-05)
(0.00414105 2.20956e-05 -1.69111e-05)
(0.00419039 4.07102e-05 -1.70288e-05)
(0.00423531 6.86464e-05 -1.66745e-05)
(0.00427281 0.000110865 -1.55616e-05)
(0.00343337 5.10128e-07 1.53472e-06)
(0.00342777 -3.56293e-07 1.2452e-06)
(0.00342338 -1.13423e-06 9.69557e-07)
(0.00342017 -1.81419e-06 6.94183e-07)
(0.00341811 -2.38926e-06 4.13181e-07)
(0.0034172 -2.84852e-06 1.2636e-07)
(0.00341744 -3.18485e-06 -1.74285e-07)
(0.00341888 -3.40883e-06 -4.9912e-07)
(0.00342157 -3.55782e-06 -8.57286e-07)
(0.00342561 -3.69341e-06 -1.25377e-06)
(0.0034311 -3.87421e-06 -1.69062e-06)
(0.00343815 -4.12338e-06 -2.1759e-06)
(0.0034469 -4.4205e-06 -2.71104e-06)
(0.00345743 -4.72418e-06 -3.27593e-06)
(0.00346976 -4.99746e-06 -3.84659e-06)
(0.00348389 -5.21197e-06 -4.41174e-06)
(0.00349983 -5.34257e-06 -4.97206e-06)
(0.0035176 -5.36629e-06 -5.53357e-06)
(0.00353727 -5.27057e-06 -6.08763e-06)
(0.00355884 -5.06765e-06 -6.60803e-06)
(0.00358227 -4.79794e-06 -7.09179e-06)
(0.00360757 -4.51407e-06 -7.58485e-06)
(0.00363486 -4.25065e-06 -8.15205e-06)
(0.00366442 -4.00375e-06 -8.82679e-06)
(0.00369653 -3.73192e-06 -9.59998e-06)
(0.00373144 -3.36349e-06 -1.04471e-05)
(0.00376929 -2.79284e-06 -1.13432e-05)
(0.00381016 -1.87621e-06 -1.22642e-05)
(0.00385407 -4.30394e-07 -1.31812e-05)
(0.00390088 1.77696e-06 -1.40539e-05)
(0.00395037 5.05909e-06 -1.4854e-05)
(0.00400223 9.86636e-06 -1.55879e-05)
(0.00405611 1.68659e-05 -1.62675e-05)
(0.00411158 2.70203e-05 -1.68867e-05)
(0.00416804 4.1715e-05 -1.7397e-05)
(0.00422464 6.2932e-05 -1.77031e-05)
(0.00428019 9.35865e-05 -1.76541e-05)
(0.00433312 0.000137982 -1.70377e-05)
(0.00343669 7.04053e-08 1.50593e-06)
(0.00343116 -6.76792e-07 1.18837e-06)
(0.00342687 -1.34417e-06 8.94345e-07)
(0.00342378 -1.90151e-06 5.99897e-07)
(0.00342186 -2.33322e-06 2.99958e-07)
(0.0034211 -2.63123e-06 -1.5666e-09)
(0.0034215 -2.79219e-06 -3.03876e-07)
(0.00342306 -2.82203e-06 -6.10837e-07)
(0.00342584 -2.74831e-06 -9.35421e-07)
(0.00342991 -2.6215e-06 -1.2973e-06)
(0.00343539 -2.48825e-06 -1.71584e-06)
(0.00344244 -2.35917e-06 -2.2019e-06)
(0.0034512 -2.20951e-06 -2.74421e-06)
(0.00346176 -2.00983e-06 -3.3149e-06)
(0.00347414 -1.74835e-06 -3.89097e-06)
(0.00348832 -1.42855e-06 -4.45931e-06)
(0.00350433 -1.0553e-06 -5.01625e-06)
(0.00352218 -6.2838e-07 -5.5615e-06)
(0.00354191 -1.48061e-07 -6.08142e-06)
(0.00356351 3.76406e-07 -6.55632e-06)
(0.00358695 9.28212e-07 -6.99826e-06)
(0.00361223 1.49995e-06 -7.46467e-06)
(0.00363953 2.1077e-06 -8.01942e-06)
(0.00366914 2.78886e-06 -8.68849e-06)
(0.00370135 3.59201e-06 -9.46023e-06)
(0.00373643 4.5777e-06 -1.03084e-05)
(0.00377456 5.83277e-06 -1.12049e-05)
(0.00381584 7.47864e-06 -1.21222e-05)
(0.00386032 9.67393e-06 -1.30315e-05)
(0.00390794 1.26326e-05 -1.39018e-05)
(0.00395861 1.6672e-05 -1.47186e-05)
(0.00401219 2.22768e-05 -1.54932e-05)
(0.00406856 3.01483e-05 -1.62345e-05)
(0.0041276 4.12504e-05 -1.69281e-05)
(0.00418914 5.69022e-05 -1.75378e-05)
(0.004253 7.89304e-05 -1.80017e-05)
(0.00431902 0.000109925 -1.82275e-05)
(0.00438728 0.000153586 -1.80796e-05)
(0.00343604 -3.55474e-07 1.49683e-06)
(0.00343056 -9.02106e-07 1.13523e-06)
(0.00342638 -1.38619e-06 8.0449e-07)
(0.00342342 -1.7578e-06 4.84715e-07)
(0.00342163 -1.9973e-06 1.71915e-07)
(0.003421 -2.10526e-06 -1.34887e-07)
(0.00342153 -2.0863e-06 -4.34375e-07)
(0.00342321 -1.94307e-06 -7.26499e-07)
(0.00342607 -1.68708e-06 -1.0252e-06)
(0.00343018 -1.34229e-06 -1.36308e-06)
(0.00343569 -9.27605e-07 -1.77256e-06)
(0.00344278 -4.37569e-07 -2.26082e-06)
(0.0034516 1.48847e-07 -2.80068e-06)
(0.00346223 8.3943e-07 -3.35658e-06)
(0.00347467 1.61398e-06 -3.90747e-06)
(0.00348889 2.43445e-06 -4.44639e-06)
(0.00350491 3.26371e-06 -4.97527e-06)
(0.00352276 4.07773e-06 -5.49534e-06)
(0.0035425 4.86702e-06 -5.99261e-06)
(0.0035641 5.63548e-06 -6.45069e-06)
(0.00358755 6.40373e-06 -6.88572e-06)
(0.00361287 7.21347e-06 -7.35335e-06)
(0.00364026 8.12319e-06 -7.90869e-06)
(0.00366999 9.19092e-06 -8.57125e-06)
(0.00370238 1.04623e-05 -9.33081e-06)
(0.00373769 1.19816e-05 -1.01653e-05)
(0.00377613 1.38106e-05 -1.10465e-05)
(0.00381784 1.60421e-05 -1.19457e-05)
(0.0038629 1.88078e-05 -1.28407e-05)
(0.00391134 2.2303e-05 -1.3717e-05)
(0.00396319 2.68356e-05 -1.45723e-05)
(0.0040185 3.28754e-05 -1.54119e-05)
(0.00407735 4.10869e-05 -1.62276e-05)
(0.00413985 5.23597e-05 -1.69991e-05)
(0.0042062 6.78705e-05 -1.77048e-05)
(0.00427669 8.91881e-05 -1.83163e-05)
(0.00435183 0.00011843 -1.87855e-05)
(0.00443253 0.000158429 -1.90363e-05)
(0.00342603 -1.04087e-06 1.08946e-06)
(0.00342194 -1.25687e-06 7.15919e-07)
(0.0034191 -1.3802e-06 3.7513e-07)
(0.00341743 -1.39445e-06 5.96964e-08)
(0.00341691 -1.30252e-06 -2.45893e-07)
(0.00341752 -1.10985e-06 -5.44259e-07)
(0.00341929 -8.1317e-07 -8.33309e-07)
(0.00342222 -4.03619e-07 -1.12495e-06)
(0.0034264 1.28941e-07 -1.45847e-06)
(0.00343198 7.98385e-07 -1.87134e-06)
(0.00343916 1.61984e-06 -2.35927e-06)
(0.00344809 2.5953e-06 -2.88226e-06)
(0.00345881 3.70022e-06 -3.40017e-06)
(0.0034713 4.88683e-06 -3.89725e-06)
(0.00348552 6.09725e-06 -4.38006e-06)
(0.00350151 7.27972e-06 -4.86389e-06)
(0.00351932 8.39861e-06 -5.35691e-06)
(0.00353901 9.43921e-06 -5.84665e-06)
(0.00356059 1.04146e-05 -6.31337e-06)
(0.00358406 1.13717e-05 -6.76643e-06)
(0.00360947 1.2388e-05 -7.25134e-06)
(0.003637 1.35523e-05 -7.81207e-06)
(0.00366693 1.49362e-05 -8.46493e-06)
(0.00369955 1.65827e-05 -9.20579e-06)
(0.00373512 1.85185e-05 -1.00193e-05)
(0.00377389 2.07784e-05 -1.08803e-05)
(0.00381601 2.34251e-05 -1.17625e-05)
(0.00386163 2.65643e-05 -1.2651e-05)
(0.00391086 3.03702e-05 -1.35431e-05)
(0.00396384 3.51222e-05 -1.44415e-05)
(0.00402077 4.12364e-05 -1.53428e-05)
(0.0040819 4.92895e-05 -1.62289e-05)
(0.00414755 6.00449e-05 -1.70803e-05)
(0.00421818 7.44981e-05 -1.78873e-05)
(0.00429444 9.39404e-05 -1.86445e-05)
(0.00437734 0.000120045 -1.93352e-05)
(0.00446834 0.00015494 -1.99228e-05)
(0.00341459 -1.09286e-06 1.04033e-06)
(0.00341058 -9.72833e-07 6.43111e-07)
(0.00340783 -8.05716e-07 3.00398e-07)
(0.00340624 -5.77485e-07 -3.27183e-09)
(0.00340578 -2.82917e-07 -2.98137e-07)
(0.00340644 8.31652e-08 -5.92866e-07)
(0.00340824 5.3341e-07 -8.84797e-07)
(0.00341123 1.09481e-06 -1.18406e-06)
(0.00341549 1.80814e-06 -1.5263e-06)
(0.00342117 2.71208e-06 -1.94048e-06)
(0.00342848 3.81802e-06 -2.41268e-06)
(0.00343752 5.09583e-06 -2.89559e-06)
(0.00344833 6.48703e-06 -3.35208e-06)
(0.00346085 7.92962e-06 -3.77809e-06)
(0.00347507 9.37106e-06 -4.19155e-06)
(0.00349101 1.0772e-05 -4.61773e-06)
(0.00350875 1.21031e-05 -5.07325e-06)
(0.00352837 1.33458e-05 -5.54954e-06)
(0.00354991 1.45086e-05 -6.02378e-06)
(0.0035734 1.56448e-05 -6.4972e-06)
(0.00359892 1.68486e-05 -7.00152e-06)
(0.00362664 1.82257e-05 -7.5662e-06)
(0.00365679 1.98567e-05 -8.20305e-06)
(0.00368967 2.17834e-05 -8.91328e-06)
(0.00372552 2.40201e-05 -9.69094e-06)
(0.0037646 2.6578e-05 -1.05196e-05)
(0.00380711 2.94919e-05 -1.13785e-05)
(0.00385324 3.284e-05 -1.22559e-05)
(0.00390319 3.67673e-05 -1.31515e-05)
(0.00395718 4.15071e-05 -1.40683e-05)
(0.00401552 4.7396e-05 -1.50021e-05)
(0.0040786 5.48942e-05 -1.5936e-05)
(0.00414692 6.46103e-05 -1.68546e-05)
(0.00422111 7.73336e-05 -1.77527e-05)
(0.00430209 9.40669e-05 -1.86324e-05)
(0.00439112 0.000116055 -1.94954e-05)
(0.00448997 0.000144793 -2.03248e-05)
(0.00338708 -1.01754e-06 9.83745e-07)
(0.00338312 -5.87795e-07 6.01055e-07)
(0.00338044 -1.72748e-07 2.86113e-07)
(0.00337889 2.47448e-07 1.37153e-08)
(0.00337843 6.95013e-07 -2.53959e-07)
(0.00337907 1.19386e-06 -5.30934e-07)
(0.00338087 1.76593e-06 -8.17073e-07)
(0.00338387 2.44687e-06 -1.11701e-06)
(0.00338818 3.29174e-06 -1.45268e-06)
(0.00339394 4.34681e-06 -1.83837e-06)
(0.00340134 5.60947e-06 -2.25512e-06)
(0.00341046 7.02129e-06 -2.66459e-06)
(0.00342133 8.50338e-06 -3.0418e-06)
(0.00343388 9.99414e-06 -3.38853e-06)
(0.00344811 1.14626e-05 -3.72376e-06)
(0.00346402 1.28977e-05 -4.0742e-06)
(0.0034817 1.4289e-05 -4.46327e-06)
(0.00350125 1.56185e-05 -4.89133e-06)
(0.00352274 1.68837e-05 -5.34183e-06)
(0.00354624 1.81293e-05 -5.8131e-06)
(0.00357185 1.94468e-05 -6.32014e-06)
(0.00359974 2.09388e-05 -6.87276e-06)
(0.00363013 2.26833e-05 -7.4726e-06)
(0.00366324 2.47204e-05 -8.12224e-06)
(0.00369935 2.70594e-05 -8.82646e-06)
(0.0037387 2.96984e-05 -9.582e-06)
(0.00378154 3.26484e-05 -1.03764e-05)
(0.0038281 3.59544e-05 -1.11997e-05)
(0.00387863 3.97191e-05 -1.20482e-05)
(0.00393344 4.41177e-05 -1.2925e-05)
(0.0039929 4.94001e-05 -1.38309e-05)
(0.0040575 5.59016e-05 -1.47544e-05)
(0.00412786 6.40626e-05 -1.56835e-05)
(0.00420476 7.44518e-05 -1.66098e-05)
(0.00428926 8.7783e-05 -1.75325e-05)
(0.00438279 0.000104917 -1.84628e-05)
(0.00448722 0.000126843 -1.93919e-05)
(0.00330947 -7.67416e-07 9.19902e-07)
(0.00330556 -1.62046e-07 6.16937e-07)
(0.00330292 3.79068e-07 3.79061e-07)
(0.00330139 8.81359e-07 1.76898e-07)
(0.00330089 1.38703e-06 -2.25893e-08)
(0.00330146 1.93397e-06 -2.38791e-07)
(0.00330316 2.54718e-06 -4.72016e-07)
(0.00330608 3.25619e-06 -7.21967e-07)
(0.00331034 4.10416e-06 -9.94891e-07)
(0.0033161 5.12192e-06 -1.29091e-06)
(0.00332349 6.29407e-06 -1.59408e-06)
(0.00333262 7.55841e-06 -1.88245e-06)
(0.00334348 8.84361e-06 -2.14506e-06)
(0.00335605 1.01047e-05 -2.38532e-06)
(0.00337026 1.13329e-05 -2.61491e-06)
(0.00338614 1.25441e-05 -2.85346e-06)
(0.00340373 1.37543e-05 -3.12429e-06)
(0.00342315 1.49588e-05 -3.43752e-06)
(0.00344449 1.61512e-05 -3.78987e-06)
(0.00346788 1.73588e-05 -4.18012e-06)
(0.00349345 1.86461e-05 -4.60724e-06)
(0.00352137 2.00843e-05 -5.06315e-06)
(0.00355182 2.17266e-05 -5.53849e-06)
(0.00358501 2.36043e-05 -6.03375e-06)
(0.00362117 2.57287e-05 -6.56044e-06)
(0.00366058 2.8098e-05 -7.12549e-06)
(0.0037035 3.07101e-05 -7.72614e-06)
(0.00375021 3.35801e-05 -8.35642e-06)
(0.00380098 3.67653e-05 -9.01071e-06)
(0.00385616 4.03784e-05 -9.69153e-06)
(0.00391617 4.45806e-05 -1.04015e-05)
(0.00398157 4.95786e-05 -1.11337e-05)
(0.00405305 5.56339e-05 -1.18787e-05)
(0.00413147 6.30784e-05 -1.26258e-05)
(0.00421796 7.23294e-05 -1.33715e-05)
(0.00431404 8.389e-05 -1.41278e-05)
(0.00442163 9.83156e-05 -1.48921e-05)
(0.00297897 -2.94604e-07 8.74869e-07)
(0.00297514 8.66816e-08 7.30944e-07)
(0.00297252 4.17848e-07 6.30699e-07)
(0.0029709 7.15053e-07 5.53981e-07)
(0.00297022 1.00923e-06 4.78007e-07)
(0.00297049 1.32551e-06 3.90999e-07)
(0.0029718 1.67716e-06 2.90431e-07)
(0.00297429 2.07519e-06 1.78394e-07)
(0.00297807 2.53672e-06 5.68995e-08)
(0.00298331 3.07253e-06 -6.84695e-08)
(0.00299015 3.67129e-06 -1.90071e-07)
(0.00299869 4.30105e-06 -2.99961e-07)
(0.00300894 4.9289e-06 -3.94664e-07)
(0.00302084 5.53687e-06 -4.7567e-07)
(0.00303433 6.12578e-06 -5.4724e-07)
(0.00304937 6.71252e-06 -6.17974e-07)
(0.00306601 7.31662e-06 -7.0073e-07)
(0.00308434 7.94283e-06 -8.06109e-07)
(0.00310447 8.58667e-06 -9.39901e-07)
(0.00312655 9.25647e-06 -1.1025e-06)
(0.00315073 9.97783e-06 -1.28532e-06)
(0.00317718 1.07771e-05 -1.4731e-06)
(0.00320607 1.16707e-05 -1.65273e-06)
(0.00323757 1.26706e-05 -1.82309e-06)
(0.00327191 1.37851e-05 -1.99419e-06)
(0.00330934 1.50155e-05 -2.1748e-06)
(0.00335013 1.63591e-05 -2.36877e-06)
(0.00339459 1.7816e-05 -2.57368e-06)
(0.00344298 1.94021e-05 -2.78277e-06)
(0.00349565 2.11596e-05 -2.99456e-06)
(0.00355302 2.31492e-05 -3.20743e-06)
(0.00361565 2.54442e-05 -3.41558e-06)
(0.00368423 2.81308e-05 -3.61264e-06)
(0.00375967 3.13143e-05 -3.791e-06)
(0.0038431 3.5129e-05 -3.95012e-06)
(0.00393603 3.97432e-05 -4.10172e-06)
(0.00404038 4.53367e-05 -4.25574e-06)
(0.00348317 4.06939e-07 3.62551e-06)
(0.00347724 1.52626e-07 3.31422e-06)
(0.00347242 -7.94173e-08 3.01197e-06)
(0.00346868 -2.91791e-07 2.68791e-06)
(0.00346604 -4.78729e-07 2.32509e-06)
(0.00346451 -6.40732e-07 1.91658e-06)
(0.00346416 -8.00303e-07 1.45401e-06)
(0.00346509 -9.96662e-07 9.24853e-07)
(0.00346745 -1.25669e-06 3.33516e-07)
(0.0034714 -1.58232e-06 -2.9343e-07)
(0.00347707 -1.95899e-06 -9.20239e-07)
(0.00348453 -2.37452e-06 -1.51456e-06)
(0.0034938 -2.82599e-06 -2.06687e-06)
(0.0035049 -3.30412e-06 -2.58319e-06)
(0.00351782 -3.78515e-06 -3.07664e-06)
(0.00353257 -4.2483e-06 -3.56799e-06)
(0.00354915 -4.6894e-06 -4.08831e-06)
(0.00356761 -5.11725e-06 -4.67119e-06)
(0.00358803 -5.5404e-06 -5.33899e-06)
(0.00361054 -5.95213e-06 -6.09106e-06)
(0.00363521 -6.33358e-06 -6.90312e-06)
(0.0036621 -6.67953e-06 -7.74689e-06)
(0.00369126 -7.01425e-06 -8.61279e-06)
(0.00372277 -7.37203e-06 -9.51026e-06)
(0.00375679 -7.76721e-06 -1.04497e-05)
(0.00379348 -8.18949e-06 -1.14282e-05)
(0.00383296 -8.61675e-06 -1.24286e-05)
(0.00387526 -9.02263e-06 -1.34208e-05)
(0.00392027 -9.37487e-06 -1.43595e-05)
(0.00396774 -9.62542e-06 -1.51783e-05)
(0.00401719 -9.706e-06 -1.57863e-05)
(0.00406785 -9.53844e-06 -1.60714e-05)
(0.0041186 -9.03006e-06 -1.58978e-05)
(0.00416784 -8.03281e-06 -1.50712e-05)
(0.00421318 -6.27199e-06 -1.32733e-05)
(0.00425096 -3.23482e-06 -9.95725e-06)
(0.00427524 2.00947e-06 -4.15447e-06)
(0.00427617 1.12602e-05 5.77834e-06)
(0.00372916 8.11352e-07 4.08512e-06)
(0.00372316 3.01804e-07 3.50558e-06)
(0.00371841 -1.57881e-07 2.93533e-06)
(0.00371488 -5.71087e-07 2.35188e-06)
(0.00371255 -9.36479e-07 1.74561e-06)
(0.00371146 -1.2655e-06 1.10777e-06)
(0.00371164 -1.59805e-06 4.08284e-07)
(0.00371319 -1.99304e-06 -3.89079e-07)
(0.00371619 -2.48995e-06 -1.2952e-06)
(0.00372077 -3.09471e-06 -2.27584e-06)
(0.00372701 -3.79252e-06 -3.28594e-06)
(0.00373499 -4.56782e-06 -4.2958e-06)
(0.00374475 -5.40668e-06 -5.30525e-06)
(0.00375633 -6.28072e-06 -6.32027e-06)
(0.00376974 -7.14669e-06 -7.33699e-06)
(0.00378502 -7.97222e-06 -8.3644e-06)
(0.00380219 -8.7495e-06 -9.4363e-06)
(0.00382131 -9.48586e-06 -1.05942e-05)
(0.00384248 -1.01856e-05 -1.1863e-05)
(0.00386577 -1.0835e-05 -1.32294e-05)
(0.00389125 -1.14128e-05 -1.46518e-05)
(0.003919 -1.19252e-05 -1.61079e-05)
(0.0039491 -1.24174e-05 -1.76187e-05)
(0.00398168 -1.29413e-05 -1.92199e-05)
(0.00401691 -1.3514e-05 -2.09237e-05)
(0.00405492 -1.41114e-05 -2.27168e-05)
(0.00409583 -1.46817e-05 -2.45789e-05)
(0.00413967 -1.51532e-05 -2.6485e-05)
(0.00418636 -1.54299e-05 -2.83959e-05)
(0.00423568 -1.53782e-05 -3.02472e-05)
(0.00428722 -1.48223e-05 -3.19478e-05)
(0.00434034 -1.3545e-05 -3.34047e-05)
(0.00439409 -1.12569e-05 -3.45161e-05)
(0.0044471 -7.51097e-06 -3.51182e-05)
(0.00449732 -1.56398e-06 -3.49345e-05)
(0.00454164 7.82838e-06 -3.34735e-05)
(0.00457529 2.2769e-05 -2.99515e-05)
(0.00459094 4.69132e-05 -2.29497e-05)
(0.00377917 8.92847e-07 4.39767e-06)
(0.00377323 2.84754e-07 3.64667e-06)
(0.00376861 -2.61895e-07 2.90702e-06)
(0.00376526 -7.49762e-07 2.16836e-06)
(0.00376318 -1.18234e-06 1.42551e-06)
(0.00376238 -1.57339e-06 6.61722e-07)
(0.00376289 -1.9593e-06 -1.63437e-07)
(0.00376477 -2.38928e-06 -1.09951e-06)
(0.00376808 -2.90189e-06 -2.15339e-06)
(0.0037729 -3.51259e-06 -3.29813e-06)
(0.00377931 -4.21839e-06 -4.49592e-06)
(0.00378739 -5.00771e-06 -5.7307e-06)
(0.00379719 -5.86087e-06 -7.0104e-06)
(0.00380876 -6.74042e-06 -8.32725e-06)
(0.00382215 -7.59905e-06 -9.65722e-06)
(0.00383739 -8.40309e-06 -1.09987e-05)
(0.00385452 -9.139e-06 -1.23802e-05)
(0.00387361 -9.80453e-06 -1.38398e-05)
(0.00389474 -1.03977e-05 -1.53928e-05)
(0.00391796 -1.09081e-05 -1.70077e-05)
(0.00394333 -1.13287e-05 -1.86407e-05)
(0.00397093 -1.16798e-05 -2.02993e-05)
(0.00400088 -1.20101e-05 -2.20457e-05)
(0.00403331 -1.23633e-05 -2.39365e-05)
(0.00406841 -1.27444e-05 -2.59798e-05)
(0.00410632 -1.3114e-05 -2.81521e-05)
(0.00414716 -1.33964e-05 -3.04244e-05)
(0.00419097 -1.34823e-05 -3.27647e-05)
(0.00423769 -1.32235e-05 -3.51284e-05)
(0.00428716 -1.24222e-05 -3.74398e-05)
(0.00433905 -1.08199e-05 -3.96087e-05)
(0.00439287 -8.08103e-06 -4.1571e-05)
(0.00444786 -3.74463e-06 -4.32743e-05)
(0.00450295 2.88903e-06 -4.46061e-05)
(0.0045565 1.29149e-05 -4.53444e-05)
(0.00460605 2.80822e-05 -4.50433e-05)
(0.00464789 5.12146e-05 -4.29498e-05)
(0.00467617 8.6929e-05 -3.78932e-05)
(0.00379351 7.21858e-07 4.55951e-06)
(0.00378765 1.06976e-07 3.69512e-06)
(0.00378314 -4.45877e-07 2.85534e-06)
(0.00377995 -9.35796e-07 2.02712e-06)
(0.00377806 -1.36526e-06 1.20004e-06)
(0.00377747 -1.7427e-06 3.56185e-07)
(0.0037782 -2.09324e-06 -5.38097e-07)
(0.00378028 -2.45112e-06 -1.52502e-06)
(0.00378376 -2.85025e-06 -2.61663e-06)
(0.00378871 -3.31329e-06 -3.80307e-06)
(0.00379519 -3.84826e-06 -5.06692e-06)
(0.00380329 -4.44986e-06 -6.40929e-06)
(0.00381308 -5.09935e-06 -7.83514e-06)
(0.00382463 -5.76092e-06 -9.31832e-06)
(0.00383799 -6.39377e-06 -1.08221e-05)
(0.00385319 -6.96945e-06 -1.23352e-05)
(0.00387029 -7.47227e-06 -1.38732e-05)
(0.00388934 -7.89409e-06 -1.54605e-05)
(0.00391042 -8.23036e-06 -1.70941e-05)
(0.00393357 -8.47648e-06 -1.87326e-05)
(0.00395883 -8.63562e-06 -2.03527e-05)
(0.00398629 -8.73122e-06 -2.20056e-05)
(0.00401607 -8.80005e-06 -2.37896e-05)
(0.00404835 -8.86538e-06 -2.57708e-05)
(0.00408331 -8.91465e-06 -2.79502e-05)
(0.00412113 -8.89565e-06 -3.02939e-05)
(0.00416193 -8.71806e-06 -3.27598e-05)
(0.00420578 -8.25043e-06 -3.53037e-05)
(0.00425266 -7.3151e-06 -3.78667e-05)
(0.00430245 -5.67729e-06 -4.03629e-05)
(0.00435493 -3.02822e-06 -4.27121e-05)
(0.00440976 1.04268e-06 -4.4889e-05)
(0.00446642 7.11862e-06 -4.68786e-05)
(0.00452417 1.6065e-05 -4.86064e-05)
(0.00458195 2.91898e-05 -4.98686e-05)
(0.00463819 4.85041e-05 -5.03264e-05)
(0.00469069 7.71235e-05 -4.94357e-05)
(0.00473654 0.000119947 -4.63732e-05)
(0.00379816 3.95054e-07 4.59541e-06)
(0.00379236 -1.49054e-07 3.65273e-06)
(0.00378794 -6.39394e-07 2.75269e-06)
(0.00378487 -1.06918e-06 1.86569e-06)
(0.00378312 -1.43521e-06 9.77313e-07)
(0.00378268 -1.73795e-06 7.91533e-08)
(0.00378356 -1.9889e-06 -8.49547e-07)
(0.00378577 -2.20937e-06 -1.83645e-06)
(0.00378936 -2.42576e-06 -2.90337e-06)
(0.00379437 -2.6617e-06 -4.06494e-06)
(0.00380089 -2.92949e-06 -5.33146e-06)
(0.003809 -3.22872e-06 -6.71569e-06)
(0.00381879 -3.54565e-06 -8.20968e-06)
(0.00383034 -3.85366e-06 -9.77289e-06)
(0.00384369 -4.12626e-06 -1.13634e-05)
(0.00385889 -4.34638e-06 -1.29601e-05)
(0.00387599 -4.503e-06 -1.45633e-05)
(0.00389505 -4.58904e-06 -1.61797e-05)
(0.00391612 -4.60104e-06 -1.77901e-05)
(0.00393923 -4.53743e-06 -1.93583e-05)
(0.00396444 -4.40192e-06 -2.08945e-05)
(0.00399183 -4.20738e-06 -2.24877e-05)
(0.00402154 -3.96829e-06 -2.42542e-05)
(0.00405376 -3.68356e-06 -2.62577e-05)
(0.0040887 -3.3245e-06 -2.84911e-05)
(0.00412655 -2.83256e-06 -3.09132e-05)
(0.00416746 -2.11462e-06 -3.3471e-05)
(0.00421153 -1.03563e-06 -3.61076e-05)
(0.00425878 5.87875e-07 -3.87553e-05)
(0.00430917 3.00365e-06 -4.13335e-05)
(0.00436258 6.5479e-06 -4.37884e-05)
(0.00441882 1.16816e-05 -4.61125e-05)
(0.00447763 1.90596e-05 -4.83011e-05)
(0.00453859 2.96188e-05 -5.02993e-05)
(0.00460114 4.47188e-05 -5.1959e-05)
(0.00466444 6.63394e-05 -5.30184e-05)
(0.00472735 9.73933e-05 -5.30697e-05)
(0.00478839 0.000142159 -5.15012e-05)
(0.00379942 -9.54182e-09 4.57083e-06)
(0.00379366 -4.21466e-07 3.55228e-06)
(0.00378931 -7.95611e-07 2.59227e-06)
(0.00378634 -1.1179e-06 1.65153e-06)
(0.00378469 -1.37767e-06 7.16888e-07)
(0.00378436 -1.5675e-06 -2.12868e-07)
(0.00378535 -1.68732e-06 -1.14915e-06)
(0.00378766 -1.74744e-06 -2.10932e-06)
(0.00379131 -1.76475e-06 -3.12425e-06)
(0.00379637 -1.75579e-06 -4.2352e-06)
(0.00380291 -1.72983e-06 -5.4797e-06)
(0.00381104 -1.68901e-06 -6.87211e-06)
(0.00382085 -1.62759e-06 -8.38516e-06)
(0.00383241 -1.53454e-06 -9.96664e-06)
(0.00384578 -1.40295e-06 -1.15725e-05)
(0.00386099 -1.23215e-06 -1.31778e-05)
(0.00387811 -1.0219e-06 -1.47759e-05)
(0.00389719 -7.71327e-07 -1.63622e-05)
(0.00391827 -4.7858e-07 -1.79122e-05)
(0.00394139 -1.39256e-07 -1.9403e-05)
(0.0039666 2.5299e-07 -2.08699e-05)
(0.00399399 7.05776e-07 -2.24202e-05)
(0.00402371 1.23087e-06 -2.41689e-05)
(0.00405597 1.85142e-06 -2.61693e-05)
(0.00409099 2.60651e-06 -2.84107e-05)
(0.00412899 3.55411e-06 -3.08486e-05)
(0.00417013 4.77957e-06 -3.34253e-05)
(0.00421455 6.40537e-06 -3.60783e-05)
(0.00426232 8.60244e-06 -3.87426e-05)
(0.00431349 1.16123e-05 -4.13559e-05)
(0.00436804 1.57774e-05 -4.38883e-05)
(0.00442594 2.15763e-05 -4.63444e-05)
(0.00448715 2.96733e-05 -4.87162e-05)
(0.00455158 4.0997e-05 -5.09499e-05)
(0.00461911 5.68489e-05 -5.29403e-05)
(0.00468956 7.90624e-05 -5.45136e-05)
(0.00476281 0.000110238 -5.5406e-05)
(0.00483897 0.000154065 -5.52303e-05)
(0.00379904 -4.37037e-07 4.55627e-06)
(0.0037933 -6.55321e-07 3.44283e-06)
(0.00378901 -8.60244e-07 2.40438e-06)
(0.0037861 -1.03187e-06 1.40962e-06)
(0.00378454 -1.15158e-06 4.45053e-07)
(0.00378429 -1.20425e-06 -4.9688e-07)
(0.00378536 -1.17998e-06 -1.42825e-06)
(0.00378774 -1.07841e-06 -2.36034e-06)
(0.00379145 -9.03187e-07 -3.32955e-06)
(0.00379655 -6.56885e-07 -4.39937e-06)
(0.00380313 -3.40964e-07 -5.62567e-06)
(0.00381129 4.04549e-08 -7.01369e-06)
(0.00382114 4.8008e-07 -8.51226e-06)
(0.00383274 9.68182e-07 -1.00573e-05)
(0.00384613 1.49067e-06 -1.16083e-05)
(0.00386137 2.03236e-06 -1.31515e-05)
(0.00387851 2.58223e-06 -1.46895e-05)
(0.00389761 3.13491e-06 -1.62201e-05)
(0.0039187 3.69173e-06 -1.77204e-05)
(0.00394185 4.26362e-06 -1.91732e-05)
(0.0039671 4.8733e-06 -2.06199e-05)
(0.00399456 5.55144e-06 -2.21643e-05)
(0.00402437 6.33276e-06 -2.39071e-05)
(0.00405675 7.25567e-06 -2.58919e-05)
(0.00409195 8.36294e-06 -2.81101e-05)
(0.00413017 9.70694e-06 -3.05226e-05)
(0.00417163 1.13597e-05 -3.30727e-05)
(0.0042165 1.34246e-05 -3.57003e-05)
(0.00426489 1.60518e-05 -3.83555e-05)
(0.00431693 1.94638e-05 -4.10041e-05)
(0.00437271 2.39837e-05 -4.36334e-05)
(0.00443237 3.00649e-05 -4.62389e-05)
(0.00449605 3.83344e-05 -4.87937e-05)
(0.00456391 4.96491e-05 -5.12481e-05)
(0.0046362 6.51721e-05 -5.35385e-05)
(0.00471325 8.64815e-05 -5.55691e-05)
(0.0047956 0.000115713 -5.71886e-05)
(0.00488416 0.000155705 -5.81673e-05)
(0.00379128 -8.22054e-07 3.33816e-06)
(0.00378702 -8.21025e-07 2.22418e-06)
(0.00378416 -8.16546e-07 1.19174e-06)
(0.00378265 -7.8262e-07 2.19745e-07)
(0.00378246 -6.94113e-07 -7.17498e-07)
(0.00378358 -5.30756e-07 -1.64073e-06)
(0.00378601 -2.80384e-07 -2.55823e-06)
(0.00378977 6.86616e-08 -3.50652e-06)
(0.00379491 5.29502e-07 -4.55959e-06)
(0.00380154 1.10867e-06 -5.77576e-06)
(0.00380976 1.79622e-06 -7.14222e-06)
(0.00381966 2.56699e-06 -8.58706e-06)
(0.00383131 3.38858e-06 -1.00402e-05)
(0.00384474 4.2301e-06 -1.14738e-05)
(0.00386001 5.067e-06 -1.28979e-05)
(0.00387717 5.88341e-06 -1.43361e-05)
(0.00389629 6.67196e-06 -1.57987e-05)
(0.00391742 7.43417e-06 -1.72658e-05)
(0.00394061 8.18756e-06 -1.87142e-05)
(0.00396595 8.96934e-06 -2.01747e-05)
(0.00399352 9.8282e-06 -2.17335e-05)
(0.00402349 1.08146e-05 -2.34717e-05)
(0.00405608 1.19751e-05 -2.5427e-05)
(0.00409152 1.33521e-05 -2.75979e-05)
(0.00413005 1.49898e-05 -2.99563e-05)
(0.0041719 1.69439e-05 -3.24538e-05)
(0.00421726 1.92948e-05 -3.50387e-05)
(0.00426632 2.21645e-05 -3.76773e-05)
(0.00431926 2.57431e-05 -4.03549e-05)
(0.0043763 3.03157e-05 -4.30658e-05)
(0.00443768 3.62835e-05 -4.5796e-05)
(0.0045037 4.41977e-05 -4.85085e-05)
(0.00457475 5.47987e-05 -5.11639e-05)
(0.00465136 6.90676e-05 -5.37298e-05)
(0.00473423 8.8297e-05 -5.6166e-05)
(0.00482438 0.000114172 -5.84038e-05)
(0.00492329 0.000148831 -6.03274e-05)
(0.00378578 -9.00325e-07 3.22671e-06)
(0.00378154 -6.80917e-07 2.08185e-06)
(0.0037787 -4.95448e-07 1.05365e-06)
(0.00377722 -3.11141e-07 1.08034e-07)
(0.00377707 -9.0646e-08 -8.00514e-07)
(0.00377821 1.97637e-07 -1.70377e-06)
(0.00378065 5.78036e-07 -2.61023e-06)
(0.00378443 1.0751e-06 -3.55214e-06)
(0.00378961 1.71428e-06 -4.59469e-06)
(0.00379629 2.50673e-06 -5.78194e-06)
(0.00380456 3.43352e-06 -7.08491e-06)
(0.00381453 4.44912e-06 -8.42373e-06)