/*--------------------------------*- C++ -*----------------------------------*\
| =========                 |                                                 |
| \\      /  F ield         | OpenFOAM: The Open Source CFD Toolbox           |
|  \\    /   O peration     | Version:  2.3.1                                 |
|   \\  /    A nd           | Web:      www.OpenFOAM.org                      |
|    \\/     M anipulation  |                                                 |
\*---------------------------------------------------------------------------*/
FoamFile
{
    version     2.0;
    format      ascii;
    class       volVectorField;
    location    "20";
    object      U_0;
}
// * * * * * * * * * * * * * * * * * * * * * * * * * * * * * * * * * * * * * //

dimensions      [0 1 -1 0 0 0 0];

internalField   nonuniform List<vector> 
37692
(
(0.00299024 5.40341e-07 1.15658e-06)
(0.00298456 1.97702e-07 1.09834e-06)
(0.00297986 -1.32377e-07 1.04375e-06)
(0.00297611 -4.51478e-07 9.81128e-07)
(0.00297332 -7.52033e-07 9.04478e-07)
(0.00297153 -1.03093e-06 8.12022e-07)
(0.00297077 -1.30747e-06 7.01148e-07)
(0.00297115 -1.61979e-06 5.66092e-07)
(0.00297283 -1.99522e-06 4.06416e-07)
(0.002976 -2.43832e-06 2.32499e-07)
(0.00298078 -2.93734e-06 6.02204e-08)
(0.00298722 -3.47892e-06 -9.39346e-08)
(0.00299534 -4.06236e-06 -2.26697e-07)
(0.00300512 -4.68426e-06 -3.40797e-07)
(0.00301658 -5.32422e-06 -4.41389e-07)
(0.00302968 -5.96036e-06 -5.35962e-07)
(0.00304442 -6.58761e-06 -6.36518e-07)
(0.00306082 -7.21558e-06 -7.56997e-07)
(0.00307898 -7.85481e-06 -9.06399e-07)
(0.00309902 -8.50165e-06 -1.08376e-06)
(0.00312103 -9.1406e-06 -1.27783e-06)
(0.00314501 -9.76984e-06 -1.47473e-06)
(0.00317099 -1.04172e-05 -1.66854e-06)
(0.00319906 -1.11201e-05 -1.86244e-06)
(0.00322935 -1.18927e-05 -2.06087e-06)
(0.00326203 -1.27205e-05 -2.26332e-06)
(0.00329718 -1.35783e-05 -2.46387e-06)
(0.0033348 -1.44398e-05 -2.65264e-06)
(0.00337478 -1.52747e-05 -2.81433e-06)
(0.00341683 -1.60392e-05 -2.92529e-06)
(0.00346044 -1.66692e-05 -2.95248e-06)
(0.0035048 -1.70898e-05 -2.85485e-06)
(0.00354873 -1.72149e-05 -2.58378e-06)
(0.0035906 -1.69025e-05 -2.07201e-06)
(0.00362798 -1.58822e-05 -1.20786e-06)
(0.00365709 -1.36454e-05 1.99569e-07)
(0.00367187 -9.21196e-06 2.50861e-06)
(0.00366214 -7.79252e-07 6.26486e-06)
(0.00332006 1.12748e-06 1.32642e-06)
(0.00331431 3.97905e-07 1.17489e-06)
(0.00330964 -2.97369e-07 1.02333e-06)
(0.00330603 -9.49776e-07 8.62776e-07)
(0.00330349 -1.54679e-06 6.91925e-07)
(0.00330201 -2.09118e-06 5.10479e-07)
(0.00330165 -2.6192e-06 3.05486e-07)
(0.0033025 -3.18842e-06 5.19741e-08)
(0.00330471 -3.8461e-06 -2.55884e-07)
(0.00330845 -4.61035e-06 -5.97557e-07)
(0.00331381 -5.48022e-06 -9.46957e-07)
(0.00332083 -6.45019e-06 -1.28732e-06)
(0.00332957 -7.51813e-06 -1.61973e-06)
(0.00334002 -8.66114e-06 -1.94987e-06)
(0.00335222 -9.82857e-06 -2.27478e-06)
(0.00336614 -1.09734e-05 -2.59555e-06)
(0.00338178 -1.20758e-05 -2.92886e-06)
(0.00339919 -1.31381e-05 -3.29713e-06)
(0.00341847 -1.41641e-05 -3.71441e-06)
(0.00343973 -1.51418e-05 -4.17442e-06)
(0.00346301 -1.60588e-05 -4.65251e-06)
(0.00348835 -1.69408e-05 -5.13143e-06)
(0.00351578 -1.78594e-05 -5.6193e-06)
(0.00354544 -1.88837e-05 -6.1347e-06)
(0.00357749 -2.00304e-05 -6.68402e-06)
(0.00361209 -2.12615e-05 -7.26022e-06)
(0.00364935 -2.25116e-05 -7.85499e-06)
(0.00368927 -2.37019e-05 -8.46138e-06)
(0.00373177 -2.47358e-05 -9.06727e-06)
(0.00377659 -2.54832e-05 -9.64856e-06)
(0.00382328 -2.57732e-05 -1.01677e-05)
(0.0038711 -2.53987e-05 -1.05889e-05)
(0.00391904 -2.40847e-05 -1.08809e-05)
(0.00396565 -2.13995e-05 -1.09952e-05)
(0.00400887 -1.65945e-05 -1.08319e-05)
(0.00404555 -8.41423e-06 -1.02041e-05)
(0.00407079 5.27513e-06 -8.8638e-06)
(0.00407704 2.81758e-05 -6.30612e-06)
(0.00339664 1.20905e-06 1.46533e-06)
(0.00339091 3.19507e-07 1.24724e-06)
(0.00338631 -5.1303e-07 1.02525e-06)
(0.00338285 -1.27571e-06 7.99842e-07)
(0.00338049 -1.96146e-06 5.7328e-07)
(0.00337924 -2.57457e-06 3.41696e-07)
(0.00337912 -3.13985e-06 8.44272e-08)
(0.00338022 -3.69834e-06 -2.3053e-07)
(0.00338267 -4.29681e-06 -6.04429e-07)
(0.00338659 -4.9741e-06 -1.01905e-06)
(0.00339208 -5.75815e-06 -1.45035e-06)
(0.00339919 -6.66412e-06 -1.88783e-06)
(0.00340797 -7.68589e-06 -2.33935e-06)
(0.00341849 -8.78234e-06 -2.80506e-06)
(0.00343076 -9.89076e-06 -3.26979e-06)
(0.00344477 -1.09566e-05 -3.72905e-06)
(0.00346053 -1.19456e-05 -4.19838e-06)
(0.00347809 -1.28395e-05 -4.70042e-06)
(0.00349754 -1.36256e-05 -5.24668e-06)
(0.00351896 -1.42936e-05 -5.8202e-06)
(0.00354236 -1.48602e-05 -6.39029e-06)
(0.00356776 -1.53886e-05 -6.95379e-06)
(0.00359521 -1.59698e-05 -7.54317e-06)
(0.0036249 -1.6668e-05 -8.18985e-06)
(0.00365703 -1.7482e-05 -8.89684e-06)
(0.00369179 -1.83528e-05 -9.6496e-06)
(0.00372929 -1.91846e-05 -1.04353e-05)
(0.00376954 -1.9854e-05 -1.12439e-05)
(0.0038125 -2.0206e-05 -1.20605e-05)
(0.00385794 -2.00429e-05 -1.28542e-05)
(0.00390546 -1.91152e-05 -1.35827e-05)
(0.00395446 -1.71061e-05 -1.42187e-05)
(0.00400411 -1.35693e-05 -1.47549e-05)
(0.00405326 -7.81196e-06 -1.51589e-05)
(0.00410028 1.26138e-06 -1.53696e-05)
(0.00414266 1.54241e-05 -1.5235e-05)
(0.00417656 3.75109e-05 -1.44637e-05)
(0.00419597 7.22149e-05 -1.26479e-05)
(0.00342309 9.42645e-07 1.53465e-06)
(0.00341742 1.88489e-08 1.27239e-06)
(0.00341293 -8.24493e-07 1.01252e-06)
(0.0034096 -1.58131e-06 7.54255e-07)
(0.00340741 -2.24943e-06 4.96425e-07)
(0.00340634 -2.82518e-06 2.33352e-07)
(0.00340642 -3.31171e-06 -5.34307e-08)
(0.0034077 -3.73174e-06 -3.85321e-07)
(0.00341029 -4.12803e-06 -7.66344e-07)
(0.0034143 -4.55771e-06 -1.1878e-06)
(0.0034198 -5.07251e-06 -1.63614e-06)
(0.0034269 -5.69775e-06 -2.11108e-06)
(0.00343567 -6.4197e-06 -2.62118e-06)
(0.00344619 -7.19203e-06 -3.15599e-06)
(0.00345849 -7.95964e-06 -3.69275e-06)
(0.00347256 -8.67498e-06 -4.22337e-06)
(0.00348841 -9.3e-06 -4.7573e-06)
(0.00350608 -9.80512e-06 -5.31058e-06)
(0.00352565 -1.01708e-05 -5.88504e-06)
(0.00354716 -1.03989e-05 -6.45562e-06)
(0.00357058 -1.05284e-05 -6.99919e-06)
(0.00359593 -1.06335e-05 -7.53786e-06)
(0.0036233 -1.07899e-05 -8.12627e-06)
(0.00365291 -1.1032e-05 -8.80086e-06)
(0.00368501 -1.13368e-05 -9.5588e-06)
(0.00371982 -1.16323e-05 -1.03792e-05)
(0.00375747 -1.18086e-05 -1.12428e-05)
(0.00379801 -1.17197e-05 -1.21326e-05)
(0.00384139 -1.11805e-05 -1.30263e-05)
(0.00388745 -9.95976e-06 -1.38846e-05)
(0.00393588 -7.76446e-06 -1.46658e-05)
(0.00398619 -4.20372e-06 -1.53607e-05)
(0.0040378 1.29428e-06 -1.5985e-05)
(0.00408991 9.60509e-06 -1.65282e-05)
(0.00414144 2.2042e-05 -1.69196e-05)
(0.00419083 4.06315e-05 -1.70393e-05)
(0.00423581 6.85297e-05 -1.66877e-05)
(0.00427338 0.000110689 -1.55789e-05)
(0.00343339 5.09924e-07 1.53382e-06)
(0.00342779 -3.56384e-07 1.24432e-06)
(0.00342341 -1.13424e-06 9.68672e-07)
(0.0034202 -1.81415e-06 6.93285e-07)
(0.00341814 -2.3892e-06 4.12268e-07)
(0.00341724 -2.84845e-06 1.25436e-07)
(0.00341748 -3.18476e-06 -1.75234e-07)
(0.00341892 -3.4087e-06 -5.00091e-07)
(0.00342162 -3.55765e-06 -8.58278e-07)
(0.00342566 -3.69321e-06 -1.25478e-06)
(0.00343115 -3.874e-06 -1.69167e-06)
(0.00343822 -4.12318e-06 -2.17699e-06)
(0.00344697 -4.42031e-06 -2.71218e-06)
(0.0034575 -4.72399e-06 -3.27712e-06)
(0.00346984 -4.99727e-06 -3.84783e-06)
(0.00348397 -5.21179e-06 -4.41304e-06)
(0.00349992 -5.34242e-06 -4.97343e-06)
(0.0035177 -5.36616e-06 -5.53503e-06)
(0.00353738 -5.27047e-06 -6.08918e-06)
(0.00355895 -5.06761e-06 -6.60969e-06)
(0.00358239 -4.79802e-06 -7.09356e-06)
(0.00360769 -4.51435e-06 -7.58675e-06)
(0.003635 -4.25123e-06 -8.15412e-06)
(0.00366457 -4.00476e-06 -8.82904e-06)
(0.00369669 -3.73354e-06 -9.60245e-06)
(0.00373161 -3.36595e-06 -1.04498e-05)
(0.00376947 -2.79645e-06 -1.13462e-05)
(0.00381036 -1.88141e-06 -1.22674e-05)
(0.00385428 -4.37802e-07 -1.31848e-05)
(0.00390111 1.76647e-06 -1.40579e-05)
(0.00395062 5.0443e-06 -1.48584e-05)
(0.00400251 9.84552e-06 -1.55929e-05)
(0.00405641 1.68365e-05 -1.62732e-05)
(0.00411191 2.69786e-05 -1.68934e-05)
(0.0041684 4.16557e-05 -1.74049e-05)
(0.00422504 6.28473e-05 -1.77127e-05)
(0.00428064 9.34648e-05 -1.7666e-05)
(0.00433363 0.000137806 -1.70528e-05)
(0.00343671 7.03715e-08 1.50503e-06)
(0.00343118 -6.76748e-07 1.1875e-06)
(0.0034269 -1.34406e-06 8.93473e-07)
(0.00342381 -1.90136e-06 5.99013e-07)
(0.00342189 -2.33305e-06 2.99053e-07)
(0.00342114 -2.63103e-06 -2.49364e-09)
(0.00342154 -2.79198e-06 -3.0482e-07)
(0.00342311 -2.82179e-06 -6.11797e-07)
(0.00342589 -2.74805e-06 -9.36396e-07)
(0.00342996 -2.62125e-06 -1.29829e-06)
(0.00343545 -2.48805e-06 -1.71687e-06)
(0.0034425 -2.35903e-06 -2.20297e-06)
(0.00345127 -2.20941e-06 -2.74534e-06)
(0.00346183 -2.00978e-06 -3.31608e-06)
(0.00347421 -1.74835e-06 -3.8922e-06)
(0.00348841 -1.42862e-06 -4.4606e-06)
(0.00350442 -1.05543e-06 -5.0176e-06)
(0.00352227 -6.28589e-07 -5.56294e-06)
(0.00354201 -1.48352e-07 -6.08296e-06)
(0.00356362 3.76001e-07 -6.55796e-06)
(0.00358706 9.27641e-07 -7e-06)
(0.00361236 1.49914e-06 -7.46654e-06)
(0.00363967 2.10655e-06 -8.02146e-06)
(0.00366928 2.78724e-06 -8.69071e-06)
(0.00370151 3.58972e-06 -9.46265e-06)
(0.0037366 4.57451e-06 -1.0311e-05)
(0.00377474 5.82835e-06 -1.12078e-05)
(0.00381604 7.47253e-06 -1.21254e-05)
(0.00386053 9.66549e-06 -1.3035e-05)
(0.00390817 1.26209e-05 -1.39057e-05)
(0.00395885 1.66559e-05 -1.47229e-05)
(0.00401245 2.22544e-05 -1.5498e-05)
(0.00406885 3.01172e-05 -1.62401e-05)
(0.00412791 4.12072e-05 -1.69344e-05)
(0.00418949 5.68418e-05 -1.75452e-05)
(0.00425338 7.88459e-05 -1.80105e-05)
(0.00431944 0.000109806 -1.82381e-05)
(0.00438773 0.000153419 -1.80926e-05)
(0.00343606 -3.55337e-07 1.49594e-06)
(0.00343059 -9.01942e-07 1.13436e-06)
(0.00342641 -1.38599e-06 8.03626e-07)
(0.00342344 -1.75757e-06 4.83839e-07)
(0.00342166 -1.99704e-06 1.71018e-07)
(0.00342104 -2.10497e-06 -1.35806e-07)
(0.00342157 -2.086e-06 -4.35309e-07)
(0.00342326 -1.94276e-06 -7.27442e-07)
(0.00342612 -1.68679e-06 -1.02616e-06)
(0.00343024 -1.34206e-06 -1.36405e-06)
(0.00343575 -9.27454e-07 -1.77357e-06)
(0.00344284 -4.37511e-07 -2.26189e-06)
(0.00345167 1.48817e-07 -2.8018e-06)
(0.00346231 8.39313e-07 -3.35776e-06)
(0.00347474 1.61377e-06 -3.9087e-06)
(0.00348897 2.43412e-06 -4.44767e-06)
(0.003505 3.26327e-06 -4.97663e-06)
(0.00352286 4.07717e-06 -5.49679e-06)
(0.0035426 4.86633e-06 -5.99416e-06)
(0.00356421 5.63463e-06 -6.45233e-06)
(0.00358766 6.40267e-06 -6.88747e-06)
(0.003613 7.21215e-06 -7.35522e-06)
(0.00364039 8.12151e-06 -7.91073e-06)
(0.00367014 9.18875e-06 -8.57347e-06)
(0.00370253 1.04595e-05 -9.33323e-06)
(0.00373786 1.19778e-05 -1.0168e-05)
(0.00377631 1.38056e-05 -1.10494e-05)
(0.00381803 1.60355e-05 -1.19488e-05)
(0.0038631 1.87988e-05 -1.28442e-05)
(0.00391156 2.22908e-05 -1.37208e-05)
(0.00396343 2.68191e-05 -1.45766e-05)
(0.00401876 3.2853e-05 -1.54167e-05)
(0.00407763 4.10562e-05 -1.62329e-05)
(0.00414016 5.23178e-05 -1.70052e-05)
(0.00420653 6.78131e-05 -1.77119e-05)
(0.00427704 8.91095e-05 -1.83244e-05)
(0.00435221 0.000118322 -1.87951e-05)
(0.00443293 0.000158282 -1.90476e-05)
(0.00342605 -1.0406e-06 1.0886e-06)
(0.00342197 -1.25659e-06 7.15057e-07)
(0.00341913 -1.3799e-06 3.74259e-07)
(0.00341747 -1.39412e-06 5.88118e-08)
(0.00341694 -1.30217e-06 -2.46803e-07)
(0.00341757 -1.1095e-06 -5.4518e-07)
(0.00341933 -8.12839e-07 -8.34235e-07)
(0.00342227 -4.03344e-07 -1.12588e-06)
(0.00342645 1.2913e-07 -1.45943e-06)
(0.00343204 7.9847e-07 -1.87235e-06)
(0.00343923 1.61981e-06 -2.36034e-06)
(0.00344816 2.59517e-06 -2.8834e-06)
(0.00345889 3.69997e-06 -3.40136e-06)
(0.00347138 4.88646e-06 -3.8985e-06)
(0.00348561 6.09674e-06 -4.38137e-06)
(0.0035016 7.27906e-06 -4.86528e-06)
(0.00351941 8.3978e-06 -5.3584e-06)
(0.00353911 9.43824e-06 -5.84823e-06)
(0.0035607 1.04134e-05 -6.31505e-06)
(0.00358418 1.13703e-05 -6.76821e-06)
(0.0036096 1.23864e-05 -7.25325e-06)
(0.00363714 1.35502e-05 -7.81414e-06)
(0.00366707 1.49337e-05 -8.46719e-06)
(0.0036997 1.65796e-05 -9.20824e-06)
(0.00373529 1.85145e-05 -1.0022e-05)
(0.00377407 2.07732e-05 -1.08833e-05)
(0.00381621 2.34184e-05 -1.17657e-05)
(0.00386184 2.65555e-05 -1.26545e-05)
(0.00391108 3.03585e-05 -1.3547e-05)
(0.00396408 3.51066e-05 -1.44458e-05)
(0.00402103 4.12154e-05 -1.53476e-05)
(0.00408217 4.92613e-05 -1.62342e-05)
(0.00414784 6.0007e-05 -1.70862e-05)
(0.00421849 7.4447e-05 -1.7894e-05)
(0.00429478 9.38715e-05 -1.86522e-05)
(0.00437769 0.000119952 -1.93439e-05)
(0.00446871 0.000154817 -1.99328e-05)
(0.00341462 -1.09249e-06 1.03946e-06)
(0.00341061 -9.72484e-07 6.42244e-07)
(0.00340786 -8.05357e-07 2.9953e-07)
(0.00340628 -5.77108e-07 -4.14403e-09)
(0.00340582 -2.82533e-07 -2.99035e-07)
(0.00340648 8.35284e-08 -5.93774e-07)
(0.00340829 5.33718e-07 -8.85713e-07)
(0.00341129 1.09503e-06 -1.185e-06)
(0.00341554 1.80826e-06 -1.52727e-06)
(0.00342123 2.7121e-06 -1.9415e-06)
(0.00342854 3.81793e-06 -2.41377e-06)
(0.00343759 5.09564e-06 -2.89674e-06)
(0.0034484 6.48671e-06 -3.35329e-06)
(0.00346094 7.92915e-06 -3.77936e-06)
(0.00347516 9.37044e-06 -4.1929e-06)
(0.0034911 1.07713e-05 -4.61917e-06)
(0.00350885 1.21022e-05 -5.07478e-06)
(0.00352847 1.33447e-05 -5.55118e-06)
(0.00355002 1.45073e-05 -6.02551e-06)
(0.00357352 1.56432e-05 -6.49904e-06)
(0.00359905 1.68468e-05 -7.00349e-06)
(0.00362677 1.82235e-05 -7.56834e-06)
(0.00365694 1.98541e-05 -8.20536e-06)
(0.00368982 2.17803e-05 -8.9158e-06)
(0.00372569 2.40162e-05 -9.69368e-06)
(0.00376478 2.65731e-05 -1.05226e-05)
(0.0038073 2.94857e-05 -1.13817e-05)
(0.00385345 3.2832e-05 -1.22594e-05)
(0.00390341 3.67569e-05 -1.31553e-05)
(0.00395741 4.14934e-05 -1.40725e-05)
(0.00401577 4.7378e-05 -1.50068e-05)
(0.00407887 5.48703e-05 -1.59412e-05)
(0.0041472 6.45784e-05 -1.68604e-05)
(0.00422141 7.72913e-05 -1.77592e-05)
(0.00430241 9.40109e-05 -1.86397e-05)
(0.00439146 0.000115981 -1.95035e-05)
(0.00449031 0.000144697 -2.03339e-05)
(0.00338711 -1.01709e-06 9.82867e-07)
(0.00338315 -5.87379e-07 6.00187e-07)
(0.00338047 -1.72344e-07 2.8525e-07)
(0.00337893 2.4785e-07 1.28534e-08)
(0.00337847 6.95399e-07 -2.54846e-07)
(0.00337912 1.1942e-06 -5.31834e-07)
(0.00338092 1.7662e-06 -8.17988e-07)
(0.00338393 2.44705e-06 -1.11795e-06)
(0.00338823 3.29183e-06 -1.45366e-06)
(0.00339401 4.34682e-06 -1.83941e-06)
(0.00340141 5.6094e-06 -2.25623e-06)
(0.00341054 7.02112e-06 -2.66577e-06)
(0.0034214 8.50308e-06 -3.04304e-06)
(0.00343397 9.99371e-06 -3.38984e-06)
(0.00344819 1.1462e-05 -3.72515e-06)
(0.00346411 1.2897e-05 -4.07569e-06)
(0.0034818 1.42881e-05 -4.46486e-06)
(0.00350135 1.56175e-05 -4.89302e-06)
(0.00352285 1.68825e-05 -5.34363e-06)
(0.00354636 1.81279e-05 -5.81502e-06)
(0.00357198 1.94451e-05 -6.32221e-06)
(0.00359988 2.09369e-05 -6.87498e-06)
(0.00363028 2.2681e-05 -7.47501e-06)
(0.0036634 2.47177e-05 -8.12486e-06)
(0.00369952 2.70561e-05 -8.8293e-06)
(0.00373888 2.96944e-05 -9.58508e-06)
(0.00378173 3.26434e-05 -1.03798e-05)
(0.00382831 3.5948e-05 -1.12034e-05)
(0.00387886 3.97109e-05 -1.20522e-05)
(0.00393367 4.41071e-05 -1.29294e-05)
(0.00399315 4.93862e-05 -1.38356e-05)
(0.00405777 5.58833e-05 -1.47597e-05)
(0.00412814 6.40387e-05 -1.56892e-05)
(0.00420506 7.44203e-05 -1.66162e-05)
(0.00428957 8.77419e-05 -1.75396e-05)
(0.00438311 0.000104864 -1.84706e-05)
(0.00448755 0.000126774 -1.94004e-05)
(0.0033095 -7.66926e-07 9.19062e-07)
(0.0033056 -1.61605e-07 6.16106e-07)
(0.00330296 3.79473e-07 3.78233e-07)
(0.00330143 8.81736e-07 1.76063e-07)
(0.00330094 1.38737e-06 -2.34514e-08)
(0.00330151 1.93427e-06 -2.39671e-07)
(0.00330322 2.5474e-06 -4.72923e-07)
(0.00330614 3.25634e-06 -7.22913e-07)
(0.00331041 4.10425e-06 -9.95885e-07)
(0.00331617 5.12195e-06 -1.29196e-06)
(0.00332357 6.29404e-06 -1.59519e-06)
(0.0033327 7.55831e-06 -1.88364e-06)
(0.00334357 8.84341e-06 -2.14632e-06)
(0.00335614 1.01044e-05 -2.38666e-06)
(0.00337036 1.13324e-05 -2.61633e-06)
(0.00338624 1.25436e-05 -2.85499e-06)
(0.00340384 1.37537e-05 -3.12593e-06)
(0.00342327 1.4958e-05 -3.43926e-06)
(0.00344462 1.61502e-05 -3.79174e-06)
(0.00346802 1.73577e-05 -4.18212e-06)
(0.00349359 1.86448e-05 -4.6094e-06)
(0.00352152 2.00828e-05 -5.06548e-06)
(0.00355197 2.17249e-05 -5.541e-06)
(0.00358517 2.36024e-05 -6.03646e-06)
(0.00362135 2.57265e-05 -6.56338e-06)
(0.00366077 2.80953e-05 -7.12868e-06)
(0.0037037 3.07067e-05 -7.72959e-06)
(0.00375042 3.35759e-05 -8.36016e-06)
(0.00380121 3.676e-05 -9.01477e-06)
(0.0038564 4.03716e-05 -9.69596e-06)
(0.00391643 4.45718e-05 -1.04064e-05)
(0.00398185 4.95672e-05 -1.1139e-05)
(0.00405333 5.56191e-05 -1.18845e-05)
(0.00413176 6.30592e-05 -1.26321e-05)
(0.00421827 7.23046e-05 -1.33783e-05)
(0.00431436 8.38582e-05 -1.41353e-05)
(0.00442196 9.82753e-05 -1.49003e-05)
(0.00297903 -2.94324e-07 8.74134e-07)
(0.0029752 8.69293e-08 7.30204e-07)
(0.00297258 4.18067e-07 6.29949e-07)
(0.00297097 7.15247e-07 5.53211e-07)
(0.00297029 1.0094e-06 4.77207e-07)
(0.00297056 1.32566e-06 3.90173e-07)
(0.00297189 1.67727e-06 2.8956e-07)
(0.00297438 2.07527e-06 1.77457e-07)
(0.00297816 2.53677e-06 5.59114e-08)
(0.0029834 3.07255e-06 -6.9518e-08)
(0.00299025 3.67129e-06 -1.91188e-07)
(0.0029988 4.30102e-06 -3.01155e-07)
(0.00300905 4.92882e-06 -3.95942e-07)
(0.00302096 5.53675e-06 -4.77039e-07)
(0.00303445 6.12561e-06 -5.48708e-07)
(0.0030495 6.71231e-06 -6.19549e-07)
(0.00306614 7.31636e-06 -7.02421e-07)
(0.00308447 7.94251e-06 -8.07928e-07)
(0.00310462 8.58629e-06 -9.41858e-07)
(0.00312671 9.25602e-06 -1.10461e-06)
(0.0031509 9.97731e-06 -1.28759e-06)
(0.00317735 1.07765e-05 -1.47555e-06)
(0.00320625 1.16701e-05 -1.65538e-06)
(0.00323776 1.26698e-05 -1.82595e-06)
(0.00327211 1.37843e-05 -1.99727e-06)
(0.00330955 1.50144e-05 -2.17813e-06)
(0.00335036 1.63578e-05 -2.37237e-06)
(0.00339483 1.78144e-05 -2.57758e-06)
(0.00344323 1.94001e-05 -2.787e-06)
(0.00349592 2.11571e-05 -2.99915e-06)
(0.0035533 2.31461e-05 -3.21241e-06)
(0.00361594 2.54402e-05 -3.42099e-06)
(0.00368454 2.81256e-05 -3.61852e-06)
(0.00375999 3.13077e-05 -3.79736e-06)
(0.00384344 3.51206e-05 -3.95698e-06)
(0.00393638 3.97326e-05 -4.10907e-06)
(0.00404073 4.53234e-05 -4.26354e-06)
(0.00348319 4.06749e-07 3.62325e-06)
(0.00347726 1.5246e-07 3.31192e-06)
(0.00347245 -7.95649e-08 3.00962e-06)
(0.00346872 -2.91917e-07 2.68551e-06)
(0.00346608 -4.78828e-07 2.32264e-06)
(0.00346456 -6.40804e-07 1.91407e-06)
(0.00346421 -8.0035e-07 1.45142e-06)
(0.00346514 -9.96701e-07 9.22162e-07)
(0.00346751 -1.25671e-06 3.30724e-07)
(0.00347146 -1.58232e-06 -2.96383e-07)
(0.00347714 -1.95897e-06 -9.23337e-07)
(0.0034846 -2.37447e-06 -1.51783e-06)
(0.00349387 -2.82593e-06 -2.07033e-06)
(0.00350498 -3.30403e-06 -2.58686e-06)
(0.00351791 -3.78502e-06 -3.08056e-06)
(0.00353266 -4.24814e-06 -3.57216e-06)
(0.00354925 -4.6892e-06 -4.09278e-06)
(0.00356771 -5.11703e-06 -4.67599e-06)
(0.00358814 -5.54016e-06 -5.34415e-06)
(0.00361066 -5.95188e-06 -6.09662e-06)
(0.00363534 -6.33332e-06 -6.9091e-06)
(0.00366224 -6.67928e-06 -7.75334e-06)
(0.0036914 -7.01403e-06 -8.61976e-06)
(0.00372292 -7.37186e-06 -9.51781e-06)
(0.00375695 -7.7671e-06 -1.04579e-05)
(0.00379366 -8.18949e-06 -1.14372e-05)
(0.00383316 -8.61689e-06 -1.24384e-05)
(0.00387546 -9.02298e-06 -1.34316e-05)
(0.00392049 -9.37552e-06 -1.43714e-05)
(0.00396799 -9.62651e-06 -1.51917e-05)
(0.00401746 -9.70774e-06 -1.58013e-05)
(0.00406815 -9.54113e-06 -1.60886e-05)
(0.00411894 -9.0342e-06 -1.59178e-05)
(0.00416822 -8.03917e-06 -1.50951e-05)
(0.00421362 -6.2819e-06 -1.33026e-05)
(0.00425146 -3.25058e-06 -9.9946e-06)
(0.00427584 1.98348e-06 -4.20456e-06)
(0.00427692 1.12154e-05 5.70889e-06)
(0.00372917 8.11006e-07 4.08257e-06)
(0.00372317 3.01506e-07 3.50302e-06)
(0.00371843 -1.58143e-07 2.93274e-06)
(0.0037149 -5.71312e-07 2.34926e-06)
(0.00371258 -9.36662e-07 1.74297e-06)
(0.00371149 -1.26564e-06 1.1051e-06)
(0.00371167 -1.59815e-06 4.05583e-07)
(0.00371322 -1.99311e-06 -3.91862e-07)
(0.00371624 -2.48999e-06 -1.29809e-06)
(0.00372082 -3.09471e-06 -2.27884e-06)
(0.00372707 -3.79248e-06 -3.28907e-06)
(0.00373505 -4.56774e-06 -4.29908e-06)
(0.00374481 -5.40656e-06 -5.3087e-06)
(0.00375639 -6.28056e-06 -6.32393e-06)
(0.00376981 -7.14647e-06 -7.34085e-06)
(0.00378509 -7.97193e-06 -8.36849e-06)
(0.00380227 -8.74916e-06 -9.44064e-06)
(0.0038214 -9.48549e-06 -1.05988e-05)
(0.00384258 -1.01852e-05 -1.1868e-05)
(0.00386587 -1.08346e-05 -1.32348e-05)
(0.00389136 -1.14125e-05 -1.46576e-05)
(0.00391912 -1.19248e-05 -1.6114e-05)
(0.00394923 -1.24172e-05 -1.76253e-05)
(0.00398183 -1.29412e-05 -1.92271e-05)
(0.00401706 -1.35142e-05 -2.09315e-05)
(0.00405509 -1.41119e-05 -2.27253e-05)
(0.00409601 -1.46826e-05 -2.45883e-05)
(0.00413986 -1.51548e-05 -2.64953e-05)
(0.00418657 -1.54324e-05 -2.84073e-05)
(0.00423591 -1.5382e-05 -3.02599e-05)
(0.00428748 -1.4828e-05 -3.19621e-05)
(0.00434063 -1.35535e-05 -3.34211e-05)
(0.00439441 -1.12695e-05 -3.45352e-05)
(0.00444746 -7.52981e-06 -3.5141e-05)
(0.00449773 -1.59226e-06 -3.49625e-05)
(0.00454212 7.78527e-06 -3.35087e-05)
(0.00457586 2.27019e-05 -2.99975e-05)
(0.00459163 4.6806e-05 -2.3013e-05)
(0.00377918 8.92501e-07 4.39502e-06)
(0.00377324 2.84473e-07 3.64401e-06)
(0.00376862 -2.62132e-07 2.90433e-06)
(0.00376528 -7.49965e-07 2.16565e-06)
(0.00376321 -1.1825e-06 1.42279e-06)
(0.00376241 -1.57352e-06 6.58989e-07)
(0.00376292 -1.9594e-06 -1.66204e-07)
(0.0037648 -2.38934e-06 -1.10235e-06)
(0.00376812 -2.90191e-06 -2.15632e-06)
(0.00377295 -3.51258e-06 -3.30115e-06)
(0.00377936 -4.21834e-06 -4.49905e-06)
(0.00378744 -5.00761e-06 -5.73395e-06)
(0.00379724 -5.86073e-06 -7.01383e-06)
(0.00380882 -6.74024e-06 -8.33086e-06)
(0.00382222 -7.59882e-06 -9.66102e-06)
(0.00383746 -8.4028e-06 -1.10027e-05)
(0.0038546 -9.13867e-06 -1.23844e-05)
(0.0038737 -9.80418e-06 -1.38443e-05)
(0.00389483 -1.03974e-05 -1.53976e-05)
(0.00391806 -1.09078e-05 -1.70129e-05)
(0.00394344 -1.13284e-05 -1.86462e-05)
(0.00397105 -1.16796e-05 -2.03052e-05)
(0.004001 -1.20102e-05 -2.20522e-05)
(0.00403345 -1.23636e-05 -2.39435e-05)
(0.00406855 -1.27451e-05 -2.59874e-05)
(0.00410648 -1.31152e-05 -2.81605e-05)
(0.00414733 -1.33985e-05 -3.04335e-05)
(0.00419116 -1.34854e-05 -3.27747e-05)
(0.0042379 -1.3228e-05 -3.51395e-05)
(0.00428739 -1.24289e-05 -3.74521e-05)
(0.0043393 -1.08295e-05 -3.96225e-05)
(0.00439314 -8.09499e-06 -4.15868e-05)
(0.00444817 -3.76495e-06 -4.32926e-05)
(0.00450329 2.85933e-06 -4.46279e-05)
(0.00455689 1.28712e-05 -4.53708e-05)
(0.00460651 2.80171e-05 -4.50764e-05)
(0.00464842 5.11162e-05 -4.29928e-05)
(0.00467681 8.67775e-05 -3.79513e-05)
(0.00379352 7.21601e-07 4.55683e-06)
(0.00378766 1.06788e-07 3.69245e-06)
(0.00378315 -4.46018e-07 2.85266e-06)
(0.00377996 -9.35908e-07 2.02441e-06)
(0.00377808 -1.36535e-06 1.19731e-06)
(0.00377749 -1.74277e-06 3.53439e-07)
(0.00377822 -2.09327e-06 -5.40882e-07)
(0.00378031 -2.45113e-06 -1.52787e-06)
(0.0037838 -2.85023e-06 -2.61956e-06)
(0.00378875 -3.31323e-06 -3.80608e-06)
(0.00379523 -3.84816e-06 -5.07001e-06)
(0.00380334 -4.44973e-06 -6.41251e-06)
(0.00381314 -5.0992e-06 -7.83851e-06)
(0.00382469 -5.76074e-06 -9.32187e-06)
(0.00383805 -6.39357e-06 -1.08258e-05)
(0.00385326 -6.96922e-06 -1.2339e-05)
(0.00387036 -7.47203e-06 -1.38773e-05)
(0.00388943 -7.89385e-06 -1.54649e-05)
(0.00391051 -8.23015e-06 -1.70988e-05)
(0.00393366 -8.47632e-06 -1.87377e-05)
(0.00395893 -8.63556e-06 -2.0358e-05)
(0.0039864 -8.73132e-06 -2.20114e-05)
(0.00401619 -8.80041e-06 -2.37958e-05)
(0.00404848 -8.86611e-06 -2.57775e-05)
(0.00408345 -8.91591e-06 -2.79576e-05)
(0.00412129 -8.89763e-06 -3.03019e-05)
(0.0041621 -8.72104e-06 -3.27687e-05)
(0.00420596 -8.2548e-06 -3.53134e-05)
(0.00425286 -7.3214e-06 -3.78774e-05)
(0.00430267 -5.68629e-06 -4.03749e-05)
(0.00435517 -3.04103e-06 -4.27256e-05)
(0.00441002 1.02443e-06 -4.49042e-05)
(0.00446671 7.09253e-06 -4.68962e-05)
(0.0045245 1.60275e-05 -4.86271e-05)
(0.00458232 2.91355e-05 -4.98934e-05)
(0.00463861 4.84248e-05 -5.03569e-05)
(0.00469118 7.70064e-05 -4.94741e-05)
(0.0047371 0.000119772 -4.6423e-05)
(0.00379816 3.94919e-07 4.59271e-06)
(0.00379236 -1.49128e-07 3.65007e-06)
(0.00378795 -6.39426e-07 2.75003e-06)
(0.00378488 -1.06919e-06 1.86301e-06)
(0.00378314 -1.4352e-06 9.74602e-07)
(0.0037827 -1.73792e-06 7.6425e-08)
(0.00378358 -1.98886e-06 -8.52341e-07)
(0.0037858 -2.2093e-06 -1.8393e-06)
(0.00378939 -2.42567e-06 -2.90628e-06)
(0.00379441 -2.66159e-06 -4.06792e-06)
(0.00380093 -2.92937e-06 -5.33452e-06)
(0.00380905 -3.2286e-06 -6.71887e-06)
(0.00381884 -3.54553e-06 -8.21302e-06)
(0.00383039 -3.85355e-06 -9.77639e-06)
(0.00384375 -4.12615e-06 -1.1367e-05)
(0.00385896 -4.34629e-06 -1.29639e-05)
(0.00387606 -4.50293e-06 -1.45673e-05)
(0.00389513 -4.589e-06 -1.6184e-05)
(0.0039162 -4.60106e-06 -1.77947e-05)
(0.00393933 -4.53755e-06 -1.93632e-05)
(0.00396455 -4.40218e-06 -2.08997e-05)
(0.00399195 -4.20785e-06 -2.24933e-05)
(0.00402166 -3.96908e-06 -2.42603e-05)
(0.00405389 -3.68479e-06 -2.62644e-05)
(0.00408884 -3.32635e-06 -2.84983e-05)
(0.0041267 -2.83526e-06 -3.09211e-05)
(0.00416763 -2.11848e-06 -3.34797e-05)
(0.00421171 -1.0411e-06 -3.61171e-05)
(0.00425898 5.80178e-07 -3.87658e-05)
(0.00430939 2.99286e-06 -4.13451e-05)
(0.00436282 6.53278e-06 -4.38014e-05)
(0.00441908 1.16604e-05 -4.61272e-05)
(0.00447791 1.90298e-05 -4.8318e-05)
(0.00453891 2.95766e-05 -5.0319e-05)
(0.00460149 4.4659e-05 -5.19823e-05)
(0.00466483 6.62541e-05 -5.30465e-05)
(0.00472779 9.72712e-05 -5.31043e-05)
(0.00478888 0.000141983 -5.15451e-05)
(0.00379942 -9.54973e-09 4.56812e-06)
(0.00379366 -4.21431e-07 3.54963e-06)
(0.00378932 -7.95544e-07 2.58964e-06)
(0.00378635 -1.11781e-06 1.64888e-06)
(0.00378471 -1.37757e-06 7.14194e-07)
(0.00378439 -1.56738e-06 -2.15604e-07)
(0.00378538 -1.68719e-06 -1.15194e-06)
(0.00378769 -1.7473e-06 -2.11215e-06)
(0.00379135 -1.7646e-06 -3.12713e-06)
(0.00379641 -1.75565e-06 -4.23813e-06)
(0.00380295 -1.72972e-06 -5.48273e-06)
(0.00381109 -1.68892e-06 -6.87527e-06)
(0.0038209 -1.62753e-06 -8.38846e-06)
(0.00383247 -1.53452e-06 -9.9701e-06)
(0.00384584 -1.40298e-06 -1.15761e-05)
(0.00386106 -1.23223e-06 -1.31816e-05)
(0.00387819 -1.02203e-06 -1.47799e-05)
(0.00389727 -7.71538e-07 -1.63665e-05)
(0.00391836 -4.78891e-07 -1.79167e-05)
(0.00394149 -1.39697e-07 -1.94078e-05)
(0.00396671 2.52375e-07 -2.08751e-05)
(0.0039941 7.04915e-07 -2.24258e-05)
(0.00402383 1.22966e-06 -2.41749e-05)
(0.0040561 1.84972e-06 -2.61758e-05)
(0.00409113 2.60415e-06 -2.84178e-05)
(0.00412914 3.55084e-06 -3.08564e-05)
(0.00417029 4.77507e-06 -3.34339e-05)
(0.00421473 6.39917e-06 -3.60877e-05)
(0.00426252 8.5939e-06 -3.8753e-05)
(0.0043137 1.16006e-05 -4.13674e-05)
(0.00436827 1.57611e-05 -4.3901e-05)
(0.0044262 2.15537e-05 -4.63587e-05)
(0.00448743 2.9642e-05 -4.87325e-05)
(0.00455189 4.09535e-05 -5.09686e-05)
(0.00461944 5.67883e-05 -5.2962e-05)
(0.00468992 7.89776e-05 -5.45393e-05)
(0.00476321 0.00011012 -5.54369e-05)
(0.00483941 0.000153898 -5.52681e-05)
(0.00379904 -4.36914e-07 4.55358e-06)
(0.00379331 -6.55187e-07 3.4402e-06)
(0.00378902 -8.60094e-07 2.40177e-06)
(0.00378611 -1.03171e-06 1.40699e-06)
(0.00378455 -1.1514e-06 4.42379e-07)
(0.00378432 -1.20405e-06 -4.99599e-07)
(0.00378539 -1.17978e-06 -1.43102e-06)
(0.00378777 -1.07821e-06 -2.36313e-06)
(0.00379149 -9.03012e-07 -3.33237e-06)
(0.00379659 -6.56745e-07 -4.40226e-06)
(0.00380317 -3.40871e-07 -5.62867e-06)
(0.00381134 4.04943e-08 -7.01683e-06)
(0.00382119 4.80059e-07 -8.51556e-06)
(0.00383279 9.68093e-07 -1.00607e-05)
(0.0038462 1.49051e-06 -1.16119e-05)
(0.00386144 2.03211e-06 -1.31553e-05)
(0.00387859 2.58187e-06 -1.46935e-05)
(0.00389769 3.13445e-06 -1.62244e-05)
(0.00391879 3.69113e-06 -1.77249e-05)
(0.00394195 4.26287e-06 -1.91781e-05)
(0.00396721 4.87234e-06 -2.06251e-05)
(0.00399467 5.55021e-06 -2.21699e-05)
(0.00402449 6.33117e-06 -2.39131e-05)
(0.00405688 7.25359e-06 -2.58984e-05)
(0.00409209 8.36019e-06 -2.81172e-05)
(0.00413033 9.70329e-06 -3.05304e-05)
(0.0041718 1.13549e-05 -3.30812e-05)
(0.00421667 1.3418e-05 -3.57097e-05)
(0.00426508 1.60429e-05 -3.83658e-05)
(0.00431713 1.94517e-05 -4.10154e-05)
(0.00437294 2.39673e-05 -4.36459e-05)
(0.00443262 3.00426e-05 -4.62529e-05)
(0.00449631 3.83038e-05 -4.88094e-05)
(0.0045642 4.96072e-05 -5.1266e-05)
(0.00463651 6.51147e-05 -5.3559e-05)
(0.00471359 8.64028e-05 -5.55928e-05)
(0.00479597 0.000115605 -5.72165e-05)
(0.00488455 0.000155558 -5.82004e-05)
(0.00379128 -8.21821e-07 3.33554e-06)
(0.00378703 -8.20796e-07 2.22158e-06)
(0.00378417 -8.16312e-07 1.18913e-06)
(0.00378267 -7.82373e-07 2.17097e-07)
(0.00378248 -6.9386e-07 -7.20188e-07)
(0.00378361 -5.30507e-07 -1.64345e-06)
(0.00378604 -2.8016e-07 -2.56098e-06)
(0.0037898 6.8844e-08 -3.5093e-06)
(0.00379495 5.29631e-07 -4.56245e-06)
(0.00380158 1.10873e-06 -5.77874e-06)
(0.0038098 1.79622e-06 -7.14538e-06)
(0.00381971 2.56692e-06 -8.59039e-06)
(0.00383137 3.38841e-06 -1.00437e-05)
(0.00384481 4.22982e-06 -1.14774e-05)
(0.00386008 5.06661e-06 -1.29017e-05)
(0.00387725 5.88291e-06 -1.43402e-05)
(0.00389637 6.67133e-06 -1.58031e-05)
(0.0039175 7.43338e-06 -1.72704e-05)
(0.00394071 8.18659e-06 -1.87192e-05)
(0.00396605 8.96816e-06 -2.018e-05)
(0.00399363 9.82674e-06 -2.17391e-05)
(0.00402361 1.08128e-05 -2.34778e-05)
(0.00405621 1.19728e-05 -2.54336e-05)
(0.00409166 1.33492e-05 -2.76051e-05)
(0.00413021 1.49861e-05 -2.99642e-05)
(0.00417206 1.6939e-05 -3.24623e-05)
(0.00421743 1.92884e-05 -3.5048e-05)
(0.00426651 2.21559e-05 -3.76876e-05)
(0.00431947 2.57317e-05 -4.03662e-05)
(0.00437652 3.03004e-05 -4.30783e-05)
(0.00443792 3.62629e-05 -4.58098e-05)
(0.00450396 4.41698e-05 -4.85239e-05)
(0.00457503 5.4761e-05 -5.11812e-05)
(0.00465166 6.90166e-05 -5.37493e-05)
(0.00473455 8.82283e-05 -5.61882e-05)
(0.00482472 0.00011408 -5.84293e-05)
(0.00492364 0.000148708 -6.03567e-05)
(0.00378579 -9.00008e-07 3.22408e-06)
(0.00378155 -6.80623e-07 2.07924e-06)
(0.00377872 -4.95162e-07 1.05105e-06)
(0.00377724 -3.10855e-07 1.05416e-07)
(0.00377709 -9.0367e-08 -8.03167e-07)
(0.00377824 1.97895e-07 -1.70646e-06)
(0.00378068 5.78254e-07 -2.61294e-06)
(0.00378447 1.07526e-06 -3.55489e-06)
(0.00378965 1.71438e-06 -4.59754e-06)
(0.00379633 2.50677e-06 -5.78495e-06)
(0.00380461 3.43349e-06 -7.08809e-06)
(0.00381459 4.449e-06 -8.42709e-06)