/*--------------------------------*- C++ -*----------------------------------*\
| =========                 |                                                 |
| \\      /  F ield         | OpenFOAM: The Open Source CFD Toolbox           |
|  \\    /   O peration     | Version:  2.3.1                                 |
|   \\  /    A nd           | Web:      www.OpenFOAM.org                      |
|    \\/     M anipulation  |                                                 |
\*---------------------------------------------------------------------------*/
FoamFile
{
    version     2.0;
    format      ascii;
    class       volScalarField;
    location    "20";
    object      epsilon;
}
// * * * * * * * * * * * * * * * * * * * * * * * * * * * * * * * * * * * * * //

dimensions      [0 2 -3 0 0 0 0];

internalField   nonuniform List<scalar> 
37784
(
9.70324e-07
8.80228e-07
8.36705e-07
8.04811e-07
7.73659e-07
7.32489e-07
6.64362e-07
5.464e-07
2.94689e-07
9.08306e-07
8.30424e-07
7.77274e-07
7.38716e-07
7.06009e-07
6.74216e-07
6.33844e-07
5.68347e-07
4.50895e-07
2.54122e-07
6.88713e-07
6.37763e-07
5.95491e-07
5.60796e-07
5.31161e-07
5.03904e-07
4.73404e-07
4.28273e-07
3.54362e-07
2.313e-07
3.25143e-07
2.99762e-07
2.77918e-07
2.59816e-07
2.44764e-07
2.32107e-07
2.20509e-07
2.08366e-07
1.97951e-07
1.95812e-07
6.60001e-07
5.44561e-07
4.99957e-07
4.77918e-07
4.62031e-07
4.44464e-07
4.18089e-07
3.74638e-07
3.6162e-07
5.69473e-07
5.06328e-07
4.69508e-07
4.48365e-07
4.3411e-07
4.22078e-07
4.07452e-07
3.82605e-07
3.36727e-07
2.78629e-07
4.20589e-07
4.00067e-07
3.84006e-07
3.72178e-07
3.63044e-07
3.54846e-07
3.44715e-07
3.26585e-07
2.9115e-07
2.44222e-07
3.39059e-07
3.24353e-07
3.11175e-07
2.99917e-07
2.90407e-07
2.81828e-07
2.72459e-07
2.5851e-07
2.34692e-07
2.03474e-07
6.3134e-07
4.97782e-07
4.49062e-07
4.27798e-07
4.14788e-07
4.02806e-07
3.88752e-07
3.76324e-07
5.07679e-07
5.39963e-07
4.70139e-07
4.32086e-07
4.12392e-07
4.00602e-07
3.91816e-07
3.82463e-07
3.68472e-07
3.49806e-07
3.63098e-07
4.17098e-07
3.97644e-07
3.8329e-07
3.7328e-07
3.65926e-07
3.59525e-07
3.51642e-07
3.37661e-07
3.13196e-07
3.04386e-07
4.71906e-07
4.5155e-07
4.33403e-07
4.17747e-07
4.04325e-07
3.91679e-07
3.76692e-07
3.52471e-07
3.0806e-07
2.41852e-07
6.07837e-07
4.82278e-07
4.34137e-07
4.1304e-07
4.01024e-07
3.91658e-07
3.84769e-07
3.90388e-07
6.14105e-07
5.30513e-07
4.62802e-07
4.25157e-07
4.05712e-07
3.94468e-07
3.86771e-07
3.79822e-07
3.71952e-07
3.67789e-07
4.22186e-07
4.32981e-07
4.12939e-07
3.98288e-07
3.8828e-07
3.81057e-07
3.74932e-07
3.67656e-07
3.55132e-07
3.35713e-07
3.41753e-07
5.70848e-07
5.45897e-07
5.23496e-07
5.03969e-07
4.86908e-07
4.70224e-07
4.49463e-07
4.15069e-07
3.51837e-07
2.58979e-07
5.7334e-07
4.69407e-07
4.25666e-07
4.0555e-07
3.94343e-07
3.8717e-07
3.84684e-07
4.03617e-07
6.87217e-07
5.15953e-07
4.56914e-07
4.22376e-07
4.03846e-07
3.93097e-07
3.86088e-07
3.80642e-07
3.76829e-07
3.81825e-07
4.62856e-07
4.46044e-07
4.26369e-07
4.11655e-07
4.01376e-07
3.93864e-07
3.8761e-07
3.8048e-07
3.68778e-07
3.51423e-07
3.6536e-07
6.413e-07
6.13759e-07
5.88685e-07
5.66559e-07
5.46791e-07
5.26763e-07
5.00902e-07
4.57601e-07
3.7899e-07
2.67034e-07
5.37867e-07
4.55968e-07
4.18218e-07
3.99773e-07
3.896e-07
3.84188e-07
3.85009e-07
4.13063e-07
7.32231e-07
4.97945e-07
4.49279e-07
4.19241e-07
4.02314e-07
3.92205e-07
3.85786e-07
3.81652e-07
3.80259e-07
3.91507e-07
4.89759e-07
4.52967e-07
4.34544e-07
4.20238e-07
4.09963e-07
4.02506e-07
3.96278e-07
3.89202e-07
3.78013e-07
3.61644e-07
3.80273e-07
6.89192e-07
6.60962e-07
6.34771e-07
6.11259e-07
5.89706e-07
5.67101e-07
5.37017e-07
4.8642e-07
3.96036e-07
2.71226e-07
5.05801e-07
4.42335e-07
4.10766e-07
3.94346e-07
3.85521e-07
3.81474e-07
3.84984e-07
4.18852e-07
7.52261e-07
4.79179e-07
4.40332e-07
4.15093e-07
4.00007e-07
3.9071e-07
3.84964e-07
3.81816e-07
3.82272e-07
3.9748e-07
5.05957e-07
4.5486e-07
4.38215e-07
4.24855e-07
4.15236e-07
4.08106e-07
4.02027e-07
3.94956e-07
3.83801e-07
3.67897e-07
3.89387e-07
7.19232e-07
6.91808e-07
6.65773e-07
6.41925e-07
6.19441e-07
5.9502e-07
5.61639e-07
5.05375e-07
4.06494e-07
2.7364e-07
4.77706e-07
4.29226e-07
4.03252e-07
3.89036e-07
3.81678e-07
3.78868e-07
3.84536e-07
4.2154e-07
7.48961e-07
4.61292e-07
4.30898e-07
4.10079e-07
3.96945e-07
3.88587e-07
3.83639e-07
3.81312e-07
3.83176e-07
4.00533e-07
5.13571e-07
4.53385e-07
4.38601e-07
4.26834e-07
4.1811e-07
4.11468e-07
4.05599e-07
3.98505e-07
3.87215e-07
3.7138e-07
3.94487e-07
7.3543e-07
7.0986e-07
6.84943e-07
6.61604e-07
6.3891e-07
6.13368e-07
5.77566e-07
5.17127e-07
4.1249e-07
2.75115e-07
4.53727e-07
4.16955e-07
3.95894e-07
3.83916e-07
3.77997e-07
3.76399e-07
3.83865e-07
4.21973e-07
7.25587e-07
4.45123e-07
4.21566e-07
4.04646e-07
3.9343e-07
3.86101e-07
3.82046e-07
3.80457e-07
3.83282e-07
4.01345e-07
5.14058e-07
4.4973e-07
4.37234e-07
4.27038e-07
4.19307e-07
4.1323e-07
4.07564e-07
4.00467e-07
3.88999e-07
3.72963e-07
3.96755e-07
7.41376e-07
7.18214e-07
6.95087e-07
6.72856e-07
6.50516e-07
6.2444e-07
5.86992e-07
5.23663e-07
4.15427e-07
2.76013e-07
4.33565e-07
4.058e-07
3.88938e-07
3.79096e-07
3.74533e-07
3.74162e-07
3.83185e-07
4.21163e-07
6.75013e-07
4.30978e-07
4.12817e-07
3.99215e-07
3.89758e-07
3.83585e-07
3.80368e-07
3.79461e-07
3.82903e-07
4.00563e-07
5.09414e-07
4.45201e-07
4.3482e-07
4.26202e-07
4.19409e-07
4.13861e-07
4.08425e-07
4.01353e-07
3.89683e-07
3.73263e-07
3.97047e-07
7.40073e-07
7.19524e-07
6.98566e-07
6.77853e-07
6.56267e-07
6.30125e-07
5.91678e-07
5.26508e-07
4.16246e-07
2.76515e-07
1.44729e-05
1.80962e-05
1.84886e-05
1.71567e-05
1.12767e-05
3.06302e-06
7.8115e-07
4.80855e-07
3.10619e-07
1.82455e-05
2.16507e-05
1.70222e-05
8.11478e-06
3.62591e-06
1.32222e-06
6.40363e-07
4.40066e-07
4.06484e-07
5.29376e-06
4.38285e-06
3.21512e-06
1.79116e-06
1.07239e-06
6.8397e-07
5.0394e-07
4.27173e-07
5.23381e-07
1.50257e-06
1.23853e-06
9.86612e-07
7.66757e-07
6.21115e-07
5.1607e-07
4.48983e-07
4.30903e-07
6.03439e-07
8.42308e-07
6.87544e-07
5.93352e-07
5.28351e-07
4.78822e-07
4.39024e-07
4.16191e-07
4.32667e-07
6.37061e-07
5.32028e-07
4.75658e-07
4.41365e-07
4.16959e-07
4.00922e-07
3.98122e-07
4.39516e-07
5.27553e-07
4.59937e-07
4.22381e-07
4.00374e-07
3.87164e-07
3.80956e-07
3.87935e-07
4.41802e-07
4.56944e-07
4.17586e-07
3.94172e-07
3.80441e-07
3.73685e-07
3.72338e-07
3.83262e-07
4.35683e-07
4.16817e-07
3.95919e-07
3.82566e-07
3.74708e-07
3.71315e-07
3.72201e-07
3.82479e-07
4.20152e-07
6.05807e-07
4.18918e-07
4.04963e-07
3.94089e-07
3.86247e-07
3.81225e-07
3.78736e-07
3.78442e-07
3.82152e-07
3.98164e-07
5.00125e-07
4.40594e-07
4.3201e-07
4.24731e-07
4.18858e-07
4.13768e-07
4.08569e-07
4.01541e-07
3.89657e-07
3.72783e-07
3.96187e-07
7.34405e-07
7.16352e-07
6.97408e-07
6.7831e-07
6.5778e-07
6.3194e-07
5.93002e-07
5.26791e-07
4.15712e-07
2.76729e-07
6.10959e-06
8.61922e-06
9.12688e-06
7.41071e-06
3.51909e-06
1.09361e-06
6.0698e-07
4.62146e-07
3.06517e-07
6.14569e-06
6.80005e-06
4.71663e-06
2.70831e-06
1.47542e-06
8.01346e-07
5.43094e-07
4.17219e-07
4.03353e-07
1.99786e-06
1.73124e-06
1.34007e-06
9.88008e-07
7.44169e-07
5.7365e-07
4.66954e-07
4.1579e-07
5.1643e-07
9.63868e-07
8.32828e-07
7.17118e-07
6.22601e-07
5.44979e-07
4.77405e-07
4.31593e-07
4.22954e-07
5.8421e-07
6.82467e-07
5.88286e-07
5.29025e-07
4.86512e-07
4.51032e-07
4.22082e-07
4.07431e-07
4.2853e-07
6.81797e-07
5.589e-07
4.90017e-07
4.49546e-07
4.23123e-07
4.04065e-07
3.92519e-07
3.93944e-07
4.35266e-07
7.30719e-07
4.82126e-07
4.3551e-07
4.07401e-07
3.89992e-07
3.80044e-07
3.76469e-07
3.86325e-07
4.36223e-07
7.14188e-07
4.31098e-07
4.02758e-07
3.84803e-07
3.74133e-07
3.69325e-07
3.69909e-07
3.82683e-07
4.31222e-07
6.56908e-07
4.0306e-07
3.87377e-07
3.76878e-07
3.70793e-07
3.68429e-07
3.70444e-07
3.81232e-07
4.15738e-07
5.71053e-07
4.08877e-07
3.98148e-07
3.89456e-07
3.83102e-07
3.79123e-07
3.77241e-07
3.77469e-07
3.81204e-07
3.95581e-07
4.93192e-07
4.36253e-07
4.29163e-07
4.23042e-07
4.17883e-07
4.13265e-07
4.08303e-07
4.01329e-07
3.89272e-07
3.71862e-07
3.94819e-07
7.25784e-07
7.10153e-07
6.93474e-07
6.76019e-07
6.56487e-07
6.31124e-07
5.92128e-07
5.25619e-07
4.14327e-07
2.76745e-07
2.37934e-06
3.2415e-06
3.29109e-06
2.34572e-06
1.19839e-06
6.97294e-07
5.64793e-07
4.50262e-07
3.02745e-07
1.80841e-06
1.93148e-06
1.57198e-06
1.1718e-06
8.39512e-07
6.2223e-07
4.88927e-07
4.01857e-07
3.99902e-07
1.04139e-06
9.42306e-07
8.22454e-07
7.08245e-07
6.03413e-07
5.09875e-07
4.41139e-07
4.07012e-07
5.08465e-07
7.2692e-07
6.54305e-07
5.94887e-07
5.4355e-07
4.94415e-07
4.48189e-07
4.17639e-07
4.16478e-07
5.70763e-07
5.8557e-07
5.256e-07
4.85629e-07
4.55051e-07
4.28606e-07
4.08099e-07
3.99838e-07
4.2194e-07
6.24073e-07
5.03848e-07
4.57448e-07
4.27731e-07
4.0725e-07
3.92849e-07
3.85137e-07
3.89613e-07
4.2646e-07
6.47266e-07
4.47918e-07
4.15346e-07
3.9426e-07
3.8078e-07
3.73696e-07
3.7245e-07
3.83623e-07
4.2618e-07
6.3776e-07
4.10787e-07
3.90291e-07
3.76622e-07
3.68618e-07
3.65428e-07
3.67649e-07
3.80882e-07
4.22393e-07
6.08014e-07
3.919e-07
3.80122e-07
3.71931e-07
3.67366e-07
3.6591e-07
3.68864e-07
3.79715e-07
4.10562e-07
5.52975e-07
4.0069e-07
3.92388e-07
3.85492e-07
3.80408e-07
3.77313e-07
3.7595e-07
3.7658e-07
3.80238e-07
3.93299e-07
4.88498e-07
4.32366e-07
4.26489e-07
4.21282e-07
4.16741e-07
4.12528e-07
4.07798e-07
4.00898e-07
3.88691e-07
3.70835e-07
3.93428e-07
7.15904e-07
7.02311e-07
6.87542e-07
6.71716e-07
6.53428e-07
6.28769e-07
5.89953e-07
5.23425e-07
4.12425e-07
2.7664e-07
1.08156e-06
1.27597e-06
1.24199e-06
9.77152e-07
7.32751e-07
6.20889e-07
5.47073e-07
4.40874e-07
2.99258e-07
9.02606e-07
9.13657e-07
8.46732e-07
7.46514e-07
6.38886e-07
5.38519e-07
4.55523e-07
3.91433e-07
3.96449e-07
7.35627e-07
6.8923e-07
6.39961e-07
5.86421e-07
5.27607e-07
4.68413e-07
4.23091e-07
4.00802e-07
5.01158e-07
6.05975e-07
5.62205e-07
5.25917e-07
4.92163e-07
4.58024e-07
4.26334e-07
4.0681e-07
4.11494e-07
5.60285e-07
5.21358e-07
4.8172e-07
4.53185e-07
4.30246e-07
4.10638e-07
3.96823e-07
3.93637e-07
4.16682e-07
5.96702e-07
4.63234e-07
4.3137e-07
4.09348e-07
3.93649e-07
3.83326e-07
3.78893e-07
3.85749e-07
4.19715e-07
6.10046e-07
4.21663e-07
3.98699e-07
3.82935e-07
3.72865e-07
3.68103e-07
3.68965e-07
3.80999e-07
4.18984e-07
6.03412e-07
3.94809e-07
3.79941e-07
3.69633e-07
3.63868e-07
3.62047e-07
3.65601e-07
3.78934e-07
4.15881e-07
5.83434e-07
3.82945e-07
3.74064e-07
3.67729e-07
3.6441e-07
3.63786e-07
3.67492e-07
3.783e-07
4.06731e-07
5.43371e-07
3.94128e-07
3.87662e-07
3.82223e-07
3.78175e-07
3.75803e-07
3.74869e-07
3.75806e-07
3.79374e-07
3.91498e-07
4.85047e-07
4.28996e-07
4.24064e-07
4.19575e-07
4.15562e-07
4.11705e-07
4.07191e-07
4.00367e-07
3.88064e-07
3.69858e-07
3.92046e-07
7.05709e-07
6.93827e-07
6.80738e-07
6.66365e-07
6.49193e-07
6.25285e-07
5.86881e-07
5.20741e-07
4.10376e-07
2.76426e-07
7.66121e-07
7.9055e-07
7.67721e-07
7.04507e-07
6.45966e-07
5.98102e-07
5.35212e-07
4.33105e-07
2.96047e-07
6.71192e-07
6.64886e-07
6.41546e-07
6.02633e-07
5.50453e-07
4.906e-07
4.3414e-07
3.8429e-07
3.93611e-07
6.05042e-07
5.79207e-07
5.51154e-07
5.18051e-07
4.79661e-07
4.40528e-07
4.10479e-07
3.96447e-07
4.94978e-07
5.33026e-07
5.04672e-07
4.79707e-07
4.55545e-07
4.31354e-07
4.10203e-07
3.98663e-07
4.07887e-07
5.52143e-07
4.75537e-07
4.48621e-07
4.27745e-07
4.10538e-07
3.96511e-07
3.87848e-07
3.88778e-07
4.13014e-07
5.8242e-07
4.3244e-07
4.10295e-07
3.94019e-07
3.82295e-07
3.7538e-07
3.73742e-07
3.82564e-07
4.15336e-07
5.92458e-07
4.01356e-07
3.85076e-07
3.73388e-07
3.66189e-07
3.63314e-07
3.66012e-07
3.78781e-07
4.14526e-07
5.87271e-07
3.82282e-07
3.71469e-07
3.63795e-07
3.59823e-07
3.59174e-07
3.63807e-07
3.77267e-07
4.11773e-07
5.71153e-07
3.75819e-07
3.69081e-07
3.64241e-07
3.61905e-07
3.62048e-07
3.6634e-07
3.77127e-07
4.04129e-07
5.37617e-07
3.88956e-07
3.83903e-07
3.79591e-07
3.76377e-07
3.74553e-07
3.73978e-07
3.75153e-07
3.78652e-07
3.90128e-07
4.82269e-07
4.26108e-07
4.21897e-07
4.17993e-07
4.14424e-07
4.10875e-07
4.06559e-07
3.99818e-07
3.87457e-07
3.68983e-07
3.90691e-07
6.95807e-07
6.85316e-07
6.7365e-07
6.60559e-07
6.44436e-07
6.21308e-07
5.83441e-07
5.17864e-07
4.083e-07
2.76111e-07
6.94265e-07
6.86733e-07
6.71783e-07
6.49145e-07
6.22044e-07
5.85362e-07
5.26143e-07
4.26339e-07
2.93297e-07
5.76329e-07
5.70011e-07
5.56211e-07
5.33302e-07
5.00623e-07
4.61076e-07
4.20075e-07
3.79327e-07
3.91344e-07
5.32082e-07
5.15669e-07
4.96636e-07
4.73799e-07
4.47684e-07
4.21561e-07
4.0163e-07
3.93426e-07
4.89984e-07
4.83495e-07
4.64287e-07
4.4633e-07
4.28797e-07
4.1189e-07
3.98398e-07
3.92628e-07
4.05341e-07
5.45824e-07
4.41519e-07
4.22963e-07
4.07684e-07
3.9503e-07
3.85554e-07
3.80826e-07
3.85047e-07
4.10553e-07
5.738e-07
4.08872e-07
3.93383e-07
3.8147e-07
3.73072e-07
3.68799e-07
3.69591e-07
3.80043e-07
4.12568e-07
5.82811e-07
3.85656e-07
3.74073e-07
3.65512e-07
3.60622e-07
3.59326e-07
3.63555e-07
3.77016e-07
4.11802e-07
5.78493e-07
3.72515e-07
3.64622e-07
3.59024e-07
3.56385e-07
3.56785e-07
3.62282e-07
3.7595e-07
4.0923e-07
5.64169e-07
3.70192e-07
3.65031e-07
3.61413e-07
3.59825e-07
3.60652e-07
3.65401e-07
3.76208e-07
4.02371e-07
5.33566e-07
3.84957e-07
3.80959e-07
3.77509e-07
3.74942e-07
3.73527e-07
3.73257e-07
3.74617e-07
3.78067e-07
3.89074e-07
4.79867e-07
4.23626e-07
4.19988e-07
4.16564e-07
4.13366e-07
4.10083e-07
4.05949e-07
3.99292e-07
3.869e-07
3.68211e-07
3.89354e-07
6.86529e-07
6.77144e-07
6.66658e-07
6.54673e-07
6.39504e-07
6.17141e-07
5.79873e-07
5.1495e-07
4.06253e-07
2.75705e-07
6.68658e-07
6.57721e-07
6.45669e-07
6.30574e-07
6.09573e-07
5.76329e-07
5.18932e-07
4.20409e-07
2.90874e-07
5.22756e-07
5.17824e-07
5.07975e-07
4.9216e-07
4.69843e-07
4.42162e-07
4.10563e-07
3.75801e-07
3.89606e-07
4.84679e-07
4.7351e-07
4.59941e-07
4.43855e-07
4.26e-07
4.08521e-07
3.95354e-07
3.91333e-07
4.86049e-07
4.48057e-07
4.34786e-07
4.21815e-07
4.09251e-07
3.97781e-07
3.89718e-07
3.88188e-07
4.03547e-07
5.40802e-07
4.15985e-07
4.031e-07
3.92031e-07
3.82993e-07
3.7708e-07
3.75415e-07
3.82196e-07
4.08882e-07
5.67741e-07
3.90866e-07
3.79991e-07
3.71369e-07
3.65699e-07
3.63443e-07
3.66277e-07
3.78077e-07
4.10772e-07
5.7646e-07
3.73567e-07
3.65295e-07
3.59139e-07
3.56015e-07
3.56068e-07
3.61535e-07
3.75641e-07
4.10075e-07
5.72739e-07
3.64942e-07
3.59146e-07
3.55157e-07
3.53501e-07
3.54817e-07
3.61009e-07
3.74929e-07
4.07589e-07
5.59403e-07
3.65769e-07
3.61789e-07
3.59146e-07
3.58145e-07
3.59537e-07
3.64645e-07
3.75501e-07
4.01134e-07
5.30348e-07
3.81878e-07
3.78667e-07
3.75861e-07
3.73791e-07
3.72687e-07
3.72676e-07
3.74179e-07
3.77594e-07
3.88229e-07
4.77694e-07
4.21495e-07
4.18316e-07
4.15285e-07
4.124e-07
4.09349e-07
4.05379e-07
3.98805e-07
3.864e-07
3.67528e-07
3.88025e-07
6.78026e-07
6.69506e-07
6.59984e-07
6.48941e-07
6.34619e-07
6.12979e-07
5.76326e-07
5.12082e-07
4.04261e-07
2.75214e-07
6.53359e-07
6.43202e-07
6.32676e-07
6.19835e-07
6.01038e-07
5.69473e-07
5.13067e-07
4.15227e-07
2.88643e-07
4.88382e-07
4.84579e-07
4.77273e-07
4.65896e-07
4.50013e-07
4.29626e-07
4.03952e-07
3.73222e-07
3.8818e-07
4.52171e-07
4.44356e-07
4.34624e-07
4.23297e-07
4.11101e-07
3.99439e-07
3.90822e-07
3.8985e-07
4.82807e-07
4.22371e-07
4.13124e-07
4.03821e-07
3.94987e-07
3.87577e-07
3.83252e-07
3.84918e-07
4.02238e-07
5.36607e-07
3.96865e-07
3.87876e-07
3.79956e-07
3.73796e-07
3.70459e-07
3.71268e-07
3.80005e-07
4.07682e-07
5.62962e-07
3.77181e-07
3.69515e-07
3.63377e-07
3.59801e-07
3.59163e-07
3.63631e-07
3.76539e-07
4.09522e-07
5.71645e-07
3.64296e-07
3.58352e-07
3.54075e-07
3.52203e-07
3.53438e-07
3.59882e-07
3.74559e-07
4.08889e-07
5.68393e-07
3.59083e-07
3.5479e-07
3.52019e-07
3.51125e-07
3.53195e-07
3.5995e-07
3.7413e-07
4.06444e-07
5.55705e-07
3.62317e-07
3.59232e-07
3.57334e-07
3.56803e-07
3.58646e-07
3.64038e-07
3.7495e-07
4.00204e-07
5.27602e-07
3.79497e-07
3.76864e-07
3.74541e-07
3.72862e-07
3.72e-07
3.72206e-07
3.7382e-07
3.77206e-07
3.87518e-07
4.75672e-07
4.19657e-07
4.1685e-07
4.14144e-07
4.11526e-07
4.08678e-07
4.04856e-07
3.98362e-07
3.85955e-07
3.66918e-07
3.86698e-07
6.70331e-07
6.62484e-07
6.53743e-07
6.43492e-07
6.29912e-07
6.08937e-07
5.72882e-07
5.09303e-07
4.02331e-07
2.74645e-07
6.42373e-07
6.3331e-07
6.23897e-07
6.1229e-07
5.94705e-07
5.64072e-07
5.08187e-07
4.10716e-07
2.86517e-07
4.65377e-07
4.624e-07
4.56901e-07
4.48524e-07
4.368e-07
4.2104e-07
3.99225e-07
3.71266e-07
3.86839e-07
4.29527e-07
4.23964e-07
4.16977e-07
4.0901e-07
4.00699e-07
3.9301e-07
3.87475e-07
3.88745e-07
4.79945e-07
4.03743e-07
3.97249e-07
3.90623e-07
3.84541e-07
3.80102e-07
3.78447e-07
3.82463e-07
4.01224e-07
5.32936e-07
3.82611e-07
3.76301e-07
3.70695e-07
3.66779e-07
3.65302e-07
3.68068e-07
3.78294e-07
4.06744e-07
5.58916e-07
3.66819e-07
3.61385e-07
3.57142e-07
3.55048e-07
3.55775e-07
3.61509e-07
3.75312e-07
4.08566e-07
5.67667e-07
3.57198e-07
3.529e-07
3.50035e-07
3.49109e-07
3.51307e-07
3.58523e-07
3.73689e-07
4.07989e-07
5.64815e-07
3.54541e-07
3.51334e-07
3.49464e-07
3.49178e-07
3.51858e-07
3.59072e-07
3.73487e-07
4.05566e-07
5.52602e-07
3.59634e-07
3.57224e-07
3.55878e-07
3.55735e-07
3.5793e-07
3.63542e-07
3.74505e-07
3.99451e-07
5.2515e-07
3.77622e-07
3.75422e-07
3.73472e-07
3.72101e-07
3.71438e-07
3.71818e-07
3.7352e-07
3.76881e-07
3.86896e-07
4.73755e-07
4.18061e-07
4.15559e-07
4.13126e-07
4.10735e-07
4.08067e-07
4.04377e-07
3.9796e-07
3.85558e-07
3.66365e-07
3.85371e-07
6.63417e-07
6.56089e-07
6.47977e-07
6.38389e-07
6.25452e-07
6.05076e-07
5.69585e-07
5.06633e-07
4.00468e-07
2.74007e-07
6.34093e-07
6.25968e-07
6.17409e-07
6.06628e-07
5.8979e-07
5.59679e-07
5.04047e-07
4.06782e-07
2.84464e-07
4.49625e-07
4.47234e-07
4.43018e-07
4.36692e-07
4.27713e-07
4.1497e-07
3.95748e-07
3.69725e-07
3.85476e-07
4.1361e-07
4.09576e-07
4.04534e-07
3.98932e-07
3.93304e-07
3.88348e-07
3.84975e-07
3.8786e-07
4.77304e-07
3.90214e-07
3.85601e-07
3.80908e-07
3.7688e-07
3.74488e-07
3.74857e-07
3.80575e-07
4.0038e-07
5.29628e-07
3.71997e-07
3.67529e-07
3.63633e-07
3.61348e-07
3.6131e-07
3.65561e-07
3.76925e-07
4.05947e-07
5.55351e-07
3.58975e-07
3.55085e-07
3.52281e-07
3.51239e-07
3.53083e-07
3.5979e-07
3.74307e-07
4.07766e-07
5.64217e-07
3.51756e-07
3.48631e-07
3.46795e-07
3.4661e-07
3.49567e-07
3.57391e-07
3.72963e-07
4.07237e-07
5.61714e-07
3.51001e-07
3.48599e-07
3.47355e-07
3.47595e-07
3.50757e-07
3.58337e-07
3.72948e-07
4.04831e-07
5.4987e-07
3.57535e-07
3.5565e-07
3.54687e-07
3.5488e-07
3.5734e-07
3.63126e-07
3.74132e-07
3.988e-07
5.22896e-07
3.76116e-07
3.74249e-07
3.72595e-07
3.71464e-07
3.70969e-07
3.7149e-07
3.73264e-07
3.76599e-07
3.86333e-07
4.71918e-07
4.16663e-07
4.14413e-07
4.12212e-07
4.10017e-07
4.07508e-07
4.03938e-07
3.97592e-07
3.85201e-07
3.65857e-07
3.84045e-07
6.57224e-07
6.50296e-07
6.42692e-07
6.33656e-07
6.21272e-07
6.0143e-07
5.66458e-07
5.04084e-07
3.98674e-07
2.73305e-07
6.27685e-07
6.2031e-07
6.12406e-07
6.02202e-07
5.85841e-07
5.56007e-07
5.00477e-07
4.03332e-07
2.82475e-07
4.38607e-07
4.36629e-07
4.3332e-07
4.28408e-07
4.21278e-07
4.1055e-07
3.93121e-07
3.68467e-07
3.84072e-07
4.0229e-07
3.99303e-07
3.95634e-07
3.91699e-07
3.87944e-07
3.84885e-07
3.83066e-07
3.87104e-07
4.74824e-07
3.80331e-07
3.77006e-07
3.73693e-07
3.71203e-07
3.70219e-07
3.72125e-07
3.79083e-07
3.99628e-07
5.26602e-07
3.64064e-07
3.60863e-07
3.58266e-07
3.5707e-07
3.58211e-07
3.63566e-07
3.75799e-07
4.0522e-07
5.52142e-07
3.53012e-07
3.50209e-07
3.48448e-07
3.48204e-07
3.5092e-07
3.58378e-07
3.73456e-07
4.07044e-07
5.61135e-07
3.47558e-07
3.45297e-07
3.44154e-07
3.44592e-07
3.48132e-07
3.56436e-07
3.72334e-07
4.0656e-07
5.58941e-07
3.48212e-07
3.46426e-07
3.4562e-07
3.46307e-07
3.49842e-07
3.5771e-07
3.72478e-07
4.04173e-07
5.47393e-07
3.55873e-07
3.54398e-07
3.53705e-07
3.54176e-07
3.56844e-07
3.62766e-07
3.73802e-07
3.98206e-07
5.20788e-07
3.74883e-07
3.73277e-07
3.7186e-07
3.70921e-07
3.70568e-07
3.71205e-07
3.73038e-07
3.76345e-07
3.8581e-07
4.70149e-07
4.15429e-07
4.1339e-07
4.11387e-07
4.09361e-07
4.06993e-07
4.03531e-07
3.97252e-07
3.84874e-07
3.65383e-07
3.82722e-07
6.51682e-07
6.45063e-07
6.37867e-07
6.29291e-07
6.17382e-07
5.98012e-07
5.63511e-07
5.01663e-07
3.9695e-07
2.72534e-07
6.22605e-07
6.15825e-07
6.08422e-07
5.98629e-07
5.82568e-07
5.52872e-07
4.97356e-07
4.00275e-07
2.80516e-07
4.30734e-07
4.2905e-07
4.26382e-07
4.22456e-07
4.16591e-07
4.07243e-07
3.91084e-07
3.67407e-07
3.82635e-07
3.94123e-07
3.91858e-07
3.89164e-07
3.86408e-07
3.8398e-07
3.82252e-07
3.8157e-07
3.86426e-07
4.72488e-07
3.73039e-07
3.70603e-07
3.68298e-07
3.66882e-07
3.66965e-07
3.69993e-07
3.7787e-07
3.98928e-07
5.23814e-07
3.5809e-07
3.55767e-07
3.54124e-07
3.53715e-07
3.55766e-07
3.61949e-07
3.74844e-07
4.04527e-07
5.49217e-07
3.48444e-07
3.46432e-07
3.45372e-07
3.45784e-07
3.49162e-07
3.57198e-07
3.72715e-07
4.06361e-07
5.58334e-07
3.44284e-07
3.42669e-07
3.42001e-07
3.42947e-07
3.46935e-07
3.55614e-07
3.71772e-07
4.05918e-07
5.5641e-07
3.46001e-07
3.44682e-07
3.44199e-07
3.45244e-07
3.49071e-07
3.57164e-07
3.72052e-07
4.03555e-07
5.45107e-07
3.54533e-07
3.53374e-07
3.52888e-07
3.53584e-07
3.56415e-07
3.62445e-07
3.73498e-07
3.97645e-07
5.18799e-07
3.73854e-07
3.72455e-07
3.71231e-07
3.70447e-07
3.70216e-07
3.7095e-07
3.72831e-07
3.76111e-07
3.85314e-07
4.68443e-07
4.14331e-07
4.1247e-07
4.10636e-07
4.08758e-07
4.06515e-07
4.0315e-07
3.96936e-07
3.8457e-07
3.64931e-07
3.81392e-07
6.46721e-07
6.40342e-07
6.33476e-07
6.25284e-07
6.13781e-07
5.94827e-07
5.60752e-07
4.99376e-07
3.95283e-07
2.71615e-07
6.18493e-07
6.12182e-07
6.05165e-07
5.9567e-07
5.79795e-07
5.50152e-07
4.94595e-07
3.9751e-07
2.78349e-07
4.24991e-07
4.23517e-07
4.21309e-07
4.18074e-07
4.13089e-07
4.04707e-07
3.89466e-07
3.6648e-07
3.81143e-07
3.88133e-07
3.86376e-07
3.8438e-07
3.82466e-07
3.8099e-07
3.802e-07
3.80367e-07
3.85793e-07
4.7028e-07
3.67591e-07
3.65773e-07
3.64231e-07
3.63523e-07
3.64451e-07
3.68293e-07
3.76856e-07
3.98258e-07
5.21235e-07
3.53544e-07
3.51853e-07
3.50866e-07
3.51072e-07
3.53807e-07
3.60613e-07
3.74014e-07
4.03852e-07
5.4653e-07
3.44902e-07
3.43481e-07
3.42894e-07
3.43835e-07
3.47714e-07
3.56195e-07
3.7205e-07
4.05696e-07
5.5576e-07
3.41703e-07
3.40564e-07
3.40243e-07
3.41587e-07
3.45922e-07
3.54895e-07
3.71254e-07
4.05294e-07
5.54077e-07
3.44231e-07
3.43263e-07
3.43028e-07
3.44353e-07
3.48407e-07
3.56677e-07
3.71655e-07
4.0296e-07
5.42981e-07
3.53434e-07
3.52519e-07
3.522e-07
3.53074e-07
3.56036e-07
3.6215e-07
3.73209e-07
3.97105e-07
5.16917e-07
3.72979e-07
3.71746e-07
3.70682e-07
3.70024e-07
3.69901e-07
3.70716e-07
3.72636e-07
3.75887e-07
3.84836e-07
4.66794e-07
4.13347e-07
4.11637e-07
4.09949e-07
4.08199e-07
4.06069e-07
4.02793e-07
3.96637e-07
3.84282e-07
3.64482e-07
3.80007e-07
6.42275e-07
6.36085e-07
6.29488e-07
6.21616e-07
6.10463e-07
5.91876e-07
5.58183e-07
4.97221e-07
3.93618e-07
2.70163e-07
6.15105e-07
6.09165e-07
6.02447e-07
5.93166e-07
5.77406e-07
5.47765e-07
4.92121e-07
3.94833e-07
2.74663e-07
4.20719e-07
4.19397e-07
4.17519e-07
4.14777e-07
4.10414e-07
4.02718e-07
3.88148e-07
3.65618e-07
3.79456e-07
3.83667e-07
3.82271e-07
3.80778e-07
3.79479e-07
3.78675e-07
3.78576e-07
3.79369e-07
3.85186e-07
4.68176e-07
3.63465e-07
3.62083e-07
3.61097e-07
3.60905e-07
3.62465e-07
3.66909e-07
3.75985e-07
3.97605e-07
5.1884e-07
3.5004e-07
3.48822e-07
3.48266e-07
3.4897e-07
3.52213e-07
3.59491e-07
3.73276e-07
4.03187e-07
5.44051e-07
3.42126e-07
3.41138e-07
3.40892e-07
3.42243e-07
3.46504e-07
3.55327e-07
3.71441e-07
4.05041e-07
5.53387e-07
3.39646e-07
3.38851e-07
3.38798e-07
3.4045e-07
3.45053e-07
3.54255e-07
3.70767e-07
4.0468e-07
5.5192e-07
3.42796e-07
3.42086e-07
3.42052e-07
3.43595e-07
3.47827e-07
3.56235e-07
3.71277e-07
4.02379e-07
5.40998e-07
3.52517e-07
3.5179e-07
3.51608e-07
3.52625e-07
3.55691e-07
3.61872e-07
3.72928e-07
3.96578e-07
5.15137e-07
3.72221e-07
3.71127e-07
3.70198e-07
3.69642e-07
3.69613e-07
3.70495e-07
3.72448e-07
3.75668e-07
3.84369e-07
4.65194e-07
4.12459e-07
4.10879e-07
4.09317e-07
4.0768e-07
4.0565e-07
4.02454e-07
3.96353e-07
3.84003e-07
3.64008e-07
3.78441e-07
6.38286e-07
6.32249e-07
6.25872e-07
6.1827e-07
6.0742e-07
5.89158e-07
5.55807e-07
4.95191e-07
3.91778e-07
2.66786e-07
6.12176e-07
6.06548e-07
6.00075e-07
5.90957e-07
5.75266e-07
5.4559e-07
4.89794e-07
3.91661e-07
2.77054e-07
4.17371e-07
4.16167e-07
4.14538e-07
4.12161e-07
4.0826e-07
4.01076e-07
3.87016e-07
3.64741e-07
3.77165e-07
3.80165e-07
3.79042e-07
3.77924e-07
3.77098e-07
3.76784e-07
3.77225e-07
3.78496e-07
3.84578e-07
4.6608e-07
3.60184e-07
3.59141e-07
3.58538e-07
3.58772e-07
3.60812e-07
3.65721e-07
3.75196e-07
3.96946e-07
5.16541e-07
3.47206e-07
3.46354e-07
3.4611e-07
3.47213e-07
3.5085e-07
3.58499e-07
3.72585e-07
4.02509e-07
5.41688e-07
3.39849e-07
3.39181e-07
3.39205e-07
3.40881e-07
3.45443e-07
3.54538e-07
3.70856e-07
4.04373e-07
5.51124e-07
3.37934e-07
3.37379e-07
3.37559e-07
3.39452e-07
3.4427e-07
3.53656e-07
3.70289e-07
4.04053e-07
5.49857e-07
3.41582e-07
3.41055e-07
3.41201e-07
3.42918e-07
3.47293e-07
3.55811e-07
3.70899e-07
4.0179e-07
5.39089e-07
3.51712e-07
3.51135e-07
3.51072e-07
3.52208e-07
3.55361e-07
3.61595e-07
3.72642e-07
3.96046e-07
5.13401e-07
3.71534e-07
3.70559e-07
3.69748e-07
3.69279e-07
3.69337e-07
3.70277e-07
3.72258e-07
3.75445e-07
3.83895e-07
4.63587e-07
4.11627e-07
4.10161e-07
4.08713e-07
4.07178e-07
4.05241e-07
4.02122e-07
3.96074e-07
3.83724e-07
3.63483e-07
3.76496e-07
6.34577e-07
6.28672e-07
6.22486e-07
6.15121e-07
6.04546e-07
5.86586e-07
5.53553e-07
4.93215e-07
3.89392e-07
2.6881e-07
6.09634e-07
6.04272e-07
5.98001e-07
5.89009e-07
5.73358e-07
5.43626e-07
4.87677e-07
3.88873e-07
2.69437e-07
4.14743e-07
4.1363e-07
4.12185e-07
4.10077e-07
4.06517e-07
3.99715e-07
3.86052e-07
3.63943e-07
3.75019e-07
3.7742e-07
3.76501e-07
3.75671e-07
3.75174e-07
3.75245e-07
3.76089e-07
3.77725e-07
3.83982e-07
4.64069e-07
3.57577e-07
3.56799e-07
3.56456e-07
3.5703e-07
3.59431e-07
3.64694e-07
3.74475e-07
3.96284e-07
5.14357e-07
3.44923e-07
3.44338e-07
3.44333e-07
3.45742e-07
3.4968e-07
3.57615e-07
3.71932e-07
4.0182e-07
5.39455e-07
3.37994e-07
3.37536e-07
3.37791e-07
3.39713e-07
3.44508e-07
3.53816e-07
3.7029e-07
4.03694e-07
5.48988e-07
3.36509e-07
3.36121e-07
3.36495e-07
3.38575e-07
3.43561e-07
3.53092e-07
3.69814e-07
4.03414e-07
5.47903e-07
3.40549e-07
3.40156e-07
3.40455e-07
3.42308e-07
3.46797e-07
3.55402e-07
3.70517e-07
4.01193e-07
5.37269e-07
3.51005e-07
3.50539e-07
3.50586e-07
3.51817e-07
3.55041e-07
3.61318e-07
3.72349e-07
3.95509e-07
5.1173e-07
3.70909e-07
3.70036e-07
3.69326e-07
3.68934e-07
3.69067e-07
3.70058e-07
3.72064e-07
3.75219e-07
3.83426e-07
4.62026e-07
4.10849e-07
4.09485e-07
4.08138e-07
4.06696e-07
4.04844e-07
4.01797e-07
3.95802e-07
3.83459e-07
3.62998e-07
3.74729e-07
6.31151e-07
6.25362e-07
6.19343e-07
6.1219e-07
6.01865e-07
5.84187e-07
5.51457e-07
4.91395e-07
3.87459e-07
2.63453e-07
6.07479e-07
6.02343e-07
5.96242e-07
5.87352e-07
5.71724e-07
5.41931e-07
4.85856e-07
3.86788e-07
2.65879e-07
4.12712e-07
4.11669e-07
4.10358e-07
4.08442e-07
4.05129e-07
3.9861e-07
3.85259e-07
3.63294e-07
3.73368e-07
3.75302e-07
3.74531e-07
3.7392e-07
3.73646e-07
3.74009e-07
3.75148e-07
3.77058e-07
3.83427e-07
4.62242e-07
3.55542e-07
3.5496e-07
3.54802e-07
3.55629e-07
3.58293e-07
3.63819e-07
3.73828e-07
3.95644e-07
5.12366e-07
3.43126e-07
3.42711e-07
3.42901e-07
3.44532e-07
3.48693e-07
3.56841e-07
3.71329e-07
4.01148e-07
5.3743e-07
3.36505e-07
3.36191e-07
3.36627e-07
3.38731e-07
3.437e-07
3.53167e-07
3.69755e-07
4.0303e-07
5.47051e-07
3.35342e-07
3.35073e-07
3.35598e-07
3.37819e-07
3.42932e-07
3.52572e-07
3.69357e-07
4.02789e-07
5.4613e-07
3.39685e-07
3.3939e-07
3.39812e-07
3.4177e-07
3.46345e-07
3.55014e-07
3.70144e-07
4.0061e-07
5.35609e-07
3.50393e-07
3.50011e-07
3.50151e-07
3.51457e-07
3.54737e-07
3.61047e-07
3.72059e-07
3.94989e-07
5.10194e-07
3.70351e-07
3.69564e-07
3.6894e-07
3.68613e-07
3.68809e-07
3.69844e-07
3.7187e-07
3.74998e-07
3.82986e-07
4.60595e-07
4.10142e-07
4.08866e-07
4.07606e-07
4.06247e-07
4.04471e-07
4.01491e-07
3.95548e-07
3.83224e-07
3.62602e-07
3.7332e-07
6.28087e-07
6.22401e-07
6.1653e-07
6.09563e-07
5.99464e-07
5.82046e-07
5.49601e-07
4.8982e-07
3.86075e-07
2.61256e-07
6.05637e-07
6.007e-07
5.94752e-07
5.85953e-07
5.70345e-07
5.40492e-07
4.84304e-07
3.85159e-07
2.63873e-07
4.11117e-07
4.10127e-07
4.08914e-07
4.07141e-07
4.04009e-07
3.97703e-07
3.84605e-07
3.62767e-07
3.72014e-07
3.73643e-07
3.7298e-07
3.72526e-07
3.72421e-07
3.72996e-07
3.74355e-07
3.76475e-07
3.82912e-07
4.60585e-07
3.53931e-07
3.53489e-07
3.5347e-07
3.54483e-07
3.57341e-07
3.63062e-07
3.73241e-07
3.9503e-07
5.10562e-07
3.41687e-07
3.41387e-07
3.41728e-07
3.43523e-07
3.47848e-07
3.56155e-07
3.70769e-07
4.00497e-07
5.35606e-07
3.35293e-07
3.35079e-07
3.35654e-07
3.37893e-07
3.42992e-07
3.52578e-07
3.69247e-07
4.02385e-07
5.45312e-07
3.34372e-07
3.3419e-07
3.34832e-07
3.37158e-07
3.42367e-07
3.52088e-07
3.68915e-07
4.02181e-07
5.4454e-07
3.38949e-07
3.38731e-07
3.39248e-07
3.41287e-07
3.45928e-07
3.54644e-07
3.69779e-07
4.00045e-07
5.34118e-07
3.49855e-07
3.4954e-07
3.49755e-07
3.51122e-07
3.54446e-07
3.60779e-07
3.71772e-07
3.9449e-07
5.08811e-07
3.69849e-07
3.69135e-07
3.68583e-07
3.68312e-07
3.68562e-07
3.69633e-07
3.71678e-07
3.74783e-07
3.82575e-07
4.59307e-07
4.09498e-07
4.08298e-07
4.07115e-07
4.05828e-07
4.04122e-07
4.01204e-07
3.95313e-07
3.83019e-07
3.62276e-07
3.72146e-07
6.25344e-07
6.19755e-07
6.14016e-07
6.0722e-07
5.9733e-07
5.80159e-07
5.47988e-07
4.8849e-07
3.85043e-07
2.60082e-07
6.04054e-07
5.99299e-07
5.93494e-07
5.84788e-07
5.69208e-07
5.39307e-07
4.83008e-07
3.83823e-07
2.62367e-07
4.09844e-07
4.08895e-07
4.07756e-07
4.06091e-07
4.03095e-07
3.96954e-07
3.84063e-07
3.62327e-07
3.70814e-07
3.72322e-07
3.71743e-07
3.71393e-07
3.71424e-07
3.72154e-07
3.73678e-07
3.75961e-07
3.82435e-07
4.59084e-07
3.52642e-07
3.5229e-07
3.52383e-07
3.53532e-07
3.56533e-07
3.62399e-07
3.72705e-07
3.94446e-07
5.08946e-07
3.40518e-07
3.40298e-07
3.40754e-07
3.4267e-07
3.47115e-07
3.55541e-07
3.70246e-07
3.99872e-07
5.33988e-07
3.34289e-07
3.34151e-07
3.3483e-07
3.3717e-07
3.42364e-07
3.52038e-07
3.68764e-07
4.01766e-07
5.43782e-07
3.33552e-07
3.33438e-07
3.34168e-07
3.36574e-07
3.41853e-07
3.51634e-07
3.68489e-07
4.01596e-07
5.43154e-07
3.38314e-07
3.38157e-07
3.38749e-07