/*--------------------------------*- C++ -*----------------------------------*\
| =========                 |                                                 |
| \\      /  F ield         | OpenFOAM: The Open Source CFD Toolbox           |
|  \\    /   O peration     | Version:  2.3.1                                 |
|   \\  /    A nd           | Web:      www.OpenFOAM.org                      |
|    \\/     M anipulation  |                                                 |
\*---------------------------------------------------------------------------*/
FoamFile
{
    version     2.0;
    format      ascii;
    class       volScalarField;
    location    "20";
    object      epsilon_0;
}
// * * * * * * * * * * * * * * * * * * * * * * * * * * * * * * * * * * * * * //

dimensions      [0 2 -3 0 0 0 0];

internalField   nonuniform List<scalar> 
37784
(
9.70349e-07
8.8027e-07
8.36741e-07
8.04842e-07
7.73687e-07
7.32518e-07
6.6439e-07
5.46422e-07
2.94701e-07
9.0833e-07
8.30451e-07
7.77301e-07
7.38742e-07
7.06035e-07
6.74243e-07
6.33875e-07
5.68382e-07
4.50929e-07
2.54147e-07
6.88731e-07
6.3778e-07
5.95507e-07
5.60813e-07
5.31179e-07
5.03925e-07
4.73429e-07
4.28304e-07
3.54395e-07
2.31329e-07
3.25152e-07
2.99771e-07
2.77928e-07
2.59827e-07
2.44777e-07
2.32121e-07
2.20526e-07
2.08386e-07
1.97974e-07
1.95842e-07
6.6e-07
5.44588e-07
4.99991e-07
4.77951e-07
4.62063e-07
4.44497e-07
4.18122e-07
3.74672e-07
3.61641e-07
5.69496e-07
5.06356e-07
4.69541e-07
4.48399e-07
4.34145e-07
4.22112e-07
4.07488e-07
3.82642e-07
3.36766e-07
2.78661e-07
4.20622e-07
4.00101e-07
3.8404e-07
3.72213e-07
3.63079e-07
3.54881e-07
3.44751e-07
3.26623e-07
2.9119e-07
2.44256e-07
3.39086e-07
3.2438e-07
3.11201e-07
2.99944e-07
2.90434e-07
2.81855e-07
2.72488e-07
2.58541e-07
2.34724e-07
2.03506e-07
6.31322e-07
4.97801e-07
4.49091e-07
4.27827e-07
4.14816e-07
4.02834e-07
3.88782e-07
3.76355e-07
5.07701e-07
5.39978e-07
4.70162e-07
4.32117e-07
4.12424e-07
4.00634e-07
3.91848e-07
3.82496e-07
3.68507e-07
3.49841e-07
3.63134e-07
4.17132e-07
3.97678e-07
3.83326e-07
3.73316e-07
3.65963e-07
3.59561e-07
3.51679e-07
3.377e-07
3.13236e-07
3.04425e-07
4.71941e-07
4.51583e-07
4.33436e-07
4.1778e-07
4.04358e-07
3.91713e-07
3.76728e-07
3.52509e-07
3.081e-07
2.41889e-07
6.07817e-07
4.82292e-07
4.34162e-07
4.13065e-07
4.01049e-07
3.91683e-07
3.84795e-07
3.90417e-07
6.14127e-07
5.30524e-07
4.62822e-07
4.25185e-07
4.05742e-07
3.94498e-07
3.86801e-07
3.79853e-07
3.71985e-07
3.67822e-07
4.22223e-07
4.33012e-07
4.12973e-07
3.98322e-07
3.88315e-07
3.81092e-07
3.74968e-07
3.67692e-07
3.55171e-07
3.35753e-07
3.41794e-07
5.70884e-07
5.45933e-07
5.23531e-07
5.04004e-07
4.86943e-07
4.70261e-07
4.49502e-07
4.1511e-07
3.5188e-07
2.59016e-07
5.73325e-07
4.69419e-07
4.25687e-07
4.05572e-07
3.94364e-07
3.87191e-07
3.84707e-07
4.03643e-07
6.87238e-07
5.15963e-07
4.56931e-07
4.22401e-07
4.03874e-07
3.93124e-07
3.86115e-07
3.80671e-07
3.76859e-07
3.81857e-07
4.62893e-07
4.46074e-07
4.264e-07
4.11688e-07
4.01409e-07
3.93898e-07
3.87645e-07
3.80516e-07
3.68816e-07
3.51463e-07
3.65401e-07
6.41337e-07
6.13795e-07
5.88721e-07
5.66594e-07
5.46827e-07
5.268e-07
5.00941e-07
4.57643e-07
3.79034e-07
2.67072e-07
5.37858e-07
4.55979e-07
4.18236e-07
3.99792e-07
3.89618e-07
3.84207e-07
3.8503e-07
4.13087e-07
7.32253e-07
4.97955e-07
4.49295e-07
4.19264e-07
4.02338e-07
3.9223e-07
3.85811e-07
3.81678e-07
3.80287e-07
3.91536e-07
4.89795e-07
4.52994e-07
4.34573e-07
4.20269e-07
4.09994e-07
4.02538e-07
3.96311e-07
3.89236e-07
3.7805e-07
3.61683e-07
3.80314e-07
6.89229e-07
6.60998e-07
6.34806e-07
6.11293e-07
5.89741e-07
5.67138e-07
5.37056e-07
4.86462e-07
3.9608e-07
2.71263e-07
5.05798e-07
4.42346e-07
4.10782e-07
3.94362e-07
3.85537e-07
3.81491e-07
3.85004e-07
4.18875e-07
7.52285e-07
4.7919e-07
4.40348e-07
4.15114e-07
4.0003e-07
3.90733e-07
3.84988e-07
3.8184e-07
3.82299e-07
3.97509e-07
5.05994e-07
4.54886e-07
4.38243e-07
4.24884e-07
4.15266e-07
4.08137e-07
4.02059e-07
3.9499e-07
3.83837e-07
3.67935e-07
3.89428e-07
7.19268e-07
6.91843e-07
6.65807e-07
6.41959e-07
6.19476e-07
5.95056e-07
5.61678e-07
5.05418e-07
4.06538e-07
2.73678e-07
4.77707e-07
4.29237e-07
4.03266e-07
3.89051e-07
3.81692e-07
3.78883e-07
3.84554e-07
4.21563e-07
7.48987e-07
4.61304e-07
4.30915e-07
4.10099e-07
3.96967e-07
3.88609e-07
3.83661e-07
3.81336e-07
3.83202e-07
4.00561e-07
5.13609e-07
4.5341e-07
4.38628e-07
4.26862e-07
4.18139e-07
4.11498e-07
4.05631e-07
3.98538e-07
3.87251e-07
3.71418e-07
3.94528e-07
7.35466e-07
7.09894e-07
6.84976e-07
6.61637e-07
6.38944e-07
6.13403e-07
5.77605e-07
5.17169e-07
4.12534e-07
2.75152e-07
4.5373e-07
4.16965e-07
3.95907e-07
3.83929e-07
3.78011e-07
3.76414e-07
3.83883e-07
4.21995e-07
7.25616e-07
4.45137e-07
4.21583e-07
4.04665e-07
3.9345e-07
3.86121e-07
3.82068e-07
3.8048e-07
3.83308e-07
4.01373e-07
5.14096e-07
4.49755e-07
4.3726e-07
4.27066e-07
4.19336e-07
4.1326e-07
4.07595e-07
4.005e-07
3.89035e-07
3.73001e-07
3.96797e-07
7.41411e-07
7.18248e-07
6.9512e-07
6.72888e-07
6.50549e-07
6.24476e-07
5.87031e-07
5.23705e-07
4.15471e-07
2.7605e-07
4.33571e-07
4.05811e-07
3.8895e-07
3.79109e-07
3.74546e-07
3.74177e-07
3.83203e-07
4.21185e-07
6.75044e-07
4.30993e-07
4.12834e-07
3.99234e-07
3.89778e-07
3.83605e-07
3.80389e-07
3.79484e-07
3.82929e-07
4.00592e-07
5.09454e-07
4.45225e-07
4.34847e-07
4.2623e-07
4.19438e-07
4.13891e-07
4.08456e-07
4.01386e-07
3.89718e-07
3.73301e-07
3.97089e-07
7.40109e-07
7.19558e-07
6.98599e-07
6.77886e-07
6.56301e-07
6.30161e-07
5.91717e-07
5.26551e-07
4.1629e-07
2.76553e-07
1.44754e-05
1.80947e-05
1.84843e-05
1.7147e-05
1.12529e-05
3.05157e-06
7.79961e-07
4.80787e-07
3.10627e-07
1.82482e-05
2.16439e-05
1.69954e-05
8.09617e-06
3.6168e-06
1.31907e-06
6.39812e-07
4.39971e-07
4.06534e-07
5.29082e-06
4.37988e-06
3.20979e-06
1.78831e-06
1.07101e-06
6.83423e-07
5.03758e-07
4.27144e-07
5.23427e-07
1.502e-06
1.23798e-06
9.85961e-07
7.66318e-07
6.20841e-07
5.15907e-07
4.48906e-07
4.30891e-07
6.03487e-07
8.42157e-07
6.87415e-07
5.9323e-07
5.28251e-07
4.78738e-07
4.38963e-07
4.1616e-07
4.32664e-07
6.37012e-07
5.31997e-07
4.75631e-07
4.41338e-07
4.16933e-07
4.00901e-07
3.98115e-07
4.39524e-07
5.27536e-07
4.5993e-07
4.22377e-07
4.00369e-07
3.87159e-07
3.80953e-07
3.8794e-07
4.41816e-07
4.56942e-07
4.17589e-07
3.94177e-07
3.80446e-07
3.73691e-07
3.72346e-07
3.83276e-07
4.35702e-07
4.16824e-07
3.9593e-07
3.82578e-07
3.7472e-07
3.71328e-07
3.72216e-07
3.82497e-07
4.20174e-07
6.05845e-07
4.18934e-07
4.04981e-07
3.94108e-07
3.86266e-07
3.81246e-07
3.78757e-07
3.78465e-07
3.82178e-07
3.98194e-07
5.00167e-07
4.40619e-07
4.32037e-07
4.24759e-07
4.18886e-07
4.13797e-07
4.086e-07
4.01574e-07
3.89693e-07
3.72822e-07
3.9623e-07
7.34441e-07
7.16387e-07
6.97441e-07
6.78343e-07
6.57813e-07
6.31975e-07
5.93041e-07
5.26835e-07
4.15756e-07
2.76766e-07
6.11012e-06
8.61695e-06
9.12068e-06
7.3994e-06
3.50898e-06
1.09115e-06
6.06768e-07
4.62138e-07
3.06531e-07
6.14364e-06
6.79293e-06
4.70796e-06
2.70327e-06
1.47259e-06
8.00439e-07
5.42847e-07
4.17177e-07
4.03402e-07
1.99689e-06
1.73007e-06
1.33876e-06
9.87163e-07
7.43654e-07
5.73389e-07
4.66847e-07
4.15779e-07
5.16474e-07
9.63645e-07
8.3258e-07
7.16868e-07
6.22406e-07
5.44826e-07
4.77297e-07
4.31541e-07
4.22952e-07
5.84253e-07
6.82391e-07
5.88219e-07
5.2896e-07
4.8645e-07
4.50974e-07
4.22038e-07
4.07411e-07
4.28534e-07
6.81824e-07
5.58874e-07
4.89998e-07
4.49528e-07
4.23102e-07
4.04044e-07
3.92504e-07
3.93942e-07
4.35276e-07
7.30742e-07
4.82117e-07
4.35506e-07
4.07398e-07
3.89988e-07
3.8004e-07
3.76468e-07
3.86333e-07
4.36238e-07
7.14218e-07
4.31099e-07
4.02762e-07
3.84809e-07
3.74138e-07
3.69331e-07
3.69918e-07
3.82696e-07
4.3124e-07
6.56948e-07
4.0307e-07
3.87389e-07
3.7689e-07
3.70806e-07
3.68443e-07
3.70459e-07
3.81251e-07
4.15762e-07
5.71095e-07
4.08894e-07
3.98167e-07
3.89476e-07
3.83122e-07
3.79144e-07
3.77263e-07
3.77492e-07
3.81231e-07
3.95613e-07
4.93237e-07
4.36279e-07
4.2919e-07
4.2307e-07
4.17912e-07
4.13295e-07
4.08334e-07
4.01362e-07
3.89308e-07
3.71902e-07
3.94861e-07
7.25821e-07
7.10188e-07
6.93508e-07
6.76053e-07
6.56521e-07
6.3116e-07
5.92168e-07
5.25663e-07
4.14372e-07
2.76783e-07
2.37903e-06
3.23981e-06
3.28739e-06
2.34141e-06
1.19615e-06
6.96887e-07
5.64766e-07
4.50273e-07
3.02764e-07
1.80787e-06
1.92987e-06
1.57019e-06
1.17048e-06
8.38752e-07
6.21904e-07
4.88805e-07
4.01845e-07
3.99951e-07
1.04113e-06
9.41957e-07
8.22091e-07
7.07947e-07
6.03188e-07
5.09729e-07
4.41078e-07
4.07015e-07
5.08509e-07
7.26829e-07
6.54201e-07
5.9478e-07
5.43448e-07
4.94319e-07
4.48119e-07
4.17607e-07
4.16483e-07
5.70803e-07
5.85533e-07
5.25565e-07
4.85591e-07
4.55009e-07
4.28565e-07
4.08069e-07
3.99828e-07
4.2195e-07
6.24105e-07
5.03834e-07
4.57436e-07
4.27718e-07
4.07235e-07
3.92835e-07
3.85127e-07
3.89615e-07
4.26473e-07
6.47295e-07
4.47914e-07
4.15345e-07
3.94259e-07
3.80778e-07
3.73695e-07
3.72452e-07
3.83632e-07
4.26197e-07
6.37794e-07
4.1079e-07
3.90296e-07
3.76628e-07
3.68625e-07
3.65435e-07
3.67659e-07
3.80897e-07
4.22413e-07
6.08053e-07
3.91911e-07
3.80134e-07
3.71944e-07
3.6738e-07
3.65924e-07
3.6888e-07
3.79736e-07
4.10587e-07
5.53019e-07
4.00708e-07
3.92407e-07
3.85512e-07
3.80428e-07
3.77334e-07
3.75973e-07
3.76604e-07
3.80266e-07
3.93332e-07
4.88545e-07
4.32393e-07
4.26516e-07
4.2131e-07
4.1677e-07
4.12558e-07
4.07829e-07
4.00931e-07
3.88728e-07
3.70875e-07
3.93471e-07
7.15942e-07
7.02347e-07
6.87577e-07
6.71751e-07
6.53464e-07
6.28806e-07
5.89994e-07
5.2347e-07
4.12471e-07
2.76677e-07
1.08142e-06
1.27542e-06
1.24093e-06
9.76218e-07
7.32385e-07
6.20843e-07
5.47085e-07
4.40895e-07
2.9928e-07
9.0251e-07
9.13355e-07
8.46343e-07
7.46167e-07
6.3864e-07
5.38368e-07
4.55465e-07
3.91439e-07
3.96497e-07
7.35548e-07
6.89122e-07
6.39834e-07
5.8629e-07
5.27487e-07
4.68329e-07
4.2306e-07
4.00814e-07
5.01202e-07
6.05937e-07
5.62158e-07
5.25861e-07
4.921e-07
4.57961e-07
4.26289e-07
4.06793e-07
4.11505e-07
5.60326e-07
5.21339e-07
4.81701e-07
4.53161e-07
4.30218e-07
4.1061e-07
3.96804e-07
3.93634e-07
4.16697e-07
5.96739e-07
4.63226e-07
4.31363e-07
4.09339e-07
3.93638e-07
3.83316e-07
3.78888e-07
3.85755e-07
4.19732e-07
6.10083e-07
4.21662e-07
3.98699e-07
3.82935e-07
3.72865e-07
3.68104e-07
3.6897e-07
3.81011e-07
4.19004e-07
6.03451e-07
3.94814e-07
3.79948e-07
3.6964e-07
3.63876e-07
3.62055e-07
3.65612e-07
3.7895e-07
4.15904e-07
5.83476e-07
3.82957e-07
3.74077e-07
3.67742e-07
3.64424e-07
3.63801e-07
3.67509e-07
3.78322e-07
4.06759e-07
5.43417e-07
3.94147e-07
3.87681e-07
3.82244e-07
3.78196e-07
3.75824e-07
3.74891e-07
3.7583e-07
3.79402e-07
3.91532e-07
4.85094e-07
4.29024e-07
4.24093e-07
4.19604e-07
4.15591e-07
4.11735e-07
4.07223e-07
4.00401e-07
3.88102e-07
3.69899e-07
3.9209e-07
7.05748e-07
6.93864e-07
6.80775e-07
6.66401e-07
6.4923e-07
6.25324e-07
5.86923e-07
5.20786e-07
4.10422e-07
2.76464e-07
7.66119e-07
7.90453e-07
7.67536e-07
7.0437e-07
6.45932e-07
5.98115e-07
5.35238e-07
4.33134e-07
2.96072e-07
6.7118e-07
6.64823e-07
6.41444e-07
6.02519e-07
5.50346e-07
4.90527e-07
4.3412e-07
3.84308e-07
3.93657e-07
6.05019e-07
5.79167e-07
5.51096e-07
5.17981e-07
4.79592e-07
4.40481e-07
4.10467e-07
3.96465e-07
4.95022e-07
5.33009e-07
5.04648e-07
4.79674e-07
4.55506e-07
4.31315e-07
4.10177e-07
3.98658e-07
4.07904e-07
5.52186e-07
4.75528e-07
4.48609e-07
4.27729e-07
4.10519e-07
3.96494e-07
3.87837e-07
3.88781e-07
4.13033e-07
5.82461e-07
4.32436e-07
4.10291e-07
3.94014e-07
3.82288e-07
3.75375e-07
3.73742e-07
3.82573e-07
4.15356e-07
5.925e-07
4.01358e-07
3.85079e-07
3.7339e-07
3.66191e-07
3.63317e-07
3.6602e-07
3.78794e-07
4.14549e-07
5.87314e-07
3.82289e-07
3.71477e-07
3.63803e-07
3.59832e-07
3.59184e-07
3.6382e-07
3.77285e-07
4.11799e-07
5.71198e-07
3.75832e-07
3.69095e-07
3.64255e-07
3.6192e-07
3.62064e-07
3.66359e-07
3.77149e-07
4.04159e-07
5.37665e-07
3.88976e-07
3.83924e-07
3.79612e-07
3.76399e-07
3.74575e-07
3.74001e-07
3.75179e-07
3.78681e-07
3.90163e-07
4.82317e-07
4.26136e-07
4.21926e-07
4.18023e-07
4.14454e-07
4.10906e-07
4.06592e-07
3.99853e-07
3.87495e-07
3.69024e-07
3.90736e-07
6.95847e-07
6.85354e-07
6.73687e-07
6.60595e-07
6.44473e-07
6.21348e-07
5.83484e-07
5.1791e-07
4.08346e-07
2.76149e-07
6.94294e-07
6.86744e-07
6.71781e-07
6.49151e-07
6.22064e-07
5.85392e-07
5.26178e-07
4.26373e-07
2.93324e-07
5.76338e-07
5.69999e-07
5.56178e-07
5.33255e-07
5.00574e-07
4.61046e-07
4.20076e-07
3.79352e-07
3.9139e-07
5.32078e-07
5.15652e-07
4.96606e-07
4.73761e-07
4.47647e-07
4.21538e-07
4.01631e-07
3.93449e-07
4.90029e-07
4.83489e-07
4.64275e-07
4.46311e-07
4.28773e-07
4.11868e-07
3.98385e-07
3.92631e-07
4.05362e-07
5.45868e-07
4.41516e-07
4.22957e-07
4.07675e-07
3.95019e-07
3.85545e-07
3.80823e-07
3.85055e-07
4.10574e-07
5.73844e-07
4.08872e-07
3.93382e-07
3.81469e-07
3.7307e-07
3.68799e-07
3.69595e-07
3.80055e-07
4.12591e-07
5.82855e-07
3.8566e-07
3.74077e-07
3.65516e-07
3.60627e-07
3.59332e-07
3.63564e-07
3.77032e-07
4.11827e-07
5.78538e-07
3.72524e-07
3.64631e-07
3.59034e-07
3.56395e-07
3.56796e-07
3.62296e-07
3.75969e-07
4.09257e-07
5.64216e-07
3.70206e-07
3.65045e-07
3.61428e-07
3.59841e-07
3.60669e-07
3.6542e-07
3.76231e-07
4.02402e-07
5.33615e-07
3.84978e-07
3.8098e-07
3.7753e-07
3.74964e-07
3.73549e-07
3.7328e-07
3.74643e-07
3.78097e-07
3.8911e-07
4.79915e-07
4.23655e-07
4.20018e-07
4.16594e-07
4.13397e-07
4.10114e-07
4.05982e-07
3.99327e-07
3.86938e-07
3.68252e-07
3.89399e-07
6.8657e-07
6.77183e-07
6.66696e-07
6.54711e-07
6.39543e-07
6.17182e-07
5.79917e-07
5.14997e-07
4.06301e-07
2.75743e-07
6.68692e-07
6.57753e-07
6.45699e-07
6.30605e-07
6.09606e-07
5.76367e-07
5.18973e-07
4.20448e-07
2.90903e-07
5.22774e-07
5.1783e-07
5.07968e-07
4.92144e-07
4.69826e-07
4.42157e-07
4.10577e-07
3.75831e-07
3.89652e-07
4.84683e-07
4.73506e-07
4.59927e-07
4.43837e-07
4.25983e-07
4.08515e-07
3.95364e-07
3.9136e-07
4.86096e-07
4.48057e-07
4.34781e-07
4.21806e-07
4.09239e-07
3.97771e-07
3.89715e-07
3.88197e-07
4.0357e-07
5.40848e-07
4.15986e-07
4.03099e-07
3.92027e-07
3.82988e-07
3.77077e-07
3.75417e-07
3.82207e-07
4.08906e-07
5.67787e-07
3.90869e-07
3.79993e-07
3.7137e-07
3.657e-07
3.63445e-07
3.66284e-07
3.78091e-07
4.10796e-07
5.76505e-07
3.73573e-07
3.65301e-07
3.59146e-07
3.56022e-07
3.56075e-07
3.61546e-07
3.75658e-07
4.10101e-07
5.72786e-07
3.64952e-07
3.59157e-07
3.55167e-07
3.53512e-07
3.54829e-07
3.61024e-07
3.74949e-07
4.07618e-07
5.59452e-07
3.65784e-07
3.61804e-07
3.59162e-07
3.58161e-07
3.59554e-07
3.64665e-07
3.75525e-07
4.01166e-07
5.30398e-07
3.819e-07
3.78689e-07
3.75883e-07
3.73813e-07
3.7271e-07
3.727e-07
3.74205e-07
3.77625e-07
3.88266e-07
4.77743e-07
4.21524e-07
4.18346e-07
4.15315e-07
4.12431e-07
4.09381e-07
4.05412e-07
3.98841e-07
3.86439e-07
3.6757e-07
3.8807e-07
6.78067e-07
6.69546e-07
6.60023e-07
6.4898e-07
6.34659e-07
6.13021e-07
5.76371e-07
5.1213e-07
4.04309e-07
2.75252e-07
6.53396e-07
6.43239e-07
6.32713e-07
6.19872e-07
6.01077e-07
5.69516e-07
5.13111e-07
4.15269e-07
2.88673e-07
4.88404e-07
4.84594e-07
4.77279e-07
4.65897e-07
4.50014e-07
4.29635e-07
4.03975e-07
3.73256e-07
3.88226e-07
4.52181e-07
4.44359e-07
4.34622e-07
4.23292e-07
4.11097e-07
3.99443e-07
3.90837e-07
3.8988e-07
4.82855e-07
4.22376e-07
4.13126e-07
4.03819e-07
3.94984e-07
3.87575e-07
3.83256e-07
3.84932e-07
4.02265e-07
5.36654e-07
3.96869e-07
3.87878e-07
3.79956e-07
3.73796e-07
3.70461e-07
3.71274e-07
3.80019e-07
4.07707e-07
5.63009e-07
3.77187e-07
3.6952e-07
3.63381e-07
3.59805e-07
3.59168e-07
3.63641e-07
3.76555e-07
4.09548e-07
5.71692e-07
3.64304e-07
3.5836e-07
3.54083e-07
3.52211e-07
3.53447e-07
3.59895e-07
3.74578e-07
4.08916e-07
5.68441e-07
3.59095e-07
3.54802e-07
3.52031e-07
3.51137e-07
3.53209e-07
3.59966e-07
3.74152e-07
4.06474e-07
5.55754e-07
3.62333e-07
3.59248e-07
3.57351e-07
3.56819e-07
3.58664e-07
3.64059e-07
3.74975e-07
4.00237e-07
5.27652e-07
3.7952e-07
3.76887e-07
3.74564e-07
3.72885e-07
3.72023e-07
3.72231e-07
3.73847e-07
3.77237e-07
3.87556e-07
4.75722e-07
4.19687e-07
4.16881e-07
4.14175e-07
4.11557e-07
4.0871e-07
4.0489e-07
3.98398e-07
3.85994e-07
3.6696e-07
3.86744e-07
6.70373e-07
6.62525e-07
6.53783e-07
6.43532e-07
6.29953e-07
6.0898e-07
5.72928e-07
5.09351e-07
4.02379e-07
2.74684e-07
6.42412e-07
6.33349e-07
6.23936e-07
6.1233e-07
5.94748e-07
5.64118e-07
5.08234e-07
4.1076e-07
2.86549e-07
4.65403e-07
4.62421e-07
4.56916e-07
4.48536e-07
4.36812e-07
4.21058e-07
3.99253e-07
3.71302e-07
3.86885e-07
4.29541e-07
4.23974e-07
4.16983e-07
4.09014e-07
4.00705e-07
3.93021e-07
3.87495e-07
3.88777e-07
4.79993e-07
4.03752e-07
3.97255e-07
3.90626e-07
3.84544e-07
3.80106e-07
3.78456e-07
3.8248e-07
4.01253e-07
5.32985e-07
3.82619e-07
3.76307e-07
3.70699e-07
3.66783e-07
3.65308e-07
3.68078e-07
3.78311e-07
4.06771e-07
5.58964e-07
3.66827e-07
3.61392e-07
3.57148e-07
3.55055e-07
3.55783e-07
3.6152e-07
3.7533e-07
4.08594e-07
5.67716e-07
3.57208e-07
3.52909e-07
3.50044e-07
3.49118e-07
3.51318e-07
3.58537e-07
3.73708e-07
4.08017e-07
5.64864e-07
3.54554e-07
3.51347e-07
3.49477e-07
3.49191e-07
3.51872e-07
3.59088e-07
3.73509e-07
4.05597e-07
5.52652e-07
3.59651e-07
3.57241e-07
3.55895e-07
3.55752e-07
3.57949e-07
3.63563e-07
3.74531e-07
3.99485e-07
5.25201e-07
3.77645e-07
3.75445e-07
3.73495e-07
3.72124e-07
3.71461e-07
3.71843e-07
3.73548e-07
3.76912e-07
3.86934e-07
4.73805e-07
4.18092e-07
4.1559e-07
4.13157e-07
4.10767e-07
4.08099e-07
4.04411e-07
3.97996e-07
3.85598e-07
3.66408e-07
3.85417e-07
6.6346e-07
6.5613e-07
6.48018e-07
6.3843e-07
6.25494e-07
6.0512e-07
5.69632e-07
5.06682e-07
4.00516e-07
2.74045e-07
6.34133e-07
6.26009e-07
6.17451e-07
6.06671e-07
5.89836e-07
5.59727e-07
5.04096e-07
4.06828e-07
2.84497e-07
4.49654e-07
4.47259e-07
4.43039e-07
4.36711e-07
4.27733e-07
4.14994e-07
3.9578e-07
3.69763e-07
3.85522e-07
4.13627e-07
4.0959e-07
4.04546e-07
3.98942e-07
3.93315e-07
3.88364e-07
3.84998e-07
3.87894e-07
4.77353e-07
3.90226e-07
3.8561e-07
3.80916e-07
3.76887e-07
3.74496e-07
3.7487e-07
3.80594e-07
4.0041e-07
5.29678e-07
3.72007e-07
3.67537e-07
3.6364e-07
3.61355e-07
3.61318e-07
3.65573e-07
3.76943e-07
4.05975e-07
5.55401e-07
3.58984e-07
3.55094e-07
3.5229e-07
3.51248e-07
3.53092e-07
3.59803e-07
3.74326e-07
4.07795e-07
5.64266e-07
3.51767e-07
3.48641e-07
3.46806e-07
3.4662e-07
3.49579e-07
3.57406e-07
3.72983e-07
4.07267e-07
5.61765e-07
3.51015e-07
3.48612e-07
3.47369e-07
3.47608e-07
3.50772e-07
3.58354e-07
3.72971e-07
4.04863e-07
5.49922e-07
3.57553e-07
3.55667e-07
3.54704e-07
3.54898e-07
3.5736e-07
3.63147e-07
3.74158e-07
3.98834e-07
5.22948e-07
3.76139e-07
3.74272e-07
3.72618e-07
3.71488e-07
3.70993e-07
3.71516e-07
3.73292e-07
3.7663e-07
3.86371e-07
4.71969e-07
4.16695e-07
4.14445e-07
4.12244e-07
4.10049e-07
4.07541e-07
4.03972e-07
3.97628e-07
3.8524e-07
3.659e-07
3.84091e-07
6.57267e-07
6.50339e-07
6.42733e-07
6.33698e-07
6.21315e-07
6.01475e-07
5.66506e-07
5.04134e-07
3.98723e-07
2.73344e-07
6.27726e-07
6.20352e-07
6.12449e-07
6.02247e-07
5.85888e-07
5.56056e-07
5.00527e-07
4.03379e-07
2.82509e-07
4.38637e-07
4.36657e-07
4.33345e-07
4.28432e-07
4.21302e-07
4.10578e-07
3.93155e-07
3.68507e-07
3.84118e-07
4.0231e-07
3.9932e-07
3.95649e-07
3.91713e-07
3.87959e-07
3.84904e-07
3.83091e-07
3.87139e-07
4.74874e-07
3.80345e-07
3.77018e-07
3.73704e-07
3.71213e-07
3.7023e-07
3.7214e-07
3.79105e-07
3.99659e-07
5.26652e-07
3.64075e-07
3.60873e-07
3.58275e-07
3.57079e-07
3.58222e-07
3.6358e-07
3.75819e-07
4.05249e-07
5.52193e-07
3.53023e-07
3.50219e-07
3.48457e-07
3.48214e-07
3.50931e-07
3.58392e-07
3.73477e-07
4.07074e-07
5.61186e-07
3.4757e-07
3.45309e-07
3.44166e-07
3.44604e-07
3.48145e-07
3.56452e-07
3.72356e-07
4.0659e-07
5.58992e-07
3.48227e-07
3.4644e-07
3.45634e-07
3.46321e-07
3.49858e-07
3.57728e-07
3.72501e-07
4.04205e-07
5.47445e-07
3.55891e-07
3.54416e-07
3.53723e-07
3.54195e-07
3.56863e-07
3.62788e-07
3.73828e-07
3.98241e-07
5.2084e-07
3.74907e-07
3.733e-07
3.71883e-07
3.70945e-07
3.70592e-07
3.71231e-07
3.73065e-07
3.76377e-07
3.85849e-07
4.70201e-07
4.15461e-07
4.13422e-07
4.11419e-07
4.09394e-07
4.07026e-07
4.03565e-07
3.97289e-07
3.84914e-07
3.65426e-07
3.82768e-07
6.51726e-07
6.45106e-07
6.37909e-07
6.29334e-07
6.17426e-07
5.98058e-07
5.6356e-07
5.01714e-07
3.96999e-07
2.72573e-07
6.22647e-07
6.15868e-07
6.08466e-07
5.98675e-07
5.82616e-07
5.52922e-07
4.97407e-07
4.00323e-07
2.80551e-07
4.30765e-07
4.29079e-07
4.2641e-07
4.22483e-07
4.16619e-07
4.07274e-07
3.91119e-07
3.67448e-07
3.82682e-07
3.94144e-07
3.91878e-07
3.89182e-07
3.86426e-07
3.83999e-07
3.82274e-07
3.81597e-07
3.86462e-07
4.72538e-07
3.73055e-07
3.70617e-07
3.68311e-07
3.66895e-07
3.66979e-07
3.7001e-07
3.77894e-07
3.98961e-07
5.23866e-07
3.58103e-07
3.55778e-07
3.54136e-07
3.53726e-07
3.55779e-07
3.61964e-07
3.74866e-07
4.04558e-07
5.49269e-07
3.48456e-07
3.46443e-07
3.45383e-07
3.45795e-07
3.49175e-07
3.57213e-07
3.72736e-07
4.06391e-07
5.58385e-07
3.44296e-07
3.42681e-07
3.42013e-07
3.42959e-07
3.46949e-07
3.55631e-07
3.71794e-07
4.0595e-07
5.56462e-07
3.46016e-07
3.44697e-07
3.44213e-07
3.45259e-07
3.49087e-07
3.57183e-07
3.72076e-07
4.03588e-07
5.4516e-07
3.54552e-07
3.53392e-07
3.52907e-07
3.53603e-07
3.56435e-07
3.62467e-07
3.73525e-07
3.97681e-07
5.18852e-07
3.73878e-07
3.72479e-07
3.71255e-07
3.70471e-07
3.70241e-07
3.70976e-07
3.72859e-07
3.76143e-07
3.85353e-07
4.68495e-07
4.14363e-07
4.12502e-07
4.10668e-07
4.0879e-07
4.06548e-07
4.03185e-07
3.96972e-07
3.8461e-07
3.64974e-07
3.81439e-07
6.46765e-07
6.40385e-07
6.33519e-07
6.25327e-07
6.13826e-07
5.94873e-07
5.60801e-07
4.99427e-07
3.95333e-07
2.71654e-07
6.18536e-07
6.12225e-07
6.0521e-07
5.95716e-07
5.79844e-07
5.50203e-07
4.94647e-07
3.97559e-07
2.78385e-07
4.25023e-07
4.23547e-07
4.21338e-07
4.18104e-07
4.13119e-07
4.04739e-07
3.89503e-07
3.66521e-07
3.8119e-07
3.88155e-07
3.86396e-07
3.844e-07
3.82486e-07
3.8101e-07
3.80223e-07
3.80395e-07
3.8583e-07
4.70331e-07
3.67608e-07
3.65789e-07
3.64246e-07
3.63538e-07
3.64467e-07
3.68311e-07
3.7688e-07
3.98291e-07
5.21287e-07
3.53558e-07
3.51866e-07
3.50879e-07
3.51084e-07
3.53821e-07
3.6063e-07
3.74036e-07
4.03884e-07
5.46582e-07
3.44915e-07
3.43493e-07
3.42906e-07
3.43847e-07
3.47728e-07
3.56211e-07
3.72072e-07
4.05727e-07
5.55812e-07
3.41716e-07
3.40577e-07
3.40256e-07
3.41601e-07
3.45937e-07
3.54912e-07
3.71276e-07
4.05326e-07
5.5413e-07
3.44246e-07
3.43278e-07
3.43043e-07
3.44369e-07
3.48424e-07
3.56696e-07
3.7168e-07
4.02993e-07
5.43034e-07
3.53453e-07
3.52538e-07
3.52219e-07
3.53093e-07
3.56056e-07
3.62173e-07
3.73236e-07
3.97141e-07
5.1697e-07
3.73003e-07
3.71771e-07
3.70707e-07
3.70049e-07
3.69926e-07
3.70742e-07
3.72664e-07
3.75919e-07
3.84875e-07
4.66846e-07
4.13379e-07
4.11669e-07
4.09982e-07
4.08232e-07
4.06102e-07
4.02828e-07
3.96674e-07
3.84322e-07
3.64525e-07
3.80055e-07
6.42319e-07
6.36129e-07
6.29531e-07
6.2166e-07
6.10508e-07
5.91923e-07
5.58233e-07
4.97272e-07
3.93667e-07
2.70202e-07
6.15148e-07
6.09209e-07
6.02493e-07
5.93213e-07
5.77456e-07
5.47816e-07
4.92173e-07
3.94882e-07
2.74699e-07
4.20751e-07
4.19429e-07
4.1755e-07
4.14808e-07
4.10446e-07
4.02752e-07
3.88186e-07
3.65661e-07
3.79503e-07
3.83691e-07
3.82294e-07
3.808e-07
3.79501e-07
3.78698e-07
3.78601e-07
3.79399e-07
3.85224e-07
4.68228e-07
3.63483e-07
3.621e-07
3.61113e-07
3.60921e-07
3.62482e-07
3.66929e-07
3.7601e-07
3.97639e-07
5.18893e-07
3.50055e-07
3.48836e-07
3.4828e-07
3.48983e-07
3.52227e-07
3.59509e-07
3.73299e-07
4.03219e-07
5.44104e-07
3.4214e-07
3.41151e-07
3.40905e-07
3.42256e-07
3.46518e-07
3.55344e-07
3.71464e-07
4.05073e-07
5.5344e-07
3.3966e-07
3.38864e-07
3.38811e-07
3.40464e-07
3.45068e-07
3.54273e-07
3.70791e-07
4.04713e-07
5.51973e-07
3.42812e-07
3.42102e-07
3.42067e-07
3.43611e-07
3.47844e-07
3.56254e-07
3.71302e-07
4.02413e-07
5.41052e-07
3.52536e-07
3.51809e-07
3.51627e-07
3.52644e-07
3.55712e-07
3.61895e-07
3.72956e-07
3.96615e-07
5.15191e-07
3.72246e-07
3.71151e-07
3.70222e-07
3.69667e-07
3.69639e-07
3.70522e-07
3.72477e-07
3.75701e-07
3.84408e-07
4.65247e-07
4.12492e-07
4.10911e-07
4.0935e-07
4.07713e-07
4.05684e-07
4.02489e-07
3.9639e-07
3.84044e-07
3.64052e-07
3.78488e-07
6.3833e-07
6.32293e-07
6.25916e-07
6.18314e-07
6.07466e-07
5.89206e-07
5.55858e-07
4.95243e-07
3.91827e-07
2.66824e-07
6.1222e-07
6.06593e-07
6.00121e-07
5.91004e-07
5.75316e-07
5.45642e-07
4.89847e-07
3.9171e-07
2.77091e-07
4.17404e-07
4.162e-07
4.14569e-07
4.12193e-07
4.08293e-07
4.01111e-07
3.87055e-07
3.64784e-07
3.77213e-07
3.80189e-07
3.79065e-07
3.77947e-07
3.77121e-07
3.76807e-07
3.77251e-07
3.78526e-07
3.84617e-07
4.66133e-07
3.60202e-07
3.59159e-07
3.58555e-07
3.58789e-07
3.6083e-07
3.65742e-07
3.75222e-07
3.96981e-07
5.16595e-07
3.47221e-07
3.46368e-07
3.46125e-07
3.47227e-07
3.50865e-07
3.58517e-07
3.72608e-07
4.02542e-07
5.41741e-07
3.39863e-07
3.39194e-07
3.39219e-07
3.40895e-07
3.45458e-07
3.54556e-07
3.7088e-07
4.04406e-07
5.51177e-07
3.37948e-07
3.37394e-07
3.37573e-07
3.39467e-07
3.44286e-07
3.53675e-07
3.70312e-07
4.04086e-07
5.4991e-07
3.41598e-07
3.41071e-07
3.41217e-07
3.42934e-07
3.47311e-07
3.55831e-07
3.70924e-07
4.01824e-07
5.39143e-07
3.51731e-07
3.51154e-07
3.51092e-07
3.52227e-07
3.55382e-07
3.61619e-07
3.7267e-07
3.96082e-07
5.13455e-07
3.71559e-07
3.70583e-07
3.69773e-07
3.69304e-07
3.69362e-07
3.70304e-07
3.72287e-07
3.75478e-07
3.83935e-07
4.6364e-07
4.1166e-07
4.10194e-07
4.08746e-07
4.07212e-07
4.05275e-07
4.02157e-07
3.96111e-07
3.83764e-07
3.63527e-07
3.76543e-07
6.34622e-07
6.28716e-07
6.2253e-07
6.15166e-07
6.04592e-07
5.86634e-07
5.53604e-07
4.93267e-07
3.89442e-07
2.68849e-07
6.09679e-07
6.04317e-07
5.98047e-07
5.89057e-07
5.73408e-07
5.43679e-07
4.8773e-07
3.88923e-07
2.69474e-07
4.14776e-07
4.13663e-07
4.12218e-07
4.10109e-07
4.0655e-07
3.99751e-07
3.86092e-07
3.63986e-07
3.75067e-07
3.77444e-07
3.76525e-07
3.75695e-07
3.75197e-07
3.75269e-07
3.76116e-07
3.77756e-07
3.84021e-07
4.64122e-07
3.57595e-07
3.56817e-07
3.56474e-07
3.57048e-07
3.5945e-07
3.64716e-07
3.74502e-07
3.9632e-07
5.14411e-07
3.44939e-07
3.44353e-07
3.44349e-07
3.45757e-07
3.49696e-07
3.57634e-07
3.71956e-07
4.01854e-07
5.39509e-07
3.38008e-07
3.3755e-07
3.37806e-07
3.39727e-07
3.44524e-07
3.53834e-07
3.70314e-07
4.03728e-07
5.49041e-07
3.36524e-07
3.36136e-07
3.3651e-07
3.3859e-07
3.43577e-07
3.53111e-07
3.69838e-07
4.03448e-07
5.47957e-07
3.40565e-07
3.40172e-07
3.40472e-07
3.42325e-07
3.46815e-07
3.55422e-07
3.70543e-07
4.01227e-07
5.37323e-07
3.51024e-07
3.50558e-07
3.50605e-07
3.51837e-07
3.55062e-07
3.61342e-07
3.72378e-07
3.95546e-07
5.11784e-07
3.70933e-07
3.70061e-07
3.69351e-07
3.6896e-07
3.69093e-07
3.70085e-07
3.72093e-07
3.75252e-07
3.83466e-07
4.6208e-07
4.10882e-07
4.09518e-07
4.08171e-07
4.06729e-07
4.04878e-07
4.01833e-07
3.95839e-07
3.83499e-07
3.63042e-07
3.74777e-07
6.31195e-07
6.25406e-07
6.19388e-07
6.12235e-07
6.01912e-07
5.84236e-07
5.51508e-07
4.91447e-07
3.87509e-07
2.63492e-07
6.07524e-07
6.02388e-07
5.96289e-07
5.87401e-07
5.71775e-07
5.41984e-07
4.8591e-07
3.86838e-07
2.65917e-07
4.12746e-07
4.11702e-07
4.10391e-07
4.08476e-07
4.05163e-07
3.98646e-07
3.85299e-07
3.63338e-07
3.73416e-07
3.75327e-07
3.74555e-07
3.73944e-07
3.73671e-07
3.74034e-07
3.75175e-07
3.77089e-07
3.83466e-07
4.62296e-07
3.55561e-07
3.54979e-07
3.5482e-07
3.55647e-07
3.58313e-07
3.63841e-07
3.73855e-07
3.9568e-07
5.1242e-07
3.43142e-07
3.42727e-07
3.42917e-07
3.44548e-07
3.4871e-07
3.56861e-07
3.71354e-07
4.01182e-07
5.37484e-07
3.3652e-07
3.36205e-07
3.36642e-07
3.38746e-07
3.43716e-07
3.53186e-07
3.69779e-07
4.03064e-07
5.47105e-07
3.35357e-07
3.35088e-07
3.35613e-07
3.37834e-07
3.42949e-07
3.52591e-07
3.69381e-07
4.02823e-07
5.46184e-07
3.39701e-07
3.39406e-07
3.39828e-07
3.41786e-07
3.46363e-07
3.55035e-07
3.7017e-07
4.00645e-07
5.35663e-07
3.50413e-07
3.5003e-07
3.5017e-07
3.51477e-07
3.54758e-07
3.6107e-07
3.72088e-07
3.95026e-07
5.10248e-07
3.70376e-07
3.69589e-07
3.68965e-07
3.68639e-07
3.68835e-07
3.69871e-07
3.71899e-07
3.75031e-07
3.83026e-07
4.60648e-07
4.10175e-07
4.08899e-07
4.0764e-07
4.0628e-07
4.04506e-07
4.01527e-07
3.95586e-07
3.83265e-07
3.62646e-07
3.73368e-07
6.28131e-07
6.22446e-07
6.16574e-07
6.09609e-07
5.99511e-07
5.82096e-07
5.49652e-07
4.89873e-07
3.86125e-07
2.61295e-07
6.05682e-07
6.00746e-07
5.94799e-07
5.86002e-07
5.70396e-07
5.40546e-07
4.84358e-07
3.8521e-07
2.63911e-07
4.11151e-07
4.1016e-07
4.08948e-07
4.07175e-07
4.04044e-07
3.9774e-07
3.84645e-07
3.62811e-07
3.72062e-07
3.73668e-07
3.73005e-07
3.7255e-07
3.72446e-07
3.73022e-07
3.74383e-07
3.76507e-07
3.82952e-07
4.60638e-07
3.53951e-07
3.53508e-07
3.53489e-07
3.54502e-07
3.57362e-07
3.63085e-07
3.73269e-07
3.95067e-07
5.10617e-07
3.41704e-07
3.41403e-07
3.41745e-07
3.4354e-07
3.47865e-07
3.56175e-07
3.70795e-07
4.00531e-07
5.35661e-07
3.35308e-07
3.35094e-07
3.35669e-07
3.37908e-07
3.43008e-07
3.52597e-07
3.69271e-07
4.02419e-07
5.45366e-07
3.34387e-07
3.34205e-07
3.34847e-07
3.37174e-07
3.42383e-07
3.52107e-07
3.6894e-07
4.02215e-07
5.44595e-07
3.38966e-07
3.38748e-07
3.39265e-07
3.41304e-07
3.45946e-07
3.54665e-07
3.69805e-07
4.0008e-07
5.34173e-07
3.49875e-07
3.4956e-07
3.49775e-07
3.51143e-07
3.54467e-07
3.60803e-07
3.718e-07
3.94527e-07
5.08866e-07
3.69875e-07
3.6916e-07
3.68608e-07
3.68337e-07
3.68588e-07
3.6966e-07
3.71708e-07
3.74816e-07
3.82616e-07
4.59361e-07
4.09532e-07
4.08332e-07
4.07149e-07
4.05862e-07
4.04156e-07
4.0124e-07
3.95351e-07
3.8306e-07
3.62321e-07
3.72194e-07
6.25389e-07
6.198e-07
6.14061e-07
6.07266e-07
5.97378e-07
5.80208e-07
5.4804e-07
4.88543e-07
3.85093e-07
2.60121e-07
6.04099e-07
5.99345e-07
5.93542e-07
5.84837e-07
5.6926e-07
5.3936e-07
4.83063e-07
3.83874e-07
2.62405e-07
4.09878e-07
4.08929e-07
4.0779e-07
4.06125e-07
4.0313e-07
3.96991e-07
3.84103e-07
3.62371e-07
3.70862e-07
3.72348e-07
3.71768e-07
3.71418e-07
3.71449e-07
3.72181e-07
3.73707e-07
3.75993e-07
3.82475e-07
4.59137e-07
3.52662e-07
3.52309e-07
3.52402e-07
3.53552e-07
3.56554e-07
3.62422e-07
3.72734e-07
3.94483e-07
5.09001e-07
3.40535e-07
3.40314e-07
3.40771e-07
3.42686e-07
3.47133e-07
3.55561e-07
3.70272e-07
3.99907e-07
5.34043e-07
3.34305e-07
3.34166e-07
3.34845e-07
3.37185e-07
3.42381e-07
3.52058e-07
3.68789e-07
4.018e-07
5.43837e-07
3.33567e-07
3.33454e-07
3.34184e-07
3.3659e-07
3.4187e-07
3.51654e-07
3.68514e-07
4.01631e-07
5.43209e-07
3.38331e-07
3.38174e-07