/*--------------------------------*- C++ -*----------------------------------*\
| =========                 |                                                 |
| \\      /  F ield         | OpenFOAM: The Open Source CFD Toolbox           |
|  \\    /   O peration     | Version:  2.3.1                                 |
|   \\  /    A nd           | Web:      www.OpenFOAM.org                      |
|    \\/     M anipulation  |                                                 |
\*---------------------------------------------------------------------------*/
FoamFile
{
    version     2.0;
    format      ascii;
    class       volScalarField;
    location    "20";
    object      k;
}
// * * * * * * * * * * * * * * * * * * * * * * * * * * * * * * * * * * * * * //

dimensions      [0 2 -2 0 0 0 0];

internalField   nonuniform List<scalar> 
37784
(
5.70277e-06
5.34398e-06
5.16635e-06
5.03423e-06
4.90348e-06
4.72792e-06
4.43002e-06
3.88875e-06
3.19061e-06
5.45711e-06
5.14051e-06
4.91875e-06
4.7547e-06
4.6133e-06
4.47372e-06
4.29327e-06
3.99214e-06
3.42118e-06
2.89051e-06
4.53768e-06
4.31103e-06
4.11836e-06
3.9568e-06
3.81613e-06
3.68441e-06
3.53416e-06
3.30578e-06
2.91352e-06
2.7147e-06
2.75121e-06
2.6061e-06
2.4779e-06
2.36908e-06
2.27666e-06
2.19746e-06
2.12361e-06
2.04489e-06
1.97614e-06
2.24456e-06
1.02934e-05
9.87004e-06
9.68897e-06
9.58656e-06
9.45427e-06
9.18486e-06
8.62872e-06
7.44023e-06
5.01871e-06
9.75836e-06
9.4063e-06
9.15908e-06
9.01318e-06
8.88729e-06
8.73337e-06
8.45759e-06
7.8852e-06
6.64102e-06
4.21784e-06
7.95943e-06
7.75298e-06
7.58337e-06
7.45354e-06
7.33732e-06
7.207e-06
6.99716e-06
6.571e-06
5.63011e-06
3.86296e-06
4.49084e-06
4.36002e-06
4.2411e-06
4.13818e-06
4.05022e-06
3.97003e-06
3.88152e-06
3.74785e-06
3.5139e-06
3.30279e-06
1.42315e-05
1.33075e-05
1.28447e-05
1.25613e-05
1.22926e-05
1.18808e-05
1.11341e-05
9.61561e-06
6.29247e-06
1.31461e-05
1.25377e-05
1.20604e-05
1.17636e-05
1.15421e-05
1.13014e-05
1.09151e-05
1.01671e-05
8.56395e-06
5.03222e-06
1.04931e-05
1.01835e-05
9.91251e-06
9.70913e-06
9.53896e-06
9.35184e-06
9.05857e-06
8.47768e-06
7.20316e-06
4.47387e-06
5.59822e-06
5.43604e-06
5.28939e-06
5.16122e-06
5.05006e-06
4.94419e-06
4.81722e-06
4.6084e-06
4.21261e-06
3.70606e-06
1.68025e-05
1.56152e-05
1.49553e-05
1.45463e-05
1.41778e-05
1.36556e-05
1.27706e-05
1.10361e-05
7.14375e-06
1.53933e-05
1.46376e-05
1.40208e-05
1.36183e-05
1.33185e-05
1.30055e-05
1.25304e-05
1.16526e-05
9.81097e-06
5.56438e-06
1.22168e-05
1.18364e-05
1.14966e-05
1.12374e-05
1.10193e-05
1.078e-05
1.04134e-05
9.70965e-06
8.19479e-06
4.83294e-06
6.35569e-06
6.1691e-06
5.99915e-06
5.84901e-06
5.71624e-06
5.58489e-06
5.41924e-06
5.13907e-06
4.60282e-06
3.87903e-06
1.85425e-05
1.72476e-05
1.64787e-05
1.59846e-05
1.55335e-05
1.4918e-05
1.39197e-05
1.20105e-05
7.70007e-06
1.69263e-05
1.61041e-05
1.5418e-05
1.49511e-05
1.4594e-05
1.42209e-05
1.36708e-05
1.26874e-05
1.06609e-05
5.91626e-06
1.34093e-05
1.29935e-05
1.26176e-05
1.23231e-05
1.20694e-05
1.17869e-05
1.13576e-05
1.05521e-05
8.85109e-06
5.05304e-06
6.86845e-06
6.67036e-06
6.48742e-06
6.32382e-06
6.17584e-06
6.02408e-06
5.82523e-06
5.48443e-06
4.83671e-06
3.95907e-06
1.96948e-05
1.84026e-05
1.75937e-05
1.70433e-05
1.6526e-05
1.58318e-05
1.47336e-05
1.267e-05
8.03276e-06
1.79424e-05
1.71151e-05
1.64146e-05
1.59175e-05
1.55222e-05
1.51015e-05
1.4488e-05
1.34146e-05
1.12377e-05
6.14336e-06
1.42106e-05
1.37907e-05
1.34064e-05
1.30956e-05
1.28185e-05
1.25021e-05
1.20204e-05
1.11306e-05
9.28389e-06
5.18964e-06
7.20631e-06
7.00815e-06
6.82176e-06
6.65224e-06
6.49492e-06
6.32784e-06
6.10199e-06
5.71236e-06
4.98069e-06
4.0004e-06
2.04203e-05
1.92004e-05
1.83968e-05
1.7815e-05
1.72476e-05
1.64871e-05
1.52983e-05
1.30887e-05
8.17858e-06
1.8572e-05
1.77834e-05
1.71079e-05
1.66076e-05
1.6191e-05
1.57342e-05
1.50678e-05
1.39164e-05
1.16143e-05
6.27809e-06
1.47165e-05
1.43163e-05
1.3945e-05
1.36335e-05
1.33444e-05
1.3003e-05
1.24786e-05
1.15194e-05
9.55988e-06
5.27224e-06
7.41423e-06
7.22454e-06
7.04213e-06
6.87293e-06
6.71148e-06
6.53388e-06
6.28713e-06
5.85983e-06
5.068e-06
4.02412e-06
2.08328e-05
1.97242e-05
1.89552e-05
1.83625e-05
1.77597e-05
1.69442e-05
1.56714e-05
1.33164e-05
8.15462e-06
1.89135e-05
1.81927e-05
1.75677e-05
1.70837e-05
1.66597e-05
1.61775e-05
1.54676e-05
1.42483e-05
1.18403e-05
6.34092e-06
1.50021e-05
1.46375e-05
1.42936e-05
1.39933e-05
1.37012e-05
1.33429e-05
1.27845e-05
1.17692e-05
9.72341e-06
5.31818e-06
7.52515e-06
7.34969e-06
7.17668e-06
7.0127e-06
6.8514e-06
6.66753e-06
6.40544e-06
5.95033e-06
5.11773e-06
4.03856e-06
2.10167e-05
2.00371e-05
1.93208e-05
1.87333e-05
1.81082e-05
1.72482e-05
1.58972e-05
1.33919e-05
7.98403e-06
1.90456e-05
1.84089e-05
1.78486e-05
1.73938e-05
1.69732e-05
1.64748e-05
1.57299e-05
1.44519e-05
1.19528e-05
6.34491e-06
1.5128e-05
1.48075e-05
1.44991e-05
1.42179e-05
1.39298e-05
1.35614e-05
1.2977e-05
1.19169e-05
9.80624e-06
5.33856e-06
7.56565e-06
7.40725e-06
7.24737e-06
7.092e-06
6.93413e-06
6.74754e-06
6.47495e-06
6.00037e-06
5.142e-06
4.04735e-06
2.1037e-05
2.01896e-05
1.95364e-05
1.89661e-05
1.833e-05
1.74357e-05
1.60133e-05
1.33566e-05
7.60856e-06
1.90322e-05
1.8485e-05
1.79948e-05
1.7577e-05
1.71676e-05
1.66607e-05
1.58887e-05
1.45607e-05
1.19825e-05
6.30663e-06
1.51428e-05
1.48692e-05
1.45994e-05
1.43416e-05
1.40625e-05
1.36894e-05
1.30859e-05
1.19911e-05
9.83223e-06
5.34117e-06
7.55678e-06
7.41625e-06
7.27153e-06
7.12707e-06
6.97494e-06
6.78843e-06
6.50936e-06
6.02209e-06
5.14875e-06
4.05226e-06
5.48465e-05
6.3668e-05
6.45923e-05
6.14669e-05
4.65198e-05
1.9535e-05
7.8431e-06
5.66967e-06
4.3793e-06
8.65332e-05
9.47438e-05
7.47427e-05
4.13359e-05
2.50216e-05
1.63745e-05
1.23311e-05
9.58994e-06
5.4254e-06
4.09666e-05
3.48304e-05
2.94741e-05
2.3471e-05
2.07001e-05
1.83489e-05
1.5638e-05
1.23499e-05
6.42134e-06
2.76726e-05
2.53102e-05
2.38486e-05
2.26373e-05
2.1397e-05
1.95758e-05
1.70019e-05
1.368e-05
7.06056e-06
2.65546e-05
2.44724e-05
2.32787e-05
2.2359e-05
2.12427e-05
1.96368e-05
1.75043e-05
1.45319e-05
2.58745e-05
2.39791e-05
2.27802e-05
2.18337e-05
2.07893e-05
1.94169e-05
1.75848e-05
1.47854e-05
2.46641e-05
2.3113e-05
2.20303e-05
2.11569e-05
2.02349e-05
1.90394e-05
1.73685e-05
1.45958e-05
2.29732e-05
2.18514e-05
2.10084e-05
2.02882e-05
1.95065e-05
1.845e-05
1.68777e-05
1.40775e-05
2.09476e-05
2.02244e-05
1.96385e-05
1.90938e-05
1.84559e-05
1.75369e-05
1.60522e-05
1.32565e-05
7.0791e-06
1.8924e-05
1.84649e-05
1.80433e-05
1.76655e-05
1.72724e-05
1.67633e-05
1.59715e-05
1.46024e-05
1.19603e-05
6.22969e-06
1.50864e-05
1.48572e-05
1.46249e-05
1.43921e-05
1.41251e-05
1.37517e-05
1.3135e-05
1.20144e-05
9.82195e-06
5.33345e-06
7.51814e-06
7.39443e-06
7.26349e-06
7.13027e-06
6.98565e-06
6.80145e-06
6.51907e-06
6.02424e-06
5.14434e-06
4.05434e-06
3.08662e-05
3.88359e-05
4.03587e-05
3.51481e-05
2.14151e-05
9.82071e-06
6.62318e-06
5.52113e-06
4.3406e-06
3.86478e-05
3.95465e-05
3.01246e-05
2.19456e-05
1.72602e-05
1.40436e-05
1.18093e-05
9.46389e-06
5.3975e-06
2.69167e-05
2.45288e-05
2.24465e-05
2.08155e-05
1.94973e-05
1.77466e-05
1.52815e-05
1.21968e-05
6.36436e-06
2.58081e-05
2.41106e-05
2.30168e-05
2.21058e-05
2.09592e-05
1.91644e-05
1.67563e-05
1.35031e-05
6.90978e-06
2.58349e-05
2.41449e-05
2.3062e-05
2.21346e-05
2.09955e-05
1.94271e-05
1.73333e-05
1.42086e-05
7.65948e-06
2.53165e-05
2.37732e-05
2.26934e-05
2.17638e-05
2.07164e-05
1.93416e-05
1.74698e-05
1.44148e-05
8.02169e-06
2.4217e-05
2.29472e-05
2.19877e-05
2.11545e-05
2.02427e-05
1.90391e-05
1.72996e-05
1.4263e-05
7.90018e-06
2.26745e-05
2.17487e-05
2.10037e-05
2.03263e-05
1.95558e-05
1.84884e-05
1.6857e-05
1.38434e-05
7.4718e-06
2.07827e-05
2.0179e-05
1.96581e-05
1.91438e-05
1.85113e-05
1.75763e-05
1.60418e-05
1.31509e-05
6.80566e-06
1.87576e-05
1.8382e-05
1.80248e-05
1.76861e-05
1.73122e-05
1.68057e-05
1.60005e-05
1.45997e-05
1.19077e-05
6.17197e-06
1.49853e-05
1.47987e-05
1.46013e-05
1.43916e-05
1.41382e-05
1.37677e-05
1.31429e-05
1.20051e-05
9.79047e-06
5.32115e-06
7.45918e-06
7.35171e-06
7.23614e-06
7.1142e-06
6.97649e-06
6.79559e-06
6.51265e-06
6.0153e-06
5.13291e-06
4.0545e-06
1.64632e-05
2.0238e-05
2.04532e-05
1.63286e-05
1.04353e-05
7.26614e-06
6.31119e-06
5.4259e-06
4.30486e-06
2.01264e-05
1.9653e-05
1.77948e-05
1.60619e-05
1.45953e-05
1.31601e-05
1.15208e-05
9.38727e-06
5.36667e-06
2.31279e-05
2.16355e-05
2.06017e-05
1.98171e-05
1.88187e-05
1.71699e-05
1.49769e-05
1.20532e-05
6.29876e-06
2.46945e-05
2.33677e-05
2.24454e-05
2.15865e-05
2.04297e-05
1.8738e-05
1.65109e-05
1.33243e-05
6.80335e-06
2.50829e-05
2.37112e-05
2.27259e-05
2.18114e-05
2.06953e-05
1.91913e-05
1.7153e-05
1.39646e-05
7.22075e-06
2.46866e-05
2.34292e-05
2.24689e-05
2.15847e-05
2.0566e-05
1.92259e-05
1.73406e-05
1.41652e-05
7.39859e-06
2.37241e-05
2.26899e-05
2.18549e-05
2.10803e-05
2.01942e-05
1.89936e-05
1.72079e-05
1.40554e-05
7.32593e-06
2.23368e-05
2.15781e-05
2.09325e-05
2.03021e-05
1.95496e-05
1.84807e-05
1.6803e-05
1.37079e-05
7.09627e-06
2.05785e-05
2.00789e-05
1.9623e-05
1.91395e-05
1.85169e-05
1.75731e-05
1.60029e-05
1.30431e-05
6.66121e-06
1.85647e-05
1.82613e-05
1.79628e-05
1.76618e-05
1.73072e-05
1.68064e-05
1.59939e-05
1.45726e-05
1.18453e-05
6.13273e-06
1.48624e-05
1.47116e-05
1.45457e-05
1.43599e-05
1.41197e-05
1.37541e-05
1.31259e-05
1.19776e-05
9.74867e-06
5.30864e-06
7.39132e-06
7.29747e-06
7.19481e-06
7.08397e-06
6.95479e-06
6.77867e-06
6.49669e-06
5.99854e-06
5.11718e-06
4.05347e-06
9.73296e-06
1.08693e-05
1.06788e-05
9.10167e-06
7.50994e-06
6.72259e-06
6.17817e-06
5.35011e-06
4.2717e-06
1.64157e-05
1.56025e-05
1.49542e-05
1.43861e-05
1.37194e-05
1.27317e-05
1.13688e-05
9.34341e-06
5.33575e-06
2.1661e-05
2.06225e-05
1.98823e-05
1.91748e-05
1.81786e-05
1.66916e-05
1.47344e-05
1.19236e-05
6.23827e-06
2.3739e-05
2.26796e-05
2.18527e-05
2.10119e-05
1.99015e-05
1.83555e-05
1.62906e-05
1.31633e-05
6.71983e-06
2.42974e-05
2.31915e-05
2.23111e-05
2.14428e-05
2.03827e-05
1.89608e-05
1.69833e-05
1.37738e-05
7.00799e-06
2.40298e-05
2.30137e-05
2.21731e-05
2.13548e-05
2.039e-05
1.90971e-05
1.72124e-05
1.39763e-05
7.1121e-06
2.32215e-05
2.2387e-05
2.16674e-05
2.09557e-05
2.01037e-05
1.89178e-05
1.71107e-05
1.38941e-05
7.06042e-06
2.19903e-05
2.1374e-05
2.08165e-05
2.02365e-05
1.9509e-05
1.84438e-05
1.67337e-05
1.35876e-05
6.90366e-06
2.03599e-05
1.99494e-05
1.9551e-05
1.91011e-05
1.84916e-05
1.75448e-05
1.59487e-05
1.29463e-05
6.58383e-06
1.83664e-05
1.81237e-05
1.78747e-05
1.7608e-05
1.72745e-05
1.67817e-05
1.59662e-05
1.45303e-05
1.17845e-05
6.1038e-06
1.47331e-05
1.46118e-05
1.44724e-05
1.43067e-05
1.40807e-05
1.37219e-05
1.3093e-05
1.19395e-05
9.7058e-06
5.2962e-06
7.32097e-06
7.23857e-06
7.14726e-06
7.04629e-06
6.9247e-06
6.7536e-06
6.4741e-06
5.978e-06
5.10021e-06
4.05138e-06
7.73336e-06
7.89761e-06
7.74552e-06
7.31402e-06
6.90229e-06
6.55661e-06
6.08841e-06
5.287e-06
4.24106e-06
1.54725e-05
1.47503e-05
1.42611e-05
1.38569e-05
1.3331e-05
1.2511e-05
1.12989e-05
9.31643e-06
5.31026e-06
2.06547e-05
1.98809e-05
1.92457e-05
1.85642e-05
1.76359e-05
1.63258e-05
1.45488e-05
1.18117e-05
6.18686e-06
2.28286e-05
2.19812e-05
2.12455e-05
2.04575e-05
1.94366e-05
1.80383e-05
1.61051e-05
1.30252e-05
6.65455e-06
2.35192e-05
2.26371e-05
2.18696e-05
2.10727e-05
2.00881e-05
1.8753e-05
1.68329e-05
1.36205e-05
6.89568e-06
2.33909e-05
2.25786e-05
2.18568e-05
2.11164e-05
2.02134e-05
1.89671e-05
1.70932e-05
1.38262e-05
6.97469e-06
2.27401e-05
2.20718e-05
2.14565e-05
2.0807e-05
1.99938e-05
1.88315e-05
1.70162e-05
1.37618e-05
6.9339e-06
2.16575e-05
2.11599e-05
2.06801e-05
2.01475e-05
1.94455e-05
1.8388e-05
1.66605e-05
1.34795e-05
6.80641e-06
2.01448e-05
1.98083e-05
1.94599e-05
1.90403e-05
1.84456e-05
1.75002e-05
1.589e-05
1.2863e-05
6.53726e-06
1.81765e-05
1.79831e-05
1.77752e-05
1.75381e-05
1.72235e-05
1.67402e-05
1.59256e-05
1.44833e-05
1.17296e-05
6.08045e-06
1.46072e-05
1.45094e-05
1.43918e-05
1.42438e-05
1.40306e-05
1.36791e-05
1.30526e-05
1.18985e-05
9.66555e-06
5.28398e-06
7.25232e-06
7.17924e-06
7.09754e-06
7.00529e-06
6.89081e-06
6.72491e-06
6.44877e-06
5.95595e-06
5.08298e-06
4.0483e-06
7.24169e-06
7.18935e-06
7.08473e-06
6.9246e-06
6.73038e-06
6.46304e-06
6.01937e-06
5.23175e-06
4.21472e-06
1.49513e-05
1.43945e-05
1.39756e-05
1.36036e-05
1.31288e-05
1.24067e-05
1.12755e-05
9.29921e-06
5.28985e-06
1.9801e-05
1.92097e-05
1.86607e-05
1.8041e-05
1.72149e-05
1.60586e-05
1.44102e-05
1.17176e-05
6.14517e-06
2.19873e-05
2.13168e-05
2.06818e-05
1.99742e-05
1.90569e-05
1.77871e-05
1.5955e-05
1.291e-05
6.60366e-06
2.27966e-05
2.21008e-05
2.14464e-05
2.07329e-05
1.98295e-05
1.85746e-05
1.67049e-05
1.3497e-05
6.82745e-06
2.28067e-05
2.21643e-05
2.15538e-05
2.089e-05
2.00463e-05
1.88451e-05
1.69879e-05
1.37069e-05
6.89874e-06
2.23014e-05
2.17677e-05
2.12427e-05
2.06532e-05
1.98813e-05
1.87447e-05
1.69304e-05
1.36557e-05
6.8646e-06
2.13535e-05
2.09522e-05
2.05392e-05
2.00494e-05
1.93724e-05
1.83257e-05
1.6591e-05
1.33902e-05
6.75079e-06
1.99442e-05
1.96677e-05
1.93617e-05
1.89697e-05
1.83903e-05
1.74498e-05
1.58333e-05
1.27946e-05
6.50436e-06
1.80029e-05
1.78484e-05
1.76738e-05
1.74619e-05
1.71646e-05
1.66913e-05
1.58803e-05
1.44369e-05
1.16823e-05
6.06024e-06
1.44904e-05
1.44107e-05
1.43108e-05
1.41778e-05
1.39762e-05
1.36324e-05
1.30099e-05
1.18582e-05
9.62946e-06
5.27191e-06
7.1877e-06
7.12205e-06
7.04833e-06
6.9636e-06
6.8556e-06
6.6948e-06
6.42244e-06
5.93358e-06
5.06598e-06
4.04433e-06
7.06246e-06
6.98525e-06
6.89967e-06
6.7917e-06
6.64001e-06
6.3963e-06
5.96419e-06
5.18308e-06
4.19146e-06
1.45581e-05
1.41417e-05
1.37929e-05
1.34578e-05
1.30277e-05
1.23671e-05
1.12752e-05
9.2878e-06
5.27418e-06
1.90828e-05
1.86299e-05
1.81696e-05
1.763e-05
1.69058e-05
1.58684e-05
1.43086e-05
1.16407e-05
6.11221e-06
2.12573e-05
2.07335e-05
2.01998e-05
1.958e-05
1.876e-05
1.75938e-05
1.5837e-05
1.28162e-05
6.56306e-06
2.21645e-05
2.16202e-05
2.10706e-05
2.04397e-05
1.96124e-05
1.84264e-05
1.65994e-05
1.33987e-05
6.77928e-06
2.2299e-05
2.17933e-05
2.12791e-05
2.06851e-05
1.98962e-05
1.87364e-05
1.68981e-05
1.36136e-05
6.8485e-06
2.19171e-05
2.14909e-05
2.1043e-05
2.05079e-05
1.97748e-05
1.86636e-05
1.6856e-05
1.3573e-05
6.81899e-06
2.10862e-05
2.07614e-05
2.04034e-05
1.99511e-05
1.92976e-05
1.82637e-05
1.65289e-05
1.33201e-05
6.7127e-06
1.97643e-05
1.95352e-05
1.92644e-05
1.88967e-05
1.83324e-05
1.73987e-05
1.57816e-05
1.27401e-05
6.47817e-06
1.78492e-05
1.77245e-05
1.75764e-05
1.73855e-05
1.71038e-05
1.66404e-05
1.58348e-05
1.43936e-05
1.16427e-05
6.04192e-06
1.43852e-05
1.43194e-05
1.42335e-05
1.41131e-05
1.39217e-05
1.35854e-05
1.2968e-05
1.18205e-05
9.59791e-06
5.2599e-06
7.12821e-06
7.06838e-06
7.0012e-06
6.92288e-06
6.82063e-06
6.66466e-06
6.39621e-06
5.91152e-06
5.0494e-06
4.03952e-06
6.95429e-06
6.88202e-06
6.80673e-06
6.7143e-06
6.57784e-06
6.34543e-06
5.91913e-06
5.14037e-06
4.16998e-06
1.4264e-05
1.39536e-05
1.36701e-05
1.33763e-05
1.29842e-05
1.2361e-05
1.12871e-05
9.28082e-06
5.2613e-06
1.8511e-05
1.81647e-05
1.77867e-05
1.73244e-05
1.66855e-05
1.57349e-05
1.42352e-05
1.15796e-05
6.08499e-06
2.06591e-05
2.02529e-05
1.98104e-05
1.92714e-05
1.85339e-05
1.74475e-05
1.57459e-05
1.27417e-05
6.52907e-06
2.16379e-05
2.12131e-05
2.07539e-05
2.01966e-05
1.94354e-05
1.83062e-05
1.65143e-05
1.33217e-05
6.74116e-06
2.1874e-05
2.14749e-05
2.10405e-05
2.05071e-05
1.97663e-05
1.8643e-05
1.68239e-05
1.35416e-05
6.8103e-06
2.15925e-05
2.12502e-05
2.08657e-05
2.03776e-05
1.9679e-05
1.85915e-05
1.67937e-05
1.35098e-05
6.78444e-06
2.08577e-05
2.05919e-05
2.02784e-05
1.98581e-05
1.92264e-05
1.82061e-05
1.64756e-05
1.32661e-05
6.68307e-06
1.96072e-05
1.9415e-05
1.91728e-05
1.88263e-05
1.82761e-05
1.73504e-05
1.57364e-05
1.26973e-05
6.45578e-06
1.77159e-05
1.76138e-05
1.74865e-05
1.73129e-05
1.70447e-05
1.6591e-05
1.57917e-05
1.43549e-05
1.16099e-05
6.02485e-06
1.42925e-05
1.42371e-05
1.41621e-05
1.4052e-05
1.38697e-05
1.35406e-05
1.29287e-05
1.17863e-05
9.57072e-06
5.2479e-06
7.07417e-06
7.01886e-06
6.95698e-06
6.88406e-06
6.78685e-06
6.63531e-06
6.37069e-06
5.8901e-06
5.03331e-06
4.03395e-06
6.8761e-06
6.81126e-06
6.74358e-06
6.65967e-06
6.53152e-06
6.30522e-06
5.88151e-06
5.10305e-06
4.14946e-06
1.40542e-05
1.38209e-05
1.35916e-05
1.33347e-05
1.29721e-05
1.23709e-05
1.13054e-05
9.27773e-06
5.24917e-06
1.80767e-05
1.78105e-05
1.75013e-05
1.71038e-05
1.6531e-05
1.56424e-05
1.41829e-05
1.15324e-05
6.0609e-06
2.01894e-05
1.98734e-05
1.95066e-05
1.90356e-05
1.83642e-05
1.73381e-05
1.56767e-05
1.26838e-05
6.49924e-06
2.1215e-05
2.08813e-05
2.04957e-05
2.00003e-05
1.92939e-05
1.82102e-05
1.64469e-05
1.32621e-05
6.7088e-06
2.15281e-05
2.12101e-05
2.08397e-05
2.03569e-05
1.96569e-05
1.85649e-05
1.67638e-05
1.34866e-05
6.77866e-06
2.13252e-05
2.1047e-05
2.07131e-05
2.02643e-05
1.95956e-05
1.85293e-05
1.67426e-05
1.3462e-05
6.75592e-06
2.0666e-05
2.04451e-05
2.01671e-05
1.97737e-05
1.91617e-05
1.81547e-05
1.6431e-05
1.32251e-05
6.65816e-06
1.94724e-05
1.93085e-05
1.90895e-05
1.8761e-05
1.82236e-05
1.73065e-05
1.56977e-05
1.26639e-05
6.43575e-06
1.7602e-05
1.75166e-05
1.74055e-05
1.7246e-05
1.69896e-05
1.65449e-05
1.57523e-05
1.4321e-05
1.1583e-05
6.00865e-06
1.42118e-05
1.4164e-05
1.40976e-05
1.3996e-05
1.38214e-05
1.3499e-05
1.28928e-05
1.17558e-05
9.54748e-06
5.23588e-06
7.02544e-06
6.97361e-06
6.91601e-06
6.84761e-06
6.75477e-06
6.60723e-06
6.34622e-06
5.86949e-06
5.01775e-06
4.02769e-06
6.81687e-06
6.7585e-06
6.69674e-06
6.61853e-06
6.49546e-06
6.27241e-06
5.8495e-06
5.07039e-06
4.1296e-06
1.39088e-05
1.37309e-05
1.35437e-05
1.33167e-05
1.29754e-05
1.23899e-05
1.13252e-05
9.27808e-06
5.23683e-06
1.77561e-05
1.75488e-05
1.72934e-05
1.69467e-05
1.64235e-05
1.55786e-05
1.41462e-05
1.1497e-05
6.03863e-06
1.98304e-05
1.95817e-05
1.92745e-05
1.88579e-05
1.82378e-05
1.72566e-05
1.56246e-05
1.26395e-05
6.47231e-06
2.08834e-05
2.06176e-05
2.02899e-05
1.98445e-05
1.9182e-05
1.81345e-05
1.63942e-05
1.32166e-05
6.68023e-06
2.1252e-05
2.09945e-05
2.06742e-05
2.02326e-05
1.95664e-05
1.85006e-05
1.67158e-05
1.3445e-05
6.75115e-06
2.11088e-05
2.08787e-05
2.05847e-05
2.01681e-05
1.95246e-05
1.8477e-05
1.67014e-05
1.34262e-05
6.73116e-06
2.05071e-05
2.03201e-05
2.00701e-05
1.96993e-05
1.91045e-05
1.811e-05
1.63941e-05
1.31941e-05
6.63619e-06
1.93581e-05
1.92158e-05
1.90155e-05
1.87021e-05
1.81763e-05
1.72677e-05
1.56651e-05
1.26379e-05
6.41732e-06
1.75053e-05
1.74323e-05
1.73337e-05
1.71858e-05
1.69394e-05
1.6503e-05
1.57172e-05
1.42917e-05
1.15613e-05
5.9931e-06
1.4142e-05
1.40998e-05
1.40401e-05
1.39454e-05
1.37775e-05
1.34612e-05
1.28604e-05
1.17289e-05
9.52778e-06
5.22385e-06
6.98164e-06
6.93249e-06
6.87834e-06
6.81372e-06
6.72463e-06
6.58065e-06
6.32296e-06
5.84978e-06
5.00275e-06
4.02081e-06
6.77085e-06
6.7177e-06
6.66049e-06
6.58628e-06
6.46642e-06
6.24493e-06
5.82184e-06
5.04166e-06
4.11031e-06
1.38092e-05
1.36711e-05
1.35158e-05
1.3312e-05
1.29874e-05
1.24108e-05
1.13449e-05
9.28107e-06
5.2241e-06
1.75228e-05
1.73582e-05
1.71436e-05
1.68355e-05
1.63489e-05
1.5535e-05
1.41209e-05
1.14713e-05
6.01769e-06
1.956e-05
1.93605e-05
1.9099e-05
1.87246e-05
1.81439e-05
1.71961e-05
1.55857e-05
1.26062e-05
6.44761e-06
2.0627e-05
2.0411e-05
2.01277e-05
1.97219e-05
1.90942e-05
1.80751e-05
1.63532e-05
1.31823e-05
6.65447e-06
2.10341e-05
2.08213e-05
2.05396e-05
2.01311e-05
1.94925e-05
1.84485e-05
1.66777e-05
1.34138e-05
6.72654e-06
2.09351e-05
2.07408e-05
2.04779e-05
2.00874e-05
1.9465e-05
1.84336e-05
1.66685e-05
1.33997e-05
6.70898e-06
2.03764e-05
2.02147e-05
1.99869e-05
1.96346e-05
1.90548e-05
1.80718e-05
1.63639e-05
1.31709e-05
6.61624e-06
1.92617e-05
1.91359e-05
1.89506e-05
1.86498e-05
1.81343e-05
1.7234e-05
1.56379e-05
1.2618e-05
6.40005e-06
1.74234e-05
1.73596e-05
1.72707e-05
1.71323e-05
1.68944e-05
1.64655e-05
1.56862e-05
1.42666e-05
1.15438e-05
5.97811e-06
1.40818e-05
1.40437e-05
1.39891e-05
1.39002e-05
1.37379e-05
1.34271e-05
1.28316e-05
1.17052e-05
9.5112e-06
5.21184e-06
6.94233e-06
6.89525e-06
6.84387e-06
6.78238e-06
6.69652e-06
6.55569e-06
6.30101e-06
5.83103e-06
4.98831e-06
4.01324e-06
6.73426e-06
6.68527e-06
6.63157e-06
6.5602e-06
6.4423e-06
6.22143e-06
5.79759e-06
5.01615e-06
4.09127e-06
1.37411e-05
1.36318e-05
1.35005e-05
1.33144e-05
1.30024e-05
1.24317e-05
1.13638e-05
9.28627e-06
5.21106e-06
1.73534e-05
1.72198e-05
1.70358e-05
1.67568e-05
1.62972e-05
1.55053e-05
1.41038e-05
1.14533e-05
5.99793e-06
1.93574e-05
1.91937e-05
1.89665e-05
1.86247e-05
1.8074e-05
1.71512e-05
1.55568e-05
1.25819e-05
6.42483e-06
2.04299e-05
2.02502e-05
2.00008e-05
1.96259e-05
1.90255e-05
1.80288e-05
1.63217e-05
1.31569e-05
6.63093e-06
2.08629e-05
2.06829e-05
2.0431e-05
2.00487e-05
1.94324e-05
1.84064e-05
1.66478e-05
1.33907e-05
6.70412e-06
2.07961e-05
2.06285e-05
2.03898e-05
2.00202e-05
1.94153e-05
1.83978e-05
1.66425e-05
1.33804e-05
6.6887e-06
2.02688e-05
2.01263e-05
1.99162e-05
1.95792e-05
1.90121e-05
1.80394e-05
1.63394e-05
1.31537e-05
6.5978e-06
1.91805e-05
1.90674e-05
1.8894e-05
1.86038e-05
1.80975e-05
1.72049e-05
1.56153e-05
1.26029e-05
6.38374e-06
1.7354e-05
1.7297e-05
1.72157e-05
1.7085e-05
1.68545e-05
1.64324e-05
1.56592e-05
1.42453e-05
1.15299e-05
5.96363e-06
1.40298e-05
1.39947e-05
1.39442e-05
1.38599e-05
1.37026e-05
1.33967e-05
1.2806e-05
1.16846e-05
9.49737e-06
5.19976e-06
6.90705e-06
6.86156e-06
6.81242e-06
6.75355e-06
6.67045e-06
6.53238e-06
6.28041e-06
5.81328e-06
4.97434e-06
4.00421e-06
6.70456e-06
6.65886e-06
6.60787e-06
6.53855e-06
6.42183e-06
6.201e-06
5.77611e-06
4.99301e-06
4.07017e-06
1.36943e-05
1.36061e-05
1.34929e-05
1.33208e-05
1.3018e-05
1.24514e-05
1.13815e-05
9.29304e-06
5.19749e-06
1.723e-05
1.71191e-05
1.69578e-05
1.67008e-05
1.62612e-05
1.54853e-05
1.40927e-05
1.14414e-05
5.97922e-06
1.92052e-05
1.90676e-05
1.88664e-05
1.85496e-05
1.80216e-05
1.71177e-05
1.55356e-05
1.25647e-05
6.40371e-06
2.02782e-05
2.01251e-05
1.99014e-05
1.95505e-05
1.89716e-05
1.79926e-05
1.62975e-05
1.31386e-05
6.60927e-06
2.07283e-05
2.05724e-05
2.03434e-05
1.99819e-05
1.93838e-05
1.83726e-05
1.66245e-05
1.33742e-05
6.68349e-06
2.06847e-05
2.0537e-05
2.03171e-05
1.99644e-05
1.93742e-05
1.83686e-05
1.6622e-05
1.33668e-05
6.66999e-06
2.01803e-05
2.00523e-05
1.98561e-05
1.95318e-05
1.89758e-05
1.80123e-05
1.63196e-05
1.31415e-05
6.58062e-06
1.91119e-05
1.90086e-05
1.88449e-05
1.85637e-05
1.80655e-05
1.718e-05
1.55967e-05
1.25918e-05
6.36828e-06
1.7295e-05
1.72431e-05
1.71677e-05
1.70434e-05
1.68192e-05
1.64032e-05
1.56357e-05
1.42272e-05
1.15193e-05
5.94962e-06
1.39849e-05
1.3952e-05
1.39047e-05
1.38242e-05
1.36711e-05
1.33696e-05
1.27834e-05
1.16666e-05
9.48588e-06
5.18716e-06
6.87535e-06
6.83111e-06
6.78379e-06
6.72711e-06
6.64639e-06
6.51075e-06
6.26121e-06
5.79654e-06
4.96035e-06
3.98993e-06
6.68005e-06
6.63697e-06
6.58807e-06
6.52021e-06
6.40417e-06
6.18303e-06
5.75682e-06
4.97056e-06
4.03415e-06
1.36619e-05
1.35893e-05
1.34897e-05
1.33285e-05
1.30328e-05
1.24694e-05
1.13977e-05
9.30074e-06
5.18215e-06
1.71394e-05
1.70451e-05
1.69011e-05
1.66607e-05
1.62361e-05
1.54721e-05
1.4086e-05
1.14345e-05
5.96136e-06
1.90903e-05
1.89718e-05
1.87903e-05
1.84926e-05
1.79822e-05
1.70929e-05
1.55203e-05
1.25533e-05
6.38408e-06
2.01609e-05
2.00273e-05
1.98233e-05
1.94912e-05
1.89293e-05
1.79645e-05
1.62793e-05
1.31261e-05
6.58927e-06
2.06219e-05
2.0484e-05
2.02728e-05
1.99277e-05
1.93444e-05
1.83455e-05
1.66065e-05
1.33631e-05
6.66445e-06
2.05948e-05
2.04622e-05
2.02571e-05
1.99181e-05
1.93401e-05
1.83447e-05
1.6606e-05
1.3358e-05
6.65265e-06
2.0107e-05
1.99903e-05
1.98052e-05
1.94913e-05
1.89448e-05
1.79895e-05
1.63038e-05
1.31333e-05
6.56459e-06
1.90538e-05
1.89581e-05
1.88023e-05
1.85288e-05
1.80378e-05
1.71588e-05
1.55815e-05
1.25842e-05
6.35365e-06
1.72446e-05
1.71965e-05
1.71259e-05
1.70069e-05
1.67882e-05
1.63776e-05
1.56153e-05
1.42121e-05
1.15114e-05
5.93602e-06
1.3946e-05
1.39147e-05
1.38698e-05
1.37925e-05
1.36431e-05
1.33456e-05
1.27635e-05
1.1651e-05
9.47631e-06
5.17289e-06
6.84685e-06
6.80361e-06
6.75778e-06
6.70294e-06
6.62427e-06
6.4908e-06
6.24343e-06
5.78075e-06
4.94487e-06
3.9566e-06
6.65882e-06
6.61794e-06
6.57075e-06
6.504e-06
6.38833e-06
6.16665e-06
5.73865e-06
4.94389e-06
3.92497e-06
1.36385e-05
1.3578e-05
1.34893e-05
1.33367e-05
1.3047e-05
1.24863e-05
1.14132e-05
9.30908e-06
5.16126e-06
1.70696e-05
1.69883e-05
1.68579e-05
1.66308e-05
1.6218e-05
1.54633e-05
1.40825e-05
1.14315e-05
5.94356e-06
1.89995e-05
1.88958e-05
1.87299e-05
1.84476e-05
1.79513e-05
1.70738e-05
1.55093e-05
1.25465e-05
6.3652e-06
2.00661e-05
1.99477e-05
1.97595e-05
1.94426e-05
1.88947e-05
1.79418e-05
1.62653e-05
1.31183e-05
6.57016e-06
2.05342e-05
2.04103e-05
2.02134e-05
1.9882e-05
1.93112e-05
1.83231e-05
1.65924e-05
1.33561e-05
6.64626e-06
2.05191e-05
2.03985e-05
2.02056e-05
1.98782e-05
1.93108e-05
1.83247e-05
1.65935e-05
1.33529e-05
6.63606e-06
2.00439e-05
1.99362e-05
1.97604e-05
1.94556e-05
1.89175e-05
1.79699e-05
1.62909e-05
1.31284e-05
6.54913e-06
1.90025e-05
1.89132e-05
1.87641e-05
1.84974e-05
1.8013e-05
1.71402e-05
1.55688e-05
1.25793e-05
6.33937e-06
1.71997e-05
1.71547e-05
1.70881e-05
1.69737e-05
1.67598e-05
1.63543e-05
1.55972e-05
1.41991e-05
1.15057e-05
5.92233e-06
1.39109e-05
1.38809e-05
1.38381e-05
1.37635e-05
1.36173e-05
1.33235e-05
1.27454e-05
1.16372e-05
9.46804e-06
5.15515e-06
6.8203e-06
6.77792e-06
6.73338e-06
6.68015e-06
6.60335e-06
6.47188e-06
6.22653e-06
5.76536e-06
4.92477e-06
3.84667e-06
6.64037e-06
6.60137e-06
6.5556e-06
6.4897e-06
6.37419e-06
6.15184e-06
5.7221e-06
4.92039e-06
3.85268e-06
1.36216e-05
1.35706e-05
1.34905e-05
1.3345e-05
1.30603e-05
1.2502e-05
1.1428e-05
9.31872e-06
5.14166e-06
1.70162e-05
1.6945e-05
1.68252e-05
1.66085e-05
1.62053e-05
1.5458e-05
1.40817e-05
1.14323e-05
5.92644e-06
1.89281e-05
1.88359e-05
1.86822e-05
1.84121e-05
1.79273e-05
1.70594e-05
1.55019e-05
1.2544e-05
6.34723e-06
1.999e-05
1.98834e-05
1.97076e-05
1.9403e-05
1.88668e-05
1.79239e-05
1.62551e-05
1.31147e-05
6.5521e-06
2.04623e-05
2.03493e-05
2.01639e-05
1.98439e-05
1.92837e-05
1.83049e-05
1.65818e-05
1.33531e-05
6.62906e-06
2.04558e-05
2.03447e-05
2.01617e-05
1.98441e-05
1.92859e-05
1.8308e-05
1.6584e-05
1.33513e-05
6.62033e-06
1.99897e-05
1.98893e-05
1.97213e-05
1.94243e-05
1.88938e-05
1.79532e-05
1.62808e-05
1.31266e-05
6.53437e-06
1.89575e-05
1.88734e-05
1.873e-05
1.84693e-05
1.79909e-05
1.71241e-05
1.55586e-05
1.25773e-05
6.3256e-06
1.716e-05
1.71175e-05
1.70542e-05
1.69437e-05
1.67343e-05
1.63335e-05
1.55812e-05
1.41883e-05
1.15025e-05
5.90903e-06
1.38795e-05
1.38504e-05
1.38093e-05
1.37372e-05
1.35939e-05
1.33036e-05
1.27293e-05
1.16252e-05
9.46188e-06
5.13901e-06
6.79572e-06
6.7541e-06
6.71069e-06
6.65891e-06
6.58381e-06
6.45422e-06
6.2108e-06
5.75116e-06
4.90846e-06
3.79539e-06
6.62471e-06
6.5873e-06
6.54274e-06
6.47752e-06
6.36207e-06
6.13904e-06
5.70784e-06
4.90278e-06
3.81868e-06
1.36095e-05
1.35659e-05
1.34925e-05
1.33526e-05
1.30721e-05
1.25161e-05
1.1442e-05
9.32985e-06
5.12655e-06
1.69759e-05
1.69124e-05
1.68008e-05
1.65923e-05
1.61965e-05
1.54554e-05
1.4083e-05
1.14362e-05
5.91087e-06
1.8873e-05
1.87894e-05
1.86453e-05
1.83848e-05
1.79091e-05
1.70492e-05
1.54977e-05
1.25453e-05
6.33084e-06
1.99301e-05
1.98324e-05
1.96663e-05
1.93716e-05
1.88447e-05
1.79103e-05
1.62484e-05
1.3115e-05
6.53568e-06
2.04045e-05
2.03e-05
2.01236e-05
1.98128e-05
1.92614e-05
1.82906e-05
1.65746e-05
1.33537e-05
6.61346e-06
2.04039e-05
2.03002e-05
2.01252e-05
1.98157e-05
1.92653e-05
1.82948e-05
1.65774e-05
1.33529e-05
6.60603e-06
1.99444e-05
1.98497e-05
1.9688e-05
1.93976e-05
1.88737e-05
1.79396e-05
1.62734e-05
1.31277e-05
6.5209e-06
1.89191e-05
1.88391e-05
1.87005e-05
1.8445e-05
1.79721e-05
1.71107e-05
1.55508e-05
1.25778e-05
6.31293e-06
1.71258e-05
1.70852e-05
1.70246e-05
1.69174e-05
1.67119e-05
1.63154e-05
1.55678e-05
1.41799e-05
1.15016e-05
5.89681e-06
1.38523e-05
1.38239e-05
1.37841e-05
1.37139e-05
1.35733e-05
1.32861e-05
1.27155e-05
1.16154e-05
9.45824e-06
5.12612e-06
6.77371e-06
6.73277e-06
6.69035e-06
6.63984e-06
6.56628e-06
6.43844e-06
6.19685e-06
5.73887e-06
4.89676e-06
3.77426e-06
6.6113e-06
6.57532e-06
6.53183e-06
6.46723e-06
6.35183e-06
6.12817e-06
5.69568e-06
4.88901e-06
3.79944e-06
1.36005e-05
1.35626e-05
1.34946e-05
1.33594e-05
1.30825e-05
1.25288e-05
1.14551e-05
9.34216e-06
5.11414e-06
1.69449e-05
1.68874e-05
1.67823e-05
1.65803e-05
1.61906e-05
1.54546e-05
1.40861e-05
1.14427e-05
5.89673e-06
1.88298e-05
1.87529e-05
1.86163e-05
1.83635e-05
1.78952e-05
1.7042e-05
1.54961e-05
1.25495e-05
6.31597e-06
1.98823e-05
1.97915e-05
1.96331e-05
1.93463e-05
1.88273e-05
1.79e-05
1.62445e-05
1.31183e-05
6.52088e-06
2.03574e-05
2.02596e-05
2.00905e-05
1.97872e-05
1.92433e-05
1.82796e-05
1.65701e-05
1.33572e-05
6.59943e-06
2.03609e-05
2.02631e-05
2.00946e-05
1.97919e-05
1.92483e-05
1.82843e-05
1.65733e-05
1.3357e-05
6.59321e-06
1.9906e-05
1.98159e-05
1.96595e-05
1.93748e-05
1.88568e-05
1.79285e-05
1.62684e-05
1.31312e-05
6.5088e-06
1.8886e-05
1.88095e-05
1.86749e-05
1.84239e-05
1.79559e-05
1.70997e-05
1.55453e-05
1.25805e-05
6.30151e-06
1.70962e-05
1.70571e-05
1.69988e-05
1.68944e-05
1.66923e-05
1.62998e-05
1.55565e-05
1.41735e-05
1.15029e-05
5.88581e-06
1.38285e-05
1.38006e-05
1.3762e-05
1.36935e-05
1.35552e-05
1.32709e-05
1.27037e-05
1.16077e-05
9.45682e-06
5.11536e-06
6.75397e-06
6.71366e-06
6.67215e-06
6.62282e-06
6.55069e-06
6.42451e-06
6.18472e-06
5.72847e-06
4.88803e-06
3.76294e-06
6.59977e-06
6.56509e-06
6.52261e-06
6.45865e-06
6.34339e-06
6.1192e-06
5.68551e-06
4.87769e-06
3.78496e-06
1.35936e-05
1.35602e-05
1.34966e-05
1.33653e-05
1.30916e-05
1.25402e-05
1.14676e-05
9.3552e-06
5.10314e-06
1.69206e-05
1.68678e-05
1.67679e-05
1.65713e-05
1.61867e-05
1.54552e-05
1.40903e-05
1.14512e-05
5.8839e-06
1.87953e-05
1.87238e-05
1.85931e-05
1.83465e-05
1.78845e-05
1.70371e-05
1.54964e-05
1.25562e-05
6.30262e-06
1.98435e-05
1.97582e-05
1.9606e-05
1.93258e-05
1.88134e-05
1.78925e-05
1.62429e-05
1.31242e-05
6.50774e-06
2.03187e-05
2.02261e-05
2.00629e-05
1.9766e-05
1.92286e-05
1.82712e-05
1.65678e-05
1.33631e-05
6.58708e-06
2.03248e-05
2.02318e-05
2.00686e-05
1.97717e-05
1.92342e-05
1.82762e-05
1.65713e-05
1.33635e-05
6.58201e-06
1.98732e-05
1.9787e-05
1.9635e-05
1.93552e-05
1.88425e-05
1.79197e-05