/*--------------------------------*- C++ -*----------------------------------*\
| =========                 |                                                 |
| \\      /  F ield         | OpenFOAM: The Open Source CFD Toolbox           |
|  \\    /   O peration     | Version:  2.3.1                                 |
|   \\  /    A nd           | Web:      www.OpenFOAM.org                      |
|    \\/     M anipulation  |                                                 |
\*---------------------------------------------------------------------------*/
FoamFile
{
    version     2.0;
    format      ascii;
    class       volScalarField;
    location    "20";
    object      k_0;
}
// * * * * * * * * * * * * * * * * * * * * * * * * * * * * * * * * * * * * * //

dimensions      [0 2 -2 0 0 0 0];

internalField   nonuniform List<scalar> 
37784
(
5.70288e-06
5.34417e-06
5.16652e-06
5.03437e-06
4.90361e-06
4.72807e-06
4.43016e-06
3.88887e-06
3.19071e-06
5.45722e-06
5.14063e-06
4.91888e-06
4.75483e-06
4.61342e-06
4.47386e-06
4.29343e-06
3.99232e-06
3.42137e-06
2.89072e-06
4.53776e-06
4.31111e-06
4.11844e-06
3.95688e-06
3.81622e-06
3.68453e-06
3.53431e-06
3.30596e-06
2.91372e-06
2.71495e-06
2.75127e-06
2.60616e-06
2.47796e-06
2.36915e-06
2.27675e-06
2.19756e-06
2.12373e-06
2.04503e-06
1.97631e-06
2.24482e-06
1.02941e-05
9.87071e-06
9.68963e-06
9.58719e-06
9.45488e-06
9.18549e-06
8.62935e-06
7.44084e-06
5.01892e-06
9.75894e-06
9.40684e-06
9.15963e-06
9.01374e-06
8.88785e-06
8.73394e-06
8.45818e-06
7.88582e-06
6.64166e-06
4.21819e-06
7.95992e-06
7.75345e-06
7.58384e-06
7.45401e-06
7.33779e-06
7.20748e-06
6.99766e-06
6.57154e-06
5.63067e-06
3.86336e-06
4.49111e-06
4.36029e-06
4.24137e-06
4.13845e-06
4.05049e-06
3.97032e-06
3.88183e-06
3.74819e-06
3.51427e-06
3.30319e-06
1.42322e-05
1.33082e-05
1.28455e-05
1.2562e-05
1.22933e-05
1.18815e-05
1.11348e-05
9.61635e-06
6.29267e-06
1.31468e-05
1.25384e-05
1.20611e-05
1.17643e-05
1.15428e-05
1.13021e-05
1.09158e-05
1.01678e-05
8.56471e-06
5.03259e-06
1.04937e-05
1.01841e-05
9.9131e-06
9.70971e-06
9.53954e-06
9.35242e-06
9.05918e-06
8.47831e-06
7.20383e-06
4.4743e-06
5.59853e-06
5.43634e-06
5.2897e-06
5.16153e-06
5.05037e-06
4.94451e-06
4.81756e-06
4.60877e-06
4.21302e-06
3.70648e-06
1.68032e-05
1.5616e-05
1.49561e-05
1.45471e-05
1.41785e-05
1.36563e-05
1.27714e-05
1.10369e-05
7.14393e-06
1.53941e-05
1.46383e-05
1.40215e-05
1.3619e-05
1.33192e-05
1.30062e-05
1.25312e-05
1.16534e-05
9.81177e-06
5.56474e-06
1.22175e-05
1.1837e-05
1.14972e-05
1.1238e-05
1.102e-05
1.07807e-05
1.0414e-05
9.71032e-06
8.1955e-06
4.83337e-06
6.35599e-06
6.16941e-06
5.99946e-06
5.84932e-06
5.71655e-06
5.58521e-06
5.41958e-06
5.13945e-06
4.60324e-06
3.87945e-06
1.85432e-05
1.72484e-05
1.64795e-05
1.59854e-05
1.55342e-05
1.49188e-05
1.39205e-05
1.20113e-05
7.70025e-06
1.69271e-05
1.61048e-05
1.54187e-05
1.49518e-05
1.45947e-05
1.42216e-05
1.36716e-05
1.26882e-05
1.06618e-05
5.91661e-06
1.341e-05
1.29941e-05
1.26182e-05
1.23237e-05
1.207e-05
1.17875e-05
1.13582e-05
1.05528e-05
8.85182e-06
5.05347e-06
6.86874e-06
6.67065e-06
6.48771e-06
6.32411e-06
6.17614e-06
6.02439e-06
5.82557e-06
5.4848e-06
4.83713e-06
3.95949e-06
1.96955e-05
1.84034e-05
1.75945e-05
1.7044e-05
1.65267e-05
1.58325e-05
1.47344e-05
1.26708e-05
8.03294e-06
1.79431e-05
1.71158e-05
1.64152e-05
1.59182e-05
1.55229e-05
1.51022e-05
1.44888e-05
1.34154e-05
1.12385e-05
6.1437e-06
1.42113e-05
1.37913e-05
1.3407e-05
1.30962e-05
1.28191e-05
1.25027e-05
1.2021e-05
1.11313e-05
9.28462e-06
5.19006e-06
7.20659e-06
7.00843e-06
6.82204e-06
6.65252e-06
6.49521e-06
6.32815e-06
6.10232e-06
5.71273e-06
4.98111e-06
4.00081e-06
2.0421e-05
1.92011e-05
1.83976e-05
1.78157e-05
1.72482e-05
1.64878e-05
1.5299e-05
1.30895e-05
8.17877e-06
1.85727e-05
1.77841e-05
1.71086e-05
1.66082e-05
1.61917e-05
1.57349e-05
1.50686e-05
1.39171e-05
1.16151e-05
6.27843e-06
1.47171e-05
1.43169e-05
1.39456e-05
1.36341e-05
1.33449e-05
1.30036e-05
1.24792e-05
1.15201e-05
9.5606e-06
5.27266e-06
7.41451e-06
7.22482e-06
7.0424e-06
6.8732e-06
6.71176e-06
6.53417e-06
6.28745e-06
5.8602e-06
5.06842e-06
4.02452e-06
2.08334e-05
1.97249e-05
1.89559e-05
1.83631e-05
1.77603e-05
1.69448e-05
1.56721e-05
1.33172e-05
8.15483e-06
1.89142e-05
1.81933e-05
1.75684e-05
1.70843e-05
1.66604e-05
1.61782e-05
1.54683e-05
1.4249e-05
1.18411e-05
6.34126e-06
1.50027e-05
1.46381e-05
1.42941e-05
1.39939e-05
1.37018e-05
1.33434e-05
1.27852e-05
1.17698e-05
9.72413e-06
5.3186e-06
7.52542e-06
7.34995e-06
7.17694e-06
7.01296e-06
6.85167e-06
6.66782e-06
6.40576e-06
5.9507e-06
5.11813e-06
4.03897e-06
2.10173e-05
2.00377e-05
1.93214e-05
1.87339e-05
1.81088e-05
1.72489e-05
1.5898e-05
1.33928e-05
7.98427e-06
1.90462e-05
1.84094e-05
1.78492e-05
1.73945e-05
1.69738e-05
1.64754e-05
1.57306e-05
1.44526e-05
1.19536e-05
6.34527e-06
1.51286e-05
1.48081e-05
1.44997e-05
1.42184e-05
1.39304e-05
1.35619e-05
1.29776e-05
1.19175e-05
9.80696e-06
5.33897e-06
7.56592e-06
7.40751e-06
7.24763e-06
7.09225e-06
6.93439e-06
6.74782e-06
6.47527e-06
6.00073e-06
5.1424e-06
4.04775e-06
2.10376e-05
2.01902e-05
1.9537e-05
1.89667e-05
1.83307e-05
1.74363e-05
1.6014e-05
1.33575e-05
7.60882e-06
1.90328e-05
1.84856e-05
1.79954e-05
1.75776e-05
1.71682e-05
1.66613e-05
1.58894e-05
1.45614e-05
1.19833e-05
6.307e-06
1.51433e-05
1.48697e-05
1.46e-05
1.43421e-05
1.40631e-05
1.369e-05
1.30865e-05
1.19918e-05
9.83295e-06
5.34158e-06
7.55706e-06
7.41652e-06
7.27179e-06
7.12733e-06
6.9752e-06
6.78872e-06
6.50968e-06
6.02245e-06
5.14916e-06
4.05266e-06
5.48537e-05
6.36641e-05
6.45811e-05
6.14411e-05
4.6447e-05
1.94806e-05
7.83417e-06
5.66908e-06
4.37938e-06
8.65299e-05
9.47046e-05
7.46385e-05
4.12668e-05
2.49909e-05
1.63622e-05
1.23289e-05
9.59027e-06
5.42589e-06
4.09486e-05
3.48158e-05
2.94546e-05
2.34622e-05
2.06967e-05
1.83472e-05
1.5637e-05
1.23502e-05
6.42176e-06
2.76706e-05
2.53095e-05
2.38476e-05
2.26367e-05
2.13962e-05
1.95745e-05
1.70012e-05
1.36804e-05
7.06097e-06
2.65547e-05
2.44729e-05
2.32791e-05
2.2359e-05
2.12422e-05
1.96362e-05
1.75042e-05
1.45323e-05
2.5875e-05
2.39798e-05
2.27807e-05
2.18339e-05
2.07893e-05
1.94168e-05
1.75851e-05
1.4786e-05
2.46647e-05
2.31136e-05
2.20308e-05
2.11573e-05
2.02352e-05
1.90398e-05
1.7369e-05
1.45966e-05
2.29737e-05
2.1852e-05
2.1009e-05
2.02887e-05
1.9507e-05
1.84506e-05
1.68784e-05
1.40784e-05
2.09482e-05
2.02249e-05
1.9639e-05
1.90943e-05
1.84565e-05
1.75376e-05
1.60529e-05
1.32573e-05
7.07943e-06
1.89245e-05
1.84655e-05
1.80439e-05
1.76661e-05
1.7273e-05
1.6764e-05
1.59722e-05
1.46032e-05
1.19611e-05
6.23009e-06
1.5087e-05
1.48577e-05
1.46254e-05
1.43926e-05
1.41256e-05
1.37523e-05
1.31356e-05
1.2015e-05
9.82268e-06
5.33387e-06
7.51842e-06
7.3947e-06
7.26375e-06
7.13053e-06
6.98591e-06
6.80174e-06
6.51939e-06
6.02461e-06
5.14475e-06
4.05475e-06
3.08682e-05
3.88283e-05
4.03383e-05
3.51083e-05
2.13693e-05
9.80418e-06
6.62144e-06
5.52106e-06
4.34074e-06
3.86356e-05
3.95132e-05
3.00894e-05
2.19275e-05
1.72501e-05
1.40403e-05
1.18087e-05
9.46456e-06
5.39799e-06
2.6912e-05
2.45248e-05
2.24427e-05
2.08137e-05
1.94964e-05
1.77452e-05
1.5281e-05
1.21973e-05
6.36477e-06
2.58079e-05
2.41107e-05
2.30168e-05
2.21057e-05
2.09584e-05
1.91633e-05
1.6756e-05
1.35035e-05
6.91016e-06
2.58352e-05
2.41454e-05
2.30623e-05
2.21345e-05
2.09951e-05
1.94267e-05
1.73333e-05
1.42092e-05
7.65971e-06
2.53169e-05
2.37737e-05
2.26937e-05
2.17639e-05
2.07164e-05
1.93417e-05
1.74703e-05
1.44156e-05
8.02188e-06
2.42175e-05
2.29476e-05
2.19881e-05
2.11548e-05
2.0243e-05
1.90395e-05
1.73002e-05
1.42638e-05
7.90043e-06
2.2675e-05
2.17492e-05
2.10042e-05
2.03267e-05
1.95563e-05
1.8489e-05
1.68577e-05
1.38443e-05
7.47214e-06
2.07832e-05
2.01795e-05
1.96586e-05
1.91443e-05
1.85119e-05
1.7577e-05
1.60426e-05
1.31517e-05
6.80602e-06
1.87582e-05
1.83826e-05
1.80254e-05
1.76867e-05
1.73128e-05
1.68064e-05
1.60012e-05
1.46004e-05
1.19085e-05
6.17238e-06
1.49858e-05
1.47993e-05
1.46018e-05
1.43921e-05
1.41387e-05
1.37683e-05
1.31435e-05
1.20058e-05
9.79121e-06
5.32158e-06
7.45947e-06
7.35198e-06
7.23641e-06
7.11446e-06
6.97676e-06
6.79589e-06
6.51298e-06
6.01567e-06
5.13332e-06
4.05491e-06
1.64617e-05
2.02302e-05
2.0436e-05
1.63063e-05
1.04208e-05
7.26296e-06
6.31097e-06
5.426e-06
4.30506e-06
2.01235e-05
1.9646e-05
1.77883e-05
1.60575e-05
1.45931e-05
1.31592e-05
1.1521e-05
9.38813e-06
5.36716e-06
2.31272e-05
2.16351e-05
2.06015e-05
1.98173e-05
1.8818e-05
1.7169e-05
1.49768e-05
1.20538e-05
6.29916e-06
2.46948e-05
2.33681e-05
2.24456e-05
2.15863e-05
2.0429e-05
1.87373e-05
1.65108e-05
1.33249e-05
6.80371e-06
2.50833e-05
2.37116e-05
2.27261e-05
2.18113e-05
2.0695e-05
1.91911e-05
1.71533e-05
1.39653e-05
7.22103e-06
2.4687e-05
2.34296e-05
2.24692e-05
2.15848e-05
2.0566e-05
1.92261e-05
1.73411e-05
1.4166e-05
7.39884e-06
2.37245e-05
2.26903e-05
2.18553e-05
2.10806e-05
2.01945e-05
1.8994e-05
1.72086e-05
1.40562e-05
7.32622e-06
2.23372e-05
2.15786e-05
2.09329e-05
2.03026e-05
1.95502e-05
1.84813e-05
1.68037e-05
1.37087e-05
7.09661e-06
2.0579e-05
2.00795e-05
1.96236e-05
1.91401e-05
1.85175e-05
1.75738e-05
1.60037e-05
1.30439e-05
6.66161e-06
1.85653e-05
1.82619e-05
1.79634e-05
1.76624e-05
1.73079e-05
1.6807e-05
1.59946e-05
1.45734e-05
1.18461e-05
6.13316e-06
1.4863e-05
1.47121e-05
1.45463e-05
1.43604e-05
1.41203e-05
1.37547e-05
1.31266e-05
1.19783e-05
9.74943e-06
5.30907e-06
7.39162e-06
7.29775e-06
7.19508e-06
7.08424e-06
6.95507e-06
6.77897e-06
6.49703e-06
5.99892e-06
5.1176e-06
4.05388e-06
9.73204e-06
1.08658e-05
1.0672e-05
9.09518e-06
7.50713e-06
6.72222e-06
6.17827e-06
5.35031e-06
4.27194e-06
1.64152e-05
1.56019e-05
1.49536e-05
1.43857e-05
1.37192e-05
1.27317e-05
1.13694e-05
9.34437e-06
5.33622e-06
2.16611e-05
2.06228e-05
1.98826e-05
1.91747e-05
1.8178e-05
1.66911e-05
1.47346e-05
1.19244e-05
6.23867e-06
2.37393e-05
2.26799e-05
2.18527e-05
2.10116e-05
1.99009e-05
1.83551e-05
1.62908e-05
1.3164e-05
6.72019e-06
2.42977e-05
2.31918e-05
2.23112e-05
2.14427e-05
2.03826e-05
1.89608e-05
1.69837e-05
1.37746e-05
7.00832e-06
2.40301e-05
2.3014e-05
2.21733e-05
2.1355e-05
2.03902e-05
1.90974e-05
1.7213e-05
1.39771e-05
7.11242e-06
2.32219e-05
2.23874e-05
2.16677e-05
2.09561e-05
2.01041e-05
1.89183e-05
1.71113e-05
1.3895e-05
7.06076e-06
2.19907e-05
2.13745e-05
2.08169e-05
2.0237e-05
1.95095e-05
1.84444e-05
1.67344e-05
1.35885e-05
6.90404e-06
2.03605e-05
1.995e-05
1.95516e-05
1.91017e-05
1.84923e-05
1.75455e-05
1.59495e-05
1.29472e-05
6.58425e-06
1.8367e-05
1.81243e-05
1.78753e-05
1.76086e-05
1.72751e-05
1.67824e-05
1.5967e-05
1.45311e-05
1.17853e-05
6.10424e-06
1.47337e-05
1.46123e-05
1.44729e-05
1.43073e-05
1.40813e-05
1.37225e-05
1.30937e-05
1.19402e-05
9.70657e-06
5.29664e-06
7.32128e-06
7.23886e-06
7.14754e-06
7.04657e-06
6.92499e-06
6.75391e-06
6.47445e-06
5.97839e-06
5.10063e-06
4.05179e-06
7.73335e-06
7.89689e-06
7.74412e-06
7.31296e-06
6.90202e-06
6.55672e-06
6.08864e-06
5.28727e-06
4.24132e-06
1.54726e-05
1.47506e-05
1.42615e-05
1.38573e-05
1.33313e-05
1.25114e-05
1.12998e-05
9.31743e-06
5.31072e-06
2.06549e-05
1.98812e-05
1.92459e-05
1.85641e-05
1.76356e-05
1.63257e-05
1.45492e-05
1.18125e-05
6.18727e-06
2.28288e-05
2.19814e-05
2.12455e-05
2.04573e-05
1.94364e-05
1.80383e-05
1.61055e-05
1.3026e-05
6.65493e-06
2.35195e-05
2.26373e-05
2.18697e-05
2.10727e-05
2.00882e-05
1.87533e-05
1.68334e-05
1.36213e-05
6.89604e-06
2.33912e-05
2.25789e-05
2.18571e-05
2.11167e-05
2.02136e-05
1.89675e-05
1.70939e-05
1.3827e-05
6.97505e-06
2.27405e-05
2.20722e-05
2.14569e-05
2.08074e-05
1.99943e-05
1.8832e-05
1.70169e-05
1.37627e-05
6.93427e-06
2.1658e-05
2.11603e-05
2.06806e-05
2.0148e-05
1.94461e-05
1.83887e-05
1.66613e-05
1.34804e-05
6.80681e-06
2.01453e-05
1.98088e-05
1.94605e-05
1.90409e-05
1.84463e-05
1.7501e-05
1.58909e-05
1.28639e-05
6.53769e-06
1.81771e-05
1.79837e-05
1.77758e-05
1.75388e-05
1.72242e-05
1.67409e-05
1.59263e-05
1.44842e-05
1.17305e-05
6.0809e-06
1.46078e-05
1.451e-05
1.43924e-05
1.42444e-05
1.40312e-05
1.36798e-05
1.30533e-05
1.18992e-05
9.66632e-06
5.28443e-06
7.25263e-06
7.17954e-06
7.09784e-06
7.00558e-06
6.89111e-06
6.72524e-06
6.44912e-06
5.95635e-06
5.08342e-06
4.04871e-06
7.24191e-06
7.18944e-06
7.08471e-06
6.92464e-06
6.73055e-06
6.46328e-06
6.01966e-06
5.23206e-06
4.21501e-06
1.49514e-05
1.43949e-05
1.39761e-05
1.36041e-05
1.31294e-05
1.24074e-05
1.12764e-05
9.30023e-06
5.29031e-06
1.98012e-05
1.92099e-05
1.86609e-05
1.8041e-05
1.72149e-05
1.60588e-05
1.44108e-05
1.17185e-05
6.14559e-06
2.19876e-05
2.1317e-05
2.06818e-05
1.99741e-05
1.90569e-05
1.77873e-05
1.59556e-05
1.29108e-05
6.60405e-06
2.27969e-05
2.2101e-05
2.14465e-05
2.0733e-05
1.98297e-05
1.8575e-05
1.67056e-05
1.34978e-05
6.82783e-06
2.2807e-05
2.21646e-05
2.1554e-05
2.08902e-05
2.00467e-05
1.88456e-05
1.69886e-05
1.37077e-05
6.89913e-06
2.23018e-05
2.17681e-05
2.12431e-05
2.06536e-05
1.98818e-05
1.87453e-05
1.69311e-05
1.36566e-05
6.86501e-06
2.13539e-05
2.09527e-05
2.05397e-05
2.005e-05
1.9373e-05
1.83264e-05
1.65918e-05
1.33911e-05
6.75121e-06
1.99447e-05
1.96682e-05
1.93623e-05
1.89703e-05
1.8391e-05
1.74506e-05
1.58341e-05
1.27955e-05
6.50481e-06
1.80035e-05
1.7849e-05
1.76744e-05
1.74625e-05
1.71653e-05
1.6692e-05
1.5881e-05
1.44377e-05
1.16832e-05
6.0607e-06
1.4491e-05
1.44113e-05
1.43114e-05
1.41784e-05
1.39768e-05
1.3633e-05
1.30106e-05
1.1859e-05
9.63025e-06
5.27236e-06
7.18802e-06
7.12236e-06
7.04863e-06
6.9639e-06
6.85591e-06
6.69514e-06
6.42281e-06
5.93399e-06
5.06642e-06
4.04474e-06
7.06273e-06
6.9855e-06
6.89991e-06
6.79194e-06
6.64028e-06
6.39661e-06
5.96454e-06
5.18344e-06
4.19177e-06
1.45583e-05
1.41421e-05
1.37934e-05
1.34583e-05
1.30284e-05
1.23678e-05
1.12762e-05
9.28881e-06
5.27464e-06
1.9083e-05
1.86301e-05
1.81698e-05
1.76302e-05
1.69061e-05
1.58688e-05
1.43093e-05
1.16416e-05
6.11264e-06
2.12576e-05
2.07337e-05
2.02e-05
1.95801e-05
1.87602e-05
1.75942e-05
1.58377e-05
1.28171e-05
6.56348e-06
2.21648e-05
2.16204e-05
2.10709e-05
2.044e-05
1.96128e-05
1.84269e-05
1.66001e-05
1.33996e-05
6.77968e-06
2.22994e-05
2.17936e-05
2.12794e-05
2.06855e-05
1.98967e-05
1.8737e-05
1.68989e-05
1.36145e-05
6.84891e-06
2.19176e-05
2.14913e-05
2.10435e-05
2.05084e-05
1.97754e-05
1.86643e-05
1.68568e-05
1.35739e-05
6.81941e-06
2.10867e-05
2.07619e-05
2.04039e-05
1.99516e-05
1.92983e-05
1.82645e-05
1.65298e-05
1.3321e-05
6.71314e-06
1.97649e-05
1.95358e-05
1.9265e-05
1.88974e-05
1.83331e-05
1.73995e-05
1.57825e-05
1.2741e-05
6.47863e-06
1.78498e-05
1.77251e-05
1.75771e-05
1.73861e-05
1.71045e-05
1.66412e-05
1.58356e-05
1.43945e-05
1.16436e-05
6.04239e-06
1.43858e-05
1.43201e-05
1.42341e-05
1.41137e-05
1.39223e-05
1.35861e-05
1.29687e-05
1.18213e-05
9.59871e-06
5.26036e-06
7.12854e-06
7.0687e-06
7.00151e-06
6.92319e-06
6.82095e-06
6.665e-06
6.39659e-06
5.91193e-06
5.04984e-06
4.03994e-06
6.95458e-06
6.88232e-06
6.80702e-06
6.7146e-06
6.57816e-06
6.34578e-06
5.91951e-06
5.14075e-06
4.17031e-06
1.42644e-05
1.3954e-05
1.36706e-05
1.33769e-05
1.29849e-05
1.23619e-05
1.12881e-05
9.28182e-06
5.26176e-06
1.85114e-05
1.8165e-05
1.7787e-05
1.73248e-05
1.6686e-05
1.57356e-05
1.4236e-05
1.15805e-05
6.08543e-06
2.06595e-05
2.02532e-05
1.98107e-05
1.92717e-05
1.85343e-05
1.74481e-05
1.57467e-05
1.27427e-05
6.5295e-06
2.16383e-05
2.12134e-05
2.07542e-05
2.0197e-05
1.94359e-05
1.83068e-05
1.65151e-05
1.33226e-05
6.74158e-06
2.18744e-05
2.14753e-05
2.10409e-05
2.05075e-05
1.97668e-05
1.86437e-05
1.68247e-05
1.35425e-05
6.81072e-06
2.15929e-05
2.12506e-05
2.08661e-05
2.03781e-05
1.96796e-05
1.85922e-05
1.67945e-05
1.35107e-05
6.78487e-06
2.08582e-05
2.05925e-05
2.0279e-05
1.98588e-05
1.92271e-05
1.82069e-05
1.64765e-05
1.32671e-05
6.68351e-06
1.96078e-05
1.94156e-05
1.91734e-05
1.88269e-05
1.82768e-05
1.73512e-05
1.57373e-05
1.26982e-05
6.45624e-06
1.77166e-05
1.76144e-05
1.74871e-05
1.73135e-05
1.70454e-05
1.65917e-05
1.57925e-05
1.43558e-05
1.16108e-05
6.02532e-06
1.42931e-05
1.42377e-05
1.41628e-05
1.40527e-05
1.38703e-05
1.35413e-05
1.29295e-05
1.17871e-05
9.57152e-06
5.24836e-06
7.0745e-06
7.01918e-06
6.9573e-06
6.88438e-06
6.78718e-06
6.63566e-06
6.37108e-06
5.89052e-06
5.03376e-06
4.03437e-06
6.8764e-06
6.81157e-06
6.7439e-06
6.66e-06
6.53187e-06
6.3056e-06
5.88192e-06
5.10345e-06
4.14981e-06
1.40547e-05
1.38214e-05
1.35922e-05
1.33353e-05
1.29729e-05
1.23718e-05
1.13064e-05
9.27872e-06
5.24964e-06
1.80771e-05
1.78109e-05
1.75017e-05
1.71042e-05
1.65316e-05
1.56431e-05
1.41838e-05
1.15333e-05
6.06136e-06
2.01898e-05
1.98738e-05
1.9507e-05
1.90361e-05
1.83647e-05
1.73387e-05
1.56775e-05
1.26847e-05
6.49969e-06
2.12154e-05
2.08817e-05
2.04961e-05
2.00008e-05
1.92944e-05
1.82109e-05
1.64477e-05
1.32631e-05
6.70924e-06
2.15286e-05
2.12106e-05
2.08401e-05
2.03574e-05
1.96575e-05
1.85656e-05
1.67647e-05
1.34876e-05
6.77909e-06
2.13257e-05
2.10475e-05
2.07136e-05
2.02649e-05
1.95963e-05
1.85301e-05
1.67435e-05
1.34629e-05
6.75636e-06
2.06666e-05
2.04457e-05
2.01677e-05
1.97744e-05
1.91624e-05
1.81555e-05
1.64318e-05
1.32261e-05
6.65861e-06
1.94731e-05
1.93091e-05
1.90902e-05
1.87617e-05
1.82244e-05
1.73074e-05
1.56986e-05
1.26648e-05
6.43622e-06
1.76027e-05
1.75173e-05
1.74062e-05
1.72467e-05
1.69903e-05
1.65457e-05
1.57532e-05
1.43219e-05
1.15839e-05
6.00912e-06
1.42124e-05
1.41646e-05
1.40983e-05
1.39967e-05
1.38221e-05
1.34997e-05
1.28935e-05
1.17566e-05
9.54829e-06
5.23634e-06
7.02577e-06
6.97394e-06
6.91634e-06
6.84794e-06
6.75511e-06
6.60759e-06
6.34661e-06
5.86991e-06
5.0182e-06
4.02812e-06
6.81719e-06
6.75882e-06
6.69707e-06
6.61888e-06
6.49583e-06
6.27281e-06
5.84993e-06
5.07081e-06
4.12996e-06
1.39093e-05
1.37315e-05
1.35443e-05
1.33173e-05
1.29762e-05
1.23908e-05
1.13261e-05
9.27906e-06
5.23729e-06
1.77566e-05
1.75493e-05
1.7294e-05
1.69473e-05
1.64241e-05
1.55794e-05
1.41471e-05
1.1498e-05
6.0391e-06
1.98308e-05
1.95822e-05
1.9275e-05
1.88584e-05
1.82385e-05
1.72574e-05
1.56255e-05
1.26404e-05
6.47276e-06
2.08839e-05
2.06181e-05
2.02904e-05
1.9845e-05
1.91826e-05
1.81352e-05
1.6395e-05
1.32176e-05
6.68068e-06
2.12525e-05
2.0995e-05
2.06747e-05
2.02332e-05
1.95671e-05
1.85014e-05
1.67166e-05
1.34459e-05
6.75159e-06
2.11093e-05
2.08792e-05
2.05852e-05
2.01687e-05
1.95253e-05
1.84778e-05
1.67023e-05
1.34271e-05
6.73161e-06
2.05077e-05
2.03207e-05
2.00708e-05
1.96999e-05
1.91052e-05
1.81108e-05
1.6395e-05
1.31951e-05
6.63665e-06
1.93587e-05
1.92165e-05
1.90162e-05
1.87028e-05
1.8177e-05
1.72686e-05
1.56661e-05
1.26389e-05
6.41779e-06
1.7506e-05
1.7433e-05
1.73344e-05
1.71865e-05
1.69401e-05
1.65038e-05
1.5718e-05
1.42926e-05
1.15622e-05
5.99358e-06
1.41426e-05
1.41005e-05
1.40407e-05
1.39461e-05
1.37781e-05
1.34619e-05
1.28612e-05
1.17297e-05
9.52859e-06
5.22432e-06
6.98198e-06
6.93283e-06
6.87867e-06
6.81405e-06
6.72498e-06
6.58102e-06
6.32336e-06
5.85021e-06
5.00321e-06
4.02124e-06
6.77118e-06
6.71804e-06
6.66084e-06
6.58665e-06
6.4668e-06
6.24534e-06
5.82227e-06
5.0421e-06
4.11069e-06
1.38098e-05
1.36717e-05
1.35165e-05
1.33127e-05
1.29882e-05
1.24117e-05
1.13459e-05
9.28203e-06
5.22457e-06
1.75234e-05
1.73588e-05
1.71442e-05
1.68362e-05
1.63496e-05
1.55358e-05
1.41218e-05
1.14723e-05
6.01816e-06
1.95605e-05
1.93611e-05
1.90995e-05
1.87252e-05
1.81446e-05
1.71969e-05
1.55866e-05
1.26072e-05
6.44808e-06
2.06276e-05
2.04116e-05
2.01283e-05
1.97225e-05
1.90949e-05
1.80759e-05
1.63541e-05
1.31833e-05
6.65492e-06
2.10347e-05
2.08218e-05
2.05402e-05
2.01317e-05
1.94932e-05
1.84493e-05
1.66786e-05
1.34147e-05
6.72699e-06
2.09357e-05
2.07414e-05
2.04785e-05
2.0088e-05
1.94657e-05
1.84344e-05
1.66694e-05
1.34006e-05
6.70943e-06
2.0377e-05
2.02153e-05
1.99876e-05
1.96353e-05
1.90555e-05
1.80726e-05
1.63648e-05
1.31718e-05
6.6167e-06
1.92623e-05
1.91366e-05
1.89513e-05
1.86505e-05
1.81351e-05
1.72348e-05
1.56388e-05
1.26189e-05
6.40053e-06
1.74241e-05
1.73603e-05
1.72714e-05
1.7133e-05
1.68952e-05
1.64663e-05
1.56871e-05
1.42675e-05
1.15447e-05
5.9786e-06
1.40824e-05
1.40443e-05
1.39898e-05
1.39008e-05
1.37386e-05
1.34278e-05
1.28323e-05
1.1706e-05
9.51201e-06
5.21232e-06
6.94268e-06
6.89559e-06
6.84421e-06
6.78273e-06
6.69688e-06
6.55606e-06
6.30142e-06
5.83147e-06
4.98877e-06
4.01367e-06
6.73459e-06
6.68561e-06
6.63193e-06
6.56057e-06
6.44269e-06
6.22185e-06
5.79804e-06
5.01659e-06
4.09166e-06
1.37417e-05
1.36324e-05
1.35012e-05
1.33151e-05
1.30032e-05
1.24325e-05
1.13648e-05
9.28722e-06
5.21153e-06
1.7354e-05
1.72205e-05
1.70364e-05
1.67575e-05
1.62979e-05
1.55062e-05
1.41048e-05
1.14543e-05
5.99841e-06
1.9358e-05
1.91943e-05
1.89672e-05
1.86254e-05
1.80747e-05
1.7152e-05
1.55578e-05
1.25829e-05
6.4253e-06
2.04305e-05
2.02508e-05
2.00014e-05
1.96265e-05
1.90262e-05
1.80296e-05
1.63226e-05
1.31578e-05
6.6314e-06
2.08635e-05
2.06835e-05
2.04316e-05
2.00493e-05
1.94332e-05
1.84072e-05
1.66488e-05
1.33917e-05
6.70458e-06
2.07967e-05
2.06291e-05
2.03904e-05
2.00209e-05
1.94161e-05
1.83987e-05
1.66434e-05
1.33813e-05
6.68917e-06
2.02695e-05
2.0127e-05
1.99168e-05
1.95799e-05
1.90129e-05
1.80403e-05
1.63403e-05
1.31547e-05
6.59827e-06
1.91811e-05
1.90681e-05
1.88947e-05
1.86046e-05
1.80983e-05
1.72058e-05
1.56163e-05
1.26038e-05
6.38422e-06
1.73547e-05
1.72977e-05
1.72164e-05
1.70857e-05
1.68553e-05
1.64332e-05
1.566e-05
1.42462e-05
1.15309e-05
5.96412e-06
1.40305e-05
1.39954e-05
1.39449e-05
1.38606e-05
1.37033e-05
1.33974e-05
1.28067e-05
1.16854e-05
9.49818e-06
5.20023e-06
6.90739e-06
6.8619e-06
6.81276e-06
6.7539e-06
6.67081e-06
6.53276e-06
6.28083e-06
5.81373e-06
4.9748e-06
4.00464e-06
6.70491e-06
6.65922e-06
6.60824e-06
6.53893e-06
6.42223e-06
6.20143e-06
5.77656e-06
4.99346e-06
4.07056e-06
1.36949e-05
1.36067e-05
1.34935e-05
1.33216e-05
1.30188e-05
1.24523e-05
1.13824e-05
9.29397e-06
5.19797e-06
1.72307e-05
1.71197e-05
1.69585e-05
1.67016e-05
1.6262e-05
1.54862e-05
1.40937e-05
1.14424e-05
5.97971e-06
1.92059e-05
1.90683e-05
1.88671e-05
1.85503e-05
1.80224e-05
1.71186e-05
1.55366e-05
1.25657e-05
6.40419e-06
2.02788e-05
2.01257e-05
1.9902e-05
1.95512e-05
1.89724e-05
1.79935e-05
1.62985e-05
1.31395e-05
6.60974e-06
2.0729e-05
2.0573e-05
2.03441e-05
1.99826e-05
1.93845e-05
1.83735e-05
1.66254e-05
1.33752e-05
6.68396e-06
2.06853e-05
2.05376e-05
2.03178e-05
1.99651e-05
1.9375e-05
1.83695e-05
1.66229e-05
1.33678e-05
6.67046e-06
2.0181e-05
2.0053e-05
1.98568e-05
1.95325e-05
1.89766e-05
1.80131e-05
1.63205e-05
1.31424e-05
6.5811e-06
1.91126e-05
1.90093e-05
1.88456e-05
1.85645e-05
1.80663e-05
1.71809e-05
1.55977e-05
1.25928e-05
6.36877e-06
1.72957e-05
1.72438e-05
1.71685e-05
1.70442e-05
1.682e-05
1.6404e-05
1.56366e-05
1.42282e-05
1.15202e-05
5.95012e-06
1.39856e-05
1.39527e-05
1.39053e-05
1.38249e-05
1.36718e-05
1.33703e-05
1.27841e-05
1.16674e-05
9.4867e-06
5.18764e-06
6.8757e-06
6.83145e-06
6.78413e-06
6.72746e-06
6.64675e-06
6.51114e-06
6.26163e-06
5.79699e-06
4.96081e-06
3.99036e-06
6.6804e-06
6.63732e-06
6.58844e-06
6.52059e-06
6.40458e-06
6.18347e-06
5.75728e-06
4.97102e-06
4.03454e-06
1.36626e-05
1.35899e-05
1.34904e-05
1.33292e-05
1.30336e-05
1.24703e-05
1.13986e-05
9.30166e-06
5.18263e-06
1.71401e-05
1.70458e-05
1.69018e-05
1.66615e-05
1.62369e-05
1.5473e-05
1.4087e-05
1.14355e-05
5.96185e-06
1.9091e-05
1.89725e-05
1.8791e-05
1.84934e-05
1.7983e-05
1.70938e-05
1.55213e-05
1.25543e-05
6.38457e-06
2.01615e-05
2.0028e-05
1.9824e-05
1.94919e-05
1.89301e-05
1.79653e-05
1.62802e-05
1.31271e-05
6.58974e-06
2.06226e-05
2.04847e-05
2.02734e-05
1.99284e-05
1.93452e-05
1.83464e-05
1.66074e-05
1.3364e-05
6.66492e-06
2.05954e-05
2.04628e-05
2.02578e-05
1.99189e-05
1.93409e-05
1.83456e-05
1.6607e-05
1.33589e-05
6.65313e-06
2.01077e-05
1.9991e-05
1.9806e-05
1.94921e-05
1.89456e-05
1.79904e-05
1.63047e-05
1.31342e-05
6.56507e-06
1.90545e-05
1.89589e-05
1.88031e-05
1.85296e-05
1.80386e-05
1.71597e-05
1.55825e-05
1.25851e-05
6.35415e-06
1.72453e-05
1.71973e-05
1.71267e-05
1.70077e-05
1.67889e-05
1.63784e-05
1.56162e-05
1.42131e-05
1.15123e-05
5.93652e-06
1.39467e-05
1.39154e-05
1.38705e-05
1.37932e-05
1.36438e-05
1.33463e-05
1.27643e-05
1.16519e-05
9.47713e-06
5.17338e-06
6.84721e-06
6.80396e-06
6.75813e-06
6.7033e-06
6.62464e-06
6.49119e-06
6.24385e-06
5.7812e-06
4.94534e-06
3.95703e-06
6.65918e-06
6.6183e-06
6.57113e-06
6.50439e-06
6.38875e-06
6.16709e-06
5.73912e-06
4.94436e-06
3.92536e-06
1.36392e-05
1.35787e-05
1.349e-05
1.33375e-05
1.30478e-05
1.24872e-05
1.14141e-05
9.30998e-06
5.16174e-06
1.70704e-05
1.69891e-05
1.68586e-05
1.66316e-05
1.62189e-05
1.54642e-05
1.40835e-05
1.14325e-05
5.94405e-06
1.90002e-05
1.88965e-05
1.87306e-05
1.84483e-05
1.79521e-05
1.70747e-05
1.55102e-05
1.25475e-05
6.36569e-06
2.00668e-05
1.99484e-05
1.97602e-05
1.94433e-05
1.88955e-05
1.79427e-05
1.62662e-05
1.31192e-05
6.57065e-06
2.05349e-05
2.0411e-05
2.02141e-05
1.98828e-05
1.9312e-05
1.8324e-05
1.65933e-05
1.3357e-05
6.64674e-06
2.05198e-05
2.03992e-05
2.02063e-05
1.9879e-05
1.93116e-05
1.83255e-05
1.65944e-05
1.33538e-05
6.63654e-06
2.00446e-05
1.99369e-05
1.97612e-05
1.94564e-05
1.89183e-05
1.79708e-05
1.62918e-05
1.31293e-05
6.54961e-06
1.90032e-05
1.89139e-05
1.87648e-05
1.84982e-05
1.80138e-05
1.71411e-05
1.55698e-05
1.25803e-05
6.33986e-06
1.72005e-05
1.71555e-05
1.70889e-05
1.69744e-05
1.67606e-05
1.63552e-05
1.55981e-05
1.42001e-05
1.15066e-05
5.92284e-06
1.39116e-05
1.38815e-05
1.38388e-05
1.37642e-05
1.36181e-05
1.33243e-05
1.27462e-05
1.1638e-05
9.46886e-06
5.15564e-06
6.82065e-06
6.77827e-06
6.73373e-06
6.68052e-06
6.60373e-06
6.47228e-06
6.22696e-06
5.76581e-06
4.92524e-06
3.84709e-06
6.64073e-06
6.60173e-06
6.55598e-06
6.49009e-06
6.37461e-06
6.15228e-06
5.72257e-06
4.92086e-06
3.85307e-06
1.36223e-05
1.35713e-05
1.34912e-05
1.33457e-05
1.30611e-05
1.25029e-05
1.14289e-05
9.31962e-06
5.14215e-06
1.7017e-05
1.69457e-05
1.68259e-05
1.66093e-05
1.62061e-05
1.5459e-05
1.40827e-05
1.14333e-05
5.92694e-06
1.89289e-05
1.88366e-05
1.8683e-05
1.84129e-05
1.79281e-05
1.70604e-05
1.55029e-05
1.2545e-05
6.34773e-06
1.99907e-05
1.98841e-05
1.97083e-05
1.94038e-05
1.88676e-05
1.79248e-05
1.62561e-05
1.31157e-05
6.55258e-06
2.04629e-05
2.035e-05
2.01646e-05
1.98446e-05
1.92845e-05
1.83058e-05
1.65828e-05
1.33541e-05
6.62955e-06
2.04565e-05
2.03454e-05
2.01624e-05
1.98449e-05
1.92867e-05
1.83089e-05
1.65849e-05
1.33522e-05
6.62082e-06
1.99904e-05
1.989e-05
1.9722e-05
1.9425e-05
1.88946e-05
1.79541e-05
1.62817e-05
1.31275e-05
6.53487e-06
1.89582e-05
1.88741e-05
1.87308e-05
1.84701e-05
1.79918e-05
1.7125e-05
1.55595e-05
1.25782e-05
6.3261e-06
1.71608e-05
1.71183e-05
1.7055e-05
1.69445e-05
1.67351e-05
1.63343e-05
1.55821e-05
1.41893e-05
1.15034e-05
5.90954e-06
1.38802e-05
1.38511e-05
1.381e-05
1.37378e-05
1.35946e-05
1.33043e-05
1.27301e-05
1.1626e-05
9.4627e-06
5.13949e-06
6.79608e-06
6.75446e-06
6.71105e-06
6.65928e-06
6.58419e-06
6.45463e-06
6.21123e-06
5.75162e-06
4.90893e-06
3.79581e-06
6.62507e-06
6.58767e-06
6.54312e-06
6.47792e-06
6.36249e-06
6.13949e-06
5.70831e-06
4.90326e-06
3.81908e-06
1.36102e-05
1.35665e-05
1.34932e-05
1.33533e-05
1.30729e-05
1.2517e-05
1.14429e-05
9.33074e-06
5.12704e-06
1.69767e-05
1.69131e-05
1.68016e-05
1.65932e-05
1.61974e-05
1.54563e-05
1.4084e-05
1.14371e-05
5.91138e-06
1.88738e-05
1.87902e-05
1.86461e-05
1.83856e-05
1.791e-05
1.70501e-05
1.54987e-05
1.25462e-05
6.33134e-06
1.99308e-05
1.98331e-05
1.9667e-05
1.93724e-05
1.88456e-05
1.79112e-05
1.62494e-05
1.31159e-05
6.53617e-06
2.04052e-05
2.03007e-05
2.01244e-05
1.98135e-05
1.92622e-05
1.82915e-05
1.65755e-05
1.33547e-05
6.61394e-06
2.04046e-05
2.03009e-05
2.01259e-05
1.98165e-05
1.92662e-05
1.82957e-05
1.65784e-05
1.33538e-05
6.60652e-06
1.99451e-05
1.98504e-05
1.96888e-05
1.93984e-05
1.88746e-05
1.79405e-05
1.62744e-05
1.31286e-05
6.52139e-06
1.89198e-05
1.88399e-05
1.87013e-05
1.84458e-05
1.79729e-05
1.71117e-05
1.55518e-05
1.25787e-05
6.31343e-06
1.71266e-05
1.7086e-05
1.70254e-05
1.69182e-05
1.67127e-05
1.63163e-05
1.55687e-05
1.41808e-05
1.15025e-05
5.89732e-06
1.3853e-05
1.38246e-05
1.37848e-05
1.37146e-05
1.3574e-05
1.32869e-05
1.27163e-05
1.16163e-05
9.45906e-06
5.12661e-06
6.77407e-06
6.73313e-06
6.69071e-06
6.64021e-06
6.56667e-06
6.43885e-06
6.19728e-06
5.73933e-06
4.89723e-06
3.77468e-06
6.61167e-06
6.57569e-06
6.53221e-06
6.46763e-06
6.35226e-06
6.12862e-06
5.69615e-06
4.88948e-06
3.79985e-06
1.36012e-05
1.35633e-05
1.34953e-05
1.33601e-05
1.30833e-05
1.25297e-05
1.1456e-05
9.34304e-06
5.11464e-06
1.69457e-05
1.68881e-05
1.67831e-05
1.65812e-05
1.61915e-05
1.54556e-05
1.4087e-05
1.14436e-05
5.89724e-06
1.88306e-05
1.87537e-05
1.86171e-05
1.83643e-05
1.78961e-05
1.70429e-05
1.5497e-05
1.25504e-05
6.31647e-06
1.9883e-05
1.97922e-05
1.96338e-05
1.93471e-05
1.88282e-05
1.7901e-05
1.62455e-05
1.31192e-05
6.52138e-06
2.03582e-05
2.02603e-05
2.00912e-05
1.9788e-05
1.92441e-05
1.82805e-05
1.6571e-05
1.33581e-05
6.59992e-06
2.03616e-05
2.02638e-05
2.00953e-05
1.97927e-05
1.92492e-05
1.82852e-05
1.65743e-05
1.3358e-05
6.5937e-06
1.99067e-05
1.98167e-05
1.96603e-05
1.93756e-05
1.88576e-05
1.79294e-05
1.62694e-05
1.31321e-05
6.50929e-06
1.88867e-05
1.88102e-05
1.86757e-05
1.84248e-05
1.79568e-05
1.71006e-05
1.55463e-05
1.25814e-05
6.30202e-06
1.7097e-05
1.70579e-05
1.69995e-05
1.68952e-05
1.66931e-05
1.63006e-05
1.55574e-05
1.41744e-05
1.15038e-05
5.88633e-06
1.38291e-05
1.38013e-05
1.37627e-05
1.36942e-05
1.35559e-05
1.32717e-05
1.27046e-05
1.16085e-05
9.45764e-06
5.11585e-06
6.75433e-06
6.71402e-06
6.67251e-06
6.62319e-06
6.55108e-06
6.42492e-06
6.18515e-06
5.72893e-06
4.8885e-06
3.76336e-06
6.60014e-06
6.56546e-06
6.523e-06
6.45905e-06
6.34382e-06
6.11966e-06
5.68599e-06
4.87817e-06
3.78537e-06
1.35943e-05
1.3561e-05
1.34974e-05
1.3366e-05
1.30924e-05
1.25411e-05
1.14685e-05
9.35606e-06
5.10363e-06
1.69213e-05
1.68685e-05
1.67687e-05
1.65721e-05
1.61875e-05
1.54561e-05
1.40913e-05
1.14522e-05
5.88442e-06
1.87961e-05
1.87245e-05
1.85939e-05
1.83474e-05
1.78854e-05
1.70381e-05
1.54974e-05
1.25572e-05
6.30313e-06
1.98442e-05
1.97589e-05
1.96068e-05
1.93266e-05
1.88143e-05
1.78934e-05
1.62439e-05
1.31252e-05
6.50824e-06
2.03194e-05
2.02268e-05
2.00637e-05
1.97668e-05
1.92294e-05
1.82721e-05
1.65688e-05
1.33641e-05
6.58757e-06
2.03256e-05
2.02325e-05
2.00694e-05
1.97725e-05
1.9235e-05
1.82771e-05
1.65722e-05
1.33644e-05
6.5825e-06
1.9874e-05
1.97877e-05
1.96358e-05