/*--------------------------------*- C++ -*----------------------------------*\
| =========                 |                                                 |
| \\      /  F ield         | OpenFOAM: The Open Source CFD Toolbox           |
|  \\    /   O peration     | Version:  2.3.1                                 |
|   \\  /    A nd           | Web:      www.OpenFOAM.org                      |
|    \\/     M anipulation  |                                                 |
\*---------------------------------------------------------------------------*/
FoamFile
{
    version     2.0;
    format      ascii;
    class       volScalarField;
    location    "20";
    object      nut;
}
// * * * * * * * * * * * * * * * * * * * * * * * * * * * * * * * * * * * * * //

dimensions      [0 2 -1 0 0 0 0];

internalField   nonuniform List<scalar> 
37784
(
3.01646e-06
2.91996e-06
2.87103e-06
2.8341e-06
2.79706e-06
2.74652e-06
2.65858e-06
2.49088e-06
3.10904e-06
2.95077e-06
2.86388e-06
2.80141e-06
2.7543e-06
2.71303e-06
2.67167e-06
2.6172e-06
2.52371e-06
2.33625e-06
2.95903e-06
2.69074e-06
2.62268e-06
2.5634e-06
2.51261e-06
2.46753e-06
2.42455e-06
2.37457e-06
2.29652e-06
2.15591e-06
2.86754e-06
2.09515e-06
2.03914e-06
1.98834e-06
1.94418e-06
1.90586e-06
1.87239e-06
1.84063e-06
1.80615e-06
1.7755e-06
2.31561e-06
1.44483e-05
1.61003e-05
1.68992e-05
1.73067e-05
1.74111e-05
1.70825e-05
1.60275e-05
1.32985e-05
6.26865e-06
1.50496e-05
1.57271e-05
1.60806e-05
1.63067e-05
1.6375e-05
1.62635e-05
1.58001e-05
1.46257e-05
1.17878e-05
5.7464e-06
1.35566e-05
1.35222e-05
1.34781e-05
1.34344e-05
1.33462e-05
1.31738e-05
1.27828e-05
1.1899e-05
9.79849e-06
5.49918e-06
5.35332e-06
5.27475e-06
5.2023e-06
5.13876e-06
5.08383e-06
5.03323e-06
4.97676e-06
4.89024e-06
4.73505e-06
4.825e-06
2.88721e-05
3.2018e-05
3.30664e-05
3.31949e-05
3.27873e-05
3.15384e-05
2.86997e-05
2.21123e-05
7.01934e-06
2.88053e-05
3.00921e-05
3.02967e-05
3.02006e-05
2.99296e-05
2.93376e-05
2.80358e-05
2.52483e-05
1.88697e-05
6.2768e-06
2.3758e-05
2.34716e-05
2.30718e-05
2.27284e-05
2.23795e-05
2.18931e-05
2.10021e-05
1.91565e-05
1.49098e-05
5.91813e-06
5.97705e-06
5.88982e-06
5.80982e-06
5.73898e-06
5.67682e-06
5.61697e-06
5.54433e-06
5.42275e-06
5.18454e-06
5.11112e-06
4.18025e-05
4.55033e-05
4.63664e-05
4.6106e-05
4.51115e-05
4.28506e-05
3.81475e-05
2.80789e-05
7.47915e-06
4.01987e-05
4.16666e-05
4.16137e-05
4.11404e-05
4.04707e-05
3.93591e-05
3.72044e-05
3.28552e-05
2.35542e-05
6.60042e-06
3.10235e-05
3.05346e-05
2.98666e-05
2.92702e-05
2.8679e-05
2.78953e-05
2.65451e-05
2.38924e-05
1.80032e-05
6.1511e-06
6.36865e-06
6.27446e-06
6.18741e-06
6.10948e-06
6.03972e-06
5.96989e-06
5.88064e-06
5.72653e-06
5.41938e-06
5.22908e-06
5.39716e-05
5.70361e-05
5.74146e-05
5.67026e-05
5.50687e-05
5.17327e-05
4.53313e-05
3.21659e-05
7.76494e-06
4.99754e-05
5.10839e-05
5.06524e-05
4.98165e-05
4.87629e-05
4.71422e-05
4.4189e-05
3.84452e-05
2.67898e-05
6.80598e-06
3.6281e-05
3.56377e-05
3.48064e-05
3.40509e-05
3.32863e-05
3.22585e-05
3.05127e-05
2.71742e-05
2.00634e-05
6.28965e-06
6.62062e-06
6.52444e-06
6.43433e-06
6.35267e-06
6.27788e-06
6.20024e-06
6.09699e-06
5.91586e-06
5.5554e-06
5.28278e-06
6.49041e-05
6.68448e-05
6.66126e-05
6.53936e-05
6.30895e-05
5.87163e-05
5.07448e-05
3.49769e-05
7.93092e-06
5.81863e-05
5.86796e-05
5.78412e-05
5.66796e-05
5.52888e-05
5.32029e-05
4.94987e-05
4.25912e-05
2.90308e-05
6.93541e-06
4.01239e-05
3.93894e-05
3.84923e-05
3.76483e-05
3.67405e-05
3.54982e-05
3.34121e-05
2.94966e-05
2.14497e-05
6.37414e-06
6.78153e-06
6.68763e-06
6.59809e-06
6.51558e-06
6.43806e-06
6.35468e-06
6.24018e-06
6.03758e-06
5.63751e-06
5.3103e-06
7.41974e-05
7.50087e-05
7.41539e-05
7.24331e-05
6.94464e-05
6.41307e-05
5.47122e-05
3.68107e-05
8.00257e-06
6.47829e-05
6.46388e-05
6.34585e-05
6.20564e-05
6.0386e-05
5.7878e-05
5.35168e-05
4.55956e-05
3.05432e-05
7.01107e-06
4.28524e-05
4.20937e-05
4.11947e-05
4.0287e-05
3.92704e-05
3.78506e-05
3.54832e-05
3.11171e-05
2.23574e-05
6.42469e-06
6.87869e-06
6.79012e-06
6.70385e-06
6.62281e-06
6.54454e-06
6.45733e-06
6.33417e-06
6.11504e-06
5.68673e-06
5.32603e-06
8.17668e-05
8.15748e-05
8.01907e-05
7.80036e-05
7.43731e-05
6.82017e-05
5.74806e-05
3.78596e-05
7.99081e-06
6.9793e-05
6.91291e-05
6.77339e-05
6.6172e-05
6.42819e-05
6.13963e-05
5.64683e-05
4.76835e-05
3.15014e-05
7.04606e-06
4.46766e-05
4.3965e-05
4.3079e-05
4.21494e-05
4.10604e-05
3.95041e-05
3.6913e-05
3.21945e-05
2.29119e-05
6.45263e-06
6.92996e-06
6.8487e-06
6.7676e-06
6.68983e-06
6.61243e-06
6.52306e-06
6.39351e-06
6.16209e-06
5.71457e-06
5.33558e-06
8.76147e-05
8.66606e-05
8.48621e-05
8.22685e-05
7.80735e-05
7.11346e-05
5.92527e-05
3.82512e-05
7.90675e-06
7.33417e-05
7.23486e-05
7.08555e-05
6.92094e-05
6.71537e-05
6.39391e-05
5.85316e-05
4.90425e-05
3.20378e-05
7.04826e-06
4.57987e-05
4.5133e-05
4.43056e-05
4.3389e-05
4.22613e-05
4.06119e-05
3.78463e-05
3.28563e-05
2.3205e-05
6.46498e-06
6.94859e-06
6.87547e-06
6.80086e-06
6.72756e-06
6.65224e-06
6.56209e-06
6.42811e-06
6.18795e-06
5.72811e-06
5.34139e-06
9.18665e-05
9.04037e-05
8.83184e-05
8.53988e-05
8.07382e-05
7.31241e-05
6.02273e-05
3.81229e-05
7.71853e-06
7.56427e-05
7.44945e-05
7.30016e-05
7.13406e-05
6.91509e-05
6.56788e-05
5.98762e-05
4.9833e-05
3.22601e-05
7.02694e-06
4.63551e-05
4.57621e-05
4.50089e-05
4.41366e-05
4.30045e-05
4.12953e-05
3.83992e-05
3.32086e-05
2.33094e-05
6.46655e-06
6.94452e-06
6.87965e-06
6.81219e-06
6.74418e-06
6.67179e-06
6.58195e-06
6.44517e-06
6.19914e-06
5.73187e-06
5.34463e-06
1.87062e-05
2.01603e-05
2.03096e-05
1.98194e-05
1.72717e-05
1.1213e-05
7.08734e-06
6.01651e-06
5.5568e-06
3.69361e-05
3.73141e-05
2.95368e-05
1.89505e-05
1.55402e-05
1.82505e-05
2.13707e-05
1.88086e-05
6.51722e-06
2.85324e-05
2.49116e-05
2.4318e-05
2.76804e-05
3.59613e-05
4.43022e-05
4.36745e-05
3.21339e-05
7.09048e-06
4.58679e-05
4.65506e-05
5.18828e-05
6.01499e-05
6.63402e-05
6.68301e-05
5.79436e-05
3.90875e-05
7.4351e-06
7.53445e-05
7.8396e-05
8.21955e-05
8.51578e-05
8.48182e-05
7.9049e-05
6.62581e-05
4.39271e-05
9.45812e-05
9.72688e-05
9.8189e-05
9.72075e-05
9.32886e-05
8.46331e-05
6.9904e-05
4.47644e-05
0.000103779
0.000104534
0.000103414
0.000100619
9.51803e-05
8.56393e-05
6.99853e-05
4.33981e-05
0.00010395
0.00010291
0.000100773
9.7374e-05
9.1642e-05
8.22808e-05
6.6892e-05
4.09376e-05
9.47476e-05
9.29791e-05
9.07302e-05
8.75656e-05
8.25605e-05
7.43654e-05
6.06323e-05
3.76436e-05
7.445e-06
7.69374e-05
7.57744e-05
7.43496e-05
7.2716e-05
7.04315e-05
6.67771e-05
6.06647e-05
5.02177e-05
3.23345e-05
6.98389e-06
4.64918e-05
4.59854e-05
4.53224e-05
4.45066e-05
4.33978e-05
4.16572e-05
3.86696e-05
3.33397e-05
2.32907e-05
6.46187e-06
6.92673e-06
6.86951e-06
6.80842e-06
6.74569e-06
6.67691e-06
6.58825e-06
6.44997e-06
6.20024e-06
5.72941e-06
5.346e-06
1.40345e-05
1.57486e-05
1.60618e-05
1.50033e-05
1.17288e-05
7.93717e-06
6.50431e-06
5.93635e-06
5.53206e-06
2.18736e-05
2.06989e-05
1.73162e-05
1.60044e-05
1.81726e-05
2.21504e-05
2.31108e-05
1.93204e-05
6.50044e-06
3.26378e-05
3.12779e-05
3.38385e-05
3.94691e-05
4.59746e-05
4.9411e-05
4.50094e-05
3.22003e-05
7.05896e-06
6.21922e-05
6.28208e-05
6.6488e-05
7.06391e-05
7.25457e-05
6.92383e-05
5.855e-05
3.87985e-05
7.35533e-06
8.80187e-05
8.91875e-05
9.04818e-05
9.0634e-05
8.79604e-05
8.0475e-05
6.63664e-05
4.23998e-05
7.74437e-06
0.000103208
0.000103802
0.000103102
0.00010075
9.55914e-05
8.57762e-05
6.97246e-05
4.2964e-05
7.92545e-06
0.000109477
0.000108818
0.000106802
0.000103274
9.70386e-05
8.66578e-05
6.97207e-05
4.19714e-05
7.86509e-06
0.000107335
0.000105698
0.00010318
9.93876e-05
9.31933e-05
8.31665e-05
6.68288e-05
3.99969e-05
7.64872e-06
9.64439e-05
9.46034e-05
9.22837e-05
8.89541e-05
8.37068e-05
7.50545e-05
6.07518e-05
3.74396e-05
7.29971e-06
7.7447e-05
7.63809e-05
7.50804e-05
7.34835e-05
7.11489e-05
6.7381e-05
6.10422e-05
5.03235e-05
3.22597e-05
6.95142e-06
4.63269e-05
4.5927e-05
4.53565e-05
4.46073e-05
4.35312e-05
4.17816e-05
3.87367e-05
3.33211e-05
2.31989e-05
6.4544e-06
6.8995e-06
6.84963e-06
6.79558e-06
6.73808e-06
6.67252e-06
6.58541e-06
6.44678e-06
6.19563e-06
5.72303e-06
5.3461e-06
1.02522e-05
1.13719e-05
1.14399e-05
1.02297e-05
8.1782e-06
6.81449e-06
6.34711e-06
5.88465e-06
5.50914e-06
2.01595e-05
1.79974e-05
1.81295e-05
1.98144e-05
2.28372e-05
2.50499e-05
2.44323e-05
1.97356e-05
6.48185e-06
4.62274e-05
4.47078e-05
4.64447e-05
4.99047e-05
5.28209e-05
5.20373e-05
4.57627e-05
3.21245e-05
7.02249e-06
7.5502e-05
7.51094e-05
7.62188e-05
7.71557e-05
7.59758e-05
7.05063e-05
5.87465e-05
3.83651e-05
7.29849e-06
9.66986e-05
9.62704e-05
9.5715e-05
9.40913e-05
8.99351e-05
8.1224e-05
6.62275e-05
4.1596e-05
7.51921e-06
0.000108859
0.000107998
0.000106228
0.000102961
9.68982e-05
8.63772e-05
6.94603e-05
4.23455e-05
7.61128e-06
0.000113089
0.000111557
0.000109033
0.000105032
9.82148e-05
8.71745e-05
6.94697e-05
4.17191e-05
7.57376e-06
0.000109312
0.000107369
0.000104708
0.000100635
9.41279e-05
8.36076e-05
6.67153e-05
4.00374e-05
7.454e-06
9.72509e-05
9.54557e-05
9.31776e-05
8.97441e-05
8.43345e-05
7.53484e-05
6.06991e-05
3.72928e-05
7.22177e-06
7.74123e-05
7.64875e-05
7.5331e-05
7.38016e-05
7.1449e-05
6.76175e-05
6.11355e-05
5.02643e-05
3.21077e-05
6.92926e-06
4.59799e-05
4.56724e-05
4.52003e-05
4.45325e-05
4.34953e-05
4.17507e-05
3.86785e-05
3.32183e-05
2.3065e-05
6.44679e-06
6.86803e-06
6.8243e-06
6.77613e-06
6.72373e-06
6.66213e-06
6.57719e-06
6.43886e-06
6.18698e-06
5.71425e-06
5.34542e-06
7.88281e-06
8.33313e-06
8.26368e-06
7.62996e-06
6.92722e-06
6.55092e-06
6.27938e-06
5.84325e-06
5.4878e-06
2.68696e-05
2.39799e-05
2.37698e-05
2.49511e-05
2.65147e-05
2.70904e-05
2.55364e-05
2.00722e-05
6.46317e-06
5.74039e-05
5.55342e-05
5.55935e-05
5.64282e-05
5.63704e-05
5.35316e-05
4.6182e-05
3.1925e-05
6.98869e-06
8.36972e-05
8.23414e-05
8.17211e-05
8.07353e-05
7.78259e-05
7.11255e-05
5.87119e-05
3.78976e-05
7.25353e-06
0.000101912
0.000100486
9.88572e-05
9.61805e-05
9.10561e-05
8.15379e-05
6.59461e-05
4.09777e-05
7.40751e-06
0.000112187
0.000110501
0.000108094
0.000104262
9.76133e-05
8.66282e-05
6.91225e-05
4.18862e-05
7.46235e-06
0.000115096
0.000113134
0.000110339
0.000105998
9.88155e-05
8.72965e-05
6.91596e-05
4.14672e-05
7.43514e-06
0.000110234
0.000108218
0.000105508
0.00010129
9.46123e-05
8.37406e-05
6.65061e-05
3.99542e-05
7.35208e-06
9.74224e-05
9.57542e-05
9.3552e-05
9.01095e-05
8.45956e-05
7.53862e-05
6.05138e-05
3.70874e-05
7.17966e-06
7.70288e-05
7.62579e-05
7.52319e-05
7.37854e-05
7.14649e-05
6.76142e-05
6.10499e-05
5.00868e-05
3.19252e-05
6.91287e-06
4.55384e-05
4.53124e-05
4.49275e-05
4.4329e-05
4.33416e-05
4.16173e-05
3.85358e-05
3.30608e-05
2.29229e-05
6.43922e-06
6.83525e-06
6.79669e-06
6.75369e-06
6.70581e-06
6.64768e-06
6.565e-06
6.42765e-06
6.17636e-06
5.70475e-06
5.34404e-06
7.02558e-06
7.10075e-06
7.03299e-06
6.83391e-06
6.63772e-06
6.46883e-06
6.2334e-06
5.80857e-06
5.46802e-06
3.2101e-05
2.94509e-05
2.85314e-05
2.86762e-05
2.90569e-05
2.87142e-05
2.6466e-05
2.03274e-05
6.44773e-06
6.34592e-05
6.14161e-05
6.04836e-05
5.98716e-05
5.83582e-05
5.44525e-05
4.64093e-05
3.16724e-05
6.95982e-06
8.79938e-05
8.61663e-05
8.46835e-05
8.26826e-05
7.88227e-05
7.13896e-05
5.85549e-05
3.74345e-05
7.21818e-06
0.00010469
0.000102803
0.000100633
9.73485e-05
9.15939e-05
8.16066e-05
6.55929e-05
4.04261e-05
7.34785e-06
0.000113871
0.000111826
0.000109119
0.000104975
9.79601e-05
8.66304e-05
6.87364e-05
4.14234e-05
7.38983e-06
0.000115957
0.00011386
0.000110969
0.000106404
9.9027e-05
8.71997e-05
6.87987e-05
4.11188e-05
7.36816e-06
0.000110427
0.000108479
0.000105802
0.000101531
9.47492e-05
8.36455e-05
6.62167e-05
3.97127e-05
7.30006e-06
9.71824e-05
9.56786e-05
9.35699e-05
9.01564e-05
8.45792e-05
7.52395e-05
6.02567e-05
3.68473e-05
7.15419e-06
7.6447e-05
7.58142e-05
7.49127e-05
7.35505e-05
7.1281e-05
6.74399e-05
6.08448e-05
4.98586e-05
3.17398e-05
6.89963e-06
4.50669e-05
4.4909e-05
4.45967e-05
4.40606e-05
4.31206e-05
4.14224e-05
3.83507e-05
3.28854e-05
2.27871e-05
6.43178e-06
6.80311e-06
6.76876e-06
6.73014e-06
6.68625e-06
6.63138e-06
6.55103e-06
6.41504e-06
6.16494e-06
5.6951e-06
5.342e-06
6.79825e-06
6.77383e-06
6.7245e-06
6.64798e-06
6.55392e-06
6.4223e-06
6.19784e-06
5.77804e-06
5.45096e-06
3.49084e-05
3.27156e-05
3.16044e-05
3.12302e-05
3.09873e-05
3.00457e-05
2.72388e-05
2.05174e-05
6.43533e-06
6.63188e-05
6.44037e-05
6.31048e-05
6.18256e-05
5.95774e-05
5.50551e-05
4.65326e-05
3.14094e-05
6.9363e-06
8.99902e-05
8.80845e-05
8.62504e-05
8.37391e-05
7.93535e-05
7.1472e-05
5.8352e-05
3.7006e-05
7.19049e-06
0.000105934
0.000103933
0.000101537
9.7934e-05
9.17873e-05
8.15373e-05
6.52255e-05
3.99342e-05
7.31136e-06
0.000114493
0.000112392
0.000109604
0.000105275
9.80667e-05
8.64803e-05
6.83418e-05
4.09848e-05
7.34944e-06
0.000116066
0.000114002
0.000111112
0.000106455
9.90015e-05
8.69819e-05
6.84251e-05
4.07551e-05
7.33121e-06
0.000110163
0.000108358
0.000105752
0.000101514
9.46679e-05
8.34289e-05
6.58955e-05
3.94323e-05
7.27014e-06
9.67048e-05
9.53717e-05
9.33529e-05
9.00061e-05
8.43978e-05
7.49986e-05
5.99731e-05
3.66161e-05
7.13614e-06
7.57728e-05
7.52594e-05
7.44689e-05
7.31913e-05
7.09889e-05
6.71761e-05
6.05857e-05
4.96157e-05
3.15697e-05
6.88813e-06
4.46085e-05
4.45019e-05
4.42475e-05
4.3765e-05
4.28694e-05
4.12015e-05
3.81503e-05
3.27101e-05
2.26647e-05
6.42442e-06
6.77272e-06
6.74173e-06
6.70675e-06
6.66632e-06
6.6144e-06
6.53633e-06
6.40192e-06
6.15334e-06
5.68555e-06
5.33937e-06
6.71352e-06
6.67674e-06
6.63573e-06
6.58359e-06
6.50961e-06
6.38896e-06
6.16929e-06
5.75104e-06
5.43586e-06
3.64882e-05
3.47588e-05
3.37064e-05
3.31194e-05
3.25108e-05
3.1131e-05
2.78686e-05
2.06591e-05
6.42579e-06
6.76193e-05
6.59679e-05
6.45995e-05
6.30243e-05
6.03818e-05
5.54743e-05
4.66068e-05
3.1164e-05
6.91765e-06
9.07666e-05
8.89843e-05
8.70596e-05
8.43095e-05
7.96278e-05
7.1484e-05
5.81493e-05
3.66327e-05
7.16833e-06
0.000106287
0.000104363
0.000101924
9.81749e-05
9.1806e-05
8.13978e-05
6.48844e-05
3.95156e-05
7.28549e-06
0.000114495
0.000112491
0.000109735
0.000105301
9.80271e-05
8.62588e-05
6.79736e-05
4.06056e-05
7.3226e-06
0.000115729
0.000113791
0.000110968
0.000106321
9.88405e-05
8.67128e-05
6.80736e-05
4.04327e-05
7.30678e-06
0.000109652
0.000108015
0.000105494
0.000101341
9.44597e-05
8.31581e-05
6.55816e-05
3.91771e-05
7.24957e-06
9.61167e-05
9.49345e-05
9.29998e-05
8.97341e-05
8.41276e-05
7.47149e-05
5.96946e-05
3.64167e-05
7.12174e-06
7.5085e-05
7.46677e-05
7.39734e-05
7.2776e-05
7.06451e-05
6.68713e-05
6.03095e-05
4.93808e-05
3.14238e-05
6.8777e-06
4.41858e-05
4.41154e-05
4.39056e-05
4.34676e-05
4.26121e-05
4.09758e-05
3.79515e-05
3.25446e-05
2.25583e-05
6.41709e-06
6.74462e-06
6.71627e-06
6.68428e-06
6.64678e-06
6.59749e-06
6.52158e-06
6.38881e-06
6.14188e-06
5.67623e-06
5.33619e-06
6.66187e-06
6.62716e-06
6.5908e-06
6.54588e-06
6.47898e-06
6.36343e-06
6.14588e-06
5.72724e-06
5.42187e-06
3.74946e-05
3.61616e-05
3.52386e-05
3.45641e-05
3.3717e-05
3.20082e-05
2.83842e-05
2.07706e-05
6.41793e-06
6.82026e-05
6.68294e-05
6.55117e-05
6.38138e-05
6.09501e-05
5.57857e-05
4.6665e-05
3.09548e-05
6.90221e-06
9.09437e-05
8.93583e-05
8.74662e-05
8.46225e-05
7.97659e-05
7.14868e-05
5.79709e-05
3.6326e-05
7.14971e-06
0.000106177
0.000104413
0.000102025
9.82121e-05
9.17678e-05
8.12361e-05
6.45913e-05
3.91777e-05
7.26495e-06
0.00011417
0.000112324
0.000109648
0.000105193
9.79043e-05
8.60227e-05
6.76532e-05
4.03e-05
7.30211e-06
0.000115184
0.000113412
0.000110665
0.000106109
9.86134e-05
8.64388e-05
6.77661e-05
4.0173e-05
7.28822e-06
0.000109038
0.000107563
0.000105134
0.000101078
9.41945e-05
8.28771e-05
6.52985e-05
3.897e-05
7.23353e-06
9.5496e-05
9.44366e-05
9.25845e-05
8.94011e-05
8.3819e-05
7.44243e-05
5.94402e-05
3.62562e-05
7.10941e-06
7.44325e-05
7.40905e-05
7.34764e-05
7.2349e-05
7.02876e-05
6.65585e-05
6.00394e-05
4.91659e-05
3.13044e-05
6.86796e-06
4.38092e-05
4.37628e-05
4.35861e-05
4.31841e-05
4.23636e-05
4.07583e-05
3.77639e-05
3.23939e-05
2.24679e-05
6.40975e-06
6.719e-06
6.69268e-06
6.66312e-06
6.6281e-06
6.58112e-06
6.50719e-06
6.37604e-06
6.13073e-06
5.66717e-06
5.33251e-06
6.62428e-06
6.59296e-06
6.56012e-06
6.51915e-06
6.45608e-06
6.34319e-06
6.12628e-06
5.70637e-06
5.40848e-06
3.8199e-05
3.71789e-05
3.63882e-05
3.56798e-05
3.46722e-05
3.27133e-05
2.88138e-05
2.08661e-05
6.41053e-06
6.84684e-05
6.7339e-05
6.61104e-05
6.43712e-05
6.13794e-05
5.6033e-05
4.6723e-05
3.07904e-05
6.88851e-06
9.08621e-05
8.94799e-05
8.76697e-05
8.48076e-05
7.98521e-05
7.14889e-05
5.78311e-05
3.60872e-05
7.13334e-06
0.000105869
0.000104285
0.000101989
9.81548e-05
9.17125e-05
8.10855e-05
6.43549e-05
3.89178e-05
7.24747e-06
0.000113711
0.000112036
0.000109442
0.000105046
9.77454e-05
8.58038e-05
6.73901e-05
4.0067e-05
7.28511e-06
0.000114583
0.000112972
0.000110312
0.000105864
9.83723e-05
8.61876e-05
6.75117e-05
3.99773e-05
7.27286e-06
0.000108415
0.000107078
0.000104743
0.00010078
9.39168e-05
8.26111e-05
6.50568e-05
3.88134e-05
7.22002e-06
9.48904e-05
9.39287e-05
9.21575e-05
8.90491e-05
8.35054e-05
7.41493e-05
5.92186e-05
3.61335e-05
7.09836e-06
7.38434e-05
7.35569e-05
7.30055e-05
7.19384e-05
6.99394e-05
6.62582e-05
5.97885e-05
4.8976e-05
3.12099e-05
6.85871e-06
4.34811e-05
4.34493e-05
4.32965e-05
4.2923e-05
4.21324e-05
4.05564e-05
3.75922e-05
3.22596e-05
2.23927e-05
6.40239e-06
6.6958e-06
6.67106e-06
6.64346e-06
6.61052e-06
6.56553e-06
6.49339e-06
6.36377e-06
6.11998e-06
5.65839e-06
5.32836e-06
6.59567e-06
6.56736e-06
6.53726e-06
6.49895e-06
6.4382e-06
6.32664e-06
6.10956e-06
5.68805e-06
5.3955e-06
3.87233e-05
3.79408e-05
3.72647e-05
3.65475e-05
3.54267e-05
3.32936e-05
2.91684e-05
2.09547e-05
6.40297e-06
6.86038e-05
6.76713e-05
6.65351e-05
6.47909e-05
6.17226e-05
5.62445e-05
4.67834e-05
3.06716e-05
6.87583e-06
9.06986e-05
8.94963e-05
8.77788e-05
8.49231e-05
7.99377e-05
7.1497e-05
5.77324e-05
3.59111e-05
7.11852e-06
0.000105513
0.000104094
0.000101892
9.80835e-05
9.16539e-05
8.0964e-05
6.4175e-05
3.87271e-05
7.232e-06
0.000113234
0.000111718
0.000109196
0.000104892
9.75862e-05
8.56184e-05
6.71843e-05
3.98981e-05
7.27029e-06
0.000114006
0.000112534
0.000109966
0.000105616
9.81467e-05
8.59729e-05
6.73108e-05
3.98383e-05
7.25951e-06
0.000107831
0.000106603
0.000104368
0.000100477
9.36495e-05
8.23733e-05
6.48586e-05
3.87018e-05
7.20809e-06
9.43297e-05
9.34407e-05
9.17517e-05
8.87037e-05
8.32088e-05
7.39018e-05
5.90319e-05
3.60445e-05
7.08817e-06
7.33266e-05
7.30789e-05
7.25751e-05
7.15594e-05
6.96147e-05
6.59813e-05
5.95629e-05
4.88124e-05
3.1138e-05
6.84982e-06
4.31994e-05
4.31753e-05
4.30389e-05
4.26878e-05
4.19224e-05
4.03732e-05
3.74383e-05
3.21416e-05
2.23313e-05
6.39503e-06
6.67489e-06
6.65136e-06
6.62533e-06
6.59412e-06
6.55085e-06
6.4803e-06
6.35208e-06
6.10968e-06
5.64992e-06
5.32381e-06
6.57335e-06
6.54749e-06
6.51953e-06
6.48308e-06
6.42377e-06
6.31274e-06
6.09507e-06
5.67189e-06
5.38285e-06
3.91296e-05
3.85246e-05
3.7942e-05
3.72281e-05
3.60343e-05
3.37655e-05
2.94658e-05
2.10397e-05
6.39518e-06
6.86924e-05
6.79126e-05
6.68581e-05
6.51244e-05
6.20084e-05
5.64329e-05
4.68483e-05
3.05941e-05
6.86388e-06
9.05352e-05
8.94806e-05
8.7851e-05
8.50075e-05
8.00289e-05
7.15178e-05
5.76712e-05
3.57896e-05
7.10491e-06
0.000105181
0.000103903
0.000101772
9.80366e-05
9.16024e-05
8.08765e-05
6.40464e-05
3.85953e-05
7.21802e-06
0.000112798
0.000111411
0.000108966
0.000104747
9.74469e-05
8.54718e-05
6.70312e-05
3.97835e-05
7.25701e-06
0.000113492
0.000112125
0.000109663
0.000105386
9.79503e-05
8.57987e-05
6.71591e-05
3.97472e-05
7.24752e-06
0.000107313
0.000106161
0.000104025
0.000100191
9.34066e-05
8.21698e-05
6.47017e-05
3.86283e-05
7.19723e-06
9.38284e-05
9.2993e-05
9.1379e-05
8.83832e-05
8.29401e-05
7.36862e-05
5.88788e-05
3.59844e-05
7.07862e-06
7.28809e-05
7.26592e-05
7.21909e-05
7.12183e-05
6.93204e-05
6.57326e-05
5.93644e-05
4.8674e-05
3.10859e-05
6.84124e-06
4.29595e-05
4.29383e-05
4.28128e-05
4.24791e-05
4.17348e-05
4.02097e-05
3.73023e-05
3.20393e-05
2.22825e-05
6.38767e-06
6.65606e-06
6.63346e-06
6.60869e-06
6.57893e-06
6.53713e-06
6.46798e-06
6.34104e-06
6.09987e-06
5.64175e-06
5.31878e-06
6.55555e-06
6.53165e-06
6.50534e-06
6.47021e-06
6.41176e-06
6.30083e-06
6.08234e-06
5.6575e-06
5.37035e-06
3.94527e-05
3.89801e-05
3.84721e-05
3.77664e-05
3.6524e-05
3.41545e-05
2.97182e-05
2.1124e-05
6.38719e-06
6.87672e-05
6.81039e-05
6.7117e-05
6.54002e-05
6.22527e-05
5.66048e-05
4.69182e-05
3.05517e-05
6.85258e-06
9.04025e-05
8.94642e-05
8.79063e-05
8.50935e-05
8.01171e-05
7.15545e-05
5.76423e-05
3.5714e-05
7.09233e-06
0.000104901
0.000103738
0.000101667
9.80046e-05
9.15691e-05
8.08219e-05
6.39619e-05
3.85123e-05
7.20523e-06
0.000112424
0.000111134
0.000108776
0.000104619
9.7335e-05
8.53634e-05
6.6924e-05
3.97136e-05
7.24489e-06
0.000113055
0.000111764
0.000109405
0.000105184
9.77877e-05
8.56638e-05
6.70506e-05
3.96954e-05
7.23655e-06
0.000106862
0.000105767
0.000103716
9.99321e-05
9.31947e-05
8.20014e-05
6.45819e-05
3.85867e-05
7.18718e-06
9.33906e-05
9.25954e-05
9.10442e-05
8.80955e-05
8.27034e-05
7.35029e-05
5.87567e-05
3.59491e-05
7.06958e-06
7.25004e-05
7.22954e-05
7.18533e-05
7.09164e-05
6.90587e-05
6.55132e-05
5.91928e-05
4.85588e-05
3.10514e-05
6.83294e-06
4.27561e-05
4.27345e-05
4.26161e-05
4.22958e-05
4.15691e-05
4.00654e-05
3.71832e-05
3.19516e-05
2.22453e-05
6.38025e-06
6.63912e-06
6.61722e-06
6.59348e-06
6.56492e-06
6.52439e-06
6.45646e-06
6.33065e-06
6.09057e-06
5.63384e-06
5.31279e-06
6.54107e-06
6.51872e-06
6.4937e-06
6.45951e-06
6.40155e-06
6.29046e-06
6.07105e-06
5.64442e-06
5.35646e-06
3.9714e-05
3.93403e-05
3.88911e-05
3.81989e-05
3.6922e-05
3.44778e-05
2.99344e-05
2.12084e-05
6.37886e-06
6.8839e-05
6.82642e-05
6.7332e-05
6.56337e-05
6.24647e-05
5.67637e-05
4.69927e-05
3.05386e-05
6.84187e-06
9.03061e-05
8.94587e-05
8.79521e-05
8.51881e-05
8.02031e-05
7.16049e-05
5.76402e-05
3.56764e-05
7.08065e-06
0.000104678
0.000103599
0.000101594
9.79857e-05
9.15556e-05
8.07962e-05
6.39143e-05
3.84695e-05
7.19343e-06
0.000112118
0.000110895
0.000108625
0.000104512
9.72517e-05
8.52897e-05
6.68559e-05
3.96808e-05
7.23373e-06
0.000112691
0.00011146
0.000109188
0.000105016
9.76586e-05
8.55647e-05
6.69788e-05
3.96761e-05
7.2264e-06
0.000106475
0.000105425
0.000103443
9.9706e-05
9.30151e-05
8.18661e-05
6.44944e-05
3.85718e-05
7.17781e-06
9.30125e-05
9.22485e-05
9.07486e-05
8.78428e-05
8.24992e-05
7.33503e-05
5.86621e-05
3.59349e-05
7.06101e-06
7.21771e-05
7.19823e-05
7.15594e-05
7.06523e-05
6.88287e-05
6.53219e-05
5.90461e-05
4.84649e-05
3.10325e-05
6.8249e-06
4.25841e-05
4.256e-05
4.24457e-05
4.21357e-05
4.14236e-05
3.9939e-05
3.708e-05
3.18772e-05
2.22189e-05
6.37251e-06
6.62386e-06
6.60251e-06
6.5796e-06
6.55205e-06
6.51259e-06
6.44575e-06
6.32096e-06
6.08179e-06
5.6259e-06
5.3033e-06
6.52909e-06
6.50799e-06
6.48395e-06
6.45044e-06
6.39274e-06
6.28133e-06
6.06089e-06
5.6317e-06
5.33269e-06
3.99278e-05
3.96287e-05
3.9226e-05
3.85467e-05
3.72474e-05
3.47484e-05
3.01216e-05
2.12936e-05
6.36942e-06
6.89093e-05
6.84021e-05
6.75146e-05
6.58329e-05
6.26527e-05
5.69097e-05
4.70714e-05
3.05497e-05
6.83164e-06
9.02413e-05
8.94648e-05
8.80009e-05
8.52799e-05
8.02902e-05
7.16662e-05
5.76599e-05
3.56703e-05
7.06977e-06
0.000104506
0.000103487
0.000101551
9.79786e-05
9.15601e-05
8.07948e-05
6.38973e-05
3.846e-05
7.18253e-06
0.00011187
0.000110699
0.000108505
0.000104429
9.71948e-05
8.5246e-05
6.68205e-05
3.96785e-05
7.2234e-06
0.00011239
0.000111209
0.000109007
0.000104878
9.75602e-05
8.54968e-05
6.69381e-05
3.96837e-05
7.217e-06
0.000106146
0.000105134
0.000103207
9.95126e-05
9.28664e-05
8.17608e-05
6.4435e-05
3.85793e-05
7.16905e-06
9.26881e-05
9.19495e-05
9.04912e-05
8.76243e-05
8.23259e-05
7.32257e-05
5.85918e-05
3.59389e-05
7.05288e-06
7.19028e-05
7.17136e-05
7.13046e-05
7.04225e-05
6.8628e-05
6.51567e-05
5.89222e-05
4.83901e-05
3.10276e-05
6.81708e-06
4.24384e-05
4.24108e-05
4.22985e-05
4.19964e-05
4.12968e-05
3.9829e-05
3.69911e-05
3.18153e-05
2.22029e-05
6.36373e-06
6.61012e-06
6.58921e-06
6.56697e-06
6.54026e-06
6.50174e-06
6.43586e-06
6.31196e-06
6.07349e-06
5.61711e-06
5.2811e-06
6.5187e-06
6.49864e-06
6.47541e-06
6.44241e-06
6.38482e-06
6.273e-06
6.05131e-06
5.61656e-06
5.00439e-06
4.01102e-05
3.98702e-05
3.95057e-05
3.88395e-05
3.75258e-05
3.49854e-05
3.02919e-05
2.13831e-05
6.35657e-06
6.89794e-05
6.85262e-05
6.76773e-05
6.60105e-05
6.28271e-05
5.70489e-05
4.71566e-05
3.05821e-05
6.82141e-06
9.01992e-05
8.94765e-05
8.806e-05
8.53693e-05
8.03809e-05
7.17383e-05
5.76987e-05
3.56909e-05
7.0593e-06
0.000104372
0.000103397
0.000101526
9.79838e-05
9.15804e-05
8.0814e-05
6.39058e-05
3.84786e-05
7.17209e-06
0.000111664
0.000110538
0.000108407
0.000104367
9.71597e-05
8.52269e-05
6.6812e-05
3.97027e-05
7.21352e-06
0.000112132
0.000111
0.000108852
0.000104765
9.74861e-05
8.54541e-05
6.6923e-05
3.97148e-05
7.20798e-06
0.000105855
0.000104882
0.000102997
9.93439e-05
9.27415e-05
8.16794e-05
6.43987e-05
3.86068e-05
7.16059e-06
9.24008e-05
9.16848e-05
9.02611e-05
8.74306e-05
8.21756e-05
7.31226e-05
5.85411e-05
3.59594e-05
7.04494e-06
7.16615e-05
7.1475e-05
7.10766e-05
7.02165e-05
6.84479e-05
6.50102e-05
5.88153e-05
4.83304e-05
3.10354e-05
6.80921e-06
4.23107e-05
4.22787e-05
4.21673e-05
4.18714e-05
4.11826e-05
3.97304e-05
3.69126e-05
3.17628e-05
2.21962e-05
6.3528e-06
6.59728e-06
6.57675e-06
6.55509e-06
6.52912e-06
6.49146e-06
6.42647e-06
6.30341e-06
6.06539e-06
5.60568e-06
4.95414e-06
6.50965e-06
6.49049e-06
6.46794e-06
6.43531e-06
6.37774e-06
6.26545e-06
6.04257e-06
5.60318e-06
4.95806e-06
4.02643e-05
4.0071e-05
3.97382e-05
3.90853e-05
3.77633e-05
3.51928e-05
3.04467e-05
2.14744e-05
6.34447e-06
6.90469e-05
6.86371e-05
6.78193e-05
6.61718e-05
6.29855e-05
5.71821e-05
4.72477e-05
3.06338e-05
6.81157e-06
9.01755e-05
8.94931e-05
8.81242e-05
8.54564e-05
8.04741e-05
7.18197e-05
5.77548e-05
3.57364e-05
7.04932e-06
0.000104267
0.000103333
0.000101515
9.80007e-05
9.1615e-05
8.08521e-05
6.39379e-05
3.85238e-05
7.16222e-06
0.000111491
0.000110414
0.000108329
0.000104324
9.71454e-05
8.52312e-05
6.68291e-05
3.97518e-05
7.20418e-06
0.000111912
0.000110828
0.000108722
0.000104677
9.74356e-05
8.54354e-05
6.69323e-05
3.97684e-05
7.19943e-06
0.000105603
0.000104665
0.000102814
9.92005e-05
9.2641e-05
8.16217e-05
6.43849e-05
3.86539e-05
7.15252e-06
9.21492e-05
9.14546e-05
9.00584e-05
8.72623e-05
8.20488e-05
7.30414e-05
5.85101e-05
3.59963e-05
7.03728e-06
7.14515e-05
7.12656e-05
7.08754e-05
7.0034e-05
6.8289e-05
6.4883e-05
5.87258e-05
4.8286e-05
3.10558e-05
6.80155e-06
4.21999e-05
4.2163e-05
4.20515e-05
4.17605e-05
4.10813e-05
3.96435e-05
3.68447e-05
3.17194e-05
2.21969e-05
6.34283e-06
6.58538e-06
6.56518e-06
6.54404e-06
6.51873e-06
6.48184e-06
6.41769e-06
6.29543e-06
6.05791e-06
5.59638e-06
4.921e-06
6.50196e-06
6.48357e-06
6.46158e-06
6.42927e-06
6.37167e-06
6.25892e-06
6.03503e-06
5.59313e-06
4.93611e-06
4.03906e-05
4.02335e-05
3.99267e-05
3.92864e-05
3.79612e-05
3.537e-05
3.05839e-05
2.15642e-05
6.33514e-06
6.91079e-05
6.87328e-05
6.79399e-05
6.63128e-05
6.31256e-05
5.73061e-05
4.734e-05
3.06987e-05
6.80261e-06
9.01646e-05
8.9514e-05
8.81856e-05
8.55388e-05
8.05658e-05
7.19058e-05
5.78236e-05
3.58013e-05
7.0402e-06
0.000104186
0.000103291
0.000101512
9.80263e-05
9.16601e-05
8.09044e-05
6.39889e-05
3.85899e-05
7.15323e-06
0.000111353
0.000110319
0.000108269
0.000104298
9.7149e-05
8.5255e-05
6.68674e-05
3.98207e-05
7.19568e-06
0.000111733
0.000110689
0.000108618
0.000104611
9.74064e-05
8.54377e-05
6.69622e-05
3.98396e-05
7.19164e-06
0.000105392
0.000104484
0.000102661
9.90842e-05
9.25652e-05
8.15869e-05
6.43916e-05
3.87166e-05
7.14513e-06
9.1936e-05
9.12604e-05
8.98868e-05
8.71221e-05
8.19469e-05
7.29821e-05
5.84977e-05
3.60466e-05
7.03022e-06
7.12742e-05
7.10877e-05
7.07038e-05
6.98781e-05
6.81541e-05
6.4777e-05
5.86548e-05
4.82567e-05
3.10869e-05
6.79451e-06
4.21066e-05
4.2065e-05
4.19528e-05
4.16656e-05
4.09947e-05
3.95698e-05
3.67883e-05
3.16855e-05
2.22041e-05
6.33487e-06
6.5747e-06
6.55479e-06
6.5341e-06
6.50938e-06
6.4732e-06
6.40983e-06
6.28835e-06
6.05143e-06
5.5897e-06
4.90727e-06
6.49538e-06
6.47766e-06
6.45619e-06
6.42415e-06
6.36654e-06
6.25337e-06
6.02859e-06
5.58526e-06
4.92365e-06
4.0494e-05
4.03656e-05
4.00804e-05
3.9452e-05
3.81271e-05
3.55225e-05
3.07064e-05
2.16525e-05
6.32746e-06
6.91615e-05
6.88146e-05
6.8044e-05
6.64347e-05
6.32507e-05
5.74218e-05
4.74336e-05
3.0775e-05
6.79446e-06
9.01604e-05
8.95376e-05
8.82425e-05
8.56162e-05
8.06552e-05
7.19949e-05
5.79023e-05
3.58809e-05
7.03192e-06
0.000104123
0.000103264
0.000101517
9.80581e-05
9.17128e-05
8.09677e-05
6.40549e-05
3.86721e-05
7.14512e-06
0.000111241
0.000110244
0.000108226
0.000104287
9.71668e-05
8.52946e-05
6.69228e-05
3.99051e-05
7.18804e-06
0.000111585
0.000110576
0.000108536
0.000104564
9.73949e-05
8.54574e-05
6.70092e-05
3.99247e-05
7.18465e-06
0.000105215
0.000104332
0.000102535
9.89913e-05
9.25107e-05
8.15716e-05
6.44155e-05
3.87919e-05
7.13849e-06
9.17555e-05
9.10959e-05
8.97419e-05
8.70061e-05
8.18667e-05
7.29419e-05
5.85012e-05
3.6108e-05
7.02386e-06
7.11241e-05
7.09364e-05
7.05573e-05
6.9745e-05
6.80402e-05
6.46897e-05
5.86001e-05
4.82409e-05
3.11272e-05
6.78817e-06
4.20279e-05
4.19818e-05
4.18685e-05
4.15843e-05
4.09207e-05
3.95076e-05
3.67422e-05
3.16601e-05
2.22174e-05
6.32821e-06
6.56511e-06
6.54548e-06
6.5252e-06
6.50102e-06
6.4655e-06
6.40288e-06
6.28219e-06
6.04594e-06
5.58471e-06
4.8999e-06
6.48971e-06
6.47262e-06
6.45163e-06
6.41989e-06
6.3623e-06
6.24879e-06
6.0232e-06
5.57879e-06
4.91424e-06
4.05783e-05
4.04731e-05
4.02062e-05
3.9589e-05
3.82669e-05
3.56544e-05
3.08166e-05
2.17394e-05
6.32064e-06
6.92074e-05
6.88833e-05
6.81345e-05
6.65403e-05
6.33628e-05
5.753e-05
4.75273e-05
3.08594e-05
6.78706e-06
9.01589e-05
8.9563e-05
8.82943e-05
8.56884e-05
8.07418e-05
7.20857e-05
5.79883e-05
3.59727e-05
7.02448e-06
0.000104073
0.000103247
0.000101526
9.80942e-05
9.17709e-05
8.10394e-05
6.41328e-05
3.87677e-05
7.13791e-06
0.00011115
0.000110185
0.000108195
0.000104287
9.7196e-05
8.53468e-05
6.69923e-05
4.00024e-05
7.18131e-06
0.000111464
0.000110483
0.000108471
0.000104532
9.73979e-05
8.54914e-05
6.70701e-05
4.00215e-05
7.17854e-06
0.000105066
0.000104204