/*--------------------------------*- C++ -*----------------------------------*\
| =========                 |                                                 |
| \\      /  F ield         | OpenFOAM: The Open Source CFD Toolbox           |
|  \\    /   O peration     | Version:  2.3.1                                 |
|   \\  /    A nd           | Web:      www.OpenFOAM.org                      |
|    \\/     M anipulation  |                                                 |
\*---------------------------------------------------------------------------*/
FoamFile
{
    version     2.0;
    format      ascii;
    class       surfaceScalarField;
    location    "20";
    object      phi;
}
// * * * * * * * * * * * * * * * * * * * * * * * * * * * * * * * * * * * * * //

dimensions      [0 3 -1 0 0 0 0];

internalField   nonuniform List<scalar> 
108008
(
-9.19086e-07
6.18883e-07
2.45191e-07
-7.93739e-07
5.27618e-07
2.00964e-07
-7.07918e-07
4.79618e-07
1.54504e-07
-6.17145e-07
4.70328e-07
1.26094e-07
-5.07542e-07
4.83641e-07
1.1071e-07
-3.8655e-07
5.02315e-07
1.01277e-07
-2.54452e-07
5.16817e-07
9.74262e-08
-1.36067e-07
5.45722e-07
8.73762e-08
5.3567e-07
8.94837e-08
-1.13723e-06
2.56923e-07
1.54148e-07
-9.55439e-07
2.90142e-07
1.46951e-07
-8.27054e-07
2.776e-07
1.21634e-07
-7.193e-07
2.70325e-07
1.01538e-07
-6.14255e-07
2.7539e-07
8.98934e-08
-5.03364e-07
2.8901e-07
8.37405e-08
-3.89016e-07
3.06856e-07
8.11115e-08
-2.70747e-07
3.20389e-07
7.81584e-08
-1.38576e-07
3.39197e-07
7.43538e-08
3.34122e-07
6.29717e-08
-1.08718e-06
6.15236e-08
6.64844e-08
-9.49099e-07
8.66413e-08
6.54195e-08
-8.25992e-07
9.41654e-08
6.03272e-08
-7.11624e-07
9.96127e-08
5.63435e-08
-5.9927e-07
1.08148e-07
5.48883e-08
-4.84006e-07
1.18867e-07
5.48796e-08
-3.64816e-07
1.31397e-07
5.6268e-08
-2.43527e-07
1.41624e-07
5.74766e-08
-1.17971e-07
1.55688e-07
5.79525e-08
1.60177e-07
5.59739e-08
-1.03823e-06
-4.65854e-08
-9.18576e-07
-3.30158e-08
-8.02812e-07
-2.15986e-08
-6.91468e-07
-1.17306e-08
-5.81011e-07
-2.30913e-09
-4.68551e-07
6.40672e-09
-3.52585e-07
1.54316e-08
-2.35458e-07
2.4496e-08
-1.14246e-07
3.44766e-08
4.59312e-08
-9.47971e-07
6.693e-07
4.7835e-07
-8.17006e-07
5.79135e-07
3.85189e-07
-7.25318e-07
5.2799e-07
2.99319e-07
-6.29397e-07
5.14306e-07
2.47138e-07
-5.16124e-07
5.23342e-07
2.19345e-07
-3.92243e-07
5.37373e-07
2.02539e-07
-2.58468e-07
5.49998e-07
1.94828e-07
-1.38399e-07
5.71305e-07
1.7693e-07
5.60632e-07
1.74505e-07
-1.17453e-06
3.20683e-07
2.85723e-07
-9.86554e-07
3.50251e-07
2.78019e-07
-8.51208e-07
3.31494e-07
2.33929e-07
-7.37608e-07
3.18099e-07
1.9783e-07
-6.27543e-07
3.17589e-07
1.76544e-07
-5.1265e-07
3.26654e-07
1.65535e-07
-3.94482e-07
3.399e-07
1.60417e-07
-2.72747e-07
3.50361e-07
1.5606e-07
-1.39773e-07
3.63744e-07
1.48941e-07
3.50817e-07
1.33013e-07
-1.13077e-06
1.19448e-07
1.27455e-07
-9.83525e-07
1.38381e-07
1.30045e-07
-8.53056e-07
1.39276e-07
1.22077e-07
-7.32802e-07
1.38989e-07
1.15199e-07
-6.1554e-07
1.42567e-07
1.12649e-07
-4.96251e-07
1.49243e-07
1.13001e-07
-3.73731e-07
1.57946e-07
1.15702e-07
-2.49161e-07
1.64833e-07
1.18435e-07
-1.20752e-07
1.73525e-07
1.19761e-07
1.69029e-07
1.17011e-07
-1.08892e-06
-4.83097e-08
-9.58986e-07
-2.45686e-08
-8.34933e-07
-6.37473e-09
-7.16668e-07
8.99295e-09
-6.00237e-07
2.38268e-08
-4.82594e-07
3.80065e-08
-3.62078e-07
5.28613e-08
-2.40499e-07
6.77496e-08
-1.15914e-07
8.34169e-08
9.90465e-08
-9.63155e-07
6.43047e-07
6.45764e-07
-8.28515e-07
5.74949e-07
5.24175e-07
-7.30679e-07
5.3398e-07
4.17764e-07
-6.30646e-07
5.23392e-07
3.5228e-07
-5.15628e-07
5.32521e-07
3.17655e-07
-3.91141e-07
5.45228e-07
2.96878e-07
-2.57894e-07
5.56669e-07
2.86696e-07
-1.35693e-07
5.73522e-07
2.62602e-07
5.59508e-07
2.58808e-07
-1.17437e-06
3.31316e-07
3.7262e-07
-9.906e-07
3.64301e-07
3.72998e-07
-8.53714e-07
3.49026e-07
3.22966e-07
-7.37778e-07
3.36187e-07
2.79686e-07
-6.26023e-07
3.34616e-07
2.53566e-07
-5.10385e-07
3.41984e-07
2.40434e-07
-3.91861e-07
3.52831e-07
2.34289e-07
-2.70237e-07
3.61064e-07
2.30042e-07
-1.38212e-07
3.69882e-07
2.20556e-07
3.4949e-07
2.0482e-07
-1.1306e-06
1.46914e-07
1.71877e-07
-9.83353e-07
1.63538e-07
1.83564e-07
-8.52033e-07
1.62162e-07
1.77621e-07
-7.31077e-07
1.59544e-07
1.70887e-07
-6.13404e-07
1.60742e-07
1.68849e-07
-4.94108e-07
1.65172e-07
1.70516e-07
-3.71908e-07
1.71437e-07
1.74896e-07
-2.47688e-07
1.75829e-07
1.7945e-07
-1.19643e-07
1.80148e-07
1.81451e-07
1.68246e-07
1.78611e-07
-1.08487e-06
-2.4005e-08
-9.54647e-07
8.74929e-09
-8.30628e-07
3.17676e-08
-7.12448e-07
5.03579e-08
-5.96154e-07
6.82744e-08
-4.78639e-07
8.5664e-08
-3.58266e-07
1.03926e-07
-2.3669e-07
1.22002e-07
-1.12835e-07
1.3971e-07
1.54457e-07
-9.80618e-07
5.9028e-07
7.35534e-07
-8.42186e-07
5.4996e-07
6.14399e-07
-7.37149e-07
5.23979e-07
5.07273e-07
-6.32262e-07
5.19775e-07
4.39487e-07
-5.15136e-07
5.30938e-07
4.03935e-07
-3.90129e-07
5.43858e-07
3.8271e-07
-2.57618e-07
5.54534e-07
3.71884e-07
-1.34217e-07
5.69787e-07
3.43824e-07
5.51995e-07
3.40545e-07
-1.16925e-06
3.17503e-07
4.13906e-07
-9.92378e-07
3.56053e-07
4.30357e-07
-8.55063e-07
3.48498e-07
3.87112e-07
-7.37073e-07
3.39946e-07
3.45729e-07
-6.23749e-07
3.39906e-07
3.20112e-07
-5.07539e-07
3.47231e-07
3.07932e-07
-3.89084e-07
3.5702e-07
3.02673e-07
-2.68036e-07
3.63712e-07
2.99816e-07
-1.36799e-07
3.6963e-07
2.89476e-07
3.43851e-07
2.76166e-07
-1.12341e-06
1.54108e-07
1.98841e-07
-9.78773e-07
1.70964e-07
2.24022e-07
-8.48061e-07
1.70461e-07
2.24946e-07
-7.27107e-07
1.6804e-07
2.21839e-07
-6.09448e-07
1.68745e-07
2.2235e-07
-4.90457e-07
1.72303e-07
2.26454e-07
-3.68851e-07
1.77294e-07
2.33016e-07
-2.45278e-07
1.80091e-07
2.39498e-07
-1.17966e-07
1.81623e-07
2.42146e-07
1.65155e-07
2.39341e-07
-1.07469e-06
8.97818e-09
-9.46201e-07
5.12286e-08
-8.23367e-07
7.93945e-08
-7.05941e-07
1.00972e-07
-5.90181e-07
1.2126e-07
-4.73098e-07
1.40884e-07
-3.53141e-07
1.61263e-07
-2.31917e-07
1.8087e-07
-1.09234e-07
1.9865e-07
2.10378e-07
-9.97161e-07
5.26943e-07
7.60199e-07
-8.56455e-07
5.13352e-07
6.61754e-07
-7.44428e-07
5.03451e-07
5.69009e-07
-6.34462e-07
5.07221e-07
5.08464e-07
-5.1505e-07
5.21485e-07
4.77461e-07
-3.89671e-07
5.35499e-07
4.59232e-07
-2.58159e-07
5.45859e-07
4.4969e-07
-1.3437e-07
5.61547e-07
4.20206e-07
5.40285e-07
4.17516e-07
-1.16084e-06
2.90637e-07
4.18581e-07
-9.92853e-07
3.33929e-07
4.5538e-07
-8.56189e-07
3.35831e-07
4.27968e-07
-7.36464e-07
3.3354e-07
3.95915e-07
-6.21592e-07
3.36673e-07
3.75788e-07
-5.0481e-07
3.4506e-07
3.67575e-07
-3.86576e-07
3.5472e-07
3.65219e-07
-2.6635e-07
3.60488e-07
3.6496e-07
-1.35767e-07
3.64922e-07
3.55517e-07
3.35189e-07
3.45495e-07
-1.11282e-06
1.48784e-07
2.09679e-07
-9.7252e-07
1.66964e-07
2.50689e-07
-8.43322e-07
1.69119e-07
2.6246e-07
-7.22695e-07
1.68504e-07
2.66248e-07
-6.05129e-07
1.69982e-07
2.71475e-07
-4.8646e-07
1.73574e-07
2.7927e-07
-3.65482e-07
1.78062e-07
2.88695e-07
-2.42692e-07
1.79904e-07
2.97292e-07
-1.16273e-07
1.79862e-07
3.00786e-07
1.60618e-07
2.97639e-07
-1.0626e-06
4.00707e-08
-9.37153e-07
9.27508e-08
-8.16026e-07
1.27386e-07
-6.99469e-07
1.5292e-07
-5.84216e-07
1.75988e-07
-4.67521e-07
1.97764e-07
-3.4799e-07
2.19794e-07
-2.27302e-07
2.40085e-07
-1.05925e-07
2.57136e-07
2.6507e-07
-1.00946e-06
4.62102e-07
7.38649e-07
-8.68403e-07
4.71116e-07
6.75282e-07
-7.50777e-07
4.7607e-07
6.06298e-07
-6.3631e-07
4.87984e-07
5.60134e-07
-5.14889e-07
5.05683e-07
5.38147e-07
-3.89496e-07
5.21238e-07
5.25963e-07
-2.59368e-07
5.31666e-07
5.19566e-07
-1.35948e-07
5.49287e-07
4.91347e-07
5.2515e-07
4.87624e-07
-1.14889e-06
2.57517e-07
3.96689e-07
-9.90863e-07
3.04352e-07
4.55103e-07
-8.56023e-07
3.1545e-07
4.48794e-07
-7.3527e-07
3.19964e-07
4.31268e-07
-6.1916e-07
3.27032e-07
4.2063e-07
-5.01964e-07
3.37099e-07
4.18963e-07
-3.84118e-07
3.47232e-07
4.21379e-07
-2.64904e-07
3.52567e-07
4.24844e-07
-1.34942e-07
3.56645e-07
4.18197e-07
3.23966e-07
4.11737e-07
-1.09926e-06
1.36071e-07
2.06712e-07
-9.64521e-07
1.55904e-07
2.64398e-07
-8.37666e-07
1.61437e-07
2.89618e-07
-7.17778e-07
1.63442e-07
3.02881e-07
-6.00472e-07
1.66426e-07
3.14776e-07
-4.82202e-07
1.70631e-07
3.27468e-07
-3.61928e-07
1.75151e-07
3.40502e-07
-2.40062e-07
1.76528e-07
3.51466e-07
-1.14632e-07
1.75812e-07
3.5619e-07
1.54914e-07
3.52059e-07
-1.04858e-06
6.31676e-08
-9.27184e-07
1.2726e-07
-8.08322e-07
1.69961e-07
-6.92866e-07
2.00907e-07
-5.78184e-07
2.27733e-07
-4.61917e-07
2.52127e-07
-3.42898e-07
2.75926e-07
-2.22946e-07
2.96662e-07
-1.02964e-07
3.12966e-07
3.1702e-07
-1.01569e-06
4.00422e-07
6.87635e-07
-8.76164e-07
4.26968e-07
6.63514e-07
-7.54829e-07
4.44515e-07
6.23197e-07
-6.36931e-07
4.63823e-07
5.96028e-07
-5.14093e-07
4.84782e-07
5.86259e-07
-3.8915e-07
5.01977e-07
5.82578e-07
-2.60825e-07
5.12707e-07
5.81016e-07
-1.38624e-07
5.33275e-07
5.57053e-07
5.06889e-07
5.48985e-07
-1.13309e-06
2.22808e-07
3.56737e-07
-9.85482e-07
2.71707e-07
4.36214e-07
-8.53626e-07
2.90693e-07
4.53213e-07
-7.32772e-07
3.0164e-07
4.53288e-07
-6.15959e-07
3.12724e-07
4.54916e-07
-4.98647e-07
3.24683e-07
4.6175e-07
-3.81385e-07
3.35597e-07
4.70496e-07
-2.63337e-07
3.40823e-07
4.78682e-07
-1.3406e-07
3.45324e-07
4.76871e-07
3.10474e-07
4.74092e-07
-1.08284e-06
1.20054e-07
1.9234e-07
-9.54446e-07
1.41229e-07
2.66479e-07
-8.30679e-07
1.50038e-07
3.06505e-07
-7.12023e-07
1.54843e-07
3.31023e-07
-5.95259e-07
1.59618e-07
3.51117e-07
-4.77561e-07
1.64715e-07
3.69738e-07
-3.58132e-07
1.69575e-07
3.87094e-07
-2.37358e-07
1.70807e-07
4.00708e-07
-1.13048e-07
1.70007e-07
4.07197e-07
1.48184e-07
4.01301e-07
-1.03275e-06
7.5919e-08
-9.16073e-07
1.51813e-07
-7.9995e-07
2.03876e-07
-6.85877e-07
2.41678e-07
-5.7193e-07
2.73403e-07
-4.56216e-07
3.01128e-07
-3.37852e-07
3.27138e-07
-2.18847e-07
3.48463e-07
-1.00345e-07
3.64472e-07
3.64859e-07
-1.01497e-06
3.44346e-07
6.19762e-07
-8.78716e-07
3.83346e-07
6.33889e-07
-7.55668e-07
4.10783e-07
6.23763e-07
-6.35643e-07
4.36197e-07
6.17886e-07
-5.12153e-07
4.599e-07
6.2223e-07
-3.88115e-07
4.78555e-07
6.28825e-07
-2.61973e-07
4.89625e-07
6.33545e-07
-1.42046e-07
5.13565e-07
6.17466e-07
4.85547e-07
5.99844e-07
-1.11347e-06
1.89406e-07
3.05667e-07
-9.7624e-07
2.38914e-07
4.04421e-07
-8.48385e-07
2.63995e-07
4.44708e-07
-7.28409e-07
2.8044e-07
4.63656e-07
-6.11558e-07
2.95151e-07
4.79111e-07
-4.94518e-07
3.08915e-07
4.95695e-07
-3.7803e-07
3.20665e-07
5.11897e-07
-2.61252e-07
3.25946e-07
5.25583e-07
-1.32857e-07
3.31264e-07
5.30778e-07
2.95017e-07
5.31765e-07
-1.06366e-06
1.03129e-07
1.69084e-07
-9.42046e-07
1.25138e-07
2.58636e-07
-8.21995e-07
1.3672e-07
3.13728e-07
-7.05099e-07
1.44117e-07
3.5045e-07
-5.89246e-07
1.50661e-07
3.79755e-07
-4.72374e-07
1.56724e-07
4.05058e-07
-3.53981e-07
1.62048e-07
4.27318e-07
-2.34494e-07
1.63316e-07
4.4385e-07
-1.11509e-07
1.62748e-07
4.52727e-07
1.40519e-07
4.4429e-07
-1.01489e-06
7.79353e-08
-9.03441e-07
1.65498e-07
-7.90523e-07
2.27679e-07
-6.78189e-07
2.73461e-07
-5.65232e-07
3.11106e-07
-4.5028e-07
3.429e-07
-3.32768e-07
3.71674e-07
-2.14915e-07
3.93926e-07
-9.80052e-08
4.10311e-07
4.07372e-07
-1.00729e-06
2.94815e-07
5.43823e-07
-8.75723e-07
3.41754e-07
5.92452e-07
-7.52815e-07
3.76332e-07
6.1161e-07
-6.32002e-07
4.06321e-07
6.27406e-07
-5.08655e-07
4.32053e-07
6.46558e-07
-3.85849e-07
4.5176e-07
6.64417e-07
-2.6207e-07
4.62976e-07
6.7652e-07
-1.45539e-07
4.89813e-07
6.72933e-07
4.60598e-07
6.38902e-07
-1.09029e-06
1.58967e-07
2.48721e-07
-9.63099e-07
2.07768e-07
3.64279e-07
-8.40019e-07
2.37063e-07
4.26319e-07
-7.21835e-07
2.57793e-07
4.64011e-07
-6.05641e-07
2.75461e-07
4.93777e-07
-4.89288e-07
2.90734e-07
5.20662e-07
-3.73732e-07
3.03178e-07
5.44922e-07
-2.58217e-07
3.08522e-07
5.64523e-07
-1.31019e-07
3.14588e-07
5.78805e-07
2.77864e-07
5.8348e-07
-1.04194e-06
8.68712e-08
1.39219e-07
-9.27237e-07
1.09093e-07
2.42612e-07
-8.11383e-07
1.22751e-07
3.12186e-07
-6.96756e-07
1.32301e-07
3.61314e-07
-5.82227e-07
1.4039e-07
4.00297e-07
-4.66487e-07
1.47344e-07
4.32708e-07
-3.49348e-07
1.53116e-07
4.60241e-07
-2.31356e-07
1.54492e-07
4.79887e-07
-1.09989e-07
1.54195e-07
4.91753e-07
1.31943e-07
4.80221e-07
-9.95091e-07
7.00161e-08
-8.89092e-07
1.68592e-07
-7.7976e-07
2.41099e-07
-6.69535e-07
2.95536e-07
-5.57881e-07
3.39842e-07
-4.43955e-07
3.76318e-07
-3.27522e-07
4.08357e-07
-2.11015e-07
4.31911e-07
-9.58559e-08
4.49348e-07
4.43459e-07
-9.93208e-07
2.51852e-07
4.65647e-07
-8.67377e-07
3.03024e-07
5.43789e-07
-7.4616e-07
3.42197e-07
5.8971e-07
-6.25791e-07
3.75204e-07
6.2612e-07
-5.03308e-07
4.02177e-07
6.59747e-07
-3.81838e-07
4.22354e-07
6.88957e-07
-2.60171e-07
4.33261e-07
7.08891e-07
-1.47708e-07
4.60865e-07
7.23161e-07
4.29075e-07
6.6547e-07
-1.06398e-06
1.32245e-07
1.89605e-07
-9.4629e-07
1.7925e-07
3.19191e-07
-8.28516e-07
2.11019e-07
4.0055e-07
-7.12901e-07
2.34756e-07
4.55837e-07
-5.98025e-07
2.54585e-07
4.9952e-07
-4.82764e-07
2.7096e-07
5.36618e-07
-3.68232e-07
2.83811e-07
5.68934e-07
-2.53834e-07
2.89087e-07
5.94299e-07
-1.28217e-07
2.95231e-07
6.18822e-07
2.59287e-07
6.25052e-07
-1.01794e-06
7.21328e-08
1.04682e-07
-9.10076e-07
9.39858e-08
2.20018e-07
-7.98753e-07
1.08983e-07
3.02899e-07
-6.86846e-07
1.20141e-07
3.64022e-07
-5.74059e-07
1.29441e-07
4.12654e-07
-4.59774e-07
1.37119e-07
4.52263e-07
-3.44115e-07
1.43224e-07
4.8517e-07
-2.27833e-07
1.44697e-07
5.07995e-07
-1.08464e-07
1.44427e-07
5.23187e-07
1.22483e-07
5.08561e-07
-9.73421e-07
5.35574e-08
-8.72937e-07
1.62094e-07
-7.67478e-07
2.44622e-07
-6.59717e-07
3.07916e-07
-5.49704e-07
3.59271e-07
-4.37097e-07
4.00829e-07
-3.21988e-07
4.36472e-07
-2.07015e-07
4.61635e-07
-9.3819e-08
4.80578e-07
4.72124e-07
2.00684e-06
-1.50148e-06
3.42134e-07
3.66424e-06
-9.84138e-07
3.20079e-06
4.84096e-06
-4.86269e-07
5.15186e-06
4.37712e-06
2.31155e-07
6.57217e-06
2.54436e-06
1.37609e-06
8.10298e-06
1.2227e-06
1.84675e-06
8.26748e-06
7.78122e-07
1.39405e-06
6.51626e-06
4.01616e-07
9.13106e-07
4.73361e-06
6.66005e-07
3.9467e-06
-7.34069e-08
-1.01577e-06
9.12966e-07
2.21796e-07
-1.42772e-07
2.58318e-06
4.33648e-08
7.24518e-07
3.49133e-06
-2.81255e-07
1.26542e-06
3.73124e-06
-3.52971e-07
1.65752e-06
4.17125e-06
-7.5946e-08
1.76659e-06
4.60717e-06
1.63526e-07
1.47739e-06
4.23446e-06
1.39807e-07
1.12997e-06
3.60754e-06
9.20603e-07
3.29684e-06
-1.47531e-06
-2.83017e-07
1.07249e-06
-1.35838e-06
2.60416e-07
1.54183e-06
-1.26208e-06
7.31571e-07
2.04756e-06
-1.02928e-06
1.10345e-06
2.67789e-06
-6.55716e-07
1.38743e-06
3.1849e-06
-2.55045e-07
1.49145e-06
3.40086e-06
-2.16726e-09
1.35448e-06
3.26245e-06
5.45481e-08
1.16231e-06
2.97104e-06
1.03486e-06
2.80716e-06
-1.53555e-06
9.55254e-09
8.79915e-07
-1.37492e-06
3.38672e-07
1.25767e-06
-1.18917e-06
6.67412e-07
1.61669e-06
-9.63549e-07
9.44796e-07
1.93089e-06
-6.79214e-07
1.14568e-06
2.20931e-06
-3.76575e-07
1.22395e-06
2.39187e-06
-1.49622e-07
1.17003e-06
2.40325e-06
-4.00942e-08
1.07729e-06
2.2997e-06
2.23297e-06
-1.3525e-06
1.64707e-07
9.74399e-07
-1.20684e-06
3.90877e-07
1.16468e-06
-1.05716e-06
6.0599e-07
1.34157e-06
-8.63657e-07
7.92987e-07
1.53882e-06
-6.28383e-07
9.32286e-07
1.72088e-06
-3.87332e-07
9.9439e-07
1.82875e-06
-1.92149e-07
9.81407e-07
1.85193e-06
9.06346e-07
1.74304e-06
-1.2262e-06
2.45398e-07
8.44377e-07
-1.08066e-06
4.00247e-07
1.00155e-06
-9.35237e-07
5.44814e-07
1.11591e-06
-7.72734e-07
6.6943e-07
1.22427e-06
-5.89993e-07
7.63913e-07
1.33002e-06
-4.0734e-07
8.09479e-07
1.40343e-06
-2.51639e-07
8.12675e-07
1.43896e-06
7.5413e-07
1.42675e-06
-1.11557e-06
2.71535e-07
7.04552e-07
-9.80327e-07
3.81617e-07
8.28866e-07
-8.46158e-07
4.77154e-07
9.09603e-07
-7.04332e-07
5.58513e-07
9.80998e-07
-5.53384e-07
6.21525e-07
1.04958e-06
-4.08106e-07
6.55571e-07
1.103e-06
-2.84489e-07
6.66866e-07
1.13979e-06
6.45798e-07
1.19244e-06
-1.03724e-06
2.56709e-07
5.33683e-07
-9.0916e-07
3.34381e-07
6.45742e-07
-7.83683e-07
3.98098e-07
7.1686e-07
-6.57057e-07
4.51826e-07
7.75345e-07
-5.28344e-07
4.94731e-07
8.2973e-07
-4.10614e-07
5.24416e-07
8.79712e-07
-3.10878e-07
5.41658e-07
9.24748e-07
5.76309e-07
1.05495e-06
-9.73635e-07
2.15019e-07
3.88869e-07
-8.5418e-07
2.67539e-07
4.91177e-07
-7.35868e-07
3.09107e-07
5.60388e-07
-6.17e-07
3.43701e-07
6.15376e-07
-4.95998e-07
3.71147e-07
6.6233e-07
-3.75745e-07
3.91143e-07
7.01977e-07
-2.55164e-07
4.01112e-07
7.28856e-07
-1.41373e-07
4.25151e-07
7.60529e-07
3.83644e-07
6.83898e-07
-1.03506e-06
1.0943e-07
1.30765e-07
-9.26224e-07
1.53813e-07
2.71557e-07
-8.14052e-07
1.86562e-07
3.69354e-07
-7.01623e-07
2.12099e-07
4.40416e-07
-5.88658e-07
2.33283e-07
4.96973e-07
-4.7487e-07
2.50308e-07
5.43669e-07
-3.61422e-07
2.63217e-07
5.83414e-07
-2.47841e-07
2.68223e-07
6.13607e-07
-1.23793e-07
2.73148e-07
6.46776e-07
2.39021e-07
6.45882e-07
-9.92002e-07
5.9319e-08
6.69882e-08
-8.90734e-07
8.03101e-08
1.92253e-07
-7.84131e-07
9.59601e-08
2.86899e-07
-6.75318e-07
1.08165e-07
3.59142e-07
-5.64667e-07
1.18303e-07
4.16984e-07
-4.52163e-07
1.26489e-07
4.63579e-07
-3.38211e-07
1.3276e-07
5.01675e-07
-2.23842e-07
1.34275e-07
5.27573e-07
-1.06857e-07
1.33548e-07
5.45803e-07
1.12063e-07
5.28662e-07
-9.50064e-07
3.01519e-08
-8.54999e-07
1.4734e-07
-7.53597e-07
2.39181e-07
-6.48616e-07
3.111e-07
-5.40581e-07
3.69539e-07
-4.29604e-07
4.16341e-07
-3.16073e-07
4.557e-07
-2.02817e-07
4.82655e-07
-9.18204e-08
5.0313e-07
4.92367e-07
2.42167e-07
-8.57039e-07
1.93482e-07
1.25893e-06
-4.94333e-07
2.67836e-06
1.64645e-06
5.76125e-08
4.70672e-06
1.12043e-06
8.00962e-07
6.29723e-06
4.84331e-07
1.43233e-06
7.30675e-06
3.94872e-07
1.41929e-06
6.93764e-06
4.17984e-07
1.02944e-06
5.4637e-06
2.34636e-07
7.10933e-07
4.20603e-06
5.39539e-07
3.6418e-06
-1.40694e-06
-4.81814e-07
2.25856e-07
-1.15753e-06
1.28077e-07
1.71136e-06
-1.00718e-06
6.95878e-07
2.70271e-06
-8.83458e-07
1.10335e-06
3.30513e-06
-5.93952e-07
1.38747e-06
3.9266e-06
-1.87629e-07
1.41176e-06
4.20838e-06
5.22558e-08
1.17795e-06
3.84606e-06
7.03937e-08
9.29604e-07
3.37073e-06
7.76127e-07
3.13065e-06
-1.65111e-06
-1.19575e-07
5.77865e-07
-1.51764e-06
2.9221e-07
1.24423e-06
-1.33177e-06
6.66335e-07
1.89122e-06
-1.04287e-06
9.75765e-07
2.51658e-06
-6.63961e-07
1.19725e-06
2.9962e-06
-2.92607e-07
1.25322e-06
3.18805e-06
-5.97197e-08
1.13933e-06
3.06819e-06
1.33212e-08
9.93319e-07
2.83429e-06
8.98063e-07
2.69854e-06
-1.50817e-06
3.80949e-08
5.92784e-07
-1.3573e-06
3.24238e-07
1.07476e-06
-1.16871e-06
6.05681e-07
1.48876e-06
-9.37699e-07
8.38472e-07
1.83717e-06
-6.61185e-07
1.00202e-06
2.12803e-06
-3.80735e-07
1.06005e-06
2.30458e-06
-1.71417e-07
1.01725e-06
2.31602e-06
-5.7568e-08
9.42238e-07
2.23693e-06
8.93536e-07
2.17993e-06
-1.32577e-06
1.45402e-07
7.17008e-07
-1.1889e-06
3.52647e-07
9.99398e-07
-1.03209e-06
5.465e-07
1.24394e-06
-8.3834e-07
7.10766e-07
1.47277e-06
-6.13219e-07
8.30274e-07
1.6675e-06
-3.89113e-07
8.82523e-07
1.78216e-06
-2.06173e-07
8.74468e-07
1.81177e-06
-9.07429e-08
8.21333e-07
1.74852e-06
8.0724e-07
1.70433e-06
-1.19905e-06
2.06122e-07
6.457e-07
-1.06206e-06
3.53915e-07
8.63288e-07
-9.16498e-07
4.89179e-07
1.02767e-06
-7.54772e-07
6.03281e-07
1.17003e-06
-5.77214e-07
6.88186e-07
1.29455e-06
-4.01495e-07
7.29961e-07
1.38027e-06
-2.47535e-07
7.36089e-07
1.42338e-06
-1.34926e-07
6.99808e-07
1.43566e-06
6.96791e-07
1.39884e-06
-1.09066e-06
2.28864e-07
5.54375e-07
-9.63065e-07
3.35368e-07
7.19816e-07
-8.30872e-07
4.27817e-07
8.38772e-07
-6.90558e-07
5.05383e-07
9.38581e-07
-5.42397e-07
5.64361e-07
1.02525e-06
-3.98019e-07
5.97001e-07
1.09159e-06
-2.65563e-07
6.08637e-07
1.13479e-06
-1.62791e-07
5.95924e-07
1.19356e-06
5.84051e-07
1.12803e-06
-1.01224e-06
2.18005e-07
4.27336e-07
-8.91662e-07
2.93823e-07
5.6671e-07
-7.69506e-07
3.57123e-07
6.65398e-07
-6.44578e-07
4.10021e-07
7.45779e-07
-5.16953e-07
4.51372e-07
8.15094e-07
-3.95178e-07
4.7942e-07
8.75518e-07
-2.80074e-07
4.94184e-07
9.24096e-07
-1.84856e-07
5.14053e-07
1.04161e-06
4.7995e-07
9.76708e-07
-9.49598e-07
1.83668e-07
3.15517e-07
-8.36813e-07
2.35411e-07
4.36804e-07
-7.22294e-07
2.77575e-07
5.25417e-07
-6.05802e-07
3.12536e-07
5.96369e-07
-4.86832e-07
3.39782e-07
6.54949e-07
-3.67647e-07
3.59032e-07
7.0318e-07
-2.47337e-07
3.67583e-07
7.35147e-07
-1.22811e-07
3.80616e-07
7.69439e-07
3.40179e-07
7.00859e-07
-1.00412e-06
9.03626e-08
7.36373e-08
-9.03405e-07
1.31558e-07
2.22953e-07
-7.96931e-07
1.64093e-07
3.34198e-07
-6.88146e-07
1.90367e-07
4.18839e-07
-5.77606e-07
2.12168e-07
4.86801e-07
-4.65679e-07
2.29413e-07
5.42111e-07
-3.53464e-07
2.4206e-07
5.88171e-07
-2.40797e-07
2.46661e-07
6.21862e-07
-1.18969e-07
2.48782e-07
6.56782e-07
2.19286e-07
6.47806e-07
-9.64492e-07
4.8527e-08
2.72917e-08
-8.69455e-07
6.82877e-08
1.60486e-07
-7.67635e-07
8.4002e-08
2.6517e-07
-6.62207e-07
9.67309e-08
3.4735e-07
-5.54048e-07
1.07339e-07
4.13654e-07
-4.43647e-07
1.1581e-07
4.66781e-07
-3.31642e-07
1.22084e-07
5.09646e-07
-2.19421e-07
1.236e-07
5.38413e-07
-1.05223e-07
1.21849e-07
5.58537e-07
1.01756e-07
5.4097e-07
-9.25237e-07
1.3723e-09
-8.35385e-07
1.25775e-07
-7.38131e-07
2.25928e-07
-6.36194e-07
3.05894e-07
-5.30458e-07
3.71141e-07
-4.21424e-07
4.23118e-07
-3.09736e-07
4.66096e-07
-1.98419e-07
4.94937e-07
-8.98967e-08
5.16457e-07
5.04225e-07
-1.25365e-06
-2.73826e-07
8.24686e-08
-7.88782e-07
4.1624e-08
2.17188e-06
-5.61972e-07
4.83374e-07
3.99654e-06
-5.14301e-07
9.23992e-07
5.32557e-06
-2.96116e-07
1.1389e-06
5.94967e-06
4.74258e-08
1.01708e-06
5.57702e-06
1.87157e-07
7.59621e-07
4.56435e-06
1.17443e-07
5.53851e-07
3.72189e-06
4.35435e-07
3.32381e-06
-1.77855e-06
-1.802e-07
4.65638e-08
-1.57246e-06
2.36292e-07
1.3106e-06
-1.31608e-06
6.39012e-07
2.29069e-06
-1.02678e-06
9.38904e-07
3.00092e-06
-6.39324e-07
1.11818e-06
3.55986e-06
-2.51629e-07
1.10401e-06
3.73376e-06
-3.45946e-08
9.34325e-07
3.45433e-06
1.63327e-08
7.62021e-07
3.11163e-06
6.51125e-07
2.93129e-06
-1.61792e-06
-2.20231e-08
3.47137e-07
-1.49328e-06
2.98739e-07
1.05715e-06
-1.28985e-06
5.98665e-07
1.72814e-06
-1.00014e-06
8.45249e-07
2.32052e-06
-6.49393e-07
1.00745e-06
2.75618e-06
-3.20366e-07
1.03632e-06
2.92672e-06
-1.08399e-07
9.51084e-07
2.83946e-06
-2.07982e-08
8.44018e-07
2.66469e-06
7.72694e-07
2.55617e-06
-1.44633e-06
6.08108e-08
4.16279e-07
-1.30672e-06
3.04828e-07
9.29064e-07
-1.1228e-06
5.40175e-07
1.36333e-06
-8.97566e-07
7.3273e-07
1.72446e-06
-6.37914e-07
8.63447e-07
2.01239e-06
-3.82915e-07
9.07802e-07
2.1781e-06
-1.90013e-07
8.77194e-07
2.197e-06
-7.30249e-08
8.20691e-07
2.14327e-06
7.83319e-07
2.09628e-06
-1.27919e-06
1.3449e-07
5.27207e-07
-1.15067e-06
3.17775e-07
8.57926e-07
-9.94762e-07
4.87813e-07
1.1404e-06
-8.06889e-07
6.29715e-07
1.38791e-06
-5.95338e-07
7.31161e-07
1.58824e-06
-3.88093e-07
7.75751e-07
1.70697e-06
-2.16164e-07
7.72506e-07
1.74453e-06
-9.58155e-08
7.35748e-07
1.71311e-06
7.20988e-07
1.67085e-06
-1.15852e-06
1.78176e-07
4.87752e-07
-1.0309e-06
3.13439e-07
7.40009e-07
-8.89367e-07
4.3632e-07
9.37625e-07
-7.32168e-07
5.38893e-07
1.10366e-06
-5.62048e-07
6.14361e-07
1.24123e-06
-3.94239e-07
6.5259e-07
1.33563e-06
-2.44148e-07
6.60833e-07
1.38496e-06
-1.18077e-07
6.38226e-07
1.40711e-06
6.32273e-07
1.36947e-06
-1.0568e-06
1.957e-07
4.26856e-07
-9.37503e-07
2.94894e-07
6.19064e-07
-8.09722e-07
3.8162e-07
7.6569e-07
-6.73133e-07
4.53945e-07
8.8694e-07
-5.29356e-07
5.08383e-07
9.87448e-07
-3.87649e-07
5.39282e-07
1.06319e-06
-2.54132e-07
5.51014e-07
1.11109e-06
-1.26928e-07
5.43118e-07
1.16146e-06
5.34014e-07
1.09936e-06
-9.81667e-07
1.86294e-07
3.32278e-07
-8.68852e-07
2.57905e-07
4.90884e-07
-7.51262e-07
3.188e-07
6.10629e-07
-6.29368e-07
3.69565e-07
7.08265e-07
-5.04112e-07
4.08761e-07
7.8946e-07
-3.81443e-07
4.34943e-07
8.57188e-07
-2.61987e-07
4.48004e-07
9.0765e-07
-1.33911e-07
4.60113e-07
9.96537e-07
4.40181e-07
9.3663e-07
-9.2212e-07
1.57105e-07
2.46504e-07
-8.16026e-07
2.06588e-07
3.82027e-07
-7.05907e-07
2.47967e-07
4.86133e-07
-5.92526e-07
2.82319e-07
5.70234e-07
-4.76227e-07
3.08847e-07
6.38563e-07
-3.5889e-07
3.2713e-07
6.93655e-07
-2.40303e-07
3.34774e-07
7.2979e-07
-1.15362e-07
3.41664e-07
7.62948e-07
3.13945e-07
7.11733e-07
-9.71708e-07
7.47051e-08
1.89577e-08
-8.78368e-07
1.12379e-07
1.74339e-07
-7.77528e-07
1.43796e-07
2.96149e-07
-6.72701e-07
1.69938e-07
3.9204e-07
-5.65034e-07
1.91721e-07
4.69733e-07
-4.55403e-07
2.08818e-07
5.32509e-07
-3.4492e-07
2.2102e-07
5.83799e-07
-2.33965e-07
2.25356e-07
6.20324e-07
-1.156e-07
2.25481e-07
6.546e-07
2.01208e-07
6.44942e-07
-9.35763e-07
3.96586e-08
-1.35478e-08
-8.46521e-07
5.79438e-08
1.25679e-07
-7.49444e-07
7.32605e-08
2.3863e-07
-6.47613e-07
8.60698e-08
3.29387e-07
-5.42259e-07
9.68165e-08
4.03204e-07
-4.34277e-07
1.05369e-07
4.62248e-07
-3.24525e-07
1.11535e-07
5.09378e-07
-2.14717e-07
1.13096e-07
5.40865e-07
-1.03533e-07
1.10546e-07
5.62288e-07
9.24196e-08
5.46226e-07
-8.99176e-07
-3.13822e-08
-8.14266e-07
9.88092e-08
-7.21169e-07
2.06092e-07
-6.22483e-07
2.93278e-07
-5.19336e-07
3.64811e-07
-4.12558e-07
4.21709e-07
-3.03016e-07
4.68089e-07
-1.93895e-07
4.98912e-07
-8.80399e-08
5.21147e-07
5.08605e-07
-1.8078e-06
-1.3e-08
6.15524e-08
-1.58446e-06
2.36161e-07
1.71237e-06
-1.29475e-06
5.23285e-07
3.18355e-06
-9.38922e-07
7.44089e-07
4.22565e-06
-4.99704e-07
8.15612e-07
4.69484e-06
-1.24559e-07
7.2409e-07
4.47778e-06
3.37389e-08
5.65998e-07
3.84005e-06
3.70248e-08
4.32786e-07
3.28582e-06
3.51217e-07
3.00961e-06
-1.72675e-06
-3.40561e-08
4.94586e-08
-1.56461e-06
2.66401e-07
1.11822e-06
-1.30911e-06
5.54687e-07
2.0038e-06
-9.95747e-07
7.64553e-07
2.66709e-06
-6.30521e-07
8.76467e-07
3.13378e-06
-2.96566e-07
8.56105e-07
3.26779e-06
-9.88169e-08
7.4125e-07
3.08132e-06
-2.40663e-08
6.23931e-07
2.84574e-06
5.44837e-07
2.71361e-06
-1.52565e-06
3.30959e-08
2.32269e-07
-1.40745e-06
2.84532e-07
9.20815e-07
-1.20812e-06
5.22163e-07
1.56134e-06
-9.38377e-07
7.12846e-07
2.10249e-06
-6.27063e-07
8.3101e-07
2.49032e-06
-3.40417e-07
8.49281e-07
2.6469e-06
-1.46689e-07
7.90321e-07
2.59666e-06
-4.76372e-08
7.14273e-07
2.47529e-06
6.61496e-07
2.39188e-06
-1.36574e-06
7.6651e-08
2.98432e-07
-1.23728e-06
2.80201e-07
8.04934e-07
-1.06294e-06
4.73907e-07
1.23725e-06
-8.50756e-07
6.30623e-07
1.5945e-06
-6.12761e-07
7.35134e-07
1.87027e-06
-3.83017e-07
7.71224e-07
2.02642e-06
-2.04453e-07
7.51784e-07
2.05698e-06
-8.50688e-08
7.11383e-07
2.02678e-06
6.82977e-07
1.98973e-06
-1.21933e-06
1.26618e-07
3.83532e-07
-1.09957e-06
2.84565e-07
7.33799e-07
-9.49765e-07
4.30783e-07
1.03372e-06
-7.71948e-07
5.51859e-07
1.28886e-06
-5.75713e-07
6.37663e-07
1.48947e-06
-3.84716e-07
6.76527e-07
1.61067e-06
-2.22757e-07
6.776e-07
1.65676e-06
-9.94554e-08
6.53383e-07
1.64781e-06
6.41178e-07
1.61319e-06
-1.10921e-06
1.56917e-07
3.60331e-07
-9.91368e-07
2.77192e-07
6.29541e-07
-8.56524e-07
3.86498e-07
8.47065e-07
-7.06361e-07
4.77404e-07
1.02795e-06
-5.45142e-07
5.44007e-07
1.17367e-06
-3.85966e-07
5.78998e-07
1.27398e-06
-2.41049e-07
5.88905e-07
1.32874e-06
-1.12583e-07
5.75938e-07
1.35609e-06
5.70842e-07
1.32723e-06
-1.01688e-06
1.69148e-07
3.183e-07
-9.06108e-07
2.59123e-07
5.26361e-07
-7.84268e-07
3.38649e-07
6.91699e-07
-6.52951e-07
4.04936e-07
8.2809e-07
-5.14746e-07
4.54654e-07
9.38597e-07
-3.77229e-07
4.83638e-07
1.02103e-06
-2.45313e-07
4.95476e-07
1.0726e-06
-1.15409e-07
4.91393e-07
1.1161e-06
4.83579e-07
1.07122e-06
-9.4725e-07
1.60078e-07
2.47576e-07
-8.42111e-07
2.26101e-07
4.18767e-07
-7.29856e-07
2.83284e-07
5.53739e-07
-6.12007e-07
3.31036e-07
6.64316e-07
-4.90182e-07
3.67706e-07
7.54584e-07
-3.68789e-07
3.91995e-07
8.27437e-07
-2.48475e-07
4.03849e-07
8.78964e-07
-1.18135e-07
4.11224e-07
9.46365e-07
3.95103e-07
9.0697e-07
-8.92153e-07
1.34679e-07
1.82013e-07
-7.92568e-07
1.80929e-07
3.27614e-07
-6.8721e-07
2.2052e-07
4.43539e-07
-5.77505e-07
2.53537e-07
5.38029e-07
-4.64437e-07
2.78959e-07
6.14242e-07
-3.497e-07
2.96194e-07
6.74719e-07
-2.33726e-07
3.03269e-07
7.14396e-07
-1.12283e-07
3.06432e-07
7.46297e-07
2.84449e-07
7.10104e-07
-9.38354e-07
6.20351e-08
-3.30261e-08
-8.51634e-07
9.60451e-08
1.26253e-07
-7.56241e-07
1.25706e-07
2.55979e-07
-6.55562e-07
1.51044e-07
3.60836e-07
-5.51131e-07
1.72302e-07
4.46537e-07
-4.44201e-07
1.88951e-07
5.15586e-07
-3.35941e-07
2.00599e-07
5.71134e-07
-2.27153e-07
2.04763e-07
6.10041e-07
-1.12591e-07
2.03543e-07
6.42927e-07
1.82822e-07
6.33979e-07
-9.06134e-07
3.25397e-08
-5.4951e-08
-8.22232e-07
4.91936e-08
8.86278e-08
-7.29783e-07
6.37678e-08
2.0812e-07
-6.31682e-07
7.63018e-08
3.06029e-07
-5.29393e-07
8.69151e-08
3.86301e-07
-4.24118e-07
9.53731e-08
4.50551e-07
-3.16906e-07
1.01351e-07
5.01415e-07
-2.09704e-07
1.02973e-07
5.35454e-07
-1.01633e-07
9.98733e-08
5.57886e-07
8.34182e-08
5.43996e-07
-8.72143e-07
-6.68742e-08
-7.91852e-07
6.77126e-08
-7.02857e-07
1.80864e-07
-6.07567e-07
2.7429e-07
-5.07264e-07
3.51422e-07
-4.03024e-07
4.12843e-07
-2.95918e-07
4.62333e-07
-1.89211e-07
4.95178e-07
-8.61548e-08
5.17964e-07
5.05869e-07
-1.74462e-06
4.59259e-08
6.26203e-08
-1.60138e-06
2.2792e-07
1.34122e-06
-1.31841e-06
4.10006e-07
2.49057e-06
-9.46724e-07
5.37544e-07
3.31642e-06
-5.46201e-07
5.75704e-07
3.71861e-06
-2.25319e-07
5.21892e-07
3.63501e-06
-6.52398e-08
4.26009e-07
3.25397e-06
-1.69101e-08
3.39854e-07
2.89764e-06
2.83853e-07
2.70885e-06
-1.57684e-06
2.83125e-08
5.70804e-08
-1.44007e-06
2.48649e-07
9.60727e-07
-1.21143e-06
4.54745e-07
1.73041e-06
-9.26954e-07
6.02502e-07
2.31766e-06
-6.10788e-07
6.78005e-07
2.71531e-06
-3.27007e-07
6.63695e-07
2.8422e-06
-1.44991e-07
5.89682e-07
2.73563e-06
-5.31815e-08
5.112e-07
2.58258e-06
4.55478e-07
2.4888e-06
-1.41317e-06
6.05962e-08
1.62145e-07
-1.30137e-06
2.56804e-07
8.00852e-07
-1.11597e-06
4.42249e-07
1.38844e-06
-8.73912e-07
5.88657e-07
1.87427e-06
-6.02395e-07
6.77644e-07
2.21917e-06
-3.53151e-07
6.93131e-07
2.36822e-06
-1.74907e-07
6.55167e-07
2.35294e-06
-6.78395e-08
6.02803e-07
2.27662e-06
5.64423e-07
2.21509e-06
-1.27607e-06
8.49916e-08
2.1111e-07
-1.15887e-06
2.51722e-07
6.9282e-07
-9.97483e-07
4.09215e-07
1.10889e-06
-8.02335e-07
5.36134e-07
1.45187e-06
-5.87135e-07
6.20598e-07
1.71211e-06
-3.80623e-07
6.51681e-07
1.86136e-06
-2.14542e-07
6.41414e-07
1.90465e-06
-9.3913e-08
6.14005e-07
1.89495e-06
5.92812e-07
1.86743e-06
-1.15215e-06
1.19003e-07
2.70983e-07
-1.04166e-06
2.52646e-07
6.22382e-07
-9.01009e-07
3.7666e-07
9.25626e-07
-7.3546e-07
4.79179e-07
1.18026e-06
-5.54909e-07
5.51811e-07
1.37771e-06
-3.79182e-07
5.86301e-07
1.50032e-06
-2.26583e-07