/*--------------------------------*- C++ -*----------------------------------*\
| =========                 |                                                 |
| \\      /  F ield         | OpenFOAM: The Open Source CFD Toolbox           |
|  \\    /   O peration     | Version:  2.3.1                                 |
|   \\  /    A nd           | Web:      www.OpenFOAM.org                      |
|    \\/     M anipulation  |                                                 |
\*---------------------------------------------------------------------------*/
FoamFile
{
    version     2.0;
    format      ascii;
    class       surfaceScalarField;
    location    "20";
    object      phi_0;
}
// * * * * * * * * * * * * * * * * * * * * * * * * * * * * * * * * * * * * * //

dimensions      [0 3 -1 0 0 0 0];

internalField   nonuniform List<scalar> 
108008
(
-9.18967e-07
6.18977e-07
2.45204e-07
-7.93617e-07
5.27727e-07
2.00964e-07
-7.0775e-07
4.79727e-07
1.54506e-07
-6.16933e-07
4.70415e-07
1.26097e-07
-5.07314e-07
4.83673e-07
1.10711e-07
-3.86337e-07
5.02284e-07
1.01275e-07
-2.54296e-07
5.16711e-07
9.74169e-08
-1.35973e-07
5.45569e-07
8.73655e-08
5.35483e-07
8.94582e-08
-1.13714e-06
2.57066e-07
1.54177e-07
-9.55341e-07
2.90226e-07
1.46956e-07
-8.26936e-07
2.77683e-07
1.21639e-07
-7.19151e-07
2.70398e-07
1.01544e-07
-6.1408e-07
2.75446e-07
8.98982e-08
-5.03182e-07
2.89032e-07
8.37425e-08
-3.88847e-07
3.0684e-07
8.11099e-08
-2.70619e-07
3.2033e-07
7.81525e-08
-1.38503e-07
3.39108e-07
7.43456e-08
3.3402e-07
6.29598e-08
-1.08712e-06
6.15911e-08
6.65018e-08
-9.49015e-07
8.66912e-08
6.54312e-08
-8.25882e-07
9.42119e-08
6.03384e-08
-7.11491e-07
9.96537e-08
5.63536e-08
-5.99122e-07
1.0818e-07
5.48967e-08
-4.83857e-07
1.18883e-07
5.48855e-08
-3.64683e-07
1.31395e-07
5.62706e-08
-2.4343e-07
1.41601e-07
5.74759e-08
-1.17922e-07
1.55651e-07
5.7949e-08
1.60131e-07
5.59672e-08
-1.03819e-06
-4.65633e-08
-9.18501e-07
-3.29939e-08
-8.02712e-07
-2.15772e-08
-6.91348e-07
-1.17101e-08
-5.80879e-07
-2.29005e-09
-4.68419e-07
6.42306e-09
-3.52468e-07
1.54445e-08
-2.35372e-07
2.45047e-08
-1.14202e-07
3.44804e-08
4.59291e-08
-9.4784e-07
6.69394e-07
4.7837e-07
-8.1687e-07
5.79237e-07
3.85191e-07
-7.25137e-07
5.28091e-07
2.99325e-07
-6.29174e-07
5.14382e-07
2.47146e-07
-5.15885e-07
5.23362e-07
2.19347e-07
-3.92022e-07
5.37328e-07
2.02533e-07
-2.58304e-07
5.49878e-07
1.94809e-07
-1.38299e-07
5.7114e-07
1.76907e-07
5.60432e-07
1.74461e-07
-1.17443e-06
3.20821e-07
2.85784e-07
-9.86442e-07
3.5033e-07
2.78034e-07
-8.51077e-07
3.31569e-07
2.33941e-07
-7.37447e-07
3.18164e-07
1.97841e-07
-6.27357e-07
3.17636e-07
1.76555e-07
-5.12458e-07
3.26666e-07
1.6554e-07
-3.94306e-07
3.39872e-07
1.60414e-07
-2.72613e-07
3.5029e-07
1.56048e-07
-1.39695e-07
3.63644e-07
1.48924e-07
3.50707e-07
1.3299e-07
-1.13069e-06
1.1951e-07
1.27492e-07
-9.83426e-07
1.38425e-07
1.30069e-07
-8.52933e-07
1.39317e-07
1.22099e-07
-7.32658e-07
1.39023e-07
1.15219e-07
-6.15381e-07
1.42592e-07
1.12665e-07
-4.96093e-07
1.49251e-07
1.13011e-07
-3.73591e-07
1.57935e-07
1.15707e-07
-2.49059e-07
1.64802e-07
1.18432e-07
-1.20699e-07
1.7348e-07
1.19753e-07
1.68979e-07
1.16997e-07
-1.08886e-06
-4.82687e-08
-9.58895e-07
-2.45292e-08
-8.34819e-07
-6.33693e-09
-7.16535e-07
9.02869e-09
-6.00092e-07
2.3859e-08
-4.82451e-07
3.80334e-08
-3.61953e-07
5.28813e-08
-2.40408e-07
6.77611e-08
-1.15867e-07
8.34197e-08
9.90403e-08
-9.63025e-07
6.43147e-07
6.45794e-07
-8.28375e-07
5.75052e-07
5.24185e-07
-7.30495e-07
5.34079e-07
4.17778e-07
-6.30421e-07
5.23463e-07
3.52296e-07
-5.15389e-07
5.32536e-07
3.17661e-07
-3.90919e-07
5.45178e-07
2.9687e-07
-2.57729e-07
5.56545e-07
2.86667e-07
-1.35593e-07
5.73355e-07
2.62566e-07
5.5931e-07
2.5875e-07
-1.17426e-06
3.3145e-07
3.7271e-07
-9.90487e-07
3.64377e-07
3.73027e-07
-8.5358e-07
3.49097e-07
3.22988e-07
-7.37615e-07
3.36248e-07
2.79707e-07
-6.25837e-07
3.34657e-07
2.53583e-07
-5.10193e-07
3.41991e-07
2.40442e-07
-3.91685e-07
3.52797e-07
2.34286e-07
-2.70103e-07
3.60988e-07
2.30024e-07
-1.38134e-07
3.6978e-07
2.2053e-07
3.4938e-07
2.04786e-07
-1.13052e-06
1.46973e-07
1.71933e-07
-9.83251e-07
1.63578e-07
1.83602e-07
-8.51907e-07
1.62198e-07
1.77654e-07
-7.30931e-07
1.59574e-07
1.70917e-07
-6.13244e-07
1.60762e-07
1.68873e-07
-4.93948e-07
1.65175e-07
1.70532e-07
-3.71767e-07
1.71421e-07
1.74901e-07
-2.47585e-07
1.75793e-07
1.79444e-07
-1.1959e-07
1.801e-07
1.81437e-07
1.68196e-07
1.78591e-07
-1.0848e-06
-2.39471e-08
-9.54554e-07
8.80303e-09
-8.30512e-07
3.18184e-08
-7.12314e-07
5.04048e-08
-5.96008e-07
6.83156e-08
-4.78497e-07
8.56968e-08
-3.58143e-07
1.03948e-07
-2.36601e-07
1.22013e-07
-1.1279e-07
1.39709e-07
1.54446e-07
-9.80491e-07
5.90388e-07
7.35581e-07
-8.42044e-07
5.50066e-07
6.14425e-07
-7.36964e-07
5.24076e-07
5.073e-07
-6.32038e-07
5.19842e-07
4.39512e-07
-5.14899e-07
5.3095e-07
4.03945e-07
-3.8991e-07
5.43805e-07
3.82701e-07
-2.57454e-07
5.5441e-07
3.71848e-07
-1.34119e-07
5.69622e-07
3.43778e-07
5.51801e-07
3.40474e-07
-1.16915e-06
3.17629e-07
4.14021e-07
-9.92267e-07
3.5613e-07
4.30404e-07
-8.54928e-07
3.48568e-07
3.87148e-07
-7.36909e-07
3.40004e-07
3.4576e-07
-6.23563e-07
3.39943e-07
3.20136e-07
-5.07349e-07
3.47234e-07
3.07943e-07
-3.8891e-07
3.56983e-07
3.02669e-07
-2.67903e-07
3.63634e-07
2.99793e-07
-1.36721e-07
3.69528e-07
2.89442e-07
3.43744e-07
2.76122e-07
-1.12333e-06
1.54162e-07
1.98916e-07
-9.78672e-07
1.71002e-07
2.24074e-07
-8.47936e-07
1.70495e-07
2.24991e-07
-7.26961e-07
1.68067e-07
2.21879e-07
-6.09288e-07
1.68762e-07
2.22381e-07
-4.90298e-07
1.72303e-07
2.26473e-07
-3.68711e-07
1.77275e-07
2.33022e-07
-2.45176e-07
1.80053e-07
2.3949e-07
-1.17913e-07
1.81575e-07
2.42127e-07
1.65107e-07
2.39315e-07
-1.07462e-06
9.05084e-09
-9.46108e-07
5.12951e-08
-8.23251e-07
7.94559e-08
-7.05807e-07
1.01028e-07
-5.90037e-07
1.21307e-07
-4.72958e-07
1.4092e-07
-3.5302e-07
1.61285e-07
-2.31831e-07
1.80877e-07
-1.09191e-07
1.98645e-07
2.10362e-07
-9.97039e-07
5.27058e-07
7.60269e-07
-8.56312e-07
5.13462e-07
6.61801e-07
-7.44243e-07
5.03547e-07
5.69052e-07
-6.34239e-07
5.07286e-07
5.08501e-07
-5.14815e-07
5.21493e-07
4.77477e-07
-3.89455e-07
5.35444e-07
4.59222e-07
-2.57998e-07
5.45736e-07
4.49647e-07
-1.34274e-07
5.61384e-07
4.2015e-07
5.40097e-07
4.17435e-07
-1.16075e-06
2.90755e-07
4.18716e-07
-9.92744e-07
3.34006e-07
4.55446e-07
-8.56054e-07
3.359e-07
4.2802e-07
-7.36301e-07
3.33595e-07
3.95958e-07
-6.21408e-07
3.36707e-07
3.75822e-07
-5.04622e-07
3.45059e-07
3.67591e-07
-3.86405e-07
3.54681e-07
3.65215e-07
-2.66219e-07
3.6041e-07
3.64933e-07
-1.35691e-07
3.64821e-07
3.55477e-07
3.35086e-07
3.45442e-07
-1.11274e-06
1.48835e-07
2.0977e-07
-9.72419e-07
1.67001e-07
2.50757e-07
-8.43197e-07
1.69151e-07
2.62519e-07
-7.2255e-07
1.68529e-07
2.66298e-07
-6.04971e-07
1.69996e-07
2.71514e-07
-4.86304e-07
1.73572e-07
2.79294e-07
-3.65345e-07
1.78042e-07
2.88701e-07
-2.42591e-07
1.79866e-07
2.97281e-07
-1.16221e-07
1.79815e-07
3.00763e-07
1.60571e-07
2.97609e-07
-1.06253e-06
4.01565e-08
-9.37061e-07
9.28286e-08
-8.15911e-07
1.27457e-07
-6.99337e-07
1.52983e-07
-5.84074e-07
1.7604e-07
-4.67384e-07
1.97801e-07
-3.47872e-07
2.19815e-07
-2.27218e-07
2.40089e-07
-1.05884e-07
2.57125e-07
2.6505e-07
-1.00935e-06
4.62222e-07
7.38745e-07
-8.68259e-07
4.71229e-07
6.75354e-07
-7.50592e-07
4.76165e-07
6.0636e-07
-6.36091e-07
4.88045e-07
5.60184e-07
-5.14659e-07
5.05689e-07
5.3817e-07
-3.89285e-07
5.21181e-07
5.25953e-07
-2.5921e-07
5.31545e-07
5.19517e-07
-1.35853e-07
5.49128e-07
4.91283e-07
5.2497e-07
4.87535e-07
-1.14881e-06
2.57626e-07
3.96838e-07
-9.90757e-07
3.0443e-07
4.55189e-07
-8.55889e-07
3.15518e-07
4.48862e-07
-7.35109e-07
3.20018e-07
4.31325e-07
-6.18979e-07
3.27064e-07
4.20673e-07
-5.01779e-07
3.37096e-07
4.18984e-07
-3.8395e-07
3.47192e-07
4.21376e-07
-2.64776e-07
3.5249e-07
4.24814e-07
-1.34869e-07
3.56547e-07
4.18151e-07
3.23868e-07
4.11675e-07
-1.09919e-06
1.36119e-07
2.06818e-07
-9.64423e-07
1.55941e-07
2.64481e-07
-8.37543e-07
1.61468e-07
2.89689e-07
-7.17635e-07
1.63466e-07
3.02941e-07
-6.00317e-07
1.66439e-07
3.14821e-07
-4.82049e-07
1.70627e-07
3.27496e-07
-3.61794e-07
1.7513e-07
3.40508e-07
-2.39965e-07
1.7649e-07
3.51452e-07
-1.14582e-07
1.75765e-07
3.56162e-07
1.5487e-07
3.52025e-07
-1.04851e-06
6.32653e-08
-9.27094e-07
1.27349e-07
-8.08209e-07
1.70041e-07
-6.92736e-07
2.00976e-07
-5.78045e-07
2.27788e-07
-4.61782e-07
2.52166e-07
-3.42783e-07
2.75945e-07
-2.22865e-07
2.96661e-07
-1.02925e-07
3.1295e-07
3.16995e-07
-1.01558e-06
4.00544e-07
6.87757e-07
-8.76021e-07
4.27081e-07
6.6361e-07
-7.54646e-07
4.44607e-07
6.23279e-07
-6.36715e-07
4.6388e-07
5.96091e-07
-5.13869e-07
4.84786e-07
5.86288e-07
-3.88945e-07
5.0192e-07
5.82569e-07
-2.60671e-07
5.1259e-07
5.80963e-07
-1.38532e-07
5.33121e-07
5.56981e-07
5.06718e-07
5.48891e-07
-1.13301e-06
2.22909e-07
3.56896e-07
-9.85379e-07
2.71783e-07
4.36319e-07
-8.53494e-07
2.9076e-07
4.53298e-07
-7.32613e-07
3.01692e-07
4.53359e-07
-6.15782e-07
3.12753e-07
4.54969e-07
-4.98468e-07
3.24679e-07
4.61776e-07
-3.81222e-07
3.35557e-07
4.70493e-07
-2.63214e-07
3.40747e-07
4.78648e-07
-1.33989e-07
3.45229e-07
4.76819e-07
3.10381e-07
4.74023e-07
-1.08277e-06
1.20098e-07
1.92458e-07
-9.54349e-07
1.41264e-07
2.66576e-07
-8.30558e-07
1.50069e-07
3.06589e-07
-7.11882e-07
1.54866e-07
3.31092e-07
-5.95107e-07
1.59629e-07
3.5117e-07
-4.77412e-07
1.64711e-07
3.69769e-07
-3.58001e-07
1.69554e-07
3.87101e-07
-2.37263e-07
1.70769e-07
4.00692e-07
-1.13e-07
1.69962e-07
4.07165e-07
1.48143e-07
4.01263e-07
-1.03269e-06
7.60273e-08
-9.15985e-07
1.51911e-07
-7.99839e-07
2.03964e-07
-6.8575e-07
2.41753e-07
-5.71795e-07
2.73462e-07
-4.56085e-07
3.01167e-07
-3.37741e-07
3.27155e-07
-2.18769e-07
3.48459e-07
-1.00308e-07
3.64451e-07
3.6483e-07
-1.01486e-06
3.44467e-07
6.19909e-07
-8.78574e-07
3.83456e-07
6.34009e-07
-7.55488e-07
4.10872e-07
6.23862e-07
-6.35434e-07
4.36251e-07
6.17961e-07
-5.11937e-07
4.59901e-07
6.22266e-07
-3.87918e-07
4.78498e-07
6.28816e-07
-2.61824e-07
4.89512e-07
6.33488e-07
-1.41956e-07
5.13417e-07
6.17387e-07
4.85386e-07
5.99748e-07
-1.11339e-06
1.89499e-07
3.05835e-07
-9.7614e-07
2.38989e-07
4.04543e-07
-8.48255e-07
2.64061e-07
4.4481e-07
-7.28254e-07
2.8049e-07
4.63739e-07
-6.11385e-07
2.95178e-07
4.79173e-07
-4.94344e-07
3.08909e-07
4.95727e-07
-3.77873e-07
3.20626e-07
5.11895e-07
-2.61133e-07
3.25873e-07
5.25547e-07
-1.3279e-07
3.31172e-07
5.3072e-07
2.9493e-07
5.31688e-07
-1.0636e-06
1.0317e-07
1.69213e-07
-9.41952e-07
1.25173e-07
2.58746e-07
-8.21876e-07
1.3675e-07
3.13823e-07
-7.04961e-07
1.44139e-07
3.50528e-07
-5.89098e-07
1.50671e-07
3.79813e-07
-4.7223e-07
1.56719e-07
4.05091e-07
-3.53856e-07
1.62027e-07
4.27325e-07
-2.34403e-07
1.6328e-07
4.43832e-07
-1.11463e-07
1.62705e-07
4.52693e-07
1.40481e-07
4.4425e-07
-1.01483e-06
7.80528e-08
-9.03355e-07
1.65606e-07
-7.90416e-07
2.27774e-07
-6.78065e-07
2.73541e-07
-5.65101e-07
3.11168e-07
-4.50154e-07
3.4294e-07
-3.32661e-07
3.71689e-07
-2.14841e-07
3.93918e-07
-9.79703e-08
4.10286e-07
4.0734e-07
-1.00719e-06
2.94932e-07
5.4399e-07
-8.75584e-07
3.4186e-07
5.92593e-07
-7.52639e-07
3.76417e-07
6.11726e-07
-6.31799e-07
4.06369e-07
6.27492e-07
-5.08447e-07
4.32052e-07
6.46599e-07
-3.85661e-07
4.51704e-07
6.64409e-07
-2.61928e-07
4.62869e-07
6.76461e-07
-1.45451e-07
4.89672e-07
6.72847e-07
4.60448e-07
6.38809e-07
-1.09022e-06
1.59051e-07
2.48895e-07
-9.63001e-07
2.07839e-07
3.64416e-07
-8.39893e-07
2.37126e-07
4.26436e-07
-7.21684e-07
2.5784e-07
4.64107e-07
-6.05474e-07
2.75485e-07
4.93846e-07
-4.89121e-07
2.90728e-07
5.20698e-07
-3.73581e-07
3.03139e-07
5.44921e-07
-2.58103e-07
3.08453e-07
5.64485e-07
-1.30954e-07
3.14501e-07
5.78742e-07
2.77784e-07
5.83398e-07
-1.04187e-06
8.69093e-08
1.39358e-07
-9.27146e-07
1.09126e-07
2.42734e-07
-8.11268e-07
1.22779e-07
3.12292e-07
-6.96622e-07
1.32321e-07
3.61402e-07
-5.82084e-07
1.40399e-07
4.00362e-07
-4.66348e-07
1.47339e-07
4.32744e-07
-3.49228e-07
1.53095e-07
4.60249e-07
-2.31269e-07
1.54458e-07
4.79868e-07
-1.09946e-07
1.54155e-07
4.91716e-07
1.31908e-07
4.8018e-07
-9.95032e-07
7.01417e-08
-8.89009e-07
1.68708e-07
-7.79656e-07
2.41201e-07
-6.69415e-07
2.95622e-07
-5.57755e-07
3.39907e-07
-4.43834e-07
3.76357e-07
-3.2742e-07
4.0837e-07
-2.10944e-07
4.319e-07
-9.58231e-08
4.49319e-07
4.43425e-07
-9.9311e-07
2.51964e-07
4.65831e-07
-8.67241e-07
3.03124e-07
5.43947e-07
-7.4599e-07
3.42275e-07
5.8984e-07
-6.25596e-07
3.75247e-07
6.26215e-07
-5.0311e-07
4.02174e-07
6.59794e-07
-3.81659e-07
4.223e-07
6.88949e-07
-2.60037e-07
4.33161e-07
7.08829e-07
-1.47623e-07
4.60733e-07
7.23067e-07
4.28939e-07
6.65384e-07
-1.06392e-06
1.32321e-07
1.89784e-07
-9.46196e-07
1.79318e-07
3.19341e-07
-8.28393e-07
2.11078e-07
4.00679e-07
-7.12754e-07
2.348e-07
4.55943e-07
-5.97864e-07
2.54607e-07
4.99596e-07
-4.82603e-07
2.70953e-07
5.36658e-07
-3.6809e-07
2.83773e-07
5.68934e-07
-2.53726e-07
2.89023e-07
5.9426e-07
-1.28157e-07
2.9515e-07
6.18756e-07
2.59214e-07
6.24966e-07
-1.01787e-06
7.21678e-08
1.04828e-07
-9.09988e-07
9.40172e-08
2.2015e-07
-7.98642e-07
1.09009e-07
3.03014e-07
-6.86717e-07
1.2016e-07
3.64116e-07
-5.73922e-07
1.2945e-07
4.12724e-07
-4.59641e-07
1.37113e-07
4.52303e-07
-3.44e-07
1.43204e-07
4.85178e-07
-2.2775e-07
1.44665e-07
5.07975e-07
-1.08422e-07
1.44389e-07
5.23148e-07
1.22452e-07
5.08519e-07
-9.73365e-07
5.36899e-08
-8.72857e-07
1.62217e-07
-7.67377e-07
2.4473e-07
-6.59601e-07
3.08006e-07
-5.49582e-07
3.59338e-07
-4.36982e-07
4.0087e-07
-3.21891e-07
4.36484e-07
-2.06949e-07
4.61623e-07
-9.37883e-08
4.80548e-07
4.72089e-07
2.00712e-06
-1.50067e-06
3.45983e-07
3.66431e-06
-9.83122e-07
3.20484e-06
4.83859e-06
-4.85175e-07
5.15524e-06
4.37067e-06
2.33643e-07
6.57623e-06
2.53824e-06
1.37828e-06
8.10539e-06
1.22051e-06
1.84608e-06
8.26443e-06
7.7759e-07
1.39248e-06
6.51067e-06
4.01286e-07
9.1202e-07
4.72943e-06
6.65254e-07
3.94358e-06
-7.46414e-08
-1.01434e-06
9.15503e-07
2.19855e-07
-1.40884e-07
2.58555e-06
4.13532e-08
7.25875e-07
3.49262e-06
-2.82391e-07
1.26614e-06
3.73197e-06
-3.52806e-07
1.65783e-06
4.17241e-06
-7.51334e-08
1.76589e-06
4.60669e-06
1.63947e-07
1.47617e-06
4.23213e-06
1.39882e-07
1.12895e-06
3.60531e-06
9.19774e-07
3.29479e-06
-1.47578e-06
-2.8205e-07
1.07372e-06
-1.3587e-06
2.61443e-07
1.54325e-06
-1.26187e-06
7.3241e-07
2.04938e-06
-1.02857e-06
1.10402e-06
2.67931e-06
-6.54742e-07
1.38763e-06
3.18551e-06
-2.54205e-07
1.49101e-06
3.40046e-06
-1.76342e-09
1.35365e-06
3.26118e-06
5.46995e-08
1.16148e-06
2.96953e-06
1.0341e-06
2.8056e-06
-1.53561e-06
1.0142e-08
8.80847e-07
-1.37475e-06
3.39355e-07
1.25882e-06
-1.18874e-06
6.68028e-07
1.61774e-06
-9.62913e-07
9.45191e-07
1.93167e-06
-6.78456e-07
1.14577e-06
2.20971e-06
-3.75901e-07
1.22365e-06
2.39174e-06
-1.49211e-07
1.16947e-06
2.40255e-06
-3.99141e-08
1.07665e-06
2.29877e-06
2.23197e-06
-1.35246e-06
1.65126e-07
9.75005e-07
-1.20668e-06
3.9133e-07
1.16532e-06
-1.0568e-06
6.06394e-07
1.34226e-06
-8.63139e-07
7.93251e-07
1.53936e-06
-6.27805e-07
9.32343e-07
1.72115e-06
-3.86831e-07
9.94203e-07
1.82867e-06
-1.91825e-07
9.81033e-07
1.85151e-06
9.05902e-07
1.74251e-06
-1.22612e-06
2.45693e-07
8.44844e-07
-1.08048e-06
4.0056e-07
1.00202e-06
-9.3494e-07
5.45085e-07
1.11633e-06
-7.72344e-07
6.69602e-07
1.2246e-06
-5.8957e-07
7.63944e-07
1.33017e-06
-4.06965e-07
8.09351e-07
1.40338e-06
-2.51379e-07
8.12418e-07
1.4387e-06
7.53822e-07
1.4264e-06
-1.11548e-06
2.71752e-07
7.04886e-07
-9.80163e-07
3.81831e-07
8.2918e-07
-8.45917e-07
4.77332e-07
9.0988e-07
-7.04033e-07
5.58623e-07
9.81206e-07
-5.53068e-07
6.21539e-07
1.04968e-06
-4.07821e-07
6.5548e-07
1.10297e-06
-2.84275e-07
6.66684e-07
1.13963e-06
6.45576e-07
1.19221e-06
-1.03714e-06
2.56864e-07
5.33939e-07
-9.09011e-07
3.34526e-07
6.45967e-07
-7.83485e-07
3.98213e-07
7.1705e-07
-6.56824e-07
4.51892e-07
7.75483e-07
-5.28102e-07
4.94732e-07
8.29793e-07
-4.10394e-07
5.24347e-07
8.79691e-07
-3.10699e-07
5.41523e-07
9.24634e-07
5.76133e-07
1.05477e-06
-9.73541e-07
2.15123e-07
3.89065e-07
-8.54049e-07
2.67632e-07
4.91348e-07
-7.35704e-07
3.09178e-07
5.6053e-07
-6.16814e-07
3.4374e-07
6.15478e-07
-4.95811e-07
3.71142e-07
6.6238e-07
-3.75577e-07
3.91092e-07
7.0197e-07
-2.55038e-07
4.01019e-07
7.28794e-07
-1.41295e-07
4.25029e-07
7.60427e-07
3.83527e-07
6.83818e-07
-1.03501e-06
1.09499e-07
1.30947e-07
-9.26134e-07
1.53876e-07
2.71717e-07
-8.13934e-07
1.86617e-07
3.69493e-07
-7.01483e-07
2.12139e-07
4.40531e-07
-5.88505e-07
2.33303e-07
4.97055e-07
-4.74718e-07
2.50301e-07
5.43712e-07
-3.61288e-07
2.63181e-07
5.83415e-07
-2.4774e-07
2.68163e-07
6.13568e-07
-1.23737e-07
2.73074e-07
6.46708e-07
2.38956e-07
6.45799e-07
-9.91943e-07
5.93509e-08
6.71404e-08
-8.9065e-07
8.03395e-08
1.92392e-07
-7.84024e-07
9.59851e-08
2.87021e-07
-6.75195e-07
1.08183e-07
3.59242e-07
-5.64536e-07
1.18311e-07
4.17057e-07
-4.52037e-07
1.26483e-07
4.63621e-07
-3.38103e-07
1.32742e-07
5.01684e-07
-2.23764e-07
1.34246e-07
5.27553e-07
-1.06818e-07
1.33513e-07
5.45764e-07
1.12035e-07
5.28622e-07
-9.5001e-07
3.02899e-08
-8.54922e-07
1.47468e-07
-7.53501e-07
2.39294e-07
-6.48505e-07
3.11194e-07
-5.40466e-07
3.69609e-07
-4.29495e-07
4.16382e-07
-3.15981e-07
4.55712e-07
-2.02754e-07
4.82642e-07
-9.17918e-08
5.03099e-07
4.92332e-07
2.41284e-07
-8.56259e-07
1.96749e-07
1.25704e-06
-4.93084e-07
2.68217e-06
1.64278e-06
5.93166e-08
4.71019e-06
1.11636e-06
8.02802e-07
6.29985e-06
4.82476e-07
1.43275e-06
7.30653e-06
3.94825e-07
1.41822e-06
6.93386e-06
4.17935e-07
1.02831e-06
5.45924e-06
2.34499e-07
7.10156e-07
4.20271e-06
5.38964e-07
3.63911e-06
-1.40776e-06
-4.80797e-07
2.28296e-07
-1.15827e-06
1.29225e-07
1.71376e-06
-1.00757e-06
6.96763e-07
2.70447e-06
-8.83267e-07
1.10392e-06
3.30655e-06
-5.93088e-07
1.38752e-06
3.92746e-06
-1.86763e-07
1.41108e-06
4.20751e-06
5.2638e-08
1.17701e-06
3.84403e-06
7.04967e-08
9.28815e-07
3.36879e-06
7.75463e-07
3.12879e-06
-1.65128e-06
-1.18865e-07
5.7925e-07
-1.51759e-06
2.92988e-07
1.24579e-06
-1.33131e-06
6.66993e-07
1.89287e-06
-1.04208e-06
9.76198e-07
2.5178e-06
-6.63038e-07
1.19732e-06
2.99667e-06
-2.91861e-07
1.25279e-06
3.18757e-06
-5.93264e-08
1.13866e-06
3.067e-06
1.34712e-08
9.92642e-07
2.83291e-06
8.97431e-07
2.69711e-06
-1.50819e-06
3.85924e-08
5.93804e-07
-1.35709e-06
3.24805e-07
1.07589e-06
-1.16828e-06
6.06167e-07
1.48976e-06
-9.3709e-07
8.38771e-07
1.8379e-06
-6.60495e-07
1.00205e-06
2.12838e-06
-3.80142e-07
1.05977e-06
2.30441e-06
-1.71055e-07
1.01677e-06
2.31534e-06
-5.7406e-08
9.41702e-07
2.23606e-06
8.93012e-07
2.17898e-06
-1.32572e-06
1.45773e-07
7.17662e-07
-1.18872e-06
3.53037e-07
1.00009e-06
-1.03174e-06
5.46836e-07
1.24461e-06
-8.37858e-07
7.10975e-07
1.47328e-06
-6.12697e-07
8.30302e-07
1.66774e-06
-3.88666e-07
8.82345e-07
1.78206e-06
-2.05881e-07
8.74139e-07
1.81136e-06
-9.0599e-08
8.20943e-07
1.74799e-06
8.06824e-07
1.70368e-06
-1.19897e-06
2.06391e-07
6.46194e-07
-1.06187e-06
3.54191e-07
8.63769e-07
-9.16212e-07
4.8941e-07
1.02809e-06
-7.54409e-07
6.03422e-07
1.17035e-06
-5.76828e-07
6.88202e-07
1.29469e-06
-4.01155e-07
7.2984e-07
1.38021e-06
-2.47297e-07
7.35858e-07
1.42312e-06
-1.34793e-07
6.99528e-07
1.43531e-06
6.96475e-07
1.39839e-06
-1.09057e-06
2.29062e-07
5.54725e-07
-9.62904e-07
3.3556e-07
7.20145e-07
-8.30642e-07
4.27973e-07
8.39056e-07
-6.90278e-07
5.05475e-07
9.38789e-07
-5.42105e-07
5.64367e-07
1.02534e-06
-3.97758e-07
5.96914e-07
1.09155e-06
-2.65371e-07
6.08472e-07
1.13462e-06
-1.62669e-07
5.9572e-07
1.19332e-06
5.83819e-07
1.12775e-06
-1.01214e-06
2.18146e-07
4.27603e-07
-8.91518e-07
2.93954e-07
5.66948e-07
-7.69317e-07
3.57225e-07
6.65597e-07
-6.44359e-07
4.10078e-07
7.45922e-07
-5.16728e-07
4.51369e-07
8.1516e-07
-3.94975e-07
4.79355e-07
8.75497e-07
-2.79917e-07
4.94062e-07
9.23986e-07
-1.84744e-07
5.13895e-07
1.04143e-06
4.79785e-07
9.76512e-07
-9.49507e-07
1.83763e-07
3.15722e-07
-8.36686e-07
2.35496e-07
4.36985e-07
-7.22138e-07
2.77639e-07
5.25567e-07
-6.05627e-07
3.12569e-07
5.96477e-07
-4.86657e-07
3.39776e-07
6.55002e-07
-3.67491e-07
3.58984e-07
7.03175e-07
-2.47221e-07
3.67499e-07
7.35087e-07
-1.22747e-07
3.80508e-07
7.6934e-07
3.40078e-07
7.00779e-07
-1.00406e-06
9.04244e-08
7.38222e-08
-9.03318e-07
1.31616e-07
2.23121e-07
-7.96819e-07
1.64144e-07
3.34346e-07
-6.88012e-07
1.90404e-07
4.1896e-07
-5.77461e-07
2.12185e-07
4.86889e-07
-4.65536e-07
2.29405e-07
5.42158e-07
-3.53338e-07
2.42027e-07
5.88174e-07
-2.40703e-07
2.46607e-07
6.21825e-07
-1.18919e-07
2.48715e-07
6.56716e-07
2.19227e-07
6.47731e-07
-9.64436e-07
4.85559e-08
2.74487e-08
-8.69374e-07
6.83149e-08
1.60632e-07
-7.67533e-07
8.40252e-08
2.65298e-07
-6.62089e-07
9.67473e-08
3.47456e-07
-5.53923e-07
1.07346e-07
4.13731e-07
-4.43527e-07
1.15805e-07
4.66825e-07
-3.3154e-07
1.22067e-07
5.09656e-07
-2.19348e-07
1.23573e-07
5.38395e-07
-1.05186e-07
1.21818e-07
5.585e-07
1.01731e-07
5.40932e-07
-9.25186e-07
1.51454e-09
-8.35311e-07
1.25909e-07
-7.38038e-07
2.26047e-07
-6.36089e-07
3.05992e-07
-5.30348e-07
3.71213e-07
-4.21321e-07
4.23161e-07
-3.0965e-07
4.66109e-07
-1.98361e-07
4.94925e-07
-8.98701e-08
5.16427e-07
5.04193e-07
-1.25463e-06
-2.732e-07
8.53072e-08
-7.90145e-07
4.2579e-08
2.17511e-06
-5.63503e-07
4.84406e-07
3.99914e-06
-5.15021e-07
9.24565e-07
5.3268e-06
-2.9571e-07
1.13858e-06
5.94864e-06
4.79525e-08
1.01625e-06
5.57396e-06
1.87277e-07
7.58858e-07
4.56106e-06
1.17423e-07
5.53294e-07
3.71927e-06
4.34998e-07
3.32154e-06
-1.77881e-06
-1.79516e-07
4.87666e-08
-1.57243e-06
2.37079e-07
1.31288e-06
-1.31572e-06
6.39631e-07
2.29254e-06
-1.02605e-06
9.39228e-07
3.00222e-06
-6.38367e-07
1.11807e-06
3.56029e-06
-2.50878e-07
1.10344e-06
3.73283e-06
-3.42602e-08
9.33621e-07
3.45265e-06
1.6452e-08
7.61414e-07
3.10996e-06
6.50598e-07
2.92964e-06
-1.61799e-06
-2.14939e-08
3.48501e-07
-1.49309e-06
2.99317e-07
1.05866e-06
-1.28934e-06
5.99158e-07
1.72959e-06
-9.99387e-07
8.45536e-07
2.32154e-06
-6.48579e-07
1.00743e-06
2.75651e-06
-3.19729e-07
1.03594e-06
2.92622e-06
-1.08053e-07
9.50543e-07
2.8384e-06
-2.06561e-08
8.4347e-07
2.66346e-06
7.72171e-07
2.55488e-06
-1.44631e-06
6.12246e-08
4.17273e-07
-1.30649e-06
3.05282e-07
9.30116e-07
-1.12238e-06
5.40552e-07
1.36425e-06
-8.97004e-07
7.32946e-07
1.72512e-06
-6.37303e-07
8.63441e-07
2.01267e-06
-3.82401e-07
9.07553e-07
2.17789e-06
-1.89695e-07
8.76798e-07
2.19638e-06
-7.28773e-08
8.20243e-07
2.14247e-06
7.82873e-07
2.0954e-06
-1.27913e-06
1.34809e-07
5.27867e-07
-1.15048e-06
3.18102e-07
8.58608e-07
-9.94426e-07
4.88086e-07
1.14103e-06
-8.0645e-07
6.29876e-07
1.38837e-06
-5.94873e-07
7.31167e-07
1.58843e-06
-3.87697e-07
7.75588e-07
1.70685e-06
-2.15902e-07
7.72222e-07
1.74414e-06
-9.56796e-08
7.3541e-07
1.7126e-06
7.20628e-07
1.67024e-06
-1.15843e-06
1.78413e-07
4.88247e-07
-1.03073e-06
3.13677e-07
7.40485e-07
-8.89097e-07
4.36514e-07
9.38037e-07
-7.31834e-07
5.39006e-07
1.10395e-06
-5.61699e-07
6.14365e-07
1.24136e-06
-3.93934e-07
6.52477e-07
1.33556e-06
-2.43934e-07
6.60628e-07
1.38472e-06
-1.17959e-07
6.37976e-07
1.40677e-06
6.31994e-07
1.36906e-06
-1.05671e-06
1.95876e-07
4.27211e-07
-9.37347e-07
2.95062e-07
6.19397e-07
-8.09505e-07
3.81754e-07
7.65974e-07
-6.72875e-07
4.54021e-07
8.87143e-07
-5.29089e-07
5.08382e-07
9.87538e-07
-3.87413e-07
5.392e-07
1.06315e-06
-2.5396e-07
5.50865e-07
1.11093e-06
-1.2683e-07
5.42933e-07
1.16123e-06
5.33806e-07
1.0991e-06
-9.81576e-07
1.86421e-07
3.32548e-07
-8.68714e-07
2.58021e-07
4.91127e-07
-7.51084e-07
3.18889e-07
6.10832e-07
-6.29164e-07
3.69613e-07
7.08409e-07
-5.03904e-07
4.08755e-07
7.89527e-07
-3.81258e-07
4.34882e-07
8.57169e-07
-2.61848e-07
4.47894e-07
9.07547e-07
-1.3383e-07
4.59973e-07
9.96368e-07
4.40031e-07
9.36457e-07
-9.22033e-07
1.57191e-07
2.46714e-07
-8.15905e-07
2.06664e-07
3.82214e-07
-7.0576e-07
2.48024e-07
4.86287e-07
-5.92362e-07
2.82348e-07
5.70345e-07
-4.76064e-07
3.0884e-07
6.38619e-07
-3.58746e-07
3.27086e-07
6.93653e-07
-2.40197e-07
3.34698e-07
7.29735e-07
-1.15307e-07
3.41568e-07
7.62855e-07
3.13852e-07
7.11651e-07
-9.71654e-07
7.47602e-08
1.91439e-08
-8.78286e-07
1.12432e-07
1.74512e-07
-7.7742e-07
1.43842e-07
2.96302e-07
-6.72574e-07
1.69972e-07
3.92165e-07
-5.64897e-07
1.91736e-07
4.69824e-07
-4.55269e-07
2.0881e-07
5.32558e-07
-3.44803e-07
2.20989e-07
5.83805e-07
-2.33879e-07
2.25307e-07
6.20291e-07
-1.15555e-07
2.25421e-07
6.54539e-07
2.01155e-07
6.44873e-07
-9.35709e-07
3.96848e-08
-1.33875e-08
-8.46443e-07
5.79687e-08
1.25829e-07
-7.49347e-07
7.32818e-08
2.38763e-07
-6.47501e-07
8.60847e-08
3.29497e-07
-5.42141e-07
9.68226e-08
4.03284e-07
-4.34164e-07
1.05365e-07
4.62295e-07
-3.24429e-07
1.11519e-07
5.09391e-07
-2.14648e-07
1.13072e-07
5.40849e-07
-1.03498e-07
1.10518e-07
5.62253e-07
9.23976e-08
5.4619e-07
-8.99127e-07
-3.12362e-08
-8.14196e-07
9.89464e-08
-7.21081e-07
2.06213e-07
-6.22382e-07
2.93378e-07
-5.19232e-07
3.64885e-07
-4.1246e-07
4.21753e-07
-3.02936e-07
4.68104e-07
-1.93841e-07
4.98902e-07
-8.80151e-08
5.21119e-07
5.08576e-07
-1.80816e-06
-1.26235e-08
6.38999e-08
-1.5846e-06
2.36645e-07
1.71491e-06
-1.29456e-06
5.23666e-07
3.18543e-06
-9.3824e-07
7.4415e-07
4.22633e-06
-4.98833e-07
8.15263e-07
4.69397e-06
-1.24009e-07
7.23535e-07
4.4756e-06
3.39282e-08
5.65481e-07
3.83764e-06
3.70696e-08
4.32384e-07
3.28375e-06
3.50888e-07
3.00772e-06
-1.72679e-06
-3.35854e-08
5.13126e-08
-1.56433e-06
2.66924e-07
1.12014e-06
-1.30855e-06
5.55078e-07
2.00534e-06
-9.94965e-07
7.64704e-07
2.66807e-06
-6.29687e-07
8.76315e-07
3.13396e-06
-2.95951e-07
8.55665e-07
3.26696e-06
-9.85092e-08
7.40731e-07
3.07996e-06
-2.39429e-08
6.23467e-07
2.84431e-06
5.44421e-07
2.71216e-06
-1.52566e-06
3.35135e-08
2.33516e-07
-1.40721e-06
2.84965e-07
9.22166e-07
-1.20762e-06
5.22515e-07
1.56257e-06
-9.37707e-07
7.13022e-07
2.10331e-06
-6.2637e-07
8.30944e-07
2.49054e-06
-3.3988e-07
8.4897e-07
2.64643e-06
-1.46384e-07
7.89895e-07
2.59574e-06
-4.75037e-08
7.13832e-07
2.47421e-06
6.61067e-07
2.39073e-06
-1.36569e-06
7.6989e-08
2.99362e-07
-1.23705e-06
2.80557e-07
8.05885e-07
-1.06255e-06
4.74194e-07
1.23807e-06
-8.50253e-07
6.30774e-07
1.59507e-06
-6.1223e-07
7.35107e-07
1.87048e-06
-3.82576e-07
7.71011e-07
2.0262e-06
-2.04173e-07
7.51458e-07
2.05642e-06
-8.49351e-08
7.11012e-07
2.02605e-06
6.82602e-07
1.98893e-06
-1.21926e-06
1.26887e-07
3.84171e-07
-1.09938e-06
2.84834e-07
7.34447e-07
-9.49452e-07
4.31001e-07
1.0343e-06
-7.71553e-07
5.5198e-07
1.28927e-06
-5.75302e-07
6.37655e-07
1.48963e-06
-3.84369e-07
6.76382e-07
1.61055e-06
-2.22525e-07
6.77358e-07
1.65639e-06
-9.93353e-08
6.53092e-07
1.64733e-06
6.40868e-07
1.61264e-06
-1.10912e-06
1.57122e-07
3.60812e-07
-9.91196e-07
2.77393e-07
6.3e-07
-8.56273e-07
3.86658e-07
8.47457e-07
-7.06058e-07
4.77493e-07
1.02823e-06
-5.44829e-07
5.44003e-07
1.17378e-06
-3.85694e-07
5.78895e-07
1.27391e-06
-2.40857e-07
5.88725e-07
1.32851e-06
-1.12481e-07
5.75718e-07
1.35577e-06
5.70599e-07
1.32685e-06
-1.01679e-06
1.69303e-07
3.1865e-07
-9.0596e-07
2.59268e-07
5.26688e-07
-7.84066e-07
3.38763e-07
6.91975e-07
-6.52714e-07
4.04998e-07
8.28286e-07
-5.14504e-07
4.54648e-07
9.38683e-07
-3.77016e-07
4.83563e-07
1.021e-06
-2.4516e-07
4.95344e-07
1.07246e-06
-1.15327e-07
4.91228e-07
1.11589e-06
4.83396e-07
1.07098e-06
-9.47162e-07
1.6019e-07
2.47846e-07
-8.41981e-07
2.26203e-07
4.19011e-07
-7.2969e-07
2.83362e-07
5.53942e-07
-6.11818e-07
3.31076e-07
6.64459e-07
-4.89992e-07
3.67698e-07
7.54651e-07
-3.68621e-07
3.91939e-07
8.27422e-07
-2.48351e-07
4.03751e-07
8.78872e-07
-1.1807e-07
4.111e-07
9.46214e-07
3.94972e-07
9.06812e-07
-8.92071e-07
1.34755e-07
1.82224e-07
-7.92454e-07
1.80996e-07
3.27804e-07
-6.87071e-07
2.2057e-07
4.43696e-07
-5.77352e-07
2.53561e-07
5.38141e-07
-4.64286e-07
2.78951e-07
6.143e-07
-3.49567e-07
2.96153e-07
6.7472e-07
-2.33629e-07
3.03201e-07
7.14347e-07
-1.12233e-07
3.06347e-07
7.46212e-07
2.84366e-07
7.10023e-07
-9.38302e-07
6.20837e-08
-3.28398e-08
-8.51556e-07
9.60924e-08
1.26429e-07
-7.56139e-07
1.25747e-07
2.56135e-07
-6.55442e-07
1.51074e-07
3.60965e-07
-5.51003e-07
1.72315e-07
4.46631e-07
-4.44076e-07
1.88944e-07
5.15638e-07
-3.35832e-07
2.00572e-07
5.71143e-07
-2.27073e-07
2.0472e-07
6.10013e-07
-1.12549e-07
2.0349e-07
6.42872e-07
1.82774e-07
6.33917e-07
-9.06082e-07
3.2563e-08
-5.47889e-08
-8.22158e-07
4.92161e-08
8.87806e-08
-7.29691e-07
6.3787e-08
2.08256e-07
-6.31577e-07
7.63152e-08
3.06141e-07
-5.29282e-07
8.69203e-08
3.86383e-07
-4.24012e-07
9.53686e-08
4.506e-07
-3.16817e-07
1.01337e-07
5.01431e-07
-2.0964e-07
1.02951e-07
5.35441e-07
-1.01601e-07
9.98488e-08
5.57855e-07
8.33988e-08
5.43964e-07
-8.72095e-07
-6.67259e-08
-7.91785e-07
6.78525e-08
-7.02773e-07
1.80988e-07
-6.07472e-07
2.74393e-07
-5.07165e-07
3.51499e-07
-4.02933e-07
4.12889e-07
-2.95842e-07
4.6235e-07
-1.8916e-07
4.95171e-07
-8.61318e-08
5.1794e-07
5.05843e-07
-1.74464e-06
4.61496e-08
6.44786e-08
-1.60106e-06
2.28165e-07
1.34317e-06
-1.31777e-06
4.10151e-07
2.49199e-06
-9.45893e-07
5.37517e-07
3.31693e-06
-5.45418e-07
5.75464e-07
3.71803e-06
-2.24831e-07
5.21529e-07
3.63348e-06
-6.50289e-08
4.25656e-07
3.25219e-06
-1.68332e-08
3.39563e-07
2.89599e-06
2.83605e-07
2.70728e-06
-1.5768e-06
2.86353e-08
5.86006e-08
-1.43976e-06
2.48995e-07
9.62277e-07
-1.21089e-06
4.54979e-07
1.73164e-06
-9.26271e-07
6.02569e-07
2.3184e-06
-6.101e-07
6.77865e-07
2.71539e-06
-3.26498e-07
6.6337e-07
2.84152e-06
-1.44713e-07
5.89302e-07
2.73453e-06
-5.30603e-08
5.10845e-07
2.58138e-06
4.55151e-07
2.48756e-06
-1.41314e-06
6.09099e-08
1.63244e-07
-1.30112e-06
2.57123e-07
8.02015e-07
-1.11552e-06
4.42495e-07
1.38946e-06
-8.73338e-07
5.88764e-07
1.87493e-06
-6.01815e-07
6.77571e-07
2.21931e-06
-3.52699e-07
6.92884e-07
2.3678e-06
-1.74639e-07
6.54833e-07
2.35215e-06
-6.77165e-08
6.0245e-07
2.27568e-06
5.64074e-07
2.21409e-06
-1.276e-06
8.52626e-08
2.11952e-07
-1.15866e-06
2.51998e-07
6.93662e-07
-9.9713e-07
4.09431e-07
1.10961e-06
-8.01894e-07
5.3624e-07
1.45236e-06
-5.86679e-07
6.20563e-07
1.71228e-06
-3.80245e-07
6.51503e-07
1.86114e-06
-2.14296e-07
6.41147e-07
1.90415e-06
-9.3793e-08
6.13699e-07
1.8943e-06
5.92498e-07
1.86672e-06
-1.15208e-06
1.19225e-07
2.71584e-07
-1.04147e-06
2.52864e-07
6.2298e-07
-9.00724e-07
3.76832e-07
9.26144e-07
-7.35111e-07
4.79269e-07
1.18062e-06
-5.5455e-07
5.51795e-07
1.37784e-06
-3.78879e-07
5.86175e-07
1.5002e-06