/*--------------------------------*- C++ -*----------------------------------*\
| =========                 |                                                 |
| \\      /  F ield         | OpenFOAM: The Open Source CFD Toolbox           |
|  \\    /   O peration     | Version:  2.3.1                                 |
|   \\  /    A nd           | Web:      www.OpenFOAM.org                      |
|    \\/     M anipulation  |                                                 |
\*---------------------------------------------------------------------------*/
FoamFile
{
    version     2.0;
    format      ascii;
    class       volScalarField;
    location    "20";
    object      Sed;
}
// * * * * * * * * * * * * * * * * * * * * * * * * * * * * * * * * * * * * * //

dimensions      [0 0 0 0 0 0 0];

internalField   nonuniform List<scalar> 
37784
(
5.49698e-212
4.44868e-214
7.41302e-216
2.24519e-215
7.64997e-216
1.18079e-216
6.35533e-218
7.6764e-220
6.11372e-222
2.46757e-213
2.14329e-214
1.78609e-216
3.21696e-218
7.03326e-218
2.16591e-218
3.2751e-219
1.64222e-220
1.99798e-222
1.5815e-224
6.16259e-216
5.12474e-217
5.0889e-219
9.86025e-221
1.46916e-220
4.17067e-221
6.19485e-222
2.91481e-223
3.56714e-225
2.83579e-227
7.88348e-219
6.44555e-220
7.79548e-222
1.61766e-223
1.68371e-223
4.5134e-224
6.59181e-225
2.94343e-226
3.69963e-228
3.09054e-230
4.9093e-211
6.28033e-213
8.83952e-215
3.06965e-215
1.13926e-215
1.91355e-216
1.11324e-217
1.98349e-219
1.61611e-221
3.46558e-212
2.82421e-213
4.01308e-215
5.97848e-217
1.74879e-217
5.94002e-218
9.49388e-219
5.14422e-220
8.74217e-222
5.73899e-224
1.46677e-214
1.19394e-215
1.87715e-217
2.97493e-219
7.60211e-220
2.37519e-220
3.598e-221
1.80469e-222
2.85742e-224
1.51727e-226
3.51333e-217
2.78203e-218
4.55607e-220
7.53439e-222
1.85622e-222
5.42036e-223
7.78041e-224
3.62146e-225
5.3739e-227
2.56982e-229
5.47633e-211
1.071e-212
2.31272e-214
3.50403e-215
9.21134e-216
1.39182e-216
8.30359e-218
1.70435e-219
1.34929e-221
4.68057e-212
4.30355e-213
9.61912e-215
2.12842e-216
2.80127e-217
6.8425e-218
9.78476e-219
5.40771e-220
1.0164e-221
5.79718e-224
2.84224e-214
2.63493e-215
6.35701e-217
1.43668e-218
1.71596e-219
3.90633e-220
5.2631e-221
2.67741e-222
4.52096e-224
1.94033e-226
9.48677e-217
8.45301e-218
2.04006e-219
4.66958e-221
5.53163e-222
1.19349e-222
1.51771e-223
7.1124e-225
1.08467e-226
3.96667e-229
1.93412e-211
5.2458e-213
1.78523e-214
2.29446e-215
4.45944e-216
5.79519e-217
3.33557e-218
7.07784e-220
5.47612e-222
1.91244e-212
1.90218e-213
5.85958e-215
1.97071e-216
2.26234e-217
4.12677e-218
5.07496e-219
2.69875e-220
5.15703e-222
2.77074e-224
1.44687e-214
1.45634e-215
4.75795e-217
1.58915e-218
1.68954e-219
2.90191e-220
3.36645e-221
1.64953e-222
2.81635e-224
1.15593e-226
5.74784e-217
5.55198e-218
1.79802e-219
6.0045e-221
6.34998e-222
1.04923e-222
1.15464e-223
5.24717e-225
8.12167e-227
2.89909e-229
4.17722e-212
1.60378e-213
7.9433e-215
9.85509e-216
1.54789e-216
1.74607e-217
9.45116e-219
1.99709e-220
1.51454e-222
4.59191e-213
4.98066e-214
2.08147e-215
9.93866e-217
1.1299e-217
1.68414e-218
1.8037e-219
9.05676e-221
1.72259e-222
9.1725e-225
4.08865e-215
4.46598e-216
1.92603e-217
8.99508e-219
9.6425e-220
1.37124e-220
1.39581e-221
6.53601e-223
1.13526e-224
4.92873e-227
1.79127e-217
1.87947e-218
7.9979e-220
3.74075e-221
4.01462e-222
5.59462e-223
5.49427e-224
2.44747e-225
4.00761e-227
1.58662e-229
7.04826e-213
3.75929e-214
2.47737e-215
3.0735e-216
4.20629e-217
4.22958e-218
2.14664e-219
4.48261e-221
3.40202e-223
8.00083e-214
9.85574e-215
5.47152e-216
3.44089e-217
3.98516e-218
5.23038e-219
5.02621e-220
2.39935e-221
4.61446e-223
2.60706e-225
8.10994e-216
9.93129e-217
5.56023e-218
3.40156e-219
3.77633e-220
4.81383e-221
4.47717e-222
2.05465e-223
3.80081e-225
1.90314e-227
3.77225e-218
4.44819e-219
2.45986e-220
1.51694e-221
1.7128e-222
2.20877e-223
2.05211e-224
9.3777e-226
1.714e-227
7.83917e-230
1.04782e-213
7.40789e-215
6.01897e-216
7.55228e-217
9.46683e-218
8.74817e-219
4.21961e-220
8.86408e-222
7.06635e-224
1.16184e-214
1.65881e-215
1.18235e-216
9.17903e-218
1.09077e-218
1.32812e-219
1.19108e-220
5.57263e-222
1.13668e-223
7.33519e-226
1.29798e-216
1.81699e-217
1.28864e-218
9.79009e-220
1.13742e-220
1.38348e-221
1.24314e-222
5.88872e-224
1.22738e-225
7.25761e-228
6.24111e-219
8.45175e-220
5.97096e-221
4.66332e-222
5.68996e-223
7.36192e-224
6.93125e-225
3.40984e-226
7.02657e-228
3.55696e-230
1.45153e-214
1.28811e-215
1.216e-216
1.54698e-217
1.8408e-218
1.61673e-219
7.64726e-221
1.68866e-222
1.49468e-224
1.53173e-215
2.52295e-216
2.21944e-217
2.02153e-218
2.47559e-219
2.92771e-220
2.57651e-221
1.2462e-222
2.85125e-224
2.14e-226
1.82893e-217
2.92928e-218
2.55665e-219
2.3193e-220
2.86705e-221
3.55124e-222
3.2946e-223
1.69777e-224
4.02801e-226
2.66668e-228
8.93352e-220
1.39587e-220
1.23537e-221
1.19919e-222
1.64553e-223
2.29962e-224
2.30518e-225
1.22839e-226
2.72304e-228
1.43234e-230
1.91403e-215
2.02094e-216
2.13323e-217
2.75906e-218
3.22458e-219
2.81051e-220
1.37272e-221
3.3516e-223
3.28214e-225
1.91569e-216
3.56879e-217
3.72276e-218
3.85828e-219
4.93714e-220
5.98414e-221
5.49468e-222
2.90054e-223
7.51934e-225
6.18671e-227
2.38477e-218
4.31965e-219
4.51308e-220
4.82299e-221
6.57514e-222
8.88428e-223
8.94559e-224
5.05883e-225
1.29974e-226
8.97262e-229
1.17403e-220
2.10486e-221
2.31206e-222
2.83169e-223
4.57658e-224
7.16917e-225
7.65002e-226
4.2589e-227
9.58191e-229
5.02286e-231
2.41166e-216
2.89955e-217
3.36136e-218
4.47389e-219
5.38239e-220
4.92175e-221
2.6187e-222
7.10309e-224
6.99028e-226
2.3124e-217
4.75438e-218
5.69797e-219
6.68164e-220
9.24132e-221
1.22562e-221
1.23365e-222
7.18496e-224
2.00241e-225
1.66397e-227
2.95598e-219
5.96675e-220
7.36121e-221
9.45453e-222
1.49651e-222
2.30369e-223
2.51638e-224
1.50153e-225
3.91962e-227
2.68586e-229
1.47404e-221
3.02882e-222
4.19969e-223
6.71618e-224
1.29731e-224
2.2318e-225
2.44749e-226
1.36411e-227
2.98906e-229
1.52734e-231
6.07357e-208
1.75794e-207
1.26606e-207
2.47833e-208
3.26997e-209
2.71931e-210
8.21558e-212
9.10592e-214
4.65245e-216
7.47124e-207
2.16638e-207
3.15469e-208
2.07246e-209
1.29374e-210
1.06964e-211
3.33272e-213
4.11273e-215
1.86936e-217
4.38745e-208
4.64245e-209
5.12369e-210
4.50383e-211
3.4851e-212
3.25747e-213
1.26775e-214
1.8346e-216
7.82018e-219
8.53176e-210
8.43689e-211
1.06091e-211
1.30483e-212
1.30633e-213
1.28163e-214
5.45386e-216
8.54363e-218
3.67083e-220
2.47527e-211
2.73716e-212
3.58204e-213
5.09202e-214
5.70893e-215
5.35686e-216
2.33127e-217
4.04875e-219
8.83463e-213
1.08294e-213
1.41929e-214
2.04393e-215
2.36097e-216
2.11045e-217
9.42114e-219
1.85447e-220
3.18299e-214
4.13919e-215
5.34986e-216
7.52031e-217
8.78056e-218
7.72894e-219
3.66583e-220
8.33492e-222
1.0505e-215
1.39346e-216
1.7707e-217
2.44411e-218
2.94755e-219
2.70028e-220
1.42131e-221
3.71811e-223
2.90315e-217
3.86881e-218
4.93182e-219
6.98456e-220
9.21681e-221
9.27861e-222
5.44899e-223
1.54329e-224
1.33953e-226
2.70554e-218
6.02675e-219
8.19882e-220
1.11347e-220
1.75819e-221
2.6785e-222
2.95882e-223
1.82809e-224
5.11543e-226
4.05983e-228
3.54476e-220
7.93218e-221
1.17448e-221
1.89562e-222
3.59635e-223
6.21192e-224
7.07041e-225
4.24762e-226
1.07853e-227
7.15861e-230
1.84082e-222
4.41541e-223
8.05855e-224
1.6838e-224
3.73444e-225
6.71141e-226
7.3042e-227
3.96478e-228
8.27548e-230
4.08196e-232
9.45293e-210
4.73915e-209
4.31574e-209
9.96681e-210
1.42476e-210
1.04365e-211
2.38979e-213
2.19668e-215
1.01611e-217
1.52055e-208
5.7623e-209
8.47964e-210
5.83345e-211
5.42866e-212
4.46849e-213
1.20027e-214
1.34057e-216
5.43547e-219
9.4704e-210
1.28488e-210
1.82942e-211
1.83278e-212
1.86096e-213
1.79191e-214
6.37229e-216
8.74244e-218
3.5416e-220
3.46818e-211
4.17375e-212
6.25115e-213
8.12363e-214
9.06756e-215
8.81772e-216
3.52276e-217
5.48284e-219
2.54037e-221
1.58977e-212
1.99139e-213
2.89155e-214
4.12184e-215
4.78706e-216
4.4248e-217
1.88341e-218
3.39823e-220
1.98942e-222
7.30384e-214
9.8008e-215
1.37845e-215
1.97718e-216
2.33579e-217
2.10022e-218
9.67321e-220
2.0693e-221
1.51228e-223
3.08564e-215
4.32065e-216
5.94816e-217
8.46576e-218
1.03501e-218
9.5853e-220
4.94987e-221
1.24067e-222
1.0368e-224
1.12978e-216
1.61816e-217
2.22133e-218
3.23141e-219
4.29381e-220
4.33348e-221
2.52409e-222
7.01106e-224
6.12338e-226
3.35156e-218
4.91957e-219
7.07621e-220
1.12937e-220
1.72028e-221
1.9114e-222
1.19621e-223
3.41725e-225
2.90167e-227
3.08118e-219
7.38257e-220
1.16108e-220
1.91894e-221
3.61708e-222
6.27158e-223
7.29141e-224
4.55881e-225
1.24465e-226
9.62445e-229
4.21236e-221
1.06144e-221
1.98042e-222
4.11932e-223
9.1251e-224
1.67419e-224
1.90501e-225
1.1191e-226
2.72782e-228
1.76225e-230
2.42492e-223
7.05756e-224
1.72305e-224
4.40533e-225
1.05191e-225
1.89286e-226
2.0022e-227
1.04574e-228
2.07373e-230
9.93726e-233
1.14112e-211
1.01098e-210
1.24387e-210
3.33559e-211
4.96868e-212
3.09469e-213
5.42723e-215
4.27806e-217
1.84631e-219
2.16558e-210
9.6732e-211
1.73337e-211
1.64702e-212
2.04484e-213
1.59568e-214
3.85939e-216
4.03503e-218
1.49392e-220
2.40556e-211
3.97655e-212
6.82111e-213
7.99633e-214
9.71351e-215
9.06975e-216
3.05191e-217
4.16901e-219
1.7524e-221
1.62766e-212
2.2426e-213
3.73423e-214
5.07337e-215
6.13046e-216
5.79213e-217
2.27018e-218
3.74376e-220
2.0117e-222
1.05579e-213
1.45098e-214
2.25814e-215
3.24473e-216
3.95096e-217
3.64997e-218
1.60878e-219
3.2429e-221
2.22375e-223
5.99087e-215
8.58952e-216
1.28094e-216
1.8653e-217
2.34283e-218
2.20735e-219
1.11067e-220
2.6903e-222
2.1749e-224
2.90747e-216
4.33209e-217
6.37039e-218
9.54565e-219
1.29663e-219
1.3184e-220
7.55315e-222
2.06232e-223
1.79012e-225
1.17177e-217
1.81227e-218
2.76046e-219
4.49745e-220
6.92608e-221
7.72008e-222
4.81526e-223
1.37797e-224
1.20376e-226
3.75218e-219
6.20296e-220
1.06093e-220
2.01188e-221
3.51579e-222
4.13377e-223
2.63141e-224
7.43091e-226
6.21112e-228
3.46597e-220
9.07236e-221
1.73858e-221
3.64225e-222
8.09138e-223
1.50847e-223
1.76355e-224
1.08277e-225
2.86269e-227
2.16549e-229
5.19537e-222
1.53939e-222
3.76332e-223
9.66996e-224
2.34268e-224
4.33921e-225
4.81387e-226
2.7309e-227
6.39183e-229
4.02755e-231
3.62185e-224
1.30649e-224
4.01958e-225
1.14957e-225
2.81033e-226
4.94237e-227
5.03506e-228
2.52345e-229
4.77883e-231
2.23408e-233
1.14187e-213
1.63807e-212
2.81435e-212
8.76581e-213
1.33657e-213
7.18168e-215
1.01777e-216
6.93397e-219
2.89804e-221
3.37776e-212
1.57056e-212
3.63839e-213
4.73282e-214
6.87595e-215
5.06714e-216
1.16546e-217
1.20558e-219
4.37094e-222
7.72688e-213
1.40894e-213
2.73411e-214
3.62569e-215
4.89372e-216
4.39011e-217
1.47085e-218
2.13707e-220
1.02513e-222
8.34323e-214
1.25176e-214
2.22648e-215
3.16354e-216
4.10646e-217
3.83235e-218
1.56648e-219
2.92081e-221
1.85519e-223
7.11266e-215
1.0439e-215
1.71474e-216
2.54325e-217
3.35481e-218
3.21855e-219
1.5547e-220
3.58919e-222
2.76535e-224
4.82941e-216
7.33401e-217
1.16232e-217
1.79619e-218
2.53515e-219
2.60371e-220
1.45541e-221
3.87518e-223
3.29602e-225
2.66174e-217
4.24335e-218
6.85799e-219
1.15231e-219
1.82175e-220
2.03682e-221
1.25248e-222
3.55491e-224
3.11034e-226
1.18543e-218
2.03413e-219
3.62823e-220
7.0091e-221
1.24221e-221
1.46619e-222
9.34173e-224
2.67023e-225
2.30324e-227
4.21718e-220
8.30549e-221
1.7736e-221
3.98156e-222
7.53218e-223
8.93584e-224
5.60653e-225
1.54555e-226
1.26384e-228
3.99783e-221
1.19859e-221
2.95125e-222
7.65301e-223
1.88146e-223
3.56391e-224
4.0733e-225
2.42204e-226
6.18849e-228
4.56825e-230
7.13101e-223
2.58842e-223
8.0141e-224
2.33373e-224
5.83733e-225
1.05983e-225
1.13373e-226
6.18741e-228
1.39432e-229
8.56705e-232
6.34297e-225
2.73653e-225
9.62084e-226
2.88276e-226
7.01751e-227
1.19349e-227
1.16798e-228
5.6215e-230
1.02216e-231
4.66482e-234
1.17096e-215
2.01438e-214
4.8544e-214
1.77517e-214
2.79528e-215
1.3329e-216
1.63082e-218
1.00885e-220
4.2021e-223
6.45362e-214
3.00224e-214
8.30033e-215
1.34422e-215
2.13573e-216
1.51126e-217
3.50785e-219
3.82535e-221
1.49328e-223
2.8235e-214
5.42917e-215
1.14156e-215
1.6778e-216
2.45559e-217
2.16631e-218
7.67719e-220
1.26287e-221
7.09661e-224
4.44197e-215
7.07004e-216
1.32325e-216
2.0115e-217
2.87131e-218
2.75176e-219
1.23837e-220
2.65281e-222
1.89831e-224
4.78364e-216
7.44911e-217
1.29622e-217
2.08479e-218
3.12431e-219
3.22533e-220
1.72952e-221
4.39815e-223
3.57795e-225
3.8257e-217
6.21656e-218
1.07699e-218
1.8911e-219
3.11399e-220
3.48345e-221
2.08947e-222
5.7939e-224
4.97857e-226
2.39823e-218
4.22393e-219
7.92814e-220
1.58209e-220
2.87379e-221
3.39071e-222
2.13427e-223
6.06466e-225
5.24578e-227
1.20992e-219
2.44533e-220
5.38234e-221
1.23212e-221
2.36664e-222
2.82033e-223
1.77681e-224
4.9798e-226
4.20798e-228
5.0811e-221
1.26766e-221
3.34057e-222
8.35296e-223
1.61077e-223
1.87154e-224
1.14039e-225
3.0516e-227
2.43715e-229
5.04843e-222
1.83182e-222
5.71818e-223
1.69504e-223
4.33078e-224
8.0581e-225
8.89163e-226
5.09848e-227
1.25964e-228
9.07761e-231
1.14738e-223
5.02584e-224
1.79988e-224
5.52847e-225
1.38038e-225
2.42473e-226
2.4931e-227
1.3097e-228
2.85005e-230
1.70901e-232
1.25165e-225
6.03693e-226
2.25232e-226
6.8299e-227
1.63346e-227
2.67724e-228
2.51866e-229
1.16718e-230
2.04657e-232
9.12522e-235
1.45236e-217
2.02447e-216
6.60708e-216
2.86916e-216
4.71337e-217
2.04963e-218
2.31178e-220
1.39115e-222
6.05773e-225
1.38449e-215
6.40545e-216
1.99641e-216
3.83255e-217
6.51776e-218
4.54849e-219
1.1319e-220
1.379e-222
6.06452e-225
1.09351e-215
2.1846e-216
4.9087e-217
8.13887e-218
1.30932e-218
1.17858e-219
4.63707e-221
8.74563e-223
5.48434e-225
2.39897e-216
4.0497e-217
8.03367e-218
1.37691e-218
2.23975e-219
2.27439e-220
1.13605e-221
2.68653e-223
2.04501e-225
3.20536e-217
5.37776e-218
1.02419e-218
1.91455e-219
3.33367e-220
3.69167e-221
2.12035e-222
5.62187e-224
4.63081e-226
3.01853e-218
5.45055e-219
1.09421e-219
2.30095e-220
4.31789e-221
5.05712e-222
3.10698e-223
8.63637e-225
7.34699e-227
2.20001e-219
4.56297e-220
1.04893e-220
2.47882e-221
4.85181e-222
5.77224e-223
3.6016e-224
1.00511e-225
8.52631e-228
1.32756e-220
3.37531e-221
9.11348e-222
2.32697e-222
4.55331e-223
5.31948e-224
3.26149e-225
8.89401e-227
7.34328e-229
7.07591e-222
2.23571e-222
6.75625e-223
1.76203e-223
3.33976e-224
3.75069e-225
2.20854e-226
5.73028e-228
4.47038e-230
7.43281e-223
3.27715e-223
1.19463e-223
3.75488e-224
9.5953e-225
1.72743e-225
1.8335e-226
1.01394e-227
2.42675e-229
1.70878e-231
2.12421e-224
1.05296e-224
4.0291e-225
1.25416e-225
3.07625e-226
5.20543e-227
5.14722e-228
2.60844e-229
5.49769e-231
3.22058e-233
2.59621e-226
1.3238e-226
5.04191e-227
1.52252e-227
3.55658e-228
5.61724e-229
5.09072e-230
2.27827e-231
3.86634e-233
1.68532e-235
2.44239e-219
1.87765e-218
7.57452e-218
3.91564e-218
6.73734e-219
2.73933e-220
3.04326e-222
1.90214e-224
8.9215e-227
3.17373e-217
1.46818e-217
5.09847e-218
1.16804e-218
2.11944e-219
1.50006e-220
4.18458e-222
5.79852e-224
2.80615e-226
4.36993e-217
9.21665e-218
2.23876e-218
4.41363e-219
7.93939e-220
7.47442e-221
3.26488e-222
6.74563e-224
4.4582e-226
1.3114e-217
2.40716e-218
5.2669e-219
1.08587e-219
2.01796e-220
2.16056e-221
1.15839e-222
2.86212e-224
2.19678e-226
2.17195e-218
4.10987e-219
9.08544e-220
2.05987e-220
4.01565e-221
4.6032e-222
2.70915e-223
7.21322e-225
5.89079e-227
2.45902e-219
5.2864e-220
1.29393e-220
3.20995e-221
6.42541e-222
7.55888e-223
4.61227e-224
1.26146e-225
1.05389e-227
2.18952e-220
5.72027e-221
1.60033e-221
4.20269e-222
8.33439e-223
9.71903e-224
5.92049e-225
1.61089e-226
1.33713e-228
1.68869e-221
5.43031e-222
1.67792e-222
4.46799e-223
8.58176e-224
9.7002e-225
5.76091e-226
1.52485e-227
1.23087e-229
1.16386e-222
4.31917e-223
1.38721e-223
3.62071e-224
6.63657e-225
7.17551e-226
4.08277e-227
1.02832e-228
7.8466e-231
1.27742e-223
6.45663e-224
2.53016e-224
8.06791e-225
2.02459e-225
3.50909e-226
3.584e-227
1.91526e-228
4.45157e-230
3.06683e-232
4.22983e-225
2.22972e-225
8.72326e-226
2.70122e-226
6.46526e-227
1.05362e-227
1.00402e-228
4.92171e-230
1.00759e-231
5.77306e-234
5.38079e-227
2.80693e-227
1.0719e-227
3.1998e-228
7.2843e-229
1.11021e-229
9.71769e-231
4.21244e-232
6.94114e-234
2.95974e-236
5.56139e-221
1.95453e-220
8.0701e-220
4.88194e-220
8.70395e-221
3.38294e-222
3.95256e-224
2.71089e-226
1.35843e-228
7.78975e-219
3.76469e-219
1.47276e-219
4.13721e-220
7.89395e-221
5.75624e-222
1.80299e-223
2.74433e-225
1.38964e-227
1.80964e-218
4.21667e-219
1.15916e-219
2.84331e-220
5.60295e-221
5.46556e-222
2.55052e-223
5.48784e-225
3.66679e-227
7.40437e-219
1.57088e-219
4.01854e-220
1.01419e-220
2.05003e-221
2.24985e-222
1.23482e-223
3.0595e-225
2.32314e-227
1.55097e-219
3.56819e-220
9.56927e-221
2.53998e-221
5.18288e-222
5.93752e-223
3.47703e-224
9.12748e-226
7.32929e-228
2.21054e-220
6.03924e-221
1.7786e-221
4.85423e-222
9.76593e-223
1.12554e-223
6.7217e-225
1.79622e-226
1.47027e-228
2.54846e-221
8.41487e-222
2.67433e-222
7.29168e-223
1.41465e-223
1.59481e-224
9.43369e-226
2.49878e-227
2.02981e-229
2.5551e-222
9.66439e-223
3.16971e-223
8.43555e-224
1.56496e-224
1.70413e-225
9.79979e-227
2.52301e-228
1.99463e-230
2.14064e-223
8.57263e-224
2.79331e-224
7.15299e-225
1.26132e-225
1.31316e-226
7.23247e-228
1.77261e-229
1.32507e-231
2.41153e-224
1.30623e-224
5.2409e-225
1.66078e-225
4.06196e-226
6.77601e-227
6.67278e-228
3.45458e-229
7.81809e-231
5.27707e-233
8.54015e-226
4.60927e-226
1.80653e-226
5.52078e-227
1.28635e-227
2.02199e-228
1.86167e-229
8.85182e-231
1.76497e-232
9.90199e-235
1.08695e-227
5.70148e-228
2.16505e-228
6.3676e-229
1.4119e-229
2.08081e-230
1.76376e-231
7.42579e-233
1.19141e-234
4.97281e-237
1.71721e-222
3.07478e-222
9.10619e-222
6.0759e-222
1.08741e-222
4.14985e-224
5.48916e-226
4.36284e-228
2.21448e-230
2.17111e-220
1.16383e-220
5.28318e-221
1.77843e-221
3.43405e-222
2.56442e-223
8.70064e-225
1.388e-226
7.09081e-229
8.0755e-220
2.25095e-220
7.30589e-221
2.1669e-221
4.42826e-222
4.37128e-223
2.093e-224
4.52655e-226
2.99312e-228
4.55939e-220
1.20996e-220
3.71634e-221
1.07814e-221
2.22442e-222
2.42282e-223
1.32421e-224
3.23554e-226
2.41069e-228
1.25574e-220
3.71456e-221
1.17592e-221
3.37097e-222
6.83963e-223
7.66972e-224
4.4074e-225
1.13294e-226
8.94129e-229
2.36087e-221
8.13276e-222
2.68336e-222
7.53178e-223
1.4728e-223
1.64494e-224
9.56371e-226
2.49318e-227
1.99956e-229
3.55304e-222
1.37544e-222
4.61431e-223
1.25249e-223
2.34168e-224
2.54471e-225
1.45842e-226
3.76203e-228
2.99309e-230
4.36621e-223
1.78306e-223
5.92379e-224
1.54389e-224
2.75278e-225
2.8886e-226
1.61043e-227
4.04172e-229
3.13443e-231
4.0955e-224
1.68028e-224
5.43445e-225
1.35442e-225
2.29714e-226
2.30736e-227
1.23296e-228
2.94782e-230
2.16198e-232
4.68823e-225
2.60508e-225
1.04619e-225
3.2665e-226
7.76745e-227
1.24915e-227
1.18912e-228
5.97941e-230
1.32083e-231
8.74611e-234
1.69387e-226
9.17844e-227
3.57185e-227
1.07374e-227
2.43457e-228
3.69934e-229
3.29965e-230
1.52568e-231
2.96986e-233
1.63327e-235
2.12036e-228
1.10801e-228
4.16748e-229
1.20574e-229
2.60483e-230
3.72045e-231
3.06164e-232
1.25501e-233
1.96532e-235
8.03485e-238
7.61971e-224
7.97139e-224
1.24552e-223
8.14049e-224
1.41213e-224
5.66382e-226
9.59081e-228
9.442e-230
4.4517e-232
7.7828e-222
4.76254e-222
2.42204e-222
8.93887e-223
1.67827e-223
1.26533e-224
4.48597e-226
7.27045e-228
3.6743e-230
4.22012e-221
1.50052e-221
5.64527e-222
1.84059e-222
3.71696e-223
3.63347e-224
1.73968e-225
3.71689e-227
2.41175e-229
3.3284e-221
1.13794e-221
3.99084e-222
1.21738e-222
2.45967e-223
2.61917e-224
1.4071e-225
3.36556e-227
2.45528e-229
1.23571e-221
4.55732e-222
1.57953e-222
4.58743e-223
8.98849e-224
9.77997e-225
5.49292e-226
1.38294e-227
1.07148e-229
3.04051e-222
1.21524e-222
4.1882e-223
1.16235e-223
2.18274e-224
2.34859e-225
1.32792e-226
3.37969e-228
2.65769e-230
5.62263e-223
2.34105e-223
7.92503e-224
2.10001e-224
3.76786e-225
3.94808e-226
2.19689e-227
5.52895e-229
4.32019e-231
7.83105e-224
3.27333e-224
1.07759e-224
2.72839e-225
4.67573e-226
4.73728e-227
2.56617e-228
6.29289e-230
4.79519e-232
7.793e-225
3.19677e-225
1.01719e-225
2.46114e-226
4.02214e-227
3.90781e-228
2.03092e-229
4.74757e-231
3.42092e-233
9.03782e-226
5.03567e-226
2.00478e-226
6.14779e-227
1.42094e-227
2.20823e-228
2.03746e-229
9.9752e-231
2.15543e-232
1.40179e-234
3.25921e-227
1.75503e-227
6.75476e-228
1.99501e-228
4.40421e-229
6.48474e-230
5.61776e-231
2.53182e-232
4.82138e-234
2.60173e-236
3.98688e-229
2.064e-229
7.67414e-230
2.18287e-230
4.59813e-231
6.37908e-232
5.10844e-233
2.0432e-234
3.12947e-236
1.25401e-238
4.63276e-225
3.47994e-225
2.67272e-225
1.36914e-225
2.26603e-226
1.10487e-227
2.66416e-229
3.18106e-231
1.33987e-233
3.95636e-223
2.58573e-223
1.34988e-223
4.91893e-224
8.79734e-225
6.64165e-226
2.40769e-227
3.90678e-229
1.93916e-231
2.81303e-222
1.23233e-222
4.98813e-223
1.6368e-223
3.18419e-224
3.04697e-225
1.4411e-226
3.02011e-228
1.91683e-230
3.03284e-222
1.24777e-222
4.62918e-223
1.40088e-223
2.71155e-224
2.80387e-225
1.47379e-226
3.44849e-228
2.46635e-230
1.47093e-222
6.15564e-223
2.1925e-223
6.23238e-224
1.16713e-224
1.22768e-225
6.72611e-227
1.65496e-228
1.25587e-230
4.44044e-223
1.89036e-223
6.53147e-224
1.76119e-224
3.16729e-225
3.28727e-226
1.80505e-227
4.48588e-229
3.46068e-231
9.38004e-224
3.98447e-224
1.33291e-224
3.42257e-225
5.89641e-226
5.96963e-227
3.23176e-228
7.95805e-230
6.11902e-232
1.4068e-224
5.8701e-225
1.89812e-225
4.65797e-226
7.68806e-227
7.53988e-228
3.9777e-229
9.55225e-231
7.16154e-233
1.44626e-225
5.87172e-226
1.83242e-226
4.30385e-227
6.79471e-228
6.40249e-229
3.24371e-230
7.42904e-232
5.26544e-234
1.70152e-226
9.38814e-227
3.69032e-227
1.11043e-227
2.49653e-228
3.75876e-229
3.37e-230
1.60999e-231
3.40939e-233
2.17999e-235
6.06875e-228
3.22543e-228
1.22553e-228
3.55533e-229
7.64941e-230
1.09396e-230
9.22621e-232
4.06131e-233
7.57965e-235
4.0171e-237
7.2384e-230
3.69613e-230
1.35704e-230
3.79463e-231
7.8018e-232
1.05357e-232
8.22805e-234
3.21723e-235
4.82834e-237
1.89756e-239
3.36239e-226
2.11408e-226
1.10168e-226
3.90163e-227
6.14172e-228
3.78385e-229
1.14698e-230
1.48088e-232
5.80525e-235
2.68182e-224
1.69652e-224
8.42711e-225
2.84903e-225
4.83163e-226
3.64429e-227
1.33927e-228
2.16715e-230
1.05598e-232
2.36952e-223
1.14875e-223
4.68401e-224
1.47962e-224
2.73049e-225
2.54589e-226
1.18315e-227
2.42674e-229
1.50601e-231
3.30941e-223
1.48025e-223
5.51304e-224
1.61067e-224
2.96151e-225
2.96409e-226
1.52283e-227
3.48661e-229
2.44538e-231
1.9654e-223
8.60604e-224
3.0441e-224
8.35522e-225
1.49457e-225
1.51653e-226
8.08095e-228
1.94361e-229
1.44602e-231
6.8296e-224
2.94712e-224
1.00218e-224
2.60961e-225
4.50036e-226
4.51536e-227
2.41411e-228
5.87169e-230
4.45929e-232
1.57446e-224
6.65866e-225
2.18332e-225
5.42242e-226
8.99136e-227
8.81789e-228
4.65481e-229
1.12402e-230
8.51573e-233
2.47904e-225
1.02193e-225
3.23624e-226
7.69855e-227
1.22711e-227
1.16799e-228
6.01419e-230
1.41708e-231
1.04644e-233
2.60149e-226
1.04095e-226
3.18374e-227
7.26602e-228
1.11114e-228
1.018e-229
5.03841e-231
1.13255e-232
7.90352e-235
3.1242e-227
1.68836e-227
6.54052e-228
1.93115e-228
4.22843e-229
6.183e-230
5.39942e-231
2.5221e-232
5.24275e-234
3.29882e-236
1.09812e-228
5.71207e-229
2.1403e-229
6.09984e-230
1.28061e-230
1.78284e-231
1.46695e-232
6.3187e-234
1.15754e-235
6.03031e-238
1.27588e-230
6.38372e-231
2.31265e-231
6.35817e-232
1.27743e-232
1.68256e-233
1.28396e-234
4.9163e-236
7.24099e-238
2.79271e-240
2.65977e-227
1.48083e-227
6.5101e-228
1.90225e-228
2.75945e-229
1.87265e-230
6.11007e-232
8.01555e-234
3.02889e-236
2.12822e-225
1.23825e-225
5.65392e-226
1.75325e-226
2.7771e-227
2.0944e-228
7.7845e-230
1.25696e-231
6.02727e-234
2.29302e-224
1.1296e-224
4.48763e-225
1.34301e-225
2.33767e-226
2.11255e-227
9.62597e-229
1.93204e-230
1.17311e-232
3.96286e-224
1.80169e-224
6.57315e-225
1.83643e-225
3.21385e-226
3.10418e-227
1.55432e-228
3.48312e-230
2.39667e-232
2.74564e-224
1.20525e-224
4.17196e-225
1.10075e-225
1.88502e-226
1.8497e-227
9.60004e-229
2.25814e-230
1.65145e-232
1.05862e-224
4.52843e-225
1.50512e-225
3.78055e-226
6.26946e-227
6.09683e-228
3.18131e-229
7.5945e-231
5.68983e-233
2.6049e-225
1.0857e-225
3.48033e-226
8.3649e-227
1.33893e-227
1.27528e-228
6.57825e-230
1.56062e-231
1.1661e-233
4.25656e-226
1.72565e-226
5.34878e-227
1.23498e-227
1.90638e-228
1.76543e-229
8.89054e-231
2.0587e-232
1.49874e-234
4.53503e-227
1.78426e-227
5.34906e-228
1.18794e-228
1.76419e-229
1.5752e-230
7.63046e-232
1.6859e-233
1.15938e-235
5.66487e-228
2.93666e-228
1.11932e-228
3.24388e-229
6.92725e-230
9.86055e-231
8.40496e-232
3.84529e-233
7.85738e-235
4.86904e-237
1.96264e-229
9.78302e-230
3.60972e-230
1.01094e-230
2.07371e-231
2.81617e-232
2.26509e-233
9.56254e-235
1.72188e-236
8.82428e-239
2.22579e-231
1.06743e-231
3.8107e-232
1.0303e-232
2.02528e-233
2.60671e-234
1.94707e-235
7.31191e-237
1.05839e-238
4.00769e-241
2.221e-228
1.11729e-228
4.4251e-229
1.16847e-229
1.59458e-230
1.08218e-231
3.60331e-233
4.73138e-235
1.74447e-237
1.8303e-226
9.69148e-227
4.03875e-227
1.14951e-227
1.71815e-228
1.27899e-229
4.78961e-231
7.72294e-233
3.65434e-235
2.35351e-225
1.13155e-225
4.32293e-226
1.22051e-226
2.0129e-227
1.7577e-228
7.80504e-230
1.5326e-231
9.11223e-234
4.90923e-225
2.19954e-225
7.78681e-226
2.07657e-226
3.47138e-227
3.24511e-228
1.58436e-229
3.47442e-231
2.35114e-233
3.87154e-225
1.67241e-225
5.63564e-226
1.42906e-226
2.35043e-227
2.2364e-228
1.13353e-229
2.6176e-231
1.88933e-233
1.62837e-225
6.83736e-226
2.21656e-226
5.37584e-227
8.59964e-228
8.12629e-229
4.14719e-230
9.73707e-232
7.2081e-234
4.23497e-226
1.73009e-226
5.41956e-227
1.26248e-227
1.95637e-228
1.81407e-229
9.16117e-231
2.13855e-232
1.57727e-234
7.1458e-227
2.83814e-227
8.61145e-228
1.93301e-228
2.89736e-229
2.61644e-230
1.2909e-231
2.94172e-233
2.11294e-235
7.71239e-228
2.9729e-228
8.73794e-229
1.89134e-229
2.73418e-230
2.38413e-231
1.13222e-232
2.46202e-234
1.66973e-236
1.05775e-228
4.98046e-229
1.86064e-229
5.29348e-230
1.10404e-230
1.53306e-231
1.27792e-232
5.73513e-234
1.1534e-235
7.04431e-238
3.62825e-230
1.63491e-230
5.91585e-231
1.62804e-231
3.26706e-232
4.33612e-233
3.41506e-234
1.41511e-235
2.50773e-237
1.26518e-239
4.0416e-232
1.74502e-232
6.10989e-233
1.62424e-233
3.12741e-234
3.94003e-235
2.88521e-236
1.06408e-237
1.51562e-239
5.63433e-242
1.77466e-229
8.17439e-230
2.97215e-230
7.25283e-231
9.52318e-232
6.43143e-233
2.13058e-234
2.77004e-236
9.77147e-239
1.51455e-227
7.33544e-228
2.80496e-228
7.36419e-229
1.05141e-229
7.76572e-231
2.90338e-232
4.65493e-234
2.17913e-236
2.2635e-226
1.04452e-226
3.81761e-227
1.01656e-227
1.59553e-228
1.3502e-229
5.8582e-231
1.12632e-232
6.59903e-235
5.64381e-226
2.45531e-226
8.40215e-227
2.13945e-227
3.42719e-228
3.10795e-229
1.48323e-230
3.19646e-232
2.13853e-234
5.02333e-226
2.1117e-226
6.9118e-227
1.68563e-227
2.66974e-228
2.468e-229
1.22376e-230
2.77987e-232
1.98237e-234
2.29346e-226
9.36798e-227
2.95869e-227
6.93484e-228
1.07258e-228
9.86834e-230
4.93473e-231
1.14173e-232
8.35745e-235
6.28819e-227
2.49603e-227
7.63486e-228
1.72558e-228
2.59404e-229
2.34568e-230
1.16131e-231
2.6706e-233
1.94583e-235
1.0954e-227
4.22008e-228
1.25236e-228
2.73562e-229
3.98851e-230
3.5176e-231
1.70241e-232
3.82191e-234
2.71077e-236
1.19906e-228
4.47478e-229
1.28795e-229
2.71923e-230
3.83236e-231
3.26796e-232
1.52319e-233
3.26315e-235
2.18441e-237
2.0297e-229
7.73837e-230
2.79393e-230
7.79086e-231
1.58793e-231
2.15376e-232
1.75783e-233
7.74675e-235
1.53489e-236
9.24716e-239
6.93091e-231
2.51135e-231
8.76574e-232
2.36579e-232
4.64629e-233
6.03317e-234
4.65773e-235
1.89622e-236
3.31046e-238
1.64556e-240
7.63677e-233
2.63329e-233
8.87429e-234
2.31405e-234
4.36515e-235
5.38746e-236
3.87109e-237
1.40329e-238
1.96867e-240
7.02332e-243
1.42309e-230
6.07873e-231
2.05384e-231
4.69153e-232
5.98521e-233
4.03239e-234
1.33638e-235
1.73318e-237
6.00083e-240
1.2696e-228
5.62897e-229
1.99659e-229
4.88274e-230
6.72382e-231
4.93467e-232
1.84378e-233
2.95296e-235
1.37981e-237
2.16465e-227
9.33399e-228
3.2599e-228
8.21085e-229
1.23279e-229
1.01439e-230
4.31548e-232
8.17291e-234
4.7447e-236
6.40485e-227
2.62821e-227
8.68374e-228
2.11661e-228
3.26174e-229
2.87707e-230
1.34516e-231
2.85576e-233
1.89003e-235
6.4035e-227
2.54461e-227
8.08264e-228
1.89994e-228
2.90725e-229
2.61746e-230
1.27212e-231
2.8475e-233
2.00773e-235
3.1637e-227
1.22155e-227
3.75536e-228
8.52569e-229
1.27878e-229
1.14809e-230
5.6341e-232
1.2856e-233
9.29956e-236
9.12781e-228
3.42042e-228
1.0201e-228
2.24098e-229
3.2764e-230
2.89507e-231
1.4072e-232
3.19101e-234
2.29713e-236
1.64129e-228
5.95263e-229
1.72391e-229
3.66975e-230
5.21601e-231
4.50089e-232
2.13963e-233
4.73636e-235
3.31758e-237
1.82522e-229
6.38615e-230
1.79445e-230
3.6995e-231
5.09286e-232
4.25403e-233
1.94848e-234
4.11581e-236
2.71963e-238
4.56783e-230
1.18097e-230
3.97866e-231
1.08321e-231
2.15923e-232
2.86536e-233
2.29325e-234
9.93567e-236
1.94093e-237
1.15348e-239
1.54582e-231
3.80328e-232
1.23269e-232
3.24778e-233
6.24578e-234
7.94627e-235
6.02175e-236
2.41118e-237
4.15018e-239
2.03242e-241
1.68763e-233
3.93086e-234
1.22404e-234
3.11472e-235
5.75872e-236
6.97243e-237
4.92241e-238
1.7558e-239
2.42801e-241
8.47083e-244
1.26561e-231
4.70944e-232
1.49184e-232
3.22379e-233
4.01523e-234
2.69411e-235
8.92024e-237
1.15476e-238
3.95534e-241
1.27723e-229
4.49369e-230
1.48915e-230
3.42782e-231
4.58055e-232
3.33656e-233
1.2439e-234
1.99013e-236
9.27195e-239
2.60911e-228
8.37926e-229
2.77993e-229
6.6477e-230
9.59438e-231
7.7018e-232
3.2218e-233
6.03008e-235
3.47152e-237
8.84166e-228
2.79759e-228
8.86595e-229
2.07439e-229
3.08638e-230
2.65433e-231
1.21812e-232
2.55175e-234
1.67132e-236
9.60279e-228
3.03782e-228
9.29798e-229
2.11122e-229
3.13083e-230
2.75162e-231
1.31319e-232
2.90094e-234
2.02364e-236
4.97259e-228
1.57375e-228
4.67493e-229
1.02988e-229
1.50208e-230
1.31853e-231
6.35766e-233
1.4315e-234
1.02358e-236
1.46702e-228
4.62337e-229
1.33395e-229
2.85182e-230
4.06447e-231
3.51597e-232
1.68013e-233
3.76029e-235
2.67581e-237
2.66564e-229
8.27474e-230
2.31857e-230
4.81307e-231
6.68218e-232
5.65118e-233
2.6421e-234
5.77213e-236
3.9949e-238
2.97851e-230
8.98354e-231
2.4404e-231
4.91341e-232
6.6177e-233
5.42303e-234
2.44382e-235
5.09428e-237
3.32454e-239
1.33023e-230
1.92782e-231
5.59156e-232
1.46977e-232
2.86421e-233
3.72383e-234
2.92654e-235
1.24792e-236
2.40563e-238
1.41105e-240
4.2725e-232
6.18066e-233
1.71437e-233
4.35381e-234
8.19167e-235
1.02229e-235
7.61388e-237