/*--------------------------------*- C++ -*----------------------------------*\
| =========                 |                                                 |
| \\      /  F ield         | OpenFOAM: The Open Source CFD Toolbox           |
|  \\    /   O peration     | Version:  2.3.1                                 |
|   \\  /    A nd           | Web:      www.OpenFOAM.org                      |
|    \\/     M anipulation  |                                                 |
\*---------------------------------------------------------------------------*/
FoamFile
{
    version     2.0;
    format      ascii;
    class       volScalarField;
    location    "20";
    object      Sed_0;
}
// * * * * * * * * * * * * * * * * * * * * * * * * * * * * * * * * * * * * * //

dimensions      [0 0 0 0 0 0 0];

internalField   nonuniform List<scalar> 
37784
(
5.32463e-212
4.30618e-214
7.21587e-216
2.18287e-215
7.40822e-216
1.14165e-216
6.12426e-218
7.37993e-220
5.86911e-222
2.39628e-213
2.07567e-214
1.72876e-216
3.12896e-218
6.83376e-218
2.09677e-218
3.16502e-219
1.58164e-220
1.91999e-222
1.5175e-224
5.9828e-216
4.96246e-217
4.92507e-219
9.58131e-221
1.42666e-220
4.03662e-221
5.98445e-222
2.80638e-223
3.42742e-225
2.72057e-227
7.65057e-219
6.2401e-220
7.54304e-222
1.57093e-223
1.63415e-223
4.3676e-224
6.36586e-225
2.83329e-226
3.55501e-228
2.96577e-230
4.75606e-211
6.08128e-213
8.57375e-215
2.98146e-215
1.10345e-215
1.85017e-216
1.07354e-217
1.90943e-219
1.55381e-221
3.36385e-212
2.73561e-213
3.88539e-215
5.79571e-217
1.69757e-217
5.75134e-218
9.17582e-219
4.95911e-220
8.41406e-222
5.51695e-224
1.42341e-214
1.15634e-215
1.81713e-217
2.88275e-219
7.37574e-220
2.29922e-220
3.47659e-221
1.73952e-222
2.75031e-224
1.45901e-226
3.40869e-217
2.69375e-218
4.40922e-220
7.29903e-222
1.80024e-222
5.24611e-223
7.51632e-224
3.49047e-225
5.1737e-227
2.47313e-229
5.30485e-211
1.03699e-212
2.24132e-214
3.39916e-215
8.91951e-216
1.34563e-216
8.01051e-218
1.64183e-219
1.29856e-221
4.54151e-212
4.16823e-213
9.31249e-215
2.06188e-216
2.71624e-217
6.62373e-218
9.45702e-219
5.21571e-220
9.79085e-222
5.5803e-224
2.75719e-214
2.55179e-215
6.15335e-217
1.3913e-218
1.6633e-219
3.78084e-220
5.08613e-221
2.58245e-222
4.35643e-224
1.86951e-226
9.20084e-217
8.18406e-218
1.97415e-219
4.52089e-221
5.36065e-222
1.15513e-222
1.46671e-223
6.86203e-225
1.04609e-226
3.82973e-229
1.87317e-211
5.07856e-213
1.72962e-214
2.22414e-215
4.31681e-216
5.6022e-217
3.21845e-218
6.82122e-220
5.2745e-222
1.85503e-212
1.84202e-213
5.67197e-215
1.90862e-216
2.19222e-217
3.99385e-218
4.90493e-219
2.60388e-220
4.97147e-222
2.67103e-224
1.40313e-214
1.41012e-215
4.60479e-217
1.53863e-218
1.63678e-219
2.80835e-220
3.2539e-221
1.59215e-222
2.71772e-224
1.11686e-226
5.57279e-217
5.37429e-218
1.73965e-219
5.8123e-221
6.15143e-222
1.0157e-222
1.11662e-223
5.07e-225
7.85403e-227
2.81218e-229
4.04509e-212
1.55254e-213
7.69412e-215
9.5484e-216
1.49803e-216
1.6878e-217
9.12136e-219
1.92579e-220
1.46052e-222
4.45296e-213
4.8226e-214
2.01464e-215
9.62375e-217
1.09443e-217
1.62968e-218
1.74346e-219
8.74322e-221
1.66261e-222
8.86432e-225
3.96403e-215
4.3237e-216
1.86385e-217
8.70802e-219
9.33877e-220
1.32717e-220
1.34986e-221
6.31665e-223
1.09822e-224
4.78339e-227
1.73627e-217
1.81908e-218
7.73771e-220
3.62103e-221
3.88926e-222
5.41975e-223
5.3213e-224
2.37122e-225
3.89259e-227
1.54804e-229
6.82487e-213
3.63905e-214
2.39924e-215
2.97688e-216
4.07027e-217
4.08872e-218
2.07269e-219
4.3273e-221
3.28821e-223
7.75695e-214
9.54218e-215
5.29558e-216
3.33147e-217
3.85917e-218
5.06155e-219
4.86048e-220
2.31892e-221
4.46421e-223
2.53024e-225
7.86089e-216
9.61386e-217
5.38048e-218
3.29296e-219
3.65744e-220
4.66163e-221
4.33526e-222
1.9906e-223
3.69229e-225
1.85747e-227
3.65553e-218
4.30486e-219
2.37993e-220
1.4688e-221
1.66043e-222
2.1433e-223
1.99315e-224
9.12485e-226
1.67389e-227
7.68624e-230
1.01455e-213
7.17093e-215
5.82854e-216
7.31348e-217
9.16104e-218
8.45996e-219
4.07847e-220
8.57593e-222
6.85801e-224
1.12614e-214
1.6059e-215
1.14433e-216
8.88704e-218
1.05629e-218
1.28582e-219
1.1531e-220
5.39835e-222
1.10416e-223
7.15884e-226
1.25781e-216
1.75874e-217
1.24703e-218
9.47946e-220
1.10216e-220
1.34161e-221
1.20685e-222
5.72887e-224
1.19875e-225
7.11786e-228
6.04661e-219
8.17909e-220
5.77837e-221
4.51904e-222
5.52531e-223
7.16575e-224
6.76112e-225
3.33494e-226
6.89383e-228
3.49776e-230
1.40534e-214
1.24693e-215
1.17752e-216
1.49804e-217
1.78202e-218
1.56506e-219
7.40771e-221
1.64024e-222
1.45859e-224
1.48429e-215
2.44227e-216
2.14816e-217
1.95752e-218
2.39826e-219
2.83791e-220
2.50034e-221
1.21207e-222
2.78445e-224
2.09877e-226
1.77189e-217
2.8352e-218
2.47452e-219
2.24706e-220
2.78197e-221
3.45332e-222
3.21166e-223
1.66012e-224
3.95229e-226
2.62292e-228
8.65372e-220
1.35098e-220
1.19632e-221
1.16417e-222
1.60295e-223
2.24804e-224
2.25911e-225
1.2064e-226
2.67893e-228
1.41041e-230
1.85296e-215
1.95636e-216
2.06594e-217
2.67259e-218
3.125e-219
2.72683e-220
1.33489e-221
3.27269e-223
3.21865e-225
1.85587e-216
3.45441e-217
3.60358e-218
3.73782e-219
4.78839e-220
5.81536e-221
5.35357e-222
2.83545e-223
7.3777e-225
6.08558e-227
2.30994e-218
4.18106e-219
4.37014e-220
4.67933e-221
6.39771e-222
8.67587e-223
8.76207e-224
4.96786e-225
1.2789e-226
8.83756e-229
1.13729e-220
2.03814e-221
2.24247e-222
2.75806e-223
4.47777e-224
7.03872e-225
7.52366e-226
4.19285e-227
9.43898e-229
4.94876e-231
2.3345e-216
2.80701e-217
3.25647e-218
4.338e-219
5.22868e-220
4.79379e-221
2.55942e-222
6.96882e-224
6.87609e-226
2.2397e-217
4.60199e-218
5.51742e-219
6.48046e-220
8.98514e-221
1.19595e-221
1.20778e-222
7.0547e-224
1.9704e-225
1.63912e-227
2.86306e-219
5.77718e-220
7.13661e-221
9.19866e-222
1.46233e-222
2.25997e-223
2.47415e-224
1.47833e-225
3.86195e-227
2.64694e-229
1.42861e-221
2.9368e-222
4.08621e-223
6.57175e-224
1.27478e-224
2.19791e-225
2.41185e-226
1.34448e-227
2.94602e-229
1.50512e-231
5.90761e-208
1.71098e-207
1.2291e-207
2.40178e-208
3.1663e-209
2.62806e-210
7.91858e-212
8.76088e-214
4.47042e-216
7.25099e-207
2.09995e-207
3.05466e-208
2.00295e-209
1.25174e-210
1.03354e-211
3.21226e-213
3.95971e-215
1.79842e-217
4.25025e-208
4.49297e-209
4.96204e-210
4.35588e-211
3.37215e-212
3.14896e-213
1.22298e-214
1.76862e-216
7.54167e-219
8.26145e-210
8.17054e-211
1.02801e-211
1.263e-212
1.26429e-213
1.23932e-214
5.26576e-216
8.24817e-218
3.55004e-220
2.39706e-211
2.65127e-212
3.47135e-213
4.93043e-214
5.52581e-215
5.18185e-216
2.25359e-217
3.91828e-219
8.55513e-213
1.04885e-213
1.37518e-214
1.97928e-215
2.28594e-216
2.04336e-217
9.12715e-219
1.80174e-220
3.08187e-214
4.00814e-215
5.1828e-216
7.28446e-217
8.50966e-218
7.49877e-219
3.56474e-220
8.13921e-222
1.01695e-215
1.34916e-216
1.71562e-217
2.36967e-218
2.86311e-219
2.62978e-220
1.38902e-221
3.64782e-223
2.81019e-217
3.74637e-218
4.78271e-219
6.78808e-220
8.98975e-221
9.08126e-222
5.34953e-223
1.51865e-224
1.31967e-226
2.62018e-218
5.83508e-219
7.94695e-220
1.08261e-220
1.71648e-221
2.62602e-222
2.9084e-223
1.79982e-224
5.04074e-226
4.00169e-228
3.43438e-220
7.68807e-221
1.14165e-221
1.85237e-222
3.53047e-223
6.1151e-224
6.96717e-225
4.18711e-226
1.06325e-227
7.05635e-230
1.78686e-222
4.29413e-223
7.87898e-224
1.65505e-224
3.6806e-225
6.62027e-226
7.20427e-227
3.90944e-228
8.15771e-230
4.02275e-232
9.1935e-210
4.61391e-209
4.1897e-209
9.6572e-210
1.37897e-210
1.00763e-211
2.30121e-213
2.11216e-215
9.76019e-218
1.47569e-208
5.58385e-209
8.20598e-210
5.64017e-211
5.25318e-212
4.31539e-213
1.15649e-214
1.29081e-216
5.23306e-219
9.1741e-210
1.24444e-210
1.77188e-211
1.77327e-212
1.80124e-213
1.73196e-214
6.1487e-216
8.43528e-218
3.42312e-220
3.35871e-211
4.04297e-212
6.05741e-213
7.86408e-214
8.7783e-215
8.52881e-216
3.40458e-217
5.30497e-219
2.46676e-221
1.53954e-212
1.92891e-213
2.80198e-214
3.99127e-215
4.63594e-216
4.2845e-217
1.82465e-218
3.30171e-220
1.94246e-222
7.07222e-214
9.49176e-215
1.33561e-215
1.91524e-216
2.26423e-217
2.03797e-218
9.40727e-220
2.02087e-221
1.48344e-223
2.98732e-215
4.18386e-216
5.76395e-217
8.20812e-218
1.00548e-218
9.33549e-220
4.83741e-221
1.21723e-222
1.01998e-224
1.09367e-216
1.56709e-217
2.15419e-218
3.13998e-219
4.18747e-220
4.24074e-221
2.47782e-222
6.89905e-224
6.03278e-226
3.24491e-218
4.76801e-219
6.87761e-220
1.10197e-220
1.68592e-221
1.87847e-222
1.17766e-223
3.36752e-225
2.86037e-227
2.98452e-219
7.15355e-220
1.12797e-220
1.8734e-221
3.54808e-222
6.17167e-223
7.18437e-224
4.49416e-225
1.22717e-226
9.48854e-229
4.0859e-221
1.03132e-221
1.93374e-222
4.04468e-223
8.98899e-224
1.65128e-224
1.87911e-225
1.10369e-226
2.68962e-228
1.73713e-230
2.36167e-223
6.89754e-224
1.69321e-224
4.34362e-225
1.03837e-225
1.86843e-226
1.97542e-227
1.03126e-228
2.04425e-230
9.79276e-233
1.11042e-211
9.84604e-211
1.20753e-210
3.23152e-211
4.80639e-212
2.98526e-213
5.22264e-215
4.11211e-217
1.77362e-219
2.10076e-210
9.37541e-211
1.67789e-211
1.59366e-212
1.97855e-213
1.54048e-214
3.71905e-216
3.88769e-218
1.44089e-220
2.3303e-211
3.8519e-212
6.60759e-213
7.73981e-214
9.40419e-215
8.76819e-216
2.94772e-217
4.03107e-219
1.70016e-221
1.57625e-212
2.17243e-213
3.61828e-214
4.9124e-215
5.93848e-216
5.60806e-217
2.19894e-218
3.63653e-220
1.96346e-222
1.02233e-213
1.40539e-214
2.18813e-215
3.14325e-216
3.83124e-217
3.54232e-218
1.56461e-219
3.16684e-221
2.18097e-223
5.80018e-215
8.31862e-216
1.24142e-216
1.80872e-217
2.27673e-218
2.15018e-219
1.08548e-220
2.63934e-222
2.1394e-224
2.81463e-216
4.19578e-217
6.17835e-218
9.27594e-219
1.26468e-219
1.29019e-220
7.41433e-222
2.02924e-223
1.76351e-225
1.13447e-217
1.75644e-218
2.68263e-219
4.38734e-220
6.78685e-221
7.58625e-222
4.74031e-223
1.3579e-224
1.18662e-226
3.63524e-219
6.02431e-220
1.03518e-220
1.97256e-221
3.45898e-222
4.07277e-223
2.59412e-224
7.32699e-226
6.12385e-228
3.36022e-220
8.80951e-221
1.69607e-221
3.57326e-222
7.96725e-223
1.48765e-223
1.73963e-224
1.06797e-225
2.82299e-227
2.13495e-229
5.05329e-222
1.50247e-222
3.69399e-223
9.52907e-224
2.31212e-224
4.2834e-225
4.75017e-226
2.69362e-227
6.30234e-229
3.96992e-231
3.54515e-224
1.28372e-224
3.96388e-225
1.13527e-225
2.77587e-226
4.87954e-227
4.96791e-228
2.48844e-229
4.7106e-231
2.20143e-233
1.11152e-213
1.59585e-212
2.73186e-212
8.49019e-213
1.29218e-213
6.92254e-215
9.78912e-217
6.66546e-219
2.78622e-221
3.27546e-212
1.52291e-212
3.52353e-213
4.58179e-214
6.65326e-215
4.8922e-216
1.12398e-217
1.16366e-219
4.22997e-222
7.48417e-213
1.36483e-213
2.64867e-214
3.51089e-215
4.74087e-216
4.24857e-217
1.42384e-218
2.07437e-220
9.99638e-223
8.07855e-214
1.21254e-214
2.15735e-215
3.065e-216
3.98369e-217
3.7194e-218
1.52329e-219
2.85156e-221
1.81878e-223
6.88608e-215
1.01109e-215
1.66199e-216
2.46671e-217
3.26191e-218
3.13587e-219
1.51948e-220
3.52074e-222
2.71959e-224
4.67514e-216
7.1041e-217
1.12745e-217
1.7459e-218
2.47371e-219
2.54838e-220
1.42863e-221
3.8126e-223
3.24656e-225
2.57697e-217
4.11302e-218
6.66515e-219
1.12422e-219
1.78535e-220
2.00148e-221
1.2329e-222
3.50285e-224
3.06582e-226
1.14841e-218
1.97541e-219
3.53947e-220
6.8709e-221
1.22204e-221
1.44447e-222
9.20903e-224
2.63285e-225
2.27086e-227
4.09354e-220
8.09841e-221
1.7391e-221
3.91939e-222
7.4275e-223
8.81457e-224
5.53007e-225
1.52421e-226
1.2461e-228
3.88479e-221
1.1687e-221
2.89436e-222
7.53782e-223
1.85663e-223
3.51811e-224
4.01975e-225
2.38926e-226
6.10269e-228
4.50357e-230
6.96841e-223
2.54026e-223
7.89812e-224
2.30424e-224
5.76582e-225
1.04648e-225
1.11879e-226
6.10276e-228
1.37471e-229
8.44373e-232
6.23963e-225
2.69903e-225
9.50418e-226
2.84867e-226
6.93248e-227
1.17827e-227
1.15231e-228
5.54299e-230
1.00748e-231
4.59621e-234
1.14007e-215
1.96337e-214
4.71228e-214
1.71923e-214
2.70169e-215
1.28435e-216
1.56873e-218
9.70606e-221
4.04777e-223
6.25595e-214
2.91191e-214
8.04113e-215
1.30217e-215
2.06791e-216
1.46054e-217
3.39015e-219
3.70547e-221
1.45217e-223
2.73428e-214
5.25999e-215
1.10611e-215
1.62625e-216
2.38296e-217
2.10181e-218
7.46171e-220
1.23204e-221
6.9513e-224
4.3004e-215
6.84899e-216
1.28271e-216
1.95201e-217
2.79379e-218
2.68154e-219
1.2102e-220
2.60144e-222
1.86617e-224
4.63083e-216
7.21717e-217
1.25767e-217
2.02766e-218
3.0507e-219
3.15746e-220
1.69762e-221
4.32631e-223
3.52341e-225
3.70392e-217
6.02703e-218
1.04704e-218
1.84588e-219
3.05291e-220
3.42322e-221
2.05666e-222
5.70826e-224
4.90658e-226
2.32333e-218
4.10269e-219
7.7352e-220
1.55113e-220
2.82733e-221
3.34035e-222
2.10381e-223
5.97929e-225
5.17164e-227
1.17427e-219
2.38405e-220
5.27664e-221
1.21277e-221
2.33366e-222
2.78197e-223
1.75254e-224
4.91097e-226
4.14889e-228
4.95139e-221
1.24257e-221
3.28921e-222
8.24182e-223
1.59005e-223
1.84699e-224
1.12502e-225
3.00949e-227
2.40281e-229
4.92663e-222
1.79597e-222
5.63242e-223
1.6733e-223
4.27769e-224
7.95712e-225
8.77546e-226
5.02937e-227
1.2421e-228
8.94828e-231
1.12714e-223
4.95362e-224
1.77766e-224
5.46306e-225
1.36378e-225
2.39416e-226
2.46008e-227
1.29166e-228
2.80967e-230
1.68424e-232
1.23533e-225
5.9653e-226
2.2265e-226
6.75008e-227
1.61356e-227
2.64277e-228
2.48455e-229
1.15075e-230
2.01695e-232
8.99009e-235
1.41448e-217
1.97519e-216
6.41702e-216
2.78001e-216
4.55728e-217
1.97578e-218
2.22637e-220
1.34136e-222
5.85413e-225
1.34175e-215
6.21436e-216
1.93528e-216
3.71823e-217
6.32273e-218
4.40694e-219
1.09814e-220
1.34233e-222
5.9254e-225
1.05883e-215
2.11715e-216
4.75993e-217
7.90674e-218
1.27481e-218
1.14834e-219
4.5295e-221
8.56992e-223
5.38685e-225
2.32249e-216
3.92519e-217
7.79861e-218
1.34066e-218
2.18889e-219
2.2269e-220
1.11492e-221
2.64188e-223
2.01313e-225
3.10361e-217
5.21619e-218
9.96312e-219
1.87048e-219
3.27017e-220
3.62813e-221
2.08678e-222
5.53758e-224
4.56273e-226
2.92459e-218
5.29648e-219
1.06812e-219
2.25706e-220
4.24897e-221
4.98186e-222
3.06229e-223
8.51361e-225
7.24211e-227
2.13529e-219
4.44968e-220
1.02848e-220
2.44018e-221
4.78425e-222
5.69342e-223
3.55217e-224
9.91145e-226
8.40602e-228
1.29334e-220
3.30799e-221
8.97233e-222
2.29593e-222
4.49466e-223
5.24961e-224
3.21749e-225
8.77122e-227
7.2398e-229
6.93289e-222
2.20142e-222
6.66871e-223
1.74041e-223
3.298e-224
3.70186e-225
2.17874e-226
5.65083e-228
4.40702e-230
7.29243e-223
3.22808e-223
1.17962e-223
3.71037e-224
9.48047e-225
1.70582e-225
1.80943e-226
1.00011e-227
2.3927e-229
1.68426e-231
2.09493e-224
1.0402e-224
3.98282e-225
1.2396e-225
3.03914e-226
5.13919e-227
5.0784e-228
2.57221e-229
5.41919e-231
3.17355e-233
2.56648e-226
1.30899e-226
4.98481e-227
1.50461e-227
3.51267e-228
5.54397e-229
5.02103e-230
2.2459e-231
3.80995e-233
1.66018e-235
2.3812e-219
1.83647e-218
7.36854e-218
3.80007e-218
6.52404e-219
2.64497e-220
2.93854e-222
1.84064e-224
8.65489e-227
3.07594e-217
1.42523e-217
4.9505e-218
1.13675e-218
2.06326e-219
1.4595e-220
4.07983e-222
5.6701e-224
2.75047e-226
4.23193e-217
8.94062e-218
2.17547e-218
4.30523e-219
7.7651e-220
7.31733e-221
3.20238e-222
6.62836e-224
4.38506e-226
1.27009e-217
2.3368e-218
5.12894e-219
1.06241e-219
1.98085e-220
2.1234e-221
1.13983e-222
2.81823e-224
2.16362e-226
2.10497e-218
3.99709e-219
8.87696e-220
2.0223e-220
3.95272e-221
4.53444e-222
2.66969e-223
7.10907e-225
5.80531e-227
2.38736e-219
5.15859e-220
1.26938e-220
3.16096e-221
6.3363e-222
7.45506e-223
4.5484e-224
1.24377e-225
1.03888e-227
2.13327e-220
5.60754e-221
1.57573e-221
4.14687e-222
8.22688e-223
9.59083e-224
5.84023e-225
1.58855e-226
1.31821e-228
1.65408e-221
5.34644e-222
1.6561e-222
4.41315e-223
8.47443e-224
9.57388e-225
5.68317e-226
1.50372e-227
1.21344e-229
1.14592e-222
4.26429e-223
1.37074e-223
3.5775e-224
6.55386e-225
7.08173e-226
4.02734e-227
1.01397e-228
7.73461e-231
1.25882e-223
6.37683e-224
2.50101e-224
7.97467e-225
2.00034e-225
3.4648e-226
3.53651e-227
1.8889e-228
4.38861e-230
3.02249e-232
4.18014e-225
2.20471e-225
8.62503e-226
2.66974e-226
6.38629e-227
1.04004e-227
9.90449e-229
4.85269e-230
9.93084e-232
5.68808e-234
5.32235e-227
2.77594e-227
1.05966e-227
3.16162e-228
7.19294e-229
1.09553e-229
9.58316e-231
4.15204e-232
6.83907e-234
2.91526e-236
5.43312e-221
1.9197e-220
7.87846e-220
4.75359e-220
8.45323e-221
3.27661e-222
3.8318e-224
2.63449e-226
1.32246e-228
7.55645e-219
3.66156e-219
1.43521e-219
4.04531e-220
7.71932e-221
5.62723e-222
1.76539e-223
2.69163e-225
1.36435e-227
1.75391e-218
4.10008e-219
1.13096e-219
2.78735e-220
5.50257e-221
5.36991e-222
2.50799e-223
5.39973e-225
3.60877e-227
7.18081e-219
1.53006e-219
3.9323e-220
9.96868e-221
2.01855e-221
2.21593e-222
1.21646e-223
3.01418e-225
2.28851e-227
1.50678e-219
3.48615e-220
9.39628e-221
2.50248e-221
5.11131e-222
5.85514e-223
3.42817e-224
8.99741e-226
7.22322e-228
2.15487e-220
5.92423e-221
1.75189e-221
4.79045e-222
9.63966e-223
1.11058e-223
6.62974e-225
1.77107e-226
1.44927e-228
2.49653e-221
8.28628e-222
2.63973e-222
7.20229e-223
1.39691e-223
1.57395e-224
9.30582e-226
2.464e-227
2.00094e-229
2.51523e-222
9.54118e-223
3.13206e-223
8.33497e-224
1.54546e-224
1.68186e-225
9.6668e-227
2.48781e-228
1.96619e-230
2.11378e-223
8.47365e-224
2.76112e-224
7.0677e-225
1.24548e-225
1.29585e-226
7.13345e-228
1.74767e-229
1.30601e-231
2.38239e-224
1.29152e-224
5.18214e-225
1.64156e-225
4.01275e-226
6.68941e-227
6.58338e-228
3.40658e-229
7.70657e-231
5.20015e-233
8.44684e-226
4.55865e-226
1.7861e-226
5.45557e-227
1.27039e-227
1.99555e-228
1.83621e-229
8.72647e-231
1.73933e-232
9.75506e-235
1.07527e-227
5.63802e-228
2.13996e-228
6.29031e-229
1.39389e-229
2.05289e-230
1.73907e-231
7.31831e-233
1.17374e-234
4.8975e-237
1.68374e-222
3.03057e-222
8.93562e-222
5.94327e-222
1.06027e-222
4.03643e-224
5.34636e-226
4.258e-228
2.16213e-230
2.11212e-220
1.13662e-220
5.17622e-221
1.74697e-221
3.37114e-222
2.51611e-223
8.54195e-225
1.36349e-226
6.96732e-229
7.84496e-220
2.19835e-220
7.16557e-221
2.13272e-221
4.36041e-222
4.30336e-223
2.06056e-224
4.4564e-226
2.94642e-228
4.43577e-220
1.18448e-220
3.65402e-221
1.06289e-221
2.19372e-222
2.38858e-223
1.30515e-224
3.1882e-226
2.37485e-228
1.22549e-220
3.64806e-221
1.15894e-221
3.32736e-222
6.7507e-223
7.56637e-224
4.34616e-225
1.11683e-226
8.81177e-229
2.31417e-221
8.01215e-222
2.6491e-222
7.43966e-223
1.45423e-223
1.62324e-224
9.4329e-226
2.45817e-227
1.97088e-229
3.49795e-222
1.35803e-222
4.55962e-223
1.23755e-223
2.31242e-224
2.51134e-225
1.43856e-226
3.70935e-228
2.95025e-230
4.31107e-223
1.76247e-223
5.85562e-224
1.52551e-224
2.71823e-225
2.85054e-226
1.5884e-227
3.98491e-229
3.08941e-231
4.04921e-224
1.66149e-224
5.37188e-225
1.3381e-225
2.26793e-226
2.2766e-227
1.21592e-228
2.90599e-230
2.13064e-232
4.63655e-225
2.57658e-225
1.03444e-225
3.22824e-226
7.67188e-227
1.23296e-227
1.173e-228
5.89551e-230
1.30182e-231
8.61755e-234
1.67573e-226
9.07715e-227
3.53086e-227
1.06084e-227
2.40384e-228
3.65027e-229
3.25398e-230
1.50386e-231
2.92634e-233
1.60883e-235
2.09737e-228
1.09548e-228
4.11829e-229
1.19084e-229
2.57105e-230
3.66984e-231
3.01829e-232
1.23667e-233
1.93594e-235
7.91221e-238
7.50509e-224
7.87067e-224
1.22758e-223
7.9963e-224
1.38232e-224
5.53442e-226
9.385e-228
9.25058e-230
4.35875e-232
7.61426e-222
4.67683e-222
2.38423e-222
8.80663e-223
1.6514e-223
1.24405e-224
4.41008e-226
7.14732e-228
3.61168e-230
4.11885e-221
1.47334e-221
5.56008e-222
1.81556e-222
3.66472e-223
3.58017e-224
1.71353e-225
3.66003e-227
2.37427e-229
3.25521e-221
1.11945e-221
3.93623e-222
1.20186e-222
2.42727e-223
2.58306e-224
1.38704e-225
3.31642e-227
2.41875e-229
1.21276e-221
4.49308e-222
1.55977e-222
4.5314e-223
8.87391e-224
9.6491e-225
5.41667e-226
1.36324e-227
1.05589e-229
2.99474e-222
1.20012e-222
4.13879e-223
1.14844e-223
2.15526e-224
2.31752e-225
1.30967e-226
3.33196e-228
2.61935e-230
5.55199e-223
2.31411e-223
7.83388e-224
2.07497e-224
3.72042e-225
3.89588e-226
2.16674e-227
5.45099e-229
4.25797e-231
7.74245e-224
3.2368e-224
1.06521e-224
2.69556e-225
4.61634e-226
4.67421e-227
2.53075e-228
6.20371e-230
4.72578e-232
7.70797e-225
3.16105e-225
1.00534e-225
2.43102e-226
3.97028e-227
3.85512e-228
2.00257e-229
4.6796e-231
3.37091e-233
8.94114e-226
4.9805e-226
1.98196e-226
6.07455e-227
1.40316e-227
2.17919e-228
2.00951e-229
9.83381e-231
2.12412e-232
1.38101e-234
3.22414e-227
1.73536e-227
6.67582e-228
1.9706e-228
4.34768e-229
6.39748e-230
5.53908e-231
2.49525e-232
4.75007e-234
2.56247e-236
3.94296e-229
2.0402e-229
7.58181e-230
2.15541e-230
4.53752e-231
6.29111e-232
5.03528e-233
2.01306e-234
3.08227e-236
1.23471e-238
4.5767e-225
3.43888e-225
2.63903e-225
1.34868e-225
2.22568e-226
1.08421e-227
2.61606e-229
3.12427e-231
1.31504e-233
3.89435e-223
2.54978e-223
1.33211e-223
4.85255e-224
8.66596e-225
6.53622e-226
2.3684e-227
3.84195e-229
1.90651e-231
2.76194e-222
1.21491e-222
4.9239e-223
1.616e-223
3.14094e-224
3.00321e-225
1.41965e-226
2.97404e-228
1.88704e-230
2.98256e-222
1.23137e-222
4.57257e-223
1.38369e-223
2.67629e-224
2.76541e-225
1.45279e-226
3.39803e-228
2.42954e-230
1.45001e-222
6.0811e-223
2.16676e-223
6.15738e-224
1.15225e-224
1.2112e-225
6.63229e-227
1.63124e-228
1.23749e-230
4.38569e-223
1.86875e-223
6.4563e-224
1.74009e-224
3.12712e-225
3.24345e-226
1.78008e-227
4.42211e-229
3.41043e-231
9.27426e-224
3.94006e-224
1.31759e-224
3.38132e-225
5.8213e-226
5.8899e-227
3.18702e-228
7.84498e-230
6.03025e-232
1.39147e-224
5.80467e-225
1.87606e-225
4.60107e-226
7.58906e-227
7.43836e-228
3.92227e-229
9.41573e-231
7.05704e-233
1.43049e-225
5.80526e-226
1.81072e-226
4.25028e-227
6.70582e-228
6.31513e-229
3.19798e-230
7.32171e-232
5.1878e-234
1.68331e-226
9.28382e-227
3.64755e-227
1.09696e-227
2.46475e-228
3.7086e-229
3.32321e-230
1.58694e-231
3.3594e-233
2.14739e-235
6.00247e-228
3.1886e-228
1.21093e-228
3.51103e-229
7.54957e-230
1.07903e-230
9.09548e-232
4.00204e-233
7.46652e-235
3.95595e-237
7.1571e-230
3.65265e-230
1.3404e-230
3.74603e-231
7.69731e-232
1.03885e-232
8.10889e-234
3.16931e-235
4.75487e-237
1.86812e-239
3.32528e-226
2.0897e-226
1.08816e-226
3.84834e-227
6.04601e-228
3.72189e-229
1.12789e-230
1.45583e-232
5.70434e-235
2.64901e-224
1.6761e-224
8.32352e-225
2.81164e-225
4.76142e-226
3.58785e-227
1.31778e-228
2.13161e-230
1.03837e-232
2.33688e-223
1.13477e-223
4.6277e-224
1.46113e-224
2.69365e-225
2.50946e-226
1.16554e-227
2.38967e-229
1.48255e-231
3.2663e-223
1.46287e-223
5.4484e-224
1.59101e-224
2.9229e-225
2.92328e-226
1.50104e-227
3.43538e-229
2.40872e-231
1.94195e-223
8.50847e-224
3.00894e-224
8.25413e-225
1.47535e-225
1.49602e-226
7.96746e-228
1.91558e-229
1.42473e-231
6.75322e-224
2.91429e-224
9.90628e-225
2.57798e-225
4.44261e-226
4.45459e-227
2.38044e-228
5.78764e-230
4.39414e-232
1.55734e-224
6.58447e-225
2.15793e-225
5.35606e-226
8.87528e-227
8.69884e-228
4.58978e-229
1.10792e-230
8.39121e-233
2.4521e-225
1.0104e-225
3.19801e-226
7.60292e-227
1.21108e-227
1.15208e-228
5.92955e-230
1.39664e-231
1.03105e-233
2.57276e-226
1.02895e-226
3.14533e-227
7.17403e-228
1.09639e-228
1.00394e-229
4.96665e-231
1.11603e-232
7.78595e-235
3.09031e-227
1.66924e-227
6.46321e-228
1.90728e-228
4.17369e-229
6.09932e-230
5.32356e-231
2.4856e-232
5.16515e-234
3.24903e-236
1.08589e-228
5.64551e-229
2.11429e-229
6.02243e-230
1.26363e-230
1.75817e-231
1.44593e-232
6.22555e-234
1.1401e-235
5.9377e-238
1.26126e-230
6.30712e-231
2.28375e-231
6.27531e-232
1.26005e-232
1.65874e-233
1.26516e-234
4.84236e-236
7.12982e-238
2.74902e-240
2.63073e-227
1.46361e-227
6.42933e-228
1.87652e-228
2.71845e-229
1.84322e-230
6.01084e-232
7.8825e-234
2.97752e-236
2.10467e-225
1.22397e-225
5.58515e-226
1.73021e-226
2.73704e-227
2.0623e-228
7.66076e-230
1.23652e-231
5.92757e-234
2.26623e-224
1.11663e-224
4.4345e-225
1.32612e-225
2.30596e-226
2.08221e-227
9.48218e-229
1.90242e-230
1.15477e-232
3.91756e-224
1.78134e-224
6.49645e-225
1.81379e-225
3.17154e-226
3.06113e-227
1.53194e-228
3.43166e-230
2.36055e-232
2.7153e-224
1.19179e-224
4.12349e-225
1.08726e-225
1.86049e-226
1.82445e-227
9.4642e-229
2.22537e-230
1.627e-232
1.04713e-224
4.47785e-225
1.48754e-225
3.73401e-226
6.18794e-227
6.0139e-228
3.13654e-229
7.48495e-231
5.6061e-233
2.57661e-225
1.07344e-225
3.43918e-226
8.26082e-227
1.32141e-227
1.25786e-228
6.48547e-230
1.53807e-231
1.14891e-233
4.20969e-226
1.70583e-226
5.28442e-227
1.21938e-227
1.88112e-228
1.7411e-229
8.76417e-231
2.02874e-232
1.47649e-234
4.48399e-227
1.7633e-227
5.28332e-228
1.17265e-228
1.74044e-229
1.55319e-230
7.52066e-232
1.66108e-233
1.14197e-235
5.60223e-228
2.90273e-228
1.10583e-228
3.20304e-229
6.83609e-230
9.72523e-231
8.28547e-232
3.78907e-233
7.73995e-235
4.79487e-237
1.94037e-229
9.66673e-230
3.56501e-230
9.97882e-231
2.04576e-231
2.77668e-232
2.23225e-233
9.42013e-235
1.69569e-236
8.68752e-239
2.19981e-231
1.05437e-231
3.7622e-232
1.01665e-232
1.99731e-233
2.56933e-234
1.91825e-235
7.20086e-237
1.04199e-238
3.94444e-241
2.19627e-228
1.10402e-228
4.3692e-229
1.15249e-229
1.57101e-230
1.06534e-231
3.54533e-233
4.65359e-235
1.71522e-237
1.81032e-226
9.57921e-227
3.98905e-227
1.13422e-227
1.69333e-228
1.25949e-229
4.71397e-231
7.59827e-233
3.59434e-235
2.32759e-225
1.11865e-225
4.2713e-226
1.20493e-226
1.9853e-227
1.73227e-228
7.68784e-230
1.50901e-231
8.96926e-234
4.85555e-225
2.17475e-225
7.69492e-226
2.05057e-226
3.42513e-227
3.19971e-228
1.5614e-229
3.42281e-231
2.31556e-233
3.82951e-225
1.6536e-225
5.56919e-226
1.41126e-226
2.31945e-227
2.20556e-228
1.11735e-229
2.57934e-231
1.86117e-233
1.61065e-225
6.75991e-226
2.19022e-226
5.30854e-227
8.48629e-228
8.01454e-229
4.0883e-230
9.59547e-232
7.10121e-234
4.18833e-226
1.71021e-226
5.35429e-227
1.2465e-227
1.9304e-228
1.78901e-229
9.0307e-231
2.10737e-232
1.55382e-234
7.06562e-227
2.80489e-227
8.50588e-228
1.90817e-228
2.85843e-229
2.57995e-230
1.27236e-231
2.8985e-233
2.08129e-235
7.62382e-228
2.93727e-228
8.62855e-229
1.86659e-229
2.69686e-230
2.35042e-231
1.11576e-232
2.42542e-234
1.64443e-236
1.04579e-228
4.92175e-229
1.83777e-229
5.22563e-230
1.08928e-230
1.51173e-231
1.25954e-232
5.6504e-234
1.13599e-235
6.936e-238
3.58631e-230
1.61511e-230
5.8412e-231
1.60665e-231
3.22236e-232
4.27451e-233
3.36498e-234
1.39381e-235
2.46922e-237
1.24539e-239
3.99367e-232
1.7233e-232
6.03073e-233
1.60235e-233
3.08359e-234
3.88281e-235
2.84202e-236
1.04776e-237
1.49192e-239
5.54463e-242
1.75433e-229
8.07492e-230
2.93382e-230
7.15223e-231
9.38196e-232
6.33167e-233
2.09652e-234
2.72488e-236
9.60922e-239
1.49768e-227
7.24871e-228
2.76979e-228
7.26475e-229
1.03616e-229
7.64752e-231
2.85775e-232
4.58029e-234
2.14364e-236
2.23859e-226
1.03246e-226
3.77118e-227
1.00335e-227
1.57338e-228
1.3305e-229
5.76975e-231
1.10891e-232
6.49523e-235
5.58191e-226
2.42726e-226
8.30122e-227
2.1122e-227
3.38091e-228
3.06404e-229
1.46157e-230
3.14866e-232
2.10596e-234
4.96806e-226
2.08755e-226
6.82879e-227
1.66426e-227
2.63407e-228
2.43359e-229
1.20614e-230
2.73892e-232
1.9526e-234
2.26799e-226
9.2598e-227
2.92286e-227
6.84653e-228
1.05825e-228
9.73111e-230
4.86399e-231
1.12498e-232
8.23247e-235
6.21731e-227
2.46676e-227
7.54113e-228
1.70337e-228
2.55912e-229
2.31291e-230
1.1446e-231
2.6313e-233
1.91663e-235
1.08283e-227
4.16963e-228
1.23672e-228
2.69988e-229
3.93417e-230
3.46796e-231
1.67771e-232
3.7652e-234
2.66977e-236
1.18499e-228
4.42007e-229
1.27152e-229
2.68305e-230
3.77931e-231
3.22119e-232
1.5008e-233
3.21415e-235
2.15099e-237
2.0061e-229
7.6454e-230
2.75893e-230
7.68921e-231
1.56636e-231
2.12338e-232
1.73224e-233
7.63106e-235
1.51149e-236
9.10359e-239
6.84941e-231
2.48039e-231
8.65309e-232
2.33417e-232
4.58172e-233
5.94629e-234
4.58862e-235
1.86738e-236
3.25912e-238
1.61958e-240
7.54522e-233
2.59998e-233
8.75729e-234
2.28235e-234
4.30309e-235
5.30821e-236
3.8125e-237
1.38155e-238
1.93759e-240
6.91048e-243
1.40617e-230
6.00305e-231
2.02682e-231
4.62558e-232
5.896e-233
3.96981e-234
1.31506e-235
1.70501e-237
5.90164e-240
1.25473e-228
5.56083e-229
1.97104e-229
4.81583e-230
6.62574e-231
4.8595e-232
1.81485e-233
2.90572e-235
1.35739e-237
2.13937e-227
9.22389e-228
3.21941e-228
8.10217e-229
1.21545e-229
9.9946e-231
4.2499e-232
8.04593e-234
4.66971e-236
6.33026e-227
2.59756e-227
8.57734e-228
2.08916e-228
3.2171e-229
2.83599e-230
1.32534e-231
2.81275e-233
1.86104e-235
6.32879e-227
2.51488e-227
7.98365e-228
1.87543e-228
2.86786e-229
2.58056e-230
1.25365e-231
2.8052e-233
1.97734e-235
3.12666e-227
1.20714e-227
3.709e-228
8.41527e-229
1.26145e-229
1.13194e-230
5.55253e-232
1.26656e-233
9.15923e-236
9.02041e-228
3.37944e-228
1.00734e-228
2.21165e-229
3.23167e-230
2.85413e-231
1.38675e-232
3.14359e-234
2.26234e-236
1.62183e-228
5.88e-229
1.70197e-229
3.62102e-230
5.14395e-231
4.4366e-232
2.10824e-233
4.66537e-235
3.26692e-237
1.80329e-229
6.30656e-230
1.77116e-230
3.64949e-231
5.02138e-232
4.19242e-233
1.91953e-234
4.05337e-236
2.67761e-238
4.51163e-230
1.16652e-230
3.92791e-231
1.06883e-231
2.12943e-232
2.82439e-233
2.25947e-234
9.78567e-236
1.91104e-237
1.13539e-239
1.5272e-231
3.75569e-232
1.21658e-232
3.20364e-233
6.15768e-234
7.83033e-235
5.93135e-236
2.37413e-237
4.08516e-239
2.00002e-241
1.66722e-233
3.88052e-234
1.20763e-234
3.07138e-235
5.67567e-236
6.86857e-237
4.84707e-238
1.72831e-239
2.38931e-241
8.33347e-244
1.24847e-231
4.64936e-232
1.47184e-232
3.17787e-233
3.95499e-234
2.65217e-235
8.7777e-237
1.13597e-238
3.88993e-241
1.25836e-229
4.43774e-230
1.46971e-230
3.38017e-231
4.51324e-232
3.28556e-233
1.22435e-234
1.95826e-236
9.12114e-239
2.56775e-228
8.27715e-229
2.74464e-229
6.55812e-230
9.4577e-231
7.58741e-232
3.1725e-233
5.93583e-235
3.41633e-237
8.70522e-228
2.76387e-228
8.75506e-229
2.04702e-229
3.04357e-230
2.61604e-231
1.20002e-232
2.513e-234
1.64549e-236
9.45958e-228
3.00117e-228
9.18184e-229
2.08353e-229
3.08784e-230
2.7124e-231
1.29394e-232
2.85747e-234
1.99275e-236
4.90149e-228
1.55462e-228
4.61611e-229
1.01631e-229
1.48145e-230
1.29977e-231
6.26467e-233
1.41011e-234
1.00799e-236
1.44704e-228
4.56652e-229
1.31695e-229
2.81389e-230
4.00822e-231
3.46567e-232
1.65545e-233
3.70385e-235
2.63489e-237
2.63089e-229
8.17148e-230
2.28853e-230
4.74813e-231
6.58858e-232
5.56949e-233
2.60292e-234
5.68473e-236
3.93329e-238
2.94072e-230
8.86939e-231
2.40816e-231
4.84594e-232
6.52355e-233
5.34353e-234
2.4071e-235
5.01619e-237
3.27264e-239
1.31123e-230
1.90354e-231
5.519e-232
1.44994e-232
2.82408e-233
3.66987e-234
2.88291e-235
1.22888e-236
2.36819e-238
1.38871e-240
4.21723e-232
6.1022e-233
1.69162e-233
4.2937e-234
8.07443e-235
1.00718e-235