/*--------------------------------*- C++ -*----------------------------------*\
| =========                 |                                                 |
| \\      /  F ield         | OpenFOAM: The Open Source CFD Toolbox           |
|  \\    /   O peration     | Version:  2.3.1                                 |
|   \\  /    A nd           | Web:      www.OpenFOAM.org                      |
|    \\/     M anipulation  |                                                 |
\*---------------------------------------------------------------------------*/
FoamFile
{
    version     2.0;
    format      ascii;
    class       volVectorField;
    location    "20";
    object      U;
}
// * * * * * * * * * * * * * * * * * * * * * * * * * * * * * * * * * * * * * //

dimensions      [0 1 -1 0 0 0 0];

internalField   nonuniform List<vector> 
37784
(
(-0.00397761 0.0028805 0.000217062)
(-0.00332047 0.00235732 0.000186294)
(-0.00296529 0.00208336 0.000143383)
(-0.00262565 0.00202073 0.000116513)
(-0.00223733 0.0020809 0.000101698)
(-0.00176083 0.00217144 9.25503e-05)
(-0.00128027 0.00224881 8.94437e-05)
(-0.000723616 0.00242706 7.88945e-05)
(-0.000356777 0.00243968 8.92221e-05)
(-0.00488242 0.00140636 0.000145616)
(-0.0040739 0.00152312 0.000138071)
(-0.00349319 0.00140517 0.000113873)
(-0.00304711 0.00133076 9.47116e-05)
(-0.00263065 0.00132568 8.36511e-05)
(-0.00221292 0.00136746 7.76257e-05)
(-0.00175343 0.00142382 7.53135e-05)
(-0.00131289 0.00145872 7.19436e-05)
(-0.000819239 0.00149743 6.78283e-05)
(-0.000270907 0.00142571 5.3643e-05)
(-0.004573 0.000417373 6.22443e-05)
(-0.00400174 0.000550044 5.97751e-05)
(-0.0034924 0.000576538 5.47088e-05)
(-0.00303042 0.00059461 5.08252e-05)
(-0.00258479 0.000633462 4.9399e-05)
(-0.00214192 0.000687256 4.92393e-05)
(-0.0016722 0.000755697 5.05701e-05)
(-0.00120488 0.000814173 5.16067e-05)
(-0.000712342 0.000904312 5.13914e-05)
(-0.000223076 0.000934048 4.83961e-05)
(-0.00433451 2.00565e-05 -6.20478e-05)
(-0.00385814 7.24036e-05 -4.78207e-05)
(-0.00339157 9.98996e-05 -3.52693e-05)
(-0.00294662 0.000120616 -2.43045e-05)
(-0.00250882 0.000142816 -1.4109e-05)
(-0.00207452 0.000166111 -4.55619e-06)
(-0.00161789 0.000188155 5.15481e-06)
(-0.00116446 0.000204069 1.49272e-05)
(-0.00068923 0.000216189 2.5617e-05)
(-0.000215955 0.000220578 3.82413e-05)
(-0.00410196 0.00303636 0.000665344)
(-0.00342391 0.00253976 0.000536846)
(-0.00304437 0.00226201 0.000412525)
(-0.00268427 0.00218549 0.000337209)
(-0.00227614 0.00222973 0.000296737)
(-0.00179019 0.00230043 0.000271996)
(-0.00129636 0.00237238 0.000261203)
(-0.000738898 0.00250944 0.000235464)
(-0.000360991 0.0025419 0.000231575)
(-0.00504301 0.00160774 0.000408731)
(-0.00421061 0.00172529 0.00039053)
(-0.00360093 0.00158965 0.000323754)
(-0.00312956 0.00149707 0.000270663)
(-0.00269332 0.00147482 0.000239845)
(-0.00225584 0.00150238 0.000223723)
(-0.00178437 0.00154455 0.000216523)
(-0.0013251 0.00157182 0.00020926)
(-0.000822957 0.00159779 0.000199441)
(-0.000277614 0.00150264 0.000172082)
(-0.00476635 0.000669652 0.000176841)
(-0.00415407 0.000776277 0.000175599)
(-0.00361257 0.000774283 0.000162399)
(-0.00312462 0.000767676 0.000151934)
(-0.00265841 0.000784494 0.000148104)
(-0.00219725 0.000820351 0.000148231)
(-0.00171392 0.000870416 0.000151875)
(-0.00123363 0.000914546 0.000155178)
(-0.000728039 0.00097873 0.000156964)
(-0.000230001 0.000975632 0.000152291)
(-0.00455752 0.000183356 -0.000103259)
(-0.00403581 0.000216736 -6.89721e-05)
(-0.00353338 0.000225213 -4.09253e-05)
(-0.00305875 0.000229538 -1.68796e-05)
(-0.00259578 0.000238287 6.16447e-06)
(-0.00213949 0.000250576 2.79589e-05)
(-0.00166389 0.000263557 5.07407e-05)
(-0.00119341 0.000269899 7.35164e-05)
(-0.000699979 0.000269525 9.85613e-05)
(-0.000218968 0.000242503 0.000126584)
(-0.00416122 0.00285131 0.00103846)
(-0.00348118 0.00247812 0.000833741)
(-0.00307535 0.00226108 0.000652859)
(-0.00269587 0.00220485 0.000542801)
(-0.00227539 0.00225185 0.000484457)
(-0.00178745 0.00231797 0.00044936)
(-0.00129123 0.00238688 0.000432464)
(-0.000739126 0.00250478 0.000393972)
(-0.000340285 0.00253961 0.000388602)
(-0.00503096 0.00157967 0.000608812)
(-0.00422542 0.00172556 0.000598286)
(-0.00361494 0.00162008 0.000508214)
(-0.00313403 0.0015407 0.000433087)
(-0.00269065 0.00152068 0.000388356)
(-0.00224727 0.00154573 0.000365429)
(-0.00177564 0.00158227 0.000354486)
(-0.00131348 0.00160436 0.000346217)
(-0.000814913 0.00161807 0.000330616)
(-0.000274579 0.00149712 0.000301324)
(-0.00476581 0.000774992 0.000275918)
(-0.0041548 0.00087466 0.000286267)
(-0.00361041 0.000866534 0.000271328)
(-0.00311898 0.000852219 0.000257528)
(-0.00265089 0.000859708 0.000252467)
(-0.00218836 0.000886246 0.000253724)
(-0.00170628 0.000925027 0.000259775)
(-0.00122712 0.000958392 0.000266198)
(-0.00072294 0.00100229 0.000269107)
(-0.000226806 0.000971524 0.000263963)
(-0.00454281 0.000276469 -6.94499e-05)
(-0.00401884 0.000299051 -1.90667e-05)
(-0.00351622 0.000297314 1.80189e-05)
(-0.00304185 0.00029262 4.86731e-05)
(-0.00257945 0.000293601 7.83573e-05)
(-0.00212362 0.000299045 0.000107003)
(-0.0016486 0.000305774 0.000137149)
(-0.00117872 0.000304918 0.000167371)
(-0.000684626 0.000293452 0.000198081)
(-0.000210377 0.000241105 0.000225909)
(-0.00422606 0.00256161 0.00126086)
(-0.00354928 0.00233343 0.00103353)
(-0.00311277 0.00219724 0.000836043)
(-0.00270959 0.00217486 0.000713024)
(-0.00227538 0.0022326 0.000648115)
(-0.00178382 0.00230061 0.000609237)
(-0.00128791 0.00236789 0.00058959)
(-0.000739782 0.0024823 0.000541985)
(-0.000328715 0.00251075 0.00053525)
(-0.00499274 0.00146411 0.000718593)
(-0.00422709 0.00164152 0.000730428)
(-0.00362347 0.00158471 0.000642718)
(-0.00313489 0.00153309 0.000563796)
(-0.00268443 0.00152527 0.000515517)
(-0.00223618 0.00155373 0.000491682)
(-0.00176469 0.00158912 0.000480683)
(-0.001303 0.00160752 0.000473801)
(-0.000808042 0.00161373 0.000455441)
(-0.000271956 0.00147226 0.00042918)
(-0.00473077 0.000794206 0.00033782)
(-0.00413433 0.000897057 0.000368971)
(-0.00359448 0.000896954 0.000362531)
(-0.00310343 0.000886162 0.000352329)
(-0.00263534 0.000892665 0.000350097)
(-0.00217301 0.000915673 0.000354745)
(-0.00169308 0.000948263 0.000364221)
(-0.00121647 0.000974269 0.000373933)
(-0.000714564 0.00100502 0.000377964)
(-0.000222295 0.000956218 0.000373055)
(-0.00449881 0.000309923 -1.54907e-05)
(-0.00398272 0.000330333 5.07664e-05)
(-0.00348567 0.000326861 9.61328e-05)
(-0.00301489 0.000320072 0.000131962)
(-0.002555 0.000318506 0.000166302)
(-0.00210096 0.000321156 0.000199726)
(-0.00162759 0.000324839 0.000234698)
(-0.00115945 0.000319788 0.000268863)
(-0.00066623 0.000301397 0.00030111)
(-0.000200689 0.000234331 0.000325315)
(-0.00428115 0.002241 0.00135721)
(-0.00361889 0.00214913 0.00115396)
(-0.00315361 0.00209461 0.000970563)
(-0.0027259 0.00211159 0.000852625)
(-0.00227732 0.00218402 0.000791162)
(-0.0017813 0.00225725 0.000754589)
(-0.00128804 0.00232432 0.000735507)
(-0.000743242 0.00244525 0.000683063)
(-0.000327224 0.00246547 0.000677978)
(-0.00493696 0.00130891 0.000756559)
(-0.0042202 0.00151077 0.000802239)
(-0.0036299 0.00150655 0.000735975)
(-0.00313596 0.00148922 0.000667742)
(-0.00267852 0.00149943 0.000625013)
(-0.0022256 0.00153506 0.000605613)
(-0.00175401 0.00157224 0.000597976)
(-0.00129458 0.0015886 0.000594654)
(-0.000803015 0.0015918 0.000576272)
(-0.000270476 0.00143367 0.00055531)
(-0.00467803 0.000759587 0.000371475)
(-0.00410469 0.000868883 0.000429481)
(-0.00357437 0.000884415 0.000439181)
(-0.00308581 0.000884326 0.00043843)
(-0.0026182 0.000895591 0.000442614)
(-0.00215631 0.000919107 0.000452643)
(-0.00167844 0.000949088 0.000466528)
(-0.00120489 0.000970455 0.000479784)
(-0.000705702 0.000993657 0.000485082)
(-0.000218063 0.00093324 0.000479936)
(-0.0044439 0.000307091 4.73526e-05)
(-0.00394257 0.000330008 0.000131413)
(-0.00345425 0.00033002 0.000186529)
(-0.00298806 0.000325537 0.000227832)
(-0.00253068 0.000324781 0.000266075)
(-0.00207821 0.000327145 0.000302785)
(-0.00160638 0.000329769 0.000340495)
(-0.00114033 0.000322413 0.000376062)
(-0.000648946 0.000300215 0.00040711)
(-0.000192093 0.000224805 0.000424679)
(-0.00431528 0.00192992 0.0013525)
(-0.00367582 0.00195101 0.00120475)
(-0.00318899 0.00196875 0.00105749)
(-0.00274003 0.00202409 0.000959886)
(-0.00227858 0.00211187 0.000910976)
(-0.00177882 0.00219163 0.000882639)
(-0.00129057 0.00225966 0.000867494)
(-0.000749456 0.00239383 0.000814794)
(-0.000334255 0.00240665 0.000809723)
(-0.00486446 0.00114045 0.000737386)
(-0.00420137 0.00135894 0.000821646)
(-0.00362944 0.00140268 0.000789741)
(-0.00313386 0.00141991 0.000743679)
(-0.00267102 0.00145025 0.000714766)
(-0.00221438 0.00149485 0.000704938)
(-0.00174296 0.00153562 0.000704217)
(-0.00128711 0.00155138 0.000706532)
(-0.000798806 0.00155549 0.000691374)
(-0.000269402 0.00138392 0.000676532)
(-0.00461075 0.000692977 0.000377484)
(-0.0040661 0.000809144 0.000465193)
(-0.00354944 0.000842859 0.00049713)
(-0.00306569 0.000856946 0.00051126)
(-0.00259948 0.000876281 0.000525691)
(-0.00213848 0.00090289 0.000543383)
(-0.00166282 0.000932729 0.000563)
(-0.00119289 0.000951547 0.000580207)
(-0.000696903 0.000971347 0.000587255)
(-0.000214129 0.000903386 0.000580943)
(-0.00437903 0.000283098 9.63288e-05)
(-0.00389735 0.000310569 0.000200266)
(-0.00342067 0.000316648 0.000268562)
(-0.00296048 0.000316837 0.000318234)
(-0.00250605 0.000318849 0.000362201)
(-0.00205527 0.000322491 0.000403027)
(-0.00158517 0.00032544 0.000443655)
(-0.00112176 0.000317211 0.000480108)
(-0.000633163 0.000293508 0.000509669)
(-0.000184678 0.000213704 0.000520273)
(-0.00432269 0.00164659 0.00128204)
(-0.00371163 0.00175331 0.00120324)
(-0.00321257 0.00183012 0.00110435)
(-0.00274777 0.00191903 0.00103747)
(-0.00227645 0.0020206 0.00100799)
(-0.00177472 0.00210684 0.000992843)
(-0.00129358 0.0021763 0.000984865)
(-0.000757126 0.00232794 0.000936861)
(-0.00034851 0.00233444 0.000927548)
(-0.00477597 0.000974926 0.000678758)
(-0.00416768 0.00120213 0.000802066)
(-0.00361809 0.00128528 0.000810961)
(-0.00312527 0.00133379 0.000794354)
(-0.00265965 0.00138361 0.000785318)
(-0.00220089 0.00143745 0.000789147)
(-0.00173041 0.00148255 0.000798451)
(-0.00127913 0.00149877 0.00080833)
(-0.000794085 0.00150672 0.000799907)
(-0.000268168 0.00132487 0.000791509)
(-0.00453059 0.000611723 0.000360852)
(-0.00401774 0.000732948 0.000478603)
(-0.00351803 0.00078383 0.000536304)
(-0.00304155 0.000812632 0.000569277)
(-0.00257812 0.000841225 0.000597145)
(-0.00211886 0.000872161 0.000624564)
(-0.00164595 0.000903279 0.000651273)
(-0.00118028 0.000920876 0.000672942)
(-0.00068814 0.000939952 0.000682605)
(-0.000210538 0.000866928 0.000673858)
(-0.00430533 0.000249777 0.000129292)
(-0.00384651 0.00028151 0.000253913)
(-0.00338374 0.000293963 0.000337729)
(-0.00293099 0.000299586 0.000398321)
(-0.0024803 0.000305226 0.00044996)
(-0.0020317 0.00031094 0.000496017)
(-0.00156385 0.000315007 0.000540118)
(-0.00110377 0.000306872 0.000577427)
(-0.000618855 0.000283237 0.000605944)
(-0.00017843 0.000201746 0.000609754)
(-0.00430131 0.00139832 0.0011716)
(-0.00372236 0.00156442 0.00116365)
(-0.00322036 0.00168608 0.00111848)
(-0.002746 0.00180175 0.00108837)
(-0.00226867 0.00191422 0.00108287)
(-0.00176728 0.00200582 0.00108473)
(-0.0012947 0.00207616 0.00108677)
(-0.000764349 0.00224659 0.00104923)
(-0.000369004 0.00224666 0.00102831)
(-0.00467296 0.000822081 0.000594789)
(-0.00411781 0.00105068 0.00075466)
(-0.00359345 0.00116329 0.000806008)
(-0.00310775 0.00123774 0.000822632)
(-0.00264249 0.00130456 0.000837334)
(-0.00218364 0.00136675 0.00085771)
(-0.00171519 0.00141606 0.000879477)
(-0.00126904 0.00143329 0.000898565)
(-0.000787368 0.00144672 0.000900648)
(-0.000266252 0.0012588 0.000898934)
(-0.00443882 0.000526898 0.000326138)
(-0.00395903 0.000650551 0.000472668)
(-0.00347874 0.00071564 0.000557477)
(-0.00301194 0.000757802 0.000611731)
(-0.00255299 0.000795358 0.000655346)
(-0.00209668 0.000830872 0.000694124)
(-0.00162736 0.000863814 0.000729124)
(-0.00116661 0.00088088 0.000755774)
(-0.000679217 0.000900459 0.000769116)
(-0.000207398 0.000823842 0.000756488)
(-0.00422261 0.000213389 0.000142137)
(-0.00378867 0.000248438 0.000288072)
(-0.00334186 0.000266598 0.000389509)
(-0.00289816 0.000277513 0.000463477)
(-0.00245238 0.000286921 0.00052484)
(-0.0020068 0.000294982 0.000577516)
(-0.00154205 0.00030052 0.000626041)
(-0.00108598 0.000293091 0.000664661)
(-0.000605672 0.000270548 0.000693203)
(-0.000173205 0.000189573 0.000690757)
(-0.00425211 0.00118587 0.00104021)
(-0.0037074 0.00138873 0.00109808)
(-0.0032105 0.0015417 0.00110683)
(-0.00273285 0.00167662 0.00111574)
(-0.00225359 0.00179643 0.00113648)
(-0.00175495 0.00189133 0.00115789)
(-0.0012911 0.0019609 0.00117233)
(-0.000768191 0.00214669 0.00115285)
(-0.000393238 0.0021369 0.00110817)
(-0.00455732 0.000686628 0.000496409)
(-0.00405196 0.000910461 0.000688758)
(-0.00355465 0.00104286 0.000780846)
(-0.0030799 0.00113704 0.000831564)
(-0.00261823 0.00121733 0.000871775)
(-0.00216146 0.00128623 0.000910311)
(-0.00169623 0.00133891 0.000946127)
(-0.0012552 0.00135718 0.000975563)
(-0.000776945 0.00137599 0.000992111)
(-0.000262907 0.00118806 0.000996833)
(-0.00433701 0.000445674 0.000277755)
(-0.00389006 0.00056878 0.000450612)
(-0.0034308 0.00064426 0.000562118)
(-0.00297581 0.000697339 0.000638631)
(-0.00252319 0.000742591 0.000699311)
(-0.00207121 0.000782232 0.00075052)
(-0.00160655 0.000816845 0.000794691)
(-0.0011513 0.000833511 0.00082677)
(-0.000669825 0.000853315 0.000844944)
(-0.000204802 0.000773792 0.000827095)
(-0.00413192 0.000178072 0.000136361)
(-0.00372338 0.000215017 0.000302735)
(-0.00329395 0.000237706 0.000422668)
(-0.00286085 0.000253189 0.00051164)
(-0.00242135 0.000266019 0.000584338)
(-0.00197987 0.00027634 0.000644879)
(-0.00151924 0.000283383 0.000698823)
(-0.00106786 0.000277043 0.000739437)
(-0.000593109 0.000256138 0.000769294)
(-0.000168817 0.000177684 0.000761223)
(-0.00417802 0.00100644 0.000900717)
(-0.00366831 0.00122813 0.00101605)
(-0.00318286 0.00140038 0.00107535)
(-0.00270761 0.00154728 0.00112249)
(-0.00223022 0.00167069 0.00116974)
(-0.00173644 0.0017661 0.00121173)
(-0.00127958 0.00183191 0.00124015)
(-0.000764677 0.00202041 0.00124816)
(-0.000413863 0.0019808 0.00116804)
(-0.00443119 0.000569984 0.0003915)
(-0.00397142 0.000784254 0.000611457)
(-0.00350199 0.000927924 0.000740494)
(-0.00304128 0.0010356 0.000824002)
(-0.00258618 0.00112547 0.000889718)
(-0.00213359 0.00119905 0.000946801)
(-0.00167277 0.00125373 0.000997233)
(-0.00123612 0.00127255 0.00103734)
(-0.000761253 0.00129394 0.00107175)
(-0.000257092 0.00111493 0.00108347)
(-0.00422678 0.000372015 0.000219495)
(-0.0038114 0.000491794 0.000415477)
(-0.00337406 0.000573762 0.000552001)
(-0.00293261 0.00063486 0.000650522)
(-0.00248813 0.000686026 0.000728632)
(-0.00204191 0.000728904 0.000792735)
(-0.00158307 0.000764543 0.000846519)
(-0.00113381 0.000780505 0.000884287)
(-0.00065967 0.000798674 0.000908248)
(-0.000202824 0.000716585 0.000884761)
(-0.00403402 0.000146027 0.000113895)
(-0.00365053 0.000183529 0.000299179)
(-0.0032394 0.000209341 0.000437506)
(-0.00281825 0.000228381 0.000542266)
(-0.00238647 0.000244008 0.000627317)
(-0.00195028 0.000256272 0.000696653)
(-0.00149492 0.000264634 0.000756799)
(-0.00104885 0.000259596 0.000800053)
(-0.000580701 0.00024041 0.000832305)
(-0.000165115 0.000166445 0.000819374)
(0.0045431 -0.00547648 0.000694227)
(0.0113175 -0.00528356 0.0061344)
(0.0177692 -0.00574986 0.00941182)
(0.0203582 -0.00329615 0.0115204)
(0.0142804 0.00287761 0.014755)
(0.00603865 0.00585829 0.0157921)
(0.0036602 0.00414276 0.0125721)
(0.0023839 0.00236869 0.00892806)
(0.000756972 0.00157127 0.00729426)
(-0.00144812 -0.00530385 0.00258142)
(0.000851498 -0.00167714 0.00569579)
(0.000936275 0.00235472 0.00716981)
(-0.000596513 0.00498829 0.00717483)
(-0.0016714 0.00681848 0.00768183)
(-0.00104899 0.00712629 0.00849779)
(0.000470963 0.0056406 0.00786876)
(0.00078275 0.00403236 0.00662504)
(0.000311695 0.00309891 0.00600276)
(-0.00620712 -0.00180857 0.00252241)
(-0.00551731 0.000697632 0.0030986)
(-0.005253 0.00278023 0.00377269)
(-0.00466831 0.0041044 0.00488619)
(-0.00341997 0.00517106 0.00581559)
(-0.00171251 0.00563039 0.00621744)
(-0.000279996 0.00499966 0.00596133)
(0.000260903 0.00409988 0.00539872)
(0.000167523 0.00352216 0.00507885)
(-0.00642624 -0.000256365 0.00189984)
(-0.00574494 0.00112275 0.00243517)
(-0.00509367 0.00248355 0.00300186)
(-0.00430605 0.00372515 0.00352322)
(-0.00328972 0.00461773 0.00400178)
(-0.00203797 0.00491324 0.00432099)
(-0.000914419 0.00459703 0.00434337)
(-0.000280364 0.00414172 0.00414033)
(-3.98088e-05 0.00380523 0.00401007)
(-0.00569768 0.00033109 0.0020074)
(-0.00503314 0.00131326 0.00224238)
(-0.00450094 0.00224926 0.00247927)
(-0.00383589 0.00303095 0.00279555)
(-0.00296437 0.00360654 0.00310439)
(-0.00197874 0.0038722 0.00328756)
(-0.00106029 0.00379649 0.0033229)
(-0.000475124 0.00354534 0.0030899)
(-0.00516047 0.000819617 0.00170693)
(-0.00454454 0.00144854 0.00191919)
(-0.00399213 0.00205899 0.00206963)
(-0.003392 0.00260528 0.00222688)
(-0.00269838 0.0030151 0.00239534)
(-0.00194608 0.00320143 0.00251211)
(-0.00126013 0.00319457 0.00256629)
(-0.000729371 0.00294577 0.00249775)
(-0.00469291 0.000945771 0.00140295)
(-0.00413241 0.00141088 0.00158049)
(-0.00361058 0.00182213 0.00168495)
(-0.00306893 0.00217294 0.0017833)
(-0.00248506 0.00244347 0.00188709)
(-0.00187395 0.00258315 0.00196801)
(-0.0013527 0.00260998 0.00202325)
(-0.000880159 0.00242139 0.00206849)
(-0.00435752 0.000977682 0.00105267)
(-0.00383971 0.0012997 0.00122412)
(-0.00334195 0.00157146 0.00132315)
(-0.00284491 0.00180228 0.00140553)
(-0.00233934 0.00198475 0.00148742)
(-0.00182333 0.00209962 0.00156398)
(-0.00143327 0.00215999 0.00163622)
(-0.000997786 0.00221752 0.00182151)
(-0.00408284 0.000855921 0.000761278)
(-0.00360788 0.00108292 0.000924536)
(-0.00313853 0.00126442 0.00102878)
(-0.00267047 0.00141683 0.00111121)
(-0.00219828 0.0015404 0.00118356)
(-0.00171111 0.00163318 0.00124542)
(-0.00125738 0.00169142 0.00128782)
(-0.000748217 0.00185735 0.00133253)
(-0.000379119 0.00172523 0.00120819)
(-0.00429686 0.000471679 0.000285413)
(-0.00387818 0.000672915 0.00052787)
(-0.00343659 0.000820789 0.000688929)
(-0.00299215 0.000936283 0.000802437)
(-0.00254621 0.00103192 0.00089228)
(-0.00209976 0.00110807 0.000967232)
(-0.00164453 0.00116318 0.00103171)
(-0.00121093 0.00118166 0.00108161)
(-0.000739117 0.00119967 0.00113488)
(-0.000244776 0.00103819 0.00114205)
(-0.00410985 0.000307764 0.000154436)
(-0.00372405 0.00042192 0.000369967)
(-0.00330884 0.000506797 0.000528991)
(-0.00288223 0.00057298 0.000648304)
(-0.00244752 0.000628116 0.00074339)
(-0.0020085 0.000673124 0.000820267)
(-0.00155668 0.00070891 0.000883588)
(-0.00111378 0.000723685 0.000927026)
(-0.000648447 0.000737042 0.000957084)
(-0.000201191 0.000651745 0.000928197)
(-0.00392999 0.000118344 7.75892e-05)
(-0.00357046 0.00015519 0.000279596)
(-0.00317803 0.000182781 0.000435376)
(-0.00276991 0.000204264 0.00055589)
(-0.00234724 0.000221943 0.000653664)
(-0.00191759 0.000235714 0.000732303)
(-0.00146872 0.000245079 0.000799071)
(-0.00102854 0.000241416 0.000845417)
(-0.000568055 0.000223612 0.000880632)
(-0.000161911 0.000155782 0.000863246)
(-0.00137996 -0.00351091 0.000501636)
(0.00327428 -0.0034499 0.0052435)
(0.00673264 -0.00199372 0.008969)
(0.00624961 0.00149143 0.0120205)
(0.00265488 0.00459907 0.0142719)
(0.00125424 0.00449355 0.0136595)
(0.00185173 0.0028848 0.0106314)
(0.00138814 0.00176971 0.0079626)
(0.000449684 0.0012383 0.00677794)
(-0.00622566 -0.00254487 0.000721002)
(-0.00490345 -6.31925e-06 0.00359232)
(-0.00417588 0.00243417 0.00532758)
(-0.0038235 0.0042998 0.00621854)
(-0.0031413 0.00553705 0.00728554)
(-0.00147866 0.00549614 0.0078885)
(1.34183e-05 0.0043431 0.00720669)
(0.000382254 0.00321961 0.00623358)
(0.000169078 0.00254922 0.00574584)
(-0.00682734 -0.000828611 0.00130834)
(-0.00627865 0.000943014 0.00242893)
(-0.0056999 0.00249324 0.00351707)
(-0.0047844 0.00362264 0.00465026)
(-0.00341546 0.0044686 0.00553757)
(-0.00178572 0.00467756 0.00589768)
(-0.000512536 0.00413408 0.00566089)
(2.92289e-05 0.00346517 0.00519145)
(7.43757e-05 0.0030282 0.00492377)
(-0.00624208 -4.85809e-05 0.00125426)
(-0.0056852 0.00111476 0.00206453)
(-0.00502168 0.00227822 0.00277344)
(-0.00420536 0.00329327 0.00337367)
(-0.00318361 0.00399419 0.00388558)
(-0.00200533 0.00419455 0.0042053)
(-0.000987475 0.00394013 0.0042226)
(-0.000377772 0.00357714 0.00405886)
(-8.05774e-05 0.0033336 0.00394776)
(-0.00553335 0.00033134 0.00147589)
(-0.00497237 0.0012099 0.00192156)
(-0.00441433 0.00203121 0.00231086)
(-0.00372673 0.0027092 0.00269611)
(-0.00287611 0.00319644 0.00303429)
(-0.00194834 0.00341051 0.00323287)
(-0.00111019 0.00335368 0.00327927)
(-0.00053083 0.00315962 0.00312738)
(-0.000180512 0.00306345 0.00306993)
(-0.00501256 0.000686792 0.00131034)
(-0.00446895 0.00128628 0.0016578)
(-0.00391927 0.00185353 0.00191418)
(-0.00331546 0.00234301 0.00214194)
(-0.00263423 0.0027033 0.00234925)
(-0.0019103 0.00286953 0.00249215)
(-0.00125172 0.00287593 0.00256351)
(-0.000701163 0.00271496 0.00257566)
(-0.000370448 0.00270235 0.00255389)
(-0.00456477 0.000795127 0.0011129)
(-0.00405788 0.00124176 0.00137843)
(-0.00354793 0.00163452 0.00156123)
(-0.00301045 0.0019643 0.00171675)
(-0.00243556 0.00221405 0.00185679)
(-0.0018373 0.00234642 0.00196489)
(-0.00130397 0.00238053 0.00203876)
(-0.000783877 0.00226652 0.00216078)
(-0.000512836 0.00225516 0.00209144)
(-0.00423648 0.000826614 0.000852488)
(-0.00376108 0.001141 0.0010806)
(-0.0032816 0.00140884 0.00123488)
(-0.00279295 0.00163363 0.00136058)
(-0.00229298 0.00180785 0.00147206)
(-0.00178046 0.00191741 0.00157188)
(-0.00134709 0.00197161 0.00165858)
(-0.000849219 0.00200644 0.00191192)
(-0.000626827 0.00192804 0.00184429)
(-0.00397087 0.000729928 0.000626726)
(-0.0035295 0.000952624 0.000828331)
(-0.00307937 0.0011354 0.000970744)
(-0.00262236 0.00128795 0.00108414)
(-0.00215826 0.00140881 0.00117892)
(-0.00167937 0.00149623 0.00125791)
(-0.00122397 0.00154418 0.00131117)
(-0.000722086 0.0016379 0.00137506)
(-0.000256038 0.00147955 0.00123668)
(-0.00415668 0.000390205 0.000181488)
(-0.0037745 0.000576134 0.000441456)
(-0.00336004 0.000722696 0.000629179)
(-0.00293329 0.000841122 0.000768978)
(-0.00249865 0.000939122 0.000880617)
(-0.00206017 0.0010159 0.000971935)
(-0.00161188 0.00107 0.00104878)
(-0.00118016 0.00108753 0.00110612)
(-0.000714897 0.00109443 0.0011689)
(-0.000230769 0.000965004 0.00115849)
(-0.00398784 0.00025336 8.49326e-05)
(-0.00362924 0.000360199 0.000316376)
(-0.00323581 0.000444966 0.000494903)
(-0.00282491 0.00051354 0.000633108)
(-0.00240139 0.000570762 0.00074407)
(-0.00197091 0.000616773 0.000833098)
(-0.00152735 0.000651875 0.000905372)
(-0.00109126 0.000665189 0.000954126)
(-0.000636436 0.000670218 0.000988643)
(-0.000200041 0.000587274 0.000956682)
(-0.00382091 9.52956e-05 3.02892e-05)
(-0.00348382 0.000130562 0.000246556)
(-0.00311002 0.000158719 0.000418203)
(-0.00271576 0.000181581 0.000553732)
(-0.00230344 0.00020055 0.000663996)
(-0.00188156 0.000215358 0.000752009)
(-0.00144045 0.000225375 0.00082539)
(-0.00100679 0.000223063 0.000875031)
(-0.000555342 0.000206039 0.000912624)
(-0.000159308 0.000145574 0.000891655)
(-0.00603898 -0.000914578 0.000207367)
(-0.00388532 -0.000314434 0.00438997)
(-0.00229985 0.00123586 0.00794921)
(-0.00212187 0.003069 0.0105786)
(-0.00189961 0.00375841 0.0118388)
(-0.00038753 0.00301868 0.0110357)
(0.000754836 0.00201074 0.00887068)
(0.000690972 0.00132797 0.00705737)
(0.000229096 0.00097189 0.00621704)
(-0.00739139 -0.000999227 9.03948e-05)
(-0.00665909 0.000633117 0.00254281)
(-0.00570786 0.00228568 0.00436922)
(-0.00471181 0.00358927 0.00563187)
(-0.003364 0.00430718 0.00669188)
(-0.00162945 0.00414102 0.0070706)
(-0.000353555 0.00332631 0.00650308)
(7.01011e-05 0.00256362 0.00578628)
(5.68541e-05 0.00208828 0.00541494)
(-0.00661507 -0.000262416 0.000754696)
(-0.00620843 0.00104593 0.00202574)
(-0.00556762 0.00223803 0.00322776)
(-0.00459391 0.00314116 0.00432307)
(-0.00327265 0.00373861 0.0051418)
(-0.0018194 0.00380619 0.00546115)
(-0.000706326 0.00339282 0.00527582)
(-0.000162623 0.0029113 0.00491319)
(-3.41906e-06 0.00258707 0.00469532)
(-0.00594988 9.81237e-05 0.000868784)
(-0.00547749 0.00107497 0.00177765)
(-0.00483345 0.00204296 0.00254617)
(-0.00402714 0.00285624 0.00318591)
(-0.00304401 0.00339521 0.00370434)
(-0.00196593 0.0035364 0.00400848)
(-0.00104974 0.00334865 0.00403418)
(-0.000460308 0.00307325 0.00391591)
(-0.000120334 0.00288868 0.00382206)
(-0.00530568 0.000346874 0.00108755)
(-0.00481964 0.00110825 0.00164989)
(-0.00426368 0.00181374 0.00212943)
(-0.00358355 0.00239108 0.00255866)
(-0.00277309 0.00279805 0.00291278)
(-0.00191191 0.00297291 0.00312107)
(-0.00114248 0.0029375 0.00318086)
(-0.000574201 0.00279465 0.00309953)
(-0.000180194 0.00271268 0.00301838)
(-0.00481998 0.000597711 0.000996632)
(-0.00433606 0.00114442 0.00142491)
(-0.00380513 0.00165468 0.00175403)
(-0.00321462 0.0020863 0.00203273)
(-0.00255754 0.00240005 0.00226827)
(-0.00186863 0.00254886 0.00242976)
(-0.00123761 0.00256597 0.00251282)
(-0.00069205 0.00246257 0.00254819)
(-0.000244109 0.00243785 0.00245822)
(-0.00440533 0.000682167 0.000866593)
(-0.00394617 0.00109452 0.00119103)
(-0.00345728 0.00145845 0.00143199)
(-0.0029339 0.00176195 0.00163179)
(-0.00237519 0.00198948 0.00180022)
(-0.00179571 0.00211369 0.00192796)
(-0.00126271 0.00215225 0.00200994)
(-0.000738912 0.00208242 0.00210867)
(-0.000269793 0.00206174 0.00195822)
(-0.00409545 0.000705294 0.000673012)
(-0.0036595 0.00100143 0.000942007)
(-0.00320254 0.00125701 0.00113943)
(-0.0027278 0.0014706 0.00129999)
(-0.00223825 0.0016343 0.00143533)
(-0.00173484 0.00173737 0.00155055)
(-0.00128136 0.00178685 0.00163934)
(-0.000777371 0.00180896 0.00182015)
(-0.000289629 0.00176393 0.00166614)
(-0.00384636 0.000624409 0.000499489)
(-0.00343679 0.000836322 0.00073049)
(-0.00300768 0.00101445 0.000903973)
(-0.00256467 0.00116303 0.00104337)
(-0.00211136 0.00127911 0.00115725)
(-0.0016432 0.00136054 0.00124993)
(-0.00119043 0.00140157 0.00131088)
(-0.000701312 0.00145639 0.00137149)
(-0.000216714 0.00135945 0.00126098)
(-0.00401284 0.000323584 8.15321e-05)
(-0.00366276 0.000492963 0.000354396)
(-0.00327413 0.000634133 0.000563461)
(-0.00286584 0.000751561 0.000725422)
(-0.00244422 0.000849078 0.00085597)
(-0.00201544 0.000924853 0.000961682)
(-0.00157587 0.000977153 0.00104881)
(-0.00114817 0.000994282 0.00111158)
(-0.000693665 0.000994338 0.00117371)
(-0.00022504 0.000895687 0.00115508)
(-0.00386226 0.000208375 1.26924e-05)
(-0.00352827 0.000306796 0.000256586)
(-0.00315588 0.00038909 0.000451445)
(-0.00276117 0.000457775 0.000606218)
(-0.00235001 0.000515401 0.000731499)
(-0.00192934 0.000561402 0.000831692)
(-0.00149529 0.000595313 0.000912052)
(-0.00106707 0.000607543 0.000965765)
(-0.000623862 0.000605789 0.00100286)
(-0.000198998 0.000529855 0.000972187)
(-0.00370786 7.66381e-05 -2.52375e-05)
(-0.00339143 0.000109665 0.000202653)
(-0.00303588 0.000137434 0.000388166)
(-0.00265598 0.000160762 0.000537428)
(-0.0022551 0.000180322 0.000659449)
(-0.00184221 0.000195711 0.000756533)
(-0.00141011 0.000206097 0.000836213)
(-0.000983969 0.000205107 0.000889313)
(-0.000542725 0.000188967 0.000928356)
(-0.000157096 0.000135468 0.000905882)
(-0.00750284 0.000180177 0.000101043)
(-0.00678397 0.000867022 0.00342494)
(-0.00568332 0.00180444 0.00637122)
(-0.00450673 0.00249633 0.00842739)
(-0.00286144 0.00251156 0.0093328)
(-0.00103468 0.0020044 0.00883531)
(4.06148e-05 0.00142698 0.00743587)
(0.000214923 0.0010023 0.00623605)
(7.44895e-05 0.000762599 0.00564902)
(-0.00703399 -0.000266598 7.04267e-05)
(-0.006597 0.00085844 0.00212551)
(-0.00572113 0.00198795 0.00380843)
(-0.00461199 0.00284708 0.00505109)
(-0.00322069 0.00325856 0.00595674)
(-0.00171469 0.00309396 0.00622075)
(-0.000630367 0.00255299 0.00581923)
(-0.000163734 0.00204232 0.0053146)
(-2.84313e-05 0.00170853 0.00503957)
(-0.00620926 3.14315e-05 0.000489086)
(-0.00586715 0.00103112 0.0017535)
(-0.00522994 0.00194434 0.0029334)
(-0.00429169 0.00263178 0.00394729)
(-0.00309099 0.00304333 0.00468021)
(-0.00183098 0.00306376 0.00497014)
(-0.000856963 0.00277418 0.00485016)
(-0.000313342 0.00243676 0.00458915)
(-6.57314e-05 0.00220042 0.00441868)
(-0.00560119 0.000197524 0.000620628)
(-0.00518651 0.00100288 0.00154065)
(-0.00457748 0.00178897 0.00232092)
(-0.00380881 0.00243151 0.00296565)
(-0.00289332 0.00284704 0.00346925)
(-0.00192267 0.00295677 0.00375532)
(-0.00109678 0.00282908 0.00379948)
(-0.000525212 0.00262895 0.00372564)
(-0.000150825 0.00248912 0.00365004)
(-0.00503598 0.000359424 0.000797139)
(-0.0046072 0.00100375 0.00141431)
(-0.00407232 0.00159937 0.00194032)
(-0.00342038 0.00208472 0.002392)
(-0.00266221 0.00242326 0.00275089)
(-0.00186984 0.00257023 0.00296507)
(-0.00116057 0.00255528 0.00303994)
(-0.000605516 0.00245572 0.00300648)
(-0.000181862 0.00239044 0.00293631)
(-0.00459847 0.000532515 0.000745557)
(-0.00416541 0.00101589 0.00121697)
(-0.00366295 0.00146463 0.00159207)
(-0.00309714 0.00184052 0.0019045)
(-0.00247215 0.00211229 0.00215865)
(-0.00182207 0.00224632 0.00233303)
(-0.00122004 0.00227229 0.0024262)
(-0.000683278 0.00220952 0.00247206)
(-0.000210214 0.00218751 0.0024145)
(-0.00422527 0.000593644 0.00065746)
(-0.00380888 0.00096423 0.00101855)
(-0.0033464 0.00129409 0.00130018)
(-0.00284378 0.00156891 0.00153228)
(-0.00230657 0.00177415 0.00172178)
(-0.00175007 0.00188979 0.00186365)
(-0.00122585 0.00193153 0.00195251)
(-0.000706772 0.00189317 0.00203617)
(-0.000210768 0.00187549 0.00194791)
(-0.00394114 0.000606332 0.000513121)
(-0.00354141 0.000878214 0.000809873)
(-0.00310915 0.00111632 0.00103933)
(-0.00265215 0.00131539 0.00122665)
(-0.00217706 0.00146728 0.00138055)
(-0.001687 0.00156344 0.00150657)
(-0.00122675 0.00160955 0.00159743)
(-0.000727472 0.00162489 0.00173502)