/*--------------------------------*- C++ -*----------------------------------*\
| =========                 |                                                 |
| \\      /  F ield         | OpenFOAM: The Open Source CFD Toolbox           |
|  \\    /   O peration     | Version:  2.3.1                                 |
|   \\  /    A nd           | Web:      www.OpenFOAM.org                      |
|    \\/     M anipulation  |                                                 |
\*---------------------------------------------------------------------------*/
FoamFile
{
    version     2.0;
    format      ascii;
    class       volVectorField;
    location    "20";
    object      U_0;
}
// * * * * * * * * * * * * * * * * * * * * * * * * * * * * * * * * * * * * * //

dimensions      [0 1 -1 0 0 0 0];

internalField   nonuniform List<vector> 
37784
(
(-0.00397706 0.00288084 0.000217079)
(-0.00332006 0.00235773 0.000186293)
(-0.00296471 0.00208382 0.000143384)
(-0.00262488 0.0020211 0.000116516)
(-0.00223644 0.00208104 0.0001017)
(-0.00175993 0.00217129 9.25489e-05)
(-0.00127951 0.00224832 8.94358e-05)
(-0.000723147 0.00242635 7.8886e-05)
(-0.000356496 0.00243875 8.91934e-05)
(-0.00488214 0.00140702 0.000145641)
(-0.00407352 0.00152347 0.000138074)
(-0.00349277 0.00140552 0.000113877)
(-0.00304658 0.00133108 9.47163e-05)
(-0.00263 0.00132593 8.36554e-05)
(-0.00221219 0.00136755 7.76275e-05)
(-0.00175271 0.00142375 7.5312e-05)
(-0.00131229 0.00145845 7.19386e-05)
(-0.00081883 0.00149704 6.78215e-05)
(-0.000270743 0.00142528 5.36334e-05)
(-0.00457284 0.000417741 6.22592e-05)
(-0.00400145 0.000550301 5.97858e-05)
(-0.00349201 0.000576777 5.47194e-05)
(-0.00302993 0.00059482 5.08346e-05)
(-0.00258423 0.000633622 4.94068e-05)
(-0.00214131 0.000687329 4.9245e-05)
(-0.00167163 0.000755666 5.05729e-05)
(-0.00120442 0.000814027 5.16068e-05)
(-0.000712048 0.000904078 5.1389e-05)
(-0.00022298 0.000933756 4.83912e-05)
(-0.0043344 2.01776e-05 -6.2026e-05)
(-0.0038579 7.25035e-05 -4.77986e-05)
(-0.00339122 9.99925e-05 -3.52478e-05)
(-0.00294618 0.000120699 -2.42836e-05)
(-0.00250831 0.000142883 -1.40897e-05)
(-0.00207398 0.000166153 -4.53828e-06)
(-0.00161739 0.000188168 5.16947e-06)
(-0.00116405 0.000204052 1.49376e-05)
(-0.000688967 0.000216152 2.56227e-05)
(-0.000215868 0.000220536 3.82412e-05)
(-0.00410137 0.00303672 0.000665371)
(-0.00342345 0.00254015 0.000536844)
(-0.00304374 0.00226244 0.00041253)
(-0.00268345 0.00218582 0.000337218)
(-0.0022752 0.00222982 0.00029674)
(-0.00178924 0.00230024 0.000271989)
(-0.00129558 0.00237184 0.000261178)
(-0.000738396 0.00250869 0.000235434)
(-0.0003607 0.00254092 0.000231512)
(-0.00504268 0.00160839 0.000408811)
(-0.00421017 0.00172562 0.000390546)
(-0.00360046 0.00158997 0.000323768)
(-0.00312897 0.00149736 0.000270678)
(-0.00269262 0.00147503 0.000239859)
(-0.00225507 0.00150244 0.000223728)
(-0.00178362 0.00154443 0.000216519)
(-0.00132447 0.0015715 0.000209244)
(-0.000822531 0.00159735 0.000199418)
(-0.000277439 0.00150217 0.000172049)
(-0.00476612 0.000669996 0.000176888)
(-0.00415372 0.000776507 0.00017563)
(-0.00361213 0.000774493 0.000162429)
(-0.00312409 0.000767856 0.000151961)
(-0.0026578 0.000784619 0.000148127)
(-0.0021966 0.000820388 0.000148246)
(-0.00171332 0.000870348 0.000151882)
(-0.00123314 0.000914363 0.000155176)
(-0.000727726 0.000978465 0.000156954)
(-0.000229894 0.00097532 0.000152272)
(-0.00455734 0.000183463 -0.000103202)
(-0.0040355 0.00021682 -6.89161e-05)
(-0.00353297 0.000225289 -4.08707e-05)
(-0.00305825 0.000229603 -1.68279e-05)
(-0.00259522 0.000238334 6.21179e-06)
(-0.00213891 0.000250596 2.80001e-05)
(-0.00166335 0.000263545 5.07728e-05)
(-0.00119297 0.000269858 7.35371e-05)
(-0.000699704 0.000269467 9.85691e-05)
(-0.000218876 0.00024245 0.000126577)
(-0.00416065 0.00285171 0.0010385)
(-0.0034807 0.00247852 0.000833748)
(-0.00307471 0.00226149 0.000652875)
(-0.00269504 0.00220517 0.000542821)
(-0.00227445 0.00225193 0.000484464)
(-0.0017865 0.00231776 0.000449348)
(-0.00129045 0.00238633 0.00043242)
(-0.000738615 0.00250404 0.000393919)
(-0.000340002 0.00253864 0.00038851)
(-0.00503065 0.0015803 0.000608948)
(-0.00422498 0.00172589 0.000598324)
(-0.00361447 0.00162039 0.000508244)
(-0.00313344 0.00154097 0.000433115)
(-0.00268995 0.00152087 0.00038838)
(-0.0022465 0.00154576 0.000365439)
(-0.00177489 0.00158213 0.00035448)
(-0.00131285 0.00160403 0.000346189)
(-0.000814484 0.00161762 0.000330578)
(-0.000274401 0.00149666 0.000301272)
(-0.00476558 0.000775318 0.000276001)
(-0.00415444 0.000874875 0.000286321)
(-0.00360996 0.000866727 0.000271377)
(-0.00311844 0.000852379 0.000257572)
(-0.00265027 0.000859813 0.000252502)
(-0.00218771 0.000886261 0.000253747)
(-0.00170567 0.000924938 0.000259784)
(-0.00122662 0.000958191 0.00026619)
(-0.000722624 0.00100202 0.000269087)
(-0.000226698 0.000971215 0.000263933)
(-0.00454261 0.000276563 -6.93608e-05)
(-0.00401852 0.000299123 -1.89817e-05)
(-0.0035158 0.000297378 1.80999e-05)
(-0.00304135 0.000292673 4.87483e-05)
(-0.00257888 0.000293634 7.84242e-05)
(-0.00212304 0.00029905 0.000107058)
(-0.00164806 0.000305747 0.000137188)
(-0.00117828 0.000304863 0.000167392)
(-0.000684357 0.000293384 0.000198084)
(-0.000210288 0.000241054 0.000225894)
(-0.00422552 0.00256206 0.00126092)
(-0.00354879 0.00233386 0.00103356)
(-0.00311212 0.00219766 0.000836078)
(-0.00270876 0.00217517 0.000713059)
(-0.00227444 0.00223266 0.000648128)
(-0.00178288 0.00230038 0.000609222)
(-0.00128713 0.00236734 0.000589532)
(-0.000739272 0.00248156 0.000541912)
(-0.000328442 0.00250979 0.000535134)
(-0.00499245 0.0014647 0.000718777)
(-0.00422667 0.00164185 0.000730494)
(-0.00362299 0.00158502 0.000642769)
(-0.0031343 0.00153336 0.000563841)
(-0.00268372 0.00152545 0.000515554)
(-0.00223541 0.00155375 0.000491699)
(-0.00176395 0.00158897 0.000480676)
(-0.00130238 0.00160718 0.000473764)
(-0.000807616 0.00161328 0.000455388)
(-0.00027178 0.00147181 0.000429109)
(-0.00473054 0.000794514 0.000337937)
(-0.00413398 0.000897265 0.000369051)
(-0.00359403 0.000897137 0.000362601)
(-0.00310289 0.00088631 0.000352391)
(-0.00263472 0.000892755 0.000350146)
(-0.00217237 0.000915673 0.000354777)
(-0.00169248 0.000948161 0.000364231)
(-0.00121598 0.00097406 0.000373921)
(-0.000714251 0.00100475 0.000377936)
(-0.000222188 0.000955919 0.000373013)
(-0.00449861 0.000310008 -1.53743e-05)
(-0.00398241 0.000330399 5.08745e-05)
(-0.00348525 0.000326918 9.62338e-05)
(-0.00301439 0.000320117 0.000132055)
(-0.00255444 0.000318531 0.000166382)
(-0.00210038 0.000321152 0.000199789)
(-0.00162706 0.000324804 0.00023474)
(-0.00115903 0.000319725 0.00026888)
(-0.00066597 0.000301326 0.000301105)
(-0.000200605 0.000234283 0.000325291)
(-0.00428066 0.00224148 0.00135731)
(-0.0036184 0.00214959 0.00115403)
(-0.00315296 0.00209503 0.000970625)
(-0.00272507 0.00211189 0.000852679)
(-0.00227639 0.00218408 0.000791185)
(-0.00178038 0.00225701 0.000754572)
(-0.00128727 0.00232377 0.000735436)
(-0.000742739 0.00244452 0.000682971)
(-0.000326957 0.00246454 0.000677841)
(-0.0049367 0.00130947 0.000756783)
(-0.00421979 0.00151112 0.000802339)
(-0.00362942 0.00150686 0.000736052)
(-0.00313537 0.00148948 0.000667808)
(-0.00267782 0.0014996 0.000625065)
(-0.00222485 0.00153507 0.000605638)
(-0.00175328 0.00157208 0.000597969)
(-0.00129397 0.00158826 0.000594609)
(-0.000802595 0.00159136 0.000576205)
(-0.000270303 0.00143324 0.000555222)
(-0.0046778 0.000759876 0.000371623)
(-0.00410433 0.000869086 0.000429589)
(-0.00357392 0.000884591 0.000439274)
(-0.00308527 0.000884465 0.00043851)
(-0.00261759 0.000895671 0.000442677)
(-0.00215568 0.000919098 0.000452682)
(-0.00167784 0.000948979 0.00046654)
(-0.0012044 0.000970243 0.000479767)
(-0.000705395 0.000993385 0.000485045)
(-0.000217959 0.000932952 0.000479885)
(-0.0044437 0.00030717 4.74947e-05)
(-0.00394226 0.00033007 0.000131541)
(-0.00345384 0.000330073 0.000186647)
(-0.00298757 0.000325577 0.000227938)
(-0.00253013 0.000324801 0.000266164)
(-0.00207765 0.000327136 0.000302851)
(-0.00160586 0.00032973 0.000340534)
(-0.00113991 0.000322347 0.000376071)
(-0.000648697 0.000300143 0.000407095)
(-0.000192015 0.00022476 0.000424646)
(-0.00431483 0.00193042 0.00135265)
(-0.00367533 0.0019515 0.00120485)
(-0.00318833 0.00196917 0.00105758)
(-0.00273921 0.00202438 0.000959963)
(-0.00227766 0.00211191 0.00091101)
(-0.00177792 0.00219139 0.000882622)
(-0.00128982 0.00225913 0.000867412)
(-0.000748963 0.00239312 0.000814686)
(-0.000333994 0.00240576 0.00080957)
(-0.00486422 0.00114096 0.00073764)
(-0.00420099 0.00135929 0.000821782)
(-0.00362896 0.00140299 0.000789847)
(-0.00313327 0.00142016 0.000743768)
(-0.00267033 0.0014504 0.000714834)
(-0.00221364 0.00149485 0.000704972)
(-0.00174224 0.00153545 0.000704211)
(-0.00128651 0.00155104 0.00070648)
(-0.000798397 0.00155506 0.000691296)
(-0.000269234 0.00138351 0.000676428)
(-0.00461053 0.000693245 0.00037766)
(-0.00406576 0.000809344 0.000465328)
(-0.003549 0.00084303 0.000497245)
(-0.00306516 0.000857078 0.000511358)
(-0.00259888 0.000876353 0.000525766)
(-0.00213785 0.000902874 0.000543429)
(-0.00166224 0.000932616 0.000563012)
(-0.00119242 0.000951337 0.000580184)
(-0.000696605 0.000971081 0.00058721)
(-0.000214029 0.000903111 0.000580884)
(-0.00437884 0.000283174 9.64935e-05)
(-0.00389704 0.000310629 0.000200415)
(-0.00342027 0.000316699 0.000268696)
(-0.00296 0.000316874 0.000318352)
(-0.00250551 0.000318866 0.000362297)
(-0.00205472 0.00032248 0.000403095)
(-0.00158466 0.000325398 0.000443691)
(-0.00112136 0.000317145 0.00048011)
(-0.000632924 0.000293437 0.000509644)
(-0.000184605 0.000213664 0.000520233)
(-0.00432229 0.00164712 0.00128224)
(-0.00371114 0.0017538 0.00120339)
(-0.00321192 0.00183054 0.00110447)
(-0.00274696 0.0019193 0.00103757)
(-0.00227556 0.00202064 0.00100803)
(-0.00177385 0.0021066 0.000992827)
(-0.00129286 0.00217579 0.000984774)
(-0.000756648 0.00232725 0.000936739)
(-0.000348251 0.00233359 0.000927383)
(-0.00477575 0.000975394 0.000679035)
(-0.00416731 0.00120248 0.000802237)
(-0.00361763 0.00128559 0.000811099)
(-0.00312469 0.00133403 0.000794468)
(-0.00265897 0.00138375 0.000785403)
(-0.00220016 0.00143744 0.00078919)
(-0.00172972 0.00148239 0.000798446)
(-0.00127855 0.00149844 0.000808272)
(-0.000793689 0.0015063 0.000799818)
(-0.000268006 0.00132448 0.000791392)
(-0.00453038 0.000611972 0.000361053)
(-0.0040174 0.000733143 0.000478764)
(-0.00351759 0.000783997 0.000536442)
(-0.00304103 0.000812759 0.000569393)
(-0.00257752 0.000841291 0.000597233)
(-0.00211825 0.000872141 0.000624616)
(-0.00164539 0.000903166 0.000651286)
(-0.00117983 0.000920672 0.000672915)
(-0.000687852 0.000939695 0.000682553)
(-0.000210444 0.000866669 0.000673793)
(-0.00430514 0.000249848 0.000129476)
(-0.00384621 0.00028157 0.00025408)
(-0.00338335 0.000294012 0.000337878)
(-0.00293052 0.000299622 0.00039845)
(-0.00247977 0.000305241 0.000450062)
(-0.00203116 0.000310927 0.000496086)
(-0.00156337 0.000314965 0.00054015)
(-0.00110338 0.000306808 0.000577421)
(-0.000618628 0.000283169 0.000605911)
(-0.000178363 0.00020171 0.000609706)
(-0.00430094 0.00139885 0.00117184)
(-0.00372187 0.0015649 0.00116384)
(-0.00321971 0.00168648 0.00111864)
(-0.00274521 0.001802 0.0010885)
(-0.0022678 0.00191424 0.00108292)
(-0.00176644 0.00200558 0.00108472)
(-0.00129399 0.00207567 0.00108667)
(-0.000763887 0.00224592 0.0010491)
(-0.000368747 0.00224586 0.00102814)
(-0.00467276 0.000822507 0.000595082)
(-0.00411746 0.00105102 0.000754864)
(-0.00359299 0.00116359 0.000806176)
(-0.00310717 0.00123798 0.00082277)
(-0.00264183 0.00130469 0.000837436)
(-0.00218293 0.00136673 0.000857762)
(-0.00171452 0.00141589 0.000879473)
(-0.00126848 0.00143297 0.000898502)
(-0.000786988 0.00144632 0.000900549)
(-0.000266097 0.00125844 0.000898803)
(-0.00443862 0.000527127 0.00032636)
(-0.00395871 0.000650741 0.000472853)
(-0.00347831 0.000715802 0.000557637)
(-0.00301142 0.000757923 0.000611864)
(-0.00255241 0.000795418 0.000655446)
(-0.00209609 0.000830849 0.000694182)
(-0.00162682 0.000863702 0.000729136)
(-0.00116617 0.000880684 0.000755743)
(-0.000678941 0.000900215 0.000769057)
(-0.000207308 0.0008236 0.000756418)
(-0.00422242 0.000213457 0.000142339)
(-0.00378838 0.000248496 0.000288256)
(-0.00334147 0.000266646 0.000389672)
(-0.0028977 0.000277547 0.000463616)
(-0.00245187 0.000286934 0.000524948)
(-0.00200628 0.000294968 0.000577586)
(-0.00154158 0.000300479 0.000626069)
(-0.00108562 0.000293028 0.000664649)
(-0.000605457 0.000270482 0.000693161)
(-0.000173142 0.00018954 0.000690702)
(-0.00425177 0.00118638 0.00104049)
(-0.00370693 0.0013892 0.00109831)
(-0.00320987 0.00154207 0.00110702)
(-0.00273209 0.00167685 0.00111588)
(-0.00225275 0.00179644 0.00113655)
(-0.00175414 0.0018911 0.00115788)
(-0.00129043 0.00196043 0.00117222)
(-0.000767749 0.00214606 0.0011527)
(-0.00039298 0.00213615 0.001108)
(-0.00455713 0.000687015 0.000496714)
(-0.00405163 0.00091079 0.000688991)
(-0.0035542 0.00104315 0.000781041)
(-0.00307935 0.00113726 0.000831724)
(-0.00261759 0.00121746 0.000871893)
(-0.00216078 0.00128621 0.000910371)
(-0.00169559 0.00133874 0.000946124)
(-0.00125467 0.00135688 0.000975496)
(-0.000776584 0.00137561 0.000992003)
(-0.000262761 0.00118773 0.000996691)
(-0.00433682 0.000445884 0.000277994)
(-0.00388975 0.000568962 0.000450819)
(-0.00343039 0.000644415 0.000562298)
(-0.00297531 0.000697453 0.00063878)
(-0.00252264 0.000742646 0.000699421)
(-0.00207063 0.000782207 0.000750582)
(-0.00160602 0.000816736 0.000794705)
(-0.00115088 0.000833325 0.000826736)
(-0.000669562 0.000853085 0.00084488)
(-0.000204717 0.00077357 0.000827022)
(-0.00413175 0.000178136 0.000136579)
(-0.00372309 0.000215073 0.000302935)
(-0.00329357 0.000237752 0.000422844)
(-0.0028604 0.000253221 0.000511788)
(-0.00242086 0.000266032 0.000584451)
(-0.00197937 0.000276327 0.00064495)
(-0.00151879 0.000283343 0.000698847)
(-0.00106751 0.000276984 0.00073942)
(-0.000592906 0.000256076 0.000769247)
(-0.000168759 0.000177655 0.000761164)
(-0.0041777 0.00100692 0.000901032)
(-0.00366785 0.00122857 0.00101632)
(-0.00318225 0.00140073 0.00107557)
(-0.00270687 0.00154748 0.00112265)
(-0.00222942 0.00167069 0.00116982)
(-0.00173567 0.00176588 0.00121172)
(-0.00127895 0.00183147 0.00124004)
(-0.000764259 0.00201982 0.001248)
(-0.000413603 0.00198013 0.00116788)
(-0.00443102 0.000570334 0.000391815)
(-0.00397111 0.000784565 0.000611715)
(-0.00350156 0.000928199 0.000740714)
(-0.00304074 0.00103581 0.000824183)
(-0.00258556 0.00112558 0.000889849)
(-0.00213294 0.00119902 0.000946868)
(-0.00167216 0.00125357 0.000997232)
(-0.00123561 0.00127226 0.00103727)
(-0.000760913 0.00129358 0.00107163)
(-0.000256955 0.00111462 0.00108331)
(-0.00422659 0.000372207 0.000219749)
(-0.0038111 0.000491965 0.000415703)
(-0.00337366 0.000573909 0.000552198)
(-0.00293213 0.000634966 0.000650684)
(-0.00248759 0.000686075 0.000728752)
(-0.00204137 0.000728878 0.000792803)
(-0.00158257 0.00076444 0.000846533)
(-0.00113341 0.000780332 0.000884252)
(-0.000659421 0.00079846 0.00090818)
(-0.000202745 0.000716384 0.000884687)
(-0.00403385 0.000146087 0.000114126)
(-0.00365025 0.000183582 0.000299392)
(-0.00323904 0.000209386 0.000437694)
(-0.00281781 0.000228412 0.000542423)
(-0.00238599 0.000244019 0.000627434)
(-0.0019498 0.000256259 0.000696724)
(-0.00149449 0.000264596 0.000756822)
(-0.00104852 0.00025954 0.000800032)
(-0.000580511 0.000240352 0.000832252)
(-0.000165061 0.000166418 0.000819312)
(0.00454412 -0.00547614 0.000701613)
(0.0113191 -0.00528474 0.00614178)
(0.0177683 -0.00574824 0.00941723)
(0.0203403 -0.0032816 0.0115288)
(0.014248 0.00289195 0.0147628)
(0.0060226 0.00585713 0.0157882)
(0.00365778 0.00413706 0.0125614)
(0.00238212 0.00236533 0.00891977)
(0.000756278 0.00156921 0.00728829)
(-0.00145164 -0.00529806 0.00258616)
(0.000845167 -0.00166856 0.0057001)
(0.000927195 0.00236091 0.00717158)
(-0.000603264 0.00499162 0.00717536)
(-0.00167355 0.00681959 0.00768375)
(-0.00104554 0.0071227 0.00849726)
(0.000473717 0.0056352 0.00786445)
(0.000783285 0.00402811 0.00662081)
(0.000311808 0.0030957 0.00599895)
(-0.00620908 -0.00180421 0.00252433)
(-0.00551913 0.00070216 0.00310079)
(-0.00525333 0.00278356 0.00377603)
(-0.00466635 0.00410644 0.00488897)
(-0.00341634 0.00517212 0.00581681)
(-0.00170847 0.00562878 0.0062168)
(-0.000277457 0.00499621 0.00595899)
(0.000261903 0.00409671 0.00539596)
(0.000167791 0.00351936 0.005076)
(-0.00642667 -0.000253772 0.00190135)
(-0.00574477 0.00112552 0.00243717)
(-0.00509244 0.00248623 0.00300377)
(-0.00430392 0.00372695 0.00352464)
(-0.0032868 0.00461813 0.00400251)
(-0.0020349 0.00491189 0.00432081)
(-0.000912246 0.00459459 0.00434211)
(-0.000279287 0.00413903 0.00413863)
(-3.94446e-05 0.0038027 0.00400825)
(-0.00569763 0.000332869 0.00200844)
(-0.00503285 0.00131525 0.00224345)
(-0.00449991 0.00225098 0.0024805)
(-0.00383409 0.00303205 0.00279656)
(-0.00296209 0.0036068 0.0031049)
(-0.00197646 0.00387142 0.00328745)
(-0.00105865 0.00379492 0.00332214)
(-0.000474176 0.00354345 0.00308893)
(-0.00516026 0.000820805 0.00170773)
(-0.00454405 0.00144981 0.00191999)
(-0.00399116 0.00206017 0.00207038)
(-0.00339059 0.00260605 0.00222746)
(-0.0026967 0.00301525 0.00239562)
(-0.00194443 0.0032009 0.00251203)
(-0.00125887 0.00319348 0.00256582)
(-0.000728555 0.00294447 0.00249714)
(-0.00469263 0.00094668 0.00140352)
(-0.00413191 0.00141179 0.00158103)
(-0.00360976 0.0018229 0.00168543)
(-0.00306784 0.00217343 0.00178367)
(-0.0024838 0.00244355 0.00188726)
(-0.00187272 0.00258278 0.00196796)
(-0.00135171 0.00260923 0.00202295)
(-0.000879462 0.0024205 0.00206809)
(-0.00435722 0.000978321 0.00105311)
(-0.00383922 0.00130032 0.00122451)
(-0.00334125 0.00157196 0.00132347)
(-0.00284404 0.00180258 0.00140577)
(-0.00233837 0.00198477 0.00148753)
(-0.00182238 0.00209934 0.00156394)
(-0.00143247 0.00215944 0.00163602)
(-0.000997187 0.00221682 0.00182121)
(-0.00408254 0.000856374 0.000761619)
(-0.00360742 0.00108333 0.000924832)
(-0.00313793 0.00126474 0.00102903)
(-0.00266977 0.00141701 0.00111138)
(-0.00219753 0.00154039 0.00118365)
(-0.00171039 0.00163296 0.00124541)
(-0.00125678 0.00169102 0.00128771)
(-0.000747828 0.00185681 0.00133235)
(-0.000378881 0.00172467 0.00120804)
(-0.00429669 0.000471994 0.000285736)
(-0.00387787 0.000673205 0.000528148)
(-0.00343618 0.000821045 0.00068917)
(-0.00299163 0.000936475 0.000802635)
(-0.00254561 0.00103201 0.000892422)
(-0.00209914 0.00110804 0.000967307)
(-0.00164395 0.00116303 0.00103171)
(-0.00121045 0.0011814 0.00108154)
(-0.000738802 0.00119934 0.00113476)
(-0.000244654 0.0010379 0.00114189)
(-0.00410967 0.000307938 0.000154703)
(-0.00372377 0.00042208 0.000370209)
(-0.00330845 0.000506934 0.000529203)
(-0.00288177 0.000573079 0.000648478)
(-0.00244701 0.000628159 0.000743518)
(-0.00200798 0.000673098 0.00082034)
(-0.00155621 0.000708812 0.000883603)
(-0.00111341 0.000723525 0.00092699)
(-0.000648212 0.000736847 0.000957013)
(-0.000201116 0.000651568 0.000928124)
(-0.00392982 0.000118399 7.78312e-05)
(-0.0035702 0.000155241 0.000279821)
(-0.00317768 0.000182823 0.000435575)
(-0.0027695 0.000204293 0.000556054)
(-0.00234678 0.000221954 0.000653785)
(-0.00191713 0.000235702 0.000732376)
(-0.00146832 0.000245044 0.000799093)
(-0.00102823 0.000241364 0.000845394)
(-0.000567877 0.000223558 0.000880577)
(-0.000161861 0.000155757 0.000863184)
(-0.00138251 -0.00350929 0.000507886)
(0.00326996 -0.00344589 0.00525084)
(0.00672209 -0.00198493 0.00897616)
(0.00623129 0.00150208 0.0120269)
(0.00264114 0.00460209 0.0142726)
(0.00125316 0.00448917 0.0136523)
(0.00185209 0.00288089 0.0106224)
(0.00138742 0.00176743 0.00795597)
(0.000449393 0.00123676 0.00677275)
(-0.00622847 -0.00254078 0.00072543)
(-0.00490669 -1.42479e-06 0.00359652)
(-0.00417841 0.00243783 0.00533044)
(-0.0038242 0.00430229 0.00622086)
(-0.00313881 0.00553697 0.00728738)
(-0.00147436 0.00549288 0.00788715)
(1.57432e-05 0.00433905 0.0072028)
(0.000382906 0.00321644 0.00622987)
(0.000169265 0.00254672 0.00574234)
(-0.00682832 -0.000825536 0.00131083)
(-0.00627902 0.00094633 0.00243172)
(-0.00569887 0.00249583 0.00352017)
(-0.00478182 0.00362434 0.00465261)
(-0.00341178 0.00446899 0.00553853)
(-0.00178214 0.00467584 0.00589687)
(-0.000510358 0.00413131 0.00565867)
(3.01608e-05 0.00346261 0.00518887)
(7.46485e-05 0.00302589 0.00492109)
(-0.00624241 -4.65232e-05 0.00125606)
(-0.00568483 0.00111702 0.0020666)
(-0.00502037 0.00228031 0.00277528)
(-0.00420326 0.00329458 0.00337503)
(-0.00318088 0.00399431 0.00388625)
(-0.00200262 0.00419328 0.00420502)
(-0.000985589 0.00393808 0.00422137)
(-0.000376795 0.00357491 0.00405725)
(-8.02622e-05 0.00333144 0.00394602)
(-0.00553332 0.000332887 0.00147704)
(-0.00497198 0.00121157 0.00192277)
(-0.00441325 0.00203262 0.00231208)
(-0.00372502 0.00271007 0.00269705)
(-0.00287402 0.00319657 0.00303474)
(-0.00194631 0.00340977 0.0032327)
(-0.00110873 0.00335232 0.00327851)
(-0.000529968 0.003158 0.00312643)
(-0.00018025 0.00306181 0.00306871)
(-0.00501237 0.000687871 0.00131121)
(-0.00446843 0.00128742 0.00165866)
(-0.00391832 0.00185453 0.00191494)
(-0.00331414 0.00234363 0.00214251)
(-0.00263268 0.00270338 0.00234952)
(-0.0019088 0.00286902 0.00249204)
(-0.00125057 0.00287495 0.00256304)
(-0.00070043 0.00271379 0.00257504)
(-0.000370128 0.00270105 0.00255304)
(-0.00456452 0.000795956 0.00111352)
(-0.00405738 0.00124257 0.00137901)
(-0.00354714 0.00163518 0.00156173)
(-0.00300942 0.0019647 0.00171713)
(-0.00243439 0.00221409 0.00185696)
(-0.00183617 0.00234607 0.00196482)
(-0.00130306 0.00237985 0.00203846)
(-0.000783271 0.00226569 0.00216036)
(-0.000512471 0.00225421 0.00209087)
(-0.00423619 0.0008272 0.000852958)
(-0.00376061 0.00114156 0.00108101)
(-0.00328093 0.00140928 0.00123523)
(-0.00279213 0.00163389 0.00136083)
(-0.00229207 0.00180786 0.00147217)
(-0.00177959 0.00191715 0.00157184)
(-0.00134636 0.0019711 0.00165837)
(-0.000848717 0.0020058 0.00191158)
(-0.000626433 0.00192733 0.00184389)
(-0.00397059 0.000730341 0.000627086)
(-0.00352907 0.000952997 0.000828647)
(-0.0030788 0.00113569 0.000971005)
(-0.00262169 0.00128811 0.00108433)
(-0.00215754 0.00140879 0.00117901)
(-0.0016787 0.00149603 0.0012579)
(-0.00122342 0.00154381 0.00131106)
(-0.000721732 0.00163742 0.00137488)
(-0.000255882 0.00147909 0.00123654)
(-0.00415652 0.000390486 0.000181816)
(-0.00377421 0.0005764 0.000441749)
(-0.00335964 0.00072293 0.000629436)
(-0.0029328 0.000841296 0.000769189)
(-0.00249809 0.000939208 0.000880769)
(-0.00205958 0.00101587 0.000972015)
(-0.00161134 0.00106986 0.00104879)
(-0.00117971 0.00108729 0.00110606)
(-0.000714607 0.00109413 0.00116878)
(-0.000230665 0.000964742 0.00115834)
(-0.00398767 0.000253517 8.52092e-05)
(-0.00362896 0.000360347 0.000316631)
(-0.00323545 0.000445093 0.000495127)
(-0.00282447 0.00051363 0.000633292)
(-0.0024009 0.000570801 0.000744205)
(-0.00197041 0.000616748 0.000833174)
(-0.0015269 0.000651785 0.000905389)
(-0.0010909 0.000665043 0.000954092)
(-0.000636216 0.000670042 0.000988574)
(-0.000199971 0.000587119 0.000956612)
(-0.00382075 9.5346e-05 3.05413e-05)
(-0.00348357 0.000130609 0.000246791)
(-0.00310969 0.000158759 0.00041841)
(-0.00271536 0.000181608 0.000553903)
(-0.002303 0.000200559 0.000664122)
(-0.00188113 0.000215346 0.000752084)
(-0.00144007 0.000225343 0.000825412)
(-0.00100649 0.000223016 0.000875009)
(-0.000555176 0.00020599 0.000912569)
(-0.000159262 0.000145551 0.000891595)
(-0.00604207 -0.000912736 0.000212951)
(-0.00388962 -0.000310616 0.00439634)
(-0.00230621 0.00124077 0.00795455)
(-0.00212758 0.00307169 0.0105813)
(-0.00189949 0.00375671 0.0118368)
(-0.000384509 0.00301534 0.0110295)
(0.000755861 0.0020083 0.00886391)
(0.000690896 0.00132641 0.00705213)
(0.000229043 0.000970758 0.00621263)
(-0.00739272 -0.000996617 9.45963e-05)
(-0.00665952 0.000636247 0.00254716)
(-0.00570715 0.0022882 0.00437266)
(-0.00470971 0.00359056 0.00563439)
(-0.00336022 0.00430653 0.00669295)
(-0.00162571 0.00413843 0.00706894)
(-0.000351584 0.00332339 0.0064998)
(7.08259e-05 0.00256128 0.00578307)
(5.7078e-05 0.00208635 0.0054118)
(-0.00661572 -0.000260217 0.000757212)
(-0.00620824 0.00104834 0.00202852)
(-0.00556618 0.00223993 0.00323053)
(-0.00459129 0.00314226 0.00432507)
(-0.0032693 0.00373851 0.00514249)
(-0.00181636 0.00380463 0.00546027)
(-0.000704458 0.00339065 0.00527381)
(-0.000161752 0.00290926 0.00491086)
(-3.15126e-06 0.00258518 0.00469289)
(-0.0059501 9.97888e-05 0.000870609)
(-0.00547701 0.00107679 0.00177962)
(-0.00483214 0.00204455 0.0025479)
(-0.00402514 0.00285715 0.00318716)
(-0.00304155 0.00339514 0.0037049)
(-0.00196359 0.00353529 0.00400812)
(-0.00104811 0.00334697 0.00403302)
(-0.000459425 0.00307141 0.00391442)
(-0.000120044 0.00288686 0.00382043)
(-0.00530563 0.000348186 0.00108874)
(-0.00481917 0.00110962 0.00165113)
(-0.00426261 0.00181487 0.00213059)
(-0.00358196 0.00239173 0.00255953)
(-0.00277121 0.00279808 0.00291316)
(-0.00191012 0.00297223 0.00312086)
(-0.00114118 0.00293634 0.00318013)
(-0.000573426 0.00279327 0.0030986)
(-0.000179907 0.00271126 0.00301724)
(-0.00481979 0.000598665 0.000997523)
(-0.00433553 0.0011454 0.00142577)
(-0.00380422 0.00165551 0.00175477)
(-0.00321339 0.00208678 0.00203328)
(-0.00255613 0.00240008 0.00226851)
(-0.00186729 0.00254839 0.00242965)
(-0.00123658 0.00256511 0.00251237)
(-0.000691393 0.00246153 0.00254757)
(-0.000243836 0.0024367 0.00245747)
(-0.00440508 0.000682903 0.000867227)
(-0.00394569 0.00109522 0.00119162)
(-0.00345653 0.00145902 0.0014325)
(-0.00293293 0.00176228 0.00163215)
(-0.00237412 0.00198949 0.00180038)
(-0.00179469 0.00211336 0.00192789)
(-0.00126189 0.00215164 0.00200965)
(-0.000738375 0.00208167 0.00210824)
(-0.00026955 0.0020609 0.00195775)
(-0.00409518 0.000705819 0.000673492)
(-0.00365905 0.00100193 0.000942439)
(-0.00320191 0.0012574 0.00113979)
(-0.00272702 0.00147082 0.00130025)
(-0.00223741 0.00163429 0.00143544)
(-0.00173404 0.00173713 0.00155052)
(-0.0012807 0.0017864 0.00163915)
(-0.000776935 0.00180838 0.00181984)
(-0.00028942 0.00176329 0.00166584)
(-0.00384609 0.000624781 0.00049986)
(-0.00343638 0.000836656 0.00073082)
(-0.00300714 0.00101471 0.000904245)
(-0.00256403 0.00116316 0.00104356)
(-0.0021107 0.00127909 0.00115734)
(-0.00164258 0.00136035 0.00124992)
(-0.00118992 0.00140124 0.00131078)
(-0.000700989 0.00145597 0.00137132)
(-0.0002166 0.00135902 0.00126083)
(-0.00401269 0.000323833 8.18639e-05)
(-0.00366248 0.000493203 0.0003547)
(-0.00327375 0.000634344 0.00056373)
(-0.00286537 0.000751716 0.000725643)
(-0.00244368 0.000849151 0.000856129)
(-0.00201489 0.000924825 0.000961767)
(-0.00157536 0.000977022 0.00104882)
(-0.00114775 0.000994066 0.00111151)
(-0.000693397 0.000994073 0.0011736)
(-0.000224947 0.000895443 0.00115495)
(-0.00386209 0.000208517 1.29757e-05)
(-0.00352801 0.00030693 0.000256851)
(-0.00315553 0.000389205 0.000451678)
(-0.00276075 0.000457857 0.00060641)
(-0.00234955 0.000515435 0.000731639)
(-0.00192887 0.000561378 0.000831773)
(-0.00149487 0.000595231 0.000912073)
(-0.00106674 0.000607412 0.000965735)
(-0.000623656 0.000605633 0.00100279)
(-0.000198931 0.000529719 0.000972122)
(-0.00370771 7.66845e-05 -2.49787e-05)
(-0.00339119 0.000109709 0.000202895)
(-0.00303556 0.000137471 0.00038838)
(-0.0026556 0.000160787 0.000537605)
(-0.00225469 0.000180331 0.000659579)
(-0.0018418 0.0001957 0.000756611)
(-0.00140975 0.000206068 0.000836237)
(-0.000983693 0.000205065 0.000889293)
(-0.000542571 0.000188923 0.000928304)
(-0.000157053 0.000135445 0.000905826)
(-0.00750437 0.000181079 0.000105739)
(-0.00678493 0.00086856 0.00343006)
(-0.00568347 0.00180568 0.00637498)
(-0.00450503 0.00249602 0.00842873)
(-0.00285773 0.0025098 0.00933101)
(-0.00103157 0.00200238 0.00883079)
(4.1812e-05 0.00142542 0.00743092)
(0.000215207 0.00100122 0.00623191)
(7.45696e-05 0.000761769 0.00564532)
(-0.00703469 -0.00026494 7.40047e-05)
(-0.00659649 0.000860408 0.00212929)
(-0.00571944 0.00198945 0.00381147)
(-0.00460926 0.0028476 0.00505311)
(-0.0032172 0.00325778 0.00595722)
(-0.00171165 0.00309204 0.00621919)
(-0.000628665 0.00255091 0.00581654)
(-0.00016299 0.00204058 0.00531185)
(-2.81923e-05 0.00170705 0.00503681)
(-0.00620967 3.30494e-05 0.000491435)
(-0.00586672 0.00103284 0.00175606)
(-0.00522843 0.00194565 0.00293579)
(-0.00428927 0.0026324 0.00394892)
(-0.00308811 0.00304301 0.00468068)
(-0.00182844 0.00306249 0.00496927)
(-0.000855353 0.00277251 0.00484839)
(-0.000312536 0.00243514 0.00458709)
(-6.54752e-05 0.00219889 0.0044165)
(-0.00560129 0.000198855 0.000622356)
(-0.00518595 0.0010043 0.00154245)
(-0.00457622 0.00179014 0.00232248)
(-0.00380698 0.00243212 0.00296674)
(-0.00289116 0.00284689 0.00346969)
(-0.00192066 0.00295584 0.00375493)
(-0.00109536 0.00282772 0.00379842)
(-0.000524417 0.00262744 0.00372427)
(-0.000150558 0.00248761 0.00364855)
(-0.00503589 0.000360516 0.000798307)
(-0.00460669 0.00100486 0.0014155)
(-0.00407129 0.00160025 0.0019414)
(-0.00341893 0.00208521 0.00239277)
(-0.00266054 0.00242322 0.0027512)
(-0.00186828 0.00256963 0.00296485)
(-0.00115942 0.0025543 0.00303926)
(-0.000604825 0.00245455 0.00300558)
(-0.000181607 0.00238922 0.00293527)
(-0.00459827 0.000533337 0.000746433)
(-0.00416489 0.00101671 0.00121781)
(-0.00366209 0.0014653 0.00159279)
(-0.00309601 0.0018409 0.00190501)
(-0.00247088 0.00211227 0.00215887)
(-0.00182087 0.0022459 0.00233291)
(-0.00121911 0.00227155 0.00242578)
(-0.000682696 0.00220861 0.00247146)
(-0.000209993 0.00218652 0.00241379)
(-0.00422504 0.000594283 0.000658092)
(-0.0038084 0.000964837 0.00101915)
(-0.00334569 0.00129457 0.00130068)
(-0.00284288 0.00156918 0.00153263)
(-0.00230559 0.00177413 0.00172194)
(-0.00174914 0.00188948 0.00186359)
(-0.00122511 0.00193099 0.00195224)
(-0.000706299 0.0018925 0.00203577)
(-0.000210591 0.00187475 0.00194746)
(-0.00394087 0.000606795 0.000513604)
(-0.00354097 0.000878644 0.000810309)
(-0.00310855 0.00111665 0.00103969)
(-0.00265143 0.00131557 0.0012269)
(-0.00217629 0.00146726 0.00138067)
(-0.00168628 0.00156321 0.00150654)
(-0.00122616 0.00160915 0.00159725)
(-0.00072709 0.00162438 0.00173473)