/*--------------------------------*- C++ -*----------------------------------*\
| =========                 |                                                 |
| \\      /  F ield         | OpenFOAM: The Open Source CFD Toolbox           |
|  \\    /   O peration     | Version:  2.3.1                                 |
|   \\  /    A nd           | Web:      www.OpenFOAM.org                      |
|    \\/     M anipulation  |                                                 |
\*---------------------------------------------------------------------------*/
FoamFile
{
    version     2.0;
    format      ascii;
    class       volScalarField;
    location    "10";
    object      Sed;
}
// * * * * * * * * * * * * * * * * * * * * * * * * * * * * * * * * * * * * * //

dimensions      [0 0 0 0 0 0 0];

internalField   nonuniform List<scalar> 
303072
(
0.023314
0.0244698
0.0250572
0.0256922
0.0266188
0.0270137
0.027712
0.0282469
0.0286886
0.0294675
0.0300896
0.0313666
0.0233438
0.024327
0.0249908
0.0255563
0.0262962
0.0269359
0.0276013
0.0279387
0.0282134
0.0288334
0.0295022
0.0307743
0.0233501
0.0243196
0.0249619
0.0255745
0.0262872
0.0270113
0.0276818
0.0279166
0.0281724
0.0287956
0.0295231
0.0307664
0.023348
0.0243388
0.0249372
0.0255809
0.0263
0.0270311
0.0277216
0.0279628
0.0282396
0.0289109
0.0296154
0.0308482
0.0233452
0.0243494
0.0249231
0.0255854
0.0263189
0.0270323
0.0277212
0.0279701
0.0282605
0.0289544
0.0296379
0.0308642
0.0233445
0.0243514
0.0249215
0.025588
0.0263252
0.0270278
0.0277154
0.0279678
0.028267
0.0289709
0.0296419
0.0308702
0.0233445
0.0243514
0.0249215
0.025588
0.0263252
0.0270278
0.0277154
0.0279677
0.0282669
0.0289707
0.0296418
0.03087
0.0233452
0.0243494
0.0249232
0.0255854
0.0263188
0.0270322
0.0277211
0.02797
0.0282603
0.0289541
0.0296375
0.0308636
0.0233479
0.0243388
0.0249373
0.0255809
0.0263
0.027031
0.0277215
0.0279626
0.0282393
0.0289104
0.0296149
0.0308473
0.02335
0.0243196
0.024962
0.0255745
0.0262872
0.0270113
0.0276817
0.0279164
0.028172
0.028795
0.0295225
0.0307653
0.0233437
0.024327
0.0249909
0.0255562
0.0262961
0.0269359
0.0276012
0.0279386
0.028213
0.0288329
0.0295017
0.0307733
0.023314
0.0244697
0.0250575
0.0256921
0.0266187
0.0270138
0.0277118
0.0282472
0.0286884
0.0294674
0.0300894
0.0313658
0.0230033
0.0230434
0.0230569
0.0230987
0.0231496
0.0230472
0.0226455
0.0216906
0.0214898
0.0218007
0.0227553
0.0250308
0.0230048
0.0230552
0.0230186
0.0229012
0.022823
0.0226305
0.0221738
0.0212002
0.0209984
0.0212561
0.0221665
0.0244233
0.0230067
0.0230688
0.0230564
0.0230009
0.0229397
0.0227717
0.0223277
0.0212611
0.0210182
0.0212512
0.0221385
0.0243988
0.0230096
0.0230787
0.0230694
0.0230239
0.0229725
0.0228274
0.0224182
0.0213771
0.0211359
0.0213491
0.022209
0.0244786
0.0230102
0.0230814
0.0230713
0.0230236
0.0229721
0.022827
0.0224228
0.0214001
0.0211656
0.021372
0.0222272
0.0245039
0.0230104
0.0230824
0.0230716
0.023022
0.0229688
0.0228205
0.0224137
0.021397
0.0211671
0.021371
0.0222281
0.0245193
0.0230104
0.0230824
0.0230716
0.023022
0.0229688
0.0228205
0.0224137
0.0213969
0.0211669
0.0213707
0.0222278
0.0245189
0.0230102
0.0230814
0.0230713
0.0230236
0.022972
0.0228269
0.0224226
0.0213998
0.021165
0.0213714
0.0222264
0.0245027
0.0230096
0.0230787
0.0230694
0.0230239
0.0229724
0.0228272
0.022418
0.0213766
0.0211351
0.0213481
0.0222078
0.0244768
0.0230067
0.0230688
0.0230564
0.0230008
0.0229396
0.0227716
0.0223274
0.0212606
0.0210173
0.0212502
0.022137
0.0243967
0.0230048
0.0230553
0.0230186
0.0229011
0.022823
0.0226304
0.0221736
0.0211999
0.0209977
0.0212552
0.0221652
0.0244211
0.0230033
0.0230434
0.0230569
0.0230987
0.0231496
0.0230472
0.0226456
0.0216909
0.0214898
0.0218005
0.0227547
0.0250289
0.0229806
0.022906
0.0226977
0.0225485
0.0223584
0.0216926
0.0196297
0.0173836
0.0169493
0.0173046
0.0184096
0.0208675
0.0228965
0.0226695
0.0220862
0.0213584
0.02086
0.0199263
0.018103
0.0167225
0.0165322
0.0168124
0.0176969
0.0197977
0.0229116
0.0227218
0.0222601
0.021689
0.0211727
0.0201675
0.0182704
0.0167939
0.0165692
0.0168168
0.0176335
0.019646
0.0229511
0.022767
0.0223285
0.0217767
0.0212704
0.0203052
0.0184337
0.0169046
0.0166538
0.0168757
0.0176522
0.0196496
0.0229611
0.0227815
0.0223385
0.0217643
0.0212523
0.0202763
0.0184444
0.016922
0.016664
0.016877
0.0176451
0.019645
0.0229636
0.022787
0.0223399
0.0217525
0.0212334
0.0202383
0.0184227
0.0169107
0.016654
0.0168645
0.0176339
0.0196472
0.0229636
0.022787
0.0223399
0.0217525
0.0212334
0.0202382
0.0184226
0.0169105
0.0166537
0.0168642
0.0176336
0.0196468
0.0229611
0.0227815
0.0223385
0.0217642
0.0212521
0.020276
0.0184439
0.0169215
0.0166633
0.0168763
0.0176442
0.0196438
0.0229511
0.022767
0.0223285
0.0217766
0.0212702
0.0203048
0.0184331
0.0169037
0.0166528
0.0168747
0.017651
0.0196478
0.0229117
0.0227219
0.0222601
0.0216888
0.0211724
0.020167
0.0182698
0.016793
0.0165681
0.0168157
0.0176321
0.0196439
0.0228966
0.0226696
0.0220863
0.0213583
0.0208597
0.019926
0.0181026
0.016722
0.0165314
0.0168115
0.0176957
0.0197957
0.0229806
0.0229061
0.0226978
0.0225485
0.0223583
0.0216927
0.0196303
0.0173841
0.0169495
0.0173046
0.0184091
0.0208657
0.0221216
0.0211708
0.0200667
0.0195512
0.0187766
0.0160399
0.0122718
0.01162
0.011779
0.0125601
0.0142539
0.0176693
0.0217976
0.0204002
0.0185593
0.0172514
0.0162671
0.0143935
0.0126894
0.0124039
0.0126543
0.0133949
0.0145788
0.0167826
0.021936
0.0204915
0.0188164
0.0175518
0.0163079
0.0145178
0.0129533
0.0125641
0.012795
0.0134647
0.0145544
0.0166157
0.0221866
0.0206191
0.0189241
0.0176488
0.0163518
0.0146099
0.0130612
0.0126076
0.0128296
0.0134576
0.0145058
0.01657
0.0223195
0.0206451
0.0189036
0.017603
0.0162979
0.0145965
0.0130768
0.0126026
0.0128197
0.0134261
0.0144689
0.0165463
0.0223563
0.0206575
0.018889
0.017572
0.0162551
0.014568
0.0130641
0.0125881
0.012805
0.0134039
0.0144488
0.0165406
0.0223563
0.0206575
0.018889
0.0175719
0.016255
0.0145679
0.013064
0.0125879
0.0128048
0.0134038
0.0144486
0.0165403
0.0223196
0.0206452
0.0189036
0.0176028
0.0162976
0.014596
0.0130763
0.0126021
0.0128192
0.0134256
0.0144683
0.0165454
0.0221868
0.0206192
0.0189241
0.0176484
0.0163512
0.0146092
0.0130606
0.0126069
0.0128289
0.0134569
0.0145049
0.0165685
0.0219362
0.0204917
0.0188164
0.0175514
0.0163072
0.0145172
0.0129527
0.0125634
0.0127943
0.0134639
0.0145535
0.016614
0.021798
0.0204005
0.0185594
0.0172511
0.0162666
0.0143933
0.0126891
0.0124035
0.0126538
0.0133943
0.0145779
0.0167808
0.0221216
0.0211713
0.0200671
0.0195512
0.0187767
0.0160408
0.0122722
0.0116203
0.0117793
0.0125601
0.0142534
0.0176671
0.00347732
0.00593629
0.00689144
0.00747622
0.00765553
0.0079328
0.00869141
0.00967589
0.0103018
0.0111149
0.0123887
0.0153288
0.00744638
0.00987161
0.0100633
0.009914
0.00953498
0.00931728
0.00952999
0.0102447
0.0110241
0.0118199
0.0128288
0.0148641
0.00817312
0.0103209
0.0104806
0.0103342
0.009897
0.00953442
0.00963092
0.0101771
0.0109918
0.0118149
0.0128085
0.0147331
0.00775488
0.0103682
0.0106099
0.0104562
0.00998662
0.0095591
0.00961074
0.0100767
0.0109015
0.0117297
0.0127228
0.0146584
0.00751255
0.0103508
0.0106259
0.0104718
0.0100016
0.00954834
0.0095779
0.0100073
0.0108336
0.0116608
0.0126626
0.0146216
0.00743815
0.0103334
0.0106234
0.0104671
0.00999427
0.0095334
0.00955377
0.00997158
0.0108
0.0116255
0.0126324
0.0146098
0.00743811
0.0103333
0.0106233
0.010467
0.00999415
0.0095333
0.00955367
0.0099715
0.0107999
0.0116254
0.0126323
0.0146095
0.0075123
0.0103508
0.0106257
0.0104715
0.0100013
0.00954804
0.00957761
0.0100071
0.0108334
0.0116606
0.0126623
0.0146209
0.00775447
0.0103681
0.0106096
0.0104559
0.00998616
0.00955868
0.00961035
0.0100764
0.0109012
0.0117294
0.0127223
0.0146574
0.00817251
0.0103207
0.0104804
0.0103339
0.00989658
0.00953403
0.00963055
0.0101769
0.0109916
0.0118146
0.0128079
0.0147319
0.00744529
0.00987141
0.0100633
0.00991403
0.00953501
0.00931721
0.00952985
0.0102446
0.0110241
0.0118198
0.0128282
0.0148627
0.00347752
0.00593656
0.00689179
0.00747674
0.00765607
0.00793305
0.00869125
0.00967597
0.010302
0.0111151
0.0123884
0.0153267
0.000646611
0.00176146
0.00270001
0.0040241
0.00544635
0.00722754
0.0092717
0.0105431
0.0110004
0.0112449
0.0118369
0.0137941
0.00174474
0.00376211
0.00472613
0.005506
0.00632301
0.00747468
0.00881032
0.0101108
0.0109517
0.0114573
0.0121483
0.0137842
0.00214097
0.00450792
0.00529972
0.00591404
0.00647386
0.00729614
0.00848762
0.00974589
0.0106784
0.0113054
0.0120687
0.0137098
0.00220687
0.00473874
0.00551801
0.00604852
0.00649551
0.00716437
0.00826406
0.00949757
0.0104644
0.0111437
0.0119457
0.0136271
0.00222068
0.00479017
0.00557371
0.0060815
0.00648952
0.00709211
0.00812798
0.0093577
0.010341
0.011042
0.0118676
0.0135837
0.00222101
0.00479545
0.00558245
0.00608413
0.00647889
0.00705755
0.00806657
0.0092969
0.0102878
0.0109959
0.0118317
0.0135678
0.002221
0.00479542
0.00558239
0.00608406
0.00647882
0.00705748
0.00806651
0.00929687
0.0102878
0.0109959
0.0118317
0.0135676
0.00222066
0.00479009
0.00557355
0.0060813
0.00648931
0.00709192
0.00812781
0.00935763
0.010341
0.011042
0.0118674
0.0135833
0.00220682
0.00473862
0.0055178
0.00604826
0.00649523
0.00716409
0.00826382
0.00949748
0.0104645
0.0111437
0.0119456
0.0136264
0.00214091
0.00450784
0.0052996
0.00591386
0.00647363
0.00729586
0.00848737
0.00974583
0.0106785
0.0113055
0.0120686
0.013709
0.00174467
0.0037622
0.0047264
0.00550623
0.00632302
0.00747445
0.00881009
0.0101108
0.0109519
0.0114576
0.0121482
0.0137832
0.000646749
0.00176186
0.00270079
0.00402489
0.00544665
0.00722704
0.00927113
0.0105432
0.0110008
0.0112452
0.0118369
0.0137925
0.000287647
0.000968642
0.00201749
0.00374011
0.00607964
0.0089935
0.0117584
0.0128851
0.0128766
0.0124578
0.0122965
0.0132323
0.000685192
0.00182222
0.00282598
0.00403273
0.00555327
0.00734938
0.00942335
0.0110788
0.0117801
0.0119057
0.0122254
0.0133954
0.000899339
0.00225834
0.00316069
0.00414282
0.00531359
0.00679433
0.00859001
0.0103039
0.0112156
0.0115465
0.0120575
0.0133798
0.000976771
0.0024339
0.00329957
0.00417221
0.00518286
0.00650436
0.0081578
0.00987494
0.0108794
0.0113109
0.011898
0.0133131
0.00100247
0.00248789
0.00334064
0.00416948
0.00511071
0.0063471
0.00793877
0.00965922
0.0107086
0.011183
0.0118082
0.0132813
0.00100899
0.00249982
0.00334816
0.00416158
0.00507676
0.00627746
0.00784591
0.00957191
0.0106408
0.01113
0.0117707
0.0132718
0.00100898
0.00249979
0.00334812
0.00416152
0.00507669
0.0062774
0.00784586
0.0095719
0.0106409
0.0111301
0.0117707
0.0132718
0.00100245
0.00248781
0.00334051
0.00416932
0.00511053
0.00634692
0.00793862
0.00965921
0.0107087
0.0111832
0.0118083
0.0132811
0.000976744
0.0024338
0.00329941
0.004172
0.00518261
0.00650409
0.00815756
0.00987493
0.0108796
0.0113111
0.0118981
0.0133128
0.000899323
0.00225828
0.00316061
0.00414268
0.00531332
0.006794
0.00858971
0.0103039
0.011216
0.0115468
0.0120576
0.0133794
0.000685213
0.00182233
0.00282618
0.00403285
0.00555311
0.00734894
0.00942297
0.0110789
0.0117806
0.0119062
0.0122257
0.0133949
0.000287751
0.000969023
0.00201826
0.00374084
0.00607922
0.00899221
0.0117577
0.0128855
0.0128772
0.0124587
0.0122968
0.0132316
0.000199367
0.000734794
0.00184823
0.00394682
0.00716702
0.010873
0.0140703
0.014874
0.0146419
0.0136084
0.01282
0.013372
0.000436282
0.00123797
0.00221779
0.00364551
0.00557338
0.0079873
0.0106625
0.012536
0.012936
0.0126967
0.0126058
0.0134847
0.00056061
0.00148859
0.00237956
0.00353834
0.00506173
0.00699467
0.00936854
0.0114229
0.0121928
0.0122167
0.0123582
0.0134688
0.000614301
0.00159882
0.00244372
0.00347157
0.00480032
0.00651334
0.00871865
0.0108398
0.0117805
0.0119172
0.0121892
0.0134199
0.000634495
0.00163818
0.00246046
0.00342801
0.00466492
0.00627794
0.00839967
0.010562
0.0115878
0.0117702
0.012099
0.0134016
0.00064055
0.00164893
0.00246176
0.00340573
0.00460638
0.00618048
0.0082689
0.0104547
0.0115175
0.0117148
0.0120634
0.0133993
0.000640543
0.0016489
0.00246171
0.00340567
0.00460631
0.0061804
0.00826883
0.0104547
0.0115176
0.0117149
0.0120634
0.0133993
0.000634474
0.00163811
0.00246035
0.00342784
0.00466471
0.00627771
0.00839946
0.0105619
0.011588
0.0117705
0.0120991
0.0134015
0.000614274
0.00159873
0.00244357
0.00347134
0.0048
0.00651295
0.00871829
0.0108398
0.0117809
0.0119176
0.0121894
0.0134198
0.000560594
0.00148853
0.00237947
0.00353814
0.00506136
0.00699414
0.00936804
0.0114229
0.0121933
0.0122172
0.0123585
0.0134686
0.000436297
0.00123804
0.00221792
0.0036455
0.00557296
0.00798653
0.0106619
0.0125362
0.0129367
0.0126975
0.0126063
0.0134845
0.000199444
0.000735126
0.00184897
0.00394751
0.00716622
0.0108715
0.0140698
0.0148746
0.0146427
0.0136095
0.0128205
0.0133716
0.00016708
0.000632237
0.00171702
0.00401005
0.00770946
0.0122529
0.0154416
0.0162129
0.0156375
0.0139699
0.0131925
0.0137477
0.000341699
0.0010099
0.00196938
0.00352325
0.00577178
0.00872896
0.0119685
0.0140331
0.0141104
0.0135107
0.0131369
0.0138662
0.000430534
0.00118101
0.00204986
0.00330515
0.00506061
0.00743102
0.0103203
0.012701
0.0132894
0.0130407
0.0129383
0.0138598
0.000470723
0.00125644
0.0020724
0.00318039
0.00470844
0.00679885
0.00949378
0.0120187
0.0128724
0.0127588
0.0127792
0.0138371
0.000486932
0.00128506
0.00207264
0.00310921
0.0045287
0.0064895
0.00909657
0.0117087
0.0126946
0.0126311
0.0127004
0.0138476
0.000492208
0.00129355
0.0020688
0.00307633
0.00445218
0.00636163
0.00893579
0.0115943
0.012638
0.0125883
0.0126741
0.013862
0.0004922
0.00129353
0.00206876
0.00307626
0.00445209
0.00636151
0.00893567
0.0115943
0.0126381
0.0125884
0.0126742
0.013862
0.00048691
0.00128499
0.00207253
0.00310903
0.00452844
0.00648916
0.00909622
0.0117086
0.0126949
0.0126315
0.0127007
0.0138476
0.000470695
0.00125635
0.00207224
0.00318013
0.00470803
0.00679827
0.00949319
0.0120186
0.0128728
0.0127593
0.0127796
0.0138371
0.000430515
0.00118095
0.00204975
0.00330488
0.00506008
0.00743016
0.0103194
0.0127008
0.0132899
0.0130414
0.0129389
0.0138597
0.000341706
0.00100994
0.00196945
0.00352313
0.00577107
0.00872771
0.0119674
0.0140333
0.0141112
0.0135116
0.0131375
0.0138661
0.000167144
0.000632538
0.00171766
0.0040107
0.00770835
0.012251
0.0154406
0.0162135
0.0156384
0.0139711
0.0131932
0.0137476
0.000113618
0.000445393
0.00139147
0.00371914
0.00785591
0.012788
0.015945
0.0168103
0.0161268
0.0146004
0.0139616
0.0148613
0.000277414
0.000843677
0.00175492
0.00335681
0.00582555
0.00906751
0.0126666
0.0149919
0.0151274
0.014311
0.0138528
0.0147157
0.000350818
0.000993894
0.00182951
0.00312905
0.0050464
0.00764907
0.0108682
0.0136325
0.0143425
0.0139192
0.0136988
0.0147103
0.000384764
0.00105655
0.00183998
0.00298545
0.00464679
0.00695477
0.00997121
0.0129463
0.0139619
0.0136865
0.0135911
0.0147428
0.000398958
0.00108038
0.00183377
0.00290207
0.00444222
0.0066154
0.00954541
0.012642
0.0138223
0.0135984
0.0135586
0.0148158
0.000403801
0.00108766
0.00182756
0.00286375
0.00435486
0.00647457
0.00937256
0.0125313
0.0137896
0.0135785
0.0135573
0.0148682
0.000403793
0.00108763
0.00182751
0.00286367
0.00435475
0.00647442
0.00937235
0.0125312
0.0137897
0.0135787
0.0135574
0.0148683
0.000398937
0.00108032
0.00183365
0.00290186
0.00444189
0.00661495
0.00954482
0.0126416
0.0138225
0.0135988
0.013559
0.014816
0.000384736
0.00105646
0.00183981
0.00298514
0.00464625
0.00695401
0.00997022
0.0129457
0.0139622
0.0136871
0.0135917
0.014743
0.000350796
0.000993829
0.00182937
0.00312871
0.0050457
0.00764796
0.0108668
0.0136318
0.014343
0.01392
0.0136995
0.0147106
0.00027741
0.000843693
0.00175495
0.00335659
0.00582466
0.00906594
0.0126649
0.0149914
0.0151281
0.0143122
0.0138537
0.0147161
0.000113655
0.000445604
0.00139207
0.00371962
0.00785467
0.0127856
0.0159439
0.0168105
0.0161281
0.0146021
0.0139628
0.0148621
9.0457e-05
0.000350084
0.00108659
0.00308806
0.00722244
0.0127862
0.0159834
0.016926
0.0168173
0.0162466
0.0160187
0.0171791
0.000224258
0.000695201
0.00150711
0.00302679
0.00552723
0.0090174
0.0127955
0.0152747
0.0158359
0.0152787
0.0150751
0.0163859
0.000287851
0.000836163
0.00160678
0.00287258
0.00481868
0.00757314
0.0109647
0.0139568
0.0151209
0.0148615
0.0147931
0.0162084
0.000318505
0.000895862
0.00162473
0.0027487
0.00443781
0.00686674
0.0100588
0.0132901
0.0148032
0.0146854
0.0147222
0.016274
0.000331808
0.000919075
0.00162106
0.00267066
0.00423744
0.00652087
0.00963038
0.0129938
0.0147059
0.0146535
0.0147502
0.0164101
0.000336511
0.000926424
0.00161575
0.00263358
0.00415028
0.00637587
0.00945519
0.0128843
0.0146928
0.0146664
0.0147889
0.0165018
0.000336503
0.0009264
0.00161571
0.0026335
0.00415015
0.00637566
0.00945493
0.0128841
0.0146927
0.0146665
0.0147891
0.0165019
0.000331787
0.000919009
0.00162093
0.00267043
0.00423705
0.00652026
0.00962962
0.0129932
0.0147059
0.0146539
0.0147507
0.0164103
0.000318477
0.000895776
0.00162455
0.00274835
0.00443716
0.00686572
0.0100576
0.0132891
0.0148032
0.014686
0.0147229
0.0162742
0.000287828
0.000836094
0.00160663
0.00287219
0.00481782
0.00757165
0.0109629
0.0139557
0.0151209
0.0148623
0.0147939
0.0162087
0.00022425
0.000695201
0.00150711
0.00302653
0.00552614
0.00901528
0.0127933
0.0152738
0.015836
0.0152797
0.0150762
0.0163862
9.04835e-05
0.00035026
0.00108708
0.00308843
0.00722108
0.0127835
0.0159821
0.0169259
0.0168179
0.0162482
0.0160203
0.0171794
5.8528e-05
0.000221292
0.000709415
0.00222795
0.00564611
0.0110574
0.0148391
0.0164754
0.0169357
0.0169683
0.0170516
0.0174331
0.000175235
0.000549953
0.00122492
0.00254384
0.00479974
0.00810503
0.0118982
0.0148355
0.0159947
0.0161433
0.0163471
0.0172308
0.00023151
0.000685914
0.00136008
0.0025088
0.00431641
0.00692978
0.0102639
0.0136295
0.0153534
0.0157394
0.0160465
0.0171251
0.000259857
0.000745806
0.00139478
0.00243128
0.00401702
0.00632741
0.00944561
0.0129805
0.0150739
0.0156128
0.0160107
0.0171817
0.000272703
0.000770279
0.00139918
0.00237241
0.0038487
0.00602205
0.0090479
0.0126695
0.0149879
0.0156211
0.0160774
0.0172831
0.000277416
0.000778479
0.00139719
0.00234232
0.00377273
0.00589038
0.00887934
0.0125414
0.0149736
0.0156547
0.0161379
0.0173479
0.000277409
0.000778457
0.00139714
0.00234224
0.00377258
0.00589014
0.008879
0.012541
0.0149735
0.0156548
0.016138
0.0173478
0.000272684
0.000770218
0.00139905
0.00237216
0.00384827
0.00602134
0.00904688
0.0126684
0.0149875
0.0156212
0.0160776
0.0172829
0.000259832
0.000745726
0.00139461
0.00243092
0.00401632
0.00632623
0.00944393
0.0129788
0.0150733
0.015613
0.016011
0.0171814
0.000231488
0.000685847
0.00135993
0.00250841
0.00431551
0.00692811
0.0102615
0.0136275
0.0153528
0.0157396
0.0160469
0.0171247
0.000175225
0.000549941
0.00122491
0.00254361
0.00479868
0.00810267
0.0118951
0.0148335
0.0159942
0.0161436
0.0163474
0.0172304
5.85383e-05
0.000221385
0.000709749
0.00222832
0.00564516
0.0110539
0.0148368
0.0164744
0.0169355
0.0169686
0.0170517
0.0174328
4.42225e-05
0.000161911
0.000482052
0.00142439
0.00385689
0.00815024
0.0122779
0.0146044
0.015788
0.0162867
0.016414
0.0160231
0.000133535
0.000422004
0.000951125
0.00200062
0.00384093
0.00663325
0.0100139
0.013241
0.0152498
0.0160742
0.0164338
0.0168386
0.000181461
0.000545767
0.00110515
0.00207885
0.00362784
0.00589118
0.00886623
0.0122398
0.0147462
0.0157986
0.0162971
0.0168594
0.000207229
0.000604559
0.00115579
0.00205476
0.00343767
0.00545266
0.00821848
0.0116171
0.0144528
0.0156853
0.0162635
0.0168731
0.000219506
0.00063019
0.00116958
0.00202099
0.00331605
0.00521259
0.00787843
0.0112835
0.0143191
0.015668
0.0162921
0.016912
0.000224189
0.00063931
0.00117177
0.00200089
0.00325773
0.00510431
0.00772665
0.0111303
0.0142665
0.0156783
0.0163216
0.0169353
0.000224183
0.00063929
0.00117173
0.00200081
0.00325759
0.00510407
0.00772626
0.0111298
0.0142661
0.0156781
0.0163215
0.0169351
0.000219489
0.000630135
0.00116946
0.00202076
0.00331562
0.00521187
0.0078773
0.011282
0.014318
0.0156676
0.0162917
0.0169114
0.000207207
0.000604488
0.00115564
0.00205443
0.00343701
0.00545147
0.00821665
0.0116148
0.0144513
0.0156846
0.016263
0.0168723
0.000181442
0.000545709
0.00110502
0.00207851
0.00362701
0.00588956
0.00886372
0.0122369
0.0147444
0.0157978
0.0162965
0.0168585
0.000133525
0.000421989
0.000951119
0.00200046
0.00384008
0.00663109
0.0100107
0.0132379
0.015248
0.0160734
0.0164332
0.0168377
4.42269e-05
0.00016197
0.000482267
0.00142471
0.00385629
0.0081472
0.0122746
0.0146021
0.0157865
0.0162858
0.0164133
0.016022
2.77696e-05
9.76936e-05
0.000278802
0.00081319
0.00220867
0.00504472
0.00847789
0.0108174
0.012333
0.0131384
0.0130473
0.0108001
9.82011e-05
0.000311339
0.000703819
0.00148364
0.00285724
0.00498126
0.00769546
0.0105745
0.0131342
0.0146246
0.0151796
0.0145716
0.000138168
0.000420294
0.000862112
0.00163906
0.00288
0.00468987
0.00710731
0.0100109
0.0128993
0.0146199
0.0152805
0.0149575
0.000160955
0.000475803
0.000923294
0.00166078
0.00279499
0.00442758
0.0066676
0.00950979
0.0125599
0.0144606
0.0151892
0.0148382
0.000172368
0.000501586
0.000944924
0.00165127
0.00272194
0.00426225
0.00640931
0.00920612
0.012336
0.0143523
0.0151241
0.0146928
0.00017689
0.000511271
0.000950989
0.0016415
0.00268301
0.00418267
0.00628708
0.00905749
0.0122186
0.0142937
0.0150879
0.0145927
0.000176885
0.000511255
0.000950953
0.00164143
0.00268288
0.00418245
0.00628671
0.00905696
0.012218
0.0142932
0.0150875
0.0145921
0.000172354
0.000501541
0.000944827
0.00165107
0.00272157
0.00426159
0.00640823
0.00920455
0.0123342
0.0143509
0.0151229
0.0146912
0.000160937
0.000475745
0.000923165
0.0016605
0.00279442
0.00442652
0.00666586
0.00950731
0.0125572
0.0144586
0.0151876
0.0148361
0.000138153
0.000420246
0.000862007
0.00163879
0.00287932
0.00468848
0.00710498
0.0100077
0.0128961
0.0146176
0.0152787
0.0149552
9.81928e-05
0.000311324
0.000703817
0.00148355
0.00285668
0.00497964
0.00769262
0.0105709
0.0131308
0.0146221
0.0151776
0.0145693
2.77707e-05
9.77207e-05
0.000278927
0.000813412
0.00220845
0.0050429
0.0084747
0.0108142
0.01233
0.0131355
0.0130449
0.0107984
1.98774e-05
6.75575e-05
0.000179437
0.000456438
0.00116449
0.00269385
0.00487024
0.00655955
0.0076162
0.00813518
0.00761014
0.00554308
7.02653e-05
0.000223113
0.000502661
0.00104963
0.00201002
0.00349489
0.00544323
0.00759175
0.00968555
0.0109692
0.0114045
0.00961642
0.00010228
0.000313748
0.000647679
0.00123488
0.00217373
0.00352937
0.00532735
0.00749512
0.00980771
0.0113409
0.0119367
0.010319
0.000121718
0.00036365
0.000712099
0.00128728
0.00216959
0.00341707
0.00509101
0.00718934
0.00953783
0.0111438
0.0117754
0.010174
0.000131948
0.000388283
0.000738543
0.001297
0.00213848
0.00332196
0.00492385
0.00697043
0.00931626
0.0109402
0.0115776
0.00997115
0.00013615
0.000397984
0.000747416
0.00129613
0.00211734
0.00327105
0.00483837
0.00685596
0.00919153
0.0108162
0.0114528
0.00984606
0.000136145
0.000397971
0.000747388
0.00129607
0.00211724
0.00327086
0.00483806
0.0068555
0.0091909
0.0108155
0.0114521
0.00984549
0.000131936
0.000388247
0.000738466
0.00129684
0.00213817
0.00332141
0.00492294
0.00696905
0.0093144
0.0109381
0.0115755
0.00996948
0.000121704
0.000363605
0.000711999
0.00128706
0.00216913
0.00341621
0.00508957
0.00718717
0.00953496
0.0111406
0.0117723
0.0101715
0.000102268
0.000313712
0.000647602
0.00123469
0.00217323
0.00352831
0.00532548
0.00749235
0.00980416
0.0113372
0.0119331
0.0103161
7.02589e-05
0.000223102
0.000502665
0.0010496
0.00200971
0.00349386
0.00544119
0.00758877
0.00968189
0.0109654
0.011401
0.00961399
1.98772e-05
6.75698e-05
0.000179514
0.000456596
0.00116456
0.00269317
0.00486839
0.00655744
0.00761401
0.00813299
0.00760857
0.00554256
1.19887e-05
3.98237e-05
0.000102402
0.000252948
0.000599035
0.00132656
0.00247508
0.00350668
0.00411347
0.00436758
0.00383974
0.00253708
4.87118e-05
0.000154616
0.00034632
0.000713239
0.00135014
0.00233022
0.0036219
0.00504159
0.00637789
0.00710969
0.00709973
0.00557944
7.36948e-05
0.000227444
0.000470147
0.00089293
0.0015663
0.0025298
0.0037781
0.00523765
0.00672762
0.00758792
0.00772355
0.00620792
8.97366e-05
0.000270345
0.000531628
0.000960062
0.00161305
0.00252178
0.00369849
0.00511295
0.00661194
0.00749772
0.00767251
0.00619761
9.8576e-05
0.000292724
0.000559634
0.0009823
0.00161314
0.00248258
0.00361171
0.00498834
0.00647298
0.00735664
0.00753955
0.00609659
0.000102328
0.000301907
0.000569991
0.000987878
0.00160633
0.00245602
0.00356118
0.00491604
0.00638739
0.00726523
0.00744926
0.00602391
0.000102325
0.000301897
0.00056997
0.000987834
0.00160624
0.00245588
0.00356094
0.00491568
0.0063869
0.00726467
0.00744871
0.00602351
9.85676e-05
0.000292697
0.000559576
0.00098218
0.00161291
0.00248215
0.00361101
0.00498729
0.00647154
0.00735502
0.00753794
0.00609545
8.97259e-05
0.000270312
0.000531556
0.000959903
0.00161271
0.00252114
0.0036974
0.00511131
0.00660973
0.00749524
0.00767008
0.00619592
7.36858e-05
0.000227419
0.000470095
0.0008928
0.00156596
0.00252906
0.00377676
0.0052356
0.0067249
0.00758492
0.00772071
0.00620603
4.87072e-05
0.000154608
0.000346327
0.000713242
0.00134999
0.00232964
0.00362061
0.00503956
0.00637527
0.00710682
0.00709722
0.00557797
1.19881e-05
3.98291e-05
0.000102447
0.000253052
0.000599113
0.00132633
0.00247424
0.00350561
0.00411231
0.00436642
0.00383906
0.00253701
8.06873e-06
2.62108e-05
6.29872e-05
0.000139499
0.000304792
0.000636575
0.00115581
0.00167001
0.00198149
0.00208389
0.00172093
0.00104849
3.2868e-05
0.000104168
0.00023163
0.000468042
0.000870206
0.00148376
0.0022884
0.00316043
0.00389433
0.0042659
0.00404012
0.00300133
5.17888e-05
0.000160519
0.000330987
0.000622507
0.00108141
0.00173175
0.00255426
0.00347304
0.00431025
0.00474244
0.0045902
0.00351094
6.46294e-05
0.00019595
0.000385402
0.000691473
0.00115231
0.00178379
0.00257373
0.00347098
0.00432033
0.00475961
0.0046404
0.00358614
7.20142e-05
0.000215383
0.000412287
0.000719663
0.00117196
0.00178321
0.00254626
0.00342117
0.00426396
0.00469883
0.00459282
0.00356418
7.52445e-05
0.000223649
0.000422906
0.000729034
0.00117511
0.00177487
0.00252332
0.00338468
0.00422027
0.00465082
0.00454997
0.00353615
7.52421e-05
0.000223642
0.000422891
0.000729002
0.00117505
0.00177476
0.00252314
0.00338443
0.00421993
0.00465044
0.00454962
0.0035359
7.20081e-05
0.000215364
0.000412246
0.000719578
0.00117179
0.0017829
0.00254576
0.00342043
0.00426298
0.00469774
0.00459179
0.00356347
6.46217e-05
0.000195926
0.000385352
0.000691365
0.00115208
0.00178334
0.00257298
0.00346985
0.00431884
0.00475795
0.00463886
0.0035851
5.17824e-05
0.000160502
0.000330954
0.000622429
0.00108121
0.00173127
0.00255337
0.00347167
0.00430847
0.00474048
0.00458844
0.00350981
3.28647e-05
0.000104163
0.000231637
0.000468061
0.000870159
0.00148346
0.00228767
0.0031592
0.00389273
0.00426415
0.00403866
0.0030005
8.06806e-06
2.62129e-05
6.30097e-05
0.00013956
0.000304867
0.000636543
0.00115552
0.00166959
0.00198102
0.0020834
0.00172071
0.00104852
4.61055e-06
1.48134e-05
3.59301e-05
7.67355e-05
0.000154476
0.000299087
0.000517628
0.000738058
0.000866187
0.000893626
0.000696411
0.000400176
2.15083e-05
6.80122e-05
0.000150269
0.000297368
0.000540397
0.000904129
0.00137499
0.00187781
0.00224381
0.00240486
0.0021541
0.00151429
3.55446e-05
0.000110491
0.00022671
0.000420148
0.000718575
0.00113462
0.00164862
0.00219749
0.00262724
0.0028211
0.00258954
0.00189509
4.55678e-05
0.000138804
0.000272196
0.00048276
0.000793866
0.00121191
0.00171847
0.00226192
0.00270388
0.00290332
0.00269071
0.00200328
5.15622e-05
0.000155046
0.000296212
0.00051177
0.000822737
0.0012336
0.00172818
0.00226113
0.00270238
0.00290073
0.0026989
0.00202518
5.42554e-05
0.000162175
0.000306182
0.00052263
0.000831575
0.00123703
0.00172403
0.00224982
0.00268836
0.00288509
0.00268845
0.00202367
5.42538e-05
0.00016217
0.000306171
0.000522609
0.000831534
0.00123695
0.00172392
0.00224965
0.00268815
0.00288485
0.00268824
0.00202352
5.15579e-05
0.000155033
0.000296184
0.000511714
0.000822626
0.00123339
0.00172785
0.00226063
0.00270175
0.00290004
0.00269828
0.00202476
4.55625e-05
0.000138788
0.000272164
0.000482692
0.00079372
0.00121162
0.00171798
0.00226118
0.00270294
0.00290229
0.0026898
0.00200267
3.55402e-05
0.000110479
0.000226691
0.000420105
0.000718458
0.00113434
0.00164808
0.00219664
0.00262616
0.00281992
0.00258853
0.00189445
2.15059e-05
6.80089e-05
0.000150276
0.000297392
0.0005404
0.000904011
0.00137462
0.00187713
0.00224292
0.00240389
0.00215333
0.00151388
4.61003e-06
1.4814e-05
3.5942e-05
7.67719e-05
0.00015453
0.000299115
0.000517562
0.000737931
0.000866047
0.000893482
0.00069637
0.000400211
2.80683e-06
8.80126e-06
2.05167e-05
4.16324e-05
7.83294e-05
0.000140322
0.000227328
0.000311041
0.000357029
0.000353965
0.000263095
0.000146079
1.36594e-05
4.30523e-05
9.46138e-05
0.000183194
0.000324236
0.000529294
0.00078761
0.00105445
0.00122076
0.00127113
0.00107777
0.000720913
2.38499e-05
7.42652e-05
0.00015147
0.000275593
0.000461595
0.000714715
0.00101804
0.00132592
0.00152894
0.00159699
0.00139413
0.000981974
3.15112e-05
9.62787e-05
0.000187846
0.000327969
0.000529582
0.000793834
0.00110286
0.00141509
0.00162808
0.00170136
0.00150452
0.00108507
3.62625e-05
0.00010943
0.000208156
0.000354515
0.000560142
0.000824664
0.00113095
0.00144048
0.00165526
0.00172954
0.00153838
0.0011221
3.84484e-05
0.000115365
0.000216931
0.0003652
0.000571226
0.000834182
0.00113753
0.00144419
0.00165855
0.00173279
0.00154494
0.00113217
3.84473e-05
0.000115361
0.000216924
0.000365186
0.0005712
0.000834136
0.00113745
0.00144408
0.00165842
0.00173265
0.00154481
0.00113208
3.62595e-05
0.000109421
0.000208138
0.00035448
0.000560073
0.000824537
0.00113074
0.00144017
0.00165488
0.00172913
0.00153802
0.00112186
3.15075e-05
9.6268e-05
0.000187826
0.000327928
0.000529497
0.000793663
0.00110256
0.00141464
0.00162752
0.00170075
0.001504
0.00108474
2.38469e-05
7.42575e-05
0.00015146
0.000275572
0.000461537
0.000714567
0.00101774
0.00132544
0.00152833
0.00159634
0.00139359
0.000981649
1.36578e-05
4.30501e-05
9.462e-05
0.000183217
0.00032426
0.000529267
0.00078746
0.00105413
0.00122032
0.00127064
0.00107741
0.000720732
2.80637e-06
8.80095e-06
2.05223e-05
4.16531e-05
7.83644e-05
0.000140356
0.000227334
0.000311019
0.000356995
0.000353954
0.000263105
0.000146103
1.50731e-06
4.7441e-06
1.11289e-05
2.19831e-05
3.94287e-05
6.61118e-05
0.000100223
0.000129442
0.000144166
0.000135067