/*--------------------------------*- C++ -*----------------------------------*\
| =========                 |                                                 |
| \\      /  F ield         | OpenFOAM: The Open Source CFD Toolbox           |
|  \\    /   O peration     | Version:  2.3.1                                 |
|   \\  /    A nd           | Web:      www.OpenFOAM.org                      |
|    \\/     M anipulation  |                                                 |
\*---------------------------------------------------------------------------*/
FoamFile
{
    version     2.0;
    format      ascii;
    class       volScalarField;
    location    "10";
    object      Sed_0;
}
// * * * * * * * * * * * * * * * * * * * * * * * * * * * * * * * * * * * * * //

dimensions      [0 0 0 0 0 0 0];

internalField   nonuniform List<scalar> 
303072
(
0.0233143
0.02447
0.0250565
0.0256924
0.0266184
0.0270135
0.0277123
0.0282469
0.0286889
0.0294676
0.0300901
0.0313694
0.0233439
0.0243272
0.0249902
0.025556
0.0262963
0.0269363
0.0276014
0.0279383
0.0282132
0.0288339
0.0295033
0.0307771
0.0233502
0.0243197
0.0249614
0.0255743
0.0262874
0.0270117
0.0276815
0.027916
0.0281722
0.0287965
0.0295244
0.0307691
0.0233482
0.0243389
0.0249367
0.0255807
0.0263002
0.0270315
0.0277213
0.0279622
0.0282395
0.0289118
0.0296166
0.0308508
0.0233454
0.0243495
0.0249226
0.0255853
0.026319
0.0270326
0.0277209
0.0279695
0.0282604
0.0289554
0.029639
0.0308668
0.0233447
0.0243515
0.0249209
0.025588
0.0263254
0.0270281
0.0277151
0.0279672
0.028267
0.0289717
0.029643
0.0308727
0.0233447
0.0243515
0.0249209
0.025588
0.0263253
0.0270281
0.0277151
0.0279671
0.0282669
0.0289716
0.0296429
0.0308725
0.0233453
0.0243495
0.0249227
0.0255853
0.026319
0.0270326
0.0277208
0.0279694
0.0282602
0.028955
0.0296387
0.0308662
0.0233481
0.0243389
0.0249368
0.0255807
0.0263002
0.0270314
0.0277212
0.027962
0.0282391
0.0289113
0.0296161
0.0308499
0.0233501
0.0243197
0.0249615
0.0255743
0.0262873
0.0270117
0.0276814
0.0279158
0.0281718
0.0287958
0.0295238
0.0307681
0.0233438
0.0243272
0.0249904
0.025556
0.0262962
0.0269362
0.0276012
0.0279382
0.0282129
0.0288334
0.0295028
0.0307761
0.0233142
0.0244699
0.0250567
0.0256923
0.0266183
0.0270135
0.027712
0.0282472
0.0286888
0.0294675
0.0300899
0.0313685
0.0230033
0.0230434
0.0230568
0.0230988
0.0231495
0.0230467
0.0226438
0.0216893
0.0214905
0.0218021
0.022758
0.0250367
0.0230049
0.0230553
0.0230184
0.0229012
0.0228232
0.0226304
0.0221727
0.0211995
0.0209992
0.0212575
0.0221694
0.0244289
0.0230067
0.0230688
0.0230564
0.0230009
0.0229398
0.0227717
0.0223267
0.02126
0.021019
0.0212528
0.0221414
0.0244045
0.0230096
0.0230787
0.0230693
0.023024
0.0229726
0.0228273
0.0224174
0.0213761
0.0211367
0.0213505
0.0222119
0.0244842
0.0230102
0.0230814
0.0230712
0.0230237
0.0229722
0.022827
0.022422
0.0213991
0.0211664
0.0213734
0.0222301
0.0245094
0.0230104
0.0230824
0.0230716
0.023022
0.0229689
0.0228205
0.022413
0.0213961
0.021168
0.0213724
0.022231
0.0245249
0.0230104
0.0230824
0.0230716
0.023022
0.0229689
0.0228204
0.0224129
0.021396
0.0211678
0.0213722
0.0222307
0.0245245
0.0230102
0.0230814
0.0230712
0.0230237
0.0229721
0.0228269
0.0224218
0.0213988
0.0211659
0.0213728
0.0222293
0.0245082
0.0230096
0.0230787
0.0230694
0.0230239
0.0229725
0.0228272
0.0224172
0.0213756
0.0211359
0.0213496
0.0222107
0.0244824
0.0230067
0.0230688
0.0230564
0.0230009
0.0229398
0.0227715
0.0223265
0.0212595
0.0210181
0.0212517
0.02214
0.0244023
0.0230049
0.0230553
0.0230185
0.0229012
0.0228231
0.0226303
0.0221725
0.0211991
0.0209985
0.0212566
0.0221681
0.0244268
0.0230033
0.0230434
0.0230568
0.0230988
0.0231495
0.0230468
0.022644
0.0216896
0.0214905
0.0218019
0.0227574
0.0250348
0.0229806
0.022906
0.0226977
0.0225489
0.0223584
0.021691
0.0196238
0.0173812
0.0169505
0.017307
0.0184139
0.0208758
0.0228966
0.0226695
0.0220855
0.0213589
0.0208604
0.0199251
0.0181005
0.0167218
0.0165333
0.0168141
0.0177001
0.0198038
0.0229117
0.0227219
0.0222598
0.0216896
0.0211732
0.0201664
0.0182681
0.0167933
0.0165703
0.0168185
0.0176365
0.0196515
0.0229512
0.022767
0.0223282
0.0217772
0.0212709
0.0203043
0.0184314
0.016904
0.0166549
0.0168773
0.0176551
0.019655
0.0229611
0.0227814
0.0223381
0.0217648
0.0212527
0.0202754
0.0184422
0.0169215
0.0166651
0.0168785
0.0176478
0.0196503
0.0229636
0.0227869
0.0223395
0.021753
0.0212339
0.0202373
0.0184207
0.0169102
0.016655
0.016866
0.0176366
0.0196526
0.0229636
0.0227869
0.0223395
0.021753
0.0212338
0.0202372
0.0184206
0.01691
0.0166548
0.0168657
0.0176363
0.0196522
0.0229611
0.0227814
0.0223381
0.0217647
0.0212526
0.0202751
0.0184418
0.016921
0.0166644
0.0168778
0.017647
0.0196491
0.0229512
0.022767
0.0223283
0.0217771
0.0212707
0.0203038
0.0184308
0.0169032
0.0166539
0.0168763
0.0176538
0.0196532
0.0229118
0.0227219
0.0222598
0.0216894
0.0211729
0.0201659
0.0182675
0.0167924
0.0165692
0.0168173
0.0176351
0.0196494
0.0228967
0.0226696
0.0220857
0.0213587
0.0208601
0.0199248
0.0181002
0.0167213
0.0165325
0.0168132
0.0176989
0.0198017
0.0229806
0.0229061
0.0226978
0.0225489
0.0223584
0.0216911
0.0196244
0.0173818
0.0169507
0.017307
0.0184135
0.020874
0.0221217
0.0211705
0.0200675
0.0195529
0.0187763
0.0160317
0.0122677
0.0116195
0.0117796
0.0125633
0.0142599
0.017681
0.0217981
0.0203999
0.0185586
0.017252
0.0162668
0.0143906
0.0126876
0.0124041
0.0126551
0.0133971
0.014582
0.0167886
0.0219365
0.0204914
0.0188161
0.0175526
0.0163076
0.0145158
0.0129517
0.0125643
0.0127959
0.0134665
0.0145572
0.0166208
0.022187
0.0206187
0.0189236
0.0176495
0.0163515
0.0146081
0.0130598
0.0126078
0.0128304
0.0134592
0.0145084
0.0165749
0.0223195
0.0206445
0.018903
0.0176036
0.0162977
0.0145949
0.0130753
0.0126029
0.0128205
0.0134276
0.0144715
0.0165513
0.0223564
0.0206567
0.0188884
0.0175726
0.0162549
0.0145665
0.0130627
0.0125884
0.0128058
0.0134054
0.0144514
0.0165455
0.0223564
0.0206568
0.0188884
0.0175725
0.0162548
0.0145663
0.0130626
0.0125882
0.0128056
0.0134052
0.0144511
0.0165452
0.0223196
0.0206445
0.018903
0.0176034
0.0162973
0.0145944
0.0130749
0.0126024
0.01282
0.0134271
0.0144709
0.0165503
0.0221872
0.0206188
0.0189236
0.0176491
0.016351
0.0146075
0.0130591
0.0126072
0.0128297
0.0134585
0.0145075
0.0165735
0.0219367
0.0204916
0.0188161
0.0175522
0.016307
0.0145152
0.0129511
0.0125636
0.0127951
0.0134657
0.0145562
0.0166191
0.0217986
0.0204002
0.0185588
0.0172518
0.0162663
0.0143904
0.0126873
0.0124037
0.0126547
0.0133965
0.0145812
0.0167868
0.0221217
0.021171
0.0200679
0.0195529
0.0187764
0.0160326
0.0122681
0.0116198
0.0117798
0.0125633
0.0142594
0.0176788
0.00347752
0.00593702
0.00689201
0.00747576
0.00765439
0.007932
0.00869172
0.00967654
0.0103028
0.0111173
0.012393
0.0153385
0.00744647
0.00987134
0.0100628
0.00991352
0.00953405
0.00931647
0.00952971
0.0102453
0.0110251
0.0118215
0.0128314
0.0148692
0.00817234
0.0103201
0.0104801
0.0103338
0.00989615
0.00953372
0.00963063
0.0101777
0.0109927
0.0118163
0.0128107
0.0147375
0.0077547
0.0103676
0.0106093
0.0104557
0.0099858
0.00955846
0.00961045
0.0100773
0.0109024
0.011731
0.0127249
0.0146627
0.00751316
0.0103503
0.0106254
0.0104713
0.0100008
0.00954771
0.00957761
0.0100079
0.0108345
0.011662
0.0126647
0.014626
0.00743885
0.010333
0.0106229
0.0104666
0.0099935
0.00953278
0.00955349
0.00997222
0.0108009
0.0116267
0.0126345
0.0146141
0.00743881
0.0103329
0.0106228
0.0104665
0.00999338
0.00953267
0.00955339
0.00997215
0.0108008
0.0116266
0.0126344
0.0146139
0.00751291
0.0103503
0.0106252
0.0104711
0.0100005
0.00954741
0.00957733
0.0100077
0.0108343
0.0116618
0.0126644
0.0146253
0.00775429
0.0103675
0.0106091
0.0104554
0.00998534
0.00955803
0.00961005
0.010077
0.0109022
0.0117307
0.0127244
0.0146617
0.00817172
0.0103199
0.0104799
0.0103335
0.00989574
0.00953333
0.00963027
0.0101775
0.0109926
0.011816
0.0128101
0.0147363
0.00744538
0.00987113
0.0100628
0.00991355
0.00953408
0.00931639
0.00952957
0.0102452
0.0110251
0.0118213
0.0128308
0.0148678
0.00347772
0.00593729
0.00689236
0.00747628
0.00765493
0.00793225
0.00869155
0.00967662
0.010303
0.0111174
0.0123926
0.0153363
0.000646664
0.00176166
0.00270023
0.00402457
0.00544718
0.00722905
0.00927287
0.0105435
0.0110005
0.0112455
0.0118387
0.0138
0.00174478
0.00376191
0.00472597
0.00550591
0.00632311
0.00747521
0.00881108
0.0101117
0.0109523
0.0114581
0.0121499
0.0137882
0.00214087
0.00450761
0.00529953
0.00591389
0.00647378
0.00729648
0.00848831
0.00974682
0.0106791
0.0113062
0.0120703
0.0137135
0.0022069
0.00473849
0.00551778
0.00604831
0.00649536
0.00716463
0.00826478
0.00949853
0.0104652
0.0111445
0.0119473
0.0136307
0.0022208
0.00478994
0.00557346
0.00608128
0.00648936
0.0070923
0.00812869
0.00935868
0.0103418
0.0110428
0.0118692
0.0135874
0.00222114
0.00479523
0.00558219
0.0060839
0.00647873
0.00705773
0.00806728
0.00929789
0.0102886
0.0109967
0.0118333
0.0135715
0.00222113
0.0047952
0.00558214
0.00608383
0.00647865
0.00705766
0.00806722
0.00929786
0.0102886
0.0109967
0.0118333
0.0135714
0.00222077
0.00478986
0.00557331
0.00608108
0.00648915
0.00709211
0.00812852
0.00935861
0.0103418
0.0110428
0.0118691
0.013587
0.00220686
0.00473837
0.00551757
0.00604805
0.00649508
0.00716435
0.00826455
0.00949844
0.0104652
0.0111445
0.0119472
0.01363
0.00214082
0.00450753
0.00529941
0.00591371
0.00647355
0.00729619
0.00848806
0.00974676
0.0106792
0.0113063
0.0120702
0.0137127
0.00174471
0.003762
0.00472624
0.00550615
0.00632312
0.00747498
0.00881086
0.0101117
0.0109526
0.0114583
0.0121498
0.0137872
0.000646801
0.00176206
0.002701
0.00402536
0.00544748
0.00722855
0.00927231
0.0105436
0.011001
0.0112459
0.0118387
0.0137984
0.000287684
0.000968848
0.00201795
0.0037411
0.00608144
0.00899577
0.0117595
0.0128848
0.0128761
0.012457
0.0122971
0.0132354
0.000685226
0.00182228
0.00282619
0.00403316
0.00555401
0.00735054
0.00942468
0.0110796
0.0117802
0.0119058
0.0122263
0.0133983
0.000899356
0.00225835
0.00316082
0.00414309
0.00531414
0.00679524
0.00859132
0.0103049
0.011216
0.0115468
0.0120585
0.0133828
0.000976801
0.0024339
0.00329964
0.0041724
0.00518329
0.00650515
0.00815904
0.00987611
0.01088
0.0113113
0.0118992
0.0133164
0.0010025
0.00248788
0.00334069
0.00416964
0.00511109
0.0063479
0.00793999
0.00966045
0.0107092
0.0111836
0.0118095
0.0132846
0.00100902
0.00249981
0.0033482
0.00416173
0.00507712
0.00627825
0.00784714
0.00957316
0.0106415
0.0111306
0.011772
0.0132753
0.00100901
0.00249978
0.00334816
0.00416167
0.00507706
0.00627818
0.00784708
0.00957316
0.0106415
0.0111306
0.011772
0.0132753
0.00100248
0.0024878
0.00334056
0.00416948
0.00511091
0.00634771
0.00793984
0.00966044
0.0107094
0.0111837
0.0118096
0.0132844
0.000976774
0.00243379
0.00329948
0.00417219
0.00518303
0.00650488
0.0081588
0.0098761
0.0108802
0.0113115
0.0118993
0.013316
0.000899339
0.00225829
0.00316074
0.00414294
0.00531387
0.00679491
0.00859102
0.010305
0.0112164
0.0115472
0.0120587
0.0133824
0.000685247
0.00182239
0.00282639
0.00403328
0.00555384
0.00735009
0.0094243
0.0110797
0.0117808
0.0119063
0.0122266
0.0133978
0.000287787
0.000969229
0.00201873
0.00374183
0.00608103
0.00899447
0.0117588
0.0128852
0.0128767
0.0124579
0.0122975
0.0132347
0.0001994
0.000734994
0.00184883
0.00394813
0.00716908
0.0108752
0.0140713
0.0148733
0.0146409
0.0136066
0.0128199
0.0133745
0.000436329
0.00123813
0.00221817
0.00364623
0.00557456
0.00798894
0.0106641
0.0125366
0.0129357
0.0126963
0.0126062
0.0134874
0.000560655
0.00148872
0.00237985
0.00353886
0.0050626
0.00699604
0.00937024
0.011424
0.012193
0.0122166
0.0123588
0.0134717
0.000614344
0.00159892
0.00244395
0.003472
0.00480108
0.00651457
0.00872034
0.0108411
0.0117809
0.0119174
0.01219
0.0134231
0.000634535
0.00163828
0.00246067
0.0034284
0.00466562
0.00627908
0.00840136
0.0105634
0.0115883
0.0117705
0.0121
0.0134049
0.000640589
0.00164902
0.00246195
0.0034061
0.00460706
0.00618159
0.00827058
0.0104562
0.0115181
0.0117151
0.0120644
0.0134028
0.000640582
0.00164899
0.00246191
0.00340604
0.00460699
0.00618151
0.00827051
0.0104562
0.0115181
0.0117152
0.0120645
0.0134027
0.000634514
0.00163821
0.00246056
0.00342823
0.00466541
0.00627885
0.00840115
0.0105634
0.0115885
0.0117708
0.0121001
0.0134048
0.000614317
0.00159884
0.0024438
0.00347177
0.00480076
0.00651418
0.00871998
0.0108411
0.0117813
0.0119178
0.0121903
0.0134229
0.000560639
0.00148866
0.00237976
0.00353866
0.00506223
0.00699551
0.00936974
0.011424
0.0121935
0.0122172
0.0123592
0.0134715
0.000436343
0.0012382
0.0022183
0.00364622
0.00557414
0.00798816
0.0106635
0.0125369
0.0129364
0.0126971
0.0126067
0.0134871
0.000199477
0.000735326
0.00184956
0.00394881
0.00716828
0.0108737
0.0140708
0.014874
0.0146417
0.0136077
0.0128204
0.0133741
0.000167108
0.000632407
0.0017176
0.00401144
0.00771178
0.0122551
0.0154428
0.0162125
0.0156361
0.0139682
0.0131927
0.0137504
0.000341749
0.00101008
0.00196982
0.00352411
0.00577321
0.00873088
0.0119704
0.0140336
0.01411
0.0135099
0.0131372
0.0138689
0.000430583
0.00118117
0.00205021
0.0033058
0.00506169
0.00743268
0.0103222
0.0127021
0.0132894
0.0130405
0.0129389
0.0138628
0.000470769
0.00125658
0.0020727
0.00318095
0.0047094
0.00680037
0.00949579
0.0120202
0.0128727
0.0127588
0.0127798
0.0138404
0.000486975
0.00128519
0.00207292
0.00310972
0.00452959
0.00649094
0.00909858
0.0117103
0.012695
0.0126313
0.0127012
0.0138512
0.00049225
0.00129368
0.00206907
0.00307682
0.00445304
0.00636304
0.0089378
0.011596
0.0126384
0.0125885
0.0126749
0.0138657
0.000492242
0.00129365
0.00206902
0.00307676
0.00445295
0.00636293
0.00893768
0.011596
0.0126385
0.0125887
0.012675
0.0138658
0.000486954
0.00128513
0.0020728
0.00310954
0.00452933
0.0064906
0.00909823
0.0117102
0.0126953
0.0126316
0.0127015
0.0138512
0.000470742
0.0012565
0.00207254
0.00318068
0.00470898
0.00679979
0.0094952
0.01202
0.0128731
0.0127594
0.0127803
0.0138404
0.000430564
0.00118112
0.0020501
0.00330554
0.00506116
0.00743182
0.0103214
0.0127019
0.0132899
0.0130411
0.0129394
0.0138627
0.000341755
0.00101012
0.00196989
0.003524
0.00577249
0.00872963
0.0119693
0.0140338
0.0141108
0.0135108
0.0131378
0.0138689
0.000167172
0.000632708
0.00171825
0.0040121
0.00771067
0.0122532
0.0154419
0.0162131
0.015637
0.0139694
0.0131934
0.0137503
0.000113639
0.000445537
0.00139202
0.00372059
0.00785835
0.0127905
0.0159465
0.0168106
0.0161259
0.0145999
0.0139629
0.0148672
0.00027746
0.000843852
0.00175537
0.00335772
0.00582707
0.00906956
0.0126687
0.0149928
0.0151271
0.0143105
0.0138536
0.0147196
0.000350867
0.000994058
0.00182987
0.00312976
0.0050476
0.00765085
0.0108704
0.0136338
0.0143425
0.013919
0.0136996
0.0147141
0.000384811
0.0010567
0.0018403
0.00298606
0.00464783
0.0069564
0.00997334
0.0129479
0.0139622
0.0136866
0.0135921
0.014747
0.000399003
0.00108052
0.00183407
0.00290263
0.00444319
0.00661695
0.00954752
0.0126438
0.0138227
0.0135987
0.0135598
0.0148205
0.000403845
0.0010878
0.00182785
0.00286428
0.0043558
0.00647609
0.00937466
0.0125332
0.0137902
0.0135789
0.0135586
0.0148732
0.000403837
0.00108777
0.0018278
0.00286421
0.00435569
0.00647593
0.00937446
0.0125331
0.0137903
0.013579
0.0135587
0.0148732
0.000398981
0.00108046
0.00183395
0.00290242
0.00444286
0.0066165
0.00954693
0.0126434
0.013823
0.0135991
0.0135602
0.0148207
0.000384783
0.00105661
0.00184014
0.00298575
0.0046473
0.00695564
0.00997235
0.0129473
0.0139625
0.0136872
0.0135927
0.0147472
0.000350845
0.000993994
0.00182973
0.00312942
0.00504689
0.00764974
0.010869
0.0136332
0.014343
0.0139198
0.0137003
0.0147144
0.000277457
0.000843868
0.0017554
0.0033575
0.00582618
0.00906799
0.012667
0.0149923
0.0151278
0.0143116
0.0138545
0.01472
0.000113676
0.000445748
0.00139261
0.00372107
0.00785711
0.0127881
0.0159454
0.0168108
0.0161271
0.0146016
0.0139641
0.014868
9.04725e-05
0.00035019
0.00108703
0.00308934
0.00722504
0.012789
0.0159851
0.0169268
0.0168176
0.0162476
0.0160217
0.0171833
0.000224296
0.00069535
0.00150751
0.00302766
0.00552877
0.00901956
0.0127977
0.0152759
0.0158362
0.015279
0.0150768
0.0163904
0.000287893
0.00083631
0.00160713
0.00287327
0.00481987
0.00757493
0.0109669
0.0139584
0.0151215
0.0148619
0.0147947
0.0162129
0.000318546
0.000896
0.00162503
0.00274929
0.00443883
0.00686835
0.0100609
0.0132919
0.014804
0.014686
0.014724
0.0162789
0.000331848
0.000919206
0.00162134
0.00267121
0.00423839
0.00652238
0.00963247
0.0129957
0.0147068
0.0146542
0.0147523
0.0164153
0.00033655
0.000926552
0.00161603
0.0026341
0.0041512
0.00637734
0.00945726
0.0128863
0.0146937
0.0146672
0.0147912
0.0165072
0.000336542
0.000926528
0.00161598
0.00263402
0.00415107
0.00637714
0.009457
0.0128861
0.0146937
0.0146674
0.0147913
0.0165073
0.000331827
0.000919141
0.00162121
0.00267097
0.00423799
0.00652178
0.00963171
0.0129951
0.0147068
0.0146546
0.0147527
0.0164155
0.000318519
0.000895914
0.00162486
0.00274894
0.00443819
0.00686733
0.0100597
0.0132909
0.0148039
0.0146866
0.0147247
0.0162792
0.00028787
0.000836242
0.00160697
0.00287288
0.004819
0.00757345
0.0109651
0.0139573
0.0151214
0.0148626
0.0147955
0.0162132
0.000224288
0.00069535
0.00150751
0.00302739
0.00552768
0.00901744
0.0127955
0.0152751
0.0158363
0.0152801
0.0150779
0.0163907
9.0499e-05
0.000350366
0.00108752
0.00308971
0.00722368
0.0127863
0.0159838
0.0169267
0.0168182
0.0162491
0.0160234
0.0171836
5.85356e-05
0.000221349
0.000709693
0.00222895
0.00564846
0.0110611
0.0148418
0.0164769
0.0169365
0.0169689
0.0170525
0.017434
0.000175264
0.00055007
0.00122524
0.00254458
0.00480113
0.00810714
0.0119006
0.0148372
0.0159956
0.016144
0.0163488
0.0172325
0.000231544
0.000686036
0.00136038
0.0025094
0.00431747
0.00693141
0.010266
0.0136313
0.0153544
0.0157402
0.0160484
0.0171272
0.000259891
0.000745924
0.00139504
0.0024318
0.00401791
0.00632881
0.00944749
0.0129823
0.0150751
0.0156138
0.0160128
0.017184
0.000272736
0.000770392
0.00139943
0.00237288
0.00384952
0.00602335
0.00904968
0.0126714
0.0149891
0.0156222
0.0160797
0.0172854
0.000277449
0.000778589
0.00139743
0.00234278
0.00377353
0.00589163
0.00888108
0.0125432
0.0149749
0.0156559
0.0161403
0.0173502
0.000277441
0.000778567
0.00139738
0.0023427
0.00377338
0.00589139
0.00888073
0.0125429
0.0149748
0.0156559
0.0161404
0.0173501
0.000272717
0.00077033
0.0013993
0.00237264
0.00384909
0.00602264
0.00904867
0.0126703
0.0149887
0.0156223
0.0160799
0.0172852
0.000259866
0.000745843
0.00139487
0.00243144
0.00401722
0.00632763
0.00944581
0.0129807
0.0150745
0.015614
0.0160131
0.0171837
0.000231522
0.00068597
0.00136023
0.00250901
0.00431656
0.00692973
0.0102636
0.0136293
0.0153538
0.0157405
0.0160488
0.0171268
0.000175254
0.000550058
0.00122524
0.00254435
0.00480007
0.00810478
0.0118976
0.0148352
0.015995
0.0161443
0.0163491
0.0172321
5.85459e-05
0.000221443
0.000710027
0.00222932
0.00564751
0.0110576
0.0148395
0.0164759
0.0169363
0.0169691
0.0170527
0.0174337
4.42271e-05
0.000161947
0.000482215
0.00142501
0.00385868
0.00815375
0.0122814
0.0146068
0.015789
0.0162867
0.0164132
0.0160194
0.000133556
0.000422088
0.000951367
0.00200119
0.00384206
0.00663508
0.0100162
0.013243
0.0152508
0.0160747
0.0164343
0.0168384
0.000181486
0.000545861
0.00110539
0.00207933
0.00362869
0.00589251
0.00886796
0.0122416
0.0147472
0.0157991
0.0162977
0.0168597
0.000207255
0.000604651
0.00115601
0.00205518
0.00343839
0.00545376
0.00821996
0.0116187
0.0144538
0.0156859
0.0162642
0.0168734
0.000219532
0.000630279
0.00116978
0.00202137
0.0033167
0.0052136
0.00787978
0.011285
0.0143201
0.0156687
0.0162928
0.0169122
0.000224215
0.000639397
0.00117197
0.00200126
0.00325836
0.00510527
0.00772793
0.0111317
0.0142674
0.0156789
0.0163224
0.0169353
0.000224208
0.000639377
0.00117193
0.00200118
0.00325822
0.00510503
0.00772755
0.0111312
0.0142671
0.0156787
0.0163222
0.0169351
0.000219514
0.000630224
0.00116966
0.00202115
0.00331628
0.00521287
0.00787864
0.0112835
0.014319
0.0156682
0.0162924
0.0169116
0.000207233
0.00060458
0.00115585
0.00205485
0.00343773
0.00545257
0.00821812
0.0116164
0.0144523
0.0156851
0.0162637
0.0168726
0.000181467
0.000545803
0.00110525
0.00207899
0.00362786
0.00589088
0.00886546
0.0122386
0.0147454
0.0157984
0.0162971
0.0168588
0.000133546
0.000422073
0.000951361
0.00200103
0.0038412
0.00663292
0.010013
0.0132399
0.015249
0.0160739
0.0164337
0.0168375
4.42314e-05
0.000162006
0.00048243
0.00142533
0.00385808
0.0081507
0.0122781
0.0146045
0.0157875
0.0162858
0.0164125
0.0160183
2.77715e-05
9.77102e-05
0.00027888
0.000813515
0.00220972
0.00504708
0.00848101
0.0108199
0.0123334
0.0131373
0.0130422
0.0107894
9.82143e-05
0.000311395
0.000703983
0.00148404
0.00285804
0.00498261
0.00769722
0.0105761
0.0131349
0.0146242
0.0151783
0.0145663
0.000138186
0.00042036
0.00086228
0.00163942
0.00288063
0.00469083
0.00710854
0.010012
0.0128998
0.0146195
0.0152796
0.0149533
0.000160973
0.00047587
0.000923453
0.0016611
0.00279552
0.00442836
0.00666859
0.00951071
0.0125603
0.0144601
0.0151882
0.0148334
0.000172386
0.000501652
0.000945074
0.00165156
0.00272242
0.00426295
0.00641018
0.00920689
0.0123362
0.0143516
0.0151228
0.0146873
0.000176908
0.000511335
0.000951134
0.00164178
0.00268347
0.00418334
0.00628788
0.00905819
0.0122187
0.0142929
0.0150865
0.0145867
0.000176903
0.000511319
0.000951099
0.00164171
0.00268334
0.00418311
0.00628752
0.00905766
0.0122181
0.0142924
0.0150861
0.0145861
0.000172372
0.000501607
0.000944977
0.00165136
0.00272205
0.00426229
0.0064091
0.00920532
0.0123344
0.0143502
0.0151217
0.0146858
0.000160955
0.000475812
0.000923324
0.00166081
0.00279494
0.0044273
0.00666685
0.00950824
0.0125576
0.0144581
0.0151865
0.0148313
0.00013817
0.000420313
0.000862175
0.00163914
0.00287995
0.00468944
0.00710622
0.0100089
0.0128966
0.0146172
0.0152778
0.014951
9.8206e-05
0.00031138
0.000703982
0.00148395
0.00285748
0.00498099
0.00769438
0.0105725
0.0131315
0.0146216
0.0151763
0.014564
2.77726e-05
9.77374e-05
0.000279005
0.000813737
0.00220951
0.00504526
0.00847781
0.0108167
0.0123304
0.0131345
0.0130398
0.0107877
1.98781e-05
6.75654e-05
0.000179472
0.000456575
0.00116495
0.00269504
0.00487212
0.00656109
0.00761609
0.00813343
0.0076054
0.00553638
7.0273e-05
0.000223147
0.000502764
0.00104988
0.00201052
0.00349574
0.00544433
0.00759265
0.00968549
0.0109673
0.0114004
0.00960896
0.000102291
0.000313791
0.000647792
0.00123512
0.00217415
0.00352999
0.0053281
0.00749568
0.00980749
0.0113389
0.0119329
0.0103113
0.00012173
0.000363695
0.000712208
0.0012875
0.00216995
0.00341758
0.00509158
0.00718968
0.00953744
0.0111415
0.0117714
0.0101664
0.00013196
0.000388327
0.000738647
0.0012972
0.0021388
0.0033224
0.00492433
0.00697065
0.00931575
0.0109377
0.0115733
0.00996376
0.000136161
0.000398028
0.000747517
0.00129632
0.00211765
0.00327147
0.0048388
0.00685613
0.00919096
0.0108136
0.0114484
0.00983885
0.000136157
0.000398014
0.000747489
0.00129626
0.00211754
0.00327128
0.00483849
0.00685566
0.00919033
0.0108129
0.0114477
0.00983828
0.000131948
0.000388291
0.00073857
0.00129704
0.0021385
0.00332185
0.00492342
0.00696927
0.00931389
0.0109356
0.0115713
0.00996208
0.000121716
0.00036365
0.000712108
0.00128728
0.00216949
0.00341672
0.00509014
0.00718751
0.00953457
0.0111383
0.0117683
0.0101639
0.000102278
0.000313756
0.000647715
0.00123492
0.00217365
0.00352893
0.00532623
0.0074929
0.00980394
0.0113351
0.0119293
0.0103084
7.02667e-05
0.000223137
0.000502767
0.00104984
0.00201021
0.00349471
0.00544229
0.00758967
0.00968183
0.0109635
0.0113969
0.00960654
1.98779e-05
6.75777e-05
0.00017955
0.000456734
0.00116502
0.00269436
0.00487027
0.00655897
0.0076139
0.00813124
0.00760382
0.00553586
1.19886e-05
3.98266e-05
0.000102418
0.000253001
0.000599209
0.00132701
0.00247588
0.00350723
0.00411309
0.00436606
0.00383668
0.00253362
4.87159e-05
0.000154635
0.000346379
0.000713378
0.00135041
0.00233068
0.00362247
0.00504193
0.00637717
0.00710807
0.00709587
0.00557431
7.3701e-05
0.00022747
0.000470216
0.000893075
0.00156655
0.00253016
0.00377848
0.00523777
0.00672687
0.00758595
0.00771966
0.00620252
8.97435e-05
0.000270373
0.000531697
0.000960197
0.00161326
0.00252206
0.00369875
0.00511294
0.00661112
0.00749558
0.0076686
0.00619229
9.8583e-05
0.000292752
0.0005597
0.000982426
0.00161334
0.00248282
0.00361192
0.00498825
0.0064721
0.00735442
0.00753562
0.00609136
0.000102335
0.000301934
0.000570055
0.000987999
0.00160651
0.00245625
0.00356135
0.00491591
0.00638649
0.00726297
0.00744533
0.00601872
0.000102332
0.000301924
0.000570034
0.000987955
0.00160643
0.0024561
0.00356112
0.00491556
0.006386
0.00726242
0.00744477
0.00601832
9.85745e-05
0.000292725
0.000559642
0.000982306
0.00161311
0.0024824
0.00361122
0.0049872
0.00647066
0.0073528
0.00753401
0.00609021
8.97328e-05
0.00027034
0.000531624
0.000960038
0.00161293
0.00252142
0.00369767
0.0051113
0.00660891
0.0074931
0.00766617
0.0061906
7.36921e-05
0.000227445
0.000470164
0.000892944
0.00156621
0.00252942
0.00377714
0.00523573
0.00672416
0.00758295
0.00771682
0.00620063
4.87112e-05
0.000154628
0.000346385
0.00071338
0.00135027
0.0023301
0.00362118
0.00503991
0.00637455
0.00710521
0.00709336
0.00557283
1.1988e-05
3.9832e-05
0.000102462
0.000253105
0.000599287
0.00132679
0.00247505
0.00350616
0.00411194
0.0043649
0.003836
0.00253355
8.06832e-06
2.62112e-05
6.29909e-05
0.000139516
0.000304846
0.000636718
0.00115606
0.00167009
0.00198111
0.00208285
0.00171928
0.0010469
3.28697e-05
0.000104177
0.000231659
0.000468111
0.000870339
0.00148396
0.00228863
0.00316047
0.0038936
0.00426457
0.00403746
0.00299822
5.17918e-05
0.000160533
0.000331025
0.000622585
0.00108155
0.00173192
0.00255439
0.00347295
0.00430939
0.00474097
0.00458736
0.00350757
6.46328e-05
0.000195965
0.00038544
0.000691548
0.00115242
0.00178392
0.0025738
0.00347081
0.00431942
0.00475808
0.00463756
0.0035828
7.20176e-05
0.000215398
0.000412324
0.000719732
0.00117206
0.00178332
0.0025463
0.00342096
0.00426302
0.00469728
0.00459
0.0035609
7.52478e-05
0.000223663
0.000422942
0.000729101
0.0011752
0.00177496
0.00252333
0.00338444
0.00421931
0.00464925
0.00454717
0.00353291
7.52455e-05
0.000223656
0.000422927
0.000729069
0.00117514
0.00177486
0.00252316
0.00338419
0.00421898
0.00464887
0.00454681
0.00353266
7.20115e-05
0.000215379
0.000412283
0.000719648
0.00117189
0.00178301
0.00254579
0.00342021
0.00426204
0.00469618
0.00458897
0.00356019
6.46251e-05
0.000195941
0.00038539
0.00069144
0.00115219
0.00178347
0.00257305
0.00346968
0.00431793
0.00475641
0.00463602
0.00358177
5.17854e-05
0.000160515
0.000330992
0.000622507
0.00108134
0.00173144
0.00255351
0.00347158
0.00430762
0.004739
0.0045856
0.00350644
3.28663e-05
0.000104172
0.000231667
0.00046813
0.000870292
0.00148367
0.0022879
0.00315924
0.003892
0.00426282
0.00403601
0.0029974
8.06765e-06
2.62133e-05
6.30135e-05
0.000139577
0.000304922
0.000636686
0.00115577
0.00166967
0.00198064
0.00208236
0.00171906
0.00104693
4.61015e-06
1.48133e-05
3.59307e-05
7.67378e-05
0.000154487
0.000299112
0.00051766
0.000737973
0.000865916
0.000893035
0.000695633
0.000399528
2.15086e-05
6.80156e-05
0.000150281
0.000297396
0.000540447
0.000904196
0.00137503
0.00187769
0.00224322
0.00240387
0.00215245
0.00151255
3.55456e-05
0.000110497
0.000226728
0.000420183
0.000718629
0.00113467
0.00164861
0.0021973
0.00262654
0.00281999
0.00258771
0.00189311
4.5569e-05
0.000138811
0.000272214
0.000482794
0.000793913
0.00121194
0.00171843
0.00226168
0.00270314
0.00290219
0.00268886
0.00200128
5.15633e-05
0.000155053
0.000296229
0.000511802
0.000822777
0.00123362
0.00172812
0.00226087
0.00270162
0.00289959
0.00269706
0.00202321
5.42564e-05
0.000162182
0.000306199
0.00052266
0.000831611
0.00123704
0.00172396
0.00224956
0.0026876
0.00288394
0.00268663
0.00202171
5.42548e-05
0.000162176
0.000306188
0.000522639
0.000831571
0.00123697
0.00172385
0.00224938
0.00268738
0.0028837
0.00268641
0.00202156
5.1559e-05
0.000155039
0.000296202
0.000511746
0.000822666
0.00123341
0.00172779
0.00226037
0.00270099
0.0028989
0.00269644
0.00202278
4.55637e-05
0.000138795
0.000272182
0.000482726
0.000793767
0.00121166
0.00171794
0.00226095
0.0027022
0.00290115
0.00268794
0.00200067
3.55412e-05
0.000110485
0.000226708
0.000420141
0.000718512
0.00113439
0.00164807
0.00219645
0.00262546
0.00281881
0.0025867
0.00189247
2.15062e-05
6.80124e-05
0.000150289
0.00029742
0.000540451
0.000904078
0.00137466
0.00187701
0.00224233
0.0024029
0.00215168
0.00151213
4.60964e-06
1.48139e-05
3.59426e-05
7.67741e-05
0.000154541
0.00029914
0.000517594
0.000737846
0.000865776
0.00089289
0.000695592
0.000399563
2.80643e-06
8.80055e-06
2.05156e-05
4.16305e-05
7.83265e-05
0.000140315
0.000227306
0.000310949
0.000356876
0.000353675
0.000262768
0.000145832
1.36591e-05
4.30527e-05
9.4617e-05
0.000183201
0.000324245
0.000529296
0.000787567
0.00105429
0.00122035
0.00127045
0.00107682
0.000720005
2.38498e-05
7.42667e-05
0.000151476
0.000275604
0.000461607
0.00071471
0.00101797
0.00132571
0.00152843
0.00159621
0.00139302
0.000980875
3.15111e-05
9.62802e-05
0.000187852
0.000327979
0.000529589
0.000793818
0.00110277
0.00141485
0.00162754
0.00170055
0.00150337
0.00108393
3.62622e-05
0.000109431
0.000208161
0.000354523
0.000560146
0.00082464
0.00113085
0.00144023
0.00165471
0.00172873
0.00153723
0.00112095
3.8448e-05
0.000115365
0.000216936
0.000365207
0.000571227
0.000834154
0.00113742
0.00144393
0.00165799
0.00173198
0.00154379
0.00113102
3.84469e-05
0.000115362
0.000216929
0.000365193
0.000571201
0.000834107
0.00113735
0.00144382
0.00165786
0.00173183
0.00154366
0.00113094
3.62592e-05
0.000109422
0.000208143
0.000354488
0.000560077
0.000824513
0.00113064
0.00143992
0.00165432
0.00172831
0.00153687
0.00112071
3.15074e-05
9.62695e-05
0.000187832
0.000327938
0.000529504
0.000793647
0.00110247
0.0014144
0.00162698
0.00169994
0.00150285
0.0010836
2.38468e-05
7.4259e-05
0.000151465
0.000275583
0.000461549
0.000714562
0.00101767
0.00132523
0.00152782
0.00159555
0.00139248
0.00098055
1.36574e-05
4.30504e-05
9.46232e-05
0.000183224
0.00032427
0.000529269
0.000787418
0.00105396
0.00121991
0.00126996
0.00107646
0.000719824
2.80597e-06
8.80024e-06
2.05212e-05
4.16512e-05
7.83614e-05
0.000140349
0.000227313
0.000310927
0.000356842
0.000353665
0.000262777
0.000145856
1.50706e-06
4.74357e-06
1.11277e-05
2.19805e-05
3.94234e-05
6.61009e-05
0.0001002
0.000129386
0.000144084
0.000134941