/*--------------------------------*- C++ -*----------------------------------*\
| =========                 |                                                 |
| \\      /  F ield         | OpenFOAM: The Open Source CFD Toolbox           |
|  \\    /   O peration     | Version:  2.3.1                                 |
|   \\  /    A nd           | Web:      www.OpenFOAM.org                      |
|    \\/     M anipulation  |                                                 |
\*---------------------------------------------------------------------------*/
FoamFile
{
    version     2.0;
    format      ascii;
    class       volScalarField;
    location    "10";
    object      epsilon;
}
// * * * * * * * * * * * * * * * * * * * * * * * * * * * * * * * * * * * * * //

dimensions      [0 2 -3 0 0 0 0];

internalField   nonuniform List<scalar> 
38152
(
0.00223126
0.00156305
0.0011726
0.00111935
0.00103219
0.000889355
0.000924284
0.000993714
0.000900559
0.0003669
0.000101099
7.63334e-05
6.71938e-05
6.35312e-05
7.11112e-05
7.97172e-05
8.86285e-05
9.85706e-05
0.000107697
0.000127501
0.000175636
0.000204563
0.000202796
0.000195289
0.000212298
0.000230229
0.000212161
9.02547e-05
7.06218e-06
1.17812e-06
8.42572e-07
7.67882e-07
7.25787e-07
6.9857e-07
6.80321e-07
6.67711e-07
6.58756e-07
6.52227e-07
6.47339e-07
6.43543e-07
6.4034e-07
6.36713e-07
6.34908e-07
6.77571e-07
0.00233114
0.000764702
0.000293409
0.000305855
0.00037476
0.000450274
0.000425853
0.000320273
0.000229884
0.000135576
0.000122248
0.000111568
0.000107567
0.000111242
0.00011727
0.00013015
0.000155549
0.000189911
0.0002158
0.00023134
0.000246772
0.000264911
0.000267777
0.000252821
0.000264352
0.000301769
0.000247091
5.77327e-05
7.94413e-06
2.64911e-06
1.32472e-06
1.17976e-06
1.1349e-06
1.1083e-06
1.0903e-06
1.0775e-06
1.06814e-06
1.0611e-06
1.05559e-06
1.05061e-06
1.04298e-06
1.01883e-06
9.34461e-07
7.28771e-07
0.00190143
0.00065453
0.000102247
7.724e-05
8.93354e-05
9.93897e-05
0.000105118
0.000107307
0.000107119
0.000103326
0.000101863
0.000102276
0.000105769
0.000113465
0.000124337
0.000146827
0.000178434
0.000203819
0.000219603
0.000225647
0.000225086
0.000206742
0.000176312
0.000179997
0.000196917
0.000245639
0.000283261
0.000274112
0.000225457
0.000186761
5.84854e-05
5.457e-06
1.65068e-06
1.4027e-06
1.34531e-06
1.31569e-06
1.29763e-06
1.28572e-06
1.27734e-06
1.27091e-06
1.26427e-06
1.25055e-06
1.20433e-06
1.05691e-06
7.44236e-07
0.000243631
8.48485e-05
6.06482e-05
6.93513e-05
8.04049e-05
8.87042e-05
9.31898e-05
9.54697e-05
9.78433e-05
0.000100584
0.000104041
0.0001097
0.000120202
0.000136882
0.00015885
0.000179556
0.000191475
0.000199198
0.000198212
0.000192157
0.000182805
0.000142684
7.59275e-05
7.62654e-05
0.000129375
0.000218123
0.00025214
0.000252292
0.000223128
0.000107511
1.19781e-05
2.08616e-06
1.53225e-06
1.45179e-06
1.41489e-06
1.39274e-06
1.37806e-06
1.36775e-06
1.36014e-06
1.35397e-06
1.34693e-06
1.33114e-06
1.27891e-06
1.11728e-06
7.59152e-07
3.00224e-05
3.28194e-05
4.03187e-05
5.24327e-05
6.60138e-05
7.6765e-05
8.54027e-05
9.32608e-05
0.00010027
0.00010767
0.000115499
0.000126221
0.000141446
0.000159643
0.00017531
0.000182119
0.000178558
0.000153101
6.13149e-05
1.27283e-05
9.66535e-06
1.42213e-05
2.60559e-05
4.90389e-05
8.90865e-05
0.000129025
0.000129945
6.82948e-05
1.05493e-05
2.3023e-06
1.62425e-06
1.51835e-06
1.46838e-06
1.43743e-06
1.41703e-06
1.4031e-06
1.39332e-06
1.3862e-06
1.38052e-06
1.37438e-06
1.36225e-06
1.32691e-06
1.22667e-06
1.00877e-06
1.52465e-05
1.71185e-05
2.09527e-05
2.83071e-05
3.95285e-05
5.3803e-05
6.79137e-05
7.98109e-05
9.00758e-05
9.8684e-05
0.000106792
0.0001168
0.000129848
0.000143934
0.000148287
0.000139208
8.64187e-05
1.78261e-05
3.37932e-06
2.88814e-06
3.49894e-06
4.5846e-06
6.72692e-06
1.11156e-05
1.84605e-05
2.45402e-05
1.79794e-05
6.30298e-06
2.25765e-06
1.68931e-06
1.56236e-06
1.4979e-06
1.45831e-06
1.43315e-06
1.41659e-06
1.40523e-06
1.39713e-06
1.39112e-06
1.3863e-06
1.38129e-06
1.37271e-06
1.35105e-06
1.29848e-06
1.20633e-06
9.64545e-06
9.47258e-06
9.85919e-06
1.09938e-05
1.31442e-05
1.67083e-05
2.20802e-05
3.05556e-05
4.08593e-05
5.07105e-05
5.92124e-05
6.66829e-05
7.40427e-05
7.84646e-05
7.49935e-05
5.31143e-05
2.22863e-05
5.99882e-06
2.31669e-06
1.99074e-06
2.07412e-06
2.17497e-06
2.30627e-06
2.51111e-06
2.90768e-06
3.51326e-06
3.78274e-06
2.8441e-06
1.96333e-06
1.66252e-06
1.55927e-06
1.50131e-06
1.46391e-06
1.43872e-06
1.42123e-06
1.40874e-06
1.39973e-06
1.39317e-06
1.38825e-06
1.38424e-06
1.37983e-06
1.37171e-06
1.35039e-06
1.29821e-06
1.20677e-06
8.18214e-06
7.36077e-06
6.83464e-06
6.64364e-06
6.6211e-06
7.01825e-06
7.94074e-06
9.29423e-06
1.08709e-05
1.23643e-05
1.36285e-05
1.45409e-05
1.49041e-05
1.35012e-05
9.81114e-06
5.4376e-06
2.9271e-06
2.11729e-06
1.96977e-06
1.95356e-06
1.96008e-06
1.9625e-06
1.95502e-06
1.94071e-06
1.92589e-06
1.92086e-06
1.86912e-06
1.74373e-06
1.63306e-06
1.55785e-06
1.50386e-06
1.46474e-06
1.43693e-06
1.4173e-06
1.40348e-06
1.39372e-06
1.38678e-06
1.38173e-06
1.3779e-06
1.37458e-06
1.37013e-06
1.35937e-06
1.32482e-06
1.22599e-06
1.0071e-06
7.55066e-06
6.76519e-06
6.09895e-06
5.50507e-06
5.0004e-06
4.58962e-06
4.27925e-06
4.05808e-06
3.90017e-06
3.78348e-06
3.669e-06
3.5257e-06
3.3128e-06
2.95549e-06
2.50569e-06
2.14663e-06
1.96034e-06
1.87613e-06
1.8343e-06
1.81523e-06
1.80934e-06
1.80194e-06
1.78452e-06
1.75724e-06
1.72249e-06
1.68214e-06
1.63154e-06
1.57428e-06
1.5201e-06
1.47398e-06
1.4378e-06
1.41073e-06
1.39095e-06
1.37677e-06
1.36668e-06
1.35947e-06
6.98504e-06
6.30206e-06
5.73134e-06
5.20666e-06
4.73297e-06
4.30758e-06
3.93103e-06
3.60611e-06
3.3119e-06
3.04915e-06
2.8151e-06
2.60658e-06
2.42345e-06
2.25804e-06
2.11234e-06
1.99359e-06
1.90289e-06
1.83573e-06
1.78644e-06
1.74766e-06
1.71512e-06
1.68545e-06
1.65475e-06
1.62027e-06
1.58161e-06
1.5401e-06
1.49455e-06
1.44786e-06
1.40438e-06
1.36705e-06
1.33705e-06
1.31416e-06
1.29734e-06
1.28533e-06
1.2769e-06
5.74985e-06
5.26863e-06
4.81618e-06
4.41468e-06
4.05369e-06
3.7329e-06
3.44015e-06
3.16621e-06
2.91209e-06
2.67964e-06
2.46948e-06
2.28142e-06
2.11489e-06
1.96895e-06
1.84354e-06
1.73848e-06
1.65136e-06
1.58005e-06
1.52387e-06
1.48036e-06
1.44667e-06
1.41812e-06
1.39063e-06
1.36116e-06
1.32796e-06
1.29086e-06
1.25112e-06
1.21075e-06
1.17303e-06
1.14015e-06
1.11322e-06
1.09232e-06
1.07682e-06
1.06582e-06
1.05834e-06
3.4521e-06
3.21676e-06
2.96783e-06
2.74817e-06
2.54029e-06
2.34763e-06
2.16629e-06
1.99655e-06
1.84e-06
1.69638e-06
1.5661e-06
1.44891e-06
1.3445e-06
1.25241e-06
1.17242e-06
1.1043e-06
1.04769e-06
1.00162e-06
9.64559e-07
9.34423e-07
9.08081e-07
8.83407e-07
8.58936e-07
8.33824e-07
8.08039e-07
7.82141e-07
7.56266e-07
7.31798e-07
7.0953e-07
6.90374e-07
6.74776e-07
6.62658e-07
6.53608e-07
6.47097e-07
6.42649e-07
0.00111354
0.000809483
0.00072181
0.000690908
0.000653591
0.000689029
0.000773559
0.0007553
0.000552285
0.000155635
6.87229e-05
6.06032e-05
5.46224e-05
5.53787e-05
5.39318e-05
5.3935e-05
5.6836e-05
6.76672e-05
8.67681e-05
0.000112091
0.000141633
0.000159826
0.000157999
0.000158894
0.000166879
0.000164568
0.000126888
2.92103e-05
2.15343e-06
7.94789e-07
7.49665e-07
7.56398e-07
7.59801e-07
7.60168e-07
7.59492e-07
7.5851e-07
7.57513e-07
7.56576e-07
7.55696e-07
7.54744e-07
7.52995e-07
7.47087e-07
7.27294e-07
6.86993e-07
0.00209191
0.000862807
0.000634155
0.000701139
0.000764948
0.000807951
0.000766691
0.000541502
0.000253673
0.000124012
0.000101104
8.08425e-05
6.59014e-05
6.32781e-05
6.64344e-05
7.74791e-05
9.54029e-05
0.000120274
0.000146971
0.000155569
0.000151771
0.000156228
0.000174399
0.000175567
0.000177347
0.000245912
0.000244247
6.1107e-05
1.26121e-05
3.6183e-06
1.07524e-06
8.52232e-07
8.17241e-07
8.04568e-07
7.98066e-07
7.94257e-07
7.91875e-07
7.90306e-07
7.89211e-07
7.88314e-07
7.86957e-07
7.82279e-07
7.64936e-07
7.50765e-07
0.00143601
0.000476808
0.000130207
9.5376e-05
9.52931e-05
0.000104767
0.000113775
0.000118018
0.000104231
8.10194e-05
6.68619e-05
5.56429e-05
5.26851e-05
5.72434e-05
6.50945e-05
7.89097e-05
0.000100783
0.000123656
0.000143857
0.000160736
0.000163105
0.000147343
0.00014005
0.000151814
0.000178705
0.000191741
0.000199187
0.000192592
0.000161657
0.00015414
6.01719e-05
7.01438e-06
1.29126e-06
9.02603e-07
8.50069e-07
8.3282e-07
8.24987e-07
8.20761e-07
8.18202e-07
8.16518e-07
8.15253e-07
8.13666e-07
8.08763e-07
7.91426e-07
7.84039e-07
0.000184381
7.93777e-05
5.09429e-05
4.52081e-05
4.4939e-05
4.61976e-05
4.779e-05
4.96574e-05
5.10193e-05
5.14756e-05
5.30365e-05
5.63809e-05
6.33931e-05
7.43315e-05
9.10287e-05
0.000116698
0.000138705
0.000155212
0.000159732
0.000139432
0.000115562
9.27259e-05
8.43269e-05
0.00011484
0.000169325
0.000188201
0.000192113
0.000199111
0.000192379
9.61873e-05
1.42478e-05
1.96978e-06
9.87971e-07
8.79489e-07
8.50483e-07
8.38313e-07
8.31892e-07
8.28035e-07
8.25524e-07
8.23804e-07
8.22525e-07
8.21101e-07
8.17189e-07
8.05769e-07
8.51907e-07
3.76242e-05
3.84994e-05
4.14562e-05
4.43889e-05
4.68011e-05
4.94688e-05
5.25474e-05
5.63745e-05
6.16047e-05
6.88444e-05
7.8514e-05
9.04701e-05
0.000105531
0.000125142
0.000148388
0.000175335
0.000174642
0.000103837
2.56543e-05
1.13741e-05
1.36906e-05
2.04664e-05
3.55046e-05
6.25145e-05
9.89652e-05
0.000124517
0.000121252
6.67255e-05
1.28863e-05
2.25508e-06
1.0685e-06
9.1394e-07
8.68859e-07
8.48894e-07
8.38523e-07
8.32605e-07
8.28956e-07
8.26565e-07
8.24934e-07
8.23761e-07
8.22706e-07
8.20405e-07
8.1215e-07
7.91286e-07
1.54335e-05
1.85599e-05
2.36989e-05
3.12043e-05
4.00829e-05
4.91421e-05
5.81517e-05
6.75295e-05
7.7747e-05
8.90022e-05
0.000100227
0.000111423
0.000123766
0.000135057
0.000133042
9.61408e-05
3.42967e-05
6.84813e-06
3.12568e-06
2.92055e-06
3.50127e-06
4.87882e-06
7.76099e-06
1.33605e-05
2.1936e-05
2.82248e-05
2.14632e-05
7.98986e-06
2.05108e-06
1.11399e-06
9.44598e-07
8.84964e-07
8.5745e-07
8.43529e-07
8.35818e-07
8.31172e-07
8.28177e-07
8.26138e-07
8.24712e-07
8.23684e-07
8.22908e-07
8.21777e-07
8.18289e-07
8.09037e-07
3.83065e-06
3.98411e-06
4.43581e-06
5.40311e-06
7.3545e-06
1.10684e-05
1.70525e-05
2.44342e-05
3.19631e-05
3.94278e-05
4.64564e-05
5.22128e-05
5.5867e-05
5.41671e-05
4.3168e-05
2.34945e-05
8.72962e-06
3.05161e-06
1.67807e-06
1.46532e-06
1.48762e-06
1.608e-06
1.83029e-06
2.22698e-06
2.93884e-06
3.95888e-06
4.44665e-06
3.02612e-06
1.57847e-06
1.09128e-06
9.53173e-07
8.93711e-07
8.63953e-07
8.4802e-07
8.38872e-07
8.33276e-07
8.29667e-07
8.27232e-07
8.25525e-07
8.24306e-07
8.2341e-07
8.22726e-07
8.21663e-07
8.18234e-07
8.09082e-07
2.46313e-06
2.30685e-06
2.2463e-06
2.23811e-06
2.34855e-06
2.68411e-06
3.35717e-06
4.32631e-06
5.33583e-06
6.29203e-06
7.13214e-06
7.6293e-06
7.76148e-06
6.85248e-06
4.85227e-06
2.78254e-06
1.67295e-06
1.26332e-06
1.13385e-06
1.08778e-06
1.076e-06
1.08549e-06
1.11409e-06
1.16087e-06
1.22828e-06
1.30908e-06
1.30235e-06
1.14598e-06
1.00965e-06
9.35686e-07
8.92623e-07
8.66672e-07
8.50868e-07
8.41091e-07
8.34895e-07
8.30847e-07
8.28103e-07
8.26177e-07
8.24784e-07
8.23763e-07
8.22974e-07
8.22198e-07
8.20079e-07
8.12005e-07
7.90789e-07
2.09175e-06
1.9304e-06
1.80766e-06
1.70116e-06
1.62022e-06
1.57255e-06
1.56e-06
1.57324e-06
1.61278e-06
1.67268e-06
1.71319e-06
1.7272e-06
1.69018e-06
1.55641e-06
1.35205e-06
1.17446e-06
1.06849e-06
1.00999e-06
9.75672e-07
9.57805e-07
9.52523e-07
9.53314e-07
9.56507e-07
9.62036e-07
9.69699e-07
9.76171e-07
9.67462e-07
9.41969e-07
9.12377e-07
8.85739e-07
8.65198e-07
8.50771e-07
8.41106e-07
8.34728e-07
8.30454e-07
8.27537e-07
1.86285e-06
1.72204e-06
1.62443e-06
1.53071e-06
1.45301e-06
1.38446e-06
1.32567e-06
1.27407e-06
1.22816e-06
1.18832e-06
1.15301e-06
1.12102e-06
1.09328e-06
1.06021e-06
1.02091e-06
9.83178e-07
9.52222e-07
9.29663e-07
9.15176e-07
9.05562e-07
8.98938e-07
8.94809e-07
8.92804e-07
8.92336e-07
8.929e-07
8.93155e-07
8.88896e-07
8.78956e-07
8.65967e-07
8.5299e-07
8.4207e-07
8.33765e-07
8.27794e-07
8.2363e-07
8.2074e-07
1.63472e-06
1.52818e-06
1.46055e-06
1.38916e-06
1.32956e-06
1.27369e-06
1.22191e-06
1.17411e-06
1.12972e-06
1.08913e-06
1.05238e-06
1.01937e-06
9.89679e-07
9.62361e-07
9.37043e-07
9.14416e-07
8.9532e-07
8.80158e-07
8.68849e-07
8.60829e-07
8.54972e-07
8.50039e-07
8.45611e-07
8.4176e-07
8.38694e-07
8.36116e-07
8.32357e-07
8.26476e-07
8.19175e-07
8.11746e-07
8.05267e-07
8.00188e-07
7.96448e-07
7.93778e-07
7.91906e-07
2.32214e-06
2.17662e-06
2.04157e-06
1.91914e-06
1.80545e-06
1.6997e-06
1.60055e-06
1.50904e-06
1.42458e-06
1.3474e-06
1.27746e-06
1.21458e-06
1.15822e-06
1.108e-06
1.06366e-06
1.02512e-06
9.92263e-07
9.65085e-07
9.43341e-07
9.26129e-07
9.11664e-07
8.98213e-07
8.85192e-07
8.72339e-07
8.59816e-07
8.47141e-07
8.33216e-07
8.1848e-07
8.04321e-07
7.91692e-07
7.81138e-07
7.72802e-07
7.66518e-07
7.61985e-07
7.58889e-07
0.000788413
0.000764916
0.000789992
0.000816766
0.000838999
0.000867982
0.000853331
0.000770606
0.000449988
0.000125578
8.21768e-05
7.69784e-05
6.87317e-05
6.45941e-05
5.27037e-05
4.74337e-05
5.15426e-05
6.92637e-05
9.62512e-05
0.000121221
0.000147296
0.000172109
0.000179638
0.000179621
0.000177168
0.000161021
9.35886e-05
9.69587e-06
1.39345e-06
1.00431e-06
9.73711e-07
9.64823e-07
9.57367e-07
9.5133e-07
9.46678e-07
9.4314e-07
9.40435e-07
9.38324e-07
9.36586e-07
9.34778e-07
9.31119e-07
9.18201e-07
8.74195e-07
7.6947e-07
0.00122645
0.00079588
0.000769875
0.000805293
0.000847853
0.000820019
0.000652244
0.000413874
0.000198458
0.000120228
0.000107334
8.17861e-05
5.86514e-05
5.32338e-05
5.60378e-05
6.65013e-05
7.97182e-05
9.43279e-05
0.000111255
0.00012519
0.000132628
0.000146769
0.000163186
0.000172771
0.000199745
0.000304894
0.000226508
4.35578e-05
1.238e-05
2.76956e-06
9.76291e-07
8.11008e-07
7.79573e-07
7.67566e-07
7.61241e-07
7.57507e-07
7.55188e-07
7.53697e-07
7.52724e-07
7.5217e-07
7.52288e-07
7.54238e-07
7.62999e-07
8.67909e-07
0.000592592
0.000251168
0.000140126
0.00011431
0.000111196
0.000116002
0.0001182
0.000112942
0.000100203
8.16068e-05
6.50061e-05
4.43802e-05
3.1882e-05
3.19746e-05
3.86304e-05
4.95603e-05
6.29845e-05
7.46993e-05
8.38435e-05
9.37963e-05
0.000104404
0.000116754
0.00014206
0.000179727
0.00020661
0.000209317
0.00021529
0.000197413
0.000195438
0.000167202
4.28206e-05
4.53374e-06
1.03679e-06
7.78334e-07
7.35523e-07
7.2151e-07
7.1548e-07
7.12419e-07
7.10689e-07
7.09732e-07
7.09679e-07
7.11981e-07
7.21524e-07
7.5304e-07
9.2811e-07
8.36676e-05
4.9711e-05
3.67135e-05
3.35448e-05
3.413e-05
3.61431e-05
3.79553e-05
3.89699e-05
3.83774e-05
3.51284e-05
3.24626e-05
3.38184e-05
3.91864e-05
4.7243e-05
5.81165e-05
7.16252e-05
8.21151e-05
8.2089e-05
6.9126e-05
5.42726e-05
5.18928e-05
5.90311e-05
8.70247e-05
0.000137226
0.000181139
0.000200449
0.000210777
0.000219733
0.00019357
6.96183e-05
9.4491e-06
1.50739e-06
8.27698e-07
7.35102e-07
7.0996e-07
7.00082e-07
6.95289e-07
6.92627e-07
6.91037e-07
6.9019e-07
6.90439e-07
6.93771e-07
7.06652e-07
7.52357e-07
1.05841e-06
2.45557e-05
2.47442e-05
2.5549e-05
2.67347e-05
2.79965e-05
2.97702e-05
3.17904e-05
3.44463e-05
3.84051e-05
4.50316e-05
5.45443e-05
6.60985e-05
7.84644e-05
9.23386e-05
0.00010114
9.47053e-05
6.76258e-05
2.51733e-05
1.06211e-05
1.00531e-05
1.37481e-05
2.22207e-05
3.94059e-05
6.96507e-05
0.000106936
0.00012751
0.000111638
4.89319e-05
9.02978e-06
1.73184e-06
8.83949e-07
7.5296e-07
7.1434e-07
6.98315e-07
6.9057e-07
6.86433e-07
6.84043e-07
6.82595e-07
6.81824e-07
6.82028e-07
6.8475e-07
6.94129e-07
7.18679e-07
7.77787e-07
8.08834e-06
8.96462e-06
1.05671e-05
1.31663e-05
1.68308e-05
2.12508e-05
2.60623e-05
3.13928e-05
3.79183e-05
4.64565e-05
5.65411e-05
6.62732e-05
7.08141e-05
6.65928e-05
4.87209e-05
2.32602e-05
8.18006e-06
3.56288e-06
2.92013e-06
3.19489e-06
3.99394e-06
5.51088e-06
8.48302e-06
1.40932e-05
2.19228e-05
2.61148e-05
1.76877e-05
5.77453e-06
1.63571e-06
9.34045e-07
7.81767e-07
7.27149e-07
7.03184e-07
6.91785e-07
6.85945e-07
6.82701e-07
6.80759e-07
6.79543e-07
6.78872e-07
6.78979e-07
6.80967e-07
6.87393e-07
7.01695e-07
7.23795e-07
2.95761e-06
2.92036e-06
2.99297e-06
3.21449e-06
3.64388e-06
4.34297e-06
5.36399e-06
6.68149e-06
8.36736e-06
1.01163e-05
1.18395e-05
1.31637e-05
1.37501e-05
1.29678e-05
9.78943e-06
5.46244e-06
2.8379e-06
1.75825e-06
1.42548e-06
1.37224e-06
1.43858e-06
1.5881e-06
1.83475e-06
2.2358e-06
2.88568e-06
3.7213e-06
3.88207e-06
2.46578e-06
1.3047e-06
9.16913e-07
7.89195e-07
7.34204e-07
7.08105e-07
6.95034e-07
6.88071e-07
6.84112e-07
6.81717e-07
6.80191e-07
6.79198e-07
6.78654e-07
6.78837e-07
6.80876e-07
6.8733e-07
7.01626e-07
7.23602e-07
1.97393e-06
1.85991e-06
1.7998e-06
1.77805e-06
1.78884e-06
1.85598e-06
1.96909e-06
2.10789e-06
2.25045e-06
2.40008e-06
2.5346e-06
2.60788e-06
2.60394e-06
2.36801e-06
1.90283e-06
1.43155e-06
1.14478e-06
1.0098e-06
9.53378e-07
9.33095e-07
9.33999e-07
9.53661e-07
9.90031e-07
1.04108e-06
1.10297e-06
1.16215e-06
1.1229e-06
9.70153e-07
8.47116e-07
7.77254e-07
7.3698e-07
7.13773e-07
7.00417e-07
6.92638e-07
6.88013e-07
6.85196e-07
6.83422e-07
6.82257e-07
6.81488e-07
6.81114e-07
6.81561e-07
6.84449e-07
6.9391e-07
7.18327e-07
7.75878e-07
1.59526e-06
1.48976e-06
1.41326e-06
1.34885e-06
1.29979e-06
1.26156e-06
1.23196e-06
1.20749e-06
1.18594e-06
1.16828e-06
1.15082e-06
1.1306e-06
1.09945e-06
1.04396e-06
9.70171e-07
9.01779e-07
8.52885e-07
8.21273e-07
8.02674e-07
7.94762e-07
7.954e-07
8.00575e-07
8.07609e-07
8.15866e-07
8.23957e-07
8.27799e-07
8.16247e-07
7.90773e-07
7.62971e-07
7.38749e-07
7.20813e-07
7.08748e-07
7.01076e-07
6.96387e-07
6.93533e-07
6.91743e-07
1.40416e-06
1.31009e-06
1.24685e-06
1.18858e-06
1.14108e-06
1.098e-06
1.05895e-06
1.02214e-06
9.87531e-07
9.56012e-07
9.27912e-07
9.02972e-07
8.79891e-07
8.5597e-07
8.30866e-07
8.07072e-07
7.87348e-07
7.73212e-07
7.64797e-07
7.60776e-07
7.59406e-07
7.59778e-07
7.61321e-07
7.63514e-07
7.65689e-07
7.66399e-07
7.62839e-07
7.54551e-07
7.43785e-07
7.33192e-07
7.24579e-07
7.18561e-07
7.14687e-07
7.12242e-07
7.10699e-07
1.3724e-06
1.28616e-06
1.23394e-06
1.18084e-06
1.13658e-06
1.0943e-06
1.05514e-06
1.01878e-06
9.84811e-07
9.53635e-07
9.2543e-07
9.00262e-07
8.77773e-07
8.573e-07
8.38719e-07
8.22711e-07
8.09993e-07
8.00747e-07
7.94699e-07
7.91356e-07
7.89398e-07
7.87176e-07
7.84594e-07
7.82216e-07
7.80708e-07
7.79377e-07
7.76989e-07
7.72967e-07
7.67879e-07
7.6286e-07
7.58787e-07
7.55808e-07
7.53821e-07
7.52587e-07
7.51852e-07
2.72219e-06
2.55949e-06
2.41014e-06
2.27409e-06
2.14702e-06
2.02783e-06
1.91566e-06
1.81192e-06
1.71566e-06
1.62755e-06
1.54751e-06
1.47532e-06
1.41036e-06
1.35224e-06
1.30066e-06
1.25556e-06
1.21693e-06
1.18475e-06
1.1591e-06
1.13975e-06
1.12469e-06
1.11108e-06
1.09814e-06
1.08553e-06
1.07337e-06
1.06001e-06
1.04441e-06
1.02712e-06
1.00946e-06
9.92819e-07
9.78255e-07
9.66275e-07
9.56894e-07
9.49851e-07
9.44788e-07
0.000728579
0.000788158
0.000885793
0.000935724
0.000943062
0.000915722
0.000812844
0.000603415
0.000239661
0.000101747
8.86601e-05
8.61067e-05
7.64458e-05
7.01827e-05
5.30753e-05
3.85311e-05
4.05257e-05
5.31027e-05
7.91481e-05
0.000104677
0.000134962
0.000166017
0.000171642
0.000168033
0.000154891
0.000117896
3.03972e-05
2.95318e-06
1.25361e-06
1.12133e-06
1.08838e-06
1.0711e-06
1.05926e-06
1.05089e-06
1.04488e-06
1.04049e-06
1.03724e-06
1.03474e-06
1.03267e-06
1.03028e-06
1.02466e-06
1.00442e-06
9.38468e-07
7.93035e-07
0.00088031
0.000803791
0.000811132
0.000839985
0.000842346
0.00068611
0.000437483
0.000256554
0.000141067
0.000112006
0.000112688
9.46182e-05
5.82637e-05
4.59586e-05
4.35441e-05
4.83891e-05
5.94912e-05
7.33085e-05
9.15637e-05
0.000112184
0.000129227
0.000151285
0.000170598
0.000182083
0.000237132
0.000295892
0.000154723
2.80733e-05
7.9196e-06
1.68278e-06
8.9761e-07
7.9323e-07
7.64753e-07
7.51918e-07
7.44743e-07
7.40389e-07
7.3764e-07
7.35861e-07
7.34733e-07
7.34295e-07
7.3544e-07
7.4168e-07
7.65023e-07
9.20775e-07
0.000307984
0.000190513
0.00014511
0.000125613
0.000120839
0.0001199
0.000113679
0.000103448
9.32245e-05
8.34605e-05
6.86869e-05
4.39298e-05
2.57581e-05
2.0204e-05
2.15111e-05
2.50609e-05
3.00618e-05
3.61833e-05
4.49797e-05
5.83238e-05
7.82117e-05
0.00010734
0.000146727
0.000191309
0.000211276
0.000218214
0.000225612
0.000219828
0.000223408
0.000132549
1.85403e-05
2.21095e-06
8.61328e-07
7.1211e-07
6.76525e-07
6.63619e-07
6.57849e-07
6.54883e-07
6.53229e-07
6.52456e-07
6.53084e-07
6.57985e-07
6.76352e-07
7.35456e-07
1.00527e-06
4.98244e-05
3.62514e-05
3.03885e-05
2.85961e-05
2.99079e-05
3.28453e-05
3.49102e-05
3.55641e-05
3.391e-05
2.87634e-05
2.17265e-05
1.76819e-05
1.72328e-05
1.88898e-05
2.12988e-05
2.37365e-05
2.49212e-05
2.41133e-05
2.25467e-05
2.38466e-05
3.01935e-05
4.60685e-05
8.1002e-05
0.000132926
0.000181539
0.000206603
0.000223519
0.000223606
0.000158475
3.41981e-05
4.45223e-06
1.10595e-06
7.30502e-07
6.57893e-07
6.35304e-07
6.2602e-07
6.21493e-07
6.19014e-07
6.17598e-07
6.1706e-07
6.18225e-07
6.2469e-07
6.47657e-07
7.26131e-07
1.18607e-06
1.31978e-05
1.29687e-05
1.33788e-05
1.43032e-05
1.53634e-05
1.62231e-05
1.66409e-05
1.67951e-05
1.6777e-05
1.74346e-05
1.91639e-05
2.16946e-05
2.42407e-05
2.59835e-05
2.58506e-05
2.31606e-05
1.59152e-05
8.89629e-06
7.05184e-06
8.48197e-06
1.25585e-05
2.10257e-05
3.7332e-05
6.51076e-05
9.67177e-05
0.000110183
7.88059e-05
2.37619e-05
4.57502e-06
1.24463e-06
7.6859e-07
6.66518e-07
6.31992e-07
6.17169e-07
6.09984e-07
6.06185e-07
6.04036e-07
6.02804e-07
6.02366e-07
6.03446e-07
6.08856e-07
6.25807e-07
6.69752e-07
7.75436e-07
5.33913e-06
5.375e-06
5.6497e-06
6.1837e-06
6.94986e-06
7.82691e-06
8.69485e-06
9.54977e-06
1.05265e-05
1.1821e-05
1.34801e-05
1.52282e-05
1.64337e-05
1.5222e-05
1.09983e-05
6.38685e-06
3.68523e-06
2.78175e-06
2.66175e-06
3.00198e-06
3.76598e-06
5.10919e-06
7.46156e-06
1.16127e-05
1.69652e-05
1.83321e-05
1.01866e-05
3.26766e-06
1.24023e-06
8.15057e-07
6.90881e-07
6.41547e-07
6.19343e-07
6.08711e-07
6.03296e-07
6.00343e-07
5.98625e-07
5.97619e-07
5.97261e-07
5.98142e-07
6.02329e-07
6.1433e-07
6.40475e-07
6.82282e-07
2.77581e-06
2.67157e-06
2.62928e-06
2.65081e-06
2.74366e-06
2.88016e-06
3.03976e-06
3.19489e-06
3.34178e-06
3.46796e-06
3.61582e-06
3.80381e-06
3.93239e-06
3.75979e-06
3.09785e-06
2.26534e-06
1.7018e-06
1.41011e-06
1.29503e-06
1.28611e-06
1.35211e-06
1.47968e-06
1.67759e-06
1.96889e-06
2.377e-06
2.84448e-06
2.70036e-06
1.72271e-06
1.06096e-06
8.03794e-07
6.97348e-07
6.4784e-07
6.23749e-07
6.11592e-07
6.05149e-07
6.01537e-07
5.99402e-07
5.98085e-07
5.97293e-07
5.97056e-07
5.98011e-07
6.02246e-07
6.14269e-07
6.40384e-07
6.81978e-07
1.92736e-06
1.81434e-06
1.7367e-06
1.68458e-06
1.65271e-06
1.63632e-06
1.62482e-06
1.60857e-06
1.5846e-06
1.55891e-06
1.53539e-06
1.51262e-06
1.47349e-06
1.37969e-06
1.23149e-06
1.07766e-06
9.64571e-07
8.9774e-07
8.64891e-07
8.53334e-07
8.58778e-07
8.79371e-07
9.1121e-07
9.50479e-07
9.90502e-07
1.01701e-06
9.63619e-07
8.46893e-07
7.51576e-07
6.90246e-07
6.53024e-07
6.31279e-07
6.18719e-07
6.1143e-07
6.0719e-07
6.04703e-07
6.0319e-07
6.02241e-07
6.01681e-07
6.01638e-07
6.02969e-07
6.08546e-07
6.25565e-07
6.69271e-07
7.72751e-07
1.5382e-06
1.43833e-06
1.36467e-06
1.30188e-06
1.24948e-06
1.20113e-06
1.15503e-06
1.10926e-06
1.06426e-06
1.02243e-06
9.84457e-07
9.50236e-07
9.16568e-07
8.77727e-07
8.34334e-07
7.93277e-07
7.60489e-07
7.37493e-07
7.24206e-07
7.19442e-07
7.21569e-07
7.26925e-07
7.33288e-07
7.39795e-07
7.45117e-07
7.45457e-07
7.32511e-07
7.08701e-07
6.82949e-07
6.60441e-07
6.43645e-07
6.3233e-07
6.25344e-07
6.21266e-07
6.1888e-07
6.17439e-07
1.34687e-06
1.25764e-06
1.19572e-06
1.13965e-06
1.09224e-06
1.04789e-06
1.00618e-06
9.65486e-07
9.26318e-07
8.9003e-07
8.57634e-07
8.29461e-07
8.04452e-07
7.80741e-07
7.57788e-07
7.36796e-07
7.19628e-07
7.07489e-07
7.00556e-07
6.976e-07
6.97036e-07
6.97911e-07
6.9947e-07
7.0128e-07
7.02847e-07
7.02719e-07
6.98687e-07
6.90493e-07
6.80142e-07
6.7018e-07
6.62609e-07
6.57614e-07
6.54531e-07
6.5269e-07
6.51633e-07
1.37311e-06
1.28659e-06
1.23101e-06
1.17708e-06
1.13053e-06
1.08573e-06
1.04401e-06
1.00459e-06
9.67473e-07
9.33269e-07
9.02407e-07
8.7511e-07
8.51137e-07
8.30025e-07
8.11655e-07
7.9647e-07
7.84859e-07
7.76732e-07
7.71529e-07
7.68677e-07
7.67039e-07
7.64742e-07
7.61729e-07
7.5876e-07
7.56598e-07
7.54552e-07
7.51843e-07
7.4806e-07
7.43714e-07
7.39676e-07
7.36425e-07
7.34183e-07
7.32837e-07
7.32143e-07
7.31849e-07
2.95557e-06
2.78475e-06
2.62773e-06
2.48411e-06
2.34852e-06
2.22034e-06
2.09991e-06
1.9876e-06
1.88332e-06
1.78766e-06
1.70066e-06
1.62221e-06
1.55164e-06
1.48858e-06
1.43262e-06
1.38375e-06
1.34196e-06
1.30716e-06
1.2792e-06
1.25832e-06
1.24285e-06
1.22924e-06
1.21647e-06
1.20412e-06
1.19196e-06
1.17772e-06
1.16058e-06
1.14119e-06
1.12104e-06
1.10182e-06
1.0848e-06
1.07064e-06
1.05942e-06
1.0509e-06
1.04466e-06
0.000695291
0.000808531
0.000922306
0.000965786
0.000950887
0.000857312
0.000596905
0.000334629
0.000140204
9.21178e-05
9.02758e-05
9.13227e-05
8.47447e-05
7.76736e-05
5.6884e-05
3.06307e-05
2.93941e-05
3.60922e-05
5.59376e-05
7.95504e-05
0.000108752
0.000130537
0.000132638
0.000129308
0.000106101
4.69338e-05
6.86465e-06
1.63057e-06
1.25965e-06
1.18604e-06
1.1516e-06
1.13065e-06
1.11689e-06
1.10745e-06
1.10081e-06
1.09603e-06
1.09251e-06
1.08982e-06
1.08754e-06
1.08465e-06
1.07716e-06
1.0506e-06
9.6828e-07
7.99637e-07
0.000799665
0.000793348
0.00081607
0.000846114
0.000785682
0.000527099
0.000289353
0.000170522
0.000115111
0.000100955
0.000109289
0.000103506
6.64517e-05
4.45462e-05
3.35887e-05
3.3851e-05
4.2298e-05
5.65026e-05
7.60159e-05
9.97492e-05
0.000126397
0.000154881
0.000168474
0.000189687
0.00024285
0.000229972
7.56552e-05
1.34255e-05
3.35745e-06
1.16557e-06
8.48204e-07
7.78323e-07
7.5291e-07
7.40002e-07
7.32485e-07
7.27839e-07
7.24869e-07
7.22938e-07
7.21747e-07
7.21472e-07
7.23505e-07
7.32804e-07
7.64861e-07
9.45406e-07
0.000225512
0.000173961
0.000146972
0.000133272
0.000127019
0.00012048
0.000108387
9.43454e-05
8.54849e-05
8.02493e-05
7.0024e-05
4.8675e-05
2.7069e-05
1.70387e-05
1.49841e-05
1.53004e-05
1.72761e-05
2.11582e-05
2.78486e-05
3.93834e-05
5.94275e-05
9.30157e-05
0.000139098
0.000181939
0.00020628
0.000223716
0.00023042
0.000228186
0.000190884
5.05712e-05
6.07221e-06
1.27276e-06
7.60368e-07
6.6601e-07
6.3707e-07
6.25541e-07
6.20134e-07
6.17284e-07
6.15702e-07
6.15099e-07
6.16328e-07
6.23293e-07
6.4779e-07
7.23999e-07
1.04769e-06
4.19702e-05
3.37062e-05
2.94675e-05
2.78242e-05
2.84827e-05
3.11951e-05
3.32473e-05
3.33316e-05
3.18014e-05
2.70797e-05
1.91626e-05
1.33185e-05
1.06985e-05
1.02401e-05
1.05055e-05
1.06663e-05
1.07198e-05
1.10866e-05
1.21733e-05
1.49186e-05
2.10731e-05
3.45334e-05
6.56775e-05
0.000116186
0.000166141
0.000196901
0.000210346
0.000186498
7.33884e-05
1.22771e-05
2.16474e-06
8.74884e-07
6.60158e-07
6.0523e-07
5.8569e-07
5.77199e-07
5.72958e-07
5.70627e-07
5.69344e-07
5.6907e-07
5.71036e-07
5.79978e-07
6.09945e-07
7.0901e-07
1.26226e-06
9.9603e-06
9.70917e-06
9.84431e-06
1.03365e-05
1.09664e-05
1.13272e-05
1.13163e-05
1.08665e-05
9.80092e-06
8.77847e-06
8.33792e-06
8.39155e-06
8.68426e-06
8.92582e-06
8.81918e-06
8.16274e-06
6.6692e-06
5.54456e-06
5.60546e-06
6.85205e-06
9.8662e-06
1.62787e-05
2.80565e-05
4.6772e-05
6.54589e-05
6.66556e-05
3.57619e-05
9.86838e-06
2.32104e-06
9.57234e-07
6.83582e-07
6.05952e-07
5.76306e-07
5.62967e-07
5.5637e-07
5.5286e-07
5.50887e-07
5.49817e-07
5.49673e-07
5.51574e-07
5.59312e-07
5.82084e-07
6.39259e-07
7.73466e-07
4.68358e-06
4.53342e-06
4.48562e-06
4.54734e-06
4.66908e-06
4.77464e-06
4.82768e-06
4.79237e-06
4.72823e-06
4.71756e-06
4.83489e-06
4.98861e-06
5.05552e-06
4.79516e-06
4.01244e-06
3.11145e-06
2.49679e-06
2.23755e-06
2.26883e-06
2.5685e-06
3.14021e-06
4.06644e-06
5.49911e-06
7.61197e-06
1.00515e-05
9.41135e-06
4.81124e-06
1.89927e-06
9.84164e-07
7.21507e-07
6.24443e-07
5.82303e-07
5.62598e-07
5.52951e-07
5.47981e-07
5.45269e-07
5.43714e-07
5.42868e-07
5.42802e-07
5.44468e-07
5.50777e-07
5.6769e-07
6.03311e-07
6.5929e-07
2.78622e-06
2.64242e-06
2.55632e-06
2.51408e-06
2.4959e-06
2.48114e-06
2.45437e-06
2.40946e-06
2.34738e-06
2.28038e-06
2.22221e-06
2.17071e-06
2.11162e-06
1.99272e-06
1.77851e-06
1.52721e-06
1.33046e-06
1.21528e-06
1.16719e-06
1.17241e-06
1.2232e-06
1.31553e-06
1.45016e-06
1.62732e-06
1.82709e-06
1.99298e-06
1.76806e-06
1.23736e-06
8.85175e-07
7.14503e-07
6.29971e-07
5.878e-07
5.66499e-07
5.55501e-07
5.49596e-07
5.46284e-07
5.44345e-07
5.43177e-07
5.4254e-07
5.42593e-07
5.44337e-07
5.50695e-07
5.6763e-07
6.03213e-07
6.58942e-07
1.95768e-06
1.83513e-06
1.74427e-06
1.67501e-06
1.61931e-06
1.56471e-06
1.50804e-06
1.4449e-06
1.37538e-06
1.3068e-06
1.24488e-06
1.1909e-06
1.13895e-06
1.07584e-06
9.98936e-07
9.21014e-07
8.57602e-07
8.15708e-07
7.94015e-07
7.87387e-07
7.94554e-07
8.12155e-07
8.35845e-07
8.61381e-07
8.82008e-07
8.84694e-07
8.34041e-07
7.50976e-07
6.78744e-07
6.27485e-07
5.94911e-07
5.75388e-07
5.63899e-07
5.57202e-07
5.5337e-07
5.51154e-07
5.49835e-07
5.4904e-07
5.48643e-07
5.48901e-07
5.51071e-07
5.58985e-07
5.8183e-07
6.38732e-07
7.70506e-07
1.55159e-06
1.44955e-06
1.37272e-06
1.30632e-06
1.24779e-06
1.19046e-06
1.13209e-06
1.07347e-06
1.0156e-06
9.61262e-07
9.12258e-07
8.69522e-07
8.31674e-07
7.95356e-07
7.59784e-07
7.27356e-07
7.01125e-07
6.82623e-07
6.72269e-07
6.68882e-07
6.70847e-07
6.75203e-07
6.79978e-07
6.84196e-07
6.86862e-07
6.84297e-07
6.71311e-07
6.50085e-07
6.27193e-07
6.06952e-07
5.91721e-07
5.81475e-07
5.75307e-07
5.71768e-07
5.69726e-07
5.68535e-07
1.35003e-06
1.25991e-06
1.19613e-06
1.13859e-06
1.08827e-06
1.04011e-06
9.9343e-07
9.47416e-07
9.02855e-07
8.61286e-07
8.2396e-07
7.91523e-07
7.63345e-07
7.38027e-07
7.14965e-07
6.948e-07
6.78738e-07
6.67476e-07
6.60954e-07
6.58065e-07
6.57417e-07
6.57934e-07
6.58915e-07
6.59947e-07
6.60645e-07
6.59543e-07
6.55023e-07
6.46974e-07
6.37269e-07
6.2847e-07
6.21967e-07
6.17782e-07
6.15236e-07
6.13806e-07
6.13063e-07
1.40277e-06
1.31049e-06
1.25186e-06
1.19523e-06
1.14476e-06
1.0961e-06
1.05083e-06
1.00756e-06
9.66869e-07
9.29331e-07
8.9547e-07
8.65605e-07
8.3962e-07
8.17178e-07
7.98167e-07
7.82836e-07
7.713e-07
7.63263e-07
7.58003e-07
7.5469e-07
7.52632e-07
7.49945e-07
7.46506e-07
7.43118e-07
7.40364e-07
7.37724e-07
7.34721e-07
7.31105e-07
7.27265e-07
7.2371e-07
7.2096e-07
7.19165e-07
7.18193e-07
7.17801e-07
7.17747e-07
3.08227e-06
2.91246e-06
2.75163e-06
2.60448e-06