/*--------------------------------*- C++ -*----------------------------------*\
| =========                 |                                                 |
| \\      /  F ield         | OpenFOAM: The Open Source CFD Toolbox           |
|  \\    /   O peration     | Version:  2.3.1                                 |
|   \\  /    A nd           | Web:      www.OpenFOAM.org                      |
|    \\/     M anipulation  |                                                 |
\*---------------------------------------------------------------------------*/
FoamFile
{
    version     2.0;
    format      ascii;
    class       volScalarField;
    location    "10";
    object      epsilon_0;
}
// * * * * * * * * * * * * * * * * * * * * * * * * * * * * * * * * * * * * * //

dimensions      [0 2 -3 0 0 0 0];

internalField   nonuniform List<scalar> 
38152
(
0.00222923
0.00156064
0.00117269
0.00111994
0.00103192
0.000889673
0.000925484
0.000994193
0.00089962
0.000363909
0.000100723
7.63348e-05
6.72152e-05
6.35688e-05
7.1161e-05
7.9767e-05
8.8686e-05
9.86259e-05
0.000107766
0.000127627
0.000175822
0.000204653
0.000202849
0.000195359
0.000212463
0.000230309
0.000212123
8.98865e-05
7.01674e-06
1.17611e-06
8.42453e-07
7.67896e-07
7.2584e-07
6.98646e-07
6.80412e-07
6.6781e-07
6.58862e-07
6.52336e-07
6.47451e-07
6.43658e-07
6.40456e-07
6.36831e-07
6.35028e-07
6.777e-07
0.00232616
0.000759985
0.000293255
0.000306209
0.000375041
0.000450552
0.00042544
0.000319939
0.000229281
0.000135385
0.000122293
0.000111613
0.000107625
0.000111309
0.000117343
0.000130241
0.000155669
0.000190048
0.000215923
0.000231472
0.000246929
0.000265058
0.000267867
0.000252909
0.00026456
0.000301884
0.000246901
5.74941e-05
7.93074e-06
2.64263e-06
1.32417e-06
1.17979e-06
1.13499e-06
1.10841e-06
1.09042e-06
1.07763e-06
1.06827e-06
1.06124e-06
1.05573e-06
1.05075e-06
1.04312e-06
1.01898e-06
9.34609e-07
7.28902e-07
0.0018981
0.000649016
0.000101772
7.72693e-05
8.93725e-05
9.94249e-05
0.000105151
0.000107341
0.000107122
0.000103317
0.000101898
0.000102319
0.000105832
0.000113539
0.000124424
0.000146944
0.000178565
0.000203948
0.000219726
0.000225754
0.000225177
0.000206748
0.000176392
0.000180109
0.000197071
0.000245853
0.000283389
0.000274157
0.000225548
0.000186714
5.82434e-05
5.43149e-06
1.64938e-06
1.40265e-06
1.34538e-06
1.31579e-06
1.29775e-06
1.28585e-06
1.27748e-06
1.27105e-06
1.26441e-06
1.2507e-06
1.20448e-06
1.05706e-06
7.44367e-07
0.000242516
8.45204e-05
6.06465e-05
6.93787e-05
8.04362e-05
8.87374e-05
9.32217e-05
9.5497e-05
9.78709e-05
0.000100623
0.000104093
0.000109767
0.000120288
0.000136986
0.000158966
0.000179667
0.000191578
0.000199299
0.000198299
0.000192241
0.00018286
0.00014259
7.59075e-05
7.62977e-05
0.000129549
0.000218225
0.000252217
0.000252346
0.000223082
0.000107149
1.19091e-05
2.08245e-06
1.53207e-06
1.45183e-06
1.41497e-06
1.39285e-06
1.37818e-06
1.36787e-06
1.36027e-06
1.35411e-06
1.34707e-06
1.33129e-06
1.27905e-06
1.11743e-06
7.59281e-07
2.99934e-05
3.28178e-05
4.03281e-05
5.24549e-05
6.60429e-05
7.67979e-05
8.54379e-05
9.33e-05
0.000100316
0.000107723
0.000115559
0.000126292
0.00014153
0.000159738
0.000175404
0.000182197
0.000178619
0.000153069
6.11626e-05
1.27039e-05
9.6702e-06
1.42353e-05
2.6084e-05
4.90863e-05
8.9155e-05
0.000129051
0.00012986
6.80652e-05
1.04989e-05
2.29793e-06
1.62395e-06
1.51834e-06
1.46844e-06
1.43751e-06
1.41713e-06
1.40322e-06
1.39345e-06
1.38632e-06
1.38065e-06
1.37452e-06
1.36239e-06
1.32705e-06
1.22682e-06
1.00891e-06
1.52421e-05
1.71169e-05
2.09538e-05
2.83111e-05
3.95363e-05
5.38164e-05
6.79365e-05
7.98404e-05
9.01094e-05
9.87225e-05
0.000106838
0.000116856
0.000129913
0.000143996
0.000148325
0.000139201
8.62595e-05
1.77578e-05
3.37454e-06
2.88908e-06
3.50052e-06
4.58721e-06
6.73149e-06
1.11234e-05
1.84675e-05
2.45265e-05
1.79398e-05
6.28079e-06
2.25445e-06
1.68895e-06
1.56231e-06
1.49793e-06
1.45838e-06
1.43324e-06
1.4167e-06
1.40535e-06
1.39725e-06
1.39125e-06
1.38643e-06
1.38143e-06
1.37284e-06
1.35119e-06
1.29863e-06
1.20649e-06
9.64335e-06
9.47063e-06
9.85766e-06
1.09928e-05
1.31437e-05
1.67081e-05
2.208e-05
3.05539e-05
4.08554e-05
5.07036e-05
5.92041e-05
6.66744e-05
7.40319e-05
7.84425e-05
7.49472e-05
5.30313e-05
2.22276e-05
5.98314e-06
2.31473e-06
1.99098e-06
2.07442e-06
2.17529e-06
2.30658e-06
2.51148e-06
2.90805e-06
3.51319e-06
3.78e-06
2.84058e-06
1.962e-06
1.66228e-06
1.55923e-06
1.50134e-06
1.46398e-06
1.43881e-06
1.42133e-06
1.40886e-06
1.39985e-06
1.3933e-06
1.38838e-06
1.38437e-06
1.37996e-06
1.37185e-06
1.35053e-06
1.29836e-06
1.20692e-06
8.18094e-06
7.35968e-06
6.83333e-06
6.64228e-06
6.61971e-06
7.0164e-06
7.93811e-06
9.29023e-06
1.0865e-05
1.23565e-05
1.36191e-05
1.45299e-05
1.48907e-05
1.34854e-05
9.79588e-06
5.42829e-06
2.92393e-06
2.1168e-06
1.96988e-06
1.95374e-06
1.96025e-06
1.96263e-06
1.95513e-06
1.94079e-06
1.92594e-06
1.92084e-06
1.86889e-06
1.7435e-06
1.63298e-06
1.55784e-06
1.50389e-06
1.46481e-06
1.43702e-06
1.41741e-06
1.40359e-06
1.39385e-06
1.38691e-06
1.38186e-06
1.37803e-06
1.37471e-06
1.37027e-06
1.35951e-06
1.32496e-06
1.22614e-06
1.00725e-06
7.54958e-06
6.76436e-06
6.09824e-06
5.50445e-06
4.99984e-06
4.58905e-06
4.27862e-06
4.05732e-06
3.89919e-06
3.78229e-06
3.66762e-06
3.52419e-06
3.31119e-06
2.95399e-06
2.50467e-06
2.14624e-06
1.96033e-06
1.87624e-06
1.83445e-06
1.8154e-06
1.80949e-06
1.80207e-06
1.78462e-06
1.75731e-06
1.72254e-06
1.68217e-06
1.63155e-06
1.57429e-06
1.52013e-06
1.47404e-06
1.43787e-06
1.41082e-06
1.39106e-06
1.37689e-06
1.36681e-06
1.35961e-06
6.98402e-06
6.30128e-06
5.73066e-06
5.2061e-06
4.7325e-06
4.30718e-06
3.93068e-06
3.60582e-06
3.31164e-06
3.04894e-06
2.81492e-06
2.60643e-06
2.42332e-06
2.25797e-06
2.11232e-06
1.99363e-06
1.90298e-06
1.83585e-06
1.78657e-06
1.7478e-06
1.71525e-06
1.68557e-06
1.65485e-06
1.62036e-06
1.58168e-06
1.54016e-06
1.4946e-06
1.44791e-06
1.40444e-06
1.36713e-06
1.33715e-06
1.31427e-06
1.29746e-06
1.28546e-06
1.27704e-06
5.74916e-06
5.268e-06
4.81567e-06
4.41426e-06
4.05334e-06
3.73262e-06
3.43991e-06
3.166e-06
2.91191e-06
2.6795e-06
2.46938e-06
2.28136e-06
2.11487e-06
1.96895e-06
1.84358e-06
1.73855e-06
1.65144e-06
1.58016e-06
1.52399e-06
1.48049e-06
1.4468e-06
1.41825e-06
1.39075e-06
1.36126e-06
1.32804e-06
1.29094e-06
1.25119e-06
1.21082e-06
1.1731e-06
1.14024e-06
1.11333e-06
1.09244e-06
1.07695e-06
1.06595e-06
1.05848e-06
3.45184e-06
3.21649e-06
2.96761e-06
2.74798e-06
2.54013e-06
2.3475e-06
2.16618e-06
1.99646e-06
1.83993e-06
1.69634e-06
1.56607e-06
1.44891e-06
1.34452e-06
1.25244e-06
1.17247e-06
1.10436e-06
1.04777e-06
1.00171e-06
9.64656e-07
9.34523e-07
9.08178e-07
8.835e-07
8.59023e-07
8.33905e-07
8.08116e-07
7.82217e-07
7.56342e-07
7.31876e-07
7.09614e-07
6.90465e-07
6.74874e-07
6.62763e-07
6.53718e-07
6.47211e-07
6.42765e-07
0.00111202
0.000808944
0.000722073
0.000691029
0.000653993
0.00069012
0.000774154
0.000755426
0.000550337
0.000154421
6.86453e-05
6.06296e-05
5.46506e-05
5.5409e-05
5.39555e-05
5.39615e-05
5.68707e-05
6.77242e-05
8.68426e-05
0.000112193
0.000141746
0.000159895
0.000158046
0.000158971
0.000166957
0.000164607
0.000126736
2.90276e-05
2.14215e-06
7.94487e-07
7.498e-07
7.56538e-07
7.59929e-07
7.60292e-07
7.59614e-07
7.58632e-07
7.57635e-07
7.56698e-07
7.55818e-07
7.54866e-07
7.53118e-07
7.4721e-07
7.27418e-07
6.87115e-07
0.00208755
0.00085945
0.000634642
0.000701764
0.000765601
0.000808377
0.000766365
0.000540042
0.000252427
0.00012375
0.000101078
8.08313e-05
6.59165e-05
6.33101e-05
6.6478e-05
7.75427e-05
9.54853e-05
0.000120382
0.000147075
0.000155636
0.000151842
0.000156331
0.000174516
0.000175658
0.000177441
0.000246184
0.000244014
6.08485e-05
1.25977e-05
3.60497e-06
1.07401e-06
8.52203e-07
8.17309e-07
8.04655e-07
7.9816e-07
7.94354e-07
7.91974e-07
7.90406e-07
7.89312e-07
7.88415e-07
7.87059e-07
7.82383e-07
7.65047e-07
7.50889e-07
0.00143192
0.000473504
0.00012984
9.53678e-05
9.53283e-05
0.000104802
0.000113794
0.000118039
0.000104126
8.09368e-05
6.68465e-05
5.56386e-05
5.27102e-05
5.72851e-05
6.51455e-05
7.89825e-05
0.000100876
0.000123755
0.000143968
0.000160841
0.000163174
0.000147377
0.00014014
0.000151952
0.000178865
0.000191834
0.000199278
0.000192586
0.000161764
0.000154162
5.99611e-05
6.9788e-06
1.28878e-06
9.02458e-07
8.50097e-07
8.32884e-07
8.25064e-07
8.20843e-07
8.18286e-07
8.16604e-07
8.1534e-07
8.13754e-07
8.08855e-07
7.91528e-07
7.84162e-07
0.000183666
7.91403e-05
5.09079e-05
4.52133e-05
4.49533e-05
4.62136e-05
4.78072e-05
4.96776e-05
5.10318e-05
5.14903e-05
5.30615e-05
5.64166e-05
6.3447e-05
7.43989e-05
9.11179e-05
0.000116805
0.00013881
0.000155323
0.000159813
0.000139469
0.000115595
9.27175e-05
8.4379e-05
0.000114989
0.000169459
0.000188282
0.000192203
0.000199223
0.000192383
9.58688e-05
1.41718e-05
1.96307e-06
9.87493e-07
8.79462e-07
8.50527e-07
8.38377e-07
8.31964e-07
8.28111e-07
8.25602e-07
8.23883e-07
8.22605e-07
8.21183e-07
8.17274e-07
8.05866e-07
8.52032e-07
3.76e-05
3.84998e-05
4.14696e-05
4.44096e-05
4.68264e-05
4.94977e-05
5.25797e-05
5.64105e-05
6.1649e-05
6.89007e-05
7.85841e-05
9.05473e-05
0.000105619
0.000125244
0.000148515
0.000175466
0.000174672
0.000103669
2.55889e-05
1.13759e-05
1.37013e-05
2.04878e-05
3.55444e-05
6.25779e-05
9.90389e-05
0.000124554
0.000121184
6.65427e-05
1.28274e-05
2.2474e-06
1.06777e-06
9.13848e-07
8.68873e-07
8.48942e-07
8.38586e-07
8.32675e-07
8.29029e-07
8.2664e-07
8.25011e-07
8.23838e-07
8.22785e-07
8.20487e-07
8.12239e-07
7.9139e-07
1.54227e-05
1.85519e-05
2.36953e-05
3.1207e-05
4.00931e-05
4.91606e-05
5.81785e-05
6.7565e-05
7.77903e-05
8.90536e-05
0.000100285
0.000111487
0.000123836
0.000135112
0.000133047
9.60154e-05
3.41945e-05
6.82809e-06
3.12415e-06
2.92122e-06
3.50313e-06
4.88226e-06
7.76717e-06
1.33707e-05
2.19466e-05
2.8214e-05
2.14225e-05
7.95976e-06
2.04544e-06
1.11325e-06
9.44455e-07
8.84951e-07
8.57486e-07
8.43586e-07
8.35884e-07
8.31243e-07
8.28251e-07
8.26214e-07
8.24789e-07
8.23761e-07
8.22986e-07
8.21858e-07
8.18374e-07
8.09129e-07
3.82853e-06
3.98171e-06
4.43335e-06
5.40057e-06
7.35135e-06
1.10641e-05
1.70472e-05
2.44276e-05
3.19528e-05
3.94125e-05
4.6436e-05
5.21871e-05
5.58338e-05
5.41211e-05
4.31088e-05
2.34416e-05
8.70773e-06
3.04571e-06
1.67712e-06
1.46527e-06
1.48779e-06
1.6083e-06
1.83072e-06
2.22761e-06
2.93967e-06
3.95911e-06
4.4428e-06
3.0203e-06
1.57598e-06
1.09076e-06
9.53034e-07
8.93689e-07
8.63982e-07
8.48072e-07
8.38935e-07
8.33345e-07
8.2974e-07
8.27307e-07
8.25601e-07
8.24383e-07
8.23487e-07
8.22804e-07
8.21743e-07
8.18319e-07
8.09174e-07
2.46273e-06
2.30645e-06
2.24588e-06
2.23769e-06
2.34797e-06
2.6832e-06
3.35566e-06
4.32382e-06
5.33192e-06
6.28657e-06
7.1253e-06
7.6214e-06
7.7526e-06
6.84313e-06
4.8443e-06
2.7782e-06
1.67138e-06
1.2629e-06
1.13375e-06
1.08778e-06
1.07604e-06
1.08556e-06
1.11418e-06
1.16096e-06
1.22833e-06
1.30902e-06
1.30188e-06
1.14549e-06
1.00944e-06
9.35617e-07
8.92618e-07
8.66703e-07
8.50919e-07
8.41154e-07
8.34963e-07
8.3092e-07
8.28178e-07
8.26254e-07
8.24861e-07
8.23841e-07
8.23052e-07
8.22277e-07
8.20162e-07
8.12095e-07
7.90892e-07
2.09152e-06
1.93023e-06
1.80751e-06
1.70104e-06
1.62011e-06
1.57239e-06
1.55979e-06
1.57294e-06
1.61232e-06
1.67206e-06
1.71243e-06
1.72635e-06
1.68925e-06
1.55553e-06
1.35142e-06
1.17416e-06
1.06839e-06
1.00997e-06
9.75696e-07
9.57859e-07
9.52594e-07
9.53389e-07
9.56583e-07
9.62112e-07
9.69768e-07
9.76214e-07
9.67462e-07
9.41957e-07
9.12378e-07
8.85759e-07
8.65237e-07
8.50825e-07
8.4117e-07
8.34798e-07
8.30528e-07
8.27614e-07
1.86269e-06
1.72194e-06
1.62433e-06
1.53064e-06
1.45296e-06
1.38441e-06
1.32563e-06
1.27403e-06
1.22811e-06
1.18827e-06
1.15295e-06
1.12096e-06
1.09321e-06
1.06015e-06
1.02088e-06
9.83176e-07
9.52248e-07
9.29712e-07
9.1524e-07
9.05633e-07
8.99013e-07
8.94888e-07
8.92884e-07
8.92418e-07
8.9298e-07
8.93228e-07
8.88956e-07
8.79008e-07
8.66018e-07
8.53047e-07
8.42135e-07
8.33837e-07
8.27871e-07
8.2371e-07
8.20823e-07
1.63464e-06
1.52815e-06
1.46051e-06
1.38914e-06
1.32955e-06
1.27369e-06
1.22192e-06
1.17412e-06
1.12973e-06
1.08915e-06
1.05241e-06
1.0194e-06
9.89716e-07
9.62404e-07
9.37095e-07
9.14477e-07
8.95389e-07
8.80236e-07
8.68933e-07
8.60918e-07
8.55062e-07
8.50129e-07
8.45702e-07
8.41852e-07
8.38787e-07
8.36208e-07
8.32444e-07
8.26559e-07
8.19257e-07
8.1183e-07
8.05355e-07
8.0028e-07
7.96543e-07
7.93875e-07
7.92004e-07
2.32205e-06
2.17656e-06
2.04152e-06
1.9191e-06
1.80543e-06
1.69969e-06
1.60055e-06
1.50906e-06
1.42461e-06
1.34744e-06
1.27751e-06
1.21464e-06
1.15828e-06
1.10807e-06
1.06375e-06
1.0252e-06
9.92359e-07
9.65186e-07
9.43447e-07
9.2624e-07
9.11773e-07
8.9832e-07
8.85298e-07
8.72443e-07
8.5992e-07
8.47242e-07
8.33313e-07
8.18577e-07
8.04419e-07
7.91795e-07
7.81245e-07
7.72913e-07
7.66633e-07
7.62103e-07
7.59009e-07
0.000788448
0.000765402
0.000790717
0.000817434
0.000839871
0.000868652
0.000853753
0.000770185
0.000447448
0.000124964
8.21675e-05
7.70066e-05
6.87601e-05
6.4616e-05
5.27053e-05
4.74549e-05
5.15796e-05
6.93359e-05
9.63368e-05
0.000121318
0.000147407
0.00017221
0.000179712
0.000179691
0.000177222
0.000160991
9.3311e-05
9.6318e-06
1.39074e-06
1.0043e-06
9.73832e-07
9.64948e-07
9.57492e-07
9.51458e-07
9.46807e-07
9.43271e-07
9.40567e-07
9.38458e-07
9.3672e-07
9.34912e-07
9.31254e-07
9.18337e-07
8.74331e-07
7.69599e-07
0.00122425
0.000795655
0.000770559
0.000806115
0.000848539
0.00081999
0.000651385
0.000412721
0.000197599
0.000120093
0.000107311
8.17566e-05
5.86474e-05
5.3258e-05
5.6075e-05
6.65573e-05
7.97825e-05
9.44055e-05
0.00011134
0.000125267
0.000132712
0.000146886
0.000163301
0.000172888
0.000199977
0.000305015
0.000226078
4.34354e-05
1.23615e-05
2.75929e-06
9.75475e-07
8.10979e-07
7.79624e-07
7.67633e-07
7.61315e-07
7.57584e-07
7.55267e-07
7.53776e-07
7.52804e-07
7.5225e-07
7.52369e-07
7.54322e-07
7.63095e-07
8.68042e-07
0.000590764
0.000250361
0.000140001
0.000114303
0.000111224
0.000116019
0.000118198
0.000112939
0.000100132
8.15503e-05
6.49584e-05
4.43466e-05
3.18823e-05
3.19979e-05
3.86685e-05
4.96137e-05
6.30516e-05
7.47692e-05
8.39176e-05
9.38762e-05
0.000104484
0.000116851
0.000142203
0.000179905
0.000206739
0.000209413
0.000215349
0.000197419
0.000195612
0.000167099
4.26162e-05
4.51079e-06
1.03527e-06
7.78215e-07
7.35536e-07
7.21552e-07
7.15532e-07
7.12475e-07
7.10747e-07
7.09791e-07
7.09739e-07
7.12042e-07
7.21589e-07
7.53122e-07
9.28242e-07
8.3467e-05
4.96224e-05
3.66934e-05
3.35445e-05
3.41389e-05
3.61547e-05
3.79681e-05
3.89841e-05
3.83789e-05
3.51255e-05
3.247e-05
3.38443e-05
3.92279e-05
4.72961e-05
5.8183e-05
7.17028e-05
8.21865e-05
8.21433e-05
6.91503e-05
5.43003e-05
5.19266e-05
5.90832e-05
8.71299e-05
0.000137368
0.000181266
0.000200554
0.000210891
0.000219847
0.000193468
6.93348e-05
9.398e-06
1.50297e-06
8.27299e-07
7.35058e-07
7.09981e-07
7.00121e-07
6.95335e-07
6.92676e-07
6.91088e-07
6.90242e-07
6.90492e-07
6.93825e-07
7.0671e-07
7.52432e-07
1.05854e-06
2.45397e-05
2.47393e-05
2.5552e-05
2.67435e-05
2.80094e-05
2.97863e-05
3.18093e-05
3.44681e-05
3.84334e-05
4.50723e-05
5.4598e-05
6.61624e-05
7.85397e-05
9.24233e-05
0.000101205
9.47326e-05
6.75752e-05
2.51349e-05
1.06139e-05
1.00585e-05
1.37604e-05
2.22447e-05
3.9449e-05
6.97174e-05
0.000107001
0.00012752
0.000111526
4.87423e-05
8.98725e-06
1.72648e-06
8.83344e-07
7.52861e-07
7.14337e-07
6.98343e-07
6.90609e-07
6.86478e-07
6.84091e-07
6.82644e-07
6.81874e-07
6.82078e-07
6.84801e-07
6.94183e-07
7.18741e-07
7.77871e-07
8.08246e-06
8.96034e-06
1.05643e-05
1.3165e-05
1.68315e-05
2.12542e-05
2.60693e-05
3.14029e-05
3.79315e-05
4.64737e-05
5.65604e-05
6.62881e-05
7.08164e-05
6.65722e-05
4.86676e-05
2.32179e-05
8.16022e-06
3.55989e-06
2.92013e-06
3.19598e-06
3.99591e-06
5.51431e-06
8.48889e-06
1.41023e-05
2.19289e-05
2.60981e-05
1.76471e-05
5.75178e-06
1.63171e-06
9.33397e-07
7.81612e-07
7.27117e-07
7.03198e-07
6.91818e-07
6.85987e-07
6.82747e-07
6.80807e-07
6.79593e-07
6.78922e-07
6.79029e-07
6.81017e-07
6.87445e-07
7.01752e-07
7.2386e-07
2.95652e-06
2.91929e-06
2.99205e-06
3.21368e-06
3.64295e-06
4.3417e-06
5.36223e-06
6.6787e-06
8.36292e-06
1.01092e-05
1.18298e-05
1.31514e-05
1.37367e-05
1.29534e-05
9.7741e-06
5.4524e-06
2.83395e-06
1.75693e-06
1.42516e-06
1.37224e-06
1.43873e-06
1.58836e-06
1.83511e-06
2.23626e-06
2.88602e-06
3.72099e-06
3.87779e-06
2.46077e-06
1.30281e-06
9.16424e-07
7.89041e-07
7.34164e-07
7.08113e-07
6.95063e-07
6.8811e-07
6.84156e-07
6.81764e-07
6.8024e-07
6.79248e-07
6.78704e-07
6.78887e-07
6.80926e-07
6.87382e-07
7.01682e-07
7.23667e-07
1.97359e-06
1.85963e-06
1.79954e-06
1.77781e-06
1.78857e-06
1.85563e-06
1.9686e-06
2.10719e-06
2.24947e-06
2.39877e-06
2.53296e-06
2.60606e-06
2.60187e-06
2.36587e-06
1.90104e-06
1.43051e-06
1.14432e-06
1.00962e-06
9.53321e-07
9.33086e-07
9.34022e-07
9.53707e-07
9.90087e-07
1.04112e-06
1.10295e-06
1.16199e-06
1.1224e-06
9.697e-07
8.469e-07
7.77164e-07
7.36954e-07
7.13782e-07
7.00444e-07
6.92676e-07
6.88056e-07
6.85243e-07
6.83471e-07
6.82307e-07
6.81538e-07
6.81165e-07
6.81611e-07
6.84501e-07
6.93964e-07
7.1839e-07
7.75963e-07
1.59507e-06
1.48962e-06
1.41314e-06
1.34875e-06
1.2997e-06
1.26146e-06
1.23183e-06
1.20733e-06
1.18575e-06
1.16805e-06
1.15056e-06
1.13032e-06
1.09916e-06
1.04369e-06
9.69968e-07
9.01665e-07
8.52836e-07
8.21262e-07
8.0269e-07
7.94797e-07
7.95447e-07
8.00625e-07
8.07658e-07
8.15911e-07
8.23989e-07
8.27803e-07
8.16215e-07
7.90737e-07
7.62949e-07
7.38746e-07
7.2083e-07
7.08778e-07
7.01115e-07
6.96432e-07
6.93582e-07
6.91793e-07
1.40405e-06
1.31001e-06
1.24678e-06
1.18852e-06
1.14104e-06
1.09796e-06
1.05891e-06
1.0221e-06
9.87489e-07
9.5597e-07
9.27874e-07
9.02938e-07
8.79861e-07
8.55946e-07
8.30854e-07
8.07076e-07
7.87367e-07
7.73245e-07
7.64841e-07
7.60827e-07
7.5946e-07
7.59834e-07
7.61379e-07
7.63571e-07
7.65743e-07
7.66446e-07
7.62875e-07
7.5458e-07
7.43814e-07
7.33226e-07
7.24621e-07
7.18609e-07
7.1474e-07
7.12298e-07
7.10757e-07
1.37236e-06
1.28613e-06
1.2339e-06
1.18082e-06
1.13657e-06
1.09429e-06
1.05514e-06
1.01878e-06
9.84817e-07
9.53645e-07
9.25446e-07
9.00282e-07
8.77799e-07
8.57332e-07
8.38759e-07
8.2276e-07
8.1005e-07
8.00811e-07
7.94768e-07
7.91428e-07
7.8947e-07
7.87247e-07
7.84665e-07
7.82289e-07
7.80782e-07
7.79448e-07
7.77057e-07
7.73033e-07
7.67944e-07
7.62928e-07
7.58859e-07
7.55883e-07
7.53898e-07
7.52665e-07
7.51932e-07
2.72207e-06
2.55939e-06
2.41006e-06
2.27403e-06
2.14698e-06
2.02781e-06
1.91565e-06
1.81192e-06
1.71568e-06
1.62758e-06
1.54756e-06
1.47538e-06
1.41043e-06
1.35231e-06
1.30074e-06
1.25566e-06
1.21704e-06
1.18486e-06
1.15922e-06
1.13987e-06
1.12482e-06
1.11121e-06
1.09827e-06
1.08565e-06
1.07349e-06
1.06013e-06
1.04452e-06
1.02723e-06
1.00956e-06
9.92925e-07
9.78366e-07
9.66392e-07
9.57016e-07
9.49977e-07
9.44917e-07
0.000729109
0.000789157
0.000886789
0.000936558
0.000943743
0.000916089
0.000812569
0.000601981
0.000238163
0.00010155
8.86879e-05
8.61395e-05
7.6471e-05
7.02026e-05
5.30611e-05
3.85427e-05
4.05519e-05
5.31618e-05
7.92251e-05
0.000104768
0.000135079
0.000166118
0.000171699
0.000168078
0.000154892
0.000117755
3.02266e-05
2.94049e-06
1.25313e-06
1.12138e-06
1.08849e-06
1.07122e-06
1.05938e-06
1.05101e-06
1.04501e-06
1.04063e-06
1.03737e-06
1.03487e-06
1.0328e-06
1.03042e-06
1.02479e-06
1.00456e-06
9.38606e-07
7.93165e-07
0.000880263
0.000804395
0.000811892
0.000840833
0.000842694
0.000685292
0.000436673
0.000255867
0.000140738
0.000111972
0.000112704
9.45834e-05
5.82473e-05
4.59652e-05
4.35645e-05
4.84261e-05
5.95422e-05
7.33747e-05
9.1647e-05
0.000112275
0.000129329
0.000151419
0.000170713
0.000182211
0.000237403
0.000295778
0.000154294
2.80129e-05
7.89504e-06
1.67838e-06
8.97225e-07
7.93211e-07
7.6479e-07
7.5197e-07
7.44802e-07
7.40452e-07
7.37705e-07
7.35927e-07
7.34799e-07
7.34363e-07
7.35509e-07
7.41752e-07
7.65109e-07
9.20909e-07
0.000307472
0.00019033
0.000145043
0.000125606
0.000120851
0.000119896
0.000113669
0.000103448
9.32061e-05
8.34448e-05
6.86473e-05
4.38886e-05
2.57435e-05
2.0211e-05
2.15254e-05
2.50816e-05
3.0088e-05
3.62169e-05
4.50255e-05
5.83859e-05
7.82951e-05
0.000107454
0.000146887
0.000191479
0.000211394
0.000218324
0.000225667
0.000219967
0.000223522
0.000132241
1.84482e-05
2.20241e-06
8.60609e-07
7.12017e-07
6.76526e-07
6.63645e-07
6.57885e-07
6.54922e-07
6.53271e-07
6.52499e-07
6.53127e-07
6.5803e-07
6.76401e-07
7.35525e-07
1.0054e-06
4.97582e-05
3.62138e-05
3.03766e-05
2.85957e-05
2.99162e-05
3.28577e-05
3.4924e-05
3.55741e-05
3.39082e-05
2.87507e-05
2.17183e-05
1.76835e-05
1.72433e-05
1.89044e-05
2.13165e-05
2.37559e-05
2.49382e-05
2.4126e-05
2.25587e-05
2.38654e-05
3.02227e-05
4.61224e-05
8.11014e-05
0.000133064
0.000181673
0.000206726
0.000223628
0.000223655
0.000158134
3.40373e-05
4.43082e-06
1.10383e-06
7.30217e-07
6.57847e-07
6.3531e-07
6.26043e-07
6.21523e-07
6.19046e-07
6.17632e-07
6.17095e-07
6.1826e-07
6.24726e-07
6.47698e-07
7.26191e-07
1.18621e-06
1.31908e-05
1.29655e-05
1.33794e-05
1.43063e-05
1.5368e-05
1.62282e-05
1.66456e-05
1.6799e-05
1.67816e-05
1.7443e-05
1.91764e-05
2.17101e-05
2.42579e-05
2.60002e-05
2.58625e-05
2.31619e-05
1.59021e-05
8.89006e-06
7.05281e-06
8.48725e-06
1.25694e-05
2.10468e-05
3.73681e-05
6.51594e-05
9.67556e-05
0.00011015
7.8645e-05
2.367e-05
4.55531e-06
1.24196e-06
7.68162e-07
6.66423e-07
6.31977e-07
6.17181e-07
6.10007e-07
6.06214e-07
6.04067e-07
6.02836e-07
6.02399e-07
6.03479e-07
6.0889e-07
6.25844e-07
6.69799e-07
7.75508e-07
5.33687e-06
5.37357e-06
5.64886e-06
6.18332e-06
6.94977e-06
7.82701e-06
8.69508e-06
9.54971e-06
1.05263e-05
1.18208e-05
1.348e-05
1.52277e-05
1.64317e-05
1.52141e-05
1.09866e-05
6.37857e-06
3.68179e-06
2.78089e-06
2.66191e-06
3.00279e-06
3.7675e-06
5.1117e-06
7.46538e-06
1.16172e-05
1.69659e-05
1.83109e-05
1.01575e-05
3.25702e-06
1.23808e-06
8.14571e-07
6.90734e-07
6.41505e-07
6.19342e-07
6.08729e-07
6.03322e-07
6.00372e-07
5.98656e-07
5.97651e-07
5.97294e-07
5.98175e-07
6.02363e-07
6.14365e-07
6.40515e-07
6.82331e-07
2.77506e-06
2.67097e-06
2.6288e-06
2.65045e-06
2.74331e-06
2.87972e-06
3.03918e-06
3.19408e-06
3.34067e-06
3.46655e-06
3.61421e-06
3.8018e-06
3.93005e-06
3.75683e-06
3.09484e-06
2.26334e-06
1.70078e-06
1.40964e-06
1.29486e-06
1.28609e-06
1.35219e-06
1.47982e-06
1.67778e-06
1.96908e-06
2.37691e-06
2.84373e-06
2.69704e-06
1.71979e-06
1.05985e-06
8.03408e-07
6.972e-07
6.47791e-07
6.23743e-07
6.11606e-07
6.05173e-07
6.01565e-07
5.99432e-07
5.98117e-07
5.97325e-07
5.97089e-07
5.98044e-07
6.0228e-07
6.14304e-07
6.40423e-07
6.82028e-07
1.92702e-06
1.81406e-06
1.73647e-06
1.68438e-06
1.65252e-06
1.63609e-06
1.62455e-06
1.60823e-06
1.58419e-06
1.55844e-06
1.53488e-06
1.51208e-06
1.4729e-06
1.37907e-06
1.23095e-06
1.0773e-06
9.64361e-07
8.97633e-07
8.64841e-07
8.53314e-07
8.58783e-07
8.79391e-07
9.1123e-07
9.50475e-07
9.90436e-07
1.01682e-06
9.63225e-07
8.46559e-07
7.51388e-07
6.90152e-07
6.52986e-07
6.31274e-07
6.18731e-07
6.11452e-07
6.07217e-07
6.04733e-07
6.03222e-07
6.02274e-07
6.01714e-07
6.01672e-07
6.03003e-07
6.0858e-07
6.25602e-07
6.69318e-07
7.72824e-07
1.538e-06
1.43816e-06
1.36453e-06
1.30176e-06
1.24937e-06
1.20102e-06
1.1549e-06
1.10913e-06
1.06412e-06
1.02228e-06
9.84312e-07
9.50093e-07
9.16429e-07
8.77599e-07
8.34231e-07
7.93209e-07
7.60451e-07
7.37479e-07
7.24211e-07
7.19462e-07
7.21597e-07
7.26954e-07
7.33315e-07
7.39816e-07
7.45127e-07
7.4544e-07
7.32468e-07
7.08655e-07
6.82915e-07
6.60425e-07
6.43647e-07
6.32345e-07
6.25368e-07
6.21295e-07
6.18912e-07
6.17473e-07
1.34674e-06
1.25754e-06
1.19563e-06
1.13957e-06
1.09217e-06
1.04784e-06
1.00612e-06
9.65429e-07
9.26262e-07
8.89978e-07
8.5759e-07
8.29423e-07
8.04422e-07
7.80718e-07
7.57773e-07
7.36792e-07
7.19637e-07
7.0751e-07
7.00586e-07
6.97636e-07
6.97074e-07
6.9795e-07
6.9951e-07
7.01318e-07
7.02883e-07
7.02747e-07
6.98706e-07
6.90507e-07
6.80156e-07
6.702e-07
6.62637e-07
6.57648e-07
6.54569e-07
6.52731e-07
6.51675e-07
1.37305e-06
1.28656e-06
1.23097e-06
1.17704e-06
1.1305e-06
1.0857e-06
1.04399e-06
1.00458e-06
9.67464e-07
9.33264e-07
9.02408e-07
8.75118e-07
8.51152e-07
8.30047e-07
8.11686e-07
7.96509e-07
7.84905e-07
7.76785e-07
7.71586e-07
7.68736e-07
7.67097e-07
7.64799e-07
7.61785e-07
7.58817e-07
7.56657e-07
7.5461e-07
7.51899e-07
7.48113e-07
7.43769e-07
7.39733e-07
7.36485e-07
7.34246e-07
7.32903e-07
7.3221e-07
7.31917e-07
2.95542e-06
2.78462e-06
2.62762e-06
2.48402e-06
2.34846e-06
2.2203e-06
2.09989e-06
1.98759e-06
1.88333e-06
1.78767e-06
1.7007e-06
1.62225e-06
1.5517e-06
1.48865e-06
1.4327e-06
1.38384e-06
1.34206e-06
1.30728e-06
1.27932e-06
1.25845e-06
1.24298e-06
1.22937e-06
1.2166e-06
1.20424e-06
1.19208e-06
1.17782e-06
1.16068e-06
1.14129e-06
1.12114e-06
1.10192e-06
1.08491e-06
1.07075e-06
1.05954e-06
1.05102e-06
1.04479e-06
0.00069581
0.000809689
0.000923252
0.000966438
0.000951301
0.000857016
0.00059573
0.000333437
0.000139685
9.20822e-05
9.03155e-05
9.13633e-05
8.4775e-05
7.76959e-05
5.68531e-05
3.06281e-05
2.94103e-05
3.61277e-05
5.60013e-05
7.96299e-05
0.000108847
0.000130599
0.000132683
0.000129335
0.000106041
4.68004e-05
6.8303e-06
1.62866e-06
1.25959e-06
1.18609e-06
1.15169e-06
1.13075e-06
1.117e-06
1.10758e-06
1.10094e-06
1.09616e-06
1.09264e-06
1.08995e-06
1.08767e-06
1.08478e-06
1.07729e-06
1.05074e-06
9.68418e-07
7.99765e-07
0.000800129
0.000793972
0.000816863
0.000846805
0.000785418
0.000526038
0.000288772
0.000170276
0.000115004
0.000100952
0.000109331
0.000103508
6.64175e-05
4.45396e-05
3.35928e-05
3.38734e-05
4.23393e-05
5.65608e-05
7.60943e-05
9.98464e-05
0.000126519
0.000155013
0.000168582
0.000189838
0.000242924
0.000229751
7.54526e-05
1.33927e-05
3.34724e-06
1.16415e-06
8.48018e-07
7.78315e-07
7.5294e-07
7.40046e-07
7.32535e-07
7.27893e-07
7.24926e-07
7.22996e-07
7.21805e-07
7.21532e-07
7.23565e-07
7.32869e-07
7.64941e-07
9.45538e-07
0.000225328
0.000173892
0.00014693
0.000133263
0.000127015
0.000120461
0.000108389
9.43623e-05
8.54969e-05
8.02533e-05
7.00022e-05
4.86418e-05
2.70452e-05
1.70352e-05
1.49885e-05
1.53082e-05
1.72877e-05
2.11753e-05
2.78753e-05
3.94267e-05
5.94978e-05
9.31287e-05
0.000139253
0.000182095
0.000206418
0.000223825
0.000230535
0.000228312
0.000190777
5.03445e-05
6.04326e-06
1.26995e-06
7.60001e-07
6.6594e-07
6.37067e-07
6.25559e-07
6.2016e-07
6.17314e-07
6.15734e-07
6.15132e-07
6.16361e-07
6.23329e-07
6.47831e-07
7.24061e-07
1.04782e-06
4.19352e-05
3.36869e-05
2.94595e-05
2.78241e-05
2.84904e-05
3.12089e-05
3.32635e-05
3.33409e-05
3.18001e-05
2.7068e-05
1.91503e-05
1.3313e-05
1.06991e-05
1.02437e-05
1.05098e-05
1.06703e-05
1.07236e-05
1.1091e-05
1.21796e-05
1.49294e-05
2.1093e-05
3.45733e-05
6.57611e-05
0.000116309
0.000166262
0.000197011
0.000210406
0.000186378
7.31064e-05
1.22175e-05
2.15721e-06
8.73855e-07
6.5996e-07
6.05187e-07
5.85689e-07
5.77212e-07
5.72977e-07
5.70649e-07
5.69368e-07
5.69095e-07
5.71062e-07
5.80004e-07
6.09977e-07
7.09062e-07
1.2624e-06
9.95754e-06
9.70804e-06
9.84487e-06
1.03385e-05
1.09691e-05
1.13301e-05
1.13177e-05
1.08659e-05
9.79928e-06
8.77831e-06
8.33913e-06
8.39388e-06
8.68698e-06
8.92838e-06
8.82068e-06
8.16207e-06
6.66672e-06
5.54378e-06
5.60663e-06
6.85534e-06
9.87331e-06
1.6293e-05
2.80791e-05
4.67963e-05
6.54613e-05
6.65827e-05
3.56506e-05
9.82967e-06
2.31349e-06
9.55903e-07
6.83284e-07
6.0587e-07
5.76286e-07
5.6297e-07
5.56383e-07
5.52879e-07
5.50908e-07
5.49839e-07
5.49696e-07
5.51598e-07
5.59336e-07
5.82111e-07
6.39296e-07
7.7353e-07
4.68237e-06
4.53271e-06
4.48526e-06
4.54729e-06
4.6692e-06
4.77472e-06
4.82756e-06
4.79178e-06
4.72749e-06
4.71696e-06
4.83443e-06
4.98808e-06
5.05468e-06
4.79352e-06
4.01018e-06
3.10958e-06
2.4958e-06
2.23718e-06
2.26895e-06
2.56897e-06
3.14104e-06
4.06773e-06
5.5008e-06
7.61285e-06
1.0049e-05
9.39649e-06
4.79833e-06
1.89476e-06
9.83014e-07
7.21153e-07
6.24317e-07
5.8226e-07
5.6259e-07
5.5296e-07
5.47997e-07
5.45288e-07
5.43736e-07
5.4289e-07
5.42824e-07
5.44491e-07
5.508e-07
5.67714e-07
6.03341e-07
6.59331e-07
2.78558e-06
2.64192e-06
2.55596e-06
2.51381e-06
2.49565e-06
2.48086e-06
2.45402e-06
2.409e-06
2.34682e-06
2.27976e-06
2.22156e-06
2.17001e-06
2.11085e-06
1.99184e-06
1.77764e-06
1.52655e-06
1.33005e-06
1.21505e-06
1.16707e-06
1.17238e-06
1.22321e-06
1.31558e-06
1.45022e-06
1.62732e-06
1.82685e-06
1.99217e-06
1.76617e-06
1.23591e-06
8.84514e-07
7.14211e-07
6.29844e-07
5.87751e-07
5.66486e-07
5.55507e-07
5.4961e-07
5.46302e-07
5.44366e-07
5.43199e-07
5.42562e-07
5.42616e-07
5.4436e-07
5.50718e-07
5.67655e-07
6.03242e-07
6.58983e-07
1.95731e-06
1.83483e-06
1.74403e-06
1.67481e-06
1.61912e-06
1.56451e-06
1.50782e-06
1.44464e-06
1.37509e-06
1.3065e-06
1.24459e-06
1.19061e-06
1.13866e-06
1.07556e-06
9.98688e-07
9.20822e-07
8.5747e-07
8.15628e-07
7.93969e-07
7.87364e-07
7.94548e-07
8.12156e-07
8.35841e-07
8.61351e-07
8.81932e-07
8.84516e-07
8.33768e-07
7.5074e-07
6.78591e-07
6.27399e-07
5.9487e-07
5.75376e-07
5.63902e-07
5.57215e-07
5.53388e-07
5.51174e-07
5.49857e-07
5.49063e-07
5.48666e-07
5.48925e-07
5.51095e-07
5.59009e-07
5.81857e-07
6.38769e-07
7.70572e-07
1.55136e-06
1.44936e-06
1.37256e-06
1.30618e-06
1.24766e-06
1.19033e-06
1.13196e-06
1.07334e-06
1.01546e-06
9.61129e-07
9.12135e-07
8.69409e-07
8.31572e-07
7.95266e-07
7.5971e-07
7.27302e-07
7.0109e-07
6.82607e-07
6.72267e-07
6.68892e-07
6.70862e-07
6.75218e-07
6.79991e-07
6.84203e-07
6.8686e-07
6.84273e-07
6.71268e-07
6.5004e-07
6.27157e-07
6.06931e-07
5.91715e-07
5.81482e-07
5.75322e-07
5.71788e-07
5.69749e-07
5.6856e-07
1.34989e-06
1.2598e-06
1.19602e-06
1.13849e-06
1.08819e-06
1.04004e-06
9.93356e-07
9.47343e-07
9.02786e-07
8.61223e-07
8.23906e-07
7.91478e-07
7.63309e-07
7.37999e-07
7.14947e-07
6.94791e-07
6.78741e-07
6.67489e-07
6.60975e-07
6.58091e-07
6.57444e-07
6.57963e-07
6.58944e-07
6.59975e-07
6.6067e-07
6.5956e-07
6.55032e-07
6.46979e-07
6.37276e-07
6.28484e-07
6.21988e-07
6.17808e-07
6.15266e-07
6.13838e-07
6.13097e-07
1.40268e-06
1.31043e-06
1.25179e-06
1.19517e-06
1.14472e-06
1.09606e-06
1.05079e-06
1.00753e-06
9.66846e-07
9.29315e-07
8.95461e-07
8.65604e-07
8.39627e-07
8.17193e-07
7.98191e-07
7.82868e-07
7.71339e-07
7.63308e-07
7.58052e-07
7.5474e-07
7.52681e-07
7.49993e-07
7.46553e-07
7.43167e-07
7.40413e-07
7.37773e-07
7.34768e-07
7.31152e-07
7.27314e-07
7.23761e-07
7.21014e-07
7.19221e-07
7.18252e-07
7.17861e-07
7.17808e-07