/*--------------------------------*- C++ -*----------------------------------*\
| =========                 |                                                 |
| \\      /  F ield         | OpenFOAM: The Open Source CFD Toolbox           |
|  \\    /   O peration     | Version:  2.3.1                                 |
|   \\  /    A nd           | Web:      www.OpenFOAM.org                      |
|    \\/     M anipulation  |                                                 |
\*---------------------------------------------------------------------------*/
FoamFile
{
    version     2.0;
    format      ascii;
    class       volScalarField;
    location    "10";
    object      k;
}
// * * * * * * * * * * * * * * * * * * * * * * * * * * * * * * * * * * * * * //

dimensions      [0 2 -2 0 0 0 0];

internalField   nonuniform List<scalar> 
38152
(
0.000994153
0.000784518
0.000646992
0.000627042
0.000594389
0.000537973
0.000551604
0.00057922
0.000543
0.000299901
0.000126605
0.000104702
9.6148e-05
9.26038e-05
9.98229e-05
0.000107728
0.000115612
0.000124111
0.000131651
0.000147297
0.000182349
0.000201946
0.000200806
0.000195807
0.000206956
0.000218517
0.000207005
0.000117407
2.15143e-05
6.49823e-06
5.19116e-06
4.87911e-06
4.69894e-06
4.58061e-06
4.50041e-06
4.44457e-06
4.40471e-06
4.37553e-06
4.35363e-06
4.33658e-06
4.32217e-06
4.30582e-06
4.29767e-06
5.13491e-06
0.00102448
0.000488674
0.000257019
0.000263924
0.00030229
0.000341675
0.00032957
0.000272572
0.000218749
0.000153711
0.000143285
0.00013481
0.000131555
0.000134529
0.000139344
0.00014936
0.000168201
0.000192146
0.000209256
0.000219185
0.000228816
0.00023991
0.000241674
0.000232587
0.000239534
0.000261708
0.000229237
8.71664e-05
2.31931e-05
1.1159e-05
7.02034e-06
6.49637e-06
6.33041e-06
6.23102e-06
6.1633e-06
6.11495e-06
6.07945e-06
6.05269e-06
6.0317e-06
6.0127e-06
5.98353e-06
5.89078e-06
5.56086e-06
5.83424e-06
0.000894114
0.000441213
0.000127646
0.000105503
0.000116245
0.000124816
0.00012957
0.000131362
0.000131236
0.000128129
0.00012688
0.000127215
0.000130079
0.00013631
0.000144879
0.00016185
0.000184323
0.000201429
0.000211709
0.000215589
0.000215241
0.000203436
0.000182894
0.000185412
0.000196835
0.000228079
0.000250883
0.0002455
0.000215478
0.000190143
8.7922e-05
1.80941e-05
8.13142e-06
7.29126e-06
7.09061e-06
6.98599e-06
6.92186e-06
6.87938e-06
6.84945e-06
6.82641e-06
6.8026e-06
6.75328e-06
6.58581e-06
6.03668e-06
5.91651e-06
0.000227696
0.000112657
8.98197e-05
9.81898e-05
0.000108364
0.0001157
0.000119571
0.000121518
0.000123524
0.000125811
0.000128667
0.000133281
0.000141648
0.000154461
0.000170577
0.000185109
0.000193224
0.00019839
0.000197744
0.000193696
0.000187378
0.000158952
0.000104351
0.00010461
0.000148699
0.00021077
0.000232177
0.000232285
0.000214082
0.000131867
3.05836e-05
9.51163e-06
7.73401e-06
7.46011e-06
7.33295e-06
7.25615e-06
7.20503e-06
7.16901e-06
7.14238e-06
7.12076e-06
7.09604e-06
7.04046e-06
6.855e-06
6.26448e-06
5.99532e-06
5.62436e-05
5.96465e-05
6.84044e-05
8.14873e-05
9.50107e-05
0.000105066
0.000112808
0.000119625
0.000125543
0.000131644
0.000137946
0.000146353
0.000157893
0.00017116
0.00018219
0.000186892
0.000184459
0.000166545
9.0631e-05
3.17625e-05
2.63923e-05
3.41307e-05
5.11009e-05
7.79025e-05
0.000116
0.000148549
0.000149343
9.74443e-05
2.80808e-05
1.01586e-05
8.04096e-06
7.68655e-06
7.51677e-06
7.41063e-06
7.34029e-06
7.29207e-06
7.25813e-06
7.23333e-06
7.21356e-06
7.19215e-06
7.14975e-06
7.02552e-06
6.66703e-06
5.85196e-06
3.57835e-05
3.86506e-05
4.42208e-05
5.40385e-05
6.75093e-05
8.2911e-05
9.68321e-05
0.000107832
0.00011689
0.000124221
0.000130932
0.000138985
0.000149149
0.000159758
0.000162982
0.000156294
0.000113879
3.98121e-05
1.31159e-05
1.17977e-05
1.34062e-05
1.60514e-05
2.07247e-05
2.89665e-05
4.06315e-05
4.91553e-05
3.99944e-05
1.99028e-05
1.00235e-05
8.25443e-06
7.83457e-06
7.61727e-06
7.4823e-06
7.3959e-06
7.33876e-06
7.29944e-06
7.27133e-06
7.25045e-06
7.23369e-06
7.21625e-06
7.1863e-06
7.11048e-06
6.92476e-06
6.59308e-06
2.63692e-05
2.6053e-05
2.67562e-05
2.87702e-05
3.24079e-05
3.80285e-05
4.57954e-05
5.68714e-05
6.90302e-05
7.9724e-05
8.8403e-05
9.56896e-05
0.000102608
0.000106664
0.000103519
8.23055e-05
4.61641e-05
1.9245e-05
1.01934e-05
9.2071e-06
9.46227e-06
9.76655e-06
1.01558e-05
1.07486e-05
1.18525e-05
1.34471e-05
1.41332e-05
1.16902e-05
9.12745e-06
8.16657e-06
7.82414e-06
7.6288e-06
7.50145e-06
7.41506e-06
7.35477e-06
7.31161e-06
7.28035e-06
7.25759e-06
7.24049e-06
7.2265e-06
7.21113e-06
7.18283e-06
7.10816e-06
6.92381e-06
6.59468e-06
2.36286e-05
2.20196e-05
2.09581e-05
2.0566e-05
2.05195e-05
2.13328e-05
2.31646e-05
2.5729e-05
2.85644e-05
3.11258e-05
3.32143e-05
3.46823e-05
3.52607e-05
3.3018e-05
2.66952e-05
1.80138e-05
1.19153e-05
9.59562e-06
9.14272e-06
9.0923e-06
9.11254e-06
9.12013e-06
9.09705e-06
9.0527e-06
9.00664e-06
8.99119e-06
8.82966e-06
8.43029e-06
8.06927e-06
7.81933e-06
7.63742e-06
7.5043e-06
7.40893e-06
7.34124e-06
7.29337e-06
7.25952e-06
7.23537e-06
7.21779e-06
7.20441e-06
7.19282e-06
7.17731e-06
7.13965e-06
7.01813e-06
6.66455e-06
5.8455e-06
2.23967e-05
2.08149e-05
1.94247e-05
1.81423e-05
1.70159e-05
1.60708e-05
1.53381e-05
1.48054e-05
1.44194e-05
1.4131e-05
1.3845e-05
1.34827e-05
1.29348e-05
1.19873e-05
1.07372e-05
9.68371e-06
9.11395e-06
8.85062e-06
8.71844e-06
8.65786e-06
8.63912e-06
8.61565e-06
8.56014e-06
8.47275e-06
8.36073e-06
8.22973e-06
8.06393e-06
7.87414e-06
7.69234e-06
7.53588e-06
7.41194e-06
7.31855e-06
7.24994e-06
7.20054e-06
7.16529e-06
7.14005e-06
2.12637e-05
1.98537e-05
1.86362e-05
1.74806e-05
1.64035e-05
1.54052e-05
1.44937e-05
1.36836e-05
1.29288e-05
1.22356e-05
1.16011e-05
1.10209e-05
1.04983e-05
1.00149e-05
9.57915e-06
9.21652e-06
8.93464e-06
8.72306e-06
8.56614e-06
8.44172e-06
8.33661e-06
8.24023e-06
8.13989e-06
8.02648e-06
7.89834e-06
7.75956e-06
7.60584e-06
7.44657e-06
7.29669e-06
7.16672e-06
7.06145e-06
6.98054e-06
6.92083e-06
6.87801e-06
6.84787e-06
1.86763e-05
1.76191e-05
1.65952e-05
1.56595e-05
1.47937e-05
1.40024e-05
1.32604e-05
1.25467e-05
1.1866e-05
1.12258e-05
1.06308e-05
1.00839e-05
9.58692e-06
9.14053e-06
8.74806e-06
8.41235e-06
8.12882e-06
7.89303e-06
7.70473e-06
7.55733e-06
7.4422e-06
7.34398e-06
7.2488e-06
7.14605e-06
7.02943e-06
6.89794e-06
6.75564e-06
6.6095e-06
6.47144e-06
6.34991e-06
6.24947e-06
6.17094e-06
6.11239e-06
6.07063e-06
6.0422e-06
1.32911e-05
1.26801e-05
1.2017e-05
1.14165e-05
1.08332e-05
1.02783e-05
9.74189e-06
9.22606e-06
8.73719e-06
8.27637e-06
7.84693e-06
7.45037e-06
7.08794e-06
6.76039e-06
6.46932e-06
6.21616e-06
6.0018e-06
5.82448e-06
5.67987e-06
5.56092e-06
5.45591e-06
5.35663e-06
5.25726e-06
5.1543e-06
5.04749e-06
4.93906e-06
4.82951e-06
4.72474e-06
4.62836e-06
4.54464e-06
4.47588e-06
4.4221e-06
4.38171e-06
4.35254e-06
4.33255e-06
0.000993237
0.000802624
0.000743034
0.000721766
0.000695327
0.000719758
0.00077791
0.000765943
0.000623255
0.000268713
0.000155091
0.000142463
0.000132921
0.000134142
0.000131805
0.000131806
0.00013648
0.000153285
0.000180919
0.000214588
0.000250825
0.000271939
0.000269887
0.00027087
0.000279875
0.000277328
0.000233423
8.79875e-05
1.54591e-05
7.92721e-06
7.62126e-06
7.66681e-06
7.68986e-06
7.69237e-06
7.68782e-06
7.6812e-06
7.67446e-06
7.66813e-06
7.66218e-06
7.65574e-06
7.6439e-06
7.60386e-06
7.46892e-06
7.4332e-06
0.00131241
0.000709258
0.00072537
0.000848716
0.000927661
0.000964414
0.000896092
0.000679712
0.000415853
0.000288529
0.000264535
0.00022669
0.000197106
0.00018891
0.000194226
0.000216168
0.000251543
0.000294214
0.000330254
0.000336002
0.000328864
0.000334233
0.000335436
0.000332087
0.000343321
0.000404055
0.000364315
0.000106905
2.97759e-05
1.59328e-05
1.22637e-05
1.17596e-05
1.18043e-05
1.19208e-05
1.20167e-05
1.20887e-05
1.21413e-05
1.21791e-05
1.22046e-05
1.22135e-05
1.21737e-05
1.19403e-05
1.10264e-05
8.16699e-06
0.000938091
0.00043897
0.000249719
0.000226016
0.000236429
0.000257007
0.000271516
0.000274889
0.00025458
0.000224876
0.000202517
0.000182688
0.000178513
0.000186912
0.000199278
0.000224513
0.00026256
0.000290127
0.000303516
0.000307393
0.000301215
0.000271359
0.00026662
0.000286415
0.000349974
0.000391478
0.000379458
0.000340396
0.000283505
0.000237692
8.54234e-05
2.19031e-05
1.48182e-05
1.3955e-05
1.3868e-05
1.39054e-05
1.39547e-05
1.39946e-05
1.40241e-05
1.40418e-05
1.40354e-05
1.39471e-05
1.35654e-05
1.22609e-05
8.40659e-06
0.00025689
0.000188013
0.000159322
0.000150909
0.000153938
0.000160006
0.000165089
0.000168928
0.00017146
0.00017206
0.000173707
0.000178905
0.000190194
0.000208913
0.000236473
0.00026779
0.000285264
0.000285765
0.000273608
0.000203192
0.000152944
0.000142965
0.000156996
0.000257343
0.000369809
0.000403644
0.000390138
0.000350771
0.00028875
0.00013243
3.30698e-05
1.74613e-05
1.50891e-05
1.46528e-05
1.4615e-05
1.4648e-05
1.46872e-05
1.47196e-05
1.47439e-05
1.47569e-05
1.47435e-05
1.46398e-05
1.42314e-05
1.28984e-05
8.88504e-06
0.000112604
0.000116835
0.000125623
0.000134705
0.000143194
0.00015198
0.000160403
0.000169128
0.000178272
0.000188379
0.000200492
0.000216135
0.000236043
0.000259162
0.000275794
0.000281209
0.000241596
0.00013185
5.18488e-05
3.56099e-05
4.42062e-05
6.15623e-05
9.60028e-05
0.000152452
0.000217059
0.000244035
0.000208231
0.000101422
3.11938e-05
1.77844e-05
1.5395e-05
1.48989e-05
1.48429e-05
1.48743e-05
1.49166e-05
1.49531e-05
1.49819e-05
1.50032e-05
1.50146e-05
1.50043e-05
1.4926e-05
1.46428e-05
1.38322e-05
1.18918e-05
5.97766e-05
6.57127e-05
7.56648e-05
9.11595e-05
0.000110106
0.000130222
0.000147863
0.000163018
0.000176979
0.000190774
0.000203139
0.00021365
0.000222274
0.000223145
0.000196239
0.000132115
6.16018e-05
2.64156e-05
1.97293e-05
1.90015e-05
1.99863e-05
2.23552e-05
2.76491e-05
3.85793e-05
5.37449e-05
6.18867e-05
4.57038e-05
2.4705e-05
1.76936e-05
1.59055e-05
1.52452e-05
1.5031e-05
1.49838e-05
1.49916e-05
1.50166e-05
1.5043e-05
1.50659e-05
1.50838e-05
1.50942e-05
1.50881e-05
1.50347e-05
1.48544e-05
1.44029e-05
1.35588e-05
3.34431e-05
3.24529e-05
3.2015e-05
3.19877e-05
3.41221e-05
3.97714e-05
4.93717e-05
6.25046e-05
7.50372e-05
8.57207e-05
9.3763e-05
9.84219e-05
9.85514e-05
9.12802e-05
7.23627e-05
4.72463e-05
2.85349e-05
2.00265e-05
1.75707e-05
1.75839e-05
1.81604e-05
1.8412e-05
1.83293e-05
1.82757e-05
1.87481e-05
2.01e-05
2.08716e-05
1.88541e-05
1.6937e-05
1.5881e-05
1.52786e-05
1.50364e-05
1.49699e-05
1.49732e-05
1.49986e-05
1.50267e-05
1.50516e-05
1.50724e-05
1.50883e-05
1.50971e-05
1.50901e-05
1.50361e-05
1.48555e-05
1.44046e-05
1.3563e-05
3.26913e-05
3.05898e-05
2.89104e-05
2.72984e-05
2.59593e-05
2.48552e-05
2.44012e-05
2.44674e-05
2.50636e-05
2.58354e-05
2.64409e-05
2.67375e-05
2.64705e-05
2.50521e-05
2.23793e-05
1.95283e-05
1.7927e-05
1.7354e-05
1.7326e-05
1.73437e-05
1.72162e-05
1.71145e-05
1.7065e-05
1.69946e-05
1.68821e-05
1.6744e-05
1.65221e-05
1.60824e-05
1.55937e-05
1.52327e-05
1.50358e-05
1.49514e-05
1.4929e-05
1.49352e-05
1.49521e-05
1.49717e-05
1.49905e-05
1.5007e-05
1.50199e-05
1.50258e-05
1.5012e-05
1.49312e-05
1.4647e-05
1.38394e-05
1.19188e-05
2.98982e-05
2.81498e-05
2.66815e-05
2.5263e-05
2.39633e-05
2.27474e-05
2.16374e-05
2.06606e-05
1.98149e-05
1.90515e-05
1.84177e-05
1.79355e-05
1.7555e-05
1.7194e-05
1.68039e-05
1.64625e-05
1.6242e-05
1.61131e-05
1.6026e-05
1.59695e-05
1.59567e-05
1.5934e-05
1.58777e-05
1.57981e-05
1.57045e-05
1.55806e-05
1.54198e-05
1.52239e-05
1.50303e-05
1.48744e-05
1.47774e-05
1.4732e-05
1.47173e-05
1.4719e-05
1.47288e-05
1.47415e-05
2.66456e-05
2.51809e-05
2.41428e-05
2.30765e-05
2.2124e-05
2.12118e-05
2.0357e-05
1.95533e-05
1.88127e-05
1.81413e-05
1.75551e-05
1.70673e-05
1.66497e-05
1.62867e-05
1.59684e-05
1.56921e-05
1.5464e-05
1.52831e-05
1.51431e-05
1.50325e-05
1.49392e-05
1.48626e-05
1.47976e-05
1.47372e-05
1.46753e-05
1.4601e-05
1.45101e-05
1.44022e-05
1.42933e-05
1.42016e-05
1.41362e-05
1.4094e-05
1.40708e-05
1.40608e-05
1.40591e-05
2.08839e-05
1.99773e-05
1.94399e-05
1.87915e-05
1.82408e-05
1.77034e-05
1.71912e-05
1.66848e-05
1.61969e-05
1.5734e-05
1.53033e-05
1.49089e-05
1.4553e-05
1.42294e-05
1.39355e-05
1.36714e-05
1.34447e-05
1.32601e-05
1.3117e-05
1.30105e-05
1.29375e-05
1.28908e-05
1.28597e-05
1.28352e-05
1.28073e-05
1.27667e-05
1.27121e-05
1.26412e-05
1.25596e-05
1.24785e-05
1.24088e-05
1.23556e-05
1.23187e-05
1.22948e-05
1.22805e-05
1.61972e-05
1.55131e-05
1.48646e-05
1.42641e-05
1.3695e-05
1.31548e-05
1.26381e-05
1.21516e-05
1.16938e-05
1.12674e-05
1.0874e-05
1.05141e-05
1.01862e-05
9.88953e-06
9.62387e-06
9.38985e-06
9.18809e-06
9.01948e-06
8.88344e-06
8.77502e-06
8.6834e-06
8.59778e-06
8.51449e-06
8.43187e-06
8.35097e-06
8.26871e-06
8.17786e-06
8.08115e-06
7.98765e-06
7.90378e-06
7.83334e-06
7.77747e-06
7.73522e-06
7.70467e-06
7.68377e-06
0.000788244
0.000772184
0.000788814
0.000806593
0.000821039
0.000839993
0.000830675
0.00077664
0.000544502
0.000232419
0.000174598
0.000167098
0.000154935
0.00014866
0.000129834
0.000120993
0.000127859
0.000155665
0.000193868
0.000226107
0.000257475
0.000285667
0.000293976
0.000293962
0.000291297
0.000273409
0.000190785
4.21922e-05
1.15387e-05
9.26295e-06
9.07302e-06
9.01769e-06
8.97116e-06
8.9334e-06
8.90423e-06
8.88202e-06
8.86502e-06
8.85174e-06
8.8408e-06
8.82941e-06
8.80635e-06
8.72469e-06
8.4436e-06
8.01687e-06
0.0010485
0.000921746
0.00100444
0.00107625
0.00111909
0.00106907
0.000866933
0.000606517
0.000384173
0.000304084
0.000292403
0.000244079
0.000191154
0.000179351
0.000187463
0.000214384
0.000242903
0.000270345
0.000299257
0.000322704
0.000342552
0.000368222
0.000392873
0.000409671
0.000451288
0.000551767
0.000378571
8.97681e-05
3.37272e-05
1.93709e-05
1.57483e-05
1.49189e-05
1.48205e-05
1.48668e-05
1.49309e-05
1.49853e-05
1.5028e-05
1.50599e-05
1.50804e-05
1.50793e-05
1.50058e-05
1.46611e-05
1.34083e-05
8.99592e-06
0.000650326
0.000404045
0.000317712
0.000287935
0.000291664
0.000306636
0.000312792
0.000301351
0.000275777
0.000248422
0.000212262
0.000163792
0.000132019
0.000130557
0.000142744
0.000161581
0.000183394
0.000199606
0.000209877
0.000222868
0.000241667
0.000276451
0.000338589
0.000412926
0.000472464
0.000480148
0.000470507
0.000413716
0.00038264
0.000279977
7.10221e-05
2.51379e-05
1.92174e-05
1.7709e-05
1.73708e-05
1.73124e-05
1.73183e-05
1.73373e-05
1.73548e-05
1.73627e-05
1.734e-05
1.72059e-05
1.66989e-05
1.50422e-05
9.40731e-06
0.000212109
0.00016928
0.000145615
0.000138496
0.000141627
0.000147502
0.000151881
0.000153613
0.000150749
0.000139897
0.000127982
0.000123165
0.000126874
0.000135352
0.000149498
0.000166998
0.000176752
0.000166689
0.000131595
0.000104542
0.000105043
0.000137112
0.000219016
0.000328023
0.000421021
0.000456588
0.000455324
0.000435801
0.000337206
0.000114214
3.50777e-05
2.30094e-05
1.94105e-05
1.84909e-05
1.82801e-05
1.82414e-05
1.82454e-05
1.82591e-05
1.82715e-05
1.82739e-05
1.8242e-05
1.8091e-05
1.75655e-05
1.59276e-05
1.02685e-05
9.99587e-05
0.000101773
0.000105273
0.000110088
0.000114557
0.000119085
0.000122819
0.000125967
0.000129927
0.000137532
0.00014987
0.000165019
0.000179816
0.000192749
0.000193089
0.000163442
0.000111087
5.37432e-05
3.95517e-05
4.20248e-05
5.28126e-05
7.33942e-05
0.000111664
0.000175153
0.000244373
0.000268223
0.000211456
8.58143e-05
3.47114e-05
2.40808e-05
2.02818e-05
1.90654e-05
1.87172e-05
1.86198e-05
1.85991e-05
1.86029e-05
1.86134e-05
1.8623e-05
1.86238e-05
1.85956e-05
1.8474e-05
1.80911e-05
1.70729e-05
1.46845e-05
5.74102e-05
5.84886e-05
6.08256e-05
6.51028e-05
7.21705e-05
8.11522e-05
9.0185e-05
9.9249e-05
0.000109223
0.000120917
0.000133834
0.000144537
0.000145277
0.000131014
9.6186e-05
5.38351e-05
3.59533e-05
2.87818e-05
2.69897e-05
2.72033e-05
2.85579e-05
3.09022e-05
3.57174e-05
4.58161e-05
5.99582e-05
6.50822e-05
4.73434e-05
3.02683e-05
2.43271e-05
2.12072e-05
1.96765e-05
1.90554e-05
1.88228e-05
1.8742e-05
1.87211e-05
1.87222e-05
1.87301e-05
1.87379e-05
1.87387e-05
1.87162e-05
1.86243e-05
1.83585e-05
1.77442e-05
1.6634e-05
4.42538e-05
4.21715e-05
4.05452e-05
3.91371e-05
3.81651e-05
3.78889e-05
3.81603e-05
3.89212e-05
4.01578e-05
4.19037e-05
4.35653e-05
4.44842e-05
4.37842e-05
4.07254e-05
3.63418e-05
3.15393e-05
2.76854e-05
2.55499e-05
2.44274e-05
2.44153e-05
2.48644e-05
2.52224e-05
2.53612e-05
2.5602e-05
2.61636e-05
2.7245e-05
2.75486e-05
2.54361e-05
2.31294e-05
2.11326e-05
1.97864e-05
1.91381e-05
1.88667e-05
1.87598e-05
1.87254e-05
1.87203e-05
1.87257e-05
1.8734e-05
1.87411e-05
1.87411e-05
1.87179e-05
1.86255e-05
1.83595e-05
1.7746e-05
1.66393e-05
4.22569e-05
3.98793e-05
3.79539e-05
3.62236e-05
3.46753e-05
3.31872e-05
3.17782e-05
3.04631e-05
2.92897e-05
2.82601e-05
2.7471e-05
2.6918e-05
2.65255e-05
2.60673e-05
2.53596e-05
2.44438e-05
2.33846e-05
2.27282e-05
2.24144e-05
2.22434e-05
2.21384e-05
2.21397e-05
2.22334e-05
2.23437e-05
2.24202e-05
2.2399e-05
2.2093e-05
2.13536e-05
2.04126e-05
1.96143e-05
1.91131e-05
1.88437e-05
1.87095e-05
1.86497e-05
1.86276e-05
1.8623e-05
1.86262e-05
1.86322e-05
1.86371e-05
1.86342e-05
1.86029e-05
1.84792e-05
1.80956e-05
1.70811e-05
1.472e-05
3.81145e-05
3.60204e-05
3.4306e-05
3.2708e-05
3.12519e-05
2.98511e-05
2.85038e-05
2.72188e-05
2.60276e-05
2.49605e-05
2.40537e-05
2.33356e-05
2.27756e-05
2.22798e-05
2.1766e-05
2.12449e-05
2.07923e-05
2.04534e-05
2.02284e-05
2.01222e-05
2.01099e-05
2.01289e-05
2.01358e-05
2.013e-05
2.01137e-05
2.00459e-05
1.9859e-05
1.95356e-05
1.916e-05
1.88254e-05
1.85867e-05
1.8439e-05
1.83588e-05
1.83187e-05
1.8301e-05
1.82955e-05
3.31799e-05
3.14621e-05
3.01834e-05
2.89387e-05
2.78302e-05
2.67649e-05
2.5744e-05
2.47511e-05
2.38071e-05
2.29371e-05
2.2165e-05
2.1506e-05
2.09446e-05
2.04425e-05
1.99751e-05
1.95479e-05
1.91872e-05
1.89129e-05
1.8725e-05
1.8602e-05
1.85217e-05
1.84743e-05
1.84486e-05
1.84333e-05
1.84178e-05
1.83814e-05
1.82925e-05
1.8141e-05
1.79572e-05
1.77817e-05
1.76442e-05
1.75491e-05
1.74872e-05
1.74493e-05
1.74276e-05
2.58686e-05
2.47623e-05
2.40539e-05
2.32536e-05
2.25676e-05
2.18983e-05
2.12533e-05
2.06137e-05
1.99945e-05
1.94036e-05
1.88532e-05
1.83523e-05
1.79009e-05
1.74895e-05
1.71148e-05
1.67834e-05
1.6507e-05
1.62912e-05
1.61329e-05
1.60218e-05
1.59524e-05
1.592e-05
1.59101e-05
1.59104e-05
1.59063e-05
1.58881e-05
1.58402e-05
1.57541e-05
1.56422e-05
1.55256e-05
1.54207e-05
1.53365e-05
1.52743e-05
1.52308e-05
1.52013e-05
1.80078e-05
1.72829e-05
1.66038e-05
1.59728e-05
1.53721e-05
1.47977e-05
1.42468e-05
1.37276e-05
1.32369e-05
1.27797e-05
1.23571e-05
1.19697e-05
1.16156e-05
1.12942e-05
1.1005e-05
1.07491e-05
1.05274e-05
1.03409e-05
1.01911e-05
1.00773e-05
9.9883e-06
9.90757e-06
9.83051e-06
9.75507e-06
9.68211e-06
9.60165e-06
9.50722e-06
9.40202e-06
9.2939e-06
9.19145e-06
9.1013e-06
9.0268e-06
8.96824e-06
8.92414e-06
8.89238e-06
0.000747484
0.000787402
0.000851239
0.000883077
0.000887792
0.000870744
0.000804652
0.000660628
0.000357933
0.000201578
0.000183609
0.000180058
0.000166331
0.000157122
0.00013047
0.000105347
0.000108925
0.00013039
0.000170152
0.000205025
0.000242875
0.000278882
0.000285202
0.000281202
0.00026639
0.00022226
9.03149e-05
1.90693e-05
1.07414e-05
9.96887e-06
9.77227e-06
9.66849e-06
9.59703e-06
9.54635e-06
9.5099e-06
9.48327e-06
9.46344e-06
9.44823e-06
9.43562e-06
9.42108e-06
9.38673e-06
9.26273e-06
8.85261e-06
8.17975e-06
0.00103612
0.00107702
0.00114441
0.00119151
0.00118708
0.000991826
0.000683557
0.000457587
0.00031928
0.000289865
0.00029787
0.000261266
0.000184614
0.000154526
0.000154251
0.000170966
0.000196585
0.000226586
0.000264807
0.000308336
0.000345925
0.000389921
0.000429418
0.000440244
0.00050456
0.000543606
0.000297753
6.94133e-05
3.10228e-05
2.05122e-05
1.7473e-05
1.66584e-05
1.65158e-05
1.65286e-05
1.6573e-05
1.66166e-05
1.6653e-05
1.66807e-05
1.66969e-05
1.66861e-05
1.65813e-05
1.61467e-05
1.46544e-05
9.35766e-06
0.000501363
0.000399863
0.00034713
0.000322659
0.000322949
0.000329192
0.000319736
0.000293924
0.000270185
0.000249856
0.000216327
0.000159804
0.000114275
9.87771e-05
0.000100362
0.000106279
0.00011513
0.000127268
0.000145409
0.000175892
0.000223377
0.00028791
0.000370497
0.00045829
0.000499861
0.000501864
0.000495962
0.000461182
0.000419768
0.000223196
4.97155e-05
2.66043e-05
2.13593e-05
1.97662e-05
1.9353e-05
1.92519e-05
1.92357e-05
1.92424e-05
1.92523e-05
1.92529e-05
1.92157e-05
1.90443e-05
1.84475e-05
1.65644e-05
9.9218e-06
0.000175903
0.00014859
0.000133013
0.000127385
0.000130474
0.000138105
0.000142804
0.000143285
0.000138434
0.000125276
0.000104105
9.06507e-05
8.48781e-05
8.31198e-05
8.22768e-05
8.10015e-05
7.76711e-05
7.40199e-05
7.37394e-05
8.06205e-05
9.95075e-05
0.000144085
0.000225827
0.00033373
0.000427928
0.000469626
0.00047785
0.000447226
0.000287886
7.8583e-05
3.5832e-05
2.54811e-05
2.1722e-05
2.06746e-05
2.03868e-05
2.03079e-05
2.02909e-05
2.02925e-05
2.02969e-05
2.0291e-05
2.02429e-05
2.00544e-05
1.94497e-05
1.76309e-05
1.10785e-05
8.13309e-05
8.04258e-05
8.13255e-05
8.40713e-05
8.68221e-05
8.87908e-05
8.96142e-05
8.88086e-05
8.61709e-05
8.34392e-05
8.19423e-05
8.11981e-05
7.97567e-05
7.60371e-05
6.87738e-05
6.01905e-05
5.01285e-05
4.33657e-05
4.20451e-05
4.7025e-05
5.72766e-05
7.72433e-05
0.000113908
0.000170879
0.000228203
0.000239513
0.00016429
6.52044e-05
3.64724e-05
2.71768e-05
2.29281e-05
2.14488e-05
2.09603e-05
2.07898e-05
2.07315e-05
2.07151e-05
2.07139e-05
2.07154e-05
2.07078e-05
2.06631e-05
2.05047e-05
2.00476e-05
1.88947e-05
1.6242e-05
5.9703e-05
5.8317e-05
5.77806e-05
5.81633e-05
5.93568e-05
6.03535e-05
6.08858e-05
6.09199e-05
6.04159e-05
5.97977e-05
5.93833e-05
5.91967e-05
5.84419e-05
5.46343e-05
4.7771e-05
4.17756e-05
3.7731e-05
3.51251e-05
3.37878e-05
3.41731e-05
3.55339e-05
3.75195e-05
4.09326e-05
4.77913e-05
5.75408e-05
5.90933e-05
4.44663e-05
3.3583e-05
2.79087e-05
2.41151e-05
2.22115e-05
2.13942e-05
2.10593e-05
2.0925e-05
2.08751e-05
2.08599e-05
2.08579e-05
2.08585e-05
2.08512e-05
2.08127e-05
2.06849e-05
2.03467e-05
1.96073e-05
1.83094e-05
5.27866e-05
5.03224e-05
4.85062e-05
4.71081e-05
4.59611e-05
4.48016e-05
4.34979e-05
4.20527e-05
4.05364e-05
3.90563e-05
3.76249e-05
3.65254e-05
3.58161e-05
3.52181e-05
3.42603e-05
3.27189e-05
3.11524e-05
2.97349e-05
2.89269e-05
2.89098e-05
2.93e-05
2.97293e-05
3.01086e-05
3.05287e-05
3.10829e-05
3.16979e-05
3.13603e-05
2.92044e-05
2.65714e-05
2.4059e-05
2.23747e-05
2.15275e-05
2.11406e-05
2.0967e-05
2.08947e-05
2.08677e-05
2.08602e-05
2.08602e-05
2.08609e-05
2.08532e-05
2.08142e-05
2.06859e-05
2.03476e-05
1.9609e-05
1.83148e-05
4.92655e-05
4.66876e-05
4.4617e-05
4.28288e-05
4.12099e-05
3.96107e-05
3.79811e-05
3.63112e-05
3.46679e-05
3.31736e-05
3.19152e-05
3.09394e-05
3.02053e-05
2.95426e-05
2.87077e-05
2.76537e-05
2.66381e-05
2.59294e-05
2.55368e-05
2.53407e-05
2.52807e-05
2.53691e-05
2.55379e-05
2.57128e-05
2.58406e-05
2.58037e-05
2.53616e-05
2.44001e-05
2.31967e-05
2.21639e-05
2.14933e-05
2.11122e-05
2.09083e-05
2.08055e-05
2.07574e-05
2.07368e-05
2.07298e-05
2.07287e-05
2.07278e-05
2.07174e-05
2.06701e-05
2.05097e-05
2.00519e-05
1.8903e-05
1.62793e-05
4.40157e-05
4.1719e-05
3.98596e-05
3.81649e-05
3.66067e-05
3.50705e-05
3.35372e-05
3.20148e-05
3.0549e-05
2.9201e-05
2.80153e-05
2.70265e-05
2.62119e-05
2.5488e-05
2.47859e-05
2.41167e-05
2.35444e-05
2.31112e-05
2.28326e-05
2.2706e-05
2.26931e-05
2.27301e-05
2.27668e-05
2.27916e-05
2.27947e-05
2.27177e-05
2.2475e-05
2.20509e-05
2.15577e-05
2.11149e-05
2.07906e-05
2.05811e-05
2.0458e-05
2.03906e-05
2.0355e-05
2.03376e-05
3.76906e-05
3.58258e-05
3.44009e-05
3.30421e-05
3.18201e-05
3.06316e-05
2.94663e-05
2.83068e-05
2.71802e-05
2.61245e-05
2.51724e-05
2.43443e-05
2.36287e-05
2.29882e-05
2.24004e-05
2.18734e-05
2.14358e-05
2.11089e-05
2.08914e-05
2.07593e-05
2.06875e-05
2.06574e-05
2.06511e-05
2.06539e-05
2.06505e-05
2.0612e-05
2.04999e-05
2.03053e-05
2.00682e-05
1.98388e-05
1.96544e-05
1.95235e-05
1.94367e-05
1.93812e-05
1.93472e-05
2.91404e-05
2.79291e-05
2.71122e-05
2.62185e-05
2.54406e-05
2.46774e-05
2.39291e-05
2.31829e-05
2.24533e-05
2.1753e-05
2.10977e-05
2.04994e-05
1.99596e-05
1.94713e-05
1.90316e-05
1.86486e-05
1.83339e-05
1.80927e-05
1.79213e-05
1.78061e-05
1.77372e-05
1.77092e-05
1.77059e-05
1.77125e-05
1.77119e-05
1.76924e-05
1.76334e-05
1.75269e-05
1.73887e-05
1.72457e-05
1.71178e-05
1.70144e-05
1.69369e-05
1.68817e-05
1.68433e-05
1.9023e-05
1.82828e-05
1.75888e-05
1.69419e-05
1.63195e-05
1.57201e-05
1.51464e-05
1.46013e-05
1.40859e-05
1.36047e-05
1.31596e-05
1.27516e-05
1.2379e-05
1.20412e-05
1.17374e-05
1.14689e-05
1.12367e-05
1.10416e-05
1.08835e-05
1.07647e-05
1.06762e-05
1.05982e-05
1.05246e-05
1.04532e-05
1.03828e-05
1.03e-05
1.01998e-05
1.00859e-05
9.96685e-06
9.85256e-06
9.75078e-06
9.66567e-06
9.59802e-06
9.54644e-06
9.50858e-06
0.000724528
0.000800821
0.000874532
0.000902026
0.000892873
0.000833741
0.000655691
0.000446293
0.000249922
0.000188445
0.000185817
0.00018725
0.000178157
0.000168112
0.000136666
9.04276e-05
8.79381e-05
0.000100805
0.000134988
0.000170725
0.000210311
0.000237602
0.000240167
0.000236153
0.000207085
0.000120416
3.34785e-05
1.28062e-05
1.07734e-05
1.03487e-05
1.01472e-05
1.00237e-05
9.94208e-06
9.88598e-06
9.84641e-06
9.81785e-06
9.79678e-06
9.78067e-06
9.76704e-06
9.7497e-06
9.70476e-06
9.54455e-06
9.03915e-06
8.22509e-06
0.00109534
0.00114681
0.00120908
0.00124894
0.00117353
0.000844169
0.000525521
0.000355274
0.000275727
0.000261815
0.000285273
0.000271291
0.00019172
0.000143726
0.000126186
0.000131076
0.000153517
0.000186256
0.000228864
0.00028021
0.000336136
0.00039385
0.000415545
0.000435
0.000494952
0.000458124
0.0001688
4.5257e-05
2.65182e-05
2.06556e-05
1.8352e-05
1.76782e-05
1.75342e-05
1.75291e-05
1.75591e-05
1.75941e-05
1.76249e-05
1.76485e-05
1.76603e-05
1.76398e-05
1.75067e-05
1.69978e-05
1.53283e-05
9.52384e-06
0.000463559
0.000402991
0.000366132
0.000348651
0.00034422
0.000337692
0.000311872
0.000273581
0.00024877
0.000232295
0.000213545
0.000165209
0.000115045
9.04491e-05
8.48142e-05
8.5589e-05
8.93418e-05
9.95405e-05
0.000117489
0.00014663
0.000194161
0.000268057
0.000360379
0.000442071
0.000482818
0.000497212
0.000492132
0.000458347
0.000352799
0.000103249
3.80939e-05
2.68309e-05
2.23647e-05
2.09674e-05
2.0563e-05
2.04464e-05
2.04177e-05
2.04162e-05
2.04201e-05
2.04142e-05
2.03634e-05
2.01594e-05
1.94899e-05
1.74391e-05
1.0199e-05
0.000168297
0.000145662
0.000131437
0.000125051
0.000124225
0.000129462
0.000133812
0.000133392
0.00013026
0.000120891
9.86416e-05
8.37811e-05
7.59775e-05
7.27223e-05
7.01982e-05
6.64614e-05
6.37522e-05
6.3533e-05
6.63634e-05
7.39046e-05
9.00575e-05
0.000124088
0.000197617
0.000300964
0.000393025
0.000440827
0.000445253
0.000376902
0.000154275
5.50093e-05
3.51784e-05
2.62391e-05
2.2997e-05
2.20095e-05
2.17013e-05
2.16014e-05
2.15708e-05
2.15636e-05
2.15615e-05
2.1548e-05
2.14848e-05
2.12633e-05
2.05934e-05
1.86382e-05
1.15481e-05
7.65979e-05
7.50293e-05
7.45972e-05
7.5306e-05
7.64481e-05
7.72024e-05
7.74619e-05
7.66704e-05
7.38935e-05
6.98213e-05
6.61823e-05
6.28198e-05
5.96366e-05
5.64171e-05
5.3602e-05
5.14945e-05
4.905e-05
4.69213e-05
4.74677e-05
5.0491e-05
5.73194e-05
7.12226e-05
9.65021e-05
0.00013408
0.000167522
0.000160715
9.56679e-05
5.13916e-05
3.66494e-05
2.83425e-05
2.43702e-05
2.29029e-05
2.2368e-05
2.21601e-05
2.20786e-05
2.20483e-05
2.20384e-05
2.20333e-05
2.20177e-05
2.1957e-05
2.17643e-05
2.12413e-05
1.99729e-05
1.71128e-05
6.42913e-05
6.20592e-05
6.05923e-05
5.97228e-05
5.91106e-05
5.85708e-05
5.77968e-05
5.66023e-05
5.49792e-05
5.32051e-05
5.15112e-05
5.0134e-05
4.88285e-05
4.73834e-05
4.54494e-05
4.29485e-05
4.03523e-05
3.84813e-05
3.79814e-05
3.87135e-05
4.00462e-05
4.15791e-05
4.34881e-05
4.66473e-05
5.08191e-05
4.95576e-05
4.15038e-05
3.49392e-05
2.94646e-05
2.56531e-05
2.37235e-05
2.28531e-05
2.24738e-05
2.23101e-05
2.22417e-05
2.2215e-05
2.22055e-05
2.22e-05
2.21847e-05
2.213e-05
2.19668e-05
2.15596e-05
2.07024e-05
1.92331e-05
5.92322e-05
5.66424e-05
5.47437e-05
5.33095e-05
5.21005e-05
5.07681e-05
4.91919e-05
4.74022e-05
4.54665e-05
4.35183e-05
4.16535e-05
4.00128e-05
3.86512e-05
3.74694e-05
3.6233e-05
3.47988e-05
3.33315e-05
3.22275e-05
3.17018e-05
3.17125e-05
3.20195e-05
3.24382e-05
3.28879e-05
3.33451e-05
3.37691e-05
3.3957e-05
3.31557e-05
3.10437e-05
2.82791e-05
2.56516e-05
2.39215e-05
2.30181e-05
2.25795e-05
2.23687e-05
2.22723e-05
2.22302e-05
2.2213e-05
2.22066e-05
2.22018e-05
2.21864e-05
2.21313e-05
2.19677e-05
2.15603e-05
2.07039e-05
1.92382e-05
5.45279e-05
5.18469e-05
4.96956e-05
4.78526e-05
4.61676e-05
4.44605e-05
4.26461e-05
4.07072e-05
3.87119e-05
3.68071e-05
3.51193e-05
3.37318e-05
3.26152e-05
3.16202e-05
3.05885e-05
2.95083e-05
2.85379e-05
2.78452e-05
2.74497e-05
2.72751e-05
2.72794e-05
2.74209e-05
2.76088e-05
2.77738e-05
2.78723e-05
2.77592e-05
2.72008e-05
2.61196e-05
2.48187e-05
2.37119e-05
2.29762e-05
2.25412e-05
2.22982e-05
2.21688e-05
2.21033e-05
2.20712e-05
2.20566e-05
2.20501e-05
2.20442e-05
2.20265e-05
2.19635e-05
2.17689e-05
2.12452e-05
1.99807e-05
1.7149e-05
4.83807e-05
4.59803e-05
4.40449e-05
4.22927e-05
4.06529e-05
3.89963e-05
3.72915e-05
3.55506e-05
3.38316e-05
3.22129e-05
3.07552e-05
2.95027e-05
2.84468e-05
2.75196e-05
2.66685e-05
2.59018e-05
2.52663e-05
2.4794e-05
2.44975e-05
2.4363e-05
2.43434e-05
2.43831e-05
2.44292e-05
2.44603e-05
2.44549e-05
2.43488e-05
2.40563e-05
2.35732e-05
2.30238e-05
2.25317e-05
2.21652e-05
2.19222e-05
2.17737e-05
2.16884e-05
2.16406e-05
2.16147e-05
4.09149e-05
3.89707e-05
3.74631e-05
3.60356e-05
3.47284e-05
3.34378e-05
3.2145e-05
3.08364e-05
2.95455e-05
2.83204e-05
2.72028e-05
2.62196e-05
2.5365e-05
2.46075e-05
2.39282e-05
2.3335e-05
2.28522e-05
2.2496e-05
2.22611e-05
2.2124e-05
2.20567e-05
2.20348e-05
2.20365e-05
2.20442e-05
2.20387e-05
2.19875e-05
2.18526e-05
2.16295e-05
2.13622e-05
2.11041e-05
2.08939e-05
2.07418e-05
2.06394e-05
2.05726e-05
2.05302e-05
3.129e-05
3.00246e-05
2.91488e-05
2.82038e-05
2.73665e-05
2.65355e-05
2.57071e-05
2.48757e-05
2.4056e-05
2.32658e-05
2.25243e-05
2.18463e-05
2.12354e-05
2.06876e-05
2.02019e-05
1.97856e-05
1.94479e-05
1.91919e-05
1.90127e-05
1.88966e-05
1.88281e-05
1.8801e-05
1.87989e-05
1.88048e-05
1.88013e-05
1.87748e-05
1.87038e-05
1.85825e-05
1.84289e-05
1.82711e-05
1.81307e-05
1.80166e-05
1.79302e-05
1.78677e-05
1.78237e-05
1.95629e-05
1.88376e-05
1.81375e-05
1.74849e-05
1.68484e-05