/*--------------------------------*- C++ -*----------------------------------*\
| =========                 |                                                 |
| \\      /  F ield         | OpenFOAM: The Open Source CFD Toolbox           |
|  \\    /   O peration     | Version:  2.3.1                                 |
|   \\  /    A nd           | Web:      www.OpenFOAM.org                      |
|    \\/     M anipulation  |                                                 |
\*---------------------------------------------------------------------------*/
FoamFile
{
    version     2.0;
    format      ascii;
    class       volScalarField;
    location    "10";
    object      k_0;
}
// * * * * * * * * * * * * * * * * * * * * * * * * * * * * * * * * * * * * * //

dimensions      [0 2 -2 0 0 0 0];

internalField   nonuniform List<scalar> 
38152
(
0.000993536
0.000783668
0.00064702
0.000627277
0.000594279
0.000538104
0.000552103
0.000579416
0.000542614
0.000298205
0.000126274
0.000104703
9.61692e-05
9.26419e-05
9.98715e-05
0.000107775
0.000115664
0.00012416
0.00013171
0.000147398
0.000182484
0.000202008
0.000200843
0.000195855
0.000207068
0.000218569
0.000206979
0.000117075
2.14178e-05
6.49046e-06
5.19064e-06
4.87917e-06
4.69918e-06
4.58096e-06
4.50083e-06
4.44504e-06
4.4052e-06
4.37605e-06
4.35416e-06
4.33712e-06
4.32271e-06
4.30638e-06
4.29823e-06
5.1356e-06
0.00102297
0.000486569
0.000256921
0.000264136
0.000302449
0.000341823
0.000329349
0.000272373
0.000218351
0.000153558
0.000143321
0.000134847
0.000131604
0.000134585
0.000139404
0.000149433
0.000168291
0.000192243
0.000209339
0.000219272
0.000228918
0.000240003
0.000241731
0.000232644
0.000239665
0.000261778
0.000229115
8.69156e-05
2.31658e-05
1.114e-05
7.01831e-06
6.49649e-06
6.33075e-06
6.23145e-06
6.16377e-06
6.11545e-06
6.07998e-06
6.05323e-06
6.03226e-06
6.01326e-06
5.9841e-06
5.89138e-06
5.56148e-06
5.83497e-06
0.000893038
0.000438634
0.000127228
0.00010553
0.000116278
0.000124847
0.000129599
0.000131392
0.000131238
0.000128121
0.00012691
0.000127252
0.000130133
0.000136372
0.000144949
0.00016194
0.000184417
0.000201518
0.000211791
0.00021566
0.000215302
0.00020344
0.000182952
0.000185492
0.000196942
0.000228217
0.000250962
0.000245528
0.000215539
0.000190111
8.76694e-05
1.80351e-05
8.12692e-06
7.2911e-06
7.09085e-06
6.98636e-06
6.9223e-06
6.87986e-06
6.84996e-06
6.82693e-06
6.80314e-06
6.75383e-06
6.58639e-06
6.03728e-06
5.91724e-06
0.000226972
0.000112352
8.98176e-05
9.82168e-05
0.000108394
0.00011573
0.000119599
0.000121542
0.000123548
0.000125845
0.000128712
0.000133338
0.000141718
0.000154543
0.000170664
0.000185189
0.000193297
0.00019846
0.000197805
0.000193755
0.000187417
0.000158879
0.000104332
0.000104641
0.000148839
0.000210839
0.000232226
0.000232319
0.000214052
0.000131559
3.04608e-05
9.4998e-06
7.73338e-06
7.46024e-06
7.33326e-06
7.25654e-06
7.20547e-06
7.16947e-06
7.14286e-06
7.12126e-06
7.09655e-06
7.04098e-06
6.85555e-06
6.26506e-06
5.99603e-06
5.62056e-05
5.96444e-05
6.84155e-05
8.15113e-05
9.50399e-05
0.000105097
0.00011284
0.00011966
0.000125583
0.000131688
0.000137996
0.00014641
0.000157959
0.000171231
0.000182258
0.000186948
0.000184503
0.000166521
9.04746e-05
3.17198e-05
2.64015e-05
3.41541e-05
5.11392e-05
7.79549e-05
0.000116062
0.00014857
0.000149276
9.72168e-05
2.79875e-05
1.01451e-05
8.03993e-06
7.68653e-06
7.51696e-06
7.41094e-06
7.34067e-06
7.29249e-06
7.25857e-06
7.23379e-06
7.21403e-06
7.19264e-06
7.15025e-06
7.02604e-06
6.66759e-06
5.85254e-06
3.57764e-05
3.8648e-05
4.42224e-05
5.40439e-05
6.75186e-05
8.29254e-05
9.68548e-05
0.000107859
0.00011692
0.000124255
0.000130971
0.000139031
0.000149201
0.000159805
0.000163011
0.000156288
0.000113733
3.97059e-05
1.31029e-05
1.18004e-05
1.34104e-05
1.60577e-05
2.07345e-05
2.89805e-05
4.06423e-05
4.91363e-05
3.99331e-05
1.98539e-05
1.00135e-05
8.2532e-06
7.83438e-06
7.61737e-06
7.48254e-06
7.39623e-06
7.33915e-06
7.29986e-06
7.27177e-06
7.25091e-06
7.23416e-06
7.21673e-06
7.18679e-06
7.11099e-06
6.92531e-06
6.59367e-06
2.63652e-05
2.60493e-05
2.67533e-05
2.87684e-05
3.2407e-05
3.80281e-05
4.5795e-05
5.68692e-05
6.90256e-05
7.97165e-05
8.83944e-05
9.56811e-05
0.000102598
0.000106643
0.000103474
8.22162e-05
4.60795e-05
1.921e-05
1.01874e-05
9.20787e-06
9.46322e-06
9.76754e-06
1.01568e-05
1.07496e-05
1.18535e-05
1.34469e-05
1.41261e-05
1.16801e-05
9.12315e-06
8.16573e-06
7.82402e-06
7.62892e-06
7.50171e-06
7.41539e-06
7.35515e-06
7.31202e-06
7.28079e-06
7.25805e-06
7.24095e-06
7.22697e-06
7.21162e-06
7.18332e-06
7.10868e-06
6.92436e-06
6.59527e-06
2.36262e-05
2.20174e-05
2.09553e-05
2.0563e-05
2.05165e-05
2.13289e-05
2.31592e-05
2.57213e-05
2.85536e-05
3.11121e-05
3.31982e-05
3.46639e-05
3.52387e-05
3.29912e-05
2.66663e-05
1.79924e-05
1.19062e-05
9.59407e-06
9.14308e-06
9.09288e-06
9.1131e-06
9.12057e-06
9.0974e-06
9.05296e-06
9.0068e-06
8.99112e-06
8.82891e-06
8.42952e-06
8.06898e-06
7.81929e-06
7.63754e-06
7.50453e-06
7.40924e-06
7.34161e-06
7.29378e-06
7.25996e-06
7.23583e-06
7.21826e-06
7.20489e-06
7.19331e-06
7.1778e-06
7.14016e-06
7.01866e-06
6.66511e-06
5.84608e-06
2.23944e-05
2.08131e-05
1.94231e-05
1.81409e-05
1.70145e-05
1.60694e-05
1.53366e-05
1.48035e-05
1.44169e-05
1.41279e-05
1.38414e-05
1.34787e-05
1.29304e-05
1.19831e-05
1.07341e-05
9.68249e-06
9.1139e-06
8.85098e-06
8.71894e-06
8.6584e-06
8.63964e-06
8.61608e-06
8.56047e-06
8.47299e-06
8.36091e-06
8.22983e-06
8.06396e-06
7.87418e-06
7.69244e-06
7.53607e-06
7.41221e-06
7.31889e-06
7.25034e-06
7.20097e-06
7.16575e-06
7.14053e-06
2.12616e-05
1.9852e-05
1.86346e-05
1.74792e-05
1.64023e-05
1.54042e-05
1.44928e-05
1.36828e-05
1.29281e-05
1.2235e-05
1.16005e-05
1.10204e-05
1.0498e-05
1.00147e-05
9.57911e-06
9.21666e-06
8.93494e-06
8.72345e-06
8.56659e-06
8.44217e-06
8.33705e-06
8.24064e-06
8.14025e-06
8.02678e-06
7.89859e-06
7.75977e-06
7.60602e-06
7.44675e-06
7.29691e-06
7.16701e-06
7.06181e-06
6.98094e-06
6.92128e-06
6.87849e-06
6.84838e-06
1.86747e-05
1.76177e-05
1.6594e-05
1.56585e-05
1.47928e-05
1.40017e-05
1.32597e-05
1.25461e-05
1.18655e-05
1.12254e-05
1.06305e-05
1.00837e-05
9.58684e-06
9.14055e-06
8.74818e-06
8.41258e-06
8.12912e-06
7.8934e-06
7.70516e-06
7.5578e-06
7.44268e-06
7.34444e-06
7.24921e-06
7.14642e-06
7.02974e-06
6.89822e-06
6.75589e-06
6.60977e-06
6.47174e-06
6.35026e-06
6.24987e-06
6.17139e-06
6.11289e-06
6.07116e-06
6.04274e-06
1.32904e-05
1.26793e-05
1.20164e-05
1.1416e-05
1.08327e-05
1.02779e-05
9.74154e-06
9.22577e-06
8.73697e-06
8.27622e-06
7.84685e-06
7.45036e-06
7.088e-06
6.76052e-06
6.46951e-06
6.21641e-06
6.00211e-06
5.82484e-06
5.68027e-06
5.56133e-06
5.45631e-06
5.35702e-06
5.25763e-06
5.15465e-06
5.04783e-06
4.93939e-06
4.82984e-06
4.72509e-06
4.62875e-06
4.54505e-06
4.47634e-06
4.42258e-06
4.38222e-06
4.35307e-06
4.3331e-06
0.000992295
0.000802247
0.000743222
0.000721855
0.000695622
0.000720545
0.000778333
0.000766036
0.000621745
0.000267244
0.000154966
0.000142506
0.000132969
0.000134194
0.000131846
0.000131851
0.000136538
0.000153375
0.000181027
0.000214725
0.000250965
0.000272021
0.000269943
0.000270962
0.000279965
0.000277375
0.000233229
8.76047e-05
1.54025e-05
7.92509e-06
7.62222e-06
7.66779e-06
7.69077e-06
7.69324e-06
7.68868e-06
7.68205e-06
7.67532e-06
7.66899e-06
7.66304e-06
7.6566e-06
7.64477e-06
7.60473e-06
7.46981e-06
7.43411e-06
0.00130886
0.000708574
0.000726131
0.000849349
0.000928253
0.000964635
0.000895636
0.000678467
0.00041466
0.000288287
0.000264508
0.000226665
0.000197135
0.000188971
0.000194311
0.000216288
0.000251687
0.000294383
0.000330392
0.000336089
0.000328961
0.000334368
0.00033554
0.000332228
0.000343473
0.000404291
0.00036396
0.000106532
2.97468e-05
1.59165e-05
1.2262e-05
1.17605e-05
1.18056e-05
1.19221e-05
1.2018e-05
1.20899e-05
1.21425e-05
1.21802e-05
1.22057e-05
1.22146e-05
1.21748e-05
1.19415e-05
1.10275e-05
8.16792e-06
0.000935634
0.000437368
0.000249525
0.000226035
0.000236496
0.00025707
0.000271559
0.00027493
0.000254428
0.000224796
0.000202459
0.00018269
0.000178572
0.000186995
0.000199373
0.000224644
0.000262707
0.000290259
0.000303638
0.000307502
0.000301278
0.000271397
0.000266733
0.0002866
0.000350262
0.000391552
0.000379493
0.000340327
0.000283622
0.000237568
8.51213e-05
2.18608e-05
1.48148e-05
1.39554e-05
1.38691e-05
1.39065e-05
1.39558e-05
1.39957e-05
1.40252e-05
1.40428e-05
1.40365e-05
1.39482e-05
1.35665e-05
1.2262e-05
8.40751e-06
0.000256482
0.000187837
0.000159268
0.000150922
0.000153977
0.000160049
0.000165132
0.000168971
0.000171492
0.000172093
0.000173757
0.000178975
0.000190293
0.000209031
0.000236614
0.000267932
0.000285377
0.000285868
0.000273654
0.000203135
0.000152956
0.00014299
0.000157107
0.000257642
0.000370012
0.000403696
0.000390146
0.000350749
0.000288598
0.000132029
3.29743e-05
1.74507e-05
1.50878e-05
1.46534e-05
1.46161e-05
1.46491e-05
1.46882e-05
1.47207e-05
1.47449e-05
1.47579e-05
1.47445e-05
1.46408e-05
1.42324e-05
1.28995e-05
8.88594e-06
0.000112561
0.00011683
0.000125646
0.000134742
0.000143241
0.000152032
0.000160458
0.000169183
0.000178335
0.000188456
0.000200586
0.000216237
0.000236158
0.000259281
0.000275907
0.000281299
0.000241482
0.00013167
5.17733e-05
3.56191e-05
4.42304e-05
6.16048e-05
9.60735e-05
0.000152543
0.00021712
0.000243976
0.000208001
0.000101111
3.11181e-05
1.77733e-05
1.53934e-05
1.48994e-05
1.48439e-05
1.48753e-05
1.49176e-05
1.49541e-05
1.49829e-05
1.50041e-05
1.50156e-05
1.50053e-05
1.4927e-05
1.46438e-05
1.38332e-05
1.18929e-05
5.97489e-05
6.56892e-05
7.56498e-05
9.11552e-05
0.000110114
0.000130244
0.0001479
0.000163063
0.00017703
0.00019083
0.000203194
0.000213704
0.000222315
0.000223153
0.000196137
0.000131966
6.14797e-05
2.63842e-05
1.97249e-05
1.90016e-05
1.99886e-05
2.23596e-05
2.76574e-05
3.85911e-05
5.37492e-05
6.18439e-05
4.5626e-05
2.46669e-05
1.76866e-05
1.59038e-05
1.52452e-05
1.50317e-05
1.49847e-05
1.49925e-05
1.50176e-05
1.50439e-05
1.50669e-05
1.50848e-05
1.50951e-05
1.5089e-05
1.50356e-05
1.48554e-05
1.44039e-05
1.35599e-05
3.34368e-05
3.2445e-05
3.20068e-05
3.19797e-05
3.41126e-05
3.97594e-05
4.93551e-05
6.24807e-05
7.50024e-05
8.56747e-05
9.37078e-05
9.83594e-05
9.84822e-05
9.1198e-05
7.22752e-05
4.71829e-05
2.85043e-05
2.00162e-05
1.75694e-05
1.75852e-05
1.81617e-05
1.84124e-05
1.83296e-05
1.82765e-05
1.87496e-05
2.01011e-05
2.08662e-05
1.88471e-05
1.69341e-05
1.58797e-05
1.52785e-05
1.5037e-05
1.49707e-05
1.49742e-05
1.49996e-05
1.50276e-05
1.50526e-05
1.50733e-05
1.50892e-05
1.50981e-05
1.5091e-05
1.5037e-05
1.48564e-05
1.44056e-05
1.35641e-05
3.26891e-05
3.05881e-05
2.89087e-05
2.72967e-05
2.59575e-05
2.48532e-05
2.4398e-05
2.4463e-05
2.50566e-05
2.58256e-05
2.64291e-05
2.67246e-05
2.64569e-05
2.50388e-05
2.23687e-05
1.95224e-05
1.79251e-05
1.73541e-05
1.73266e-05
1.7344e-05
1.72163e-05
1.71148e-05
1.70653e-05
1.69949e-05
1.68823e-05
1.67441e-05
1.65217e-05
1.60818e-05
1.55933e-05
1.52329e-05
1.50364e-05
1.49522e-05
1.49299e-05
1.49362e-05
1.4953e-05
1.49726e-05
1.49915e-05
1.5008e-05
1.50209e-05
1.50268e-05
1.50129e-05
1.49322e-05
1.4648e-05
1.38405e-05
1.19199e-05
2.98964e-05
2.81484e-05
2.66804e-05
2.52621e-05
2.39626e-05
2.27468e-05
2.16369e-05
2.06602e-05
1.98145e-05
1.9051e-05
1.84172e-05
1.7935e-05
1.75545e-05
1.71936e-05
1.68038e-05
1.64627e-05
1.62425e-05
1.61137e-05
1.60265e-05
1.59702e-05
1.59574e-05
1.59345e-05
1.58783e-05
1.57987e-05
1.5705e-05
1.5581e-05
1.54202e-05
1.52243e-05
1.50307e-05
1.48751e-05
1.47782e-05
1.47329e-05
1.47182e-05
1.472e-05
1.47298e-05
1.47425e-05
2.66441e-05
2.51799e-05
2.41418e-05
2.30757e-05
2.21234e-05
2.12113e-05
2.03566e-05
1.9553e-05
1.88126e-05
1.81412e-05
1.75551e-05
1.70674e-05
1.66499e-05
1.6287e-05
1.59688e-05
1.56926e-05
1.54646e-05
1.52838e-05
1.51438e-05
1.50333e-05
1.494e-05
1.48634e-05
1.47984e-05
1.4738e-05
1.46761e-05
1.46017e-05
1.45108e-05
1.44029e-05
1.42941e-05
1.42024e-05
1.41371e-05
1.4095e-05
1.40718e-05
1.40618e-05
1.40601e-05
2.08831e-05
1.9977e-05
1.94395e-05
1.87913e-05
1.82407e-05
1.77034e-05
1.71913e-05
1.66849e-05
1.6197e-05
1.57342e-05
1.53035e-05
1.49092e-05
1.45534e-05
1.42298e-05
1.3936e-05
1.3672e-05
1.34453e-05
1.32609e-05
1.31178e-05
1.30114e-05
1.29385e-05
1.28918e-05
1.28607e-05
1.28362e-05
1.28082e-05
1.27676e-05
1.27129e-05
1.26421e-05
1.25604e-05
1.24793e-05
1.24097e-05
1.23566e-05
1.23196e-05
1.22959e-05
1.22816e-05
1.61968e-05
1.55128e-05
1.48643e-05
1.4264e-05
1.36949e-05
1.31548e-05
1.26381e-05
1.21517e-05
1.1694e-05
1.12677e-05
1.08743e-05
1.05145e-05
1.01866e-05
9.88999e-06
9.62438e-06
9.39042e-06
9.1887e-06
9.02014e-06
8.88414e-06
8.77575e-06
8.68413e-06
8.59849e-06
8.5152e-06
8.43257e-06
8.35167e-06
8.26939e-06
8.17852e-06
8.08181e-06
7.98833e-06
7.90449e-06
7.83409e-06
7.77825e-06
7.73603e-06
7.7055e-06
7.68461e-06
0.000788265
0.000772524
0.000789317
0.000807052
0.000821632
0.000840447
0.000830963
0.000776351
0.00054238
0.000231622
0.000174583
0.000167141
0.000154979
0.000148696
0.000129837
0.00012103
0.000127923
0.000155778
0.000193988
0.000226232
0.00025761
0.000285784
0.00029406
0.000294041
0.000291358
0.000273374
0.000190393
4.19979e-05
1.15229e-05
9.26292e-06
9.07381e-06
9.01851e-06
8.97198e-06
8.93423e-06
8.90508e-06
8.88288e-06
8.86589e-06
8.85262e-06
8.84168e-06
8.83029e-06
8.80724e-06
8.72559e-06
8.44452e-06
8.0178e-06
0.00104736
0.000922422
0.00100531
0.001077
0.00111964
0.00106886
0.000865911
0.000605366
0.000383315
0.000303957
0.000292386
0.000244
0.000191141
0.000179401
0.000187549
0.000214504
0.000243026
0.000270486
0.0002994
0.000322838
0.000342702
0.000368401
0.000393053
0.000409855
0.000451641
0.000551763
0.000377848
8.95679e-05
3.36914e-05
1.93576e-05
1.5746e-05
1.49195e-05
1.48217e-05
1.48681e-05
1.49322e-05
1.49866e-05
1.50293e-05
1.50611e-05
1.50816e-05
1.50805e-05
1.5007e-05
1.46623e-05
1.34095e-05
8.99688e-06
0.000648942
0.000403566
0.000317577
0.000287933
0.000291729
0.000306691
0.000312817
0.000301367
0.000275723
0.000248355
0.000212155
0.00016371
0.000132015
0.000130607
0.000142818
0.000161679
0.000183506
0.000199716
0.000209987
0.000222986
0.000241797
0.000276628
0.000338832
0.000413216
0.000472663
0.000480249
0.000470545
0.000413699
0.000382784
0.000279577
7.07901e-05
2.51118e-05
1.92123e-05
1.77086e-05
1.73717e-05
1.73136e-05
1.73195e-05
1.73385e-05
1.73559e-05
1.73639e-05
1.73411e-05
1.72071e-05
1.67001e-05
1.50434e-05
9.40824e-06
0.000211894
0.000169136
0.000145557
0.000138493
0.00014165
0.000147533
0.000151914
0.000153645
0.000150753
0.000139878
0.000127985
0.000123203
0.00012694
0.000135438
0.000149603
0.000167113
0.000176851
0.000166738
0.00013161
0.000104566
0.000105096
0.000137235
0.000219223
0.000328266
0.00042121
0.000456693
0.000455396
0.000435806
0.000336771
0.000113798
3.50173e-05
2.29957e-05
1.94075e-05
1.8491e-05
1.8281e-05
1.82424e-05
1.82465e-05
1.82602e-05
1.82726e-05
1.8275e-05
1.82431e-05
1.80921e-05
1.75667e-05
1.59288e-05
1.02694e-05
9.99172e-05
0.000101755
0.000105274
0.000110104
0.000114582
0.000119115
0.000122853
0.000126002
0.000129968
0.000137594
0.000149952
0.000165116
0.000179921
0.00019285
0.000193144
0.000163422
0.000110996
5.36981e-05
3.95456e-05
4.20369e-05
5.28366e-05
7.34383e-05
0.000111737
0.000175249
0.00024442
0.000268127
0.000211138
8.55214e-05
3.46595e-05
2.40666e-05
2.02775e-05
1.90649e-05
1.87178e-05
1.86207e-05
1.86001e-05
1.86039e-05
1.86144e-05
1.8624e-05
1.86248e-05
1.85966e-05
1.8475e-05
1.80922e-05
1.7074e-05
1.46857e-05
5.73906e-05
5.8472e-05
6.0813e-05
6.50933e-05
7.21637e-05
8.11493e-05
9.01874e-05
9.9254e-05
0.000109231
0.000120927
0.000133844
0.000144534
0.00014525
0.000130951
9.60909e-05
5.37673e-05
3.59303e-05
2.87753e-05
2.69883e-05
2.72048e-05
2.85603e-05
3.0906e-05
3.57242e-05
4.58248e-05
5.99576e-05
6.50319e-05
4.7273e-05
3.02423e-05
2.43173e-05
2.12025e-05
1.96752e-05
1.90555e-05
1.88235e-05
1.87429e-05
1.8722e-05
1.87231e-05
1.87311e-05
1.87389e-05
1.87397e-05
1.87172e-05
1.86254e-05
1.83596e-05
1.77453e-05
1.66353e-05
4.42487e-05
4.21666e-05
4.05409e-05
3.91337e-05
3.81607e-05
3.78836e-05
3.81539e-05
3.89127e-05
4.0146e-05
4.18859e-05
4.35414e-05
4.4456e-05
4.37532e-05
4.06983e-05
3.63236e-05
3.1527e-05
2.76779e-05
2.55469e-05
2.44263e-05
2.4416e-05
2.48653e-05
2.5223e-05
2.53618e-05
2.56029e-05
2.61648e-05
2.72456e-05
2.75431e-05
2.54291e-05
2.31243e-05
2.11289e-05
1.97849e-05
1.91381e-05
1.88673e-05
1.87607e-05
1.87264e-05
1.87212e-05
1.87267e-05
1.8735e-05
1.87421e-05
1.87421e-05
1.87189e-05
1.86265e-05
1.83606e-05
1.77472e-05
1.66405e-05
4.22536e-05
3.98766e-05
3.79516e-05
3.62215e-05
3.46733e-05
3.31851e-05
3.1776e-05
3.04608e-05
2.92873e-05
2.82576e-05
2.74683e-05
2.69151e-05
2.65225e-05
2.60645e-05
2.5357e-05
2.44414e-05
2.3383e-05
2.27276e-05
2.24144e-05
2.22435e-05
2.21386e-05
2.21402e-05
2.2234e-05
2.23441e-05
2.24205e-05
2.23988e-05
2.20918e-05
2.13517e-05
2.04109e-05
1.96135e-05
1.91131e-05
1.88442e-05
1.87103e-05
1.86506e-05
1.86285e-05
1.8624e-05
1.86272e-05
1.86332e-05
1.86381e-05
1.86352e-05
1.86039e-05
1.84802e-05
1.80967e-05
1.70823e-05
1.47212e-05
3.81117e-05
3.60182e-05
3.43041e-05
3.27064e-05
3.12505e-05
2.98499e-05
2.85026e-05
2.72177e-05
2.60266e-05
2.49596e-05
2.40529e-05
2.3335e-05
2.27751e-05
2.22792e-05
2.17656e-05
2.12446e-05
2.07923e-05
2.04536e-05
2.02289e-05
2.01228e-05
2.01106e-05
2.01296e-05
2.01365e-05
2.01307e-05
2.01142e-05
2.00463e-05
1.9859e-05
1.95355e-05
1.916e-05
1.88257e-05
1.85873e-05
1.84398e-05
1.83598e-05
1.83197e-05
1.83021e-05
1.82965e-05
3.31777e-05
3.14605e-05
3.01819e-05
2.89375e-05
2.78292e-05
2.6764e-05
2.57432e-05
2.47504e-05
2.38064e-05
2.29366e-05
2.21646e-05
2.15057e-05
2.09445e-05
2.04425e-05
1.99752e-05
1.95481e-05
1.91876e-05
1.89135e-05
1.87257e-05
1.86028e-05
1.85226e-05
1.84752e-05
1.84496e-05
1.84342e-05
1.84188e-05
1.83822e-05
1.82932e-05
1.81415e-05
1.79578e-05
1.77824e-05
1.76451e-05
1.755e-05
1.74882e-05
1.74503e-05
1.74287e-05
2.58674e-05
2.47617e-05
2.40532e-05
2.32532e-05
2.25672e-05
2.1898e-05
2.12531e-05
2.06136e-05
1.99944e-05
1.94035e-05
1.88533e-05
1.83525e-05
1.79011e-05
1.74898e-05
1.71152e-05
1.6784e-05
1.65077e-05
1.62921e-05
1.61339e-05
1.60229e-05
1.59535e-05
1.59212e-05
1.59113e-05
1.59116e-05
1.59074e-05
1.58891e-05
1.58412e-05
1.5755e-05
1.5643e-05
1.55265e-05
1.54216e-05
1.53375e-05
1.52753e-05
1.52318e-05
1.52024e-05
1.80073e-05
1.72824e-05
1.66034e-05
1.59726e-05
1.53719e-05
1.47976e-05
1.42467e-05
1.37276e-05
1.3237e-05
1.27798e-05
1.23574e-05
1.197e-05
1.1616e-05
1.12946e-05
1.10056e-05
1.07497e-05
1.0528e-05
1.03416e-05
1.01918e-05
1.0078e-05
9.98907e-06
9.90834e-06
9.83127e-06
9.75582e-06
9.68285e-06
9.60235e-06
9.50789e-06
9.40267e-06
9.29456e-06
9.19214e-06
9.10202e-06
9.02756e-06
8.96903e-06
8.92497e-06
8.89323e-06
0.000747861
0.000788095
0.000851905
0.000883625
0.000888239
0.000870988
0.000804467
0.000659549
0.00035637
0.000201303
0.000183649
0.000180106
0.000166369
0.000157153
0.000130446
0.000105369
0.000108974
0.000130491
0.000170267
0.000205149
0.000243021
0.000279
0.000285268
0.000281254
0.000266391
0.000222076
8.99619e-05
1.90121e-05
1.07385e-05
9.96918e-06
9.77291e-06
9.66921e-06
9.5978e-06
9.54714e-06
9.51072e-06
9.4841e-06
9.46429e-06
9.44909e-06
9.43648e-06
9.42195e-06
9.38761e-06
9.26362e-06
8.85352e-06
8.18068e-06
0.0010365
0.00107793
0.00114523
0.00119229
0.00118731
0.00099079
0.000682562
0.00045688
0.000318922
0.000289848
0.000297903
0.000261185
0.000184563
0.000154549
0.000154304
0.000171054
0.000196691
0.000226718
0.000264966
0.000308508
0.000346109
0.000390151
0.0004296
0.000440416
0.000504852
0.00054339
0.000297032
6.92912e-05
3.09859e-05
2.05031e-05
1.7471e-05
1.6659e-05
1.65169e-05
1.65298e-05
1.65743e-05
1.66179e-05
1.66543e-05
1.66819e-05
1.66981e-05
1.66873e-05
1.65826e-05
1.61479e-05
1.46556e-05
9.35861e-06
0.000501016
0.00039972
0.000347033
0.000322654
0.000322994
0.000329222
0.000319743
0.000293931
0.00027018
0.000249829
0.000216237
0.000159704
0.000114232
9.87888e-05
0.00010039
0.000106316
0.000115179
0.000127331
0.000145495
0.000176012
0.00022354
0.000288121
0.000370777
0.00045857
0.000500022
0.000501993
0.000496017
0.000461268
0.00041977
0.000222607
4.9589e-05
2.65866e-05
2.13541e-05
1.97656e-05
1.93537e-05
1.9253e-05
1.92368e-05
1.92435e-05
1.92535e-05
1.9254e-05
1.92168e-05
1.90455e-05
1.84487e-05
1.65656e-05
9.92272e-06
0.000175785
0.000148497
0.000132975
0.00012738
0.000130495
0.000138134
0.000142838
0.000143306
0.000138427
0.00012524
0.000104076
9.06441e-05
8.48883e-05
8.31362e-05
8.22952e-05
8.10216e-05
7.7686e-05
7.40308e-05
7.37597e-05
8.06565e-05
9.95678e-05
0.000144203
0.000226016
0.000333963
0.000428122
0.000469753
0.000477928
0.000447131
0.00028723
7.83414e-05
3.57945e-05
2.54669e-05
2.17187e-05
2.06745e-05
2.03876e-05
2.03089e-05
2.02919e-05
2.02935e-05
2.02979e-05
2.0292e-05
2.0244e-05
2.00555e-05
1.94509e-05
1.76321e-05
1.10794e-05
8.13088e-05
8.04127e-05
8.13228e-05
8.40766e-05
8.68323e-05
8.88011e-05
8.96226e-05
8.88109e-05
8.61702e-05
8.34442e-05
8.19525e-05
8.12119e-05
7.97712e-05
7.6047e-05
6.87779e-05
6.01844e-05
5.01151e-05
4.33594e-05
4.20481e-05
4.70355e-05
5.72974e-05
7.72831e-05
0.00011397
0.000170946
0.000228206
0.00023936
0.000163932
6.50618e-05
3.64381e-05
2.71612e-05
2.2923e-05
2.14479e-05
2.09606e-05
2.07906e-05
2.07324e-05
2.07161e-05
2.07148e-05
2.07164e-05
2.07088e-05
2.06641e-05
2.05057e-05
2.00487e-05
1.88958e-05
1.62431e-05
5.96927e-05
5.83089e-05
5.7774e-05
5.81582e-05
5.93523e-05
6.03491e-05
6.08814e-05
6.09131e-05
6.0407e-05
5.9788e-05
5.93736e-05
5.91878e-05
5.84318e-05
5.46189e-05
4.77548e-05
4.17673e-05
3.77241e-05
3.51212e-05
3.3787e-05
3.41747e-05
3.55364e-05
3.75227e-05
4.09371e-05
4.77955e-05
5.75358e-05
5.90478e-05
4.44182e-05
3.35649e-05
2.78973e-05
2.41091e-05
2.22095e-05
2.1394e-05
2.10597e-05
2.09258e-05
2.0876e-05
2.08608e-05
2.08589e-05
2.08595e-05
2.08521e-05
2.08137e-05
2.06859e-05
2.03478e-05
1.96084e-05
1.83107e-05
5.27812e-05
5.03181e-05
4.85029e-05
4.71055e-05
4.59584e-05
4.47984e-05
4.34941e-05
4.20484e-05
4.05315e-05
3.9051e-05
3.76197e-05
3.65206e-05
3.58118e-05
3.5214e-05
3.42558e-05
3.27145e-05
3.11492e-05
2.97321e-05
2.89259e-05
2.89101e-05
2.93007e-05
2.97299e-05
3.01094e-05
3.05296e-05
3.10833e-05
3.16972e-05
3.13548e-05
2.91973e-05
2.65647e-05
2.40541e-05
2.23725e-05
2.1527e-05
2.11409e-05
2.09677e-05
2.08955e-05
2.08686e-05
2.08611e-05
2.08612e-05
2.08619e-05
2.08542e-05
2.08151e-05
2.0687e-05
2.03487e-05
1.96102e-05
1.8316e-05
4.92611e-05
4.66839e-05
4.46141e-05
4.28263e-05
4.12075e-05
3.96081e-05
3.79783e-05
3.63082e-05
3.46649e-05
3.31708e-05
3.19128e-05
3.09374e-05
3.02035e-05
2.95406e-05
2.87053e-05
2.76514e-05
2.66366e-05
2.59287e-05
2.55366e-05
2.53407e-05
2.52809e-05
2.53696e-05
2.55385e-05
2.57132e-05
2.58407e-05
2.5803e-05
2.53597e-05
2.43974e-05
2.31943e-05
2.21626e-05
2.1493e-05
2.11125e-05
2.0909e-05
2.08063e-05
2.07583e-05
2.07377e-05
2.07308e-05
2.07297e-05
2.07288e-05
2.07184e-05
2.06711e-05
2.05107e-05
2.0053e-05
1.89041e-05
1.62804e-05
4.4012e-05
4.1716e-05
3.9857e-05
3.81627e-05
3.66047e-05
3.50685e-05
3.35353e-05
3.20129e-05
3.05471e-05
2.91994e-05
2.80139e-05
2.70253e-05
2.62108e-05
2.54871e-05
2.47851e-05
2.41162e-05
2.35441e-05
2.31112e-05
2.28329e-05
2.27066e-05
2.26938e-05
2.27308e-05
2.27675e-05
2.27923e-05
2.27952e-05
2.27178e-05
2.24748e-05
2.20505e-05
2.15574e-05
2.1115e-05
2.0791e-05
2.05818e-05
2.04589e-05
2.03915e-05
2.0356e-05
2.03386e-05
3.76878e-05
3.58235e-05
3.43989e-05
3.30405e-05
3.18185e-05
3.06302e-05
2.9465e-05
2.83056e-05
2.7179e-05
2.61235e-05
2.51716e-05
2.43436e-05
2.36282e-05
2.29879e-05
2.24003e-05
2.18734e-05
2.14361e-05
2.11095e-05
2.08922e-05
2.07602e-05
2.06884e-05
2.06584e-05
2.06521e-05
2.06549e-05
2.06514e-05
2.06127e-05
2.05004e-05
2.03058e-05
2.00686e-05
1.98393e-05
1.96551e-05
1.95244e-05
1.94376e-05
1.93822e-05
1.93483e-05
2.91387e-05
2.7928e-05
2.71111e-05
2.62177e-05
2.54399e-05
2.46768e-05
2.39285e-05
2.31824e-05
2.24529e-05
2.17527e-05
2.10975e-05
2.04993e-05
1.99597e-05
1.94714e-05
1.90319e-05
1.86491e-05
1.83346e-05
1.80935e-05
1.79222e-05
1.78072e-05
1.77383e-05
1.77104e-05
1.77071e-05
1.77137e-05
1.7713e-05
1.76934e-05
1.76343e-05
1.75277e-05
1.73894e-05
1.72465e-05
1.71187e-05
1.70154e-05
1.69379e-05
1.68827e-05
1.68444e-05
1.90223e-05
1.82822e-05
1.75883e-05
1.69414e-05
1.63192e-05
1.57199e-05
1.51462e-05
1.46012e-05
1.4086e-05
1.36048e-05
1.31598e-05
1.27519e-05
1.23793e-05
1.20416e-05
1.17379e-05
1.14694e-05
1.12373e-05
1.10422e-05
1.08842e-05
1.07654e-05
1.0677e-05
1.05989e-05
1.05254e-05
1.0454e-05
1.03835e-05
1.03006e-05
1.02005e-05
1.00865e-05
9.96746e-06
9.8532e-06
9.75145e-06
9.66639e-06
9.59878e-06
9.54723e-06
9.50939e-06
0.000724904
0.000801618
0.000875158
0.000902451
0.000893146
0.000833545
0.000654796
0.00044519
0.000249274
0.000188393
0.000185873
0.000187308
0.000178202
0.000168146
0.000136614
9.04221e-05
8.79718e-05
0.000100874
0.000135095
0.000170843
0.000210439
0.00023768
0.000240224
0.000236186
0.000207005
0.000120179
3.33617e-05
1.27957e-05
1.0773e-05
1.03491e-05
1.01478e-05
1.00243e-05
9.9428e-06
9.88674e-06
9.8472e-06
9.81866e-06
9.79759e-06
9.78149e-06
9.76787e-06
9.75054e-06
9.70561e-06
9.54542e-06
9.04004e-06
8.22601e-06
0.00109608
0.00114758
0.00120986
0.00124958
0.00117314
0.000842815
0.000524799
0.000355004
0.00027562
0.000261824
0.000285353
0.000271266
0.000191636
0.00014371
0.000126204
0.000131132
0.000153608
0.000186379
0.000229021
0.000280396
0.000336359
0.000394078
0.00041569
0.000435187
0.000495027
0.000457781
0.000168409
4.51933e-05
2.65021e-05
2.06495e-05
1.83506e-05
1.76787e-05
1.75352e-05
1.75303e-05
1.75603e-05
1.75953e-05
1.76261e-05
1.76497e-05
1.76614e-05
1.7641e-05
1.75079e-05
1.6999e-05
1.53295e-05
9.52477e-06
0.000463397
0.000402892
0.000366063
0.000348644
0.000344241
0.000337691
0.000311887
0.000273619
0.000248794
0.000232276
0.000213497
0.000165124
0.000114988
9.04383e-05
8.48248e-05
8.56027e-05
8.93645e-05
9.95788e-05
0.000117549
0.000146724
0.000194306
0.000268272
0.000360651
0.000442317
0.000483007
0.000497351
0.000492229
0.000458403
0.000352453
0.00010291
3.80524e-05
2.68166e-05
2.23604e-05
2.09669e-05
2.05636e-05
2.04473e-05
2.04188e-05
2.04173e-05
2.04212e-05
2.04153e-05
2.03645e-05
2.01605e-05
1.94911e-05
1.74403e-05
1.01999e-05
0.000168211
0.0001456
0.000131408
0.000125046
0.000124241
0.000129495
0.000133849
0.000133413
0.000130256
0.000120859
9.86043e-05
8.37647e-05
7.59749e-05
7.27248e-05
7.0198e-05
6.64595e-05
6.3753e-05
6.3538e-05
6.63746e-05
7.39267e-05
9.01e-05
0.000124173
0.000197777
0.000301171
0.000393192
0.000440928
0.000445253
0.000376548
0.000153754
5.49227e-05
3.51484e-05
2.62271e-05
2.2994e-05
2.20093e-05
2.17019e-05
2.16023e-05
2.15717e-05
2.15646e-05
2.15625e-05
2.1549e-05
2.14858e-05
2.12644e-05
2.05945e-05
1.86393e-05
1.15489e-05
7.65865e-05
7.50232e-05
7.45952e-05
7.53087e-05
7.64538e-05
7.72087e-05
7.74655e-05
7.66681e-05
7.3886e-05
6.98157e-05
6.61781e-05
6.28163e-05
5.9633e-05
5.64134e-05
5.35994e-05
5.14916e-05
4.90445e-05
4.69183e-05
4.74691e-05
5.04963e-05
5.73313e-05
7.12466e-05
9.65372e-05
0.000134102
0.00016748
0.000160528
9.54522e-05
5.13299e-05
3.66228e-05
2.83281e-05
2.43653e-05
2.29018e-05
2.23683e-05
2.21608e-05
2.20794e-05
2.20492e-05
2.20393e-05
2.20343e-05
2.20186e-05
2.1958e-05
2.17653e-05
2.12423e-05
1.9974e-05
1.7114e-05
6.42839e-05
6.20541e-05
6.05891e-05
5.97207e-05
5.91089e-05
5.85689e-05
5.77941e-05
5.65976e-05
5.49735e-05
5.31998e-05
5.15069e-05
5.01308e-05
4.88255e-05
4.73801e-05
4.54449e-05
4.29429e-05
4.03469e-05
3.84786e-05
3.79815e-05
3.87151e-05
4.00484e-05
4.15814e-05
4.34907e-05
4.66485e-05
5.08137e-05
4.95311e-05
4.14814e-05
3.49244e-05
2.94531e-05
2.56472e-05
2.37213e-05
2.28527e-05
2.24741e-05
2.23107e-05
2.22425e-05
2.22159e-05
2.22064e-05
2.22009e-05
2.21857e-05
2.2131e-05
2.19678e-05
2.15606e-05
2.07035e-05
1.92343e-05
5.92268e-05
5.66382e-05
5.47407e-05
5.33071e-05
5.2098e-05
5.0765e-05
4.9188e-05
4.73978e-05
4.54617e-05
4.35135e-05
4.16489e-05
4.00086e-05
3.86474e-05
3.74657e-05
3.62291e-05
3.47949e-05
3.33283e-05
3.22256e-05
3.17011e-05
3.17126e-05
3.20199e-05
3.24389e-05
3.28886e-05
3.33457e-05
3.3769e-05
3.39552e-05
3.31507e-05
3.10368e-05
2.8272e-05
2.56466e-05
2.39192e-05
2.30175e-05
2.25797e-05
2.23693e-05
2.22731e-05
2.2231e-05
2.22139e-05
2.22075e-05
2.22027e-05
2.21873e-05
2.21322e-05
2.19686e-05
2.15613e-05
2.07051e-05
1.92394e-05
5.45228e-05
5.18427e-05
4.96922e-05
4.78497e-05
4.61648e-05
4.44575e-05
4.26428e-05
4.07035e-05
3.8708e-05
3.68034e-05
3.5116e-05
3.37291e-05
3.26127e-05
3.16179e-05
3.05862e-05
2.95063e-05
2.85365e-05
2.78444e-05
2.74494e-05
2.7275e-05
2.72797e-05
2.74214e-05
2.76092e-05
2.77741e-05
2.78722e-05
2.77582e-05
2.71986e-05
2.61166e-05
2.48161e-05
2.37103e-05
2.29757e-05
2.25414e-05
2.22987e-05
2.21695e-05
2.21041e-05
2.20721e-05
2.20575e-05
2.2051e-05
2.20452e-05
2.20274e-05
2.19645e-05
2.17699e-05
2.12462e-05
1.99818e-05
1.71502e-05
4.83764e-05
4.59767e-05
4.40417e-05
4.22899e-05
4.06502e-05
3.89937e-05
3.72888e-05
3.55479e-05
3.3829e-05
3.22105e-05
3.07531e-05
2.95009e-05
2.84453e-05
2.75183e-05
2.66674e-05
2.59011e-05
2.52659e-05
2.47939e-05
2.44978e-05
2.43636e-05
2.43441e-05
2.43838e-05
2.44298e-05
2.44608e-05
2.44553e-05
2.43488e-05
2.40559e-05
2.35725e-05
2.30233e-05
2.25316e-05
2.21654e-05
2.19227e-05
2.17744e-05
2.16892e-05
2.16415e-05
2.16157e-05
4.09115e-05
3.89679e-05
3.74606e-05
3.60334e-05
3.47264e-05
3.34359e-05
3.21432e-05
3.08347e-05
2.95438e-05
2.83189e-05
2.72016e-05
2.62187e-05
2.53642e-05
2.46069e-05
2.39278e-05
2.33349e-05
2.28525e-05
2.24964e-05
2.22618e-05
2.21248e-05
2.20576e-05
2.20358e-05
2.20375e-05
2.20451e-05
2.20395e-05
2.19882e-05
2.18531e-05
2.16299e-05
2.13625e-05
2.11045e-05
2.08945e-05
2.07426e-05
2.06403e-05
2.05735e-05
2.05312e-05
3.12879e-05
3.00231e-05
2.91474e-05
2.82026e-05
2.73655e-05
2.65346e-05
2.57063e-05
2.4875e-05
2.40554e-05
2.32653e-05
2.25239e-05
2.1846e-05
2.12353e-05
2.06877e-05
2.02021e-05
1.9786e-05
1.94485e-05
1.91927e-05
1.90136e-05
1.88976e-05
1.88292e-05
1.88021e-05
1.88001e-05
1.88059e-05
1.88023e-05
1.87757e-05
1.87046e-05
1.85832e-05
1.84295e-05
1.82719e-05
1.81315e-05
1.80175e-05
1.79312e-05
1.78687e-05
1.78248e-05
1.95621e-05
1.88369e-05