/*--------------------------------*- C++ -*----------------------------------*\
| =========                 |                                                 |
| \\      /  F ield         | OpenFOAM: The Open Source CFD Toolbox           |
|  \\    /   O peration     | Version:  2.3.1                                 |
|   \\  /    A nd           | Web:      www.OpenFOAM.org                      |
|    \\/     M anipulation  |                                                 |
\*---------------------------------------------------------------------------*/
FoamFile
{
    version     2.0;
    format      ascii;
    class       volScalarField;
    location    "10";
    object      nut;
}
// * * * * * * * * * * * * * * * * * * * * * * * * * * * * * * * * * * * * * //

dimensions      [0 2 -1 0 0 0 0];

internalField   nonuniform List<scalar> 
38152
(
3.98656e-05
3.54384e-05
3.21284e-05
3.16134e-05
3.08051e-05
2.92879e-05
2.96273e-05
3.03856e-05
2.94666e-05
2.20623e-05
1.42692e-05
1.29253e-05
1.23821e-05
1.21482e-05
1.26114e-05
1.31023e-05
1.35729e-05
1.40643e-05
1.4484e-05
1.53149e-05
1.70387e-05
1.79426e-05
1.78951e-05
1.76693e-05
1.81574e-05
1.8666e-05
1.81776e-05
1.37455e-05
5.89874e-06
3.22585e-06
2.87848e-06
2.79016e-06
2.738e-06
2.7032e-06
2.67937e-06
2.66265e-06
2.65065e-06
2.64184e-06
2.6352e-06
2.63002e-06
2.62564e-06
2.62066e-06
2.61817e-06
3.50231e-06
4.05207e-05
2.81053e-05
2.02628e-05
2.04966e-05
2.19451e-05
2.33341e-05
2.2955e-05
2.08777e-05
1.87338e-05
1.56844e-05
1.51148e-05
1.46604e-05
1.44803e-05
1.46421e-05
1.49015e-05
1.54265e-05
1.63694e-05
1.74966e-05
1.82619e-05
1.86902e-05
1.90951e-05
1.95541e-05
1.96304e-05
1.92576e-05
1.95342e-05
2.04268e-05
1.91406e-05
1.18446e-05
6.09415e-06
4.2305e-06
3.34838e-06
3.21952e-06
3.17796e-06
3.15285e-06
3.13562e-06
3.12327e-06
3.11417e-06
3.1073e-06
3.10189e-06
3.09699e-06
3.08946e-06
3.0654e-06
2.97828e-06
4.20359e-06
3.78397e-05
2.67676e-05
1.43418e-05
1.29696e-05
1.36133e-05
1.41072e-05
1.43739e-05
1.4473e-05
1.44705e-05
1.42998e-05
1.42237e-05
1.42411e-05
1.43978e-05
1.47378e-05
1.51933e-05
1.60568e-05
1.71365e-05
1.7916e-05
1.83689e-05
1.85381e-05
1.85244e-05
1.80164e-05
1.7075e-05
1.71891e-05
1.77078e-05
1.90596e-05
1.99985e-05
1.97887e-05
1.85347e-05
1.74228e-05
1.18957e-05
5.39961e-06
3.60504e-06
3.41101e-06
3.36346e-06
3.33846e-06
3.32305e-06
3.3128e-06
3.30557e-06
3.29999e-06
3.29422e-06
3.28225e-06
3.24127e-06
3.10314e-06
4.23314e-06
1.91522e-05
1.34621e-05
1.1972e-05
1.25118e-05
1.31442e-05
1.3582e-05
1.38078e-05
1.39206e-05
1.40351e-05
1.41629e-05
1.4321e-05
1.45738e-05
1.50227e-05
1.56868e-05
1.64852e-05
1.71751e-05
1.75491e-05
1.77826e-05
1.7755e-05
1.75723e-05
1.72859e-05
1.59367e-05
1.29073e-05
1.29141e-05
1.53819e-05
1.83299e-05
1.92414e-05
1.92478e-05
1.84863e-05
1.45566e-05
7.028e-06
3.90306e-06
3.51336e-06
3.45007e-06
3.42041e-06
3.4024e-06
3.39036e-06
3.38185e-06
3.37555e-06
3.37043e-06
3.36456e-06
3.35135e-06
3.30688e-06
3.16118e-06
4.26127e-06
9.48297e-06
9.75622e-06
1.04449e-05
1.13978e-05
1.2307e-05
1.29421e-05
1.34106e-05
1.38098e-05
1.41467e-05
1.44859e-05
1.48281e-05
1.52726e-05
1.58628e-05
1.65157e-05
1.70406e-05
1.72611e-05
1.715e-05
1.63052e-05
1.20568e-05
7.13346e-06
6.48603e-06
7.37214e-06
9.01971e-06
1.11379e-05
1.3594e-05
1.53925e-05
1.54474e-05
1.25132e-05
6.72728e-06
4.03411e-06
3.58266e-06
3.50215e-06
3.4631e-06
3.43849e-06
3.42208e-06
3.41079e-06
3.40283e-06
3.39699e-06
3.39234e-06
3.38729e-06
3.37728e-06
3.34778e-06
3.26121e-06
3.05529e-06
7.55856e-06
7.85394e-06
8.39955e-06
9.28441e-06
1.03767e-05
1.1499e-05
1.24258e-05
1.31121e-05
1.36517e-05
1.4073e-05
1.44475e-05
1.48846e-05
1.54188e-05
1.59589e-05
1.6122e-05
1.57929e-05
1.35059e-05
8.0023e-06
4.58154e-06
4.3373e-06
4.6229e-06
5.05784e-06
5.7465e-06
6.79359e-06
8.0487e-06
8.86143e-06
8.0069e-06
5.65618e-06
4.00519e-06
3.63001e-06
3.53583e-06
3.48625e-06
3.45512e-06
3.43505e-06
3.42171e-06
3.41251e-06
3.40592e-06
3.40101e-06
3.39707e-06
3.39297e-06
3.38591e-06
3.36798e-06
3.32367e-06
3.24304e-06
6.48805e-06
6.44896e-06
6.53506e-06
6.7761e-06
7.19136e-06
7.78982e-06
8.54835e-06
9.52664e-06
1.04961e-05
1.12804e-05
1.18786e-05
1.23582e-05
1.27974e-05
1.30498e-05
1.28604e-05
1.14786e-05
8.60625e-06
5.55667e-06
4.03656e-06
3.83242e-06
3.88507e-06
3.94704e-06
4.02497e-06
4.14073e-06
4.34824e-06
4.63224e-06
4.75242e-06
4.32456e-06
3.81899e-06
3.61039e-06
3.53342e-06
3.48887e-06
3.45953e-06
3.4395e-06
3.42545e-06
3.41536e-06
3.40804e-06
3.40269e-06
3.39867e-06
3.39538e-06
3.39176e-06
3.38509e-06
3.36743e-06
3.32344e-06
3.24344e-06
6.14119e-06
5.92842e-06
5.78402e-06
5.72974e-06
5.72328e-06
5.83594e-06
6.08176e-06
6.41022e-06
6.75501e-06
7.05202e-06
7.28524e-06
7.44502e-06
7.50792e-06
7.26728e-06
6.53716e-06
5.37091e-06
4.36527e-06
3.91389e-06
3.81925e-06
3.80858e-06
3.81283e-06
3.81448e-06
3.80971e-06
3.80047e-06
3.79085e-06
3.78774e-06
3.754e-06
3.66815e-06
3.58846e-06
3.53228e-06
3.49084e-06
3.46021e-06
3.43809e-06
3.4223e-06
3.4111e-06
3.40315e-06
3.39747e-06
3.39333e-06
3.39018e-06
3.38745e-06
3.38379e-06
3.37489e-06
3.34602e-06
3.2606e-06
3.0536e-06
5.97893e-06
5.76381e-06
5.56797e-06
5.38101e-06
5.21129e-06
5.06456e-06
4.94788e-06
4.86141e-06
4.79794e-06
4.75004e-06
4.70202e-06
4.64035e-06
4.54537e-06
4.37582e-06
4.14093e-06
3.9316e-06
3.8135e-06
3.75774e-06
3.72949e-06
3.71648e-06
3.71246e-06
3.70748e-06
3.69558e-06
3.67672e-06
3.65238e-06
3.6237e-06
3.58706e-06
3.54459e-06
3.50338e-06
3.46751e-06
3.43881e-06
3.41703e-06
3.40094e-06
3.3893e-06
3.38098e-06
3.375e-06
5.82576e-06
5.62917e-06
5.4538e-06
5.28194e-06
5.11659e-06
4.95842e-06
4.80946e-06
4.67308e-06
4.54234e-06
4.41887e-06
4.30274e-06
4.19374e-06
4.09309e-06
3.99767e-06
3.90961e-06
3.83478e-06
3.77558e-06
3.73054e-06
3.6968e-06
3.66984e-06
3.64693e-06
3.6258e-06
3.60369e-06
3.57854e-06
3.54989e-06
3.51859e-06
3.48358e-06
3.4469e-06
3.412e-06
3.38143e-06
3.35646e-06
3.33713e-06
3.32279e-06
3.31247e-06
3.30519e-06
5.45967e-06
5.3029e-06
5.14644e-06
4.99919e-06
4.85897e-06
4.72718e-06
4.60021e-06
4.47468e-06
4.35157e-06
4.23251e-06
4.11877e-06
4.01138e-06
3.91122e-06
3.81901e-06
3.73605e-06
3.6636e-06
3.60128e-06
3.54861e-06
3.50598e-06
3.47225e-06
3.44569e-06
3.42289e-06
3.40066e-06
3.3765e-06
3.34887e-06
3.31742e-06
3.28304e-06
3.24732e-06
3.21319e-06
3.18284e-06
3.15752e-06
3.13758e-06
3.12262e-06
3.11191e-06
3.1046e-06
4.60556e-06
4.49849e-06
4.37924e-06
4.26841e-06
4.15791e-06
4.04999e-06
3.94286e-06
3.83703e-06
3.73396e-06
3.63412e-06
3.53854e-06
3.44792e-06
3.36296e-06
3.28428e-06
3.21275e-06
3.14921e-06
3.09438e-06
3.04828e-06
3.01017e-06
2.97846e-06
2.9502e-06
2.92324e-06
2.89601e-06
2.86753e-06
2.83766e-06
2.80702e-06
2.7757e-06
2.74541e-06
2.71723e-06
2.69251e-06
2.67202e-06
2.65589e-06
2.6437e-06
2.63487e-06
2.6288e-06
7.97336e-05
7.16241e-05
6.88394e-05
6.78603e-05
6.65756e-05
6.76672e-05
7.04057e-05
6.99062e-05
6.33009e-05
4.17554e-05
3.15004e-05
3.01406e-05
2.91112e-05
2.92437e-05
2.89911e-05
2.89896e-05
2.94955e-05
3.12511e-05
3.39508e-05
3.6973e-05
3.99779e-05
4.16425e-05
4.14908e-05
4.15582e-05
4.22443e-05
4.20615e-05
3.86463e-05
2.38533e-05
9.98803e-06
7.11592e-06
6.97315e-06
6.99392e-06
7.00454e-06
7.00573e-06
7.00367e-06
7.00066e-06
6.99758e-06
6.99469e-06
6.99198e-06
6.98903e-06
6.98362e-06
6.96529e-06
6.90317e-06
7.23838e-06
7.41037e-05
5.24731e-05
7.46734e-05
9.2462e-05
0.000101249
0.000103606
9.42599e-05
7.67878e-05
6.13545e-05
6.04165e-05
6.22931e-05
5.72096e-05
5.30578e-05
5.07574e-05
5.11053e-05
5.42803e-05
5.96904e-05
6.47734e-05
6.67893e-05
6.53136e-05
6.41336e-05
6.43552e-05
5.80654e-05
5.65329e-05
5.98164e-05
5.97507e-05
4.89066e-05
1.68323e-05
6.32683e-06
6.31425e-06
1.25887e-05
1.46039e-05
1.53453e-05
1.5896e-05
1.62845e-05
1.65593e-05
1.67539e-05
1.68918e-05
1.69862e-05
1.70304e-05
1.69488e-05
1.64027e-05
1.43048e-05
7.9958e-06
5.51537e-05
3.63721e-05
4.31035e-05
4.8204e-05
5.27939e-05
5.67423e-05
5.83158e-05
5.76248e-05
5.59621e-05
5.61748e-05
5.52059e-05
5.39825e-05
5.44372e-05
5.49275e-05
5.49055e-05
5.74902e-05
6.15617e-05
6.12636e-05
5.76336e-05
5.29074e-05
5.00642e-05
4.49783e-05
4.56821e-05
4.86321e-05
6.16848e-05
7.19351e-05
6.50592e-05
5.41468e-05
4.47477e-05
3.2988e-05
1.09145e-05
6.1555e-06
1.53046e-05
1.94179e-05
2.03618e-05
2.08957e-05
2.1244e-05
2.14758e-05
2.16337e-05
2.1733e-05
2.17471e-05
2.15162e-05
2.04779e-05
1.70954e-05
8.11231e-06
3.22122e-05
4.00791e-05
4.48444e-05
4.53376e-05
4.74584e-05
4.98765e-05
5.13268e-05
5.17206e-05
5.18603e-05
5.17606e-05
5.1204e-05
5.10922e-05
5.13565e-05
5.28446e-05
5.52877e-05
5.53052e-05
5.28013e-05
4.73519e-05
4.21802e-05
2.66496e-05
1.82177e-05
1.98381e-05
2.63061e-05
5.19007e-05
7.26905e-05
7.79145e-05
7.13056e-05
5.56155e-05
3.90057e-05
1.64096e-05
6.90811e-06
1.39308e-05
2.07406e-05
2.19711e-05
2.26036e-05
2.30353e-05
2.33374e-05
2.35498e-05
2.36993e-05
2.37908e-05
2.37846e-05
2.34918e-05
2.23056e-05
1.85826e-05
8.34006e-06
3.03307e-05
3.19104e-05
3.42601e-05
3.67902e-05
3.9431e-05
4.20225e-05
4.40675e-05
4.56657e-05
4.64296e-05
4.63915e-05
4.60777e-05
4.64718e-05
4.75166e-05
4.83037e-05
4.61334e-05
4.05912e-05
3.00797e-05
1.50678e-05
9.43102e-06
1.00338e-05
1.28466e-05
1.6666e-05
2.33628e-05
3.346e-05
4.28465e-05
4.30444e-05
3.21842e-05
1.38746e-05
6.79599e-06
1.26229e-05
1.99631e-05
2.18591e-05
2.28209e-05
2.34565e-05
2.38818e-05
2.41694e-05
2.43695e-05
2.45094e-05
2.45953e-05
2.45966e-05
2.43718e-05
2.35213e-05
2.12025e-05
1.60844e-05
2.08372e-05
2.09394e-05
2.17421e-05
2.3968e-05
2.7221e-05
3.10567e-05
3.38378e-05
3.54176e-05
3.62578e-05
3.68028e-05
3.70547e-05
3.68701e-05
3.59267e-05
3.31816e-05
2.60509e-05
1.63395e-05
9.95809e-06
9.17047e-06
1.12078e-05
1.11264e-05
1.02679e-05
9.21902e-06
8.86518e-06
1.0026e-05
1.18512e-05
1.22125e-05
8.75895e-06
6.875e-06
1.3737e-05
2.04388e-05
2.21443e-05
2.29771e-05
2.35655e-05
2.39794e-05
2.42815e-05
2.4503e-05
2.46667e-05
2.47864e-05
2.48633e-05
2.48742e-05
2.47218e-05
2.41657e-05
2.28156e-05
2.04511e-05
2.62774e-05
2.37913e-05
2.07959e-05
1.70437e-05
1.42483e-05
1.28617e-05
1.2865e-05
1.43903e-05
1.58543e-05
1.6773e-05
1.70318e-05
1.66974e-05
1.56463e-05
1.38439e-05
1.09172e-05
8.5509e-06
8.39461e-06
1.18283e-05
1.65581e-05
1.89907e-05
1.99527e-05
1.8974e-05
1.65201e-05
1.34982e-05
1.07641e-05
9.18462e-06
8.81702e-06
1.05723e-05
1.6356e-05
2.07998e-05
2.20413e-05
2.27684e-05
2.33446e-05
2.3794e-05
2.41352e-05
2.43881e-05
2.45758e-05
2.47159e-05
2.48194e-05
2.48853e-05
2.48891e-05
2.47318e-05
2.41725e-05
2.28227e-05
2.04626e-05
3.90498e-05
3.6507e-05
3.34876e-05
2.99665e-05
2.58243e-05
2.07146e-05
1.59622e-05
1.24537e-05
1.05957e-05
9.5473e-06
8.82214e-06
8.43335e-06
8.12498e-06
8.24293e-06
9.28948e-06
1.23347e-05
1.72893e-05
2.1455e-05
2.38276e-05
2.48877e-05
2.47916e-05
2.42854e-05
2.35252e-05
2.23915e-05
2.08832e-05
1.92751e-05
1.88645e-05
2.03128e-05
2.16755e-05
2.23185e-05
2.27943e-05
2.32142e-05
2.35744e-05
2.38684e-05
2.40999e-05
2.42807e-05
2.44225e-05
2.45334e-05
2.46172e-05
2.4667e-05
2.46451e-05
2.44038e-05
2.35443e-05
2.12285e-05
1.61677e-05
3.84612e-05
3.69441e-05
3.54445e-05
3.37649e-05
3.18979e-05
2.96142e-05
2.70102e-05
2.44195e-05
2.19104e-05
1.95292e-05
1.78199e-05
1.6762e-05
1.64102e-05
1.70951e-05
1.87963e-05
2.07681e-05
2.22204e-05
2.31358e-05
2.36912e-05
2.39635e-05
2.40577e-05
2.39692e-05
2.37208e-05
2.33487e-05
2.28905e-05
2.23813e-05
2.2119e-05
2.21442e-05
2.22844e-05
2.24811e-05
2.27157e-05
2.29591e-05
2.31764e-05
2.3359e-05
2.35104e-05
2.3634e-05
3.43016e-05
3.31391e-05
3.22936e-05
3.13102e-05
3.03181e-05
2.92494e-05
2.8134e-05
2.70076e-05
2.59354e-05
2.49255e-05
2.40556e-05
2.33862e-05
2.28204e-05
2.25172e-05
2.24789e-05
2.25411e-05
2.26021e-05
2.2612e-05
2.2551e-05
2.24589e-05
2.23444e-05
2.22177e-05
2.20735e-05
2.19051e-05
2.17078e-05
2.14823e-05
2.13172e-05
2.12389e-05
2.12329e-05
2.12801e-05
2.13578e-05
2.14422e-05
2.15258e-05
2.16039e-05
2.16746e-05
2.40116e-05
2.35038e-05
2.3287e-05
2.28778e-05
2.25227e-05
2.21458e-05
2.17679e-05
2.1339e-05
2.08996e-05
2.04571e-05
2.0028e-05
1.96248e-05
1.92599e-05
1.89356e-05
1.86521e-05
1.8396e-05
1.81704e-05
1.79794e-05
1.78223e-05
1.76975e-05
1.76195e-05
1.75941e-05
1.76009e-05
1.76141e-05
1.76016e-05
1.75443e-05
1.74729e-05
1.74017e-05
1.73307e-05
1.72641e-05
1.72092e-05
1.71703e-05
1.71479e-05
1.71392e-05
1.71397e-05
1.01679e-05
9.95085e-06
9.74056e-06
9.54173e-06
9.34938e-06
9.16306e-06
8.98122e-06
8.80661e-06
8.63905e-06
8.48002e-06
8.33059e-06
8.19149e-06
8.06265e-06
7.94428e-06
7.83677e-06
7.74082e-06
7.65713e-06
7.58648e-06
7.52899e-06
7.48285e-06
7.44368e-06
7.40689e-06
7.37093e-06
7.33508e-06
7.2998e-06
7.26377e-06
7.22377e-06
7.18092e-06
7.13922e-06
7.1016e-06
7.06982e-06
7.04452e-06
7.02531e-06
7.01139e-06
7.00185e-06
7.09268e-05
7.01569e-05
7.08873e-05
7.16892e-05
7.23116e-05
7.31616e-05
7.27758e-05
7.04449e-05
5.92981e-05
3.87142e-05
3.33867e-05
3.2645e-05
3.14329e-05
3.07922e-05
2.87857e-05
2.77763e-05
2.85455e-05
3.14863e-05
3.51436e-05
3.79569e-05
4.05063e-05
4.26736e-05
4.32978e-05
4.32978e-05
4.31051e-05
4.17818e-05
3.50033e-05
1.65242e-05
8.59931e-06
7.68908e-06
7.6088e-06
7.58553e-06
7.56592e-06
7.54996e-06
7.5376e-06
7.52818e-06
7.52096e-06
7.51531e-06
7.51066e-06
7.50581e-06
7.49599e-06
7.46113e-06
7.3399e-06
7.51727e-06
8.06735e-05
9.60766e-05
0.000117943
0.000129453
0.000132938
0.000125438
0.000103706
7.99946e-05
6.69309e-05
6.92185e-05
7.16915e-05
6.55578e-05
5.60702e-05
5.43832e-05
5.64405e-05
6.22012e-05
6.66118e-05
6.97332e-05
7.24457e-05
7.48656e-05
7.96266e-05
8.31437e-05
8.5126e-05
8.7426e-05
9.17641e-05
8.98679e-05
5.69448e-05
1.66502e-05
8.2696e-06
1.21936e-05
2.2863e-05
2.46997e-05
2.53578e-05
2.59155e-05
2.63566e-05
2.668e-05
2.69149e-05
2.70824e-05
2.71914e-05
2.72076e-05
2.69387e-05
2.56487e-05
2.12064e-05
8.39188e-06
6.42315e-05
5.84974e-05
6.48323e-05
6.52748e-05
6.88523e-05
7.29499e-05
7.44967e-05
7.23658e-05
6.83093e-05
6.80608e-05
6.23782e-05
5.44048e-05
4.92004e-05
4.79773e-05
4.74713e-05
4.74123e-05
4.80596e-05
4.80034e-05
4.72828e-05
4.76597e-05
5.03452e-05
5.89122e-05
7.26298e-05
8.53833e-05
9.72363e-05
9.91265e-05
9.25445e-05
7.80319e-05
6.74241e-05
4.21933e-05
1.06017e-05
1.25442e-05
3.20584e-05
3.62629e-05
3.69222e-05
3.73867e-05
3.77274e-05
3.79727e-05
3.81418e-05
3.82282e-05
3.81309e-05
3.74224e-05
3.47829e-05
2.70424e-05
8.58171e-06
4.83952e-05
5.188e-05
5.19788e-05
5.14624e-05
5.28929e-05
5.41765e-05
5.46988e-05
5.44965e-05
5.32934e-05
5.01419e-05
4.54107e-05
4.03703e-05
3.69701e-05
3.49008e-05
3.4611e-05
3.50428e-05
3.42412e-05
3.04629e-05
2.25464e-05
1.81235e-05
1.9137e-05
2.86626e-05
4.96081e-05
7.05692e-05
8.80721e-05
9.36026e-05
8.85239e-05
7.779e-05
5.28682e-05
1.6864e-05
1.17197e-05
3.16102e-05
4.09679e-05
4.18609e-05
4.23611e-05
4.27769e-05
4.30908e-05
4.33214e-05
4.34802e-05
4.3545e-05
4.33775e-05
4.24572e-05
3.92969e-05
3.03473e-05
8.96602e-06
3.66211e-05
3.76735e-05
3.90391e-05
4.07988e-05
4.21872e-05
4.28719e-05
4.27049e-05
4.14586e-05
3.95596e-05
3.78034e-05
3.70614e-05
3.70784e-05
3.70876e-05
3.62111e-05
3.3177e-05
2.53859e-05
1.64232e-05
1.03264e-05
1.32557e-05
1.58107e-05
1.82589e-05
2.18177e-05
2.8478e-05
3.96417e-05
5.02603e-05
5.07794e-05
3.60473e-05
1.35447e-05
1.20091e-05
3.01354e-05
4.1882e-05
4.34473e-05
4.41388e-05
4.46828e-05
4.50837e-05
4.53736e-05
4.55838e-05
4.57274e-05
4.57834e-05
4.56311e-05
4.48571e-05
4.24357e-05
3.65024e-05
2.49518e-05
3.66742e-05
3.43441e-05
3.15108e-05
2.8972e-05
2.7852e-05
2.78913e-05
2.80865e-05
2.824e-05
2.83155e-05
2.83252e-05
2.8511e-05
2.83703e-05
2.68234e-05
2.31979e-05
1.70904e-05
1.1214e-05
1.42221e-05
2.09256e-05
2.24511e-05
2.08463e-05
1.83778e-05
1.55956e-05
1.35348e-05
1.34051e-05
1.47585e-05
1.45975e-05
1.14048e-05
1.42791e-05
3.25623e-05
4.33352e-05
4.45721e-05
4.49422e-05
4.53463e-05
4.56986e-05
4.59848e-05
4.62087e-05
4.638e-05
4.65017e-05
4.65515e-05
4.64326e-05
4.58435e-05
4.41279e-05
4.03836e-05
3.44051e-05
5.95941e-05
5.48078e-05
4.94332e-05
4.28853e-05
3.59758e-05
2.97496e-05
2.4433e-05
2.04053e-05
1.73458e-05
1.56216e-05
1.44275e-05
1.35293e-05
1.25479e-05
1.15108e-05
1.21422e-05
1.63892e-05
2.43078e-05
3.3415e-05
3.76734e-05
3.90965e-05
3.86781e-05
3.60525e-05
3.15505e-05
2.6385e-05
2.13495e-05
1.79524e-05
1.75946e-05
2.36151e-05
3.6903e-05
4.3835e-05
4.46469e-05
4.48976e-05
4.52416e-05
4.55715e-05
4.58642e-05
4.61041e-05
4.62928e-05
4.64382e-05
4.65412e-05
4.65783e-05
4.64506e-05
4.58554e-05
4.41367e-05
4.0396e-05
3.44359e-05
8.14156e-05
7.69564e-05
7.20328e-05
6.64172e-05
6.04941e-05
5.34085e-05
4.61567e-05
3.96225e-05
3.43086e-05
2.99477e-05
2.67967e-05
2.50057e-05
2.43185e-05
2.58256e-05
3.04178e-05
3.75643e-05
4.29912e-05
4.60402e-05
4.74277e-05
4.77222e-05
4.72268e-05
4.62587e-05
4.49372e-05
4.31587e-05
4.10164e-05
3.88542e-05
3.91212e-05
4.23005e-05
4.42684e-05
4.45477e-05
4.46116e-05
4.47728e-05
4.49791e-05
4.51938e-05
4.53898e-05
4.55538e-05
4.5688e-05
4.57956e-05
4.58712e-05
4.5882e-05
4.56982e-05
4.4902e-05
4.24702e-05
3.65556e-05
2.51343e-05
8.1958e-05
7.8383e-05
7.49478e-05
7.13814e-05
6.76271e-05
6.35704e-05
5.93546e-05
5.52202e-05
5.14102e-05
4.79959e-05
4.5248e-05
4.33484e-05
4.24626e-05
4.27938e-05
4.39494e-05
4.50457e-05
4.56202e-05
4.58443e-05
4.58804e-05
4.58517e-05
4.57589e-05
4.5549e-05
4.51834e-05
4.47005e-05
4.41896e-05
4.36888e-05
4.34845e-05
4.34353e-05
4.33038e-05
4.31753e-05
4.31344e-05
4.31742e-05
4.32681e-05
4.33693e-05
4.34637e-05
4.35496e-05
7.05626e-05
6.80016e-05
6.57604e-05
6.34119e-05
6.10883e-05
5.87179e-05
5.63274e-05
5.39414e-05
5.16539e-05
4.95286e-05
4.76509e-05
4.60984e-05
4.48703e-05
4.39393e-05
4.32206e-05
4.26117e-05
4.20823e-05
4.16351e-05
4.12609e-05
4.09359e-05
4.06564e-05
4.04289e-05
4.02348e-05
4.00527e-05
3.9872e-05
3.96776e-05
3.9478e-05
3.92531e-05
3.90188e-05
3.88123e-05
3.8669e-05
3.85735e-05
3.85092e-05
3.84741e-05
3.8462e-05
4.38842e-05
4.29074e-05
4.22009e-05
4.12129e-05
4.03283e-05
3.9439e-05
3.8529e-05
3.75384e-05
3.65351e-05
3.55323e-05
3.45677e-05
3.3671e-05
3.28556e-05
3.21118e-05
3.14318e-05
3.08146e-05
3.0276e-05
2.98301e-05
2.94759e-05
2.91942e-05
2.90133e-05
2.89774e-05
2.90366e-05
2.91259e-05
2.91671e-05
2.915e-05
2.90637e-05
2.88982e-05
2.86777e-05
2.84378e-05
2.82052e-05
2.80082e-05
2.78546e-05
2.77414e-05
2.76613e-05
1.07213e-05
1.05032e-05
1.02947e-05
1.00972e-05
9.90538e-06
9.71849e-06
9.53579e-06
9.36036e-06
9.19148e-06
9.03125e-06
8.88061e-06
8.74019e-06
8.60987e-06
8.48982e-06
8.38036e-06
8.28226e-06
8.19632e-06
8.12331e-06
8.06418e-06
8.01897e-06
7.98348e-06
7.95115e-06
7.92017e-06
7.88973e-06
7.86018e-06
7.82749e-06
7.78894e-06
7.74573e-06
7.70105e-06
7.65844e-06
7.62074e-06
7.58943e-06
7.56472e-06
7.54606e-06
7.53259e-06
6.90191e-05
7.07982e-05
7.36229e-05
7.50052e-05
7.52185e-05
7.45177e-05
7.16889e-05
6.50939e-05
4.81115e-05
3.59425e-05
3.42219e-05
3.38868e-05
3.25712e-05
3.16583e-05
2.88652e-05
2.59222e-05
2.63493e-05
2.88147e-05
3.29211e-05
3.61414e-05
3.93364e-05
4.2163e-05
4.26504e-05
4.2353e-05
4.12338e-05
3.77109e-05
2.41506e-05
1.10822e-05
8.28329e-06
7.97628e-06
7.89681e-06
7.85467e-06
7.82553e-06
7.80479e-06
7.78985e-06
7.77891e-06
7.77076e-06
7.7645e-06
7.75931e-06
7.75332e-06
7.73915e-06
7.68783e-06
7.51564e-06
7.59329e-06
0.000109756
0.000129882
0.000145315
0.000152113
0.00015056
0.000129039
9.61238e-05
7.34533e-05
6.50368e-05
6.75136e-05
7.08628e-05
6.49284e-05
5.26468e-05
4.67606e-05
4.91775e-05
5.43646e-05
5.84644e-05
6.30311e-05
6.89253e-05
7.62716e-05
8.33403e-05
9.04482e-05
9.72813e-05
9.57987e-05
9.66224e-05
8.98829e-05
5.15702e-05
1.54466e-05
1.09371e-05
2.25031e-05
3.06117e-05
3.14856e-05
3.2101e-05
3.26996e-05
3.31924e-05
3.35636e-05
3.38364e-05
3.4031e-05
3.41495e-05
3.41257e-05
3.36461e-05
3.16367e-05
2.5264e-05
8.55901e-06
7.34545e-05
7.55337e-05
7.47357e-05
7.45924e-05
7.76786e-05
8.13435e-05
8.09365e-05
7.51612e-05
7.04747e-05
6.73196e-05
6.13182e-05
5.2319e-05
4.56278e-05
4.34629e-05
4.21422e-05
4.0564e-05
3.9683e-05
4.02877e-05
4.23067e-05
4.77405e-05
5.74182e-05
6.95018e-05
8.4198e-05
9.88073e-05
0.000106437
0.00010388
9.81242e-05
8.70772e-05
7.09843e-05
3.38249e-05
1.1998e-05
2.88116e-05
4.76704e-05
4.9379e-05
4.98259e-05
5.02657e-05
5.06213e-05
5.08857e-05
5.10673e-05
5.11307e-05
5.08845e-05
4.96084e-05
4.52839e-05
3.35767e-05
8.81335e-06
5.58916e-05
5.48147e-05
5.23985e-05
5.10708e-05
5.12276e-05
5.22622e-05
5.25743e-05
5.19553e-05
5.08627e-05
4.91062e-05
4.48951e-05
4.18268e-05
3.76251e-05
3.29174e-05
2.8605e-05
2.48777e-05
2.17868e-05
2.04495e-05
2.17049e-05
2.45305e-05
2.95149e-05
4.05581e-05
5.6663e-05
7.54088e-05
9.07848e-05
9.6075e-05
9.19416e-05
8.05032e-05
4.70676e-05
1.62516e-05
2.59542e-05
5.28378e-05
5.81327e-05
5.84737e-05
5.88789e-05
5.92903e-05
5.96223e-05
5.98704e-05
6.00337e-05
6.00511e-05
5.96542e-05
5.79427e-05
5.25684e-05
3.85282e-05
9.31307e-06
4.51078e-05
4.48887e-05
4.44916e-05
4.4474e-05
4.41586e-05
4.37365e-05
4.34329e-05
4.22639e-05
3.98335e-05
3.59394e-05
3.15336e-05
2.73517e-05
2.36174e-05
2.0026e-05
1.64672e-05
1.40783e-05
1.42102e-05
1.90251e-05
2.25616e-05
2.34641e-05
2.35104e-05
2.55396e-05
3.12804e-05
4.03636e-05
4.84594e-05
4.68582e-05
3.08253e-05
1.61033e-05
2.61684e-05
5.34072e-05
6.15579e-05
6.21206e-05
6.25639e-05
6.3029e-05
6.34141e-05
6.37105e-05
6.39295e-05
6.40697e-05
6.40691e-05
6.36787e-05
6.21489e-05
5.77999e-05
4.79741e-05
3.06177e-05
6.00847e-05
5.69449e-05
5.31841e-05
4.92371e-05
4.56254e-05
4.18849e-05
3.83718e-05
3.49759e-05
3.12075e-05
2.72243e-05
2.35439e-05
2.07104e-05
1.87049e-05
1.76483e-05
1.86743e-05
2.45924e-05
3.47677e-05
3.99171e-05
3.86006e-05
3.5011e-05
3.01752e-05
2.47972e-05
2.02093e-05
1.77015e-05
1.75645e-05
1.71438e-05
1.74694e-05
3.1063e-05
5.65223e-05
6.42144e-05
6.42678e-05
6.42105e-05
6.44462e-05
6.47384e-05
6.50083e-05
6.52329e-05
6.54077e-05
6.55216e-05
6.55148e-05
6.51771e-05
6.39317e-05
6.06499e-05
5.40223e-05
4.42209e-05
9.03441e-05
8.53099e-05
8.05376e-05
7.5345e-05
6.92933e-05
6.27212e-05
5.60195e-05
4.98167e-05
4.42543e-05
3.9587e-05
3.52361e-05
3.15656e-05
2.93591e-05
2.969e-05
3.41008e-05
4.25309e-05
5.13238e-05
5.64318e-05
5.8152e-05
5.84863e-05
5.71433e-05
5.37581e-05
4.8634e-05
4.26027e-05
3.6581e-05
3.17908e-05
3.27779e-05
4.45582e-05
5.9892e-05
6.48113e-05
6.4611e-05
6.43814e-05
6.4486e-05
6.46924e-05
6.49308e-05
6.51522e-05
6.53371e-05
6.54814e-05
6.55728e-05
6.55499e-05
6.52005e-05
6.39468e-05
6.06611e-05
5.40399e-05
4.42667e-05
0.000113335
0.000108125
0.000103162
9.79993e-05
9.24802e-05
8.62979e-05
7.99047e-05
7.37706e-05
6.82618e-05
6.35343e-05
5.97064e-05
5.69554e-05
5.57263e-05
5.69321e-05
6.02296e-05
6.38656e-05
6.62087e-05
6.74027e-05
6.78602e-05
6.77267e-05
6.69791e-05
6.5869e-05
6.44161e-05
6.26034e-05
6.06726e-05
5.89223e-05
6.00745e-05
6.32698e-05
6.44349e-05
6.40515e-05
6.3668e-05
6.3546e-05
6.35899e-05
6.37162e-05
6.38651e-05
6.40003e-05
6.41176e-05
6.42123e-05
6.42664e-05
6.42062e-05
6.37722e-05
6.2211e-05
5.78473e-05
4.8051e-05
3.08655e-05
0.000113356
0.000108906
0.000104781
0.000100693
9.65235e-05
9.21584e-05
8.76406e-05
8.31596e-05
7.89203e-05
7.50596e-05
7.17526e-05
6.91816e-05
6.74643e-05
6.66125e-05
6.62695e-05
6.59865e-05
6.5603e-05
6.51824e-05
6.47875e-05
6.44953e-05
6.42321e-05
6.39667e-05
6.36168e-05
6.31948e-05
6.27603e-05
6.23085e-05
6.20622e-05
6.17494e-05
6.12437e-05
6.07559e-05
6.04408e-05
6.02887e-05
6.02354e-05
6.02315e-05
6.0253e-05
6.02904e-05
9.49258e-05
9.18498e-05
8.90742e-05
8.62199e-05
8.3431e-05
8.0587e-05
7.76635e-05
7.46928e-05
7.17773e-05
6.90135e-05
6.64951e-05
6.43042e-05
6.24627e-05
6.09182e-05
5.95946e-05
5.84422e-05
5.74662e-05
5.66833e-05
5.60707e-05
5.55983e-05
5.5259e-05
5.50293e-05
5.48733e-05
5.47465e-05
5.46061e-05
5.44126e-05
5.4133e-05
5.37406e-05
5.32916e-05
5.28542e-05
5.24694e-05
5.21659e-05
5.19466e-05
5.17961e-05
5.16984e-05
5.56579e-05
5.45651e-05
5.37413e-05
5.25597e-05
5.15248e-05
5.04802e-05
4.93618e-05
4.81491e-05
4.68989e-05
4.56326e-05
4.43926e-05
4.32177e-05
4.21257e-05
4.11092e-05
4.01624e-05
3.92977e-05
3.85445e-05
3.79295e-05
3.74652e-05
3.71226e-05
3.69144e-05
3.69086e-05
3.70408e-05
3.72134e-05
3.73171e-05
3.73361e-05
3.72211e-05
3.69586e-05
3.65906e-05
3.61878e-05
3.58104e-05
3.54873e-05
3.52293e-05
3.50329e-05
3.48881e-05
1.10195e-05
1.08029e-05
1.05958e-05
1.0399e-05
1.02062e-05
1.00169e-05
9.83234e-06
9.65373e-06
9.48177e-06
9.31831e-06
9.16453e-06
9.02125e-06
8.88838e-06
8.7662e-06
8.65482e-06
8.55515e-06
8.46802e-06
8.39409e-06
8.3337e-06
8.28803e-06
8.25389e-06
8.22367e-06
8.1951e-06
8.16726e-06
8.13973e-06
8.10723e-06
8.06777e-06
8.02262e-06
7.9751e-06
7.9292e-06
7.88808e-06
7.85353e-06
7.82594e-06
7.80484e-06
7.78931e-06
6.79495e-05
7.13866e-05
7.4631e-05
7.58228e-05
7.54559e-05
7.29736e-05
6.4824e-05
5.35697e-05
4.00949e-05
3.46952e-05
3.44223e-05
3.45546e-05
3.37083e-05
3.27466e-05
2.9551e-05
2.40263e-05
2.36775e-05
2.53391e-05
2.93176e-05
3.29756e-05
3.6604e-05
3.89231e-05
3.91381e-05
3.88151e-05
3.63768e-05
2.78053e-05
1.46946e-05
9.05195e-06
8.29267e-06
8.12679e-06
8.04702e-06
7.99774e-06
7.96505e-06
7.94249e-06
7.92654e-06
7.91502e-06
7.9065e-06
7.89998e-06
7.89447e-06
7.88745e-06
7.86923e-06
7.80396e-06
7.59445e-06
7.61432e-06
0.00013503
0.000149198
0.000161221
0.000165919
0.000157754
0.000121677
8.59001e-05
6.66178e-05
5.94405e-05
6.11084e-05
6.7017e-05
6.39951e-05
4.97818e-05
4.17351e-05
4.2665e-05
4.56793e-05
5.01459e-05
5.52581e-05
6.20147e-05
7.08437e-05
8.04521e-05
9.01376e-05
9.22458e-05
8.9781e-05
9.07883e-05
8.21359e-05
3.38962e-05
1.37305e-05
1.88505e-05
3.29442e-05
3.57361e-05
3.61374e-05
3.67511e-05
3.73704e-05
3.78833e-05
3.82773e-05
3.85686e-05
3.87755e-05
3.88913e-05
3.88159e-05
3.81252e-05
3.54847e-05
2.76468e-05
8.63472e-06
8.57597e-05
8.40197e-05
8.20886e-05
8.20892e-05
8.39554e-05
8.51861e-05
8.0764e-05
7.13993e-05
6.51551e-05
6.05175e-05
5.86106e-05
5.04664e-05
4.40057e-05
4.32129e-05
4.32064e-05
4.30899e-05
4.15821e-05
4.21467e-05
4.46101e-05
4.9133e-05
5.70928e-05
6.95251e-05
8.40312e-05
9.66716e-05
0.000101707
9.94551e-05
9.4599e-05
8.28593e-05
5.86852e-05
1.89718e-05
2.15083e-05
5.0906e-05
5.92032e-05
5.94087e-05
5.97349e-05
6.01478e-05
6.05021e-05
6.07723e-05
6.09521e-05
6.09762e-05
6.05525e-05
5.86819e-05
5.27748e-05
3.78053e-05
8.93568e-06
6.0737e-05
5.66531e-05
5.27636e-05
5.05818e-05
4.87619e-05
4.83552e-05
4.84702e-05
4.80447e-05
4.80195e-05
4.85722e-05
4.56991e-05
4.74329e-05
4.85614e-05
4.6481e-05
4.2216e-05
3.72706e-05
3.41228e-05
3.27676e-05
3.25604e-05
3.29501e-05
3.46381e-05
4.01293e-05
5.3515e-05
7.01648e-05
8.36771e-05
8.88242e-05
8.48247e-05
6.85527e-05
2.91883e-05
2.21829e-05
5.14504e-05
7.08257e-05
7.21001e-05
7.20349e-05
7.23678e-05
7.27583e-05
7.30888e-05
7.3339e-05
7.34897e-05
7.3433e-05
7.27513e-05
7.01606e-05
6.25762e-05
4.40957e-05
9.50847e-06
5.30156e-05
5.21822e-05
5.08748e-05
4.93775e-05
4.79635e-05
4.73569e-05
4.77216e-05
4.86866e-05
5.01404e-05
4.99804e-05
4.7279e-05
4.23247e-05
3.68584e-05
3.20934e-05
2.93209e-05
2.92367e-05
3.24674e-05
3.57369e-05
3.61766e-05
3.34849e-05
2.99706e-05
2.80451e-05
2.98733e-05
3.45926e-05
3.85849e-05
3.48754e-05
2.30332e-05
2.40869e-05
5.20828e-05
7.55266e-05
7.81933e-05
7.79084e-05
7.8135e-05
7.85062e-05
7.88537e-05
7.91367e-05
7.93486e-05
7.94667e-05
7.93744e-05
7.86656e-05
7.62216e-05
6.9762e-05
5.61628e-05
3.40756e-05
7.94272e-05
7.64591e-05
7.36639e-05
7.05935e-05
6.73508e-05
6.46643e-05
6.22747e-05
6.01672e-05
5.75362e-05
5.40046e-05
4.93922e-05
4.53449e-05
4.24446e-05
4.21397e-05
4.63329e-05
5.33552e-05
5.86942e-05
5.95622e-05
5.72245e-05
5.25155e-05
4.59628e-05
3.82628e-05
3.09521e-05
2.57276e-05
2.31241e-05
2.34861e-05
3.22227e-05
5.78472e-05
7.9392e-05
8.20886e-05
8.11159e-05
8.07203e-05
8.07973e-05
8.10134e-05
8.12481e-05
8.14563e-05
8.16193e-05
8.17062e-05
8.16038e-05
8.09532e-05
7.88501e-05
7.36906e-05
6.39353e-05
5.04969e-05
0.000113329
0.000109276
0.000105511
0.000101735
9.78812e-05
9.34918e-05
8.87338e-05
8.39308e-05
7.92581e-05
7.47447e-05
7.02686e-05
6.63802e-05
6.36726e-05
6.3409e-05
6.64347e-05
7.13627e-05
7.51534e-05
7.69166e-05
7.74943e-05
7.72009e-05
7.54353e-05
7.19872e-05
6.7127e-05
6.14944e-05
5.61721e-05
5.20713e-05
5.59581e-05
7.00959e-05
8.131e-05
8.28836e-05
8.17523e-05
8.11243e-05
8.09976e-05
8.10664e-05
8.12324e-05
8.1416e-05
8.158e-05
8.17082e-05
8.17689e-05
8.16474e-05
8.09819e-05
7.88678e-05
7.3703e-05
6.39555e-05
5.05505e-05
0.000136691
0.000131832
0.000127428
0.000123037
0.000118464
0.0001137
0.000108539
0.000103216
9.80633e-05
9.33029e-05
8.91672e-05
8.599e-05
8.40579e-05
8.36419e-05
8.42989e-05
8.50873e-05
8.54675e-05
8.55474e-05
8.54061e-05
8.50326e-05
8.42927e-05
8.33237e-05
8.20751e-05
8.05971e-05
7.92715e-05
7.83904e-05
7.98398e-05
8.17617e-05
8.1676e-05
8.06437e-05
7.98632e-05
7.9476e-05
7.9356e-05
7.93804e-05
7.94583e-05
7.95467e-05
7.96319e-05
7.97001e-05
7.97154e-05
7.95498e-05
7.87843e-05
7.62986e-05
6.9818e-05
5.62531e-05
3.43515e-05
0.000135772
0.000131267
0.00012719
0.000123232
0.000119202
0.000114967
0.000110555
0.000105961
0.00010143
9.7154e-05
9.33171e-05
9.00919e-05
8.75702e-05
8.5697e-05
8.4246e-05
8.30148e-05
8.19468e-05
8.10502e-05
8.03422e-05
7.98649e-05
7.95029e-05
7.92475e-05
7.89886e-05
7.87018e-05
7.83621e-05
7.79744e-05
7.75849e-05
7.69322e-05
7.60669e-05
7.52794e-05
7.47256e-05
7.43837e-05
7.41662e-05
7.40418e-05
7.398e-05
7.39577e-05
0.000111599
0.000108487
0.000105602
0.000102646
9.97416e-05
9.67468e-05
9.36119e-05
9.03296e-05
8.70173e-05
8.38094e-05
8.08285e-05
7.81686e-05
7.58561e-05
7.38422e-05
7.20736e-05
7.05338e-05
6.92466e-05
6.82365e-05
6.74786e-05
6.69424e-05
6.66012e-05
6.6417e-05
6.63285e-05
6.62708e-05
6.61677e-05
6.5971e-05
6.56135e-05
6.50804e-05
6.44482e-05
6.37807e-05
6.31702e-05
6.26761e-05
6.23155e-05
6.20565e-05
6.18764e-05
6.28158e-05
6.19104e-05
6.10839e-05
5.98972e-05
5.88796e-05
5.78158e-05
5.66002e-05
5.52745e-05
5.3867e-05
5.24215e-05
5.09911e-05
4.96225e-05
4.83369e-05
4.71353e-05
4.60185e-05
4.50058e-05
4.41329e-05
4.34316e-05
4.292e-05
4.25835e-05
4.23909e-05
4.24205e-05
4.26065e-05
4.28276e-05
4.29708e-05
4.30029e-05
4.28529e-05
4.25082e-05
4.20288e-05
4.15153e-05
4.10356e-05
4.0622e-05
4.02877e-05
4.00293e-05
3.98352e-05