/*--------------------------------*- C++ -*----------------------------------*\
| =========                 |                                                 |
| \\      /  F ield         | OpenFOAM: The Open Source CFD Toolbox           |
|  \\    /   O peration     | Version:  2.3.1                                 |
|   \\  /    A nd           | Web:      www.OpenFOAM.org                      |
|    \\/     M anipulation  |                                                 |
\*---------------------------------------------------------------------------*/
FoamFile
{
    version     2.0;
    format      ascii;
    class       volScalarField;
    location    "10";
    object      p;
}
// * * * * * * * * * * * * * * * * * * * * * * * * * * * * * * * * * * * * * //

dimensions      [0 2 -2 0 0 0 0];

internalField   nonuniform List<scalar> 
38152
(
-8.08024
-8.0783
-8.07837
-8.08043
-8.08096
-8.08059
-8.08215
-8.0829
-8.07915
-8.07605
-8.07632
-8.07727
-8.07799
-8.07834
-8.07822
-8.07813
-8.07816
-8.07826
-8.07837
-8.07843
-8.07856
-8.07896
-8.07927
-8.07928
-8.07944
-8.07935
-8.07842
-8.07779
-8.0778
-8.07798
-8.07812
-8.07821
-8.07828
-8.07834
-8.07837
-8.0784
-8.07842
-8.07843
-8.07844
-8.07845
-8.07845
-8.07845
-8.07846
-8.07846
-8.07985
-8.0765
-8.07761
-8.08029
-8.08092
-8.08071
-8.08212
-8.08386
-8.08144
-8.0784
-8.07785
-8.07795
-8.07825
-8.07835
-8.07821
-8.07817
-8.07822
-8.07833
-8.07844
-8.07855
-8.0787
-8.07907
-8.07932
-8.0793
-8.07961
-8.0793
-8.07835
-8.07826
-8.07844
-8.07822
-8.07822
-8.07827
-8.07832
-8.07836
-8.07839
-8.07841
-8.07842
-8.07843
-8.07844
-8.07845
-8.07845
-8.07846
-8.07846
-8.07846
-8.08137
-8.07844
-8.07754
-8.07861
-8.07974
-8.08028
-8.08048
-8.08066
-8.08047
-8.07942
-8.07844
-8.07816
-8.07813
-8.07822
-8.0783
-8.07836
-8.07844
-8.07853
-8.07858
-8.07862
-8.07869
-8.07878
-8.07909
-8.07929
-8.07944
-8.08007
-8.07996
-8.07945
-8.07933
-8.07861
-8.07789
-8.0779
-8.0781
-8.07824
-8.07832
-8.07837
-8.0784
-8.07842
-8.07843
-8.07844
-8.07845
-8.07845
-8.07846
-8.07846
-8.07846
-8.08185
-8.0801
-8.07939
-8.07974
-8.0802
-8.08047
-8.08059
-8.08081
-8.08066
-8.07981
-8.07909
-8.07876
-8.07864
-8.07865
-8.07868
-8.0787
-8.07873
-8.07881
-8.07884
-8.07878
-8.07869
-8.07863
-8.07875
-8.07899
-8.07937
-8.0801
-8.08025
-8.07934
-8.07828
-8.07772
-8.07784
-8.07808
-8.07824
-8.07833
-8.07837
-8.0784
-8.07842
-8.07843
-8.07844
-8.07845
-8.07845
-8.07845
-8.07846
-8.07846
-8.07846
-8.08038
-8.07995
-8.0799
-8.07997
-8.08002
-8.07999
-8.07991
-8.07975
-8.07943
-8.07915
-8.07897
-8.07889
-8.07889
-8.07894
-8.07899
-8.07904
-8.07903
-8.07869
-8.07825
-8.07813
-8.07833
-8.07873
-8.0791
-8.07937
-8.07979
-8.07983
-8.07926
-8.07878
-8.07835
-8.07816
-8.07821
-8.07828
-8.07833
-8.07837
-8.0784
-8.07842
-8.07843
-8.07844
-8.07845
-8.07845
-8.07846
-8.07846
-8.07846
-8.07846
-8.08088
-8.0805
-8.08041
-8.08039
-8.08037
-8.08031
-8.08022
-8.07999
-8.07966
-8.0794
-8.07924
-8.07915
-8.07911
-8.07908
-8.07899
-8.07875
-8.07838
-8.0782
-8.07835
-8.07854
-8.07864
-8.07877
-8.07893
-8.07912
-8.07936
-8.07932
-8.07893
-8.07853
-8.07834
-8.07832
-8.07834
-8.07837
-8.07839
-8.07841
-8.07843
-8.07843
-8.07844
-8.07845
-8.07845
-8.07846
-8.07846
-8.07846
-8.07846
-8.07846
-8.08137
-8.0809
-8.08056
-8.08035
-8.08021
-8.0801
-8.07998
-8.07985
-8.0797
-8.0795
-8.07933
-8.07918
-8.07907
-8.07895
-8.0788
-8.0786
-8.07849
-8.07849
-8.0785
-8.07849
-8.07853
-8.07863
-8.07876
-8.07887
-8.07897
-8.07906
-8.079
-8.07881
-8.07863
-8.07847
-8.07842
-8.0784
-8.0784
-8.07841
-8.07842
-8.07843
-8.07844
-8.07845
-8.07845
-8.07846
-8.07846
-8.07846
-8.07846
-8.07846
-8.07846
-8.08155
-8.08113
-8.08082
-8.08059
-8.08043
-8.08028
-8.08013
-8.07995
-8.07974
-8.07952
-8.07932
-8.07917
-8.07904
-8.07891
-8.0788
-8.07871
-8.07863
-8.07858
-8.07856
-8.0786
-8.07864
-8.07868
-8.07873
-8.07879
-8.07885
-8.07888
-8.07883
-8.07872
-8.0786
-8.07852
-8.07848
-8.07846
-8.07845
-8.07845
-8.07845
-8.07845
-8.07845
-8.07845
-8.07846
-8.07846
-8.07846
-8.07846
-8.07846
-8.07846
-8.07846
-8.0814
-8.08105
-8.08076
-8.08051
-8.08031
-8.08012
-8.07995
-8.07979
-8.07963
-8.07946
-8.0793
-8.07916
-8.07904
-8.07892
-8.07882
-8.07874
-8.07869
-8.07866
-8.07864
-8.07864
-8.07865
-8.07868
-8.07872
-8.07876
-8.07878
-8.07879
-8.07875
-8.07868
-8.07861
-8.07855
-8.07851
-8.07848
-8.07847
-8.07846
-8.07846
-8.07846
-8.08146
-8.08114
-8.08086
-8.08062
-8.0804
-8.08021
-8.08002
-8.07984
-8.07965
-8.07948
-8.07932
-8.07918
-8.07906
-8.07896
-8.07887
-8.07879
-8.07874
-8.0787
-8.07868
-8.07867
-8.07868
-8.07869
-8.07871
-8.07873
-8.07874
-8.07874
-8.07871
-8.07866
-8.07861
-8.07856
-8.07853
-8.0785
-8.07849
-8.07848
-8.07847
-8.08139
-8.08109
-8.08082
-8.08058
-8.08035
-8.08015
-8.07997
-8.07979
-8.07962
-8.07947
-8.07932
-8.07919
-8.07907
-8.07897
-8.07888
-8.07881
-8.07876
-8.07872
-8.0787
-8.07869
-8.07868
-8.07869
-8.0787
-8.07871
-8.07872
-8.07871
-8.07868
-8.07864
-8.0786
-8.07857
-8.07853
-8.07851
-8.0785
-8.07848
-8.07848
-8.08141
-8.08112
-8.08085
-8.0806
-8.08038
-8.08017
-8.07998
-8.0798
-8.07963
-8.07947
-8.07932
-8.07919
-8.07908
-8.07898
-8.07889
-8.07882
-8.07877
-8.07873
-8.07871
-8.07869
-8.07869
-8.07869
-8.0787
-8.07871
-8.07871
-8.07869
-8.07867
-8.07864
-8.0786
-8.07857
-8.07854
-8.07852
-8.0785
-8.07849
-8.07848
-8.19111
-8.18902
-8.1889
-8.19071
-8.19136
-8.19116
-8.19288
-8.19334
-8.18973
-8.1868
-8.18704
-8.18779
-8.18844
-8.18876
-8.18865
-8.18858
-8.18863
-8.18871
-8.18879
-8.18885
-8.189
-8.18941
-8.18967
-8.18967
-8.18992
-8.18984
-8.18897
-8.18835
-8.1883
-8.1884
-8.1885
-8.18859
-8.18865
-8.1887
-8.18874
-8.18876
-8.18878
-8.18879
-8.1888
-8.18881
-8.18881
-8.18882
-8.18882
-8.18882
-8.19105
-8.18772
-8.18848
-8.19051
-8.1913
-8.19165
-8.19294
-8.19392
-8.19122
-8.18877
-8.18835
-8.18844
-8.18876
-8.18886
-8.18869
-8.18865
-8.1887
-8.18879
-8.18887
-8.18895
-8.18913
-8.1895
-8.18973
-8.18972
-8.1901
-8.18974
-8.18886
-8.1887
-8.1888
-8.18858
-8.18859
-8.18864
-8.18869
-8.18872
-8.18875
-8.18877
-8.18879
-8.1888
-8.1888
-8.18881
-8.18881
-8.18882
-8.18882
-8.18882
-8.19218
-8.18934
-8.18847
-8.18925
-8.19018
-8.19068
-8.19089
-8.19115
-8.19092
-8.18982
-8.18888
-8.18861
-8.18859
-8.1887
-8.18879
-8.18885
-8.18893
-8.18899
-8.18901
-8.18902
-8.18905
-8.18916
-8.18947
-8.18969
-8.18986
-8.19048
-8.19029
-8.18978
-8.18969
-8.18898
-8.1883
-8.1883
-8.18848
-8.18861
-8.18869
-8.18873
-8.18876
-8.18878
-8.1888
-8.18881
-8.18881
-8.18882
-8.18882
-8.18882
-8.18882
-8.19223
-8.19065
-8.18995
-8.19022
-8.19064
-8.19092
-8.19107
-8.19127
-8.19105
-8.19019
-8.18952
-8.18921
-8.1891
-8.18913
-8.18915
-8.18917
-8.18918
-8.18919
-8.18921
-8.18921
-8.18914
-8.18905
-8.18915
-8.18943
-8.18986
-8.19055
-8.19058
-8.18969
-8.1887
-8.18817
-8.18827
-8.18848
-8.18862
-8.18869
-8.18874
-8.18876
-8.18878
-8.18879
-8.1888
-8.18881
-8.18881
-8.18882
-8.18882
-8.18882
-8.18882
-8.1908
-8.19037
-8.19031
-8.19037
-8.19043
-8.19041
-8.19035
-8.19018
-8.18985
-8.18957
-8.1894
-8.18933
-8.18933
-8.18936
-8.18941
-8.18946
-8.18946
-8.18917
-8.18875
-8.18869
-8.18889
-8.18921
-8.18951
-8.18976
-8.19012
-8.19012
-8.18957
-8.18913
-8.18872
-8.18855
-8.18859
-8.18865
-8.1887
-8.18873
-8.18876
-8.18878
-8.1888
-8.1888
-8.18881
-8.18882
-8.18882
-8.18882
-8.18882
-8.18882
-8.19128
-8.1909
-8.19078
-8.19077
-8.19074
-8.19069
-8.19059
-8.19037
-8.19004
-8.18979
-8.18963
-8.18955
-8.18952
-8.18949
-8.1894
-8.1892
-8.18888
-8.18872
-8.18883
-8.18894
-8.18902
-8.18914
-8.1893
-8.18949
-8.1897
-8.18965
-8.18927
-8.18889
-8.18871
-8.18869
-8.18871
-8.18874
-8.18876
-8.18878
-8.18879
-8.1888
-8.1888
-8.18881
-8.18881
-8.18882
-8.18882
-8.18882
-8.18882
-8.18882
-8.19175
-8.19128
-8.19094
-8.19072
-8.19058
-8.19046
-8.19035
-8.19022
-8.19007
-8.18988
-8.1897
-8.18956
-8.18944
-8.18933
-8.18919
-8.18903
-8.18894
-8.18892
-8.1889
-8.18888
-8.18892
-8.18901
-8.18913
-8.18924
-8.18933
-8.18941
-8.18935
-8.18916
-8.18899
-8.18884
-8.18878
-8.18876
-8.18877
-8.18878
-8.18879
-8.1888
-8.1888
-8.18881
-8.18882
-8.18882
-8.18882
-8.18882
-8.18882
-8.18882
-8.18883
-8.19192
-8.19151
-8.19119
-8.19096
-8.19079
-8.19064
-8.19048
-8.19031
-8.1901
-8.18988
-8.18969
-8.18954
-8.18941
-8.18929
-8.18919
-8.1891
-8.18902
-8.18896
-8.18895
-8.18897
-8.18901
-8.18904
-8.1891
-8.18916
-8.18921
-8.18924
-8.18919
-8.18908
-8.18897
-8.18889
-8.18884
-8.18882
-8.18881
-8.18881
-8.18881
-8.18881
-8.18881
-8.18882
-8.18882
-8.18882
-8.18882
-8.18882
-8.18883
-8.18883
-8.18883
-8.19177
-8.19142
-8.19113
-8.19088
-8.19067
-8.19049
-8.19032
-8.19016
-8.18999
-8.18983
-8.18967
-8.18953
-8.1894
-8.18929
-8.18919
-8.18912
-8.18907
-8.18903
-8.18901
-8.189
-8.18901
-8.18905
-8.18908
-8.18912
-8.18914
-8.18915
-8.18911
-8.18904
-8.18897
-8.18891
-8.18887
-8.18884
-8.18883
-8.18883
-8.18882
-8.18882
-8.19183
-8.19151
-8.19123
-8.19098
-8.19077
-8.19057
-8.19038
-8.1902
-8.19002
-8.18985
-8.18969
-8.18955
-8.18943
-8.18932
-8.18923
-8.18916
-8.1891
-8.18906
-8.18904
-8.18904
-8.18904
-8.18906
-8.18907
-8.18909
-8.1891
-8.1891
-8.18907
-8.18902
-8.18897
-8.18892
-8.18889
-8.18887
-8.18885
-8.18884
-8.18883
-8.19176
-8.19146
-8.19119
-8.19094
-8.19072
-8.19052
-8.19033
-8.19015
-8.18999
-8.18983
-8.18968
-8.18955
-8.18943
-8.18933
-8.18925
-8.18918
-8.18912
-8.18909
-8.18906
-8.18905
-8.18905
-8.18906
-8.18907
-8.18908
-8.18908
-8.18907
-8.18904
-8.18901
-8.18897
-8.18893
-8.1889
-8.18887
-8.18886
-8.18885
-8.18884
-8.19177
-8.19148
-8.19121
-8.19097
-8.19074
-8.19054
-8.19034
-8.19016
-8.18999
-8.18983
-8.18968
-8.18955
-8.18944
-8.18934
-8.18925
-8.18919
-8.18913
-8.18909
-8.18907
-8.18906
-8.18905
-8.18906
-8.18906
-8.18907
-8.18907
-8.18906
-8.18903
-8.189
-8.18896
-8.18893
-8.1889
-8.18888
-8.18886
-8.18885
-8.18884
-8.30143
-8.29978
-8.29961
-8.30087
-8.30159
-8.30172
-8.30345
-8.30367
-8.30026
-8.29763
-8.29787
-8.2984
-8.29893
-8.29919
-8.29906
-8.29899
-8.29903
-8.2991
-8.29917
-8.29924
-8.2994
-8.29974
-8.29999
-8.30002
-8.30032
-8.30024
-8.29946
-8.29889
-8.29882
-8.29883
-8.2989
-8.29897
-8.29903
-8.29907
-8.2991
-8.29913
-8.29914
-8.29916
-8.29917
-8.29917
-8.29918
-8.29918
-8.29918
-8.29918
-8.30135
-8.29887
-8.29949
-8.30095
-8.30182
-8.30232
-8.30333
-8.30369
-8.30108
-8.29916
-8.29881
-8.29889
-8.29919
-8.29928
-8.2991
-8.29905
-8.29909
-8.29916
-8.29923
-8.29932
-8.29949
-8.29985
-8.3001
-8.30015
-8.3005
-8.30015
-8.29932
-8.29913
-8.29913
-8.29896
-8.29898
-8.29902
-8.29906
-8.29909
-8.29911
-8.29913
-8.29915
-8.29916
-8.29917
-8.29917
-8.29918
-8.29918
-8.29918
-8.29918
-8.30206
-8.30005
-8.29937
-8.29988
-8.30063
-8.30107
-8.30127
-8.30151
-8.30126
-8.30016
-8.2993
-8.29904
-8.29901
-8.29912
-8.2992
-8.29923
-8.29927
-8.2993
-8.2993
-8.29931
-8.29935
-8.29947
-8.29982
-8.30008
-8.30031
-8.30082
-8.30058
-8.30008
-8.30002
-8.29932
-8.29871
-8.29873
-8.29888
-8.29899
-8.29906
-8.2991
-8.29913
-8.29915
-8.29916
-8.29917
-8.29917
-8.29918
-8.29918
-8.29918
-8.29918
-8.30251
-8.30117
-8.30053
-8.3007
-8.30106
-8.30133
-8.30147
-8.30161
-8.30133
-8.3005
-8.29988
-8.29958
-8.29948
-8.2995
-8.2995
-8.29948
-8.29947
-8.29948
-8.29946
-8.29939
-8.29933
-8.29934
-8.29955
-8.29988
-8.30029
-8.30086
-8.30083
-8.3
-8.29912
-8.29864
-8.29873
-8.29889
-8.299
-8.29906
-8.2991
-8.29913
-8.29914
-8.29916
-8.29917
-8.29917
-8.29918
-8.29918
-8.29918
-8.29918
-8.29918
-8.30122
-8.3008
-8.30071
-8.30076
-8.3008
-8.30079
-8.3007
-8.30052
-8.30019
-8.29991
-8.29973
-8.29965
-8.29964
-8.29967
-8.29968
-8.29969
-8.29959
-8.29933
-8.29912
-8.29913
-8.2993
-8.29959
-8.29987
-8.30012
-8.30043
-8.30038
-8.29986
-8.29946
-8.29909
-8.29894
-8.29898
-8.29902
-8.29907
-8.2991
-8.29913
-8.29915
-8.29916
-8.29917
-8.29917
-8.29918
-8.29918
-8.29918
-8.29919
-8.29919
-8.3017
-8.30132
-8.30118
-8.30114
-8.3011
-8.30104
-8.30093
-8.30069
-8.30037
-8.30011
-8.29994
-8.29985
-8.29979
-8.29974
-8.29963
-8.29943
-8.29922
-8.29916
-8.29923
-8.29931
-8.29939
-8.29951
-8.29966
-8.29983
-8.3
-8.29993
-8.29958
-8.29926
-8.2991
-8.29907
-8.29908
-8.2991
-8.29912
-8.29914
-8.29915
-8.29916
-8.29917
-8.29917
-8.29918
-8.29918
-8.29918
-8.29918
-8.29919
-8.29919
-8.30212
-8.30166
-8.30132
-8.3011
-8.30095
-8.30082
-8.30069
-8.30055
-8.30039
-8.3002
-8.30002
-8.29987
-8.29975
-8.29964
-8.29952
-8.2994
-8.29934
-8.29931
-8.29928
-8.29926
-8.2993
-8.29938
-8.29949
-8.29959
-8.29968
-8.29974
-8.29968
-8.29951
-8.29935
-8.29921
-8.29915
-8.29913
-8.29913
-8.29914
-8.29915
-8.29916
-8.29917
-8.29917
-8.29918
-8.29918
-8.29918
-8.29919
-8.29919
-8.29919
-8.29919
-8.30229
-8.30188
-8.30157
-8.30134
-8.30116
-8.301
-8.30084
-8.30066
-8.30045
-8.30024
-8.30005
-8.2999
-8.29977
-8.29966
-8.29956
-8.29948
-8.2994
-8.29934
-8.29932
-8.29934
-8.29937
-8.29941
-8.29946
-8.29952
-8.29956
-8.29959
-8.29954
-8.29943
-8.29933
-8.29925
-8.29921
-8.29919
-8.29918
-8.29917
-8.29917
-8.29918
-8.29918
-8.29918
-8.29918
-8.29918
-8.29919
-8.29919
-8.29919
-8.29919
-8.29919
-8.30213
-8.30179
-8.3015
-8.30125
-8.30104
-8.30085
-8.30068
-8.30052
-8.30035
-8.30019
-8.30003
-8.29989
-8.29977
-8.29966
-8.29956
-8.29949
-8.29944
-8.2994
-8.29937
-8.29937
-8.29938
-8.29941
-8.29945
-8.29948
-8.2995
-8.29951
-8.29947
-8.2994
-8.29933
-8.29927
-8.29923
-8.29921
-8.2992
-8.29919
-8.29919
-8.29918
-8.30219
-8.30187
-8.30159
-8.30135
-8.30113
-8.30093
-8.30075
-8.30056
-8.30038
-8.30021
-8.30005
-8.29991
-8.29979
-8.29969
-8.2996
-8.29952
-8.29947
-8.29943
-8.29941
-8.2994
-8.29941
-8.29942
-8.29944
-8.29945
-8.29946
-8.29946
-8.29943
-8.29938
-8.29933
-8.29929
-8.29925
-8.29923
-8.29921
-8.2992
-8.2992
-8.30212
-8.30182
-8.30155
-8.3013
-8.30108
-8.30088
-8.30069
-8.30052
-8.30035
-8.30019
-8.30004
-8.29991
-8.2998
-8.29969
-8.29961
-8.29954
-8.29949
-8.29945
-8.29942
-8.29941
-8.29941
-8.29942
-8.29943
-8.29944
-8.29944
-8.29943
-8.2994
-8.29937
-8.29933
-8.29929
-8.29926
-8.29924
-8.29922
-8.29921
-8.2992
-8.30213
-8.30184
-8.30157
-8.30133
-8.3011
-8.3009
-8.3007
-8.30052
-8.30035
-8.30019
-8.30004
-8.29991
-8.2998
-8.2997
-8.29962
-8.29955
-8.2995
-8.29946
-8.29943
-8.29942
-8.29942
-8.29942
-8.29943
-8.29943
-8.29943
-8.29942
-8.29939
-8.29936
-8.29932
-8.29929
-8.29926
-8.29924
-8.29922
-8.29921
-8.2992
-8.41122
-8.4102
-8.41021
-8.41126
-8.41201
-8.41232
-8.41367
-8.41366
-8.41065
-8.40853
-8.40868
-8.409
-8.40946
-8.40965
-8.40948
-8.40938
-8.40942
-8.40948
-8.40956
-8.40966
-8.40983
-8.41017
-8.41038
-8.41043
-8.41066
-8.41057
-8.40993
-8.40945
-8.40931
-8.40927
-8.40931
-8.40936
-8.4094
-8.40944
-8.40947
-8.40949
-8.40951
-8.40952
-8.40953
-8.40954
-8.40954
-8.40954
-8.40954
-8.40955
-8.41137
-8.40981
-8.41032
-8.4115
-8.41246
-8.4129
-8.41347
-8.41329
-8.41102
-8.40966
-8.40933
-8.40937
-8.40964
-8.40972
-8.40951
-8.40943
-8.40945
-8.40952
-8.4096
-8.4097
-8.4099
-8.41029
-8.41053
-8.41058
-8.41087
-8.41054
-8.40977
-8.40959
-8.40948
-8.40936
-8.40937
-8.40939
-8.40943
-8.40946
-8.40948
-8.4095
-8.40951
-8.40952
-8.40953
-8.40954
-8.40954
-8.40954
-8.40955
-8.40955
-8.41221
-8.41072
-8.41018
-8.41051
-8.41111
-8.4115
-8.41166
-8.41183
-8.41156
-8.41052
-8.40976
-8.40949
-8.40944
-8.40953
-8.40959
-8.40958
-8.4096
-8.40962
-8.40963
-8.40966
-8.40972
-8.40987
-8.41022
-8.4105
-8.41073
-8.41108
-8.41084
-8.41042
-8.4103
-8.40964
-8.40915
-8.40919
-8.40929
-8.40937
-8.40943
-8.40947
-8.40949
-8.40951
-8.40952
-8.40953
-8.40954
-8.40954
-8.40954
-8.40955
-8.40955
-8.41282
-8.41167
-8.41112
-8.41122
-8.41152
-8.41175
-8.41186
-8.4119
-8.41158
-8.41081
-8.41025
-8.40996
-8.40985
-8.40986
-8.40984
-8.40979
-8.40976
-8.40975
-8.40974
-8.40976
-8.40975
-8.40978
-8.41
-8.41031
-8.41066
-8.41109
-8.41101
-8.4103
-8.40954
-8.40913
-8.40921
-8.40931
-8.40939
-8.40944
-8.40947
-8.40949
-8.40951
-8.40952
-8.40953
-8.40953
-8.40954
-8.40954
-8.40955
-8.40955
-8.40955
-8.41166
-8.41125
-8.41115
-8.41118
-8.41121
-8.41118
-8.41108
-8.41089
-8.41055
-8.41027
-8.41008
-8.40998
-8.40995
-8.40995
-8.40994
-8.40992
-8.40985
-8.40966
-8.40954
-8.40959
-8.40975
-8.40999
-8.41023
-8.41044
-8.41068
-8.41059
-8.41013
-8.4098
-8.40948
-8.40936
-8.40937
-8.4094
-8.40944
-8.40947
-8.40949
-8.40951
-8.40952
-8.40953
-8.40954
-8.40954
-8.40954
-8.40955
-8.40955
-8.40955
-8.41213
-8.41176
-8.4116
-8.41154
-8.41148
-8.4114
-8.41127
-8.41102
-8.41071
-8.41045
-8.41027
-8.41016
-8.4101
-8.41002
-8.40992
-8.40978
-8.40964
-8.4096
-8.40965
-8.40971
-8.40977
-8.40988
-8.41002
-8.41016
-8.41029
-8.41021
-8.4099
-8.40963
-8.4095
-8.40946
-8.40946
-8.40948
-8.40949
-8.40951
-8.40952
-8.40953
-8.40953
-8.40954
-8.40954
-8.40954
-8.40955
-8.40955
-8.40955
-8.40955
-8.41249
-8.41204
-8.41171
-8.41149
-8.41133
-8.4112
-8.41107
-8.41092
-8.41076
-8.41056
-8.41038
-8.41022
-8.4101
-8.40999
-8.40989
-8.4098
-8.40974
-8.4097
-8.40966
-8.40965
-8.40969
-8.40976
-8.40986
-8.40995
-8.41002
-8.41007
-8.41001
-8.40985
-8.40971
-8.40958
-8.40953
-8.40951
-8.4095
-8.40951
-8.40952
-8.40953
-8.40953
-8.40954
-8.40954
-8.40954
-8.40955
-8.40955
-8.40955
-8.40955
-8.40955
-8.41266
-8.41226
-8.41195
-8.41171
-8.41153
-8.41137
-8.4112
-8.41102
-8.41081
-8.4106
-8.41042
-8.41026
-8.41014
-8.41003
-8.40994
-8.40985
-8.40978
-8.40973
-8.40971
-8.40972
-8.40974
-8.40978
-8.40982
-8.40987
-8.40992
-8.40993
-8.40989
-8.40979
-8.40969
-8.40962
-8.40958
-8.40955
-8.40954
-8.40954
-8.40954
-8.40954
-8.40954
-8.40954
-8.40955
-8.40955
-8.40955
-8.40955
-8.40955
-8.40955
-8.40955
-8.4125
-8.41216
-8.41187
-8.41162
-8.41141
-8.41122
-8.41105
-8.41088
-8.41072
-8.41055
-8.41039
-8.41025
-8.41013
-8.41002
-8.40993
-8.40986
-8.40981
-8.40977
-8.40974
-8.40974
-8.40975
-8.40978
-8.40981
-8.40984
-8.40986
-8.40986
-8.40982
-8.40976
-8.40969
-8.40964
-8.4096
-8.40957
-8.40956
-8.40955
-8.40955
-8.40955
-8.41255
-8.41224
-8.41196
-8.41171
-8.41149
-8.41129
-8.4111
-8.41092
-8.41074
-8.41057
-8.41041
-8.41027
-8.41015
-8.41005
-8.40996
-8.40989
-8.40983
-8.4098
-8.40977
-8.40977
-8.40977
-8.40978
-8.4098
-8.40981
-8.40982
-8.40981
-8.40979
-8.40974
-8.40969
-8.40965
-8.40962
-8.40959
-8.40958
-8.40957
-8.40956
-8.41248
-8.41218
-8.41191
-8.41167
-8.41144
-8.41124
-8.41105
-8.41088
-8.41071
-8.41055
-8.4104
-8.41027
-8.41016
-8.41006
-8.40997
-8.40991
-8.40985
-8.40981
-8.40979
-8.40978
-8.40977
-8.40978
-8.40979
-8.4098
-8.4098
-8.40979
-8.40976
-8.40973
-8.40969
-8.40965
-8.40962
-8.4096
-8.40958
-8.40957
-8.40957
-8.41248
-8.4122
-8.41193
-8.41169
-8.41146
-8.41125
-8.41106
-8.41088
-8.41071
-8.41055
-8.4104
-8.41027
-8.41016
-8.41006
-8.40998
-8.40991
-8.40986
-8.40982
-8.4098
-8.40978
-8.40978
-8.40978
-8.40979
-8.40979
-8.40979
-8.40978
-8.40975
-8.40972
-8.40969
-8.40965
-8.40963
-8.4096
-8.40959
-8.40958
-8.40957
-8.52132
-8.52067
-8.52077
-8.5217
-8.52239
-8.52269
-8.52359
-8.52333
-8.52076
-8.51931
-8.51936
-8.51956
-8.51995
-8.52008
-8.51986
-8.51975
-8.51981
-8.51987
-8.51996
-8.52007
-8.52025
-8.52059
-8.52076
-8.52078
-8.52091
-8.52083
-8.5203
-8.51994
-8.51977
-8.5197
-8.51971
-8.51975
-8.51978
-8.51981
-8.51984
-8.51986
-8.51987
-8.51989
-8.51989
-8.5199
-8.5199
-8.51991
-8.51991
-8.51991
-8.52143
-8.52059
-8.52105
-8.52209
-8.523
-8.52323
-8.52338
-8.52292
-8.5211
-8.52013
-8.51981
-8.51983
-8.52007
-8.52015
-8.5199
-8.5198
-8.51983
-8.51989
-8.51998
-8.52009
-8.52031
-8.52071
-8.52091
-8.52096
-8.52116
-8.52086
-8.52018
-8.52001
-8.51985
-8.51976
-8.51976
-8.51978
-8.5198
-8.51983
-8.51985
-8.51987
-8.51988
-8.51989
-8.51989
-8.5199
-8.5199
-8.51991
-8.51991
-8.51991
-8.52235
-8.52129
-8.52088
-8.52111
-8.52158
-8.5219
-8.52201
-8.5221
-8.52181
-8.52087
-8.52022
-8.51995
-8.51988
-8.51995
-8.51999
-8.51994
-8.51994
-8.51996
-8.51997
-8.52001
-8.52008
-8.52026
-8.5206
-8.52087
-8.52106
-8.52129
-8.52108
-8.52074
-8.52054
-8.51994
-8.51961
-8.51964
-8.5197
-8.51976
-8.51981
-8.51984
-8.51986
-8.51988
-8.51989
-8.5199
-8.5199
-8.5199
-8.51991
-8.51991
-8.51991
-8.5231
-8.52215
-8.52167
-8.52172
-8.52196
-8.52215
-8.52221
-8.52216
-8.52181
-8.52112
-8.52063
-8.52035
-8.52023
-8.52022
-8.52018
-8.5201
-8.52006
-8.52006
-8.52005
-8.52005
-8.52008
-8.52017
-8.52041
-8.52069
-8.52096
-8.52126
-8.52114
-8.52055
-8.51992
-8.51963
-8.51967
-8.51973
-8.51978
-8.51982
-8.51984
-8.51986
-8.51987
-8.51988
-8.51989
-8.5199
-8.5199
-8.51991
-8.51991
-8.51991
-8.51991
-8.52209
-8.5217
-8.52159
-8.5216
-8.5216
-8.52155
-8.52145
-8.52124
-8.52091
-8.52063
-8.52043
-8.52032
-8.52027
-8.52024
-8.5202
-8.52017
-8.5201
-8.52
-8.51995
-8.52
-8.52014
-8.52035
-8.52055
-8.52073
-8.52089
-8.52078
-8.52042
-8.52014
-8.51987
-8.51977
-8.51977
-8.51979
-8.51982
-8.51984
-8.51986
-8.51988
-8.51989
-8.5199
-8.5199
-8.5199
-8.51991
-8.51991
-8.51991
-8.51991
-8.52254
-8.52218
-8.52201
-8.52193
-8.52185
-8.52175
-8.5216
-8.52134
-8.52104
-8.52078
-8.52059
-8.52047
-8.52039
-8.52031
-8.52021
-8.52011
-8.52002
-8.52
-8.52003
-8.52008
-8.52014
-8.52025
-8.52037
-8.52048
-8.52057
-8.52048
-8.52023
-8.52001
-8.5199
-8.51985
-8.51984
-8.51985
-8.51986
-8.51987
-8.51988
-8.51989
-8.5199
-8.5199
-8.5199
-8.51991
-8.51991
-8.51991
-8.51991
-8.51991
-8.52285
-8.52242
-8.5221
-8.52187
-8.52171
-8.52157
-8.52143
-8.52128
-8.52111
-8.52091
-8.52073
-8.52057
-8.52044
-8.52034
-8.52024
-8.52017
-8.52012
-8.52008
-8.52004
-8.52003
-8.52006
-8.52013
-8.52022
-8.5203
-8.52036
-8.5204
-8.52033
-8.5202
-8.52007
-8.51996
-8.5199
-8.51988
-8.51988
-8.51988
-8.51988
-8.51989
-8.5199
-8.5199
-8.5199
-8.51991
-8.51991
-8.51991
-8.51991
-8.51991
-8.51991
-8.52303
-8.52263
-8.52232
-8.52208
-8.52189
-8.52172
-8.52155
-8.52137
-8.52116
-8.52096
-8.52077
-8.52062
-8.52049
-8.52039
-8.5203
-8.52022
-8.52015
-8.5201
-8.52008
-8.52009
-8.52011
-8.52014
-8.52018
-8.52023
-8.52027
-8.52028
-8.52023
-8.52015
-8.52006
-8.51999
-8.51995
-8.51992
-8.51991
-8.5199
-8.5199
-8.5199
-8.51991
-8.51991
-8.51991
-8.51991
-8.51991
-8.51991
-8.51991
-8.51991
-8.51991
-8.52286
-8.52253
-8.52223
-8.52199
-8.52177
-8.52159
-8.52141
-8.52124
-8.52108
-8.52091
-8.52075
-8.52061
-8.52049
-8.52039
-8.5203
-8.52023
-8.52018
-8.52014
-8.52011
-8.52011
-8.52011
-8.52014
-8.52017
-8.52019
-8.52021
-8.52021
-8.52018
-8.52012
-8.52006
-8.52
-8.51997
-8.51994
-8.51993
-8.51992
-8.51991
-8.51991
-8.52291
-8.5226
-8.52231
-8.52207
-8.52185
-8.52165
-8.52146
-8.52127
-8.52109
-8.52092
-8.52077
-8.52063
-8.52051
-8.52041
-8.52033
-8.52025
-8.5202
-8.52016
-8.52014
-8.52013
-8.52013
-8.52014
-8.52016
-8.52017
-8.52018
-8.52017
-8.52014
-8.5201
-8.52005
-8.52001
-8.51998
-8.51996
-8.51994
-8.51993
-8.51992
-8.52283
-8.52254
-8.52227
-8.52203
-8.5218
-8.5216
-8.52141
-8.52123
-8.52107
-8.52091
-8.52076
-8.52063
-8.52052
-8.52042
-8.52033
-8.52027
-8.52022
-8.52018
-8.52015
-8.52014
-8.52014
-8.52014
-8.52015
-8.52016
-8.52016
-8.52015
-8.52012
-8.52009
-8.52005
-8.52002
-8.51999
-8.51996
-8.51995
-8.51994
-8.51993
-8.52284
-8.52255
-8.52229
-8.52204
-8.52182
-8.52161
-8.52142
-8.52124
-8.52106
-8.52091
-8.52076
-8.52063
-8.52052
-8.52042
-8.52034
-8.52027
-8.52022
-8.52018
-8.52016
-8.52015
-8.52014
-8.52014
-8.52015
-8.52015
-8.52015
-8.52013
-8.52011
-8.52008
-8.52005
-8.52002
-8.51999
-8.51997
-8.51995
-8.51994
-8.51993
-8.63143
-8.63112
-8.63133
-8.63218
-8.63276
-8.63293
-8.6333
-8.63297
-8.63083
-8.62995
-8.62993
-8.63008
-8.63042
-8.63049
-8.63022
-8.63011
-8.63019
-8.63027
-8.63036
-8.63048
-8.63069
-8.63102
-8.63115
-8.63112
-8.63119
-8.63109
-8.63065
-8.63038
-8.6302
-8.63013
-8.63012
-8.63014
-8.63016
-8.63019
-8.63021
-8.63023
-8.63024
-8.63025
-8.63026
-8.63026
-8.63027
-8.63027
-8.63027
-8.63027
-8.63167
-8.63128
-8.63172
-8.63266
-8.63338
-8.63336
-8.6332
-8.63273
-8.6313
-8.63055
-8.63025
-8.63026
-8.6305
-8.63057
-8.63028
-8.63017
-8.6302
-8.63027
-8.63036
-8.63049
-8.63073
-8.6311
-8.63125
-8.63129
-8.6314
-8.63112
-8.63056
-8.6304
-8.63024
-8.63017
-8.63015
-8.63016
-8.63018
-8.6302
-8.63022
-8.63023
-8.63024
-8.63025
-8.63026
-8.63026
-8.63027
-8.63027
-8.63027
-8.63027
-8.63258
-8.6318
-8.6315
-8.63166
-8.63205
-8.6323
-8.63234
-8.63235
-8.63204
-8.63122
-8.63067
-8.6304
-8.63031
-8.63036
-8.63037
-8.63031
-8.63029
-8.63032
-8.63034
-8.63038
-8.63047
-8.63065
-8.63096
-8.63119
-8.63132
-8.63148
-8.6313
-8.63101
-8.63076
-8.63027
-8.63007
-8.63007
-8.6301
-8.63015
-8.63018
-8.63021
-8.63023
-8.63024
-8.63025
-8.63026
-8.63026
-8.63027
-8.63027
-8.63027
-8.63027
-8.6334
-8.6326
-8.6322
-8.63221
-8.63239
-8.63252
-8.63251
-8.63239
-8.63204
-8.63144
-8.631
-8.63073
-8.63061
-8.6306
-8.63054
-8.63045
-8.6304
-8.6304
-8.63041
-8.63044
-8.63048
-8.63058
-8.63079
-8.63102
-8.63121
-8.6314
-8.63126
-8.63079
-8.6303
-8.63011
-8.63012
-8.63014
-8.63017
-8.63019
-8.63021
-8.63023
-8.63024
-8.63025
-8.63026
-8.63026
-8.63027
-8.63027
-8.63027
-8.63027
-8.63027
-8.6325
-8.63215
-8.63203
-8.63201
-8.632
-8.63193
-8.63181
-8.63159
-8.63127
-8.63101
-8.63081
-8.63068
-8.63062
-8.63057
-8.63053
-8.63049
-8.63044
-8.63037
-8.63035
-8.63041
-8.63053
-8.6307
-8.63086
-8.63099
-8.6311
-8.63099
-8.63072
-8.6305
-8.63027
-8.63018
-8.63016
-8.63017
-8.63019
-8.63021
-8.63023
-8.63024
-8.63025
-8.63026
-8.63026
-8.63027
-8.63027
-8.63027
-8.63027
-8.63027
-8.63293
-8.63259
-8.6324
-8.63231
-8.63222
-8.6321
-8.63193
-8.63167
-8.63139
-8.63114
-8.63095
-8.63082
-8.63073
-8.63065
-8.63056
-8.63047
-8.63041
-8.6304
-8.63042
-8.63046
-8.63051
-8.63061
-8.63071
-8.6308
-8.63086
-8.63077
-8.63057
-8.6304
-8.63029
-8.63024
-8.63023
-8.63023
-8.63023
-8.63024
-8.63025
-8.63025
-8.63026
-8.63026
-8.63027
-8.63027
-8.63027
-8.63027
-8.63027
-8.63028
-8.63322
-8.6328
-8.63249
-8.63226
-8.63209
-8.63194
-8.6318
-8.63165
-8.63147
-8.63127
-8.63109
-8.63093
-8.6308
-8.6307
-8.63061
-8.63054
-8.63049
-8.63045
-8.63042
-8.63041
-8.63044
-8.6305
-8.63058
-8.63064
-8.6307
-8.63072
-8.63066
-8.63055
-8.63043
-8.63033
-8.63028
-8.63026
-8.63025
-8.63025
-8.63025
-8.63026
-8.63026
-8.63027
-8.63027
-8.63027
-8.63027
-8.63027
-8.63028
-8.63028
-8.63028
-8.63338
-8.633
-8.63269
-8.63245
-8.63226
-8.63208
-8.6319
-8.63172
-8.63151
-8.63131
-8.63113
-8.63098
-8.63085
-8.63075
-8.63066
-8.63058
-8.63052
-8.63048
-8.63046
-8.63046
-8.63048
-8.63051
-8.63054
-8.63058
-8.63061
-8.63062
-8.63058
-8.6305
-8.63042
-8.63036
-8.63032
-8.63029
-8.63028
-8.63027
-8.63027
-8.63027
-8.63027
-8.63027
-8.63027
-8.63027
-8.63027
-8.63028
-8.63028
-8.63028
-8.63028
-8.63322
-8.63289
-8.6326
-8.63235
-8.63214
-8.63195
-8.63177
-8.6316
-8.63143
-8.63127
-8.63111
-8.63097
-8.63085
-8.63075
-8.63066
-8.63059
-8.63054
-8.6305
-8.63048
-8.63047
-8.63048
-8.6305
-8.63053
-8.63055
-8.63056
-8.63056
-8.63053
-8.63048
-8.63042
-8.63037
-8.63033
-8.63031
-8.63029
-8.63028
-8.63028
-8.63028
-8.63326
-8.63295
-8.63267
-8.63243
-8.63221
-8.632
-8.63181
-8.63163
-8.63145
-8.63128
-8.63112
-8.63099
-8.63087
-8.63077
-8.63069
-8.63062
-8.63056
-8.63053
-8.6305
-8.6305
-8.6305
-8.6305
-8.63052
-8.63053
-8.63053
-8.63052
-8.6305
-8.63046
-8.63042
-8.63038
-8.63035
-8.63032
-8.63031
-8.63029
-8.63029
-8.63319
-8.6329
-8.63263
-8.63238
-8.63216
-8.63196
-8.63177
-8.63159
-8.63142
-8.63126
-8.63112
-8.63099
-8.63087
-8.63078
-8.6307
-8.63063
-8.63058
-8.63054
-8.63052
-8.6305
-8.6305
-8.6305
-8.63051
-8.63051
-8.63051
-8.6305
-8.63048
-8.63045
-8.63041
-8.63038
-8.63035
-8.63033
-8.63031
-8.6303
-8.63029
-8.63319
-8.63291
-8.63264
-8.6324
-8.63217
-8.63197
-8.63177
-8.63159
-8.63142
-8.63126
-8.63112
-8.63099
-8.63088
-8.63078
-8.6307
-8.63063
-8.63058
-8.63055
-8.63052
-8.63051
-8.6305
-8.6305
-8.63051
-8.63051
-8.6305
-8.63049
-8.63047
-8.63044
-8.63041
-8.63038
-8.63035
-8.63033
-8.63031
-8.6303
-8.63029
-8.74172
-8.74162
-8.74191
-8.74266
-8.7431
-8.74311
-8.74321
-8.74277
-8.74107
-8.74054
-8.74049
-8.74057
-8.74085
-8.74086
-8.74054
-8.74043
-8.74055
-8.74065
-8.74075
-8.74089
-8.74111
-8.7414
-8.74149
-8.74143
-8.74146
-8.74134
-8.741
-8.74078
-8.74061
-8.74054
-8.74052
-8.74053
-8.74054
-8.74056
-8.74058
-8.7406
-8.74061
-8.74062
-8.74062
-8.74063
-8.74063
-8.74063
-8.74063
-8.74063
-8.74204
-8.7419
-8.74232
-8.7431
-8.74358
-8.74334
-8.74308
-8.74272
-8.74154
-8.741
-8.74072
-8.7407
-8.74092
-8.74098
-8.74066
-8.74053
-8.74058
-8.74065
-8.74075
-8.74089
-8.74111
-8.74141
-8.74154
-8.74157
-8.7416
-8.74136
-8.74093
-8.74078
-8.74063
-8.74057
-8.74054
-8.74054
-8.74056
-8.74057
-8.74059
-8.7406
-8.74061
-8.74062
-8.74062
-8.74063
-8.74063
-8.74063
-8.74063
-8.74063
-8.74288
-8.74228
-8.74207
-8.74219
-8.7425
-8.74267
-8.74266
-8.74261
-8.74228
-8.74159
-8.74113
-8.74086
-8.74075
-8.74076
-8.74074
-8.74066
-8.74065
-8.74067
-8.7407
-8.74075
-8.74085
-8.74102
-8.74128
-8.74146
-8.74155
-8.74165
-8.7415
-8.74125
-8.74101
-8.74064
-8.74051
-8.74049
-8.7405
-8.74053
-8.74056
-8.74058
-8.7406
-8.74061
-8.74062
-8.74062
-8.74063
-8.74063
-8.74063
-8.74063
-8.74064
-8.74373
-8.74303
-8.74269
-8.74267
-8.7428
-8.74286
-8.74279
-8.74263
-8.74229
-8.74177
-8.74139
-8.74113
-8.741
-8.74097
-8.7409
-8.7408
-8.74075
-8.74074
-8.74076
-8.74079
-8.74084
-8.74095
-8.74113
-8.7413
-8.74143
-8.74155
-8.7414
-8.74104
-8.7407
-8.74057
-8.74054
-8.74054
-8.74055
-8.74057
-8.74059
-8.7406
-8.74061
-8.74062
-8.74062
-8.74063
-8.74063
-8.74063
-8.74063
-8.74064
-8.74064
-8.74291
-8.74259
-8.74246
-8.74243
-8.74238
-8.7423
-8.74217
-8.74194
-8.74164
-8.74138
-8.74118
-8.74104
-8.74097
-8.74091
-8.74086
-8.74082
-8.74078
-8.74074
-8.74074
-8.74079
-8.7409
-8.74104
-8.74117
-8.74126
-8.74133
-8.74123
-8.74103
-8.74085
-8.74066
-8.74058
-8.74056
-8.74056
-8.74057
-8.74059
-8.7406
-8.74061
-8.74062
-8.74062
-8.74063
-8.74063
-8.74063
-8.74064
-8.74064
-8.74064
-8.74332
-8.74299
-8.74279
-8.74268
-8.74257
-8.74243
-8.74225
-8.742
-8.74173
-8.74149
-8.7413
-8.74116
-8.74107
-8.74098
-8.7409
-8.74083
-8.74079
-8.74078
-8.7408
-8.74083
-8.74088
-8.74096
-8.74105
-8.74112
-8.74115
-8.74107
-8.74091
-8.74077
-8.74068
-8.74063
-8.74061
-8.7406
-8.74061
-8.74061
-8.74062
-8.74062
-8.74062
-8.74063
-8.74063
-8.74063
-8.74064
-8.74064
-8.74064
-8.74064
-8.74358
-8.74318
-8.74287
-8.74264
-8.74247
-8.74232
-8.74217
-8.74201
-8.74183
-8.74163
-8.74145
-8.74129
-8.74116
-8.74105
-8.74097
-8.7409
-8.74086
-8.74082
-8.74079
-8.74079
-8.74082
-8.74087
-8.74093
-8.74099
-8.74103
-8.74104
-8.74099
-8.7409
-8.74079
-8.74071
-8.74066
-8.74063
-8.74062
-8.74062