/*--------------------------------*- C++ -*----------------------------------*\
| =========                 |                                                 |
| \\      /  F ield         | OpenFOAM: The Open Source CFD Toolbox           |
|  \\    /   O peration     | Version:  2.3.1                                 |
|   \\  /    A nd           | Web:      www.OpenFOAM.org                      |
|    \\/     M anipulation  |                                                 |
\*---------------------------------------------------------------------------*/
FoamFile
{
    version     2.0;
    format      ascii;
    class       surfaceScalarField;
    location    "10";
    object      phi;
}
// * * * * * * * * * * * * * * * * * * * * * * * * * * * * * * * * * * * * * //

dimensions      [0 3 -1 0 0 0 0];

internalField   nonuniform List<scalar> 
109568
(
5.21378e-05
7.81056e-06
-1.99453e-06
4.66902e-05
9.40338e-07
4.50728e-06
4.95515e-05
-4.11908e-06
1.25776e-06
5.31745e-05
-3.40653e-06
-2.16402e-07
4.6737e-05
-3.5708e-07
6.79459e-06
4.20767e-05
-1.34022e-06
6.00044e-06
5.05594e-05
-4.0413e-06
-4.44135e-06
5.41189e-05
-5.88363e-07
-2.97115e-06
3.90226e-05
6.89645e-06
8.19989e-06
2.12331e-05
6.62436e-06
1.11651e-05
1.29243e-05
1.80331e-06
6.50549e-06
9.59353e-06
-1.15675e-06
4.48749e-06
7.61341e-06
-1.87928e-06
3.85939e-06
7.48831e-06
-5.04433e-07
6.29528e-07
9.2367e-06
1.41987e-06
-3.16825e-06
1.14641e-05
2.39479e-06
-4.62218e-06
1.37453e-05
2.67359e-06
-4.95479e-06
1.54119e-05
2.68576e-06
-4.35235e-06
1.55545e-05
2.77705e-06
-2.91967e-06
1.5937e-05
2.48445e-06
-2.86699e-06
1.99909e-05
7.05063e-07
-4.75895e-06
2.51525e-05
-6.31514e-07
-4.53005e-06
2.52247e-05
1.49192e-07
-2.21441e-07
2.29516e-05
1.60446e-06
6.68673e-07
2.49923e-05
2.1271e-06
-4.1678e-06
2.67659e-05
2.15172e-06
-3.92529e-06
2.01056e-05
3.26422e-06
3.39599e-06
9.94e-06
3.20111e-06
6.96453e-06
4.77838e-06
7.027e-07
4.45892e-06
3.0461e-06
-3.67844e-07
2.10013e-06
2.12738e-06
-1.42753e-07
1.06147e-06
1.50156e-06
4.421e-08
5.81611e-07
1.06134e-06
1.022e-07
3.38019e-07
7.55819e-07
9.76468e-08
2.07876e-07
5.43639e-07
7.82085e-08
1.33972e-07
3.94919e-07
5.87343e-08
8.99857e-08
2.89085e-07
4.30724e-08
6.27612e-08
2.12286e-07
3.14439e-08
4.53555e-08
1.55208e-07
2.31171e-08
3.39606e-08
1.11493e-07
1.73289e-08
2.63867e-08
7.67674e-08
1.33378e-08
2.13875e-08
4.78392e-08
1.07167e-08
1.82114e-08
2.26542e-08
8.84347e-09
1.63416e-08
7.67345e-09
1.49807e-08
3.18809e-05
1.02858e-05
7.33563e-06
1.42569e-05
3.76773e-06
1.47966e-05
4.57743e-06
-2.29227e-06
7.85268e-06
2.14069e-06
-4.05171e-06
3.08192e-06
2.22836e-06
-2.70307e-06
2.25832e-06
2.54936e-06
-1.18102e-06
-4.80216e-07
2.29393e-06
1.44481e-07
-3.93035e-06
1.73315e-06
3.18757e-06
-3.21514e-06
1.78794e-06
6.23083e-06
6.10829e-07
2.58334e-06
5.5996e-06
2.29365e-07
2.97887e-06
3.53378e-06
-2.12601e-06
2.85002e-06
1.92932e-06
-2.95722e-06
2.9284e-06
1.35225e-06
-3.3099e-06
4.33578e-06
2.43843e-06
-4.35025e-06
6.85305e-06
3.99758e-06
-5.09498e-06
9.37967e-06
4.80677e-06
-4.9386e-06
1.18488e-05
4.81249e-06
-4.60806e-06
1.414e-05
4.41083e-06
-4.01627e-06
1.55372e-05
4.68868e-06
-3.30879e-06
1.63452e-05
4.47695e-06
-2.80056e-06
1.88958e-05
6.60118e-07
-2.5056e-06
2.23761e-05
-2.26256e-06
-1.84924e-06
2.16882e-05
7.49358e-08
7.62087e-07
2.17817e-05
-8.70517e-07
2.38156e-06
2.73631e-05
-3.79118e-06
3.36806e-07
2.44228e-05
2.97607e-06
2.11604e-06
1.145e-05
1.10208e-05
5.21609e-06
3.95132e-06
7.59895e-06
3.10087e-06
2.46407e-06
1.01454e-06
1.17541e-06
1.97034e-06
-9.83288e-07
1.10918e-06
1.57543e-06
-4.95326e-07
7.47479e-07
1.19014e-06
-2.04689e-08
4.4997e-07
8.88632e-07
1.2301e-07
2.80697e-07
6.61548e-07
1.42514e-07
1.82217e-07
4.92656e-07
1.24187e-07
1.22913e-07
3.67485e-07
9.82977e-08
8.56081e-08
2.74336e-07
7.47892e-08
6.14327e-08
2.04322e-07
5.60535e-08
4.54035e-08
1.5085e-07
4.19472e-08
3.46423e-08
1.09008e-07
3.17655e-08
2.74053e-08
7.51563e-08
2.45627e-08
2.2627e-08
4.64596e-08
1.98147e-08
1.95988e-08
2.15537e-08
1.65557e-08
1.71937e-08
1.51806e-08
1.40466e-08
1.993e-05
1.10783e-05
7.39923e-06
9.80822e-06
9.30539e-06
1.11022e-05
2.67529e-06
4.20249e-06
6.69817e-06
-1.2623e-06
-5.76062e-07
2.22138e-06
-3.56502e-06
-2.23022e-06
4.81223e-07
-4.28506e-06
-1.88524e-06
-9.77968e-08
-4.19086e-06
-9.81056e-07
-2.94159e-07
-3.79889e-06
1.6796e-07
-4.15448e-07
-2.66249e-06
2.78212e-06
-7.30948e-07
-4.40796e-07
5.37641e-06
-1.36728e-06
1.79814e-06
5.75391e-06
-2.39324e-06
3.33606e-06
5.15653e-06
-3.16067e-06
4.27977e-06
4.52693e-06
-3.54133e-06
5.02958e-06
4.57776e-06
-3.97532e-06
6.31871e-06
5.67457e-06
-4.52528e-06
8.18321e-06
6.84537e-06
-4.71229e-06
9.97945e-06
7.43451e-06
-4.42397e-06
1.13173e-05
7.35213e-06
-3.87749e-06
1.24101e-05
6.67842e-06
-3.36042e-06
1.39199e-05
6.09217e-06
-2.91325e-06
1.59277e-05
4.43557e-06
-1.96639e-06
1.72316e-05
8.10957e-08
-7.24907e-07
1.82871e-05
-3.72706e-06
4.08951e-07
2.0185e-05
-4.01874e-06
2.19585e-06
2.21873e-05
-4.62834e-06
1.75554e-06
2.32279e-05
-4.13741e-06
-6.94407e-07
2.22984e-05
3.17295e-06
7.32592e-07
2.23032e-05
9.39946e-06
1.61666e-06
2.13975e-05
7.63153e-06
8.73111e-07
1.53037e-05
4.38253e-06
2.72577e-06
8.26048e-06
2.47964e-06
3.58031e-06
4.12805e-06
1.40376e-06
2.23333e-06
2.20281e-06
8.66538e-07
1.03824e-06
1.29047e-06
5.52336e-07
4.83015e-07
8.16206e-07
3.64033e-07
2.5274e-07
5.46497e-07
2.45994e-07
1.47902e-07
3.80815e-07
1.69604e-07
9.43758e-08
2.72512e-07
1.18809e-07
6.42829e-08
1.97977e-07
8.44412e-08
4.61474e-08
1.44257e-07
6.09282e-08
3.47386e-08
1.03715e-07
4.49182e-08
2.73895e-08
7.16206e-08
3.39881e-08
2.26691e-08
4.46767e-08
2.72144e-08
1.95442e-08
2.11968e-08
2.35547e-08
1.64809e-08
2.38874e-08
1.249e-08
-3.39858e-07
4.25466e-06
-1.64861e-06
7.35405e-06
3.26009e-06
-2.68887e-06
4.54756e-06
6.95196e-07
-4.27026e-06
2.32048e-06
-1.31516e-06
-5.51277e-06
1.38524e-06
-2.37295e-06
-5.91556e-06
1.52127e-06
-3.00371e-06
-5.71471e-06
2.33715e-06
-3.51906e-06
-5.12939e-06
3.5218e-06
-3.93917e-06
-3.5222e-06
5.19905e-06
-4.02413e-06
-1.01551e-06
6.78737e-06
-3.91765e-06
1.25531e-06
7.4448e-06
-3.96171e-06
2.78957e-06
7.55902e-06
-3.93676e-06
3.77294e-06
7.5022e-06
-3.95864e-06
4.68123e-06
7.77159e-06
-4.10211e-06
5.95342e-06
8.55863e-06
-4.15625e-06
7.22192e-06
9.24211e-06
-3.66524e-06
8.27599e-06
9.31513e-06
-2.9347e-06
9.78735e-06
8.20401e-06
-2.36325e-06
1.22807e-05
5.29812e-06
-1.11305e-06
1.5393e-05
2.5648e-06
4.15084e-07
1.75394e-05
7.47978e-07
1.54114e-06
1.6622e-05
-1.49659e-06
2.49508e-06
1.36773e-05
-3.38389e-06
2.60157e-06
1.22327e-05
-3.82201e-06
1.2479e-06
1.28167e-05
-3.30103e-06
-1.9113e-06
1.45372e-05
-1.49783e-06
-4.36011e-06
1.70892e-05
3.28019e-06
-2.65926e-06
1.81981e-05
6.96549e-06
1.32506e-06
1.45017e-05
6.98364e-06
4.34429e-06
8.26449e-06
6.03719e-06
4.58257e-06
4.00822e-06
4.03039e-06
2.70551e-06
2.06421e-06
2.13392e-06
1.21385e-06
1.21952e-06
1.15582e-06
5.55409e-07
8.021e-07
6.79624e-07
2.90127e-07
5.6361e-07
4.29916e-07
1.72607e-07
4.11194e-07
2.85865e-07
1.12545e-07
3.06137e-07
1.96631e-07
7.80297e-08
2.30018e-07
1.38411e-07
5.65172e-08
1.72942e-07
9.91379e-08
4.23793e-08
1.28907e-07
7.21051e-08
3.28587e-08
9.38608e-08
5.35782e-08
2.63859e-08
6.50438e-08
4.07654e-08
2.20397e-08
4.01204e-08
3.31228e-08
1.90149e-08
1.87905e-08
2.92199e-08
1.56647e-08
3.18635e-08
1.08144e-08
-1.51021e-06
4.30798e-06
1.84584e-06
-1.18087e-06
3.12679e-06
1.09143e-06
-1.64641e-06
2.32317e-06
4.62851e-07
-2.41618e-06
2.3093e-06
-1.54292e-07
-2.9522e-06
2.90945e-06
-8.52161e-07
-2.99235e-06
3.91733e-06
-1.54002e-06
-2.48915e-06
5.17129e-06
-2.15269e-06
-1.33199e-06
6.63903e-06
-2.59714e-06
3.34579e-07
7.88894e-06
-2.76814e-06
1.96832e-06
8.52281e-06
-2.71174e-06
3.28102e-06
8.74058e-06
-2.49426e-06
4.2987e-06
8.79057e-06
-2.30605e-06
5.28041e-06
8.98925e-06
-2.19937e-06
6.50126e-06
9.2922e-06
-1.95441e-06
8.38285e-06
8.90466e-06
-1.54414e-06
1.15553e-05
7.38316e-06
-1.24044e-06
1.38403e-05
5.35833e-06
5.60638e-07
1.10355e-05
2.98842e-06
5.11447e-06
5.18947e-06
7.44339e-07
7.66654e-06
1.55905e-06
-6.97873e-07
5.07627e-06
6.40906e-07
-1.58992e-06
1.01147e-06
1.04447e-06
-2.21752e-06
-1.56995e-06
2.08868e-06
-2.35325e-06
-2.51297e-06
3.47e-06
-1.85848e-06
-2.82388e-06
4.76076e-06
-1.60822e-07
-2.62777e-06
5.53691e-06
3.24583e-06
-7.41782e-07
4.9128e-06
5.94611e-06
1.6435e-06
3.20482e-06
6.1743e-06
2.51732e-06
2.28132e-06
4.76428e-06
2.19641e-06
1.87469e-06
2.96533e-06
1.47168e-06
1.42408e-06
1.75936e-06
8.25169e-07
1.0252e-06
1.0881e-06
4.66606e-07
7.28743e-07
7.02201e-07
2.73882e-07
5.2084e-07
4.67595e-07
1.70223e-07
3.76875e-07
3.18602e-07
1.11229e-07
2.76452e-07
2.20914e-07
7.61401e-08
2.05111e-07
1.5537e-07
5.4382e-08
1.53156e-07
1.107e-07
4.03928e-08
1.141e-07
7.99555e-08
3.12063e-08
8.38228e-08
5.88042e-08
2.50507e-08
5.97561e-08
4.40615e-08
2.07706e-08
4.05091e-08
3.47515e-08
1.76183e-08
2.81219e-08
2.7722e-08
1.38851e-08
2.74032e-08
1.09048e-08
6.30505e-09
6.48361e-09
6.47899e-09
7.99047e-10
8.10645e-10
8.00143e-10
-4.13871e-06
1.84758e-06
7.20531e-07
-2.87711e-06
1.51739e-06
3.47799e-07
-2.07295e-06
1.42071e-06
9.83018e-08
-1.5287e-06
1.75711e-06
7.94617e-09
-1.03709e-06
2.46926e-06
-5.14188e-08
-3.96159e-07
3.43164e-06
-1.55248e-07
5.54374e-07
4.52724e-06
-3.06477e-07
1.96689e-06
5.62987e-06
-4.03358e-07
3.7842e-06
6.49725e-06
-4.25616e-07
5.66152e-06
6.96329e-06
-3.17798e-07
7.35731e-06
7.11638e-06
-7.15941e-08
8.71882e-06
7.15479e-06
2.74269e-07
9.94725e-06
7.17691e-06
5.83907e-07
1.13584e-05
6.96276e-06
9.18323e-07
1.21966e-05
6.10801e-06
1.95842e-06
1.06122e-05
4.65608e-06
4.31147e-06
6.52363e-06
3.29301e-06
6.1539e-06
2.66118e-06
2.17783e-06
4.67303e-06
6.81299e-07
9.53662e-07
1.77056e-06
-1.50184e-07
-2.68714e-07
4.02324e-07
-6.36905e-07
-1.25818e-06
1.54982e-07
-1.07025e-06
-1.75283e-06
-3.13369e-08
-1.4248e-06
-1.63587e-06
-3.62831e-07
-1.63844e-06
-1.01744e-06
-6.27394e-07
-1.59667e-06
3.0493e-07
-5.07521e-07
-1.10604e-06
2.40911e-06
3.46087e-07
-3.10151e-07
3.85791e-06
1.29231e-06
4.3691e-07
3.88641e-06
1.54083e-06
8.42156e-07
3.12716e-06
1.23187e-06
8.61849e-07
2.1706e-06
7.75039e-07
7.1729e-07
1.44765e-06
4.56268e-07
5.61608e-07
9.66036e-07
2.77746e-07
4.35707e-07
6.50213e-07
1.77888e-07
3.38924e-07
4.43916e-07
1.20463e-07
2.64616e-07
3.07645e-07
8.52662e-08
2.06874e-07
2.16136e-07
6.25196e-08
1.6136e-07
1.53708e-07
4.71754e-08
1.24951e-07
1.10635e-07
3.64739e-08
9.53337e-08
8.0617e-08
2.89563e-08
7.10049e-08
5.95115e-08
2.36215e-08
5.06035e-08
4.46528e-08
1.981e-08
3.36375e-08
3.48052e-08
1.69124e-08
2.18063e-08
2.60688e-08
1.34843e-08
2.29544e-08
1.13759e-08
4.43085e-09
4.4073e-09
4.36972e-09
5.76126e-10
5.58461e-10
5.36808e-10
-9.34346e-06
8.42461e-07
-2.07835e-07
-7.95075e-06
7.35241e-07
-2.80376e-07
-6.66898e-06
5.63093e-07
-3.27475e-07
-5.40317e-06
5.04027e-07
-3.49114e-07
-4.11413e-06
7.18107e-07
-2.5004e-07
-2.76926e-06
1.20149e-06
-7.71131e-08
-1.34104e-06
1.88029e-06
1.23135e-07
1.74582e-07
2.6598e-06
3.51815e-07
1.79308e-06
3.3929e-06
6.18479e-07
3.5156e-06
3.91219e-06
8.62542e-07
5.15534e-06
4.1945e-06
1.12905e-06
6.4815e-06
4.33679e-06
1.45343e-06
7.23719e-06
4.47279e-06
1.9263e-06
7.17734e-06
4.56515e-06
2.67161e-06
6.09614e-06
4.37822e-06
3.66574e-06
4.0647e-06
3.79717e-06
4.34227e-06
1.79903e-06
3.0287e-06
3.89306e-06
3.6822e-07
2.12296e-06
2.60085e-06
-7.67793e-08
1.09635e-06
1.52649e-06
-1.82444e-07
1.62113e-07
8.97214e-07
-4.47247e-07
-4.44338e-07
4.40426e-07
-9.44533e-07
-7.94653e-07
3.37597e-08
-1.52948e-06
-9.7149e-07
-1.96393e-07
-2.04027e-06
-8.73883e-07
-2.51203e-07
-2.40046e-06
-4.56241e-07
-2.01008e-07
-2.46176e-06
3.78588e-07
-1.23592e-08
-1.96467e-06
1.53881e-06
3.73212e-07
-1.11706e-06
2.29906e-06
7.11238e-07
-3.55116e-07
2.35945e-06
7.65008e-07
1.41155e-07
1.99369e-06
6.37195e-07
3.46963e-07
1.51044e-06
4.54355e-07
3.86598e-07
1.09609e-06
3.11924e-07
3.56686e-07
7.81902e-07
2.14047e-07
3.0353e-07
5.5493e-07
1.48439e-07
2.48543e-07
3.93918e-07
1.04985e-07
2.00016e-07
2.80303e-07
7.58691e-08
1.59658e-07
2.00225e-07
5.62683e-08
1.26745e-07
1.43774e-07
4.28463e-08
9.99151e-08
1.03948e-07
3.35168e-08
7.76143e-08
7.59173e-08
2.70004e-08
5.86885e-08
5.61334e-08
2.2304e-08
4.21597e-08
4.23013e-08
1.88802e-08
2.79314e-08
3.27267e-08
1.63069e-08
1.53685e-08
2.56413e-08
1.29904e-08
2.05109e-08
1.14959e-08
1.90506e-09
1.84842e-09
1.81271e-09
2.71493e-10
2.482e-10
2.30199e-10
-1.03819e-05
4.44615e-07
-6.06338e-07
-9.52849e-06
4.10643e-07
-5.28815e-07
-8.77013e-06
3.2415e-07
-5.19419e-07
-8.07251e-06
2.6676e-07
-4.60355e-07
-7.32611e-06
3.23703e-07
-3.51997e-07
-6.4631e-06
5.14542e-07
-1.76054e-07
-5.4689e-06
8.20297e-07
6.57931e-08
-4.37726e-06
1.19839e-06
3.69765e-07
-3.24382e-06
1.572e-06
6.87458e-07
-2.17653e-06
1.86862e-06
9.76271e-07
-1.30834e-06
2.08287e-06
1.24345e-06
-7.24863e-07
2.24274e-06
1.51058e-06
-4.77345e-07
2.40061e-06
1.82467e-06
-5.45339e-07
2.50441e-06
2.12873e-06
-8.00573e-07
2.42193e-06
2.21153e-06
-1.02206e-06
2.10038e-06
1.91828e-06
-1.01901e-06
1.59778e-06
1.42786e-06
-8.86728e-07
1.06787e-06
9.22812e-07
-8.43745e-07
5.78969e-07
4.74394e-07
-9.3982e-07
1.30266e-07
1.27922e-07
-1.08793e-06
-2.44268e-07
-5.19589e-08
-1.26207e-06
-5.09085e-07
-1.11428e-07
-1.50828e-06
-5.95798e-07
-1.29483e-07
-1.77744e-06
-4.89465e-07
-1.15255e-07
-1.98096e-06
-1.94372e-07
-5.83512e-08
-1.98091e-06
3.1645e-07
6.20836e-08
-1.62699e-06
9.42485e-07
2.42402e-07
-1.06653e-06
1.36437e-06
3.74229e-07
-5.47471e-07
1.45077e-06
3.89625e-07
-1.875e-07
1.30342e-06
3.30304e-07
1.19848e-08
1.05657e-06
2.54381e-07
1.07319e-07
8.1143e-07
1.89328e-07
1.43666e-07
6.04992e-07
1.40563e-07
1.49942e-07
4.4346e-07
1.05193e-07
1.41588e-07
3.22391e-07
7.9881e-08
1.26796e-07
2.33521e-07
6.15732e-08
1.09662e-07
4.81187e-08
9.23265e-08
3.81188e-08
7.59342e-08
3.06826e-08
6.07444e-08
2.52488e-08
4.67439e-08
2.12103e-08
3.3332e-08
1.83087e-08
2.11559e-08
1.60242e-08
8.62358e-09
1.27496e-08
1.14509e-08
-1.73954e-10
-2.66182e-10
-2.61974e-10
9.6401e-12
-1.20962e-11
-2.09721e-11
-1.03682e-05
2.44903e-07
-6.32977e-07
-9.59799e-06
2.32307e-07
-5.91853e-07
-8.91799e-06
2.0001e-07
-5.55863e-07
-8.31013e-06
1.69291e-07
-5.10389e-07
-7.742e-06
2.00053e-07
-4.4448e-07
-7.17619e-06
2.99918e-07
-3.51184e-07
-6.5861e-06
4.59521e-07
-2.29311e-07
-5.96162e-06
6.54128e-07
-8.02184e-08
-5.30991e-06
8.42891e-07
7.73939e-08
-4.6674e-06
9.94075e-07
2.32047e-07
-4.07099e-06
1.10559e-06
3.80864e-07
-3.54291e-06
1.19041e-06
5.2425e-07
-3.07123e-06
1.26532e-06
6.63606e-07
-2.6264e-06
1.30085e-06
7.58733e-07
-2.19745e-06
1.24311e-06
7.49868e-07
-1.80154e-06
1.07484e-06
6.29622e-07
-1.48166e-06
8.30447e-07
4.47448e-07
-1.24478e-06
5.54226e-07
2.76765e-07
-1.08571e-06
2.69035e-07
1.50871e-07
-1.02292e-06
1.11266e-08
5.63515e-08
-1.07116e-06
-1.79443e-07
-1.65879e-08
-1.20814e-06
-3.0043e-07
-7.16727e-08
-1.37612e-06
-3.38477e-07
-8.93483e-08
-1.52771e-06
-2.65557e-07
-7.23162e-08
-1.61695e-06
-7.8952e-08
-2.61822e-08
-1.57172e-06
2.21284e-07
4.99393e-08
-1.33421e-06
5.65541e-07
1.39437e-07
-9.77254e-07
8.04123e-07
2.03292e-07
-6.23443e-07
8.77943e-07
2.1902e-07
-3.43702e-07
8.21456e-07
2.02223e-07
-1.55345e-07
6.97407e-07
1.70807e-07
-4.00047e-08
5.58271e-07
1.37818e-07
2.51016e-08
4.31096e-07
1.08789e-07
5.81856e-08
3.25024e-07
8.53527e-08
7.20133e-08
2.41531e-07
6.70328e-08
5.3089e-08
-1.04149e-05
2.74083e-07
-8.00426e-07
-9.69984e-06
2.45922e-07
-7.28719e-07
-9.04917e-06
2.41092e-07
-6.91753e-07
-8.45562e-06
2.17724e-07
-6.41981e-07
-7.89068e-06
2.2285e-07
-5.87743e-07
-7.32682e-06
2.55555e-07
-5.19491e-07
-6.74776e-06
3.17575e-07
-4.37118e-07
-6.14823e-06
3.98087e-07
-3.43486e-07
-5.53896e-06
4.81526e-07
-2.47909e-07
-4.94318e-06
5.53248e-07
-1.5495e-07
-4.37789e-06
6.07567e-07
-6.72702e-08
-3.84886e-06
6.46922e-07
1.44572e-08
-3.34733e-06
6.76183e-07
8.76075e-08
-2.86717e-06
6.84293e-07
1.36404e-07
-2.42035e-06
6.51272e-07
1.45021e-07
-2.03008e-06
5.68737e-07
1.15833e-07
-1.71649e-06
4.49169e-07
6.76854e-08
-1.48602e-06
3.08839e-07
1.49174e-08
-1.34247e-06
1.60361e-07
-3.48723e-08
-1.27959e-06
1.99817e-08
-7.17312e-08
-1.26885e-06
-9.9911e-08
-9.02767e-08
-1.29852e-06
-1.77585e-07
-9.31737e-08
-1.35639e-06
-1.95591e-07
-8.50159e-08
-1.40884e-06
-1.50053e-07
-6.30507e-08
-1.41931e-06
-4.17217e-08
-2.67646e-08
-1.34561e-06
1.25735e-07
2.18528e-08
-1.16311e-06
3.09442e-07
7.35945e-08
-9.10992e-07
4.41011e-07
1.10995e-07
-6.52209e-07
4.93154e-07
1.26005e-07
-4.30284e-07
4.75819e-07
1.23712e-07
-2.61492e-07
4.16943e-07
1.11671e-07
-1.42251e-07
3.42867e-07
9.61632e-08
-6.23312e-08
2.70413e-07
8.07638e-08
-1.16849e-08
2.07374e-07
6.70029e-08
1.56026e-07
5.52332e-08
-1.03518e-05
1.0398e-07
-6.12835e-07
-9.65734e-06
9.42724e-08
-5.42828e-07
-8.98728e-06
8.92207e-08
-5.18186e-07
-8.36377e-06
7.73181e-08
-4.83109e-07
-7.76656e-06
7.92854e-08
-4.53636e-07
-7.18593e-06
9.46121e-08
-4.19689e-07
-6.61072e-06
1.22915e-07
-3.80551e-07
-6.0355e-06
1.5798e-07
-3.35112e-07
-5.46118e-06
1.92503e-07
-2.85295e-07
-4.89591e-06
2.20988e-07
-2.33013e-07
-4.35067e-06
2.42032e-07
-1.79703e-07
-3.83357e-06
2.57259e-07
-1.27441e-07
-3.34532e-06
2.67553e-07
-7.96159e-08
-2.88718e-06
2.67878e-07
-4.17249e-08
-2.46821e-06
2.52222e-07
-1.99271e-08
-2.10273e-06
2.17668e-07
-1.44104e-08
-1.80012e-06
1.66933e-07
-2.03667e-08
-1.56538e-06
1.0583e-07
-3.17298e-08
-1.40064e-06
4.1014e-08
-4.53959e-08
-1.30212e-06
-1.94994e-08
-5.90402e-08
-1.26534e-06
-6.66021e-08
-7.00892e-08
-1.27176e-06
-9.66946e-08
-7.44715e-08
-1.29474e-06
-1.03674e-07
-6.89316e-08
-1.30909e-06
-8.23947e-08
-5.33171e-08
-1.28985e-06
-3.24294e-08
-2.85312e-08
-1.20918e-06
4.18999e-08
3.17203e-09
-1.0587e-06
1.23049e-07
3.59125e-08
-8.62173e-07
1.83034e-07
6.14457e-08
-6.55063e-07
2.10336e-07
7.57088e-08
-4.66802e-07
2.07959e-07
7.95992e-08
-3.12658e-07
1.86344e-07
7.64552e-08
-1.95253e-07
1.56105e-07
6.93571e-08
-1.10574e-07
1.24932e-07
6.0802e-08
-5.2312e-08
9.68123e-08
5.23001e-08
7.32994e-08
4.45252e-08
-1.02356e-05
-6.51272e-07
-9.56198e-06
-5.79365e-07
-8.90745e-06
-5.65311e-07
-8.29259e-06
-5.37536e-07
-7.69859e-06
-5.14716e-07
-7.11636e-06
-4.87619e-07
-6.53711e-06
-4.56332e-07
-5.95874e-06
-4.20394e-07
-5.38558e-06
-3.80659e-07
-4.82614e-06
-3.3845e-07
-4.28925e-06
-2.94859e-07
-3.78048e-06
-2.51511e-07
-3.30225e-06
-2.10673e-07
-2.85891e-06
-1.75464e-07
-2.45812e-06
-1.4857e-07
-2.10962e-06
-1.30833e-07
-1.8215e-06
-1.21184e-07
-1.59835e-06
-1.17316e-07
-1.44023e-06
-1.17114e-07
-1.34231e-06
-1.17419e-07
-1.29239e-06
-1.16518e-07
-1.27642e-06
-1.12666e-07
-1.27582e-06
-1.04276e-07
-1.26835e-06
-8.98583e-08
-1.2317e-06
-6.90829e-08
-1.14652e-06
-4.32836e-08
-1.00807e-06
-1.54002e-08
-8.33768e-07
8.73538e-09
-6.49442e-07
2.601e-08
-4.77786e-07
3.63021e-08
-3.32281e-07
4.084e-08
-2.17408e-07
4.1231e-08
-1.31596e-07
3.91198e-08
-7.05241e-08
3.57406e-08
3.18797e-08
3.81294e-05
7.20368e-06
-2.87611e-06
3.63174e-05
-4.66191e-07
6.78546e-06
3.72715e-05
-4.32211e-06
4.62578e-06
3.63211e-05
-4.52664e-06
5.26066e-06
3.50533e-05
-3.3601e-06
1.14225e-05
4.08488e-05
-3.56307e-06
3.76799e-06
4.94517e-05
-3.03147e-06
-1.00128e-05
4.60444e-05
2.16865e-06
-1.73258e-06
3.00393e-05
7.89344e-06
1.63116e-05
1.71688e-05
6.39586e-06
1.76398e-05
1.21229e-05
1.86133e-06
9.69003e-06
1.03048e-05
-9.29499e-07
7.23513e-06
9.2224e-06
-1.37419e-06
6.31593e-06
8.86506e-06
3.61383e-07
6.25491e-07
9.62852e-06
1.92034e-06
-5.85205e-06
1.06836e-05
1.98229e-06
-7.65957e-06
1.15796e-05
1.37553e-06
-7.22629e-06
1.2626e-05
7.24474e-07
-6.12325e-06
1.41671e-05
1.34029e-07
-4.59478e-06
1.63272e-05
-9.66499e-07
-4.0606e-06
1.89051e-05
-2.70691e-06
-4.62997e-06
2.04995e-05
-3.13653e-06
-2.98789e-06
2.14389e-05
-1.95235e-06
7.91537e-07
2.40958e-05
-1.04182e-06
-9.46412e-07
2.6138e-05
-5.87692e-07
-5.62229e-06
2.25315e-05
6.90515e-07
-1.00928e-06
1.3562e-05
2.93729e-06
9.42811e-06
6.3366e-06
2.84166e-06
1.13483e-05
3.77833e-06
4.08452e-07
6.60873e-06
2.79456e-06
-3.60656e-07
3.44456e-06
2.05384e-06
-1.0285e-07
1.90503e-06
1.47687e-06
6.41594e-08
1.09443e-06
1.05414e-06
1.08152e-07
6.52594e-07
7.55395e-07
9.92666e-08
4.07357e-07
5.45768e-07
7.8526e-08
2.65072e-07
3.9781e-07
5.86339e-08
1.7931e-07
2.91976e-07
4.28101e-08
1.25785e-07
2.14864e-07
3.1102e-08
9.13657e-08
1.57361e-07
2.27303e-08
6.87329e-08
1.13197e-07
1.69104e-08
5.36404e-08
7.80348e-08
1.28985e-08
4.36514e-08
4.86759e-08
1.03449e-08
3.72254e-08
2.31813e-08
8.57482e-09
3.32613e-08
7.51643e-09
3.06456e-08
1.59744e-05
4.8196e-06
1.75669e-05
8.70071e-06
8.18524e-07
2.07855e-05
5.31738e-06
-2.9443e-06
9.85821e-06
4.17349e-06
-4.2898e-06
3.98896e-06
4.78216e-06
-3.36922e-06
1.65877e-06
5.64402e-06
-2.06397e-06
-2.84118e-06
5.25538e-06
-3.22245e-07
-6.25094e-06
3.83787e-06
3.29123e-06
-2.92021e-06
3.6271e-06
6.15394e-06
2.5611e-06
4.01442e-06
5.16495e-06
1.07296e-06
3.52192e-06
3.02693e-06
-2.79911e-06
2.79858e-06
1.49046e-06
-4.65385e-06
2.52189e-06
9.33012e-07
-5.3404e-06
3.47037e-06
1.73114e-06
-6.66848e-06
5.39729e-06
2.57291e-06
-7.67448e-06
7.20645e-06
2.48168e-06
-7.24715e-06
8.74491e-06
1.81007e-06
-6.58106e-06
1.03186e-05
8.68614e-07
-5.73413e-06
1.20323e-05
-1.70373e-07
-4.71806e-06
1.383e-05
-1.78872e-06
-3.77599e-06
1.61564e-05
-4.39412e-06
-3.14485e-06
1.83688e-05
-5.5127e-06
-1.68549e-06
1.92297e-05
-3.91616e-06
1.86509e-06
2.20698e-05
-3.52468e-06
2.02427e-06
2.55583e-05
-2.62956e-06
-1.10984e-06
2.00291e-05
4.45054e-06
3.88522e-06
9.10303e-06
1.01355e-05
8.94396e-06
3.77065e-06
5.9431e-06
5.3318e-06
2.43794e-06
3.30188e-07
2.58639e-06
1.95744e-06
-9.83192e-07
2.21221e-06
1.57274e-06
-3.91179e-07
1.42051e-06
1.19402e-06
2.30789e-08
8.69769e-07
8.93878e-07
1.37571e-07
5.51421e-07
6.66553e-07
1.47807e-07
3.61002e-07
4.97175e-07
1.2618e-07
2.44636e-07
3.7146e-07
9.90229e-08
1.70934e-07
2.77763e-07
7.49585e-08
1.22981e-07
2.07217e-07
5.59445e-08
9.11071e-08
1.53248e-07
4.16904e-08
6.96511e-08
1.10979e-07
3.14209e-08
5.51631e-08
7.68201e-08
2.42058e-08
4.54787e-08
4.80831e-08
1.94987e-08
3.91821e-08
2.30085e-08
1.64036e-08
3.44396e-08
1.51297e-08
2.94417e-08
5.36803e-06
5.76694e-06
1.31242e-05
2.12108e-06
4.71145e-06
1.44573e-05
-4.70954e-08
1.52869e-06
8.15618e-06
-1.9505e-06
-1.70195e-06
2.88243e-06
-3.33566e-06
-2.85875e-06
4.35334e-07
-3.69067e-06
-2.44668e-06
-6.65321e-07
-3.50416e-06
-1.36888e-06
-1.17576e-06
-3.19567e-06
8.72507e-08
-1.13343e-06
-2.28461e-06
2.68073e-06
-1.03151e-06
-5.78162e-07
4.72465e-06
-1.64444e-06
9.00918e-07
4.57856e-06
-3.28594e-06
1.78374e-06
3.70594e-06
-4.7225e-06
2.34021e-06
2.8672e-06
-5.47453e-06
2.86111e-06
2.59206e-06
-6.15528e-06
3.82706e-06
3.11945e-06
-6.87954e-06
5.16401e-06
3.49529e-06
-6.97163e-06
6.4744e-06
3.13632e-06
-6.389e-06
7.82483e-06
2.06172e-06
-5.47956e-06
9.43213e-06
1.42919e-07
-4.24202e-06
1.11228e-05
-1.88969e-06
-2.88457e-06
1.23263e-05
-3.34439e-06
-1.6143e-06
1.31234e-05
-4.90805e-06
-1.00804e-06
1.44917e-05
-5.84733e-06
-6.24738e-07
1.68782e-05
-5.12105e-06
1.01423e-06
1.92649e-05
-3.87879e-06
-2.77064e-07
2.02146e-05
-1.26812e-06
-3.0055e-06
2.00115e-05
5.07719e-06
3.0901e-07
2.11193e-05
8.66622e-06
1.9782e-06
1.98521e-05
6.27998e-06
1.8034e-06
1.34055e-05
3.60953e-06
5.89307e-06
6.99411e-06
2.16406e-06
6.8444e-06
3.61852e-06
1.31792e-06
3.89983e-06
2.03868e-06
8.40832e-07
1.80032e-06
1.23885e-06
5.43982e-07
8.76442e-07
8.00383e-07
3.61671e-07
4.7734e-07
5.42904e-07
2.45609e-07
2.85953e-07
3.81539e-07
1.69737e-07
1.85027e-07
2.74641e-07
1.18978e-07
1.27161e-07
2.00376e-07
8.45045e-08
9.18523e-08
1.46503e-07
6.0875e-08
6.94268e-08
1.05707e-07
4.47522e-08
5.48546e-08
7.34475e-08
3.38075e-08
4.53268e-08
4.65866e-08
2.69997e-08
3.8904e-08
2.29357e-08
2.34092e-08
3.31262e-08
2.37931e-08
2.67623e-08
-5.57562e-06
4.317e-06
-4.53594e-06
3.86516e-06
3.0667e-06
-4.32417e-06
1.77302e-06
2.39103e-07
-5.04599e-06
3.26789e-08
-2.32798e-06
-5.78961e-06
-7.6897e-07
-3.71911e-06
-6.04581e-06
-5.74242e-07
-4.61995e-06
-5.88633e-06
2.45916e-07
-5.29332e-06
-5.41886e-06
1.3572e-06
-5.67659e-06
-4.04576e-06
2.85637e-06
-5.57288e-06
-1.8937e-06
4.07353e-06
-5.41859e-06
4.5991e-08
4.33287e-06
-5.6557e-06
1.47226e-06
4.12372e-06
-5.78081e-06
2.41296e-06
3.74973e-06
-5.78188e-06
3.18622e-06
3.54665e-06
-5.82995e-06
4.28496e-06
3.63741e-06
-5.77295e-06
5.77133e-06
3.41295e-06
-5.06928e-06
7.42972e-06
2.28445e-06
-3.74122e-06
8.79096e-06
3.96909e-07
-2.05968e-06
9.61889e-06
-1.65631e-06
-1.41754e-07
9.9802e-06
-3.1466e-06
1.31068e-06
9.66127e-06
-3.51378e-06
2.02946e-06
8.97425e-06
-3.67268e-06
1.94674e-06
8.89303e-06
-3.76225e-06
5.97701e-07
1.00114e-05
-3.30018e-06
-1.69134e-06
1.15126e-05
-2.29549e-06
-4.9958e-06
1.28169e-05
-2.13295e-09
-6.93037e-06
1.47273e-05
4.13032e-06
-3.6228e-06
1.54193e-05
6.67389e-06
2.62535e-06
1.18999e-05
6.45141e-06
7.69227e-06
6.68359e-06
5.54235e-06
7.86605e-06
3.4157e-06
3.66655e-06
4.47091e-06
1.90615e-06
1.98563e-06
2.05569e-06
1.1847e-06
1.11309e-06
1.0046e-06
7.97086e-07
6.68964e-07
5.5276e-07
5.65616e-07
4.28132e-07
3.37615e-07
4.14644e-07
2.86364e-07
2.22761e-07
3.09617e-07
1.97497e-07
1.55296e-07
2.33182e-07
1.39128e-07
1.12803e-07
1.75706e-07
9.96036e-08
8.47556e-08
1.31288e-07
7.23493e-08
6.58026e-08
9.59542e-08
5.36109e-08
5.28612e-08
6.70459e-08
4.07093e-08
4.40462e-08
4.23417e-08
3.28781e-08
3.78407e-08
2.08386e-08
2.89537e-08
3.16233e-08
3.10448e-08
2.44013e-08
-4.42578e-06
2.16602e-06
2.11792e-06
-3.81056e-06
1.14103e-06
1.1082e-06
-3.78604e-06
2.9026e-07
1.80747e-07
-3.94073e-06
-8.31933e-09
-7.60247e-07
-3.89858e-06
2.46884e-07
-1.71544e-06
-3.50557e-06
8.83914e-07
-2.57103e-06
-2.74054e-06
1.73265e-06
-3.29316e-06
-1.45762e-06
2.75089e-06
-3.77458e-06
2.91822e-07
3.52939e-06
-3.97344e-06
2.0998e-06
3.79852e-06
-3.98538e-06
3.72294e-06
3.77301e-06
-3.76668e-06
5.03511e-06
3.58076e-06
-3.44924e-06
6.17377e-06
3.32138e-06
-3.11275e-06
7.53898e-06
2.9007e-06
-2.58292e-06
8.90223e-06
1.96221e-06
-1.45664e-06
8.62037e-06
5.8176e-07
7.44112e-07
5.46596e-06
-5.12896e-07
4.62485e-06
1.67179e-06
-9.01396e-07
8.15373e-06
9.69332e-08
-1.05006e-06
7.14486e-06
3.18924e-07
-1.50415e-06
2.84465e-06
6.75703e-07
-2.13129e-06
-8.86702e-07
1.07007e-06
-2.64909e-06
-3.07748e-06
1.79977e-06
-2.5656e-06
-3.97725e-06
2.74273e-06
-1.76696e-06
-4.29536e-06
3.54857e-06
1.74073e-07
-3.60982e-06
4.01421e-06
3.3682e-06
-4.45297e-07
3.4994e-06
5.59475e-06
3.23744e-06
2.32394e-06
5.64421e-06
4.49999e-06
1.89108e-06
4.34027e-06
3.83136e-06
1.70819e-06
2.77089e-06
2.55023e-06
1.34582e-06
1.69618e-06
1.47699e-06
9.90103e-07
1.07054e-06
8.6488e-07
7.14078e-07
6.98229e-07
5.20642e-07
5.15994e-07
4.67637e-07
3.28802e-07
3.76545e-07
3.19658e-07
2.17383e-07
2.78065e-07
2.22027e-07
1.50091e-07
2.07412e-07
1.56258e-07
1.07905e-07
1.55522e-07
1.11314e-07
8.05715e-08
1.16269e-07
8.03303e-08
6.24779e-08
8.56869e-08
5.89768e-08
5.02674e-08
6.13275e-08
4.41613e-08
4.1678e-08
4.18498e-08
3.46654e-08
3.53086e-08
2.8934e-08
2.778e-08
2.79746e-08
2.66218e-08
2.2479e-08
5.63702e-09
5.7178e-09
5.64432e-09
1.59678e-09
1.60741e-09
1.57946e-09
-7.23584e-06
1.07278e-06
3.19078e-07
-6.12169e-06
5.97639e-07
-2.22967e-07
-5.30258e-06
2.35541e-07
-6.66089e-07
-4.5481e-06
1.54074e-07
-9.08924e-07
-3.70972e-06
3.63125e-07
-1.00604e-06
-2.70141e-06
7.87814e-07
-1.06746e-06
-1.47198e-06
1.31131e-06
-1.11457e-06
1.15866e-07
1.85209e-06
-1.0924e-06
1.95531e-06
2.24254e-06
-9.78217e-07
3.80938e-06
2.39396e-06
-7.67317e-07
5.48286e-06
2.38774e-06
-3.59807e-07
6.79598e-06
2.2863e-06
2.55607e-07
7.54758e-06
2.06957e-06
1.08412e-06
7.27773e-06
1.66025e-06
2.42862e-06
5.51316e-06
1.1287e-06
4.5565e-06
3.01989e-06
8.29458e-07
6.55704e-06
1.30735e-06
8.65298e-07
6.48825e-06
5.12492e-07
6.89604e-07
3.87689e-06
-7.66032e-08
4.70445e-09
1.30489e-06
-5.88135e-07
-8.54601e-07
2.64307e-07
-1.0022e-06
-1.50182e-06
-6.04244e-08
-1.43834e-06
-1.77041e-06
-4.73873e-07
-1.8126e-06
-1.5869e-06
-9.67261e-07
-2.05869e-06
-9.39319e-07
-1.20895e-06
-2.05828e-06
3.801e-07
-7.13957e-07
-1.54174e-06
2.33044e-06
8.67302e-07
-6.27109e-07
3.58907e-06
2.38337e-06
2.54298e-07
3.6088e-06
2.69482e-06
7.42049e-07
2.95257e-06
2.13182e-06
8.12249e-07
2.09094e-06
1.38479e-06
6.97564e-07
1.41722e-06
8.4991e-07
5.56588e-07
9.55788e-07
5.33469e-07
4.35933e-07
6.48156e-07
3.48617e-07
3.41077e-07
4.44663e-07
2.38293e-07
2.67336e-07
3.09119e-07
1.69547e-07
2.09656e-07
2.17577e-07
1.24649e-07
1.64001e-07
1.5487e-07
9.42195e-08
1.27334e-07
1.11467e-07
7.29881e-08
9.74376e-08
8.11436e-08
5.80391e-08
7.27873e-08
5.98213e-08
4.74272e-08
5.21704e-08
4.48552e-08
3.9733e-08
3.49898e-08
3.48799e-08
3.38785e-08
2.2818e-08
2.644e-08
2.69962e-08
2.27871e-08
2.26511e-08
4.13228e-09
4.00853e-09
3.85675e-09
1.1719e-09
1.1293e-09
1.07878e-09
-1.04042e-05
6.75899e-07
-7.22071e-07
-9.37323e-06
5.35032e-07
-7.73552e-07
-8.50949e-06
2.72963e-07
-8.66539e-07
-7.71966e-06
4.37126e-08
-9.47111e-07
-6.89166e-06
-1.71892e-08
-9.0678e-07
-5.94969e-06
1.13474e-07
-7.69432e-07
-4.88109e-06
3.85818e-07
-5.43468e-07
-3.70985e-06
7.24291e-07
-2.32408e-07
-2.45099e-06
1.06242e-06
1.49277e-07
-1.17035e-06
1.28828e-06
5.36167e-07
-3.24623e-08
1.39596e-06
9.89169e-07
8.03835e-07
1.44582e-06
1.55905e-06
1.16245e-06
1.50233e-06
2.35166e-06
9.55711e-07
1.56578e-06
3.38214e-06
3.59206e-07
1.59797e-06
4.32453e-06
-2.44188e-07
1.57495e-06
4.49942e-06
-5.67035e-07
1.45492e-06
3.59044e-06
-5.87509e-07
1.11283e-06
2.3738e-06
-4.3833e-07
5.38379e-07
1.52853e-06
-3.77175e-07
-6.35655e-08
9.04329e-07
-5.89552e-07
-4.95276e-07
2.93478e-07
-1.03897e-06
-7.94824e-07
-2.23816e-07
-1.57725e-06
-9.48975e-07
-4.79552e-07
-2.07407e-06
-8.37583e-07
-5.03697e-07
-2.43427e-06
-4.17601e-07
-3.62523e-07
-2.48935e-06
3.90371e-07
3.24438e-08
-1.98501e-06
1.48012e-06
7.19187e-07
-1.14219e-06
2.18742e-06
1.27006e-06
-3.8631e-07
2.26392e-06
1.35401e-06
1.11303e-07
1.94155e-06
1.15061e-06
3.25206e-07
1.48843e-06
8.42955e-07
3.73627e-07
1.08951e-06
5.91214e-07
3.50087e-07
7.81695e-07
4.11681e-07
3.011e-07
5.56948e-07
2.88634e-07
2.48627e-07
3.96313e-07
2.05807e-07
2.01422e-07
2.82456e-07
1.49738e-07
1.61681e-07
2.01961e-07
1.11625e-07
1.28951e-07
1.45088e-07
8.53583e-08
1.02031e-07
1.04899e-07
6.70051e-08
7.95231e-08
7.65672e-08
5.40849e-08
6.03011e-08
5.65793e-08
4.47681e-08
4.35633e-08
4.26081e-08