/*--------------------------------*- C++ -*----------------------------------*\
| =========                 |                                                 |
| \\      /  F ield         | OpenFOAM: The Open Source CFD Toolbox           |
|  \\    /   O peration     | Version:  2.3.1                                 |
|   \\  /    A nd           | Web:      www.OpenFOAM.org                      |
|    \\/     M anipulation  |                                                 |
\*---------------------------------------------------------------------------*/
FoamFile
{
    version     2.0;
    format      ascii;
    class       surfaceScalarField;
    location    "10";
    object      phi_0;
}
// * * * * * * * * * * * * * * * * * * * * * * * * * * * * * * * * * * * * * //

dimensions      [0 3 -1 0 0 0 0];

internalField   nonuniform List<scalar> 
109568
(
5.21044e-05
7.78442e-06
-1.93821e-06
4.66921e-05
9.09643e-07
4.50271e-06
4.95967e-05
-4.12834e-06
1.22368e-06
5.31767e-05
-3.38724e-06
-1.92764e-07
4.66941e-05
-3.50239e-07
6.83287e-06
4.21021e-05
-1.36155e-06
5.95352e-06
5.06322e-05
-4.04656e-06
-4.48356e-06
5.40989e-05
-5.49317e-07
-2.91737e-06
3.89149e-05
6.92425e-06
8.25982e-06
2.11556e-05
6.60361e-06
1.11557e-05
1.28942e-05
1.7818e-06
6.47954e-06
9.58143e-06
-1.16584e-06
4.47865e-06
7.60848e-06
-1.88144e-06
3.85439e-06
7.48962e-06
-5.02438e-07
6.21294e-07
9.24133e-06
1.42208e-06
-3.17379e-06
1.14697e-05
2.39615e-06
-4.62449e-06
1.37512e-05
2.67449e-06
-4.95601e-06
1.54155e-05
2.68677e-06
-4.35106e-06
1.55557e-05
2.77825e-06
-2.91844e-06
1.59438e-05
2.48303e-06
-2.87121e-06
2.00082e-05
7.007e-07
-4.76507e-06
2.51645e-05
-6.31801e-07
-4.52449e-06
2.52206e-05
1.54648e-07
-2.10793e-07
2.29508e-05
1.61019e-06
6.59695e-07
2.50054e-05
2.12716e-06
-4.18179e-06
2.67661e-05
2.15385e-06
-3.91453e-06
2.0081e-05
3.26984e-06
3.41524e-06
9.91838e-06
3.19771e-06
6.9649e-06
4.77127e-06
6.95607e-07
4.45151e-06
3.04354e-06
-3.68848e-07
2.09658e-06
2.12589e-06
-1.42321e-07
1.05997e-06
1.50054e-06
4.44626e-08
5.80888e-07
1.06063e-06
1.02252e-07
3.37651e-07
7.55327e-07
9.76322e-08
2.07672e-07
5.43298e-07
7.81764e-08
1.33853e-07
3.94681e-07
5.87033e-08
8.99134e-08
2.88919e-07
4.30471e-08
6.27153e-08
2.12169e-07
3.14245e-08
4.53252e-08
1.55126e-07
2.31027e-08
3.394e-08
1.11436e-07
1.73183e-08
2.63719e-08
7.67295e-08
1.33299e-08
2.13766e-08
4.78162e-08
1.07105e-08
1.82029e-08
2.26434e-08
8.83834e-09
1.63344e-08
7.66895e-09
1.49745e-08
3.18137e-05
1.02664e-05
7.40845e-06
1.41958e-05
3.73766e-06
1.47898e-05
4.55665e-06
-2.30817e-06
7.81902e-06
2.13571e-06
-4.04871e-06
3.08242e-06
2.22469e-06
-2.6975e-06
2.25828e-06
2.54291e-06
-1.17978e-06
-4.99991e-07
2.28877e-06
1.51795e-07
-3.94422e-06
1.73019e-06
3.20644e-06
-3.19718e-06
1.78896e-06
6.23617e-06
6.293e-07
2.5855e-06
5.58802e-06
2.19057e-07
2.97763e-06
3.52435e-06
-2.13469e-06
2.84861e-06
1.9242e-06
-2.96101e-06
2.92887e-06
1.35137e-06
-3.31307e-06
4.33958e-06
2.44081e-06
-4.35395e-06
6.85843e-06
4.0002e-06
-5.09697e-06
9.38562e-06
4.80862e-06
-4.93967e-06
1.18554e-05
4.81328e-06
-4.60855e-06
1.41461e-05
4.41205e-06
-4.01602e-06
1.55415e-05
4.69134e-06
-3.30847e-06
1.63513e-05
4.47391e-06
-2.80064e-06
1.89072e-05
6.51001e-07
-2.50619e-06
2.23825e-05
-2.26035e-06
-1.84677e-06
2.16871e-05
8.13e-08
7.68693e-07
2.17962e-05
-8.78016e-07
2.37911e-06
2.73771e-05
-3.78729e-06
3.33617e-07
2.44029e-05
3.00419e-06
2.12379e-06
1.14272e-05
1.10307e-05
5.2149e-06
3.948e-06
7.58325e-06
3.09363e-06
2.46431e-06
1.004e-06
1.17529e-06
1.97015e-06
-9.83604e-07
1.10892e-06
1.57476e-06
-4.93641e-07
7.46709e-07
1.18948e-06
-1.96733e-08
4.49419e-07
8.88129e-07
1.23189e-07
2.80413e-07
6.61177e-07
1.42527e-07
1.82057e-07
4.92388e-07
1.2415e-07
1.22816e-07
3.6729e-07
9.82543e-08
8.55466e-08
2.74194e-07
7.47514e-08
6.13921e-08
2.04219e-07
5.60235e-08
4.53758e-08
1.50775e-07
4.19241e-08
3.46226e-08
1.08955e-07
3.17478e-08
2.73908e-08
7.51201e-08
2.45488e-08
2.26158e-08
4.64377e-08
1.98032e-08
1.95897e-08
2.15437e-08
1.65461e-08
1.71862e-08
1.51719e-08
1.40407e-08
1.98845e-05
1.10802e-05
7.43786e-06
9.76848e-06
9.28834e-06
1.1094e-05
2.65728e-06
4.1791e-06
6.66976e-06
-1.2726e-06
-5.88103e-07
2.2098e-06
-3.57008e-06
-2.23085e-06
4.79615e-07
-4.28658e-06
-1.88333e-06
-9.76621e-08
-4.19224e-06
-9.79527e-07
-2.94586e-07
-3.79803e-06
1.75319e-07
-4.17739e-07
-2.65583e-06
2.7967e-06
-7.32451e-07
-4.31986e-07
5.38234e-06
-1.37002e-06
1.80347e-06
5.75048e-06
-2.39792e-06
3.33855e-06
5.15317e-06
-3.16391e-06
4.28133e-06
4.52522e-06
-3.5438e-06
5.03185e-06
4.57878e-06
-3.97793e-06
6.32268e-06
5.67756e-06
-4.52759e-06
8.18798e-06
6.84831e-06
-4.71341e-06
9.98383e-06
7.43682e-06
-4.42405e-06
1.13211e-05
7.35308e-06
-3.87712e-06
1.24145e-05
6.67906e-06
-3.36033e-06
1.39259e-05
6.09243e-06
-2.91254e-06
1.59338e-05
4.42973e-06
-1.96373e-06
1.72358e-05
7.13337e-08
-7.22343e-07
1.82935e-05
-3.73043e-06
4.12391e-07
2.01949e-05
-4.01833e-06
2.19831e-06
2.21969e-05
-4.63086e-06
1.75077e-06
2.32311e-05
-4.12708e-06
-6.94422e-07
2.23013e-05
3.19636e-06
7.37634e-07
2.23141e-05
9.4032e-06
1.61474e-06
2.13986e-05
7.62331e-06
8.75394e-07
1.52916e-05
4.37841e-06
2.73265e-06
8.24933e-06
2.47814e-06
3.5805e-06
4.12245e-06
1.40282e-06
2.23042e-06
2.20024e-06
8.65945e-07
1.0366e-06
1.28918e-06
5.51957e-07
4.82294e-07
8.15498e-07
3.63785e-07
2.5242e-07
5.46074e-07
2.45829e-07
1.47745e-07
3.80548e-07
1.69491e-07
9.42893e-08
2.72337e-07
1.1873e-07
6.42315e-08
1.9786e-07
8.43858e-08
4.6115e-08
1.44178e-07
6.08889e-08
3.4717e-08
1.03662e-07
4.489e-08
2.73743e-08
7.15856e-08
3.39672e-08
2.26579e-08
4.46554e-08
2.71982e-08
1.95352e-08
2.11868e-08
2.35409e-08
1.64739e-08
2.38738e-08
1.2485e-08
-3.46302e-07
4.25448e-06
-1.64809e-06
7.34191e-06
3.24822e-06
-2.69007e-06
4.53566e-06
6.85427e-07
-4.27399e-06
2.31431e-06
-1.31849e-06
-5.51498e-06
1.38413e-06
-2.37399e-06
-5.91647e-06
1.52288e-06
-3.00472e-06
-5.71557e-06
2.34038e-06
-3.52081e-06
-5.12785e-06
3.52757e-06
-3.93997e-06
-3.51443e-06
5.20633e-06
-4.02305e-06
-1.00626e-06
6.79112e-06
-3.91695e-06
1.26133e-06
7.44522e-06
-3.96233e-06
2.79304e-06
7.559e-06
-3.93754e-06
3.77516e-06
7.50267e-06
-3.95957e-06
4.68356e-06
7.77368e-06
-4.1033e-06
5.95626e-06
8.56144e-06
-4.15657e-06
7.22464e-06
9.24441e-06
-3.66448e-06
8.27964e-06
9.31592e-06
-2.9341e-06
9.79339e-06
8.20129e-06
-2.36195e-06
1.22896e-05
5.29271e-06
-1.10987e-06
1.54025e-05
2.56142e-06
4.18144e-07
1.75441e-05
7.44156e-07
1.54394e-06
1.66199e-05
-1.50175e-06
2.49728e-06
1.3675e-05
-3.38644e-06
2.60091e-06
1.22349e-05
-3.82169e-06
1.24347e-06
1.28214e-05
-3.29933e-06
-1.91802e-06
1.45439e-05
-1.48969e-06
-4.35996e-06
1.70974e-05
3.29238e-06
-2.64946e-06
1.81952e-05
6.9691e-06
1.33631e-06
1.44853e-05
6.98345e-06
4.34976e-06
8.24889e-06
6.03502e-06
4.57977e-06
4.00051e-06
4.02584e-06
2.70068e-06
2.06105e-06
2.13092e-06
1.21136e-06
1.21812e-06
1.15444e-06
5.54434e-07
8.01406e-07
6.78946e-07
2.89728e-07
5.6322e-07
4.29546e-07
1.72425e-07
4.10952e-07
2.85648e-07
1.12449e-07
3.05975e-07
1.96494e-07
7.79736e-08
2.29904e-07
1.38321e-07
5.64812e-08
1.72859e-07
9.9076e-08
4.23546e-08
1.28846e-07
7.20614e-08
3.28408e-08
9.38168e-08
5.35465e-08
2.63722e-08
6.50141e-08
4.07409e-08
2.2029e-08
4.01027e-08
3.31033e-08
1.90062e-08
1.87824e-08
2.92033e-08
1.56579e-08
3.18461e-08
1.08101e-08
-1.50565e-06
4.30083e-06
1.84272e-06
-1.17913e-06
3.11997e-06
1.08917e-06
-1.64581e-06
2.31951e-06
4.61481e-07
-2.41525e-06
2.3084e-06
-1.54826e-07
-2.95024e-06
2.91046e-06
-8.52584e-07
-2.9893e-06
3.91977e-06
-1.54033e-06
-2.48462e-06
5.17558e-06
-2.15269e-06
-1.32539e-06
6.64374e-06
-2.59665e-06
3.41714e-07
7.89115e-06
-2.76713e-06
1.9745e-06
8.52301e-06
-2.71057e-06
3.28634e-06
8.74012e-06
-2.49296e-06
4.30346e-06
8.79028e-06
-2.30473e-06
5.28533e-06
8.98971e-06
-2.19791e-06
6.507e-06
9.29249e-06
-1.95271e-06
8.39129e-06
8.9028e-06
-1.54268e-06
1.15658e-05
7.37964e-06
-1.23825e-06
1.38436e-05
5.35454e-06
5.68948e-07
1.10271e-05
2.98399e-06
5.12529e-06
5.18029e-06
7.41018e-07
7.66717e-06
1.55523e-06
-6.99666e-07
5.06888e-06
6.39956e-07
-1.59121e-06
1.00474e-06
1.04469e-06
-2.21847e-06
-1.5727e-06
2.08927e-06
-2.35288e-06
-2.51339e-06
3.47032e-06
-1.85654e-06
-2.82384e-06
4.75971e-06
-1.54499e-07
-2.62458e-06
5.53333e-06
3.25384e-06
-7.35088e-07
4.90569e-06
5.94885e-06
1.64789e-06
3.19939e-06
6.17222e-06
2.51753e-06
2.27963e-06
4.75982e-06
2.19497e-06
1.87364e-06
2.96194e-06
1.46989e-06
1.42307e-06
1.75744e-06
8.24053e-07
1.02442e-06
1.08707e-06
4.66007e-07
7.28195e-07
7.01609e-07
2.73565e-07
5.20463e-07
4.67233e-07
1.70046e-07
3.76616e-07
3.18369e-07
1.11125e-07
2.76276e-07
2.20758e-07
7.60768e-08
2.0499e-07
1.55264e-07
5.4342e-08
1.53074e-07
1.10626e-07
4.03664e-08
1.14043e-07
7.99041e-08
3.11883e-08
8.37837e-08
5.87676e-08
2.50378e-08
5.97292e-08
4.40346e-08
2.07609e-08
4.04912e-08
3.47308e-08
1.76106e-08
2.81091e-08
2.77059e-08
1.38795e-08
2.73873e-08
1.09004e-08
6.30218e-09
6.48064e-09
6.47601e-09
7.98683e-10
8.10276e-10
7.99782e-10
-4.13646e-06
1.84429e-06
7.18542e-07
-2.8766e-06
1.51388e-06
3.4623e-07
-2.07296e-06
1.41821e-06
9.76602e-08
-1.52821e-06
1.75581e-06
7.83069e-09
-1.03561e-06
2.46897e-06
-5.11076e-08
-3.93258e-07
3.43209e-06
-1.54667e-07
5.59425e-07
4.52829e-06
-3.05396e-07
1.97412e-06
5.63084e-06
-4.01787e-07
3.79216e-06
6.49692e-06
-4.23813e-07
5.66919e-06
6.96187e-06
-3.15886e-07
7.36446e-06
7.11442e-06
-6.95736e-08
8.72544e-06
7.15285e-06
2.76446e-07
9.95389e-06
7.17516e-06
5.86093e-07
1.13644e-05
6.96069e-06
9.2131e-07
1.21979e-05
6.1051e-06
1.96416e-06
1.06054e-05
4.65353e-06
4.31861e-06
6.51401e-06
3.29079e-06
6.15514e-06
2.65483e-06
2.17593e-06
4.66725e-06
6.78484e-07
9.51222e-07
1.76614e-06
-1.51665e-07
-2.70765e-07
4.01248e-07
-6.38069e-07
-1.25952e-06
1.54711e-07
-1.07167e-06
-1.75289e-06
-3.19823e-08
-1.42631e-06
-1.63486e-06
-3.63381e-07
-1.63998e-06
-1.01543e-06
-6.27433e-07
-1.59762e-06
3.08992e-07
-5.05852e-07
-1.10574e-06
2.41329e-06
3.48677e-07
-3.09328e-07
3.85886e-06
1.29357e-06
4.3759e-07
3.88502e-06
1.54028e-06
8.42051e-07
3.12483e-06
1.23053e-06
8.61363e-07
2.1686e-06
7.74022e-07
7.16794e-07
1.44635e-06
4.55666e-07
5.61242e-07
9.65196e-07
2.77429e-07
4.35455e-07
6.4968e-07
1.77717e-07
3.38749e-07
4.43574e-07
1.20365e-07
2.6449e-07
3.07421e-07
8.52063e-08
2.06781e-07
2.15987e-07
6.24805e-08
1.6129e-07
1.53607e-07
4.71481e-08
1.24897e-07
1.10565e-07
3.64539e-08
9.5293e-08
8.05669e-08
2.89414e-08
7.09755e-08
5.9475e-08
2.36101e-08
5.0583e-08
4.46259e-08
1.98011e-08
3.36244e-08
3.47844e-08
1.69051e-08
2.17972e-08
2.6054e-08
1.34791e-08
2.29407e-08
1.13712e-08
4.42887e-09
4.40533e-09
4.36778e-09
5.75872e-10
5.58218e-10
5.3658e-10
-9.34084e-06
8.42071e-07
-2.08299e-07
-7.9492e-06
7.33668e-07
-2.81008e-07
-6.6684e-06
5.61176e-07
-3.28106e-07
-5.40314e-06
5.02533e-07
-3.49583e-07
-4.11427e-06
7.17192e-07
-2.50245e-07
-2.76925e-06
1.20111e-06
-7.71569e-08
-1.34068e-06
1.88026e-06
1.23254e-07
1.75471e-07
2.65997e-06
3.52168e-07
1.79448e-06
3.39264e-06
6.19194e-07
3.517e-06
3.91098e-06
8.63414e-07
5.15607e-06
4.19269e-06
1.13012e-06
6.48095e-06
4.33486e-06
1.45468e-06
7.23479e-06
4.47102e-06
1.92798e-06
7.1727e-06
4.56343e-06
2.67383e-06
6.08931e-06
4.37629e-06
3.66779e-06
4.0572e-06
3.79515e-06
4.34206e-06
1.79349e-06
3.02686e-06
3.89039e-06
3.65696e-07
2.1208e-06
2.59778e-06
-7.74614e-08
1.09428e-06
1.5248e-06
-1.82972e-07
1.60648e-07
8.96084e-07
-4.48223e-07
-4.45074e-07
4.3956e-07
-9.45811e-07
-7.95013e-07
3.30802e-08
-1.53071e-06
-9.714e-07
-1.96597e-07
-2.04123e-06
-8.73172e-07
-2.51163e-07
-2.40107e-06
-4.54799e-07
-2.00791e-07
-2.46142e-06
3.80993e-07
-1.16531e-08
-1.9632e-06
1.54098e-06
3.74081e-07
-1.11538e-06
2.29953e-06
7.11508e-07
-3.53795e-07
2.35868e-06
7.64757e-07
1.41816e-07
1.9925e-06
6.36718e-07
3.47108e-07
1.50938e-06
4.53931e-07
3.86539e-07
1.09529e-06
3.11631e-07
3.56552e-07
7.81332e-07
2.13851e-07
3.03389e-07
5.54534e-07
1.4831e-07
2.48419e-07
3.93643e-07
1.049e-07
1.99917e-07
2.80111e-07
7.58122e-08
1.59583e-07
2.00091e-07
5.62301e-08
1.2669e-07
1.4368e-07
4.28202e-08
9.98744e-08
1.03882e-07
3.34987e-08
7.75845e-08
7.58697e-08
2.69871e-08
5.86667e-08
5.60989e-08
2.22938e-08
4.21446e-08
4.22759e-08
1.88721e-08
2.79217e-08
3.27071e-08
1.63002e-08
1.53639e-08
2.56261e-08
1.29856e-08
2.04984e-08
1.14915e-08
1.90465e-09
1.84804e-09
1.81233e-09
2.71428e-10
2.48149e-10
2.30156e-10
-1.03788e-05
4.44796e-07
-6.06479e-07
-9.52619e-06
4.10167e-07
-5.29127e-07
-8.76872e-06
3.23388e-07
-5.19682e-07
-8.07177e-06
2.66082e-07
-4.60501e-07
-7.3258e-06
3.23258e-07
-3.52038e-07
-6.46305e-06
5.1433e-07
-1.75976e-07
-5.46897e-06
8.20247e-07
6.59436e-08
-4.37735e-06
1.19839e-06
3.69955e-07
-3.2441e-06
1.57185e-06
6.87545e-07
-2.17743e-06
1.86813e-06
9.76178e-07
-1.31005e-06
2.08208e-06
1.24323e-06
-7.27297e-07
2.2418e-06
1.5103e-06
-4.80239e-07
2.39962e-06
1.82434e-06
-5.48193e-07
2.50332e-06
2.12807e-06
-8.0277e-07
2.42062e-06
2.21024e-06
-1.02319e-06
2.09889e-06
1.91668e-06
-1.01924e-06
1.59642e-06
1.42648e-06
-8.86824e-07
1.06675e-06
9.21635e-07
-8.44091e-07
5.78072e-07
4.73477e-07
-9.40332e-07
1.29521e-07
1.27369e-07
-1.08843e-06
-2.44828e-07
-5.21492e-08
-1.26264e-06
-5.09334e-07
-1.11468e-07
-1.50893e-06
-5.95624e-07
-1.29482e-07
-1.77802e-06
-4.889e-07
-1.15185e-07
-1.9812e-06
-1.93435e-07
-5.81837e-08
-1.98044e-06
3.17825e-07
6.24052e-08
-1.62583e-06
9.43657e-07
2.42719e-07
-1.06532e-06
1.36476e-06
3.74262e-07
-5.46583e-07
1.45051e-06
3.8944e-07
-1.86995e-07
1.30285e-06
3.30064e-07
1.22235e-08
1.05598e-06
2.54182e-07
1.07405e-07
8.10918e-07
1.89186e-07
1.43682e-07
6.04593e-07
1.40463e-07
1.49928e-07
4.43163e-07
1.05125e-07
1.41562e-07
3.22176e-07
7.98331e-08
1.26766e-07
2.33368e-07
6.15387e-08
1.09632e-07
4.8093e-08
9.22992e-08
3.80993e-08
7.59114e-08
3.06677e-08
6.07262e-08
2.52374e-08
4.67301e-08
2.12012e-08
3.33227e-08
1.83013e-08
2.11504e-08
1.6018e-08
8.62285e-09
1.27451e-08
1.14466e-08
-1.73131e-10
-2.65334e-10
-2.61146e-10
9.71774e-12
-1.19944e-11
-2.08716e-11
-1.03657e-05
2.45126e-07
-6.32898e-07
-9.59578e-06
2.32126e-07
-5.91845e-07
-8.91614e-06
1.99631e-07
-5.5588e-07
-8.3086e-06
1.6895e-07
-5.10409e-07
-7.74071e-06
1.99861e-07
-4.44494e-07
-7.17507e-06
2.99897e-07
-3.51208e-07
-6.5851e-06
4.5963e-07
-2.29357e-07
-5.96068e-06
6.54269e-07
-8.02961e-08
-5.309e-06
8.42904e-07
7.72658e-08
-4.66661e-06
9.93883e-07
2.31854e-07
-4.07037e-06
1.10524e-06
3.80603e-07
-3.54245e-06
1.18996e-06
5.23937e-07
-3.07084e-06
1.26479e-06
6.6322e-07
-2.626e-06
1.30024e-06
7.58236e-07
-2.19703e-06
1.24241e-06
7.49247e-07
-1.80122e-06
1.07412e-06
6.28964e-07
-1.48143e-06
8.29751e-07
4.46887e-07
-1.24465e-06
5.53568e-07
2.76397e-07
-1.0857e-06
2.68462e-07
1.50665e-07
-1.02307e-06
1.06863e-08
5.62048e-08
-1.0715e-06
-1.79694e-07
-1.67058e-08
-1.20858e-06
-3.00521e-07
-7.17334e-08
-1.37652e-06
-3.38357e-07
-8.93258e-08
-1.52799e-06
-2.65195e-07
-7.22371e-08
-1.617e-06
-7.83643e-08
-2.60553e-08
-1.57136e-06
2.22065e-07
5.01128e-08
-1.33348e-06
5.66197e-07
1.39583e-07
-9.76441e-07
8.0439e-07
2.03326e-07
-6.22764e-07
8.77876e-07
2.1896e-07
-3.43238e-07
8.21191e-07
2.02128e-07
-1.55059e-07
6.97088e-07
1.7071e-07
-3.98459e-08
5.57972e-07
1.37733e-07
2.51817e-08
4.30844e-07
1.08721e-07
5.82195e-08
3.24826e-07
8.53001e-08
7.20227e-08
2.4138e-07
6.69933e-08
5.30598e-08
-1.04126e-05
2.74245e-07
-8.00324e-07
-9.69774e-06
2.45914e-07
-7.2867e-07
-9.04736e-06
2.40929e-07
-6.91687e-07
-8.45404e-06
2.17555e-07
-6.41916e-07
-7.88925e-06
2.22725e-07
-5.87662e-07
-7.32545e-06
2.55502e-07
-5.19406e-07
-6.74637e-06
3.17587e-07
-4.37033e-07
-6.14681e-06
3.98133e-07
-3.43426e-07
-5.53756e-06
4.81551e-07
-2.47896e-07
-4.94189e-06
5.53204e-07
-1.54991e-07
-4.37673e-06
6.07438e-07
-6.73572e-08
-3.84784e-06
6.46727e-07
1.43327e-08
-3.34643e-06
6.75938e-07
8.74457e-08
-2.86639e-06
6.84e-07
1.36199e-07
-2.4197e-06
6.50932e-07
1.44786e-07
-2.02957e-06
5.68376e-07
1.15612e-07
-1.71614e-06
4.48821e-07
6.74986e-08
-1.48584e-06
3.08505e-07
1.47602e-08
-1.34245e-06
1.60062e-07
-3.49947e-08
-1.2797e-06
1.97456e-08
-7.18048e-08
-1.26901e-06
-1.00082e-07
-9.03001e-08
-1.29873e-06
-1.77635e-07
-9.31662e-08
-1.3566e-06
-1.95502e-07
-8.49854e-08
-1.40897e-06
-1.49833e-07
-6.29912e-08
-1.41928e-06
-4.13751e-08
-2.66787e-08
-1.34533e-06
1.26164e-07
2.19518e-08
-1.16261e-06
3.09803e-07
7.36744e-08
-9.10431e-07
4.41183e-07
1.11024e-07
-6.517e-07
4.93154e-07
1.25991e-07
-4.29888e-07
4.75703e-07
1.23676e-07
-2.61207e-07
4.1678e-07
1.11628e-07
-1.42058e-07
3.42701e-07
9.61217e-08
-6.22063e-08
2.70266e-07
8.07272e-08
-1.1608e-08
2.07255e-07
6.69723e-08
1.55933e-07
5.52077e-08
-1.03498e-05
1.0408e-07
-6.12689e-07
-9.65536e-06
9.42736e-08
-5.42781e-07
-8.98547e-06
8.91559e-08
-5.18115e-07
-8.36211e-06
7.72523e-08
-4.83055e-07
-7.76506e-06
7.92436e-08
-4.53577e-07
-7.18453e-06
9.46076e-08
-4.19633e-07
-6.60939e-06
1.2294e-07
-3.80496e-07
-6.0342e-06
1.58014e-07
-3.35062e-07
-5.45992e-06
1.92516e-07
-2.85253e-07
-4.8947e-06
2.20966e-07
-2.32984e-07
-4.34954e-06
2.41978e-07
-1.7969e-07
-3.83255e-06
2.5718e-07
-1.27445e-07
-3.34443e-06
2.67453e-07
-7.96394e-08
-2.88641e-06
2.67755e-07
-4.17677e-08
-2.46758e-06
2.5208e-07
-1.9986e-08
-2.10224e-06
2.17513e-07
-1.44766e-08
-1.79977e-06
1.66775e-07
-2.04229e-08
-1.56516e-06
1.05676e-07
-3.17771e-08
-1.40054e-06
4.08772e-08
-4.54325e-08
-1.30213e-06
-1.96078e-08
-5.90616e-08
-1.26544e-06
-6.66693e-08
-7.01018e-08
-1.2719e-06
-9.67159e-08
-7.44642e-08
-1.29486e-06
-1.03636e-07
-6.89019e-08
-1.30913e-06
-8.22944e-08
-5.32679e-08
-1.28977e-06
-3.22712e-08
-2.84668e-08
-1.20894e-06
4.20909e-08
3.24142e-09
-1.05832e-06
1.23215e-07
3.59693e-08
-8.61733e-07
1.83123e-07
6.14759e-08
-6.54644e-07
2.10351e-07
7.5713e-08
-4.6645e-07
2.07922e-07
7.95868e-08
-3.12385e-07
1.86282e-07
7.64336e-08
-1.95054e-07
1.56037e-07
6.93327e-08
-1.10435e-07
1.24868e-07
6.07783e-08
-5.22181e-08
9.67591e-08
5.22789e-08
7.32567e-08
4.45072e-08
-1.02337e-05
-6.51101e-07
-9.56006e-06
-5.79321e-07
-8.90568e-06
-5.65224e-07
-8.29096e-06
-5.37465e-07
-7.69708e-06
-5.14638e-07
-7.11493e-06
-4.87541e-07
-6.53574e-06
-4.56253e-07
-5.95741e-06
-4.20319e-07
-5.3843e-06
-3.80592e-07
-4.82494e-06
-3.38394e-07
-4.28815e-06
-2.94814e-07
-3.77949e-06
-2.5148e-07
-3.30138e-06
-2.10656e-07
-2.85816e-06
-1.75461e-07
-2.4575e-06
-1.4858e-07
-2.10914e-06
-1.30852e-07
-1.82115e-06
-1.21206e-07
-1.59814e-06
-1.17339e-07
-1.44013e-06
-1.17134e-07
-1.3423e-06
-1.17434e-07
-1.29245e-06
-1.16521e-07
-1.27651e-06
-1.12658e-07
-1.27589e-06
-1.04253e-07
-1.26837e-06
-8.982e-08
-1.23161e-06
-6.90312e-08
-1.14629e-06
-4.32244e-08
-1.00773e-06
-1.53444e-08
-8.33384e-07
8.77622e-09
-6.49068e-07
2.60347e-08
-4.77459e-07
3.63131e-08
-3.32018e-07
4.08411e-08
-2.17207e-07
4.12261e-08
-1.3145e-07
3.91118e-08
-7.04226e-08
3.57313e-08
3.18705e-08
3.81109e-05
7.16161e-06
-2.79118e-06
3.63211e-05
-4.96139e-07
6.78861e-06
3.72742e-05
-4.33158e-06
4.60219e-06
3.63104e-05
-4.52259e-06
5.29362e-06
3.50705e-05
-3.36111e-06
1.14339e-05
4.09149e-05
-3.57029e-06
3.67938e-06
4.94899e-05
-3.01677e-06
-1.00417e-05
4.59858e-05
2.21128e-06
-1.62459e-06
2.99466e-05
7.9084e-06
1.63906e-05
1.7119e-05
6.37391e-06
1.76094e-05
1.21038e-05
1.84311e-06
9.65166e-06
1.02967e-05
-9.375e-07
7.22323e-06
9.21916e-06
-1.37531e-06
6.30724e-06
8.86562e-06
3.63991e-07
6.10845e-07
9.63152e-06
1.92162e-06
-5.86131e-06
1.0687e-05
1.98196e-06
-7.6619e-06
1.15832e-05
1.3748e-06
-7.22701e-06
1.26305e-05
7.24011e-07
-6.12237e-06
1.41729e-05
1.32969e-07
-4.59381e-06
1.63347e-05
-9.69773e-07
-4.06332e-06
1.89124e-05
-2.70975e-06
-4.63296e-06
2.05034e-05
-3.13426e-06
-2.98125e-06
2.14449e-05
-1.94812e-06
7.95853e-07
2.41066e-05
-1.04012e-06
-9.61953e-07
2.6141e-05
-5.87148e-07
-5.62897e-06
2.2514e-05
6.97004e-07
-9.84561e-07
1.35362e-05
2.94438e-06
9.4487e-06
6.32318e-06
2.83712e-06
1.13408e-05
3.77473e-06
4.02194e-07
6.59776e-06
2.79282e-06
-3.61208e-07
3.4397e-06
2.05256e-06
-1.02413e-07
1.90264e-06
1.4759e-06
6.43764e-08
1.09317e-06
1.05345e-06
1.0819e-07
6.51912e-07
7.5491e-07
9.92476e-08
4.06968e-07
5.45429e-07
7.84926e-08
2.64842e-07
3.97572e-07
5.86025e-08
1.79167e-07
2.91808e-07
4.27846e-08
1.25694e-07
2.14746e-07
3.10826e-08
9.13054e-08
1.57278e-07
2.27159e-08
6.86914e-08
1.1314e-07
1.68997e-08
5.36107e-08
7.79963e-08
1.28904e-08
4.36294e-08
4.86524e-08
1.03386e-08
3.72081e-08
2.31703e-08
8.5697e-09
3.32468e-08
7.51195e-09
3.06329e-08
1.59356e-05
4.80461e-06
1.76306e-05
8.67907e-06
8.00583e-07
2.07496e-05
5.30737e-06
-2.95633e-06
9.81547e-06
4.17199e-06
-4.28897e-06
3.98418e-06
4.78432e-06
-3.36535e-06
1.65019e-06
5.64127e-06
-2.06161e-06
-2.86561e-06
5.24544e-06
-3.08492e-07
-6.25666e-06
3.83086e-06
3.31154e-06
-2.88287e-06
3.63146e-06
6.15676e-06
2.58034e-06
4.0159e-06
5.15316e-06
1.05537e-06
3.51946e-06
3.01795e-06
-2.81308e-06
2.7963e-06
1.48546e-06
-4.66082e-06
2.52149e-06
9.31763e-07
-5.34533e-06
3.47298e-06
1.73243e-06
-6.67389e-06
5.40121e-06
2.57372e-06
-7.67729e-06
7.21037e-06
2.48144e-06
-7.24831e-06
8.74903e-06
1.80924e-06
-6.58164e-06
1.03235e-05
8.67423e-07
-5.73391e-06
1.20376e-05
-1.72278e-07
-4.71734e-06
1.38362e-05
-1.79328e-06
-3.77568e-06
1.61641e-05
-4.39902e-06
-3.14484e-06
1.83743e-05
-5.51083e-06
-1.68039e-06
1.9236e-05
-3.91233e-06
1.87115e-06
2.20846e-05
-3.52572e-06
2.01613e-06
2.55614e-05
-2.62084e-06
-1.10945e-06
2.00077e-05
4.47323e-06
3.90122e-06
9.08708e-06
1.01385e-05
8.94141e-06
3.76912e-06
5.927e-06
5.32171e-06
2.43786e-06
3.21774e-07
2.58697e-06
1.95722e-06
-9.82685e-07
2.21103e-06
1.57205e-06
-3.89586e-07
1.41905e-06
1.19337e-06
2.36157e-08
8.68856e-07
8.93371e-07
1.37715e-07
5.50888e-07
6.66178e-07
1.47808e-07
3.6069e-07
4.96903e-07
1.26139e-07
2.44445e-07
3.71263e-07
9.89778e-08
1.70812e-07
2.77619e-07
7.49199e-08
1.229e-07
2.07112e-07
5.59142e-08
9.10515e-08
1.53171e-07
4.16671e-08
6.96116e-08
1.10925e-07
3.14032e-08
5.51341e-08
7.67831e-08
2.41918e-08
4.54562e-08
4.80603e-08
1.94871e-08
3.91639e-08
2.29978e-08
1.63939e-08
3.44245e-08
1.5121e-08
2.94294e-08
5.3497e-06
5.76777e-06
1.31565e-05
2.11158e-06
4.70163e-06
1.44351e-05
-5.37324e-08
1.51238e-06
8.12328e-06
-1.9579e-06
-1.71149e-06
2.86913e-06
-3.33974e-06
-2.86038e-06
4.32874e-07
-3.69198e-06
-2.44547e-06
-6.65309e-07
-3.506e-06
-1.36621e-06
-1.17596e-06
-3.19516e-06
9.63194e-08
-1.13339e-06
-2.27877e-06
2.69348e-06
-1.03078e-06
-5.70974e-07
4.7273e-06
-1.64835e-06
9.0444e-07
4.57367e-06
-3.29385e-06
1.78513e-06
3.70147e-06
-4.72812e-06
2.34114e-06
2.86421e-06
-5.47856e-06
2.86268e-06
2.59136e-06
-6.15906e-06
3.82989e-06
3.12027e-06
-6.88263e-06
5.16746e-06
3.49558e-06
-6.97284e-06
6.47828e-06
3.13552e-06
-6.38896e-06
7.82952e-06
2.05935e-06
-5.47846e-06
9.43777e-06
1.38862e-07
-4.24002e-06
1.11281e-05
-1.89302e-06
-2.88213e-06
1.23305e-05
-3.34757e-06
-1.61186e-06
1.31278e-05
-4.9114e-06
-1.00725e-06
1.44988e-05
-5.84744e-06
-6.21981e-07
1.68874e-05
-5.11891e-06
1.01624e-06
1.92719e-05
-3.87583e-06
-2.83533e-07
2.02164e-05
-1.25743e-06
-3.00239e-06
2.00173e-05
5.09221e-06
3.17752e-07
2.11307e-05
8.66378e-06
1.97606e-06
1.98497e-05
6.27212e-06
1.81131e-06
1.3392e-05
3.6065e-06
5.90558e-06
6.98424e-06
2.16321e-06
6.84241e-06
3.61404e-06
1.31717e-06
3.89386e-06
2.03651e-06
8.40283e-07
1.79746e-06
1.23769e-06
5.4362e-07
8.75215e-07
7.99717e-07
3.61429e-07
4.76767e-07
5.42496e-07
2.45445e-07
2.8566e-07
3.81277e-07
1.69624e-07
1.84862e-07
2.74468e-07
1.18899e-07
1.27062e-07
2.00259e-07
8.44488e-08
9.17888e-08
1.46424e-07
6.08354e-08
6.93843e-08
1.05653e-07
4.47238e-08
5.48246e-08
7.34117e-08
3.37865e-08
4.53044e-08
4.65644e-08
2.69834e-08
3.88862e-08
2.29249e-08
2.33952e-08
3.3112e-08
2.37794e-08
2.67515e-08
-5.56973e-06
4.31502e-06
-4.53126e-06
3.85695e-06
3.05442e-06
-4.32473e-06
1.76382e-06
2.27451e-07
-5.04926e-06
2.81536e-08
-2.33361e-06
-5.79189e-06
-7.70332e-07
-3.7214e-06
-6.04707e-06
-5.73138e-07
-4.62188e-06
-5.88717e-06
2.48453e-07
-5.29538e-06
-5.41698e-06
1.3623e-06
-5.67613e-06
-4.03829e-06
2.86202e-06
-5.57028e-06
-1.88496e-06
4.075e-06
-5.41798e-06
5.24502e-08
4.3312e-06
-5.65727e-06
1.47671e-06
4.12168e-06
-5.78202e-06
2.41637e-06
3.74803e-06
-5.78304e-06
3.18964e-06
3.54593e-06
-5.83115e-06
4.28918e-06
3.63731e-06
-5.77316e-06
5.77637e-06
3.4117e-06
-5.06779e-06
7.43499e-06
2.28142e-06
-3.73862e-06
8.79574e-06
3.92755e-07
-2.0561e-06
9.6231e-06
-1.66069e-06
-1.37682e-07
9.98325e-06
-3.14847e-06
1.31345e-06
9.66234e-06
-3.5143e-06
2.03159e-06
8.9748e-06
-3.67316e-06
1.94658e-06
8.89523e-06
-3.76191e-06
5.94946e-07
1.00148e-05
-3.29859e-06
-1.69639e-06
1.15152e-05
-2.29271e-06
-5.00158e-06
1.28202e-05
4.10122e-09
-6.92649e-06
1.4732e-05
4.13886e-06
-3.60794e-06
1.5414e-05
6.67537e-06
2.64274e-06
1.18841e-05
6.45115e-06
7.70062e-06
6.67066e-06
5.54009e-06
7.85964e-06
3.40976e-06
3.6623e-06
4.46249e-06
1.90355e-06
1.98302e-06
2.05172e-06
1.18345e-06
1.11183e-06
1.00299e-06
7.96421e-07
6.6832e-07
5.52054e-07
5.6523e-07
4.27772e-07
3.37273e-07
4.14401e-07
2.86148e-07
2.22576e-07
3.09453e-07
1.9736e-07
1.55185e-07
2.33065e-07
1.39037e-07
1.12731e-07
1.75621e-07
9.95411e-08
8.47061e-08
1.31226e-07
7.23051e-08
6.57666e-08
9.59092e-08
5.35788e-08
5.28339e-08
6.70152e-08
4.06845e-08
4.4025e-08
4.2323e-08
3.28584e-08
3.78235e-08
2.08294e-08
2.8937e-08
3.16097e-08
3.10276e-08
2.43913e-08
-4.42183e-06
2.16117e-06
2.11445e-06
-3.80943e-06
1.13559e-06
1.10501e-06
-3.78584e-06
2.86813e-07
1.7923e-07
-3.94039e-06
-9.34165e-09
-7.61269e-07
-3.89729e-06
2.47204e-07
-1.71603e-06
-3.50323e-06
8.85509e-07
-2.57144e-06
-2.73662e-06
1.73577e-06
-3.29277e-06
-1.45155e-06
2.75408e-06
-3.77379e-06
2.98616e-07
3.53003e-06
-3.97233e-06
2.10602e-06
3.79735e-06
-3.98413e-06
3.72855e-06
3.77126e-06
-3.76506e-06
5.04021e-06
3.57891e-06
-3.44726e-06
6.17901e-06
3.31976e-06
-3.11054e-06
7.54486e-06
2.89882e-06
-2.58007e-06
8.90668e-06
1.95933e-06
-1.45214e-06
8.61918e-06
5.79128e-07
7.51539e-07
5.45943e-06
-5.14067e-07
4.63553e-06
1.66685e-06
-9.015e-07
8.15867e-06
9.6416e-08
-1.05023e-06
7.13936e-06
3.19329e-07
-1.50494e-06
2.83661e-06
6.75364e-07
-2.13226e-06
-8.92202e-07
1.06971e-06
-2.64935e-06
-3.07961e-06
1.79955e-06
-2.56451e-06
-3.97731e-06
2.74185e-06
-1.7642e-06
-4.29465e-06
3.54623e-06
1.79983e-07
-3.60484e-06
4.01013e-06
3.37488e-06
-4.34996e-07
3.49316e-06
5.59651e-06
3.24373e-06
2.32009e-06
5.64202e-06
4.49972e-06
1.89033e-06
4.33629e-06
3.82854e-06
1.70746e-06
2.76793e-06
2.54713e-06
1.34495e-06
1.69445e-06
1.47512e-06
9.89394e-07
1.06956e-06
8.63832e-07
7.13563e-07
6.97653e-07
5.20063e-07
5.15631e-07
4.67278e-07
3.28472e-07
3.76294e-07
3.19425e-07
2.17186e-07
2.77891e-07
2.2187e-07
1.49969e-07
2.07292e-07
1.56152e-07
1.07827e-07
1.55439e-07
1.1124e-07
8.05198e-08
1.16212e-07
8.02783e-08
6.24424e-08
8.56471e-08
5.89396e-08
5.02417e-08
6.13e-08
4.4134e-08
4.16586e-08
4.18315e-08
3.46444e-08
3.52931e-08
2.8921e-08
2.77636e-08
2.79634e-08
2.66061e-08
2.24698e-08
5.63448e-09
5.71523e-09
5.6418e-09
1.59606e-09
1.60669e-09
1.57877e-09
-7.23346e-06
1.0705e-06
3.16439e-07
-6.12112e-06
5.94909e-07
-2.25433e-07
-5.30273e-06
2.33536e-07
-6.67448e-07
-4.54798e-06
1.53052e-07
-9.09313e-07
-3.70902e-06
3.62923e-07
-1.00579e-06
-2.69983e-06
7.88256e-07
-1.0666e-06
-1.46862e-06
1.31225e-06
-1.11309e-06
1.207e-07
1.85288e-06
-1.0899e-06
1.96063e-06
2.24217e-06
-9.75879e-07
3.81415e-06
2.39277e-06
-7.64839e-07
5.4867e-06
2.38613e-06
-3.56992e-07
6.79869e-06
2.28462e-06
2.5874e-07
7.54832e-06
2.06796e-06
1.08826e-06
7.27512e-06
1.65881e-06
2.43453e-06
5.50728e-06
1.1279e-06
4.56343e-06
3.01444e-06
8.29724e-07
6.56085e-06
1.30469e-06
8.65738e-07
6.48509e-06
5.10855e-07
6.89004e-07
3.87058e-06
-7.80314e-08
3.518e-09
1.30128e-06
-5.89187e-07
-8.55912e-07
2.6337e-07
-1.00321e-06
-1.50255e-06
-6.09676e-08
-1.43962e-06
-1.77021e-06
-4.74712e-07
-1.81405e-06
-1.58575e-06
-9.67712e-07
-2.06016e-06
-9.37191e-07
-1.20832e-06
-2.05911e-06
3.83965e-07
-7.10885e-07
-1.5411e-06
2.33409e-06
8.71452e-07
-6.25773e-07
3.58979e-06
2.38496e-06
2.55335e-07
3.60765e-06
2.69355e-06
7.42141e-07
2.9505e-06
2.12951e-06
8.11872e-07
2.08911e-06
1.3831e-06
6.97121e-07
1.41599e-06
8.48873e-07
5.56241e-07
9.54978e-07
5.32893e-07
4.35686e-07
6.47633e-07
3.48293e-07
3.40902e-07
4.44324e-07
2.38103e-07
2.67209e-07
3.08896e-07
1.69428e-07
2.09562e-07
2.17427e-07
1.24571e-07
1.63929e-07
1.54768e-07
9.41649e-08
1.27278e-07
1.11397e-07
7.29482e-08
9.73961e-08
8.10927e-08
5.80093e-08
7.27572e-08
5.97842e-08
4.74044e-08
5.21492e-08
4.48278e-08
3.97152e-08
3.49762e-08
3.48587e-08
3.38639e-08
2.28085e-08
2.64246e-08
2.69858e-08
2.27733e-08
2.26415e-08
4.13048e-09
4.0068e-09
3.85512e-09
1.1714e-09
1.12883e-09
1.07835e-09
-1.04008e-05
6.75874e-07
-7.22421e-07
-9.37092e-06
5.33888e-07
-7.74311e-07
-8.50821e-06
2.71438e-07
-8.67343e-07
-7.71904e-06
4.24693e-08
-9.47683e-07
-6.89146e-06
-1.77133e-08
-9.07062e-07
-5.94964e-06
1.13391e-07
-7.69447e-07
-4.88109e-06
3.86191e-07
-5.43227e-07
-3.7098e-06
7.2496e-07
-2.31839e-07
-2.45084e-06
1.0629e-06
1.50209e-07
-1.17058e-06
1.2881e-06
5.37235e-07
-3.35075e-08
1.39536e-06
9.90453e-07
8.01709e-07
1.44512e-06
1.56047e-06
1.15923e-06
1.50174e-06
2.35335e-06
9.51869e-07
1.5654e-06
3.38375e-06
3.5576e-07
1.5978e-06
4.32491e-06
-2.46465e-07
1.57483e-06
4.49736e-06
-5.68092e-07
1.45459e-06
3.58716e-06
-5.87766e-07
1.11185e-06
2.37135e-06
-4.38355e-07
5.37162e-07
1.52723e-06
-3.77533e-07
-6.44556e-08
9.03236e-07
-5.9044e-07
-4.95832e-07
2.92387e-07
-1.04018e-06
-7.95144e-07
-2.24586e-07
-1.57842e-06
-9.48842e-07
-4.79732e-07
-2.075e-06
-8.3684e-07
-5.03495e-07
-2.43482e-06
-4.16154e-07
-3.62006e-07
-2.4889e-06
3.92685e-07
3.37072e-08
-1.98346e-06
1.48215e-06
7.20577e-07
-1.14048e-06
2.18791e-06
1.27041e-06
-3.8497e-07
2.26329e-06
1.35361e-06
1.11983e-07
1.94047e-06
1.1498e-06
3.25376e-07
1.48743e-06
8.42225e-07
3.73586e-07
1.08873e-06
5.90682e-07
3.49966e-07
7.81133e-07
4.11316e-07
3.00965e-07
5.56553e-07
2.8839e-07
2.48507e-07
3.96037e-07
2.05644e-07
2.01325e-07
2.82263e-07
1.49628e-07
1.61607e-07
2.01825e-07
1.1155e-07
1.28895e-07
1.44992e-07
8.53071e-08
1.0199e-07
1.04831e-07
6.69691e-08
7.94927e-08
7.65189e-08
5.40583e-08
6.02788e-08
5.65443e-08
4.47476e-08
4.35477e-08
4.25822e-08
3.78489e-08