/*--------------------------------*- C++ -*----------------------------------*\
| =========                 |                                                 |
| \\      /  F ield         | OpenFOAM: The Open Source CFD Toolbox           |
|  \\    /   O peration     | Version:  2.3.1                                 |
|   \\  /    A nd           | Web:      www.OpenFOAM.org                      |
|    \\/     M anipulation  |                                                 |
\*---------------------------------------------------------------------------*/
FoamFile
{
    version     2.0;
    format      ascii;
    class       volScalarField;
    location    "10";
    object      Sed;
}
// * * * * * * * * * * * * * * * * * * * * * * * * * * * * * * * * * * * * * //

dimensions      [0 0 0 0 0 0 0];

internalField   nonuniform List<scalar> 
38152
(
4.43357e-225
8.06355e-226
1.29484e-226
2.26569e-227
4.21588e-228
6.7552e-229
1.01021e-229
1.95811e-230
3.7812e-231
4.68622e-232
2.86525e-233
9.96607e-235
2.47881e-236
4.85876e-238
9.35395e-240
2.20935e-241
6.44276e-243
2.24027e-244
8.663e-246
3.36507e-247
1.3552e-248
6.91566e-250
4.42112e-251
2.79001e-252
1.59687e-253
1.00301e-254
6.61541e-256
3.14989e-257
7.14556e-259
7.5605e-261
5.01991e-263
2.31312e-265
7.52362e-268
1.74483e-270
2.937e-273
3.66867e-276
3.48353e-279
2.5747e-282
1.51502e-285
7.24112e-289
2.85951e-292
9.44749e-296
2.63383e-299
6.90382e-303
6.90538e-226
7.43675e-227
3.23494e-228
1.16444e-229
1.55644e-230
2.43649e-231
3.98439e-232
2.89133e-232
2.19424e-232
1.99153e-233
4.12585e-235
4.49729e-237
6.51317e-239
1.16122e-240
9.3149e-242
4.60685e-243
2.05506e-244
9.50142e-246
4.69793e-247
2.28081e-248
9.99009e-250
4.81955e-251
2.84589e-252
1.82165e-253
1.19303e-254
9.53132e-256
6.89396e-257
2.38011e-258
2.49558e-260
1.51077e-262
7.41438e-265
2.88903e-267
8.81639e-270
2.04788e-272
3.61094e-275
4.89374e-278
5.20876e-281
4.49635e-284
3.3171e-287
2.2034e-290
1.57972e-293
1.40156e-296
1.38142e-299
1.09461e-302
2.28595e-226
4.08709e-227
1.99069e-228
1.86343e-230
2.5877e-232
3.74275e-233
6.52216e-234
3.40886e-234
1.00994e-233
5.43581e-234
3.27544e-235
5.57276e-237
7.32866e-239
1.08819e-240
2.285e-242
1.45769e-243
9.36689e-245
5.20101e-246
2.70506e-247
1.48381e-248
8.10606e-250
3.54311e-251
1.56581e-252
7.7108e-254
4.18486e-255
2.48088e-256
2.52341e-257
3.52736e-258
2.49059e-259
1.35677e-260
5.10471e-262
1.00907e-263
9.68056e-266
4.89923e-268
1.46772e-270
2.86002e-273
3.90449e-276
3.97234e-279
3.19045e-282
2.17019e-285
1.36111e-288
9.78762e-292
9.37275e-295
9.97074e-298
7.81416e-301
1.0622e-227
1.22677e-228
2.1801e-230
3.84505e-233
5.593e-235
9.09846e-236
2.46996e-236
6.37927e-236
2.39256e-235
1.0759e-235
5.2738e-237
9.49749e-239
1.56395e-240
2.83322e-242
6.88308e-244
3.77707e-245
2.59744e-246
1.59048e-247
8.9504e-249
5.34638e-250
3.11399e-251
1.42795e-252
5.90729e-254
2.02368e-255
6.48393e-257
2.42313e-258
3.91326e-259
1.10315e-259
1.02071e-260
5.33228e-262
1.70925e-263
2.30223e-265
1.50425e-267
5.621e-270
1.35782e-272
2.30311e-275
2.91916e-278
2.92559e-281
2.46582e-284
1.96431e-287
1.84275e-290
2.34004e-293
3.53908e-296
4.94527e-299
4.34134e-302
2.58634e-230
2.42289e-232
3.84773e-235
4.07936e-237
8.24322e-238
6.82592e-238
3.05529e-237
7.65422e-237
2.49377e-237
1.09942e-238
2.45708e-240
5.1026e-242
1.12462e-243
3.03088e-245
1.42289e-246
9.49001e-248
6.29553e-249
3.47711e-250
1.33621e-251
2.50021e-253
2.41066e-255
5.86397e-257
2.1615e-258
8.94607e-260
4.36566e-261
4.78882e-261
2.31737e-261
2.21869e-262
1.02379e-263
2.27686e-265
2.20554e-267
1.16919e-269
3.83682e-272
8.44251e-275
1.32815e-277
1.59151e-280
1.55162e-283
1.41459e-286
1.51177e-289
2.21708e-292
4.07237e-295
8.04634e-298
1.50021e-300
2.15465e-303
2.93999e-232
1.79117e-234
3.00905e-237
3.99824e-239
1.32343e-239
3.08291e-239
1.47897e-238
2.58835e-238
6.67591e-239
3.25468e-240
1.03973e-241
3.08606e-243
9.28148e-245
2.99718e-246
1.16024e-247
5.26302e-249
2.23204e-250
6.25657e-252
7.01989e-254
2.45617e-256
1.31982e-258
3.49682e-260
1.49977e-261
7.51189e-263
6.03774e-264
5.74865e-263
3.89619e-263
3.56002e-264
1.27019e-265
1.90323e-267
1.33907e-269
5.50748e-272
1.47785e-274
2.80245e-277
4.0265e-280
4.68634e-283
5.08609e-286
6.41592e-289
1.09244e-291
2.32455e-294
5.48569e-297
1.34951e-299
3.24031e-302
6.90537e-305
3.39053e-233
1.38645e-234
6.46931e-237
1.24936e-239
2.97996e-241
2.46441e-241
1.18273e-240
5.07717e-240
6.56122e-240
1.40478e-240
7.49812e-242
2.90976e-243
1.02625e-244
3.45553e-246
1.10367e-247
3.3341e-249
9.38744e-251
2.28939e-252
3.64907e-254
1.74491e-256
1.37707e-259
5.79393e-262
1.58352e-263
7.30135e-265
4.18567e-266
2.23517e-266
5.07218e-265
4.16737e-265
3.49465e-266
9.85471e-268
1.04528e-269
5.69217e-272
1.91394e-274
4.39416e-277
7.45321e-280
1.0062e-282
1.24947e-285
1.78831e-288
3.44402e-291
8.29398e-294
2.22955e-296
6.39344e-299
1.89038e-301
5.37074e-304
1.32534e-306
9.67093e-236
2.82505e-237
1.01093e-239
2.07351e-242
1.24408e-243
3.74231e-243
2.46229e-242
8.71848e-242
8.95154e-242
1.57806e-242
8.30104e-244
3.23688e-245
1.15759e-246
3.91371e-248
1.18177e-249
3.07515e-251
6.92861e-253
1.18941e-254
1.01144e-256
1.32885e-259
7.98693e-263
2.40336e-265
6.44411e-267
3.04862e-268
1.95877e-269
9.54455e-269
2.89772e-267
2.66508e-267
2.08862e-268
4.8856e-270
3.92649e-272
1.62734e-274
4.5467e-277
9.12631e-280
1.43612e-282
2.05882e-285
3.37765e-288
7.39709e-291
2.01047e-293
6.07574e-296
1.96457e-298
6.66788e-301
2.25233e-303
6.69905e-306
1.394e-308
1.68543e-238
3.67563e-240
1.08835e-242
2.2962e-245
4.42033e-246
2.83121e-245
1.96822e-244
6.15167e-244
5.27883e-244
8.18614e-245
4.42813e-246
1.79705e-247
6.73622e-249
2.33525e-250
6.73799e-252
1.52204e-253
2.67918e-255
3.20486e-257
1.62198e-259
1.12468e-262
5.37436e-266
1.09804e-268
2.81394e-270
1.3823e-271
1.22365e-272
3.23852e-271
1.06968e-269
1.04837e-269
7.89895e-271
1.61395e-272
1.06184e-274
3.58587e-277
8.21425e-280
1.46051e-282
2.39726e-285
4.4783e-288
2.02692e-241
3.38988e-243
9.26878e-246
2.37348e-248
1.60905e-248
1.27664e-247
8.34003e-247
2.30617e-246
1.64496e-246
2.30584e-247
1.27725e-248
5.36693e-250
2.0875e-251
7.31872e-253
2.00863e-254
3.99088e-256
5.70387e-258
4.92377e-260
1.50844e-262
7.36674e-266
3.74202e-269
6.80602e-272
1.62364e-273
9.28651e-275
1.55406e-275
8.13454e-274
2.60455e-272
2.59796e-272
1.90957e-273
3.51959e-275
2.01171e-277
5.91285e-280
1.19838e-282
2.09991e-285
4.1686e-288
2.50437e-244
3.20217e-246
9.13873e-249
3.64455e-251
5.89223e-251
4.33169e-250
2.35358e-249
5.42403e-249
3.0926e-249
3.93554e-250
2.19257e-251
9.38149e-253
3.71358e-254
1.29739e-255
3.39431e-257
6.06839e-259
7.34243e-261
4.87946e-263
1.05076e-265
5.07038e-269
2.87911e-272
6.11293e-275
1.53948e-276
1.03336e-277
2.71869e-278
1.4484e-276
4.09615e-275
3.98186e-275
2.87227e-276
4.89439e-278
2.54959e-280
6.88842e-283
1.37935e-285
2.82187e-288
7.51163e-291
1.91343e-247
1.97803e-249
6.18142e-252
4.65076e-254
1.2042e-253
7.89934e-253
3.50425e-252
6.67656e-252
3.01261e-252
3.48277e-253
1.91435e-254
8.21781e-256
3.2665e-257
1.12437e-258
2.80463e-260
4.58505e-262
4.82576e-264
2.57929e-266
4.32048e-269
2.4404e-272
1.68202e-275
4.87371e-278
1.31798e-279
9.51305e-281
3.54986e-281
1.60157e-279
3.67151e-278
3.32829e-278
2.33909e-279
3.74884e-281
1.83476e-283
4.83815e-286
1.03087e-288
2.49547e-291
7.70267e-294
1.759e-225
2.59816e-226
3.3559e-227
4.58228e-228
8.27312e-229
1.32226e-229
2.01096e-230
4.05262e-231
9.42725e-232
1.24063e-232
7.32066e-234
2.73338e-235
8.18638e-237
2.07466e-238
4.88635e-240
1.2292e-241
3.39806e-243
1.01805e-244
3.36102e-246
1.24483e-247
5.23356e-249
2.55212e-250
1.4012e-251
8.08822e-253
5.03323e-254
3.39582e-255
2.07461e-256
7.91051e-258
1.31736e-259
1.19815e-261
7.78386e-264
3.72532e-266
1.30781e-268
3.39496e-271
6.6583e-274
1.01404e-276
1.23545e-279
1.24084e-282
1.05501e-285
7.76996e-289
5.04998e-292
2.94061e-295
1.54821e-298
7.54237e-302
2.74864e-226
2.18104e-227
9.81331e-229
6.35689e-230
9.78703e-231
1.54065e-231
2.53275e-232
1.66067e-232
6.87467e-233
6.33336e-234
1.89391e-235
3.45908e-237
6.53536e-239
1.76712e-240
8.31061e-242
2.95467e-243
9.67703e-245
3.20452e-246
1.12822e-247
4.45281e-249
1.94486e-250
9.77723e-252
5.64196e-253
3.51747e-254
2.39949e-255
2.0772e-256
1.65976e-257
5.34462e-259
5.40029e-261
3.38975e-263
1.84949e-265
8.92126e-268
3.59e-270
1.18447e-272
3.25015e-275
7.58982e-278
1.54819e-280
2.82854e-283
4.73596e-286
7.42804e-289
1.10535e-291
1.55809e-294
1.95645e-297
1.66759e-300
9.43132e-227
9.96823e-228
2.89849e-229
7.24013e-231
5.4288e-232
9.27233e-233
1.50274e-233
3.79343e-234
5.34078e-234
1.99041e-234
1.30401e-235
3.11824e-237
5.30467e-239
9.27063e-241
2.54465e-242
1.23803e-243
5.24853e-245
1.95661e-246
6.94995e-248
2.53436e-249
1.05109e-250
4.55495e-252
2.11657e-253
1.1713e-254
7.54558e-256
5.45864e-257
7.03852e-258
9.26175e-259
6.31913e-260
3.49556e-261
1.25561e-262
2.18753e-264
1.97267e-266
1.12369e-268
4.48699e-271
1.36264e-273
3.38818e-276
7.27381e-279
1.40161e-281
2.49548e-284
4.20008e-287
6.75672e-290
1.03218e-292
1.39617e-295
1.24624e-298
2.52359e-228
1.89027e-229
2.66944e-231
4.10451e-233
3.24055e-234
5.87737e-235
1.08809e-235
6.75015e-236
1.26681e-235
4.16853e-236
2.28253e-237
5.00938e-239
9.40371e-241
1.84556e-242
5.20405e-244
2.39051e-245
1.08585e-246
4.30033e-248
1.4439e-249
4.96991e-251
1.87894e-252
7.77415e-254
3.23538e-255
1.48624e-256
9.07643e-258
6.66192e-259
1.68543e-259
3.31003e-260
2.79993e-261
1.39339e-262
3.88892e-264
4.89625e-266
3.69838e-268
1.92862e-270
7.53574e-273
2.38102e-275
6.41489e-278
1.53187e-280
3.34367e-283
6.83144e-286
1.33256e-288
2.51363e-291
4.52337e-294
7.21839e-297
7.19237e-300
2.76379e-231
2.51392e-233
2.18744e-235
1.72077e-236
3.33404e-237
1.00521e-237
1.69325e-237
2.76496e-237
7.53701e-238
3.8566e-239
1.0402e-240
2.50984e-242
6.21427e-244
1.82918e-245
7.05156e-247
2.84018e-248
8.90596e-250
2.53531e-251
6.55621e-253
8.08258e-255
1.34768e-256
6.62485e-258
5.17126e-259
4.52899e-260
4.37241e-261
2.97356e-261
7.584e-262
6.13327e-263
2.53444e-264
5.07609e-266
5.47944e-268
3.95702e-270
2.05256e-272
8.25069e-275
2.72763e-277
7.77829e-280
1.99112e-282
4.71426e-285
1.06077e-287
2.31405e-290
4.98602e-293
1.06738e-295
2.15426e-298
3.48186e-301
2.13227e-233
1.40667e-235
9.00107e-238
6.6455e-239
1.85125e-239
1.43067e-239
3.98699e-239
5.28659e-239
1.18642e-239
6.37977e-241
2.19205e-242
6.80579e-244
2.07692e-245
6.39579e-247
1.91313e-248
4.91201e-250
1.15676e-251
1.89966e-253
1.36178e-255
8.83555e-258
1.5006e-259
7.941e-261
7.62537e-262
8.92791e-263
1.67367e-263
3.79015e-263
1.24463e-263
9.20572e-265
3.04496e-266
4.86328e-268
4.6155e-270
3.03093e-272
1.5075e-274
6.06409e-277
2.07397e-279
6.28194e-282
1.73792e-284
4.52081e-287
1.13017e-289
2.80487e-292
7.09225e-295
1.83313e-297
4.64057e-300
1.05487e-302
3.26715e-234
9.61767e-236
5.18983e-238
2.5847e-240
1.9237e-241
8.95479e-242
1.89639e-241
5.80789e-241
6.14373e-241
1.14171e-241
6.01566e-243
2.09449e-244
6.89302e-246
2.14815e-247
6.13061e-249
1.4848e-250
3.07643e-252
6.01522e-254
7.73284e-256
3.19233e-258
1.55641e-260
2.1403e-262
9.50816e-264
7.98936e-265
8.8684e-266
5.27211e-266
3.08798e-265
1.25601e-265
9.082e-267
2.69355e-268
3.62928e-270
3.08826e-272
1.90621e-274
9.25825e-277
3.74717e-279
1.32242e-281
4.21292e-284
1.24997e-286
3.54248e-289
9.95299e-292
2.85976e-294
8.55718e-297
2.6302e-299
7.82617e-302
2.0549e-304
1.62884e-236
3.76407e-238
2.07363e-240
9.27856e-243
5.41199e-244
4.26522e-244
1.60631e-243
4.3661e-243
3.67812e-243
5.85955e-244
3.08727e-245
1.12178e-246
3.89985e-248
1.29167e-249
3.7611e-251
8.97094e-253
1.81808e-254
3.03243e-256
2.96149e-258
1.0416e-260
4.35762e-263
4.63276e-265
1.75308e-266
1.31877e-267
1.34109e-268
2.14763e-268
1.86738e-267
8.86269e-268
6.55167e-269
1.79253e-270
2.14122e-272
1.63645e-274
9.64739e-277
4.63713e-279
1.91214e-281
7.03057e-284
2.38214e-286
7.65081e-289
2.42041e-291
7.80206e-294
2.62405e-296
9.20211e-299
3.22643e-301
1.01918e-303
2.38337e-306
7.67677e-239
1.55615e-240
9.87037e-243
5.11766e-245
3.02523e-246
4.0964e-246
1.55266e-245
3.28404e-245
2.01036e-245
2.6652e-246
1.36313e-247
5.04689e-249
1.81632e-250
6.32977e-252
1.9172e-253
4.5901e-255
8.89086e-257
1.30079e-258
1.05244e-260
3.61272e-263
1.35969e-265
1.14665e-267
3.82938e-269
2.78269e-270
2.88174e-271
1.05032e-270
9.64916e-270
4.80819e-270
3.54773e-271
9.13841e-273
1.03034e-274
7.46197e-277
4.18769e-279
1.98483e-281
8.3683e-284
3.22234e-286
3.04516e-241
5.64808e-243
4.08169e-245
2.53836e-247
1.97268e-248
3.97655e-248
1.30127e-247
2.20711e-247
1.00912e-247
1.15373e-248
5.72285e-250
2.13211e-251
7.75563e-253
2.73128e-254
8.21324e-256
1.89308e-257
3.38375e-259
4.31622e-261
3.02335e-263
1.06023e-265
3.89035e-268
2.76586e-270
8.24993e-272
5.9179e-273
6.74503e-274
4.79205e-273
4.08132e-272
1.98384e-272
1.44442e-273
3.57715e-275
3.94449e-277
2.80407e-279
1.54742e-281
7.27203e-284
3.08131e-286
9.65383e-244
1.65341e-245
1.30186e-247
9.74675e-250
1.22319e-250
3.07189e-250
8.05858e-250
1.08904e-249
3.81926e-250
3.86745e-251
1.86117e-252
6.89881e-254
2.49468e-255
8.6712e-257
2.53087e-258
5.54933e-260
9.2343e-262
1.06417e-263
6.82315e-266
2.41924e-268
8.67203e-271
5.61455e-273
1.55933e-274
1.11969e-275
1.54889e-276
1.76463e-275
1.31267e-274
5.98537e-275
4.26061e-276
1.0214e-277
1.11251e-279
7.84103e-282
4.28279e-284
2.00243e-286
8.49072e-289
1.73053e-246
2.69463e-248
2.13469e-250
1.94955e-252
4.54664e-253
1.27562e-252
2.6887e-252
2.87142e-252
7.95993e-253
7.14831e-254
3.29908e-255
1.20263e-256
4.29521e-258
1.46483e-259
4.13979e-261
8.66146e-263
1.34939e-264
1.42057e-266
8.26439e-269
2.77487e-271
9.99557e-274
6.53276e-276
1.84387e-277
1.35162e-278
2.4752e-279
3.84236e-278
2.46736e-277
1.03172e-277
7.06984e-279
1.61963e-280
1.70688e-282
1.16284e-284
6.14408e-287
2.78122e-289
1.15209e-291
4.81527e-226
5.16553e-227
5.82e-228
7.57307e-229
1.3086e-229
2.02274e-230
3.33634e-231
7.01167e-232
1.71274e-232
2.00401e-233
1.08717e-234
4.26628e-236
1.45469e-237
4.14396e-239
1.01371e-240
2.40716e-242
6.01314e-244
1.62784e-245
4.9896e-247
1.80057e-248
7.62132e-250
3.6645e-251
1.97728e-252
1.21234e-253
7.94342e-255
4.80634e-256
2.40124e-257
6.49248e-259
7.84143e-261
6.38607e-263
3.99176e-265
1.86917e-267
6.52617e-270
1.71608e-272
3.45803e-275
5.47432e-278
7.00246e-281
7.45047e-284
6.79394e-287
5.50786e-290
4.23332e-293
3.49816e-296
3.37339e-299
2.68115e-302
4.61657e-227
3.41275e-228
1.92925e-229
1.58208e-230
2.31941e-231
3.40096e-232
6.02547e-233
4.23879e-233
1.36356e-233
1.11759e-234
3.59634e-236
7.21786e-238
1.30867e-239
3.60682e-241
1.37772e-242
3.774e-244
1.00274e-245
3.18892e-247
1.15518e-248
4.7583e-250
2.262e-251
1.24604e-252
7.82141e-254
5.40425e-255
4.38286e-256
3.8759e-257
2.53656e-258
5.84512e-260
5.17337e-262
3.22856e-264
1.94786e-266
1.09104e-268
5.23682e-271
2.14552e-273
7.64523e-276
2.42502e-278
7.01183e-281
1.88815e-283
4.81925e-286
1.1801e-288
2.78269e-291
6.17769e-294
1.16594e-296
1.27123e-299
1.63953e-227
1.12547e-228
4.33212e-230
2.15697e-231
1.93464e-232
2.98656e-233
4.44295e-234
1.26663e-234
1.37823e-234
4.04507e-235
2.40907e-236
5.45119e-238
7.91297e-240
1.10918e-241
2.96611e-243
1.18614e-244
3.74392e-246
1.24553e-247
4.40703e-249
1.70001e-250
7.41899e-252
3.70069e-253
2.17422e-254
1.52002e-255
1.21117e-256
1.15311e-257
1.70521e-258
1.75259e-259
1.08157e-260
5.32752e-262
1.5104e-263
2.08812e-265
1.87009e-267
1.24954e-269
6.40043e-272
2.6616e-274
9.52775e-277
3.06576e-279
9.14715e-282
2.58238e-284
6.97788e-287
1.80723e-289
4.37909e-292
9.0069e-295
1.08656e-297
2.99434e-229
1.65289e-230
3.34356e-232
1.40693e-233
1.37122e-234
2.21578e-235
3.84328e-236
2.43218e-236
3.11465e-236
7.79974e-237
3.62801e-238
6.40026e-240
7.25946e-242
9.01109e-244
2.28182e-245
9.16878e-247
3.66906e-248
1.3407e-249
4.28312e-251
1.37827e-252
5.54227e-254
2.93449e-255
1.97608e-256
1.6501e-257
1.5338e-258
2.00161e-259
5.15579e-260
7.12393e-261
4.98415e-262
2.21723e-263
4.43241e-265
5.28592e-267
4.73761e-269
3.23165e-271
1.75517e-273
8.07745e-276
3.29618e-278
1.23051e-280
4.29293e-283
1.42095e-285
4.50479e-288
1.36721e-290
3.86921e-293
9.18456e-296
1.22879e-298
1.81748e-232
2.21774e-234
7.29482e-236
7.74699e-237
1.3057e-237
3.10627e-238
3.90861e-238
4.62005e-238
9.47573e-239
3.7648e-240
6.28486e-242
9.63921e-244
1.85695e-245
4.94156e-247
1.66532e-248
5.42268e-250
1.96578e-251
6.29892e-253
1.41885e-254
1.70206e-256
7.24053e-258
6.74085e-259
7.6821e-260
9.30247e-261
2.11472e-261
1.01408e-261
1.64548e-262
1.00292e-263
3.41724e-265
6.06118e-267
7.6562e-269
7.19221e-271
5.17622e-273
3.03525e-275
1.52837e-277
6.87019e-280
2.83454e-282
1.09597e-284
4.03102e-287
1.42528e-289
4.84366e-292
1.54859e-294
4.35439e-297
9.18625e-300
1.25053e-234
1.12364e-236
2.91574e-238
3.21856e-239
5.88426e-240
2.40338e-240
4.20222e-240
4.28105e-240
7.21082e-241
2.69851e-242
5.38844e-244
1.18632e-245
3.4097e-247
1.13975e-248
3.77092e-250
1.00304e-251
2.28439e-253
3.28987e-255
3.44439e-257
3.57994e-259
1.31228e-260
1.18801e-261
1.49938e-262
2.28886e-263
1.10533e-263
1.25564e-263
2.4602e-264
1.37091e-265
4.14217e-267
7.31409e-269
9.02489e-271
8.27061e-273
6.03679e-275
3.7122e-277
2.00319e-279
9.76784e-282
4.40262e-284
1.86647e-286
7.55264e-289
2.94024e-291
1.10255e-293
3.91957e-296
1.26332e-298
3.44231e-301
3.4434e-235
9.0538e-237
8.08362e-239
1.38183e-240
1.25705e-241
2.45193e-242
1.7713e-242
3.38699e-242
2.45919e-242
3.26591e-243
1.1686e-244
2.82443e-246
8.13464e-248
2.78255e-249
9.07435e-251
2.42027e-252
5.75935e-254
1.40988e-255
2.02642e-257
1.61667e-259
1.39944e-261
3.63158e-263
2.63748e-264
2.80101e-265
3.82747e-266
3.97888e-266
9.74179e-266
2.40879e-266
1.46562e-267
4.49726e-269
7.49026e-271
8.81576e-273
7.98427e-275
5.94405e-277
3.80803e-279
2.16981e-281
1.12795e-283
5.45796e-286
2.49972e-288
1.09581e-290
4.6364e-293
1.89071e-295
7.31247e-298
2.57434e-300
7.69935e-303
3.14796e-237
7.64992e-239
7.9908e-241
1.11409e-242
7.59295e-244
1.78255e-244
2.00574e-244
3.19164e-244
1.58565e-244
1.69436e-245
6.02111e-247
1.65285e-248
5.33229e-250
1.95861e-251
6.92105e-253
2.06071e-254
5.22781e-256
1.13364e-257
1.43551e-259
1.06619e-261
8.27016e-264
1.55763e-265
9.43568e-267
9.03198e-268
1.15154e-268
2.07516e-268
6.78259e-268
2.00253e-268
1.34405e-269
4.04217e-271
6.42044e-273
7.18436e-275
6.47418e-277
4.92536e-279
3.2797e-281
1.96607e-283
1.08488e-285
5.61036e-288
2.75527e-290
1.2995e-292
5.91641e-295
2.59396e-297
1.06875e-299
3.84082e-302
1.02409e-304
2.86157e-239
6.88852e-241
8.46927e-243
1.18145e-244
7.02162e-246
2.21555e-246
3.03942e-246
3.84374e-246
1.38877e-246
1.28543e-247
4.76428e-249
1.39832e-250
4.5756e-252
1.67116e-253
5.8716e-255
1.71797e-256
4.15124e-258
8.01738e-260
9.32466e-262
6.7499e-264
4.99036e-266
7.52784e-268
3.9692e-269
3.66292e-270
4.80902e-271
1.3854e-270
4.69661e-270
1.45837e-270
1.00189e-271
2.94244e-273
4.62614e-275
5.11984e-277
4.56934e-279
3.50401e-281
2.40514e-283
1.50509e-285
2.26299e-241
5.44333e-243
7.43255e-245
1.10395e-246
6.71933e-248
2.94223e-248
4.11737e-248
4.07722e-248
1.135e-248
9.31605e-250
3.48656e-251
1.04833e-252
3.41088e-254
1.21366e-255
4.09155e-257
1.13414e-258
2.55622e-260
4.46917e-262
4.88081e-264
3.53191e-266
2.57315e-268
3.36838e-270
1.58329e-271
1.4373e-272
2.07005e-273
8.81743e-273
2.81779e-272
8.56671e-273
5.88651e-274
1.70843e-275
2.70318e-277
3.00562e-279
2.68587e-281
2.06741e-283
1.43126e-285
1.29559e-243
3.03024e-245
4.35178e-247
7.01174e-249
5.24072e-250
3.06476e-250
4.06438e-250
3.05004e-250
6.77591e-251
4.94723e-252
1.80813e-253
5.39517e-255
1.72269e-256
5.95148e-258
1.92645e-259
5.08772e-261
1.08314e-262
1.75832e-264
1.82369e-266
1.30476e-268
9.35066e-271
1.14958e-272
5.10957e-274
4.64562e-275
7.87557e-276
4.46778e-275
1.29351e-274
3.73711e-275
2.52976e-276
7.22595e-278
1.14057e-279
1.262e-281
1.11842e-283
8.54422e-286
5.89238e-288
3.44348e-246
7.54325e-248
1.08725e-249
1.94701e-251
2.12517e-252
1.56666e-252
1.91516e-252
1.07924e-252
1.97051e-253
1.27151e-254
4.40541e-256
1.27864e-257
3.99853e-259
1.34944e-260
4.22846e-262
1.07064e-263
2.15866e-265
3.25205e-267
3.11452e-269
2.09891e-271
1.4928e-273
1.89936e-275
8.79245e-277
8.18055e-278
1.72598e-278
1.22074e-277
3.17273e-277
8.58391e-278
5.60541e-279
1.53741e-280
2.33658e-282
2.48541e-284
2.11796e-286
1.56358e-288
1.04706e-290
1.75858e-226
1.38742e-227
1.28982e-228
1.50323e-229
2.31199e-230
3.44515e-231
5.47559e-232
1.12552e-232
2.73028e-233
2.65086e-234
1.36056e-235
5.77469e-237
2.22834e-238
6.96734e-240
1.82885e-241
4.4757e-243
1.10233e-244
2.86405e-246
8.39438e-248
2.92365e-249
1.19234e-250
5.51285e-252
2.99223e-253
1.84763e-254
1.06001e-255
4.72049e-257
1.65987e-258
2.98935e-260
2.91867e-262
2.21444e-264
1.32092e-266
5.95209e-269
2.0074e-271
5.19954e-274
1.05166e-276
1.69781e-279
2.25321e-282
2.56369e-285
2.7113e-288
3.19281e-291
5.29041e-294
1.1645e-296
2.33025e-299
2.36403e-302
8.61111e-228
6.16723e-229
4.17907e-230
3.7508e-231
4.95018e-232
6.60905e-233
1.52433e-233
7.83198e-234
2.08378e-234
1.54559e-235
5.50326e-237
1.25041e-238
2.21944e-240
5.77011e-242
2.18388e-243
4.95719e-245
1.14514e-246
3.35929e-248
1.194e-249
5.11032e-251
2.60132e-252
1.52826e-253
1.03293e-254
8.51762e-256
7.51092e-257
5.76922e-258
2.72321e-259
4.23769e-261
3.15877e-263
2.05811e-265
1.41096e-267
8.89535e-270
4.87951e-272
2.35886e-274
1.0205e-276
4.02572e-279
1.47637e-281
5.12321e-284
1.70709e-286
5.51797e-289
1.72584e-291
5.03559e-294
1.20241e-296
1.50495e-299
3.21389e-228
1.64593e-229
9.01305e-231
5.7417e-232
5.43898e-233
7.39665e-234
9.82909e-235
3.43622e-235
2.54917e-235
6.10331e-236
3.36796e-237
8.08701e-239
1.14689e-240
1.38451e-242
3.24998e-244
1.0887e-245
2.88682e-247
8.05281e-249
2.7122e-250
1.11669e-251
5.62579e-253
3.37972e-254
2.39697e-255
1.98093e-256
1.91661e-257
2.50447e-258
3.14686e-259
2.47458e-260
1.35678e-261
5.49166e-263
1.13131e-264
1.36496e-266
1.34789e-268
1.05513e-270
6.55624e-273
3.42365e-275
1.57411e-277
6.59606e-280
2.58202e-282
9.60244e-285
3.42719e-287
1.17061e-289
3.70411e-292
9.6776e-295
1.38875e-297
4.1753e-230
1.74555e-231
6.61912e-233
3.98572e-234
4.05246e-235
5.7909e-236
9.49353e-237
6.7788e-237
5.71221e-237
1.1267e-237
4.80227e-239
8.35423e-241
7.84087e-243
7.01075e-245
1.34946e-246
4.15856e-248
1.15764e-249
3.41699e-251
1.13388e-252
4.87945e-254
2.82966e-255
2.15198e-256
1.99768e-257
2.11226e-258
2.59472e-259
5.50164e-260
1.06678e-260
1.07851e-261
6.02205e-263
1.97654e-264
3.28842e-266
4.35207e-268
4.67369e-270
3.90437e-272
2.68234e-274
1.5963e-276
8.54002e-279
4.21621e-281
1.95818e-283
8.66984e-286
3.68307e-288
1.49228e-290
5.56205e-293
1.68988e-295
2.72814e-298
1.46546e-233
3.75966e-235
2.1351e-236
2.29178e-237
3.39658e-238
7.92746e-239
9.15646e-239
7.33203e-239
1.17144e-239
3.95794e-241
5.11809e-243
3.98175e-245
4.11357e-247
8.03927e-249
2.24791e-250
7.08726e-252
3.35954e-253
1.29375e-254
3.00061e-256
8.40841e-258
6.78412e-259
7.84649e-260
1.07357e-260
1.70484e-261
6.85542e-262
2.06367e-262
2.27174e-263
1.04089e-264
2.9186e-266
5.53873e-268
8.42739e-270
9.67281e-272
8.75933e-274
6.63331e-276
4.38728e-278
2.61904e-280
1.44703e-282
7.53206e-285
3.73816e-287
1.77882e-289
8.07606e-292
3.39977e-294
1.22748e-296
3.21094e-299
1.16345e-235
2.31724e-237
1.16746e-238
1.24448e-239
1.8986e-240
6.57247e-241
8.34701e-241
5.5578e-241
6.85244e-242
1.78645e-243
1.88836e-245
2.00356e-247
3.59109e-249
1.31527e-250
5.33936e-252
1.70321e-253
4.61455e-255
8.63841e-257
1.30834e-258
2.77668e-260
1.79425e-261
1.89367e-262
2.61637e-263
4.90586e-264
3.882e-264
2.28539e-264
3.0094e-265
1.40432e-266
4.22522e-268
8.74421e-270
1.32161e-271
1.52665e-273
1.43927e-275
1.16185e-277
8.32064e-280
5.43101e-282
3.295e-284
1.88511e-286
1.02728e-288
5.36119e-291
2.66889e-293
1.24017e-295
5.10972e-298
1.72677e-300
4.91261e-236
1.29491e-237
2.37722e-239
8.99171e-241
8.64511e-242
1.3759e-242
6.95638e-243
8.35064e-243
3.82759e-243
3.61111e-244
8.18847e-246
8.82027e-248
1.23639e-249
3.68905e-251
1.4548e-252
5.12142e-254
1.60399e-255
4.63551e-257
8.16285e-259
1.04041e-260
1.6541e-262
7.65265e-264
6.72381e-265
7.86455e-266
1.35551e-266
1.66886e-266
1.78408e-266
3.14524e-267
1.80035e-268
5.88394e-270
1.17139e-271
1.72816e-273
2.01865e-275
1.97198e-277
1.6771e-279
1.27959e-281
8.95537e-284
5.84556e-286
3.60385e-288
2.11791e-290
1.19161e-292
6.39273e-295
3.19538e-297
1.41344e-299
5.13626e-302
6.59253e-238
1.7613e-239
3.30158e-241
1.01895e-242
8.51844e-244
1.57246e-244
1.05491e-244
1.05719e-244
3.46133e-245
2.72096e-246
6.41307e-248
8.90144e-250
1.5633e-251
4.90023e-253
1.95158e-254
7.00771e-256
2.14817e-257
5.50299e-259
8.88548e-261
1.05136e-262
1.40035e-264
4.75494e-266
3.66271e-267
3.94774e-268
6.75043e-269
1.12006e-268
1.52065e-268
3.2578e-269
2.09405e-270
6.84143e-272
1.33453e-273
1.92029e-275
2.25745e-277
2.27388e-279
2.0238e-281
1.63037e-283
1.21089e-285
8.41054e-288
5.52512e-290
3.4609e-292
2.07501e-294
1.18043e-296
6.1596e-299
2.71913e-301
8.61073e-304
8.80235e-240
2.44381e-241
4.87064e-243
1.36868e-244
1.04299e-245
2.38268e-246
1.89336e-246
1.49759e-246
3.75985e-247
2.62588e-248
6.77063e-250
1.15606e-251
2.29137e-253
6.89947e-255
2.53517e-256
8.47442e-258
2.41704e-259
5.61047e-261
8.56785e-263
9.71139e-265
1.1861e-266
3.21251e-268
2.24307e-269
2.35603e-270
4.30966e-271
9.3019e-271
1.33844e-270
3.02853e-271
2.00741e-272
6.53394e-274
1.28033e-275
1.84555e-277
2.17794e-279
2.22532e-281
2.04556e-283
1.71686e-285
9.92192e-242
2.82313e-243
5.92577e-245
1.62813e-246
1.23336e-247
3.59513e-248
3.10069e-248
1.88859e-248
3.82669e-249
2.43172e-250
6.60403e-252
1.24661e-253
2.55213e-255
7.24902e-257
2.46244e-258
7.68071e-260
2.04489e-261
4.3794e-263
6.40339e-265
7.07629e-267
8.30022e-269
1.95246e-270
1.26335e-271
1.31649e-272
2.71316e-273
7.21746e-273
1.01442e-272
2.28224e-273
1.52642e-274
4.97197e-276
9.84528e-278
1.43084e-279
1.69918e-281
1.7494e-283
1.6224e-285
7.51811e-244
2.12592e-245
4.58846e-247
1.30896e-248
1.11619e-249
4.17127e-250
3.62763e-250
1.68767e-250
2.84859e-251
1.64828e-252
4.47644e-254
8.64808e-256
1.74946e-257
4.70539e-259
1.50375e-260
4.44556e-262
1.12124e-263
2.25492e-265
3.15761e-267
3.39677e-269
3.88927e-271
8.70469e-273
5.47622e-274
5.75518e-275
1.40493e-275
4.34788e-275
5.74671e-275
1.24954e-275
8.28336e-277
2.67009e-278
5.26516e-280
7.60218e-282
8.94694e-284
9.12981e-286
8.40232e-288
2.38076e-246
6.49976e-248
1.41762e-249
4.4582e-251
4.87811e-252
2.2909e-252
1.90696e-252
6.90707e-253
9.86472e-254
5.12524e-255
1.32073e-256
2.46989e-258
4.83416e-260
1.25079e-261
3.84392e-263
1.09121e-264
2.62332e-266
4.95058e-268
6.48888e-270
6.6227e-272
7.57507e-274
1.78703e-275
1.16783e-276
1.26197e-277
3.83394e-278
1.33281e-277
1.62969e-277
3.36301e-278
2.15898e-279
6.7034e-281
1.27317e-282
1.7676e-284
2.00182e-286
1.97195e-288
1.76015e-290
9.002e-227
5.89376e-228
4.58025e-229
4.53544e-230
5.86245e-231
8.20569e-232
1.10982e-232
1.94302e-233
3.82871e-234
2.98759e-235
1.54182e-236
7.32623e-238
3.24102e-239
1.14163e-240
3.28743e-242
8.16188e-244
1.93045e-245
4.76818e-247
1.33987e-248
4.45604e-250
1.73563e-251
8.02694e-253
4.40587e-254
2.38628e-255
9.39006e-257
2.72204e-258
6.78612e-260
8.99832e-262
7.99749e-264
5.77845e-266
3.27651e-268
1.40806e-270
4.57142e-273
1.1484e-275
2.30985e-278
3.81823e-281
5.49263e-284
7.88714e-287
1.45835e-289
3.96554e-292
1.31874e-294
4.24673e-297
1.01866e-299
1.07728e-302
2.59773e-228
1.68301e-229
1.22222e-230
1.09355e-231
1.26657e-232
1.56384e-233
3.82556e-234
1.23983e-234
2.5651e-235
1.79593e-236
7.31389e-238
1.9713e-239
3.86068e-241
1.13008e-242
4.34447e-244
8.57606e-246
1.55237e-247
3.97959e-249
1.33867e-250
5.70451e-252
2.95689e-253
1.80751e-254
1.39081e-255
1.30676e-256
9.58607e-258
5.87918e-259
1.90899e-260
1.9861e-262
1.36673e-264
1.03763e-266
8.0826e-269
5.63353e-271
3.47257e-273
1.92859e-275
9.79214e-278
4.61049e-280
2.04387e-282
8.65304e-285
3.5385e-287
1.40537e-289
5.3719e-292
1.8832e-294
5.20393e-297
7.03413e-300
1.03636e-228
4.24856e-230
2.53029e-231
1.80012e-232
1.68215e-233
1.95734e-234
2.44025e-235
8.09922e-236
3.85213e-236
7.32188e-237
3.99836e-238
1.13872e-239
1.96938e-241
2.73138e-243
7.52671e-245
2.49806e-246
4.23877e-248
8.77578e-250
2.53877e-251
9.98722e-253
5.17206e-254
3.34843e-255
2.59795e-256
2.44578e-257
3.42561e-258
4.07704e-259
3.8641e-260
2.41628e-261
1.14125e-262
3.47198e-264
5.54041e-266
7.3413e-268
8.43735e-270
7.57118e-272
5.5031e-274
3.43498e-276
1.91096e-278
9.74823e-281
4.65564e-283
2.11163e-285
9.1613e-288
3.77844e-290
1.42445e-292
4.31979e-295
6.86039e-298
1.08318e-230
3.48933e-232
1.84489e-233
1.28544e-234
1.2542e-235
1.51989e-236
2.66428e-237
1.52506e-237
8.46204e-238
1.37932e-238
6.18929e-240
1.36526e-241
1.795e-243
1.9193e-245
3.76052e-247
9.87816e-249
1.68795e-250
3.47416e-252
1.02735e-253
4.29668e-255
2.51138e-256
1.99986e-257
2.02793e-258
2.48316e-259
5.51461e-260
1.02201e-260
1.34611e-261
1.05785e-262
4.43415e-264
1.11918e-265
1.98366e-267
3.17735e-269
3.97782e-271
3.90826e-273
3.22136e-275
2.33072e-277
1.52688e-279
9.26296e-282
5.29026e-284
2.87677e-286
1.49664e-288
7.387e-291
3.31398e-293
1.18187e-295
2.1444e-298
2.43424e-234
1.0549e-235
7.15401e-237
7.08212e-238
8.93599e-239
2.45375e-239
2.10885e-239
1.17967e-239
1.6823e-240
6.60996e-242
1.23296e-243
1.3017e-245
1.02569e-247
1.49687e-249
3.29249e-251
5.79166e-253
1.51917e-254
5.31366e-256
1.79722e-257
8.88472e-259
7.04322e-260
8.16871e-261
1.25113e-261
3.75331e-262
1.25457e-262
2.33284e-263
1.93795e-264
7.12775e-266
1.98296e-267
4.57071e-269
8.14758e-271
1.09405e-272
1.18035e-274
1.0831e-276
8.76936e-279
6.44397e-281
4.39046e-283
2.81767e-285
1.72231e-287
1.00702e-289
5.58544e-292
2.83824e-294
1.21157e-296
3.63034e-299
2.23808e-236
7.79745e-238
4.97376e-239
4.88861e-240
6.52866e-241
2.61301e-241
2.57637e-241
1.2432e-241
1.50504e-242
5.29871e-244
8.56478e-246
7.65237e-248
5.85665e-250
7.72234e-252
2.00646e-253
5.57557e-255
1.63617e-256
4.19537e-258
1.07079e-259
4.11118e-261
2.72624e-262
2.70554e-263
3.82329e-264
1.16308e-264
6.91654e-265
2.28406e-265
2.44527e-266
1.14219e-267
3.85479e-269
9.29778e-271
1.64375e-272
2.25905e-274
2.57306e-276
2.53575e-278
2.23014e-280
1.7919e-282
1.3391e-284
9.43785e-287
6.33038e-289
4.05436e-291
2.46072e-293
1.37585e-295
6.6791e-298
2.58846e-300
1.21819e-236
3.18144e-238
9.54995e-240
5.13923e-241