/*--------------------------------*- C++ -*----------------------------------*\
| =========                 |                                                 |
| \\      /  F ield         | OpenFOAM: The Open Source CFD Toolbox           |
|  \\    /   O peration     | Version:  2.3.1                                 |
|   \\  /    A nd           | Web:      www.OpenFOAM.org                      |
|    \\/     M anipulation  |                                                 |
\*---------------------------------------------------------------------------*/
FoamFile
{
    version     2.0;
    format      ascii;
    class       volScalarField;
    location    "10";
    object      Sed_0;
}
// * * * * * * * * * * * * * * * * * * * * * * * * * * * * * * * * * * * * * //

dimensions      [0 0 0 0 0 0 0];

internalField   nonuniform List<scalar> 
38152
(
4.32475e-225
7.85412e-226
1.26076e-226
2.208e-227
4.10787e-228
6.5775e-229
9.84796e-230
1.91218e-230
3.68802e-231
4.5538e-232
2.77184e-233
9.61249e-235
2.38662e-236
4.67293e-238
8.99389e-240
2.1245e-241
6.19607e-243
2.15468e-244
8.33131e-246
3.23557e-247
1.30331e-248
6.65502e-250
4.25534e-251
2.68419e-252
1.53596e-253
9.65053e-255
6.36299e-256
3.025e-257
6.84529e-259
7.23018e-261
4.79554e-263
2.20777e-265
7.17491e-268
1.66265e-270
2.79662e-273
3.49105e-276
3.31301e-279
2.4475e-282
1.43961e-285
6.87853e-289
2.71566e-292
8.97065e-296
2.50066e-299
6.55501e-303
6.72993e-226
7.2147e-227
3.12681e-228
1.1305e-229
1.51622e-230
2.37264e-231
3.89018e-232
2.87415e-232
2.1433e-232
1.92638e-233
3.95889e-235
4.316e-237
6.25639e-239
1.11619e-240
8.96352e-242
4.43214e-243
1.97709e-244
9.1417e-246
4.52011e-247
2.19386e-248
9.6074e-250
4.63661e-251
2.73913e-252
1.75341e-253
1.14862e-254
9.17849e-256
6.63266e-257
2.28422e-258
2.3902e-260
1.44681e-262
7.09814e-265
2.76434e-267
8.43103e-270
1.95729e-272
3.44948e-275
4.6728e-278
4.9716e-281
4.29024e-284
3.16434e-287
2.10206e-290
1.50778e-293
1.33853e-296
1.31967e-299
1.04571e-302
2.23262e-226
3.97308e-227
1.92074e-228
1.78913e-230
2.51379e-232
3.64666e-233
6.36034e-234
3.37095e-234
9.99668e-234
5.29696e-234
3.15861e-235
5.34545e-237
7.02495e-239
1.04363e-240
2.19456e-242
1.40244e-243
9.01287e-245
5.00408e-246
2.6028e-247
1.42793e-248
7.79792e-250
3.40659e-251
1.50565e-252
7.42024e-254
4.02811e-255
2.3886e-256
2.43586e-257
3.39887e-258
2.39744e-259
1.30562e-260
4.90691e-262
9.68389e-264
9.27546e-266
4.68793e-268
1.40283e-270
2.73094e-273
3.72523e-276
3.78746e-279
3.04053e-282
2.06769e-285
1.29706e-288
9.33392e-292
8.9455e-295
9.51942e-298
7.46038e-301
1.03597e-227
1.1885e-228
2.09022e-230
3.68698e-233
5.43688e-235
8.86919e-236
2.42352e-236
6.33328e-236
2.36121e-235
1.04633e-235
5.07704e-237
9.11413e-239
1.49984e-240
2.71778e-242
6.60916e-244
3.63264e-245
2.49914e-246
1.53029e-247
8.61297e-249
5.14587e-250
2.99603e-251
1.37351e-252
5.68026e-254
1.94525e-255
6.23309e-257
2.33046e-258
3.78791e-259
1.06362e-259
9.82442e-261
5.12745e-262
1.6413e-263
2.20686e-265
1.43977e-267
5.37371e-270
1.29689e-272
2.19817e-275
2.78456e-278
2.78954e-281
2.35048e-284
1.87279e-287
1.75814e-290
2.23413e-293
3.3799e-296
4.72315e-299
4.14608e-302
2.49831e-230
2.31592e-232
3.67851e-235
3.96403e-237
8.05066e-238
6.74703e-238
3.02792e-237
7.52648e-237
2.42043e-237
1.05808e-238
2.35982e-240
4.8978e-242
1.07951e-243
2.91067e-245
1.36805e-246
9.13025e-248
6.05732e-249
3.34429e-250
1.28401e-251
2.39721e-253
2.31305e-255
5.63609e-257
2.07769e-258
8.60115e-260
4.19926e-261
4.64394e-261
2.23494e-261
2.13492e-262
9.84261e-264
2.18489e-265
2.11292e-267
1.11857e-269
3.66657e-272
8.06032e-275
1.26707e-277
1.51749e-280
1.47895e-283
1.34862e-286
1.44237e-289
2.11692e-292
3.88974e-295
7.68649e-298
1.43322e-300
2.05846e-303
2.83197e-232
1.7084e-234
2.87184e-237
3.88645e-239
1.29661e-239
3.05388e-239
1.46291e-238
2.53743e-238
6.47025e-239
3.13527e-240
9.99836e-242
2.9656e-243
8.91614e-245
2.87878e-246
1.11452e-247
5.05603e-249
2.14358e-250
6.00256e-252
6.71852e-254
2.34756e-256
1.26603e-258
3.36085e-260
1.44167e-261
7.22274e-263
5.84402e-264
5.58054e-263
3.75715e-263
3.42331e-264
1.2202e-265
1.8246e-267
1.28171e-269
5.265e-272
1.4114e-274
2.67442e-277
3.84043e-280
4.46841e-283
4.85031e-286
6.12285e-289
1.04328e-291
2.22069e-294
5.24132e-297
1.28952e-299
3.09653e-302
6.59925e-305
3.28753e-233
1.33191e-234
6.1591e-237
1.19082e-239
2.89971e-241
2.42656e-241
1.17082e-240
5.00845e-240
6.41365e-240
1.35883e-240
7.21958e-242
2.79675e-243
9.85427e-245
3.31564e-246
1.05835e-247
3.19609e-249
9.0002e-251
2.19516e-252
3.49578e-254
1.66592e-256
1.31519e-259
5.55577e-262
1.52171e-263
7.01772e-265
4.02514e-266
2.17838e-266
4.92608e-265
4.01747e-265
3.35836e-266
9.45819e-268
1.00117e-269
5.44411e-272
1.82852e-274
4.1945e-277
7.11005e-280
9.59539e-283
1.19169e-285
1.70684e-288
3.28955e-291
7.92472e-294
2.1306e-296
6.1103e-299
1.80682e-301
5.13359e-304
1.26682e-306
9.35929e-236
2.70647e-237
9.60482e-240
1.97371e-242
1.21457e-243
3.69371e-243
2.43061e-242
8.57618e-242
8.72446e-242
1.52301e-242
7.98166e-244
3.10749e-245
1.11033e-246
3.75135e-248
1.13208e-249
2.94502e-251
6.63699e-253
1.1391e-254
9.67073e-257
1.26368e-259
7.61134e-263
2.30321e-265
6.1913e-267
2.92974e-268
1.88467e-269
9.31053e-269
2.81497e-267
2.56856e-267
2.00611e-268
4.68465e-270
3.7573e-272
1.55532e-274
4.34144e-277
8.70837e-280
1.36985e-282
1.96405e-285
3.22443e-288
7.06664e-291
1.92131e-293
5.80709e-296
1.87789e-298
6.37418e-301
2.15321e-303
6.40419e-306
1.33256e-308
1.62897e-238
3.51494e-240
1.03311e-242
2.18656e-245
4.33762e-246
2.79214e-245
1.93777e-244
6.03524e-244
5.13092e-244
7.88728e-245
4.2527e-246
1.72332e-247
6.45438e-249
2.23607e-250
6.44806e-252
1.45615e-253
2.56389e-255
3.06588e-257
1.5486e-259
1.06897e-262
5.11419e-266
1.05152e-268
2.70303e-270
1.32828e-271
1.1811e-272
3.16015e-271
1.0393e-269
1.01027e-269
7.5843e-271
1.54633e-272
1.01534e-274
3.42498e-277
7.83934e-280
1.3934e-282
2.28736e-285
4.27596e-288
1.95667e-241
3.23723e-243
8.79637e-246
2.26756e-248
1.58277e-248
1.25734e-247
8.19401e-247
2.25729e-246
1.59514e-246
2.21881e-247
1.22535e-248
5.14149e-250
1.99818e-251
7.001e-253
1.9204e-254
3.81478e-256
5.45366e-258
4.70502e-260
1.43806e-262
7.00542e-266
3.56165e-269
6.51376e-272
1.5598e-273
8.92787e-275
1.50672e-275
7.93869e-274
2.53071e-272
2.50343e-272
1.83309e-273
3.37009e-275
1.92261e-277
5.64506e-280
1.14343e-282
2.00379e-285
3.98059e-288
2.41457e-244
3.05575e-246
8.6796e-249
3.50178e-251
5.79369e-251
4.26003e-250
2.30789e-249
5.29716e-249
2.99292e-249
3.78305e-250
2.10156e-251
8.97935e-253
3.55156e-254
1.24001e-255
3.24264e-257
5.79641e-259
7.01524e-261
4.65851e-263
1.00077e-265
4.82314e-269
2.74161e-272
5.85195e-275
1.47933e-276
9.93998e-278
2.64144e-278
1.41347e-276
3.97973e-275
3.83697e-275
2.75685e-276
4.68453e-278
2.43582e-280
6.57508e-283
1.31628e-285
2.69441e-288
7.17795e-291
1.84278e-247
1.88695e-249
5.8788e-252
4.49827e-254
1.18264e-253
7.7584e-253
3.43026e-252
6.50648e-252
2.91056e-252
3.34448e-253
1.83329e-254
7.8591e-256
3.12155e-257
1.07385e-258
2.67748e-260
4.3769e-262
4.60776e-264
2.46059e-266
4.11225e-269
2.32238e-272
1.60268e-275
4.66723e-278
1.26669e-279
9.15362e-281
3.45351e-281
1.56255e-279
3.56652e-278
3.20717e-278
2.24491e-279
3.58721e-281
1.75251e-283
4.61804e-286
9.84042e-289
2.3838e-291
7.36198e-294
1.71356e-225
2.52707e-226
3.26145e-227
4.45745e-228
8.06043e-229
1.28679e-229
1.96031e-230
3.95802e-231
9.20193e-232
1.20522e-232
7.08093e-234
2.6375e-235
7.88802e-237
1.99731e-238
4.70249e-240
1.1829e-241
3.27007e-243
9.79759e-245
3.235e-246
1.19834e-247
5.03919e-249
2.45791e-250
1.34953e-251
7.78969e-253
4.84806e-254
3.27079e-255
1.99652e-256
7.59561e-258
1.26167e-259
1.14604e-261
7.43939e-264
3.55785e-266
1.24812e-268
3.2378e-271
6.34619e-274
9.65992e-277
1.1764e-279
1.18112e-282
1.00397e-285
7.39262e-289
4.80408e-292
2.7972e-295
1.47268e-298
7.17472e-302
2.67314e-226
2.11389e-227
9.49739e-229
6.17655e-230
9.53529e-231
1.49991e-231
2.47256e-232
1.63506e-232
6.71107e-233
6.13323e-234
1.82498e-235
3.33071e-237
6.28962e-239
1.70292e-240
8.002e-242
2.84391e-243
9.3133e-245
3.0842e-246
1.08586e-247
4.28602e-249
1.87226e-250
9.41472e-252
5.43379e-253
3.38781e-254
2.31197e-255
2.00238e-256
1.59794e-257
5.13097e-259
5.17655e-261
3.24895e-263
1.77245e-265
8.54698e-268
3.43786e-270
1.13383e-272
3.1102e-275
7.26106e-278
1.48079e-280
2.70484e-283
4.52804e-286
7.10079e-289
1.05651e-291
1.48907e-294
1.8696e-297
1.59341e-300
9.18711e-227
9.66066e-228
2.79187e-229
7.00548e-231
5.28025e-232
9.03574e-233
1.46393e-233
3.72955e-234
5.25702e-234
1.93893e-234
1.25966e-235
3.00125e-237
5.1009e-239
8.91425e-241
2.45034e-242
1.19213e-243
5.0525e-245
1.88328e-246
6.68936e-248
2.43972e-249
1.01185e-250
4.38467e-252
2.03774e-253
1.12804e-254
7.26835e-256
5.25927e-257
6.79412e-258
8.92528e-259
6.08546e-260
3.36495e-261
1.20709e-262
2.09946e-264
1.89096e-266
1.07622e-268
4.29423e-271
1.30334e-273
3.23927e-276
6.95175e-279
1.33923e-281
2.38404e-284
4.01211e-287
6.45392e-290
9.85882e-293
1.33346e-295
1.19013e-298
2.45534e-228
1.82689e-229
2.56206e-231
3.96774e-233
3.15397e-234
5.7272e-235
1.06212e-235
6.67556e-236
1.24567e-235
4.05315e-236
2.2019e-237
4.82049e-239
9.04271e-241
1.77478e-242
5.00949e-244
2.30179e-245
1.04536e-246
4.13899e-248
1.3894e-249
4.78325e-251
1.8087e-252
7.48261e-254
3.11318e-255
1.43036e-256
8.73975e-258
6.4165e-259
1.62855e-259
3.1905e-260
2.69522e-261
1.34153e-262
3.7363e-264
4.69597e-266
3.54335e-268
1.84629e-270
7.20997e-273
2.27716e-275
6.13318e-278
1.46425e-280
3.19552e-283
6.52782e-286
1.2732e-288
2.40146e-291
4.32132e-294
6.89582e-297
6.87043e-300
2.6646e-231
2.40901e-233
2.11104e-235
1.67552e-236
3.24964e-237
9.85613e-238
1.67427e-237
2.71317e-237
7.31455e-238
3.71899e-239
1.00138e-240
2.41485e-242
5.97863e-244
1.76042e-245
6.7878e-247
2.73323e-248
8.56314e-250
2.43766e-251
6.29683e-253
7.7489e-255
1.2962e-256
6.37655e-258
4.9796e-259
4.36135e-260
4.22322e-261
2.87547e-261
7.3091e-262
5.90075e-263
2.4381e-264
4.87305e-266
5.25373e-268
3.79031e-270
1.96464e-272
7.89305e-275
2.60836e-277
7.43603e-280
1.90311e-282
4.50522e-285
1.01363e-287
2.21104e-290
4.76401e-293
1.01988e-295
2.05851e-298
3.32714e-301
2.05073e-233
1.34566e-235
8.66494e-238
6.47126e-239
1.80649e-239
1.40931e-239
3.93605e-239
5.17528e-239
1.14948e-239
6.15121e-241
2.11035e-242
6.54761e-244
1.99729e-245
6.1486e-247
1.83819e-248
4.71605e-250
1.10991e-251
1.82025e-253
1.30331e-255
8.46559e-258
1.44296e-259
7.64257e-261
7.34287e-262
8.59696e-263
1.62407e-263
3.66828e-263
1.1993e-263
8.85062e-265
2.92608e-266
4.66555e-268
4.42292e-270
2.90213e-272
1.4426e-274
5.80062e-277
1.98325e-279
6.00576e-282
1.66123e-284
4.32072e-287
1.08004e-289
2.68044e-292
6.77792e-295
1.75202e-297
4.43555e-300
1.00831e-302
3.16507e-234
9.23377e-236
4.95994e-238
2.48308e-240
1.87178e-241
8.75762e-242
1.87032e-241
5.71994e-241
5.99756e-241
1.10405e-241
5.7929e-243
2.01391e-244
6.62199e-246
2.06226e-247
5.88154e-249
1.42339e-250
2.94962e-252
5.76711e-254
7.4041e-256
3.05283e-258
1.49011e-260
2.05667e-262
9.14691e-264
7.69059e-265
8.5387e-266
5.13527e-266
2.99096e-265
1.21014e-265
8.72926e-267
2.58627e-268
3.47964e-270
2.95816e-272
1.82472e-274
8.85828e-277
3.58406e-279
1.26453e-281
4.02772e-284
1.19485e-286
3.38598e-289
9.51308e-292
2.73348e-294
8.17996e-297
2.51444e-299
7.48203e-302
1.96454e-304
1.57614e-236
3.61136e-238
1.9825e-240
8.90056e-243
5.2708e-244
4.18975e-244
1.58267e-243
4.29006e-243
3.58107e-243
5.65612e-244
2.96894e-245
1.07723e-246
3.74182e-248
1.23852e-249
3.60434e-251
8.59358e-253
1.74211e-254
2.90497e-256
2.83301e-258
9.95849e-261
4.16927e-263
4.44821e-265
1.68593e-266
1.26913e-267
1.29124e-268
2.09448e-268
1.80977e-267
8.53969e-268
6.29626e-269
1.71999e-270
2.05188e-272
1.56703e-274
9.23326e-277
4.43642e-279
1.82886e-281
6.72295e-284
2.27753e-286
7.31415e-289
2.31385e-291
7.45884e-294
2.5088e-296
8.79854e-299
3.08503e-301
9.74497e-304
2.27874e-306
7.42183e-239
1.49301e-240
9.4428e-243
4.90945e-245
2.949e-246
4.03221e-246
1.52733e-245
3.21916e-245
1.95287e-245
2.56964e-246
1.30987e-247
4.84288e-249
1.74151e-250
6.06542e-252
1.83618e-253
4.39468e-255
8.5149e-257
1.24539e-258
1.00622e-260
3.45204e-263
1.30011e-265
1.10009e-267
3.68183e-269
2.67754e-270
2.77575e-271
1.02438e-270
9.35368e-270
4.63321e-270
3.40902e-271
8.76482e-273
9.87037e-275
7.14365e-277
4.00729e-279
1.89881e-281
8.00381e-284
3.08143e-286
2.94175e-241
5.41985e-243
3.90704e-245
2.437e-247
1.92646e-248
3.91419e-248
1.27791e-247
2.15861e-247
9.78382e-248
1.1112e-248
5.49496e-250
2.04438e-251
7.43076e-253
2.61543e-254
7.86129e-256
1.81155e-257
3.2388e-259
4.13002e-261
2.88937e-263
1.01276e-265
3.71835e-268
2.6517e-270
7.93052e-272
5.6938e-273
6.50424e-274
4.67259e-273
3.95629e-272
1.91168e-272
1.38785e-273
3.4301e-275
3.77808e-277
2.68411e-279
1.48062e-281
6.95638e-284
2.947e-286
9.3193e-244
1.58681e-245
1.24653e-247
9.37073e-250
1.19666e-250
3.0215e-250
7.90054e-250
1.06271e-249
3.69777e-250
3.72144e-251
1.78575e-252
6.61035e-254
2.3886e-255
8.29822e-257
2.42108e-258
5.30802e-260
8.83464e-262
1.0178e-263
6.51879e-266
2.31041e-268
8.28653e-271
5.38032e-273
1.49878e-274
1.07727e-275
1.49684e-276
1.72007e-275
1.27226e-274
5.76764e-275
4.09357e-276
9.79298e-278
1.06548e-279
7.50496e-282
4.09763e-284
1.91538e-286
8.12036e-289
1.66929e-246
2.58569e-248
2.04381e-250
1.8786e-252
4.45336e-253
1.25245e-252
2.63288e-252
2.79603e-252
7.69642e-253
6.87238e-254
3.1632e-255
1.15164e-256
4.11024e-258
1.40109e-259
3.95845e-261
8.28194e-263
1.29049e-264
1.35815e-266
7.89309e-269
2.64985e-271
9.5504e-274
6.2598e-276
1.77226e-277
1.30052e-278
2.39786e-279
3.74428e-278
2.39081e-277
9.94165e-278
6.79219e-279
1.5527e-280
1.63454e-282
1.11287e-284
5.87779e-287
2.65997e-289
1.10173e-291
4.67986e-226
5.01802e-227
5.65246e-228
7.36591e-229
1.27442e-229
1.96909e-230
3.25337e-231
6.85153e-232
1.67149e-232
1.94495e-233
1.05131e-234
4.11772e-236
1.40237e-237
3.99172e-239
9.76013e-241
2.31725e-242
5.7882e-244
1.56703e-245
4.80405e-247
1.73401e-248
7.34095e-250
3.53012e-251
1.90512e-252
1.16826e-253
7.65364e-255
4.62806e-256
2.30928e-257
6.22676e-259
7.50571e-261
6.10755e-263
3.81512e-265
1.78525e-267
6.22913e-270
1.63695e-272
3.29671e-275
5.21636e-278
6.66978e-281
7.0943e-284
6.46787e-287
5.24338e-290
4.03144e-293
3.33472e-296
3.22003e-299
2.56076e-302
4.48162e-227
3.30698e-228
1.86944e-229
1.53763e-230
2.25847e-231
3.31132e-232
5.89696e-233
4.16286e-233
1.3292e-233
1.08203e-234
3.46887e-236
6.95405e-238
1.25988e-239
3.47616e-241
1.3265e-242
3.63181e-244
9.65155e-246
3.06985e-247
1.1122e-248
4.582e-250
2.17866e-251
1.20038e-252
7.53643e-254
5.20778e-255
4.22497e-256
3.73594e-257
2.44073e-258
5.61014e-260
4.96142e-262
3.09658e-264
1.86828e-266
1.04617e-268
5.01974e-271
2.05598e-273
7.32438e-276
2.32273e-278
6.71461e-281
1.80773e-283
4.61305e-286
1.12938e-288
2.6626e-291
5.91001e-294
1.11524e-296
1.21579e-299
1.59254e-227
1.0897e-228
4.19084e-230
2.09053e-231
1.88172e-232
2.90842e-233
4.32843e-234
1.24776e-234
1.35366e-234
3.93531e-235
2.3273e-236
5.2488e-238
7.60862e-240
1.06643e-241
2.85639e-243
1.14175e-244
3.60374e-246
1.19898e-247
4.24278e-249
1.63692e-250
7.14458e-252
3.56447e-253
2.09468e-254
1.46486e-255
1.16735e-256
1.11256e-257
1.64547e-258
1.68848e-259
1.04171e-260
5.12796e-262
1.45158e-263
2.00421e-265
1.7936e-267
1.19768e-269
6.13112e-272
2.54843e-274
9.11946e-277
2.93365e-279
8.75141e-282
2.47034e-284
6.67446e-287
1.72848e-289
4.18789e-292
8.61273e-295
1.03887e-297
2.90752e-229
1.59675e-230
3.22991e-232
1.36363e-233
1.33437e-234
2.15791e-235
3.75196e-236
2.40284e-236
3.05645e-236
7.57389e-237
3.49917e-238
6.15381e-240
6.97084e-242
8.65913e-244
2.19576e-245
8.8274e-247
3.53243e-248
1.29055e-249
4.12252e-251
1.32696e-252
5.33759e-254
2.8267e-255
1.90389e-256
1.59018e-257
1.47818e-258
1.93297e-259
4.97834e-260
6.86431e-261
4.7963e-262
2.13096e-263
4.254e-265
5.07001e-267
4.54174e-269
3.09636e-271
1.68101e-273
7.73389e-276
3.15529e-278
1.1777e-280
4.1081e-283
1.35959e-285
4.30973e-288
1.30786e-290
3.7008e-293
8.78371e-296
1.175e-298
1.75138e-232
2.13454e-234
7.07002e-236
7.54055e-237
1.27188e-237
3.04178e-238
3.85897e-238
4.52485e-238
9.18378e-239
3.62663e-240
6.03898e-242
9.26283e-244
1.78575e-245
4.75442e-247
1.60248e-248
5.21913e-250
1.89123e-251
6.05768e-253
1.3621e-254
1.63478e-256
6.97438e-258
6.49588e-259
7.40421e-260
8.9651e-261
2.04536e-261
9.79546e-262
1.58499e-262
9.64423e-264
3.2822e-265
5.8166e-267
7.34358e-269
6.89427e-271
4.95935e-273
2.90701e-275
1.46339e-277
6.57672e-280
2.71299e-282
1.04881e-284
3.85707e-287
1.36361e-289
4.63355e-292
1.48125e-294
4.16456e-297
8.78472e-300
1.20286e-234
1.07922e-236
2.82539e-238
3.13254e-239
5.73592e-240
2.36105e-240
4.14377e-240
4.18333e-240
6.976e-241
2.59695e-242
5.17708e-244
1.14026e-245
3.27834e-247
1.09573e-248
3.62318e-250
9.63051e-252
2.1913e-253
3.15311e-255
3.30179e-257
3.43585e-259
1.26337e-260
1.14448e-261
1.44493e-262
2.2058e-263
1.07199e-263
1.2136e-263
2.36918e-264
1.31773e-265
3.97754e-267
7.01814e-269
8.65412e-271
7.92668e-273
5.78353e-275
3.55543e-277
1.91814e-279
9.35128e-282
4.21414e-284
1.78629e-286
7.2272e-289
2.81318e-291
1.05477e-293
3.74928e-296
1.2083e-298
3.29207e-301
3.33459e-235
8.70542e-237
7.76373e-239
1.33701e-240
1.22321e-241
2.394e-242
1.74333e-242
3.33192e-242
2.39691e-242
3.15427e-243
1.1236e-244
2.7122e-246
7.80961e-248
2.67079e-249
8.70484e-251
2.3203e-252
5.52527e-254
1.35225e-255
1.941e-257
1.54844e-259
1.34186e-261
3.49361e-263
2.53973e-264
2.69835e-265
3.6882e-266
3.86935e-266
9.42234e-266
2.32012e-266
1.40898e-267
4.31781e-269
7.18549e-271
8.45208e-273
7.6516e-275
5.69454e-277
3.64723e-279
2.07772e-281
1.07987e-283
5.22448e-286
2.39243e-288
1.04863e-290
4.43618e-293
1.80883e-295
6.99503e-298
2.46234e-300
7.36373e-303
3.04667e-237
7.35908e-239
7.67819e-241
1.0762e-242
7.38619e-244
1.74406e-244
1.9741e-244
3.1327e-244
1.54232e-244
1.63492e-245
5.78745e-247
1.5866e-248
5.11594e-250
1.87854e-251
6.6358e-253
1.97505e-254
5.01243e-256
1.08656e-257
1.37427e-259
1.02066e-261
7.92348e-264
1.49724e-265
9.08339e-267
8.69932e-268
1.10986e-268
2.01967e-268
6.56388e-268
1.92944e-268
1.29222e-269
3.88008e-271
6.15786e-273
6.88697e-275
6.20411e-277
4.71857e-279
3.14126e-281
1.88269e-283
1.03869e-285
5.37056e-288
2.6371e-290
1.24359e-292
5.66108e-295
2.48173e-297
1.0224e-299
3.67387e-302
9.79463e-305
2.7684e-239
6.63095e-241
8.14218e-243
1.14023e-244
6.83097e-246
2.17191e-246
2.9879e-246
3.76345e-246
1.3486e-246
1.23933e-247
4.57772e-249
1.3417e-250
4.38762e-252
1.60192e-253
5.62644e-255
1.64577e-256
3.97797e-258
7.68045e-260
8.92374e-262
6.45867e-264
4.7784e-266
7.23054e-268
3.82016e-269
3.52766e-270
4.63717e-271
1.34844e-270
4.54604e-270
1.40532e-270
9.6323e-272
2.82418e-273
4.43654e-275
4.90759e-277
4.37848e-279
3.35686e-281
2.30363e-283
1.44129e-285
2.18859e-241
5.24197e-243
7.1479e-245
1.06508e-246
6.54093e-248
2.88631e-248
4.04296e-248
3.98279e-248
1.10051e-248
8.97477e-250
3.3482e-251
1.00529e-252
3.26867e-254
1.16264e-255
3.91841e-257
1.08597e-258
2.44826e-260
4.27935e-262
4.66964e-264
3.37849e-266
2.46289e-268
3.23333e-270
1.52358e-271
1.38418e-272
1.99817e-273
8.58077e-273
2.72736e-272
8.25538e-273
5.65927e-274
1.63975e-275
2.59233e-277
2.88094e-279
2.5736e-281
1.9805e-283
1.37082e-285
1.25244e-243
2.91833e-245
4.18572e-247
6.76611e-249
5.10776e-250
3.00603e-250
3.98561e-250
2.97302e-250
6.56091e-251
4.76232e-252
1.73537e-253
5.17072e-255
1.64993e-256
5.69817e-258
1.84404e-259
4.86989e-261
1.03699e-262
1.68302e-264
1.74436e-266
1.2478e-268
8.94793e-271
1.10313e-272
4.91657e-274
4.47419e-275
7.6138e-276
4.34687e-275
1.25184e-274
3.60132e-275
2.43205e-276
6.93538e-278
1.09377e-279
1.20959e-281
1.0716e-283
8.18453e-286
5.64316e-288
3.32671e-246
7.26244e-248
1.04567e-249
1.88027e-251
2.07436e-252
1.53578e-252
1.87528e-252
1.04997e-252
1.90547e-253
1.223e-254
4.22553e-256
1.22479e-257
3.8278e-259
1.29144e-260
4.04606e-262
1.02451e-263
2.06605e-265
3.11178e-267
2.97824e-269
2.00687e-271
1.42843e-273
1.82274e-275
8.46095e-277
7.87967e-278
1.67141e-278
1.18743e-277
3.07001e-277
8.27169e-278
5.38848e-279
1.47547e-280
2.24046e-282
2.38191e-284
2.02905e-286
1.49758e-288
1.00266e-290
1.70599e-226
1.3461e-227
1.25184e-228
1.46135e-229
2.24994e-230
3.35478e-231
5.33607e-232
1.10058e-232
2.66264e-233
2.57035e-234
1.31569e-235
5.5761e-237
2.14946e-238
6.71571e-240
1.76203e-241
4.31137e-243
1.06178e-244
2.75885e-246
8.08756e-248
2.81743e-249
1.14918e-250
5.31404e-252
2.88504e-253
1.78134e-254
1.02128e-255
4.54403e-257
1.59485e-258
2.8638e-260
2.79278e-262
2.11761e-264
1.26241e-266
5.68484e-269
1.91608e-271
4.96029e-274
1.00276e-276
1.61818e-279
2.14687e-282
2.44246e-285
2.58406e-288
3.04686e-291
5.05714e-294
1.11408e-296
2.22962e-299
2.2617e-302
8.35464e-228
5.97802e-229
4.0518e-230
3.64456e-231
4.81661e-232
6.43352e-233
1.49573e-233
7.67859e-234
2.02864e-234
1.49644e-235
5.31355e-237
1.20578e-238
2.13781e-240
5.56437e-242
2.10345e-243
4.77054e-245
1.10251e-246
3.23524e-248
1.15022e-249
4.92422e-251
2.5071e-252
1.47315e-253
9.95878e-255
8.21602e-256
7.24255e-257
5.55955e-258
2.61854e-259
4.06735e-261
3.031e-263
1.97559e-265
1.35437e-267
8.53591e-270
4.68101e-272
2.2623e-274
9.78476e-277
3.85893e-279
1.41483e-281
4.9084e-284
1.63511e-286
5.2841e-289
1.65234e-291
4.82018e-294
1.15076e-296
1.44008e-299
3.11373e-228
1.5941e-229
8.73053e-231
5.56767e-232
5.28809e-233
7.19781e-234
9.57551e-235
3.38081e-235
2.4994e-235
5.93066e-236
3.25455e-237
7.79309e-239
1.10354e-240
1.33225e-242
3.13119e-244
1.0483e-245
2.77839e-247
7.75262e-249
2.61199e-250
1.07579e-251
5.42122e-253
3.25757e-254
2.31089e-255
1.91014e-256
1.84953e-257
2.41724e-258
3.03526e-259
2.38377e-260
1.3068e-261
5.28395e-263
1.0868e-264
1.31053e-266
1.29355e-268
1.01197e-270
6.28478e-273
3.28055e-275
1.50784e-277
6.3169e-280
2.47231e-282
9.1932e-285
3.28076e-287
1.12047e-289
3.54507e-292
9.26089e-295
1.32876e-297
4.04516e-230
1.68649e-231
6.4069e-233
3.86553e-234
3.94152e-235
5.6362e-236
9.27261e-237
6.68007e-237
5.59419e-237
1.09286e-237
4.63313e-239
8.03645e-241
7.52766e-243
6.73747e-245
1.29902e-246
4.00266e-248
1.11399e-249
3.28862e-251
1.09174e-252
4.70034e-254
2.72697e-255
2.0746e-256
1.92627e-257
2.03697e-258
2.5055e-259
5.31444e-260
1.02934e-260
1.03893e-261
5.79237e-263
1.89832e-264
3.15635e-266
4.17678e-268
4.48337e-270
3.74367e-272
2.57104e-274
1.52966e-276
8.1818e-279
4.03866e-281
1.87543e-283
8.30232e-286
3.52647e-288
1.42863e-290
5.32414e-293
1.61738e-295
2.61071e-298
1.4129e-233
3.636e-235
2.0711e-236
2.22931e-237
3.30702e-238
7.76598e-239
9.01888e-239
7.16676e-239
1.13421e-239
3.81215e-241
4.91391e-243
3.8212e-245
3.95167e-247
7.73199e-249
2.16222e-250
6.8268e-252
3.2345e-253
1.24444e-254
2.88225e-256
8.09696e-258
6.53985e-259
7.56673e-260
1.03541e-260
1.64609e-261
6.6285e-262
1.99147e-262
2.1873e-263
1.00053e-264
2.80294e-266
5.31813e-268
8.08825e-270
9.2787e-272
8.39906e-274
6.35846e-276
4.20444e-278
2.50938e-280
1.3862e-282
7.21435e-285
3.57996e-287
1.7033e-289
7.73211e-292
3.25454e-294
1.17489e-296
3.07297e-299
1.12074e-235
2.23898e-237
1.13252e-238
1.21042e-239
1.84994e-240
6.45232e-241
8.21239e-241
5.42119e-241
6.623e-242
1.71765e-243
1.81226e-245
1.92292e-247
3.44973e-249
1.26488e-250
5.13181e-252
1.63591e-253
4.42861e-255
8.28871e-257
1.25556e-258
2.67109e-260
1.72881e-261
1.82553e-262
2.52284e-263
4.7366e-264
3.76084e-264
2.20651e-264
2.89717e-265
1.34996e-266
4.05847e-268
8.39541e-270
1.26821e-271
1.46435e-273
1.38008e-275
1.11377e-277
7.97458e-280
5.20412e-282
3.15679e-284
1.80574e-286
9.83872e-289
5.13384e-291
2.55533e-293
1.18724e-295
4.89098e-298
1.65265e-300
4.7541e-236
1.24763e-237
2.29406e-239
8.71666e-241
8.40706e-242
1.3424e-242
6.83684e-243
8.1998e-243
3.72636e-243
3.48665e-244
7.86941e-246
8.46238e-248
1.18659e-249
3.54138e-251
1.39629e-252
4.91368e-254
1.53973e-255
4.44733e-257
7.82584e-259
9.97568e-261
1.58921e-262
7.3695e-264
6.47965e-265
7.58155e-266
1.30898e-266
1.61986e-266
1.72394e-266
3.0296e-267
1.73142e-268
5.65179e-270
1.12447e-271
1.65821e-273
1.93625e-275
1.89093e-277
1.60777e-279
1.22643e-281
8.58169e-284
5.60062e-286
3.45225e-288
2.02848e-290
1.14111e-292
6.12086e-295
3.05904e-297
1.35295e-299
4.91578e-302
6.37912e-238
1.69797e-239
3.18423e-241
9.86894e-243
8.28176e-244
1.53672e-244
1.03678e-244
1.03587e-244
3.36538e-245
2.62594e-246
6.16477e-248
8.54337e-250
1.49994e-251
4.70133e-253
1.87195e-254
6.71976e-256
2.06055e-257
5.27643e-259
8.51334e-261
1.00741e-262
1.34391e-264
4.57631e-266
3.52896e-267
3.80536e-268
6.52119e-269
1.08792e-268
1.47029e-268
3.13936e-269
2.01414e-270
6.57125e-272
1.28098e-273
1.84245e-275
2.16529e-277
2.18049e-279
1.94023e-281
1.56272e-283
1.16041e-285
8.05842e-288
5.29285e-290
3.31484e-292
1.9871e-294
1.13024e-296
5.89677e-299
2.60272e-301
8.24087e-304
8.51695e-240
2.35713e-241
4.69706e-243
1.32454e-244
1.01394e-245
2.3311e-246
1.85982e-246
1.46429e-246
3.65073e-247
2.53314e-248
6.50912e-250
1.10956e-251
2.19756e-253
6.61504e-255
2.43011e-256
8.12173e-258
2.31705e-259
5.37683e-261
8.20579e-263
9.30147e-265
1.13742e-266
3.09002e-268
2.16085e-269
2.27103e-270
4.16552e-271
9.03643e-271
1.2944e-270
2.91879e-271
1.93086e-272
6.2761e-274
1.22896e-275
1.77073e-277
2.08901e-279
2.13395e-281
1.96114e-283
1.64565e-285
9.59901e-242
2.72374e-243
5.71456e-245
1.57484e-246
1.19937e-247
3.51961e-248
3.0423e-248
1.84297e-248
3.71084e-249
2.34474e-250
6.34801e-252
1.19622e-253
2.44661e-255
6.94624e-257
2.35907e-258
7.35776e-260
1.95935e-261
4.19529e-263
6.13096e-265
6.77552e-267
7.95573e-269
1.87715e-270
1.21692e-271
1.26906e-272
2.62485e-273
7.01111e-273
9.81063e-273
2.19965e-273
1.46827e-274
4.77607e-276
9.45058e-278
1.37285e-279
1.62979e-281
1.67753e-283
1.5554e-285
7.27109e-244
2.05097e-245
4.42459e-247
1.26606e-248
1.08633e-249
4.08428e-250
3.55411e-250
1.64404e-250
2.759e-251
1.58844e-252
4.30148e-254
8.29588e-256
1.67648e-257
4.50685e-259
1.44001e-260
4.25721e-262
1.07395e-263
2.15943e-265
3.02255e-267
3.25161e-269
3.72702e-271
8.36728e-273
5.27494e-274
5.54849e-275
1.3606e-275
4.22302e-275
5.55736e-275
1.20433e-275
7.96791e-277
2.56497e-278
5.05409e-280
7.29388e-282
8.58114e-284
8.7542e-286
8.05477e-288
2.30136e-246
6.26863e-248
1.36681e-249
4.31395e-251
4.75353e-252
2.24275e-252
1.86522e-252
6.71977e-253
9.54336e-254
4.93573e-255
1.26848e-256
2.36831e-258
4.6307e-260
1.19759e-261
3.67982e-263
1.04473e-264
2.51205e-266
4.73971e-268
6.20999e-270
6.33869e-272
7.25946e-274
1.71802e-275
1.12502e-276
1.21688e-277
3.71682e-278
1.29437e-277
1.5758e-277
3.24119e-278
2.07667e-279
6.43919e-281
1.22203e-282
1.69574e-284
1.91975e-286
1.89058e-288
1.68713e-290
8.7232e-227
5.71181e-228
4.44141e-229
4.40462e-230
5.70025e-231
7.98325e-232
1.07978e-232
1.89811e-233
3.72866e-234
2.8956e-235
1.49143e-236
7.07876e-238
3.12861e-239
1.10125e-240
3.16977e-242
7.86778e-244
1.86073e-245
4.5963e-247
1.29182e-248
4.29711e-250
1.67401e-251
7.74368e-253
4.25056e-254
2.30092e-255
9.04492e-257
2.61876e-258
6.51337e-260
8.61425e-262
7.6509e-264
5.52517e-266
3.13115e-268
1.34481e-270
4.36361e-273
1.09569e-275
2.20292e-278
3.64052e-281
5.23745e-284
7.52736e-287
1.39424e-289
3.79594e-292
1.26269e-294
4.06582e-297
9.751e-300
1.03103e-302
2.51618e-228
1.63074e-229
1.18467e-230
1.06171e-231
1.23122e-232
1.52329e-233
3.73978e-234
1.21332e-234
2.4941e-235
1.73919e-236
7.06808e-238
1.90281e-239
3.72187e-241
1.09069e-242
4.18746e-244
8.25672e-246
1.49535e-247
3.83512e-249
1.29056e-250
5.50106e-252
2.85197e-253
1.74365e-254
1.34273e-255
1.26107e-256
9.24415e-258
5.66438e-259
1.83474e-260
1.90665e-262
1.3124e-264
9.96745e-267
7.76296e-269
5.40916e-271
3.33335e-273
1.85077e-275
9.39426e-278
4.42178e-280
1.95961e-282
8.29381e-285
3.39066e-287
1.34631e-289
5.14498e-292
1.80327e-294
4.98213e-297
6.7332e-300
1.00111e-228
4.11205e-230
2.45069e-231
1.74504e-232
1.63396e-233
1.90286e-234
2.38087e-235
7.93995e-236
3.76993e-236
7.10746e-237
3.86566e-238
1.09857e-239
1.89758e-241
2.63029e-243
7.25935e-245
2.40531e-246
4.0801e-248
8.45126e-250
2.44624e-251
9.62786e-253
4.9877e-254
3.22987e-255
2.50646e-256
2.36189e-257
3.30802e-258
3.93504e-259
3.72631e-260
2.32783e-261
1.09908e-262
3.33904e-264
5.32297e-266
7.05274e-268
8.10132e-270
7.26515e-272
5.27814e-274
3.2933e-276
1.83159e-278
9.34116e-281
4.4604e-283
2.02277e-285
8.77455e-288
3.61843e-290
1.36394e-292
4.1357e-295
6.56701e-298
1.04571e-230
3.37393e-232
1.78616e-233
1.24633e-234
1.2187e-235
1.47824e-236
2.60817e-237
1.49765e-237
8.27165e-238
1.33695e-238
5.97609e-240
1.31526e-241
1.72693e-243
1.84554e-245
3.62068e-247
9.50594e-249
1.62395e-250
3.34415e-252
9.89592e-254
4.14125e-255
2.42173e-256
1.9292e-257
1.95676e-258
2.39765e-259
5.32861e-260
9.86956e-261
1.29813e-261
1.01874e-262
4.26283e-264
1.07492e-265
1.90553e-267
3.05145e-269
3.8181e-271
3.74966e-273
3.08963e-275
2.23483e-277
1.46374e-279
8.87827e-282
5.06969e-284
2.75639e-286
1.43379e-288
7.07573e-291
3.17387e-293
1.13173e-295
2.05313e-298
2.34943e-234
1.02103e-235
6.93779e-237
6.88255e-238
8.6966e-239
2.40688e-239
2.07117e-239
1.15123e-239
1.62851e-240
6.37491e-242
1.18636e-243
1.25054e-245
9.85327e-248
1.43982e-249
3.1665e-251
5.57105e-253
1.4624e-254
5.11461e-256
1.73027e-257
8.56343e-259
6.7927e-260
7.88175e-261
1.20807e-261
3.63016e-262
1.21225e-262
2.24994e-263
1.86531e-264
6.85265e-266
1.90591e-267
4.39211e-269
7.82466e-271
1.05015e-272
1.13255e-274
1.03891e-276
8.40946e-279
6.17815e-281
4.20854e-283
2.70045e-285
1.65039e-287
9.64815e-290
5.3505e-292
2.71844e-294
1.16026e-296
3.47611e-299
2.1585e-236
7.54419e-238
4.82402e-239
4.75077e-240
6.35986e-241
2.56547e-241
2.52806e-241
1.21118e-241
1.4554e-242
5.10568e-244
8.234e-246
7.34517e-248
5.62278e-250
7.42389e-252
1.92942e-253
5.35968e-255
1.57212e-256
4.03187e-258
1.02985e-259
3.96002e-261
2.62811e-262
2.60951e-263
3.69088e-264
1.12463e-264
6.69343e-265
2.20432e-265
2.35444e-266
1.09887e-267
3.70583e-269
8.9333e-271
1.57843e-272
2.16837e-274
2.46895e-276
2.43249e-278
2.13881e-280
1.71815e-282
1.28373e-284
9.04593e-287
6.06641e-289
3.88463e-291
2.35731e-293
1.31783e-295
6.39646e-298
2.47858e-300
1.17643e-236
3.06838e-238
9.23137e-240
4.98278e-241
4.6887e-242
7.11512e-243
3.89351e-243
3.47408e-243