/*--------------------------------*- C++ -*----------------------------------*\
| =========                 |                                                 |
| \\      /  F ield         | OpenFOAM: The Open Source CFD Toolbox           |
|  \\    /   O peration     | Version:  2.3.1                                 |
|   \\  /    A nd           | Web:      www.OpenFOAM.org                      |
|    \\/     M anipulation  |                                                 |
\*---------------------------------------------------------------------------*/
FoamFile
{
    version     2.0;
    format      ascii;
    class       volVectorField;
    location    "10";
    object      U;
}
// * * * * * * * * * * * * * * * * * * * * * * * * * * * * * * * * * * * * * //

dimensions      [0 1 -1 0 0 0 0];

internalField   nonuniform List<vector> 
38152
(
(0.226119 0.00867493 0.000418638)
(0.18983 -0.0117905 0.00597509)
(0.176481 -0.0270747 -0.00103846)
(0.211642 -0.0191271 -0.00677029)
(0.21147 -0.00351747 0.0041502)
(0.160021 -0.0170515 0.0094253)
(0.168075 -0.0420263 -0.00266917)
(0.230682 -0.0286655 -0.00485375)
(0.202971 0.0135746 0.00621372)
(0.106205 0.0191054 0.0112448)
(0.0588679 -0.00234174 0.00720235)
(0.0430715 -0.0148436 0.00498855)
(0.0323463 -0.0158613 0.00421418)
(0.0277035 -0.00842633 0.00109035)
(0.0321746 -2.70726e-05 -0.0028104)
(0.0407624 0.00389181 -0.00483)
(0.0494885 0.00622262 -0.0061341)
(0.0587623 0.00867407 -0.00538887)
(0.0630371 0.00849483 -0.00269882)
(0.0604553 0.00506736 -0.00316729)
(0.0655512 0.00435712 -0.00810003)
(0.0913317 0.00270814 -0.00943772)
(0.107713 -0.0082626 -0.00199978)
(0.0926662 0.00138148 0.00169582)
(0.0874383 0.0221906 -0.00561217)
(0.109293 0.00678584 -0.00848135)
(0.104245 -0.00722427 -0.000487768)
(0.0545306 0.00648426 0.00599391)
(0.0232504 0.00952607 0.00473467)
(0.0142105 0.00492127 0.00214245)
(0.00989786 0.00272333 0.00101488)
(0.00697084 0.00153632 0.000540357)
(0.00492147 0.000857681 0.000311922)
(0.00349141 0.000484608 0.000190881)
(0.00250074 0.00027931 0.000122597)
(0.00180972 0.000165921 8.21196e-05)
(0.00132151 0.000102654 5.71305e-05)
(0.000970388 6.67417e-05 4.118e-05)
(0.000712443 4.58401e-05 3.07498e-05)
(0.00051778 3.3316e-05 2.38205e-05)
(0.000365811 2.53887e-05 1.92489e-05)
(0.000242568 2.01032e-05 1.63772e-05)
(0.000136416 1.58811e-05 1.48345e-05)
(4.33001e-05 1.18448e-05 1.38879e-05)
(0.170192 0.0474591 -0.0028912)
(0.0848946 0.0191981 0.0153511)
(0.025407 -0.00121057 0.0104323)
(0.00941939 -0.00551606 0.00453178)
(0.00807836 0.000816852 0.00359346)
(0.010336 0.00715389 6.20599e-05)
(0.0091178 0.0122797 -0.00496269)
(0.00788913 0.0238884 -0.00465016)
(0.00670176 0.0332157 -0.000448262)
(0.00821761 0.0262079 -0.000621328)
(0.0114255 0.0144491 -0.00324505)
(0.0117684 0.00617168 -0.00385208)
(0.0103795 0.00209585 -0.00421433)
(0.0128434 0.00478439 -0.00556655)
(0.0218595 0.0103369 -0.00640088)
(0.0321356 0.0134461 -0.0063117)
(0.0416882 0.0130981 -0.00602365)
(0.0517875 0.0106828 -0.00509539)
(0.0600449 0.0113805 -0.00408951)
(0.0631394 0.012477 -0.00402357)
(0.0660369 0.000540443 -0.0042036)
(0.0823383 -0.00733199 -0.00385953)
(0.094783 0.00927079 -0.000784788)
(0.0776304 0.0102032 0.00309114)
(0.0927306 -0.00684102 0.00178938)
(0.124636 0.0090342 0.00209621)
(0.0703467 0.0312253 0.00431854)
(0.0191487 0.0163299 0.00260183)
(0.0115436 -0.0048174 0.000897324)
(0.00835598 -0.00774065 0.000985359)
(0.0070018 -0.00383936 0.000699396)
(0.00536075 -0.0012615 0.000417233)
(0.004025 -0.00017308 0.000258904)
(0.00300321 0.000179997 0.000167722)
(0.00223592 0.000257714 0.000113029)
(0.00166687 0.000240008 7.86653e-05)
(0.00124462 0.000196764 5.63995e-05)
(0.000928912 0.00015308 4.16356e-05)
(0.000689906 0.000116679 3.17328e-05)
(0.000505208 8.91627e-05 2.50902e-05)
(0.000358306 6.92316e-05 2.07514e-05)
(0.000237138 5.63245e-05 1.80838e-05)
(0.000130822 4.75913e-05 1.59207e-05)
(4.0356e-05 4.35105e-05 1.28369e-05)
(0.10234 0.0330791 0.00184755)
(0.0574354 0.0280511 0.0120869)
(0.0193785 0.00671154 0.00851037)
(0.000998546 -0.0157789 0.00258975)
(-0.01127 -0.02252 0.000605284)
(-0.0165453 -0.0194111 2.64992e-05)
(-0.0171652 -0.0152346 -0.000127845)
(-0.0164129 -0.0110032 -0.000447565)
(-0.0139309 0.000663725 -0.00117826)
(-0.00653943 0.0135018 -0.00210634)
(0.00322031 0.0151467 -0.00323788)
(0.0106718 0.0115619 -0.00400045)
(0.0154674 0.00803649 -0.00436264)
(0.0181017 0.00790967 -0.00483877)
(0.0217304 0.0129979 -0.00555208)
(0.0283329 0.0180717 -0.00594499)
(0.0361313 0.0204514 -0.00558601)
(0.0426725 0.0208268 -0.00478123)
(0.0469911 0.0204914 -0.00485031)
(0.0510237 0.0217812 -0.00570064)
(0.0592964 0.0191571 -0.00521341)
(0.0668033 0.00406475 -0.00272553)
(0.0684799 -0.0090884 0.00029265)
(0.0766905 -0.00878385 0.00348495)
(0.0833775 -0.0166146 0.00390567)
(0.0900212 -0.0207833 0.000892277)
(0.0948238 0.0115181 0.00165908)
(0.0823619 0.0455524 0.00226373)
(0.0921085 0.0362789 0.00111627)
(0.0784797 0.0118015 0.00194401)
(0.0432908 0.00105632 0.00270166)
(0.0212178 0.000547024 0.00202699)
(0.0110931 0.00115227 0.00101226)
(0.00635127 0.00111749 0.000464767)
(0.00391305 0.000889028 0.000239378)
(0.00257259 0.000663423 0.000138457)
(0.00176857 0.000483564 8.76947e-05)
(0.00125464 0.000350247 5.94394e-05)
(0.000907738 0.000254461 4.25182e-05)
(0.000662605 0.000186541 3.19319e-05)
(0.000481218 0.000139112 2.51497e-05)
(0.000340982 0.000105824 2.08772e-05)
(0.000226607 8.4313e-05 1.81108e-05)
(0.00012736 6.951e-05 1.52156e-05)
(4.07334e-05 6.34878e-05 1.12148e-05)
(0.00266673 0.0435858 0.0056959)
(-0.00512608 0.0360888 0.00470834)
(-0.00803032 0.0222808 0.00103925)
(-0.0137907 0.0113689 -0.001716)
(-0.020086 0.00591306 -0.0031876)
(-0.0232352 0.00537217 -0.00403298)
(-0.0234781 0.00786554 -0.00473191)
(-0.0223061 0.0119528 -0.00531747)
(-0.0181688 0.0178707 -0.00545246)
(-0.00904359 0.0233971 -0.00530065)
(0.00110912 0.024983 -0.00530273)
(0.00863619 0.0245495 -0.00527504)
(0.0132348 0.0236662 -0.00544975)
(0.0163491 0.0241266 -0.00582391)
(0.0207097 0.0268596 -0.00588708)
(0.0264279 0.0303226 -0.00483823)
(0.030614 0.0325907 -0.00358047)
(0.034447 0.031368 -0.00402263)
(0.0429585 0.0265175 -0.0042687)
(0.0544136 0.0209596 -0.00292439)
(0.0676592 0.012017 -0.000814423)
(0.0714417 -0.0034725 0.0023199)
(0.0594904 -0.0169243 0.00493555)
(0.0489363 -0.0193132 0.0042392)
(0.0477967 -0.0159971 -0.000765063)
(0.0522074 -0.00862788 -0.00497434)
(0.0623061 0.0107441 -0.00314565)
(0.0741776 0.0227711 0.001381)
(0.0707908 0.0200416 0.00410967)
(0.0435868 0.0206345 0.00414234)
(0.0209496 0.0164871 0.00258384)
(0.0104558 0.00914548 0.00119492)
(0.00593549 0.00481011 0.00053129)
(0.0037767 0.00268907 0.000272192)
(0.00260115 0.0016255 0.000160069)
(0.00187524 0.00104131 0.000103834)
(0.00138723 0.000696222 7.18407e-05)
(0.00103994 0.000479755 5.1975e-05)
(0.000782887 0.000338193 3.8924e-05)
(0.000587301 0.000243135 3.01471e-05)
(0.000433661 0.000179035 2.42012e-05)
(0.000309903 0.000135907 2.02781e-05)
(0.000205153 0.000110639 1.76094e-05)
(0.000112799 0.000100034 1.43811e-05)
(3.64271e-05 0.000109065 8.94135e-06)
(-0.00763973 0.0175772 0.00229238)
(-0.00443625 0.0109904 0.00134793)
(-0.00508574 0.00580388 0.000590131)
(-0.00808269 0.00445582 -0.000201477)
(-0.0110889 0.00601475 -0.00120168)
(-0.0122932 0.00951383 -0.00218942)
(-0.0114789 0.0141922 -0.0030895)
(-0.00819263 0.0204482 -0.00377689)
(-0.00214626 0.0261027 -0.00403685)
(0.00478826 0.028962 -0.0039117)
(0.0107047 0.029988 -0.00359997)
(0.0151326 0.0303249 -0.00341005)
(0.0186826 0.0315533 -0.003201)
(0.0228552 0.0339129 -0.00240866)
(0.0285139 0.0350314 -0.00186019)
(0.037352 0.0329713 -0.0041884)
(0.0533979 0.0262289 -0.00626196)
(0.0567141 0.0116221 0.000594514)
(0.0312038 -0.00201408 0.010143)
(0.00965493 -0.00630817 0.00933798)
(0.00251292 -0.00682418 0.00293339)
(0.00241353 -0.00757521 -0.00168637)
(0.00584033 -0.0085169 -0.00313272)
(0.0109175 -0.00790512 -0.00336684)
(0.0159972 -0.00188108 -0.00315745)
(0.021637 0.0131697 -0.00115694)
(0.0227974 0.0262871 0.00136939)
(0.0158107 0.0283248 0.00219099)
(0.00980439 0.0211574 0.0020319)
(0.00810439 0.0117927 0.00143279)
(0.00648192 0.00623894 0.000798856)
(0.00472199 0.00360024 0.000445595)
(0.00337335 0.0022713 0.000258475)
(0.00240197 0.0015145 0.000159271)
(0.00172837 0.00104393 0.000103403)
(0.00126083 0.0007344 7.04395e-05)
(0.000931785 0.000523733 5.01185e-05)
(0.000694742 0.000377599 3.70995e-05)
(0.00051953 0.000275052 2.85946e-05)
(0.00038491 0.000203482 2.29175e-05)
(0.000279474 0.000153824 1.90269e-05)
(0.000194023 0.000124125 1.61898e-05)
(0.00012709 0.000106133 1.27218e-05)
(9.66078e-05 0.000115136 9.60985e-06)
(-0.0194534 0.0125518 0.00117247)
(-0.0134568 0.0108707 0.000739065)
(-0.00953754 0.0102454 0.000471656)
(-0.00698754 0.0114062 0.000363999)
(-0.00515952 0.0140018 0.000194768)
(-0.00307837 0.0175321 -8.58119e-05)
(-0.000119041 0.0215732 -0.000473896)
(0.0045728 0.025724 -0.000789265)
(0.0111615 0.0291941 -0.000934974)
(0.0186742 0.0311169 -0.000789098)
(0.0259254 0.0317492 -0.000407568)
(0.0320095 0.031776 6.32371e-07)
(0.0366473 0.0319558 2.29312e-05)
(0.0416289 0.0318315 -0.000930234)
(0.0478042 0.0286194 -0.00176382)
(0.0489394 0.0205017 0.00133468)
(0.0355979 0.0130537 0.00728278)
(0.0159081 0.0103292 0.00767674)
(0.00480977 0.00708725 0.00317358)
(0.000481971 0.000978591 0.000718589)
(-0.00162289 -0.00495203 0.000357384)
(-0.00340381 -0.00826185 0.00021659)
(-0.00504162 -0.0079293 -0.000183911)
(-0.00626379 -0.00507114 -0.000594918)
(-0.00694237 0.000798913 -0.000646915)
(-0.00569092 0.0103314 0.00011727)
(-0.00282384 0.0167579 0.00107531)
(0.000460979 0.0166642 0.00142818)
(0.00293724 0.0135104 0.00120331)
(0.00360329 0.00944547 0.000750805)
(0.0031446 0.00617615 0.000433657)
(0.00249612 0.00402841 0.000260083)
(0.00194253 0.00264044 0.000164809)
(0.00150889 0.00175535 0.000111147)
(0.00117648 0.0011868 7.85081e-05)
(0.000919714 0.000815997 5.75092e-05)
(0.00071876 0.00057008 4.33561e-05)
(0.000558883 0.000404454 3.34632e-05)
(0.000430422 0.000291597 2.65309e-05)
(0.000324388 0.000214259 2.16057e-05)
(0.000238214 0.000160275 1.8149e-05)
(0.000161769 0.000124778 1.55345e-05)
(0.000105548 9.34122e-05 1.24064e-05)
(6.67537e-05 8.26451e-05 1.0617e-05)
(-0.0398307 0.00137736 1.43706e-05)
(-0.0340463 0.0010251 -0.00010858)
(-0.0289683 0.000316031 -0.000147937)
(-0.0239545 0.000280402 -0.000163136)
(-0.0189105 0.00160227 -3.26062e-05)
(-0.0136874 0.00420295 0.000183972)
(-0.0082382 0.00765899 0.000371672)
(-0.00240175 0.0115358 0.000537859)
(0.00378604 0.015213 0.000734577)
(0.0104863 0.0178186 0.000898549)
(0.0173129 0.0191335 0.00107562)
(0.0233281 0.0195748 0.00126764)
(0.0276928 0.0198523 0.00154346)
(0.0293396 0.0199071 0.00216523)
(0.0275335 0.0186207 0.00360805)
(0.0209613 0.0157756 0.00547959)
(0.0110565 0.0130034 0.00587404)
(0.00301315 0.00984217 0.00416084)
(-0.000114837 0.00467742 0.00232342)
(-0.000463392 -0.000252318 0.00133107)
(-0.00097093 -0.00275728 0.000761212)
(-0.0026046 -0.00376794 0.000215924)
(-0.00493455 -0.00423793 -0.000130384)
(-0.0071499 -0.00390681 -0.00022471)
(-0.00902234 -0.00227326 -0.000202665)
(-0.0101517 0.00134125 -5.02832e-05)
(-0.00920198 0.0067137 0.000321073)
(-0.0061294 0.0104301 0.000680315)
(-0.00265121 0.0105681 0.000755127)
(-9.95658e-05 0.00851744 0.000621052)
(0.00118092 0.00612814 0.000434788)
(0.00153336 0.0042627 0.000294893)
(0.0014964 0.0029584 0.000200732)
(0.00130649 0.00206779 0.000138398)
(0.00108445 0.00145871 9.74466e-05)
(0.000878892 0.00103778 7.01648e-05)
(0.00070385 0.000743383 5.1894e-05)
(0.000560364 0.000535494 3.94224e-05)
(0.000443487 0.000387812 3.07696e-05)
(0.000347942 0.000283114 2.47563e-05)
(0.000266403 0.000209247 2.04123e-05)
(0.000198634 0.000157131 1.73045e-05)
(0.000133459 0.000122384 1.49976e-05)
(8.89518e-05 9.11913e-05 1.19742e-05)
(3.07865e-05 7.95871e-05 1.09107e-05)
(-0.0426513 0.00436128 -0.000443942)
(-0.0393799 0.00400111 -0.000298833)
(-0.0361073 0.00351133 -0.00024416)
(-0.0334008 0.00311749 -0.000100497)
(-0.0305682 0.00326108 0.000108273)
(-0.0273864 0.00401676 0.000372114)
(-0.0236716 0.00531306 0.000690279)
(-0.0194499 0.00694014 0.00107725)
(-0.0149957 0.00853765 0.00144934)
(-0.0105552 0.00976768 0.00177497)
(-0.00664969 0.0106207 0.00207289)
(-0.00373867 0.0112562 0.00238145)
(-0.00203612 0.0119175 0.00278839)
(-0.00171827 0.0124148 0.00325137)
(-0.00255224 0.0122099 0.00344457)
(-0.00379749 0.0107792 0.00301255)
(-0.00424243 0.0081853 0.00217239)
(-0.00375045 0.00545704 0.00132884)
(-0.00327785 0.00333283 0.000674809)
(-0.00345439 0.0013805 0.000216045)
(-0.00397418 -0.000524968 -2.10896e-05)
(-0.00457832 -0.00201226 -8.29587e-05)
(-0.00543782 -0.0026366 -9.78018e-05)
(-0.00652616 -0.00224305 -8.37863e-05)
(-0.00759748 -0.00095948 -3.32924e-05)
(-0.00817242 0.00131131 7.51851e-05)
(-0.0074003 0.0041531 0.00024405)
(-0.00533202 0.00608197 0.000370836)
(-0.00304084 0.00646976 0.000378729)
(-0.00127982 0.00578666 0.000314722)
(-0.000218311 0.00461251 0.000239115)
(0.000308516 0.00348828 0.000176476)
(0.00053046 0.00255734 0.000130351)
(0.000596722 0.00184323 9.73048e-05)
(0.000582723 0.00131823 7.38174e-05)
(0.000532317 0.000940689 5.68754e-05)
(0.000466967 0.00067268 4.44223e-05)
(0.000398073 0.000483636 3.51439e-05)
(0.000331184 0.000350488 2.82328e-05)
(0.00026928 0.000256623 2.3211e-05)
(0.00021066 0.000190118 1.94632e-05)
(0.000159751 0.000144449 1.68717e-05)
(0.000102122 0.000111306 1.48179e-05)
(6.68921e-05 9.32077e-05 1.17436e-05)
(-3.84495e-07 6.76754e-05 1.09304e-05)
(-0.0425518 -0.00101515 -0.000551176)
(-0.0394033 -0.000915763 -0.000523332)
(-0.0365496 -0.00106116 -0.000480053)
(-0.0340399 -0.00108493 -0.000420269)
(-0.0317333 -0.000801161 -0.000324059)
(-0.0295034 -0.000151817 -0.00018348)
(-0.0272143 0.000779679 -2.83205e-06)
(-0.0247859 0.00187328 0.000214341)
(-0.0222397 0.00291375 0.000432158)
(-0.0196618 0.0037359 0.000630431)
(-0.01721 0.00433075 0.000810229)
(-0.0149982 0.00477063 0.000973516)
(-0.0130229 0.00516522 0.00112636)
(-0.0112134 0.00538109 0.00120837)
(-0.00948755 0.00513849 0.00113155)
(-0.00785196 0.00436908 0.000899547)
(-0.0064203 0.00332046 0.000607784)
(-0.00530332 0.00207212 0.000364036)
(-0.00450773 0.000732586 0.000204047)
(-0.00405528 -0.000418951 9.55274e-05)
(-0.00404542 -0.00115469 1.50065e-05)
(-0.00446599 -0.00155573 -5.15597e-05)
(-0.00511867 -0.00164039 -7.38777e-05)
(-0.00578999 -0.0012936 -5.92659e-05)
(-0.00633814 -0.000453468 -1.57397e-05)
(-0.00648858 0.000902233 5.59443e-05)
(-0.00588005 0.00248844 0.00013984)
(-0.00458408 0.0035708 0.000198295)
(-0.00309529 0.0038746 0.000209848)
(-0.00182159 0.00357341 0.000191649)
(-0.000908537 0.00298347 0.000160718)
(-0.000328558 0.0023536 0.000129044)
(8.23431e-06 0.00180039 0.000101496)
(0.000186803 0.00135005 7.94149e-05)
(0.000269556 0.00100096 6.22618e-05)
(0.000296314 0.000736079 4.9264e-05)
(-0.0425262 0.00265869 -0.000758759)
(-0.0397614 0.00248021 -0.000683206)
(-0.0369998 0.00240205 -0.00064684)
(-0.0346036 0.00220935 -0.000591611)
(-0.032298 0.00213212 -0.000529198)
(-0.0300685 0.00217091 -0.000450567)
(-0.0277984 0.00235309 -0.000354417)
(-0.0254577 0.00263654 -0.000245635)
(-0.0230625 0.00295623 -0.000135817)
(-0.0206813 0.0032429 -3.06242e-05)
(-0.0183901 0.00346874 6.64977e-05)
(-0.0162307 0.00363933 0.000153889)
(-0.0141908 0.00377356 0.000222673)
(-0.0122375 0.00380965 0.000258252)
(-0.0103879 0.00364444 0.000240718)
(-0.0087222 0.00322786 0.000181072)
(-0.00732565 0.00262292 0.000108913)
(-0.00624724 0.00193082 4.04416e-05)
(-0.00551589 0.00121434 -2.10488e-05)
(-0.00513 0.000493268 -6.28262e-05)
(-0.00499877 -0.000159602 -8.28249e-05)
(-0.00504756 -0.000614857 -8.50991e-05)
(-0.00524945 -0.000768176 -7.70442e-05)
(-0.00550536 -0.000595797 -5.57969e-05)
(-0.00566799 -0.000113608 -2.10151e-05)
(-0.00556443 0.000656311 2.44302e-05)
(-0.00502951 0.00151563 7.28687e-05)
(-0.00410959 0.00214127 0.000107154)
(-0.00305452 0.00237306 0.000119998)
(-0.00208871 0.00226952 0.000116907)
(-0.00131846 0.00196986 0.000105001)
(-0.000756934 0.00160552 9.01433e-05)
(-0.000373084 0.00125511 7.55581e-05)
(-0.000123154 0.000954636 6.26296e-05)
(2.96213e-05 0.00071343 5.1594e-05)
(-0.0421388 -0.00061807 -0.000529855)
(-0.0396209 -0.000648088 -0.000461214)
(-0.0367763 -0.000604844 -0.000444482)
(-0.0342962 -0.000580438 -0.00041501)
(-0.0318605 -0.000463647 -0.000390089)
(-0.0295375 -0.000264034 -0.000359719)
(-0.0272438 7.47342e-07 -0.000322944)
(-0.024964 0.000289202 -0.000278956)
(-0.0226877 0.000552455 -0.000230454)
(-0.0204343 0.000760669 -0.000179714)
(-0.0182408 0.000910353 -0.000128143)
(-0.0161407 0.00101636 -7.80983e-05)
(-0.0141497 0.00108942 -3.32308e-05)
(-0.0122717 0.00111023 3.96682e-07)
(-0.0105317 0.00103806 1.60493e-05)
(-0.00897682 0.000857832 1.45283e-05)
(-0.00765203 0.000588774 1.84619e-06)
(-0.00658828 0.00026959 -1.41687e-05)
(-0.00579982 -6.01645e-05 -3.06658e-05)
(-0.00528386 -0.000343753 -4.63593e-05)
(-0.00503214 -0.000533828 -5.88752e-05)
(-0.0049978 -0.000635754 -6.46385e-05)
(-0.00508176 -0.000630486 -6.03825e-05)
(-0.00518009 -0.000483484 -4.63519e-05)
(-0.00518966 -0.000189614 -2.36466e-05)
(-0.00499819 0.000227906 5.32048e-06)
(-0.00452443 0.000677231 3.55542e-05)
(-0.00380526 0.00101322 5.87628e-05)
(-0.00297885 0.00116332 7.14549e-05)
(-0.00218442 0.00114688 7.45885e-05)
(-0.00150583 0.0010247 7.13061e-05)
(-0.000971458 0.000857035 6.44618e-05)
(-0.000577361 0.000685792 5.63641e-05)
(-0.000300752 0.000531615 4.83962e-05)
(-0.000115176 0.00040252 4.11675e-05)
(-0.041622 0.00132426 -0.000616421)
(-0.0392148 0.00128833 -0.000534007)
(-0.03643 0.00120983 -0.000527572)
(-0.034003 0.00110154 -0.000503443)
(-0.0315829 0.000997332 -0.000483805)
(-0.0292622 0.000904211 -0.000459701)
(-0.0269569 0.000838705 -0.000430746)
(-0.024665 0.000801198 -0.00039712)
(-0.0223862 0.00078987 -0.000359598)
(-0.0201472 0.000793326 -0.000319655)
(-0.0179805 0.000801029 -0.000278322)
(-0.0159118 0.000807071 -0.000237302)
(-0.0139578 0.000809593 -0.000198868)
(-0.0121325 0.000801387 -0.000165982)
(-0.0104595 0.000768868 -0.000141401)
(-0.00897339 0.000705931 -0.000125731)
(-0.00771119 0.000613115 -0.000117474)
(-0.00670012 0.000493414 -0.000114399)
(-0.00595104 0.000353082 -0.000114609)
(-0.00545475 0.000200497 -0.000114936)
(-0.00517571 4.97598e-05 -0.000114315)
(-0.00506317 -6.07983e-05 -0.000110938)
(-0.00505257 -0.000113162 -0.000103391)
(-0.00505718 -0.000107096 -9.01623e-05)
(-0.00498238 -4.38077e-05 -7.08036e-05)
(-0.00474335 6.70831e-05 -4.69584e-05)
(-0.00428828 0.000193479 -2.12656e-05)
(-0.00364656 0.000293369 1.59212e-06)
(-0.00291658 0.000342808 1.83244e-05)
(-0.0022018 0.000343266 2.86121e-05)
(-0.00157218 0.000310474 3.35673e-05)
(-0.00105833 0.000261477 3.46275e-05)
(-0.000664996 0.000209748 3.32901e-05)
(-0.000379108 0.000162791 3.06911e-05)
(-0.000181121 0.000123438 2.75572e-05)
(0.162484 0.0256653 -0.00800205)
(0.142443 -0.00889965 0.00975343)
(0.142412 -0.0236304 0.00552245)
(0.149048 -0.0221773 0.00597667)
(0.139997 -0.0186426 0.0196249)
(0.139036 -0.0251373 0.0116243)
(0.179294 -0.0271423 -0.0137406)
(0.211398 -0.00582898 -0.00595741)
(0.157617 0.0234622 0.0224445)
(0.0805498 0.0200343 0.0279209)
(0.0527164 0.000125662 0.0155548)
(0.0431552 -0.0119713 0.0108409)
(0.037743 -0.0119517 0.00941127)
(0.0349933 -0.00182134 0.00109928)
(0.0358008 0.00625727 -0.00868963)
(0.0401466 0.00685969 -0.0119388)
(0.0439286 0.00471822 -0.0118572)
(0.0473657 0.0028392 -0.0104149)
(0.0525688 0.000990013 -0.00789672)
(0.0598614 -0.00227749 -0.00724078)
(0.0691211 -0.00564195 -0.00916103)
(0.0792663 -0.00666447 -0.0070392)
(0.0830245 -0.0080524 0.00115562)
(0.0874316 -0.00089539 0.000622468)
(0.101503 0.00581344 -0.00959526)
(0.104757 -0.00599744 -0.00584174)
(0.0749858 -0.00828307 0.0122607)
(0.032382 0.007091 0.01843)
(0.0170977 0.0078562 0.0109024)
(0.0125725 0.00426477 0.0052398)
(0.00940753 0.00251895 0.00273576)
(0.00681225 0.00145424 0.00152601)
(0.00487086 0.00082252 0.00089581)
(0.00348118 0.000469307 0.000553412)
(0.00250611 0.000272619 0.000357528)
(0.00182046 0.000162812 0.000240539)
(0.00133324 0.000100956 0.000167987)
(0.000981286 6.55461e-05 0.000121544)
(0.00072179 4.47861e-05 9.11127e-05)
(0.000525368 3.23022e-05 7.08706e-05)
(0.000371656 2.4412e-05 5.75139e-05)
(0.000246709 1.92804e-05 4.8997e-05)
(0.000138832 1.51492e-05 4.38245e-05)
(4.50922e-05 1.13417e-05 3.99451e-05)
(0.0860872 0.0250627 0.0277599)
(0.0426882 0.00604962 0.0361462)
(0.0242865 -0.00632162 0.0170995)
(0.0165838 -0.010034 0.00683053)
(0.0170636 -0.00582068 0.00450014)
(0.021531 -0.00119121 -0.00201327)
(0.022038 0.00466046 -0.00971293)
(0.0181 0.0201849 -0.00659987)
(0.0136066 0.0307713 0.00285841)
(0.0155985 0.0238701 0.00144323)
(0.0152728 0.012445 -0.0045526)
(0.0122782 0.00497088 -0.00694011)
(0.00945529 0.00180702 -0.00788739)
(0.0105322 0.00428854 -0.0103053)
(0.0172998 0.00758677 -0.0121279)
(0.0251738 0.00747802 -0.0116505)
(0.0315112 0.00524655 -0.010757)
(0.0375114 0.00239923 -0.00953896)
(0.0442094 -4.86513e-05 -0.00793844)
(0.0511969 -0.00473837 -0.00614804)
(0.0580487 -0.0139409 -0.00493359)
(0.0687696 -0.0159858 -0.002918)
(0.0767751 -0.00604007 0.00341734)
(0.0760748 -0.00648626 0.0052738)
(0.096506 -0.00996876 -0.000681621)
(0.106673 0.0111889 0.00527731)
(0.0531988 0.0298872 0.0139237)
(0.0179527 0.0134252 0.00828958)
(0.0113907 -0.00513707 0.00331506)
(0.00826407 -0.0070096 0.00301949)
(0.00698694 -0.00333096 0.00197933)
(0.0053702 -0.0010436 0.00119371)
(0.00404364 -9.52178e-05 0.000748598)
(0.00302266 0.000207555 0.000487048)
(0.00225431 0.000267208 0.00032885)
(0.00168336 0.000242789 0.000229179)
(0.00125904 0.000196876 0.000164542)
(0.000941252 0.000152061 0.000121672)
(0.000700225 0.000115171 9.28767e-05)
(0.000513688 8.7426e-05 7.34936e-05)
(0.000365302 6.75267e-05 6.06347e-05)
(0.000243217 5.47954e-05 5.23899e-05)
(0.000137536 4.64644e-05 4.58927e-05)
(4.51453e-05 4.28977e-05 3.76853e-05)
(0.0310029 0.0138272 0.0233987)
(0.0126296 0.0109317 0.0265188)
(0.00378514 -0.000559713 0.014697)
(-0.00426062 -0.0151426 0.00506486)
(-0.0114923 -0.0198621 0.0010428)
(-0.014589 -0.0174446 -0.000401341)
(-0.0144411 -0.0127682 -0.000975913)
(-0.0137251 -0.00658514 -0.00115241)
(-0.011788 0.00497731 -0.00156881)
(-0.00571291 0.0149929 -0.00289068)
(0.00130083 0.0141942 -0.00546529)
(0.00559713 0.00984693 -0.00749527)
(0.00835642 0.00605428 -0.00851954)
(0.00994084 0.0051634 -0.00963743)
(0.0127046 0.00841502 -0.0109418)
(0.0176624 0.0107108 -0.0112497)
(0.0229886 0.00993877 -0.010583)
(0.028103 0.00740214 -0.00940462)
(0.0339346 0.00367202 -0.00744067)
(0.0407624 -0.00116807 -0.00490771)
(0.0473942 -0.00805522 -0.00193605)
(0.0502391 -0.0175573 5.52703e-05)
(0.052709 -0.0236885 0.00110426)
(0.0623637 -0.0221414 0.00423433)
(0.0713924 -0.0189732 0.00228492)
(0.0791266 -0.00917721 -0.00345958)
(0.0818246 0.0198193 0.000952429)
(0.0771629 0.0408013 0.00352408)
(0.0880202 0.0275896 0.00193056)
(0.0702936 0.00733645 0.00766986)
(0.0363767 0.000299838 0.00994859)
(0.0182115 0.000745634 0.00591739)
(0.0101068 0.00124771 0.00267599)
(0.00603669 0.00114503 0.00125543)
(0.00381278 0.000898714 0.000665953)
(0.00254454 0.00066758 0.000392456)
(0.00176651 0.000485513 0.000251414)
(0.00126157 0.00035102 0.000171672)
(0.000917142 0.000254467 0.000123451)
(0.000671855 0.000186042 9.30354e-05)
(0.000489514 0.000138232 7.33944e-05)
(0.000348305 0.000104925 6.06906e-05)
(0.000233613 8.35933e-05 5.21982e-05)
(0.000135417 6.95653e-05 4.40635e-05)
(4.63894e-05 6.37448e-05 3.37306e-05)
(-0.023808 0.0258397 0.00923787)
(-0.0195043 0.0211295 0.00661919)
(-0.0165238 0.0109094 0.00131467)
(-0.018317 0.00249454 -0.00312718)
(-0.0218187 -0.00127352 -0.00544736)
(-0.0238461 -0.000707424 -0.0069062)
(-0.0240021 0.00244458 -0.00811929)
(-0.0231102 0.00701474 -0.00904166)
(-0.0195499 0.0129492 -0.00913944)
(-0.0117766 0.0175107 -0.00888994)
(-0.00318978 0.0176809 -0.00908654)
(0.00351405 0.0160086 -0.00905403)
(0.00800902 0.0139199 -0.00896935)
(0.0108637 0.0128497 -0.00913423)
(0.0143284 0.0133684 -0.00929332)
(0.0195725 0.0139167 -0.00859069)
(0.0261402 0.012631 -0.00718085)
(0.0325207 0.00751746 -0.00457266)
(0.0366852 -0.00271054 0.000168904)
(0.0392472 -0.0127243 0.00427326)
(0.0399552 -0.0162732 0.00604383)
(0.0368822 -0.0171737 0.00632943)
(0.0338148 -0.0173144 0.0042236)
(0.0364946 -0.013806 0.000125453)
(0.0424681 -0.00869136 -0.00626838)
(0.0473816 -3.2886e-06 -0.01089)
(0.053874 0.0158559 -0.00644794)
(0.063737 0.0221001 0.00327783)
(0.0590705 0.0188412 0.0111893)
(0.0348237 0.0194249 0.0120011)
(0.0173252 0.0149818 0.00696094)
(0.00943719 0.00835063 0.00309109)
(0.00569534 0.00454088 0.00143775)
(0.00373135 0.00260684 0.000765945)
(0.00260244 0.00160137 0.000459732)
(0.00188751 0.00103561 0.000300816)
(0.00140107 0.000695921 0.000208878)
(0.00105294 0.000480623 0.000151405)
(0.000794474 0.00033892 0.000113597)
(0.000597282 0.000243431 8.81109e-05)
(0.000442321 0.000178825 7.07579e-05)
(0.000317676 0.000135493 5.90338e-05)
(0.000213096 0.000109756 5.08058e-05)
(0.00012237 9.88927e-05 4.19749e-05)
(4.3057e-05 0.000108126 3.00117e-05)
(-0.0195721 0.00728797 0.00418369)
(-0.0156574 0.00223785 0.00246442)
(-0.0147615 -0.0021947 0.00101936)
(-0.0153965 -0.00384138 -0.000380625)
(-0.0158586 -0.0030547 -0.00193345)
(-0.0150203 -0.0004519 -0.00345052)
(-0.0128136 0.00329025 -0.00479233)
(-0.00880876 0.00829166 -0.00571021)
(-0.0025098 0.0123414 -0.00605828)
(0.00480729 0.0138492 -0.00598677)
(0.01173 0.0138656 -0.00552149)
(0.0175824 0.0131776 -0.0050446)
(0.0220454 0.0127458 -0.00487117)
(0.0265964 0.0125777 -0.00477214)
(0.0328778 0.0101555 -0.00384224)
(0.0371482 0.0032613 -0.000424767)
(0.0304628 -0.00489773 0.00809827)
(0.0130929 -0.00912083 0.0171065)
(0.000426164 -0.0090281 0.016693)
(0.000307446 -0.00804761 0.0083275)
(0.00213523 -0.00866339 0.000465733)
(0.00309298 -0.010026 -0.00412776)
(0.00539913 -0.0102444 -0.00601479)
(0.00900306 -0.00773671 -0.00685977)
(0.0122449 -1.0845e-07 -0.00622672)
(0.0158516 0.0142157 -0.00144279)
(0.0164163 0.0249805 0.00454343)
(0.0110307 0.025857 0.00672972)
(0.00758911 0.0189686 0.00578207)
(0.00723366 0.0107987 0.00379468)
(0.00606008 0.00598285 0.00213805)
(0.00452619 0.00355925 0.00122366)
(0.00328639 0.00227424 0.000723915)
(0.00236949 0.00152404 0.000451952)
(0.00172098 0.0010521 0.000296281)
(0.0012647 0.000740185 0.000203292)
(0.000940101 0.000527508 0.000145462)
(0.000704234 0.000379864 0.000108212)
(0.000528487 0.000276266 8.36959e-05)
(0.000392912 0.000203885 6.72371e-05)
(0.000286093 0.000153901 5.5729e-05)
(0.000199717 0.000123327 4.72179e-05)
(0.000131988 0.000105434 3.72306e-05)
(9.80742e-05 0.000110284 2.9603e-05)
(-0.0312792 0.0076951 0.00134599)
(-0.0261642 0.00560979 0.000486023)
(-0.0225633 0.00408322 -0.000112179)
(-0.0195602 0.00374419 -0.000336842)
(-0.0165164 0.00460532 -0.000388379)
(-0.0128928 0.00633769 -0.000495391)
(-0.0085456 0.00844052 -0.000659437)
(-0.00298828 0.0106 -0.000713266)
(0.00396054 0.0122166 -0.0006462)
(0.0114529 0.0127942 -0.000403935)
(0.0185508 0.0126696 0.000123148)
(0.0246107 0.0119931 0.000907484)
(0.02887 0.0105637 0.00194479)
(0.0305305 0.00777806 0.00405086)
(0.0267793 0.0037883 0.00851179)
(0.0169312 0.00108529 0.0136281)
(0.00726141 0.00155059 0.0141868)
(0.00309632 0.00303133 0.0086185)
(0.000825777 0.00125875 0.00293923)
(-0.00145061 -0.00311764 0.000655126)
(-0.00311453 -0.00687218 0.000175896)
(-0.00485188 -0.00859886 -0.00033685)
(-0.00654077 -0.00767724 -0.00113953)
(-0.00786012 -0.00461661 -0.00168866)
(-0.00868102 0.00131203 -0.00118545)
(-0.0075513 0.0101107 0.00113198)
(-0.00437518 0.0154938 0.00353012)
(-0.000463761 0.0152646 0.00404444)
(0.00243232 0.0125921 0.00316565)
(0.00333164 0.0089822 0.00200295)
(0.0030282 0.00597961 0.00119627)
(0.00245723 0.00394731 0.000735856)
(0.00193601 0.0026115 0.000474309)
(0.00151488 0.00174769 0.000322013)
(0.00118641 0.00118721 0.000228254)
(0.000930612 0.00081886 0.000167475)
(0.000729417 0.00057312 0.000126426)
(0.000568799 0.000406874 9.7804e-05)
(0.000439149 0.000293235 7.76842e-05)
(0.000332142 0.000215181 6.3412e-05)
(0.000244455 0.000160842 5.31493e-05)
(0.000167768 0.000124896 4.5336e-05)
(0.000110242 9.4488e-05 3.61121e-05)
(6.98302e-05 8.18817e-05 3.03287e-05)
(-0.0433048 0.00102362 -0.000773652)
(-0.0389369 0.000267528 -0.000911812)
(-0.0353136 -0.00111924 -0.00103666)
(-0.0321577 -0.00224738 -0.00108203)
(-0.0290252 -0.0025077 -0.00086817)
(-0.0255243 -0.00179432 -0.000471407)
(-0.0215202 -0.000385706 4.53673e-05)
(-0.0170361 0.0013364 0.000671129)
(-0.0121826 0.00304908 0.00140192)
(-0.00707111 0.00416151 0.00208887)
(-0.00214514 0.00461261 0.00284352)
(0.00188699 0.00467916 0.00379606)
(0.00441363 0.00465384 0.00519183)
(0.00471217 0.00456904 0.00719891)
(0.00286988 0.00444696 0.00924619)
(2.98799e-05 0.00459473 0.00972842)
(-0.00198575 0.00500629 0.00774277)
(-0.00256684 0.00435295 0.00492561)
(-0.00203623 0.00163239 0.00302512)
(-0.0013703 -0.00122144 0.00181407)
(-0.00163087 -0.00276749 0.000767953)
(-0.00308008 -0.00365905 -0.000107082)
(-0.00519132 -0.0041721 -0.000590423)
(-0.00729316 -0.00382294 -0.000685414)
(-0.00915708 -0.00217361 -0.000522712)
(-0.0102757 0.00135365 7.05265e-06)
(-0.00928959 0.00637807 0.0010285)
(-0.00621117 0.00979496 0.00187828)
(-0.00276916 0.0100209 0.00198843)
(-0.000227217 0.00822763 0.00165856)
(0.00107725 0.00602138 0.00119241)
(0.00146758 0.00423862 0.000823999)
(0.00146063 0.00296321 0.000567763)
(0.00129071 0.00207991 0.000394907)
(0.00108095 0.00147023 0.00027989)
(0.000882387 0.0010469 0.00020263)
(0.000710987 0.000750106 0.000150481)
(0.000568904 0.000540253 0.000114722)
(0.000452152 0.000391079 8.98408e-05)
(0.000355813 0.000285262 7.24163e-05)
(0.000273484 0.000210601 5.98648e-05)
(0.000204229 0.000158076 5.06498e-05)
(0.000138963 0.000122849 4.36986e-05)
(9.23762e-05 9.27896e-05 3.47709e-05)
(3.5892e-05 7.91803e-05 3.04496e-05)
(-0.0441428 0.00355107 -0.00175024)
(-0.040697 0.00335798 -0.00161583)
(-0.0376565 0.00293292 -0.00163289)
(-0.0352932 0.00250211 -0.00155803)