/*--------------------------------*- C++ -*----------------------------------*\
| =========                 |                                                 |
| \\      /  F ield         | OpenFOAM: The Open Source CFD Toolbox           |
|  \\    /   O peration     | Version:  2.3.1                                 |
|   \\  /    A nd           | Web:      www.OpenFOAM.org                      |
|    \\/     M anipulation  |                                                 |
\*---------------------------------------------------------------------------*/
FoamFile
{
    version     2.0;
    format      ascii;
    class       volVectorField;
    location    "10";
    object      U_0;
}
// * * * * * * * * * * * * * * * * * * * * * * * * * * * * * * * * * * * * * //

dimensions      [0 1 -1 0 0 0 0];

internalField   nonuniform List<vector> 
38152
(
(0.226007 0.0086029 0.00047459)
(0.189658 -0.0119154 0.00595646)
(0.176638 -0.0271029 -0.00111473)
(0.211882 -0.0190127 -0.00675229)
(0.211268 -0.00350051 0.00423083)
(0.159837 -0.0172243 0.00939442)
(0.168435 -0.0421058 -0.00273796)
(0.230985 -0.0284344 -0.00481221)
(0.202519 0.0137712 0.00628226)
(0.105743 0.0190266 0.0112454)
(0.0587154 -0.00243932 0.00717532)
(0.0430082 -0.0148823 0.00497898)
(0.0323141 -0.0158684 0.00420904)
(0.0276994 -0.00841757 0.00108277)
(0.0321895 -1.89424e-05 -0.00281618)
(0.0407821 0.00389747 -0.00483389)
(0.0495121 0.00623002 -0.00613662)
(0.0587851 0.00868043 -0.00538564)
(0.0630442 0.008493 -0.00269619)
(0.060459 0.00506377 -0.00317702)
(0.0655968 0.00435683 -0.00811505)
(0.0914202 0.0026842 -0.00943075)
(0.107726 -0.00826924 -0.0019766)
(0.0926201 0.00145148 0.00168839)
(0.087474 0.0222049 -0.00563853)
(0.109371 0.00672374 -0.00847674)
(0.104172 -0.00722348 -0.00046366)
(0.0544012 0.00650511 0.00600162)
(0.0232089 0.00950886 0.00472763)
(0.0141976 0.00491256 0.00213843)
(0.00989062 0.0027198 0.00101333)
(0.00696608 0.00153445 0.000539667)
(0.00491815 0.000856613 0.000311579)
(0.00348912 0.000483977 0.000190694)
(0.00249916 0.000278938 0.000122489)
(0.00180862 0.000165704 8.20542e-05)
(0.00132074 0.000102529 5.70892e-05)
(0.000969845 6.66716e-05 4.11529e-05)
(0.000712062 4.58004e-05 3.07313e-05)
(0.000517514 3.32924e-05 2.38073e-05)
(0.00036563 2.53729e-05 1.92392e-05)
(0.000242451 2.00915e-05 1.63697e-05)
(0.000136351 1.58724e-05 1.48281e-05)
(4.328e-05 1.18388e-05 1.38822e-05)
(0.16999 0.0473675 -0.00277437)
(0.0845293 0.0190906 0.015381)
(0.0252828 -0.00125435 0.0103959)
(0.00939238 -0.00549294 0.00453381)
(0.00806724 0.000849024 0.00359232)
(0.0103155 0.00716878 3.18061e-05)
(0.00908121 0.0123135 -0.0049839)
(0.00788905 0.0239568 -0.00463163)
(0.00668326 0.033216 -0.000423098)
(0.00823492 0.026142 -0.00063255)
(0.0114258 0.0143998 -0.00325492)
(0.0117616 0.00614553 -0.00385623)
(0.0103751 0.00208806 -0.00421852)
(0.0128534 0.00479113 -0.00557134)
(0.0218799 0.0103449 -0.00640361)
(0.0321572 0.0134505 -0.00631362)
(0.0417128 0.0130973 -0.00602443)
(0.0518151 0.0106838 -0.00509479)
(0.0600661 0.0113902 -0.00408981)
(0.0631532 0.01247 -0.00402569)
(0.0660669 0.000510021 -0.00420601)
(0.0823964 -0.00730994 -0.00385857)
(0.0947805 0.00931555 -0.00077438)
(0.0776192 0.0101738 0.00309362)
(0.0928525 -0.00685459 0.00178394)
(0.124634 0.0091127 0.00209946)
(0.0701885 0.031265 0.00431538)
(0.0191244 0.0162812 0.00259476)
(0.0115444 -0.0048488 0.000897041)
(0.00835657 -0.00773907 0.000985455)
(0.00699947 -0.00383252 0.000698702)
(0.00535804 -0.00125793 0.00041672)
(0.00402272 -0.000171676 0.000258644)
(0.00300151 0.000180496 0.000167578)
(0.00223469 0.000257841 0.000112942)
(0.00166598 0.000239998 7.86103e-05)
(0.00124397 0.000196708 5.63633e-05)
(0.000928441 0.000153015 4.16109e-05)
(0.000689563 0.000116619 3.17152e-05)
(0.00050496 8.91133e-05 2.50774e-05)
(0.000358133 6.91916e-05 2.07414e-05)
(0.000237026 5.62917e-05 1.80756e-05)
(0.000130762 4.7563e-05 1.59139e-05)
(4.0338e-05 4.34843e-05 1.28317e-05)
(0.102203 0.0330883 0.0019178)
(0.0572018 0.0279888 0.0121008)
(0.0192906 0.00660567 0.00847329)
(0.000948164 -0.0158415 0.00257487)
(-0.0112984 -0.0225203 0.000603465)
(-0.0165559 -0.019404 2.65152e-05)
(-0.0171736 -0.0152377 -0.000128952)
(-0.016417 -0.0109781 -0.000452994)
(-0.0139137 0.000736915 -0.0011821)
(-0.00650265 0.0135354 -0.0021098)
(0.00324938 0.0151279 -0.00324314)
(0.0106849 0.0115422 -0.00400422)
(0.0154742 0.00802509 -0.00436582)
(0.0181078 0.00791107 -0.00484238)
(0.0217429 0.0130082 -0.0055556)
(0.0283512 0.018081 -0.00594702)
(0.0361504 0.0204595 -0.00558611)
(0.0426888 0.020833 -0.00478153)
(0.0470054 0.0204993 -0.00485342)
(0.0510433 0.0217903 -0.00570312)
(0.0593262 0.0191425 -0.00521036)
(0.066818 0.00403051 -0.00271889)
(0.0684983 -0.00909484 0.000299307)
(0.0767262 -0.00878473 0.00348967)
(0.0834103 -0.0166397 0.00390048)
(0.0900621 -0.020742 0.000891058)
(0.0948153 0.0116365 0.00166304)
(0.0823831 0.0455809 0.00226152)
(0.0921702 0.0362169 0.00111602)
(0.0784348 0.0117603 0.00194848)
(0.043231 0.00105286 0.00270319)
(0.0211889 0.0005516 0.00202519)
(0.0110796 0.00115356 0.00101069)
(0.00634463 0.00111741 0.00046405)
(0.00390953 0.000888652 0.000239067)
(0.00257053 0.000663056 0.000138308)
(0.00176729 0.000483273 8.7614e-05)
(0.00125382 0.000350032 5.9392e-05)
(0.00090719 0.000254305 4.24886e-05)
(0.000662234 0.000186429 3.19123e-05)
(0.000480966 0.000139029 2.5136e-05)
(0.000340814 0.000105761 2.08671e-05)
(0.000226499 8.42636e-05 1.81026e-05)
(0.0001273 6.94702e-05 1.52092e-05)
(4.07145e-05 6.34523e-05 1.12105e-05)
(0.00261826 0.0435821 0.0057003)
(-0.00512697 0.0360348 0.00469112)
(-0.00802823 0.0222266 0.00102641)
(-0.013803 0.0113415 -0.00172005)
(-0.0200967 0.00590801 -0.00318847)
(-0.0232412 0.0053785 -0.00403419)
(-0.0234853 0.00787794 -0.00473451)
(-0.0223082 0.0119738 -0.005319)
(-0.0181459 0.0178961 -0.00545162)
(-0.00900482 0.0234074 -0.00530028)
(0.00113891 0.0249787 -0.00530388)
(0.00865369 0.024545 -0.00527667)
(0.0132444 0.0236653 -0.00545181)
(0.016357 0.024132 -0.00582638)
(0.0207208 0.0268705 -0.00588788)
(0.0264395 0.0303346 -0.00483701)
(0.0306233 0.0325988 -0.00358128)
(0.0344658 0.0313672 -0.00402532)
(0.0429891 0.0265131 -0.00426743)
(0.0544536 0.0209517 -0.00292068)
(0.0676955 0.0119904 -0.000808935)
(0.0714418 -0.0035091 0.00232693)
(0.0594728 -0.0169411 0.00493814)
(0.0489376 -0.0193095 0.004233)
(0.0478073 -0.01599 -0.000776287)
(0.0522323 -0.00859772 -0.00497439)
(0.0623446 0.0107924 -0.00313285)
(0.0742064 0.0227738 0.00139292)
(0.0707379 0.0200458 0.00411407)
(0.0435054 0.020644 0.00414024)
(0.0209073 0.0164757 0.00257979)
(0.0104388 0.009134 0.00119246)
(0.00592801 0.0048045 0.000530318)
(0.00377313 0.00268638 0.000271809)
(0.00259921 0.00162406 0.0001599)
(0.00187408 0.00104048 0.000103747)
(0.00138647 0.000695705 7.17903e-05)
(0.00103941 0.000479417 5.19428e-05)
(0.000782507 0.000337964 3.89019e-05)
(0.000587023 0.000242976 3.01311e-05)
(0.000433458 0.000178923 2.41889e-05)
(0.00030976 0.000135824 2.02685e-05)
(0.000205061 0.000110573 1.76015e-05)
(0.000112751 9.99762e-05 1.4375e-05)
(3.64117e-05 0.000109005 8.938e-06)
(-0.00761568 0.0175435 0.00228778)
(-0.00442481 0.0109578 0.00134512)
(-0.00508286 0.00578768 0.000588758)
(-0.00808042 0.00445366 -0.000202225)
(-0.0110834 0.00602116 -0.00120246)
(-0.0122838 0.00952649 -0.00219002)
(-0.0114646 0.0142154 -0.00308993)
(-0.00816924 0.0204762 -0.00377659)
(-0.00211756 0.0261189 -0.0040358)
(0.00481451 0.0289682 -0.00391043)
(0.0107271 0.029991 -0.00359861)
(0.0151519 0.0303283 -0.00340869)
(0.0187008 0.03156 -0.00319886)
(0.0228755 0.0339205 -0.00240589)
(0.028539 0.0350345 -0.00186106)
(0.0373916 0.0329671 -0.00419461)
(0.0534434 0.0262102 -0.00625769)
(0.0566971 0.0115906 0.000617841)
(0.0311533 -0.00203025 0.0101543)
(0.00963201 -0.00631011 0.00932815)
(0.00250569 -0.00682485 0.00292165)
(0.00241333 -0.00757789 -0.00169152)
(0.00584381 -0.00851847 -0.00313323)
(0.0109186 -0.00789977 -0.00336688)
(0.0159975 -0.00185443 -0.00315392)
(0.021634 0.0132089 -0.00114974)
(0.0227715 0.026305 0.0013738)
(0.0157798 0.0283167 0.00219141)
(0.00979332 0.0211334 0.00203107)
(0.0081008 0.0117744 0.00143112)
(0.00647745 0.0062302 0.000797744)
(0.00471855 0.00359631 0.000445007)
(0.00337081 0.0022693 0.000258171)
(0.00240021 0.00151336 0.000159104)
(0.00172716 0.00104322 0.000103307)
(0.00126 0.000733935 7.03809e-05)
(0.000931221 0.000523411 5.00817e-05)
(0.000694356 0.00037737 3.70755e-05)
(0.000519264 0.000274884 2.85784e-05)
(0.000384727 0.000203358 2.2906e-05)
(0.000279348 0.000153731 1.90182e-05)
(0.000193937 0.000124051 1.61829e-05)
(0.000127034 0.000106072 1.27167e-05)
(9.65645e-05 0.000115071 9.60618e-06)
(-0.0194411 0.0125357 0.00117006)
(-0.0134526 0.0108546 0.000737433)
(-0.0095377 0.0102344 0.000471102)
(-0.00698712 0.0114011 0.000363975)
(-0.00515599 0.0140016 0.000195156)
(-0.00307061 0.0175354 -8.51758e-05)
(-0.000103695 0.0215789 -0.000472486)
(0.00459842 0.0257297 -0.000787492)
(0.0111926 0.0291951 -0.000932509)
(0.0187053 0.0311137 -0.000786428)
(0.0259548 0.0317439 -0.000404742)
(0.0320363 0.0317708 2.75494e-06)
(0.0366725 0.0319523 2.34008e-05)
(0.0416556 0.0318267 -0.00093143)
(0.0478257 0.0286063 -0.0017599)
(0.0489299 0.020483 0.00134923)
(0.0355541 0.0130456 0.00729282)
(0.0158728 0.0103276 0.00766973)
(0.00479499 0.00707938 0.00316541)
(0.000475128 0.000967384 0.000716583)
(-0.00162751 -0.00496027 0.0003571)
(-0.003409 -0.00826321 0.000215717)
(-0.00504724 -0.0079247 -0.000184826)
(-0.00627091 -0.00506267 -0.000595433)
(-0.00694766 0.000816288 -0.000645538)
(-0.00569096 0.0103502 0.000119928)
(-0.00282143 0.0167618 0.00107687)
(0.000464738 0.0166589 0.00142805)
(0.00293843 0.0135019 0.00120206)
(0.0036015 0.00943692 0.000749779)
(0.0031425 0.00617061 0.000433066)
(0.00249443 0.0040248 0.000259782)
(0.00194134 0.00263814 0.000164651)
(0.00150807 0.00175388 0.000111058)
(0.0011759 0.00118585 7.84544e-05)
(0.000919295 0.000815376 5.74742e-05)
(0.000718444 0.000569667 4.33318e-05)
(0.000558641 0.000404176 3.34453e-05)
(0.000430237 0.000291407 2.65175e-05)
(0.000324252 0.000214124 2.15955e-05)
(0.000238117 0.000160177 1.81409e-05)
(0.000161706 0.000124703 1.5528e-05)
(0.000105507 9.33592e-05 1.24017e-05)
(6.67269e-05 8.2597e-05 1.06129e-05)
(-0.0398188 0.00137515 1.36583e-05)
(-0.0340386 0.00101723 -0.000109314)
(-0.0289646 0.000306812 -0.000148592)
(-0.0239537 0.000273648 -0.000163541)
(-0.0189109 0.0015985 -3.27925e-05)
(-0.0136878 0.00420182 0.000183874)
(-0.00823769 0.00765982 0.000371725)
(-0.00239934 0.0115382 0.000538211)
(0.00379094 0.0152137 0.000735384)
(0.0104924 0.0178146 0.000899617)
(0.0173175 0.019126 0.00107686)
(0.0233288 0.019566 0.00126909)
(0.0276873 0.0198439 0.00154561)
(0.0293264 0.0198986 0.00216899)
(0.0275108 0.0186113 0.00361345)
(0.0209301 0.0157677 0.00548271)
(0.0110278 0.0129979 0.00587147)
(0.00299802 0.00983331 0.00415562)
(-0.000118888 0.00466605 0.00232035)
(-0.000464558 -0.000259589 0.00132951)
(-0.000973935 -0.00275999 0.000760021)
(-0.00260953 -0.00376917 0.000214937)
(-0.00493976 -0.00423794 -0.000130728)
(-0.00715423 -0.00390433 -0.000224728)
(-0.00902623 -0.00226746 -0.000202506)
(-0.0101528 0.00135204 -4.96329e-05)
(-0.0091975 0.00672382 0.000322036)
(-0.0061224 0.0104319 0.000680711)
(-0.00264481 0.0105631 0.000754898)
(-9.56258e-05 0.00851057 0.00062055)
(0.00118207 0.00612291 0.000434367)
(0.00153339 0.00425915 0.000294611)
(0.00149594 0.00295612 0.000200546)
(0.00130591 0.00206631 0.000138278)
(0.00108392 0.00145773 9.73671e-05)
(0.000878456 0.00103711 7.01124e-05)
(0.000703512 0.000742914 5.18591e-05)
(0.000560111 0.000535158 3.93988e-05)
(0.000443301 0.000387568 3.07533e-05)
(0.000347805 0.000282937 2.47443e-05)
(0.000266304 0.000209119 2.04031e-05)
(0.000198561 0.000157036 1.72972e-05)
(0.000133414 0.00012231 1.49916e-05)
(8.89201e-05 9.11385e-05 1.19699e-05)
(3.07822e-05 7.95377e-05 1.09066e-05)
(-0.0426387 0.00436101 -0.000444189)
(-0.0393693 0.00399814 -0.00029928)
(-0.0361004 0.00350712 -0.000244505)
(-0.0333968 0.0031137 -0.000100714)
(-0.0305662 0.00325822 0.000108203)
(-0.0273856 0.00401483 0.000372208)
(-0.0236715 0.00531165 0.000690485)
(-0.01945 0.00693878 0.00107752)
(-0.0149962 0.00853565 0.00144955)
(-0.0105575 0.00976421 0.00177505)
(-0.00665493 0.0106162 0.00207289)
(-0.00374709 0.0112515 0.00238146)
(-0.002047 0.0119129 0.00278841)
(-0.00173011 0.01241 0.00325087)
(-0.0025629 0.0122044 0.00344283)
(-0.00380416 0.0107723 0.00300987)
(-0.00424439 0.00817841 0.0021699)
(-0.00375042 0.00545198 0.00132696)
(-0.00327878 0.00332942 0.000673527)
(-0.00345628 0.00137711 0.000215299)
(-0.00397606 -0.000527787 -2.13314e-05)
(-0.0045804 -0.00201366 -8.29718e-05)
(-0.00544038 -0.00263589 -9.78049e-05)
(-0.00652884 -0.00224046 -8.37372e-05)
(-0.0075996 -0.000955279 -3.31488e-05)
(-0.00817216 0.00131755 7.54805e-05)
(-0.00739647 0.00415854 0.000244364)
(-0.00532678 0.00608389 0.000370862)
(-0.00303659 0.00646918 0.00037853)
(-0.00127716 0.00578407 0.000314483)
(-0.000216994 0.00460983 0.000238925)
(0.000309052 0.00348595 0.000176343)
(0.000530613 0.00255553 0.00013026)
(0.000596702 0.0018419 9.7243e-05)
(0.000582633 0.00131728 7.37744e-05)
(0.000532201 0.000940019 5.68445e-05)
(0.000466846 0.000672214 4.43992e-05)
(0.000397959 0.000483313 3.51265e-05)
(0.000331086 0.000350263 2.82195e-05)
(0.000269199 0.000256462 2.32008e-05)
(0.000210598 0.000190001 1.9455e-05)
(0.000159704 0.000144362 1.6865e-05)
(0.000102097 0.000111239 1.48122e-05)
(6.68735e-05 9.31515e-05 1.17396e-05)
(-3.71601e-07 6.76342e-05 1.09264e-05)
(-0.0425417 -0.00101368 -0.000551139)
(-0.0393941 -0.000916382 -0.000523353)
(-0.0365417 -0.00106256 -0.000480102)
(-0.0340333 -0.00108608 -0.00042032)
(-0.0317278 -0.000801477 -0.000324124)
(-0.0294986 -0.000151279 -0.000183584)
(-0.02721 0.000780853 -2.99581e-06)
(-0.024782 0.00187458 0.000214094)
(-0.022236 0.00291428 0.000431809)
(-0.0196584 0.00373522 0.000629969)
(-0.0172073 0.00432905 0.00080967)
(-0.0149962 0.00476836 0.000972893)
(-0.0130213 0.00516265 0.00112563)
(-0.0112119 0.00537814 0.00120747)
(-0.00948589 0.00513517 0.00113048)
(-0.00785043 0.00436585 0.000898493)
(-0.00641917 0.00331739 0.000606942)
(-0.00530257 0.0020689 0.000363522)
(-0.0045074 0.000729673 0.000203793)
(-0.00405554 -0.000420877 9.53487e-05)
(-0.00404649 -0.00115572 1.48527e-05)
(-0.00446767 -0.00155611 -5.16474e-05)
(-0.00512043 -0.00163994 -7.38646e-05)
(-0.00579149 -0.00129215 -5.9194e-05)
(-0.006339 -0.000450907 -1.56237e-05)
(-0.00648798 0.00090572 5.61048e-05)
(-0.00587758 0.00249134 0.000139975)
(-0.00458073 0.00357182 0.00019832)
(-0.00309226 0.00387412 0.000209785)
(-0.00181936 0.0035721 0.000191556)
(-0.000907111 0.00298199 0.000160626)
(-0.000327724 0.00235228 0.000128965)
(8.66772e-06 0.00179933 0.000101432)
(0.000187 0.00134924 7.93664e-05)
(0.000269626 0.00100036 6.22256e-05)
(0.000296318 0.000735627 4.92375e-05)
(-0.0425171 0.00265886 -0.00075868)
(-0.0397527 0.00247965 -0.000683182)
(-0.0369922 0.00240081 -0.000646792)
(-0.034597 0.00220809 -0.000591569)
(-0.032292 0.00213104 -0.000529142)
(-0.030063 0.00217015 -0.000450515)
(-0.0277929 0.00235263 -0.000354379)
(-0.0254521 0.00263631 -0.000245638)
(-0.0230569 0.00295602 -0.000135886)
(-0.020676 0.0032425 -3.07626e-05)
(-0.0183853 0.00346807 6.62991e-05)
(-0.0162264 0.00363839 0.000153651)
(-0.014187 0.00377239 0.000222385)
(-0.0122341 0.00380824 0.000257913)
(-0.010385 0.00364276 0.000240356)
(-0.00871991 0.00322606 0.000180751)
(-0.00732397 0.00262128 0.000108668)
(-0.00624622 0.0019294 4.02533e-05)
(-0.00551555 0.00121306 -2.11957e-05)
(-0.00513022 0.000492139 -6.29079e-05)
(-0.00499932 -0.000160452 -8.28498e-05)
(-0.00504836 -0.000615126 -8.50927e-05)
(-0.00525038 -0.000767771 -7.7017e-05)
(-0.00550613 -0.000594755 -5.57416e-05)
(-0.00566827 -0.000111964 -2.09352e-05)
(-0.00556378 0.000658338 2.45225e-05)
(-0.00502782 0.00151736 7.2943e-05)
(-0.00410735 0.00214207 0.000107179)
(-0.00305234 0.00237301 0.000119984)
(-0.00208693 0.00226891 0.000116873)
(-0.00131714 0.00196904 0.000104961)
(-0.000756017 0.0016047 9.01056e-05)
(-0.000372478 0.00125439 7.5525e-05)
(-0.00012277 0.000954053 6.2602e-05)
(2.98508e-05 0.000712982 5.15708e-05)
(-0.0421312 -0.000617146 -0.000529719)
(-0.0396128 -0.000647658 -0.000461199)
(-0.0367689 -0.000604824 -0.000444433)
(-0.0342894 -0.000580402 -0.000414977)
(-0.0318543 -0.000463449 -0.00039005)
(-0.0295317 -0.000263627 -0.000359683)
(-0.0272384 1.2844e-06 -0.00032291)
(-0.0249587 0.000289695 -0.000278928)
(-0.0226827 0.000552719 -0.000230436)
(-0.0204294 0.000760638 -0.000179712)
(-0.0182361 0.000910071 -0.000128158)
(-0.0161364 0.00101592 -7.81311e-05)
(-0.0141459 0.00108885 -3.3283e-05)
(-0.0122685 0.00110955 3.24924e-07)
(-0.0105289 0.00103727 1.59635e-05)
(-0.00897461 0.000856957 1.44386e-05)
(-0.00765037 0.000587855 1.77641e-06)
(-0.00658715 0.000268688 -1.42243e-05)
(-0.0057992 -6.09635e-05 -3.07075e-05)
(-0.00528372 -0.000344337 -4.6384e-05)
(-0.00503241 -0.000534159 -5.88917e-05)
(-0.00499834 -0.000635853 -6.46348e-05)
(-0.00508233 -0.000630285 -6.03565e-05)
(-0.00518046 -0.000482952 -4.6307e-05)
(-0.00518962 -0.000188762 -2.35876e-05)
(-0.0049975 0.000228928 5.38659e-06)
(-0.00452308 0.000678122 3.56066e-05)
(-0.00380353 0.0010137 5.87904e-05)
(-0.00297709 0.0011634 7.14584e-05)
(-0.00218288 0.00114668 7.45769e-05)
(-0.0015046 0.00102436 7.12862e-05)
(-0.000970539 0.00085667 6.44396e-05)
(-0.000576709 0.000685453 5.63426e-05)
(-0.000300305 0.000531328 4.83772e-05)
(-0.00011488 0.000402287 4.11514e-05)
(-0.0416147 0.00132408 -0.000616225)
(-0.039207 0.00128795 -0.000533994)
(-0.0364229 0.00120938 -0.0005275)
(-0.0339963 0.00110104 -0.000503389)
(-0.0315767 0.000996833 -0.000483743)
(-0.0292563 0.000903765 -0.000459638)
(-0.0269514 0.000838353 -0.000430683)
(-0.0246596 0.000800973 -0.000397059)
(-0.022381 0.000789755 -0.000359544)
(-0.0201423 0.000793264 -0.000319611)
(-0.0179759 0.000800962 -0.00027829)
(-0.0159076 0.000806972 -0.000237282)
(-0.0139541 0.000809461 -0.000198861)
(-0.0121293 0.000801227 -0.000165988)
(-0.0104568 0.000768682 -0.000141419)
(-0.00897122 0.000705734 -0.000125755)
(-0.00770956 0.000612916 -0.0001175)
(-0.00669904 0.000493208 -0.000114424)
(-0.00595045 0.00035287 -0.00011463)
(-0.00545459 0.000200285 -0.000114954)
(-0.00517587 4.95982e-05 -0.000114321)
(-0.00506353 -6.08456e-05 -0.000110932)
(-0.00505296 -0.000113091 -0.000103371)
(-0.0050574 -0.000106913 -9.01267e-05)
(-0.00498223 -4.35259e-05 -7.07546e-05)
(-0.00474269 6.74101e-05 -4.69024e-05)
(-0.00428711 0.000193758 -2.12125e-05)
(-0.00364506 0.000293531 1.63311e-06)
(-0.00291504 0.000342846 1.83505e-05)
(-0.0022004 0.000343214 2.86256e-05)
(-0.00157102 0.000310374 3.35714e-05)
(-0.00105742 0.000261364 3.46257e-05)
(-0.000664324 0.000209643 3.3285e-05)
(-0.000378632 0.000162703 3.06845e-05)
(-0.000180796 0.000123368 2.75503e-05)
(0.162367 0.0254816 -0.00784758)
(0.142402 -0.00904548 0.00976073)
(0.142457 -0.0236766 0.00547665)
(0.149048 -0.0221647 0.00604486)
(0.139931 -0.0186786 0.0196787)
(0.139196 -0.0252063 0.0114897)
(0.179634 -0.0270953 -0.0138249)
(0.211428 -0.00562119 -0.00580284)
(0.157131 0.0235691 0.0225862)
(0.0802482 0.0199422 0.0278868)
(0.0526237 4.56338e-05 0.0154906)
(0.0431115 -0.0120056 0.0108204)
(0.037723 -0.0119528 0.0093987)
(0.0349901 -0.00180729 0.00107769)
(0.0358095 0.00626426 -0.00870398)
(0.0401595 0.00685903 -0.0119434)
(0.0439414 0.0047165 -0.0118592)
(0.0473815 0.00283871 -0.0104136)
(0.0525891 0.00098637 -0.00789496)
(0.0598876 -0.00228635 -0.00724653)
(0.0691507 -0.00564637 -0.00916849)
(0.0792921 -0.00666425 -0.00702643)
(0.0830342 -0.00804266 0.00117194)
(0.0874671 -0.000866671 0.000598361)
(0.101549 0.00580235 -0.00961961)
(0.104745 -0.00602991 -0.00580775)
(0.0748617 -0.0082575 0.0123041)
(0.0322944 0.00710681 0.0184238)
(0.017079 0.00784056 0.0108832)
(0.0125645 0.00425836 0.0052314)
(0.00940165 0.00251597 0.00273204)
(0.00680788 0.00145252 0.00152416)
(0.00486767 0.000821517 0.000894845)
(0.00347894 0.000468709 0.000552872)
(0.00250453 0.000272263 0.000357212)
(0.00181936 0.000162602 0.000240346)
(0.00133247 0.000100836 0.000167865)
(0.000980739 6.54776e-05 0.000121464)
(0.000721404 4.47473e-05 9.10574e-05)
(0.000525098 3.22792e-05 7.08311e-05)
(0.000371471 2.43965e-05 5.74848e-05)
(0.00024659 1.92688e-05 4.89742e-05)
(0.000138766 1.51406e-05 4.38054e-05)
(4.50712e-05 1.13358e-05 3.99285e-05)
(0.0858921 0.0249765 0.0278974)
(0.0425589 0.00599376 0.0360941)
(0.02424 -0.00634716 0.0170233)
(0.0165636 -0.010019 0.00683044)
(0.0170748 -0.00579523 0.00449505)
(0.0215313 -0.00117852 -0.0020585)
(0.0220075 0.00471587 -0.00974092)
(0.0180615 0.0202698 -0.00654824)
(0.0135933 0.0307709 0.00290155)
(0.0156177 0.023808 0.00141682)
(0.0152668 0.0124003 -0.00457412)
(0.0122673 0.00494766 -0.00694978)
(0.00944824 0.00180032 -0.00789487)
(0.0105379 0.00429296 -0.010314)
(0.017315 0.00758939 -0.0121325)
(0.0251889 0.00747655 -0.0116526)
(0.0315265 0.00524313 -0.0107581)
(0.0375294 0.00239633 -0.0095388)
(0.0442305 -5.25648e-05 -0.00793704)
(0.0512183 -0.00475329 -0.00614649)
(0.0580736 -0.0139571 -0.00493358)
(0.0688039 -0.0159697 -0.00291013)
(0.0767884 -0.00601896 0.00343044)
(0.0761064 -0.00650303 0.00526242)
(0.0965879 -0.00995364 -0.000687099)
(0.106623 0.0112693 0.00530145)
(0.0530768 0.0299129 0.0139224)
(0.0179464 0.0133734 0.00827091)
(0.0113885 -0.00516415 0.00331561)
(0.00826471 -0.00700709 0.00301841)
(0.00698446 -0.00332464 0.00197727)
(0.00536746 -0.0010404 0.00119237)
(0.00404136 -9.39796e-05 0.000747856)
(0.00302095 0.00020799 0.000486623)
(0.00225306 0.000267311 0.000328591)
(0.00168246 0.000242769 0.000229015)
(0.00125838 0.000196816 0.000164434)
(0.000940773 0.000151995 0.000121598)
(0.000699876 0.000115111 9.28243e-05)
(0.000513436 8.73766e-05 7.34551e-05)
(0.000365125 6.7487e-05 6.06049e-05)
(0.000243102 5.47626e-05 5.23657e-05)
(0.000137472 4.64363e-05 4.58728e-05)
(4.51248e-05 4.28716e-05 3.76697e-05)
(0.0309067 0.0138225 0.0234649)
(0.0125748 0.0109019 0.0264775)
(0.00376161 -0.000628954 0.0146349)
(-0.00429472 -0.0151916 0.00504011)
(-0.0115142 -0.0198702 0.001039)
(-0.0145979 -0.0174416 -0.000400839)
(-0.0144501 -0.0127612 -0.000976437)
(-0.0137308 -0.00655027 -0.00115579)
(-0.0117729 0.0050429 -0.00157033)
(-0.00568092 0.01501 -0.00289694)
(0.00132132 0.014171 -0.00547717)
(0.0056045 0.009826 -0.00750342)
(0.00836022 0.00604097 -0.00852549)
(0.00994473 0.005161 -0.00964348)
(0.0127137 0.00841978 -0.0109469)
(0.0176753 0.0107126 -0.011252)
(0.0230028 0.00993812 -0.0105834)
(0.0281199 0.00739966 -0.00940314)
(0.0339553 0.00366682 -0.00743731)
(0.0407859 -0.0011773 -0.00490275)
(0.0474139 -0.00807289 -0.00192971)
(0.0502498 -0.0175764 5.81282e-05)
(0.0527321 -0.0236918 0.00110955)
(0.0624001 -0.0221355 0.0042384)
(0.0714192 -0.0189645 0.00227288)
(0.0791531 -0.00912964 -0.00345805)
(0.0818174 0.0198978 0.000966671)
(0.0772061 0.040795 0.00351913)
(0.0880649 0.0275284 0.00193886)
(0.070236 0.00730614 0.00768948)
(0.0363206 0.000301334 0.00994789)
(0.018189 0.000750078 0.0059086)
(0.0100957 0.00124869 0.00267157)
(0.00603079 0.00114487 0.00125358)
(0.0038095 0.000898315 0.00066512)
(0.00254256 0.000667205 0.000392044)
(0.00176526 0.000485219 0.000251185)
(0.00126076 0.000350803 0.000171536)
(0.000916594 0.000254311 0.000123365)
(0.000671483 0.000185929 9.29782e-05)
(0.00048926 0.000138148 7.33542e-05)
(0.000348133 0.000104862 6.06608e-05)
(0.000233502 8.35433e-05 5.21744e-05)
(0.000135354 6.95247e-05 4.40448e-05)
(4.63676e-05 6.37087e-05 3.37172e-05)
(-0.0237894 0.0258444 0.0092325)
(-0.0194769 0.0210927 0.00659445)
(-0.0165183 0.0108676 0.0012936)
(-0.0183279 0.00247187 -0.00313575)
(-0.0218295 -0.00127832 -0.00545028)
(-0.0238532 -0.000702643 -0.00690895)
(-0.0240094 0.00245517 -0.00812333)
(-0.0231111 0.00703536 -0.00904262)
(-0.0195272 0.0129707 -0.00913588)
(-0.0117404 0.0175137 -0.00888821)
(-0.00316102 0.01767 -0.0090881)
(0.00353439 0.0159977 -0.00905538)
(0.00802354 0.013912 -0.00897081)
(0.0108761 0.0128469 -0.00913628)
(0.0143434 0.0133694 -0.00929395)
(0.0195912 0.0139174 -0.00858929)
(0.0261615 0.0126269 -0.00717786)
(0.0325405 0.00750298 -0.00456525)
(0.0367025 -0.00273342 0.000179014)
(0.0392639 -0.0127395 0.00427991)
(0.0399641 -0.0162784 0.00604802)
(0.0368818 -0.0171768 0.00633001)
(0.0338189 -0.017311 0.00421894)
(0.0365082 -0.013797 0.000115885)
(0.042478 -0.00868008 -0.00628142)
(0.0473915 2.69817e-05 -0.0108877)
(0.0538974 0.0158847 -0.00642488)
(0.0637531 0.0220931 0.00330547)
(0.0590122 0.0188469 0.011204)
(0.0347531 0.0194316 0.0119932)
(0.0172932 0.0149706 0.00694779)
(0.00942365 0.00834068 0.00308474)
(0.00568876 0.00453591 0.00143529)
(0.00372798 0.00260435 0.000764919)
(0.00260053 0.0016 0.000459254)
(0.00188635 0.0010348 0.000300563)
(0.0014003 0.000695409 0.000208729)
(0.00105241 0.000480285 0.000151309)
(0.000794088 0.00033869 0.000113531)
(0.000596998 0.000243272 8.80632e-05)
(0.000442114 0.000178711 7.07217e-05)
(0.00031753 0.000135409 5.90055e-05)
(0.000213001 0.000109689 5.07828e-05)
(0.000122317 9.88346e-05 4.1957e-05)
(4.30381e-05 0.000108065 2.99998e-05)
(-0.0195509 0.00726542 0.00417729)
(-0.0156488 0.00221237 0.00245914)
(-0.0147603 -0.00220921 0.00101672)
(-0.0153962 -0.00384538 -0.000381875)
(-0.0158557 -0.00305133 -0.00193426)
(-0.0150137 -0.000442728 -0.00345118)
(-0.0128018 0.0033083 -0.00479181)
(-0.00878776 0.00831163 -0.00570871)
(-0.002483 0.0123488 -0.00605576)
(0.00483299 0.0138475 -0.00598394)
(0.0117534 0.0138611 -0.00551825)
(0.0176032 0.0131729 -0.00504125)
(0.0220648 0.0127432 -0.00486805)
(0.0266184 0.0125744 -0.0047687)
(0.0329021 0.0101453 -0.00383609)
(0.0371579 0.00324339 -0.000410538)
(0.0304438 -0.00491174 0.00812243)
(0.0130614 -0.00912474 0.0171209)
(0.000418197 -0.0090251 0.016684)
(0.000311221 -0.00804637 0.00831099)
(0.00213468 -0.00866566 0.000454207)
(0.00309081 -0.0100278 -0.00413256)
(0.00539941 -0.0102419 -0.00601569)
(0.00900048 -0.00772623 -0.00685972)
(0.0122394 2.7641e-05 -0.0062189)
(0.0158434 0.014248 -0.00142632)
(0.0163912 0.0249928 0.00455437)
(0.0110062 0.0258471 0.00673003)
(0.00758385 0.0189468 0.00577775)
(0.00723189 0.0107831 0.00378988)
(0.00605634 0.0059751 0.00213521)
(0.0045231 0.00355554 0.00122211)
(0.00328403 0.00227228 0.000723086)
(0.00236781 0.0015229 0.000451487)
(0.0017198 0.00105139 0.000296008)
(0.00126389 0.000739713 0.000203125)
(0.000939542 0.000527182 0.000145356)
(0.000703848 0.000379631 0.000108142)
(0.000528219 0.000276096 8.36482e-05)
(0.000392726 0.000203759 6.72029e-05)
(0.000285965 0.000153807 5.57031e-05)
(0.00019963 0.000123253 4.71973e-05)
(0.00013193 0.000105372 3.72158e-05)
(9.80311e-05 0.000110221 2.95911e-05)
(-0.0312667 0.00768384 0.00134136)
(-0.0261596 0.00559689 0.000482172)
(-0.0225635 0.0040735 -0.000113935)
(-0.0195607 0.00373884 -0.000337158)
(-0.0165152 0.00460386 -0.000387646)
(-0.0128887 0.00633901 -0.000493926)
(-0.00853585 0.00844375 -0.000656958)
(-0.00297055 0.0106027 -0.000709297)
(0.00398195 0.0122146 -0.000642105)
(0.011473 0.0127886 -0.000399592)
(0.018568 0.0126622 0.000127981)
(0.0246238 0.0119848 0.000912826)
(0.0288778 0.0105547 0.00195188)
(0.0305284 0.00776803 0.00406242)
(0.0267609 0.00378055 0.00852785)
(0.0169047 0.0010845 0.0136385)
(0.00724476 0.00155652 0.014181)
(0.00308974 0.00303389 0.00860501)
(0.000819411 0.00125343 0.00293168)
(-0.00145512 -0.00312467 0.000653458)
(-0.00311824 -0.00687633 0.000175281)
(-0.00485653 -0.008598 -0.000338311)
(-0.00654602 -0.00767182 -0.0011406)
(-0.0078669 -0.00460739 -0.0016883)
(-0.00868621 0.0013286 -0.00118101)
(-0.0075508 0.0101267 0.00113862)
(-0.00437067 0.0154961 0.00353295)
(-0.000458087 0.0152602 0.00404255)
(0.00243447 0.0125849 0.00316207)
(0.00333043 0.00897454 0.00200035)
(0.00302637 0.00597446 0.00119473)
(0.00245566 0.00394388 0.00073503)
(0.00193486 0.00260928 0.000473858)
(0.00151407 0.00174625 0.000321754)
(0.00118583 0.00118627 0.000228095)
(0.000930187 0.000818241 0.000167371)
(0.000729095 0.000572707 0.000126353)
(0.000568552 0.000406594 9.77509e-05)
(0.000438961 0.000293042 7.76446e-05)
(0.000332004 0.000215045 6.33818e-05)
(0.000244355 0.000160743 5.31257e-05)
(0.000167702 0.00012482 4.53167e-05)
(0.000110199 9.44332e-05 3.60983e-05)
(6.9803e-05 8.18331e-05 3.03162e-05)
(-0.0432903 0.00102345 -0.000774612)
(-0.0389261 0.000262051 -0.000913324)
(-0.0353069 -0.00112629 -0.00103817)
(-0.0321543 -0.0022524 -0.00108308)
(-0.0290237 -0.00250996 -0.00086864)
(-0.0255238 -0.0017941 -0.000471479)
(-0.02152 -0.000383432 4.57175e-05)
(-0.0170358 0.00134017 0.000672017)
(-0.0121818 0.00305178 0.00140364)
(-0.0070709 0.0041605 0.00209086)
(-0.00214741 0.00460926 0.00284605)
(0.00188091 0.00467489 0.00379899)
(0.00440292 0.00465007 0.00519558)
(0.00469751 0.00456658 0.00720291)
(0.00285439 0.00444659 0.00924785)
(1.78601e-05 0.00459648 0.00972439)
(-0.00199219 0.00500773 0.0077357)
(-0.00256881 0.00434953 0.00492004)
(-0.00203599 0.00162596 0.00302235)
(-0.0013706 -0.00122561 0.00181191)
(-0.00163354 -0.00276939 0.000766071)
(-0.00308463 -0.00366025 -0.000108402)
(-0.00519622 -0.00417192 -0.000590823)
(-0.00729738 -0.00382027 -0.000685248)
(-0.00916076 -0.00216766 -0.000522083)
(-0.0102764 0.00136393 8.89318e-06)
(-0.00928474 0.00638739 0.00103068)
(-0.00620399 0.00979675 0.00187884)
(-0.00276271 0.0100166 0.00198774)
(-0.000223215 0.00822145 0.00165732)
(0.00107849 0.00601645 0.00119132)
(0.0014677 0.00423519 0.000823234)
(0.00146022 0.00296094 0.000567248)
(0.00129017 0.00207843 0.000394568)
(0.00108044 0.00146924 0.000279664)
(0.00088196 0.00104622 0.000202479)
(0.000710652 0.000749631 0.00015038)
(0.00056865 0.000539912 0.000114653)
(0.000451965 0.000390831 8.97926e-05)
(0.000355675 0.000285083 7.23809e-05)
(0.000273382 0.000210471 5.98377e-05)
(0.000204154 0.00015798 5.06284e-05)
(0.000138916 0.000122774 4.36809e-05)
(9.23433e-05 9.27349e-05 3.47582e-05)
(3.5886e-05 7.91308e-05 3.04379e-05)
(-0.0441296 0.00355123 -0.00175053)
(-0.0406858 0.00335559 -0.00161652)
(-0.0376485 0.00292941 -0.00163351)
(-0.0352876 0.00249901 -0.0015584)
(-0.0331715 0.00234216 -0.00136345)