/*--------------------------------*- C++ -*----------------------------------*\
| =========                 |                                                 |
| \\      /  F ield         | OpenFOAM: The Open Source CFD Toolbox           |
|  \\    /   O peration     | Version:  2.3.1                                 |
|   \\  /    A nd           | Web:      www.OpenFOAM.org                      |
|    \\/     M anipulation  |                                                 |
\*---------------------------------------------------------------------------*/
FoamFile
{
    version     2.0;
    format      ascii;
    class       volScalarField;
    location    "5";
    object      epsilon;
}
// * * * * * * * * * * * * * * * * * * * * * * * * * * * * * * * * * * * * * //

dimensions      [0 2 -3 0 0 0 0];

internalField   nonuniform List<scalar> 
37784
(
2.48832e-06
2.48699e-06
2.48574e-06
2.48453e-06
2.48304e-06
2.4788e-06
2.45458e-06
2.33156e-06
1.86494e-06
2.45099e-06
2.44956e-06
2.44823e-06
2.44698e-06
2.44576e-06
2.44433e-06
2.44042e-06
2.4176e-06
2.2989e-06
1.86246e-06
2.27613e-06
2.2747e-06
2.27336e-06
2.2721e-06
2.2709e-06
2.26966e-06
2.26749e-06
2.25607e-06
2.18822e-06
1.85039e-06
1.76017e-06
1.75906e-06
1.75803e-06
1.75706e-06
1.75615e-06
1.75528e-06
1.75442e-06
1.75337e-06
1.75926e-06
1.81662e-06
1.32334e-06
1.32302e-06
1.32274e-06
1.32252e-06
1.32255e-06
1.32435e-06
1.33702e-06
1.4055e-06
1.79426e-06
1.34396e-06
1.34364e-06
1.34335e-06
1.34308e-06
1.34286e-06
1.34286e-06
1.3444e-06
1.35589e-06
1.41868e-06
1.7302e-06
1.42234e-06
1.42207e-06
1.42182e-06
1.4216e-06
1.4214e-06
1.42128e-06
1.42174e-06
1.42703e-06
1.46521e-06
1.70565e-06
1.73073e-06
1.73026e-06
1.72982e-06
1.7294e-06
1.729e-06
1.72859e-06
1.72799e-06
1.72551e-06
1.71296e-06
1.65562e-06
9.34933e-07
9.34807e-07
9.34702e-07
9.34689e-07
9.35328e-07
9.40335e-07
9.69674e-07
1.11746e-06
2.02595e-06
9.82322e-07
9.82198e-07
9.82084e-07
9.81987e-07
9.81964e-07
9.82492e-07
9.8696e-07
1.01443e-06
1.15348e-06
1.89829e-06
1.16274e-06
1.16263e-06
1.16252e-06
1.16243e-06
1.16236e-06
1.1625e-06
1.16437e-06
1.17903e-06
1.26968e-06
1.85036e-06
1.952e-06
1.95142e-06
1.95088e-06
1.95039e-06
1.94991e-06
1.9494e-06
1.94825e-06
1.9419e-06
1.90693e-06
1.76565e-06
7.44291e-07
7.4422e-07
7.44174e-07
7.44275e-07
7.45421e-07
7.52963e-07
7.92912e-07
9.82945e-07
2.13403e-06
8.0871e-07
8.0864e-07
8.08576e-07
8.08531e-07
8.08604e-07
8.09573e-07
8.16393e-07
8.54298e-07
1.03441e-06
1.96334e-06
1.04294e-06
1.04286e-06
1.04279e-06
1.04272e-06
1.0427e-06
1.04303e-06
1.04616e-06
1.06757e-06
1.18754e-06
1.89547e-06
2.03384e-06
2.03323e-06
2.03267e-06
2.03215e-06
2.03166e-06
2.03105e-06
2.02928e-06
2.01881e-06
1.96499e-06
1.7848e-06
6.43632e-07
6.4359e-07
6.43578e-07
6.43773e-07
6.4537e-07
6.54944e-07
7.0224e-07
9.17282e-07
2.18423e-06
7.19702e-07
7.1966e-07
7.19621e-07
7.19605e-07
7.19755e-07
7.21108e-07
7.298e-07
7.74934e-07
9.79371e-07
1.99042e-06
9.85597e-07
9.85538e-07
9.8548e-07
9.85432e-07
9.85445e-07
9.85947e-07
9.90089e-07
1.01626e-06
1.15309e-06
1.91047e-06
2.06807e-06
2.06746e-06
2.06689e-06
2.06637e-06
2.06586e-06
2.06518e-06
2.06288e-06
2.04936e-06
1.98409e-06
1.78798e-06
5.89958e-07
5.89935e-07
5.89947e-07
5.90222e-07
5.92201e-07
6.0339e-07
6.55986e-07
8.86492e-07
2.20471e-06
6.74118e-07
6.74092e-07
6.7407e-07
6.74073e-07
6.74284e-07
6.75947e-07
6.86052e-07
7.36152e-07
9.55105e-07
2.00133e-06
9.59126e-07
9.59078e-07
9.59029e-07
9.58991e-07
9.59029e-07
9.59665e-07
9.6454e-07
9.93776e-07
1.13982e-06
1.91551e-06
2.08232e-06
2.0817e-06
2.08114e-06
2.08062e-06
2.08011e-06
2.07939e-06
2.07673e-06
2.06141e-06
1.99049e-06
1.78869e-06
5.62013e-07
5.62002e-07
5.62033e-07
5.62373e-07
5.64669e-07
5.7714e-07
6.33688e-07
8.73925e-07
2.20822e-06
6.51585e-07
6.5157e-07
6.51557e-07
6.51575e-07
6.51831e-07
6.53724e-07
6.64825e-07
7.18182e-07
9.45351e-07
2.00527e-06
9.47666e-07
9.47624e-07
9.4758e-07
9.47549e-07
9.47604e-07
9.4833e-07
9.53666e-07
9.84665e-07
1.13524e-06
1.91717e-06
2.08792e-06
2.0873e-06
2.08675e-06
2.08623e-06
2.08573e-06
2.08498e-06
2.08214e-06
2.06593e-06
1.9926e-06
1.78898e-06
5.48162e-07
5.48158e-07
5.48203e-07
5.48597e-07
5.51156e-07
5.64684e-07
6.24401e-07
8.71188e-07
2.1976e-06
6.41085e-07
6.41077e-07
6.4107e-07
6.41096e-07
6.41385e-07
6.43437e-07
6.55207e-07
7.10607e-07
9.42109e-07
2.00612e-06
9.43072e-07
9.43034e-07
9.42993e-07
9.42966e-07
9.43032e-07
9.43812e-07
9.49408e-07
9.81317e-07
1.13388e-06
1.91773e-06
2.08999e-06
2.08938e-06
2.08883e-06
2.08833e-06
2.08784e-06
2.08709e-06
2.08416e-06
2.06756e-06
1.99333e-06
1.78919e-06
5.4174e-07
5.41742e-07
5.41796e-07
5.42235e-07
5.45024e-07
5.59493e-07
6.22083e-07
8.74174e-07
2.16792e-06
6.36541e-07
6.36536e-07
6.36533e-07
6.36564e-07
6.36875e-07
6.39037e-07
6.51257e-07
7.07961e-07
9.41692e-07
2.00516e-06
9.41374e-07
9.41337e-07
9.41298e-07
9.41273e-07
9.41346e-07
9.42157e-07
9.47893e-07
9.80251e-07
1.1336e-06
1.91792e-06
2.09074e-06
2.09014e-06
2.0896e-06
2.08911e-06
2.08863e-06
2.08789e-06
2.08493e-06
2.06816e-06
1.99363e-06
1.78938e-06
5.38984e-07
5.38989e-07
5.39051e-07
5.3953e-07
5.42527e-07
5.57876e-07
6.23289e-07
8.8071e-07
2.11295e-06
6.34727e-07
6.34724e-07
6.34722e-07
6.34758e-07
6.35083e-07
6.37325e-07
6.4987e-07
7.07485e-07
9.42473e-07
2.00267e-06
9.40796e-07
9.4076e-07
9.40721e-07
9.40698e-07
9.40775e-07
9.41605e-07
9.47423e-07
9.80017e-07
1.13367e-06
1.91798e-06
2.09102e-06
2.09043e-06
2.08991e-06
2.08943e-06
2.08896e-06
2.08823e-06
2.08526e-06
2.06843e-06
1.9938e-06
1.78956e-06
2.0907e-06
2.09017e-06
2.0897e-06
2.08926e-06
2.08857e-06
2.08563e-06
2.06876e-06
1.99402e-06
1.78976e-06
9.40662e-07
9.40582e-07
9.40532e-07
9.40592e-07
9.41417e-07
9.47276e-07
9.80006e-07
1.13379e-06
1.91814e-06
6.34094e-07
6.34077e-07
6.34102e-07
6.34429e-07
6.36721e-07
6.49501e-07
7.07777e-07
9.43559e-07
1.99971e-06
5.37911e-07
5.3791e-07
5.37972e-07
5.3848e-07
5.41656e-07
5.57782e-07
6.25782e-07
8.88517e-07
2.0453e-06
5.0929e-07
5.09294e-07
5.09368e-07
5.09917e-07
5.1321e-07
5.29332e-07
5.95123e-07
8.4846e-07
5.02241e-07
5.02247e-07
5.02321e-07
5.0286e-07
5.06059e-07
5.21596e-07
5.84786e-07
8.32756e-07
5.0224e-07
5.02246e-07
5.0232e-07
5.0286e-07
5.06059e-07
5.21598e-07
5.8479e-07
8.32766e-07
5.09284e-07
5.09291e-07
5.09366e-07
5.09917e-07
5.13212e-07
5.29338e-07
5.95137e-07
8.48493e-07
5.37894e-07
5.379e-07
5.37968e-07
5.38481e-07
5.41661e-07
5.57793e-07
6.25807e-07
8.8857e-07
2.04519e-06
6.34061e-07
6.34059e-07
6.34058e-07
6.34095e-07
6.34433e-07
6.36735e-07
6.49524e-07
7.07815e-07
9.43626e-07
1.99953e-06
9.40616e-07
9.4058e-07
9.40543e-07
9.40521e-07
9.40601e-07
9.41444e-07
9.47316e-07
9.80052e-07
1.13384e-06
1.91798e-06
2.09116e-06
2.09058e-06
2.09007e-06
2.0896e-06
2.08914e-06
2.08842e-06
2.08546e-06
2.0686e-06
1.99393e-06
1.78974e-06
2.0908e-06
2.09028e-06
2.08982e-06
2.0894e-06
2.08872e-06
2.08579e-06
2.0689e-06
1.99415e-06
1.78994e-06
9.40621e-07
9.40541e-07
9.40491e-07
9.40551e-07
9.41385e-07
9.47282e-07
9.801e-07
1.13394e-06
1.91821e-06
6.33871e-07
6.33854e-07
6.33881e-07
6.34215e-07
6.36552e-07
6.49508e-07
7.08247e-07
9.4449e-07
1.99849e-06
5.37513e-07
5.37513e-07
5.37579e-07
5.38115e-07
5.41435e-07
5.58161e-07
6.28014e-07
8.9367e-07
2.02486e-06
5.08796e-07
5.08802e-07
5.08884e-07
5.09492e-07
5.13111e-07
5.30724e-07
6.0224e-07
8.72105e-07
2.07044e-06
5.01713e-07
5.01721e-07
5.01806e-07
5.02424e-07
5.06066e-07
5.23647e-07
5.94718e-07
8.64551e-07
2.09088e-06
5.01712e-07
5.0172e-07
5.01806e-07
5.02424e-07
5.06066e-07
5.23648e-07
5.94723e-07
8.64562e-07
2.09083e-06
5.0879e-07
5.08798e-07
5.08882e-07
5.09492e-07
5.13112e-07
5.30729e-07
6.02255e-07
8.72139e-07
2.07032e-06
5.37496e-07
5.37503e-07
5.37575e-07
5.38115e-07
5.41439e-07
5.58172e-07
6.28039e-07
8.93724e-07
2.02471e-06
6.33836e-07
6.33833e-07
6.33833e-07
6.33872e-07
6.34218e-07
6.36564e-07
6.4953e-07
7.08284e-07
9.44557e-07
1.9983e-06
9.40567e-07
9.40532e-07
9.40496e-07
9.40475e-07
9.40557e-07
9.41409e-07
9.47318e-07
9.80143e-07
1.13399e-06
1.91805e-06
2.09125e-06
2.09069e-06
2.09018e-06
2.08973e-06
2.08928e-06
2.08858e-06
2.08562e-06
2.06874e-06
1.99406e-06
1.78992e-06
2.09089e-06
2.09038e-06
2.08993e-06
2.08952e-06
2.08886e-06
2.08593e-06
2.06904e-06
1.99429e-06
1.79012e-06
9.40625e-07
9.40544e-07
9.40491e-07
9.40551e-07
9.41392e-07
9.47312e-07
9.80183e-07
1.13405e-06
1.91832e-06
6.33803e-07
6.33787e-07
6.33814e-07
6.34154e-07
6.36521e-07
6.49592e-07
7.08608e-07
9.45062e-07
1.99817e-06
5.37379e-07
5.3738e-07
5.37449e-07
5.38004e-07
5.41424e-07
5.58546e-07
6.295e-07
8.96502e-07
2.02004e-06
5.08625e-07
5.08631e-07
5.0872e-07
5.09369e-07
5.13214e-07
5.31785e-07
6.06426e-07
8.81959e-07
2.03111e-06
5.01528e-07
5.01537e-07
5.01631e-07
5.02306e-07
5.06253e-07
5.25142e-07
6.00498e-07
8.77885e-07
2.03496e-06
5.01527e-07
5.01536e-07
5.01631e-07
5.02306e-07
5.06254e-07
5.25144e-07
6.00503e-07
8.77896e-07
2.03493e-06
5.08618e-07
5.08627e-07
5.08718e-07
5.09369e-07
5.13215e-07
5.3179e-07
6.06441e-07
8.81993e-07
2.03101e-06
5.37361e-07
5.37369e-07
5.37444e-07
5.38003e-07
5.41428e-07
5.58557e-07
6.29525e-07
8.96556e-07
2.01989e-06
6.33766e-07
6.33763e-07
6.33764e-07
6.33804e-07
6.34155e-07
6.36531e-07
6.49611e-07
7.08642e-07
9.45125e-07
1.99798e-06
9.40558e-07
9.40523e-07
9.40488e-07
9.40469e-07
9.40552e-07
9.4141e-07
9.47342e-07
9.8022e-07
1.13409e-06
1.91816e-06
2.09133e-06
2.09078e-06
2.09029e-06
2.08984e-06
2.08941e-06
2.08872e-06
2.08577e-06
2.06889e-06
1.99421e-06
1.79009e-06
2.09098e-06
2.09048e-06
2.09004e-06
2.08964e-06
2.08899e-06
2.08607e-06
2.06918e-06
1.99445e-06
1.79029e-06
9.40641e-07
9.4056e-07
9.40505e-07
9.40562e-07
9.41408e-07
9.47342e-07
9.80241e-07
1.13411e-06
1.91844e-06
6.33787e-07
6.3377e-07
6.33797e-07
6.34141e-07
6.36525e-07
6.49663e-07
7.08825e-07
9.45355e-07
1.99814e-06
5.37338e-07
5.37338e-07
5.3741e-07
5.37977e-07
5.41457e-07
5.58808e-07
6.30328e-07
8.97834e-07
2.01898e-06
5.08569e-07
5.08576e-07
5.08669e-07
5.09345e-07
5.13326e-07
5.32434e-07
6.08589e-07
8.86083e-07
2.02431e-06
5.01467e-07
5.01477e-07
5.01577e-07
5.02287e-07
5.0642e-07
5.26038e-07
6.03461e-07
8.83467e-07
2.02553e-06
5.01466e-07
5.01476e-07
5.01577e-07
5.02287e-07
5.0642e-07
5.2604e-07
6.03466e-07
8.83478e-07
2.02549e-06
5.08562e-07
5.08572e-07
5.08667e-07
5.09344e-07
5.13327e-07
5.32439e-07
6.08604e-07
8.86116e-07
2.02421e-06
5.37319e-07
5.37327e-07
5.37404e-07
5.37975e-07
5.4146e-07
5.58817e-07
6.30352e-07
8.97885e-07
2.01883e-06
6.33746e-07
6.33744e-07
6.33744e-07
6.33785e-07
6.3414e-07
6.36533e-07
6.4968e-07
7.08856e-07
9.45413e-07
1.99796e-06
9.4056e-07
9.40526e-07
9.40492e-07
9.40474e-07
9.40558e-07
9.4142e-07
9.47366e-07
9.80271e-07
1.13415e-06
1.91828e-06
2.09141e-06
2.09087e-06
2.09039e-06
2.08996e-06
2.08954e-06
2.08887e-06
2.08593e-06
2.06905e-06
1.99437e-06
1.79026e-06
2.09107e-06
2.09058e-06
2.09015e-06
2.08976e-06
2.08912e-06
2.08621e-06
2.06933e-06
1.9946e-06
1.79046e-06
9.4066e-07
9.4058e-07
9.40521e-07
9.40577e-07
9.41424e-07
9.47367e-07
9.80279e-07
1.13416e-06
1.91856e-06
6.33785e-07
6.33768e-07
6.33796e-07
6.34141e-07
6.36535e-07
6.49707e-07
7.08938e-07
9.45492e-07
1.99821e-06
5.37326e-07
5.37327e-07
5.37399e-07
5.37973e-07
5.41486e-07
5.58953e-07
6.30731e-07
8.98384e-07
2.01878e-06
5.08552e-07
5.0856e-07
5.08655e-07
5.09346e-07
5.13399e-07
5.32775e-07
6.09589e-07
8.87662e-07
2.02307e-06
5.01449e-07
5.01459e-07
5.01562e-07
5.02292e-07
5.06523e-07
5.26504e-07
6.0482e-07
8.85592e-07
2.02382e-06
5.01447e-07
5.01458e-07
5.01562e-07
5.02292e-07
5.06523e-07
5.26506e-07
6.04825e-07
8.85602e-07
2.02378e-06
5.08545e-07
5.08556e-07
5.08653e-07
5.09345e-07
5.134e-07
5.3278e-07
6.09603e-07
8.87694e-07
2.02298e-06
5.37307e-07
5.37315e-07
5.37393e-07
5.37971e-07
5.41489e-07
5.58962e-07
6.30753e-07
8.98432e-07
2.01864e-06
6.33741e-07
6.33739e-07
6.33739e-07
6.33781e-07
6.34137e-07
6.36541e-07
6.49721e-07
7.08965e-07
9.45546e-07
1.99803e-06
9.40566e-07
9.40532e-07
9.405e-07
9.40482e-07
9.40567e-07
9.41431e-07
9.47384e-07
9.80304e-07
1.1342e-06
1.9184e-06
2.0915e-06
2.09097e-06
2.0905e-06
2.09008e-06
2.08967e-06
2.08901e-06
2.08608e-06
2.06921e-06
1.99453e-06
1.79042e-06
2.09116e-06
2.09068e-06
2.09027e-06
2.08988e-06
2.08925e-06
2.08635e-06
2.06947e-06
1.99475e-06
1.79062e-06
9.40677e-07
9.40598e-07
9.40538e-07
9.40592e-07
9.4144e-07
9.47387e-07
9.80306e-07
1.1342e-06
1.91867e-06
6.33787e-07
6.33771e-07
6.33798e-07
6.34144e-07
6.36543e-07
6.49732e-07
7.08993e-07
9.45559e-07
1.9983e-06
5.37323e-07
5.37324e-07
5.37397e-07
5.37974e-07
5.41504e-07
5.59025e-07
6.3091e-07
8.98596e-07
2.0188e-06
5.08547e-07
5.08555e-07
5.08652e-07
5.0935e-07
5.13438e-07
5.32936e-07
6.10009e-07
8.88216e-07
2.02286e-06
5.01443e-07
5.01453e-07
5.01558e-07
5.02298e-07
5.06577e-07
5.26721e-07
6.05386e-07
8.86327e-07
2.0235e-06
5.01442e-07
5.01453e-07
5.01558e-07
5.02298e-07
5.06577e-07
5.26722e-07
6.05391e-07
8.86337e-07
2.02347e-06
5.0854e-07
5.08551e-07
5.08649e-07
5.09349e-07
5.13439e-07
5.3294e-07
6.10023e-07
8.88246e-07
2.02278e-06
5.37303e-07
5.37311e-07
5.3739e-07
5.37971e-07
5.41505e-07
5.59033e-07
6.3093e-07
8.98641e-07
2.01866e-06
6.33741e-07
6.33738e-07
6.33739e-07
6.3378e-07
6.34138e-07
6.36546e-07
6.49743e-07
7.09018e-07
9.45608e-07
1.99813e-06
9.40573e-07
9.4054e-07
9.40507e-07
9.4049e-07
9.40576e-07
9.41441e-07
9.47399e-07
9.80326e-07
1.13423e-06
1.91853e-06
2.09158e-06
2.09106e-06
2.0906e-06
2.09019e-06
2.0898e-06
2.08915e-06
2.08623e-06
2.06937e-06
1.99468e-06
1.79058e-06
2.09125e-06
2.09078e-06
2.09038e-06
2.09001e-06
2.08938e-06
2.08648e-06
2.06962e-06
1.9949e-06
1.79078e-06
9.40692e-07
9.40615e-07
9.40554e-07
9.40607e-07
9.41454e-07
9.47405e-07
9.80329e-07
1.13423e-06
1.91878e-06
6.33789e-07
6.33773e-07
6.338e-07
6.34147e-07
6.36549e-07
6.49745e-07
7.09022e-07
9.45601e-07
1.99839e-06
5.37322e-07
5.37323e-07
5.37397e-07
5.37975e-07
5.41513e-07
5.59058e-07
6.30986e-07
8.98684e-07
2.01888e-06
5.08545e-07
5.08554e-07
5.08651e-07
5.09352e-07
5.13457e-07
5.33005e-07
6.10175e-07
8.88406e-07
2.02288e-06
5.01441e-07
5.01452e-07
5.01557e-07
5.02302e-07
5.06602e-07
5.26813e-07
6.05606e-07
8.86571e-07
2.0235e-06
5.0144e-07
5.01451e-07
5.01557e-07
5.02302e-07
5.06602e-07
5.26814e-07
6.0561e-07
8.86581e-07
2.02347e-06
5.08538e-07
5.08549e-07
5.08648e-07
5.09351e-07
5.13457e-07
5.33009e-07
6.10187e-07
8.88434e-07
2.0228e-06
5.37302e-07
5.3731e-07
5.37389e-07
5.37972e-07
5.41514e-07
5.59064e-07
6.31004e-07
8.98726e-07
2.01875e-06
6.33742e-07
6.33739e-07
6.33739e-07
6.33781e-07
6.34139e-07
6.3655e-07
6.49754e-07
7.09044e-07
9.45645e-07
1.99824e-06
9.40581e-07
9.40547e-07
9.40515e-07
9.40498e-07
9.40584e-07
9.41451e-07
9.47411e-07
9.80344e-07
1.13425e-06
1.91865e-06
2.09166e-06
2.09116e-06
2.09071e-06
2.09031e-06
2.08993e-06
2.08929e-06
2.08638e-06
2.06952e-06
1.99484e-06
1.79073e-06
2.09134e-06
2.09089e-06
2.09049e-06
2.09013e-06
2.08951e-06
2.08662e-06
2.06976e-06
1.99504e-06
1.79093e-06
9.40705e-07
9.40629e-07
9.40569e-07
9.40622e-07
9.41469e-07
9.47421e-07
9.80349e-07
1.13426e-06
1.91889e-06
6.33791e-07
6.33776e-07
6.33803e-07
6.3415e-07
6.36553e-07
6.49754e-07
7.0904e-07
9.45634e-07
1.99849e-06
5.37322e-07
5.37323e-07
5.37397e-07
5.37976e-07
5.41517e-07
5.59073e-07
6.3102e-07
8.98731e-07
2.01896e-06
5.08544e-07
5.08553e-07
5.0865e-07
5.09353e-07
5.13465e-07
5.33033e-07
6.1024e-07
8.88481e-07
2.02295e-06
5.0144e-07
5.01451e-07
5.01557e-07
5.02303e-07
5.06612e-07
5.2685e-07
6.0569e-07
8.86661e-07
2.02356e-06
5.01439e-07
5.0145e-07
5.01556e-07
5.02303e-07
5.06612e-07
5.26852e-07
6.05694e-07
8.8667e-07
2.02354e-06
5.08538e-07
5.08548e-07
5.08648e-07
5.09352e-07
5.13465e-07
5.33037e-07
6.10251e-07
8.88508e-07
2.02287e-06
5.37302e-07
5.3731e-07
5.37389e-07
5.37973e-07
5.41517e-07
5.59079e-07
6.31037e-07
8.9877e-07
2.01884e-06
6.33743e-07
6.3374e-07
6.3374e-07
6.33781e-07
6.3414e-07
6.36552e-07
6.49761e-07
7.09059e-07
9.45674e-07
1.99835e-06
9.4059e-07
9.40556e-07
9.40522e-07
9.40505e-07
9.40592e-07
9.4146e-07
9.47423e-07
9.8036e-07
1.13428e-06
1.91876e-06
2.09174e-06
2.09125e-06
2.09082e-06
2.09043e-06
2.09006e-06
2.08943e-06
2.08653e-06
2.06967e-06
1.99499e-06
1.79088e-06
2.09143e-06
2.09099e-06
2.0906e-06
2.09025e-06
2.08963e-06
2.08675e-06
2.06989e-06
1.99518e-06
1.79107e-06
9.40716e-07
9.40642e-07
9.40584e-07
9.40637e-07
9.41484e-07
9.47437e-07
9.80369e-07
1.13429e-06
1.91898e-06
6.33793e-07
6.33778e-07
6.33806e-07
6.34153e-07
6.36557e-07
6.49761e-07
7.09055e-07
9.45665e-07
1.99858e-06
5.37322e-07
5.37324e-07
5.37397e-07
5.37977e-07
5.4152e-07
5.59081e-07
6.3104e-07
8.98767e-07
2.01905e-06
5.08544e-07
5.08552e-07
5.0865e-07
5.09354e-07
5.13468e-07
5.33046e-07
6.10269e-07
8.88524e-07
2.02303e-06
5.01439e-07
5.0145e-07
5.01556e-07
5.02304e-07
5.06616e-07
5.26866e-07
6.05725e-07
8.86708e-07
2.02364e-06
5.01438e-07
5.01449e-07
5.01556e-07
5.02304e-07
5.06617e-07
5.26867e-07
6.05729e-07
8.86716e-07
2.02362e-06
5.08537e-07
5.08548e-07
5.08647e-07
5.09352e-07
5.13468e-07
5.33049e-07
6.1028e-07
8.88549e-07
2.02296e-06
5.37302e-07
5.37309e-07
5.37388e-07
5.37973e-07
5.41519e-07
5.59086e-07
6.31055e-07
8.98802e-07
2.01893e-06
6.33745e-07
6.33741e-07
6.33741e-07
6.33782e-07
6.34141e-07
6.36554e-07
6.49766e-07
7.09071e-07
9.457e-07
1.99844e-06
9.40599e-07
9.40564e-07
9.4053e-07
9.40513e-07
9.40601e-07
9.4147e-07
9.47435e-07
9.80375e-07
1.13431e-06
1.91887e-06
2.09182e-06
2.09134e-06
2.09092e-06
2.09055e-06
2.09019e-06
2.08957e-06
2.08667e-06
2.06982e-06
1.99513e-06
1.79103e-06
2.09151e-06
2.09108e-06
2.09071e-06
2.09036e-06
2.08976e-06
2.08687e-06
2.07002e-06
1.99531e-06
1.7912e-06
9.40726e-07
9.40654e-07
9.40598e-07
9.40651e-07
9.41499e-07
9.47453e-07
9.80388e-07
1.13432e-06
1.91907e-06
6.33794e-07
6.3378e-07
6.33808e-07
6.34156e-07
6.36561e-07
6.49768e-07
7.09068e-07
9.45695e-07
1.99866e-06
5.37321e-07
5.37324e-07
5.37398e-07
5.37978e-07
5.41522e-07
5.59087e-07
6.31055e-07
8.98801e-07
2.01912e-06
5.08543e-07
5.08552e-07
5.0865e-07
5.09354e-07
5.1347e-07
5.33053e-07
6.10287e-07
8.8856e-07
2.02311e-06
5.01439e-07
5.0145e-07
5.01556e-07
5.02304e-07
5.06618e-07
5.26874e-07
6.05744e-07
8.86743e-07
2.02372e-06
5.01438e-07
5.01449e-07
5.01556e-07
5.02304e-07
5.06619e-07
5.26875e-07
6.05748e-07
8.86751e-07
2.0237e-06
5.08537e-07
5.08547e-07
5.08647e-07
5.09352e-07
5.1347e-07
5.33056e-07
6.10297e-07
8.88582e-07
2.02304e-06
5.37301e-07
5.37309e-07
5.37388e-07
5.37973e-07
5.4152e-07
5.59091e-07
6.31068e-07
8.98832e-07
2.01902e-06
6.33746e-07
6.33743e-07
6.33742e-07
6.33783e-07
6.34141e-07
6.36555e-07
6.4977e-07
7.09082e-07
9.45727e-07
1.99854e-06
9.40607e-07
9.40572e-07
9.40538e-07
9.4052e-07
9.40609e-07
9.41479e-07
9.47447e-07
9.80391e-07
1.13433e-06
1.91897e-06
2.0919e-06
2.09143e-06
2.09102e-06
2.09066e-06
2.09031e-06
2.0897e-06
2.0868e-06
2.06996e-06
1.99527e-06
1.79116e-06
2.09159e-06
2.09118e-06
2.09082e-06
2.09048e-06
2.08988e-06
2.08699e-06
2.07015e-06
1.99543e-06
1.79132e-06
9.40735e-07
9.40666e-07
9.40612e-07
9.40666e-07
9.41514e-07
9.47469e-07
9.80408e-07
1.13435e-06
1.91916e-06
6.33796e-07
6.33782e-07
6.33811e-07
6.34158e-07
6.36564e-07
6.49774e-07
7.09082e-07
9.45726e-07
1.99873e-06
5.37321e-07
5.37324e-07
5.37398e-07
5.37978e-07
5.41523e-07
5.59092e-07
6.31068e-07
8.98833e-07
2.0192e-06
5.08543e-07
5.08551e-07
5.08649e-07
5.09354e-07
5.13471e-07
5.33058e-07
6.10301e-07
8.88593e-07
2.02318e-06
5.01438e-07
5.01449e-07
5.01556e-07
5.02304e-07
5.0662e-07
5.2688e-07
6.05759e-07
8.86776e-07
2.02379e-06
5.01437e-07
5.01448e-07
5.01555e-07
5.02304e-07
5.0662e-07
5.26881e-07
6.05762e-07
8.86784e-07
2.02377e-06
5.08536e-07
5.08547e-07
5.08646e-07
5.09352e-07
5.13471e-07
5.33061e-07
6.10311e-07
8.88613e-07
2.02312e-06
5.37301e-07
5.37309e-07
5.37388e-07
5.37973e-07
5.41522e-07
5.59095e-07
6.31081e-07
8.98862e-07
2.0191e-06
6.33747e-07
6.33744e-07
6.33743e-07
6.33784e-07
6.34143e-07
6.36557e-07
6.49775e-07
7.09093e-07
9.45753e-07
1.99862e-06
9.40615e-07
9.40581e-07
9.40546e-07
9.40529e-07
9.40617e-07
9.41489e-07
9.47458e-07
9.80406e-07
1.13436e-06
1.91906e-06
2.09197e-06
2.09152e-06
2.09112e-06
2.09077e-06
2.09043e-06
2.08982e-06
2.08693e-06
2.07009e-06
1.9954e-06
1.79128e-06
2.09167e-06
2.09127e-06
2.09092e-06
2.09059e-06
2.08999e-06
2.08711e-06
2.07026e-06
1.99554e-06
1.79128e-06
9.40743e-07
9.40677e-07
9.40625e-07
9.40682e-07
9.4153e-07
9.47486e-07
9.80428e-07
1.13437e-06
1.91922e-06
6.33797e-07
6.33784e-07
6.33813e-07
6.34161e-07
6.36568e-07
6.4978e-07
7.09095e-07
9.45755e-07
1.99879e-06
5.37321e-07
5.37323e-07
5.37398e-07
5.37979e-07
5.41525e-07
5.59097e-07
6.31082e-07
8.98866e-07
2.01926e-06
5.08542e-07
5.08551e-07
5.08649e-07
5.09354e-07
5.13472e-07
5.33063e-07
6.10315e-07
8.88626e-07
2.02325e-06
5.01437e-07
5.01449e-07
5.01555e-07
5.02304e-07
5.06621e-07
5.26884e-07
6.05773e-07
8.86809e-07
2.02386e-06
5.01436e-07
5.01448e-07
5.01555e-07
5.02304e-07
5.06621e-07
5.26885e-07
6.05776e-07
8.86816e-07
2.02384e-06
5.08536e-07
5.08546e-07
5.08646e-07
5.09352e-07
5.13472e-07
5.33065e-07
6.10324e-07
8.88645e-07
2.02319e-06
5.37301e-07
5.37309e-07
5.37388e-07
5.37973e-07
5.41523e-07
5.59099e-07
6.31093e-07
8.98892e-07
2.01917e-06
6.33748e-07
6.33745e-07
6.33744e-07
6.33785e-07
6.34144e-07
6.36559e-07
6.49779e-07
7.09104e-07
9.45779e-07
1.9987e-06
9.40622e-07
9.40588e-07
9.40555e-07
9.40537e-07
9.40626e-07
9.41499e-07
9.4747e-07
9.80421e-07
1.13438e-06
1.91913e-06
2.09205e-06
2.0916e-06
2.09121e-06
2.09087e-06
2.09054e-06
2.08994e-06
2.08705e-06
2.07021e-06
1.99551e-06
1.79125e-06
2.09175e-06
2.09136e-06
2.09102e-06
2.09069e-06
2.0901e-06
2.08722e-06
2.07038e-06
1.99556e-06
1.79005e-06
9.40751e-07
9.40687e-07
9.40638e-07
9.40697e-07
9.41545e-07
9.47503e-07
9.80446e-07
1.13437e-06
1.91917e-06
6.33797e-07
6.33785e-07
6.33815e-07
6.34164e-07
6.36571e-07
6.49786e-07
7.09107e-07
9.45781e-07
1.99885e-06
5.3732e-07
5.37323e-07
5.37398e-07
5.37979e-07
5.41526e-07
5.59102e-07
6.31095e-07
8.98898e-07
2.01932e-06
5.08541e-07
5.08551e-07
5.08649e-07
5.09354e-07
5.13473e-07
5.33068e-07
6.10329e-07
8.88659e-07
2.02331e-06
5.01437e-07
5.01448e-07
5.01555e-07
5.02304e-07
5.06622e-07
5.26889e-07
6.05787e-07
8.86842e-07
2.02392e-06
5.01436e-07
5.01447e-07
5.01554e-07
5.02303e-07
5.06622e-07
5.2689e-07
6.05789e-07
8.86848e-07
2.0239e-06
5.08535e-07
5.08546e-07
5.08646e-07
5.09352e-07
5.13473e-07
5.3307e-07
6.10337e-07
8.88676e-07
2.02325e-06
5.37301e-07
5.37309e-07
5.37388e-07
5.37973e-07
5.41524e-07
5.59103e-07
6.31105e-07
8.98921e-07
2.01924e-06
6.33749e-07
6.33746e-07
6.33745e-07
6.33786e-07
6.34145e-07
6.36562e-07
6.49784e-07
7.09114e-07
9.45802e-07
1.99876e-06
9.40628e-07
9.40596e-07
9.40563e-07
9.40546e-07
9.40636e-07
9.41509e-07
9.47482e-07
9.80433e-07
1.13438e-06
1.91909e-06
2.09212e-06
2.09168e-06
2.0913e-06
2.09097e-06
2.09065e-06
2.09005e-06
2.08717e-06
2.07033e-06
1.99554e-06
1.79001e-06
2.09183e-06
2.09144e-06
2.09111e-06
2.09079e-06
2.0902e-06
2.08733e-06
2.07047e-06
1.99514e-06
1.78074e-06
9.40757e-07
9.40696e-07
9.4065e-07
9.4071e-07
9.41561e-07
9.4752e-07
9.80459e-07
1.13431e-06
1.91859e-06
6.33798e-07
6.33787e-07
6.33817e-07
6.34167e-07
6.36575e-07
6.49792e-07
7.09119e-07
9.458e-07
1.99887e-06
5.3732e-07
5.37323e-07
5.37398e-07
5.3798e-07
5.41528e-07
5.59106e-07
6.31108e-07
8.98929e-07
2.01937e-06
5.08541e-07
5.0855e-07
5.08649e-07
5.09354e-07
5.13475e-07
5.33072e-07
6.10343e-07
8.88691e-07
2.02336e-06
5.01436e-07
5.01448e-07
5.01554e-07
5.02303e-07
5.06623e-07
5.26893e-07
6.058e-07
8.86874e-07
2.02397e-06
5.01435e-07
5.01447e-07
5.01554e-07
5.02303e-07
5.06623e-07
5.26894e-07
6.05803e-07
8.8688e-07
2.02396e-06
5.08535e-07
5.08546e-07
5.08645e-07
5.09352e-07
5.13474e-07
5.33074e-07
6.1035e-07
8.88707e-07
2.02331e-06
5.37301e-07
5.37309e-07
5.37388e-07
5.37973e-07
5.41525e-07
5.59108e-07
6.31117e-07
8.9895e-07
2.0193e-06
6.3375e-07
6.33747e-07
6.33747e-07
6.33788e-07
6.34147e-07
6.36564e-07
6.49789e-07
7.09124e-07
9.45819e-07
1.99879e-06
9.40633e-07
9.40602e-07
9.40571e-07
9.40556e-07
9.40646e-07
9.4152e-07
9.47494e-07
9.80441e-07
1.13431e-06
1.91852e-06
2.09219e-06
2.09176e-06
2.09139e-06
2.09107e-06
2.09075e-06
2.09016e-06
2.08728e-06
2.07042e-06
1.99513e-06
1.7807e-06
2.0919e-06
2.09152e-06
2.0912e-06
2.09089e-06
2.09031e-06
2.08744e-06
2.07052e-06
1.99325e-06
1.81526e-06
9.40761e-07
9.40703e-07
9.4066e-07
9.40723e-07
9.41575e-07
9.47535e-07
9.80463e-07
1.13413e-06
1.91637e-06
6.33798e-07
6.33788e-07
6.33819e-07
6.34169e-07
6.36578e-07
6.49798e-07
7.0913e-07
9.45811e-07
1.99884e-06
5.37319e-07
5.37323e-07
5.37399e-07
5.3798e-07
5.41529e-07
5.59111e-07
6.31121e-07
8.98959e-07
2.01942e-06
5.0854e-07
5.0855e-07
5.08648e-07
5.09354e-07
5.13476e-07
5.33077e-07
6.10357e-07
8.88723e-07
2.02341e-06
5.01436e-07
5.01447e-07
5.01554e-07
5.02303e-07
5.06624e-07
5.26898e-07
6.05814e-07
8.86906e-07
2.02402e-06
5.01435e-07
5.01446e-07
5.01553e-07
5.02303e-07
5.06624e-07
5.26899e-07
6.05817e-07
8.86912e-07
2.02401e-06
5.08534e-07
5.08545e-07
5.08645e-07
5.09352e-07
5.13475e-07
5.33079e-07
6.10363e-07
8.88739e-07
2.02336e-06
5.37301e-07
5.37309e-07
5.37388e-07
5.37974e-07
5.41526e-07
5.59112e-07
6.31129e-07
8.98979e-07
2.01935e-06
6.33751e-07
6.33748e-07
6.33748e-07
6.33789e-07
6.34149e-07
6.36567e-07
6.49794e-07
7.09134e-07
9.45828e-07
1.99876e-06
9.40638e-07
9.40609e-07
9.4058e-07
9.40566e-07
9.40657e-07
9.41532e-07
9.47506e-07
9.80442e-07
1.13413e-06
1.91631e-06
2.09226e-06
2.09184e-06
2.09148e-06
2.09116e-06
2.09085e-06
2.09026e-06
2.08739e-06
2.07048e-06
1.99323e-06
1.81522e-06
2.09197e-06
2.0916e-06
2.09129e-06
2.09098e-06
2.09041e-06
2.08754e-06
2.07061e-06
1.99279e-06
1.8047e-06
9.40764e-07
9.40709e-07
9.40669e-07
9.40733e-07
9.41586e-07
9.47547e-07
9.80471e-07
1.13407e-06
1.91575e-06
6.33797e-07
6.33788e-07
6.33821e-07
6.34171e-07
6.36581e-07
6.49803e-07
7.09141e-07
9.45829e-07
1.99885e-06
5.37319e-07
5.37323e-07
5.37398e-07
5.37981e-07
5.41531e-07
5.59116e-07
6.31135e-07
8.9899e-07
2.01946e-06
5.0854e-07
5.08549e-07
5.08648e-07
5.09354e-07
5.13477e-07
5.33082e-07
6.10371e-07
8.88756e-07
2.02345e-06
5.01435e-07
5.01447e-07
5.01553e-07
5.02303e-07
5.06625e-07
5.26903e-07
6.05829e-07
8.86939e-07
2.02407e-06
5.01434e-07
5.01446e-07
5.01553e-07
5.02303e-07
5.06625e-07
5.26904e-07
6.05831e-07
8.86945e-07
2.02405e-06
5.08534e-07
5.08545e-07
5.08645e-07
5.09352e-07
5.13476e-07
5.33083e-07
6.10377e-07
8.88771e-07
2.02341e-06
5.37301e-07
5.37309e-07
5.37388e-07
5.37974e-07
5.41527e-07
5.59117e-07
6.31143e-07
8.9901e-07
2.01939e-06
6.33752e-07
6.33749e-07
6.33749e-07
6.33791e-07
6.34151e-07
6.3657e-07
6.49799e-07
7.09145e-07
9.45845e-07
1.99878e-06
9.40644e-07
9.40615e-07
9.40588e-07
9.40576e-07
9.40669e-07
9.41544e-07
9.4752e-07
9.80452e-07
1.13406e-06
1.91569e-06
2.09232e-06
2.09192e-06
2.09156e-06
2.09125e-06
2.09094e-06
2.09037e-06
2.0875e-06
2.07057e-06
1.99277e-06
1.80468e-06
2.09203e-06
2.09168e-06
2.09137e-06
2.09107e-06
2.0905e-06
2.08764e-06
2.07071e-06
1.9928e-06
1.80345e-06
9.40766e-07
9.40715e-07
9.40676e-07
9.40742e-07
9.41596e-07
9.47556e-07
9.80481e-07
1.13407e-06
1.91569e-06
6.33797e-07
6.33789e-07
6.33822e-07
6.34173e-07
6.36583e-07
6.49808e-07
7.09152e-07
9.45853e-07
1.99889e-06
5.37318e-07
5.37322e-07
5.37398e-07
5.37981e-07
5.41532e-07
5.5912e-07
6.31148e-07
8.9902e-07
2.0195e-06
5.08539e-07
5.08549e-07
5.08647e-07
5.09354e-07
5.13478e-07
5.33087e-07
6.10385e-07
8.88788e-07
2.02349e-06
5.01434e-07
5.01446e-07
5.01553e-07
5.02303e-07
5.06626e-07
5.26908e-07
6.05843e-07
8.86971e-07
2.02411e-06
5.01434e-07
5.01445e-07
5.01552e-07
5.02303e-07
5.06626e-07
5.26909e-07
6.05845e-07
8.86976e-07
2.0241e-06
5.08533e-07
5.08544e-07
5.08644e-07
5.09352e-07
5.13477e-07
5.33088e-07
6.10391e-07
8.88802e-07
2.02345e-06
5.37301e-07
5.37309e-07
5.37388e-07
5.37974e-07
5.41529e-07
5.59121e-07
6.31156e-07
8.9904e-07
2.01944e-06
6.33753e-07
6.3375e-07
6.33751e-07
6.33793e-07
6.34154e-07
6.36573e-07
6.49805e-07
7.09157e-07
9.4587e-07
1.99882e-06
9.4065e-07
9.40623e-07
9.40597e-07
9.40587e-07
9.40681e-07
9.41557e-07
9.47535e-07
9.80468e-07
1.13406e-06
1.91563e-06
2.09238e-06
2.09199e-06
2.09164e-06
2.09133e-06
2.09103e-06
2.09046e-06
2.0876e-06
2.07067e-06
1.99278e-06
1.80343e-06
2.09209e-06
2.09175e-06
2.09144e-06
2.09115e-06
2.09059e-06
2.08774e-06
2.0708e-06
1.99288e-06
1.80341e-06
9.4077e-07
9.40721e-07
9.40684e-07
9.40751e-07
9.41604e-07
9.47564e-07
9.80492e-07
1.13408e-06
1.91572e-06
6.33797e-07
6.33789e-07
6.33823e-07
6.34174e-07
6.36585e-07
6.49812e-07
7.09163e-07
9.45879e-07
1.99893e-06
5.37317e-07
5.37322e-07
5.37398e-07
5.37981e-07
5.41533e-07
5.59125e-07
6.31161e-07
8.9905e-07
2.01954e-06
5.08538e-07
5.08548e-07
5.08647e-07
5.09354e-07
5.13479e-07
5.33092e-07
6.10399e-07
8.88819e-07
2.02353e-06
5.01434e-07
5.01446e-07
5.01553e-07
5.02303e-07
5.06627e-07
5.26913e-07
6.05857e-07
8.87002e-07
2.02415e-06
5.01433e-07
5.01445e-07
5.01552e-07
5.02303e-07
5.06627e-07
5.26913e-07
6.05859e-07
8.87007e-07
2.02413e-06
5.08533e-07
5.08544e-07
5.08644e-07
5.09352e-07
5.13478e-07
5.33093e-07
6.10405e-07
8.88833e-07
2.02349e-06
5.37301e-07
5.37309e-07
5.37389e-07
5.37975e-07
5.4153e-07
5.59126e-07
6.31169e-07
8.9907e-07
2.01947e-06
6.33754e-07
6.33751e-07
6.33753e-07
6.33796e-07
6.34156e-07
6.36576e-07
6.4981e-07
7.0917e-07
9.45897e-07
1.99885e-06
9.40657e-07
9.40631e-07
9.40607e-07
9.40599e-07
9.40693e-07
9.4157e-07
9.4755e-07
9.80487e-07
1.13408e-06
1.91566e-06
2.09244e-06
2.09205e-06
2.09171e-06
2.09141e-06
2.09112e-06
2.09055e-06
2.08769e-06
2.07076e-06
1.99285e-06
1.80338e-06
2.09215e-06
2.09181e-06
2.09151e-06
2.09123e-06
2.09067e-06
2.08782e-06
2.07089e-06
1.99296e-06
1.80347e-06
9.40775e-07
9.40727e-07
9.40692e-07
9.40759e-07
9.41611e-07
9.47571e-07
9.80502e-07
1.13411e-06
1.91576e-06
6.33797e-07
6.3379e-07
6.33824e-07
6.34175e-07
6.36587e-07
6.49816e-07
7.09174e-07
9.45905e-07
1.99896e-06
5.37317e-07
5.37322e-07
5.37398e-07
5.37981e-07
5.41534e-07
5.59129e-07
6.31174e-07
8.99079e-07
2.01957e-06
5.08538e-07
5.08548e-07
5.08647e-07
5.09353e-07
5.1348e-07
5.33096e-07
6.10412e-07
8.88849e-07
2.02356e-06
5.01433e-07
5.01445e-07
5.01552e-07
5.02303e-07
5.06628e-07
5.26918e-07
6.05871e-07
8.87033e-07
2.02418e-06
5.01433e-07
5.01444e-07
5.01552e-07
5.02303e-07
5.06628e-07
5.26918e-07
6.05873e-07
8.87038e-07
2.02416e-06
5.08533e-07
5.08544e-07