/*--------------------------------*- C++ -*----------------------------------*\
| =========                 |                                                 |
| \\      /  F ield         | OpenFOAM: The Open Source CFD Toolbox           |
|  \\    /   O peration     | Version:  2.3.1                                 |
|   \\  /    A nd           | Web:      www.OpenFOAM.org                      |
|    \\/     M anipulation  |                                                 |
\*---------------------------------------------------------------------------*/
FoamFile
{
    version     2.0;
    format      ascii;
    class       volScalarField;
    location    "5";
    object      epsilon_0;
}
// * * * * * * * * * * * * * * * * * * * * * * * * * * * * * * * * * * * * * //

dimensions      [0 2 -3 0 0 0 0];

internalField   nonuniform List<scalar> 
37784
(
2.48929e-06
2.48796e-06
2.48672e-06
2.48551e-06
2.48402e-06
2.47979e-06
2.45558e-06
2.3326e-06
1.86589e-06
2.45199e-06
2.45056e-06
2.44923e-06
2.44798e-06
2.44677e-06
2.44533e-06
2.44143e-06
2.41863e-06
2.29997e-06
1.86342e-06
2.27718e-06
2.27575e-06
2.27441e-06
2.27315e-06
2.27195e-06
2.27072e-06
2.26855e-06
2.25714e-06
2.18931e-06
1.85135e-06
1.7612e-06
1.7601e-06
1.75907e-06
1.7581e-06
1.75719e-06
1.75632e-06
1.75546e-06
1.75441e-06
1.7603e-06
1.81763e-06
1.32371e-06
1.32339e-06
1.32311e-06
1.32289e-06
1.32292e-06
1.32472e-06
1.3374e-06
1.40593e-06
1.79499e-06
1.34434e-06
1.34402e-06
1.34373e-06
1.34346e-06
1.34324e-06
1.34324e-06
1.34478e-06
1.35628e-06
1.41913e-06
1.73094e-06
1.4228e-06
1.42253e-06
1.42229e-06
1.42207e-06
1.42187e-06
1.42174e-06
1.4222e-06
1.4275e-06
1.46573e-06
1.7064e-06
1.73152e-06
1.73105e-06
1.73061e-06
1.73019e-06
1.72979e-06
1.72938e-06
1.72877e-06
1.7263e-06
1.71375e-06
1.6564e-06
9.35052e-07
9.34926e-07
9.34821e-07
9.34808e-07
9.35446e-07
9.40453e-07
9.69795e-07
1.11765e-06
2.02666e-06
9.82448e-07
9.82324e-07
9.82209e-07
9.82113e-07
9.8209e-07
9.82618e-07
9.87085e-07
1.01456e-06
1.15369e-06
1.89902e-06
1.16296e-06
1.16285e-06
1.16275e-06
1.16265e-06
1.16259e-06
1.16272e-06
1.1646e-06
1.17926e-06
1.26998e-06
1.8511e-06
1.95278e-06
1.9522e-06
1.95167e-06
1.95117e-06
1.9507e-06
1.95018e-06
1.94904e-06
1.94269e-06
1.90772e-06
1.76643e-06
7.44323e-07
7.44253e-07
7.44206e-07
7.44307e-07
7.45453e-07
7.52992e-07
7.92945e-07
9.83051e-07
2.13471e-06
8.08748e-07
8.08679e-07
8.08615e-07
8.0857e-07
8.08643e-07
8.09611e-07
8.1643e-07
8.5434e-07
1.03454e-06
1.96405e-06
1.04308e-06
1.043e-06
1.04293e-06
1.04287e-06
1.04285e-06
1.04318e-06
1.0463e-06
1.06772e-06
1.18776e-06
1.8962e-06
2.0346e-06
2.03399e-06
2.03343e-06
2.03291e-06
2.03242e-06
2.03181e-06
2.03004e-06
2.01958e-06
1.96577e-06
1.78558e-06
6.4364e-07
6.43598e-07
6.43586e-07
6.4378e-07
6.45376e-07
6.54947e-07
7.02246e-07
9.17363e-07
2.18488e-06
7.19715e-07
7.19673e-07
7.19635e-07
7.19618e-07
7.19768e-07
7.2112e-07
7.2981e-07
7.74949e-07
9.79473e-07
1.99111e-06
9.85718e-07
9.8566e-07
9.85601e-07
9.85554e-07
9.85566e-07
9.86068e-07
9.9021e-07
1.01639e-06
1.15329e-06
1.91119e-06
2.06881e-06
2.06819e-06
2.06763e-06
2.06711e-06
2.0666e-06
2.06593e-06
2.06362e-06
2.05011e-06
1.98486e-06
1.78875e-06
5.89963e-07
5.8994e-07
5.89952e-07
5.90226e-07
5.92205e-07
6.03389e-07
6.55988e-07
8.86568e-07
2.20534e-06
6.74128e-07
6.74102e-07
6.74079e-07
6.74083e-07
6.74293e-07
6.75956e-07
6.86058e-07
7.36162e-07
9.55203e-07
2.00202e-06
9.59245e-07
9.59197e-07
9.59148e-07
9.5911e-07
9.59147e-07
9.59783e-07
9.64657e-07
9.93897e-07
1.14001e-06
1.91622e-06
2.08305e-06
2.08243e-06
2.08187e-06
2.08135e-06
2.08084e-06
2.08012e-06
2.07746e-06
2.06215e-06
1.99125e-06
1.78945e-06
5.62023e-07
5.62012e-07
5.62043e-07
5.62382e-07
5.64677e-07
5.77143e-07
6.33693e-07
8.74003e-07
2.20886e-06
6.51599e-07
6.51584e-07
6.51571e-07
6.51588e-07
6.51844e-07
6.53736e-07
6.64834e-07
7.18194e-07
9.4545e-07
2.00595e-06
9.47787e-07
9.47745e-07
9.47701e-07
9.4767e-07
9.47725e-07
9.4845e-07
9.53785e-07
9.84787e-07
1.13544e-06
1.91788e-06
2.08864e-06
2.08802e-06
2.08747e-06
2.08696e-06
2.08645e-06
2.08571e-06
2.08287e-06
2.06666e-06
1.99336e-06
1.78975e-06
5.48177e-07
5.48174e-07
5.48218e-07
5.48612e-07
5.51169e-07
5.64692e-07
6.24409e-07
8.71269e-07
2.19823e-06
6.41104e-07
6.41095e-07
6.41088e-07
6.41114e-07
6.41402e-07
6.43453e-07
6.55219e-07
7.10622e-07
9.42209e-07
2.0068e-06
9.43196e-07
9.43157e-07
9.43116e-07
9.43089e-07
9.43155e-07
9.43934e-07
9.49528e-07
9.81441e-07
1.13408e-06
1.91844e-06
2.09071e-06
2.0901e-06
2.08955e-06
2.08905e-06
2.08856e-06
2.08781e-06
2.08489e-06
2.06829e-06
1.99409e-06
1.78996e-06
5.4176e-07
5.41762e-07
5.41816e-07
5.42255e-07
5.45042e-07
5.59505e-07
6.22094e-07
8.74259e-07
2.16856e-06
6.36562e-07
6.36557e-07
6.36554e-07
6.36586e-07
6.36896e-07
6.39056e-07
6.51272e-07
7.07978e-07
9.41793e-07
2.00585e-06
9.41499e-07
9.41462e-07
9.41423e-07
9.41398e-07
9.41471e-07
9.42281e-07
9.48015e-07
9.80375e-07
1.1338e-06
1.91864e-06
2.09145e-06
2.09086e-06
2.09032e-06
2.08983e-06
2.08935e-06
2.08861e-06
2.08565e-06
2.0689e-06
1.99439e-06
1.79015e-06
5.39008e-07
5.39012e-07
5.39073e-07
5.39552e-07
5.42547e-07
5.57889e-07
6.23301e-07
8.80799e-07
2.1136e-06
6.34751e-07
6.34747e-07
6.34746e-07
6.34781e-07
6.35106e-07
6.37346e-07
6.49887e-07
7.07503e-07
9.42576e-07
2.00335e-06
9.40921e-07
9.40885e-07
9.40847e-07
9.40824e-07
9.40901e-07
9.4173e-07
9.47546e-07
9.80141e-07
1.13387e-06
1.91869e-06
2.09174e-06
2.09115e-06
2.09063e-06
2.09015e-06
2.08968e-06
2.08895e-06
2.08599e-06
2.06917e-06
1.99457e-06
1.79033e-06
2.09142e-06
2.09089e-06
2.09042e-06
2.08998e-06
2.08929e-06
2.08635e-06
2.06949e-06
1.99478e-06
1.79053e-06
9.40787e-07
9.40708e-07
9.40658e-07
9.40718e-07
9.41542e-07
9.47399e-07
9.8013e-07
1.13398e-06
1.91886e-06
6.34118e-07
6.34101e-07
6.34126e-07
6.34452e-07
6.36743e-07
6.49518e-07
7.07795e-07
9.43662e-07
2.0004e-06
5.37935e-07
5.37934e-07
5.37996e-07
5.38504e-07
5.41677e-07
5.57797e-07
6.25795e-07
8.88611e-07
2.04596e-06
5.09325e-07
5.09329e-07
5.09403e-07
5.09951e-07
5.13241e-07
5.29356e-07
5.95141e-07
8.4854e-07
5.02282e-07
5.02288e-07
5.02361e-07
5.02899e-07
5.06096e-07
5.21625e-07
5.84807e-07
8.32831e-07
5.02281e-07
5.02287e-07
5.02361e-07
5.02899e-07
5.06096e-07
5.21626e-07
5.84811e-07
8.3284e-07
5.09319e-07
5.09326e-07
5.09401e-07
5.09951e-07
5.13243e-07
5.29361e-07
5.95155e-07
8.48573e-07
5.37918e-07
5.37924e-07
5.37992e-07
5.38505e-07
5.41682e-07
5.57808e-07
6.2582e-07
8.88664e-07
2.04585e-06
6.34086e-07
6.34083e-07
6.34082e-07
6.3412e-07
6.34456e-07
6.36757e-07
6.49542e-07
7.07833e-07
9.43729e-07
2.00021e-06
9.40742e-07
9.40706e-07
9.40669e-07
9.40647e-07
9.40727e-07
9.41569e-07
9.47439e-07
9.80176e-07
1.13404e-06
1.91869e-06
2.09187e-06
2.0913e-06
2.09078e-06
2.09032e-06
2.08986e-06
2.08914e-06
2.08618e-06
2.06933e-06
1.9947e-06
1.79051e-06
2.09152e-06
2.091e-06
2.09054e-06
2.09012e-06
2.08944e-06
2.08651e-06
2.06963e-06
1.99492e-06
1.79071e-06
9.40747e-07
9.40667e-07
9.40616e-07
9.40677e-07
9.41511e-07
9.47405e-07
9.80225e-07
1.13414e-06
1.91893e-06
6.33895e-07
6.33879e-07
6.33905e-07
6.34239e-07
6.36574e-07
6.49526e-07
7.08265e-07
9.44593e-07
1.99918e-06
5.37538e-07
5.37538e-07
5.37604e-07
5.38139e-07
5.41456e-07
5.58176e-07
6.28027e-07
8.93767e-07
2.02553e-06
5.08832e-07
5.08838e-07
5.0892e-07
5.09527e-07
5.13143e-07
5.30748e-07
6.0226e-07
8.72199e-07
2.07108e-06
5.01755e-07
5.01762e-07
5.01848e-07
5.02465e-07
5.06103e-07
5.23676e-07
5.94741e-07
8.64645e-07
2.09152e-06
5.01754e-07
5.01762e-07
5.01848e-07
5.02465e-07
5.06104e-07
5.23677e-07
5.94746e-07
8.64656e-07
2.09147e-06
5.08826e-07
5.08834e-07
5.08918e-07
5.09527e-07
5.13144e-07
5.30753e-07
6.02275e-07
8.72233e-07
2.07097e-06
5.37521e-07
5.37528e-07
5.376e-07
5.3814e-07
5.41461e-07
5.58187e-07
6.28053e-07
8.93821e-07
2.02537e-06
6.33861e-07
6.33858e-07
6.33858e-07
6.33897e-07
6.34242e-07
6.36587e-07
6.49548e-07
7.08302e-07
9.4466e-07
1.99899e-06
9.40693e-07
9.40658e-07
9.40622e-07
9.40601e-07
9.40683e-07
9.41534e-07
9.47441e-07
9.80268e-07
1.13419e-06
1.91876e-06
2.09197e-06
2.0914e-06
2.0909e-06
2.09045e-06
2.09e-06
2.0893e-06
2.08634e-06
2.06948e-06
1.99483e-06
1.79068e-06
2.09161e-06
2.0911e-06
2.09065e-06
2.09024e-06
2.08958e-06
2.08665e-06
2.06977e-06
1.99506e-06
1.79089e-06
9.4075e-07
9.4067e-07
9.40617e-07
9.40677e-07
9.41517e-07
9.47435e-07
9.80308e-07
1.13424e-06
1.91903e-06
6.33828e-07
6.33812e-07
6.33839e-07
6.34178e-07
6.36543e-07
6.49609e-07
7.08626e-07
9.45165e-07
1.99886e-06
5.37405e-07
5.37405e-07
5.37475e-07
5.38029e-07
5.41445e-07
5.58561e-07
6.29514e-07
8.966e-07
2.02071e-06
5.08661e-07
5.08668e-07
5.08756e-07
5.09405e-07
5.13246e-07
5.31809e-07
6.06446e-07
8.82059e-07
2.03178e-06
5.0157e-07
5.01579e-07
5.01673e-07
5.02346e-07
5.06291e-07
5.25171e-07
6.00522e-07
8.77986e-07
2.03562e-06
5.01569e-07
5.01578e-07
5.01673e-07
5.02346e-07
5.06291e-07
5.25172e-07
6.00526e-07
8.77997e-07
2.03558e-06
5.08654e-07
5.08664e-07
5.08754e-07
5.09404e-07
5.13247e-07
5.31814e-07
6.06461e-07
8.82093e-07
2.03167e-06
5.37387e-07
5.37394e-07
5.37469e-07
5.38028e-07
5.41449e-07
5.58572e-07
6.29539e-07
8.96653e-07
2.02056e-06
6.33791e-07
6.33788e-07
6.33789e-07
6.33829e-07
6.34179e-07
6.36553e-07
6.49629e-07
7.0866e-07
9.45228e-07
1.99867e-06
9.40684e-07
9.40649e-07
9.40615e-07
9.40595e-07
9.40678e-07
9.41535e-07
9.47465e-07
9.80345e-07
1.13429e-06
1.91887e-06
2.09205e-06
2.0915e-06
2.09101e-06
2.09056e-06
2.09013e-06
2.08944e-06
2.0865e-06
2.06963e-06
1.99497e-06
1.79086e-06
2.0917e-06
2.0912e-06
2.09076e-06
2.09036e-06
2.08971e-06
2.08679e-06
2.06992e-06
1.99521e-06
1.79106e-06
9.40767e-07
9.40686e-07
9.40631e-07
9.40688e-07
9.41533e-07
9.47465e-07
9.80365e-07
1.13431e-06
1.91915e-06
6.33811e-07
6.33795e-07
6.33822e-07
6.34165e-07
6.36548e-07
6.4968e-07
7.08842e-07
9.45458e-07
1.99883e-06
5.37363e-07
5.37364e-07
5.37435e-07
5.38001e-07
5.41479e-07
5.58823e-07
6.30341e-07
8.97932e-07
2.01966e-06
5.08605e-07
5.08613e-07
5.08706e-07
5.09381e-07
5.13357e-07
5.32457e-07
6.08609e-07
8.86184e-07
2.02498e-06
5.01509e-07
5.01519e-07
5.01619e-07
5.02328e-07
5.06457e-07
5.26066e-07
6.03484e-07
8.8357e-07
2.02619e-06
5.01508e-07
5.01519e-07
5.01619e-07
5.02328e-07
5.06457e-07
5.26068e-07
6.03489e-07
8.83581e-07
2.02616e-06
5.08599e-07
5.08609e-07
5.08704e-07
5.0938e-07
5.13359e-07
5.32462e-07
6.08624e-07
8.86217e-07
2.02488e-06
5.37345e-07
5.37353e-07
5.3743e-07
5.38e-07
5.41482e-07
5.58832e-07
6.30365e-07
8.97983e-07
2.0195e-06
6.33771e-07
6.33768e-07
6.33769e-07
6.3381e-07
6.34164e-07
6.36556e-07
6.49697e-07
7.08873e-07
9.45516e-07
1.99865e-06
9.40686e-07
9.40652e-07
9.40619e-07
9.406e-07
9.40684e-07
9.41545e-07
9.47489e-07
9.80396e-07
1.13435e-06
1.91899e-06
2.09213e-06
2.09159e-06
2.09111e-06
2.09068e-06
2.09026e-06
2.08959e-06
2.08665e-06
2.06978e-06
1.99513e-06
1.79103e-06
2.09179e-06
2.0913e-06
2.09087e-06
2.09048e-06
2.08984e-06
2.08693e-06
2.07006e-06
1.99536e-06
1.79123e-06
9.40785e-07
9.40705e-07
9.40647e-07
9.40703e-07
9.41549e-07
9.4749e-07
9.80403e-07
1.13436e-06
1.91927e-06
6.33809e-07
6.33793e-07
6.3382e-07
6.34165e-07
6.36557e-07
6.49724e-07
7.08955e-07
9.45594e-07
1.99889e-06
5.37351e-07
5.37352e-07
5.37425e-07
5.37997e-07
5.41508e-07
5.58968e-07
6.30744e-07
8.98482e-07
2.01946e-06
5.08589e-07
5.08597e-07
5.08692e-07
5.09381e-07
5.13431e-07
5.32799e-07
6.09609e-07
8.87763e-07
2.02374e-06
5.01491e-07
5.01501e-07
5.01604e-07
5.02333e-07
5.0656e-07
5.26532e-07
6.04843e-07
8.85694e-07
2.02448e-06
5.0149e-07
5.015e-07
5.01604e-07
5.02333e-07
5.06561e-07
5.26534e-07
6.04848e-07
8.85705e-07
2.02445e-06
5.08582e-07
5.08592e-07
5.08689e-07
5.0938e-07
5.13432e-07
5.32803e-07
6.09622e-07
8.87795e-07
2.02365e-06
5.37332e-07
5.3734e-07
5.37418e-07
5.37996e-07
5.41511e-07
5.58977e-07
6.30766e-07
8.9853e-07
2.01931e-06
6.33766e-07
6.33764e-07
6.33764e-07
6.33805e-07
6.34162e-07
6.36563e-07
6.49739e-07
7.08983e-07
9.45648e-07
1.99872e-06
9.40692e-07
9.40658e-07
9.40626e-07
9.40608e-07
9.40693e-07
9.41556e-07
9.47507e-07
9.80428e-07
1.13439e-06
1.91912e-06
2.09221e-06
2.09168e-06
2.09122e-06
2.09079e-06
2.09039e-06
2.08973e-06
2.0868e-06
2.06994e-06
1.99529e-06
1.79119e-06
2.09188e-06
2.0914e-06
2.09098e-06
2.0906e-06
2.08997e-06
2.08707e-06
2.07021e-06
1.99551e-06
1.79139e-06
9.40803e-07
9.40724e-07
9.40664e-07
9.40718e-07
9.41565e-07
9.4751e-07
9.80431e-07
1.13439e-06
1.91938e-06
6.33811e-07
6.33795e-07
6.33822e-07
6.34168e-07
6.36565e-07
6.49749e-07
7.09011e-07
9.45662e-07
1.99898e-06
5.37348e-07
5.37349e-07
5.37423e-07
5.37999e-07
5.41525e-07
5.5904e-07
6.30923e-07
8.98694e-07
2.01947e-06
5.08584e-07
5.08592e-07
5.08688e-07
5.09385e-07
5.1347e-07
5.32959e-07
6.10029e-07
8.88317e-07
2.02353e-06
5.01485e-07
5.01496e-07
5.016e-07
5.02339e-07
5.06614e-07
5.26748e-07
6.05409e-07
8.86429e-07
2.02417e-06
5.01484e-07
5.01495e-07
5.016e-07
5.02339e-07
5.06614e-07
5.2675e-07
6.05413e-07
8.8644e-07
2.02414e-06
5.08577e-07
5.08587e-07
5.08686e-07
5.09384e-07
5.13471e-07
5.32963e-07
6.10042e-07
8.88347e-07
2.02344e-06
5.37329e-07
5.37337e-07
5.37415e-07
5.37996e-07
5.41527e-07
5.59047e-07
6.30943e-07
8.98739e-07
2.01934e-06
6.33766e-07
6.33763e-07
6.33764e-07
6.33805e-07
6.34162e-07
6.36569e-07
6.4976e-07
7.09035e-07
9.45711e-07
1.99882e-06
9.40699e-07
9.40666e-07
9.40633e-07
9.40616e-07
9.40702e-07
9.41566e-07
9.47522e-07
9.8045e-07
1.13442e-06
1.91924e-06
2.09229e-06
2.09178e-06
2.09132e-06
2.09091e-06
2.09052e-06
2.08987e-06
2.08695e-06
2.0701e-06
1.99545e-06
1.79135e-06
2.09197e-06
2.0915e-06
2.0911e-06
2.09072e-06
2.0901e-06
2.0872e-06
2.07035e-06
1.99566e-06
1.79154e-06
9.40818e-07
9.40741e-07
9.4068e-07
9.40733e-07
9.4158e-07
9.47527e-07
9.80453e-07
1.13443e-06
1.9195e-06
6.33814e-07
6.33798e-07
6.33825e-07
6.34171e-07
6.36571e-07
6.49763e-07
7.0904e-07
9.45703e-07
1.99908e-06
5.37347e-07
5.37349e-07
5.37422e-07
5.38e-07
5.41534e-07
5.59072e-07
6.30998e-07
8.98781e-07
2.01955e-06
5.08582e-07
5.0859e-07
5.08687e-07
5.09388e-07
5.13489e-07
5.33028e-07
6.10194e-07
8.88507e-07
2.02355e-06
5.01483e-07
5.01494e-07
5.01599e-07
5.02343e-07
5.06639e-07
5.26841e-07
6.05628e-07
8.86673e-07
2.02416e-06
5.01482e-07
5.01493e-07
5.01599e-07
5.02343e-07
5.06639e-07
5.26842e-07
6.05633e-07
8.86683e-07
2.02413e-06
5.08575e-07
5.08586e-07
5.08685e-07
5.09386e-07
5.13489e-07
5.33032e-07
6.10206e-07
8.88535e-07
2.02347e-06
5.37328e-07
5.37336e-07
5.37415e-07
5.37997e-07
5.41535e-07
5.59079e-07
6.31017e-07
8.98823e-07
2.01942e-06
6.33767e-07
6.33764e-07
6.33764e-07
6.33806e-07
6.34163e-07
6.36572e-07
6.49772e-07
7.09061e-07
9.45748e-07
1.99893e-06
9.40708e-07
9.40674e-07
9.40641e-07
9.40624e-07
9.4071e-07
9.41576e-07
9.47534e-07
9.80468e-07
1.13445e-06
1.91936e-06
2.09238e-06
2.09187e-06
2.09143e-06
2.09103e-06
2.09065e-06
2.09001e-06
2.0871e-06
2.07026e-06
1.9956e-06
1.7915e-06
2.09205e-06
2.0916e-06
2.09121e-06
2.09085e-06
2.09023e-06
2.08734e-06
2.07049e-06
1.99581e-06
1.79169e-06
9.40831e-07
9.40755e-07
9.40695e-07
9.40748e-07
9.41594e-07
9.47544e-07
9.80474e-07
1.13446e-06
1.9196e-06
6.33816e-07
6.33801e-07
6.33828e-07
6.34174e-07
6.36575e-07
6.49772e-07
7.09058e-07
9.45736e-07
1.99917e-06
5.37347e-07
5.37349e-07
5.37423e-07
5.38001e-07
5.41539e-07
5.59088e-07
6.31033e-07
8.98829e-07
2.01963e-06
5.08581e-07
5.0859e-07
5.08687e-07
5.09389e-07
5.13497e-07
5.33057e-07
6.10259e-07
8.88582e-07
2.02362e-06
5.01482e-07
5.01493e-07
5.01599e-07
5.02344e-07
5.06649e-07
5.26878e-07
6.05712e-07
8.86763e-07
2.02423e-06
5.01481e-07
5.01492e-07
5.01598e-07
5.02344e-07
5.06649e-07
5.26879e-07
6.05716e-07
8.86772e-07
2.0242e-06
5.08574e-07
5.08585e-07
5.08684e-07
5.09387e-07
5.13497e-07
5.3306e-07
6.1027e-07
8.88608e-07
2.02354e-06
5.37327e-07
5.37335e-07
5.37414e-07
5.37997e-07
5.41539e-07
5.59093e-07
6.3105e-07
8.98867e-07
2.01951e-06
6.33768e-07
6.33765e-07
6.33765e-07
6.33806e-07
6.34164e-07
6.36574e-07
6.49778e-07
7.09077e-07
9.45776e-07
1.99903e-06
9.40716e-07
9.40682e-07
9.40648e-07
9.40631e-07
9.40718e-07
9.41586e-07
9.47546e-07
9.80484e-07
1.13448e-06
1.91947e-06
2.09246e-06
2.09197e-06
2.09153e-06
2.09115e-06
2.09078e-06
2.09015e-06
2.08725e-06
2.07041e-06
1.99575e-06
1.79165e-06
2.09214e-06
2.0917e-06
2.09132e-06
2.09097e-06
2.09035e-06
2.08747e-06
2.07063e-06
1.99594e-06
1.79184e-06
9.40842e-07
9.40768e-07
9.40709e-07
9.40762e-07
9.41609e-07
9.47559e-07
9.80493e-07
1.13449e-06
1.9197e-06
6.33818e-07
6.33803e-07
6.3383e-07
6.34177e-07
6.36579e-07
6.49779e-07
7.09073e-07
9.45767e-07
1.99926e-06
5.37347e-07
5.37349e-07
5.37423e-07
5.38002e-07
5.41542e-07
5.59096e-07
6.31052e-07
8.98865e-07
2.01972e-06
5.0858e-07
5.08589e-07
5.08687e-07
5.09389e-07
5.135e-07
5.33069e-07
6.10288e-07
8.88625e-07
2.0237e-06
5.01482e-07
5.01492e-07
5.01598e-07
5.02345e-07
5.06653e-07
5.26894e-07
6.05747e-07
8.8681e-07
2.02431e-06
5.0148e-07
5.01492e-07
5.01598e-07
5.02345e-07
5.06654e-07
5.26895e-07
6.0575e-07
8.86818e-07
2.02428e-06
5.08574e-07
5.08584e-07
5.08684e-07
5.09388e-07
5.135e-07
5.33073e-07
6.10299e-07
8.88649e-07
2.02363e-06
5.37327e-07
5.37335e-07
5.37414e-07
5.37997e-07
5.41541e-07
5.59101e-07
6.31068e-07
8.98899e-07
2.01961e-06
6.3377e-07
6.33766e-07
6.33766e-07
6.33807e-07
6.34165e-07
6.36576e-07
6.49783e-07
7.09089e-07
9.45803e-07
1.99913e-06
9.40725e-07
9.4069e-07
9.40656e-07
9.40639e-07
9.40727e-07
9.41595e-07
9.47558e-07
9.805e-07
1.1345e-06
1.91958e-06
2.09253e-06
2.09206e-06
2.09164e-06
2.09126e-06
2.09091e-06
2.09029e-06
2.08739e-06
2.07055e-06
1.99589e-06
1.79179e-06
2.09223e-06
2.0918e-06
2.09143e-06
2.09108e-06
2.09048e-06
2.08759e-06
2.07076e-06
1.99607e-06
1.79197e-06
9.40851e-07
9.4078e-07
9.40724e-07
9.40777e-07
9.41624e-07
9.47575e-07
9.80512e-07
1.13452e-06
1.91979e-06
6.33819e-07
6.33805e-07
6.33833e-07
6.3418e-07
6.36583e-07
6.49785e-07
7.09086e-07
9.45798e-07
1.99934e-06
5.37347e-07
5.37349e-07
5.37423e-07
5.38003e-07
5.41543e-07
5.59102e-07
6.31067e-07
8.98898e-07
2.0198e-06
5.0858e-07
5.08589e-07
5.08686e-07
5.09389e-07
5.13502e-07
5.33076e-07
6.10306e-07
8.8866e-07
2.02378e-06
5.01481e-07
5.01492e-07
5.01598e-07
5.02345e-07
5.06655e-07
5.26902e-07
6.05766e-07
8.86845e-07
2.02439e-06
5.0148e-07
5.01491e-07
5.01598e-07
5.02345e-07
5.06656e-07
5.26903e-07
6.0577e-07
8.86853e-07
2.02436e-06
5.08573e-07
5.08584e-07
5.08683e-07
5.09388e-07
5.13502e-07
5.33079e-07
6.10316e-07
8.88682e-07
2.02371e-06
5.37327e-07
5.37335e-07
5.37414e-07
5.37997e-07
5.41542e-07
5.59105e-07
6.31081e-07
8.98929e-07
2.01969e-06
6.33771e-07
6.33767e-07
6.33767e-07
6.33808e-07
6.34166e-07
6.36578e-07
6.49788e-07
7.091e-07
9.45829e-07
1.99922e-06
9.40733e-07
9.40699e-07
9.40664e-07
9.40647e-07
9.40735e-07
9.41605e-07
9.47569e-07
9.80516e-07
1.13453e-06
1.91968e-06
2.09261e-06
2.09215e-06
2.09174e-06
2.09138e-06
2.09103e-06
2.09042e-06
2.08752e-06
2.07069e-06
1.99603e-06
1.79193e-06
2.09231e-06
2.0919e-06
2.09154e-06
2.09119e-06
2.09059e-06
2.08772e-06
2.07088e-06
1.99619e-06
1.79209e-06
9.40861e-07
9.40792e-07
9.40737e-07
9.40792e-07
9.41639e-07
9.47592e-07
9.80532e-07
1.13454e-06
1.91987e-06
6.3382e-07
6.33807e-07
6.33836e-07
6.34183e-07
6.36587e-07
6.49791e-07
7.09099e-07
9.45828e-07
1.99941e-06
5.37347e-07
5.37349e-07
5.37423e-07
5.38003e-07
5.41545e-07
5.59107e-07
6.31081e-07
8.9893e-07
2.01987e-06
5.08579e-07
5.08588e-07
5.08686e-07
5.09389e-07
5.13503e-07
5.33081e-07
6.1032e-07
8.88693e-07
2.02385e-06
5.0148e-07
5.01491e-07
5.01598e-07
5.02345e-07
5.06657e-07
5.26907e-07
6.05781e-07
8.86878e-07
2.02446e-06
5.01479e-07
5.01491e-07
5.01597e-07
5.02345e-07
5.06657e-07
5.26908e-07
6.05784e-07
8.86886e-07
2.02444e-06
5.08573e-07
5.08583e-07
5.08683e-07
5.09388e-07
5.13503e-07
5.33084e-07
6.10329e-07
8.88714e-07
2.02379e-06
5.37327e-07
5.37335e-07
5.37414e-07
5.37998e-07
5.41543e-07
5.5911e-07
6.31093e-07
8.98959e-07
2.01977e-06
6.33772e-07
6.33769e-07
6.33768e-07
6.33808e-07
6.34167e-07
6.3658e-07
6.49792e-07
7.0911e-07
9.45855e-07
1.99931e-06
9.40741e-07
9.40707e-07
9.40672e-07
9.40655e-07
9.40743e-07
9.41614e-07
9.47581e-07
9.80531e-07
1.13455e-06
1.91977e-06
2.09269e-06
2.09223e-06
2.09184e-06
2.09149e-06
2.09115e-06
2.09054e-06
2.08765e-06
2.07082e-06
1.99616e-06
1.79205e-06
2.09239e-06
2.09199e-06
2.09164e-06
2.0913e-06
2.09071e-06
2.08783e-06
2.071e-06
1.9963e-06
1.79205e-06
9.40869e-07
9.40802e-07
9.40751e-07
9.40807e-07
9.41655e-07
9.47609e-07
9.80552e-07
1.13457e-06
1.91993e-06
6.33821e-07
6.33809e-07
6.33838e-07
6.34186e-07
6.3659e-07
6.49797e-07
7.09112e-07
9.45858e-07
1.99948e-06
5.37346e-07
5.37349e-07
5.37424e-07
5.38004e-07
5.41547e-07
5.59111e-07
6.31094e-07
8.98963e-07
2.01993e-06
5.08579e-07
5.08588e-07
5.08686e-07
5.09389e-07
5.13504e-07
5.33086e-07
6.10334e-07
8.88726e-07
2.02391e-06
5.0148e-07
5.01491e-07
5.01597e-07
5.02345e-07
5.06658e-07
5.26912e-07
6.05795e-07
8.86911e-07
2.02453e-06
5.01479e-07
5.0149e-07
5.01597e-07
5.02344e-07
5.06658e-07
5.26913e-07
6.05798e-07
8.86918e-07
2.02451e-06
5.08572e-07
5.08583e-07
5.08682e-07
5.09387e-07
5.13504e-07
5.33088e-07
6.10342e-07
8.88745e-07
2.02386e-06
5.37327e-07
5.37335e-07
5.37414e-07
5.37998e-07
5.41544e-07
5.59114e-07
6.31105e-07
8.98989e-07
2.01985e-06
6.33773e-07
6.3377e-07
6.33769e-07
6.3381e-07
6.34168e-07
6.36582e-07
6.49797e-07
7.09121e-07
9.45881e-07
1.99938e-06
9.40748e-07
9.40715e-07
9.40681e-07
9.40663e-07
9.40752e-07
9.41624e-07
9.47593e-07
9.80546e-07
1.13457e-06
1.91984e-06
2.09276e-06
2.09232e-06
2.09193e-06
2.09159e-06
2.09126e-06
2.09066e-06
2.08778e-06
2.07095e-06
1.99628e-06
1.79201e-06
2.09247e-06
2.09207e-06
2.09173e-06
2.09141e-06
2.09082e-06
2.08795e-06
2.07111e-06
1.99632e-06
1.79081e-06
9.40877e-07
9.40813e-07
9.40764e-07
9.40822e-07
9.4167e-07
9.47626e-07
9.8057e-07
1.13457e-06
1.91988e-06
6.33822e-07
6.3381e-07
6.3384e-07
6.34188e-07
6.36594e-07
6.49803e-07
7.09125e-07
9.45884e-07
1.99953e-06
5.37346e-07
5.37349e-07
5.37424e-07
5.38004e-07
5.41548e-07
5.59116e-07
6.31108e-07
8.98995e-07
2.01999e-06
5.08578e-07
5.08587e-07
5.08685e-07
5.09389e-07
5.13505e-07
5.33091e-07
6.10348e-07
8.88759e-07
2.02397e-06
5.01479e-07
5.0149e-07
5.01597e-07
5.02345e-07
5.06659e-07
5.26916e-07
6.05808e-07
8.86943e-07
2.02459e-06
5.01478e-07
5.0149e-07
5.01596e-07
5.02344e-07
5.06659e-07
5.26917e-07
6.05811e-07
8.8695e-07
2.02457e-06
5.08572e-07
5.08583e-07
5.08682e-07
5.09387e-07
5.13505e-07
5.33093e-07
6.10355e-07
8.88776e-07
2.02392e-06
5.37327e-07
5.37334e-07
5.37413e-07
5.37998e-07
5.41545e-07
5.59118e-07
6.31117e-07
8.99018e-07
2.01991e-06
6.33774e-07
6.33771e-07
6.3377e-07
6.33811e-07
6.3417e-07
6.36584e-07
6.49801e-07
7.09132e-07
9.45904e-07
1.99944e-06
9.40754e-07
9.40722e-07
9.40689e-07
9.40672e-07
9.40762e-07
9.41634e-07
9.47604e-07
9.80558e-07
1.13457e-06
1.91981e-06
2.09284e-06
2.0924e-06
2.09202e-06
2.09169e-06
2.09137e-06
2.09077e-06
2.08789e-06
2.07106e-06
1.9963e-06
1.79078e-06
2.09254e-06
2.09216e-06
2.09182e-06
2.09151e-06
2.09092e-06
2.08805e-06
2.0712e-06
1.9959e-06
1.78151e-06
9.40883e-07
9.40821e-07
9.40776e-07
9.40836e-07
9.41686e-07
9.47643e-07
9.80583e-07
1.13451e-06
1.91931e-06
6.33822e-07
6.33812e-07
6.33842e-07
6.34191e-07
6.36597e-07
6.49809e-07
7.09137e-07
9.45903e-07
1.99956e-06
5.37345e-07
5.37349e-07
5.37424e-07
5.38005e-07
5.4155e-07
5.59121e-07
6.31121e-07
8.99026e-07
2.02004e-06
5.08577e-07
5.08587e-07
5.08685e-07
5.09389e-07
5.13506e-07
5.33095e-07
6.10361e-07
8.88791e-07
2.02403e-06
5.01478e-07
5.0149e-07
5.01596e-07
5.02344e-07
5.06659e-07
5.26921e-07
6.05822e-07
8.86975e-07
2.02464e-06
5.01477e-07
5.01489e-07
5.01596e-07
5.02344e-07
5.0666e-07
5.26922e-07
6.05825e-07
8.86981e-07
2.02462e-06
5.08571e-07
5.08582e-07
5.08682e-07
5.09387e-07
5.13506e-07
5.33097e-07
6.10368e-07
8.88807e-07
2.02397e-06
5.37327e-07
5.37334e-07
5.37413e-07
5.37998e-07
5.41546e-07
5.59122e-07
6.31129e-07
8.99047e-07
2.01997e-06
6.33775e-07
6.33772e-07
6.33772e-07
6.33813e-07
6.34172e-07
6.36586e-07
6.49806e-07
7.09141e-07
9.45921e-07
1.99948e-06
9.40759e-07
9.40728e-07
9.40697e-07
9.40682e-07
9.40772e-07
9.41645e-07
9.47616e-07
9.80565e-07
1.13451e-06
1.91924e-06
2.0929e-06
2.09248e-06
2.09211e-06
2.09178e-06
2.09147e-06
2.09088e-06
2.088e-06
2.07116e-06
1.99589e-06
1.78147e-06
2.09261e-06
2.09224e-06
2.09191e-06
2.0916e-06
2.09103e-06
2.08816e-06
2.07125e-06
1.99401e-06
1.81605e-06
9.40887e-07
9.40829e-07
9.40786e-07
9.40849e-07
9.417e-07
9.47657e-07
9.80587e-07
1.13433e-06
1.91709e-06
6.33822e-07
6.33812e-07
6.33844e-07
6.34194e-07
6.36601e-07
6.49815e-07
7.09147e-07
9.45913e-07
1.99952e-06
5.37345e-07
5.37349e-07
5.37424e-07
5.38005e-07
5.41551e-07
5.59126e-07
6.31134e-07
8.99056e-07
2.02009e-06
5.08577e-07
5.08586e-07
5.08685e-07
5.09389e-07
5.13507e-07
5.331e-07
6.10375e-07
8.88824e-07
2.02407e-06
5.01478e-07
5.01489e-07
5.01596e-07
5.02344e-07
5.0666e-07
5.26926e-07
6.05836e-07
8.87008e-07
2.02469e-06
5.01477e-07
5.01488e-07
5.01595e-07
5.02344e-07
5.0666e-07
5.26926e-07
6.05839e-07
8.87014e-07
2.02467e-06
5.08571e-07
5.08582e-07
5.08681e-07
5.09387e-07
5.13507e-07
5.33102e-07
6.10382e-07
8.88839e-07
2.02403e-06
5.37326e-07
5.37334e-07
5.37414e-07
5.37998e-07
5.41548e-07
5.59126e-07
6.31142e-07
8.99076e-07
2.02002e-06
6.33776e-07
6.33773e-07
6.33773e-07
6.33814e-07
6.34174e-07
6.36589e-07
6.49811e-07
7.09151e-07
9.4593e-07
1.99944e-06
9.40764e-07
9.40735e-07
9.40706e-07
9.40692e-07
9.40783e-07
9.41657e-07
9.47629e-07
9.80567e-07
1.13433e-06
1.91702e-06
2.09297e-06
2.09256e-06
2.09219e-06
2.09188e-06
2.09156e-06
2.09098e-06
2.08811e-06
2.07121e-06
1.99399e-06
1.81601e-06
2.09269e-06
2.09232e-06
2.092e-06
2.0917e-06
2.09113e-06
2.08826e-06
2.07134e-06
1.99355e-06
1.8055e-06
9.4089e-07
9.40835e-07
9.40795e-07
9.40859e-07
9.41711e-07
9.47669e-07
9.80595e-07
1.13426e-06
1.91646e-06
6.33822e-07
6.33813e-07
6.33845e-07
6.34196e-07
6.36603e-07
6.4982e-07
7.09158e-07
9.45931e-07
1.99954e-06
5.37344e-07
5.37348e-07
5.37424e-07
5.38005e-07
5.41552e-07
5.5913e-07
6.31147e-07
8.99087e-07
2.02013e-06
5.08576e-07
5.08586e-07
5.08684e-07
5.09389e-07
5.13508e-07
5.33105e-07
6.10389e-07
8.88856e-07
2.02412e-06
5.01477e-07
5.01489e-07
5.01595e-07
5.02344e-07
5.06662e-07
5.2693e-07
6.05851e-07
8.87041e-07
2.02474e-06
5.01476e-07
5.01488e-07
5.01595e-07
5.02344e-07
5.06662e-07
5.26931e-07
6.05853e-07
8.87046e-07
2.02472e-06
5.0857e-07
5.08581e-07
5.08681e-07
5.09387e-07
5.13508e-07
5.33106e-07
6.10396e-07
8.88871e-07
2.02407e-06
5.37326e-07
5.37334e-07
5.37414e-07
5.37999e-07
5.41549e-07
5.59131e-07
6.31155e-07
8.99106e-07
2.02007e-06
6.33776e-07
6.33774e-07
6.33774e-07
6.33816e-07
6.34176e-07
6.36592e-07
6.49816e-07
7.09162e-07
9.45948e-07
1.99946e-06
9.4077e-07
9.40741e-07
9.40714e-07
9.40702e-07
9.40794e-07
9.4167e-07
9.47643e-07
9.80576e-07
1.13426e-06
1.9164e-06
2.09304e-06
2.09263e-06
2.09228e-06
2.09197e-06
2.09166e-06
2.09108e-06
2.08822e-06
2.0713e-06
1.99353e-06
1.80547e-06
2.09275e-06
2.09239e-06
2.09209e-06
2.09179e-06
2.09122e-06
2.08836e-06
2.07144e-06
1.99356e-06
1.80425e-06
9.40892e-07
9.40841e-07
9.40802e-07
9.40868e-07
9.41721e-07
9.47679e-07
9.80606e-07
1.13426e-06
1.91641e-06
6.33822e-07
6.33814e-07
6.33846e-07
6.34197e-07
6.36606e-07
6.49825e-07
7.0917e-07
9.45955e-07
1.99958e-06
5.37344e-07
5.37348e-07
5.37424e-07
5.38006e-07
5.41554e-07
5.59135e-07
6.3116e-07
8.99117e-07
2.02017e-06
5.08576e-07
5.08585e-07
5.08684e-07
5.09389e-07
5.1351e-07
5.3311e-07
6.10403e-07
8.88888e-07
2.02416e-06
5.01477e-07
5.01488e-07
5.01595e-07
5.02344e-07
5.06663e-07
5.26935e-07
6.05865e-07
8.87072e-07
2.02478e-06
5.01476e-07
5.01487e-07
5.01594e-07
5.02344e-07
5.06663e-07
5.26936e-07
6.05867e-07
8.87078e-07
2.02476e-06
5.0857e-07
5.08581e-07
5.08681e-07
5.09387e-07
5.13509e-07
5.33111e-07
6.1041e-07
8.88902e-07
2.02412e-06
5.37326e-07
5.37334e-07
5.37414e-07
5.37999e-07
5.4155e-07
5.59136e-07
6.31168e-07
8.99137e-07
2.02011e-06
6.33778e-07
6.33775e-07
6.33776e-07
6.33818e-07
6.34178e-07
6.36595e-07
6.49822e-07
7.09175e-07
9.45972e-07
1.9995e-06
9.40776e-07
9.40749e-07
9.40723e-07
9.40713e-07
9.40807e-07
9.41682e-07
9.47658e-07
9.80593e-07
1.13426e-06
1.91634e-06
2.0931e-06
2.0927e-06
2.09235e-06
2.09205e-06
2.09175e-06
2.09118e-06
2.08832e-06
2.0714e-06
1.99354e-06
1.80422e-06
2.09281e-06
2.09246e-06
2.09216e-06
2.09187e-06
2.09131e-06
2.08846e-06
2.07153e-06
1.99364e-06
1.8042e-06
9.40896e-07
9.40846e-07
9.4081e-07
9.40877e-07
9.41729e-07
9.47687e-07
9.80616e-07
1.13428e-06
1.91644e-06
6.33822e-07
6.33814e-07
6.33847e-07
6.34198e-07
6.36608e-07
6.49829e-07
7.09181e-07
9.45981e-07
1.99962e-06
5.37343e-07
5.37348e-07
5.37424e-07
5.38006e-07
5.41555e-07
5.59139e-07
6.31173e-07
8.99147e-07
2.02021e-06
5.08575e-07
5.08585e-07
5.08684e-07
5.09389e-07
5.13511e-07
5.33115e-07
6.10417e-07
8.88919e-07
2.0242e-06
5.01476e-07
5.01488e-07
5.01595e-07
5.02344e-07
5.06664e-07
5.2694e-07
6.05879e-07
8.87104e-07
2.02482e-06
5.01475e-07
5.01487e-07
5.01594e-07
5.02344e-07
5.06664e-07
5.26941e-07
6.05881e-07
8.87109e-07
2.0248e-06
5.0857e-07
5.08581e-07
5.08681e-07
5.09387e-07
5.1351e-07
5.33116e-07
6.10423e-07
8.88933e-07
2.02415e-06
5.37326e-07
5.37335e-07
5.37414e-07
5.38e-07
5.41552e-07
5.59141e-07
6.31182e-07
8.99167e-07
2.02014e-06
6.33779e-07
6.33776e-07
6.33778e-07
6.33821e-07
6.34181e-07
6.36598e-07
6.49828e-07
7.09187e-07
9.46e-07
1.99954e-06
9.40783e-07
9.40757e-07
9.40733e-07
9.40725e-07
9.40819e-07
9.41695e-07
9.47673e-07
9.80612e-07
1.13428e-06
1.91638e-06
2.09315e-06
2.09277e-06
2.09242e-06
2.09212e-06
2.09183e-06
2.09127e-06
2.08842e-06
2.07149e-06
1.99361e-06
1.80417e-06
2.09287e-06
2.09253e-06
2.09223e-06
2.09195e-06
2.09139e-06
2.08854e-06
2.07162e-06
1.99373e-06
1.80427e-06
9.409e-07
9.40853e-07
9.40818e-07
9.40885e-07
9.41736e-07
9.47693e-07
9.80627e-07
1.1343e-06
1.91648e-06
6.33822e-07
6.33815e-07
6.33848e-07
6.342e-07
6.36609e-07
6.49833e-07
7.09192e-07
9.46007e-07
1.99965e-06
5.37343e-07
5.37347e-07
5.37424e-07
5.38006e-07
5.41556e-07
5.59144e-07
6.31186e-07
8.99176e-07
2.02024e-06
5.08574e-07
5.08584e-07
5.08683e-07
5.09389e-07
5.13512e-07
5.33119e-07
6.10431e-07
8.88949e-07
2.02423e-06
5.01476e-07
5.01487e-07
5.01594e-07
5.02344e-07
5.06665e-07
5.26945e-07
6.05893e-07
8.87134e-07
2.02484e-06
5.01475e-07
5.01487e-07
5.01594e-07
5.02344e-07
5.06665e-07
5.26946e-07
6.05895e-07
8.87139e-07
2.02483e-06
5.08569e-07
5.0858e-07