/*--------------------------------*- C++ -*----------------------------------*\
| =========                 |                                                 |
| \\      /  F ield         | OpenFOAM: The Open Source CFD Toolbox           |
|  \\    /   O peration     | Version:  2.3.1                                 |
|   \\  /    A nd           | Web:      www.OpenFOAM.org                      |
|    \\/     M anipulation  |                                                 |
\*---------------------------------------------------------------------------*/
FoamFile
{
    version     2.0;
    format      ascii;
    class       volScalarField;
    location    "5";
    object      k;
}
// * * * * * * * * * * * * * * * * * * * * * * * * * * * * * * * * * * * * * //

dimensions      [0 2 -2 0 0 0 0];

internalField   nonuniform List<scalar> 
37784
(
1.06813e-05
1.06775e-05
1.0674e-05
1.06705e-05
1.06662e-05
1.06541e-05
1.05845e-05
1.02275e-05
1.09124e-05
1.05741e-05
1.057e-05
1.05662e-05
1.05626e-05
1.05591e-05
1.05549e-05
1.05436e-05
1.04778e-05
1.01316e-05
1.09027e-05
1.00646e-05
1.00604e-05
1.00564e-05
1.00527e-05
1.00492e-05
1.00455e-05
1.00391e-05
1.00053e-05
9.80353e-06
1.08555e-05
8.47866e-06
8.47511e-06
8.47179e-06
8.46867e-06
8.46573e-06
8.46294e-06
8.46016e-06
8.45678e-06
8.47572e-06
9.90718e-06
2.01096e-05
2.01107e-05
2.01117e-05
2.0112e-05
2.01084e-05
2.00776e-05
1.98855e-05
1.89096e-05
1.4596e-05
1.9784e-05
1.97851e-05
1.97861e-05
1.9787e-05
1.97873e-05
1.97842e-05
1.97558e-05
1.95687e-05
1.85823e-05
1.42463e-05
1.84533e-05
1.84541e-05
1.84549e-05
1.84555e-05
1.84559e-05
1.84549e-05
1.84415e-05
1.83321e-05
1.76329e-05
1.4111e-05
1.33099e-05
1.33075e-05
1.33052e-05
1.33031e-05
1.3301e-05
1.32989e-05
1.32958e-05
1.32831e-05
1.32185e-05
1.33582e-05
2.36105e-05
2.36112e-05
2.36117e-05
2.36112e-05
2.36036e-05
2.35538e-05
2.32891e-05
2.20593e-05
1.58276e-05
2.31605e-05
2.31612e-05
2.31618e-05
2.31622e-05
2.31618e-05
2.31552e-05
2.31082e-05
2.28438e-05
2.15656e-05
1.51551e-05
2.1469e-05
2.14694e-05
2.14698e-05
2.14701e-05
2.14701e-05
2.14672e-05
2.1442e-05
2.12698e-05
2.02935e-05
1.48987e-05
1.4422e-05
1.44191e-05
1.44165e-05
1.44141e-05
1.44117e-05
1.44092e-05
1.44035e-05
1.43722e-05
1.41989e-05
1.3944e-05
2.5223e-05
2.52234e-05
2.52235e-05
2.52221e-05
2.52107e-05
2.51451e-05
2.48312e-05
2.34577e-05
1.6386e-05
2.46889e-05
2.46893e-05
2.46896e-05
2.46898e-05
2.46886e-05
2.46784e-05
2.46157e-05
2.42964e-05
2.28417e-05
1.54996e-05
2.27815e-05
2.27817e-05
2.27818e-05
2.27819e-05
2.27814e-05
2.27766e-05
2.27403e-05
2.25185e-05
2.13626e-05
1.51401e-05
1.48227e-05
1.48197e-05
1.4817e-05
1.48145e-05
1.48121e-05
1.48091e-05
1.48005e-05
1.47495e-05
1.4486e-05
1.40447e-05
2.60448e-05
2.6045e-05
2.60449e-05
2.60426e-05
2.60277e-05
2.59489e-05
2.55972e-05
2.41218e-05
1.66422e-05
2.54481e-05
2.54483e-05
2.54484e-05
2.54484e-05
2.54465e-05
2.54332e-05
2.53575e-05
2.49964e-05
2.34192e-05
1.5642e-05
2.33905e-05
2.33905e-05
2.33905e-05
2.33904e-05
2.33896e-05
2.33829e-05
2.33373e-05
2.30779e-05
2.18026e-05
1.52199e-05
1.49887e-05
1.49857e-05
1.4983e-05
1.49804e-05
1.4978e-05
1.49747e-05
1.49635e-05
1.4898e-05
1.45797e-05
1.40614e-05
2.64815e-05
2.64816e-05
2.64812e-05
2.64783e-05
2.64602e-05
2.63702e-05
2.59873e-05
2.44331e-05
1.67462e-05
2.58371e-05
2.58372e-05
2.58372e-05
2.58369e-05
2.58345e-05
2.58185e-05
2.57325e-05
2.53398e-05
2.36774e-05
1.56992e-05
2.36735e-05
2.36733e-05
2.36732e-05
2.36731e-05
2.36719e-05
2.36638e-05
2.36113e-05
2.33257e-05
2.19767e-05
1.52467e-05
1.50575e-05
1.50546e-05
1.50518e-05
1.50493e-05
1.50469e-05
1.50434e-05
1.50305e-05
1.49565e-05
1.46111e-05
1.40651e-05
2.67142e-05
2.67141e-05
2.67136e-05
2.671e-05
2.66893e-05
2.65896e-05
2.61797e-05
2.4561e-05
1.6764e-05
2.60347e-05
2.60347e-05
2.60346e-05
2.60342e-05
2.60313e-05
2.60134e-05
2.59195e-05
2.55037e-05
2.37852e-05
1.57198e-05
2.38005e-05
2.38003e-05
2.38001e-05
2.37999e-05
2.37985e-05
2.37894e-05
2.37323e-05
2.34304e-05
2.20407e-05
1.52555e-05
1.50845e-05
1.50816e-05
1.50789e-05
1.50764e-05
1.5074e-05
1.50704e-05
1.50567e-05
1.49783e-05
1.46215e-05
1.40667e-05
2.68348e-05
2.68347e-05
2.68341e-05
2.68299e-05
2.68068e-05
2.66985e-05
2.62636e-05
2.45851e-05
1.67101e-05
2.61315e-05
2.61314e-05
2.61313e-05
2.61308e-05
2.61276e-05
2.61081e-05
2.60085e-05
2.55763e-05
2.38223e-05
1.57242e-05
2.38544e-05
2.38542e-05
2.3854e-05
2.38537e-05
2.38523e-05
2.38425e-05
2.37827e-05
2.34716e-05
2.20616e-05
1.52585e-05
1.50946e-05
1.50916e-05
1.5089e-05
1.50866e-05
1.50842e-05
1.50806e-05
1.50664e-05
1.49862e-05
1.4625e-05
1.40678e-05
2.68944e-05
2.68943e-05
2.68935e-05
2.68889e-05
2.68637e-05
2.67473e-05
2.62876e-05
2.45425e-05
1.65593e-05
2.61763e-05
2.61762e-05
2.61761e-05
2.61756e-05
2.61721e-05
2.61515e-05
2.60477e-05
2.56035e-05
2.38261e-05
1.57192e-05
2.38759e-05
2.38756e-05
2.38755e-05
2.38751e-05
2.38736e-05
2.38635e-05
2.3802e-05
2.34859e-05
2.20667e-05
1.52596e-05
1.50982e-05
1.50953e-05
1.50927e-05
1.50903e-05
1.5088e-05
1.50844e-05
1.50701e-05
1.49892e-05
1.46265e-05
1.40688e-05
2.69221e-05
2.6922e-05
2.69211e-05
2.69161e-05
2.68889e-05
2.67649e-05
2.62797e-05
2.44548e-05
1.6278e-05
2.61959e-05
2.61957e-05
2.61956e-05
2.6195e-05
2.61914e-05
2.61699e-05
2.60629e-05
2.56095e-05
2.38141e-05
1.57062e-05
2.38839e-05
2.38836e-05
2.38835e-05
2.38831e-05
2.38816e-05
2.38713e-05
2.38088e-05
2.34898e-05
2.20662e-05
1.52598e-05
1.50995e-05
1.50967e-05
1.50942e-05
1.50919e-05
1.50896e-05
1.50861e-05
1.50718e-05
1.49904e-05
1.46274e-05
1.40697e-05
1.5098e-05
1.50954e-05
1.50932e-05
1.50911e-05
1.50877e-05
1.50735e-05
1.4992e-05
1.46284e-05
1.40708e-05
2.38859e-05
2.38861e-05
2.3886e-05
2.38845e-05
2.38742e-05
2.38112e-05
2.34905e-05
2.20646e-05
1.52607e-05
2.62035e-05
2.62034e-05
2.62029e-05
2.61992e-05
2.61771e-05
2.60676e-05
2.56072e-05
2.37977e-05
1.56907e-05
2.69341e-05
2.6934e-05
2.69331e-05
2.69278e-05
2.68988e-05
2.6768e-05
2.62591e-05
2.43529e-05
1.59285e-05
2.71648e-05
2.71646e-05
2.71636e-05
2.71578e-05
2.71279e-05
2.69979e-05
2.65149e-05
2.47939e-05
2.72267e-05
2.72265e-05
2.72255e-05
2.72198e-05
2.71907e-05
2.70657e-05
2.66084e-05
2.50032e-05
2.72267e-05
2.72265e-05
2.72255e-05
2.72198e-05
2.71907e-05
2.70657e-05
2.66084e-05
2.50031e-05
2.71648e-05
2.71646e-05
2.71636e-05
2.71578e-05
2.71279e-05
2.69979e-05
2.65148e-05
2.47936e-05
2.69342e-05
2.6934e-05
2.69331e-05
2.69277e-05
2.68988e-05
2.67679e-05
2.62589e-05
2.43525e-05
1.59279e-05
2.62038e-05
2.62037e-05
2.62035e-05
2.62029e-05
2.61991e-05
2.6177e-05
2.60674e-05
2.56069e-05
2.3797e-05
1.56897e-05
2.38867e-05
2.38864e-05
2.38863e-05
2.38859e-05
2.38844e-05
2.38739e-05
2.38107e-05
2.349e-05
2.20639e-05
1.52599e-05
1.51002e-05
1.50974e-05
1.50949e-05
1.50927e-05
1.50905e-05
1.5087e-05
1.50727e-05
1.49913e-05
1.4628e-05
1.40707e-05
1.50985e-05
1.5096e-05
1.50938e-05
1.50917e-05
1.50885e-05
1.50743e-05
1.49927e-05
1.46291e-05
1.40717e-05
2.38868e-05
2.38869e-05
2.38869e-05
2.38854e-05
2.3875e-05
2.38115e-05
2.34896e-05
2.20625e-05
1.52611e-05
2.62064e-05
2.62064e-05
2.62059e-05
2.6202e-05
2.61795e-05
2.60681e-05
2.56025e-05
2.37841e-05
1.56843e-05
2.6939e-05
2.69389e-05
2.69379e-05
2.69323e-05
2.6902e-05
2.67656e-05
2.62387e-05
2.42806e-05
1.58221e-05
2.71707e-05
2.71705e-05
2.71694e-05
2.71631e-05
2.71303e-05
2.69885e-05
2.64587e-05
2.45344e-05
1.60589e-05
2.72331e-05
2.72328e-05
2.72317e-05
2.72253e-05
2.71924e-05
2.70513e-05
2.65298e-05
2.46411e-05
1.61645e-05
2.72331e-05
2.72328e-05
2.72317e-05
2.72253e-05
2.71924e-05
2.70513e-05
2.65297e-05
2.4641e-05
1.61643e-05
2.71707e-05
2.71705e-05
2.71694e-05
2.71631e-05
2.71303e-05
2.69884e-05
2.64586e-05
2.45341e-05
1.60583e-05
2.69391e-05
2.69389e-05
2.6938e-05
2.69323e-05
2.69019e-05
2.67655e-05
2.62385e-05
2.42802e-05
1.58213e-05
2.62068e-05
2.62067e-05
2.62065e-05
2.62059e-05
2.6202e-05
2.61793e-05
2.60679e-05
2.56022e-05
2.37835e-05
1.56833e-05
2.38876e-05
2.38874e-05
2.38872e-05
2.38869e-05
2.38853e-05
2.38747e-05
2.38111e-05
2.34892e-05
2.20619e-05
1.52602e-05
1.51006e-05
1.50979e-05
1.50955e-05
1.50933e-05
1.50912e-05
1.50878e-05
1.50735e-05
1.4992e-05
1.46287e-05
1.40716e-05
1.50989e-05
1.50964e-05
1.50943e-05
1.50923e-05
1.50891e-05
1.5075e-05
1.49934e-05
1.46298e-05
1.40726e-05
2.3887e-05
2.38872e-05
2.38871e-05
2.38857e-05
2.38752e-05
2.38114e-05
2.34888e-05
2.20611e-05
1.52616e-05
2.62075e-05
2.62074e-05
2.62069e-05
2.6203e-05
2.61801e-05
2.60675e-05
2.55987e-05
2.37759e-05
1.56826e-05
2.69409e-05
2.69407e-05
2.69397e-05
2.69339e-05
2.69026e-05
2.67624e-05
2.6224e-05
2.42408e-05
1.5797e-05
2.7173e-05
2.71728e-05
2.71716e-05
2.71649e-05
2.71301e-05
2.69799e-05
2.64211e-05
2.44039e-05
1.58547e-05
2.72356e-05
2.72353e-05
2.72341e-05
2.72271e-05
2.71914e-05
2.70391e-05
2.64776e-05
2.44587e-05
1.58748e-05
2.72356e-05
2.72353e-05
2.72341e-05
2.72271e-05
2.71914e-05
2.70391e-05
2.64776e-05
2.44586e-05
1.58746e-05
2.7173e-05
2.71728e-05
2.71716e-05
2.71649e-05
2.71301e-05
2.69799e-05
2.6421e-05
2.44036e-05
1.58542e-05
2.6941e-05
2.69407e-05
2.69398e-05
2.69339e-05
2.69025e-05
2.67623e-05
2.62239e-05
2.42403e-05
1.57962e-05
2.62078e-05
2.62077e-05
2.62076e-05
2.62069e-05
2.6203e-05
2.618e-05
2.60673e-05
2.55984e-05
2.37753e-05
1.56816e-05
2.38879e-05
2.38877e-05
2.38875e-05
2.38872e-05
2.38856e-05
2.38749e-05
2.3811e-05
2.34884e-05
2.20606e-05
1.52608e-05
1.5101e-05
1.50984e-05
1.5096e-05
1.50939e-05
1.50918e-05
1.50885e-05
1.50742e-05
1.49927e-05
1.46294e-05
1.40725e-05
1.50993e-05
1.50969e-05
1.50948e-05
1.50929e-05
1.50897e-05
1.50756e-05
1.49941e-05
1.46305e-05
1.40736e-05
2.3887e-05
2.38872e-05
2.38871e-05
2.38857e-05
2.38752e-05
2.38112e-05
2.34883e-05
2.20604e-05
1.52623e-05
2.62078e-05
2.62077e-05
2.62072e-05
2.62033e-05
2.61801e-05
2.60668e-05
2.55962e-05
2.37717e-05
1.56825e-05
2.69415e-05
2.69413e-05
2.69404e-05
2.69343e-05
2.69024e-05
2.67599e-05
2.62153e-05
2.42221e-05
1.57915e-05
2.71739e-05
2.71736e-05
2.71724e-05
2.71654e-05
2.71292e-05
2.6974e-05
2.64e-05
2.43476e-05
1.58193e-05
2.72365e-05
2.72362e-05
2.72349e-05
2.72275e-05
2.71901e-05
2.7031e-05
2.64484e-05
2.43806e-05
1.58256e-05
2.72365e-05
2.72362e-05
2.72349e-05
2.72275e-05
2.71901e-05
2.7031e-05
2.64484e-05
2.43805e-05
1.58254e-05
2.71739e-05
2.71736e-05
2.71724e-05
2.71654e-05
2.71292e-05
2.6974e-05
2.63999e-05
2.43473e-05
1.58188e-05
2.69416e-05
2.69414e-05
2.69404e-05
2.69343e-05
2.69023e-05
2.67598e-05
2.62152e-05
2.42217e-05
1.57907e-05
2.62082e-05
2.6208e-05
2.62079e-05
2.62072e-05
2.62032e-05
2.618e-05
2.60666e-05
2.5596e-05
2.37711e-05
1.56815e-05
2.3888e-05
2.38878e-05
2.38876e-05
2.38873e-05
2.38856e-05
2.3875e-05
2.38109e-05
2.34879e-05
2.20599e-05
1.52614e-05
1.51014e-05
1.50988e-05
1.50965e-05
1.50944e-05
1.50924e-05
1.50891e-05
1.5075e-05
1.49934e-05
1.46301e-05
1.40734e-05
1.50998e-05
1.50974e-05
1.50953e-05
1.50935e-05
1.50904e-05
1.50763e-05
1.49948e-05
1.46313e-05
1.40744e-05
2.38869e-05
2.38871e-05
2.38871e-05
2.38857e-05
2.38751e-05
2.38111e-05
2.3488e-05
2.206e-05
1.52629e-05
2.62079e-05
2.62078e-05
2.62073e-05
2.62033e-05
2.618e-05
2.60663e-05
2.55949e-05
2.37698e-05
1.56828e-05
2.69417e-05
2.69415e-05
2.69405e-05
2.69344e-05
2.69021e-05
2.67583e-05
2.62108e-05
2.42143e-05
1.57904e-05
2.71741e-05
2.71739e-05
2.71727e-05
2.71654e-05
2.71285e-05
2.69706e-05
2.63894e-05
2.43258e-05
1.58128e-05
2.72368e-05
2.72365e-05
2.72352e-05
2.72275e-05
2.71891e-05
2.70263e-05
2.64341e-05
2.43504e-05
1.58167e-05
2.72368e-05
2.72365e-05
2.72352e-05
2.72275e-05
2.71891e-05
2.70263e-05
2.6434e-05
2.43503e-05
1.58165e-05
2.71742e-05
2.71739e-05
2.71727e-05
2.71654e-05
2.71285e-05
2.69706e-05
2.63893e-05
2.43255e-05
1.58123e-05
2.69418e-05
2.69416e-05
2.69406e-05
2.69344e-05
2.69021e-05
2.67582e-05
2.62106e-05
2.42139e-05
1.57897e-05
2.62083e-05
2.62081e-05
2.6208e-05
2.62073e-05
2.62033e-05
2.618e-05
2.60661e-05
2.55946e-05
2.37693e-05
1.56819e-05
2.3888e-05
2.38878e-05
2.38876e-05
2.38873e-05
2.38857e-05
2.3875e-05
2.38108e-05
2.34877e-05
2.20596e-05
1.52621e-05
1.51018e-05
1.50993e-05
1.5097e-05
1.5095e-05
1.5093e-05
1.50898e-05
1.50757e-05
1.49942e-05
1.46309e-05
1.40742e-05
1.51002e-05
1.50979e-05
1.50959e-05
1.50941e-05
1.5091e-05
1.5077e-05
1.49955e-05
1.4632e-05
1.40753e-05
2.38869e-05
2.3887e-05
2.3887e-05
2.38857e-05
2.38751e-05
2.3811e-05
2.34878e-05
2.20598e-05
1.52635e-05
2.62079e-05
2.62078e-05
2.62073e-05
2.62033e-05
2.618e-05
2.6066e-05
2.55942e-05
2.3769e-05
1.56833e-05
2.69418e-05
2.69416e-05
2.69406e-05
2.69344e-05
2.69019e-05
2.67575e-05
2.62087e-05
2.42113e-05
1.57905e-05
2.71742e-05
2.7174e-05
2.71727e-05
2.71654e-05
2.71281e-05
2.69688e-05
2.63847e-05
2.43179e-05
1.58117e-05
2.72368e-05
2.72366e-05
2.72352e-05
2.72275e-05
2.71884e-05
2.70239e-05
2.64276e-05
2.43397e-05
1.58151e-05
2.72368e-05
2.72366e-05
2.72352e-05
2.72275e-05
2.71884e-05
2.70239e-05
2.64276e-05
2.43396e-05
1.58149e-05
2.71742e-05
2.7174e-05
2.71727e-05
2.71654e-05
2.71281e-05
2.69688e-05
2.63846e-05
2.43176e-05
1.58113e-05
2.69419e-05
2.69416e-05
2.69406e-05
2.69344e-05
2.69018e-05
2.67574e-05
2.62085e-05
2.42109e-05
1.57898e-05
2.62083e-05
2.62082e-05
2.6208e-05
2.62074e-05
2.62033e-05
2.61799e-05
2.60659e-05
2.5594e-05
2.37685e-05
1.56824e-05
2.3888e-05
2.38878e-05
2.38876e-05
2.38873e-05
2.38857e-05
2.3875e-05
2.38108e-05
2.34875e-05
2.20594e-05
1.52628e-05
1.51022e-05
1.50997e-05
1.50975e-05
1.50955e-05
1.50937e-05
1.50905e-05
1.50764e-05
1.4995e-05
1.46317e-05
1.40751e-05
1.51006e-05
1.50984e-05
1.50964e-05
1.50946e-05
1.50916e-05
1.50776e-05
1.49962e-05
1.46327e-05
1.40761e-05
2.38868e-05
2.3887e-05
2.3887e-05
2.38856e-05
2.38751e-05
2.38109e-05
2.34877e-05
2.20597e-05
1.52641e-05
2.62078e-05
2.62078e-05
2.62072e-05
2.62033e-05
2.61799e-05
2.60658e-05
2.55938e-05
2.37686e-05
1.56838e-05
2.69417e-05
2.69416e-05
2.69406e-05
2.69344e-05
2.69017e-05
2.6757e-05
2.62077e-05
2.42102e-05
1.57909e-05
2.71742e-05
2.7174e-05
2.71727e-05
2.71653e-05
2.71278e-05
2.6968e-05
2.63827e-05
2.43152e-05
1.58118e-05
2.72368e-05
2.72366e-05
2.72352e-05
2.72274e-05
2.71881e-05
2.70228e-05
2.64249e-05
2.43361e-05
1.5815e-05
2.72368e-05
2.72366e-05
2.72352e-05
2.72274e-05
2.71881e-05
2.70228e-05
2.64249e-05
2.4336e-05
1.58149e-05
2.71742e-05
2.7174e-05
2.71727e-05
2.71653e-05
2.71278e-05
2.6968e-05
2.63826e-05
2.4315e-05
1.58114e-05
2.69419e-05
2.69416e-05
2.69406e-05
2.69344e-05
2.69017e-05
2.6757e-05
2.62076e-05
2.42098e-05
1.57902e-05
2.62083e-05
2.62081e-05
2.6208e-05
2.62074e-05
2.62033e-05
2.61799e-05
2.60657e-05
2.55937e-05
2.37682e-05
1.5683e-05
2.3888e-05
2.38878e-05
2.38877e-05
2.38874e-05
2.38857e-05
2.3875e-05
2.38108e-05
2.34875e-05
2.20593e-05
1.52634e-05
1.51026e-05
1.51002e-05
1.5098e-05
1.50961e-05
1.50943e-05
1.50912e-05
1.50772e-05
1.49957e-05
1.46324e-05
1.40759e-05
1.51011e-05
1.50989e-05
1.5097e-05
1.50952e-05
1.50922e-05
1.50783e-05
1.49969e-05
1.46334e-05
1.40769e-05
2.38868e-05
2.3887e-05
2.3887e-05
2.38856e-05
2.38751e-05
2.38109e-05
2.34876e-05
2.20596e-05
1.52647e-05
2.62078e-05
2.62078e-05
2.62072e-05
2.62032e-05
2.61799e-05
2.60657e-05
2.55936e-05
2.37684e-05
1.56843e-05
2.69417e-05
2.69416e-05
2.69405e-05
2.69344e-05
2.69017e-05
2.67568e-05
2.62073e-05
2.42097e-05
1.57913e-05
2.71742e-05
2.7174e-05
2.71727e-05
2.71653e-05
2.71277e-05
2.69676e-05
2.63818e-05
2.43143e-05
1.58122e-05
2.72368e-05
2.72366e-05
2.72352e-05
2.72274e-05
2.7188e-05
2.70223e-05
2.64238e-05
2.43349e-05
1.58154e-05
2.72368e-05
2.72366e-05
2.72352e-05
2.72274e-05
2.71879e-05
2.70223e-05
2.64238e-05
2.43348e-05
1.58152e-05
2.71742e-05
2.7174e-05
2.71727e-05
2.71653e-05
2.71277e-05
2.69676e-05
2.63817e-05
2.43141e-05
1.58118e-05
2.69418e-05
2.69416e-05
2.69406e-05
2.69344e-05
2.69016e-05
2.67568e-05
2.62071e-05
2.42094e-05
1.57907e-05
2.62082e-05
2.62081e-05
2.6208e-05
2.62073e-05
2.62033e-05
2.61798e-05
2.60656e-05
2.55935e-05
2.3768e-05
1.56835e-05
2.3888e-05
2.38878e-05
2.38877e-05
2.38874e-05
2.38858e-05
2.38751e-05
2.38108e-05
2.34875e-05
2.20593e-05
1.5264e-05
1.5103e-05
1.51006e-05
1.50985e-05
1.50967e-05
1.50949e-05
1.50919e-05
1.50779e-05
1.49965e-05
1.46332e-05
1.40767e-05
1.51015e-05
1.50994e-05
1.50975e-05
1.50958e-05
1.50928e-05
1.50789e-05
1.49975e-05
1.46341e-05
1.40776e-05
2.38868e-05
2.38869e-05
2.38869e-05
2.38856e-05
2.3875e-05
2.38109e-05
2.34876e-05
2.20595e-05
1.52652e-05
2.62078e-05
2.62077e-05
2.62072e-05
2.62032e-05
2.61798e-05
2.60656e-05
2.55935e-05
2.37682e-05
1.56847e-05
2.69417e-05
2.69415e-05
2.69405e-05
2.69343e-05
2.69016e-05
2.67567e-05
2.62071e-05
2.42095e-05
1.57918e-05
2.71742e-05
2.71739e-05
2.71727e-05
2.71653e-05
2.71276e-05
2.69674e-05
2.63815e-05
2.43139e-05
1.58126e-05
2.72368e-05
2.72366e-05
2.72352e-05
2.72273e-05
2.71879e-05
2.70221e-05
2.64234e-05
2.43345e-05
1.58158e-05
2.72368e-05
2.72366e-05
2.72352e-05
2.72273e-05
2.71879e-05
2.70221e-05
2.64233e-05
2.43344e-05
1.58156e-05
2.71742e-05
2.71739e-05
2.71727e-05
2.71653e-05
2.71276e-05
2.69674e-05
2.63814e-05
2.43137e-05
1.58122e-05
2.69418e-05
2.69416e-05
2.69406e-05
2.69344e-05
2.69016e-05
2.67567e-05
2.62069e-05
2.42091e-05
1.57912e-05
2.62082e-05
2.62081e-05
2.6208e-05
2.62073e-05
2.62033e-05
2.61798e-05
2.60656e-05
2.55934e-05
2.37678e-05
1.56841e-05
2.3888e-05
2.38878e-05
2.38877e-05
2.38874e-05
2.38858e-05
2.38751e-05
2.38108e-05
2.34874e-05
2.20592e-05
1.52646e-05
1.51034e-05
1.51011e-05
1.5099e-05
1.50972e-05
1.50955e-05
1.50925e-05
1.50785e-05
1.49972e-05
1.46339e-05
1.40774e-05
1.51019e-05
1.50998e-05
1.5098e-05
1.50964e-05
1.50934e-05
1.50795e-05
1.49981e-05
1.46348e-05
1.40783e-05
2.38868e-05
2.38869e-05
2.38869e-05
2.38856e-05
2.3875e-05
2.38108e-05
2.34875e-05
2.20593e-05
1.52657e-05
2.62078e-05
2.62077e-05
2.62072e-05
2.62032e-05
2.61798e-05
2.60656e-05
2.55934e-05
2.3768e-05
1.56852e-05
2.69417e-05
2.69415e-05
2.69405e-05
2.69343e-05
2.69016e-05
2.67566e-05
2.62069e-05
2.42093e-05
1.57922e-05
2.71741e-05
2.71739e-05
2.71726e-05
2.71652e-05
2.71276e-05
2.69673e-05
2.63813e-05
2.43137e-05
1.5813e-05
2.72368e-05
2.72365e-05
2.72352e-05
2.72273e-05
2.71878e-05
2.7022e-05
2.64232e-05
2.43342e-05
1.58162e-05
2.72368e-05
2.72365e-05
2.72352e-05
2.72273e-05
2.71878e-05
2.7022e-05
2.64231e-05
2.43341e-05
1.58161e-05
2.71742e-05
2.71739e-05
2.71727e-05
2.71652e-05
2.71276e-05
2.69673e-05
2.63812e-05
2.43135e-05
1.58126e-05
2.69418e-05
2.69416e-05
2.69406e-05
2.69343e-05
2.69016e-05
2.67566e-05
2.62068e-05
2.4209e-05
1.57917e-05
2.62082e-05
2.62081e-05
2.6208e-05
2.62073e-05
2.62033e-05
2.61798e-05
2.60655e-05
2.55933e-05
2.37677e-05
1.56845e-05
2.3888e-05
2.38878e-05
2.38877e-05
2.38874e-05
2.38858e-05
2.38751e-05
2.38108e-05
2.34874e-05
2.20591e-05
1.52651e-05
1.51037e-05
1.51015e-05
1.50995e-05
1.50978e-05
1.50961e-05
1.50931e-05
1.50792e-05
1.49978e-05
1.46346e-05
1.40781e-05
1.51023e-05
1.51003e-05
1.50986e-05
1.50969e-05
1.5094e-05
1.50801e-05
1.49987e-05
1.46353e-05
1.40789e-05
2.38868e-05
2.38869e-05
2.38869e-05
2.38855e-05
2.3875e-05
2.38108e-05
2.34874e-05
2.20592e-05
1.52661e-05
2.62077e-05
2.62077e-05
2.62071e-05
2.62031e-05
2.61797e-05
2.60655e-05
2.55933e-05
2.37678e-05
1.56855e-05
2.69417e-05
2.69415e-05
2.69405e-05
2.69343e-05
2.69015e-05
2.67566e-05
2.62068e-05
2.42091e-05
1.57926e-05
2.71741e-05
2.71739e-05
2.71726e-05
2.71652e-05
2.71275e-05
2.69673e-05
2.63811e-05
2.43135e-05
1.58134e-05
2.72368e-05
2.72365e-05
2.72351e-05
2.72273e-05
2.71878e-05
2.70219e-05
2.6423e-05
2.4334e-05
1.58166e-05
2.72368e-05
2.72365e-05
2.72351e-05
2.72273e-05
2.71878e-05
2.70219e-05
2.6423e-05
2.43339e-05
1.58165e-05
2.71741e-05
2.71739e-05
2.71726e-05
2.71652e-05
2.71275e-05
2.69672e-05
2.63811e-05
2.43133e-05
1.5813e-05
2.69418e-05
2.69416e-05
2.69405e-05
2.69343e-05
2.69015e-05
2.67565e-05
2.62067e-05
2.42088e-05
1.57921e-05
2.62082e-05
2.62081e-05
2.62079e-05
2.62073e-05
2.62032e-05
2.61798e-05
2.60655e-05
2.55932e-05
2.37676e-05
1.5685e-05
2.3888e-05
2.38878e-05
2.38877e-05
2.38874e-05
2.38859e-05
2.38751e-05
2.38108e-05
2.34874e-05
2.20591e-05
1.52656e-05
1.51041e-05
1.51019e-05
1.51e-05
1.50983e-05
1.50967e-05
1.50937e-05
1.50798e-05
1.49985e-05
1.46352e-05
1.40787e-05
1.51027e-05
1.51007e-05
1.5099e-05
1.50974e-05
1.50946e-05
1.50807e-05
1.49993e-05
1.46359e-05
1.40788e-05
2.38868e-05
2.38869e-05
2.38869e-05
2.38855e-05
2.38749e-05
2.38108e-05
2.34873e-05
2.2059e-05
1.52664e-05
2.62077e-05
2.62077e-05
2.62071e-05
2.62031e-05
2.61797e-05
2.60655e-05
2.55932e-05
2.37676e-05
1.56859e-05
2.69416e-05
2.69415e-05
2.69405e-05
2.69343e-05
2.69015e-05
2.67565e-05
2.62067e-05
2.42089e-05
1.57929e-05
2.71741e-05
2.71739e-05
2.71726e-05
2.71652e-05
2.71275e-05
2.69672e-05
2.6381e-05
2.43133e-05
1.58137e-05
2.72367e-05
2.72365e-05
2.72351e-05
2.72273e-05
2.71877e-05
2.70218e-05
2.64229e-05
2.43338e-05
1.58169e-05
2.72367e-05
2.72365e-05
2.72351e-05
2.72273e-05
2.71877e-05
2.70218e-05
2.64229e-05
2.43338e-05
1.58168e-05
2.71741e-05
2.71739e-05
2.71726e-05
2.71652e-05
2.71275e-05
2.69672e-05
2.6381e-05
2.43131e-05
1.58134e-05
2.69417e-05
2.69415e-05
2.69405e-05
2.69343e-05
2.69015e-05
2.67565e-05
2.62066e-05
2.42086e-05
1.57924e-05
2.62081e-05
2.62081e-05
2.62079e-05
2.62073e-05
2.62032e-05
2.61798e-05
2.60655e-05
2.55931e-05
2.37674e-05
1.56854e-05
2.3888e-05
2.38878e-05
2.38877e-05
2.38875e-05
2.38859e-05
2.38751e-05
2.38108e-05
2.34873e-05
2.20589e-05
1.5266e-05
1.51045e-05
1.51023e-05
1.51005e-05
1.50988e-05
1.50972e-05
1.50943e-05
1.50804e-05
1.49991e-05
1.46357e-05
1.40786e-05
1.51031e-05
1.51012e-05
1.50995e-05
1.50979e-05
1.50951e-05
1.50812e-05
1.49998e-05
1.4636e-05
1.40723e-05
2.38868e-05
2.38869e-05
2.38868e-05
2.38855e-05
2.38749e-05
2.38107e-05
2.34872e-05
2.20588e-05
1.52662e-05
2.62077e-05
2.62076e-05
2.62071e-05
2.62031e-05
2.61797e-05
2.60654e-05
2.55931e-05
2.37674e-05
1.56862e-05
2.69416e-05
2.69414e-05
2.69404e-05
2.69342e-05
2.69015e-05
2.67565e-05
2.62066e-05
2.42087e-05
1.57932e-05
2.71741e-05
2.71738e-05
2.71726e-05
2.71652e-05
2.71275e-05
2.69671e-05
2.63809e-05
2.43131e-05
1.5814e-05
2.72367e-05
2.72365e-05
2.72351e-05
2.72272e-05
2.71877e-05
2.70218e-05
2.64228e-05
2.43336e-05
1.58172e-05
2.72367e-05
2.72365e-05
2.72351e-05
2.72272e-05
2.71877e-05
2.70218e-05
2.64228e-05
2.43336e-05
1.58171e-05
2.71741e-05
2.71739e-05
2.71726e-05
2.71652e-05
2.71275e-05
2.69671e-05
2.63809e-05
2.43129e-05
1.58137e-05
2.69417e-05
2.69415e-05
2.69405e-05
2.69343e-05
2.69015e-05
2.67564e-05
2.62065e-05
2.42085e-05
1.57928e-05
2.62081e-05
2.6208e-05
2.62079e-05
2.62073e-05
2.62032e-05
2.61797e-05
2.60654e-05
2.5593e-05
2.37672e-05
1.56857e-05
2.3888e-05
2.38878e-05
2.38877e-05
2.38875e-05
2.38859e-05
2.38751e-05
2.38108e-05
2.34873e-05
2.20587e-05
1.52658e-05
1.51048e-05
1.51027e-05
1.51009e-05
1.50993e-05
1.50977e-05
1.50949e-05
1.5081e-05
1.49996e-05
1.46359e-05
1.40721e-05
1.51034e-05
1.51016e-05
1.50999e-05
1.50984e-05
1.50956e-05
1.50817e-05
1.50003e-05
1.46339e-05
1.40234e-05
2.38868e-05
2.38869e-05
2.38868e-05
2.38854e-05
2.38749e-05
2.38106e-05
2.34871e-05
2.20581e-05
1.52631e-05
2.62077e-05
2.62076e-05
2.62071e-05
2.62031e-05
2.61796e-05
2.60654e-05
2.5593e-05
2.37672e-05
1.56863e-05
2.69416e-05
2.69414e-05
2.69404e-05
2.69342e-05
2.69014e-05
2.67564e-05
2.62065e-05
2.42085e-05
1.57935e-05
2.71741e-05
2.71738e-05
2.71726e-05
2.71651e-05
2.71275e-05
2.69671e-05
2.63808e-05
2.43129e-05
1.58143e-05
2.72367e-05
2.72364e-05
2.72351e-05
2.72272e-05
2.71877e-05
2.70217e-05
2.64227e-05
2.43334e-05
1.58175e-05
2.72367e-05
2.72364e-05
2.72351e-05
2.72272e-05
2.71877e-05
2.70217e-05
2.64227e-05
2.43334e-05
1.58174e-05
2.71741e-05
2.71738e-05
2.71726e-05
2.71652e-05
2.71275e-05
2.69671e-05
2.63808e-05
2.43128e-05
1.5814e-05
2.69417e-05
2.69415e-05
2.69405e-05
2.69343e-05
2.69015e-05
2.67564e-05
2.62064e-05
2.42083e-05
1.57931e-05
2.62081e-05
2.6208e-05
2.62079e-05
2.62073e-05
2.62032e-05
2.61797e-05
2.60654e-05
2.55929e-05
2.3767e-05
1.56859e-05
2.3888e-05
2.38879e-05
2.38877e-05
2.38875e-05
2.38859e-05
2.38751e-05
2.38108e-05
2.34872e-05
2.20581e-05
1.52627e-05
1.51052e-05
1.51031e-05
1.51013e-05
1.50997e-05
1.50982e-05
1.50954e-05
1.50815e-05
1.50001e-05
1.46339e-05
1.40232e-05
1.51038e-05
1.51019e-05
1.51004e-05
1.50989e-05
1.50961e-05
1.50823e-05
1.50005e-05
1.46246e-05
1.374e-05
2.38868e-05
2.38869e-05
2.38868e-05
2.38854e-05
2.38748e-05
2.38106e-05
2.34869e-05
2.20569e-05
1.52513e-05
2.62077e-05
2.62076e-05
2.6207e-05
2.6203e-05
2.61796e-05
2.60653e-05
2.55929e-05
2.37669e-05
1.56861e-05
2.69416e-05
2.69414e-05
2.69404e-05
2.69342e-05
2.69014e-05
2.67563e-05
2.62064e-05
2.42083e-05
1.57937e-05
2.7174e-05
2.71738e-05
2.71725e-05
2.71651e-05
2.71274e-05
2.6967e-05
2.63807e-05
2.43127e-05
1.58145e-05
2.72367e-05
2.72364e-05
2.72351e-05
2.72272e-05
2.71877e-05
2.70217e-05
2.64226e-05
2.43332e-05
1.58178e-05
2.72367e-05
2.72364e-05
2.72351e-05
2.72272e-05
2.71877e-05
2.70217e-05
2.64225e-05
2.43332e-05
1.58177e-05
2.71741e-05
2.71738e-05
2.71726e-05
2.71651e-05
2.71274e-05
2.6967e-05
2.63806e-05
2.43126e-05
1.58143e-05
2.69417e-05
2.69415e-05
2.69405e-05
2.69342e-05
2.69014e-05
2.67563e-05
2.62063e-05
2.42081e-05
1.57933e-05
2.62081e-05
2.6208e-05
2.62079e-05
2.62072e-05
2.62032e-05
2.61797e-05
2.60653e-05
2.55928e-05
2.37667e-05
1.56857e-05
2.3888e-05
2.38879e-05
2.38877e-05
2.38875e-05
2.38859e-05
2.38751e-05
2.38108e-05
2.3487e-05
2.20569e-05
1.5251e-05
1.51055e-05
1.51035e-05
1.51017e-05
1.51002e-05
1.50987e-05
1.50959e-05
1.5082e-05
1.50003e-05
1.46246e-05
1.37398e-05
1.51041e-05
1.51023e-05
1.51008e-05
1.50993e-05
1.50966e-05
1.50828e-05
1.5001e-05
1.46224e-05
1.36867e-05
2.38868e-05
2.38869e-05
2.38868e-05
2.38854e-05
2.38748e-05
2.38106e-05
2.34868e-05
2.20562e-05
1.5248e-05
2.62077e-05
2.62076e-05
2.6207e-05
2.6203e-05
2.61796e-05
2.60653e-05
2.55928e-05
2.37666e-05
1.56862e-05
2.69416e-05
2.69414e-05
2.69404e-05
2.69342e-05
2.69014e-05
2.67563e-05
2.62063e-05
2.42081e-05
1.5794e-05
2.7174e-05
2.71738e-05
2.71725e-05
2.71651e-05
2.71274e-05
2.6967e-05
2.63806e-05
2.43125e-05
1.58148e-05
2.72367e-05
2.72364e-05
2.7235e-05
2.72272e-05
2.71876e-05
2.70216e-05
2.64225e-05
2.4333e-05
1.5818e-05
2.72367e-05
2.72364e-05
2.7235e-05
2.72272e-05
2.71876e-05
2.70216e-05
2.64224e-05
2.4333e-05
1.58179e-05
2.7174e-05
2.71738e-05
2.71725e-05
2.71651e-05
2.71274e-05
2.6967e-05
2.63805e-05
2.43124e-05
1.58145e-05
2.69417e-05
2.69415e-05
2.69404e-05
2.69342e-05
2.69014e-05
2.67563e-05
2.62062e-05
2.42079e-05
1.57936e-05
2.62081e-05
2.6208e-05
2.62079e-05
2.62072e-05
2.62031e-05
2.61797e-05
2.60653e-05
2.55927e-05
2.37665e-05
1.56858e-05
2.3888e-05
2.38879e-05
2.38877e-05
2.38875e-05
2.38859e-05
2.38751e-05
2.38107e-05
2.34869e-05
2.20562e-05
1.52477e-05
1.51058e-05
1.51038e-05
1.51021e-05
1.51006e-05
1.50992e-05
1.50964e-05
1.50825e-05
1.50008e-05
1.46223e-05
1.36865e-05
1.51044e-05
1.51027e-05
1.51012e-05
1.50998e-05
1.5097e-05
1.50832e-05
1.50014e-05
1.46225e-05
1.36803e-05
2.38868e-05
2.38869e-05
2.38868e-05
2.38854e-05
2.38748e-05
2.38106e-05
2.34867e-05
2.2056e-05
1.52477e-05
2.62076e-05
2.62076e-05
2.6207e-05
2.6203e-05
2.61796e-05
2.60652e-05
2.55927e-05
2.37664e-05
1.56864e-05
2.69415e-05
2.69414e-05
2.69403e-05
2.69341e-05
2.69014e-05
2.67562e-05
2.62061e-05
2.42079e-05
1.57942e-05
2.7174e-05
2.71738e-05
2.71725e-05
2.71651e-05
2.71274e-05
2.69669e-05
2.63805e-05
2.43123e-05
1.5815e-05
2.72366e-05
2.72364e-05
2.7235e-05
2.72271e-05
2.71876e-05
2.70216e-05
2.64223e-05
2.43328e-05
1.58182e-05
2.72366e-05
2.72364e-05
2.7235e-05
2.72271e-05
2.71876e-05
2.70215e-05
2.64223e-05
2.43328e-05
1.58182e-05
2.7174e-05
2.71738e-05
2.71725e-05
2.71651e-05
2.71274e-05
2.69669e-05
2.63804e-05
2.43122e-05
1.58148e-05
2.69416e-05
2.69414e-05
2.69404e-05
2.69342e-05
2.69014e-05
2.67562e-05
2.62061e-05
2.42077e-05
1.57938e-05
2.62081e-05
2.6208e-05
2.62078e-05
2.62072e-05
2.62031e-05
2.61796e-05
2.60652e-05
2.55926e-05
2.37663e-05
1.5686e-05
2.3888e-05
2.38879e-05
2.38877e-05
2.38874e-05
2.38858e-05
2.38751e-05
2.38107e-05
2.34868e-05
2.2056e-05
1.52474e-05
1.51061e-05
1.51042e-05
1.51025e-05
1.5101e-05
1.50996e-05
1.50968e-05
1.5083e-05
1.50013e-05
1.46224e-05
1.36802e-05
1.51047e-05
1.5103e-05
1.51016e-05
1.51002e-05
1.50975e-05
1.50837e-05
1.50019e-05
1.46229e-05
1.36801e-05
2.38869e-05
2.38869e-05
2.38868e-05
2.38854e-05
2.38748e-05
2.38106e-05
2.34867e-05
2.20558e-05
1.52479e-05
2.62076e-05
2.62076e-05
2.6207e-05
2.6203e-05
2.61795e-05
2.60652e-05
2.55926e-05
2.37662e-05
1.56866e-05
2.69415e-05
2.69413e-05
2.69403e-05
2.69341e-05
2.69013e-05
2.67562e-05
2.6206e-05
2.42077e-05
1.57944e-05
2.7174e-05
2.71737e-05
2.71725e-05
2.71651e-05
2.71273e-05
2.69669e-05
2.63804e-05
2.43121e-05
1.58152e-05
2.72366e-05
2.72364e-05
2.7235e-05
2.72271e-05
2.71876e-05
2.70215e-05
2.64222e-05
2.43326e-05
1.58184e-05
2.72366e-05
2.72364e-05
2.7235e-05
2.72271e-05
2.71876e-05
2.70215e-05
2.64222e-05
2.43326e-05
1.58183e-05
2.7174e-05
2.71738e-05
2.71725e-05
2.71651e-05
2.71273e-05
2.69669e-05
2.63803e-05
2.4312e-05
1.5815e-05
2.69416e-05
2.69414e-05
2.69404e-05
2.69342e-05
2.69013e-05
2.67562e-05
2.6206e-05
2.42075e-05
1.5794e-05
2.6208e-05
2.62079e-05
2.62078e-05
2.62072e-05
2.62031e-05
2.61796e-05
2.60652e-05
2.55925e-05
2.37661e-05
1.56862e-05
2.3888e-05
2.38878e-05
2.38877e-05
2.38874e-05
2.38858e-05
2.38751e-05
2.38106e-05
2.34867e-05
2.20558e-05
1.52476e-05
1.51064e-05
1.51045e-05
1.51028e-05
1.51014e-05
1.51e-05
1.50973e-05
1.50835e-05
1.50017e-05
1.46227e-05
1.368e-05
1.5105e-05
1.51033e-05
1.51019e-05
1.51005e-05
1.50978e-05
1.50841e-05
1.50023e-05
1.46233e-05
1.36804e-05
2.38869e-05
2.38869e-05
2.38868e-05
2.38854e-05
2.38748e-05
2.38106e-05
2.34867e-05
2.20557e-05
1.52481e-05
2.62076e-05
2.62075e-05
2.6207e-05
2.6203e-05
2.61795e-05
2.60651e-05
2.55925e-05
2.37661e-05
1.56868e-05
2.69415e-05
2.69413e-05
2.69403e-05
2.69341e-05
2.69013e-05
2.67561e-05
2.62059e-05
2.42075e-05
1.57945e-05
2.71739e-05
2.71737e-05
2.71725e-05
2.7165e-05
2.71273e-05
2.69668e-05
2.63803e-05
2.43119e-05
1.58153e-05
2.72366e-05
2.72363e-05
2.7235e-05
2.72271e-05
2.71875e-05
2.70214e-05
2.64221e-05
2.43324e-05
1.58186e-05
2.72366e-05
2.72364e-05
2.7235e-05
2.72271e-05
2.71875e-05
2.70214e-05
2.64221e-05
2.43324e-05
1.58185e-05
2.7174e-05
2.71737e-05
2.71725e-05