/*--------------------------------*- C++ -*----------------------------------*\
| =========                 |                                                 |
| \\      /  F ield         | OpenFOAM: The Open Source CFD Toolbox           |
|  \\    /   O peration     | Version:  2.3.1                                 |
|   \\  /    A nd           | Web:      www.OpenFOAM.org                      |
|    \\/     M anipulation  |                                                 |
\*---------------------------------------------------------------------------*/
FoamFile
{
    version     2.0;
    format      ascii;
    class       volScalarField;
    location    "5";
    object      k_0;
}
// * * * * * * * * * * * * * * * * * * * * * * * * * * * * * * * * * * * * * //

dimensions      [0 2 -2 0 0 0 0];

internalField   nonuniform List<scalar> 
37784
(
1.06845e-05
1.06807e-05
1.06771e-05
1.06736e-05
1.06694e-05
1.06572e-05
1.05877e-05
1.02309e-05
1.09166e-05
1.05774e-05
1.05732e-05
1.05694e-05
1.05658e-05
1.05623e-05
1.05582e-05
1.05469e-05
1.04811e-05
1.01352e-05
1.09069e-05
1.00681e-05
1.00639e-05
1.00599e-05
1.00562e-05
1.00527e-05
1.0049e-05
1.00426e-05
1.00089e-05
9.80718e-06
1.08598e-05
8.4824e-06
8.47886e-06
8.47554e-06
8.47242e-06
8.46949e-06
8.46669e-06
8.46392e-06
8.46055e-06
8.47949e-06
9.91131e-06
2.01133e-05
2.01145e-05
2.01154e-05
2.01158e-05
2.01121e-05
2.00814e-05
1.98895e-05
1.89139e-05
1.46004e-05
1.9788e-05
1.97891e-05
1.97901e-05
1.9791e-05
1.97913e-05
1.97882e-05
1.97598e-05
1.95729e-05
1.85869e-05
1.42508e-05
1.84578e-05
1.84587e-05
1.84594e-05
1.846e-05
1.84604e-05
1.84594e-05
1.8446e-05
1.83367e-05
1.76378e-05
1.41157e-05
1.33144e-05
1.3312e-05
1.33098e-05
1.33076e-05
1.33056e-05
1.33035e-05
1.33004e-05
1.32876e-05
1.32231e-05
1.33629e-05
2.36139e-05
2.36145e-05
2.3615e-05
2.36145e-05
2.3607e-05
2.35572e-05
2.32927e-05
2.20633e-05
1.58317e-05
2.31641e-05
2.31648e-05
2.31654e-05
2.31659e-05
2.31655e-05
2.31588e-05
2.31119e-05
2.28477e-05
2.15699e-05
1.51595e-05
2.14732e-05
2.14736e-05
2.1474e-05
2.14743e-05
2.14743e-05
2.14714e-05
2.14463e-05
2.12742e-05
2.02982e-05
1.49032e-05
1.44263e-05
1.44235e-05
1.44208e-05
1.44184e-05
1.44161e-05
1.44135e-05
1.44079e-05
1.43765e-05
1.42034e-05
1.39486e-05
2.52258e-05
2.52262e-05
2.52263e-05
2.52249e-05
2.52135e-05
2.5148e-05
2.48343e-05
2.34613e-05
1.63899e-05
2.46921e-05
2.46924e-05
2.46928e-05
2.46929e-05
2.46918e-05
2.46816e-05
2.46189e-05
2.42999e-05
2.28456e-05
1.55038e-05
2.27853e-05
2.27855e-05
2.27856e-05
2.27857e-05
2.27853e-05
2.27804e-05
2.27442e-05
2.25225e-05
2.1367e-05
1.51445e-05
1.48268e-05
1.48239e-05
1.48211e-05
1.48186e-05
1.48162e-05
1.48133e-05
1.48046e-05
1.47537e-05
1.44903e-05
1.40493e-05
2.60472e-05
2.60474e-05
2.60473e-05
2.6045e-05
2.60301e-05
2.59514e-05
2.55999e-05
2.4125e-05
1.66459e-05
2.54509e-05
2.54511e-05
2.54512e-05
2.54511e-05
2.54493e-05
2.5436e-05
2.53603e-05
2.49995e-05
2.34228e-05
1.56461e-05
2.3394e-05
2.3394e-05
2.3394e-05
2.33939e-05
2.33931e-05
2.33864e-05
2.33409e-05
2.30816e-05
2.18068e-05
1.52242e-05
1.49927e-05
1.49897e-05
1.4987e-05
1.49845e-05
1.4982e-05
1.49788e-05
1.49676e-05
1.49021e-05
1.4584e-05
1.4066e-05
2.64837e-05
2.64837e-05
2.64834e-05
2.64804e-05
2.64624e-05
2.63725e-05
2.59898e-05
2.44361e-05
1.67498e-05
2.58396e-05
2.58397e-05
2.58397e-05
2.58395e-05
2.5837e-05
2.58211e-05
2.57352e-05
2.53427e-05
2.36808e-05
1.57032e-05
2.36768e-05
2.36766e-05
2.36765e-05
2.36763e-05
2.36752e-05
2.36671e-05
2.36147e-05
2.33293e-05
2.19807e-05
1.5251e-05
1.50615e-05
1.50585e-05
1.50558e-05
1.50533e-05
1.50508e-05
1.50474e-05
1.50345e-05
1.49605e-05
1.46153e-05
1.40697e-05
2.67161e-05
2.67161e-05
2.67156e-05
2.6712e-05
2.66913e-05
2.65917e-05
2.6182e-05
2.45639e-05
1.67676e-05
2.60371e-05
2.6037e-05
2.6037e-05
2.60366e-05
2.60337e-05
2.60158e-05
2.5922e-05
2.55064e-05
2.37885e-05
1.57238e-05
2.38036e-05
2.38034e-05
2.38033e-05
2.3803e-05
2.38017e-05
2.37926e-05
2.37356e-05
2.34339e-05
2.20446e-05
1.52598e-05
1.50885e-05
1.50855e-05
1.50828e-05
1.50804e-05
1.50779e-05
1.50743e-05
1.50606e-05
1.49823e-05
1.46257e-05
1.40712e-05
2.68366e-05
2.68365e-05
2.68359e-05
2.68317e-05
2.68087e-05
2.67005e-05
2.62659e-05
2.4588e-05
1.67138e-05
2.61337e-05
2.61337e-05
2.61336e-05
2.61331e-05
2.61299e-05
2.61104e-05
2.60109e-05
2.55789e-05
2.38256e-05
1.57282e-05
2.38575e-05
2.38572e-05
2.38571e-05
2.38568e-05
2.38553e-05
2.38456e-05
2.37858e-05
2.34749e-05
2.20656e-05
1.52628e-05
1.50984e-05
1.50955e-05
1.50929e-05
1.50905e-05
1.50881e-05
1.50845e-05
1.50704e-05
1.49902e-05
1.46293e-05
1.40723e-05
2.68962e-05
2.6896e-05
2.68953e-05
2.68907e-05
2.68654e-05
2.67492e-05
2.62898e-05
2.45453e-05
1.6563e-05
2.61785e-05
2.61784e-05
2.61783e-05
2.61778e-05
2.61743e-05
2.61537e-05
2.60501e-05
2.56062e-05
2.38294e-05
1.57232e-05
2.38789e-05
2.38787e-05
2.38785e-05
2.38782e-05
2.38767e-05
2.38666e-05
2.38052e-05
2.34893e-05
2.20707e-05
1.52638e-05
1.5102e-05
1.50992e-05
1.50966e-05
1.50942e-05
1.50919e-05
1.50883e-05
1.50741e-05
1.49932e-05
1.46307e-05
1.40733e-05
2.69238e-05
2.69237e-05
2.69228e-05
2.69178e-05
2.68907e-05
2.67668e-05
2.62819e-05
2.44577e-05
1.62818e-05
2.6198e-05
2.61979e-05
2.61978e-05
2.61972e-05
2.61936e-05
2.61721e-05
2.60652e-05
2.56121e-05
2.38174e-05
1.57102e-05
2.38869e-05
2.38867e-05
2.38865e-05
2.38862e-05
2.38846e-05
2.38743e-05
2.38119e-05
2.34932e-05
2.20701e-05
1.52641e-05
1.51034e-05
1.51006e-05
1.50981e-05
1.50958e-05
1.50935e-05
1.509e-05
1.50757e-05
1.49944e-05
1.46316e-05
1.40743e-05
1.51019e-05
1.50993e-05
1.50971e-05
1.5095e-05
1.50916e-05
1.50774e-05
1.4996e-05
1.46326e-05
1.40753e-05
2.3889e-05
2.38891e-05
2.3889e-05
2.38876e-05
2.38772e-05
2.38143e-05
2.34938e-05
2.20685e-05
1.5265e-05
2.62056e-05
2.62056e-05
2.6205e-05
2.62013e-05
2.61793e-05
2.60699e-05
2.56098e-05
2.3801e-05
1.56947e-05
2.69358e-05
2.69357e-05
2.69348e-05
2.69294e-05
2.69006e-05
2.67698e-05
2.62613e-05
2.43558e-05
1.59324e-05
2.71662e-05
2.7166e-05
2.7165e-05
2.71593e-05
2.71294e-05
2.69996e-05
2.65169e-05
2.47966e-05
2.72281e-05
2.72279e-05
2.72269e-05
2.72212e-05
2.71921e-05
2.70673e-05
2.66103e-05
2.50058e-05
2.72281e-05
2.72279e-05
2.72269e-05
2.72212e-05
2.71921e-05
2.70673e-05
2.66103e-05
2.50057e-05
2.71662e-05
2.7166e-05
2.7165e-05
2.71593e-05
2.71294e-05
2.69995e-05
2.65168e-05
2.47963e-05
2.69359e-05
2.69357e-05
2.69348e-05
2.69294e-05
2.69005e-05
2.67698e-05
2.62611e-05
2.43554e-05
1.59318e-05
2.62059e-05
2.62058e-05
2.62057e-05
2.62051e-05
2.62013e-05
2.61792e-05
2.60698e-05
2.56095e-05
2.38003e-05
1.56938e-05
2.38897e-05
2.38895e-05
2.38893e-05
2.3889e-05
2.38874e-05
2.38769e-05
2.38138e-05
2.34933e-05
2.20679e-05
1.52641e-05
1.51041e-05
1.51013e-05
1.50988e-05
1.50966e-05
1.50944e-05
1.50909e-05
1.50766e-05
1.49952e-05
1.46322e-05
1.40752e-05
1.51024e-05
1.50999e-05
1.50977e-05
1.50956e-05
1.50924e-05
1.50782e-05
1.49967e-05
1.46333e-05
1.40762e-05
2.38898e-05
2.389e-05
2.38899e-05
2.38884e-05
2.3878e-05
2.38146e-05
2.3493e-05
2.20664e-05
1.52653e-05
2.62086e-05
2.62085e-05
2.6208e-05
2.62042e-05
2.61817e-05
2.60704e-05
2.56052e-05
2.37874e-05
1.56884e-05
2.69407e-05
2.69405e-05
2.69396e-05
2.6934e-05
2.69037e-05
2.67675e-05
2.62409e-05
2.42836e-05
1.5826e-05
2.71722e-05
2.71719e-05
2.71709e-05
2.71645e-05
2.71318e-05
2.69901e-05
2.64607e-05
2.45371e-05
1.60626e-05
2.72344e-05
2.72342e-05
2.72331e-05
2.72266e-05
2.71938e-05
2.70529e-05
2.65317e-05
2.46437e-05
1.61682e-05
2.72344e-05
2.72342e-05
2.72331e-05
2.72266e-05
2.71938e-05
2.70529e-05
2.65317e-05
2.46436e-05
1.6168e-05
2.71722e-05
2.71719e-05
2.71709e-05
2.71645e-05
2.71318e-05
2.69901e-05
2.64606e-05
2.45368e-05
1.6062e-05
2.69408e-05
2.69406e-05
2.69396e-05
2.69339e-05
2.69037e-05
2.67674e-05
2.62407e-05
2.42831e-05
1.58252e-05
2.62089e-05
2.62088e-05
2.62086e-05
2.6208e-05
2.62041e-05
2.61815e-05
2.60703e-05
2.56049e-05
2.37868e-05
1.56873e-05
2.38906e-05
2.38904e-05
2.38902e-05
2.38899e-05
2.38883e-05
2.38777e-05
2.38142e-05
2.34925e-05
2.20658e-05
1.52645e-05
1.51045e-05
1.51018e-05
1.50994e-05
1.50972e-05
1.50951e-05
1.50917e-05
1.50774e-05
1.49959e-05
1.46329e-05
1.40761e-05
1.51028e-05
1.51003e-05
1.50982e-05
1.50962e-05
1.5093e-05
1.50789e-05
1.49974e-05
1.4634e-05
1.40772e-05
2.389e-05
2.38902e-05
2.38901e-05
2.38887e-05
2.38782e-05
2.38145e-05
2.34922e-05
2.20651e-05
1.52659e-05
2.62096e-05
2.62096e-05
2.6209e-05
2.62051e-05
2.61823e-05
2.60698e-05
2.56013e-05
2.37792e-05
1.56867e-05
2.69425e-05
2.69424e-05
2.69414e-05
2.69355e-05
2.69043e-05
2.67642e-05
2.62263e-05
2.42438e-05
1.58009e-05
2.71745e-05
2.71742e-05
2.71731e-05
2.71663e-05
2.71316e-05
2.69816e-05
2.64232e-05
2.44067e-05
1.58586e-05
2.72369e-05
2.72367e-05
2.72354e-05
2.72284e-05
2.71928e-05
2.70407e-05
2.64796e-05
2.44615e-05
1.58786e-05
2.72369e-05
2.72367e-05
2.72354e-05
2.72284e-05
2.71928e-05
2.70407e-05
2.64795e-05
2.44614e-05
1.58784e-05
2.71745e-05
2.71742e-05
2.71731e-05
2.71663e-05
2.71316e-05
2.69815e-05
2.64231e-05
2.44064e-05
1.58581e-05
2.69426e-05
2.69424e-05
2.69414e-05
2.69355e-05
2.69042e-05
2.67642e-05
2.62261e-05
2.42433e-05
1.58001e-05
2.621e-05
2.62099e-05
2.62097e-05
2.62091e-05
2.62051e-05
2.61822e-05
2.60696e-05
2.5601e-05
2.37786e-05
1.56857e-05
2.38909e-05
2.38907e-05
2.38905e-05
2.38902e-05
2.38886e-05
2.38779e-05
2.38141e-05
2.34918e-05
2.20645e-05
1.5265e-05
1.51049e-05
1.51023e-05
1.50999e-05
1.50977e-05
1.50957e-05
1.50924e-05
1.50781e-05
1.49967e-05
1.46336e-05
1.4077e-05
1.51032e-05
1.51008e-05
1.50987e-05
1.50968e-05
1.50936e-05
1.50796e-05
1.49981e-05
1.46347e-05
1.40781e-05
2.389e-05
2.38902e-05
2.38901e-05
2.38887e-05
2.38782e-05
2.38143e-05
2.34916e-05
2.20643e-05
1.52665e-05
2.62099e-05
2.62099e-05
2.62093e-05
2.62054e-05
2.61823e-05
2.60691e-05
2.55988e-05
2.3775e-05
1.56865e-05
2.69432e-05
2.6943e-05
2.6942e-05
2.6936e-05
2.69041e-05
2.67617e-05
2.62176e-05
2.42251e-05
1.57954e-05
2.71753e-05
2.71751e-05
2.71738e-05
2.71668e-05
2.71307e-05
2.69757e-05
2.6402e-05
2.43505e-05
1.58232e-05
2.72378e-05
2.72376e-05
2.72363e-05
2.72289e-05
2.71915e-05
2.70326e-05
2.64504e-05
2.43834e-05
1.58295e-05
2.72378e-05
2.72375e-05
2.72363e-05
2.72289e-05
2.71915e-05
2.70326e-05
2.64504e-05
2.43833e-05
1.58293e-05
2.71753e-05
2.71751e-05
2.71739e-05
2.71668e-05
2.71307e-05
2.69757e-05
2.64019e-05
2.43502e-05
1.58227e-05
2.69433e-05
2.6943e-05
2.6942e-05
2.6936e-05
2.6904e-05
2.67616e-05
2.62174e-05
2.42247e-05
1.57946e-05
2.62103e-05
2.62102e-05
2.621e-05
2.62094e-05
2.62054e-05
2.61822e-05
2.60689e-05
2.55986e-05
2.37744e-05
1.56856e-05
2.3891e-05
2.38908e-05
2.38906e-05
2.38903e-05
2.38887e-05
2.3878e-05
2.3814e-05
2.34913e-05
2.20638e-05
1.52657e-05
1.51053e-05
1.51027e-05
1.51004e-05
1.50983e-05
1.50963e-05
1.5093e-05
1.50789e-05
1.49974e-05
1.46343e-05
1.40779e-05
1.51037e-05
1.51013e-05
1.50992e-05
1.50974e-05
1.50943e-05
1.50802e-05
1.49988e-05
1.46355e-05
1.4079e-05
2.389e-05
2.38901e-05
2.38901e-05
2.38887e-05
2.38782e-05
2.38142e-05
2.34913e-05
2.2064e-05
1.52672e-05
2.621e-05
2.621e-05
2.62094e-05
2.62055e-05
2.61822e-05
2.60686e-05
2.55975e-05
2.37731e-05
1.56868e-05
2.69434e-05
2.69432e-05
2.69422e-05
2.69361e-05
2.69038e-05
2.67602e-05
2.6213e-05
2.42173e-05
1.57944e-05
2.71756e-05
2.71753e-05
2.71741e-05
2.71669e-05
2.713e-05
2.69723e-05
2.63915e-05
2.43287e-05
1.58167e-05
2.72381e-05
2.72378e-05
2.72365e-05
2.72289e-05
2.71905e-05
2.70279e-05
2.64361e-05
2.43533e-05
1.58206e-05
2.72381e-05
2.72378e-05
2.72365e-05
2.72289e-05
2.71905e-05
2.70279e-05
2.6436e-05
2.43532e-05
1.58204e-05
2.71756e-05
2.71753e-05
2.71741e-05
2.71669e-05
2.713e-05
2.69722e-05
2.63914e-05
2.43284e-05
1.58162e-05
2.69435e-05
2.69433e-05
2.69422e-05
2.69361e-05
2.69038e-05
2.67601e-05
2.62129e-05
2.42169e-05
1.57936e-05
2.62104e-05
2.62103e-05
2.62101e-05
2.62095e-05
2.62055e-05
2.61822e-05
2.60684e-05
2.55973e-05
2.37726e-05
1.56859e-05
2.3891e-05
2.38908e-05
2.38906e-05
2.38903e-05
2.38887e-05
2.3878e-05
2.38139e-05
2.3491e-05
2.20635e-05
1.52664e-05
1.51057e-05
1.51032e-05
1.51009e-05
1.50989e-05
1.50969e-05
1.50937e-05
1.50796e-05
1.49982e-05
1.46351e-05
1.40788e-05
1.51041e-05
1.51018e-05
1.50998e-05
1.50979e-05
1.50949e-05
1.50809e-05
1.49995e-05
1.46362e-05
1.40798e-05
2.38899e-05
2.38901e-05
2.38901e-05
2.38887e-05
2.38782e-05
2.38141e-05
2.34912e-05
2.20638e-05
1.52678e-05
2.621e-05
2.621e-05
2.62094e-05
2.62054e-05
2.61821e-05
2.60683e-05
2.55968e-05
2.37723e-05
1.56873e-05
2.69434e-05
2.69432e-05
2.69422e-05
2.69361e-05
2.69036e-05
2.67593e-05
2.62109e-05
2.42143e-05
1.57944e-05
2.71756e-05
2.71754e-05
2.71741e-05
2.71668e-05
2.71296e-05
2.69705e-05
2.63867e-05
2.43208e-05
1.58156e-05
2.72382e-05
2.72379e-05
2.72366e-05
2.72288e-05
2.71899e-05
2.70255e-05
2.64296e-05
2.43426e-05
1.5819e-05
2.72382e-05
2.72379e-05
2.72366e-05
2.72288e-05
2.71899e-05
2.70255e-05
2.64296e-05
2.43425e-05
1.58188e-05
2.71756e-05
2.71754e-05
2.71741e-05
2.71668e-05
2.71296e-05
2.69705e-05
2.63866e-05
2.43205e-05
1.58152e-05
2.69435e-05
2.69433e-05
2.69423e-05
2.69361e-05
2.69036e-05
2.67593e-05
2.62107e-05
2.42139e-05
1.57937e-05
2.62104e-05
2.62103e-05
2.62102e-05
2.62095e-05
2.62055e-05
2.61821e-05
2.60682e-05
2.55966e-05
2.37718e-05
1.56865e-05
2.3891e-05
2.38908e-05
2.38907e-05
2.38903e-05
2.38887e-05
2.3878e-05
2.38139e-05
2.34909e-05
2.20634e-05
1.5267e-05
1.51061e-05
1.51036e-05
1.51014e-05
1.50994e-05
1.50975e-05
1.50944e-05
1.50803e-05
1.4999e-05
1.46359e-05
1.40796e-05
1.51045e-05
1.51023e-05
1.51003e-05
1.50985e-05
1.50955e-05
1.50816e-05
1.50002e-05
1.46369e-05
1.40806e-05
2.38899e-05
2.389e-05
2.389e-05
2.38887e-05
2.38781e-05
2.38141e-05
2.34911e-05
2.20636e-05
1.52684e-05
2.621e-05
2.62099e-05
2.62094e-05
2.62054e-05
2.61821e-05
2.60681e-05
2.55965e-05
2.37719e-05
1.56878e-05
2.69434e-05
2.69432e-05
2.69422e-05
2.69361e-05
2.69035e-05
2.67589e-05
2.621e-05
2.42132e-05
1.57948e-05
2.71756e-05
2.71754e-05
2.71741e-05
2.71668e-05
2.71293e-05
2.69697e-05
2.63847e-05
2.43181e-05
1.58157e-05
2.72382e-05
2.72379e-05
2.72366e-05
2.72288e-05
2.71895e-05
2.70244e-05
2.64269e-05
2.4339e-05
1.58189e-05
2.72382e-05
2.72379e-05
2.72366e-05
2.72288e-05
2.71895e-05
2.70244e-05
2.64269e-05
2.43389e-05
1.58188e-05
2.71757e-05
2.71754e-05
2.71741e-05
2.71668e-05
2.71293e-05
2.69696e-05
2.63846e-05
2.43179e-05
1.58153e-05
2.69435e-05
2.69433e-05
2.69423e-05
2.69361e-05
2.69034e-05
2.67588e-05
2.62098e-05
2.42128e-05
1.57942e-05
2.62104e-05
2.62103e-05
2.62101e-05
2.62095e-05
2.62054e-05
2.61821e-05
2.6068e-05
2.55963e-05
2.37715e-05
1.5687e-05
2.3891e-05
2.38908e-05
2.38907e-05
2.38904e-05
2.38888e-05
2.38781e-05
2.38139e-05
2.34909e-05
2.20633e-05
1.52677e-05
1.51065e-05
1.51041e-05
1.51019e-05
1.51e-05
1.50982e-05
1.50951e-05
1.50811e-05
1.49997e-05
1.46366e-05
1.40804e-05
1.51049e-05
1.51028e-05
1.51009e-05
1.50991e-05
1.50961e-05
1.50822e-05
1.50009e-05
1.46376e-05
1.40814e-05
2.38898e-05
2.389e-05
2.389e-05
2.38886e-05
2.38781e-05
2.3814e-05
2.3491e-05
2.20635e-05
1.52689e-05
2.62099e-05
2.62099e-05
2.62094e-05
2.62054e-05
2.6182e-05
2.6068e-05
2.55963e-05
2.37717e-05
1.56883e-05
2.69434e-05
2.69432e-05
2.69422e-05
2.6936e-05
2.69034e-05
2.67587e-05
2.62095e-05
2.42127e-05
1.57953e-05
2.71756e-05
2.71754e-05
2.71741e-05
2.71667e-05
2.71292e-05
2.69693e-05
2.63839e-05
2.43172e-05
1.58161e-05
2.72382e-05
2.72379e-05
2.72366e-05
2.72287e-05
2.71894e-05
2.70239e-05
2.64258e-05
2.43378e-05
1.58193e-05
2.72382e-05
2.72379e-05
2.72366e-05
2.72287e-05
2.71894e-05
2.70239e-05
2.64258e-05
2.43377e-05
1.58191e-05
2.71756e-05
2.71754e-05
2.71741e-05
2.71667e-05
2.71292e-05
2.69692e-05
2.63838e-05
2.4317e-05
1.58157e-05
2.69435e-05
2.69433e-05
2.69422e-05
2.69361e-05
2.69034e-05
2.67586e-05
2.62094e-05
2.42124e-05
1.57947e-05
2.62104e-05
2.62103e-05
2.62101e-05
2.62095e-05
2.62054e-05
2.6182e-05
2.60679e-05
2.55961e-05
2.37713e-05
1.56876e-05
2.3891e-05
2.38908e-05
2.38907e-05
2.38904e-05
2.38888e-05
2.38781e-05
2.38139e-05
2.34908e-05
2.20632e-05
1.52682e-05
1.51069e-05
1.51045e-05
1.51024e-05
1.51006e-05
1.50988e-05
1.50958e-05
1.50818e-05
1.50004e-05
1.46374e-05
1.40812e-05
1.51054e-05
1.51033e-05
1.51014e-05
1.50997e-05
1.50967e-05
1.50828e-05
1.50015e-05
1.46383e-05
1.40822e-05
2.38898e-05
2.389e-05
2.389e-05
2.38886e-05
2.38781e-05
2.3814e-05
2.34909e-05
2.20634e-05
1.52694e-05
2.62099e-05
2.62099e-05
2.62093e-05
2.62054e-05
2.6182e-05
2.60679e-05
2.55962e-05
2.37715e-05
1.56888e-05
2.69434e-05
2.69432e-05
2.69422e-05
2.6936e-05
2.69033e-05
2.67586e-05
2.62093e-05
2.42125e-05
1.57957e-05
2.71756e-05
2.71754e-05
2.71741e-05
2.71667e-05
2.71291e-05
2.69691e-05
2.63835e-05
2.43168e-05
1.58165e-05
2.72382e-05
2.72379e-05
2.72365e-05
2.72287e-05
2.71893e-05
2.70237e-05
2.64254e-05
2.43373e-05
1.58197e-05
2.72382e-05
2.72379e-05
2.72365e-05
2.72287e-05
2.71893e-05
2.70237e-05
2.64254e-05
2.43373e-05
1.58196e-05
2.71756e-05
2.71754e-05
2.71741e-05
2.71667e-05
2.71291e-05
2.69691e-05
2.63835e-05
2.43166e-05
1.58161e-05
2.69435e-05
2.69433e-05
2.69422e-05
2.6936e-05
2.69033e-05
2.67585e-05
2.62092e-05
2.42122e-05
1.57951e-05
2.62104e-05
2.62103e-05
2.62101e-05
2.62095e-05
2.62054e-05
2.6182e-05
2.60679e-05
2.5596e-05
2.37712e-05
1.56881e-05
2.3891e-05
2.38909e-05
2.38907e-05
2.38904e-05
2.38888e-05
2.38781e-05
2.38139e-05
2.34908e-05
2.20632e-05
1.52688e-05
1.51073e-05
1.5105e-05
1.51029e-05
1.51011e-05
1.50994e-05
1.50964e-05
1.50824e-05
1.50011e-05
1.46381e-05
1.40819e-05
1.51058e-05
1.51037e-05
1.51019e-05
1.51003e-05
1.50973e-05
1.50834e-05
1.50021e-05
1.46389e-05
1.40829e-05
2.38898e-05
2.38899e-05
2.38899e-05
2.38886e-05
2.38781e-05
2.3814e-05
2.34909e-05
2.20633e-05
1.52699e-05
2.62099e-05
2.62098e-05
2.62093e-05
2.62053e-05
2.6182e-05
2.60679e-05
2.55961e-05
2.37713e-05
1.56892e-05
2.69433e-05
2.69432e-05
2.69422e-05
2.6936e-05
2.69033e-05
2.67585e-05
2.62092e-05
2.42123e-05
1.57961e-05
2.71756e-05
2.71753e-05
2.71741e-05
2.71667e-05
2.71291e-05
2.6969e-05
2.63834e-05
2.43166e-05
1.58169e-05
2.72381e-05
2.72379e-05
2.72365e-05
2.72287e-05
2.71892e-05
2.70236e-05
2.64252e-05
2.43371e-05
1.58201e-05
2.72381e-05
2.72379e-05
2.72365e-05
2.72287e-05
2.71892e-05
2.70236e-05
2.64252e-05
2.4337e-05
1.582e-05
2.71756e-05
2.71754e-05
2.71741e-05
2.71667e-05
2.71291e-05
2.6969e-05
2.63833e-05
2.43164e-05
1.58166e-05
2.69434e-05
2.69432e-05
2.69422e-05
2.6936e-05
2.69033e-05
2.67585e-05
2.62091e-05
2.4212e-05
1.57956e-05
2.62103e-05
2.62102e-05
2.62101e-05
2.62095e-05
2.62054e-05
2.6182e-05
2.60679e-05
2.55959e-05
2.3771e-05
1.56886e-05
2.3891e-05
2.38909e-05
2.38907e-05
2.38905e-05
2.38889e-05
2.38781e-05
2.38139e-05
2.34908e-05
2.20631e-05
1.52693e-05
1.51076e-05
1.51054e-05
1.51034e-05
1.51017e-05
1.51e-05
1.5097e-05
1.50831e-05
1.50018e-05
1.46388e-05
1.40826e-05
1.51062e-05
1.51042e-05
1.51024e-05
1.51008e-05
1.50979e-05
1.5084e-05
1.50027e-05
1.46395e-05
1.40835e-05
2.38898e-05
2.38899e-05
2.38899e-05
2.38886e-05
2.3878e-05
2.38139e-05
2.34908e-05
2.20632e-05
1.52703e-05
2.62099e-05
2.62098e-05
2.62093e-05
2.62053e-05
2.61819e-05
2.60678e-05
2.55959e-05
2.37712e-05
1.56896e-05
2.69433e-05
2.69431e-05
2.69421e-05
2.6936e-05
2.69033e-05
2.67584e-05
2.62091e-05
2.42121e-05
1.57965e-05
2.71755e-05
2.71753e-05
2.71741e-05
2.71667e-05
2.7129e-05
2.69689e-05
2.63832e-05
2.43164e-05
1.58173e-05
2.72381e-05
2.72379e-05
2.72365e-05
2.72286e-05
2.71892e-05
2.70235e-05
2.6425e-05
2.43369e-05
1.58205e-05
2.72381e-05
2.72379e-05
2.72365e-05
2.72286e-05
2.71892e-05
2.70235e-05
2.6425e-05
2.43368e-05
1.58204e-05
2.71756e-05
2.71753e-05
2.71741e-05
2.71667e-05
2.7129e-05
2.69689e-05
2.63832e-05
2.43162e-05
1.5817e-05
2.69434e-05
2.69432e-05
2.69422e-05
2.6936e-05
2.69033e-05
2.67584e-05
2.6209e-05
2.42118e-05
1.5796e-05
2.62103e-05
2.62102e-05
2.62101e-05
2.62095e-05
2.62054e-05
2.6182e-05
2.60678e-05
2.55959e-05
2.37709e-05
1.5689e-05
2.3891e-05
2.38909e-05
2.38907e-05
2.38905e-05
2.38889e-05
2.38782e-05
2.38139e-05
2.34907e-05
2.2063e-05
1.52698e-05
1.5108e-05
1.51058e-05
1.51039e-05
1.51022e-05
1.51006e-05
1.50976e-05
1.50837e-05
1.50025e-05
1.46394e-05
1.40833e-05
1.51066e-05
1.51046e-05
1.51029e-05
1.51013e-05
1.50984e-05
1.50846e-05
1.50033e-05
1.46401e-05
1.40833e-05
2.38898e-05
2.38899e-05
2.38899e-05
2.38885e-05
2.3878e-05
2.38139e-05
2.34907e-05
2.2063e-05
1.52707e-05
2.62099e-05
2.62098e-05
2.62092e-05
2.62053e-05
2.61819e-05
2.60678e-05
2.55958e-05
2.3771e-05
1.56899e-05
2.69433e-05
2.69431e-05
2.69421e-05
2.69359e-05
2.69032e-05
2.67584e-05
2.62089e-05
2.42119e-05
1.57968e-05
2.71755e-05
2.71753e-05
2.7174e-05
2.71666e-05
2.7129e-05
2.69689e-05
2.63831e-05
2.43162e-05
1.58176e-05
2.72381e-05
2.72378e-05
2.72365e-05
2.72286e-05
2.71892e-05
2.70234e-05
2.64249e-05
2.43367e-05
1.58208e-05
2.72381e-05
2.72378e-05
2.72365e-05
2.72286e-05
2.71892e-05
2.70234e-05
2.64249e-05
2.43366e-05
1.58207e-05
2.71756e-05
2.71753e-05
2.7174e-05
2.71666e-05
2.7129e-05
2.69688e-05
2.6383e-05
2.4316e-05
1.58173e-05
2.69434e-05
2.69432e-05
2.69422e-05
2.6936e-05
2.69032e-05
2.67584e-05
2.62089e-05
2.42117e-05
1.57964e-05
2.62103e-05
2.62102e-05
2.62101e-05
2.62094e-05
2.62054e-05
2.61819e-05
2.60678e-05
2.55958e-05
2.37707e-05
1.56894e-05
2.3891e-05
2.38909e-05
2.38907e-05
2.38905e-05
2.38889e-05
2.38782e-05
2.38139e-05
2.34907e-05
2.20629e-05
1.52702e-05
1.51084e-05
1.51062e-05
1.51043e-05
1.51027e-05
1.51011e-05
1.50982e-05
1.50843e-05
1.50031e-05
1.46399e-05
1.40831e-05
1.51069e-05
1.5105e-05
1.51034e-05
1.51018e-05
1.5099e-05
1.50851e-05
1.50038e-05
1.46402e-05
1.40768e-05
2.38898e-05
2.38899e-05
2.38899e-05
2.38885e-05
2.3878e-05
2.38138e-05
2.34906e-05
2.20627e-05
1.52704e-05
2.62098e-05
2.62098e-05
2.62092e-05
2.62052e-05
2.61819e-05
2.60677e-05
2.55957e-05
2.37708e-05
1.56902e-05
2.69433e-05
2.69431e-05
2.69421e-05
2.69359e-05
2.69032e-05
2.67583e-05
2.62088e-05
2.42117e-05
1.57971e-05
2.71755e-05
2.71753e-05
2.7174e-05
2.71666e-05
2.7129e-05
2.69688e-05
2.6383e-05
2.4316e-05
1.58179e-05
2.72381e-05
2.72378e-05
2.72365e-05
2.72286e-05
2.71891e-05
2.70234e-05
2.64248e-05
2.43365e-05
1.58211e-05
2.72381e-05
2.72378e-05
2.72365e-05
2.72286e-05
2.71891e-05
2.70234e-05
2.64248e-05
2.43364e-05
1.5821e-05
2.71755e-05
2.71753e-05
2.7174e-05
2.71666e-05
2.7129e-05
2.69688e-05
2.63829e-05
2.43158e-05
1.58176e-05
2.69434e-05
2.69432e-05
2.69422e-05
2.69359e-05
2.69032e-05
2.67583e-05
2.62088e-05
2.42115e-05
1.57967e-05
2.62103e-05
2.62102e-05
2.62101e-05
2.62094e-05
2.62054e-05
2.61819e-05
2.60677e-05
2.55957e-05
2.37706e-05
1.56897e-05
2.3891e-05
2.38909e-05
2.38908e-05
2.38905e-05
2.38889e-05
2.38782e-05
2.38139e-05
2.34906e-05
2.20626e-05
1.527e-05
1.51087e-05
1.51066e-05
1.51048e-05
1.51032e-05
1.51016e-05
1.50988e-05
1.50849e-05
1.50036e-05
1.46401e-05
1.40766e-05
1.51073e-05
1.51054e-05
1.51038e-05
1.51023e-05
1.50995e-05
1.50857e-05
1.50043e-05
1.46381e-05
1.4028e-05
2.38898e-05
2.38899e-05
2.38898e-05
2.38885e-05
2.38779e-05
2.38138e-05
2.34905e-05
2.20621e-05
1.52674e-05
2.62098e-05
2.62098e-05
2.62092e-05
2.62052e-05
2.61818e-05
2.60677e-05
2.55956e-05
2.37705e-05
1.56903e-05
2.69432e-05
2.69431e-05
2.69421e-05
2.69359e-05
2.69032e-05
2.67583e-05
2.62087e-05
2.42115e-05
1.57974e-05
2.71755e-05
2.71753e-05
2.7174e-05
2.71666e-05
2.7129e-05
2.69688e-05
2.63829e-05
2.43158e-05
1.58182e-05
2.7238e-05
2.72378e-05
2.72364e-05
2.72286e-05
2.71891e-05
2.70233e-05
2.64247e-05
2.43363e-05
1.58214e-05
2.7238e-05
2.72378e-05
2.72364e-05
2.72286e-05
2.71891e-05
2.70233e-05
2.64247e-05
2.43363e-05
1.58213e-05
2.71755e-05
2.71753e-05
2.7174e-05
2.71666e-05
2.7129e-05
2.69687e-05
2.63828e-05
2.43157e-05
1.58179e-05
2.69434e-05
2.69432e-05
2.69421e-05
2.69359e-05
2.69032e-05
2.67583e-05
2.62087e-05
2.42113e-05
1.5797e-05
2.62103e-05
2.62102e-05
2.621e-05
2.62094e-05
2.62053e-05
2.61819e-05
2.60677e-05
2.55956e-05
2.37703e-05
1.56899e-05
2.3891e-05
2.38909e-05
2.38908e-05
2.38905e-05
2.38889e-05
2.38782e-05
2.38139e-05
2.34905e-05
2.2062e-05
1.5267e-05
1.5109e-05
1.5107e-05
1.51052e-05
1.51036e-05
1.51021e-05
1.50993e-05
1.50854e-05
1.50041e-05
1.4638e-05
1.40278e-05
1.51076e-05
1.51058e-05
1.51043e-05
1.51028e-05
1.51e-05
1.50862e-05
1.50045e-05
1.46288e-05
1.37445e-05
2.38898e-05
2.38899e-05
2.38898e-05
2.38884e-05
2.38779e-05
2.38137e-05
2.34903e-05
2.20608e-05
1.52556e-05
2.62098e-05
2.62097e-05
2.62092e-05
2.62052e-05
2.61818e-05
2.60676e-05
2.55955e-05
2.37702e-05
1.56901e-05
2.69432e-05
2.69431e-05
2.6942e-05
2.69359e-05
2.69031e-05
2.67582e-05
2.62086e-05
2.42113e-05
1.57977e-05
2.71755e-05
2.71752e-05
2.7174e-05
2.71666e-05
2.71289e-05
2.69687e-05
2.63828e-05
2.43156e-05
1.58185e-05
2.7238e-05
2.72378e-05
2.72364e-05
2.72286e-05
2.71891e-05
2.70233e-05
2.64246e-05
2.43361e-05
1.58217e-05
2.7238e-05
2.72378e-05
2.72364e-05
2.72286e-05
2.71891e-05
2.70233e-05
2.64246e-05
2.43361e-05
1.58216e-05
2.71755e-05
2.71753e-05
2.7174e-05
2.71666e-05
2.71289e-05
2.69687e-05
2.63827e-05
2.43155e-05
1.58182e-05
2.69433e-05
2.69431e-05
2.69421e-05
2.69359e-05
2.69032e-05
2.67582e-05
2.62085e-05
2.42111e-05
1.57973e-05
2.62102e-05
2.62101e-05
2.621e-05
2.62094e-05
2.62053e-05
2.61819e-05
2.60676e-05
2.55955e-05
2.377e-05
1.56897e-05
2.3891e-05
2.38909e-05
2.38908e-05
2.38905e-05
2.38889e-05
2.38782e-05
2.38139e-05
2.34904e-05
2.20608e-05
1.52552e-05
1.51094e-05
1.51074e-05
1.51056e-05
1.51041e-05
1.51026e-05
1.50998e-05
1.50859e-05
1.50043e-05
1.46288e-05
1.37443e-05
1.5108e-05
1.51062e-05
1.51047e-05
1.51032e-05
1.51005e-05
1.50867e-05
1.5005e-05
1.46266e-05
1.36912e-05
2.38898e-05
2.38899e-05
2.38898e-05
2.38884e-05
2.38779e-05
2.38137e-05
2.34902e-05
2.20602e-05
1.52523e-05
2.62098e-05
2.62097e-05
2.62092e-05
2.62052e-05
2.61818e-05
2.60676e-05
2.55954e-05
2.377e-05
1.56902e-05
2.69432e-05
2.6943e-05
2.6942e-05
2.69358e-05
2.69031e-05
2.67582e-05
2.62085e-05
2.42111e-05
1.57979e-05
2.71754e-05
2.71752e-05
2.71739e-05
2.71665e-05
2.71289e-05
2.69686e-05
2.63827e-05
2.43154e-05
1.58187e-05
2.7238e-05
2.72377e-05
2.72364e-05
2.72285e-05
2.7189e-05
2.70232e-05
2.64245e-05
2.43359e-05
1.58219e-05
2.7238e-05
2.72378e-05
2.72364e-05
2.72285e-05
2.7189e-05
2.70232e-05
2.64245e-05
2.43359e-05
1.58218e-05
2.71755e-05
2.71752e-05
2.7174e-05
2.71666e-05
2.71289e-05
2.69686e-05
2.63826e-05
2.43153e-05
1.58185e-05
2.69433e-05
2.69431e-05
2.69421e-05
2.69359e-05
2.69031e-05
2.67582e-05
2.62084e-05
2.42109e-05
1.57975e-05
2.62102e-05
2.62101e-05
2.621e-05
2.62094e-05
2.62053e-05
2.61818e-05
2.60676e-05
2.55954e-05
2.37698e-05
1.56898e-05
2.3891e-05
2.38909e-05
2.38908e-05
2.38905e-05
2.38889e-05
2.38781e-05
2.38138e-05
2.34903e-05
2.20602e-05
1.52519e-05
1.51097e-05
1.51077e-05
1.5106e-05
1.51045e-05
1.5103e-05
1.51003e-05
1.50865e-05
1.50048e-05
1.46265e-05
1.3691e-05
1.51083e-05
1.51066e-05
1.51051e-05
1.51037e-05
1.51009e-05
1.50871e-05
1.50054e-05
1.46267e-05
1.36848e-05
2.38899e-05
2.38899e-05
2.38898e-05
2.38884e-05
2.38779e-05
2.38137e-05
2.34901e-05
2.20599e-05
1.5252e-05
2.62098e-05
2.62097e-05
2.62091e-05
2.62051e-05
2.61817e-05
2.60675e-05
2.55953e-05
2.37698e-05
1.56904e-05
2.69432e-05
2.6943e-05
2.6942e-05
2.69358e-05
2.69031e-05
2.67581e-05
2.62084e-05
2.42109e-05
1.57981e-05
2.71754e-05
2.71752e-05
2.71739e-05
2.71665e-05
2.71289e-05
2.69686e-05
2.63826e-05
2.43152e-05
1.58189e-05
2.7238e-05
2.72377e-05
2.72364e-05
2.72285e-05
2.7189e-05
2.70232e-05
2.64244e-05
2.43357e-05
1.58221e-05
2.7238e-05
2.72377e-05
2.72364e-05
2.72285e-05
2.7189e-05
2.70231e-05
2.64243e-05
2.43357e-05
1.58221e-05
2.71754e-05
2.71752e-05
2.71739e-05
2.71665e-05
2.71289e-05
2.69686e-05
2.63825e-05
2.43151e-05
1.58187e-05
2.69433e-05
2.69431e-05
2.69421e-05
2.69359e-05
2.69031e-05
2.67581e-05
2.62083e-05
2.42107e-05
1.57978e-05
2.62102e-05
2.62101e-05
2.621e-05
2.62093e-05
2.62053e-05
2.61818e-05
2.60675e-05
2.55953e-05
2.37696e-05
1.569e-05
2.3891e-05
2.38909e-05
2.38907e-05
2.38905e-05
2.38889e-05
2.38781e-05
2.38138e-05
2.34902e-05
2.20599e-05
1.52516e-05
1.511e-05
1.51081e-05
1.51064e-05
1.51049e-05
1.51035e-05
1.51007e-05
1.50869e-05
1.50052e-05
1.46266e-05
1.36847e-05
1.51086e-05
1.51069e-05
1.51055e-05
1.51041e-05
1.51013e-05
1.50876e-05
1.50059e-05
1.46271e-05
1.36846e-05
2.38899e-05
2.38899e-05
2.38898e-05
2.38884e-05
2.38779e-05
2.38137e-05
2.34901e-05
2.20598e-05
1.52521e-05
2.62098e-05
2.62097e-05
2.62091e-05
2.62051e-05
2.61817e-05
2.60675e-05
2.55952e-05
2.37696e-05
1.56906e-05
2.69432e-05
2.6943e-05
2.6942e-05
2.69358e-05
2.6903e-05
2.67581e-05
2.62083e-05
2.42107e-05
1.57983e-05
2.71754e-05
2.71752e-05
2.71739e-05
2.71665e-05
2.71288e-05
2.69685e-05
2.63824e-05
2.4315e-05
1.58191e-05
2.7238e-05
2.72377e-05
2.72364e-05
2.72285e-05
2.7189e-05
2.70231e-05
2.64243e-05
2.43355e-05
1.58223e-05
2.7238e-05
2.72377e-05
2.72364e-05
2.72285e-05
2.7189e-05
2.70231e-05
2.64242e-05
2.43355e-05
1.58222e-05
2.71754e-05
2.71752e-05
2.71739e-05
2.71665e-05
2.71288e-05
2.69685e-05
2.63824e-05
2.43149e-05
1.58189e-05
2.69433e-05
2.69431e-05
2.69421e-05
2.69358e-05
2.69031e-05
2.6758e-05
2.62082e-05
2.42105e-05
1.5798e-05
2.62102e-05
2.62101e-05
2.621e-05
2.62093e-05
2.62053e-05
2.61818e-05
2.60675e-05
2.55952e-05
2.37694e-05
1.56902e-05
2.3891e-05
2.38909e-05
2.38907e-05
2.38904e-05
2.38888e-05
2.38781e-05
2.38138e-05
2.34901e-05
2.20597e-05
1.52518e-05
1.51102e-05
1.51084e-05
1.51067e-05
1.51053e-05
1.51039e-05
1.51012e-05
1.50874e-05
1.50057e-05
1.46269e-05
1.36845e-05
1.51089e-05
1.51072e-05
1.51058e-05
1.51044e-05
1.51017e-05
1.5088e-05
1.50063e-05
1.46275e-05
1.36849e-05
2.38899e-05
2.38899e-05
2.38898e-05
2.38884e-05
2.38779e-05
2.38137e-05
2.34901e-05
2.20597e-05
1.52523e-05
2.62098e-05
2.62097e-05
2.62091e-05
2.62051e-05
2.61817e-05
2.60674e-05
2.55951e-05
2.37694e-05
1.56908e-05
2.69432e-05
2.6943e-05
2.6942e-05
2.69358e-05
2.6903e-05
2.6758e-05
2.62082e-05
2.42105e-05
1.57984e-05
2.71754e-05
2.71752e-05
2.71739e-05
2.71665e-05
2.71288e-05
2.69685e-05
2.63823e-05
2.43148e-05
1.58193e-05
2.72379e-05
2.72377e-05
2.72363e-05
2.72285e-05
2.7189e-05
2.7023e-05
2.64241e-05
2.43353e-05
1.58225e-05
2.72379e-05
2.72377e-05
2.72363e-05
2.72285e-05
2.7189e-05
2.7023e-05
2.64241e-05
2.43353e-05
1.58224e-05
2.71754e-05
2.71752e-05
2.71739e-05
2.71665e-05
2.71288e-05