/*--------------------------------*- C++ -*----------------------------------*\
| =========                 |                                                 |
| \\      /  F ield         | OpenFOAM: The Open Source CFD Toolbox           |
|  \\    /   O peration     | Version:  2.3.1                                 |
|   \\  /    A nd           | Web:      www.OpenFOAM.org                      |
|    \\/     M anipulation  |                                                 |
\*---------------------------------------------------------------------------*/
FoamFile
{
    version     2.0;
    format      ascii;
    class       volScalarField;
    location    "5";
    object      nut;
}
// * * * * * * * * * * * * * * * * * * * * * * * * * * * * * * * * * * * * * //

dimensions      [0 2 -1 0 0 0 0];

internalField   nonuniform List<scalar> 
37784
(
4.12656e-06
4.12582e-06
4.12513e-06
4.12445e-06
4.12363e-06
4.12126e-06
4.10773e-06
4.03768e-06
5.74673e-06
4.10572e-06
4.10492e-06
4.10417e-06
4.10347e-06
4.10279e-06
4.10198e-06
4.09978e-06
4.0869e-06
4.01866e-06
5.74414e-06
4.00534e-06
4.0045e-06
4.00371e-06
4.00296e-06
4.00225e-06
4.00153e-06
4.00024e-06
3.99348e-06
3.9529e-06
5.73166e-06
3.67573e-06
3.67495e-06
3.67423e-06
3.67355e-06
3.67291e-06
3.6723e-06
3.6717e-06
3.67096e-06
3.67507e-06
4.8627e-06
2.75028e-05
2.75125e-05
2.7521e-05
2.75265e-05
2.75159e-05
2.73944e-05
2.66183e-05
2.28969e-05
1.06862e-05
2.6211e-05
2.62202e-05
2.62287e-05
2.62361e-05
2.62412e-05
2.6233e-05
2.61277e-05
2.54181e-05
2.19057e-05
1.05572e-05
2.1547e-05
2.15531e-05
2.15586e-05
2.15634e-05
2.15673e-05
2.15668e-05
2.15285e-05
2.11948e-05
1.90982e-05
1.05068e-05
9.21218e-06
9.21134e-06
9.21055e-06
9.20981e-06
9.20909e-06
9.20836e-06
9.20728e-06
9.20285e-06
9.18038e-06
9.70013e-06
5.36628e-05
5.36732e-05
5.36815e-05
5.36797e-05
5.36088e-05
5.30985e-05
5.03412e-05
3.91916e-05
1.11286e-05
4.91456e-05
4.91546e-05
4.9163e-05
4.91698e-05
4.91691e-05
4.91144e-05
4.86939e-05
4.62974e-05
3.62874e-05
1.08892e-05
3.56765e-05
3.56813e-05
3.56859e-05
3.56898e-05
3.56917e-05
3.5678e-05
3.55372e-05
3.45338e-05
2.91917e-05
1.07965e-05
9.58991e-06
9.58895e-06
9.58808e-06
9.58726e-06
9.58648e-06
9.58563e-06
9.58374e-06
9.57326e-06
9.51526e-06
9.91087e-06
7.69295e-05
7.69392e-05
7.6945e-05
7.69258e-05
7.6738e-05
7.55746e-05
6.99864e-05
5.0383e-05
1.13237e-05
6.78349e-05
6.78428e-05
6.78501e-05
6.78547e-05
6.78421e-05
6.7705e-05
6.67986e-05
6.21896e-05
4.53947e-05
1.10126e-05
4.47869e-05
4.47907e-05
4.47945e-05
4.47975e-05
4.47966e-05
4.47633e-05
4.44877e-05
4.27488e-05
3.45862e-05
1.08838e-05
9.72251e-06
9.72154e-06
9.72064e-06
9.71981e-06
9.71901e-06
9.71804e-06
9.7152e-06
9.69839e-06
9.61117e-06
9.94671e-06
9.4852e-05
9.48596e-05
9.48605e-05
9.48154e-05
9.44724e-05
9.25286e-05
8.39732e-05
5.70898e-05
1.14121e-05
8.09841e-05
8.09901e-05
8.09955e-05
8.09968e-05
8.09681e-05
8.07315e-05
7.92958e-05
7.25662e-05
5.04009e-05
1.10632e-05
4.99601e-05
4.99629e-05
4.99658e-05
4.99679e-05
4.99637e-05
4.99098e-05
4.95075e-05
4.7166e-05
3.7102e-05
1.09126e-05
9.77697e-06
9.77599e-06
9.7751e-06
9.77427e-06
9.77347e-06
9.77239e-06
9.76873e-06
9.74725e-06
9.64233e-06
9.95264e-06
0.000106981
0.000106986
0.000106981
0.000106907
0.000106405
0.000103722
9.2655e-05
6.06071e-05
1.14478e-05
8.91239e-05
8.91277e-05
8.91309e-05
8.91287e-05
8.9084e-05
8.87551e-05
8.68661e-05
7.85023e-05
5.28273e-05
1.10835e-05
5.25885e-05
5.25905e-05
5.25928e-05
5.2594e-05
5.2587e-05
5.25162e-05
5.20192e-05
4.92747e-05
3.81358e-05
1.09222e-05
9.79949e-06
9.79851e-06
9.79762e-06
9.7968e-06
9.796e-06
9.79486e-06
9.79066e-06
9.76642e-06
9.65274e-06
9.95395e-06
0.000114282
0.000114284
0.000114274
0.000114174
0.000113533
0.000110252
9.73407e-05
6.21241e-05
1.14539e-05
9.36217e-05
9.36236e-05
9.36252e-05
9.36199e-05
9.35623e-05
9.31625e-05
9.09471e-05
8.15105e-05
5.38594e-05
1.10908e-05
5.3797e-05
5.37985e-05
5.38003e-05
5.38009e-05
5.37918e-05
5.37096e-05
5.3153e-05
5.01782e-05
3.85126e-05
1.09254e-05
9.80831e-06
9.80735e-06
9.80647e-06
9.80566e-06
9.80487e-06
9.80369e-06
9.7992e-06
9.77358e-06
9.65617e-06
9.9545e-06
0.000118231
0.000118231
0.000118215
0.000118094
0.000117343
0.000113609
9.94234e-05
6.24417e-05
1.14355e-05
9.58637e-05
9.58644e-05
9.58647e-05
9.58573e-05
9.57906e-05
9.53425e-05
9.29172e-05
8.28489e-05
5.42139e-05
1.10924e-05
5.43043e-05
5.43055e-05
5.4307e-05
5.43073e-05
5.42969e-05
5.42079e-05
5.3618e-05
5.05262e-05
3.86323e-05
1.09265e-05
9.81158e-06
9.81063e-06
9.80976e-06
9.80897e-06
9.8082e-06
9.80702e-06
9.8024e-06
9.77617e-06
9.65736e-06
9.9549e-06
0.000120164
0.000120163
0.000120144
0.000120005
0.000119167
0.000115082
9.99757e-05
6.20127e-05
1.13836e-05
9.688e-05
9.688e-05
9.68796e-05
9.68708e-05
9.67979e-05
9.63184e-05
9.37626e-05
8.3336e-05
5.4255e-05
1.10906e-05
5.45003e-05
5.45014e-05
5.45028e-05
5.45028e-05
5.44917e-05
5.43988e-05
5.37912e-05
5.06432e-05
3.86597e-05
1.09268e-05
9.81276e-06
9.81182e-06
9.81098e-06
9.8102e-06
9.80944e-06
9.80827e-06
9.80361e-06
9.77714e-06
9.65785e-06
9.95525e-06
0.000121028
0.000121025
0.000121004
0.000120851
0.000119941
0.000115568
9.97229e-05
6.11135e-05
1.12864e-05
9.73017e-05
9.73014e-05
9.73006e-05
9.72909e-05
9.72139e-05
9.67131e-05
9.40722e-05
8.34311e-05
5.41553e-05
1.1086e-05
5.45704e-05
5.45714e-05
5.45728e-05
5.45727e-05
5.45611e-05
5.44659e-05
5.38483e-05
5.0672e-05
3.86553e-05
1.09269e-05
9.81321e-06
9.81229e-06
9.81146e-06
9.81071e-06
9.80997e-06
9.80881e-06
9.80414e-06
9.77756e-06
9.65813e-06
9.95559e-06
9.81271e-06
9.81187e-06
9.81113e-06
9.81044e-06
9.80935e-06
9.80472e-06
9.77808e-06
9.65848e-06
9.95595e-06
5.45875e-05
5.45928e-05
5.45952e-05
5.45852e-05
5.44902e-05
5.38675e-05
5.06753e-05
3.86458e-05
1.09273e-05
9.74554e-05
9.74577e-05
9.74499e-05
9.73721e-05
9.68582e-05
9.41599e-05
8.33814e-05
5.40184e-05
1.10805e-05
0.000121378
0.000121377
0.000121355
0.000121192
0.000120223
0.000115614
9.917e-05
6.00729e-05
1.11644e-05
0.000130404
0.000130401
0.000130372
0.000130177
0.000129056
0.000123929
0.00010632
6.52082e-05
0.000132838
0.000132834
0.000132805
0.000132607
0.000131487
0.0001264
0.000108964
6.75643e-05
0.000132838
0.000132834
0.000132805
0.000132607
0.000131487
0.0001264
0.000108963
6.75629e-05
0.000130405
0.000130402
0.000130373
0.000130177
0.000129056
0.000123928
0.000106317
6.52041e-05
0.000121382
0.000121379
0.000121356
0.000121191
0.000120221
0.000115611
9.91646e-05
6.00671e-05
1.11642e-05
9.74629e-05
9.74624e-05
9.74613e-05
9.74511e-05
9.73711e-05
9.68552e-05
9.41552e-05
8.33751e-05
5.40118e-05
1.10802e-05
5.45937e-05
5.45946e-05
5.45959e-05
5.45958e-05
5.45839e-05
5.44872e-05
5.38633e-05
5.06708e-05
3.86418e-05
1.0927e-05
9.81342e-06
9.81252e-06
9.81171e-06
9.81097e-06
9.81026e-06
9.80912e-06
9.80445e-06
9.77782e-06
9.65834e-06
9.95592e-06
9.81287e-06
9.81205e-06
9.81133e-06
9.81066e-06
9.80959e-06
9.80496e-06
9.7783e-06
9.6587e-06
9.95629e-06
5.45939e-05
5.45991e-05
5.46017e-05
5.45916e-05
5.44956e-05
5.38687e-05
5.06669e-05
3.86333e-05
1.09274e-05
9.75119e-05
9.75142e-05
9.7506e-05
9.74262e-05
9.69014e-05
9.41624e-05
8.32959e-05
5.39036e-05
1.10782e-05
0.000121512
0.00012151
0.000121487
0.000121315
0.0001203
0.000115515
9.86638e-05
5.93725e-05
1.1127e-05
0.000130587
0.000130584
0.000130552
0.000130336
0.000129105
0.000123518
0.000104619
6.21188e-05
1.12101e-05
0.000133039
0.000133035
0.000133002
0.000132775
0.000131501
0.000125771
0.000106512
6.32078e-05
1.1247e-05
0.00013304
0.000133035
0.000133002
0.000132775
0.000131501
0.000125771
0.000106511
6.32065e-05
1.1247e-05
0.000130589
0.000130585
0.000130553
0.000130336
0.000129104
0.000123516
0.000104615
6.21148e-05
1.12099e-05
0.000121516
0.000121513
0.000121488
0.000121315
0.000120298
0.000115512
9.86584e-05
5.93665e-05
1.11267e-05
9.75198e-05
9.75193e-05
9.75181e-05
9.75075e-05
9.74254e-05
9.68987e-05
9.41579e-05
8.32897e-05
5.38971e-05
1.10779e-05
5.46007e-05
5.46017e-05
5.46029e-05
5.46027e-05
5.45906e-05
5.44929e-05
5.38648e-05
5.06626e-05
3.86295e-05
1.09271e-05
9.81357e-06
9.81268e-06
9.81189e-06
9.81118e-06
9.81048e-06
9.80937e-06
9.8047e-06
9.77805e-06
9.65855e-06
9.95625e-06
9.81301e-06
9.8122e-06
9.8115e-06
9.81085e-06
9.80981e-06
9.80519e-06
9.77852e-06
9.65893e-06
9.95662e-06
5.45946e-05
5.45999e-05
5.46027e-05
5.45928e-05
5.4496e-05
5.38664e-05
5.06591e-05
3.86249e-05
1.09276e-05
9.753e-05
9.75322e-05
9.75239e-05
9.74427e-05
9.69107e-05
9.41456e-05
8.32284e-05
5.38337e-05
1.10776e-05
0.000121558
0.000121557
0.000121532
0.000121354
0.000120307
0.000115407
9.83208e-05
5.8991e-05
1.11181e-05
0.000130654
0.00013065
0.000130616
0.000130384
0.000129076
0.000123193
0.000103602
6.07732e-05
1.11385e-05
0.000133113
0.000133108
0.000133071
0.000132824
0.000131443
0.0001253
0.000105072
6.13299e-05
1.11456e-05
0.000133113
0.000133108
0.000133071
0.000132824
0.000131443
0.000125299
0.000105071
6.13286e-05
1.11455e-05
0.000130655
0.000130651
0.000130616
0.000130384
0.000129076
0.000123192
0.000103598
6.07693e-05
1.11383e-05
0.000121563
0.00012156
0.000121534
0.000121354
0.000120306
0.000115404
9.83156e-05
5.89852e-05
1.11178e-05
9.75385e-05
9.75379e-05
9.75367e-05
9.75258e-05
9.74423e-05
9.69084e-05
9.41416e-05
8.32227e-05
5.38275e-05
1.10773e-05
5.46026e-05
5.46035e-05
5.46047e-05
5.46044e-05
5.45921e-05
5.44938e-05
5.38631e-05
5.06554e-05
3.86214e-05
1.09273e-05
9.8137e-06
9.81283e-06
9.81206e-06
9.81136e-06
9.81068e-06
9.80959e-06
9.80494e-06
9.77829e-06
9.65879e-06
9.95657e-06
9.81315e-06
9.81236e-06
9.81167e-06
9.81104e-06
9.81001e-06
9.8054e-06
9.77874e-06
9.65917e-06
9.95695e-06
5.45936e-05
5.4599e-05
5.4602e-05
5.45923e-05
5.44951e-05
5.38639e-05
5.06538e-05
3.86201e-05
1.09278e-05
9.75349e-05
9.75371e-05
9.75288e-05
9.74467e-05
9.69103e-05
9.41301e-05
8.3187e-05
5.37981e-05
1.10776e-05
0.000121574
0.000121572
0.000121547
0.000121365
0.000120298
0.000115331
9.81265e-05
5.88127e-05
1.11161e-05
0.000130676
0.000130672
0.000130636
0.000130395
0.00012904
0.00012299
0.000103068
6.02119e-05
1.1126e-05
0.000133138
0.000133133
0.000133094
0.000132833
0.000131387
0.000125011
0.000104326
6.05536e-05
1.11282e-05
0.000133138
0.000133133
0.000133094
0.000132833
0.000131387
0.000125011
0.000104325
6.05523e-05
1.11282e-05
0.000130678
0.000130673
0.000130637
0.000130395
0.00012904
0.000122988
0.000103065
6.02081e-05
1.11258e-05
0.000121579
0.000121575
0.000121548
0.000121365
0.000120297
0.000115329
9.81216e-05
5.88071e-05
1.11159e-05
9.75441e-05
9.75435e-05
9.75422e-05
9.75312e-05
9.74468e-05
9.69085e-05
9.41266e-05
8.31817e-05
5.37923e-05
1.10772e-05
5.46029e-05
5.46038e-05
5.46049e-05
5.46045e-05
5.45922e-05
5.44935e-05
5.38612e-05
5.06506e-05
3.86169e-05
1.09275e-05
9.81383e-06
9.81298e-06
9.81222e-06
9.81154e-06
9.81088e-06
9.80982e-06
9.80518e-06
9.77854e-06
9.65904e-06
9.95688e-06
9.81329e-06
9.81252e-06
9.81184e-06
9.81123e-06
9.81022e-06
9.80562e-06
9.77898e-06
9.65942e-06
9.95726e-06
5.45923e-05
5.45976e-05
5.46009e-05
5.45914e-05
5.4494e-05
5.3862e-05
5.06505e-05
3.86172e-05
1.0928e-05
9.75358e-05
9.75379e-05
9.75296e-05
9.74471e-05
9.69083e-05
9.41201e-05
8.31649e-05
5.37818e-05
1.10777e-05
0.000121578
0.000121576
0.000121551
0.000121366
0.000120289
0.000115288
9.80299e-05
5.87388e-05
1.11158e-05
0.000130683
0.000130678
0.000130642
0.000130396
0.000129015
0.00012288
0.000102817
5.99968e-05
1.11237e-05
0.000133146
0.00013314
0.0001331
0.000132832
0.00013135
0.000124858
0.000103979
6.0259e-05
1.11251e-05
0.000133146
0.000133141
0.0001331
0.000132832
0.00013135
0.000124857
0.000103977
6.02578e-05
1.1125e-05
0.000130685
0.00013068
0.000130643
0.000130396
0.000129014
0.000122878
0.000102814
5.99932e-05
1.11235e-05
0.000121583
0.00012158
0.000121553
0.000121367
0.000120288
0.000115286
9.80252e-05
5.87335e-05
1.11155e-05
9.75455e-05
9.75449e-05
9.75437e-05
9.75325e-05
9.74476e-05
9.69069e-05
9.41172e-05
8.31602e-05
5.37764e-05
1.10774e-05
5.46026e-05
5.46036e-05
5.46047e-05
5.46042e-05
5.45919e-05
5.44929e-05
5.38599e-05
5.06479e-05
3.86144e-05
1.09278e-05
9.81396e-06
9.81313e-06
9.81239e-06
9.81172e-06
9.81109e-06
9.81004e-06
9.80542e-06
9.77879e-06
9.6593e-06
9.95719e-06
9.81343e-06
9.81268e-06
9.81202e-06
9.81142e-06
9.81043e-06
9.80584e-06
9.77921e-06
9.65967e-06
9.95756e-06
5.4591e-05
5.45963e-05
5.45998e-05
5.45904e-05
5.4493e-05
5.38605e-05
5.06484e-05
3.86153e-05
1.09283e-05
9.75354e-05
9.75375e-05
9.75293e-05
9.74465e-05
9.69065e-05
9.41144e-05
8.31539e-05
5.37742e-05
1.10779e-05
0.000121579
0.000121577
0.000121552
0.000121366
0.000120283
0.000115266
9.79862e-05
5.87103e-05
1.11158e-05
0.000130685
0.00013068
0.000130644
0.000130394
0.000129001
0.000122827
0.000102709
5.99206e-05
1.11233e-05
0.000133148
0.000133143
0.000133102
0.00013283
0.000131331
0.000124784
0.000103831
6.01561e-05
1.11245e-05
0.000133148
0.000133143
0.000133102
0.00013283
0.00013133
0.000124784
0.00010383
6.01549e-05
1.11244e-05
0.000130687
0.000130682
0.000130644
0.000130394
0.000129
0.000122825
0.000102706
5.99173e-05
1.11231e-05
0.000121584
0.000121581
0.000121554
0.000121367
0.000120283
0.000115264
9.79819e-05
5.87054e-05
1.11156e-05
9.75456e-05
9.75451e-05
9.75439e-05
9.75327e-05
9.74476e-05
9.69056e-05
9.4112e-05
8.31497e-05
5.37693e-05
1.10776e-05
5.46022e-05
5.46032e-05
5.46043e-05
5.46039e-05
5.45915e-05
5.44924e-05
5.38589e-05
5.06462e-05
3.86128e-05
1.0928e-05
9.81409e-06
9.81327e-06
9.81255e-06
9.81191e-06
9.81129e-06
9.81027e-06
9.80566e-06
9.77904e-06
9.65956e-06
9.95749e-06
9.81357e-06
9.81284e-06
9.8122e-06
9.81161e-06
9.81063e-06
9.80606e-06
9.77944e-06
9.65991e-06
9.95785e-06
5.45899e-05
5.45951e-05
5.45987e-05
5.45894e-05
5.4492e-05
5.38592e-05
5.06468e-05
3.86137e-05
1.09285e-05
9.75349e-05
9.75369e-05
9.75287e-05
9.74458e-05
9.69051e-05
9.41112e-05
8.31483e-05
5.37701e-05
1.10781e-05
0.000121579
0.000121577
0.000121552
0.000121365
0.00012028
0.000115255
9.79673e-05
5.86991e-05
1.11159e-05
0.000130685
0.000130681
0.000130644
0.000130393
0.000128994
0.000122803
0.000102666
5.98946e-05
1.11233e-05
0.000133149
0.000133143
0.000133102
0.000132828
0.000131321
0.000124752
0.000103772
6.01217e-05
1.11245e-05
0.000133149
0.000133143
0.000133102
0.000132828
0.000131321
0.000124752
0.000103771
6.01206e-05
1.11244e-05
0.000130687
0.000130682
0.000130644
0.000130393
0.000128993
0.000122802
0.000102663
5.98915e-05
1.11232e-05
0.000121585
0.000121581
0.000121554
0.000121366
0.00012028
0.000115254
9.79633e-05
5.86946e-05
1.11157e-05
9.75453e-05
9.75449e-05
9.75438e-05
9.75326e-05
9.74473e-05
9.69048e-05
9.41093e-05
8.31446e-05
5.37657e-05
1.10778e-05
5.46017e-05
5.46028e-05
5.4604e-05
5.46035e-05
5.45912e-05
5.4492e-05
5.38582e-05
5.06451e-05
3.86116e-05
1.09282e-05
9.81421e-06
9.81342e-06
9.81272e-06
9.8121e-06
9.8115e-06
9.81049e-06
9.8059e-06
9.77929e-06
9.65981e-06
9.95777e-06
9.81371e-06
9.813e-06
9.81238e-06
9.8118e-06
9.81083e-06
9.80627e-06
9.77966e-06
9.66014e-06
9.95813e-06
5.4589e-05
5.45941e-05
5.45976e-05
5.45884e-05
5.44911e-05
5.38582e-05
5.06454e-05
3.86122e-05
1.09287e-05
9.75343e-05
9.75363e-05
9.75281e-05
9.74452e-05
9.69041e-05
9.41092e-05
8.3145e-05
5.37672e-05
1.10782e-05
0.000121579
0.000121577
0.000121551
0.000121365
0.000120279
0.00011525
9.79588e-05
5.86938e-05
1.11161e-05
0.000130685
0.000130681
0.000130644
0.000130392
0.000128991
0.000122793
0.000102648
5.9885e-05
1.11235e-05
0.000133149
0.000133143
0.000133102
0.000132827
0.000131317
0.000124738
0.000103749
6.01097e-05
1.11246e-05
0.000133149
0.000133143
0.000133102
0.000132827
0.000131317
0.000124738
0.000103748
6.01087e-05
1.11245e-05
0.000130687
0.000130682
0.000130644
0.000130393
0.00012899
0.000122792
0.000102646
5.9882e-05
1.11233e-05
0.000121585
0.000121581
0.000121554
0.000121366
0.000120278
0.000115249
9.79551e-05
5.86896e-05
1.11159e-05
9.7545e-05
9.75446e-05
9.75436e-05
9.75325e-05
9.74471e-05
9.69042e-05
9.41078e-05
8.31417e-05
5.37632e-05
1.1078e-05
5.46012e-05
5.46024e-05
5.46036e-05
5.46032e-05
5.45909e-05
5.44916e-05
5.38575e-05
5.06441e-05
3.86105e-05
1.09284e-05
9.81434e-06
9.81357e-06
9.81289e-06
9.81228e-06
9.8117e-06
9.81071e-06
9.80613e-06
9.77953e-06
9.66005e-06
9.95805e-06
9.81385e-06
9.81315e-06
9.81255e-06
9.81199e-06
9.81103e-06
9.80647e-06
9.77987e-06
9.66036e-06
9.9584e-06
5.45883e-05
5.45932e-05
5.45967e-05
5.45875e-05
5.44901e-05
5.38571e-05
5.06441e-05
3.86108e-05
1.09289e-05
9.75339e-05
9.75358e-05
9.75275e-05
9.74445e-05
9.69032e-05
9.41077e-05
8.31424e-05
5.37647e-05
1.10784e-05
0.000121579
0.000121577
0.000121551
0.000121364
0.000120278
0.000115248
9.79541e-05
5.86902e-05
1.11163e-05
0.000130685
0.000130681
0.000130643
0.000130392
0.000128989
0.000122788
0.000102641
5.98802e-05
1.11236e-05
0.000133149
0.000133143
0.000133102
0.000132827
0.000131315
0.000124733
0.000103739
6.01043e-05
1.11247e-05
0.000133149
0.000133143
0.000133102
0.000132827
0.000131315
0.000124732
0.000103739
6.01033e-05
1.11247e-05
0.000130687
0.000130682
0.000130644
0.000130392
0.000128989
0.000122787
0.000102638
5.98774e-05
1.11235e-05
0.000121584
0.000121581
0.000121554
0.000121366
0.000120278
0.000115246
9.79508e-05
5.86863e-05
1.11161e-05
9.75445e-05
9.75443e-05
9.75433e-05
9.75323e-05
9.74469e-05
9.69038e-05
9.41067e-05
8.31397e-05
5.37611e-05
1.10781e-05
5.46006e-05
5.46019e-05
5.46032e-05
5.46029e-05
5.45905e-05
5.44911e-05
5.38569e-05
5.06432e-05
3.86093e-05
1.09286e-05
9.81446e-06
9.81371e-06
9.81305e-06
9.81246e-06
9.8119e-06
9.81092e-06
9.80635e-06
9.77975e-06
9.66028e-06
9.95832e-06
9.81398e-06
9.81331e-06
9.81273e-06
9.81217e-06
9.81122e-06
9.80667e-06
9.78008e-06
9.66057e-06
9.95865e-06
5.45876e-05
5.45924e-05
5.45957e-05
5.45865e-05
5.44891e-05
5.38561e-05
5.06429e-05
3.86094e-05
1.0929e-05
9.75335e-05
9.75353e-05
9.75269e-05
9.74438e-05
9.69024e-05
9.41064e-05
8.31402e-05
5.37621e-05
1.10785e-05
0.000121579
0.000121577
0.000121551
0.000121364
0.000120277
0.000115246
9.79507e-05
5.8687e-05
1.11164e-05
0.000130685
0.000130681
0.000130643
0.000130392
0.000128988
0.000122786
0.000102636
5.98766e-05
1.11238e-05
0.000133149
0.000133143
0.000133102
0.000132827
0.000131314
0.00012473
0.000103734
6.01006e-05
1.11249e-05
0.000133149
0.000133143
0.000133102
0.000132827
0.000131314
0.000124729
0.000103734
6.00997e-05
1.11248e-05
0.000130687
0.000130682
0.000130644
0.000130392
0.000128988
0.000122785
0.000102634
5.98741e-05
1.11236e-05
0.000121584
0.000121581
0.000121553
0.000121365
0.000120277
0.000115245
9.79477e-05
5.86835e-05
1.11162e-05
9.75442e-05
9.7544e-05
9.75431e-05
9.75321e-05
9.74467e-05
9.69034e-05
9.41057e-05
8.31378e-05
5.3759e-05
1.10783e-05
5.46001e-05
5.46014e-05
5.46028e-05
5.46026e-05
5.45902e-05
5.44907e-05
5.38563e-05
5.06423e-05
3.86082e-05
1.09288e-05
9.81458e-06
9.81385e-06
9.81321e-06
9.81264e-06
9.81209e-06
9.81113e-06
9.80656e-06
9.77997e-06
9.66051e-06
9.95857e-06
9.81411e-06
9.81346e-06
9.81289e-06
9.81235e-06
9.8114e-06
9.80686e-06
9.78027e-06
9.66077e-06
9.95886e-06
5.45871e-05
5.45917e-05
5.45948e-05
5.45855e-05
5.44881e-05
5.38549e-05
5.06415e-05
3.86079e-05
1.09292e-05
9.75331e-05
9.75348e-05
9.75263e-05
9.74432e-05
9.69016e-05
9.41051e-05
8.3138e-05
5.37596e-05
1.10787e-05
0.000121579
0.000121577
0.000121551
0.000121364
0.000120276
0.000115244
9.79477e-05
5.8684e-05
1.11165e-05
0.000130685
0.000130681
0.000130643
0.000130391
0.000128987
0.000122784
0.000102633
5.98734e-05
1.11239e-05
0.000133149
0.000133143
0.000133101
0.000132826
0.000131313
0.000124728
0.000103731
6.00974e-05
1.1125e-05
0.000133149
0.000133143
0.000133102
0.000132826
0.000131313
0.000124727
0.00010373
6.00965e-05
1.1125e-05
0.000130687
0.000130682
0.000130644
0.000130392
0.000128987
0.000122783
0.000102631
5.98711e-05
1.11238e-05
0.000121584
0.000121581
0.000121553
0.000121365
0.000120277
0.000115244
9.79451e-05
5.86808e-05
1.11164e-05
9.75438e-05
9.75437e-05
9.75428e-05
9.75318e-05
9.74464e-05
9.69029e-05
9.41048e-05
8.3136e-05
5.37569e-05
1.10785e-05
5.45997e-05
5.46009e-05
5.46024e-05
5.46022e-05
5.45898e-05
5.44902e-05
5.38557e-05
5.06414e-05
3.86071e-05
1.0929e-05
9.8147e-06
9.81399e-06
9.81336e-06
9.81281e-06
9.81228e-06
9.81132e-06
9.80677e-06
9.78018e-06
9.66072e-06
9.95879e-06
9.81424e-06
9.8136e-06
9.81305e-06
9.81252e-06
9.81158e-06
9.80705e-06
9.78046e-06
9.66094e-06
9.9588e-06
5.45865e-05
5.4591e-05
5.45939e-05
5.45844e-05
5.44871e-05
5.38538e-05
5.06401e-05
3.86066e-05
1.09293e-05
9.75328e-05
9.75344e-05
9.75257e-05
9.74425e-05
9.69008e-05
9.41038e-05
8.31357e-05
5.37571e-05
1.10788e-05
0.000121579
0.000121576
0.00012155
0.000121363
0.000120276
0.000115243
9.79448e-05
5.86809e-05
1.11167e-05
0.000130685
0.00013068
0.000130643
0.000130391
0.000128987
0.000122782
0.000102629
5.98702e-05
1.1124e-05
0.000133148
0.000133143
0.000133101
0.000132826
0.000131312
0.000124726
0.000103727
6.00942e-05
1.11251e-05
0.000133149
0.000133143
0.000133102
0.000132826
0.000131312
0.000124726
0.000103727
6.00934e-05
1.11251e-05
0.000130687
0.000130682
0.000130644
0.000130392
0.000128987
0.000122782
0.000102628
5.98681e-05
1.11239e-05
0.000121584
0.00012158
0.000121553
0.000121365
0.000120276
0.000115242
9.79425e-05
5.86781e-05
1.11165e-05
9.75435e-05
9.75433e-05
9.75425e-05
9.75315e-05
9.74461e-05
9.69025e-05
9.41039e-05
8.31342e-05
5.37547e-05
1.10786e-05
5.45993e-05
5.46005e-05
5.4602e-05
5.46017e-05
5.45893e-05
5.44897e-05
5.3855e-05
5.06404e-05
3.86059e-05
1.09291e-05
9.81482e-06
9.81412e-06
9.81351e-06
9.81298e-06
9.81245e-06
9.81151e-06
9.80696e-06
9.78038e-06
9.6609e-06
9.95872e-06
9.81436e-06
9.81374e-06
9.8132e-06
9.81269e-06
9.81176e-06
9.80723e-06
9.78064e-06
9.66098e-06
9.9565e-06
5.45861e-05
5.45904e-05
5.4593e-05
5.45834e-05
5.4486e-05
5.38525e-05
5.06387e-05
3.86054e-05
1.09292e-05
9.75326e-05
9.7534e-05
9.75252e-05
9.74419e-05
9.69e-05
9.41025e-05
8.31336e-05
5.37547e-05
1.10789e-05
0.000121578
0.000121576
0.00012155
0.000121363
0.000120275
0.000115242
9.7942e-05
5.86779e-05
1.11168e-05
0.000130685
0.00013068
0.000130643
0.000130391
0.000128986
0.000122781
0.000102626
5.98671e-05
1.11241e-05
0.000133148
0.000133143
0.000133101
0.000132826
0.000131312
0.000124724
0.000103724
6.00911e-05
1.11253e-05
0.000133149
0.000133143
0.000133101
0.000132826
0.000131312
0.000124724
0.000103724
6.00904e-05
1.11252e-05
0.000130687
0.000130682
0.000130644
0.000130392
0.000128986
0.00012278
0.000102625
5.98651e-05
1.1124e-05
0.000121584
0.00012158
0.000121553
0.000121365
0.000120276
0.000115241
9.79398e-05
5.86753e-05
1.11166e-05
9.75432e-05
9.7543e-05
9.75422e-05
9.75312e-05
9.74457e-05
9.6902e-05
9.41029e-05
8.31324e-05
5.37526e-05
1.10787e-05
5.4599e-05
5.46001e-05
5.46015e-05
5.46012e-05
5.45888e-05
5.44891e-05
5.38543e-05
5.06395e-05
3.86051e-05
1.09291e-05
9.81493e-06
9.81425e-06
9.81365e-06
9.81313e-06
9.81262e-06
9.81168e-06
9.80714e-06
9.78056e-06
9.66095e-06
9.95643e-06
9.81447e-06
9.81387e-06
9.81334e-06
9.81284e-06
9.81192e-06
9.8074e-06
9.78078e-06
9.6603e-06
9.93918e-06
5.45858e-05
5.45898e-05
5.45923e-05
5.45825e-05
5.44849e-05
5.38513e-05
5.06374e-05
3.86053e-05
1.09281e-05
9.75324e-05
9.75336e-05
9.75247e-05
9.74413e-05
9.68992e-05
9.41013e-05
8.31314e-05
5.37524e-05
1.10789e-05
0.000121578
0.000121576
0.00012155
0.000121363
0.000120274
0.00011524
9.79391e-05
5.86749e-05
1.11169e-05
0.000130685
0.00013068
0.000130643
0.000130391
0.000128986
0.000122779
0.000102623
5.98639e-05
1.11242e-05
0.000133148
0.000133143
0.000133101
0.000132826
0.000131311
0.000124723
0.000103721
6.00879e-05
1.11254e-05
0.000133149
0.000133143
0.000133101
0.000132826
0.000131311
0.000124723
0.00010372
6.00873e-05
1.11253e-05
0.000130687
0.000130682
0.000130644
0.000130391
0.000128986
0.000122779
0.000102622
5.98621e-05
1.11241e-05
0.000121584
0.00012158
0.000121553
0.000121365
0.000120275
0.00011524
9.79372e-05
5.86725e-05
1.11167e-05
9.7543e-05
9.75428e-05
9.75418e-05
9.75308e-05
9.74453e-05
9.69014e-05
9.41019e-05
8.31306e-05
5.37506e-05
1.10788e-05
5.45987e-05
5.45997e-05
5.4601e-05
5.46007e-05
5.45882e-05
5.44885e-05
5.38535e-05
5.06387e-05
3.86052e-05
1.0928e-05
9.81504e-06
9.81437e-06
9.81379e-06
9.81328e-06
9.81278e-06
9.81185e-06
9.80732e-06
9.78071e-06
9.66027e-06
9.93911e-06
9.81459e-06
9.814e-06
9.81348e-06
9.813e-06
9.81208e-06
9.80756e-06
9.78086e-06
9.65723e-06
9.36003e-06
5.45857e-05
5.45894e-05
5.45916e-05
5.45816e-05
5.4484e-05
5.38503e-05
5.06365e-05
3.86071e-05
1.09239e-05
9.75323e-05
9.75334e-05
9.75243e-05
9.74407e-05
9.68985e-05
9.41001e-05
8.31294e-05
5.37505e-05
1.10789e-05
0.000121578
0.000121576
0.00012155
0.000121362
0.000120274
0.000115239
9.79362e-05
5.86719e-05
1.11169e-05
0.000130685
0.00013068
0.000130643
0.000130391
0.000128985
0.000122778
0.00010262
5.98607e-05
1.11243e-05
0.000133148
0.000133143
0.000133101
0.000132826
0.000131311
0.000124721
0.000103718
6.00847e-05
1.11254e-05
0.000133149
0.000133143
0.000133101
0.000132826
0.000131311
0.000124721
0.000103717
6.00841e-05
1.11254e-05
0.000130687
0.000130682
0.000130644
0.000130391
0.000128985
0.000122777
0.000102618
5.9859e-05
1.11242e-05
0.000121583
0.00012158
0.000121553
0.000121364
0.000120275
0.000115238
9.79345e-05
5.86697e-05
1.11168e-05
9.75427e-05
9.75425e-05
9.75415e-05
9.75304e-05
9.74448e-05
9.69008e-05
9.41009e-05
8.31287e-05
5.37488e-05
1.10787e-05
5.45984e-05
5.45994e-05
5.46005e-05
5.46001e-05
5.45875e-05
5.44877e-05
5.38526e-05
5.0638e-05
3.86072e-05
1.09238e-05
9.81515e-06
9.81449e-06
9.81392e-06
9.81342e-06
9.81293e-06
9.81201e-06
9.80749e-06
9.7808e-06
9.6572e-06
9.35996e-06
9.8147e-06
9.81412e-06
9.81362e-06
9.81314e-06
9.81224e-06
9.80773e-06
9.781e-06
9.65649e-06
9.34181e-06
5.45856e-05
5.45891e-05
5.45911e-05
5.4581e-05
5.44832e-05
5.38495e-05
5.06356e-05
3.86071e-05
1.09227e-05
9.75322e-05
9.75332e-05
9.7524e-05
9.74403e-05
9.68978e-05
9.4099e-05
8.31274e-05
5.37483e-05
1.10789e-05
0.000121578
0.000121576
0.000121549
0.000121362
0.000120273
0.000115237
9.79333e-05
5.86689e-05
1.1117e-05
0.000130685
0.00013068
0.000130643
0.00013039
0.000128985
0.000122776
0.000102617
5.98576e-05
1.11244e-05
0.000133148
0.000133143
0.000133101
0.000132826
0.00013131
0.000124719
0.000103714
6.00815e-05
1.11255e-05
0.000133149
0.000133143
0.000133101
0.000132826
0.00013131
0.000124719
0.000103714
6.00809e-05
1.11255e-05
0.000130687
0.000130682
0.000130644
0.000130391
0.000128985
0.000122775
0.000102615
5.98559e-05
1.11243e-05
0.000121583
0.00012158
0.000121552
0.000121364
0.000120274
0.000115237
9.79316e-05
5.86667e-05
1.11169e-05
9.75425e-05
9.75422e-05
9.75411e-05
9.753e-05
9.74443e-05
9.69001e-05
9.40997e-05
8.31267e-05
5.37467e-05
1.10788e-05
5.45981e-05
5.4599e-05
5.46e-05
5.45994e-05
5.45868e-05
5.44869e-05
5.38517e-05
5.0637e-05
3.86072e-05
1.09226e-05
9.81525e-06
9.81461e-06
9.81406e-06
9.81356e-06
9.81308e-06
9.81217e-06
9.80766e-06
9.78094e-06
9.65646e-06
9.34176e-06
9.8148e-06
9.81424e-06
9.81375e-06
9.81328e-06
9.81239e-06
9.80788e-06
9.78116e-06
9.65651e-06
9.33964e-06
5.45856e-05
5.45889e-05
5.45907e-05
5.45805e-05
5.44827e-05
5.38489e-05
5.06348e-05
3.86061e-05
1.09226e-05
9.75322e-05
9.7533e-05
9.75237e-05
9.74399e-05
9.68973e-05
9.4098e-05
8.31254e-05
5.3746e-05
1.1079e-05
0.000121578
0.000121576
0.000121549
0.000121362
0.000120273
0.000115236
9.79304e-05
5.8666e-05
1.11171e-05
0.000130685
0.00013068
0.000130643
0.00013039
0.000128984
0.000122774
0.000102613
5.98545e-05
1.11245e-05
0.000133148
0.000133143
0.000133101
0.000132825
0.00013131
0.000124718
0.000103711
6.00784e-05
1.11256e-05
0.000133148
0.000133143
0.000133101
0.000132825
0.00013131
0.000124718
0.00010371
6.00778e-05
1.11256e-05
0.000130687
0.000130681
0.000130644
0.000130391
0.000128984
0.000122774
0.000102612
5.98528e-05
1.11244e-05
0.000121583
0.00012158
0.000121552
0.000121364
0.000120274
0.000115235
9.79288e-05
5.86638e-05
1.1117e-05
9.75421e-05
9.75419e-05
9.75407e-05
9.75295e-05
9.74438e-05
9.68995e-05
9.40986e-05
8.31246e-05
5.37443e-05
1.10788e-05
5.45978e-05
5.45986e-05
5.45995e-05
5.45987e-05
5.4586e-05
5.44861e-05
5.38507e-05
5.06357e-05
3.86062e-05
1.09225e-05
9.81535e-06
9.81472e-06
9.81418e-06
9.81369e-06
9.81322e-06
9.81233e-06
9.80782e-06
9.78109e-06
9.65647e-06
9.33959e-06
9.81489e-06
9.81435e-06
9.81387e-06
9.81341e-06
9.81253e-06
9.80803e-06
9.7813e-06
9.65664e-06
9.33956e-06
5.45855e-05
5.45885e-05
5.45902e-05
5.458e-05
5.44823e-05
5.38485e-05
5.06341e-05
3.86051e-05
1.09227e-05
9.75322e-05
9.75328e-05
9.75234e-05
9.74395e-05
9.68969e-05
9.40971e-05
8.31235e-05
5.37438e-05
1.1079e-05
0.000121578
0.000121576
0.000121549
0.000121362
0.000120272
0.000115234
9.79276e-05
5.86631e-05
1.11172e-05
0.000130685
0.00013068
0.000130642
0.00013039
0.000128983
0.000122773
0.00010261
5.98514e-05
1.11245e-05
0.000133148
0.000133143
0.000133101
0.000132825
0.000131309
0.000124716
0.000103708
6.00753e-05
1.11257e-05
0.000133148
0.000133143
0.000133101
0.000132825
0.000131309
0.000124716
0.000103707
6.00747e-05
1.11256e-05
0.000130686
0.000130681
0.000130643
0.000130391
0.000128984
0.000122772
0.000102609
5.98498e-05
1.11244e-05
0.000121583
0.000121579
0.000121552
0.000121363
0.000120273
0.000115234
9.79259e-05
5.86609e-05
1.1117e-05
9.75417e-05
9.75415e-05
9.75403e-05
9.75289e-05
9.74432e-05
9.68988e-05
9.40974e-05
8.31224e-05
5.37419e-05
1.10789e-05
5.45973e-05
5.45981e-05
5.45988e-05
5.45979e-05
5.45852e-05
5.44852e-05
5.38496e-05
5.06343e-05
3.86048e-05
1.09225e-05
9.81543e-06
9.81482e-06
9.81429e-06
9.81381e-06
9.81335e-06
9.81247e-06
9.80796e-06
9.78124e-06
9.6566e-06
9.33952e-06
9.81498e-06
9.81444e-06
9.81398e-06
9.81353e-06
9.81266e-06
9.80816e-06
9.78144e-06
9.65677e-06
9.33968e-06
5.45853e-05
5.45882e-05
5.45898e-05
5.45795e-05
5.44819e-05
5.38481e-05
5.06334e-05
3.86039e-05
1.09227e-05
9.7532e-05
9.75326e-05
9.75231e-05
9.74392e-05
9.68965e-05
9.40963e-05
8.31217e-05
5.37415e-05
1.10791e-05
0.000121578
0.000121575
0.000121549
0.000121361
0.000120272
0.000115233
9.79249e-05
5.86603e-05
1.11172e-05
0.000130685
0.00013068
0.000130642
0.00013039
0.000128983
0.000122771
0.000102607
5.98484e-05
1.11246e-05
0.000133148
0.000133143
0.000133101
0.000132825
0.000131309
0.000124714
0.000103704
6.00723e-05
1.11257e-05
0.000133148
0.000133143
0.000133101
0.000132825
0.000131309
0.000124714
0.000103704
6.00717e-05
1.11257e-05
0.000130686
0.000130681