/*--------------------------------*- C++ -*----------------------------------*\
| =========                 |                                                 |
| \\      /  F ield         | OpenFOAM: The Open Source CFD Toolbox           |
|  \\    /   O peration     | Version:  2.3.1                                 |
|   \\  /    A nd           | Web:      www.OpenFOAM.org                      |
|    \\/     M anipulation  |                                                 |
\*---------------------------------------------------------------------------*/
FoamFile
{
    version     2.0;
    format      ascii;
    class       surfaceScalarField;
    location    "5";
    object      phi;
}
// * * * * * * * * * * * * * * * * * * * * * * * * * * * * * * * * * * * * * //

dimensions      [0 3 -1 0 0 0 0];

internalField   nonuniform List<scalar> 
108008
(
4.1455e-08
2.13102e-09
7.57484e-09
3.52761e-08
1.64011e-09
6.92903e-09
2.95059e-08
1.30412e-09
6.37646e-09
2.40772e-08
1.06949e-09
5.9219e-09
1.88961e-08
8.8389e-10
5.58081e-09
1.38885e-08
7.7423e-10
5.34362e-09
8.87091e-09
5.26995e-10
5.18364e-09
4.33528e-09
6.22001e-10
4.60592e-09
-1.5283e-10
3.63344e-09
4.74789e-08
1.48755e-09
8.24357e-09
4.10215e-08
1.03998e-09
7.54837e-09
3.49723e-08
7.54542e-10
6.9348e-09
2.92881e-08
5.74225e-10
6.41413e-09
2.3919e-08
4.60584e-10
5.97802e-09
1.87881e-08
3.74262e-10
5.64044e-09
1.38257e-08
3.27929e-10
5.40871e-09
8.87738e-09
2.41014e-10
5.23434e-09
4.34768e-09
4.03069e-10
4.74863e-09
3.06996e-10
3.88786e-09
4.70365e-08
3.72773e-10
7.82895e-09
4.07011e-08
1.84066e-10
7.19131e-09
3.47329e-08
7.74547e-11
6.64527e-09
2.90992e-08
2.2744e-11
6.18517e-09
2.37602e-08
1.47042e-12
5.79808e-09
1.86513e-08
-1.19733e-11
5.49519e-09
1.3705e-08
-1.33755e-11
5.2876e-09
8.79642e-09
-2.58978e-11
5.17547e-09
4.16552e-09
1.0549e-10
4.92848e-09
1.92634e-10
4.27988e-09
4.64075e-08
6.97651e-09
4.01622e-08
6.42937e-09
3.42694e-08
5.97023e-09
2.87031e-08
5.58906e-09
2.34293e-08
5.27525e-09
1.8392e-08
5.02534e-09
1.35423e-08
4.83632e-09
8.81368e-09
4.7027e-09
4.30264e-09
4.61653e-09
4.49528e-09
4.27676e-08
2.0766e-09
1.50592e-08
3.65141e-08
1.56872e-09
1.38171e-08
3.06323e-08
1.21758e-09
1.27561e-08
2.5064e-08
9.73008e-10
1.18812e-08
1.97365e-08
7.81297e-10
1.1213e-08
1.46112e-08
6.59213e-10
1.07147e-08
9.57535e-09
4.28239e-10
1.03251e-08
4.93032e-09
5.48891e-10
9.26629e-09
-1.12011e-10
7.89691e-09
4.87916e-08
1.64323e-09
1.63111e-08
4.22865e-08
1.17475e-09
1.49554e-08
3.61555e-08
8.65655e-10
1.37689e-08
3.03599e-08
6.65586e-10
1.27617e-08
2.48522e-08
5.37101e-10
1.19216e-08
1.95702e-08
4.38409e-10
1.12654e-08
1.44777e-08
3.76043e-10
1.07843e-08
9.47913e-09
2.75626e-10
1.03856e-08
4.83768e-09
4.32568e-10
9.5064e-09
3.64384e-10
8.24915e-09
4.82744e-08
6.42666e-10
1.56036e-08
4.18632e-08
4.30089e-10
1.43472e-08
3.58004e-08
3.01642e-10
1.32721e-08
3.00548e-08
2.2937e-10
1.2367e-08
2.45844e-08
1.93826e-10
1.16117e-08
1.93326e-08
1.69274e-10
1.10161e-08
1.42559e-08
1.53621e-10
1.05867e-08
9.282e-09
1.2155e-10
1.03034e-08
4.56774e-09
2.37036e-10
9.83827e-09
2.73193e-10
8.93881e-09
4.73541e-08
1.43169e-08
4.10133e-08
1.32003e-08
3.50232e-08
1.2262e-08
2.93577e-08
1.14839e-08
2.39801e-08
1.08467e-08
1.88348e-08
1.03399e-08
1.38752e-08
9.94961e-09
9.03577e-09
9.66365e-09
4.44302e-09
9.44631e-09
9.21149e-09
4.30307e-08
2.08942e-09
2.23156e-08
3.68311e-08
1.57012e-09
2.05214e-08
3.09699e-08
1.20759e-09
1.89924e-08
2.5399e-08
9.5335e-10
1.77283e-08
2.00703e-08
7.54212e-10
1.6743e-08
1.49778e-08
6.26593e-10
1.59651e-08
1.00452e-08
4.16302e-10
1.53131e-08
5.39119e-09
5.97796e-10
1.39277e-08
2.4305e-11
1.26707e-08
4.89329e-08
1.84181e-09
2.40989e-08
4.25056e-08
1.35473e-09
2.21174e-08
3.64211e-08
1.02674e-09
2.03967e-08
3.06443e-08
8.09241e-10
1.89369e-08
2.51335e-08
6.64807e-10
1.77209e-08
1.98453e-08
5.4986e-10
1.6758e-08
1.47739e-08
4.69691e-10
1.60125e-08
9.85494e-09
3.5392e-10
1.53669e-08
5.21314e-09
5.20373e-10
1.42256e-08
4.85338e-10
1.30013e-08
4.83383e-08
9.06046e-10
2.32346e-08
4.19871e-08
6.74069e-10
2.1379e-08
3.5963e-08
5.28573e-10
1.97944e-08
3.02367e-08
4.4166e-10
1.84609e-08
2.4768e-08
3.93046e-10
1.73522e-08
1.95107e-08
3.53998e-10
1.64693e-08
1.44433e-08
3.20736e-10
1.58031e-08
9.52287e-09
2.64949e-10
1.53128e-08
4.81809e-09
3.68996e-10
1.46944e-08
3.72047e-10
1.38702e-08
4.72465e-08
2.18729e-08
4.09457e-08
2.01751e-08
3.49875e-08
1.87487e-08
2.93458e-08
1.75672e-08
2.39833e-08
1.66023e-08
1.88453e-08
1.58319e-08
1.3888e-08
1.52276e-08
9.04896e-09
1.47676e-08
4.4643e-09
1.44e-08
1.40478e-08
4.30275e-08
2.13017e-09
2.93598e-08
3.68984e-08
1.60336e-09
2.70473e-08
3.10824e-08
1.23231e-09
2.50816e-08
2.55403e-08
9.69192e-10
2.34521e-08
2.02438e-08
7.62339e-10
2.21581e-08
1.52037e-08
6.33436e-10
2.10994e-08
1.03413e-08
4.43493e-10
2.02e-08
5.6565e-09
7.13139e-10
1.86416e-08
1.92739e-10
1.77319e-08
4.88053e-08
2.00107e-09
3.16646e-08
4.2467e-08
1.50166e-09
2.90842e-08
3.64469e-08
1.16168e-09
2.68585e-08
3.07124e-08
9.31207e-10
2.49724e-08
2.5229e-08
7.72589e-10
2.3401e-08
1.99682e-08
6.41476e-10
2.21396e-08
1.49397e-08
5.46428e-10
2.11281e-08
1.00721e-08
4.19696e-10
2.02583e-08
5.40631e-09
6.1953e-10
1.8985e-08
6.25621e-10
1.79747e-08
4.81494e-08
1.06049e-09
3.07774e-08
4.18748e-08
8.19512e-10
2.83357e-08
3.59093e-08
6.6592e-10
2.62557e-08
3.02251e-08
5.70189e-10
2.45061e-08
2.47853e-08
5.11485e-10
2.30531e-08
1.95515e-08
4.59479e-10
2.18851e-08
1.45138e-08
4.11522e-10
2.09756e-08
9.6255e-09
3.38904e-10
2.0282e-08
4.91102e-09
4.51699e-10
1.95767e-08
4.72104e-10
1.89347e-08
4.69477e-08
2.95134e-08
4.07084e-08
2.7234e-08
3.48031e-08
2.532e-08
2.92056e-08
2.37349e-08
2.38784e-08
2.2441e-08
1.87673e-08
2.14025e-08
1.38298e-08
2.05766e-08
9.00188e-09
1.99344e-08
4.43337e-09
1.94202e-08
1.89533e-08
4.28353e-08
2.15943e-09
3.62236e-08
3.67862e-08
1.63017e-09
3.34192e-08
3.10302e-08
1.25445e-09
3.10411e-08
2.55349e-08
9.84827e-10
2.90655e-08
2.02836e-08
7.72055e-10
2.74745e-08
1.52891e-08
6.48226e-10
2.61518e-08
1.04593e-08
4.79909e-10
2.50445e-08
5.74286e-09
8.72491e-10
2.34359e-08
3.79078e-10
2.29138e-08
4.84887e-08
2.0839e-09
3.90632e-08
4.22457e-08
1.5813e-09
3.59053e-08
3.63008e-08
1.23752e-09
3.31961e-08
3.06239e-08
1.00063e-09
3.09032e-08
2.51855e-08
8.32468e-10
2.89917e-08
1.99665e-08
6.89336e-10
2.74413e-08
1.49785e-08
5.86704e-10
2.61776e-08
1.01328e-08
4.58324e-10
2.51257e-08
5.45286e-09
7.14409e-10
2.3823e-08
7.55953e-10
2.30507e-08
4.77813e-08
1.1157e-09
3.82451e-08
4.15939e-08
8.74391e-10
3.523e-08
3.56999e-08
7.19766e-10
3.26675e-08
3.00731e-08
6.20064e-10
3.05135e-08
2.46795e-08
5.54109e-10
2.8725e-08
1.94851e-08
4.91874e-10
2.72769e-08
1.44823e-08
4.35166e-10
2.61299e-08
9.61276e-09
3.5732e-10
2.52525e-08
4.8986e-09
4.99699e-10
2.45056e-08
5.5803e-10
2.40313e-08
4.65095e-08
3.71212e-08
4.03482e-08
3.42698e-08
3.45114e-08
3.18765e-08
2.8973e-08
2.98933e-08
2.36952e-08
2.82729e-08
1.86236e-08
2.6966e-08
1.3717e-08
2.59184e-08
8.91057e-09
2.50982e-08
4.37598e-09
2.44545e-08
2.38873e-08
4.24727e-08
2.16008e-09
4.29341e-08
3.65145e-08
1.63367e-09
3.96596e-08
3.0832e-08
1.25745e-09
3.68891e-08
2.53974e-08
9.84333e-10
3.45849e-08
2.01981e-08
7.68389e-10
3.27131e-08
1.52381e-08
6.56145e-10
3.11576e-08
1.04164e-08
5.11213e-10
2.98885e-08
5.68558e-09
1.06201e-09
2.83214e-08
5.81289e-10
2.80991e-08
4.79983e-08
2.0945e-09
4.63232e-08
4.18601e-08
1.59631e-09
4.26073e-08
3.60022e-08
1.25491e-09
3.94327e-08
3.03966e-08
1.01637e-09
3.67499e-08
2.50176e-08
8.42256e-10
3.45127e-08
1.98487e-08
6.91252e-10
3.26874e-08
1.4896e-08
5.89252e-10
3.11972e-08
1.0058e-08
4.72877e-10
3.0002e-08
5.39532e-09
8.02525e-10
2.87452e-08
8.67895e-10
2.81594e-08
4.72504e-08
1.10642e-09
4.56176e-08
4.11625e-08
8.70001e-10
4.20442e-08
3.53535e-08
7.18255e-10
3.90132e-08
2.97987e-08
6.17666e-10
3.6467e-08
2.44661e-08
5.46736e-10
3.43531e-08
1.9323e-08
4.77306e-10
3.2634e-08
1.436e-08
4.17422e-10
3.12648e-08
9.5121e-09
3.44241e-10
3.02291e-08
4.82495e-09
5.31306e-10
2.9464e-08
6.28619e-10
2.90955e-08
4.59412e-08
4.46122e-08
3.98749e-08
4.12061e-08
3.41224e-08
3.83473e-08
2.86575e-08
3.59758e-08
2.34421e-08
3.40351e-08
1.84214e-08
3.2464e-08
1.3556e-08
3.12013e-08
8.78267e-09
3.02157e-08
4.2995e-09
2.94689e-08
2.88154e-08
4.19516e-08
2.13089e-09
4.95057e-08
3.60968e-08
1.61177e-09
4.57809e-08
3.05019e-08
1.23877e-09
4.26357e-08
2.5141e-08
9.65098e-10
4.00198e-08
2.00003e-08
7.48775e-10
3.78871e-08
1.50701e-08
6.52722e-10
3.61375e-08
1.02505e-08
5.35276e-10
3.47462e-08
5.52899e-09
1.26861e-09
3.32993e-08
7.962e-10
3.32177e-08
4.73442e-08
2.05381e-09
5.34469e-08
4.13232e-08
1.56539e-09
4.91937e-08
3.55656e-08
1.23059e-09
4.55715e-08
3.00455e-08
9.94228e-10
4.25145e-08
2.47392e-08
8.17611e-10
3.99666e-08
1.96286e-08
6.62944e-10
3.78838e-08
1.47115e-08
5.68154e-10
3.61988e-08
9.8853e-09
4.70033e-10
3.48934e-08
5.27614e-09
8.82737e-10
3.37402e-08
9.60443e-10
3.32713e-08
4.65702e-08
1.06366e-09
5.28611e-08
4.05965e-08
8.3401e-10
4.87493e-08
3.48868e-08
6.8677e-10
4.52667e-08
2.94184e-08
5.87169e-10
4.23425e-08
2.41606e-08
5.13078e-10
3.99155e-08
1.90804e-08
4.39205e-10
3.79379e-08
1.41656e-08
3.82598e-10
3.63651e-08
9.35274e-09
3.20782e-10
3.51913e-08
4.72075e-09
5.57768e-10
3.44209e-08
6.84476e-10
3.40922e-08
4.52516e-08
5.19331e-08
3.92977e-08
4.79939e-08
3.36448e-08
4.4687e-08
2.82672e-08
4.19405e-08
2.31264e-08
3.9689e-08
1.81677e-08
3.78619e-08
1.33543e-08
3.63973e-08
8.62744e-09
3.52634e-08
4.21036e-09
3.44438e-08
3.37103e-08
4.12859e-08
2.07913e-09
5.59393e-08
3.55488e-08
1.5705e-09
5.1784e-08
3.00558e-08
1.2036e-09
4.82807e-08
2.4782e-08
9.31684e-10
4.53697e-08
1.971e-08
7.17053e-10
4.29975e-08
1.48152e-08
6.38442e-10
4.10924e-08
1.00069e-08
5.50203e-10
3.96096e-08
5.3107e-09
1.47069e-09
3.83695e-08
1.01263e-09
3.82521e-08
4.65399e-08
1.98383e-09
6.04209e-08
4.06506e-08
1.50832e-09
5.56537e-08
3.50077e-08
1.18258e-09
5.16024e-08
2.95875e-08
9.50962e-10
4.81873e-08
2.43671e-08
7.74457e-10
4.53442e-08
1.93252e-08
6.19561e-10
4.30232e-08
1.44522e-08
5.35455e-10
4.11749e-08
9.65345e-09
4.59004e-10
3.97833e-08
5.12528e-09
9.49641e-10
3.87894e-08
1.03489e-09
3.83743e-08
4.57561e-08
1.00991e-09
5.99401e-08
3.99122e-08
7.87643e-10
5.53139e-08
3.43166e-08
6.4563e-10
5.13992e-08
2.89484e-08
5.48319e-10
4.81133e-08
2.37785e-08
4.72689e-10
4.53872e-08
1.87731e-08
3.9687e-10
4.3166e-08
1.39183e-08
3.45665e-10
4.14097e-08
9.15813e-09
2.97038e-10
4.01134e-08
4.60277e-09
5.78371e-10
3.93476e-08
7.26423e-10
3.90034e-08
4.44489e-08
5.90531e-08
3.86245e-08
5.4606e-08
3.30859e-08
5.08712e-08
2.78089e-08
4.77659e-08
2.27545e-08
4.5216e-08
1.78691e-08
4.31442e-08
1.31194e-08
4.14926e-08
8.45276e-09
4.0227e-08
4.11293e-09
3.9362e-08
3.85496e-08
4.04925e-08
2.01409e-09
6.22264e-08
3.48878e-08
1.5178e-09
5.76605e-08
2.95113e-08
1.15862e-09
5.38165e-08
2.43388e-08
8.89803e-10
5.06264e-08
1.93495e-08
6.78064e-10
4.80341e-08
1.45067e-08
6.13808e-10
4.60052e-08
9.72995e-09
5.51965e-10
4.44525e-08
5.06376e-09
1.63138e-09
4.35247e-08
1.22224e-09
4.31773e-08
4.56015e-08
1.90114e-09
6.72241e-08
3.98594e-08
1.44025e-09
6.19696e-08
3.43457e-08
1.12474e-09
5.75092e-08
2.90397e-08
8.99143e-10
5.37529e-08
2.39187e-08
7.24452e-10
5.06305e-08
1.89588e-08
5.71898e-10
4.80893e-08
1.41452e-08
4.98628e-10
4.61036e-08
9.39541e-09
4.43791e-10
4.46413e-08
4.96087e-09
9.93443e-10
4.38619e-08
1.0842e-09
4.34732e-08
4.48229e-08
9.5371e-10
6.68264e-08
3.91244e-08
7.39172e-10
6.17135e-08
3.36572e-08
6.02786e-10
5.73883e-08
2.84029e-08
5.08464e-10
5.37583e-08
2.33334e-08
4.32486e-10
5.07487e-08
1.84149e-08
3.56934e-10
4.82995e-08
1.36337e-08
3.11953e-10
4.63776e-08
8.94377e-09
2.76245e-10
4.49708e-08
4.47856e-09
5.894e-10
4.42168e-08
7.53987e-10
4.38122e-08
4.35407e-08
6.59511e-08
3.78617e-08
6.10242e-08
3.24517e-08
5.6884e-08
2.72875e-08
5.34385e-08
2.23311e-08
5.06049e-08
1.75307e-08
4.83016e-08
1.28568e-08
4.64784e-08
8.26448e-09
4.50957e-08
4.0099e-09
4.4206e-08
4.33135e-08
3.95888e-08
1.94228e-09
6.83518e-08
3.41309e-08
1.4606e-09
6.33978e-08
2.8885e-08
1.1097e-09
5.92307e-08
2.38283e-08
8.45183e-10
5.57773e-08
1.89379e-08
6.36926e-10
5.29799e-08
1.41727e-08
5.78975e-10
5.08446e-08
9.45737e-09
5.37686e-10
4.92343e-08
4.84209e-09
1.69244e-09
4.87033e-08
1.32732e-09
4.79815e-08
4.45452e-08
1.81587e-09
7.3834e-08
3.89655e-08
1.37048e-09
6.81212e-08
3.35953e-08
1.06545e-09
6.32745e-08
2.8417e-08
8.4605e-10
5.91948e-08
2.34092e-08
6.74166e-10
5.58093e-08
1.85462e-08
5.25836e-10
5.30634e-08
1.38119e-08
4.61018e-10
5.09558e-08
9.13539e-09
4.25519e-10
4.943e-08
4.79422e-09
1.00103e-09
4.88945e-08
1.11492e-09
4.84798e-08
4.37827e-08
8.99549e-10
7.34983e-08
3.82449e-08
6.93057e-10
6.79288e-08
3.292e-08
5.62293e-10
6.32164e-08
2.77922e-08
4.70826e-10
5.92613e-08
2.28352e-08
3.95327e-10
5.59845e-08
1.8016e-08
3.22101e-10
5.33224e-08
1.33223e-08
2.82944e-10
5.12493e-08
8.71843e-09
2.58683e-10
4.97415e-08
4.35048e-09
5.84984e-10
4.90008e-08
7.64696e-10
4.85129e-08
4.25336e-08
7.26121e-08
3.70153e-08
6.72355e-08
3.1747e-08
6.27146e-08
2.67075e-08
5.89488e-08
2.18601e-08
5.58476e-08
1.71565e-08
5.33273e-08
1.25711e-08
5.13467e-08
8.06666e-09
4.98588e-08
3.90297e-09
4.89546e-08
4.79812e-08
4.03953e-08
5.74738e-10
7.62687e-08
3.41257e-08
3.00052e-10
7.06625e-08
2.83828e-08
8.78844e-11
6.60402e-08
2.30742e-08
-8.99301e-11
6.22701e-08
1.81053e-08
-2.24562e-10
5.92445e-08
1.339e-08
-3.24814e-10
5.69087e-08
8.79802e-09
-3.24895e-10
5.51772e-08
4.39517e-09
-4.60902e-10
5.41553e-08
-3.61209e-10
5.30708e-08
4.15083e-08
1.19668e-09
7.62324e-08
3.5244e-08
7.16862e-10
7.04798e-08
2.94675e-08
3.4412e-10
6.57398e-08
2.40848e-08
4.51082e-11
6.18773e-08
1.90123e-08
-1.76523e-10
5.87879e-08
1.41867e-08
-3.52296e-10
5.64288e-08
9.4963e-09
-3.65739e-10
5.47674e-08
4.91385e-09
-6.27553e-10
5.40551e-08
-2.29978e-10
5.36199e-08
4.17363e-08
1.775e-09
7.57536e-08
3.55731e-08
1.14801e-09
6.99716e-08
2.98542e-08
6.61671e-10
6.51964e-08
2.44952e-08
2.76717e-10
6.1306e-08
1.94281e-08
-1.26685e-11
5.8202e-08
1.45928e-08
-2.68079e-10
5.58894e-08
9.85096e-09
-2.89854e-10
5.43008e-08
5.3081e-09
-9.696e-10
5.40214e-08
1.85178e-10
5.3645e-08
4.15365e-08
2.2385e-09
7.54589e-08
3.55019e-08
1.51424e-09
6.97068e-08
2.98718e-08
9.53744e-10
6.49409e-08
2.45696e-08
5.12579e-10
6.10543e-08
1.95393e-08
1.73006e-10
5.79579e-08
1.47091e-08
-1.49201e-10
5.56824e-08
9.94558e-09
-1.67332e-10
5.40735e-08
5.2458e-09
-1.25085e-09
5.40074e-08
5.3316e-08
4.10644e-08
2.5387e-09
7.52395e-08
3.51713e-08
1.76694e-09
6.95561e-08
2.96329e-08
1.17537e-09
6.48343e-08
2.4372e-08
7.19313e-10
6.09819e-08
1.93188e-08
3.75319e-10
5.79227e-08
1.42656e-08
1.00405e-10
5.579e-08
9.19395e-09
9.11831e-11
5.41543e-08
-2.92521e-10
5.67079e-08
4.04594e-08
2.64974e-09
7.50252e-08
3.47242e-08
1.88059e-09
6.9427e-08
2.92984e-08
1.29757e-09
6.47632e-08
2.41162e-08
8.55492e-10
6.09484e-08
1.91183e-08
5.26046e-10
5.79074e-08
1.40942e-08
3.12576e-10
5.57783e-08
9.09337e-09
2.74019e-10
5.40151e-08
4.56985e-10
5.63753e-08
3.98156e-08
2.56711e-09
7.47905e-08
3.42407e-08
1.8507e-09
6.92837e-08
2.89301e-08
1.31569e-09
6.46824e-08
2.383e-08
9.15072e-10
6.09057e-08
1.88903e-08
6.17519e-10
5.78828e-08
1.39063e-08
4.76773e-10
5.57529e-08
8.93858e-09
4.11499e-10
5.39559e-08
1.18316e-09
5.62977e-08
3.91876e-08
2.30096e-09
7.45425e-08
3.37621e-08
1.68759e-09
6.91281e-08
2.85584e-08
1.23669e-09
6.45903e-08
2.35353e-08
9.02577e-10
6.08513e-08
1.86454e-08
6.57379e-10
5.78513e-08
1.36932e-08
6.06934e-10
5.57352e-08
8.70131e-09
5.60861e-10
5.40393e-08
2.1004e-09
5.6648e-08
3.85897e-08
1.86972e-09
7.4299e-08
3.32923e-08
1.40197e-09
6.89809e-08
2.81905e-08
1.06018e-09
6.4509e-08
2.3263e-08
8.00201e-10
6.08071e-08
1.84878e-08
5.96075e-10
5.78165e-08
1.38283e-08
5.35901e-10
5.5575e-08
9.21043e-09
5.06598e-10
5.39065e-08
4.74226e-09
1.57637e-09
5.36955e-08
1.23436e-09
5.26781e-08
4.33848e-08
1.73328e-09
8.02294e-08
3.7982e-08
1.30362e-09
7.40901e-08
3.27688e-08
1.00896e-09
6.88807e-08
2.77311e-08
7.95174e-10
6.44975e-08
2.28493e-08
6.26825e-10
6.08645e-08
1.80983e-08
4.84167e-10
5.79263e-08
1.3465e-08
4.24126e-10
5.5701e-08
8.88618e-09
4.05342e-10
5.411e-08
4.62967e-09
9.61834e-10
5.37655e-08
1.12739e-09
5.32164e-08
4.26457e-08
8.49708e-10
7.99382e-08
3.72828e-08
6.51417e-10
7.39439e-08
3.2113e-08
5.25583e-10
6.88695e-08
2.71236e-08
4.36034e-10
6.46098e-08
2.22906e-08
3.61625e-10
6.10827e-08
1.75827e-08
2.9261e-10
5.82219e-08
1.29904e-08
2.58197e-10
5.60076e-08
8.48643e-09
2.43641e-10
5.44073e-08
4.21949e-09
5.60421e-10
5.36692e-08
7.57468e-10
5.31023e-08
4.14343e-08
7.90249e-08
3.60907e-08
7.32306e-08
3.09765e-08
6.83543e-08
2.60727e-08
6.42887e-08
2.13451e-08
6.09368e-08
1.67498e-08
5.82152e-08
1.22652e-08
5.60896e-08
7.86163e-09
5.4506e-08
3.793e-09
5.35837e-08
5.25316e-08
3.92454e-08
6.02218e-10
8.23403e-08
3.31788e-08
3.39072e-10
7.63901e-08
2.76105e-08
1.30581e-10
7.1478e-08
2.24554e-08
-4.71818e-11
6.74723e-08
1.76244e-08
-1.8349e-10
6.4259e-08
1.30336e-08
-2.81622e-10
6.1781e-08
8.56154e-09
-2.88943e-10
5.99382e-08
4.26747e-09
-4.0645e-10
5.88558e-08
-3.45835e-10
5.76841e-08
4.03291e-08
1.2183e-09
8.22314e-08
3.42728e-08
7.5441e-10
7.61207e-08
2.86755e-08
3.89373e-10
7.10783e-08
2.34501e-08
9.20778e-11
6.69634e-08
1.85166e-08
-1.28221e-10
6.36661e-08
1.38163e-08
-2.98434e-10
6.11459e-08
9.24335e-09
-3.23434e-10
5.93748e-08
4.76786e-09
-5.30822e-10
5.86549e-08
-2.26792e-10
5.82687e-08
4.05534e-08
1.7751e-09
8.1659e-08
3.45976e-08
1.16681e-09
7.55151e-08
2.90578e-08
6.91993e-10
7.04336e-08
2.38561e-08
3.13254e-10
6.62865e-08
1.89293e-08
2.90129e-11
6.29716e-08
1.42227e-08
-2.07341e-10
6.05048e-08
9.59869e-09
-2.28848e-10
5.88303e-08
5.12229e-09
-6.24309e-10
5.85913e-08
2.41159e-10
5.82994e-08
4.03628e-08
2.21409e-09
8.13073e-08
3.45319e-08
1.51062e-09
7.51939e-08
2.90789e-08
9.64696e-10
7.01212e-08
2.39344e-08
5.3388e-10
6.59781e-08
1.90462e-08
2.04547e-10
6.26706e-08
1.43552e-08
-8.52403e-11
6.02512e-08
9.71802e-09
-8.80842e-11
5.857e-08
5.19737e-09
-6.43955e-10
5.85477e-08
7.74349e-10
5.79801e-08
3.99072e-08
2.49414e-09
8.10571e-08
3.42128e-08
1.74423e-09
7.5017e-08
2.88505e-08
1.1684e-09
6.99928e-08
2.37535e-08
7.23607e-10
6.58892e-08
1.88663e-08
3.88753e-10
6.26256e-08
1.40792e-08
1.35432e-10
6.03565e-08
9.35816e-09
1.4045e-10
5.86468e-08
4.79584e-09
2.15908e-11
6.06046e-08
1.20222e-09
5.77171e-08
3.93217e-08
2.59152e-09
8.0821e-08
3.37786e-08
1.84381e-09
7.48705e-08
2.85252e-08
1.27583e-09
6.99092e-08
2.35058e-08
8.43971e-10
6.58474e-08
1.86754e-08
5.21312e-10
6.26053e-08
1.39285e-08
3.15636e-10
6.0345e-08
9.27685e-09
2.89236e-10
5.85179e-08
4.78833e-09
5.18399e-10
6.0367e-08
1.13685e-09
5.67047e-08
3.86974e-08
2.50025e-09
8.05663e-08
3.33079e-08
1.80489e-09
7.47121e-08
2.81648e-08
1.28291e-09
6.98183e-08
2.32236e-08
8.90657e-10
6.58002e-08
1.84473e-08
5.97598e-10
6.25829e-08
1.37379e-08
4.49317e-10
6.03286e-08
9.11878e-09
3.91113e-10
5.84732e-08
4.68179e-09
9.61858e-10
6.02913e-08
9.67507e-10
5.65182e-08
3.80877e-08
2.22875e-09
8.03009e-08
3.28412e-08
1.63504e-09
7.45445e-08
2.78002e-08
1.19528e-09
6.97189e-08
2.29305e-08
8.67394e-10
6.57442e-08
1.81973e-08
6.23842e-10
6.25582e-08
1.35083e-08
5.51829e-10
6.03217e-08
8.87064e-09
5.04922e-10
5.85631e-08
4.45394e-09
1.5219e-09
6.05046e-08
1.12724e-09
5.74024e-08
3.75078e-08
1.79756e-09
8.00507e-08
3.23834e-08
1.3453e-09
7.4395e-08
2.74372e-08
1.01205e-09
6.96385e-08
2.26507e-08
7.57709e-10
6.57033e-08
1.80039e-08
5.58645e-10
6.25286e-08
1.34734e-08
4.89291e-10
6.01681e-08
8.97439e-09
4.67985e-10
5.84424e-08
4.69091e-09
1.24601e-09
5.82549e-08
1.18932e-09
5.7307e-08
4.2132e-08
1.65557e-09
8.63913e-08
3.69193e-08
1.24179e-09
7.98586e-08
3.18754e-08
9.56496e-10
7.43134e-08
2.699e-08
7.47628e-10
6.96473e-08
2.2246e-08
5.83368e-10
6.57829e-08
1.76206e-08
4.47675e-10
6.26627e-08
1.31068e-08
3.897e-10
6.03143e-08
8.64332e-09
3.85522e-10
5.8656e-08
4.45605e-09
8.80547e-10
5.83183e-08
1.13285e-09
5.7729e-08
4.14201e-08
8.05333e-10
8.61314e-08
3.62452e-08
6.14984e-10
7.97457e-08
3.12424e-08
4.92866e-10
7.43359e-08
2.64026e-08
4.04173e-10
6.97931e-08
2.17044e-08
3.3143e-10
6.60328e-08
1.71191e-08
2.68054e-10
6.29868e-08
1.26407e-08
2.37283e-10
6.06384e-08
8.24881e-09
2.31034e-10
5.89536e-08
4.08593e-09
5.18597e-10
5.8194e-08
7.43293e-10
5.75778e-08
4.02497e-08
8.51811e-08
3.50934e-08
7.90018e-08
3.01447e-08
7.37959e-08
2.53868e-08
6.94508e-08
2.07891e-08
6.58659e-08
1.63134e-08
6.2959e-08
1.19408e-08
6.06995e-08
7.64968e-09
5.90281e-08
3.67984e-09
5.80721e-08
5.69548e-08
3.80259e-08
6.37815e-10
8.81204e-08
3.21736e-08
3.86141e-10
8.18562e-08
2.67904e-08
1.79835e-10
7.66813e-08
2.17982e-08
4.10088e-12
7.24604e-08
1.71129e-08
-1.32787e-10
6.90771e-08
1.26529e-08
-2.24389e-10
6.64653e-08
8.30684e-09
-2.37746e-10
6.4522e-08
4.12809e-09
-3.43914e-10
6.33784e-08
-3.28821e-10
6.2141e-08
3.90754e-08
1.24718e-09
8.79783e-08
3.324e-08
8.00215e-10
8.1542e-08
2.78322e-08
4.41709e-10
7.62243e-08
2.27722e-08
1.48875e-10
7.18786e-08
1.79848e-08
-6.86275e-11
6.83894e-08
1.34157e-08
-2.29403e-10
6.572e-08
8.96675e-09
-2.66588e-10
6.38527e-08
4.60534e-09
-4.36242e-10
6.31087e-08
-2.24807e-10
6.277e-08
3.92933e-08
1.77856e-09
8.73345e-08
3.35574e-08
1.19114e-09
8.08601e-08
2.82071e-08
7.27783e-10
7.54977e-08
2.31709e-08
3.57873e-10
7.11138e-08
1.83908e-08
8.07654e-11
6.76023e-08
1.3818e-08
-1.38145e-10
6.49863e-08
9.31853e-09
-1.70732e-10
6.32339e-08
4.9221e-09
-4.14556e-10
6.2966e-08
1.83421e-10
6.28132e-08
3.91103e-08
2.18926e-09
8.69354e-08
3.34951e-08
1.50894e-09
8.04913e-08
2.82293e-08
9.78242e-10
7.51366e-08
2.325e-08
5.59501e-10
7.07558e-08
1.85087e-08
2.41468e-10
6.72512e-08
1.39548e-08
-1.91751e-11
6.46862e-08
9.43888e-09
-3.03221e-11
6.29455e-08
5.0119e-09
-3.2214e-10
6.28822e-08
6.29056e-10
6.25464e-08
3.86713e-08
2.44704e-09
8.66558e-08
3.31873e-08
1.7214e-09
8.02885e-08
2.8011e-08
1.16247e-09
7.49849e-08
2.30838e-08
7.29802e-10
7.0646e-08
1.83587e-08
4.05106e-10
6.71871e-08
1.37684e-08
1.70315e-10
6.47573e-08
9.22441e-09
1.71646e-10
6.29888e-08
5.14874e-09
1.80946e-10
6.41772e-08
1.05324e-09
6.24417e-08
3.81059e-08
2.52966e-09
8.63986e-08
3.27665e-08
1.80625e-09
8.0125e-08
2.76951e-08
1.2552e-09
7.48879e-08
2.28436e-08
8.34277e-10
7.05945e-08
1.81733e-08
5.19704e-10
6.71609e-08
1.36222e-08
3.21323e-10
6.47452e-08
9.1291e-09
3.01316e-10
6.28813e-08
5.12675e-09
5.45733e-10
6.40045e-08
1.13509e-09
6.17496e-08
3.75029e-08
2.42991e-09
8.6126e-08
3.23099e-08
1.75749e-09
7.99538e-08
2.73439e-08
1.251e-09
7.47886e-08
2.25672e-08
8.67579e-10
7.05436e-08
1.79484e-08
5.80633e-10
6.71408e-08
1.34331e-08
4.28033e-10
6.47372e-08
8.97124e-09
3.84842e-10
6.28515e-08
5.02317e-09
8.51572e-10
6.39335e-08
1.11162e-09
6.15648e-08
3.69137e-08
2.15585e-09
8.5846e-08
3.18571e-08
1.58128e-09
7.97773e-08
2.69881e-08
1.15408e-09
7.46849e-08
2.22787e-08
8.32808e-10
7.04884e-08
1.77011e-08
5.93256e-10
6.71232e-08
1.32069e-08
5.04706e-10
6.47392e-08
8.74606e-09
4.73514e-10
6.29352e-08
4.82564e-09
1.21995e-09
6.40567e-08
1.26457e-09
6.20751e-08
3.63527e-08
1.72783e-09
8.55919e-08
3.14127e-08
1.29032e-09
7.96259e-08
2.66321e-08
9.66062e-10
7.46071e-08
2.1996e-08
7.17971e-10
7.04542e-08
1.7486e-08
5.257e-10
6.71061e-08
1.30867e-08
4.4926e-10
6.46228e-08
8.70711e-09
4.4385e-10
6.28517e-08
4.51806e-09
1.05575e-09
6.26082e-08
1.2387e-09
6.18509e-08
4.07962e-08
1.58279e-09
9.23033e-08
3.57856e-08
1.18495e-09
8.5412e-08
3.09221e-08
9.08413e-10
7.95588e-08
2.61993e-08
7.04103e-10
7.46321e-08
2.16032e-08
5.44619e-10
7.05523e-08
1.71139e-08
4.16845e-10
6.72608e-08
1.27292e-08
3.60236e-10
6.4788e-08
8.39144e-09
3.7075e-10
6.30669e-08
4.28419e-09
8.10874e-10
6.26704e-08
1.13213e-09
6.21197e-08
4.01139e-08
7.66138e-10
9.20654e-08
3.51385e-08
5.83288e-10
8.53228e-08
3.03135e-08
4.63801e-10
7.96055e-08
2.56334e-08
3.75367e-10
7.48019e-08
2.10798e-08
3.04906e-10
7.08262e-08
1.66273e-08
2.48004e-10
6.76081e-08
1.2273e-08
2.20261e-10
6.51326e-08
8.00398e-09
2.21711e-10
6.33717e-08
3.95134e-09
4.80225e-10
6.25773e-08
7.28559e-10
6.19327e-08
3.89865e-08
9.10736e-08
3.40289e-08
8.45427e-08
2.92559e-08
7.90327e-08
2.46535e-08
7.44285e-08
2.01955e-08
7.06288e-08
1.58494e-08
6.75531e-08
1.15986e-08
6.51705e-08
7.42944e-09
6.3419e-08
3.56373e-09
6.24181e-08
6.12471e-08
3.67423e-08
6.69562e-10
9.36026e-08
3.11143e-08
4.2884e-10
8.70553e-08
2.59261e-08
2.25401e-10
8.16441e-08
2.1106e-08
5.05517e-11
7.723e-08
1.65743e-08
-8.32912e-11
7.36921e-08
1.22516e-08
-1.68445e-10
7.09565e-08
8.03799e-09
-1.88504e-10
6.89241e-08
3.98168e-09
-2.87098e-10
6.77218e-08
-3.10631e-10
6.64333e-08
3.77556e-08
1.27098e-09
9.34631e-08
3.21501e-08
8.41539e-10
8.67348e-08
2.6941e-08
4.91223e-10
8.11676e-08
2.20547e-08
2.04109e-10
7.66114e-08
1.74216e-08
-8.31565e-12
7.29475e-08
1.29905e-08
-1.59574e-10
7.01422e-08
8.67318e-09
-2.098e-10
6.81913e-08
4.43484e-09
-3.52909e-10
6.74128e-08
-2.15267e-10
6.71095e-08
3.79653e-08
1.7774e-09
9.27679e-08
3.24586e-08
1.21161e-09
8.59968e-08
2.73066e-08
7.61556e-10
8.03794e-08
2.24444e-08
4.01789e-10
7.57783e-08
1.78182e-08
1.32737e-10
7.20874e-08
1.33845e-08
-7.13167e-11
6.93318e-08
9.01819e-09
-1.19905e-10
6.75104e-08
4.72045e-09
-2.72812e-10
6.71836e-08
1.65164e-10
6.71533e-08
3.77892e-08
2.16098e-09
9.23297e-08
3.23992e-08
1.50485e-09
8.55881e-08
2.73286e-08
9.90767e-10
7.9978e-08
2.25222e-08
5.85187e-10
7.53787e-08
1.79337e-08
2.78185e-10
7.16942e-08
1.35182e-08
3.9861e-11
6.89906e-08
9.13065e-09
1.21998e-11
6.72009e-08
4.79694e-09
-1.2555e-10
6.70687e-08
5.69668e-10
6.69388e-08
3.73666e-08
2.39643e-09
9.20239e-08
3.21029e-08
1.69633e-09
8.53606e-08
2.71198e-08
1.15547e-09
7.98033e-08
2.23679e-08
7.35863e-10
7.52472e-08
1.78042e-08
4.21019e-10
7.1608e-08
1.33826e-08
2.0058e-10
6.90182e-08
8.9797e-09
1.90862e-10
6.7213e-08
4.89776e-09
2.68842e-10
6.78648e-08
9.64818e-10
6.69443e-08
3.68219e-08
2.4641e-09
9.17469e-08
3.16961e-08
1.76603e-09
8.51811e-08
2.68135e-08
1.23296e-09
7.9693e-08
2.21344e-08
8.24196e-10
7.51853e-08
1.76226e-08
5.18294e-10
7.15753e-08
1.32373e-08
3.26359e-10
6.90047e-08
8.8712e-09
3.08359e-10
6.713e-08
4.85214e-09
5.52145e-10
6.77403e-08
1.10798e-09
6.64585e-08
3.62407e-08
2.35691e-09
9.14581e-08
3.12545e-08
1.70812e-09
8.49979e-08
2.64726e-08
1.2179e-09
7.95856e-08
2.18651e-08
8.45002e-10
7.51303e-08
1.74027e-08
5.6576e-10
7.15558e-08
1.30523e-08
4.11851e-10
6.90021e-08
8.71786e-09
3.83591e-10
6.71108e-08
4.753e-09
7.76587e-10
6.76739e-08
1.14834e-09
6.62774e-08
3.56726e-08
2.08198e-09
9.11663e-08
3.08165e-08
1.52789e-09
8.48137e-08
2.61274e-08
1.1135e-09
7.94783e-08
2.15842e-08
8.00333e-10
7.50762e-08
1.7163e-08
5.66978e-10
7.15432e-08
1.28373e-08
4.67019e-10
6.90097e-08
8.52082e-09
4.55072e-10
6.71802e-08
4.59307e-09
1.02874e-09
6.77323e-08
1.27781e-09
6.65387e-08
3.51324e-08
1.65985e-09
9.09093e-08
3.03864e-08
1.23773e-09
8.46621e-08
2.57804e-08
9.23179e-10
7.94034e-08
2.13029e-08
6.82354e-10
7.50497e-08
1.69377e-08
4.97789e-10
7.15405e-08
1.26745e-08
4.1682e-10
6.89362e-08
8.42411e-09
4.28297e-10
6.71288e-08
4.32638e-09
9.28902e-10
6.68057e-08
1.23621e-09
6.62189e-08
3.93861e-08
1.51335e-09
9.79518e-08
3.45881e-08
1.13176e-09
9.07382e-08
2.99146e-08
8.64253e-10
8.46058e-08
2.53636e-08
6.64991e-10
7.94413e-08
2.09242e-08
5.11023e-10
7.5163e-08
1.65801e-08
3.91306e-10
7.17114e-08
1.23324e-08
3.35656e-10
6.91169e-08
8.13109e-09
3.58699e-10
6.73378e-08
4.11901e-09
7.51155e-10
6.68602e-08
1.11523e-09
6.63597e-08
3.87345e-08
7.30128e-10
9.77293e-08
3.39688e-08
5.5474e-10
9.06655e-08
2.93312e-08
4.37898e-10
8.46694e-08
2.48199e-08
3.50118e-10
7.96281e-08
2.04198e-08
2.82607e-10
7.54547e-08
1.61093e-08
2.31996e-10
7.2078e-08
1.18883e-08
2.06384e-10
6.94828e-08
7.75183e-09
2.14108e-10
6.76528e-08
3.8161e-09
4.46901e-10
6.68173e-08
7.10064e-10
6.6154e-08
3.76516e-08
9.66956e-08
3.29023e-08
8.98468e-08
2.83143e-08
8.40585e-08
2.38765e-08
7.92164e-08
1.95675e-08
7.52205e-08
1.53603e-08
7.19924e-08
1.124e-08
6.94971e-08
7.20054e-09
6.76726e-08
3.44495e-09
6.66206e-08
6.54021e-08
3.54009e-08
6.92816e-10
9.87855e-08
3.00068e-08
4.61958e-10
9.19875e-08
2.50222e-08
2.62392e-10
8.63664e-08
2.0382e-08
9.02342e-11
8.17799e-08
1.60105e-08
-3.96684e-11
7.81033e-08
1.18311e-08
-1.19461e-10
7.52553e-08
7.75681e-09
-1.46223e-10
7.31447e-08
3.83004e-09
-2.39043e-10
7.18877e-08
-2.91436e-10
7.05548e-08
3.63762e-08
1.2862e-09
9.86765e-08
3.10093e-08
8.73849e-10
9.16898e-08
2.60067e-08
5.32948e-10
8.58996e-08
2.13014e-08
2.5292e-10
8.1154e-08
1.68297e-08
4.64259e-11
7.73332e-08
1.25436e-08
-9.58791e-11
7.44047e-08
8.36677e-09
-1.57892e-10
7.23797e-08
4.26085e-09
-2.82801e-10
7.15625e-08
-2.01464e-10
7.12804e-08
3.65765e-08
1.76933e-09
9.79482e-08
3.13073e-08
1.22547e-09
9.09144e-08
2.63612e-08
7.89569e-10
8.50689e-08
2.168e-08
4.40918e-10
8.02715e-08
1.72146e-08
1.80571e-10
7.64186e-08
1.29265e-08
-1.14854e-11
7.35355e-08
8.70269e-09
-7.52245e-11
7.16515e-08
4.52177e-09
-1.75987e-10
7.12577e-08
1.55579e-10
7.1318e-08
3.64067e-08
2.12724e-09
9.74795e-08
3.12499e-08
1.49611e-09
9.04742e-08
2.63823e-08
9.99604e-10
8.46356e-08
2.17551e-08
6.0787e-10
7.98389e-08
1.73257e-08
3.11795e-10
7.59924e-08
1.30538e-08
9.0382e-11
7.31606e-08
8.80513e-09
4.62021e-11
7.13282e-08
4.5835e-09
-6.21776e-12
7.11205e-08
5.29777e-10
7.11481e-08
3.60007e-08
2.34143e-09
9.7151e-08
3.09651e-08
1.66776e-09
9.02246e-08
2.61824e-08
1.14589e-09
8.44397e-08
2.16106e-08
7.40287e-10
7.96867e-08
1.72104e-08
4.35552e-10
7.58845e-08
1.29449e-08
2.264e-10
7.31476e-08
8.68143e-09
2.04119e-10
7.13186e-08
4.6103e-09
3.14697e-10
7.1615e-08
8.96722e-10
7.11876e-08
3.54772e-08
2.39512e-09
9.68559e-08
3.05728e-08
1.72339e-09
9.00299e-08
2.58861e-08
1.20912e-09
8.43165e-08
2.13838e-08
8.13578e-10
7.96143e-08
1.70324e-08
5.17208e-10
7.58452e-08
1.28e-08
3.31325e-10
7.31322e-08
8.56428e-09
3.129e-10
7.12569e-08
4.54906e-09
5.48043e-10
7.15222e-08
1.07226e-09
7.08321e-08
3.49186e-08
2.28145e-09
9.65528e-08
3.01469e-08
1.65733e-09
8.98357e-08
2.55564e-08
1.18427e-09
8.4201e-08
2.11227e-08
8.23074e-10
7.95544e-08
1.68189e-08
5.5271e-10
7.58241e-08
1.26206e-08
4.00091e-10
7.31315e-08
8.41674e-09
3.83297e-10
7.12443e-08
4.45483e-09
7.25039e-10
7.14588e-08
1.15041e-09
7.06541e-08
3.43726e-08
2.00692e-09