/*--------------------------------*- C++ -*----------------------------------*\
| =========                 |                                                 |
| \\      /  F ield         | OpenFOAM: The Open Source CFD Toolbox           |
|  \\    /   O peration     | Version:  2.3.1                                 |
|   \\  /    A nd           | Web:      www.OpenFOAM.org                      |
|    \\/     M anipulation  |                                                 |
\*---------------------------------------------------------------------------*/
FoamFile
{
    version     2.0;
    format      ascii;
    class       surfaceScalarField;
    location    "5";
    object      phi_0;
}
// * * * * * * * * * * * * * * * * * * * * * * * * * * * * * * * * * * * * * //

dimensions      [0 3 -1 0 0 0 0];

internalField   nonuniform List<scalar> 
108008
(
4.14679e-08
2.12375e-09
7.57413e-09
3.52874e-08
1.63477e-09
6.92883e-09
2.95158e-08
1.30019e-09
6.37662e-09
2.40857e-08
1.06656e-09
5.92228e-09
1.89031e-08
8.8166e-10
5.58132e-09
1.38943e-08
7.72373e-10
5.34417e-09
8.87554e-09
5.25403e-10
5.18417e-09
4.33823e-09
6.20051e-10
4.60691e-09
-1.54899e-10
3.63569e-09
4.74954e-08
1.48119e-09
8.24227e-09
4.1036e-08
1.0354e-09
7.54772e-09
3.49849e-08
7.51276e-10
6.93463e-09
2.92988e-08
5.71915e-10
6.41431e-09
2.3928e-08
4.58965e-10
5.97842e-09
1.87956e-08
3.73097e-10
5.64098e-09
1.38317e-08
3.27012e-10
5.40926e-09
8.88199e-09
2.4023e-10
5.23488e-09
4.35052e-09
4.01951e-10
4.74957e-09
3.05638e-10
3.88998e-09
4.70545e-08
3.70017e-10
7.82813e-09
4.07167e-08
1.82169e-10
7.19107e-09
3.47463e-08
7.61869e-11
6.64547e-09
2.91106e-08
2.19351e-11
6.18568e-09
2.37697e-08
1.05967e-12
5.7988e-09
1.8659e-08
-1.22609e-11
5.49608e-09
1.3711e-08
-1.35282e-11
5.28852e-09
8.80092e-09
-2.60014e-11
5.17633e-09
4.16817e-09
1.05181e-10
4.92952e-09
1.9199e-10
4.28182e-09
4.64269e-08
6.97687e-09
4.01789e-08
6.43017e-09
3.42837e-08
5.97137e-09
2.87152e-08
5.59046e-09
2.34394e-08
5.27687e-09
1.84001e-08
5.02701e-09
1.35485e-08
4.83804e-09
8.81811e-09
4.70441e-09
4.30507e-09
4.61822e-09
4.49706e-09
4.27792e-08
2.06916e-09
1.50577e-08
3.65244e-08
1.56325e-09
1.38167e-08
3.06414e-08
1.21355e-09
1.27563e-08
2.50717e-08
9.70018e-10
1.18819e-08
1.9743e-08
7.79033e-10
1.1214e-08
1.46164e-08
6.57365e-10
1.07159e-08
9.57926e-09
4.26646e-10
1.03263e-08
4.9326e-09
5.4699e-10
9.26828e-09
-1.14094e-10
7.9007e-09
4.88068e-08
1.63644e-09
1.63085e-08
4.22998e-08
1.16982e-09
1.49541e-08
3.6167e-08
8.62078e-10
1.37686e-08
3.03698e-08
6.63004e-10
1.2762e-08
2.48606e-08
5.3524e-10
1.19225e-08
1.9577e-08
4.37054e-10
1.12665e-08
1.44832e-08
3.74983e-10
1.07855e-08
9.48314e-09
2.74735e-10
1.03868e-08
4.83998e-09
4.31407e-10
9.50832e-09
3.62996e-10
8.25286e-09
4.82911e-08
6.39408e-10
1.56019e-08
4.18776e-08
4.27754e-10
1.43466e-08
3.58128e-08
2.99987e-10
1.32724e-08
3.00653e-08
2.28212e-10
1.23679e-08
2.45932e-08
1.9302e-10
1.16131e-08
1.93398e-08
1.68751e-10
1.10178e-08
1.42615e-08
1.53261e-10
1.05886e-08
9.28602e-09
1.21272e-10
1.03053e-08
4.56993e-09
2.36574e-10
9.84045e-09
2.72474e-10
8.94227e-09
4.73722e-08
1.43169e-08
4.10289e-08
1.32013e-08
3.50365e-08
1.22637e-08
2.9369e-08
1.14862e-08
2.39895e-08
1.08494e-08
1.88424e-08
1.03429e-08
1.3881e-08
9.95269e-09
9.03992e-09
9.66677e-09
4.44527e-09
9.44944e-09
9.21481e-09
4.30423e-08
2.08183e-09
2.23134e-08
3.68413e-08
1.56452e-09
2.05208e-08
3.09789e-08
1.20345e-09
1.89929e-08
2.54067e-08
9.50276e-10
1.77295e-08
2.00767e-08
7.51896e-10
1.67447e-08
1.49828e-08
6.24733e-10
1.59671e-08
1.00487e-08
4.14699e-10
1.53153e-08
5.39299e-09
5.95929e-10
1.39308e-08
2.20411e-11
1.26757e-08
4.89479e-08
1.83465e-09
2.40952e-08
4.25188e-08
1.34947e-09
2.21155e-08
3.64326e-08
1.02287e-09
2.03964e-08
3.06541e-08
8.06394e-10
1.89376e-08
2.51418e-08
6.62712e-10
1.77223e-08
1.98521e-08
5.48317e-10
1.67598e-08
1.47792e-08
4.68489e-10
1.60146e-08
9.8586e-09
3.52927e-10
1.53692e-08
5.21505e-09
5.19148e-10
1.42286e-08
4.8388e-10
1.30061e-08
4.83549e-08
9.02344e-10
2.3232e-08
4.20015e-08
6.71333e-10
2.13781e-08
3.59754e-08
5.26553e-10
1.97948e-08
3.02472e-08
4.40173e-10
1.84623e-08
2.47768e-08
3.91954e-10
1.73543e-08
1.95178e-08
3.53215e-10
1.64719e-08
1.44488e-08
3.20156e-10
1.58059e-08
9.52665e-09
2.64493e-10
1.53158e-08
4.82e-09
3.68397e-10
1.46978e-08
3.71249e-10
1.38749e-08
4.72646e-08
2.18722e-08
4.09612e-08
2.01759e-08
3.50008e-08
1.87507e-08
2.93571e-08
1.75701e-08
2.39926e-08
1.66058e-08
1.88528e-08
1.58359e-08
1.38938e-08
1.52319e-08
9.05306e-09
1.4772e-08
4.46649e-09
1.44044e-08
1.40525e-08
4.30392e-08
2.12246e-09
2.93571e-08
3.69087e-08
1.59765e-09
2.70466e-08
3.10914e-08
1.22808e-09
2.50824e-08
2.5548e-08
9.66034e-10
2.34539e-08
2.02501e-08
7.59968e-10
2.21606e-08
1.52085e-08
6.31556e-10
2.11023e-08
1.03445e-08
4.41875e-10
2.02033e-08
5.658e-09
7.11314e-10
1.86459e-08
1.9059e-10
1.77378e-08
4.88205e-08
1.99365e-09
3.16599e-08
4.24803e-08
1.49616e-09
2.9082e-08
3.64584e-08
1.15758e-09
2.68583e-08
3.07224e-08
9.28149e-10
2.49736e-08
2.52373e-08
7.70307e-10
2.34031e-08
1.9975e-08
6.39783e-10
2.21424e-08
1.49448e-08
5.45115e-10
2.11312e-08
1.00755e-08
4.18628e-10
2.02618e-08
5.40797e-09
6.18262e-10
1.89892e-08
6.24122e-10
1.79805e-08
4.81662e-08
1.05654e-09
3.0774e-08
4.18893e-08
8.16544e-10
2.83346e-08
3.59217e-08
6.63685e-10
2.62563e-08
3.02356e-08
5.68502e-10
2.45081e-08
2.47941e-08
5.10212e-10
2.3056e-08
1.95586e-08
4.58535e-10
2.18886e-08
1.45192e-08
4.1081e-10
2.09796e-08
9.62914e-09
3.38352e-10
2.02862e-08
4.91279e-09
4.51028e-10
1.95814e-08
4.7124e-10
1.89406e-08
4.69661e-08
2.95118e-08
4.07241e-08
2.72344e-08
3.48165e-08
2.5322e-08
2.9217e-08
2.37381e-08
2.38878e-08
2.24452e-08
1.87748e-08
2.14074e-08
1.38356e-08
2.05819e-08
9.00595e-09
1.994e-08
4.43555e-09
1.94258e-08
1.89593e-08
4.28472e-08
2.15165e-09
3.62206e-08
3.67968e-08
1.6244e-09
3.34186e-08
3.10394e-08
1.25015e-09
3.10424e-08
2.55426e-08
9.81607e-10
2.90681e-08
2.02898e-08
7.69639e-10
2.74779e-08
1.52938e-08
6.46324e-10
2.61558e-08
1.04622e-08
4.78277e-10
2.50492e-08
5.7442e-09
8.70728e-10
2.34415e-08
3.7702e-10
2.29206e-08
4.85042e-08
2.07636e-09
3.90578e-08
4.22593e-08
1.57568e-09
3.59029e-08
3.63126e-08
1.2333e-09
3.31961e-08
3.06339e-08
9.97452e-10
3.09049e-08
2.51939e-08
8.30074e-10
2.89947e-08
1.99732e-08
6.87552e-10
2.74452e-08
1.49835e-08
5.85326e-10
2.61819e-08
1.0136e-08
4.57206e-10
2.51304e-08
5.45436e-09
7.13138e-10
2.38284e-08
7.54444e-10
2.30575e-08
4.77984e-08
1.11166e-09
3.8241e-08
4.16086e-08
8.71334e-10
3.52287e-08
3.57125e-08
7.17439e-10
3.26683e-08
3.00838e-08
6.18283e-10
3.0516e-08
2.46884e-08
5.52748e-10
2.87287e-08
1.94922e-08
4.90856e-10
2.72815e-08
1.44877e-08
4.34395e-10
2.6135e-08
9.61632e-09
3.56731e-10
2.5258e-08
4.9003e-09
4.99008e-10
2.45116e-08
5.57131e-10
2.40382e-08
4.65283e-08
3.71187e-08
4.03642e-08
3.42698e-08
3.4525e-08
3.18786e-08
2.89845e-08
2.98969e-08
2.37047e-08
2.82778e-08
1.86312e-08
2.69717e-08
1.37228e-08
2.59247e-08
8.91465e-09
2.51048e-08
4.37817e-09
2.44613e-08
2.38946e-08
4.24849e-08
2.15232e-09
4.2931e-08
3.65253e-08
1.62788e-09
3.96593e-08
3.08414e-08
1.25312e-09
3.6891e-08
2.54053e-08
9.81085e-10
3.45884e-08
2.02043e-08
7.65947e-10
3.27176e-08
1.52428e-08
6.54239e-10
3.11629e-08
1.04192e-08
5.09576e-10
2.98945e-08
5.68685e-09
1.06034e-09
2.83283e-08
5.79376e-10
2.81069e-08
4.80142e-08
2.08696e-09
4.63172e-08
4.18739e-08
1.59067e-09
4.26049e-08
3.60142e-08
1.25065e-09
3.94331e-08
3.04068e-08
1.01314e-09
3.67523e-08
2.50261e-08
8.3981e-10
3.45166e-08
1.98555e-08
6.89424e-10
3.26923e-08
1.4901e-08
5.87843e-10
3.12028e-08
1.00611e-08
4.71745e-10
3.00081e-08
5.39674e-09
8.01261e-10
2.87519e-08
8.66415e-10
2.81672e-08
4.72679e-08
1.10241e-09
4.56128e-08
4.11776e-08
8.66954e-10
4.20427e-08
3.53664e-08
7.15921e-10
3.90143e-08
2.98096e-08
6.15867e-10
3.647e-08
2.44751e-08
5.45354e-10
3.43577e-08
1.93302e-08
4.76267e-10
3.26396e-08
1.43654e-08
4.16636e-10
3.1271e-08
9.51562e-09
3.43646e-10
3.02359e-08
4.82664e-09
5.30602e-10
2.94712e-08
6.27713e-10
2.91035e-08
4.59604e-08
4.4609e-08
3.98913e-08
4.12059e-08
3.41363e-08
3.83495e-08
2.86692e-08
3.59799e-08
2.34517e-08
3.40406e-08
1.84291e-08
3.24706e-08
1.35618e-08
3.12086e-08
8.78678e-09
3.02235e-08
4.3017e-09
2.9477e-08
2.88241e-08
4.19642e-08
2.12322e-09
4.95026e-08
3.6108e-08
1.60603e-09
4.5781e-08
3.05115e-08
1.23447e-09
4.26383e-08
2.51489e-08
9.61855e-10
4.00243e-08
2.00066e-08
7.46327e-10
3.78928e-08
1.50747e-08
6.50831e-10
3.61441e-08
1.02532e-08
5.33647e-10
3.47537e-08
5.53031e-09
1.26707e-09
3.33075e-08
7.94481e-10
3.32264e-08
4.73607e-08
2.04637e-09
5.34406e-08
4.13375e-08
1.55982e-09
4.91914e-08
3.55779e-08
1.22636e-09
4.55723e-08
3.0056e-08
9.91013e-10
4.25177e-08
2.47478e-08
8.15165e-10
3.99715e-08
1.96354e-08
6.61112e-10
3.789e-08
1.47164e-08
5.66743e-10
3.62058e-08
9.88832e-09
4.68905e-10
3.4901e-08
5.27755e-09
8.81502e-10
3.37482e-08
9.59021e-10
3.32802e-08
4.65883e-08
1.05974e-09
5.2856e-08
4.0612e-08
8.3103e-10
4.87478e-08
3.49001e-08
6.84482e-10
4.52681e-08
2.94295e-08
5.85397e-10
4.23462e-08
2.41697e-08
5.11711e-10
3.99209e-08
1.90877e-08
4.38175e-10
3.79446e-08
1.4171e-08
3.81816e-10
3.63726e-08
9.35628e-09
3.20191e-10
3.51993e-08
4.72246e-09
5.57077e-10
3.44295e-08
6.83585e-10
3.41014e-08
4.52714e-08
5.19294e-08
3.93146e-08
4.79937e-08
3.36591e-08
4.46895e-08
2.82792e-08
4.19452e-08
2.31363e-08
3.96953e-08
1.81755e-08
3.78695e-08
1.33603e-08
3.64057e-08
8.63161e-09
3.52724e-08
4.21259e-09
3.44531e-08
3.37202e-08
4.12992e-08
2.0716e-09
5.59365e-08
3.55603e-08
1.56485e-09
5.17848e-08
3.00656e-08
1.19935e-09
4.82843e-08
2.47901e-08
9.28468e-10
4.53754e-08
1.97164e-08
7.14602e-10
4.30047e-08
1.48199e-08
6.36572e-10
4.11006e-08
1.00096e-08
5.48607e-10
3.96186e-08
5.31212e-09
1.46933e-09
3.83791e-08
1.01113e-09
3.82621e-08
4.65571e-08
1.97658e-09
6.04145e-08
4.06655e-08
1.50288e-09
5.56517e-08
3.50204e-08
1.17845e-09
5.16038e-08
2.95982e-08
9.47807e-10
4.81914e-08
2.43759e-08
7.72047e-10
4.53503e-08
1.93321e-08
6.17755e-10
4.30306e-08
1.44572e-08
5.34065e-10
4.11832e-08
9.65647e-09
4.57897e-10
3.97924e-08
5.12671e-09
9.48454e-10
3.87988e-08
1.03358e-09
3.83844e-08
4.5775e-08
1.00611e-09
5.99348e-08
3.99282e-08
7.8476e-10
5.53127e-08
3.43302e-08
6.43414e-10
5.14012e-08
2.89599e-08
5.46598e-10
4.81178e-08
2.37879e-08
4.71358e-10
4.53936e-08
1.87805e-08
3.95866e-10
4.31738e-08
1.39238e-08
3.449e-10
4.14185e-08
9.16174e-09
2.96462e-10
4.01228e-08
4.60452e-09
5.77704e-10
3.93574e-08
7.25564e-10
3.9014e-08
4.44695e-08
5.90492e-08
3.86419e-08
5.4606e-08
3.31007e-08
5.08742e-08
2.78212e-08
4.77713e-08
2.27646e-08
4.52233e-08
1.78771e-08
4.31528e-08
1.31255e-08
4.15023e-08
8.457e-09
4.02373e-08
4.11519e-09
3.93726e-08
3.8561e-08
4.05064e-08
2.00674e-09
6.22242e-08
3.48998e-08
1.51223e-09
5.76622e-08
2.95215e-08
1.1544e-09
5.38211e-08
2.43472e-08
8.86581e-10
5.06334e-08
1.9356e-08
6.75556e-10
4.80426e-08
1.45115e-08
6.11923e-10
4.60149e-08
9.7328e-09
5.50402e-10
4.4463e-08
5.06526e-09
1.63023e-09
4.35357e-08
1.22099e-09
4.31887e-08
4.56196e-08
1.89411e-09
6.72179e-08
3.9875e-08
1.43497e-09
6.19681e-08
3.43589e-08
1.12073e-09
5.75114e-08
2.90508e-08
8.96077e-10
5.37579e-08
2.39278e-08
7.22104e-10
5.06377e-08
1.89659e-08
5.70135e-10
4.8098e-08
1.41503e-08
4.97276e-10
4.61135e-08
9.39848e-09
4.42722e-10
4.46518e-08
4.96234e-09
9.92319e-10
4.38729e-08
1.08299e-09
4.34848e-08
4.48426e-08
9.50053e-10
6.68213e-08
3.91411e-08
7.36401e-10
6.17128e-08
3.36714e-08
6.00656e-10
5.7391e-08
2.84147e-08
5.06808e-10
5.37637e-08
2.3343e-08
4.31202e-10
5.07562e-08
1.84225e-08
3.55965e-10
4.83085e-08
1.36393e-08
3.11212e-10
4.63877e-08
8.94747e-09
2.75691e-10
4.49817e-08
4.48036e-09
5.88765e-10
4.42281e-08
7.53168e-10
4.38241e-08
4.3562e-08
6.59474e-08
3.78798e-08
6.10246e-08
3.24669e-08
5.68877e-08
2.73002e-08
5.34448e-08
2.23415e-08
5.06132e-08
1.75389e-08
4.83114e-08
1.28631e-08
4.64893e-08
8.26879e-09
4.51073e-08
4.01219e-09
4.4218e-08
4.33263e-08
3.96034e-08
1.93519e-09
6.83503e-08
3.41435e-08
1.45527e-09
6.34006e-08
2.88956e-08
1.10567e-09
5.92366e-08
2.3837e-08
8.42109e-10
5.57858e-08
1.89447e-08
6.34643e-10
5.29902e-08
1.41775e-08
5.77224e-10
5.0856e-08
9.46026e-09
5.36214e-10
4.92465e-08
4.84365e-09
1.69144e-09
4.87158e-08
1.32631e-09
4.79945e-08
4.45642e-08
1.80909e-09
7.38284e-08
3.89817e-08
1.36539e-09
6.81205e-08
3.36091e-08
1.06157e-09
6.32777e-08
2.84285e-08
8.43077e-10
5.9201e-08
2.34186e-08
6.71881e-10
5.58179e-08
1.85535e-08
5.2411e-10
5.30736e-08
1.38172e-08
4.59699e-10
5.09673e-08
9.13856e-09
4.24493e-10
4.94422e-08
4.79576e-09
9.99984e-10
4.89071e-08
1.1138e-09
4.8493e-08
4.38033e-08
8.96041e-10
7.34936e-08
3.82623e-08
6.904e-10
6.79287e-08
3.29347e-08
5.60252e-10
6.322e-08
2.78044e-08
4.6924e-10
5.92678e-08
2.28451e-08
3.94094e-10
5.59932e-08
1.80238e-08
3.21169e-10
5.33328e-08
1.33281e-08
2.82233e-10
5.12609e-08
8.72223e-09
2.58155e-10
4.97539e-08
4.35234e-09
5.84386e-10
4.90136e-08
7.63919e-10
4.85264e-08
4.25557e-08
7.26089e-08
3.7034e-08
6.72367e-08
3.17628e-08
6.27192e-08
2.67206e-08
5.89562e-08
2.18708e-08
5.58571e-08
1.7165e-08
5.33384e-08
1.25775e-08
5.1359e-08
8.07107e-09
4.98719e-08
3.90531e-09
4.89681e-08
4.79956e-08
4.03996e-08
5.72319e-10
7.62611e-08
3.41309e-08
2.98364e-10
7.06612e-08
2.83882e-08
8.67777e-11
6.60437e-08
2.30792e-08
-9.06957e-11
6.2277e-08
1.81097e-08
-2.25187e-10
5.92539e-08
1.33936e-08
-3.25375e-10
5.692e-08
8.80073e-09
-3.25487e-10
5.51898e-08
4.39674e-09
-4.61285e-10
5.41686e-08
-3.61239e-10
5.30853e-08
4.15123e-08
1.19203e-09
7.62243e-08
3.52488e-08
7.13529e-10
7.04782e-08
2.94725e-08
3.41807e-10
6.5743e-08
2.40895e-08
4.34567e-11
6.18841e-08
1.90164e-08
-1.77842e-10
5.87974e-08
1.419e-08
-3.53396e-10
5.64402e-08
9.49858e-09
-3.66772e-10
5.478e-08
4.91501e-09
-6.28284e-10
5.40682e-08
-2.30395e-10
5.36334e-08
4.17411e-08
1.76842e-09
7.57462e-08
3.55785e-08
1.14325e-09
6.99706e-08
2.98596e-08
6.58233e-10
6.52002e-08
2.45001e-08
2.74236e-10
6.13134e-08
1.94322e-08
-1.45647e-11
5.8212e-08
1.45959e-08
-2.69679e-10
5.59013e-08
9.85279e-09
-2.91228e-10
5.4314e-08
5.309e-09
-9.71075e-10
5.4035e-08
1.83944e-10
5.36587e-08
4.15426e-08
2.23037e-09
7.54525e-08
3.55082e-08
1.50833e-09
6.97067e-08
2.98778e-08
9.49368e-10
6.49453e-08
2.45749e-08
5.09332e-10
6.10622e-08
1.95437e-08
1.70522e-10
5.79685e-08
1.47122e-08
-1.51317e-10
5.56947e-08
9.94736e-09
-1.69007e-10
5.40869e-08
5.24678e-09
-1.253e-09
5.40209e-08
5.33298e-08
4.10721e-08
2.5295e-09
7.52342e-08
3.51787e-08
1.76023e-09
6.95568e-08
2.96397e-08
1.17044e-09
6.48394e-08
2.43778e-08
7.15654e-10
6.09903e-08
1.93234e-08
3.72549e-10
5.79336e-08
1.42685e-08
9.81217e-11
5.58029e-08
9.19543e-09
8.93937e-11
5.41679e-08
-2.94367e-10
5.67248e-08
4.04692e-08
2.64017e-09
7.50211e-08
3.47331e-08
1.87352e-09
6.94284e-08
2.93062e-08
1.29236e-09
6.47688e-08
2.41227e-08
8.51647e-10
6.09572e-08
1.91235e-08
5.23179e-10
5.79185e-08
1.40976e-08
3.10268e-10
5.57913e-08
9.09508e-09
2.72177e-10
5.40288e-08
4.55508e-10
5.63924e-08
3.98273e-08
2.5579e-09
7.47877e-08
3.42511e-08
1.8438e-09
6.9286e-08
2.8939e-08
1.31051e-09
6.46886e-08
2.38374e-08
9.11216e-10
6.0915e-08
1.88959e-08
6.14562e-10
5.78942e-08
1.391e-08
4.74527e-10
5.57661e-08
8.9406e-09
4.09675e-10
5.39697e-08
1.18215e-09
5.63148e-08
3.92014e-08
2.29262e-09
7.45408e-08
3.3774e-08
1.68132e-09
6.91312e-08
2.85685e-08
1.23195e-09
6.45969e-08
2.35436e-08
8.99e-10
6.08608e-08
1.86516e-08
6.54611e-10
5.78627e-08
1.36972e-08
6.04909e-10
5.57484e-08
8.70361e-09
5.59153e-10
5.4053e-08
2.09969e-09
5.66649e-08
3.86052e-08
1.86285e-09
7.42985e-08
3.33055e-08
1.39677e-09
6.89848e-08
2.82015e-08
1.05626e-09
6.45163e-08
2.32721e-08
7.97217e-10
6.0817e-08
1.84948e-08
5.93762e-10
5.78284e-08
1.38334e-08
5.34173e-10
5.55881e-08
9.21344e-09
5.05192e-10
5.39203e-08
4.7438e-09
1.57548e-09
5.37097e-08
1.23342e-09
5.26931e-08
4.34048e-08
1.72676e-09
8.02246e-08
3.7999e-08
1.29873e-09
7.40904e-08
3.27832e-08
1.00526e-09
6.8885e-08
2.77431e-08
7.92354e-10
6.4505e-08
2.28591e-08
6.24663e-10
6.08745e-08
1.81059e-08
4.82565e-10
5.7938e-08
1.34704e-08
4.22896e-10
5.5714e-08
8.88949e-09
4.04379e-10
5.41239e-08
4.63127e-09
9.60841e-10
5.378e-08
1.12633e-09
5.32314e-08
4.26672e-08
8.46346e-10
7.99343e-08
3.73009e-08
6.48871e-10
7.39448e-08
3.21283e-08
5.2363e-10
6.88743e-08
2.71363e-08
4.3452e-10
6.46176e-08
2.2301e-08
3.60447e-10
6.10928e-08
1.75908e-08
2.91717e-10
5.82337e-08
1.29964e-08
2.57517e-10
5.60207e-08
8.49036e-09
2.43142e-10
5.44212e-08
4.22142e-09
5.59858e-10
5.36835e-08
7.56726e-10
5.31174e-08
4.14574e-08
7.90226e-08
3.61101e-08
7.32328e-08
3.09929e-08
6.83601e-08
2.60862e-08
6.42973e-08
2.13561e-08
6.09477e-08
1.67585e-08
5.82277e-08
1.22717e-08
5.61033e-08
7.86614e-09
5.45206e-08
3.79539e-09
5.35988e-08
5.25477e-08
3.92511e-08
5.9996e-10
8.23335e-08
3.31849e-08
3.37532e-10
7.63898e-08
2.76165e-08
1.29577e-10
7.14825e-08
2.2461e-08
-4.78546e-11
6.74804e-08
1.76292e-08
-1.83964e-10
6.42698e-08
1.30375e-08
-2.82117e-10
6.17937e-08
8.56446e-09
-2.89475e-10
5.99523e-08
4.26914e-09
-4.06789e-10
5.88708e-08
-3.45871e-10
5.77003e-08
4.03343e-08
1.21385e-09
8.22242e-08
3.42786e-08
7.51274e-10
7.61201e-08
2.86812e-08
3.87207e-10
7.10828e-08
2.34554e-08
9.0514e-11
6.69716e-08
1.85211e-08
-1.29439e-10
6.36771e-08
1.38199e-08
-2.99541e-10
6.11588e-08
9.24586e-09
-3.24442e-10
5.9389e-08
4.76917e-09
-5.31519e-10
5.86696e-08
-2.27217e-10
5.82839e-08
4.05594e-08
1.76868e-09
8.16526e-08
3.46039e-08
1.16216e-09
7.55152e-08
2.90639e-08
6.8869e-10
7.04387e-08
2.38616e-08
3.10808e-10
6.62954e-08
1.89339e-08
2.70465e-11
6.29832e-08
1.42262e-08
-2.08969e-10
6.05184e-08
9.60088e-09
-2.3019e-10
5.88451e-08
5.12336e-09
-6.25435e-10
5.86065e-08
2.40032e-10
5.83148e-08
4.03699e-08
2.20619e-09
8.1302e-08
3.45391e-08
1.50478e-09
7.51949e-08
2.90855e-08
9.60485e-10
7.01271e-08
2.39402e-08
5.30756e-10
6.59876e-08
1.9051e-08
2.02049e-10
6.26827e-08
1.43588e-08
-8.72981e-11
6.02652e-08
9.72014e-09
-8.97533e-11
5.85851e-08
5.19839e-09
-6.45678e-10
5.85629e-08
7.72409e-10
5.79958e-08
3.9916e-08
2.48532e-09
8.10529e-08
3.42211e-08
1.73765e-09
7.50188e-08
2.8858e-08
1.16362e-09
6.99993e-08
2.37599e-08
7.2008e-10
6.58991e-08
1.88714e-08
3.85967e-10
6.26382e-08
1.40827e-08
1.33269e-10
6.0371e-08
9.36007e-09
1.38711e-10
5.86621e-08
4.79728e-09
1.98648e-11
6.06221e-08
1.20046e-09
5.7735e-08
3.93324e-08
2.58234e-09
8.08181e-08
3.37883e-08
1.83697e-09
7.48732e-08
2.85336e-08
1.27081e-09
6.99163e-08
2.35129e-08
8.40229e-10
6.58578e-08
1.86809e-08
5.18377e-10
6.26181e-08
1.39323e-08
3.13412e-10
6.03598e-08
9.2789e-09
2.87425e-10
5.85334e-08
4.7898e-09
5.16898e-10
6.03845e-08
1.13553e-09
5.67234e-08
3.87101e-08
2.49138e-09
8.05648e-08
3.3319e-08
1.79836e-09
7.47158e-08
2.81743e-08
1.27806e-09
6.9826e-08
2.32315e-08
8.87025e-10
6.5811e-08
1.84533e-08
5.94837e-10
6.2596e-08
1.37421e-08
4.47237e-10
6.03435e-08
9.12106e-09
3.89405e-10
5.84888e-08
4.68336e-09
9.60591e-10
6.03089e-08
9.66636e-10
5.6537e-08
3.81023e-08
2.2207e-09
8.03006e-08
3.28537e-08
1.62908e-09
7.45491e-08
2.78107e-08
1.19085e-09
6.97272e-08
2.29391e-08
8.64045e-10
6.57553e-08
1.82039e-08
6.21363e-10
6.25714e-08
1.3513e-08
5.4994e-10
6.03366e-08
8.87326e-09
5.03366e-10
5.85787e-08
4.45575e-09
1.52078e-09
6.05222e-08
1.12659e-09
5.74206e-08
3.75242e-08
1.79099e-09
8.00515e-08
3.23973e-08
1.34038e-09
7.44003e-08
2.74488e-08
1.00835e-09
6.96473e-08
2.26602e-08
7.54911e-10
6.57148e-08
1.80111e-08
5.56593e-10
6.25422e-08
1.34786e-08
4.87705e-10
6.0183e-08
8.97753e-09
4.66674e-10
5.84581e-08
4.69237e-09
1.24486e-09
5.82707e-08
1.1883e-09
5.73237e-08
4.2153e-08
1.64931e-09
8.63877e-08
3.69371e-08
1.23709e-09
7.98602e-08
3.18904e-08
9.52937e-10
7.43192e-08
2.70024e-08
7.44914e-10
6.96564e-08
2.22561e-08
5.81283e-10
6.57945e-08
1.76284e-08
4.46117e-10
6.26761e-08
1.31125e-08
3.88512e-10
6.03291e-08
8.64683e-09
3.84605e-10
5.86717e-08
4.45771e-09
8.79603e-10
5.83344e-08
1.13181e-09
5.77456e-08
4.14427e-08
8.02109e-10
8.61287e-08
3.62641e-08
6.12542e-10
7.97479e-08
3.12583e-08
4.90996e-10
7.43421e-08
2.64157e-08
4.02728e-10
6.98023e-08
2.1715e-08
3.30304e-10
6.60445e-08
1.71274e-08
2.67197e-10
6.30003e-08
1.26469e-08
2.36634e-10
6.06531e-08
8.25287e-09
2.30563e-10
5.89693e-08
4.08793e-09
5.18064e-10
5.821e-08
7.42575e-10
5.75945e-08
4.02736e-08
8.51801e-08
3.51136e-08
7.90054e-08
3.01616e-08
7.38031e-08
2.54008e-08
6.94609e-08
2.08005e-08
6.58783e-08
1.63223e-08
6.29731e-08
1.19475e-08
6.07148e-08
7.6543e-09
5.90443e-08
3.68228e-09
5.80888e-08
5.69725e-08
3.80329e-08
6.35569e-10
8.8115e-08
3.21808e-08
3.84542e-10
8.18573e-08
2.67973e-08
1.78715e-10
7.66873e-08
2.18043e-08
3.29177e-12
7.24701e-08
1.71181e-08
-1.33468e-10
6.90895e-08
1.26571e-08
-2.25024e-10
6.64797e-08
8.30993e-09
-2.38353e-10
6.45379e-08
4.12983e-09
-3.44289e-10
6.33951e-08
-3.28857e-10
6.2159e-08
3.90821e-08
1.24281e-09
8.79724e-08
3.32468e-08
7.97065e-10
8.15428e-08
2.78387e-08
4.39478e-10
7.62302e-08
2.2778e-08
1.47225e-10
7.18883e-08
1.79898e-08
-6.99741e-11
6.84019e-08
1.34196e-08
-2.30592e-10
6.57345e-08
8.96943e-09
-2.6766e-10
6.38685e-08
4.60672e-09
-4.36983e-10
6.3125e-08
-2.25199e-10
6.2787e-08
3.93007e-08
1.77237e-09
8.73295e-08
3.35648e-08
1.1866e-09
8.08617e-08
2.8214e-08
7.24476e-10
7.55044e-08
2.31769e-08
3.5542e-10
7.11243e-08
1.83958e-08
7.8836e-11
6.76156e-08
1.38218e-08
-1.39761e-10
6.50016e-08
9.32092e-09
-1.72124e-10
6.32504e-08
4.92328e-09
-4.15664e-10
6.29828e-08
1.8248e-10
6.28304e-08
3.91189e-08
2.18165e-09
8.69315e-08
3.35033e-08
1.50335e-09
8.04937e-08
2.82367e-08
9.74099e-10
7.51441e-08
2.32564e-08
5.56374e-10
7.0767e-08
1.85139e-08
2.38997e-10
6.7265e-08
1.39585e-08
-2.12817e-11
6.47021e-08
9.44117e-09
-3.20547e-11
6.29624e-08
5.01301e-09
-3.23787e-10
6.28992e-08
6.27434e-10
6.25639e-08
3.86814e-08
2.43848e-09
8.66531e-08
3.31966e-08
1.71507e-09
8.02918e-08
2.80192e-08
1.15781e-09
7.4993e-08
2.30907e-08
7.26326e-10
7.06577e-08
1.83641e-08
4.02387e-10
6.72014e-08
1.37722e-08
1.68111e-10
6.47735e-08
9.22649e-09
1.69866e-10
6.30059e-08
5.14989e-09
1.79401e-10
6.41955e-08
1.05168e-09
6.24606e-08
3.81178e-08
2.52075e-09
8.63972e-08
3.27771e-08
1.79959e-09
8.01294e-08
2.77042e-08
1.25027e-09
7.48967e-08
2.28511e-08
8.30621e-10
7.06066e-08
1.81792e-08
5.16892e-10
6.71755e-08
1.36262e-08
3.19101e-10
6.47617e-08
9.13123e-09
2.99495e-10
6.28988e-08
5.12778e-09
5.44218e-10
6.40231e-08
1.13376e-09
6.17691e-08
3.75167e-08
2.42134e-09
8.61259e-08
3.23219e-08
1.75109e-09
7.99591e-08
2.73541e-08
1.24619e-09
7.4798e-08
2.25756e-08
8.63967e-10
7.05561e-08
1.79548e-08
5.77902e-10
6.71558e-08
1.34375e-08
4.25928e-10
6.47539e-08
8.97363e-09
3.83139e-10
6.2869e-08
5.02435e-09
8.50235e-10
6.39521e-08
1.11057e-09
6.15845e-08
3.69293e-08
2.14807e-09
8.58473e-08
3.18705e-08
1.57542e-09
7.97836e-08
2.69993e-08
1.14967e-09
7.46949e-08
2.22878e-08
8.29449e-10
7.05013e-08
1.7708e-08
5.90656e-10
6.71385e-08
1.32118e-08
5.02749e-10
6.4756e-08
8.7488e-09
4.71991e-10
6.29528e-08
4.82708e-09
1.21888e-09
6.40753e-08
1.26372e-09
6.20945e-08
3.637e-08
1.7215e-09
8.55943e-08
3.14273e-08
1.28555e-09
7.96329e-08
2.66443e-08
9.62464e-10
7.46176e-08
2.20059e-08
7.15235e-10
7.04674e-08
1.74937e-08
5.23654e-10
6.71214e-08
1.30921e-08
4.47692e-10
6.46395e-08
8.71042e-09
4.42592e-10
6.28692e-08
4.51958e-09
1.05463e-09
6.26258e-08
1.23765e-09
6.18694e-08
4.08183e-08
1.5768e-09
9.23012e-08
3.58043e-08
1.18044e-09
8.54152e-08
3.09378e-08
9.04996e-10
7.95663e-08
2.62123e-08
7.015e-10
7.46428e-08
2.16137e-08
5.42619e-10
7.05657e-08
1.71221e-08
4.15342e-10
6.72761e-08
1.27351e-08
3.59096e-10
6.48047e-08
8.39514e-09
3.69875e-10
6.30844e-08
4.28594e-09
8.09977e-10
6.26882e-08
1.13109e-09
6.21381e-08
4.01374e-08
7.63046e-10
9.20642e-08
3.51583e-08
5.80947e-10
8.53266e-08
3.033e-08
4.62013e-10
7.96133e-08
2.5647e-08
3.73989e-10
7.48128e-08
2.10908e-08
3.03834e-10
7.08395e-08
1.66359e-08
2.47184e-10
6.76233e-08
1.22794e-08
2.19644e-10
6.51491e-08
8.00819e-09
2.21267e-10
6.33891e-08
3.95342e-09
4.79723e-10
6.2595e-08
7.2786e-10
6.19512e-08
3.90114e-08
9.10742e-08
3.40498e-08
8.45479e-08
2.92734e-08
7.90416e-08
2.4668e-08
7.44403e-08
2.02072e-08
7.06428e-08
1.58586e-08
6.75689e-08
1.16055e-08
6.51875e-08
7.43417e-09
6.34369e-08
3.56623e-09
6.24365e-08
6.12666e-08
3.67506e-08
6.67372e-10
9.35988e-08
3.11225e-08
4.27236e-10
8.70582e-08
2.59337e-08
2.24216e-10
8.16519e-08
2.11127e-08
4.96416e-11
7.72414e-08
1.658e-08
-8.40522e-11
7.37063e-08
1.22561e-08
-1.69154e-10
7.09728e-08
8.04128e-09
-1.89161e-10
6.89418e-08
3.98353e-09
-2.87494e-10
6.77404e-08
-3.10668e-10
6.64532e-08
3.77637e-08
1.26675e-09
9.34588e-08
3.2158e-08
8.38434e-10
8.67373e-08
2.69483e-08
4.8893e-10
8.11752e-08
2.20612e-08
2.0236e-10
7.66228e-08
1.74269e-08
-9.75335e-12
7.29618e-08
1.29947e-08
-1.60855e-10
7.01585e-08
8.67611e-09
-2.10928e-10
6.82088e-08
4.43635e-09
-3.53653e-10
6.74309e-08
-2.15626e-10
6.71283e-08
3.79741e-08
1.7714e-09
9.27645e-08
3.2467e-08
1.20719e-09
8.6e-08
2.73142e-08
7.58283e-10
8.03879e-08
2.2451e-08
3.99305e-10
7.57905e-08
1.78237e-08
1.30747e-10
7.21024e-08
1.33886e-08
-7.2998e-11
6.93488e-08
9.0209e-09
-1.2134e-10
6.75285e-08
4.72177e-09
-2.73889e-10
6.72021e-08
1.6433e-10
6.71722e-08
3.77991e-08
2.15361e-09
9.23275e-08
3.24084e-08
1.4994e-09
8.55922e-08
2.73368e-08
9.8673e-10
7.99872e-08
2.25292e-08
5.82135e-10
7.53917e-08
1.79393e-08
2.75769e-10
7.17099e-08
1.35224e-08
3.78755e-11
6.90082e-08
9.13329e-09
1.05044e-11
6.72196e-08
4.79819e-09
-1.27012e-10
6.70874e-08
5.68303e-10
6.69581e-08
3.7378e-08
2.3882e-09
9.2023e-08
3.21132e-08
1.69021e-09
8.53658e-08
2.71288e-08
1.15092e-09
7.98133e-08
2.23754e-08
7.32441e-10
7.52607e-08
1.78101e-08
4.18335e-10
7.16241e-08
1.33869e-08
1.98403e-10
6.90362e-08
8.98222e-09
1.89061e-10
6.7232e-08
4.89899e-09
2.67337e-10
6.78843e-08
9.63423e-10
6.69645e-08
3.6835e-08
2.45556e-09
9.17473e-08
3.17076e-08
1.75965e-09
8.51873e-08
2.68234e-08
1.22821e-09
7.97037e-08
2.21425e-08
8.20633e-10
7.51992e-08
1.7629e-08
5.15534e-10
7.15919e-08
1.32418e-08
3.24177e-10
6.90231e-08
8.8738e-09
3.06581e-10
6.71493e-08
4.85336e-09
5.50675e-10
6.77602e-08
1.10667e-09
6.64792e-08
3.62556e-08
2.34863e-09
9.14598e-08
3.12673e-08
1.70194e-09
8.50051e-08
2.64834e-08
1.21327e-09
7.95968e-08
2.18739e-08
8.41523e-10
7.51447e-08
1.74095e-08
5.63103e-10
7.15727e-08
1.30572e-08
4.09782e-10
6.90206e-08
8.72066e-09
3.81922e-10
6.71302e-08
4.7543e-09
7.7523e-10
6.76939e-08
1.14719e-09
6.62983e-08
3.56893e-08
2.07455e-09
9.11695e-08
3.08306e-08
1.52231e-09
8.48219e-08
2.61392e-08
1.10931e-09
7.94903e-08
2.15938e-08
7.97169e-10
7.50911e-08
1.71704e-08
5.64583e-10
7.15605e-08
1.28425e-08
4.65182e-10
6.90285e-08
8.5239e-09
4.53611e-10
6.71997e-08
4.59454e-09
1.02758e-09
6.77523e-08
1.2768e-09
6.65594e-08
3.51507e-08
1.65377e-09
9.09136e-08
3.04018e-08
1.23315e-09
8.46709e-08
2.57932e-08
9.19722e-10
7.94158e-08
2.13132e-08
6.79728e-10
7.50648e-08
1.69456e-08
4.95816e-10
7.15578e-08
1.26802e-08
4.1531e-10
6.89549e-08
8.42765e-09
4.2709e-10
6.71482e-08
4.32801e-09
9.27787e-10
6.68253e-08
1.2351e-09
6.62391e-08
3.94093e-08
1.50761e-09
9.79517e-08
3.46076e-08
1.12744e-09
9.07433e-08
2.99309e-08
8.60982e-10
8.46151e-08
2.53771e-08
6.62502e-10
7.94539e-08
2.09351e-08
5.09115e-10
7.51783e-08
1.65886e-08
3.89868e-10
7.17286e-08
1.23386e-08
3.34571e-10
6.91354e-08
8.135e-09
3.57862e-10
6.73572e-08
4.12087e-09
7.50293e-10
6.68798e-08
1.1142e-09
6.63799e-08
3.87591e-08
7.27167e-10
9.77301e-08
3.39893e-08
5.52498e-10
9.06713e-08
2.93484e-08
4.36189e-10
8.4679e-08
2.48341e-08
3.48805e-10
7.96409e-08
2.04312e-08
2.81589e-10
7.54698e-08
1.61182e-08
2.31218e-10
7.2095e-08
1.18949e-08
2.05804e-10
6.95012e-08
7.75619e-09
2.1369e-10
6.7672e-08
3.81826e-09
4.46427e-10
6.68368e-08
7.09384e-10
6.61743e-08
3.76775e-08
9.66982e-08
3.2924e-08
8.98539e-08
2.83324e-08
8.40693e-08
2.38915e-08
7.92301e-08
1.95796e-08
7.52363e-08
1.53697e-08
7.20099e-08
1.12471e-08
6.9516e-08
7.20539e-09
6.76923e-08
3.4475e-09
6.66408e-08
6.54235e-08
3.54106e-08
6.9071e-10
9.87839e-08
3.0016e-08
4.60397e-10
9.19924e-08
2.50306e-08
2.61217e-10
8.63762e-08
2.03893e-08
8.93108e-11
8.17934e-08
1.60165e-08
-4.04614e-11
7.81195e-08
1.18359e-08
-1.20201e-10
7.52736e-08
7.7603e-09
-1.46895e-10
7.31644e-08
3.83199e-09
-2.39451e-10
7.19082e-08
-2.91472e-10
7.05766e-08
3.63856e-08
1.28214e-09
9.86742e-08
3.10183e-08
8.70838e-10
9.16942e-08
2.60148e-08
5.30686e-10
8.59092e-08
2.13085e-08
2.51161e-10
8.11673e-08
1.68356e-08
4.49697e-11
7.73493e-08
1.25481e-08
-9.71844e-11
7.44229e-08
8.36992e-09
-1.59028e-10
7.23992e-08
4.26247e-09
-2.83542e-10
7.15825e-08
-2.01796e-10
7.13011e-08
3.65867e-08
1.76357e-09
9.79468e-08
3.13167e-08
1.2212e-09
9.09196e-08
2.63697e-08
7.86375e-10
8.50792e-08
2.16873e-08
4.38459e-10
8.02856e-08
1.72205e-08
1.78577e-10
7.64356e-08
1.29309e-08
-1.31555e-11
7.35543e-08
8.70567e-09
-7.66558e-11
7.16715e-08
4.52324e-09
-1.77028e-10
7.1278e-08
1.54822e-10
7.13388e-08
3.6418e-08
2.12016e-09
9.74794e-08
3.12601e-08
1.49086e-09
9.04804e-08
2.63913e-08
9.95681e-10
8.46468e-08
2.17627e-08
6.04881e-10
7.98538e-08
1.73318e-08
3.09418e-10
7.601e-08
1.30583e-08
8.84217e-11
7.318e-08
8.80807e-09
4.45526e-11
7.13486e-08
4.58493e-09
-7.60053e-12
7.11412e-08
5.28591e-10
7.11692e-08
3.60134e-08
2.33352e-09
9.71522e-08
3.09763e-08
1.66187e-09
9.02318e-08
2.61921e-08
1.14149e-09
8.44516e-08
2.16186e-08
7.36948e-10
7.97021e-08
1.72167e-08
4.32931e-10
7.59025e-08
1.29496e-08
2.24271e-10
7.31675e-08
8.68434e-09
2.02351e-10
7.13395e-08
4.61172e-09
3.13249e-10
7.16361e-08
8.95432e-10
7.12094e-08
3.54915e-08
2.38692e-09
9.68585e-08
3.05852e-08
1.71726e-09
9.00381e-08
2.58967e-08
1.20454e-09
8.43292e-08
2.13925e-08
8.1012e-10
7.96303e-08
1.70391e-08
5.14524e-10
7.58637e-08
1.28049e-08
3.29189e-10
7.31524e-08
8.56729e-09
3.11155e-10
7.12781e-08
4.55051e-09
5.4661e-10
7.15436e-08
1.071e-09
7.08542e-08
3.49346e-08
2.27351e-09
9.65568e-08
3.01606e-08
1.65138e-09
8.98449e-08
2.55679e-08
1.17981e-09
8.42143e-08
2.11321e-08
8.1972e-10
7.95709e-08
1.68261e-08
5.50138e-10
7.5843e-08
1.26258e-08
3.98071e-10
7.3152e-08
8.41992e-09
3.8166e-10
7.12656e-08
4.45635e-09
7.23683e-10
7.14804e-08
1.14923e-09
7.06764e-08