/*--------------------------------*- C++ -*----------------------------------*\
| =========                 |                                                 |
| \\      /  F ield         | OpenFOAM: The Open Source CFD Toolbox           |
|  \\    /   O peration     | Version:  2.3.1                                 |
|   \\  /    A nd           | Web:      www.OpenFOAM.org                      |
|    \\/     M anipulation  |                                                 |
\*---------------------------------------------------------------------------*/
FoamFile
{
    version     2.0;
    format      ascii;
    class       volVectorField;
    location    "5";
    object      U;
}
// * * * * * * * * * * * * * * * * * * * * * * * * * * * * * * * * * * * * * //

dimensions      [0 1 -1 0 0 0 0];

internalField   nonuniform List<vector> 
37784
(
(0.000176542 9.45055e-06 7.05319e-06)
(0.000151245 7.34541e-06 6.43058e-06)
(0.00012768 5.87178e-06 5.89743e-06)
(0.000105637 4.82016e-06 5.45927e-06)
(8.46759e-05 3.9721e-06 5.13494e-06)
(6.48151e-05 3.46867e-06 4.92212e-06)
(4.46509e-05 2.12211e-06 4.81585e-06)
(2.57093e-05 2.37414e-06 4.2959e-06)
(8.73113e-06 -2.65641e-06 3.33548e-06)
(0.000200847 7.77558e-06 7.72543e-06)
(0.000174494 5.68344e-06 7.06503e-06)
(0.000149819 4.302e-06 6.47652e-06)
(0.000126675 3.38841e-06 5.97771e-06)
(0.000104898 2.77163e-06 5.55668e-06)
(8.41718e-05 2.29596e-06 5.23239e-06)
(6.44362e-05 2.02661e-06 5.02198e-06)
(4.45731e-05 1.59456e-06 4.89374e-06)
(2.58164e-05 2.10912e-06 4.45601e-06)
(8.67543e-06 1.53207e-06 3.64521e-06)
(0.000198788 2.82158e-06 7.34053e-06)
(0.000173012 1.73086e-06 6.73822e-06)
(0.000148735 1.08294e-06 6.22169e-06)
(0.000125845 7.13986e-07 5.78582e-06)
(0.000104215 5.22016e-07 5.41476e-06)
(8.36175e-05 3.85931e-07 5.12457e-06)
(6.38455e-05 3.22258e-07 4.93448e-06)
(4.43701e-05 1.41836e-07 4.85865e-06)
(2.51946e-05 7.61639e-07 4.65318e-06)
(7.91168e-06 6.96116e-07 4.03971e-06)
(0.000196098 -1.0317e-07 6.42276e-06)
(0.000170716 -3.77171e-07 5.9194e-06)
(0.000146763 -5.04688e-07 5.49796e-06)
(0.00012415 -5.38191e-07 5.14811e-06)
(0.000102777 -5.08544e-07 4.85748e-06)
(8.24436e-05 -4.60678e-07 4.62545e-06)
(6.29846e-05 -4.06665e-07 4.45143e-06)
(4.40367e-05 -3.1309e-07 4.33135e-06)
(2.57133e-05 1.36786e-08 4.2818e-06)
(8.399e-06 6.53368e-07 4.25758e-06)
(0.000181802 8.98891e-06 2.02495e-05)
(0.000156295 6.84036e-06 1.85455e-05)
(0.000132362 5.32435e-06 1.70882e-05)
(0.000109815 4.24657e-06 1.58891e-05)
(8.82663e-05 3.39025e-06 1.49846e-05)
(6.78439e-05 2.84795e-06 1.43419e-05)
(4.73509e-05 1.64608e-06 1.38709e-05)
(2.85651e-05 2.03249e-06 1.2311e-05)
(1.05691e-05 -2.48776e-06 9.78255e-06)
(0.000206058 7.91911e-06 2.19861e-05)
(0.000179595 5.76916e-06 2.01424e-05)
(0.000154659 4.3088e-06 1.85206e-05)
(0.000131137 3.32834e-06 1.71438e-05)
(0.000108866 2.66558e-06 1.5994e-05)
(8.75513e-05 2.15422e-06 1.51019e-05)
(6.7215e-05 1.83417e-06 1.44759e-05)
(4.6965e-05 1.37376e-06 1.39737e-05)
(2.81738e-05 1.9274e-06 1.26622e-05)
(1.0147e-05 1.65637e-06 1.03769e-05)
(0.000203782 3.8219e-06 2.0872e-05)
(0.000177752 2.63203e-06 1.91782e-05)
(0.000153135 1.88793e-06 1.77284e-05)
(0.000129844 1.44081e-06 1.65074e-05)
(0.000107737 1.18643e-06 1.54851e-05)
(8.65842e-05 9.94367e-07 1.46834e-05)
(6.62527e-05 8.66985e-07 1.41247e-05)
(4.63099e-05 6.14763e-07 1.37931e-05)
(2.71027e-05 1.16679e-06 1.3108e-05)
(9.1708e-06 9.86865e-07 1.13881e-05)
(0.000200014 8.08448e-07 1.86816e-05)
(0.000174262 4.72025e-07 1.72167e-05)
(0.000149926 2.92755e-07 1.59864e-05)
(0.00012693 2.19919e-07 1.49647e-05)
(0.000105159 2.19007e-07 1.41255e-05)
(8.44059e-05 2.3387e-07 1.3459e-05)
(6.4515e-05 2.4874e-07 1.29529e-05)
(4.5132e-05 2.65697e-07 1.25918e-05)
(2.63544e-05 5.39467e-07 1.23299e-05)
(8.87755e-06 9.27904e-07 1.19313e-05)
(0.000182672 8.74664e-06 3.35146e-05)
(0.000157453 6.57327e-06 3.07862e-05)
(0.000133665 5.03055e-06 2.84581e-05)
(0.000111144 3.93318e-06 2.65365e-05)
(8.9561e-05 3.07376e-06 2.5055e-05)
(6.91705e-05 2.54706e-06 2.39145e-05)
(4.89311e-05 1.51892e-06 2.29708e-05)
(3.06934e-05 2.26043e-06 2.06983e-05)
(1.20454e-05 -1.89585e-06 1.82555e-05)
(0.000206405 8.31213e-06 3.6215e-05)
(0.000180315 6.11274e-06 3.32228e-05)
(0.000155624 4.5947e-06 3.06136e-05)
(0.000132232 3.55867e-06 2.83991e-05)
(0.000109986 2.84592e-06 2.65543e-05)
(8.86325e-05 2.2849e-06 2.51041e-05)
(6.82907e-05 1.9126e-06 2.40072e-05)
(4.82433e-05 1.42266e-06 2.30554e-05)
(2.98608e-05 2.05785e-06 2.11706e-05)
(1.13278e-05 2.05879e-06 1.89059e-05)
(0.000203875 4.83866e-06 3.46874e-05)
(0.000178129 3.56726e-06 3.19069e-05)
(0.000153705 2.74762e-06 2.9529e-05)
(0.000130531 2.23306e-06 2.75275e-05)
(0.000108465 1.91609e-06 2.58614e-05)
(8.72898e-05 1.65835e-06 2.45414e-05)
(6.69479e-05 1.45672e-06 2.3566e-05)
(4.70911e-05 1.12473e-06 2.28736e-05)
(2.82348e-05 1.65896e-06 2.18752e-05)
(9.99756e-06 1.45252e-06 2.03392e-05)
(0.000199497 1.6101e-06 3.22103e-05)
(0.00017392 1.22602e-06 2.97046e-05)
(0.000149726 1.00712e-06 2.75987e-05)
(0.000126841 9.01177e-07 2.58536e-05)
(0.000105148 8.71152e-07 2.44266e-05)
(8.44363e-05 8.5003e-07 2.32902e-05)
(6.45647e-05 8.16712e-07 2.24073e-05)
(4.51782e-05 7.49629e-07 2.17487e-05)
(2.64154e-05 9.59325e-07 2.12334e-05)
(8.97582e-06 1.15922e-06 2.07665e-05)
(0.000182475 8.66832e-06 4.61636e-05)
(0.000157591 6.47892e-06 4.24907e-05)
(0.000134029 4.91712e-06 3.93641e-05)
(0.000111646 3.80282e-06 3.67751e-05)
(9.01603e-05 2.94139e-06 3.47368e-05)
(6.99323e-05 2.45841e-06 3.30908e-05)
(4.99504e-05 1.58635e-06 3.16826e-05)
(3.20025e-05 2.82769e-06 2.8992e-05)
(1.28304e-05 -1.18752e-06 2.70324e-05)
(0.000205685 8.71707e-06 4.9784e-05)
(0.000179998 6.48138e-06 4.5709e-05)
(0.000155609 4.92539e-06 4.21823e-05)
(0.000132426 3.8477e-06 3.91914e-05)
(0.000110312 3.08959e-06 3.66995e-05)
(8.9048e-05 2.47824e-06 3.4712e-05)
(6.88346e-05 2.06441e-06 3.31391e-05)
(4.90062e-05 1.55548e-06 3.17649e-05)
(3.08052e-05 2.32964e-06 2.9556e-05)
(1.19167e-05 2.52379e-06 2.75593e-05)
(0.000202948 5.52926e-06 4.81453e-05)
(0.000177542 4.21148e-06 4.43124e-05)
(0.000153384 3.34922e-06 4.10429e-05)
(0.000130409 2.78958e-06 3.82917e-05)
(0.00010848 2.4223e-06 3.60053e-05)
(8.73987e-05 2.10484e-06 3.41758e-05)
(6.71568e-05 1.84136e-06 3.27699e-05)
(4.7426e-05 1.45517e-06 3.17055e-05)
(2.8698e-05 2.06668e-06 3.05019e-05)
(1.02753e-05 1.99081e-06 2.92185e-05)
(0.000198182 2.00302e-06 4.5821e-05)
(0.000172866 1.60351e-06 4.22735e-05)
(0.000148899 1.37138e-06 3.92936e-05)
(0.000126206 1.2494e-06 3.68252e-05)
(0.000104671 1.19914e-06 3.48096e-05)
(8.40804e-05 1.14677e-06 3.31963e-05)
(6.43023e-05 1.07191e-06 3.1921e-05)
(4.49712e-05 9.42266e-07 3.0937e-05)
(2.6245e-05 1.13973e-06 3.01463e-05)
(8.90543e-06 1.32731e-06 2.94094e-05)
(0.000181526 8.6314e-06 5.85199e-05)
(0.000157003 6.43939e-06 5.39513e-05)
(0.000133714 4.86899e-06 5.00713e-05)
(0.000111535 3.74413e-06 4.68499e-05)
(9.02154e-05 2.88471e-06 4.42708e-05)
(7.01867e-05 2.46735e-06 4.21348e-05)
(5.03611e-05 1.73963e-06 4.03224e-05)
(3.25237e-05 3.66004e-06 3.74571e-05)
(1.29885e-05 -2.86907e-07 3.62192e-05)
(0.000204217 8.97053e-06 6.3086e-05)
(0.000178948 6.72288e-06 5.79654e-05)
(0.000154895 5.15172e-06 5.3561e-05)
(0.000131971 4.04965e-06 4.98297e-05)
(0.000110054 3.25722e-06 4.6719e-05)
(8.89504e-05 2.60489e-06 4.42072e-05)
(6.89106e-05 2.17189e-06 4.21692e-05)
(4.92255e-05 1.67062e-06 4.04374e-05)
(3.10682e-05 2.65705e-06 3.81112e-05)
(1.20392e-05 2.93831e-06 3.65624e-05)
(0.000201298 5.84499e-06 6.15369e-05)
(0.00017627 4.51663e-06 5.66697e-05)
(0.000152424 3.64226e-06 5.25279e-05)
(0.000129703 3.0597e-06 4.90443e-05)
(0.000107977 2.65691e-06 4.61512e-05)
(8.70579e-05 2.29345e-06 4.38162e-05)
(6.69681e-05 1.99621e-06 4.19786e-05)
(4.73522e-05 1.60178e-06 4.05692e-05)
(2.86614e-05 2.39397e-06 3.92651e-05)
(1.02241e-05 2.50329e-06 3.83092e-05)
(0.000196283 2.0912e-06 5.9434e-05)
(0.000171295 1.6974e-06 5.48566e-05)
(0.000147617 1.46858e-06 5.10135e-05)
(0.000125177 1.34044e-06 4.78295e-05)
(0.000103857 1.27342e-06 4.52295e-05)
(8.34411e-05 1.19379e-06 4.31372e-05)
(6.38035e-05 1.09122e-06 4.14651e-05)
(4.45654e-05 9.33265e-07 4.01576e-05)
(2.5927e-05 1.17196e-06 3.91192e-05)
(8.77203e-06 1.42342e-06 3.81969e-05)
(0.00017989 8.56545e-06 7.06064e-05)
(0.000155763 6.3866e-06 6.51814e-05)
(0.000132795 4.81975e-06 6.05848e-05)
(0.00011088 3.69243e-06 5.67624e-05)
(8.97727e-05 2.84035e-06 5.36672e-05)
(6.99513e-05 2.5058e-06 5.10863e-05)
(5.01822e-05 1.91987e-06 4.89496e-05)
(3.23725e-05 4.70716e-06 4.60884e-05)
(1.26705e-05 8.27872e-07 4.54787e-05)
(0.000202048 9.02259e-06 7.61507e-05)
(0.000177231 6.7895e-06 7.0018e-05)
(0.000153555 5.22519e-06 6.47681e-05)
(0.00013094 4.11657e-06 6.03267e-05)
(0.00010928 3.30348e-06 5.66223e-05)
(8.83864e-05 2.62416e-06 5.36062e-05)
(6.85392e-05 2.19701e-06 5.11395e-05)
(4.8931e-05 1.73257e-06 4.91224e-05)
(3.07832e-05 2.99044e-06 4.68241e-05)
(1.18788e-05 3.26349e-06 4.56554e-05)
(0.000198983 5.86427e-06 7.47889e-05)
(0.000174379 4.55227e-06 6.89111e-05)
(0.000150897 3.68743e-06 6.39199e-05)
(0.000128484 3.0995e-06 5.97249e-05)
(0.000107019 2.67509e-06 5.62416e-05)
(8.63203e-05 2.28208e-06 5.34135e-05)
(6.64208e-05 1.98255e-06 5.11634e-05)
(4.69233e-05 1.62384e-06 4.94503e-05)
(2.82905e-05 2.67392e-06 4.80993e-05)
(1.00211e-05 2.96549e-06 4.73779e-05)
(0.000193833 2.0275e-06 7.29104e-05)
(0.000169244 1.64744e-06 6.73268e-05)
(0.00014592 1.42728e-06 6.26402e-05)
(0.000123792 1.2967e-06 5.87544e-05)
(0.000102742 1.21462e-06 5.55773e-05)
(8.25487e-05 1.11235e-06 5.30095e-05)
(6.30938e-05 9.96335e-07 5.09463e-05)
(4.3987e-05 8.37703e-07 4.93311e-05)
(2.54948e-05 1.14314e-06 4.80837e-05)
(8.60141e-06 1.46337e-06 4.69949e-05)
(0.000177605 8.44202e-06 8.24509e-05)
(0.000153922 6.29108e-06 7.62045e-05)
(0.000131327 4.73944e-06 7.0924e-05)
(0.000109731 3.61755e-06 6.65308e-05)
(8.8882e-05 2.7777e-06 6.2952e-05)
(6.92787e-05 2.53513e-06 5.99896e-05)
(4.95179e-05 2.09167e-06 5.76034e-05)
(3.17385e-05 5.90036e-06 5.48849e-05)
(1.20272e-05 2.1472e-06 5.46702e-05)
(0.00019921 8.89999e-06 8.89872e-05)
(0.000174892 6.703e-06 8.18764e-05)
(0.000151644 5.16265e-06 7.58112e-05)
(0.000129394 4.06239e-06 7.06881e-05)
(0.000108045 3.24154e-06 6.64161e-05)
(8.74086e-05 2.54993e-06 6.29243e-05)
(6.77745e-05 2.14987e-06 6.00814e-05)
(4.82259e-05 1.74611e-06 5.78421e-05)
(3.01353e-05 3.30314e-06 5.56803e-05)
(1.15812e-05 3.49064e-06 5.47715e-05)
(0.000196049 5.69992e-06 8.78428e-05)
(0.000171928 4.42015e-06 8.09847e-05)
(0.000148867 3.57736e-06 7.51715e-05)
(0.000126819 2.99613e-06 7.0289e-05)
(0.000105672 2.56141e-06 6.62358e-05)
(8.52444e-05 2.15406e-06 6.29345e-05)
(6.55746e-05 1.87701e-06 6.03038e-05)
(4.62265e-05 1.584e-06 5.83279e-05)
(2.77286e-05 2.92041e-06 5.69569e-05)
(9.76327e-06 3.36568e-06 5.63541e-05)
(0.000190865 1.91176e-06 8.6126e-05)
(0.000166749 1.54609e-06 7.95714e-05)
(0.000143844 1.33505e-06 7.40695e-05)
(0.000122086 1.20435e-06 6.95026e-05)
(0.000101356 1.10971e-06 6.57622e-05)
(8.14314e-05 9.89591e-07 6.27298e-05)
(6.22016e-05 8.68505e-07 6.02937e-05)
(4.32715e-05 7.21826e-07 5.83989e-05)
(2.49844e-05 1.09526e-06 5.69945e-05)
(8.40834e-06 1.46293e-06 5.57577e-05)
(0.000174722 8.26308e-06 9.40559e-05)
(0.000151537 6.15187e-06 8.70228e-05)
(0.000129374 4.62446e-06 8.10898e-05)
(0.000108153 3.5138e-06 7.61563e-05)
(8.76119e-05 2.689e-06 7.21309e-05)
(6.82546e-05 2.53258e-06 6.88582e-05)
(4.8524e-05 2.22521e-06 6.62831e-05)
(3.08185e-05 7.10977e-06 6.38441e-05)
(1.11596e-05 3.62758e-06 6.37145e-05)
(0.000195748 8.65917e-06 0.000101574)
(0.000171988 6.51301e-06 9.3523e-05)
(0.000149225 5.00821e-06 8.66744e-05)
(0.000127397 3.92711e-06 8.08983e-05)
(0.000106415 3.10882e-06 7.6086e-05)
(8.60857e-05 2.41731e-06 7.21521e-05)
(6.66977e-05 2.05553e-06 6.8991e-05)
(4.7246e-05 1.72553e-06 6.65792e-05)
(2.92917e-05 3.56783e-06 6.46496e-05)
(1.12244e-05 3.63972e-06 6.38796e-05)
(0.000192553 5.44759e-06 0.00010063)
(0.000168978 4.20746e-06 9.28306e-05)
(0.000146399 3.39283e-06 8.62285e-05)
(0.000124773 2.82565e-06 8.06864e-05)
(0.000103997 2.38887e-06 7.60871e-05)
(8.38912e-05 1.97923e-06 7.23378e-05)
(6.44943e-05 1.73801e-06 6.93623e-05)
(4.53487e-05 1.5228e-06 6.71551e-05)
(2.70703e-05 3.12251e-06 6.57818e-05)
(9.48967e-06 3.69117e-06 6.51919e-05)
(0.000187414 1.78719e-06 9.90065e-05)
(0.000163842 1.43443e-06 9.15232e-05)
(0.000141418 1.23242e-06 8.52398e-05)
(0.000120086 1.10395e-06 8.00183e-05)
(9.97254e-05 1.00001e-06 7.57344e-05)
(8.01141e-05 8.67821e-07 7.22549e-05)
(6.11537e-05 7.48305e-07 6.94721e-05)
(4.24525e-05 6.17833e-07 6.73282e-05)
(2.4423e-05 1.04673e-06 6.58195e-05)
(8.20023e-06 1.44017e-06 6.44415e-05)
(0.000171304 8.0454e-06 0.000105408)
(0.000148678 5.97968e-06 9.76261e-05)
(0.000127004 4.48274e-06 9.10697e-05)
(0.000106214 3.38542e-06 8.56253e-05)
(8.60398e-05 2.57488e-06 8.11914e-05)
(6.69746e-05 2.47997e-06 7.76729e-05)
(4.73679e-05 2.28405e-06 7.49569e-05)
(2.97924e-05 8.1042e-06 7.2971e-05)
(1.01902e-05 5.06366e-06 7.25816e-05)
(0.000191724 8.35466e-06 0.000113872)
(0.000168585 6.26859e-06 0.000104927)
(0.000146367 4.80595e-06 9.733e-05)
(0.000125018 3.7501e-06 9.09304e-05)
(0.000104458 2.94119e-06 8.5606e-05)
(8.44903e-05 2.25916e-06 8.12642e-05)
(6.53941e-05 1.93529e-06 7.78381e-05)
(4.61223e-05 1.68185e-06 7.52884e-05)
(2.83788e-05 3.74711e-06 7.36934e-05)
(1.0837e-05 3.74196e-06 7.29823e-05)
(0.000188552 5.16823e-06 0.000113092)
(0.00016559 3.97092e-06 0.000104399)
(0.000143551 3.18681e-06 9.70454e-05)
(0.000122402 2.63683e-06 9.0874e-05)
(0.000102048 2.20325e-06 8.57552e-05)
(8.2314e-05 1.80033e-06 8.15857e-05)
(6.32358e-05 1.59656e-06 7.83004e-05)
(4.43577e-05 1.4566e-06 7.58863e-05)
(2.63669e-05 3.24896e-06 7.45268e-05)
(9.21035e-06 3.92248e-06 7.38618e-05)
(0.00018351 1.66769e-06 0.000111508)
(0.000160551 1.3273e-06 0.000103144)
(0.000138668 1.13496e-06 9.61173e-05)
(0.000117813 1.01058e-06 9.02725e-05)
(9.78682e-05 9.00774e-07 8.54692e-05)
(7.86162e-05 7.63609e-07 8.15648e-05)
(5.99712e-05 6.508e-07 7.84628e-05)
(4.15564e-05 5.37506e-07 7.6098e-05)
(2.38291e-05 1.0028e-06 7.45287e-05)
(7.98042e-06 1.40966e-06 7.30091e-05)
(0.000167421 7.79874e-06 0.000116487)
(0.000145411 5.79212e-06 0.00010799)
(0.000124283 4.32707e-06 0.000100842)
(0.000103979 3.24703e-06 9.49129e-05)
(8.42357e-05 2.44655e-06 9.01027e-05)
(6.55184e-05 2.36415e-06 8.63869e-05)
(4.61932e-05 2.24129e-06 8.35609e-05)
(2.88079e-05 8.51044e-06 8.22313e-05)
(9.42102e-06 5.71152e-06 8.13032e-05)
(0.000187202 8.02603e-06 0.000125842)
(0.000164746 6.00582e-06 0.000116053)
(0.000143132 4.5875e-06 0.000107747)
(0.000122316 3.55935e-06 0.000100754)
(0.000102232 2.76386e-06 9.49464e-05)
(8.26843e-05 2.09759e-06 9.02274e-05)
(6.39322e-05 1.80252e-06 8.65745e-05)
(4.4957e-05 1.62085e-06 8.39082e-05)
(2.74831e-05 3.79019e-06 8.27379e-05)
(1.04341e-05 3.84953e-06 8.20319e-05)
(0.000184096 4.8934e-06 0.000125187)
(0.000161811 3.74029e-06 0.000115653)
(0.00014037 2.98646e-06 0.000107588)
(0.00011975 2.45308e-06 0.00010082)
(9.9866e-05 2.0258e-06 9.521e-05)
(8.05522e-05 1.63648e-06 9.06481e-05)
(6.18388e-05 1.46306e-06 8.70825e-05)
(4.32975e-05 1.38731e-06 8.44807e-05)
(2.56413e-05 3.25839e-06 8.31464e-05)
(8.92245e-06 4.02654e-06 8.23446e-05)
(0.000179182 1.55634e-06 0.0001236)
(0.000156901 1.22943e-06 0.000114407)
(0.000135615 1.04695e-06 0.000106679)
(0.000115286 9.26071e-07 0.000100245)
(9.58005e-05 8.13288e-07 9.49503e-05)
(7.69532e-05 6.79226e-07 9.06459e-05)
(5.867e-05 5.77421e-07 8.72513e-05)
(4.06022e-05 4.82017e-07 8.46893e-05)
(2.32147e-05 9.62875e-07 8.30887e-05)
(7.75039e-06 1.38499e-06 8.14244e-05)
(0.000172765 9.61471e-07 0.000130409)
(0.00014681 3.97078e-07 0.000120738)
(0.000123143 -3.76437e-08 0.000112769)
(0.000101379 -4.13666e-07 0.000106269)
(8.11173e-05 -7.04594e-07 0.000101053)
(6.21077e-05 -9.11286e-07 9.70226e-05)
(4.37068e-05 -8.66635e-07 9.40426e-05)
(2.58992e-05 -9.27337e-07 9.22703e-05)
(8.95771e-06 -8.25608e-07 9.04291e-05)
(0.000177047 3.16909e-06 0.000130451)
(0.000151198 1.76331e-06 0.000120531)
(0.000127493 6.73706e-07 0.000112363)
(0.000105522 -2.16865e-07 0.000105711)
(8.48964e-05 -8.84103e-07 0.000100396)
(6.5455e-05 -1.40515e-06 9.63385e-05)
(4.65472e-05 -1.45914e-06 9.34824e-05)
(2.85271e-05 -2.38878e-06 9.22034e-05)
(1.04935e-05 -1.70706e-06 9.13837e-05)
(0.000177648 5.35297e-06 0.000129699)
(0.000152309 3.34265e-06 0.000119729)
(0.000128919 1.78343e-06 0.000111499)
(0.00010711 5.45788e-07 0.000104798)
(8.65016e-05 -3.56839e-07 9.94584e-05)
(6.71415e-05 -1.07972e-06 9.54705e-05)
(4.79397e-05 -1.12335e-06 9.27171e-05)
(3.01287e-05 -2.02485e-06 9.20661e-05)
(1.18669e-05 8.40124e-08 9.13814e-05)
(0.00017653 7.25463e-06 0.000129231)
(0.000151807 4.81116e-06 0.000119313)
(0.000128836 2.91568e-06 0.0001111)
(0.000107312 1.41502e-06 0.000104403)
(8.68416e-05 2.61344e-07 9.90758e-05)
(6.769e-05 -8.62444e-07 9.5141e-05)
(4.82784e-05 -9.63279e-07 9.23438e-05)
(3.05462e-05 -5.04763e-06 9.20217e-05)
(1.09722e-05 1.27058e-06 9.0934e-05)
(0.000174316 8.64696e-06 0.00012887)
(0.000150263 5.94139e-06 0.000119069)
(0.000127744 3.8532e-06 0.00011093)
(0.000106505 2.22309e-06 0.000104288)
(8.59774e-05 9.71468e-07 9.90144e-05)
(6.69673e-05 -1.74566e-07 9.52739e-05)
(4.51192e-05 -2.36703e-07 9.23995e-05)
(2.83498e-05 -3.63945e-06 9.55364e-05)
(0.000171556 9.3914e-06 0.00012851)
(0.00014823 6.6101e-06 0.000118858)
(0.000126224 4.48982e-06 0.000110816)
(0.000105365 2.87384e-06 0.000104238)
(8.50661e-05 1.67909e-06 9.89941e-05)
(6.63077e-05 8.72215e-07 9.52517e-05)
(4.4418e-05 8.73205e-07 9.21533e-05)
(2.8257e-05 1.45987e-06 9.47308e-05)
(0.000168636 9.43728e-06 0.000128112)
(0.000146045 6.74991e-06 0.000118617)
(0.000124564 4.72499e-06 0.000110682)
(0.00010409 3.19617e-06 0.000104167)
(8.40635e-05 2.04853e-06 9.895e-05)
(6.55078e-05 1.33967e-06 9.51998e-05)
(4.37271e-05 1.06288e-06 9.20363e-05)
(2.77293e-05 1.77423e-06 9.45666e-05)
(0.000165797 8.80907e-06 0.000127689)
(0.000143889 6.40089e-06 0.000118353)
(0.000122908 4.62156e-06 0.000110525)
(0.000102788 3.30534e-06 0.000104073)
(8.30367e-05 2.34834e-06 9.88908e-05)
(6.45729e-05 2.08149e-06 9.51612e-05)
(4.29763e-05 1.88784e-06 9.21677e-05)
(2.66082e-05 6.85037e-06 9.53861e-05)
(0.000163131 7.54537e-06 0.000127262)
(0.000141795 5.59171e-06 0.000118093)
(0.000121267 4.16315e-06 0.000110383)
(0.000101498 3.09854e-06 0.000103998)
(8.225e-05 2.30666e-06 9.88344e-05)
(6.39314e-05 2.1889e-06 9.49365e-05)
(4.50762e-05 2.08345e-06 9.20184e-05)
(2.79527e-05 7.80104e-06 9.14507e-05)
(9.55774e-06 4.86313e-06 8.98608e-05)
(0.000182238 7.69663e-06 0.000137447)
(0.000160527 5.74424e-06 0.000126868)
(0.00013957 4.37255e-06 0.000117894)
(0.000119339 3.3714e-06 0.000110342)
(9.97795e-05 2.59258e-06 0.000104078)
(8.07104e-05 1.94689e-06 9.90071e-05)
(6.23549e-05 1.66628e-06 9.51446e-05)
(4.3809e-05 1.55155e-06 9.23681e-05)
(2.66432e-05 3.65346e-06 9.16227e-05)
(1.00187e-05 3.97878e-06 9.07533e-05)
(0.000179227 4.6375e-06 0.000136884)
(0.000157678 3.52887e-06 0.000126564)
(0.000136888 2.8023e-06 0.000117831)
(0.000116845 2.28217e-06 0.0001105)
(9.74776e-05 1.86307e-06 0.000104428)
(7.86319e-05 1.49298e-06 9.95005e-05)
(6.03277e-05 1.33896e-06 9.5676e-05)
(4.21918e-05 1.31386e-06 9.29026e-05)
(2.49034e-05 3.12036e-06 9.15896e-05)
(8.62426e-06 3.98953e-06 9.06325e-05)
(0.00017446 1.45628e-06 0.000135259)
(0.000152916 1.14369e-06 0.000125292)
(0.000132278 9.68923e-07 0.000116908)
(0.000112521 8.48303e-07 0.000109922)
(9.35366e-05 7.35072e-07 0.000104164)
(7.51388e-05 6.11874e-07 9.9487e-05)
(5.72624e-05 5.24234e-07 9.58235e-05)
(3.96014e-05 4.47953e-07 9.30832e-05)
(2.25862e-05 9.23552e-07 9.14587e-05)
(7.51078e-06 1.37114e-06 8.96487e-05)
(0.000167774 1.05305e-06 0.000141482)
(0.000142689 5.18396e-07 0.000131172)
(0.000119761 8.8694e-08 0.000122665)
(9.86417e-05 -2.92928e-07 0.000115729)
(7.89557e-05 -5.92083e-07 0.000110162)
(6.04571e-05 -7.92962e-07 0.000105867)
(4.25505e-05 -7.64846e-07 0.000102677)
(2.51732e-05 -8.35842e-07 0.000100803)
(8.67647e-06 -8.01595e-07 9.87841e-05)
(0.000171933 3.274e-06 0.00014136)
(0.000146973 1.92213e-06 0.000130774)
(0.000124027 8.54442e-07 0.000122043)
(0.000102717 -3.58842e-08 0.000114923)
(8.26778e-05 -7.05945e-07 0.000109222)
(6.37438e-05 -1.21544e-06 0.000104866)
(4.53383e-05 -1.30682e-06 0.000101801)
(2.77232e-05 -2.08843e-06 0.000100535)
(1.01435e-05 -1.62516e-06 9.97959e-05)
(0.000172526 5.39744e-06 0.000140425)
(0.000148071 3.44897e-06 0.000129784)
(0.000125435 1.92418e-06 0.000120985)
(0.000104286 7.00206e-07 0.000113808)
(8.42733e-05 -1.94573e-07 0.000108077)
(6.54072e-05 -8.89217e-07 0.000103812)
(4.67767e-05 -9.7585e-07 0.000100906)
(2.92603e-05 -1.644e-06 0.000100493)
(1.13437e-05 2.4041e-08 9.98701e-05)
(0.000171454 7.21037e-06 0.000139849)
(0.000147599 4.83678e-06 0.00012926)
(0.000125368 2.98842e-06 0.000120477)
(0.000104499 1.51965e-06 0.000113305)
(8.46367e-05 3.99452e-07 0.000107591)
(6.59726e-05 -6.14837e-07 0.000103409)
(4.72276e-05 -6.729e-07 0.000100484)
(2.97615e-05 -2.88312e-06 0.000100519)
(1.14516e-05 1.73491e-06 9.92889e-05)
(0.00016932 8.52021e-06 0.000139434)
(0.000146107 5.89189e-06 0.000128971)
(0.000124317 3.85933e-06 0.000120272)
(0.000103734 2.27034e-06 0.000113166)
(8.3886e-05 1.05757e-06 0.000107529)
(6.54282e-05 2.58162e-08 0.000103628)
(4.53798e-05 3.53847e-08 0.0001007)
(2.90791e-05 -1.62347e-06 0.000105598)
(8.46713e-06 3.68082e-06 9.95154e-05)
(0.000166651 9.20302e-06 0.000139038)
(0.000144134 6.49999e-06 0.000128728)
(0.000122839 4.43588e-06 0.000120138)
(0.000102624 2.8587e-06 0.000113105)
(8.30096e-05 1.68996e-06 0.000107505)
(6.48064e-05 9.21133e-07 0.000103617)
(4.48065e-05 9.53078e-07 0.000100475)
(2.90027e-05 1.76488e-06 0.000105189)
(8.48052e-06 4.88325e-06 9.74642e-05)
(0.000163822 9.21216e-06 0.000138605)
(0.000142009 6.59867e-06 0.00012846)
(0.000121221 4.62525e-06 0.000119985)
(0.000101374 3.13065e-06 0.000113028)
(8.20153e-05 2.00421e-06 0.000107467)
(6.39972e-05 1.31208e-06 0.000103584)
(4.41051e-05 1.08973e-06 0.000100385)
(2.84569e-05 1.9062e-06 0.00010506)
(8.18903e-06 3.18062e-06 9.71416e-05)
(0.000161071 8.55862e-06 0.000138148)
(0.000139909 6.2258e-06 0.000128171)
(0.000119602 4.48834e-06 0.000119814)
(0.00010009 3.19675e-06 0.00011293)
(8.09812e-05 2.24579e-06 0.000107417)
(6.30307e-05 1.90787e-06 0.00010356)
(4.32614e-05 1.71252e-06 0.000100533)
(2.73466e-05 5.05422e-06 0.000105489)
(7.51376e-06 3.76672e-06 9.90525e-05)
(0.00015849 7.28232e-06 0.0001377)
(0.000137877 5.39427e-06 0.000127907)
(0.000117994 4.00093e-06 0.00011967)
(9.88076e-05 2.95645e-06 0.000112856)
(8.01064e-05 2.17279e-06 0.000107356)
(6.22267e-05 1.97912e-06 0.000103258)
(4.40048e-05 1.86815e-06 0.000100238)
(2.71211e-05 5.6486e-06 9.99904e-05)
(1.0077e-05 4.35714e-06 9.81202e-05)
(0.000176881 7.37738e-06 0.000148652)
(0.00015597 5.49529e-06 0.000137342)
(0.00013572 4.16731e-06 0.000127743)
(0.000116121 3.19221e-06 0.000119667)
(9.71319e-05 2.43217e-06 0.000112977)
(7.85923e-05 1.81192e-06 0.000107573)
(6.06799e-05 1.53682e-06 0.000103497)
(4.26812e-05 1.48503e-06 0.000100602)
(2.58127e-05 3.34793e-06 0.000100034)
(9.53323e-06 4.11784e-06 9.89801e-05)
(0.000173983 4.40559e-06 0.000148154)
(0.000153223 3.34039e-06 0.000137106)
(0.000133131 2.63683e-06 0.00012775)
(0.000113711 2.12598e-06 0.000119894)
(9.49031e-05 1.71699e-06 0.000113392)
(7.65698e-05 1.3704e-06 0.000108122)
(5.87165e-05 1.22606e-06 0.000104053)
(4.10473e-05 1.2412e-06 0.000101122)
(2.41541e-05 2.85759e-06 9.97924e-05)
(8.3175e-06 3.89598e-06 9.87174e-05)
(0.000169375 1.37107e-06 0.000146468)
(0.000148619 1.07196e-06 0.000135785)
(0.000128678 9.0045e-07 0.000126791)
(0.000109534 7.76072e-07 0.000119287)
(9.10904e-05 6.64571e-07 0.000113099)
(7.31846e-05 5.58464e-07 0.000108077)
(5.57578e-05 4.86656e-07 0.000104165)
(3.85574e-05 4.30111e-07 0.000101261)
(2.19421e-05 8.83103e-07 9.95918e-05)
(7.26179e-06 1.36472e-06 9.76526e-05)
(0.000162482 1.16976e-06 0.000152054)
(0.000138316 6.64239e-07 0.000141159)
(0.000116172 2.35987e-07 0.000132163)
(9.57345e-05 -1.49007e-07 0.000124824)
(7.66599e-05 -4.51292e-07 0.00011894)
(5.8697e-05 -6.36482e-07 0.000114398)
(4.13109e-05 -6.21681e-07 0.000111017)
(2.43845e-05 -7.21762e-07 0.000109032)
(8.36573e-06 -7.72799e-07 0.000106876)
(0.000166497 3.41148e-06 0.000151839)
(0.000142482 2.1135e-06 0.000140641)
(0.00012034 1.06123e-06 0.000131399)
(9.97274e-05 1.78244e-07 0.000123851)
(8.03041e-05 -4.86924e-07 0.000117796)
(6.18994e-05 -9.6328e-07 0.000113163)
(4.40238e-05 -1.08607e-06 0.000109912)
(2.68373e-05 -1.75236e-06 0.000108611)
(9.74448e-06 -1.53579e-06 0.000107962)
(0.000167073 5.46281e-06 0.000150761)
(0.000143553 3.58267e-06 0.000139497)
(0.00012172 2.09035e-06 0.000130177)
(0.000101267 8.90044e-07 0.000122567)
(8.18741e-05 6.01859e-09 0.000116473)
(6.35252e-05 -6.54519e-07 0.000111935)
(4.54887e-05 -7.95271e-07 0.000108877)
(2.8297e-05 -1.31614e-06 0.000108443)
(1.07571e-05 -5.10421e-08 0.000108034)
(0.000166047 7.17001e-06 0.000150096)
(0.000143099 4.87568e-06 0.000138885)
(0.00012166 3.07571e-06 0.000129576)
(0.000101482 1.64593e-06 0.000121973)
(8.22463e-05 5.61928e-07 0.000115892)
(6.40844e-05 -3.50683e-07 0.000111444)
(4.5981e-05 -4.3733e-07 0.000108392)
(2.87748e-05 -1.68718e-06 0.000108329)
(1.09974e-05 1.37519e-06 0.000107499)
(0.000163992 8.38523e-06 0.000149623)
(0.000141661 5.84254e-06 0.000138549)
(0.000120647 3.86983e-06 0.000129327)
(0.000100756 2.32643e-06 0.000121796)
(8.15941e-05 1.15568e-06 0.000115798)
(6.36447e-05 2.23194e-07 0.000111613)
(4.47961e-05 2.1617e-07 0.00010851)
(2.84748e-05 -5.68985e-07 0.000111282)
(1.2e-05 3.04672e-06 0.000106932)
(0.000161415 9.00429e-06 0.000149185)
(0.00013975 6.38747e-06 0.000138273)
(0.000119213 4.38424e-06 0.000129166)
(9.96773e-05 2.84889e-06 0.000121713)
(8.07483e-05 1.71042e-06 0.000115759)
(6.30329e-05 9.72974e-07 0.000111596)
(4.42423e-05 9.941e-07 0.000108302)
(2.8278e-05 1.83075e-06 0.000110901)
(1.20179e-05 4.43463e-06 0.000105416)
(0.000158685 8.9729e-06 0.000148715)
(0.000137692 6.44593e-06 0.000137981)
(0.00011764 4.53128e-06 0.000128999)
(9.84557e-05 3.07287e-06 0.000121629)
(7.97719e-05 1.97374e-06 0.000115726)
(6.22295e-05 1.30169e-06 0.00011158)
(4.35489e-05 1.13649e-06 0.000108241)
(2.77255e-05 2.03618e-06 0.00011077)
(1.17532e-05 3.62057e-06 0.00010508)
(0.000156029 8.2988e-06 0.000148226)
(0.00013566 6.04249e-06 0.000137676)
(0.000116065 4.35606e-06 0.000128823)
(9.71984e-05 3.09011e-06 0.000121533)
(7.87472e-05 2.15235e-06 0.000115689)
(6.1278e-05 1.76142e-06 0.000111575)
(4.2723e-05 1.61929e-06 0.000108398)
(2.6772e-05 4.10645e-06 0.000111079)
(1.11561e-05 4.3601e-06 0.000106299)
(0.000153537 7.02255e-06 0.000147776)
(0.000133693 5.19499e-06 0.000137403)
(0.000114498 3.84046e-06 0.000128679)
(9.59317e-05 2.8181e-06 0.000121462)
(7.78143e-05 2.05051e-06 0.000115643)
(6.03993e-05 1.79746e-06 0.000111326)
(4.28048e-05 1.73623e-06 0.000108206)
(2.61802e-05 4.49402e-06 0.000107832)
(9.67813e-06 4.65183e-06 0.00010628)
(0.000171173 7.07071e-06 0.000159425)
(0.000151109 5.26033e-06 0.000147443)
(0.000131611 3.97583e-06 0.00013727)
(0.000112687 3.02605e-06 0.000128708)
(9.43089e-05 2.28749e-06 0.00012162)
(7.63398e-05 1.69689e-06 0.0001159)
(5.89094e-05 1.4265e-06 0.000111603)
(4.14957e-05 1.44259e-06 0.000108589)
(2.4968e-05 3.11157e-06 0.000107945)
(9.04539e-06 4.21696e-06 0.000106901)
(0.000168396 4.19571e-06 0.000158973)
(0.000148472 3.17276e-06 0.000147256)
(0.000129123 2.48864e-06 0.000137326)
(0.000110366 1.9851e-06 0.000128985)
(9.21581e-05 1.5885e-06 0.000122083)
(7.43763e-05 1.26807e-06 0.000116495)
(5.70131e-05 1.12927e-06 0.000112192)
(3.98541e-05 1.18064e-06 0.000109118)
(2.33935e-05 2.60909e-06 0.000107733)
(8.01329e-06 3.79787e-06 0.000106593)
(0.000163955 1.30066e-06 0.000157213)
(0.000144034 1.01296e-06 0.000145873)
(0.000124832 8.40527e-07 0.000136314)
(0.000106341 7.10267e-07 0.00012833)
(8.84756e-05 6.0261e-07 0.000121742)
(7.11018e-05 5.16831e-07 0.000116404)
(5.41636e-05 4.60667e-07 0.000112263)
(3.74638e-05 4.23517e-07 0.00010921)
(2.12796e-05 8.53321e-07 0.000107468)
(7.00779e-06 1.35908e-06 0.000105425)
(0.000156917 1.27511e-06 0.0001621)
(0.00013371 7.93959e-07 0.000150671)
(0.000112388 3.67678e-07 0.000141227)
(9.26718e-05 -1.86941e-08 0.000133523)
(7.42424e-05 -3.20178e-07 0.000127349)
(5.68441e-05 -4.90765e-07 0.00012258)
(4.00008e-05 -4.91413e-07 0.000119034)
(2.35523e-05 -6.18011e-07 0.000116941)
(8.04206e-06 -7.44482e-07 0.000114686)
(0.000160779 3.53252e-06 0.000161866)
(0.000137748 2.2888e-06 0.000150119)
(0.000116447 1.25617e-06 0.000140406)
(9.6565e-05 3.86001e-07 0.000132463)
(7.77902e-05 -2.66807e-07 0.000126081)
(5.9946e-05 -7.0912e-07 0.000121196)
(4.26242e-05 -8.64883e-07 0.000117789)
(2.58986e-05 -1.44655e-06 0.000116431)
(9.33453e-06 -1.4364e-06 0.00011585)
(0.000161331 5.50945e-06 0.000160675)
(0.000138786 3.70043e-06 0.000148854)
(0.000117792 2.24736e-06 0.000139055)
(9.80676e-05 1.07527e-06 0.000131038)
(7.93271e-05 2.09876e-07 0.000124611)
(6.15234e-05 -4.16483e-07 0.00011982)
(4.40917e-05 -6.16254e-07 0.000116631)
(2.72846e-05 -1.03757e-06 0.000116103)
(1.01935e-05 -8.3743e-08 0.000115931)
(0.000160344 7.11569e-06 0.000159928)
(0.000138349 4.90401e-06 0.000148159)
(0.000117735 3.1586e-06 0.000138375)
(9.82782e-05 1.7722e-06 0.000130362)
(7.96976e-05 7.25057e-07 0.000123947)
(6.20588e-05 -1.05886e-07 0.000119248)
(4.45879e-05 -2.51298e-07 0.000116096)
(2.77028e-05 -9.39432e-07 0.000115917)
(1.0385e-05 1.26155e-06 0.000115506)
(0.000158369 8.23889e-06 0.000159407)
(0.000136963 5.78607e-06 0.000147777)
(0.00011676 3.87745e-06 0.000138085)
(9.75878e-05 2.38306e-06 0.000130148)
(7.91214e-05 1.25226e-06 0.000123814)
(6.16763e-05 3.96795e-07 0.000119338)
(4.37895e-05 3.38288e-07 0.000116142)
(2.74655e-05 6.55968e-08 0.000117737)
(1.11367e-05 2.75718e-06 0.000115463)
(0.000155888 8.79206e-06 0.000158931)
(0.000135117 6.26604e-06 0.000147472)
(0.000115372 4.32771e-06 0.0001379)
(9.65402e-05 2.83727e-06 0.000130047)
(7.83015e-05 1.72896e-06 0.000123762)
(6.10651e-05 1.01619e-06 0.000119316)
(4.32414e-05 1.00773e-06 0.000115973)