/*--------------------------------*- C++ -*----------------------------------*\
| =========                 |                                                 |
| \\      /  F ield         | OpenFOAM: The Open Source CFD Toolbox           |
|  \\    /   O peration     | Version:  2.3.1                                 |
|   \\  /    A nd           | Web:      www.OpenFOAM.org                      |
|    \\/     M anipulation  |                                                 |
\*---------------------------------------------------------------------------*/
FoamFile
{
    version     2.0;
    format      ascii;
    class       volVectorField;
    location    "5";
    object      U_0;
}
// * * * * * * * * * * * * * * * * * * * * * * * * * * * * * * * * * * * * * //

dimensions      [0 1 -1 0 0 0 0];

internalField   nonuniform List<vector> 
37784
(
(0.000176596 9.42043e-06 7.0518e-06)
(0.000151293 7.32316e-06 6.42973e-06)
(0.000127722 5.85525e-06 5.89696e-06)
(0.000105673 4.80771e-06 5.45906e-06)
(8.47068e-05 3.96247e-06 5.13487e-06)
(6.48404e-05 3.46052e-06 4.92209e-06)
(4.46716e-05 2.11517e-06 4.81576e-06)
(2.57251e-05 2.36518e-06 4.29632e-06)
(8.73727e-06 -2.66557e-06 3.33734e-06)
(0.000200917 7.7464e-06 7.72337e-06)
(0.000174556 5.66222e-06 7.06364e-06)
(0.000149872 4.28659e-06 6.47565e-06)
(0.000126721 3.37724e-06 5.97721e-06)
(0.000104937 2.76349e-06 5.55645e-06)
(8.42045e-05 2.28987e-06 5.2323e-06)
(6.44626e-05 2.02165e-06 5.02192e-06)
(4.45941e-05 1.59027e-06 4.89365e-06)
(2.58317e-05 2.10387e-06 4.45638e-06)
(8.68127e-06 1.52605e-06 3.64682e-06)
(0.000198865 2.80565e-06 7.33901e-06)
(0.000173079 1.71964e-06 6.73729e-06)
(0.000148792 1.07516e-06 6.22122e-06)
(0.000125894 7.08716e-07 5.78569e-06)
(0.000104256 5.18525e-07 5.41486e-06)
(8.36516e-05 3.83734e-07 5.12485e-06)
(6.38727e-05 3.20714e-07 4.93481e-06)
(4.43909e-05 1.40555e-07 4.85891e-06)
(2.52092e-05 7.59223e-07 4.65362e-06)
(7.91732e-06 6.92451e-07 4.0411e-06)
(0.00019618 -1.07336e-07 6.42275e-06)
(0.000170787 -3.79842e-07 5.91981e-06)
(0.000146824 -5.06276e-07 5.4987e-06)
(0.000124202 -5.38998e-07 5.14911e-06)
(0.000102821 -5.08825e-07 4.85868e-06)
(8.24796e-05 -4.60503e-07 4.62671e-06)
(6.3013e-05 -4.06284e-07 4.45274e-06)
(4.40578e-05 -3.12722e-07 4.33266e-06)
(2.57271e-05 1.35789e-08 4.28306e-06)
(8.40401e-06 6.52347e-07 4.2588e-06)
(0.000181851 8.95843e-06 2.02469e-05)
(0.000156339 6.81791e-06 1.85444e-05)
(0.0001324 5.30771e-06 1.70881e-05)
(0.000109848 4.23411e-06 1.58897e-05)
(8.82945e-05 3.38071e-06 1.49855e-05)
(6.78669e-05 2.84004e-06 1.4343e-05)
(4.73692e-05 1.63921e-06 1.38721e-05)
(2.85777e-05 2.02389e-06 1.23135e-05)
(1.05731e-05 -2.49703e-06 9.78823e-06)
(0.000206122 7.88878e-06 2.1982e-05)
(0.000179651 5.74704e-06 2.01401e-05)
(0.000154708 4.29262e-06 1.85197e-05)
(0.00013118 3.31653e-06 1.71439e-05)
(0.000108902 2.6569e-06 1.59947e-05)
(8.75815e-05 2.14776e-06 1.5103e-05)
(6.72393e-05 1.829e-06 1.44771e-05)
(4.69839e-05 1.36938e-06 1.3975e-05)
(2.81865e-05 1.92221e-06 1.26646e-05)
(1.0151e-05 1.65036e-06 1.03824e-05)
(0.000203854 3.80407e-06 2.08694e-05)
(0.000177814 2.61913e-06 1.91771e-05)
(0.000153188 1.87867e-06 1.77285e-05)
(0.00012989 1.43422e-06 1.65085e-05)
(0.000107776 1.18176e-06 1.54867e-05)
(8.66159e-05 9.91115e-07 1.46855e-05)
(6.6278e-05 8.64542e-07 1.41269e-05)
(4.6329e-05 6.12728e-07 1.37952e-05)
(2.71152e-05 1.16384e-06 1.31107e-05)
(9.17493e-06 9.82984e-07 1.13931e-05)
(0.000200091 8.02852e-07 1.86822e-05)
(0.000174328 4.68086e-07 1.72185e-05)
(0.000149984 2.90028e-07 1.59891e-05)
(0.000126978 2.18077e-07 1.49681e-05)
(0.0001052 2.178e-07 1.41295e-05)
(8.44395e-05 2.33156e-07 1.34632e-05)
(6.45416e-05 2.4831e-07 1.29573e-05)
(4.51518e-05 2.65375e-07 1.25963e-05)
(2.63674e-05 5.38775e-07 1.23343e-05)
(8.88195e-06 9.26604e-07 1.1936e-05)
(0.00018272 8.71591e-06 3.35112e-05)
(0.000157496 6.55063e-06 3.07851e-05)
(0.000133703 5.01376e-06 2.84586e-05)
(0.000111177 3.92064e-06 2.65381e-05)
(8.95889e-05 3.06423e-06 2.50573e-05)
(6.91929e-05 2.5393e-06 2.39172e-05)
(4.89481e-05 1.51211e-06 2.29738e-05)
(3.07039e-05 2.2522e-06 2.07028e-05)
(1.20478e-05 -1.90518e-06 1.82634e-05)
(0.000206468 8.28081e-06 3.62092e-05)
(0.000180371 6.08981e-06 3.322e-05)
(0.000155673 4.57778e-06 3.06129e-05)
(0.000132274 3.5462e-06 2.84e-05)
(0.000110022 2.83668e-06 2.65563e-05)
(8.86625e-05 2.27803e-06 2.51067e-05)
(6.83146e-05 1.90717e-06 2.40101e-05)
(4.82612e-05 1.41812e-06 2.30585e-05)
(2.98719e-05 2.05261e-06 2.1175e-05)
(1.13305e-05 2.05266e-06 1.89136e-05)
(0.000203946 4.81925e-06 3.46835e-05)
(0.00017819 3.55294e-06 3.19056e-05)
(0.000153757 2.73709e-06 2.95296e-05)
(0.000130576 2.22532e-06 2.75297e-05)
(0.000108503 1.9104e-06 2.58645e-05)
(8.73212e-05 1.65421e-06 2.45452e-05)
(6.69728e-05 1.45354e-06 2.35702e-05)
(4.71096e-05 1.12212e-06 2.28778e-05)
(2.82461e-05 1.65562e-06 2.18802e-05)
(1.00007e-05 1.44834e-06 2.03465e-05)
(0.000199574 1.60326e-06 3.22099e-05)
(0.000173986 1.22096e-06 2.97063e-05)
(0.000149783 1.00337e-06 2.7602e-05)
(0.000126889 8.98399e-07 2.58583e-05)
(0.000105189 8.69093e-07 2.44323e-05)
(8.44697e-05 8.48527e-07 2.32964e-05)
(6.45911e-05 8.15578e-07 2.24138e-05)
(4.51978e-05 7.48745e-07 2.17554e-05)
(2.64281e-05 9.5819e-07 2.12402e-05)
(8.98e-06 1.15768e-06 2.07736e-05)
(0.000182523 8.6374e-06 4.61592e-05)
(0.000157635 6.4561e-06 4.24894e-05)
(0.000134068 4.90017e-06 3.93651e-05)
(0.000111679 3.79016e-06 3.67778e-05)
(9.01881e-05 2.93181e-06 3.47405e-05)
(6.99543e-05 2.45074e-06 3.30951e-05)
(4.99665e-05 1.57957e-06 3.16875e-05)
(3.20115e-05 2.81989e-06 2.89986e-05)
(1.28319e-05 -1.1966e-06 2.70422e-05)
(0.000205749 8.68504e-06 4.97765e-05)
(0.000180054 6.45783e-06 4.57055e-05)
(0.000155658 4.90788e-06 4.21818e-05)
(0.000132469 3.83468e-06 3.9193e-05)
(0.000110348 3.07988e-06 3.67027e-05)
(8.9078e-05 2.47102e-06 3.47161e-05)
(6.88582e-05 2.05874e-06 3.31437e-05)
(4.90232e-05 1.55078e-06 3.17699e-05)
(3.08151e-05 2.32432e-06 2.95625e-05)
(1.19185e-05 2.51755e-06 2.75689e-05)
(0.000203019 5.50881e-06 4.814e-05)
(0.000177604 4.19619e-06 4.43106e-05)
(0.000153437 3.3378e-06 4.10438e-05)
(0.000130455 2.78103e-06 3.82947e-05)
(0.000108519 2.41589e-06 3.60098e-05)
(8.74303e-05 2.10008e-06 3.41813e-05)
(6.71816e-05 1.83768e-06 3.27759e-05)
(4.7444e-05 1.45219e-06 3.17118e-05)
(2.87086e-05 2.06309e-06 3.05092e-05)
(1.0278e-05 1.9864e-06 2.92279e-05)
(0.000198261 1.99551e-06 4.5819e-05)
(0.000172934 1.59782e-06 4.22746e-05)
(0.000148956 1.36704e-06 3.92972e-05)
(0.000126255 1.24608e-06 3.68307e-05)
(0.000104712 1.19659e-06 3.48166e-05)
(8.41139e-05 1.14482e-06 3.32042e-05)
(6.43287e-05 1.07039e-06 3.19295e-05)
(4.49907e-05 9.41109e-07 3.09459e-05)
(2.62577e-05 1.13837e-06 3.01554e-05)
(8.90958e-06 1.3256e-06 2.9419e-05)
(0.000181575 8.60043e-06 5.85147e-05)
(0.000157048 6.41648e-06 5.39502e-05)
(0.000133753 4.85192e-06 5.00731e-05)
(0.000111569 3.73136e-06 4.68538e-05)
(9.02433e-05 2.87508e-06 4.42761e-05)
(7.02084e-05 2.45974e-06 4.2141e-05)
(5.03764e-05 1.73287e-06 4.03294e-05)
(3.25317e-05 3.65277e-06 3.7466e-05)
(1.29896e-05 -2.95451e-07 3.62305e-05)
(0.000204282 8.93816e-06 6.3077e-05)
(0.000179006 6.699e-06 5.79614e-05)
(0.000154945 5.13385e-06 5.35607e-05)
(0.000132014 4.03627e-06 4.98322e-05)
(0.000110091 3.2472e-06 4.67235e-05)
(8.89806e-05 2.59742e-06 4.42131e-05)
(6.8934e-05 2.16604e-06 4.21757e-05)
(4.9242e-05 1.6658e-06 4.04446e-05)
(3.10772e-05 2.65166e-06 3.81197e-05)
(1.20406e-05 2.93211e-06 3.65737e-05)
(0.000201371 5.82405e-06 6.15301e-05)
(0.000176333 4.50086e-06 5.66675e-05)
(0.000152479 3.63036e-06 5.25292e-05)
(0.000129749 3.05069e-06 4.90482e-05)
(0.000108015 2.65007e-06 4.6157e-05)
(8.70896e-05 2.28831e-06 4.38235e-05)
(6.69928e-05 1.99225e-06 4.19866e-05)
(4.73699e-05 1.59861e-06 4.05778e-05)
(2.86717e-05 2.39027e-06 3.92746e-05)
(1.02267e-05 2.49877e-06 3.83205e-05)
(0.000196364 2.08347e-06 5.94303e-05)
(0.000171363 1.6915e-06 5.4857e-05)
(0.000147675 1.46403e-06 5.10172e-05)
(0.000125226 1.3369e-06 4.78357e-05)
(0.000103898 1.27066e-06 4.52375e-05)
(8.34749e-05 1.19166e-06 4.31466e-05)
(6.383e-05 1.08957e-06 4.14754e-05)
(4.4585e-05 9.32031e-07 4.01684e-05)
(2.59397e-05 1.17054e-06 3.91304e-05)
(8.7762e-06 1.42162e-06 3.82088e-05)
(0.000179941 8.53463e-06 7.06008e-05)
(0.000155809 6.36374e-06 6.51806e-05)
(0.000132835 4.80268e-06 6.05876e-05)
(0.000110914 3.67964e-06 5.67677e-05)
(8.98009e-05 2.8307e-06 5.36743e-05)
(6.99729e-05 2.49828e-06 5.10945e-05)
(5.0197e-05 1.91314e-06 4.8959e-05)
(3.238e-05 4.70058e-06 4.60996e-05)
(1.26716e-05 8.20088e-07 4.54916e-05)
(0.000202116 8.99027e-06 7.61405e-05)
(0.00017729 6.7656e-06 7.00137e-05)
(0.000153606 5.20722e-06 6.47684e-05)
(0.000130984 4.10303e-06 6.03303e-05)
(0.000109317 3.2933e-06 5.66284e-05)
(8.84167e-05 2.61657e-06 5.3614e-05)
(6.85625e-05 2.19106e-06 5.11483e-05)
(4.8947e-05 1.72767e-06 4.9132e-05)
(3.07917e-05 2.98504e-06 4.68349e-05)
(1.18801e-05 3.2575e-06 4.56684e-05)
(0.000199058 5.84331e-06 7.47809e-05)
(0.000174444 4.53642e-06 6.89086e-05)
(0.000150953 3.67541e-06 6.39216e-05)
(0.000128531 3.09033e-06 5.97298e-05)
(0.000107059 2.66807e-06 5.62489e-05)
(8.63524e-05 2.27678e-06 5.34225e-05)
(6.64456e-05 1.97847e-06 5.11735e-05)
(4.6941e-05 1.6206e-06 4.94612e-05)
(2.83007e-05 2.67024e-06 4.81111e-05)
(1.00237e-05 2.96099e-06 4.73912e-05)
(0.000193915 2.01984e-06 7.29053e-05)
(0.000169314 1.64157e-06 6.73266e-05)
(0.00014598 1.42274e-06 6.2644e-05)
(0.000123843 1.29316e-06 5.87613e-05)
(0.000102784 1.21185e-06 5.55866e-05)
(8.2583e-05 1.11021e-06 5.30204e-05)
(6.31206e-05 9.94682e-07 5.09585e-05)
(4.40068e-05 8.3649e-07 4.9344e-05)
(2.55076e-05 1.14172e-06 4.8097e-05)
(8.60563e-06 1.46154e-06 4.70091e-05)
(0.000177659 8.41157e-06 8.24452e-05)
(0.000153969 6.26846e-06 7.62043e-05)
(0.000131368 4.72252e-06 7.0928e-05)
(0.000109766 3.60488e-06 6.65378e-05)
(8.89105e-05 2.76812e-06 6.2961e-05)
(6.93004e-05 2.52777e-06 6.00002e-05)
(4.95326e-05 2.08503e-06 5.76154e-05)
(3.1746e-05 5.89465e-06 5.48984e-05)
(1.20288e-05 2.14035e-06 5.46849e-05)
(0.00019928 8.86807e-06 8.89762e-05)
(0.000174953 6.67936e-06 8.18722e-05)
(0.000151696 5.14483e-06 7.58122e-05)
(0.000129439 4.04891e-06 7.0693e-05)
(0.000108083 3.23138e-06 6.64239e-05)
(8.74393e-05 2.54235e-06 6.29341e-05)
(6.77978e-05 2.14391e-06 6.00925e-05)
(4.82417e-05 1.74118e-06 5.78542e-05)
(3.01436e-05 3.29779e-06 5.56934e-05)
(1.15825e-05 3.485e-06 5.47863e-05)
(0.000196127 5.6793e-06 8.7834e-05)
(0.000171994 4.40453e-06 8.09821e-05)
(0.000148924 3.56546e-06 7.51737e-05)
(0.000126867 2.987e-06 7.02951e-05)
(0.000105712 2.5544e-06 6.62447e-05)
(8.5277e-05 2.14874e-06 6.29454e-05)
(6.55997e-05 1.87293e-06 6.03161e-05)
(4.62443e-05 1.5808e-06 5.83411e-05)
(2.77389e-05 2.91685e-06 5.6971e-05)
(9.76592e-06 3.36132e-06 5.63694e-05)
(0.000190951 1.90433e-06 8.61197e-05)
(0.000166821 1.54041e-06 7.9571e-05)
(0.000143905 1.33065e-06 7.40737e-05)
(0.000122138 1.2009e-06 6.95104e-05)
(0.000101399 1.107e-06 6.57728e-05)
(8.14664e-05 9.87518e-07 6.27424e-05)
(6.22288e-05 8.6691e-07 6.03078e-05)
(4.32916e-05 7.20673e-07 5.84138e-05)
(2.49974e-05 1.09388e-06 5.701e-05)
(8.41262e-06 1.46113e-06 5.57742e-05)
(0.000174778 8.23322e-06 9.40505e-05)
(0.000151586 6.1297e-06 8.70235e-05)
(0.000129416 4.60791e-06 8.10951e-05)
(0.000108189 3.50144e-06 7.61651e-05)
(8.76408e-05 2.67968e-06 7.2142e-05)
(6.82766e-05 2.52555e-06 6.88712e-05)
(4.85388e-05 2.21879e-06 6.62977e-05)
(3.08261e-05 7.10506e-06 6.38601e-05)
(1.11619e-05 3.62176e-06 6.37312e-05)
(0.000195822 8.62794e-06 0.000101562)
(0.000172051 6.48987e-06 9.35191e-05)
(0.00014928 4.99074e-06 8.66763e-05)
(0.000127443 3.91388e-06 8.09047e-05)
(0.000106454 3.09881e-06 7.60958e-05)
(8.61169e-05 2.40987e-06 7.21642e-05)
(6.67214e-05 2.04965e-06 6.90047e-05)
(4.72619e-05 1.72067e-06 6.65939e-05)
(2.93001e-05 3.56262e-06 6.46652e-05)
(1.12259e-05 3.63453e-06 6.38965e-05)
(0.000192634 5.42755e-06 0.00010062)
(0.000169047 4.19226e-06 9.28282e-05)
(0.000146457 3.38123e-06 8.62315e-05)
(0.000124822 2.81672e-06 8.06937e-05)
(0.000104038 2.38199e-06 7.60976e-05)
(8.39245e-05 1.97399e-06 7.23507e-05)
(6.45199e-05 1.734e-06 6.93768e-05)
(4.53668e-05 1.5197e-06 6.71707e-05)
(2.70809e-05 3.11913e-06 6.57982e-05)
(9.49243e-06 3.68701e-06 6.52095e-05)
(0.000187502 1.78004e-06 9.89997e-05)
(0.000163917 1.42897e-06 9.15229e-05)
(0.000141482 1.2282e-06 8.52447e-05)
(0.000120139 1.10065e-06 8.00272e-05)
(9.97697e-05 9.97416e-07 7.57464e-05)
(8.015e-05 8.6584e-07 7.22693e-05)
(6.11816e-05 7.46787e-07 6.94882e-05)
(4.24729e-05 6.1675e-07 6.73454e-05)
(2.44362e-05 1.0454e-06 6.58373e-05)
(8.20459e-06 1.43844e-06 6.44605e-05)
(0.000171363 8.01613e-06 0.000105403)
(0.000148729 5.95766e-06 9.76284e-05)
(0.000127048 4.46613e-06 9.10772e-05)
(0.000106251 3.37288e-06 8.56367e-05)
(8.60694e-05 2.56504e-06 8.12057e-05)
(6.69972e-05 2.47276e-06 7.76889e-05)
(4.7383e-05 2.27775e-06 7.49743e-05)
(2.98002e-05 8.10069e-06 7.29892e-05)
(1.01931e-05 5.05903e-06 7.26007e-05)
(0.000191801 8.32433e-06 0.000113861)
(0.000168651 6.2461e-06 0.000104923)
(0.000146424 4.78899e-06 9.73331e-05)
(0.000125066 3.73725e-06 9.09384e-05)
(0.000104498 2.93146e-06 8.56178e-05)
(8.45223e-05 2.25198e-06 8.12785e-05)
(6.54182e-05 1.92961e-06 7.78543e-05)
(4.61385e-05 1.67714e-06 7.53059e-05)
(2.83875e-05 3.74211e-06 7.37116e-05)
(1.08387e-05 3.73727e-06 7.30016e-05)
(0.000188636 5.14889e-06 0.000113082)
(0.000165662 3.95626e-06 0.000104397)
(0.000143612 3.17559e-06 9.70496e-05)
(0.000122454 2.62818e-06 9.08828e-05)
(0.000102091 2.19657e-06 8.57676e-05)
(8.23482e-05 1.79524e-06 8.16007e-05)
(6.32621e-05 1.59267e-06 7.83172e-05)
(4.43763e-05 1.45363e-06 7.59044e-05)
(2.63777e-05 3.24579e-06 7.45456e-05)
(9.21325e-06 3.91857e-06 7.38818e-05)
(0.000183601 1.66084e-06 0.000111501)
(0.000160629 1.32209e-06 0.000103144)
(0.000138734 1.13093e-06 9.61233e-05)
(0.000117868 1.00742e-06 9.02828e-05)
(9.79138e-05 8.98304e-07 8.5483e-05)
(7.86529e-05 7.61722e-07 8.15812e-05)
(5.99997e-05 6.49359e-07 7.8481e-05)
(4.15773e-05 5.36493e-07 7.61175e-05)
(2.38425e-05 1.00152e-06 7.45489e-05)
(7.98487e-06 1.40801e-06 7.30306e-05)
(0.000167483 7.77062e-06 0.000116484)
(0.000145465 5.77127e-06 0.000107994)
(0.000124329 4.31145e-06 0.000100851)
(0.000104017 3.23527e-06 9.49265e-05)
(8.42663e-05 2.43811e-06 9.01191e-05)
(6.55414e-05 2.35776e-06 8.64055e-05)
(4.62085e-05 2.23552e-06 8.3581e-05)
(2.88159e-05 8.50767e-06 8.22523e-05)
(9.42419e-06 5.70834e-06 8.1325e-05)
(0.000187283 7.99673e-06 0.000125832)
(0.000164816 5.98399e-06 0.000116051)
(0.000143191 4.57095e-06 0.000107752)
(0.000122366 3.54676e-06 0.000100764)
(0.000102273 2.75426e-06 9.49603e-05)
(8.27173e-05 2.09035e-06 9.02442e-05)
(6.39571e-05 1.79688e-06 8.65933e-05)
(4.49737e-05 1.6163e-06 8.39285e-05)
(2.74921e-05 3.78553e-06 8.2759e-05)
(1.04359e-05 3.84529e-06 8.2054e-05)
(0.000184184 4.87481e-06 0.000125178)
(0.000161886 3.7262e-06 0.000115652)
(0.000140434 2.97569e-06 0.000107594)
(0.000119803 2.44479e-06 0.000100831)
(9.99099e-05 2.01938e-06 9.52244e-05)
(8.05874e-05 1.63161e-06 9.06654e-05)
(6.18658e-05 1.45935e-06 8.71018e-05)
(4.33166e-05 1.3845e-06 8.45014e-05)
(2.56525e-05 3.25543e-06 8.31678e-05)
(8.92549e-06 4.02286e-06 8.23672e-05)
(0.000179277 1.54979e-06 0.000123594)
(0.000156982 1.22445e-06 0.000114408)
(0.000135683 1.04311e-06 0.000106687)
(0.000115343 9.23065e-07 0.000100258)
(9.58475e-05 8.10935e-07 9.49661e-05)
(7.69911e-05 6.77429e-07 9.06645e-05)
(5.86993e-05 5.76057e-07 8.72719e-05)
(4.06235e-05 4.81072e-07 8.47112e-05)
(2.32284e-05 9.61668e-07 8.31114e-05)
(7.75494e-06 1.38342e-06 8.14487e-05)
(0.00017278 9.57187e-07 0.000130395)
(0.000146829 3.9413e-07 0.000120735)
(0.000123164 -3.95933e-08 0.000112775)
(0.0001014 -4.1494e-07 0.000106281)
(8.11362e-05 -7.05544e-07 0.000101069)
(6.21236e-05 -9.12137e-07 9.70416e-05)
(4.37194e-05 -8.67557e-07 9.40637e-05)
(2.59079e-05 -9.27806e-07 9.22928e-05)
(8.96066e-06 -8.25417e-07 9.04535e-05)
(0.000177059 3.15619e-06 0.000130436)
(0.000151216 1.75418e-06 0.000120527)
(0.000127513 6.67504e-07 0.000112367)
(0.000105541 -2.21254e-07 0.000105722)
(8.49143e-05 -8.87697e-07 0.000100411)
(6.547e-05 -1.40813e-06 9.63573e-05)
(4.65585e-05 -1.46207e-06 9.35033e-05)
(2.85338e-05 -2.39088e-06 9.22254e-05)
(1.04951e-05 -1.70759e-06 9.14065e-05)
(0.000177665 5.33257e-06 0.000129685)
(0.000152329 3.32793e-06 0.000119726)
(0.00012894 1.77319e-06 0.000111505)
(0.00010713 5.38822e-07 0.00010481)
(8.652e-05 -3.6209e-07 9.94747e-05)
(6.71562e-05 -1.08416e-06 9.549e-05)
(4.79493e-05 -1.12761e-06 9.27388e-05)
(3.01337e-05 -2.02792e-06 9.20888e-05)
(1.18675e-05 8.15772e-08 9.14042e-05)
(0.000176552 7.22807e-06 0.000129218)
(0.000151832 4.79179e-06 0.000119311)
(0.00012886 2.90132e-06 0.000111106)
(0.000107334 1.40443e-06 0.000104416)
(8.68613e-05 2.53302e-07 9.90926e-05)
(6.77049e-05 -8.69235e-07 9.51608e-05)
(4.82878e-05 -9.68871e-07 9.23658e-05)
(3.05512e-05 -5.0549e-06 9.20445e-05)
(1.09737e-05 1.26409e-06 9.09569e-05)
(0.000174347 8.61573e-06 0.00012886)
(0.000150293 5.91875e-06 0.000119069)
(0.000127773 3.83641e-06 0.000110937)
(0.00010653 2.21036e-06 0.000104302)
(8.59985e-05 9.61562e-07 9.9032e-05)
(6.69831e-05 -1.82867e-07 9.52947e-05)
(4.51257e-05 -2.43098e-07 9.24221e-05)
(2.83548e-05 -3.6477e-06 9.55652e-05)
(0.000171596 9.35746e-06 0.000128501)
(0.000148267 6.58513e-06 0.000118859)
(0.000126257 4.47145e-06 0.000110824)
(0.000105394 2.86026e-06 0.000104252)
(8.50894e-05 1.66874e-06 9.9012e-05)
(6.63253e-05 8.63827e-07 9.52727e-05)
(4.44264e-05 8.66616e-07 9.2176e-05)
(2.82622e-05 1.45485e-06 9.476e-05)
(0.000168685 9.40349e-06 0.000128106)
(0.000146089 6.72473e-06 0.00011862)
(0.000124603 4.70624e-06 0.000110691)
(0.000104123 3.18233e-06 0.000104181)
(8.40893e-05 2.03836e-06 9.89682e-05)
(6.55271e-05 1.33147e-06 9.52212e-05)
(4.37366e-05 1.05618e-06 9.20593e-05)
(2.77357e-05 1.76838e-06 9.45958e-05)
(0.000165855 8.77728e-06 0.000127685)
(0.00014394 6.37699e-06 0.000118357)
(0.000122952 4.60357e-06 0.000110535)
(0.000102824 3.29185e-06 0.000104088)
(8.30654e-05 2.3378e-06 9.89094e-05)
(6.45941e-05 2.07391e-06 9.51828e-05)
(4.2987e-05 1.88164e-06 9.21907e-05)
(2.66156e-05 6.84847e-06 9.54149e-05)
(0.000163197 7.51795e-06 0.00012726)
(0.000141852 5.57111e-06 0.000118099)
(0.000121315 4.14764e-06 0.000110395)
(0.000101538 3.08685e-06 0.000104014)
(8.22817e-05 2.29755e-06 9.88538e-05)
(6.39555e-05 2.18232e-06 9.49582e-05)
(4.50923e-05 2.07788e-06 9.20415e-05)
(2.7961e-05 7.79887e-06 9.14744e-05)
(9.56044e-06 4.86056e-06 8.98856e-05)
(0.000182323 7.6684e-06 0.000137438)
(0.0001606 5.72324e-06 0.000126868)
(0.000139632 4.35674e-06 0.000117901)
(0.000119391 3.35942e-06 0.000110354)
(9.98224e-05 2.58346e-06 0.000104095)
(8.07446e-05 1.94019e-06 9.90266e-05)
(6.23807e-05 1.66102e-06 9.51664e-05)
(4.38263e-05 1.54731e-06 9.23914e-05)
(2.66527e-05 3.64908e-06 9.16469e-05)
(1.00208e-05 3.97485e-06 9.07784e-05)
(0.00017932 4.61965e-06 0.000136876)
(0.000157756 3.51535e-06 0.000126565)
(0.000136954 2.79196e-06 0.000117838)
(0.0001169 2.27422e-06 0.000110513)
(9.7523e-05 1.85693e-06 0.000104445)
(7.86683e-05 1.48831e-06 9.95203e-05)
(6.03555e-05 1.33543e-06 9.5698e-05)
(4.22115e-05 1.31122e-06 9.2926e-05)
(2.4915e-05 3.11759e-06 9.16137e-05)
(8.62746e-06 3.98602e-06 9.06579e-05)
(0.00017456 1.45002e-06 0.000135254)
(0.000153 1.13894e-06 0.000125295)
(0.000132349 9.65261e-07 0.000116918)
(0.00011258 8.45449e-07 0.000109936)
(9.35851e-05 7.3284e-07 0.000104182)
(7.51777e-05 6.10174e-07 9.9508e-05)
(5.72925e-05 5.22951e-07 9.58467e-05)
(3.96233e-05 4.47075e-07 9.31078e-05)
(2.26001e-05 9.22422e-07 9.14841e-05)
(7.51543e-06 1.36965e-06 8.96758e-05)
(0.000167794 1.04893e-06 0.000141469)
(0.000142713 5.15588e-07 0.000131171)
(0.000119786 8.68817e-08 0.000122672)
(9.8665e-05 -2.94121e-07 0.000115742)
(7.89764e-05 -5.92969e-07 0.00011018)
(6.04744e-05 -7.9378e-07 0.000105889)
(4.2564e-05 -7.65724e-07 0.000102701)
(2.51826e-05 -8.36336e-07 0.000100828)
(8.67969e-06 -8.01455e-07 9.88115e-05)
(0.000171952 3.26208e-06 0.000141347)
(0.000146996 1.91391e-06 0.000130772)
(0.00012405 8.48964e-07 0.000122049)
(0.00010274 -3.93635e-08 0.000114937)
(8.26975e-05 -7.08167e-07 0.000109241)
(6.376e-05 -1.21772e-06 0.000104888)
(4.53505e-05 -1.30931e-06 0.000101825)
(2.77308e-05 -2.09018e-06 0.00010056)
(1.01453e-05 -1.62569e-06 9.98216e-05)
(0.000172548 5.37768e-06 0.000140413)
(0.000148096 3.43488e-06 0.000129783)
(0.000125459 1.91412e-06 0.000120993)
(0.00010431 6.92661e-07 0.000113822)
(8.42936e-05 -2.00482e-07 0.000108096)
(6.54231e-05 -8.94463e-07 0.000103835)
(4.67881e-05 -9.80384e-07 0.00010093)
(2.92666e-05 -1.6471e-06 0.000100519)
(1.13445e-05 2.16076e-08 9.98961e-05)
(0.000171483 7.18422e-06 0.000139839)
(0.000147627 4.8177e-06 0.000129261)
(0.000125395 2.97493e-06 0.000120486)
(0.000104524 1.50963e-06 0.00011332)
(8.46579e-05 3.91372e-07 0.00010761)
(6.59888e-05 -6.21535e-07 0.000103432)
(4.72391e-05 -6.7822e-07 0.000100509)
(2.97673e-05 -2.88824e-06 0.000100545)
(1.14525e-05 1.72899e-06 9.93152e-05)
(0.000169356 8.48993e-06 0.000139426)
(0.000146141 5.86918e-06 0.000128973)
(0.000124349 3.84293e-06 0.000120282)
(0.000103762 2.25831e-06 0.000113183)
(8.39087e-05 1.04803e-06 0.00010755)
(6.54455e-05 1.82614e-08 0.000103652)
(4.53905e-05 2.91586e-08 0.000100726)
(2.90844e-05 -1.63006e-06 0.00010563)
(8.47207e-06 3.67353e-06 9.95457e-05)
(0.000166695 9.17096e-06 0.000139031)
(0.000144174 6.47592e-06 0.000128731)
(0.000122876 4.41799e-06 0.000120149)
(0.000102656 2.84525e-06 0.000113122)
(8.30345e-05 1.67929e-06 0.000107526)
(6.4825e-05 9.13056e-07 0.000103641)
(4.48174e-05 9.46482e-07 0.000100501)
(2.90087e-05 1.75936e-06 0.000105221)
(8.48557e-06 4.87767e-06 9.74961e-05)
(0.000163875 9.17947e-06 0.000138601)
(0.000142056 6.57449e-06 0.000128465)
(0.000121262 4.60743e-06 0.000119998)
(0.000101408 3.11721e-06 0.000113046)
(8.20428e-05 1.99354e-06 0.000107489)
(6.40181e-05 1.30405e-06 0.000103609)
(4.41176e-05 1.08341e-06 0.000100412)
(2.84632e-05 1.90112e-06 0.000105093)
(8.19447e-06 3.17664e-06 9.71736e-05)
(0.000161133 8.52789e-06 0.000138145)
(0.000139963 6.20331e-06 0.000128177)
(0.000119648 4.47181e-06 0.000119827)
(0.000100128 3.18447e-06 0.000112948)
(8.10112e-05 2.23677e-06 0.000107438)
(6.30537e-05 1.90102e-06 0.000103584)
(4.32755e-05 1.70673e-06 0.000100559)
(2.7354e-05 5.05025e-06 0.000105521)
(7.51985e-06 3.76445e-06 9.9083e-05)
(0.000158561 7.25618e-06 0.0001377)
(0.000137937 5.37494e-06 0.000127916)
(0.000118045 3.98647e-06 0.000119685)
(9.88492e-05 2.9456e-06 0.000112875)
(8.01394e-05 2.16512e-06 0.000107379)
(6.22514e-05 1.9732e-06 0.000103283)
(4.40214e-05 1.86308e-06 0.000100264)
(2.71298e-05 5.64459e-06 0.000100017)
(1.00789e-05 4.35446e-06 9.81484e-05)
(0.000176972 7.35024e-06 0.000148644)
(0.000156046 5.47498e-06 0.000137343)
(0.000135785 4.15194e-06 0.000127752)
(0.000116175 3.18054e-06 0.000119682)
(9.71765e-05 2.42323e-06 0.000112996)
(7.86278e-05 1.8052e-06 0.000107595)
(6.07067e-05 1.53164e-06 0.000103522)
(4.26994e-05 1.48097e-06 0.000100628)
(2.58227e-05 3.34391e-06 0.000100062)
(9.53554e-06 4.11398e-06 9.90083e-05)
(0.00017408 4.38847e-06 0.000148148)
(0.000153305 3.32744e-06 0.000137108)
(0.0001332 2.62696e-06 0.000127759)
(0.000113768 2.11841e-06 0.00011991)
(9.49502e-05 1.71115e-06 0.000113411)
(7.66074e-05 1.36598e-06 0.000108144)
(5.87453e-05 1.22275e-06 0.000104077)
(4.10676e-05 1.23873e-06 0.000101148)
(2.41661e-05 2.85492e-06 9.98194e-05)
(8.32087e-06 3.89256e-06 9.87457e-05)
(0.000169478 1.36508e-06 0.000146465)
(0.000148706 1.06742e-06 0.00013579)
(0.000128751 8.96959e-07 0.000126802)
(0.000109595 7.73358e-07 0.000119304)
(9.11405e-05 6.6245e-07 0.000113119)
(7.32247e-05 5.5685e-07 0.0001081)
(5.57887e-05 4.8545e-07 0.000104191)
(3.85799e-05 4.29294e-07 0.000101289)
(2.19564e-05 8.82055e-07 9.962e-05)
(7.26656e-06 1.36328e-06 9.76827e-05)
(0.000162509 1.16567e-06 0.000152044)
(0.000138345 6.61352e-07 0.00014116)
(0.0001162 2.33994e-07 0.000132172)
(9.57604e-05 -1.50482e-07 0.00012484)
(7.66825e-05 -4.52497e-07 0.000118961)
(5.87156e-05 -6.37557e-07 0.000114422)
(4.13252e-05 -6.22715e-07 0.000111044)
(2.43943e-05 -7.22348e-07 0.00010906)
(8.36911e-06 -7.72691e-07 0.000106907)
(0.000166522 3.39963e-06 0.000151827)
(0.00014251 2.10503e-06 0.000140641)
(0.000120367 1.05531e-06 0.000131409)
(9.97521e-05 1.74004e-07 0.000123867)
(8.03258e-05 -4.90163e-07 0.000117817)
(6.19171e-05 -9.6621e-07 0.000113188)
(4.40369e-05 -1.0889e-06 0.000109939)
(2.68453e-05 -1.75426e-06 0.000108639)
(9.74656e-06 -1.53629e-06 0.00010799)
(0.000167102 5.44364e-06 0.000150751)
(0.000143583 3.56876e-06 0.000139499)
(0.000121748 2.0803e-06 0.000130189)
(0.000101293 8.82548e-07 0.000122585)
(8.18964e-05 1.00356e-10 0.000116496)
(6.35427e-05 -6.59677e-07 0.000111962)
(4.55009e-05 -7.99848e-07 0.000108905)
(2.83039e-05 -1.31936e-06 0.000108471)
(1.07584e-05 -5.32631e-08 0.000108063)
(0.000166081 7.14491e-06 0.000150088)
(0.000143133 4.85728e-06 0.000138889)
(0.000121691 3.06225e-06 0.000129589)
(0.000101509 1.63583e-06 0.000121992)
(8.22696e-05 5.53904e-07 0.000115916)
(6.41021e-05 -3.57436e-07 0.000111472)
(4.59931e-05 -4.43003e-07 0.000108421)
(2.87812e-05 -1.69216e-06 0.000108357)
(1.09984e-05 1.37036e-06 0.000107528)
(0.000164033 8.35594e-06 0.000149618)
(0.0001417 5.82082e-06 0.000138554)
(0.000120681 3.85381e-06 0.000129341)
(0.000100786 2.31442e-06 0.000121816)
(8.16188e-05 1.14624e-06 0.000115823)
(6.36632e-05 2.15479e-07 0.000111641)
(4.48076e-05 2.09785e-07 0.000108539)
(2.84808e-05 -5.75003e-07 0.000111313)
(1.20013e-05 3.04057e-06 0.000106964)
(0.000161465 8.97292e-06 0.000149181)
(0.000139795 6.36407e-06 0.00013828)
(0.000119252 4.36683e-06 0.000129181)
(9.97106e-05 2.83586e-06 0.000121734)
(8.0775e-05 1.70028e-06 0.000115785)
(6.30528e-05 9.64936e-07 0.000111625)
(4.42544e-05 9.87525e-07 0.000108332)
(2.82836e-05 1.82532e-06 0.000110932)
(1.20189e-05 4.42935e-06 0.00010545)
(0.000158743 8.94133e-06 0.000148714)
(0.000137743 6.42235e-06 0.00013799)
(0.000117684 4.51369e-06 0.000129016)
(9.84924e-05 3.05968e-06 0.000121651)
(7.98011e-05 1.96352e-06 0.000115752)
(6.22512e-05 1.29371e-06 0.000111609)
(4.35622e-05 1.13007e-06 0.000108271)
(2.7732e-05 2.03095e-06 0.000110801)
(1.17545e-05 3.61638e-06 0.000105114)
(0.000156095 8.2692e-06 0.000148227)
(0.000135717 6.02038e-06 0.000137686)
(0.000116113 4.3395e-06 0.00012884)
(9.72385e-05 3.07766e-06 0.000121555)
(7.87789e-05 2.14289e-06 0.000115716)
(6.13016e-05 1.75423e-06 0.000111604)
(4.27378e-05 1.61353e-06 0.000108428)
(2.67799e-05 4.10233e-06 0.00011111)
(1.11581e-05 4.35689e-06 0.000106332)
(0.000153611 6.99721e-06 0.000147779)
(0.000133756 5.17598e-06 0.000137414)
(0.000114551 3.82615e-06 0.000128696)
(9.59752e-05 2.80724e-06 0.000121484)
(7.78488e-05 2.04239e-06 0.000115669)
(6.04252e-05 1.79128e-06 0.000111355)
(4.28222e-05 1.7313e-06 0.000108236)
(2.61895e-05 4.49013e-06 0.000107862)
(9.6801e-06 4.64847e-06 0.000106311)
(0.000171269 7.04468e-06 0.00015942)
(0.00015119 5.24082e-06 0.000147448)
(0.000131679 3.96107e-06 0.000137282)
(0.000112743 3.01486e-06 0.000128726)
(9.43553e-05 2.27894e-06 0.000121642)
(7.63767e-05 1.69045e-06 0.000115926)
(5.89373e-05 1.42156e-06 0.000111631)
(4.15148e-05 1.43874e-06 0.000108618)
(2.49786e-05 3.1078e-06 0.000107976)
(9.04797e-06 4.21308e-06 0.000106933)
(0.000168497 4.1793e-06 0.000158969)
(0.000148558 3.16035e-06 0.000147262)
(0.000129195 2.47921e-06 0.000137339)
(0.000110426 1.97788e-06 0.000129003)
(9.22069e-05 1.58295e-06 0.000122105)
(7.44152e-05 1.26388e-06 0.00011652)
(5.70428e-05 1.12615e-06 0.00011222)
(3.98752e-05 1.17832e-06 0.000109147)
(2.3406e-05 2.60654e-06 0.000107763)
(8.01686e-06 3.79453e-06 0.000106624)
(0.000164063 1.29493e-06 0.000157213)
(0.000144124 1.00861e-06 0.000145881)
(0.000124907 8.37199e-07 0.000136328)
(0.000106404 7.07687e-07 0.000128349)
(8.85273e-05 6.00597e-07 0.000121765)
(7.11431e-05 5.153e-07 0.000116431)
(5.41954e-05 4.59537e-07 0.000112292)
(3.74868e-05 4.22755e-07 0.000109241)
(2.12942e-05 8.52344e-07 0.000107499)
(7.01269e-06 1.35768e-06 0.000105458)
(0.00015695 1.27111e-06 0.000162092)
(0.000133743 7.91065e-07 0.000150675)
(0.000112419 3.65574e-07 0.000141239)
(9.27002e-05 -2.02829e-08 0.000133542)
(7.42669e-05 -3.21499e-07 0.000127373)
(5.68642e-05 -4.91978e-07 0.000122607)
(4.00162e-05 -4.92559e-07 0.000119064)
(2.35628e-05 -6.18651e-07 0.000116972)
(8.04565e-06 -7.4439e-07 0.000114719)
(0.000160811 3.52097e-06 0.000161857)
(0.00013778 2.28037e-06 0.000150122)
(0.000116477 1.24999e-06 0.000140418)
(9.65925e-05 3.81351e-07 0.000132482)
(7.78139e-05 -2.70543e-07 0.000126105)
(5.99652e-05 -7.12487e-07 0.000121224)
(4.26383e-05 -8.67961e-07 0.000117819)
(2.59073e-05 -1.4485e-06 0.000116461)
(9.33689e-06 -1.43686e-06 0.000115882)
(0.000161366 5.49089e-06 0.000160667)
(0.000138821 3.6868e-06 0.000148858)
(0.000117824 2.23729e-06 0.000139068)
(9.80963e-05 1.06761e-06 0.000131058)
(7.93515e-05 2.03706e-07 0.000124636)
(6.15426e-05 -4.21862e-07 0.000119849)
(4.41052e-05 -6.20922e-07 0.000116662)
(2.72923e-05 -1.04077e-06 0.000116134)
(1.01952e-05 -8.57861e-08 0.000115964)
(0.000160384 7.09143e-06 0.000159922)
(0.000138388 4.88611e-06 0.000148165)
(0.00011777 3.14535e-06 0.00013839)
(9.83088e-05 1.76215e-06 0.000130383)
(7.97229e-05 7.17024e-07 0.000123973)
(6.20783e-05 -1.1266e-07 0.000119277)
(4.46014e-05 -2.56994e-07 0.000116127)
(2.77101e-05 -9.4403e-07 0.000115949)
(1.03864e-05 1.25746e-06 0.000115539)
(0.000158416 8.21064e-06 0.000159403)
(0.000137006 5.76506e-06 0.000147784)
(0.000116799 3.86184e-06 0.0001381)
(9.76206e-05 2.37127e-06 0.00013017)
(7.91481e-05 1.24295e-06 0.000123841)
(6.16964e-05 3.89187e-07 0.000119369)
(4.38027e-05 3.31944e-07 0.000116174)
(2.74726e-05 6.01032e-08 0.000117771)
(1.11378e-05 2.75196e-06 0.000115497)
(0.000155943 8.76184e-06 0.00015893)
(0.000135166 6.24347e-06 0.000147481)
(0.000115414 4.31085e-06 0.000137917)
(9.65759e-05 2.82456e-06 0.00013007)
(7.83302e-05 1.71905e-06 0.000123789)
(6.10866e-05 1.0083e-06 0.000119347)
(4.32553e-05 1.00124e-06 0.000116006)