/*--------------------------------*- C++ -*----------------------------------*\
| =========                 |                                                 |
| \\      /  F ield         | OpenFOAM: The Open Source CFD Toolbox           |
|  \\    /   O peration     | Version:  2.3.1                                 |
|   \\  /    A nd           | Web:      www.OpenFOAM.org                      |
|    \\/     M anipulation  |                                                 |
\*---------------------------------------------------------------------------*/
FoamFile
{
    version     2.0;
    format      ascii;
    class       volScalarField;
    location    "10";
    object      epsilon_0;
}
// * * * * * * * * * * * * * * * * * * * * * * * * * * * * * * * * * * * * * //

dimensions      [0 2 -3 0 0 0 0];

internalField   nonuniform List<scalar> 
37758
(
1.25629e-05
1.36554e-05
1.43108e-05
1.62332e-05
1.74876e-05
1.84251e-05
2.05389e-05
2.17367e-05
2.33739e-05
2.58074e-05
2.70869e-05
2.6631e-05
1.31351e-05
1.52499e-05
1.68852e-05
2.03116e-05
2.34132e-05
2.60472e-05
2.94829e-05
3.37585e-05
3.79496e-05
4.31728e-05
4.58412e-05
4.4814e-05
1.29545e-05
1.54822e-05
1.71361e-05
1.96376e-05
2.33582e-05
2.58139e-05
2.86309e-05
3.38376e-05
3.81755e-05
4.34061e-05
4.64432e-05
4.55999e-05
1.29236e-05
1.5481e-05
1.71672e-05
1.95667e-05
2.33003e-05
2.60484e-05
2.82967e-05
3.34572e-05
3.77822e-05
4.26789e-05
4.61066e-05
4.52714e-05
1.29193e-05
1.54658e-05
1.71743e-05
1.96035e-05
2.33349e-05
2.60725e-05
2.82556e-05
3.33642e-05
3.76625e-05
4.25063e-05
4.60693e-05
4.52162e-05
1.29221e-05
1.54674e-05
1.7155e-05
1.96149e-05
2.33703e-05
2.60826e-05
2.82607e-05
3.33899e-05
3.76291e-05
4.24683e-05
4.60689e-05
4.51877e-05
1.29221e-05
1.54674e-05
1.7155e-05
1.96149e-05
2.33702e-05
2.60826e-05
2.82607e-05
3.33901e-05
3.76295e-05
4.24686e-05
4.60696e-05
4.51886e-05
1.29192e-05
1.54659e-05
1.71744e-05
1.96034e-05
2.33347e-05
2.60724e-05
2.82556e-05
3.33647e-05
3.76637e-05
4.25072e-05
4.60712e-05
4.52186e-05
1.29235e-05
1.54812e-05
1.71673e-05
1.95664e-05
2.33001e-05
2.60484e-05
2.82967e-05
3.3458e-05
3.77839e-05
4.26804e-05
4.61095e-05
4.52752e-05
1.29544e-05
1.54825e-05
1.71362e-05
1.96372e-05
2.33581e-05
2.5814e-05
2.86306e-05
3.38391e-05
3.81776e-05
4.34079e-05
4.64466e-05
4.56043e-05
1.31349e-05
1.52504e-05
1.68851e-05
2.03111e-05
2.34133e-05
2.60472e-05
2.94829e-05
3.37597e-05
3.79514e-05
4.31743e-05
4.58441e-05
4.48182e-05
1.25628e-05
1.36556e-05
1.43109e-05
1.62328e-05
1.74878e-05
1.84249e-05
2.05388e-05
2.17371e-05
2.33737e-05
2.58076e-05
2.70878e-05
2.66327e-05
6.13157e-06
6.53327e-06
6.86979e-06
7.65413e-06
8.20941e-06
8.65901e-06
9.57422e-06
1.15719e-05
1.28897e-05
1.40379e-05
1.43165e-05
1.40334e-05
1.18599e-06
1.92974e-06
2.95541e-06
4.77508e-06
5.82063e-06
7.51636e-06
1.16407e-05
1.52635e-05
1.60538e-05
1.71578e-05
1.89789e-05
2.47888e-05
1.13947e-06
1.87553e-06
2.7554e-06
3.8792e-06
4.70784e-06
6.21772e-06
1.0205e-05
1.52994e-05
1.66756e-05
1.78752e-05
1.96406e-05
2.56498e-05
1.13568e-06
1.86353e-06
2.69287e-06
3.74946e-06
4.53841e-06
5.91027e-06
9.60592e-06
1.46939e-05
1.62845e-05
1.74712e-05
1.93096e-05
2.5895e-05
1.13538e-06
1.84863e-06
2.68311e-06
3.76791e-06
4.57013e-06
5.94216e-06
9.65774e-06
1.46434e-05
1.62724e-05
1.74407e-05
1.93289e-05
2.61637e-05
1.13595e-06
1.84326e-06
2.68123e-06
3.78624e-06
4.6019e-06
5.99764e-06
9.78147e-06
1.47328e-05
1.636e-05
1.74997e-05
1.94034e-05
2.63627e-05
1.13595e-06
1.84325e-06
2.68123e-06
3.78629e-06
4.60199e-06
5.99781e-06
9.78178e-06
1.47338e-05
1.63612e-05
1.75007e-05
1.94041e-05
2.63626e-05
1.13536e-06
1.84862e-06
2.68309e-06
3.76805e-06
4.57042e-06
5.94268e-06
9.65867e-06
1.46466e-05
1.62757e-05
1.74436e-05
1.93308e-05
2.61634e-05
1.13565e-06
1.86352e-06
2.69283e-06
3.74968e-06
4.53883e-06
5.91104e-06
9.60721e-06
1.46987e-05
1.62893e-05
1.74754e-05
1.93124e-05
2.58943e-05
1.13942e-06
1.87552e-06
2.75532e-06
3.87952e-06
4.70844e-06
6.2187e-06
1.02066e-05
1.53049e-05
1.66811e-05
1.788e-05
1.96436e-05
2.56484e-05
1.18592e-06
1.92977e-06
2.95502e-06
4.77544e-06
5.82146e-06
7.51736e-06
1.16421e-05
1.52678e-05
1.60581e-05
1.71615e-05
1.89808e-05
2.47861e-05
6.13155e-06
6.53334e-06
6.86978e-06
7.65403e-06
8.20947e-06
8.65906e-06
9.57406e-06
1.15719e-05
1.28902e-05
1.40386e-05
1.43174e-05
1.40345e-05
6.11578e-06
6.47159e-06
7.2416e-06
8.68578e-06
9.39667e-06
1.07726e-05
1.39734e-05
2.14868e-05
2.46992e-05
2.38442e-05
2.05417e-05
1.66975e-05
1.20494e-06
4.32927e-06
1.24555e-05
2.34036e-05
2.87845e-05
3.72777e-05
5.0503e-05
5.33539e-05
5.11298e-05
4.41408e-05
2.84875e-05
2.42421e-05
1.18627e-06
3.9378e-06
1.04937e-05
1.78587e-05
2.28403e-05
3.20846e-05
5.06504e-05
5.74413e-05
5.52202e-05
4.80019e-05
3.11288e-05
2.60322e-05
1.02934e-06
3.46857e-06
9.61441e-06
1.66362e-05
2.15738e-05
3.03403e-05
4.95293e-05
5.74133e-05
5.51301e-05
4.79938e-05
3.11321e-05
2.64965e-05
9.66277e-07
3.3238e-06
9.55329e-06
1.69438e-05
2.20122e-05
3.0846e-05
5.01377e-05
5.78295e-05
5.5432e-05
4.82167e-05
3.12263e-05
2.68575e-05
9.50882e-07
3.263e-06
9.55305e-06
1.7168e-05
2.2374e-05
3.14294e-05
5.09319e-05
5.82848e-05
5.57646e-05
4.84103e-05
3.12475e-05
2.70569e-05
9.50876e-07
3.26293e-06
9.55301e-06
1.71685e-05
2.23749e-05
3.14309e-05
5.09346e-05
5.82883e-05
5.57682e-05
4.84139e-05
3.12502e-05
2.70579e-05
9.66206e-07
3.32361e-06
9.55324e-06
1.69454e-05
2.2015e-05
3.08505e-05
5.01456e-05
5.78398e-05
5.54423e-05
4.82271e-05
3.12343e-05
2.68603e-05
1.02921e-06
3.46825e-06
9.61427e-06
1.66386e-05
2.15779e-05
3.03469e-05
4.95408e-05
5.74286e-05
5.51456e-05
4.80096e-05
3.11442e-05
2.65007e-05
1.18602e-06
3.93715e-06
1.04932e-05
1.78618e-05
2.28454e-05
3.20924e-05
5.06634e-05
5.74585e-05
5.52379e-05
4.80202e-05
3.1143e-05
2.60372e-05
1.20455e-06
4.32801e-06
1.24531e-05
2.34062e-05
2.87899e-05
3.72839e-05
5.0514e-05
5.33682e-05
5.11444e-05
4.41571e-05
2.84995e-05
2.42458e-05
6.11575e-06
6.47155e-06
7.24133e-06
8.68584e-06
9.3969e-06
1.07728e-05
1.39733e-05
2.14876e-05
2.47032e-05
2.38486e-05
2.05464e-05
1.67001e-05
6.18761e-06
7.35491e-06
1.06675e-05
1.64052e-05
1.80031e-05
2.19782e-05
3.29673e-05
4.57081e-05
4.9582e-05
4.80023e-05
4.07886e-05
2.4982e-05
1.38458e-05
6.32626e-05
0.000110836
0.000128527
0.000125741
0.000116331
0.000107497
9.93798e-05
8.89928e-05
7.54882e-05
5.17284e-05
3.0711e-05
1.50471e-05
6.56945e-05
0.0001082
0.000122111
0.000125897
0.000124188
0.000119258
0.000109688
9.66246e-05
8.11189e-05
5.66379e-05
3.36134e-05
1.21043e-05
6.10443e-05
0.000105647
0.000120328
0.000125928
0.00012654
0.000122588
0.000112485
9.79391e-05
8.20853e-05
5.7311e-05
3.43141e-05
1.0625e-05
5.88245e-05
0.000106819
0.000122512
0.000128231
0.000128579
0.000124356
0.000113562
9.84067e-05
8.2348e-05
5.74079e-05
3.47096e-05
1.02896e-05
5.77735e-05
0.000107395
0.00012377
0.000129914
0.000129891
0.000125388
0.000114043
9.84985e-05
8.23273e-05
5.72771e-05
3.4824e-05
1.02895e-05
5.77723e-05
0.000107396
0.000123773
0.000129917
0.000129894
0.000125391
0.000114045
9.85005e-05
8.23295e-05
5.72805e-05
3.48262e-05
1.06231e-05
5.88207e-05
0.000106822
0.000122519
0.00012824
0.000128587
0.000124363
0.000113567
9.84125e-05
8.23544e-05
5.74175e-05
3.4716e-05
1.21015e-05
6.10384e-05
0.00010565
0.000120338
0.000125942
0.000126553
0.000122599
0.000112493
9.79478e-05
8.20948e-05
5.73259e-05
3.43239e-05
1.50422e-05
6.56868e-05
0.000108202
0.000122123
0.000125913
0.000124202
0.00011927
0.000109698
9.66346e-05
8.11297e-05
5.66556e-05
3.36248e-05
1.38394e-05
6.32482e-05
0.000110833
0.000128536
0.000125753
0.000116345
0.000107509
9.93905e-05
8.90024e-05
7.54991e-05
5.17459e-05
3.07205e-05
6.18728e-06
7.35444e-06
1.06663e-05
1.64056e-05
1.8004e-05
2.19794e-05
3.29693e-05
4.57127e-05
4.95892e-05
4.80104e-05
4.08004e-05
2.49914e-05
8.19331e-06
1.27534e-05
1.88992e-05
2.27536e-05
2.75074e-05
3.54613e-05
4.76705e-05
5.58817e-05
5.62405e-05
5.43433e-05
4.9144e-05
3.4224e-05
0.000189224
0.000225537
0.000217844
0.000186477
0.000153033
0.000128106
0.000109473
9.55159e-05
8.38899e-05
7.25892e-05
5.70574e-05
3.83317e-05
0.000240548
0.000284918
0.000265126
0.000218261
0.000178149
0.000147836
0.00012537
0.000107406
9.28548e-05
7.95777e-05
6.30108e-05
4.25658e-05
0.000256755
0.000301039
0.000279586
0.000229991
0.000187593
0.000155362
0.000130895
0.000111435
9.58508e-05
8.20326e-05
6.48373e-05
4.38237e-05
0.000263854
0.000306711
0.000284344
0.000233493
0.00019055
0.000157817
0.000132863
0.000113051
9.69474e-05
8.2872e-05
6.53258e-05
4.43149e-05
0.000265984
0.000308698
0.000286
0.000234931
0.000191825
0.000158729
0.000133495
0.000113516
9.71903e-05
8.3044e-05
6.53608e-05
4.44166e-05
0.000265985
0.000308699
0.000286002
0.000234932
0.000191825
0.000158729
0.000133495
0.000113516
9.71907e-05
8.30447e-05
6.53625e-05
4.44186e-05
0.000263858
0.000306715
0.000284348
0.000233496
0.000190551
0.000157818
0.000132864
0.000113051
9.69481e-05
8.28739e-05
6.53307e-05
4.43206e-05
0.000256761
0.000301044
0.000279591
0.000229996
0.000187596
0.000155364
0.000130897
0.000111436
9.58518e-05
8.20354e-05
6.48446e-05
4.38323e-05
0.000240555
0.000284924
0.000265132
0.000218268
0.000178153
0.00014784
0.000125373
0.000107406
9.28557e-05
7.95811e-05
6.3019e-05
4.25761e-05
0.000189229
0.000225543
0.000217855
0.000186493
0.000153046
0.000128116
0.000109479
9.55194e-05
8.38919e-05
7.25931e-05
5.70659e-05
3.83416e-05
8.19322e-06
1.27535e-05
1.89007e-05
2.27561e-05
2.75118e-05
3.54675e-05
4.76756e-05
5.5886e-05
5.62448e-05
5.43473e-05
4.91498e-05
3.42354e-05
6.98091e-06
1.07381e-05
1.53007e-05
2.00971e-05
2.64934e-05
3.31062e-05
3.83948e-05
4.22164e-05
4.28183e-05
4.42384e-05
4.45384e-05
3.83446e-05
3.59509e-05
5.87752e-05
7.65899e-05
7.8704e-05
7.68525e-05
7.0918e-05
6.49104e-05
6.13863e-05
5.80433e-05
5.6071e-05
5.18499e-05
4.00528e-05
4.73268e-05
8.40536e-05
0.000100284
9.97695e-05
9.65608e-05
8.91828e-05
8.07945e-05
7.36064e-05
6.80898e-05
6.47423e-05
5.86454e-05
4.45074e-05
5.00278e-05
9.23186e-05
0.000109178
0.000108152
0.000104159
9.63618e-05
8.7367e-05
7.91196e-05
7.27097e-05
6.86984e-05
6.12675e-05
4.62654e-05
5.10441e-05
9.46779e-05
0.00011172
0.000110671
0.000106636
9.91737e-05
9.02048e-05
8.16967e-05
7.4619e-05
7.02228e-05
6.21117e-05
4.70111e-05
5.13194e-05
9.52783e-05
0.000112445
0.000111442
0.000107409
0.000100059
9.11297e-05
8.25965e-05
7.52493e-05
7.07191e-05
6.23423e-05
4.72283e-05
5.13195e-05
9.52783e-05
0.000112445
0.000111441
0.000107407
0.000100058
9.11289e-05
8.25957e-05
7.52488e-05
7.0719e-05
6.23433e-05
4.72299e-05
5.10443e-05
9.46781e-05
0.000111719
0.000110669
0.000106633
9.91709e-05
9.02023e-05
8.16945e-05
7.46173e-05
7.02221e-05
6.21144e-05
4.70156e-05
5.00279e-05
9.23185e-05
0.000109176
0.000108149
0.000104155
9.63578e-05
8.73635e-05
7.91165e-05
7.27072e-05
6.86971e-05
6.12712e-05
4.62721e-05
4.73264e-05
8.40538e-05
0.000100283
9.97673e-05
9.65575e-05
8.91797e-05
8.07915e-05
7.36033e-05
6.80868e-05
6.47399e-05
5.86483e-05
4.45159e-05
3.59495e-05
5.8777e-05
7.65947e-05
7.87086e-05
7.68566e-05
7.09215e-05
6.49119e-05
6.13864e-05
5.80415e-05
5.60689e-05
5.18514e-05
4.00613e-05
6.98087e-06
1.07386e-05
1.53024e-05
2.01005e-05
2.64998e-05
3.31121e-05
3.8397e-05
4.22154e-05
4.2817e-05
4.42376e-05
4.45399e-05
3.83521e-05
6.57885e-06
9.5581e-06
1.29991e-05
1.73461e-05
2.26188e-05
2.69069e-05
2.89106e-05
3.01176e-05
3.14538e-05
3.46791e-05
3.87138e-05
3.67846e-05
1.08864e-05
1.97753e-05
2.86462e-05
3.48831e-05
3.95873e-05
4.09297e-05
4.06921e-05
4.06074e-05
4.07934e-05
4.19486e-05
4.28081e-05
3.88802e-05
1.4022e-05
2.88389e-05
3.92097e-05
4.57658e-05
5.07955e-05
5.21952e-05
5.14381e-05
4.98511e-05
4.91097e-05
4.95944e-05
4.95656e-05
4.37145e-05
1.5134e-05
3.25638e-05
4.40058e-05
5.071e-05
5.57743e-05
5.75665e-05
5.68401e-05
5.48259e-05
5.34082e-05
5.35235e-05
5.29161e-05
4.59714e-05
1.54737e-05
3.36018e-05
4.54677e-05
5.23984e-05
5.76935e-05
6.00575e-05
5.94463e-05
5.73301e-05
5.53262e-05
5.52301e-05
5.43137e-05
4.70154e-05
1.55532e-05
3.37996e-05
4.58171e-05
5.28676e-05
5.8266e-05
6.09272e-05
6.0402e-05
5.83098e-05
5.60541e-05
5.58815e-05
5.48419e-05
4.74302e-05
1.55532e-05
3.37993e-05
4.58165e-05
5.28666e-05
5.82649e-05
6.09262e-05
6.04011e-05
5.83092e-05
5.60536e-05
5.58813e-05
5.48422e-05
4.74314e-05
1.54737e-05
3.36009e-05
4.54658e-05
5.23956e-05
5.76903e-05
6.00547e-05
5.94439e-05
5.73281e-05
5.53248e-05
5.52295e-05
5.43143e-05
4.70186e-05
1.51338e-05
3.25625e-05
4.4003e-05
5.07059e-05
5.577e-05
5.75628e-05
5.68369e-05
5.48231e-05
5.34062e-05
5.35225e-05
5.29164e-05
4.5976e-05
1.40217e-05
2.88375e-05
3.92072e-05
4.57621e-05
5.07917e-05
5.21923e-05
5.14354e-05
4.98484e-05
4.91074e-05
4.95928e-05
4.95653e-05
4.37203e-05
1.0886e-05
1.97749e-05
2.86465e-05
3.4883e-05
3.95877e-05
4.09308e-05
4.06926e-05
4.06068e-05
4.07921e-05
4.19466e-05
4.28079e-05
3.88855e-05
6.57868e-06
9.55849e-06
1.30006e-05
1.73495e-05
2.26227e-05
2.69096e-05
2.89103e-05
3.01144e-05
3.14504e-05
3.46753e-05
3.87128e-05
3.67889e-05
6.57676e-06
8.72185e-06
1.1726e-05
1.57496e-05
1.93758e-05
2.11344e-05
2.09536e-05
2.11977e-05
2.2868e-05
2.75197e-05
3.35812e-05
3.38957e-05
8.03975e-06
1.09827e-05
1.50181e-05
1.99154e-05
2.47762e-05
2.77608e-05
2.90649e-05
2.9918e-05
3.1509e-05
3.49008e-05
3.74445e-05
3.62467e-05
8.75459e-06
1.44146e-05
1.9693e-05
2.51977e-05
3.07991e-05
3.45308e-05
3.60552e-05
3.64563e-05
3.76249e-05
4.07104e-05
4.30827e-05
4.12379e-05
9.08905e-06
1.60989e-05
2.21121e-05
2.79238e-05
3.38704e-05
3.82659e-05
3.99949e-05
4.00889e-05
4.09317e-05
4.38893e-05
4.60469e-05
4.39236e-05
9.19035e-06
1.66492e-05
2.29707e-05
2.8994e-05
3.5209e-05
4.01316e-05
4.2061e-05
4.19593e-05
4.25251e-05
4.53636e-05
4.74763e-05
4.51831e-05
9.21386e-06
1.67704e-05
2.31906e-05
2.93035e-05
3.56373e-05
4.0829e-05
4.29005e-05
4.27326e-05
4.3191e-05
4.59873e-05
4.80929e-05
4.57069e-05
9.21382e-06
1.67701e-05
2.31901e-05
2.93028e-05
3.56364e-05
4.08282e-05
4.29e-05
4.27322e-05
4.31908e-05
4.59873e-05
4.80932e-05
4.57077e-05
9.19025e-06
1.66485e-05
2.29693e-05
2.89919e-05
3.52067e-05
4.01294e-05
4.20594e-05
4.19579e-05
4.25243e-05
4.53636e-05
4.74773e-05
4.51853e-05
9.08886e-06
1.60978e-05
2.211e-05
2.79209e-05
3.38673e-05
3.82631e-05
3.99928e-05
4.00871e-05
4.09306e-05
4.38891e-05
4.60479e-05
4.39265e-05
8.7543e-06
1.44135e-05
1.9691e-05
2.51951e-05
3.07963e-05
3.45287e-05
3.60535e-05
3.64547e-05
3.76237e-05
4.07099e-05
4.30834e-05
4.12406e-05
8.03928e-06
1.09821e-05
1.50176e-05
1.99149e-05
2.47761e-05
2.77613e-05
2.90652e-05
2.99173e-05
3.15081e-05
3.49003e-05
3.74451e-05
3.62494e-05
6.57646e-06
8.72226e-06
1.17278e-05
1.57526e-05
1.93789e-05
2.11363e-05
2.09531e-05
2.11957e-05
2.28646e-05
2.75138e-05
3.35783e-05
3.38963e-05
6.20914e-06
7.95228e-06
1.05347e-05
1.40052e-05
1.63332e-05
1.63338e-05
1.50205e-05
1.53443e-05
1.77818e-05
2.38301e-05
2.97025e-05
3.05696e-05
7.51448e-06
8.39516e-06
1.06457e-05
1.44147e-05
1.84311e-05
2.13553e-05
2.24829e-05
2.36853e-05
2.66227e-05
3.1346e-05
3.38122e-05
3.32482e-05
7.59809e-06
1.00865e-05
1.29704e-05
1.71453e-05
2.19182e-05
2.57601e-05
2.7447e-05
2.85124e-05
3.10164e-05
3.55283e-05
3.83781e-05
3.77382e-05
7.65515e-06
1.09809e-05
1.42901e-05
1.86958e-05
2.38553e-05
2.83323e-05
3.02561e-05
3.10316e-05
3.33033e-05
3.81168e-05
4.11842e-05
4.05245e-05
7.67014e-06
1.13102e-05
1.48163e-05
1.93628e-05
2.47575e-05
2.96676e-05
3.17902e-05
3.23166e-05
3.44252e-05
3.94721e-05
4.27087e-05
4.19786e-05
7.67345e-06
1.13928e-05
1.49645e-05
1.95669e-05
2.50649e-05
3.01969e-05
3.24575e-05
3.28665e-05
3.491e-05
4.00889e-05
4.3418e-05
4.26438e-05
7.6734e-06
1.13926e-05
1.49641e-05
1.95664e-05
2.50643e-05
3.01964e-05
3.24572e-05
3.28663e-05
3.49099e-05
4.00891e-05
4.34184e-05
4.26444e-05
7.67001e-06
1.13097e-05
1.48153e-05
1.93614e-05
2.47559e-05
2.96661e-05
3.17892e-05
3.23157e-05
3.44249e-05
3.94724e-05
4.27096e-05
4.19799e-05
7.65494e-06
1.09801e-05
1.42887e-05
1.86939e-05
2.38531e-05
2.83304e-05
3.02549e-05
3.10305e-05
3.33027e-05
3.8117e-05
4.11853e-05
4.05263e-05
7.59778e-06
1.00857e-05
1.29691e-05
1.71436e-05
2.19164e-05
2.57588e-05
2.74461e-05
2.85114e-05
3.10155e-05
3.55281e-05
3.83788e-05
3.77401e-05
7.51391e-06
8.39464e-06
1.06454e-05
1.44144e-05
1.8431e-05
2.13558e-05
2.24831e-05
2.36845e-05
2.66211e-05
3.13454e-05
3.38127e-05
3.325e-05
6.20867e-06
7.95271e-06
1.05367e-05
1.40082e-05
1.6336e-05
1.6336e-05
1.50203e-05
1.5343e-05
1.77791e-05
2.38256e-05
2.97001e-05
3.05702e-05
6.08213e-06
7.1081e-06
9.42163e-06
1.2558e-05
1.40896e-05
1.37435e-05
1.24469e-05
1.29161e-05
1.58766e-05
2.15525e-05
2.69608e-05
2.77614e-05
7.40631e-06
7.15148e-06
8.76137e-06
1.19472e-05
1.52844e-05
1.74254e-05
1.79544e-05
1.91417e-05
2.2848e-05
2.80166e-05
3.05589e-05
3.06304e-05
7.21758e-06
8.21095e-06
1.0134e-05
1.35634e-05
1.76109e-05
2.07422e-05
2.19005e-05
2.30364e-05
2.63311e-05
3.13574e-05
3.43821e-05
3.47041e-05
7.15795e-06
8.79214e-06
1.09558e-05
1.45355e-05
1.89463e-05
2.26716e-05
2.40958e-05
2.48954e-05
2.8247e-05
3.38784e-05
3.72919e-05
3.76101e-05
7.13292e-06
9.02634e-06
1.13037e-05
1.49671e-05
1.95828e-05
2.36758e-05
2.52912e-05
2.57325e-05
2.91237e-05
3.5279e-05
3.89476e-05
3.91943e-05
7.12536e-06
9.09281e-06
1.14079e-05
1.5103e-05
1.98072e-05
2.4084e-05
2.58265e-05
2.60575e-05
2.94534e-05
3.59258e-05
3.97445e-05
3.99533e-05
7.12531e-06
9.09265e-06
1.14077e-05
1.51027e-05
1.98068e-05
2.40836e-05
2.58263e-05
2.60573e-05
2.94533e-05
3.59259e-05
3.97447e-05
3.99537e-05
7.13276e-06
9.02589e-06
1.13029e-05
1.49661e-05
1.95816e-05
2.36748e-05
2.52907e-05
2.57318e-05
2.91233e-05
3.52791e-05
3.89482e-05
3.91952e-05
7.1577e-06
8.79148e-06
1.09547e-05
1.45342e-05
1.89448e-05
2.26704e-05
2.40952e-05
2.48945e-05
2.82463e-05
3.38782e-05
3.72925e-05
3.76114e-05
7.21723e-06
8.21027e-06
1.01331e-05
1.35622e-05
1.76097e-05
2.07415e-05
2.19001e-05
2.30354e-05
2.63298e-05
3.13565e-05
3.43821e-05
3.47052e-05
7.40564e-06
7.15104e-06
8.76125e-06
1.19472e-05
1.52845e-05
1.74261e-05
1.79546e-05
1.91403e-05
2.28449e-05
2.80143e-05
3.05584e-05
3.06314e-05
6.08156e-06
7.10838e-06
9.42343e-06
1.25608e-05
1.40923e-05
1.37456e-05
1.24475e-05
1.29151e-05
1.58739e-05
2.15484e-05
2.69581e-05
2.77608e-05
5.54251e-06
6.36773e-06
8.42354e-06
1.13168e-05
1.27356e-05
1.24525e-05
1.15678e-05
1.20313e-05
1.47249e-05
1.88651e-05
2.22692e-05
2.23133e-05
6.73787e-06
6.27408e-06
7.75407e-06
1.05835e-05
1.33648e-05
1.49715e-05
1.52615e-05
1.58907e-05
1.91535e-05
2.39347e-05
2.70393e-05
2.80744e-05
6.64718e-06
7.1509e-06
8.73434e-06
1.17795e-05
1.51979e-05
1.77064e-05
1.85812e-05
1.92452e-05
2.23843e-05
2.72007e-05
3.06263e-05
3.17742e-05
6.6018e-06
7.61191e-06
9.32077e-06
1.24726e-05
1.6232e-05
1.92855e-05
2.0455e-05
2.08591e-05
2.42974e-05
2.98407e-05
3.36258e-05
3.44961e-05
6.5825e-06
7.80487e-06
9.57376e-06
1.27758e-05
1.6715e-05
2.00902e-05
2.14341e-05
2.15518e-05
2.5081e-05
3.11759e-05
3.5234e-05
3.58549e-05
6.57774e-06
7.86382e-06
9.65188e-06
1.28695e-05
1.68845e-05
2.04154e-05
2.18653e-05
2.1814e-05
2.53071e-05
3.17432e-05
3.59852e-05
3.65125e-05
6.57768e-06
7.86367e-06
9.65165e-06
1.28692e-05
1.68842e-05
2.04151e-05
2.18652e-05
2.1814e-05
2.53068e-05
3.1743e-05
3.59851e-05
3.65124e-05
6.58234e-06
7.80447e-06
9.57314e-06
1.2775e-05
1.67141e-05
2.00895e-05
2.14339e-05
2.15516e-05
2.50803e-05
3.11753e-05
3.52337e-05
3.58547e-05
6.60154e-06
7.61134e-06
9.31994e-06
1.24716e-05
1.62308e-05
1.92847e-05
2.04547e-05
2.08588e-05
2.42964e-05
2.98396e-05
3.36252e-05
3.44958e-05
6.64681e-06
7.15031e-06
8.73364e-06
1.17786e-05
1.5197e-05
1.7706e-05
1.85812e-05
1.92446e-05
2.23826e-05
2.71989e-05
3.06251e-05
3.17737e-05
6.73718e-06
6.27373e-06
7.75409e-06
1.05836e-05
1.3365e-05
1.49722e-05
1.52621e-05
1.58896e-05
1.91501e-05
2.39313e-05
2.70372e-05
2.80737e-05
5.54167e-06
6.368e-06
8.42532e-06
1.13195e-05
1.2738e-05
1.24543e-05
1.15686e-05
1.20303e-05
1.47219e-05
1.88605e-05
2.22639e-05
2.23092e-05
5.30838e-06
5.5764e-06
7.30115e-06
1.00415e-05
1.16722e-05
1.18558e-05
1.12474e-05
1.11942e-05
1.25617e-05
1.48353e-05
1.64146e-05
1.55482e-05
6.1266e-06
5.44453e-06
6.88153e-06
9.49572e-06
1.20543e-05
1.3521e-05
1.39154e-05
1.42442e-05
1.60306e-05
1.98805e-05
2.29305e-05
2.42181e-05
5.98184e-06
6.19792e-06
7.7202e-06
1.0539e-05
1.36087e-05
1.58962e-05
1.68738e-05
1.73124e-05
1.92161e-05
2.32313e-05
2.63858e-05
2.75085e-05
5.95044e-06
6.6103e-06
8.20035e-06
1.11125e-05
1.44724e-05
1.72495e-05
1.85527e-05
1.8901e-05
2.09269e-05
2.56341e-05
2.89606e-05
2.95768e-05
5.94261e-06
6.78774e-06
8.40837e-06
1.1355e-05
1.4865e-05
1.79198e-05
1.93969e-05
1.96167e-05
2.15238e-05
2.66762e-05
3.01542e-05
3.03839e-05
5.94239e-06
6.8457e-06
8.47375e-06
1.14279e-05
1.49992e-05
1.81842e-05
1.97581e-05
1.99095e-05
2.16755e-05
2.70659e-05
3.06666e-05
3.075e-05
5.94233e-06
6.84557e-06
8.47354e-06
1.14276e-05
1.49989e-05
1.81839e-05
1.9758e-05
1.99095e-05
2.16753e-05
2.70655e-05
3.06662e-05
3.07497e-05
5.94244e-06
6.78736e-06
8.40781e-06
1.13542e-05
1.48642e-05
1.79191e-05
1.93967e-05
1.96168e-05
2.15232e-05
2.66752e-05
3.01531e-05
3.03832e-05
5.95017e-06
6.60977e-06
8.1996e-06
1.11115e-05
1.44714e-05
1.72488e-05
1.85525e-05
1.89011e-05
2.0926e-05
2.56327e-05
2.8959e-05
2.95757e-05
5.98145e-06
6.19739e-06
7.7196e-06
1.05382e-05
1.3608e-05
1.58958e-05
1.68739e-05
1.73125e-05
1.9215e-05
2.32294e-05
2.63839e-05
2.75072e-05
6.12588e-06
5.44423e-06
6.88158e-06
9.49582e-06
1.20545e-05
1.35216e-05
1.39161e-05
1.42442e-05
1.60287e-05
1.98774e-05
2.29279e-05
2.42162e-05
5.30735e-06
5.57643e-06
7.30257e-06
1.00436e-05
1.16742e-05
1.18575e-05
1.12483e-05
1.11942e-05
1.25596e-05
1.4832e-05
1.64107e-05
1.55463e-05
4.82115e-06
4.96043e-06
6.34631e-06
8.65907e-06
1.07943e-05
1.13934e-05
1.10228e-05
1.07736e-05
1.11135e-05
1.1954e-05
1.25334e-05
1.15456e-05
5.29978e-06
4.72131e-06
6.06641e-06
8.46309e-06
1.09199e-05
1.25526e-05
1.32337e-05
1.35574e-05
1.45372e-05
1.69903e-05
1.92382e-05
2.02353e-05
5.20592e-06
5.3587e-06
6.81881e-06
9.44008e-06
1.23088e-05
1.46506e-05
1.59421e-05
1.64408e-05
1.74846e-05
2.00996e-05
2.23785e-05
2.31494e-05
5.19411e-06
5.72044e-06
7.24186e-06
9.95421e-06
1.30617e-05
1.5809e-05
1.74769e-05
1.80461e-05
1.9051e-05
2.20321e-05
2.43552e-05
2.46381e-05
5.19837e-06
5.88337e-06
7.42602e-06
1.01678e-05
1.33945e-05
1.63643e-05
1.82408e-05
1.88243e-05
1.96851e-05
2.28089e-05
2.51869e-05
2.51166e-05
5.20328e-06
5.93943e-06
7.48546e-06
1.02316e-05
1.35045e-05
1.65738e-05
1.85595e-05
1.916e-05
1.99147e-05
2.3094e-05
2.55233e-05
2.53117e-05
5.20322e-06
5.93931e-06
7.48527e-06
1.02314e-05
1.35042e-05
1.65735e-05
1.85593e-05
1.916e-05
1.99147e-05
2.30938e-05
2.5523e-05
2.53116e-05
5.19819e-06
5.88301e-06
7.4255e-06
1.01671e-05
1.33937e-05
1.63635e-05
1.82404e-05
1.88244e-05
1.96853e-05
2.28085e-05
2.51863e-05
2.51166e-05
5.19384e-06
5.71995e-06
7.24117e-06
9.95333e-06
1.30607e-05
1.58081e-05
1.74765e-05
1.80463e-05
1.90511e-05
2.20315e-05
2.43544e-05
2.46379e-05
5.20555e-06
5.35822e-06
6.81826e-06
9.43939e-06
1.2308e-05
1.465e-05
1.59421e-05
1.64411e-05
1.74847e-05
2.00987e-05
2.23776e-05
2.3149e-05
5.29914e-06
4.72106e-06
6.06648e-06
8.4632e-06
1.09199e-05
1.2553e-05
1.32345e-05
1.35579e-05
1.4537e-05
1.69888e-05
1.92367e-05
2.02342e-05
4.81989e-06
4.96035e-06
6.34747e-06
8.66091e-06
1.07956e-05
1.13947e-05
1.10242e-05
1.07744e-05
1.11135e-05
1.19534e-05
1.25328e-05
1.15462e-05
4.51142e-06
4.30828e-06
5.3615e-06
7.16462e-06
9.512e-06
1.06403e-05
1.0839e-05
1.05818e-05
1.06241e-05
1.08593e-05
1.08386e-05
9.87938e-06
4.56046e-06
4.02428e-06
5.23806e-06
7.36032e-06
9.69699e-06
1.15672e-05
1.26865e-05
1.3313e-05
1.41006e-05
1.56206e-05
1.68907e-05
1.72431e-05
4.43127e-06
4.56228e-06
5.92829e-06
8.30971e-06
1.09929e-05
1.33819e-05
1.51055e-05
1.60461e-05
1.68412e-05
1.84158e-05
1.97528e-05
1.98872e-05
4.42531e-06
4.87838e-06
6.3127e-06
8.79001e-06
1.16635e-05
1.43653e-05
1.64795e-05
1.76541e-05
1.84189e-05
2.00511e-05
2.14138e-05
2.10783e-05
4.4368e-06
5.02649e-06
6.48314e-06
8.9905e-06
1.19553e-05
1.48279e-05
1.71613e-05
1.84684e-05
1.91698e-05
2.07612e-05
2.21064e-05
2.14674e-05
4.44518e-06
5.07986e-06
6.54021e-06
9.05187e-06
1.20495e-05
1.4996e-05
1.74358e-05
1.88209e-05
1.94912e-05
2.10496e-05
2.23863e-05
2.16041e-05
4.44513e-06
5.07974e-06
6.54003e-06
9.05163e-06
1.20492e-05
1.49957e-05
1.74355e-05
1.88208e-05
1.94913e-05
2.10496e-05
2.23862e-05
2.16042e-05
4.43664e-06
5.02617e-06
6.48265e-06
8.98985e-06
1.19545e-05
1.4827e-05
1.71606e-05
1.84681e-05
1.917e-05
2.07613e-05
2.21063e-05
2.14675e-05
4.42506e-06
4.87793e-06
6.31206e-06
8.78917e-06
1.16624e-05
1.43642e-05
1.64786e-05
1.76539e-05
1.84192e-05
2.00512e-05
2.14137e-05
2.10784e-05
4.43093e-06
4.56186e-06
5.9278e-06
8.30904e-06
1.0992e-05
1.3381e-05
1.51049e-05
1.60462e-05
1.68416e-05
1.84159e-05
1.97527e-05
1.98872e-05
4.55987e-06
4.02406e-06
5.23813e-06
7.36044e-06
9.69689e-06
1.15671e-05
1.26868e-05
1.33136e-05
1.41009e-05
1.56203e-05
1.68902e-05
1.72428e-05
4.51036e-06
4.30798e-06
5.36245e-06
7.1663e-06
9.51329e-06
1.06415e-05
1.08404e-05
1.05831e-05
1.06253e-05
1.08604e-05
1.08398e-05
9.88116e-06
4.09931e-06
3.80662e-06
4.56863e-06
5.86605e-06
7.76639e-06
9.43561e-06
1.0106e-05
1.02846e-05
1.02611e-05
1.03667e-05
9.92111e-06
8.67075e-06
3.82783e-06
3.40087e-06
4.43682e-06
6.22076e-06
8.32665e-06
1.02739e-05
1.17381e-05
1.27975e-05
1.36955e-05
1.46285e-05
1.52422e-05
1.44735e-05
3.70296e-06
3.83167e-06
5.04687e-06
7.11641e-06
9.53723e-06
1.18781e-05
1.38365e-05
1.5251e-05
1.62537e-05
1.72121e-05
1.78571e-05
1.68389e-05
3.6982e-06
4.09862e-06
5.39411e-06
7.56872e-06
1.01438e-05
1.27215e-05
1.50036e-05
1.66993e-05
1.77932e-05
1.87023e-05
1.92738e-05
1.78409e-05
3.71262e-06
4.22946e-06
5.55316e-06
7.76258e-06
1.04083e-05
1.31146e-05
1.55792e-05
1.74344e-05
1.85592e-05
1.9387e-05
1.98697e-05
1.81915e-05
3.72271e-06
4.27867e-06
5.60884e-06
7.8248e-06
1.04937e-05
1.3253e-05
1.58016e-05
1.77418e-05
1.88887e-05
1.96703e-05
2.01002e-05
1.82983e-05
3.72266e-06
4.27857e-06
5.60868e-06
7.82458e-06
1.04934e-05
1.32526e-05
1.58012e-05
1.77415e-05
1.88885e-05
1.96702e-05
2.01e-05
1.82981e-05
3.71248e-06
4.22918e-06
5.55273e-06
7.76198e-06
1.04075e-05
1.31136e-05
1.55781e-05
1.74335e-05
1.85587e-05
1.93866e-05
1.98693e-05
1.8191e-05
3.69798e-06
4.09823e-06
5.39355e-06
7.56795e-06
1.01428e-05
1.27202e-05
1.50022e-05
1.66981e-05
1.77926e-05
1.87018e-05
1.92731e-05
1.78403e-05
3.70266e-06
3.83131e-06
5.04644e-06
7.11581e-06
9.5363e-06
1.18769e-05
1.38353e-05
1.52501e-05
1.62532e-05
1.72117e-05
1.78565e-05
1.68382e-05
3.82732e-06
3.40069e-06
4.43687e-06
6.22086e-06
8.3265e-06
1.02735e-05
1.17377e-05
1.27973e-05
1.36953e-05
1.4628e-05
1.52416e-05
1.4473e-05
4.0983e-06
3.80607e-06
4.56933e-06
5.86758e-06
7.76762e-06
9.4364e-06
1.01071e-05
1.0286e-05
1.02626e-05
1.03682e-05
9.92274e-06
8.67257e-06
3.77573e-06
3.3497e-06
3.87756e-06
4.79043e-06
6.05226e-06
7.676e-06
8.76781e-06
9.26401e-06
9.44607e-06
9.42337e-06
8.57843e-06
7.15153e-06
3.21613e-06
2.85398e-06
3.68745e-06
5.10058e-06
6.85778e-06
8.67823e-06
1.02498e-05
1.15087e-05
1.24839e-05
1.3025e-05
1.30223e-05
1.14233e-05
3.06519e-06
3.1825e-06
4.2055e-06
5.90509e-06
7.96595e-06
1.01019e-05
1.20488e-05
1.36347e-05
1.47597e-05
1.53579e-05
1.52942e-05
1.34081e-05
3.0549e-06
3.39988e-06
4.51165e-06
6.3246e-06
8.51709e-06
1.08279e-05
1.30188e-05
1.48567e-05
1.60791e-05
1.66789e-05
1.64421e-05
1.42405e-05
3.06846e-06
3.51155e-06
4.65761e-06
6.51154e-06
8.76115e-06
1.11648e-05
1.34938e-05
1.54753e-05
1.67279e-05
1.7304e-05
1.69268e-05
1.45549e-05
3.0786e-06
3.55533e-06
4.71117e-06
6.57509e-06
8.84201e-06
1.12815e-05
1.36712e-05
1.57233e-05
1.6992e-05
1.75548e-05
1.7101e-05
1.46471e-05
3.07856e-06
3.55524e-06
4.71103e-06
6.57489e-06
8.84174e-06
1.12812e-05
1.36708e-05
1.57228e-05
1.69915e-05
1.75543e-05
1.71005e-05
1.46467e-05
3.06835e-06
3.5113e-06
4.65724e-06
6.51102e-06
8.76041e-06
1.11637e-05
1.34925e-05
1.54739e-05
1.67266e-05
1.73028e-05
1.69256e-05
1.45538e-05
3.05473e-06
3.39955e-06
4.51118e-06
6.32393e-06
8.51611e-06
1.08265e-05
1.3017e-05
1.48548e-05
1.60774e-05
1.66773e-05
1.64405e-05
1.42391e-05
3.06494e-06
3.18221e-06
4.20515e-06
5.90458e-06
7.9651e-06
1.01006e-05
1.20471e-05
1.36329e-05
1.47581e-05
1.53563e-05
1.52926e-05
1.34067e-05
3.21569e-06
2.85383e-06
3.6875e-06
5.10067e-06
6.85765e-06
8.67769e-06
1.0249e-05
1.15078e-05
1.24828e-05
1.30239e-05
1.3021e-05
1.14224e-05
3.77481e-06
3.34906e-06
3.87799e-06
4.79152e-06
6.05355e-06
7.67652e-06
8.76839e-06
9.26511e-06
9.44764e-06
9.42469e-06
8.57987e-06
7.15284e-06
3.45921e-06
2.9744e-06
3.30622e-06
3.94498e-06
4.8433e-06
5.90605e-06
6.88655e-06
7.46103e-06
7.71635e-06
7.65439e-06
6.80369e-06
5.51622e-06
2.68897e-06
2.39754e-06
3.03077e-06
4.08079e-06
5.44429e-06
6.95688e-06
8.37913e-06
9.5786e-06
1.03652e-05
1.07149e-05
1.01688e-05
8.35441e-06
2.53169e-06
2.63069e-06
3.44605e-06
4.75631e-06
6.39482e-06
8.18692e-06
9.90778e-06
1.13729e-05
1.22972e-05
1.26906e-05
1.20314e-05
9.92324e-06
2.51515e-06
2.8001e-06
3.70504e-06
5.13035e-06
6.88479e-06
8.81048e-06
1.07076e-05
1.23643e-05
1.33735e-05
1.37685e-05
1.29483e-05
1.06128e-05
2.52573e-06
2.89173e-06
3.83437e-06
5.30508e-06
7.1087e-06
9.10162e-06
1.10975e-05
1.28621e-05
1.39046e-05
1.42833e-05
1.33495e-05
1.08987e-05
2.53474e-06
2.92917e-06
3.8841e-06
5.368e-06
7.18617e-06
9.20328e-06
1.12407e-05
1.30554e-05
1.41134e-05
1.44824e-05
1.34908e-05
1.09892e-05
2.53471e-06
2.9291e-06
3.88398e-06
5.36784e-06
7.18594e-06
9.20293e-06
1.12403e-05
1.30548e-05
1.41128e-05
1.44818e-05
1.34903e-05
1.09888e-05
2.52564e-06
2.89153e-06
3.83407e-06
5.30466e-06
7.10806e-06
9.10066e-06
1.10962e-05
1.28606e-05
1.3903e-05
1.42817e-05
1.3348e-05
1.08975e-05
2.51501e-06
2.79984e-06
3.70466e-06
5.12982e-06
6.88395e-06
8.8092e-06
1.07058e-05
1.23622e-05
1.33713e-05
1.37663e-05
1.29462e-05
1.06111e-05
2.53149e-06
2.63047e-06
3.44578e-06
4.75593e-06
6.39412e-06
8.18572e-06
9.90608e-06
1.13709e-05
1.2295e-05
1.26883e-05
1.20293e-05
9.92158e-06
2.68862e-06
2.39743e-06
3.03081e-06
4.08087e-06
5.4442e-06
6.9564e-06
8.37824e-06
9.57732e-06
1.03636e-05
1.07132e-05
1.01672e-05
8.35333e-06
3.4584e-06
2.97391e-06
3.3065e-06
3.94587e-06
4.84438e-06
5.90677e-06
6.88691e-06
7.46178e-06
7.71751e-06
7.65526e-06
6.80469e-06
5.51708e-06