/*--------------------------------*- C++ -*----------------------------------*\
| =========                 |                                                 |
| \\      /  F ield         | OpenFOAM: The Open Source CFD Toolbox           |
|  \\    /   O peration     | Version:  2.3.1                                 |
|   \\  /    A nd           | Web:      www.OpenFOAM.org                      |
|    \\/     M anipulation  |                                                 |
\*---------------------------------------------------------------------------*/
FoamFile
{
    version     2.0;
    format      ascii;
    class       volScalarField;
    location    "10";
    object      epsilon;
}
// * * * * * * * * * * * * * * * * * * * * * * * * * * * * * * * * * * * * * //

dimensions      [0 2 -3 0 0 0 0];

internalField   nonuniform List<scalar> 
37758
(
1.25625e-05
1.36568e-05
1.43114e-05
1.62313e-05
1.74884e-05
1.84243e-05
2.05378e-05
2.17376e-05
2.33732e-05
2.58062e-05
2.70888e-05
2.66351e-05
1.31343e-05
1.52519e-05
1.6885e-05
2.03098e-05
2.34135e-05
2.60473e-05
2.94823e-05
3.37582e-05
3.79485e-05
4.31725e-05
4.58476e-05
4.48241e-05
1.29537e-05
1.54834e-05
1.71377e-05
1.96359e-05
2.33568e-05
2.5815e-05
2.8629e-05
3.38356e-05
3.8175e-05
4.34062e-05
4.64499e-05
4.56102e-05
1.29229e-05
1.5482e-05
1.71689e-05
1.9565e-05
2.32981e-05
2.605e-05
2.82965e-05
3.34537e-05
3.77822e-05
4.26786e-05
4.61127e-05
4.52814e-05
1.29186e-05
1.54667e-05
1.71759e-05
1.96018e-05
2.33328e-05
2.60743e-05
2.82558e-05
3.33607e-05
3.76627e-05
4.25057e-05
4.60752e-05
4.52262e-05
1.29214e-05
1.54683e-05
1.71565e-05
1.96131e-05
2.33682e-05
2.60845e-05
2.82611e-05
3.33864e-05
3.76294e-05
4.24676e-05
4.60747e-05
4.51979e-05
1.29214e-05
1.54683e-05
1.71565e-05
1.9613e-05
2.33681e-05
2.60845e-05
2.82611e-05
3.33866e-05
3.76298e-05
4.24679e-05
4.60754e-05
4.51987e-05
1.29185e-05
1.54668e-05
1.71759e-05
1.96016e-05
2.33326e-05
2.60743e-05
2.82559e-05
3.33612e-05
3.76638e-05
4.25066e-05
4.60771e-05
4.52287e-05
1.29228e-05
1.54822e-05
1.7169e-05
1.95647e-05
2.32979e-05
2.605e-05
2.82965e-05
3.34546e-05
3.7784e-05
4.26801e-05
4.61156e-05
4.52852e-05
1.29536e-05
1.54837e-05
1.71378e-05
1.96355e-05
2.33567e-05
2.58151e-05
2.86287e-05
3.3837e-05
3.8177e-05
4.3408e-05
4.64533e-05
4.56146e-05
1.31342e-05
1.52524e-05
1.68848e-05
2.03093e-05
2.34136e-05
2.60474e-05
2.94823e-05
3.37593e-05
3.79503e-05
4.3174e-05
4.58505e-05
4.48283e-05
1.25623e-05
1.36571e-05
1.43115e-05
1.62309e-05
1.74885e-05
1.84241e-05
2.05377e-05
2.17379e-05
2.3373e-05
2.58064e-05
2.70897e-05
2.66369e-05
6.13145e-06
6.53373e-06
6.86972e-06
7.65361e-06
8.20987e-06
8.65921e-06
9.57257e-06
1.15701e-05
1.28901e-05
1.40392e-05
1.43189e-05
1.40363e-05
1.18574e-06
1.93034e-06
2.95387e-06
4.77596e-06
5.82267e-06
7.5163e-06
1.16346e-05
1.52629e-05
1.60552e-05
1.71601e-05
1.89797e-05
2.47828e-05
1.13929e-06
1.87595e-06
2.75495e-06
3.88042e-06
4.70932e-06
6.21719e-06
1.01962e-05
1.5297e-05
1.66769e-05
1.78785e-05
1.96422e-05
2.56439e-05
1.13548e-06
1.86387e-06
2.69243e-06
3.75047e-06
4.53979e-06
5.90977e-06
9.59719e-06
1.46916e-05
1.6286e-05
1.74746e-05
1.93109e-05
2.58881e-05
1.13519e-06
1.84894e-06
2.68256e-06
3.76885e-06
4.57153e-06
5.94169e-06
9.64931e-06
1.46414e-05
1.62742e-05
1.74443e-05
1.933e-05
2.61564e-05
1.13577e-06
1.84356e-06
2.68063e-06
3.78715e-06
4.6033e-06
5.99717e-06
9.7732e-06
1.4731e-05
1.63621e-05
1.75033e-05
1.94045e-05
2.63553e-05
1.13576e-06
1.84356e-06
2.68062e-06
3.7872e-06
4.60339e-06
5.99735e-06
9.77352e-06
1.47321e-05
1.63632e-05
1.75043e-05
1.94052e-05
2.63552e-05
1.13517e-06
1.84893e-06
2.68255e-06
3.76899e-06
4.57181e-06
5.94222e-06
9.65023e-06
1.46446e-05
1.62775e-05
1.74471e-05
1.93319e-05
2.61561e-05
1.13545e-06
1.86386e-06
2.6924e-06
3.75069e-06
4.54021e-06
5.91055e-06
9.59847e-06
1.46964e-05
1.62908e-05
1.74789e-05
1.93137e-05
2.58874e-05
1.13924e-06
1.87594e-06
2.75488e-06
3.88074e-06
4.70991e-06
6.21817e-06
1.01977e-05
1.53024e-05
1.66824e-05
1.78833e-05
1.96452e-05
2.56426e-05
1.18567e-06
1.93036e-06
2.95348e-06
4.77632e-06
5.82351e-06
7.5173e-06
1.1636e-05
1.52672e-05
1.60595e-05
1.71638e-05
1.89816e-05
2.47802e-05
6.13142e-06
6.5338e-06
6.8697e-06
7.6535e-06
8.20993e-06
8.65926e-06
9.57241e-06
1.15702e-05
1.28906e-05
1.40399e-05
1.43198e-05
1.40373e-05
6.11593e-06
6.47168e-06
7.24022e-06
8.68658e-06
9.39797e-06
1.07721e-05
1.39655e-05
2.14774e-05
2.47038e-05
2.38522e-05
2.05543e-05
1.67052e-05
1.2053e-06
4.32854e-06
1.24466e-05
2.34088e-05
2.8795e-05
3.72706e-05
5.04891e-05
5.33522e-05
5.11334e-05
4.41599e-05
2.85115e-05
2.4249e-05
1.18673e-06
3.93832e-06
1.04909e-05
1.78692e-05
2.28497e-05
3.20741e-05
5.06275e-05
5.74392e-05
5.52253e-05
4.80212e-05
3.11563e-05
2.60394e-05
1.02945e-06
3.4681e-06
9.61056e-06
1.66454e-05
2.15829e-05
3.03323e-05
4.95022e-05
5.74124e-05
5.51365e-05
4.80132e-05
3.11596e-05
2.65019e-05
9.66181e-07
3.32262e-06
9.54812e-06
1.69524e-05
2.20214e-05
3.0838e-05
5.01115e-05
5.78295e-05
5.54389e-05
4.82362e-05
3.12534e-05
2.68622e-05
9.50806e-07
3.26156e-06
9.54713e-06
1.71763e-05
2.23832e-05
3.14209e-05
5.09069e-05
5.82855e-05
5.57721e-05
4.84301e-05
3.12743e-05
2.70614e-05
9.508e-07
3.26149e-06
9.54709e-06
1.71769e-05
2.23841e-05
3.14224e-05
5.09095e-05
5.82891e-05
5.57756e-05
4.84337e-05
3.1277e-05
2.70623e-05
9.66109e-07
3.32243e-06
9.54807e-06
1.69541e-05
2.20242e-05
3.08426e-05
5.01194e-05
5.78398e-05
5.54493e-05
4.82466e-05
3.12614e-05
2.6865e-05
1.02932e-06
3.46778e-06
9.61042e-06
1.66478e-05
2.15871e-05
3.0339e-05
4.95137e-05
5.74276e-05
5.5152e-05
4.80289e-05
3.11717e-05
2.65061e-05
1.18648e-06
3.93767e-06
1.04905e-05
1.78724e-05
2.28549e-05
3.20819e-05
5.06405e-05
5.74565e-05
5.5243e-05
4.80396e-05
3.11705e-05
2.60444e-05
1.20491e-06
4.32728e-06
1.24441e-05
2.34114e-05
2.88004e-05
3.72768e-05
5.05001e-05
5.33665e-05
5.11481e-05
4.41762e-05
2.85236e-05
2.42528e-05
6.1159e-06
6.47163e-06
7.23994e-06
8.68665e-06
9.3982e-06
1.07723e-05
1.39654e-05
2.14782e-05
2.47077e-05
2.38566e-05
2.0559e-05
1.67079e-05
6.18796e-06
7.35467e-06
1.06602e-05
1.64093e-05
1.80065e-05
2.19735e-05
3.29426e-05
4.5689e-05
4.95808e-05
4.80091e-05
4.08156e-05
2.50094e-05
1.38556e-05
6.32453e-05
0.000110823
0.00012854
0.000125757
0.000116335
0.000107486
9.93677e-05
8.89883e-05
7.55031e-05
5.17666e-05
3.07312e-05
1.50582e-05
6.56879e-05
0.000108202
0.000122146
0.000125906
0.000124186
0.000119248
0.000109678
9.66246e-05
8.11346e-05
5.66769e-05
3.36357e-05
1.21069e-05
6.10305e-05
0.000105642
0.00012036
0.000125936
0.000126531
0.00012258
0.00011248
9.79423e-05
8.2102e-05
5.73502e-05
3.43358e-05
1.06228e-05
5.87978e-05
0.000106808
0.000122542
0.000128238
0.00012857
0.000124349
0.000113559
9.84109e-05
8.23652e-05
5.74468e-05
3.47307e-05
1.02882e-05
5.7742e-05
0.000107381
0.000123799
0.000129921
0.000129884
0.000125383
0.000114041
9.85032e-05
8.23447e-05
5.73159e-05
3.48447e-05
1.02881e-05
5.77408e-05
0.000107381
0.000123801
0.000129924
0.000129887
0.000125385
0.000114043
9.85052e-05
8.2347e-05
5.73192e-05
3.48469e-05
1.0621e-05
5.87939e-05
0.00010681
0.000122549
0.000128248
0.000128579
0.000124356
0.000113565
9.84166e-05
8.23715e-05
5.74564e-05
3.47371e-05
1.21041e-05
6.10245e-05
0.000105645
0.000120371
0.00012595
0.000126544
0.000122591
0.000112489
9.7951e-05
8.21115e-05
5.7365e-05
3.43455e-05
1.50533e-05
6.56802e-05
0.000108204
0.000122159
0.000125922
0.000124201
0.00011926
0.000109688
9.66346e-05
8.11455e-05
5.66945e-05
3.36471e-05
1.38491e-05
6.32309e-05
0.000110819
0.00012855
0.000125769
0.00011635
0.000107498
9.93784e-05
8.89979e-05
7.5514e-05
5.17841e-05
3.07407e-05
6.18763e-06
7.3542e-06
1.06589e-05
1.64098e-05
1.80074e-05
2.19747e-05
3.29446e-05
4.56936e-05
4.9588e-05
4.80172e-05
4.08273e-05
2.50188e-05
8.19343e-06
1.27531e-05
1.88987e-05
2.27534e-05
2.75012e-05
3.54417e-05
4.76447e-05
5.58707e-05
5.62383e-05
5.43488e-05
4.9163e-05
3.42609e-05
0.000189233
0.000225555
0.000217872
0.000186506
0.000153039
0.000128107
0.000109469
9.55095e-05
8.38855e-05
7.25968e-05
5.70786e-05
3.83531e-05
0.000240545
0.00028492
0.000265139
0.000218279
0.00017815
0.000147837
0.000125371
0.000107404
9.28538e-05
7.95853e-05
6.30322e-05
4.25879e-05
0.000256741
0.000301036
0.000279594
0.000230004
0.000187594
0.000155365
0.0001309
0.000111436
9.58514e-05
8.20399e-05
6.48593e-05
4.38454e-05
0.000263845
0.000306708
0.000284352
0.000233505
0.00019055
0.00015782
0.000132868
0.000113052
9.69489e-05
8.28797e-05
6.53482e-05
4.43363e-05
0.000265976
0.000308696
0.000286008
0.000234943
0.000191825
0.000158733
0.0001335
0.000113517
9.71921e-05
8.30519e-05
6.53833e-05
4.44378e-05
0.000265978
0.000308698
0.00028601
0.000234944
0.000191825
0.000158733
0.0001335
0.000113517
9.71925e-05
8.30526e-05
6.5385e-05
4.44397e-05
0.00026385
0.000306712
0.000284356
0.000233508
0.000190551
0.000157821
0.000132869
0.000113052
9.69496e-05
8.28816e-05
6.53531e-05
4.4342e-05
0.000256747
0.000301041
0.000279599
0.000230009
0.000187596
0.000155367
0.000130901
0.000111436
9.58524e-05
8.20426e-05
6.48666e-05
4.38541e-05
0.000240552
0.000284926
0.000265146
0.000218286
0.000178154
0.000147841
0.000125374
0.000107405
9.28546e-05
7.95887e-05
6.30404e-05
4.25982e-05
0.000189238
0.00022556
0.000217884
0.000186522
0.000153052
0.000128117
0.000109475
9.5513e-05
8.38874e-05
7.26006e-05
5.70871e-05
3.83629e-05
8.19334e-06
1.27532e-05
1.89002e-05
2.27559e-05
2.75056e-05
3.5448e-05
4.76497e-05
5.5875e-05
5.62426e-05
5.43529e-05
4.91688e-05
3.42723e-05
6.98021e-06
1.07367e-05
1.52986e-05
2.00933e-05
2.6486e-05
3.30978e-05
3.83859e-05
4.22116e-05
4.28162e-05
4.42386e-05
4.45463e-05
3.83675e-05
3.5951e-05
5.87787e-05
7.65946e-05
7.87061e-05
7.68551e-05
7.09251e-05
6.49117e-05
6.13805e-05
5.80366e-05
5.60667e-05
5.18546e-05
4.00714e-05
4.73263e-05
8.40552e-05
0.000100285
9.97687e-05
9.656e-05
8.91887e-05
8.07993e-05
7.36043e-05
6.80846e-05
6.47382e-05
5.86528e-05
4.45261e-05
5.00234e-05
9.23181e-05
0.000109179
0.000108152
0.000104159
9.63677e-05
8.73724e-05
7.91182e-05
7.27048e-05
6.86952e-05
6.12779e-05
4.62824e-05
5.10387e-05
9.46777e-05
0.000111721
0.000110671
0.000106636
9.91791e-05
9.02099e-05
8.16957e-05
7.46149e-05
7.02204e-05
6.2123e-05
4.70281e-05
5.1314e-05
9.52782e-05
0.000112447
0.000111442
0.000107408
0.000100064
9.11347e-05
8.25956e-05
7.52455e-05
7.07169e-05
6.23538e-05
4.7245e-05
5.13141e-05
9.52783e-05
0.000112446
0.000111442
0.000107407
0.000100063
9.11338e-05
8.25949e-05
7.5245e-05
7.07167e-05
6.23548e-05
4.72466e-05
5.1039e-05
9.46778e-05
0.00011172
0.000110669
0.000106632
9.91764e-05
9.02074e-05
8.16935e-05
7.46132e-05
7.02197e-05
6.21257e-05
4.70325e-05
5.00235e-05
9.23181e-05
0.000109177
0.000108149
0.000104155
9.63637e-05
8.73689e-05
7.9115e-05
7.27023e-05
6.8694e-05
6.12816e-05
4.62891e-05
4.73258e-05
8.40554e-05
0.000100284
9.97666e-05
9.65567e-05
8.91856e-05
8.07963e-05
7.36013e-05
6.80815e-05
6.47358e-05
5.86557e-05
4.45346e-05
3.59496e-05
5.87805e-05
7.65993e-05
7.87108e-05
7.68592e-05
7.09286e-05
6.49132e-05
6.13806e-05
5.80348e-05
5.60646e-05
5.18562e-05
4.00799e-05
6.98017e-06
1.07373e-05
1.53002e-05
2.00967e-05
2.64924e-05
3.31037e-05
3.83881e-05
4.22106e-05
4.28148e-05
4.42378e-05
4.45479e-05
3.83749e-05
6.57801e-06
9.55644e-06
1.29964e-05
1.73419e-05
2.26136e-05
2.69016e-05
2.8905e-05
3.01125e-05
3.14481e-05
3.46715e-05
3.87139e-05
3.67983e-05
1.08851e-05
1.97733e-05
2.86435e-05
3.48803e-05
3.95872e-05
4.09317e-05
4.06912e-05
4.0602e-05
4.07864e-05
4.19406e-05
4.2804e-05
3.88906e-05
1.40204e-05
2.88366e-05
3.92062e-05
4.57619e-05
5.07942e-05
5.21971e-05
5.14394e-05
4.98475e-05
4.91029e-05
4.95873e-05
4.95611e-05
4.37263e-05
1.51321e-05
3.25614e-05
4.40028e-05
5.07068e-05
5.57731e-05
5.7568e-05
5.68413e-05
5.48228e-05
5.34016e-05
5.35169e-05
5.29127e-05
4.59812e-05
1.54719e-05
3.35996e-05
4.54652e-05
5.23956e-05
5.7692e-05
6.00586e-05
5.94474e-05
5.73276e-05
5.53203e-05
5.5224e-05
5.4311e-05
4.70239e-05
1.55514e-05
3.37976e-05
4.58149e-05
5.2865e-05
5.82647e-05
6.09282e-05
6.04029e-05
5.83074e-05
5.60485e-05
5.58756e-05
5.48394e-05
4.74386e-05
1.55514e-05
3.37973e-05
4.58142e-05
5.2864e-05
5.82636e-05
6.09272e-05
6.04021e-05
5.83067e-05
5.60481e-05
5.58754e-05
5.48397e-05
4.74397e-05
1.54718e-05
3.35988e-05
4.54633e-05
5.23927e-05
5.76889e-05
6.00559e-05
5.94449e-05
5.73255e-05
5.53189e-05
5.52233e-05
5.43116e-05
4.7027e-05
1.51319e-05
3.256e-05
4.4e-05
5.07028e-05
5.57687e-05
5.75644e-05
5.68381e-05
5.482e-05
5.33996e-05
5.35159e-05
5.29131e-05
4.59859e-05
1.40201e-05
2.88352e-05
3.92036e-05
4.57582e-05
5.07904e-05
5.21942e-05
5.14367e-05
4.98448e-05
4.91006e-05
4.95858e-05
4.95608e-05
4.37321e-05
1.08847e-05
1.97729e-05
2.86437e-05
3.48802e-05
3.95877e-05
4.09327e-05
4.06917e-05
4.06014e-05
4.0785e-05
4.19387e-05
4.28037e-05
3.8896e-05
6.57785e-06
9.55683e-06
1.29979e-05
1.73453e-05
2.26175e-05
2.69043e-05
2.89047e-05
3.01093e-05
3.14447e-05
3.46677e-05
3.87129e-05
3.68026e-05
6.57592e-06
8.72024e-06
1.17233e-05
1.57456e-05
1.93714e-05
2.11301e-05
2.09486e-05
2.1192e-05
2.28608e-05
2.75091e-05
3.35786e-05
3.39002e-05
8.03801e-06
1.09805e-05
1.50151e-05
1.9912e-05
2.47738e-05
2.77597e-05
2.90623e-05
2.99127e-05
3.15016e-05
3.48916e-05
3.74397e-05
3.62488e-05
8.75277e-06
1.44122e-05
1.96897e-05
2.5194e-05
3.07964e-05
3.45297e-05
3.60536e-05
3.64521e-05
3.76177e-05
4.07007e-05
4.30781e-05
4.12406e-05
9.08726e-06
1.60965e-05
2.21091e-05
2.79204e-05
3.38677e-05
3.82644e-05
3.99935e-05
4.00851e-05
4.09248e-05
4.38795e-05
4.60423e-05
4.39266e-05
9.18864e-06
1.6647e-05
2.2968e-05
2.89908e-05
3.52062e-05
4.01298e-05
4.20597e-05
4.19559e-05
4.25189e-05
4.53541e-05
4.74719e-05
4.51867e-05
9.21218e-06
1.67683e-05
2.3188e-05
2.93005e-05
3.56345e-05
4.08272e-05
4.28992e-05
4.27294e-05
4.31851e-05
4.5978e-05
4.80884e-05
4.57104e-05
9.21215e-06
1.6768e-05
2.31875e-05
2.92998e-05
3.56337e-05
4.08264e-05
4.28986e-05
4.27289e-05
4.31849e-05
4.5978e-05
4.80888e-05
4.57113e-05
9.18853e-06
1.66463e-05
2.29665e-05
2.89888e-05
3.52039e-05
4.01277e-05
4.2058e-05
4.19545e-05
4.25181e-05
4.53541e-05
4.74728e-05
4.51889e-05
9.08707e-06
1.60955e-05
2.2107e-05
2.79175e-05
3.38646e-05
3.82616e-05
3.99913e-05
4.00833e-05
4.09237e-05
4.38793e-05
4.60433e-05
4.39294e-05
8.75248e-06
1.44111e-05
1.96878e-05
2.51914e-05
3.07936e-05
3.45276e-05
3.6052e-05
3.64505e-05
3.76164e-05
4.07001e-05
4.30788e-05
4.12433e-05
8.03753e-06
1.09799e-05
1.50147e-05
1.99115e-05
2.47737e-05
2.77602e-05
2.90626e-05
2.99121e-05
3.15006e-05
3.48911e-05
3.74403e-05
3.62514e-05
6.57563e-06
8.72064e-06
1.1725e-05
1.57486e-05
1.93745e-05
2.11319e-05
2.09481e-05
2.11899e-05
2.28573e-05
2.75033e-05
3.35757e-05
3.39007e-05
6.20844e-06
7.95092e-06
1.05323e-05
1.40014e-05
1.63292e-05
1.63299e-05
1.50166e-05
1.53392e-05
1.77743e-05
2.38205e-05
2.96992e-05
3.05731e-05
7.51278e-06
8.39341e-06
1.06432e-05
1.44114e-05
1.84277e-05
2.13526e-05
2.24798e-05
2.36804e-05
2.66151e-05
3.13387e-05
3.38087e-05
3.3249e-05
7.59635e-06
1.00846e-05
1.29677e-05
1.71419e-05
2.19147e-05
2.57572e-05
2.74442e-05
2.85076e-05
3.10085e-05
3.55198e-05
3.83741e-05
3.77386e-05
7.65345e-06
1.09789e-05
1.42876e-05
1.86926e-05
2.38518e-05
2.83292e-05
3.02536e-05
3.10272e-05
3.32956e-05
3.81075e-05
4.11794e-05
4.05241e-05
7.66849e-06
1.13084e-05
1.48139e-05
1.93597e-05
2.4754e-05
2.96645e-05
3.1788e-05
3.23127e-05
3.44181e-05
3.94624e-05
4.27036e-05
4.1978e-05
7.67182e-06
1.13911e-05
1.49622e-05
1.95639e-05
2.50615e-05
3.01938e-05
3.24554e-05
3.28629e-05
3.49032e-05
4.00792e-05
4.34129e-05
4.26431e-05
7.67177e-06
1.13909e-05
1.49618e-05
1.95634e-05
2.50609e-05
3.01932e-05
3.24551e-05
3.28627e-05
3.49031e-05
4.00793e-05
4.34132e-05
4.26437e-05
7.66836e-06
1.13078e-05
1.48129e-05
1.93583e-05
2.47524e-05
2.9663e-05
3.1787e-05
3.23119e-05
3.44178e-05
3.94628e-05
4.27045e-05
4.19793e-05
7.65324e-06
1.09781e-05
1.42862e-05
1.86906e-05
2.38496e-05
2.83274e-05
3.02524e-05
3.10261e-05
3.32951e-05
3.81077e-05
4.11805e-05
4.0526e-05
7.59604e-06
1.00837e-05
1.29665e-05
1.71402e-05
2.19129e-05
2.57559e-05
2.74434e-05
2.85066e-05
3.10077e-05
3.55196e-05
3.83748e-05
3.77405e-05
7.51221e-06
8.39289e-06
1.06429e-05
1.44111e-05
1.84277e-05
2.13531e-05
2.248e-05
2.36796e-05
2.66134e-05
3.13381e-05
3.38093e-05
3.32509e-05
6.20797e-06
7.95134e-06
1.05342e-05
1.40045e-05
1.6332e-05
1.63321e-05
1.50164e-05
1.53379e-05
1.77716e-05
2.3816e-05
2.96968e-05
3.05737e-05
6.08151e-06
7.10692e-06
9.41943e-06
1.25546e-05
1.4086e-05
1.37402e-05
1.24441e-05
1.29124e-05
1.58704e-05
2.15453e-05
2.69586e-05
2.77669e-05
7.40467e-06
7.15e-06
8.75909e-06
1.19439e-05
1.52808e-05
1.74223e-05
1.79514e-05
1.91373e-05
2.28417e-05
2.80115e-05
3.0556e-05
3.06295e-05
7.21591e-06
8.20928e-06
1.01316e-05
1.356e-05
1.76071e-05
2.07388e-05
2.18974e-05
2.30316e-05
2.6324e-05
3.13507e-05
3.4378e-05
3.47023e-05
7.1563e-06
8.79048e-06
1.09535e-05
1.45323e-05
1.89425e-05
2.2668e-05
2.4093e-05
2.4891e-05
2.82395e-05
3.38705e-05
3.72867e-05
3.76077e-05
7.13131e-06
9.02474e-06
1.13015e-05
1.4964e-05
1.9579e-05
2.36722e-05
2.52887e-05
2.57286e-05
2.91163e-05
3.52708e-05
3.89422e-05
3.9192e-05
7.12377e-06
9.09124e-06
1.14058e-05
1.51e-05
1.98035e-05
2.40804e-05
2.58241e-05
2.60539e-05
2.94462e-05
3.59175e-05
3.9739e-05
3.99511e-05
7.12371e-06
9.09108e-06
1.14055e-05
1.50996e-05
1.98031e-05
2.40801e-05
2.58239e-05
2.60537e-05
2.9446e-05
3.59176e-05
3.97392e-05
3.99515e-05
7.13116e-06
9.02428e-06
1.13007e-05
1.49629e-05
1.95778e-05
2.36712e-05
2.52881e-05
2.5728e-05
2.9116e-05
3.52709e-05
3.89428e-05
3.91929e-05
7.15606e-06
8.78983e-06
1.09525e-05
1.45309e-05
1.89409e-05
2.26668e-05
2.40924e-05
2.48901e-05
2.82388e-05
3.38704e-05
3.72874e-05
3.7609e-05
7.21557e-06
8.2086e-06
1.01307e-05
1.35589e-05
1.76059e-05
2.07381e-05
2.1897e-05
2.30306e-05
2.63226e-05
3.13498e-05
3.4378e-05
3.47034e-05
7.404e-06
7.14956e-06
8.75897e-06
1.19439e-05
1.52809e-05
1.74229e-05
1.79516e-05
1.91359e-05
2.28386e-05
2.80093e-05
3.05555e-05
3.06304e-05
6.08094e-06
7.1072e-06
9.42123e-06
1.25575e-05
1.40887e-05
1.37424e-05
1.24448e-05
1.29114e-05
1.58676e-05
2.15412e-05
2.69559e-05
2.77663e-05
5.54209e-06
6.36673e-06
8.42157e-06
1.13137e-05
1.27324e-05
1.24496e-05
1.15655e-05
1.20284e-05
1.47212e-05
1.88632e-05
2.22719e-05
2.23258e-05
6.73655e-06
6.27285e-06
7.75196e-06
1.05805e-05
1.33613e-05
1.49682e-05
1.52586e-05
1.58871e-05
1.91489e-05
2.39311e-05
2.7037e-05
2.80743e-05
6.64576e-06
7.14951e-06
8.73214e-06
1.17762e-05
1.51941e-05
1.77027e-05
1.85779e-05
1.9241e-05
2.23784e-05
2.71953e-05
3.06223e-05
3.17736e-05
6.60038e-06
7.6105e-06
9.31862e-06
1.24695e-05
1.62281e-05
1.92817e-05
2.04518e-05
2.08552e-05
2.42911e-05
2.98344e-05
3.36212e-05
3.44962e-05
6.5811e-06
7.80349e-06
9.57168e-06
1.27727e-05
1.67112e-05
2.00864e-05
2.14311e-05
2.15482e-05
2.50748e-05
3.11697e-05
3.52297e-05
3.58563e-05
6.57635e-06
7.86246e-06
9.64984e-06
1.28665e-05
1.68807e-05
2.04116e-05
2.18624e-05
2.18107e-05
2.5301e-05
3.17371e-05
3.59812e-05
3.65147e-05
6.57629e-06
7.86232e-06
9.64961e-06
1.28662e-05
1.68804e-05
2.04113e-05
2.18623e-05
2.18107e-05
2.53008e-05
3.17368e-05
3.59811e-05
3.65146e-05
6.58093e-06
7.80309e-06
9.57105e-06
1.27719e-05
1.67103e-05
2.00857e-05
2.14308e-05
2.15481e-05
2.50741e-05
3.1169e-05
3.52294e-05
3.58561e-05
6.60012e-06
7.60993e-06
9.31778e-06
1.24684e-05
1.6227e-05
1.92809e-05
2.04515e-05
2.08549e-05
2.429e-05
2.98334e-05
3.36207e-05
3.44959e-05
6.64539e-06
7.14892e-06
8.73144e-06
1.17754e-05
1.51932e-05
1.77023e-05
1.85779e-05
1.92404e-05
2.23767e-05
2.71935e-05
3.06212e-05
3.17731e-05
6.73586e-06
6.2725e-06
7.75198e-06
1.05806e-05
1.33615e-05
1.49689e-05
1.52592e-05
1.5886e-05
1.91454e-05
2.39276e-05
2.7035e-05
2.80736e-05
5.54125e-06
6.367e-06
8.42335e-06
1.13164e-05
1.27348e-05
1.24515e-05
1.15663e-05
1.20273e-05
1.47183e-05
1.88587e-05
2.22666e-05
2.23218e-05
5.30808e-06
5.57568e-06
7.2996e-06
1.00388e-05
1.16693e-05
1.18532e-05
1.12453e-05
1.11921e-05
1.256e-05
1.48366e-05
1.64192e-05
1.55592e-05
6.12559e-06
5.4435e-06
6.87963e-06
9.49287e-06
1.20509e-05
1.35177e-05
1.39125e-05
1.42413e-05
1.6027e-05
1.98776e-05
2.29299e-05
2.42208e-05
5.98072e-06
6.19675e-06
7.71818e-06
1.05359e-05
1.3605e-05
1.58925e-05
1.68703e-05
1.73086e-05
1.92112e-05
2.3227e-05
2.63837e-05
2.75113e-05
5.94931e-06
6.60909e-06
8.19834e-06
1.11095e-05
1.44687e-05
1.72456e-05
1.85491e-05
1.88972e-05
2.09218e-05
2.56298e-05
2.89586e-05
2.95813e-05
5.94148e-06
6.78655e-06
8.40642e-06
1.1352e-05
1.48613e-05
1.79159e-05
1.93934e-05
1.96131e-05
2.15188e-05
2.66724e-05
3.01528e-05
3.03902e-05
5.94126e-06
6.84453e-06
8.47183e-06
1.1425e-05
1.49956e-05
1.81803e-05
1.97547e-05
1.9906e-05
2.16706e-05
2.70625e-05
3.06656e-05
3.07572e-05
5.9412e-06
6.84439e-06
8.47163e-06
1.14247e-05
1.49953e-05
1.81801e-05
1.97546e-05
1.9906e-05
2.16705e-05
2.70621e-05
3.06651e-05
3.0757e-05
5.9413e-06
6.78617e-06
8.40586e-06
1.13513e-05
1.48605e-05
1.79152e-05
1.93932e-05
1.96132e-05
2.15182e-05
2.66714e-05
3.01517e-05
3.03895e-05
5.94903e-06
6.60856e-06
8.1976e-06
1.11085e-05
1.44676e-05
1.72449e-05
1.85489e-05
1.88973e-05
2.09209e-05
2.56283e-05
2.89571e-05
2.95801e-05
5.98034e-06
6.19622e-06
7.71758e-06
1.05352e-05
1.36043e-05
1.58921e-05
1.68704e-05
1.73087e-05
1.92101e-05
2.32251e-05
2.63819e-05
2.751e-05
6.12487e-06
5.4432e-06
6.87968e-06
9.49298e-06
1.20511e-05
1.35184e-05
1.39133e-05
1.42413e-05
1.6025e-05
1.98745e-05
2.29273e-05
2.42189e-05
5.30705e-06
5.57571e-06
7.30103e-06
1.0041e-05
1.16713e-05
1.18549e-05
1.12462e-05
1.11922e-05
1.25578e-05
1.48333e-05
1.64153e-05
1.55573e-05
4.82094e-06
4.95985e-06
6.3451e-06
8.65694e-06
1.07917e-05
1.13909e-05
1.10207e-05
1.07719e-05
1.11124e-05
1.19547e-05
1.25359e-05
1.15508e-05
5.29908e-06
4.72047e-06
6.06477e-06
8.46056e-06
1.09167e-05
1.25493e-05
1.32307e-05
1.35546e-05
1.45342e-05
1.69874e-05
1.9238e-05
2.02383e-05
5.20511e-06
5.35774e-06
6.81702e-06
9.43735e-06
1.23054e-05
1.46469e-05
1.59384e-05
1.64371e-05
1.74805e-05
2.00957e-05
2.23773e-05
2.31525e-05
5.19327e-06
5.71945e-06
7.24007e-06
9.95148e-06
1.30582e-05
1.58051e-05
1.7473e-05
1.80423e-05
1.90466e-05
2.20286e-05
2.43539e-05
2.46425e-05
5.19752e-06
5.88239e-06
7.42427e-06
1.01651e-05
1.33911e-05
1.63605e-05
1.82369e-05
1.88205e-05
1.96808e-05
2.28058e-05
2.51857e-05
2.5122e-05
5.20244e-06
5.93846e-06
7.48373e-06
1.0229e-05
1.35011e-05
1.657e-05
1.85557e-05
1.91563e-05
1.99104e-05
2.30911e-05
2.55224e-05
2.53175e-05
5.20237e-06
5.93833e-06
7.48354e-06
1.02287e-05
1.35008e-05
1.65697e-05
1.85555e-05
1.91563e-05
1.99105e-05
2.30909e-05
2.55222e-05
2.53175e-05
5.19735e-06
5.88203e-06
7.42374e-06
1.01644e-05
1.33903e-05
1.63597e-05
1.82365e-05
1.88206e-05
1.96809e-05
2.28054e-05
2.51851e-05
2.5122e-05
5.193e-06
5.71896e-06
7.23938e-06
9.95059e-06
1.30572e-05
1.58042e-05
1.74727e-05
1.80424e-05
1.90467e-05
2.20279e-05
2.4353e-05
2.46423e-05
5.20474e-06
5.35726e-06
6.81647e-06
9.43666e-06
1.23046e-05
1.46462e-05
1.59384e-05
1.64374e-05
1.74805e-05
2.00949e-05
2.23763e-05
2.31521e-05
5.29844e-06
4.72023e-06
6.06484e-06
8.46067e-06
1.09168e-05
1.25497e-05
1.32315e-05
1.35551e-05
1.45339e-05
1.69859e-05
1.92365e-05
2.02372e-05
4.81968e-06
4.95976e-06
6.34626e-06
8.65878e-06
1.07931e-05
1.13922e-05
1.10221e-05
1.07728e-05
1.11124e-05
1.19541e-05
1.25353e-05
1.15515e-05
4.51129e-06
4.30787e-06
5.36063e-06
7.16306e-06
9.50968e-06
1.06379e-05
1.08368e-05
1.05803e-05
1.06231e-05
1.08586e-05
1.08394e-05
9.88152e-06
4.56002e-06
4.02363e-06
5.23672e-06
7.3582e-06
9.69419e-06
1.1564e-05
1.26834e-05
1.33101e-05
1.40975e-05
1.56178e-05
1.68897e-05
1.72458e-05
4.43073e-06
4.56153e-06
5.92679e-06
8.30737e-06
1.09899e-05
1.33784e-05
1.51018e-05
1.60423e-05
1.68372e-05
1.84123e-05
1.97508e-05
1.98899e-05
4.42473e-06
4.87759e-06
6.31118e-06
8.78765e-06
1.16604e-05
1.43617e-05
1.64757e-05
1.76502e-05
1.84146e-05
2.00476e-05
2.14116e-05
2.10816e-05
4.43622e-06
5.02572e-06
6.48164e-06
8.98817e-06
1.19522e-05
1.48243e-05
1.71575e-05
1.84645e-05
1.91655e-05
2.07578e-05
2.21045e-05
2.1471e-05
4.4446e-06
5.07909e-06
6.53873e-06
9.04958e-06
1.20465e-05
1.49925e-05
1.7432e-05
1.8817e-05
1.9487e-05
2.10462e-05
2.23846e-05
2.16081e-05
4.44454e-06
5.07897e-06
6.53855e-06
9.04934e-06
1.20462e-05
1.49922e-05
1.74317e-05
1.88169e-05
1.94871e-05
2.10462e-05
2.23845e-05
2.16081e-05
4.43606e-06
5.02539e-06
6.48116e-06
8.98753e-06
1.19514e-05
1.48234e-05
1.71568e-05
1.84642e-05
1.91657e-05
2.07579e-05
2.21044e-05
2.14711e-05
4.42448e-06
4.87715e-06
6.31055e-06
8.78681e-06
1.16594e-05
1.43605e-05
1.64748e-05
1.765e-05
1.84149e-05
2.00477e-05
2.14115e-05
2.10817e-05
4.43039e-06
4.5611e-06
5.9263e-06
8.3067e-06
1.0989e-05
1.33774e-05
1.51012e-05
1.60424e-05
1.68376e-05
1.84124e-05
1.97507e-05
1.98899e-05
4.55944e-06
4.02342e-06
5.23679e-06
7.35832e-06
9.6941e-06
1.1564e-05
1.26837e-05
1.33106e-05
1.40979e-05
1.56175e-05
1.68892e-05
1.72455e-05
4.51024e-06
4.30758e-06
5.36158e-06
7.16474e-06
9.51097e-06
1.06391e-05
1.08382e-05
1.05816e-05
1.06242e-05
1.08597e-05
1.08406e-05
9.8833e-06
4.09926e-06
3.80633e-06
4.56804e-06
5.86502e-06
7.7646e-06
9.43355e-06
1.01041e-05
1.0283e-05
1.02601e-05
1.03661e-05
9.9215e-06
8.67254e-06
3.82759e-06
3.40039e-06
4.43579e-06
6.2191e-06
8.32436e-06
1.02712e-05
1.17352e-05
1.27947e-05
1.36929e-05
1.46267e-05
1.52415e-05
1.4477e-05
3.70264e-06
3.83111e-06
5.04568e-06
7.11453e-06
9.53469e-06
1.18751e-05
1.38332e-05
1.52476e-05
1.62503e-05
1.72096e-05
1.7856e-05
1.68424e-05
3.69785e-06
4.09804e-06
5.3929e-06
7.56681e-06
1.01413e-05
1.27185e-05
1.50002e-05
1.66958e-05
1.77896e-05
1.86997e-05
1.92729e-05
1.78449e-05
3.71226e-06
4.22888e-06
5.55197e-06
7.76069e-06
1.04058e-05
1.31116e-05
1.55759e-05
1.7431e-05
1.85557e-05
1.93845e-05
1.98691e-05
1.81957e-05
3.72235e-06
4.2781e-06
5.60766e-06
7.82294e-06
1.04913e-05
1.325e-05
1.57984e-05
1.77385e-05
1.88853e-05
1.96679e-05
2.00998e-05
1.83026e-05
3.7223e-06
4.278e-06
5.6075e-06
7.82272e-06
1.0491e-05
1.32496e-05
1.5798e-05
1.77382e-05
1.88851e-05
1.96678e-05
2.00996e-05
1.83024e-05
3.71212e-06
4.2286e-06
5.55153e-06
7.7601e-06
1.0405e-05
1.31106e-05
1.55748e-05
1.74301e-05
1.85552e-05
1.93841e-05
1.98687e-05
1.81952e-05
3.69763e-06
4.09765e-06
5.39234e-06
7.56604e-06
1.01402e-05
1.27171e-05
1.49988e-05
1.66946e-05
1.7789e-05
1.86992e-05
1.92722e-05
1.78442e-05
3.70234e-06
3.83075e-06
5.04526e-06
7.11393e-06
9.53377e-06
1.18739e-05
1.38319e-05
1.52467e-05
1.62498e-05
1.72092e-05
1.78553e-05
1.68418e-05
3.82709e-06
3.40021e-06
4.43584e-06
6.21921e-06
8.32421e-06
1.02708e-05
1.17349e-05
1.27945e-05
1.36926e-05
1.46262e-05
1.52409e-05
1.44764e-05
4.09825e-06
3.80578e-06
4.56874e-06
5.86655e-06
7.76583e-06
9.43433e-06
1.01052e-05
1.02844e-05
1.02616e-05
1.03675e-05
9.92313e-06
8.67436e-06
3.77575e-06
3.3495e-06
3.87715e-06
4.78978e-06
6.05124e-06
7.67458e-06
8.76636e-06
9.26285e-06
9.44525e-06
9.42322e-06
8.57941e-06
7.15374e-06
3.21604e-06
2.85365e-06
3.68671e-06
5.0994e-06
6.8561e-06
8.67613e-06
1.02476e-05
1.15066e-05
1.24824e-05
1.3024e-05
1.30234e-05
1.14274e-05
3.06503e-06
3.18211e-06
4.20463e-06
5.9037e-06
7.96403e-06
1.00996e-05
1.20462e-05
1.36321e-05
1.47578e-05
1.53565e-05
1.52953e-05
1.34126e-05
3.05473e-06
3.39947e-06
4.51075e-06
6.32317e-06
8.51515e-06
1.08255e-05
1.30162e-05
1.48541e-05
1.60772e-05
1.66776e-05
1.64435e-05
1.42453e-05
3.06828e-06
3.51115e-06
4.65672e-06
6.51012e-06
8.75925e-06
1.11625e-05
1.34912e-05
1.54728e-05
1.67261e-05
1.73029e-05
1.69284e-05
1.45598e-05
3.07841e-06
3.55493e-06
4.71028e-06
6.57369e-06
8.84013e-06
1.12793e-05
1.36688e-05
1.57209e-05
1.69903e-05
1.75538e-05
1.71027e-05
1.46521e-05
3.07837e-06
3.55484e-06
4.71014e-06
6.57349e-06
8.83986e-06
1.12789e-05
1.36683e-05
1.57204e-05
1.69899e-05
1.75533e-05
1.71023e-05
1.46518e-05
3.06816e-06
3.5109e-06
4.65635e-06
6.5096e-06
8.7585e-06
1.11614e-05
1.34899e-05
1.54715e-05
1.67248e-05
1.73017e-05
1.69272e-05
1.45588e-05
3.05455e-06
3.39915e-06
4.51028e-06
6.3225e-06
8.51416e-06
1.08241e-05
1.30144e-05
1.48522e-05
1.60755e-05
1.66759e-05
1.64418e-05
1.42439e-05
3.06479e-06
3.18182e-06
4.20428e-06
5.90319e-06
7.96318e-06
1.00982e-05
1.20445e-05
1.36304e-05
1.47562e-05
1.53549e-05
1.52936e-05
1.34112e-05
3.21561e-06
2.8535e-06
3.68675e-06
5.09949e-06
6.85596e-06
8.67559e-06
1.02468e-05
1.15056e-05
1.24813e-05
1.30228e-05
1.30221e-05
1.14265e-05
3.77482e-06
3.34886e-06
3.87759e-06
4.79088e-06
6.05253e-06
7.6751e-06
8.76694e-06
9.26395e-06
9.44682e-06
9.42454e-06
8.58085e-06
7.15505e-06
3.45924e-06
2.97424e-06
3.30596e-06
3.9446e-06
4.84274e-06
5.90526e-06
6.88577e-06
7.46062e-06
7.71625e-06
7.65513e-06
6.80528e-06
5.51837e-06
2.68898e-06
2.39732e-06
3.03027e-06
4.08001e-06
5.44318e-06
6.95548e-06
8.37764e-06
9.57729e-06
1.03647e-05
1.07151e-05
1.0171e-05
8.3585e-06
2.53166e-06
2.63044e-06
3.44545e-06
4.75537e-06
6.39352e-06
8.18531e-06
9.90604e-06
1.13714e-05
1.22964e-05
1.26907e-05
1.20339e-05
9.92786e-06
2.5151e-06
2.79984e-06
3.70442e-06
5.12937e-06
6.88346e-06
8.80887e-06
1.07059e-05
1.23628e-05
1.33729e-05
1.37689e-05
1.2951e-05
1.06177e-05
2.52567e-06
2.89147e-06
3.83376e-06
5.30411e-06
7.10739e-06
9.10005e-06
1.10959e-05
1.28607e-05
1.39041e-05
1.42838e-05
1.33524e-05
1.09037e-05
2.53468e-06
2.92893e-06
3.88348e-06
5.36704e-06
7.18489e-06
9.20175e-06
1.12391e-05
1.30541e-05
1.41129e-05
1.4483e-05
1.34938e-05
1.09943e-05
2.53465e-06
2.92885e-06
3.88337e-06
5.36688e-06
7.18465e-06
9.2014e-06
1.12387e-05
1.30535e-05
1.41123e-05
1.44824e-05
1.34933e-05
1.09938e-05
2.52559e-06
2.89128e-06
3.83346e-06
5.30368e-06
7.10675e-06
9.09909e-06
1.10946e-05
1.28591e-05
1.39025e-05
1.42822e-05
1.33509e-05
1.09025e-05
2.51496e-06
2.79959e-06
3.70404e-06
5.12884e-06
6.88262e-06
8.80758e-06
1.07041e-05
1.23607e-05
1.33706e-05
1.37666e-05
1.29489e-05
1.0616e-05
2.53145e-06
2.63022e-06
3.44518e-06
4.75498e-06
6.39281e-06
8.18411e-06
9.90434e-06
1.13693e-05
1.22942e-05
1.26885e-05
1.20318e-05
9.9262e-06
2.68862e-06
2.39721e-06
3.03031e-06
4.08009e-06
5.44309e-06
6.95499e-06
8.37675e-06
9.57602e-06
1.03631e-05
1.07135e-05
1.01695e-05
8.35743e-06
3.45843e-06
2.97376e-06
3.30623e-06
3.94549e-06
4.84382e-06
5.90598e-06
6.88613e-06
7.46137e-06
7.71742e-06
7.656e-06
6.80627e-06
5.51923e-06
3.17159e-06
2.63015e-06
2.84402e-06