/*--------------------------------*- C++ -*----------------------------------*\
| =========                 |                                                 |
| \\      /  F ield         | OpenFOAM: The Open Source CFD Toolbox           |
|  \\    /   O peration     | Version:  2.3.1                                 |
|   \\  /    A nd           | Web:      www.OpenFOAM.org                      |
|    \\/     M anipulation  |                                                 |
\*---------------------------------------------------------------------------*/
FoamFile
{
    version     2.0;
    format      ascii;
    class       volScalarField;
    location    "10";
    object      k;
}
// * * * * * * * * * * * * * * * * * * * * * * * * * * * * * * * * * * * * * //

dimensions      [0 2 -2 0 0 0 0];

internalField   nonuniform List<scalar> 
37758
(
3.14428e-05
3.32468e-05
3.4299e-05
3.72978e-05
3.9204e-05
4.05881e-05
4.36351e-05
4.53213e-05
4.75647e-05
5.08104e-05
5.24844e-05
5.18999e-05
3.23896e-05
3.57883e-05
3.82953e-05
4.33105e-05
4.76211e-05
5.11281e-05
5.55287e-05
6.0776e-05
6.57059e-05
7.16064e-05
7.45423e-05
7.34331e-05
3.20919e-05
3.61479e-05
3.86794e-05
4.23472e-05
4.75416e-05
5.0825e-05
5.44503e-05
6.08668e-05
6.59677e-05
7.18651e-05
7.51939e-05
7.42892e-05
3.20409e-05
3.61454e-05
3.87264e-05
4.22451e-05
4.74608e-05
5.11337e-05
5.40302e-05
6.04062e-05
6.55151e-05
7.10592e-05
7.48289e-05
7.39316e-05
3.20339e-05
3.61216e-05
3.87367e-05
4.2298e-05
4.7508e-05
5.11657e-05
5.39789e-05
6.0294e-05
6.5377e-05
7.08669e-05
7.47881e-05
7.38715e-05
3.20386e-05
3.61241e-05
3.87076e-05
4.23141e-05
4.7556e-05
5.11793e-05
5.39858e-05
6.03251e-05
6.53387e-05
7.08245e-05
7.47876e-05
7.38407e-05
3.20386e-05
3.61241e-05
3.87076e-05
4.2314e-05
4.7556e-05
5.11792e-05
5.39858e-05
6.03254e-05
6.53392e-05
7.08248e-05
7.47884e-05
7.38417e-05
3.20338e-05
3.61217e-05
3.87368e-05
4.22977e-05
4.75078e-05
5.11657e-05
5.3979e-05
6.02947e-05
6.53784e-05
7.0868e-05
7.47902e-05
7.38742e-05
3.20407e-05
3.61457e-05
3.87266e-05
4.22447e-05
4.74606e-05
5.11337e-05
5.40302e-05
6.04072e-05
6.55171e-05
7.10609e-05
7.4832e-05
7.39357e-05
3.20916e-05
3.61483e-05
3.86795e-05
4.23466e-05
4.75414e-05
5.08251e-05
5.44499e-05
6.08685e-05
6.597e-05
7.18671e-05
7.51976e-05
7.4294e-05
3.23893e-05
3.5789e-05
3.8295e-05
4.33098e-05
4.76212e-05
5.11282e-05
5.55287e-05
6.07774e-05
6.5708e-05
7.16081e-05
7.45455e-05
7.34378e-05
3.14426e-05
3.32472e-05
3.42992e-05
3.72971e-05
3.92042e-05
4.05878e-05
4.3635e-05
4.53218e-05
4.75645e-05
5.08105e-05
5.24856e-05
5.19022e-05
3.09413e-05
3.22823e-05
3.33779e-05
3.58696e-05
3.75905e-05
3.89489e-05
4.16361e-05
4.72444e-05
5.07788e-05
5.37559e-05
5.44704e-05
5.37525e-05
3.02047e-05
3.10115e-05
3.31565e-05
3.88111e-05
4.20332e-05
4.6551e-05
5.69136e-05
6.80988e-05
7.06022e-05
7.03656e-05
6.83609e-05
6.80772e-05
3.02546e-05
3.08352e-05
3.2256e-05
3.48465e-05
3.68641e-05
4.09216e-05
5.1184e-05
6.82491e-05
7.34539e-05
7.36504e-05
7.16964e-05
7.1144e-05
3.0094e-05
3.05672e-05
3.18076e-05
3.40224e-05
3.58127e-05
3.94067e-05
4.87028e-05
6.58598e-05
7.1983e-05
7.27652e-05
7.13649e-05
7.16537e-05
3.00639e-05
3.04908e-05
3.16966e-05
3.40256e-05
3.58556e-05
3.94749e-05
4.88721e-05
6.55878e-05
7.19229e-05
7.2986e-05
7.17805e-05
7.22774e-05
3.00566e-05
3.04665e-05
3.16642e-05
3.40843e-05
3.59671e-05
3.96744e-05
4.92967e-05
6.58755e-05
7.22112e-05
7.33105e-05
7.21333e-05
7.26794e-05
3.00566e-05
3.04664e-05
3.16641e-05
3.40844e-05
3.59674e-05
3.9675e-05
4.92977e-05
6.58788e-05
7.2215e-05
7.3314e-05
7.21363e-05
7.26816e-05
3.00639e-05
3.04907e-05
3.16964e-05
3.4026e-05
3.58565e-05
3.94766e-05
4.88751e-05
6.55975e-05
7.1934e-05
7.2996e-05
7.17892e-05
7.22835e-05
3.00939e-05
3.05671e-05
3.18073e-05
3.4023e-05
3.5814e-05
3.94092e-05
4.8707e-05
6.58742e-05
7.19993e-05
7.27803e-05
7.13777e-05
7.16627e-05
3.02542e-05
3.08348e-05
3.22555e-05
3.48475e-05
3.6866e-05
4.09249e-05
5.11893e-05
6.82655e-05
7.34725e-05
7.36678e-05
7.17109e-05
7.11544e-05
3.02044e-05
3.10108e-05
3.31552e-05
3.88113e-05
4.20357e-05
4.65543e-05
5.69188e-05
6.8112e-05
7.06171e-05
7.03801e-05
6.83714e-05
6.80841e-05
3.09412e-05
3.22826e-05
3.33779e-05
3.58692e-05
3.75906e-05
3.89491e-05
4.16357e-05
4.72445e-05
5.078e-05
5.37575e-05
5.44726e-05
5.37551e-05
3.089e-05
3.20764e-05
3.45631e-05
3.90328e-05
4.11372e-05
4.50496e-05
5.3543e-05
7.13439e-05
7.83551e-05
7.65518e-05
6.93357e-05
6.03779e-05
3.45344e-05
4.50153e-05
6.98943e-05
0.00010149
0.000115945
0.000133571
0.000164068
0.000177342
0.000173674
0.000157929
0.000116389
8.22604e-05
3.48579e-05
4.23319e-05
5.94449e-05
7.85499e-05
9.11801e-05
0.000115563
0.000163436
0.000191012
0.000188487
0.000172767
0.00012988
8.89488e-05
3.20673e-05
3.93076e-05
5.55347e-05
7.31034e-05
8.53241e-05
0.000108751
0.000159211
0.000191389
0.00018924
0.000174207
0.000132332
9.07636e-05
3.13359e-05
3.82514e-05
5.48238e-05
7.35995e-05
8.61897e-05
0.000109976
0.000160708
0.000193017
0.000190737
0.000175706
0.000133747
9.19986e-05
3.11925e-05
3.78566e-05
5.46756e-05
7.41641e-05
8.71269e-05
0.000111636
0.000162781
0.000194519
0.000191976
0.000176705
0.000134291
9.25558e-05
3.11925e-05
3.78563e-05
5.46754e-05
7.41653e-05
8.71291e-05
0.000111639
0.000162787
0.000194529
0.000191986
0.000176715
0.000134302
9.25609e-05
3.13352e-05
3.82502e-05
5.48234e-05
7.36033e-05
8.61961e-05
0.000109987
0.000160727
0.000193045
0.000190766
0.000175736
0.000133779
9.20135e-05
3.20654e-05
3.93059e-05
5.55341e-05
7.31094e-05
8.53339e-05
0.000108767
0.000159238
0.00019143
0.000189283
0.000174252
0.000132379
9.07858e-05
3.48536e-05
4.23279e-05
5.94438e-05
7.85578e-05
9.11926e-05
0.000115582
0.000163465
0.000191057
0.000188535
0.000172818
0.000129935
8.89743e-05
3.45269e-05
4.50076e-05
6.98857e-05
0.000101495
0.000115959
0.000133586
0.000164093
0.00017738
0.000173715
0.000157972
0.000116435
8.228e-05
3.08899e-05
3.20762e-05
3.45623e-05
3.9033e-05
4.11379e-05
4.50501e-05
5.35428e-05
7.13458e-05
7.83634e-05
7.65613e-05
6.93463e-05
6.03843e-05
3.11328e-05
3.49303e-05
4.47168e-05
5.96541e-05
6.3462e-05
7.24499e-05
9.48669e-05
0.00011801
0.000124654
0.000122019
0.000109543
7.90502e-05
0.000102679
0.000202462
0.000287822
0.000316501
0.000312816
0.000304028
0.000301721
0.000295938
0.000280439
0.00025058
0.000195004
0.000121794
0.000100869
0.000184739
0.000257088
0.000289771
0.000299399
0.000324031
0.000334766
0.000329971
0.000311942
0.000277425
0.000219048
0.000137061
7.38123e-05
0.000167559
0.000245112
0.000281354
0.000294371
0.000327881
0.000344306
0.000339656
0.000320275
0.00028545
0.000225545
0.000141868
5.79606e-05
0.000162441
0.000246746
0.000285175
0.000298625
0.000333168
0.000349503
0.000344556
0.000324203
0.00028905
0.000227819
0.000144231
5.52e-05
0.000158473
0.00024786
0.000287724
0.000301802
0.000337159
0.000352312
0.000346958
0.000325751
0.000290391
0.000228274
0.000144922
5.51996e-05
0.000158469
0.000247861
0.000287728
0.000301807
0.000337166
0.000352319
0.000346965
0.000325759
0.000290398
0.000228285
0.000144932
5.79422e-05
0.000162433
0.000246751
0.000285188
0.000298641
0.00033319
0.000349524
0.000344577
0.000324226
0.000289071
0.000227851
0.000144259
7.37845e-05
0.000167547
0.000245119
0.000281374
0.000294395
0.000327912
0.000344336
0.000339687
0.000320309
0.000285482
0.000225593
0.000141911
0.000100838
0.000184716
0.000257092
0.000289794
0.000299428
0.000324066
0.000334799
0.000330005
0.000311979
0.00027746
0.000219104
0.000137112
0.000102625
0.00020242
0.000287812
0.000316517
0.00031284
0.000304057
0.00030175
0.000295968
0.000280471
0.000250611
0.000195056
0.000121837
3.11317e-05
3.49288e-05
4.47132e-05
5.96551e-05
6.3464e-05
7.24524e-05
9.48708e-05
0.000118018
0.000124666
0.000122033
0.000109564
7.90703e-05
3.75392e-05
5.04165e-05
6.55315e-05
7.41647e-05
8.41402e-05
9.962e-05
0.000121343
0.000134969
0.000135575
0.000132534
0.000123988
9.75052e-05
0.000276588
0.00036452
0.000400851
0.000387741
0.000364006
0.000350083
0.000335376
0.000318477
0.000292533
0.00026447
0.000224394
0.00015676
0.000325719
0.000451498
0.000451951
0.000435959
0.000412465
0.000400678
0.000385921
0.000364525
0.000334606
0.000302435
0.000256679
0.000179125
0.000337295
0.000473918
0.000472576
0.000453748
0.000430582
0.000420175
0.000404828
0.000381909
0.000350496
0.000317236
0.000267928
0.000186941
0.000343929
0.000483073
0.000481554
0.000461933
0.00043872
0.000428739
0.000412987
0.000389948
0.000357535
0.000323389
0.00027197
0.000190078
0.000346228
0.000486402
0.000485039
0.000465603
0.000442493
0.000432487
0.000416174
0.000393016
0.000360041
0.000325541
0.000273081
0.000190908
0.000346229
0.000486404
0.000485041
0.000465606
0.000442495
0.00043249
0.000416178
0.000393019
0.000360045
0.000325545
0.000273089
0.000190918
0.000343932
0.000483078
0.000481561
0.000461941
0.000438727
0.000428748
0.000412996
0.000389956
0.000357545
0.0003234
0.000271993
0.000190105
0.000337298
0.000473925
0.000472585
0.000453761
0.000430592
0.000420188
0.000404842
0.000381922
0.000350512
0.000317252
0.000267961
0.000186983
0.000325719
0.000451506
0.000451963
0.000435976
0.00041248
0.000400695
0.000385937
0.00036454
0.000334623
0.000302451
0.000256715
0.000179173
0.000276578
0.000364521
0.000400875
0.000387769
0.000364035
0.000350107
0.000335394
0.000318494
0.000292548
0.000264481
0.000224424
0.000156803
3.75389e-05
5.04169e-05
6.55348e-05
7.41702e-05
8.41491e-05
9.96318e-05
0.000121352
0.000134975
0.000135582
0.000132541
0.000123997
9.75268e-05
3.37328e-05
4.49484e-05
5.69151e-05
6.82569e-05
8.20533e-05
9.51976e-05
0.000105087
0.000111967
0.000113039
0.000115533
0.000116082
0.000105113
0.000116227
0.000179162
0.000238033
0.000265375
0.000284045
0.000287327
0.000283105
0.000272929
0.000254958
0.00024152
0.000219607
0.000170312
0.000140937
0.000238425
0.00029336
0.000321864
0.000342931
0.000349394
0.000344215
0.000328815
0.000306467
0.000287114
0.000257728
0.00019724
0.000147352
0.000259207
0.000315599
0.000344308
0.000366613
0.000375293
0.000370065
0.000353528
0.000329114
0.000306505
0.000273077
0.000208071
0.000150289
0.000266574
0.000323807
0.000353115
0.000376244
0.000386697
0.000381746
0.000365353
0.000339144
0.000314606
0.000279064
0.000212297
0.000151374
0.000268956
0.000326659
0.000356412
0.000379863
0.000391013
0.000386129
0.000369877
0.000342848
0.000317542
0.000281087
0.000213578
0.000151374
0.000268956
0.000326659
0.000356411
0.000379862
0.000391013
0.00038613
0.000369877
0.000342849
0.000317544
0.000281092
0.000213586
0.00015029
0.000266575
0.000323807
0.000353113
0.000376242
0.000386697
0.000381746
0.000365354
0.000339146
0.000314612
0.000279077
0.000212319
0.000147352
0.000259208
0.000315599
0.000344306
0.000366611
0.000375294
0.000370067
0.000353529
0.000329117
0.000306512
0.000273096
0.000208104
0.000140936
0.000238426
0.000293362
0.000321864
0.000342931
0.000349397
0.000344218
0.000328818
0.000306469
0.000287119
0.000257746
0.000197278
0.000116223
0.000179166
0.000238046
0.00026539
0.000284059
0.000287339
0.000283115
0.000272935
0.000254959
0.000241516
0.00021962
0.000170349
3.37326e-05
4.495e-05
5.69192e-05
6.82647e-05
8.20664e-05
9.52088e-05
0.000105091
0.000111965
0.000113036
0.000115531
0.000116085
0.000105127
3.24236e-05
4.15893e-05
5.10493e-05
6.18722e-05
7.38494e-05
8.29141e-05
8.69813e-05
8.93885e-05
9.2012e-05
9.81939e-05
0.000105702
0.000102212
7.54051e-05
0.000118819
0.000158844
0.00019101
0.000218285
0.000230292
0.00022884
0.000223393
0.000213829
0.000209949
0.000203862
0.00017353
9.27569e-05
0.000159373
0.000205674
0.00024218
0.000274217
0.000289019
0.00028697
0.000277603
0.000264847
0.000257263
0.00024469
0.000202384
9.90285e-05
0.000176324
0.000226992
0.000265258
0.000299295
0.000316532
0.000314675
0.000303878
0.000288688
0.000279108
0.000262224
0.000214736
0.000101484
0.000182462
0.000235011
0.000274585
0.000310123
0.000329492
0.000328049
0.000316764
0.000299325
0.00028857
0.000269507
0.000219689
0.000102362
0.000184354
0.000237598
0.00027781
0.000313997
0.000334428
0.000333236
0.000321888
0.000303388
0.000292171
0.000272164
0.00022136
0.000102362
0.000184353
0.000237596
0.000277807
0.000313995
0.000334426
0.000333235
0.000321887
0.000303388
0.000292172
0.000272167
0.000221366
0.000101484
0.00018246
0.000235006
0.000274578
0.000310117
0.000329488
0.000328045
0.000316761
0.000299324
0.000288571
0.000269516
0.000219707
9.90283e-05
0.00017632
0.000226985
0.000265248
0.000299286
0.000316526
0.000314671
0.000303873
0.000288686
0.000279109
0.000262235
0.000214762
9.27558e-05
0.000159369
0.000205667
0.000242171
0.000274209
0.000289015
0.000286967
0.000277599
0.000264843
0.000257262
0.0002447
0.000202413
7.54026e-05
0.000118817
0.000158846
0.000191011
0.000218289
0.000230296
0.000228844
0.000223392
0.000213821
0.000209941
0.000203862
0.000173555
3.24231e-05
4.15904e-05
5.10531e-05
6.18802e-05
7.38578e-05
8.29196e-05
8.69807e-05
8.93822e-05
9.20055e-05
9.81867e-05
0.0001057
0.00010222
3.24167e-05
3.9126e-05
4.76574e-05
5.8014e-05
6.66102e-05
7.05844e-05
7.01781e-05
7.07187e-05
7.4382e-05
8.4147e-05
9.61289e-05
9.67559e-05
7.29355e-05
9.76468e-05
0.000122847
0.000150359
0.00017537
0.00018705
0.000185416
0.000180895
0.000180272
0.000185317
0.000186753
0.000169305
8.44887e-05
0.000127827
0.000161038
0.000193093
0.000222721
0.000237234
0.000235517
0.000228486
0.000225087
0.000227272
0.00022531
0.000198844
8.92761e-05
0.000141728
0.00017961
0.00021402
0.000246064
0.000262939
0.000261305
0.000251964
0.000246206
0.000247142
0.000243138
0.000212311
9.13066e-05
0.000147366
0.000187364
0.000223233
0.000256938
0.000275749
0.000274337
0.000263401
0.000255698
0.000256143
0.000251147
0.000218042
9.20862e-05
0.000149255
0.000190002
0.000226509
0.000260968
0.000280835
0.000279603
0.000268039
0.000259402
0.000259715
0.000254327
0.000220171
9.20861e-05
0.000149254
0.00019
0.000226506
0.000260965
0.000280833
0.000279602
0.000268037
0.000259402
0.000259715
0.000254328
0.000220176
9.13064e-05
0.000147363
0.000187358
0.000223225
0.000256931
0.000275743
0.000274332
0.000263396
0.000255695
0.000256143
0.000251151
0.000218055
8.92755e-05
0.000141724
0.000179602
0.00021401
0.000246054
0.000262932
0.000261299
0.000251958
0.000246202
0.000247141
0.000243143
0.000212332
8.44872e-05
0.000127822
0.00016103
0.000193084
0.000222713
0.00023723
0.000235513
0.000228479
0.00022508
0.000227269
0.000225314
0.000198868
7.29321e-05
9.76422e-05
0.000122846
0.000150359
0.000175371
0.000187053
0.000185417
0.000180888
0.000180261
0.000185311
0.000186754
0.000169325
3.24157e-05
3.91273e-05
4.76621e-05
5.80212e-05
6.66173e-05
7.05885e-05
7.01769e-05
7.07142e-05
7.43745e-05
8.41351e-05
9.61234e-05
9.6757e-05
3.11978e-05
3.679e-05
4.43724e-05
5.3646e-05
5.9439e-05
5.94412e-05
5.6209e-05
5.70084e-05
6.28883e-05
7.64447e-05
8.85724e-05
9.03158e-05
7.3432e-05
8.8885e-05
0.000105237
0.000126325
0.000145368
0.000152002
0.000147392
0.000144444
0.000149975
0.00016683
0.000171999
0.000159516
8.36161e-05
0.000114312
0.000136631
0.000161623
0.000184852
0.000194522
0.000190479
0.000185071
0.000188885
0.000202129
0.000205866
0.000189884
8.77586e-05
0.000126342
0.000152664
0.000179907
0.000205587
0.000217484
0.000213493
0.000203904
0.00020686
0.000219396
0.000222434
0.000204686
8.95951e-05
0.000131598
0.000159928
0.000188505
0.00021576
0.000229332
0.000225352
0.000212645
0.000214929
0.000227483
0.000230216
0.000211171
9.03354e-05
0.000133465
0.000162558
0.00019171
0.000219694
0.000234196
0.000230289
0.00021612
0.00021807
0.000230772
0.000233411
0.000213683
9.03353e-05
0.000133464
0.000162556
0.000191707
0.000219691
0.000234194
0.000230287
0.000216119
0.000218068
0.000230772
0.000233412
0.000213686
8.95947e-05
0.000131595
0.000159923
0.000188498
0.000215754
0.000229328
0.000225348
0.00021264
0.000214925
0.000227482
0.000230219
0.00021118
8.77577e-05
0.000126338
0.000152657
0.000179899
0.00020558
0.000217479
0.000213489
0.000203897
0.000206854
0.000219394
0.000222437
0.000204697
8.36144e-05
0.000114307
0.000136625
0.000161617
0.000184847
0.00019452
0.000190478
0.000185062
0.000188877
0.000202125
0.000205868
0.000189896
7.34274e-05
8.88798e-05
0.000105236
0.000126327
0.000145373
0.000152008
0.000147394
0.000144433
0.000149962
0.000166821
0.000171997
0.000159527
3.11962e-05
3.67913e-05
4.43779e-05
5.36538e-05
5.94458e-05
5.94463e-05
5.62086e-05
5.70052e-05
6.2882e-05
7.64351e-05
8.85677e-05
9.0317e-05
3.07713e-05
3.41382e-05
4.11891e-05
4.98835e-05
5.38621e-05
5.29778e-05
4.95921e-05
5.0826e-05
5.83143e-05
7.14997e-05
8.3038e-05
8.4706e-05
7.51895e-05
8.19478e-05
9.33803e-05
0.000110317
0.000123782
0.00012597
0.00011675
0.000113356
0.000125178
0.000148707
0.000156206
0.000147259
8.38997e-05
0.000104731
0.00012052
0.000140314
0.000157526
0.000162428
0.000154317
0.000148474
0.000157791
0.000178786
0.000186459
0.000176466
8.75657e-05
0.000115729
0.000134662
0.000156279
0.000175826
0.000182697
0.000174336
0.000163705
0.000172716
0.00019459
0.000202595
0.000191257
8.92532e-05
0.000120762
0.000141383
0.000164072
0.000185042
0.000193305
0.000184819
0.000169967
0.000178995
0.000201978
0.000210265
0.000197796
8.99533e-05
0.000122633
0.000143928
0.000167079
0.00018871
0.00019774
0.000189332
0.00017218
0.000181187
0.000204911
0.000213449
0.000200406
8.99531e-05
0.000122632
0.000143926
0.000167077
0.000188708
0.000197739
0.000189332
0.000172179
0.000181185
0.00020491
0.000213449
0.000200408
8.92525e-05
0.000120759
0.000141379
0.000164067
0.000185037
0.000193302
0.000184818
0.000169963
0.00017899
0.000201975
0.000210266
0.000197801
8.75645e-05
0.000115725
0.000134657
0.000156273
0.000175822
0.000182695
0.000174336
0.000163699
0.000172709
0.000194586
0.000202596
0.000191264
8.38976e-05
0.000104726
0.000120516
0.000140312
0.000157525
0.000162431
0.000154319
0.000148467
0.000157781
0.000178778
0.000186458
0.000176473
7.51839e-05
8.19424e-05
9.3381e-05
0.000110322
0.00012379
0.00012598
0.000116755
0.000113346
0.000125162
0.000148693
0.000156202
0.000147265
3.07694e-05
3.41391e-05
4.11943e-05
4.9891e-05
5.38691e-05
5.29832e-05
4.95937e-05
5.08233e-05
5.83076e-05
7.14906e-05
8.30325e-05
8.47047e-05
2.89243e-05
3.17249e-05
3.82262e-05
4.65399e-05
5.03538e-05
4.96066e-05
4.723e-05
4.84803e-05
5.547e-05
6.5446e-05
7.31216e-05
7.32619e-05
7.39529e-05
7.69763e-05
8.57861e-05
0.000100313
0.000110076
0.000110444
0.000100624
9.58106e-05
0.000106792
0.000127894
0.000138246
0.00013292
8.24356e-05
9.7797e-05
0.000109847
0.000126653
0.000139929
0.000142505
0.000133378
0.000125201
0.000134283
0.000155157
0.000166137
0.000159333
8.59426e-05
0.000108015
0.000122513
0.000140762
0.000156235
0.000160473
0.000150931
0.000138508
0.00014682
0.000169937
0.000181545
0.000172207
8.75934e-05
0.000112829
0.000128693
0.000147763
0.000164505
0.000169855
0.00016006
0.000143973
0.000151372
0.000176218
0.000188385
0.00017706
8.8287e-05
0.000114673
0.000131099
0.00015052
0.000167843
0.000173791
0.000164018
0.000145932
0.000152534
0.000178432
0.000191048
0.00017882
8.82867e-05
0.000114672
0.000131097
0.000150519
0.000167842
0.000173791
0.000164019
0.000145932
0.000152532
0.00017843
0.000191047
0.000178819
8.75926e-05
0.000112827
0.00012869
0.00014776
0.000164503
0.000169854
0.000160062
0.000143973
0.000151367
0.000176213
0.000188382
0.000177059
8.59412e-05
0.000108012
0.000122509
0.000140758
0.000156234
0.000160475
0.000150935
0.000138508
0.000146812
0.000169928
0.000181541
0.000172205
8.24331e-05
9.77927e-05
0.000109845
0.000126653
0.000139931
0.00014251
0.000133385
0.000125202
0.000134273
0.000155145
0.00016613
0.000159332
7.39468e-05
7.69713e-05
8.57878e-05
0.00010032
0.000110087
0.000110457
0.000100634
9.58103e-05
0.000106776
0.000127878
0.000138237
0.000132919
2.89214e-05
3.17257e-05
3.82316e-05
4.65471e-05
5.03602e-05
4.96115e-05
4.72323e-05
4.84776e-05
5.54626e-05
6.54355e-05
7.31099e-05
7.32531e-05
2.81046e-05
2.90399e-05
3.47514e-05
4.29747e-05
4.75109e-05
4.80094e-05
4.63545e-05
4.62087e-05
4.99022e-05
5.57724e-05
5.96791e-05
5.75937e-05
7.21157e-05
7.17245e-05
7.97618e-05
9.32663e-05
0.000101618
0.00010194
9.41246e-05
8.91082e-05
9.26028e-05
0.000107854
0.000117326
0.000114316
7.98945e-05
9.11219e-05
0.000101932
0.000117553
0.000129272
0.000131579
0.000124193
0.000115067
0.000116625
0.000132122
0.000141987
0.000135576
8.32634e-05
0.000100759
0.00011356
0.000130404
0.000144189
0.000147958
0.000140428
0.0001276
0.000127321
0.000144512
0.000154734
0.000144576
8.48811e-05
0.000105387
0.000119302
0.000136803
0.000151715
0.000156404
0.000148836
0.00013309
0.000131106
0.000149
0.000159492
0.000146886
8.55638e-05
0.000107196
0.000121574
0.000139346
0.00015476
0.000159932
0.000152476
0.000135233
0.000132106
0.000150265
0.000161021
0.00014746
8.55635e-05
0.000107196
0.000121573
0.000139344
0.00015476
0.000159932
0.000152477
0.000135234
0.000132106
0.000150263
0.000161018
0.000147459
8.48802e-05
0.000105385
0.000119299
0.0001368
0.000151714
0.000156404
0.000148839
0.000133093
0.000131105
0.000148994
0.000159486
0.000146883
8.32617e-05
0.000100756
0.000113556
0.000130402
0.000144189
0.000147961
0.000140434
0.000127605
0.000127318
0.000144503
0.000154726
0.000144571
7.98916e-05
9.11178e-05
0.00010193
0.000117553
0.000129276
0.000131586
0.000124203
0.000115073
0.000116621
0.000132112
0.000141977
0.000135572
7.21093e-05
7.17193e-05
7.97637e-05
9.32745e-05
0.00010163
0.000101954
9.4138e-05
8.91135e-05
9.25964e-05
0.000107842
0.000117316
0.000114312
2.8101e-05
2.904e-05
3.47559e-05
4.29809e-05
4.75162e-05
4.80141e-05
4.6357e-05
4.62088e-05
4.98966e-05
5.57642e-05
5.96697e-05
5.75888e-05
2.63579e-05
2.68604e-05
3.16522e-05
3.89348e-05
4.50981e-05
4.67527e-05
4.57351e-05
4.50457e-05
4.59915e-05
4.82925e-05
4.98503e-05
4.72117e-05
6.84971e-05
6.69321e-05
7.45383e-05
8.72044e-05
9.58783e-05
9.7468e-05
9.25197e-05
8.7593e-05
8.70275e-05
9.43477e-05
0.000100247
9.90269e-05
7.61254e-05
8.48872e-05
9.52184e-05
0.000110305
0.000122104
0.000125592
0.000121258
0.000111964
0.000108792
0.000114651
0.000120517
0.000115687
7.93979e-05
9.39514e-05
0.000106085
0.000122383
0.000136033
0.000140883
0.000136842
0.000124352
0.000118925
0.000124529
0.000130283
0.000122467
8.09871e-05
9.83736e-05
0.000111495
0.00012839
0.000143031
0.00014871
0.000144896
0.000130215
0.000123067
0.0001281
0.000133704
0.00012435
8.16608e-05
0.00010013
0.00011366
0.000130787
0.000145858
0.000151966
0.000148347
0.000132688
0.000124576
0.000129173
0.000134771
0.000124926
8.16605e-05
0.000100129
0.000113659
0.000130786
0.000145857
0.000151966
0.000148348
0.00013269
0.000124577
0.000129173
0.00013477
0.000124926
8.09861e-05
9.83711e-05
0.000111492
0.000128388
0.00014303
0.00014871
0.000144899
0.00013022
0.00012307
0.000128099
0.000133702
0.000124352
7.93961e-05
9.39479e-05
0.000106081
0.000122381
0.000136033
0.000140885
0.000136848
0.000124359
0.000118929
0.000124527
0.000130279
0.000122469
7.61224e-05
8.48831e-05
9.52164e-05
0.000110306
0.000122108
0.000125598
0.000121267
0.000111972
0.000108796
0.000114649
0.000120513
0.000115689
6.84914e-05
6.69273e-05
7.454e-05
8.72127e-05
9.58907e-05
9.74821e-05
9.25341e-05
8.76008e-05
8.70311e-05
9.4345e-05
0.000100243
9.90278e-05
2.63533e-05
2.68601e-05
3.16561e-05
3.89403e-05
4.51019e-05
4.67563e-05
4.57391e-05
4.50481e-05
4.59915e-05
4.82909e-05
4.98486e-05
4.72135e-05
2.52171e-05
2.44521e-05
2.82877e-05
3.43165e-05
4.14514e-05
4.46688e-05
4.52247e-05
4.45101e-05
4.46312e-05
4.52899e-05
4.52408e-05
4.25387e-05
6.45615e-05
6.18269e-05
6.90866e-05
8.08387e-05
9.06388e-05
9.4305e-05
9.30817e-05
8.9956e-05
8.82811e-05
9.05103e-05
9.30934e-05
9.29159e-05
7.16673e-05
7.85247e-05
8.86059e-05
0.00010307
0.000115645
0.000121168
0.000120547
0.000113924
0.000108781
0.000108649
0.000110621
0.000108042
7.4799e-05
8.70533e-05
9.88803e-05
0.000114629
0.000128771
0.000135597
0.000135606
0.000127607
0.000119517
0.000118185
0.000119479
0.000114955
7.63438e-05
9.12665e-05
0.000104035
0.000120392
0.000135349
0.000142995
0.000143408
0.000134786
0.000124714
0.000122413
0.000123217
0.000117773
7.70027e-05
9.29607e-05
0.000106118
0.000122706
0.000137992
0.00014607
0.000146721
0.000137985
0.000126952
0.000124099
0.000124694
0.000118893
7.70023e-05
9.29598e-05
0.000106117
0.000122705
0.000137992
0.00014607
0.000146722
0.000137987
0.000126954
0.000124101
0.000124695
0.000118895
7.63427e-05
9.1264e-05
0.000104033
0.00012039
0.000135347
0.000142995
0.00014341
0.000134791
0.00012472
0.000122417
0.00012322
0.000117778
7.47971e-05
8.70497e-05
9.8877e-05
0.000114627
0.00012877
0.000135599
0.00013561
0.000127616
0.000119525
0.000118191
0.000119483
0.000114961
7.16642e-05
7.85206e-05
8.86039e-05
0.00010307
0.000115648
0.000121173
0.000120555
0.000113935
0.00010879
0.000108656
0.000110625
0.000108049
6.45559e-05
6.18223e-05
6.90878e-05
8.08463e-05
9.06499e-05
9.43176e-05
9.30953e-05
8.99673e-05
8.82903e-05
9.05152e-05
9.30972e-05
9.29217e-05
2.52132e-05
2.4451e-05
2.82911e-05
3.43219e-05
4.14552e-05
4.46721e-05
4.52285e-05
4.45139e-05
4.46345e-05
4.5293e-05
4.52441e-05
4.25438e-05
2.36575e-05
2.25157e-05
2.54263e-05
3.00352e-05
3.62115e-05
4.12307e-05
4.3163e-05
4.36717e-05
4.36086e-05
4.39097e-05
4.26481e-05
3.89939e-05
5.9962e-05
5.68098e-05
6.35685e-05
7.40907e-05
8.4252e-05
9.06534e-05
9.28537e-05
9.25414e-05
9.18533e-05
9.1649e-05
9.25324e-05
9.11601e-05
6.67796e-05
7.21391e-05
8.17898e-05
9.52784e-05
0.000107996
0.000116165
0.000118789
0.0001167
0.000112453
0.000110026
0.000109834
0.000106965
6.97564e-05
8.0093e-05
9.14976e-05
0.000106377
0.000120379
0.000129776
0.00013304
0.000130605
0.000124569
0.000120182
0.000119006
0.000114556
7.12407e-05
8.40737e-05
9.64194e-05
0.000111954
0.00012661
0.00013675
0.000140475
0.000137987
0.00013092
0.000125124
0.000123223
0.000118028
7.18784e-05
8.56931e-05
9.8428e-05
0.00011421
0.000129125
0.000139622
0.000143611
0.000141231
0.000133767
0.000127265
0.000124973
0.000119468
7.1878e-05
8.56922e-05
9.84269e-05
0.000114209
0.000129124
0.000139621
0.000143611
0.000141232
0.000133768
0.000127267
0.000124975
0.000119469
7.12397e-05
8.40712e-05
9.64167e-05
0.000111952
0.000126608
0.000136749
0.000140474
0.00013799
0.000130925
0.000125129
0.000123227
0.000118032
6.97545e-05
8.00894e-05
9.14943e-05
0.000106375
0.000120378
0.000129776
0.000133041
0.000130611
0.000124577
0.00012019
0.000119012
0.000114562
6.67766e-05
7.21351e-05
8.17877e-05
9.52788e-05
0.000107998
0.000116168
0.000118794
0.000116709
0.000112463
0.000110035
0.000109841
0.000106972
5.99566e-05
5.68058e-05
6.35691e-05
7.40972e-05
8.42615e-05
9.06637e-05
9.28643e-05
9.25517e-05
9.18618e-05
9.16563e-05
9.25382e-05
9.11659e-05
2.36536e-05
2.25135e-05
2.54289e-05
3.00404e-05
3.62153e-05
4.12329e-05
4.31662e-05
4.36758e-05
4.3613e-05
4.39138e-05
4.26528e-05
3.89993e-05
2.23961e-05
2.06763e-05
2.27936e-05
2.62425e-05
3.06677e-05
3.59322e-05
3.92644e-05
4.07344e-05
4.12685e-05
4.12064e-05
3.87117e-05
3.42993e-05
5.54815e-05
5.17837e-05
5.7876e-05
6.70727e-05
7.64719e-05
8.44638e-05
8.97337e-05
9.24007e-05
9.3279e-05
9.2739e-05
9.18668e-05
8.79456e-05
6.17977e-05
6.58314e-05
7.47856e-05
8.69235e-05
9.88645e-05
0.000108676
0.000114277
0.000115988
0.000114897
0.000112236
0.000109922
0.000105128
6.45871e-05
7.31918e-05
8.39054e-05
9.748e-05
0.000110614
0.000121411
0.000127673
0.00012946
0.000127509
0.000123288
0.000119587
0.000113571
6.59944e-05
7.69173e-05
8.85817e-05
0.000102846
0.000116567
0.000127932
0.000134691
0.000136611
0.000134217
0.000128947
0.000124351
0.000117509
6.66035e-05
7.84493e-05
9.05102e-05
0.000105039
0.000118984
0.000130599
0.00013764
0.000139689
0.00013718
0.000131425
0.000126398
0.00011912
6.66032e-05
7.84485e-05
9.05092e-05
0.000105038
0.000118983
0.000130598
0.000137639
0.000139688
0.00013718
0.000131425
0.000126398
0.000119121
6.59934e-05
7.6915e-05
8.8579e-05
0.000102844
0.000116564
0.00012793
0.000134688
0.00013661
0.000134218
0.000128949
0.000124353
0.000117511
6.45853e-05
7.31884e-05
8.39022e-05
9.74778e-05
0.000110612
0.000121408
0.000127672
0.00012946
0.000127512
0.000123292
0.000119591
0.000113574
6.17948e-05
6.58277e-05
7.47835e-05
8.69236e-05
9.88654e-05
0.000108676
0.000114278
0.00011599
0.000114902
0.000112242
0.000109927
0.000105132
5.54764e-05
5.17801e-05
5.78762e-05
6.70783e-05
7.64802e-05
8.44719e-05
8.97409e-05
9.24069e-05
9.32847e-05
9.27442e-05
9.18713e-05
8.79487e-05
2.23924e-05
2.06736e-05
2.27953e-05
2.62466e-05
3.06721e-05
3.59338e-05
3.92662e-05
4.07376e-05
4.12731e-05
4.12102e-05
3.87161e-05
3.43035e-05
2.11264e-05
1.91017e-05
2.04964e-05
2.30573e-05
2.6436e-05
3.01732e-05
3.34275e-05
3.52644e-05
3.60665e-05
3.58785e-05
3.31745e-05
2.8851e-05
5.09789e-05
4.70117e-05
5.22811e-05
5.99387e-05
6.82284e-05
7.61635e-05
8.26612e-05
8.75304e-05
8.98805e-05
9.01505e-05
8.76954e-05
8.0051e-05
5.69216e-05
5.97835e-05
6.78034e-05
7.82355e-05
8.88776e-05
9.85926e-05
0.000106016
0.000110169
0.000111682
0.000110256
0.000106721
9.87592e-05
5.95234e-05
6.65371e-05
7.62932e-05
8.81561e-05
9.98933e-05
0.000110477
0.000118575
0.000122806
0.000124077
0.000121488
0.000116748
0.000108021
6.08443e-05
6.99903e-05
8.06983e-05
9.32693e-05
0.000105536
0.00011659
0.000125142
0.000129508
0.000130657
0.0001273
0.000121748
0.000112467
6.1419e-05
7.14243e-05
8.25345e-05
9.53831e-05
0.000107847
0.000119094
0.00012788
0.000132365
0.000133501
0.000129808
0.000123854
0.000114271
6.14187e-05
7.14236e-05
8.25336e-05
9.53823e-05
0.000107846
0.000119093
0.000127878
0.000132363
0.0001335
0.000129808
0.000123854
0.00011427
6.08434e-05
6.99881e-05
8.06959e-05
9.32672e-05
0.000105533
0.000116587
0.000125138
0.000129504
0.000130655
0.000127299
0.000121747
0.000112465
5.95217e-05
6.6534e-05
7.62903e-05
8.8154e-05
9.98911e-05
0.000110473
0.000118571
0.000122802
0.000124074
0.000121488
0.000116748
0.000108018
5.69187e-05
5.97801e-05
6.78013e-05
7.82355e-05
8.88782e-05
9.85919e-05
0.000106014
0.000110167
0.000111681
0.000110256
0.000106721
9.87557e-05
5.09741e-05
4.70084e-05
5.2281e-05
5.99432e-05
6.82356e-05
7.61703e-05
8.26662e-05
8.75327e-05
8.98816e-05
9.01518e-05
8.76956e-05
8.0049e-05
2.11231e-05
1.90996e-05
2.04975e-05
2.30608e-05
2.64399e-05
3.01757e-05
3.34287e-05
3.52667e-05
3.60701e-05
3.58812e-05
3.31777e-05
2.8854e-05
1.99385e-05
1.75985e-05
1.85398e-05
2.03724e-05