/*--------------------------------*- C++ -*----------------------------------*\
| =========                 |                                                 |
| \\      /  F ield         | OpenFOAM: The Open Source CFD Toolbox           |
|  \\    /   O peration     | Version:  2.3.1                                 |
|   \\  /    A nd           | Web:      www.OpenFOAM.org                      |
|    \\/     M anipulation  |                                                 |
\*---------------------------------------------------------------------------*/
FoamFile
{
    version     2.0;
    format      ascii;
    class       volScalarField;
    location    "10";
    object      k_0;
}
// * * * * * * * * * * * * * * * * * * * * * * * * * * * * * * * * * * * * * //

dimensions      [0 2 -2 0 0 0 0];

internalField   nonuniform List<scalar> 
37758
(
3.14436e-05
3.32443e-05
3.42981e-05
3.73008e-05
3.92028e-05
4.05892e-05
4.36368e-05
4.532e-05
4.75658e-05
5.0812e-05
5.24819e-05
5.18943e-05
3.23908e-05
3.57849e-05
3.82957e-05
4.33132e-05
4.76205e-05
5.11279e-05
5.55295e-05
6.07765e-05
6.57072e-05
7.16068e-05
7.45351e-05
7.34216e-05
3.20932e-05
3.6146e-05
3.86769e-05
4.23498e-05
4.75436e-05
5.08235e-05
5.44529e-05
6.08694e-05
6.59683e-05
7.1865e-05
7.51864e-05
7.42775e-05
3.20422e-05
3.61438e-05
3.87238e-05
4.22476e-05
4.74639e-05
5.11315e-05
5.40304e-05
6.04105e-05
6.55151e-05
7.10596e-05
7.48221e-05
7.39202e-05
3.20351e-05
3.61201e-05
3.87343e-05
4.23006e-05
4.7511e-05
5.11632e-05
5.39786e-05
6.02985e-05
6.53768e-05
7.08676e-05
7.47815e-05
7.38601e-05
3.20398e-05
3.61225e-05
3.87052e-05
4.23168e-05
4.7559e-05
5.11766e-05
5.39853e-05
6.03295e-05
6.53383e-05
7.08253e-05
7.47811e-05
7.38292e-05
3.20398e-05
3.61226e-05
3.87052e-05
4.23168e-05
4.75589e-05
5.11766e-05
5.39853e-05
6.03297e-05
6.53388e-05
7.08256e-05
7.47818e-05
7.38302e-05
3.2035e-05
3.61202e-05
3.87344e-05
4.23004e-05
4.75108e-05
5.11632e-05
5.39786e-05
6.02991e-05
6.53782e-05
7.08686e-05
7.47836e-05
7.38628e-05
3.2042e-05
3.61441e-05
3.87239e-05
4.22472e-05
4.74636e-05
5.11315e-05
5.40304e-05
6.04115e-05
6.55171e-05
7.10613e-05
7.48252e-05
7.39243e-05
3.2093e-05
3.61464e-05
3.8677e-05
4.23492e-05
4.75434e-05
5.08236e-05
5.44524e-05
6.08711e-05
6.59707e-05
7.1867e-05
7.51901e-05
7.42824e-05
3.23905e-05
3.57857e-05
3.82955e-05
4.33125e-05
4.76207e-05
5.1128e-05
5.55295e-05
6.07779e-05
6.57093e-05
7.16085e-05
7.45382e-05
7.34262e-05
3.14434e-05
3.32447e-05
3.42983e-05
3.73002e-05
3.9203e-05
4.05889e-05
4.36366e-05
4.53206e-05
4.75655e-05
5.08122e-05
5.24831e-05
5.18966e-05
3.09418e-05
3.22808e-05
3.33781e-05
3.58713e-05
3.7589e-05
3.89483e-05
4.16411e-05
4.72493e-05
5.07777e-05
5.37525e-05
5.4464e-05
5.37449e-05
3.02044e-05
3.10113e-05
3.316e-05
3.88128e-05
4.20269e-05
4.65491e-05
5.69268e-05
6.80992e-05
7.05889e-05
7.03493e-05
6.83419e-05
6.80628e-05
3.02538e-05
3.08345e-05
3.22576e-05
3.48432e-05
3.68606e-05
4.09222e-05
5.1208e-05
6.82573e-05
7.34404e-05
7.36313e-05
7.16735e-05
7.11267e-05
3.00939e-05
3.05672e-05
3.18093e-05
3.40197e-05
3.58099e-05
3.94075e-05
4.87269e-05
6.58678e-05
7.19712e-05
7.27452e-05
7.13446e-05
7.16394e-05
3.0064e-05
3.0491e-05
3.16988e-05
3.40233e-05
3.58529e-05
3.94758e-05
4.88951e-05
6.55944e-05
7.19115e-05
7.29661e-05
7.17609e-05
7.2264e-05
3.00566e-05
3.04668e-05
3.16667e-05
3.40822e-05
3.59645e-05
3.96754e-05
4.9319e-05
6.5881e-05
7.21995e-05
7.32905e-05
7.21139e-05
7.26661e-05
3.00566e-05
3.04668e-05
3.16666e-05
3.40823e-05
3.59648e-05
3.96759e-05
4.93201e-05
6.58843e-05
7.22033e-05
7.3294e-05
7.21169e-05
7.26683e-05
3.00639e-05
3.04909e-05
3.16986e-05
3.40237e-05
3.58538e-05
3.94775e-05
4.88981e-05
6.5604e-05
7.19226e-05
7.29761e-05
7.17696e-05
7.22701e-05
3.00938e-05
3.05671e-05
3.18089e-05
3.40204e-05
3.58113e-05
3.94101e-05
4.87311e-05
6.58822e-05
7.19875e-05
7.27603e-05
7.13574e-05
7.16485e-05
3.02534e-05
3.08342e-05
3.22571e-05
3.48441e-05
3.68625e-05
4.09255e-05
5.12133e-05
6.82737e-05
7.34589e-05
7.36486e-05
7.1688e-05
7.11371e-05
3.0204e-05
3.10106e-05
3.31587e-05
3.88129e-05
4.20295e-05
4.65523e-05
5.6932e-05
6.81124e-05
7.06037e-05
7.03637e-05
6.83523e-05
6.80697e-05
3.09417e-05
3.2281e-05
3.33781e-05
3.5871e-05
3.75892e-05
3.89484e-05
4.16406e-05
4.72494e-05
5.0779e-05
5.37541e-05
5.44663e-05
5.37476e-05
3.08895e-05
3.20761e-05
3.45677e-05
3.90303e-05
4.11332e-05
4.50509e-05
5.35641e-05
7.13658e-05
7.83451e-05
7.65341e-05
6.93062e-05
6.03584e-05
3.45265e-05
4.50167e-05
6.99279e-05
0.000101485
0.000115916
0.000133577
0.000164098
0.00017734
0.000173655
0.00015788
0.000116288
8.22175e-05
3.48496e-05
4.23265e-05
5.94536e-05
7.85233e-05
9.11557e-05
0.000115583
0.000163493
0.000191012
0.000188464
0.000172712
0.000129767
8.88976e-05
3.20646e-05
3.93085e-05
5.5545e-05
7.30793e-05
8.53019e-05
0.000108766
0.00015928
0.000191389
0.000189216
0.000174152
0.000132219
9.07148e-05
3.13364e-05
3.82555e-05
5.4839e-05
7.35777e-05
8.61676e-05
0.000109992
0.000160775
0.000193015
0.000190711
0.00017565
0.000133635
9.1951e-05
3.11929e-05
3.78617e-05
5.46939e-05
7.41433e-05
8.71056e-05
0.000111653
0.000162844
0.000194515
0.000191949
0.000176649
0.000134178
9.25085e-05
3.11928e-05
3.78614e-05
5.46936e-05
7.41446e-05
8.71077e-05
0.000111657
0.00016285
0.000194524
0.000191959
0.000176659
0.000134189
9.25137e-05
3.13357e-05
3.82543e-05
5.48386e-05
7.35814e-05
8.6174e-05
0.000110003
0.000160793
0.000193042
0.00019074
0.00017568
0.000133666
9.19658e-05
3.20627e-05
3.93068e-05
5.55443e-05
7.30853e-05
8.53117e-05
0.000108783
0.000159307
0.000191429
0.000189259
0.000174196
0.000132266
9.0737e-05
3.48453e-05
4.23225e-05
5.94524e-05
7.85312e-05
9.11681e-05
0.000115602
0.000163523
0.000191057
0.000188513
0.000172763
0.000129822
8.89231e-05
3.45191e-05
4.5009e-05
6.99194e-05
0.00010149
0.000115929
0.000133591
0.000164123
0.000177377
0.000173695
0.000157923
0.000116334
8.22371e-05
3.08894e-05
3.20759e-05
3.45669e-05
3.90305e-05
4.11339e-05
4.50514e-05
5.35638e-05
7.13677e-05
7.83534e-05
7.65435e-05
6.93167e-05
6.03648e-05
3.11316e-05
3.49311e-05
4.47383e-05
5.96436e-05
6.34536e-05
7.24607e-05
9.49164e-05
0.000118044
0.000124656
0.000122007
0.000109493
7.89899e-05
0.000102624
0.000202503
0.000287868
0.000316487
0.000312786
0.000304033
0.000301742
0.000295958
0.000280437
0.000250538
0.000194885
0.000121699
0.000100823
0.000184729
0.000257089
0.000289705
0.000299364
0.000324072
0.00033479
0.000329982
0.000311923
0.000277379
0.000218925
0.000136956
7.37788e-05
0.000167583
0.000245127
0.000281292
0.000294338
0.000327928
0.000344327
0.000339662
0.000320249
0.000285404
0.000225419
0.000141765
5.79707e-05
0.000162494
0.000246775
0.000285117
0.000298594
0.000333215
0.000349522
0.000344559
0.000324176
0.000289003
0.000227692
0.000144129
5.52037e-05
0.00015854
0.000247899
0.000287668
0.000301773
0.000337204
0.000352329
0.000346959
0.000325722
0.000290343
0.000228146
0.00014482
5.52032e-05
0.000158536
0.0002479
0.000287672
0.000301779
0.000337211
0.000352336
0.000346966
0.00032573
0.00029035
0.000228157
0.00014483
5.79523e-05
0.000162486
0.00024678
0.000285129
0.00029861
0.000333236
0.000349543
0.00034458
0.000324198
0.000289024
0.000227723
0.000144157
7.3751e-05
0.000167571
0.000245134
0.000281311
0.000294362
0.000327959
0.000344358
0.000339693
0.000320283
0.000285436
0.000225467
0.000141807
0.000100793
0.000184706
0.000257093
0.000289727
0.000299392
0.000324106
0.000334824
0.000330016
0.00031196
0.000277415
0.000218981
0.000137006
0.00010257
0.000202461
0.000287858
0.000316502
0.000312809
0.000304062
0.000301771
0.000295988
0.000280469
0.000250569
0.000194936
0.000121742
3.11305e-05
3.49296e-05
4.47347e-05
5.96446e-05
6.34556e-05
7.24632e-05
9.49203e-05
0.000118052
0.000124668
0.000122021
0.000109514
7.90098e-05
3.75388e-05
5.04173e-05
6.55327e-05
7.41652e-05
8.41533e-05
9.96582e-05
0.000121389
0.000134987
0.000135579
0.000132525
0.000123954
9.74321e-05
0.000276581
0.000364505
0.000400825
0.000387707
0.000364008
0.000350102
0.00033539
0.000318484
0.000292524
0.000264445
0.000224314
0.000156664
0.00032571
0.000451495
0.000451937
0.000435937
0.000412477
0.0004007
0.000385929
0.000364523
0.00033459
0.000302408
0.000256591
0.000179019
0.000337309
0.000473926
0.000472573
0.000453732
0.000430598
0.000420196
0.00040483
0.000381903
0.000350477
0.000317208
0.000267836
0.000186833
0.000343946
0.000483084
0.000481553
0.000461917
0.000438737
0.000428759
0.000412987
0.00038994
0.000357514
0.000323359
0.000271875
0.000189969
0.000346246
0.000486415
0.000485038
0.000465587
0.00044251
0.000432504
0.000416173
0.000393007
0.00036002
0.00032551
0.000272984
0.000190798
0.000346247
0.000486417
0.000485041
0.00046559
0.000442512
0.000432507
0.000416176
0.00039301
0.000360024
0.000325514
0.000272992
0.000190808
0.000343949
0.000483089
0.00048156
0.000461925
0.000438744
0.000428767
0.000412996
0.000389948
0.000357525
0.00032337
0.000271897
0.000189996
0.000337312
0.000473933
0.000472582
0.000453744
0.000430609
0.000420209
0.000404843
0.000381915
0.000350493
0.000317224
0.000267869
0.000186874
0.00032571
0.000451502
0.000451949
0.000435954
0.000412493
0.000400717
0.000385945
0.000364538
0.000334607
0.000302424
0.000256628
0.000179067
0.00027657
0.000364506
0.000400849
0.000387735
0.000364037
0.000350126
0.000335409
0.000318502
0.00029254
0.000264456
0.000224345
0.000156707
3.75385e-05
5.04177e-05
6.5536e-05
7.41707e-05
8.41623e-05
9.96699e-05
0.000121398
0.000134994
0.000135586
0.000132531
0.000123964
9.74537e-05
3.37351e-05
4.49522e-05
5.69207e-05
6.82659e-05
8.20692e-05
9.52144e-05
0.000105104
0.000111976
0.000113042
0.000115532
0.000116068
0.00010507
0.000116233
0.000179164
0.000238038
0.000265386
0.000284055
0.000287327
0.000283102
0.000272928
0.000254957
0.000241515
0.000219567
0.000170224
0.00014094
0.00023843
0.00029337
0.000321881
0.000342953
0.000349399
0.00034421
0.000328807
0.000306463
0.000287105
0.000257681
0.000197147
0.000147363
0.000259217
0.000315611
0.000344326
0.000366637
0.000375298
0.00037006
0.000353518
0.000329108
0.000306491
0.000273022
0.000207976
0.000150303
0.000266584
0.000323819
0.000353132
0.000376269
0.000386702
0.000381741
0.000365343
0.000339135
0.00031459
0.000279004
0.000212199
0.000151387
0.000268965
0.00032667
0.000356428
0.000379887
0.000391018
0.000386124
0.000369866
0.000342838
0.000317524
0.000281026
0.000213479
0.000151388
0.000268966
0.00032667
0.000356427
0.000379886
0.000391018
0.000386125
0.000369866
0.000342839
0.000317526
0.00028103
0.000213486
0.000150303
0.000266585
0.000323819
0.00035313
0.000376267
0.000386703
0.000381742
0.000365343
0.000339138
0.000314595
0.000279017
0.00021222
0.000147363
0.000259218
0.000315611
0.000344324
0.000366635
0.0003753
0.000370062
0.000353519
0.000329111
0.000306499
0.000273041
0.000208008
0.000140939
0.000238432
0.000293373
0.000321882
0.000342954
0.000349402
0.000344214
0.000328809
0.000306465
0.00028711
0.000257699
0.000197185
0.000116228
0.000179167
0.000238051
0.000265401
0.000284069
0.000287339
0.000283112
0.000272934
0.000254958
0.00024151
0.000219579
0.000170261
3.3735e-05
4.49538e-05
5.69248e-05
6.82737e-05
8.20824e-05
9.52256e-05
0.000105108
0.000111974
0.00011304
0.000115531
0.00011607
0.000105084
3.24265e-05
4.15943e-05
5.10567e-05
6.18825e-05
7.38612e-05
8.29255e-05
8.69931e-05
8.93992e-05
9.20236e-05
9.8209e-05
0.000105701
0.000102185
7.54133e-05
0.000118832
0.000158863
0.00019103
0.000218296
0.00023029
0.000228837
0.000223396
0.000213837
0.000209958
0.000203855
0.000173463
9.27657e-05
0.000159389
0.000205697
0.000242205
0.000274235
0.000289018
0.000286963
0.000277599
0.000264853
0.00025727
0.000244669
0.000202309
9.90382e-05
0.00017634
0.000227014
0.000265282
0.000299314
0.000316533
0.000314669
0.000303873
0.000288692
0.000279111
0.000262195
0.000214656
0.000101493
0.000182478
0.000235031
0.000274608
0.000310143
0.000329494
0.000328043
0.000316757
0.000299326
0.000288569
0.000269473
0.000219607
0.000102372
0.000184369
0.000237618
0.000277832
0.000314017
0.00033443
0.00033323
0.00032188
0.000303388
0.000292169
0.000272127
0.000221276
0.000102372
0.000184369
0.000237616
0.00027783
0.000314015
0.000334429
0.000333229
0.000321879
0.000303387
0.00029217
0.00027213
0.000221282
0.000101494
0.000182476
0.000235026
0.000274601
0.000310137
0.000329489
0.00032804
0.000316754
0.000299325
0.00028857
0.000269481
0.000219624
9.9038e-05
0.000176337
0.000227007
0.000265272
0.000299305
0.000316527
0.000314665
0.000303869
0.00028869
0.000279112
0.000262206
0.000214682
9.27647e-05
0.000159385
0.00020569
0.000242196
0.000274227
0.000289015
0.00028696
0.000277596
0.000264849
0.000257268
0.000244679
0.000202337
7.54108e-05
0.00011883
0.000158865
0.000191031
0.000218299
0.000230295
0.00022884
0.000223395
0.000213829
0.00020995
0.000203855
0.000173488
3.24259e-05
4.15954e-05
5.10605e-05
6.18906e-05
7.38696e-05
8.2931e-05
8.69924e-05
8.93929e-05
9.20171e-05
9.82018e-05
0.0001057
0.000102193
3.24196e-05
3.91311e-05
4.76653e-05
5.80242e-05
6.66209e-05
7.05945e-05
7.01897e-05
7.07322e-05
7.43984e-05
8.41694e-05
9.61342e-05
9.6747e-05
7.29459e-05
9.76607e-05
0.000122866
0.00015038
0.000175383
0.000187053
0.000185418
0.000180905
0.000180288
0.000185334
0.000186753
0.00016925
8.45001e-05
0.000127844
0.00016106
0.000193117
0.000222737
0.000237236
0.000235515
0.00022849
0.000225101
0.000227285
0.000225306
0.00019878
8.92877e-05
0.000141745
0.000179632
0.000214043
0.000246081
0.000262942
0.000261302
0.000251965
0.000246218
0.000247151
0.00024313
0.000212245
9.13179e-05
0.000147382
0.000187384
0.000223255
0.000256956
0.000275752
0.000274333
0.000263398
0.000255707
0.000256149
0.000251135
0.000217975
9.20974e-05
0.000149271
0.000190021
0.00022653
0.000260985
0.000280838
0.000279599
0.000268034
0.000259409
0.00025972
0.000254314
0.000220104
9.20973e-05
0.00014927
0.000190019
0.000226528
0.000260982
0.000280836
0.000279597
0.000268033
0.000259408
0.00025972
0.000254315
0.000220109
9.13177e-05
0.00014738
0.000187378
0.000223247
0.000256948
0.000275746
0.000274327
0.000263393
0.000255704
0.000256149
0.000251139
0.000217989
8.92871e-05
0.000141741
0.000179624
0.000214032
0.000246071
0.000262935
0.000261296
0.000251958
0.000246213
0.00024715
0.000243135
0.000212266
8.44987e-05
0.000127839
0.000161052
0.000193107
0.000222729
0.000237232
0.000235511
0.000228483
0.000225095
0.000227282
0.000225309
0.000198804
7.29426e-05
9.76561e-05
0.000122864
0.000150379
0.000175385
0.000187056
0.000185419
0.000180898
0.000180277
0.000185327
0.000186753
0.00016927
3.24186e-05
3.91323e-05
4.76699e-05
5.80315e-05
6.6628e-05
7.05985e-05
7.01885e-05
7.07277e-05
7.43909e-05
8.41575e-05
9.61287e-05
9.67481e-05
3.12002e-05
3.67944e-05
4.43797e-05
5.3656e-05
5.94492e-05
5.9451e-05
5.62191e-05
5.70215e-05
6.29068e-05
7.64662e-05
8.85793e-05
9.03086e-05
7.34428e-05
8.88974e-05
0.000105253
0.000126344
0.000145383
0.00015201
0.000147398
0.000144459
0.000149995
0.000166848
0.000171995
0.000159476
8.36279e-05
0.000114327
0.000136649
0.000161644
0.000184868
0.000194528
0.00019048
0.000185083
0.000188904
0.000202146
0.000205861
0.000189843
8.77705e-05
0.000126357
0.000152682
0.000179927
0.000205603
0.000217489
0.000213492
0.000203911
0.000206875
0.000219411
0.000222427
0.000204643
8.96069e-05
0.000131613
0.000159945
0.000188524
0.000215776
0.000229337
0.000225349
0.000212647
0.00021494
0.000227496
0.000230208
0.000211124
9.03471e-05
0.00013348
0.000162575
0.000191728
0.000219709
0.0002342
0.000230285
0.000216119
0.000218079
0.000230784
0.000233401
0.000213633
9.0347e-05
0.000133479
0.000162573
0.000191726
0.000219707
0.000234198
0.000230284
0.000216118
0.000218077
0.000230784
0.000233402
0.000213636
8.96065e-05
0.00013161
0.00015994
0.000188517
0.000215769
0.000229332
0.000225345
0.000212642
0.000214936
0.000227495
0.000230211
0.000211132
8.77696e-05
0.000126353
0.000152676
0.000179919
0.000205595
0.000217484
0.000213488
0.000203903
0.000206869
0.000219409
0.000222431
0.000204654
8.36262e-05
0.000114322
0.000136643
0.000161638
0.000184863
0.000194526
0.000190478
0.000185074
0.000188895
0.000202142
0.000205863
0.000189856
7.34383e-05
8.88922e-05
0.000105252
0.000126346
0.000145388
0.000152015
0.0001474
0.000144448
0.000149982
0.000166838
0.000171993
0.000159487
3.11987e-05
3.67957e-05
4.43851e-05
5.36637e-05
5.9456e-05
5.94562e-05
5.62187e-05
5.70183e-05
6.29005e-05
7.64566e-05
8.85747e-05
9.03098e-05
3.07735e-05
3.41421e-05
4.11958e-05
4.98929e-05
5.38717e-05
5.29866e-05
4.95998e-05
5.08363e-05
5.83303e-05
7.15162e-05
8.30427e-05
8.46944e-05
7.52003e-05
8.19587e-05
9.33953e-05
0.000110335
0.000123798
0.000125981
0.000116757
0.000113371
0.000125199
0.000148717
0.000156198
0.000147232
8.39116e-05
0.000104744
0.000120536
0.000140334
0.000157543
0.000162438
0.00015432
0.000148488
0.000157811
0.0001788
0.000186454
0.000176438
8.75777e-05
0.000115743
0.000134679
0.000156298
0.000175843
0.000182705
0.000174335
0.000163713
0.000172734
0.000194605
0.00020259
0.000191225
8.92651e-05
0.000120776
0.0001414
0.00016409
0.000185058
0.000193312
0.000184815
0.000169971
0.000179009
0.000201991
0.000210257
0.000197759
8.99652e-05
0.000122647
0.000143944
0.000167097
0.000188726
0.000197747
0.000189327
0.000172182
0.0001812
0.000204923
0.000213439
0.000200366
8.9965e-05
0.000122646
0.000143942
0.000167095
0.000188724
0.000197746
0.000189327
0.00017218
0.000181198
0.000204922
0.00021344
0.000200368
8.92645e-05
0.000120773
0.000141396
0.000164086
0.000185054
0.00019331
0.000184814
0.000169967
0.000179005
0.000201988
0.000210259
0.000197764
8.75766e-05
0.000115739
0.000134674
0.000156293
0.000175839
0.000182704
0.000174335
0.000163707
0.000172726
0.0001946
0.000202591
0.000191232
8.39094e-05
0.00010474
0.000120532
0.000140331
0.000157542
0.000162441
0.000154322
0.00014848
0.000157801
0.000178792
0.000186453
0.000176444
7.51947e-05
8.19533e-05
9.3396e-05
0.00011034
0.000123806
0.000125991
0.000116762
0.000113362
0.000125183
0.000148703
0.000156194
0.000147238
3.07716e-05
3.4143e-05
4.1201e-05
4.99004e-05
5.38787e-05
5.2992e-05
4.96014e-05
5.08336e-05
5.83236e-05
7.15072e-05
8.30372e-05
8.46932e-05
2.89258e-05
3.17283e-05
3.82324e-05
4.65487e-05
5.03627e-05
4.96144e-05
4.72366e-05
4.84887e-05
5.54795e-05
6.54505e-05
7.31153e-05
7.32332e-05
7.39625e-05
7.69859e-05
8.58002e-05
0.000100331
0.000110093
0.000110457
0.000100631
9.58201e-05
0.000106807
0.000127899
0.000138237
0.000132893
8.24465e-05
9.78088e-05
0.000109863
0.000126673
0.000139947
0.000142518
0.000133384
0.000125212
0.000134301
0.000155166
0.00016613
0.0001593
8.59539e-05
0.000108028
0.000122529
0.000140781
0.000156253
0.000160486
0.000150936
0.000138516
0.000146836
0.000169945
0.000181536
0.000172163
8.76047e-05
0.000112841
0.000128709
0.000147782
0.000164523
0.000169867
0.000160063
0.000143977
0.000151386
0.000176224
0.000188372
0.000177007
8.82982e-05
0.000114685
0.000131114
0.000150539
0.00016786
0.000173802
0.00016402
0.000145935
0.000152547
0.000178436
0.000191032
0.000178761
8.82979e-05
0.000114684
0.000131113
0.000150537
0.000167859
0.000173802
0.000164021
0.000145935
0.000152545
0.000178434
0.000191031
0.000178761
8.76039e-05
0.000112839
0.000128706
0.000147779
0.00016452
0.000169866
0.000160065
0.000143977
0.00015138
0.000176219
0.000188369
0.000177005
8.59525e-05
0.000108024
0.000122525
0.000140778
0.000156252
0.000160487
0.00015094
0.000138516
0.000146828
0.000169937
0.000181532
0.000172162
8.2444e-05
9.78045e-05
0.000109861
0.000126672
0.000139949
0.000142524
0.000133391
0.000125212
0.000134291
0.000155155
0.000166124
0.000159298
7.39563e-05
7.69808e-05
8.58019e-05
0.000100338
0.000110103
0.00011047
0.000100642
9.58198e-05
0.000106792
0.000127882
0.000138228
0.000132892
2.89229e-05
3.17292e-05
3.82378e-05
4.6556e-05
5.03691e-05
4.96194e-05
4.72389e-05
4.8486e-05
5.54721e-05
6.54401e-05
7.31037e-05
7.32244e-05
2.81057e-05
2.90425e-05
3.47565e-05
4.29825e-05
4.7519e-05
4.80167e-05
4.63607e-05
4.62145e-05
4.9907e-05
5.57689e-05
5.96674e-05
5.75654e-05
7.21238e-05
7.17329e-05
7.97751e-05
9.32836e-05
0.000101634
0.000101954
9.41331e-05
8.91162e-05
9.26137e-05
0.000107854
0.000117316
0.000114286
7.99039e-05
9.11325e-05
0.000101948
0.000117572
0.000129291
0.000131595
0.000124203
0.000115077
0.000116639
0.000132125
0.000141975
0.000135534
8.32733e-05
0.000100771
0.000113575
0.000130424
0.000144209
0.000147974
0.000140437
0.000127608
0.000127333
0.000144512
0.000154717
0.000144522
8.48911e-05
0.000105398
0.000119317
0.000136822
0.000151734
0.000156419
0.000148844
0.000133097
0.000131116
0.000148996
0.000159469
0.000146824
8.55738e-05
0.000107208
0.000121589
0.000139364
0.000154779
0.000159946
0.000152484
0.000135239
0.000132115
0.000150259
0.000160994
0.000147395
8.55734e-05
0.000107207
0.000121588
0.000139363
0.000154778
0.000159946
0.000152485
0.00013524
0.000132115
0.000150256
0.000160992
0.000147394
8.48902e-05
0.000105396
0.000119314
0.00013682
0.000151733
0.000156419
0.000148847
0.0001331
0.000131115
0.00014899
0.000159463
0.000146821
8.32716e-05
0.000100767
0.000113572
0.000130422
0.000144209
0.000147976
0.000140443
0.000127613
0.00012733
0.000144503
0.000154708
0.000144517
7.99011e-05
9.11284e-05
0.000101945
0.000117573
0.000129295
0.000131601
0.000124212
0.000115083
0.000116635
0.000132115
0.000141965
0.000135529
7.21174e-05
7.17278e-05
7.9777e-05
9.32918e-05
0.000101646
0.000101968
9.41465e-05
8.91215e-05
9.26073e-05
0.000107842
0.000117306
0.000114281
2.81021e-05
2.90427e-05
3.4761e-05
4.29887e-05
4.75243e-05
4.80214e-05
4.63631e-05
4.62146e-05
4.99014e-05
5.57608e-05
5.96581e-05
5.75606e-05
2.63587e-05
2.68626e-05
3.16564e-05
3.89415e-05
4.51055e-05
4.676e-05
4.57412e-05
4.50505e-05
4.59946e-05
4.82906e-05
4.98433e-05
4.71967e-05
6.85036e-05
6.69394e-05
7.45503e-05
8.72205e-05
9.58945e-05
9.74825e-05
9.25292e-05
8.76013e-05
8.70361e-05
9.43509e-05
0.000100243
9.90088e-05
7.61332e-05
8.48965e-05
9.52327e-05
0.000110324
0.000122123
0.000125609
0.00012127
0.000111974
0.000108802
0.000114655
0.000120509
0.000115662
7.94062e-05
9.39613e-05
0.000106099
0.000122402
0.000136053
0.0001409
0.000136856
0.000124362
0.000118935
0.000124532
0.000130271
0.000122437
8.09955e-05
9.83835e-05
0.00011151
0.000128409
0.000143051
0.000148727
0.000144909
0.000130224
0.000123076
0.000128101
0.00013369
0.000124319
8.16692e-05
0.000100139
0.000113675
0.000130805
0.000145877
0.000151983
0.00014836
0.000132698
0.000124585
0.000129174
0.000134755
0.000124894
8.16689e-05
0.000100139
0.000113674
0.000130804
0.000145877
0.000151983
0.000148361
0.000132699
0.000124586
0.000129173
0.000134754
0.000124895
8.09944e-05
9.83811e-05
0.000111507
0.000128407
0.00014305
0.000148727
0.000144912
0.000130229
0.00012308
0.000128099
0.000133687
0.000124321
7.94044e-05
9.39577e-05
0.000106096
0.0001224
0.000136053
0.000140903
0.000136862
0.000124369
0.000118939
0.000124529
0.000130267
0.000122439
7.61302e-05
8.48923e-05
9.52307e-05
0.000110325
0.000122127
0.000125615
0.00012128
0.000111982
0.000108806
0.000114653
0.000120505
0.000115664
6.84979e-05
6.69346e-05
7.4552e-05
8.72287e-05
9.59069e-05
9.74966e-05
9.25437e-05
8.76091e-05
8.70396e-05
9.43482e-05
0.000100239
9.90097e-05
2.63541e-05
2.68623e-05
3.16603e-05
3.8947e-05
4.51094e-05
4.67636e-05
4.57452e-05
4.50529e-05
4.59947e-05
4.8289e-05
4.98417e-05
4.71985e-05
2.52176e-05
2.44537e-05
2.82909e-05
3.43217e-05
4.14585e-05
4.46758e-05
4.52312e-05
4.45145e-05
4.46344e-05
4.52918e-05
4.52384e-05
4.25323e-05
6.45663e-05
6.18331e-05
6.90972e-05
8.08529e-05
9.06542e-05
9.43196e-05
9.30934e-05
8.9966e-05
8.82913e-05
9.0519e-05
9.30978e-05
9.29122e-05
7.16733e-05
7.85326e-05
8.86188e-05
0.000103087
0.000115663
0.000121185
0.000120562
0.000113937
0.000108793
0.000108661
0.000110625
0.000108038
7.48055e-05
8.70617e-05
9.88938e-05
0.000114646
0.00012879
0.000135616
0.000135622
0.000127622
0.000119531
0.000118198
0.000119483
0.000114951
7.63504e-05
9.1275e-05
0.000104049
0.000120409
0.000135368
0.000143013
0.000143425
0.000134801
0.000124729
0.000122425
0.000123221
0.00011777
7.70093e-05
9.29692e-05
0.000106131
0.000122723
0.000138011
0.000146088
0.000146738
0.000138
0.000126966
0.000124111
0.000124697
0.000118891
7.7009e-05
9.29683e-05
0.00010613
0.000122722
0.00013801
0.000146088
0.000146738
0.000138002
0.000126968
0.000124113
0.000124699
0.000118892
7.63493e-05
9.12726e-05
0.000104046
0.000120407
0.000135366
0.000143013
0.000143427
0.000134806
0.000124734
0.000122429
0.000123224
0.000117775
7.48036e-05
8.70581e-05
9.88904e-05
0.000114644
0.000128789
0.000135617
0.000135627
0.000127631
0.000119539
0.000118203
0.000119487
0.000114958
7.16702e-05
7.85285e-05
8.86167e-05
0.000103087
0.000115666
0.00012119
0.000120571
0.000113949
0.000108802
0.000108667
0.00011063
0.000108045
6.45607e-05
6.18284e-05
6.90984e-05
8.08605e-05
9.06653e-05
9.43322e-05
9.3107e-05
8.99773e-05
8.83006e-05
9.05239e-05
9.31016e-05
9.2918e-05
2.52137e-05
2.44526e-05
2.82942e-05
3.43271e-05
4.14622e-05
4.46792e-05
4.52349e-05
4.45182e-05
4.46376e-05
4.52949e-05
4.52417e-05
4.25374e-05
2.36577e-05
2.25168e-05
2.54286e-05
3.00388e-05
3.62173e-05
4.12369e-05
4.31686e-05
4.36765e-05
4.36117e-05
4.39117e-05
4.26469e-05
3.89883e-05
5.99652e-05
5.68147e-05
6.35773e-05
7.41025e-05
8.42659e-05
9.06672e-05
9.28666e-05
9.25533e-05
9.18642e-05
9.1659e-05
9.25389e-05
9.11588e-05
6.67839e-05
7.21455e-05
8.18009e-05
9.52929e-05
0.000108013
0.000116182
0.000118805
0.000116716
0.000112468
0.000110039
0.000109842
0.000106966
6.97611e-05
8.00999e-05
9.15093e-05
0.000106393
0.000120397
0.000129794
0.000133057
0.000130622
0.000124585
0.000120197
0.000119015
0.000114558
7.12456e-05
8.40807e-05
9.64311e-05
0.00011197
0.000126628
0.000136768
0.000140492
0.000138004
0.000130937
0.000125139
0.000123232
0.000118031
7.18833e-05
8.57001e-05
9.84396e-05
0.000114225
0.000129141
0.000139639
0.000143628
0.000141248
0.000133783
0.00012728
0.000124983
0.000119471
7.18829e-05
8.56992e-05
9.84385e-05
0.000114224
0.000129141
0.000139638
0.000143628
0.000141248
0.000133785
0.000127282
0.000124984
0.000119473
7.12446e-05
8.40782e-05
9.64284e-05
0.000111967
0.000126625
0.000136766
0.000140491
0.000138007
0.000130942
0.000125144
0.000123236
0.000118035
6.97593e-05
8.00964e-05
9.1506e-05
0.00010639
0.000120395
0.000129793
0.000133058
0.000130627
0.000124594
0.000120204
0.000119021
0.000114564
6.67809e-05
7.21415e-05
8.17987e-05
9.52933e-05
0.000108014
0.000116184
0.00011881
0.000116724
0.000112478
0.000110048
0.000109849
0.000106973
5.99598e-05
5.68107e-05
6.3578e-05
7.41091e-05
8.42754e-05
9.06775e-05
9.28772e-05
9.25636e-05
9.18727e-05
9.16662e-05
9.25447e-05
9.11645e-05
2.36538e-05
2.25147e-05
2.54312e-05
3.0044e-05
3.62211e-05
4.12392e-05
4.31718e-05
4.36806e-05
4.36161e-05
4.39157e-05
4.26516e-05
3.89937e-05
2.23961e-05
2.06771e-05
2.27953e-05
2.6245e-05
3.06713e-05
3.59368e-05
3.92689e-05
4.0738e-05
4.1271e-05
4.12068e-05
3.87087e-05
3.42919e-05
5.54833e-05
5.17875e-05
5.78831e-05
6.70821e-05
7.64831e-05
8.4476e-05
8.97454e-05
9.24112e-05
9.32889e-05
9.27469e-05
9.18712e-05
8.79412e-05
6.18005e-05
6.58364e-05
7.47947e-05
8.69353e-05
9.88782e-05
0.00010869
0.000114291
0.000116002
0.00011491
0.000112247
0.000109929
0.000105126
6.45903e-05
7.31972e-05
8.3915e-05
9.74926e-05
0.000110628
0.000121426
0.000127688
0.000129474
0.000127523
0.0001233
0.000119594
0.000113571
6.59977e-05
7.69228e-05
8.85913e-05
0.000102859
0.000116581
0.000127947
0.000134705
0.000136626
0.00013423
0.000128959
0.000124359
0.000117509
6.66068e-05
7.84548e-05
9.05198e-05
0.000105051
0.000118998
0.000130614
0.000137655
0.000139703
0.000137193
0.000131437
0.000126405
0.00011912
6.66065e-05
7.84539e-05
9.05188e-05
0.000105051
0.000118998
0.000130612
0.000137654
0.000139703
0.000137194
0.000131438
0.000126406
0.000119121
6.59967e-05
7.69205e-05
8.85887e-05
0.000102856
0.000116579
0.000127945
0.000134703
0.000136625
0.000134232
0.000128961
0.000124361
0.000117511
6.45885e-05
7.31939e-05
8.39118e-05
9.74903e-05
0.000110626
0.000121423
0.000127687
0.000129474
0.000127526
0.000123304
0.000119598
0.000113574
6.17976e-05
6.58327e-05
7.47925e-05
8.69354e-05
9.88791e-05
0.000108691
0.000114292
0.000116004
0.000114915
0.000112253
0.000109934
0.00010513
5.54782e-05
5.17839e-05
5.78833e-05
6.70876e-05
7.64914e-05
8.44841e-05
8.97526e-05
9.24173e-05
9.32945e-05
9.27521e-05
9.18757e-05
8.79442e-05
2.23924e-05
2.06745e-05
2.2797e-05
2.6249e-05
3.06757e-05
3.59384e-05
3.92707e-05
4.07412e-05
4.12756e-05
4.12107e-05
3.8713e-05
3.42961e-05
2.11263e-05
1.91024e-05
2.04975e-05
2.30589e-05
2.64381e-05
3.0176e-05
3.34301e-05
3.52657e-05
3.60668e-05
3.58761e-05
3.31691e-05
2.88432e-05
5.09796e-05
4.70145e-05
5.22865e-05
5.99456e-05
6.82368e-05
7.61727e-05
8.26702e-05
8.75382e-05
8.98872e-05
9.01542e-05
8.76931e-05
8.00372e-05
5.69231e-05
5.97873e-05
6.78104e-05
7.82445e-05
8.88882e-05
9.8604e-05
0.000106027
0.000110179
0.000111691
0.000110262
0.000106721
9.87466e-05
5.95252e-05
6.65412e-05
7.63008e-05
8.81658e-05
9.99044e-05
0.000110489
0.000118587
0.000122816
0.000124087
0.000121495
0.000116749
0.00010801
6.08462e-05
6.99944e-05
8.07059e-05
9.3279e-05
0.000105547
0.000116602
0.000125154
0.000129518
0.000130666
0.000127306
0.000121748
0.000112456
6.14209e-05
7.14284e-05
8.2542e-05
9.53927e-05
0.000107858
0.000119105
0.000127891
0.000132375
0.00013351
0.000129814
0.000123854
0.00011426
6.14206e-05
7.14276e-05
8.25411e-05
9.53919e-05
0.000107857
0.000119104
0.000127889
0.000132373
0.000133509
0.000129814
0.000123854
0.000114259
6.08453e-05
6.99922e-05
8.07035e-05
9.32769e-05
0.000105544
0.000116598
0.00012515
0.000129515
0.000130664
0.000127305
0.000121747
0.000112454
5.95235e-05
6.65381e-05
7.62978e-05
8.81637e-05
9.99022e-05
0.000110485
0.000118582
0.000122812
0.000124084
0.000121494
0.000116748
0.000108007
5.69202e-05
5.97838e-05
6.78083e-05
7.82445e-05
8.88887e-05
9.86034e-05
0.000106025
0.000110177
0.00011169
0.000110262
0.000106721
9.87431e-05
5.09748e-05
4.70112e-05
5.22864e-05
5.99502e-05
6.82439e-05
7.61795e-05
8.26752e-05
8.75404e-05
8.98883e-05
9.01555e-05
8.76932e-05
8.00351e-05
2.1123e-05
1.91003e-05
2.04987e-05
2.30624e-05
2.6442e-05
3.01785e-05
3.34313e-05
3.52681e-05
3.60704e-05
3.58788e-05
3.31723e-05
2.88462e-05
1.99383e-05
1.75991e-05