/*--------------------------------*- C++ -*----------------------------------*\
| =========                 |                                                 |
| \\      /  F ield         | OpenFOAM: The Open Source CFD Toolbox           |
|  \\    /   O peration     | Version:  2.3.1                                 |
|   \\  /    A nd           | Web:      www.OpenFOAM.org                      |
|    \\/     M anipulation  |                                                 |
\*---------------------------------------------------------------------------*/
FoamFile
{
    version     2.0;
    format      ascii;
    class       volScalarField;
    location    "10";
    object      nut;
}
// * * * * * * * * * * * * * * * * * * * * * * * * * * * * * * * * * * * * * //

dimensions      [0 2 -1 0 0 0 0];

internalField   nonuniform List<scalar> 
37758
(
7.08288e-06
7.28435e-06
7.3982e-06
7.71356e-06
7.90956e-06
8.04725e-06
8.34374e-06
8.50425e-06
8.71154e-06
9.00373e-06
9.15194e-06
9.10167e-06
7.18861e-06
7.55786e-06
7.81686e-06
8.31233e-06
8.71713e-06
9.03232e-06
9.41275e-06
9.84755e-06
1.0239e-05
1.06891e-05
1.09077e-05
1.08272e-05
7.15545e-06
7.59525e-06
7.85687e-06
8.2194e-06
8.70917e-06
9.00586e-06
9.32045e-06
9.85439e-06
1.02595e-05
1.07085e-05
1.09553e-05
1.08901e-05
7.1498e-06
7.59489e-06
7.86168e-06
8.20948e-06
8.70147e-06
9.03335e-06
9.28503e-06
9.81661e-06
1.02244e-05
1.06481e-05
1.09285e-05
1.08638e-05
7.14904e-06
7.59236e-06
7.86267e-06
8.2146e-06
8.7058e-06
9.03625e-06
9.28075e-06
9.80745e-06
1.02137e-05
1.06336e-05
1.09255e-05
1.08594e-05
7.14956e-06
7.59264e-06
7.85969e-06
8.21611e-06
8.71022e-06
9.03749e-06
9.28138e-06
9.81e-06
1.02107e-05
1.06304e-05
1.09255e-05
1.08572e-05
7.14955e-06
7.59265e-06
7.8597e-06
8.21611e-06
8.71022e-06
9.03749e-06
9.28138e-06
9.81002e-06
1.02108e-05
1.06305e-05
1.09255e-05
1.08572e-05
7.14903e-06
7.59238e-06
7.86268e-06
8.21458e-06
8.70579e-06
9.03625e-06
9.28076e-06
9.80751e-06
1.02138e-05
1.06337e-05
1.09256e-05
1.08596e-05
7.14978e-06
7.59492e-06
7.86169e-06
8.20944e-06
8.70144e-06
9.03335e-06
9.28503e-06
9.81669e-06
1.02246e-05
1.06483e-05
1.09287e-05
1.08641e-05
7.15543e-06
7.5953e-06
7.85688e-06
8.21935e-06
8.70915e-06
9.00587e-06
9.32042e-06
9.85453e-06
1.02597e-05
1.07086e-05
1.09555e-05
1.08905e-05
7.18858e-06
7.55794e-06
7.81684e-06
8.31226e-06
8.71714e-06
9.03233e-06
9.41275e-06
9.84766e-06
1.02391e-05
1.06892e-05
1.09079e-05
1.08275e-05
7.08286e-06
7.2844e-06
7.39821e-06
7.71349e-06
7.90958e-06
8.04723e-06
8.34372e-06
8.5043e-06
8.71152e-06
9.00374e-06
9.15204e-06
9.10187e-06
1.40526e-05
1.43553e-05
1.45956e-05
1.51296e-05
1.54904e-05
1.57672e-05
1.62988e-05
1.73622e-05
1.80033e-05
1.85247e-05
1.86489e-05
1.85262e-05
6.92473e-05
4.4839e-05
3.34957e-05
2.83854e-05
2.73089e-05
2.59476e-05
2.50566e-05
2.73455e-05
2.79424e-05
2.59683e-05
2.216e-05
1.68304e-05
7.2309e-05
4.56158e-05
3.39899e-05
2.81633e-05
2.59712e-05
2.42412e-05
2.31246e-05
2.7405e-05
2.91178e-05
2.73062e-05
2.35531e-05
1.77638e-05
7.1783e-05
4.51168e-05
3.3819e-05
2.77771e-05
2.54262e-05
2.36489e-05
2.22437e-05
2.65713e-05
2.86343e-05
2.72698e-05
2.37362e-05
1.78492e-05
7.16582e-05
4.52539e-05
3.37068e-05
2.76469e-05
2.53102e-05
2.36033e-05
2.22776e-05
2.64428e-05
2.86073e-05
2.74833e-05
2.39897e-05
1.7975e-05
7.15867e-05
4.53137e-05
3.36623e-05
2.76082e-05
2.52921e-05
2.3622e-05
2.2379e-05
2.6513e-05
2.86823e-05
2.76348e-05
2.4133e-05
1.80383e-05
7.1587e-05
4.53137e-05
3.36622e-05
2.76081e-05
2.5292e-05
2.3622e-05
2.23792e-05
2.65137e-05
2.86834e-05
2.76358e-05
2.41342e-05
1.80395e-05
7.16594e-05
4.52539e-05
3.37066e-05
2.76465e-05
2.53099e-05
2.36033e-05
2.22782e-05
2.64448e-05
2.86104e-05
2.74864e-05
2.39931e-05
1.79783e-05
7.17848e-05
4.51167e-05
3.38187e-05
2.77765e-05
2.54257e-05
2.36489e-05
2.22445e-05
2.65744e-05
2.86389e-05
2.72745e-05
2.37412e-05
1.78542e-05
7.23104e-05
4.5615e-05
3.39898e-05
2.81625e-05
2.59705e-05
2.42413e-05
2.31259e-05
2.74084e-05
2.91229e-05
2.73117e-05
2.35589e-05
1.77699e-05
6.92498e-05
4.48364e-05
3.34975e-05
2.83834e-05
2.73083e-05
2.59478e-05
2.50581e-05
2.73483e-05
2.79467e-05
2.59734e-05
2.21645e-05
1.68356e-05
1.40526e-05
1.43553e-05
1.45956e-05
1.51296e-05
1.54904e-05
1.57673e-05
1.62987e-05
1.73622e-05
1.80035e-05
1.8525e-05
1.86493e-05
1.85267e-05
1.40416e-05
1.43085e-05
1.48497e-05
1.57853e-05
1.62061e-05
1.6956e-05
1.84753e-05
2.13292e-05
2.23673e-05
2.21119e-05
2.10501e-05
1.96402e-05
8.90539e-05
4.2133e-05
3.53246e-05
3.96015e-05
4.20176e-05
4.30825e-05
4.79836e-05
5.30536e-05
5.30896e-05
5.08323e-05
4.27606e-05
2.51148e-05
9.21496e-05
4.09513e-05
3.0315e-05
3.10762e-05
3.27462e-05
3.74736e-05
4.74843e-05
5.71681e-05
5.78983e-05
5.59414e-05
4.87284e-05
2.73459e-05
8.99005e-05
4.00964e-05
2.88817e-05
2.88951e-05
3.03582e-05
3.50915e-05
4.60857e-05
5.74212e-05
5.84562e-05
5.68872e-05
5.05799e-05
2.79762e-05
9.14677e-05
3.96328e-05
2.83311e-05
2.87581e-05
3.03604e-05
3.52979e-05
4.63854e-05
5.7981e-05
5.90604e-05
5.76026e-05
5.15127e-05
2.83572e-05
9.20984e-05
3.95458e-05
2.81811e-05
2.88204e-05
3.05229e-05
3.56969e-05
4.68462e-05
5.84262e-05
5.94729e-05
5.80263e-05
5.18975e-05
2.84905e-05
9.20987e-05
3.95459e-05
2.81809e-05
2.88204e-05
3.05231e-05
3.56976e-05
4.68474e-05
5.84283e-05
5.94752e-05
5.80287e-05
5.19014e-05
2.84926e-05
9.14704e-05
3.96327e-05
2.83308e-05
2.87583e-05
3.0361e-05
3.53e-05
4.63888e-05
5.79871e-05
5.90672e-05
5.76096e-05
5.15239e-05
2.83634e-05
8.99007e-05
4.00966e-05
2.88815e-05
2.88956e-05
3.03593e-05
3.50945e-05
4.60906e-05
5.74303e-05
5.84663e-05
5.68976e-05
5.05965e-05
2.79854e-05
9.21461e-05
4.09502e-05
3.03151e-05
3.1077e-05
3.27478e-05
3.74771e-05
4.74893e-05
5.71781e-05
5.79095e-05
5.59529e-05
4.87471e-05
2.73563e-05
8.9044e-05
4.21308e-05
3.53228e-05
3.9601e-05
4.20195e-05
4.30848e-05
4.79877e-05
5.3062e-05
5.30989e-05
5.08412e-05
4.27764e-05
2.51229e-05
1.40416e-05
1.43085e-05
1.48495e-05
1.57854e-05
1.62062e-05
1.69561e-05
1.84753e-05
2.13295e-05
2.23685e-05
2.21133e-05
2.10517e-05
1.96413e-05
1.40972e-05
1.49308e-05
1.68818e-05
1.95178e-05
2.01298e-05
2.1499e-05
2.45875e-05
2.74325e-05
2.82058e-05
2.7911e-05
2.64599e-05
2.24878e-05
6.84826e-05
5.83311e-05
6.72761e-05
7.01382e-05
7.00307e-05
7.15086e-05
7.62259e-05
7.93231e-05
7.95405e-05
7.48463e-05
6.61117e-05
4.34424e-05
6.08115e-05
4.67598e-05
5.49757e-05
6.1869e-05
6.4076e-05
7.6093e-05
8.4581e-05
8.93457e-05
9.06365e-05
8.53743e-05
7.61934e-05
5.02657e-05
4.05012e-05
4.14029e-05
5.11842e-05
5.91923e-05
6.1927e-05
7.64674e-05
8.70381e-05
9.2309e-05
9.42582e-05
8.93203e-05
7.98313e-05
5.27553e-05
2.84622e-05
4.03898e-05
5.13026e-05
5.97284e-05
6.25859e-05
7.77015e-05
8.84101e-05
9.40894e-05
9.61246e-05
9.12945e-05
8.13124e-05
5.39071e-05
2.66551e-05
3.91436e-05
5.14908e-05
6.01837e-05
6.30966e-05
7.87693e-05
8.90962e-05
9.50025e-05
9.69534e-05
9.21663e-05
8.18242e-05
5.42469e-05
2.66549e-05
3.91424e-05
5.14908e-05
6.01842e-05
6.30974e-05
7.87709e-05
8.9098e-05
9.50048e-05
9.69561e-05
9.21686e-05
8.18274e-05
5.42507e-05
2.84492e-05
4.03887e-05
5.13035e-05
5.97303e-05
6.25881e-05
7.77064e-05
8.84154e-05
9.4096e-05
9.61321e-05
9.1301e-05
8.13214e-05
5.39181e-05
4.04799e-05
4.14011e-05
5.11853e-05
5.91955e-05
6.19306e-05
7.64745e-05
8.70457e-05
9.23185e-05
9.42695e-05
8.93298e-05
7.98448e-05
5.27721e-05
6.07942e-05
4.67537e-05
5.49764e-05
6.18723e-05
6.40803e-05
7.61002e-05
8.45893e-05
8.93561e-05
9.06486e-05
8.53847e-05
7.62082e-05
5.02857e-05
6.84428e-05
5.83202e-05
6.72735e-05
7.01397e-05
7.00345e-05
7.15133e-05
7.6232e-05
7.93306e-05
7.95498e-05
7.4854e-05
6.61245e-05
4.34599e-05
1.40969e-05
1.49305e-05
1.68812e-05
1.9518e-05
2.01301e-05
2.14994e-05
2.4588e-05
2.74335e-05
2.82072e-05
2.79125e-05
2.64624e-05
2.24906e-05
1.54791e-05
1.7938e-05
2.04508e-05
2.17566e-05
2.31684e-05
2.52012e-05
2.78137e-05
2.93443e-05
2.9415e-05
2.90875e-05
2.81424e-05
2.49747e-05
3.63842e-05
5.30193e-05
6.63753e-05
7.2549e-05
7.79219e-05
8.61019e-05
9.24729e-05
9.55766e-05
9.18131e-05
8.67118e-05
7.93947e-05
5.7665e-05
3.96947e-05
6.4392e-05
6.93347e-05
7.83649e-05
8.5947e-05
9.77349e-05
0.000106916
0.000111347
0.00010852
0.000103436
9.40721e-05
6.78058e-05
3.98811e-05
6.71477e-05
7.18883e-05
8.05632e-05
8.89478e-05
0.00010227
0.00011268
0.000117798
0.000115348
0.000110403
9.9611e-05
7.17346e-05
4.03487e-05
6.84767e-05
7.33967e-05
8.22442e-05
9.09094e-05
0.000104825
0.00011553
0.000121053
0.000118669
0.000113565
0.000101871
7.33412e-05
4.05625e-05
6.89767e-05
7.40315e-05
8.30447e-05
9.1865e-05
0.000106052
0.000116765
0.000122462
0.000120037
0.000114843
0.00010265
7.38142e-05
4.05625e-05
6.89769e-05
7.40318e-05
8.30453e-05
9.18658e-05
0.000106054
0.000116766
0.000122464
0.000120039
0.000114845
0.000102653
7.38182e-05
4.03487e-05
6.84772e-05
7.33977e-05
8.2246e-05
9.09116e-05
0.000104829
0.000115534
0.000121058
0.000118675
0.00011357
0.00010188
7.33527e-05
3.98809e-05
6.71485e-05
7.18898e-05
8.0566e-05
8.89512e-05
0.000102276
0.000112686
0.000117805
0.000115357
0.000110411
9.96242e-05
7.17521e-05
3.96936e-05
6.43929e-05
6.93368e-05
7.83685e-05
8.59514e-05
9.77409e-05
0.000106923
0.000111355
0.00010853
0.000103443
9.40863e-05
6.7826e-05
3.63805e-05
5.30183e-05
6.63798e-05
7.25535e-05
7.79275e-05
8.6107e-05
9.24782e-05
9.55835e-05
9.18208e-05
8.67145e-05
7.94045e-05
5.76821e-05
1.5479e-05
1.7938e-05
2.04513e-05
2.17574e-05
2.31697e-05
2.52027e-05
2.78147e-05
2.93451e-05
2.94158e-05
2.90882e-05
2.81435e-05
2.49774e-05
1.46716e-05
1.69355e-05
1.90567e-05
2.08682e-05
2.2878e-05
2.46431e-05
2.5892e-05
2.67295e-05
2.68589e-05
2.71551e-05
2.72245e-05
2.59176e-05
3.38179e-05
4.91488e-05
6.65761e-05
8.05291e-05
9.44811e-05
0.00010476
0.000111126
0.000109222
0.000100804
9.36361e-05
8.37045e-05
6.51476e-05
3.77739e-05
6.08667e-05
7.72337e-05
9.34528e-05
0.000109612
0.000123186
0.000131976
0.000132204
0.000124154
0.000114602
0.000101924
7.86357e-05
3.90644e-05
6.55013e-05
8.21058e-05
9.86516e-05
0.000116134
0.000131538
0.000141067
0.000142172
0.000134082
0.000123081
0.000109524
8.41883e-05
3.98289e-05
6.75509e-05
8.44656e-05
0.000101401
0.000119475
0.000135695
0.000145391
0.000147051
0.000138735
0.000126857
0.000112823
8.6253e-05
4.0189e-05
6.83299e-05
8.54054e-05
0.000102588
0.000120909
0.000137514
0.00014724
0.000149073
0.000140593
0.000128328
0.000114041
8.68963e-05
4.0189e-05
6.833e-05
8.54057e-05
0.000102588
0.00012091
0.000137515
0.000147241
0.000149075
0.000140595
0.00012833
0.000114043
8.68996e-05
3.98291e-05
6.75512e-05
8.44665e-05
0.000101402
0.000119478
0.000135699
0.000145395
0.000147056
0.00013874
0.000126863
0.000112828
8.62623e-05
3.90645e-05
6.55018e-05
8.21072e-05
9.8653e-05
0.000116138
0.000131545
0.000141074
0.000142178
0.000134089
0.000123089
0.000109533
8.42023e-05
3.77737e-05
6.08673e-05
7.72356e-05
9.34548e-05
0.000109616
0.000123193
0.000131983
0.000132211
0.000124162
0.00011461
0.000101934
7.8651e-05
3.38166e-05
4.91495e-05
6.65795e-05
8.05334e-05
9.44852e-05
0.000104763
0.000111131
0.000109227
0.000100808
9.36364e-05
8.37117e-05
6.51619e-05
1.46716e-05
1.69358e-05
1.90574e-05
2.08694e-05
2.28798e-05
2.46445e-05
2.58925e-05
2.67293e-05
2.68586e-05
2.71549e-05
2.72248e-05
2.59193e-05
1.43837e-05
1.62895e-05
1.80467e-05
1.98671e-05
2.17053e-05
2.29997e-05
2.35571e-05
2.38814e-05
2.42291e-05
2.50287e-05
2.5974e-05
2.55515e-05
4.70123e-05
6.42594e-05
7.92795e-05
9.41403e-05
0.000108327
0.000116611
0.000115826
0.00011062
0.000100893
9.4588e-05
8.73835e-05
6.9686e-05
5.52298e-05
7.92736e-05
9.71059e-05
0.000115349
0.000133234
0.000144028
0.000144085
0.000139138
0.000128566
0.000120123
0.000108726
8.43053e-05
5.83262e-05
8.59334e-05
0.000105386
0.000124885
0.000144549
0.000156638
0.000156785
0.000151593
0.000140458
0.000131008
0.000116957
9.0255e-05
5.99089e-05
8.91773e-05
0.00010933
0.000129509
0.000150036
0.000162689
0.000162925
0.000157525
0.000145762
0.000135711
0.000120364
9.23719e-05
6.06387e-05
9.05029e-05
0.000110897
0.000131392
0.000152296
0.000165207
0.000165458
0.000159929
0.0001478
0.000137498
0.000121566
9.29625e-05
6.06388e-05
9.05029e-05
0.000110897
0.000131392
0.000152296
0.000165209
0.000165459
0.00015993
0.000147801
0.000137499
0.000121568
9.29656e-05
5.99092e-05
8.91774e-05
0.00010933
0.00012951
0.000150038
0.000162692
0.000162928
0.000157528
0.000145764
0.000135714
0.00012037
9.23807e-05
5.83266e-05
8.59334e-05
0.000105386
0.000124886
0.000144552
0.000156642
0.000156789
0.000151596
0.000140461
0.000131011
0.000116966
9.02676e-05
5.52297e-05
7.92733e-05
9.71061e-05
0.00011535
0.000133237
0.000144032
0.000144089
0.000139142
0.000128568
0.000120126
0.000108736
8.43181e-05
4.70109e-05
6.42581e-05
7.92808e-05
9.41414e-05
0.000108329
0.000116613
0.000115828
0.000110621
0.000100889
9.45852e-05
8.73845e-05
6.96967e-05
1.43836e-05
1.62898e-05
1.80474e-05
1.98684e-05
2.17066e-05
2.30004e-05
2.3557e-05
2.38806e-05
2.42282e-05
2.50278e-05
2.59738e-05
2.55525e-05
1.43821e-05
1.57996e-05
1.74363e-05
1.92375e-05
2.0614e-05
2.12206e-05
2.11588e-05
2.12393e-05
2.17815e-05
2.31656e-05
2.47678e-05
2.4854e-05
5.95623e-05
7.81511e-05
9.0457e-05
0.000102185
0.000111727
0.000113434
0.000106465
9.84554e-05
9.28463e-05
8.85837e-05
8.38393e-05
7.11689e-05
7.33996e-05
0.000102037
0.000118538
0.000133192
0.000144965
0.000146692
0.000138465
0.000128895
0.000121213
0.000114217
0.000106059
8.62868e-05
7.89369e-05
0.000112311
0.000131321
0.000147649
0.000160899
0.000162614
0.000153656
0.00014254
0.000133308
0.000125277
0.000115556
9.23551e-05
8.16575e-05
0.000117409
0.000137559
0.000154703
0.000168764
0.000170531
0.000161044
0.000148828
0.000138394
0.000130194
0.000119581
9.46917e-05
8.28456e-05
0.000119567
0.000140118
0.000157594
0.000172007
0.000173858
0.000164013
0.000151325
0.000140235
0.000132034
0.000121056
9.5444e-05
8.28457e-05
0.000119567
0.000140118
0.000157594
0.000172007
0.000173859
0.000164013
0.000151325
0.000140235
0.000132034
0.000121056
9.54463e-05
8.1658e-05
0.000117409
0.00013756
0.000154703
0.000168765
0.000170533
0.000161044
0.000148827
0.000138393
0.000130194
0.000119582
9.46989e-05
7.89375e-05
0.000112312
0.000131322
0.00014765
0.0001609
0.000162617
0.000153657
0.000142539
0.000133306
0.000125277
0.000115558
9.23669e-05
7.33996e-05
0.000102037
0.000118539
0.000133194
0.000144968
0.000146695
0.000138466
0.000128893
0.000121211
0.000114216
0.000106061
8.63015e-05
5.95604e-05
7.81483e-05
9.04581e-05
0.000102187
0.00011173
0.000113435
0.000106466
9.84503e-05
9.28387e-05
8.85784e-05
8.38382e-05
7.11805e-05
1.43819e-05
1.57998e-05
1.74372e-05
1.92387e-05
2.06151e-05
2.12212e-05
2.11586e-05
2.12386e-05
2.17804e-05
2.31639e-05
2.47671e-05
2.48541e-05
1.41094e-05
1.53209e-05
1.68247e-05
1.84989e-05
1.94725e-05
1.9473e-05
1.89358e-05
1.90685e-05
2.00258e-05
2.20794e-05
2.37736e-05
2.40121e-05
6.4597e-05
8.47151e-05
9.3649e-05
9.96588e-05
0.000103207
9.73849e-05
8.69755e-05
7.92957e-05
7.60594e-05
7.99305e-05
7.87525e-05
6.88768e-05
8.28357e-05
0.000116618
0.000129561
0.000137149
0.000140332
0.000132215
0.000118984
0.000108132
0.000103552
0.000103522
9.93973e-05
8.59871e-05
9.05658e-05
0.00013085
0.00014681
0.000155837
0.000159483
0.000150266
0.000135592
0.000120601
0.000115667
0.000113681
0.000108134
9.30474e-05
9.4211e-05
0.000137829
0.000155389
0.000165192
0.000169254
0.000159565
0.000143781
0.000125945
0.000120794
0.00011802
0.000111699
9.56074e-05
9.57326e-05
0.000140739
0.00015895
0.000169073
0.000173329
0.000163487
0.000147062
0.000127917
0.000122622
0.000119589
0.000112945
9.63677e-05
9.57329e-05
0.00014074
0.000158951
0.000169074
0.000173329
0.000163487
0.000147062
0.000127916
0.000122621
0.000119588
0.000112945
9.63692e-05
9.42117e-05
0.00013783
0.00015539
0.000165192
0.000169255
0.000159566
0.000143781
0.000125942
0.00012079
0.000118018
0.0001117
9.56116e-05
9.05665e-05
0.000130851
0.000146812
0.000155839
0.000159485
0.000150269
0.000135592
0.000120597
0.000115662
0.000113678
0.000108135
9.30535e-05
8.28357e-05
0.000116618
0.000129562
0.000137152
0.000140336
0.000132219
0.000118985
0.000108126
0.000103545
0.000103517
9.93972e-05
8.59941e-05
6.45938e-05
8.47105e-05
9.36505e-05
9.9664e-05
0.000103214
9.73896e-05
8.69773e-05
7.92869e-05
7.60513e-05
7.99229e-05
7.875e-05
6.88824e-05
1.4109e-05
1.53212e-05
1.68257e-05
1.85002e-05
1.94736e-05
1.94738e-05
1.89357e-05
1.9068e-05
2.00248e-05
2.2078e-05
2.3773e-05
2.40123e-05
1.40128e-05
1.47585e-05
1.621e-05
1.78383e-05
1.85363e-05
1.83838e-05
1.7787e-05
1.80056e-05
1.92844e-05
2.13549e-05
2.30196e-05
2.32564e-05
6.87149e-05
8.45301e-05
8.95971e-05
9.17021e-05
9.02424e-05
8.19737e-05
6.83372e-05
6.043e-05
6.17405e-05
7.10506e-05
7.18686e-05
6.37188e-05
8.77955e-05
0.000120251
0.000129027
0.000130673
0.000126841
0.000114494
9.78761e-05
8.61432e-05
8.51241e-05
9.17618e-05
9.10185e-05
8.07619e-05
9.64321e-05
0.000137124
0.000148998
0.000151255
0.000146884
0.000132523
0.000113533
9.68999e-05
9.50713e-05
0.000100615
9.90711e-05
8.75391e-05
0.000100536
0.000145434
0.000159186
0.000161906
0.000157395
0.000142065
0.000121565
0.000101055
9.90342e-05
0.000104096
0.000102178
8.98425e-05
0.000102227
0.00014888
0.000163458
0.000166383
0.000161842
0.000146139
0.00012493
0.000102409
0.000100338
0.000105212
0.000103184
9.04766e-05
0.000102228
0.00014888
0.000163458
0.000166383
0.000161842
0.00014614
0.00012493
0.000102408
0.000100337
0.000105211
0.000103184
9.04773e-05
0.000100536
0.000145436
0.000159188
0.000161908
0.000157397
0.000142068
0.000121566
0.000101052
9.90304e-05
0.000104093
0.000102177
8.98442e-05
9.64328e-05
0.000137126
0.000149001
0.000151258
0.000146889
0.000132527
0.000113536
9.6896e-05
9.50659e-05
0.000100611
9.90704e-05
8.7542e-05
8.77952e-05
0.00012025
0.00012903
0.000130679
0.000126849
0.000114501
9.78803e-05
8.61383e-05
8.5118e-05
9.17563e-05
9.10173e-05
8.07653e-05
6.8711e-05
8.45241e-05
8.95996e-05
9.17105e-05
9.02535e-05
8.19831e-05
6.83422e-05
6.04239e-05
6.1733e-05
7.10434e-05
7.1866e-05
6.37221e-05
1.40123e-05
1.47587e-05
1.6211e-05
1.78396e-05
1.85375e-05
1.83847e-05
1.77873e-05
1.80051e-05
1.92833e-05
2.13536e-05
2.30189e-05
2.32563e-05
1.35861e-05
1.42274e-05
1.5616e-05
1.723e-05
1.79225e-05
1.77895e-05
1.73586e-05
1.7586e-05
1.88111e-05
2.04359e-05
2.16061e-05
2.16367e-05
7.30659e-05
8.50144e-05
8.54407e-05
8.5596e-05
8.16174e-05
7.33432e-05
5.97213e-05
5.20024e-05
5.36014e-05
6.15154e-05
6.36194e-05
5.66383e-05
9.20296e-05
0.000120397
0.000124366
0.000122593
0.000115979
0.000103243
8.61812e-05
7.33214e-05
7.25192e-05
7.96693e-05
8.11213e-05
7.19099e-05
0.000100714
0.000137975
0.000144961
0.000143009
0.000135373
0.000120199
0.000100247
8.27903e-05
7.98663e-05
8.71162e-05
8.82266e-05
7.73699e-05
0.000104927
0.000146824
0.000155727
0.000153848
0.000145745
0.000129269
0.000107588
8.65748e-05
8.22424e-05
8.96629e-05
9.06625e-05
7.869e-05
0.000106672
0.000150524
0.000160295
0.00015848
0.000150196
0.000133174
0.000110746
8.78768e-05
8.27635e-05
9.02864e-05
9.1296e-05
7.88146e-05
0.000106672
0.000150524
0.000160295
0.00015848
0.000150197
0.000133175
0.000110748
8.78771e-05
8.27624e-05
9.0285e-05
9.12951e-05
7.88142e-05
0.000104928
0.000146825
0.00015573
0.000153851
0.000145749
0.000129273
0.000107593
8.65755e-05
8.2239e-05
8.9659e-05
9.06604e-05
7.86889e-05
0.000100715
0.000137976
0.000144965
0.000143015
0.00013538
0.000120207
0.000100253
8.27918e-05
7.98616e-05
8.71107e-05
8.82238e-05
7.73689e-05
9.2029e-05
0.000120397
0.00012437
0.000122602
0.000115991
0.000103254
8.61901e-05
7.33242e-05
7.25138e-05
7.96629e-05
8.11182e-05
7.19097e-05
7.30614e-05
8.50078e-05
8.54439e-05
8.56072e-05
8.16318e-05
7.33566e-05
5.97314e-05
5.20058e-05
5.35953e-05
6.15087e-05
6.3616e-05
5.66395e-05
1.35854e-05
1.42276e-05
1.56171e-05
1.72314e-05
1.79236e-05
1.77904e-05
1.7359e-05
1.75855e-05
1.88098e-05
2.04343e-05
2.16043e-05
2.16354e-05
1.33924e-05
1.36124e-05
1.48897e-05
1.65571e-05
1.74094e-05
1.75009e-05
1.71971e-05
1.71703e-05
1.78441e-05
1.88689e-05
1.95225e-05
1.91869e-05
7.64107e-05
8.50548e-05
8.32276e-05
8.24697e-05
7.71192e-05
6.91879e-05
5.73119e-05
5.01797e-05
4.81548e-05
5.26685e-05
5.40294e-05
4.85589e-05
9.60555e-05
0.000120594
0.000121158
0.000118041
0.000110548
9.80451e-05
8.22841e-05
6.88471e-05
6.37196e-05
6.76395e-05
6.87702e-05
6.01309e-05
0.000104878
0.000138252
0.000141568
0.000137764
0.000129325
0.000114246
9.56811e-05
7.75435e-05
6.97334e-05
7.33338e-05
7.44111e-05
6.35942e-05
0.000109137
0.000147288
0.000152379
0.000148375
0.000139394
0.000122885
0.000102802
8.1281e-05
7.18903e-05
7.49123e-05
7.59268e-05
6.38955e-05
0.000110903
0.000151098
0.000157017
0.000152958
0.000143747
0.000126622
0.000105919
8.26841e-05
7.24801e-05
7.50914e-05
7.60947e-05
6.36277e-05
0.000110903
0.000151099
0.000157018
0.00015296
0.000143749
0.000126624
0.000105921
8.26853e-05
7.24801e-05
7.50902e-05
7.60936e-05
6.36273e-05
0.000109137
0.000147289
0.000152382
0.000148379
0.000139399
0.00012289
0.000102808
8.12842e-05
7.18905e-05
7.49089e-05
7.59237e-05
6.38942e-05
0.000104879
0.000138253
0.000141572
0.00013777
0.000129334
0.000114255
9.569e-05
7.75487e-05
6.97331e-05
7.3329e-05
7.44069e-05
6.35926e-05
9.60548e-05
0.000120593
0.000121162
0.000118051
0.000110562
9.80579e-05
8.22957e-05
6.88536e-05
6.37188e-05
6.76346e-05
6.8766e-05
6.01297e-05
7.64061e-05
8.50473e-05
8.32309e-05
8.24834e-05
7.71363e-05
6.92039e-05
5.73248e-05
5.01857e-05
4.8154e-05
5.26648e-05
5.40263e-05
4.85591e-05
1.33916e-05
1.36125e-05
1.48907e-05
1.65583e-05
1.74103e-05
1.75018e-05
1.71976e-05
1.71703e-05
1.78431e-05
1.88675e-05
1.9521e-05
1.91861e-05
1.29698e-05
1.30918e-05
1.42106e-05
1.57599e-05
1.69617e-05
1.72703e-05
1.70819e-05
1.69533e-05
1.71313e-05
1.75575e-05
1.78411e-05
1.73672e-05
7.96869e-05
8.54134e-05
8.24492e-05
8.08948e-05
7.57861e-05
6.81315e-05
5.82273e-05
5.09441e-05
4.68992e-05
4.71605e-05
4.7014e-05
4.36089e-05
0.000100201
0.000121045
0.000119699
0.000116034
0.000109045
9.69216e-05
8.30264e-05
6.86392e-05
6.09372e-05
5.88703e-05
5.84157e-05
5.20254e-05
0.00010925
0.000138898
0.000139896
0.000135456
0.00012754
0.000113022
9.64529e-05
7.7136e-05
6.68298e-05
6.33578e-05
6.2726e-05
5.47765e-05
0.000113574
0.000148063
0.000150696
0.000145947
0.000137496
0.000121653
0.000103611
8.10834e-05
6.926e-05
6.47582e-05
6.38823e-05
5.53965e-05
0.000115362
0.000151947
0.000155361
0.0001505
0.000141818
0.000125433
0.000106739
8.27176e-05
7.01501e-05
6.50346e-05
6.40491e-05
5.54786e-05
0.000115363
0.000151948
0.000155362
0.000150502
0.00014182
0.000125436
0.000106741
8.27198e-05
7.01513e-05
6.50345e-05
6.4049e-05
5.54792e-05
0.000113575
0.000148064
0.000150699
0.000145952
0.000137502
0.00012166
0.000103617
8.1089e-05
6.92633e-05
6.4758e-05
6.38818e-05
5.53981e-05
0.00010925
0.000138899
0.0001399
0.000135464
0.000127551
0.000113032
9.64632e-05
7.71441e-05
6.68341e-05
6.33573e-05
6.27251e-05
5.47787e-05
0.0001002
0.000121044
0.000119703
0.000116045
0.00010906
9.6936e-05
8.30399e-05
6.8648e-05
6.09416e-05
5.88702e-05
5.84147e-05
5.2028e-05
7.96833e-05
8.54054e-05
8.24521e-05
8.09091e-05
7.58056e-05
6.81488e-05
5.82422e-05
5.09515e-05
4.6904e-05
4.71618e-05
4.7014e-05
4.36119e-05
1.29687e-05
1.30917e-05
1.42115e-05
1.57611e-05
1.69624e-05
1.72709e-05
1.70826e-05
1.69538e-05
1.71313e-05
1.75572e-05
1.78408e-05
1.73675e-05
1.26862e-05
1.24914e-05
1.34345e-05
1.47962e-05
1.62613e-05
1.68809e-05
1.6986e-05
1.68524e-05
1.6876e-05
1.70009e-05
1.69941e-05
1.64811e-05
8.22666e-05
8.55027e-05
8.20296e-05
7.99299e-05
7.62709e-05
6.92153e-05
6.14802e-05
5.47168e-05
4.97547e-05
4.72083e-05
4.61804e-05
4.50546e-05
0.00010433
0.000121659
0.00011922
0.000115091
0.000109522
9.87677e-05
8.66017e-05
7.28122e-05
6.32521e-05
5.77018e-05
5.57608e-05
5.28193e-05
0.000113801
0.000139832
0.000139429
0.000134573
0.000127986
0.000115223
0.000100451
8.30321e-05
6.98134e-05
6.2706e-05
6.00033e-05
5.64147e-05
0.000118243
0.000149165
0.000150287
0.000145133
0.000137943
0.00012414
0.000107879
8.85514e-05
7.30391e-05
6.49702e-05
6.18165e-05
5.81407e-05
0.000120066
0.000153128
0.000154999
0.000149742
0.000142263
0.000128083
0.000111143
9.10658e-05
7.44347e-05
6.58578e-05
6.25151e-05
5.88763e-05
0.000120067
0.000153129
0.000155
0.000149744
0.000142265
0.000128085
0.000111145
9.10687e-05
7.44368e-05
6.58592e-05
6.25163e-05
5.88778e-05
0.000118244
0.000149167
0.00015029
0.000145137
0.000137949
0.000124147
0.000107886
8.85597e-05
7.3045e-05
6.49742e-05
6.182e-05
5.8145e-05
0.000113802
0.000139833
0.000139433
0.000134581
0.000127997
0.000115234
0.000100463
8.30444e-05
6.98218e-05
6.27117e-05
6.00081e-05
5.64209e-05
0.000104329
0.000121658
0.000119224
0.000115102
0.000109536
9.87829e-05
8.66171e-05
7.28262e-05
6.32612e-05
5.77082e-05
5.57661e-05
5.28265e-05
8.22628e-05
8.54943e-05
8.20315e-05
7.99437e-05
7.62903e-05
6.92342e-05
6.14966e-05
5.47284e-05
4.9764e-05
4.72142e-05
4.61855e-05
4.50611e-05
1.26852e-05
1.24911e-05
1.34353e-05
1.47973e-05
1.62621e-05
1.68815e-05
1.69867e-05
1.68532e-05
1.68767e-05
1.70014e-05
1.69947e-05
1.64821e-05
1.22879e-05
1.19869e-05
1.27374e-05
1.38431e-05
1.5199e-05
1.62184e-05
1.65947e-05
1.66927e-05
1.66816e-05
1.67398e-05
1.64993e-05
1.57793e-05
8.45413e-05
8.54199e-05
8.19889e-05
7.94404e-05
7.67454e-05
7.20094e-05
6.61227e-05
6.02397e-05
5.54545e-05
5.16835e-05
5.05595e-05
5.16625e-05
0.000108397
0.000122253
0.000119322
0.000114838
0.000110091
0.000102272
9.18069e-05
8.0387e-05
7.00367e-05
6.33085e-05
6.08037e-05
6.11391e-05
0.00011843
0.000140882
0.000139714
0.000134595
0.000128604
0.000119179
0.000106196
9.19512e-05
7.85047e-05
6.95162e-05
6.6135e-05
6.6186e-05
0.000123044
0.000150431
0.000150704
0.000145353
0.000138645
0.000128364
0.000114021
9.83104e-05
8.31338e-05
7.26886e-05
6.87772e-05
6.89042e-05
0.000124917
0.000154484
0.000155488
0.000150065
0.000143032
0.000132413
0.000117492
0.000101201
8.52734e-05
7.41144e-05
6.99337e-05
7.0183e-05
0.000124917
0.000154484
0.00015549
0.000150067
0.000143034
0.000132416
0.000117494
0.000101204
8.52764e-05
7.4117e-05
6.99359e-05
7.01853e-05
0.000123045
0.000150432
0.000150707
0.000145358
0.000138651
0.000128371
0.000114029
9.83194e-05
8.31426e-05
7.26961e-05
6.87835e-05
6.89107e-05
0.00011843
0.000140883
0.000139718
0.000134603
0.000128614
0.000119191
0.000106209
9.19649e-05
7.85177e-05
6.95269e-05
6.61441e-05
6.61956e-05
0.000108396
0.000122251
0.000119326
0.000114848
0.000110105
0.000102287
9.18223e-05
8.04031e-05
7.00512e-05
6.33201e-05
6.08138e-05
6.11498e-05
8.45372e-05
8.54124e-05
8.19897e-05
7.94532e-05
7.6764e-05
7.20287e-05
6.61398e-05
6.02543e-05
5.54658e-05
5.16933e-05
5.05679e-05
5.16709e-05
1.22868e-05
1.19863e-05
1.2738e-05
1.38443e-05
1.51998e-05
1.62188e-05
1.65953e-05
1.66934e-05
1.66824e-05
1.67405e-05
1.65002e-05
1.57804e-05
1.1956e-05
1.1487e-05
1.20602e-05
1.29401e-05
1.39882e-05
1.5141e-05
1.58278e-05
1.61221e-05
1.62281e-05
1.62171e-05
1.57206e-05
1.48006e-05
8.61426e-05
8.45722e-05
8.17713e-05
7.93991e-05
7.6766e-05
7.40043e-05
7.07186e-05
6.678e-05
6.27355e-05
5.94323e-05
5.83226e-05
6.09148e-05
0.000112138
0.000122572
0.000119716
0.000115184
0.000110456
0.000105246
9.75684e-05
8.88185e-05
8.05079e-05
7.38275e-05
7.10974e-05
7.41594e-05
0.000122903
0.000141826
0.000140467
0.00013525
0.00012932
0.000122548
0.000112709
0.000101547
9.1016e-05
8.2026e-05
7.82735e-05
8.14904e-05
0.00012775
0.00015165
0.000151653
0.000146228
0.000139613
0.00013196
0.000121022
0.000108554
9.69304e-05
8.64858e-05
8.22098e-05
8.5355e-05
0.000129691
0.000155808
0.000156528
0.000151055
0.000144133
0.000136094
0.000124739
0.000111709
9.96833e-05
8.85579e-05
8.4073e-05
8.71587e-05
0.000129691
0.000155808
0.000156529
0.000151057
0.000144135
0.000136096
0.000124742
0.000111712
9.96864e-05
8.8561e-05
8.40759e-05
8.71618e-05
0.000127751
0.000151651
0.000151656
0.000146233
0.000139619
0.000131967
0.00012103
0.000108562
9.69398e-05
8.64949e-05
8.22185e-05
8.53638e-05
0.000122903
0.000141826
0.000140471
0.000135259
0.000129331
0.000122559
0.000112721
0.00010156
9.103e-05
8.20393e-05
7.82863e-05
8.1503e-05
0.000112136
0.00012257
0.000119719
0.000115194
0.00011047
0.00010526
9.75837e-05
8.88336e-05
8.0524e-05
7.38423e-05
7.11116e-05
7.41724e-05
8.61382e-05
8.45648e-05
8.17709e-05
7.94108e-05
7.67841e-05
7.40233e-05
7.07354e-05
6.67945e-05
6.27488e-05
5.94444e-05
5.8334e-05
6.09241e-05
1.1955e-05
1.14863e-05
1.20607e-05
1.29411e-05
1.39892e-05
1.51413e-05
1.58282e-05
1.61227e-05
1.6229e-05
1.62178e-05
1.57215e-05
1.48015e-05
1.16122e-05
1.1041e-05
1.14367e-05
1.21299e-05
1.2988e-05
1.38755e-05
1.46049e-05
1.50017e-05
1.5172e-05
1.51341e-05
1.45547e-05
1.35755e-05
8.69832e-05
8.29716e-05
8.11804e-05
7.92492e-05
7.69698e-05
7.50601e-05
7.34048e-05
7.19975e-05
7.01485e-05
6.82625e-05
6.80507e-05
6.89998e-05
0.000115184
0.000122286
0.000120088
0.000115842
0.000111196
0.00010688
0.000102113
9.60616e-05
9.1291e-05
8.621e-05
8.51802e-05
8.84182e-05
0.000126784
0.000142311
0.000141415
0.000136359
0.000130469
0.000124699
0.000118198
0.00010979
0.00010361
9.64747e-05
9.472e-05
9.89076e-05
0.000131918
0.000152475
0.000152879
0.000147607
0.000141037
0.000134438
0.000127025
0.000117374
0.000110501
0.000102107
9.99097e-05
0.000104404
0.000133944
0.000156757
0.000157867
0.000152563
0.000145694
0.000138724
0.000130952
0.000120793
0.000113656
0.00010471
0.000102313
0.000106892
0.000133945
0.000156757
0.000157868
0.000152565
0.000145696
0.000138726
0.000130954
0.000120796
0.000113659
0.000104714
0.000102316
0.000106895
0.000131919
0.000152476
0.000152881
0.000147613
0.000141043
0.000134444
0.000127032
0.000117382
0.000110509
0.000102117
9.99194e-05
0.000104412
0.000126784
0.00014231
0.000141418
0.000136366
0.00013048
0.00012471
0.000118208
0.000109801
0.000103622
9.64892e-05
9.4734e-05
9.89177e-05
0.000115182
0.000122282
0.00012009
0.000115851
0.000111209
0.000106894
0.000102127
9.60758e-05
9.13057e-05
8.6226e-05
8.51948e-05
8.84267e-05
8.69783e-05
8.29637e-05
8.11789e-05
7.92598e-05
7.69873e-05
7.50787e-05
7.34214e-05
7.20109e-05
7.01606e-05
6.82748e-05
6.80612e-05
6.90052e-05
1.16113e-05
1.10404e-05
1.1437e-05
1.21308e-05
1.2989e-05
1.3876e-05
1.46051e-05
1.50022e-05
1.51728e-05
1.51347e-05
1.45555e-05
1.35762e-05
1.12811e-05
1.05978e-05
1.08773e-05
1.14022e-05