/*--------------------------------*- C++ -*----------------------------------*\
| =========                 |                                                 |
| \\      /  F ield         | OpenFOAM: The Open Source CFD Toolbox           |
|  \\    /   O peration     | Version:  2.3.1                                 |
|   \\  /    A nd           | Web:      www.OpenFOAM.org                      |
|    \\/     M anipulation  |                                                 |
\*---------------------------------------------------------------------------*/
FoamFile
{
    version     2.0;
    format      ascii;
    class       surfaceScalarField;
    location    "10";
    object      phi;
}
// * * * * * * * * * * * * * * * * * * * * * * * * * * * * * * * * * * * * * //

dimensions      [0 3 -1 0 0 0 0];

internalField   nonuniform List<scalar> 
108641
(
2.08732e-05
-1.82699e-08
-2.27193e-08
2.01623e-05
2.34901e-07
4.75984e-07
2.05012e-05
-9.84161e-08
-2.4045e-07
2.09696e-05
-2.48601e-07
-2.19795e-07
2.08372e-05
-1.44666e-08
1.46777e-07
2.17116e-05
3.24104e-08
-9.06751e-07
2.23709e-05
2.46792e-07
-9.06077e-07
2.27728e-05
1.40414e-07
-5.42307e-07
2.28116e-05
3.62211e-08
-7.50428e-08
2.14156e-05
1.15422e-07
1.28057e-06
1.90502e-05
6.35279e-09
2.35906e-06
3.38823e-07
4.25053e-06
1.44608e-05
2.07218e-05
-2.33445e-08
1.15484e-07
2.04056e-05
2.38485e-07
3.12619e-07
2.06366e-05
-8.26345e-08
-2.46787e-07
2.10117e-05
-1.9541e-07
-4.2833e-07
2.11568e-05
8.40899e-08
-2.43628e-07
2.18042e-05
-1.02153e-09
-6.14003e-07
2.25011e-05
1.59522e-07
-6.09597e-07
2.29412e-05
1.38737e-07
-4.38425e-07
2.29237e-05
-4.26301e-08
9.63218e-08
2.17191e-05
8.33386e-08
1.23669e-06
1.9263e-05
-2.76634e-09
2.46521e-06
1.7936e-07
4.40214e-06
1.50203e-05
2.0678e-05
-2.29018e-08
1.53789e-07
2.04768e-05
1.6577e-07
2.73887e-07
2.06303e-05
-4.93636e-08
-1.86786e-07
2.09339e-05
-1.1538e-07
-3.83592e-07
2.1167e-05
1.32667e-07
-2.81697e-07
2.17144e-05
-3.72992e-09
-5.44683e-07
2.24299e-05
7.89637e-08
-6.34968e-07
2.29668e-05
1.50603e-07
-5.48815e-07
2.28886e-05
-3.77036e-08
7.32914e-08
2.17438e-05
6.23849e-08
1.1658e-06
1.9253e-05
2.27259e-08
2.46528e-06
8.78133e-09
4.46299e-06
1.49606e-05
2.06445e-05
-1.68901e-08
1.81676e-07
2.04412e-05
1.01297e-07
2.67758e-07
2.05992e-05
-2.8919e-08
-1.78424e-07
2.09233e-05
-6.2449e-08
-3.77014e-07
2.12353e-05
9.80584e-08
-2.77418e-07
2.17109e-05
-8.82477e-09
-4.70552e-07
2.23682e-05
4.11758e-08
-6.19473e-07
2.29469e-05
1.17801e-07
-5.45845e-07
2.2782e-05
-1.95343e-08
1.46726e-07
2.16687e-05
4.25092e-08
1.13312e-06
1.92109e-05
2.54812e-08
2.45509e-06
-3.12121e-08
4.53735e-06
1.47135e-05
2.06358e-05
-8.04775e-09
1.87519e-07
2.04342e-05
4.4785e-08
2.58181e-07
2.05913e-05
-1.2815e-08
-1.7323e-07
2.09143e-05
-2.27072e-08
-3.62804e-07
2.12273e-05
5.24298e-08
-2.673e-07
2.16805e-05
-8.66291e-09
-4.53401e-07
2.2334e-05
1.51621e-08
-6.27501e-07
2.29291e-05
5.81042e-08
-5.35326e-07
2.27448e-05
-1.07449e-08
1.75464e-07
2.16457e-05
2.29389e-08
1.11865e-06
1.91886e-05
1.40595e-08
2.46859e-06
-2.53282e-08
4.56683e-06
1.46158e-05
2.06337e-05
-6.60842e-11
1.90518e-07
2.04214e-05
-1.11397e-10
2.57151e-07
2.05798e-05
-1.86004e-10
-1.70961e-07
2.0917e-05
-2.30451e-10
-3.5975e-07
2.12344e-05
-3.70705e-10
-2.64541e-07
2.16768e-05
-3.70674e-10
-4.50726e-07
2.23282e-05
-3.37878e-10
-6.35876e-07
2.29154e-05
-5.34907e-10
-5.28556e-07
2.27148e-05
-3.84985e-10
1.90216e-07
2.16261e-05
-3.39728e-10
1.11195e-06
1.91593e-05
-3.26282e-10
2.48122e-06
2.1197e-10
4.58674e-06
1.4547e-05
2.06337e-05
7.92546e-09
1.90508e-07
2.04214e-05
-4.49924e-08
2.57147e-07
2.05797e-05
1.24616e-08
-1.70963e-07
2.0917e-05
2.22797e-08
-3.59797e-07
2.12344e-05
-5.31351e-08
-2.6459e-07
2.16768e-05
7.96675e-09
-4.50764e-07
2.23282e-05
-1.57919e-08
-6.35951e-07
2.29155e-05
-5.91275e-08
-5.28648e-07
2.27149e-05
1.00152e-08
1.90114e-07
2.16264e-05
-2.35858e-08
1.11183e-06
1.91597e-05
-1.46929e-08
2.48107e-06
2.57313e-08
4.58663e-06
1.45475e-05
2.06358e-05
1.67903e-08
1.87484e-07
2.04341e-05
-1.01468e-07
2.58172e-07
2.05912e-05
2.86045e-08
-1.732e-07
2.09143e-05
6.21245e-08
-3.62956e-07
2.12273e-05
-9.86392e-08
-2.67449e-07
2.16805e-05
8.20926e-09
-4.53498e-07
2.23341e-05
-4.16446e-08
-6.27723e-07
2.29292e-05
-1.1866e-07
-5.35592e-07
2.27452e-05
1.89123e-08
1.75159e-07
2.16463e-05
-4.30312e-08
1.11828e-06
1.91895e-05
-2.6052e-08
2.46814e-06
3.15562e-08
4.56652e-06
1.46172e-05
2.06445e-05
2.28408e-08
1.81622e-07
2.04412e-05
-1.65875e-07
2.67745e-07
2.05991e-05
4.90987e-08
-1.78378e-07
2.09232e-05
1.15187e-07
-3.77225e-07
2.12353e-05
-1.33087e-07
-2.77631e-07
2.17109e-05
3.30053e-09
-4.70718e-07
2.23683e-05
-7.92267e-08
-6.19798e-07
2.29471e-05
-1.51231e-07
-5.46238e-07
2.27825e-05
3.72901e-08
1.46221e-07
2.16697e-05
-6.2747e-08
1.13256e-06
1.92124e-05
-2.32037e-08
2.4544e-06
-8.51054e-09
4.53685e-06
1.47156e-05
2.0678e-05
2.33188e-08
1.53728e-07
2.04767e-05
-2.38527e-07
2.7389e-07
2.06301e-05
8.24496e-08
-1.86723e-07
2.09338e-05
1.95367e-07
-3.83872e-07
2.1167e-05
-8.43281e-08
-2.8193e-07
2.17143e-05
7.43867e-10
-5.4481e-07
2.243e-05
-1.59546e-07
-6.35357e-07
2.29671e-05
-1.39089e-07
-5.49256e-07
2.28893e-05
4.2501e-08
7.2673e-08
2.1745e-05
-8.35319e-08
1.16508e-06
1.92549e-05
2.42268e-09
2.46445e-06
-1.7909e-07
4.4623e-06
1.49632e-05
2.07218e-05
1.82814e-08
1.15392e-07
2.04056e-05
-2.34883e-07
3.12634e-07
2.06363e-05
9.83295e-08
-2.46651e-07
2.10117e-05
2.48676e-07
-4.28658e-07
2.11568e-05
1.43931e-08
-2.43865e-07
2.18041e-05
-3.2451e-08
-6.14124e-07
2.25013e-05
-2.46673e-07
-6.09997e-07
2.29415e-05
-1.40507e-07
-4.38791e-07
2.29244e-05
-3.60989e-08
9.56651e-08
2.17204e-05
-1.15486e-07
1.23591e-06
1.9265e-05
-6.49011e-09
2.46432e-06
-3.38574e-07
4.40125e-06
1.50233e-05
2.08733e-05
-2.28537e-08
2.01624e-05
4.76086e-07
2.05007e-05
-2.40042e-07
2.09696e-05
-2.20169e-07
2.08373e-05
1.46705e-07
2.17114e-05
-9.06618e-07
2.23712e-05
-9.06398e-07
2.27729e-05
-5.42252e-07
2.28123e-05
-7.54943e-08
2.14169e-05
1.27991e-06
1.90521e-05
2.35831e-06
4.24925e-06
1.44643e-05
2.10066e-05
-1.26641e-08
-1.84459e-07
2.08217e-05
1.56575e-07
5.04305e-07
2.10215e-05
-5.28129e-08
-3.87405e-07
2.1346e-05
-2.22721e-07
-3.2162e-07
2.13205e-05
2.07981e-08
1.51454e-07
2.1977e-05
5.01957e-08
-1.61346e-06
2.28841e-05
2.73601e-07
-2.08671e-06
2.33554e-05
3.12316e-07
-1.32597e-06
2.36677e-05
8.44099e-08
-4.7172e-07
2.27422e-05
1.85651e-07
2.02046e-06
2.04013e-05
1.39308e-07
4.56058e-06
2.96881e-07
7.51846e-06
1.68365e-05
2.08578e-05
-1.3788e-08
9.10306e-08
2.09124e-05
1.42603e-07
2.71998e-07
2.10774e-05
-2.20706e-08
-4.42546e-07
2.13036e-05
-1.62e-07
-7.15234e-07
2.1542e-05
5.02151e-08
-5.11476e-07
2.21033e-05
-7.96067e-09
-1.11712e-06
2.29411e-05
1.7627e-07
-1.35008e-06
2.34795e-05
2.70875e-07
-9.35384e-07
2.35294e-05
1.92247e-08
1.11616e-07
2.27596e-05
1.10767e-07
2.0814e-06
2.07604e-05
5.17045e-08
4.55198e-06
1.48983e-07
8.00602e-06
1.73044e-05
2.08252e-05
-1.60266e-08
1.63003e-07
2.09279e-05
9.32893e-08
2.20507e-07
2.10559e-05
-7.42646e-09
-3.29407e-07
2.12699e-05
-8.94398e-08
-6.70186e-07
2.16138e-05
7.88659e-08
-6.54271e-07
2.21533e-05
-1.61023e-08
-1.076e-06
2.29397e-05
8.61156e-08
-1.33124e-06
2.35074e-05
2.12075e-07
-1.05766e-06
2.34564e-05
-3.87581e-09
1.47363e-07
2.26765e-05
4.88128e-08
2.00762e-06
2.07381e-05
3.1994e-08
4.42344e-06
-1.07617e-09
8.1083e-06
1.72428e-05
2.07908e-05
-1.18782e-08
2.1892e-07
2.08861e-05
5.64304e-08
2.09306e-07
2.10288e-05
-3.988e-09
-3.24563e-07
2.12833e-05
-4.90783e-08
-6.71906e-07
2.16945e-05
6.08708e-08
-6.70605e-07
2.22057e-05
-8.20583e-09
-9.89594e-07
2.29132e-05
5.22226e-08
-1.29312e-06
2.34841e-05
1.52843e-07
-1.0575e-06
2.33724e-05
2.49235e-09
2.5204e-07
2.25669e-05
2.69114e-08
1.96048e-06
2.06859e-05
2.88779e-08
4.33925e-06
-3.10524e-08
8.20893e-06
1.70443e-05
2.07808e-05
-6.07508e-09
2.33128e-07
2.08778e-05
2.51882e-08
1.92372e-07
2.10201e-05
-1.82171e-10
-3.19352e-07
2.12802e-05
-1.82278e-08
-6.53671e-07
2.1696e-05
3.28022e-08
-6.55092e-07
2.21938e-05
-7.13315e-09
-9.5228e-07
2.28784e-05
2.14397e-08
-1.28126e-06
2.34553e-05
7.38218e-08
-1.03325e-06
2.33327e-05
-1.3178e-09
3.01916e-07
2.25173e-05
1.36714e-08
1.94724e-06
2.06506e-05
1.74757e-08
4.34666e-06
-2.38662e-08
8.25009e-06
1.69602e-05
2.07759e-05
-5.56627e-11
2.4083e-07
2.08668e-05
-7.18913e-11
1.91497e-07
2.10123e-05
-1.4072e-10
-3.16575e-07
2.12846e-05
-2.12488e-10
-6.49977e-07
2.1705e-05
-2.99726e-10
-6.51881e-07
2.21932e-05
-3.11907e-10
-9.45781e-07
2.28657e-05
-3.13403e-10
-1.28661e-06
2.3434e-05
-4.57345e-10
-1.02254e-06
2.32987e-05
-3.45626e-10
3.24546e-07
2.24842e-05
-2.91709e-10
1.94039e-06
2.06193e-05
-2.87464e-10
4.36384e-06
1.52922e-10
8.28523e-06
1.68968e-05
2.07758e-05
5.972e-09
2.4082e-07
2.08668e-05
-2.53168e-08
1.91486e-07
2.10123e-05
-1.2261e-10
-3.16565e-07
2.12845e-05
1.78319e-08
-6.50041e-07
2.1705e-05
-3.33683e-08
-6.51968e-07
2.21932e-05
6.5505e-09
-9.4586e-07
2.28657e-05
-2.2021e-08
-1.28673e-06
2.3434e-05
-7.46919e-08
-1.0227e-06
2.32987e-05
6.8193e-10
3.24356e-07
2.24843e-05
-1.42213e-08
1.94018e-06
2.06196e-05
-1.80308e-08
4.36355e-06
2.4156e-08
8.285e-06
1.68972e-05
2.07808e-05
1.17899e-08
2.33099e-07
2.08778e-05
-5.65254e-08
1.92333e-07
2.10201e-05
3.76379e-09
-3.19389e-07
2.12801e-05
4.8767e-08
-6.53894e-07
2.1696e-05
-6.13197e-08
-6.55361e-07
2.21938e-05
7.69906e-09
-9.52483e-07
2.28783e-05
-5.2649e-08
-1.28161e-06
2.34553e-05
-1.53555e-07
-1.03374e-06
2.33328e-05
-3.01695e-09
3.01383e-07
2.25176e-05
-2.73303e-08
1.9466e-06
2.06513e-05
-2.93667e-08
4.34579e-06
3.13021e-08
8.2494e-06
1.69613e-05
2.07908e-05
1.5966e-08
2.18874e-07
2.0886e-05
-9.33235e-08
2.09254e-07
2.10288e-05
7.23548e-09
-3.24561e-07
2.12833e-05
8.92404e-08
-6.72205e-07
2.16945e-05
-7.91679e-08
-6.70981e-07
2.22056e-05
1.57551e-08
-9.89921e-07
2.29131e-05
-8.63303e-08
-1.29364e-06
2.34841e-05
-2.12561e-07
-1.05823e-06
2.33726e-05
3.53496e-09
2.51185e-07
2.25674e-05
-4.90569e-08
1.95949e-06
2.06869e-05
-3.23839e-08
4.3379e-06
1.29266e-09
8.20782e-06
1.7046e-05
2.08252e-05
1.37543e-08
1.62956e-07
2.09278e-05
-1.42564e-07
2.20464e-07
2.10558e-05
2.19587e-08
-3.29419e-07
2.12698e-05
1.61916e-07
-6.70577e-07
2.16138e-05
-5.03472e-08
-6.54689e-07
2.21532e-05
7.78677e-09
-1.0763e-06
2.29396e-05
-1.76224e-07
-1.33187e-06
2.35074e-05
-2.71096e-07
-1.05851e-06
2.34566e-05
-1.93207e-08
1.46339e-07
2.26771e-05
-1.10816e-07
2.00633e-06
2.07394e-05
-5.19535e-08
4.42179e-06
-1.48773e-07
8.10687e-06
1.72449e-05
2.08577e-05
1.26636e-08
9.09484e-08
2.09123e-05
-1.56481e-07
2.71978e-07
2.10773e-05
5.27809e-08
-4.42461e-07
2.13035e-05
2.2276e-07
-7.15697e-07
2.1542e-05
-2.08042e-08
-5.11904e-07
2.21031e-05
-5.02124e-08
-1.1173e-06
2.2941e-05
-2.73395e-07
-1.35069e-06
2.34796e-05
-3.12321e-07
-9.36152e-07
2.35296e-05
-8.43277e-08
1.10616e-07
2.27603e-05
-1.85569e-07
2.07997e-06
2.07619e-05
-1.39425e-07
4.55023e-06
-2.9674e-07
8.0044e-06
1.73067e-05
2.10066e-05
-1.84567e-07
2.08216e-05
5.04533e-07
2.10212e-05
-3.86856e-07
2.1346e-05
-3.22146e-07
2.13206e-05
1.51234e-07
2.19769e-05
-1.61307e-06
2.28842e-05
-2.08709e-06
2.33557e-05
-1.32606e-06
2.36681e-05
-4.72271e-07
2.27434e-05
2.01908e-06
2.04031e-05
4.55914e-06
7.51675e-06
1.68389e-05
2.06122e-05
6.11995e-08
-2.56363e-08
2.07555e-05
1.48552e-07
2.12406e-07
2.06403e-05
7.17632e-08
-3.43955e-07
2.07007e-05
-1.68082e-07
-2.13934e-07
2.09355e-05
-8.66246e-08
3.22245e-09
2.11806e-05
1.56517e-07
-2.01501e-06
2.16819e-05
3.31229e-07
-2.91925e-06
2.20451e-05
2.16406e-07
-1.90554e-06
2.22454e-05
-3.25815e-08
-6.39463e-07
2.20087e-05
-6.97946e-08
2.32691e-06
2.04519e-05
-3.94701e-08
6.15691e-06
3.54967e-07
1.04868e-05
1.71285e-05
2.04785e-05
3.72403e-08
4.68677e-07
2.04433e-05
1.50704e-07
3.05006e-07
2.02767e-05
1.12273e-07
-3.16461e-07
2.01377e-05
-7.37724e-08
-6.70495e-07
2.02564e-05
-9.73164e-10
-7.15823e-07
2.06506e-05
1.43786e-07
-1.49861e-06
2.12791e-05
2.76325e-07
-1.92368e-06
2.17384e-05
1.7693e-07
-1.35522e-06
2.17664e-05
-1.12666e-07
1.63758e-07
2.13594e-05
-1.15551e-07
2.53413e-06
2.01782e-05
-1.24362e-07
5.81809e-06
9.25841e-08
1.07895e-05
1.76571e-05
2.0453e-05
7.23454e-09
5.72209e-07
2.04438e-05
9.97782e-08
2.80654e-07
2.03286e-05
1.00586e-07
-2.02524e-07
2.02219e-05
1.03545e-08
-6.47616e-07
2.03557e-05
6.32742e-08
-8.52347e-07
2.07312e-05
9.78512e-08
-1.40553e-06
2.12965e-05
1.74452e-07
-1.79466e-06
2.16979e-05
1.45444e-07
-1.42762e-06
2.16415e-05
-9.92239e-08
1.90303e-07
2.11733e-05
-9.69524e-08
2.4572e-06
1.99862e-05
-6.39888e-08
5.55017e-06
-3.73895e-08
1.07111e-05
1.75134e-05
2.04416e-05
-2.1407e-09
6.18911e-07
2.03937e-05
6.19858e-08
2.94928e-07
2.02847e-05
5.62633e-08
-1.71155e-07
2.02405e-05
3.94515e-09
-6.21362e-07
2.04347e-05
4.66191e-08
-8.48126e-07
2.07801e-05
6.01952e-08
-1.2973e-06
2.12567e-05
1.13496e-07
-1.70884e-06
2.16433e-05
1.09854e-07
-1.40852e-06
2.15566e-05
-6.50074e-08
3.04578e-07
2.10581e-05
-6.47203e-08
2.42677e-06
1.99203e-05
-2.02227e-08
5.43325e-06
-4.88764e-08
1.07888e-05
1.73519e-05
2.04438e-05
-2.99265e-09
6.22362e-07
2.03797e-05
2.86534e-08
2.89794e-07
2.02544e-05
2.55659e-08
-1.63318e-07
2.0207e-05
5.36957e-09
-6.077e-07
2.04071e-05
2.39892e-08
-8.32615e-07
2.07392e-05
2.4192e-08
-1.24838e-06
2.11917e-05
5.21909e-08
-1.67237e-06
2.15917e-05
5.41896e-08
-1.37759e-06
2.15066e-05
-3.28601e-08
3.54791e-07
2.09964e-05
-2.71544e-08
2.41989e-06
1.98725e-05
1.06224e-09
5.44933e-06
-2.81242e-08
1.08354e-05
1.72664e-05
2.04439e-05
-5.36687e-11
6.26224e-07
2.03666e-05
-5.53196e-11
2.97442e-07
2.02347e-05
-1.45227e-10
-1.5895e-07
2.01936e-05
-2.43802e-10
-6.03227e-07
2.03966e-05
-2.81412e-10
-8.30689e-07
2.07153e-05
-3.12601e-10
-1.2399e-06
2.1152e-05
-3.54884e-10
-1.67081e-06
2.15519e-05
-4.18642e-10
-1.36782e-06
2.14667e-05
-3.27416e-10
3.77224e-07
2.09612e-05
-2.67846e-10
2.41897e-06
1.9846e-05
-2.51519e-10
5.48035e-06
1.19418e-10
1.08899e-05
1.72131e-05
2.04438e-05
2.8921e-09
6.26214e-07
2.03666e-05
-2.87547e-08
2.97434e-07
2.02347e-05
-2.58336e-08
-1.58969e-07
2.01935e-05
-5.81693e-09
-6.03303e-07
2.03966e-05
-2.45147e-08
-8.3079e-07
2.07152e-05
-2.47803e-08
-1.24001e-06
2.11519e-05
-5.28472e-08
-1.67096e-06
2.15518e-05
-5.49754e-08
-1.36804e-06
2.14666e-05
3.22467e-08
3.7696e-07
2.09612e-05
2.66567e-08
2.41869e-06
1.98461e-05
-1.55495e-09
5.47995e-06
2.83476e-08
1.08895e-05
1.72133e-05
2.04438e-05
2.05138e-09
6.22333e-07
2.03797e-05
-6.20545e-08
2.8976e-07
2.02543e-05
-5.6494e-08
-1.63397e-07
2.02069e-05
-4.32587e-09
-6.07932e-07
2.0407e-05
-4.70269e-08
-8.32924e-07
2.0739e-05
-6.06498e-08
-1.24868e-06
2.11914e-05
-1.13981e-07
-1.67281e-06
2.15913e-05
-1.10465e-07
-1.37822e-06
2.15064e-05
6.45166e-08
3.54034e-07
2.09963e-05
6.43361e-08
2.41907e-06
1.98726e-05
1.97864e-08
5.44815e-06
4.90598e-08
1.08343e-05
1.7267e-05
2.04416e-05
-7.29742e-09
6.18855e-07
2.03937e-05
-9.97919e-08
2.94879e-07
2.02846e-05
-1.00744e-07
-1.71242e-07
2.02404e-05
-1.06018e-08
-6.21697e-07
2.04344e-05
-6.3522e-08
-8.48554e-07
2.07797e-05
-9.81212e-08
-1.29775e-06
2.12563e-05
-1.74688e-07
-1.70949e-06
2.16429e-05
-1.45806e-07
-1.40946e-06
2.15563e-05
9.89609e-08
3.03329e-07
2.10579e-05
9.67395e-08
2.42551e-06
1.99205e-05
6.36582e-08
5.43141e-06
3.75456e-08
1.0787e-05
1.73528e-05
2.0453e-05
-3.72753e-08
5.72148e-07
2.04437e-05
-1.5064e-07
2.80608e-07
2.03285e-05
-1.12335e-07
-2.02652e-07
2.02217e-05
7.36486e-08
-6.48029e-07
2.03554e-05
9.36639e-10
-8.52833e-07
2.07308e-05
-1.43806e-07
-1.40599e-06
2.12959e-05
-2.76275e-07
-1.79544e-06
2.16973e-05
-1.77009e-07
-1.42873e-06
2.16411e-05
1.12652e-07
1.88877e-07
2.11731e-05
1.15527e-07
2.45557e-06
1.99865e-05
1.24197e-07
5.54786e-06
-9.23875e-08
1.07088e-05
1.75145e-05
2.04785e-05
-6.12156e-08
4.68566e-07
2.04433e-05
-1.48431e-07
3.04978e-07
2.02767e-05
-7.17227e-08
-3.16481e-07
2.01375e-05
1.68056e-07
-6.70935e-07
2.02561e-05
8.66911e-08
-7.16239e-07
2.06503e-05
-1.56387e-07
-1.49885e-06
2.12787e-05
-3.31028e-07
-1.92436e-06
2.17381e-05
-2.16306e-07
-1.35623e-06
2.17662e-05
3.26988e-08
1.62451e-07
2.13594e-05
6.98659e-08
2.5324e-06
2.01788e-05
3.95096e-08
5.81557e-06
-3.54757e-07
1.0787e-05
1.76585e-05
2.06121e-05
-2.56457e-08
2.07554e-05
2.12755e-07
2.06403e-05
-3.43514e-07
2.07006e-05
-2.14406e-07
2.09355e-05
3.06386e-09
2.11805e-05
-2.01444e-06
2.16819e-05
-2.9195e-06
2.20454e-05
-1.90585e-06
2.22458e-05
-6.39965e-07
2.20094e-05
2.32525e-06
2.04533e-05
6.15475e-06
1.04847e-05
1.71307e-05
2.06621e-05
3.58505e-08
1.08605e-07
2.03416e-05
9.41618e-08
4.38698e-07
1.97423e-05
-4.47027e-08
3.00063e-07
1.95015e-05
-3.39789e-07
3.667e-07
1.92414e-05
9.48699e-08
1.68419e-07
1.84568e-05
5.95765e-07
-1.82611e-06
1.82998e-05
3.63029e-07
-3.12531e-06
1.86694e-05
-2.03901e-07
-2.0713e-06
1.8866e-05
-4.37575e-07
-3.98451e-07
1.92587e-05
-4.74005e-07
2.4082e-06
1.89166e-05
-5.1253e-07
7.01155e-06
6.49087e-08
1.2884e-05
1.64545e-05
1.99922e-05
5.97386e-08
1.28481e-06
1.89839e-05
1.42518e-07
1.26487e-06
1.79742e-05
8.42163e-08
5.64319e-07
1.72008e-05
-6.43541e-08
-1.72476e-07
1.70564e-05
2.49373e-07
-7.25895e-07
1.74051e-05
4.95746e-07
-1.74735e-06
1.80358e-05
2.549e-07
-2.44621e-06
1.85533e-05
-1.81892e-07
-1.89478e-06
1.8776e-05
-4.07707e-07
-8.87481e-08
1.87876e-05
-3.5022e-07
2.39869e-06
1.81862e-05
-3.43906e-07
6.25093e-06
-2.94356e-08
1.25256e-05
1.65443e-05
2.00222e-05
3.40831e-08
1.40783e-06
1.90666e-05
1.18715e-07
1.26006e-06
1.81223e-05
1.2247e-07
7.03524e-07
1.7355e-05
6.1095e-08
-5.7161e-09
1.71375e-05
2.0503e-07
-5.90544e-07
1.74694e-05
2.74214e-07
-1.51584e-06
1.80635e-05
1.28318e-07
-2.2622e-06
1.85193e-05
-1.15173e-07
-1.95016e-06
1.87078e-05
-2.99865e-07
-1.06082e-07
1.8638e-05
-2.20708e-07
2.3975e-06
1.79075e-05
-1.40506e-07
6.07729e-06
-7.15442e-08
1.23527e-05
1.6308e-05
2.01168e-05
1.74648e-08
1.35092e-06
1.91202e-05
6.36012e-08
1.34662e-06
1.81703e-05
5.42132e-08
8.47029e-07
1.74513e-05
4.55921e-08
1.13105e-07
1.72164e-05
1.35053e-07
-5.43247e-07
1.74605e-05
1.59026e-07
-1.42622e-06
1.79857e-05
8.01312e-08
-2.18581e-06
1.84685e-05
-5.78509e-08
-1.94863e-06
1.86745e-05
-1.93114e-07
-8.20415e-09
1.85744e-05
-1.2931e-07
2.43547e-06
1.78753e-05
-4.20986e-08
6.03399e-06
-4.88709e-08
1.2431e-05
1.62104e-05
2.01595e-05
4.21653e-09
1.30829e-06
1.91154e-05
2.72714e-08
1.37024e-06
1.8115e-05
2.25892e-08
8.68655e-07
1.73949e-05
2.41557e-08
1.33906e-07
1.71615e-05
6.26866e-08
-5.26839e-07
1.73882e-05
6.80169e-08
-1.38413e-06
1.79092e-05
3.58695e-08
-2.14905e-06
1.84322e-05
-2.49308e-08
-1.93354e-06
1.86577e-05
-9.20862e-08
2.83122e-08
1.8539e-05
-5.35303e-08
2.46278e-06
1.78478e-05
-1.78856e-09
6.10023e-06
-2.24345e-08
1.25056e-05
1.61511e-05
2.0169e-05
-5.45483e-11
1.2937e-06
1.91059e-05
-1.03859e-10
1.38786e-06
1.80867e-05
-2.17148e-10
8.83146e-07
1.73661e-05
-2.84361e-10
1.41755e-07
1.71287e-05
-2.94066e-10
-5.30284e-07
1.73408e-05
-3.08469e-10
-1.38374e-06
1.78584e-05
-3.30083e-10
-2.15217e-06
1.84016e-05
-3.39597e-10
-1.93556e-06
1.8641e-05
-2.63852e-10
4.5945e-08
1.85249e-05
-2.32217e-10
2.48182e-06
1.78429e-05
-1.90799e-10
6.1607e-06
1.23184e-10
1.25864e-05
1.61239e-05
2.0169e-05
-4.31396e-09
1.29367e-06
1.91059e-05
-2.74647e-08
1.38786e-06
1.80866e-05
-2.29886e-08
8.83123e-07
1.7366e-05
-2.46803e-08
1.41677e-07
1.71286e-05
-6.32236e-08
-5.30399e-07
1.73407e-05
-6.85782e-08
-1.38388e-06
1.78582e-05
-3.64728e-08
-2.15237e-06
1.84014e-05
2.43052e-08
-1.93583e-06
1.86409e-05
9.15916e-08
4.56338e-08
1.85247e-05
5.30895e-08
2.4815e-06
1.78428e-05
1.4174e-09
6.16024e-06
2.26595e-08
1.25859e-05
1.61239e-05
2.01595e-05
-1.75353e-08
1.30821e-06
1.91153e-05
-6.37366e-08
1.37023e-06
1.81149e-05
-5.4543e-08
8.68593e-07
1.73946e-05
-4.60042e-08
1.3368e-07
1.71611e-05
-1.35431e-07
-5.27188e-07
1.73878e-05
-1.59409e-07
-1.38456e-06
1.79087e-05
-8.05507e-08
-2.14963e-06
1.84317e-05
5.73654e-08
-1.93434e-06
1.86572e-05
1.92701e-07
2.74333e-08
1.85386e-05
1.2893e-07
2.46184e-06
1.78475e-05
4.17216e-08
6.09891e-06
4.90301e-08
1.25042e-05
1.61512e-05
2.01168e-05
-3.41175e-08
1.35079e-06
1.91201e-05
-1.18748e-07
1.34661e-06
1.81701e-05
-1.2267e-07
8.4694e-07
1.74509e-05
-6.13261e-08
1.1277e-07
1.72158e-05
-2.05161e-07
-5.43741e-07
1.74598e-05
-2.74331e-07
-1.42684e-06
1.79849e-05
-1.28487e-07
-2.18666e-06
1.84677e-05
1.14908e-07
-1.9498e-06
1.86739e-05
2.99616e-07
-9.70909e-09
1.85739e-05
2.20424e-07
2.43403e-06
1.78749e-05
1.40165e-07
6.0319e-06
7.16513e-08
1.24288e-05
1.62106e-05
2.00223e-05
-5.97226e-08
1.40764e-06
1.90665e-05
-1.42406e-07
1.26003e-06
1.81221e-05
-8.42775e-08
7.03405e-07
1.73545e-05
6.42903e-08
-6.05274e-09
1.71368e-05
-2.49195e-07
-5.91121e-07
1.74685e-05
-4.95543e-07
-1.5165e-06
1.80626e-05
-2.54796e-07
-2.26318e-06
1.85184e-05
1.81866e-07
-1.95154e-06
1.87071e-05
4.07661e-07
-1.07802e-07
1.86374e-05
3.5003e-07
2.39566e-06
1.79071e-05
3.43633e-07
6.07465e-06
2.95857e-08
1.23498e-05
1.63082e-05
1.99924e-05
-3.58539e-08
1.2845e-06
1.8984e-05
-9.3928e-08
1.26488e-06
1.79741e-05
4.47562e-08
5.64342e-07
1.72004e-05
3.39791e-07
-1.72726e-07
1.70558e-05
-9.45548e-08
-7.26229e-07
1.74045e-05
-5.95429e-07
-1.74765e-06
1.80351e-05
-3.62848e-07
-2.44693e-06
1.85527e-05
2.03998e-07
-1.89599e-06
1.87755e-05
4.37679e-07
-9.03068e-08
1.87872e-05
4.73889e-07
2.39676e-06
1.81861e-05
5.12443e-07
6.24791e-06
-6.46242e-08
1.25224e-05
1.65449e-05
2.0662e-05
1.0866e-07
2.03418e-05
4.39098e-07
1.97426e-05
3.00435e-07
1.95013e-05
3.66606e-07
1.92413e-05
1.68565e-07
1.84568e-05
-1.82537e-06
1.82998e-05
-3.12534e-06
1.86698e-05
-2.07184e-06
1.88664e-05
-3.98953e-07
1.9259e-05
2.40657e-06
1.89175e-05
7.00869e-06
1.28813e-05
1.64563e-05
2.31229e-06
2.12219e-06
-4.32588e-06
4.43033e-06
8.13043e-07
-2.49238e-06
6.33766e-06
4.54706e-07
-2.06198e-06
7.89803e-06
3.83605e-07
-1.57728e-06
9.36696e-06
4.7142e-07
-1.77193e-06
1.08771e-05
1.61505e-07
-3.49774e-06
1.27108e-05
-4.47226e-07
-4.51179e-06
1.4336e-05
-8.01626e-07
-2.89483e-06
1.51487e-05
-5.69641e-07
-6.41605e-07
1.59777e-05
-3.85485e-07
1.96471e-06
1.64796e-05
-5.29302e-07
7.03894e-06
-6.28202e-08
1.43705e-05
1.5056e-05
5.38536e-06
1.44823e-06
-3.42659e-06
7.4066e-06
8.86256e-07
-8.29589e-07
8.95274e-06
5.86881e-07
-1.114e-06
1.01874e-05
4.73117e-07
-1.4966e-06
1.15589e-05
4.73985e-07
-2.10005e-06
1.29674e-05
2.20007e-07
-3.21428e-06
1.42268e-05
-2.88534e-07
-3.86434e-06
1.51637e-05
-6.0526e-07
-3.02805e-06
1.58211e-05
-4.91869e-07
-8.23933e-07
1.61513e-05
-2.85584e-07
1.96863e-06
1.5798e-05
-3.12846e-07
6.38773e-06
-3.44319e-08
1.35884e-05
1.47069e-05
5.27657e-06
7.24937e-07
-3.14545e-06
7.33525e-06
7.06243e-07
-6.18616e-07
9.00766e-06
5.14383e-07
-8.96381e-07
1.03542e-05
4.06747e-07
-1.28589e-06
1.17935e-05
3.28932e-07
-1.88479e-06
1.32182e-05
1.13857e-07
-2.8344e-06
1.44051e-05
-2.09061e-07
-3.52856e-06
1.52619e-05
-4.09219e-07
-3.00304e-06
1.5883e-05
-3.74004e-07
-8.45031e-07
1.60854e-05
-1.77558e-07
2.08714e-06
1.55101e-05
-9.2465e-08
6.43219e-06
-3.89507e-08
1.34584e-05
1.44088e-05
4.89124e-06
3.8285e-07
-3.19823e-06
7.14732e-06
4.34589e-07
-6.37801e-07
8.94306e-06
3.20736e-07
-7.55072e-07
1.03783e-05
2.6104e-07
-1.17645e-06
1.18039e-05
2.02209e-07
-1.84207e-06
1.31869e-05
6.90862e-08
-2.76451e-06
1.43803e-05
-1.1995e-07
-3.46831e-06
1.52939e-05
-2.46001e-07
-3.02539e-06
1.59252e-05
-2.44577e-07
-7.68928e-07
1.60797e-05
-9.75494e-08
2.20092e-06
1.55215e-05
3.45782e-09
6.49629e-06
-1.19727e-08
1.3556e-05
1.43695e-05
4.75271e-06
1.63125e-07
-3.2247e-06
7.06802e-06
1.94286e-07
-7.04766e-07
8.88002e-06
1.49211e-07
-7.71818e-07
1.03311e-05
1.24063e-07
-1.1802e-06
1.17516e-05
9.31834e-08
-1.83828e-06
1.31301e-05
2.87926e-08
-2.72232e-06
1.43492e-05
-5.48024e-08
-3.43339e-06
1.53138e-05
-1.13977e-07
-3.03008e-06
1.59494e-05
-1.17558e-07
-7.34366e-07
1.60725e-05
-3.64918e-08
2.27865e-06
1.55218e-05
2.43456e-08
6.63004e-06
-1.73627e-09
1.36719e-05
1.43452e-05
4.70424e-06
-2.93362e-10
-3.24713e-06
7.03035e-06
-2.69432e-10
-7.43692e-07
8.84878e-06
-2.88586e-10
-7.85782e-07
1.03057e-05
-2.54524e-10
-1.19089e-06
1.17202e-05
-2.19506e-10
-1.85135e-06
1.30905e-05
-2.17296e-10
-2.725e-06
1.43223e-05
-2.38715e-10
-3.43853e-06
1.53156e-05
-2.56809e-10
-3.04261e-06
1.59602e-05
-2.30844e-10
-7.15964e-07
1.60788e-05
-2.07227e-10
2.3269e-06
1.5538e-05
-1.336e-10
6.72598e-06
1.57058e-10
1.37779e-05
1.43446e-05
4.7042e-06
-1.6368e-07
-3.24714e-06
7.0303e-06
-1.9477e-07
-7.43737e-07
8.84871e-06
-1.49734e-07
-7.85839e-07
1.03056e-05
-1.24511e-07
-1.191e-06
1.17201e-05
-9.35599e-08
-1.8515e-06
1.30903e-05
-2.91757e-08
-2.72517e-06
1.43221e-05
5.43703e-08
-3.43876e-06
1.53154e-05
1.13494e-07
-3.04291e-06
1.596e-05
1.1711e-07
-7.163e-07
1.60787e-05
3.60815e-08
2.32657e-06
1.55379e-05
-2.46326e-08
6.72551e-06
2.00902e-09
1.37774e-05
1.43445e-05
4.75257e-06
-3.83296e-07
-3.22474e-06
7.06788e-06
-4.34944e-07
-7.04904e-07
8.87981e-06
-3.21096e-07
-7.71981e-07
1.03308e-05
-2.61299e-07
-1.18052e-06
1.17512e-05
-2.02399e-07
-1.83872e-06
1.31296e-05
-6.93105e-08
-2.72284e-06
1.43487e-05
1.19633e-07
-3.43404e-06
1.53132e-05
2.45598e-07
-3.03094e-06
1.59489e-05
2.44192e-07
-7.35341e-07
1.6072e-05
9.71381e-08
2.27767e-06
1.55214e-05
-3.77874e-09
6.62869e-06
1.21617e-08
1.36704e-05
1.4345e-05
4.89103e-06
-7.25236e-07
-3.1983e-06
7.14711e-06
-7.06396e-07
-6.38021e-07
8.94276e-06
-5.1449e-07
-7.5532e-07
1.03779e-05
-4.06722e-07
-1.17691e-06
1.18033e-05
-3.28832e-07
-1.8427e-06
1.31862e-05
-1.13864e-07
-2.76524e-06
1.43796e-05
2.08898e-07
-3.46926e-06
1.52931e-05
4.08926e-07
-3.02667e-06
1.59244e-05
3.73666e-07
-7.70491e-07
1.6079e-05
1.77143e-07
2.19939e-06
1.55209e-05
9.20911e-08
6.49416e-06
3.90343e-08
1.35536e-05
1.43692e-05
5.27626e-06
-1.44831e-06
-3.14555e-06
7.33501e-06
-8.86219e-07
-6.1889e-07
9.00731e-06
-5.86748e-07
-8.96642e-07
1.03537e-05
-4.72756e-07
-1.2864e-06
1.17928e-05
-4.73562e-07
-1.88547e-06
1.32174e-05
-2.19797e-07
-2.83517e-06
1.44042e-05
2.88509e-07
-3.52962e-06
1.5261e-05
6.05088e-07
-3.00455e-06
1.58821e-05
4.91634e-07
-8.46868e-07
1.60846e-05
2.85147e-07
2.0852e-06
1.55094e-05
3.12432e-07
6.42946e-06
3.45034e-08
1.34553e-05
1.44085e-05
5.38488e-06
-2.12198e-06
-3.42671e-06
7.40638e-06
-8.1299e-07
-8.29848e-07
8.95251e-06
-4.54464e-07
-1.11408e-06
1.0187e-05
-3.83119e-07
-1.49683e-06
1.15584e-05
-4.70905e-07
-2.10028e-06
1.29667e-05
-1.61273e-07
-3.2145e-06
1.42261e-05
4.47224e-07
-3.86505e-06
1.51631e-05
8.01569e-07
-3.02942e-06
1.58205e-05
5.69586e-07
-8.25712e-07
1.61508e-05
3.85101e-07
1.96655e-06
1.57977e-05
5.28957e-07
6.38449e-06
6.29852e-08
1.35847e-05
1.47068e-05
2.31249e-06
-4.32581e-06
4.43041e-06
-2.49181e-06
6.33772e-06
-2.06135e-06
7.89803e-06
-1.57682e-06
9.36694e-06
-1.77126e-06
1.0877e-05
-3.49671e-06
1.27106e-05
-4.51175e-06
1.43361e-05
-2.89575e-06
1.51492e-05
-6.4243e-07
1.59778e-05
1.96304e-06
1.648e-05
7.03542e-06
1.43669e-05
1.50574e-05
-1.86306e-07
5.43468e-07
-4.68304e-06
1.32946e-06
4.86189e-07
-4.49434e-06
3.23623e-06
3.25699e-07
-4.29444e-06
5.44741e-06
1.87248e-07
-3.97571e-06
7.74424e-06
3.3255e-08
-4.10201e-06
9.59784e-06
-2.53541e-07
-5.0978e-06
1.12108e-05
-5.96477e-07
-5.52831e-06
1.26376e-05
-6.31933e-07
-3.68968e-06
1.32502e-05
-1.92005e-07
-1.0622e-06
1.36889e-05
-4.08996e-09
1.53009e-06
1.41142e-05
-2.84143e-07
6.89784e-06
-1.1216e-08
1.51836e-05
1.33122e-05
5.86698e-07
6.8147e-07
-4.15129e-06
2.67782e-06
6.42913e-07
-3.07743e-06
4.66487e-06
4.42178e-07
-3.21753e-06
6.55106e-06
2.7736e-07
-3.47289e-06
8.45584e-06
8.55603e-08
-4.05713e-06
1.0157e-05
-2.39852e-07
-4.92914e-06
1.15658e-05
-5.95396e-07
-5.27424e-06
1.26663e-05
-6.34397e-07
-4.12603e-06
1.34813e-05
-2.76422e-07
-1.55452e-06
1.38172e-05
-5.45848e-08
1.68317e-06
1.33836e-05
-1.64254e-07
6.70149e-06
2.79717e-08
1.43842e-05
1.25486e-05
8.46884e-07
5.17604e-07
-3.82846e-06
2.94109e-06
5.41773e-07
-2.61168e-06
4.92106e-06
3.87855e-07
-2.82203e-06
6.8038e-06
2.41771e-07
-3.13304e-06
8.66149e-06
6.59684e-08
-3.72289e-06
1.03267e-05
-1.83416e-07
-4.55608e-06
1.16759e-05
-4.35496e-07
-5.0376e-06
1.27093e-05
-4.70022e-07
-4.20083e-06
1.34914e-05
-2.47838e-07
-1.65571e-06
1.37126e-05
-1.28251e-08
1.82412e-06
1.30644e-05
2.33107e-08
6.89284e-06
2.75499e-08
1.43289e-05
1.21944e-05
8.24283e-07
3.24328e-07
-3.82924e-06
2.9405e-06
3.57224e-07
-2.56947e-06
4.96283e-06
2.7218e-07
-2.66172e-06
6.85048e-06
1.75706e-07
-2.99803e-06
8.66819e-06
5.23406e-08
-3.64615e-06
1.0309e-05
-1.11719e-07
-4.477e-06
1.16846e-05
-2.74109e-07
-5.00531e-06
1.27613e-05
-3.05453e-07
-4.26664e-06
1.35268e-05
-1.76207e-07
-1.60607e-06
1.37065e-05
1.2669e-08
1.9957e-06
1.30949e-05
8.68649e-08
7.04439e-06
3.92402e-08
1.4448e-05
1.21911e-05
7.9848e-07
1.49561e-07
-3.84841e-06
2.90414e-06
1.71794e-07
-2.62499e-06
4.93203e-06
1.35635e-07
-2.66316e-06
6.8192e-06
8.91862e-08
-2.98085e-06
8.62708e-06
2.64712e-08
-3.62029e-06
1.02741e-05
-5.27146e-08
-4.42836e-06
1.16833e-05
-1.29317e-07
-4.98742e-06
1.27987e-05
-1.47563e-07
-4.30329e-06
1.35508e-05
-8.7367e-08
-1.57531e-06
1.36994e-05
1.88445e-08
2.1238e-06
1.31098e-05
6.86465e-08
7.23785e-06
2.5997e-08
1.46014e-05
1.21936e-05
7.76494e-07
-2.74153e-10
-3.87379e-06
2.87561e-06
-2.28612e-10
-2.67078e-06
4.90781e-06
-1.64793e-10
-2.68218e-06
6.79529e-06
-1.04151e-10
-2.98908e-06
8.5976e-06
-7.68999e-11
-3.62711e-06
1.0247e-05
-1.02844e-10
-4.42703e-06
1.16764e-05
-1.71161e-10
-4.99708e-06
1.28163e-05
-2.35027e-10
-4.32982e-06
1.35684e-05
-2.34288e-10
-1.55519e-06
1.37107e-05
-2.00115e-10
2.20362e-06
1.31372e-05
-8.53091e-11
7.36828e-06
2.15878e-10
1.47295e-05
1.22113e-05
7.76458e-07
-1.50066e-07
-3.87381e-06
2.87555e-06
-1.72203e-07
-2.67086e-06
4.90774e-06
-1.35914e-07
-2.68228e-06
6.79519e-06
-8.9343e-08
-2.98921e-06
8.59747e-06
-2.65819e-08
-3.62727e-06
1.02469e-05
5.25403e-08
-4.42721e-06
1.16762e-05
1.28995e-07
-4.9973e-06
1.28161e-05
1.47105e-07
-4.33011e-06
1.35682e-05
8.68991e-08
-1.55552e-06
1.37105e-05
-1.92627e-08
2.20329e-06
1.3137e-05
-6.88478e-08
7.36783e-06
-2.56057e-08
1.4729e-05
1.22112e-05
7.98374e-07
-3.24707e-07
-3.84847e-06
2.90398e-06
-3.57494e-07
-2.62522e-06
4.93183e-06
-2.72306e-07
-2.66343e-06
6.81891e-06
-1.75712e-07
-2.98123e-06
8.6267e-06
-5.23281e-08
-3.62076e-06
1.02737e-05
1.11623e-07
-4.42889e-06
1.16828e-05
2.73831e-07
-4.98806e-06
1.27981e-05
3.05019e-07
-4.30412e-06
1.35502e-05
1.7574e-07