/*--------------------------------*- C++ -*----------------------------------*\
| =========                 |                                                 |
| \\      /  F ield         | OpenFOAM: The Open Source CFD Toolbox           |
|  \\    /   O peration     | Version:  2.3.1                                 |
|   \\  /    A nd           | Web:      www.OpenFOAM.org                      |
|    \\/     M anipulation  |                                                 |
\*---------------------------------------------------------------------------*/
FoamFile
{
    version     2.0;
    format      ascii;
    class       surfaceScalarField;
    location    "10";
    object      phi_0;
}
// * * * * * * * * * * * * * * * * * * * * * * * * * * * * * * * * * * * * * //

dimensions      [0 3 -1 0 0 0 0];

internalField   nonuniform List<scalar> 
108641
(
2.08722e-05
-1.80011e-08
-2.19854e-08
2.01616e-05
2.3485e-07
4.7575e-07
2.05026e-05
-9.93351e-08
-2.41721e-07
2.09695e-05
-2.48306e-07
-2.18607e-07
2.08374e-05
-1.38564e-08
1.45986e-07
2.17131e-05
3.2939e-08
-9.08595e-07
2.23716e-05
2.47044e-07
-9.05532e-07
2.27735e-05
1.39875e-07
-5.4181e-07
2.28108e-05
3.60761e-08
-7.33694e-08
2.14129e-05
1.15256e-07
1.28263e-06
1.90452e-05
6.53821e-09
2.36118e-06
3.39268e-07
4.25277e-06
1.44531e-05
2.07214e-05
-2.30595e-08
1.1587e-07
2.04054e-05
2.38433e-07
3.12388e-07
2.06374e-05
-8.34917e-08
-2.47848e-07
2.10118e-05
-1.94953e-07
-4.27793e-07
2.11569e-05
8.45685e-08
-2.43494e-07
2.18052e-05
-8.574e-10
-6.14499e-07
2.25019e-05
1.59874e-07
-6.09522e-07
2.29417e-05
1.38239e-07
-4.38207e-07
2.2923e-05
-4.28255e-08
9.76688e-08
2.17163e-05
8.3379e-08
1.23852e-06
1.92581e-05
-2.73905e-09
2.46754e-06
1.79726e-07
4.40425e-06
1.50134e-05
2.06777e-05
-2.27054e-08
1.54115e-07
2.04767e-05
1.6575e-07
2.73687e-07
2.06309e-05
-4.99553e-08
-1.8768e-07
2.0934e-05
-1.14928e-07
-3.83204e-07
2.11671e-05
1.32965e-07
-2.81421e-07
2.17151e-05
-3.85463e-09
-5.45074e-07
2.24309e-05
7.9349e-08
-6.35272e-07
2.29674e-05
1.50326e-07
-5.48595e-07
2.28878e-05
-3.79404e-08
7.4731e-08
2.1741e-05
6.25234e-08
1.16765e-06
1.92479e-05
2.25906e-08
2.46782e-06
8.912e-09
4.46504e-06
1.49537e-05
2.06443e-05
-1.6772e-08
1.81974e-07
2.04412e-05
1.01287e-07
2.67528e-07
2.05998e-05
-2.92525e-08
-1.79269e-07
2.09236e-05
-6.21363e-08
-3.76617e-07
2.12354e-05
9.82052e-08
-2.77004e-07
2.17114e-05
-8.96522e-09
-4.70934e-07
2.23692e-05
4.14834e-08
-6.19913e-07
2.29473e-05
1.17657e-07
-5.45478e-07
2.2781e-05
-1.97343e-08
1.48115e-07
2.16662e-05
4.26156e-08
1.13477e-06
1.92056e-05
2.53444e-08
2.45781e-06
-3.11764e-08
4.53938e-06
1.47063e-05
2.06356e-05
-7.99801e-09
1.87808e-07
2.04342e-05
4.47803e-08
2.57955e-07
2.05919e-05
-1.29571e-08
-1.74023e-07
2.09147e-05
-2.25502e-08
-3.62389e-07
2.12273e-05
5.24754e-08
-2.66878e-07
2.16809e-05
-8.74644e-09
-4.53837e-07
2.2335e-05
1.5324e-08
-6.27952e-07
2.29295e-05
5.80409e-08
-5.34877e-07
2.27439e-05
-1.08351e-08
1.76764e-07
2.16432e-05
2.30002e-08
1.12023e-06
1.91832e-05
1.39763e-08
2.47142e-06
-2.53161e-08
4.56883e-06
1.46085e-05
2.06335e-05
-6.62954e-11
1.90796e-07
2.04214e-05
-1.11477e-10
2.56919e-07
2.05804e-05
-1.85825e-10
-1.71736e-07
2.09174e-05
-2.30631e-10
-3.59331e-07
2.12344e-05
-3.70855e-10
-2.64121e-07
2.16772e-05
-3.70411e-10
-4.51184e-07
2.23292e-05
-3.38034e-10
-6.36315e-07
2.29158e-05
-5.34815e-10
-5.28058e-07
2.27139e-05
-3.84412e-10
1.91478e-07
2.16237e-05
-3.3975e-10
1.1135e-06
1.91539e-05
-3.2565e-10
2.48411e-06
2.12544e-10
4.58872e-06
1.45396e-05
2.06335e-05
7.87524e-09
1.90785e-07
2.04214e-05
-4.49882e-08
2.56916e-07
2.05804e-05
1.26027e-08
-1.71736e-07
2.09174e-05
2.2122e-08
-3.59378e-07
2.12344e-05
-5.31811e-08
-2.6417e-07
2.16772e-05
8.05072e-09
-4.51222e-07
2.23292e-05
-1.5954e-08
-6.36391e-07
2.29159e-05
-5.90639e-08
-5.28149e-07
2.2714e-05
1.01069e-08
1.91375e-07
2.16239e-05
-2.36471e-08
1.11338e-06
1.91542e-05
-1.46085e-08
2.48396e-06
2.57203e-08
4.58862e-06
1.45401e-05
2.06356e-05
1.66719e-08
1.87774e-07
2.04341e-05
-1.01459e-07
2.57946e-07
2.05918e-05
2.89384e-08
-1.73995e-07
2.09147e-05
6.18116e-08
-3.62541e-07
2.12273e-05
-9.87863e-08
-2.67028e-07
2.16809e-05
8.35017e-09
-4.53933e-07
2.23351e-05
-4.19526e-08
-6.28175e-07
2.29297e-05
-1.18516e-07
-5.35142e-07
2.27442e-05
1.91134e-08
1.7646e-07
2.16438e-05
-4.31377e-08
1.11987e-06
1.91842e-05
-2.59142e-08
2.47097e-06
3.15215e-08
4.56852e-06
1.46099e-05
2.06443e-05
2.26441e-08
1.81921e-07
2.04412e-05
-1.65855e-07
2.67515e-07
2.05996e-05
4.96905e-08
-1.79225e-07
2.09236e-05
1.14735e-07
-3.76829e-07
2.12354e-05
-1.33386e-07
-2.77216e-07
2.17114e-05
3.423e-09
-4.71099e-07
2.23693e-05
-7.96122e-08
-6.20238e-07
2.29476e-05
-1.50954e-07
-5.45871e-07
2.27816e-05
3.75269e-08
1.47613e-07
2.16671e-05
-6.28862e-08
1.13422e-06
1.92071e-05
-2.30679e-08
2.45712e-06
-8.64056e-09
4.53888e-06
1.47084e-05
2.06777e-05
2.30336e-08
1.54054e-07
2.04767e-05
-2.38475e-07
2.7369e-07
2.06307e-05
8.33069e-08
-1.87617e-07
2.0934e-05
1.9491e-07
-3.83485e-07
2.11671e-05
-8.48067e-08
-2.81652e-07
2.17151e-05
5.72183e-10
-5.45198e-07
2.24311e-05
-1.59898e-07
-6.35662e-07
2.29677e-05
-1.38591e-07
-5.49036e-07
2.28884e-05
4.26963e-08
7.41129e-08
2.17422e-05
-8.35731e-08
1.16693e-06
1.92498e-05
2.3957e-09
2.46699e-06
-1.79456e-07
4.46436e-06
1.49562e-05
2.07214e-05
1.80126e-08
1.15777e-07
2.04054e-05
-2.34832e-07
3.12404e-07
2.06372e-05
9.92487e-08
-2.47713e-07
2.10118e-05
2.48382e-07
-4.28121e-07
2.11569e-05
1.37825e-08
-2.43731e-07
2.18051e-05
-3.29812e-08
-6.14625e-07
2.25021e-05
-2.46925e-07
-6.09922e-07
2.2942e-05
-1.39968e-07
-4.38572e-07
2.29237e-05
-3.59538e-08
9.70117e-08
2.17177e-05
-1.15321e-07
1.23774e-06
1.92601e-05
-6.67501e-09
2.46665e-06
-3.3902e-07
4.40335e-06
1.50163e-05
2.08723e-05
-2.21202e-08
2.01616e-05
4.75852e-07
2.05022e-05
-2.41314e-07
2.09696e-05
-2.18982e-07
2.08374e-05
1.45914e-07
2.17129e-05
-9.08463e-07
2.23718e-05
-9.05853e-07
2.27736e-05
-5.41756e-07
2.28115e-05
-7.38219e-08
2.14142e-05
1.28197e-06
1.90471e-05
2.36043e-06
4.25149e-06
1.44566e-05
2.10064e-05
-1.24769e-08
-1.83704e-07
2.08214e-05
1.56662e-07
5.04033e-07
2.10219e-05
-5.35416e-08
-3.88645e-07
2.13456e-05
-2.22487e-07
-3.19788e-07
2.13201e-05
2.13876e-08
1.50088e-07
2.19782e-05
5.05408e-08
-1.61725e-06
2.28853e-05
2.74152e-07
-2.08677e-06
2.33567e-05
3.11893e-07
-1.32511e-06
2.36682e-05
8.40254e-08
-4.68875e-07
2.27397e-05
1.85743e-07
2.02532e-06
2.03968e-05
1.39299e-07
4.5648e-06
2.97058e-07
7.52174e-06
1.68308e-05
2.08577e-05
-1.36534e-08
9.15309e-08
2.09125e-05
1.42716e-07
2.71556e-07
2.10774e-05
-2.26408e-08
-4.43695e-07
2.13034e-05
-1.6177e-07
-7.14466e-07
2.1542e-05
5.05805e-08
-5.11322e-07
2.21043e-05
-7.86029e-09
-1.11837e-06
2.29425e-05
1.76872e-07
-1.35041e-06
2.34803e-05
2.70556e-07
-9.34701e-07
2.35293e-05
1.8821e-08
1.1386e-07
2.27577e-05
1.10842e-07
2.08505e-06
2.07563e-05
5.16197e-08
4.55659e-06
1.49172e-07
8.00984e-06
1.72986e-05
2.08252e-05
-1.59562e-08
1.63398e-07
2.0928e-05
9.33824e-08
2.20195e-07
2.10558e-05
-7.79721e-09
-3.30332e-07
2.12698e-05
-8.92017e-08
-6.69774e-07
2.1614e-05
7.90661e-08
-6.54051e-07
2.21541e-05
-1.6178e-08
-1.07689e-06
2.2941e-05
8.66231e-08
-1.33194e-06
2.35081e-05
2.1191e-07
-1.05696e-06
2.34561e-05
-4.24282e-09
1.49757e-07
2.26748e-05
4.8913e-08
2.01091e-06
2.0734e-05
3.18624e-08
4.42829e-06
-1.03039e-09
8.11234e-06
1.72369e-05
2.07908e-05
-1.18443e-08
2.19256e-07
2.08863e-05
5.64939e-08
2.0895e-07
2.10288e-05
-4.18034e-09
-3.25455e-07
2.12834e-05
-4.89144e-08
-6.71495e-07
2.16947e-05
6.09772e-08
-6.7019e-07
2.22062e-05
-8.2825e-09
-9.90374e-07
2.29143e-05
5.25794e-08
-1.29397e-06
2.34846e-05
1.52756e-07
-1.05662e-06
2.33719e-05
2.20835e-09
2.5442e-07
2.25652e-05
2.69811e-08
1.96335e-06
2.06818e-05
2.87713e-08
4.34432e-06
-3.10649e-08
8.21309e-06
1.70381e-05
2.07808e-05
-6.06372e-09
2.33435e-07
2.0878e-05
2.52172e-08
1.92041e-07
2.10202e-05
-2.71897e-10
-3.20154e-07
2.12803e-05
-1.81467e-08
-6.53236e-07
2.16962e-05
3.2836e-08
-6.54644e-07
2.21943e-05
-7.17953e-09
-9.53087e-07
2.28795e-05
2.1619e-08
-1.28213e-06
2.34559e-05
7.37801e-08
-1.03229e-06
2.33321e-05
-1.45179e-09
3.04155e-07
2.25156e-05
1.37187e-08
1.94997e-06
2.06465e-05
1.74144e-08
4.35188e-06
-2.38803e-08
8.25426e-06
1.69539e-05
2.07759e-05
-5.58115e-11
2.41115e-07
2.08669e-05
-7.18466e-11
1.91148e-07
2.10124e-05
-1.40035e-10
-3.17367e-07
2.12847e-05
-2.12575e-10
-6.49542e-07
2.17051e-05
-2.99775e-10
-6.51426e-07
2.21937e-05
-3.11733e-10
-9.46606e-07
2.28668e-05
-3.13492e-10
-1.28747e-06
2.34345e-05
-4.57243e-10
-1.02152e-06
2.32981e-05
-3.45223e-10
3.26731e-07
2.24826e-05
-2.91709e-10
1.94307e-06
2.06152e-05
-2.86976e-10
4.36916e-06
1.53441e-10
8.28939e-06
1.68905e-05
2.07759e-05
5.96027e-09
2.41105e-07
2.08669e-05
-2.53464e-08
1.91136e-07
2.10124e-05
-2.52815e-11
-3.1736e-07
2.12847e-05
1.77501e-08
-6.49606e-07
2.17051e-05
-3.34022e-08
-6.51513e-07
2.21937e-05
6.59719e-09
-9.46685e-07
2.28668e-05
-2.22003e-08
-1.28759e-06
2.34345e-05
-7.46499e-08
-1.02168e-06
2.32982e-05
8.16372e-10
3.26542e-07
2.24827e-05
-1.42685e-08
1.94286e-06
2.06154e-05
-1.79686e-08
4.36887e-06
2.41711e-08
8.28916e-06
1.68909e-05
2.07808e-05
1.17558e-08
2.33406e-07
2.08779e-05
-5.65887e-08
1.92002e-07
2.10202e-05
3.95637e-09
-3.20188e-07
2.12802e-05
4.8603e-08
-6.53459e-07
2.16961e-05
-6.14263e-08
-6.54912e-07
2.21943e-05
7.77597e-09
-9.5329e-07
2.28794e-05
-5.3006e-08
-1.28249e-06
2.34559e-05
-1.53468e-07
-1.03278e-06
2.33323e-05
-2.73078e-09
3.03623e-07
2.25159e-05
-2.74e-08
1.94933e-06
2.06472e-05
-2.92594e-08
4.35101e-06
3.13154e-08
8.25357e-06
1.6955e-05
2.07908e-05
1.58956e-08
2.1921e-07
2.08862e-05
-9.34167e-08
2.08899e-07
2.10288e-05
7.60648e-09
-3.25453e-07
2.12833e-05
8.90024e-08
-6.71795e-07
2.16946e-05
-7.93681e-08
-6.70565e-07
2.22062e-05
1.58306e-08
-9.90701e-07
2.29143e-05
-8.68379e-08
-1.29449e-06
2.34847e-05
-2.12397e-07
-1.05735e-06
2.33721e-05
3.90124e-09
2.53572e-07
2.25657e-05
-4.91578e-08
1.96236e-06
2.06828e-05
-3.2252e-08
4.34297e-06
1.24757e-09
8.21199e-06
1.70398e-05
2.08252e-05
1.36197e-08
1.63351e-07
2.0928e-05
-1.42677e-07
2.20152e-07
2.10558e-05
2.25287e-08
-3.30344e-07
2.12698e-05
1.61687e-07
-6.70165e-07
2.16139e-05
-5.07126e-08
-6.54468e-07
2.21541e-05
7.68882e-09
-1.07719e-06
2.2941e-05
-1.76826e-07
-1.33257e-06
2.35081e-05
-2.70777e-07
-1.05781e-06
2.34563e-05
-1.89171e-08
1.48733e-07
2.26753e-05
-1.10891e-07
2.00963e-06
2.07353e-05
-5.18687e-08
4.42663e-06
-1.48962e-07
8.11091e-06
1.7239e-05
2.08577e-05
1.24767e-08
9.14485e-08
2.09124e-05
-1.56568e-07
2.71536e-07
2.10773e-05
5.35095e-08
-4.4361e-07
2.13033e-05
2.22526e-07
-7.14931e-07
2.1542e-05
-2.13939e-08
-5.1175e-07
2.21042e-05
-5.05575e-08
-1.11854e-06
2.29424e-05
-2.73946e-07
-1.35102e-06
2.34804e-05
-3.11899e-07
-9.35468e-07
2.35296e-05
-8.3943e-08
1.12859e-07
2.27585e-05
-1.85661e-07
2.08362e-06
2.07578e-05
-1.39416e-07
4.55485e-06
-2.96917e-07
8.00822e-06
1.73009e-05
2.10064e-05
-1.83811e-07
2.08214e-05
5.04262e-07
2.10217e-05
-3.88097e-07
2.13455e-05
-3.20315e-07
2.13202e-05
1.49868e-07
2.1978e-05
-1.61687e-06
2.28854e-05
-2.08715e-06
2.33569e-05
-1.3252e-06
2.36686e-05
-4.69428e-07
2.27409e-05
2.02394e-06
2.03986e-05
4.56337e-06
7.52003e-06
1.68331e-05
2.06124e-05
6.11343e-08
-2.50625e-08
2.07557e-05
1.48691e-07
2.12077e-07
2.064e-05
7.13877e-08
-3.44325e-07
2.07005e-05
-1.68177e-07
-2.12109e-07
2.09351e-05
-8.60401e-08
1.50244e-09
2.11806e-05
1.5713e-07
-2.01989e-06
2.16826e-05
3.31413e-07
-2.92016e-06
2.20459e-05
2.15827e-07
-1.9043e-06
2.22464e-05
-3.31394e-08
-6.36221e-07
2.20082e-05
-6.99129e-08
2.33344e-06
2.04481e-05
-3.91517e-08
6.16406e-06
3.55463e-07
1.04923e-05
1.71221e-05
2.04786e-05
3.72209e-08
4.69003e-07
2.04435e-05
1.50875e-07
3.04453e-07
2.02765e-05
1.11945e-07
-3.17251e-07
2.01375e-05
-7.38509e-08
-6.69784e-07
2.02568e-05
-5.68215e-10
-7.16025e-07
2.06517e-05
1.44177e-07
-1.50031e-06
2.12804e-05
2.76568e-07
-1.92431e-06
2.17391e-05
1.76378e-07
-1.35399e-06
2.17663e-05
-1.13258e-07
1.6682e-07
2.13586e-05
-1.15644e-07
2.53845e-06
2.01757e-05
-1.24264e-07
5.82464e-06
9.29396e-08
1.07955e-05
1.76525e-05
2.04532e-05
7.23385e-09
5.72416e-07
2.04441e-05
9.9916e-08
2.80229e-07
2.03285e-05
1.00417e-07
-2.03186e-07
2.02218e-05
1.03238e-08
-6.47279e-07
2.03562e-05
6.34349e-08
-8.52435e-07
2.07322e-05
9.80163e-08
-1.40672e-06
2.12976e-05
1.74706e-07
-1.79553e-06
2.16984e-05
1.45082e-07
-1.42647e-06
2.16412e-05
-9.97008e-08
1.93409e-07
2.11725e-05
-9.69061e-08
2.46089e-06
1.99838e-05
-6.39392e-08
5.55666e-06
-3.72491e-08
1.07173e-05
1.7509e-05
2.04417e-05
-2.13188e-09
6.19112e-07
2.0394e-05
6.2079e-08
2.94454e-07
2.02846e-05
5.61592e-08
-1.71798e-07
2.02406e-05
3.94701e-09
-6.21052e-07
2.04352e-05
4.67102e-08
-8.48077e-07
2.07808e-05
6.02901e-08
-1.29832e-06
2.12577e-05
1.13694e-07
-1.7098e-06
2.16438e-05
1.09617e-07
-1.40727e-06
2.15562e-05
-6.53946e-08
3.07742e-07
2.10573e-05
-6.4656e-08
2.42996e-06
1.99179e-05
-2.01819e-08
5.43996e-06
-4.88381e-08
1.07953e-05
1.73473e-05
2.04439e-05
-2.98797e-09
6.22583e-07
2.038e-05
2.8693e-08
2.89367e-07
2.02543e-05
2.55233e-08
-1.639e-07
2.02071e-05
5.37023e-09
-6.0738e-07
2.04076e-05
2.4019e-08
-8.32514e-07
2.074e-05
2.42333e-08
-1.24936e-06
2.11926e-05
5.2293e-08
-1.67333e-06
2.15921e-05
5.40735e-08
-1.37628e-06
2.15062e-05
-3.30371e-08
3.57666e-07
2.09957e-05
-2.70986e-08
2.42294e-06
1.98701e-05
1.08275e-09
5.45621e-06
-2.81177e-08
1.08419e-05
1.72617e-05
2.04439e-05
-5.37712e-11
6.26438e-07
2.03668e-05
-5.53441e-11
2.96982e-07
2.02347e-05
-1.45246e-10
-1.59531e-07
2.01937e-05
-2.43866e-10
-6.02917e-07
2.03971e-05
-2.81373e-10
-8.30582e-07
2.0716e-05
-3.12568e-10
-1.24089e-06
2.11529e-05
-3.54938e-10
-1.67176e-06
2.15523e-05
-4.18479e-10
-1.36647e-06
2.14663e-05
-3.2699e-10
3.80048e-07
2.09606e-05
-2.67809e-10
2.42199e-06
1.98437e-05
-2.51144e-10
5.48736e-06
1.1988e-10
1.08965e-05
1.72084e-05
2.04439e-05
2.88718e-09
6.26428e-07
2.03668e-05
-2.87946e-08
2.96973e-07
2.02347e-05
-2.57919e-08
-1.59551e-07
2.01936e-05
-5.81794e-09
-6.02994e-07
2.03971e-05
-2.45445e-08
-8.30683e-07
2.07159e-05
-2.48215e-08
-1.241e-06
2.11528e-05
-5.29494e-08
-1.67191e-06
2.15522e-05
-5.48588e-08
-1.36668e-06
2.14662e-05
3.24251e-08
3.79784e-07
2.09605e-05
2.6601e-08
2.42172e-06
1.98437e-05
-1.5748e-09
5.48696e-06
2.83419e-08
1.08961e-05
1.72086e-05
2.04439e-05
2.0424e-09
6.22553e-07
2.03799e-05
-6.21477e-08
2.89333e-07
2.02543e-05
-5.63899e-08
-1.63978e-07
2.0207e-05
-4.32773e-09
-6.07612e-07
2.04074e-05
-4.71179e-08
-8.32823e-07
2.07397e-05
-6.07447e-08
-1.24967e-06
2.11923e-05
-1.14178e-07
-1.67378e-06
2.15918e-05
-1.10228e-07
-1.37691e-06
2.1506e-05
6.49069e-08
3.56909e-07
2.09955e-05
6.4272e-08
2.42212e-06
1.98702e-05
1.9746e-08
5.45502e-06
4.90222e-08
1.08408e-05
1.72622e-05
2.04417e-05
-7.29682e-09
6.19056e-07
2.0394e-05
-9.99296e-08
2.94405e-07
2.02846e-05
-1.00575e-07
-1.71885e-07
2.02404e-05
-1.0571e-08
-6.21388e-07
2.04349e-05
-6.36824e-08
-8.48504e-07
2.07805e-05
-9.82861e-08
-1.29877e-06
2.12572e-05
-1.74942e-07
-1.71046e-06
2.16433e-05
-1.45444e-07
-1.4082e-06
2.15558e-05
9.94353e-08
3.06511e-07
2.10571e-05
9.66923e-08
2.4287e-06
1.99181e-05
6.36086e-08
5.43811e-06
3.74055e-08
1.07935e-05
1.73481e-05
2.04531e-05
-3.72559e-08
5.72355e-07
2.0444e-05
-1.5081e-07
2.80184e-07
2.03284e-05
-1.12007e-07
-2.03314e-07
2.02216e-05
7.37272e-08
-6.47692e-07
2.03559e-05
5.33188e-10
-8.52921e-07
2.07318e-05
-1.44196e-07
-1.40719e-06
2.12971e-05
-2.76518e-07
-1.79631e-06
2.16979e-05
-1.76458e-07
-1.42758e-06
2.16408e-05
1.13242e-07
1.91983e-07
2.11723e-05
1.15619e-07
2.45926e-06
1.9984e-05
1.24099e-07
5.55436e-06
-9.27428e-08
1.07151e-05
1.751e-05
2.04786e-05
-6.11504e-08
4.68892e-07
2.04435e-05
-1.48571e-07
3.04425e-07
2.02765e-05
-7.13475e-08
-3.17271e-07
2.01374e-05
1.68152e-07
-6.70223e-07
2.02565e-05
8.61061e-08
-7.16439e-07
2.06513e-05
-1.57e-07
-1.50055e-06
2.128e-05
-3.31212e-07
-1.92499e-06
2.17388e-05
-2.15727e-07
-1.355e-06
2.17661e-05
3.32565e-08
1.65512e-07
2.13586e-05
6.99839e-08
2.53671e-06
2.01763e-05
3.91912e-08
5.82212e-06
-3.55254e-07
1.07931e-05
1.76539e-05
2.06123e-05
-2.50718e-08
2.07556e-05
2.12426e-07
2.064e-05
-3.43886e-07
2.07004e-05
-2.12582e-07
2.09351e-05
1.34239e-09
2.11805e-05
-2.01931e-06
2.16826e-05
-2.92041e-06
2.20462e-05
-1.90462e-06
2.22468e-05
-6.36725e-07
2.20089e-05
2.33178e-06
2.04496e-05
6.1619e-06
1.04901e-05
1.71242e-05
2.06626e-05
3.59419e-08
1.08561e-07
2.03413e-05
9.43759e-08
4.39008e-07
1.97419e-05
-4.54207e-08
3.00516e-07
1.95016e-05
-3.39718e-07
3.67926e-07
1.92402e-05
9.63472e-08
1.66566e-07
1.8455e-05
5.96225e-07
-1.8309e-06
1.82994e-05
3.62079e-07
-3.12672e-06
1.86697e-05
-2.05158e-07
-2.06944e-06
1.88668e-05
-4.38225e-07
-3.95097e-07
1.926e-05
-4.74324e-07
2.41461e-06
1.89152e-05
-5.12079e-07
7.02088e-06
6.59236e-08
1.28919e-05
1.64497e-05
1.99923e-05
5.97626e-08
1.28508e-06
1.89838e-05
1.42705e-07
1.2646e-06
1.79736e-05
8.38367e-08
5.63718e-07
1.72006e-05
-6.41904e-08
-1.72328e-07
1.7057e-05
2.50287e-07
-7.26336e-07
1.74061e-05
4.95899e-07
-1.74906e-06
1.80366e-05
2.54186e-07
-2.44695e-06
1.85535e-05
-1.829e-07
-1.8932e-06
1.87759e-05
-4.08205e-07
-8.55623e-08
1.87874e-05
-3.50227e-07
2.40284e-06
1.81847e-05
-3.43564e-07
6.2588e-06
-2.86797e-08
1.25338e-05
1.65411e-05
2.00224e-05
3.40425e-08
1.40789e-06
1.90668e-05
1.18867e-07
1.25968e-06
1.81221e-05
1.22301e-07
7.0309e-07
1.7355e-05
6.11716e-08
-5.57077e-09
1.71382e-05
2.05427e-07
-5.90809e-07
1.74704e-05
2.74231e-07
-1.51719e-06
1.80642e-05
1.27961e-07
-2.26313e-06
1.85194e-05
-1.15796e-07
-1.94876e-06
1.87077e-05
-3.00204e-07
-1.02873e-07
1.86376e-05
-2.20491e-07
2.40126e-06
1.79059e-05
-1.40221e-07
6.08499e-06
-7.12241e-08
1.23608e-05
1.6305e-05
2.01168e-05
1.74209e-08
1.35114e-06
1.91202e-05
6.36654e-08
1.34621e-06
1.81701e-05
5.4126e-08
8.4652e-07
1.74514e-05
4.56629e-08
1.13138e-07
1.7217e-05
1.35251e-07
-5.43524e-07
1.74614e-05
1.59025e-07
-1.42743e-06
1.79863e-05
7.99601e-08
-2.18678e-06
1.84687e-05
-5.82458e-08
-1.94714e-06
1.86744e-05
-1.93384e-07
-4.81612e-09
1.8574e-05
-1.29094e-07
2.43891e-06
1.78738e-05
-4.18807e-08
6.04188e-06
-4.87314e-08
1.24394e-05
1.62073e-05
2.01593e-05
4.20237e-09
1.3087e-06
1.91152e-05
2.72909e-08
1.36982e-06
1.81148e-05
2.25547e-08
8.68104e-07
1.7395e-05
2.41868e-08
1.33909e-07
1.7162e-05
6.27606e-08
-5.27099e-07
1.7389e-05
6.80152e-08
-1.3853e-06
1.79098e-05
3.58024e-08
-2.15001e-06
1.84324e-05
-2.5111e-08
-1.93201e-06
1.86576e-05
-9.21845e-08
3.12767e-08
1.85387e-05
-5.33943e-08
2.4662e-06
1.78463e-05
-1.68199e-09
6.10833e-06
-2.2387e-08
1.2514e-05
1.61479e-05
2.01687e-05
-5.47277e-11
1.29415e-06
1.91057e-05
-1.03986e-10
1.38743e-06
1.80864e-05
-2.17219e-10
8.8256e-07
1.73662e-05
-2.8436e-10
1.41718e-07
1.71292e-05
-2.94021e-10
-5.30557e-07
1.73416e-05
-3.0848e-10
-1.3849e-06
1.78591e-05
-3.301e-10
-2.15312e-06
1.84018e-05
-3.39464e-10
-1.934e-06
1.8641e-05
-2.63742e-10
4.89422e-08
1.85246e-05
-2.32229e-10
2.48524e-06
1.78415e-05
-1.90459e-10
6.16894e-06
1.2359e-10
1.25948e-05
1.61207e-05
2.01687e-05
-4.30022e-09
1.29413e-06
1.91057e-05
-2.74845e-08
1.38742e-06
1.80863e-05
-2.29547e-08
8.82537e-07
1.73661e-05
-2.47115e-08
1.41641e-07
1.71291e-05
-6.32975e-08
-5.30672e-07
1.73414e-05
-6.85765e-08
-1.38504e-06
1.78589e-05
-3.64058e-08
-2.15331e-06
1.84017e-05
2.44857e-08
-1.93427e-06
1.86409e-05
9.1691e-08
4.86299e-08
1.85245e-05
5.29536e-08
2.48492e-06
1.78414e-05
1.31192e-09
6.16849e-06
2.26128e-08
1.25943e-05
1.61207e-05
2.01593e-05
-1.74917e-08
1.30862e-06
1.91151e-05
-6.38009e-08
1.36982e-06
1.81146e-05
-5.4456e-08
8.68041e-07
1.73947e-05
-4.6075e-08
1.33683e-07
1.71617e-05
-1.35629e-07
-5.27447e-07
1.73885e-05
-1.59408e-07
-1.38573e-06
1.79093e-05
-8.03796e-08
-2.15059e-06
1.8432e-05
5.77611e-08
-1.93281e-06
1.86572e-05
1.9298e-07
3.03906e-08
1.85383e-05
1.28715e-07
2.46526e-06
1.78461e-05
4.15042e-08
6.10701e-06
4.88912e-08
1.25126e-05
1.61481e-05
2.01168e-05
-3.40769e-08
1.351e-06
1.91201e-05
-1.189e-07
1.3462e-06
1.81699e-05
-1.22502e-07
8.46431e-07
1.7451e-05
-6.14024e-08
1.12802e-07
1.72164e-05
-2.05558e-07
-5.44018e-07
1.74607e-05
-2.74348e-07
-1.42805e-06
1.79856e-05
-1.28129e-07
-2.18763e-06
1.84679e-05
1.15529e-07
-1.94832e-06
1.86737e-05
2.99947e-07
-6.26705e-09
1.85735e-05
2.20207e-07
2.43746e-06
1.78734e-05
1.3988e-07
6.03979e-06
7.13315e-08
1.24371e-05
1.62074e-05
2.00225e-05
-5.97465e-08
1.4077e-06
1.90667e-05
-1.42594e-07
1.25966e-06
1.81218e-05
-8.38983e-08
7.0297e-07
1.73545e-05
6.41268e-08
-5.90729e-09
1.71376e-05
-2.50109e-07
-5.91386e-07
1.74696e-05
-4.95697e-07
-1.51786e-06
1.80633e-05
-2.54082e-07
-2.26411e-06
1.85185e-05
1.82874e-07
-1.95014e-06
1.87069e-05
4.08159e-07
-1.046e-07
1.86369e-05
3.50036e-07
2.39941e-06
1.79055e-05
3.43291e-07
6.08234e-06
2.88299e-08
1.23579e-05
1.63052e-05
1.99925e-05
-3.59451e-08
1.28477e-06
1.89839e-05
-9.41421e-08
1.26461e-06
1.79735e-05
4.54736e-08
5.6374e-07
1.72002e-05
3.39721e-07
-1.72578e-07
1.70564e-05
-9.60308e-08
-7.2667e-07
1.74054e-05
-5.95889e-07
-1.74936e-06
1.80359e-05
-3.61898e-07
-2.44767e-06
1.85529e-05
2.05255e-07
-1.89441e-06
1.87754e-05
4.38329e-07
-8.71229e-08
1.8787e-05
4.74208e-07
2.40091e-06
1.81847e-05
5.11992e-07
6.25578e-06
-6.56392e-08
1.25305e-05
1.65417e-05
2.06626e-05
1.08617e-07
2.03414e-05
4.39408e-07
1.97421e-05
3.00887e-07
1.95014e-05
3.67831e-07
1.924e-05
1.66712e-07
1.8455e-05
-1.83016e-06
1.82994e-05
-3.12676e-06
1.86701e-05
-2.06998e-06
1.88673e-05
-3.956e-07
1.92603e-05
2.41299e-06
1.89161e-05
7.01802e-06
1.28891e-05
1.64515e-05
2.31287e-06
2.122e-06
-4.32631e-06
4.43071e-06
8.13054e-07
-2.49189e-06
6.3376e-06
4.54917e-07
-2.06129e-06
7.89763e-06
3.84347e-07
-1.57644e-06
9.36671e-06
4.71554e-07
-1.77407e-06
1.08776e-05
1.60343e-07
-3.50213e-06
1.2712e-05
-4.48586e-07
-4.51254e-06
1.43368e-05
-8.02216e-07
-2.89203e-06
1.51496e-05
-5.69329e-07
-6.38543e-07
1.59796e-05
-3.85387e-07
1.97001e-06
1.64799e-05
-5.28755e-07
7.0493e-06
-6.1739e-08
1.438e-05
1.50535e-05
5.3854e-06
1.44815e-06
-3.42647e-06
7.40655e-06
8.86321e-07
-8.29813e-07
8.95266e-06
5.87015e-07
-1.11449e-06
1.01878e-05
4.73692e-07
-1.49677e-06
1.15599e-05
4.74171e-07
-2.10111e-06
1.29683e-05
2.19267e-07
-3.21639e-06
1.42273e-05
-2.89567e-07
-3.86497e-06
1.51638e-05
-6.05832e-07
-3.02605e-06
1.58212e-05
-4.91683e-07
-8.20656e-07
1.61512e-05
-2.85278e-07
1.97278e-06
1.5797e-05
-3.12344e-07
6.39657e-06
-3.35378e-08
1.35978e-05
1.47047e-05
5.27617e-06
7.25081e-07
-3.14521e-06
7.33504e-06
7.06235e-07
-6.19105e-07
9.00755e-06
5.14417e-07
-8.96823e-07
1.03547e-05
4.06957e-07
-1.28599e-06
1.17946e-05
3.28946e-07
-1.88547e-06
1.32192e-05
1.13386e-07
-2.83593e-06
1.44055e-05
-2.09644e-07
-3.52936e-06
1.52619e-05
-4.09607e-07
-3.00141e-06
1.5883e-05
-3.7391e-07
-8.41749e-07
1.60849e-05
-1.7712e-07
2.09125e-06
1.55087e-05
-9.20368e-08
6.44087e-06
-3.85481e-08
1.34677e-05
1.44068e-05
4.89118e-06
3.82989e-07
-3.19795e-06
7.14729e-06
4.34483e-07
-6.38149e-07
8.94308e-06
3.20733e-07
-7.55594e-07
1.03788e-05
2.61146e-07
-1.17675e-06
1.18048e-05
2.02195e-07
-1.84279e-06
1.31878e-05
6.88336e-08
-2.76588e-06
1.43808e-05
-1.20281e-07
-3.46912e-06
1.5294e-05
-2.46263e-07
-3.02372e-06
1.59253e-05
-2.44488e-07
-7.65471e-07
1.60793e-05
-9.71755e-08
2.20494e-06
1.55202e-05
3.7664e-09
6.50516e-06
-1.17762e-08
1.35654e-05
1.43674e-05
4.75293e-06
1.63186e-07
-3.22443e-06
7.06805e-06
1.94247e-07
-7.05057e-07
8.88006e-06
1.49204e-07
-7.72384e-07
1.03316e-05
1.24102e-07
-1.18054e-06
1.17525e-05
9.31672e-08
-1.83898e-06
1.31309e-05
2.86804e-08
-2.72362e-06
1.43498e-05
-5.4945e-08
-3.43421e-06
1.53141e-05
-1.14107e-07
-3.02845e-06
1.59495e-05
-1.1754e-07
-7.311e-07
1.60721e-05
-3.62856e-08
2.2827e-06
1.55206e-05
2.45027e-08
6.63912e-06
-1.66872e-09
1.36814e-05
1.4343e-05
4.70451e-06
-2.93376e-10
-3.24688e-06
7.03042e-06
-2.69568e-10
-7.43966e-07
8.84884e-06
-2.88597e-10
-7.86375e-07
1.03062e-05
-2.54466e-10
-1.19127e-06
1.17211e-05
-2.19478e-10
-1.85205e-06
1.30913e-05
-2.17324e-10
-2.72627e-06
1.43229e-05
-2.38727e-10
-3.43935e-06
1.5316e-05
-2.56751e-10
-3.04097e-06
1.59603e-05
-2.30786e-10
-7.12705e-07
1.60785e-05
-2.07246e-10
2.331e-06
1.55369e-05
-1.33329e-10
6.73522e-06
1.57429e-10
1.37875e-05
1.43424e-05
4.70447e-06
-1.63741e-07
-3.24689e-06
7.03036e-06
-1.94731e-07
-7.4401e-07
8.84877e-06
-1.49728e-07
-7.86433e-07
1.03061e-05
-1.2455e-07
-1.19137e-06
1.17209e-05
-9.35436e-08
-1.8522e-06
1.30912e-05
-2.90636e-08
-2.72644e-06
1.43227e-05
5.45127e-08
-3.43957e-06
1.53158e-05
1.13624e-07
-3.04127e-06
1.59602e-05
1.17092e-07
-7.13042e-07
1.60783e-05
3.58751e-08
2.33066e-06
1.55367e-05
-2.47892e-08
6.73475e-06
1.94202e-09
1.3787e-05
1.43423e-05
4.75278e-06
-3.83435e-07
-3.22447e-06
7.0679e-06
-4.34839e-07
-7.05195e-07
8.87986e-06
-3.21094e-07
-7.72548e-07
1.03313e-05
-2.61405e-07
-1.18086e-06
1.17521e-05
-2.02384e-07
-1.83942e-06
1.31305e-05
-6.9058e-08
-2.72414e-06
1.43493e-05
1.19963e-07
-3.43486e-06
1.53135e-05
2.4586e-07
-3.02931e-06
1.5949e-05
2.44094e-07
-7.32076e-07
1.60717e-05
9.67634e-08
2.28173e-06
1.55202e-05
-4.0873e-09
6.63777e-06
1.19658e-08
1.36799e-05
1.43428e-05
4.89097e-06
-7.25381e-07
-3.19802e-06
7.14708e-06
-7.06388e-07
-6.38369e-07
8.94278e-06
-5.14523e-07
-7.55841e-07
1.03783e-05
-4.06933e-07
-1.17722e-06
1.18042e-05
-3.28846e-07
-1.84342e-06
1.31871e-05
-1.13393e-07
-2.76662e-06
1.438e-05
2.09482e-07
-3.47007e-06
1.52933e-05
4.09315e-07
-3.025e-06
1.59245e-05
3.7358e-07
-7.67014e-07
1.60786e-05
1.76706e-07
2.20341e-06
1.55196e-05
9.16631e-08
6.50302e-06
3.8632e-08
1.3563e-05
1.43671e-05
5.27586e-06
-1.44823e-06
-3.14531e-06
7.33479e-06
-8.86284e-07
-6.19379e-07
9.0072e-06
-5.86881e-07
-8.97083e-07
1.03542e-05
-4.73331e-07
-1.2865e-06
1.17939e-05
-4.73748e-07
-1.88615e-06
1.32184e-05
-2.19056e-07
-2.83669e-06
1.44046e-05
2.89541e-07
-3.53043e-06
1.5261e-05
6.0566e-07
-3.00292e-06
1.58822e-05
4.91448e-07
-8.43587e-07
1.60841e-05
2.84841e-07
2.08931e-06
1.55081e-05
3.1193e-07
6.43813e-06
3.36095e-08
1.34646e-05
1.44064e-05
5.38492e-06
-2.12179e-06
-3.42659e-06
7.40632e-06
-8.13001e-07
-8.30071e-07
8.95243e-06
-4.54675e-07
-1.11457e-06
1.01874e-05
-3.83861e-07
-1.497e-06
1.15593e-05
-4.7104e-07
-2.10135e-06
1.29677e-05
-1.60111e-07
-3.21661e-06
1.42266e-05
4.48584e-07
-3.86568e-06
1.51631e-05
8.0216e-07
-3.02743e-06
1.58206e-05
5.69274e-07
-8.22436e-07
1.61507e-05
3.85003e-07
1.9707e-06
1.57966e-05
5.28411e-07
6.39332e-06
6.1904e-08
1.35941e-05
1.47047e-05
2.31307e-06
-4.32624e-06
4.43079e-06
-2.49132e-06
6.33767e-06
-2.06066e-06
7.89762e-06
-1.57598e-06
9.36669e-06
-1.7734e-06
1.08775e-05
-3.50111e-06
1.27119e-05
-4.5125e-06
1.4337e-05
-2.89294e-06
1.515e-05
-6.39368e-07
1.59797e-05
1.96833e-06
1.64803e-05
7.04578e-06
1.43765e-05
1.50549e-05
-1.86183e-07
5.43509e-07
-4.68364e-06
1.33001e-06
4.86283e-07
-4.49436e-06
3.23727e-06
3.25891e-07
-4.29445e-06
5.4491e-06
1.87333e-07
-3.9756e-06
7.74579e-06
3.28465e-08
-4.10361e-06
9.59851e-06
-2.5434e-07
-5.10052e-06
1.12113e-05
-5.97128e-07
-5.5282e-06
1.26377e-05
-6.31758e-07
-3.68669e-06
1.32501e-05
-1.91234e-07
-1.0597e-06
1.36899e-05
-3.94026e-09
1.53419e-06
1.41146e-05
-2.83812e-07
6.90839e-06
-1.03241e-08
1.51937e-05
1.33113e-05
5.86786e-07
6.81508e-07
-4.15125e-06
2.67802e-06
6.43017e-07
-3.07778e-06
4.66528e-06
4.42312e-07
-3.21817e-06
6.55199e-06
2.77421e-07
-3.47356e-06
8.457e-06
8.52115e-08
-4.05849e-06
1.01578e-05
-2.40645e-07
-4.93086e-06
1.15661e-05
-5.96046e-07
-5.27438e-06
1.26663e-05
-6.34376e-07
-4.12367e-06
1.34813e-05
-2.75813e-07
-1.55109e-06
1.38168e-05
-5.42431e-08
1.68765e-06
1.33824e-05
-1.63807e-07
6.71097e-06
2.87449e-08
1.4394e-05
1.25471e-05
8.46905e-07
5.17625e-07
-3.82823e-06
2.9412e-06
5.41808e-07
-2.61219e-06
4.92143e-06
3.87902e-07
-2.82264e-06
6.80467e-06
2.41774e-07
-3.13359e-06
8.66264e-06
6.57148e-08
-3.72394e-06
1.03275e-05
-1.83917e-07
-4.55755e-06
1.16761e-05
-4.35925e-07
-5.03808e-06
1.27093e-05
-4.70082e-07
-4.19892e-06
1.34914e-05
-2.47468e-07
-1.65216e-06
1.37118e-05
-1.23474e-08
1.82891e-06
1.30629e-05
2.37278e-08
6.90229e-06
2.79413e-08
1.43385e-05
1.21929e-05
8.24378e-07
3.24311e-07
-3.82901e-06
2.94068e-06
3.5723e-07
-2.56987e-06
4.96318e-06
2.72206e-07
-2.6624e-06
6.85123e-06
1.75695e-07
-2.99873e-06
8.66919e-06
5.21862e-08
-3.64723e-06
1.03098e-05
-1.12022e-07
-4.47835e-06
1.1685e-05
-2.74378e-07
-5.00586e-06
1.27615e-05
-3.05528e-07
-4.26478e-06
1.35269e-05
-1.75961e-07
-1.60238e-06
1.37058e-05
1.30794e-08
2.00058e-06
1.30935e-05
8.71672e-08
7.05406e-06
3.94113e-08
1.44579e-05
1.21895e-05
7.98585e-07
1.49553e-07
-3.84826e-06
2.90431e-06
1.71792e-07
-2.62534e-06
4.93234e-06
1.35645e-07
-2.66386e-06
6.81989e-06
8.91758e-08
-2.98157e-06
8.62804e-06
2.6395e-08
-3.62133e-06
1.02749e-05
-5.28493e-08
-4.42966e-06
1.16838e-05
-1.29442e-07
-4.98804e-06
1.27989e-05
-1.47611e-07
-4.30151e-06
1.35508e-05
-8.72581e-08
-1.57168e-06
1.36987e-05
1.90693e-08
2.12879e-06
1.31085e-05
6.87949e-08
7.24774e-06
2.60575e-08
1.46113e-05
1.2192e-05
7.76606e-07
-2.74239e-10
-3.87366e-06
2.87578e-06
-2.28654e-10
-2.67112e-06
4.90811e-06
-1.64752e-10
-2.6829e-06
6.79595e-06
-1.04095e-10
-2.98983e-06
8.59852e-06
-7.6883e-11
-3.62815e-06
1.02478e-05
-1.02871e-10
-4.4283e-06
1.16769e-05
-1.71196e-10
-4.99772e-06
1.28166e-05
-2.35044e-10
-4.32807e-06
1.35685e-05
-2.34381e-10
-1.55157e-06
1.37101e-05
-2.00108e-10
2.20867e-06
1.31358e-05
-8.50078e-11
7.37833e-06
2.16303e-10
1.47395e-05
1.22097e-05
7.7657e-07
-1.50058e-07
-3.87368e-06
2.87573e-06
-1.72201e-07
-2.67119e-06
4.90804e-06
-1.35923e-07
-2.68299e-06
6.79586e-06
-8.93326e-08
-2.98996e-06
8.59839e-06
-2.65057e-08
-3.62831e-06
1.02477e-05
5.26749e-08
-4.42849e-06
1.16767e-05
1.2912e-07
-4.99794e-06
1.28164e-05
1.47153e-07
-4.32836e-06
1.35683e-05
8.67896e-08
-1.5519e-06
1.37099e-05
-1.94876e-08
2.20834e-06
1.31357e-05
-6.89957e-08
7.37788e-06
-2.56653e-08
1.4739e-05
1.22095e-05
7.98478e-07
-3.2469e-07
-3.84832e-06
2.90415e-06
-3.575e-07
-2.62557e-06
4.93214e-06
-2.72331e-07
-2.66413e-06
6.81961e-06
-1.75701e-07
-2.98195e-06
8.62765e-06
-5.21738e-08
-3.62179e-06
1.02744e-05
1.11926e-07
-4.43018e-06
1.16833e-05
2.741e-07
-4.98868e-06
1.27984e-05
3.05093e-07
-4.30235e-06
1.35503e-05
1.75491e-07