/*--------------------------------*- C++ -*----------------------------------*\
| =========                 |                                                 |
| \\      /  F ield         | OpenFOAM: The Open Source CFD Toolbox           |
|  \\    /   O peration     | Version:  2.3.1                                 |
|   \\  /    A nd           | Web:      www.OpenFOAM.org                      |
|    \\/     M anipulation  |                                                 |
\*---------------------------------------------------------------------------*/
FoamFile
{
    version     2.0;
    format      ascii;
    class       volVectorField;
    location    "10";
    object      U;
}
// * * * * * * * * * * * * * * * * * * * * * * * * * * * * * * * * * * * * * //

dimensions      [0 1 -1 0 0 0 0];

internalField   nonuniform List<vector> 
37758
(
(0.0835777 -7.83036e-05 -0.000754141)
(0.0813142 0.000804938 -0.000767669)
(0.0780685 -0.000293288 -0.00177773)
(0.0840908 -0.00087991 -0.0013496)
(0.0819587 -0.00022725 -0.00124013)
(0.0825644 0.000221534 -0.00252101)
(0.0883629 0.00100175 -0.00202802)
(0.0877628 0.000523594 -0.00176896)
(0.0917461 0.000354319 -0.000792197)
(0.0881304 0.000477483 0.000776485)
(0.0811708 9.40578e-05 0.00148934)
(0.070475 0.00135097 0.00475544)
(0.0827054 -7.55486e-05 -0.00066276)
(0.0813745 0.00108049 -0.000789315)
(0.079931 -0.000455886 -0.00158897)
(0.0831621 -0.00104978 -0.00142601)
(0.0831177 0.000110847 -0.00110176)
(0.0838509 2.22257e-05 -0.00151768)
(0.0879285 0.000933226 -0.00117255)
(0.0891984 0.000575394 -0.00101883)
(0.0916153 -7.71497e-05 -0.000119823)
(0.0891814 0.000414464 0.00125675)
(0.0823413 -5.10082e-05 0.00227912)
(0.0709871 0.00127046 0.00497599)
(0.0824629 -0.000102121 -0.00064754)
(0.0813114 0.000779403 -0.000906808)
(0.0804988 -0.000219134 -0.00164248)
(0.0825815 -0.000518518 -0.00156562)
(0.0830694 0.000564694 -0.0012736)
(0.0839787 -2.8628e-05 -0.00150314)
(0.087103 0.000345067 -0.00127468)
(0.0894552 0.000533023 -0.00112404)
(0.0915512 -0.000252015 -0.000182289)
(0.0889675 0.000255516 0.00116225)
(0.0827401 3.18361e-05 0.00238327)
(0.0705182 0.000170899 0.00492046)
(0.082456 -8.3263e-05 -0.000623251)
(0.081103 0.000540996 -0.00101312)
(0.080457 -0.000158989 -0.00174625)
(0.0823525 -0.000379205 -0.00166488)
(0.0831466 0.000472978 -0.00135128)
(0.0844127 -3.91674e-06 -0.00144437)
(0.0866864 0.00026756 -0.00128232)
(0.089378 0.000645936 -0.00109296)
(0.0914611 -4.97687e-05 -8.10562e-05)
(0.0881916 0.000232844 0.00111018)
(0.0829446 0.000147248 0.00243542)
(0.0699958 -9.88728e-05 0.00501005)
(0.0824595 -4.68395e-05 -0.00061618)
(0.0810469 0.000255854 -0.00107565)
(0.080436 -7.60935e-05 -0.00179402)
(0.082312 -0.000122134 -0.00170429)
(0.0831161 0.000308092 -0.00138876)
(0.084383 -6.20046e-05 -0.00145891)
(0.0864793 6.4677e-05 -0.00132129)
(0.0893144 0.000293873 -0.00107884)
(0.0913774 -0.00010085 -5.27251e-05)
(0.087966 0.000107663 0.00107522)
(0.0830281 5.81274e-05 0.00246739)
(0.0697467 -0.000143091 0.00504202)
(0.08247 -1.79718e-05 -0.000613788)
(0.081026 9.57776e-05 -0.00110045)
(0.0803661 -2.27705e-05 -0.00182105)
(0.0822866 -5.46672e-05 -0.00172833)
(0.0831511 0.000103381 -0.00140554)
(0.0843992 -8.81588e-06 -0.00146712)
(0.0864389 5.19264e-05 -0.00133986)
(0.0893101 0.000160444 -0.00106655)
(0.0912704 1.40521e-05 -3.49558e-05)
(0.0878257 7.15216e-05 0.00106038)
(0.0830329 5.32344e-05 0.00249082)
(0.0695172 -5.46026e-05 0.00506595)
(0.0824699 1.74511e-05 -0.000613807)
(0.0810261 -9.66472e-05 -0.00110046)
(0.080366 2.13298e-05 -0.00182107)
(0.0822865 5.2862e-05 -0.00172842)
(0.0831512 -0.000106297 -0.00140559)
(0.0843992 5.88235e-06 -0.00146716)
(0.0864389 -5.45742e-05 -0.00133995)
(0.0893102 -0.000164658 -0.00106664)
(0.0912708 -1.71138e-05 -3.50655e-05)
(0.0878264 -7.4219e-05 0.00106026)
(0.0830338 -5.58258e-05 0.00249067)
(0.0695191 5.6269e-05 0.00506585)
(0.0824594 4.63802e-05 -0.000616226)
(0.0810471 -0.000256625 -0.00107566)
(0.0804357 7.47437e-05 -0.00179399)
(0.0823116 0.000120581 -0.00170452)
(0.0831163 -0.000310724 -0.0013889)
(0.0843829 5.93495e-05 -0.00145901)
(0.0864794 -6.695e-05 -0.00132155)
(0.0893148 -0.000297707 -0.0010791)
(0.0913783 9.80875e-05 -5.30673e-05)
(0.0879679 -0.000110059 0.00107487)
(0.0830307 -6.05803e-05 0.00246693)
(0.0697519 0.000144583 0.00504174)
(0.0824559 8.29506e-05 -0.000623333)
(0.0811033 -0.00054154 -0.00101312)
(0.0804565 0.000157844 -0.00174624)
(0.0823518 0.000378185 -0.00166524)
(0.0831469 -0.00047495 -0.0013515)
(0.0844124 1.81697e-06 -0.00144454)
(0.0866866 -0.000269019 -0.00128271)
(0.0893786 -0.000648908 -0.00109333)
(0.0914624 4.76839e-05 -8.16053e-05)
(0.0881947 -0.000234594 0.00110966)
(0.0829487 -0.000149353 0.00243473)
(0.0700038 0.000100064 0.00500957)
(0.0824627 0.000101938 -0.000647644)
(0.0813118 -0.000779722 -0.000906765)
(0.0804982 0.000218202 -0.00164242)
(0.0825806 0.000518009 -0.00156609)
(0.0830699 -0.00056602 -0.00127382)
(0.0839784 2.7186e-05 -0.00150329)
(0.087103 -0.000345665 -0.00127513)
(0.0894562 -0.000535002 -0.00112442)
(0.0915524 0.000250814 -0.000182955)
(0.0889711 -0.000256611 0.00116158)
(0.0827452 -3.34726e-05 0.00238245)
(0.0705276 -0.000169912 0.00491972)
(0.0827051 7.55388e-05 -0.000662909)
(0.0813753 -0.00108048 -0.000789209)
(0.0799301 0.000455344 -0.00158885)
(0.0831608 0.00104996 -0.00142655)
(0.0831187 -0.000111428 -0.00110196)
(0.0838502 -2.26594e-05 -0.00151784)
(0.0879286 -0.000932833 -0.001173)
(0.0891996 -0.000576211 -0.00101907)
(0.0916161 7.73386e-05 -0.000120595)
(0.0891859 -0.000414916 0.00125613)
(0.0823467 5.01046e-05 0.00227822)
(0.0709974 -0.0012693 0.00497485)
(0.083577 7.84009e-05 -0.000754255)
(0.0813163 -0.00080482 -0.000767254)
(0.0780671 0.000293149 -0.00177736)
(0.0840887 0.000880301 -0.00135029)
(0.0819609 0.000227236 -0.00124001)
(0.0825625 -0.00022136 -0.00252092)
(0.0883636 -0.00100121 -0.00202836)
(0.0877642 -0.000523518 -0.00176866)
(0.0917457 -0.000353554 -0.000793035)
(0.0881363 -0.000477526 0.000776184)
(0.0811746 -9.41661e-05 0.00148855)
(0.0704861 -0.00135017 0.00475341)
(0.0825781 -7.60667e-05 0.000697851)
(0.0829968 0.000612404 0.00275394)
(0.0817072 -0.000231341 0.000885834)
(0.0845662 -0.000867876 0.000518747)
(0.0845635 6.0736e-05 0.00184465)
(0.0837411 0.000303635 -0.00100322)
(0.0892552 0.00107423 -0.00157395)
(0.0909062 0.0011349 -0.000428738)
(0.0932853 0.000404437 0.000476091)
(0.0933744 0.000781322 0.00421874)
(0.0862311 0.000745077 0.00772148)
(0.0761276 0.00118185 0.0119319)
(0.0823489 -2.89648e-05 0.00120453)
(0.0825129 0.000655208 0.00211678)
(0.0826364 -0.000165701 0.000668224)
(0.0839487 -0.00087567 -0.000251659)
(0.0847301 9.36255e-05 0.00012268)
(0.0853019 7.23303e-05 -0.000948554)
(0.0888584 0.00106223 -0.00128248)
(0.0917384 0.00131714 -0.000767574)
(0.093407 0.000247187 0.000472108)
(0.0922158 0.000661539 0.00356215)
(0.0873341 0.000323154 0.00736358)
(0.077848 0.00110891 0.0123911)
(0.0822924 -7.5847e-05 0.00135681)
(0.082389 0.000449484 0.00207981)
(0.0828246 -1.99163e-05 0.000955567)
(0.0836574 -0.000401167 8.67531e-05)
(0.0847112 0.000316653 0.00014273)
(0.0858821 -0.000128723 -0.000698645)
(0.0886956 0.000352169 -0.00129134)
(0.0918803 0.000839654 -0.00110732)
(0.0934833 -9.05448e-05 0.000447229)
(0.0915517 0.000226147 0.00337769)
(0.0873416 9.73685e-05 0.00726235)
(0.0776657 9.21039e-05 0.0126889)
(0.082298 -5.46664e-05 0.00145362)
(0.0822137 0.00029879 0.0021659)
(0.0826513 -3.3583e-05 0.00109468)
(0.0835918 -0.000297359 0.000210823)
(0.0848291 0.000295982 0.00023178)
(0.0863805 -5.09103e-06 -0.00046774)
(0.0886575 0.00031575 -0.00122915)
(0.0916987 0.000823073 -0.00112838)
(0.0934829 5.8937e-05 0.000627554)
(0.0908467 0.000155847 0.0032991)
(0.087221 0.00015463 0.00717008)
(0.0773843 -9.99372e-05 0.0128895)
(0.0822996 -3.67512e-05 0.00147185)
(0.0821675 0.000142097 0.00219106)
(0.0825996 -7.47755e-07 0.00116329)
(0.0835807 -9.69816e-05 0.000307166)
(0.0848105 0.000190851 0.000308448)
(0.0864141 -5.60538e-05 -0.000386978)
(0.0885354 0.000104786 -0.00122511)
(0.0915452 0.000395106 -0.00110095)
(0.0934044 -3.84943e-05 0.000710993)
(0.0905852 6.01424e-05 0.00327655)
(0.0871389 7.79679e-05 0.00719044)
(0.0771978 -0.000140033 0.0129661)
(0.0823025 -1.24359e-05 0.00148251)
(0.082141 5.5312e-05 0.0022128)
(0.0825375 -2.53801e-07 0.00119984)
(0.0835744 -4.49579e-05 0.000343095)
(0.0848438 6.58481e-05 0.000335135)
(0.086449 -2.34945e-06 -0.000369146)
(0.0885006 6.08371e-05 -0.00124128)
(0.091482 0.000182648 -0.00108647)
(0.0932961 2.72158e-05 0.000750347)
(0.0904105 4.61047e-05 0.0032644)
(0.0870788 6.05442e-05 0.00721662)
(0.0770169 -4.61688e-05 0.0130184)
(0.0823025 1.20006e-05 0.00148248)
(0.0821409 -5.58684e-05 0.00221279)
(0.0825375 -8.08004e-07 0.00119987)
(0.0835743 4.32961e-05 0.000342997)
(0.0848438 -6.82049e-05 0.000334991)
(0.086449 -1.21099e-07 -0.000369265)
(0.0885005 -6.32946e-05 -0.00124149)
(0.0914819 -0.000186255 -0.00108674)
(0.0932963 -2.99741e-05 0.00075005)
(0.0904108 -4.84205e-05 0.00326405)
(0.0870792 -6.2828e-05 0.00721616)
(0.0770182 4.73697e-05 0.0130181)
(0.0822996 3.63584e-05 0.00147175)
(0.0821674 -0.000142567 0.00219102)
(0.0825995 -2.40852e-07 0.00116335)
(0.0835805 9.55273e-05 0.000306804)
(0.0848103 -0.000192943 0.000307999)
(0.086414 5.38413e-05 -0.000387262)
(0.0885354 -0.00010688 -0.00122573)
(0.0915449 -0.000398343 -0.00110175)
(0.0934047 3.60243e-05 0.000710137)
(0.0905861 -6.21445e-05 0.00327547)
(0.0871401 -8.01009e-05 0.0071891)
(0.0772016 0.000141102 0.0129651)
(0.082298 5.4378e-05 0.00145347)
(0.0822135 -0.000299043 0.00216585)
(0.0826512 3.2758e-05 0.00109484)
(0.0835915 0.000296346 0.000210359)
(0.0848289 -0.000297454 0.00023115)
(0.0863804 3.40448e-06 -0.000468233)
(0.0886573 -0.000317046 -0.00123007)
(0.0916984 -0.000825474 -0.00112959)
(0.0934833 -6.07184e-05 0.000626148)
(0.090848 -0.000157172 0.00329744)
(0.0872229 -0.0001564 0.00716803)
(0.0773903 0.000100808 0.012888)
(0.0822924 7.5642e-05 0.00135665)
(0.0823887 -0.000449522 0.00207978)
(0.0828243 1.92805e-05 0.000955751)
(0.083657 0.00040059 8.61204e-05)
(0.084711 -0.000317549 0.00014202)
(0.085882 0.000127623 -0.000699053)
(0.0886952 -0.000352558 -0.00129244)
(0.0918801 -0.000841094 -0.00110872)
(0.0934838 8.95995e-05 0.000445543)
(0.0915531 -0.000226744 0.00337552)
(0.0873442 -9.86698e-05 0.00725986)
(0.0776728 -9.13337e-05 0.0126869)
(0.0823488 2.89164e-05 0.00120428)
(0.0825127 -0.000654848 0.00211674)
(0.0826361 0.000165432 0.000668634)
(0.083948 0.000875636 -0.000252395)
(0.0847302 -9.379e-05 0.000121931)
(0.0853018 -7.25477e-05 -0.000948848)
(0.0888577 -0.00106148 -0.00128362)
(0.0917386 -0.00131744 -0.000768805)
(0.0934074 -0.000247011 0.00047037)
(0.0922178 -0.000661334 0.0035597)
(0.0873377 -0.00032385 0.00736097)
(0.0778561 -0.00110802 0.0123887)
(0.0825778 7.61065e-05 0.000697535)
(0.082997 -0.000612027 0.00275394)
(0.0817068 0.000231355 0.000887031)
(0.0845645 0.000868159 0.000518)
(0.0845647 -6.06272e-05 0.00184423)
(0.0837409 -0.000303529 -0.0010028)
(0.0892541 -0.00107336 -0.00157489)
(0.090908 -0.00113465 -0.000428816)
(0.0932853 -0.00040396 0.000475077)
(0.0933778 -0.000780876 0.00421646)
(0.0862364 -0.000745284 0.00771936)
(0.076136 -0.00118161 0.011929)
(0.0815436 0.000191786 -0.00157275)
(0.081905 0.00049971 -0.000915785)
(0.0818595 0.000269696 -0.00251978)
(0.0812404 -0.000582222 -0.00185762)
(0.0828311 -0.000423018 -0.00129094)
(0.082456 0.000443981 -0.00551316)
(0.0842001 0.00116477 -0.00674391)
(0.0865721 0.000871534 -0.00472401)
(0.0872335 0.000141221 -0.00230031)
(0.0880697 -8.14111e-05 0.00370046)
(0.0857204 0.000261788 0.0102946)
(0.0769439 0.00187593 0.0175895)
(0.0817941 0.000260305 -0.000962728)
(0.0808033 0.000702848 -0.00116989)
(0.0803669 0.000326324 -0.00252769)
(0.0796766 -0.000705312 -0.00263676)
(0.0797514 -0.000267834 -0.00213928)
(0.0801757 0.000761797 -0.00341592)
(0.0824926 0.00146349 -0.00398226)
(0.0850688 0.000849398 -0.00284723)
(0.086361 -0.00040182 -3.41701e-06)
(0.0852964 -0.000479489 0.0045778)
(0.0830581 -0.000592706 0.010458)
(0.0773582 0.000850208 0.0189142)
(0.0818524 4.90559e-05 -0.00087459)
(0.0805786 0.00046418 -0.00132906)
(0.0805305 0.000530656 -0.00235922)
(0.0800258 0.000101542 -0.00282031)
(0.0800618 0.000260431 -0.00271405)
(0.0806506 0.000403072 -0.00346712)
(0.0826783 0.00074447 -0.00386819)
(0.0849839 0.000552342 -0.00298216)
(0.0861457 -0.000486508 0.000164973)
(0.0845535 -0.000425721 0.00446358)
(0.0823005 -0.000368552 0.0100267)
(0.0765931 -9.22568e-05 0.0189979)
(0.0819296 4.67021e-06 -0.000778001)
(0.080443 0.000329224 -0.00146269)
(0.0802723 0.000279979 -0.00248481)
(0.0799352 -1.49184e-05 -0.0029513)
(0.0802325 0.00023106 -0.00284906)
(0.081096 0.000353739 -0.00334444)
(0.0826704 0.000618776 -0.00376233)
(0.0846491 0.000588407 -0.00295499)
(0.0860584 -0.000293542 0.00040689)
(0.0839623 -0.0003358 0.00436154)
(0.0819852 -0.000135013 0.00978261)
(0.0763932 -0.000205474 0.0191858)
(0.081962 -1.95108e-05 -0.000746051)
(0.0804298 0.000160606 -0.00155259)
(0.0801747 0.000156756 -0.00253435)
(0.0798016 4.37357e-05 -0.00297673)
(0.0800945 0.000141106 -0.00286087)
(0.0810186 0.000130562 -0.00327423)
(0.0824359 0.000286561 -0.00371406)
(0.0843645 0.000287635 -0.00288594)
(0.0859258 -0.000217265 0.000521185)
(0.0836843 -0.000174569 0.00433275)
(0.0818089 -2.06871e-05 0.00979034)
(0.0762041 -0.000172132 0.0192715)
(0.0819745 -5.35497e-06 -0.000729797)
(0.0804178 6.31473e-05 -0.00157897)
(0.0800913 4.81274e-05 -0.0025611)
(0.0797287 1.92927e-07 -0.00299801)
(0.0800512 4.69937e-05 -0.00287167)
(0.0809745 5.69692e-05 -0.00326421)
(0.0822971 0.000119903 -0.00371637)
(0.0841905 0.000135723 -0.00285767)
(0.085783 -4.54142e-05 0.000572108)
(0.0835005 -4.22489e-05 0.00431919)
(0.0817336 2.88321e-05 0.00983174)
(0.0760788 -4.7858e-05 0.0193586)
(0.0819745 4.92782e-06 -0.000729802)
(0.0804177 -6.35809e-05 -0.001579)
(0.0800913 -4.92571e-05 -0.00256112)
(0.0797286 -2.10911e-06 -0.00299817)
(0.080051 -4.92029e-05 -0.00287187)
(0.0809743 -5.94256e-05 -0.0032644)
(0.0822968 -0.000122692 -0.00371663)
(0.08419 -0.000139022 -0.00285803)
(0.0857827 4.28148e-05 0.000571671)
(0.0835003 4.01217e-05 0.00431872)
(0.0817333 -3.08277e-05 0.00983103)
(0.0760794 4.8795e-05 0.019358)
(0.081962 1.91226e-05 -0.000746049)
(0.0804297 -0.000160965 -0.0015527)
(0.0801745 -0.000157773 -0.00253453)
(0.0798013 -4.54186e-05 -0.00297726)
(0.080094 -0.000143038 -0.00286148)
(0.0810179 -0.000132712 -0.00327474)
(0.082435 -0.000288928 -0.00371482)
(0.0843631 -0.000290516 -0.00288703)
(0.0859246 0.000214974 0.000519959)
(0.0836837 0.000172735 0.00433132)
(0.081808 1.88248e-05 0.00978825)
(0.0762056 0.000172941 0.0192698)
(0.0819297 -4.94248e-06 -0.000778009)
(0.0804427 -0.000329386 -0.00146284)
(0.0802721 -0.000280753 -0.00248496)
(0.0799348 1.37052e-05 -0.00295205)
(0.0802317 -0.000232354 -0.0028499)
(0.0810949 -0.00035521 -0.00334522)
(0.082669 -0.000620239 -0.00376347)
(0.084647 -0.000590362 -0.0029566)
(0.0860567 0.000292012 0.000404892)
(0.0839615 0.000334598 0.00435935)
(0.0819841 0.000133471 0.00977938)
(0.0763955 0.000206091 0.0191829)
(0.0818526 -4.92702e-05 -0.000874587)
(0.0805783 -0.000464147 -0.00132919)
(0.0805302 -0.000531149 -0.00235945)
(0.0800254 -0.000102337 -0.00282121)
(0.0800609 -0.000261093 -0.00271499)
(0.0806493 -0.000403706 -0.00346785)
(0.0826765 -0.00074487 -0.00386953)
(0.0849815 -0.000553228 -0.00298407)
(0.0861437 0.000485905 0.000162542)
(0.0845524 0.000425242 0.00446071)
(0.0822994 0.000367505 0.0100227)
(0.0765959 9.28829e-05 0.0189942)
(0.0817943 -0.000260366 -0.000962745)
(0.0808031 -0.000702369 -0.00116993)
(0.0803669 -0.000326306 -0.00252776)
(0.0796761 0.000705108 -0.00263789)
(0.0797505 0.000268096 -0.00214019)
(0.0801746 -0.000761333 -0.00341629)
(0.0824909 -0.00146268 -0.0039835)
(0.085067 -0.000849065 -0.002849)
(0.0863598 0.000402346 -5.72734e-06)
(0.0852962 0.000479786 0.00457467)
(0.083058 0.000592466 0.0104537)
(0.0773625 -0.000849259 0.0189102)
(0.0815438 -0.000191857 -0.0015729)
(0.0819038 -0.00049924 -0.00091492)
(0.0818598 -0.000269393 -0.00251875)
(0.0812403 0.000582219 -0.00185901)
(0.0828307 0.000423248 -0.00129139)
(0.0824564 -0.000443429 -0.00551203)
(0.0841989 -0.00116398 -0.00674447)
(0.086573 -0.000871095 -0.0047243)
(0.0872351 -0.00014081 -0.00230143)
(0.088071 8.16884e-05 0.0036973)
(0.085724 -0.000261222 0.0102911)
(0.0769517 -0.00187523 0.0175856)
(0.0802409 -1.48626e-05 0.00154237)
(0.0821457 0.000317189 0.00187527)
(0.0792051 -0.000240324 0.00128194)
(0.076842 -0.00186897 0.00108251)
(0.0779448 -0.000420066 0.0013098)
(0.0740419 0.00186805 -0.00221433)
(0.0709628 0.00135165 -0.00470969)
(0.073194 -0.000810957 -0.00295682)
(0.0741547 -0.00164612 -0.000323843)
(0.0744723 -0.00199297 0.00530064)
(0.0772139 -0.00225768 0.0137078)
(0.0732269 0.000349209 0.0234938)
(0.0799867 0.000319237 0.00317504)
(0.0774302 0.000473761 0.00254443)
(0.0729184 -8.21481e-05 0.00140665)
(0.0689631 -0.000780521 8.39202e-05)
(0.0673589 0.00112974 -0.000629757)
(0.0674145 0.00272849 -0.00241858)
(0.0696229 0.00148817 -0.00366627)
(0.0723525 -0.000782672 -0.00262064)
(0.0740337 -0.00179755 0.000601001)
(0.0741177 -0.00171178 0.00528585)
(0.0737162 -0.00184368 0.0122869)
(0.0708075 0.00013099 0.0234486)
(0.080424 0.000139413 0.00354497)
(0.0772679 0.00061006 0.00260618)
(0.073581 0.000716064 0.00166772)
(0.0697789 0.000277956 0.000387362)
(0.0676557 0.00089198 -0.000571328)
(0.067699 0.00126235 -0.00211019)
(0.0699172 0.000550549 -0.003332)
(0.0722721 -0.00064788 -0.00278443)
(0.0738215 -0.00141998 0.000535184)
(0.0738264 -0.00105874 0.00512315)
(0.07284 -0.000837469 0.0117059)
(0.0694605 -0.000348925 0.0231022)
(0.0812745 0.000117301 0.00365025)
(0.0773942 0.000345306 0.00281338)
(0.0736257 0.000273284 0.0019142)
(0.0701081 0.000200073 0.000622363)
(0.0680441 0.000706162 -0.000426044)
(0.0679178 0.000878697 -0.00184632)
(0.0696823 0.000449477 -0.00312117)
(0.0718813 -0.000275124 -0.0027425)
(0.0738104 -0.000958865 0.00072822)
(0.0735693 -0.000692944 0.00511047)
(0.0726067 -0.000283925 0.0115017)
(0.069438 -0.000225633 0.0232362)
(0.0817081 2.50692e-05 0.00363177)
(0.0774327 0.000152771 0.00288819)
(0.0734418 0.000145677 0.00199474)
(0.0698681 0.000152841 0.000703394)
(0.0678278 0.000369549 -0.000354942)
(0.0677022 0.000393214 -0.00173268)
(0.0693445 0.000192752 -0.00303161)
(0.0716112 -0.000174621 -0.0026895)
(0.0737859 -0.000564962 0.000809893)
(0.0734358 -0.000333055 0.00511482)
(0.0724877 -4.32508e-05 0.0115627)
(0.0693542 -0.000151101 0.0233431)
(0.0818259 8.83481e-06 0.00363234)
(0.0774536 5.88106e-05 0.00294999)
(0.0733285 3.60228e-05 0.00203888)
(0.0697483 4.03144e-05 0.000742885)
(0.0677136 0.000122423 -0.000338528)
(0.0675568 0.000138694 -0.00171358)
(0.0691244 8.61857e-05 -0.00302621)
(0.0714303 -2.61482e-05 -0.00267972)
(0.0737221 -0.00016799 0.000846656)
(0.0733531 -9.37214e-05 0.00512539)
(0.0724735 2.86418e-05 0.0116453)
(0.0693385 -2.69922e-05 0.0234737)
(0.081826 -9.25728e-06 0.0036323)
(0.0774536 -5.96292e-05 0.00294999)
(0.0733284 -3.77208e-05 0.00203884)
(0.069748 -4.25467e-05 0.000742755)
(0.0677132 -0.000124732 -0.000338725)
(0.0675562 -0.000141119 -0.00171382)
(0.0691238 -8.87817e-05 -0.00302655)
(0.0714296 2.34636e-05 -0.00268021)
(0.0737215 0.000165898 0.000846059)
(0.0733526 9.18799e-05 0.0051248)
(0.0724729 -3.01635e-05 0.0116444)
(0.0693385 2.79608e-05 0.0234728)
(0.0817086 -2.54231e-05 0.00363163)
(0.0774325 -0.000153464 0.00288816)
(0.0734414 -0.000147173 0.00199463)
(0.0698673 -0.000154774 0.000703035)
(0.0678265 -0.000371475 -0.000355535)
(0.0677006 -0.000395204 -0.00173339)
(0.0693427 -0.000194889 -0.00303262)
(0.0716091 0.000172319 -0.00269094)
(0.0737841 0.000563088 0.000808159)
(0.0734344 0.00033139 0.00511303)
(0.072486 4.17418e-05 0.0115602)
(0.0693538 0.000151882 0.0233405)
(0.0812753 -0.000117511 0.00365001)
(0.0773941 -0.000345663 0.00281333)
(0.0736251 -0.000274351 0.00191404)
(0.0701068 -0.000201346 0.000621825)
(0.0680421 -0.000707216 -0.000426871)
(0.0679153 -0.000879749 -0.00184734)
(0.0696794 -0.000450673 -0.00312266)
(0.0718782 0.000273621 -0.00274462)
(0.0738076 0.000957519 0.000725689)
(0.0735673 0.000691618 0.00510773)
(0.0726043 0.000282473 0.0114977)
(0.0694374 0.00022609 0.0232321)
(0.0804249 -0.000139468 0.00354469)
(0.0772678 -0.000609981 0.00260613)
(0.0735803 -0.000716616 0.00166748)
(0.0697775 -0.000278576 0.000386654)
(0.0676533 -0.000891977 -0.000572292)
(0.067696 -0.00126222 -0.0021113)
(0.0699138 -0.000550678 -0.00333375)
(0.0722684 0.000647267 -0.00278694)
(0.0738182 0.00141935 0.000532155)
(0.0738239 0.00105781 0.00511965)
(0.0728373 0.000836219 0.0117008)
(0.0694599 0.000349325 0.023097)
(0.0799882 -0.000319063 0.00317456)
(0.0774306 -0.000472959 0.00254437)
(0.0729183 8.22366e-05 0.00140666)
(0.0689621 0.000780705 8.33659e-05)
(0.0673569 -0.00112831 -0.000630473)
(0.0674122 -0.002727 -0.00241917)
(0.0696201 -0.00148721 -0.00366771)
(0.0723497 0.000783132 -0.00262289)
(0.0740315 0.00179779 0.000598314)
(0.0741162 0.0017112 0.00528221)
(0.0737144 0.00184279 0.0122813)
(0.0708083 -0.000130247 0.0234429)
(0.0802407 1.46613e-05 0.0015425)
(0.0821453 -0.0003161 0.00187588)
(0.0792067 0.000240637 0.0012826)
(0.0768419 0.00186873 0.00108213)
(0.0779436 0.000421051 0.00130962)
(0.0740427 -0.00186692 -0.00221324)
(0.0709625 -0.00135117 -0.00471004)
(0.0731941 0.00081125 -0.00295777)
(0.0741573 0.00164669 -0.000324742)
(0.0744733 0.00199265 0.00529736)
(0.0772145 0.00225788 0.0137029)
(0.073233 -0.000347771 0.0234892)
(0.00572377 0.00843005 -0.00127554)
(0.0128996 0.00277998 -0.000322941)
(0.0217912 0.00159509 -0.000215415)
(0.0283509 0.00139522 0.000275805)
(0.0344518 0.0014408 -0.000692004)
(0.0394874 -6.86632e-05 -0.00516313)
(0.0458711 -0.00244439 -0.00769891)
(0.0542227 -0.00370583 -0.00509987)
(0.0590614 -0.00244381 -0.00118627)
(0.0601983 -0.00163011 0.0043632)
(0.0653845 -0.00245771 0.0141146)
(0.0656546 -0.000531637 0.0272465)
(0.018781 0.00797876 0.00121106)
(0.0246122 0.003744 0.00211419)
(0.0332434 0.00208029 0.00064778)
(0.0377399 0.00171616 -0.000800036)
(0.0428772 0.0022357 -0.0021994)
(0.0483295 0.00129639 -0.00455158)
(0.0537296 -0.0011468 -0.00607399)
(0.0582407 -0.00269497 -0.00480734)
(0.0614992 -0.00210452 -0.000931683)
(0.0632655 -0.00139277 0.00427608)
(0.0636925 -0.00176871 0.0124071)
(0.0617998 8.49429e-06 0.0258927)
(0.0185366 0.00364201 0.00126787)
(0.0240405 0.00322716 0.00202504)
(0.0331914 0.00247872 0.00090142)
(0.0382728 0.00194957 -0.00042069)
(0.0436304 0.00153868 -0.00180912)
(0.0494377 0.000485451 -0.00388416)
(0.0546757 -0.00108626 -0.00551504)
(0.0586818 -0.00202797 -0.00481374)
(0.0617435 -0.00174488 -0.000928759)
(0.0635288 -0.000865677 0.00441235)
(0.0629695 -0.000667345 0.0122811)
(0.0602196 -0.000264336 0.0255628)
(0.0163049 0.00210028 0.000950214)
(0.0231691 0.00228045 0.00210451)
(0.032645 0.00162106 0.00118758)
(0.0382734 0.00130076 -0.000225596)
(0.043698 0.00105437 -0.00176297)
(0.0494222 0.00039758 -0.00375299)
(0.0545182 -0.000589375 -0.00540077)
(0.0586256 -0.00123389 -0.00483794)
(0.0620252 -0.00122224 -0.000756356)
(0.0635893 -0.000539436 0.00456849)
(0.0628889 -7.39525e-05 0.0123044)
(0.0603828 -5.22595e-05 0.0257344)
(0.0154324 0.000959457 0.00081375)
(0.022912 0.00116824 0.00209608)
(0.0323184 0.000896985 0.0011823)
(0.0380728 0.000743759 -0.000230992)
(0.0435005 0.000549983 -0.00177002)
(0.0492089 0.000157945 -0.00368853)
(0.0543065 -0.00034838 -0.00533624)
(0.0585856 -0.00070143 -0.00482791)
(0.0622 -0.000713317 -0.000679458)
(0.0635962 -0.000235339 0.00466964)
(0.0628495 0.000103289 0.0125021)
(0.0604404 -3.74604e-05 0.025922)
(0.0151686 0.000319419 0.000759225)
(0.0227809 0.000373005 0.00209248)
(0.0321685 0.000284367 0.00118896)
(0.037966 0.000239358 -0.000241963)
(0.0433919 0.000183849 -0.00179953)
(0.0490667 6.62374e-05 -0.00370155)
(0.054149 -9.02784e-05 -0.00535002)
(0.0585284 -0.000206353 -0.00484372)
(0.0622632 -0.000221761 -0.000642635)
(0.063611 -5.65521e-05 0.00473355)
(0.062897 8.55241e-05 0.0126556)
(0.0605291 2.29933e-05 0.0261072)
(0.0151685 -0.000321731 0.000759191)
(0.0227807 -0.000375111 0.00209246)
(0.0321683 -0.000286636 0.00118891)
(0.0379656 -0.00024136 -0.000242123)
(0.0433915 -0.000185574 -0.0017998)
(0.0490661 -6.79448e-05 -0.00370188)
(0.0541483 8.83988e-05 -0.00535045)
(0.0585277 0.000204328 -0.0048443)
(0.0622625 0.000219934 -0.00064333)
(0.0636104 5.49113e-05 0.00473289)
(0.0628964 -8.65845e-05 0.0126546)
(0.0605287 -2.17474e-05 0.0261062)
(0.0154315 -0.000961511 0.000813614)
(0.0229117 -0.00116998 0.00209606)
(0.0323178 -0.000898831 0.00118216)
(0.0380718 -0.000745278 -0.000231479)
(0.0434991 -0.000551231 -0.00177082)
(0.0492072 -0.000159244 -0.0036895)
(0.0543046 0.000346823 -0.0053375)
(0.0585835 0.000699627 -0.00482958)
(0.0621979 0.000711638 -0.000681472)
(0.0635944 0.000233715 0.00466771)
(0.0628476 -0.00010448 0.0124994)
(0.060439 3.84353e-05 0.0259191)
(0.0163036 -0.00210176 0.000949979)
(0.0231686 -0.00228151 0.00210448)
(0.032644 -0.00162204 0.00118738)
(0.0382719 -0.00130129 -0.000226314)
(0.0436959 -0.00105461 -0.00176411)
(0.0494196 -0.000398065 -0.00375439)
(0.0545152 0.000588434 -0.00540261)
(0.0586225 0.00123252 -0.00484043)
(0.0620221 0.00122079 -0.000759336)
(0.0635866 0.000537806 0.00456549)
(0.0628861 7.25361e-05 0.0123002)
(0.0603808 5.27338e-05 0.0257297)
(0.0185348 -0.00364292 0.00126748)
(0.0240398 -0.00322729 0.00202496)
(0.0331902 -0.00247857 0.000901194)
(0.0382711 -0.00194879 -0.000421627)
(0.0436279 -0.00153766 -0.00181045)
(0.0494345 -0.000485025 -0.00388565)
(0.0546722 0.0010859 -0.00551714)
(0.0586782 0.00202703 -0.00481667)
(0.0617399 0.00174372 -0.000932317)
(0.0635258 0.000864027 0.00440854)
(0.0629665 0.000665782 0.0122757)
(0.0602173 0.000264535 0.0255568)
(0.0187778 -0.00797842 0.00121045)
(0.0246114 -0.00374369 0.00211423)
(0.0332425 -0.00207942 0.000647829)
(0.0377387 -0.00171415 -0.000800522)
(0.0428753 -0.00223336 -0.00220001)
(0.0483271 -0.00129512 -0.00455213)
(0.0537269 0.00114696 -0.0060754)
(0.0582379 0.00269458 -0.00480989)
(0.0614966 0.00210382 -0.00093494)
(0.0632635 0.001391 0.00427208)
(0.0636903 0.00176704 0.0124008)
(0.0617987 -8.14808e-06 0.0258857)
(0.005725 -0.00842882 -0.00127549)
(0.0128999 -0.00277982 -0.000322059)
(0.0217917 -0.00159403 -0.000214682)
(0.0283508 -0.00139333 0.000275807)
(0.0344518 -0.00143913 -0.00069131)
(0.0394876 6.91917e-05 -0.00516122)
(0.0458705 0.00244422 -0.00769874)
(0.0542219 0.00370576 -0.00510107)
(0.0590636 0.0024441 -0.00118732)
(0.0601998 0.00162886 0.00436002)
(0.0653835 0.00245663 0.0141083)
(0.0656585 0.00053263 0.0272403)
(-0.00340735 0.00112801 -0.0148519)
(0.00188632 0.00127851 -0.00911798)
(0.00873485 0.000896035 -0.00762547)
(0.0168964 0.000366886 -0.00632944)
(0.0264084 -0.000201601 -0.00625314)
(0.0347169 -0.00112947 -0.00874004)
(0.0406597 -0.00221462 -0.010069)
(0.04754 -0.00229173 -0.00636339)
(0.052283 -0.000458369 -0.00137944)
(0.0520333 0.000297901 0.00341919)
(0.0554068 -0.00113747 0.0136268)
(0.0567891 -0.00033049 0.0293333)
(-0.00196731 0.00311103 -0.0136878)
(0.00653922 0.00259869 -0.00516262)
(0.0147838 0.00172002 -0.00482869)
(0.0221202 0.00113118 -0.00503429)
(0.0298079 0.000449952 -0.00617263)
(0.0369386 -0.00092748 -0.00816494)
(0.0430024 -0.00255438 -0.00912458)
(0.0479969 -0.00274846 -0.00709837)
(0.0519742 -0.00107738 -0.00233607)
(0.0543107 -0.000327806 0.00352416)
(0.054215 -0.00111719 0.0127707)
(0.0520541 0.00023318 0.0276426)
(-0.0010864 0.00233905 -0.0126281)
(0.00769572 0.00246352 -0.00426372)
(0.0157216 0.00174431 -0.00422251)
(0.0232003 0.00106277 -0.00452041)
(0.0306909 0.000244128 -0.00558445)
(0.0377039 -0.000926454 -0.00735819)
(0.0436332 -0.0020972 -0.00850536)
(0.0482335 -0.00222005 -0.00712709)
(0.0519874 -0.00110184 -0.00245923)
(0.0543989 -0.000111476 0.00378344)
(0.0533735 -0.000159557 0.0130408)
(0.0503542 4.27938e-06 0.0274665)
(-0.00113663 0.0017045 -0.0125)
(0.0075873 0.00180251 -0.00438414)
(0.0158233 0.00133326 -0.00395716)
(0.0234236 0.000854651 -0.00428372)
(0.030786 0.000269756 -0.00546471)
(0.0376625 -0.000542697 -0.00720392)
(0.0435899 -0.00136796 -0.00839566)
(0.0483341 -0.0015143 -0.00720484)
(0.0522601 -0.000860588 -0.00234042)
(0.0544292 1.18797e-05 0.00406742)
(0.0533271 0.00033793 0.0132653)
(0.0506289 0.000203475 0.0276833)
(-0.00117595 0.000877281 -0.0124635)
(0.00743126 0.00101558 -0.0046102)
(0.0156866 0.000802726 -0.00400948)
(0.0233159 0.000523079 -0.00428643)
(0.0306338 0.000147353 -0.00543832)
(0.0375002 -0.000329314 -0.00710661)
(0.0434981 -0.000788192 -0.0083311)
(0.0484106 -0.000893961 -0.00724021)
(0.052457 -0.000532339 -0.00227926)
(0.0544178 8.61124e-05 0.00426858)
(0.0533069 0.000355995 0.0135918)
(0.050784 0.000116623 0.0279533)
(-0.00122389 0.000296859 -0.0124927)
(0.00731054 0.000336259 -0.00474623)
(0.0155807 0.000268276 -0.00406582)
(0.0232276 0.000180187 -0.00431475)
(0.0305252 5.9976e-05 -0.00546143)
(0.037379 -9.15821e-05 -0.00710667)
(0.0434169 -0.000240574 -0.00834081)
(0.0484348 -0.000279384 -0.00727635)
(0.0525619 -0.000163949 -0.00224242)
(0.0544489 5.9337e-05 0.00439356)
(0.0533769 0.00017961 0.0138157)
(0.0509369 8.42562e-05 0.0281858)
(-0.00122398 -0.00029901 -0.0124927)
(0.00731035 -0.000338055 -0.00474638)
(0.0155805 -0.000269569 -0.00406599)
(0.0232273 -0.000181004 -0.004315)
(0.0305248 -6.05785e-05 -0.00546175)
(0.0373784 9.07746e-05 -0.00710704)
(0.0434163 0.000239227 -0.00834127)
(0.0484341 0.000277531 -0.00727695)
(0.0525611 0.000162097 -0.00224308)
(0.0544481 -6.09209e-05 0.0043929)
(0.0533761 -0.000180288 0.0138148)
(0.0509362 -8.25556e-05 0.0281848)
(-0.00117622 -0.000879118 -0.0124635)
(0.0074307 -0.00101701 -0.00461068)
(0.015686 -0.000803618 -0.00400996)
(0.023315 -0.000523498 -0.00428717)
(0.0306324 -0.000147624 -0.00543927)
(0.0374986 0.000328734 -0.0071077)
(0.0434963 0.000786986 -0.00833243)
(0.0484085 0.000892187 -0.00724193)
(0.0524547 0.000530491 -0.00228119)
(0.0544156 -8.78004e-05 0.00426667)
(0.0533048 -0.000356904 0.0135892)
(0.050782 -0.000115268 0.0279503)
(-0.00113699 -0.00170565 -0.0125)
(0.00758651 -0.00180319 -0.0043849)