/*--------------------------------*- C++ -*----------------------------------*\
| =========                 |                                                 |
| \\      /  F ield         | OpenFOAM: The Open Source CFD Toolbox           |
|  \\    /   O peration     | Version:  2.3.1                                 |
|   \\  /    A nd           | Web:      www.OpenFOAM.org                      |
|    \\/     M anipulation  |                                                 |
\*---------------------------------------------------------------------------*/
FoamFile
{
    version     2.0;
    format      ascii;
    class       volVectorField;
    location    "10";
    object      U_0;
}
// * * * * * * * * * * * * * * * * * * * * * * * * * * * * * * * * * * * * * //

dimensions      [0 1 -1 0 0 0 0];

internalField   nonuniform List<vector> 
37758
(
(0.0835808 -7.73701e-05 -0.000753308)
(0.0813032 0.000804865 -0.000767872)
(0.0780736 -0.000296318 -0.00177796)
(0.0840981 -0.000879341 -0.00134795)
(0.0819516 -0.000224909 -0.00124221)
(0.0825718 0.000223944 -0.0025226)
(0.0883659 0.0010024 -0.00202726)
(0.0877648 0.000521868 -0.00176876)
(0.09175 0.00035392 -0.000789771)
(0.08812 0.000476439 0.000777485)
(0.0811617 9.47896e-05 0.00149232)
(0.0704464 0.00135241 0.00475955)
(0.0827068 -7.42945e-05 -0.000661558)
(0.0813702 0.00108019 -0.000789235)
(0.0799337 -0.000459999 -0.00158949)
(0.0831665 -0.00104805 -0.00142493)
(0.0831144 0.000113406 -0.00110207)
(0.0838543 2.38637e-05 -0.00151826)
(0.0879319 0.00093462 -0.0011725)
(0.0892008 0.000572867 -0.0010189)
(0.0916174 -7.78747e-05 -0.000118099)
(0.089173 0.00041419 0.00125799)
(0.0823298 -5.03623e-05 0.0022816)
(0.0709613 0.00127251 0.00497891)
(0.0824637 -0.000101168 -0.000646373)
(0.081309 0.000779271 -0.000906679)
(0.0805007 -0.000221898 -0.00164296)
(0.0825846 -0.000516583 -0.00156457)
(0.0830678 0.000566016 -0.00127356)
(0.0839802 -2.91408e-05 -0.00150372)
(0.0871064 0.000346493 -0.00127507)
(0.0894593 0.000531595 -0.00112408)
(0.091552 -0.000252818 -0.000180572)
(0.0889599 0.000256135 0.00116382)
(0.0827282 3.13974e-05 0.00238584)
(0.0704915 0.000171796 0.00492285)
(0.0824566 -8.26374e-05 -0.000622116)
(0.0811009 0.000540966 -0.00101298)
(0.080459 -0.000160837 -0.00174656)
(0.0823556 -0.000377612 -0.00166382)
(0.0831461 0.000473942 -0.00135102)
(0.0844131 -4.45873e-06 -0.00144496)
(0.0866887 0.000269137 -0.00128287)
(0.0893828 0.000645189 -0.00109275)
(0.0914602 -5.08298e-05 -7.94375e-05)
(0.0881846 0.000233306 0.0011116)
(0.0829337 0.000146588 0.00243829)
(0.0699668 -9.87372e-05 0.00501223)
(0.0824601 -4.65444e-05 -0.000615117)
(0.0810448 0.000255819 -0.00107551)
(0.0804381 -7.69116e-05 -0.00179425)
(0.0823152 -0.000121229 -0.00170321)
(0.0831157 0.000308316 -0.00138849)
(0.084383 -6.25329e-05 -0.00145958)
(0.0864814 6.55584e-05 -0.00132183)
(0.0893195 0.000293482 -0.00107849)
(0.0913761 -0.000101332 -5.12087e-05)
(0.0879593 0.000108055 0.00107659)
(0.0830175 5.76986e-05 0.00247042)
(0.0697167 -0.000142953 0.00504409)
(0.0824705 -1.78707e-05 -0.000612758)
(0.0810239 9.57738e-05 -0.00110031)
(0.0803682 -2.3068e-05 -0.00182124)
(0.08229 -5.43468e-05 -0.00172725)
(0.0831507 0.000103507 -0.00140526)
(0.0843991 -8.96017e-06 -0.00146783)
(0.086441 5.23078e-05 -0.00134038)
(0.089315 0.000160341 -0.00106613)
(0.0912688 1.38147e-05 -3.35028e-05)
(0.0878194 7.16124e-05 0.00106173)
(0.0830223 5.30086e-05 0.00249395)
(0.0694867 -5.46443e-05 0.00506796)
(0.0824705 1.73481e-05 -0.000612777)
(0.081024 -9.66448e-05 -0.00110032)
(0.0803681 2.16258e-05 -0.00182125)
(0.0822898 5.25394e-05 -0.00172733)
(0.0831508 -0.000106425 -0.00140532)
(0.084399 6.0287e-06 -0.00146787)
(0.086441 -5.49569e-05 -0.00134047)
(0.0893152 -0.000164554 -0.00106622)
(0.0912691 -1.68714e-05 -3.3613e-05)
(0.08782 -7.43099e-05 0.00106161)
(0.0830232 -5.5595e-05 0.00249379)
(0.0694886 5.63152e-05 0.00506787)
(0.08246 4.60836e-05 -0.000615163)
(0.081045 -0.000256592 -0.00107552)
(0.0804378 7.55602e-05 -0.00179423)
(0.0823148 0.000119674 -0.00170344)
(0.0831159 -0.00031095 -0.00138863)
(0.0843829 5.98786e-05 -0.00145969)
(0.0864816 -6.78326e-05 -0.0013221)
(0.0893199 -0.000297315 -0.00107875)
(0.091377 9.85746e-05 -5.15511e-05)
(0.0879613 -0.000110452 0.00107624)
(0.08302 -6.01472e-05 0.00246996)
(0.0697219 0.000144449 0.00504381)
(0.0824564 8.23239e-05 -0.000622198)
(0.0811012 -0.000541511 -0.00101299)
(0.0804586 0.000159693 -0.00174655)
(0.0823549 0.000376591 -0.00166418)
(0.0831464 -0.000475916 -0.00135124)
(0.0844128 2.35965e-06 -0.00144513)
(0.0866889 -0.000270597 -0.00128326)
(0.0893834 -0.000648161 -0.00109312)
(0.0914615 4.87475e-05 -7.99848e-05)
(0.0881876 -0.000235058 0.00111107)
(0.0829378 -0.00014869 0.0024376)
(0.0699748 9.99313e-05 0.00501175)
(0.0824635 0.000100984 -0.000646478)
(0.0813094 -0.00077959 -0.000906635)
(0.0805 0.000220966 -0.0016429)
(0.0825837 0.000516074 -0.00156504)
(0.0830683 -0.000567342 -0.00127377)
(0.0839799 2.77053e-05 -0.00150386)
(0.0871065 -0.000347091 -0.00127553)
(0.0894602 -0.000533576 -0.00112446)
(0.0915532 0.000251617 -0.000181238)
(0.0889635 -0.000257232 0.00116315)
(0.0827333 -3.30322e-05 0.00238502)
(0.0705009 -0.000170807 0.00492212)
(0.0827065 7.42844e-05 -0.000661707)
(0.081371 -0.00108018 -0.000789128)
(0.0799329 0.000459458 -0.00158937)
(0.0831652 0.00104824 -0.00142547)
(0.0831155 -0.000113988 -0.00110227)
(0.0838537 -2.42919e-05 -0.00151842)
(0.087932 -0.000934226 -0.00117296)
(0.089202 -0.000573684 -0.00101914)
(0.0916183 7.80637e-05 -0.000118872)
(0.0891775 -0.000414645 0.00125737)
(0.0823352 4.94604e-05 0.0022807)
(0.0709716 -0.00127136 0.00497778)
(0.08358 7.74673e-05 -0.000753421)
(0.0813053 -0.000804748 -0.000767455)
(0.0780722 0.00029618 -0.00177759)
(0.084096 0.000879732 -0.00134864)
(0.0819539 0.000224894 -0.00124209)
(0.0825699 -0.00022377 -0.00252251)
(0.0883667 -0.00100186 -0.0020276)
(0.0877662 -0.000521791 -0.00176845)
(0.0917497 -0.000353156 -0.00079061)
(0.0881259 -0.000476484 0.000777184)
(0.0811655 -9.48967e-05 0.00149153)
(0.0704575 -0.00135161 0.00475752)
(0.0825797 -7.52148e-05 0.000699407)
(0.0829932 0.00061269 0.00275334)
(0.0817081 -0.000234091 0.000881257)
(0.0845698 -0.000867094 0.000521711)
(0.084557 6.31559e-05 0.00184347)
(0.0837425 0.000305157 -0.00100877)
(0.0892617 0.00107592 -0.00157262)
(0.0909089 0.00113324 -0.000427026)
(0.0932932 0.000403218 0.000480527)
(0.0933699 0.000781861 0.00422579)
(0.0862188 0.000745125 0.00772678)
(0.0761061 0.00118214 0.0119364)
(0.0823492 -2.82814e-05 0.00120509)
(0.0825124 0.000655643 0.00211588)
(0.0826369 -0.000168591 0.000664753)
(0.0839497 -0.000874733 -0.000250735)
(0.0847281 9.57833e-05 0.000123517)
(0.0853033 7.34528e-05 -0.000949979)
(0.0888641 0.00106491 -0.00128227)
(0.091743 0.00131547 -0.000766655)
(0.0934095 0.000245401 0.000475541)
(0.0922118 0.000661674 0.00356807)
(0.0873256 0.000323032 0.0073703)
(0.0778263 0.00111002 0.0123964)
(0.0822924 -7.54852e-05 0.00135716)
(0.0823892 0.000449908 0.00207898)
(0.0828248 -2.16507e-05 0.000952724)
(0.0836576 -0.000400184 8.7285e-05)
(0.0847107 0.000317452 0.000143754)
(0.0858831 -0.000129079 -0.000699701)
(0.0887001 0.000354295 -0.00129222)
(0.0918856 0.000838791 -0.00110644)
(0.0934841 -9.19944e-05 0.000451006)
(0.0915475 0.000226646 0.00338337)
(0.0873342 9.68266e-05 0.00726983)
(0.0776432 9.25246e-05 0.0126945)
(0.082298 -5.44675e-05 0.00145387)
(0.0822139 0.000299117 0.00216492)
(0.0826517 -3.46727e-05 0.00109186)
(0.0835923 -0.000296502 0.000211369)
(0.0848294 0.000296701 0.000233141)
(0.0863811 -5.37344e-06 -0.000468734)
(0.0886604 0.000317587 -0.00123041)
(0.0917041 0.000822653 -0.00112715)
(0.0934823 5.74407e-05 0.000631356)
(0.0908421 0.00015612 0.00330417)
(0.0872147 0.000154107 0.00717799)
(0.0773602 -0.000100024 0.0128952)
(0.0822996 -3.66831e-05 0.00147214)
(0.0821677 0.000142267 0.0021901)
(0.0826 -1.23022e-06 0.00116059)
(0.0835813 -9.65233e-05 0.000307762)
(0.0848109 0.000191001 0.000309824)
(0.0864144 -5.63551e-05 -0.0003881)
(0.0885379 0.000105797 -0.00122643)
(0.0915507 0.000394843 -0.00109952)
(0.0934036 -3.92705e-05 0.000714558)
(0.0905807 6.04387e-05 0.0032814)
(0.0871331 7.76425e-05 0.0071986)
(0.0771732 -0.000140046 0.0129718)
(0.0823026 -1.24135e-05 0.00148279)
(0.0821412 5.53691e-05 0.00221181)
(0.082538 -4.21237e-07 0.00119715)
(0.0835752 -4.4786e-05 0.000343693)
(0.0848443 6.59561e-05 0.000336503)
(0.0864492 -2.42265e-06 -0.000370327)
(0.088503 6.1227e-05 -0.00124258)
(0.0914874 0.000182587 -0.00108491)
(0.093295 2.68895e-05 0.000753824)
(0.0904061 4.61793e-05 0.00326917)
(0.0870731 6.03887e-05 0.00722493)
(0.0769919 -4.62648e-05 0.0130241)
(0.0823026 1.19768e-05 0.00148276)
(0.0821411 -5.59262e-05 0.0022118)
(0.082538 -6.42474e-07 0.00119719)
(0.0835751 4.31225e-05 0.000343595)
(0.0848442 -6.83135e-05 0.000336359)
(0.0864492 -4.65697e-08 -0.000370446)
(0.0885029 -6.36852e-05 -0.00124279)
(0.0914874 -0.000186194 -0.00108519)
(0.0932952 -2.96435e-05 0.000753528)
(0.0904064 -4.8495e-05 0.00326881)
(0.0870735 -6.26688e-05 0.00722447)
(0.0769933 4.74698e-05 0.0130238)
(0.0822996 3.62892e-05 0.00147204)
(0.0821676 -0.000142738 0.00219006)
(0.0825999 2.38376e-07 0.00116065)
(0.0835811 9.50675e-05 0.0003074)
(0.0848107 -0.000193094 0.000309376)
(0.0864144 5.41433e-05 -0.000388384)
(0.0885379 -0.000107892 -0.00122705)
(0.0915505 -0.000398079 -0.00110033)
(0.0934039 3.68064e-05 0.000713704)
(0.0905815 -6.24404e-05 0.00328032)
(0.0871343 -7.97724e-05 0.00719726)
(0.077177 0.00014112 0.0129709)
(0.082298 5.41785e-05 0.00145372)
(0.0822137 -0.000299371 0.00216488)
(0.0826516 3.38496e-05 0.00109202)
(0.083592 0.00029549 0.000210905)
(0.0848292 -0.000298173 0.000232512)
(0.0863809 3.68812e-06 -0.000469225)
(0.0886602 -0.000318883 -0.00123133)
(0.0917038 -0.000825054 -0.00112836)
(0.0934828 -5.922e-05 0.000629959)
(0.0908434 -0.000157446 0.00330251)
(0.0872166 -0.000155875 0.00717594)
(0.0773662 0.000100897 0.0128937)
(0.0822924 7.52799e-05 0.001357)
(0.082389 -0.000449946 0.00207895)
(0.0828246 2.10146e-05 0.000952908)
(0.0836572 0.000399608 8.66515e-05)
(0.0847105 -0.000318348 0.000143045)
(0.085883 0.000127983 -0.000700106)
(0.0886996 -0.000354683 -0.00129332)
(0.0918853 -0.000840233 -0.00110783)
(0.0934845 9.1048e-05 0.000449321)
(0.0915489 -0.000227246 0.00338121)
(0.0873368 -9.81274e-05 0.00726734)
(0.0776504 -9.17527e-05 0.0126925)
(0.0823491 2.82337e-05 0.00120484)
(0.0825123 -0.000655283 0.00211584)
(0.0826367 0.000168322 0.000665161)
(0.083949 0.0008747 -0.000251473)
(0.0847282 -9.59485e-05 0.000122769)
(0.0853032 -7.36669e-05 -0.000950277)
(0.0888634 -0.00106416 -0.00128341)
(0.0917432 -0.00131578 -0.000767886)
(0.0934099 -0.000245226 0.000473801)
(0.0922138 -0.000661471 0.00356562)
(0.0873292 -0.000323728 0.00736768)
(0.0778344 -0.00110913 0.012394)
(0.0825794 7.52552e-05 0.000699091)
(0.0829934 -0.000612313 0.00275334)
(0.0817077 0.000234106 0.000882453)
(0.0845682 0.000867378 0.00052096)
(0.0845582 -6.3048e-05 0.00184305)
(0.0837423 -0.00030505 -0.00100835)
(0.0892607 -0.00107505 -0.00157356)
(0.0909106 -0.00113299 -0.000427103)
(0.0932932 -0.000402741 0.00047951)
(0.0933734 -0.000781417 0.00422352)
(0.0862241 -0.000745332 0.00772465)
(0.0761146 -0.0011819 0.0119335)
(0.0815435 0.000191415 -0.0015711)
(0.0819078 0.000500247 -0.000916379)
(0.0818579 0.000268422 -0.00252038)
(0.0812406 -0.000582658 -0.0018532)
(0.0828299 -0.000420917 -0.00129538)
(0.082452 0.000446326 -0.00552299)
(0.0842029 0.00116546 -0.00674544)
(0.0865747 0.000869723 -0.00472214)
(0.0872379 0.000139461 -0.00229355)
(0.0880728 -8.15652e-05 0.00371262)
(0.0857157 0.000263747 0.0103062)
(0.0769211 0.00187776 0.0175981)
(0.0817942 0.000260177 -0.000961727)
(0.0808051 0.000703455 -0.00117077)
(0.0803664 0.000324529 -0.00252904)
(0.0796761 -0.00070565 -0.00263468)
(0.0797513 -0.000265367 -0.00213956)
(0.0801778 0.000764246 -0.00341936)
(0.0824978 0.00146441 -0.00398368)
(0.0850735 0.000846611 -0.00284538)
(0.0863621 -0.000404514 2.29051e-06)
(0.085294 -0.00048032 0.00458619)
(0.083056 -0.00059207 0.0104693)
(0.077343 0.000852215 0.0189239)
(0.0818524 4.90274e-05 -0.000873713)
(0.0805807 0.000464874 -0.00132949)
(0.0805307 0.000529902 -0.00236032)
(0.0800254 0.000101258 -0.00281932)
(0.0800622 0.000261004 -0.00271409)
(0.0806531 0.000403775 -0.00346946)
(0.0826827 0.000745463 -0.00386999)
(0.0849884 0.000550688 -0.00298025)
(0.0861458 -0.00048844 0.000170849)
(0.0845502 -0.000425567 0.00447075)
(0.0822986 -0.000368389 0.0100381)
(0.076578 -9.13827e-05 0.019008)
(0.0819295 4.69934e-06 -0.000777232)
(0.0804448 0.000329661 -0.00146314)
(0.0802726 0.000279394 -0.00248579)
(0.0799351 -1.48847e-05 -0.00295032)
(0.0802334 0.000231685 -0.00284871)
(0.0810982 0.000354294 -0.00334642)
(0.0826734 0.000619769 -0.00376434)
(0.0846533 0.000587238 -0.00295277)
(0.0860578 -0.000295458 0.000412561)
(0.0839585 -0.000335608 0.00436764)
(0.0819845 -0.000134808 0.0097945)
(0.0763773 -0.000205271 0.0191963)
(0.0819619 -1.9477e-05 -0.000745428)
(0.0804314 0.000160863 -0.00155296)
(0.0801748 0.000156522 -0.00253509)
(0.0798016 4.37174e-05 -0.00297569)
(0.0800956 0.000141233 -0.0028604)
(0.0810207 0.000130775 -0.00327617)
(0.0824384 0.000287134 -0.00371609)
(0.0843688 0.000286945 -0.00288356)
(0.0859251 -0.000218308 0.000526451)
(0.0836806 -0.000174237 0.00433851)
(0.0818086 -2.05673e-05 0.00980256)
(0.0761879 -0.000172031 0.0192821)
(0.0819744 -5.3502e-06 -0.000729241)
(0.0804192 6.32114e-05 -0.00157937)
(0.0800915 4.80229e-05 -0.00256181)
(0.0797288 2.14994e-07 -0.00299698)
(0.0800523 4.70937e-05 -0.00287117)
(0.0809765 5.70733e-05 -0.00326616)
(0.0822994 0.000120128 -0.00371837)
(0.0841947 0.000135501 -0.00285518)
(0.0857823 -4.58084e-05 0.000577272)
(0.0834969 -4.21392e-05 0.00432483)
(0.0817335 2.88714e-05 0.00984419)
(0.0760623 -4.79065e-05 0.0193691)
(0.0819744 4.9221e-06 -0.000729247)
(0.0804192 -6.36458e-05 -0.00157941)
(0.0800914 -4.91548e-05 -0.00256183)
(0.0797287 -2.13225e-06 -0.00299714)
(0.0800521 -4.93027e-05 -0.00287137)
(0.0809762 -5.95296e-05 -0.00326635)
(0.0822991 -0.000122918 -0.00371863)
(0.0841943 -0.000138798 -0.00285555)
(0.085782 4.32134e-05 0.000576834)
(0.0834967 4.00124e-05 0.00432436)
(0.0817333 -3.08644e-05 0.00984348)
(0.0760629 4.88472e-05 0.0193685)
(0.0819619 1.90881e-05 -0.000745426)
(0.0804313 -0.000161223 -0.00155306)
(0.0801747 -0.000157541 -0.00253527)
(0.0798013 -4.54011e-05 -0.00297622)
(0.080095 -0.000143165 -0.00286101)
(0.0810199 -0.000132926 -0.00327668)
(0.0824375 -0.000289501 -0.00371684)
(0.0843674 -0.000289824 -0.00288465)
(0.085924 0.000216026 0.000525226)
(0.08368 0.000172404 0.00433707)
(0.0818077 1.87071e-05 0.00980047)
(0.0761894 0.000172843 0.0192803)
(0.0819296 -4.97204e-06 -0.000777241)
(0.0804445 -0.000329823 -0.00146329)
(0.0802724 -0.000280169 -0.00248595)
(0.0799347 1.3672e-05 -0.00295106)
(0.0802326 -0.000232978 -0.00284955)
(0.0810971 -0.000355765 -0.00334719)
(0.082672 -0.000621232 -0.00376548)
(0.0846512 -0.000589193 -0.00295438)
(0.0860562 0.000293929 0.000410594)
(0.0839577 0.000334405 0.00436544)
(0.0819833 0.000133267 0.00979127)
(0.0763796 0.00020589 0.0191934)
(0.0818526 -4.9242e-05 -0.00087371)
(0.0805804 -0.00046484 -0.00132962)
(0.0805304 -0.000530396 -0.00236055)
(0.080025 -0.000102052 -0.00282022)
(0.0800612 -0.000261665 -0.00271503)
(0.0806518 -0.000404408 -0.00347019)
(0.0826809 -0.000745863 -0.00387134)
(0.084986 -0.000551576 -0.00298217)
(0.0861438 0.000487832 0.000168418)
(0.0845491 0.000425084 0.00446788)
(0.0822975 0.000367341 0.0100341)
(0.0765808 9.20098e-05 0.0190044)
(0.0817944 -0.000260237 -0.000961745)
(0.0808049 -0.000702975 -0.00117081)
(0.0803664 -0.000324512 -0.00252911)
(0.0796756 0.000705446 -0.0026358)
(0.0797504 0.000265629 -0.00214047)
(0.0801767 -0.00076378 -0.00341973)
(0.0824961 -0.0014636 -0.00398491)
(0.0850718 -0.00084628 -0.00284715)
(0.0863609 0.000405038 -2.20263e-08)
(0.0852937 0.000480614 0.00458306)
(0.0830559 0.000591829 0.0104651)
(0.0773473 -0.000851266 0.0189199)
(0.0815436 -0.000191486 -0.00157125)
(0.0819067 -0.000499777 -0.000915513)
(0.0818582 -0.000268121 -0.00251936)
(0.0812405 0.000582655 -0.0018546)
(0.0828295 0.000421147 -0.00129582)
(0.0824525 -0.000445773 -0.00552186)
(0.0842018 -0.00116466 -0.00674601)
(0.0865756 -0.000869285 -0.00472243)
(0.0872395 -0.00013905 -0.00229467)
(0.0880742 8.18423e-05 0.00370946)
(0.0857192 -0.00026318 0.0103026)
(0.076929 -0.00187707 0.0175943)
(0.0802423 -1.44255e-05 0.00154213)
(0.0821476 0.000318483 0.00187455)
(0.0792005 -0.000243771 0.00128124)
(0.0768453 -0.00187003 0.00108506)
(0.0779438 -0.000414382 0.00130765)
(0.0740302 0.00187038 -0.00222329)
(0.070959 0.00134815 -0.00471257)
(0.0731962 -0.000815645 -0.00295403)
(0.074155 -0.00164857 -0.000317577)
(0.0744774 -0.00199479 0.00531389)
(0.0772204 -0.00225581 0.0137242)
(0.0732116 0.000352945 0.0235067)
(0.0799881 0.000319571 0.00317543)
(0.0774302 0.000474218 0.00254306)
(0.0729158 -8.41964e-05 0.00140508)
(0.0689618 -0.00077921 8.45789e-05)
(0.0673596 0.00113529 -0.000630106)
(0.0674169 0.00272971 -0.00242171)
(0.0696266 0.00148436 -0.00366762)
(0.072355 -0.000787803 -0.00261768)
(0.0740336 -0.00180018 0.000606996)
(0.074116 -0.00171247 0.00529431)
(0.0737167 -0.00184206 0.0123012)
(0.0707978 0.000135033 0.0234628)
(0.0804252 0.000139299 0.003545)
(0.0772688 0.000611017 0.00260488)
(0.0735802 0.000715213 0.00166643)
(0.0697786 0.000278061 0.000387739)
(0.0676569 0.000893844 -0.000571611)
(0.0677025 0.0012624 -0.00211266)
(0.0699209 0.000548664 -0.00333376)
(0.072274 -0.000650813 -0.00278182)
(0.073821 -0.00142137 0.000541212)
(0.0738242 -0.00105798 0.00513044)
(0.0728391 -0.000836333 0.0117199)
(0.0694509 -0.00034718 0.0231166)
(0.0812754 0.000117091 0.0036504)
(0.0773939 0.000345611 0.00281188)
(0.0736248 0.000272789 0.00191287)
(0.0701081 0.000200491 0.000622615)
(0.0680452 0.000707358 -0.000426203)
(0.0679207 0.000878743 -0.00184851)
(0.0696849 0.000448536 -0.0031231)
(0.0718834 -0.000277141 -0.00273975)
(0.0738103 -0.000960217 0.000734127)
(0.073567 -0.000692019 0.0051169)
(0.0726067 -0.000282832 0.0115161)
(0.0694283 -0.00022487 0.0232511)
(0.0817079 2.49441e-05 0.00363218)
(0.0774316 0.000152931 0.00288678)
(0.0734404 0.000145483 0.0019934)
(0.0698681 0.000152993 0.000703637)
(0.067829 0.000369959 -0.00035503)
(0.0677048 0.00039318 -0.0017348)
(0.0693469 0.000192333 -0.00303352)
(0.0716135 -0.000175696 -0.00268665)
(0.073786 -0.000565621 0.000815883)
(0.0734336 -0.000332266 0.00512107)
(0.0724881 -4.26248e-05 0.0115775)
(0.0693444 -0.000150763 0.023358)
(0.081826 8.82465e-06 0.00363279)
(0.0774521 5.88166e-05 0.00294848)
(0.073327 3.59444e-05 0.00203752)
(0.0697483 4.03969e-05 0.00074308)
(0.0677148 0.000122587 -0.000338629)
(0.0675592 0.000138708 -0.00171568)
(0.0691267 8.60763e-05 -0.0030281)
(0.0714328 -2.65112e-05 -0.0026768)
(0.0737223 -0.000168217 0.000852557)
(0.073351 -9.34394e-05 0.00513161)
(0.0724743 2.88772e-05 0.0116604)
(0.0693286 -2.69484e-05 0.0234887)
(0.081826 -9.24858e-06 0.00363275)
(0.077452 -5.96364e-05 0.00294848)
(0.0733269 -3.7644e-05 0.00203747)
(0.069748 -4.26294e-05 0.00074295)
(0.0677143 -0.000124896 -0.000338826)
(0.0675586 -0.000141133 -0.00171592)
(0.0691261 -8.86723e-05 -0.00302844)
(0.0714321 2.3828e-05 -0.0026773)
(0.0737217 0.000166128 0.000851959)
(0.0733506 9.15978e-05 0.00513102)
(0.0724737 -3.03969e-05 0.0116595)
(0.0693285 2.79203e-05 0.0234879)
(0.0817084 -2.52995e-05 0.00363204)
(0.0774315 -0.000153625 0.00288675)
(0.07344 -0.00014698 0.0019933)
(0.0698673 -0.000154925 0.000703277)
(0.0678276 -0.000371884 -0.000355623)
(0.0677032 -0.00039517 -0.0017355)
(0.0693451 -0.000194471 -0.00303454)
(0.0716115 0.000173397 -0.0026881)
(0.0737842 0.000563767 0.000814142)
(0.0734322 0.000330602 0.00511928)
(0.0724865 4.11174e-05 0.011575)
(0.069344 0.000151547 0.0233555)
(0.0812762 -0.000117302 0.00365016)
(0.0773938 -0.000345969 0.00281183)
(0.0736242 -0.000273857 0.00191272)
(0.0701068 -0.000201763 0.000622076)
(0.0680432 -0.000708411 -0.00042703)
(0.0679182 -0.000879794 -0.00184953)
(0.0696821 -0.000449732 -0.00312459)
(0.0718804 0.000275638 -0.00274188)
(0.0738075 0.000958871 0.000731545)
(0.0735649 0.000690692 0.00511415)
(0.0726043 0.000281381 0.0115121)
(0.0694278 0.000225329 0.023247)
(0.0804261 -0.000139354 0.00354472)
(0.0772687 -0.000610939 0.00260482)
(0.0735796 -0.000715767 0.0016662)
(0.0697772 -0.00027868 0.00038703)
(0.0676545 -0.00089384 -0.000572576)
(0.0676996 -0.00126227 -0.00211377)
(0.0699175 -0.000548793 -0.00333551)
(0.0722704 0.000650198 -0.00278434)
(0.0738177 0.00142073 0.000538175)
(0.0738217 0.00105705 0.00512693)
(0.0728364 0.000835084 0.0117149)
(0.0694503 0.000347581 0.0231114)
(0.0799896 -0.000319396 0.00317495)
(0.0774306 -0.000473417 0.002543)
(0.0729157 8.42834e-05 0.0014051)
(0.0689608 0.000779397 8.4023e-05)
(0.0673577 -0.00113385 -0.000630821)
(0.0674146 -0.00272823 -0.00242229)
(0.0696239 -0.0014834 -0.00366905)
(0.0723522 0.000788262 -0.00261994)
(0.0740313 0.00180042 0.000604308)
(0.0741145 0.00171189 0.00529066)
(0.0737149 0.00184117 0.0122956)
(0.0707987 -0.00013429 0.023457)
(0.0802421 1.42257e-05 0.00154225)
(0.0821472 -0.000317394 0.00187516)
(0.0792021 0.000244081 0.00128189)
(0.0768452 0.00186979 0.00108469)
(0.0779426 0.000415371 0.00130749)
(0.0740309 -0.00186925 -0.0022222)
(0.0709587 -0.00134768 -0.00471292)
(0.0731962 0.000815938 -0.00295498)
(0.0741576 0.00164914 -0.000318479)
(0.0744784 0.00199447 0.00531061)
(0.0772211 0.002256 0.0137193)
(0.0732177 -0.000351508 0.0235021)
(0.0057269 0.00842914 -0.00127533)
(0.0129014 0.00278014 -0.000321179)
(0.0217919 0.00159617 -0.000213122)
(0.0283508 0.00139771 0.000277894)
(0.0344493 0.00143989 -0.000697337)
(0.0394863 -7.42089e-05 -0.00517353)
(0.0458754 -0.00244996 -0.00770116)
(0.0542291 -0.00370772 -0.00509506)
(0.059062 -0.00244197 -0.00117952)
(0.0602026 -0.00162989 0.00437562)
(0.0653956 -0.00245564 0.0141347)
(0.0656479 -0.000527574 0.0272642)
(0.0187819 0.00797813 0.00121176)
(0.0246121 0.00374399 0.00211427)
(0.0332424 0.00208091 0.000646947)
(0.0377404 0.00171957 -0.000800078)
(0.04288 0.00223742 -0.00220098)
(0.0483335 0.00129292 -0.00455553)
(0.0537324 -0.00115197 -0.00607554)
(0.0582419 -0.00269778 -0.00480384)
(0.0614993 -0.00210384 -0.000925484)
(0.0632646 -0.00139212 0.00428421)
(0.0636926 -0.0017665 0.0124236)
(0.0617933 1.32054e-05 0.0259103)
(0.0185348 0.00364225 0.00126818)
(0.0240393 0.00322753 0.00202467)
(0.0331902 0.00247907 0.00090087)
(0.0382734 0.00195063 -0.000420373)
(0.0436339 0.00153863 -0.00180999)
(0.0494422 0.000483042 -0.00388713)
(0.0546782 -0.00108918 -0.00551687)
(0.0586824 -0.00202966 -0.00481074)
(0.0617436 -0.00174417 -0.000922454)
(0.0635274 -0.000863933 0.00441999)
(0.0629673 -0.000665569 0.0122972)
(0.0602129 -0.000262195 0.0255803)
(0.016305 0.00210096 0.000950956)
(0.0231687 0.00227998 0.00210423)
(0.0326446 0.00162106 0.00118678)
(0.0382742 0.00130142 -0.000225761)
(0.043701 0.00105443 -0.00176397)
(0.0494262 0.000396266 -0.00375563)
(0.0545204 -0.000591121 -0.00540256)
(0.0586268 -0.00123526 -0.00483475)
(0.062026 -0.00122202 -0.000749923)
(0.0635878 -0.000537719 0.00457572)
(0.0628873 -7.2342e-05 0.012321)
(0.0603763 -5.11989e-05 0.0257523)
(0.0154347 0.000959863 0.000814909)
(0.0229117 0.00116795 0.00209573)
(0.0323182 0.000896947 0.00118136)
(0.0380736 0.000743949 -0.000231262)
(0.0435034 0.000549858 -0.00177102)
(0.0492127 0.000157259 -0.00369101)
(0.0543088 -0.000349243 -0.00533799)
(0.0585874 -0.00070218 -0.00482471)
(0.062201 -0.000713083 -0.000672895)
(0.0635946 -0.000234128 0.00467688)
(0.0628484 0.000104185 0.0125191)
(0.0604338 -3.7005e-05 0.02594)
(0.0151712 0.00031952 0.000760483)
(0.0227807 0.000372922 0.00209217)
(0.0321684 0.000284354 0.00118794)
(0.0379668 0.000239445 -0.00024233)
(0.0433947 0.000183834 -0.00180056)
(0.0490704 6.60389e-05 -0.00370399)
(0.0541513 -9.05493e-05 -0.00535175)
(0.0585304 -0.000206625 -0.00484048)
(0.0622644 -0.000221751 -0.000636129)
(0.0636095 -5.61202e-05 0.00474084)
(0.0628962 8.5856e-05 0.0126728)
(0.0605225 2.30858e-05 0.0261252)
(0.0151711 -0.000321832 0.000760449)
(0.0227806 -0.000375029 0.00209215)
(0.0321682 -0.000286623 0.00118789)
(0.0379664 -0.000241447 -0.000242491)
(0.0433943 -0.000185559 -0.00180082)
(0.0490698 -6.77465e-05 -0.00370432)
(0.0541506 8.86697e-05 -0.00535217)
(0.0585297 0.000204599 -0.00484106)
(0.0622637 0.000219923 -0.000636824)
(0.0636089 5.4479e-05 0.00474017)
(0.0628956 -8.69144e-05 0.0126719)
(0.0605221 -2.18367e-05 0.0261242)
(0.0154339 -0.000961917 0.000814773)
(0.0229113 -0.0011697 0.00209571)
(0.0323175 -0.000898794 0.00118122)
(0.0380726 -0.000745468 -0.000231749)
(0.043502 -0.000551105 -0.00177181)
(0.049211 -0.000158559 -0.00369198)
(0.0543069 0.000347686 -0.00533926)
(0.0585853 0.000700376 -0.00482638)
(0.062199 0.000711386 -0.000674916)
(0.0635929 0.000232502 0.00467494)
(0.0628465 -0.000105375 0.0125164)
(0.0604324 3.79827e-05 0.0259371)
(0.0163038 -0.00210245 0.000950721)
(0.0231682 -0.00228104 0.00210419)
(0.0326436 -0.00162205 0.00118659)
(0.0382727 -0.00130195 -0.000226481)
(0.0436989 -0.00105467 -0.00176512)
(0.0494236 -0.000396751 -0.00375703)
(0.0545175 0.00059018 -0.0054044)
(0.0586237 0.00123389 -0.00483725)
(0.0620229 0.00122057 -0.000752956)
(0.0635852 0.000536088 0.00457271)
(0.0628845 7.09267e-05 0.0123167)
(0.0603742 5.16749e-05 0.0257476)
(0.018533 -0.00364316 0.00126779)
(0.0240386 -0.00322766 0.00202459)
(0.033189 -0.00247892 0.000900643)
(0.0382718 -0.00194984 -0.000421312)
(0.0436314 -0.00153761 -0.00181131)
(0.0494391 -0.000482616 -0.00388862)
(0.0546747 0.00108882 -0.00551897)
(0.0586788 0.00202871 -0.00481367)
(0.06174 0.00174303 -0.000926018)
(0.0635243 0.000862283 0.00441617)
(0.0629643 0.000664008 0.0122918)
(0.0602106 0.000262395 0.0255743)
(0.0187786 -0.00797779 0.00121115)
(0.0246113 -0.00374369 0.00211431)
(0.0332416 -0.00208003 0.000646995)
(0.0377392 -0.00171756 -0.000800566)
(0.0428782 -0.00223507 -0.00220159)
(0.0483311 -0.00129165 -0.00455608)
(0.0537297 0.00115213 -0.00607696)
(0.0582391 0.00269739 -0.00480639)
(0.0614967 0.00210313 -0.000928742)
(0.0632626 0.00139035 0.0042802)
(0.0636904 0.00176483 0.0124173)
(0.0617923 -1.28587e-05 0.0259034)
(0.00572813 -0.00842791 -0.00127528)
(0.0129017 -0.00277997 -0.000320298)
(0.0217924 -0.00159511 -0.000212392)
(0.0283507 -0.00139582 0.000277895)
(0.0344493 -0.00143823 -0.000696644)
(0.0394866 7.47361e-05 -0.00517161)
(0.0458747 0.0024498 -0.00770099)
(0.0542283 0.00370765 -0.00509626)
(0.0590642 0.00244226 -0.00118057)
(0.0602041 0.00162864 0.00437243)
(0.0653945 0.00245456 0.0141284)
(0.0656518 0.000528566 0.0272579)
(-0.00340776 0.00112823 -0.0148531)
(0.00188761 0.00127898 -0.00911749)
(0.0087379 0.000896675 -0.00762487)
(0.0169024 0.00036677 -0.00632825)
(0.0264161 -0.000203306 -0.00625678)
(0.0347204 -0.0011322 -0.00874701)
(0.0406608 -0.00221665 -0.0100694)
(0.0475432 -0.00229054 -0.00635711)
(0.0522812 -0.000454906 -0.00137411)
(0.0520328 0.000298194 0.00342774)
(0.0554149 -0.00113673 0.0136473)
(0.0567865 -0.000327348 0.029353)
(-0.00196693 0.00311117 -0.0136877)
(0.00653945 0.00259911 -0.00516329)
(0.0147849 0.00172089 -0.00482957)
(0.022123 0.00113184 -0.00503516)
(0.0298125 0.000448477 -0.00617534)
(0.0369425 -0.000931169 -0.00816889)
(0.043004 -0.00255747 -0.00912535)
(0.0479975 -0.00274825 -0.00709396)
(0.0519747 -0.00107466 -0.00232948)
(0.0543094 -0.000326957 0.00353243)
(0.0542125 -0.00111533 0.0127889)
(0.0520487 0.000237488 0.0276619)
(-0.00108619 0.00233925 -0.0126273)
(0.00769556 0.0024638 -0.00426496)
(0.0157226 0.0017445 -0.00422344)
(0.0232029 0.00106271 -0.00452101)
(0.0306954 0.00024285 -0.00558632)
(0.037708 -0.000928924 -0.00736129)
(0.0436348 -0.00209921 -0.00850671)
(0.0482337 -0.00222011 -0.00712364)
(0.051988 -0.00109991 -0.00245262)
(0.0543971 -0.000109628 0.00379202)
(0.0533689 -0.000157887 0.0130587)
(0.0503484 6.28966e-06 0.0274855)
(-0.00113613 0.00170443 -0.0124993)
(0.00758753 0.00180253 -0.00438495)
(0.0158243 0.00133341 -0.00395817)
(0.0234259 0.000854668 -0.00428465)
(0.0307898 0.000269017 -0.00546664)
(0.0376662 -0.000544246 -0.00720673)
(0.0435917 -0.00136935 -0.00839707)
(0.0483349 -0.00151468 -0.00720142)
(0.0522611 -0.000859466 -0.0023336)
(0.0544274 1.37801e-05 0.00407601)
(0.0533231 0.000339499 0.0132836)
(0.0506235 0.000204468 0.0277026)
(-0.00117541 0.000877237 -0.0124633)
(0.00743153 0.00101558 -0.00461076)
(0.0156876 0.000802766 -0.00401052)
(0.023318 0.000522991 -0.00428738)
(0.0306373 0.000146884 -0.00544016)
(0.0375039 -0.000330131 -0.00710927)
(0.0435001 -0.000788941 -0.00833261)
(0.0484119 -0.000894227 -0.00723694)
(0.0524582 -0.000531649 -0.00227265)
(0.0544158 8.73999e-05 0.00427732)
(0.0533034 0.000356838 0.0136106)
(0.0507786 0.000117015 0.0279728)
(-0.00122334 0.000296832 -0.0124926)
(0.00731087 0.00033625 -0.00474674)
(0.0155816 0.0002683 -0.00406688)
(0.0232295 0.000180178 -0.00431575)
(0.0305286 5.98419e-05 -0.00546327)
(0.0373825 -9.18371e-05 -0.00710928)
(0.043419 -0.000240822 -0.00834232)
(0.0484363 -0.000279498 -0.0072731)
(0.0525632 -0.000163747 -0.00223581)
(0.054447 5.98085e-05 0.00440242)
(0.0533736 0.000179926 0.0138347)
(0.0509314 8.43296e-05 0.0282053)
(-0.00122342 -0.000298983 -0.0124926)
(0.00731068 -0.000338047 -0.00474689)
(0.0155814 -0.000269593 -0.00406705)
(0.0232292 -0.000180994 -0.004316)
(0.0305282 -6.04443e-05 -0.00546359)
(0.037382 9.10293e-05 -0.00710965)
(0.0434184 0.000239475 -0.00834278)
(0.0484356 0.000277644 -0.0072737)
(0.0525624 0.000161894 -0.00223647)
(0.0544462 -6.13927e-05 0.00440176)
(0.0533729 -0.000180601 0.0138338)
(0.0509308 -8.26254e-05 0.0282043)
(-0.00117568 -0.000879074 -0.0124633)
(0.00743097 -0.00101701 -0.00461124)
(0.0156869 -0.000803658 -0.00401101)
(0.023317 -0.000523409 -0.00428812)
(0.030636 -0.000147155 -0.00544111)
(0.0375022 0.000329551 -0.00711035)
(0.0434982 0.000787735 -0.00833393)
(0.0484098 0.000892452 -0.00723865)
(0.0524559 0.000529793 -0.00227458)
(0.0544137 -8.90892e-05 0.00427542)
(0.0533013 -0.000357745 0.0136079)
(0.0507767 -0.000115657 0.0279698)
(-0.0011365 -0.00170558 -0.0124994)