/*--------------------------------*- C++ -*----------------------------------*\
| =========                 |                                                 |
| \\      /  F ield         | OpenFOAM: The Open Source CFD Toolbox           |
|  \\    /   O peration     | Version:  2.3.1                                 |
|   \\  /    A nd           | Web:      www.OpenFOAM.org                      |
|    \\/     M anipulation  |                                                 |
\*---------------------------------------------------------------------------*/
FoamFile
{
    version     2.0;
    format      ascii;
    class       volScalarField;
    location    "10";
    object      epsilon_0;
}
// * * * * * * * * * * * * * * * * * * * * * * * * * * * * * * * * * * * * * //

dimensions      [0 2 -3 0 0 0 0];

internalField   nonuniform List<scalar> 
37784
(
1.35445e-06
1.3507e-06
1.34781e-06
1.34513e-06
1.3407e-06
1.32695e-06
1.27611e-06
1.11637e-06
7.58419e-07
1.27124e-06
1.26723e-06
1.2644e-06
1.26224e-06
1.26022e-06
1.25679e-06
1.24543e-06
1.20071e-06
1.05492e-06
7.44122e-07
1.05368e-06
1.05066e-06
1.04864e-06
1.04712e-06
1.04575e-06
1.04388e-06
1.03862e-06
1.01611e-06
9.33047e-07
7.28999e-07
6.40154e-07
6.39087e-07
6.38529e-07
6.3796e-07
6.37313e-07
6.36579e-07
6.35651e-07
6.33776e-07
6.33467e-07
6.78082e-07
8.25565e-07
8.24082e-07
8.2298e-07
8.22143e-07
8.21435e-07
8.20409e-07
8.16787e-07
8.05747e-07
8.52571e-07
8.18781e-07
8.17304e-07
8.1621e-07
8.15376e-07
8.14716e-07
8.14091e-07
8.12928e-07
8.08307e-07
7.91293e-07
7.83373e-07
7.90697e-07
7.89769e-07
7.89084e-07
7.88554e-07
7.88115e-07
7.87643e-07
7.86571e-07
7.82071e-07
7.64889e-07
7.50271e-07
7.57122e-07
7.56102e-07
7.55471e-07
7.54984e-07
7.54539e-07
7.5398e-07
7.52601e-07
7.46994e-07
7.27521e-07
6.87246e-07
6.90616e-07
6.89812e-07
6.89272e-07
6.89058e-07
6.8971e-07
6.9334e-07
7.06473e-07
7.52511e-07
1.06015e-06
7.09767e-07
7.09108e-07
7.0865e-07
7.08335e-07
7.08213e-07
7.08686e-07
7.11387e-07
7.21277e-07
7.53179e-07
9.26999e-07
7.51499e-07
7.51237e-07
7.51063e-07
7.50936e-07
7.50849e-07
7.50884e-07
7.51421e-07
7.53723e-07
7.62869e-07
8.6685e-07
9.41483e-07
9.39213e-07
9.37609e-07
9.36384e-07
9.35342e-07
9.34082e-07
9.30868e-07
9.1821e-07
8.74376e-07
7.69507e-07
6.16574e-07
6.15998e-07
6.15676e-07
6.15801e-07
6.17411e-07
6.2421e-07
6.47475e-07
7.26327e-07
1.18862e-06
6.51073e-07
6.50723e-07
6.50513e-07
6.50416e-07
6.50587e-07
6.51844e-07
6.5724e-07
6.76066e-07
7.35677e-07
1.00399e-06
7.31833e-07
7.31841e-07
7.31876e-07
7.31916e-07
7.32e-07
7.32381e-07
7.34136e-07
7.40899e-07
7.64817e-07
9.19459e-07
1.04039e-06
1.03732e-06
1.0351e-06
1.0334e-06
1.03194e-06
1.03003e-06
1.02475e-06
1.00464e-06
9.38688e-07
7.92978e-07
5.67853e-07
5.67434e-07
5.67274e-07
5.67694e-07
5.70144e-07
5.79453e-07
6.09753e-07
7.09227e-07
1.26525e-06
6.12741e-07
6.12583e-07
6.12528e-07
6.12579e-07
6.1299e-07
6.14923e-07
6.22448e-07
6.47473e-07
7.24257e-07
1.04633e-06
7.1791e-07
7.1806e-07
7.18207e-07
7.1834e-07
7.18542e-07
7.19219e-07
7.21974e-07
7.31894e-07
7.64627e-07
9.43963e-07
1.0973e-06
1.09371e-06
1.09107e-06
1.08904e-06
1.08727e-06
1.08475e-06
1.07751e-06
1.05094e-06
9.68514e-07
7.99522e-07
5.3476e-07
5.34476e-07
5.3446e-07
5.35157e-07
5.38373e-07
5.49765e-07
5.85244e-07
6.97903e-07
1.30598e-06
5.87012e-07
5.86997e-07
5.87057e-07
5.87226e-07
5.87848e-07
5.90373e-07
5.99615e-07
6.29091e-07
7.16755e-07
1.06908e-06
7.08068e-07
7.08302e-07
7.08514e-07
7.08707e-07
7.09e-07
7.09933e-07
7.13497e-07
7.25666e-07
7.63747e-07
9.5551e-07
1.13038e-06
1.12648e-06
1.12358e-06
1.12133e-06
1.11931e-06
1.11628e-06
1.10739e-06
1.07592e-06
9.82668e-07
8.01616e-07
5.12469e-07
5.12301e-07
5.12415e-07
5.13373e-07
5.17287e-07
5.30462e-07
5.6992e-07
6.90843e-07
1.31965e-06
5.70031e-07
5.70124e-07
5.70273e-07
5.70536e-07
5.71342e-07
5.74378e-07
5.84999e-07
6.17702e-07
7.12165e-07
1.08024e-06
7.01527e-07
7.01809e-07
7.02059e-07
7.02291e-07
7.02656e-07
7.03799e-07
7.07995e-07
7.21735e-07
7.63011e-07
9.60815e-07
1.14911e-06
1.14504e-06
1.14199e-06
1.13961e-06
1.13742e-06
1.13398e-06
1.12385e-06
1.08901e-06
9.89272e-07
8.0248e-07
4.9781e-07
4.97741e-07
4.97969e-07
4.99167e-07
5.03715e-07
5.18446e-07
5.61091e-07
6.86865e-07
1.31014e-06
5.59192e-07
5.59365e-07
5.59577e-07
5.59915e-07
5.60877e-07
5.64342e-07
5.76063e-07
6.11097e-07
7.09606e-07
1.08429e-06
6.97481e-07
6.97786e-07
6.98053e-07
6.98308e-07
6.98725e-07
7.00034e-07
7.04701e-07
7.19501e-07
7.62587e-07
9.63076e-07
1.15927e-06
1.15514e-06
1.15203e-06
1.14958e-06
1.14728e-06
1.14356e-06
1.13255e-06
1.09555e-06
9.92225e-07
8.02943e-07
4.88487e-07
4.88496e-07
4.88822e-07
4.90233e-07
4.95352e-07
5.11454e-07
5.56748e-07
6.84974e-07
1.27718e-06
5.52568e-07
5.52794e-07
5.53049e-07
5.53442e-07
5.5453e-07
5.58348e-07
5.70934e-07
6.07638e-07
7.08324e-07
1.08367e-06
6.95167e-07
6.95475e-07
6.95744e-07
6.96007e-07
6.9646e-07
6.97893e-07
7.02896e-07
7.1838e-07
7.624e-07
9.6385e-07
1.16449e-06
1.16039e-06
1.15727e-06
1.1548e-06
1.15245e-06
1.14853e-06
1.13694e-06
1.09863e-06
9.93451e-07
8.03251e-07
4.82795e-07
4.82863e-07
4.83267e-07
4.84863e-07
4.90482e-07
5.07776e-07
5.55308e-07
6.845e-07
1.22088e-06
5.48725e-07
5.48982e-07
5.49261e-07
5.4969e-07
5.50877e-07
5.54976e-07
5.68229e-07
6.06114e-07
7.07771e-07
1.07998e-06
6.93961e-07
6.94258e-07
6.94518e-07
6.94779e-07
6.95254e-07
6.96773e-07
7.02008e-07
7.17916e-07
7.62349e-07
9.63898e-07
1.16698e-06
1.16296e-06
1.15988e-06
1.15743e-06
1.15505e-06
1.15102e-06
1.13906e-06
1.09997e-06
9.93884e-07
8.03486e-07
1.1634e-06
1.16036e-06
1.15795e-06
1.1556e-06
1.15155e-06
1.13951e-06
1.10027e-06
9.94006e-07
8.04106e-07
7.01918e-07
6.99787e-07
6.98366e-07
6.97662e-07
6.9837e-07
7.03079e-07
7.18644e-07
7.62619e-07
9.65368e-07
5.52523e-07
5.51085e-07
5.50376e-07
5.50818e-07
5.54503e-07
5.6772e-07
6.05891e-07
7.0739e-07
1.07732e-06
4.83195e-07
4.82135e-07
4.81822e-07
4.83013e-07
4.88617e-07
5.06516e-07
5.55476e-07
6.84641e-07
1.15673e-06
4.51332e-07
4.50556e-07
4.50523e-07
4.52181e-07
4.58762e-07
4.78517e-07
5.30549e-07
6.69876e-07
4.38947e-07
4.3842e-07
4.38584e-07
4.40487e-07
4.47457e-07
4.67779e-07
5.2061e-07
6.66067e-07
4.38386e-07
4.38057e-07
4.38344e-07
4.40335e-07
4.47373e-07
4.67759e-07
5.20667e-07
6.66397e-07
4.49251e-07
4.49155e-07
4.49563e-07
4.51539e-07
4.58365e-07
4.78344e-07
5.30619e-07
6.70623e-07
4.79477e-07
4.79588e-07
4.80052e-07
4.81802e-07
4.87839e-07
5.06121e-07
5.55456e-07
6.8497e-07
1.15529e-06
5.46629e-07
5.46898e-07
5.47187e-07
5.47638e-07
5.48898e-07
5.53211e-07
5.66966e-07
6.0566e-07
7.07615e-07
1.07512e-06
6.93412e-07
6.93688e-07
6.93931e-07
6.94184e-07
6.94668e-07
6.96246e-07
7.01636e-07
7.17797e-07
7.62366e-07
9.63665e-07
1.16802e-06
1.16412e-06
1.16111e-06
1.15869e-06
1.15632e-06
1.15222e-06
1.14003e-06
1.10048e-06
9.93977e-07
8.03685e-07
1.16343e-06
1.16062e-06
1.15835e-06
1.1561e-06
1.15207e-06
1.13992e-06
1.10043e-06
9.94011e-07
8.04303e-07
7.01095e-07
6.99161e-07
6.97865e-07
6.97251e-07
6.98052e-07
7.02903e-07
7.18643e-07
7.62665e-07
9.65105e-07
5.51007e-07
5.49752e-07
5.49156e-07
5.49709e-07
5.53592e-07
5.67196e-07
6.05914e-07
7.07441e-07
1.07448e-06
4.81048e-07
4.80143e-07
4.79945e-07
4.81297e-07
4.87256e-07
5.05922e-07
5.5611e-07
6.84742e-07
1.13052e-06
4.48754e-07
4.48116e-07
4.48202e-07
4.50079e-07
4.57208e-07
4.78315e-07
5.33332e-07
6.75093e-07
1.19846e-06
4.3619e-07
4.35776e-07
4.36058e-07
4.38215e-07
4.4586e-07
4.67909e-07
5.24709e-07
6.72533e-07
1.23508e-06
4.35687e-07
4.35446e-07
4.35838e-07
4.38074e-07
4.45784e-07
4.67897e-07
5.24768e-07
6.72677e-07
1.23441e-06
4.4686e-07
4.46822e-07
4.47309e-07
4.49479e-07
4.56842e-07
4.78168e-07
5.33419e-07
6.75465e-07
1.19708e-06
4.77643e-07
4.77782e-07
4.7829e-07
4.80159e-07
4.86527e-07
5.05563e-07
5.56118e-07
6.85053e-07
1.12865e-06
5.45571e-07
5.45839e-07
5.46127e-07
5.46588e-07
5.47898e-07
5.5237e-07
5.66482e-07
6.05698e-07
7.07647e-07
1.07227e-06
6.93225e-07
6.93474e-07
6.93696e-07
6.93935e-07
6.94421e-07
6.96036e-07
7.01527e-07
7.1783e-07
7.62419e-07
9.6346e-07
1.16832e-06
1.16456e-06
1.16163e-06
1.15926e-06
1.15692e-06
1.15278e-06
1.14046e-06
1.10064e-06
9.93956e-07
8.03865e-07
1.16316e-06
1.16054e-06
1.15842e-06
1.15627e-06
1.15229e-06
1.14008e-06
1.10046e-06
9.94002e-07
8.04482e-07
7.00468e-07
6.98721e-07
6.97544e-07
6.97013e-07
6.97892e-07
7.02847e-07
7.18696e-07
7.62723e-07
9.64898e-07
5.50088e-07
5.48992e-07
5.48496e-07
5.4914e-07
5.53174e-07
5.67049e-07
6.06113e-07
7.07587e-07
1.07298e-06
4.79795e-07
4.79024e-07
4.78922e-07
4.80405e-07
4.86634e-07
5.0585e-07
5.56809e-07
6.84932e-07
1.12104e-06
4.47262e-07
4.4674e-07
4.46926e-07
4.48978e-07
4.56524e-07
4.78571e-07
5.35208e-07
6.75907e-07
1.14966e-06
4.34607e-07
4.34287e-07
4.34665e-07
4.37023e-07
4.45184e-07
4.68434e-07
5.27337e-07
6.73179e-07
1.16201e-06
4.34157e-07
4.33986e-07
4.34463e-07
4.36893e-07
4.45115e-07
4.68426e-07
5.27395e-07
6.7328e-07
1.16148e-06
4.45544e-07
4.45551e-07
4.46098e-07
4.48419e-07
4.56186e-07
4.78444e-07
5.353e-07
6.76174e-07
1.14832e-06
4.76688e-07
4.76844e-07
4.77382e-07
4.7934e-07
4.85951e-07
5.05519e-07
5.56831e-07
6.85221e-07
1.11911e-06
5.45095e-07
5.45354e-07
5.45633e-07
5.46096e-07
5.47438e-07
5.52019e-07
5.66374e-07
6.05907e-07
7.07774e-07
1.07083e-06
6.93224e-07
6.93442e-07
6.9364e-07
6.93863e-07
6.94346e-07
6.95982e-07
7.01534e-07
7.17916e-07
7.62487e-07
9.63348e-07
1.16825e-06
1.16463e-06
1.1618e-06
1.1595e-06
1.15718e-06
1.15305e-06
1.14064e-06
1.10068e-06
9.93924e-07
8.04033e-07
1.16273e-06
1.16033e-06
1.15835e-06
1.1563e-06
1.15237e-06
1.14015e-06
1.10046e-06
9.94006e-07
8.0464e-07
6.99949e-07
6.98378e-07
6.97312e-07
6.96857e-07
6.97804e-07
7.02836e-07
7.18757e-07
7.62782e-07
9.64733e-07
5.49497e-07
5.48539e-07
5.48131e-07
5.48851e-07
5.52996e-07
5.67057e-07
6.06334e-07
7.0775e-07
1.07215e-06
4.79053e-07
4.78397e-07
4.78377e-07
4.79961e-07
4.86387e-07
5.05971e-07
5.57394e-07
6.85209e-07
1.11746e-06
4.46408e-07
4.45982e-07
4.46249e-07
4.48434e-07
4.5628e-07
4.78949e-07
5.36459e-07
6.76326e-07
1.13615e-06
4.33719e-07
4.33475e-07
4.33931e-07
4.3644e-07
4.44969e-07
4.69004e-07
5.29028e-07
6.73534e-07
1.14244e-06
4.33316e-07
4.33202e-07
4.33746e-07
4.36321e-07
4.44906e-07
4.68999e-07
5.29084e-07
6.73622e-07
1.14197e-06
4.44852e-07
4.44892e-07
4.45484e-07
4.47914e-07
4.55966e-07
4.78835e-07
5.36551e-07
6.76556e-07
1.13487e-06
4.76225e-07
4.7639e-07
4.76947e-07
4.78966e-07
4.85747e-07
5.05664e-07
5.57421e-07
6.85479e-07
1.11559e-06
5.44927e-07
5.45171e-07
5.45437e-07
5.45894e-07
5.47255e-07
5.51908e-07
5.66417e-07
6.06136e-07
7.07925e-07
1.07013e-06
6.93306e-07
6.93495e-07
6.93669e-07
6.93876e-07
6.94351e-07
6.95997e-07
7.01585e-07
7.18008e-07
7.62557e-07
9.63291e-07
1.168e-06
1.16453e-06
1.1618e-06
1.15956e-06
1.15729e-06
1.15317e-06
1.14072e-06
1.10068e-06
9.93909e-07
8.04186e-07
1.16226e-06
1.16005e-06
1.15821e-06
1.15626e-06
1.15238e-06
1.14017e-06
1.10046e-06
9.9402e-07
8.04777e-07
6.99494e-07
6.98084e-07
6.97122e-07
6.96738e-07
6.97744e-07
7.02836e-07
7.18807e-07
7.62835e-07
9.64587e-07
5.49081e-07
5.48246e-07
5.47914e-07
5.48697e-07
5.52925e-07
5.67111e-07
6.06518e-07
7.07894e-07
1.07164e-06
4.78592e-07
4.78035e-07
4.78083e-07
4.79746e-07
4.86309e-07
5.06134e-07
5.57825e-07
6.85472e-07
1.1159e-06
4.45909e-07
4.45565e-07
4.45897e-07
4.48181e-07
4.56232e-07
4.7929e-07
5.37275e-07
6.76718e-07
1.13185e-06
4.33222e-07
4.33042e-07
4.33558e-07
4.36176e-07
4.44954e-07
4.69476e-07
5.30103e-07
6.73968e-07
1.13646e-06
4.32863e-07
4.32795e-07
4.33388e-07
4.36066e-07
4.44896e-07
4.69473e-07
5.30157e-07
6.7405e-07
1.13602e-06
4.44504e-07
4.44568e-07
4.45192e-07
4.47698e-07
4.5594e-07
4.79186e-07
5.37364e-07
6.76929e-07
1.13064e-06
4.76023e-07
4.76191e-07
4.76759e-07
4.78819e-07
4.8571e-07
5.05846e-07
5.57852e-07
6.85727e-07
1.11414e-06
5.44912e-07
5.45137e-07
5.45387e-07
5.45836e-07
5.47204e-07
5.51901e-07
5.66504e-07
6.06328e-07
7.08066e-07
1.06976e-06
6.93428e-07
6.93586e-07
6.93735e-07
6.93924e-07
6.9439e-07
6.96039e-07
7.01646e-07
7.1809e-07
7.62629e-07
9.63275e-07
1.16764e-06
1.16433e-06
1.16171e-06
1.15954e-06
1.15732e-06
1.15322e-06
1.14076e-06
1.10068e-06
9.93905e-07
8.04326e-07
1.16178e-06
1.15975e-06
1.15805e-06
1.15619e-06
1.15237e-06
1.14018e-06
1.10045e-06
9.94035e-07
8.0489e-07
6.99083e-07
6.9782e-07
6.96954e-07
6.96635e-07
6.97693e-07
7.02833e-07
7.18844e-07
7.62883e-07
9.64445e-07
5.48762e-07
5.48034e-07
5.47768e-07
5.48605e-07
5.52895e-07
5.67167e-07
6.06656e-07
7.08015e-07
1.07127e-06
4.78281e-07
4.77809e-07
4.77915e-07
4.79639e-07
4.86296e-07
5.06274e-07
5.58121e-07
6.85681e-07
1.1151e-06
4.45604e-07
4.45327e-07
4.45713e-07
4.48067e-07
4.56253e-07
4.79549e-07
5.3779e-07
6.77029e-07
1.13016e-06
4.32938e-07
4.3281e-07
4.33371e-07
4.36067e-07
4.45005e-07
4.6982e-07
5.30767e-07
6.74334e-07
1.13424e-06
4.32616e-07
4.32585e-07
4.33216e-07
4.35965e-07
4.44952e-07
4.69818e-07
5.30817e-07
6.7441e-07
1.13383e-06
4.44336e-07
4.44418e-07
4.45063e-07
4.4762e-07
4.55982e-07
4.79452e-07
5.37874e-07
6.77228e-07
1.12902e-06
4.75951e-07
4.7612e-07
4.76692e-07
4.78776e-07
4.85736e-07
5.06003e-07
5.58146e-07
6.85929e-07
1.11346e-06
5.44965e-07
5.45171e-07
5.45404e-07
5.45843e-07
5.47212e-07
5.51933e-07
5.66592e-07
6.06473e-07
7.08192e-07
1.06957e-06
6.9356e-07
6.9369e-07
6.93816e-07
6.93987e-07
6.94442e-07
6.9609e-07
7.01706e-07
7.18161e-07
7.62705e-07
9.63307e-07
1.16723e-06
1.16407e-06
1.16156e-06
1.15947e-06
1.15731e-06
1.15324e-06
1.14077e-06
1.10068e-06
9.939e-07
8.04449e-07
1.16132e-06
1.15945e-06
1.15787e-06
1.1561e-06
1.15234e-06
1.14017e-06
1.10044e-06
9.94038e-07
8.04981e-07
6.98705e-07
6.97575e-07
6.96797e-07
6.9654e-07
6.97644e-07
7.02826e-07
7.18871e-07
7.62925e-07
9.64296e-07
5.48498e-07
5.47863e-07
5.47657e-07
5.4854e-07
5.52879e-07
5.6721e-07
6.06758e-07
7.08115e-07
1.07097e-06
4.78051e-07
4.77652e-07
4.77808e-07
4.79579e-07
4.86303e-07
5.06378e-07
5.58319e-07
6.85839e-07
1.1146e-06
4.45399e-07
4.45181e-07
4.4561e-07
4.48016e-07
4.56291e-07
4.79728e-07
5.38111e-07
6.77251e-07
1.12934e-06
4.32764e-07
4.32679e-07
4.33277e-07
4.36025e-07
4.45065e-07
4.70052e-07
5.31168e-07
6.74593e-07
1.13323e-06
4.32477e-07
4.32476e-07
4.33135e-07
4.35932e-07
4.45017e-07
4.7005e-07
5.31216e-07
6.74667e-07
1.13285e-06
4.44258e-07
4.44353e-07
4.45013e-07
4.47603e-07
4.56039e-07
4.79638e-07
5.3819e-07
6.77446e-07
1.12829e-06
4.75942e-07
4.76108e-07
4.76682e-07
4.78779e-07
4.85781e-07
5.06124e-07
5.58343e-07
6.86093e-07
1.11311e-06
5.45049e-07
5.45235e-07
5.45451e-07
5.45876e-07
5.47243e-07
5.51977e-07
5.66668e-07
6.06584e-07
7.08319e-07
1.0695e-06
6.93692e-07
6.93795e-07
6.93899e-07
6.94053e-07
6.94497e-07
6.96141e-07
7.01761e-07
7.18222e-07
7.62782e-07
9.63348e-07
1.16678e-06
1.16379e-06
1.16139e-06
1.15938e-06
1.15727e-06
1.15323e-06
1.14077e-06
1.10067e-06
9.93885e-07
8.04554e-07
1.16087e-06
1.15916e-06
1.15769e-06
1.156e-06
1.1523e-06
1.14015e-06
1.10042e-06
9.94024e-07
8.05048e-07
6.98357e-07
6.97347e-07
6.9665e-07
6.96449e-07
6.97597e-07
7.02815e-07
7.18891e-07
7.62964e-07
9.64135e-07
5.4827e-07
5.47717e-07
5.47564e-07
5.48487e-07
5.52865e-07
5.67243e-07
6.06836e-07
7.08203e-07
1.07069e-06
4.77866e-07
4.77532e-07
4.7773e-07
4.7954e-07
4.86312e-07
5.06453e-07
5.58456e-07
6.85963e-07
1.11422e-06
4.4525e-07
4.45081e-07
4.45545e-07
4.4799e-07
4.56324e-07
4.79849e-07
5.38314e-07
6.77412e-07
1.12885e-06
4.32647e-07
4.32599e-07
4.33226e-07
4.36011e-07
4.45116e-07
4.70204e-07
5.31414e-07
6.74775e-07
1.13267e-06
4.32391e-07
4.32416e-07
4.33096e-07
4.35925e-07
4.45071e-07
4.70202e-07
5.3146e-07
6.74852e-07
1.13233e-06
4.44222e-07
4.44329e-07
4.44999e-07
4.47609e-07
4.5609e-07
4.79765e-07
5.3839e-07
6.77616e-07
1.12791e-06
4.7596e-07
4.76123e-07
4.76695e-07
4.788e-07
4.85826e-07
5.06214e-07
5.5848e-07
6.86246e-07
1.11296e-06
5.45143e-07
5.45309e-07
5.45508e-07
5.45921e-07
5.47283e-07
5.52022e-07
5.66732e-07
6.06672e-07
7.08441e-07
1.06947e-06
6.93819e-07
6.93897e-07
6.9398e-07
6.94118e-07
6.94551e-07
6.9619e-07
7.01812e-07
7.18276e-07
7.62854e-07
9.63374e-07
1.16632e-06
1.16347e-06
1.16119e-06
1.15926e-06
1.15721e-06
1.1532e-06
1.14075e-06
1.10065e-06
9.93856e-07
8.04638e-07
1.16044e-06
1.15887e-06
1.15751e-06
1.1559e-06
1.15224e-06
1.14012e-06
1.10038e-06
9.93989e-07
8.05094e-07
6.98037e-07
6.97134e-07
6.96512e-07
6.96363e-07
6.9755e-07
7.02802e-07
7.18908e-07
7.63001e-07
9.63963e-07
5.48068e-07
5.47587e-07
5.47482e-07
5.4844e-07
5.52851e-07
5.67267e-07
6.069e-07
7.08284e-07
1.07041e-06
4.7771e-07
4.77431e-07
4.77667e-07
4.7951e-07
4.86318e-07
5.06507e-07
5.58558e-07
6.86071e-07
1.11389e-06
4.45131e-07
4.45005e-07
4.45499e-07
4.47974e-07
4.56349e-07
4.79932e-07
5.38453e-07
6.77542e-07
1.12847e-06
4.32562e-07
4.32544e-07
4.33194e-07
4.36006e-07
4.45154e-07
4.70305e-07
5.31575e-07
6.74919e-07
1.1323e-06
4.32333e-07
4.32378e-07
4.33076e-07
4.35927e-07
4.45113e-07
4.70303e-07
5.31618e-07
6.75003e-07
1.13202e-06
4.44207e-07
4.44322e-07
4.45e-07
4.47623e-07
4.56133e-07
4.79854e-07
5.38526e-07
6.77775e-07
1.12773e-06
4.7599e-07
4.76148e-07
4.76717e-07
4.78825e-07
4.85866e-07
5.06283e-07
5.58583e-07
6.86393e-07
1.11289e-06
5.45238e-07
5.45385e-07
5.45568e-07
5.45969e-07
5.47323e-07
5.52065e-07
5.66788e-07
6.06746e-07
7.08556e-07
1.06944e-06
6.93939e-07
6.93994e-07
6.94057e-07
6.94181e-07
6.94604e-07
6.96237e-07
7.01858e-07
7.18326e-07
7.62923e-07
9.63382e-07
1.16584e-06
1.16314e-06
1.16097e-06
1.15912e-06
1.15712e-06
1.15315e-06
1.14071e-06
1.10061e-06
9.93808e-07
8.04701e-07
1.16004e-06
1.1586e-06
1.15733e-06
1.15578e-06
1.15217e-06
1.14007e-06
1.10033e-06
9.9393e-07
8.05114e-07
6.97743e-07
6.96937e-07
6.96382e-07
6.9628e-07
6.97505e-07
7.02788e-07
7.18922e-07
7.63037e-07
9.63789e-07
5.47888e-07
5.4747e-07
5.47407e-07
5.48397e-07
5.52838e-07
5.67287e-07
6.06957e-07
7.08363e-07
1.07014e-06
4.77575e-07
4.77345e-07
4.77614e-07
4.79483e-07
4.86322e-07
5.06548e-07
5.58642e-07
6.86173e-07
1.11358e-06
4.45032e-07
4.44943e-07
4.45462e-07
4.47961e-07
4.56367e-07
4.79992e-07
5.38558e-07
6.77661e-07
1.12816e-06
4.32493e-07
4.32502e-07
4.33171e-07
4.36004e-07
4.45182e-07
4.70376e-07
5.31691e-07
6.75053e-07
1.13203e-06
4.32289e-07
4.32353e-07
4.33064e-07
4.35932e-07
4.45145e-07
4.70375e-07
5.31733e-07
6.75155e-07
1.13184e-06
4.44202e-07
4.44323e-07
4.45006e-07
4.47639e-07
4.56168e-07
4.7992e-07
5.38628e-07
6.77931e-07
1.12763e-06
4.76023e-07
4.76177e-07
4.76743e-07
4.78852e-07
4.85902e-07
5.06339e-07
5.58666e-07
6.86529e-07
1.11282e-06
5.45329e-07
5.45459e-07
5.45627e-07
5.46016e-07
5.47364e-07
5.52106e-07
5.66837e-07
6.06811e-07
7.08663e-07
1.0694e-06
6.9405e-07
6.94084e-07
6.9413e-07
6.9424e-07
6.94653e-07
6.96281e-07
7.01902e-07
7.18372e-07
7.62987e-07
9.63371e-07
1.16535e-06
1.1628e-06
1.16073e-06
1.15896e-06
1.15702e-06
1.15307e-06
1.14065e-06
1.10055e-06
9.93742e-07
8.04741e-07
1.15966e-06
1.15833e-06
1.15714e-06
1.15566e-06
1.15209e-06
1.14e-06
1.10025e-06
9.93843e-07
8.0508e-07
6.97475e-07
6.96754e-07
6.9626e-07
6.96203e-07
6.97461e-07
7.02772e-07
7.18934e-07
7.63072e-07
9.63616e-07
5.47727e-07
5.47364e-07
5.47339e-07
5.48358e-07
5.52825e-07
5.67305e-07
6.0701e-07
7.08445e-07
1.06988e-06
4.77456e-07
4.77268e-07
4.77566e-07
4.79459e-07
4.86324e-07
5.06583e-07
5.58716e-07
6.86279e-07
1.1133e-06
4.44947e-07
4.44889e-07
4.45432e-07
4.47951e-07
4.56382e-07
4.8004e-07
5.38646e-07
6.77784e-07
1.1279e-06
4.32436e-07
4.32467e-07
4.33153e-07
4.36003e-07
4.45205e-07
4.70432e-07
5.31786e-07
6.75199e-07
1.13186e-06
4.32254e-07
4.32333e-07
4.33056e-07
4.35938e-07
4.4517e-07
4.70431e-07
5.31825e-07
6.7531e-07
1.13172e-06
4.44202e-07
4.44328e-07
4.45015e-07
4.47654e-07
4.56197e-07
4.79973e-07
5.38713e-07
6.78075e-07
1.12753e-06
4.76057e-07
4.76206e-07
4.76769e-07
4.78878e-07
4.85935e-07
5.06388e-07
5.58739e-07
6.86655e-07
1.11273e-06
5.45416e-07
5.4553e-07
5.45683e-07
5.46062e-07
5.47403e-07
5.52144e-07
5.66883e-07
6.06872e-07
7.08764e-07
1.06933e-06
6.94151e-07
6.94167e-07
6.94199e-07
6.94296e-07
6.947e-07
6.96323e-07
7.01942e-07
7.18415e-07
7.63043e-07
9.63335e-07
1.16487e-06
1.16245e-06
1.16048e-06
1.15879e-06
1.1569e-06
1.15298e-06
1.14057e-06
1.10047e-06
9.93654e-07
8.04724e-07
1.1593e-06
1.15807e-06
1.15696e-06
1.15553e-06
1.15199e-06
1.13991e-06
1.10016e-06
9.93708e-07
8.04803e-07
6.9723e-07
6.96585e-07
6.96147e-07
6.96129e-07
6.97419e-07
7.02757e-07
7.18943e-07
7.631e-07
9.63428e-07
5.47582e-07
5.47268e-07
5.47277e-07
5.48322e-07
5.52813e-07
5.6732e-07
6.0706e-07
7.08534e-07
1.06965e-06
4.7735e-07
4.77199e-07
4.77523e-07
4.79438e-07
4.86326e-07
5.06615e-07
5.58785e-07
6.86398e-07
1.11308e-06
4.44873e-07
4.44842e-07
4.45404e-07
4.47941e-07
4.56394e-07
4.80082e-07
5.38726e-07
6.77929e-07
1.12774e-06
4.32387e-07
4.32438e-07
4.33139e-07
4.36003e-07
4.45224e-07
4.70479e-07
5.31869e-07
6.75351e-07
1.13173e-06
4.32225e-07
4.32317e-07
4.3305e-07
4.35943e-07
4.45192e-07
4.70478e-07
5.31906e-07
6.75455e-07
1.1316e-06
4.44204e-07
4.44334e-07
4.45024e-07
4.47669e-07
4.56224e-07
4.80019e-07
5.38788e-07
6.78209e-07
1.12741e-06
4.7609e-07
4.76235e-07
4.76794e-07
4.78903e-07
4.85966e-07
5.06432e-07
5.58806e-07
6.86773e-07
1.11263e-06
5.45497e-07
5.45596e-07
5.45737e-07
5.46106e-07
5.4744e-07
5.52181e-07
5.66925e-07
6.06928e-07
7.08855e-07
1.06925e-06
6.94244e-07
6.94244e-07
6.94262e-07
6.94348e-07
6.94744e-07
6.96362e-07
7.0198e-07
7.18452e-07
7.63082e-07
9.63248e-07
1.16439e-06
1.1621e-06
1.16022e-06
1.1586e-06
1.15676e-06
1.15287e-06
1.14047e-06
1.10037e-06
9.93523e-07
8.04461e-07
1.15896e-06
1.15781e-06
1.15677e-06
1.15539e-06
1.15188e-06
1.13981e-06
1.10003e-06
9.93429e-07
8.033e-07
6.97008e-07
6.9643e-07
6.96042e-07
6.96061e-07
6.97378e-07
7.0274e-07
7.18945e-07
7.63102e-07
9.63143e-07
5.47452e-07
5.47181e-07
5.4722e-07
5.48288e-07
5.52802e-07
5.67335e-07
6.07106e-07
7.08635e-07
1.0695e-06
4.77257e-07
4.77137e-07
4.77485e-07
4.79419e-07
4.86328e-07
5.06644e-07
5.58851e-07
6.86535e-07
1.11293e-06
4.44808e-07
4.44801e-07
4.4538e-07
4.47933e-07
4.56405e-07
4.8012e-07
5.388e-07
6.78075e-07
1.1276e-06
4.32345e-07
4.32413e-07
4.33126e-07
4.36003e-07
4.45241e-07
4.7052e-07
5.31945e-07
6.75495e-07
1.13158e-06
4.322e-07
4.32303e-07
4.33046e-07
4.35948e-07
4.45212e-07
4.70519e-07
5.31978e-07
6.7559e-07
1.13146e-06
4.44207e-07
4.44341e-07
4.45034e-07
4.47684e-07
4.56248e-07
4.80061e-07
5.38856e-07
6.78333e-07
1.12729e-06
4.76122e-07
4.76263e-07
4.76818e-07
4.78927e-07
4.85994e-07
5.06472e-07
5.58867e-07
6.86881e-07
1.11252e-06
5.45572e-07
5.45658e-07
5.45788e-07
5.46147e-07
5.47476e-07
5.52216e-07
5.66966e-07
6.06979e-07
7.08934e-07
1.06914e-06
6.94328e-07
6.94314e-07
6.9432e-07
6.94397e-07
6.94785e-07
6.96398e-07
7.02014e-07
7.18481e-07
7.63081e-07
9.6299e-07
1.16391e-06
1.16174e-06
1.15995e-06
1.1584e-06
1.1566e-06
1.15274e-06
1.14035e-06
1.10024e-06
9.93253e-07
8.02957e-07
1.15864e-06
1.15757e-06
1.15658e-06
1.15524e-06
1.15176e-06
1.1397e-06
1.09988e-06
9.92705e-07
7.9631e-07
6.96805e-07
6.96288e-07
6.95945e-07
6.95996e-07
6.97339e-07
7.02722e-07
7.18935e-07
7.63027e-07
9.6235e-07
5.47336e-07
5.47102e-07
5.47168e-07
5.48258e-07
5.52792e-07
5.67349e-07
6.07148e-07
7.08724e-07
1.06931e-06
4.77174e-07
4.77082e-07
4.7745e-07
4.79402e-07
4.86329e-07
5.06671e-07
5.58912e-07
6.86664e-07
1.11278e-06
4.44751e-07
4.44764e-07
4.45359e-07
4.47926e-07
4.56416e-07
4.80155e-07
5.38869e-07
6.78211e-07
1.12744e-06
4.32308e-07
4.3239e-07
4.33115e-07
4.36003e-07
4.45257e-07
4.70558e-07
5.32015e-07
6.75626e-07
1.13143e-06
4.32178e-07
4.32292e-07
4.33042e-07
4.35953e-07
4.45229e-07
4.70557e-07
5.32045e-07
6.75714e-07
1.13132e-06
4.44211e-07
4.44348e-07
4.45043e-07
4.47697e-07
4.5627e-07
4.80099e-07
5.38919e-07
6.78446e-07
1.12715e-06
4.76152e-07
4.76289e-07
4.76841e-07
4.78949e-07
4.86021e-07
5.0651e-07
5.58924e-07
6.8698e-07
1.11239e-06
5.45642e-07
5.45716e-07
5.45835e-07
5.46186e-07
5.4751e-07
5.52249e-07
5.67003e-07
6.07025e-07
7.08994e-07
1.06898e-06
6.94403e-07
6.94378e-07
6.94373e-07
6.94441e-07
6.94823e-07
6.96432e-07
7.02045e-07
7.18498e-07
7.62998e-07
9.62205e-07
1.16345e-06
1.16138e-06
1.15968e-06
1.15819e-06
1.15643e-06
1.1526e-06
1.14022e-06
1.10008e-06
9.9253e-07
7.95938e-07
1.15833e-06
1.15733e-06
1.15639e-06
1.15509e-06
1.15163e-06
1.13957e-06
1.09967e-06
9.91002e-07
8.06095e-07
6.96614e-07
6.96152e-07
6.95851e-07
6.95932e-07
6.97299e-07
7.02701e-07
7.18914e-07
7.62846e-07
9.60493e-07
5.47227e-07
5.47028e-07
5.47119e-07
5.48229e-07
5.52782e-07
5.67361e-07
6.07185e-07
7.08796e-07
1.06905e-06
4.77097e-07
4.7703e-07
4.77417e-07
4.79385e-07
4.86331e-07
5.06696e-07
5.58969e-07
6.86784e-07
1.1126e-06
4.44698e-07
4.4473e-07
4.45339e-07
4.47919e-07
4.56425e-07
4.80188e-07
5.38934e-07
6.78339e-07
1.12726e-06
4.32275e-07
4.3237e-07
4.33104e-07
4.36003e-07
4.45272e-07
4.70594e-07
5.32081e-07
6.7575e-07
1.13126e-06
4.32159e-07
4.32282e-07
4.33038e-07
4.35957e-07
4.45246e-07
4.70593e-07
5.32109e-07
6.7583e-07
1.13115e-06
4.44216e-07
4.44356e-07
4.45053e-07
4.4771e-07
4.56291e-07
4.80135e-07
5.38979e-07
6.78553e-07
1.12699e-06
4.7618e-07
4.76314e-07
4.76864e-07
4.78971e-07
4.86047e-07
5.06546e-07
5.58978e-07
6.87071e-07
1.11224e-06
5.45707e-07
5.45771e-07
5.45881e-07
5.46225e-07
5.47544e-07
5.52281e-07
5.67039e-07
6.07068e-07
7.0904e-07
1.06874e-06
6.94472e-07
6.94436e-07
6.94423e-07
6.94483e-07
6.94859e-07
6.96464e-07
7.02074e-07
7.18505e-07
7.62812e-07
9.6037e-07
1.16297e-06
1.16102e-06
1.15939e-06
1.15796e-06
1.15625e-06
1.15245e-06
1.14008e-06
1.09986e-06
9.90813e-07
8.05685e-07
1.15803e-06
1.15709e-06
1.1562e-06
1.15493e-06
1.15149e-06
1.13943e-06
1.09948e-06
9.9015e-07
7.97556e-07
6.96436e-07
6.96025e-07
6.9576e-07
6.9587e-07
6.97257e-07
7.02677e-07
7.18895e-07
7.62743e-07
9.59561e-07
5.47128e-07
5.46958e-07
5.47072e-07
5.482e-07
5.52771e-07
5.67371e-07
6.0722e-07
7.08866e-07
1.06883e-06
4.77027e-07
4.76983e-07
4.77386e-07
4.79369e-07
4.86332e-07
5.06719e-07
5.59023e-07
6.86894e-07
1.11241e-06
4.4465e-07
4.44699e-07
4.4532e-07
4.47913e-07
4.56434e-07
4.80218e-07
5.38996e-07
6.78455e-07
1.12707e-06
4.32244e-07
4.32351e-07
4.33095e-07
4.36003e-07
4.45285e-07
4.70628e-07
5.32144e-07
6.75864e-07
1.13107e-06
4.32142e-07
4.32272e-07
4.33036e-07
4.35962e-07
4.45262e-07
4.70626e-07
5.32169e-07
6.75937e-07
1.13097e-06
4.44221e-07
4.44363e-07
4.45062e-07
4.47723e-07
4.56312e-07
4.8017e-07
5.39036e-07
6.78651e-07
1.12682e-06
4.76208e-07
4.76338e-07
4.76886e-07
4.78993e-07
4.86072e-07
5.06581e-07
5.5903e-07
6.87155e-07
1.11207e-06
5.45769e-07
5.45822e-07
5.45924e-07
5.46261e-07
5.47576e-07
5.52312e-07
5.67074e-07
6.0711e-07
7.09087e-07
1.06853e-06
6.94535e-07
6.9449e-07
6.94469e-07
6.94523e-07
6.94894e-07
6.96495e-07
7.02101e-07
7.18517e-07
7.62707e-07
9.59458e-07
1.16249e-06
1.16064e-06
1.1591e-06
1.15772e-06
1.15605e-06
1.15227e-06
1.13992e-06
1.09967e-06
9.89969e-07
7.97263e-07
1.15774e-06
1.15685e-06
1.15601e-06
1.15476e-06
1.15134e-06
1.13928e-06
1.09931e-06
9.89796e-07
7.95788e-07
6.96277e-07
6.95909e-07
6.95677e-07
6.95811e-07
6.97217e-07
7.02653e-07
7.18882e-07
7.6272e-07
9.59215e-07
5.47039e-07
5.46896e-07
5.4703e-07
5.48174e-07
5.52761e-07
5.67379e-07
6.07252e-07
7.08938e-07
1.06864e-06
4.76965e-07
4.7694e-07
4.77358e-07
4.79355e-07
4.86333e-07
5.0674e-07
5.59072e-07
6.86991e-07
1.11222e-06
4.44609e-07
4.44671e-07
4.45304e-07
4.47907e-07
4.56442e-07
4.80246e-07
5.39051e-07
6.78558e-07
1.12688e-06
4.32218e-07
4.32335e-07
4.33087e-07
4.36004e-07
4.45298e-07
4.70659e-07
5.322e-07
6.75963e-07
1.13087e-06
4.32127e-07
4.32264e-07
4.33033e-07
4.35966e-07
4.45276e-07
4.70657e-07
5.32223e-07
6.7603e-07
1.13078e-06
4.44226e-07
4.4437e-07
4.4507e-07
4.47735e-07
4.5633e-07
4.80201e-07
5.39087e-07
6.78737e-07
1.12663e-06
4.76233e-07
4.76361e-07
4.76906e-07
4.79012e-07
4.86095e-07
5.06613e-07
5.59077e-07
6.8723e-07
1.1119e-06
5.45824e-07
5.4587e-07
5.45964e-07
5.46295e-07
5.47605e-07
5.52341e-07
5.67107e-07
6.0715e-07
7.09138e-07
1.06836e-06
6.9459e-07
6.94538e-07
6.9451e-07
6.94559e-07
6.94924e-07
6.96522e-07
7.02127e-07
7.18536e-07
7.62684e-07
9.59119e-07
1.16202e-06
1.16027e-06
1.1588e-06
1.15747e-06
1.15584e-06
1.1521e-06
1.13975e-06
1.09949e-06
9.89624e-07
7.95531e-07
1.15747e-06
1.15663e-06
1.15582e-06
1.1546e-06
1.15119e-06
1.13913e-06
1.09914e-06
9.89577e-07
7.95407e-07
6.96135e-07
6.95805e-07
6.95602e-07
6.95757e-07
6.97179e-07
7.02629e-07
7.18873e-07
7.62729e-07
9.59031e-07
5.46961e-07
5.46841e-07
5.46991e-07
5.4815e-07
5.52751e-07
5.67386e-07
6.0728e-07
7.09004e-07
1.06845e-06
4.76911e-07
4.76902e-07
4.77333e-07
4.79341e-07
4.86333e-07
5.06758e-07
5.59115e-07
6.87077e-07
1.11202e-06
4.44572e-07
4.44647e-07
4.45289e-07
4.47902e-07
4.56449e-07
4.8027e-07
5.39099e-07
6.78647e-07
1.12667e-06
4.32195e-07
4.32321e-07
4.33079e-07
4.36004e-07
4.45308e-07
4.70686e-07
5.3225e-07
6.76049e-07
1.13067e-06
4.32114e-07
4.32257e-07
4.33031e-07
4.35969e-07
4.45289e-07
4.70684e-07
5.3227e-07
6.7611e-07
1.13059e-06
4.4423e-07
4.44376e-07
4.45078e-07
4.47745e-07
4.56347e-07
4.80229e-07
5.39132e-07
6.7881e-07
1.12645e-06
4.76256e-07
4.76381e-07
4.76924e-07
4.79031e-07
4.86116e-07
5.06642e-07
5.59119e-07
6.87295e-07
1.11172e-06
5.45874e-07
5.45912e-07
5.46001e-07
5.46326e-07
5.47633e-07
5.52368e-07
5.67137e-07
6.07187e-07
7.09188e-07
1.06819e-06
6.94638e-07
6.9458e-07
6.94547e-07
6.9459e-07
6.94952e-07
6.96547e-07
7.02151e-07
7.18558e-07
7.62695e-07
9.5894e-07
1.16157e-06
1.15991e-06
1.1585e-06
1.15722e-06
1.15563e-06
1.15191e-06
1.13957e-06
1.09931e-06
9.89413e-07
7.95169e-07
1.15722e-06
1.15642e-06
1.15563e-06
1.15443e-06
1.15104e-06
1.13898e-06
1.09897e-06
9.89384e-07
7.95253e-07
6.9601e-07
6.95712e-07
6.95533e-07
6.95707e-07
6.97143e-07
7.02606e-07
7.18865e-07
7.62745e-07
9.58875e-07
5.46892e-07
5.46791e-07
5.46957e-07
5.48128e-07
5.52741e-07
5.67391e-07
6.07306e-07
7.09064e-07
1.06826e-06
4.76862e-07
4.76869e-07
4.77311e-07
4.79329e-07
4.86332e-07
5.06774e-07
5.59152e-07
6.8715e-07
1.11181e-06
4.44539e-07
4.44625e-07
4.45275e-07
4.47896e-07
4.56455e-07
4.80292e-07
5.39142e-07
6.78723e-07
1.12646e-06
4.32175e-07
4.32308e-07
4.33072e-07
4.36004e-07
4.45318e-07
4.70709e-07
5.32293e-07
6.76122e-07
1.13047e-06
4.32103e-07
4.32251e-07
4.33029e-07
4.35972e-07
4.453e-07
4.70708e-07
5.32312e-07
6.76178e-07
1.13039e-06
4.44235e-07
4.44382e-07
4.45085e-07