/*--------------------------------*- C++ -*----------------------------------*\
| =========                 |                                                 |
| \\      /  F ield         | OpenFOAM: The Open Source CFD Toolbox           |
|  \\    /   O peration     | Version:  2.3.1                                 |
|   \\  /    A nd           | Web:      www.OpenFOAM.org                      |
|    \\/     M anipulation  |                                                 |
\*---------------------------------------------------------------------------*/
FoamFile
{
    version     2.0;
    format      ascii;
    class       volScalarField;
    location    "10";
    object      epsilon;
}
// * * * * * * * * * * * * * * * * * * * * * * * * * * * * * * * * * * * * * //

dimensions      [0 2 -3 0 0 0 0];

internalField   nonuniform List<scalar> 
37784
(
1.35431e-06
1.35056e-06
1.34768e-06
1.34499e-06
1.34055e-06
1.32681e-06
1.27596e-06
1.11622e-06
7.5829e-07
1.2711e-06
1.26709e-06
1.26426e-06
1.2621e-06
1.26008e-06
1.25664e-06
1.24528e-06
1.20056e-06
1.05477e-06
7.43991e-07
1.05354e-06
1.05051e-06
1.0485e-06
1.04697e-06
1.0456e-06
1.04374e-06
1.03847e-06
1.01596e-06
9.32897e-07
7.28867e-07
6.40035e-07
6.38968e-07
6.3841e-07
6.37841e-07
6.37194e-07
6.3646e-07
6.35531e-07
6.33656e-07
6.33346e-07
6.77953e-07
8.25487e-07
8.24002e-07
8.229e-07
8.22062e-07
8.21354e-07
8.20327e-07
8.16701e-07
8.0565e-07
8.52447e-07
8.18697e-07
8.17219e-07
8.16124e-07
8.15289e-07
8.14628e-07
8.14003e-07
8.1284e-07
8.08215e-07
7.9119e-07
7.83249e-07
7.90598e-07
7.89669e-07
7.88984e-07
7.88453e-07
7.88014e-07
7.87542e-07
7.86469e-07
7.81967e-07
7.64778e-07
7.50147e-07
7.57001e-07
7.55981e-07
7.55349e-07
7.54862e-07
7.54417e-07
7.53858e-07
7.52478e-07
7.46871e-07
7.27398e-07
6.87125e-07
6.90564e-07
6.8976e-07
6.8922e-07
6.89005e-07
6.89657e-07
6.93286e-07
7.06415e-07
7.52436e-07
1.06001e-06
7.09708e-07
7.09048e-07
7.0859e-07
7.08275e-07
7.08152e-07
7.08625e-07
7.11326e-07
7.21211e-07
7.53097e-07
9.26866e-07
7.51419e-07
7.51156e-07
7.50982e-07
7.50855e-07
7.50768e-07
7.50802e-07
7.51339e-07
7.53639e-07
7.62774e-07
8.66717e-07
9.41352e-07
9.39081e-07
9.37476e-07
9.3625e-07
9.35208e-07
9.33947e-07
9.30733e-07
9.18074e-07
8.74239e-07
7.69377e-07
6.16539e-07
6.15963e-07
6.1564e-07
6.15765e-07
6.17374e-07
6.24173e-07
6.47433e-07
7.26267e-07
1.18848e-06
6.5103e-07
6.50679e-07
6.50469e-07
6.50372e-07
6.50543e-07
6.51799e-07
6.57195e-07
6.76016e-07
7.35608e-07
1.00386e-06
7.31765e-07
7.31772e-07
7.31808e-07
7.31848e-07
7.31932e-07
7.32313e-07
7.34067e-07
7.40826e-07
7.64731e-07
9.19324e-07
1.04026e-06
1.03719e-06
1.03496e-06
1.03326e-06
1.03181e-06
1.02989e-06
1.02462e-06
1.0045e-06
9.3855e-07
7.92849e-07
5.67827e-07
5.67409e-07
5.67248e-07
5.67668e-07
5.70118e-07
5.79426e-07
6.09721e-07
7.09175e-07
1.26512e-06
6.12707e-07
6.12548e-07
6.12493e-07
6.12544e-07
6.12956e-07
6.14888e-07
6.22413e-07
6.47432e-07
7.24196e-07
1.04619e-06
7.17849e-07
7.17999e-07
7.18146e-07
7.1828e-07
7.18481e-07
7.19158e-07
7.21913e-07
7.31829e-07
7.64546e-07
9.4383e-07
1.09717e-06
1.09358e-06
1.09094e-06
1.08891e-06
1.08714e-06
1.08462e-06
1.07737e-06
1.0508e-06
9.68377e-07
7.99393e-07
5.3474e-07
5.34455e-07
5.3444e-07
5.35137e-07
5.38352e-07
5.49744e-07
5.85218e-07
6.97856e-07
1.30585e-06
5.86983e-07
5.86968e-07
5.87028e-07
5.87197e-07
5.87819e-07
5.90344e-07
5.99584e-07
6.29055e-07
7.16697e-07
1.06895e-06
7.08011e-07
7.08245e-07
7.08457e-07
7.08651e-07
7.08944e-07
7.09876e-07
7.1344e-07
7.25604e-07
7.63669e-07
9.55378e-07
1.13026e-06
1.12636e-06
1.12345e-06
1.1212e-06
1.11918e-06
1.11615e-06
1.10725e-06
1.07578e-06
9.82532e-07
8.01487e-07
5.12452e-07
5.12284e-07
5.12398e-07
5.13356e-07
5.17269e-07
5.30443e-07
5.69896e-07
6.90798e-07
1.31952e-06
5.70004e-07
5.70097e-07
5.70246e-07
5.70509e-07
5.71316e-07
5.74351e-07
5.84972e-07
6.17669e-07
7.12109e-07
1.08011e-06
7.01473e-07
7.01755e-07
7.02005e-07
7.02237e-07
7.02601e-07
7.03745e-07
7.0794e-07
7.21676e-07
7.62934e-07
9.60683e-07
1.14899e-06
1.14492e-06
1.14186e-06
1.13948e-06
1.13729e-06
1.13385e-06
1.12371e-06
1.08887e-06
9.89137e-07
8.02351e-07
4.97794e-07
4.97724e-07
4.97953e-07
4.9915e-07
5.03699e-07
5.18428e-07
5.61068e-07
6.8682e-07
1.31001e-06
5.59167e-07
5.59339e-07
5.59552e-07
5.59889e-07
5.60852e-07
5.64317e-07
5.76037e-07
6.11065e-07
7.09551e-07
1.08416e-06
6.97428e-07
6.97733e-07
6.98e-07
6.98254e-07
6.98672e-07
6.99981e-07
7.04647e-07
7.19442e-07
7.6251e-07
9.62945e-07
1.15915e-06
1.15502e-06
1.1519e-06
1.14945e-06
1.14716e-06
1.14343e-06
1.13242e-06
1.09542e-06
9.9209e-07
8.02815e-07
4.88472e-07
4.88481e-07
4.88806e-07
4.90218e-07
4.95336e-07
5.11437e-07
5.56726e-07
6.84928e-07
1.27705e-06
5.52543e-07
5.52769e-07
5.53024e-07
5.53417e-07
5.54505e-07
5.58323e-07
5.70907e-07
6.07606e-07
7.08269e-07
1.08354e-06
6.95114e-07
6.95422e-07
6.95691e-07
6.95954e-07
6.96407e-07
6.9784e-07
7.02842e-07
7.18322e-07
7.62324e-07
9.63719e-07
1.16437e-06
1.16027e-06
1.15714e-06
1.15468e-06
1.15232e-06
1.1484e-06
1.13682e-06
1.0985e-06
9.93317e-07
8.03122e-07
4.82779e-07
4.82847e-07
4.83251e-07
4.84848e-07
4.90466e-07
5.07759e-07
5.55285e-07
6.84454e-07
1.22075e-06
5.487e-07
5.48956e-07
5.49236e-07
5.49665e-07
5.50852e-07
5.54951e-07
5.68203e-07
6.06082e-07
7.07716e-07
1.07985e-06
6.93908e-07
6.94205e-07
6.94465e-07
6.94726e-07
6.95201e-07
6.9672e-07
7.01955e-07
7.17858e-07
7.62273e-07
9.63767e-07
1.16686e-06
1.16284e-06
1.15976e-06
1.1573e-06
1.15493e-06
1.15089e-06
1.13893e-06
1.09984e-06
9.93749e-07
8.03358e-07
1.16328e-06
1.16024e-06
1.15782e-06
1.15548e-06
1.15143e-06
1.13938e-06
1.10014e-06
9.93871e-07
8.03978e-07
7.0187e-07
6.99737e-07
6.98316e-07
6.97611e-07
6.98318e-07
7.03026e-07
7.18586e-07
7.62543e-07
9.65238e-07
5.52502e-07
5.51063e-07
5.50353e-07
5.50794e-07
5.54479e-07
5.67695e-07
6.05859e-07
7.07334e-07
1.07719e-06
4.83182e-07
4.82121e-07
4.81807e-07
4.82998e-07
4.88602e-07
5.06499e-07
5.55453e-07
6.84593e-07
1.15661e-06
4.5132e-07
4.50544e-07
4.5051e-07
4.52168e-07
4.58749e-07
4.78503e-07
5.30529e-07
6.69834e-07
4.38936e-07
4.38408e-07
4.38571e-07
4.40474e-07
4.47445e-07
4.67765e-07
5.20591e-07
6.66027e-07
4.38373e-07
4.38044e-07
4.38331e-07
4.40321e-07
4.4736e-07
4.67745e-07
5.20648e-07
6.66357e-07
4.49238e-07
4.49141e-07
4.49549e-07
4.51525e-07
4.58352e-07
4.7833e-07
5.30599e-07
6.70581e-07
4.79461e-07
4.79572e-07
4.80036e-07
4.81786e-07
4.87823e-07
5.06104e-07
5.55433e-07
6.84922e-07
1.15517e-06
5.46604e-07
5.46872e-07
5.47162e-07
5.47613e-07
5.48873e-07
5.53186e-07
5.66939e-07
6.05628e-07
7.0756e-07
1.07499e-06
6.9336e-07
6.93635e-07
6.93878e-07
6.94131e-07
6.94616e-07
6.96193e-07
7.01583e-07
7.17738e-07
7.6229e-07
9.63534e-07
1.1679e-06
1.164e-06
1.16099e-06
1.15857e-06
1.1562e-06
1.15209e-06
1.1399e-06
1.10035e-06
9.93843e-07
8.03556e-07
1.16331e-06
1.16049e-06
1.15822e-06
1.15597e-06
1.15195e-06
1.13979e-06
1.1003e-06
9.93877e-07
8.04175e-07
7.01046e-07
6.99112e-07
6.97815e-07
6.972e-07
6.98001e-07
7.0285e-07
7.18585e-07
7.62589e-07
9.64974e-07
5.50986e-07
5.49729e-07
5.49133e-07
5.49685e-07
5.53568e-07
5.6717e-07
6.05882e-07
7.07386e-07
1.07435e-06
4.81034e-07
4.80129e-07
4.79929e-07
4.81282e-07
4.87241e-07
5.05905e-07
5.56086e-07
6.84694e-07
1.1304e-06
4.48742e-07
4.48103e-07
4.48189e-07
4.50066e-07
4.57195e-07
4.783e-07
5.33311e-07
6.75048e-07
1.19834e-06
4.36178e-07
4.35763e-07
4.36045e-07
4.38202e-07
4.45847e-07
4.67895e-07
5.24689e-07
6.7249e-07
1.23496e-06
4.35674e-07
4.35432e-07
4.35824e-07
4.38061e-07
4.45771e-07
4.67882e-07
5.24747e-07
6.72634e-07
1.23429e-06
4.46847e-07
4.46808e-07
4.47295e-07
4.49466e-07
4.56829e-07
4.78153e-07
5.33398e-07
6.7542e-07
1.19696e-06
4.77627e-07
4.77766e-07
4.78274e-07
4.80143e-07
4.86511e-07
5.05546e-07
5.56095e-07
6.85005e-07
1.12852e-06
5.45545e-07
5.45814e-07
5.46102e-07
5.46563e-07
5.47873e-07
5.52345e-07
5.66456e-07
6.05665e-07
7.07591e-07
1.07214e-06
6.93173e-07
6.93421e-07
6.93643e-07
6.93882e-07
6.94369e-07
6.95983e-07
7.01473e-07
7.17771e-07
7.62343e-07
9.63329e-07
1.16821e-06
1.16444e-06
1.16151e-06
1.15914e-06
1.15679e-06
1.15266e-06
1.14033e-06
1.10051e-06
9.93822e-07
8.03737e-07
1.16304e-06
1.16042e-06
1.1583e-06
1.15615e-06
1.15216e-06
1.13996e-06
1.10033e-06
9.93868e-07
8.04354e-07
7.00419e-07
6.98672e-07
6.97493e-07
6.96961e-07
6.97841e-07
7.02794e-07
7.18638e-07
7.62647e-07
9.64768e-07
5.50066e-07
5.48968e-07
5.48472e-07
5.49116e-07
5.53149e-07
5.67024e-07
6.06081e-07
7.07531e-07
1.07285e-06
4.79781e-07
4.79009e-07
4.78907e-07
4.80389e-07
4.86619e-07
5.05833e-07
5.56785e-07
6.84884e-07
1.12091e-06
4.4725e-07
4.46726e-07
4.46912e-07
4.48964e-07
4.56511e-07
4.78557e-07
5.35187e-07
6.75861e-07
1.14954e-06
4.34594e-07
4.34273e-07
4.34652e-07
4.3701e-07
4.4517e-07
4.68419e-07
5.27316e-07
6.73133e-07
1.1619e-06
4.34143e-07
4.33972e-07
4.34449e-07
4.3688e-07
4.45102e-07
4.68411e-07
5.27374e-07
6.73235e-07
1.16136e-06
4.4553e-07
4.45536e-07
4.46084e-07
4.48405e-07
4.56172e-07
4.78429e-07
5.35279e-07
6.76128e-07
1.14819e-06
4.76671e-07
4.76827e-07
4.77365e-07
4.79324e-07
4.85935e-07
5.05501e-07
5.56807e-07
6.85173e-07
1.11899e-06
5.4507e-07
5.45328e-07
5.45608e-07
5.4607e-07
5.47413e-07
5.51994e-07
5.66348e-07
6.05875e-07
7.07718e-07
1.0707e-06
6.93171e-07
6.9339e-07
6.93587e-07
6.93811e-07
6.94293e-07
6.95929e-07
7.01481e-07
7.17858e-07
7.6241e-07
9.63218e-07
1.16813e-06
1.16451e-06
1.16168e-06
1.15937e-06
1.15706e-06
1.15292e-06
1.14051e-06
1.10054e-06
9.9379e-07
8.03905e-07
1.16261e-06
1.16021e-06
1.15823e-06
1.15618e-06
1.15224e-06
1.14002e-06
1.10033e-06
9.93871e-07
8.04512e-07
6.999e-07
6.98327e-07
6.97261e-07
6.96806e-07
6.97752e-07
7.02783e-07
7.18699e-07
7.62706e-07
9.64602e-07
5.49474e-07
5.48516e-07
5.48106e-07
5.48826e-07
5.52972e-07
5.67032e-07
6.06302e-07
7.07694e-07
1.07202e-06
4.79039e-07
4.78382e-07
4.78361e-07
4.79945e-07
4.86371e-07
5.05954e-07
5.5737e-07
6.8516e-07
1.11733e-06
4.46395e-07
4.45968e-07
4.46235e-07
4.4842e-07
4.56267e-07
4.78934e-07
5.36437e-07
6.76279e-07
1.13603e-06
4.33705e-07
4.33462e-07
4.33917e-07
4.36427e-07
4.44955e-07
4.68989e-07
5.29006e-07
6.73487e-07
1.14232e-06
4.33302e-07
4.33188e-07
4.33732e-07
4.36307e-07
4.44892e-07
4.68984e-07
5.29063e-07
6.73576e-07
1.14185e-06
4.44838e-07
4.44877e-07
4.45469e-07
4.479e-07
4.55952e-07
4.7882e-07
5.36529e-07
6.76509e-07
1.13475e-06
4.76208e-07
4.76373e-07
4.7693e-07
4.7895e-07
4.85731e-07
5.05646e-07
5.57397e-07
6.8543e-07
1.11547e-06
5.44902e-07
5.45145e-07
5.45411e-07
5.45869e-07
5.4723e-07
5.51882e-07
5.6639e-07
6.06104e-07
7.07869e-07
1.07e-06
6.93253e-07
6.93442e-07
6.93616e-07
6.93823e-07
6.94299e-07
6.95944e-07
7.01531e-07
7.1795e-07
7.62481e-07
9.6316e-07
1.16788e-06
1.16441e-06
1.16168e-06
1.15944e-06
1.15717e-06
1.15304e-06
1.14059e-06
1.10055e-06
9.93774e-07
8.04058e-07
1.16214e-06
1.15993e-06
1.15809e-06
1.15614e-06
1.15226e-06
1.14004e-06
1.10032e-06
9.93886e-07
8.04649e-07
6.99445e-07
6.98034e-07
6.97071e-07
6.96687e-07
6.97692e-07
7.02783e-07
7.18749e-07
7.62759e-07
9.64457e-07
5.49058e-07
5.48222e-07
5.47889e-07
5.48672e-07
5.529e-07
5.67085e-07
6.06486e-07
7.07839e-07
1.07151e-06
4.78577e-07
4.78019e-07
4.78067e-07
4.7973e-07
4.86293e-07
5.06117e-07
5.57801e-07
6.85423e-07
1.11578e-06
4.45896e-07
4.45551e-07
4.45883e-07
4.48167e-07
4.56218e-07
4.79275e-07
5.37253e-07
6.7667e-07
1.13173e-06
4.33209e-07
4.33028e-07
4.33544e-07
4.36163e-07
4.4494e-07
4.69462e-07
5.30081e-07
6.73921e-07
1.13634e-06
4.32849e-07
4.32781e-07
4.33374e-07
4.36052e-07
4.44882e-07
4.69458e-07
5.30135e-07
6.74002e-07
1.1359e-06
4.4449e-07
4.44554e-07
4.45177e-07
4.47684e-07
4.55926e-07
4.79171e-07
5.37341e-07
6.76881e-07
1.13051e-06
4.76006e-07
4.76175e-07
4.76742e-07
4.78802e-07
4.85694e-07
5.05829e-07
5.57828e-07
6.85678e-07
1.11401e-06
5.44886e-07
5.45111e-07
5.45361e-07
5.4581e-07
5.47179e-07
5.51875e-07
5.66478e-07
6.06295e-07
7.0801e-07
1.06963e-06
6.93375e-07
6.93534e-07
6.93683e-07
6.93871e-07
6.94337e-07
6.95986e-07
7.01593e-07
7.18032e-07
7.62552e-07
9.63144e-07
1.16752e-06
1.16421e-06
1.16158e-06
1.15942e-06
1.1572e-06
1.15309e-06
1.14063e-06
1.10055e-06
9.9377e-07
8.04198e-07
1.16166e-06
1.15963e-06
1.15792e-06
1.15606e-06
1.15225e-06
1.14005e-06
1.10032e-06
9.939e-07
8.04762e-07
6.99033e-07
6.97769e-07
6.96903e-07
6.96584e-07
6.97641e-07
7.0278e-07
7.18786e-07
7.62806e-07
9.64315e-07
5.48739e-07
5.48009e-07
5.47744e-07
5.4858e-07
5.52871e-07
5.67141e-07
6.06624e-07
7.07959e-07
1.07115e-06
4.78266e-07
4.77793e-07
4.77899e-07
4.79623e-07
4.8628e-07
5.06257e-07
5.58097e-07
6.85631e-07
1.11497e-06
4.4559e-07
4.45313e-07
4.45698e-07
4.48053e-07
4.5624e-07
4.79534e-07
5.37768e-07
6.76981e-07
1.13004e-06
4.32924e-07
4.32796e-07
4.33357e-07
4.36053e-07
4.44991e-07
4.69805e-07
5.30745e-07
6.74286e-07
1.13411e-06
4.32602e-07
4.32571e-07
4.33202e-07
4.35951e-07
4.44938e-07
4.69803e-07
5.30795e-07
6.74363e-07
1.1337e-06
4.44322e-07
4.44404e-07
4.45049e-07
4.47606e-07
4.55968e-07
4.79437e-07
5.37852e-07
6.7718e-07
1.1289e-06
4.75935e-07
4.76103e-07
4.76676e-07
4.7876e-07
4.8572e-07
5.05986e-07
5.58122e-07
6.8588e-07
1.11333e-06
5.44939e-07
5.45145e-07
5.45379e-07
5.45817e-07
5.47187e-07
5.51907e-07
5.66566e-07
6.06441e-07
7.08136e-07
1.06944e-06
6.93507e-07
6.93637e-07
6.93763e-07
6.93934e-07
6.94389e-07
6.96037e-07
7.01653e-07
7.18102e-07
7.62629e-07
9.63176e-07
1.16711e-06
1.16395e-06
1.16144e-06
1.15935e-06
1.15719e-06
1.15311e-06
1.14064e-06
1.10055e-06
9.93765e-07
8.04321e-07
1.16119e-06
1.15933e-06
1.15775e-06
1.15598e-06
1.15222e-06
1.14005e-06
1.10031e-06
9.93904e-07
8.04853e-07
6.98655e-07
6.97524e-07
6.96746e-07
6.96488e-07
6.97593e-07
7.02773e-07
7.18813e-07
7.62849e-07
9.64166e-07
5.48475e-07
5.47839e-07
5.47633e-07
5.48515e-07
5.52854e-07
5.67184e-07
6.06726e-07
7.08059e-07
1.07084e-06
4.78035e-07
4.77636e-07
4.77792e-07
4.79563e-07
4.86287e-07
5.06361e-07
5.58295e-07
6.85789e-07
1.11447e-06
4.45386e-07
4.45167e-07
4.45595e-07
4.48002e-07
4.56277e-07
4.79713e-07
5.38089e-07
6.77204e-07
1.12922e-06
4.3275e-07
4.32665e-07
4.33263e-07
4.36011e-07
4.45052e-07
4.70037e-07
5.31146e-07
6.74546e-07
1.13311e-06
4.32463e-07
4.32462e-07
4.33121e-07
4.35918e-07
4.45003e-07
4.70035e-07
5.31194e-07
6.7462e-07
1.13273e-06
4.44243e-07
4.44339e-07
4.44999e-07
4.47588e-07
4.56025e-07
4.79623e-07
5.38168e-07
6.77399e-07
1.12817e-06
4.75925e-07
4.76092e-07
4.76665e-07
4.78763e-07
4.85765e-07
5.06107e-07
5.58319e-07
6.86043e-07
1.11299e-06
5.45024e-07
5.45209e-07
5.45425e-07
5.45851e-07
5.47218e-07
5.51952e-07
5.66642e-07
6.06552e-07
7.08263e-07
1.06937e-06
6.9364e-07
6.93742e-07
6.93846e-07
6.94e-07
6.94444e-07
6.96088e-07
7.01708e-07
7.18163e-07
7.62705e-07
9.63216e-07
1.16666e-06
1.16366e-06
1.16126e-06
1.15926e-06
1.15714e-06
1.1531e-06
1.14064e-06
1.10054e-06
9.9375e-07
8.04425e-07
1.16075e-06
1.15903e-06
1.15757e-06
1.15588e-06
1.15217e-06
1.14003e-06
1.10029e-06
9.93889e-07
8.04921e-07
6.98307e-07
6.97296e-07
6.96599e-07
6.96397e-07
6.97545e-07
7.02762e-07
7.18833e-07
7.62888e-07
9.64005e-07
5.48246e-07
5.47693e-07
5.4754e-07
5.48462e-07
5.5284e-07
5.67217e-07
6.06804e-07
7.08147e-07
1.07056e-06
4.7785e-07
4.77516e-07
4.77714e-07
4.79524e-07
4.86296e-07
5.06436e-07
5.58432e-07
6.85914e-07
1.11409e-06
4.45236e-07
4.45067e-07
4.45531e-07
4.47976e-07
4.5631e-07
4.79834e-07
5.38292e-07
6.77365e-07
1.12872e-06
4.32633e-07
4.32584e-07
4.33211e-07
4.35997e-07
4.45102e-07
4.70189e-07
5.31392e-07
6.74728e-07
1.13255e-06
4.32377e-07
4.32401e-07
4.33082e-07
4.35911e-07
4.45057e-07
4.70187e-07
5.31438e-07
6.74804e-07
1.13221e-06
4.44208e-07
4.44314e-07
4.44984e-07
4.47595e-07
4.56076e-07
4.7975e-07
5.38368e-07
6.77569e-07
1.12779e-06
4.75943e-07
4.76106e-07
4.76678e-07
4.78783e-07
4.85809e-07
5.06197e-07
5.58456e-07
6.86197e-07
1.11284e-06
5.45117e-07
5.45283e-07
5.45482e-07
5.45896e-07
5.47257e-07
5.51997e-07
5.66706e-07
6.06639e-07
7.08385e-07
1.06934e-06
6.93767e-07
6.93844e-07
6.93927e-07
6.94066e-07
6.94499e-07
6.96137e-07
7.01758e-07
7.18218e-07
7.62778e-07
9.63242e-07
1.16619e-06
1.16335e-06
1.16106e-06
1.15914e-06
1.15708e-06
1.15307e-06
1.14062e-06
1.10052e-06
9.93721e-07
8.0451e-07
1.16032e-06
1.15875e-06
1.15739e-06
1.15577e-06
1.15212e-06
1.13999e-06
1.10025e-06
9.93854e-07
8.04966e-07
6.97987e-07
6.97083e-07
6.9646e-07
6.96311e-07
6.97499e-07
7.02749e-07
7.18849e-07
7.62925e-07
9.63832e-07
5.48044e-07
5.47563e-07
5.47457e-07
5.48415e-07
5.52827e-07
5.67241e-07
6.06868e-07
7.08228e-07
1.07028e-06
4.77695e-07
4.77415e-07
4.77651e-07
4.79494e-07
4.86302e-07
5.06489e-07
5.58534e-07
6.86022e-07
1.11376e-06
4.45117e-07
4.44991e-07
4.45485e-07
4.4796e-07
4.56335e-07
4.79917e-07
5.3843e-07
6.77494e-07
1.12835e-06
4.32547e-07
4.32529e-07
4.33179e-07
4.35992e-07
4.4514e-07
4.7029e-07
5.31553e-07
6.74872e-07
1.13218e-06
4.32318e-07
4.32364e-07
4.33062e-07
4.35913e-07
4.45099e-07
4.70288e-07
5.31596e-07
6.74956e-07
1.13189e-06
4.44193e-07
4.44307e-07
4.44985e-07
4.47609e-07
4.56119e-07
4.79839e-07
5.38504e-07
6.77728e-07
1.12761e-06
4.75973e-07
4.76131e-07
4.76701e-07
4.78809e-07
4.8585e-07
5.06266e-07
5.58559e-07
6.86344e-07
1.11276e-06
5.45212e-07
5.45359e-07
5.45542e-07
5.45943e-07
5.47298e-07
5.5204e-07
5.66761e-07
6.06713e-07
7.085e-07
1.06931e-06
6.93886e-07
6.93941e-07
6.94005e-07
6.94128e-07
6.94551e-07
6.96184e-07
7.01805e-07
7.18268e-07
7.62847e-07
9.63251e-07
1.16572e-06
1.16302e-06
1.16085e-06
1.159e-06
1.157e-06
1.15302e-06
1.14058e-06
1.10048e-06
9.93674e-07
8.04573e-07
1.15992e-06
1.15847e-06
1.1572e-06
1.15566e-06
1.15205e-06
1.13994e-06
1.1002e-06
9.93795e-07
8.04987e-07
6.97692e-07
6.96886e-07
6.9633e-07
6.96229e-07
6.97453e-07
7.02734e-07
7.18864e-07
7.62961e-07
9.63658e-07
5.47864e-07
5.47446e-07
5.47382e-07
5.48372e-07
5.52813e-07
5.67261e-07
6.06925e-07
7.08307e-07
1.07001e-06
4.77559e-07
4.77328e-07
4.77597e-07
4.79467e-07
4.86306e-07
5.06531e-07
5.58618e-07
6.86124e-07
1.11345e-06
4.45018e-07
4.44928e-07
4.45448e-07
4.47947e-07
4.56353e-07
4.79977e-07
5.38535e-07
6.77613e-07
1.12804e-06
4.32479e-07
4.32487e-07
4.33157e-07
4.3599e-07
4.45169e-07
4.70361e-07
5.31669e-07
6.75005e-07
1.13191e-06
4.32275e-07
4.32338e-07
4.3305e-07
4.35918e-07
4.45131e-07
4.7036e-07
5.31711e-07
6.75107e-07
1.13172e-06
4.44187e-07
4.44309e-07
4.44991e-07
4.47625e-07
4.56154e-07
4.79905e-07
5.38606e-07
6.77883e-07
1.1275e-06
4.76006e-07
4.7616e-07
4.76726e-07
4.78836e-07
4.85886e-07
5.06322e-07
5.58642e-07
6.8648e-07
1.11269e-06
5.45304e-07
5.45433e-07
5.45601e-07
5.4599e-07
5.47339e-07
5.5208e-07
5.66811e-07
6.06779e-07
7.08607e-07
1.06927e-06
6.93997e-07
6.94031e-07
6.94078e-07
6.94188e-07
6.94601e-07
6.96228e-07
7.01848e-07
7.18314e-07
7.6291e-07
9.63239e-07
1.16523e-06
1.16268e-06
1.16061e-06
1.15884e-06
1.15689e-06
1.15295e-06
1.14052e-06
1.10042e-06
9.93608e-07
8.04613e-07
1.15954e-06
1.1582e-06
1.15702e-06
1.15553e-06
1.15196e-06
1.13987e-06
1.10012e-06
9.93709e-07
8.04952e-07
6.97424e-07
6.96703e-07
6.96209e-07
6.96151e-07
6.97409e-07
7.02719e-07
7.18876e-07
7.62996e-07
9.63485e-07
5.47702e-07
5.4734e-07
5.47314e-07
5.48333e-07
5.528e-07
5.67279e-07
6.06978e-07
7.0839e-07
1.06975e-06
4.7744e-07
4.77252e-07
4.7755e-07
4.79443e-07
4.86308e-07
5.06566e-07
5.58692e-07
6.8623e-07
1.11317e-06
4.44933e-07
4.44875e-07
4.45417e-07
4.47937e-07
4.56368e-07
4.80025e-07
5.38624e-07
6.77737e-07
1.12778e-06
4.32422e-07
4.32453e-07
4.33139e-07
4.35989e-07
4.45191e-07
4.70417e-07
5.31764e-07
6.75152e-07
1.13174e-06
4.32239e-07
4.32318e-07
4.33042e-07
4.35924e-07
4.45157e-07
4.70416e-07
5.31803e-07
6.75262e-07
1.1316e-06
4.44187e-07
4.44313e-07
4.45e-07
4.4764e-07
4.56183e-07
4.79958e-07
5.38691e-07
6.78027e-07
1.1274e-06
4.7604e-07
4.7619e-07
4.76752e-07
4.78862e-07
4.85919e-07
5.06371e-07
5.58715e-07
6.86606e-07
1.11261e-06
5.4539e-07
5.45504e-07
5.45658e-07
5.46036e-07
5.47378e-07
5.52119e-07
5.66856e-07
6.06839e-07
7.08708e-07
1.0692e-06
6.94099e-07
6.94115e-07
6.94146e-07
6.94244e-07
6.94648e-07
6.9627e-07
7.01889e-07
7.18356e-07
7.62966e-07
9.63204e-07
1.16475e-06
1.16233e-06
1.16036e-06
1.15867e-06
1.15677e-06
1.15286e-06
1.14044e-06
1.10034e-06
9.93519e-07
8.04596e-07
1.15918e-06
1.15794e-06
1.15683e-06
1.1554e-06
1.15186e-06
1.13979e-06
1.10002e-06
9.93573e-07
8.04675e-07
6.97179e-07
6.96534e-07
6.96096e-07
6.96078e-07
6.97367e-07
7.02703e-07
7.18884e-07
7.63023e-07
9.63297e-07
5.47558e-07
5.47243e-07
5.47252e-07
5.48297e-07
5.52788e-07
5.67294e-07
6.07027e-07
7.08478e-07
1.06952e-06
4.77334e-07
4.77183e-07
4.77507e-07
4.79422e-07
4.8631e-07
5.06597e-07
5.58761e-07
6.86349e-07
1.11295e-06
4.44859e-07
4.44828e-07
4.4539e-07
4.47927e-07
4.5638e-07
4.80067e-07
5.38704e-07
6.77882e-07
1.12762e-06
4.32373e-07
4.32424e-07
4.33124e-07
4.35989e-07
4.45211e-07
4.70464e-07
5.31847e-07
6.75304e-07
1.1316e-06
4.3221e-07
4.32302e-07
4.33036e-07
4.35929e-07
4.45179e-07
4.70463e-07
5.31884e-07
6.75408e-07
1.13148e-06
4.44189e-07
4.4432e-07
4.4501e-07
4.47655e-07
4.5621e-07
4.80004e-07
5.38766e-07
6.78161e-07
1.12729e-06
4.76074e-07
4.76219e-07
4.76777e-07
4.78887e-07
4.8595e-07
5.06415e-07
5.58781e-07
6.86724e-07
1.11251e-06
5.45472e-07
5.45571e-07
5.45712e-07
5.4608e-07
5.47415e-07
5.52156e-07
5.66899e-07
6.06895e-07
7.08799e-07
1.06912e-06
6.94192e-07
6.94192e-07
6.9421e-07
6.94296e-07
6.94692e-07
6.96309e-07
7.01926e-07
7.18393e-07
7.63006e-07
9.63116e-07
1.16427e-06
1.16198e-06
1.1601e-06
1.15848e-06
1.15663e-06
1.15275e-06
1.14034e-06
1.10024e-06
9.93388e-07
8.04333e-07
1.15884e-06
1.15769e-06
1.15665e-06
1.15526e-06
1.15175e-06
1.13968e-06
1.0999e-06
9.93294e-07
8.03172e-07
6.96956e-07
6.96379e-07
6.95991e-07
6.96009e-07
6.97326e-07
7.02687e-07
7.18886e-07
7.63026e-07
9.63012e-07
5.47428e-07
5.47156e-07
5.47195e-07
5.48264e-07
5.52778e-07
5.67309e-07
6.07074e-07
7.08579e-07
1.06937e-06
4.77241e-07
4.77121e-07
4.77468e-07
4.79403e-07
4.86312e-07
5.06627e-07
5.58827e-07
6.86486e-07
1.11281e-06
4.44794e-07
4.44787e-07
4.45366e-07
4.47919e-07
4.56391e-07
4.80105e-07
5.38778e-07
6.78028e-07
1.12747e-06
4.32331e-07
4.32398e-07
4.33111e-07
4.35989e-07
4.45228e-07
4.70506e-07
5.31923e-07
6.75447e-07
1.13146e-06
4.32185e-07
4.32289e-07
4.33031e-07
4.35934e-07
4.45198e-07
4.70504e-07
5.31956e-07
6.75543e-07
1.13134e-06
4.44192e-07
4.44327e-07
4.45019e-07
4.4767e-07
4.56234e-07
4.80045e-07
5.38834e-07
6.78285e-07
1.12716e-06
4.76105e-07
4.76246e-07
4.76802e-07
4.7891e-07
4.85978e-07
5.06455e-07
5.58843e-07
6.86832e-07
1.11239e-06
5.45547e-07
5.45633e-07
5.45763e-07
5.46122e-07
5.47451e-07
5.52191e-07
5.66939e-07
6.06947e-07
7.08878e-07
1.06901e-06
6.94275e-07
6.94262e-07
6.94268e-07
6.94344e-07
6.94733e-07
6.96346e-07
7.01961e-07
7.18423e-07
7.63004e-07
9.62859e-07
1.16379e-06
1.16162e-06
1.15983e-06
1.15827e-06
1.15648e-06
1.15262e-06
1.14022e-06
1.10011e-06
9.93118e-07
8.02829e-07
1.15852e-06
1.15745e-06
1.15646e-06
1.15512e-06
1.15163e-06
1.13957e-06
1.09975e-06
9.9257e-07
7.96183e-07
6.96753e-07
6.96236e-07
6.95893e-07
6.95944e-07
6.97287e-07
7.02669e-07
7.18877e-07
7.62951e-07
9.62219e-07
5.47311e-07
5.47077e-07
5.47143e-07
5.48233e-07
5.52767e-07
5.67323e-07
6.07115e-07
7.08668e-07
1.06918e-06
4.77157e-07
4.77066e-07
4.77433e-07
4.79385e-07
4.86313e-07
5.06653e-07
5.58888e-07
6.86615e-07
1.11265e-06
4.44736e-07
4.4475e-07
4.45345e-07
4.47912e-07
4.56402e-07
4.8014e-07
5.38847e-07
6.78164e-07
1.12731e-06
4.32294e-07
4.32376e-07
4.331e-07
4.35989e-07
4.45243e-07
4.70544e-07
5.31993e-07
6.75579e-07
1.1313e-06
4.32164e-07
4.32277e-07
4.33027e-07
4.35938e-07
4.45216e-07
4.70542e-07
5.32023e-07
6.75667e-07
1.13119e-06
4.44197e-07
4.44334e-07
4.45029e-07
4.47683e-07
4.56256e-07
4.80084e-07
5.38897e-07
6.78399e-07
1.12702e-06
4.76135e-07
4.76272e-07
4.76825e-07
4.78933e-07
4.86005e-07
5.06493e-07
5.589e-07
6.86931e-07
1.11226e-06
5.45616e-07
5.4569e-07
5.4581e-07
5.46161e-07
5.47485e-07
5.52224e-07
5.66977e-07
6.06993e-07
7.08939e-07
1.06885e-06
6.9435e-07
6.94325e-07
6.94321e-07
6.94389e-07
6.94771e-07
6.9638e-07
7.01992e-07
7.1844e-07
7.62922e-07
9.62074e-07
1.16332e-06
1.16126e-06
1.15956e-06
1.15806e-06
1.15631e-06
1.15248e-06
1.14009e-06
1.09995e-06
9.92395e-07
7.95811e-07
1.1582e-06
1.1572e-06
1.15627e-06
1.15496e-06
1.1515e-06
1.13944e-06
1.09953e-06
9.90867e-07
8.05966e-07
6.96562e-07
6.96101e-07
6.95799e-07
6.9588e-07
6.97246e-07
7.02647e-07
7.18855e-07
7.6277e-07
9.60362e-07
5.47203e-07
5.47003e-07
5.47094e-07
5.48204e-07
5.52757e-07
5.67335e-07
6.07153e-07
7.0874e-07
1.06892e-06
4.77081e-07
4.77014e-07
4.77401e-07
4.79369e-07
4.86315e-07
5.06679e-07
5.58945e-07
6.86734e-07
1.11247e-06
4.44684e-07
4.44716e-07
4.45325e-07
4.47905e-07
4.56411e-07
4.80173e-07
5.38912e-07
6.78291e-07
1.12714e-06
4.3226e-07
4.32355e-07
4.3309e-07
4.35989e-07
4.45258e-07
4.7058e-07
5.3206e-07
6.75703e-07
1.13113e-06
4.32145e-07
4.32267e-07
4.33024e-07
4.35943e-07
4.45232e-07
4.70578e-07
5.32087e-07
6.75783e-07
1.13103e-06
4.44201e-07
4.44341e-07
4.45038e-07
4.47696e-07
4.56278e-07
4.8012e-07
5.38957e-07
6.78506e-07
1.12686e-06
4.76164e-07
4.76298e-07
4.76847e-07
4.78955e-07
4.86031e-07
5.06529e-07
5.58954e-07
6.87022e-07
1.11211e-06
5.45682e-07
5.45745e-07
5.45856e-07
5.46199e-07
5.47518e-07
5.52256e-07
5.67013e-07
6.07036e-07
7.08984e-07
1.06861e-06
6.9442e-07
6.94384e-07
6.94371e-07
6.94431e-07
6.94807e-07
6.96412e-07
7.0202e-07
7.18447e-07
7.62736e-07
9.60239e-07
1.16285e-06
1.16089e-06
1.15927e-06
1.15783e-06
1.15612e-06
1.15232e-06
1.13995e-06
1.09973e-06
9.90678e-07
8.05556e-07
1.1579e-06
1.15696e-06
1.15607e-06
1.1548e-06
1.15136e-06
1.1393e-06
1.09934e-06
9.90015e-07
7.97428e-07
6.96384e-07
6.95973e-07
6.95708e-07
6.95818e-07
6.97205e-07
7.02624e-07
7.18836e-07
7.62667e-07
9.5943e-07
5.47103e-07
5.46933e-07
5.47047e-07
5.48175e-07
5.52747e-07
5.67345e-07
6.07187e-07
7.08811e-07
1.0687e-06
4.77011e-07
4.76966e-07
4.7737e-07
4.79353e-07
4.86316e-07
5.06702e-07
5.58999e-07
6.86845e-07
1.11229e-06
4.44636e-07
4.44684e-07
4.45306e-07
4.47899e-07
4.56421e-07
4.80203e-07
5.38973e-07
6.78408e-07
1.12695e-06
4.3223e-07
4.32337e-07
4.33081e-07
4.35989e-07
4.45272e-07
4.70613e-07
5.32122e-07
6.75817e-07
1.13095e-06
4.32127e-07
4.32258e-07
4.33021e-07
4.35948e-07
4.45248e-07
4.70612e-07
5.32147e-07
6.7589e-07
1.13085e-06
4.44206e-07
4.44348e-07
4.45047e-07
4.47709e-07
4.56298e-07
4.80155e-07
5.39014e-07
6.78604e-07
1.12669e-06
4.76191e-07
4.76322e-07
4.76869e-07
4.78976e-07
4.86056e-07
5.06564e-07
5.59005e-07
6.87106e-07
1.11194e-06
5.45743e-07
5.45797e-07
5.45899e-07
5.46236e-07
5.4755e-07
5.52287e-07
5.67048e-07
6.07077e-07
7.09031e-07
1.0684e-06
6.94483e-07
6.94438e-07
6.94417e-07
6.94471e-07
6.94841e-07
6.96442e-07
7.02048e-07
7.18458e-07
7.62631e-07
9.59326e-07
1.16237e-06
1.16052e-06
1.15897e-06
1.15759e-06
1.15592e-06
1.15215e-06
1.13979e-06
1.09953e-06
9.89834e-07
7.97134e-07
1.15762e-06
1.15673e-06
1.15588e-06
1.15464e-06
1.15121e-06
1.13915e-06
1.09917e-06
9.89661e-07
7.95659e-07
6.96225e-07
6.95857e-07
6.95625e-07
6.95759e-07
6.97165e-07
7.026e-07
7.18824e-07
7.62644e-07
9.59084e-07
5.47014e-07
5.46871e-07
5.47005e-07
5.48149e-07
5.52736e-07
5.67353e-07
6.07219e-07
7.08882e-07
1.06851e-06
4.76949e-07
4.76924e-07
4.77342e-07
4.79339e-07
4.86317e-07
5.06723e-07
5.59048e-07
6.86942e-07
1.11209e-06
4.44594e-07
4.44657e-07
4.45289e-07
4.47893e-07
4.56428e-07
4.80231e-07
5.39028e-07
6.7851e-07
1.12675e-06
4.32204e-07
4.32321e-07
4.33072e-07
4.3599e-07
4.45284e-07
4.70644e-07
5.32178e-07
6.75916e-07
1.13075e-06
4.32112e-07
4.3225e-07
4.33019e-07
4.35952e-07
4.45263e-07
4.70642e-07
5.32201e-07
6.75983e-07
1.13066e-06
4.44211e-07
4.44355e-07
4.45056e-07
4.4772e-07
4.56316e-07
4.80186e-07
5.39065e-07
6.78689e-07
1.12651e-06
4.76216e-07
4.76344e-07
4.76889e-07
4.78996e-07
4.86079e-07
5.06596e-07
5.59052e-07
6.87181e-07
1.11177e-06
5.45799e-07
5.45844e-07
5.45939e-07
5.4627e-07
5.4758e-07
5.52316e-07
5.67081e-07
6.07117e-07
7.09082e-07
1.06823e-06
6.94538e-07
6.94486e-07
6.94458e-07
6.94506e-07
6.94872e-07
6.9647e-07
7.02073e-07
7.18477e-07
7.62608e-07
9.58988e-07
1.1619e-06
1.16015e-06
1.15867e-06
1.15735e-06
1.15572e-06
1.15197e-06
1.13962e-06
1.09935e-06
9.89489e-07
7.95402e-07
1.15735e-06
1.15651e-06
1.15569e-06
1.15447e-06
1.15106e-06
1.139e-06
1.09901e-06
9.89442e-07
7.95278e-07
6.96083e-07
6.95753e-07
6.95549e-07
6.95704e-07
6.97127e-07
7.02576e-07
7.18815e-07
7.62653e-07
9.589e-07
5.46936e-07
5.46816e-07
5.46966e-07
5.48125e-07
5.52726e-07
5.6736e-07
6.07248e-07
7.08949e-07
1.06832e-06
4.76894e-07
4.76886e-07
4.77317e-07
4.79325e-07
4.86317e-07
5.06741e-07
5.59091e-07
6.87028e-07
1.11189e-06
4.44557e-07
4.44632e-07
4.45274e-07
4.47888e-07
4.56435e-07
4.80255e-07
5.39077e-07
6.78599e-07
1.12655e-06
4.3218e-07
4.32306e-07
4.33065e-07
4.3599e-07
4.45295e-07
4.70671e-07
5.32228e-07
6.76002e-07
1.13055e-06
4.32099e-07
4.32243e-07
4.33017e-07
4.35955e-07
4.45275e-07
4.70669e-07
5.32248e-07
6.76063e-07
1.13046e-06
4.44216e-07
4.44361e-07
4.45064e-07
4.47731e-07
4.56333e-07
4.80214e-07
5.3911e-07
6.78763e-07
1.12632e-06
4.76239e-07
4.76365e-07
4.76908e-07
4.79014e-07
4.861e-07
5.06624e-07
5.59095e-07
6.87246e-07
1.11159e-06
5.45849e-07
5.45887e-07
5.45975e-07
5.46301e-07
5.47608e-07
5.52343e-07
5.67111e-07
6.07155e-07
7.09132e-07
1.06806e-06
6.94586e-07
6.94528e-07
6.94495e-07
6.94538e-07
6.949e-07
6.96495e-07
7.02097e-07
7.18499e-07
7.62618e-07
9.58808e-07
1.16144e-06
1.15978e-06
1.15837e-06
1.1571e-06
1.1555e-06
1.15178e-06
1.13945e-06
1.09918e-06
9.89278e-07
7.9504e-07
1.15709e-06
1.15629e-06
1.15551e-06
1.15431e-06
1.15091e-06
1.13885e-06
1.09884e-06
9.89249e-07
7.95124e-07
6.95957e-07
6.9566e-07
6.95481e-07
6.95655e-07
6.97091e-07
7.02552e-07
7.18806e-07
7.62669e-07
9.58744e-07
5.46867e-07
5.46766e-07
5.46932e-07
5.48103e-07
5.52716e-07
5.67365e-07
6.07273e-07
7.09008e-07
1.06813e-06
4.76846e-07
4.76852e-07
4.77295e-07
4.79313e-07
4.86316e-07
5.06757e-07
5.59128e-07
6.87101e-07
1.11169e-06
4.44525e-07
4.4461e-07
4.45261e-07
4.47882e-07
4.56441e-07
4.80277e-07
5.3912e-07
6.78675e-07
1.12634e-06
4.3216e-07
4.32293e-07
4.33058e-07
4.3599e-07
4.45304e-07
4.70695e-07
5.32271e-07
6.76075e-07
1.13034e-06
4.32088e-07
4.32236e-07
4.33015e-07
4.35958e-07
4.45286e-07
4.70693e-07
5.3229e-07
6.76131e-07
1.13026e-06
4.4422e-07
4.44367e-07
4.45071e-07