/*--------------------------------*- C++ -*----------------------------------*\
| =========                 |                                                 |
| \\      /  F ield         | OpenFOAM: The Open Source CFD Toolbox           |
|  \\    /   O peration     | Version:  2.3.1                                 |
|   \\  /    A nd           | Web:      www.OpenFOAM.org                      |
|    \\/     M anipulation  |                                                 |
\*---------------------------------------------------------------------------*/
FoamFile
{
    version     2.0;
    format      ascii;
    class       volScalarField;
    location    "10";
    object      k;
}
// * * * * * * * * * * * * * * * * * * * * * * * * * * * * * * * * * * * * * //

dimensions      [0 2 -2 0 0 0 0];

internalField   nonuniform List<scalar> 
37784
(
7.12195e-06
7.10879e-06
7.09865e-06
7.08922e-06
7.0736e-06
7.02516e-06
6.84446e-06
6.2605e-06
5.99078e-06
6.82708e-06
6.81272e-06
6.80256e-06
6.79479e-06
6.78754e-06
6.77518e-06
6.73428e-06
6.57204e-06
6.02852e-06
5.91521e-06
6.02389e-06
6.01233e-06
6.00462e-06
5.99879e-06
5.99356e-06
5.98642e-06
5.96629e-06
5.87972e-06
5.55466e-06
5.83476e-06
4.32079e-06
4.31598e-06
4.31347e-06
4.3109e-06
4.30799e-06
4.30467e-06
4.30049e-06
4.29202e-06
4.29061e-06
5.13685e-06
1.47546e-05
1.47667e-05
1.47762e-05
1.47791e-05
1.47586e-05
1.46495e-05
1.42365e-05
1.29013e-05
8.88879e-06
1.40621e-05
1.40675e-05
1.40736e-05
1.40789e-05
1.40798e-05
1.40619e-05
1.39642e-05
1.35737e-05
1.22604e-05
8.40094e-06
1.2273e-05
1.22699e-05
1.22692e-05
1.22696e-05
1.2269e-05
1.226e-05
1.22067e-05
1.19617e-05
1.10347e-05
8.1625e-06
7.67101e-06
7.66411e-06
7.65984e-06
7.65654e-06
7.65352e-06
7.64974e-06
7.64041e-06
7.60239e-06
7.46964e-06
7.43415e-06
1.8296e-05
1.8299e-05
1.83012e-05
1.82955e-05
1.82571e-05
1.81007e-05
1.75704e-05
1.59306e-05
1.02789e-05
1.74163e-05
1.74112e-05
1.74094e-05
1.74082e-05
1.74017e-05
1.73676e-05
1.72238e-05
1.67071e-05
1.50407e-05
9.3989e-06
1.51822e-05
1.517e-05
1.51624e-05
1.51572e-05
1.51511e-05
1.51309e-05
1.50422e-05
1.4684e-05
1.34162e-05
8.98767e-06
8.87079e-06
8.8565e-06
8.8464e-06
8.83868e-06
8.83212e-06
8.82418e-06
8.80391e-06
8.72388e-06
8.44389e-06
8.01622e-06
2.03301e-05
2.03272e-05
2.03244e-05
2.03117e-05
2.02575e-05
2.00638e-05
1.94545e-05
1.76343e-05
1.10935e-05
1.93272e-05
1.93158e-05
1.93093e-05
1.93039e-05
1.92914e-05
1.92432e-05
1.9062e-05
1.84555e-05
1.65627e-05
9.91248e-06
1.68174e-05
1.68002e-05
1.67886e-05
1.678e-05
1.67696e-05
1.67391e-05
1.66186e-05
1.61696e-05
1.46618e-05
9.34782e-06
9.48182e-06
9.46317e-06
9.4496e-06
9.43924e-06
9.43037e-06
9.41871e-06
9.38649e-06
9.2632e-06
8.85313e-06
8.17846e-06
2.16012e-05
2.15939e-05
2.15868e-05
2.15675e-05
2.14988e-05
2.12722e-05
2.05978e-05
1.86414e-05
1.15655e-05
2.05041e-05
2.04882e-05
2.04781e-05
2.04693e-05
2.04514e-05
2.03901e-05
2.01765e-05
1.94975e-05
1.7437e-05
1.01893e-05
1.77933e-05
1.77725e-05
1.7758e-05
1.77469e-05
1.77326e-05
1.76924e-05
1.75435e-05
1.70201e-05
1.53349e-05
9.51324e-06
9.82464e-06
9.80321e-06
9.78739e-06
9.77524e-06
9.76461e-06
9.74952e-06
9.70603e-06
9.54575e-06
9.03975e-06
8.22342e-06
2.24211e-05
2.24103e-05
2.23997e-05
2.23743e-05
2.22916e-05
2.20347e-05
2.1301e-05
1.92277e-05
1.18124e-05
2.12475e-05
2.12284e-05
2.12156e-05
2.1204e-05
2.11812e-05
2.1108e-05
2.08658e-05
2.01257e-05
1.79364e-05
1.03366e-05
1.83827e-05
1.83595e-05
1.83431e-05
1.83299e-05
1.83123e-05
1.82635e-05
1.80902e-05
1.75072e-05
1.56937e-05
9.5907e-06
1.00212e-05
9.99814e-06
9.98091e-06
9.96758e-06
9.95562e-06
9.9376e-06
9.88471e-06
9.6965e-06
9.12764e-06
8.23778e-06
2.29548e-05
2.29416e-05
2.29279e-05
2.28969e-05
2.28011e-05
2.25152e-05
2.17245e-05
1.95413e-05
1.18948e-05
2.17183e-05
2.16971e-05
2.16825e-05
2.16687e-05
2.16415e-05
2.15576e-05
2.12902e-05
2.04984e-05
1.8209e-05
1.04084e-05
1.87352e-05
1.87107e-05
1.86931e-05
1.86785e-05
1.86582e-05
1.86019e-05
1.84087e-05
1.77799e-05
1.58773e-05
9.62618e-06
1.01317e-05
1.01077e-05
1.00897e-05
1.00757e-05
1.00628e-05
1.00425e-05
9.98247e-06
9.77501e-06
9.16852e-06
8.2437e-06
2.33005e-05
2.32856e-05
2.32695e-05
2.32333e-05
2.31252e-05
2.28114e-05
2.19639e-05
1.96689e-05
1.18375e-05
2.20127e-05
2.19905e-05
2.19748e-05
2.19592e-05
2.19283e-05
2.1835e-05
2.15457e-05
2.07099e-05
1.83425e-05
1.04344e-05
1.89407e-05
1.89159e-05
1.88977e-05
1.88822e-05
1.88599e-05
1.87977e-05
1.85888e-05
1.7926e-05
1.59644e-05
9.64129e-06
1.01913e-05
1.01671e-05
1.01488e-05
1.01344e-05
1.01209e-05
1.00989e-05
1.0034e-05
9.81414e-06
9.18677e-06
8.24688e-06
2.35207e-05
2.35049e-05
2.34868e-05
2.34461e-05
2.33264e-05
2.2986e-05
2.20817e-05
1.96669e-05
1.16381e-05
2.21923e-05
2.217e-05
2.21537e-05
2.2137e-05
2.2103e-05
2.20015e-05
2.16934e-05
2.08204e-05
1.8391e-05
1.04305e-05
1.9056e-05
1.90315e-05
1.90134e-05
1.89975e-05
1.89736e-05
1.89069e-05
1.86861e-05
1.79991e-05
1.59999e-05
9.64646e-06
1.02219e-05
1.01979e-05
1.01796e-05
1.01651e-05
1.01513e-05
1.01282e-05
1.00599e-05
9.83255e-06
9.19434e-06
8.24899e-06
2.36573e-05
2.3641e-05
2.36216e-05
2.35769e-05
2.34467e-05
2.30816e-05
2.21219e-05
1.95808e-05
1.12935e-05
2.22979e-05
2.22762e-05
2.22598e-05
2.22423e-05
2.22059e-05
2.20977e-05
2.17737e-05
2.08696e-05
1.83906e-05
1.04067e-05
1.91171e-05
1.90936e-05
1.90759e-05
1.906e-05
1.90351e-05
1.8965e-05
1.87355e-05
1.80315e-05
1.60092e-05
9.64678e-06
1.02365e-05
1.0213e-05
1.01949e-05
1.01805e-05
1.01666e-05
1.01428e-05
1.00724e-05
9.84054e-06
9.19701e-06
8.2506e-06
1.02155e-05
1.01977e-05
1.01835e-05
1.01698e-05
1.0146e-05
1.00751e-05
9.84234e-06
9.19776e-06
8.25484e-06
1.89882e-05
1.90034e-05
1.90135e-05
1.90083e-05
1.8952e-05
1.87298e-05
1.80267e-05
1.6004e-05
9.65661e-06
2.22804e-05
2.22721e-05
2.22636e-05
2.22344e-05
2.21294e-05
2.1801e-05
2.0881e-05
1.83734e-05
1.03897e-05
2.3718e-05
2.37012e-05
2.36835e-05
2.36394e-05
2.35048e-05
2.31227e-05
2.21186e-05
1.94638e-05
1.08943e-05
2.43619e-05
2.4341e-05
2.43184e-05
2.4266e-05
2.41171e-05
2.37177e-05
2.27193e-05
2.02061e-05
2.46057e-05
2.4585e-05
2.4561e-05
2.45053e-05
2.43515e-05
2.39497e-05
2.29722e-05
2.05771e-05
2.46035e-05
2.45851e-05
2.45618e-05
2.45062e-05
2.4352e-05
2.39496e-05
2.29711e-05
2.05738e-05
2.43658e-05
2.43485e-05
2.43261e-05
2.42724e-05
2.41214e-05
2.37195e-05
2.27179e-05
2.01992e-05
2.37389e-05
2.37228e-05
2.37025e-05
2.36543e-05
2.35151e-05
2.31281e-05
2.21183e-05
1.94575e-05
1.08853e-05
2.2357e-05
2.23362e-05
2.23202e-05
2.23023e-05
2.2264e-05
2.21503e-05
2.18136e-05
2.08846e-05
1.83673e-05
1.03755e-05
1.9147e-05
1.91247e-05
1.91077e-05
1.90921e-05
1.90667e-05
1.89941e-05
1.87584e-05
1.80428e-05
1.60068e-05
9.64523e-06
1.02426e-05
1.02198e-05
1.02021e-05
1.01879e-05
1.0174e-05
1.01499e-05
1.00782e-05
9.84359e-06
9.19759e-06
8.25196e-06
1.02157e-05
1.01992e-05
1.01859e-05
1.01727e-05
1.0149e-05
1.00775e-05
9.84331e-06
9.1978e-06
8.2562e-06
1.90093e-05
1.90235e-05
1.90325e-05
1.9026e-05
1.89672e-05
1.874e-05
1.80287e-05
1.59977e-05
9.65484e-06
2.23132e-05
2.23062e-05
2.22975e-05
2.22668e-05
2.21571e-05
2.18186e-05
2.08797e-05
1.83463e-05
1.03714e-05
2.37638e-05
2.37484e-05
2.37304e-05
2.36837e-05
2.35415e-05
2.31413e-05
2.20973e-05
1.93591e-05
1.07291e-05
2.44167e-05
2.43972e-05
2.4374e-05
2.43178e-05
2.4158e-05
2.37305e-05
2.26585e-05
1.99169e-05
1.11549e-05
2.46657e-05
2.46459e-05
2.46209e-05
2.45607e-05
2.43937e-05
2.39571e-05
2.28837e-05
2.01714e-05
1.13811e-05
2.46641e-05
2.46462e-05
2.46218e-05
2.45616e-05
2.43942e-05
2.39569e-05
2.28825e-05
2.01685e-05
1.13769e-05
2.44219e-05
2.4405e-05
2.43816e-05
2.43241e-05
2.41621e-05
2.3732e-05
2.26566e-05
1.99106e-05
1.11463e-05
2.37855e-05
2.37698e-05
2.37489e-05
2.36981e-05
2.35514e-05
2.31462e-05
2.20965e-05
1.93518e-05
1.07172e-05
2.23877e-05
2.23682e-05
2.23528e-05
2.23349e-05
2.22952e-05
2.21773e-05
2.18306e-05
2.08831e-05
1.83399e-05
1.03571e-05
1.91595e-05
1.91387e-05
1.91226e-05
1.91074e-05
1.90818e-05
1.90076e-05
1.87675e-05
1.80442e-05
1.60005e-05
9.64386e-06
1.02444e-05
1.02223e-05
1.02052e-05
1.01913e-05
1.01775e-05
1.01532e-05
1.00807e-05
9.84455e-06
9.19746e-06
8.25319e-06
1.02141e-05
1.01988e-05
1.01863e-05
1.01737e-05
1.01503e-05
1.00785e-05
9.84349e-06
9.19774e-06
8.25742e-06
1.90213e-05
1.90345e-05
1.90426e-05
1.9035e-05
1.89743e-05
1.87436e-05
1.80269e-05
1.59913e-05
9.65347e-06
2.233e-05
2.23242e-05
2.23155e-05
2.22836e-05
2.21705e-05
2.18244e-05
2.08724e-05
1.83237e-05
1.03617e-05
2.37882e-05
2.37743e-05
2.37563e-05
2.37075e-05
2.35594e-05
2.31453e-05
2.20726e-05
1.92855e-05
1.0669e-05
2.44468e-05
2.44289e-05
2.44053e-05
2.43462e-05
2.41777e-05
2.37283e-05
2.26033e-05
1.97339e-05
1.08499e-05
2.46992e-05
2.46807e-05
2.46551e-05
2.45913e-05
2.44136e-05
2.39498e-05
2.28069e-05
1.99159e-05
1.09275e-05
2.46984e-05
2.46813e-05
2.46561e-05
2.45922e-05
2.44141e-05
2.39495e-05
2.28056e-05
1.99132e-05
1.09242e-05
2.44532e-05
2.44369e-05
2.4413e-05
2.43524e-05
2.41817e-05
2.37296e-05
2.26012e-05
1.97276e-05
1.08414e-05
2.38105e-05
2.37954e-05
2.37742e-05
2.37215e-05
2.35689e-05
2.31499e-05
2.20716e-05
1.92778e-05
1.06568e-05
2.24018e-05
2.23837e-05
2.23692e-05
2.23514e-05
2.23109e-05
2.21898e-05
2.1836e-05
2.08757e-05
1.83176e-05
1.03479e-05
1.91628e-05
1.91436e-05
1.91285e-05
1.91138e-05
1.90883e-05
1.9013e-05
1.87701e-05
1.8042e-05
1.59942e-05
9.64311e-06
1.02439e-05
1.02228e-05
1.02062e-05
1.01926e-05
1.01791e-05
1.01548e-05
1.00817e-05
9.84476e-06
9.19726e-06
8.25434e-06
1.02116e-05
1.01975e-05
1.01859e-05
1.01739e-05
1.01508e-05
1.00788e-05
9.84348e-06
9.19776e-06
8.2585e-06
1.90287e-05
1.90411e-05
1.90483e-05
1.90398e-05
1.89776e-05
1.87443e-05
1.80241e-05
1.59861e-05
9.65236e-06
2.23379e-05
2.23332e-05
2.23247e-05
2.22918e-05
2.21763e-05
2.18249e-05
2.08643e-05
1.83077e-05
1.03564e-05
2.38e-05
2.37876e-05
2.37698e-05
2.37196e-05
2.3567e-05
2.3143e-05
2.20517e-05
1.92392e-05
1.06463e-05
2.4462e-05
2.44456e-05
2.44221e-05
2.43608e-05
2.41857e-05
2.37206e-05
2.25616e-05
1.96296e-05
1.07647e-05
2.47167e-05
2.46994e-05
2.46736e-05
2.46071e-05
2.44214e-05
2.39379e-05
2.27504e-05
1.97721e-05
1.08045e-05
2.47164e-05
2.47002e-05
2.46747e-05
2.4608e-05
2.44219e-05
2.39376e-05
2.27492e-05
1.97696e-05
1.08015e-05
2.44693e-05
2.44539e-05
2.44296e-05
2.43668e-05
2.41896e-05
2.37219e-05
2.25595e-05
1.96234e-05
1.07566e-05
2.38227e-05
2.38084e-05
2.37872e-05
2.37331e-05
2.35763e-05
2.31475e-05
2.20507e-05
1.92316e-05
1.06344e-05
2.24068e-05
2.23902e-05
2.23765e-05
2.2359e-05
2.2318e-05
2.21948e-05
2.1836e-05
2.08676e-05
1.83019e-05
1.03433e-05
1.91617e-05
1.91439e-05
1.91299e-05
1.91159e-05
1.90904e-05
1.90146e-05
1.87698e-05
1.80388e-05
1.59891e-05
9.64273e-06
1.02425e-05
1.02221e-05
1.02061e-05
1.0193e-05
1.01797e-05
1.01555e-05
1.00822e-05
9.84479e-06
9.19717e-06
8.25539e-06
1.02088e-05
1.01959e-05
1.01851e-05
1.01736e-05
1.01509e-05
1.0079e-05
9.84345e-06
9.19785e-06
8.25944e-06
1.9034e-05
1.90455e-05
1.90519e-05
1.90425e-05
1.89792e-05
1.87441e-05
1.80216e-05
1.59823e-05
9.65139e-06
2.23414e-05
2.23376e-05
2.23292e-05
2.22957e-05
2.21784e-05
2.18234e-05
2.08576e-05
1.8297e-05
1.03531e-05
2.3805e-05
2.3794e-05
2.37763e-05
2.37252e-05
2.35696e-05
2.31389e-05
2.20363e-05
1.9212e-05
1.06364e-05
2.44686e-05
2.44537e-05
2.44304e-05
2.43677e-05
2.4188e-05
2.37124e-05
2.25333e-05
1.95734e-05
1.07375e-05
2.47247e-05
2.47087e-05
2.46829e-05
2.46145e-05
2.44232e-05
2.39265e-05
2.27129e-05
1.96959e-05
1.07667e-05
2.47249e-05
2.47097e-05
2.4684e-05
2.46155e-05
2.44236e-05
2.39263e-05
2.27118e-05
1.96935e-05
1.07639e-05
2.44767e-05
2.44621e-05
2.44378e-05
2.43735e-05
2.41917e-05
2.37136e-05
2.25313e-05
1.95674e-05
1.07298e-05
2.38278e-05
2.38143e-05
2.37932e-05
2.37382e-05
2.35785e-05
2.31433e-05
2.20354e-05
1.92047e-05
1.06251e-05
2.2407e-05
2.23918e-05
2.2379e-05
2.2362e-05
2.23207e-05
2.21962e-05
2.18342e-05
2.08609e-05
1.82916e-05
1.0341e-05
1.91585e-05
1.91422e-05
1.91291e-05
1.91158e-05
1.90906e-05
1.90145e-05
1.87686e-05
1.80359e-05
1.59852e-05
9.64262e-06
1.02404e-05
1.0221e-05
1.02056e-05
1.01929e-05
1.01799e-05
1.01558e-05
1.00824e-05
9.8448e-06
9.19714e-06
8.25635e-06
1.0206e-05
1.01941e-05
1.01841e-05
1.01732e-05
1.01508e-05
1.0079e-05
9.84343e-06
9.19794e-06
8.26022e-06
1.90383e-05
1.90489e-05
1.90545e-05
1.90444e-05
1.89801e-05
1.87438e-05
1.80197e-05
1.59795e-05
9.65044e-06
2.23427e-05
2.23397e-05
2.23314e-05
2.22975e-05
2.21789e-05
2.18216e-05
2.08527e-05
1.82902e-05
1.03507e-05
2.38064e-05
2.37966e-05
2.37793e-05
2.37275e-05
2.35699e-05
2.3135e-05
2.20259e-05
1.91966e-05
1.06312e-05
2.44707e-05
2.44571e-05
2.44341e-05
2.43705e-05
2.41877e-05
2.37056e-05
2.25153e-05
1.95439e-05
1.07268e-05
2.47275e-05
2.47127e-05
2.46871e-05
2.46175e-05
2.44224e-05
2.39176e-05
2.26896e-05
1.96568e-05
1.07526e-05
2.47281e-05
2.47139e-05
2.46883e-05
2.46185e-05
2.44229e-05
2.39175e-05
2.26885e-05
1.96545e-05
1.075e-05
2.44793e-05
2.44655e-05
2.44414e-05
2.43761e-05
2.41913e-05
2.37068e-05
2.25135e-05
1.95383e-05
1.07196e-05
2.3829e-05
2.38163e-05
2.37955e-05
2.374e-05
2.35784e-05
2.31393e-05
2.20252e-05
1.91896e-05
1.06208e-05
2.24049e-05
2.23911e-05
2.23791e-05
2.23626e-05
2.23213e-05
2.21959e-05
2.1832e-05
2.0856e-05
1.82849e-05
1.03397e-05
1.91544e-05
1.91395e-05
1.91275e-05
1.91148e-05
1.909e-05
1.90138e-05
1.87673e-05
1.80336e-05
1.5982e-05
9.64284e-06
1.02379e-05
1.02195e-05
1.02048e-05
1.01925e-05
1.01798e-05
1.01559e-05
1.00825e-05
9.84479e-06
9.19711e-06
8.2572e-06
1.02033e-05
1.01924e-05
1.01831e-05
1.01727e-05
1.01506e-05
1.0079e-05
9.84337e-06
9.19796e-06
8.26084e-06
1.90422e-05
1.90519e-05
1.90567e-05
1.9046e-05
1.89809e-05
1.87435e-05
1.80183e-05
1.59773e-05
9.64944e-06
2.23432e-05
2.23407e-05
2.23325e-05
2.22983e-05
2.21788e-05
2.182e-05
2.08491e-05
1.82856e-05
1.03488e-05
2.38062e-05
2.37974e-05
2.37804e-05
2.37283e-05
2.35694e-05
2.31318e-05
2.20192e-05
1.91877e-05
1.06281e-05
2.44705e-05
2.44582e-05
2.44355e-05
2.43713e-05
2.41866e-05
2.37005e-05
2.25043e-05
1.95286e-05
1.07217e-05
2.47276e-05
2.4714e-05
2.46887e-05
2.46184e-05
2.44209e-05
2.39112e-05
2.26757e-05
1.9637e-05
1.07463e-05
2.47285e-05
2.47153e-05
2.46899e-05
2.46193e-05
2.44214e-05
2.39111e-05
2.26747e-05
1.96349e-05
1.07438e-05
2.44794e-05
2.44665e-05
2.44426e-05
2.43768e-05
2.41901e-05
2.37017e-05
2.25026e-05
1.95232e-05
1.0715e-05
2.38284e-05
2.38165e-05
2.3796e-05
2.37403e-05
2.35776e-05
2.3136e-05
2.20186e-05
1.91809e-05
1.06186e-05
2.24018e-05
2.23893e-05
2.23782e-05
2.23621e-05
2.23209e-05
2.21951e-05
2.18301e-05
2.08524e-05
1.82802e-05
1.03393e-05
1.91501e-05
1.91366e-05
1.91255e-05
1.91134e-05
1.9089e-05
1.90128e-05
1.8766e-05
1.80317e-05
1.59793e-05
9.64311e-06
1.02353e-05
1.02178e-05
1.02037e-05
1.01919e-05
1.01796e-05
1.01558e-05
1.00825e-05
9.84474e-06
9.19702e-06
8.25791e-06
1.02007e-05
1.01906e-05
1.0182e-05
1.01721e-05
1.01504e-05
1.00789e-05
9.84325e-06
9.19787e-06
8.2613e-06
1.90458e-05
1.90546e-05
1.90588e-05
1.90474e-05
1.89816e-05
1.87434e-05
1.80173e-05
1.59754e-05
9.64837e-06
2.23434e-05
2.23413e-05
2.23332e-05
2.22987e-05
2.21787e-05
2.18188e-05
2.08466e-05
1.82823e-05
1.0347e-05
2.38053e-05
2.37974e-05
2.37808e-05
2.37285e-05
2.35686e-05
2.31295e-05
2.20148e-05
1.91822e-05
1.06256e-05
2.44693e-05
2.4458e-05
2.44358e-05
2.43713e-05
2.41854e-05
2.36969e-05
2.24976e-05
1.95202e-05
1.07185e-05
2.47266e-05
2.4714e-05
2.4689e-05
2.46183e-05
2.44194e-05
2.39069e-05
2.26675e-05
1.96267e-05
1.07427e-05
2.47277e-05
2.47153e-05
2.46902e-05
2.46192e-05
2.44199e-05
2.39068e-05
2.26666e-05
1.96246e-05
1.07406e-05
2.44783e-05
2.44662e-05
2.44426e-05
2.43765e-05
2.41888e-05
2.36982e-05
2.24961e-05
1.95149e-05
1.07126e-05
2.38269e-05
2.38157e-05
2.37956e-05
2.37398e-05
2.35765e-05
2.31335e-05
2.20143e-05
1.91752e-05
1.06177e-05
2.23984e-05
2.2387e-05
2.23767e-05
2.23611e-05
2.23201e-05
2.21941e-05
2.18284e-05
2.08499e-05
1.82765e-05
1.03391e-05
1.91458e-05
1.91336e-05
1.91233e-05
1.91119e-05
1.90879e-05
1.90118e-05
1.87648e-05
1.80301e-05
1.59769e-05
9.64328e-06
1.02326e-05
1.0216e-05
1.02025e-05
1.01912e-05
1.01792e-05
1.01556e-05
1.00824e-05
9.8446e-06
9.19683e-06
8.25848e-06
1.01982e-05
1.0189e-05
1.0181e-05
1.01715e-05
1.015e-05
1.00787e-05
9.84302e-06
9.19766e-06
8.26161e-06
1.90492e-05
1.90573e-05
1.90608e-05
1.90487e-05
1.89823e-05
1.87434e-05
1.80165e-05
1.59737e-05
9.64722e-06
2.23435e-05
2.23418e-05
2.23337e-05
2.2299e-05
2.21785e-05
2.18178e-05
2.08447e-05
1.82796e-05
1.03452e-05
2.38043e-05
2.37972e-05
2.37808e-05
2.37283e-05
2.3568e-05
2.31278e-05
2.20118e-05
1.91784e-05
1.06235e-05
2.44678e-05
2.44575e-05
2.44356e-05
2.43709e-05
2.41843e-05
2.36945e-05
2.24934e-05
1.95151e-05
1.07161e-05
2.47251e-05
2.47134e-05
2.46887e-05
2.46178e-05
2.44181e-05
2.3904e-05
2.26625e-05
1.96207e-05
1.07404e-05
2.47264e-05
2.47148e-05
2.46899e-05
2.46188e-05
2.44186e-05
2.39039e-05
2.26617e-05
1.96186e-05
1.07386e-05
2.44768e-05
2.44654e-05
2.44422e-05
2.4376e-05
2.41876e-05
2.36957e-05
2.2492e-05
1.95095e-05
1.07114e-05
2.38251e-05
2.38146e-05
2.37949e-05
2.37392e-05
2.35754e-05
2.31317e-05
2.20113e-05
1.9171e-05
1.06172e-05
2.2395e-05
2.23847e-05
2.23751e-05
2.236e-05
2.23192e-05
2.21931e-05
2.1827e-05
2.08479e-05
1.82734e-05
1.03389e-05
1.91418e-05
1.91306e-05
1.91212e-05
1.91104e-05
1.90867e-05
1.90109e-05
1.87637e-05
1.80287e-05
1.59747e-05
9.64333e-06
1.02298e-05
1.0214e-05
1.02013e-05
1.01904e-05
1.01787e-05
1.01553e-05
1.00821e-05
9.84435e-06
9.19654e-06
8.25892e-06
1.01958e-05
1.01873e-05
1.01799e-05
1.01708e-05
1.01496e-05
1.00784e-05
9.84268e-06
9.19729e-06
8.26175e-06
1.90525e-05
1.90598e-05
1.90627e-05
1.905e-05
1.89831e-05
1.87435e-05
1.80157e-05
1.59721e-05
9.64606e-06
2.23438e-05
2.23423e-05
2.23342e-05
2.22993e-05
2.21784e-05
2.18171e-05
2.08432e-05
1.82772e-05
1.03434e-05
2.38034e-05
2.37968e-05
2.37807e-05
2.37282e-05
2.35674e-05
2.31265e-05
2.20096e-05
1.91754e-05
1.06216e-05
2.44663e-05
2.44568e-05
2.44352e-05
2.43705e-05
2.41835e-05
2.36927e-05
2.24906e-05
1.95114e-05
1.07142e-05
2.47235e-05
2.47126e-05
2.46882e-05
2.46173e-05
2.44171e-05
2.3902e-05
2.26593e-05
1.96166e-05
1.07386e-05
2.4725e-05
2.4714e-05
2.46894e-05
2.46182e-05
2.44176e-05
2.39019e-05
2.26585e-05
1.96142e-05
1.07374e-05
2.44752e-05
2.44644e-05
2.44415e-05
2.43753e-05
2.41866e-05
2.3694e-05
2.24893e-05
1.95054e-05
1.07108e-05
2.38232e-05
2.38134e-05
2.3794e-05
2.37384e-05
2.35745e-05
2.31303e-05
2.20092e-05
1.91677e-05
1.06167e-05
2.23918e-05
2.23825e-05
2.23735e-05
2.23589e-05
2.23183e-05
2.21922e-05
2.18259e-05
2.08462e-05
1.82707e-05
1.03386e-05
1.9138e-05
1.91279e-05
1.91192e-05
1.91089e-05
1.90856e-05
1.90099e-05
1.87627e-05
1.80275e-05
1.59726e-05
9.64326e-06
1.0227e-05
1.0212e-05
1.01999e-05
1.01895e-05
1.01781e-05
1.01549e-05
1.00818e-05
9.84399e-06
9.19613e-06
8.25919e-06
1.01936e-05
1.01858e-05
1.01788e-05
1.01701e-05
1.01491e-05
1.0078e-05
9.84222e-06
9.19676e-06
8.26151e-06
1.90557e-05
1.90623e-05
1.90645e-05
1.90513e-05
1.89838e-05
1.87436e-05
1.80151e-05
1.59704e-05
9.6449e-06
2.23442e-05
2.23429e-05
2.23346e-05
2.22996e-05
2.21784e-05
2.18165e-05
2.08418e-05
1.82748e-05
1.03418e-05
2.38026e-05
2.37965e-05
2.37806e-05
2.37281e-05
2.3567e-05
2.31255e-05
2.20078e-05
1.91726e-05
1.06198e-05
2.4465e-05
2.44561e-05
2.44348e-05
2.43701e-05
2.41828e-05
2.36914e-05
2.24885e-05
1.95082e-05
1.07125e-05
2.4722e-05
2.47117e-05
2.46877e-05
2.46168e-05
2.44162e-05
2.39005e-05
2.2657e-05
1.9613e-05
1.07376e-05
2.47235e-05
2.47131e-05
2.46889e-05
2.46177e-05
2.44168e-05
2.39005e-05
2.26562e-05
1.96105e-05
1.07367e-05
2.44736e-05
2.44634e-05
2.44408e-05
2.43747e-05
2.41858e-05
2.36926e-05
2.24872e-05
1.9502e-05
1.07101e-05
2.38215e-05
2.38122e-05
2.37932e-05
2.37377e-05
2.35737e-05
2.31291e-05
2.20075e-05
1.91647e-05
1.06162e-05
2.23888e-05
2.23803e-05
2.2372e-05
2.23577e-05
2.23174e-05
2.21914e-05
2.18248e-05
2.08448e-05
1.82682e-05
1.03382e-05
1.91344e-05
1.91252e-05
1.91173e-05
1.91075e-05
1.90846e-05
1.9009e-05
1.87618e-05
1.80263e-05
1.59706e-05
9.64302e-06
1.02241e-05
1.021e-05
1.01984e-05
1.01885e-05
1.01774e-05
1.01544e-05
1.00813e-05
9.84351e-06
9.19559e-06
8.25907e-06
1.01915e-05
1.01842e-05
1.01777e-05
1.01693e-05
1.01486e-05
1.00775e-05
9.84165e-06
9.19592e-06
8.25962e-06
1.90587e-05
1.90646e-05
1.90662e-05
1.90525e-05
1.89845e-05
1.87437e-05
1.80144e-05
1.59685e-05
9.64364e-06
2.23447e-05
2.23434e-05
2.23351e-05
2.22999e-05
2.21783e-05
2.1816e-05
2.08406e-05
1.82723e-05
1.03403e-05
2.3802e-05
2.37963e-05
2.37805e-05
2.37279e-05
2.35666e-05
2.31247e-05
2.20062e-05
1.91697e-05
1.06184e-05
2.44639e-05
2.44555e-05
2.44345e-05
2.43698e-05
2.41822e-05
2.36904e-05
2.24867e-05
1.95049e-05
1.07115e-05
2.47207e-05
2.4711e-05
2.46872e-05
2.46163e-05
2.44156e-05
2.38994e-05
2.26551e-05
1.96095e-05
1.07367e-05
2.47223e-05
2.47124e-05
2.46884e-05
2.46172e-05
2.44161e-05
2.38994e-05
2.26544e-05
1.96072e-05
1.07359e-05
2.44721e-05
2.44625e-05
2.44401e-05
2.43741e-05
2.41851e-05
2.36916e-05
2.24856e-05
1.9499e-05
1.07094e-05
2.38198e-05
2.38111e-05
2.37924e-05
2.3737e-05
2.3573e-05
2.31281e-05
2.2006e-05
1.9162e-05
1.06156e-05
2.2386e-05
2.23783e-05
2.23706e-05
2.23567e-05
2.23166e-05
2.21906e-05
2.18239e-05
2.08435e-05
1.82658e-05
1.03377e-05
1.91311e-05
1.91228e-05
1.91155e-05
1.91062e-05
1.90836e-05
1.90082e-05
1.87609e-05
1.80251e-05
1.59686e-05
9.64244e-06
1.02213e-05
1.02079e-05
1.01969e-05
1.01874e-05
1.01765e-05
1.01537e-05
1.00807e-05
9.84291e-06
9.19478e-06
8.25728e-06
1.01895e-05
1.01828e-05
1.01766e-05
1.01685e-05
1.01479e-05
1.00769e-05
9.84093e-06
9.1942e-06
8.24933e-06
1.90616e-05
1.90668e-05
1.90678e-05
1.90536e-05
1.89852e-05
1.87438e-05
1.80137e-05
1.59661e-05
9.64174e-06
2.23453e-05
2.2344e-05
2.23356e-05
2.23002e-05
2.21784e-05
2.18156e-05
2.08394e-05
1.82695e-05
1.03393e-05
2.38015e-05
2.37962e-05
2.37805e-05
2.37279e-05
2.35663e-05
2.3124e-05
2.20048e-05
1.91666e-05
1.06175e-05
2.44629e-05
2.4455e-05
2.44342e-05
2.43695e-05
2.41817e-05
2.36895e-05
2.24851e-05
1.95017e-05
1.07106e-05
2.47195e-05
2.47103e-05
2.46868e-05
2.4616e-05
2.4415e-05
2.38984e-05
2.26535e-05
1.96064e-05
1.07358e-05
2.47211e-05
2.47117e-05
2.46879e-05
2.46168e-05
2.44155e-05
2.38985e-05
2.26528e-05
1.96043e-05
1.07351e-05
2.44708e-05
2.44616e-05
2.44395e-05
2.43736e-05
2.41845e-05
2.36907e-05
2.24841e-05
1.94963e-05
1.07086e-05
2.38183e-05
2.381e-05
2.37916e-05
2.37364e-05
2.35724e-05
2.31273e-05
2.20047e-05
1.91595e-05
1.06148e-05
2.23834e-05
2.23765e-05
2.23692e-05
2.23557e-05
2.23158e-05
2.21899e-05
2.18231e-05
2.08422e-05
1.82635e-05
1.0337e-05
1.91281e-05
1.91205e-05
1.91138e-05
1.91049e-05
1.90826e-05
1.90073e-05
1.876e-05
1.8024e-05
1.59664e-05
9.64072e-06
1.02185e-05
1.02058e-05
1.01953e-05
1.01862e-05
1.01756e-05
1.0153e-05
1.008e-05
9.84217e-06
9.19311e-06
8.24698e-06
1.01876e-05
1.01813e-05
1.01755e-05
1.01677e-05
1.01472e-05
1.00762e-05
9.83999e-06
9.18973e-06
8.2014e-06
1.90643e-05
1.90689e-05
1.90694e-05
1.90547e-05
1.89858e-05
1.8744e-05
1.80131e-05
1.59633e-05
9.63644e-06
2.23459e-05
2.23446e-05
2.23361e-05
2.23005e-05
2.21784e-05
2.18152e-05
2.08383e-05
1.82666e-05
1.03381e-05
2.38012e-05
2.37961e-05
2.37805e-05
2.37278e-05
2.35661e-05
2.31234e-05
2.20035e-05
1.91636e-05
1.06165e-05
2.44621e-05
2.44545e-05
2.44339e-05
2.43693e-05
2.41813e-05
2.36888e-05
2.24837e-05
1.94987e-05
1.07096e-05
2.47185e-05
2.47097e-05
2.46864e-05
2.46156e-05
2.44146e-05
2.38976e-05
2.26521e-05
1.96034e-05
1.07348e-05
2.47201e-05
2.4711e-05
2.46875e-05
2.46164e-05
2.4415e-05
2.38977e-05
2.26515e-05
1.96015e-05
1.07341e-05
2.44696e-05
2.44608e-05
2.4439e-05
2.43731e-05
2.41839e-05
2.36899e-05
2.24828e-05
1.94937e-05
1.07077e-05
2.38169e-05
2.3809e-05
2.37909e-05
2.37358e-05
2.35718e-05
2.31265e-05
2.20035e-05
1.91571e-05
1.0614e-05
2.23811e-05
2.23747e-05
2.2368e-05
2.23548e-05
2.23151e-05
2.21892e-05
2.18223e-05
2.08411e-05
1.82612e-05
1.03359e-05
1.91253e-05
1.91184e-05
1.91122e-05
1.91037e-05
1.90816e-05
1.90065e-05
1.87592e-05
1.80228e-05
1.59639e-05
9.63548e-06
1.02158e-05
1.02037e-05
1.01937e-05
1.01849e-05
1.01746e-05
1.01522e-05
1.00793e-05
9.84121e-06
9.18865e-06
8.19885e-06
1.01858e-05
1.01799e-05
1.01744e-05
1.01667e-05
1.01464e-05
1.00754e-05
9.83873e-06
9.17921e-06
7.99832e-06
1.90669e-05
1.90709e-05
1.90709e-05
1.90558e-05
1.89865e-05
1.87441e-05
1.80124e-05
1.596e-05
9.62404e-06
2.23465e-05
2.23452e-05
2.23366e-05
2.23009e-05
2.21785e-05
2.18149e-05
2.08372e-05
1.82638e-05
1.03364e-05
2.3801e-05
2.37961e-05
2.37806e-05
2.37278e-05
2.35659e-05
2.31228e-05
2.20023e-05
1.91607e-05
1.06154e-05
2.44614e-05
2.44542e-05
2.44337e-05
2.43691e-05
2.4181e-05
2.36881e-05
2.24824e-05
1.94958e-05
1.07085e-05
2.47177e-05
2.47092e-05
2.46861e-05
2.46153e-05
2.44141e-05
2.38969e-05
2.26507e-05
1.96007e-05
1.07338e-05
2.47191e-05
2.47104e-05
2.46871e-05
2.46161e-05
2.44146e-05
2.38969e-05
2.26502e-05
1.95989e-05
1.07331e-05
2.44685e-05
2.446e-05
2.44384e-05
2.43727e-05
2.41834e-05
2.36892e-05
2.24816e-05
1.94913e-05
1.07067e-05
2.38156e-05
2.38081e-05
2.37902e-05
2.37353e-05
2.35712e-05
2.31258e-05
2.20023e-05
1.91549e-05
1.0613e-05
2.23789e-05
2.23731e-05
2.23668e-05
2.23538e-05
2.23143e-05
2.21885e-05
2.18215e-05
2.08399e-05
1.8259e-05
1.03344e-05
1.91226e-05
1.91164e-05
1.91106e-05
1.91025e-05
1.90807e-05
1.90057e-05
1.87583e-05
1.80216e-05
1.59607e-05
9.62322e-06
1.0213e-05
1.02015e-05
1.0192e-05
1.01836e-05
1.01736e-05
1.01512e-05
1.00784e-05
9.83991e-06
9.17805e-06
7.99561e-06
1.0184e-05
1.01785e-05
1.01733e-05
1.01658e-05
1.01456e-05
1.00746e-05
9.8376e-06
9.17395e-06
7.94173e-06
1.90694e-05
1.90728e-05
1.90724e-05
1.90569e-05
1.89872e-05
1.87444e-05
1.80119e-05
1.59573e-05
9.61781e-06
2.23472e-05
2.23458e-05
2.23371e-05
2.23012e-05
2.21786e-05
2.18146e-05
2.08363e-05
1.82612e-05
1.0335e-05
2.38008e-05
2.37961e-05
2.37807e-05
2.37279e-05
2.35658e-05
2.31223e-05
2.20011e-05
1.91581e-05
1.06142e-05
2.44608e-05
2.44539e-05
2.44335e-05
2.43689e-05
2.41807e-05
2.36875e-05
2.24811e-05
1.94932e-05
1.07073e-05
2.47169e-05
2.47087e-05
2.46858e-05
2.46151e-05
2.44138e-05
2.38962e-05
2.26495e-05
1.95981e-05
1.07326e-05
2.47183e-05
2.47099e-05
2.46867e-05
2.46158e-05
2.44142e-05
2.38963e-05
2.26491e-05
1.95965e-05
1.07319e-05
2.44674e-05
2.44593e-05
2.44379e-05
2.43723e-05
2.4183e-05
2.36885e-05
2.24805e-05
1.9489e-05
1.07056e-05
2.38143e-05
2.38072e-05
2.37896e-05
2.37348e-05
2.35707e-05
2.31251e-05
2.20012e-05
1.91528e-05
1.0612e-05
2.23768e-05
2.23716e-05
2.23656e-05
2.2353e-05
2.23136e-05
2.21879e-05
2.18208e-05
2.08388e-05
1.82569e-05
1.0333e-05
1.91201e-05
1.91144e-05
1.91092e-05
1.91013e-05
1.90798e-05
1.90049e-05
1.87575e-05
1.80205e-05
1.59582e-05
9.61712e-06
1.02102e-05
1.01993e-05
1.01903e-05
1.01822e-05
1.01724e-05
1.01502e-05
1.00775e-05
9.83873e-06
9.17283e-06
7.93978e-06
1.01823e-05
1.01771e-05
1.01721e-05
1.01648e-05
1.01447e-05
1.00737e-05
9.83658e-06
9.17176e-06
7.92998e-06
1.90717e-05
1.90746e-05
1.90737e-05
1.90579e-05
1.89879e-05
1.87447e-05
1.80116e-05
1.59554e-05
9.6155e-06
2.23478e-05
2.23464e-05
2.23376e-05
2.23016e-05
2.21788e-05
2.18144e-05
2.08355e-05
1.8259e-05
1.03337e-05
2.38007e-05
2.37962e-05
2.37808e-05
2.37279e-05
2.35657e-05
2.31219e-05
2.20001e-05
1.91557e-05
1.06129e-05
2.44603e-05
2.44536e-05
2.44334e-05
2.43688e-05
2.41804e-05
2.36869e-05
2.24801e-05
1.94908e-05
1.0706e-05
2.47162e-05
2.47083e-05
2.46855e-05
2.46148e-05
2.44134e-05
2.38956e-05
2.26484e-05
1.95958e-05
1.07313e-05
2.47175e-05
2.47094e-05
2.46864e-05
2.46155e-05
2.44138e-05
2.38957e-05
2.2648e-05
1.95944e-05
1.07308e-05
2.44665e-05
2.44587e-05
2.44375e-05
2.43719e-05
2.41826e-05
2.36879e-05
2.24795e-05
1.9487e-05
1.07045e-05
2.38132e-05
2.38064e-05
2.3789e-05
2.37343e-05
2.35702e-05
2.31245e-05
2.20003e-05
1.91509e-05
1.06109e-05
2.23749e-05
2.23701e-05
2.23645e-05
2.23522e-05
2.2313e-05
2.21873e-05
2.18201e-05
2.08379e-05
1.82551e-05
1.03319e-05
1.91178e-05
1.91126e-05
1.91078e-05
1.91003e-05
1.90789e-05
1.90042e-05
1.87568e-05
1.80195e-05
1.59563e-05
9.61486e-06
1.02074e-05
1.01972e-05
1.01885e-05
1.01807e-05
1.01712e-05
1.01492e-05
1.00765e-05
9.83765e-06
9.1707e-06
7.92827e-06
1.01807e-05
1.01758e-05
1.0171e-05
1.01639e-05
1.01438e-05
1.00728e-05
9.83559e-06
9.1704e-06
7.92745e-06
1.90737e-05
1.90762e-05
1.9075e-05
1.90589e-05
1.89886e-05
1.8745e-05
1.80114e-05
1.5954e-05
9.61427e-06
2.23485e-05
2.2347e-05
2.23381e-05
2.23019e-05
2.21789e-05
2.18142e-05
2.08348e-05
1.82571e-05
1.03325e-05
2.38007e-05
2.37963e-05
2.37809e-05
2.3728e-05
2.35656e-05
2.31215e-05
2.19993e-05
1.91537e-05
1.06116e-05
2.44599e-05
2.44534e-05
2.44333e-05
2.43687e-05
2.41802e-05
2.36864e-05
2.24791e-05
1.94887e-05
1.07047e-05
2.47156e-05
2.4708e-05
2.46853e-05
2.46146e-05
2.44131e-05
2.38951e-05
2.26475e-05
1.95938e-05
1.07301e-05
2.47169e-05
2.4709e-05
2.46861e-05
2.46153e-05
2.44135e-05
2.38952e-05
2.26471e-05
1.95925e-05
1.07295e-05
2.44656e-05
2.44581e-05
2.44371e-05
2.43716e-05
2.41822e-05
2.36873e-05
2.24786e-05
1.94852e-05
1.07033e-05
2.38122e-05
2.38056e-05
2.37884e-05
2.37338e-05
2.35698e-05
2.31239e-05
2.19994e-05
1.91492e-05
1.06097e-05
2.23732e-05
2.23688e-05
2.23636e-05
2.23514e-05
2.23124e-05
2.21867e-05
2.18195e-05
2.0837e-05
1.82535e-05
1.03308e-05
1.91157e-05
1.9111e-05
1.91065e-05
1.90992e-05
1.90781e-05
1.90035e-05
1.87561e-05
1.80186e-05
1.59549e-05
9.61366e-06
1.02048e-05
1.0195e-05
1.01868e-05
1.01793e-05
1.01699e-05
1.01481e-05
1.00755e-05
9.83659e-06
9.16939e-06
7.92586e-06
1.01792e-05
1.01745e-05
1.01699e-05
1.01629e-05
1.0143e-05
1.00719e-05
9.83459e-06
9.16921e-06
7.92642e-06
1.90756e-05
1.90777e-05
1.90761e-05
1.90597e-05
1.89892e-05
1.87454e-05
1.80113e-05
1.59529e-05
9.61323e-06
2.2349e-05
2.23475e-05
2.23385e-05
2.23022e-05
2.21791e-05
2.18141e-05
2.08342e-05
1.82555e-05
1.03313e-05
2.38007e-05
2.37963e-05
2.3781e-05
2.3728e-05
2.35655e-05
2.31212e-05
2.19985e-05
1.91518e-05
1.06103e-05
2.44596e-05
2.44533e-05
2.44332e-05
2.43686e-05
2.418e-05
2.3686e-05
2.24783e-05
1.94868e-05
1.07034e-05
2.47151e-05
2.47076e-05
2.46851e-05
2.46145e-05
2.44129e-05
2.38946e-05
2.26466e-05
1.9592e-05
1.07287e-05
2.47163e-05
2.47086e-05
2.46859e-05
2.4615e-05
2.44132e-05
2.38947e-05
2.26463e-05
1.95908e-05
1.07282e-05
2.44649e-05
2.44576e-05
2.44367e-05