/*--------------------------------*- C++ -*----------------------------------*\
| =========                 |                                                 |
| \\      /  F ield         | OpenFOAM: The Open Source CFD Toolbox           |
|  \\    /   O peration     | Version:  2.3.1                                 |
|   \\  /    A nd           | Web:      www.OpenFOAM.org                      |
|    \\/     M anipulation  |                                                 |
\*---------------------------------------------------------------------------*/
FoamFile
{
    version     2.0;
    format      ascii;
    class       volScalarField;
    location    "10";
    object      k_0;
}
// * * * * * * * * * * * * * * * * * * * * * * * * * * * * * * * * * * * * * //

dimensions      [0 2 -2 0 0 0 0];

internalField   nonuniform List<scalar> 
37784
(
7.12244e-06
7.10929e-06
7.09915e-06
7.08974e-06
7.07412e-06
7.02569e-06
6.84501e-06
6.26108e-06
5.99149e-06
6.82761e-06
6.81326e-06
6.8031e-06
6.79534e-06
6.78809e-06
6.77574e-06
6.73485e-06
6.57263e-06
6.02912e-06
5.91594e-06
6.02446e-06
6.0129e-06
6.0052e-06
5.99937e-06
5.99414e-06
5.98701e-06
5.96688e-06
5.88032e-06
5.55528e-06
5.83549e-06
4.32135e-06
4.31654e-06
4.31403e-06
4.31146e-06
4.30855e-06
4.30524e-06
4.30105e-06
4.29258e-06
4.29118e-06
5.13753e-06
1.47556e-05
1.47677e-05
1.47772e-05
1.47801e-05
1.47596e-05
1.46505e-05
1.42376e-05
1.29023e-05
8.8897e-06
1.40631e-05
1.40686e-05
1.40747e-05
1.40799e-05
1.40809e-05
1.40629e-05
1.39652e-05
1.35748e-05
1.22615e-05
8.40186e-06
1.22741e-05
1.22709e-05
1.22702e-05
1.22706e-05
1.22701e-05
1.22611e-05
1.22078e-05
1.19628e-05
1.10358e-05
8.16344e-06
7.67186e-06
7.66496e-06
7.6607e-06
7.6574e-06
7.65439e-06
7.65061e-06
7.64127e-06
7.60327e-06
7.47052e-06
7.43507e-06
1.8297e-05
1.83e-05
1.83023e-05
1.82966e-05
1.82582e-05
1.81018e-05
1.75716e-05
1.59318e-05
1.02798e-05
1.74174e-05
1.74123e-05
1.74105e-05
1.74094e-05
1.74028e-05
1.73687e-05
1.72249e-05
1.67083e-05
1.50419e-05
9.39983e-06
1.51833e-05
1.51712e-05
1.51635e-05
1.51584e-05
1.51522e-05
1.5132e-05
1.50433e-05
1.46852e-05
1.34175e-05
8.98863e-06
8.87165e-06
8.85737e-06
8.84728e-06
8.83956e-06
8.83301e-06
8.82506e-06
8.8048e-06
8.72478e-06
8.44481e-06
8.01716e-06
2.03311e-05
2.03283e-05
2.03254e-05
2.03127e-05
2.02586e-05
2.00649e-05
1.94556e-05
1.76354e-05
1.10944e-05
1.93283e-05
1.93169e-05
1.93104e-05
1.9305e-05
1.92925e-05
1.92443e-05
1.90632e-05
1.84567e-05
1.65639e-05
9.91341e-06
1.68185e-05
1.68013e-05
1.67897e-05
1.67812e-05
1.67708e-05
1.67403e-05
1.66197e-05
1.61709e-05
1.46631e-05
9.34877e-06
9.48265e-06
9.46401e-06
9.45045e-06
9.4401e-06
9.43123e-06
9.41957e-06
9.38736e-06
9.26409e-06
8.85403e-06
8.17939e-06
2.16022e-05
2.15949e-05
2.15878e-05
2.15685e-05
2.14998e-05
2.12733e-05
2.05989e-05
1.86425e-05
1.15663e-05
2.05051e-05
2.04892e-05
2.04792e-05
2.04704e-05
2.04525e-05
2.03912e-05
2.01776e-05
1.94986e-05
1.74382e-05
1.01902e-05
1.77944e-05
1.77736e-05
1.77591e-05
1.7748e-05
1.77337e-05
1.76936e-05
1.75446e-05
1.70213e-05
1.53362e-05
9.51418e-06
9.82544e-06
9.80402e-06
9.78821e-06
9.77607e-06
9.76545e-06
9.75036e-06
9.70688e-06
9.54662e-06
9.04064e-06
8.22434e-06
2.2422e-05
2.24113e-05
2.24006e-05
2.23752e-05
2.22926e-05
2.20357e-05
2.13021e-05
1.92288e-05
1.18133e-05
2.12485e-05
2.12294e-05
2.12167e-05
2.12051e-05
2.11822e-05
2.1109e-05
2.08669e-05
2.01269e-05
1.79375e-05
1.03375e-05
1.83837e-05
1.83606e-05
1.83441e-05
1.8331e-05
1.83134e-05
1.82646e-05
1.80913e-05
1.75084e-05
1.56949e-05
9.59163e-06
1.0022e-05
9.99893e-06
9.98171e-06
9.96838e-06
9.95643e-06
9.93841e-06
9.88554e-06
9.69735e-06
9.12853e-06
8.2387e-06
2.29557e-05
2.29425e-05
2.29288e-05
2.28978e-05
2.2802e-05
2.25162e-05
2.17255e-05
1.95423e-05
1.18956e-05
2.17192e-05
2.16981e-05
2.16835e-05
2.16696e-05
2.16425e-05
2.15586e-05
2.12912e-05
2.04995e-05
1.82101e-05
1.04093e-05
1.87361e-05
1.87117e-05
1.86941e-05
1.86795e-05
1.86592e-05
1.8603e-05
1.84098e-05
1.7781e-05
1.58784e-05
9.6271e-06
1.01325e-05
1.01085e-05
1.00905e-05
1.00764e-05
1.00636e-05
1.00433e-05
9.98329e-06
9.77584e-06
9.16939e-06
8.24462e-06
2.33013e-05
2.32864e-05
2.32703e-05
2.32341e-05
2.3126e-05
2.28124e-05
2.19649e-05
1.967e-05
1.18384e-05
2.20135e-05
2.19914e-05
2.19757e-05
2.19601e-05
2.19292e-05
2.18359e-05
2.15467e-05
2.0711e-05
1.83436e-05
1.04353e-05
1.89416e-05
1.89169e-05
1.88987e-05
1.88832e-05
1.88609e-05
1.87987e-05
1.85899e-05
1.79272e-05
1.59655e-05
9.64221e-06
1.01921e-05
1.01679e-05
1.01496e-05
1.01351e-05
1.01217e-05
1.00997e-05
1.00348e-05
9.81497e-06
9.18764e-06
8.2478e-06
2.35215e-05
2.35056e-05
2.34876e-05
2.34469e-05
2.33272e-05
2.29869e-05
2.20826e-05
1.96679e-05
1.16389e-05
2.21931e-05
2.21709e-05
2.21546e-05
2.21379e-05
2.21039e-05
2.20025e-05
2.16944e-05
2.08214e-05
1.83921e-05
1.04313e-05
1.90569e-05
1.90325e-05
1.90143e-05
1.89985e-05
1.89746e-05
1.89079e-05
1.86872e-05
1.80002e-05
1.60011e-05
9.64737e-06
1.02226e-05
1.01986e-05
1.01803e-05
1.01658e-05
1.0152e-05
1.0129e-05
1.00607e-05
9.83338e-06
9.19521e-06
8.2499e-06
2.3658e-05
2.36418e-05
2.36224e-05
2.35777e-05
2.34476e-05
2.30825e-05
2.21228e-05
1.95818e-05
1.12943e-05
2.22987e-05
2.2277e-05
2.22607e-05
2.22432e-05
2.22068e-05
2.20986e-05
2.17747e-05
2.08707e-05
1.83916e-05
1.04076e-05
1.9118e-05
1.90945e-05
1.90768e-05
1.90609e-05
1.90361e-05
1.8966e-05
1.87366e-05
1.80326e-05
1.60104e-05
9.64769e-06
1.02372e-05
1.02137e-05
1.01956e-05
1.01812e-05
1.01673e-05
1.01436e-05
1.00732e-05
9.84136e-06
9.19788e-06
8.25152e-06
1.02162e-05
1.01985e-05
1.01843e-05
1.01706e-05
1.01468e-05
1.00759e-05
9.84316e-06
9.19863e-06
8.25576e-06
1.89892e-05
1.90044e-05
1.90145e-05
1.90093e-05
1.8953e-05
1.87308e-05
1.80278e-05
1.60051e-05
9.65751e-06
2.22812e-05
2.2273e-05
2.22645e-05
2.22353e-05
2.21303e-05
2.1802e-05
2.0882e-05
1.83745e-05
1.03905e-05
2.37187e-05
2.37019e-05
2.36843e-05
2.36402e-05
2.35056e-05
2.31236e-05
2.21195e-05
1.94648e-05
1.08951e-05
2.43625e-05
2.43417e-05
2.4319e-05
2.42667e-05
2.41178e-05
2.37185e-05
2.27202e-05
2.0207e-05
2.46063e-05
2.45856e-05
2.45616e-05
2.4506e-05
2.43522e-05
2.39505e-05
2.29731e-05
2.05781e-05
2.46041e-05
2.45857e-05
2.45624e-05
2.45069e-05
2.43527e-05
2.39503e-05
2.2972e-05
2.05747e-05
2.43664e-05
2.43491e-05
2.43267e-05
2.42731e-05
2.41222e-05
2.37203e-05
2.27187e-05
2.02001e-05
2.37397e-05
2.37235e-05
2.37032e-05
2.36551e-05
2.35159e-05
2.31289e-05
2.21193e-05
1.94585e-05
1.08861e-05
2.23578e-05
2.2337e-05
2.2321e-05
2.23032e-05
2.22649e-05
2.21512e-05
2.18145e-05
2.08856e-05
1.83684e-05
1.03764e-05
1.91478e-05
1.91256e-05
1.91086e-05
1.9093e-05
1.90676e-05
1.89951e-05
1.87594e-05
1.80438e-05
1.6008e-05
9.64614e-06
1.02433e-05
1.02205e-05
1.02028e-05
1.01887e-05
1.01748e-05
1.01507e-05
1.00789e-05
9.84442e-06
9.19845e-06
8.25287e-06
1.02164e-05
1.02e-05
1.01866e-05
1.01735e-05
1.01498e-05
1.00783e-05
9.84413e-06
9.19867e-06
8.25711e-06
1.90103e-05
1.90244e-05
1.90335e-05
1.9027e-05
1.89682e-05
1.87411e-05
1.80298e-05
1.59988e-05
9.65575e-06
2.23141e-05
2.23071e-05
2.22984e-05
2.22677e-05
2.2158e-05
2.18196e-05
2.08807e-05
1.83474e-05
1.03722e-05
2.37645e-05
2.37492e-05
2.37312e-05
2.36845e-05
2.35423e-05
2.31421e-05
2.20982e-05
1.93601e-05
1.07299e-05
2.44173e-05
2.43979e-05
2.43746e-05
2.43185e-05
2.41587e-05
2.37313e-05
2.26593e-05
1.99178e-05
1.11557e-05
2.46662e-05
2.46465e-05
2.46215e-05
2.45614e-05
2.43944e-05
2.39578e-05
2.28845e-05
2.01723e-05
1.13818e-05
2.46647e-05
2.46468e-05
2.46225e-05
2.45623e-05
2.43948e-05
2.39576e-05
2.28833e-05
2.01695e-05
1.13777e-05
2.44225e-05
2.44056e-05
2.43823e-05
2.43248e-05
2.41629e-05
2.37328e-05
2.26575e-05
1.99115e-05
1.11471e-05
2.37862e-05
2.37706e-05
2.37496e-05
2.36989e-05
2.35522e-05
2.31471e-05
2.20975e-05
1.93528e-05
1.0718e-05
2.23885e-05
2.2369e-05
2.23536e-05
2.23357e-05
2.22961e-05
2.21782e-05
2.18316e-05
2.08841e-05
1.8341e-05
1.0358e-05
1.91603e-05
1.91396e-05
1.91235e-05
1.91083e-05
1.90827e-05
1.90085e-05
1.87685e-05
1.80453e-05
1.60017e-05
9.64477e-06
1.02451e-05
1.0223e-05
1.02059e-05
1.0192e-05
1.01783e-05
1.0154e-05
1.00814e-05
9.84537e-06
9.19832e-06
8.25411e-06
1.02149e-05
1.01995e-05
1.01871e-05
1.01745e-05
1.01511e-05
1.00793e-05
9.84431e-06
9.19861e-06
8.25833e-06
1.90223e-05
1.90355e-05
1.90436e-05
1.9036e-05
1.89753e-05
1.87446e-05
1.8028e-05
1.59924e-05
9.65437e-06
2.23308e-05
2.2325e-05
2.23164e-05
2.22844e-05
2.21714e-05
2.18254e-05
2.08734e-05
1.83248e-05
1.03626e-05
2.37889e-05
2.3775e-05
2.3757e-05
2.37083e-05
2.35602e-05
2.31461e-05
2.20735e-05
1.92865e-05
1.06698e-05
2.44474e-05
2.44295e-05
2.4406e-05
2.43469e-05
2.41784e-05
2.37291e-05
2.26041e-05
1.97348e-05
1.08507e-05
2.46998e-05
2.46813e-05
2.46557e-05
2.4592e-05
2.44143e-05
2.39505e-05
2.28077e-05
1.99168e-05
1.09283e-05
2.46989e-05
2.46819e-05
2.46567e-05
2.45929e-05
2.44148e-05
2.39503e-05
2.28065e-05
1.99142e-05
1.0925e-05
2.44538e-05
2.44376e-05
2.44136e-05
2.43531e-05
2.41824e-05
2.37304e-05
2.26021e-05
1.97285e-05
1.08422e-05
2.38112e-05
2.37962e-05
2.3775e-05
2.37223e-05
2.35697e-05
2.31508e-05
2.20725e-05
1.92788e-05
1.06576e-05
2.24026e-05
2.23846e-05
2.237e-05
2.23522e-05
2.23117e-05
2.21907e-05
2.18369e-05
2.08767e-05
1.83186e-05
1.03487e-05
1.91637e-05
1.91445e-05
1.91294e-05
1.91148e-05
1.90892e-05
1.9014e-05
1.87711e-05
1.8043e-05
1.59954e-05
9.64403e-06
1.02447e-05
1.02235e-05
1.02069e-05
1.01934e-05
1.01798e-05
1.01555e-05
1.00825e-05
9.84558e-06
9.19813e-06
8.25526e-06
1.02124e-05
1.01983e-05
1.01867e-05
1.01746e-05
1.01515e-05
1.00796e-05
9.8443e-06
9.19863e-06
8.25942e-06
1.90297e-05
1.90421e-05
1.90493e-05
1.90407e-05
1.89786e-05
1.87453e-05
1.80252e-05
1.59872e-05
9.65327e-06
2.23388e-05
2.23341e-05
2.23255e-05
2.22927e-05
2.21772e-05
2.18258e-05
2.08654e-05
1.83087e-05
1.03573e-05
2.38008e-05
2.37884e-05
2.37705e-05
2.37203e-05
2.35678e-05
2.31439e-05
2.20526e-05
1.92402e-05
1.06471e-05
2.44626e-05
2.44462e-05
2.44227e-05
2.43615e-05
2.41864e-05
2.37214e-05
2.25625e-05
1.96305e-05
1.07655e-05
2.47172e-05
2.47e-05
2.46742e-05
2.46077e-05
2.44221e-05
2.39386e-05
2.27513e-05
1.97731e-05
1.08053e-05
2.47169e-05
2.47008e-05
2.46753e-05
2.46087e-05
2.44225e-05
2.39384e-05
2.275e-05
1.97705e-05
1.08022e-05
2.44699e-05
2.44545e-05
2.44303e-05
2.43675e-05
2.41903e-05
2.37227e-05
2.25604e-05
1.96243e-05
1.07574e-05
2.38234e-05
2.38091e-05
2.37879e-05
2.37338e-05
2.3577e-05
2.31484e-05
2.20516e-05
1.92326e-05
1.06352e-05
2.24076e-05
2.2391e-05
2.23773e-05
2.23599e-05
2.23188e-05
2.21957e-05
2.1837e-05
2.08686e-05
1.83029e-05
1.03442e-05
1.91626e-05
1.91448e-05
1.91308e-05
1.91168e-05
1.90914e-05
1.90156e-05
1.87708e-05
1.80399e-05
1.59903e-05
9.64364e-06
1.02432e-05
1.02229e-05
1.02069e-05
1.01938e-05
1.01805e-05
1.01562e-05
1.0083e-05
9.84561e-06
9.19803e-06
8.25631e-06
1.02096e-05
1.01966e-05
1.01859e-05
1.01744e-05
1.01516e-05
1.00798e-05
9.84427e-06
9.19872e-06
8.26035e-06
1.9035e-05
1.90464e-05
1.90528e-05
1.90435e-05
1.89802e-05
1.87451e-05
1.80227e-05
1.59834e-05
9.6523e-06
2.23422e-05
2.23384e-05
2.233e-05
2.22966e-05
2.21793e-05
2.18244e-05
2.08587e-05
1.82981e-05
1.0354e-05
2.38057e-05
2.37947e-05
2.37771e-05
2.3726e-05
2.35704e-05
2.31398e-05
2.20373e-05
1.9213e-05
1.06372e-05
2.44693e-05
2.44544e-05
2.4431e-05
2.43683e-05
2.41887e-05
2.37132e-05
2.25341e-05
1.95743e-05
1.07383e-05
2.47252e-05
2.47093e-05
2.46835e-05
2.46152e-05
2.44238e-05
2.39273e-05
2.27138e-05
1.96968e-05
1.07675e-05
2.47254e-05
2.47103e-05
2.46846e-05
2.46161e-05
2.44243e-05
2.39271e-05
2.27126e-05
1.96944e-05
1.07647e-05
2.44773e-05
2.44627e-05
2.44385e-05
2.43742e-05
2.41924e-05
2.37144e-05
2.25322e-05
1.95684e-05
1.07306e-05
2.38285e-05
2.3815e-05
2.37939e-05
2.3739e-05
2.35793e-05
2.31442e-05
2.20363e-05
1.92057e-05
1.0626e-05
2.24078e-05
2.23927e-05
2.23798e-05
2.23628e-05
2.23216e-05
2.21971e-05
2.18352e-05
2.0862e-05
1.82927e-05
1.03418e-05
1.91594e-05
1.91431e-05
1.91301e-05
1.91167e-05
1.90916e-05
1.90155e-05
1.87697e-05
1.8037e-05
1.59864e-05
9.64353e-06
1.02411e-05
1.02217e-05
1.02063e-05
1.01936e-05
1.01806e-05
1.01566e-05
1.00832e-05
9.84562e-06
9.19801e-06
8.25727e-06
1.02068e-05
1.01949e-05
1.01849e-05
1.0174e-05
1.01516e-05
1.00798e-05
9.84425e-06
9.19881e-06
8.26113e-06
1.90393e-05
1.90498e-05
1.90555e-05
1.90454e-05
1.89811e-05
1.87448e-05
1.80208e-05
1.59806e-05
9.65135e-06
2.23436e-05
2.23405e-05
2.23322e-05
2.22983e-05
2.21798e-05
2.18226e-05
2.08537e-05
1.82913e-05
1.03516e-05
2.38071e-05
2.37973e-05
2.378e-05
2.37283e-05
2.35707e-05
2.31359e-05
2.20269e-05
1.91976e-05
1.06321e-05
2.44713e-05
2.44578e-05
2.44348e-05
2.43711e-05
2.41884e-05
2.37063e-05
2.25162e-05
1.95449e-05
1.07277e-05
2.4728e-05
2.47133e-05
2.46877e-05
2.46181e-05
2.44231e-05
2.39184e-05
2.26905e-05
1.96577e-05
1.07534e-05
2.47287e-05
2.47145e-05
2.46889e-05
2.46191e-05
2.44236e-05
2.39182e-05
2.26894e-05
1.96555e-05
1.07508e-05
2.44799e-05
2.44662e-05
2.44421e-05
2.43768e-05
2.41921e-05
2.37075e-05
2.25143e-05
1.95393e-05
1.07204e-05
2.38297e-05
2.3817e-05
2.37963e-05
2.37408e-05
2.35792e-05
2.31401e-05
2.20261e-05
1.91906e-05
1.06216e-05
2.24057e-05
2.23919e-05
2.238e-05
2.23634e-05
2.23221e-05
2.21968e-05
2.1833e-05
2.0857e-05
1.8286e-05
1.03406e-05
1.91553e-05
1.91404e-05
1.91284e-05
1.91157e-05
1.90909e-05
1.90148e-05
1.87683e-05
1.80347e-05
1.59832e-05
9.64375e-06
1.02387e-05
1.02202e-05
1.02055e-05
1.01933e-05
1.01806e-05
1.01566e-05
1.00833e-05
9.84561e-06
9.19797e-06
8.25811e-06
1.02041e-05
1.01931e-05
1.01839e-05
1.01735e-05
1.01514e-05
1.00798e-05
9.8442e-06
9.19883e-06
8.26175e-06
1.90431e-05
1.90528e-05
1.90577e-05
1.90469e-05
1.89819e-05
1.87445e-05
1.80194e-05
1.59784e-05
9.65035e-06
2.2344e-05
2.23416e-05
2.23334e-05
2.22992e-05
2.21797e-05
2.1821e-05
2.08502e-05
1.82867e-05
1.03497e-05
2.38069e-05
2.37981e-05
2.37812e-05
2.37291e-05
2.35701e-05
2.31327e-05
2.20201e-05
1.91887e-05
1.06289e-05
2.44711e-05
2.44588e-05
2.44361e-05
2.43719e-05
2.41873e-05
2.37013e-05
2.25052e-05
1.95295e-05
1.07225e-05
2.47282e-05
2.47146e-05
2.46893e-05
2.4619e-05
2.44216e-05
2.3912e-05
2.26766e-05
1.9638e-05
1.07471e-05
2.47291e-05
2.47159e-05
2.46905e-05
2.46199e-05
2.44221e-05
2.39119e-05
2.26756e-05
1.96358e-05
1.07446e-05
2.448e-05
2.44671e-05
2.44432e-05
2.43774e-05
2.41908e-05
2.37025e-05
2.25035e-05
1.95242e-05
1.07158e-05
2.38291e-05
2.38172e-05
2.37967e-05
2.3741e-05
2.35783e-05
2.31368e-05
2.20195e-05
1.91819e-05
1.06194e-05
2.24026e-05
2.23901e-05
2.2379e-05
2.23629e-05
2.23217e-05
2.2196e-05
2.1831e-05
2.08535e-05
1.82813e-05
1.03402e-05
1.9151e-05
1.91375e-05
1.91264e-05
1.91143e-05
1.90899e-05
1.90138e-05
1.8767e-05
1.80328e-05
1.59805e-05
9.64402e-06
1.02361e-05
1.02185e-05
1.02045e-05
1.01927e-05
1.01803e-05
1.01566e-05
1.00833e-05
9.84556e-06
9.19788e-06
8.25882e-06
1.02014e-05
1.01914e-05
1.01828e-05
1.01729e-05
1.01511e-05
1.00797e-05
9.84407e-06
9.19874e-06
8.26221e-06
1.90467e-05
1.90556e-05
1.90598e-05
1.90483e-05
1.89826e-05
1.87444e-05
1.80184e-05
1.59766e-05
9.64928e-06
2.23442e-05
2.23422e-05
2.2334e-05
2.22996e-05
2.21796e-05
2.18197e-05
2.08476e-05
1.82834e-05
1.03478e-05
2.3806e-05
2.37982e-05
2.37815e-05
2.37292e-05
2.35694e-05
2.31304e-05
2.20157e-05
1.91832e-05
1.06265e-05
2.44699e-05
2.44587e-05
2.44364e-05
2.43719e-05
2.41861e-05
2.36977e-05
2.24985e-05
1.95212e-05
1.07193e-05
2.47272e-05
2.47146e-05
2.46896e-05
2.46189e-05
2.44201e-05
2.39076e-05
2.26684e-05
1.96276e-05
1.07435e-05
2.47283e-05
2.47159e-05
2.46908e-05
2.46199e-05
2.44206e-05
2.39076e-05
2.26674e-05
1.96255e-05
1.07414e-05
2.44789e-05
2.44668e-05
2.44433e-05
2.43772e-05
2.41895e-05
2.3699e-05
2.2497e-05
1.95159e-05
1.07134e-05
2.38276e-05
2.38164e-05
2.37963e-05
2.37406e-05
2.35773e-05
2.31344e-05
2.20152e-05
1.91762e-05
1.06185e-05
2.23992e-05
2.23879e-05
2.23776e-05
2.2362e-05
2.2321e-05
2.2195e-05
2.18293e-05
2.08509e-05
1.82776e-05
1.034e-05
1.91468e-05
1.91345e-05
1.91243e-05
1.91128e-05
1.90888e-05
1.90128e-05
1.87658e-05
1.80312e-05
1.59781e-05
9.64419e-06
1.02333e-05
1.02167e-05
1.02033e-05
1.0192e-05
1.01799e-05
1.01564e-05
1.00832e-05
9.84542e-06
9.1977e-06
8.2594e-06
1.01989e-05
1.01897e-05
1.01817e-05
1.01723e-05
1.01508e-05
1.00795e-05
9.84384e-06
9.19852e-06
8.26252e-06
1.90502e-05
1.90583e-05
1.90617e-05
1.90497e-05
1.89833e-05
1.87444e-05
1.80176e-05
1.59749e-05
9.64813e-06
2.23444e-05
2.23427e-05
2.23346e-05
2.22999e-05
2.21794e-05
2.18188e-05
2.08457e-05
1.82807e-05
1.03461e-05
2.3805e-05
2.37979e-05
2.37815e-05
2.37291e-05
2.35687e-05
2.31286e-05
2.20127e-05
1.91795e-05
1.06244e-05
2.44685e-05
2.44581e-05
2.44362e-05
2.43716e-05
2.4185e-05
2.36953e-05
2.24943e-05
1.95161e-05
1.07169e-05
2.47257e-05
2.4714e-05
2.46893e-05
2.46185e-05
2.44188e-05
2.39047e-05
2.26634e-05
1.96217e-05
1.07412e-05
2.4727e-05
2.47153e-05
2.46905e-05
2.46194e-05
2.44193e-05
2.39047e-05
2.26625e-05
1.96195e-05
1.07394e-05
2.44774e-05
2.44661e-05
2.44428e-05
2.43766e-05
2.41883e-05
2.36965e-05
2.24929e-05
1.95105e-05
1.07123e-05
2.38258e-05
2.38153e-05
2.37956e-05
2.37399e-05
2.35762e-05
2.31325e-05
2.20123e-05
1.91721e-05
1.0618e-05
2.23958e-05
2.23855e-05
2.2376e-05
2.23608e-05
2.23201e-05
2.2194e-05
2.1828e-05
2.08489e-05
1.82746e-05
1.03398e-05
1.91427e-05
1.91316e-05
1.91222e-05
1.91113e-05
1.90877e-05
1.90118e-05
1.87647e-05
1.80298e-05
1.59759e-05
9.64425e-06
1.02305e-05
1.02148e-05
1.0202e-05
1.01912e-05
1.01795e-05
1.01561e-05
1.00829e-05
9.84518e-06
9.19741e-06
8.25984e-06
1.01966e-05
1.01881e-05
1.01807e-05
1.01716e-05
1.01504e-05
1.00792e-05
9.8435e-06
9.19816e-06
8.26266e-06
1.90535e-05
1.90608e-05
1.90636e-05
1.9051e-05
1.8984e-05
1.87445e-05
1.80168e-05
1.59733e-05
9.64697e-06
2.23447e-05
2.23432e-05
2.2335e-05
2.23002e-05
2.21793e-05
2.18181e-05
2.08442e-05
1.82783e-05
1.03443e-05
2.38041e-05
2.37976e-05
2.37814e-05
2.37289e-05
2.35682e-05
2.31274e-05
2.20105e-05
1.91764e-05
1.06224e-05
2.4467e-05
2.44574e-05
2.44358e-05
2.43712e-05
2.41842e-05
2.36935e-05
2.24915e-05
1.95124e-05
1.0715e-05
2.47241e-05
2.47131e-05
2.46888e-05
2.46179e-05
2.44177e-05
2.39027e-05
2.26602e-05
1.96175e-05
1.07395e-05
2.47255e-05
2.47146e-05
2.469e-05
2.46188e-05
2.44183e-05
2.39027e-05
2.26593e-05
1.96152e-05
1.07383e-05
2.44758e-05
2.44651e-05
2.44421e-05
2.4376e-05
2.41873e-05
2.36947e-05
2.24901e-05
1.95064e-05
1.07116e-05
2.38239e-05
2.38141e-05
2.37948e-05
2.37392e-05
2.35753e-05
2.31311e-05
2.20101e-05
1.91687e-05
1.06176e-05
2.23926e-05
2.23833e-05
2.23744e-05
2.23597e-05
2.23191e-05
2.21931e-05
2.18268e-05
2.08473e-05
1.82718e-05
1.03395e-05
1.91389e-05
1.91288e-05
1.91202e-05
1.91099e-05
1.90866e-05
1.90109e-05
1.87637e-05
1.80286e-05
1.59738e-05
9.64417e-06
1.02277e-05
1.02128e-05
1.02006e-05
1.01903e-05
1.01788e-05
1.01557e-05
1.00826e-05
9.84481e-06
9.197e-06
8.26011e-06
1.01943e-05
1.01865e-05
1.01796e-05
1.01709e-05
1.01499e-05
1.00788e-05
9.84305e-06
9.19762e-06
8.26242e-06
1.90567e-05
1.90632e-05
1.90654e-05
1.90522e-05
1.89848e-05
1.87446e-05
1.80162e-05
1.59715e-05
9.64581e-06
2.23451e-05
2.23437e-05
2.23355e-05
2.23005e-05
2.21792e-05
2.18175e-05
2.08428e-05
1.82759e-05
1.03426e-05
2.38033e-05
2.37973e-05
2.37813e-05
2.37288e-05
2.35678e-05
2.31264e-05
2.20087e-05
1.91736e-05
1.06206e-05
2.44657e-05
2.44567e-05
2.44355e-05
2.43708e-05
2.41835e-05
2.36922e-05
2.24893e-05
1.95092e-05
1.07133e-05
2.47226e-05
2.47123e-05
2.46883e-05
2.46174e-05
2.44169e-05
2.39013e-05
2.26578e-05
1.96139e-05
1.07384e-05
2.47241e-05
2.47137e-05
2.46895e-05
2.46183e-05
2.44174e-05
2.39012e-05
2.2657e-05
1.96115e-05
1.07375e-05
2.44742e-05
2.44641e-05
2.44415e-05
2.43754e-05
2.41865e-05
2.36934e-05
2.24881e-05
1.9503e-05
1.07109e-05
2.38222e-05
2.38129e-05
2.37939e-05
2.37385e-05
2.35745e-05
2.313e-05
2.20084e-05
1.91658e-05
1.0617e-05
2.23896e-05
2.23811e-05
2.23728e-05
2.23586e-05
2.23183e-05
2.21923e-05
2.18258e-05
2.08458e-05
1.82693e-05
1.03391e-05
1.91354e-05
1.91262e-05
1.91182e-05
1.91085e-05
1.90855e-05
1.901e-05
1.87628e-05
1.80274e-05
1.59718e-05
9.64394e-06
1.02249e-05
1.02107e-05
1.01992e-05
1.01892e-05
1.01781e-05
1.01552e-05
1.00821e-05
9.84433e-06
9.19646e-06
8.25999e-06
1.01922e-05
1.0185e-05
1.01785e-05
1.01701e-05
1.01493e-05
1.00783e-05
9.84247e-06
9.19679e-06
8.26053e-06
1.90597e-05
1.90656e-05
1.90671e-05
1.90534e-05
1.89855e-05
1.87447e-05
1.80155e-05
1.59696e-05
9.64455e-06
2.23455e-05
2.23443e-05
2.2336e-05
2.23008e-05
2.21792e-05
2.1817e-05
2.08416e-05
1.82734e-05
1.03412e-05
2.38027e-05
2.37971e-05
2.37813e-05
2.37287e-05
2.35674e-05
2.31256e-05
2.20072e-05
1.91708e-05
1.06192e-05
2.44645e-05
2.44561e-05
2.44351e-05
2.43705e-05
2.41829e-05
2.36912e-05
2.24876e-05
1.95059e-05
1.07123e-05
2.47213e-05
2.47116e-05
2.46878e-05
2.4617e-05
2.44163e-05
2.39001e-05
2.26559e-05
1.96105e-05
1.07375e-05
2.47228e-05
2.4713e-05
2.4689e-05
2.46178e-05
2.44168e-05
2.39001e-05
2.26552e-05
1.96082e-05
1.07367e-05
2.44728e-05
2.44631e-05
2.44408e-05
2.43748e-05
2.41858e-05
2.36924e-05
2.24864e-05
1.95e-05
1.07102e-05
2.38205e-05
2.38118e-05
2.37931e-05
2.37378e-05
2.35738e-05
2.3129e-05
2.20069e-05
1.91631e-05
1.06164e-05
2.23868e-05
2.23791e-05
2.23714e-05
2.23575e-05
2.23174e-05
2.21915e-05
2.18249e-05
2.08445e-05
1.82669e-05
1.03386e-05
1.91321e-05
1.91237e-05
1.91164e-05
1.91071e-05
1.90845e-05
1.90091e-05
1.87619e-05
1.80262e-05
1.59697e-05
9.64335e-06
1.02221e-05
1.02086e-05
1.01976e-05
1.01881e-05
1.01773e-05
1.01545e-05
1.00815e-05
9.84374e-06
9.19565e-06
8.25819e-06
1.01902e-05
1.01835e-05
1.01774e-05
1.01693e-05
1.01487e-05
1.00777e-05
9.84175e-06
9.19507e-06
8.25024e-06
1.90626e-05
1.90678e-05
1.90688e-05
1.90546e-05
1.89861e-05
1.87448e-05
1.80148e-05
1.59672e-05
9.64265e-06
2.23461e-05
2.23448e-05
2.23365e-05
2.23011e-05
2.21793e-05
2.18165e-05
2.08404e-05
1.82706e-05
1.03402e-05
2.38022e-05
2.37969e-05
2.37813e-05
2.37286e-05
2.35671e-05
2.31248e-05
2.20058e-05
1.91676e-05
1.06183e-05
2.44635e-05
2.44556e-05
2.44348e-05
2.43702e-05
2.41825e-05
2.36903e-05
2.2486e-05
1.95027e-05
1.07114e-05
2.47201e-05
2.47109e-05
2.46874e-05
2.46166e-05
2.44157e-05
2.38992e-05
2.26543e-05
1.96073e-05
1.07366e-05
2.47217e-05
2.47123e-05
2.46885e-05
2.46174e-05
2.44162e-05
2.38992e-05
2.26537e-05
1.96052e-05
1.07359e-05
2.44714e-05
2.44622e-05
2.44402e-05
2.43743e-05
2.41852e-05
2.36915e-05
2.2485e-05
1.94973e-05
1.07094e-05
2.3819e-05
2.38107e-05
2.37923e-05
2.37372e-05
2.35731e-05
2.31281e-05
2.20056e-05
1.91605e-05
1.06157e-05
2.23843e-05
2.23773e-05
2.23701e-05
2.23565e-05
2.23167e-05
2.21908e-05
2.1824e-05
2.08433e-05
1.82646e-05
1.03378e-05
1.9129e-05
1.91214e-05
1.91147e-05
1.91058e-05
1.90835e-05
1.90083e-05
1.8761e-05
1.80251e-05
1.59676e-05
9.64163e-06
1.02193e-05
1.02065e-05
1.01961e-05
1.01869e-05
1.01764e-05
1.01538e-05
1.00808e-05
9.84299e-06
9.19398e-06
8.24789e-06
1.01884e-05
1.01821e-05
1.01763e-05
1.01684e-05
1.0148e-05
1.0077e-05
9.84082e-06
9.1906e-06
8.20231e-06
1.90653e-05
1.90698e-05
1.90703e-05
1.90557e-05
1.89868e-05
1.8745e-05
1.80142e-05
1.59644e-05
9.63736e-06
2.23467e-05
2.23454e-05
2.2337e-05
2.23014e-05
2.21793e-05
2.18162e-05
2.08393e-05
1.82677e-05
1.0339e-05
2.38019e-05
2.37968e-05
2.37813e-05
2.37286e-05
2.35669e-05
2.31242e-05
2.20044e-05
1.91646e-05
1.06173e-05
2.44627e-05
2.44552e-05
2.44346e-05
2.43699e-05
2.41821e-05
2.36896e-05
2.24846e-05
1.94997e-05
1.07104e-05
2.47191e-05
2.47103e-05
2.4687e-05
2.46162e-05
2.44152e-05
2.38984e-05
2.26529e-05
1.96044e-05
1.07357e-05
2.47207e-05
2.47116e-05
2.46881e-05
2.4617e-05
2.44157e-05
2.38984e-05
2.26524e-05
1.96025e-05
1.07349e-05
2.44702e-05
2.44614e-05
2.44396e-05
2.43738e-05
2.41846e-05
2.36907e-05
2.24837e-05
1.94947e-05
1.07085e-05
2.38176e-05
2.38097e-05
2.37916e-05
2.37366e-05
2.35726e-05
2.31274e-05
2.20044e-05
1.91582e-05
1.06148e-05
2.23819e-05
2.23756e-05
2.23688e-05
2.23556e-05
2.23159e-05
2.21901e-05
2.18232e-05
2.08421e-05
1.82624e-05
1.03368e-05
1.91262e-05
1.91193e-05
1.91131e-05
1.91046e-05
1.90826e-05
1.90075e-05
1.87602e-05
1.80239e-05
1.5965e-05
9.63639e-06
1.02165e-05
1.02044e-05
1.01945e-05
1.01857e-05
1.01754e-05
1.01529e-05
1.00801e-05
9.84203e-06
9.18952e-06
8.19976e-06
1.01865e-05
1.01807e-05
1.01752e-05
1.01675e-05
1.01472e-05
1.00762e-05
9.83956e-06
9.18008e-06
7.99922e-06
1.90679e-05
1.90718e-05
1.90718e-05
1.90568e-05
1.89875e-05
1.87452e-05
1.80135e-05
1.59611e-05
9.62495e-06
2.23473e-05
2.2346e-05
2.23375e-05
2.23017e-05
2.21794e-05
2.18158e-05
2.08383e-05
1.82649e-05
1.03373e-05
2.38017e-05
2.37968e-05
2.37813e-05
2.37286e-05
2.35667e-05
2.31237e-05
2.20032e-05
1.91618e-05
1.06162e-05
2.4462e-05
2.44548e-05
2.44344e-05
2.43698e-05
2.41817e-05
2.36889e-05
2.24833e-05
1.94968e-05
1.07093e-05
2.47182e-05
2.47098e-05
2.46867e-05
2.46159e-05
2.44148e-05
2.38976e-05
2.26516e-05
1.96017e-05
1.07346e-05
2.47197e-05
2.4711e-05
2.46877e-05
2.46167e-05
2.44153e-05
2.38977e-05
2.26511e-05
1.95999e-05
1.07339e-05
2.44691e-05
2.44607e-05
2.44391e-05
2.43734e-05
2.41841e-05
2.36899e-05
2.24825e-05
1.94923e-05
1.07075e-05
2.38163e-05
2.38088e-05
2.37909e-05
2.3736e-05
2.3572e-05
2.31266e-05
2.20033e-05
1.91559e-05
1.06139e-05
2.23797e-05
2.23739e-05
2.23676e-05
2.23547e-05
2.23152e-05
2.21894e-05
2.18224e-05
2.0841e-05
1.82601e-05
1.03353e-05
1.91236e-05
1.91173e-05
1.91116e-05
1.91034e-05
1.90816e-05
1.90067e-05
1.87594e-05
1.80227e-05
1.59619e-05
9.62413e-06
1.02138e-05
1.02023e-05
1.01928e-05
1.01844e-05
1.01743e-05
1.0152e-05
1.00792e-05
9.84073e-06
9.17892e-06
7.9965e-06
1.01848e-05
1.01792e-05
1.0174e-05
1.01666e-05
1.01464e-05
1.00754e-05
9.83843e-06
9.17482e-06
7.94262e-06
1.90704e-05
1.90738e-05
1.90733e-05
1.90578e-05
1.89882e-05
1.87454e-05
1.8013e-05
1.59585e-05
9.61873e-06
2.2348e-05
2.23466e-05
2.2338e-05
2.23021e-05
2.21795e-05
2.18155e-05
2.08373e-05
1.82623e-05
1.03358e-05
2.38015e-05
2.37969e-05
2.37814e-05
2.37286e-05
2.35666e-05
2.31231e-05
2.20021e-05
1.91591e-05
1.0615e-05
2.44615e-05
2.44545e-05
2.44342e-05
2.43696e-05
2.41814e-05
2.36882e-05
2.2482e-05
1.94941e-05
1.07081e-05
2.47175e-05
2.47093e-05
2.46864e-05
2.46157e-05
2.44144e-05
2.3897e-05
2.26504e-05
1.95991e-05
1.07334e-05
2.47189e-05
2.47105e-05
2.46874e-05
2.46164e-05
2.44149e-05
2.3897e-05
2.26499e-05
1.95975e-05
1.07328e-05
2.44681e-05
2.446e-05
2.44386e-05
2.43729e-05
2.41837e-05
2.36893e-05
2.24814e-05
1.949e-05
1.07064e-05
2.3815e-05
2.38079e-05
2.37903e-05
2.37355e-05
2.35715e-05
2.31259e-05
2.20022e-05
1.91538e-05
1.06128e-05
2.23776e-05
2.23724e-05
2.23664e-05
2.23538e-05
2.23145e-05
2.21888e-05
2.18217e-05
2.08399e-05
1.8258e-05
1.03339e-05
1.9121e-05
1.91154e-05
1.91101e-05
1.91023e-05
1.90807e-05
1.90059e-05
1.87586e-05
1.80216e-05
1.59594e-05
9.61804e-06
1.02109e-05
1.02001e-05
1.0191e-05
1.01829e-05
1.01731e-05
1.0151e-05
1.00783e-05
9.83955e-06
9.1737e-06
7.94067e-06
1.01831e-05
1.01779e-05
1.01729e-05
1.01656e-05
1.01455e-05
1.00745e-05
9.83741e-06
9.17263e-06
7.93087e-06
1.90726e-05
1.90756e-05
1.90747e-05
1.90589e-05
1.89889e-05
1.87457e-05
1.80127e-05
1.59566e-05
9.61641e-06
2.23487e-05
2.23472e-05
2.23385e-05
2.23025e-05
2.21797e-05
2.18153e-05
2.08365e-05
1.82601e-05
1.03346e-05
2.38015e-05
2.37969e-05
2.37815e-05
2.37287e-05
2.35664e-05
2.31227e-05
2.20011e-05
1.91568e-05
1.06138e-05
2.4461e-05
2.44543e-05
2.44341e-05
2.43695e-05
2.41812e-05
2.36877e-05
2.2481e-05
1.94918e-05
1.07068e-05
2.47168e-05
2.47089e-05
2.46861e-05
2.46155e-05
2.44141e-05
2.38964e-05
2.26493e-05
1.95968e-05
1.07321e-05
2.47181e-05
2.471e-05
2.4687e-05
2.46161e-05
2.44145e-05
2.38964e-05
2.26489e-05
1.95953e-05
1.07316e-05
2.44671e-05
2.44593e-05
2.44381e-05
2.43726e-05
2.41833e-05
2.36887e-05
2.24804e-05
1.9488e-05
1.07053e-05
2.38139e-05
2.38071e-05
2.37897e-05
2.3735e-05
2.3571e-05
2.31253e-05
2.20012e-05
1.91519e-05
1.06117e-05
2.23757e-05
2.2371e-05
2.23654e-05
2.2353e-05
2.23138e-05
2.21882e-05
2.1821e-05
2.08389e-05
1.82562e-05
1.03328e-05
1.91187e-05
1.91136e-05
1.91087e-05
1.91012e-05
1.90798e-05
1.90051e-05
1.87578e-05
1.80206e-05
1.59575e-05
9.61577e-06
1.02082e-05
1.01979e-05
1.01893e-05
1.01815e-05
1.01719e-05
1.01499e-05
1.00773e-05
9.83848e-06
9.17157e-06
7.92917e-06
1.01815e-05
1.01766e-05
1.01718e-05
1.01646e-05
1.01446e-05
1.00736e-05
9.83642e-06
9.17128e-06
7.92834e-06
1.90747e-05
1.90772e-05
1.90759e-05
1.90598e-05
1.89895e-05
1.8746e-05
1.80125e-05
1.59552e-05
9.61519e-06
2.23493e-05
2.23478e-05
2.23389e-05
2.23028e-05
2.21798e-05
2.18152e-05
2.08359e-05
1.82582e-05
1.03334e-05
2.38014e-05
2.3797e-05
2.37816e-05
2.37287e-05
2.35664e-05
2.31224e-05
2.20002e-05
1.91547e-05
1.06125e-05
2.44606e-05
2.44541e-05
2.4434e-05
2.43694e-05
2.41809e-05
2.36872e-05
2.248e-05
1.94897e-05
1.07055e-05
2.47162e-05
2.47086e-05
2.46859e-05
2.46153e-05
2.44138e-05
2.38959e-05
2.26483e-05
1.95948e-05
1.07309e-05
2.47175e-05
2.47096e-05
2.46868e-05
2.46159e-05
2.44142e-05
2.38959e-05
2.2648e-05
1.95934e-05
1.07303e-05
2.44663e-05
2.44588e-05
2.44377e-05
2.43722e-05
2.41829e-05
2.36881e-05
2.24795e-05
1.94862e-05
1.07041e-05
2.38129e-05
2.38064e-05
2.37891e-05
2.37346e-05
2.35705e-05
2.31247e-05
2.20003e-05
1.91502e-05
1.06106e-05
2.2374e-05
2.23697e-05
2.23644e-05
2.23523e-05
2.23132e-05
2.21876e-05
2.18204e-05
2.0838e-05
1.82546e-05
1.03317e-05
1.91166e-05
1.91119e-05
1.91074e-05
1.91002e-05
1.9079e-05
1.90044e-05
1.87571e-05
1.80197e-05
1.5956e-05
9.61457e-06
1.02055e-05
1.01958e-05
1.01875e-05
1.018e-05
1.01707e-05
1.01489e-05
1.00762e-05
9.83742e-06
9.17026e-06
7.92676e-06
1.018e-05
1.01753e-05
1.01707e-05
1.01637e-05
1.01437e-05
1.00727e-05
9.83542e-06
9.17008e-06
7.92732e-06
1.90765e-05
1.90786e-05
1.90771e-05
1.90607e-05
1.89902e-05
1.87464e-05
1.80124e-05
1.5954e-05
9.61414e-06
2.23499e-05
2.23483e-05
2.23394e-05
2.23031e-05
2.218e-05
2.18151e-05
2.08353e-05
1.82566e-05
1.03322e-05
2.38014e-05
2.37971e-05
2.37817e-05
2.37288e-05
2.35663e-05
2.3122e-05
2.19995e-05
1.91529e-05
1.06112e-05
2.44602e-05
2.44539e-05
2.44339e-05
2.43693e-05
2.41808e-05
2.36868e-05
2.24792e-05
1.94878e-05
1.07042e-05
2.47157e-05
2.47082e-05
2.46857e-05
2.46151e-05
2.44136e-05
2.38954e-05
2.26475e-05
1.9593e-05
1.07296e-05
2.47169e-05
2.47092e-05
2.46865e-05
2.46157e-05
2.44139e-05
2.38955e-05
2.26471e-05
1.95917e-05
1.07291e-05
2.44655e-05