/*--------------------------------*- C++ -*----------------------------------*\
| =========                 |                                                 |
| \\      /  F ield         | OpenFOAM: The Open Source CFD Toolbox           |
|  \\    /   O peration     | Version:  2.3.1                                 |
|   \\  /    A nd           | Web:      www.OpenFOAM.org                      |
|    \\/     M anipulation  |                                                 |
\*---------------------------------------------------------------------------*/
FoamFile
{
    version     2.0;
    format      ascii;
    class       volScalarField;
    location    "10";
    object      nut;
}
// * * * * * * * * * * * * * * * * * * * * * * * * * * * * * * * * * * * * * //

dimensions      [0 2 -1 0 0 0 0];

internalField   nonuniform List<scalar> 
37784
(
3.37071e-06
3.36759e-06
3.36518e-06
3.36294e-06
3.35923e-06
3.34769e-06
3.30433e-06
3.16018e-06
4.25965e-06
3.30016e-06
3.29668e-06
3.29421e-06
3.29233e-06
3.29056e-06
3.28756e-06
3.27762e-06
3.23787e-06
3.10104e-06
4.23268e-06
3.09988e-06
3.0969e-06
3.09491e-06
3.0934e-06
3.09205e-06
3.0902e-06
3.085e-06
3.06252e-06
2.97662e-06
4.20378e-06
2.62521e-06
2.62375e-06
2.62298e-06
2.6222e-06
2.62132e-06
2.62031e-06
2.61903e-06
2.61645e-06
2.61601e-06
3.50297e-06
2.3735e-05
2.38166e-05
2.38793e-05
2.39129e-05
2.38674e-05
2.35452e-05
2.23351e-05
1.85935e-05
8.34182e-06
2.1738e-05
2.17941e-05
2.18423e-05
2.18811e-05
2.19017e-05
2.18627e-05
2.15907e-05
2.05169e-05
1.7099e-05
8.10957e-06
1.71471e-05
1.71584e-05
1.71714e-05
1.7184e-05
1.71921e-05
1.71771e-05
1.70513e-05
1.64679e-05
1.43294e-05
7.9936e-06
6.99602e-06
6.99286e-06
6.99091e-06
6.9894e-06
6.98802e-06
6.98629e-06
6.98202e-06
6.96462e-06
6.9035e-06
7.23885e-06
4.36264e-05
4.36917e-05
4.37365e-05
4.37231e-05
4.34983e-05
4.25323e-05
3.93322e-05
3.03556e-05
8.97057e-06
3.84658e-05
3.84791e-05
3.84961e-05
3.85079e-05
3.84857e-05
3.83092e-05
3.75345e-05
3.48324e-05
2.70352e-05
8.57786e-06
2.76075e-05
2.7573e-05
2.75517e-05
2.75376e-05
2.75183e-05
2.74438e-05
2.71036e-05
2.57493e-05
2.12378e-05
8.38802e-06
7.52341e-06
7.51734e-06
7.51304e-06
7.50976e-06
7.50697e-06
7.50358e-06
7.49495e-06
7.46078e-06
7.34002e-06
7.51697e-06
6.03336e-05
6.03732e-05
6.0388e-05
6.03003e-05
5.98229e-05
5.80452e-05
5.26122e-05
3.85355e-05
9.31939e-06
5.16392e-05
5.16062e-05
5.15879e-05
5.15669e-05
5.14867e-05
5.11306e-05
4.97607e-05
4.5346e-05
3.35628e-05
8.8092e-06
3.47849e-05
3.47131e-05
3.46636e-05
3.46264e-05
3.45794e-05
3.44358e-05
3.38605e-05
3.17634e-05
2.52994e-05
8.5545e-06
7.77832e-06
7.77065e-06
7.76506e-06
7.7608e-06
7.75714e-06
7.75234e-06
7.73905e-06
7.68803e-06
7.51586e-06
7.59269e-06
7.39574e-05
7.39619e-05
7.39343e-05
7.37479e-05
7.29633e-05
7.02863e-05
6.26256e-05
4.41006e-05
9.51565e-06
6.1755e-05
6.1675e-05
6.16198e-05
6.15618e-05
6.1413e-05
6.08536e-05
5.8865e-05
5.28451e-05
3.77861e-05
8.93143e-06
3.96938e-05
3.95926e-05
3.95202e-05
3.94633e-05
3.93889e-05
3.91736e-05
3.83698e-05
3.56252e-05
2.76824e-05
8.6299e-06
7.91776e-06
7.9091e-06
7.9027e-06
7.89779e-06
7.89349e-06
7.88737e-06
7.86974e-06
7.80446e-06
7.5947e-06
7.61355e-06
8.46084e-05
8.45723e-05
8.44941e-05
8.41929e-05
8.30731e-05
7.9487e-05
6.97793e-05
4.76795e-05
9.61676e-06
6.92202e-05
6.90976e-05
6.90075e-05
6.89122e-05
6.86911e-05
6.79254e-05
6.53525e-05
5.79505e-05
4.03994e-05
8.99577e-06
4.29556e-05
4.28333e-05
4.27438e-05
4.26708e-05
4.25715e-05
4.2289e-05
4.12829e-05
3.80169e-05
2.90261e-05
8.66499e-06
7.99665e-06
7.9874e-06
7.9805e-06
7.97516e-06
7.97037e-06
7.96314e-06
7.9419e-06
7.86588e-06
7.63156e-06
7.6202e-06
9.25419e-05
9.24654e-05
9.23345e-05
9.19128e-05
9.04561e-05
8.60115e-05
7.45327e-05
4.97504e-05
9.65025e-06
7.44756e-05
7.43187e-05
7.41993e-05
7.40702e-05
7.37802e-05
7.28222e-05
6.97376e-05
6.12246e-05
4.19052e-05
9.027e-06
4.50346e-05
4.48991e-05
4.47985e-05
4.47138e-05
4.45936e-05
4.42531e-05
4.30817e-05
3.94238e-05
2.97377e-05
8.68102e-06
8.04063e-06
8.03109e-06
8.02392e-06
8.01832e-06
8.01317e-06
8.00507e-06
7.98111e-06
7.89768e-06
7.64864e-06
7.62294e-06
9.81576e-05
9.80458e-05
9.78652e-05
9.73269e-05
9.55523e-05
9.03357e-05
7.73833e-05
5.06946e-05
9.62701e-06
7.79913e-05
7.78107e-05
7.76697e-05
7.75129e-05
7.71623e-05
7.60369e-05
7.25293e-05
6.317e-05
4.26751e-05
9.03827e-06
4.62951e-05
4.61538e-05
4.60474e-05
4.59554e-05
4.58191e-05
4.54323e-05
4.41341e-05
4.01991e-05
3.00816e-05
8.68784e-06
8.06428e-06
8.05467e-06
8.0474e-06
8.04167e-06
8.0363e-06
8.02757e-06
8.00169e-06
7.91349e-06
7.65626e-06
7.62441e-06
0.00010193
0.000101791
0.000101568
0.000100924
9.88637e-05
9.29777e-05
7.88251e-05
5.0824e-05
9.54557e-06
8.02195e-05
8.00259e-05
7.98715e-05
7.96941e-05
7.92936e-05
7.80301e-05
7.41879e-05
6.42094e-05
4.2979e-05
9.03657e-06
4.70163e-05
4.6875e-05
4.67674e-05
4.66718e-05
4.65244e-05
4.61027e-05
4.4712e-05
4.05905e-05
3.02231e-05
8.69017e-06
8.07638e-06
8.06686e-06
8.0596e-06
8.05385e-06
8.04837e-06
8.03921e-06
8.01205e-06
7.92092e-06
7.65942e-06
7.62539e-06
0.000104333
0.000104176
0.000103918
0.000103183
0.000100879
9.44316e-05
7.93177e-05
5.0415e-05
9.40315e-06
8.15522e-05
8.13551e-05
8.11946e-05
8.10037e-05
8.05645e-05
7.91919e-05
7.5094e-05
6.46757e-05
4.30103e-05
9.02628e-06
4.74007e-05
4.72639e-05
4.71585e-05
4.70623e-05
4.69078e-05
4.64611e-05
4.50055e-05
4.07631e-05
3.02603e-05
8.69031e-06
8.08215e-06
8.07283e-06
8.06567e-06
8.05996e-06
8.05444e-06
8.04502e-06
8.01703e-06
7.92414e-06
7.66053e-06
7.62613e-06
8.07384e-06
8.0668e-06
8.06117e-06
8.05572e-06
8.04628e-06
8.01808e-06
7.92486e-06
7.66085e-06
7.6281e-06
4.62333e-05
4.64484e-05
4.65922e-05
4.66139e-05
4.62911e-05
4.49095e-05
4.07003e-05
3.02298e-05
8.69475e-06
8.08638e-05
8.10148e-05
8.10572e-05
8.07804e-05
7.94868e-05
7.53497e-05
6.47697e-05
4.29534e-05
9.01889e-06
0.000104782
0.000104864
0.000104776
0.000104129
0.000101765
9.50039e-05
7.92703e-05
4.98043e-05
9.23544e-06
0.000118353
0.000118354
0.000118143
0.000117203
0.000114108
0.000105804
8.75634e-05
5.48579e-05
0.000124141
0.000124081
0.000123792
0.0001227
0.000119276
0.000110361
9.12329e-05
5.72163e-05
0.000124278
0.000124184
0.000123869
0.000122751
0.000119304
0.000110364
9.12141e-05
5.71695e-05
0.000118939
0.000118796
0.00011847
0.000117432
0.000114248
0.000105858
8.7541e-05
5.47594e-05
0.000105782
0.000105614
0.000105331
0.000104523
0.000102018
9.51219e-05
7.92712e-05
4.97479e-05
9.2316e-06
8.22991e-05
8.21059e-05
8.19451e-05
8.17466e-05
8.12791e-05
7.98236e-05
7.5537e-05
6.48169e-05
4.29111e-05
9.01273e-06
4.75864e-05
4.7457e-05
4.7356e-05
4.72614e-05
4.7103e-05
4.66393e-05
4.51394e-05
4.08209e-05
3.02505e-05
8.68961e-06
8.08456e-06
8.07552e-06
8.06852e-06
8.0629e-06
8.05739e-06
8.04782e-06
8.0193e-06
7.92537e-06
7.66077e-06
7.62676e-06
8.07392e-06
8.06738e-06
8.0621e-06
8.05687e-06
8.04748e-06
8.01904e-06
7.92525e-06
7.66086e-06
7.62872e-06
4.63904e-05
4.65881e-05
4.67189e-05
4.67283e-05
4.63866e-05
4.49698e-05
4.07093e-05
3.02041e-05
8.69395e-06
8.13255e-05
8.14601e-05
8.14852e-05
8.1179e-05
7.98177e-05
7.55411e-05
6.47595e-05
4.28236e-05
9.01094e-06
0.000105657
0.000105719
0.000105603
0.000104892
0.000102368
9.52681e-05
7.90275e-05
4.92624e-05
9.16512e-06
0.000119569
0.000119549
0.000119298
0.000118254
0.000114885
0.000105963
8.66408e-05
5.28871e-05
9.34529e-06
0.000125535
0.000125453
0.000125118
0.000123894
0.000120119
0.000110398
8.98242e-05
5.4454e-05
9.43961e-06
0.000125664
0.000125552
0.000125191
0.000123943
0.000120144
0.000110399
8.98046e-05
5.44268e-05
9.4379e-06
0.000120128
0.000119972
0.000119612
0.000118473
0.000115017
0.000106009
8.66127e-05
5.28246e-05
9.34168e-06
0.000106605
0.000106434
0.000106134
0.000105269
0.000102609
9.53768e-05
7.90208e-05
4.92028e-05
9.16003e-06
8.26854e-05
8.25008e-05
8.23441e-05
8.21427e-05
8.16556e-05
8.014e-05
7.57198e-05
6.48036e-05
4.27815e-05
9.00473e-06
4.76615e-05
4.7541e-05
4.74459e-05
4.73542e-05
4.71944e-05
4.67194e-05
4.51903e-05
4.08256e-05
3.02247e-05
8.689e-06
8.08526e-06
8.07653e-06
8.06974e-06
8.06423e-06
8.05878e-06
8.04914e-06
8.0203e-06
7.92575e-06
7.66072e-06
7.62733e-06
8.07328e-06
8.06721e-06
8.06228e-06
8.05727e-06
8.04798e-06
8.01943e-06
7.92533e-06
7.66084e-06
7.62929e-06
4.64906e-05
4.66717e-05
4.67902e-05
4.67886e-05
4.64322e-05
4.49904e-05
4.06979e-05
3.01776e-05
8.69333e-06
8.15838e-05
8.17044e-05
8.17151e-05
8.13856e-05
7.99744e-05
7.56008e-05
6.46929e-05
4.27096e-05
9.00674e-06
0.00010615
0.000106197
0.000106059
0.000105298
0.000102655
9.53147e-05
7.87519e-05
4.88749e-05
9.13939e-06
0.000120264
0.000120228
0.000119947
0.000118821
0.000115245
0.000105887
8.59172e-05
5.18572e-05
9.2166e-06
0.000126336
0.000126239
0.000125868
0.000124542
0.000120498
0.000110207
8.87778e-05
5.30325e-05
9.24955e-06
0.000126458
0.000126333
0.000125937
0.000124588
0.000120522
0.000110207
8.87583e-05
5.30102e-05
9.24813e-06
0.000120791
0.000120629
0.000120245
0.00011903
0.000115368
0.000105927
8.58869e-05
5.18036e-05
9.21301e-06
0.000107044
0.000106873
0.000106563
0.000105657
0.000102883
9.54158e-05
7.87419e-05
4.88155e-05
9.13414e-06
8.28623e-05
8.26894e-05
8.25394e-05
8.23386e-05
8.1839e-05
8.02817e-05
7.57713e-05
6.47353e-05
4.26695e-05
9.00071e-06
4.76783e-05
4.75675e-05
4.7479e-05
4.73911e-05
4.72315e-05
4.67498e-05
4.5202e-05
4.08104e-05
3.01981e-05
8.68866e-06
8.08509e-06
8.0767e-06
8.07014e-06
8.06478e-06
8.0594e-06
8.04976e-06
8.02073e-06
7.92584e-06
7.66064e-06
7.62786e-06
8.07229e-06
8.06671e-06
8.06211e-06
8.05734e-06
8.04817e-06
8.01957e-06
7.92532e-06
7.66085e-06
7.62979e-06
4.65615e-05
4.67269e-05
4.68337e-05
4.68224e-05
4.64541e-05
4.49946e-05
4.0682e-05
3.01558e-05
8.69283e-06
8.173e-05
8.18381e-05
8.18366e-05
8.14891e-05
8.00417e-05
7.56029e-05
6.46193e-05
4.26248e-05
9.00442e-06
0.000106421
0.000106456
0.000106301
0.000105503
0.000102775
9.52735e-05
7.85202e-05
4.86211e-05
9.12964e-06
0.000120644
0.000120598
0.000120294
0.000119108
0.000115383
0.000105735
8.5401e-05
5.12789e-05
9.18034e-06
0.000126773
0.000126668
0.00012627
0.000124868
0.000120633
0.000109964
8.80564e-05
5.2242e-05
9.19728e-06
0.000126888
0.000126756
0.000126335
0.000124912
0.000120655
0.000109963
8.80375e-05
5.22217e-05
9.196e-06
0.000121139
0.000120975
0.000120575
0.000119305
0.000115499
0.000105771
8.53707e-05
5.1229e-05
9.17687e-06
0.000107258
0.000107092
0.000106776
0.000105843
0.00010299
9.53685e-05
7.85094e-05
4.85636e-05
9.12454e-06
8.29249e-05
8.2765e-05
8.26233e-05
8.24253e-05
8.19187e-05
8.03341e-05
7.5766e-05
6.46608e-05
4.25872e-05
8.99873e-06
4.76669e-05
4.75657e-05
4.7484e-05
4.74003e-05
4.7242e-05
4.67567e-05
4.51977e-05
4.0791e-05
3.01761e-05
8.68849e-06
8.08449e-06
8.07646e-06
8.07013e-06
8.06493e-06
8.05965e-06
8.05004e-06
8.02092e-06
7.92585e-06
7.6606e-06
7.62835e-06
8.07119e-06
8.06606e-06
8.06178e-06
8.05724e-06
8.04821e-06
8.01963e-06
7.92531e-06
7.66089e-06
7.63022e-06
4.66176e-05
4.67681e-05
4.68641e-05
4.6844e-05
4.64659e-05
4.49937e-05
4.0668e-05
3.01393e-05
8.69239e-06
8.18171e-05
8.1914e-05
8.19021e-05
8.15403e-05
8.00672e-05
7.55858e-05
6.45582e-05
4.25667e-05
9.00298e-06
0.000106568
0.000106593
0.000106425
0.0001056
0.000102813
9.52092e-05
7.83504e-05
4.84652e-05
9.12539e-06
0.000120845
0.000120791
0.000120471
0.000119242
0.000115417
0.000105587
8.50574e-05
5.09561e-05
9.16871e-06
0.000127001
0.00012689
0.000126474
0.000125019
0.000120655
0.000109749
8.75883e-05
5.18064e-05
9.18117e-06
0.000127108
0.000126973
0.000126535
0.00012506
0.000120675
0.000109748
8.75705e-05
5.17875e-05
9.17998e-06
0.000121307
0.000121145
0.000120736
0.000119428
0.000115526
0.00010562
8.50285e-05
5.09092e-05
9.16543e-06
0.000107349
0.000107189
0.000106872
0.000105921
0.000103018
9.52993e-05
7.83402e-05
4.84104e-05
9.12056e-06
8.29286e-05
8.27823e-05
8.26495e-05
8.24558e-05
8.19462e-05
8.03448e-05
7.57417e-05
6.45991e-05
4.25311e-05
8.9977e-06
4.76426e-05
4.75509e-05
4.74758e-05
4.73966e-05
4.72404e-05
4.67534e-05
4.5188e-05
4.07733e-05
3.01585e-05
8.68844e-06
8.08366e-06
8.07599e-06
8.06991e-06
8.06488e-06
8.05972e-06
8.05016e-06
8.02101e-06
7.92585e-06
7.66059e-06
7.62879e-06
8.07008e-06
8.06536e-06
8.0614e-06
8.05708e-06
8.04818e-06
8.01965e-06
7.9253e-06
7.66092e-06
7.63058e-06
4.66662e-05
4.68026e-05
4.68884e-05
4.68603e-05
4.6474e-05
4.49921e-05
4.06574e-05
3.01268e-05
8.69196e-06
8.18745e-05
8.19611e-05
8.19399e-05
8.15669e-05
8.00754e-05
7.55658e-05
6.45128e-05
4.25276e-05
9.00195e-06
0.00010665
0.000106667
0.000106489
0.000105645
0.000102818
9.51504e-05
7.82351e-05
4.83725e-05
9.12319e-06
0.000120948
0.000120889
0.000120558
0.0001193
0.000115409
0.000105469
8.48404e-05
5.07796e-05
9.16415e-06
0.000127113
0.000126999
0.000126572
0.000125081
0.000120634
0.000109587
8.72993e-05
5.15731e-05
9.17517e-06
0.000127214
0.000127077
0.000126629
0.00012512
0.000120653
0.000109586
8.72826e-05
5.15555e-05
9.17406e-06
0.000121378
0.00012122
0.000120806
0.000119475
0.000115512
0.000105501
8.48134e-05
5.07355e-05
9.16106e-06
0.000107376
0.000107224
0.000106908
0.000105947
0.000103012
9.52363e-05
7.82261e-05
4.83198e-05
9.1187e-06
8.29051e-05
8.27717e-05
8.26478e-05
8.24592e-05
8.19492e-05
8.03383e-05
7.57148e-05
6.4553e-05
4.24926e-05
8.99715e-06
4.76132e-05
4.75306e-05
4.74621e-05
4.73874e-05
4.72335e-05
4.67464e-05
4.51775e-05
4.07587e-05
3.01434e-05
8.68853e-06
8.0827e-06
8.0754e-06
8.06957e-06
8.06472e-06
8.05969e-06
8.0502e-06
8.02104e-06
7.92585e-06
7.66057e-06
7.62918e-06
8.069e-06
8.06467e-06
8.06099e-06
8.05687e-06
8.04811e-06
8.01963e-06
7.92528e-06
7.66093e-06
7.63087e-06
4.67102e-05
4.68336e-05
4.691e-05
4.68743e-05
4.64808e-05
4.49913e-05
4.06496e-05
3.01168e-05
8.69152e-06
8.19173e-05
8.19943e-05
8.19648e-05
8.15825e-05
8.00774e-05
7.55489e-05
6.44802e-05
4.25003e-05
9.0011e-06
0.0001067
0.00010671
0.000106523
0.000105665
0.000102812
9.51048e-05
7.81594e-05
4.83165e-05
9.12182e-06
0.000121002
0.000120939
0.000120599
0.000119322
0.000115389
0.000105384
8.47071e-05
5.06832e-05
9.16193e-06
0.000127166
0.000127051
0.000126615
0.000125102
0.000120602
0.000109475
8.71264e-05
5.14496e-05
9.17245e-06
0.00012726
0.000127124
0.000126669
0.000125138
0.000120621
0.000109474
8.71109e-05
5.14327e-05
9.17141e-06
0.000121401
0.000121247
0.000120831
0.000119486
0.000115486
0.000105415
8.46821e-05
5.06406e-05
9.15908e-06
0.000107372
0.000107228
0.000106915
0.000105948
0.000102995
9.51868e-05
7.81515e-05
4.82644e-05
9.11776e-06
8.28693e-05
8.27485e-05
8.26336e-05
8.24504e-05
8.19417e-05
8.03258e-05
7.56908e-05
6.45192e-05
4.24629e-05
8.99697e-06
4.75828e-05
4.75086e-05
4.74463e-05
4.7376e-05
4.72248e-05
4.67382e-05
4.51677e-05
4.07467e-05
3.01302e-05
8.68865e-06
8.08167e-06
8.07473e-06
8.06916e-06
8.0645e-06
8.05959e-06
8.05018e-06
8.02103e-06
7.92583e-06
7.66053e-06
7.62951e-06
8.06796e-06
8.06398e-06
8.06057e-06
8.05665e-06
8.04801e-06
8.01959e-06
7.92523e-06
7.66089e-06
7.63108e-06
4.67512e-05
4.68626e-05
4.693e-05
4.68873e-05
4.64875e-05
4.49915e-05
4.06438e-05
3.01083e-05
8.69103e-06
8.19528e-05
8.20208e-05
8.19838e-05
8.15935e-05
8.00781e-05
7.5536e-05
6.44562e-05
4.24796e-05
9.00031e-06
0.000106733
0.000106737
0.000106543
0.000105675
0.000102804
9.50716e-05
7.8109e-05
4.82803e-05
9.12079e-06
0.000121031
0.000120965
0.000120619
0.000119328
0.000115369
0.000105326
8.46249e-05
5.06277e-05
9.16058e-06
0.000127189
0.000127074
0.000126633
0.000125105
0.000120574
0.0001094
8.70231e-05
5.13815e-05
9.17094e-06
0.000127277
0.000127142
0.000126684
0.000125139
0.000120591
0.000109399
8.70086e-05
5.13648e-05
9.17002e-06
0.0001214
0.000121251
0.000120835
0.000119482
0.000115461
0.000105356
8.46016e-05
5.05849e-05
9.15805e-06
0.000107355
0.000107218
0.000106908
0.00010594
0.000102976
9.51495e-05
7.81018e-05
4.82252e-05
9.11735e-06
8.28298e-05
8.27207e-05
8.26142e-05
8.24366e-05
8.19301e-05
8.03121e-05
7.56708e-05
6.44938e-05
4.24384e-05
8.99689e-06
4.7553e-05
4.74867e-05
4.74303e-05
4.73641e-05
4.72156e-05
4.673e-05
4.51588e-05
4.07365e-05
3.01183e-05
8.68873e-06
8.08059e-06
8.07401e-06
8.0687e-06
8.06422e-06
8.05944e-06
8.0501e-06
8.02098e-06
7.92577e-06
7.66046e-06
7.62978e-06
8.06697e-06
8.06332e-06
8.06015e-06
8.0564e-06
8.04788e-06
8.01951e-06
7.92514e-06
7.6608e-06
7.63123e-06
4.67897e-05
4.689e-05
4.69491e-05
4.68998e-05
4.64941e-05
4.49924e-05
4.06391e-05
3.01005e-05
8.69051e-06
8.19844e-05
8.2044e-05
8.2e-05
8.16028e-05
8.00789e-05
7.55262e-05
6.44376e-05
4.24622e-05
8.99953e-06
0.000106759
0.000106757
0.000106557
0.00010568
0.000102797
9.50474e-05
7.80735e-05
4.82537e-05
9.11987e-06
0.000121048
0.00012098
0.00012063
0.000119329
0.000115352
0.000105286
8.45717e-05
5.05916e-05
9.15956e-06
0.000127199
0.000127084
0.00012664
0.000125102
0.000120551
0.00010935
8.69587e-05
5.13393e-05
9.16994e-06
0.00012728
0.000127147
0.000126687
0.000125134
0.000120567
0.00010935
8.6945e-05
5.13219e-05
9.16916e-06
0.000121389
0.000121245
0.00012083
0.000119472
0.000115439
0.000105314
8.45495e-05
5.05453e-05
9.15756e-06
0.000107332
0.000107202
0.000106897
0.000105928
0.000102958
9.51214e-05
7.80667e-05
4.81939e-05
9.11714e-06
8.27904e-05
8.2692e-05
8.25934e-05
8.24212e-05
8.19173e-05
8.02988e-05
7.56539e-05
6.44736e-05
4.24174e-05
8.9968e-06
4.75247e-05
4.74656e-05
4.74146e-05
4.73524e-05
4.72065e-05
4.67221e-05
4.51507e-05
4.07274e-05
3.01073e-05
8.68876e-06
8.07948e-06
8.07324e-06
8.06819e-06
8.0639e-06
8.05925e-06
8.04998e-06
8.02089e-06
7.92567e-06
7.66034e-06
7.62998e-06
8.06603e-06
8.06267e-06
8.05972e-06
8.05612e-06
8.04771e-06
8.01939e-06
7.925e-06
7.66065e-06
7.63129e-06
4.68257e-05
4.69159e-05
4.69671e-05
4.69117e-05
4.65007e-05
4.49936e-05
4.0635e-05
3.00929e-05
8.68999e-06
8.20134e-05
8.20652e-05
8.20147e-05
8.16112e-05
8.00801e-05
7.55186e-05
6.4422e-05
4.24462e-05
8.99876e-06
0.000106781
0.000106773
0.000106569
0.000105685
0.000102791
9.50291e-05
7.80462e-05
4.82312e-05
9.11903e-06
0.000121061
0.00012099
0.000120636
0.000119329
0.00011534
0.000105257
8.45338e-05
5.05636e-05
9.15872e-06
0.000127203
0.000127088
0.000126642
0.000125097
0.000120533
0.000109315
8.69149e-05
5.13076e-05
9.1692e-06
0.000127278
0.000127146
0.000126685
0.000125127
0.000120548
0.000109315
8.69018e-05
5.12876e-05
9.16868e-06
0.000121375
0.000121235
0.000120822
0.000119462
0.00011542
0.000105284
8.45126e-05
5.05125e-05
9.15727e-06
0.000107308
0.000107185
0.000106883
0.000105916
0.000102942
9.50991e-05
7.80398e-05
4.81674e-05
9.11694e-06
8.27526e-05
8.2664e-05
8.25727e-05
8.24056e-05
8.19046e-05
8.02863e-05
7.56393e-05
6.44565e-05
4.23983e-05
8.99667e-06
4.74982e-05
4.74456e-05
4.73996e-05
4.73412e-05
4.71977e-05
4.67145e-05
4.51431e-05
4.07191e-05
3.00969e-05
8.68872e-06
8.07836e-06
8.07245e-06
8.06764e-06
8.06353e-06
8.05901e-06
8.04982e-06
8.02074e-06
7.92553e-06
7.66017e-06
7.63011e-06
8.06515e-06
8.06205e-06
8.05929e-06
8.05583e-06
8.04752e-06
8.01922e-06
7.92481e-06
7.66043e-06
7.63118e-06
4.68594e-05
4.69402e-05
4.69843e-05
4.69231e-05
4.65072e-05
4.49952e-05
4.06313e-05
3.00851e-05
8.68946e-06
8.20405e-05
8.20849e-05
8.20284e-05
8.16192e-05
8.00816e-05
7.55122e-05
6.44081e-05
4.24303e-05
8.99804e-06
0.0001068
0.000106788
0.000106579
0.000105689
0.000102787
9.50144e-05
7.80231e-05
4.82098e-05
9.11826e-06
0.000121071
0.000120998
0.000120641
0.000119328
0.000115329
0.000105235
8.45038e-05
5.05378e-05
9.15802e-06
0.000127205
0.00012709
0.000126642
0.000125092
0.000120518
0.000109288
8.68815e-05
5.12775e-05
9.16873e-06
0.000127274
0.000127144
0.000126682
0.00012512
0.000120533
0.000109289
8.68691e-05
5.12564e-05
9.16837e-06
0.000121359
0.000121224
0.000120813
0.000119452
0.000115405
0.000105261
8.44839e-05
5.04842e-05
9.15699e-06
0.000107284
0.000107167
0.00010687
0.000105903
0.000102928
9.50806e-05
7.80175e-05
4.81437e-05
9.11671e-06
8.27171e-05
8.26374e-05
8.25529e-05
8.23905e-05
8.18923e-05
8.02746e-05
7.56261e-05
6.44412e-05
4.23806e-05
8.9965e-06
4.74736e-05
4.74269e-05
4.73855e-05
4.73304e-05
4.71893e-05
4.67073e-05
4.5136e-05
4.07113e-05
3.0087e-05
8.68862e-06
8.07724e-06
8.07163e-06
8.06706e-06
8.06312e-06
8.05872e-06
8.0496e-06
8.02056e-06
7.92533e-06
7.65994e-06
7.63005e-06
8.06431e-06
8.06144e-06
8.05886e-06
8.05553e-06
8.04729e-06
8.01902e-06
7.92458e-06
7.66008e-06
7.6303e-06
4.68907e-05
4.6963e-05
4.70004e-05
4.6934e-05
4.65135e-05
4.49968e-05
4.06278e-05
3.00768e-05
8.68889e-06
8.20657e-05
8.21033e-05
8.20412e-05
8.16268e-05
8.00833e-05
7.55067e-05
6.43952e-05
4.24135e-05
8.9974e-06
0.000106818
0.000106802
0.000106588
0.000105693
0.000102784
9.50018e-05
7.80024e-05
4.8187e-05
9.11766e-06
0.000121079
0.000121005
0.000120644
0.000119327
0.000115321
0.000105217
8.44778e-05
5.051e-05
9.15759e-06
0.000127205
0.00012709
0.000126641
0.000125088
0.000120507
0.000109267
8.68534e-05
5.1248e-05
9.16837e-06
0.000127269
0.00012714
0.000126679
0.000125114
0.00012052
0.000109267
8.68421e-05
5.12282e-05
9.16803e-06
0.000121344
0.000121213
0.000120804
0.000119442
0.000115391
0.000105241
8.44597e-05
5.04586e-05
9.15669e-06
0.000107262
0.00010715
0.000106857
0.000105892
0.000102916
9.50644e-05
7.79978e-05
4.81219e-05
9.11645e-06
8.26843e-05
8.26126e-05
8.2534e-05
8.23761e-05
8.18806e-05
8.02637e-05
7.5614e-05
6.44271e-05
4.2364e-05
8.99626e-06
4.74509e-05
4.74095e-05
4.73722e-05
4.73202e-05
4.71812e-05
4.67004e-05
4.51292e-05
4.07039e-05
3.00779e-05
8.68835e-06
8.07612e-06
8.07081e-06
8.06646e-06
8.06268e-06
8.05839e-06
8.04934e-06
8.02033e-06
7.92509e-06
7.6596e-06
7.62922e-06
8.06352e-06
8.06085e-06
8.05842e-06
8.0552e-06
8.04703e-06
8.01878e-06
7.92429e-06
7.65936e-06
7.62555e-06
4.69198e-05
4.69843e-05
4.70155e-05
4.69443e-05
4.65195e-05
4.49984e-05
4.06247e-05
3.00677e-05
8.68804e-06
8.20893e-05
8.21206e-05
8.20533e-05
8.1634e-05
8.0085e-05
7.55016e-05
6.43829e-05
4.23942e-05
8.99696e-06
0.000106835
0.000106814
0.000106596
0.000105696
0.000102781
9.49904e-05
7.7983e-05
4.81616e-05
9.11726e-06
0.000121088
0.000121011
0.000120648
0.000119326
0.000115313
0.000105201
8.44543e-05
5.04823e-05
9.15719e-06
0.000127206
0.000127091
0.00012664
0.000125084
0.000120497
0.000109249
8.68287e-05
5.12206e-05
9.16799e-06
0.000127265
0.000127137
0.000126675
0.000125108
0.000120509
0.000109249
8.68185e-05
5.12024e-05
9.16766e-06
0.00012133
0.000121202
0.000120795
0.000119433
0.000115379
0.000105224
8.44383e-05
5.04351e-05
9.15634e-06
0.000107241
0.000107135
0.000106844
0.000105881
0.000102904
9.50497e-05
7.79799e-05
4.81017e-05
9.11613e-06
8.2654e-05
8.25895e-05
8.25164e-05
8.23624e-05
8.18695e-05
8.02533e-05
7.56027e-05
6.4414e-05
4.23486e-05
8.99595e-06
4.74302e-05
4.73934e-05
4.73597e-05
4.73105e-05
4.71735e-05
4.66938e-05
4.51228e-05
4.06971e-05
3.00698e-05
8.68758e-06
8.07502e-06
8.06998e-06
8.06583e-06
8.06221e-06
8.05803e-06
8.04905e-06
8.02005e-06
7.92479e-06
7.6589e-06
7.62446e-06
8.06277e-06
8.06029e-06
8.05799e-06
8.05486e-06
8.04675e-06
8.01851e-06
7.92391e-06
7.6575e-06
7.60336e-06
4.69467e-05
4.70041e-05
4.70297e-05
4.69541e-05
4.65254e-05
4.50002e-05
4.06223e-05
3.006e-05
8.68565e-06
8.21112e-05
8.21368e-05
8.20647e-05
8.16409e-05
8.00869e-05
7.54972e-05
6.43717e-05
4.23756e-05
8.99644e-06
0.000106851
0.000106826
0.000106604
0.0001057
0.000102778
9.49803e-05
7.79653e-05
4.81375e-05
9.11684e-06
0.000121095
0.000121017
0.000120651
0.000119326
0.000115307
0.000105186
8.44329e-05
5.04566e-05
9.15676e-06
0.000127207
0.000127091
0.00012664
0.00012508
0.000120488
0.000109233
8.68064e-05
5.11954e-05
9.16757e-06
0.000127261
0.000127134
0.000126672
0.000125103
0.0001205
0.000109233
8.67971e-05
5.11788e-05
9.16726e-06
0.000121317
0.000121192
0.000120787
0.000119425
0.000115369
0.000105209
8.44188e-05
5.04135e-05
9.15597e-06
0.000107222
0.00010712
0.000106833
0.000105871
0.000102893
9.50362e-05
7.79634e-05
4.8083e-05
9.11577e-06
8.26262e-05
8.25681e-05
8.25e-05
8.23496e-05
8.18589e-05
8.02436e-05
7.55921e-05
6.44019e-05
4.23345e-05
8.99549e-06
4.74111e-05
4.73786e-05
4.73482e-05
4.73014e-05
4.71662e-05
4.66875e-05
4.51168e-05
4.06909e-05
3.00634e-05
8.68521e-06
8.07393e-06
8.06915e-06
8.06519e-06
8.06172e-06
8.05763e-06
8.04871e-06
8.01975e-06
7.9244e-06
7.65704e-06
7.60217e-06
8.06205e-06
8.05972e-06
8.05754e-06
8.0545e-06
8.04644e-06
8.01821e-06
7.92341e-06
7.65311e-06
7.14371e-06
4.69724e-05
4.70232e-05
4.70436e-05
4.69637e-05
4.65314e-05
4.50025e-05
4.06206e-05
3.00547e-05
8.68006e-06
8.21322e-05
8.21525e-05
8.20758e-05
8.16478e-05
8.0089e-05
7.54933e-05
6.43613e-05
4.23583e-05
8.99571e-06
0.000106866
0.000106837
0.000106612
0.000105704
0.000102776
9.49709e-05
7.79485e-05
4.81148e-05
9.11636e-06
0.000121103
0.000121023
0.000120655
0.000119326
0.000115301
0.000105173
8.44128e-05
5.04323e-05
9.15628e-06
0.000127207
0.000127092
0.000126639
0.000125077
0.00012048
0.000109217
8.67855e-05
5.11716e-05
9.1671e-06
0.000127257
0.000127131
0.000126669
0.000125098
0.000120491
0.000109218
8.67771e-05
5.11564e-05
9.16682e-06
0.000121304
0.000121183
0.000120779
0.000119417
0.000115358
0.000105194
8.44003e-05
5.0393e-05
9.15554e-06
0.000107203
0.000107106
0.000106822
0.000105861
0.000102883
9.50234e-05
7.79477e-05
4.80652e-05
9.11536e-06
8.25999e-05
8.25478e-05
8.24842e-05
8.23372e-05
8.18487e-05
8.02341e-05
7.55819e-05
6.43903e-05
4.23214e-05
8.99482e-06
4.73932e-05
4.73645e-05
4.73371e-05
4.72927e-05
4.71591e-05
4.66814e-05
4.51109e-05
4.06851e-05
3.0059e-05
8.67969e-06
8.07283e-06
8.06829e-06
8.06453e-06
8.06119e-06
8.0572e-06
8.04835e-06
8.0194e-06
7.92388e-06
7.65262e-06
7.1425e-06
8.06134e-06
8.05916e-06
8.05709e-06
8.05413e-06
8.04611e-06
8.01787e-06
7.92295e-06
7.65091e-06
7.11838e-06
4.69968e-05
4.70415e-05
4.7057e-05
4.69733e-05
4.65376e-05
4.50052e-05
4.06194e-05
3.00488e-05
8.67725e-06
8.21521e-05
8.21674e-05
8.20866e-05
8.16546e-05
8.00913e-05
7.54901e-05
6.43518e-05
4.23421e-05
8.99508e-06
0.00010688
0.000106848
0.000106619
0.000105707
0.000102775
9.49623e-05
7.7933e-05
4.80938e-05
9.11584e-06
0.00012111
0.000121028
0.000120658
0.000119326
0.000115296
0.000105161
8.43941e-05
5.04099e-05
9.15577e-06
0.000127208
0.000127093
0.000126639
0.000125074
0.000120472
0.000109203
8.67659e-05
5.11496e-05
9.16659e-06
0.000127253
0.000127128
0.000126666
0.000125094
0.000120483
0.000109204
8.67584e-05
5.11358e-05
9.16633e-06
0.000121293
0.000121174
0.000120772
0.00011941
0.000115349
0.000105181
8.4383e-05
5.03741e-05
9.15507e-06
0.000107186
0.000107092
0.000106811
0.000105852
0.000102873
9.50112e-05
7.79329e-05
4.80487e-05
9.11491e-06
8.25752e-05
8.25285e-05
8.24691e-05
8.23252e-05
8.18388e-05
8.0225e-05
7.55722e-05
6.43792e-05
4.23089e-05
8.99424e-06
4.73764e-05
4.73513e-05
4.73266e-05
4.72843e-05
4.71523e-05
4.66755e-05
4.51053e-05
4.06793e-05
3.00536e-05
8.67693e-06
8.07171e-06
8.06742e-06
8.06383e-06
8.06062e-06
8.05674e-06
8.04795e-06
8.01903e-06
7.9234e-06
7.65045e-06
7.11751e-06
8.06068e-06
8.05862e-06
8.05664e-06
8.05374e-06
8.04576e-06
8.01753e-06
7.92254e-06
7.65e-06
7.11311e-06
4.70188e-05
4.70581e-05
4.70694e-05
4.69823e-05
4.65437e-05
4.50082e-05
4.06187e-05
3.00426e-05
8.6762e-06
8.21702e-05
8.21812e-05
8.20966e-05
8.16611e-05
8.00939e-05
7.54875e-05
6.43435e-05
4.23276e-05
8.99454e-06
0.000106893
0.000106858
0.000106626
0.000105711
0.000102774
9.49549e-05
7.79192e-05
4.80751e-05
9.11531e-06
0.000121117
0.000121033
0.000120661
0.000119326
0.000115292
0.00010515
8.43773e-05
5.039e-05
9.15523e-06
0.000127209
0.000127093
0.000126639
0.000125072
0.000120466
0.000109191
8.67485e-05
5.11302e-05
9.16607e-06
0.00012725
0.000127126
0.000126664
0.00012509
0.000120475
0.000109192
8.67416e-05
5.11175e-05
9.16582e-06
0.000121282
0.000121165
0.000120765
0.000119403
0.00011534
0.000105168
8.43674e-05
5.03573e-05
9.15458e-06
0.00010717
0.00010708
0.000106801
0.000105843
0.000102864
9.50001e-05
7.79194e-05
4.80339e-05
9.11443e-06
8.25529e-05
8.25109e-05
8.24553e-05
8.23142e-05
8.18296e-05
8.02165e-05
7.55631e-05
6.4369e-05
4.22975e-05
8.99375e-06
4.73611e-05
4.73392e-05
4.73169e-05
4.72765e-05
4.71459e-05
4.667e-05
4.51e-05
4.06738e-05
3.00474e-05
8.67591e-06
8.07063e-06
8.06656e-06
8.06314e-06
8.06005e-06
8.05626e-06
8.04753e-06
8.01863e-06
7.92297e-06
7.64956e-06
7.11234e-06
8.06005e-06
8.0581e-06
8.0562e-06
8.05336e-06
8.04541e-06
8.01718e-06
7.92214e-06
7.64943e-06
7.11197e-06
4.70385e-05
4.70731e-05
4.70807e-05
4.69906e-05
4.65495e-05
4.50113e-05
4.06183e-05
3.00369e-05
8.67565e-06
8.21866e-05
8.21936e-05
8.21057e-05
8.16672e-05
8.00965e-05
7.54855e-05
6.43362e-05
4.23148e-05
8.99402e-06
0.000106905
0.000106867
0.000106633
0.000105714
0.000102773
9.49485e-05
7.7907e-05
4.80587e-05
9.11476e-06
0.000121123
0.000121038
0.000120664
0.000119327
0.000115288
0.00010514
8.43625e-05
5.03725e-05
9.15468e-06
0.00012721
0.000127094
0.000126639
0.00012507
0.00012046
0.00010918
8.6733e-05
5.11131e-05
9.16552e-06
0.000127247
0.000127123
0.000126661
0.000125086
0.000120469
0.000109181
8.67267e-05
5.11014e-05
9.16529e-06
0.000121272
0.000121158
0.000120759
0.000119397
0.000115332
0.000105158
8.43536e-05
5.03426e-05
9.15406e-06
0.000107156
0.000107069
0.000106792
0.000105835
0.000102855
9.49901e-05
7.79074e-05
4.8021e-05
9.11394e-06
8.25326e-05
8.24949e-05
8.24425e-05
8.23039e-05
8.1821e-05
8.02086e-05
7.55549e-05
6.43597e-05
4.22872e-05
8.99327e-06
4.73474e-05
4.73281e-05
4.7308e-05
4.72692e-05
4.71399e-05
4.66649e-05
4.50951e-05
4.06686e-05
3.00415e-05
8.67537e-06
8.06956e-06
8.06571e-06
8.06244e-06
8.05947e-06
8.05577e-06
8.0471e-06
8.01822e-06
7.92254e-06
7.64901e-06
7.11126e-06
8.05946e-06
8.05759e-06
8.05577e-06
8.05298e-06
8.04506e-06
8.01682e-06
7.92173e-06
7.64894e-06
7.11151e-06
4.7056e-05
4.70866e-05
4.70909e-05
4.69983e-05
4.6555e-05
4.50144e-05
4.06182e-05
3.0032e-05
8.67517e-06
8.22013e-05
8.22049e-05
8.21141e-05
8.16729e-05
8.00991e-05
7.54841e-05
6.433e-05
4.23037e-05
8.99349e-06
0.000106916
0.000106876
0.000106639
0.000105718
0.000102773
9.49431e-05
7.78964e-05
4.80445e-05
9.1142e-06
0.000121128
0.000121042
0.000120667
0.000119327
0.000115285
0.000105132
8.43495e-05
5.03573e-05
9.15411e-06
0.00012721
0.000127095
0.000126639
0.000125068
0.000120455
0.00010917
8.67193e-05
5.10982e-05
9.16496e-06
0.000127244
0.000127121
0.000126659
0.000125083
0.000120463
0.000109171
8.67137e-05
5.10875e-05
9.16475e-06
0.000121264
0.000121151
0.000120753
0.000119391