/*--------------------------------*- C++ -*----------------------------------*\
| =========                 |                                                 |
| \\      /  F ield         | OpenFOAM: The Open Source CFD Toolbox           |
|  \\    /   O peration     | Version:  2.3.1                                 |
|   \\  /    A nd           | Web:      www.OpenFOAM.org                      |
|    \\/     M anipulation  |                                                 |
\*---------------------------------------------------------------------------*/
FoamFile
{
    version     2.0;
    format      ascii;
    class       surfaceScalarField;
    location    "10";
    object      phi;
}
// * * * * * * * * * * * * * * * * * * * * * * * * * * * * * * * * * * * * * //

dimensions      [0 3 -1 0 0 0 0];

internalField   nonuniform List<scalar> 
108008
(
7.11929e-08
1.30216e-07
4.25015e-08
6.44707e-08
9.52425e-08
3.44707e-08
5.59963e-08
6.97792e-08
2.8353e-08
4.66769e-08
5.14236e-08
2.37539e-08
3.69683e-08
3.83034e-08
2.03289e-08
2.72121e-08
2.93208e-08
1.78399e-08
1.72399e-08
2.28505e-08
1.60002e-08
8.4911e-09
2.04163e-08
1.37566e-08
1.62825e-08
1.06177e-08
3.48308e-08
1.16037e-07
4.54938e-08
4.18792e-08
8.56267e-08
3.75405e-08
4.30483e-08
6.28719e-08
3.12015e-08
4.04772e-08
4.61521e-08
2.61982e-08
3.55489e-08
3.40273e-08
2.23246e-08
2.91445e-08
2.53364e-08
1.93714e-08
2.17984e-08
1.94101e-08
1.72569e-08
1.3755e-08
1.5286e-08
1.5608e-08
6.75266e-09
1.36604e-08
1.37582e-08
1.21532e-08
1.08819e-08
9.52923e-09
5.4631e-08
3.77671e-08
2.27878e-08
4.03931e-08
3.1975e-08
2.88845e-08
2.96038e-08
2.71714e-08
3.01147e-08
2.16626e-08
2.32593e-08
2.8122e-08
1.58852e-08
2.01348e-08
2.3994e-08
1.17474e-08
1.7717e-08
1.85091e-08
8.94433e-09
1.59507e-08
1.20168e-08
7.06136e-09
1.4717e-08
5.66092e-09
6.48202e-09
1.35342e-08
6.25359e-09
1.15606e-08
-2.51831e-09
2.80449e-08
1.34027e-08
2.4472e-08
2.16639e-08
2.13427e-08
2.4655e-08
1.86716e-08
2.40679e-08
1.64723e-08
2.10921e-08
1.47232e-08
1.66151e-08
1.34213e-08
1.11411e-08
1.25354e-08
5.53853e-09
1.20846e-08
1.17921e-08
7.30235e-08
1.32855e-07
8.42053e-08
6.63399e-08
9.72807e-08
6.84425e-08
5.777e-08
7.13385e-08
5.64132e-08
4.82888e-08
5.2609e-08
4.7327e-08
3.84171e-08
3.92262e-08
4.05302e-08
2.85821e-08
3.0008e-08
3.54931e-08
1.87573e-08
2.35241e-08
3.17292e-08
9.84063e-09
2.08478e-08
2.75581e-08
1.68921e-08
2.2703e-08
3.64174e-08
1.20399e-07
8.96637e-08
4.36139e-08
8.90588e-08
7.41401e-08
4.47888e-08
6.5568e-08
6.17392e-08
4.21179e-08
4.82762e-08
5.19314e-08
3.70332e-08
3.57115e-08
4.43069e-08
3.04569e-08
2.66956e-08
3.84783e-08
2.30412e-08
2.05015e-08
3.41791e-08
1.50939e-08
1.62063e-08
3.08732e-08
7.91146e-09
1.43495e-08
2.7439e-08
1.25936e-08
2.30919e-08
1.10421e-08
5.88377e-08
7.54078e-08
2.43975e-08
4.37214e-08
6.3957e-08
3.04718e-08
3.22473e-08
5.44177e-08
3.15952e-08
2.37795e-08
4.66326e-08
2.9435e-08
1.76013e-08
4.04051e-08
2.51183e-08
1.31627e-08
3.55667e-08
1.94848e-08
1.01189e-08
3.19667e-08
1.29887e-08
8.04276e-09
2.93767e-08
6.54794e-09
7.22235e-09
2.7102e-08
6.59583e-09
2.41062e-08
-1.20817e-09
6.01258e-08
1.47862e-08
5.21992e-08
2.30043e-08
4.53719e-08
2.58851e-08
3.95703e-08
2.51406e-08
3.48181e-08
2.19758e-08
3.10507e-08
1.72972e-08
2.82187e-08
1.16283e-08
2.6247e-08
5.87173e-09
2.50635e-08
2.42597e-08
7.1455e-08
1.32317e-07
1.23649e-07
6.53507e-08
9.7091e-08
1.00793e-07
5.71897e-08
7.13333e-08
8.32872e-08
4.80118e-08
5.2692e-08
6.99972e-08
3.84035e-08
3.9359e-08
6.00079e-08
2.8853e-08
3.01542e-08
5.25076e-08
1.94001e-08
2.37478e-08
4.68946e-08
1.06733e-08
2.10779e-08
4.11201e-08
1.72496e-08
3.57506e-08
3.519e-08
1.21364e-07
1.31244e-07
4.27731e-08
9.00475e-08
1.08827e-07
4.42518e-08
6.65043e-08
9.08473e-08
4.18109e-08
4.91268e-08
7.65788e-08
3.69095e-08
3.64637e-08
6.54366e-08
3.05051e-08
2.73563e-08
5.68854e-08
2.33102e-08
2.10651e-08
5.04631e-08
1.56575e-08
1.66972e-08
4.55765e-08
8.59096e-09
1.47319e-08
4.08516e-08
1.28537e-08
3.60788e-08
1.04065e-08
6.07828e-08
1.11937e-07
2.3917e-08
4.53665e-08
9.51275e-08
3.01318e-08
3.36456e-08
8.10616e-08
3.13784e-08
2.49641e-08
6.95486e-08
2.93222e-08
1.86084e-08
6.03167e-08
2.51093e-08
1.4023e-08
5.31129e-08
1.96133e-08
1.08455e-08
4.76824e-08
1.33247e-08
8.63964e-09
4.37228e-08
7.00498e-09
7.66299e-09
4.04906e-08
6.79518e-09
3.71697e-08
-1.81068e-09
9.41732e-08
1.42259e-08
8.15291e-08
2.25249e-08
7.07185e-08
2.55006e-08
6.15587e-08
2.48492e-08
5.40779e-08
2.17731e-08
4.81498e-08
1.71835e-08
4.36539e-08
1.16076e-08
4.04625e-08
5.93739e-09
3.83967e-08
3.69922e-08
6.82163e-08
1.30446e-07
1.60285e-07
6.3016e-08
9.59928e-08
1.31131e-07
5.55372e-08
7.07063e-08
1.08686e-07
4.68898e-08
5.23474e-08
9.15526e-08
3.77248e-08
3.9192e-08
7.86131e-08
2.85691e-08
3.01061e-08
6.88223e-08
1.94845e-08
2.38171e-08
6.15326e-08
1.09853e-08
2.13208e-08
5.44937e-08
1.7541e-08
4.92536e-08
3.23189e-08
1.20429e-07
1.6991e-07
4.05425e-08
8.96666e-08
1.41383e-07
4.25585e-08
6.64488e-08
1.18375e-07
4.0559e-08
4.92502e-08
1.00034e-07
3.60267e-08
3.66732e-08
8.56431e-08
2.99513e-08
2.76006e-08
7.45522e-08
2.30702e-08
2.13105e-08
6.61398e-08
1.57174e-08
1.6936e-08
5.98105e-08
8.82947e-09
1.49787e-08
5.40817e-08
1.30929e-08
4.93564e-08
8.32798e-09
6.10809e-08
1.46944e-07
2.21909e-08
4.57634e-08
1.25168e-07
2.87377e-08
3.40996e-08
1.06864e-07
3.029e-08
2.54197e-08
9.18269e-08
2.85073e-08
1.90408e-08
7.97318e-08
2.45492e-08
1.44167e-08
7.02547e-08
1.93044e-08
1.11875e-08
6.30502e-08
1.32613e-08
8.91825e-09
5.77836e-08
7.09766e-09
7.89135e-09
5.37416e-08
6.96123e-09
5.0399e-08
-3.75377e-09
1.28374e-07
1.24942e-08
1.11045e-07
2.1058e-08
9.62542e-08
2.43027e-08
8.37337e-08
2.39067e-08
7.35147e-08
2.1068e-08
6.54053e-08
1.66986e-08
5.92107e-08
1.13191e-08
5.47603e-08
5.82069e-09
5.17865e-08
4.97742e-08
6.35764e-08
1.27361e-07
1.93731e-07
5.95517e-08
9.40489e-08
1.59177e-07
5.29836e-08
6.9487e-08
1.32404e-07
4.50521e-08
5.15847e-08
1.11848e-07
3.64681e-08
3.87244e-08
9.62541e-08
2.77842e-08
2.98483e-08
8.44143e-08
1.9077e-08
2.3728e-08
7.56681e-08
1.08604e-08
2.15547e-08
6.76993e-08
1.7823e-08
6.28279e-08
2.80102e-08
1.17844e-07
2.05323e-07
3.71034e-08
8.80831e-08
1.71567e-07
3.98661e-08
6.55144e-08
1.44147e-07
3.84938e-08
4.87232e-08
1.22171e-07
3.44888e-08
3.63937e-08
1.04839e-07
2.88668e-08
2.74693e-08
9.14293e-08
2.23721e-08
2.12718e-08
8.1211e-08
1.53388e-08
1.69577e-08
7.3614e-08
8.71137e-09
1.51118e-08
6.7152e-08
1.32642e-08
6.26265e-08
4.96398e-09
6.01015e-08
1.79901e-07
1.9368e-08
4.51903e-08
1.53657e-07
2.64238e-08
3.38156e-08
1.31507e-07
2.84457e-08
2.53039e-08
1.13224e-07
2.70833e-08
1.90223e-08
9.84657e-08
2.35044e-08
1.44464e-08
8.68565e-08
1.86025e-08
1.12365e-08
7.79874e-08
1.28549e-08
8.96777e-09
7.15212e-08
6.92221e-09
7.9768e-09
6.68093e-08
7.07072e-09
6.35148e-08
-6.84716e-09
1.61302e-07
9.76952e-09
1.39618e-07
1.87626e-08
1.21077e-07
2.24254e-08
1.05375e-07
2.24209e-08
9.25415e-08
1.99399e-08
8.23327e-08
1.58944e-08
7.44926e-08
1.08008e-08
6.88218e-08
5.56904e-09
6.4995e-08
6.24139e-08
5.77051e-08
1.23172e-07
2.23697e-07
5.50788e-08
9.13199e-08
1.84704e-07
4.96152e-08
6.77066e-08
1.54268e-07
4.25589e-08
5.04183e-08
1.30756e-07
3.46755e-08
3.79613e-08
1.12846e-07
2.65353e-08
2.93763e-08
9.92495e-08
1.82391e-08
2.34765e-08
8.92882e-08
1.03758e-08
2.1753e-08
8.07275e-08
1.81046e-08
7.61666e-08
2.24191e-08
1.13879e-07
2.37115e-07
3.25739e-08
8.54781e-08
1.99106e-07
3.62648e-08
6.38272e-08
1.67949e-07
3.56833e-08
4.76358e-08
1.42823e-07
3.23455e-08
3.56927e-08
1.22903e-07
2.72875e-08
2.70161e-08
1.07433e-07
2.12512e-08
2.09914e-08
9.56322e-08
1.45817e-08
1.67977e-08
8.69623e-08
8.31486e-09
1.51412e-08
8.00307e-08
1.33432e-08
7.57027e-08
4.24516e-10
5.81812e-08
2.1026e-07
1.55531e-08
4.39032e-08
1.80103e-07
2.32737e-08
3.29874e-08
1.54626e-07
2.59106e-08
2.47693e-08
1.33454e-07
2.50989e-08
1.86762e-08
1.16294e-07
2.20097e-08
1.42163e-08
1.02746e-07
1.75364e-08
1.10832e-08
9.2369e-08
1.21513e-08
8.86653e-09
8.48374e-08
6.54875e-09
7.96981e-09
7.95832e-08
7.12203e-09
7.62847e-08
-1.09579e-08
1.91896e-07
6.15661e-09
1.66407e-07
1.57219e-08
1.44499e-07
1.99327e-08
1.25933e-07
2.04393e-08
1.10711e-07
1.84219e-08
9.85664e-08
1.47924e-08
8.92054e-08
1.00699e-08
8.24108e-08
5.20019e-09
7.78345e-08
7.47362e-08
5.07609e-08
1.18036e-07
2.49969e-07
4.97076e-08
8.79018e-08
2.07523e-07
4.55094e-08
6.54254e-08
1.74122e-07
3.94659e-08
4.88864e-08
1.48155e-07
3.23926e-08
3.69277e-08
1.28298e-07
2.48727e-08
2.87034e-08
1.13268e-07
1.70469e-08
2.30668e-08
1.02338e-07
9.60983e-09
2.18845e-08
9.35485e-08
1.83504e-08
8.906e-08
1.57125e-08
1.08831e-07
2.65019e-07
2.70771e-08
8.20414e-08
2.23737e-07
3.18447e-08
6.15261e-08
1.89557e-07
3.21941e-08
4.60894e-08
1.6181e-07
2.96471e-08
3.46466e-08
1.39689e-07
2.52551e-08
2.63014e-08
1.22451e-07
1.9755e-08
2.05146e-08
1.09321e-07
1.35178e-08
1.64891e-08
9.97772e-08
7.71586e-09
1.5069e-08
9.26481e-08
1.33207e-08
8.84483e-08
-5.02297e-09
5.55817e-08
2.37436e-07
1.0863e-08
4.21087e-08
2.0415e-07
1.93777e-08
3.17662e-08
1.75871e-07
2.27527e-08
2.39354e-08
1.52233e-07
2.26057e-08
1.80995e-08
1.32988e-07
2.01058e-08
1.3808e-08
1.17739e-07
1.6145e-08
1.07955e-08
1.06049e-07
1.12032e-08
8.66821e-09
9.76e-08
6.035e-09
7.897e-09
9.19235e-08
7.11424e-09
8.85262e-08
-1.59389e-08
2.19398e-07
1.76421e-09
1.90812e-07
1.20258e-08
1.66004e-07
1.68932e-08
1.45001e-07
1.80132e-08
1.27691e-07
1.65531e-08
1.13834e-07
1.34245e-08
1.03129e-07
9.15824e-09
9.53453e-08
4.73805e-09
9.01517e-08
8.65884e-08
4.29178e-08
1.12144e-07
2.72406e-07
4.35619e-08
8.39185e-08
2.2749e-07
4.07546e-08
6.27255e-08
1.91834e-07
3.58395e-08
4.70444e-08
1.63929e-07
2.96779e-08
3.56614e-08
1.42511e-07
2.28627e-08
2.78499e-08
1.26384e-07
1.55889e-08
2.25063e-08
1.14723e-07
8.6412e-09
2.1895e-08
1.06112e-07
1.85234e-08
1.01351e-07
8.07715e-09
1.02981e-07
2.88827e-07
2.07587e-08
7.7983e-08
2.45216e-07
2.67147e-08
5.87537e-08
2.08766e-07
2.81079e-08
4.41878e-08
1.78954e-07
2.6457e-08
3.33331e-08
1.55051e-07
2.28251e-08
2.53846e-08
1.3636e-07
1.79444e-08
1.98832e-08
1.22168e-07
1.22251e-08
1.60589e-08
1.11944e-07
6.97914e-09
1.48853e-08
1.04904e-07
1.31918e-08
1.00759e-07
-1.12953e-08
5.253e-08
2.6103e-07
5.42768e-09
3.99705e-08
2.25439e-07
1.48433e-08
3.02718e-08
1.94938e-07
1.90548e-08
2.28967e-08
1.69312e-07
1.9668e-08
1.73667e-08
1.48341e-07
1.78451e-08
1.32823e-08
1.31664e-07
1.44772e-08
1.04208e-08
1.18879e-07
1.00628e-08
8.40629e-09
1.09667e-07
5.42152e-09
7.76607e-09
1.03684e-07
7.04632e-09
1.00093e-07
-2.16184e-08
2.43314e-07
-3.22704e-09
2.12392e-07
7.77611e-09
1.85272e-07
1.33871e-08
1.62287e-07
1.52034e-08
1.43241e-07
1.43811e-08
1.27939e-07
1.18304e-08
1.16101e-07
8.09988e-09
1.07482e-07
4.20273e-09
1.01815e-07
9.78375e-08
3.43699e-08
1.05705e-07
2.9094e-07
3.6784e-08
7.95083e-08
2.44506e-07
3.5456e-08
5.97006e-08
2.07297e-07
3.1761e-08
4.49569e-08
1.77977e-07
2.66019e-08
3.42076e-08
1.55385e-07
2.05842e-08
2.68392e-08
1.38487e-07
1.39625e-08
2.1803e-08
1.26316e-07
7.56189e-09
2.16835e-08
1.18319e-07
1.85727e-08
1.12919e-07
-3.10666e-10
9.65924e-08
3.08432e-07
1.37854e-08
7.35013e-08
2.63324e-07
2.10034e-08
5.56467e-08
2.25409e-07
2.35229e-08
4.20303e-08
1.94105e-07
2.28526e-08
3.18247e-08
1.68854e-07
2.00645e-08
2.43204e-08
1.49035e-07
1.58898e-08
1.91335e-08
1.34049e-07
1.07844e-08
1.55296e-08
1.23323e-07
6.16096e-09
1.45692e-08
1.16642e-07
1.29563e-08
1.12536e-07
-1.81935e-08
4.92036e-08
2.80781e-07
-6.13205e-10
3.76212e-08
2.43739e-07
9.79152e-09
2.86061e-08
2.11573e-07
1.4913e-08
2.17268e-08
1.84494e-07
1.63608e-08
1.65346e-08
1.62184e-07
1.5289e-08
1.26839e-08
1.44372e-07
1.25875e-08
9.99169e-09
1.30722e-07
8.78012e-09
8.10181e-09
1.20902e-07
4.7381e-09
7.57357e-09
1.14722e-07
6.91493e-09
1.10873e-07
-2.78224e-08
2.63373e-07
-8.68314e-09
2.30873e-07
3.07694e-09
2.02118e-07
9.5026e-09
1.77588e-07
1.20769e-08
1.57201e-07
1.19585e-08
1.40741e-07
1.00528e-08
1.27998e-07
6.92898e-09
1.18708e-07
3.61234e-09
1.12705e-07
1.08365e-07
2.53263e-08
9.89109e-08
3.0559e-07
2.95312e-08
7.48101e-08
2.58527e-07
2.97318e-08
5.64461e-08
2.20443e-07
2.73225e-08
4.26898e-08
1.90217e-07
2.32425e-08
3.26135e-08
1.66827e-07
1.81199e-08
2.56972e-08
1.49447e-07
1.22673e-08
2.0968e-08
1.36955e-07
6.50972e-09
2.11178e-08
1.29918e-07
1.82281e-08
1.23644e-07
-8.99693e-09
8.98946e-08
3.23666e-07
6.34062e-09
6.87915e-08
2.78106e-07
1.48547e-08
5.23243e-08
2.39381e-07
1.85494e-08
3.97054e-08
2.07151e-07
1.89207e-08
3.01862e-08
1.80986e-07
1.70461e-08
2.31566e-08
1.60366e-07
1.36626e-08
1.82965e-08
1.44833e-07
9.27207e-09
1.49206e-08
1.33761e-07
5.3138e-09
1.40961e-08
1.27621e-07
1.26109e-08
1.23467e-07
-2.55067e-08
4.57427e-08
2.96555e-07
-6.96623e-09
3.51574e-08
2.58833e-07
4.35001e-09
2.68554e-08
2.25726e-07
1.0431e-08
2.04798e-08
1.97639e-07
1.27647e-08
1.56446e-08
1.74392e-07
1.25023e-08
1.20442e-08
1.55747e-07
1.05301e-08
9.52934e-09
1.41462e-07
7.39858e-09
7.76788e-09
1.31186e-07
4.00644e-09
7.31124e-09
1.24899e-07
6.71218e-09
1.20778e-07
-3.43724e-08
2.7948e-07
-1.44933e-08
2.46152e-07
-1.94037e-09
2.16421e-07
5.32516e-09
1.90802e-07
8.70201e-09
1.69469e-07
9.33879e-09
1.52149e-07
8.13381e-09
1.38733e-07
5.67664e-09
1.28933e-07
2.9824e-09
1.22711e-07
1.18059e-07
1.84768e-07
3.68675e-08
5.79586e-07
1.47529e-07
2.72584e-08
4.49215e-07
1.15914e-07
2.00471e-08
3.54417e-07
8.93128e-08
1.47424e-08
2.85786e-07
6.67405e-08
1.10197e-08
2.36326e-07
4.72329e-08
8.42177e-09
2.01367e-07
2.98442e-08
6.73891e-09
1.7761e-07
1.42666e-08
5.15776e-09
1.63094e-07
4.1176e-09
1.54582e-07
1.784e-07
6.77435e-08
5.6741e-07
1.4414e-07
5.10466e-08
4.42527e-07
1.14327e-07
3.82274e-08
3.5062e-07
8.87981e-08
2.85983e-08
2.83383e-07
6.69467e-08
2.15901e-08
2.34742e-07
4.79974e-08
1.6569e-08
2.00407e-07
3.10727e-08
1.32406e-08
1.77315e-07
1.55264e-08
1.035e-08
1.63667e-07
9.37014e-09
1.56472e-07
1.70557e-07
1.02483e-07
5.57079e-07
1.36884e-07
7.56153e-08
4.32059e-07
1.0845e-07
5.57729e-08
3.41684e-07
8.45219e-08
4.13073e-08
2.76384e-07
6.42042e-08
3.096e-08
2.2951e-07
4.6592e-08
2.36172e-08
1.96635e-07
3.06584e-08
1.88556e-08
1.74531e-07
1.59718e-08
1.43561e-08
1.61819e-07
1.47372e-08
1.54433e-07
1.45815e-07
1.2257e-07
5.15597e-07
1.20058e-07
9.10806e-08
4.06415e-07
9.69516e-08
6.76952e-08
3.25378e-07
7.66536e-08
5.04608e-08
2.65643e-07
5.88903e-08
3.79531e-08
2.22234e-07
4.31265e-08
2.89505e-08
1.91627e-07
2.84907e-08
2.32627e-08
1.70849e-07
1.49414e-08
1.69448e-08
1.59441e-07
1.51997e-07
1.23162e-07
1.3743e-07
4.81972e-07
1.02421e-07
1.01948e-07
3.82043e-07
8.35986e-08
7.56328e-08
3.07998e-07
6.68161e-08
5.6324e-08
2.53448e-07
5.17576e-08
4.23956e-08
2.13686e-07
3.77497e-08
3.24421e-08
1.8568e-07
2.43858e-08
2.60972e-08
1.66203e-07
2.02811e-08
1.60108e-07
9.29414e-08
1.38798e-07
4.34399e-07
8.05375e-08
1.03761e-07
3.50988e-07
6.77176e-08
7.74557e-08
2.87405e-07
5.52617e-08
5.79664e-08
2.39529e-07
4.33686e-08
4.3831e-08
2.04116e-07
3.16018e-08
3.37785e-08
1.79062e-07
2.00062e-08
2.72503e-08
1.61268e-07
2.22802e-08
1.58112e-07
6.48691e-08
1.31444e-07
3.91663e-07
5.9229e-08
9.87114e-08
3.21465e-07
5.17751e-08
7.40142e-08
2.67088e-07
4.34591e-08
5.56392e-08
2.25498e-07
3.47459e-08
4.22674e-08
1.94315e-07
2.53568e-08
3.28737e-08
1.72165e-07
1.56664e-08
2.66492e-08
1.56172e-07
2.39617e-08
1.55548e-07
3.82504e-08
1.15021e-07
3.50721e-07
3.90923e-08
8.6966e-08
2.93465e-07
3.66749e-08
6.55955e-08
2.47866e-07
3.222e-08
4.96013e-08
2.12223e-07
2.64664e-08
3.79178e-08
1.8505e-07
1.92252e-08
3.00049e-08
1.65678e-07
1.12098e-08
2.45721e-08
1.51738e-07
2.54848e-08
1.54546e-07
1.6001e-08
9.19639e-08
3.16423e-07
2.19687e-08
6.99561e-08
2.6957e-07
2.3708e-08
5.30536e-08
2.31246e-07
2.26208e-08
4.0309e-08
2.00597e-07
1.96764e-08
3.09251e-08
1.76764e-07
1.55439e-08
2.44538e-08
1.59131e-07
1.05872e-08
2.00207e-08
1.46463e-07
5.75598e-09
1.99795e-08
1.40254e-07
1.71144e-08
1.33323e-07
-1.79619e-08
8.31091e-08
3.34658e-07
-1.40122e-09
6.39763e-08
2.89532e-07
8.41284e-09
4.89039e-08
2.50619e-07
1.33016e-08
3.72859e-08
2.1803e-07
1.4751e-08
2.84713e-08
1.91375e-07
1.38409e-08
2.19327e-08
1.70269e-07
1.13259e-08
1.73997e-08
1.54402e-07
7.74604e-09
1.42526e-08
1.43109e-07
4.47373e-09
1.34488e-08
1.37424e-07
1.21552e-08
1.329e-07
-3.3036e-08
4.22576e-08
3.08368e-07
-1.35938e-08
3.26604e-08
2.70706e-07
-1.3523e-09
2.50735e-08
2.37315e-07
5.70937e-09
1.91968e-08
2.08666e-07
8.95998e-09
1.47265e-08
1.84886e-07
9.54765e-09
1.13847e-08
1.65707e-07
8.35409e-09
9.04832e-09
1.51007e-07
5.95336e-09
7.41448e-09
1.40425e-07
3.24318e-09
6.9744e-09
1.34083e-07
6.43586e-09
1.2974e-07
-4.10982e-08
2.91674e-07
-2.05174e-08
2.58231e-07
-7.13124e-09
2.28108e-07
9.31609e-10
2.01936e-07
5.14763e-09
1.7998e-07
6.57362e-09
1.62107e-07
6.11204e-09
1.48243e-07
4.36878e-09
1.3809e-07
2.32539e-09
1.31728e-07
1.26821e-07
1.57649e-07
3.39806e-08
5.78028e-07
1.27812e-07
2.53112e-08
4.53741e-07
1.01618e-07
1.87172e-08
3.61894e-07
7.90145e-08
1.38717e-08
2.94518e-07
5.94463e-08
1.04268e-08
2.45467e-07
4.22654e-08
8.0086e-09
2.10539e-07
2.67694e-08
6.42072e-09
1.86685e-07
1.27951e-08
4.95764e-09
1.72111e-07
3.92885e-09
1.63448e-07
1.52435e-07
6.28762e-08
5.67305e-07
1.25054e-07
4.76165e-08
4.47604e-07
1.00351e-07
3.58362e-08
3.58203e-07
7.86533e-08
2.69365e-08
2.92016e-07
5.97097e-08
2.04212e-08
2.43691e-07
4.30217e-08
1.57383e-08
2.09365e-07
2.79348e-08
1.26083e-08
1.86214e-07
1.397e-08
9.97555e-09
1.72614e-07
8.92224e-09
1.65448e-07
1.44638e-07
9.40778e-08
5.54921e-07
1.18138e-07
6.99905e-08
4.36185e-07
9.48802e-08
5.20027e-08
3.48775e-07
7.47276e-08
3.87658e-08
2.84707e-07
5.72128e-08
2.92232e-08
2.38223e-07
4.17505e-08
2.24281e-08
2.05408e-07
2.75609e-08
1.79971e-08
1.83332e-07
1.43311e-08
1.42324e-08
1.70792e-07
1.41233e-08
1.63563e-07
1.23337e-07
1.12802e-07
5.16694e-07
1.03374e-07
8.44913e-08
4.11878e-07
8.46247e-08
6.32231e-08
3.32907e-07
6.76227e-08
4.73941e-08
2.74017e-07
5.2383e-08
3.58396e-08
2.30857e-07
3.86159e-08
2.75264e-08
2.00296e-07
2.5641e-08
2.2252e-08
1.79569e-07
1.35441e-08
1.73866e-08
1.68383e-07
1.86653e-08
1.60999e-07
1.02699e-07
1.26289e-07
4.83152e-07
8.72604e-08
9.44453e-08
3.87528e-07
7.23995e-08
7.05616e-08
3.15521e-07
5.85936e-08
5.28768e-08
2.61771e-07
4.58438e-08
4.00341e-08
2.22242e-07
3.38941e-08
3.08487e-08
1.94307e-07
2.24259e-08
2.49914e-08
1.74932e-07
1.17553e-08
2.03377e-08
1.67828e-07
2.06947e-08
1.54701e-07
7.60012e-08
1.27886e-07
4.38121e-07
6.76069e-08
9.63009e-08
3.57527e-07
5.79521e-08
7.234e-08
2.95282e-07
4.7989e-08
5.44496e-08
2.47919e-07
3.81159e-08
4.13964e-08
2.12626e-07
2.83161e-08
3.21024e-08
1.87608e-07
1.86084e-08
2.60742e-08
1.69893e-07
9.8113e-09
2.19446e-08
1.65302e-07
2.0987e-08
1.51011e-07
5.06879e-08
1.2123e-07
3.9653e-07
4.82274e-08
9.16822e-08
3.28544e-07
4.33316e-08
6.91662e-08
2.75158e-07
3.70894e-08
5.22794e-08
2.3391e-07
3.01136e-08
3.99168e-08
2.02771e-07
2.25683e-08
3.12024e-08
1.8061e-07
1.47468e-08
2.54126e-08
1.64655e-07
7.63894e-09
2.26099e-08
1.61991e-07
2.02458e-08
1.47698e-07
2.67503e-08
1.06252e-07
3.56968e-07
2.99119e-08
8.08502e-08
3.01136e-07
2.94652e-08
6.13302e-08
2.56149e-07
2.6687e-08
4.66103e-08
2.2067e-07
2.24035e-08
3.57934e-08
1.93457e-07
1.68977e-08
2.8377e-08
1.74009e-07
1.07386e-08
2.3287e-08
1.60023e-07
5.23926e-09
2.26899e-08
1.59965e-07
1.94877e-08
1.48234e-07
6.59198e-09
8.50381e-08
3.23649e-07
1.42566e-08
6.50561e-08
2.77699e-07
1.75099e-08
4.96022e-08
2.3972e-07
1.77512e-08
3.78695e-08
2.09096e-07
1.59742e-08
2.9185e-08
1.8515e-07
1.2901e-08
2.31517e-08
1.67429e-07
8.91769e-09
1.90036e-08
1.5473e-07
5.1549e-09
1.81701e-08
1.48537e-07
1.60242e-08
1.41941e-07
-2.69504e-08
7.63997e-08
3.41586e-07
-9.16338e-09
5.91653e-08
2.97618e-07
1.80942e-09
4.54771e-08
2.59225e-07
7.89165e-09
3.48333e-08
2.26716e-07
1.04294e-08
2.67245e-08
1.99982e-07
1.05121e-08
2.06811e-08
1.7869e-07
8.92211e-09
1.64699e-08
1.62674e-07
6.21026e-09
1.35508e-08
1.51273e-07
3.60172e-09
1.26556e-08
1.45547e-07
1.16524e-08
1.40874e-07
-4.05967e-08
3.88307e-08
3.16345e-07
-2.03256e-08
3.01851e-08
2.79415e-07
-7.12809e-09
2.32958e-08
2.46299e-07
8.34951e-10
1.79161e-08
2.1762e-07
5.02298e-09
1.37998e-08
1.93622e-07
6.48294e-09
1.07206e-08
1.74208e-07
6.10101e-09
8.55998e-09
1.59298e-07
4.46946e-09
7.05161e-09
1.48556e-07
2.45993e-09
6.57939e-09
1.42169e-07
6.12874e-09
1.37724e-07
-4.78478e-08
3.00105e-07
-2.66247e-08
2.67193e-07
-1.24434e-08
2.37223e-07
-3.5484e-09
2.10957e-07
1.47254e-09
1.88758e-07
3.71203e-09
1.70589e-07
4.02111e-09
1.56494e-07
3.0243e-09
1.46139e-07
1.64905e-09
1.39683e-07
1.34598e-07
1.31819e-07
3.11795e-08
5.70393e-07
1.08764e-07
2.33998e-08
4.53396e-07
8.76305e-08
1.74217e-08
3.65605e-07
6.88253e-08
1.30202e-08
3.00303e-07
5.21693e-08
9.84666e-09
2.52276e-07
3.72805e-08
7.60799e-09
2.1782e-07
2.36728e-08
6.11833e-09
1.94174e-07
1.13091e-08
4.76934e-09
1.79705e-07
3.74866e-09
1.71008e-07
1.27579e-07
5.80516e-08
5.61119e-07
1.06494e-07
4.42086e-08
4.47879e-07
8.66079e-08
3.34516e-08
3.6206e-07
6.85797e-08
2.5281e-08
2.97784e-07
5.2466e-08
1.92563e-08
2.50395e-07
3.80117e-08
1.49145e-08
2.16513e-07
2.47627e-08
1.19866e-08
1.93595e-07
1.23889e-08
9.59504e-09
1.80162e-07
8.47076e-09
1.73115e-07
1.20019e-07
8.59962e-08
5.47328e-07
1.00019e-07
6.45173e-08
4.35876e-07
8.15639e-08
4.83e-08
3.52381e-07
6.49937e-08
3.62503e-08
2.90308e-07
5.01943e-08
2.74947e-08
2.44784e-07
3.6856e-08
2.12363e-08
2.12425e-07
2.44196e-08
1.71175e-08
1.90638e-07
1.26662e-08
1.38622e-08
1.78278e-07
1.33117e-08
1.71388e-07
1.01724e-07
1.03357e-07
5.12342e-07
8.70712e-08
7.80409e-08
4.13007e-07
7.24227e-08
5.87976e-08
3.37058e-07
5.85873e-08
4.43322e-08
2.7977e-07
4.58079e-08
3.37187e-08
2.37412e-07
3.40076e-08
2.60806e-08
2.07252e-07
2.2691e-08
2.11799e-08
1.86823e-07
1.19854e-08
1.71902e-08
1.75761e-07
1.74797e-08
1.68817e-07
8.30558e-08
1.15539e-07
4.79447e-07
7.24464e-08
8.71117e-08
3.89066e-07
6.12939e-08
6.55539e-08
3.19917e-07
5.03355e-08
4.94376e-08
2.67624e-07
3.98276e-08
3.76562e-08
2.28812e-07
2.97764e-08
2.92196e-08
2.0122e-07
1.99132e-08
2.38062e-08
1.82168e-07
1.11509e-08
1.98646e-08
1.73916e-07
1.96996e-08
1.63632e-07
5.9555e-08
1.17284e-07
4.37188e-07
5.487e-08
8.89566e-08
3.60367e-07
4.82064e-08
6.72608e-08
3.00238e-07
4.06462e-08
5.09286e-08
2.53989e-07
3.27356e-08
3.894e-08
2.19253e-07
2.46886e-08
3.03869e-08
1.94488e-07
1.64856e-08
2.48289e-08
1.77073e-07
9.5561e-09
2.12374e-08
1.70859e-07
2.03657e-08
1.59901e-07
3.68676e-08
1.11278e-07
3.97254e-07
3.73449e-08
8.47503e-08
3.32273e-07
3.48742e-08
6.43395e-08
2.8055e-07
3.06365e-08
4.89091e-08
2.40168e-07
2.53481e-08
3.75437e-08
2.09455e-07
1.93913e-08
2.94962e-08
1.87458e-07
1.29763e-08
2.41524e-08
1.71747e-07
7.77938e-09
2.14131e-08
1.67012e-07
1.97725e-08
1.56071e-07
1.5446e-08
9.76676e-08
3.59432e-07
2.07725e-08
7.48007e-08
3.05759e-07
2.22121e-08
5.70745e-08
2.61974e-07
2.10672e-08
4.36066e-08
2.27117e-07
1.82179e-08
3.36486e-08
2.00202e-07
1.41666e-08
2.6738e-08
1.80818e-07
9.35387e-09
2.20296e-08
1.66958e-07
5.76207e-09
2.08046e-08
1.64165e-07
1.87816e-08
1.54987e-07
-2.70796e-09
7.82479e-08
3.27517e-07
6.54303e-09
6.02148e-08
2.83034e-07
1.12548e-08
4.61577e-08
2.45926e-07
1.28005e-08
3.54217e-08
2.15735e-07
1.21897e-08
2.74304e-08
1.91979e-07
1.01656e-08
2.18369e-08
1.74354e-07
7.15263e-09
1.79967e-08
1.61776e-07
4.20438e-09
1.6813e-08
1.55477e-07
1.53902e-08
1.49537e-07
-3.57677e-08
6.98859e-08
3.44708e-07
-1.68908e-08
5.44541e-08
3.02535e-07
-4.77162e-09
4.20936e-08
2.65227e-07
2.41799e-09
3.24046e-08
2.3328e-07
6.03411e-09
2.49785e-08
2.06809e-07
7.11317e-09
1.94266e-08
1.85615e-07
6.45688e-09
1.55337e-08
1.69634e-07
4.62777e-09
1.28437e-08
1.58255e-07
2.7049e-09
1.18917e-08
1.52392e-07
1.11397e-08
1.47829e-07
-4.80308e-08
3.55178e-08
3.20695e-07
-2.70226e-08
2.77731e-08
2.85088e-07
-1.2938e-08
2.15507e-08
2.52757e-07
-4.0528e-09
1.66531e-08
2.24487e-07
1.01622e-09
1.28867e-08
2.00645e-07
3.35958e-09
1.00615e-08
1.8123e-07
3.80259e-09
8.07411e-09
1.66315e-07
2.96258e-09
6.68956e-09
1.5555e-07
1.67046e-09
6.19162e-09
1.49161e-07
5.82289e-09
1.44711e-07
-5.44857e-08
3.04994e-07
-3.26984e-08
2.73179e-07
-1.77762e-08
2.43851e-07
-8.06804e-09
2.17902e-07
-2.23904e-09
1.95816e-07
7.96632e-10
1.77614e-07
1.88895e-09
1.63475e-07
1.65717e-09
1.5306e-07
9.62025e-10
1.4657e-07
1.41383e-07
1.07538e-07
2.84911e-08
5.57741e-07
9.05587e-08
2.1528e-08
4.48848e-07
7.4108e-08
1.61687e-08
3.65887e-07
5.88763e-08
1.21785e-08
3.03356e-07
4.50038e-08
9.26942e-09
2.5688e-07
3.23427e-08
7.20658e-09
2.23274e-07
2.0596e-08
5.81464e-09
2.00106e-07
9.83179e-09
4.57622e-09
1.85893e-07
3.58062e-09
1.7726e-07
1.04109e-07
5.33396e-08
5.49849e-07
8.8696e-08
4.08633e-08
4.43957e-07
7.32673e-08
3.10986e-08
3.62558e-07
5.87118e-08
2.36352e-08
3.00882e-07
4.53144e-08
1.80938e-08
2.54968e-07
3.30365e-08
1.40905e-08
2.21907e-07
2.1603e-08
1.13644e-08
1.99479e-07
1.0814e-08
9.19712e-09
1.8633e-07
8.04572e-09
1.79464e-07
9.69266e-08
7.83132e-08
5.3524e-07
8.27073e-08
5.9247e-08
4.31712e-07
6.86612e-08
4.46952e-08
3.52831e-07
5.54538e-08
3.37772e-08
2.93373e-07
4.32509e-08
2.57803e-08
2.49301e-07
3.19797e-08
2.00403e-08
2.17746e-07
2.12826e-08
1.62231e-08
1.96476e-07
1.10206e-08
1.33654e-08
1.84372e-07
1.25866e-08
1.77868e-07
8.12373e-08
9.43343e-08
5.03374e-07
7.1373e-08
7.17963e-08
4.10322e-07
6.05194e-08
5.44601e-08
3.38146e-07
4.96788e-08
4.13109e-08
2.83077e-07
3.92696e-08
3.16088e-08
2.41993e-07
2.9384e-08
2.46171e-08
2.1256e-07
1.97117e-08
2.00758e-08
1.92643e-07
1.03848e-08
1.67147e-08
1.81739e-07
1.64653e-08
1.75323e-07
6.44614e-08
1.05292e-07
4.7159e-07
5.8182e-08
8.00303e-08
3.87112e-07
5.04415e-08
6.06614e-08
3.21456e-07
4.21683e-08
4.60454e-08
2.71163e-07
3.38107e-08
3.52873e-08
2.33491e-07
2.55586e-08
2.75676e-08
2.06521e-07
1.72348e-08
2.25749e-08
1.87993e-07
9.57922e-09
1.9178e-08
1.79108e-07
1.87502e-08
1.70927e-07
4.38302e-08
1.07105e-07
4.32214e-07
4.25165e-08
8.18272e-08
3.59883e-07
3.86353e-08
6.22823e-08
3.02499e-07
3.3352e-08
4.74473e-08
2.5787e-07
2.73239e-08
3.64892e-08
2.24079e-07
2.09174e-08
2.86507e-08
1.99811e-07
1.41388e-08
2.35431e-08
1.82884e-07
8.12589e-09
2.03847e-08
1.75665e-07
1.95992e-08
1.67178e-07
2.36049e-08
1.01702e-07
3.94312e-07
2.67485e-08
7.8008e-08
3.32949e-07
2.65388e-08
5.96006e-08
2.83441e-07
2.42053e-08
4.5573e-08
2.44375e-07
2.05379e-08
3.51766e-08
2.14435e-07
1.60506e-08
2.77798e-08
1.92816e-07
1.09373e-08
2.28786e-08
1.77525e-07
6.53012e-09
2.02787e-08
1.71525e-07
1.90733e-08
1.63127e-07
4.51207e-09
8.93965e-08
3.58532e-07
1.18258e-08
6.89034e-08
3.0755e-07
1.50359e-08
5.28904e-08
2.65474e-07
1.54501e-08
4.06322e-08
2.31644e-07
1.39843e-08
3.15132e-08
2.05331e-07
1.12618e-08
2.51169e-08
1.86204e-07
7.67371e-09
2.07907e-08
1.72634e-07
4.7566e-09
1.92452e-08
1.68116e-07
1.78675e-08
1.60949e-07
-1.16756e-08
7.16838e-08
3.28227e-07
-1.05152e-09
5.5503e-08
2.8581e-07
5.04783e-09
4.27781e-08
2.49939e-07
7.84995e-09
3.30022e-08
2.20563e-07
8.37892e-09
2.56884e-08
1.97275e-07
7.39049e-09
2.05293e-08
1.7993e-07
5.34674e-09
1.70045e-08
1.67606e-07
3.18054e-09
1.56504e-08
1.61238e-07
1.4649e-08
1.55936e-07
-4.42538e-08
6.36512e-08
3.4434e-07
-2.4432e-08
4.99057e-08
3.04491e-07
-1.12454e-08
3.88017e-08
2.68742e-07
-3.00488e-09
3.00294e-08
2.37788e-07
1.63214e-09
2.32662e-08
2.11908e-07
3.69637e-09
1.81866e-08
1.91052e-07
3.9647e-09
1.46063e-08
1.75288e-07
3.02382e-09
1.21395e-08
1.64061e-07
1.81725e-09
1.11597e-08
1.58089e-07
1.05819e-08
1.53714e-07
-5.52041e-08
3.23546e-08
3.21689e-07
-3.35673e-08
2.54517e-08
2.87905e-07
-1.86752e-08
1.98589e-08
2.56808e-07
-8.91044e-09
1.54235e-08
2.29328e-07
-2.96344e-09
1.19961e-08
2.05968e-07
2.19391e-10
9.41839e-09
1.86815e-07
1.48985e-09
7.59548e-09
1.72055e-07
1.45232e-09
6.33051e-09
1.61397e-07
8.86059e-10
5.81886e-09
1.55068e-07
5.50636e-09
1.50673e-07
-6.0895e-08
3.06609e-07
-3.86366e-08
2.76372e-07
-2.30414e-08
2.48115e-07
-1.25668e-08
2.22851e-07
-5.93508e-09
2.01181e-07
-2.11428e-09
1.83212e-07
-2.58917e-10
1.69215e-07
2.85014e-10
1.58847e-07
2.7298e-10
1.52401e-07
1.47163e-07
8.49869e-08
2.59318e-08
5.41043e-07
7.3366e-08
1.97209e-08
4.40748e-07
6.11596e-08
1.49539e-08
3.6314e-07
4.92661e-08
1.13447e-08
3.03905e-07
3.80327e-08
8.69131e-09
2.59422e-07
2.75087e-08
6.79882e-09
2.27e-07
1.75753e-08
5.50467e-09
2.04535e-07
8.38114e-09
4.37309e-09
1.90714e-07
3.42127e-09
1.82219e-07
8.221e-08
4.87968e-08
5.34424e-07
7.18374e-08
3.7613e-08
4.36437e-07
6.04727e-08
2.87969e-08
3.6008e-07
4.91537e-08
2.20096e-08
3.01537e-07
3.8339e-08
1.69384e-08
2.57536e-07
2.81562e-08
1.32644e-08
2.25624e-07
1.84953e-08
1.07398e-08
2.03904e-07
9.26726e-09
8.77834e-09
1.91153e-07
7.63981e-09
1.84513e-07
7.55104e-08
7.1078e-08
5.19508e-07
6.63609e-08
5.4221e-08
4.24253e-07
5.62983e-08
4.12155e-08
3.50475e-07
4.62072e-08
3.13629e-08
2.94111e-07
3.64664e-08
2.40894e-08
2.5189e-07
2.71854e-08
1.88445e-08
2.21447e-07
1.81911e-08
1.53217e-08
2.00888e-07
9.41764e-09
1.27852e-08
1.89138e-07
1.19086e-08
1.83017e-07
6.20586e-08
8.58001e-08
4.9058e-07
5.64514e-08
6.58111e-08
4.04339e-07
4.9063e-08
5.02515e-08
3.36499e-07
4.10121e-08
3.83559e-08
2.84135e-07
3.28548e-08
2.9526e-08
2.44714e-07
2.48162e-08
2.31468e-08
2.16297e-07
1.67537e-08
1.89571e-08
1.9707e-07
8.80901e-09
1.60432e-08
1.86425e-07
1.55164e-08
1.80524e-07
4.70765e-08
9.56227e-08
4.60267e-07
4.46219e-08
7.32634e-08
3.82114e-07
3.99782e-08
5.59316e-08
3.2042e-07
3.42026e-08
4.27324e-08
2.72562e-07
2.78855e-08
3.295e-08
2.36384e-07
2.13377e-08
2.59104e-08
2.10305e-07
1.45038e-08
2.1322e-08
1.92462e-07
7.95711e-09
1.83465e-08
1.83351e-07
1.77912e-08
1.76609e-07
2.90022e-08
9.7441e-08
4.23796e-07
3.06997e-08
7.49859e-08
3.56463e-07
2.93662e-08
5.74569e-08
3.02307e-07
2.62107e-08
4.40429e-08
2.59715e-07
2.19718e-08
3.40712e-08
2.27197e-07
1.71046e-08
2.6915e-08
2.03674e-07
1.16906e-08
2.2237e-08
1.87383e-07
6.60533e-09
1.94293e-08
1.79668e-07
1.87096e-08
1.72865e-07
1.10514e-08
9.26039e-08
3.88116e-07
1.65756e-08
7.15271e-08
3.30883e-07
1.84405e-08
5.50028e-08
2.8403e-07
1.78905e-08
4.23098e-08
2.46658e-07
1.57661e-08
3.28434e-08
2.17788e-07
1.26453e-08
2.60758e-08
1.96776e-07
8.76219e-09
2.15977e-08
1.82047e-07
5.14543e-09
1.91781e-08
1.75393e-07
1.8255e-08
1.68727e-07