/*--------------------------------*- C++ -*----------------------------------*\
| =========                 |                                                 |
| \\      /  F ield         | OpenFOAM: The Open Source CFD Toolbox           |
|  \\    /   O peration     | Version:  2.3.1                                 |
|   \\  /    A nd           | Web:      www.OpenFOAM.org                      |
|    \\/     M anipulation  |                                                 |
\*---------------------------------------------------------------------------*/
FoamFile
{
    version     2.0;
    format      ascii;
    class       surfaceScalarField;
    location    "10";
    object      phi_0;
}
// * * * * * * * * * * * * * * * * * * * * * * * * * * * * * * * * * * * * * //

dimensions      [0 3 -1 0 0 0 0];

internalField   nonuniform List<scalar> 
108008
(
7.11853e-08
1.30134e-07
4.248e-08
6.44611e-08
9.51831e-08
3.44544e-08
5.59864e-08
6.9736e-08
2.83404e-08
4.66678e-08
5.13922e-08
2.37439e-08
3.69608e-08
3.82802e-08
2.03207e-08
2.72064e-08
2.93033e-08
1.78331e-08
1.72365e-08
2.2837e-08
1.59942e-08
8.48943e-09
2.0404e-08
1.37517e-08
1.62729e-08
1.06139e-08
3.4855e-08
1.15967e-07
4.54729e-08
4.18908e-08
8.55742e-08
3.75239e-08
4.30525e-08
6.28333e-08
3.11882e-08
4.04771e-08
4.61238e-08
2.61875e-08
3.55469e-08
3.40066e-08
2.23159e-08
2.91419e-08
2.53211e-08
1.93641e-08
2.17961e-08
1.93985e-08
1.72506e-08
1.37537e-08
1.52769e-08
1.56025e-08
6.75176e-09
1.36522e-08
1.37536e-08
1.21462e-08
1.08784e-08
9.56783e-09
5.45982e-08
3.7752e-08
2.28106e-08
4.03689e-08
3.19625e-08
2.88972e-08
2.95858e-08
2.71609e-08
3.01209e-08
2.16494e-08
2.32506e-08
2.81245e-08
1.58756e-08
2.01275e-08
2.39945e-08
1.17402e-08
1.77108e-08
1.85088e-08
8.93893e-09
1.59453e-08
1.20165e-08
7.05715e-09
1.47121e-08
5.66073e-09
6.47815e-09
1.35298e-08
6.25006e-09
1.15569e-08
-2.47431e-09
2.80362e-08
1.34303e-08
2.44644e-08
2.16803e-08
2.13358e-08
2.4664e-08
1.86656e-08
2.40725e-08
1.64671e-08
2.1094e-08
1.47187e-08
1.66158e-08
1.34172e-08
1.11413e-08
1.25316e-08
5.53844e-09
1.2081e-08
1.17885e-08
7.30157e-08
1.32771e-07
8.41631e-08
6.63298e-08
9.72197e-08
6.84103e-08
5.77596e-08
7.12941e-08
5.6388e-08
4.82792e-08
5.25766e-08
4.73071e-08
3.84091e-08
3.92023e-08
4.0514e-08
2.85759e-08
2.99899e-08
3.54796e-08
1.87533e-08
2.35101e-08
3.17174e-08
9.83846e-09
2.08351e-08
2.75482e-08
1.68821e-08
2.26948e-08
3.64414e-08
1.20326e-07
8.96228e-08
4.36251e-08
8.9004e-08
7.41073e-08
4.47925e-08
6.55276e-08
6.17129e-08
4.21174e-08
4.82465e-08
5.19102e-08
3.70307e-08
3.56896e-08
4.42895e-08
3.04539e-08
2.66794e-08
3.84638e-08
2.30385e-08
2.04891e-08
3.41667e-08
1.50921e-08
1.61966e-08
3.08624e-08
7.91015e-09
1.43409e-08
2.74298e-08
1.25863e-08
2.30844e-08
1.10805e-08
5.88021e-08
7.53777e-08
2.44199e-08
4.36952e-08
6.39319e-08
3.04841e-08
3.22277e-08
5.43967e-08
3.1601e-08
2.3765e-08
4.66151e-08
2.94371e-08
1.75906e-08
4.03904e-08
2.51184e-08
1.31547e-08
3.55542e-08
1.94842e-08
1.01128e-08
3.19559e-08
1.2988e-08
8.038e-09
2.93669e-08
6.54744e-09
7.21808e-09
2.70932e-08
6.59213e-09
2.40984e-08
-1.1646e-09
6.0106e-08
1.48133e-08
5.21816e-08
2.30203e-08
4.53566e-08
2.58938e-08
3.95572e-08
2.51448e-08
3.48067e-08
2.19774e-08
3.10408e-08
1.72975e-08
2.82099e-08
1.16283e-08
2.62389e-08
5.8715e-09
2.50558e-08
2.42521e-08
7.14487e-08
1.32234e-07
1.23588e-07
6.53416e-08
9.70304e-08
1.00746e-07
5.71798e-08
7.1289e-08
8.32504e-08
4.80026e-08
5.26596e-08
6.99679e-08
3.83958e-08
3.9335e-08
5.9984e-08
2.88469e-08
3.01359e-08
5.24877e-08
1.9396e-08
2.37336e-08
4.68773e-08
1.06708e-08
2.1065e-08
4.11054e-08
1.72395e-08
3.57379e-08
3.52148e-08
1.2129e-07
1.31185e-07
4.2785e-08
8.99924e-08
1.08779e-07
4.4256e-08
6.64635e-08
9.08089e-08
4.18107e-08
4.90967e-08
7.65477e-08
3.69072e-08
3.64415e-08
6.54111e-08
3.05022e-08
2.73398e-08
5.68641e-08
2.33075e-08
2.10524e-08
5.0445e-08
1.56556e-08
1.66873e-08
4.55606e-08
8.58945e-09
1.4723e-08
4.0838e-08
1.28463e-08
3.60671e-08
1.04451e-08
6.07463e-08
1.11893e-07
2.39397e-08
4.53394e-08
9.50903e-08
3.01443e-08
3.36252e-08
8.10305e-08
3.13844e-08
2.4949e-08
6.95226e-08
2.93243e-08
1.85972e-08
6.02948e-08
2.51095e-08
1.40146e-08
5.30942e-08
1.96126e-08
1.0839e-08
4.76661e-08
1.33239e-08
8.63458e-09
4.37082e-08
7.00435e-09
7.65851e-09
4.04773e-08
6.79143e-09
3.71577e-08
-1.76693e-09
9.41412e-08
1.42532e-08
8.15008e-08
2.25411e-08
7.06939e-08
2.55095e-08
6.15378e-08
2.48535e-08
5.40598e-08
2.17749e-08
4.8134e-08
1.71839e-08
4.36399e-08
1.16076e-08
4.04498e-08
5.93713e-09
3.83848e-08
3.69807e-08
6.82123e-08
1.30365e-07
1.60207e-07
6.30085e-08
9.59333e-08
1.31071e-07
5.55285e-08
7.06627e-08
1.08639e-07
4.68814e-08
5.23153e-08
9.15146e-08
3.77176e-08
3.91681e-08
7.8582e-08
2.85633e-08
3.00879e-08
6.87963e-08
1.94804e-08
2.38029e-08
6.151e-08
1.09827e-08
2.13078e-08
5.44743e-08
1.75309e-08
4.92362e-08
3.23452e-08
1.20357e-07
1.69835e-07
4.05556e-08
8.96122e-08
1.41322e-07
4.25636e-08
6.64083e-08
1.18326e-07
4.05595e-08
4.92203e-08
9.99942e-08
3.6025e-08
3.6651e-08
8.561e-08
2.99487e-08
2.75839e-08
7.45245e-08
2.30677e-08
2.12977e-08
6.61162e-08
1.57156e-08
1.6926e-08
5.97897e-08
8.82793e-09
1.49698e-08
5.40637e-08
1.30855e-08
4.93404e-08
8.36733e-09
6.10446e-08
1.46887e-07
2.22143e-08
4.57362e-08
1.25119e-07
2.87508e-08
3.40791e-08
1.06823e-07
3.02965e-08
2.54044e-08
9.17927e-08
2.85099e-08
1.90294e-08
7.9703e-08
2.45497e-08
1.44082e-08
7.02301e-08
1.93039e-08
1.11809e-08
6.30287e-08
1.32606e-08
8.91308e-09
5.77643e-08
7.09701e-09
7.88678e-09
5.3724e-08
6.95746e-09
5.03828e-08
-3.70941e-09
1.2833e-07
1.25221e-08
1.11006e-07
2.10747e-08
9.62205e-08
2.4312e-08
8.37049e-08
2.39114e-08
7.34899e-08
2.107e-08
6.53837e-08
1.66992e-08
5.91916e-08
1.13192e-08
5.47429e-08
5.82046e-09
5.17703e-08
4.97586e-08
6.35753e-08
1.27283e-07
1.93639e-07
5.95463e-08
9.39913e-08
1.59105e-07
5.29764e-08
6.94446e-08
1.32347e-07
4.50448e-08
5.15533e-08
1.11802e-07
3.64616e-08
3.87009e-08
9.62164e-08
2.77788e-08
2.98303e-08
8.43827e-08
1.90732e-08
2.3714e-08
7.56405e-08
1.0858e-08
2.15417e-08
6.76755e-08
1.78129e-08
6.2806e-08
2.80385e-08
1.17775e-07
2.05234e-07
3.71182e-08
8.80304e-08
1.71494e-07
3.98726e-08
6.54749e-08
1.44088e-07
3.84954e-08
4.86938e-08
1.22122e-07
3.44878e-08
3.63718e-08
1.04799e-07
2.88648e-08
2.74529e-08
9.13956e-08
2.237e-08
2.12591e-08
8.11822e-08
1.53373e-08
1.69478e-08
7.35886e-08
8.70993e-09
1.51029e-08
6.71298e-08
1.32569e-08
6.26063e-08
5.00456e-09
6.00663e-08
1.79832e-07
1.93926e-08
4.51638e-08
1.53598e-07
2.64378e-08
3.37955e-08
1.31457e-07
2.8453e-08
2.52889e-08
1.13182e-07
2.70865e-08
1.9011e-08
9.84303e-08
2.35054e-08
1.44379e-08
8.68262e-08
1.86023e-08
1.12299e-08
7.7961e-08
1.28545e-08
8.9626e-09
7.14974e-08
6.92163e-09
7.97221e-09
6.67875e-08
7.06696e-09
6.34944e-08
-6.80189e-09
1.61246e-07
9.79838e-09
1.39569e-07
1.87801e-08
1.21034e-07
2.24354e-08
1.05338e-07
2.24262e-08
9.25101e-08
1.99424e-08
8.23054e-08
1.58954e-08
7.44685e-08
1.0801e-08
6.87998e-08
5.5689e-09
6.49746e-08
6.23945e-08
5.77075e-08
1.23098e-07
2.23594e-07
5.5076e-08
9.12647e-08
1.84622e-07
4.961e-08
6.76657e-08
1.54203e-07
4.2553e-08
5.03879e-08
1.30703e-07
3.467e-08
3.79385e-08
1.12803e-07
2.65306e-08
2.93587e-08
9.92128e-08
1.82357e-08
2.34627e-08
8.9256e-08
1.03736e-08
2.17399e-08
8.06993e-08
1.80944e-08
7.61404e-08
2.24501e-08
1.13813e-07
2.37015e-07
3.25909e-08
8.54277e-08
1.99024e-07
3.6273e-08
6.37893e-08
1.67881e-07
3.56863e-08
4.76074e-08
1.42767e-07
3.23456e-08
3.56714e-08
1.22856e-07
2.72863e-08
2.70001e-08
1.07393e-07
2.12497e-08
2.09789e-08
9.55986e-08
1.45806e-08
1.67879e-08
8.69325e-08
8.31362e-09
1.51323e-08
8.00043e-08
1.3336e-08
7.56784e-08
4.67461e-10
5.81477e-08
2.10181e-07
1.55792e-08
4.38778e-08
1.80036e-07
2.3289e-08
3.29681e-08
1.54569e-07
2.5919e-08
2.47547e-08
1.33405e-07
2.5103e-08
1.86652e-08
1.16252e-07
2.20113e-08
1.4208e-08
1.0271e-07
1.75366e-08
1.10767e-08
9.23378e-08
1.21512e-08
8.86145e-09
8.48093e-08
6.54831e-09
7.96527e-09
7.95574e-08
7.11831e-09
7.62604e-08
-1.09114e-08
1.9183e-07
6.18672e-09
1.66349e-07
1.57405e-08
1.44449e-07
1.99437e-08
1.2589e-07
2.04453e-08
1.10674e-07
1.8425e-08
9.85337e-08
1.47937e-08
8.91765e-08
1.00704e-08
8.23846e-08
5.20017e-09
7.78101e-08
7.4713e-08
5.07672e-08
1.17967e-07
2.49858e-07
4.97078e-08
8.78496e-08
2.07434e-07
4.55063e-08
6.53865e-08
1.7405e-07
3.94616e-08
4.88572e-08
1.48096e-07
3.23883e-08
3.69057e-08
1.28249e-07
2.48688e-08
2.86863e-08
1.13227e-07
1.70441e-08
2.30534e-08
1.02301e-07
9.608e-09
2.18715e-08
9.35162e-08
1.83404e-08
8.90299e-08
1.57464e-08
1.08769e-07
2.64911e-07
2.70966e-08
8.19939e-08
2.23647e-07
3.1855e-08
6.149e-08
1.89482e-07
3.21987e-08
4.60623e-08
1.61748e-07
2.96485e-08
3.46262e-08
1.39637e-07
2.52549e-08
2.62859e-08
1.22407e-07
1.97542e-08
2.05025e-08
1.09283e-07
1.35171e-08
1.64796e-08
9.97434e-08
7.71488e-09
1.50603e-08
9.26177e-08
1.33137e-08
8.84199e-08
-4.97947e-09
5.55505e-08
2.37349e-07
1.08909e-08
4.20846e-08
2.04075e-07
1.93945e-08
3.17478e-08
1.75807e-07
2.27624e-08
2.39214e-08
1.52178e-07
2.26109e-08
1.80889e-08
1.32941e-07
2.01082e-08
1.38e-08
1.17699e-07
1.61459e-08
1.07892e-08
1.06013e-07
1.12034e-08
8.66327e-09
9.75681e-08
6.03475e-09
7.89253e-09
9.18939e-08
7.11059e-09
8.84983e-08
-1.58909e-08
2.19324e-07
1.79594e-09
1.90746e-07
1.20458e-08
1.65947e-07
1.69054e-08
1.44952e-07
1.80202e-08
1.27648e-07
1.65569e-08
1.13797e-07
1.34264e-08
1.03096e-07
9.15913e-09
9.53151e-08
4.7382e-09
9.01236e-08
8.65617e-08
4.29282e-08
1.1208e-07
2.72288e-07
4.35653e-08
8.38696e-08
2.27395e-07
4.07541e-08
6.26887e-08
1.91756e-07
3.58371e-08
4.70167e-08
1.63866e-07
2.96749e-08
3.56404e-08
1.42458e-07
2.28598e-08
2.78335e-08
1.26339e-07
1.55867e-08
2.24933e-08
1.14683e-07
8.63981e-09
2.18822e-08
1.06076e-07
1.85135e-08
1.01317e-07
8.11433e-09
1.02924e-07
2.88713e-07
2.0781e-08
7.79387e-08
2.45121e-07
2.67273e-08
5.87199e-08
2.08686e-07
2.81144e-08
4.41622e-08
1.78887e-07
2.64599e-08
3.33136e-08
1.54995e-07
2.2826e-08
2.53697e-08
1.36311e-07
1.79444e-08
1.98716e-08
1.22127e-07
1.22249e-08
1.60498e-08
1.11906e-07
6.97848e-09
1.48768e-08
1.0487e-07
1.3185e-08
1.00727e-07
-1.12496e-08
5.25011e-08
2.60938e-07
5.45758e-09
3.99481e-08
2.25358e-07
1.48619e-08
3.02546e-08
1.94868e-07
1.9066e-08
2.28836e-08
1.69253e-07
1.96743e-08
1.73567e-08
1.4829e-07
1.78484e-08
1.32746e-08
1.3162e-07
1.44788e-08
1.04148e-08
1.1884e-07
1.00635e-08
8.40154e-09
1.09632e-07
5.4215e-09
7.76171e-09
1.03651e-07
7.04275e-09
1.00062e-07
-2.15688e-08
2.43234e-07
-3.19417e-09
2.1232e-07
7.79758e-09
1.85209e-07
1.34006e-08
1.62232e-07
1.52115e-08
1.43194e-07
1.43858e-08
1.27897e-07
1.18329e-08
1.16064e-07
8.10118e-09
1.07448e-07
4.20308e-09
1.01783e-07
9.78076e-08
3.43845e-08
1.05645e-07
2.90819e-07
3.67907e-08
7.94629e-08
2.44407e-07
3.5458e-08
5.96661e-08
2.07215e-07
3.17606e-08
4.49308e-08
1.7791e-07
2.66003e-08
3.41877e-08
1.55328e-07
2.05824e-08
2.68235e-08
1.38438e-07
1.3961e-08
2.17906e-08
1.26273e-07
7.56099e-09
2.1671e-08
1.18279e-07
1.85631e-08
1.12883e-07
-2.71898e-10
9.65403e-08
3.08316e-07
1.38104e-08
7.34602e-08
2.63224e-07
2.10184e-08
5.56153e-08
2.25325e-07
2.35314e-08
4.20064e-08
1.94034e-07
2.2857e-08
3.18065e-08
1.68794e-07
2.00666e-08
2.43064e-08
1.48983e-07
1.58907e-08
1.91224e-08
1.34004e-07
1.07849e-08
1.55208e-08
1.23282e-07
6.16064e-09
1.4561e-08
1.16604e-07
1.29497e-08
1.12501e-07
-1.81456e-08
4.91773e-08
2.80685e-07
-5.81995e-10
3.76005e-08
2.43654e-07
9.81197e-09
2.859e-08
2.115e-07
1.49258e-08
2.17145e-08
1.84431e-07
1.63684e-08
1.65252e-08
1.62129e-07
1.52934e-08
1.26767e-08
1.44324e-07
1.25898e-08
9.98597e-09
1.3068e-07
8.78127e-09
8.09727e-09
1.20864e-07
4.73835e-09
7.56937e-09
1.14686e-07
6.91149e-09
1.10839e-07
-2.77712e-08
2.63289e-07
-8.64841e-09
2.30798e-07
3.10008e-09
2.02051e-07
9.51744e-09
1.7753e-07
1.20861e-08
1.5715e-07
1.19641e-08
1.40696e-07
1.0056e-08
1.27958e-07
6.93072e-09
1.18671e-07
3.61292e-09
1.12671e-07
1.08332e-07
2.5345e-08
9.88568e-08
3.05468e-07
2.95413e-08
7.47684e-08
2.58426e-07
2.97365e-08
5.64142e-08
2.20359e-07
2.73242e-08
4.26654e-08
1.90147e-07
2.32425e-08
3.25947e-08
1.66768e-07
1.81192e-08
2.56824e-08
1.49395e-07
1.22665e-08
2.09563e-08
1.36909e-07
6.50927e-09
2.11058e-08
1.29875e-07
1.82188e-08
1.23605e-07
-8.95382e-09
8.98475e-08
3.23549e-07
6.36861e-09
6.87541e-08
2.78004e-07
1.48722e-08
5.22953e-08
2.39295e-07
1.85599e-08
3.96831e-08
2.07077e-07
1.89268e-08
3.01691e-08
1.80923e-07
1.70494e-08
2.31434e-08
1.60312e-07
1.36644e-08
1.8286e-08
1.44785e-07
9.27312e-09
1.49122e-08
1.33717e-07
5.31384e-09
1.40883e-08
1.2758e-07
1.26046e-08
1.23429e-07
-2.54567e-08
4.57189e-08
2.96457e-07
-6.9324e-09
3.51385e-08
2.58746e-07
4.37249e-09
2.68407e-08
2.2565e-07
1.04455e-08
2.04684e-08
1.97572e-07
1.27737e-08
1.56358e-08
1.74334e-07
1.25077e-08
1.20374e-08
1.55696e-07
1.05332e-08
9.52393e-09
1.41416e-07
7.40026e-09
7.76357e-09
1.31145e-07
4.00698e-09
7.30723e-09
1.2486e-07
6.70889e-09
1.20741e-07
-3.43196e-08
2.79394e-07
-1.44568e-08
2.46073e-07
-1.91587e-09
2.16351e-07
5.34149e-09
1.90741e-07
8.71253e-09
1.69415e-07
9.34537e-09
1.52101e-07
8.13772e-09
1.3869e-07
5.67885e-09
1.28893e-07
2.98322e-09
1.22673e-07
1.18024e-07
1.84705e-07
3.68481e-08
5.79266e-07
1.47475e-07
2.72432e-08
4.48977e-07
1.15871e-07
2.00351e-08
3.5424e-07
8.9279e-08
1.47336e-08
2.85652e-07
6.67152e-08
1.10131e-08
2.36221e-07
4.72151e-08
8.41657e-09
2.01283e-07
2.98331e-08
6.73466e-09
1.7754e-07
1.42614e-08
5.15452e-09
1.63033e-07
4.11496e-09
1.54525e-07
1.78346e-07
6.77119e-08
5.67111e-07
1.44092e-07
5.10214e-08
4.42301e-07
1.14287e-07
3.82075e-08
3.50448e-07
8.87657e-08
2.85827e-08
2.83251e-07
6.69219e-08
2.15778e-08
2.34638e-07
4.79796e-08
1.65592e-08
2.00324e-07
3.10612e-08
1.32324e-08
1.77245e-07
1.55207e-08
1.03437e-08
1.63605e-07
9.36436e-09
1.56414e-07
1.70496e-07
1.02427e-07
5.56763e-07
1.36834e-07
7.55724e-08
4.31827e-07
1.0841e-07
5.57406e-08
3.41511e-07
8.44908e-08
4.12831e-08
2.76253e-07
6.41808e-08
3.09418e-08
2.29409e-07
4.65751e-08
2.36031e-08
1.96554e-07
3.06473e-08
1.88441e-08
1.74463e-07
1.59658e-08
1.43475e-08
1.61758e-07
1.47282e-08
1.54377e-07
1.45776e-07
1.22505e-07
5.15332e-07
1.20022e-07
9.10313e-08
4.06214e-07
9.69205e-08
6.7658e-08
3.25223e-07
7.6628e-08
5.04323e-08
2.65522e-07
5.88703e-08
3.79311e-08
2.22138e-07
4.31117e-08
2.89336e-08
1.91548e-07
2.8481e-08
2.32485e-08
1.70783e-07
1.49363e-08
1.69344e-08
1.59381e-07
1.51943e-07
1.23127e-07
1.37353e-07
4.81717e-07
1.0239e-07
1.0189e-07
3.81851e-07
8.3573e-08
7.55894e-08
3.07852e-07
6.67954e-08
5.62915e-08
2.53335e-07
5.17415e-08
4.23709e-08
2.13597e-07
3.7738e-08
3.24232e-08
1.85606e-07
2.43779e-08
2.60817e-08
1.6614e-07
2.02693e-08
1.6005e-07
9.29272e-08
1.38723e-07
4.34191e-07
8.0521e-08
1.03703e-07
3.50825e-07
6.77017e-08
7.7412e-08
2.87277e-07
5.52478e-08
5.79333e-08
2.39427e-07
4.33573e-08
4.38057e-08
2.04033e-07
3.15935e-08
3.37589e-08
1.78993e-07
2.00007e-08
2.72344e-08
1.61209e-07
2.22675e-08
1.58055e-07
6.4867e-08
1.31372e-07
3.91483e-07
5.9223e-08
9.86564e-08
3.21323e-07
5.17676e-08
7.39724e-08
2.66975e-07
4.34516e-08
5.56076e-08
2.25407e-07
3.47393e-08
4.22431e-08
1.9424e-07
2.5352e-08
3.28548e-08
1.72101e-07
1.56633e-08
2.6634e-08
1.56117e-07
2.3948e-08
1.55494e-07
3.82627e-08
1.14959e-07
3.50575e-07
3.90972e-08
8.69182e-08
2.93346e-07
3.66756e-08
6.55589e-08
2.47768e-07
3.22187e-08
4.95733e-08
2.12142e-07
2.64644e-08
3.78962e-08
1.84982e-07
1.92239e-08
2.99876e-08
1.65619e-07
1.12093e-08
2.45584e-08
1.51686e-07
2.54708e-08
1.54492e-07
1.60238e-08
9.19149e-08
3.16302e-07
2.19821e-08
6.9918e-08
2.69468e-07
2.37154e-08
5.30242e-08
2.31161e-07
2.26245e-08
4.02864e-08
2.00525e-07
1.9678e-08
3.09076e-08
1.76703e-07
1.55443e-08
2.44399e-08
1.59077e-07
1.05871e-08
2.00096e-08
1.46415e-07
5.75581e-09
1.99683e-08
1.40209e-07
1.71058e-08
1.33282e-07
-1.79159e-08
8.30669e-08
3.34543e-07
-1.37085e-09
6.39425e-08
2.89431e-07
8.43281e-09
4.88774e-08
2.50532e-07
1.33142e-08
3.72655e-08
2.17954e-07
1.47587e-08
2.84555e-08
1.9131e-07
1.38456e-08
2.19204e-08
1.70212e-07
1.13287e-08
1.73898e-08
1.54352e-07
7.74769e-09
1.42447e-08
1.43063e-07
4.47411e-09
1.34415e-08
1.37381e-07
1.21492e-08
1.3286e-07
-3.2984e-08
4.22363e-08
3.08271e-07
-1.35579e-08
3.26433e-08
2.70619e-07
-1.3282e-09
2.506e-08
2.37237e-07
5.72549e-09
1.91863e-08
2.08598e-07
8.97043e-09
1.47184e-08
1.84826e-07
9.55422e-09
1.13784e-08
1.65654e-07
8.35803e-09
9.04325e-09
1.50959e-07
5.95561e-09
7.41041e-09
1.40382e-07
3.24402e-09
6.97064e-09
1.34042e-07
6.43277e-09
1.29702e-07
-4.10439e-08
2.91588e-07
-2.04792e-08
2.58152e-07
-7.10496e-09
2.28037e-07
9.49529e-10
2.01872e-07
5.15943e-09
1.79923e-07
6.58121e-09
1.62057e-07
6.11671e-09
1.48197e-07
4.37147e-09
1.38049e-07
2.32646e-09
1.31689e-07
1.26783e-07
1.57603e-07
3.39632e-08
5.77726e-07
1.2777e-07
2.52974e-08
4.53513e-07
1.01583e-07
1.87062e-08
3.61721e-07
7.89871e-08
1.38637e-08
2.94384e-07
5.94254e-08
1.04206e-08
2.45362e-07
4.22505e-08
8.00374e-09
2.10454e-07
2.67601e-08
6.41673e-09
1.86614e-07
1.27907e-08
4.95455e-09
1.72047e-07
3.92636e-09
1.63389e-07
1.52397e-07
6.28474e-08
5.6702e-07
1.25017e-07
4.75935e-08
4.47385e-07
1.00319e-07
3.58179e-08
3.58034e-07
7.86268e-08
2.69221e-08
2.91884e-07
5.96891e-08
2.04097e-08
2.43587e-07
4.30068e-08
1.57291e-08
2.09281e-07
2.79251e-08
1.26007e-08
1.86142e-07
1.39651e-08
9.96951e-09
1.7255e-07
8.91683e-09
1.65389e-07
1.44594e-07
9.40277e-08
5.54625e-07
1.181e-07
6.99519e-08
4.35963e-07
9.48487e-08
5.19734e-08
3.48607e-07
7.47026e-08
3.87438e-08
2.84578e-07
5.71935e-08
2.92063e-08
2.38121e-07
4.17363e-08
2.24149e-08
2.05325e-07
2.75516e-08
1.79863e-08
1.83262e-07
1.43261e-08
1.4224e-08
1.70729e-07
1.41149e-08
1.63505e-07
1.23311e-07
1.12744e-07
5.16442e-07
1.03348e-07
8.4447e-08
4.11682e-07
8.46006e-08
6.31892e-08
3.32754e-07
6.76023e-08
4.73678e-08
2.73897e-07
5.23668e-08
3.58192e-08
2.30761e-07
3.86037e-08
2.75105e-08
2.00216e-07
2.56329e-08
2.22387e-08
1.79501e-07
1.35396e-08
1.73763e-08
1.68322e-07
1.86544e-08
1.60943e-07
1.02677e-07
1.26221e-07
4.82911e-07
8.72391e-08
9.43933e-08
3.87343e-07
7.23807e-08
7.05222e-08
3.15378e-07
5.85777e-08
5.2847e-08
2.61659e-07
4.5831e-08
4.00112e-08
2.22151e-07
3.38845e-08
3.08309e-08
1.94232e-07
2.24192e-08
2.49768e-08
1.74867e-07
1.17519e-08
2.03261e-08
1.67767e-07
2.06831e-08
1.5465e-07
7.5996e-08
1.27819e-07
4.37922e-07
6.75975e-08
9.6249e-08
3.57368e-07
5.79415e-08
7.23001e-08
2.95155e-07
4.79791e-08
5.44191e-08
2.47818e-07
3.81074e-08
4.1373e-08
2.12543e-07
2.83095e-08
3.20841e-08
1.87538e-07
1.86037e-08
2.60592e-08
1.69832e-07
9.80903e-09
2.19321e-08
1.65244e-07
2.09756e-08
1.50962e-07
5.06933e-08
1.21166e-07
3.96358e-07
4.82272e-08
9.16326e-08
3.28406e-07
4.33285e-08
6.91282e-08
2.75046e-07
3.70852e-08
5.22502e-08
2.33819e-07
3.01093e-08
3.98943e-08
2.02695e-07
2.25648e-08
3.11847e-08
1.80545e-07
1.47442e-08
2.53982e-08
1.64598e-07
7.63779e-09
2.25972e-08
1.61935e-07
2.0235e-08
1.47652e-07
2.67677e-08
1.06196e-07
3.56827e-07
2.99211e-08
8.08069e-08
3.01018e-07
2.94693e-08
6.12968e-08
2.56052e-07
2.66883e-08
4.65845e-08
2.20588e-07
2.24034e-08
3.57734e-08
1.93388e-07
1.68973e-08
2.83609e-08
1.73948e-07
1.07382e-08
2.32741e-08
1.59969e-07
5.23935e-09
2.26776e-08
1.5991e-07
1.94779e-08
1.48188e-07
6.61849e-09
8.49941e-08
3.23531e-07
1.42733e-08
6.50215e-08
2.77599e-07
1.75199e-08
4.95754e-08
2.39635e-07
1.77571e-08
3.78487e-08
2.09023e-07
1.59774e-08
2.91688e-08
1.85087e-07
1.29026e-08
2.31388e-08
1.67374e-07
8.9184e-09
1.89932e-08
1.5468e-07
5.15488e-09
1.81601e-08
1.4849e-07
1.60162e-08
1.41898e-07
-2.69018e-08
7.63621e-08
3.41475e-07
-9.13013e-09
5.9135e-08
2.97519e-07
1.83188e-09
4.54531e-08
2.59138e-07
7.90633e-09
3.48146e-08
2.26641e-07
1.04388e-08
2.67099e-08
1.99916e-07
1.05181e-08
2.06697e-08
1.78632e-07
8.92577e-09
1.64607e-08
1.62622e-07
6.21249e-09
1.35434e-08
1.51226e-07
3.60246e-09
1.26488e-08
1.45502e-07
1.16468e-08
1.40832e-07
-4.0543e-08
3.88118e-08
3.16251e-07
-2.02877e-08
3.01697e-08
2.79329e-07
-7.10195e-09
2.32836e-08
2.46221e-07
8.52864e-10
1.79065e-08
2.17551e-07
5.03484e-09
1.37923e-08
1.93561e-07
6.49064e-09
1.07147e-08
1.74154e-07
6.1058e-09
8.55526e-09
1.59249e-07
4.47227e-09
7.0478e-09
1.48511e-07
2.46108e-09
6.57591e-09
1.42127e-07
6.12585e-09
1.37684e-07
-4.77922e-08
3.0002e-07
-2.65849e-08
2.67114e-07
-1.24155e-08
2.37151e-07
-3.52924e-09
2.10893e-07
1.48563e-09
1.88701e-07
3.72063e-09
1.70537e-07
4.02653e-09
1.56447e-07
3.02747e-09
1.46096e-07
1.65037e-09
1.39642e-07
1.3456e-07
1.31788e-07
3.11639e-08
5.70112e-07
1.08734e-07
2.33873e-08
4.5318e-07
8.76044e-08
1.7412e-08
3.65438e-07
6.88038e-08
1.30129e-08
3.00172e-07
5.21526e-08
9.84103e-09
2.52172e-07
3.72684e-08
7.6035e-09
2.17735e-07
2.36653e-08
6.11464e-09
1.94102e-07
1.13055e-08
4.76645e-09
1.79641e-07
3.74634e-09
1.70948e-07
1.27554e-07
5.80258e-08
5.60852e-07
1.06468e-07
4.41877e-08
4.4767e-07
8.65836e-08
3.34349e-08
3.61896e-07
6.8559e-08
2.52678e-08
2.97654e-07
5.24496e-08
1.92456e-08
2.50292e-07
3.79996e-08
1.4906e-08
2.16428e-07
2.47548e-08
1.19795e-08
1.93522e-07
1.23849e-08
9.58937e-09
1.80097e-07
8.46571e-09
1.73054e-07
1.19991e-07
8.59521e-08
5.47054e-07
9.99921e-08
6.4483e-08
4.35666e-07
8.15406e-08
4.82736e-08
3.5222e-07
6.49745e-08
3.62302e-08
2.90181e-07
5.0179e-08
2.74791e-08
2.44683e-07
3.68446e-08
2.12242e-08
2.12341e-07
2.4412e-08
1.71074e-08
1.90566e-07
1.26621e-08
1.38542e-08
1.78214e-07
1.3304e-08
1.71329e-07
1.0171e-07
1.03306e-07
5.12105e-07
8.70538e-08
7.80013e-08
4.1282e-07
7.24054e-08
5.87668e-08
3.36909e-07
5.8572e-08
4.43081e-08
2.79652e-07
4.57953e-08
3.36999e-08
2.37317e-07
3.39978e-08
2.60659e-08
2.07172e-07
2.26844e-08
2.11675e-08
1.86755e-07
1.19818e-08
1.71804e-08
1.75699e-07
1.74697e-08
1.68759e-07
8.30454e-08
1.15479e-07
4.79223e-07
7.24337e-08
8.70653e-08
3.88891e-07
6.12814e-08
6.55184e-08
3.19779e-07
5.03241e-08
4.94104e-08
2.67514e-07
3.9818e-08
3.76351e-08
2.28722e-07
2.97689e-08
2.92031e-08
2.01144e-07
1.99081e-08
2.37925e-08
1.82103e-07
1.11476e-08
1.98535e-08
1.73855e-07
1.96888e-08
1.63579e-07
5.9558e-08
1.17224e-07
4.36999e-07
5.48671e-08
8.891e-08
3.60214e-07
4.82009e-08
6.72247e-08
3.00115e-07
4.064e-08
5.09008e-08
2.53888e-07
3.27298e-08
3.89183e-08
2.1917e-07
2.46838e-08
3.03698e-08
1.94417e-07
1.64823e-08
2.48149e-08
1.77012e-07
9.55381e-09
2.12256e-08
1.708e-07
2.03548e-08
1.5985e-07
3.68799e-08
1.11221e-07
3.97091e-07
3.735e-08
8.47059e-08
3.3214e-07
3.48752e-08
6.4305e-08
2.8044e-07
3.06354e-08
4.88825e-08
2.40077e-07
2.53462e-08
3.7523e-08
2.09379e-07
1.93893e-08
2.94798e-08
1.87392e-07
1.29747e-08
2.4139e-08
1.71689e-07
7.77794e-09
2.14014e-08
1.66956e-07
1.97622e-08
1.56023e-07
1.54682e-08
9.76183e-08
3.59297e-07
2.07856e-08
7.47618e-08
3.05645e-07
2.22195e-08
5.70442e-08
2.61879e-07
2.1071e-08
4.35829e-08
2.27037e-07
1.82197e-08
3.36301e-08
2.00132e-07
1.41674e-08
2.67231e-08
1.80757e-07
9.35426e-09
2.20176e-08
1.66904e-07
5.76159e-09
2.07933e-08
1.64111e-07
1.87721e-08
1.5494e-07
-2.67835e-09
7.82088e-08
3.27403e-07
6.56266e-09
6.01837e-08
2.82936e-07
1.12674e-08
4.61333e-08
2.45841e-07
1.28083e-08
3.54027e-08
2.15662e-07
1.21945e-08
2.74154e-08
1.91915e-07
1.01683e-08
2.18249e-08
1.74298e-07
7.15412e-09
1.79869e-08
1.61725e-07
4.20476e-09
1.68039e-08
1.55429e-07
1.53826e-08
1.49492e-07
-3.57167e-08
6.98528e-08
3.44602e-07
-1.68551e-08
5.44271e-08
3.02439e-07
-4.74716e-09
4.2072e-08
2.65142e-07
2.43466e-09
3.23876e-08
2.33204e-07
6.04519e-09
2.49651e-08
2.06743e-07
7.12039e-09
1.94161e-08
1.85556e-07
6.46148e-09
1.55251e-08
1.69581e-07
4.6306e-09
1.28368e-08
1.58207e-07
2.706e-09
1.18854e-08
1.52345e-07
1.11343e-08
1.47786e-07
-4.79756e-08
3.55012e-08
3.20604e-07
-2.6983e-08
2.77594e-08
2.85004e-07
-1.29101e-08
2.15397e-08
2.5268e-07
-4.0335e-09
1.66444e-08
2.24418e-07
1.02951e-09
1.28799e-08
2.00584e-07
3.36838e-09
1.00561e-08
1.81175e-07
3.80822e-09
8.06971e-09
1.66265e-07
2.96595e-09
6.686e-09
1.55504e-07
1.67191e-09
6.1884e-09
1.49118e-07
5.82018e-09
1.4467e-07
-5.44291e-08
3.04912e-07
-3.26572e-08
2.73102e-07
-1.77467e-08
2.4378e-07
-8.04742e-09
2.17838e-07
-2.22488e-09
1.95758e-07
8.06232e-10
1.77562e-07
1.89513e-09
1.63428e-07
1.66082e-09
1.53016e-07
9.63597e-10
1.46528e-07
1.41343e-07
1.07521e-07
2.84773e-08
5.57482e-07
9.05395e-08
2.15165e-08
4.48645e-07
7.40896e-08
1.61602e-08
3.65728e-07
5.88604e-08
1.21719e-08
3.03229e-07
4.4991e-08
9.26426e-09
2.56778e-07
3.23333e-08
7.20246e-09
2.2319e-07
2.059e-08
5.81125e-09
2.00034e-07
9.82899e-09
4.57351e-09
1.85828e-07
3.57845e-09
1.77199e-07
1.04096e-07
5.33165e-08
5.49602e-07
8.86792e-08
4.08444e-08
4.43759e-07
7.32502e-08
3.10834e-08
3.62401e-07
5.86964e-08
2.36231e-08
3.00757e-07
4.53019e-08
1.8084e-08
2.54867e-07
3.30271e-08
1.40826e-08
2.21823e-07
2.15967e-08
1.13579e-08
1.99406e-07
1.08108e-08
9.19178e-09
1.86265e-07
8.04102e-09
1.79403e-07
9.69117e-08
7.82744e-08
5.34989e-07
8.26905e-08
5.92165e-08
4.31515e-07
6.86453e-08
4.46716e-08
3.52677e-07
5.54399e-08
3.3759e-08
2.93251e-07
4.32395e-08
2.57661e-08
2.49201e-07
3.19709e-08
2.00291e-08
2.17663e-07
2.12767e-08
1.62138e-08
1.96405e-07
1.10174e-08
1.33578e-08
1.84307e-07
1.25794e-08
1.77808e-07
8.12331e-08
9.42895e-08
5.03154e-07
7.13636e-08
7.1761e-08
4.10145e-07
6.05084e-08
5.44322e-08
3.38004e-07
4.96682e-08
4.12889e-08
2.82962e-07
3.92604e-08
3.15916e-08
2.41899e-07
2.93767e-08
2.46034e-08
2.12481e-07
1.97067e-08
2.00644e-08
1.92574e-07
1.0382e-08
1.67053e-08
1.81676e-07
1.64561e-08
1.75264e-07
6.4461e-08
1.05239e-07
4.71382e-07
5.81771e-08
7.99892e-08
3.86946e-07
5.04347e-08
6.06295e-08
3.21324e-07
4.21612e-08
4.60207e-08
2.71055e-07
3.38042e-08
3.5268e-08
2.33403e-07
2.55533e-08
2.75523e-08
2.06446e-07
1.72311e-08
2.25622e-08
1.87927e-07
9.57674e-09
1.91674e-08
1.79047e-07
1.87401e-08
1.70872e-07
4.38405e-08
1.07053e-07
4.32038e-07
4.25195e-08
8.17857e-08
3.59739e-07
3.86345e-08
6.22498e-08
3.0238e-07
3.33494e-08
4.7422e-08
2.57772e-07
2.73208e-08
3.64694e-08
2.23997e-07
2.09145e-08
2.86349e-08
1.99741e-07
1.41366e-08
2.353e-08
1.82822e-07
8.12422e-09
2.03736e-08
1.75607e-07
1.95889e-08
1.67126e-07
2.36232e-08
1.01652e-07
3.94159e-07
2.67585e-08
7.79684e-08
3.32822e-07
2.65437e-08
5.95695e-08
2.83335e-07
2.42072e-08
4.55487e-08
2.44287e-07
2.05382e-08
3.51575e-08
2.1436e-07
1.60502e-08
2.77646e-08
1.9275e-07
1.09368e-08
2.2866e-08
1.77466e-07
6.52924e-09
2.02678e-08
1.71469e-07
1.90634e-08
1.63077e-07
4.53854e-09
8.93529e-08
3.58404e-07
1.18426e-08
6.88686e-08
3.07441e-07
1.50462e-08
5.2863e-08
2.65382e-07
1.54563e-08
4.06107e-08
2.31565e-07
1.39879e-08
3.14963e-08
2.05262e-07
1.12638e-08
2.51032e-08
1.86143e-07
7.67487e-09
2.07795e-08
1.72579e-07
4.7566e-09
1.92348e-08
1.68062e-07
1.78585e-08
1.60901e-07
-1.16429e-08
7.16491e-08
3.2812e-07
-1.02944e-09
5.54752e-08
2.85716e-07
5.06276e-09
4.2756e-08
2.49856e-07
7.85974e-09
3.29849e-08
2.20491e-07
8.38521e-09
2.56746e-08
1.97212e-07
7.39436e-09
2.05182e-08
1.79874e-07
5.34899e-09
1.69955e-08
1.67554e-07
3.18135e-09
1.56421e-08
1.61189e-07
1.46418e-08
1.55891e-07
-4.4201e-08
6.36222e-08
3.44241e-07
-2.43942e-08
4.98818e-08
3.044e-07
-1.12188e-08
3.87823e-08
2.68659e-07
-2.98651e-09
3.0014e-08
2.37714e-07
1.64481e-09
2.3254e-08
2.11843e-07
3.70482e-09
1.81769e-08
1.90994e-07
3.9702e-09
1.45984e-08
1.75235e-07
3.02722e-09
1.21331e-08
1.64013e-07
1.81869e-09
1.11539e-08
1.58042e-07
1.05768e-08
1.5367e-07
-5.51478e-08
3.234e-08
3.21603e-07
-3.35262e-08
2.54395e-08
2.87824e-07
-1.86457e-08
1.9849e-08
2.56733e-07
-8.88959e-09
1.54157e-08
2.2926e-07
-2.949e-09
1.19899e-08
2.05907e-07
2.29313e-10
9.41341e-09
1.8676e-07
1.4963e-09
7.59141e-09
1.72005e-07
1.45622e-09
6.32719e-09
1.6135e-07
8.87804e-10
5.81589e-09
1.55024e-07
5.50384e-09
1.50631e-07
-6.08376e-08
3.06532e-07
-3.85943e-08
2.76298e-07
-2.30106e-08
2.48045e-07
-1.25448e-08
2.22788e-07
-5.91972e-09
2.01123e-07
-2.10381e-09
1.83159e-07
-2.52149e-10
1.69167e-07
2.89095e-10
1.58802e-07
2.74803e-10
1.52358e-07
1.47122e-07
8.49813e-08
2.59195e-08
5.40807e-07
7.33558e-08
1.97109e-08
4.40559e-07
6.11481e-08
1.49464e-08
3.62989e-07
4.92553e-08
1.13388e-08
3.03783e-07
3.80236e-08
8.68662e-09
2.59323e-07
2.75019e-08
6.79504e-09
2.26917e-07
1.75709e-08
5.50154e-09
2.04464e-07
8.37907e-09
4.37057e-09
1.90649e-07
3.41923e-09
1.82159e-07
8.22076e-08
4.87762e-08
5.34197e-07
7.1829e-08
3.75961e-08
4.36252e-07
6.04623e-08
2.87831e-08
3.59931e-07
4.91434e-08
2.19985e-08
3.01416e-07
3.83301e-08
1.69294e-08
2.57437e-07
2.81493e-08
1.32571e-08
2.25541e-07
1.84907e-08
1.07338e-08
2.03832e-07
9.26487e-09
8.77336e-09
1.91088e-07
7.63543e-09
1.84451e-07
7.55068e-08
7.10442e-08
5.19279e-07
6.63529e-08
5.41941e-08
4.24071e-07
5.62889e-08
4.11945e-08
3.50329e-07
4.61981e-08
3.13465e-08
2.93994e-07
3.64585e-08
2.40765e-08
2.51794e-07
2.71791e-08
1.88342e-08
2.21366e-07
1.81868e-08
1.53131e-08
2.00818e-07
9.41525e-09
1.2778e-08
1.89074e-07
1.1902e-08
1.82957e-07
6.20631e-08
8.57609e-08
4.90377e-07
5.64492e-08
6.57797e-08
4.04173e-07
4.90577e-08
5.02264e-08
3.36363e-07
4.10058e-08
3.83361e-08
2.84025e-07
3.28488e-08
2.95103e-08
2.44622e-07
2.48112e-08
2.31342e-08
2.16219e-07
1.67502e-08
1.89465e-08
1.97002e-07
8.80697e-09
1.60344e-08
1.86363e-07
1.55079e-08
1.80465e-07
4.70847e-08
9.55768e-08
4.60077e-07
4.46238e-08
7.32271e-08
3.8196e-07
3.99766e-08
5.59031e-08
3.20294e-07
3.41995e-08
4.27101e-08
2.72459e-07
2.7882e-08
3.29324e-08
2.36298e-07
2.13345e-08
2.58964e-08
2.10231e-07
1.45013e-08
2.13103e-08
1.92397e-07
7.95543e-09
1.83366e-08
1.8329e-07
1.77818e-08
1.76553e-07
2.90189e-08
9.73947e-08
4.23633e-07
3.07082e-08
7.49491e-08
3.56327e-07
2.93697e-08
5.74278e-08
3.02194e-07
2.62115e-08
4.402e-08
2.5962e-07
2.19713e-08
3.40531e-08
2.27117e-07
1.71035e-08
2.69005e-08
2.03604e-07
1.16896e-08
2.22248e-08
1.87321e-07
6.60435e-09
1.94189e-08
1.7961e-07
1.86999e-08
1.72812e-07
1.1075e-08
9.25603e-08
3.87976e-07
1.65899e-08
7.1492e-08
3.30764e-07
1.84489e-08
5.49749e-08
2.83929e-07
1.78952e-08
4.22879e-08
2.46573e-07
1.57685e-08
3.2826e-08
2.17714e-07
1.26464e-08
2.60618e-08
1.96711e-07
8.76264e-09
2.15861e-08
1.81989e-07
5.14518e-09
1.91679e-08
1.75338e-07
1.82457e-08
1.68677e-07
-5.83236e-09