/*--------------------------------*- C++ -*----------------------------------*\
| =========                 |                                                 |
| \\      /  F ield         | OpenFOAM: The Open Source CFD Toolbox           |
|  \\    /   O peration     | Version:  2.3.1                                 |
|   \\  /    A nd           | Web:      www.OpenFOAM.org                      |
|    \\/     M anipulation  |                                                 |
\*---------------------------------------------------------------------------*/
FoamFile
{
    version     2.0;
    format      ascii;
    class       volScalarField;
    location    "10";
    object      Sed;
}
// * * * * * * * * * * * * * * * * * * * * * * * * * * * * * * * * * * * * * //

dimensions      [0 0 0 0 0 0 0];

internalField   nonuniform List<scalar> 
37784
(
1.05975e-290
3.21951e-293
1.07883e-295
3.85198e-298
1.4529e-300
5.63125e-303
2.06125e-305
5.75072e-308
7.58151e-311
1.07909e-290
3.59659e-293
1.31072e-295
5.04748e-298
2.04837e-300
8.67669e-303
3.70069e-305
1.44143e-307
3.99602e-310
4.79068e-313
2.42012e-293
9.11403e-296
3.64306e-298
1.52699e-300
6.69792e-303
3.03194e-305
1.36605e-307
5.55855e-310
1.58304e-312
1.99301e-315
2.61627e-296
9.98571e-299
4.08361e-301
1.75328e-303
7.84743e-306
3.60578e-308
1.64409e-310
6.78735e-313
2.00533e-315
3.12743e-318
1.11689e-288
3.94637e-291
1.40962e-293
5.22684e-296
2.02886e-298
8.07799e-301
3.07383e-303
9.33933e-306
1.38093e-308
1.17887e-288
4.57907e-291
1.78e-293
7.11372e-296
2.96453e-298
1.2825e-300
5.58431e-303
2.24801e-305
6.73328e-308
8.58166e-311
3.30978e-291
1.34495e-293
5.59209e-296
2.40891e-298
1.07888e-300
4.96653e-303
2.2728e-305
9.45338e-308
2.82863e-310
3.50216e-313
4.43085e-294
1.79754e-296
7.60684e-299
3.34955e-301
1.53035e-303
7.15167e-306
3.30377e-308
1.37431e-310
4.03494e-313
5.29279e-316
8.38252e-288
4.58024e-290
2.38544e-292
1.19434e-294
5.78393e-297
2.69346e-299
1.15306e-301
3.93546e-304
6.75804e-307
8.80248e-288
5.28678e-290
3.00395e-292
1.62958e-294
8.52296e-297
4.32792e-299
2.10823e-301
9.27009e-304
3.05307e-306
4.30579e-309
3.61537e-290
2.18565e-292
1.25936e-294
6.95297e-297
3.7221e-299
1.9389e-301
9.67451e-304
4.30074e-306
1.37403e-308
1.75907e-311
6.25248e-293
3.69882e-295
2.10735e-297
1.15722e-299
6.18788e-302
3.22372e-304
1.60377e-306
6.99017e-309
2.07691e-311
2.39979e-314
1.2809e-287
9.32895e-290
6.43289e-292
4.23367e-294
2.66208e-296
1.57678e-298
8.35477e-301
3.42094e-303
6.83837e-306
1.33148e-287
1.06152e-289
7.95488e-292
5.65672e-294
3.84129e-296
2.48947e-298
1.51148e-300
8.03562e-303
3.09321e-305
4.92732e-308
6.85311e-290
5.45819e-292
4.11633e-294
2.9564e-296
2.03073e-298
1.33176e-300
8.14919e-303
4.28833e-305
1.55616e-307
2.15265e-310
1.39464e-292
1.08497e-294
8.07688e-297
5.75331e-299
3.92818e-301
2.5608e-303
1.54784e-305
7.84902e-308
2.55067e-310
2.90109e-313
8.79028e-288
7.81709e-290
6.56703e-292
5.24109e-294
3.96989e-296
2.80263e-298
1.73879e-300
8.11204e-303
1.78188e-305
9.02175e-288
8.74403e-290
7.95355e-292
6.83954e-294
5.58969e-296
4.33032e-298
3.10584e-300
1.91261e-302
8.27594e-305
1.43114e-307
5.35799e-290
5.16675e-292
4.70439e-294
4.06255e-296
3.34045e-298
2.60321e-300
1.86778e-302
1.12703e-304
4.52023e-307
6.61465e-310
1.20754e-292
1.13703e-294
1.01893e-296
8.70703e-299
7.10058e-301
5.48461e-303
3.87106e-305
2.2301e-307
7.82933e-310
8.9597e-313
3.67593e-288
3.78217e-290
3.67085e-292
3.37734e-294
2.93611e-296
2.35833e-298
1.63813e-300
8.33504e-303
1.93096e-305
3.71586e-288
4.14885e-290
4.3442e-292
4.29597e-294
4.02871e-296
3.56502e-298
2.89319e-300
1.98012e-302
9.25703e-305
1.68208e-307
2.4206e-290
2.67932e-292
2.79981e-294
2.77256e-296
2.60848e-298
2.31456e-300
1.8706e-302
1.24438e-304
5.32518e-307
8.05399e-310
5.79764e-293
6.26857e-295
6.44274e-297
6.31183e-299
5.8868e-301
5.1717e-303
4.09796e-305
2.58255e-307
9.52274e-310
1.0961e-312
1.08596e-288
1.2507e-290
1.35636e-292
1.39069e-294
1.34148e-296
1.185e-298
8.90318e-301
4.77193e-303
1.12814e-305
1.07949e-288
1.34323e-290
1.56645e-292
1.72293e-294
1.79345e-296
1.75417e-298
1.55906e-300
1.14855e-302
5.63279e-305
1.051e-307
7.48065e-291
9.20426e-293
1.06745e-294
1.17258e-296
1.22185e-298
1.1955e-300
1.05464e-302
7.51257e-305
3.34726e-307
5.15282e-310
1.85802e-293
2.23258e-295
2.54408e-297
2.76411e-299
2.85456e-301
2.76321e-303
2.38513e-305
1.60159e-307
6.08938e-310
7.03753e-313
2.45997e-289
3.1019e-291
3.67859e-293
4.11512e-295
4.31007e-297
4.09419e-299
3.24931e-301
1.78893e-303
4.20612e-306
2.40199e-289
3.25807e-291
4.14254e-293
4.96402e-295
5.6176e-297
5.94556e-299
5.66291e-301
4.39298e-303
2.21373e-305
4.17416e-308
1.73548e-291
2.32467e-293
2.93119e-295
3.50072e-297
3.95783e-299
4.18149e-301
3.94254e-303
2.94642e-305
1.34368e-307
2.08337e-310
4.40135e-294
5.76004e-296
7.13561e-298
8.42362e-300
9.43378e-302
9.85162e-304
9.07157e-306
6.36713e-308
2.46322e-310
2.85008e-313
4.51186e-290
6.12949e-292
7.82527e-294
9.40503e-296
1.05352e-297
1.05986e-299
8.74269e-302
4.85543e-304
1.11181e-306
4.32479e-290
6.29411e-292
8.59193e-294
1.10498e-295
1.33984e-297
1.51283e-299
1.52255e-301
1.2264e-303
6.26854e-306
1.18406e-308
3.21429e-292
4.61626e-294
6.23533e-296
7.98056e-298
9.65516e-300
1.08677e-301
1.0809e-303
8.37195e-306
3.8709e-308
6.01846e-311
8.23945e-295
1.15689e-296
1.5361e-298
1.94214e-300
2.32739e-302
2.58828e-304
2.51126e-306
1.82255e-308
7.12675e-311
8.25408e-314
6.96482e-291
1.00712e-292
1.36788e-294
1.746e-296
2.06798e-298
2.178e-300
1.84484e-302
1.01869e-304
2.22595e-307
6.55459e-291
1.01278e-292
1.46635e-294
2.00101e-296
2.57127e-298
3.06417e-300
3.2243e-302
2.66908e-304
1.37081e-306
2.57763e-309
4.96663e-293
7.56819e-295
1.08374e-296
1.46934e-298
1.88203e-300
2.23377e-302
2.32068e-304
1.8463e-306
8.59692e-309
1.33615e-311
1.27884e-295
1.90654e-297
2.6855e-299
3.59653e-301
4.5625e-303
5.34927e-305
5.41744e-307
4.0332e-309
1.5862e-311
1.83713e-314
1.09603e-289
9.67693e-292
8.09286e-294
6.41172e-296
4.76114e-298
3.17289e-300
1.68391e-302
5.40634e-305
6.10779e-308
3.93663e-287
3.55245e-289
3.02628e-291
2.43772e-293
1.84355e-295
1.26612e-297
7.1951e-300
2.72753e-302
4.09517e-305
2.71233e-285
2.54861e-287
2.24007e-289
1.85116e-291
1.433e-293
1.01198e-295
6.03271e-298
2.5189e-300
4.56892e-303
1.42878e-285
1.63509e-287
1.75331e-289
1.76817e-291
1.66557e-293
1.41915e-295
1.00462e-297
4.86318e-300
9.92163e-303
2.32498e-286
2.96993e-288
3.5543e-290
3.99687e-292
4.18645e-294
3.94704e-296
3.07757e-298
1.64826e-300
1.92526e-287
2.64895e-289
3.41232e-291
4.12467e-293
4.63209e-295
4.66147e-297
3.85783e-299
2.18233e-301
1.02501e-288
1.48474e-290
2.01375e-292
2.56112e-294
3.01964e-296
3.17445e-298
2.71892e-300
1.56763e-302
3.76807e-290
5.64703e-292
7.92976e-294
1.04402e-295
1.2719e-297
1.37355e-299
1.19181e-301
6.7804e-304
9.32078e-292
1.41885e-293
2.0272e-295
2.71846e-297
3.37048e-299
3.68224e-301
3.17572e-303
1.72841e-305
3.55869e-308
8.62255e-292
1.40136e-293
2.12968e-295
3.051e-297
4.11407e-299
5.12923e-301
5.59989e-303
4.73428e-305
2.43329e-307
4.55292e-310
6.62197e-294
1.06108e-295
1.5948e-297
2.26828e-299
3.0486e-301
3.78627e-303
4.08223e-305
3.32035e-307
1.55408e-309
2.41752e-312
1.70647e-296
2.67708e-298
3.96185e-300
5.57265e-302
7.42018e-304
9.10887e-306
9.57418e-308
7.28425e-310
2.87912e-312
3.3404e-315
5.51249e-291
5.22002e-293
4.66466e-295
3.93947e-297
3.10778e-299
2.18527e-301
1.20842e-303
3.97105e-306
4.51952e-309
2.01417e-288
1.94333e-290
1.76369e-292
1.50983e-294
1.20983e-296
8.75031e-299
5.17508e-301
2.00584e-303
3.02536e-306
1.4469e-286
1.44021e-288
1.33994e-290
1.17095e-292
9.56644e-295
7.09387e-297
4.39212e-299
1.87122e-301
3.39773e-304
1.00878e-286
1.22451e-288
1.39085e-290
1.48318e-292
1.47253e-294
1.31303e-296
9.59376e-299
4.69527e-301
9.51119e-304
1.95701e-287
2.64755e-289
3.35012e-291
3.97431e-293
4.375e-295
4.29794e-297
3.42919e-299
1.81498e-301
3.89312e-304
1.83899e-288
2.67052e-290
3.62545e-292
4.60934e-294
5.42283e-296
5.66274e-298
4.76285e-300
2.62714e-302
5.77804e-305
1.07771e-289
1.64212e-291
2.33963e-293
3.12038e-295
3.84321e-297
4.17993e-299
3.62614e-301
2.03239e-303
4.46932e-306
4.25993e-291
6.69102e-293
9.83732e-295
1.35442e-296
1.71985e-298
1.91858e-300
1.68683e-302
9.39676e-305
2.01705e-307
1.10817e-292
1.76167e-294
2.62873e-296
3.68052e-298
4.75226e-300
5.36429e-302
4.70507e-304
2.54936e-306
5.20993e-309
1.00811e-292
1.7125e-294
2.7157e-296
4.05686e-298
5.70892e-300
7.41239e-302
8.36586e-304
7.21105e-306
3.71967e-308
6.95504e-311
7.81787e-295
1.30949e-296
2.05481e-298
3.05066e-300
4.27876e-302
5.53578e-304
6.17121e-306
5.12059e-308
2.41024e-310
3.75086e-313
2.01229e-297
3.30337e-299
5.11157e-301
7.51723e-303
1.04557e-304
1.33702e-306
1.4527e-308
1.12667e-310
4.47427e-313
5.19289e-316
2.6576e-292
2.67626e-294
2.53862e-296
2.2732e-298
1.89664e-300
1.4021e-302
8.0593e-305
2.70819e-307
3.10244e-310
9.83864e-290
1.0065e-291
9.66531e-294
8.74619e-296
7.39462e-298
5.61453e-300
3.44938e-302
1.36708e-304
2.07384e-307
7.29271e-288
7.64563e-290
7.48886e-292
6.88863e-294
5.91791e-296
4.59568e-298
2.95114e-300
1.2839e-302
2.34084e-305
6.68874e-288
8.55732e-290
1.02334e-291
1.14762e-293
1.19532e-295
1.11142e-297
8.36661e-300
4.14744e-302
8.38796e-305
1.53542e-288
2.18518e-290
2.90516e-292
3.61666e-294
4.16568e-296
4.25001e-298
3.46855e-300
1.83519e-302
3.88833e-305
1.6226e-289
2.47177e-291
3.51653e-293
4.67955e-295
5.74415e-297
6.20647e-299
5.30981e-301
2.90401e-303
6.2607e-306
1.03869e-290
1.65519e-292
2.46454e-294
3.43195e-296
4.3999e-298
4.93911e-300
4.34647e-302
2.41047e-304
5.19452e-307
4.38717e-292
7.18175e-294
1.1004e-295
1.57841e-297
2.08267e-299
2.39508e-301
2.13658e-303
1.18213e-305
2.50355e-308
1.19386e-293
1.9726e-295
3.06107e-297
4.45947e-299
5.97872e-301
6.95667e-303
6.20414e-305
3.36402e-307
6.83763e-310
1.06786e-293
1.88817e-295
3.11245e-297
4.83349e-299
7.07219e-301
9.53104e-303
1.1088e-304
9.7289e-307
5.0403e-309
9.4064e-312
8.34219e-296
1.45498e-297
2.37537e-299
3.66983e-301
5.35418e-303
7.18599e-305
8.25366e-307
6.97022e-309
3.29693e-311
5.12299e-314
2.14253e-298
3.66659e-300
5.91173e-302
9.05854e-304
1.3114e-305
1.73907e-307
1.94504e-309
1.53394e-311
6.11594e-314
7.08664e-317
1.23374e-293
1.31341e-295
1.31638e-297
1.24482e-299
1.09437e-301
8.47598e-304
5.04879e-306
1.73023e-308
1.98931e-311
4.61482e-291
4.97742e-293
5.03584e-295
4.80078e-297
4.27027e-299
3.39488e-301
2.16184e-303
8.74505e-306
1.33149e-308
3.50261e-289
3.85279e-291
3.96032e-293
3.82524e-295
3.44924e-297
2.80109e-299
1.86369e-301
8.27593e-304
1.51434e-306
4.20341e-289
5.64133e-291
7.07317e-293
8.31268e-295
9.05686e-297
8.76029e-299
6.78501e-301
3.40833e-303
6.88995e-306
1.13383e-289
1.68937e-291
2.35041e-293
3.06023e-295
3.67756e-297
3.88823e-299
3.24547e-301
1.72571e-303
3.63049e-306
1.3383e-290
2.12893e-292
3.16199e-294
4.39031e-296
5.60776e-298
6.25752e-300
5.4495e-302
2.97843e-304
6.34815e-307
9.30198e-292
1.54351e-293
2.39345e-295
3.46993e-297
4.61899e-299
5.34208e-301
4.77345e-303
2.64049e-305
5.62191e-308
4.17959e-293
7.09964e-295
1.12996e-296
1.68403e-298
2.30325e-300
2.72533e-302
2.46776e-304
1.36411e-306
2.86267e-309
1.18364e-294
2.0277e-296
3.26164e-298
4.92959e-300
6.84294e-302
8.18743e-304
7.4173e-306
4.03152e-308
8.15508e-311
1.04085e-294
1.90977e-296
3.26423e-298
5.25666e-300
7.97388e-302
1.11147e-303
1.32874e-305
1.18461e-307
6.16224e-310
1.14678e-312
8.17814e-297
1.48078e-298
2.50872e-300
4.02224e-302
6.0851e-304
8.44223e-306
9.9539e-308
8.53732e-310
4.0553e-312
6.28642e-315
2.09478e-299
3.72566e-301
6.24114e-303
9.93222e-305
1.49118e-306
2.04343e-308
2.34442e-310
1.87602e-312
7.50758e-315
8.65513e-318
5.54008e-295
6.20569e-297
6.54667e-299
6.51469e-301
6.01423e-303
4.8645e-305
2.99404e-307
1.04385e-309
1.20214e-312
2.08956e-292
2.36632e-294
2.51447e-296
2.51862e-298
2.35086e-300
1.95179e-302
1.28497e-304
5.29272e-307
8.07118e-310
1.61539e-290
1.85937e-292
2.00176e-294
2.02728e-296
1.91619e-298
1.62497e-300
1.11842e-302
5.061e-305
9.27865e-308
2.52337e-290
3.53945e-292
4.63844e-294
5.69763e-296
6.47727e-298
6.50194e-300
5.17151e-302
2.63013e-304
5.31199e-307
7.94872e-291
1.23548e-292
1.79337e-294
2.43561e-296
3.04628e-298
3.33056e-300
2.84075e-302
1.52072e-304
3.18434e-307
1.04236e-291
1.72516e-293
2.6669e-295
3.85341e-297
5.10918e-299
5.87629e-301
5.20845e-303
2.85439e-305
6.04005e-308
7.83135e-293
1.34799e-294
2.1703e-296
3.26708e-298
4.50431e-300
5.35672e-302
4.86028e-304
2.69134e-306
5.68584e-309
3.72682e-294
6.551e-296
1.07957e-297
1.66703e-299
2.35704e-301
2.86343e-303
2.63077e-305
1.45656e-307
3.03733e-310
1.09354e-295
1.93796e-297
3.22534e-299
5.04117e-301
7.22273e-303
8.86331e-305
8.14731e-307
4.44217e-309
8.9489e-312
9.45326e-296
1.79544e-297
3.175e-299
5.29051e-301
8.29788e-303
1.19254e-304
1.46056e-306
1.32099e-308
6.89892e-311
1.28019e-313
7.46213e-298
1.3992e-299
2.45413e-301
4.073e-303
6.37076e-305
9.10874e-307
1.09967e-308
9.56292e-311
4.56016e-313
7.05145e-316
1.90588e-300
3.51363e-302
6.09913e-304
1.00517e-305
1.56017e-307
2.20256e-309
2.58647e-311
2.09804e-313
8.42743e-316
9.58581e-319
2.41716e-296
2.83762e-298
3.14042e-300
3.27842e-302
3.16888e-304
2.66955e-306
1.69398e-308
5.99832e-311
6.91308e-314
9.17998e-294
1.08779e-295
1.21081e-297
1.27124e-299
1.24213e-301
1.07438e-303
7.29594e-306
3.05411e-308
4.65944e-311
7.204e-292
8.65871e-294
9.74849e-296
1.03392e-297
1.02304e-299
9.04469e-302
6.42778e-304
2.95871e-306
5.428e-309
1.45674e-291
2.12879e-293
2.90806e-295
3.72421e-297
4.40646e-299
4.57871e-301
3.73186e-303
1.91911e-305
3.87068e-308
5.33176e-292
8.61718e-294
1.30145e-295
1.83904e-297
2.38791e-299
2.69358e-301
2.34461e-303
1.26414e-305
2.63789e-308
7.73501e-293
1.32731e-294
2.12953e-296
3.19367e-298
4.38441e-300
5.18676e-302
4.67587e-304
2.57349e-306
5.41907e-309
6.26186e-294
1.11378e-295
1.85608e-297
2.89317e-299
4.1205e-301
5.02854e-303
4.63076e-305
2.57172e-307
5.4048e-310
3.13919e-295
5.69938e-297
9.70164e-299
1.54731e-300
2.25526e-302
2.8068e-304
2.61484e-306
1.45203e-308
3.01427e-311
9.50976e-297
1.74002e-298
2.99007e-300
4.82272e-302
7.11055e-304
8.92668e-306
8.31718e-308
4.55112e-310
9.13788e-313
8.08205e-297
1.58557e-298
2.89504e-300
4.98067e-302
8.05823e-304
1.19108e-305
1.49145e-307
1.36677e-309
7.16568e-312
1.32617e-314
6.40426e-299
1.24085e-300
2.24827e-302
3.85337e-304
6.21596e-306
9.13668e-308
1.12734e-309
9.93305e-312
4.7566e-314
7.3408e-317
1.63088e-301
3.10941e-303
5.57979e-305
9.49908e-307
1.52036e-308
2.20602e-310
2.6471e-312
2.17549e-314
8.77373e-317
9.22717e-320
1.02901e-297
1.2619e-299
1.461e-301
1.59594e-303
1.61138e-305
1.41102e-307
9.21645e-310
3.31113e-312
3.81735e-315
3.93131e-295
4.86066e-297
5.65453e-299
6.20962e-301
6.33826e-303
5.70011e-305
3.98582e-307
1.69353e-309
2.58369e-312
3.12578e-293
3.91612e-295
4.60496e-297
5.10857e-299
5.28441e-301
4.86304e-303
3.56256e-305
1.66574e-307
3.05608e-310
8.13537e-293
1.23481e-294
1.75373e-296
2.33564e-298
2.86875e-300
3.07787e-302
2.56538e-304
1.33246e-306
2.68335e-309
3.44611e-293
5.77231e-295
9.04549e-297
1.32645e-298
1.78351e-300
2.07094e-302
1.83712e-304
9.97593e-307
2.07601e-309
5.51384e-294
9.77313e-296
1.62242e-297
2.51851e-299
3.57082e-301
4.33606e-303
3.97248e-305
2.19738e-307
4.61105e-310
4.78708e-295
8.78402e-297
1.51027e-298
2.43008e-300
3.56557e-302
4.45631e-304
4.16267e-306
2.32081e-308
4.85947e-311
2.51759e-296
4.71218e-298
8.26962e-300
1.3591e-301
2.03605e-303
2.59041e-305
2.44528e-307
1.36287e-309
2.81976e-312
7.85131e-298
1.48026e-299
2.62117e-301
4.35337e-303
6.59151e-305
8.45061e-307
7.97311e-309
4.37911e-311
8.76799e-314
6.56563e-298
1.32717e-299
2.4968e-301
4.42582e-303
7.37034e-305
1.11815e-306
1.42928e-308
1.32642e-310
6.98384e-313
1.29028e-315
5.21949e-300
1.04229e-301
1.9466e-303
3.43795e-305
5.70701e-307
8.60693e-309
1.08383e-310
9.67071e-313
4.6512e-315
7.1467e-318
1.32524e-302
2.60607e-304
4.82334e-306
8.46301e-308
1.39375e-309
2.07463e-311
2.54046e-313
2.11434e-315
8.54715e-318
5.65211e-321
4.29391e-299
5.48466e-301
6.62731e-303
7.55953e-305
7.95878e-307
7.23363e-309
4.85797e-311
1.76942e-313
2.03987e-316
1.6491e-296
2.12196e-298
2.57475e-300
2.95214e-302
3.14257e-304
2.93407e-306
2.10994e-308
9.09187e-311
1.38684e-313
1.3275e-294
1.73056e-296
2.12267e-298
2.46024e-300
2.65721e-302
2.54191e-304
1.91701e-306
9.09592e-309
1.66849e-311
4.42082e-294
6.94564e-296
1.02269e-297
1.41275e-299
1.79667e-301
1.98565e-303
1.68944e-305
8.85476e-308
1.78046e-310
2.16253e-294
3.7383e-296
6.05874e-298
9.19427e-300
1.27684e-301
1.5229e-303
1.37498e-305
7.51779e-308
1.56092e-310
3.80335e-295
6.94189e-297
1.1879e-298
1.90275e-300
2.77879e-302
3.45674e-304
3.2155e-306
1.78805e-308
3.74202e-311
3.52804e-296
6.65751e-298
1.17825e-299
1.95127e-301
2.94082e-303
3.75652e-305
3.5565e-307
1.99137e-309
4.15774e-312
1.94144e-297
3.73216e-299
6.73501e-301
1.138e-302
1.74878e-304
2.27025e-306
2.16945e-308
1.21373e-310
2.50427e-313
6.22197e-299
1.20367e-300
2.19012e-302
3.73682e-304
5.79906e-306
7.58183e-308
7.24066e-310
3.99335e-312
7.98015e-315
5.15837e-299
1.06522e-300
2.05564e-302
3.74319e-304
6.40102e-306
9.94808e-308
1.29636e-309
1.21766e-311
6.4388e-314
1.18778e-316
4.11286e-301
8.39148e-303
1.60799e-304
2.91749e-306
4.97204e-308
7.67939e-310
9.85672e-312
8.90115e-314
4.29918e-316
6.494e-319
1.041e-303
2.0932e-305
3.97717e-307
7.17022e-309
1.21221e-310
1.84776e-312
2.30618e-314
1.94241e-316
7.80179e-319
1.07706e-320
1.76773e-300
2.34306e-302
2.9476e-304
3.50448e-306
3.8418e-308
3.62019e-310
2.49742e-312
9.21576e-315
1.05977e-317
6.82169e-298
9.10305e-300
1.14951e-301
1.37378e-303
1.52305e-305
1.47458e-307
1.08944e-309
4.7578e-312
7.25515e-315
5.56138e-296
7.52063e-298
9.60557e-300
1.16167e-301
1.3085e-303
1.29962e-305
1.00788e-307
4.84918e-310
8.89222e-313
2.36045e-295
3.8143e-297
5.79907e-299
8.28317e-301
1.08779e-302
1.23558e-304
1.07139e-306
5.66186e-309
1.13668e-311
1.33606e-295
2.36452e-297
3.94034e-299
6.16301e-301
8.81292e-303
1.07723e-304
9.88539e-307
5.43964e-309
1.12711e-311
2.59003e-296
4.81286e-298
8.43936e-300
1.38829e-301
2.0808e-303
2.6453e-305
2.49534e-307
1.3946e-309
2.91174e-312
2.57751e-297
4.92352e-299
8.90018e-301
1.51022e-302
2.33067e-304
3.0353e-306
2.90867e-308
1.63523e-310
3.4055e-313
1.49046e-298
2.88514e-300
5.30294e-302
9.16375e-304
1.43981e-305
1.9036e-307
1.84015e-309
1.03357e-311
2.12824e-314
4.92379e-300
9.55553e-302
1.7673e-303
3.07981e-305
4.88184e-307
6.496e-309
6.27378e-311
3.47396e-313
6.93141e-316
4.27811e-300
8.55033e-302
1.65227e-303
3.05531e-305
5.33249e-307
8.46008e-309
1.12163e-310
1.06529e-312
5.65534e-315
1.03972e-317
3.42365e-302
6.75777e-304
1.29645e-305
2.38829e-307
4.15302e-309
6.54632e-311
8.54717e-313
7.80386e-315
3.78163e-317
5.19312e-320
8.62654e-305
1.6807e-306
3.19959e-308
5.8585e-310
1.01064e-311
1.57214e-313
1.99596e-315
1.69709e-317
5.28749e-320
2.89028e-321
7.3433e-302
9.95964e-304
1.2963e-305
1.60116e-307
1.82419e-309
1.77985e-311
1.25992e-313
4.70639e-316
5.27909e-319
2.84429e-299
3.88616e-301
5.07525e-303
6.30165e-305
7.26195e-307
7.28096e-309
5.52082e-311
2.44175e-313
3.7214e-316
2.3516e-297
3.25902e-299
4.30703e-301
5.41744e-303
6.35103e-305
6.53939e-307
5.20844e-309
2.53888e-311
4.65346e-314
1.2915e-296
2.0905e-298
3.23756e-300
4.74539e-302
6.40595e-304
7.45606e-306
6.57654e-308
3.50094e-310
7.01671e-313
8.79034e-297
1.5165e-298
2.54074e-300
4.04678e-302
5.91669e-304
7.38182e-306
6.87008e-308
3.80126e-310
7.85986e-313
1.95964e-297
3.44786e-299
5.98872e-301
9.95237e-303
1.51753e-304
1.96152e-306
1.87124e-308
1.04995e-310
2.18685e-313
2.1771e-298
3.8341e-300
6.7673e-302
1.15112e-303
1.79917e-305
2.37576e-307
2.2987e-309
1.29655e-311
2.69448e-314
1.36613e-299
2.38676e-301
4.23195e-303
7.28312e-305
1.15472e-306
1.54472e-308
1.50603e-310
8.48408e-313
1.74398e-315
4.74855e-301
8.20524e-303
1.45205e-304
2.50877e-306
4.00285e-308
5.38216e-310
5.23924e-312
2.90902e-314
5.79196e-317
5.41e-301
8.44635e-303
1.44389e-304
2.54429e-306
4.39262e-308
7.00607e-310
9.37963e-312
8.97609e-314
4.77691e-316
8.7459e-319
4.35371e-303
6.71191e-305
1.13748e-306
1.99488e-308
3.42961e-310
5.43296e-312
7.16157e-314
6.5873e-316
3.18356e-318
7.76177e-321
1.08745e-305
1.66019e-307
2.79658e-309
4.87992e-311
8.32723e-313
1.30209e-314
1.66877e-316
1.41139e-318
5.54342e-321
0
3.52489e-303
4.50795e-305
5.83559e-307
7.34818e-309
8.62542e-311
8.67533e-313
6.28552e-315
2.36911e-317
1.42637e-320
1.3746e-300
1.76694e-302
2.29487e-304
2.90527e-306
3.44915e-308
3.56493e-310
2.76711e-312
1.23769e-314
1.88291e-317
1.16673e-298
1.51383e-300
1.98694e-302
2.5483e-304
3.07855e-306
3.26904e-308
2.66608e-310
1.3146e-312
2.40748e-315
9.34171e-298
1.29543e-299
1.89203e-301
2.7424e-303
3.73603e-305
4.41422e-307
3.94211e-309
2.10958e-311
4.21949e-314
8.8605e-298
1.20847e-299
1.80377e-301
2.74952e-303
3.98599e-305
4.99838e-307
4.68258e-309
2.59693e-311
5.3558e-314
2.52665e-298
3.34e-300
4.92559e-302
7.58824e-304
1.12642e-305
1.44886e-307
1.38405e-309
7.76737e-312
1.6138e-314
3.34265e-299
4.30427e-301
6.2288e-303
9.56526e-305
1.43228e-306
1.86556e-308
1.79943e-310
1.01335e-312
2.10095e-315
2.35899e-300
2.97503e-302
4.22506e-304
6.43487e-306
9.65112e-308
1.26469e-309
1.22497e-311
6.88051e-314
1.41049e-316
8.76832e-302
1.08861e-303
1.5227e-305
2.29954e-307
3.44288e-309
4.51468e-311
4.35685e-313
2.40995e-315
4.76564e-318
1.46368e-301
1.60708e-303
1.97116e-305
2.72821e-307
4.0933e-309
6.10381e-311
7.9536e-313
7.53825e-315
3.99274e-317
7.09034e-320
1.1815e-303
1.28525e-305
1.56232e-307
2.1487e-309
3.20715e-311
4.74728e-313
6.08817e-315
5.54253e-317
2.59775e-319
1.4486e-320
2.9286e-306
3.15612e-308
3.81475e-310
5.22906e-312
7.76212e-314
1.13528e-315
1.41298e-317
1.17627e-319
5.4446e-321
0
3.40391e-304
3.0823e-306
3.26336e-308
3.76037e-310
4.3026e-312
4.34068e-314
3.17615e-316
1.17987e-318
1.07706e-320
1.34853e-301
1.22322e-303
1.29507e-305
1.49635e-307
1.72963e-309
1.79239e-311
1.40521e-313
6.31995e-316
9.36966e-319
1.20346e-299
1.09673e-301
1.16429e-303
1.35367e-305
1.58592e-307
1.68488e-309
1.38647e-311
6.87143e-314
1.25558e-316
1.51107e-298
1.41938e-300
1.5417e-302
1.87728e-304
2.35625e-306
2.6999e-308
2.38929e-310
1.27422e-312
2.54022e-315
1.97801e-298
1.89934e-300
2.04053e-302
2.45372e-304
3.10373e-306
3.64612e-308
3.32296e-310
1.8225e-312
3.74417e-315
6.749e-299
6.5904e-301
7.01677e-303
8.25626e-305
1.02785e-306
1.20268e-308
1.09909e-310
6.05576e-313
1.2523e-315
9.9028e-300
9.79085e-302
1.03762e-303
1.20081e-305
1.47043e-307
1.70503e-309
1.55287e-311
8.5368e-314
1.76004e-316
7.42234e-301
7.38427e-303
7.79052e-305
8.90079e-307
1.07522e-308
1.23611e-310
1.12015e-312
6.1174e-315
1.24515e-317
2.84576e-302
2.83202e-304
2.97126e-306
3.36187e-308
4.02168e-310
4.58865e-312
4.12114e-314
2.21099e-316
4.23716e-319
5.46214e-302
5.28335e-304
5.23279e-306
5.45493e-308
6.12984e-310
7.28191e-312
8.22991e-314
7.24375e-316
3.69266e-318
1.78555e-320
4.41047e-304
4.23563e-306
4.16445e-308
4.31638e-310
4.8281e-312
5.69603e-314
6.33452e-316
5.35497e-318
1.27123e-320
6.53649e-321
1.09021e-306
1.03663e-308
1.01183e-310
1.04458e-312
1.16405e-314
1.35977e-316
1.4554e-318
5.16704e-319
4.39669e-320
2.25788e-321
7.48703e-305
5.05655e-307
3.76623e-309
3.17401e-311
2.9346e-313
2.63606e-315
1.82681e-317
5.09728e-320
2.89028e-321
2.99211e-302
2.0319e-304
1.51676e-306
1.27903e-308
1.18986e-310
1.09478e-312
8.13076e-315
3.57813e-317
4.23464e-320
2.74901e-300
1.90141e-302
1.43726e-304
1.21927e-306
1.14099e-308
1.0676e-310
8.27786e-313
4.0066e-315
7.25914e-318
4.17322e-299
3.2184e-301
2.61247e-303
2.3006e-305
2.20065e-307
2.11426e-309
1.70535e-311
8.74194e-314
1.72878e-316
6.18895e-299
5.24854e-301
4.57137e-303
4.17292e-305
4.00747e-307
3.81593e-309
3.06843e-311
1.59012e-313
3.2342e-316
2.25336e-299
2.01706e-301
1.83185e-303
1.71133e-305
1.64649e-307
1.54881e-309
1.22906e-311
6.33484e-314
1.29526e-316
3.43281e-300
3.17404e-302
2.95723e-304
2.80498e-306
2.70593e-308
2.52778e-310
1.98683e-312
1.01691e-314
2.06898e-317
2.62949e-301
2.47404e-303
2.33588e-305
2.23255e-307
2.15586e-309
2.00514e-311
1.56512e-313
7.94209e-316
1.57346e-318
1.01936e-302
9.6501e-305
9.14582e-307
8.75338e-309
8.44264e-311
7.81901e-313
6.04782e-315
3.01098e-317
6.26772e-320
1.99981e-302
1.90093e-304
1.79561e-306
1.6974e-308
1.62102e-310
1.55922e-312
1.43389e-314
1.08765e-316
5.07504e-319
1.79642e-320
1.61527e-304
1.52526e-306
1.43111e-308
1.34604e-310
1.28133e-312
1.2268e-314
1.11238e-316
7.97466e-319
1.5904e-320
6.14618e-321
3.98863e-307
3.7291e-309
3.4719e-311
3.25024e-313
3.08297e-315
2.92475e-317
2.52062e-319
1.7979e-320
5.4446e-321
0
1.92949e-305
1.23985e-307
8.21111e-310
5.67632e-312
4.09208e-314
2.90911e-316
1.69209e-318
5.53848e-321
0
7.72297e-303
4.99764e-305
3.32651e-307
2.30638e-309
1.67221e-311
1.21481e-313
7.63754e-316
3.06944e-318
4.27367e-321
7.18602e-301
4.7581e-303
3.23501e-305
2.28124e-307
1.6758e-309
1.23838e-311
8.09847e-314
3.59667e-316
6.36307e-319
1.1882e-299
8.89908e-302
6.69733e-304
5.1034e-306
3.95081e-308
3.01857e-310
2.03506e-312
9.48477e-315
1.84163e-317
1.89384e-299
1.58445e-301
1.32222e-303
1.10275e-305
9.14807e-308
7.29301e-310
5.02747e-312
2.38862e-314
4.78806e-317
7.19311e-300
6.39608e-302
5.65057e-304
4.95647e-306
4.27821e-308
3.49756e-310
2.43999e-312
1.1664e-314
2.35358e-317
1.12543e-300
1.03706e-302
9.47012e-305
8.55464e-307
7.56158e-309
6.28151e-311
4.41688e-313
2.11552e-315
4.24074e-318
8.76174e-302
8.22882e-304
7.64491e-306
7.01211e-308
6.27768e-310
5.26218e-312
3.71422e-314
1.7738e-316
3.55436e-319
3.42592e-303
3.23974e-305
3.02701e-307
2.79075e-309
2.51021e-311
2.10973e-313
1.48419e-315
6.96265e-318
9.6244e-321
6.70734e-303
6.41211e-305
6.05206e-307
5.6442e-309
5.20009e-311
4.67662e-313
3.91585e-315
2.70886e-317
1.12118e-319
6.53649e-321
5.42254e-305
5.14989e-307
4.82843e-309
4.48091e-311
4.11657e-313
3.68888e-315
3.0493e-317
1.90971e-319
9.22915e-321
0
1.3384e-307
1.25855e-309
1.17079e-311
1.08122e-313
9.89652e-316
8.77367e-318
7.3601e-320
6.53649e-321
0
0
4.29364e-306
2.80573e-308
1.86034e-310
1.25213e-312
8.44193e-315
5.40184e-317
2.80145e-319
9.69357e-321
0
1.7176e-303
1.13064e-305
7.5389e-308
5.09335e-310
3.45563e-312
2.26007e-314
1.27091e-316
4.71729e-319
2.77665e-321
1.61548e-301
1.08849e-303
7.42223e-306
5.1134e-308
3.52947e-310
2.35811e-312
1.38281e-314
5.71693e-317
9.81955e-320
2.88874e-300
2.18487e-302
1.64365e-304
1.22784e-306
9.03316e-309
6.34121e-311
3.88696e-313
1.69912e-315
3.25379e-318
4.9687e-300
4.20118e-302
3.52012e-304
2.91198e-306
2.34947e-308
1.78171e-310
1.15836e-312
5.2871e-315
1.05182e-317
1.97628e-300
1.77595e-302
1.57806e-304
1.38003e-306
1.17091e-308
9.25861e-311
6.20476e-313
2.88485e-315
5.77968e-318
3.18544e-301
2.96514e-303
2.72464e-305
2.45915e-307
2.14728e-309
1.7392e-311
1.18549e-313
5.55633e-316
1.10549e-318
2.5262e-302
2.39536e-304
2.23921e-306
2.05393e-308
1.8208e-310
1.49409e-312
1.02697e-314
4.81203e-317
9.68171e-320
9.97819e-304
9.52226e-306
8.95038e-308
8.25429e-310
7.35932e-312
6.06582e-314
4.16416e-316
1.89999e-318
2.85076e-321
1.94232e-303
1.87627e-305
1.78656e-307
1.67583e-309
1.54447e-311
1.37726e-313
1.13181e-315
7.63283e-318
2.35274e-320
3.71043e-321
1.57314e-305
1.50939e-307
1.42741e-309
1.33215e-311
1.2241e-313
1.08767e-315
8.80919e-318
5.26674e-320
2.81617e-321
0
3.88339e-308
3.68892e-310
3.46092e-312
3.21369e-314
2.94142e-316
2.58742e-318
1.96095e-320
3.71043e-321
0
0
8.37802e-307
5.63614e-309
3.83238e-311
2.62737e-313
1.7844e-315
1.13244e-317
6.15211e-320
5.96337e-321
0
3.34655e-304
2.26843e-306
1.55144e-308
1.06791e-310
7.30109e-313
4.74274e-315
2.61841e-317
9.50731e-320
8.70544e-321
3.18174e-302
2.20679e-304
1.5427e-306
1.08235e-308
7.52779e-311
4.99773e-313
2.88152e-315
1.17157e-317
2.89522e-320
6.15276e-301
4.73536e-303
3.61634e-305
2.73041e-307
2.01494e-309
1.40405e-311
8.4747e-314
3.65633e-316
6.78851e-319
1.15176e-300
9.8887e-303
8.39862e-305
7.02107e-307
5.69609e-309
4.3144e-311
2.78688e-313
1.26453e-315
2.50751e-318
4.82359e-301
4.39513e-303
3.95438e-305
3.49338e-307
2.98299e-309
2.36192e-311
1.57855e-313
7.3164e-316
1.45053e-318
8.03853e-302
7.57712e-304
7.04207e-306
6.41597e-308
5.63774e-310
4.5761e-312
3.1149e-314
1.45665e-316
2.92788e-319
6.50933e-303
6.24316e-305
5.89701e-307
5.45614e-309
4.86565e-311
4.00156e-313
2.74778e-315
1.28291e-317
3.27911e-320
2.6011e-304
2.50868e-306
2.38079e-308
2.2134e-310
1.98439e-312
1.63901e-314
1.12367e-316
5.06225e-319
2.77171e-321
5.03718e-304
4.918e-306
4.7301e-308
4.47761e-310
4.15837e-312
3.72764e-314
3.06854e-316
2.05839e-318
1.86115e-320
2.77665e-321
4.08968e-306
3.96457e-308
3.78577e-310
3.56446e-312
3.2996e-314
2.94617e-316
2.37501e-318
1.71144e-320
2.77665e-321
0
1.01001e-308
9.69152e-311
9.17926e-313
8.59729e-315
7.92433e-317
6.97181e-319
1.8567e-320
7.0602e-321
0
0
1.50968e-307
1.04707e-309
7.32504e-312
5.15163e-314
3.57356e-316
2.29302e-318
8.96729e-321
0
0
6.01588e-305
4.20585e-307
2.96031e-309
2.09096e-311
1.46078e-313
9.63923e-316
5.35957e-318
1.20404e-320
0
5.77964e-303
4.13229e-305
2.97057e-307
2.13663e-309
1.51724e-311
1.02275e-313
5.94983e-316
2.40753e-318
1.53062e-320
1.20483e-301
9.44352e-304
7.33806e-306
5.62964e-308
4.21202e-310
2.96539e-312
1.80088e-314
7.79024e-317
1.54613e-319
2.47049e-301
2.15388e-303
1.85608e-305
1.57256e-307
1.29075e-309
9.86549e-312
6.41015e-314
2.91694e-316
5.66372e-319
1.09402e-301
1.01036e-303
9.20739e-306
8.23086e-308
7.10185e-310
5.6698e-312
3.8102e-314
1.7706e-316
3.53084e-319
1.89015e-302
1.80288e-304
1.69453e-306
1.56007e-308
1.38352e-310
1.13124e-312
7.73758e-315
3.62448e-317
7.98954e-320
1.56557e-303
1.51737e-305
1.44759e-307
1.35184e-309
1.21545e-311
1.00611e-313
6.93747e-316
3.22967e-318
1.37251e-320
6.33557e-305
6.16848e-307
5.90696e-309
5.53802e-311
5.00211e-313
4.1557e-315
2.85838e-317
1.25675e-319
2.75195e-321
1.22332e-304
1.20524e-306
1.16938e-308
1.11627e-310
1.04486e-312
9.43156e-315
7.80302e-317
5.17554e-319
8.69556e-321
0
9.96116e-307
9.73947e-309
9.37771e-311
8.90026e-313
8.30072e-315
7.45799e-317
5.93412e-319
6.80822e-321
0
0
2.46189e-309
2.38182e-311
2.27405e-313
2.14631e-315
1.99071e-317
1.67424e-319
8.70544e-321
0
0
0
2.60463e-308
1.8572e-310
1.33336e-312
9.6032e-315
6.80039e-317
4.3582e-319
2.77665e-321
0
0
1.03449e-305