/*--------------------------------*- C++ -*----------------------------------*\
| =========                 |                                                 |
| \\      /  F ield         | OpenFOAM: The Open Source CFD Toolbox           |
|  \\    /   O peration     | Version:  2.3.1                                 |
|   \\  /    A nd           | Web:      www.OpenFOAM.org                      |
|    \\/     M anipulation  |                                                 |
\*---------------------------------------------------------------------------*/
FoamFile
{
    version     2.0;
    format      ascii;
    class       volScalarField;
    location    "10";
    object      Sed_0;
}
// * * * * * * * * * * * * * * * * * * * * * * * * * * * * * * * * * * * * * //

dimensions      [0 0 0 0 0 0 0];

internalField   nonuniform List<scalar> 
37784
(
1.01255e-290
3.07681e-293
1.03108e-295
3.68169e-298
1.38875e-300
5.38279e-303
1.97028e-305
5.49659e-308
7.24557e-311
1.03118e-290
3.43747e-293
1.25273e-295
4.82426e-298
1.95792e-300
8.29412e-303
3.53763e-305
1.3779e-307
3.8197e-310
4.57887e-313
2.31316e-293
8.71108e-296
3.48194e-298
1.45957e-300
6.4029e-303
2.8986e-305
1.30599e-307
5.31403e-310
1.51333e-312
1.90515e-315
2.50038e-296
9.54294e-299
3.9029e-301
1.67594e-303
7.50219e-306
3.44732e-308
1.57181e-310
6.48868e-313
1.91696e-315
2.98793e-318
1.06796e-288
3.77307e-291
1.34768e-293
4.99726e-296
1.93981e-298
7.72354e-301
2.93889e-303
8.92867e-306
1.32003e-308
1.1274e-288
4.37839e-291
1.70182e-293
6.80105e-296
2.83427e-298
1.22619e-300
5.33913e-303
2.14926e-305
6.43707e-308
8.20333e-311
3.165e-291
1.28594e-293
5.34622e-296
2.30299e-298
1.03149e-300
4.74858e-303
2.17308e-305
9.03841e-308
2.70433e-310
3.34805e-313
4.2363e-294
1.71836e-296
7.27156e-299
3.20213e-301
1.46313e-303
6.83786e-306
3.1588e-308
1.31396e-310
3.85755e-313
5.0598e-316
8.02596e-288
4.38442e-290
2.283e-292
1.14284e-294
5.53371e-297
2.5766e-299
1.10291e-301
3.76379e-304
6.46215e-307
8.42949e-288
5.06132e-290
2.87511e-292
1.55932e-294
8.15399e-297
4.13998e-299
2.01646e-301
8.86571e-304
2.91958e-306
4.11701e-309
3.46166e-290
2.09211e-292
1.20512e-294
6.65202e-297
3.56048e-299
1.85452e-301
9.25276e-304
4.11296e-306
1.31393e-308
1.682e-311
5.98536e-293
3.53965e-295
2.01616e-297
1.10697e-299
5.91863e-302
3.08322e-304
1.53377e-306
6.68463e-309
1.98599e-311
2.2946e-314
1.22756e-287
8.93817e-290
6.16203e-292
4.05455e-294
2.54895e-296
1.50949e-298
7.99684e-301
3.2738e-303
6.54297e-306
1.27627e-287
1.01719e-289
7.62046e-292
5.41747e-294
3.67796e-296
2.38315e-298
1.44668e-300
7.68989e-303
2.95965e-305
4.71384e-308
6.56787e-290
5.22928e-292
3.94245e-294
2.83076e-296
1.94403e-298
1.27469e-300
7.79882e-303
4.10339e-305
1.48885e-307
2.05933e-310
1.33628e-292
1.03919e-294
7.73392e-297
5.50784e-299
3.75998e-301
2.45082e-303
1.48116e-305
7.50989e-308
2.44018e-310
2.7752e-313
8.42939e-288
7.49405e-290
6.29406e-292
5.02203e-294
3.80313e-296
2.68436e-298
1.66509e-300
7.76676e-303
1.70569e-305
8.65301e-288
8.38376e-290
7.62346e-292
6.55377e-294
5.35478e-296
4.14744e-298
2.9741e-300
1.83116e-302
7.92215e-305
1.36974e-307
5.13804e-290
4.95286e-292
4.50808e-294
3.89191e-296
3.19941e-298
2.49283e-300
1.78829e-302
1.0789e-304
4.32658e-307
6.3306e-310
1.15767e-292
1.08965e-294
9.76168e-297
8.33966e-299
6.79977e-301
5.25142e-303
3.70592e-305
2.13466e-307
7.49332e-310
8.57447e-313
3.52641e-288
3.62722e-290
3.51951e-292
3.23727e-294
2.81369e-296
2.25951e-298
1.56918e-300
7.9826e-303
1.84893e-305
3.56538e-288
3.97936e-290
4.16535e-292
4.11784e-294
3.86063e-296
3.41551e-298
2.7713e-300
1.89634e-302
8.8638e-305
1.61036e-307
2.32207e-290
2.56927e-292
2.68384e-294
2.65693e-296
2.49911e-298
2.21708e-300
1.7915e-302
1.19157e-304
5.0984e-307
7.71016e-310
5.56008e-293
6.00927e-295
6.17427e-297
6.04737e-299
5.63908e-301
4.95323e-303
3.92421e-305
2.47268e-307
9.11642e-310
1.04924e-312
1.04204e-288
1.19974e-290
1.30072e-292
1.33328e-294
1.28579e-296
1.13556e-298
8.52993e-301
4.57095e-303
1.08039e-305
1.03601e-288
1.28864e-290
1.50226e-292
1.6518e-294
1.71894e-296
1.68091e-298
1.49364e-300
1.10014e-302
5.39442e-305
1.00635e-307
7.17768e-291
8.82786e-293
1.02342e-294
1.12388e-296
1.17082e-298
1.14534e-300
1.01021e-302
7.1949e-305
3.20524e-307
4.93364e-310
1.78224e-293
2.14062e-295
2.43851e-297
2.64877e-299
2.73491e-301
2.64693e-303
2.28438e-305
1.5337e-307
5.83048e-310
6.73774e-313
2.36085e-289
2.97591e-291
3.5281e-293
3.94568e-295
4.13157e-297
3.92374e-299
3.11338e-301
1.71374e-303
4.02848e-306
2.30559e-289
3.12606e-291
3.97324e-293
4.75958e-295
5.38476e-297
5.69779e-299
5.4258e-301
4.20823e-303
2.12024e-305
3.99722e-308
1.6654e-291
2.22984e-293
2.81057e-295
3.35566e-297
3.79292e-299
4.00645e-301
3.77681e-303
2.82209e-305
1.28678e-307
1.99492e-310
4.2223e-294
5.52333e-296
6.84015e-298
8.07293e-300
9.03926e-302
9.43793e-304
8.68914e-306
6.09776e-308
2.3587e-310
2.7289e-313
4.33041e-290
5.88091e-292
7.50557e-294
9.01823e-296
1.00994e-297
1.01578e-299
8.37732e-302
4.65153e-304
1.06489e-306
4.15152e-290
6.03943e-292
8.24119e-294
1.05952e-295
1.28436e-297
1.44985e-299
1.45887e-301
1.17487e-303
6.00406e-306
1.13392e-308
3.08467e-292
4.42817e-294
5.97901e-296
7.65022e-298
9.25332e-300
1.04133e-301
1.03551e-303
8.01902e-306
3.70715e-308
5.76323e-311
7.90468e-295
1.1094e-296
1.47256e-298
1.86139e-300
2.23018e-302
2.47972e-304
2.40551e-306
1.74552e-308
6.82463e-311
7.90348e-314
6.6849e-291
9.66295e-293
1.31201e-294
1.6742e-296
1.98243e-298
2.08743e-300
1.76775e-302
9.7591e-305
2.13202e-307
6.29213e-291
9.71809e-293
1.4065e-294
1.9187e-296
2.46482e-298
2.93663e-300
3.08946e-302
2.55697e-304
1.31299e-306
2.46853e-309
4.76643e-293
7.25986e-295
1.03919e-296
1.40853e-298
1.80373e-300
2.1404e-302
2.22327e-304
1.7685e-306
8.23341e-309
1.27952e-311
1.2269e-295
1.8283e-297
2.57447e-299
3.44705e-301
4.37204e-303
5.12501e-305
5.18941e-307
3.86282e-309
1.51899e-311
1.75913e-314
1.05175e-289
9.28164e-292
7.75921e-294
6.14538e-296
4.5621e-298
3.03953e-300
1.61279e-302
5.17701e-305
5.84773e-308
3.77856e-287
3.4083e-289
2.90236e-291
2.3371e-293
1.76693e-295
1.21319e-297
6.89272e-300
2.61235e-302
3.92145e-305
2.60366e-285
2.44559e-287
2.14879e-289
1.77517e-291
1.37377e-293
9.69901e-296
5.78046e-298
2.41303e-300
4.3759e-303
1.37179e-285
1.56929e-287
1.6822e-289
1.69594e-291
1.59708e-293
1.36045e-295
9.62854e-298
4.65996e-300
9.50498e-303
2.2323e-286
2.85049e-288
3.41022e-290
3.83367e-292
4.01439e-294
3.78388e-296
2.94969e-298
1.57943e-300
1.84844e-287
2.5423e-289
3.27382e-291
3.95602e-293
4.44146e-295
4.46854e-297
3.69736e-299
2.09112e-301
9.84035e-289
1.42483e-290
1.93185e-292
2.45619e-294
2.89513e-296
3.04284e-298
2.60564e-300
1.50202e-302
3.61705e-290
5.4186e-292
7.60636e-294
1.00113e-295
1.21933e-297
1.31649e-299
1.14206e-301
6.49615e-304
8.94569e-292
1.36118e-293
1.94409e-295
2.60623e-297
3.23053e-299
3.52863e-301
3.04268e-303
1.65572e-305
3.40855e-308
8.27725e-292
1.34462e-293
2.04259e-295
2.92522e-297
3.94343e-299
4.91549e-301
5.36561e-303
4.53552e-305
2.33082e-307
4.36075e-310
6.35498e-294
1.01781e-295
1.52918e-297
2.17433e-299
2.92176e-301
3.62812e-303
3.91112e-305
3.18073e-307
1.48855e-309
2.31537e-312
1.63715e-296
2.56717e-298
3.79803e-300
5.34118e-302
7.11089e-304
8.72781e-306
9.17221e-308
6.97741e-310
2.75749e-312
3.19894e-315
5.28943e-291
5.00618e-293
4.47181e-295
3.77552e-297
2.97777e-299
2.09345e-301
1.15746e-303
3.80307e-306
4.3279e-309
1.93318e-288
1.86426e-290
1.6912e-292
1.44728e-294
1.1594e-296
8.38376e-299
4.9574e-301
1.92118e-303
2.89736e-306
1.38894e-286
1.38191e-288
1.28519e-290
1.1227e-292
9.16954e-295
6.7979e-297
4.20801e-299
1.79248e-301
3.25433e-304
9.68542e-287
1.17516e-288
1.33428e-290
1.42237e-292
1.41175e-294
1.25854e-296
9.19391e-299
4.49887e-301
9.11228e-304
1.87896e-287
2.54087e-289
3.21388e-291
3.81137e-293
4.19447e-295
4.11967e-297
3.28636e-299
1.73912e-301
3.72997e-304
1.76554e-288
2.56275e-290
3.47777e-292
4.42009e-294
5.19877e-296
5.42763e-298
4.56433e-300
2.51727e-302
5.53577e-305
1.03457e-289
1.57569e-291
2.2441e-293
2.99198e-295
3.68414e-297
4.00614e-299
3.47483e-301
1.94731e-303
4.28176e-306
4.08892e-291
6.41954e-293
9.43451e-295
1.29856e-296
1.64854e-298
1.83871e-300
1.61636e-302
9.00302e-305
1.93232e-307
1.06352e-292
1.68989e-294
2.52067e-296
3.52825e-298
4.55477e-300
5.14059e-302
4.50828e-304
2.44245e-306
4.99095e-309
9.67714e-293
1.64308e-294
2.60447e-296
3.88943e-298
5.47214e-300
7.10389e-302
8.01664e-304
6.9092e-306
3.56355e-308
6.66243e-311
7.5025e-295
1.25605e-296
1.9702e-298
2.92437e-300
4.10103e-302
5.30516e-304
5.91332e-306
4.90594e-308
2.30889e-310
3.59267e-313
1.93052e-297
3.1677e-299
4.90031e-301
7.2055e-303
1.00209e-304
1.28125e-306
1.39188e-308
1.07933e-310
4.28559e-313
4.9731e-316
2.54994e-292
2.56652e-294
2.43368e-296
2.17875e-298
1.81752e-300
1.34341e-302
7.72083e-305
2.59412e-307
2.97141e-310
9.44266e-290
9.6548e-292
9.26744e-294
8.38365e-296
7.08662e-298
5.37981e-300
3.30473e-302
1.30961e-304
1.98648e-307
7.00059e-288
7.33578e-290
7.18223e-292
6.60424e-294
5.67211e-296
4.40396e-298
2.82762e-300
1.23003e-302
2.24245e-305
6.42187e-288
8.21203e-290
9.81629e-292
1.10046e-293
1.14592e-295
1.0653e-297
8.01841e-300
3.97445e-302
8.03757e-305
1.47415e-288
2.09699e-290
2.78675e-292
3.46808e-294
3.99358e-296
4.07375e-298
3.32429e-300
1.7587e-302
3.72599e-305
1.55773e-289
2.37183e-291
3.37295e-293
4.48703e-295
5.50659e-297
5.94888e-299
5.08886e-301
2.78291e-303
5.99911e-306
9.97059e-291
1.58809e-292
2.36367e-294
3.2905e-296
4.21771e-298
4.73394e-300
4.16547e-302
2.30986e-304
4.97723e-307
4.21081e-292
6.88976e-294
1.05525e-295
1.51324e-297
1.99633e-299
2.2955e-301
2.04753e-303
1.13274e-305
2.39868e-308
1.14569e-293
1.8921e-295
2.93511e-297
4.27501e-299
5.73063e-301
6.66726e-303
5.94538e-305
3.22333e-307
6.55083e-310
1.02504e-293
1.81154e-295
2.98485e-297
4.63402e-299
6.77927e-301
9.13527e-303
1.06264e-304
9.32265e-307
4.82914e-309
9.01095e-312
8.00543e-296
1.39556e-297
2.27755e-299
3.51805e-301
5.13219e-303
6.88728e-305
7.90945e-307
6.67846e-309
3.15838e-311
4.90682e-314
2.05542e-298
3.51596e-300
5.66753e-302
8.6834e-304
1.25696e-305
1.66663e-307
1.8637e-309
1.46951e-311
5.8579e-314
6.7862e-317
1.18372e-293
1.25955e-295
1.26204e-297
1.19322e-299
1.04886e-301
8.12232e-304
4.83738e-306
1.65752e-308
1.90539e-311
4.42892e-291
4.77438e-293
4.82856e-295
4.60207e-297
4.09286e-299
3.25343e-301
2.0715e-303
8.37857e-306
1.27552e-308
3.36225e-289
3.6965e-291
3.79801e-293
3.66731e-295
3.30616e-297
2.68452e-299
1.78594e-301
7.92991e-304
1.45089e-306
4.0356e-289
5.41344e-291
6.78457e-293
7.97105e-295
8.68294e-297
8.39757e-299
6.50349e-301
3.26665e-303
6.60298e-306
1.08854e-289
1.6211e-291
2.25449e-293
2.93446e-295
3.52576e-297
3.72729e-299
3.11087e-301
1.65399e-303
3.47928e-306
1.28474e-290
2.04273e-292
3.03273e-294
4.20964e-296
5.37607e-298
5.99833e-300
5.22332e-302
2.85453e-304
6.08339e-307
8.9287e-292
1.48085e-293
2.2954e-295
3.32692e-297
4.42795e-299
5.12061e-301
4.57513e-303
2.53051e-305
5.38703e-308
4.01134e-293
6.81061e-295
1.08357e-296
1.61453e-298
2.2079e-300
2.61225e-302
2.36512e-304
1.30721e-306
2.74284e-309
1.13582e-294
1.94488e-296
3.12741e-298
4.72589e-300
6.55946e-302
7.84743e-304
7.10839e-306
3.86304e-308
7.81295e-311
9.99084e-295
1.8322e-296
3.13035e-298
5.03982e-300
7.644e-302
1.06538e-303
1.27348e-305
1.13517e-307
5.904e-310
1.09851e-312
7.84776e-297
1.42027e-298
2.40541e-300
3.85599e-302
5.83303e-304
8.09153e-306
9.53885e-308
8.17979e-310
3.88469e-312
6.02074e-315
2.00956e-299
3.57255e-301
5.98337e-303
9.52109e-305
1.4293e-306
1.9583e-308
2.24629e-310
1.79712e-312
7.1903e-315
8.28692e-318
5.31537e-295
5.95131e-297
6.27679e-299
6.24521e-301
5.76465e-303
4.66185e-305
2.86879e-307
9.99988e-310
1.15141e-312
2.00532e-292
2.26976e-294
2.41105e-296
2.41456e-298
2.25343e-300
1.87066e-302
1.23138e-304
5.07118e-307
7.73203e-310
1.55062e-290
1.78389e-292
1.91971e-294
1.94367e-296
1.83687e-298
1.55753e-300
1.07188e-302
4.84986e-305
8.89038e-308
2.42256e-290
3.39634e-292
4.44912e-294
5.46363e-296
6.21032e-298
6.23337e-300
4.95746e-302
2.52101e-304
5.09094e-307
7.6309e-291
1.1855e-292
1.72015e-294
2.33556e-296
2.92071e-298
3.19298e-300
2.72317e-302
1.45762e-304
3.05177e-307
1.0006e-291
1.65523e-293
2.55782e-295
3.69491e-297
4.89836e-299
5.6333e-301
4.99259e-303
2.73576e-305
5.78812e-308
7.51668e-293
1.29321e-294
2.08135e-296
3.1325e-298
4.31824e-300
5.13496e-302
4.65855e-304
2.57927e-306
5.44817e-309
3.57661e-294
6.28402e-296
1.03523e-297
1.59827e-299
2.25957e-301
2.74474e-303
2.5214e-305
1.39578e-307
2.91007e-310
1.04932e-295
1.85874e-297
3.0926e-299
4.83297e-301
6.92373e-303
8.4954e-305
7.80793e-307
4.25636e-309
8.57292e-312
9.07357e-296
1.72244e-297
3.04471e-299
5.07229e-301
7.95471e-303
1.1431e-304
1.3998e-306
1.2658e-308
6.60938e-311
1.22622e-313
7.16045e-298
1.34198e-299
2.35303e-301
3.90466e-303
6.10683e-305
8.73015e-307
1.05376e-308
9.1618e-311
4.36795e-313
6.75286e-316
1.8283e-300
3.36916e-302
5.84718e-304
9.63555e-306
1.49538e-307
2.11069e-309
2.47804e-311
2.00963e-313
8.07058e-316
9.17095e-319
2.31905e-296
2.72131e-298
3.01106e-300
3.14295e-302
3.03747e-304
2.55835e-306
1.62308e-308
5.74609e-311
6.62105e-314
8.80962e-294
1.04339e-295
1.16104e-297
1.21879e-299
1.19072e-301
1.02976e-303
6.99177e-306
2.92624e-308
4.4635e-311
6.91493e-292
8.30702e-294
9.34903e-296
9.91329e-298
9.80768e-300
8.66998e-302
6.16068e-304
2.83533e-306
5.2008e-309
1.39848e-291
2.04265e-293
2.78936e-295
3.57139e-297
4.22512e-299
4.38987e-301
3.57755e-303
1.83951e-305
3.70953e-308
5.11834e-292
8.26822e-294
1.24829e-295
1.76353e-297
2.28959e-299
2.58244e-301
2.24762e-303
1.21168e-305
2.52798e-308
7.42467e-293
1.27344e-294
2.04239e-296
3.06235e-298
4.20364e-300
4.97242e-302
4.48212e-304
2.46647e-306
5.19278e-309
6.00992e-294
1.06846e-295
1.77998e-297
2.77402e-299
3.95036e-301
4.82041e-303
4.4385e-305
2.46454e-307
5.17855e-310
3.01252e-295
5.46688e-297
9.30305e-299
1.48349e-300
2.16202e-302
2.69043e-304
2.50606e-306
1.39136e-308
2.88777e-311
9.1248e-297
1.66884e-298
2.86698e-300
4.62352e-302
6.81612e-304
8.55587e-306
7.9703e-308
4.36045e-310
8.75327e-313
7.75715e-297
1.52104e-298
2.77616e-300
4.77517e-302
7.72486e-304
1.14166e-305
1.42933e-307
1.30957e-309
6.86438e-312
1.27015e-314
6.14514e-299
1.19007e-300
2.15561e-302
3.69404e-304
5.95826e-306
8.75646e-308
1.08021e-309
9.51563e-312
4.55572e-314
7.02926e-317
1.56445e-301
2.98149e-303
5.34918e-305
9.10553e-307
1.45716e-308
2.11387e-310
2.53593e-312
2.08365e-314
8.40152e-317
8.83636e-320
9.87216e-298
1.21017e-299
1.40083e-301
1.53e-303
1.54453e-305
1.3522e-307
8.83033e-310
3.17173e-312
3.65591e-315
3.77256e-295
4.66219e-297
5.42218e-299
5.95355e-301
6.07604e-303
5.46337e-305
3.81954e-307
1.62255e-309
2.47491e-312
3.00024e-293
3.75696e-295
4.41629e-297
4.8983e-299
5.06627e-301
4.66169e-303
3.41452e-305
1.59624e-307
2.92802e-310
7.80969e-293
1.18481e-294
1.68213e-296
2.23984e-298
2.75077e-300
2.95098e-302
2.45929e-304
1.27715e-306
2.5715e-309
3.308e-293
5.53832e-295
8.67587e-297
1.272e-298
1.7101e-300
1.9855e-302
1.76109e-304
9.56147e-307
1.98939e-309
5.29231e-294
9.37608e-296
1.556e-297
2.41495e-299
3.4236e-301
4.15682e-303
3.80774e-305
2.10588e-307
4.41819e-310
4.59423e-295
8.42625e-297
1.44831e-298
2.32997e-300
3.41831e-302
4.27175e-304
3.98965e-306
2.22393e-308
4.6557e-311
2.41589e-296
4.51977e-298
7.92965e-300
1.30302e-301
1.95182e-303
2.48291e-305
2.34341e-307
1.30583e-309
2.7012e-312
7.53315e-298
1.41965e-299
2.51319e-301
4.17345e-303
6.31832e-305
8.0991e-307
7.64001e-309
4.1953e-311
8.39826e-314
6.30146e-298
1.2731e-299
2.3942e-301
4.24309e-303
7.06517e-305
1.0717e-306
1.36965e-308
1.27081e-310
6.68962e-313
1.23568e-315
5.00814e-300
9.996e-302
1.86632e-303
3.29569e-305
5.47015e-307
8.24822e-309
1.03843e-310
9.26354e-313
4.45441e-315
6.84201e-318
1.27122e-302
2.49877e-304
4.62386e-306
8.11207e-308
1.33574e-309
1.98783e-311
2.43357e-313
2.02492e-315
8.18283e-318
5.64223e-321
4.11933e-299
5.25973e-301
6.35435e-303
7.2471e-305
7.62839e-307
6.93178e-309
4.6542e-311
1.69483e-313
1.95349e-316
1.58244e-296
2.03527e-298
2.46894e-300
2.83039e-302
3.01252e-304
2.81212e-306
2.02182e-308
8.71031e-311
1.32838e-313
1.27413e-294
1.66017e-296
2.03569e-298
2.359e-300
2.54754e-302
2.43664e-304
1.83729e-306
8.71596e-309
1.59849e-311
4.24364e-294
6.66412e-296
9.80926e-298
1.35481e-299
1.72278e-301
1.90376e-303
1.61952e-305
8.48674e-308
1.70614e-310
2.07575e-294
3.58661e-296
5.81102e-298
8.81676e-300
1.22428e-301
1.46003e-303
1.31802e-305
7.20502e-308
1.49569e-310
3.65033e-295
6.65953e-297
1.13923e-298
1.82447e-300
2.66416e-302
3.31373e-304
3.08197e-306
1.71347e-308
3.58524e-311
3.38573e-296
6.38604e-298
1.12987e-299
1.87083e-301
2.81927e-303
3.60076e-305
3.40845e-307
1.9081e-309
3.98308e-312
1.86291e-297
3.5796e-299
6.4579e-301
1.09101e-302
1.67636e-304
2.17591e-306
2.07891e-308
1.16284e-310
2.39879e-313
5.96955e-299
1.15434e-300
2.09983e-302
3.58225e-304
5.55842e-306
7.26596e-308
6.93761e-310
3.82541e-312
7.64298e-315
4.95057e-299
1.02178e-300
1.97108e-302
3.58851e-304
6.13571e-306
9.53421e-308
1.24218e-309
1.16652e-311
6.16702e-314
1.13741e-316
3.94613e-301
8.0474e-303
1.54161e-304
2.79665e-306
4.76543e-308
7.35883e-310
9.44309e-312
8.52567e-314
4.11693e-316
6.20882e-319
9.98517e-304
2.00695e-305
3.81255e-307
6.87257e-309
1.16168e-310
1.77031e-312
2.20897e-314
1.86009e-316
7.46469e-319
1.07706e-320
1.69578e-300
2.2469e-302
2.82614e-304
3.35954e-306
3.68215e-308
3.46893e-310
2.39252e-312
8.82678e-315
1.01473e-317
6.54559e-298
8.73086e-300
1.10225e-301
1.31711e-303
1.45997e-305
1.41322e-307
1.04388e-309
4.55786e-312
6.9489e-315
5.33748e-296
7.21447e-298
9.21181e-300
1.11386e-301
1.25446e-303
1.24575e-305
9.65913e-308
4.64634e-310
8.51865e-313
2.26571e-295
3.65954e-297
5.56211e-299
7.94335e-301
1.04303e-302
1.18458e-304
1.02699e-306
5.42619e-309
1.08916e-311
1.28236e-295
2.26845e-297
3.7791e-299
5.90981e-301
8.44985e-303
1.03271e-304
9.47527e-307
5.21296e-309
1.07992e-311
2.48566e-296
4.61684e-298
8.09323e-300
1.33112e-301
1.99488e-303
2.53571e-305
2.39156e-307
1.33634e-309
2.78953e-312
2.47337e-297
4.7225e-299
8.53435e-301
1.44791e-302
2.23422e-304
2.90926e-306
2.78738e-308
1.56673e-310
3.26218e-313
1.43006e-298
2.76705e-300
5.08452e-302
8.78494e-304
1.38011e-305
1.82436e-307
1.76321e-309
9.90149e-312
2.03842e-314
4.72367e-300
9.16336e-302
1.69436e-303
2.95226e-305
4.67896e-307
6.22489e-309
6.0107e-311
3.32758e-313
6.63799e-316
4.10519e-300
8.20098e-302
1.58422e-303
2.9289e-305
5.11117e-307
8.10755e-309
1.07467e-310
1.02046e-312
5.41618e-315
9.95505e-318
3.28439e-302
6.48015e-304
1.24286e-305
2.28925e-307
3.98019e-309
6.27258e-311
8.18783e-313
7.47404e-315
3.621e-317
4.99747e-320
8.27336e-305
1.61131e-306
3.06697e-308
5.61496e-310
9.68443e-312
1.50613e-313
1.91166e-315
1.62494e-317
5.02712e-320
2.89028e-321
7.04385e-302
9.55043e-304
1.24283e-305
1.53488e-307
1.74829e-309
1.70538e-311
1.20693e-313
4.50744e-316
5.05849e-319
2.72896e-299
3.72707e-301
4.86644e-303
6.04147e-305
6.96088e-307
6.9776e-309
5.28961e-311
2.33899e-313
3.56409e-316
2.25676e-297
3.12618e-299
4.13034e-301
5.19434e-303
6.08858e-305
6.26802e-307
4.99129e-309
2.43253e-311
4.45767e-314
1.23955e-296
2.00556e-298
3.10513e-300
4.55057e-302
6.14217e-304
7.14794e-306
6.30362e-308
3.35499e-310
6.72289e-313
8.43605e-297
1.45478e-298
2.43665e-300
3.88036e-302
5.67267e-304
7.07634e-306
6.5846e-308
3.64258e-310
7.53027e-313
1.88038e-297
3.30714e-299
5.74275e-301
9.54207e-303
1.45478e-304
1.88014e-306
1.79327e-308
1.006e-310
2.09489e-313
2.08875e-298
3.67717e-300
6.48866e-302
1.10356e-303
1.7246e-305
2.27693e-307
2.20266e-309
1.24213e-311
2.58086e-314
1.3105e-299
2.2888e-301
4.05731e-303
6.98155e-305
1.10675e-306
1.4803e-308
1.44294e-310
8.12698e-313
1.67023e-315
4.55453e-301
7.86749e-303
1.392e-304
2.40468e-306
3.8362e-308
5.15711e-310
5.01911e-312
2.7862e-314
5.54622e-317
5.18912e-301
8.09938e-303
1.38423e-304
2.43879e-306
4.20995e-308
6.71356e-310
8.98612e-312
8.59759e-314
4.57449e-316
8.37629e-319
4.17491e-303
6.43467e-305
1.0903e-306
1.91194e-308
3.28658e-310
5.20532e-312
6.85988e-314
6.30835e-316
3.04805e-318
7.75683e-321
1.04251e-305
1.59126e-307
2.68023e-309
4.67652e-311
7.97882e-313
1.2473e-314
1.59815e-316
1.35046e-318
5.53848e-321
0
3.38042e-303
4.3222e-305
5.59445e-307
7.04349e-309
8.26597e-311
8.31177e-313
6.02069e-315
2.26865e-317
1.23467e-320
1.31858e-300
1.69441e-302
2.20028e-304
2.78514e-306
3.30594e-308
3.41616e-310
2.65104e-312
1.18552e-314
1.80307e-317
1.11943e-298
1.45196e-300
1.90529e-302
2.44322e-304
2.95117e-306
3.13319e-308
2.55475e-310
1.25944e-312
2.30603e-315
8.96352e-298
1.24262e-299
1.81449e-301
2.62964e-303
3.58196e-305
4.23151e-307
3.77824e-309
2.02149e-311
4.04249e-314
8.5006e-298
1.15907e-299
1.72967e-301
2.63622e-303
3.82129e-305
4.79115e-307
4.48763e-309
2.48832e-311
5.13079e-314
2.42359e-298
3.20297e-300
4.72258e-302
7.27456e-304
1.07974e-305
1.38862e-307
1.32627e-309
7.44158e-312
1.5458e-314
3.2058e-299
4.12708e-301
5.9713e-303
9.16875e-305
1.37276e-306
1.78777e-308
1.72409e-310
9.70722e-313
2.01217e-315
2.26211e-300
2.8522e-302
4.04992e-304
6.16747e-306
9.24907e-308
1.21182e-309
1.17354e-311
6.5903e-314
1.35071e-316
8.40711e-302
1.04352e-303
1.45941e-305
2.20376e-307
3.2991e-309
4.32544e-311
4.1734e-313
2.30799e-315
4.56272e-318
1.40339e-301
1.54054e-303
1.88918e-305
2.61445e-307
3.92235e-309
5.8482e-311
7.61912e-313
7.21971e-315
3.8231e-317
6.76623e-320
1.13259e-303
1.23174e-305
1.49704e-307
2.05882e-309
3.07283e-311
4.54781e-313
5.83112e-315
5.30722e-317
2.48115e-319
1.4486e-320
2.80665e-306
3.02398e-308
3.65473e-310
5.00977e-312
7.43612e-314
1.08739e-315
1.35302e-317
1.13072e-319
5.4446e-321
0
3.26259e-304
2.95409e-306
3.12765e-308
3.60382e-310
4.12283e-312
4.1584e-314
3.04207e-316
1.12867e-318
1.07706e-320
1.29286e-301
1.17257e-303
1.24138e-305
1.43424e-307
1.65762e-309
1.71743e-311
1.34616e-313
6.05307e-316
8.96769e-319
1.15405e-299
1.05153e-301
1.11619e-303
1.29764e-305
1.52012e-307
1.61471e-309
1.32846e-311
6.5826e-314
1.20255e-316
1.44928e-298
1.36107e-300
1.47815e-302
1.79975e-304
2.25876e-306
2.58786e-308
2.28974e-310
1.2209e-312
2.43345e-315
1.89706e-298
1.82118e-300
1.95621e-302
2.35206e-304
2.97494e-306
3.49446e-308
3.18426e-310
1.74611e-312
3.58656e-315
6.47209e-299
6.31843e-301
6.72586e-303
7.91295e-305
9.8504e-307
1.15248e-308
1.05307e-310
5.80118e-313
1.19943e-315
9.49549e-300
9.38575e-302
9.94475e-304
1.15072e-305
1.40899e-307
1.63365e-309
1.48766e-311
8.17692e-314
1.68552e-316
7.11638e-301
7.07802e-303
7.46579e-305
8.52855e-307
1.03018e-308
1.18423e-310
1.07299e-312
5.85885e-315
1.19226e-317
2.72817e-302
2.71426e-304
2.84706e-306
3.22092e-308
3.85281e-310
4.39558e-312
3.94718e-314
2.11726e-316
4.04926e-319
5.23679e-302
5.064e-304
5.01423e-306
5.22604e-308
5.87211e-310
6.97542e-312
7.88273e-314
6.93704e-316
3.5351e-318
1.78457e-320
4.22763e-304
4.05885e-306
3.98961e-308
4.13458e-310
4.62461e-312
5.45571e-314
6.06643e-316
5.1268e-318
1.20503e-320
6.53649e-321
1.04477e-306
9.93114e-309
9.69157e-311
1.00048e-312
1.1149e-314
1.30224e-316
1.39316e-318
5.16689e-319
4.2707e-320
0
7.17409e-305
4.84419e-307
3.60786e-309
3.04071e-311
2.81136e-313
2.52506e-315
1.74943e-317
4.90014e-320
2.89028e-321
2.86775e-302
1.94703e-304
1.45322e-306
1.22544e-308
1.14002e-310
1.04884e-312
7.78831e-315
3.42662e-317
4.03948e-320
2.63537e-300
1.82242e-302
1.37733e-304
1.16836e-306
1.09332e-308
1.02294e-310
7.93056e-313
3.83785e-315
6.95191e-318
4.0019e-299
3.08551e-301
2.50408e-303
2.20483e-305
2.10893e-307
2.02605e-309
1.63405e-311
8.37521e-314
1.65597e-316
5.93514e-299
5.03197e-301
4.3817e-303
3.999e-305
3.84004e-307
3.65631e-309
2.93987e-311
1.52332e-313
3.09789e-316
2.1608e-299
1.93369e-301
1.75569e-303
1.63982e-305
1.57748e-307
1.48381e-309
1.17741e-311
6.06799e-314
1.24053e-316
3.29155e-300
3.0426e-302
2.83403e-304
2.68751e-306
2.59225e-308
2.42142e-310
1.90312e-312
9.73975e-315
1.98121e-317
2.5211e-301
2.3714e-303
2.23836e-305
2.13886e-307
2.06511e-309
1.92062e-311
1.49905e-313
7.60609e-316
1.50477e-318
9.77253e-303
9.24875e-305
8.763e-307
8.38515e-309
8.08659e-311
7.48889e-313
5.79209e-315
2.88315e-317
6.07207e-320
1.91736e-302
1.82205e-304
1.7206e-306
1.62605e-308
1.55263e-310
1.49335e-312
1.37326e-314
1.04156e-316
4.85469e-319
1.79642e-320
1.54836e-304
1.46164e-306
1.37101e-308
1.28924e-310
1.22715e-312
1.1749e-314
1.06524e-316
7.62472e-319
1.5904e-320
6.14618e-321
3.82251e-307
3.5726e-309
3.32538e-311
3.11271e-313
2.95246e-315
2.80073e-317
2.40412e-319
1.7979e-320
5.4446e-321
0
1.84881e-305
1.1877e-307
7.86453e-310
5.43664e-312
3.91948e-314
2.78639e-316
1.62014e-318
5.53354e-321
0
7.40176e-303
4.78856e-305
3.18665e-307
2.20918e-309
1.60174e-311
1.16363e-313
7.31546e-316
2.93854e-318
4.26873e-321
6.88866e-301
4.56012e-303
3.09971e-305
2.18545e-307
1.60532e-309
1.1863e-311
7.75774e-314
3.44507e-316
6.08452e-319
1.1394e-299
8.53137e-302
6.41901e-304
4.8902e-306
3.78523e-308
2.89193e-310
1.94965e-312
9.08622e-315
1.76379e-317
1.81618e-299
1.51908e-301
1.26734e-303
1.05672e-305
8.76469e-308
6.98683e-310
4.81628e-312
2.2882e-314
4.58636e-317
6.89781e-300
6.13186e-302
5.41572e-304
4.74924e-306
4.09857e-308
3.3504e-310
2.33726e-312
1.11726e-314
2.25415e-317
1.07916e-300
9.94148e-303
9.0758e-305
8.19629e-307
7.24348e-309
6.01674e-311
4.23058e-313
2.02622e-315
4.06054e-318
8.40097e-302
7.88776e-304
7.32597e-306
6.71781e-308
6.01316e-310
5.04007e-312
3.55735e-314
1.69878e-316
3.41152e-319
3.28458e-303
3.10515e-305
2.90039e-307
2.67334e-309
2.40426e-311
2.02057e-313
1.42142e-315
6.66705e-318
8.34971e-321
6.43121e-303
6.14636e-305
5.79949e-307
5.40709e-309
4.98067e-311
4.47891e-313
3.7502e-315
2.59406e-317
1.07563e-319
6.53649e-321
5.19827e-305
4.93531e-307
4.6258e-309
4.29186e-311
3.94246e-313
3.53274e-315
2.92004e-317
1.82537e-319
9.22915e-321
0
1.28273e-307
1.20579e-309
1.12141e-311
1.03547e-313
9.4774e-316
8.40029e-318
7.09972e-320
6.53649e-321
0
0
4.1144e-306
2.68788e-308
1.7819e-310
1.19928e-312
8.08589e-315
5.17399e-317
2.68628e-319
9.69357e-321
0
1.64626e-303
1.0834e-305
7.22223e-308
4.87871e-310
3.30993e-312
2.16485e-314
1.21736e-316
4.51754e-319
2.77665e-321
1.5487e-301
1.04325e-303
7.11206e-306
4.89871e-308
3.38092e-310
2.25884e-312
1.32463e-314
5.47616e-317
9.39565e-320
2.7702e-300
2.09468e-302
1.5754e-304
1.17657e-306
8.65444e-309
6.07491e-311
3.72372e-313
1.62777e-315
3.11697e-318
4.76522e-300
4.02808e-302
3.37421e-304
2.79055e-306
2.25105e-308
1.70692e-310
1.10971e-312
5.06507e-315
1.00751e-317
1.89527e-300
1.7027e-302
1.51257e-304
1.3224e-306
1.12178e-308
8.86924e-311
5.94366e-313
2.76342e-315
5.5363e-318
3.0547e-301
2.84266e-303
2.61136e-305
2.35625e-307
2.05703e-309
1.66593e-311
1.13551e-313
5.32194e-316
1.05886e-318
2.42237e-302
2.29624e-304
2.14592e-306
1.96782e-308
1.74414e-310
1.43106e-312
9.83614e-315
4.60861e-317
9.25879e-320
9.56727e-304
9.12727e-306
8.57644e-308
7.90735e-310
7.04888e-312
5.80958e-314
3.98809e-316
1.81826e-318
2.84582e-321
1.86252e-303
1.79864e-305
1.7121e-307
1.6055e-309
1.47934e-311
1.31906e-313
1.08394e-315
7.30834e-318
2.23071e-320
3.71043e-321
1.50819e-305
1.4466e-307
1.36757e-309
1.27599e-311
1.17234e-313
1.04164e-315
8.43443e-318
5.08295e-320
2.81617e-321
0
3.72212e-308
3.53445e-310
3.31508e-312
3.0778e-314
2.81687e-316
2.47665e-318
1.84089e-320
3.71043e-321
0
0
8.02925e-307
5.40002e-309
3.67115e-311
2.51669e-313
1.70927e-315
1.08474e-317
5.96831e-320
5.96337e-321
0
3.20793e-304
2.17388e-306
1.48642e-308
1.023e-310
6.9938e-313
4.54323e-315
2.5082e-317
9.08389e-320
8.70544e-321
3.05056e-302
2.11529e-304
1.47837e-306
1.037e-308
7.21153e-311
4.78768e-313
2.76046e-315
1.12218e-317
2.77517e-320
5.90082e-301
4.5403e-303
3.46648e-305
2.6166e-307
1.93059e-309
1.34517e-311
8.11927e-314
3.50298e-316
6.49785e-319
1.1047e-300
9.48218e-303
8.05119e-305
6.72883e-307
5.4579e-309
4.13356e-311
2.67001e-313
1.21149e-315
2.40218e-318
4.62635e-301
4.21425e-303
3.79058e-305
3.34775e-307
2.85802e-309
2.26272e-311
1.5122e-313
7.00872e-316
1.38878e-318
7.70942e-302
7.26481e-304
6.74983e-306
6.14795e-308
5.40109e-310
4.38352e-312
2.9837e-314
1.39523e-316
2.80086e-319
6.24244e-303
5.98537e-305
5.65175e-307
5.2277e-309
4.661e-311
3.83287e-313
2.63183e-315
1.2286e-317
3.21736e-320
2.49422e-304
2.40481e-306
2.28147e-308
2.12047e-310
1.90075e-312
1.56981e-314
1.07615e-316
4.84426e-319
2.77171e-321
4.83071e-304
4.71493e-306
4.53328e-308
4.28992e-310
3.98317e-312
3.57018e-314
2.93874e-316
1.97119e-318
1.86016e-320
2.77665e-321
3.9212e-306
3.79991e-308
3.62727e-310
3.41433e-312
3.16017e-314
2.82148e-316
2.27448e-318
1.70947e-320
2.77665e-321
0
9.68147e-309
9.28626e-311
8.79281e-313
8.23394e-315
7.58881e-317
6.67512e-319
1.8562e-320
7.0602e-321
0
0
1.44707e-307
1.00335e-309
7.01779e-312
4.93518e-314
3.42339e-316
2.19676e-318
8.95247e-321
0
0
5.76764e-305
4.03116e-307
2.83662e-309
2.00327e-311
1.39945e-313
9.23453e-316
5.13325e-318
1.08398e-320
0
5.54223e-303
3.96155e-305
2.84709e-307
2.04735e-309
1.45366e-311
9.7986e-314
5.70032e-316
2.30584e-318
1.53012e-320
1.15566e-301
9.05574e-304
7.03484e-306
5.39558e-308
4.03613e-310
2.8413e-312
1.72549e-314
7.46395e-317
1.48556e-319
2.3699e-301
2.06561e-303
1.77952e-305
1.50727e-307
1.23689e-309
9.45278e-312
6.14177e-314
2.79474e-316
5.42158e-319
1.04944e-301
9.68905e-304
8.82697e-306
7.88847e-308
6.80489e-310
5.43204e-312
3.65024e-314
1.69619e-316
3.38544e-319
1.813e-302
1.72877e-304
1.62437e-306
1.49502e-308
1.32554e-310
1.08369e-312
7.4119e-315
3.47151e-317
7.74547e-320
1.50157e-303
1.45487e-305
1.38751e-307
1.29533e-309
1.16439e-311
9.6373e-314
6.6448e-316
3.09167e-318
1.37153e-320
6.07593e-305
5.91362e-307
5.66094e-309
5.30578e-311
4.79144e-313
3.98029e-315
2.73742e-317
1.20221e-319
2.75195e-321
1.17332e-304
1.15559e-306
1.1208e-308
1.06954e-310
1.00088e-312
9.03332e-315
7.47278e-317
4.94565e-319
8.69556e-321
0
9.55176e-307
9.33567e-309
8.9856e-311
8.52571e-313
7.95012e-315
7.14227e-317
5.67968e-319
6.80328e-321
0
0
2.36003e-309
2.28235e-311
2.1784e-313
2.05564e-315
1.90631e-317
1.59563e-319
8.70544e-321
0
0
0
2.49711e-308
1.77995e-310
1.27762e-312
9.20084e-315
6.51509e-317
4.16473e-319
2.77171e-321
0
0
9.92014e-306
7.13233e-308