/*--------------------------------*- C++ -*----------------------------------*\
| =========                 |                                                 |
| \\      /  F ield         | OpenFOAM: The Open Source CFD Toolbox           |
|  \\    /   O peration     | Version:  2.3.1                                 |
|   \\  /    A nd           | Web:      www.OpenFOAM.org                      |
|    \\/     M anipulation  |                                                 |
\*---------------------------------------------------------------------------*/
FoamFile
{
    version     2.0;
    format      ascii;
    class       volVectorField;
    location    "10";
    object      U;
}
// * * * * * * * * * * * * * * * * * * * * * * * * * * * * * * * * * * * * * //

dimensions      [0 1 -1 0 0 0 0];

internalField   nonuniform List<vector> 
37784
(
(0.000291456 0.000538663 3.94019e-05)
(0.000269634 0.000393374 3.19141e-05)
(0.000238591 0.000287834 2.62084e-05)
(0.00020314 0.000211982 2.1933e-05)
(0.000165056 0.000157852 1.87648e-05)
(0.000127351 0.000121275 1.65147e-05)
(8.69279e-05 9.39278e-05 1.49005e-05)
(5.00234e-05 8.64149e-05 1.27214e-05)
(1.66669e-05 6.34331e-05 9.50782e-06)
(0.00011561 0.000527559 4.24588e-05)
(0.000157835 0.000387932 3.49972e-05)
(0.000171623 0.000284557 2.90517e-05)
(0.000167253 0.000208869 2.4363e-05)
(0.000151663 0.000154074 2.07434e-05)
(0.000128429 0.000114826 1.79871e-05)
(0.000101619 8.78203e-05 1.60843e-05)
(6.99157e-05 6.89307e-05 1.45906e-05)
(3.93899e-05 6.01831e-05 1.27896e-05)
(1.3597e-05 5.23116e-05 9.72632e-06)
(2.63029e-06 0.000300226 3.49027e-05)
(7.17119e-05 0.000222062 2.9516e-05)
(0.00010725 0.000163057 2.50638e-05)
(0.000119846 0.000119594 2.14421e-05)
(0.000117211 8.80163e-05 1.85493e-05)
(0.000104221 6.53801e-05 1.63173e-05)
(8.49011e-05 5.01227e-05 1.47184e-05)
(6.08395e-05 3.96687e-05 1.36541e-05)
(3.42428e-05 3.66437e-05 1.25512e-05)
(1.05178e-05 3.39883e-05 1.04898e-05)
(-5.03948e-05 9.17395e-05 2.43711e-05)
(3.01286e-05 6.7784e-05 2.13368e-05)
(7.48996e-05 4.93736e-05 1.8669e-05)
(9.52553e-05 3.58575e-05 1.63755e-05)
(9.87235e-05 2.59987e-05 1.44767e-05)
(9.06993e-05 1.89558e-05 1.29608e-05)
(7.54859e-05 1.41194e-05 1.18408e-05)
(5.532e-05 1.10492e-05 1.10955e-05)
(3.27884e-05 9.94946e-06 1.08187e-05)
(1.07798e-05 1.07817e-05 1.07771e-05)
(0.000298471 0.000547002 0.000113513)
(0.000277128 0.000399709 9.21206e-05)
(0.00024593 0.000292581 7.58219e-05)
(0.00020987 0.000215477 6.35522e-05)
(0.000171111 0.000160519 5.43975e-05)
(0.000132734 0.000123084 4.76882e-05)
(9.2384e-05 9.61667e-05 4.26742e-05)
(5.65709e-05 8.73771e-05 3.67692e-05)
(2.07157e-05 6.60895e-05 2.86889e-05)
(0.000121427 0.000541007 0.000121176)
(0.000164569 0.000398576 0.000100043)
(0.000178614 0.000292849 8.31938e-05)
(0.000174045 0.000215307 6.98903e-05)
(0.000157869 0.000159081 5.95783e-05)
(0.000133986 0.000118783 5.17123e-05)
(0.000106469 9.09329e-05 4.60038e-05)
(7.48978e-05 7.158e-05 4.15607e-05)
(4.50031e-05 6.23188e-05 3.66889e-05)
(1.708e-05 5.4036e-05 2.93999e-05)
(8.22417e-06 0.000317695 0.00010089)
(7.80107e-05 0.00023587 8.54589e-05)
(0.000113651 0.000174 7.26455e-05)
(0.000125986 0.00012832 6.2205e-05)
(0.000122777 9.50382e-05 5.38654e-05)
(0.000109041 7.11318e-05 4.74045e-05)
(8.8986e-05 5.48106e-05 4.26501e-05)
(6.44693e-05 4.35905e-05 3.92713e-05)
(3.83217e-05 3.94218e-05 3.61087e-05)
(1.32768e-05 3.5387e-05 3.1058e-05)
(-4.53599e-05 0.000104345 7.651e-05)
(3.55869e-05 7.77341e-05 6.66438e-05)
(8.03443e-05 5.72852e-05 5.80628e-05)
(0.000100378 4.22148e-05 5.07443e-05)
(0.000103307 3.1192e-05 4.473e-05)
(9.45837e-05 2.32703e-05 3.99536e-05)
(7.85832e-05 1.778e-05 3.63887e-05)
(5.76076e-05 1.41001e-05 3.39449e-05)
(3.43449e-05 1.24356e-05 3.25923e-05)
(1.18441e-05 1.18206e-05 3.15834e-05)
(0.000290947 0.000542476 0.000186356)
(0.000272304 0.000397075 0.000151653)
(0.000243002 0.000291074 0.000125133)
(0.000208258 0.00021461 0.000105056)
(0.000170567 0.000160096 9.00032e-05)
(0.000133161 0.000122884 7.87574e-05)
(9.41012e-05 9.66811e-05 7.0318e-05)
(5.99411e-05 8.80519e-05 6.13007e-05)
(2.38671e-05 6.78777e-05 5.19964e-05)
(0.00011579 0.000540625 0.000197972)
(0.000160595 0.000399414 0.000163884)
(0.000175998 0.000294199 0.000136611)
(0.000172476 0.000216822 0.000115014)
(0.000157059 0.000160572 9.81907e-05)
(0.000133859 0.000120186 8.53083e-05)
(0.000107014 9.21933e-05 7.57016e-05)
(7.64841e-05 7.27824e-05 6.8341e-05)
(4.7885e-05 6.33542e-05 6.09432e-05)
(1.95186e-05 5.49327e-05 5.26787e-05)
(5.41892e-06 0.000324848 0.000167435)
(7.58354e-05 0.000242073 0.000142133)
(0.000112055 0.000179347 0.000121009)
(0.000124928 0.000132887 0.00010375)
(0.00012215 9.8924e-05 8.99312e-05)
(0.000108798 7.4447e-05 7.91733e-05)
(8.91857e-05 5.75772e-05 7.11119e-05)
(6.52894e-05 4.58861e-05 6.52573e-05)
(4.01775e-05 4.10919e-05 6.02978e-05)
(1.49683e-05 3.63018e-05 5.46249e-05)
(-4.78259e-05 0.000111121 0.000137315)
(3.32236e-05 8.33096e-05 0.000119017)
(7.82852e-05 6.19279e-05 0.000103314)
(9.86743e-05 4.6101e-05 9.00004e-05)
(0.000101982 3.44828e-05 7.91146e-05)
(9.3613e-05 2.60782e-05 7.04916e-05)
(7.79613e-05 2.01802e-05 6.39825e-05)
(5.73312e-05 1.60475e-05 5.94086e-05)
(3.44864e-05 1.39086e-05 5.65422e-05)
(1.21993e-05 1.23463e-05 5.46525e-05)
(0.000276111 0.000533023 0.000254155)
(0.000261568 0.000391159 0.000207498)
(0.000235325 0.000287385 0.000171687)
(0.000202896 0.000212302 0.000144431)
(0.000167069 0.00015871 0.000123895)
(0.000131287 0.000122152 0.0001084)
(9.37091e-05 9.67263e-05 9.68121e-05)
(6.10071e-05 8.91711e-05 8.52554e-05)
(2.52426e-05 6.9589e-05 7.56661e-05)
(0.000103167 0.000533662 0.000269476)
(0.000150647 0.000395647 0.000223783)
(0.000168377 0.000292322 0.000187051)
(0.00016677 0.000216059 0.000157846)
(0.000152909 0.000160435 0.000134989)
(0.000131061 0.000120397 0.000117411)
(0.000105457 9.25976e-05 0.000104129)
(7.61345e-05 7.33251e-05 9.40665e-05)
(4.87234e-05 6.40717e-05 8.46406e-05)
(2.05443e-05 5.57141e-05 7.60836e-05)
(-3.42391e-06 0.00032505 0.000231304)
(6.83643e-05 0.000243101 0.000196766)
(0.000105933 0.000180844 0.000167805)
(0.000120078 0.000134541 0.000144064)
(0.000118428 0.000100563 0.000125)
(0.0001061 7.59786e-05 0.000110095)
(8.74807e-05 5.8923e-05 9.88054e-05)
(6.45519e-05 4.7033e-05 9.05472e-05)
(4.0418e-05 4.20947e-05 8.40056e-05)
(1.54461e-05 3.71707e-05 7.80201e-05)
(-5.59868e-05 0.000113118 0.000198572)
(2.58738e-05 8.51905e-05 0.000171803)
(7.19907e-05 6.37178e-05 0.000148936)
(9.34289e-05 4.77351e-05 0.00012958)
(9.77812e-05 3.59543e-05 0.000113782)
(9.03803e-05 2.73734e-05 0.000101257)
(7.56345e-05 2.1286e-05 9.17233e-05)
(5.58269e-05 1.68999e-05 8.49071e-05)
(3.3731e-05 1.45558e-05 8.04e-05)
(1.20213e-05 1.26887e-05 7.73283e-05)
(0.000255155 0.000519169 0.000316802)
(0.000245871 0.000382256 0.000259674)
(0.000223666 0.000281661 0.000215568)
(0.000194378 0.000208609 0.000181808)
(0.000161051 0.000156364 0.000156254)
(0.000127374 0.000120817 0.000136869)
(9.13861e-05 9.62833e-05 0.000122479)
(6.01304e-05 9.0577e-05 0.000108976)
(2.51112e-05 7.15371e-05 9.99631e-05)
(8.44151e-05 0.00052073 0.000335717)
(0.000135492 0.000387621 0.000279869)
(0.00015642 0.000287407 0.000234686)
(0.000157504 0.000213111 0.000198582)
(0.000145886 0.000158704 0.000170185)
(0.000125946 0.000119424 0.000148257)
(0.000102017 9.21393e-05 0.000131572)
(7.404e-05 7.32137e-05 0.000119085)
(4.7848e-05 6.44651e-05 0.000108125)
(2.04764e-05 5.61802e-05 9.98867e-05)
(-1.76648e-05 0.000319504 0.00029217)
(5.62163e-05 0.000239832 0.00024917)
(9.58468e-05 0.000179123 0.000212954)
(0.000111934 0.00013375 0.000183141)
(0.00011203 0.000100313 0.000159123)
(0.000101265 7.60194e-05 0.000140267)
(8.40801e-05 5.91047e-05 0.00012589)
(6.24026e-05 4.72829e-05 0.000115385)
(3.93633e-05 4.25978e-05 0.000107534)
(1.51117e-05 3.7852e-05 0.000101644)
(-6.9023e-05 0.000111716 0.000258839)
(1.42981e-05 8.44194e-05 0.000223927)
(6.21286e-05 6.34501e-05 0.0001941)
(8.52218e-05 4.77362e-05 0.00016886)
(9.11857e-05 3.6101e-05 0.000148252)
(8.52568e-05 2.7569e-05 0.000131883)
(7.18619e-05 2.14745e-05 0.000119343)
(5.32463e-05 1.70234e-05 0.000110297)
(3.22396e-05 1.46927e-05 0.000104207)
(1.15178e-05 1.28255e-05 0.000100104)
(0.000228875 0.000501296 0.00037345)
(0.000225775 0.000370551 0.000307528)
(0.000208432 0.000273976 0.000256279)
(0.00018299 0.000203538 0.000216815)
(0.000152715 0.000153032 0.000186814)
(0.000121553 0.000118804 0.000164021)
(8.73038e-05 9.52974e-05 0.000147244)
(5.76167e-05 9.20977e-05 0.000132378)
(2.37735e-05 7.37345e-05 0.000124014)
(6.02271e-05 0.000502537 0.000395789)
(0.000115667 0.000375753 0.000331459)
(0.000140533 0.000279709 0.000278985)
(0.000144987 0.000208132 0.00023681)
(0.000136221 0.000155479 0.000203466)
(0.000118686 0.000117335 0.000177618)
(9.68119e-05 9.08569e-05 0.0001579)
(7.03696e-05 7.24767e-05 0.000143322)
(4.55582e-05 6.45006e-05 0.000131292)
(1.9627e-05 5.62294e-05 0.000123416)
(-3.67317e-05 0.000309391 0.000348845)
(3.98502e-05 0.000233144 0.000298329)
(8.21692e-05 0.000174827 0.000255682)
(0.00010079 0.000131003 0.00022037)
(0.00010318 9.85598e-05 0.000191812)
(9.44564e-05 7.48874e-05 0.000169308)
(7.90978e-05 5.83897e-05 0.000152087)
(5.89601e-05 4.68632e-05 0.000139555)
(3.72588e-05 4.27154e-05 0.000130624)
(1.42629e-05 3.8286e-05 0.000124772)
(-8.63437e-05 0.000108118 0.000315797)
(-1.03187e-06 8.19248e-05 0.000273523)
(4.9067e-05 6.18481e-05 0.000237312)
(7.43424e-05 4.66843e-05 0.000206639)
(8.24138e-05 3.54014e-05 0.00018154)
(7.83996e-05 2.70752e-05 0.000161547)
(6.67463e-05 2.11109e-05 0.000146162)
(4.96583e-05 1.67373e-05 0.000135008)
(3.0074e-05 1.45551e-05 0.000127475)
(1.07673e-05 1.27981e-05 0.000122392)
(0.000198018 0.000479928 0.000423685)
(0.000201799 0.000356342 0.000350715)
(0.000189985 0.0002645 0.000293543)
(0.000168986 0.000197181 0.000249241)
(0.000142253 0.000148758 0.000215428)
(0.000113986 0.000116097 0.000189782)
(8.17077e-05 9.37364e-05 0.000171054)
(5.38118e-05 9.35277e-05 0.000155438)
(2.15106e-05 7.6067e-05 0.000147458)
(3.13417e-05 0.000479992 0.000449147)
(9.17457e-05 0.00036061 0.000378093)
(0.000121127 0.000269609 0.000319571)
(0.000129527 0.000201381 0.000272234)
(0.00012414 0.000150941 0.000234604)
(0.000109455 0.000114264 0.00020533)
(8.99972e-05 8.88377e-05 0.000183008)
(6.53504e-05 7.11723e-05 0.000166692)
(4.21843e-05 6.41459e-05 0.000154064)
(1.8267e-05 5.58461e-05 0.000146482)
(-5.99824e-05 0.000295832 0.000400341)
(1.97635e-05 0.000223852 0.000343502)
(6.53159e-05 0.000168552 0.000295369)
(8.69517e-05 0.000126759 0.000255256)
(9.21121e-05 9.56629e-05 0.00022268)
(8.58511e-05 7.28774e-05 0.000196914)
(7.2679e-05 5.70143e-05 0.000177166)
(5.43895e-05 4.59552e-05 0.000162862)
(3.43496e-05 4.25049e-05 0.000153072)
(1.31096e-05 3.84361e-05 0.000147131)
(-0.000107293 0.000103101 0.000367815)
(-1.96077e-05 7.83491e-05 0.000319332)
(3.32078e-05 5.93965e-05 0.000277518)
(6.11025e-05 4.49749e-05 0.000242087)
(7.16985e-05 3.41853e-05 0.000212974)
(6.99836e-05 2.61766e-05 0.000189712)
(6.04221e-05 2.04412e-05 0.000171757)
(4.51844e-05 1.62401e-05 0.00015871)
(2.73607e-05 1.4271e-05 0.000149953)
(9.83193e-06 1.26296e-05 0.000143998)
(0.000163395 0.00045573 0.000467183)
(0.000174515 0.000340039 0.000388931)
(0.000168735 0.000253488 0.000327098)
(0.000152663 0.000189696 0.000278873)
(0.000129904 0.000143637 0.000241927)
(0.000104887 0.000112714 0.000214021)
(7.49149e-05 9.15765e-05 0.000193779)
(4.90856e-05 9.45145e-05 0.000178095)
(1.85829e-05 7.82412e-05 0.000169934)
(-1.35378e-06 0.000454101 0.000495353)
(6.43897e-05 0.000342898 0.000419303)
(9.86961e-05 0.000257577 0.000356051)
(0.000111493 0.000193185 0.000304524)
(0.000109921 0.000145322 0.000263333)
(9.8482e-05 0.00011038 0.000231178)
(8.17801e-05 8.6191e-05 0.00020672)
(5.92638e-05 6.9369e-05 0.00018902)
(3.80535e-05 6.33479e-05 0.000176291)
(1.6585e-05 5.50588e-05 0.000168849)
(-8.66164e-05 0.000279866 0.000445754)
(-3.41559e-06 0.000212702 0.000384039)
(4.57568e-05 0.000160839 0.000331416)
(7.0792e-05 0.000121428 0.000287317)
(7.91104e-05 9.19397e-05 0.000251329)
(7.56751e-05 7.02416e-05 0.000222762)
(6.50139e-05 5.51668e-05 0.00020086)
(4.88896e-05 4.46867e-05 0.000185055)
(3.08445e-05 4.19577e-05 0.000174614)
(1.1767e-05 3.82507e-05 0.000168397)
(-0.000131109 9.72076e-05 0.00041378)
(-4.0838e-05 7.41592e-05 0.000360453)
(1.49939e-05 5.64208e-05 0.000313955)
(4.58676e-05 4.2875e-05 0.000274577)
(5.93113e-05 3.26698e-05 0.00024204)
(6.02192e-05 2.50564e-05 0.000215952)
(5.30553e-05 1.96151e-05 0.000195781)
(3.99728e-05 1.56425e-05 0.000181103)
(2.42162e-05 1.39003e-05 0.000171372)
(8.75469e-06 1.23584e-05 0.000164632)
(0.00012589 0.000429442 0.000503752)
(0.000144577 0.000322124 0.000421952)
(0.000145161 0.000241254 0.000356725)
(0.000134376 0.000181291 0.000305509)
(0.00011596 0.000137806 0.000266125)
(9.45165e-05 0.000108694 0.000236561)
(6.72963e-05 8.87931e-05 0.00021522)
(4.38294e-05 9.43941e-05 0.000200235)
(1.53323e-05 7.98117e-05 0.000191219)
(-3.68598e-05 0.000425912 0.000534124)
(3.43431e-05 0.000323356 0.000454664)
(7.38221e-05 0.000244113 0.000388085)
(9.13279e-05 0.000183895 0.00033338)
(9.39032e-05 0.000138875 0.000289393)
(8.60448e-05 0.000105866 0.000254933)
(7.24082e-05 8.30329e-05 0.000228822)
(5.24238e-05 6.71397e-05 0.000210073)
(3.34825e-05 6.20237e-05 0.000197753)
(1.47133e-05 5.39428e-05 0.000190378)
(-0.000115743 0.000262384 0.000484487)
(-2.89877e-05 0.000200345 0.00041942)
(2.40287e-05 0.000152173 0.00036332)
(5.27415e-05 0.000115363 0.00031615)
(6.45068e-05 8.76574e-05 0.000277419)
(6.41929e-05 6.71872e-05 0.000246562)
(5.63227e-05 5.29922e-05 0.000222909)
(4.26723e-05 4.31475e-05 0.000205882)
(2.69213e-05 4.10195e-05 0.000194992)
(1.02957e-05 3.76641e-05 0.000188353)
(-0.000157004 9.08398e-05 0.000453047)
(-6.4104e-05 6.96643e-05 0.000396241)
(-5.08643e-06 5.31488e-05 0.000346188)
(2.90301e-05 4.05606e-05 0.000303684)
(4.55503e-05 3.09944e-05 0.000268393)
(4.93394e-05 2.38285e-05 0.000239978)
(4.48289e-05 1.87203e-05 0.000217986)
(3.41811e-05 1.50047e-05 0.000201964)
(2.07518e-05 1.34687e-05 0.000191517)
(7.56773e-06 1.20212e-05 0.000184084)
(8.64513e-05 0.000401805 0.00053334)
(0.000112697 0.000303096 0.000449652)
(0.000119799 0.000228132 0.000382267)
(0.000114529 0.000172186 0.000328986)
(0.000100749 0.000131419 0.000287847)
(8.31515e-05 0.000104095 0.000257183)
(5.92327e-05 8.53797e-05 0.000235118)
(3.84397e-05 9.22987e-05 0.000221609)
(1.24559e-05 7.87033e-05 0.000211225)
(-7.41664e-05 0.000396438 0.000565204)
(2.3905e-06 0.000302699 0.00048402)
(4.71668e-05 0.000229696 0.000415421)
(6.95241e-05 0.000173856 0.000358564)
(7.6467e-05 0.000131845 0.000312559)
(7.24529e-05 0.000100902 0.000276382)
(6.21442e-05 7.94784e-05 0.000249082)
(4.51369e-05 6.45613e-05 0.000229587)
(2.87636e-05 6.00773e-05 0.00021812)
(1.27754e-05 5.25848e-05 0.000210798)
(-0.00014644 0.000244087 0.000516193)
(-5.62388e-05 0.000187361 0.000449242)
(6.88946e-07 0.000142962 0.000390809)
(3.32718e-05 0.000108849 0.000341448)
(4.86577e-05 8.30295e-05 0.000300687)
(5.16879e-05 6.38746e-05 0.000268074)
(4.68336e-05 5.05978e-05 0.000243085)
(3.59384e-05 4.14028e-05 0.000225111)
(2.27213e-05 3.96205e-05 0.000213958)
(8.72813e-06 3.65821e-05 0.000206821)
(-0.000184216 8.43005e-05 0.0004853)
(-8.87593e-05 6.49962e-05 0.000426356)
(-2.65249e-05 4.97885e-05 0.000373991)
(1.09664e-05 3.8139e-05 0.000329121)
(3.0725e-05 2.92444e-05 0.000291802)
(3.75816e-05 2.2558e-05 0.000261584)
(3.59273e-05 1.7802e-05 0.000238187)
(2.79584e-05 1.43558e-05 0.000221114)
(1.70638e-05 1.29836e-05 0.000210181)
(6.29753e-06 1.16504e-05 0.000202147)
(0.000808018 7.59876e-05 0.00103091)
(0.000650777 5.29875e-05 0.000793915)
(0.000515535 3.76311e-05 0.000622988)
(0.000401457 2.7211e-05 0.000500011)
(0.00030523 2.00783e-05 0.000411849)
(0.000222944 1.52073e-05 0.000349764)
(0.000150889 1.21956e-05 0.000307682)
(8.53266e-05 9.11981e-06 0.000281946)
(2.78754e-05 6.29743e-06 0.000266973)
(0.000775307 0.00018275 0.00100821)
(0.000632278 0.000139116 0.000781735)
(0.000506137 0.000104535 0.000616295)
(0.000397524 7.81785e-05 0.000495991)
(0.000304662 5.88865e-05 0.000409343)
(0.000224916 4.51751e-05 0.000348366)
(0.00015467 3.61201e-05 0.000307407)
(9.1221e-05 2.78475e-05 0.000283074)
(3.20193e-05 2.33474e-05 0.000270247)
(0.00074545 0.000308296 0.000992164)
(0.000602126 0.000229515 0.00076428)
(0.000480159 0.000170427 0.000601034)
(0.000377569 0.000126763 0.000483931)
(0.000290922 9.52419e-05 0.00040033)
(0.000217 7.28291e-05 0.000341874)
(0.000150989 5.80799e-05 0.000302565)
(9.19699e-05 4.57854e-05 0.000279568)
(3.45367e-05 4.31015e-05 0.000266411)
(0.000628351 0.000413218 0.000915373)
(0.000522275 0.000304463 0.000717457)
(0.00042569 0.000224621 0.000571667)
(0.000340295 0.000166503 0.000464826)
(0.000265468 0.000124873 0.000387503)
(0.000200329 9.51515e-05 0.000333067)
(0.000139825 7.61929e-05 0.000296101)
(8.61869e-05 5.58233e-05 0.000275223)
(3.16762e-05 6.25944e-05 0.000262358)
(0.000528529 0.00046916 0.000855716)
(0.000443747 0.000349313 0.000674228)
(0.000365427 0.000259678 0.000540852)
(0.000295341 0.000193451 0.00044323)
(0.000232488 0.000145511 0.000372376)
(0.000177235 0.000111062 0.000322407)
(0.000119389 8.92567e-05 0.00028766)
(7.5484e-05 6.60405e-05 0.000273202)
(0.000389794 0.000504066 0.000768773)
(0.000343095 0.000374042 0.000618071)
(0.000292404 0.000277812 0.000503934)
(0.000242312 0.000207204 0.000418439)
(0.000193815 0.000156241 0.000355412)
(0.000149688 0.000119948 0.000310674)
(9.81923e-05 9.66805e-05 0.000278964)
(6.21135e-05 7.79941e-05 0.000269288)
(0.000264314 0.000488698 0.00069187)
(0.000247089 0.000366407 0.000565163)
(0.000220098 0.000274198 0.00046768)
(0.000188556 0.000205668 0.000393494)
(0.000154181 0.000155834 0.000338048)
(0.0001212 0.000120457 0.000298471)
(7.73836e-05 9.71305e-05 0.000270011)
(4.84683e-05 8.00316e-05 0.000264932)
(0.000144832 0.000446062 0.000617847)
(0.000156282 0.000336 0.000514878)
(0.000151724 0.000252648 0.000433342)
(0.000137508 0.000190491 0.000369878)
(0.000116352 0.000145209 0.000321628)
(9.35272e-05 0.00011416 0.00028703)
(5.66936e-05 9.32279e-05 0.000262264)
(3.37635e-05 9.26836e-05 0.000263724)
(4.6036e-05 0.000373551 0.000556032)
(7.96152e-05 0.000283451 0.000471998)
(9.32141e-05 0.000214464 0.000403634)
(9.35536e-05 0.000162628 0.000349176)
(8.46052e-05 0.000124643 0.00030694)
(7.10559e-05 9.9002e-05 0.000275642)
(5.10482e-05 8.13821e-05 0.000253163)
(3.32568e-05 8.66676e-05 0.000241568)
(1.17462e-05 7.20422e-05 0.000229545)
(-0.00011223 0.000366572 0.000588562)
(-3.06244e-05 0.00028154 0.000507388)
(1.9351e-05 0.000214787 0.000437911)
(4.65946e-05 0.000163375 0.000379917)
(5.80099e-05 0.000124453 0.000332666)
(5.80199e-05 9.56495e-05 0.000295346)
(5.12372e-05 7.5641e-05 0.000267272)
(3.76555e-05 6.17218e-05 0.000247283)
(2.41019e-05 5.74325e-05 0.000236824)
(1.08503e-05 5.10293e-05 0.000229082)
(-0.000177857 0.000225586 0.000540776)
(-8.44332e-05 0.000174152 0.000473296)
(-2.36806e-05 0.000133523 0.000413777)
(1.2816e-05 0.000102109 0.000363017)
(3.19239e-05 7.82202e-05 0.000320951)
(3.84396e-05 6.04236e-05 0.000287122)
(3.67649e-05 4.80662e-05 0.000261201)
(2.88598e-05 3.95115e-05 0.00024255)
(1.83509e-05 3.77226e-05 0.00023127)
(7.08897e-06 3.49687e-05 0.00022366)
(-0.000212025 7.77886e-05 0.000510501)
(-0.000114184 6.02962e-05 0.00045073)
(-4.88419e-05 4.64446e-05 0.000397174)
(-7.95885e-06 3.56723e-05 0.000350825)
(1.51475e-05 2.7471e-05 0.000312117)
(2.51794e-05 2.12811e-05 0.000280646)
(2.65274e-05 1.68829e-05 0.000256251)
(2.14343e-05 1.37092e-05 0.000238412)
(1.32285e-05 1.24467e-05 0.000227173)
(4.96643e-06 1.12625e-05 0.000218625)
(0.000683532 6.83634e-05 0.00103422)
(0.000559987 4.85923e-05 0.000806672)
(0.000449627 3.50438e-05 0.000639877)
(0.000353819 2.56009e-05 0.000518328)
(0.000271143 1.90247e-05 0.000430287)
(0.000199163 1.45028e-05 0.00036783)
(0.00013528 1.16645e-05 0.000325282)
(7.65483e-05 8.7953e-06 0.000299292)
(2.49787e-05 6.0938e-06 0.000283935)
(0.000657139 0.00017059 0.00101405)
(0.000545001 0.000130145 0.000795421)
(0.000442033 9.81449e-05 0.000633332)
(0.000350767 7.3678e-05 0.000514046)
(0.00027098 5.57171e-05 0.000427362)
(0.000201219 4.29253e-05 0.000365977)
(0.000138934 3.43706e-05 0.000324637)
(8.20759e-05 2.67431e-05 0.000300293)
(2.88096e-05 2.21779e-05 0.000287416)
(0.000626053 0.000284351 0.000993733)
(0.000515792 0.000213171 0.000775904)
(0.000417677 0.000159282 0.000616977)
(0.000332373 0.00011913 0.000501305)
(0.000258443 8.99537e-05 0.00041784)
(0.000194024 6.91449e-05 0.000359108)
(0.000135666 5.53393e-05 0.00031961)
(8.26664e-05 4.42226e-05 0.000297104)
(3.09053e-05 4.11324e-05 0.000283938)
(0.000526423 0.000378965 0.000922669)
(0.00044642 0.000281711 0.00073135)
(0.000369445 0.000209408 0.000588271)
(0.000298861 0.000156257 0.00048218)
(0.000235353 0.000117873 0.000404774)
(0.000178857 9.04126e-05 0.000350094)
(0.000125712 7.28128e-05 0.000312998)
(7.76199e-05 5.68451e-05 0.000292993)
(2.94732e-05 6.00896e-05 0.000279453)
(0.000435594 0.00043204 0.000862606)
(0.000374689 0.000324029 0.000687787)
(0.000314298 0.000242411 0.000557199)
(0.000257632 0.000181658 0.00046035)
(0.000205073 0.000137418 0.000389457)
(0.0001577 0.000105626 0.000339482)
(0.000108983 8.54682e-05 0.000304845)
(6.96501e-05 6.75919e-05 0.000294923)
(2.22315e-05 7.2139e-05 0.000268759)
(0.000314069 0.000463125 0.00077991)
(0.000284995 0.000346562 0.000633236)
(0.000248279 0.000259247 0.000520703)
(0.000209159 0.000194557 0.000435534)
(0.000169491 0.000147552 0.000372318)
(0.000132284 0.000114041 0.000327601)
(9.01806e-05 9.25614e-05 0.000295976)
(5.8329e-05 7.71765e-05 0.000291387)
(1.81626e-05 7.60362e-05 0.000262673)
(0.000201375 0.000450704 0.000704519)
(0.000198008 0.000340267 0.000580935)
(0.000182216 0.000256208 0.000484549)
(0.000159665 0.000193245 0.000410471)
(0.00013278 0.000147194 0.000354752)
(0.000105777 0.00011445 0.000315195)
(7.13101e-05 9.29146e-05 0.000286768)
(4.65673e-05 7.85836e-05 0.000286387)
(1.2838e-05 7.28452e-05 0.000257781)
(9.45647e-05 0.000411695 0.000632536)
(0.000115837 0.000312234 0.000531395)
(0.000119697 0.000236179 0.000450371)
(0.000112579 0.000179008 0.000386767)
(9.76391e-05 0.000137105 0.000338138)
(7.99339e-05 0.000108096 0.000303489)
(5.24132e-05 8.85105e-05 0.000278661)
(3.36901e-05 8.38658e-05 0.000283792)
(6.8681e-06 7.24184e-05 0.000260824)
(5.50337e-06 0.000345345 0.000572084)
(4.60537e-05 0.000263613 0.000489063)
(6.59674e-05 0.000200549 0.000420816)
(7.18815e-05 0.00015282 0.000366013)
(6.78523e-05 0.000117642 0.000323291)
(5.84575e-05 9.3585e-05 0.000291699)
(4.28657e-05 7.70191e-05 0.000269034)
(2.81211e-05 7.6449e-05 0.000258203)
(1.22155e-05 6.56488e-05 0.000245757)
(-0.000150099 0.000336987 0.000604478)
(-6.39344e-05 0.000260407 0.000524756)
(-9.01584e-06 0.000199767 0.000455595)
(2.30447e-05 0.000152714 0.000397363)
(3.89202e-05 0.000116892 0.000349614)
(4.30384e-05 9.02485e-05 0.000311702)
(3.99004e-05 7.1637e-05 0.000283203)
(3.00977e-05 5.87271e-05 0.000262919)
(1.9401e-05 5.4185e-05 0.000252826)
(8.74305e-06 4.93658e-05 0.000244482)
(-0.000209217 0.000207339 0.000558371)
(-0.000112897 0.000161006 0.000491624)
(-4.85461e-05 0.000124102 0.000432117)
(-8.21187e-06 9.53271e-05 0.000380832)
(1.4651e-05 7.33479e-05 0.000338104)
(2.47105e-05 5.69234e-05 0.000303595)
(2.63139e-05 4.54688e-05 0.000277121)
(2.15668e-05 3.75419e-05 0.000258054)
(1.3879e-05 3.54328e-05 0.000246686)
(5.40003e-06 3.31475e-05 0.000238772)
(-0.000239773 7.14388e-05 0.000528829)
(-0.000139835 5.56807e-05 0.000469455)
(-7.15567e-05 4.31151e-05 0.000415698)
(-2.73763e-05 3.32596e-05 0.000368796)
(-9.20244e-07 2.56987e-05 0.000329307)
(1.23628e-05 2.00178e-05 0.000297088)
(1.67929e-05 1.59743e-05 0.000272092)
(1.47125e-05 1.30705e-05 0.000253762)
(9.29292e-06 1.18685e-05 0.000242317)
(3.5891e-06 1.08557e-05 0.000233378)
(0.000566176 6.14755e-05 0.00102571)
(0.000472871 4.4526e-05 0.000810225)
(0.000385431 3.2601e-05 0.000649752)
(0.000306859 2.4061e-05 0.000531218)
(0.000237234 1.80228e-05 0.000444484)
(0.000175341 1.38481e-05 0.000382494)
(0.000119577 1.11807e-05 0.000340051)
(6.76923e-05 8.49997e-06 0.000314107)
(2.20447e-05 5.89094e-06 0.000298589)
(0.000544923 0.000158226 0.00100812)
(0.000460767 0.000121108 0.000800006)
(0.000379314 9.17371e-05 0.000643425)
(0.000304505 6.91952e-05 0.000526834)
(0.00023736 5.2579e-05 0.000441289)
(0.000177405 4.07135e-05 0.000380334)
(0.000123049 3.26879e-05 0.000339157)
(7.28083e-05 2.56932e-05 0.000314999)
(2.55275e-05 2.10712e-05 0.000302258)
(0.00051387 0.000261064 0.000984741)
(0.000432974 0.000197135 0.000779123)
(0.000356727 0.000148264 0.000626408)
(0.000287671 0.000111559 0.000513682)
(0.000225949 8.47036e-05 0.000431436)
(0.000170857 6.54744e-05 0.00037318)
(0.000120133 5.25992e-05 0.000333976)
(7.32334e-05 4.25546e-05 0.000311731)
(2.719e-05 3.90668e-05 0.00029904)
(0.000429229 0.000346141 0.000919486)
(0.00037281 0.000259602 0.000737057)
(0.000314101 0.000194463 0.00059858)
(0.000257611 0.000146086 0.000494743)
(0.000205042 0.000110881 0.000418293)
(0.000157041 8.56358e-05 0.000364013)
(0.000111175 6.92779e-05 0.000327226)
(6.86969e-05 5.59972e-05 0.000307348)
(2.61796e-05 5.61753e-05 0.000294427)
(0.000347209 0.000396002 0.000860099)
(0.000307772 0.00029921 0.000693909)
(0.000263946 0.00022533 0.000567739)
(0.000219988 0.000169885 0.000472948)
(0.000177365 0.000129274 0.000402917)
(0.000137648 0.000100082 0.000353298)
(9.67563e-05 8.14087e-05 0.000318947)
(6.16371e-05 6.66994e-05 0.00030527)
(2.57575e-05 6.78243e-05 0.000284024)
(0.000241084 0.000423673 0.000782171)
(0.000228134 0.000319696 0.000641483)
(0.000204499 0.000240888 0.000532087)
(0.000175864 0.000181924 0.000448391)
(0.000144771 0.000138792 0.000385787)
(0.000114267 0.000107987 0.00034131)
(7.98112e-05 8.81563e-05 0.000309908)
(5.15652e-05 7.48137e-05 0.000300171)
(2.31529e-05 7.30378e-05 0.000277215)
(0.000140496 0.000413657 0.000709329)
(0.00014978 0.000314492 0.000590471)
(0.000144484 0.000238304 0.000496505)
(0.000130548 0.000180787 0.000423521)
(0.000110955 0.000138471 0.000368229)
(8.97276e-05 0.000108309 0.00032878)
(6.25184e-05 8.84866e-05 0.000300461)
(4.10493e-05 7.60272e-05 0.000293598)
(1.96561e-05 7.1523e-05 0.000270532)
(4.55028e-05 0.000378148 0.000640197)
(7.57948e-05 0.000288762 0.000542284)
(8.76288e-05 0.000219761 0.000462914)
(8.73709e-05 0.000167481 0.000400024)
(7.85206e-05 0.000128921 0.000351639)
(6.57819e-05 0.00010197 0.00031695)
(4.52475e-05 8.3845e-05 0.000292037)
(2.96079e-05 7.75929e-05 0.000289115)
(1.52247e-05 7.02503e-05 0.000269631)
(-3.43469e-05 0.000317677 0.000581893)
(1.26625e-05 0.000243981 0.000501026)
(3.85888e-05 0.000186652 0.000433882)
(4.99191e-05 0.000142968 0.000379507)
(5.07645e-05 0.000110574 0.00033686)
(4.5534e-05 8.81347e-05 0.000305271)
(3.42745e-05 7.27742e-05 0.000282668)
(2.26596e-05 6.96116e-05 0.00027149)
(1.02404e-05 6.28332e-05 0.000260192)
(-0.000186975 0.000308222 0.000613345)
(-9.68261e-05 0.000239695 0.000536297)
(-3.7359e-05 0.000184925 0.000468589)
(-6.8934e-07 0.000142101 0.000410947)
(1.95624e-05 0.00010931 0.000363372)
(2.77694e-05 8.48119e-05 0.000325388)
(2.83081e-05 6.75896e-05 0.000296788)
(2.23113e-05 5.57e-05 0.000276422)
(1.4569e-05 5.10869e-05 0.000266069)
(6.56503e-06 4.75707e-05 0.000257715)
(-0.000239847 0.000189663 0.000569287)
(-0.000141058 0.000148162 0.000504399)
(-7.34003e-05 0.000114836 0.00044586)
(-2.94161e-05 8.86343e-05 0.000394927)
(-2.87097e-06 6.85142e-05 0.000352149)
(1.07417e-05 5.34369e-05 0.000317435)
(1.56549e-05 4.28701e-05 0.000290775)
(1.4137e-05 3.55673e-05 0.000271546)
(9.36144e-06 3.31963e-05 0.000260121)
(3.71026e-06 3.13719e-05 0.000252127)
(-0.000266887 6.5334e-05 0.000540626)
(-0.000165216 5.12143e-05 0.00048273)
(-9.4251e-05 3.98598e-05 0.000429701)
(-4.69355e-05 3.08951e-05 0.000383016)
(-1.72149e-05 2.39752e-05 0.000343419)
(-6.71711e-07 1.87773e-05 0.000310904)
(6.87863e-06 1.50835e-05 0.00028567)
(7.86652e-06 1.24424e-05 0.000267111)
(5.29906e-06 1.12932e-05 0.000255545)
(2.19205e-06 1.04185e-05 0.000246364)
(0.000456881 5.52806e-05 0.00100733)
(0.000390357 4.07598e-05 0.000805677)
(0.000323723 3.02464e-05 0.000653203)
(0.000261158 2.2544e-05 0.000539028)
(0.000203931 1.70209e-05 0.000454619)
(0.000151786 1.31813e-05 0.000393823)
(0.000103981 1.06805e-05 0.000352006)
(5.88857e-05 8.1887e-06 0.000326386)
(1.91298e-05 5.68959e-06 0.000310904)
(0.000439775 0.000145905 0.000992255)
(0.000380566 0.000112152 0.000796571)
(0.000318788 8.53693e-05 0.000647205)
(0.000259363 6.47308e-05 0.000534681)
(0.000204255 4.9455e-05 0.000451318)
(0.000153798 3.85065e-05 0.000391503)
(0.000107231 3.10134e-05 0.000350982)
(6.35701e-05 2.46241e-05 0.000327223)
(2.22645e-05 2.00533e-05 0.000314757)
(0.0004097 0.000238688 0.000966899)
(0.00035455 0.000181563 0.000774958)
(0.000298048 0.000137472 0.000629924)
(0.000244053 0.000104081 0.000521344)
(0.00019391 7.94888e-05 0.000441286)
(0.000147838 6.18033e-05 0.000384172)
(0.000104602 4.98463e-05 0.000345691)
(6.38447e-05 4.07886e-05 0.000323816)
(2.35605e-05 3.70898e-05 0.000311807)
(0.000337825 0.000315029 0.000907329)
(0.000302413 0.000238335 0.000735501)
(0.000260428 0.000179915 0.000603165)
(0.000217138 0.000136089 0.000502765)
(0.000175006 0.000103941 0.000428195)
(0.000135245 8.08207e-05 0.000374937)
(9.64962e-05 6.5658e-05 0.000338875)
(5.96859e-05 5.42944e-05 0.000319225)
(2.25818e-05 5.28423e-05 0.000307249)
(0.000264262 0.000361462 0.000849551)
(0.000243828 0.000275141 0.000693385)
(0.000215085 0.000208607 0.00057295)
(0.000182971 0.000158268 0.000481281)
(0.00014979 0.000121166 0.000412928)
(0.00011748 9.4459e-05 0.000364167)
(8.37907e-05 7.71962e-05 0.000330571)
(5.31445e-05 6.47528e-05 0.000315177)
(2.20701e-05 6.40651e-05 0.000298876)
(0.000171805 0.000386102 0.000776705)
(0.000173323 0.000293757 0.000643455)
(0.000161744 0.000222942 0.000538447)
(0.000142968 0.000169453 0.00045723)
(0.000120047 0.000130056 0.000395985)
(9.60305e-05 0.000101849 0.000352166)
(6.84764e-05 8.35878e-05 0.000321458)
(4.40595e-05 7.18791e-05 0.000309337)