/*--------------------------------*- C++ -*----------------------------------*\
| =========                 |                                                 |
| \\      /  F ield         | OpenFOAM: The Open Source CFD Toolbox           |
|  \\    /   O peration     | Version:  2.3.1                                 |
|   \\  /    A nd           | Web:      www.OpenFOAM.org                      |
|    \\/     M anipulation  |                                                 |
\*---------------------------------------------------------------------------*/
FoamFile
{
    version     2.0;
    format      ascii;
    class       volVectorField;
    location    "10";
    object      U_0;
}
// * * * * * * * * * * * * * * * * * * * * * * * * * * * * * * * * * * * * * //

dimensions      [0 1 -1 0 0 0 0];

internalField   nonuniform List<vector> 
37784
(
(0.000291432 0.000538327 3.93826e-05)
(0.000269598 0.000393128 3.18994e-05)
(0.000238551 0.000287655 2.61971e-05)
(0.000203101 0.000211852 2.1924e-05)
(0.000165023 0.000157756 1.87575e-05)
(0.000127324 0.000121202 1.65086e-05)
(8.69104e-05 9.38721e-05 1.48952e-05)
(5.00137e-05 8.63617e-05 1.2717e-05)
(1.66631e-05 6.33943e-05 9.50446e-06)
(0.000115737 0.000527228 4.24399e-05)
(0.000157899 0.00038769 3.49822e-05)
(0.00017165 0.00028438 2.90397e-05)
(0.000167258 0.00020874 2.43533e-05)
(0.000151657 0.00015398 2.07355e-05)
(0.000128419 0.000114756 1.79805e-05)
(0.000101608 8.77676e-05 1.60787e-05)
(6.99087e-05 6.88899e-05 1.45857e-05)
(3.93859e-05 6.01475e-05 1.27854e-05)
(1.35943e-05 5.22807e-05 9.72331e-06)
(2.81913e-06 0.000300047 3.48893e-05)
(7.18263e-05 0.000221928 2.95048e-05)
(0.000107315 0.000162958 2.50546e-05)
(0.00011988 0.000119522 2.14344e-05)
(0.000117226 8.79629e-05 1.85428e-05)
(0.000104226 6.53407e-05 1.63118e-05)
(8.49003e-05 5.00926e-05 1.47136e-05)
(6.08377e-05 3.96453e-05 1.36498e-05)
(3.42419e-05 3.66218e-05 1.25473e-05)
(1.05174e-05 3.3969e-05 1.04865e-05)
(-5.01797e-05 9.16858e-05 2.43644e-05)
(3.02648e-05 6.77446e-05 2.13307e-05)
(7.49814e-05 4.93443e-05 1.86636e-05)
(9.53021e-05 3.5836e-05 1.63707e-05)
(9.87481e-05 2.59831e-05 1.44726e-05)
(9.07106e-05 1.89445e-05 1.29571e-05)
(7.54899e-05 1.41109e-05 1.18375e-05)
(5.53209e-05 1.10426e-05 1.10924e-05)
(3.27882e-05 9.94365e-06 1.08156e-05)
(1.07794e-05 1.07757e-05 1.07739e-05)
(0.000298446 0.000546659 0.000113456)
(0.00027709 0.000399458 9.20776e-05)
(0.000245888 0.000292397 7.57885e-05)
(0.000209829 0.000215344 6.35256e-05)
(0.000171076 0.000160421 5.43759e-05)
(0.000132706 0.000123009 4.76702e-05)
(9.23647e-05 9.6109e-05 4.26586e-05)
(5.65588e-05 8.73226e-05 3.67562e-05)
(2.07103e-05 6.60491e-05 2.86788e-05)
(0.000121553 0.000540668 0.000121121)
(0.000164632 0.000398327 9.99988e-05)
(0.000178639 0.000292667 8.31586e-05)
(0.000174049 0.000215173 6.9862e-05)
(0.000157861 0.000158983 5.95552e-05)
(0.000133974 0.000118711 5.16931e-05)
(0.000106457 9.08778e-05 4.59874e-05)
(7.48892e-05 7.15372e-05 4.15464e-05)
(4.49971e-05 6.22816e-05 3.66768e-05)
(1.7076e-05 5.4004e-05 2.93905e-05)
(8.41275e-06 0.000317504 0.00010085)
(7.8124e-05 0.000235727 8.54255e-05)
(0.000113715 0.000173894 7.26177e-05)
(0.000126018 0.000128242 6.2182e-05)
(0.00012279 9.49805e-05 5.38462e-05)
(0.000109044 7.10888e-05 4.73881e-05)
(8.89838e-05 5.47777e-05 4.26359e-05)
(6.44662e-05 4.35647e-05 3.92584e-05)
(3.83194e-05 3.93983e-05 3.60972e-05)
(1.32754e-05 3.53669e-05 3.10482e-05)
(-4.51449e-05 0.000104284 7.64861e-05)
(3.57221e-05 7.76884e-05 6.66224e-05)
(8.04247e-05 5.7251e-05 5.8044e-05)
(0.000100423 4.21895e-05 5.07281e-05)
(0.00010333 3.11734e-05 4.47159e-05)
(9.45936e-05 2.32565e-05 3.99412e-05)
(7.85859e-05 1.77696e-05 3.63777e-05)
(5.76076e-05 1.40919e-05 3.39347e-05)
(3.4344e-05 1.24286e-05 3.25825e-05)
(1.18432e-05 1.18141e-05 3.15737e-05)
(0.000290929 0.000542138 0.000186263)
(0.000272271 0.000396826 0.000151581)
(0.000242963 0.000290892 0.000125077)
(0.00020822 0.000214477 0.000105012)
(0.000170533 0.000159997 8.99671e-05)
(0.000133132 0.000122809 7.87273e-05)
(9.40818e-05 9.66229e-05 7.02919e-05)
(5.99279e-05 8.79967e-05 6.12787e-05)
(2.38604e-05 6.78365e-05 5.19777e-05)
(0.000115919 0.000540289 0.000197881)
(0.000160661 0.000399166 0.000163811)
(0.000176025 0.000294016 0.000136553)
(0.000172481 0.000216688 0.000114967)
(0.000157052 0.000160474 9.81522e-05)
(0.000133847 0.000120113 8.52762e-05)
(0.000107002 9.21373e-05 7.56742e-05)
(7.64753e-05 7.27389e-05 6.83171e-05)
(4.78782e-05 6.33164e-05 6.09228e-05)
(1.95138e-05 5.49007e-05 5.26614e-05)
(5.60843e-06 0.000324655 0.000167368)
(7.59496e-05 0.000241928 0.000142077)
(0.00011212 0.000179239 0.000120962)
(0.000124961 0.000132807 0.000103711)
(0.000122164 9.88642e-05 8.98984e-05)
(0.000108801 7.44023e-05 7.91453e-05)
(8.91837e-05 5.75428e-05 7.10876e-05)
(6.52862e-05 4.58591e-05 6.52355e-05)
(4.01745e-05 4.10675e-05 6.0278e-05)
(1.49664e-05 3.62814e-05 5.46071e-05)
(-4.76112e-05 0.000111055 0.000137268)
(3.33591e-05 8.32609e-05 0.000118976)
(7.83662e-05 6.18912e-05 0.000103279)
(9.87201e-05 4.60736e-05 8.997e-05)
(0.000102005 3.44625e-05 7.90884e-05)
(9.36234e-05 2.6063e-05 7.04686e-05)
(7.79643e-05 2.01686e-05 6.39621e-05)
(5.73313e-05 1.60385e-05 5.93899e-05)
(3.44855e-05 1.39009e-05 5.65246e-05)
(1.21982e-05 1.23397e-05 5.46353e-05)
(0.000276104 0.000532693 0.00025403)
(0.000261542 0.000390916 0.000207402)
(0.000235291 0.000287206 0.000171611)
(0.000202861 0.000212171 0.00014437)
(0.000167038 0.000158613 0.000123846)
(0.000131261 0.000122078 0.000108359)
(9.36904e-05 9.66683e-05 9.67763e-05)
(6.09937e-05 8.91156e-05 8.52251e-05)
(2.52355e-05 6.95474e-05 7.56392e-05)
(0.000103303 0.000533335 0.000269355)
(0.000150718 0.000395404 0.000223686)
(0.000168408 0.000292142 0.000186973)
(0.000166779 0.000215927 0.000157782)
(0.000152904 0.000160337 0.000134936)
(0.000131051 0.000120323 0.000117368)
(0.000105446 9.25415e-05 0.000104092)
(7.61264e-05 7.32814e-05 9.40337e-05)
(4.87166e-05 6.40337e-05 8.46124e-05)
(2.05392e-05 5.56822e-05 7.60588e-05)
(-3.23149e-06 0.000324859 0.000231212)
(6.84814e-05 0.000242956 0.000196689)
(0.000106 0.000180735 0.000167741)
(0.000120113 0.00013446 0.00014401)
(0.000118444 0.000100502 0.000124955)
(0.000106105 7.59334e-05 0.000110057)
(8.74796e-05 5.8888e-05 9.87717e-05)
(6.45492e-05 4.70055e-05 9.05169e-05)
(4.04151e-05 4.20698e-05 8.39781e-05)
(1.54439e-05 3.71502e-05 7.79949e-05)
(-5.57707e-05 0.000113052 0.000198503)
(2.60112e-05 8.51412e-05 0.000171743)
(7.20738e-05 6.36804e-05 0.000148884)
(9.34766e-05 4.77071e-05 0.000129536)
(9.78064e-05 3.59334e-05 0.000113743)
(9.0392e-05 2.73576e-05 0.000101224)
(7.56385e-05 2.12739e-05 9.16939e-05)
(5.58276e-05 1.68904e-05 8.48802e-05)
(3.37303e-05 1.45479e-05 8.03749e-05)
(1.20203e-05 1.26821e-05 7.73041e-05)
(0.000255161 0.000518851 0.00031665)
(0.000245855 0.000382021 0.000259555)
(0.00022364 0.000281487 0.000215475)
(0.000194348 0.000208481 0.000181733)
(0.000161024 0.000156268 0.000156193)
(0.00012735 0.000120743 0.000136818)
(9.13688e-05 9.62259e-05 0.000122434)
(6.01177e-05 9.05211e-05 0.000108938)
(2.51043e-05 7.14954e-05 9.9928e-05)
(8.45596e-05 0.000520417 0.00033557)
(0.000135571 0.000387386 0.000279749)
(0.000156458 0.000287232 0.000234589)
(0.000157517 0.000212981 0.000198502)
(0.000145885 0.000158608 0.000170119)
(0.00012594 0.000119352 0.000148202)
(0.000102007 9.20838e-05 0.000131525)
(7.40332e-05 7.31704e-05 0.000119044)
(4.78419e-05 6.44272e-05 0.00010809)
(2.04714e-05 5.61487e-05 9.98544e-05)
(-1.74676e-05 0.000319319 0.000292057)
(5.63381e-05 0.000239691 0.000249074)
(9.59185e-05 0.000179017 0.000212873)
(0.000111973 0.00013367 0.000183073)
(0.000112049 0.000100253 0.000159065)
(0.000101272 7.59744e-05 0.000140218)
(8.40806e-05 5.90698e-05 0.000125848)
(6.24009e-05 4.72555e-05 0.000115347)
(3.93609e-05 4.25727e-05 0.000107499)
(1.51097e-05 3.78314e-05 0.000101611)
(-6.88039e-05 0.000111652 0.00025875)
(1.4439e-05 8.43711e-05 0.000223848)
(6.22152e-05 6.34132e-05 0.000194031)
(8.52726e-05 4.77085e-05 0.000168802)
(9.12134e-05 3.60802e-05 0.000148202)
(8.52705e-05 2.75532e-05 0.000131839)
(7.18673e-05 2.14624e-05 0.000119304)
(5.3248e-05 1.7014e-05 0.000110262)
(3.22394e-05 1.46847e-05 0.000104174)
(1.15169e-05 1.2819e-05 0.000100072)
(0.000228897 0.000500993 0.000373275)
(0.000225771 0.000370326 0.00030739)
(0.000208414 0.000273809 0.00025617)
(0.000182967 0.000203415 0.000216727)
(0.000152692 0.00015294 0.000186741)
(0.000121532 0.000118732 0.00016396)
(8.72886e-05 9.52411e-05 0.00014719)
(5.76052e-05 9.20418e-05 0.000132331)
(2.37672e-05 7.36928e-05 0.000123971)
(6.03825e-05 0.00050224 0.00039562)
(0.000115755 0.000375529 0.00033132)
(0.000140578 0.000279541 0.000278871)
(0.000145007 0.000208007 0.000236716)
(0.000136225 0.000155385 0.000203388)
(0.000118683 0.000117265 0.000177553)
(9.68052e-05 9.08025e-05 0.000157844)
(7.03646e-05 7.24342e-05 0.000143272)
(4.55534e-05 6.44632e-05 0.000131249)
(1.96223e-05 5.61986e-05 0.000123377)
(-3.65283e-05 0.000309214 0.000348712)
(3.99782e-05 0.000233008 0.000298216)
(8.22465e-05 0.000174725 0.000255586)
(0.000100833 0.000130926 0.000220289)
(0.000103203 9.85018e-05 0.000191744)
(9.44662e-05 7.48434e-05 0.000169249)
(7.91003e-05 5.83554e-05 0.000152036)
(5.89599e-05 4.68362e-05 0.000139508)
(3.72572e-05 4.26905e-05 0.000130582)
(1.42612e-05 3.82655e-05 0.000124732)
(-8.61203e-05 0.000108057 0.000315688)
(-8.86135e-07 8.18785e-05 0.000273427)
(4.91583e-05 6.18125e-05 0.000237229)
(7.43974e-05 4.66575e-05 0.000206568)
(8.2445e-05 3.53812e-05 0.000181478)
(7.8416e-05 2.70598e-05 0.000161494)
(6.67538e-05 2.1099e-05 0.000146115)
(4.96614e-05 1.6728e-05 0.000134965)
(3.00747e-05 1.45474e-05 0.000127435)
(1.07665e-05 1.27918e-05 0.000122353)
(0.000198059 0.000479644 0.000423493)
(0.000201808 0.000356129 0.000350562)
(0.000189977 0.000264341 0.00029342)
(0.00016897 0.000197063 0.000249142)
(0.000142235 0.000148669 0.000215346)
(0.000113968 0.000116027 0.000189712)
(8.16952e-05 9.36816e-05 0.000170993)
(5.3802e-05 9.34719e-05 0.000155384)
(2.15053e-05 7.60253e-05 0.000147407)
(3.15096e-05 0.000479716 0.000448961)
(9.18448e-05 0.000360399 0.000377939)
(0.000121182 0.00026945 0.000319444)
(0.000129553 0.000201262 0.000272128)
(0.00012415 0.000150851 0.000234516)
(0.000109456 0.000114196 0.000205256)
(8.99937e-05 8.8785e-05 0.000182944)
(6.53479e-05 7.1131e-05 0.000166635)
(4.2181e-05 6.41093e-05 0.000154013)
(1.82628e-05 5.58163e-05 0.000146435)
(-5.97714e-05 0.000295666 0.000400192)
(1.98991e-05 0.000223724 0.000343374)
(6.53997e-05 0.000168455 0.00029526)
(8.70009e-05 0.000126685 0.000255164)
(9.2139e-05 9.56072e-05 0.000222601)
(8.58646e-05 7.28349e-05 0.000196847)
(7.26843e-05 5.6981e-05 0.000177107)
(5.43912e-05 4.59289e-05 0.000162809)
(3.43492e-05 4.24803e-05 0.000153023)
(1.31082e-05 3.84158e-05 0.000147084)
(-0.000107064 0.000103044 0.000367689)
(-1.94561e-05 7.83052e-05 0.000319221)
(3.33048e-05 5.93628e-05 0.000277422)
(6.11625e-05 4.49493e-05 0.000242004)
(7.17339e-05 3.41658e-05 0.000212902)
(7.00033e-05 2.61618e-05 0.000189649)
(6.04321e-05 2.04297e-05 0.000171702)
(4.51892e-05 1.62311e-05 0.00015866)
(2.73624e-05 1.42635e-05 0.000149907)
(9.83152e-06 1.26236e-05 0.000143953)
(0.000163453 0.000455466 0.000466977)
(0.000174539 0.00033984 0.000388765)
(0.000168738 0.000253338 0.000326964)
(0.000152655 0.000189583 0.000278764)
(0.000129893 0.000143552 0.000241835)
(0.000104874 0.000112647 0.000213943)
(7.49055e-05 9.15237e-05 0.000193711)
(4.90779e-05 9.44594e-05 0.000178034)
(1.85789e-05 7.81997e-05 0.000169878)
(-1.17278e-06 0.000453846 0.000495154)
(6.45006e-05 0.000342701 0.000419137)
(9.87606e-05 0.000257428 0.000355913)
(0.000111528 0.000193072 0.000304408)
(0.000109937 0.000145237 0.000263236)
(9.84881e-05 0.000110315 0.000231096)
(8.17802e-05 8.61403e-05 0.000206648)
(5.92639e-05 6.93292e-05 0.000188956)
(3.80519e-05 6.33123e-05 0.000176233)
(1.65814e-05 5.50299e-05 0.000168795)
(-8.63973e-05 0.000279713 0.000445593)
(-3.27172e-06 0.000212582 0.000383899)
(4.58479e-05 0.000160747 0.000331297)
(7.08476e-05 0.000121358 0.000287215)
(7.91426e-05 9.18867e-05 0.000251241)
(7.56927e-05 7.02011e-05 0.000222686)
(6.50223e-05 5.51348e-05 0.000200793)
(4.88935e-05 4.46612e-05 0.000184995)
(3.08454e-05 4.19336e-05 0.000174558)
(1.17661e-05 3.82308e-05 0.000168344)
(-0.000130875 9.71553e-05 0.000413642)
(-4.06797e-05 7.41182e-05 0.00036033)
(1.50975e-05 5.63893e-05 0.000313847)
(4.59332e-05 4.28509e-05 0.000274484)
(5.93514e-05 3.26515e-05 0.000241959)
(6.02428e-05 2.50423e-05 0.000215881)
(5.30682e-05 1.96041e-05 0.000195718)
(3.99797e-05 1.56339e-05 0.000181046)
(2.42191e-05 1.38932e-05 0.000171319)
(8.75466e-06 1.23526e-05 0.000164582)
(0.000125967 0.000429199 0.000503539)
(0.000144615 0.000321939 0.000421778)
(0.000145176 0.000241114 0.000356583)
(0.000134377 0.000181185 0.000305392)
(0.000115955 0.000137725 0.000266026)
(9.45083e-05 0.00010863 0.000236477)
(6.72903e-05 8.87423e-05 0.000215146)
(4.38239e-05 9.43401e-05 0.000200167)
(1.53297e-05 7.97708e-05 0.000191157)
(-3.66656e-05 0.00042568 0.000533917)
(3.44664e-05 0.000323175 0.000454489)
(7.38969e-05 0.000243974 0.000387938)
(9.13712e-05 0.000183789 0.000333257)
(9.39265e-05 0.000138795 0.000289288)
(8.60564e-05 0.000105804 0.000254844)
(7.24124e-05 8.29846e-05 0.000228744)
(5.24268e-05 6.71017e-05 0.000210003)
(3.34828e-05 6.19894e-05 0.000197689)
(1.47104e-05 5.39151e-05 0.000190318)
(-0.000115516 0.000262245 0.000484318)
(-2.88352e-05 0.000200235 0.000419272)
(2.41279e-05 0.000152088 0.000363192)
(5.28039e-05 0.000115298 0.00031604)
(6.45447e-05 8.76076e-05 0.000277324)
(6.42151e-05 6.71488e-05 0.000246479)
(5.63345e-05 5.29617e-05 0.000222836)
(4.26786e-05 4.31232e-05 0.000205816)
(2.69237e-05 4.09962e-05 0.000194931)
(1.02953e-05 3.76448e-05 0.000188294)
(-0.000156764 9.07923e-05 0.0004529)
(-6.39389e-05 6.96267e-05 0.000396109)
(-4.97607e-06 5.31196e-05 0.000346072)
(2.91017e-05 4.05381e-05 0.000303583)
(4.55955e-05 3.09772e-05 0.000268304)
(4.93671e-05 2.38152e-05 0.0002399)
(4.48449e-05 1.87098e-05 0.000217917)
(3.41902e-05 1.49965e-05 0.000201901)
(2.0756e-05 1.34619e-05 0.000191458)
(7.56815e-06 1.20158e-05 0.000184027)
(8.65463e-05 0.000401584 0.000533123)
(0.000112749 0.000302926 0.000449472)
(0.000119825 0.000228002 0.000382119)
(0.000114539 0.000172087 0.000328863)
(0.000100751 0.000131343 0.000287743)
(8.31486e-05 0.000104034 0.000257093)
(5.92303e-05 8.53316e-05 0.000235039)
(3.84365e-05 9.22472e-05 0.000221535)
(1.24548e-05 7.86637e-05 0.000211158)
(-7.396e-05 0.000396228 0.000564996)
(2.52571e-06 0.000302534 0.000483839)
(4.72524e-05 0.000229568 0.000415268)
(6.95765e-05 0.000173758 0.000358435)
(7.64976e-05 0.00013177 0.000312449)
(7.24702e-05 0.000100844 0.000276287)
(6.21526e-05 7.94326e-05 0.000248999)
(4.51429e-05 6.45251e-05 0.000229512)
(2.87659e-05 6.00444e-05 0.000218049)
(1.27733e-05 5.25582e-05 0.000210732)
(-0.000146205 0.000243961 0.00051602)
(-5.60779e-05 0.00018726 0.000449088)
(7.96351e-07 0.000142883 0.000390675)
(3.33415e-05 0.000108789 0.000341332)
(4.87017e-05 8.29829e-05 0.000300586)
(5.1715e-05 6.38385e-05 0.000267985)
(4.68492e-05 5.0569e-05 0.000243007)
(3.59474e-05 4.13797e-05 0.00022504)
(2.27254e-05 3.95982e-05 0.000213891)
(8.72838e-06 3.65637e-05 0.000206758)
(-0.00018397 8.42577e-05 0.000485147)
(-8.85875e-05 6.49619e-05 0.000426217)
(-2.64076e-05 4.97616e-05 0.000373867)
(1.10445e-05 3.81183e-05 0.000329014)
(3.07755e-05 2.92283e-05 0.000291708)
(3.76138e-05 2.25456e-05 0.000261501)
(3.59467e-05 1.77922e-05 0.000238112)
(2.79699e-05 1.43481e-05 0.000221045)
(1.70694e-05 1.29771e-05 0.000210117)
(6.29843e-06 1.16453e-05 0.000202086)
(0.000807756 7.59222e-05 0.00103033)
(0.000650547 5.29461e-05 0.000793485)
(0.000515345 3.76053e-05 0.000622669)
(0.000401307 2.71937e-05 0.000499771)
(0.000305115 2.00658e-05 0.000411664)
(0.00022286 1.51976e-05 0.000349617)
(0.000150832 1.21876e-05 0.00030756)
(8.52955e-05 9.11386e-06 0.000281839)
(2.78654e-05 6.29344e-06 0.000266873)
(0.000775088 0.000182679 0.00100767)
(0.000632077 0.000139053 0.000781326)
(0.000505964 0.000104483 0.000615986)
(0.000397381 7.81358e-05 0.000495755)
(0.00030455 5.88524e-05 0.000409159)
(0.000224833 4.51479e-05 0.000348218)
(0.000154613 3.60977e-05 0.000307284)
(9.11878e-05 2.78303e-05 0.000282965)
(3.20076e-05 2.33325e-05 0.000270146)
(0.000745191 0.000308137 0.000991584)
(0.000601907 0.000229392 0.000763859)
(0.000479981 0.000170333 0.000600725)
(0.00037743 0.000126691 0.000483698)
(0.000290816 9.51861e-05 0.00040015)
(0.00021692 7.27855e-05 0.00034173)
(0.000150935 5.80443e-05 0.000302444)
(9.19367e-05 4.57573e-05 0.000279461)
(3.45235e-05 4.30755e-05 0.000266314)
(0.000628194 0.000412985 0.000914891)
(0.000522126 0.000304289 0.000717093)
(0.000425557 0.000224491 0.000571389)
(0.000340183 0.000166406 0.000464611)
(0.000265379 0.000124799 0.000387333)
(0.00020026 9.50952e-05 0.000332929)
(0.000139778 7.61463e-05 0.000295985)
(8.61575e-05 5.57895e-05 0.000275119)
(3.16648e-05 6.25555e-05 0.000262263)
(0.000528387 0.000468913 0.000855248)
(0.000443617 0.000349123 0.00067388)
(0.000365315 0.000259532 0.00054059)
(0.00029525 0.00019334 0.000443029)
(0.000232416 0.000145426 0.000372217)
(0.000177179 0.000110997 0.000322276)
(0.000119353 8.9203e-05 0.00028755)
(7.54591e-05 6.60013e-05 0.0002731)
(0.000389746 0.000503776 0.000768396)
(0.000343031 0.000373826 0.000617778)
(0.000292339 0.000277652 0.000503705)
(0.000242253 0.000207085 0.000418258)
(0.000193765 0.00015615 0.000355266)
(0.000149647 0.000119878 0.000310552)
(9.81676e-05 9.66235e-05 0.00027886)
(6.20968e-05 7.79485e-05 0.000269189)
(0.000264317 0.000488434 0.000691544)
(0.00024707 0.000366203 0.000564908)
(0.000220069 0.000274044 0.000467479)
(0.000188525 0.00020555 0.000393332)
(0.000154153 0.000155745 0.000337915)
(0.000121175 0.000120387 0.000298359)
(7.73701e-05 9.70744e-05 0.000269914)
(4.84586e-05 7.9987e-05 0.000264837)
(0.000144899 0.000445817 0.000617583)
(0.000156312 0.000335813 0.000514665)
(0.000151732 0.000252505 0.000433168)
(0.000137505 0.000190383 0.000369735)
(0.000116345 0.000145126 0.000321508)
(9.35175e-05 0.000114093 0.000286927)
(5.66928e-05 9.31749e-05 0.000262173)
(3.37619e-05 9.26314e-05 0.00026363)
(4.6148e-05 0.000373351 0.000555814)
(7.96826e-05 0.000283296 0.000471817)
(9.32525e-05 0.000214344 0.000403483)
(9.35737e-05 0.000162537 0.000349049)
(8.46148e-05 0.000124572 0.000306831)
(7.10584e-05 9.8945e-05 0.000275547)
(5.10493e-05 8.13367e-05 0.000253079)
(3.32559e-05 8.66192e-05 0.000241489)
(1.17451e-05 7.20068e-05 0.000229473)
(-0.000112012 0.000366384 0.000588355)
(-3.04777e-05 0.00028139 0.000507206)
(1.94472e-05 0.00021467 0.000437755)
(4.6656e-05 0.000163284 0.000379784)
(5.80479e-05 0.000124383 0.000332552)
(5.8043e-05 9.55955e-05 0.000295247)
(5.12502e-05 7.5598e-05 0.000267184)
(3.76644e-05 6.16876e-05 0.000247203)
(2.4106e-05 5.74015e-05 0.000236748)
(1.08491e-05 5.10039e-05 0.000229011)
(-0.000177616 0.000225473 0.000540602)
(-8.42642e-05 0.000174061 0.000473139)
(-2.35651e-05 0.000133452 0.000413639)
(1.28931e-05 0.000102054 0.000362897)
(3.1974e-05 7.81771e-05 0.000320846)
(3.84717e-05 6.039e-05 0.00028703)
(3.67844e-05 4.80392e-05 0.000261118)
(2.88715e-05 3.94898e-05 0.000242474)
(1.83567e-05 3.77017e-05 0.000231199)
(7.08988e-06 3.49513e-05 0.000223593)
(-0.000211774 7.77503e-05 0.000510347)
(-0.000114006 6.02653e-05 0.000450589)
(-4.87179e-05 4.64202e-05 0.000397047)
(-7.87443e-06 3.56533e-05 0.000350713)
(1.52036e-05 2.74562e-05 0.000312018)
(2.52161e-05 2.12695e-05 0.000280558)
(2.65503e-05 1.68737e-05 0.000256172)
(2.14482e-05 1.37019e-05 0.00023834)
(1.32355e-05 1.24406e-05 0.000227105)
(4.96784e-06 1.12576e-05 0.00021856)
(0.000683347 6.83093e-05 0.00103367)
(0.000559814 4.85574e-05 0.000806255)
(0.000449478 3.50214e-05 0.000639563)
(0.000353697 2.55854e-05 0.000518088)
(0.000271048 1.90132e-05 0.0004301)
(0.000199093 1.44937e-05 0.000367679)
(0.000135233 1.16571e-05 0.000325156)
(7.65222e-05 8.78967e-06 0.000299181)
(2.49703e-05 6.08994e-06 0.000283832)
(0.000656988 0.000170522 0.00101352)
(0.000544851 0.000130086 0.000795023)
(0.000441897 9.80959e-05 0.000633027)
(0.000350651 7.36384e-05 0.000513809)
(0.000270888 5.56853e-05 0.000427176)
(0.00020115 4.28998e-05 0.000365827)
(0.000138886 3.43495e-05 0.00032451)
(8.20476e-05 2.67265e-05 0.00030018)
(2.87997e-05 2.21639e-05 0.000287311)
(0.000625874 0.000284208 0.000993186)
(0.00051563 0.00021306 0.000775498)
(0.00041754 0.000159196 0.000616673)
(0.000332262 0.000119063 0.000501073)
(0.000258356 8.99019e-05 0.000417658)
(0.000193959 6.91041e-05 0.000358961)
(0.00013562 5.53059e-05 0.000319485)
(8.26381e-05 4.41959e-05 0.000296992)
(3.08942e-05 4.11079e-05 0.000283836)
(0.000526324 0.000378759 0.000922207)
(0.000446314 0.000281555 0.000730994)
(0.000369345 0.000209291 0.000587996)
(0.000298773 0.000156168 0.000481965)
(0.000235281 0.000117806 0.000404602)
(0.000178801 9.03599e-05 0.000349953)
(0.000125672 7.27692e-05 0.000312878)
(7.7595e-05 5.68114e-05 0.000292885)
(2.9463e-05 6.00537e-05 0.000279354)
(0.00043551 0.000431819 0.000862163)
(0.000374602 0.000323858 0.00068745)
(0.000314218 0.000242279 0.000556941)
(0.000257563 0.000181556 0.000460149)
(0.000205017 0.00013734 0.000389295)
(0.000157655 0.000105565 0.000339348)
(0.000108952 8.54178e-05 0.000304732)
(6.96287e-05 6.75529e-05 0.000294815)
(2.22245e-05 7.20973e-05 0.00026867)
(0.000314061 0.00046287 0.000779546)
(0.000284962 0.000346369 0.000632948)
(0.000248237 0.000259101 0.000520476)
(0.000209117 0.000194447 0.000435353)
(0.000169455 0.000147468 0.000372169)
(0.000132253 0.000113975 0.000327476)
(9.01605e-05 9.25075e-05 0.000295869)
(5.83139e-05 7.71321e-05 0.000291282)
(1.8158e-05 7.59942e-05 0.000262588)
(0.000201411 0.000450467 0.000704205)
(0.000198015 0.000340084 0.000580685)
(0.000182207 0.000256066 0.000484348)
(0.000159649 0.000193137 0.000410308)
(0.000132763 0.00014711 0.000354617)
(0.000105759 0.000114385 0.000315079)
(7.12997e-05 9.28613e-05 0.000286668)
(4.65584e-05 7.85395e-05 0.000286287)
(1.28364e-05 7.28059e-05 0.000257699)
(9.46541e-05 0.000411477 0.000632279)
(0.000115886 0.000312065 0.000531184)
(0.000119721 0.000236049 0.000450196)
(0.000112588 0.000178909 0.000386622)
(9.76408e-05 0.000137027 0.000338016)
(7.99304e-05 0.000108035 0.000303382)
(5.24132e-05 8.84609e-05 0.000278567)
(3.36886e-05 8.38193e-05 0.000283693)
(6.86929e-06 7.23811e-05 0.000260743)
(5.63117e-06 0.000345166 0.00057187)
(4.61348e-05 0.000263472 0.000488882)
(6.60172e-05 0.00020044 0.000420664)
(7.19108e-05 0.000152736 0.000365884)
(6.78691e-05 0.000117577 0.00032318)
(5.84655e-05 9.35321e-05 0.000291601)
(4.28703e-05 7.69768e-05 0.000268947)
(2.81222e-05 7.64075e-05 0.00025812)
(1.22137e-05 6.56162e-05 0.000245682)
(-0.000149871 0.00033682 0.000604275)
(-6.37771e-05 0.000260273 0.000524577)
(-8.90961e-06 0.000199661 0.000455439)
(2.3115e-05 0.000152632 0.000397228)
(3.89657e-05 0.000116827 0.000349497)
(4.30675e-05 9.01983e-05 0.000311599)
(3.99178e-05 7.15968e-05 0.000283111)
(3.01094e-05 5.86949e-05 0.000262836)
(1.94069e-05 5.4156e-05 0.000252746)
(8.74298e-06 4.93415e-05 0.000244407)
(-0.000208969 0.000207238 0.000558201)
(-0.000112721 0.000160924 0.000491468)
(-4.8423e-05 0.000124037 0.000431977)
(-8.12771e-06 9.52764e-05 0.000380709)
(1.47073e-05 7.33082e-05 0.000337995)
(2.47477e-05 5.68923e-05 0.000303499)
(2.63373e-05 4.54436e-05 0.000277035)
(2.15813e-05 3.75215e-05 0.000257975)
(1.38865e-05 3.54136e-05 0.000246611)
(5.40164e-06 3.31314e-05 0.000238702)
(-0.000239519 7.14048e-05 0.000528677)
(-0.000139651 5.5653e-05 0.000469313)
(-7.14264e-05 4.30929e-05 0.000415569)
(-2.72857e-05 3.32422e-05 0.000368681)
(-8.5865e-07 2.56851e-05 0.000329205)
(1.2404e-05 2.00071e-05 0.000296997)
(1.68193e-05 1.59658e-05 0.00027201)
(1.47289e-05 1.30636e-05 0.000253686)
(9.30138e-06 1.18627e-05 0.000242246)
(3.59105e-06 1.0851e-05 0.00023331)
(0.000566059 6.14312e-05 0.00102519)
(0.000472749 4.44969e-05 0.000809827)
(0.00038532 3.25815e-05 0.000649448)
(0.000306766 2.40471e-05 0.000530982)
(0.000237159 1.80123e-05 0.000444297)
(0.000175285 1.38397e-05 0.000382342)
(0.000119539 1.11739e-05 0.000339922)
(6.7671e-05 8.4947e-06 0.000313993)
(2.20379e-05 5.88728e-06 0.000298483)
(0.000544833 0.000158162 0.00100763)
(0.000460663 0.000121054 0.000799623)
(0.000379213 9.16919e-05 0.000643127)
(0.000304416 6.91586e-05 0.0005266)
(0.000237287 5.25497e-05 0.000441104)
(0.000177349 4.06899e-05 0.000380182)
(0.00012301 3.26684e-05 0.000339027)
(7.27851e-05 2.56778e-05 0.000314883)
(2.55193e-05 2.10582e-05 0.00030215)
(0.00051376 0.000260937 0.000984231)
(0.000432863 0.000197035 0.000778737)
(0.000356627 0.000148186 0.000626114)
(0.000287587 0.000111498 0.000513454)
(0.000225881 8.46559e-05 0.000431255)
(0.000170805 6.54367e-05 0.000373031)
(0.000120096 5.25681e-05 0.000333849)
(7.32105e-05 4.25295e-05 0.000311617)
(2.7181e-05 3.90439e-05 0.000298935)
(0.000429182 0.00034596 0.000919048)
(0.000372744 0.000259463 0.000736714)
(0.000314031 0.000194357 0.000598311)
(0.000257546 0.000146005 0.000494529)
(0.000204987 0.000110818 0.000418121)
(0.000156997 8.55869e-05 0.00036387)
(0.000111143 6.92372e-05 0.000327104)
(6.86769e-05 5.59649e-05 0.000307237)
(2.61712e-05 5.61427e-05 0.000294325)
(0.000347176 0.000395806 0.000859683)
(0.000307723 0.000299056 0.000693587)
(0.000263895 0.000225209 0.000567488)
(0.00021994 0.000169792 0.000472749)
(0.000177324 0.000129202 0.000402755)
(0.000137614 0.000100025 0.000353162)
(9.67323e-05 8.13615e-05 0.000318831)
(6.16203e-05 6.66618e-05 0.000305162)
(2.57481e-05 6.77862e-05 0.000283931)
(0.000241112 0.000423449 0.000781825)
(0.00022813 0.000319525 0.000641205)
(0.00020448 0.000240757 0.000531865)
(0.00017584 0.000181824 0.00044821)
(0.000144747 0.000138714 0.000385638)
(0.000114244 0.000107926 0.000341184)
(7.97965e-05 8.8106e-05 0.000309799)
(5.15542e-05 7.47717e-05 0.000300067)
(2.31448e-05 7.29982e-05 0.000277126)
(0.000140562 0.000413447 0.00070903)
(0.00014981 0.000314327 0.000590229)
(0.000144494 0.000238176 0.000496307)
(0.000130546 0.000180688 0.000423358)
(0.000110949 0.000138394 0.000368093)
(8.97182e-05 0.000108249 0.000328662)
(6.25125e-05 8.84369e-05 0.000300359)
(4.10434e-05 7.59856e-05 0.0002935)
(1.96496e-05 7.14851e-05 0.000270448)
(4.56121e-05 0.000377955 0.00063995)
(7.58607e-05 0.00028861 0.000542078)
(8.76666e-05 0.000219643 0.000462741)
(8.7391e-05 0.00016739 0.000399879)
(7.85309e-05 0.00012885 0.000351515)
(6.5785e-05 0.000101913 0.000316842)
(4.5251e-05 8.37986e-05 0.000291942)
(2.9608e-05 7.75501e-05 0.00028902)
(1.52201e-05 7.02141e-05 0.000269549)
(-3.4205e-05 0.000317517 0.000581687)
(1.27564e-05 0.000243855 0.000500849)
(3.86495e-05 0.000186553 0.00043373)
(4.99575e-05 0.00014289 0.000379377)
(5.07883e-05 0.000110513 0.000336747)
(4.55475e-05 8.80857e-05 0.000305171)
(3.42829e-05 7.27345e-05 0.000282578)
(2.26632e-05 6.95736e-05 0.000271405)
(1.02396e-05 6.28017e-05 0.000260114)
(-0.000186739 0.000308075 0.00061315)
(-9.66594e-05 0.000239575 0.000536122)
(-3.72434e-05 0.000184829 0.000468434)
(-6.10631e-07 0.000142026 0.000410812)
(1.96149e-05 0.000109251 0.000363254)
(2.78042e-05 8.47656e-05 0.000325284)
(2.833e-05 6.75523e-05 0.000296694)
(2.23258e-05 5.56698e-05 0.000276336)
(1.45767e-05 5.10598e-05 0.000265987)
(6.56603e-06 4.75474e-05 0.000257638)
(-0.000239595 0.000189575 0.000569121)
(-0.000140876 0.00014809 0.000504246)
(-7.32702e-05 0.000114777 0.000445722)
(-2.93251e-05 8.85882e-05 0.000394803)
(-2.80869e-06 6.84778e-05 0.00035204)
(1.07837e-05 5.34082e-05 0.000317337)
(1.56822e-05 4.28468e-05 0.000290686)
(1.41542e-05 3.55483e-05 0.000271465)
(9.3706e-06 3.31787e-05 0.000260044)
(3.71256e-06 3.13568e-05 0.000252054)
(-0.000266629 6.5304e-05 0.000540478)
(-0.000165027 5.11896e-05 0.00048259)
(-9.41148e-05 3.98399e-05 0.000429573)
(-4.68391e-05 3.08793e-05 0.0003829)
(-1.7148e-05 2.39627e-05 0.000343315)
(-6.26058e-07 1.87675e-05 0.000310811)
(6.90851e-06 1.50755e-05 0.000285586)
(7.88528e-06 1.24359e-05 0.000267033)
(5.30894e-06 1.12878e-05 0.000255471)
(2.19455e-06 1.0414e-05 0.000246293)
(0.000456822 5.52444e-05 0.00100685)
(0.000390282 4.07357e-05 0.000805303)
(0.000323647 3.02295e-05 0.000652911)
(0.00026109 2.25316e-05 0.000538798)
(0.000203874 1.70113e-05 0.000454435)
(0.000151743 1.31737e-05 0.000393672)
(0.000103951 1.06742e-05 0.000351877)
(5.88691e-05 8.18378e-06 0.000326271)
(1.91245e-05 5.68611e-06 0.000310796)
(0.000439737 0.000145846 0.000991795)
(0.000380503 0.000112102 0.000796208)
(0.000318719 8.53279e-05 0.000646918)
(0.000259298 6.46972e-05 0.000534453)
(0.0002042 4.94281e-05 0.000451135)
(0.000153754 3.84848e-05 0.000391352)
(0.000107201 3.09954e-05 0.000350852)
(6.35518e-05 2.46096e-05 0.000327106)
(2.2258e-05 2.00412e-05 0.000314648)
(0.000409648 0.000238576 0.00096643)
(0.000354484 0.000181474 0.000774595)
(0.000297982 0.000137401 0.000629642)
(0.000243993 0.000104025 0.000521122)
(0.00019386 7.94451e-05 0.000441107)
(0.000147798 6.17686e-05 0.000384023)
(0.000104573 4.98176e-05 0.000345563)
(6.38267e-05 4.0765e-05 0.000323701)
(2.35534e-05 3.70684e-05 0.0003117)
(0.000337822 0.000314871 0.000906921)
(0.000302382 0.000238212 0.000735175)
(0.000260385 0.00017982 0.000602905)
(0.000217094 0.000136015 0.000502556)
(0.000174967 0.000103884 0.000428025)
(0.000135212 8.07755e-05 0.000374795)
(9.6472e-05 6.56204e-05 0.000338752)
(5.96704e-05 5.42637e-05 0.000319113)
(2.25752e-05 5.28123e-05 0.000307146)
(0.000264273 0.000361289 0.000849165)
(0.000243814 0.000275003 0.00069308)
(0.00021506 0.000208498 0.000572708)
(0.000182943 0.000158184 0.000481086)
(0.000149763 0.000121099 0.000412768)
(0.000117456 9.44066e-05 0.000364032)
(8.37732e-05 7.71524e-05 0.000330454)
(5.31321e-05 6.4717e-05 0.000315068)
(2.2063e-05 6.40298e-05 0.000298779)
(0.000171864 0.000385906 0.000776379)
(0.000173345 0.000293605 0.00064319)
(0.000161747 0.000222825 0.000538231)
(0.00014296 0.000169362 0.000457053)
(0.000120035 0.000129984 0.000395838)
(9.60174e-05 0.000101792 0.000352039)
(6.8467e-05 8.3541e-05 0.000321348)