/*--------------------------------*- C++ -*----------------------------------*\
| =========                 |                                                 |
| \\      /  F ield         | OpenFOAM: The Open Source CFD Toolbox           |
|  \\    /   O peration     | Version:  2.3.1                                 |
|   \\  /    A nd           | Web:      www.OpenFOAM.org                      |
|    \\/     M anipulation  |                                                 |
\*---------------------------------------------------------------------------*/
FoamFile
{
    version     2.0;
    format      ascii;
    class       volScalarField;
    location    "20";
    object      epsilon;
}
// * * * * * * * * * * * * * * * * * * * * * * * * * * * * * * * * * * * * * //

dimensions      [0 2 -3 0 0 0 0];

internalField   nonuniform List<scalar> 
38152
(
0.00059906
0.000594074
0.000575181
0.000519516
0.000503113
0.000519057
0.000538503
0.000533743
0.000494301
0.000450028
0.000435718
0.000392371
0.000240245
0.000118811
8.30692e-05
7.36872e-05
6.89048e-05
6.51454e-05
6.25026e-05
5.78831e-05
5.44189e-05
5.29829e-05
5.21058e-05
5.28905e-05
5.89515e-05
6.3944e-05
6.42015e-05
6.33285e-05
5.97567e-05
5.04511e-05
4.56147e-05
4.37758e-05
4.10755e-05
4.06518e-05
4.14625e-05
4.16479e-05
4.10321e-05
4.12473e-05
4.02557e-05
3.39678e-05
2.79186e-05
1.70271e-05
3.55134e-06
3.87806e-07
0.000856843
0.00078361
0.000618716
0.000386268
0.000310507
0.000308939
0.000323818
0.000326198
0.000302744
0.000251526
0.000190928
0.000145439
0.000118179
0.000109173
9.60605e-05
6.01445e-05
4.67963e-05
4.71939e-05
4.57096e-05
4.41079e-05
4.71948e-05
5.22292e-05
5.64963e-05
5.93498e-05
6.14279e-05
6.12599e-05
5.67849e-05
5.00938e-05
4.92062e-05
4.77426e-05
4.38097e-05
4.01906e-05
4.02033e-05
4.3404e-05
4.32662e-05
4.12389e-05
3.20904e-05
2.42708e-05
2.3162e-05
2.0188e-05
1.41427e-05
5.74615e-06
1.14012e-06
2.828e-07
0.00070039
0.000475488
0.000177198
8.75453e-05
6.88005e-05
6.85301e-05
6.95957e-05
7.00695e-05
6.79571e-05
6.03306e-05
4.72581e-05
4.54816e-05
4.62774e-05
4.45228e-05
4.11327e-05
3.43865e-05
3.02882e-05
2.86885e-05
2.63838e-05
2.49503e-05
2.53433e-05
2.69519e-05
2.94392e-05
3.19854e-05
3.35789e-05
3.3898e-05
3.29065e-05
2.90888e-05
2.86804e-05
2.97908e-05
2.99391e-05
3.10097e-05
3.47509e-05
3.64591e-05
3.72123e-05
3.55101e-05
2.45831e-05
8.51188e-06
6.36451e-06
6.76617e-06
5.80906e-06
3.34733e-06
1.39144e-06
6.5588e-07
2.98784e-07
9.54619e-05
4.87065e-05
3.3055e-05
2.8307e-05
2.68335e-05
2.66856e-05
2.75172e-05
2.76501e-05
2.59088e-05
2.38912e-05
2.19026e-05
2.1019e-05
2.02035e-05
1.94201e-05
1.87744e-05
1.7752e-05
1.70173e-05
1.64306e-05
1.60692e-05
1.60741e-05
1.65542e-05
1.74271e-05
1.8487e-05
1.92071e-05
1.93074e-05
1.89008e-05
1.81738e-05
1.81862e-05
1.95725e-05
2.329e-05
2.46507e-05
2.69026e-05
3.15122e-05
3.2559e-05
3.21317e-05
2.89984e-05
1.37885e-05
2.20291e-06
1.81153e-06
2.0787e-06
1.76346e-06
1.23753e-06
8.7609e-07
6.47676e-07
3.18803e-07
2.08961e-05
1.93847e-05
1.81959e-05
1.75289e-05
1.67126e-05
1.63805e-05
1.56619e-05
1.50521e-05
1.4562e-05
1.40195e-05
1.37493e-05
1.34865e-05
1.32785e-05
1.29181e-05
1.24203e-05
1.19269e-05
1.16014e-05
1.14558e-05
1.15242e-05
1.17831e-05
1.21154e-05
1.23862e-05
1.24233e-05
1.20632e-05
1.17613e-05
1.14217e-05
1.11738e-05
1.13429e-05
1.23365e-05
1.34294e-05
1.57755e-05
2.14868e-05
2.33222e-05
2.26957e-05
2.10533e-05
1.39051e-05
3.20306e-06
1.1133e-06
1.08671e-06
1.03203e-06
9.30343e-07
8.23188e-07
6.96452e-07
5.21682e-07
1.81105e-05
1.76022e-05
1.6901e-05
1.62768e-05
1.59811e-05
1.55079e-05
1.50634e-05
1.47121e-05
1.41683e-05
1.3735e-05
1.32621e-05
1.27438e-05
1.22333e-05
1.17051e-05
1.1219e-05
1.08352e-05
1.05547e-05
1.03518e-05
1.02458e-05
1.01819e-05
9.94725e-06
9.66641e-06
9.23155e-06
8.91552e-06
7.13477e-06
4.7401e-06
3.98788e-06
4.17213e-06
4.99045e-06
6.87388e-06
9.4934e-06
1.30726e-05
1.44718e-05
1.45363e-05
1.41579e-05
9.71365e-06
2.20791e-06
9.93823e-07
9.55468e-07
9.33142e-07
8.83153e-07
8.11254e-07
7.04805e-07
5.95594e-07
1.79935e-05
1.73546e-05
1.71299e-05
1.63071e-05
1.59738e-05
1.56288e-05
1.50686e-05
1.48362e-05
1.43666e-05
1.39017e-05
1.35447e-05
1.30177e-05
1.25392e-05
1.20116e-05
1.14762e-05
1.0965e-05
1.04778e-05
1.00716e-05
9.75778e-06
9.50525e-06
9.22135e-06
8.77042e-06
8.29812e-06
7.45612e-06
4.18588e-06
1.70094e-06
1.27405e-06
1.27916e-06
1.44057e-06
1.82432e-06
2.40708e-06
3.29198e-06
4.45458e-06
5.39846e-06
6.68823e-06
6.80175e-06
3.11334e-06
1.18071e-06
9.32567e-07
9.03584e-07
8.7976e-07
8.39168e-07
7.83287e-07
6.84135e-07
5.8673e-07
1.7072e-05
1.62637e-05
1.61484e-05
1.55778e-05
1.53362e-05
1.51708e-05
1.47879e-05
1.47214e-05
1.41519e-05
1.3952e-05
1.34271e-05
1.29993e-05
1.24598e-05
1.18955e-05
1.12802e-05
1.06593e-05
1.00792e-05
9.57106e-06
9.13188e-06
8.69084e-06
8.17277e-06
7.67293e-06
6.68871e-06
3.50079e-06
1.43071e-06
1.19073e-06
1.168e-06
1.16051e-06
1.17212e-06
1.23213e-06
1.37502e-06
1.6568e-06
2.10222e-06
2.61348e-06
2.97156e-06
2.4103e-06
1.33207e-06
9.73437e-07
8.98916e-07
8.67891e-07
8.38489e-07
7.97341e-07
7.40274e-07
6.41432e-07
4.95962e-07
1.42494e-05
1.30861e-05
1.325e-05
1.27918e-05
1.28724e-05
1.28607e-05
1.28257e-05
1.28391e-05
1.25982e-05
1.25491e-05
1.21249e-05
1.18662e-05
1.13523e-05
1.08472e-05
1.02194e-05
9.57094e-06
8.92959e-06
8.28012e-06
7.66092e-06
7.08575e-06
6.38684e-06
5.01074e-06
2.68664e-06
1.40905e-06
1.19359e-06
1.1641e-06
1.14463e-06
1.11842e-06
1.09573e-06
1.08585e-06
1.11436e-06
1.18869e-06
1.30232e-06
1.38796e-06
1.41561e-06
1.19048e-06
1.12923e-05
1.02365e-05
1.0118e-05
9.17651e-06
8.88595e-06
8.66768e-06
8.59267e-06
8.58194e-06
8.53474e-06
8.63793e-06
8.55403e-06
8.53135e-06
8.32646e-06
8.0858e-06
7.68853e-06
7.18994e-06
6.56201e-06
5.75235e-06
4.80206e-06
3.76689e-06
2.75371e-06
1.86335e-06
1.34511e-06
1.16747e-06
1.10783e-06
1.07317e-06
1.0397e-06
1.01351e-06
9.97145e-07
9.9006e-07
9.90632e-07
1.00132e-06
1.0156e-06
1.02106e-06
9.88937e-07
8.59412e-06
8.22543e-06
7.85778e-06
7.08462e-06
6.57811e-06
6.39404e-06
5.92774e-06
5.76912e-06
5.42245e-06
5.46805e-06
5.10579e-06
5.11122e-06
4.72433e-06
4.55253e-06
4.16562e-06
3.71455e-06
3.18973e-06
2.62176e-06
2.09769e-06
1.68242e-06
1.37784e-06
1.15987e-06
1.02389e-06
9.37987e-07
8.79324e-07
8.3223e-07
7.97725e-07
7.764e-07
7.66279e-07
7.63317e-07
7.67614e-07
7.73521e-07
7.76353e-07
7.67946e-07
7.3835e-07
4.73288e-06
4.67732e-06
4.16432e-06
4.02573e-06
3.60383e-06
3.54677e-06
3.20197e-06
3.07589e-06
2.83824e-06
2.78155e-06
2.47701e-06
2.42207e-06
2.10512e-06
1.99089e-06
1.72467e-06
1.51287e-06
1.28801e-06
1.09473e-06
9.35359e-07
8.10091e-07
7.09839e-07
6.29957e-07
5.69353e-07
5.24545e-07
4.91546e-07
4.68113e-07
4.52246e-07
4.41339e-07
4.33409e-07
4.269e-07
4.19933e-07
4.10149e-07
3.95712e-07
3.75851e-07
3.5148e-07
0.000387572
0.000374137
0.000374729
0.00037583
0.000391625
0.000403581
0.000399694
0.00037419
0.000355646
0.000345424
0.000319323
0.000234391
0.000119285
7.73184e-05
6.85309e-05
6.64097e-05
6.32382e-05
5.94123e-05
5.49878e-05
5.11429e-05
4.9001e-05
4.57899e-05
4.50505e-05
4.65589e-05
4.70901e-05
4.68704e-05
4.55037e-05
4.11093e-05
3.51429e-05
3.25875e-05
3.2229e-05
3.15413e-05
3.0763e-05
3.1331e-05
3.21219e-05
3.18868e-05
3.14834e-05
3.04029e-05
2.6811e-05
2.13436e-05
1.83585e-05
1.23958e-05
2.70289e-06
3.39965e-07
0.000690551
0.000758308
0.000616581
0.000431973
0.000406772
0.000414727
0.000414479
0.000410091
0.000395792
0.000355476
0.000280737
0.000190803
0.000143229
0.000127281
0.000111929
8.10801e-05
7.16746e-05
7.00793e-05
6.65889e-05
6.09526e-05
5.42143e-05
4.86234e-05
4.53995e-05
4.41525e-05
4.39209e-05
4.40576e-05
4.29635e-05
3.96101e-05
3.71399e-05
3.4597e-05
3.1931e-05
2.944e-05
2.72773e-05
2.70405e-05
2.72549e-05
2.95136e-05
3.04593e-05
2.74192e-05
2.18423e-05
2.00489e-05
1.64109e-05
6.62526e-06
1.18965e-06
2.56666e-07
0.000616795
0.000374631
0.000178462
0.000129214
0.000109945
0.000103725
0.000101922
0.000100831
9.86934e-05
9.13142e-05
7.86865e-05
7.58395e-05
7.36229e-05
6.81894e-05
6.22395e-05
4.93638e-05
3.61491e-05
3.0072e-05
2.60095e-05
2.24175e-05
2.0336e-05
1.96394e-05
1.99511e-05
2.08937e-05
2.13022e-05
2.17239e-05
2.1755e-05
2.00847e-05
1.82628e-05
1.83305e-05
1.81748e-05
1.85361e-05
1.98504e-05
1.98912e-05
1.99369e-05
2.18505e-05
2.27733e-05
1.80837e-05
1.19879e-05
1.03531e-05
8.95079e-06
4.83989e-06
1.44487e-06
4.98649e-07
2.75739e-07
8.24982e-05
5.04138e-05
3.67198e-05
3.11301e-05
2.84763e-05
2.77478e-05
2.7657e-05
2.7571e-05
2.65304e-05
2.43174e-05
2.13415e-05
1.99412e-05
1.85271e-05
1.69719e-05
1.57674e-05
1.35016e-05
1.17552e-05
1.06252e-05
9.767e-06
9.23234e-06
9.06152e-06
9.28653e-06
9.78305e-06
1.02804e-05
1.04081e-05
1.02725e-05
9.93289e-06
9.61389e-06
1.01288e-05
1.24638e-05
1.42031e-05
1.55347e-05
1.68722e-05
1.66675e-05
1.68283e-05
1.9965e-05
1.66333e-05
4.46643e-06
2.37882e-06
2.55945e-06
2.0354e-06
1.10033e-06
5.95636e-07
4.11468e-07
3.06847e-07
1.10903e-05
9.73379e-06
9.15284e-06
8.63081e-06
8.37005e-06
8.07259e-06
7.91917e-06
7.62035e-06
7.36753e-06
7.01616e-06
6.85416e-06
6.73383e-06
6.62915e-06
6.44195e-06
6.12327e-06
5.84014e-06
5.63302e-06
5.52827e-06
5.55283e-06
5.73876e-06
6.06087e-06
6.33289e-06
6.17579e-06
5.92282e-06
5.96623e-06
6.21203e-06
6.55938e-06
7.25554e-06
8.42457e-06
9.09617e-06
1.0272e-05
1.29036e-05
1.34818e-05
1.38219e-05
1.50116e-05
1.24126e-05
3.98083e-06
1.11165e-06
8.83383e-07
7.51108e-07
5.99638e-07
5.00847e-07
4.26415e-07
3.4985e-07
6.20838e-06
6.0304e-06
5.82073e-06
5.67782e-06
5.60222e-06
5.46996e-06
5.4127e-06
5.28005e-06
5.20894e-06
5.09885e-06
5.04568e-06
4.97167e-06
4.8952e-06
4.79667e-06
4.69908e-06
4.64755e-06
4.6581e-06
4.77301e-06
4.99838e-06
5.27725e-06
5.41455e-06
5.02699e-06
4.6849e-06
4.43609e-06
3.7385e-06
2.94845e-06
2.92983e-06
3.42149e-06
4.41284e-06
5.54904e-06
7.11463e-06
9.44187e-06
1.0819e-05
1.14334e-05
1.16475e-05
8.8215e-06
2.34838e-06
7.36612e-07
6.03862e-07
5.59719e-07
5.21176e-07
4.81581e-07
4.37316e-07
4.01849e-07
5.58538e-06
5.45043e-06
5.2703e-06
5.18799e-06
5.12861e-06
5.05358e-06
5.02046e-06
4.96418e-06
4.92689e-06
4.86277e-06
4.82151e-06
4.76062e-06
4.70069e-06
4.6435e-06
4.61014e-06
4.604e-06
4.65011e-06
4.76954e-06
4.9866e-06
5.21658e-06
5.30039e-06
5.10916e-06
4.76994e-06
4.02499e-06
2.14458e-06
1.20295e-06
1.11094e-06
1.24666e-06
1.53268e-06
1.98615e-06
2.59016e-06
3.53014e-06
4.75318e-06
5.82205e-06
6.74168e-06
6.46836e-06
3.1856e-06
1.01338e-06
6.12918e-07
5.45275e-07
5.18068e-07
4.92606e-07
4.65395e-07
4.2486e-07
3.9479e-07
5.5304e-06
5.5803e-06
5.30437e-06
5.22905e-06
5.16381e-06
5.0805e-06
5.05558e-06
4.9819e-06
4.94721e-06
4.90332e-06
4.8644e-06
4.82705e-06
4.79556e-06
4.77608e-06
4.77664e-06
4.81462e-06
4.90966e-06
5.06992e-06
5.19789e-06
5.24405e-06
5.15496e-06
4.81126e-06
3.96289e-06
1.91389e-06
9.89566e-07
7.95199e-07
7.57315e-07
7.82866e-07
8.57127e-07
9.95324e-07
1.22214e-06
1.58731e-06
2.08829e-06
2.5517e-06
2.84776e-06
2.34679e-06
1.16326e-06
6.66373e-07
5.47786e-07
5.1e-07
4.89436e-07
4.68856e-07
4.43831e-07
4.02038e-07
3.54524e-07
4.75217e-06
4.96827e-06
4.86345e-06
5.00655e-06
5.00331e-06
5.12367e-06
5.11136e-06
5.17742e-06
5.16946e-06
5.19579e-06
5.20105e-06
5.22918e-06
5.2468e-06
5.30408e-06
5.35275e-06
5.39913e-06
5.42847e-06
5.3331e-06
5.09593e-06
4.73938e-06
4.11719e-06
2.94242e-06
1.54006e-06
8.88124e-07
6.90565e-07
6.31596e-07
6.15457e-07
6.1472e-07
6.27481e-07
6.59137e-07
7.20424e-07
8.2371e-07
9.67586e-07
1.09051e-06
1.15641e-06
9.32616e-07
3.30466e-06
3.34075e-06
3.4149e-06
3.4461e-06
3.58745e-06
3.87442e-06
4.02115e-06
4.245e-06
4.42306e-06
4.69215e-06
4.78804e-06
5.00114e-06
5.07612e-06
5.10425e-06
5.00658e-06
4.75339e-06
4.3633e-06
3.76524e-06
3.05935e-06
2.27269e-06
1.59349e-06
1.07578e-06
7.5585e-07
6.11584e-07
5.5318e-07
5.31524e-07
5.21311e-07
5.16963e-07
5.17389e-07
5.24331e-07
5.39094e-07
5.64589e-07
6.01208e-07
6.24321e-07
6.29034e-07
2.29474e-06
2.1237e-06
2.19009e-06
1.96874e-06
2.0169e-06
2.02227e-06
2.12427e-06
2.10378e-06
2.33922e-06
2.36625e-06
2.46919e-06
2.54388e-06
2.53312e-06
2.49951e-06
2.31901e-06
2.04858e-06
1.71629e-06
1.38172e-06
1.08942e-06
8.6806e-07
7.07346e-07
5.87012e-07
5.08021e-07
4.65e-07
4.44917e-07
4.33268e-07
4.26581e-07
4.23444e-07
4.22452e-07
4.23355e-07
4.26351e-07
4.31178e-07
4.37257e-07
4.41434e-07
4.37801e-07
2.69326e-06
2.48104e-06
2.38234e-06
2.17392e-06
1.9286e-06
1.82126e-06
1.65328e-06
1.55187e-06
1.39076e-06
1.3243e-06
1.17973e-06
1.11134e-06
1.00497e-06
9.20029e-07
8.37767e-07
7.54146e-07
6.869e-07
6.3009e-07
5.86726e-07
5.50133e-07
5.18111e-07
4.89052e-07
4.62524e-07
4.39881e-07
4.22804e-07
4.10847e-07
4.03008e-07
3.9751e-07
3.92998e-07
3.88845e-07
3.84401e-07
3.78883e-07
3.71822e-07
3.63192e-07
3.53059e-07
0.000347582
0.000366972
0.000388254
0.000402966
0.000409028
0.000406395
0.000396182
0.000386455
0.000373402
0.000346379
0.000290316
0.000178517
0.000108529
9.18324e-05
8.86965e-05
8.54503e-05
7.82313e-05
6.93337e-05
6.37661e-05
6.0779e-05
5.75649e-05
5.43772e-05
5.30323e-05
5.05818e-05
4.56249e-05
4.13692e-05
3.67298e-05
3.34658e-05
3.29056e-05
3.3266e-05
3.46219e-05
3.52993e-05
3.56247e-05
3.63387e-05
3.66112e-05
3.67788e-05
3.72388e-05
3.62721e-05
3.08294e-05
2.44986e-05
2.10635e-05
1.38429e-05
2.89043e-06
3.99899e-07
0.000550349
0.000558953
0.000483786
0.000405385
0.00038335
0.000377011
0.000378965
0.000383978
0.000371067
0.000313559
0.000236706
0.000173236
0.000146263
0.000137131
0.000125461
9.98624e-05
8.4304e-05
7.51302e-05
6.88697e-05
6.12985e-05
5.19384e-05
4.53366e-05
4.22943e-05
3.98902e-05
3.8364e-05
3.79644e-05
3.65484e-05
3.39634e-05
3.20122e-05
3.0028e-05
2.88455e-05
2.84075e-05
2.7588e-05
2.73377e-05
2.79884e-05
2.98548e-05
3.24797e-05
3.15146e-05
2.61353e-05
2.39757e-05
1.85968e-05
7.00142e-06
1.28113e-06
3.29645e-07
0.000335751
0.000208575
0.000153453
0.000133762
0.000122741
0.0001171
0.000114503
0.000113343
0.000111553
0.000105653
9.57972e-05
9.17082e-05
8.79439e-05
7.95993e-05
7.14307e-05
5.78387e-05
4.35831e-05
3.51134e-05
2.91268e-05
2.405e-05
2.03449e-05
1.84905e-05
1.79322e-05
1.77938e-05
1.75934e-05
1.75969e-05
1.73373e-05
1.60027e-05
1.50658e-05
1.51125e-05
1.55487e-05
1.6735e-05
1.86198e-05
1.94464e-05
1.98797e-05
2.15088e-05
2.50056e-05
2.39553e-05
1.83762e-05
1.38174e-05
1.08736e-05
5.25355e-06
1.53659e-06
5.21138e-07
3.67025e-07
6.0615e-05
4.83912e-05
4.07768e-05
3.66884e-05
3.4129e-05
3.28487e-05
3.2187e-05
3.19397e-05
3.13053e-05
2.96856e-05
2.69706e-05
2.47544e-05
2.22511e-05
1.99587e-05
1.80568e-05
1.50897e-05
1.24321e-05
1.05356e-05
9.04567e-06
7.89647e-06
7.26981e-06
7.06442e-06
7.1538e-06
7.29203e-06
7.31067e-06
7.25149e-06
7.22446e-06
7.29378e-06
7.83454e-06
9.38091e-06
1.10363e-05
1.2586e-05
1.42732e-05
1.50847e-05
1.58198e-05
1.97829e-05
1.96054e-05
7.8471e-06
3.56423e-06
3.24932e-06
2.35611e-06
1.16525e-06
5.96775e-07
4.12496e-07
4.14338e-07
1.10533e-05
1.01243e-05
9.46249e-06
8.8887e-06
8.48465e-06
8.12883e-06
7.87958e-06
7.60116e-06
7.26825e-06
6.82582e-06
6.5359e-06
6.30579e-06
6.09705e-06
5.78398e-06
5.29863e-06
4.82084e-06
4.40687e-06
4.08504e-06
3.89138e-06
3.81275e-06
3.80219e-06
3.81247e-06
3.71148e-06
3.57086e-06
3.62121e-06
3.9573e-06
4.53711e-06
5.46716e-06
6.77961e-06
8.01334e-06
9.51012e-06
1.17409e-05
1.28786e-05
1.37755e-05
1.53036e-05
1.34868e-05
4.65921e-06
1.27154e-06
9.68602e-07
7.65194e-07
5.75815e-07
4.67322e-07
4.11173e-07
3.97167e-07
5.25725e-06
4.96902e-06
4.75396e-06
4.56252e-06
4.4398e-06
4.29659e-06
4.19681e-06
4.08538e-06
3.97914e-06
3.86351e-06
3.77888e-06
3.69062e-06
3.58674e-06
3.45109e-06
3.29035e-06
3.13967e-06
3.0194e-06
2.95087e-06
2.91737e-06
2.89197e-06
2.82465e-06
2.56858e-06
2.29543e-06
2.18859e-06
2.12978e-06
2.19974e-06
2.53906e-06
3.16686e-06
4.10688e-06
5.27262e-06
6.85607e-06
9.03723e-06
1.0749e-05
1.16868e-05
1.21342e-05
9.1487e-06
2.32844e-06
7.40038e-07
5.72034e-07
5.14171e-07
4.72158e-07
4.37011e-07
4.08863e-07
4.03343e-07
4.13664e-06
4.00109e-06
3.8462e-06
3.72431e-06
3.65187e-06
3.56323e-06
3.50823e-06
3.44548e-06
3.39499e-06
3.32758e-06
3.26256e-06
3.18854e-06
3.10877e-06
3.02278e-06
2.93882e-06
2.86584e-06
2.8149e-06
2.78831e-06
2.77874e-06
2.76097e-06
2.68143e-06
2.4318e-06
2.1031e-06
1.82411e-06
1.30495e-06
1.11835e-06
1.15459e-06
1.3253e-06
1.61101e-06
2.05116e-06
2.68084e-06
3.6922e-06
5.08251e-06
6.34955e-06
7.20638e-06
6.74924e-06
3.34603e-06
1.02292e-06
5.73185e-07
4.90756e-07
4.61417e-07
4.38838e-07
4.18433e-07
3.94075e-07
3.86881e-07
3.61569e-06
3.56772e-06
3.43789e-06
3.3519e-06
3.30777e-06
3.23722e-06
3.20508e-06
3.14863e-06
3.1202e-06
3.07267e-06
3.03057e-06
2.98387e-06
2.93352e-06
2.88183e-06
2.83033e-06
2.78589e-06
2.75019e-06
2.71582e-06
2.65861e-06
2.55034e-06
2.37664e-06
2.14852e-06
1.75485e-06
1.11646e-06
8.34265e-07
7.55229e-07
7.53494e-07
8.04715e-07
9.00094e-07
1.05761e-06
1.30538e-06
1.6966e-06
2.24784e-06
2.76883e-06
3.07226e-06
2.48443e-06
1.19294e-06
6.34749e-07
4.95249e-07
4.53606e-07
4.34284e-07
4.17949e-07
4.0157e-07
3.78803e-07
3.71001e-07
2.93078e-06
2.94455e-06
2.91684e-06
2.90933e-06
2.93265e-06
2.94058e-06
2.93919e-06
2.9494e-06
2.94597e-06
2.93367e-06
2.9229e-06
2.90079e-06
2.86636e-06
2.82958e-06
2.7635e-06
2.68216e-06
2.58273e-06
2.43697e-06
2.28192e-06
2.09829e-06
1.80717e-06
1.36823e-06
9.27327e-07
6.97533e-07
6.02816e-07
5.73336e-07
5.68511e-07
5.81167e-07
6.09667e-07
6.59259e-07
7.38443e-07
8.58223e-07
1.0205e-06
1.14874e-06
1.20934e-06
9.42062e-07
2.17948e-06
2.14366e-06
2.14945e-06
2.09712e-06
2.14665e-06
2.16853e-06
2.18226e-06
2.23317e-06
2.26538e-06
2.30323e-06
2.32611e-06
2.3326e-06
2.31847e-06
2.28654e-06
2.18853e-06
2.06577e-06
1.89654e-06
1.66524e-06
1.40371e-06
1.14166e-06
9.19466e-07
7.29444e-07
5.94259e-07
5.21387e-07
4.88665e-07
4.76046e-07
4.71974e-07
4.73426e-07
4.80696e-07
4.94611e-07
5.16787e-07
5.48272e-07
5.86656e-07
6.09081e-07
6.09746e-07
1.8015e-06
1.63476e-06
1.60188e-06
1.49956e-06
1.47091e-06
1.3981e-06
1.38149e-06
1.36064e-06
1.33672e-06
1.31807e-06
1.31237e-06
1.29749e-06
1.26401e-06
1.22826e-06
1.14884e-06
1.05212e-06
9.35128e-07
8.18428e-07
7.15665e-07
6.32138e-07
5.635e-07
5.05575e-07
4.63354e-07
4.38148e-07
4.25185e-07
4.18932e-07
4.1672e-07
4.17322e-07
4.19556e-07
4.23135e-07
4.27741e-07
4.32769e-07
4.37143e-07
4.39105e-07
4.3462e-07
3.38272e-06
3.00184e-06
2.89731e-06
2.69558e-06
2.40242e-06
2.15502e-06
2.06203e-06
1.8887e-06
1.6408e-06
1.54015e-06
1.43021e-06
1.2667e-06
1.20269e-06
1.06788e-06
1.01589e-06
9.27452e-07
8.78257e-07
8.22187e-07
7.72573e-07
7.24696e-07
6.79851e-07
6.37938e-07
6.00855e-07
5.708e-07
5.48728e-07
5.33803e-07
5.24858e-07
5.19744e-07
5.16525e-07
5.14564e-07
5.12969e-07
5.10648e-07
5.0666e-07
5.00691e-07
4.90217e-07
0.000298699
0.000326718
0.000359848
0.000369196
0.000364732
0.000350052
0.00033694
0.000310042
0.000273899
0.000233558
0.000172978
0.00012113
0.000102822
0.000100648
9.91244e-05
9.40407e-05
8.12667e-05
6.91612e-05
6.29862e-05
5.96971e-05
5.59745e-05
5.34591e-05
5.03452e-05
4.2315e-05
3.20273e-05
2.68002e-05
2.56368e-05
2.64302e-05
2.94361e-05
3.16781e-05
3.34218e-05
3.46798e-05
3.45948e-05
3.36426e-05
3.39487e-05
3.51421e-05
3.73268e-05
3.67806e-05
3.21623e-05
2.66916e-05
2.26956e-05
1.35568e-05
2.61658e-06
4.0037e-07
0.000384847
0.000385028
0.000366029
0.00033854
0.000319666
0.000312396
0.000308885
0.000296701
0.000257887
0.000206614
0.000168661
0.000148569
0.000142639
0.000139896
0.000130048
0.00010377
8.30402e-05
6.93343e-05
6.18304e-05
5.38151e-05
4.45914e-05
3.79628e-05
3.32158e-05
2.93555e-05
2.78234e-05
2.80065e-05
2.77042e-05
2.72725e-05
2.72039e-05
2.70698e-05
2.73103e-05
2.81469e-05
2.79515e-05
2.75266e-05
2.87625e-05
3.12588e-05
3.38456e-05
3.32176e-05
2.96108e-05
2.7612e-05
1.93578e-05
6.50235e-06
1.18906e-06
3.66937e-07
0.000189607
0.000150363
0.000132743
0.000125135
0.000118275
0.00011353
0.000110491
0.000108543
0.000106353
0.000102177
9.70175e-05
9.52895e-05
9.15575e-05
8.24498e-05
7.33702e-05
6.0289e-05
4.61154e-05
3.60848e-05
2.87547e-05
2.28524e-05
1.83157e-05
1.54064e-05
1.40935e-05
1.35288e-05
1.32262e-05
1.3245e-05
1.30061e-05
1.25454e-05
1.25506e-05
1.30491e-05
1.42854e-05
1.58631e-05
1.80334e-05
2.01193e-05
2.15464e-05
2.3552e-05
2.81366e-05
2.79604e-05
2.30132e-05
1.6585e-05
1.19188e-05
4.99857e-06
1.45679e-06
5.30876e-07
4.28911e-07
5.26653e-05
4.60593e-05
4.1472e-05
3.82646e-05
3.59321e-05
3.43885e-05
3.33941e-05
3.29902e-05
3.2593e-05
3.14833e-05
2.92746e-05
2.67307e-05
2.37042e-05
2.11592e-05
1.89491e-05
1.5775e-05
1.26847e-05
1.02014e-05
8.27443e-06
6.8226e-06
5.9554e-06
5.57074e-06
5.48276e-06
5.49724e-06
5.4879e-06
5.52299e-06
5.68556e-06
6.02264e-06
6.67442e-06
7.87646e-06
9.35359e-06
1.09189e-05
1.30313e-05
1.4982e-05
1.6674e-05
2.13604e-05
2.17034e-05
9.8158e-06
4.65055e-06
3.73317e-06
2.45257e-06
1.14837e-06
5.98713e-07
4.28803e-07
4.93091e-07
1.24693e-05
1.14041e-05
1.0524e-05
9.77569e-06
9.17901e-06
8.68208e-06
8.30509e-06
7.97684e-06
7.58787e-06
7.09429e-06
6.6832e-06
6.35202e-06
6.05472e-06
5.62622e-06
5.02046e-06
4.40783e-06
3.86574e-06
3.44087e-06
3.16353e-06
3.01988e-06
2.95219e-06
2.91554e-06
2.88019e-06
2.87323e-06
3.00782e-06
3.33832e-06
3.87811e-06
4.68421e-06
5.79326e-06
7.02637e-06
8.55651e-06
1.08304e-05
1.27966e-05
1.46185e-05
1.65111e-05
1.38643e-05
4.16056e-06
1.36567e-06
1.03635e-06
7.75631e-07
5.73445e-07
4.65291e-07
4.19855e-07
4.47554e-07
5.95252e-06
5.46214e-06
5.09184e-06
4.76913e-06
4.52944e-06
4.31444e-06
4.14434e-06
3.99156e-06
3.83048e-06
3.66954e-06
3.53155e-06
3.3966e-06
3.23271e-06
3.0313e-06
2.80308e-06
2.59203e-06
2.41226e-06
2.27887e-06
2.18427e-06
2.10411e-06
2.01771e-06
1.90809e-06
1.8402e-06
1.82122e-06
1.86342e-06
2.0284e-06
2.33412e-06
2.83686e-06
3.60117e-06
4.64852e-06
6.16254e-06
8.30932e-06
1.03563e-05
1.18352e-05
1.23823e-05
8.28048e-06
1.87454e-06
7.35523e-07
5.71977e-07
5.05702e-07
4.60912e-07
4.27693e-07
4.08241e-07
4.18481e-07
4.27541e-06
4.05218e-06
3.83062e-06
3.63852e-06
3.50282e-06
3.36762e-06
3.2631e-06
3.16089e-06
3.07422e-06
2.97366e-06
2.86938e-06
2.75288e-06
2.6294e-06
2.49995e-06
2.36777e-06
2.24232e-06
2.13161e-06
2.03507e-06
1.94757e-06
1.86072e-06
1.75755e-06
1.62063e-06
1.48574e-06
1.34303e-06
1.18761e-06
1.12568e-06
1.1789e-06
1.32308e-06
1.55798e-06
1.92063e-06
2.46501e-06
3.35928e-06
4.68862e-06
6.01548e-06
6.91094e-06
6.3038e-06
2.8971e-06
9.37812e-07
5.581e-07
4.76167e-07
4.45323e-07
4.23422e-07
4.06133e-07
3.89316e-07
3.93111e-07
3.30402e-06
3.21019e-06
3.07945e-06
2.95735e-06
2.88357e-06
2.79262e-06
2.72563e-06
2.64133e-06
2.57897e-06
2.50096e-06
2.42404e-06
2.34475e-06
2.25769e-06
2.16928e-06
2.07409e-06
1.97782e-06
1.88194e-06
1.7855e-06
1.6865e-06
1.58139e-06
1.46702e-06
1.33855e-06
1.16295e-06
9.2865e-07
7.98061e-07
7.57463e-07
7.69529e-07
8.221e-07
9.13489e-07
1.05824e-06
1.279e-06
1.62075e-06
2.11497e-06
2.60599e-06
2.89274e-06
2.27224e-06
1.09624e-06
6.09463e-07
4.785e-07
4.36619e-07
4.17402e-07
4.02925e-07
3.91197e-07
3.80056e-07
3.9455e-07
2.54943e-06
2.50597e-06
2.44437e-06
2.37214e-06
2.34712e-06
2.30193e-06
2.26283e-06
2.2209e-06
2.18463e-06
2.13486e-06
2.08364e-06
2.02891e-06
1.95899e-06
1.88737e-06
1.79857e-06
1.70302e-06
1.59943e-06
1.48618e-06
1.37754e-06
1.26263e-06
1.12668e-06
9.50401e-07
7.66187e-07
6.43152e-07
5.86689e-07
5.68408e-07
5.68149e-07
5.85192e-07
6.17721e-07
6.70154e-07
7.48901e-07
8.61262e-07
1.0077e-06
1.11351e-06
1.15341e-06
8.91883e-07
2.02325e-06
1.95437e-06
1.91601e-06
1.83194e-06
1.81945e-06
1.77227e-06
1.73127e-06
1.70165e-06
1.67633e-06
1.64006e-06
1.59885e-06
1.56543e-06
1.50185e-06
1.45198e-06
1.3673e-06
1.28413e-06
1.18462e-06
1.07624e-06
9.60179e-07
8.44064e-07
7.35542e-07
6.34681e-07
5.54676e-07
5.05746e-07
4.82205e-07
4.73233e-07
4.71409e-07
4.76411e-07
4.86886e-07
5.03395e-07
5.26808e-07
5.57124e-07
5.90374e-07
6.07505e-07
5.99993e-07
1.89398e-06
1.77977e-06
1.69892e-06
1.58257e-06
1.54429e-06
1.43048e-06
1.37349e-06
1.33606e-06
1.26928e-06
1.21731e-06
1.16452e-06
1.12155e-06
1.04823e-06
1.01043e-06
9.31559e-07
8.70198e-07
7.93813e-07
7.23412e-07
6.58036e-07
6.01641e-07
5.52336e-07
5.09376e-07
4.76092e-07
4.54476e-07
4.43132e-07
4.38213e-07
4.36997e-07
4.39189e-07
4.42719e-07
4.47204e-07
4.52044e-07
4.56344e-07
4.58652e-07
4.59013e-07
4.51896e-07
4.05706e-06
3.60229e-06
3.35658e-06
3.21795e-06
2.93774e-06
2.59941e-06
2.49833e-06
2.32473e-06
2.03792e-06
1.88818e-06
1.77857e-06
1.56763e-06
1.49299e-06
1.31852e-06
1.25065e-06
1.1396e-06
1.06469e-06
9.88182e-07
9.20206e-07
8.57086e-07
7.9958e-07
7.47685e-07
7.03125e-07
6.67644e-07
6.41843e-07
6.24618e-07
6.14791e-07
6.10245e-07
6.08541e-07
6.08579e-07
6.0956e-07
6.10027e-07
6.08483e-07
6.04366e-07
5.92853e-07
0.000248415
0.000271409
0.000291176
0.000288521
0.000268202
0.000231178
0.000198088
0.000168631
0.000147767
0.000130768
0.000113238
0.000104549
0.000104369
0.000105796
0.000103481
9.39825e-05
7.76428e-05
6.48939e-05
5.77958e-05
5.30609e-05
4.89863e-05
4.60708e-05
4.05602e-05
2.81658e-05
1.7248e-05
1.51589e-05
1.59896e-05
1.95267e-05
2.45235e-05
2.61527e-05
2.8127e-05
2.96222e-05
2.85764e-05
2.43602e-05
2.46736e-05
2.82001e-05
3.48407e-05
3.51374e-05
3.2181e-05
2.80696e-05
2.33187e-05
1.1953e-05
2.02492e-06
3.79349e-07
0.000288419
0.000286753
0.000277099
0.000257164
0.000239965
0.000225142
0.000207257
0.000183648
0.000159829
0.000143304
0.000137144
0.000137334
0.000140852
0.000140512
0.000128231
9.94086e-05
7.56334e-05
5.90859e-05
5.0229e-05
4.29101e-05
3.59093e-05
2.9473e-05
2.37703e-05
1.94012e-05
1.81894e-05
1.91065e-05
2.03731e-05
2.19472e-05
2.33975e-05
2.43181e-05
2.56779e-05
2.66515e-05
2.57208e-05
2.46231e-05
2.64755e-05
3.13419e-05
3.46221e-05
3.3903e-05
3.1718e-05
2.98727e-05
1.86312e-05
5.30525e-06
9.95799e-07
3.8597e-07
0.000139558
0.000122282
0.000114083
0.00010932
0.000104514
0.000100562
9.76334e-05
9.59041e-05
9.4962e-05
9.43715e-05
9.37963e-05
9.36972e-05
8.98625e-05
8.0427e-05
7.12184e-05
5.85008e-05
4.43107e-05
3.20707e-05
2.35548e-05
1.81751e-05
1.41963e-05
1.14448e-05
1.00052e-05
9.2861e-06
9.05907e-06
9.21837e-06
9.30512e-06
9.63004e-06
1.01924e-05
1.11229e-05
1.24965e-05
1.40534e-05
1.65102e-05
2.01299e-05
2.29461e-05
2.64638e-05
3.13003e-05
3.11939e-05
2.57327e-05
1.81078e-05
1.20296e-05
4.30829e-06
1.26349e-06
5.23176e-07
4.71527e-07
4.88981e-05
4.40378e-05
4.04652e-05
3.75748e-05
3.52436e-05
3.34938e-05
3.22798e-05
3.17254e-05
3.13682e-05
3.05875e-05
2.88561e-05
2.62799e-05
2.32199e-05
2.07746e-05
1.84453e-05
1.51073e-05
1.15583e-05
8.66258e-06
6.70586e-06
5.38757e-06
4.58224e-06
4.19695e-06
4.07712e-06
4.0807e-06
4.12457e-06
4.23508e-06
4.4843e-06
4.86818e-06
5.4388e-06
6.33236e-06
7.48184e-06
8.88991e-06
1.12628e-05
1.47642e-05
1.83341e-05
2.38651e-05
2.24816e-05
1.00846e-05
5.37396e-06
3.93691e-06
2.37548e-06
1.07321e-06
5.87142e-07
4.43872e-07
5.50243e-07
1.49788e-05
1.34684e-05
1.21946e-05
1.1085e-05
1.01928e-05
9.45778e-06
8.88868e-06
8.4137e-06
7.92052e-06
7.36455e-06
6.85888e-06
6.44178e-06
6.0494e-06
5.4745e-06
4.6841e-06
3.9444e-06
3.34828e-06
2.92151e-06
2.66846e-06
2.54586e-06
2.49426e-06
2.47187e-06
2.46141e-06
2.48745e-06
2.61247e-06
2.87059e-06
3.26637e-06
3.83405e-06
4.61833e-06
5.59541e-06
6.95244e-06
9.23007e-06
1.21476e-05
1.51544e-05
1.70065e-05
1.25568e-05
3.06836e-06
1.4069e-06
1.05337e-06
7.63925e-07
5.65574e-07
4.6492e-07
4.29572e-07
4.8278e-07
7.93997e-06
7.12434e-06
6.47255e-06
5.90336e-06
5.46216e-06
5.08334e-06
4.76203e-06
4.48309e-06
4.19972e-06
3.92502e-06
3.67239e-06
3.4377e-06
3.19682e-06
2.92411e-06
2.61649e-06
2.33932e-06
2.13381e-06
1.98386e-06
1.88513e-06
1.8144e-06
1.75259e-06
1.7016e-06
1.68033e-06
1.67969e-06
1.71286e-06
1.82979e-06
2.04167e-06
2.3851e-06
2.91676e-06
3.70024e-06
4.92024e-06
6.81385e-06
9.03606e-06
1.10406e-05
1.14557e-05
5.6317e-06
1.39757e-06
7.15656e-07
5.68935e-07
5.00038e-07
4.54837e-07
4.24083e-07
4.10122e-07
4.30367e-07
5.47499e-06
5.05585e-06
4.67235e-06
4.3424e-06
4.06177e-06
3.81471e-06
3.60133e-06
3.40217e-06
3.23171e-06
3.05641e-06
2.8854e-06
2.71782e-06
2.54651e-06
2.37376e-06
2.19673e-06
2.02084e-06
1.86851e-06
1.74316e-06
1.63691e-06
1.54553e-06
1.45975e-06
1.37538e-06
1.30147e-06
1.2156e-06
1.13028e-06
1.09449e-06
1.13787e-06
1.24502e-06
1.41843e-06
1.68534e-06
2.09091e-06
2.7427e-06
3.76796e-06
4.9328e-06
5.76329e-06
4.95175e-06
2.02512e-06
8.15172e-07
5.41161e-07
4.67443e-07
4.367e-07
4.15612e-07
4.00977e-07
3.89659e-07
4.00748e-07
3.66055e-06
3.49565e-06
3.30268e-06
3.12397e-06
2.98497e-06
2.84941e-06
2.73424e-06
2.61158e-06
2.51274e-06
2.40146e-06
2.29077e-06
2.18181e-06
2.06349e-06
1.94079e-06
1.81558e-06
1.69278e-06
1.57693e-06
1.4684e-06
1.36722e-06
1.2747e-06
1.18716e-06
1.09785e-06
9.84009e-07
8.49458e-07
7.72381e-07
7.48289e-07
7.61737e-07
8.06208e-07
8.82055e-07
9.99811e-07
1.17561e-06
1.4373e-06
1.80834e-06
2.16917e-06
2.3705e-06
1.77077e-06
9.1985e-07
5.75364e-07
4.66257e-07
4.27164e-07
4.0856e-07
3.95628e-07
3.87597e-07
3.83969e-07
4.11775e-07
2.59774e-06
2.52436e-06
2.43324e-06
2.32302e-06
2.27029e-06
2.19953e-06
2.1368e-06
2.06323e-06
2.0069e-06
1.93392e-06
1.85359e-06
1.77757e-06
1.68688e-06
1.5989e-06
1.50291e-06
1.4056e-06
1.30683e-06
1.20808e-06
1.11507e-06
1.02331e-06
9.24757e-07
8.12826e-07
6.9867e-07
6.18021e-07
5.79257e-07
5.65808e-07
5.67024e-07
5.83462e-07
6.13726e-07
6.60791e-07
7.28771e-07
8.20956e-07
9.33743e-07
1.0033e-06
1.01078e-06
7.91799e-07
2.07793e-06
2.00973e-06
1.93458e-06
1.83031e-06
1.79627e-06
1.73526e-06
1.67429e-06
1.61006e-06
1.57367e-06
1.51286e-06
1.44481e-06
1.3993e-06
1.31849e-06
1.2597e-06
1.1767e-06
1.09845e-06
1.0112e-06
9.22535e-07
8.34175e-07
7.4938e-07
6.70527e-07
5.99054e-07
5.41201e-07
5.03073e-07
4.83761e-07
4.76339e-07
4.75398e-07
4.81433e-07
4.92457e-07
5.08629e-07
5.30147e-07
5.56045e-07
5.80706e-07
5.91835e-07
5.7733e-07
2.05129e-06
1.98883e-06
1.84788e-06
1.7311e-06
1.68394e-06
1.58939e-06
1.49774e-06
1.42044e-06
1.3726e-06
1.28186e-06
1.20003e-06
1.15419e-06
1.05225e-06
1.00829e-06
9.18163e-07
8.57815e-07
7.83455e-07
7.18906e-07
6.59224e-07
6.0761e-07
5.62562e-07
5.23744e-07
4.93176e-07
4.72488e-07
4.6122e-07
4.56332e-07
4.55187e-07
4.57782e-07
4.61664e-07
4.66301e-07
4.70938e-07
4.74043e-07
4.74933e-07
4.73694e-07
4.64896e-07
4.46383e-06