/*--------------------------------*- C++ -*----------------------------------*\
| =========                 |                                                 |
| \\      /  F ield         | OpenFOAM: The Open Source CFD Toolbox           |
|  \\    /   O peration     | Version:  2.3.1                                 |
|   \\  /    A nd           | Web:      www.OpenFOAM.org                      |
|    \\/     M anipulation  |                                                 |
\*---------------------------------------------------------------------------*/
FoamFile
{
    version     2.0;
    format      ascii;
    class       volScalarField;
    location    "20";
    object      epsilon_0;
}
// * * * * * * * * * * * * * * * * * * * * * * * * * * * * * * * * * * * * * //

dimensions      [0 2 -3 0 0 0 0];

internalField   nonuniform List<scalar> 
38152
(
0.000599783
0.000594768
0.000575725
0.000519928
0.000503784
0.000519841
0.000539076
0.000534196
0.000494328
0.000450237
0.00043587
0.00039206
0.000239114
0.000118407
8.29931e-05
7.36926e-05
6.8924e-05
6.51689e-05
6.25233e-05
5.79006e-05
5.444e-05
5.3007e-05
5.21332e-05
5.29255e-05
5.90011e-05
6.39795e-05
6.42305e-05
6.33502e-05
5.97563e-05
5.04361e-05
4.56162e-05
4.37785e-05
4.1082e-05
4.06637e-05
4.14772e-05
4.16619e-05
4.10469e-05
4.12615e-05
4.0259e-05
3.39511e-05
2.79028e-05
1.7004e-05
3.54142e-06
3.87141e-07
0.000857589
0.000784179
0.000618319
0.000385968
0.000310641
0.000309179
0.000324033
0.000326356
0.000302693
0.00025123
0.000190647
0.000145286
0.000118082
0.000109174
9.60767e-05
6.01314e-05
4.68111e-05
4.72138e-05
4.57274e-05
4.41267e-05
4.72187e-05
5.22561e-05
5.65235e-05
5.9373e-05
6.14461e-05
6.1274e-05
5.67856e-05
5.00965e-05
4.92121e-05
4.77502e-05
4.3816e-05
4.01999e-05
4.02168e-05
4.34211e-05
4.328e-05
4.12456e-05
3.20828e-05
2.42751e-05
2.31637e-05
2.01809e-05
1.41296e-05
5.7341e-06
1.13746e-06
2.82679e-07
0.000700825
0.00047477
0.000176746
8.74419e-05
6.88004e-05
6.85512e-05
6.96249e-05
7.01005e-05
6.7985e-05
6.03544e-05
4.72689e-05
4.54818e-05
4.62711e-05
4.45191e-05
4.11262e-05
3.43824e-05
3.02908e-05
2.86906e-05
2.63861e-05
2.49545e-05
2.53495e-05
2.696e-05
2.94489e-05
3.19954e-05
3.3588e-05
3.39058e-05
3.29118e-05
2.90922e-05
2.86873e-05
2.97993e-05
2.99476e-05
3.10203e-05
3.47627e-05
3.64684e-05
3.72184e-05
3.55126e-05
2.45727e-05
8.5093e-06
6.36557e-06
6.76637e-06
5.80544e-06
3.34312e-06
1.38946e-06
6.55529e-07
2.98767e-07
9.532e-05
4.8657e-05
3.3046e-05
2.8305e-05
2.68334e-05
2.6687e-05
2.75209e-05
2.76552e-05
2.59138e-05
2.38947e-05
2.19044e-05
2.10193e-05
2.02032e-05
1.94201e-05
1.87745e-05
1.77524e-05
1.7018e-05
1.64318e-05
1.60712e-05
1.60771e-05
1.65582e-05
1.74319e-05
1.84925e-05
1.92124e-05
1.93124e-05
1.89053e-05
1.81779e-05
1.81908e-05
1.95798e-05
2.32992e-05
2.46595e-05
2.69125e-05
3.15217e-05
3.25674e-05
3.21395e-05
2.90007e-05
1.37769e-05
2.20152e-06
1.81204e-06
2.07847e-06
1.76253e-06
1.23678e-06
8.75803e-07
6.47576e-07
3.18793e-07
2.08956e-05
1.93863e-05
1.81977e-05
1.75305e-05
1.67138e-05
1.63816e-05
1.56633e-05
1.50533e-05
1.45633e-05
1.40208e-05
1.37507e-05
1.34879e-05
1.32798e-05
1.29192e-05
1.24213e-05
1.1928e-05
1.16029e-05
1.14576e-05
1.15264e-05
1.17859e-05
1.21186e-05
1.23897e-05
1.24268e-05
1.20662e-05
1.17639e-05
1.14237e-05
1.11756e-05
1.13451e-05
1.23397e-05
1.34331e-05
1.57809e-05
2.14948e-05
2.33278e-05
2.27008e-05
2.1057e-05
1.39013e-05
3.20119e-06
1.11338e-06
1.08669e-06
1.03189e-06
9.30238e-07
8.23142e-07
6.96429e-07
5.21658e-07
1.81107e-05
1.76026e-05
1.69023e-05
1.62779e-05
1.59822e-05
1.55093e-05
1.50647e-05
1.47135e-05
1.41698e-05
1.37364e-05
1.32635e-05
1.27453e-05
1.22349e-05
1.17067e-05
1.12207e-05
1.0837e-05
1.05566e-05
1.03539e-05
1.02482e-05
1.01847e-05
9.95025e-06
9.66942e-06
9.23446e-06
8.91788e-06
7.13489e-06
4.73953e-06
3.98773e-06
4.1723e-06
4.99123e-06
6.87583e-06
9.49682e-06
1.30767e-05
1.44751e-05
1.45404e-05
1.41616e-05
9.71177e-06
2.20713e-06
9.93927e-07
9.55521e-07
9.33146e-07
8.83142e-07
8.11245e-07
7.04805e-07
5.95593e-07
1.79941e-05
1.73546e-05
1.71305e-05
1.63083e-05
1.59748e-05
1.56302e-05
1.507e-05
1.48377e-05
1.43684e-05
1.39034e-05
1.35464e-05
1.30196e-05
1.25411e-05
1.20135e-05
1.14781e-05
1.09669e-05
1.04798e-05
1.00737e-05
9.76008e-06
9.50781e-06
9.22412e-06
8.77331e-06
8.301e-06
7.45811e-06
4.18544e-06
1.70054e-06
1.27402e-06
1.27924e-06
1.44072e-06
1.82458e-06
2.40755e-06
3.2929e-06
4.4559e-06
5.40047e-06
6.69134e-06
6.8032e-06
3.11271e-06
1.18068e-06
9.32645e-07
9.03632e-07
8.79784e-07
8.39182e-07
7.833e-07
6.84153e-07
5.86741e-07
1.70713e-05
1.62631e-05
1.6148e-05
1.55782e-05
1.53366e-05
1.51716e-05
1.47888e-05
1.47226e-05
1.41532e-05
1.39534e-05
1.34288e-05
1.30011e-05
1.24616e-05
1.18974e-05
1.12821e-05
1.06613e-05
1.00812e-05
9.57313e-06
9.13407e-06
8.69313e-06
8.17519e-06
7.67531e-06
6.69033e-06
3.50032e-06
1.43059e-06
1.19079e-06
1.16808e-06
1.1606e-06
1.17225e-06
1.23231e-06
1.3753e-06
1.65725e-06
2.1029e-06
2.61431e-06
2.97238e-06
2.41033e-06
1.33199e-06
9.73487e-07
8.98969e-07
8.67928e-07
8.38515e-07
7.97364e-07
7.40294e-07
6.41454e-07
4.95965e-07
1.42479e-05
1.30845e-05
1.32481e-05
1.27905e-05
1.28712e-05
1.28601e-05
1.28255e-05
1.28393e-05
1.25988e-05
1.25499e-05
1.21261e-05
1.18674e-05
1.13537e-05
1.08487e-05
1.02211e-05
9.57267e-06
8.93138e-06
8.28192e-06
7.66274e-06
7.08751e-06
6.38821e-06
5.01104e-06
2.68618e-06
1.40897e-06
1.19364e-06
1.16417e-06
1.14471e-06
1.1185e-06
1.09582e-06
1.08595e-06
1.11449e-06
1.18885e-06
1.30251e-06
1.38816e-06
1.41575e-06
1.19048e-06
1.12921e-05
1.02354e-05
1.0117e-05
9.17595e-06
8.88504e-06
8.66681e-06
8.59176e-06
8.58119e-06
8.53401e-06
8.63751e-06
8.55386e-06
8.53139e-06
8.32688e-06
8.08649e-06
7.68955e-06
7.19106e-06
6.56312e-06
5.75328e-06
4.80265e-06
3.76703e-06
2.75347e-06
1.86318e-06
1.34507e-06
1.16749e-06
1.10788e-06
1.07322e-06
1.03975e-06
1.01357e-06
9.97218e-07
9.90139e-07
9.90716e-07
1.0014e-06
1.01569e-06
1.02113e-06
9.88981e-07
8.59393e-06
8.22429e-06
7.85736e-06
7.08483e-06
6.57773e-06
6.39363e-06
5.92746e-06
5.7689e-06
5.42205e-06
5.46772e-06
5.10554e-06
5.11096e-06
4.72425e-06
4.55246e-06
4.16566e-06
3.7146e-06
3.18975e-06
2.62173e-06
2.09761e-06
1.68233e-06
1.37777e-06
1.15986e-06
1.0239e-06
9.38011e-07
8.79354e-07
8.32268e-07
7.9777e-07
7.76453e-07
7.66337e-07
7.63379e-07
7.67678e-07
7.73582e-07
7.76409e-07
7.6799e-07
7.38377e-07
4.73275e-06
4.67688e-06
4.16424e-06
4.02572e-06
3.60367e-06
3.54653e-06
3.20187e-06
3.07576e-06
2.83804e-06
2.78139e-06
2.47685e-06
2.42189e-06
2.10499e-06
1.99073e-06
1.72459e-06
1.5128e-06
1.28796e-06
1.09469e-06
9.35332e-07
8.10075e-07
7.09835e-07
6.29963e-07
5.69367e-07
5.24563e-07
4.91567e-07
4.68139e-07
4.52275e-07
4.41369e-07
4.33439e-07
4.2693e-07
4.1996e-07
4.10173e-07
3.95731e-07
3.75865e-07
3.51491e-07
0.000387887
0.000374558
0.000375122
0.000376256
0.000392116
0.000403935
0.000399945
0.000374249
0.000355804
0.000345525
0.000319215
0.000233638
0.000118828
7.72278e-05
6.85535e-05
6.64468e-05
6.32676e-05
5.9433e-05
5.50044e-05
5.1163e-05
4.90217e-05
4.58121e-05
4.5079e-05
4.65875e-05
4.71151e-05
4.68927e-05
4.5517e-05
4.11029e-05
3.51373e-05
3.25915e-05
3.22357e-05
3.15485e-05
3.07734e-05
3.13445e-05
3.21336e-05
3.1898e-05
3.14927e-05
3.0407e-05
2.67985e-05
2.13347e-05
1.83507e-05
1.23815e-05
2.69503e-06
3.39394e-07
0.000692064
0.000759177
0.000616282
0.000432087
0.00040724
0.00041514
0.000414815
0.000410336
0.000395862
0.000355195
0.00028017
0.000190293
0.000143048
0.000127251
0.000111924
8.10819e-05
7.16982e-05
7.01051e-05
6.66114e-05
6.09715e-05
5.42318e-05
4.86424e-05
4.54206e-05
4.41729e-05
4.394e-05
4.40738e-05
4.29725e-05
3.96128e-05
3.71434e-05
3.46016e-05
3.19376e-05
2.94454e-05
2.72857e-05
2.70501e-05
2.72654e-05
2.95249e-05
3.04636e-05
2.74101e-05
2.1837e-05
2.00462e-05
1.6399e-05
6.6088e-06
1.18617e-06
2.56591e-07
0.000617105
0.000373917
0.000178262
0.000129167
0.000109945
0.000103753
0.000101965
0.000100876
9.87278e-05
9.13353e-05
7.86984e-05
7.58316e-05
7.36127e-05
6.8175e-05
6.22274e-05
4.9346e-05
3.61408e-05
3.00696e-05
2.60086e-05
2.24192e-05
2.03394e-05
1.96445e-05
1.99576e-05
2.09004e-05
2.13087e-05
2.1731e-05
2.17612e-05
2.00875e-05
1.82664e-05
1.8335e-05
1.81796e-05
1.85426e-05
1.98567e-05
1.9897e-05
1.99423e-05
2.18601e-05
2.27778e-05
1.80853e-05
1.19868e-05
1.03528e-05
8.94653e-06
4.83068e-06
1.44166e-06
4.98195e-07
2.7578e-07
8.24229e-05
5.03811e-05
3.67093e-05
3.11284e-05
2.84788e-05
2.77533e-05
2.76658e-05
2.75818e-05
2.6541e-05
2.43266e-05
2.13474e-05
1.99438e-05
1.8525e-05
1.69686e-05
1.57641e-05
1.34985e-05
1.17535e-05
1.06244e-05
9.76704e-06
9.23329e-06
9.06317e-06
9.28889e-06
9.78592e-06
1.02834e-05
1.04109e-05
1.0275e-05
9.93491e-06
9.61603e-06
1.01325e-05
1.24705e-05
1.421e-05
1.55416e-05
1.68777e-05
1.66727e-05
1.68346e-05
1.99745e-05
1.66302e-05
4.46163e-06
2.37932e-06
2.55902e-06
2.03367e-06
1.09885e-06
5.95237e-07
4.11437e-07
3.06899e-07
1.1088e-05
9.73392e-06
9.15344e-06
8.63151e-06
8.37092e-06
8.07371e-06
7.92044e-06
7.62169e-06
7.36889e-06
7.0173e-06
6.85495e-06
6.73421e-06
6.62937e-06
6.44197e-06
6.12333e-06
5.84037e-06
5.63356e-06
5.52905e-06
5.55399e-06
5.7403e-06
6.06281e-06
6.335e-06
6.17763e-06
5.92448e-06
5.96787e-06
6.21357e-06
6.56099e-06
7.25776e-06
8.42721e-06
9.09899e-06
1.02764e-05
1.29088e-05
1.34857e-05
1.38273e-05
1.50166e-05
1.24122e-05
3.97779e-06
1.11138e-06
8.83225e-07
7.50807e-07
5.99465e-07
5.00803e-07
4.26411e-07
3.49873e-07
6.20841e-06
6.03046e-06
5.82108e-06
5.67825e-06
5.60276e-06
5.47058e-06
5.41336e-06
5.28075e-06
5.20968e-06
5.09961e-06
5.04648e-06
4.97246e-06
4.89597e-06
4.79743e-06
4.69996e-06
4.64853e-06
4.65929e-06
4.77445e-06
5.00016e-06
5.27938e-06
5.41679e-06
5.02906e-06
4.68681e-06
4.4374e-06
3.73857e-06
2.94828e-06
2.92995e-06
3.42212e-06
4.41396e-06
5.5508e-06
7.11764e-06
9.44563e-06
1.08224e-05
1.14372e-05
1.16511e-05
8.82062e-06
2.34719e-06
7.36579e-07
6.03862e-07
5.59704e-07
5.21171e-07
4.81588e-07
4.37326e-07
4.01855e-07
5.58577e-06
5.45095e-06
5.2708e-06
5.18851e-06
5.12921e-06
5.05422e-06
5.02114e-06
4.96491e-06
4.92768e-06
4.86361e-06
4.82239e-06
4.76156e-06
4.70166e-06
4.64454e-06
4.61125e-06
4.60521e-06
4.65146e-06
4.77112e-06
4.9885e-06
5.21876e-06
5.3027e-06
5.11148e-06
4.77211e-06
4.02615e-06
2.1443e-06
1.20286e-06
1.11099e-06
1.24678e-06
1.53291e-06
1.98654e-06
2.59084e-06
3.5314e-06
4.75497e-06
5.82437e-06
6.74435e-06
6.46968e-06
3.18485e-06
1.01321e-06
6.12951e-07
5.45309e-07
5.18091e-07
4.92625e-07
4.65417e-07
4.24887e-07
3.94806e-07
5.53105e-06
5.58097e-06
5.30528e-06
5.22991e-06
5.16477e-06
5.08147e-06
5.05657e-06
4.98292e-06
4.94826e-06
4.90443e-06
4.86556e-06
4.82827e-06
4.79686e-06
4.77744e-06
4.77811e-06
4.81625e-06
4.91153e-06
5.07204e-06
5.20013e-06
5.24637e-06
5.15719e-06
4.81316e-06
3.96374e-06
1.91361e-06
9.89514e-07
7.95224e-07
7.57362e-07
7.82936e-07
8.57229e-07
9.95482e-07
1.2224e-06
1.58776e-06
2.08898e-06
2.55255e-06
2.84869e-06
2.34691e-06
1.1631e-06
6.66374e-07
5.4782e-07
5.10033e-07
4.89465e-07
4.68884e-07
4.43861e-07
4.02074e-07
3.54552e-07
4.75199e-06
4.96802e-06
4.86354e-06
5.00696e-06
5.0039e-06
5.12462e-06
5.11248e-06
5.1788e-06
5.17097e-06
5.1975e-06
5.20285e-06
5.23114e-06
5.24892e-06
5.30637e-06
5.35523e-06
5.40164e-06
5.43099e-06
5.33543e-06
5.09793e-06
4.74093e-06
4.11802e-06
2.94237e-06
1.53981e-06
8.88063e-07
6.90577e-07
6.31629e-07
6.155e-07
6.14769e-07
6.27541e-07
6.59213e-07
7.20527e-07
8.23858e-07
9.67796e-07
1.09073e-06
1.15662e-06
9.32611e-07
3.30427e-06
3.34001e-06
3.41437e-06
3.44568e-06
3.58688e-06
3.87402e-06
4.02112e-06
4.24502e-06
4.42333e-06
4.69274e-06
4.78882e-06
5.00223e-06
5.0774e-06
5.10564e-06
5.00808e-06
4.75471e-06
4.36434e-06
3.76589e-06
3.05955e-06
2.27256e-06
1.59327e-06
1.07564e-06
7.55808e-07
6.11591e-07
5.53206e-07
5.31559e-07
5.21349e-07
5.17004e-07
5.17434e-07
5.24379e-07
5.39149e-07
5.64654e-07
6.01281e-07
6.24395e-07
6.29088e-07
2.29465e-06
2.12344e-06
2.18984e-06
1.96854e-06
2.01651e-06
2.02197e-06
2.12399e-06
2.10339e-06
2.33881e-06
2.36596e-06
2.4688e-06
2.5436e-06
2.53291e-06
2.49935e-06
2.31892e-06
2.0485e-06
1.71621e-06
1.38165e-06
1.08934e-06
8.67993e-07
7.07306e-07
5.87002e-07
5.08035e-07
4.65028e-07
4.44951e-07
4.33305e-07
4.2662e-07
4.23485e-07
4.22493e-07
4.23397e-07
4.26393e-07
4.31222e-07
4.373e-07
4.41479e-07
4.3784e-07
2.69364e-06
2.48092e-06
2.38223e-06
2.17408e-06
1.92864e-06
1.82125e-06
1.65331e-06
1.55192e-06
1.39075e-06
1.3243e-06
1.17976e-06
1.1113e-06
1.00501e-06
9.20023e-07
8.37789e-07
7.54169e-07
6.8693e-07
6.30125e-07
5.8676e-07
5.50167e-07
5.18144e-07
4.89083e-07
4.62555e-07
4.39913e-07
4.22838e-07
4.10882e-07
4.03044e-07
3.97547e-07
3.93035e-07
3.88881e-07
3.84436e-07
3.78916e-07
3.71854e-07
3.63223e-07
3.53088e-07
0.00034797
0.000367408
0.000388687
0.000403362
0.000409353
0.000406666
0.000396381
0.000386639
0.000373507
0.000346327
0.000289905
0.000177864
0.000108317
9.18349e-05
8.87386e-05
8.54908e-05
7.82518e-05
6.93496e-05
6.37884e-05
6.0804e-05
5.75886e-05
5.44035e-05
5.30587e-05
5.05996e-05
4.5637e-05
4.13765e-05
3.67304e-05
3.34682e-05
3.29117e-05
3.32752e-05
3.46345e-05
3.5311e-05
3.56382e-05
3.63525e-05
3.66229e-05
3.67897e-05
3.72456e-05
3.62714e-05
3.08091e-05
2.44891e-05
2.10554e-05
1.38251e-05
2.88229e-06
3.99296e-07
0.000551193
0.000559604
0.000483879
0.000405624
0.000383626
0.000377313
0.000379285
0.000384219
0.000371032
0.000313121
0.0002362
0.000172925
0.000146187
0.000137133
0.000125473
9.98703e-05
8.43198e-05
7.51507e-05
6.88909e-05
6.13147e-05
5.1952e-05
4.53534e-05
4.23106e-05
3.9902e-05
3.83753e-05
3.7974e-05
3.65529e-05
3.39666e-05
3.20162e-05
3.00334e-05
2.88532e-05
2.84159e-05
2.7596e-05
2.73476e-05
2.7998e-05
2.98645e-05
3.24845e-05
3.15072e-05
2.61248e-05
2.39724e-05
1.85814e-05
6.9843e-06
1.27743e-06
3.29565e-07
0.000335676
0.000208438
0.000153434
0.000133781
0.000122765
0.000117134
0.000114548
0.000113386
0.00011158
0.000105662
9.58017e-05
9.17116e-05
8.79372e-05
7.95875e-05
7.14185e-05
5.78208e-05
4.35723e-05
3.51081e-05
2.91239e-05
2.40485e-05
2.03453e-05
1.84932e-05
1.79361e-05
1.77977e-05
1.75974e-05
1.76013e-05
1.7341e-05
1.60043e-05
1.50681e-05
1.51156e-05
1.55531e-05
1.67416e-05
1.86269e-05
1.94527e-05
1.9886e-05
2.15184e-05
2.50155e-05
2.39613e-05
1.83724e-05
1.38144e-05
1.08669e-05
5.24271e-06
1.53309e-06
5.20627e-07
3.67082e-07
6.0601e-05
4.83805e-05
4.07736e-05
3.66891e-05
3.4134e-05
3.28568e-05
3.21974e-05
3.19516e-05
3.13166e-05
2.96956e-05
2.69775e-05
2.47564e-05
2.22467e-05
1.99535e-05
1.80517e-05
1.50846e-05
1.24285e-05
1.05333e-05
9.0443e-06
7.89605e-06
7.27017e-06
7.06533e-06
7.15505e-06
7.29329e-06
7.31183e-06
7.25262e-06
7.22555e-06
7.29513e-06
7.837e-06
9.3852e-06
1.10413e-05
1.25916e-05
1.42791e-05
1.50903e-05
1.58267e-05
1.9794e-05
1.96066e-05
7.83984e-06
3.56419e-06
3.24833e-06
2.35375e-06
1.16355e-06
5.96298e-07
4.1245e-07
4.1441e-07
1.10519e-05
1.01238e-05
9.46252e-06
8.88906e-06
8.48537e-06
8.12982e-06
7.88065e-06
7.60224e-06
7.26932e-06
6.82661e-06
6.53618e-06
6.30538e-06
6.09648e-06
5.78321e-06
5.2979e-06
4.82035e-06
4.40664e-06
4.0851e-06
3.89172e-06
3.81327e-06
3.80283e-06
3.81314e-06
3.71197e-06
3.57126e-06
3.62176e-06
3.95808e-06
4.53832e-06
5.46913e-06
6.78224e-06
8.01648e-06
9.51455e-06
1.1746e-05
1.28833e-05
1.37818e-05
1.53091e-05
1.3487e-05
4.65543e-06
1.27117e-06
9.68308e-07
7.64774e-07
5.75586e-07
4.67252e-07
4.11154e-07
3.97181e-07
5.25679e-06
4.96872e-06
4.75388e-06
4.56257e-06
4.43995e-06
4.2968e-06
4.19703e-06
4.08565e-06
3.97944e-06
3.86381e-06
3.77918e-06
3.69085e-06
3.58694e-06
3.45125e-06
3.29055e-06
3.13994e-06
3.01978e-06
2.95137e-06
2.91799e-06
2.89267e-06
2.82538e-06
2.56912e-06
2.29585e-06
2.18899e-06
2.12995e-06
2.19996e-06
2.53949e-06
3.16764e-06
4.10811e-06
5.27451e-06
6.85908e-06
9.04113e-06
1.0753e-05
1.16911e-05
1.21381e-05
9.14746e-06
2.32713e-06
7.39957e-07
5.71998e-07
5.14131e-07
4.72136e-07
4.37009e-07
4.08864e-07
4.03338e-07
4.13656e-06
4.00101e-06
3.84624e-06
3.7244e-06
3.65203e-06
3.56345e-06
3.5085e-06
3.44579e-06
3.39534e-06
3.32796e-06
3.26296e-06
3.18896e-06
3.10919e-06
3.02321e-06
2.93927e-06
2.86633e-06
2.81547e-06
2.78896e-06
2.77948e-06
2.76178e-06
2.68226e-06
2.43251e-06
2.10373e-06
1.82444e-06
1.30496e-06
1.11839e-06
1.1547e-06
1.32547e-06
1.61129e-06
2.05161e-06
2.68161e-06
3.69357e-06
5.0845e-06
6.35201e-06
7.20907e-06
6.75048e-06
3.3451e-06
1.0227e-06
5.73195e-07
4.90778e-07
4.61431e-07
4.3885e-07
4.18449e-07
3.94097e-07
3.86892e-07
3.61578e-06
3.56781e-06
3.43818e-06
3.35218e-06
3.30809e-06
3.2376e-06
3.2055e-06
3.14909e-06
3.12068e-06
3.07319e-06
3.03113e-06
2.98446e-06
2.93413e-06
2.88246e-06
2.83099e-06
2.7866e-06
2.75095e-06
2.71663e-06
2.65945e-06
2.55116e-06
2.37739e-06
2.14918e-06
1.75504e-06
1.11644e-06
8.34276e-07
7.55262e-07
7.53549e-07
8.04791e-07
9.00206e-07
1.05779e-06
1.30566e-06
1.69709e-06
2.24859e-06
2.76975e-06
3.07324e-06
2.48449e-06
1.19273e-06
6.34728e-07
4.95273e-07
4.53633e-07
4.34308e-07
4.17973e-07
4.01597e-07
3.78837e-07
3.71031e-07
2.93063e-06
2.94437e-06
2.91687e-06
2.90939e-06
2.93281e-06
2.94089e-06
2.93957e-06
2.9499e-06
2.94654e-06
2.93433e-06
2.9236e-06
2.90156e-06
2.86717e-06
2.83043e-06
2.76437e-06
2.68301e-06
2.58355e-06
2.43771e-06
2.28256e-06
2.09875e-06
1.80737e-06
1.36819e-06
9.27275e-07
6.97527e-07
6.02835e-07
5.73367e-07
5.68548e-07
5.81212e-07
6.09722e-07
6.59332e-07
7.38545e-07
8.58371e-07
1.02071e-06
1.14897e-06
1.20953e-06
9.42028e-07
2.17931e-06
2.14342e-06
2.14926e-06
2.09694e-06
2.1464e-06
2.16842e-06
2.18218e-06
2.23311e-06
2.26541e-06
2.30333e-06
2.32629e-06
2.33284e-06
2.31876e-06
2.28689e-06
2.18893e-06
2.06613e-06
1.89682e-06
1.6654e-06
1.40374e-06
1.14162e-06
9.19417e-07
7.2941e-07
5.94255e-07
5.21403e-07
4.88691e-07
4.76077e-07
4.72008e-07
4.73463e-07
4.80736e-07
4.94656e-07
5.16837e-07
5.4833e-07
5.8672e-07
6.09149e-07
6.0979e-07
1.8015e-06
1.63462e-06
1.60171e-06
1.49947e-06
1.47085e-06
1.398e-06
1.38135e-06
1.36054e-06
1.33662e-06
1.31797e-06
1.31227e-06
1.29741e-06
1.26395e-06
1.22822e-06
1.14883e-06
1.05211e-06
9.35125e-07
8.18425e-07
7.15661e-07
6.32136e-07
5.63505e-07
5.05589e-07
4.63378e-07
4.38179e-07
4.2522e-07
4.18969e-07
4.16759e-07
4.17362e-07
4.19596e-07
4.23176e-07
4.27781e-07
4.32809e-07
4.37183e-07
4.39147e-07
4.34657e-07
3.38336e-06
3.00176e-06
2.89708e-06
2.69569e-06
2.40269e-06
2.15503e-06
2.06199e-06
1.8889e-06
1.64091e-06
1.54017e-06
1.43032e-06
1.26678e-06
1.20278e-06
1.06795e-06
1.01595e-06
9.27529e-07
8.78313e-07
8.22238e-07
7.72617e-07
7.24736e-07
6.79888e-07
6.37974e-07
6.00892e-07
5.70838e-07
5.48769e-07
5.33847e-07
5.24905e-07
5.19792e-07
5.16573e-07
5.14611e-07
5.13015e-07
5.10692e-07
5.06704e-07
5.00734e-07
4.90254e-07
0.000299004
0.000327141
0.000360208
0.000369465
0.000364947
0.000350228
0.000337071
0.000310035
0.00027383
0.00023335
0.000172614
0.000120932
0.000102808
0.000100692
9.9174e-05
9.4074e-05
8.12729e-05
6.91737e-05
6.30081e-05
5.97199e-05
5.59962e-05
5.34815e-05
5.03594e-05
4.23108e-05
3.20265e-05
2.68044e-05
2.56436e-05
2.64392e-05
2.94485e-05
3.16897e-05
3.34342e-05
3.46913e-05
3.46056e-05
3.36526e-05
3.39589e-05
3.51544e-05
3.73313e-05
3.67785e-05
3.21451e-05
2.66841e-05
2.26873e-05
1.35369e-05
2.60898e-06
3.99877e-07
0.000385308
0.000385466
0.000366263
0.000338712
0.000319839
0.000312592
0.000309045
0.000296678
0.000257615
0.000206325
0.000168468
0.000148507
0.000142654
0.000139934
0.000130072
0.00010377
8.30467e-05
6.93474e-05
6.18464e-05
5.38253e-05
4.45988e-05
3.79698e-05
3.32187e-05
2.93574e-05
2.78288e-05
2.80129e-05
2.77093e-05
2.72787e-05
2.72109e-05
2.70776e-05
2.73191e-05
2.81567e-05
2.79582e-05
2.75365e-05
2.87718e-05
3.12661e-05
3.38474e-05
3.32108e-05
2.96043e-05
2.76082e-05
1.93367e-05
6.48578e-06
1.18581e-06
3.6688e-07
0.000189601
0.000150378
0.000132785
0.000125168
0.000118301
0.00011356
0.000110524
0.000108571
0.000106368
0.000102188
9.70388e-05
9.53136e-05
9.15647e-05
8.2443e-05
7.33595e-05
6.0272e-05
4.61029e-05
3.60775e-05
2.87497e-05
2.28485e-05
1.83135e-05
1.5406e-05
1.40946e-05
1.35303e-05
1.32282e-05
1.32475e-05
1.30081e-05
1.25474e-05
1.2553e-05
1.30527e-05
1.42906e-05
1.58698e-05
1.80413e-05
2.01278e-05
2.15543e-05
2.35619e-05
2.81473e-05
2.79673e-05
2.30082e-05
1.65799e-05
1.19093e-05
4.98723e-06
1.45352e-06
5.30417e-07
4.28981e-07
5.26673e-05
4.60594e-05
4.14728e-05
3.82671e-05
3.59375e-05
3.43966e-05
3.34041e-05
3.30015e-05
3.2604e-05
3.14933e-05
2.92816e-05
2.67317e-05
2.36989e-05
2.11536e-05
1.89433e-05
1.57692e-05
1.26803e-05
1.01983e-05
8.27235e-06
6.82148e-06
5.95514e-06
5.57103e-06
5.48333e-06
5.49784e-06
5.48851e-06
5.52376e-06
5.68655e-06
6.02405e-06
6.67665e-06
7.8798e-06
9.35781e-06
1.0924e-05
1.30377e-05
1.49888e-05
1.66825e-05
2.1373e-05
2.17052e-05
9.80819e-06
4.64991e-06
3.73153e-06
2.44978e-06
1.14672e-06
5.98248e-07
4.28751e-07
4.93174e-07
1.24678e-05
1.14031e-05
1.05235e-05
9.77566e-06
9.17939e-06
8.68273e-06
8.30576e-06
7.97747e-06
7.58848e-06
7.09465e-06
6.68298e-06
6.35119e-06
6.05375e-06
5.62508e-06
5.01938e-06
4.40702e-06
3.86524e-06
3.44067e-06
3.16361e-06
3.02013e-06
2.95253e-06
2.91589e-06
2.88051e-06
2.87358e-06
3.00835e-06
3.33911e-06
3.8793e-06
4.68599e-06
5.79567e-06
7.02936e-06
8.56062e-06
1.08356e-05
1.28024e-05
1.46256e-05
1.65174e-05
1.38629e-05
4.15696e-06
1.36532e-06
1.03593e-06
7.75155e-07
5.73203e-07
4.65206e-07
4.19826e-07
4.47554e-07
5.95146e-06
5.46135e-06
5.0913e-06
4.7688e-06
4.52927e-06
4.31438e-06
4.14431e-06
3.99159e-06
3.83055e-06
3.66961e-06
3.53161e-06
3.3966e-06
3.23266e-06
3.03124e-06
2.80304e-06
2.59206e-06
2.41237e-06
2.27907e-06
2.18453e-06
2.1044e-06
2.01799e-06
1.90833e-06
1.84043e-06
1.82144e-06
1.86365e-06
2.0287e-06
2.33457e-06
2.83758e-06
3.60228e-06
4.65024e-06
6.16529e-06
8.31313e-06
1.03607e-05
1.184e-05
1.2386e-05
8.27825e-06
1.87351e-06
7.35426e-07
5.71916e-07
5.05645e-07
4.60878e-07
4.27681e-07
4.08234e-07
4.18463e-07
4.27478e-06
4.05164e-06
3.83031e-06
3.6383e-06
3.50268e-06
3.36758e-06
3.26313e-06
3.16096e-06
3.07433e-06
2.9738e-06
2.86953e-06
2.75303e-06
2.62955e-06
2.50011e-06
2.36795e-06
2.24252e-06
2.13184e-06
2.03534e-06
1.94787e-06
1.86103e-06
1.75786e-06
1.6209e-06
1.48597e-06
1.34315e-06
1.18768e-06
1.12574e-06
1.17902e-06
1.32326e-06
1.55825e-06
1.92105e-06
2.4657e-06
3.3605e-06
4.69053e-06
6.01791e-06
6.91353e-06
6.30471e-06
2.89614e-06
9.37625e-07
5.58098e-07
4.76178e-07
4.45329e-07
4.23426e-07
4.06143e-07
3.89335e-07
3.93121e-07
3.30379e-06
3.20997e-06
3.0794e-06
2.95731e-06
2.88358e-06
2.79269e-06
2.72572e-06
2.64145e-06
2.57912e-06
2.50115e-06
2.42425e-06
2.34498e-06
2.25793e-06
2.16954e-06
2.07435e-06
1.97808e-06
1.88221e-06
1.78578e-06
1.68678e-06
1.58166e-06
1.46727e-06
1.33875e-06
1.16302e-06
9.28663e-07
7.98085e-07
7.575e-07
7.69585e-07
8.22176e-07
9.13596e-07
1.05841e-06
1.27926e-06
1.62118e-06
2.11565e-06
2.60682e-06
2.8936e-06
2.2722e-06
1.09605e-06
6.09439e-07
4.78518e-07
4.3664e-07
4.17421e-07
4.02944e-07
3.91219e-07
3.80088e-07
3.94578e-07
2.54924e-06
2.50576e-06
2.4443e-06
2.37207e-06
2.34707e-06
2.30197e-06
2.2629e-06
2.22102e-06
2.18479e-06
2.13506e-06
2.08385e-06
2.02915e-06
1.95925e-06
1.88763e-06
1.79883e-06
1.70327e-06
1.59967e-06
1.48639e-06
1.37773e-06
1.26277e-06
1.12675e-06
9.50399e-07
7.66173e-07
6.43158e-07
5.8671e-07
5.68435e-07
5.68184e-07
5.85234e-07
6.17772e-07
6.70221e-07
7.48992e-07
8.61392e-07
1.00789e-06
1.11369e-06
1.15355e-06
8.91835e-07
2.02312e-06
1.95424e-06
1.91595e-06
1.83183e-06
1.81932e-06
1.77223e-06
1.73122e-06
1.70162e-06
1.67632e-06
1.64009e-06
1.59889e-06
1.56549e-06
1.50192e-06
1.45206e-06
1.36741e-06
1.28422e-06
1.1847e-06
1.0763e-06
9.60197e-07
8.4406e-07
7.3553e-07
6.34673e-07
5.54682e-07
5.05764e-07
4.8223e-07
4.73262e-07
4.71441e-07
4.76445e-07
4.86923e-07
5.03435e-07
5.26853e-07
5.57174e-07
5.90427e-07
6.0756e-07
6.00026e-07
1.89392e-06
1.77968e-06
1.69887e-06
1.58248e-06
1.54424e-06
1.43048e-06
1.3734e-06
1.33601e-06
1.26923e-06
1.21727e-06
1.16448e-06
1.12153e-06
1.04822e-06
1.01043e-06
9.31571e-07
8.70205e-07
7.93826e-07
7.23423e-07
6.58047e-07
6.01652e-07
5.5235e-07
5.09395e-07
4.76117e-07
4.54506e-07
4.43165e-07
4.38249e-07
4.37036e-07
4.39228e-07
4.42758e-07
4.47242e-07
4.52081e-07
4.56381e-07
4.58689e-07
4.59051e-07
4.51931e-07
4.05724e-06
3.60253e-06
3.35644e-06
3.21786e-06
2.93804e-06
2.59937e-06
2.4982e-06
2.32483e-06
2.03807e-06
1.88817e-06
1.77865e-06
1.5677e-06
1.49305e-06
1.31859e-06
1.25069e-06
1.13966e-06
1.06474e-06
9.88225e-07
9.20244e-07
8.57122e-07
7.99614e-07
7.47721e-07
7.03163e-07
6.67685e-07
6.41887e-07
6.24666e-07
6.14842e-07
6.10298e-07
6.08594e-07
6.08632e-07
6.09612e-07
6.10077e-07
6.08531e-07
6.04413e-07
5.92894e-07
0.000248637
0.000271704
0.000291372
0.000288648
0.000268205
0.000231136
0.000198025
0.000168571
0.000147717
0.000130699
0.000113176
0.000104555
0.000104418
0.000105855
0.000103527
9.39971e-05
7.76471e-05
6.49053e-05
5.7813e-05
5.30758e-05
4.89996e-05
4.60798e-05
4.05594e-05
2.81519e-05
1.7247e-05
1.51652e-05
1.59976e-05
1.95387e-05
2.45336e-05
2.61604e-05
2.81373e-05
2.96293e-05
2.858e-05
2.43643e-05
2.46827e-05
2.8218e-05
3.48455e-05
3.51345e-05
3.21708e-05
2.80646e-05
2.33099e-05
1.19311e-05
2.01899e-06
3.79001e-07
0.000288686
0.000287025
0.000277241
0.000257235
0.000240016
0.000225157
0.000207208
0.000183542
0.000159717
0.000143253
0.000137156
0.00013738
0.000140918
0.000140571
0.00012825
9.94022e-05
7.56306e-05
5.90908e-05
5.02362e-05
4.29142e-05
3.59105e-05
2.94705e-05
2.37655e-05
1.93998e-05
1.81938e-05
1.91128e-05
2.03798e-05
2.19553e-05
2.34057e-05
2.43264e-05
2.56874e-05
2.66594e-05
2.57256e-05
2.46325e-05
2.64862e-05
3.1352e-05
3.46235e-05
3.38967e-05
3.17172e-05
2.9868e-05
1.86053e-05
5.2905e-06
9.93454e-07
3.85956e-07
0.000139578
0.000122313
0.000114121
0.000109347
0.000104534
0.000100582
9.76557e-05
9.59254e-05
9.49837e-05
9.4401e-05
9.38337e-05
9.37306e-05
8.98739e-05
8.04221e-05
7.12079e-05
5.84837e-05
4.42962e-05
3.20598e-05
2.35484e-05
1.81706e-05
1.41931e-05
1.14435e-05
1.00049e-05
9.2864e-06
9.06038e-06
9.22006e-06
9.30709e-06
9.63227e-06
1.01952e-05
1.11269e-05
1.25017e-05
1.40598e-05
1.65186e-05
2.01397e-05
2.2956e-05
2.64769e-05
3.13115e-05
3.12011e-05
2.57263e-05
1.8101e-05
1.2018e-05
4.298e-06
1.26084e-06
5.22821e-07
4.71592e-07
4.89023e-05
4.40408e-05
4.04678e-05
3.75785e-05
3.52492e-05
3.35014e-05
3.22889e-05
3.17354e-05
3.13779e-05
3.05963e-05
2.88616e-05
2.62796e-05
2.32144e-05
2.07689e-05
1.84392e-05
1.51011e-05
1.15534e-05
8.65938e-06
6.704e-06
5.38654e-06
4.58192e-06
4.19712e-06
4.07753e-06
4.08121e-06
4.12516e-06
4.23586e-06
4.48535e-06
4.86958e-06
5.44078e-06
6.33508e-06
7.48526e-06
8.89429e-06
1.12691e-05
1.47724e-05
1.83454e-05
2.38777e-05
2.2481e-05
1.00779e-05
5.37264e-06
3.93467e-06
2.37249e-06
1.07177e-06
5.8674e-07
4.43819e-07
5.50333e-07
1.49769e-05
1.34671e-05
1.21937e-05
1.10845e-05
1.01927e-05
9.45794e-06
8.88888e-06
8.41386e-06
7.92063e-06
7.36445e-06
6.85832e-06
6.44075e-06
6.04829e-06
5.47324e-06
4.68295e-06
3.9436e-06
3.34784e-06
2.92137e-06
2.66856e-06
2.5461e-06
2.49458e-06
2.47221e-06
2.46174e-06
2.48785e-06
2.61303e-06
2.87135e-06
3.2674e-06
3.83547e-06
4.6202e-06
5.59778e-06
6.95579e-06
9.23492e-06
1.2154e-05
1.5162e-05
1.7012e-05
1.25529e-05
3.06609e-06
1.40649e-06
1.05286e-06
7.63439e-07
5.65342e-07
4.64832e-07
4.29537e-07
4.82769e-07
7.93819e-06
7.12291e-06
6.47148e-06
5.90258e-06
5.46158e-06
5.08292e-06
4.76169e-06
4.48282e-06
4.19952e-06
3.92484e-06
3.67222e-06
3.43753e-06
3.19667e-06
2.92396e-06
2.61637e-06
2.33929e-06
2.13386e-06
1.98398e-06
1.88531e-06
1.8146e-06
1.75279e-06
1.70181e-06
1.68053e-06
1.6799e-06
1.71309e-06
1.83008e-06
2.04206e-06
2.38568e-06
2.91761e-06
3.70152e-06
4.92235e-06
6.81709e-06
9.04029e-06
1.10454e-05
1.14584e-05
5.62861e-06
1.397e-06
7.15553e-07
5.68857e-07
4.99972e-07
4.54796e-07
4.24065e-07
4.10111e-07
4.30343e-07
5.47354e-06
5.05468e-06
4.67147e-06
4.3417e-06
4.06124e-06
3.81432e-06
3.60105e-06
3.40198e-06
3.23159e-06
3.05636e-06
2.88538e-06
2.71783e-06
2.54655e-06
2.37381e-06
2.1968e-06
2.02092e-06
1.86862e-06
1.7433e-06
1.63707e-06
1.5457e-06
1.45991e-06
1.37553e-06
1.30161e-06
1.21568e-06
1.13034e-06
1.09457e-06
1.13799e-06
1.24518e-06
1.41866e-06
1.68568e-06
2.09143e-06
2.74359e-06
3.76945e-06
4.93479e-06
5.76548e-06
4.9519e-06
2.02445e-06
8.15053e-07
5.41154e-07
4.67446e-07
4.367e-07
4.15611e-07
4.00983e-07
3.89675e-07
4.00756e-07
3.65988e-06
3.49506e-06
3.30228e-06
3.12364e-06
2.98472e-06
2.84924e-06
2.73415e-06
2.61153e-06
2.51273e-06
2.4015e-06
2.29083e-06
2.1819e-06
2.06358e-06
1.94089e-06
1.81568e-06
1.69289e-06
1.57706e-06
1.46852e-06
1.36735e-06
1.27483e-06
1.18728e-06
1.09795e-06
9.84046e-07
8.49471e-07
7.72407e-07
7.48325e-07
7.61788e-07
8.06276e-07
8.82148e-07
9.99945e-07
1.17581e-06
1.43763e-06
1.80885e-06
2.16976e-06
2.37107e-06
1.77062e-06
9.19722e-07
5.75347e-07
4.66271e-07
4.2718e-07
4.08574e-07
3.95642e-07
3.87616e-07
3.83997e-07
4.11803e-07
2.59744e-06
2.52407e-06
2.43309e-06
2.32287e-06
2.27015e-06
2.19947e-06
2.13677e-06
2.06323e-06
2.00692e-06
1.93398e-06
1.85364e-06
1.77765e-06
1.68697e-06
1.59899e-06
1.50301e-06
1.4057e-06
1.30692e-06
1.20817e-06
1.11515e-06
1.02337e-06
9.24785e-07
8.12824e-07
6.98663e-07
6.1803e-07
5.79276e-07
5.65832e-07
5.67055e-07
5.83499e-07
6.13771e-07
6.60847e-07
7.28846e-07
8.21056e-07
9.33871e-07
1.00344e-06
1.01086e-06
7.91755e-07
2.07775e-06
2.0096e-06
1.93455e-06
1.83022e-06
1.79616e-06
1.73522e-06
1.67426e-06
1.61002e-06
1.57364e-06
1.51287e-06
1.44481e-06
1.39932e-06
1.31852e-06
1.25973e-06
1.17674e-06
1.09848e-06
1.01123e-06
9.22552e-07
8.3418e-07
7.49377e-07
6.70522e-07
5.99054e-07
5.41209e-07
5.0309e-07
4.83783e-07
4.76366e-07
4.75427e-07
4.81465e-07
4.92491e-07
5.08665e-07
5.30185e-07
5.56085e-07
5.80747e-07
5.91877e-07
5.77353e-07
2.05113e-06
1.98876e-06
1.8479e-06
1.73102e-06
1.68386e-06
1.58937e-06
1.4977e-06
1.42037e-06
1.37254e-06
1.28185e-06
1.19999e-06
1.15417e-06
1.05224e-06
1.00828e-06
9.1817e-07
8.57816e-07
7.83464e-07
7.18914e-07
6.59235e-07
6.07622e-07
5.62577e-07
5.23763e-07
4.932e-07
4.72516e-07
4.61252e-07
4.56367e-07
4.55223e-07
4.57819e-07
4.61701e-07
4.66336e-07
4.70972e-07
4.74076e-07
4.74966e-07
4.73728e-07
4.64927e-07