/*--------------------------------*- C++ -*----------------------------------*\
| =========                 |                                                 |
| \\      /  F ield         | OpenFOAM: The Open Source CFD Toolbox           |
|  \\    /   O peration     | Version:  2.3.1                                 |
|   \\  /    A nd           | Web:      www.OpenFOAM.org                      |
|    \\/     M anipulation  |                                                 |
\*---------------------------------------------------------------------------*/
FoamFile
{
    version     2.0;
    format      ascii;
    class       volScalarField;
    location    "20";
    object      k;
}
// * * * * * * * * * * * * * * * * * * * * * * * * * * * * * * * * * * * * * //

dimensions      [0 2 -2 0 0 0 0];

internalField   nonuniform List<scalar> 
38152
(
0.000413117
0.000410833
0.000402142
0.000375803
0.000367702
0.000375379
0.000384826
0.000382615
0.00036374
0.000341581
0.000334328
0.000312032
0.000225652
0.000140981
0.000110852
0.000102264
9.77745e-05
9.41794e-05
9.16167e-05
8.70468e-05
8.35328e-05
8.20528e-05
8.11404e-05
8.19448e-05
8.80794e-05
9.30043e-05
9.32611e-05
9.24211e-05
8.89356e-05
7.9462e-05
7.42806e-05
7.22691e-05
6.92606e-05
6.87768e-05
6.9685e-05
6.98935e-05
6.92017e-05
6.94441e-05
6.83398e-05
6.10501e-05
5.35707e-05
3.85492e-05
1.35722e-05
3.54476e-06
0.000524569
0.000494289
0.000422683
0.000308789
0.000266723
0.000265755
0.000274243
0.000275621
0.000262372
0.000232051
0.00019314
0.000161043
0.000140209
0.00013291
0.000122028
8.93341e-05
7.55421e-05
7.59632e-05
7.43639e-05
7.26144e-05
7.59595e-05
8.1269e-05
8.56394e-05
8.85053e-05
9.05658e-05
9.0405e-05
8.59608e-05
7.90658e-05
7.81251e-05
7.6566e-05
7.23019e-05
6.82587e-05
6.82679e-05
7.18416e-05
7.16933e-05
6.94441e-05
5.87682e-05
4.87695e-05
4.72762e-05
4.31512e-05
3.40515e-05
1.86959e-05
6.3612e-06
3.10531e-06
0.000458677
0.000354864
0.000183915
0.000114821
9.76965e-05
9.74178e-05
9.84168e-05
9.88612e-05
9.68664e-05
8.94775e-05
7.60431e-05
7.41375e-05
7.50077e-05
7.30969e-05
6.93412e-05
6.15337e-05
5.65332e-05
5.45252e-05
5.15641e-05
4.96759e-05
5.01933e-05
5.22932e-05
5.54618e-05
5.86161e-05
6.05489e-05
6.09337e-05
5.97429e-05
5.50295e-05
5.45081e-05
5.59043e-05
5.60897e-05
5.74167e-05
6.19465e-05
6.39643e-05
6.48466e-05
6.28581e-05
4.9209e-05
2.42623e-05
1.99805e-05
2.08146e-05
1.88114e-05
1.30324e-05
7.25972e-06
4.39413e-06
3.22034e-06
0.00012167
7.76611e-05
5.99418e-05
5.40465e-05
5.21518e-05
5.1958e-05
5.30283e-05
5.3197e-05
5.09391e-05
4.82607e-05
4.55463e-05
4.43152e-05
4.31623e-05
4.20388e-05
4.11017e-05
3.95952e-05
3.84945e-05
3.76034e-05
3.70487e-05
3.70543e-05
3.77871e-05
3.91029e-05
4.06724e-05
4.17221e-05
4.18678e-05
4.12787e-05
4.02138e-05
4.0231e-05
4.22468e-05
4.7439e-05
4.92705e-05
5.22268e-05
5.8037e-05
5.93171e-05
5.87976e-05
5.49168e-05
3.34785e-05
9.85567e-06
8.64479e-06
9.47792e-06
8.4963e-06
6.7099e-06
5.32871e-06
4.35618e-06
3.36255e-06
4.41436e-05
4.19852e-05
4.02502e-05
3.92606e-05
3.80326e-05
3.7527e-05
3.6421e-05
3.54697e-05
3.46951e-05
3.38278e-05
3.33916e-05
3.29646e-05
3.2625e-05
3.20323e-05
3.1204e-05
3.03718e-05
2.9816e-05
2.95654e-05
2.96821e-05
3.01242e-05
3.0687e-05
3.11421e-05
3.12046e-05
3.05994e-05
3.00871e-05
2.95063e-05
2.90779e-05
2.93698e-05
3.10593e-05
3.28675e-05
3.65897e-05
4.49585e-05
4.74879e-05
4.66344e-05
4.43582e-05
3.36529e-05
1.26488e-05
6.24985e-06
6.15034e-06
5.94275e-06
5.54559e-06
5.11093e-06
4.5718e-06
3.77081e-06
4.01265e-05
3.93719e-05
3.83178e-05
3.73687e-05
3.69146e-05
3.61818e-05
3.54872e-05
3.49329e-05
3.40666e-05
3.33685e-05
3.25978e-05
3.17427e-05
3.0889e-05
2.9993e-05
2.91566e-05
2.84875e-05
2.79934e-05
2.76328e-05
2.74433e-05
2.73285e-05
2.69063e-05
2.63973e-05
2.55995e-05
2.50128e-05
2.15641e-05
1.64202e-05
1.46327e-05
1.50791e-05
1.699e-05
2.1031e-05
2.60804e-05
3.22817e-05
3.45481e-05
3.46495e-05
3.40459e-05
2.64932e-05
9.86852e-06
5.79413e-06
5.64429e-06
5.55623e-06
5.35604e-06
5.06125e-06
4.60818e-06
4.11893e-06
3.99531e-05
3.90023e-05
3.8664e-05
3.74149e-05
3.69037e-05
3.63693e-05
3.54951e-05
3.5129e-05
3.43833e-05
3.36376e-05
3.30589e-05
3.21954e-05
3.14013e-05
3.0514e-05
2.96001e-05
2.87143e-05
2.78572e-05
2.7132e-05
2.65648e-05
2.61039e-05
2.55809e-05
2.47394e-05
2.38428e-05
2.22027e-05
1.51138e-05
8.29246e-06
6.83828e-06
6.8561e-06
7.42115e-06
8.68636e-06
1.04491e-05
1.28735e-05
1.57492e-05
1.7901e-05
2.06478e-05
2.08847e-05
1.2408e-05
6.50005e-06
5.55362e-06
5.43807e-06
5.34216e-06
5.17658e-06
4.94415e-06
4.51755e-06
4.0779e-06
3.85792e-05
3.73515e-05
3.71744e-05
3.6292e-05
3.59157e-05
3.56564e-05
3.50537e-05
3.49481e-05
3.40403e-05
3.3719e-05
3.28673e-05
3.21652e-05
3.12685e-05
3.0317e-05
2.92622e-05
2.81781e-05
2.71459e-05
2.62253e-05
2.54163e-05
2.45908e-05
2.3603e-05
2.26303e-05
2.06522e-05
1.34164e-05
7.38827e-06
6.53647e-06
6.45292e-06
6.42523e-06
6.4679e-06
6.68662e-06
7.19376e-06
8.14532e-06
9.54619e-06
1.10372e-05
1.2024e-05
1.04599e-05
7.04456e-06
5.71485e-06
5.4193e-06
5.29394e-06
5.17374e-06
5.00306e-06
4.76142e-06
4.32752e-06
3.6457e-06
3.42016e-05
3.23144e-05
3.25842e-05
3.18277e-05
3.1961e-05
3.19405e-05
3.18818e-05
3.19031e-05
3.15022e-05
3.14198e-05
3.07071e-05
3.02685e-05
2.93877e-05
2.8509e-05
2.73978e-05
2.62257e-05
2.50403e-05
2.38106e-05
2.26079e-05
2.14615e-05
2.00265e-05
1.70372e-05
1.12463e-05
7.3134e-06
6.54694e-06
6.43862e-06
6.36659e-06
6.26898e-06
6.18386e-06
6.14658e-06
6.25361e-06
6.52857e-06
6.93819e-06
7.23917e-06
7.33524e-06
6.53576e-06
2.92871e-05
2.74337e-05
2.72216e-05
2.55048e-05
2.49643e-05
2.45537e-05
2.4412e-05
2.43913e-05
2.43017e-05
2.44966e-05
2.43372e-05
2.42937e-05
2.39024e-05
2.34389e-05
2.26639e-05
2.16728e-05
2.03917e-05
1.86779e-05
1.656e-05
1.40862e-05
1.1432e-05
8.81135e-06
7.09032e-06
6.45117e-06
6.22951e-06
6.09887e-06
5.97132e-06
5.87056e-06
5.80717e-06
5.77961e-06
5.78181e-06
5.8233e-06
5.87858e-06
5.89966e-06
5.77538e-06
2.44132e-05
2.37119e-05
2.29985e-05
2.14627e-05
2.04285e-05
2.00457e-05
1.90586e-05
1.87169e-05
1.79599e-05
1.80602e-05
1.72534e-05
1.72656e-05
1.63826e-05
1.59829e-05
1.50638e-05
1.39556e-05
1.26081e-05
1.10632e-05
9.53502e-06
8.23107e-06
7.20492e-06
6.42335e-06
5.91083e-06
5.57536e-06
5.34037e-06
5.14791e-06
5.00457e-06
4.91494e-06
4.8721e-06
4.85952e-06
4.87773e-06
4.90274e-06
4.91472e-06
4.87923e-06
4.75312e-06
1.64024e-05
1.62746e-05
1.50609e-05
1.47247e-05
1.36775e-05
1.3533e-05
1.26407e-05
1.23068e-05
1.16647e-05
1.15087e-05
1.06526e-05
1.04946e-05
9.55771e-06
9.20886e-06
8.36822e-06
7.66834e-06
6.88825e-06
6.18061e-06
5.56516e-06
5.05644e-06
4.63011e-06
4.27583e-06
3.99696e-06
3.78438e-06
3.62392e-06
3.50778e-06
3.42804e-06
3.37268e-06
3.33216e-06
3.29871e-06
3.26274e-06
3.21188e-06
3.13608e-06
3.03027e-06
2.89783e-06
0.000490693
0.000479173
0.000479707
0.000480616
0.000493944
0.000504088
0.000500938
0.000479563
0.000463488
0.000454613
0.000431614
0.000351964
0.000224461
0.000167781
0.00015464
0.000151406
0.000146557
0.000140596
0.000133531
0.000127223
0.000123643
0.000118175
0.000116887
0.000119483
0.000120398
0.000120028
0.000117699
0.000110031
9.91088e-05
9.42245e-05
9.35262e-05
9.21897e-05
9.06594e-05
9.17657e-05
9.33083e-05
9.28531e-05
9.20722e-05
8.99642e-05
8.27682e-05
7.10911e-05
6.42984e-05
4.95138e-05
1.7961e-05
4.65688e-06
0.000800817
0.000781955
0.000611904
0.000552717
0.000614045
0.000671414
0.000676466
0.000669542
0.00064288
0.000581397
0.000477195
0.000357814
0.000308331
0.000291631
0.000251951
0.000185653
0.000183607
0.000194112
0.000192497
0.000185904
0.00017111
0.000155832
0.000146869
0.000144523
0.000145005
0.00014503
0.000141996
0.000137523
0.0001347
0.000129896
0.000119818
0.00011164
0.000112382
0.000115715
0.000112803
0.00010747
0.000104631
8.61816e-05
7.01645e-05
6.9623e-05
6.26451e-05
3.17873e-05
9.68015e-06
3.99439e-06
0.000594958
0.00040104
0.000300734
0.000286565
0.000275163
0.000272273
0.000271507
0.000268404
0.000260373
0.000240569
0.000212345
0.000207918
0.000208123
0.000201278
0.000189393
0.000161485
0.000136482
0.000124841
0.000114504
0.00010394
9.73005e-05
9.46081e-05
9.50153e-05
9.66066e-05
9.67422e-05
9.61689e-05
9.46793e-05
8.98575e-05
8.81569e-05
8.90339e-05
8.95759e-05
9.30045e-05
9.94409e-05
0.000101224
0.000100156
9.18302e-05
8.07569e-05
7.15923e-05
5.66047e-05
4.62114e-05
3.99478e-05
2.55974e-05
1.11964e-05
6.81068e-06
4.18851e-06
0.000186911
0.000163165
0.000138738
0.000126429
0.000118629
0.000117166
0.000117155
0.000117565
0.000114087
0.000106848
9.73758e-05
9.23804e-05
8.75182e-05
8.2873e-05
7.93817e-05
7.36447e-05
6.90664e-05
6.53953e-05
6.20888e-05
5.98218e-05
5.89376e-05
5.95251e-05
6.08327e-05
6.16786e-05
6.11274e-05
5.97919e-05
5.8664e-05
5.85831e-05
6.12101e-05
6.94256e-05
7.64576e-05
8.3653e-05
9.01167e-05
9.02962e-05
8.71716e-05
8.19672e-05
6.52467e-05
2.3261e-05
1.53059e-05
1.59104e-05
1.40204e-05
1.0591e-05
8.44586e-06
6.88941e-06
4.49782e-06
6.64298e-05
6.28647e-05
5.97492e-05
5.76066e-05
5.63094e-05
5.50522e-05
5.44206e-05
5.27405e-05
5.18515e-05
5.05154e-05
4.9952e-05
4.96474e-05
4.94991e-05
4.90462e-05
4.79411e-05
4.65166e-05
4.50724e-05
4.40411e-05
4.36057e-05
4.36902e-05
4.37572e-05
4.34452e-05
4.12194e-05
3.85308e-05
3.68517e-05
3.73282e-05
3.89192e-05
4.2167e-05
4.8748e-05
5.63038e-05
6.40823e-05
7.42548e-05
7.70743e-05
7.47205e-05
6.75023e-05
4.99294e-05
1.93891e-05
9.6533e-06
9.61577e-06
9.69374e-06
9.3417e-06
8.67114e-06
7.79727e-06
5.77158e-06
5.06002e-05
5.00075e-05
4.89469e-05
4.84703e-05
4.822e-05
4.76983e-05
4.74364e-05
4.67236e-05
4.63136e-05
4.56545e-05
4.52203e-05
4.47086e-05
4.41206e-05
4.3286e-05
4.21983e-05
4.10656e-05
4.0103e-05
3.94095e-05
3.88415e-05
3.80711e-05
3.61173e-05
3.23598e-05
2.72878e-05
2.2005e-05
1.96124e-05
1.88055e-05
2.09983e-05
2.65319e-05
3.39527e-05
4.10355e-05
4.85901e-05
5.84652e-05
6.42076e-05
6.23409e-05
5.58676e-05
3.82506e-05
1.36415e-05
9.13619e-06
9.3606e-06
9.56234e-06
9.48793e-06
9.12359e-06
8.50045e-06
7.58983e-06
4.78365e-05
4.68061e-05
4.60934e-05
4.59402e-05
4.55499e-05
4.55105e-05
4.54309e-05
4.53943e-05
4.53602e-05
4.51183e-05
4.48665e-05
4.43828e-05
4.37221e-05
4.28909e-05
4.18327e-05
4.07017e-05
3.95501e-05
3.84381e-05
3.72805e-05
3.58036e-05
3.36745e-05
2.98575e-05
2.43693e-05
1.7937e-05
1.38496e-05
1.21458e-05
1.34608e-05
1.48895e-05
1.67644e-05
1.93966e-05
2.26213e-05
2.75937e-05
3.35902e-05
3.83098e-05
3.9865e-05
3.48016e-05
1.78277e-05
1.03132e-05
9.5273e-06
9.65642e-06
9.72471e-06
9.58118e-06
9.20528e-06
8.53541e-06
7.76364e-06
4.71548e-05
4.69277e-05
4.55462e-05
4.51973e-05
4.47377e-05
4.45058e-05
4.43061e-05
4.4129e-05
4.3931e-05
4.3517e-05
4.32056e-05
4.25788e-05
4.1853e-05
4.08739e-05
3.96551e-05
3.82326e-05
3.66275e-05
3.48785e-05
3.30008e-05
3.0594e-05
2.68485e-05
2.23084e-05
1.77207e-05
1.37541e-05
1.2557e-05
1.26453e-05
1.25584e-05
1.24735e-05
1.24713e-05
1.27437e-05
1.34358e-05
1.49262e-05
1.72276e-05
1.88951e-05
1.95315e-05
1.60693e-05
1.14351e-05
1.01064e-05
9.83422e-06
9.78402e-06
9.71311e-06
9.49396e-06
9.05689e-06
8.2363e-06
6.90669e-06
4.24681e-05
4.25599e-05
4.12186e-05
4.1361e-05
4.04862e-05
4.06844e-05
4.00656e-05
4.01406e-05
3.96549e-05
3.93095e-05
3.88975e-05
3.82783e-05
3.73778e-05
3.63756e-05
3.48867e-05
3.31912e-05
3.13051e-05
2.86425e-05
2.49837e-05
2.13293e-05
1.83014e-05
1.53028e-05
1.27178e-05
1.2051e-05
1.19872e-05
1.19098e-05
1.17503e-05
1.15329e-05
1.12612e-05
1.09563e-05
1.07961e-05
1.08106e-05
1.11653e-05
1.16456e-05
1.19554e-05
1.11958e-05
3.29091e-05
3.22809e-05
3.16761e-05
3.15251e-05
3.0582e-05
3.05432e-05
2.99716e-05
2.98356e-05
2.95991e-05
2.93125e-05
2.91059e-05
2.8699e-05
2.80149e-05
2.71449e-05
2.49287e-05
2.26392e-05
2.01334e-05
1.7476e-05
1.55371e-05
1.36389e-05
1.21953e-05
1.14447e-05
1.11025e-05
1.08997e-05
1.07102e-05
1.05127e-05
1.03392e-05
1.01879e-05
1.00609e-05
9.95784e-06
9.88479e-06
9.84854e-06
9.8751e-06
9.94996e-06
9.9946e-06
2.27089e-05
2.05488e-05
2.03246e-05
1.9608e-05
1.85503e-05
1.7811e-05
1.7582e-05
1.6684e-05
1.66001e-05
1.58666e-05
1.58574e-05
1.51603e-05
1.4941e-05
1.41124e-05
1.35192e-05
1.2563e-05
1.16875e-05
1.08028e-05
1.00926e-05
9.64005e-06
9.37417e-06
9.1378e-06
8.87158e-06
8.60166e-06
8.35598e-06
8.16406e-06
8.01633e-06
7.91593e-06
7.86534e-06
7.85116e-06
7.88448e-06
7.9559e-06
8.04759e-06
8.09788e-06
8.09793e-06
1.78776e-05
1.6928e-05
1.64761e-05
1.54991e-05
1.43106e-05
1.37748e-05
1.29141e-05
1.23803e-05
1.15082e-05
1.11385e-05
1.03122e-05
9.91014e-06
9.26679e-06
8.73721e-06
8.2081e-06
7.65238e-06
7.19037e-06
6.78818e-06
6.47302e-06
6.20099e-06
5.95797e-06
5.73305e-06
5.5238e-06
5.34199e-06
5.2028e-06
5.10422e-06
5.03905e-06
4.99312e-06
4.95526e-06
4.92029e-06
4.88274e-06
4.83591e-06
4.77565e-06
4.70146e-06
4.61362e-06
0.000456227
0.000473014
0.000491156
0.000503536
0.000508643
0.000506508
0.000498046
0.00048987
0.000478846
0.000455602
0.000405387
0.000293635
0.000210462
0.000188001
0.000183634
0.000179126
0.000168916
0.000155857
0.000147384
0.000142738
0.00013766
0.000132523
0.000130327
0.000126295
0.00011791
0.000110466
0.000102057
9.59136e-05
9.48326e-05
9.55168e-05
9.80888e-05
9.93663e-05
9.99725e-05
0.000101304
0.000101814
0.000102126
0.000102985
0.00010121
9.08569e-05
7.79331e-05
7.04662e-05
5.3301e-05
1.87812e-05
5.18861e-06
0.000765451
0.000705003
0.000659724
0.000683226
0.000714606
0.000721536
0.000721968
0.000719152
0.000688313
0.000600749
0.000485846
0.000401952
0.000375239
0.000361617
0.000321679
0.000257309
0.000240551
0.000232213
0.000222176
0.000205618
0.000180747
0.000159651
0.00014837
0.000143632
0.000143541
0.000145061
0.000144623
0.000143717
0.000142083
0.000138421
0.00013451
0.000133107
0.000131576
0.000130202
0.000131515
0.000132482
0.000134195
0.000125487
0.000104421
9.55583e-05
7.13031e-05
3.34302e-05
1.14976e-05
4.71938e-06
0.000474858
0.000388186
0.000367074
0.000367787
0.000358098
0.000351224
0.000346593
0.00034296
0.000336238
0.000319355
0.000294198
0.000284986
0.000279233
0.000261127
0.000238018
0.000201325
0.000168987
0.000149391
0.000132945
0.000117762
0.000106192
9.99802e-05
9.84818e-05
9.8811e-05
9.83261e-05
9.71106e-05
9.55101e-05
9.31812e-05
9.28645e-05
9.38897e-05
9.66088e-05
0.00010255
0.000109392
0.000113835
0.000117091
0.000116758
0.00011513
0.000109065
8.76713e-05
6.59406e-05
5.11023e-05
2.93945e-05
1.4162e-05
9.23556e-06
5.06823e-06
0.000218412
0.000199911
0.000181085
0.00016867
0.000159189
0.000154563
0.000151849
0.000150666
0.00014696
0.000139886
0.000129574
0.00012119
0.000111666
0.000102808
9.56017e-05
8.62563e-05
7.82655e-05
7.19351e-05
6.66012e-05
6.22807e-05
5.96953e-05
5.86516e-05
5.86875e-05
5.87854e-05
5.82651e-05
5.78675e-05
5.83357e-05
5.96716e-05
6.30828e-05
7.07945e-05
7.92924e-05
8.74718e-05
9.45738e-05
9.9635e-05
0.000100958
0.000104669
9.69105e-05
4.4026e-05
2.39537e-05
2.20149e-05
1.84776e-05
1.41377e-05
1.16108e-05
9.34705e-06
5.49485e-06
8.54749e-05
8.12289e-05
7.68699e-05
7.35427e-05
7.08379e-05
6.84964e-05
6.66831e-05
6.43695e-05
6.23395e-05
5.98626e-05
5.81629e-05
5.67741e-05
5.56511e-05
5.43218e-05
5.23289e-05
4.99335e-05
4.73916e-05
4.51493e-05
4.32408e-05
4.1642e-05
4.01479e-05
3.86385e-05
3.67404e-05
3.48201e-05
3.4569e-05
3.69435e-05
4.08732e-05
4.6412e-05
5.44273e-05
6.25905e-05
7.08245e-05
8.10681e-05
8.79483e-05
8.90733e-05
8.72972e-05
7.27414e-05
2.85462e-05
1.42001e-05
1.36335e-05
1.34669e-05
1.28653e-05
1.17716e-05
1.03893e-05
7.49049e-06
6.20647e-05
6.00342e-05
5.81348e-05
5.66665e-05
5.56587e-05
5.45958e-05
5.37872e-05
5.28349e-05
5.19307e-05
5.09202e-05
5.00149e-05
4.90837e-05
4.80003e-05
4.65792e-05
4.47083e-05
4.25289e-05
4.03202e-05
3.82275e-05
3.60559e-05
3.36779e-05
3.07547e-05
2.67334e-05
2.339e-05
2.20441e-05
2.23917e-05
2.47171e-05
2.80675e-05
3.2968e-05
3.90859e-05
4.58241e-05
5.39937e-05
6.47302e-05
7.33979e-05
7.51447e-05
7.25906e-05
5.12721e-05
1.89586e-05
1.32463e-05
1.3028e-05
1.30492e-05
1.27524e-05
1.2073e-05
1.11196e-05
9.88005e-06
5.63608e-05
5.49363e-05
5.37254e-05
5.28103e-05
5.21422e-05
5.15837e-05
5.11198e-05
5.0725e-05
5.03095e-05
4.97264e-05
4.90563e-05
4.81133e-05
4.69439e-05
4.54737e-05
4.36588e-05
4.1546e-05
3.92473e-05
3.68641e-05
3.43868e-05
3.16639e-05
2.83947e-05
2.41017e-05
2.04285e-05
1.87075e-05
1.77587e-05
1.85102e-05
1.92912e-05
2.04456e-05
2.20866e-05
2.44452e-05
2.76409e-05
3.27916e-05
4.01946e-05
4.66207e-05
4.92741e-05
4.3477e-05
2.44716e-05
1.50884e-05
1.33905e-05
1.31231e-05
1.29926e-05
1.26429e-05
1.20226e-05
1.10484e-05
1.00221e-05
5.24786e-05
5.16745e-05
5.05553e-05
4.96444e-05
4.91822e-05
4.85608e-05
4.81412e-05
4.7649e-05
4.72079e-05
4.64705e-05
4.57362e-05
4.46779e-05
4.33729e-05
4.17086e-05
3.96551e-05
3.72941e-05
3.46785e-05
3.18636e-05
2.8838e-05
2.55304e-05
2.23656e-05
2.01005e-05
1.88623e-05
1.79283e-05
1.7558e-05
1.71196e-05
1.69276e-05
1.68705e-05
1.69774e-05
1.73353e-05
1.80788e-05
1.9593e-05
2.212e-05
2.43426e-05
2.54261e-05
2.18893e-05
1.64076e-05
1.41713e-05
1.33445e-05
1.30263e-05
1.27792e-05
1.23767e-05
1.17309e-05
1.06035e-05
8.91852e-06
4.63309e-05
4.5685e-05
4.47612e-05
4.39603e-05
4.34246e-05
4.29519e-05
4.21991e-05
4.18433e-05
4.11734e-05
4.02419e-05
3.94211e-05
3.81489e-05
3.65806e-05
3.47131e-05
3.22662e-05
2.96147e-05
2.68399e-05
2.38768e-05
2.14131e-05
1.96084e-05
1.83859e-05
1.73923e-05
1.70968e-05
1.63933e-05
1.57405e-05
1.53773e-05
1.51622e-05
1.49936e-05
1.48557e-05
1.47615e-05
1.47302e-05
1.49315e-05
1.54719e-05
1.61413e-05
1.65725e-05
1.56813e-05
3.84138e-05
3.70435e-05
3.65932e-05
3.52118e-05
3.47519e-05
3.38695e-05
3.28205e-05
3.23019e-05
3.13246e-05
2.99897e-05
2.92543e-05
2.76851e-05
2.62709e-05
2.45925e-05
2.25393e-05
2.08557e-05
1.92043e-05
1.78507e-05
1.67695e-05
1.60742e-05
1.57753e-05
1.53619e-05
1.4727e-05
1.40513e-05
1.35954e-05
1.33069e-05
1.31114e-05
1.29756e-05
1.29e-05
1.28751e-05
1.29129e-05
1.30222e-05
1.32108e-05
1.33929e-05
1.34919e-05
2.83296e-05
2.61435e-05
2.58731e-05
2.43228e-05
2.39187e-05
2.25784e-05
2.16521e-05
2.10912e-05
2.00481e-05
1.89657e-05
1.847e-05
1.71687e-05
1.66508e-05
1.56218e-05
1.50089e-05
1.43212e-05
1.38013e-05
1.33751e-05
1.30813e-05
1.27547e-05
1.23507e-05
1.18681e-05
1.13567e-05
1.0915e-05
1.05899e-05
1.03588e-05
1.0195e-05
1.00999e-05
1.00626e-05
1.00895e-05
1.01818e-05
1.03306e-05
1.05125e-05
1.06303e-05
1.06724e-05
2.08106e-05
1.92207e-05
1.87726e-05
1.78893e-05
1.65666e-05
1.541e-05
1.49637e-05
1.41116e-05
1.28485e-05
1.2318e-05
1.1724e-05
1.08126e-05
1.04452e-05
9.64929e-06
9.33351e-06
8.78356e-06
8.47026e-06
8.10581e-06
7.77638e-06
7.45171e-06
7.14104e-06
6.84442e-06
6.57652e-06
6.35531e-06
6.19037e-06
6.07758e-06
6.00946e-06
5.97035e-06
5.94567e-06
5.93061e-06
5.91836e-06
5.9005e-06
5.86976e-06
5.82356e-06
5.74209e-06
0.00041241
0.000437724
0.000466937
0.000475085
0.000471297
0.000458595
0.000447107
0.000423113
0.000389623
0.000350524
0.000287194
0.000226396
0.00020274
0.000199787
0.000197755
0.000190956
0.000173282
0.000155604
0.00014618
0.000141042
0.000135115
0.000131033
0.000125907
0.000112167
9.31518e-05
8.27074e-05
8.02899e-05
8.19334e-05
8.80276e-05
9.24467e-05
9.58084e-05
9.82005e-05
9.80413e-05
9.62351e-05
9.68177e-05
9.90698e-05
0.000103152
0.000102157
9.3449e-05
8.25107e-05
7.40598e-05
5.25713e-05
1.75765e-05
5.19161e-06
0.000663658
0.000649863
0.000668674
0.000688954
0.000687753
0.000679539
0.0006702
0.00064506
0.000578482
0.000491114
0.000427348
0.000401655
0.000398666
0.000390274
0.000349148
0.000286302
0.000251376
0.000227083
0.000211396
0.000189933
0.000160381
0.000135716
0.000120899
0.000114587
0.000115871
0.000122844
0.000127868
0.000131862
0.000134635
0.000135008
0.000135391
0.00013598
0.000133064
0.000127807
0.000132057
0.000143195
0.000149414
0.000144459
0.000128412
0.000113536
7.27769e-05
3.18353e-05
1.17478e-05
5.0686e-06
0.000422231
0.000399363
0.000395312
0.000396129
0.000388304
0.000379922
0.000372154
0.000365463
0.000356739
0.000341995
0.000324302
0.000318032
0.000309997
0.000284908
0.00025541
0.000215768
0.00017974
0.00015399
0.000133748
0.000115336
9.9824e-05
8.9024e-05
8.38115e-05
8.29959e-05
8.38302e-05
8.41515e-05
8.48957e-05
8.57127e-05
8.70366e-05
8.99371e-05
9.51342e-05
0.000101491
0.000108752
0.000116047
0.000124969
0.000134647
0.000139524
0.000134882
0.000110066
8.00164e-05
5.64851e-05
2.91383e-05
1.54814e-05
1.06439e-05
5.62299e-06
0.000234525
0.000218006
0.000203236
0.000191066
0.000180836
0.000173771
0.000168309
0.000165264
0.000161349
0.000155073
0.000145284
0.000134453
0.000121496
0.000110132
0.000100743
8.96336e-05
7.97028e-05
7.133e-05
6.39941e-05
5.79307e-05
5.4123e-05
5.24302e-05
5.2162e-05
5.23909e-05
5.23786e-05
5.27807e-05
5.42072e-05
5.65039e-05
6.03082e-05
6.70062e-05
7.49339e-05
8.25361e-05
9.12464e-05
0.000101052
0.000109992
0.000121857
0.000114931
5.67679e-05
3.13714e-05
2.63084e-05
2.10171e-05
1.6309e-05
1.36759e-05
1.09634e-05
6.17076e-06
0.000103696
9.73485e-05
9.12443e-05
8.61786e-05
8.18912e-05
7.81709e-05
7.50615e-05
7.19858e-05
6.90079e-05
6.56102e-05
6.27053e-05
6.02619e-05
5.82701e-05
5.60841e-05
5.34045e-05
5.05453e-05
4.74695e-05
4.45115e-05
4.22327e-05
4.05389e-05
3.90637e-05
3.76786e-05
3.65449e-05
3.59417e-05
3.64027e-05
3.84719e-05
4.20248e-05
4.71645e-05
5.41567e-05
6.14907e-05
6.929e-05
7.98585e-05
8.99135e-05
9.73597e-05
9.93987e-05
8.00624e-05
2.90907e-05
1.7371e-05
1.65676e-05
1.60924e-05
1.5264e-05
1.38496e-05
1.21199e-05
8.698e-06
7.49889e-05
7.10538e-05
6.7792e-05
6.50882e-05
6.29504e-05
6.10538e-05
5.94337e-05
5.78982e-05
5.63492e-05
5.47564e-05
5.32644e-05
5.1844e-05
5.03518e-05
4.85844e-05
4.63774e-05
4.37778e-05
4.10334e-05
3.84187e-05
3.59986e-05
3.36036e-05
3.12326e-05
2.92603e-05
2.79205e-05
2.72667e-05
2.75667e-05
2.90616e-05
3.1362e-05
3.47963e-05
3.96626e-05
4.55445e-05
5.3246e-05
6.38813e-05
7.39918e-05
7.95918e-05
7.808e-05
4.96915e-05
2.02335e-05
1.61216e-05
1.56581e-05
1.54726e-05
1.49593e-05
1.40242e-05
1.2812e-05
1.13352e-05
6.57623e-05
6.35023e-05
6.14255e-05
5.96166e-05
5.83243e-05
5.70744e-05
5.60834e-05
5.51489e-05
5.42836e-05
5.33029e-05
5.2224e-05
5.0958e-05
4.94824e-05
4.77403e-05
4.56632e-05
4.32135e-05
4.0447e-05
3.75495e-05
3.46921e-05
3.19309e-05
2.9292e-05
2.6906e-05
2.50838e-05
2.37729e-05
2.31444e-05
2.29414e-05
2.31806e-05
2.39736e-05
2.5227e-05
2.70482e-05
2.95216e-05
3.37325e-05
4.05045e-05
4.70685e-05
5.01335e-05
4.32915e-05
2.55379e-05
1.79448e-05
1.60615e-05
1.55439e-05
1.52255e-05
1.46919e-05
1.38813e-05
1.26758e-05
1.14321e-05
5.81507e-05
5.69837e-05
5.55609e-05
5.42029e-05
5.34108e-05
5.24583e-05
5.1739e-05
5.09322e-05
5.02134e-05
4.92626e-05
4.82311e-05
4.69719e-05
4.54399e-05
4.357e-05
4.12832e-05
3.86184e-05
3.57067e-05
3.27695e-05
3.00147e-05
2.75499e-05
2.54953e-05
2.40121e-05
2.29929e-05
2.20098e-05
2.08255e-05
2.02377e-05
2.00483e-05
2.00481e-05
2.02317e-05
2.06053e-05
2.12261e-05
2.23735e-05
2.43615e-05
2.63157e-05
2.73647e-05
2.41619e-05
1.92435e-05
1.68566e-05
1.57518e-05
1.52291e-05
1.48258e-05
1.42797e-05
1.34714e-05
1.21316e-05
1.01843e-05
5.07883e-05
4.99311e-05
4.89266e-05
4.76831e-05
4.71527e-05
4.63201e-05
4.55233e-05
4.47881e-05
4.39981e-05
4.29347e-05
4.18229e-05
4.04336e-05
3.87201e-05
3.67649e-05
3.44228e-05
3.19356e-05
2.93978e-05
2.69704e-05
2.49277e-05
2.33116e-05
2.21231e-05
2.13621e-05
2.03565e-05
1.91189e-05
1.82606e-05
1.78228e-05
1.75993e-05
1.74944e-05
1.74738e-05
1.75433e-05
1.76971e-05
1.7985e-05
1.8498e-05
1.90869e-05
1.94197e-05
1.84433e-05
4.29571e-05
4.1654e-05
4.10475e-05
3.94842e-05
3.90879e-05
3.81213e-05
3.70565e-05
3.62277e-05
3.53078e-05
3.40136e-05
3.28448e-05
3.14752e-05
2.97993e-05
2.82165e-05
2.63196e-05
2.4655e-05
2.30388e-05
2.16733e-05
2.06089e-05
1.97067e-05
1.88866e-05
1.79907e-05
1.70237e-05
1.61739e-05
1.56095e-05
1.52733e-05
1.50728e-05
1.49699e-05
1.49398e-05
1.49911e-05
1.51192e-05
1.53199e-05
1.55822e-05
1.57705e-05
1.58396e-05
3.25133e-05
3.10424e-05
3.07013e-05
2.87779e-05
2.87001e-05
2.75721e-05
2.6291e-05
2.57101e-05
2.50053e-05
2.36771e-05
2.28367e-05
2.19656e-05
2.06316e-05
1.99412e-05
1.8777e-05
1.80061e-05
1.71395e-05
1.64058e-05
1.57141e-05
1.5053e-05
1.44002e-05
1.37278e-05
1.30836e-05
1.25571e-05
1.21814e-05
1.19248e-05
1.1756e-05
1.16703e-05
1.16494e-05
1.1713e-05
1.18488e-05
1.20442e-05
1.22674e-05
1.23998e-05
1.24408e-05
2.34943e-05
2.17037e-05
2.07069e-05
2.01325e-05
1.89443e-05
1.74619e-05
1.70067e-05
1.62083e-05
1.48458e-05
1.41101e-05
1.35582e-05
1.24639e-05
1.2065e-05
1.11057e-05
1.07213e-05
1.00767e-05
9.63029e-06
9.16319e-06
8.73802e-06
8.33372e-06
7.95665e-06
7.60852e-06
7.3031e-06
7.05526e-06
6.87226e-06
6.74872e-06
6.67771e-06
6.64474e-06
6.63236e-06
6.63263e-06
6.63977e-06
6.64317e-06
6.63197e-06
6.60203e-06
6.51797e-06
0.000364753
0.000386872
0.00040556
0.00040316
0.000384125
0.000347958
0.000313938
0.000281995
0.000258224
0.000238054
0.000216276
0.000204975
0.000204675
0.000206524
0.000203516
0.000190905
0.000168094
0.000149136
0.00013804
0.000130395
0.000123632
0.000118683
0.000109037
8.55349e-05
6.16614e-05
5.65561e-05
5.86006e-05
6.69456e-05
7.79397e-05
8.13616e-05
8.54017e-05
8.84104e-05
8.63243e-05
7.76074e-05
7.82601e-05
8.55327e-05
9.8518e-05
9.9093e-05
9.34701e-05
8.532e-05
7.54097e-05
4.83517e-05
1.48158e-05
5.00709e-06
0.000606131
0.000610855
0.000628249
0.000619601
0.000597364
0.000574118
0.000540663
0.000491868
0.00044447
0.000410038
0.000398001
0.000403977
0.000409676
0.000400666
0.000350263
0.000285011
0.000237668
0.000196867
0.000175643
0.000153811
0.000128347
0.000107172
9.21593e-05
8.514e-05
8.78334e-05
9.84101e-05
0.000107693
0.000115135
0.000120907
0.000123718
0.000125659
0.000125541
0.000117618
0.000112517
0.000120946
0.000145911
0.000158087
0.000154683
0.00014315
0.000123195
6.9821e-05
2.81564e-05
1.13856e-05
5.24192e-06
0.000418193
0.000402623
0.000397075
0.000394146
0.000385034
0.000374945
0.000364872
0.000356143
0.000348106
0.000339926
0.000332427
0.000329263
0.000317131
0.000286901
0.00025421
0.000213071
0.000173675
0.000140564
0.000116295
9.77748e-05
8.18298e-05
6.9783e-05
6.3177e-05
6.34111e-05
6.60016e-05
6.78915e-05
7.07557e-05
7.35312e-05
7.60031e-05
7.98346e-05
8.51114e-05
9.06345e-05
9.87971e-05
0.000112298
0.000128497
0.000146806
0.000156551
0.000151845
0.000123001
8.75785e-05
5.75188e-05
2.74474e-05
1.60525e-05
1.14967e-05
5.98965e-06
0.000248206
0.000231811
0.000217229
0.000203752
0.000191813
0.000182282
0.000174474
0.000169316
0.000164562
0.000158557
0.000149481
0.000137382
0.000122564
0.000110021
9.89151e-05
8.60306e-05
7.38581e-05
6.40568e-05
5.63883e-05
5.03666e-05
4.67647e-05
4.52196e-05
4.50827e-05
4.56336e-05
4.6029e-05
4.68207e-05
4.84766e-05
5.07149e-05
5.39634e-05
5.90925e-05
6.52793e-05
7.17655e-05
8.16071e-05
9.83835e-05
0.000116643
0.000133358
0.000120746
6.03213e-05
3.62304e-05
2.88804e-05
2.2436e-05
1.77769e-05
1.50977e-05
1.21028e-05
6.63885e-06
0.000126125
0.000116505
0.000107721
0.000100011
9.35017e-05
8.78953e-05
8.3208e-05
7.89478e-05
7.48515e-05
7.04829e-05
6.63972e-05
6.28346e-05
5.9792e-05
5.66317e-05
5.30908e-05
4.96354e-05
4.6306e-05
4.32427e-05
4.1062e-05
3.97057e-05
3.85783e-05
3.74968e-05
3.66599e-05
3.62397e-05
3.66587e-05
3.82246e-05
4.07653e-05
4.444e-05
4.9408e-05
5.49594e-05
6.14122e-05
7.16883e-05
8.57127e-05
9.92572e-05
0.000102772
7.47345e-05
2.72004e-05
1.97902e-05
1.87454e-05
1.80135e-05
1.69809e-05
1.5318e-05
1.33201e-05
9.56707e-06
9.2808e-05
8.64457e-05
8.11371e-05
7.65439e-05
7.27951e-05
6.95806e-05
6.67856e-05
6.42802e-05
6.18156e-05
5.93878e-05
5.70842e-05
5.49353e-05
5.28362e-05
5.06237e-05
4.81458e-05
4.53831e-05
4.25028e-05
3.98115e-05
3.75521e-05
3.55925e-05
3.36954e-05
3.21137e-05
3.10247e-05
3.04334e-05
3.02795e-05
3.0886e-05
3.22685e-05
3.45784e-05
3.78699e-05
4.20541e-05
4.78724e-05
5.68429e-05
6.74517e-05
7.59939e-05
7.3786e-05
4.02627e-05
2.12227e-05
1.82647e-05
1.76481e-05
1.72607e-05
1.65473e-05
1.54008e-05
1.39658e-05
1.22769e-05
7.83593e-05
7.47586e-05
7.13802e-05
6.84947e-05
6.61173e-05
6.39485e-05
6.21459e-05
6.046e-05
5.89764e-05
5.74571e-05
5.58959e-05
5.42539e-05
5.24667e-05
5.05007e-05
4.82894e-05
4.57613e-05
4.29335e-05
3.99765e-05
3.71182e-05
3.45345e-05
3.224e-05
3.02671e-05
2.87486e-05
2.7455e-05
2.62648e-05
2.56831e-05
2.56418e-05
2.61524e-05
2.70432e-05
2.83262e-05
3.00327e-05
3.2709e-05
3.72956e-05
4.25081e-05
4.56555e-05
3.91775e-05
2.5156e-05
1.9878e-05
1.80147e-05
1.73369e-05
1.685e-05
1.61586e-05
1.51882e-05
1.37861e-05
1.23285e-05
6.49613e-05
6.33834e-05
6.14312e-05
5.96991e-05
5.84282e-05
5.71224e-05
5.60573e-05
5.49044e-05
5.39073e-05
5.27399e-05
5.14741e-05
5.00855e-05
4.84529e-05
4.65598e-05
4.43056e-05
4.16851e-05
3.87946e-05
3.58592e-05
3.31353e-05
3.07854e-05
2.88468e-05
2.73043e-05
2.59165e-05
2.43146e-05
2.30019e-05
2.2407e-05
2.22116e-05
2.22429e-05
2.24835e-05
2.28845e-05
2.34217e-05
2.42184e-05
2.55036e-05
2.68391e-05
2.75834e-05
2.50404e-05
2.10714e-05
1.87092e-05
1.74746e-05
1.68256e-05
1.63091e-05
1.56408e-05
1.46912e-05
1.31736e-05
1.09849e-05
5.51978e-05
5.42811e-05
5.31092e-05
5.1747e-05
5.11035e-05
5.01915e-05
4.93622e-05
4.84191e-05
4.76041e-05
4.65132e-05
4.52846e-05
4.39378e-05
4.22408e-05
4.03572e-05
3.8132e-05
3.57021e-05
3.31638e-05
3.07208e-05
2.85702e-05
2.67634e-05
2.52461e-05
2.38549e-05
2.23426e-05
2.09544e-05
2.00587e-05
1.9593e-05
1.93741e-05
1.92999e-05
1.93573e-05
1.95312e-05
1.98028e-05
2.01734e-05
2.06615e-05
2.10638e-05
2.12245e-05
2.02051e-05
4.64917e-05
4.54392e-05
4.47452e-05
4.32483e-05
4.28146e-05
4.20722e-05
4.11253e-05
4.01054e-05
3.94328e-05
3.82197e-05
3.69185e-05
3.57471e-05
3.39964e-05
3.24373e-05
3.04913e-05
2.86326e-05
2.67566e-05
2.50479e-05
2.35227e-05
2.21539e-05
2.09108e-05
1.97217e-05
1.86023e-05
1.76894e-05
1.7078e-05
1.67141e-05
1.65161e-05
1.64311e-05
1.64382e-05
1.65434e-05
1.67281e-05
1.69766e-05
1.72614e-05
1.74266e-05
1.74386e-05
3.54644e-05
3.45671e-05
3.41879e-05
3.22223e-05
3.20156e-05
3.1529e-05
3.03035e-05
2.94332e-05
2.91867e-05
2.77219e-05
2.65948e-05
2.59446e-05
2.42009e-05
2.34759e-05
2.191e-05
2.0863e-05
1.96356e-05
1.85765e-05
1.75833e-05
1.66812e-05
1.58403e-05
1.5041e-05
1.43223e-05
1.37499e-05
1.33421e-05
1.30682e-05
1.28981e-05
1.2817e-05
1.28103e-05
1.28974e-05
1.30591e-05
1.32778e-05
1.35136e-05
1.36418e-05
1.36653e-05