/*--------------------------------*- C++ -*----------------------------------*\
| =========                 |                                                 |
| \\      /  F ield         | OpenFOAM: The Open Source CFD Toolbox           |
|  \\    /   O peration     | Version:  2.3.1                                 |
|   \\  /    A nd           | Web:      www.OpenFOAM.org                      |
|    \\/     M anipulation  |                                                 |
\*---------------------------------------------------------------------------*/
FoamFile
{
    version     2.0;
    format      ascii;
    class       volScalarField;
    location    "20";
    object      k_0;
}
// * * * * * * * * * * * * * * * * * * * * * * * * * * * * * * * * * * * * * //

dimensions      [0 2 -2 0 0 0 0];

internalField   nonuniform List<scalar> 
38152
(
0.000413488
0.000411191
0.000402426
0.000376024
0.000368067
0.000375802
0.000385131
0.000382858
0.000363756
0.000341698
0.000334416
0.000311852
0.000224864
0.000140622
0.000110775
0.000102269
9.77948e-05
9.42046e-05
9.16393e-05
8.70664e-05
8.3557e-05
8.20805e-05
8.11721e-05
8.19851e-05
8.81346e-05
9.30428e-05
9.32925e-05
9.24448e-05
8.89353e-05
7.94444e-05
7.42824e-05
7.22724e-05
6.92688e-05
6.87917e-05
6.97033e-05
6.9911e-05
6.92201e-05
6.94619e-05
6.83441e-05
6.10278e-05
5.35482e-05
3.85103e-05
1.35439e-05
3.54022e-06
0.000524909
0.000494557
0.000422484
0.000308609
0.000266807
0.000265908
0.000274379
0.000275721
0.000262341
0.000231849
0.000192928
0.000160918
0.000140123
0.00013291
0.000122043
8.93196e-05
7.55598e-05
7.59871e-05
7.43855e-05
7.26374e-05
7.59881e-05
8.13002e-05
8.56702e-05
8.85311e-05
9.05858e-05
9.04205e-05
8.59617e-05
7.90689e-05
7.81321e-05
7.6575e-05
7.23097e-05
6.82704e-05
6.82849e-05
7.18626e-05
7.17104e-05
6.94525e-05
5.87579e-05
4.8776e-05
4.72788e-05
4.31399e-05
3.40281e-05
1.86667e-05
6.35014e-06
3.10431e-06
0.000458891
0.000354467
0.000183565
0.00011472
9.76961e-05
9.744e-05
9.84475e-05
9.88938e-05
9.68961e-05
8.95038e-05
7.60561e-05
7.41379e-05
7.50002e-05
7.30923e-05
6.93331e-05
6.15283e-05
5.65368e-05
5.45282e-05
5.15674e-05
4.96821e-05
5.02025e-05
5.23049e-05
5.54754e-05
5.86297e-05
6.05611e-05
6.09442e-05
5.975e-05
5.50343e-05
5.45179e-05
5.59162e-05
5.61016e-05
5.74312e-05
6.19622e-05
6.39765e-05
6.48546e-05
6.28614e-05
4.91935e-05
2.42568e-05
1.9983e-05
2.08151e-05
1.88027e-05
1.30201e-05
7.25203e-06
4.39237e-06
3.2202e-06
0.000121535
7.76023e-05
5.99296e-05
5.40437e-05
5.21516e-05
5.19599e-05
5.30337e-05
5.32044e-05
5.09465e-05
4.8266e-05
4.55491e-05
4.43157e-05
4.31619e-05
4.20388e-05
4.11018e-05
3.95957e-05
3.84956e-05
3.76055e-05
3.70521e-05
3.70595e-05
3.77939e-05
3.9111e-05
4.06813e-05
4.17308e-05
4.1876e-05
4.1286e-05
4.02205e-05
4.02387e-05
4.22585e-05
4.74529e-05
4.92836e-05
5.22411e-05
5.805e-05
5.93285e-05
5.88083e-05
5.49202e-05
3.34575e-05
9.85102e-06
8.64662e-06
9.47714e-06
8.49298e-06
6.70687e-06
5.3274e-06
4.35567e-06
3.36248e-06
4.41428e-05
4.19878e-05
4.02531e-05
3.92632e-05
3.80346e-05
3.7529e-05
3.64233e-05
3.54717e-05
3.46974e-05
3.38302e-05
3.33942e-05
3.29672e-05
3.26274e-05
3.20344e-05
3.1206e-05
3.03739e-05
2.98188e-05
2.95688e-05
2.96863e-05
3.01294e-05
3.06931e-05
3.11488e-05
3.12111e-05
3.0605e-05
3.00921e-05
2.95101e-05
2.90814e-05
2.93741e-05
3.10654e-05
3.28742e-05
3.65991e-05
4.49709e-05
4.74966e-05
4.66422e-05
4.43639e-05
3.3646e-05
1.26433e-05
6.25017e-06
6.15024e-06
5.94216e-06
5.54513e-06
5.11072e-06
4.57169e-06
3.77068e-06
4.01269e-05
3.93726e-05
3.832e-05
3.73705e-05
3.69165e-05
3.61842e-05
3.54894e-05
3.49354e-05
3.40692e-05
3.3371e-05
3.26005e-05
3.17455e-05
3.0892e-05
2.99961e-05
2.91599e-05
2.8491e-05
2.79971e-05
2.76371e-05
2.74481e-05
2.7334e-05
2.69123e-05
2.64034e-05
2.56055e-05
2.50177e-05
2.15643e-05
1.64188e-05
1.46323e-05
1.50796e-05
1.69919e-05
2.10354e-05
2.60874e-05
3.22892e-05
3.4554e-05
3.46566e-05
3.40525e-05
2.64894e-05
9.86591e-06
5.79459e-06
5.64452e-06
5.55625e-06
5.356e-06
5.06121e-06
4.60818e-06
4.11892e-06
3.9954e-05
3.90025e-05
3.86651e-05
3.74169e-05
3.69054e-05
3.63719e-05
3.54976e-05
3.51316e-05
3.43864e-05
3.36405e-05
3.30621e-05
3.21988e-05
3.14048e-05
3.05176e-05
2.96038e-05
2.87181e-05
2.7861e-05
2.71362e-05
2.65695e-05
2.61091e-05
2.55866e-05
2.47455e-05
2.3849e-05
2.22071e-05
1.51126e-05
8.29102e-06
6.83817e-06
6.85644e-06
7.42174e-06
8.68727e-06
1.04506e-05
1.28762e-05
1.57527e-05
1.79059e-05
2.06549e-05
2.0888e-05
1.24061e-05
6.49996e-06
5.55396e-06
5.43829e-06
5.34227e-06
5.17665e-06
4.94421e-06
4.51763e-06
4.07795e-06
3.8578e-05
3.73505e-05
3.71737e-05
3.62927e-05
3.59165e-05
3.56578e-05
3.50553e-05
3.49502e-05
3.40428e-05
3.37216e-05
3.28703e-05
3.21684e-05
3.1272e-05
3.03206e-05
2.92659e-05
2.81819e-05
2.71499e-05
2.62295e-05
2.54208e-05
2.45956e-05
2.36082e-05
2.26355e-05
2.06559e-05
1.34151e-05
7.38783e-06
6.53671e-06
6.45324e-06
6.42561e-06
6.46842e-06
6.68736e-06
7.19486e-06
8.14697e-06
9.5485e-06
1.10398e-05
1.20265e-05
1.046e-05
7.04424e-06
5.71507e-06
5.41954e-06
5.29411e-06
5.17386e-06
5.00317e-06
4.76151e-06
4.32763e-06
3.64571e-06
3.4199e-05
3.23115e-05
3.25807e-05
3.18252e-05
3.19587e-05
3.19394e-05
3.18814e-05
3.19035e-05
3.15033e-05
3.14213e-05
3.07093e-05
3.02708e-05
2.93904e-05
2.8512e-05
2.74011e-05
2.62293e-05
2.5044e-05
2.38145e-05
2.26119e-05
2.14655e-05
2.00297e-05
1.7038e-05
1.12449e-05
7.31309e-06
6.54715e-06
6.43888e-06
6.36689e-06
6.26931e-06
6.18423e-06
6.14701e-06
6.25414e-06
6.52922e-06
6.93896e-06
7.23994e-06
7.33577e-06
6.53578e-06
2.92867e-05
2.74315e-05
2.72195e-05
2.55036e-05
2.49624e-05
2.45519e-05
2.441e-05
2.43897e-05
2.43002e-05
2.44957e-05
2.43368e-05
2.42938e-05
2.39032e-05
2.34404e-05
2.26662e-05
2.16754e-05
2.03942e-05
1.86801e-05
1.65616e-05
1.40866e-05
1.14313e-05
8.81075e-06
7.09015e-06
6.45128e-06
6.22969e-06
6.09906e-06
5.97156e-06
5.87084e-06
5.80749e-06
5.77995e-06
5.78218e-06
5.82368e-06
5.87894e-06
5.89997e-06
5.77558e-06
2.44128e-05
2.37095e-05
2.29976e-05
2.14632e-05
2.04276e-05
2.00447e-05
1.90579e-05
1.87164e-05
1.79589e-05
1.80594e-05
1.72528e-05
1.7265e-05
1.63824e-05
1.59828e-05
1.50639e-05
1.39558e-05
1.26082e-05
1.10631e-05
9.53477e-06
8.23074e-06
7.20468e-06
6.42328e-06
5.91088e-06
5.57546e-06
5.3405e-06
5.14808e-06
5.00478e-06
4.91519e-06
4.87238e-06
4.85981e-06
4.87804e-06
4.90303e-06
4.91499e-06
4.87944e-06
4.75325e-06
1.64021e-05
1.62735e-05
1.50607e-05
1.47247e-05
1.36771e-05
1.35323e-05
1.26404e-05
1.23064e-05
1.1664e-05
1.15082e-05
1.06521e-05
1.0494e-05
9.55727e-06
9.20833e-06
8.36796e-06
7.66805e-06
6.88805e-06
6.18045e-06
5.56504e-06
5.05637e-06
4.63009e-06
4.27586e-06
3.99703e-06
3.78447e-06
3.62404e-06
3.50793e-06
3.4282e-06
3.37286e-06
3.33233e-06
3.29888e-06
3.26289e-06
3.21202e-06
3.13619e-06
3.03036e-06
2.8979e-06
0.000490989
0.000479575
0.000480081
0.000481021
0.000494405
0.000504418
0.000501173
0.00047962
0.000463641
0.000454713
0.000431509
0.000351127
0.000223818
0.000167632
0.000154678
0.000151469
0.000146607
0.000140633
0.000133561
0.00012726
0.000123682
0.000118218
0.000116942
0.000119538
0.000120445
0.00012007
0.000117725
0.000110018
9.90971e-05
9.42331e-05
9.35407e-05
9.22054e-05
9.06823e-05
9.17951e-05
9.33335e-05
9.28774e-05
9.20925e-05
8.99732e-05
8.27394e-05
7.10691e-05
6.42779e-05
4.94712e-05
1.79221e-05
4.65104e-06
0.000801596
0.000782277
0.000611639
0.000553278
0.000614878
0.0006719
0.000676804
0.000669765
0.000642836
0.000580949
0.000476418
0.000357178
0.000308156
0.000291633
0.000251948
0.000185662
0.000183661
0.000194174
0.000192548
0.000185947
0.000171141
0.000155867
0.000146912
0.000144567
0.000145045
0.000145061
0.000142009
0.000137534
0.000134712
0.000129908
0.000119824
0.000111662
0.000112418
0.000115749
0.000112818
0.000107492
0.00010463
8.61148e-05
7.01457e-05
6.96212e-05
6.2614e-05
3.17263e-05
9.66351e-06
3.99351e-06
0.000594647
0.000400745
0.000300722
0.000286608
0.000275189
0.000272325
0.000271576
0.000268475
0.00026043
0.000240609
0.00021237
0.000207917
0.000208112
0.000201269
0.000189374
0.000161453
0.000136472
0.000124838
0.000114502
0.000103943
9.73093e-05
9.46223e-05
9.50333e-05
9.66249e-05
9.67593e-05
9.61864e-05
9.46945e-05
8.98678e-05
8.81691e-05
8.90472e-05
8.95911e-05
9.30282e-05
9.94627e-05
0.000101243
0.00010017
9.1832e-05
8.0771e-05
7.16089e-05
5.65897e-05
4.62008e-05
3.993e-05
2.55615e-05
1.11841e-05
6.80938e-06
4.18897e-06
0.000186884
0.000163133
0.000138736
0.000126436
0.000118638
0.000117178
0.000117174
0.000117592
0.000114115
0.00010687
9.73886e-05
9.23834e-05
8.75107e-05
8.28632e-05
7.93726e-05
7.36366e-05
6.90616e-05
6.53925e-05
6.20887e-05
5.98252e-05
5.89439e-05
5.95343e-05
6.08431e-05
6.16885e-05
6.11362e-05
5.97998e-05
5.86711e-05
5.85907e-05
6.12229e-05
6.94468e-05
7.64807e-05
8.36769e-05
9.01373e-05
9.03141e-05
8.7185e-05
8.19844e-05
6.52342e-05
2.32454e-05
1.53065e-05
1.59078e-05
1.4014e-05
1.0586e-05
8.44528e-06
6.89009e-06
4.49839e-06
6.64253e-05
6.28649e-05
5.97506e-05
5.76066e-05
5.63098e-05
5.50538e-05
5.44233e-05
5.27439e-05
5.18553e-05
5.0519e-05
4.9955e-05
4.96496e-05
4.95008e-05
4.90473e-05
4.79419e-05
4.65177e-05
4.50743e-05
4.40444e-05
4.36104e-05
4.36959e-05
4.37637e-05
4.34514e-05
4.12238e-05
3.8533e-05
3.68528e-05
3.7329e-05
3.89205e-05
4.21708e-05
4.8757e-05
5.63169e-05
6.41007e-05
7.42746e-05
7.70898e-05
7.4734e-05
6.7512e-05
4.99232e-05
1.93806e-05
9.65276e-06
9.61594e-06
9.69358e-06
9.3418e-06
8.67181e-06
7.7982e-06
5.77253e-06
5.05988e-05
5.00058e-05
4.8947e-05
4.84707e-05
4.82209e-05
4.76996e-05
4.74381e-05
4.67256e-05
4.63159e-05
4.56572e-05
4.52237e-05
4.47123e-05
4.41244e-05
4.32897e-05
4.22021e-05
4.10698e-05
4.01077e-05
3.94148e-05
3.88472e-05
3.80772e-05
3.61229e-05
3.2364e-05
2.7289e-05
2.20045e-05
1.96116e-05
1.8805e-05
2.09998e-05
2.65363e-05
3.39594e-05
4.10439e-05
4.86027e-05
5.84809e-05
6.42209e-05
6.23515e-05
5.58761e-05
3.82444e-05
1.36378e-05
9.13685e-06
9.36142e-06
9.56303e-06
9.48861e-06
9.12432e-06
8.50107e-06
7.59039e-06
4.78363e-05
4.68076e-05
4.6094e-05
4.59413e-05
4.55514e-05
4.55122e-05
4.54331e-05
4.53967e-05
4.53629e-05
4.51214e-05
4.48698e-05
4.43865e-05
4.3726e-05
4.2895e-05
4.18371e-05
4.07063e-05
3.95549e-05
3.84432e-05
3.72858e-05
3.58092e-05
3.36802e-05
2.98625e-05
2.43722e-05
1.79386e-05
1.38494e-05
1.21468e-05
1.34617e-05
1.48903e-05
1.67653e-05
1.9398e-05
2.26239e-05
2.7599e-05
3.35982e-05
3.83191e-05
3.98734e-05
3.48035e-05
1.78241e-05
1.03136e-05
9.52833e-06
9.65732e-06
9.72547e-06
9.58185e-06
9.20598e-06
8.53613e-06
7.76417e-06
4.71559e-05
4.69286e-05
4.55478e-05
4.51987e-05
4.47393e-05
4.45076e-05
4.43081e-05
4.41312e-05
4.39336e-05
4.35199e-05
4.32089e-05
4.25825e-05
4.18568e-05
4.0878e-05
3.96594e-05
3.82369e-05
3.66319e-05
3.48831e-05
3.30056e-05
3.05988e-05
2.68522e-05
2.23107e-05
1.77223e-05
1.37541e-05
1.2558e-05
1.26461e-05
1.2559e-05
1.2474e-05
1.24718e-05
1.27442e-05
1.34367e-05
1.4928e-05
1.72303e-05
1.8898e-05
1.95345e-05
1.60694e-05
1.14352e-05
1.01072e-05
9.83502e-06
9.78474e-06
9.71379e-06
9.49463e-06
9.05757e-06
8.23699e-06
6.90713e-06
4.2467e-05
4.25584e-05
4.12174e-05
4.1361e-05
4.04863e-05
4.06854e-05
4.00671e-05
4.01425e-05
3.96577e-05
3.93125e-05
3.89007e-05
3.82819e-05
3.73817e-05
3.63798e-05
3.48914e-05
3.3196e-05
3.131e-05
2.86469e-05
2.49865e-05
2.1331e-05
1.83025e-05
1.53034e-05
1.27181e-05
1.20517e-05
1.19879e-05
1.19104e-05
1.17509e-05
1.15335e-05
1.12618e-05
1.09569e-05
1.07967e-05
1.08114e-05
1.11664e-05
1.16469e-05
1.19566e-05
1.11964e-05
3.29077e-05
3.22777e-05
3.16729e-05
3.15224e-05
3.05788e-05
3.05398e-05
2.99687e-05
2.98325e-05
2.95968e-05
2.93105e-05
2.91046e-05
2.86983e-05
2.80151e-05
2.71461e-05
2.49306e-05
2.26408e-05
2.01349e-05
1.74769e-05
1.55376e-05
1.36392e-05
1.21956e-05
1.14453e-05
1.11031e-05
1.09001e-05
1.07106e-05
1.05132e-05
1.03397e-05
1.01885e-05
1.00615e-05
9.95845e-06
9.88544e-06
9.84922e-06
9.87586e-06
9.95073e-06
9.99533e-06
2.27115e-05
2.05483e-05
2.03227e-05
1.96083e-05
1.85507e-05
1.78104e-05
1.75815e-05
1.66833e-05
1.65992e-05
1.58658e-05
1.58566e-05
1.51599e-05
1.49407e-05
1.41125e-05
1.35194e-05
1.25634e-05
1.16879e-05
1.08033e-05
1.0093e-05
9.64055e-06
9.37464e-06
9.13822e-06
8.87197e-06
8.60205e-06
8.35639e-06
8.1645e-06
8.0168e-06
7.91644e-06
7.86589e-06
7.85173e-06
7.88508e-06
7.95652e-06
8.0482e-06
8.09849e-06
8.09847e-06
1.78795e-05
1.69275e-05
1.64755e-05
1.55e-05
1.43108e-05
1.37748e-05
1.29142e-05
1.23805e-05
1.15081e-05
1.11385e-05
1.03124e-05
9.90988e-06
9.26701e-06
8.73717e-06
8.20827e-06
7.65255e-06
7.1906e-06
6.78846e-06
6.47331e-06
6.20128e-06
5.95824e-06
5.73332e-06
5.52407e-06
5.34228e-06
5.20311e-06
5.10454e-06
5.0394e-06
4.99346e-06
4.95561e-06
4.92063e-06
4.88307e-06
4.83623e-06
4.77595e-06
4.70176e-06
4.6139e-06
0.000456606
0.000473432
0.000491564
0.000503905
0.000508946
0.00050676
0.000498233
0.000490044
0.000478947
0.000455552
0.000404965
0.000292835
0.000210152
0.000188004
0.000183699
0.000179189
0.000168949
0.000155883
0.000147422
0.000142781
0.000137702
0.000132571
0.000130376
0.000126328
0.000117934
0.000110481
0.000102058
9.59188e-05
9.48455e-05
9.55366e-05
9.81154e-05
9.9391e-05
0.000100001
0.000101333
0.000101839
0.000102149
0.000102999
0.000101209
9.08126e-05
7.79107e-05
7.0446e-05
5.32502e-05
1.87418e-05
5.18276e-06
0.00076592
0.000705249
0.000660217
0.000683841
0.000715067
0.000721891
0.000722308
0.000719375
0.000688142
0.000600078
0.000485143
0.000401595
0.000375204
0.000361661
0.000321672
0.000257321
0.000240599
0.000232265
0.000222224
0.000205651
0.000180771
0.000159682
0.000148405
0.000143664
0.00014357
0.000145085
0.00014464
0.000143734
0.000142099
0.000138439
0.000134532
0.000133136
0.000131603
0.000130236
0.000131541
0.000132502
0.000134199
0.000125433
0.000104384
9.55371e-05
7.12467e-05
3.33718e-05
1.14811e-05
4.71853e-06
0.000474761
0.00038821
0.000367202
0.000367871
0.000358152
0.000351285
0.000346675
0.000343043
0.000336298
0.000319387
0.000294218
0.000285003
0.000279238
0.000261104
0.000237983
0.00020128
0.000168965
0.00014938
0.000132937
0.000117758
0.000106194
9.99899e-05
9.8497e-05
9.88261e-05
9.83389e-05
9.71238e-05
9.55218e-05
9.31913e-05
9.28749e-05
9.39022e-05
9.66262e-05
0.000102575
0.000109417
0.000113862
0.000117113
0.000116777
0.00011515
0.000109081
8.76465e-05
6.59176e-05
5.10698e-05
2.93502e-05
1.41501e-05
9.23407e-06
5.06881e-06
0.000218429
0.0001999
0.000181082
0.000168674
0.000159202
0.000154583
0.000151876
0.000150698
0.000146992
0.000139912
0.000129589
0.00012119
0.00011165
0.000102789
9.55843e-05
8.62411e-05
7.82549e-05
7.19286e-05
6.65976e-05
6.22804e-05
5.9698e-05
5.86561e-05
5.8693e-05
5.87901e-05
5.82689e-05
5.78716e-05
5.83405e-05
5.96779e-05
6.3094e-05
7.08129e-05
7.93143e-05
8.74956e-05
9.45973e-05
9.96593e-05
0.000100983
0.0001047
9.69073e-05
4.39936e-05
2.39506e-05
2.20097e-05
1.84692e-05
1.41326e-05
1.161e-05
9.34761e-06
5.49556e-06
8.54676e-05
8.12246e-05
7.68673e-05
7.35405e-05
7.08372e-05
6.84969e-05
6.66847e-05
6.43716e-05
6.23421e-05
5.98651e-05
5.81642e-05
5.67735e-05
5.56502e-05
5.43205e-05
5.23277e-05
4.99326e-05
4.73914e-05
4.51499e-05
4.3242e-05
4.16437e-05
4.01494e-05
3.86394e-05
3.67398e-05
3.48186e-05
3.4569e-05
3.69456e-05
4.08778e-05
4.64206e-05
5.44401e-05
6.26057e-05
7.08441e-05
8.10901e-05
8.79696e-05
8.90939e-05
8.73156e-05
7.27353e-05
2.85285e-05
1.4199e-05
1.36335e-05
1.34667e-05
1.28652e-05
1.1772e-05
1.039e-05
7.49167e-06
6.20597e-05
6.00299e-05
5.81325e-05
5.6665e-05
5.56581e-05
5.45958e-05
5.37876e-05
5.28357e-05
5.19321e-05
5.0922e-05
5.00171e-05
4.90859e-05
4.80024e-05
4.6581e-05
4.47099e-05
4.25305e-05
4.0322e-05
3.82293e-05
3.60575e-05
3.36792e-05
3.07555e-05
2.67325e-05
2.3389e-05
2.20439e-05
2.23921e-05
2.47185e-05
2.80702e-05
3.29724e-05
3.9092e-05
4.58327e-05
5.40071e-05
6.47475e-05
7.34154e-05
7.51605e-05
7.26038e-05
5.126e-05
1.89534e-05
1.32471e-05
1.3029e-05
1.305e-05
1.2753e-05
1.20736e-05
1.11202e-05
9.88055e-06
5.63585e-05
5.49342e-05
5.3724e-05
5.28097e-05
5.21421e-05
5.15842e-05
5.11207e-05
5.07263e-05
5.03113e-05
4.97285e-05
4.90587e-05
4.81157e-05
4.69463e-05
4.54761e-05
4.3661e-05
4.15481e-05
3.92494e-05
3.6866e-05
3.43886e-05
3.16654e-05
2.83958e-05
2.41018e-05
2.04288e-05
1.87088e-05
1.77595e-05
1.85112e-05
1.92921e-05
2.04465e-05
2.20877e-05
2.44469e-05
2.76439e-05
3.27975e-05
4.02036e-05
4.66313e-05
4.92842e-05
4.34788e-05
2.44668e-05
1.50887e-05
1.33916e-05
1.31242e-05
1.29934e-05
1.26436e-05
1.20233e-05
1.10492e-05
1.00226e-05
5.24779e-05
5.16735e-05
5.05555e-05
4.96446e-05
4.91825e-05
4.85616e-05
4.81422e-05
4.76502e-05
4.72095e-05
4.64723e-05
4.57382e-05
4.468e-05
4.33749e-05
4.17105e-05
3.96569e-05
3.72956e-05
3.46798e-05
3.18648e-05
2.88389e-05
2.5531e-05
2.23663e-05
2.01018e-05
1.88638e-05
1.79298e-05
1.75589e-05
1.71204e-05
1.69283e-05
1.68712e-05
1.69782e-05
1.73362e-05
1.80799e-05
1.95951e-05
2.21232e-05
2.43463e-05
2.543e-05
2.18896e-05
1.64079e-05
1.41722e-05
1.33455e-05
1.30272e-05
1.27799e-05
1.23774e-05
1.17316e-05
1.06043e-05
8.91902e-06
4.63301e-05
4.56835e-05
4.47607e-05
4.39599e-05
4.34241e-05
4.29522e-05
4.21994e-05
4.18437e-05
4.11744e-05
4.02429e-05
3.9422e-05
3.81501e-05
3.65817e-05
3.47142e-05
3.22672e-05
2.96153e-05
2.68405e-05
2.38772e-05
2.14137e-05
1.96093e-05
1.8387e-05
1.73933e-05
1.70979e-05
1.6394e-05
1.57411e-05
1.5378e-05
1.51629e-05
1.49944e-05
1.48565e-05
1.47624e-05
1.47312e-05
1.49327e-05
1.54735e-05
1.6143e-05
1.65742e-05
1.56822e-05
3.84139e-05
3.70426e-05
3.65923e-05
3.52107e-05
3.47504e-05
3.38688e-05
3.28193e-05
3.23005e-05
3.13239e-05
2.99886e-05
2.92533e-05
2.76844e-05
2.62704e-05
2.45923e-05
2.25395e-05
2.08561e-05
1.9205e-05
1.78515e-05
1.67703e-05
1.6075e-05
1.57763e-05
1.53625e-05
1.47275e-05
1.40518e-05
1.3596e-05
1.33075e-05
1.3112e-05
1.29763e-05
1.29008e-05
1.28759e-05
1.29138e-05
1.30231e-05
1.32119e-05
1.33939e-05
1.34929e-05
2.83305e-05
2.61433e-05
2.58725e-05
2.4323e-05
2.39185e-05
2.25793e-05
2.16519e-05
2.10913e-05
2.00485e-05
1.89659e-05
1.84703e-05
1.71691e-05
1.66512e-05
1.56226e-05
1.50096e-05
1.4322e-05
1.38022e-05
1.3376e-05
1.3082e-05
1.27553e-05
1.23511e-05
1.18685e-05
1.13571e-05
1.09154e-05
1.05904e-05
1.03594e-05
1.01956e-05
1.01006e-05
1.00633e-05
1.00902e-05
1.01825e-05
1.03314e-05
1.05133e-05
1.06311e-05
1.06732e-05
2.08136e-05
1.92204e-05
1.87715e-05
1.78898e-05
1.6568e-05
1.54101e-05
1.49635e-05
1.41127e-05
1.28491e-05
1.23181e-05
1.17247e-05
1.08131e-05
1.04457e-05
9.64978e-06
9.33396e-06
8.7841e-06
8.47066e-06
8.10619e-06
7.77671e-06
7.45201e-06
7.14132e-06
6.84471e-06
6.57682e-06
6.35563e-06
6.19072e-06
6.07795e-06
6.00986e-06
5.97076e-06
5.94608e-06
5.93102e-06
5.91875e-06
5.90089e-06
5.87013e-06
5.82393e-06
5.74242e-06
0.000412723
0.000438146
0.000467285
0.000475343
0.000471504
0.000458766
0.000447238
0.000423107
0.00038955
0.000350294
0.000286746
0.000226119
0.000202718
0.000199851
0.000197829
0.000191006
0.000173292
0.000155624
0.000146218
0.000141082
0.000135154
0.000131074
0.000125934
0.000112159
9.31501e-05
8.27171e-05
8.03056e-05
8.19541e-05
8.80554e-05
9.24718e-05
9.58348e-05
9.82248e-05
9.80641e-05
9.62564e-05
9.68394e-05
9.90957e-05
0.000103161
0.000102152
9.34117e-05
8.24935e-05
7.40396e-05
5.25139e-05
1.75385e-05
5.18683e-06
0.000664009
0.000650345
0.000669219
0.000689352
0.000688021
0.000679775
0.000670377
0.000644972
0.000577996
0.000490622
0.000427082
0.000401642
0.000398753
0.000390364
0.000349145
0.000286305
0.000251399
0.000227118
0.000211431
0.00018995
0.000160386
0.000135724
0.000120908
0.0001146
0.000115891
0.00012287
0.000127891
0.000131886
0.00013466
0.000135033
0.000135418
0.000136009
0.000133079
0.000127836
0.000132087
0.000143219
0.000149415
0.000144423
0.000128379
0.000113498
7.27018e-05
3.17787e-05
1.17341e-05
5.068e-06
0.000422304
0.000399479
0.000395438
0.000396223
0.000388363
0.000379977
0.000372217
0.000365519
0.000356771
0.000342016
0.000324343
0.00031809
0.000310017
0.000284881
0.000255367
0.000215717
0.00017971
0.000153972
0.000133736
0.000115325
9.98167e-05
8.90225e-05
8.38164e-05
8.30044e-05
8.38386e-05
8.41619e-05
8.49064e-05
8.57227e-05
8.70471e-05
8.99517e-05
9.5154e-05
0.000101515
0.000108779
0.000116077
0.000125
0.000134678
0.000139551
0.000134896
0.000110032
7.99822e-05
5.64395e-05
2.90931e-05
1.54712e-05
1.06426e-05
5.62368e-06
0.000234546
0.000218008
0.000203236
0.000191071
0.000180847
0.00017379
0.000168335
0.000165294
0.000161379
0.000155099
0.000145298
0.000134449
0.000121474
0.000110108
0.000100722
8.96149e-05
7.96893e-05
7.13203e-05
6.39874e-05
5.79274e-05
5.41232e-05
5.24328e-05
5.21659e-05
5.23944e-05
5.23816e-05
5.27846e-05
5.42125e-05
5.65109e-05
6.03192e-05
6.70222e-05
7.49531e-05
8.25578e-05
9.12719e-05
0.00010108
0.000110027
0.000121894
0.000114927
5.67289e-05
3.13645e-05
2.63003e-05
2.10075e-05
1.63047e-05
1.36751e-05
1.0964e-05
6.17154e-06
0.000103685
9.73399e-05
9.12377e-05
8.61735e-05
8.18881e-05
7.81695e-05
7.5061e-05
7.19857e-05
6.90085e-05
6.56107e-05
6.27045e-05
6.02593e-05
5.82678e-05
5.60818e-05
5.34026e-05
5.05439e-05
4.74685e-05
4.45114e-05
4.22336e-05
4.05404e-05
3.90651e-05
3.76795e-05
3.65455e-05
3.59425e-05
3.64049e-05
3.84757e-05
4.20308e-05
4.71738e-05
5.4169e-05
6.1505e-05
6.93084e-05
7.98811e-05
8.99383e-05
9.73859e-05
9.94194e-05
8.00443e-05
2.90737e-05
1.73702e-05
1.65675e-05
1.60921e-05
1.52638e-05
1.38497e-05
1.21204e-05
8.69928e-06
7.49795e-05
7.10463e-05
6.77866e-05
6.50844e-05
6.29479e-05
6.10522e-05
5.94328e-05
5.78979e-05
5.63496e-05
5.47574e-05
5.32657e-05
5.18454e-05
5.03533e-05
4.85857e-05
4.63785e-05
4.37787e-05
4.10342e-05
3.84196e-05
3.59995e-05
3.36042e-05
3.12329e-05
2.92604e-05
2.79208e-05
2.72673e-05
2.7568e-05
2.90635e-05
3.13645e-05
3.48001e-05
3.9668e-05
4.55523e-05
5.32584e-05
6.38983e-05
7.40109e-05
7.96104e-05
7.80917e-05
4.96746e-05
2.02301e-05
1.61225e-05
1.56592e-05
1.54732e-05
1.49597e-05
1.40247e-05
1.28124e-05
1.13356e-05
6.5756e-05
6.34968e-05
6.14219e-05
5.9614e-05
5.83226e-05
5.70735e-05
5.60832e-05
5.51493e-05
5.42846e-05
5.33042e-05
5.22256e-05
5.09597e-05
4.94842e-05
4.77421e-05
4.56647e-05
4.32148e-05
4.04479e-05
3.75503e-05
3.46928e-05
3.19316e-05
2.92925e-05
2.69065e-05
2.50844e-05
2.37737e-05
2.31453e-05
2.29423e-05
2.31816e-05
2.39747e-05
2.52283e-05
2.705e-05
2.95243e-05
3.37378e-05
4.0513e-05
4.70789e-05
5.01431e-05
4.32919e-05
2.55342e-05
1.79454e-05
1.60627e-05
1.5545e-05
1.52263e-05
1.46925e-05
1.3882e-05
1.26765e-05
1.14326e-05
5.81483e-05
5.69812e-05
5.55599e-05
5.4202e-05
5.34103e-05
5.24583e-05
5.17393e-05
5.09329e-05
5.02143e-05
4.92638e-05
4.82324e-05
4.69733e-05
4.54412e-05
4.35711e-05
4.1284e-05
3.86188e-05
3.5707e-05
3.27697e-05
3.00149e-05
2.75503e-05
2.5496e-05
2.40131e-05
2.29942e-05
2.20108e-05
2.08263e-05
2.02385e-05
2.00491e-05
2.0049e-05
2.02327e-05
2.06065e-05
2.12274e-05
2.23755e-05
2.43645e-05
2.63193e-05
2.73685e-05
2.41624e-05
1.9244e-05
1.68575e-05
1.57529e-05
1.523e-05
1.48266e-05
1.42804e-05
1.34721e-05
1.21324e-05
1.01848e-05
5.07873e-05
4.99297e-05
4.89265e-05
4.76826e-05
4.71522e-05
4.63203e-05
4.55235e-05
4.47884e-05
4.39987e-05
4.29353e-05
4.18234e-05
4.04341e-05
3.87204e-05
3.67651e-05
3.44228e-05
3.19354e-05
2.93977e-05
2.69705e-05
2.49281e-05
2.33122e-05
2.2124e-05
2.1363e-05
2.03571e-05
1.91195e-05
1.82612e-05
1.78236e-05
1.76001e-05
1.74953e-05
1.74747e-05
1.75444e-05
1.76983e-05
1.79864e-05
1.84997e-05
1.90888e-05
1.94215e-05
1.84442e-05
4.29567e-05
4.1654e-05
4.10479e-05
3.94838e-05
3.90871e-05
3.81216e-05
3.70564e-05
3.62274e-05
3.53077e-05
3.40136e-05
3.28445e-05
3.14751e-05
2.97991e-05
2.82164e-05
2.63197e-05
2.46551e-05
2.30392e-05
2.16739e-05
2.06096e-05
1.97073e-05
1.88872e-05
1.79911e-05
1.70241e-05
1.61744e-05
1.56101e-05
1.52739e-05
1.50735e-05
1.49707e-05
1.49406e-05
1.49921e-05
1.51202e-05
1.5321e-05
1.55834e-05
1.57716e-05
1.58407e-05
3.25122e-05
3.10428e-05
3.07023e-05
2.87778e-05
2.86992e-05
2.75734e-05
2.62912e-05
2.57099e-05
2.50056e-05
2.36778e-05
2.28368e-05
2.19661e-05
2.06321e-05
1.99417e-05
1.87777e-05
1.80066e-05
1.71402e-05
1.64064e-05
1.57146e-05
1.50534e-05
1.44006e-05
1.37282e-05
1.3084e-05
1.25575e-05
1.2182e-05
1.19254e-05
1.17567e-05
1.1671e-05
1.16502e-05
1.17138e-05
1.18496e-05
1.20451e-05
1.22683e-05
1.24006e-05
1.24416e-05
2.34951e-05
2.17048e-05
2.07062e-05
2.01321e-05
1.89457e-05
1.74617e-05
1.7006e-05
1.62088e-05
1.48466e-05
1.41101e-05
1.35587e-05
1.24643e-05
1.20654e-05
1.11061e-05
1.07216e-05
1.00772e-05
9.63059e-06
9.16349e-06
8.73829e-06
8.33398e-06
7.9569e-06
7.60879e-06
7.30339e-06
7.05558e-06
6.87262e-06
6.7491e-06
6.67813e-06
6.64517e-06
6.63279e-06
6.63307e-06
6.64019e-06
6.64358e-06
6.63237e-06
6.60242e-06
6.5183e-06
0.000364996
0.000387186
0.000405764
0.000403293
0.000384129
0.000347911
0.000313864
0.000281921
0.000258159
0.00023796
0.000216187
0.000204982
0.000204747
0.000206609
0.000203584
0.000190927
0.000168101
0.000149155
0.00013807
0.000130423
0.000123657
0.000118701
0.000109036
8.55035e-05
6.16588e-05
5.65737e-05
5.86222e-05
6.69764e-05
7.79635e-05
8.13793e-05
8.5425e-05
8.84262e-05
8.63325e-05
7.76171e-05
7.82814e-05
8.5573e-05
9.85283e-05
9.90869e-05
9.34479e-05
8.53087e-05
7.53886e-05
4.82859e-05
1.47834e-05
5.00365e-06
0.000606442
0.000611298
0.000628584
0.000619751
0.000597441
0.000574126
0.000540536
0.000491626
0.000444238
0.000409944
0.000398067
0.00040413
0.000409819
0.000400766
0.000350249
0.000285003
0.000237663
0.000196876
0.000175657
0.000153811
0.000128341
0.000107162
9.21497e-05
8.51452e-05
8.78527e-05
9.84386e-05
0.000107719
0.000115163
0.000120934
0.000123744
0.000125684
0.000125562
0.000117624
0.000112545
0.000120985
0.000145954
0.000158091
0.000154659
0.000143126
0.00012314
6.97335e-05
2.81067e-05
1.13756e-05
5.24177e-06
0.00041827
0.000402715
0.000397178
0.000394219
0.000385079
0.000374986
0.000364913
0.00035618
0.000348144
0.000339984
0.00033251
0.000329341
0.000317152
0.000286872
0.000254163
0.000213016
0.000173635
0.000140536
0.000116278
9.77598e-05
8.1817e-05
6.97747e-05
6.31773e-05
6.34181e-05
6.60088e-05
6.79017e-05
7.07664e-05
7.35412e-05
7.60146e-05
7.985e-05
8.513e-05
9.0656e-05
9.88246e-05
0.000112333
0.000128538
0.00014685
0.000156582
0.000151857
0.000122959
8.75356e-05
5.74643e-05
2.74075e-05
1.60448e-05
1.14958e-05
5.99027e-06
0.00024822
0.000231814
0.000217231
0.000203757
0.000191823
0.000182297
0.000174495
0.00016934
0.000164588
0.000158579
0.000149492
0.000137373
0.000122537
0.000109995
9.88911e-05
8.60101e-05
7.38435e-05
6.40472e-05
5.63822e-05
5.03636e-05
4.67651e-05
4.52222e-05
4.50871e-05
4.56377e-05
4.60326e-05
4.68254e-05
4.84823e-05
5.0722e-05
5.39732e-05
5.91054e-05
6.52944e-05
7.17833e-05
8.16317e-05
9.84175e-05
0.000116686
0.000133396
0.000120729
6.02837e-05
3.62198e-05
2.887e-05
2.24263e-05
1.77737e-05
1.50968e-05
1.21035e-05
6.63965e-06
0.000126109
0.000116492
0.00010771
0.000100003
9.34954e-05
8.7891e-05
8.32048e-05
7.89453e-05
7.48496e-05
7.04811e-05
6.63944e-05
6.28308e-05
5.97888e-05
5.66292e-05
5.30892e-05
4.96348e-05
4.63059e-05
4.32434e-05
4.10638e-05
3.9708e-05
3.85806e-05
3.74987e-05
3.66618e-05
3.62418e-05
3.66619e-05
3.8229e-05
4.07712e-05
4.44478e-05
4.94178e-05
5.49706e-05
6.14268e-05
7.17088e-05
8.57392e-05
9.92855e-05
0.000102788
7.4706e-05
2.71884e-05
1.97894e-05
1.87451e-05
1.80131e-05
1.69805e-05
1.53179e-05
1.33203e-05
9.56835e-06
9.27929e-05
8.64334e-05
8.11277e-05
7.65369e-05
7.27899e-05
6.95769e-05
6.6783e-05
6.42786e-05
6.18149e-05
5.93877e-05
5.70847e-05
5.49363e-05
5.28376e-05
5.06253e-05
4.81473e-05
4.53844e-05
4.2504e-05
3.98129e-05
3.75536e-05
3.55939e-05
3.36966e-05
3.21149e-05
3.1026e-05
3.04349e-05
3.02812e-05
3.0888e-05
3.2271e-05
3.45817e-05
3.78742e-05
4.206e-05
4.78817e-05
5.68571e-05
6.74699e-05
7.60127e-05
7.37917e-05
4.02449e-05
2.12212e-05
1.82657e-05
1.76491e-05
1.72612e-05
1.65475e-05
1.54012e-05
1.39661e-05
1.22772e-05
7.83472e-05
7.47488e-05
7.1373e-05
6.8489e-05
6.61132e-05
6.39458e-05
6.21443e-05
6.04593e-05
5.89765e-05
5.74578e-05
5.58971e-05
5.42554e-05
5.24684e-05
5.05025e-05
4.82912e-05
4.57629e-05
4.29348e-05
3.99777e-05
3.71193e-05
3.45356e-05
3.2241e-05
3.02682e-05
2.87498e-05
2.7456e-05
2.62657e-05
2.56841e-05
2.5643e-05
2.61537e-05
2.70447e-05
2.8328e-05
3.00351e-05
3.27128e-05
3.73022e-05
4.25166e-05
4.5664e-05
3.91763e-05
2.51542e-05
1.98789e-05
1.80159e-05
1.73379e-05
1.68507e-05
1.61592e-05
1.51888e-05
1.37868e-05
1.2329e-05
6.49561e-05
6.33787e-05
6.14284e-05
5.96968e-05
5.84267e-05
5.71216e-05
5.60571e-05
5.49046e-05
5.3908e-05
5.2741e-05
5.14753e-05
5.0087e-05
4.84543e-05
4.65611e-05
4.43068e-05
4.1686e-05
3.87952e-05
3.58598e-05
3.3136e-05
3.07862e-05
2.88477e-05
2.73054e-05
2.59174e-05
2.43152e-05
2.30026e-05
2.24078e-05
2.22125e-05
2.2244e-05
2.24846e-05
2.28858e-05
2.34231e-05
2.42204e-05
2.55063e-05
2.68423e-05
2.75867e-05
2.50411e-05
2.10722e-05
1.87101e-05
1.74756e-05
1.68264e-05
1.63098e-05
1.56415e-05
1.4692e-05
1.31745e-05
1.09855e-05
5.51961e-05
5.42792e-05
5.31088e-05
5.17463e-05
5.11029e-05
5.01916e-05
4.93626e-05
4.84195e-05
4.76047e-05
4.6514e-05
4.52854e-05
4.39387e-05
4.22416e-05
4.03578e-05
3.81325e-05
3.57024e-05
3.31641e-05
3.07212e-05
2.85707e-05
2.6764e-05
2.52468e-05
2.38554e-05
2.23429e-05
2.09548e-05
2.00594e-05
1.95937e-05
1.9375e-05
1.93008e-05
1.93583e-05
1.95323e-05
1.98041e-05
2.01749e-05
2.06632e-05
2.10656e-05
2.12261e-05
2.02061e-05
4.64907e-05
4.54391e-05
4.4746e-05
4.32482e-05
4.28141e-05
4.20726e-05
4.11259e-05
4.01056e-05
3.9433e-05
3.82202e-05
3.69187e-05
3.57474e-05
3.39966e-05
3.24374e-05
3.04915e-05
2.86327e-05
2.67569e-05
2.50482e-05
2.3523e-05
2.21543e-05
2.09111e-05
1.9722e-05
1.86026e-05
1.76899e-05
1.70786e-05
1.67148e-05
1.65168e-05
1.64319e-05
1.6439e-05
1.65444e-05
1.67292e-05
1.69777e-05
1.72626e-05
1.74278e-05
1.74397e-05
3.54618e-05
3.45675e-05
3.41894e-05
3.22225e-05
3.20147e-05
3.15294e-05
3.03046e-05
2.9433e-05
2.91865e-05
2.77228e-05
2.65947e-05
2.59448e-05
2.42011e-05
2.3476e-05
2.19103e-05
2.08632e-05
1.96359e-05
1.85768e-05
1.75836e-05
1.66815e-05
1.58406e-05
1.50413e-05
1.43226e-05
1.37503e-05
1.33427e-05
1.30688e-05
1.28988e-05
1.28177e-05
1.28111e-05
1.28982e-05
1.306e-05
1.32787e-05
1.35145e-05
1.36427e-05
1.36661e-05
2.50404e-05
2.38611e-05