/*--------------------------------*- C++ -*----------------------------------*\
| =========                 |                                                 |
| \\      /  F ield         | OpenFOAM: The Open Source CFD Toolbox           |
|  \\    /   O peration     | Version:  2.3.1                                 |
|   \\  /    A nd           | Web:      www.OpenFOAM.org                      |
|    \\/     M anipulation  |                                                 |
\*---------------------------------------------------------------------------*/
FoamFile
{
    version     2.0;
    format      ascii;
    class       volScalarField;
    location    "20";
    object      nut;
}
// * * * * * * * * * * * * * * * * * * * * * * * * * * * * * * * * * * * * * //

dimensions      [0 2 -1 0 0 0 0];

internalField   nonuniform List<scalar> 
38152
(
2.564e-05
2.55701e-05
2.53044e-05
2.4466e-05
2.41863e-05
2.44325e-05
2.47505e-05
2.46851e-05
2.40898e-05
2.3334e-05
2.30878e-05
2.23328e-05
1.9075e-05
1.50559e-05
1.33134e-05
1.2773e-05
1.24866e-05
1.22538e-05
1.20863e-05
1.17814e-05
1.154e-05
1.14365e-05
1.13718e-05
1.14264e-05
1.18439e-05
1.21744e-05
1.21926e-05
1.21391e-05
1.19126e-05
1.1264e-05
1.08865e-05
1.07378e-05
1.05107e-05
1.04724e-05
1.05406e-05
1.05566e-05
1.05039e-05
1.05225e-05
1.04415e-05
9.87523e-06
9.25134e-06
7.85474e-06
4.6682e-06
2.9161e-06
2.89032e-05
2.8061e-05
2.59885e-05
2.22166e-05
2.06201e-05
2.05746e-05
2.09032e-05
2.09597e-05
2.04646e-05
1.92675e-05
1.7584e-05
1.60489e-05
1.49712e-05
1.45628e-05
1.39513e-05
1.19421e-05
1.09751e-05
1.10043e-05
1.08883e-05
1.0759e-05
1.1003e-05
1.1381e-05
1.16834e-05
1.18785e-05
1.20173e-05
1.20075e-05
1.17115e-05
1.12314e-05
1.11636e-05
1.10512e-05
1.07392e-05
1.04336e-05
1.04331e-05
1.0702e-05
1.06918e-05
1.05246e-05
9.68617e-06
8.81973e-06
8.68464e-06
8.30106e-06
7.37876e-06
5.47468e-06
3.19427e-06
3.06882e-06
2.70345e-05
2.38356e-05
1.71797e-05
1.35535e-05
1.24856e-05
1.24634e-05
1.25256e-05
1.25535e-05
1.24266e-05
1.19435e-05
1.10125e-05
1.08763e-05
1.09417e-05
1.08008e-05
1.05206e-05
9.91018e-06
9.4968e-06
9.32673e-06
9.06984e-06
8.90141e-06
8.94686e-06
9.13153e-06
9.40381e-06
9.66772e-06
9.82628e-06
9.85789e-06
9.76187e-06
9.36932e-06
9.32352e-06
9.4417e-06
9.45737e-06
9.568e-06
9.93826e-06
1.00998e-05
1.01702e-05
1.00141e-05
8.86533e-06
6.22415e-06
5.64533e-06
5.76284e-06
5.48251e-06
4.56657e-06
3.40893e-06
2.6495e-06
3.12384e-06
1.39566e-05
1.11445e-05
9.78284e-06
9.2872e-06
9.12229e-06
9.10478e-06
9.19718e-06
9.21129e-06
9.01359e-06
8.77388e-06
8.52418e-06
8.40884e-06
8.299e-06
8.19015e-06
8.09832e-06
7.94838e-06
7.83696e-06
7.74539e-06
7.68765e-06
7.68767e-06
7.76287e-06
7.89655e-06
8.05332e-06
8.1567e-06
8.1711e-06
8.11363e-06
8.0084e-06
8.00984e-06
8.20698e-06
8.69648e-06
8.86312e-06
9.12505e-06
9.61996e-06
9.72593e-06
9.68341e-06
9.36009e-06
7.31575e-06
3.96841e-06
3.71285e-06
3.88935e-06
3.68415e-06
3.27431e-06
2.91701e-06
2.63691e-06
3.19197e-06
8.39292e-06
8.18417e-06
8.01318e-06
7.91411e-06
7.78951e-06
7.73757e-06
7.62255e-06
7.52245e-06
7.43975e-06
7.34612e-06
7.29854e-06
7.2517e-06
7.21433e-06
7.14859e-06
7.05558e-06
6.96075e-06
6.89652e-06
6.86726e-06
6.88054e-06
6.93126e-06
6.99543e-06
7.04696e-06
7.05411e-06
6.98563e-06
6.92704e-06
6.86027e-06
6.81033e-06
6.84418e-06
7.03779e-06
7.23966e-06
7.63797e-06
8.46631e-06
8.70243e-06
8.62405e-06
8.41142e-06
7.33012e-06
4.49546e-06
3.15769e-06
3.13276e-06
3.07982e-06
2.97506e-06
2.85591e-06
2.70101e-06
2.45305e-06
8.00158e-06
7.92589e-06
7.81865e-06
7.72128e-06
7.67418e-06
7.59746e-06
7.52425e-06
7.46515e-06
7.37195e-06
7.29603e-06
7.2112e-06
7.11591e-06
7.0195e-06
6.91686e-06
6.81964e-06
6.74081e-06
6.68201e-06
6.63865e-06
6.61561e-06
6.60153e-06
6.5501e-06
6.48777e-06
6.38896e-06
6.31567e-06
5.86575e-06
5.11935e-06
4.83223e-06
4.90495e-06
5.2058e-06
5.79108e-06
6.44836e-06
7.17453e-06
7.4228e-06
7.43329e-06
7.36839e-06
6.5032e-06
3.96977e-06
3.04026e-06
3.00085e-06
2.97752e-06
2.92344e-06
2.84185e-06
2.71164e-06
2.56366e-06
7.98412e-06
7.88878e-06
7.85421e-06
7.72599e-06
7.67312e-06
7.61709e-06
7.52497e-06
7.48604e-06
7.40598e-06
7.32525e-06
7.2619e-06
7.16631e-06
7.07732e-06
6.97652e-06
6.87118e-06
6.76752e-06
6.6657e-06
6.57821e-06
6.50888e-06
6.45193e-06
6.38673e-06
6.28061e-06
6.16563e-06
5.95032e-06
4.91139e-06
3.6385e-06
3.30332e-06
3.3073e-06
3.44074e-06
3.72235e-06
4.08235e-06
4.53085e-06
5.01132e-06
5.34226e-06
5.73691e-06
5.77134e-06
4.45057e-06
3.22059e-06
2.97656e-06
2.94553e-06
2.91952e-06
2.87396e-06
2.8087e-06
2.68476e-06
2.5508e-06
7.84628e-06
7.72038e-06
7.70197e-06
7.60957e-06
7.56999e-06
7.54239e-06
7.47832e-06
7.4669e-06
7.36914e-06
7.33424e-06
7.24082e-06
7.16298e-06
7.06232e-06
6.95394e-06
6.83188e-06
6.70404e-06
6.57998e-06
6.46729e-06
6.36659e-06
6.26218e-06
6.13489e-06
6.00705e-06
5.73896e-06
4.62753e-06
3.43382e-06
3.22935e-06
3.20858e-06
3.20164e-06
3.21216e-06
3.26587e-06
3.38724e-06
3.60404e-06
3.90143e-06
4.19509e-06
4.37881e-06
4.0853e-06
3.35292e-06
3.01956e-06
2.94042e-06
2.90627e-06
2.87312e-06
2.82534e-06
2.75627e-06
2.62766e-06
2.41188e-06
7.38822e-06
7.18163e-06
7.21174e-06
7.12721e-06
7.14206e-06
7.13938e-06
7.13257e-06
7.13469e-06
7.08949e-06
7.08006e-06
6.99909e-06
6.94887e-06
6.84682e-06
6.74357e-06
6.61068e-06
6.46761e-06
6.3196e-06
6.16235e-06
6.00456e-06
5.85028e-06
5.65152e-06
5.21358e-06
4.23697e-06
3.41629e-06
3.23196e-06
3.20506e-06
3.18706e-06
3.16251e-06
3.14092e-06
3.1314e-06
3.15847e-06
3.22709e-06
3.32674e-06
3.39815e-06
3.4208e-06
3.22934e-06
6.83618e-06
6.61698e-06
6.59135e-06
6.37981e-06
6.31213e-06
6.26e-06
6.24195e-06
6.23917e-06
6.22769e-06
6.25235e-06
6.23178e-06
6.22603e-06
6.17538e-06
6.11498e-06
6.01271e-06
5.87962e-06
5.70311e-06
5.45824e-06
5.13969e-06
4.74074e-06
4.27141e-06
3.75001e-06
3.36369e-06
3.2083e-06
3.15265e-06
3.1194e-06
3.08657e-06
3.06039e-06
3.04378e-06
3.03653e-06
3.03709e-06
3.04796e-06
3.06241e-06
3.06794e-06
3.03554e-06
6.24151e-06
6.15201e-06
6.05819e-06
5.85188e-06
5.7097e-06
5.65598e-06
5.51488e-06
5.46516e-06
5.35371e-06
5.36855e-06
5.24721e-06
5.24907e-06
5.11288e-06
5.05013e-06
4.90263e-06
4.71883e-06
4.48527e-06
4.20158e-06
3.90072e-06
3.62427e-06
3.39081e-06
3.20151e-06
3.07104e-06
2.98257e-06
2.91901e-06
2.8659e-06
2.82568e-06
2.80023e-06
2.78797e-06
2.78435e-06
2.78956e-06
2.79671e-06
2.80015e-06
2.79007e-06
2.75384e-06
5.11605e-06
5.09645e-06
4.90233e-06
4.84722e-06
4.67189e-06
4.64725e-06
4.49124e-06
4.43158e-06
4.31457e-06
4.28557e-06
4.12312e-06
4.09247e-06
3.90548e-06
3.83361e-06
3.6543e-06
3.49818e-06
3.31544e-06
3.14051e-06
2.98002e-06
2.84053e-06
2.7181e-06
2.612e-06
2.52534e-06
2.45724e-06
2.40456e-06
2.36569e-06
2.33862e-06
2.31965e-06
2.30566e-06
2.29406e-06
2.28153e-06
2.2637e-06
2.23686e-06
2.19882e-06
2.15024e-06
5.59126e-05
5.52328e-05
5.52685e-05
5.53155e-05
5.60696e-05
5.66663e-05
5.65045e-05
5.5315e-05
5.43628e-05
5.38486e-05
5.25053e-05
4.7566e-05
3.80135e-05
3.27678e-05
3.14051e-05
3.10669e-05
3.05685e-05
2.99443e-05
2.91838e-05
2.84832e-05
2.80787e-05
2.74488e-05
2.72944e-05
2.75964e-05
2.77044e-05
2.76635e-05
2.73993e-05
2.65051e-05
2.51553e-05
2.45199e-05
2.44266e-05
2.42509e-05
2.40458e-05
2.41896e-05
2.43939e-05
2.43346e-05
2.42336e-05
2.39589e-05
2.29962e-05
2.13111e-05
2.02677e-05
1.78e-05
1.07417e-05
5.74114e-06
8.35821e-05
7.25706e-05
5.46536e-05
6.36489e-05
8.34242e-05
9.78277e-05
9.93646e-05
9.83824e-05
9.39799e-05
8.55809e-05
7.3002e-05
6.03912e-05
5.97371e-05
6.01376e-05
5.10427e-05
3.8259e-05
4.23307e-05
4.83903e-05
5.00828e-05
5.103e-05
4.86048e-05
4.49479e-05
4.27616e-05
4.25755e-05
4.3086e-05
4.29674e-05
4.2237e-05
4.29723e-05
4.39683e-05
4.38933e-05
4.04646e-05
3.81015e-05
4.16714e-05
4.45664e-05
4.20181e-05
3.52205e-05
3.23475e-05
2.4379e-05
2.02852e-05
2.17599e-05
2.15221e-05
1.37261e-05
7.08903e-06
5.59468e-06
5.16505e-05
3.86379e-05
4.561e-05
5.71977e-05
6.19792e-05
6.43232e-05
6.50936e-05
6.4302e-05
6.18224e-05
5.70406e-05
5.15736e-05
5.13017e-05
5.29503e-05
5.34711e-05
5.18684e-05
4.75445e-05
4.63766e-05
4.66437e-05
4.53683e-05
4.3373e-05
4.18993e-05
4.10177e-05
4.07251e-05
4.02013e-05
3.95412e-05
3.83155e-05
3.70846e-05
3.61814e-05
3.8299e-05
3.89206e-05
3.97333e-05
4.19983e-05
4.48336e-05
4.63602e-05
4.52834e-05
3.47338e-05
2.57737e-05
2.55087e-05
2.40549e-05
1.85639e-05
1.6046e-05
1.21842e-05
7.80854e-06
8.37198e-06
5.72615e-06
3.81124e-05
4.75277e-05
4.71775e-05
4.62122e-05
4.44773e-05
4.45261e-05
4.46639e-05
4.51177e-05
4.41543e-05
4.22529e-05
3.9987e-05
3.85168e-05
3.72076e-05
3.64198e-05
3.59686e-05
3.61526e-05
3.65214e-05
3.62243e-05
3.55229e-05
3.48858e-05
3.45006e-05
3.43392e-05
3.40442e-05
3.33044e-05
3.23103e-05
3.13221e-05
3.11825e-05
3.21284e-05
3.32914e-05
3.48041e-05
3.70426e-05
4.05417e-05
4.33194e-05
4.40263e-05
4.06399e-05
3.02868e-05
2.30346e-05
1.09028e-05
8.86336e-06
8.90135e-06
8.69183e-06
9.17478e-06
1.07783e-05
1.03817e-05
5.93368e-06
3.58118e-05
3.65405e-05
3.51036e-05
3.46048e-05
3.40939e-05
3.37893e-05
3.36581e-05
3.28515e-05
3.2843e-05
3.27334e-05
3.27638e-05
3.29437e-05
3.32643e-05
3.36075e-05
3.37811e-05
3.33453e-05
3.24581e-05
3.15769e-05
3.08188e-05
2.99359e-05
2.8432e-05
2.68241e-05
2.47601e-05
2.25595e-05
2.0486e-05
2.01875e-05
2.0783e-05
2.20556e-05
2.53868e-05
3.13661e-05
3.598e-05
3.84574e-05
3.96565e-05
3.63541e-05
2.73183e-05
1.80756e-05
8.49931e-06
7.54441e-06
9.42024e-06
1.12596e-05
1.3098e-05
1.35111e-05
1.2832e-05
8.56941e-06
3.71166e-05
3.73222e-05
3.70438e-05
3.72402e-05
3.7354e-05
3.74338e-05
3.74156e-05
3.72115e-05
3.70605e-05
3.67906e-05
3.64746e-05
3.61845e-05
3.57895e-05
3.51558e-05
3.41051e-05
3.26568e-05
3.10732e-05
2.92854e-05
2.71647e-05
2.47186e-05
2.16826e-05
1.87476e-05
1.43048e-05
9.82389e-06
9.25995e-06
1.07948e-05
1.35446e-05
1.85168e-05
2.35111e-05
2.73115e-05
2.98666e-05
3.25821e-05
3.42949e-05
3.05924e-05
2.41173e-05
1.49271e-05
7.13174e-06
1.01985e-05
1.30591e-05
1.47028e-05
1.55454e-05
1.55562e-05
1.48707e-05
1.29016e-05
3.6873e-05
3.61756e-05
3.62814e-05
3.66126e-05
3.64098e-05
3.68865e-05
3.70001e-05
3.73592e-05
3.75854e-05
3.7676e-05
3.75754e-05
3.72399e-05
3.66001e-05
3.56555e-05
3.41634e-05
3.23842e-05
3.02743e-05
2.78798e-05
2.50842e-05
2.21162e-05
1.92547e-05
1.57036e-05
1.12051e-05
7.19414e-06
8.04959e-06
1.10369e-05
1.46788e-05
1.60051e-05
1.65032e-05
1.70484e-05
1.77808e-05
1.9412e-05
2.1364e-05
2.26875e-05
2.12158e-05
1.68519e-05
8.97926e-06
9.44619e-06
1.33284e-05
1.53907e-05
1.64289e-05
1.67719e-05
1.63868e-05
1.54328e-05
1.37407e-05
3.61857e-05
3.55175e-05
3.51976e-05
3.51597e-05
3.48834e-05
3.50888e-05
3.49461e-05
3.518e-05
3.51095e-05
3.47593e-05
3.45377e-05
3.38024e-05
3.28742e-05
3.14821e-05
2.96291e-05
2.73242e-05
2.45927e-05
2.15952e-05
1.88567e-05
1.60638e-05
1.25851e-05
9.30935e-06
7.13165e-06
8.89587e-06
1.43406e-05
1.80978e-05
1.87429e-05
1.78866e-05
1.63312e-05
1.46848e-05
1.32939e-05
1.26323e-05
1.2791e-05
1.25924e-05
1.20563e-05
9.90295e-06
1.01168e-05
1.37948e-05
1.58896e-05
1.6893e-05
1.73486e-05
1.73021e-05
1.66335e-05
1.51859e-05
1.21098e-05
3.41567e-05
3.28124e-05
3.14401e-05
3.07529e-05
2.94849e-05
2.90749e-05
2.8265e-05
2.8009e-05
2.73773e-05
2.67662e-05
2.61816e-05
2.52182e-05
2.39649e-05
2.24519e-05
2.04638e-05
1.83639e-05
1.62478e-05
1.38448e-05
1.10238e-05
8.63918e-06
7.32165e-06
7.16278e-06
9.45213e-06
1.47168e-05
1.87274e-05
2.02121e-05
2.01902e-05
1.94734e-05
1.81891e-05
1.63905e-05
1.45608e-05
1.27692e-05
1.15956e-05
1.11929e-05
1.1124e-05
1.20963e-05
2.94949e-05
2.8073e-05
2.64441e-05
2.59553e-05
2.34632e-05
2.16703e-05
2.01054e-05
1.88727e-05
1.78269e-05
1.64808e-05
1.59238e-05
1.4822e-05
1.39151e-05
1.29924e-05
1.11713e-05
9.7042e-06
8.36105e-06
7.30016e-06
7.10151e-06
7.36652e-06
8.40005e-06
1.0958e-05
1.46775e-05
1.74828e-05
1.86625e-05
1.87132e-05
1.84553e-05
1.80699e-05
1.76075e-05
1.70203e-05
1.63122e-05
1.54616e-05
1.45982e-05
1.42717e-05
1.42922e-05
2.02256e-05
1.78946e-05
1.69755e-05
1.75761e-05
1.53554e-05
1.41182e-05
1.3097e-05
1.19082e-05
1.06021e-05
9.57529e-06
9.16541e-06
8.1313e-06
7.93132e-06
7.17116e-06
7.09316e-06
6.93387e-06
7.16299e-06
7.6015e-06
8.41489e-06
9.63499e-06
1.11809e-05
1.2802e-05
1.39432e-05
1.43204e-05
1.4124e-05
1.38452e-05
1.35579e-05
1.33183e-05
1.31796e-05
1.3104e-05
1.31226e-05
1.32119e-05
1.33303e-05
1.33696e-05
1.34807e-05
1.06803e-05
1.0395e-05
1.02552e-05
9.94522e-06
9.55684e-06
9.37654e-06
9.07863e-06
8.88888e-06
8.57049e-06
8.43166e-06
8.11256e-06
7.95343e-06
7.69035e-06
7.46769e-06
7.23778e-06
6.98844e-06
6.77409e-06
6.58183e-06
6.4272e-06
6.29068e-06
6.16617e-06
6.04865e-06
5.93723e-06
5.83866e-06
5.76205e-06
5.70716e-06
5.67058e-06
5.64466e-06
5.62322e-06
5.60335e-06
5.58194e-06
5.55513e-06
5.52042e-06
5.47738e-06
5.42598e-06
5.38947e-05
5.48728e-05
5.59199e-05
5.66285e-05
5.69268e-05
5.68154e-05
5.63491e-05
5.58863e-05
5.52659e-05
5.39338e-05
5.09462e-05
4.34689e-05
3.67317e-05
3.46392e-05
3.42172e-05
3.37946e-05
3.2825e-05
3.15318e-05
3.06586e-05
3.01694e-05
2.96279e-05
2.90675e-05
2.88253e-05
2.83803e-05
2.74248e-05
2.65476e-05
2.55217e-05
2.47402e-05
2.45973e-05
2.46832e-05
2.50109e-05
2.51742e-05
2.52495e-05
2.54171e-05
2.54828e-05
2.55224e-05
2.56327e-05
2.54166e-05
2.40987e-05
2.23124e-05
2.12165e-05
1.84708e-05
1.09832e-05
6.0589e-06
9.58162e-05
8.00293e-05
8.09682e-05
0.000103634
0.000119889
0.000124281
0.000123788
0.000121221
0.000114911
0.000103588
8.97492e-05
8.39368e-05
8.66412e-05
8.58227e-05
7.42297e-05
5.96693e-05
6.17744e-05
6.45953e-05
6.45074e-05
6.20747e-05
5.66103e-05
5.0598e-05
4.68439e-05
4.65458e-05
4.83361e-05
4.98847e-05
5.15049e-05
5.47331e-05
5.6756e-05
5.74275e-05
5.64512e-05
5.61324e-05
5.64775e-05
5.58104e-05
5.56181e-05
5.29108e-05
4.98999e-05
4.49706e-05
3.75487e-05
3.42774e-05
2.46049e-05
1.4366e-05
9.28671e-06
6.08088e-06
6.04439e-05
6.50222e-05
7.90268e-05
9.10129e-05
9.40282e-05
9.481e-05
9.44206e-05
9.33974e-05
9.12124e-05
8.68778e-05
8.13146e-05
7.97045e-05
7.97942e-05
7.70972e-05
7.13801e-05
6.30697e-05
5.89697e-05
5.72031e-05
5.46126e-05
5.18968e-05
4.98846e-05
4.86544e-05
4.86766e-05
4.93838e-05
4.94573e-05
4.82326e-05
4.73542e-05
4.88321e-05
5.15169e-05
5.2498e-05
5.40233e-05
5.65573e-05
5.78417e-05
5.99727e-05
6.20698e-05
5.70428e-05
4.7707e-05
4.46902e-05
3.76446e-05
2.83219e-05
2.16147e-05
1.4802e-05
1.17472e-05
1.47305e-05
6.29882e-06
7.08295e-05
7.43275e-05
7.23759e-05
6.97892e-05
6.68264e-05
6.5454e-05
6.44745e-05
6.39646e-05
6.209e-05
5.93261e-05
5.60254e-05
5.33979e-05
5.04355e-05
4.76612e-05
4.55546e-05
4.43755e-05
4.43445e-05
4.42045e-05
4.41333e-05
4.42096e-05
4.41164e-05
4.38254e-05
4.33308e-05
4.26514e-05
4.17929e-05
4.15608e-05
4.23942e-05
4.39364e-05
4.57142e-05
4.80835e-05
5.12723e-05
5.47132e-05
5.6398e-05
5.92284e-05
5.79866e-05
4.9841e-05
4.31131e-05
2.22307e-05
1.44884e-05
1.34241e-05
1.30419e-05
1.54377e-05
2.03308e-05
1.90622e-05
6.55842e-06
5.94877e-05
5.86542e-05
5.62017e-05
5.47624e-05
5.3228e-05
5.19458e-05
5.07892e-05
4.90595e-05
4.81215e-05
4.72497e-05
4.65831e-05
4.60049e-05
4.57162e-05
4.59159e-05
4.65118e-05
4.65483e-05
4.58686e-05
4.49106e-05
4.32441e-05
4.09324e-05
3.81535e-05
3.52433e-05
3.27327e-05
3.05583e-05
2.97004e-05
3.10399e-05
3.31391e-05
3.54602e-05
3.93253e-05
4.39993e-05
4.74704e-05
5.03779e-05
5.40543e-05
5.18358e-05
4.48177e-05
3.53098e-05
1.57409e-05
1.42724e-05
1.72707e-05
2.13309e-05
2.58701e-05
2.6687e-05
2.3626e-05
1.27142e-05
6.59437e-05
6.52783e-05
6.39823e-05
6.33418e-05
6.27981e-05
6.24362e-05
6.20414e-05
6.14966e-05
6.0996e-05
6.04005e-05
5.95771e-05
5.87514e-05
5.78136e-05
5.6581e-05
5.46734e-05
5.18475e-05
4.84582e-05
4.45703e-05
4.01055e-05
3.52971e-05
3.01371e-05
2.50415e-05
2.14505e-05
1.99832e-05
2.11877e-05
2.49957e-05
2.7924e-05
3.08887e-05
3.34789e-05
3.58429e-05
3.82696e-05
4.17274e-05
4.51069e-05
4.34854e-05
3.90835e-05
2.5861e-05
1.38928e-05
2.13393e-05
2.67041e-05
2.9806e-05
3.09985e-05
3.00178e-05
2.72173e-05
2.17814e-05
6.91113e-05
6.78863e-05
6.75412e-05
6.73961e-05
6.70048e-05
6.72085e-05
6.70398e-05
6.72104e-05
6.70971e-05
6.68787e-05
6.63857e-05
6.53402e-05
6.37987e-05
6.15682e-05
5.83732e-05
5.42063e-05
4.92494e-05
4.3864e-05
3.82983e-05
3.26821e-05
2.70613e-05
2.14986e-05
1.78589e-05
1.72672e-05
2.17505e-05
2.75732e-05
2.90089e-05
2.83875e-05
2.7252e-05
2.62199e-05
2.56494e-05
2.62109e-05
2.86089e-05
3.08076e-05
3.03223e-05
2.52062e-05
1.61078e-05
2.00302e-05
2.81541e-05
3.15828e-05
3.29263e-05
3.27816e-05
3.10894e-05
2.78782e-05
2.3366e-05
6.85514e-05
6.73603e-05
6.69091e-05
6.61748e-05
6.58146e-05
6.55604e-05
6.50784e-05
6.48977e-05
6.42821e-05
6.32532e-05
6.2121e-05
6.02071e-05
5.77152e-05
5.43281e-05
5.0004e-05
4.49323e-05
3.93549e-05
3.36459e-05
2.81525e-05
2.30017e-05
1.89427e-05
1.69245e-05
1.82469e-05
2.59105e-05
3.32575e-05
3.49263e-05
3.42256e-05
3.18315e-05
2.88203e-05
2.55729e-05
2.25343e-05
2.03641e-05
1.95906e-05
1.9261e-05
1.89384e-05
1.73572e-05
2.03103e-05
2.84747e-05
3.23613e-05
3.36671e-05
3.38435e-05
3.29858e-05
3.08419e-05
2.67132e-05
1.92954e-05
6.59176e-05
6.37927e-05
6.18206e-05
5.9782e-05
5.78701e-05
5.64644e-05
5.45281e-05
5.3427e-05
5.17902e-05
4.96807e-05
4.78503e-05
4.51534e-05
4.2016e-05
3.83273e-05
3.39063e-05
2.94289e-05
2.5103e-05
2.10545e-05
1.80842e-05
1.64916e-05
1.6835e-05
1.98974e-05
2.83687e-05
3.46744e-05
3.69907e-05
3.7119e-05
3.63939e-05
3.48141e-05
3.2579e-05
2.97473e-05
2.6445e-05
2.33804e-05
2.11114e-05
2.04126e-05
2.04395e-05
2.34925e-05
6.09346e-05
5.76118e-05
5.60682e-05
5.32103e-05
5.06336e-05
4.76095e-05
4.4425e-05
4.2051e-05
3.89827e-05
3.51439e-05
3.31125e-05
2.95729e-05
2.67913e-05
2.38049e-05
2.08916e-05
1.89501e-05
1.75016e-05
1.72216e-05
1.80304e-05
2.03687e-05
2.43593e-05
2.91168e-05
3.2847e-05
3.40814e-05
3.40422e-05
3.3477e-05
3.27809e-05
3.20072e-05
3.11567e-05
3.01632e-05
2.90389e-05
2.78364e-05
2.67744e-05
2.65042e-05
2.68683e-05
4.0095e-05
3.76284e-05
3.76106e-05
3.55065e-05
3.5005e-05
3.28165e-05
3.05418e-05
2.94241e-05
2.70613e-05
2.45608e-05
2.33948e-05
2.04464e-05
1.97406e-05
1.7882e-05
1.76473e-05
1.75442e-05
1.83321e-05
1.96725e-05
2.15195e-05
2.31618e-05
2.43629e-05
2.50737e-05
2.50515e-05
2.44718e-05
2.37382e-05
2.30527e-05
2.24479e-05
2.19992e-05
2.17208e-05
2.16523e-05
2.18126e-05
2.2194e-05
2.27527e-05
2.31614e-05
2.35863e-05
1.15225e-05
1.10763e-05
1.0947e-05
1.0685e-05
1.02816e-05
9.91741e-06
9.77293e-06
9.48928e-06
9.05504e-06
8.86666e-06
8.64964e-06
8.30675e-06
8.16434e-06
7.84714e-06
7.71771e-06
7.48673e-06
7.35215e-06
7.19225e-06
7.04463e-06
6.89602e-06
6.75074e-06
6.60904e-06
6.47836e-06
6.36843e-06
6.2852e-06
6.22763e-06
6.19258e-06
6.17238e-06
6.1596e-06
6.1518e-06
6.14545e-06
6.13619e-06
6.1202e-06
6.09607e-06
6.05333e-06
5.12467e-05
5.278e-05
5.45306e-05
5.5021e-05
5.48098e-05
5.40714e-05
5.33965e-05
5.19678e-05
4.98816e-05
4.7346e-05
4.29143e-05
3.80828e-05
3.59778e-05
3.5692e-05
3.55074e-05
3.48972e-05
3.32534e-05
3.15079e-05
3.05332e-05
2.99906e-05
2.93536e-05
2.89058e-05
2.8339e-05
2.67595e-05
2.4384e-05
2.29717e-05
2.26308e-05
2.28593e-05
2.3692e-05
2.4281e-05
2.47184e-05
2.50261e-05
2.50063e-05
2.47754e-05
2.48501e-05
2.51361e-05
2.56553e-05
2.55362e-05
2.44368e-05
2.29556e-05
2.17503e-05
1.83478e-05
1.06261e-05
6.05878e-06
0.000103001
9.87174e-05
0.00010994
0.000126186
0.000133171
0.000133035
0.000130874
0.000126219
0.000116787
0.000105063
9.74518e-05
9.77289e-05
0.000100282
9.79887e-05
8.43644e-05
7.10919e-05
6.84857e-05
6.69365e-05
6.50479e-05
6.0331e-05
5.19153e-05
4.36662e-05
3.96047e-05
4.02551e-05
4.34293e-05
4.8494e-05
5.31155e-05
5.73799e-05
5.99689e-05
6.06003e-05
6.04079e-05
5.9124e-05
5.70107e-05
5.34068e-05
5.45679e-05
5.90372e-05
5.93639e-05
5.65407e-05
5.01192e-05
4.20158e-05
2.46249e-05
1.40278e-05
1.04461e-05
6.30125e-06
8.4623e-05
9.54633e-05
0.000105953
0.00011286
0.000114735
0.000114424
0.000112813
0.000110746
0.000107695
0.000103021
9.75642e-05
9.55299e-05
9.44631e-05
8.86056e-05
8.00199e-05
6.94988e-05
6.30505e-05
5.9143e-05
5.59901e-05
5.23892e-05
4.89654e-05
4.62974e-05
4.48572e-05
4.58243e-05
4.78198e-05
4.81187e-05
4.98732e-05
5.27044e-05
5.43226e-05
5.57877e-05
5.70196e-05
5.84392e-05
5.90253e-05
6.02419e-05
6.52338e-05
6.928e-05
6.22689e-05
5.85607e-05
4.73772e-05
3.47444e-05
2.40924e-05
1.52871e-05
1.48069e-05
1.92065e-05
6.63452e-06
9.39928e-05
9.28673e-05
8.96373e-05
8.58638e-05
8.19085e-05
7.9029e-05
7.63467e-05
7.45098e-05
7.18873e-05
6.87443e-05
6.4891e-05
6.08658e-05
5.60458e-05
5.15902e-05
4.82044e-05
4.58368e-05
4.50722e-05
4.48878e-05
4.45434e-05
4.42701e-05
4.42685e-05
4.44112e-05
4.46634e-05
4.49376e-05
4.4993e-05
4.5396e-05
4.65141e-05
4.77102e-05
4.90436e-05
5.13028e-05
5.40283e-05
5.61504e-05
5.75023e-05
6.13423e-05
6.5302e-05
6.25651e-05
5.47761e-05
2.95476e-05
1.9046e-05
1.6686e-05
1.62094e-05
2.08456e-05
2.81148e-05
2.52274e-05
6.95012e-06
7.76111e-05
7.47895e-05
7.11991e-05
6.83745e-05
6.57539e-05
6.33446e-05
6.10566e-05
5.84662e-05
5.64834e-05
5.46104e-05
5.29501e-05
5.14536e-05
5.04708e-05
5.03159e-05
5.11275e-05
5.21651e-05
5.24612e-05
5.18226e-05
5.0742e-05
4.89776e-05
4.65204e-05
4.38242e-05
4.17326e-05
4.0464e-05
3.96513e-05
3.99027e-05
4.09858e-05
4.27402e-05
4.55642e-05
4.84317e-05
5.04995e-05
5.29955e-05
5.68587e-05
5.83575e-05
5.38553e-05
4.16106e-05
1.83062e-05
1.98861e-05
2.38373e-05
3.0049e-05
3.65667e-05
3.71015e-05
3.14879e-05
1.52137e-05
8.50228e-05
8.31867e-05
8.12315e-05
7.99482e-05
7.87399e-05
7.77578e-05
7.67102e-05
7.55839e-05
7.46046e-05
7.35362e-05
7.23022e-05
7.12188e-05
7.05839e-05
7.00819e-05
6.9059e-05
6.65443e-05
6.28193e-05
5.82921e-05
5.33958e-05
4.82998e-05
4.35112e-05
4.03834e-05
3.81261e-05
3.67406e-05
3.67029e-05
3.74738e-05
3.7925e-05
3.84123e-05
3.93152e-05
4.01605e-05
4.14055e-05
4.42003e-05
4.75781e-05
4.8173e-05
4.4312e-05
2.68381e-05
1.96557e-05
3.18027e-05
3.85784e-05
4.26062e-05
4.36968e-05
4.13874e-05
3.61874e-05
2.76327e-05
9.10371e-05
8.95637e-05
8.86483e-05
8.79128e-05
8.74027e-05
8.70566e-05
8.67521e-05
8.65979e-05
8.62672e-05
8.59909e-05
8.55449e-05
8.48946e-05
8.38085e-05
8.20507e-05
7.92566e-05
7.49524e-05
6.90729e-05
6.2355e-05
5.56174e-05
4.93158e-05
4.39373e-05
4.02027e-05
3.81141e-05
3.78723e-05
4.05937e-05
4.20794e-05
4.10219e-05
3.90949e-05
3.6763e-05
3.42827e-05
3.18202e-05
3.04856e-05
3.14923e-05
3.31461e-05
3.27312e-05
2.67575e-05
2.02605e-05
3.09031e-05
4.16008e-05
4.56672e-05
4.68502e-05
4.588e-05
4.27008e-05
3.71439e-05
2.9921e-05
9.21107e-05
9.1036e-05
9.02211e-05
8.94098e-05
8.90369e-05
8.86866e-05
8.83915e-05
8.83905e-05
8.79904e-05
8.73313e-05
8.63688e-05
8.4688e-05
8.23101e-05
7.87593e-05
7.39541e-05
6.78648e-05
6.09729e-05
5.41279e-05
4.80755e-05
4.31961e-05
3.98774e-05
3.87677e-05
4.09137e-05
4.69487e-05
4.891e-05
4.86635e-05
4.70079e-05
4.4001e-05
4.03279e-05
3.61091e-05
3.17037e-05
2.77968e-05
2.52549e-05
2.39167e-05
2.32978e-05
2.31234e-05
3.04021e-05
4.196e-05
4.66684e-05
4.78069e-05
4.73942e-05
4.55464e-05
4.17513e-05
3.48522e-05
2.36593e-05
9.10598e-05
8.95382e-05
8.81385e-05
8.6264e-05
8.52551e-05
8.38861e-05
8.24248e-05
8.12902e-05
7.97504e-05
7.77125e-05
7.55524e-05
7.25211e-05
6.88781e-05
6.44544e-05
5.92934e-05
5.38978e-05
4.86302e-05
4.40501e-05
4.05978e-05
3.87357e-05
3.90961e-05
4.32141e-05
4.86759e-05
5.11513e-05
5.11522e-05
5.02963e-05
4.90647e-05
4.70697e-05
4.4486e-05
4.13325e-05
3.76376e-05
3.38009e-05
3.05605e-05
2.94458e-05
2.9427e-05
3.4325e-05
8.20847e-05
7.99007e-05
7.91439e-05
7.65911e-05
7.55767e-05
7.37987e-05
7.13849e-05
6.94149e-05
6.69305e-05
6.34876e-05
6.07249e-05
5.69568e-05
5.32143e-05
4.93504e-05
4.5597e-05
4.26032e-05
4.0326e-05
3.92809e-05
3.98105e-05
4.14089e-05
4.36459e-05
4.58969e-05
4.7023e-05
4.65522e-05
4.54767e-05
4.43641e-05
4.33744e-05
4.23349e-05
4.12574e-05
4.01793e-05
3.90523e-05
3.79144e-05
3.70147e-05
3.68453e-05
3.76342e-05
5.02332e-05
4.87292e-05
4.99323e-05
4.70977e-05
4.80041e-05
4.78298e-05
4.52929e-05
4.45268e-05
4.43353e-05
4.14478e-05
4.03054e-05
3.87175e-05
3.65471e-05
3.54192e-05
3.40633e-05
3.35323e-05
3.3306e-05
3.34852e-05
3.37732e-05
3.38962e-05
3.3789e-05
3.32973e-05
3.23598e-05
3.12254e-05
3.01375e-05
2.9205e-05
2.84633e-05
2.79097e-05
2.75882e-05
2.76105e-05
2.79516e-05
2.86093e-05
2.95299e-05
3.01471e-05
3.08249e-05
1.22449e-05
1.17688e-05
1.14968e-05
1.1336e-05
1.09948e-05
1.05572e-05
1.04191e-05
1.01706e-05
9.73337e-06
9.48994e-06
9.302e-06
8.91874e-06
8.77485e-06
8.41872e-06
8.27186e-06
8.01919e-06
7.83964e-06
7.64714e-06
7.46764e-06
7.29283e-06
7.12592e-06
6.96825e-06
6.82691e-06
6.71002e-06
6.62237e-06
6.56252e-06
6.52785e-06
6.5117e-06
6.50562e-06
6.50575e-06
6.50926e-06
6.51095e-06
6.50548e-06
6.49079e-06
6.4494e-06
4.82017e-05
4.9631e-05
5.08391e-05
5.07015e-05
4.95138e-05
4.71357e-05
4.47788e-05
4.24415e-05
4.06124e-05
3.90022e-05
3.71764e-05
3.61679e-05
3.61245e-05
3.62839e-05
3.60229e-05
3.49004e-05
3.27527e-05
3.08463e-05
2.96725e-05
2.88398e-05
2.80822e-05
2.75167e-05
2.63812e-05
2.3378e-05
1.98395e-05
1.89904e-05
1.93289e-05
2.06566e-05
2.22934e-05
2.27806e-05
2.33374e-05
2.37483e-05
2.34694e-05
2.22519e-05
2.23403e-05
2.33483e-05
2.50719e-05
2.51512e-05
2.44336e-05
2.33404e-05
2.19479e-05
1.76031e-05
9.75625e-06
5.94804e-06
0.000114644
0.000117115
0.000128195
0.000134356
0.000133836
0.000131762
0.000126936
0.000118564
0.000111243
0.000105593
0.000103953
0.000106949
0.000107241
0.000102824
8.61068e-05
7.35431e-05
6.72158e-05
5.90342e-05
5.52774e-05
4.96199e-05
4.12863e-05
3.50733e-05
3.21578e-05
3.36265e-05
3.81719e-05
4.56184e-05
5.1234e-05
5.43596e-05
5.62311e-05
5.66474e-05
5.5344e-05
5.32218e-05
4.84066e-05
4.62737e-05
4.97259e-05
6.11351e-05
6.49652e-05
6.35167e-05
5.81458e-05
4.57246e-05
2.35491e-05
1.3449e-05
1.17161e-05
6.40721e-06
0.000112783
0.00011931
0.000124385
0.000127896
0.000127663
0.000125818
0.000122723
0.000119029
0.000114846
0.000110197
0.000106035
0.000104136
0.000100726
9.21099e-05
8.16651e-05
6.98437e-05
6.12643e-05
5.54474e-05
5.16755e-05
4.73391e-05
4.24513e-05
3.82942e-05
3.59034e-05
3.89708e-05
4.32781e-05
4.50007e-05
4.84221e-05
5.0531e-05
5.10071e-05
5.15713e-05
5.2171e-05
5.26074e-05
5.32084e-05
5.63832e-05
6.47622e-05
7.32957e-05
7.04706e-05
6.65233e-05
5.29144e-05
3.81216e-05
2.4752e-05
1.57376e-05
1.83552e-05
2.27372e-05
6.84761e-06
0.00011339
0.000109821
0.000104953
9.94373e-05
9.39548e-05
8.92827e-05
8.48742e-05
8.13258e-05
7.76989e-05
7.39723e-05
6.96908e-05
6.46367e-05
5.82243e-05
5.24397e-05
4.774e-05
4.40921e-05
4.24761e-05
4.2631e-05
4.26743e-05
4.23775e-05
4.29538e-05
4.38492e-05
4.48652e-05
4.59279e-05
4.62302e-05
4.65861e-05
4.71641e-05
4.75496e-05
4.81879e-05
4.96296e-05
5.12607e-05
5.21406e-05
5.32171e-05
5.90032e-05
6.67887e-05
6.7068e-05
5.83661e-05
3.24733e-05
2.19834e-05
1.90675e-05
1.90714e-05
2.65014e-05
3.49396e-05
2.97e-05
7.20897e-06
9.55804e-05
9.07019e-05
8.56398e-05
8.12097e-05
7.71946e-05
7.35164e-05
7.01028e-05
6.66708e-05
6.36633e-05
6.07105e-05
5.7848e-05
5.51613e-05
5.31883e-05
5.2725e-05
5.4157e-05
5.6214e-05
5.7636e-05
5.76051e-05
5.68672e-05
5.57332e-05
5.37014e-05
5.11923e-05
4.91408e-05
4.7518e-05
4.62962e-05
4.58096e-05
4.57887e-05
4.63588e-05
4.75721e-05
4.85841e-05
4.8822e-05
5.01111e-05
5.44304e-05
5.85097e-05
5.58956e-05
4.00318e-05
2.17013e-05
2.50543e-05
3.00229e-05
3.82287e-05
4.58852e-05
4.54221e-05
3.71724e-05
1.70628e-05
9.76326e-05
9.44028e-05
9.15391e-05
8.93233e-05
8.73137e-05
8.57175e-05
8.42978e-05
8.29508e-05
8.18876e-05
8.08713e-05
7.98594e-05
7.90093e-05
7.85938e-05
7.88783e-05
7.97335e-05
7.92392e-05
7.61942e-05
7.19034e-05
6.73237e-05
6.28386e-05
5.83047e-05
5.45463e-05
5.15541e-05
4.96269e-05
4.81744e-05
4.69207e-05
4.59003e-05
4.51176e-05
4.42517e-05
4.3016e-05
4.19206e-05
4.26777e-05
4.53158e-05
4.7077e-05
4.27728e-05
2.59065e-05
2.90047e-05
4.19532e-05
4.92693e-05
5.36236e-05
5.41801e-05
5.03358e-05
4.28014e-05
3.15194e-05
0.000100935
9.9488e-05
9.81436e-05
9.72359e-05
9.68628e-05
9.64809e-05
9.65172e-05
9.66993e-05
9.68651e-05
9.72114e-05
9.74534e-05
9.7473e-05
9.7289e-05
9.66941e-05
9.55365e-05
9.32627e-05
8.87853e-05
8.25116e-05
7.57517e-05
6.94501e-05
6.40846e-05
5.99462e-05
5.71534e-05
5.58077e-05
5.49296e-05
5.42406e-05
5.2005e-05
4.94412e-05
4.64035e-05
4.28479e-05
3.88235e-05
3.51074e-05
3.3224e-05
3.2968e-05
3.25505e-05
2.7897e-05
2.81238e-05
4.36255e-05
5.39722e-05
5.78704e-05
5.8514e-05
5.65411e-05
5.17767e-05
4.38979e-05
3.41342e-05
0.000103754
0.000103434
0.000102838
0.000102676
0.000102932
0.000103062
0.000103436
0.000103885
0.000104085
0.000104243
0.000104097
0.000103478
0.000102395
0.000100528
9.73073e-05
9.23857e-05
8.58958e-05
7.88135e-05
7.2275e-05
6.69152e-05
6.30853e-05
6.11168e-05
6.14322e-05
6.26375e-05
6.16507e-05
6.03863e-05
5.82903e-05
5.52305e-05
5.1579e-05
4.71418e-05
4.19968e-05
3.67271e-05
3.23716e-05
2.98872e-05
2.88867e-05
3.18687e-05
4.34424e-05
5.47531e-05
5.89429e-05
5.96471e-05
5.85928e-05
5.56514e-05
5.01162e-05
4.06776e-05
2.63741e-05
0.000105558
0.000105048
0.000104327
0.000103743
0.000103529
0.00010308
0.000102629
0.000102265
0.000101626
0.000100683
9.95706e-05
9.77446e-05
9.51969e-05
9.16778e-05
8.70744e-05
8.16149e-05
7.5745e-05
7.03093e-05
6.58819e-05
6.29967e-05
6.20303e-05
6.30088e-05
6.43038e-05
6.39423e-05
6.25142e-05
6.10625e-05
5.9578e-05
5.74566e-05
5.49489e-05
5.19562e-05
4.84289e-05
4.46151e-05
4.11471e-05
3.98e-05
4.01106e-05
4.64036e-05
9.36185e-05
9.24628e-05
9.31426e-05
9.19719e-05
9.18449e-05
9.18054e-05
9.09137e-05
8.99097e-05
8.89295e-05
8.68994e-05
8.49026e-05
8.21889e-05
7.88918e-05
7.51738e-05
7.11097e-05
6.71713e-05
6.37187e-05
6.1207e-05
5.96979e-05
5.89443e-05
5.86906e-05
5.84341e-05
5.75464e-05
5.59809e-05
5.42607e-05
5.27829e-05
5.16416e-05
5.0471e-05
4.93833e-05
4.84274e-05
4.75052e-05
4.6648e-05
4.61785e-05
4.61814e-05
4.7407e-05
5.51826e-05
5.40717e-05
5.69264e-05
5.39799e-05
5.47824e-05
5.62902e-05
5.51813e-05
5.48902e-05
5.58556e-05
5.39572e-05
5.30447e-05
5.24876e-05
5.00942e-05
4.91927e-05
4.70553e-05
4.56669e-05
4.4291e-05
4.32013e-05
4.22096e-05
4.12167e-05
4.0142e-05
3.88757e-05
3.74337e-05
3.60122e-05
3.47363e-05
3.36817e-05
3.28931e-05
3.22967e-05
3.19917e-05
3.21054e-05
3.25918e-05
3.34714e-05
3.4606e-05
3.53582e-05
3.61512e-05