/*--------------------------------*- C++ -*----------------------------------*\
| =========                 |                                                 |
| \\      /  F ield         | OpenFOAM: The Open Source CFD Toolbox           |
|  \\    /   O peration     | Version:  2.3.1                                 |
|   \\  /    A nd           | Web:      www.OpenFOAM.org                      |
|    \\/     M anipulation  |                                                 |
\*---------------------------------------------------------------------------*/
FoamFile
{
    version     2.0;
    format      ascii;
    class       volScalarField;
    location    "20";
    object      p;
}
// * * * * * * * * * * * * * * * * * * * * * * * * * * * * * * * * * * * * * //

dimensions      [0 2 -2 0 0 0 0];

internalField   nonuniform List<scalar> 
38152
(
-1.22217
-1.22243
-1.22244
-1.22207
-1.22182
-1.22202
-1.22238
-1.22245
-1.22238
-1.22268
-1.22283
-1.2222
-1.22149
-1.22124
-1.22124
-1.22125
-1.22125
-1.22125
-1.22124
-1.22123
-1.22125
-1.22127
-1.22124
-1.2212
-1.22119
-1.22121
-1.2212
-1.22121
-1.22121
-1.22118
-1.2212
-1.22124
-1.22124
-1.22129
-1.22135
-1.2213
-1.22133
-1.22149
-1.22151
-1.22136
-1.22116
-1.22089
-1.22071
-1.22068
-1.22303
-1.22285
-1.22205
-1.22139
-1.22145
-1.22194
-1.22228
-1.22228
-1.22232
-1.22278
-1.22321
-1.22271
-1.22192
-1.22154
-1.22135
-1.22125
-1.22125
-1.22126
-1.22125
-1.22124
-1.22124
-1.22124
-1.22122
-1.22119
-1.22119
-1.22121
-1.2212
-1.22121
-1.22119
-1.22117
-1.2212
-1.22123
-1.22124
-1.22132
-1.22136
-1.22132
-1.22143
-1.22161
-1.22151
-1.22135
-1.22127
-1.2211
-1.22092
-1.22088
-1.22305
-1.22212
-1.2216
-1.22174
-1.22186
-1.22191
-1.22202
-1.22218
-1.22224
-1.22225
-1.2223
-1.22224
-1.22198
-1.22173
-1.2216
-1.22149
-1.22141
-1.22135
-1.2213
-1.22126
-1.22124
-1.22123
-1.22121
-1.22119
-1.22117
-1.22118
-1.22118
-1.22117
-1.22117
-1.22118
-1.22117
-1.22119
-1.22122
-1.22125
-1.22132
-1.22132
-1.22123
-1.22129
-1.22145
-1.22151
-1.2214
-1.22123
-1.22108
-1.22099
-1.22096
-1.22254
-1.22235
-1.22227
-1.22208
-1.22194
-1.22194
-1.22202
-1.22211
-1.22217
-1.22222
-1.22231
-1.22229
-1.2221
-1.22187
-1.22168
-1.22153
-1.22142
-1.22135
-1.22131
-1.22128
-1.22125
-1.22124
-1.22123
-1.22123
-1.22121
-1.22121
-1.2212
-1.22119
-1.22119
-1.22119
-1.22118
-1.22121
-1.22124
-1.22129
-1.22135
-1.2213
-1.22125
-1.2213
-1.22136
-1.22134
-1.22129
-1.22122
-1.22113
-1.22107
-1.22105
-1.22235
-1.22217
-1.22209
-1.22205
-1.22202
-1.22203
-1.22204
-1.22205
-1.22203
-1.222
-1.22193
-1.22183
-1.22172
-1.22163
-1.22153
-1.22145
-1.22139
-1.22134
-1.2213
-1.22128
-1.22126
-1.22125
-1.22124
-1.22123
-1.22123
-1.22122
-1.22121
-1.22121
-1.2212
-1.2212
-1.22122
-1.22125
-1.22129
-1.22137
-1.22135
-1.22126
-1.22125
-1.22129
-1.2213
-1.22126
-1.2212
-1.22115
-1.22112
-1.2211
-1.22245
-1.22232
-1.2222
-1.22211
-1.22206
-1.22204
-1.22204
-1.22203
-1.22202
-1.22199
-1.22194
-1.22185
-1.22173
-1.22163
-1.22154
-1.22146
-1.22141
-1.22136
-1.22133
-1.22131
-1.2213
-1.22128
-1.22128
-1.22127
-1.22125
-1.22122
-1.22121
-1.2212
-1.2212
-1.22121
-1.22123
-1.22126
-1.22132
-1.22138
-1.22137
-1.22128
-1.22126
-1.22127
-1.22126
-1.22124
-1.2212
-1.22116
-1.22114
-1.22112
-1.22257
-1.22241
-1.22228
-1.22219
-1.22211
-1.22206
-1.22201
-1.22198
-1.22195
-1.22191
-1.22186
-1.22181
-1.22174
-1.22167
-1.22161
-1.22154
-1.22148
-1.22143
-1.22139
-1.22136
-1.22134
-1.22132
-1.22132
-1.22129
-1.22124
-1.22121
-1.22121
-1.22121
-1.22121
-1.22122
-1.22122
-1.22124
-1.22127
-1.2213
-1.22136
-1.22135
-1.22128
-1.22126
-1.22126
-1.22125
-1.22122
-1.2212
-1.22117
-1.22116
-1.22114
-1.22257
-1.22243
-1.22232
-1.22222
-1.22215
-1.22209
-1.22204
-1.222
-1.22196
-1.22192
-1.22187
-1.22181
-1.22174
-1.22167
-1.22161
-1.22155
-1.22149
-1.22145
-1.22142
-1.22139
-1.22137
-1.22135
-1.22131
-1.22126
-1.22123
-1.22123
-1.22123
-1.22122
-1.22122
-1.22122
-1.22123
-1.22125
-1.22127
-1.2213
-1.22132
-1.22131
-1.22127
-1.22126
-1.22125
-1.22124
-1.22122
-1.2212
-1.22118
-1.22117
-1.22116
-1.22252
-1.2224
-1.2223
-1.22221
-1.22214
-1.22208
-1.22202
-1.22197
-1.22193
-1.22188
-1.22183
-1.22178
-1.22173
-1.22167
-1.22162
-1.22157
-1.22152
-1.22148
-1.22144
-1.22141
-1.22137
-1.22132
-1.22127
-1.22125
-1.22125
-1.22124
-1.22123
-1.22123
-1.22123
-1.22123
-1.22124
-1.22125
-1.22126
-1.22127
-1.22128
-1.22128
-1.22252
-1.22241
-1.22232
-1.22223
-1.22216
-1.22209
-1.22204
-1.22198
-1.22194
-1.22189
-1.22184
-1.22179
-1.22173
-1.22167
-1.22162
-1.22157
-1.22152
-1.22147
-1.22142
-1.22137
-1.22133
-1.2213
-1.22128
-1.22127
-1.22126
-1.22125
-1.22124
-1.22124
-1.22124
-1.22124
-1.22124
-1.22125
-1.22126
-1.22126
-1.22127
-1.2225
-1.22239
-1.22231
-1.22222
-1.22215
-1.22209
-1.22202
-1.22197
-1.22192
-1.22186
-1.22181
-1.22176
-1.2217
-1.22165
-1.22159
-1.22154
-1.22148
-1.22144
-1.2214
-1.22136
-1.22133
-1.22131
-1.22129
-1.22127
-1.22126
-1.22125
-1.22124
-1.22124
-1.22124
-1.22124
-1.22124
-1.22125
-1.22125
-1.22126
-1.22126
-1.2225
-1.22239
-1.22231
-1.22222
-1.22216
-1.22209
-1.22203
-1.22197
-1.22192
-1.22185
-1.22181
-1.22175
-1.22169
-1.22163
-1.22158
-1.22153
-1.22148
-1.22144
-1.2214
-1.22136
-1.22133
-1.22131
-1.22129
-1.22128
-1.22126
-1.22125
-1.22125
-1.22124
-1.22124
-1.22124
-1.22124
-1.22125
-1.22125
-1.22125
-1.22125
-1.33272
-1.33294
-1.33289
-1.33249
-1.33223
-1.33242
-1.33274
-1.33283
-1.33279
-1.33308
-1.33318
-1.33255
-1.33189
-1.33167
-1.33165
-1.33163
-1.33162
-1.33161
-1.33161
-1.33161
-1.33163
-1.33164
-1.3316
-1.33156
-1.33156
-1.33158
-1.33158
-1.33158
-1.33157
-1.33154
-1.33157
-1.33161
-1.33161
-1.33167
-1.33173
-1.33168
-1.3317
-1.33183
-1.33184
-1.33172
-1.33153
-1.33126
-1.33108
-1.33105
-1.33352
-1.33347
-1.33262
-1.33194
-1.332
-1.33236
-1.33263
-1.33271
-1.33285
-1.33329
-1.33352
-1.33288
-1.3322
-1.33192
-1.33174
-1.33163
-1.33162
-1.33162
-1.33161
-1.33162
-1.33162
-1.33163
-1.33162
-1.33159
-1.33159
-1.33159
-1.33158
-1.33156
-1.33155
-1.33154
-1.33157
-1.33159
-1.33162
-1.33172
-1.33174
-1.33168
-1.33179
-1.33195
-1.33186
-1.33172
-1.33163
-1.33145
-1.33128
-1.33125
-1.33362
-1.33264
-1.33216
-1.33226
-1.33227
-1.33229
-1.33239
-1.33254
-1.33259
-1.33261
-1.33266
-1.33259
-1.33233
-1.3321
-1.33198
-1.33187
-1.33179
-1.33173
-1.33168
-1.33165
-1.33163
-1.33162
-1.3316
-1.33157
-1.33155
-1.33156
-1.33155
-1.33154
-1.33154
-1.33155
-1.33154
-1.33156
-1.3316
-1.33164
-1.33171
-1.3317
-1.33161
-1.33166
-1.3318
-1.33186
-1.33177
-1.3316
-1.33145
-1.33136
-1.33133
-1.33298
-1.33281
-1.3327
-1.33249
-1.33234
-1.33233
-1.3324
-1.33248
-1.33254
-1.3326
-1.33267
-1.33265
-1.33245
-1.33223
-1.33205
-1.33191
-1.3318
-1.33173
-1.33169
-1.33166
-1.33164
-1.33163
-1.33162
-1.33161
-1.33159
-1.33158
-1.33157
-1.33156
-1.33156
-1.33156
-1.33156
-1.33158
-1.33162
-1.33167
-1.33173
-1.33168
-1.33162
-1.33167
-1.33172
-1.3317
-1.33165
-1.33158
-1.33149
-1.33144
-1.33142
-1.33274
-1.33256
-1.33248
-1.33243
-1.3324
-1.3324
-1.33241
-1.33242
-1.3324
-1.33237
-1.3323
-1.3322
-1.3321
-1.332
-1.33191
-1.33183
-1.33177
-1.33172
-1.33168
-1.33166
-1.33164
-1.33163
-1.33161
-1.3316
-1.3316
-1.33159
-1.33158
-1.33158
-1.33157
-1.33156
-1.33159
-1.33162
-1.33167
-1.33175
-1.33172
-1.33162
-1.33161
-1.33165
-1.33166
-1.33162
-1.33157
-1.33151
-1.33148
-1.33146
-1.33283
-1.3327
-1.33257
-1.33249
-1.33244
-1.33242
-1.33241
-1.3324
-1.33239
-1.33237
-1.33232
-1.33222
-1.33211
-1.332
-1.33191
-1.33184
-1.33178
-1.33174
-1.33171
-1.33169
-1.33167
-1.33165
-1.33165
-1.33164
-1.33162
-1.33159
-1.33157
-1.33156
-1.33156
-1.33157
-1.3316
-1.33163
-1.33169
-1.33175
-1.33173
-1.33164
-1.33162
-1.33163
-1.33162
-1.3316
-1.33156
-1.33153
-1.3315
-1.33148
-1.33294
-1.33278
-1.33265
-1.33256
-1.33248
-1.33243
-1.33239
-1.33236
-1.33232
-1.33229
-1.33224
-1.33218
-1.33212
-1.33205
-1.33198
-1.33191
-1.33185
-1.3318
-1.33176
-1.33173
-1.33171
-1.33169
-1.33168
-1.33167
-1.33161
-1.33158
-1.33158
-1.33158
-1.33158
-1.33158
-1.33159
-1.33161
-1.33163
-1.33167
-1.33172
-1.33171
-1.33164
-1.33162
-1.33162
-1.33161
-1.33159
-1.33156
-1.33154
-1.33152
-1.33151
-1.33294
-1.3328
-1.33269
-1.3326
-1.33252
-1.33246
-1.33241
-1.33237
-1.33233
-1.33229
-1.33224
-1.33219
-1.33212
-1.33205
-1.33198
-1.33192
-1.33187
-1.33182
-1.33179
-1.33176
-1.33174
-1.33172
-1.33169
-1.33163
-1.3316
-1.3316
-1.33159
-1.33159
-1.33159
-1.33159
-1.3316
-1.33161
-1.33163
-1.33166
-1.33168
-1.33167
-1.33163
-1.33162
-1.33161
-1.3316
-1.33158
-1.33156
-1.33154
-1.33153
-1.33152
-1.33289
-1.33277
-1.33267
-1.33258
-1.33251
-1.33245
-1.33239
-1.33234
-1.3323
-1.33225
-1.3322
-1.33215
-1.3321
-1.33204
-1.33199
-1.33193
-1.33189
-1.33185
-1.33181
-1.33178
-1.33174
-1.33169
-1.33164
-1.33162
-1.33161
-1.3316
-1.3316
-1.33159
-1.33159
-1.33159
-1.3316
-1.33161
-1.33162
-1.33163
-1.33165
-1.33164
-1.33289
-1.33277
-1.33268
-1.33259
-1.33252
-1.33246
-1.3324
-1.33235
-1.3323
-1.33225
-1.3322
-1.33215
-1.33209
-1.33204
-1.33199
-1.33194
-1.33188
-1.33183
-1.33178
-1.33174
-1.3317
-1.33167
-1.33165
-1.33163
-1.33162
-1.33161
-1.3316
-1.3316
-1.3316
-1.3316
-1.3316
-1.33161
-1.33162
-1.33163
-1.33163
-1.33286
-1.33276
-1.33267
-1.33259
-1.33251
-1.33245
-1.33239
-1.33233
-1.33228
-1.33223
-1.33218
-1.33212
-1.33207
-1.33201
-1.33196
-1.3319
-1.33185
-1.3318
-1.33176
-1.33173
-1.3317
-1.33167
-1.33165
-1.33164
-1.33162
-1.33161
-1.33161
-1.3316
-1.3316
-1.3316
-1.3316
-1.33161
-1.33161
-1.33162
-1.33162
-1.33287
-1.33275
-1.33267
-1.33259
-1.33252
-1.33245
-1.33239
-1.33233
-1.33228
-1.33222
-1.33217
-1.33211
-1.33206
-1.332
-1.33195
-1.33189
-1.33185
-1.3318
-1.33176
-1.33173
-1.3317
-1.33167
-1.33165
-1.33164
-1.33163
-1.33162
-1.33161
-1.33161
-1.3316
-1.3316
-1.33161
-1.33161
-1.33161
-1.33162
-1.33162
-1.4431
-1.4432
-1.44307
-1.44277
-1.44263
-1.44279
-1.44301
-1.44309
-1.4432
-1.44353
-1.44352
-1.4429
-1.44231
-1.44213
-1.44208
-1.44204
-1.44201
-1.44198
-1.44198
-1.44199
-1.442
-1.44201
-1.44196
-1.4419
-1.44192
-1.44195
-1.44195
-1.44195
-1.44193
-1.44191
-1.44194
-1.44198
-1.44198
-1.44204
-1.44211
-1.44208
-1.44209
-1.44219
-1.44219
-1.44207
-1.44189
-1.44162
-1.44146
-1.44143
-1.44379
-1.44356
-1.44288
-1.44246
-1.44252
-1.44278
-1.44299
-1.44311
-1.44328
-1.44362
-1.44367
-1.44305
-1.44253
-1.44233
-1.44216
-1.44203
-1.442
-1.44199
-1.44199
-1.44199
-1.442
-1.44201
-1.44199
-1.44196
-1.44195
-1.44195
-1.44193
-1.44191
-1.44191
-1.44191
-1.44194
-1.44196
-1.442
-1.4421
-1.44213
-1.44206
-1.44215
-1.44228
-1.4422
-1.44208
-1.44198
-1.44181
-1.44165
-1.44162
-1.44365
-1.44298
-1.44269
-1.44272
-1.44268
-1.44269
-1.44277
-1.44288
-1.44294
-1.44297
-1.44302
-1.44294
-1.44269
-1.44248
-1.44236
-1.44225
-1.44216
-1.4421
-1.44205
-1.44201
-1.442
-1.44199
-1.44197
-1.44194
-1.44192
-1.44192
-1.44192
-1.44191
-1.44191
-1.44191
-1.44191
-1.44193
-1.44197
-1.44202
-1.44209
-1.44209
-1.442
-1.44203
-1.44216
-1.44221
-1.44212
-1.44195
-1.44181
-1.44172
-1.4417
-1.4434
-1.44323
-1.44308
-1.44287
-1.44274
-1.44273
-1.44278
-1.44285
-1.44291
-1.44296
-1.44302
-1.44298
-1.44278
-1.44258
-1.44243
-1.44229
-1.44218
-1.44211
-1.44206
-1.44203
-1.44201
-1.442
-1.44199
-1.44197
-1.44195
-1.44194
-1.44193
-1.44192
-1.44192
-1.44193
-1.44193
-1.44195
-1.44199
-1.44205
-1.44212
-1.44207
-1.442
-1.44204
-1.44208
-1.44206
-1.44201
-1.44194
-1.44186
-1.4418
-1.44178
-1.44311
-1.44295
-1.44286
-1.4428
-1.44277
-1.44277
-1.44278
-1.44278
-1.44277
-1.44274
-1.44266
-1.44257
-1.44247
-1.44238
-1.44229
-1.4422
-1.44214
-1.44209
-1.44205
-1.44203
-1.44201
-1.44199
-1.44197
-1.44195
-1.44195
-1.44194
-1.44193
-1.44193
-1.44193
-1.44193
-1.44196
-1.442
-1.44205
-1.44213
-1.4421
-1.442
-1.44198
-1.44202
-1.44202
-1.44198
-1.44193
-1.44187
-1.44185
-1.44182
-1.4432
-1.44307
-1.44295
-1.44286
-1.44281
-1.44279
-1.44278
-1.44277
-1.44276
-1.44273
-1.44268
-1.44258
-1.44248
-1.44237
-1.44229
-1.44221
-1.44215
-1.44211
-1.44208
-1.44205
-1.44203
-1.44201
-1.442
-1.44198
-1.44196
-1.44194
-1.44193
-1.44193
-1.44193
-1.44194
-1.44197
-1.442
-1.44206
-1.44212
-1.4421
-1.44201
-1.44199
-1.44199
-1.44198
-1.44196
-1.44192
-1.44189
-1.44187
-1.44185
-1.44331
-1.44315
-1.44303
-1.44293
-1.44286
-1.4428
-1.44276
-1.44273
-1.44269
-1.44266
-1.44261
-1.44255
-1.44249
-1.44242
-1.44235
-1.44228
-1.44222
-1.44217
-1.44213
-1.44209
-1.44207
-1.44204
-1.44202
-1.442
-1.44196
-1.44195
-1.44194
-1.44194
-1.44194
-1.44194
-1.44195
-1.44197
-1.442
-1.44203
-1.44208
-1.44207
-1.442
-1.44198
-1.44198
-1.44197
-1.44195
-1.44192
-1.4419
-1.44188
-1.44187
-1.44331
-1.44317
-1.44306
-1.44296
-1.44289
-1.44283
-1.44278
-1.44274
-1.4427
-1.44265
-1.44261
-1.44255
-1.44248
-1.44241
-1.44235
-1.44228
-1.44223
-1.44218
-1.44214
-1.44211
-1.44208
-1.44206
-1.44202
-1.44199
-1.44197
-1.44196
-1.44196
-1.44195
-1.44195
-1.44195
-1.44196
-1.44197
-1.442
-1.44202
-1.44204
-1.44202
-1.44199
-1.44198
-1.44197
-1.44196
-1.44194
-1.44192
-1.44191
-1.44189
-1.44188
-1.44326
-1.44313
-1.44304
-1.44295
-1.44287
-1.44281
-1.44276
-1.44271
-1.44266
-1.44261
-1.44256
-1.44251
-1.44245
-1.4424
-1.44234
-1.44229
-1.44224
-1.44219
-1.44215
-1.44211
-1.44208
-1.44204
-1.44201
-1.44199
-1.44198
-1.44197
-1.44196
-1.44196
-1.44196
-1.44196
-1.44196
-1.44197
-1.44198
-1.442
-1.44201
-1.442
-1.44325
-1.44313
-1.44305
-1.44296
-1.44288
-1.44282
-1.44276
-1.44271
-1.44266
-1.44261
-1.44256
-1.4425
-1.44245
-1.44239
-1.44233
-1.44228
-1.44223
-1.44218
-1.44213
-1.44209
-1.44206
-1.44203
-1.44201
-1.442
-1.44198
-1.44197
-1.44197
-1.44196
-1.44196
-1.44196
-1.44197
-1.44197
-1.44198
-1.44199
-1.44199
-1.44323
-1.44312
-1.44303
-1.44295
-1.44288
-1.44281
-1.44275
-1.44269
-1.44264
-1.44258
-1.44253
-1.44248
-1.44242
-1.44237
-1.44231
-1.44226
-1.44221
-1.44217
-1.44213
-1.44209
-1.44206
-1.44204
-1.44202
-1.442
-1.44199
-1.44198
-1.44197
-1.44197
-1.44196
-1.44196
-1.44197
-1.44197
-1.44198
-1.44198
-1.44198
-1.44323
-1.44311
-1.44304
-1.44295
-1.44288
-1.44281
-1.44275
-1.44269
-1.44264
-1.44258
-1.44253
-1.44247
-1.44242
-1.44236
-1.44231
-1.44226
-1.44221
-1.44217
-1.44213
-1.44209
-1.44206
-1.44204
-1.44202
-1.442
-1.44199
-1.44198
-1.44197
-1.44197
-1.44197
-1.44197
-1.44197
-1.44197
-1.44197
-1.44198
-1.44198
-1.55342
-1.55344
-1.55333
-1.55313
-1.55304
-1.55315
-1.55337
-1.5535
-1.55363
-1.55384
-1.55378
-1.55324
-1.55277
-1.5526
-1.55252
-1.55245
-1.55239
-1.55236
-1.55235
-1.55236
-1.55238
-1.55237
-1.5523
-1.55224
-1.55227
-1.55231
-1.55232
-1.55232
-1.55231
-1.55229
-1.55232
-1.55235
-1.55234
-1.5524
-1.55251
-1.55249
-1.55248
-1.55256
-1.55254
-1.55242
-1.55224
-1.55199
-1.55185
-1.55183
-1.55384
-1.55369
-1.55322
-1.55297
-1.55302
-1.55319
-1.55337
-1.5535
-1.55362
-1.5538
-1.55374
-1.55327
-1.55291
-1.55275
-1.55258
-1.55244
-1.55238
-1.55236
-1.55236
-1.55237
-1.55237
-1.55238
-1.55236
-1.55232
-1.55231
-1.5523
-1.55228
-1.55228
-1.55228
-1.55229
-1.55231
-1.55234
-1.55239
-1.55249
-1.55252
-1.55246
-1.55252
-1.55262
-1.55254
-1.55243
-1.55234
-1.55216
-1.55202
-1.55199
-1.55385
-1.55336
-1.55318
-1.55316
-1.5531
-1.55308
-1.55315
-1.55324
-1.5533
-1.55333
-1.55336
-1.55327
-1.55305
-1.55287
-1.55275
-1.55264
-1.55255
-1.55248
-1.55241
-1.55238
-1.55237
-1.55236
-1.55234
-1.5523
-1.55228
-1.55228
-1.55228
-1.55228
-1.55228
-1.55228
-1.55228
-1.5523
-1.55234
-1.55239
-1.55248
-1.55248
-1.5524
-1.55241
-1.55252
-1.55256
-1.55246
-1.55231
-1.55217
-1.55209
-1.55207
-1.55379
-1.55362
-1.55345
-1.55326
-1.55314
-1.55312
-1.55316
-1.55322
-1.55327
-1.55331
-1.55334
-1.55329
-1.55311
-1.55294
-1.5528
-1.55266
-1.55255
-1.55248
-1.55243
-1.5524
-1.55238
-1.55237
-1.55235
-1.55234
-1.55232
-1.55231
-1.5523
-1.55229
-1.55229
-1.55229
-1.55229
-1.55232
-1.55236
-1.55243
-1.55251
-1.55247
-1.55238
-1.55241
-1.55245
-1.55242
-1.55237
-1.5523
-1.55222
-1.55216
-1.55215
-1.55349
-1.55333
-1.55324
-1.55318
-1.55314
-1.55314
-1.55314
-1.55314
-1.55313
-1.5531
-1.55302
-1.55293
-1.55284
-1.55275
-1.55266
-1.55258
-1.55251
-1.55246
-1.55242
-1.5524
-1.55237
-1.55235
-1.55233
-1.55232
-1.55231
-1.5523
-1.5523
-1.5523
-1.5523
-1.5523
-1.55232
-1.55237
-1.55243
-1.5525
-1.55248
-1.55237
-1.55235
-1.55238
-1.55238
-1.55234
-1.55229
-1.55223
-1.55221
-1.55219
-1.55357
-1.55343
-1.55332
-1.55323
-1.55318
-1.55316
-1.55315
-1.55313
-1.55312
-1.55309
-1.55303
-1.55294
-1.55284
-1.55274
-1.55266
-1.55258
-1.55252
-1.55248
-1.55244
-1.55242
-1.55239
-1.55237
-1.55236
-1.55234
-1.55233
-1.55231
-1.5523
-1.5523
-1.5523
-1.55231
-1.55233
-1.55237
-1.55243
-1.55249
-1.55246
-1.55237
-1.55235
-1.55236
-1.55235
-1.55232
-1.55229
-1.55225
-1.55223
-1.55221
-1.55367
-1.55352
-1.5534
-1.5533
-1.55323
-1.55317
-1.55313
-1.55309
-1.55306
-1.55302
-1.55298
-1.55292
-1.55285
-1.55279
-1.55272
-1.55265
-1.55259
-1.55254
-1.55249
-1.55246
-1.55243
-1.5524
-1.55239
-1.55236
-1.55233
-1.55232
-1.55231
-1.55231
-1.55231
-1.55231
-1.55232
-1.55234
-1.55236
-1.5524
-1.55244
-1.55242
-1.55236
-1.55235
-1.55234
-1.55233
-1.55231
-1.55229
-1.55226
-1.55225
-1.55223
-1.55367
-1.55353
-1.55343
-1.55333
-1.55325
-1.55319
-1.55314
-1.5531
-1.55306
-1.55302
-1.55297
-1.55291
-1.55285
-1.55278
-1.55271
-1.55265
-1.55259
-1.55254
-1.5525
-1.55247
-1.55244
-1.55242
-1.55239
-1.55236
-1.55234
-1.55233
-1.55232
-1.55231
-1.55231
-1.55232
-1.55232
-1.55234
-1.55236
-1.55238
-1.5524
-1.55238
-1.55235
-1.55234
-1.55233
-1.55232
-1.5523
-1.55229
-1.55227
-1.55225
-1.55225
-1.55362
-1.5535
-1.5534
-1.55331
-1.55324
-1.55318
-1.55312
-1.55307
-1.55303
-1.55298
-1.55293
-1.55287
-1.55282
-1.55276
-1.5527
-1.55265
-1.5526
-1.55255
-1.55251
-1.55248
-1.55244
-1.5524
-1.55237
-1.55236
-1.55234
-1.55233
-1.55232
-1.55232
-1.55232
-1.55232
-1.55233
-1.55233
-1.55235
-1.55236
-1.55237
-1.55236
-1.55361
-1.5535
-1.55341
-1.55332
-1.55325
-1.55318
-1.55313
-1.55307
-1.55302
-1.55297
-1.55292
-1.55287
-1.55281
-1.55275
-1.5527
-1.55264
-1.55259
-1.55254
-1.5525
-1.55246
-1.55243
-1.5524
-1.55238
-1.55236
-1.55235
-1.55234
-1.55233
-1.55233
-1.55232
-1.55232
-1.55233
-1.55233
-1.55234
-1.55235
-1.55235
-1.55359
-1.55348
-1.5534
-1.55331
-1.55324
-1.55317
-1.55311
-1.55306
-1.553
-1.55295
-1.5529
-1.55284
-1.55279
-1.55273
-1.55268
-1.55262
-1.55258
-1.55253
-1.55249
-1.55246
-1.55243
-1.5524
-1.55238
-1.55236
-1.55235
-1.55234
-1.55233
-1.55233
-1.55233
-1.55233
-1.55233
-1.55233
-1.55234
-1.55234
-1.55234
-1.55358
-1.55347
-1.5534
-1.55331
-1.55324
-1.55317
-1.55311
-1.55306
-1.553
-1.55295
-1.55289
-1.55284
-1.55278
-1.55273
-1.55267
-1.55262
-1.55257
-1.55253
-1.55249
-1.55246
-1.55243
-1.5524
-1.55238
-1.55237
-1.55235
-1.55234
-1.55234
-1.55233
-1.55233
-1.55233
-1.55233
-1.55233
-1.55234
-1.55234
-1.55234
-1.66378
-1.66375
-1.66364
-1.66351
-1.66345
-1.66356
-1.66369
-1.66379
-1.66394
-1.6641
-1.66399
-1.66356
-1.6632
-1.66305
-1.66295
-1.66285
-1.66277
-1.66272
-1.66272
-1.66274
-1.66275
-1.66272
-1.66263
-1.66257
-1.66262
-1.66268
-1.66269
-1.66269
-1.66268
-1.66266
-1.66269
-1.66271
-1.66267
-1.66277
-1.66293
-1.66292
-1.66289
-1.66293
-1.66289
-1.66278
-1.6626
-1.66236
-1.66224
-1.66223
-1.66402
-1.6639
-1.66359
-1.66344
-1.66346
-1.66356
-1.66368
-1.66376
-1.66385
-1.66398
-1.66391
-1.66356
-1.66331
-1.66317
-1.663
-1.66284
-1.66276
-1.66273
-1.66274
-1.66274
-1.66273
-1.66274
-1.66272
-1.66267
-1.66265
-1.66265
-1.66264
-1.66265
-1.66266
-1.66266
-1.66267
-1.6627
-1.66276
-1.66288
-1.66292
-1.66286
-1.6629
-1.66296
-1.66288
-1.66279
-1.66269
-1.66252
-1.6624
-1.66237
-1.66409
-1.66375
-1.66362
-1.66356
-1.6635
-1.66348
-1.66352
-1.66359
-1.66363
-1.66367
-1.66369
-1.66359
-1.66341
-1.66325
-1.66314
-1.66302
-1.66293
-1.66284
-1.66278
-1.66275
-1.66274
-1.66273
-1.6627
-1.66266
-1.66264
-1.66264
-1.66265
-1.66265
-1.66265
-1.66265
-1.66265
-1.66267
-1.66271
-1.66277
-1.66287
-1.66289
-1.6628
-1.6628
-1.66288
-1.6629
-1.6628
-1.66266
-1.66253
-1.66246
-1.66244
-1.66415
-1.66397
-1.6638
-1.66363
-1.66353
-1.6635
-1.66353
-1.66357
-1.66361
-1.66364
-1.66365
-1.6636
-1.66344
-1.6633
-1.66317
-1.66304
-1.66293
-1.66285
-1.6628
-1.66277
-1.66275
-1.66273
-1.66272
-1.6627
-1.66268
-1.66267
-1.66266
-1.66265
-1.66265
-1.66266
-1.66266
-1.66268
-1.66273
-1.66281
-1.6629
-1.66286
-1.66277
-1.66278
-1.66281
-1.66278
-1.66273
-1.66266
-1.66258
-1.66253
-1.66251
-1.66386
-1.66372
-1.66362
-1.66355
-1.66352
-1.6635
-1.6635
-1.6635
-1.66349
-1.66345
-1.66338
-1.66329
-1.66321
-1.66312
-1.66303
-1.66294
-1.66288
-1.66283
-1.66279
-1.66276
-1.66274
-1.66272
-1.66269
-1.66268
-1.66267
-1.66267
-1.66266
-1.66266
-1.66266
-1.66266
-1.66269
-1.66273
-1.6628
-1.66287
-1.66285
-1.66275
-1.66272
-1.66275
-1.66274
-1.6627
-1.66265
-1.6626
-1.66257
-1.66255
-1.66393
-1.6638
-1.66368
-1.6636
-1.66355
-1.66352
-1.66351
-1.66349
-1.66347
-1.66344
-1.66338
-1.6633
-1.6632
-1.66311
-1.66302
-1.66295
-1.66289
-1.66285
-1.66281
-1.66278
-1.66275
-1.66273
-1.66271
-1.6627
-1.66268
-1.66267
-1.66266
-1.66266
-1.66267
-1.66267
-1.6627
-1.66273
-1.66279
-1.66284
-1.66281
-1.66274
-1.66272
-1.66272
-1.66271
-1.66268
-1.66265
-1.66261
-1.66259
-1.66257
-1.66403
-1.66388
-1.66376
-1.66367
-1.66359
-1.66354
-1.6635
-1.66346
-1.66343
-1.66339
-1.66334
-1.66328
-1.66322
-1.66315
-1.66308
-1.66302
-1.66295
-1.6629
-1.66286
-1.66282
-1.66279
-1.66276
-1.66274
-1.66271
-1.66269
-1.66268
-1.66267
-1.66267
-1.66267
-1.66267
-1.66268
-1.6627
-1.66272
-1.66276
-1.66279
-1.66277
-1.66272
-1.66271
-1.66271
-1.66269
-1.66267
-1.66265
-1.66262
-1.66261
-1.6626
-1.66403
-1.66389
-1.66379
-1.66369
-1.66362
-1.66356
-1.66351
-1.66346
-1.66342
-1.66338
-1.66333
-1.66328
-1.66321
-1.66314
-1.66308
-1.66301
-1.66296
-1.66291
-1.66286
-1.66283
-1.6628
-1.66277
-1.66274
-1.66272
-1.6627
-1.66269
-1.66268
-1.66268
-1.66268
-1.66268
-1.66269
-1.6627
-1.66272
-1.66274
-1.66275
-1.66274
-1.66271
-1.6627
-1.66269
-1.66268
-1.66267
-1.66265
-1.66263
-1.66262
-1.66261
-1.66398
-1.66386
-1.66377
-1.66368
-1.66361
-1.66354
-1.66349
-1.66344
-1.66339
-1.66334
-1.66329
-1.66324
-1.66318
-1.66312
-1.66306
-1.66301
-1.66296
-1.66291
-1.66287
-1.66283
-1.6628
-1.66276
-1.66274
-1.66272
-1.66271
-1.6627
-1.66269
-1.66268
-1.66268
-1.66268
-1.66269
-1.6627
-1.66271
-1.66272
-1.66272
-1.66272
-1.66397
-1.66386
-1.66377
-1.66368
-1.66361
-1.66355
-1.66349
-1.66343
-1.66338
-1.66333
-1.66328
-1.66323
-1.66317
-1.66311
-1.66305
-1.663
-1.66295
-1.6629
-1.66286
-1.66282
-1.66279
-1.66277
-1.66274
-1.66273
-1.66271
-1.6627
-1.66269
-1.66269
-1.66269
-1.66269
-1.66269
-1.6627
-1.6627
-1.66271
-1.66271
-1.66395
-1.66384
-1.66376
-1.66367
-1.6636
-1.66354
-1.66348
-1.66342
-1.66337
-1.66331
-1.66326
-1.6632
-1.66315
-1.66309
-1.66304
-1.66299
-1.66294
-1.6629
-1.66286
-1.66282
-1.66279
-1.66277
-1.66274
-1.66273
-1.66271
-1.6627
-1.6627
-1.66269
-1.66269
-1.66269
-1.66269
-1.66269
-1.6627
-1.6627
-1.6627
-1.66394
-1.66383
-1.66376
-1.66367
-1.66361
-1.66354
-1.66348
-1.66342
-1.66336
-1.66331
-1.66326
-1.6632
-1.66314
-1.66309
-1.66303
-1.66298
-1.66294
-1.66289
-1.66285
-1.66282
-1.66279
-1.66277
-1.66274
-1.66273
-1.66272
-1.66271
-1.6627
-1.66269
-1.66269
-1.66269
-1.66269
-1.6627
-1.6627
-1.6627
-1.6627
-1.77416
-1.77411
-1.77401
-1.77389
-1.77383
-1.77389
-1.77401
-1.77412
-1.77423
-1.7743
-1.77419
-1.77387
-1.77361
-1.77349
-1.77337
-1.77325
-1.77314
-1.77308
-1.77308
-1.77311
-1.77311
-1.77306
-1.77296
-1.77291
-1.77296
-1.77304
-1.77306
-1.77306
-1.77305
-1.77303
-1.77304
-1.77304
-1.77299
-1.77314
-1.77337
-1.77336
-1.77331
-1.77331
-1.77325
-1.77313
-1.77295
-1.77274
-1.77263
-1.77263
-1.77429
-1.77418
-1.77397
-1.77385
-1.77383
-1.77389
-1.77398
-1.77406
-1.77414
-1.77421
-1.77414
-1.77389
-1.7737
-1.77358
-1.7734
-1.77323
-1.77313
-1.7731
-1.77311
-1.77311
-1.77309
-1.7731
-1.77308
-1.77301
-1.77301
-1.77302
-1.77302
-1.77302
-1.77302
-1.77302
-1.77303
-1.77307
-1.77312
-1.77327
-1.77335
-1.77328
-1.77329
-1.77331
-1.77323
-1.77315
-1.77305
-1.77288
-1.77277
-1.77276
-1.77441
-1.77415
-1.77403
-1.77396
-1.77388
-1.77385
-1.77388
-1.77393
-1.77397
-1.774
-1.77401
-1.77392
-1.77376
-1.77363
-1.77352
-1.77341
-1.7733
-1.77321
-1.77314
-1.77312
-1.77311
-1.77309
-1.77306
-1.77302
-1.773
-1.77301
-1.77301
-1.77302
-1.77302
-1.77302
-1.77302
-1.77304
-1.77307
-1.77314
-1.77327
-1.7733
-1.77321
-1.77318
-1.77324
-1.77325
-1.77314
-1.77301
-1.77289
-1.77284
-1.77282
-1.77449
-1.77431
-1.77415
-1.77401
-1.77391
-1.77388
-1.77389
-1.77392
-1.77395
-1.77397
-1.77396
-1.77391
-1.77378
-1.77365
-1.77353
-1.77341
-1.7733
-1.77322
-1.77317
-1.77314
-1.77312
-1.7731
-1.77308
-1.77306
-1.77304
-1.77303
-1.77302
-1.77302
-1.77302
-1.77302
-1.77303
-1.77305
-1.7731
-1.77318
-1.77328
-1.77325
-1.77316
-1.77316
-1.77317
-1.77314
-1.77309
-1.77302
-1.77294
-1.7729
-1.77288
-1.77423
-1.77409
-1.774
-1.77393
-1.77389
-1.77387
-1.77386
-1.77386
-1.77384
-1.7738
-1.77374
-1.77365
-1.77357
-1.77348
-1.7734
-1.77331
-1.77325
-1.77319
-1.77316
-1.77313
-1.7731
-1.77308
-1.77305
-1.77304
-1.77303
-1.77303
-1.77303
-1.77303
-1.77303
-1.77303
-1.77306
-1.7731
-1.77316
-1.77323
-1.77321
-1.77312
-1.7731
-1.77312
-1.7731
-1.77306
-1.77301
-1.77296
-1.77294
-1.77292
-1.77429
-1.77416
-1.77405
-1.77397
-1.77392
-1.77389
-1.77387
-1.77385
-1.77382
-1.77379
-1.77373
-1.77365
-1.77356
-1.77348
-1.77339
-1.77332
-1.77326
-1.77321
-1.77318
-1.77315
-1.77312
-1.77309
-1.77308
-1.77306
-1.77305
-1.77303
-1.77303
-1.77303
-1.77303
-1.77304
-1.77306
-1.7731
-1.77314
-1.77319
-1.77316
-1.7731
-1.77309
-1.77308
-1.77307
-1.77304
-1.77301
-1.77298
-1.77296
-1.77294
-1.77439
-1.77424
-1.77413
-1.77403
-1.77396
-1.7739
-1.77386
-1.77382
-1.77379
-1.77375
-1.7737
-1.77364
-1.77358
-1.77352
-1.77345
-1.77338
-1.77332
-1.77327
-1.77322
-1.77318
-1.77315
-1.77312
-1.7731
-1.77308
-1.77306
-1.77305
-1.77304
-1.77304
-1.77304
-1.77304
-1.77304
-1.77306
-1.77308
-1.77311
-1.77314
-1.77312
-1.77309
-1.77308
-1.77307
-1.77305
-1.77303
-1.77301
-1.77299
-1.77297
-1.77296
-1.77438
-1.77425
-1.77415
-1.77406
-1.77398
-1.77392
-1.77387
-1.77383
-1.77378
-1.77374
-1.77369
-1.77364
-1.77357
-1.77351
-1.77344
-1.77338
-1.77332
-1.77327
-1.77323
-1.77319
-1.77316
-1.77313
-1.77311
-1.77308
-1.77307
-1.77306
-1.77305
-1.77304
-1.77304
-1.77304
-1.77305
-1.77306
-1.77308
-1.77309
-1.77311
-1.77309
-1.77308
-1.77307
-1.77306
-1.77304
-1.77303
-1.77301
-1.77299
-1.77298
-1.77297
-1.77434
-1.77422
-1.77413
-1.77404
-1.77397
-1.77391
-1.77385
-1.7738
-1.77375
-1.7737
-1.77365
-1.7736
-1.77354
-1.77348
-1.77343
-1.77337
-1.77332
-1.77327
-1.77323
-1.77319
-1.77316
-1.77313
-1.7731
-1.77308
-1.77307
-1.77306
-1.77305
-1.77305
-1.77305
-1.77305
-1.77305
-1.77306
-1.77307
-1.77308
-1.77308
-1.77308
-1.77433
-1.77422
-1.77413
-1.77405
-1.77398
-1.77391
-1.77385
-1.7738
-1.77375
-1.77369
-1.77364
-1.77359
-1.77353
-1.77347
-1.77342
-1.77336
-1.77331
-1.77326
-1.77322
-1.77319
-1.77316
-1.77313
-1.77311
-1.77309
-1.77308
-1.77306
-1.77306
-1.77305
-1.77305
-1.77305
-1.77305
-1.77306
-1.77306
-1.77307
-1.77307
-1.77431
-1.7742
-1.77412
-1.77404
-1.77397
-1.7739
-1.77384
-1.77378
-1.77373
-1.77367
-1.77362
-1.77357
-1.77351
-1.77346
-1.7734
-1.77335
-1.7733
-1.77326
-1.77322
-1.77319
-1.77316
-1.77313
-1.77311
-1.77309
-1.77308
-1.77307
-1.77306
-1.77305
-1.77305
-1.77305
-1.77305
-1.77306
-1.77306
-1.77306
-1.77306
-1.77429
-1.77419
-1.77412
-1.77404
-1.77397
-1.7739
-1.77384
-1.77378
-1.77372
-1.77367
-1.77362
-1.77356
-1.77351
-1.77345
-1.7734
-1.77335
-1.7733
-1.77326
-1.77322
-1.77318
-1.77315
-1.77313
-1.77311
-1.77309
-1.77308
-1.77307
-1.77306
-1.77306
-1.77305
-1.77305
-1.77305
-1.77306
-1.77306
-1.77306
-1.77306
-1.88454
-1.88447
-1.88436
-1.88426
-1.88421
-1.88426
-1.88433
-1.8844
-1.88449
-1.88452
-1.88442
-1.8842
-1.88401
-1.8839
-1.88378
-1.88363
-1.8835
-1.88343
-1.88345
-1.88348
-1.88347
-1.88342
-1.88328
-1.88324
-1.88332
-1.88339
-1.88342
-1.88342
-1.88341
-1.88339
-1.8834
-1.88337
-1.88331
-1.88351
-1.88375
-1.88376
-1.88371
-1.88368
-1.88361
-1.88349
-1.88331
-1.88311
-1.88303
-1.88304
-1.88461
-1.8845
-1.88433
-1.88423
-1.8842
-1.88425
-1.88431
-1.88437
-1.88444
-1.88447
-1.8844
-1.88422
-1.88408
-1.88397
-1.88379
-1.8836
-1.8835
-1.88348
-1.88348
-1.88346
-1.88345
-1.88348
-1.88341
-1.88336
-1.88338
-1.88339
-1.88338
-1.88338
-1.88339
-1.88338
-1.8834
-1.88342
-1.88346
-1.88366
-1.88377
-1.8837
-1.88368
-1.88367
-1.88358
-1.88351
-1.8834
-1.88324
-1.88315
-1.88314
-1.88475
-1.88453
-1.88442
-1.88433
-1.88426
-1.88423
-1.88424
-1.88428
-1.8843
-1.88433
-1.88432
-1.88424
-1.88411
-1.88399
-1.88389
-1.88379
-1.88367
-1.88357
-1.88351
-1.88349
-1.88348
-1.88345
-1.88342
-1.88338
-1.88336
-1.88337
-1.88338
-1.88338
-1.88338
-1.88338
-1.88338
-1.8834
-1.88343
-1.88351
-1.88365
-1.88369
-1.8836
-1.88356
-1.8836
-1.88359
-1.88349
-1.88336
-1.88326
-1.88321
-1.88319
-1.88483
-1.88465
-1.8845
-1.88437
-1.88429
-1.88425
-1.88425
-1.88426
-1.88428
-1.88429
-1.88428
-1.88422
-1.88412
-1.88401
-1.8839
-1.88378
-1.88368
-1.8836
-1.88355
-1.88352
-1.88349
-1.88347
-1.88345
-1.88342
-1.8834
-1.88339
-1.88339
-1.88338
-1.88339
-1.88339
-1.88339
-1.88342
-1.88346
-1.88354
-1.88363
-1.88361
-1.88353
-1.88353
-1.88353
-1.88349
-1.88344
-1.88337
-1.88331
-1.88327
-1.88325
-1.88459
-1.88446
-1.88437
-1.8843
-1.88425
-1.88423
-1.88422
-1.88421
-1.88419
-1.88415
-1.88409
-1.88402
-1.88394
-1.88385
-1.88377
-1.88368
-1.88362
-1.88357
-1.88353
-1.8835
-1.88347
-1.88344
-1.88342
-1.8834
-1.8834
-1.88339
-1.88339
-1.88339
-1.88339
-1.8834
-1.88342
-1.88346
-1.88351
-1.88358
-1.88355
-1.88348
-1.88347
-1.88348
-1.88346
-1.88341
-1.88337
-1.88332
-1.8833
-1.88329
-1.88464
-1.88452
-1.88441
-1.88434
-1.88428
-1.88425
-1.88423
-1.8842
-1.88418
-1.88414
-1.88408
-1.88401
-1.88392
-1.88384
-1.88376
-1.88369
-1.88363
-1.88358
-1.88354
-1.88351
-1.88348
-1.88346
-1.88344
-1.88342
-1.88341
-1.8834
-1.88339
-1.88339
-1.8834
-1.88341
-1.88342
-1.88345
-1.88349
-1.88353
-1.88351
-1.88347
-1.88346
-1.88345
-1.88343
-1.8834
-1.88337
-1.88334
-1.88332
-1.88331
-1.88474
-1.8846
-1.88449
-1.8844
-1.88433
-1.88427
-1.88422
-1.88419
-1.88415
-1.88411
-1.88406
-1.884
-1.88394
-1.88388
-1.88381
-1.88375
-1.88369
-1.88363
-1.88359
-1.88355
-1.88352
-1.88349
-1.88346
-1.88344
-1.88342
-1.88341
-1.8834
-1.8834
-1.8834
-1.8834
-1.88341