/*--------------------------------*- C++ -*----------------------------------*\
| =========                 |                                                 |
| \\      /  F ield         | OpenFOAM: The Open Source CFD Toolbox           |
|  \\    /   O peration     | Version:  2.3.1                                 |
|   \\  /    A nd           | Web:      www.OpenFOAM.org                      |
|    \\/     M anipulation  |                                                 |
\*---------------------------------------------------------------------------*/
FoamFile
{
    version     2.0;
    format      ascii;
    class       surfaceScalarField;
    location    "20";
    object      phi;
}
// * * * * * * * * * * * * * * * * * * * * * * * * * * * * * * * * * * * * * //

dimensions      [0 3 -1 0 0 0 0];

internalField   nonuniform List<scalar> 
109568
(
2.6854e-05
6.04409e-06
-7.37543e-06
2.83619e-05
5.23165e-06
-6.73957e-06
2.8896e-05
2.6496e-06
-3.18372e-06
2.84491e-05
5.76995e-07
-1.30092e-07
2.98179e-05
-1.15462e-06
-2.14157e-07
3.39845e-05
-2.12096e-06
-2.04559e-06
3.69521e-05
-1.4047e-06
-1.56298e-06
3.60046e-05
-5.86599e-07
1.53416e-06
3.44516e-05
-1.31241e-06
2.86537e-06
3.57435e-05
-2.33999e-06
1.04814e-06
3.64803e-05
-1.18387e-06
4.46999e-07
3.22335e-05
1.77521e-06
2.47162e-06
2.56e-05
2.81951e-06
3.81398e-06
2.03062e-05
1.91731e-06
3.37645e-06
1.70621e-05
9.77433e-07
2.26676e-06
1.54199e-05
3.33704e-07
1.30846e-06
1.45e-05
9.51376e-09
9.10372e-07
1.4148e-05
-1.53046e-07
5.05092e-07
1.38317e-05
-3.03264e-07
6.19497e-07
1.32363e-05
-5.80176e-07
1.17562e-06
1.29284e-05
-8.8273e-07
1.19066e-06
1.24228e-05
-9.46977e-07
1.45253e-06
1.1801e-05
-8.64763e-07
1.48653e-06
1.25938e-05
-7.84559e-07
-8.17573e-09
1.44927e-05
-5.98753e-07
-1.30015e-06
1.57699e-05
-1.99046e-07
-1.07821e-06
1.6414e-05
-1.21569e-07
-5.22522e-07
1.68674e-05
-1.44725e-07
-3.08666e-07
1.64357e-05
2.70737e-07
1.60921e-07
1.5763e-05
1.77025e-07
4.95676e-07
1.57933e-05
-1.71717e-07
1.41487e-07
1.53683e-05
-1.03985e-08
4.35394e-07
1.45539e-05
-4.87735e-07
1.3021e-06
1.46715e-05
-1.34448e-06
1.22692e-06
1.47611e-05
-1.10188e-06
1.01223e-06
1.44753e-05
-1.30618e-06
1.59201e-06
1.54976e-05
-2.7608e-06
1.73846e-06
1.61103e-05
-1.8102e-06
1.19749e-06
1.4464e-05
4.69233e-07
1.17714e-06
1.264e-05
7.72457e-07
1.05155e-06
1.0583e-05
1.29889e-06
7.58082e-07
6.87316e-06
2.78768e-06
9.22151e-07
2.9553e-06
2.92556e-06
9.923e-07
2.14775e-06
8.07549e-07
2.3916e-05
4.25316e-06
-4.55212e-06
2.54109e-05
1.92816e-06
1.80856e-06
2.00328e-05
8.05882e-07
7.22181e-06
1.31006e-05
2.26009e-07
7.28318e-06
9.09596e-06
-4.31478e-07
3.2815e-06
7.76428e-06
-1.00169e-06
2.1241e-07
7.85526e-06
-9.72494e-07
-5.23196e-07
8.2957e-06
-5.66819e-07
-4.60222e-07
8.54725e-06
-5.27883e-07
-1.03607e-06
8.92784e-06
-3.94002e-07
-2.32658e-06
9.28545e-06
5.50754e-07
-2.09223e-06
9.31021e-06
1.3631e-06
3.87349e-07
9.4204e-06
1.20558e-06
1.50375e-06
9.0007e-06
9.28679e-07
1.40833e-06
6.90396e-06
8.22967e-07
2.2512e-06
4.1964e-06
4.31306e-07
2.60996e-06
2.66173e-06
-5.85198e-09
1.55003e-06
2.07198e-06
-2.1855e-07
6.55253e-07
1.7088e-06
-4.84719e-07
5.44633e-07
1.6825e-06
-7.85209e-07
2.31333e-07
2.15756e-06
-8.51995e-07
-5.05795e-07
3.00651e-06
-5.53447e-07
-1.24248e-06
4.0735e-06
-5.8866e-08
-1.87288e-06
5.25649e-06
2.91342e-07
-2.25889e-06
6.43805e-06
5.66324e-07
-2.34664e-06
7.23549e-06
9.25941e-07
-1.92242e-06
7.49328e-06
8.41913e-07
-1.22128e-06
7.88949e-06
4.00196e-07
-9.41132e-07
8.51591e-06
3.63923e-07
-7.19603e-07
8.72035e-06
3.42151e-07
-3.69563e-07
8.65209e-06
-1.5106e-07
4.75995e-08
8.52287e-06
-6.09904e-07
7.28726e-07
8.47993e-06
-5.91166e-07
1.4637e-07
9.01691e-06
-9.12435e-07
-9.69027e-07
9.7966e-06
-1.8983e-06
1.6723e-08
9.41623e-06
-2.21249e-06
1.28668e-06
8.13917e-06
-2.25472e-06
7.70979e-07
7.41187e-06
-1.5396e-06
4.56689e-07
6.58164e-06
5.06547e-07
7.92924e-07
4.67293e-06
2.32922e-06
3.51944e-07
2.6317e-06
3.3336e-06
6.51354e-09
1.42766e-06
3.60835e-06
3.83364e-07
7.30871e-07
3.01518e-06
6.07177e-07
2.34741e-06
5.3121e-07
1.58443e-05
3.69184e-06
3.07093e-06
1.05572e-05
2.37758e-06
7.1626e-06
4.55633e-06
1.17129e-06
6.75779e-06
1.38524e-06
5.68358e-07
3.40861e-06
4.1746e-07
-2.89512e-07
1.4833e-06
3.26484e-07
-1.06739e-06
7.26883e-07
3.85641e-07
-1.53746e-06
4.76607e-07
4.37751e-07
-1.556e-06
5.31399e-07
4.03499e-07
-1.43973e-06
9.07163e-07
-8.56771e-08
-1.41455e-06
1.37585e-06
-8.3564e-07
-1.31881e-06
1.67477e-06
-1.3271e-06
-5.77515e-07
1.61973e-06
-1.67859e-06
2.2575e-07
1.48883e-06
-2.06761e-06
4.67182e-07
1.12743e-06
-2.42358e-06
6.19157e-07
6.65493e-07
-2.45474e-06
6.75797e-07
1.78327e-07
-2.07947e-06
5.08302e-07
-4.5227e-07
-1.46618e-06
3.63421e-07
-9.82558e-07
-8.11305e-07
3.32063e-07
-1.20549e-06
-2.51283e-07
3.18326e-07
-1.36307e-06
2.70903e-07
3.43533e-07
-1.65093e-06
8.83225e-07
4.5375e-07
-1.91807e-06
1.71387e-06
6.57159e-07
-2.04125e-06
2.71412e-06
9.07899e-07
-1.96702e-06
3.64055e-06
1.08027e-06
-1.71537e-06
4.32071e-06
1.17679e-06
-1.29062e-06
4.69024e-06
1.21519e-06
-6.58785e-07
5.04257e-06
9.0664e-07
-4.17057e-07
5.60676e-06
6.38312e-07
-8.02309e-07
5.87423e-06
8.96146e-07
-7.99692e-07
6.13848e-06
6.9723e-07
-6.19331e-07
6.90885e-06
3.86262e-09
-9.25295e-07
7.27726e-06
1.41046e-07
-1.11935e-06
8.29835e-06
-1.42097e-07
-1.47016e-06
9.71343e-06
-1.20182e-06
-1.1257e-06
7.78364e-06
-1.26069e-06
1.29218e-06
4.12541e-06
-1.08318e-06
2.52893e-06
2.0044e-06
-9.81243e-07
8.4754e-07
8.95319e-07
-5.82521e-08
-3.72267e-07
2.33833e-07
1.27281e-06
-1.04781e-07
5.29565e-08
2.29145e-06
2.18649e-07
1.95194e-07
2.86129e-06
3.30078e-07
3.81426e-07
2.93213e-06
4.89995e-07
3.06633e-07
2.5731e-06
5.16868e-07
2.22539e-06
4.28658e-07
-4.65754e-06
3.65019e-06
-6.05347e-06
1.41722e-06
2.35629e-06
-6.5295e-06
3.69372e-07
1.27795e-06
-6.5295e-06
-1.69037e-07
7.37398e-07
-6.66501e-06
-6.8779e-07
5.3379e-07
-6.92932e-06
-8.90019e-07
8.69455e-08
-7.10388e-06
-1.18908e-06
-1.7382e-07
-7.02514e-06
-1.17719e-06
-4.57546e-07
-6.95928e-06
-1.06917e-06
-4.36426e-07
-6.91772e-06
-8.64895e-07
-5.91218e-07
-6.84467e-06
-7.26418e-07
-6.6544e-07
-6.51649e-06
-3.64817e-07
-5.40887e-07
-5.93657e-06
5.31987e-08
-4.07361e-07
-5.29825e-06
2.73965e-07
-4.45108e-07
-4.59626e-06
5.67963e-07
-6.50791e-07
-3.77966e-06
8.50102e-07
-9.90912e-07
-3.00048e-06
1.03269e-06
-1.30356e-06
-2.33365e-06
1.17363e-06
-1.47703e-06
-1.72295e-06
1.27724e-06
-1.55588e-06
-1.12504e-06
1.35234e-06
-1.63192e-06
-5.16133e-07
1.44775e-06
-1.71312e-06
1.16093e-07
1.58063e-06
-1.75911e-06
7.61799e-07
1.75218e-06
-1.74073e-06
1.31119e-06
1.94277e-06
-1.58427e-06
1.71983e-06
2.07757e-06
-1.40594e-06
2.06766e-06
2.07926e-06
-1.2503e-06
2.50218e-06
1.92196e-06
-1.14129e-06
3.14053e-06
1.57869e-06
-1.31041e-06
3.96447e-06
1.31484e-06
-1.50047e-06
4.77012e-06
1.2589e-06
-1.1684e-06
5.55696e-06
7.58596e-07
-8.48199e-07
6.183e-06
4.22721e-07
-1.0449e-06
6.6935e-06
9.74171e-07
-1.34363e-06
8.03317e-06
-9.60097e-08
-1.38575e-06
8.24245e-06
-1.31662e-06
-9.44788e-08
5.02596e-06
3.25021e-07
1.63078e-06
1.55931e-06
7.72985e-07
1.61049e-06
1.74797e-08
-1.13119e-07
6.73705e-07
-5.92931e-07
2.68244e-07
2.83915e-07
-7.60091e-07
1.20019e-06
2.39788e-07
-6.77314e-07
1.94389e-06
2.64787e-07
-4.019e-07
2.27577e-06
3.10101e-07
-9.86157e-08
2.25828e-06
3.70559e-07
-2.07584e-08
2.14602e-06
3.49218e-07
1.97185e-06
2.32777e-07
-9.65304e-06
3.47832e-07
2.72834e-07
-9.1068e-06
1.12439e-07
-2.89309e-07
-8.81361e-06
-1.37642e-07
-3.24581e-07
-8.41933e-06
-5.09688e-07
-5.7238e-07
-8.16865e-06
-6.31323e-07
-5.09381e-07
-7.93453e-06
-9.01003e-07
-5.22205e-07
-7.64942e-06
-8.15576e-07
-6.46723e-07
-7.39333e-06
-7.50579e-07
-5.74679e-07
-7.0177e-06
-5.36299e-07
-7.04225e-07
-6.66345e-06
-3.29534e-07
-7.5113e-07
-6.25794e-06
6.12952e-08
-8.31629e-07
-5.79302e-06
4.55764e-07
-8.67484e-07
-5.32334e-06
7.93956e-07
-9.89666e-07
-4.78288e-06
1.13284e-06
-1.10534e-06
-4.12984e-06
1.39898e-06
-1.20192e-06
-3.43439e-06
1.59276e-06
-1.25552e-06
-2.72843e-06
1.74935e-06
-1.28168e-06
-2.03341e-06
1.89308e-06
-1.31087e-06
-1.35633e-06
2.03538e-06
-1.36013e-06
-6.87692e-07
2.1877e-06
-1.40859e-06
-7.00878e-08
2.33819e-06
-1.37517e-06
3.5989e-07
2.52411e-06
-1.2019e-06
7.03168e-07
2.81361e-06
-1.21411e-06
1.25845e-06
2.84712e-06
-1.32484e-06
2.03476e-06
2.36323e-06
-1.06027e-06
2.87543e-06
1.78398e-06
-7.02693e-07
3.56369e-06
1.35578e-06
-4.65337e-07
3.96896e-06
1.09404e-06
-1.8446e-07
4.22379e-06
9.01855e-07
1.0221e-07
4.5331e-06
5.54068e-07
-1.04779e-07
5.18423e-06
3.87365e-07
-6.15778e-07
6.34702e-06
4.46351e-07
-6.34973e-07
7.21912e-06
-4.65898e-07
-5.02204e-07
6.60517e-06
-8.5244e-07
1.49759e-07
4.80605e-06
6.36493e-07
1.48766e-06
2.6221e-06
1.38076e-06
1.57617e-06
6.95059e-07
1.00496e-06
8.08955e-07
-4.22625e-07
9.51471e-07
4.34457e-07
-7.61933e-07
1.22915e-06
3.10339e-07
-6.43593e-07
1.53023e-06
2.9532e-07
-3.4074e-07
1.68183e-06
2.91091e-07
-6.04738e-08
1.68516e-06
2.92856e-07
2.82204e-07
1.55241e-06
2.50937e-07
1.48155e-06
1.67402e-07
1.74112e-07
1.82605e-07
1.82262e-07
2.19539e-08
2.24135e-08
2.17603e-08
-1.02705e-05
3.44078e-07
-5.79588e-07
-9.68425e-06
4.70335e-07
-9.44151e-07
-9.0982e-06
2.02029e-07
-9.25724e-07
-8.66173e-06
5.96607e-08
-1.00581e-06
-8.36128e-06
1.09867e-07
-1.04164e-06
-8.077e-06
-6.37875e-08
-1.1215e-06
-7.85039e-06
5.09952e-08
-1.09318e-06
-7.58281e-06
1.26235e-07
-1.1444e-06
-7.262e-06
2.67799e-07
-1.1249e-06
-6.93026e-06
4.68944e-07
-1.13022e-06
-6.4812e-06
7.11448e-07
-1.09922e-06
-5.91833e-06
9.81643e-07
-1.08875e-06
-5.2976e-06
1.26972e-06
-1.09649e-06
-4.6012e-06
1.56796e-06
-1.13152e-06
-3.87184e-06
1.85868e-06
-1.18906e-06
-3.13834e-06
2.10547e-06
-1.24622e-06
-2.40946e-06
2.32396e-06
-1.30349e-06
-1.68983e-06
2.51944e-06
-1.34599e-06
-1.02544e-06
2.7088e-06
-1.3378e-06
-4.83167e-07
2.87585e-06
-1.23042e-06
-1.69522e-07
3.04039e-06
-1.01584e-06
1.45434e-07
3.30242e-06
-1.09327e-06
9.06562e-07
3.23885e-06
-1.18638e-06
1.70369e-06
2.32184e-06
-2.71854e-07
2.01777e-06
1.29873e-06
7.5042e-07
2.06499e-06
7.08289e-07
1.02847e-06
2.12406e-06
4.30463e-07
8.66241e-07
2.31543e-06
3.33438e-07
5.69237e-07
2.70621e-06
2.97279e-07
2.13797e-07
3.30718e-06
1.73996e-07
-2.20901e-07
4.14488e-06
3.8071e-08
-4.88407e-07
5.0755e-06
-9.29833e-08
-3.91284e-07
5.39904e-06
-5.43032e-07
-2.46405e-07
4.50763e-06
-2.96119e-07
3.35087e-07
2.74765e-06
1.19411e-06
1.20236e-06
1.13202e-06
1.91737e-06
1.07903e-06
7.63076e-08
1.50166e-06
5.59012e-07
-4.82546e-07
1.12473e-06
3.85595e-07
-6.57937e-07
1.11244e-06
2.92105e-07
-5.9129e-07
1.22197e-06
2.41607e-07
-3.98286e-07
1.26944e-06
2.19388e-07
-2.05544e-07
1.28102e-06
2.11395e-07
6.64546e-08
1.10241e-06
1.78003e-07
1.08697e-06
1.50655e-07
9.68536e-08
9.03699e-08
8.91917e-08
1.25673e-08
1.12133e-08
1.01801e-08
-1.07045e-05
5.77935e-07
-8.84219e-07
-1.02701e-05
7.23512e-07
-8.13821e-07
-9.80762e-06
7.74944e-07
-7.67068e-07
-9.22831e-06
6.14468e-07
-9.91752e-07
-8.94542e-06
5.75077e-07
-7.98309e-07
-8.49541e-06
6.32455e-07
-9.72592e-07
-8.13141e-06
4.72548e-07
-9.00339e-07
-7.78291e-06
6.71084e-07
-9.68591e-07
-7.34928e-06
6.98114e-07
-1.00551e-06
-6.93692e-06
8.8987e-07
-1.03443e-06
-6.46854e-06
1.08536e-06
-1.0848e-06
-5.96977e-06
1.33021e-06
-1.11753e-06
-5.44387e-06
1.60224e-06
-1.1465e-06
-4.86748e-06
1.87904e-06
-1.18571e-06
-4.24193e-06
2.16062e-06
-1.21821e-06
-3.56029e-06
2.41959e-06
-1.24254e-06
-2.86549e-06
2.66546e-06
-1.2548e-06
-2.19453e-06
2.89436e-06
-1.24135e-06
-1.59594e-06
3.10703e-06
-1.18617e-06
-1.0855e-06
3.28404e-06
-1.08569e-06
-6.55808e-07
3.41177e-06
-9.65615e-07
-1.43379e-07
3.52167e-06
-9.93714e-07
6.74207e-07
3.35871e-06
-8.73874e-07
1.00791e-06
2.42724e-06
4.77904e-07
4.74526e-07
1.17498e-06
1.68026e-06
-1.51623e-08
4.51807e-07
1.33661e-06
-1.05627e-07
1.43262e-07
6.55491e-07
6.39343e-08
-3.34522e-08
2.94353e-07
4.31146e-07
-1.49456e-07
1.15682e-07
9.29825e-07
-2.23879e-07
2.24782e-08
1.46564e-06
-3.11503e-07
-5.03148e-08
1.89874e-06
-3.74671e-07
-2.0361e-08
1.99525e-06
-3.50843e-07
1.61353e-07
1.48079e-06
-2.06344e-07
1.77769e-07
5.54578e-07
4.33103e-07
1.96993e-07
-1.04773e-07
1.44407e-06
4.09389e-07
-3.12463e-07
1.69718e-06
4.27881e-07
-4.42062e-07
1.24181e-06
3.8945e-07
-5.91684e-07
9.56645e-07
3.17706e-07
-6.18302e-07
9.02714e-07
2.36345e-07
-5.32081e-07
9.39193e-07
1.96558e-07
-3.90635e-07
9.56514e-07
1.71478e-07
-2.45326e-07
9.74151e-07
1.61565e-07
-1.34773e-07
8.62325e-07
1.29531e-07
8.76356e-07
1.30816e-07
-1.10699e-08
-1.84657e-08
-1.98921e-08
-6.75746e-10
-2.05098e-09
-2.81635e-09
-1.04775e-05
1.09542e-06
-1.06722e-06
-9.8115e-06
7.23066e-07
-6.65587e-07
-9.56393e-06
1.39711e-06
-8.69735e-07
-9.02817e-06
1.01959e-06
-9.40879e-07
-8.77353e-06
1.22324e-06
-9.02801e-07
-8.37943e-06
1.32252e-06
-1.08416e-06
-8.11371e-06
1.21885e-06
-1.01202e-06
-7.77595e-06
1.48817e-06
-1.15485e-06
-7.38664e-06
1.46167e-06
-1.15287e-06
-7.0368e-06
1.722e-06
-1.18197e-06
-6.54673e-06
1.82228e-06
-1.22698e-06
-6.07632e-06
2.08724e-06
-1.22744e-06
-5.49558e-06
2.28448e-06
-1.26297e-06
-4.89605e-06
2.55989e-06
-1.28039e-06
-4.25256e-06
2.81019e-06
-1.29306e-06
-3.59733e-06
3.04944e-06
-1.28508e-06
-2.93815e-06
3.25496e-06
-1.24868e-06
-2.27715e-06
3.41498e-06
-1.18162e-06
-1.5907e-06
3.50362e-06
-1.08304e-06
-8.51042e-07
3.48709e-06
-9.4271e-07
-7.16239e-08
3.35777e-06
-7.25415e-07
6.15711e-07
3.06466e-06
-2.3032e-07
5.75207e-07
2.35676e-06
1.04246e-06
-1.88775e-07
1.32213e-06
1.86909e-06
-7.67405e-07
6.36293e-07
1.11731e-06
-9.55514e-07
2.84591e-07
3.55326e-07
-9.65153e-07
4.13081e-08
1.11594e-07
-8.96709e-07
-1.35822e-07
3.39256e-08
-7.88352e-07
-2.65818e-07
8.00571e-09
-6.5827e-07
-3.56223e-07
2.26264e-09
-5.56688e-07
-4.18941e-07
5.85552e-09
-5.54257e-07
-4.02165e-07
2.50624e-08
-7.00514e-07
-2.54986e-07
5.04002e-08
-9.82781e-07
-1.83823e-09
7.77622e-08
-1.17701e-06
4.66666e-07
1.6067e-07
-1.03891e-06
1.04526e-06
2.60705e-07
-7.78477e-07
3.27478e-07
-6.92912e-07
3.02316e-07
-6.78551e-07
2.22341e-07
-6.32117e-07
1.69086e-07
-5.39794e-07
1.42916e-07
-4.3763e-07
1.29767e-07
-3.33486e-07
1.23666e-07
-3.196e-07
9.69559e-08
1.09173e-07
-9.17663e-08
-9.57442e-08
-9.20866e-08
-1.08557e-08
-1.16298e-08
-1.15562e-08
-1.00471e-05
1.32013e-06
-9.51387e-07
-9.18579e-06
2.34906e-07
-3.73161e-07
-8.90638e-06
1.6475e-06
-5.29801e-07
-8.22627e-06
9.96067e-07
-6.56596e-07
-7.91192e-06
1.40885e-06
-4.99954e-07
-7.49435e-06
1.60344e-06
-6.98497e-07
-7.23913e-06
1.6017e-06
-6.3807e-07
-6.88141e-06
1.91446e-06
-7.84013e-07
-6.56773e-06
1.94242e-06
-7.94433e-07
-6.20856e-06
2.27802e-06
-9.15178e-07
-5.78638e-06
2.35773e-06
-9.57633e-07
-5.34603e-06
2.66823e-06
-1.02135e-06
-4.81438e-06
2.81038e-06
-1.05755e-06
-4.23527e-06
3.03865e-06
-1.05785e-06
-3.57005e-06
3.18224e-06
-1.03729e-06
-2.84271e-06
3.292e-06
-9.69899e-07
-2.04799e-06
3.29997e-06
-8.39725e-07
-1.20808e-06
3.21098e-06
-6.35904e-07
-3.92275e-07
3.0042e-06
-3.16387e-07
2.03683e-07
2.72893e-06
1.62205e-07
3.25501e-07
2.41583e-06
8.2012e-07
-1.08074e-07
1.95764e-06
1.5406e-06
-7.61293e-07
1.31702e-06
1.69296e-06
-1.12761e-06
7.55733e-07
9.32716e-07
-1.17295e-06
3.79162e-07
3.02472e-07
-1.1105e-06
1.50914e-07
7.12274e-08
-1.04815e-06
5.7008e-09
-2.67475e-08
-1.01723e-06
-1.06346e-07
-6.03874e-08
-1.01991e-06
-2.06315e-07
-5.68303e-08
-1.05408e-06
-2.87649e-07
-3.43999e-08
-1.12465e-06
-3.42456e-07
-5.9142e-09
-1.22575e-06
-3.34316e-07
3.32484e-08
-1.33447e-06
-2.28045e-07
8.17815e-08
-1.42446e-06
-2.91972e-08
1.17351e-07
-1.39739e-06
2.88212e-07
1.51382e-07
2.18298e-07
-1.04289e-05
9.97577e-07
-6.87759e-07
-9.68787e-06
-2.78159e-08
-4.7834e-07
-9.19878e-06
1.23712e-06
-7.86991e-08
-8.27441e-06
6.73555e-07
-6.01862e-07
-7.72899e-06
9.81222e-07
-1.17795e-07
-7.05111e-06
1.20688e-06
-2.81317e-07
-6.60475e-06
1.39263e-06
-2.37288e-07
-6.00365e-06
1.47634e-06
-1.62981e-07
-5.4799e-06
1.71476e-06
-2.96082e-07
-5.02914e-06
1.99923e-06
-1.71972e-07
-4.46581e-06
2.02251e-06
-2.28113e-07
-3.93899e-06
2.35758e-06
-2.16163e-07
-3.36769e-06
2.3918e-06
-1.52727e-07
-2.76555e-06
2.54453e-06
-1.08024e-07
-2.153e-06
2.55088e-06
1.88068e-08
-1.57652e-06
2.51033e-06
2.05194e-07
-1.10643e-06
2.35151e-06
4.78368e-07
-8.374e-07
2.11938e-06
8.22571e-07
-8.37632e-07
1.83205e-06
1.17239e-06
-1.07153e-06
1.56658e-06
1.39625e-06
-1.38223e-06
1.31018e-06
1.41635e-06
-1.60274e-06
1.01493e-06
1.16321e-06
-1.62853e-06
6.84953e-07
6.57862e-07
-1.51407e-06
4.0101e-07
2.40261e-07
-1.39098e-06
2.20284e-07
3.5785e-08
-1.28344e-06
9.94392e-08
-5.60657e-08
-1.19245e-06
5.12396e-09
-9.04112e-08
-1.12569e-06
-7.51937e-08
-9.79149e-08
-1.09684e-06
-1.43156e-07
-9.20043e-08
-1.11101e-06
-1.99375e-07
-7.41007e-08
-1.17089e-06
-2.38057e-07
-4.45183e-08
-1.2614e-06
-2.38889e-07
-4.92284e-09
-1.34805e-06
-1.80469e-07
3.9075e-08
-1.38869e-06
-6.85337e-08
7.99712e-08
9.8197e-08
1.21341e-07
-1.07037e-05
4.19313e-08
-1.29651e-07
-1.06102e-05
4.18852e-07
-5.40221e-07
-9.96081e-06
2.07437e-07
3.80316e-07
-9.14408e-06
5.21412e-07
-6.64586e-07
-8.62968e-06
3.0849e-07
1.58333e-07
-8.01022e-06
5.16419e-07
7.10016e-08
-7.53604e-06
7.36745e-07
1.81708e-07
-6.76025e-06
5.44414e-07
1.56134e-07
-6.20115e-06
8.4116e-07
3.14493e-07
-5.75729e-06
1.01889e-06
5.36475e-07
-4.98584e-06
8.7649e-07
3.74577e-07
-4.61435e-06
1.25403e-06
7.32061e-07
-4.01829e-06
1.11243e-06
6.83312e-07
-3.6117e-06
1.25873e-06
8.79215e-07
-3.23857e-06
1.19327e-06
9.84483e-07
-2.98593e-06
1.14661e-06
1.11108e-06
-2.82864e-06
1.01912e-06
1.17509e-06
-2.73891e-06
8.83565e-07
1.14609e-06
-2.66646e-06
7.4708e-07
1.01251e-06
-2.54427e-06
6.29972e-07
8.14416e-07
-2.34759e-06
5.14237e-07
5.9926e-07
-2.0925e-06
3.87176e-07
3.72671e-07
-1.83869e-06
2.62358e-07
1.6878e-07
-1.63231e-06
1.63697e-07
3.09401e-08
-1.46415e-06
9.1742e-08
-3.96236e-08
-1.3294e-06
3.83502e-08
-7.36543e-08
-1.22927e-06
-5.60634e-09
-8.93997e-08
-1.1652e-06
-4.47746e-08
-9.44975e-08
-1.13489e-06
-8.19293e-08
-9.15358e-08
-1.13739e-06
-1.15143e-07
-8.17325e-08
-1.17032e-06
-1.40113e-07
-6.50122e-08
-1.22157e-06
-1.47656e-07
-3.9986e-08
-1.26536e-06
-1.28228e-07
-8.44757e-09
-1.27341e-06
-8.26861e-08
2.22081e-08
-8.9266e-09
4.98053e-08
-1.06502e-05
-6.5357e-07
-1.07703e-05
5.38926e-07
-1.01351e-05
-4.2776e-07
-9.53248e-06
-8.1167e-08
-8.98334e-06
-2.40655e-07
-8.81491e-06
3.47988e-07
-8.26182e-06
1.83658e-07
-7.69161e-06
-2.57958e-08
-7.39011e-06
5.39659e-07
-6.92978e-06
5.5856e-07
-6.32513e-06
2.71837e-07
-6.06107e-06
9.89964e-07
-5.45718e-06
5.08539e-07
-5.10698e-06
9.08529e-07
-4.64694e-06
7.33238e-07
-4.25908e-06
7.58747e-07
-3.87171e-06
6.3175e-07
-3.50011e-06
5.11966e-07
-3.13263e-06
3.79604e-07
-2.76838e-06
2.65722e-07
-2.41847e-06
1.64332e-07
-2.10302e-06
7.17185e-08
-1.83631e-06
-4.34808e-09
-1.61945e-06
-5.31695e-08
-1.44697e-06
-8.07333e-08
-1.31264e-06
-9.59815e-08
-1.21372e-06
-1.04523e-07
-1.1485e-06
-1.09996e-07
-1.11643e-06
-1.14001e-07
-1.11525e-06
-1.16318e-07
-1.13954e-06
-1.15828e-07
-1.17661e-06
-1.10581e-07
-1.205e-06
-9.98375e-08
-1.20304e-06
-8.46489e-08
-6.56262e-08
1.87245e-05
4.35941e-06
-9.59041e-06
1.83491e-05
4.04724e-07
-6.76891e-06
1.94149e-05
-1.88853e-06
-2.36098e-06
2.15161e-05
-2.71975e-06
4.88479e-07
2.41055e-05
-2.94795e-06
1.44364e-07
2.6039e-05
-2.7501e-06
-1.22901e-06
2.68302e-05
-2.26194e-06
-9.21995e-08
2.81331e-05
-1.99656e-06
2.22776e-06
3.1217e-05
-2.14873e-06
1.93022e-06
3.4128e-05
-1.81297e-06
-4.98792e-08
3.28268e-05
3.19468e-07
1.42871e-06
2.71434e-05
2.70288e-06
5.45215e-06
2.14698e-05
2.58369e-06
6.90386e-06
1.78716e-05
1.57624e-06
5.39843e-06
1.58286e-05
9.96248e-07
3.3135e-06
1.47437e-05
4.75326e-07
1.91804e-06
1.39952e-05
1.79627e-07
1.47925e-06
1.33539e-05
4.31237e-08
1.10328e-06
1.27856e-05
-1.56397e-07
1.34421e-06
1.23869e-05
-3.85043e-07
1.95939e-06
1.21433e-05
-5.78266e-07
2.01245e-06
1.19627e-05
-6.01767e-07
2.23496e-06
1.23171e-05
-3.84697e-07
1.51682e-06
1.3265e-05
-1.30321e-07
-8.2573e-07
1.41952e-05
-6.35646e-08
-2.16687e-06
1.4766e-05
8.23001e-08
-1.73128e-06
1.4968e-05
2.49428e-07
-9.73931e-07
1.46091e-05
2.77459e-07
-2.27223e-07
1.37902e-05
1.6511e-07
8.14712e-07
1.33994e-05
-2.96433e-07
1.1829e-06
1.34597e-05
-5.96383e-07
6.77586e-07
1.32599e-05
-5.47379e-07
1.18253e-06
1.34354e-05
-7.6838e-07
1.89503e-06
1.43547e-05
-1.04576e-06
1.3534e-06
1.47776e-05
-7.77718e-07
1.36702e-06
1.48081e-05
-1.00397e-06
2.56548e-06
1.5722e-05
-2.13254e-06
2.95711e-06
1.5988e-05
-1.58965e-06
2.52117e-06
1.43591e-05
8.10335e-08
2.72499e-06
1.26875e-05
5.21524e-07
2.20155e-06
1.08035e-05
1.26894e-06
1.37315e-06
7.19127e-06
2.73184e-06
1.80259e-06
3.1494e-06
2.9001e-06
2.13406e-06
2.16083e-06
1.79612e-06
1.5284e-05
-2.95959e-07
-2.24186e-06
1.39893e-05
-1.51094e-06
5.0189e-06
1.07225e-05
-1.02224e-06
9.62231e-06
8.47391e-06
-8.28277e-07
7.64035e-06
7.59089e-06
-1.30682e-06
2.52338e-06
7.44161e-06
-1.70813e-06
-6.80277e-07
7.8942e-06
-1.64116e-06
-1.59657e-06
8.66244e-06
-1.30238e-06
-1.92264e-06
9.15935e-06
-1.0575e-06
-2.6242e-06
9.15299e-06
-6.37094e-07
-3.49609e-06
8.86669e-06
4.71533e-07
-1.95801e-06
8.86076e-06
1.23153e-06
1.86463e-06
8.9356e-06
1.04429e-06
2.9683e-06
8.4006e-06
1.00138e-06
2.51819e-06
6.79065e-06
1.15094e-06
3.70647e-06
4.87017e-06
8.41868e-07
4.1639e-06
3.77299e-06
4.53802e-07
2.37304e-06
3.40379e-06
2.53314e-07
8.14259e-07
3.33732e-06
1.79559e-08
4.3675e-07
3.50537e-06
-2.1692e-07
-1.04839e-07
3.88157e-06
-2.62481e-07
-1.19778e-06
4.35838e-06
-1.49203e-09
-2.31957e-06
4.97284e-06
3.64571e-07
-3.23661e-06
5.67868e-06
5.38186e-07
-3.63323e-06
6.25394e-06
5.42214e-07
-3.52769e-06
6.64388e-06
5.41631e-07
-2.77169e-06
6.92795e-06
3.70431e-07
-1.62635e-06
7.15108e-06
9.29835e-08
-9.79789e-07
7.32829e-06
-1.05976e-07
-6.2573e-07
7.43656e-06
-4.0848e-07
-3.65783e-07
7.68489e-06
-6.95164e-07
-1.01944e-07
8.38248e-06
-7.52097e-07
2.35848e-07
9.18904e-06
-6.35257e-07
-7.93308e-07
9.74279e-06
-6.81427e-07
-1.88712e-06
1.04329e-05
-1.34741e-06
-1.03717e-07
1.04548e-05
-1.93937e-06
2.20023e-06
9.32068e-06
-2.15691e-06
1.92943e-06
8.38545e-06
-1.55371e-06
1.35598e-06
7.55901e-06
1.42217e-07
1.55819e-06
5.60223e-06
1.97964e-06
8.50609e-07
3.25048e-06
3.24818e-06
3.79021e-07
1.72753e-06
3.63536e-06
1.00279e-06
8.42476e-07
3.05312e-06
1.33921e-06
2.3798e-06
1.15472e-06
4.89822e-06
4.51414e-07
6.30155e-06
2.16427e-06
-1.235e-08
9.61294e-06
3.94628e-07
-1.90775e-07
7.20726e-06
-3.14485e-07
-2.1966e-07
3.31514e-06
-4.38406e-07
-7.22402e-07
1.50134e-06
-2.81068e-07
-1.34898e-06
6.11713e-07
-1.26551e-07
-1.64974e-06
2.63703e-07
5.03082e-08
-1.63254e-06
3.45912e-07
1.9545e-07
-1.4363e-06
8.95938e-07
6.47855e-08
-1.21744e-06
1.66644e-06
-2.53955e-07
-9.43715e-07
2.30013e-06
-4.22494e-07
-2.73432e-07
2.53323e-06
-5.53214e-07
4.15949e-07
2.43513e-06
-8.24273e-07
6.00885e-07
1.8419e-06
-1.22799e-06
8.20941e-07
1.24964e-06
-1.4539e-06
9.91848e-07
5.63335e-07
-1.29679e-06
8.71507e-07
-6.39026e-07
-8.40921e-07
7.07822e-07
-1.69244e-06
-3.23279e-07
6.1698e-07
-2.0868e-06
5.96199e-08
5.17016e-07
-2.24503e-06
3.77886e-07
4.45196e-07
-2.63131e-06
7.95922e-07
4.61169e-07
-3.05976e-06
1.42273e-06
5.6855e-07
-3.2381e-06
2.18505e-06
7.02724e-07
-3.06749e-06
2.84329e-06
7.34993e-07
-2.57042e-06
3.30447e-06
6.31502e-07
-1.84109e-06
3.68704e-06
4.91564e-07
-9.91288e-07
4.07426e-06
2.48044e-07
-6.81892e-07
4.42565e-06
9.60941e-09
-1.07032e-06
4.75254e-06
-8.97421e-08
-1.14282e-06
5.21662e-06
-3.26143e-07
-1.16574e-06
5.94622e-06
-5.3511e-07
-1.81495e-06
6.8292e-06
-4.08059e-07
-2.34637e-06
7.94307e-06
-5.81897e-07
-2.63739e-06
8.953e-06
-1.08375e-06
-1.73332e-06
8.11056e-06
-9.9484e-07
1.78205e-06
5.64341e-06
-1.01492e-06
4.07162e-06
3.31473e-06
-1.09391e-06
2.11322e-06
1.6242e-06
-1.39845e-07
-9.56065e-08
6.87971e-07
1.20072e-06
-2.27048e-07
3.56543e-07
2.26204e-06
2.67674e-07
3.55693e-07
2.91021e-06
6.68898e-07
4.61297e-07
2.98835e-06
1.0314e-06
3.54067e-07
2.61746e-06
1.05976e-06
2.2652e-06
8.97323e-07
-7.49613e-06
3.1949e-06
-7.41917e-06
5.43863e-07
1.72311e-06
-7.17145e-06
3.96303e-08
7.99829e-07
-6.72432e-06
-3.73148e-07
4.43757e-07
-6.44325e-06
-6.74029e-07
2.04345e-07
-6.39282e-06
-9.59812e-07
-3.52657e-07
-6.36009e-06
-1.16339e-06
-6.92899e-07
-6.30079e-06
-1.14668e-06
-1.0027e-06
-6.26675e-06
-9.57622e-07
-9.49142e-07
-6.32166e-06
-7.26457e-07
-1.02729e-06
-6.36565e-06
-4.97221e-07
-1.06795e-06
-6.14532e-06
-1.46018e-07
-8.88623e-07
-5.65572e-06
1.97286e-07
-6.78296e-07
-5.13904e-06
4.06312e-07
-7.67217e-07
-4.56112e-06
6.73266e-07
-1.08104e-06
-3.8373e-06
8.97209e-07
-1.62009e-06
-3.11113e-06
9.88909e-07
-2.14713e-06
-2.48952e-06
1.03154e-06
-2.42236e-06
-1.96145e-06
1.03226e-06
-2.49922e-06
-1.49135e-06
9.84354e-07
-2.56936e-06
-1.03335e-06
9.42476e-07
-2.66841e-06
-5.78471e-07
9.36114e-07
-2.68893e-06
-1.26228e-07
9.69794e-07
-2.59422e-06
3.39276e-07
9.85768e-07
-2.33282e-06
8.088e-07
8.27055e-07
-1.96752e-06
1.27404e-06
5.53197e-07
-1.63723e-06
1.77954e-06
3.09826e-07
-1.46506e-06
2.30296e-06
5.1745e-08
-1.63752e-06
2.83051e-06
-1.40087e-07
-1.87833e-06
3.4569e-06
-1.71809e-07
-1.71272e-06
4.23571e-06
-2.57868e-07
-1.69528e-06
5.14931e-06
-3.08223e-07
-2.18539e-06
6.12084e-06
-2.13765e-07
-2.50946e-06
7.21611e-06
-8.6415e-07
-2.19877e-06
7.40523e-06
-1.28131e-06
-8.60291e-08
5.16774e-06
2.02047e-07
2.67138e-06
2.1031e-06
7.46157e-07
2.91406e-06
2.95055e-07
1.84409e-08
1.36939e-06
-4.3244e-07
3.24138e-07
5.47427e-07
-6.41221e-07
1.2233e-06
4.25984e-07
-5.9318e-07
1.97105e-06
5.07732e-07
-3.39583e-07
2.32305e-06
6.43664e-07
-4.56493e-08
2.3067e-06
7.58279e-07
2.65737e-08
2.17929e-06
7.15162e-07
1.98882e-06
5.35734e-07
-1.00936e-05
-1.3044e-08
-2.30085e-08
-9.54816e-06
-2.05022e-07
-5.90085e-07
-9.20966e-06
-3.1833e-07
-7.17901e-07
-8.89359e-06
-5.88083e-07
-9.74394e-07
-8.62497e-06
-7.42708e-07
-9.951e-07
-8.37194e-06
-8.96886e-07
-1.04174e-06
-8.12655e-06
-8.69703e-07
-1.16909e-06
-7.83227e-06
-7.29941e-07
-1.09665e-06
-7.49824e-06
-5.49535e-07
-1.21518e-06
-7.13009e-06
-3.13431e-07
-1.30307e-06
-6.69099e-06
6.77202e-09
-1.42352e-06
-6.21026e-06
3.64031e-07
-1.51496e-06
-5.72613e-06
6.44887e-07
-1.71237e-06
-5.17663e-06
9.26593e-07
-1.90817e-06
-4.53553e-06
1.13086e-06
-2.07668e-06
-3.87384e-06
1.23966e-06
-2.16796e-06
-3.23199e-06
1.28732e-06
-2.1793e-06
-2.64233e-06
1.29346e-06
-2.16173e-06
-2.12626e-06
1.26613e-06
-2.15797e-06
-1.66776e-06
1.22819e-06
-2.15281e-06
-1.22252e-06
1.18339e-06
-2.06769e-06
-7.30601e-07
1.09706e-06
-1.82109e-06
-2.20457e-07
8.1704e-07
-1.55553e-06
2.28712e-07
4.1934e-07
-1.36629e-06
6.85438e-07
1.06417e-07
-1.07022e-06
1.20666e-06
-7.16305e-08
-8.42463e-07
1.73113e-06
-1.71648e-07
-7.66408e-07
2.26216e-06
-1.94356e-07
-6.61223e-07
2.89166e-06
-1.48546e-07
-5.50553e-07
3.60572e-06
-1.93523e-07
-8.83183e-07
4.4522e-06
-2.95228e-07
-1.47525e-06
5.49778e-06
-4.42704e-07
-1.45162e-06
6.1703e-06
-1.02014e-06
-1.01873e-06
5.6934e-06
-8.95211e-07
2.40561e-07
4.33853e-06
7.07066e-07
2.33751e-06
2.52514e-06
1.49424e-06
2.64148e-06
6.84418e-07
1.08141e-06
1.5867e-06
-4.33138e-07
9.93924e-07
8.82227e-07
-7.53486e-07
1.27554e-06
5.78452e-07
-6.31729e-07
1.58062e-06
5.63996e-07
-3.29318e-07
1.73484e-06
5.76882e-07
-4.56636e-08
1.73144e-06
5.84463e-07
2.8788e-07
1.59287e-06
5.0382e-07
1.48125e-06
3.77249e-07
1.52299e-07
1.55517e-07
1.50945e-07
4.2718e-08
4.29129e-08
4.12041e-08
-1.08744e-05
2.43574e-08
-1.31158e-06
-1.03037e-05
-8.53364e-08
-1.63458e-06
-9.74051e-06
-2.07369e-07
-1.59986e-06
-9.29861e-06
-3.43602e-07
-1.69219e-06
-8.95855e-06
-3.52969e-07
-1.77144e-06
-8.67649e-06
-4.38073e-07
-1.86236e-06
-8.40446e-06
-3.53854e-07
-1.88106e-06
-8.12062e-06
-2.36623e-07
-1.92156e-06
-7.80357e-06
-7.07109e-08
-1.92078e-06
-7.45786e-06
1.31533e-07
-1.92089e-06
-7.02502e-06
3.55633e-07
-1.88092e-06
-6.48632e-06
5.89449e-07
-1.85287e-06
-5.89642e-06
8.17771e-07
-1.85928e-06
-5.2407e-06
1.03588e-06
-1.89652e-06
-4.55675e-06
1.21463e-06
-1.95678e-06
-3.88767e-06
1.32706e-06
-2.0027e-06
-3.25531e-06
1.38301e-06
-2.03154e-06
-2.66717e-06
1.39351e-06
-2.03418e-06
-2.12577e-06
1.37888e-06
-1.99196e-06
-1.60087e-06
1.33438e-06
-1.86151e-06
-1.06935e-06
1.20759e-06
-1.57156e-06
-6.81231e-07
8.79518e-07
-1.26384e-06
-4.91491e-07
3.54267e-07
-9.13343e-07
-2.61963e-07
-2.94273e-08
-5.26152e-08
7.82148e-08
-1.11733e-07
6.28392e-07
4.64193e-07
-1.33291e-07
7.0415e-07
8.79062e-07
-1.64472e-07
4.44195e-07
1.35109e-06
-1.87411e-07
9.02595e-08
1.92476e-06
-2.09884e-07
-2.98526e-07
2.59347e-06
-3.23553e-07
-7.59583e-07
3.35625e-06
-4.92242e-07
-1.05418e-06
4.08422e-06
-6.39754e-07
-9.22198e-07
4.26324e-06
-8.119e-07
-6.33673e-07
3.66264e-06
-2.59238e-07
2.99717e-07
2.55602e-06
1.31045e-06
1.70559e-06
1.22395e-06
2.0305e-06
1.87483e-06
7.23974e-08
1.53687e-06
1.25511e-06
-5.0572e-07
1.15655e-06
8.01085e-07
-6.59219e-07
1.15631e-06
5.64833e-07
-5.82675e-07
1.26833e-06
4.7735e-07
-3.86184e-07
1.31748e-06
4.40257e-07
-1.87999e-07
1.31964e-06
4.25009e-07
7.14041e-08
1.1524e-06
3.59065e-07
1.09533e-06
3.12625e-07
8.60081e-08
7.65293e-08
6.92972e-08
2.39187e-08
2.10136e-08
1.85869e-08
-1.1503e-05
-2.91502e-08
-1.60652e-06
-1.08719e-05
-1.10324e-08
-1.40951e-06
-1.03299e-05
3.4377e-08
-1.4288e-06
-9.85567e-06
-8.94993e-08
-1.58385e-06
-9.44079e-06
-9.64523e-08
-1.46034e-06
-9.05912e-06
-1.0777e-07
-1.59946e-06
-8.69686e-06
-1.46534e-07
-1.55414e-06
-8.34005e-06
-5.89075e-08
-1.62035e-06
-7.95722e-06
3.02634e-08
-1.65522e-06
-7.55425e-06
1.85846e-07
-1.69395e-06
-7.10746e-06
3.56118e-07
-1.75618e-06
-6.63984e-06
5.69022e-07
-1.79854e-06
-6.13362e-06
7.68851e-07
-1.83212e-06
-5.59487e-06
9.68201e-07
-1.87489e-06
-5.00586e-06
1.13636e-06
-1.9077e-06
-4.36795e-06
1.25917e-06
-1.92499e-06
-3.71069e-06
1.33441e-06
-1.9194e-06
-3.05417e-06
1.36353e-06
-1.87839e-06
-2.4117e-06
1.35111e-06
-1.78623e-06
-1.77951e-06
1.28252e-06
-1.62151e-06
-1.19456e-06
1.13671e-06
-1.35289e-06
-8.78979e-07
8.81812e-07
-9.83518e-07
-9.03391e-07
4.69718e-07
-4.39662e-07
-9.81654e-07
1.64874e-07
7.4556e-07
-8.73285e-07
9.27937e-08
1.44967e-06
-6.89038e-07
5.1141e-08
9.89492e-07
-5.27161e-07
-4.27937e-08
4.03116e-07
-2.86903e-07
-1.75227e-07
6.48506e-08
7.44758e-08
-3.08791e-07
-1.24317e-07
5.34895e-07
-4.14621e-07
-2.33203e-07
1.02194e-06
-5.2092e-07
-3.39996e-07
1.43747e-06
-5.83013e-07
-3.45112e-07