/*--------------------------------*- C++ -*----------------------------------*\
| =========                 |                                                 |
| \\      /  F ield         | OpenFOAM: The Open Source CFD Toolbox           |
|  \\    /   O peration     | Version:  2.3.1                                 |
|   \\  /    A nd           | Web:      www.OpenFOAM.org                      |
|    \\/     M anipulation  |                                                 |
\*---------------------------------------------------------------------------*/
FoamFile
{
    version     2.0;
    format      ascii;
    class       surfaceScalarField;
    location    "20";
    object      phi_0;
}
// * * * * * * * * * * * * * * * * * * * * * * * * * * * * * * * * * * * * * //

dimensions      [0 3 -1 0 0 0 0];

internalField   nonuniform List<scalar> 
109568
(
2.68797e-05
6.05001e-06
-7.38817e-06
2.83874e-05
5.22486e-06
-6.73262e-06
2.89125e-05
2.63938e-06
-3.16447e-06
2.84671e-05
5.67982e-07
-1.22577e-07
2.98576e-05
-1.16418e-06
-2.26336e-07
3.40355e-05
-2.12249e-06
-2.05532e-06
3.69781e-05
-1.39707e-06
-1.5456e-06
3.60042e-05
-5.85287e-07
1.55921e-06
3.44619e-05
-1.32183e-06
2.86415e-06
3.57687e-05
-2.34196e-06
1.03515e-06
3.64791e-05
-1.16548e-06
4.55086e-07
3.21935e-05
1.79615e-06
2.48942e-06
2.5556e-05
2.81933e-06
3.81821e-06
2.02792e-05
1.90826e-06
3.36855e-06
1.70497e-05
9.71223e-07
2.25827e-06
1.54154e-05
3.30962e-07
1.30334e-06
1.44993e-05
8.42983e-09
9.0765e-07
1.41489e-05
-1.53547e-07
5.03896e-07
1.38324e-05
-3.03592e-07
6.20137e-07
1.32371e-05
-5.80845e-07
1.17614e-06
1.29298e-05
-8.83474e-07
1.19077e-06
1.24239e-05
-9.475e-07
1.4534e-06
1.1804e-05
-8.6516e-07
1.48508e-06
1.26011e-05
-7.84926e-07
-1.21652e-08
1.45013e-05
-5.98469e-07
-1.30178e-06
1.57764e-05
-1.98403e-07
-1.0767e-06
1.6419e-05
-1.21161e-07
-5.21429e-07
1.687e-05
-1.43184e-07
-3.07774e-07
1.64352e-05
2.72157e-07
1.62622e-07
1.57632e-05
1.76383e-07
4.9565e-07
1.5794e-05
-1.71709e-07
1.40843e-07
1.5367e-05
-1.01599e-08
4.37228e-07
1.45536e-05
-4.90202e-07
1.30356e-06
1.46736e-05
-1.34633e-06
1.22634e-06
1.47629e-05
-1.1015e-06
1.01222e-06
1.44789e-05
-1.30856e-06
1.59248e-06
1.55035e-05
-2.76195e-06
1.73739e-06
1.61105e-05
-1.80451e-06
1.19753e-06
1.44597e-05
4.72186e-07
1.17861e-06
1.26365e-05
7.71782e-07
1.05145e-06
1.0578e-05
1.3007e-06
7.57742e-07
6.86697e-06
2.78888e-06
9.22179e-07
2.95184e-06
2.92333e-06
9.91792e-07
2.14495e-06
8.06892e-07
2.39493e-05
4.24477e-06
-4.52984e-06
2.54099e-05
1.92316e-06
1.8411e-06
2.00043e-05
8.0423e-07
7.24078e-06
1.3077e-05
2.23124e-07
7.27218e-06
9.08701e-06
-4.3496e-07
3.26074e-06
7.76334e-06
-1.00239e-06
2.0357e-07
7.85752e-06
-9.69147e-07
-5.22098e-07
8.29823e-06
-5.63503e-07
-4.62499e-07
8.54819e-06
-5.2609e-07
-1.0457e-06
8.92944e-06
-3.8932e-07
-2.33389e-06
9.28861e-06
5.59043e-07
-2.08369e-06
9.31359e-06
1.36765e-06
4.03515e-07
9.42145e-06
1.20313e-06
1.50834e-06
8.99846e-06
9.25016e-07
1.40624e-06
6.89962e-06
8.20215e-07
2.24985e-06
4.19294e-06
4.29165e-07
2.60847e-06
2.66022e-06
-7.05372e-09
1.5482e-06
2.07149e-06
-2.19372e-07
6.54563e-07
1.70876e-06
-4.85349e-07
5.44484e-07
1.68292e-06
-7.85689e-07
2.30681e-07
2.15848e-06
-8.52166e-07
-5.06868e-07
3.00795e-06
-5.53172e-07
-1.2438e-06
4.07548e-06
-5.84222e-08
-1.87427e-06
5.25877e-06
2.9157e-07
-2.25979e-06
6.44017e-06
5.66827e-07
-2.34669e-06
7.2369e-06
9.26666e-07
-1.9218e-06
7.49432e-06
8.42002e-07
-1.22059e-06
7.8912e-06
4.00199e-07
-9.40256e-07
8.51762e-06
3.64363e-07
-7.18628e-07
8.721e-06
3.42105e-07
-3.69108e-07
8.6521e-06
-1.51683e-07
4.88786e-08
8.52265e-06
-6.10254e-07
7.29538e-07
8.48027e-06
-5.919e-07
1.44078e-07
9.0188e-06
-9.14653e-07
-9.70202e-07
9.79854e-06
-1.89973e-06
1.84998e-08
9.41595e-06
-2.21275e-06
1.28678e-06
8.13894e-06
-2.25488e-06
7.69942e-07
7.41252e-06
-1.53664e-06
4.58547e-07
6.58016e-06
5.10529e-07
7.94024e-07
4.66936e-06
2.33166e-06
3.50923e-07
2.62915e-06
3.33438e-06
6.53441e-09
1.42693e-06
3.60715e-06
3.83949e-07
7.30799e-07
3.01248e-06
6.06983e-07
2.34487e-06
5.30879e-07
1.58406e-05
3.68977e-06
3.09286e-06
1.05363e-05
2.37496e-06
7.17413e-06
4.53943e-06
1.17087e-06
6.74911e-06
1.37861e-06
5.66568e-07
3.39848e-06
4.16328e-07
-2.93595e-07
1.47901e-06
3.26888e-07
-1.07087e-06
7.25352e-07
3.8623e-07
-1.53781e-06
4.7608e-07
4.38892e-07
-1.55451e-06
5.32701e-07
4.05257e-07
-1.43845e-06
9.08577e-07
-8.42776e-08
-1.41322e-06
1.37667e-06
-8.34169e-07
-1.31491e-06
1.67548e-06
-1.32516e-06
-5.71441e-07
1.62147e-06
-1.6769e-06
2.29774e-07
1.48962e-06
-2.06741e-06
4.67202e-07
1.12644e-06
-2.42425e-06
6.17938e-07
6.63913e-07
-2.45525e-06
6.74466e-07
1.76751e-07
-2.07965e-06
5.0714e-07
-4.53579e-07
-1.46605e-06
3.62632e-07
-9.83283e-07
-8.11106e-07
3.31536e-07
-1.20585e-06
-2.51023e-07
3.17982e-07
-1.36341e-06
2.71312e-07
3.43325e-07
-1.65135e-06
8.83912e-07
4.53703e-07
-1.91847e-06
1.71496e-06
6.57307e-07
-2.04152e-06
2.71539e-06
9.08124e-07
-1.96698e-06
3.6416e-06
1.08047e-06
-1.71511e-06
4.32137e-06
1.17717e-06
-1.29012e-06
4.69078e-06
1.21553e-06
-6.58265e-07
5.04349e-06
9.06623e-07
-4.17329e-07
5.60789e-06
6.38664e-07
-8.02865e-07
5.87516e-06
8.96719e-07
-7.99631e-07
6.13984e-06
6.96857e-07
-6.19428e-07
6.9104e-06
3.40189e-09
-9.25648e-07
7.27885e-06
1.41051e-07
-1.11975e-06
8.30129e-06
-1.43794e-07
-1.47055e-06
9.71427e-06
-1.2039e-06
-1.12374e-06
7.78036e-06
-1.26121e-06
1.29539e-06
4.12214e-06
-1.08296e-06
2.52844e-06
2.00249e-06
-9.8015e-07
8.44918e-07
8.94155e-07
-5.58967e-08
-3.72413e-07
2.33542e-07
1.2751e-06
-1.03958e-07
5.35528e-08
2.29265e-06
2.18992e-07
1.96287e-07
2.8614e-06
3.30244e-07
3.82394e-07
2.93096e-06
4.90078e-07
3.0705e-07
2.57116e-06
5.16663e-07
2.22354e-06
4.28383e-07
-4.66322e-06
3.64789e-06
-6.05653e-06
1.41616e-06
2.35211e-06
-6.52854e-06
3.67582e-07
1.2753e-06
-6.52705e-06
-1.70469e-07
7.3555e-07
-6.6639e-06
-6.88919e-07
5.32179e-07
-6.9297e-06
-8.90912e-07
8.58332e-08
-7.10459e-06
-1.18913e-06
-1.73795e-07
-7.02554e-06
-1.17628e-06
-4.57283e-07
-6.95967e-06
-1.06783e-06
-4.36476e-07
-6.91849e-06
-8.63083e-07
-5.91321e-07
-6.84491e-06
-7.23601e-07
-6.64886e-07
-6.51496e-06
-3.61649e-07
-5.39742e-07
-5.93387e-06
5.48409e-08
-4.06156e-07
-5.29628e-06
2.74387e-07
-4.44772e-07
-4.595e-06
5.67819e-07
-6.51168e-07
-3.77883e-06
8.49796e-07
-9.91495e-07
-2.99999e-06
1.03229e-06
-1.304e-06
-2.33337e-06
1.17333e-06
-1.47731e-06
-1.72274e-06
1.27703e-06
-1.55612e-06
-1.12478e-06
1.35224e-06
-1.63222e-06
-5.1578e-07
1.44779e-06
-1.71346e-06
1.16563e-07
1.58081e-06
-1.75945e-06
7.62354e-07
1.75252e-06
-1.74101e-06
1.31171e-06
1.94321e-06
-1.58445e-06
1.7202e-06
2.07807e-06
-1.40608e-06
2.06805e-06
2.07975e-06
-1.25043e-06
2.50286e-06
1.92227e-06
-1.14156e-06
3.14165e-06
1.57879e-06
-1.31095e-06
3.96595e-06
1.31505e-06
-1.50069e-06
4.77183e-06
1.25894e-06
-1.16811e-06
5.55863e-06
7.58149e-07
-8.4809e-07
6.18414e-06
4.22953e-07
-1.04506e-06
6.6952e-06
9.73929e-07
-1.34394e-06
8.03538e-06
-9.85413e-08
-1.38543e-06
8.24152e-06
-1.31704e-06
-9.2993e-08
5.02229e-06
3.26532e-07
1.63149e-06
1.55683e-06
7.72728e-07
1.60976e-06
1.6573e-08
-1.12904e-07
6.73014e-07
-5.92925e-07
2.69804e-07
2.83797e-07
-7.59466e-07
1.20175e-06
2.39897e-07
-6.76357e-07
1.94468e-06
2.64862e-07
-4.0076e-07
2.27563e-06
3.10172e-07
-9.77457e-08
2.25739e-06
3.70557e-07
-2.03528e-08
2.14468e-06
3.49089e-07
1.97053e-06
2.32652e-07
-9.65221e-06
3.47873e-07
2.72181e-07
-9.10663e-06
1.12298e-07
-2.90291e-07
-8.81389e-06
-1.37896e-07
-3.25311e-07
-8.41964e-06
-5.10482e-07
-5.72694e-07
-8.16926e-06
-6.31696e-07
-5.09593e-07
-7.93543e-06
-9.0092e-07
-5.2204e-07
-7.6501e-06
-8.15036e-07
-6.46569e-07
-7.39382e-06
-7.49648e-07
-5.74467e-07
-7.01797e-06
-5.34915e-07
-7.04021e-07
-6.66299e-06
-3.27603e-07
-7.50978e-07
-6.25689e-06
6.35472e-08
-8.31294e-07
-5.79184e-06
4.57255e-07
-8.67462e-07
-5.32232e-06
7.94633e-07
-9.89769e-07
-4.78201e-06
1.13305e-06
-1.10553e-06
-4.1291e-06
1.39897e-06
-1.20209e-06
-3.4338e-06
1.59266e-06
-1.25567e-06
-2.72791e-06
1.74927e-06
-1.28184e-06
-2.03291e-06
1.8931e-06
-1.31107e-06
-1.35578e-06
2.03549e-06
-1.36038e-06
-6.87057e-07
2.18793e-06
-1.40887e-06
-6.94282e-08
2.33857e-06
-1.37539e-06
3.60452e-07
2.52467e-06
-1.20202e-06
7.03745e-07
2.8143e-06
-1.21438e-06
1.25928e-06
2.84749e-06
-1.32496e-06
2.03589e-06
2.36318e-06
-1.06005e-06
2.87675e-06
1.78377e-06
-7.02347e-07
3.56484e-06
1.35559e-06
-4.64896e-07
3.96981e-06
1.0939e-06
-1.83818e-07
4.22445e-06
9.01574e-07
1.02721e-07
4.53382e-06
5.53689e-07
-1.04901e-07
5.18547e-06
3.87263e-07
-6.15966e-07
6.34865e-06
4.45704e-07
-6.34948e-07
7.21962e-06
-4.67081e-07
-5.02438e-07
6.60409e-06
-8.51934e-07
1.50428e-07
4.80444e-06
6.37906e-07
1.48827e-06
2.62061e-06
1.38101e-06
1.57555e-06
6.9401e-07
1.00521e-06
8.08483e-07
-4.22783e-07
9.52251e-07
4.34346e-07
-7.61339e-07
1.22988e-06
3.10421e-07
-6.42633e-07
1.53058e-06
2.95393e-07
-3.39841e-07
1.68171e-06
2.91125e-07
-5.98683e-08
1.6846e-06
2.92816e-07
2.82387e-07
1.55158e-06
2.5085e-07
1.48066e-06
1.67341e-07
1.7406e-07
1.82548e-07
1.82203e-07
2.19473e-08
2.24066e-08
2.17536e-08
-1.02699e-05
3.44441e-07
-5.8014e-07
-9.68379e-06
4.70196e-07
-9.44007e-07
-9.09791e-06
2.02181e-07
-9.25956e-07
-8.66178e-06
5.94333e-08
-1.00604e-06
-8.36165e-06
1.09929e-07
-1.04176e-06
-8.07749e-06
-6.34631e-08
-1.12161e-06
-7.85086e-06
5.15228e-08
-1.09319e-06
-7.58327e-06
1.27106e-07
-1.14434e-06
-7.2623e-06
2.68911e-07
-1.1248e-06
-6.93014e-06
4.70258e-07
-1.13002e-06
-6.48031e-06
7.12782e-07
-1.09906e-06
-5.91714e-06
9.82674e-07
-1.08859e-06
-5.29646e-06
1.27043e-06
-1.09648e-06
-4.60018e-06
1.56842e-06
-1.13164e-06
-3.87094e-06
1.85899e-06
-1.18926e-06
-3.13753e-06
2.10571e-06
-1.24646e-06
-2.40871e-06
2.3242e-06
-1.30376e-06
-1.68908e-06
2.51973e-06
-1.34626e-06
-1.02472e-06
2.70917e-06
-1.33805e-06
-4.82517e-07
2.8763e-06
-1.23057e-06
-1.69021e-07
3.04096e-06
-1.01589e-06
1.46085e-07
3.30309e-06
-1.09352e-06
9.07534e-07
3.23906e-06
-1.1862e-06
1.70453e-06
2.32146e-06
-2.70958e-07
2.01812e-06
1.29823e-06
7.51357e-07
2.06504e-06
7.07849e-07
1.029e-06
2.12404e-06
4.3015e-07
8.66433e-07
2.31551e-06
3.33221e-07
5.69214e-07
2.70649e-06
2.97058e-07
2.13537e-07
3.30773e-06
1.73723e-07
-2.2128e-07
4.14571e-06
3.78678e-08
-4.88581e-07
5.07619e-06
-9.33553e-08
-3.91419e-07
5.3989e-06
-5.43346e-07
-2.46446e-07
4.50656e-06
-2.9515e-07
3.35554e-07
2.74646e-06
1.19547e-06
1.20254e-06
1.1313e-06
1.91764e-06
1.07853e-06
7.60206e-08
1.50172e-06
5.58768e-07
-4.82408e-07
1.1251e-06
3.85582e-07
-6.57496e-07
1.11285e-06
2.92114e-07
-5.9068e-07
1.22215e-06
2.41621e-07
-3.97701e-07
1.26935e-06
2.19383e-07
-2.05117e-07
1.28066e-06
2.11361e-07
6.65763e-08
1.10193e-06
1.7795e-07
1.08639e-06
1.50604e-07
9.6811e-08
9.03318e-08
8.91531e-08
1.25618e-08
1.12085e-08
1.01758e-08
-1.07038e-05
5.79207e-07
-8.84039e-07
-1.02691e-05
7.23794e-07
-8.14076e-07
-9.80746e-06
7.75429e-07
-7.66866e-07
-9.22821e-06
6.14839e-07
-9.91906e-07
-8.94545e-06
5.75105e-07
-7.98425e-07
-8.49575e-06
6.32849e-07
-9.72626e-07
-8.1317e-06
4.72943e-07
-9.00456e-07
-7.78323e-06
6.71679e-07
-9.68624e-07
-7.3495e-06
6.98958e-07
-1.00559e-06
-6.93692e-06
8.90857e-07
-1.03453e-06
-6.4683e-06
1.08651e-06
-1.08487e-06
-5.96929e-06
1.33136e-06
-1.11759e-06
-5.44324e-06
1.60321e-06
-1.1466e-06
-4.86678e-06
1.87982e-06
-1.18586e-06
-4.24119e-06
2.16123e-06
-1.2184e-06
-3.55955e-06
2.42012e-06
-1.24276e-06
-2.86478e-06
2.66595e-06
-1.25502e-06
-2.19388e-06
2.89486e-06
-1.24155e-06
-1.59535e-06
3.10754e-06
-1.18634e-06
-1.08493e-06
3.28456e-06
-1.08581e-06
-6.55225e-07
3.41229e-06
-9.65692e-07
-1.42552e-07
3.52215e-06
-9.93862e-07
6.75232e-07
3.35881e-06
-8.73508e-07
1.00841e-06
2.42685e-06
4.79032e-07
4.74413e-07
1.17456e-06
1.68089e-06
-1.53953e-08
4.51553e-07
1.33649e-06
-1.05832e-07
1.43059e-07
6.55226e-07
6.3808e-08
-3.36625e-08
2.94172e-07
4.31122e-07
-1.49674e-07
1.15581e-07
9.29877e-07
-2.24108e-07
2.24111e-08
1.46569e-06
-3.11739e-07
-5.03548e-08
1.89868e-06
-3.74809e-07
-2.03117e-08
1.9949e-06
-3.50867e-07
1.61293e-07
1.48009e-06
-2.06055e-07
1.77523e-07
5.53971e-07
4.33936e-07
1.9703e-07
-1.0492e-07
1.44487e-06
4.09485e-07
-3.12414e-07
1.6973e-06
4.27833e-07
-4.42028e-07
1.24188e-06
3.89453e-07
-5.91507e-07
9.56871e-07
3.17705e-07
-6.17947e-07
9.02937e-07
2.36358e-07
-5.31649e-07
9.39288e-07
1.96561e-07
-3.90228e-07
9.56455e-07
1.71474e-07
-2.45019e-07
9.73906e-07
1.61541e-07
-1.3462e-07
8.6203e-07
1.29503e-07
8.75953e-07
1.30767e-07
-1.10667e-08
-1.84574e-08
-1.98835e-08
-6.75605e-10
-2.05011e-09
-2.81514e-09
-1.04769e-05
1.09663e-06
-1.06688e-06
-9.81057e-06
7.23129e-07
-6.65663e-07
-9.56314e-06
1.39728e-06
-8.69281e-07
-9.02766e-06
1.02017e-06
-9.40808e-07
-8.77314e-06
1.22322e-06
-9.02634e-07
-8.37927e-06
1.32306e-06
-1.08408e-06
-8.11363e-06
1.21926e-06
-1.01196e-06
-7.77602e-06
1.48883e-06
-1.15477e-06
-7.38662e-06
1.46243e-06
-1.15287e-06
-7.03673e-06
1.72292e-06
-1.18195e-06
-6.54649e-06
1.82328e-06
-1.227e-06
-6.07586e-06
2.08825e-06
-1.22751e-06
-5.49502e-06
2.28546e-06
-1.26308e-06
-4.89544e-06
2.5608e-06
-1.28056e-06
-4.25194e-06
2.81098e-06
-1.29325e-06
-3.59669e-06
3.05014e-06
-1.28527e-06
-2.93748e-06
3.25558e-06
-1.24883e-06
-2.27642e-06
3.41552e-06
-1.18172e-06
-1.58986e-06
3.50404e-06
-1.08307e-06
-8.50055e-07
3.48737e-06
-9.42615e-07
-7.04946e-08
3.35788e-06
-7.25144e-07
6.16707e-07
3.06459e-06
-2.29635e-07
5.75552e-07
2.35643e-06
1.04353e-06
-1.88849e-07
1.32184e-06
1.86941e-06
-7.67441e-07
6.36154e-07
1.117e-06
-9.555e-07
2.84446e-07
3.55165e-07
-9.65128e-07
4.11525e-08
1.11534e-07
-8.96721e-07
-1.35978e-07
3.39083e-08
-7.88417e-07
-2.65966e-07
7.98879e-09
-6.58392e-07
-3.56371e-07
2.23729e-09
-5.56885e-07
-4.19074e-07
5.82726e-09
-5.54531e-07
-4.02209e-07
2.50454e-08
-7.0086e-07
-2.54927e-07
5.03898e-08
-9.83124e-07
-1.57595e-09
7.77853e-08
-1.17712e-06
4.67199e-07
1.60734e-07
-1.03876e-06
1.04573e-06
2.60776e-07
-7.78333e-07
3.27512e-07
-6.92806e-07
3.02313e-07
-6.78369e-07
2.22336e-07
-6.31849e-07
1.69087e-07
-5.39481e-07
1.42916e-07
-4.37324e-07
1.29763e-07
-3.33237e-07
1.23651e-07
-3.19405e-07
9.69398e-08
1.09141e-07
-9.17283e-08
-9.57035e-08
-9.20482e-08
-1.08512e-08
-1.16249e-08
-1.15512e-08
-1.00471e-05
1.3211e-06
-9.51034e-07
-9.18527e-06
2.34756e-07
-3.7351e-07
-8.90577e-06
1.64692e-06
-5.29132e-07
-8.22579e-06
9.96707e-07
-6.56519e-07
-7.91124e-06
1.40838e-06
-4.99713e-07
-7.49364e-06
1.60365e-06
-6.98189e-07
-7.23843e-06
1.6019e-06
-6.37863e-07
-6.88071e-06
1.91484e-06
-7.83718e-07
-6.56694e-06
1.94287e-06
-7.94215e-07
-6.20775e-06
2.27866e-06
-9.14935e-07
-5.78547e-06
2.35843e-06
-9.57432e-07
-5.34502e-06
2.66894e-06
-1.02115e-06
-4.81331e-06
2.8111e-06
-1.05735e-06
-4.23411e-06
3.03927e-06
-1.05766e-06
-3.56883e-06
3.1828e-06
-1.0371e-06
-2.84144e-06
3.29243e-06
-9.69686e-07
-2.04667e-06
3.30027e-06
-8.39464e-07
-1.20674e-06
3.21115e-06
-6.35558e-07
-3.91011e-07
3.00422e-06
-3.15906e-07
2.04663e-07
2.72883e-06
1.6287e-07
3.25972e-07
2.41563e-06
8.20941e-07
-1.0808e-07
1.95741e-06
1.54123e-06
-7.61412e-07
1.3168e-06
1.69297e-06
-1.12761e-06
7.55614e-07
9.32423e-07
-1.17288e-06
3.79047e-07
3.02379e-07
-1.11044e-06
1.50815e-07
7.11856e-08
-1.04811e-06
5.59869e-09
-2.67695e-08
-1.01724e-06
-1.06453e-07
-6.04031e-08
-1.01995e-06
-2.06423e-07
-5.68326e-08
-1.05417e-06
-2.87752e-07
-3.43955e-08
-1.1248e-06
-3.42539e-07
-5.90199e-09
-1.22595e-06
-3.34338e-07
3.32732e-08
-1.3347e-06
-2.2798e-07
8.18059e-08
-1.42464e-06
-2.90166e-08
1.17383e-07
-1.39741e-06
2.88533e-07
1.51435e-07
2.18366e-07
-1.04297e-05
9.98202e-07
-6.87458e-07
-9.68787e-06
-2.80061e-08
-4.79067e-07
-9.19915e-06
1.23617e-06
-7.79702e-08
-8.27481e-06
6.74072e-07
-6.01705e-07
-7.72916e-06
9.80574e-07
-1.17848e-07
-7.0511e-06
1.20645e-06
-2.80861e-07
-6.60464e-06
1.39253e-06
-2.37083e-07
-6.00348e-06
1.4762e-06
-1.62524e-07
-5.47944e-06
1.71452e-06
-2.95686e-07
-5.02855e-06
1.99929e-06
-1.71514e-07
-4.46503e-06
2.02254e-06
-2.2763e-07
-3.93805e-06
2.35762e-06
-2.15656e-07
-3.36664e-06
2.39193e-06
-1.52244e-07
-2.76445e-06
2.54458e-06
-1.07509e-07
-2.15192e-06
2.55093e-06
1.93366e-08
-1.57555e-06
2.51033e-06
2.05736e-07
-1.10567e-06
2.35145e-06
4.78939e-07
-8.36944e-07
2.11927e-06
8.23149e-07
-8.37515e-07
1.83191e-06
1.17288e-06
-1.07165e-06
1.56641e-06
1.39656e-06
-1.38241e-06
1.31e-06
1.41639e-06
-1.60282e-06
1.01479e-06
1.16303e-06
-1.6285e-06
6.8483e-07
6.57646e-07
-1.51398e-06
4.00927e-07
2.40168e-07
-1.3909e-06
2.20221e-07
3.57436e-08
-1.28338e-06
9.93757e-08
-5.60851e-08
-1.19241e-06
5.05933e-09
-9.04242e-08
-1.12568e-06
-7.52619e-08
-9.79209e-08
-1.09688e-06
-1.43224e-07
-9.20068e-08
-1.11109e-06
-1.9944e-07
-7.4098e-08
-1.17101e-06
-2.38106e-07
-4.4509e-08
-1.26155e-06
-2.389e-07
-4.90402e-09
-1.3482e-06
-1.80431e-07
3.91009e-08
-1.38878e-06
-6.84375e-08
8.00078e-08
9.83678e-08
1.21382e-07
-1.07041e-05
4.18312e-08
-1.30272e-07
-1.06099e-05
4.1882e-07
-5.41051e-07
-9.96173e-06
2.07209e-07
3.80818e-07
-9.14479e-06
5.21335e-07
-6.64194e-07
-8.63021e-06
3.08451e-07
1.57543e-07
-8.01074e-06
5.15811e-07
7.11675e-08
-7.53672e-06
7.3671e-07
1.81804e-07
-6.76097e-06
5.4428e-07
1.56161e-07
-6.20154e-06
8.40674e-07
3.14424e-07
-5.7578e-06
1.01884e-06
5.36699e-07
-4.9862e-06
8.76261e-07
3.74683e-07
-4.61456e-06
1.25377e-06
7.32202e-07
-4.01847e-06
1.11233e-06
6.83511e-07
-3.6118e-06
1.25853e-06
8.79388e-07
-3.23866e-06
1.19315e-06
9.84648e-07
-2.98602e-06
1.14647e-06
1.11121e-06
-2.82874e-06
1.01902e-06
1.17516e-06
-2.73902e-06
8.8347e-07
1.14608e-06
-2.66653e-06
7.46997e-07
1.01242e-06
-2.54427e-06
6.29885e-07
8.14264e-07
-2.34752e-06
5.14148e-07
5.99102e-07
-2.09239e-06
3.87106e-07
3.7255e-07
-1.83857e-06
2.62312e-07
1.68707e-07
-1.63222e-06
1.63662e-07
3.09064e-08
-1.46407e-06
9.17102e-08
-3.96382e-08
-1.32935e-06
3.8318e-08
-7.36623e-08
-1.22924e-06
-5.6403e-09
-8.94033e-08
-1.16519e-06
-4.48108e-08
-9.4501e-08
-1.13491e-06
-8.19655e-08
-9.15377e-08
-1.13745e-06
-1.15176e-07
-8.17319e-08
-1.17041e-06
-1.40138e-07
-6.50073e-08
-1.22167e-06
-1.47664e-07
-3.99747e-08
-1.26546e-06
-1.28211e-07
-8.4316e-09
-1.27348e-06
-8.26407e-08
2.22285e-08
-8.85066e-09
4.98296e-08
-1.06498e-05
-6.56807e-07
-1.07698e-05
5.38813e-07
-1.01357e-05
-4.26849e-07
-9.53307e-06
-8.13111e-08
-8.98337e-06
-2.41248e-07
-8.81504e-06
3.47478e-07
-8.26245e-06
1.84118e-07
-7.69193e-06
-2.6241e-08
-7.3903e-06
5.39047e-07
-6.93025e-06
5.58797e-07
-6.32537e-06
2.71381e-07
-6.06126e-06
9.89666e-07
-5.4574e-06
5.08461e-07
-5.10704e-06
9.08178e-07
-4.647e-06
7.33105e-07
-4.25906e-06
7.58532e-07
-3.87164e-06
6.31602e-07
-3.5e-06
5.11828e-07
-3.13249e-06
3.79493e-07
-2.76823e-06
2.65625e-07
-2.41834e-06
1.64252e-07
-2.1029e-06
7.16628e-08
-1.8362e-06
-4.37997e-09
-1.61935e-06
-5.31876e-08
-1.4469e-06
-8.07452e-08
-1.31259e-06
-9.59908e-08
-1.2137e-06
-1.04532e-07
-1.1485e-06
-1.10005e-07
-1.11646e-06
-1.14009e-07
-1.11531e-06
-1.16324e-07
-1.13962e-06
-1.15831e-07
-1.17671e-06
-1.10578e-07
-1.20509e-06
-9.98289e-08
-1.2031e-06
-8.46332e-08
-6.56058e-08
1.87319e-05
4.34623e-06
-9.59517e-06
1.83642e-05
3.91404e-07
-6.75625e-06
1.94368e-05
-1.89465e-06
-2.34244e-06
2.15443e-05
-2.72267e-06
4.92576e-07
2.41342e-05
-2.94976e-06
1.33557e-07
2.606e-05
-2.74928e-06
-1.23191e-06
2.68453e-05
-2.25992e-06
-7.09624e-08
2.81582e-05
-1.99676e-06
2.24311e-06
3.12537e-05
-2.15059e-06
1.91923e-06
3.41484e-05
-1.80422e-06
-5.53389e-08
3.28053e-05
3.42254e-07
1.45595e-06
2.70996e-05
2.71499e-06
5.48007e-06
2.14368e-05
2.57789e-06
6.90316e-06
1.78546e-05
1.56817e-06
5.38259e-06
1.58213e-05
9.91731e-07
3.2998e-06
1.47411e-05
4.73138e-07
1.91046e-06
1.39944e-05
1.78552e-07
1.47578e-06
1.33536e-05
4.24098e-08
1.10227e-06
1.27856e-05
-1.5708e-07
1.34524e-06
1.23875e-05
-3.85796e-07
1.96003e-06
1.21446e-05
-5.79025e-07
2.01272e-06
1.19652e-05
-6.02188e-07
2.23492e-06
1.23218e-05
-3.84628e-07
1.51309e-06
1.32707e-05
-1.30306e-07
-8.30763e-07
1.42003e-05
-6.36255e-08
-2.16773e-06
1.47698e-05
8.29189e-08
-1.72905e-06
1.49698e-05
2.5049e-07
-9.71948e-07
1.46084e-05
2.78241e-07
-2.24625e-07
1.37888e-05
1.6472e-07
8.17463e-07
1.33995e-05
-2.97662e-07
1.18261e-06
1.34601e-05
-5.96736e-07
6.77041e-07
1.32602e-05
-5.47584e-07
1.18472e-06
1.34378e-05
-7.69921e-07
1.89586e-06
1.43583e-05
-1.04678e-06
1.35259e-06
1.47802e-05
-7.77365e-07
1.36774e-06
1.48117e-05
-1.00562e-06
2.56657e-06
1.57263e-05
-2.13338e-06
2.95616e-06
1.5987e-05
-1.58561e-06
2.5224e-06
1.43549e-05
8.34192e-08
2.72729e-06
1.26845e-05
5.21387e-07
2.20048e-06
1.07989e-05
1.27087e-06
1.3725e-06
7.18486e-06
2.73303e-06
1.8032e-06
3.14552e-06
2.89798e-06
2.13315e-06
2.15802e-06
1.79439e-06
1.52946e-05
-3.03312e-07
-2.213e-06
1.39826e-05
-1.50954e-06
5.05401e-06
1.0713e-05
-1.01887e-06
9.63463e-06
8.47033e-06
-8.29804e-07
7.62196e-06
7.59071e-06
-1.31002e-06
2.50063e-06
7.44367e-06
-1.70894e-06
-6.89732e-07
7.89871e-06
-1.63918e-06
-1.59788e-06
8.66726e-06
-1.29993e-06
-1.92787e-06
9.16054e-06
-1.05482e-06
-2.63475e-06
9.15038e-06
-6.30089e-07
-3.49786e-06
8.86569e-06
4.80704e-07
-1.93745e-06
8.86315e-06
1.23477e-06
1.88627e-06
8.93662e-06
1.04156e-06
2.97119e-06
8.39877e-06
9.98423e-07
2.51384e-06
6.78711e-06
1.14865e-06
3.70458e-06
4.86723e-06
8.39829e-07
4.16166e-06
3.77142e-06
4.52411e-07
2.37016e-06
3.40312e-06
2.52381e-07
8.12894e-07
3.33724e-06
1.72034e-08
4.36076e-07
3.50576e-06
-2.17452e-07
-1.0618e-07
3.88225e-06
-2.62688e-07
-1.1997e-06
4.35931e-06
-1.22185e-09
-2.32183e-06
4.97413e-06
3.64818e-07
-3.23853e-06
5.67995e-06
5.38164e-07
-3.63408e-06
6.25488e-06
5.42289e-07
-3.52754e-06
6.64455e-06
5.41934e-07
-2.77048e-06
6.92851e-06
3.70553e-07
-1.62461e-06
7.15174e-06
9.29338e-08
-9.78181e-07
7.32893e-06
-1.06239e-07
-6.24861e-07
7.43698e-06
-4.09121e-07
-3.65696e-07
7.68579e-06
-6.95686e-07
-1.00981e-07
8.38414e-06
-7.52355e-07
2.35963e-07
9.19039e-06
-6.35897e-07
-7.96196e-07
9.74449e-06
-6.82975e-07
-1.88811e-06
1.0435e-05
-1.34878e-06
-1.00635e-07
1.04547e-05
-1.93997e-06
2.20145e-06
9.31973e-06
-2.15691e-06
1.92847e-06
8.38572e-06
-1.55136e-06
1.35831e-06
7.55774e-06
1.45744e-07
1.55967e-06
5.59829e-06
1.98244e-06
8.49328e-07
3.24716e-06
3.24935e-06
3.79179e-07
1.72626e-06
3.6342e-06
1.00368e-06
8.42179e-07
3.0504e-06
1.33865e-06
2.37721e-06
1.15387e-06
4.89278e-06
4.52343e-07
6.3286e-06
2.15761e-06
-1.20053e-08
9.61798e-06
3.91268e-07
-1.89073e-07
7.19499e-06
-3.15404e-07
-2.19663e-07
3.30594e-06
-4.37866e-07
-7.2525e-07
1.49691e-06
-2.80529e-07
-1.35147e-06
6.09469e-07
-1.26172e-07
-1.65026e-06
2.63039e-07
5.11782e-08
-1.63161e-06
3.47782e-07
1.96656e-07
-1.43499e-06
8.98153e-07
6.57021e-08
-1.21536e-06
1.66816e-06
-2.52785e-07
-9.39059e-07
2.30293e-06
-4.20397e-07
-2.67611e-07
2.5374e-06
-5.51446e-07
4.18929e-07
2.43651e-06
-8.24058e-07
6.00424e-07
1.84019e-06
-1.22891e-06
8.19776e-07
1.24741e-06
-1.45491e-06
9.90568e-07
5.60843e-07
-1.29745e-06
8.70273e-07
-6.41489e-07
-8.41229e-07
7.06892e-07
-1.69398e-06
-3.23449e-07
6.16297e-07
-2.08755e-06
5.95119e-08
5.16521e-07
-2.24569e-06
3.7793e-07
4.4487e-07
-2.63209e-06
7.96238e-07
4.61029e-07
-3.06049e-06
1.42341e-06
5.68582e-07
-3.2385e-06
2.18581e-06
7.02785e-07
-3.06734e-06
2.84377e-06
7.34939e-07
-2.56985e-06
3.30474e-06
6.31454e-07
-1.84025e-06
3.68739e-06
4.91531e-07
-9.9051e-07
4.07478e-06
2.47855e-07
-6.82022e-07
4.42629e-06
9.38302e-09
-1.07083e-06
4.75337e-06
-9.00696e-08
-1.14288e-06
5.21772e-06
-3.26762e-07
-1.16613e-06
5.94766e-06
-5.35518e-07
-1.81576e-06
6.83103e-06
-4.08379e-07
-2.3471e-06
7.9453e-06
-5.83069e-07
-2.63765e-06
8.95418e-06
-1.08491e-06
-1.73069e-06
8.10931e-06
-9.95195e-07
1.78667e-06
5.64101e-06
-1.01491e-06
4.07168e-06
3.31221e-06
-1.09278e-06
2.10959e-06
1.62244e-06
-1.3735e-07
-9.66552e-08
6.87335e-07
1.20301e-06
-2.26111e-07
3.56797e-07
2.26339e-06
2.68577e-07
3.56491e-07
2.91039e-06
6.69512e-07
4.62121e-07
2.98712e-06
1.03153e-06
3.54434e-07
2.61547e-06
1.05928e-06
2.2633e-06
8.96727e-07
-7.49634e-06
3.19228e-06
-7.41938e-06
5.43746e-07
1.7194e-06
-7.16993e-06
3.8717e-08
7.98055e-07
-6.72224e-06
-3.73927e-07
4.42125e-07
-6.4426e-06
-6.74918e-07
2.02206e-07
-6.39333e-06
-9.60729e-07
-3.5418e-07
-6.3608e-06
-1.16344e-06
-6.93135e-07
-6.30129e-06
-1.1459e-06
-1.00251e-06
-6.26735e-06
-9.56324e-07
-9.49075e-07
-6.32257e-06
-7.24555e-07
-1.0269e-06
-6.36593e-06
-4.94303e-07
-1.06628e-06
-6.14408e-06
-1.42832e-07
-8.86373e-07
-5.65361e-06
1.98782e-07
-6.76485e-07
-5.13765e-06
4.06587e-07
-7.6689e-07
-4.56034e-06
6.73025e-07
-1.08173e-06
-3.83684e-06
8.96701e-07
-1.62112e-06
-3.11092e-06
9.88303e-07
-2.14795e-06
-2.48948e-06
1.03102e-06
-2.42288e-06
-1.96147e-06
1.03184e-06
-2.49967e-06
-1.49133e-06
9.84027e-07
-2.56986e-06
-1.03326e-06
9.42269e-07
-2.66892e-06
-5.78338e-07
9.36032e-07
-2.68938e-06
-1.26053e-07
9.69831e-07
-2.59454e-06
3.39475e-07
9.85746e-07
-2.33294e-06
8.08991e-07
8.26864e-07
-1.96752e-06
1.2743e-06
5.5295e-07
-1.63724e-06
1.77997e-06
3.09537e-07
-1.46523e-06
2.30354e-06
5.13372e-08
-1.638e-06
2.83128e-06
-1.4043e-07
-1.87862e-06
3.45791e-06
-1.72107e-07
-1.7127e-06
4.23692e-06
-2.58235e-07
-1.69563e-06
5.15069e-06
-3.08407e-07
-2.18594e-06
6.12248e-06
-2.14218e-07
-2.50989e-06
7.21771e-06
-8.65463e-07
-2.19826e-06
7.40479e-06
-1.28124e-06
-8.37385e-08
5.16504e-06
2.03456e-07
2.67259e-06
2.10075e-06
7.46204e-07
2.91293e-06
2.94064e-07
1.87033e-08
1.36822e-06
-4.32481e-07
3.25653e-07
5.47339e-07
-6.40684e-07
1.22484e-06
4.26264e-07
-5.92302e-07
1.97188e-06
5.0799e-07
-3.38492e-07
2.32289e-06
6.43862e-07
-4.48061e-08
2.30576e-06
7.58229e-07
2.69789e-08
2.17791e-06
7.14866e-07
1.98747e-06
5.3546e-07
-1.00925e-05
-1.28625e-08
-2.34276e-08
-9.54795e-06
-2.05013e-07
-5.91111e-07
-9.20977e-06
-3.18644e-07
-7.18771e-07
-8.89382e-06
-5.8875e-07
-9.74814e-07
-8.62562e-06
-7.43111e-07
-9.95414e-07
-8.37274e-06
-8.96831e-07
-1.04153e-06
-8.12723e-06
-8.69247e-07
-1.16873e-06
-7.83278e-06
-7.29056e-07
-1.09618e-06
-7.49851e-06
-5.48177e-07
-1.21467e-06
-7.12966e-06
-3.11595e-07
-1.30254e-06
-6.69011e-06
9.15652e-09
-1.42283e-06
-6.20927e-06
3.65285e-07
-1.51481e-06
-5.72531e-06
6.45376e-07
-1.71251e-06
-5.17598e-06
9.26648e-07
-1.90849e-06
-4.53501e-06
1.13067e-06
-2.07703e-06
-3.87348e-06
1.23936e-06
-2.16826e-06
-3.2317e-06
1.287e-06
-2.17959e-06
-2.64209e-06
1.29319e-06
-2.16204e-06
-2.12604e-06
1.26592e-06
-2.15833e-06
-1.66753e-06
1.22807e-06
-2.15318e-06
-1.22224e-06
1.18335e-06
-2.06799e-06
-7.30223e-07
1.09701e-06
-1.82122e-06
-2.20085e-07
8.16794e-07
-1.55557e-06
2.29035e-07
4.18949e-07
-1.36617e-06
6.85802e-07
1.06005e-07
-1.06987e-06
1.20712e-06
-7.1969e-08
-8.42154e-07
1.73161e-06
-1.71934e-07
-7.66117e-07
2.26274e-06
-1.94559e-07
-6.60818e-07
2.8924e-06
-1.48736e-07
-5.50313e-07
3.6066e-06
-1.93785e-07
-8.83551e-07
4.45335e-06
-2.95463e-07
-1.47566e-06
5.49908e-06
-4.43209e-07
-1.45169e-06
6.17072e-06
-1.02074e-06
-1.0188e-06
5.69264e-06
-8.94379e-07
2.41639e-07
4.33737e-06
7.0858e-07
2.33842e-06
2.52389e-06
1.49463e-06
2.64061e-06
6.83432e-07
1.08171e-06
1.58594e-06
-4.33287e-07
9.94708e-07
8.82009e-07
-7.52899e-07
1.27625e-06
5.78619e-07
-6.30784e-07
1.58097e-06
5.64187e-07
-3.28423e-07
1.7347e-06
5.76956e-07
-4.50656e-08
1.73084e-06
5.84378e-07
2.88056e-07
1.592e-06
5.03639e-07
1.48036e-06
3.77094e-07
1.52253e-07
1.55468e-07
1.50898e-07
4.2705e-08
4.28998e-08
4.11915e-08
-1.0874e-05
2.45812e-08
-1.31206e-06
-1.03032e-05
-8.54025e-08
-1.63443e-06
-9.74027e-06
-2.07474e-07
-1.60009e-06
-9.29875e-06
-3.43852e-07
-1.69246e-06
-8.95895e-06
-3.53057e-07
-1.77162e-06
-8.67703e-06
-4.37913e-07
-1.86244e-06
-8.40502e-06
-3.53446e-07
-1.881e-06
-8.12114e-06
-2.35891e-07
-1.92139e-06
-7.80396e-06
-6.96904e-08
-1.92048e-06
-7.45788e-06
1.32656e-07
-1.92035e-06
-7.02427e-06
3.56745e-07
-1.88026e-06
-6.48534e-06
5.90241e-07
-1.85247e-06
-5.89551e-06
8.18234e-07
-1.85917e-06
-5.23992e-06
1.03607e-06
-1.89665e-06
-4.55611e-06
1.21465e-06
-1.95704e-06
-3.88713e-06
1.32696e-06
-2.00303e-06
-3.25484e-06
1.38286e-06
-2.03191e-06
-2.66671e-06
1.39337e-06
-2.03456e-06
-2.1253e-06
1.37878e-06
-1.99232e-06
-1.60033e-06
1.33431e-06
-1.86177e-06
-1.06873e-06
1.2075e-06
-1.57164e-06
-6.80732e-07
8.79301e-07
-1.26381e-06
-4.91165e-07
3.53902e-07
-9.12879e-07
-2.61786e-07
-2.97362e-08
-5.16523e-08
7.83226e-08
-1.11923e-07
6.29177e-07
4.64298e-07
-1.33477e-07
7.04536e-07
8.79202e-07
-1.6465e-07
4.44245e-07
1.35134e-06
-1.87575e-07
9.00936e-08
1.92514e-06
-2.10079e-07
-2.98919e-07
2.594e-06
-3.23832e-07
-7.60097e-07
3.35693e-06
-4.92487e-07
-1.05448e-06
4.0847e-06
-6.39978e-07
-9.22427e-07
4.26313e-06
-8.11874e-07
-6.33743e-07
3.66206e-06
-2.5811e-07
3.0036e-07
2.55533e-06
1.31189e-06
1.70596e-06
1.22334e-06
2.03082e-06
1.87433e-06
7.21034e-08
1.53694e-06
1.25477e-06
-5.05558e-07
1.15692e-06
8.01029e-07
-6.58761e-07
1.15671e-06
5.64864e-07
-5.82054e-07
1.26849e-06
4.77391e-07
-3.85594e-07
1.31737e-06
4.4025e-07
-1.87575e-07
1.31924e-06
4.24938e-07
7.15288e-08
1.15189e-06
3.58956e-07
1.09475e-06
3.12509e-07
8.59719e-08
7.64983e-08
6.92691e-08
2.39088e-08
2.10051e-08
1.85795e-08
-1.15023e-05
-2.85103e-08
-1.60614e-06
-1.08713e-05
-1.08308e-08
-1.4096e-06
-1.03296e-05
3.45731e-08
-1.42856e-06
-9.85556e-06
-8.94598e-08
-1.58398e-06
-9.44083e-06
-9.66151e-08
-1.4604e-06
-9.05933e-06
-1.07746e-07
-1.59944e-06
-8.69714e-06
-1.4641e-07
-1.55415e-06
-8.34031e-06
-5.86356e-08
-1.62026e-06
-7.95739e-06
3.07739e-08
-1.65518e-06
-7.55424e-06
1.86528e-07
-1.69389e-06
-7.10721e-06
3.56909e-07
-1.75615e-06
-6.6394e-06
5.69822e-07
-1.79847e-06
-6.13305e-06
7.69453e-07
-1.83215e-06
-5.59424e-06
9.68584e-07
-1.87502e-06
-5.00522e-06
1.13656e-06
-1.90792e-06
-4.3673e-06
1.25924e-06
-1.92527e-06
-3.71005e-06
1.33439e-06
-1.91971e-06
-3.05352e-06
1.36347e-06
-1.87869e-06
-2.41101e-06
1.35101e-06
-1.78648e-06
-1.77875e-06
1.28238e-06
-1.62166e-06
-1.19379e-06
1.13654e-06
-1.35289e-06
-8.78392e-07
8.81599e-07
-9.83362e-07
-9.03033e-07
4.69461e-07
-4.39027e-07
-9.8144e-07
1.64753e-07
7.46588e-07
-8.73141e-07
9.27349e-08
1.45012e-06
-6.89005e-07
5.10654e-08
9.89361e-07
-5.27209e-07
-4.29282e-08
4.02882e-07
-2.86936e-07
-1.75418e-07
6.4666e-08
7.45049e-08
-3.09002e-07
-1.24433e-07
5.34981e-07
-4.14843e-07
-2.333e-07
1.02204e-06
-5.21136e-07
-3.40108e-07
1.43751e-06