/*--------------------------------*- C++ -*----------------------------------*\
| =========                 |                                                 |
| \\      /  F ield         | OpenFOAM: The Open Source CFD Toolbox           |
|  \\    /   O peration     | Version:  2.3.1                                 |
|   \\  /    A nd           | Web:      www.OpenFOAM.org                      |
|    \\/     M anipulation  |                                                 |
\*---------------------------------------------------------------------------*/
FoamFile
{
    version     2.0;
    format      ascii;
    class       volScalarField;
    location    "20";
    object      Sed;
}
// * * * * * * * * * * * * * * * * * * * * * * * * * * * * * * * * * * * * * //

dimensions      [0 0 0 0 0 0 0];

internalField   nonuniform List<scalar> 
38152
(
2.62125e-167
1.17627e-167
6.13305e-168
3.29063e-168
1.60398e-168
8.46455e-169
5.82526e-169
3.99362e-169
2.23346e-169
1.14038e-169
6.01983e-170
2.72597e-170
8.79309e-171
1.91223e-171
2.96819e-172
3.63851e-173
3.86681e-174
3.74131e-175
3.43902e-176
3.0028e-177
2.44916e-178
1.9105e-179
1.40761e-180
9.80468e-182
7.31093e-183
6.27231e-184
5.80725e-185
5.53423e-186
5.32714e-187
4.89401e-188
4.22844e-189
3.60421e-190
2.91788e-191
2.19386e-192
1.65077e-193
1.23283e-194
8.92476e-196
6.9618e-197
5.60658e-198
3.97301e-199
2.41288e-200
1.19114e-201
3.6989e-203
4.82346e-205
1.19698e-167
7.1333e-168
3.14928e-168
8.04276e-169
1.32008e-169
3.18992e-170
1.67078e-170
9.40879e-171
4.77233e-171
2.88007e-171
2.66835e-171
2.49463e-171
7.83788e-172
1.13117e-172
1.12651e-173
7.21297e-175
2.99181e-176
1.5918e-177
1.17895e-178
9.35592e-180
7.43143e-181
5.99287e-182
4.77685e-183
3.74449e-184
3.13866e-185
2.91272e-186
2.80121e-187
2.69155e-188
4.43355e-189
4.19547e-190
2.93984e-191
2.13085e-192
1.54806e-193
1.11218e-194
8.36612e-196
6.47429e-197
4.57379e-198
3.06646e-199
5.15451e-200
5.28013e-201
4.60169e-202
3.76355e-203
1.20863e-204
1.29451e-206
6.17642e-168
2.69051e-168
6.27752e-169
8.87535e-170
8.45358e-171
1.35066e-171
5.11275e-172
2.80173e-172
1.63748e-172
1.10828e-172
9.66806e-173
1.07437e-172
5.86626e-173
9.35091e-174
9.5612e-175
8.1439e-176
3.36577e-177
8.44433e-179
4.67423e-180
3.37436e-181
2.64673e-182
2.14154e-183
1.80262e-184
1.577e-185
1.97172e-186
2.34003e-187
2.93824e-188
2.8633e-189
2.17685e-190
2.78846e-191
2.66702e-192
1.55317e-193
1.03516e-194
7.31774e-196
5.52034e-197
4.32025e-198
2.79747e-199
1.24858e-200
5.64037e-202
2.49466e-202
6.75624e-203
7.95407e-204
6.58054e-205
1.7444e-206
1.5912e-208
4.3639e-169
9.33185e-170
1.02355e-170
6.95455e-172
4.28094e-173
1.26455e-173
6.52621e-174
3.9999e-174
2.63594e-174
1.79785e-174
1.17085e-174
7.88439e-175
3.66798e-175
4.77936e-176
5.20113e-177
4.61059e-178
1.7168e-179
5.11762e-181
2.88561e-182
1.97924e-183
1.55144e-184
1.36244e-185
1.34416e-186
1.44814e-187
1.90971e-188
2.37297e-189
3.01707e-190
2.5555e-191
1.818e-192
2.53959e-193
2.26724e-194
1.05182e-195
6.76474e-197
4.23316e-198
2.99865e-199
2.10242e-200
9.72417e-202
2.06866e-203
6.8936e-205
2.19574e-204
8.10088e-205
1.13527e-205
8.93016e-207
1.96493e-208
1.56309e-210
1.43493e-171
5.49675e-173
2.25325e-174
3.61488e-175
1.5927e-175
9.06856e-176
5.8947e-176
3.72197e-176
2.12158e-176
1.00261e-176
4.36991e-177
1.40038e-177
1.86448e-178
2.75801e-179
3.14979e-180
1.47833e-181
6.03679e-183
3.68906e-184
2.56637e-185
2.02948e-186
1.7983e-187
1.81709e-188
2.08681e-189
2.77898e-190
3.46028e-191
4.24349e-192
3.4404e-193
2.45455e-194
2.89737e-195
2.03637e-196
9.68542e-198
7.63421e-199
3.64101e-200
2.05943e-201
1.51357e-202
8.93365e-204
1.37892e-205
2.69868e-207
1.75373e-206
8.13911e-207
1.27206e-207
9.21127e-209
1.82271e-210
1.53953e-212
7.87817e-174
2.00866e-175
1.48688e-176
5.01502e-177
2.56794e-177
1.48821e-177
9.40436e-178
5.34888e-178
2.40508e-178
9.29143e-179
3.59001e-179
1.0635e-179
1.46571e-180
2.54842e-181
3.28929e-182
1.83167e-183
9.00346e-185
5.80752e-186
4.121e-187
3.28015e-188
2.90948e-189
3.03332e-190
3.72492e-191
4.98872e-192
5.52091e-193
5.44683e-194
3.72186e-195
2.33845e-196
2.1897e-197
1.22846e-198
5.81826e-200
4.34965e-201
1.92867e-202
9.79292e-204
1.05349e-204
8.9528e-206
1.35968e-207
2.12203e-209
1.37148e-208
6.44681e-209
1.05576e-209
7.06311e-211
1.22596e-212
1.0145e-214
1.04775e-174
4.43519e-176
1.59794e-177
2.35472e-178
9.17454e-179
5.17173e-179
2.77375e-179
1.82511e-179
9.4701e-180
4.1004e-180
1.53586e-180
5.12372e-181
1.16397e-181
1.59375e-182
3.05405e-183
4.31272e-184
2.7223e-185
1.51268e-186
1.02231e-187
7.45191e-189
6.02255e-190
5.458e-191
5.99876e-192
7.34739e-193
7.26792e-194
4.66953e-195
2.64206e-196
1.2337e-197
6.72583e-199
5.95327e-200
2.7518e-201
1.05885e-202
7.12397e-204
4.01987e-205
2.22114e-206
9.0494e-207
9.69818e-208
1.1635e-209
1.80526e-211
9.50002e-211
4.10589e-211
6.67608e-212
4.13499e-213
5.96682e-215
4.80405e-217
9.15096e-177
3.96356e-178
2.21251e-179
5.28043e-180
2.3494e-180
1.36463e-180
7.02983e-181
4.72736e-181
2.13991e-181
8.97787e-182
3.06056e-182
8.6814e-183
1.61171e-183
2.18722e-184
4.47208e-185
6.65564e-186
4.57766e-187
2.76617e-188
1.94217e-189
1.46289e-190
1.20512e-191
1.11744e-192
1.20347e-193
1.07573e-194
5.17777e-196
1.47267e-197
3.98408e-199
9.71477e-201
5.42693e-202
4.8537e-203
2.37527e-204
1.08775e-205
8.62408e-207
6.15952e-208
9.91238e-209
8.50495e-209
8.99304e-210
8.43277e-212
1.31772e-213
5.32359e-213
2.04536e-213
3.23419e-214
1.86351e-215
2.32133e-217
1.84879e-219
1.20398e-178
3.73487e-180
4.56153e-181
1.26298e-181
6.38982e-182
3.87688e-182
1.92024e-182
1.31693e-182
5.33515e-183
2.18364e-183
6.53501e-184
1.6312e-184
2.57506e-185
3.53446e-186
7.64531e-187
1.17924e-187
8.50987e-189
5.39814e-190
3.86687e-191
2.91217e-192
2.34087e-193
1.98884e-194
1.61978e-195
8.32922e-197
2.07784e-198
3.25078e-200
3.83993e-202
7.7986e-204
4.42343e-205
3.84362e-206
1.98893e-207
1.09895e-208
1.0096e-209
8.54967e-211
4.32579e-211
5.88461e-211
1.65244e-180
2.54319e-182
9.31653e-183
2.55165e-183
1.49736e-183
9.88482e-184
4.77164e-184
3.38395e-184
1.279e-184
5.23209e-185
1.38546e-185
3.15911e-186
4.38402e-187
6.16687e-188
1.38511e-188
2.14982e-189
1.54095e-190
9.59487e-192
6.44167e-193
4.41175e-194
3.1257e-195
2.16047e-196
1.20647e-197
3.77718e-199
5.48739e-201
4.93458e-203
3.15064e-205
7.30082e-207
4.46025e-208
3.75165e-209
2.2771e-210
1.58616e-211
1.52524e-212
1.51608e-213
1.37985e-213
1.97057e-182
1.75921e-184
1.44153e-184
3.41931e-185
2.23172e-185
1.67961e-185
8.57256e-186
5.83052e-186
2.28273e-186
9.44019e-187
2.1868e-187
4.784e-188
5.89584e-189
8.60071e-190
1.94554e-190
2.89623e-191
1.92679e-192
1.08979e-193
6.37319e-195
3.76563e-196
2.2493e-197
1.23292e-198
4.89611e-200
1.0106e-201
9.92086e-204
6.13729e-206
2.95315e-208
9.37357e-210
6.43384e-211
5.28444e-212
3.83134e-213
3.11669e-214
3.07032e-215
3.34802e-216
3.12888e-216
4.22524e-185
1.30048e-186
6.97877e-187
2.8066e-187
1.42805e-187
1.30515e-187
7.97176e-188
3.90963e-188
1.93879e-188
8.30932e-189
1.48015e-189
3.67281e-190
3.72242e-191
6.00775e-192
1.30329e-192
1.81773e-193
1.07669e-194
5.37878e-196
2.71974e-197
1.38846e-198
6.99232e-200
3.0753e-201
9.25002e-203
1.43419e-204
1.07834e-206
5.27311e-209
2.75043e-211
1.17533e-212
8.55864e-214
6.93008e-215
5.38942e-216
4.57584e-217
4.52239e-218
5.16494e-219
4.25064e-219
7.81059e-168
2.77096e-168
1.39943e-168
7.65239e-169
3.82941e-169
2.14568e-169
1.63713e-169
1.33222e-169
8.34373e-170
4.51206e-170
2.49347e-170
1.17189e-170
3.67244e-171
7.41313e-172
1.07979e-172
1.27631e-173
1.33581e-174
1.27947e-175
1.14144e-176
9.64828e-178
7.7374e-179
6.02538e-180
4.55738e-181
3.39353e-182
2.64158e-183
2.19028e-184
1.88727e-185
1.63608e-186
1.3791e-187
1.08857e-188
8.23361e-190
6.25107e-191
4.78954e-192
3.64792e-193
2.89682e-194
2.39109e-195
1.94083e-196
1.62291e-197
1.36459e-198
1.0011e-199
6.30001e-201
3.28556e-202
1.10141e-203
1.57373e-205
3.51926e-168
2.24378e-168
1.11515e-168
2.67163e-169
5.0694e-170
1.85297e-170
1.19835e-170
7.7544e-171
4.3754e-171
2.71074e-171
2.31279e-171
1.38345e-171
3.42909e-172
5.11892e-173
5.79599e-174
4.6083e-175
2.91491e-176
1.94806e-177
1.47166e-178
1.17088e-179
9.03908e-181
6.81421e-182
5.14861e-183
4.01501e-184
3.27825e-185
3.03078e-186
3.0809e-187
2.89849e-188
2.37572e-189
1.72165e-190
1.22619e-191
8.90567e-193
6.9017e-194
5.54229e-195
4.54242e-196
3.72028e-197
2.87399e-198
1.99913e-199
1.58185e-200
1.49725e-201
1.42e-202
1.13853e-203
3.86608e-205
4.55134e-207
2.15486e-168
8.42302e-169
1.87947e-169
3.71e-170
7.67171e-171
2.09979e-171
1.04786e-171
6.48341e-172
3.79799e-172
2.22658e-172
1.53097e-172
1.17176e-172
4.70693e-173
8.05296e-174
1.03337e-174
1.06044e-175
6.75964e-177
3.73575e-178
2.33896e-179
1.55664e-180
1.19134e-181
8.90843e-183
6.61456e-184
6.00961e-185
5.33411e-186
4.57982e-187
4.29349e-188
4.03486e-189
3.45554e-190
2.78598e-191
2.1049e-192
1.53075e-193
1.15878e-194
9.57482e-196
8.28997e-197
6.77188e-198
4.63024e-199
2.69923e-200
1.2794e-201
8.86813e-203
2.00704e-203
2.67029e-204
2.13419e-205
6.07279e-207
6.17185e-209
9.764e-170
2.08477e-170
3.72887e-171
7.35276e-172
1.69917e-172
6.24792e-173
3.42097e-173
2.00896e-173
1.16881e-173
7.07547e-174
4.24825e-174
2.32589e-174
7.60684e-175
1.11738e-175
1.42873e-176
1.46877e-177
9.00023e-179
4.73549e-180
2.80124e-181
1.75047e-182
1.24896e-183
9.23601e-185
7.21441e-186
6.82727e-187
6.14637e-188
5.07843e-189
4.5109e-190
3.80277e-191
2.98269e-192
2.47043e-193
2.00189e-194
1.6168e-195
1.36288e-196
1.1962e-197
1.05754e-198
7.76052e-200
3.9922e-201
1.31491e-202
3.9813e-204
8.31017e-205
2.6434e-205
4.11619e-206
3.14684e-207
7.78518e-209
6.93002e-211
4.33462e-172
5.626e-173
1.09834e-173
3.0369e-174
1.34814e-174
7.52641e-175
4.42479e-175
2.65403e-175
1.51071e-175
7.33315e-176
3.00803e-176
8.00516e-177
1.10029e-177
1.52024e-178
1.69183e-179
1.09564e-180
5.94295e-182
3.49194e-183
2.13342e-184
1.4611e-185
1.05329e-186
8.21889e-188
7.55274e-189
6.0631e-190
4.21419e-191
3.24582e-192
2.33769e-193
1.86367e-194
1.67664e-195
1.55568e-196
1.43582e-197
1.34516e-198
1.25814e-199
1.09756e-200
8.03988e-202
4.64772e-203
8.69565e-205
1.67752e-206
7.14292e-207
2.97191e-207
5.16812e-208
3.77084e-209
8.74226e-211
8.2006e-213
5.36357e-174
7.3673e-175
1.62854e-175
5.56263e-176
2.71813e-176
1.5217e-176
9.09005e-177
5.30913e-177
2.61361e-177
1.05556e-177
3.62094e-178
8.6739e-179
1.19367e-179
1.77843e-180
2.09221e-181
1.4194e-182
7.85942e-184
4.55253e-185
2.706e-186
1.75876e-187
1.18836e-188
8.50495e-190
6.13824e-191
3.25409e-192
1.48749e-193
1.05535e-194
8.46602e-196
7.98382e-197
8.59443e-198
9.45664e-199
9.93085e-200
1.02955e-200
1.02894e-201
8.6715e-203
8.2451e-204
5.78672e-205
9.74708e-207
1.30066e-208
6.5083e-209
2.90233e-209
5.28947e-210
3.66132e-211
7.91056e-213
7.419e-215
5.00497e-175
6.89864e-176
1.06078e-176
2.83027e-177
1.13082e-177
5.82497e-178
3.26976e-178
1.96476e-178
1.04705e-178
4.50839e-179
1.69617e-179
5.29797e-180
1.07462e-180
1.43954e-181
2.1925e-182
2.64094e-183
1.84837e-184
1.03002e-185
5.78343e-187
3.29663e-188
1.9968e-189
1.1889e-190
6.43258e-192
2.4498e-193
6.83781e-195
3.47082e-196
2.86854e-197
2.56544e-198
2.76934e-199
3.36011e-200
4.05429e-201
4.65725e-202
5.31166e-203
5.62504e-204
4.39814e-205
8.64472e-206
6.90409e-207
9.17923e-209
1.20684e-210
5.75654e-211
2.49968e-211
4.51645e-212
2.95652e-213
5.83032e-215
5.45045e-217
6.71376e-177
9.17492e-178
1.71959e-178
5.36651e-179
2.36374e-179
1.24802e-179
6.97055e-180
4.07376e-180
1.97017e-180
8.11822e-181
2.81079e-181
7.76376e-182
1.36624e-182
1.77575e-183
2.69014e-184
3.20656e-185
2.23696e-186
1.21566e-187
6.48791e-189
3.40825e-190
1.78804e-191
8.30071e-193
2.80112e-194
7.64838e-196
2.35794e-197
1.20637e-198
9.85936e-200
8.62681e-201
8.79984e-202
1.00465e-202
1.15774e-203
1.35161e-204
1.62794e-205
1.7685e-206
2.25809e-207
8.55259e-208
6.79967e-209
8.22783e-211
1.10901e-212
4.58107e-213
1.85551e-213
3.24529e-214
2.00525e-215
3.68883e-217
3.38744e-219
9.75971e-179
1.29782e-179
3.10495e-180
1.01365e-180
4.72177e-181
2.47366e-181
1.32969e-181
7.50854e-182
3.38197e-182
1.2984e-182
4.04086e-183
9.85126e-184
1.50309e-184
1.88989e-185
2.79652e-186
3.22703e-187
2.15773e-188
1.08943e-189
5.19712e-191
2.37078e-192
1.02185e-193
3.77852e-195
1.25812e-196
3.93532e-198
1.33826e-199
5.84697e-201
3.94485e-202
3.25477e-203
2.97773e-204
2.96216e-205
2.98404e-206
3.13212e-207
3.58895e-208
3.82711e-209
1.04773e-209
6.33285e-210
1.35975e-180
1.85198e-181
5.52406e-182
1.78753e-182
8.35515e-183
4.14759e-183
2.02452e-183
1.01552e-183
4.30809e-184
1.48154e-184
4.09176e-185
8.97123e-186
1.18238e-186
1.4577e-187
2.0438e-188
2.21094e-189
1.33877e-190
5.96729e-192
2.51275e-193
1.07561e-194
4.71191e-196
1.87914e-197
7.15699e-199
2.41718e-200
7.2678e-202
2.69299e-203
1.6031e-204
1.27192e-205
1.07312e-206
9.59369e-208
8.65804e-209
8.15556e-210
8.58486e-211
9.09737e-212
4.22521e-212
1.58632e-182
2.16906e-183
7.85043e-184
2.381e-184
1.08619e-184
4.9646e-185
2.119e-185
8.84092e-186
3.60748e-186
1.04114e-186
2.46615e-187
5.08067e-188
5.49924e-189
6.94017e-190
9.04597e-191
9.40887e-192
5.3875e-193
2.36414e-194
1.0285e-195
4.75204e-197
2.27538e-198
9.92543e-200
3.81757e-201
1.16442e-202
3.08223e-204
1.01091e-205
5.40628e-207
4.17118e-208
3.37655e-209
2.85607e-210
2.43876e-211
2.19082e-212
2.22162e-213
2.40843e-214
1.4707e-214
1.16686e-184
1.46114e-185
6.59249e-186
1.83279e-186
7.55289e-187
3.5813e-187
1.29423e-187
4.21785e-188
1.87071e-188
4.32752e-189
8.02276e-190
1.83181e-190
1.4335e-191
2.09514e-192
2.54867e-193
2.74918e-194
1.57263e-195
7.15899e-197
3.23854e-198
1.54479e-199
7.40471e-201
3.14248e-202
1.12169e-203
3.06009e-205
7.17557e-207
2.14217e-208
1.06657e-209
8.00757e-211
6.35715e-212
5.25055e-213
4.40335e-214
3.90441e-215
3.93817e-216
4.42801e-217
3.15229e-217
2.36196e-168
7.0157e-169
3.39711e-169
1.85092e-169
9.83065e-170
6.32969e-170
5.34045e-170
4.24875e-170
2.66593e-170
1.56464e-170
8.8006e-171
3.8141e-171
1.04161e-171
1.88843e-172
2.60317e-173
3.01555e-174
3.12703e-175
2.92846e-176
2.52999e-177
2.084e-178
1.65951e-179
1.30276e-180
1.00738e-181
7.66991e-183
5.87048e-184
4.5664e-185
3.54992e-186
2.68556e-187
1.94792e-188
1.37613e-189
9.71913e-191
7.16442e-192
5.46073e-193
4.27923e-194
3.66909e-195
3.31584e-196
2.93747e-197
2.6266e-198
2.30237e-199
1.72648e-200
1.1013e-201
5.82536e-203
1.94495e-204
2.71435e-206
9.4488e-169
6.41425e-169
2.83503e-169
6.73131e-170
1.68155e-170
7.90271e-171
5.31635e-171
3.38123e-171
2.01439e-171
1.4183e-171
1.14605e-171
5.03791e-172
1.07755e-172
1.57478e-173
1.84966e-174
1.58072e-175
1.12434e-176
7.63033e-178
5.22379e-179
3.83087e-180
2.77116e-181
1.96384e-182
1.49522e-183
1.32983e-184
1.11717e-185
1.00694e-186
8.66253e-188
6.29072e-189
4.36217e-190
3.05949e-191
2.15633e-192
1.58742e-193
1.2457e-194
1.03272e-195
9.14014e-197
8.31667e-198
7.03796e-199
5.36468e-200
3.94148e-201
3.20013e-202
2.81916e-203
2.11767e-204
6.95461e-206
7.99094e-208
5.36688e-169
1.89533e-169
5.21575e-170
1.43445e-170
3.55668e-171
1.18023e-171
6.42461e-172
3.98904e-172
2.38532e-172
1.51176e-172
1.05839e-172
6.60385e-173
2.10807e-173
3.44569e-174
4.45348e-175
4.67072e-176
3.32113e-177
2.11337e-178
1.32677e-179
8.09271e-181
5.20912e-182
3.54621e-183
2.69536e-184
2.32553e-185
2.10375e-186
1.73472e-187
1.49837e-188
1.23378e-189
9.4527e-191
6.98324e-192
5.11587e-193
3.75958e-194
2.88633e-195
2.41466e-196
2.1851e-197
2.04193e-198
1.71924e-199
1.16936e-200
6.39567e-202
3.51913e-203
4.82502e-204
5.49181e-205
4.06191e-206
1.16553e-207
1.15293e-209
2.39144e-170
6.75662e-171
1.73514e-171
4.60094e-172
1.27374e-172
5.24276e-173
2.94623e-173
1.73079e-173
1.04264e-173
6.54389e-174
3.76328e-174
1.71405e-174
4.56101e-175
6.41202e-176
8.07363e-177
8.35779e-178
5.76473e-179
3.4707e-180
2.02578e-181
1.1448e-182
6.8571e-184
4.47977e-185
3.38885e-186
2.94364e-187
2.50201e-188
1.90933e-189
1.56861e-190
1.27262e-191
1.02861e-192
8.10513e-194
6.42256e-195
5.17832e-196
4.30599e-197
3.89342e-198
3.75516e-199
3.3819e-200
2.30284e-201
9.88184e-203
3.26732e-204
3.53601e-205
6.68165e-206
8.85753e-207
6.51125e-208
1.70254e-209
1.42867e-211
1.82633e-172
4.17551e-173
1.07831e-173
3.4199e-174
1.57725e-174
8.74939e-175
5.06578e-175
3.05719e-175
1.72185e-175
7.86798e-176
2.84462e-176
6.39534e-177
8.44745e-178
1.11116e-178
1.21268e-179
8.69905e-181
5.24401e-182
2.95287e-183
1.573e-184
8.6725e-186
5.18487e-187
3.59657e-188
2.83444e-189
2.04008e-190
1.35737e-191
1.14145e-192
9.85187e-194
8.49914e-195
7.38144e-196
6.55074e-197
5.84465e-198
5.30206e-199
5.20104e-200
5.07792e-201
4.59717e-202
3.24934e-203
7.76603e-205
1.81009e-206
3.26472e-207
8.23869e-208
1.25668e-208
9.18307e-210
2.30006e-211
2.0382e-213
3.96331e-174
8.93148e-175
2.42069e-175
8.78471e-176
4.2566e-176
2.32336e-176
1.34413e-176
7.74943e-177
3.75447e-177
1.4504e-177
4.4823e-178
9.15421e-179
1.20072e-179
1.64151e-180
1.8486e-181
1.35462e-182
7.98759e-184
4.22042e-185
2.04152e-186
9.75153e-188
4.82771e-189
2.63929e-190
1.52518e-191
9.83657e-193
6.62888e-194
6.12616e-195
5.73584e-196
5.39522e-197
5.19429e-198
5.11333e-199
4.99427e-200
4.98408e-201
5.30538e-202
5.1549e-203
6.08933e-204
4.70134e-205
8.60048e-207
1.63872e-208
3.39725e-209
9.70361e-210
1.58515e-210
1.11738e-211
2.6693e-213
2.47037e-215
4.14997e-175
8.75838e-176
2.03541e-176
6.06577e-177
2.43824e-177
1.21412e-177
6.58823e-178
3.79601e-178
2.00315e-178
8.45216e-179
2.87816e-179
8.02103e-180
1.45309e-180
1.8455e-181
2.49547e-182
2.77495e-183
1.99533e-184
1.10674e-185
5.2333e-187
2.16771e-188
8.36141e-190
3.09156e-191
1.14147e-192
5.74011e-194
3.858e-195
3.04134e-196
3.09753e-197
3.0033e-198
2.88003e-199
2.81774e-200
2.84345e-201
2.92771e-202
3.20376e-203
3.67629e-204
3.50538e-205
7.55573e-206
6.02385e-207
9.28385e-209
1.85007e-210
3.69859e-211
1.07704e-211
1.75765e-212
1.17874e-213
2.66284e-215
2.5838e-217
9.30283e-177
1.93675e-177
4.83776e-178
1.59464e-178
6.84475e-179
3.43385e-179
1.83271e-179
1.01777e-179
4.76261e-180
1.79278e-180
5.46233e-181
1.35384e-181
2.18447e-182
2.63495e-183
3.39297e-184
3.55476e-185
2.37858e-186
1.17367e-187
4.67313e-189
1.55314e-190
4.55384e-192
1.23301e-193
4.2335e-195
2.44005e-196
2.04901e-197
1.79464e-198
1.80042e-199
1.65058e-200
1.45543e-201
1.30016e-202
1.20694e-203
1.19078e-204
1.33937e-205
1.59091e-206
2.18467e-207
7.94924e-208
6.31146e-209
1.04082e-210
2.17834e-212
3.8428e-213
1.07792e-213
1.70394e-214
1.08175e-215
2.33219e-217
2.25039e-219
2.04032e-178
4.28859e-179
1.15195e-179
4.06366e-180
1.78996e-180
8.84602e-181
4.51932e-181
2.31282e-181
9.51169e-182
3.153e-182
8.38423e-183
1.78485e-183
2.49998e-184
2.77231e-185
3.24273e-186
3.04463e-187
1.78533e-188
7.39625e-190
2.40794e-191
6.62196e-193
1.76636e-194
5.31207e-196
2.45431e-197
1.78811e-198
1.56698e-199
1.28679e-200
1.16171e-201
9.94426e-203
7.98094e-204
6.34734e-205
5.15919e-206
4.51039e-207
4.69139e-208
5.43209e-209
1.21604e-209
6.58855e-210
4.30542e-180
9.11955e-181
2.59661e-181
9.43418e-182
4.08636e-182
1.91581e-182
8.95785e-183
4.01162e-183
1.43642e-183
4.02395e-184
9.10861e-185
1.54762e-185
1.78211e-186
1.74327e-187
1.75662e-188
1.44723e-189
7.48506e-191
2.85023e-192
9.33789e-194
2.92681e-195
9.75651e-197
3.73957e-198
2.05184e-199
1.50683e-200
1.19715e-201
8.988e-203
7.33924e-204
5.96501e-205
4.51028e-206
3.3317e-207
2.4799e-208
1.98296e-209
1.9123e-210
2.17026e-211
6.80038e-212
7.22067e-182
1.54382e-182
4.77944e-183
1.70079e-183
7.12519e-184
3.08611e-184
1.27886e-184
4.98063e-185
1.50833e-185
3.47347e-186
6.63979e-187
8.7846e-188
8.5371e-189
7.33379e-190
6.71682e-191
5.52814e-192
3.00569e-193
1.28484e-194
4.8843e-196
1.78101e-197
6.76048e-199
2.82303e-200
1.51793e-201
1.01757e-202
7.22817e-204
4.94569e-205
3.69065e-206
2.88053e-207
2.10019e-208
1.50019e-209
1.08355e-210
8.44805e-212
8.00083e-213
9.20391e-214
3.60159e-214
7.35622e-184
1.34329e-184
5.30651e-185
1.5364e-185
6.35153e-186
2.62465e-186
9.07637e-187
3.17015e-187
8.69267e-188
1.576e-188
2.58528e-189
3.18597e-190
2.44881e-191
2.22522e-192
1.94746e-193
1.69412e-194
9.70534e-196
4.4629e-197
1.8137e-198
6.91311e-200
2.67427e-201
1.10446e-202
5.6131e-204
3.44127e-205
2.20654e-206
1.38625e-207
9.60172e-209
7.28788e-210
5.18531e-211
3.64768e-212
2.61794e-213
2.05313e-214
1.97287e-215
2.34926e-216
1.11687e-216
9.80707e-169
2.28905e-169
8.93999e-170
4.61856e-170
2.64022e-170
1.89093e-170
1.55986e-170
1.12246e-170
6.82965e-171
4.03601e-171
2.27063e-171
8.98591e-172
2.18583e-172
3.66929e-173
4.8327e-174
5.43564e-175
5.46599e-176
4.87822e-177
4.02977e-178
3.26297e-179
2.62647e-180
2.1151e-181
1.63765e-182
1.20861e-183
8.49114e-185
5.78269e-186
3.82416e-187
2.47455e-188
1.66909e-189
1.15475e-190
8.18045e-192
6.28248e-193
4.82926e-194
3.76962e-195
3.37591e-196
3.41129e-197
3.35338e-198
3.2485e-199
3.02175e-200
2.32741e-201
1.49222e-202
7.81521e-204
2.48479e-205
3.19629e-207
2.58933e-169
1.64763e-169
6.72822e-170
1.70646e-170
5.35399e-171
2.87532e-171
1.88712e-171
1.16833e-171
7.53218e-172
5.73033e-172
3.66726e-172
1.32874e-172
2.62558e-173
3.83264e-174
4.5667e-175
3.99197e-176
2.83528e-177
1.85132e-178
1.17229e-179
7.88347e-181
5.29534e-182
3.75579e-183
3.28101e-184
2.90341e-185
2.33584e-186
1.78402e-187
1.19791e-188
7.49341e-190
5.04685e-191
3.50068e-192
2.50387e-193
1.88228e-194
1.4776e-195
1.3822e-196
1.44111e-197
1.37073e-198
1.24447e-199
1.01673e-200
7.73181e-202
5.75171e-203
4.44605e-204
2.97291e-205
8.90341e-207
9.41123e-209
1.32641e-169
4.65993e-170
1.57338e-170
4.81814e-171
1.31994e-171
5.09722e-172
2.87676e-172
1.74696e-172
1.06658e-172
7.12232e-173
4.68429e-173
2.37813e-173
6.56201e-174
1.02033e-174
1.31166e-175
1.36687e-176
1.02024e-177
6.58633e-179
3.94883e-180
2.19796e-181
1.28865e-182
8.09814e-184
5.9936e-185
5.51271e-186
4.84661e-187
3.69772e-188
2.75861e-189
1.95168e-190
1.36896e-191
9.7457e-193
7.03428e-194
5.20077e-195
4.01491e-196
3.54545e-197
3.63658e-198
3.84414e-199
3.709e-200
2.8577e-201
1.70554e-202
9.68659e-204
9.72042e-205
8.79119e-206
5.7662e-207
1.57418e-208
1.43391e-210
7.19418e-171
2.29667e-171
7.04197e-172
2.04849e-172
6.34791e-173
2.81761e-173
1.56936e-173
9.07772e-174
5.57835e-174
3.44594e-174
1.78596e-174
7.02281e-175
1.61576e-175
2.18175e-176
2.71537e-177
2.7919e-178
2.03033e-179
1.24327e-180
6.8775e-182
3.51184e-183
1.90609e-184
1.14208e-185
8.23082e-187
7.32428e-188
6.02543e-189
4.23921e-190
3.11382e-191
2.30673e-192
1.72517e-193
1.31253e-194
1.02015e-195
8.12128e-197
6.7135e-198
6.36144e-199
7.04269e-200
7.71983e-201
6.30464e-202
3.13065e-203
1.19278e-204
1.06512e-205
1.38749e-206
1.46791e-207
1.00053e-208
2.56945e-210
1.93906e-212
7.92883e-173
2.20143e-173
6.26988e-174
2.16551e-174
1.01436e-174
5.45e-175
3.07834e-175
1.82581e-175
9.60902e-176
3.9732e-176
1.28196e-176
2.55252e-177
3.29101e-178
4.25375e-179
4.59675e-180
3.46602e-181
2.1233e-182
1.1286e-183
5.43531e-185
2.71628e-186
1.48779e-187
9.78696e-189
7.81324e-190
5.60873e-191
3.62659e-192
2.71959e-193
2.10739e-194
1.6806e-195
1.39439e-196
1.18939e-197
1.02361e-198
9.14469e-200
9.38439e-201
1.07262e-201
1.21888e-202
9.61204e-204
2.5467e-205
7.92461e-207
1.06931e-207
1.84903e-208
2.33398e-209
1.6257e-210
4.05899e-212
3.33845e-214
2.30925e-174
6.16068e-175
1.82243e-175
6.89187e-176
3.2805e-176
1.71916e-176
9.53046e-177
5.21824e-177
2.33153e-177
8.26139e-178
2.30201e-178
4.24463e-179
5.48232e-180
7.31567e-181
8.17231e-182
6.30057e-183
3.78877e-184
1.89763e-185
8.36759e-187
3.66062e-188
1.69867e-189
9.35088e-191
6.0883e-192
4.07334e-193
2.64651e-194
2.02889e-195
1.61829e-196
1.33113e-197
1.17112e-198
1.06053e-199
9.68976e-201
9.38897e-202
1.03996e-202
1.20428e-203
1.81412e-204
1.39637e-205
2.52614e-207
8.08992e-209
1.26197e-209
2.53579e-210
3.50291e-211
2.3739e-212
5.75331e-214
5.22404e-216
2.68421e-175
6.78788e-176
1.8231e-176
5.77437e-177
2.33738e-177
1.12394e-177
5.82313e-178
3.16524e-178
1.56288e-178
6.17962e-179
1.93852e-179
4.84009e-180
8.18827e-181
1.03638e-181
1.363e-182
1.50458e-183
1.13932e-184
6.47886e-186
2.9511e-187
1.14558e-188
4.22531e-190
1.61889e-191
7.3055e-193
4.31555e-194
2.90162e-195
1.95228e-196
1.49503e-197
1.16816e-198
9.33624e-200
7.97203e-201
7.01989e-202
6.40206e-203
6.59508e-204
7.79864e-205
9.05561e-206
2.3511e-206
1.73626e-207
3.07592e-209
1.03647e-210
1.62694e-211
3.40677e-212
4.74951e-213
3.07383e-214
7.19619e-216
7.15542e-218
8.00257e-177
1.98228e-177
5.50297e-178
1.86777e-178
7.91289e-179
3.82115e-179
1.94937e-179
1.01869e-179
4.5002e-180
1.60762e-180
4.51226e-181
1.00592e-181
1.5639e-182
1.89768e-183
2.37194e-184
2.47807e-185
1.76552e-186
9.17422e-188
3.70955e-189
1.25016e-190
3.92099e-192
1.29325e-193
5.47478e-195
3.36626e-196
2.38617e-197
1.63426e-198
1.21443e-199
8.94203e-201
6.57389e-202
5.05461e-203
3.97661e-204
3.30652e-205
3.30057e-206
3.91465e-207
6.05344e-208
2.42942e-208
1.88768e-209
4.13604e-211
1.41923e-212
2.05092e-213
4.20222e-214
5.70551e-215
3.50141e-216
7.89997e-218
7.82708e-220
2.30863e-178
5.67515e-179
1.6428e-179
5.86251e-180
2.54012e-180
1.2133e-180
5.97893e-181
2.90142e-181
1.15661e-181
3.70538e-182
9.24552e-183
1.78645e-183
2.48669e-184
2.80892e-185
3.23199e-186
3.10141e-187
2.02283e-188
9.48864e-190
3.4455e-191
1.05973e-192
3.14646e-194
1.06101e-195
4.92781e-197
3.31854e-198
2.34126e-199
1.53329e-200
1.06483e-201
7.40276e-203
5.03603e-204
3.49504e-205
2.43795e-206
1.78737e-207
1.60524e-208
1.81602e-209
3.85902e-210
2.20271e-210
6.18205e-180
1.52065e-180
4.60004e-181
1.6849e-181
7.31972e-182
3.3911e-182
1.57201e-182
6.87134e-183
2.46018e-183
6.93114e-184
1.51437e-184
2.50195e-185
3.01853e-186
3.03432e-187
3.11302e-188
2.71462e-189
1.65974e-190
7.49159e-192
2.72462e-193
8.78864e-195
2.82539e-196
1.04366e-197
5.11368e-199
3.34767e-200
2.2124e-201
1.36455e-202
8.84933e-204
5.91044e-205
3.83538e-206
2.50702e-207
1.63337e-208
1.11376e-209
9.33771e-211
1.03106e-211
2.77362e-212
1.2579e-181
3.13361e-182
1.00737e-182
3.69667e-183
1.60677e-183
7.16184e-184
3.04255e-184
1.1919e-184
3.82899e-185
9.31849e-186
1.77608e-186
2.52261e-187
2.65342e-188
2.41804e-189
2.26997e-190
1.8678e-191
1.13487e-192
5.35511e-194
2.08883e-195
7.24201e-197
2.45791e-198
9.21059e-200
4.34552e-201
2.63117e-202
1.60113e-203
9.2269e-205
5.60033e-206
3.62554e-207
2.29154e-208
1.46251e-209
9.35072e-211
6.29776e-212
5.24402e-213
5.86326e-214
1.89814e-214
1.31246e-183
3.2287e-184
1.21529e-184
3.94569e-185
1.69912e-185
7.23478e-186
2.78934e-186
9.8531e-187
2.83917e-187
5.96602e-188
1.00042e-188
1.232e-189
1.15464e-190
9.9046e-192
8.86773e-193
7.46455e-194
4.61355e-195
2.24661e-196
8.98469e-198
3.15777e-199
1.07071e-200
3.9147e-202
1.76248e-203
9.92869e-205
5.54438e-206
2.98059e-207
1.70107e-208
1.07784e-209
6.7026e-211
4.24661e-212
2.7212e-213
1.85772e-214
1.58218e-215
1.86306e-216
7.14639e-217
5.24264e-169
9.9237e-170
2.85937e-170
1.27842e-170
7.27427e-171
4.98598e-171
3.52088e-171
2.14143e-171
1.24395e-171
8.07902e-172
4.47136e-172
1.60374e-172
3.58752e-173
5.71057e-174
7.25865e-175
7.92256e-176
7.62248e-177
6.37572e-178
5.00618e-179
4.00083e-180
3.26827e-181
2.64985e-182
1.98357e-183
1.32339e-184
7.82756e-186
4.31348e-187
2.3763e-188
1.40886e-189
1.0052e-190
7.3146e-192
5.4114e-193
4.43222e-194
3.29935e-195
2.47041e-196
2.12004e-197
2.43761e-198
2.8308e-199
3.13526e-200
3.20248e-201
2.55569e-202
1.64285e-203
8.38377e-205
2.46443e-206
2.85323e-208
8.0852e-170
4.0969e-170
1.54198e-170
4.27842e-171
1.60524e-171
8.98288e-172
5.54564e-172
3.43907e-172
2.2895e-172
1.58988e-172
8.68761e-173
2.84046e-173
5.39839e-174
7.85966e-175
9.23495e-176
7.91452e-177
5.32544e-178
3.1706e-179
1.8759e-180
1.17381e-181
7.84941e-183
5.75034e-184
4.98394e-185
4.17975e-186
2.80436e-187
1.67848e-188
9.4724e-190
5.8537e-191
3.9863e-192
2.81521e-193
2.05193e-194
1.55296e-195
1.33526e-196
1.3786e-197
1.50448e-198
1.63842e-199
1.66902e-200
1.49061e-201
1.19846e-202
8.42418e-204
5.74614e-205
3.33861e-206
8.85327e-208
8.44482e-210
4.00777e-170
1.28041e-170
4.60972e-171
1.44081e-171
4.35188e-172
1.86259e-172
1.04399e-172
6.12525e-173
3.79272e-173
2.51271e-173
1.49706e-173
6.48663e-174
1.61046e-174
2.40057e-175
3.01853e-176
3.02986e-177
2.27647e-178
1.42767e-179
7.73485e-181
3.86146e-182
2.03642e-183
1.25698e-184
9.45443e-186
8.64746e-187
7.12296e-188
4.58504e-189
2.85236e-190
1.82631e-191
1.22028e-192
8.54345e-194
6.14816e-195
4.53714e-196
3.68821e-197
3.59754e-198
4.17735e-199
5.0584e-200
5.75734e-201
4.9659e-202
3.12966e-203
1.88135e-204
1.55305e-205
1.15072e-206
6.60674e-208
1.66915e-209
1.37227e-211
2.51684e-171
7.8588e-172
2.53398e-172
7.61424e-173
2.55571e-173
1.17037e-173
6.29825e-174
3.5508e-174
2.16316e-174
1.26395e-174
5.89942e-175
2.03847e-175
4.20324e-176
5.50068e-177
6.72116e-178
6.74455e-179
4.98627e-180
2.98111e-181
1.49375e-182
6.78207e-184
3.3274e-185
1.92997e-186
1.38099e-187
1.22286e-188
9.47774e-190
5.81496e-191
3.64971e-192
2.43436e-193
1.71239e-194
1.26487e-195
9.66768e-197
7.54891e-198
6.35379e-199
6.65373e-200
8.75232e-201
1.18243e-201
1.13331e-202
6.114e-204
2.72957e-205
2.25683e-206
2.29261e-207
2.01745e-208
1.25588e-209
3.04609e-211
2.04674e-213
3.3436e-173
9.74079e-174
2.87636e-174
1.03426e-174
4.75775e-175
2.43751e-175
1.32356e-175
7.50148e-176
3.63302e-176
1.36969e-176
3.93512e-177
7.17027e-178
9.09963e-179
1.15872e-179
1.23529e-180
9.55586e-182
5.78091e-183
2.8301e-184
1.22998e-185
5.63481e-187
2.97866e-188
1.93244e-189
1.52842e-190
1.04713e-191
5.96425e-193
3.83437e-194
2.63369e-195
1.93635e-196
1.52723e-197
1.24708e-198
1.02517e-199
9.08655e-201
1.02059e-201
1.41357e-202
2.01725e-203
1.69773e-204
4.85028e-206
2.15353e-207
2.50407e-208
3.34987e-209
3.61841e-210
2.33994e-211
5.57483e-213
4.26347e-215
1.18326e-174
3.28647e-175
9.98629e-176
3.78301e-176
1.72678e-176
8.57539e-177
4.4935e-177
2.29055e-177
9.48665e-178
3.08744e-178
7.73562e-179
1.33422e-179
1.71365e-180
2.26505e-181
2.53848e-182
2.03665e-183
1.2334e-184
5.87334e-186
2.40923e-187
9.90103e-189
4.49811e-190
2.47416e-191
1.64447e-192
1.02061e-193
5.8312e-195
3.74314e-196
2.57871e-197
1.90319e-198
1.51493e-199
1.25513e-200
1.0496e-201
9.74701e-203
1.16036e-203
1.63933e-204
3.11326e-205
2.23526e-206
5.02971e-208
2.47166e-209
3.37856e-210
5.3182e-211
6.33354e-212
4.00356e-213
9.44378e-215
8.41441e-217
1.54796e-175
4.03149e-176
1.11891e-176
3.58802e-177
1.42416e-177
6.52091e-178
3.1993e-178