/*--------------------------------*- C++ -*----------------------------------*\
| =========                 |                                                 |
| \\      /  F ield         | OpenFOAM: The Open Source CFD Toolbox           |
|  \\    /   O peration     | Version:  2.3.1                                 |
|   \\  /    A nd           | Web:      www.OpenFOAM.org                      |
|    \\/     M anipulation  |                                                 |
\*---------------------------------------------------------------------------*/
FoamFile
{
    version     2.0;
    format      ascii;
    class       volScalarField;
    location    "20";
    object      Sed_0;
}
// * * * * * * * * * * * * * * * * * * * * * * * * * * * * * * * * * * * * * //

dimensions      [0 0 0 0 0 0 0];

internalField   nonuniform List<scalar> 
38152
(
2.60607e-167
1.17018e-167
6.10432e-168
3.27348e-168
1.59505e-168
8.43083e-169
5.80923e-169
3.97665e-169
2.22019e-169
1.13309e-169
5.97756e-170
2.70007e-170
8.68024e-171
1.88144e-171
2.91315e-172
3.56522e-173
3.78481e-174
3.65914e-175
3.36142e-176
2.93325e-177
2.39106e-178
1.86425e-179
1.37287e-180
9.5599e-182
7.12885e-183
6.11655e-184
5.66238e-185
5.39495e-186
5.19096e-187
4.76615e-188
4.11583e-189
3.50662e-190
2.83717e-191
2.13216e-192
1.60389e-193
1.19746e-194
8.66765e-196
6.76137e-197
5.44287e-198
3.85433e-199
2.33921e-200
1.15377e-201
3.57823e-203
4.65893e-205
1.19192e-167
7.09572e-168
3.12539e-168
7.95499e-169
1.30479e-169
3.16825e-170
1.66266e-170
9.35002e-171
4.7399e-171
2.86641e-171
2.66216e-171
2.47827e-171
7.7129e-172
1.10879e-172
1.10122e-173
7.03729e-175
2.91849e-176
1.55455e-177
1.15147e-178
9.13393e-180
7.25168e-181
5.8454e-182
4.65739e-183
3.6499e-184
3.05928e-185
2.83902e-186
2.72995e-187
2.62356e-188
4.32638e-189
4.08453e-190
2.86049e-191
2.07223e-192
1.50464e-193
1.08053e-194
8.12628e-196
6.28693e-197
4.43994e-198
2.97655e-199
5.01488e-200
5.12131e-201
4.46307e-202
3.64526e-203
1.1682e-204
1.24905e-206
6.14972e-168
2.66932e-168
6.21479e-169
8.76685e-170
8.33082e-171
1.33767e-171
5.08106e-172
2.78448e-172
1.62777e-172
1.10366e-172
9.64349e-173
1.07025e-172
5.80127e-173
9.16407e-174
9.33557e-175
7.93866e-176
3.27463e-177
8.23413e-179
4.56153e-180
3.29328e-181
2.58215e-182
2.08843e-183
1.7573e-184
1.53681e-185
1.9214e-186
2.28061e-187
2.86381e-188
2.78977e-189
2.1219e-190
2.72025e-191
2.59703e-192
1.51133e-193
1.00666e-194
7.11218e-196
5.36296e-197
4.19525e-198
2.71476e-199
1.211e-200
5.47115e-202
2.4342e-202
6.55531e-203
7.71294e-204
6.36912e-205
1.68445e-206
1.53397e-208
4.33201e-169
9.23994e-170
1.01149e-170
6.84425e-172
4.22972e-173
1.25475e-173
6.48245e-174
3.97375e-174
2.62122e-174
1.78863e-174
1.16405e-174
7.82039e-175
3.62107e-175
4.67134e-176
5.06724e-177
4.48736e-178
1.66863e-179
4.9835e-181
2.81202e-182
1.92925e-183
1.51201e-184
1.32759e-185
1.30967e-186
1.41064e-187
1.86014e-188
2.312e-189
2.93994e-190
2.48941e-191
1.77248e-192
2.4771e-193
2.20744e-194
1.02346e-195
6.57766e-197
4.11358e-198
2.91251e-199
2.04079e-200
9.4295e-202
2.00433e-203
6.71493e-205
2.14211e-204
7.85904e-205
1.10042e-205
8.6361e-207
1.8954e-208
1.50534e-210
1.41861e-171
5.41183e-173
2.21925e-174
3.58079e-175
1.58034e-175
9.00052e-176
5.85272e-176
3.6971e-176
2.10593e-176
9.93609e-177
4.31878e-177
1.37842e-177
1.81924e-178
2.68525e-179
3.06463e-180
1.43703e-181
5.87579e-183
3.59253e-184
2.49981e-185
1.97664e-186
1.75132e-187
1.76967e-188
2.03213e-189
2.70602e-190
3.37054e-191
4.13427e-192
3.35148e-193
2.39287e-194
2.82463e-195
1.98213e-196
9.42322e-198
7.42029e-199
3.53727e-200
1.99955e-201
1.47011e-202
8.66251e-204
1.33578e-205
2.63386e-207
1.71028e-206
7.89424e-207
1.23242e-207
8.90067e-209
1.75663e-210
1.48177e-212
7.78119e-174
1.97699e-175
1.46952e-176
4.96996e-177
2.54602e-177
1.47565e-177
9.32733e-178
5.30373e-178
2.38244e-178
9.18684e-179
3.54551e-179
1.04347e-179
1.42866e-180
2.48098e-181
3.20021e-182
1.78078e-183
8.76017e-185
5.65259e-186
4.01193e-187
3.19313e-188
2.83223e-189
2.95311e-190
3.6265e-191
4.85637e-192
5.37558e-193
5.30462e-194
3.62482e-195
2.27874e-196
2.13309e-197
1.19503e-198
5.65725e-200
4.22372e-201
1.87224e-202
9.50163e-204
1.02346e-204
8.6805e-206
1.31699e-207
2.07013e-209
1.33649e-208
6.25059e-209
1.02235e-209
6.81987e-211
1.18059e-212
9.75762e-215
1.03809e-174
4.37891e-176
1.57429e-177
2.33018e-178
9.08669e-179
5.12404e-179
2.74797e-179
1.80857e-179
9.37836e-180
4.05688e-180
1.51648e-180
5.04555e-181
1.13913e-181
1.55237e-182
2.97302e-183
4.19572e-184
2.6467e-185
1.4714e-186
9.94624e-188
7.25158e-189
5.86045e-190
5.31127e-191
5.83835e-192
7.15095e-193
7.07134e-194
4.54337e-195
2.57129e-196
1.20077e-197
6.54945e-199
5.79355e-200
2.67399e-201
1.02829e-202
6.91452e-204
3.90024e-205
2.15391e-206
8.79335e-207
9.40044e-208
1.12667e-209
1.75984e-211
9.25044e-211
3.97934e-211
6.46163e-212
3.98984e-213
5.74231e-215
4.61739e-217
9.06521e-177
3.91093e-178
2.18334e-179
5.22533e-180
2.32554e-180
1.35122e-180
6.95887e-181
4.67868e-181
2.11648e-181
8.87003e-182
3.01705e-182
8.52923e-183
1.57452e-183
2.1295e-184
4.35295e-185
6.4745e-186
4.4503e-187
2.68998e-188
1.88896e-189
1.42305e-190
1.17227e-191
1.08704e-192
1.17082e-193
1.0464e-194
5.03426e-196
1.43179e-197
3.87397e-199
9.4537e-201
5.28269e-202
4.72082e-203
2.30696e-204
1.05581e-205
8.3667e-207
5.9735e-208
9.61909e-209
8.26318e-209
8.71405e-210
8.16413e-212
1.28363e-213
5.17977e-213
1.98157e-213
3.12874e-214
1.79695e-215
2.23283e-217
1.77587e-219
1.19185e-178
3.68336e-180
4.50408e-181
1.24943e-181
6.32079e-182
3.83662e-182
1.89927e-182
1.30201e-182
5.27066e-183
2.15463e-183
6.43217e-184
1.59954e-184
2.51224e-185
3.4399e-186
7.44088e-187
1.147e-187
8.27209e-189
5.24816e-190
3.75974e-191
2.83177e-192
2.27616e-193
1.93387e-194
1.57494e-195
8.09712e-197
2.01915e-198
3.15853e-200
3.72997e-202
7.58631e-204
4.30338e-205
3.73589e-206
1.93059e-207
1.06626e-208
9.79154e-210
8.29591e-211
4.19911e-211
5.7162e-211
1.63435e-180
2.50824e-182
9.19836e-183
2.52315e-183
1.48003e-183
9.77558e-184
4.71535e-184
3.34221e-184
1.26209e-184
5.15602e-185
1.36159e-185
3.09241e-186
4.27208e-187
5.99951e-188
1.34783e-188
2.09058e-189
1.49755e-190
9.32512e-192
6.26059e-193
4.28785e-194
3.03766e-195
2.09962e-196
1.17239e-197
3.66996e-199
5.32941e-201
4.79162e-203
3.05819e-205
7.09706e-207
4.33462e-208
3.64294e-209
2.20866e-210
1.53791e-211
1.47847e-212
1.47044e-213
1.3397e-213
1.9472e-182
1.73558e-184
1.42241e-184
3.37934e-185
2.20388e-185
1.65934e-185
8.46296e-186
5.75163e-186
2.24946e-186
9.2894e-187
2.14551e-187
4.67485e-188
5.73908e-189
8.36356e-190
1.89259e-190
2.81543e-191
1.87186e-192
1.05868e-193
6.19106e-195
3.65789e-196
2.18472e-197
1.19754e-198
4.75514e-200
9.81376e-202
9.63046e-204
5.95646e-206
2.8655e-208
9.1026e-210
6.24467e-211
5.12587e-212
3.71375e-213
3.02025e-214
2.9749e-215
3.24608e-216
3.03793e-216
4.16856e-185
1.28242e-186
6.8829e-187
2.77183e-187
1.40921e-187
1.28732e-187
7.86251e-188
3.85188e-188
1.90717e-188
8.16444e-189
1.44951e-189
3.58286e-190
3.61994e-191
5.83912e-192
1.26731e-192
1.76621e-193
1.04554e-194
5.22273e-196
2.6407e-197
1.34801e-198
6.78771e-200
2.98541e-201
8.97911e-203
1.39203e-204
1.04631e-206
5.11567e-209
2.66867e-211
1.14048e-212
8.30035e-214
6.71754e-215
5.22157e-216
4.4324e-217
4.38021e-218
5.00615e-219
4.12545e-219
7.75682e-168
2.75546e-168
1.39306e-168
7.61243e-169
3.80873e-169
2.13799e-169
1.63413e-169
1.32821e-169
8.2985e-170
4.48523e-170
2.47643e-170
1.16075e-170
3.62305e-171
7.28791e-172
1.05906e-172
1.24994e-173
1.30692e-174
1.25086e-175
1.11518e-176
9.42049e-178
7.55058e-179
5.87724e-180
4.4436e-181
3.30809e-182
2.5748e-183
2.13464e-184
1.83891e-185
1.59357e-186
1.34257e-187
1.05912e-188
8.00731e-190
6.07696e-191
4.65458e-192
3.54411e-193
2.81393e-194
2.32215e-195
1.88452e-196
1.57571e-197
1.32435e-198
9.70913e-200
6.10617e-201
3.18184e-202
1.06525e-203
1.51965e-205
3.50243e-168
2.23458e-168
1.10653e-168
2.64243e-169
5.02049e-170
1.84384e-170
1.19383e-170
7.71384e-171
4.34852e-171
2.69781e-171
2.30435e-171
1.36995e-171
3.37489e-172
5.01929e-173
5.67101e-174
4.50235e-175
2.8459e-176
1.9015e-177
1.43663e-178
1.1426e-179
8.81648e-181
6.64363e-182
5.01811e-183
3.91237e-184
3.19389e-185
2.95385e-186
3.00306e-187
2.82403e-188
2.31215e-189
1.67461e-190
1.19208e-191
8.65524e-193
6.70573e-194
5.38339e-195
4.41114e-196
3.61193e-197
2.78926e-198
1.9394e-199
1.53672e-200
1.45213e-201
1.37684e-202
1.10244e-203
3.736e-205
4.39049e-207
2.14391e-168
8.35587e-169
1.86125e-169
3.67195e-170
7.5916e-171
2.08408e-171
1.04262e-171
6.44903e-172
3.77427e-172
2.21375e-172
1.52381e-172
1.16422e-172
4.64557e-173
7.9028e-174
1.01124e-174
1.03595e-175
6.59542e-177
3.64349e-178
2.2812e-179
1.51846e-180
1.16194e-181
8.68445e-183
6.4465e-184
5.85541e-185
5.19552e-186
4.46006e-187
4.18264e-188
3.93091e-189
3.36519e-190
2.71085e-191
2.04683e-192
1.48778e-193
1.12596e-194
9.30142e-196
8.05098e-197
6.57357e-198
4.49303e-199
2.6181e-200
1.23979e-201
8.62984e-203
1.94749e-203
2.58863e-204
2.06506e-205
5.8635e-207
5.94938e-209
9.68998e-170
2.06579e-170
3.69075e-171
7.27534e-172
1.68297e-172
6.20509e-173
3.40077e-173
1.99599e-173
1.16127e-173
7.03388e-174
4.22092e-174
2.304e-174
7.49302e-175
1.09443e-175
1.39616e-176
1.43324e-177
8.77347e-179
4.61461e-180
2.72996e-181
1.70631e-182
1.21725e-183
8.99846e-185
7.02775e-186
6.64901e-187
5.98374e-188
4.9433e-189
4.39238e-190
3.70279e-191
2.90319e-192
2.40304e-193
1.94615e-194
1.57113e-195
1.32398e-196
1.16175e-197
1.02673e-198
7.53001e-200
3.87141e-201
1.27453e-202
3.85745e-204
8.08911e-205
2.56469e-205
3.98869e-206
3.0427e-207
7.5106e-209
6.67571e-211
4.29173e-172
5.5638e-173
1.08682e-173
3.01029e-174
1.33846e-174
7.47365e-175
4.39297e-175
2.63584e-175
1.49989e-175
7.26918e-176
2.97343e-176
7.87005e-177
1.07618e-177
1.48416e-178
1.64965e-179
1.06732e-180
5.78749e-182
3.4009e-183
2.07822e-184
1.42309e-185
1.02563e-186
8.0023e-188
7.35169e-189
5.89907e-190
4.09953e-191
3.15839e-192
2.27431e-193
1.81313e-194
1.63037e-195
1.512e-196
1.39496e-197
1.30648e-198
1.22159e-199
1.06522e-200
7.80334e-202
4.50641e-203
8.42615e-205
1.62863e-206
6.95327e-207
2.88286e-207
5.00591e-208
3.64365e-209
8.42852e-211
7.89647e-213
5.30661e-174
7.28455e-175
1.61187e-175
5.51446e-176
2.6965e-176
1.50954e-176
9.01811e-177
5.26686e-177
2.59015e-177
1.04425e-177
3.57494e-178
8.51302e-179
1.16631e-179
1.735e-180
2.03887e-181
1.38199e-182
7.64968e-184
4.43126e-185
2.63434e-186
1.71199e-187
1.15651e-188
8.2762e-190
5.97063e-191
3.16306e-192
1.44542e-193
1.02648e-194
8.23328e-196
7.76417e-197
8.35478e-198
9.18855e-199
9.6457e-200
9.99691e-201
9.98765e-202
8.41317e-203
8.004e-204
5.61042e-205
9.44344e-207
1.26328e-208
6.33294e-209
2.81447e-209
5.12125e-210
3.5358e-211
7.62296e-213
7.14093e-215
4.95885e-175
6.82147e-176
1.04874e-176
2.80172e-177
1.12057e-177
5.77362e-178
3.2408e-178
1.94733e-178
1.03715e-178
4.46113e-179
1.6757e-179
5.21938e-180
1.05292e-180
1.40526e-181
2.13768e-182
2.57235e-183
1.79885e-184
1.00204e-185
5.62629e-187
3.20745e-188
1.94257e-189
1.15637e-190
6.2553e-192
2.38046e-193
6.64426e-195
3.37235e-196
2.78935e-197
2.4942e-198
2.69213e-199
3.26516e-200
3.93785e-201
4.52198e-202
5.15612e-203
5.45841e-204
4.26557e-205
8.39361e-206
6.6921e-207
8.89131e-209
1.17194e-210
5.59843e-211
2.42308e-211
4.37089e-212
2.85373e-213
5.61627e-215
5.24412e-217
6.6457e-177
9.06683e-178
1.7e-178
5.31132e-179
2.34071e-179
1.23591e-179
6.90227e-180
4.03249e-180
1.94896e-180
8.0227e-181
2.77242e-181
7.63284e-182
1.33666e-182
1.732e-183
2.62139e-184
3.12176e-185
2.17603e-186
1.18206e-187
6.30823e-189
3.31409e-190
1.73842e-191
8.06824e-193
2.72187e-194
7.42946e-196
2.29053e-197
1.17187e-198
9.5841e-200
8.38421e-201
8.55017e-202
9.75758e-203
1.12394e-203
1.31181e-204
1.57972e-205
1.71553e-206
2.19111e-207
8.30417e-208
6.58911e-209
7.96851e-211
1.07636e-212
4.45251e-213
1.79795e-213
3.13933e-214
1.93465e-215
3.55231e-217
3.25814e-219
9.65478e-179
1.28207e-179
3.06914e-180
1.00281e-180
4.67183e-181
2.44756e-181
1.31539e-181
7.42316e-182
3.34113e-182
1.28129e-182
3.97912e-183
9.66668e-184
1.46853e-184
1.84183e-185
2.72353e-186
3.14015e-187
2.09796e-188
1.05879e-189
5.05033e-191
2.30384e-192
9.92826e-194
3.67067e-195
1.22216e-196
3.82191e-198
1.29961e-199
5.67765e-201
3.83318e-202
3.16193e-203
2.89179e-204
2.87553e-205
2.89555e-206
3.03849e-207
3.48115e-208
3.71142e-209
1.01689e-209
6.14832e-210
1.34421e-180
1.82905e-181
5.45888e-182
1.76748e-182
8.25974e-183
4.10011e-183
2.00053e-183
1.0026e-183
4.25025e-184
1.45987e-184
4.02243e-185
8.78801e-186
1.15375e-186
1.41955e-187
1.9894e-188
2.15036e-189
1.30105e-190
5.79659e-192
2.44051e-193
1.04472e-194
4.57612e-196
1.82496e-197
6.95055e-199
2.34685e-200
7.05505e-202
2.61402e-203
1.5571e-204
1.23508e-205
1.04163e-206
9.30871e-208
8.39757e-209
7.90841e-210
8.32371e-211
8.82216e-212
4.10127e-212
1.56729e-182
2.14185e-183
7.75506e-184
2.35317e-184
1.07297e-184
4.90354e-185
2.09179e-185
8.71776e-186
3.55434e-186
1.02452e-186
2.42029e-187
4.96917e-188
5.36037e-189
6.75407e-190
8.80152e-191
9.14735e-192
5.2338e-193
2.29572e-194
9.9861e-196
4.61406e-197
2.20906e-198
9.63603e-200
3.70599e-201
1.13009e-202
2.9908e-204
9.80909e-206
5.24896e-207
4.04875e-208
3.27601e-209
2.76996e-210
2.36441e-211
2.12359e-212
2.15324e-213
2.33533e-214
1.42756e-214
1.15229e-184
1.4424e-185
6.50867e-186
1.81074e-186
7.45533e-187
3.53413e-187
1.27673e-187
4.15442e-188
1.84067e-188
4.25387e-189
7.86076e-190
1.78915e-190
1.39615e-191
2.03774e-192
2.47896e-193
2.67179e-194
1.52727e-195
6.94962e-197
3.14337e-198
1.49936e-199
7.18591e-201
3.04958e-202
1.08846e-203
2.96873e-205
6.96014e-207
2.07798e-208
1.03517e-209
7.76951e-211
6.16547e-212
5.09027e-213
4.2675e-214
3.78318e-215
3.81561e-216
4.29271e-217
3.05968e-217
2.34341e-168
6.97288e-169
3.38052e-169
1.84103e-169
9.78234e-170
6.3126e-170
5.33134e-170
4.23397e-170
2.6521e-170
1.55568e-170
8.73694e-171
3.77326e-171
1.02622e-171
1.85477e-172
2.55164e-173
2.95196e-174
3.05812e-175
2.86162e-176
2.47054e-177
2.03382e-178
1.61874e-179
1.27025e-180
9.81894e-182
7.47396e-183
5.71911e-184
4.44744e-185
3.45616e-186
2.61342e-187
1.89471e-188
1.33796e-189
9.4466e-191
6.96193e-192
5.30511e-193
4.15672e-194
3.56371e-195
3.21982e-196
2.85169e-197
2.54948e-198
2.23373e-199
1.67382e-200
1.06705e-201
5.63954e-203
1.88037e-204
2.61991e-206
9.40547e-169
6.38421e-169
2.81117e-169
6.66187e-170
1.66824e-170
7.86823e-171
5.29478e-171
3.36282e-171
2.00304e-171
1.41279e-171
1.1389e-171
4.97673e-172
1.05948e-172
1.54389e-173
1.80997e-174
1.54463e-175
1.0977e-176
7.44497e-178
5.09625e-179
3.73613e-180
2.70149e-181
1.91375e-182
1.45705e-183
1.29537e-184
1.08796e-185
9.80691e-187
8.43386e-188
6.12038e-189
4.24226e-190
2.9741e-191
2.09538e-192
1.5422e-193
1.20995e-194
1.0029e-195
8.87475e-197
8.07309e-198
6.82916e-199
5.2033e-200
3.82317e-201
3.10195e-202
2.73223e-203
2.04972e-204
6.71808e-206
7.70576e-208
5.33476e-169
1.8803e-169
5.17094e-170
1.42077e-170
3.52248e-171
1.17229e-171
6.39232e-172
3.96687e-172
2.37061e-172
1.50334e-172
1.05276e-172
6.54691e-173
2.07777e-173
3.38074e-174
4.359e-175
4.56398e-176
3.24147e-177
2.06138e-178
1.29347e-179
7.88841e-181
5.07625e-182
3.45494e-183
2.62554e-184
2.26515e-185
2.04817e-186
1.68852e-187
1.45863e-188
1.20078e-189
9.19514e-191
6.78968e-192
4.97189e-193
3.65248e-194
2.80349e-195
2.34496e-196
2.12162e-197
1.98209e-198
1.66813e-199
1.13402e-200
6.19759e-202
3.41627e-203
4.67873e-204
5.32108e-205
3.92897e-206
1.12511e-207
1.11117e-209
2.3735e-170
6.69813e-171
1.71906e-171
4.55549e-172
1.26251e-172
5.20825e-173
2.92844e-173
1.71945e-173
1.03592e-173
6.50295e-174
3.73497e-174
1.69598e-174
4.48776e-175
6.28066e-176
7.89234e-177
8.15833e-178
5.62153e-179
3.3825e-180
1.97338e-181
1.11505e-182
6.67766e-184
4.36185e-185
3.29933e-186
2.86557e-187
2.43441e-188
1.85745e-189
1.52625e-190
1.23813e-191
1.00027e-192
7.87818e-194
6.24025e-195
5.02969e-196
4.18143e-197
3.78021e-198
3.64511e-199
3.28143e-200
2.23312e-201
9.57634e-203
3.16544e-204
3.43421e-205
6.47851e-206
8.57918e-207
6.29448e-208
1.64247e-209
1.37627e-211
1.80908e-172
4.13392e-173
1.06763e-173
3.39135e-174
1.56606e-174
8.68746e-175
5.02902e-175
3.03553e-175
1.70849e-175
7.79194e-176
2.80995e-176
6.28272e-177
8.26473e-178
1.08523e-178
1.18285e-179
8.4772e-181
5.10734e-182
2.87459e-183
1.53106e-184
8.43978e-186
5.04501e-187
3.49925e-188
2.75721e-189
1.98334e-190
1.31982e-191
1.11014e-192
9.58049e-194
8.26174e-195
7.17245e-196
6.36305e-197
5.67544e-198
5.14739e-199
5.04847e-200
4.92753e-201
4.4611e-202
3.1503e-203
7.52377e-205
1.75601e-206
3.17152e-207
7.98761e-208
1.21682e-208
8.87285e-210
2.2179e-211
1.96315e-213
3.92293e-174
8.83832e-175
2.39696e-175
8.71049e-176
4.22308e-176
2.30482e-176
1.33341e-176
7.68579e-177
3.71899e-177
1.43392e-177
4.42044e-178
8.98112e-179
1.1737e-179
1.60208e-180
1.80205e-181
1.31932e-182
7.7747e-184
4.10593e-185
1.98566e-186
9.48263e-188
4.69373e-189
2.56555e-190
1.48213e-191
9.55683e-193
6.4421e-194
5.95546e-195
5.57534e-196
5.24238e-197
5.04542e-198
4.96519e-199
4.84822e-200
4.83738e-201
5.14832e-202
5.00064e-203
5.9098e-204
4.5573e-205
8.33064e-207
1.59019e-208
3.29975e-209
9.40603e-210
1.53436e-210
1.07914e-211
2.57309e-213
2.37896e-215
4.10929e-175
8.66383e-176
2.0136e-176
6.00625e-177
2.4166e-177
1.2036e-177
6.5304e-178
3.76238e-178
1.98392e-178
8.36006e-179
2.84136e-179
7.8958e-180
1.42376e-180
1.80246e-181
2.43389e-182
2.7035e-183
1.9422e-184
1.07655e-185
5.08781e-187
2.10675e-188
8.12395e-190
3.00288e-191
1.10866e-192
5.57532e-194
3.74655e-195
2.95454e-196
3.01006e-197
2.91799e-198
2.7972e-199
2.73578e-200
2.75992e-201
2.84108e-202
3.10853e-203
3.56639e-204
3.39946e-205
7.33376e-206
5.83767e-207
8.99125e-209
1.79475e-210
3.59127e-211
1.04368e-211
1.70068e-212
1.13794e-213
2.56622e-215
2.48766e-217
9.20516e-177
1.91495e-177
4.78494e-178
1.57863e-178
6.77969e-179
3.40129e-179
1.81503e-179
1.00762e-179
4.71012e-180
1.77065e-180
5.38509e-181
1.33041e-181
2.1377e-182
2.57129e-183
3.30691e-184
3.46096e-185
2.3137e-186
1.14082e-187
4.53953e-189
1.5081e-190
4.42016e-192
1.19647e-193
4.10993e-195
2.36932e-196
1.98914e-197
1.74272e-198
1.74889e-199
1.603e-200
1.41293e-201
1.26176e-202
1.17095e-203
1.15506e-204
1.29909e-205
1.54284e-206
2.11954e-207
7.71548e-208
6.11501e-209
1.00793e-210
2.1122e-212
3.7297e-213
1.04418e-213
1.64808e-214
1.04394e-215
2.24713e-217
2.16627e-219
2.01768e-178
4.23877e-179
1.1391e-179
4.02116e-180
1.77165e-180
8.75458e-181
4.47128e-181
2.28659e-181
9.39365e-182
3.1092e-182
8.25163e-183
1.75096e-183
2.44329e-184
2.7028e-185
3.15792e-186
2.96196e-187
1.73521e-188
7.18286e-190
2.33696e-191
6.42417e-193
1.71331e-194
5.15308e-196
2.38198e-197
1.73572e-198
1.52062e-199
1.24903e-200
1.12803e-201
9.65378e-203
7.74475e-204
6.15731e-205
5.00321e-206
4.37326e-207
4.54851e-208
5.26611e-209
1.18007e-209
6.39417e-210
4.25547e-180
9.01104e-181
2.56692e-181
9.33074e-182
4.04161e-182
1.89436e-182
8.8532e-183
3.96085e-183
1.41662e-183
3.96183e-184
8.94903e-185
1.51561e-185
1.73939e-186
1.69794e-187
1.70927e-188
1.40681e-189
7.26937e-191
2.76605e-192
9.05768e-194
2.83832e-195
9.46111e-197
3.62698e-198
1.99071e-199
1.46207e-200
1.16126e-201
8.72077e-203
7.12366e-204
5.78858e-205
4.37519e-206
3.23078e-207
2.40405e-208
1.92199e-209
1.85344e-210
2.10332e-211
6.59976e-212
7.1336e-182
1.52506e-182
4.72345e-183
1.68126e-183
7.0424e-184
3.04916e-184
1.26264e-184
4.91217e-185
1.48571e-185
3.41509e-186
6.51354e-187
8.5907e-188
8.32359e-189
7.13849e-190
6.53277e-191
5.37161e-192
2.91812e-193
1.24653e-194
4.73649e-196
1.72669e-197
6.55386e-199
2.73714e-200
1.47208e-201
9.86917e-203
7.00864e-204
4.79679e-205
3.58092e-206
2.79428e-207
2.03655e-208
1.45425e-209
1.05007e-210
8.18574e-212
7.75221e-213
8.91859e-214
3.49523e-214
7.26412e-184
1.32658e-184
5.24199e-185
1.51787e-185
6.2723e-186
2.59159e-186
8.95279e-187
3.12344e-187
8.5538e-188
1.54801e-188
2.53283e-189
3.11261e-190
2.38603e-191
2.16485e-192
1.89348e-193
1.6456e-194
9.41965e-196
4.32845e-197
1.75824e-198
6.69994e-200
2.59158e-201
1.07045e-202
5.44135e-204
3.33624e-205
2.13872e-206
1.34406e-207
9.3131e-209
7.06713e-210
5.02639e-211
3.53475e-212
2.53621e-213
1.98878e-214
1.91101e-215
2.27607e-216
1.08376e-216
9.72384e-169
2.27251e-169
8.88922e-170
4.59381e-170
2.62914e-170
1.88639e-170
1.55607e-170
1.11781e-170
6.79212e-171
4.01174e-171
2.25267e-171
8.87805e-172
2.15095e-172
3.60082e-173
4.73399e-174
5.31804e-175
5.34252e-176
4.76411e-177
3.93298e-178
3.18294e-179
2.56096e-180
2.06156e-181
1.59562e-182
1.17712e-183
8.26646e-185
5.62739e-186
3.7199e-187
2.40611e-188
1.62261e-189
1.12226e-190
7.94868e-192
6.10349e-193
4.69039e-194
3.66112e-195
3.27882e-196
3.31223e-197
3.25483e-198
3.15238e-199
2.93084e-200
2.25571e-201
1.44535e-202
7.56311e-204
2.40116e-205
3.08352e-207
2.5761e-169
1.63875e-169
6.66926e-170
1.69014e-170
5.31783e-171
2.8627e-171
1.87837e-171
1.16176e-171
7.49648e-172
5.70272e-172
3.63621e-172
1.31097e-172
2.58006e-173
3.75677e-174
4.46793e-175
3.9e-176
2.76715e-177
1.80547e-178
1.14271e-179
7.68337e-181
5.15923e-182
3.6588e-183
3.19609e-184
2.82691e-185
2.27338e-186
1.73581e-187
1.16498e-188
7.28565e-190
4.90551e-191
3.40157e-192
2.43235e-193
1.82815e-194
1.43479e-195
1.34225e-196
1.39916e-197
1.33047e-198
1.20736e-199
9.86003e-201
7.49592e-202
5.57258e-203
4.30682e-204
2.87615e-205
8.59675e-207
9.07181e-209
1.31749e-169
4.62438e-170
1.5606e-170
4.77255e-171
1.30816e-171
5.06484e-172
2.86134e-172
1.73659e-172
1.06003e-172
7.08176e-173
4.65251e-173
2.3534e-173
6.4613e-174
1.00079e-174
1.28375e-175
1.33549e-176
9.95647e-178
6.42249e-179
3.84802e-180
2.14095e-181
1.25501e-182
7.88537e-184
5.83623e-185
5.36738e-186
4.7162e-187
3.597e-188
2.68313e-189
1.89778e-190
1.33073e-191
9.47045e-193
6.83342e-194
5.05091e-195
3.89848e-196
3.44206e-197
3.52996e-198
3.73105e-199
3.59843e-200
2.77096e-201
1.6526e-202
9.39372e-204
9.41924e-205
8.51323e-206
5.57519e-207
1.51915e-208
1.38168e-210
7.13934e-171
2.27735e-171
6.97848e-172
2.02877e-172
6.29516e-173
2.79896e-173
1.5593e-173
9.01609e-174
5.54127e-174
3.42164e-174
1.76993e-174
6.9391e-175
1.58838e-175
2.13677e-176
2.65441e-177
2.72515e-178
1.97971e-179
1.21138e-180
6.6969e-182
3.41858e-183
1.85519e-184
1.11144e-185
8.01037e-187
7.1271e-188
5.85974e-189
4.12159e-190
3.02738e-191
2.24235e-192
1.67649e-193
1.27509e-194
9.90757e-196
7.88525e-197
6.51717e-198
6.17464e-199
6.83481e-200
7.48973e-201
6.11313e-202
3.03332e-203
1.1566e-204
1.03328e-205
1.34439e-206
1.42114e-207
9.66961e-209
2.47849e-210
1.86793e-212
7.85558e-173
2.18005e-173
6.20969e-174
2.14783e-174
1.00695e-174
5.40977e-175
3.05518e-175
1.81189e-175
9.52445e-176
3.93033e-176
1.26462e-176
2.5059e-177
3.21979e-178
4.15467e-179
4.48366e-180
3.3774e-181
2.06752e-182
1.09828e-183
5.28778e-185
2.6421e-186
1.44697e-187
9.51873e-189
7.59756e-190
5.45054e-191
3.52436e-192
2.64302e-193
2.04778e-194
1.63262e-195
1.35421e-196
1.1548e-197
9.9359e-199
8.87499e-200
9.10656e-201
1.04066e-201
1.18258e-202
9.3171e-204
2.46672e-205
7.68796e-207
1.03764e-207
1.79163e-208
2.25921e-209
1.57053e-210
3.91405e-212
3.21614e-214
2.28627e-174
6.09808e-175
1.80496e-175
6.83348e-176
3.25391e-176
1.70499e-176
9.45102e-177
5.17157e-177
2.30736e-177
8.15939e-178
2.2675e-178
4.16242e-179
5.35941e-180
7.14051e-181
7.96673e-182
6.13615e-183
3.68715e-184
1.84557e-185
8.13531e-187
3.55819e-188
1.65085e-189
9.08748e-191
5.91535e-192
3.95635e-193
2.57071e-194
1.97094e-195
1.57186e-196
1.29261e-197
1.13694e-198
1.02931e-199
9.40252e-201
9.10951e-202
1.0089e-202
1.16806e-203
1.76023e-204
1.35311e-205
2.44637e-207
7.8477e-209
1.22454e-209
2.45683e-210
3.38974e-211
2.29249e-212
5.54663e-214
5.03236e-216
2.65759e-175
6.71653e-176
1.80405e-176
5.71832e-177
2.31641e-177
1.11397e-177
5.77052e-178
3.1359e-178
1.54678e-178
6.10731e-179
1.91185e-179
4.76014e-180
8.02103e-181
1.01239e-181
1.32952e-182
1.46592e-183
1.10898e-184
6.3014e-186
2.86836e-187
1.113e-188
4.10398e-190
1.57208e-191
7.09395e-193
4.19078e-194
2.81701e-195
1.89558e-196
1.45173e-197
1.13415e-198
9.06204e-200
7.73598e-201
6.81032e-202
6.20991e-203
6.39674e-204
7.56346e-205
8.78319e-206
2.28136e-206
1.68199e-207
2.97858e-209
1.0051e-210
1.57831e-211
3.29989e-212
4.59454e-213
2.96748e-214
6.93659e-216
6.892e-218
7.91832e-177
1.96055e-177
5.44409e-178
1.84911e-178
7.83721e-179
3.78448e-179
1.93017e-179
1.00812e-179
4.4483e-180
1.5867e-180
4.44402e-181
9.87887e-182
1.53036e-182
1.85234e-183
2.31213e-184
2.41292e-185
1.71746e-186
8.91722e-188
3.60312e-189
1.21372e-190
3.80547e-192
1.25491e-193
5.31345e-195
3.2676e-196
2.31565e-197
1.58619e-198
1.17879e-199
8.67817e-201
6.37812e-202
4.90279e-203
3.85616e-204
3.20589e-205
3.20007e-206
3.79532e-207
5.87406e-208
2.35723e-208
1.82843e-209
4.00487e-211
1.37568e-212
1.98893e-213
4.06921e-214
5.51751e-215
3.37935e-216
7.61413e-218
7.53845e-220
2.28313e-178
5.61088e-179
1.6248e-179
5.80155e-180
2.5142e-180
1.20074e-180
5.91484e-181
2.86787e-181
1.1419e-181
3.65229e-182
9.09308e-183
1.75186e-183
2.43077e-184
2.73955e-185
3.1482e-186
3.01781e-187
1.96643e-188
9.21651e-190
3.34437e-191
1.02815e-192
3.0519e-194
1.02904e-195
4.78053e-197
3.22002e-198
2.27119e-199
1.48757e-200
1.0332e-201
7.18168e-203
4.88425e-204
3.38877e-205
2.36318e-206
1.73229e-207
1.55577e-208
1.76006e-209
3.74507e-210
2.13704e-210
6.11091e-180
1.50295e-180
4.5483e-181
1.66659e-181
7.24023e-182
3.35341e-182
1.55369e-182
6.78455e-183
2.42601e-183
6.82291e-184
1.48737e-184
2.45024e-185
2.94757e-186
2.95698e-187
3.0302e-188
2.6398e-189
1.6125e-190
7.27267e-192
2.64336e-193
8.52305e-195
2.7394e-196
1.01182e-197
4.95877e-199
3.24693e-200
2.14536e-201
1.32335e-202
8.58346e-204
5.73195e-205
3.71853e-206
2.42997e-207
1.58275e-208
1.07909e-209
9.04711e-211
9.99004e-212
2.6915e-212
1.24284e-181
3.09615e-182
9.95689e-183
3.65453e-183
1.58821e-183
7.07671e-184
3.0043e-184
1.1756e-184
3.77148e-185
9.16163e-186
1.74215e-186
2.46754e-187
2.58864e-188
2.35473e-189
2.20829e-190
1.81542e-191
1.10212e-192
5.19668e-194
2.02583e-195
7.02068e-197
2.38221e-198
8.92606e-200
4.21211e-201
2.55092e-202
1.55202e-203
8.94495e-205
5.43021e-206
3.51488e-207
2.22101e-208
1.41712e-209
9.05817e-211
6.09991e-212
5.07939e-213
5.67992e-214
1.84163e-214
1.29598e-183
3.18902e-184
1.20082e-184
3.89836e-185
1.67825e-185
7.14311e-186
2.75166e-186
9.70801e-187
2.79338e-187
5.8585e-188
9.80077e-189
1.20375e-189
1.12545e-190
9.63975e-192
8.62304e-193
7.25224e-194
4.47867e-195
2.17931e-196
8.71036e-198
3.06009e-199
1.03732e-200
3.79231e-202
1.70773e-203
9.62211e-205
5.37236e-206
2.88853e-207
1.64888e-208
1.04461e-209
6.49419e-211
4.1135e-212
2.63527e-213
1.79884e-214
1.53208e-215
1.80445e-216
6.93225e-217
5.19646e-169
9.84197e-170
2.84044e-170
1.27145e-170
7.24439e-171
4.97003e-171
3.50695e-171
2.12986e-171
1.23678e-171
8.0313e-172
4.43181e-172
1.58251e-172
3.5268e-173
5.59985e-174
7.106e-175
7.74666e-176
7.44588e-177
6.22297e-178
4.8835e-179
3.9011e-180
3.18556e-181
2.58159e-182
1.93151e-183
1.28791e-184
7.61384e-186
4.19422e-187
2.31002e-188
1.36964e-189
9.77088e-191
7.10769e-192
5.25751e-193
4.30526e-194
3.20386e-195
2.39869e-196
2.0585e-197
2.36678e-198
2.74742e-199
3.04219e-200
3.10557e-201
2.47631e-202
1.5908e-203
8.11048e-205
2.38041e-206
2.75133e-208
8.03431e-170
4.0714e-170
1.52817e-170
4.24065e-171
1.59525e-171
8.93879e-172
5.51593e-172
3.41952e-172
2.27739e-172
1.57964e-172
8.60216e-173
2.79988e-173
5.30249e-174
7.70187e-175
9.03228e-176
7.72921e-177
5.19492e-178
3.0905e-179
1.82765e-180
1.14332e-181
7.64401e-183
5.59956e-184
4.85247e-185
4.0667e-186
2.72698e-187
1.63175e-188
9.20605e-190
5.68875e-191
3.87328e-192
2.73471e-193
1.99282e-194
1.50789e-195
1.29652e-196
1.33857e-197
1.46042e-198
1.58982e-199
1.61897e-200
1.4454e-201
1.16157e-202
8.15873e-204
5.56358e-205
3.2284e-206
8.54477e-208
8.13762e-210
3.97608e-170
1.27062e-170
4.57189e-171
1.42725e-171
4.31547e-172
1.85078e-172
1.0378e-172
6.08619e-173
3.76866e-173
2.49636e-173
1.48469e-173
6.41035e-174
1.58445e-174
2.35379e-175
2.95354e-176
2.95955e-177
2.22097e-178
1.39157e-179
7.53367e-181
3.75932e-182
1.98216e-183
1.22342e-184
9.20271e-186
8.41527e-187
6.92653e-188
4.45674e-189
2.7723e-190
1.7747e-191
1.18558e-192
8.29866e-194
5.97048e-195
4.40498e-196
3.58046e-197
3.49204e-198
4.0544e-199
4.9087e-200
5.58491e-201
4.81433e-202
3.03207e-203
1.82347e-204
1.50405e-205
1.11377e-206
6.38545e-208
1.61039e-209
1.3221e-211
2.49598e-171
7.79218e-172
2.51102e-172
7.54229e-173
2.53508e-173
1.16229e-173
6.25474e-174
3.52547e-174
2.14773e-174
1.25375e-174
5.83898e-175
2.01145e-175
4.12903e-176
5.38609e-177
6.56915e-178
6.58206e-179
4.86079e-180
2.90356e-181
1.45388e-182
6.59853e-184
3.23687e-185
1.87736e-186
1.34352e-187
1.1894e-188
9.21141e-190
5.64984e-191
3.54601e-192
2.36487e-193
1.66316e-194
1.22824e-195
9.38538e-197
7.32679e-198
6.16619e-199
6.45706e-200
8.49284e-201
1.14706e-201
1.09869e-202
5.92271e-204
2.64566e-205
2.18788e-206
2.22016e-207
1.95238e-208
1.21342e-209
2.93787e-211
1.97174e-213
3.31252e-173
9.64618e-174
2.84914e-174
1.02574e-174
4.72116e-175
2.41846e-175
1.31309e-175
7.43895e-176
3.59739e-176
1.35341e-176
3.87739e-177
7.0352e-178
8.90148e-179
1.1316e-179
1.20473e-180
9.30983e-182
5.62737e-183
2.75304e-184
1.19604e-185
5.4784e-187
2.89579e-188
1.87887e-189
1.48565e-190
1.01708e-191
5.79253e-193
3.724e-194
2.55757e-195
1.88003e-196
1.48251e-197
1.21027e-198
9.94689e-200
8.81565e-201
9.90156e-202
1.37126e-202
1.95692e-203
1.6452e-204
4.69736e-206
2.08816e-207
2.42823e-208
3.24438e-209
3.50139e-210
2.26014e-211
5.37567e-213
4.108e-215
1.17142e-174
3.25311e-175
9.89062e-176
3.75009e-176
1.71211e-176
8.50119e-177
4.45385e-177
2.26827e-177
9.38036e-178
3.04637e-178
7.61217e-179
1.3078e-179
1.67509e-180
2.21066e-181
2.4744e-182
1.98325e-183
1.20006e-184
5.71059e-186
2.34147e-187
9.62037e-189
4.37013e-190
2.40391e-191
1.59735e-192
9.90868e-194
5.66091e-195
3.63393e-196
2.50318e-197
1.84709e-198
1.46998e-199
1.21761e-200
1.01803e-201
9.45346e-203
1.12543e-203
1.58977e-204
3.02024e-205
2.1653e-206
4.87092e-208
2.39656e-209
3.27626e-210
5.1506e-211
6.12732e-212
3.86592e-213
9.10531e-215
8.10783e-217
1.53198e-175
3.98893e-176
1.10721e-176
3.55285e-177
1.41099e-177