/*--------------------------------*- C++ -*----------------------------------*\
| =========                 |                                                 |
| \\      /  F ield         | OpenFOAM: The Open Source CFD Toolbox           |
|  \\    /   O peration     | Version:  2.3.1                                 |
|   \\  /    A nd           | Web:      www.OpenFOAM.org                      |
|    \\/     M anipulation  |                                                 |
\*---------------------------------------------------------------------------*/
FoamFile
{
    version     2.0;
    format      ascii;
    class       volVectorField;
    location    "20";
    object      U;
}
// * * * * * * * * * * * * * * * * * * * * * * * * * * * * * * * * * * * * * //

dimensions      [0 1 -1 0 0 0 0];

internalField   nonuniform List<vector> 
38152
(
(0.101369 0.0155243 -0.00805585)
(0.108998 0.0237426 -0.0110253)
(0.115878 0.0160676 -0.00688111)
(0.11395 0.00217911 -0.00106372)
(0.110818 -0.0104447 -0.000409183)
(0.123331 -0.0165779 -0.00394904)
(0.144929 -0.0123316 -0.0044101)
(0.148314 -0.00892399 0.000471448)
(0.136013 -0.0155649 0.00411572)
(0.134364 -0.0239804 0.00234403)
(0.148117 -0.0178593 0.000509676)
(0.142392 0.00213442 0.00178737)
(0.112772 0.0127003 0.00325841)
(0.0882572 0.00945655 0.00334344)
(0.0719656 0.00407024 0.00254794)
(0.0631215 0.000695221 0.00155483)
(0.0586623 -0.000398752 0.00107509)
(0.0560028 -0.000700299 0.00043454)
(0.0559769 -0.000340611 0.000430339)
(0.0533371 -0.000416267 0.00122958)
(0.0509565 -0.00183763 0.0012155)
(0.050994 -0.00360098 0.00156742)
(0.0474376 -0.00539121 0.00217551)
(0.0460877 -0.00653052 0.000571503)
(0.0531251 -0.006254 -0.00152238)
(0.0613094 -0.00502802 -0.00138948)
(0.0635843 -0.00490121 -0.000455819)
(0.0658965 -0.0033246 -0.000383529)
(0.0674603 0.000856967 -0.000122974)
(0.0627545 0.000308809 0.000317387)
(0.0614152 -0.0020556 -0.000175765)
(0.0633944 0.000241147 6.2177e-05)
(0.0585659 -0.000978687 0.00139884)
(0.0559436 -0.00548632 0.00159174)
(0.0596707 -0.00391952 0.00127313)
(0.0576963 -0.00427725 0.0018295)
(0.056476 -0.00944253 0.00201241)
(0.0650817 -0.00244237 0.00122971)
(0.0625575 0.00536169 0.00099601)
(0.0520204 -0.00184696 0.00100006)
(0.0479245 -0.00444059 0.000764206)
(0.0362779 0.00442856 0.000650674)
(0.0180391 0.0081458 0.000635118)
(0.00505552 0.00585452 0.000626857)
(0.0825138 0.0258401 -0.0111711)
(0.106286 0.0121586 -0.00304774)
(0.0965176 0.00335963 0.00631087)
(0.0626451 0.00236869 0.00994283)
(0.0399048 0.00272499 0.00528028)
(0.0310067 0.00175992 0.000931432)
(0.0303916 0.00249144 -0.000100687)
(0.0324853 0.00491463 -6.50363e-05)
(0.0334284 0.00612287 -0.00101326)
(0.0331256 0.0067088 -0.00314871)
(0.0363897 0.00881261 -0.00318155)
(0.0381657 0.00974741 -0.000105964)
(0.0361906 0.00667812 0.00147354)
(0.0374875 0.00379793 0.00132372)
(0.0337203 0.00283546 0.00242286)
(0.0210089 0.00178123 0.0029857)
(0.0119006 0.000478811 0.00182047)
(0.00908713 -0.000365431 0.000894348)
(0.00735732 -0.00184428 0.000906777)
(0.00617413 -0.00373964 0.000502892)
(0.00707726 -0.00438857 -0.000476878)
(0.00988634 -0.00306842 -0.00143896)
(0.0139521 -0.000756265 -0.00227409)
(0.0183893 0.000891119 -0.00282615)
(0.0229709 0.0019322 -0.00302258)
(0.0278645 0.00358063 -0.00254829)
(0.0294844 0.00400972 -0.00167596)
(0.0295885 0.00226305 -0.00140092)
(0.032919 0.00110106 -0.0012334)
(0.0345305 0.000977048 -0.000807079)
(0.0340542 0.000809606 -1.43966e-05)
(0.0344788 -0.000310726 0.00137916)
(0.0331804 -0.00252006 0.000656304)
(0.0333688 -0.00423801 -0.00114811)
(0.0380244 -0.00405011 7.57588e-05)
(0.0400475 -0.00520846 0.00136536)
(0.0338444 -0.0106859 0.000491753)
(0.0297983 -0.0108263 0.00029003)
(0.0293247 -0.00199987 0.000699611)
(0.0228784 0.00744681 0.000106119)
(0.013681 0.0134582 -0.00028661)
(0.00732804 0.0149823 0.000144057)
(0.00413812 0.0122896 0.000450605)
(0.00151832 0.00910734 0.000455186)
(0.069821 0.0158093 -0.00104883)
(0.0569908 0.00604055 0.00647149)
(0.0263721 0.00272855 0.00918652)
(0.00886112 0.00263196 0.00500592)
(0.00213771 -0.00100835 0.00215254)
(0.00125793 -0.00612618 0.00115627)
(0.00128072 -0.00911182 0.00086063)
(0.00166255 -0.00944867 0.000940262)
(0.00187575 -0.00908041 0.00134578)
(0.00137181 -0.00978619 0.00186784)
(-0.00209664 -0.00923871 0.00215812)
(-0.00455666 -0.0043769 0.00192741)
(-0.005691 0.000709138 0.00166672)
(-0.00751683 0.00237647 0.00119226)
(-0.00902724 0.00303344 0.000529034)
(-0.0100447 0.00289041 -0.000101074)
(-0.00931773 0.00114255 -0.00071564)
(-0.00712626 -0.000537024 -0.00119608)
(-0.00440566 -0.00124455 -0.00142229)
(-0.00203022 -0.00163149 -0.00168122)
(3.04567e-05 -0.00182039 -0.00206632)
(0.0020857 -0.00165602 -0.00234634)
(0.00487624 -0.000821432 -0.00246743)
(0.00874765 0.000365726 -0.00238718)
(0.012712 0.00125212 -0.0021553)
(0.0159134 0.00219026 -0.00170828)
(0.0182348 0.00312797 -0.000845948)
(0.0189918 0.00210558 -0.000513003)
(0.0207334 0.000670679 -0.00118657)
(0.023498 0.00153366 -0.00118518)
(0.0231215 0.0014849 -0.000780402)
(0.0252333 -0.00184967 -0.000996296)
(0.0294323 -0.00398216 -0.00101955)
(0.0281998 -0.00164659 -0.00164154)
(0.0369549 -0.00215871 -0.00140638)
(0.0399603 -0.00932006 0.00175418)
(0.022098 -0.0102865 0.00267265)
(0.0103147 -0.00497648 0.000341561)
(0.00523781 0.000151007 -0.000592934)
(0.00174907 0.00548454 -1.74198e-05)
(0.000161446 0.00886048 0.000229211)
(0.000288099 0.0106513 0.0002123)
(0.00129131 0.011192 0.000373041)
(0.00169667 0.00949353 0.000449406)
(0.000686797 0.00787389 0.000386336)
(-0.0153096 0.0113454 0.005405)
(-0.0219744 0.0101027 0.00382843)
(-0.0261244 0.00485386 0.00209395)
(-0.0250373 0.00110644 0.00118197)
(-0.0264279 -0.000897116 0.000968792)
(-0.0265803 -0.00117106 0.000408864)
(-0.0283306 -0.00176878 6.40506e-05)
(-0.0278177 -0.00174214 -0.000416104)
(-0.0276589 -0.00127753 -0.000413889)
(-0.0274922 -0.000563706 -0.000718736)
(-0.0275382 -0.000625173 -0.000810092)
(-0.0264779 -0.000135523 -0.000622304)
(-0.0245615 0.000664874 -0.000481275)
(-0.0223393 0.000725235 -0.000553882)
(-0.0196737 0.0012534 -0.00083838)
(-0.0165493 0.00202881 -0.00124177)
(-0.01329 0.00260839 -0.00158055)
(-0.0104945 0.00322295 -0.00177405)
(-0.00799818 0.00366867 -0.00189411)
(-0.00563429 0.00393067 -0.00201294)
(-0.003258 0.00428404 -0.00212662)
(-0.000830414 0.00487108 -0.00222805)
(0.00173366 0.00543541 -0.00224365)
(0.00428275 0.0059811 -0.00200857)
(0.00610502 0.00631836 -0.00186682)
(0.00743173 0.00609369 -0.00184421)
(0.00893701 0.00544937 -0.00180257)
(0.0109254 0.00427981 -0.0021723)
(0.0137941 0.003809 -0.00251648)
(0.0175264 0.00480135 -0.00181783)
(0.0203302 0.0034416 -0.000906748)
(0.0234485 0.00187262 -0.000817346)
(0.0255219 0.0049561 -0.00130058)
(0.0272158 0.000590562 -0.00170838)
(0.0358616 -0.00649853 -0.00019073)
(0.0296427 0.000412883 0.00173276)
(0.0103763 0.00240727 0.0015107)
(0.0017776 -0.00222756 0.000552836)
(-0.00165429 -0.000584227 0.000254037)
(-0.00295715 0.0038657 0.000218111)
(-0.0030564 0.00780735 0.000218701)
(-0.00226125 0.00961806 0.000248844)
(-0.000860046 0.00949413 0.000323533)
(9.54504e-05 0.00873612 0.000311881)
(-0.000268139 0.00785099 0.000183529)
(-0.0395498 0.000337938 0.000502921)
(-0.0369471 -0.00195039 -0.000421597)
(-0.0353321 -0.00219251 -0.000311988)
(-0.0343785 -0.00412688 -0.000731249)
(-0.0322533 -0.00530405 -0.000509368)
(-0.0324045 -0.00664586 -0.000514703)
(-0.0304162 -0.00653791 -0.00072776)
(-0.030047 -0.00617138 -0.000595651)
(-0.0284107 -0.00536755 -0.000826128)
(-0.026995 -0.00426595 -0.000855039)
(-0.0255048 -0.00223376 -0.000954667)
(-0.023813 -0.000199654 -0.000977789)
(-0.022046 0.00137941 -0.00112361)
(-0.0200784 0.00293656 -0.0012418)
(-0.0176481 0.00406501 -0.00133607)
(-0.0149366 0.00466452 -0.00138962)
(-0.0121618 0.00504432 -0.00144218)
(-0.00938533 0.00536958 -0.00152641)
(-0.00670566 0.00569652 -0.00165324)
(-0.00403293 0.00607089 -0.00177441)
(-0.00142585 0.00644003 -0.00171118)
(0.000862082 0.00713969 -0.0013813)
(0.00201372 0.00803555 -0.00178844)
(0.00351753 0.00865726 -0.00259041)
(0.00637131 0.0088027 -0.00231974)
(0.00976308 0.00817995 -0.00154151)
(0.0129712 0.00687655 -0.000907896)
(0.0151065 0.00547836 -0.000169995)
(0.0163197 0.00411205 0.000601724)
(0.017201 0.00198799 0.00048867)
(0.0184939 0.0011688 -0.000274344)
(0.0225059 0.00202688 -0.000407486)
(0.0278165 -0.00124009 -0.000490452)
(0.0287778 -0.00295912 0.00012784)
(0.0236272 0.00182599 0.0016751)
(0.0147299 0.00317649 0.00162961)
(0.00583095 0.00147253 0.000662537)
(-0.000436537 0.00251479 0.000360191)
(-0.00294029 0.00452082 0.000294589)
(-0.00300586 0.00590821 0.000269708)
(-0.00206631 0.00670172 0.000261747)
(-0.000579344 0.00673993 0.000265763)
(8.47602e-05 0.0066106 0.00022938)
(0.0022051 0.00630479 0.000122134)
(-0.0420596 0.0020126 -0.000464587)
(-0.0392723 0.00265423 -0.00110531)
(-0.0371686 0.00113474 -0.0010685)
(-0.0348514 0.00048986 -0.00119252)
(-0.0337212 0.000764505 -0.00119653)
(-0.0324845 0.000111522 -0.00133632)
(-0.0314108 0.000587523 -0.00122423)
(-0.0306795 0.000661652 -0.00133095)
(-0.0292508 0.0013773 -0.00126967)
(-0.0281351 0.00175433 -0.00128271)
(-0.0265366 0.0025896 -0.00123462)
(-0.0245442 0.00326065 -0.00123115)
(-0.0222246 0.00410245 -0.00124635)
(-0.019581 0.00502118 -0.00130498)
(-0.0167359 0.00596161 -0.00139484)
(-0.013844 0.00679201 -0.00149447)
(-0.010964 0.0075193 -0.00160452)
(-0.00809218 0.00813774 -0.00168839)
(-0.00527747 0.00875365 -0.00166016)
(-0.00285473 0.00943101 -0.00140813)
(-0.000986181 0.0101181 -0.0010409)
(-0.000330425 0.0107749 -0.00183754)
(0.0014523 0.0118263 -0.00301795)
(0.00568402 0.0114091 -0.00151861)
(0.0078578 0.00789877 0.000749146)
(0.008132 0.00457417 0.00170609)
(0.00817319 0.00289356 0.00170482)
(0.00856622 0.0024283 0.00135274)
(0.00976832 0.00240115 0.000792972)
(0.0116778 0.0019881 6.56882e-05)
(0.0143684 0.00157542 -0.000381543)
(0.0184925 0.00113316 -0.000300947)
(0.0215121 -0.00216046 -0.000183679)
(0.0208241 -0.00318341 0.000535163)
(0.0149447 0.00272598 0.00152505)
(0.00702629 0.00657002 0.00104191)
(0.00182548 0.00558125 0.000351323)
(-0.00124713 0.00419235 0.000311368)
(-0.00257537 0.0043192 0.000269592)
(-0.00259328 0.0049711 0.000219021)
(-0.00205968 0.00523846 0.000197789)
(-0.00104705 0.00523845 0.00019153)
(-0.000603766 0.00453666 0.000161289)
(0.00115382 0.00434284 0.000130582)
(-0.0439839 0.000815702 -0.000948713)
(-0.0404863 0.00056103 -0.00101302)
(-0.0408126 0.000856506 -0.000792576)
(-0.0367941 0.000387063 -0.00128314)
(-0.0361905 -3.21974e-05 -0.000854302)
(-0.0345946 6.1094e-05 -0.00120009)
(-0.0325995 -0.000531967 -0.00103842)
(-0.031676 -0.000188577 -0.00115588)
(-0.0298533 0.000302094 -0.00120832)
(-0.0281847 0.000637464 -0.00123946)
(-0.0265713 0.00174508 -0.00130236)
(-0.0245241 0.00268397 -0.00134382)
(-0.0226374 0.00394495 -0.0013786)
(-0.0204003 0.00512729 -0.00143257)
(-0.0180481 0.00627692 -0.00147303)
(-0.0154164 0.00728595 -0.00150547)
(-0.0126806 0.00816894 -0.00151953)
(-0.00995616 0.00900331 -0.00148885)
(-0.00740539 0.00983941 -0.00138734)
(-0.00523096 0.0106267 -0.00124561)
(-0.00336371 0.0111841 -0.00124285)
(-0.00178036 0.0117023 -0.0020396)
(0.000617799 0.0126424 -0.00283002)
(0.00470261 0.0113261 -0.000478342)
(0.00335482 0.00535989 0.00252957)
(0.000414745 0.00152746 0.00243777)
(-0.000542169 0.00056062 0.0012615)
(-0.000302648 0.000168153 0.000651246)
(0.000803535 -8.99602e-05 0.0003599)
(0.00262125 -0.000321629 0.00020757)
(0.00476721 -0.000768679 0.000107802)
(0.00675341 -0.00131048 0.000178003)
(0.00830822 -0.00178446 0.000446202)
(0.00749792 -0.00163761 0.000436244)
(0.00404684 0.00111167 0.000320747)
(0.000354068 0.00578743 0.00035982)
(-0.00113523 0.00715 0.000210468)
(-0.00137614 0.00513639 0.000265003)
(-0.00216253 0.00378483 0.000286897)
(-0.00252372 0.00355158 0.000218451)
(-0.00233209 0.00373588 0.000180201)
(-0.00186408 0.00383517 0.000155807)
(-0.00119245 0.00391935 0.000147405)
(-0.000768447 0.00330238 0.000117027)
(-0.000274714 0.00336371 0.000123772)
(-0.0441598 0.00320241 -0.00126375)
(-0.03844 0.00446856 -0.000584346)
(-0.0392208 0.00452971 -0.000980971)
(-0.0363603 0.00388799 -0.00111893)
(-0.0350226 0.00404454 -0.00105849)
(-0.0344115 0.00435401 -0.00139957)
(-0.0318414 0.00381155 -0.0012348)
(-0.0322816 0.00485588 -0.00152185)
(-0.0292436 0.00454176 -0.00148494)
(-0.0290717 0.00554567 -0.00154773)
(-0.026552 0.00580237 -0.00162069)
(-0.0251289 0.00659438 -0.00160705)
(-0.0228338 0.00729348 -0.00166368)
(-0.0205685 0.0081331 -0.0016753)
(-0.0180838 0.00906303 -0.00168623)
(-0.0155045 0.0100102 -0.00167384)
(-0.0129044 0.0108978 -0.00164938)
(-0.0103097 0.0116685 -0.00163707)
(-0.00769252 0.0122928 -0.00167869)
(-0.0049072 0.0127029 -0.00179697)
(-0.00183047 0.0129932 -0.00199985)
(0.00124875 0.0131892 -0.00166889)
(0.00363639 0.0113138 0.000691622)
(0.000983256 0.00616839 0.00307257)
(-0.00249056 0.00300276 0.00211763)
(-0.00363701 0.0016197 0.000667199)
(-0.00388686 0.000424998 0.000239639)
(-0.00371521 -0.000417365 0.000109766)
(-0.00336233 -0.000966707 7.44789e-05)
(-0.00284972 -0.00125611 7.89467e-05)
(-0.00233392 -0.00143703 9.94925e-05)
(-0.00208353 -0.00134555 0.000127189)
(-0.00229279 -0.000746559 0.000140328)
(-0.00328105 0.000128588 0.000135858)
(-0.00456224 0.0020095 0.000142047)
(-0.0046752 0.00463062 0.00013823)
(-0.00343993 0.005033 0.000218447)
(-0.00276384 0.00375062 0.000265094)
(-0.00273988 0.00305109 0.000203195)
(-0.00262909 0.00287734 0.00015402)
(-0.00234732 0.00294023 0.000129407)
(-0.00190474 0.0029821 0.00011817)
(-0.00153515 0.00305277 0.000113634)
(-0.0011028 0.00289206 8.63479e-05)
(-0.00143557 0.00293574 0.000111739)
(-0.0445276 0.00474276 -0.00120491)
(-0.0346299 0.000800972 -0.000140898)
(-0.038137 0.00558937 -0.0004674)
(-0.0321296 0.00350344 -0.000711439)
(-0.0329435 0.0048017 -0.000449276)
(-0.0296626 0.00520371 -0.000845882)
(-0.029494 0.00500877 -0.000744199)
(-0.027796 0.00590004 -0.00103704)
(-0.0265276 0.00604125 -0.00102211)
(-0.0254172 0.00690716 -0.00128886)
(-0.0235857 0.00737222 -0.0013346)
(-0.0221603 0.00846537 -0.00146167)
(-0.0200573 0.00913144 -0.00154719)
(-0.0179681 0.0101393 -0.0015718)
(-0.0154712 0.0108958 -0.00160801)
(-0.0127415 0.0116198 -0.00161063)
(-0.00972336 0.0121755 -0.00157289)
(-0.00648021 0.0125265 -0.00147719)
(-0.00309359 0.012519 -0.00119341)
(-2.19686e-05 0.0120148 -0.000590823)
(0.00161515 0.0110049 0.000461634)
(0.000984444 0.00889184 0.0020281)
(-0.00181491 0.00570655 0.00287411)
(-0.00424905 0.00321821 0.00168624)
(-0.00471356 0.00147997 0.000507299)
(-0.00452839 0.000439254 0.000147939)
(-0.00423854 -0.000118729 1.14501e-05)
(-0.00404247 -0.000539071 -3.10608e-05)
(-0.00398583 -0.000939195 -2.43822e-05)
(-0.00405505 -0.00129386 1.79163e-07)
(-0.00427123 -0.001538 2.66704e-05)
(-0.00464205 -0.00150286 6.4181e-05)
(-0.00505137 -0.00104188 0.00010224)
(-0.00551021 -0.000138422 0.000113202)
(-0.0058207 0.00135828 0.000114178)
(-0.00516205 0.00279967 0.000166915)
(-0.0444068 0.00455226 -0.000612701)
(-0.037688 0.000827318 -0.000442832)
(-0.0391074 0.00603039 0.000449316)
(-0.033351 0.00351582 -0.000639541)
(-0.0322045 0.0051381 0.000237167)
(-0.0288026 0.00611977 -0.000118845)
(-0.0270054 0.00628501 -0.000103925)
(-0.0250834 0.00761627 5.5352e-05)
(-0.0224788 0.00765077 -0.00027872)
(-0.0207522 0.00916095 -0.000150872)
(-0.0189257 0.00926826 -0.000225448)
(-0.0164404 0.0103811 -0.000355352)
(-0.0145944 0.0107601 -0.000290947)
(-0.0120746 0.0113991 -0.000317208)
(-0.00973556 0.0116915 -0.000232369)
(-0.00730427 0.0117868 -6.68249e-05)
(-0.00516429 0.0113959 0.000269554)
(-0.00358317 0.0104917 0.000813993)
(-0.00301055 0.00908859 0.00150489)
(-0.0035891 0.00765522 0.00208003)
(-0.00484504 0.00641541 0.00232659)
(-0.00608845 0.00508935 0.00204574)
(-0.00661822 0.00356739 0.00115497)
(-0.00625596 0.00210548 0.000399967)
(-0.00572314 0.00120937 9.46269e-05)
(-0.00526658 0.000622169 -3.39617e-05)
(-0.0048649 0.000156748 -7.89479e-05)
(-0.00454581 -0.000225155 -8.82761e-05)
(-0.00434876 -0.00052681 -8.03169e-05)
(-0.00431391 -0.000758995 -5.70512e-05)
(-0.00447069 -0.000911647 -2.12708e-05)
(-0.0048013 -0.000893562 1.9822e-05)
(-0.00518045 -0.000602118 5.79729e-05)
(-0.00550518 -7.91713e-05 8.84698e-05)
(-0.00550512 0.000670939 0.000118356)
(-0.0404406 0.00265195 0.000360202)
(-0.0438911 -0.00101423 -0.000809429)
(-0.0401492 0.00288661 0.00109469)
(-0.0383949 0.0013429 -0.000690566)
(-0.0339385 0.00193815 0.000507581)
(-0.0343287 0.00256944 0.000399908)
(-0.028957 0.00375056 0.000564298)
(-0.030515 0.00301318 0.000544078)
(-0.023055 0.00469391 0.000635499)
(-0.0257845 0.00523635 0.00102583)
(-0.0198241 0.00528225 0.000750218)
(-0.0195804 0.00657521 0.00112399)
(-0.0168078 0.00643367 0.00112537)
(-0.0150152 0.00688734 0.00129055)
(-0.013455 0.00665136 0.00148184)
(-0.012153 0.00627604 0.00168653)
(-0.0113935 0.00553755 0.00185715)
(-0.0109416 0.00476497 0.00188789)
(-0.0107214 0.00404753 0.00172069)
(-0.0103752 0.00344367 0.00139859)
(-0.0097319 0.00282419 0.00101768)
(-0.00879618 0.00206827 0.000610462)
(-0.00773663 0.0013258 0.000271093)
(-0.00681894 0.00077623 7.55671e-05)
(-0.00608635 0.000374342 -1.71258e-05)
(-0.00548527 9.62336e-05 -5.88104e-05)
(-0.00502079 -0.00011841 -7.78735e-05)
(-0.00469692 -0.000306757 -8.47649e-05)
(-0.00451174 -0.000489865 -8.26351e-05)
(-0.00445817 -0.000655547 -7.30505e-05)
(-0.00453775 -0.000776052 -5.59814e-05)
(-0.00472722 -0.000798945 -3.02272e-05)
(-0.00493913 -0.000673366 4.15781e-07)
(-0.00508296 -0.00040099 2.74494e-05)
(-0.00500532 2.78046e-05 5.03363e-05)
(-0.0359597 -0.00236696 -0.000396083)
(-0.0478712 0.00397944 0.000542309)
(-0.0374798 -0.00142968 -0.000282006)
(-0.0424325 0.0023454 0.000179305)
(-0.0329907 0.00023454 -0.000294503)
(-0.0380454 0.0010821 0.000680841)
(-0.0316093 0.00146101 0.000464259)
(-0.033604 0.000835512 0.000222309)
(-0.0273213 0.00127335 0.000864098)
(-0.0308976 0.001987 0.00108196)
(-0.0240153 0.000939313 0.000619098)
(-0.0258621 0.00236652 0.00155813)
(-0.0220141 0.00149107 0.00101204)
(-0.0211412 0.00211135 0.00144935)
(-0.0191518 0.00183539 0.00126895)
(-0.0175766 0.00185635 0.00125277)
(-0.0160509 0.00166575 0.00105601)
(-0.0145549 0.00146691 0.00084117)
(-0.0131059 0.00122284 0.000612085)
(-0.0116468 0.0010134 0.000419304)
(-0.0102213 0.000857008 0.000260665)
(-0.0088936 0.000711813 0.000126647)
(-0.00773755 0.00054914 2.45884e-05)
(-0.00678528 0.00039379 -3.76158e-05)
(-0.00602149 0.000276949 -6.98492e-05)
(-0.00541779 0.00017418 -8.75206e-05)
(-0.00495854 7.71443e-05 -9.78071e-05)
(-0.00463523 -1.54074e-05 -0.00010523)
(-0.00444483 -9.80181e-05 -0.00011159)
(-0.00438277 -0.000170474 -0.000116593)
(-0.0044397 -0.000229363 -0.000119011)
(-0.00457995 -0.0002613 -0.000116902)
(-0.00473193 -0.000248949 -0.000109372)
(-0.0048129 -0.000195932 -9.70749e-05)
(-0.00470014 -9.3086e-05 -8.0324e-05)
(0.0753504 0.026003 -0.0189668)
(0.0713486 0.00834616 -0.0137207)
(0.0741775 -0.0075238 -0.0049252)
(0.0804884 -0.0154841 0.000537115)
(0.0895099 -0.0174889 -0.000407631)
(0.099732 -0.0158041 -0.00349426)
(0.105607 -0.0132127 -0.0013507)
(0.107415 -0.0136771 0.00478888)
(0.114708 -0.0167221 0.00593514)
(0.130303 -0.0163752 0.00135523)
(0.139522 -0.00469845 0.00106039)
(0.121875 0.0104343 0.0070164)
(0.0929443 0.0125471 0.0102645)
(0.0755685 0.00713562 0.0085562)
(0.0655281 0.00345659 0.00544902)
(0.059802 0.00124366 0.0031125)
(0.0566835 0.000351616 0.00220386)
(0.053968 -0.000136051 0.00138278)
(0.0516675 -0.000574202 0.0017587)
(0.0493393 -0.00102978 0.00293023)
(0.0482741 -0.00220926 0.00299687)
(0.0474996 -0.00390736 0.00359209)
(0.0473211 -0.00437517 0.00311234)
(0.0502241 -0.00342177 -0.000607353)
(0.0542764 -0.00300753 -0.0031796)
(0.0578082 -0.00208117 -0.0025156)
(0.0591001 -0.000252819 -0.00144935)
(0.0590128 0.001394 -0.000741751)
(0.0565574 0.00162927 0.000710587)
(0.0527108 -0.000793758 0.00148467)
(0.0528084 -0.00214534 0.000686529)
(0.0535364 -0.00119679 0.00146117)
(0.0517054 -0.00301852 0.00317978)
(0.0540164 -0.00521315 0.00273506)
(0.0590909 -0.00287372 0.00236209)
(0.058356 -0.00298383 0.00388336)
(0.0584549 -0.00692557 0.00425098)
(0.0649709 -0.00149451 0.0031369)
(0.0616257 0.00458878 0.00329119)
(0.0520072 -0.00141784 0.00279548)
(0.0483319 -0.003741 0.00192022)
(0.0376083 0.00414864 0.00260077)
(0.0192248 0.00792196 0.00289789)
(0.00540496 0.00587575 0.00229192)
(0.057262 0.00368331 -0.00560805)
(0.0625438 -0.0058667 0.00896501)
(0.049623 -0.00562439 0.0186129)
(0.0357079 -0.00307096 0.0155109)
(0.0303944 -0.00291852 0.00607682)
(0.0289407 -0.00355458 -0.000222905)
(0.0300289 -0.00265048 -0.00170679)
(0.0329014 -0.000529462 -0.00166673)
(0.0355555 0.000992483 -0.00291679)
(0.0358525 0.00285202 -0.00552608)
(0.035824 0.00664021 -0.00444673)
(0.0354521 0.00807067 0.00161666)
(0.0348293 0.00531315 0.00408826)
(0.0350213 0.00376096 0.00367417)
(0.0315617 0.00359471 0.0055498)
(0.0222941 0.00226313 0.00635544)
(0.015936 0.000990559 0.00373394)
(0.0138519 0.000461124 0.00146397)
(0.0131209 -0.000522003 0.00105035)
(0.0132233 -0.00172977 0.000299052)
(0.0144189 -0.00189079 -0.00138331)
(0.0161393 -0.000431605 -0.00310144)
(0.0183572 0.00154897 -0.00456256)
(0.021125 0.00244126 -0.00539814)
(0.0235993 0.0025222 -0.00549831)
(0.0256672 0.00263491 -0.00445191)
(0.0269874 0.00198619 -0.00278653)
(0.0278004 0.000604522 -0.00195104)
(0.028778 -0.000416034 -0.00128485)
(0.0291196 -0.00132928 -0.000524857)
(0.0294168 -0.00213673 0.000176173)
(0.0314924 -0.00264311 0.00123606)
(0.0349356 -0.00249683 -0.000151334)
(0.0371783 -0.00239386 -0.00238866)
(0.040041 -0.00277109 -2.14429e-05)
(0.0430341 -0.00430328 0.00325819)
(0.0390521 -0.00864539 0.00229488)
(0.0339653 -0.0101661 0.00138768)
(0.0328265 -0.00403467 0.00213278)
(0.0270152 0.00518393 0.00111922)
(0.0168983 0.012555 0.000308505)
(0.00902925 0.0148879 0.0012409)
(0.0048065 0.0123438 0.00173174)
(0.00172746 0.00918318 0.00146245)
(0.0259803 -0.00103107 0.0113405)
(0.0136402 -0.00539333 0.0184064)
(0.00334142 -0.00389676 0.014368)
(-0.000438174 -0.00134098 0.00680051)
(-0.00196923 -0.00326001 0.00302282)
(-0.00141816 -0.00683117 0.00140712)
(-0.000852025 -0.00878447 0.000823104)
(-0.00020044 -0.00904665 0.000955853)
(0.000621315 -0.00861133 0.00187947)
(0.000963399 -0.00820345 0.00300335)
(-0.000496929 -0.00698286 0.00378171)
(-0.00151512 -0.00282003 0.00389779)
(-0.00169543 0.00130414 0.00370167)
(-0.00263478 0.00247674 0.00280507)
(-0.00400214 0.00357602 0.00180736)
(-0.00562887 0.00446204 0.000721358)
(-0.00587924 0.00353167 -0.000934835)
(-0.00440675 0.00211289 -0.00237843)
(-0.00218944 0.00128006 -0.00296056)
(-0.000381366 0.000639549 -0.00327329)
(0.000843244 0.0001644 -0.00393084)
(0.00211185 3.72951e-05 -0.00461892)
(0.00416443 0.000424835 -0.00494275)
(0.00715262 0.00115336 -0.00475223)
(0.010129 0.0015172 -0.0040713)
(0.0122246 0.00145131 -0.00297482)
(0.0138975 0.00133353 -0.00154708)
(0.0153657 0.000738905 -0.00100333)
(0.0167274 8.7766e-05 -0.00171285)
(0.0182111 -0.000351271 -0.00169783)
(0.0195082 -0.0015487 -0.00146035)
(0.0215825 -0.00275428 -0.00235681)
(0.0254607 -0.00275618 -0.00304236)
(0.0285736 -0.00199529 -0.00369846)
(0.0337886 -0.00235887 -0.00269395)
(0.037172 -0.0066956 0.00283408)
(0.0274288 -0.00929426 0.0062839)
(0.0169624 -0.00635232 0.00266207)
(0.00889069 -0.000623315 -0.000703005)
(0.00381856 0.00498365 -0.000347558)
(0.0017168 0.00866594 0.0005239)
(0.00117881 0.0109184 0.000935516)
(0.00168793 0.0114573 0.00137052)
(0.00192303 0.00970187 0.00140773)
(0.000831908 0.00802466 0.00115606)
(-0.0301522 0.00458376 0.00734564)
(-0.0296687 0.00525047 0.00433269)
(-0.0290954 0.00223605 0.00229436)
(-0.027118 -0.000410786 0.00135132)
(-0.0259617 -0.00168182 0.000875556)
(-0.0252706 -0.0025323 -0.000120073)
(-0.0253641 -0.00302598 -0.000704507)
(-0.0249786 -0.00273025 -0.00125026)
(-0.0248093 -0.00184115 -0.00118847)
(-0.0248645 -0.000802514 -0.0014552)
(-0.0253879 -0.000159958 -0.00162333)
(-0.0248519 0.000608285 -0.00133801)
(-0.0232769 0.00137621 -0.000969761)
(-0.0214452 0.00157909 -0.00105706)
(-0.0193078 0.0021353 -0.00153126)
(-0.016632 0.00270373 -0.00235877)
(-0.0136569 0.00283992 -0.00314768)
(-0.0109924 0.00306855 -0.00358033)
(-0.00872538 0.00320455 -0.00374506)
(-0.00680073 0.00309844 -0.00390246)
(-0.00499659 0.00304338 -0.0040858)
(-0.00318744 0.0032428 -0.00415494)
(-0.00141321 0.00355863 -0.00407491)
(0.000416871 0.00373702 -0.00374114)
(0.00229063 0.00361002 -0.0032259)
(0.00406841 0.00297058 -0.00267673)
(0.00601884 0.00210511 -0.0023262)
(0.00810233 0.000979204 -0.00257713)
(0.0100177 -2.83117e-05 -0.00292411)
(0.0123558 -0.000311473 -0.00242412)
(0.0150898 -0.000823043 -0.00217381)
(0.0183021 -0.00112214 -0.00296268)
(0.0224662 -0.000199025 -0.00356447)
(0.0257326 -0.00223612 -0.00332624)
(0.0309303 -0.00545749 -0.000166461)
(0.0279395 -0.000339673 0.00403943)
(0.0132044 0.00192737 0.00421507)
(0.00321214 -0.00165874 0.0018259)
(-0.000942667 -0.000403216 0.000749281)
(-0.00241377 0.0038364 0.000627062)
(-0.00266146 0.00778817 0.000714418)
(-0.00199136 0.00972871 0.000854563)
(-0.0006417 0.00964125 0.00100885)
(0.000289788 0.00884843 0.000944504)
(-9.06584e-05 0.00798781 0.000654671)
(-0.0413947 -0.00115518 0.000425594)
(-0.038626 -0.00186909 -0.000654187)
(-0.0370631 -0.00209017 -0.00088193)
(-0.0357987 -0.00321842 -0.00134855)
(-0.0345572 -0.00434735 -0.0013331)
(-0.0337062 -0.00518021 -0.00137726)
(-0.0325734 -0.00531156 -0.00161498)
(-0.0316474 -0.00480168 -0.0014884)
(-0.0302973 -0.00415081 -0.00172878)
(-0.0289029 -0.00314927 -0.00186917)
(-0.0272764 -0.00150723 -0.00205412)
(-0.0254908 0.000186762 -0.00216417)
(-0.0236606 0.0014931 -0.00246219)
(-0.0216323 0.00281409 -0.00276265)
(-0.019209 0.00376008 -0.00301649)
(-0.016585 0.00413766 -0.00315757)
(-0.0139899 0.00420019 -0.00320196)
(-0.0115378 0.004101 -0.00322582)
(-0.00936862 0.00391652 -0.00327963)
(-0.00746359 0.00369656 -0.00333702)
(-0.00575846 0.00345467 -0.00328143)
(-0.00391494 0.00342607 -0.00297682)
(-0.00181219 0.00341562 -0.00260427)
(5.66418e-05 0.00239069 -0.0022084)
(0.00172513 0.00100266 -0.00153784)
(0.00372184 6.71523e-05 -0.0010256)
(0.00582876 -0.00062746 -0.000798167)
(0.00780059 -0.00099343 -0.000512154)
(0.0101303 -0.000899569 -0.000247757)
(0.0128331 -0.000981689 -0.000861093)
(0.0155534 -0.00104509 -0.00194502)
(0.0196539 -0.00130212 -0.00189377)
(0.0238646 -0.00382822 -0.00134727)
(0.0245075 -0.00372017 0.000385237)
(0.0206765 0.00172214 0.00359882)
(0.0139561 0.00345447 0.00396819)
(0.00584927 0.00181188 0.00221799)
(-0.000539568 0.00275085 0.00119822)
(-0.0029184 0.00472207 0.000815254)
(-0.00296354 0.0061214 0.000782367)
(-0.00201041 0.00691803 0.000782808)
(-0.000546342 0.00693337 0.000787323)
(0.000170961 0.00672708 0.000672858)
(0.00216418 0.00628485 0.00047953)
(-0.0443732 0.00103467 -0.00165159)
(-0.041727 0.000271516 -0.00232745)
(-0.0395799 -0.000298174 -0.00228978)
(-0.0375093 -0.00103523 -0.00245392)
(-0.0360706 -0.00102551 -0.00257782)
(-0.0348476 -0.00133718 -0.00272781)
(-0.0337656 -0.00103534 -0.00273564)
(-0.0327093 -0.000565236 -0.00281493)
(-0.0314708 6.11323e-05 -0.00280565)
(-0.0301959 0.000757803 -0.00281194)
(-0.0286514 0.00152582 -0.0027477)
(-0.0267349 0.0022467 -0.00271016)
(-0.0245208 0.00295054 -0.00272429)
(-0.0220284 0.0036858 -0.00279434)
(-0.0193419 0.00433262 -0.00291276)
(-0.0166544 0.00477622 -0.00302047)
(-0.0140767 0.00504232 -0.00311812)
(-0.0116633 0.00511171 -0.00318764)
(-0.009438 0.00506192 -0.00318673)
(-0.00739955 0.00499655 -0.00304916)
(-0.0052503 0.00492216 -0.0026343)
(-0.0031444 0.00435138 -0.00211561)
(-0.00229198 0.00230592 -0.00129356)
(-0.00162879 0.00050466 0.000500661)
(-0.000410518 -0.000277968 0.00185095)
(0.00104389 -0.00056483 0.0019105)
(0.00261439 -0.000556087 0.00137172)
(0.00430129 -0.000348428 0.000691112)
(0.00639841 -0.000131948 -2.90604e-05)
(0.00885812 -0.000415321 -0.000866481)
(0.0115735 -0.00108782 -0.00138453)
(0.0150268 -0.00188957 -0.00112276)
(0.0171546 -0.00355404 -0.000720186)
(0.0162568 -0.00272916 0.000636042)
(0.0128256 0.00332501 0.0027434)
(0.00761351 0.00709941 0.0027821)
(0.00196212 0.00577968 0.00164337)
(-0.00141297 0.00426259 0.00107758)
(-0.00259931 0.00444692 0.000779511)
(-0.00257892 0.00511596 0.000648997)
(-0.00200647 0.00540045 0.000591232)
(-0.00100591 0.00537806 0.000569198)
(-0.000505062 0.00470845 0.000479165)
(0.00109506 0.00436035 0.000411909)
(-0.0468431 -0.0009702 -0.00225108)
(-0.0439794 -0.000829273 -0.00193607)
(-0.0420126 -0.000814148 -0.0019806)
(-0.0397361 -0.00110091 -0.00230653)
(-0.0381268 -0.00133485 -0.00203584)
(-0.0365805 -0.00141404 -0.00232216)
(-0.0350274 -0.00169297 -0.00222305)
(-0.03374 -0.00139744 -0.00235472)
(-0.0321785 -0.00103804 -0.00243479)
(-0.0306776 -0.000514228 -0.00250913)
(-0.0289624 0.000261503 -0.00262658)
(-0.0271779 0.00115038 -0.00270288)
(-0.0252719 0.00211203 -0.00277231)
(-0.0232133 0.00301747 -0.00285998)
(-0.0209818 0.00379439 -0.00293613)
(-0.0185271 0.00434329 -0.00299173)
(-0.0159548 0.00465697 -0.00302157)
(-0.013358 0.00480374 -0.00300306)
(-0.0107938 0.00485692 -0.00290461)
(-0.00828605 0.00482699 -0.002683)
(-0.00577752 0.00459334 -0.00225389)
(-0.00361212 0.00376635 -0.00156559)
(-0.00340235 0.00184685 -0.000365818)
(-0.00379958 0.000177506 0.00210497)
(-0.00385029 -0.000691075 0.00336332)
(-0.0030442 -0.000470704 0.00227912)
(-0.0024532 -0.000355723 0.00104504)
(-0.00172605 -0.000638741 0.000381922)
(-0.000548536 -0.0010235 4.44661e-05)
(0.0011437 -0.00139967 -0.000130354)
(0.00311342 -0.00191409 -0.000291116)
(0.00491751 -0.00241391 -0.000252838)
(0.0064803 -0.00263502 0.0001178)
(0.00649706 -0.0021495 0.000183228)
(0.00416517 0.000920031 0.000371894)
(0.00127778 0.00605463 0.00110751)
(-0.000546933 0.00744678 0.00132184)
(-0.00148706 0.00521686 0.00113824)
(-0.00226843 0.0039392 0.000856342)
(-0.00258184 0.00373806 0.000631591)
(-0.00235974 0.00391953 0.000526772)
(-0.00186617 0.00401445 0.000461196)
(-0.00119124 0.00405338 0.000433984)
(-0.000749657 0.00348781 0.000349174)
(-0.000256253 0.00340542 0.000346244)