/*--------------------------------*- C++ -*----------------------------------*\
| =========                 |                                                 |
| \\      /  F ield         | OpenFOAM: The Open Source CFD Toolbox           |
|  \\    /   O peration     | Version:  2.3.1                                 |
|   \\  /    A nd           | Web:      www.OpenFOAM.org                      |
|    \\/     M anipulation  |                                                 |
\*---------------------------------------------------------------------------*/
FoamFile
{
    version     2.0;
    format      ascii;
    class       volVectorField;
    location    "20";
    object      U_0;
}
// * * * * * * * * * * * * * * * * * * * * * * * * * * * * * * * * * * * * * //

dimensions      [0 1 -1 0 0 0 0];

internalField   nonuniform List<vector> 
38152
(
(0.101452 0.0156011 -0.00809056)
(0.109121 0.0237474 -0.0110257)
(0.115967 0.0160168 -0.00684619)
(0.113989 0.00210572 -0.0010415)
(0.110909 -0.0105103 -0.000427786)
(0.12355 -0.0165911 -0.00397407)
(0.145128 -0.012293 -0.00439184)
(0.148324 -0.00893563 0.00051444)
(0.135981 -0.0156489 0.00412503)
(0.134475 -0.0240156 0.00232534)
(0.148229 -0.0177515 0.000508292)
(0.142273 0.00227222 0.00180238)
(0.112557 0.0127208 0.00326636)
(0.0881199 0.00941534 0.00333823)
(0.0718968 0.00404112 0.0025399)
(0.0630942 0.000683838 0.00154942)
(0.0586537 -0.000402229 0.00107178)
(0.0560058 -0.00070092 0.000432568)
(0.0559817 -0.000340441 0.000430998)
(0.0533371 -0.000418982 0.0012303)
(0.0509625 -0.00184274 0.00121539)
(0.051 -0.00360673 0.00156918)
(0.0474409 -0.00539696 0.00217505)
(0.0461069 -0.00653449 0.000565875)
(0.053163 -0.00625417 -0.00152574)
(0.0613411 -0.00502738 -0.00138756)
(0.0636042 -0.00489974 -0.000454168)
(0.0659159 -0.0033127 -0.000383347)
(0.0674622 0.00086669 -0.000121375)
(0.0627472 0.000302721 0.000317381)
(0.0614228 -0.00205619 -0.000176987)
(0.063395 0.000244673 6.46732e-05)
(0.0585548 -0.000991051 0.00140144)
(0.055951 -0.00549495 0.00159125)
(0.059683 -0.00391771 0.00127284)
(0.0576985 -0.0042898 0.00182997)
(0.0564998 -0.00944262 0.00201106)
(0.0651046 -0.00241048 0.00122905)
(0.0625375 0.00536522 0.000997432)
(0.052004 -0.0018665 0.00100036)
(0.0479142 -0.00443369 0.000763534)
(0.036249 0.00444209 0.000650176)
(0.0180173 0.00814201 0.000634891)
(0.00504993 0.00584623 0.000626555)
(0.0826946 0.0258027 -0.0111467)
(0.106388 0.0121074 -0.00300433)
(0.0964134 0.00334141 0.00635301)
(0.0625114 0.00237277 0.00993684)
(0.0398466 0.00272236 0.00525071)
(0.0309951 0.00176178 0.000919219)
(0.0304033 0.00250888 -9.89576e-05)
(0.0324949 0.00493583 -6.90721e-05)
(0.0334278 0.0061366 -0.00102825)
(0.0331266 0.00672613 -0.00316057)
(0.0364116 0.00884075 -0.00317215)
(0.0381762 0.00975671 -8.46767e-05)
(0.036194 0.00665779 0.00148084)
(0.0374882 0.00377652 0.00132143)
(0.0337055 0.00282257 0.00242145)
(0.0209904 0.00177289 0.0029842)
(0.0118922 0.000473765 0.00181847)
(0.00908434 -0.00036827 0.000893795)
(0.00735632 -0.00184664 0.000906797)
(0.00617473 -0.00374142 0.000502261)
(0.00707979 -0.00438864 -0.000478101)
(0.00989106 -0.00306636 -0.00144058)
(0.0139592 -0.000753654 -0.00227593)
(0.0183976 0.000892444 -0.00282739)
(0.0229805 0.00193437 -0.00302263)
(0.0278724 0.00358459 -0.00254761)
(0.0294876 0.00401115 -0.00167547)
(0.0295942 0.00226231 -0.00139988)
(0.0329272 0.00110167 -0.0012321)
(0.034534 0.000978488 -0.000806304)
(0.0340556 0.00081022 -1.20529e-05)
(0.0344786 -0.000312604 0.0013807)
(0.0331781 -0.00252546 0.000652859)
(0.0333732 -0.00424264 -0.00114995)
(0.038037 -0.00404908 7.7654e-05)
(0.0400503 -0.00521329 0.0013648)
(0.0338374 -0.0106947 0.000490703)
(0.0298048 -0.0108168 0.000292554)
(0.0293239 -0.00198139 0.000700455)
(0.0228637 0.00746109 0.000104738)
(0.0136676 0.0134638 -0.000286593)
(0.00732197 0.0149774 0.000144778)
(0.00413787 0.0122778 0.000450629)
(0.001518 0.00909612 0.000454982)
(0.0698759 0.0157781 -0.00102366)
(0.0569084 0.00602024 0.00650151)
(0.0262795 0.0027402 0.00917989)
(0.00882021 0.00263034 0.00498991)
(0.00212791 -0.00103069 0.00214662)
(0.00125879 -0.00614787 0.00115474)
(0.00128227 -0.00911747 0.00086019)
(0.00166588 -0.00944363 0.000941524)
(0.00188215 -0.00907816 0.00134696)
(0.0013775 -0.00978561 0.00186824)
(-0.00209074 -0.00922313 0.0021583)
(-0.00454807 -0.00434331 0.0019288)
(-0.00568371 0.00073104 0.00166739)
(-0.00751423 0.00237751 0.00119104)
(-0.00902911 0.00302772 0.000527127)
(-0.0100476 0.00288365 -0.000102769)
(-0.00931879 0.00113611 -0.000716885)
(-0.00712599 -0.000541657 -0.00119667)
(-0.00440494 -0.00124764 -0.00142259)
(-0.00202934 -0.00163365 -0.00168157)
(3.16737e-05 -0.00182207 -0.0020667)
(0.00208767 -0.00165713 -0.00234669)
(0.00487989 -0.000821464 -0.00246766)
(0.00875267 0.00036619 -0.00238715)
(0.0127166 0.00125247 -0.00215511)
(0.015917 0.00219178 -0.00170773)
(0.0182371 0.00312933 -0.000845291)
(0.0189939 0.00210496 -0.000513595)
(0.0207384 0.00067142 -0.00118757)
(0.0235025 0.00153595 -0.00118509)
(0.0231244 0.00148317 -0.000780437)
(0.0252409 -0.0018546 -0.000996626)
(0.0294375 -0.00398294 -0.00102)
(0.0282066 -0.0016464 -0.00164224)
(0.036971 -0.00216971 -0.00140337)
(0.039952 -0.00933124 0.00175815)
(0.0220803 -0.0102833 0.00267132)
(0.0103059 -0.00496842 0.000338671)
(0.00523173 0.000161913 -0.000592404)
(0.0017462 0.00549354 -1.65289e-05)
(0.000162064 0.00886387 0.00022925)
(0.00029217 0.0106518 0.000212348)
(0.00129599 0.0111879 0.000373263)
(0.00169942 0.00948576 0.000449293)
(0.000687318 0.00786657 0.000386102)
(-0.015337 0.0113578 0.00540302)
(-0.0219929 0.0100999 0.00382143)
(-0.0261247 0.00484009 0.00208899)
(-0.0250287 0.0010983 0.00117906)
(-0.0264213 -0.00090201 0.000966904)
(-0.0265793 -0.00117411 0.000407764)
(-0.0283323 -0.00176816 6.43984e-05)
(-0.0278204 -0.00173679 -0.000415667)
(-0.0276607 -0.00127087 -0.000414072)
(-0.0274953 -0.000556062 -0.000719128)
(-0.0275405 -0.000614211 -0.000809806)
(-0.0264741 -0.000124078 -0.000621237)
(-0.0245523 0.000670259 -0.000479984)
(-0.0223304 0.00072476 -0.000553465)
(-0.0196676 0.00125108 -0.000838798)
(-0.0165452 0.00202622 -0.00124235)
(-0.0132874 0.00260648 -0.00158095)
(-0.010493 0.00322183 -0.00177432)
(-0.00799727 0.00366793 -0.00189438)
(-0.00563336 0.00393037 -0.00201328)
(-0.00325679 0.00428423 -0.00212703)
(-0.000828867 0.00487179 -0.00222854)
(0.0017358 0.00543641 -0.00224404)
(0.00428509 0.00598221 -0.00200885)
(0.0061066 0.00631939 -0.0018672)
(0.00743298 0.00609488 -0.00184465)
(0.00893901 0.00545033 -0.00180326)
(0.0109288 0.0042802 -0.00217345)
(0.0137994 0.00381071 -0.00251702)
(0.017533 0.00480325 -0.00181723)
(0.0203371 0.00344062 -0.000906127)
(0.0234548 0.00187458 -0.000817175)
(0.025525 0.00495691 -0.00130101)
(0.0272256 0.000578038 -0.00170802)
(0.0358695 -0.00650234 -0.000188898)
(0.0296277 0.000420125 0.00173345)
(0.010362 0.00240549 0.00150984)
(0.0017724 -0.00222779 0.000552113)
(-0.0016557 -0.000577871 0.000253894)
(-0.0029556 0.00387348 0.000218168)
(-0.00305328 0.0078122 0.000218729)
(-0.00225672 0.00961784 0.000248942)
(-0.000855615 0.00949009 0.000323574)
(9.77518e-05 0.00873024 0.000311782)
(-0.000267124 0.00784529 0.000183427)
(-0.0395461 0.000336416 0.000501845)
(-0.0369453 -0.00194951 -0.000423005)
(-0.0353321 -0.00219441 -0.00031297)
(-0.0343803 -0.00413087 -0.000731657)
(-0.0322547 -0.00530701 -0.000509743)
(-0.0324078 -0.00664647 -0.000514448)
(-0.0304195 -0.00653652 -0.000727678)
(-0.0300491 -0.00616819 -0.0005955)
(-0.0284125 -0.00536203 -0.000826021)
(-0.0269943 -0.00425684 -0.000855034)
(-0.0255015 -0.00222336 -0.00095439)
(-0.0238086 -0.000192224 -0.000977812)
(-0.0220418 0.00138274 -0.00112373)
(-0.0200747 0.00293742 -0.001242)
(-0.017645 0.00406456 -0.00133622)
(-0.014934 0.00466351 -0.00138975)
(-0.0121596 0.00504332 -0.00144235)
(-0.00938333 0.00536889 -0.00152667)
(-0.00670359 0.00569627 -0.00165359)
(-0.0040306 0.00607109 -0.00177478)
(-0.00142317 0.00644071 -0.00171137)
(0.000864666 0.00714125 -0.00138138)
(0.00201561 0.00803764 -0.00178927)
(0.00352011 0.00865976 -0.00259122)
(0.00637528 0.00880482 -0.00231976)
(0.00976819 0.00818114 -0.00154109)
(0.0129763 0.00687678 -0.000907136)
(0.0151104 0.00547808 -0.000168706)
(0.0163226 0.00411051 0.000602877)
(0.0172033 0.0019859 0.000488747)
(0.0184972 0.0011686 -0.000274464)
(0.0225129 0.00202443 -0.000407448)
(0.0278218 -0.0012452 -0.000490963)
(0.0287765 -0.00295853 0.000128545)
(0.0236205 0.00182942 0.00167581)
(0.0147239 0.00317655 0.00162885)
(0.00582513 0.00147423 0.00066204)
(-0.000438965 0.00251888 0.000360094)
(-0.00293901 0.00452395 0.000294648)
(-0.00300244 0.00590956 0.000269766)
(-0.00206234 0.00670115 0.000261783)
(-0.000576272 0.00673755 0.000265735)
(8.65303e-05 0.00660678 0.000229303)
(0.00220478 0.00630092 0.000122102)
(-0.0420556 0.00201378 -0.00046562)
(-0.0392707 0.00265218 -0.00110505)
(-0.0371674 0.00113474 -0.00106885)
(-0.0348511 0.000488435 -0.00119284)
(-0.033722 0.000764313 -0.00119667)
(-0.0324865 0.000112431 -0.00133653)
(-0.0314124 0.000589816 -0.00122429)
(-0.0306814 0.000665041 -0.00133093)
(-0.0292524 0.00138168 -0.00126967)
(-0.0281352 0.00175934 -0.00128261)
(-0.0265345 0.00259404 -0.00123456)
(-0.0245401 0.0032638 -0.00123105)
(-0.02222 0.00410429 -0.00124641)
(-0.0195768 0.0050222 -0.00130518)
(-0.0167321 0.00596215 -0.0013951)
(-0.0138407 0.00679235 -0.00149479)
(-0.0109609 0.00751969 -0.00160487)
(-0.00808921 0.00813834 -0.00168872)
(-0.0052745 0.00875463 -0.0016604)
(-0.00285194 0.00943243 -0.00140813)
(-0.000983809 0.0101201 -0.00104093)
(-0.000328866 0.0107772 -0.00183856)
(0.0014558 0.011829 -0.00301847)
(0.00568831 0.0114092 -0.00151727)
(0.00786011 0.00789641 0.000750778)
(0.00813251 0.0045717 0.0017072)
(0.00817302 0.00289205 0.00170536)
(0.00856623 0.00242767 0.00135286)
(0.00976903 0.00240066 0.000792626)
(0.0116792 0.00198734 6.51398e-05)
(0.0143713 0.00157485 -0.00038176)
(0.0184962 0.00113094 -0.000301129)
(0.0215135 -0.00216391 -0.000183687)
(0.0208216 -0.00318031 0.000535816)
(0.0149391 0.0027323 0.00152517)
(0.00702244 0.00657159 0.00104114)
(0.0018236 0.00558136 0.000351062)
(-0.00124742 0.00419394 0.000311382)
(-0.00257406 0.00432125 0.000269592)
(-0.00259108 0.00497209 0.000219031)
(-0.00205709 0.00523813 0.000197785)
(-0.00104505 0.00523687 0.000191501)
(-0.000602348 0.0045345 0.000161243)
(0.00115338 0.00434036 0.000130545)
(-0.0439855 0.00081933 -0.000948506)
(-0.0404803 0.00056264 -0.00101358)
(-0.040811 0.000857602 -0.000792285)
(-0.0367945 0.000388124 -0.00128344)
(-0.0361894 -3.2482e-05 -0.000854599)
(-0.0345961 6.17493e-05 -0.00120021)
(-0.0326005 -0.000530642 -0.00103874)
(-0.0316771 -0.000186914 -0.00115604)
(-0.0298545 0.000305156 -0.00120856)
(-0.0281849 0.000641257 -0.00123971)
(-0.0265709 0.00174965 -0.00130255)
(-0.0245227 0.00268901 -0.00134399)
(-0.0226352 0.00394899 -0.0013788)
(-0.0203977 0.00513025 -0.00143281)
(-0.0180452 0.00627894 -0.00147331)
(-0.0154135 0.0072874 -0.00150575)
(-0.0126778 0.0081702 -0.0015198)
(-0.00995347 0.00900462 -0.00148906)
(-0.00740291 0.00984095 -0.0013875)
(-0.0052287 0.0106285 -0.00124574)
(-0.00336139 0.011186 -0.00124317)
(-0.00177809 0.0117045 -0.00204054)
(0.000622149 0.0126448 -0.00283012)
(0.00470659 0.0113251 -0.000476546)
(0.0033548 0.00535712 0.002531)
(0.000413793 0.00152626 0.00243765)
(-0.000543096 0.000559919 0.00126105)
(-0.00030334 0.00016731 0.000650956)
(0.000803228 -9.08937e-05 0.00035974)
(0.0026214 -0.000322705 0.000207478)
(0.00476744 -0.000769839 0.00010779)
(0.00675361 -0.00131133 0.000178139)
(0.00830763 -0.00178484 0.000446158)
(0.00749535 -0.00163633 0.000435888)
(0.00404383 0.00111538 0.000320677)
(0.000352497 0.00579099 0.000359767)
(-0.0011349 0.00715042 0.000210359)
(-0.00137617 0.00513654 0.000265048)
(-0.00216222 0.00378576 0.0002869)
(-0.00252257 0.00355248 0.000218461)
(-0.00233046 0.00373632 0.000180203)
(-0.00186229 0.00383493 0.000155804)
(-0.00119105 0.00391833 0.000147384)
(-0.000767388 0.00330115 0.000117003)
(-0.000274603 0.00336207 0.000123727)
(-0.0441577 0.00320757 -0.0012632)
(-0.0384373 0.00446884 -0.00058454)
(-0.0392161 0.00453207 -0.00098024)
(-0.0363591 0.00388964 -0.00111886)
(-0.0350199 0.004045 -0.00105823)
(-0.0344112 0.00435604 -0.00139951)
(-0.0318403 0.00381291 -0.00123476)
(-0.0322819 0.00485828 -0.00152179)
(-0.0292438 0.00454453 -0.00148507)
(-0.0290713 0.00554876 -0.00154782)
(-0.0265516 0.00580588 -0.00162084)
(-0.0251273 0.00659771 -0.00160727)
(-0.0228319 0.00729662 -0.00166392)
(-0.0205662 0.00813593 -0.0016756)
(-0.0180814 0.00906559 -0.00168654)
(-0.015502 0.0100125 -0.00167412)
(-0.0129019 0.0108999 -0.00164962)
(-0.010307 0.0116706 -0.0016373)
(-0.00768948 0.0122948 -0.00167893)
(-0.00490357 0.0127047 -0.00179722)
(-0.00182625 0.0129949 -0.00200003)
(0.0012536 0.0131903 -0.00166821)
(0.00363954 0.0113126 0.000693525)
(0.000982879 0.00616657 0.00307343)
(-0.00249081 0.00300235 0.00211702)
(-0.00363704 0.00161908 0.000666857)
(-0.00388671 0.00042429 0.000239519)
(-0.00371517 -0.000418031 0.000109734)
(-0.00336248 -0.000967303 7.44559e-05)
(-0.00285008 -0.00125666 7.892e-05)
(-0.00233455 -0.00143757 9.94607e-05)
(-0.00208445 -0.00134571 0.000127162)
(-0.00229404 -0.000746377 0.000140301)
(-0.00328262 0.000129335 0.000135859)
(-0.00456335 0.00201184 0.000142027)
(-0.00467485 0.00463286 0.000138233)
(-0.00343911 0.00503334 0.000218499)
(-0.00276352 0.00375097 0.0002651)
(-0.00273932 0.00305177 0.000203188)
(-0.00262816 0.00287798 0.00015402)
(-0.00234613 0.00294049 0.000129407)
(-0.00190345 0.00298192 0.000118167)
(-0.00153404 0.00305204 0.000113621)
(-0.00110191 0.00289118 8.63346e-05)
(-0.00143493 0.00293449 0.000111706)
(-0.0445287 0.00474652 -0.00120412)
(-0.0346292 0.000801224 -0.00014165)
(-0.0381337 0.00558826 -0.000466205)
(-0.0321283 0.00350595 -0.000711366)
(-0.0329407 0.00480114 -0.000448867)
(-0.0296601 0.00520562 -0.000845372)
(-0.0294909 0.00501043 -0.000743906)
(-0.0277935 0.00590251 -0.00103661)
(-0.0265246 0.00604404 -0.00102181)
(-0.0254139 0.0069107 -0.00128853)
(-0.0235825 0.00737589 -0.00133437)
(-0.0221564 0.00846914 -0.00146145)
(-0.0200533 0.0091351 -0.00154698)
(-0.0179636 0.0101425 -0.00157163)
(-0.0154665 0.0108987 -0.00160782)
(-0.0127366 0.0116224 -0.00161046)
(-0.00971825 0.0121777 -0.00157271)
(-0.00647492 0.0125282 -0.00147694)
(-0.00308828 0.01252 -0.00119295)
(-1.72583e-05 0.012015 -0.000590068)
(0.00161816 0.0110041 0.000462941)
(0.000985182 0.00889031 0.00202942)
(-0.0018157 0.00570544 0.00287431)
(-0.00424923 0.00321779 0.00168563)
(-0.00471335 0.0014794 0.000507119)
(-0.00452809 0.000438839 0.000147876)
(-0.00423835 -0.000119143 1.14254e-05)
(-0.00404241 -0.000539526 -3.1077e-05)
(-0.00398589 -0.000939674 -2.43808e-05)
(-0.00405529 -0.00129433 1.86738e-07)
(-0.00427173 -0.00153839 2.66831e-05)
(-0.00464275 -0.00150298 6.42014e-05)
(-0.0050522 -0.0010416 0.000102248)
(-0.00551119 -0.000137579 0.000113208)
(-0.0058212 0.00135976 0.0001142)
(-0.00516161 0.00280082 0.000166975)
(-0.0444133 0.00455529 -0.000611611)
(-0.0376876 0.00082597 -0.000444311)
(-0.0391078 0.00602732 0.000450505)
(-0.0333537 0.00351783 -0.000639201)
(-0.0322049 0.00513534 0.000237059)
(-0.0288038 0.00611928 -0.00011799)
(-0.0270042 0.00628469 -0.000103655)
(-0.0250837 0.00761642 5.61019e-05)
(-0.0224772 0.00765112 -0.000278033)
(-0.0207502 0.00916194 -0.000150196)
(-0.0189229 0.00926954 -0.000224713)
(-0.0164371 0.0103825 -0.000354574)
(-0.0145903 0.0107617 -0.000290236)
(-0.0120703 0.0114005 -0.00031644)
(-0.00973119 0.0116926 -0.000231684)
(-0.00730015 0.0117875 -6.61443e-05)
(-0.00516077 0.0113962 0.000270339)
(-0.00358067 0.0104913 0.000814881)
(-0.00300944 0.00908779 0.00150578)
(-0.00358928 0.00765433 0.00208072)
(-0.00484585 0.00641467 0.0023268)
(-0.00608913 0.0050888 0.00204544)
(-0.00661824 0.00356689 0.00115454)
(-0.00625563 0.00210507 0.000399799)
(-0.00572279 0.0012091 9.45678e-05)
(-0.0052663 0.000621888 -3.39891e-05)
(-0.0048647 0.000156456 -7.89649e-05)
(-0.00454572 -0.000225448 -8.82821e-05)
(-0.00434882 -0.000527098 -8.0318e-05)
(-0.00431413 -0.000759275 -5.70455e-05)
(-0.00447109 -0.000911863 -2.12589e-05)
(-0.00480185 -0.000893611 1.98409e-05)
(-0.00518107 -0.000601952 5.79949e-05)
(-0.00550575 -7.87445e-05 8.84963e-05)
(-0.00550529 0.00067172 0.000118388)
(-0.0404494 0.00265347 0.00036013)
(-0.0438854 -0.00101419 -0.000810821)
(-0.0401525 0.00288289 0.00109497)
(-0.038399 0.00134465 -0.000689557)
(-0.0339397 0.0019363 0.000506379)
(-0.0343319 0.00256691 0.000400145)
(-0.028958 0.0037502 0.000564441)
(-0.0305192 0.00301204 0.000544253)
(-0.0230564 0.00469191 0.000635522)
(-0.0257861 0.00523584 0.00102617)
(-0.0198264 0.00528115 0.000750503)
(-0.0195812 0.00657413 0.00112433)
(-0.0168087 0.00643296 0.00112573)
(-0.0150157 0.00688636 0.00129095)
(-0.0134553 0.00665056 0.00148218)
(-0.0121533 0.00627526 0.00168684)
(-0.0113939 0.00553694 0.00185735)
(-0.0109421 0.00476448 0.00188792)
(-0.0107218 0.00404711 0.00172056)
(-0.0103754 0.00344322 0.00139833)
(-0.00973177 0.00282366 0.00101739)
(-0.00879578 0.00206782 0.000610232)
(-0.00773616 0.00132551 0.000270975)
(-0.00681852 0.000776033 7.55205e-05)
(-0.00608598 0.000374164 -1.71446e-05)
(-0.00548499 9.606e-05 -5.88198e-05)
(-0.0050206 -0.000118592 -7.78767e-05)
(-0.00469685 -0.000306953 -8.47682e-05)
(-0.00451178 -0.000490058 -8.26366e-05)
(-0.00445834 -0.000655721 -7.30495e-05)
(-0.00453805 -0.000776179 -5.59761e-05)
(-0.00472761 -0.000798972 -3.0216e-05)
(-0.00493955 -0.000673257 4.30087e-07)
(-0.00508333 -0.000400719 2.74668e-05)
(-0.00500544 2.8229e-05 5.0357e-05)
(-0.0359636 -0.00236918 -0.00039976)
(-0.0478645 0.00397914 0.000542267)
(-0.0374827 -0.00142758 -0.000281464)
(-0.0424351 0.00234308 0.000179449)
(-0.0329924 0.000236093 -0.000295232)
(-0.0380441 0.00108029 0.000679934)
(-0.0316118 0.0014611 0.000464762)
(-0.0336062 0.000835666 0.000221775)
(-0.0273217 0.00127185 0.000863202)
(-0.0308988 0.00198718 0.00108214)
(-0.0240177 0.000938771 0.000618523)
(-0.0258619 0.00236576 0.00155767)
(-0.0220157 0.00149105 0.00101187)
(-0.0211413 0.00211078 0.00144889)
(-0.0191522 0.00183526 0.0012687)
(-0.0175767 0.00185612 0.00125244)
(-0.0160507 0.00166561 0.00105575)
(-0.0145545 0.00146674 0.000840937)
(-0.0131054 0.00122269 0.000611896)
(-0.0116462 0.00101326 0.00041915)
(-0.0102208 0.00085692 0.000260546)
(-0.00889309 0.000711755 0.000126571)
(-0.0077371 0.000549075 2.45466e-05)
(-0.00678489 0.00039374 -3.76375e-05)
(-0.00602116 0.000276898 -6.98629e-05)
(-0.00541755 0.000174123 -8.75312e-05)
(-0.0049584 7.70822e-05 -9.78168e-05)
(-0.00463519 -1.54709e-05 -0.00010524)
(-0.0044449 -9.80839e-05 -0.000111599)
(-0.00438296 -0.000170539 -0.0001166)
(-0.00443999 -0.000229418 -0.000119014)
(-0.00458031 -0.000261328 -0.0001169)
(-0.00473231 -0.00024894 -0.000109364)
(-0.0048132 -0.000195879 -9.70597e-05)
(-0.00470023 -9.29609e-05 -8.03036e-05)
(0.0753625 0.0259595 -0.0189795)
(0.0713996 0.00827495 -0.0136953)
(0.0742534 -0.00757324 -0.00488995)
(0.0805854 -0.0155089 0.000543864)
(0.089625 -0.0174973 -0.00043349)
(0.09984 -0.0157981 -0.00350452)
(0.105677 -0.0132078 -0.00131063)
(0.107471 -0.0136997 0.00483389)
(0.114833 -0.0167526 0.00592164)
(0.130466 -0.0163399 0.00132688)
(0.13954 -0.00458049 0.00109005)
(0.121689 0.0105145 0.00706482)
(0.0927671 0.0125259 0.0102711)
(0.075481 0.00709606 0.00853324)
(0.0654876 0.00343731 0.00542726)
(0.0597861 0.00123651 0.00310001)
(0.0566784 0.000348831 0.00219758)
(0.0539665 -0.000138133 0.00138046)
(0.0516666 -0.000576343 0.00176031)
(0.0493398 -0.00103323 0.00293134)
(0.0482781 -0.00221455 0.00299739)
(0.0475058 -0.00391233 0.00359342)
(0.0473356 -0.00437642 0.0031076)
(0.0502461 -0.00342178 -0.000616665)
(0.0542993 -0.00300848 -0.00318212)
(0.0578268 -0.00207872 -0.00251213)
(0.0591114 -0.000246197 -0.00144705)
(0.0590155 0.00140005 -0.000738675)
(0.0565499 0.00162716 0.000715166)
(0.0527065 -0.000801296 0.0014846)
(0.0528131 -0.00214636 0.000685339)
(0.0535368 -0.00119751 0.00146513)
(0.0517068 -0.00302798 0.00318233)
(0.0540328 -0.0052163 0.00273354)
(0.0591061 -0.0028695 0.00236238)
(0.0583617 -0.00299176 0.00388459)
(0.0584749 -0.00692435 0.00424859)
(0.0649855 -0.00146905 0.0031378)
(0.0616054 0.00459099 0.00329494)
(0.0519927 -0.0014352 0.00279474)
(0.0483236 -0.00373562 0.00191964)
(0.03758 0.00416139 0.00260136)
(0.0192007 0.00791888 0.00289642)
(0.0053983 0.0058675 0.00228984)
(0.0573475 0.00363317 -0.00555298)
(0.062558 -0.00588235 0.00903393)
(0.0495619 -0.00561239 0.0186394)
(0.0356796 -0.00306682 0.015478)
(0.0303908 -0.00292466 0.00603335)
(0.0289454 -0.00355427 -0.000240656)
(0.0300446 -0.00263847 -0.00170475)
(0.0329221 -0.000512863 -0.00167187)
(0.0355641 0.00100715 -0.00293745)
(0.0358487 0.00287901 -0.00554002)
(0.035822 0.00667553 -0.0044218)
(0.0354512 0.00807666 0.00165524)
(0.0348348 0.00529436 0.00409718)
(0.0350215 0.00374444 0.00366814)
(0.0315493 0.00358385 0.00554655)
(0.022279 0.00225469 0.00635186)
(0.0159281 0.000985584 0.00372949)
(0.013848 0.000458014 0.00146211)
(0.0131195 -0.000524641 0.00104975)
(0.0132241 -0.00173169 0.000297359)
(0.014421 -0.00189096 -0.001386)
(0.0161424 -0.000429816 -0.00310472)
(0.018362 0.00155059 -0.00456579)
(0.0211303 0.00244134 -0.00540014)
(0.0236037 0.00252273 -0.00549847)
(0.0256706 0.00263676 -0.00445042)
(0.0269895 0.00198704 -0.00278447)
(0.0278028 0.000604208 -0.00194849)
(0.0287807 -0.000416756 -0.00128269)
(0.029121 -0.00133076 -0.000524093)
(0.0294189 -0.00213802 0.000178338)
(0.0314982 -0.00264373 0.0012372)
(0.0349416 -0.00249871 -0.000155949)
(0.0371825 -0.00239817 -0.00239109)
(0.0400519 -0.0027726 -1.70822e-05)
(0.0430397 -0.00430741 0.00325912)
(0.0390445 -0.00865312 0.00229233)
(0.0339671 -0.0101621 0.00139193)
(0.0328273 -0.00401962 0.00213559)
(0.0270009 0.0051997 0.00111703)
(0.0168816 0.0125629 0.00030859)
(0.00902028 0.0148837 0.00124226)
(0.00480476 0.012332 0.00173102)
(0.00172686 0.00917184 0.00146145)
(0.0259781 -0.00104444 0.011392)
(0.0136012 -0.00539139 0.0184183)
(0.00332354 -0.00387385 0.0143438)
(-0.000445755 -0.00133522 0.006781)
(-0.00196806 -0.00327541 0.00301414)
(-0.00141518 -0.0068469 0.00140346)
(-0.00085105 -0.00878964 0.000821912)
(-0.000198127 -0.00904505 0.000959184)
(0.000626273 -0.00860921 0.00188302)
(0.000966722 -0.00819779 0.00300537)
(-0.000493196 -0.00696156 0.00378447)
(-0.00150729 -0.00278725 0.00390324)
(-0.00168705 0.00132006 0.00370385)
(-0.00263133 0.00247471 0.00280248)
(-0.00400434 0.00357076 0.00180364)
(-0.00563363 0.00445639 0.000717532)
(-0.00588237 0.00352579 -0.000938303)
(-0.00440835 0.00210819 -0.00238051)
(-0.00219025 0.00127666 -0.00296159)
(-0.000381929 0.000637072 -0.00327423)
(0.000842981 0.000162562 -0.003932)
(0.00211241 3.60765e-05 -0.00462005)
(0.00416658 0.000424542 -0.00494348)
(0.00715585 0.00115358 -0.00475214)
(0.0101314 0.00151702 -0.00407059)
(0.0122259 0.00145137 -0.00297357)
(0.0138987 0.00133393 -0.00154586)
(0.0153673 0.00073895 -0.0010037)
(0.0167298 8.76472e-05 -0.00171381)
(0.0182142 -0.000352531 -0.00169767)
(0.0195116 -0.00155167 -0.00146068)
(0.0215875 -0.00275667 -0.00235784)
(0.0254676 -0.00275757 -0.00304341)
(0.0285806 -0.00199778 -0.00369918)
(0.0337991 -0.00236535 -0.00268987)
(0.0371717 -0.00670392 0.00284161)
(0.0274193 -0.00929413 0.0062835)
(0.0169521 -0.00634419 0.0026558)
(0.00888114 -0.000611103 -0.000704019)
(0.00381446 0.00499282 -0.000345583)
(0.00171613 0.00867031 0.000525035)
(0.00118131 0.0109193 0.00093608)
(0.0016918 0.0114529 0.0013707)
(0.00192546 0.00969388 0.00140712)
(0.000832357 0.00801715 0.0011553)
(-0.0301537 0.00460153 0.00733965)
(-0.0296698 0.00525136 0.00432473)
(-0.0290906 0.00222788 0.00229006)
(-0.02711 -0.000414877 0.00134787)
(-0.025957 -0.00168512 0.000871784)
(-0.0252708 -0.00253459 -0.000122757)
(-0.0253663 -0.00302545 -0.000704692)
(-0.024981 -0.00272557 -0.00124977)
(-0.0248117 -0.00183471 -0.00118855)
(-0.0248682 -0.000794415 -0.00145528)
(-0.0253906 -0.0001482 -0.00162159)
(-0.0248487 0.000619948 -0.00133502)
(-0.0232693 0.00138104 -0.000966833)
(-0.0214386 0.00157831 -0.00105636)
(-0.0193039 0.00213282 -0.00153225)
(-0.0166296 0.00270047 -0.00236029)
(-0.0136556 0.00283704 -0.00314886)
(-0.010992 0.00306656 -0.00358108)
(-0.00872543 0.00320301 -0.00374571)
(-0.00680076 0.00309738 -0.00390321)
(-0.00499636 0.00304285 -0.00408661)
(-0.00318701 0.00324287 -0.00415571)
(-0.00141259 0.00355901 -0.00407555)
(0.000417701 0.00373719 -0.00374153)
(0.00229135 0.00360983 -0.00322604)
(0.00406917 0.00297018 -0.00267679)
(0.00602026 0.00210443 -0.00232648)
(0.00810431 0.000977801 -0.00257792)
(0.0100203 -2.96527e-05 -0.00292437)
(0.0123594 -0.000312564 -0.00242366)
(0.0150941 -0.000824581 -0.00217405)
(0.0183074 -0.00112273 -0.00296341)
(0.022472 -0.000199935 -0.00356517)
(0.0257392 -0.00224213 -0.00332548)
(0.0309363 -0.00545938 -0.00016278)
(0.0279303 -0.000333989 0.00404126)
(0.0131919 0.00192711 0.00421331)
(0.00320611 -0.00165877 0.00182412)
(-0.00094423 -0.000397069 0.000749096)
(-0.00241249 0.00384403 0.0006274)
(-0.00265871 0.00779316 0.000714658)
(-0.00198709 0.00972854 0.000854785)
(-0.000637409 0.00963707 0.00100881)
(0.000292009 0.0088424 0.000944132)
(-8.9724e-05 0.00798195 0.000654329)
(-0.0413891 -0.00115477 0.000424513)
(-0.0386238 -0.0018682 -0.000656328)
(-0.0370629 -0.00209174 -0.000883598)
(-0.0357995 -0.00322206 -0.00134928)
(-0.034559 -0.00435011 -0.00133358)
(-0.0337092 -0.00518092 -0.00137692)
(-0.0325764 -0.00531042 -0.00161451)
(-0.0316497 -0.00479857 -0.00148782)
(-0.0302989 -0.00414518 -0.00172819)
(-0.0289024 -0.00314051 -0.00186862)
(-0.0272736 -0.00149772 -0.0020532)
(-0.025487 0.000193045 -0.00216404)
(-0.0236571 0.00149561 -0.00246245)
(-0.0216294 0.00281445 -0.00276317)
(-0.0192067 0.00375917 -0.00301698)
(-0.0165833 0.00413613 -0.003158)
(-0.0139886 0.00419856 -0.00320239)
(-0.0115368 0.00409955 -0.00322632)
(-0.0093677 0.00391538 -0.00328023)
(-0.0074627 0.00369571 -0.00333767)
(-0.00575751 0.00345414 -0.00328206)
(-0.00391358 0.00342604 -0.00297718)
(-0.00181056 0.00341532 -0.00260442)
(5.79158e-05 0.0023895 -0.00220807)
(0.00172639 0.00100117 -0.00153701)
(0.00372351 6.5757e-05 -0.0010248)
(0.00583055 -0.000628863 -0.000797352)
(0.00780257 -0.000994552 -0.000511111)
(0.010133 -0.000900545 -0.0002471)
(0.0128362 -0.000982713 -0.000861591)
(0.0155572 -0.00104578 -0.00194558)
(0.0196596 -0.00130438 -0.00189375)
(0.0238685 -0.00383143 -0.00134761)
(0.0245068 -0.00371791 0.000386892)
(0.0206718 0.0017264 0.0036003)
(0.0139515 0.00345523 0.00396678)
(0.00584384 0.00181389 0.00221679)
(-0.000541908 0.002755 0.0011979)
(-0.00291711 0.00472522 0.000815474)
(-0.00296019 0.00612276 0.000782596)
(-0.00200646 0.00691737 0.000782899)
(-0.000543281 0.00693083 0.00078721)
(0.000172692 0.00672315 0.00067262)
(0.00216385 0.00628093 0.000479343)
(-0.0443709 0.00103563 -0.00165262)
(-0.0417255 0.000270514 -0.00232722)
(-0.0395786 -0.000298849 -0.00229026)
(-0.0375093 -0.00103615 -0.00245441)
(-0.0360717 -0.00102586 -0.00257814)
(-0.0348496 -0.00133631 -0.00272802)
(-0.0337677 -0.00103339 -0.00273562)
(-0.0327115 -0.000562088 -0.00281474)
(-0.0314726 6.52134e-05 -0.00280531)
(-0.0301966 0.00076251 -0.00281132)
(-0.0286498 0.00152977 -0.002747)
(-0.0267314 0.0022493 -0.00270967)
(-0.0245172 0.00295181 -0.0027242)
(-0.0220251 0.00368614 -0.0027946)
(-0.0193391 0.00433235 -0.00291321)
(-0.0166521 0.00477564 -0.00302104)
(-0.0140747 0.0050417 -0.00311876)
(-0.0116614 0.00511116 -0.0031883)
(-0.00943618 0.00506157 -0.00318737)
(-0.0073976 0.00499649 -0.00304968)
(-0.00524787 0.00492236 -0.00263449)
(-0.00314198 0.00435097 -0.00211551)
(-0.00229045 0.00230441 -0.00129247)
(-0.00162779 0.000503079 0.000502567)
(-0.000410049 -0.000279343 0.00185258)
(0.00104428 -0.000565794 0.0019113)
(0.00261479 -0.000556681 0.00137188)
(0.00430198 -0.000348731 0.000690903)
(0.00639968 -0.000132329 -2.96849e-05)
(0.00885981 -0.000416217 -0.000867302)
(0.0115761 -0.00108883 -0.00138495)
(0.0150296 -0.00189097 -0.00112308)
(0.0171553 -0.00355519 -0.000720325)
(0.0162553 -0.00272541 0.000637029)
(0.0128228 0.00333125 0.00274392)
(0.00761075 0.00710128 0.00278112)
(0.00196003 0.00577977 0.0016428)
(-0.0014131 0.0042642 0.00107752)
(-0.00259793 0.00444891 0.00077954)
(-0.00257666 0.00511689 0.000649039)
(-0.00200386 0.00540003 0.000591219)
(-0.00100389 0.00537638 0.000569102)
(-0.000503689 0.00470617 0.000479021)
(0.00109469 0.00435787 0.000411763)
(-0.0468411 -0.000967912 -0.00225063)
(-0.0439765 -0.000828475 -0.00193642)
(-0.042011 -0.00081358 -0.00198015)
(-0.0397354 -0.00110101 -0.00230679)
(-0.0381265 -0.00133571 -0.00203597)
(-0.0365812 -0.00141428 -0.00232218)
(-0.0350283 -0.00169265 -0.00222317)
(-0.0337411 -0.00139645 -0.0023547)
(-0.0321793 -0.00103605 -0.00243487)
(-0.0306779 -0.000511377 -0.00250923)
(-0.0289619 0.000265116 -0.00262665)
(-0.0271765 0.00115434 -0.00270291)
(-0.0252699 0.00211498 -0.00277246)
(-0.0232109 0.00301929 -0.00286028)
(-0.0209793 0.00379525 -0.00293656)
(-0.0185246 0.00434344 -0.00299224)
(-0.0159523 0.00465673 -0.00302212)
(-0.0133555 0.00480333 -0.0030036)
(-0.0107911 0.0048565 -0.00290507)
(-0.0082832 0.0048266 -0.00268329)
(-0.00577431 0.00459289 -0.00225387)
(-0.00360924 0.00376545 -0.0015652)
(-0.00340061 0.00184566 -0.000364443)
(-0.00379841 0.000176472 0.00210709)
(-0.00384973 -0.000691621 0.00336416)
(-0.00304382 -0.000470708 0.0022788)
(-0.00245333 -0.000356087 0.00104454)
(-0.00172626 -0.000639472 0.000381563)
(-0.000548583 -0.0010244 4.42676e-05)
(0.001144 -0.00140069 -0.000130496)
(0.00311379 -0.00191516 -0.000291247)
(0.00491788 -0.00241462 -0.000252796)
(0.00648037 -0.00263518 0.000117623)
(0.00649554 -0.0021481 0.000182722)
(0.00416288 0.000924217 0.000372097)
(0.00127665 0.00605869 0.0011079)
(-0.000546972 0.00744724 0.00132178)
(-0.0014871 0.00521706 0.0011382)
(-0.00226803 0.00394013 0.000856332)
(-0.00258063 0.00373894 0.000631626)
(-0.00235805 0.00391991 0.000526783)
(-0.00186435 0.00401412 0.000461183)
(-0.00118981 0.00405228 0.000433918)
(-0.000748607 0.00348647 0.000349097)
(-0.000256111 0.00340376 0.000346116)