/*--------------------------------*- C++ -*----------------------------------*\
| =========                 |                                                 |
| \\      /  F ield         | OpenFOAM: The Open Source CFD Toolbox           |
|  \\    /   O peration     | Version:  2.3.1                                 |
|   \\  /    A nd           | Web:      www.OpenFOAM.org                      |
|    \\/     M anipulation  |                                                 |
\*---------------------------------------------------------------------------*/
FoamFile
{
    version     2.0;
    format      ascii;
    class       volScalarField;
    location    "15";
    object      p;
}
// * * * * * * * * * * * * * * * * * * * * * * * * * * * * * * * * * * * * * //

dimensions      [0 2 -2 0 0 0 0];

internalField   nonuniform List<scalar> 
303072
(
0.807787
0.807775
0.807767
0.807784
0.807788
0.807764
0.807738
0.80764
0.807517
0.807372
0.807134
0.806947
0.807779
0.807776
0.807776
0.807794
0.807796
0.807771
0.807739
0.807641
0.807516
0.80737
0.80714
0.806952
0.807775
0.807775
0.807775
0.807795
0.807798
0.807773
0.807738
0.80764
0.807513
0.807365
0.807141
0.806954
0.80777
0.807771
0.807775
0.807798
0.807802
0.807776
0.807738
0.807638
0.807509
0.80736
0.807141
0.806958
0.807767
0.807769
0.807774
0.807799
0.807804
0.807777
0.807737
0.807636
0.807506
0.807357
0.80714
0.806958
0.807765
0.807767
0.807773
0.807799
0.807805
0.807778
0.807737
0.807635
0.807504
0.807355
0.80714
0.806959
0.807765
0.807767
0.807773
0.807799
0.807805
0.807778
0.807737
0.807635
0.807504
0.807355
0.80714
0.806959
0.807767
0.807769
0.807774
0.807799
0.807804
0.807777
0.807737
0.807636
0.807506
0.807357
0.80714
0.806958
0.80777
0.807771
0.807775
0.807798
0.807802
0.807776
0.807738
0.807638
0.807509
0.807361
0.807141
0.806958
0.807775
0.807775
0.807776
0.807795
0.807798
0.807773
0.807738
0.80764
0.807513
0.807365
0.807141
0.806954
0.807779
0.807776
0.807776
0.807794
0.807796
0.807771
0.807739
0.807641
0.807516
0.80737
0.80714
0.806952
0.807787
0.807775
0.807767
0.807784
0.807788
0.807765
0.807738
0.80764
0.807517
0.807372
0.807134
0.806947
0.697473
0.697436
0.697413
0.697424
0.697426
0.697404
0.69738
0.697278
0.697159
0.697008
0.696754
0.696562
0.697468
0.697435
0.697419
0.697432
0.697431
0.697407
0.697378
0.697279
0.697156
0.697004
0.696763
0.69657
0.697471
0.697436
0.697418
0.697433
0.697433
0.697408
0.697376
0.697277
0.697151
0.696999
0.696765
0.696572
0.697469
0.697434
0.697417
0.697436
0.697436
0.69741
0.697374
0.697274
0.697146
0.696994
0.696765
0.696576
0.697469
0.697432
0.697416
0.697436
0.697438
0.69741
0.697373
0.697271
0.697142
0.69699
0.696764
0.696578
0.697468
0.697431
0.697415
0.697437
0.697439
0.697411
0.697372
0.69727
0.697141
0.696987
0.696763
0.696579
0.697468
0.697431
0.697415
0.697437
0.697439
0.697411
0.697373
0.69727
0.697141
0.696987
0.696763
0.696579
0.697469
0.697432
0.697416
0.697436
0.697438
0.697411
0.697373
0.697271
0.697142
0.69699
0.696764
0.696578
0.697469
0.697434
0.697417
0.697436
0.697436
0.69741
0.697375
0.697274
0.697146
0.696994
0.696765
0.696576
0.697471
0.697436
0.697419
0.697434
0.697434
0.697409
0.697376
0.697277
0.697151
0.696999
0.696765
0.696572
0.697468
0.697435
0.697419
0.697432
0.697431
0.697407
0.697378
0.697279
0.697156
0.697004
0.696763
0.69657
0.697473
0.697436
0.697413
0.697425
0.697426
0.697404
0.69738
0.697279
0.697159
0.697008
0.696754
0.696562
0.586959
0.587
0.587015
0.587046
0.58706
0.587053
0.587035
0.58693
0.586816
0.586656
0.586376
0.586171
0.586924
0.586997
0.587032
0.587067
0.587079
0.587064
0.587039
0.586934
0.58681
0.586647
0.586386
0.586178
0.586907
0.586992
0.587032
0.58707
0.587084
0.587068
0.587039
0.586934
0.586805
0.58664
0.586388
0.58618
0.586891
0.586983
0.587029
0.587074
0.58709
0.587073
0.58704
0.586932
0.5868
0.586634
0.586389
0.586185
0.586884
0.586978
0.587027
0.587075
0.587093
0.587075
0.587039
0.586929
0.586795
0.586629
0.586388
0.586187
0.586879
0.586974
0.587025
0.587076
0.587094
0.587076
0.587039
0.586928
0.586793
0.586627
0.586387
0.586189
0.586879
0.586974
0.587025
0.587076
0.587094
0.587076
0.587039
0.586928
0.586793
0.586627
0.586387
0.586189
0.586884
0.586978
0.587027
0.587076
0.587093
0.587075
0.587039
0.586929
0.586795
0.586629
0.586388
0.586187
0.586891
0.586983
0.587029
0.587075
0.58709
0.587073
0.58704
0.586932
0.5868
0.586634
0.586389
0.586185
0.586907
0.586992
0.587032
0.58707
0.587084
0.587069
0.587039
0.586934
0.586805
0.58664
0.586388
0.58618
0.586924
0.586998
0.587033
0.587067
0.587079
0.587064
0.58704
0.586934
0.58681
0.586648
0.586387
0.586178
0.586959
0.587
0.587015
0.587046
0.58706
0.587053
0.587035
0.58693
0.586816
0.586657
0.586376
0.586171
0.476822
0.476723
0.476689
0.476701
0.476712
0.476711
0.476699
0.476592
0.476486
0.476311
0.475999
0.475768
0.476877
0.476742
0.476718
0.476726
0.476726
0.476711
0.476684
0.476583
0.476462
0.476285
0.476007
0.475778
0.476895
0.476748
0.476712
0.476731
0.476733
0.476713
0.476681
0.476579
0.476449
0.476273
0.476008
0.47578
0.476903
0.476746
0.476709
0.476734
0.476737
0.476715
0.476678
0.476574
0.47644
0.476264
0.476007
0.475784
0.476907
0.476745
0.476706
0.476735
0.47674
0.476715
0.476676
0.476571
0.476434
0.476258
0.476006
0.475787
0.476908
0.476743
0.476703
0.476736
0.476741
0.476716
0.476675
0.476569
0.476431
0.476255
0.476005
0.475788
0.476908
0.476743
0.476703
0.476736
0.476741
0.476716
0.476675
0.476569
0.476431
0.476255
0.476005
0.475788
0.476907
0.476745
0.476706
0.476735
0.47674
0.476716
0.476676
0.476571
0.476434
0.476258
0.476006
0.475787
0.476903
0.476746
0.476709
0.476734
0.476737
0.476715
0.476678
0.476574
0.47644
0.476264
0.476007
0.475784
0.476896
0.476748
0.476712
0.476731
0.476733
0.476713
0.476681
0.476579
0.476449
0.476273
0.476008
0.47578
0.476878
0.476742
0.476718
0.476726
0.476726
0.476711
0.476685
0.476583
0.476462
0.476285
0.476007
0.475778
0.476822
0.476723
0.476689
0.476701
0.476712
0.476711
0.476699
0.476592
0.476486
0.476311
0.475999
0.475768
0.366081
0.366227
0.366246
0.366303
0.366333
0.366354
0.366347
0.366242
0.366137
0.365949
0.365633
0.365375
0.365936
0.366229
0.366261
0.366327
0.366354
0.366356
0.366337
0.366238
0.36611
0.365919
0.365636
0.365379
0.365879
0.366218
0.366258
0.366329
0.366357
0.366355
0.36633
0.366231
0.366097
0.365907
0.365631
0.365377
0.365843
0.366199
0.36625
0.366331
0.366363
0.366358
0.366328
0.366226
0.366086
0.365896
0.365629
0.365381
0.365828
0.366188
0.366244
0.366331
0.366364
0.366358
0.366326
0.366222
0.36608
0.36589
0.365627
0.365383
0.365821
0.366183
0.36624
0.366331
0.366365
0.366358
0.366325
0.36622
0.366077
0.365887
0.365626
0.365385
0.365821
0.366183
0.36624
0.366331
0.366365
0.366358
0.366325
0.36622
0.366077
0.365887
0.365626
0.365385
0.365828
0.366188
0.366244
0.366331
0.366364
0.366358
0.366326
0.366222
0.36608
0.36589
0.365627
0.365383
0.365843
0.366199
0.36625
0.366331
0.366363
0.366358
0.366328
0.366226
0.366087
0.365896
0.365629
0.365381
0.365879
0.366218
0.366258
0.366329
0.366358
0.366355
0.36633
0.366231
0.366097
0.365907
0.365631
0.365377
0.365936
0.366229
0.366261
0.366327
0.366354
0.366357
0.366337
0.366238
0.36611
0.365919
0.365636
0.365379
0.366081
0.366227
0.366246
0.366303
0.366333
0.366354
0.366348
0.366242
0.366138
0.36595
0.365633
0.365375
0.255972
0.255942
0.255938
0.255953
0.255969
0.25598
0.255964
0.255875
0.255769
0.255571
0.255254
0.254962
0.255954
0.255917
0.255938
0.255964
0.255978
0.255982
0.255958
0.255868
0.255743
0.255545
0.255254
0.254964
0.255949
0.255911
0.255945
0.255971
0.255986
0.255984
0.255954
0.255861
0.255728
0.25553
0.255246
0.254964
0.255944
0.255901
0.255943
0.255973
0.255991
0.255985
0.255952
0.255855
0.255716
0.255518
0.255242
0.254969
0.255942
0.255896
0.25594
0.255974
0.255992
0.255986
0.25595
0.255851
0.255709
0.255512
0.25524
0.254973
0.255941
0.255893
0.255938
0.255973
0.255993
0.255986
0.255948
0.255849
0.255706
0.255508
0.255239
0.254975
0.255941
0.255893
0.255938
0.255973
0.255993
0.255986
0.255948
0.255849
0.255706
0.255508
0.255239
0.254975
0.255942
0.255896
0.25594
0.255974
0.255992
0.255986
0.25595
0.255851
0.255709
0.255512
0.25524
0.254973
0.255944
0.255901
0.255943
0.255973
0.255991
0.255986
0.255952
0.255855
0.255716
0.255518
0.255242
0.254969
0.255949
0.255911
0.255946
0.255971
0.255986
0.255984
0.255954
0.255861
0.255728
0.25553
0.255246
0.254964
0.255954
0.255917
0.255938
0.255964
0.255979
0.255982
0.255958
0.255868
0.255743
0.255545
0.255254
0.254964
0.255972
0.255942
0.255938
0.255953
0.255969
0.255981
0.255964
0.255875
0.255769
0.255571
0.255254
0.254962
0.145426
0.145508
0.145524
0.145569
0.145586
0.145598
0.145577
0.145497
0.14539
0.145181
0.144856
0.144531
0.145376
0.145493
0.14552
0.145573
0.145593
0.145599
0.145572
0.14549
0.145367
0.14516
0.144857
0.144536
0.145342
0.145482
0.145516
0.145575
0.145598
0.145599
0.145568
0.145481
0.145349
0.145145
0.144852
0.144544
0.145317
0.145468
0.14551
0.145576
0.145602
0.1456
0.145566
0.145474
0.145337
0.145134
0.14485
0.144552
0.145305
0.14546
0.145505
0.145576
0.145603
0.1456
0.145564
0.14547
0.14533
0.145127
0.144848
0.144557
0.1453
0.145456
0.145502
0.145575
0.145603
0.1456
0.145562
0.145467
0.145327
0.145124
0.144847
0.14456
0.1453
0.145456
0.145502
0.145575
0.145603
0.1456
0.145563
0.145467
0.145327
0.145124
0.144847
0.14456
0.145305
0.14546
0.145505
0.145576
0.145603
0.1456
0.145564
0.14547
0.14533
0.145128
0.144848
0.144557
0.145317
0.145468
0.14551
0.145576
0.145602
0.1456
0.145566
0.145475
0.145337
0.145134
0.14485
0.144552
0.145342
0.145482
0.145516
0.145575
0.145598
0.145599
0.145569
0.145481
0.145349
0.145145
0.144852
0.144544
0.145376
0.145493
0.14552
0.145573
0.145594
0.145599
0.145572
0.14549
0.145367
0.14516
0.144857
0.144536
0.145426
0.145509
0.145524
0.145569
0.145586
0.145598
0.145577
0.145497
0.14539
0.145181
0.144856
0.144532
0.0351928
0.0351799
0.0351886
0.0352012
0.0352094
0.0352116
0.035185
0.0351109
0.034999
0.0347804
0.0344457
0.0340954
0.0351943
0.0351668
0.0351844
0.0352028
0.0352127
0.0352118
0.035182
0.0351041
0.0349797
0.0347671
0.0344531
0.0341064
0.0351969
0.0351636
0.0351846
0.0352049
0.035215
0.0352108
0.0351767
0.0350933
0.0349639
0.0347565
0.0344551
0.0341215
0.0351916
0.0351564
0.0351818
0.035206
0.0352174
0.035211
0.0351737
0.0350866
0.0349528
0.0347478
0.034456
0.0341346
0.0351886
0.0351523
0.0351793
0.0352058
0.0352179
0.0352104
0.0351712
0.035082
0.0349461
0.0347421
0.0344554
0.0341421
0.0351865
0.0351497
0.0351775
0.0352053
0.035218
0.03521
0.0351699
0.0350796
0.0349428
0.0347392
0.0344548
0.0341457
0.0351866
0.0351497
0.0351775
0.0352054
0.0352181
0.03521
0.0351699
0.0350796
0.0349428
0.0347392
0.0344548
0.0341457
0.0351887
0.0351523
0.0351794
0.0352058
0.035218
0.0352104
0.0351713
0.035082
0.0349461
0.0347422
0.0344554
0.0341421
0.0351917
0.0351565
0.0351819
0.0352061
0.0352175
0.0352111
0.0351739
0.0350867
0.0349528
0.0347479
0.0344561
0.0341346
0.0351971
0.0351638
0.0351848
0.035205
0.0352151
0.0352109
0.0351768
0.0350934
0.034964
0.0347566
0.0344552
0.0341216
0.0351944
0.035167
0.0351846
0.035203
0.0352128
0.0352119
0.0351821
0.0351042
0.0349799
0.0347673
0.0344533
0.0341065
0.035193
0.0351801
0.0351888
0.0352014
0.0352095
0.0352118
0.0351852
0.035111
0.0349991
0.0347806
0.0344459
0.0340955
-0.0752632
-0.0752241
-0.0752106
-0.0751831
-0.0751769
-0.0751786
-0.0752087
-0.0752817
-0.0753999
-0.0756232
-0.0759632
-0.0763295
-0.0752728
-0.0752281
-0.0752096
-0.0751808
-0.0751729
-0.0751775
-0.0752095
-0.0752857
-0.0754107
-0.0756253
-0.0759462
-0.0763133
-0.0752874
-0.0752322
-0.0752113
-0.0751806
-0.0751724
-0.0751799
-0.0752156
-0.0752951
-0.0754222
-0.0756311
-0.0759399
-0.0762948
-0.0752994
-0.0752391
-0.0752143
-0.0751804
-0.0751711
-0.0751805
-0.0752188
-0.0753012
-0.0754312
-0.0756367
-0.0759354
-0.0762781
-0.0753058
-0.0752435
-0.0752168
-0.075181
-0.0751712
-0.0751816
-0.0752215
-0.0753056
-0.075437
-0.0756411
-0.0759344
-0.0762686
-0.0753091
-0.075246
-0.0752184
-0.0751815
-0.0751713
-0.0751821
-0.0752228
-0.0753078
-0.0754399
-0.0756436
-0.0759343
-0.076264
-0.0753091
-0.075246
-0.0752183
-0.0751815
-0.0751713
-0.0751821
-0.0752227
-0.0753078
-0.0754399
-0.0756436
-0.0759343
-0.076264
-0.0753057
-0.0752434
-0.0752167
-0.0751809
-0.0751711
-0.0751815
-0.0752214
-0.0753055
-0.075437
-0.0756411
-0.0759343
-0.0762686
-0.0752992
-0.075239
-0.0752142
-0.0751802
-0.075171
-0.0751803
-0.0752186
-0.0753011
-0.0754311
-0.0756366
-0.0759353
-0.0762781
-0.0752873
-0.0752321
-0.0752111
-0.0751804
-0.0751723
-0.0751798
-0.0752154
-0.0752949
-0.075422
-0.0756309
-0.0759397
-0.0762947
-0.0752726
-0.075228
-0.0752094
-0.0751806
-0.0751727
-0.0751774
-0.0752094
-0.0752855
-0.0754106
-0.0756252
-0.075946
-0.0763132
-0.075263
-0.0752239
-0.0752105
-0.075183
-0.0751768
-0.0751785
-0.0752085
-0.0752816
-0.0753997
-0.075623
-0.075963
-0.0763294
-0.185566
-0.185572
-0.185563
-0.185557
-0.185557
-0.185567
-0.185601
-0.185675
-0.185798
-0.186021
-0.186361
-0.186736
-0.185571
-0.185579
-0.185569
-0.185557
-0.185555
-0.185565
-0.1856
-0.185675
-0.1858
-0.186015
-0.186339
-0.186718
-0.185571
-0.185582
-0.185572
-0.185558
-0.185556
-0.185568
-0.185605
-0.185682
-0.185807
-0.186016
-0.186329
-0.186698
-0.185576
-0.185587
-0.185575
-0.185559
-0.185556
-0.185569
-0.185608
-0.185687
-0.185814
-0.186019
-0.186322
-0.18668
-0.185579
-0.18559
-0.185577
-0.185559
-0.185556
-0.18557
-0.185611
-0.185691
-0.185818
-0.186021
-0.186319
-0.186669
-0.185581
-0.185592
-0.185578
-0.18556
-0.185557
-0.185571
-0.185612
-0.185692
-0.18582
-0.186023
-0.186318
-0.186664
-0.185581
-0.185592
-0.185578
-0.18556
-0.185557
-0.185571
-0.185612
-0.185692
-0.18582
-0.186023
-0.186318
-0.186664
-0.185579
-0.18559
-0.185577
-0.185559
-0.185556
-0.18557
-0.18561
-0.185691
-0.185818
-0.186021
-0.186319
-0.186669
-0.185576
-0.185587
-0.185575
-0.185558
-0.185556
-0.185569
-0.185608
-0.185687
-0.185814
-0.186019
-0.186322
-0.18668
-0.185571
-0.185582
-0.185572
-0.185558
-0.185556
-0.185568
-0.185605
-0.185682
-0.185807
-0.186016
-0.186329
-0.186698
-0.185571
-0.185579
-0.185568
-0.185557
-0.185555
-0.185565
-0.1856
-0.185675
-0.1858
-0.186015
-0.186339
-0.186718
-0.185565
-0.185572
-0.185563
-0.185557
-0.185557
-0.185567
-0.185601
-0.185675
-0.185798
-0.186021
-0.186361
-0.186736
-0.29597
-0.295954
-0.295947
-0.295936
-0.29594
-0.295954
-0.295992
-0.296067
-0.296191
-0.296408
-0.296741
-0.297117
-0.295969
-0.295954
-0.295945
-0.295934
-0.295936
-0.295951
-0.295989
-0.296064
-0.296189
-0.296401
-0.29672
-0.297099
-0.295972
-0.295954
-0.295945
-0.295935
-0.295937
-0.295953
-0.295992
-0.296068
-0.296192
-0.296398
-0.296708
-0.29708
-0.295977
-0.295957
-0.295947
-0.295936
-0.295937
-0.295954
-0.295994
-0.296071
-0.296195
-0.296398
-0.296699
-0.297063
-0.295979
-0.295959
-0.295949
-0.295936
-0.295938
-0.295955
-0.295996
-0.296073
-0.296198
-0.296398
-0.296695
-0.297052
-0.295981
-0.295961
-0.29595
-0.295937
-0.295939
-0.295956
-0.295997
-0.296075
-0.296199
-0.296399
-0.296694
-0.297047
-0.295981
-0.295961
-0.29595
-0.295937
-0.295938
-0.295956
-0.295997
-0.296075
-0.296199
-0.296399
-0.296693
-0.297047
-0.295979
-0.295959
-0.295949
-0.295936
-0.295938
-0.295955
-0.295996
-0.296073
-0.296198
-0.296398
-0.296695
-0.297052
-0.295977
-0.295957
-0.295947
-0.295935
-0.295937
-0.295954
-0.295994
-0.296071
-0.296195
-0.296398
-0.296699
-0.297063
-0.295972
-0.295954
-0.295945
-0.295935
-0.295937
-0.295953
-0.295992
-0.296068
-0.296192
-0.296398
-0.296708
-0.29708
-0.295969
-0.295954
-0.295945
-0.295934
-0.295936
-0.295951
-0.295989
-0.296064
-0.296189
-0.296401
-0.29672
-0.297099
-0.29597
-0.295954
-0.295947
-0.295936
-0.29594
-0.295954
-0.295992
-0.296066
-0.296191
-0.296408
-0.296741
-0.297117
-0.406311
-0.406313
-0.406309
-0.406309
-0.406318
-0.406337
-0.406378
-0.406453
-0.406576
-0.406783
-0.407099
-0.407467
-0.406316
-0.406317
-0.406312
-0.406308
-0.406315
-0.406334
-0.406375
-0.40645
-0.406574
-0.406777
-0.407081
-0.407449
-0.406318
-0.406318
-0.406313
-0.406309
-0.406316
-0.406335
-0.406376
-0.406452
-0.406574
-0.406773
-0.40707
-0.407433
-0.406321
-0.406321
-0.406315
-0.40631
-0.406316
-0.406336
-0.406377
-0.406453
-0.406575
-0.406771
-0.407062
-0.407418
-0.406323
-0.406323
-0.406316
-0.406311
-0.406317
-0.406337
-0.406379
-0.406454
-0.406576
-0.40677
-0.407058
-0.407409
-0.406325
-0.406324
-0.406317
-0.406311
-0.406317
-0.406337
-0.406379
-0.406455
-0.406576
-0.40677
-0.407056
-0.407405
-0.406325
-0.406324
-0.406317
-0.406311
-0.406317
-0.406337
-0.406379
-0.406455
-0.406576
-0.40677
-0.407056
-0.407405
-0.406323
-0.406323
-0.406316
-0.406311
-0.406317
-0.406337
-0.406379
-0.406454
-0.406575
-0.40677
-0.407057
-0.407409
-0.406321
-0.406321
-0.406315
-0.40631
-0.406316
-0.406336
-0.406377
-0.406453
-0.406574
-0.406771
-0.407062
-0.407418
-0.406317
-0.406318
-0.406313
-0.406309
-0.406316
-0.406335
-0.406376
-0.406452
-0.406574
-0.406773
-0.40707
-0.407433
-0.406316
-0.406317
-0.406312
-0.406308
-0.406315
-0.406334
-0.406375
-0.40645
-0.406574
-0.406777
-0.407081
-0.407448
-0.40631
-0.406313
-0.406309
-0.406309
-0.406318
-0.406337
-0.406378
-0.406453
-0.406576
-0.406783
-0.407099
-0.407467
-0.516689
-0.516684
-0.516683
-0.516683
-0.516694
-0.516717
-0.51676
-0.516834
-0.516953
-0.517144
-0.517435
-0.517784
-0.516689
-0.516684
-0.516682
-0.516682
-0.516692
-0.516714
-0.516757
-0.516832
-0.516951
-0.517141
-0.517422
-0.517765
-0.516688
-0.516685
-0.516682
-0.516682
-0.516692
-0.516715
-0.516758
-0.516832
-0.51695
-0.517137
-0.517413
-0.517752
-0.51669
-0.516686
-0.516683
-0.516683
-0.516692
-0.516715
-0.516758
-0.516832
-0.51695
-0.517134
-0.517406
-0.517742
-0.516691
-0.516687
-0.516684
-0.516683
-0.516693
-0.516716
-0.516759
-0.516833
-0.51695
-0.517133
-0.517402
-0.517735
-0.516692
-0.516688
-0.516685
-0.516683
-0.516693
-0.516716
-0.516759
-0.516833
-0.51695
-0.517133
-0.517401
-0.517732
-0.516692
-0.516688
-0.516684
-0.516683
-0.516693
-0.516716
-0.516759
-0.516833
-0.51695
-0.517133
-0.517401
-0.517732
-0.516691
-0.516687
-0.516684
-0.516683
-0.516693
-0.516715
-0.516759
-0.516833
-0.51695
-0.517133
-0.517402
-0.517735
-0.51669
-0.516686
-0.516683
-0.516683
-0.516692
-0.516715
-0.516758
-0.516832
-0.516949
-0.517134
-0.517406
-0.517742
-0.516688
-0.516685
-0.516682
-0.516682
-0.516692
-0.516715
-0.516758
-0.516832
-0.51695
-0.517137
-0.517413
-0.517752
-0.516688
-0.516684
-0.516682
-0.516682
-0.516692
-0.516714
-0.516757
-0.516832
-0.516951
-0.517141
-0.517421
-0.517764
-0.516689
-0.516684
-0.516683
-0.516683
-0.516694
-0.516717
-0.51676
-0.516834
-0.516952
-0.517144
-0.517435
-0.517784
-0.627046
-0.627047
-0.627048
-0.627054
-0.627068
-0.627093
-0.627137
-0.627209
-0.62732
-0.627494
-0.627752
-0.628069
-0.627049
-0.627049
-0.627049
-0.627053
-0.627066
-0.62709
-0.627134
-0.627207
-0.627319
-0.627493
-0.627743
-0.628051
-0.62705
-0.62705
-0.62705
-0.627053
-0.627066
-0.627091
-0.627135
-0.627207
-0.627318
-0.627489
-0.627736
-0.628042
-0.627052
-0.627051
-0.62705
-0.627053
-0.627066
-0.627091
-0.627135
-0.627207
-0.627318
-0.627487
-0.627732
-0.628034
-0.627053
-0.627052
-0.627051
-0.627054
-0.627067
-0.627091
-0.627135
-0.627207
-0.627317
-0.627486
-0.627728
-0.628029
-0.627054
-0.627052
-0.627051
-0.627054
-0.627067
-0.627092
-0.627136
-0.627208
-0.627318
-0.627486
-0.627727
-0.628027
-0.627054
-0.627052
-0.627051
-0.627054
-0.627067
-0.627092
-0.627136
-0.627208
-0.627318
-0.627486
-0.627727
-0.628027
-0.627053
-0.627052
-0.627051
-0.627054
-0.627066
-0.627091
-0.627135
-0.627207
-0.627317
-0.627486
-0.627728
-0.628029
-0.627052
-0.627051
-0.62705
-0.627053
-0.627066
-0.627091
-0.627135
-0.627207
-0.627318
-0.627487
-0.627731
-0.628034
-0.62705
-0.62705
-0.627049
-0.627053
-0.627066
-0.627091
-0.627135
-0.627207
-0.627318
-0.627489
-0.627736
-0.628042
-0.627049
-0.627049
-0.627049
-0.627053
-0.627066
-0.62709
-0.627134
-0.627207
-0.627319
-0.627492
-0.627743
-0.628051
-0.627046
-0.627047
-0.627048
-0.627054
-0.627067
-0.627093
-0.627137
-0.627209
-0.62732
-0.627494
-0.627751
-0.628069
-0.737414
-0.737414
-0.737416
-0.737423
-0.737439
-0.737465
-0.737509
-0.737578
-0.73768
-0.737834
-0.738054
-0.738329
-0.737415
-0.737415
-0.737416
-0.737422
-0.737437
-0.737463
-0.737507
-0.737576
-0.737679
-0.737834
-0.73805
-0.738316
-0.737414
-0.737415
-0.737416
-0.737422
-0.737437
-0.737464
-0.737507
-0.737576
-0.737679
-0.737832
-0.738046
-0.738309
-0.737415
-0.737415
-0.737416
-0.737422
-0.737437
-0.737464
-0.737508
-0.737576
-0.737679
-0.737831
-0.738042
-0.738303
-0.737416
-0.737416
-0.737417
-0.737423
-0.737438
-0.737464
-0.737508
-0.737577
-0.737678
-0.737829
-0.73804
-0.738299
-0.737416
-0.737416
-0.737417
-0.737423
-0.737438
-0.737464
-0.737508
-0.737577
-0.737678
-0.737829
-0.738039
-0.738298
-0.737416
-0.737416
-0.737417
-0.737423
-0.737438
-0.737464
-0.737508
-0.737577
-0.737678
-0.737829
-0.738039
-0.738298
-0.737416
-0.737415
-0.737417
-0.737423
-0.737438
-0.737464
-0.737508
-0.737576
-0.737678
-0.737829
-0.73804
-0.738299
-0.737415
-0.737415
-0.737416
-0.737422
-0.737437
-0.737464
-0.737507
-0.737576
-0.737679
-0.73783
-0.738042
-0.738303
-0.737414
-0.737414
-0.737416
-0.737422
-0.737437
-0.737464
-0.737507
-0.737576
-0.737679
-0.737832
-0.738045
-0.738308
-0.737414
-0.737415
-0.737416
-0.737422
-0.737437
-0.737463
-0.737507
-0.737576
-0.737679
-0.737834
-0.73805
-0.738316
-0.737414
-0.737414
-0.737416
-0.737423
-0.737438
-0.737465
-0.737509
-0.737578
-0.737679
-0.737834
-0.738054
-0.738329
-0.847775
-0.847777
-0.847781
-0.84779
-0.847807
-0.847834
-0.847877
-0.847941
-0.848033
-0.848167
-0.84835
-0.848576
-0.847777
-0.847778
-0.847781
-0.847789
-0.847805
-0.847832
-0.847875
-0.84794
-0.848033
-0.848168
-0.84835
-0.848569
-0.847777
-0.847778
-0.847781
-0.847789
-0.847806
-0.847833
-0.847876
-0.84794
-0.848033
-0.848167
-0.848347
-0.848564
-0.847778
-0.847778
-0.847781
-0.847789
-0.847806
-0.847833
-0.847876
-0.84794
-0.848033
-0.848166
-0.848345
-0.848559
-0.847778
-0.847779
-0.847781
-0.84779
-0.847806
-0.847833
-0.847876
-0.847941
-0.848033
-0.848165
-0.848343
-0.848556
-0.847778
-0.847779
-0.847781
-0.84779
-0.847806
-0.847833
-0.847876
-0.847941
-0.848033
-0.848165
-0.848342
-0.848555
-0.847778
-0.847779
-0.847781
-0.84779
-0.847806
-0.847833
-0.847876
-0.847941
-0.848033
-0.848165
-0.848342
-0.848555
-0.847778
-0.847779
-0.847781
-0.84779
-0.847806
-0.847833
-0.847876
-0.847941
-0.848033
-0.848165
-0.848343
-0.848556
-0.847778
-0.847778
-0.847781
-0.847789
-0.847806
-0.847833
-0.847876
-0.84794
-0.848033
-0.848166
-0.848345
-0.848559
-0.847777
-0.847778
-0.847781
-0.847789
-0.847806
-0.847833
-0.847876
-0.84794
-0.848033
-0.848167
-0.848347
-0.848563
-0.847777
-0.847778
-0.847781
-0.847789
-0.847805
-0.847832
-0.847875
-0.84794
-0.848033
-0.848168
-0.84835
-0.848569
-0.847775
-0.847777
-0.847781
-0.84779
-0.847807
-0.847834
-0.847877
-0.847941
-0.848033
-0.848167
-0.84835
-0.848576
-0.958139
-0.95814
-0.958145
-0.958155
-0.958173
-0.9582
-0.958241
-0.9583
-0.958382
-0.958496
-0.958645
-0.958824
-0.95814
-0.958141
-0.958145
-0.958154
-0.958172
-0.958198
-0.958239
-0.958299
-0.958382
-0.958498
-0.958647
-0.958823
-0.958139
-0.958141
-0.958145
-0.958155
-0.958172
-0.958199
-0.95824
-0.958299
-0.958383
-0.958497
-0.958645
-0.958818
-0.95814
-0.958141
-0.958145
-0.958154
-0.958172
-0.958199
-0.95824
-0.9583
-0.958383
-0.958498
-0.958645
-0.958816
-0.95814
-0.958141
-0.958145
-0.958155
-0.958172
-0.958199
-0.958241
-0.9583
-0.958383
-0.958497
-0.958643
-0.958813
-0.95814
-0.958141
-0.958145
-0.958155
-0.958172
-0.9582
-0.958241
-0.9583
-0.958383
-0.958497
-0.958643
-0.958812
-0.95814
-0.958141
-0.958145
-0.958155
-0.958172
-0.9582
-0.958241
-0.9583
-0.958383
-0.958497
-0.958643
-0.958812
-0.95814
-0.958141
-0.958145
-0.958155
-0.958172
-0.958199
-0.95824
-0.9583
-0.958383
-0.958497
-0.958643
-0.958813
-0.95814
-0.958141
-0.958145
-0.958154
-0.958172
-0.958199
-0.95824
-0.9583
-0.958383
-0.958497
-0.958645
-0.958815
-0.958139
-0.958141
-0.958145
-0.958154
-0.958172
-0.958199
-0.95824
-0.958299
-0.958383
-0.958497
-0.958645
-0.958818
-0.95814
-0.958141
-0.958145
-0.958154
-0.958171
-0.958198
-0.958239
-0.958299
-0.958382
-0.958498
-0.958647
-0.958822
-0.958138
-0.95814
-0.958145
-0.958155
-0.958173
-0.9582
-0.958241
-0.9583
-0.958382
-0.958496
-0.958645
-0.958823
-1.0685
-1.0685
-1.06851
-1.06852
-1.06854
-1.06856
-1.0686
-1.06866
-1.06873
-1.06882
-1.06894
-1.06908
-1.0685
-1.0685
-1.06851
-1.06852
-1.06854
-1.06856
-1.0686
-1.06865
-1.06873
-1.06883
-1.06895
-1.06908
-1.0685
-1.0685
-1.06851
-1.06852
-1.06854
-1.06856
-1.0686
-1.06866
-1.06873
-1.06883
-1.06895
-1.06908
-1.0685
-1.0685
-1.06851
-1.06852
-1.06854
-1.06856
-1.0686
-1.06866
-1.06873
-1.06883
-1.06895
-1.06908
-1.0685
-1.0685
-1.06851
-1.06852
-1.06854
-1.06856
-1.0686
-1.06866
-1.06873
-1.06883
-1.06895
-1.06908
-1.0685
-1.0685
-1.06851
-1.06852
-1.06854
-1.06856
-1.0686
-1.06866
-1.06873
-1.06883
-1.06895
-1.06908
-1.0685
-1.0685
-1.06851
-1.06852
-1.06854
-1.06856
-1.0686
-1.06866
-1.06873
-1.06883
-1.06895
-1.06908
-1.0685
-1.0685
-1.06851
-1.06852
-1.06854
-1.06856
-1.0686
-1.06866
-1.06873
-1.06883
-1.06895
-1.06908
-1.0685
-1.0685
-1.06851
-1.06852
-1.06854
-1.06856
-1.0686
-1.06866
-1.06873
-1.06883
-1.06895
-1.06908
-1.0685
-1.0685
-1.06851
-1.06852
-1.06854
-1.06856
-1.0686
-1.06866
-1.06873
-1.06883
-1.06895
-1.06908
-1.0685
-1.0685
-1.06851
-1.06852
-1.06854
-1.06856
-1.0686
-1.06865
-1.06873
-1.06883
-1.06895
-1.06908
-1.0685
-1.0685
-1.06851
-1.06852
-1.06854
-1.06856
-1.0686
-1.06865
-1.06873
-1.06882
-1.06894
-1.06908
-1.17886
-1.17886
-1.17887
-1.17888
-1.1789
-1.17892
-1.17896
-1.17901
-1.17907
-1.17915
-1.17925
-1.17935
-1.17886
-1.17886
-1.17887
-1.17888
-1.1789
-1.17892
-1.17896
-1.17901
-1.17907
-1.17915
-1.17925
-1.17936
-1.17886
-1.17886
-1.17887
-1.17888
-1.1789
-1.17892
-1.17896
-1.17901
-1.17907
-1.17915
-1.17925
-1.17935
-1.17886
-1.17886
-1.17887
-1.17888
-1.1789
-1.17892
-1.17896
-1.17901
-1.17907
-1.17916
-1.17925
-1.17935
-1.17886
-1.17886
-1.17887
-1.17888
-1.1789
-1.17892
-1.17896
-1.17901
-1.17907
-1.17916
-1.17925
-1.17935
-1.17886
-1.17886
-1.17887
-1.17888
-1.1789
-1.17892
-1.17896
-1.17901
-1.17907
-1.17916
-1.17925
-1.17935
-1.17886
-1.17886
-1.17887
-1.17888
-1.1789
-1.17892
-1.17896
-1.17901
-1.17907
-1.17916
-1.17925
-1.17935
-1.17886
-1.17886
-1.17887
-1.17888
-1.1789
-1.17892
-1.17896
-1.17901
-1.17907
-1.17916
-1.17925
-1.17935
-1.17886
-1.17886
-1.17887
-1.17888
-1.1789
-1.17892
-1.17896
-1.17901
-1.17907
-1.17916
-1.17925
-1.17935
-1.17886
-1.17886
-1.17887
-1.17888
-1.1789
-1.17892
-1.17896
-1.17901
-1.17907
-1.17915
-1.17925
-1.17935
-1.17886
-1.17886
-1.17887
-1.17888
-1.1789
-1.17892
-1.17896
-1.17901
-1.17907
-1.17915
-1.17925
-1.17936
-1.17886
-1.17886
-1.17887
-1.17888
-1.1789
-1.17892
-1.17896
-1.17901
-1.17907
-1.17915
-1.17925
-1.17935
-1.28922
-1.28922
-1.28923
-1.28924
-1.28926
-1.28928
-1.28932
-1.28936
-1.28941
-1.28948
-1.28956
-1.28964
-1.28922
-1.28922
-1.28923
-1.28924
-1.28926
-1.28928
-1.28932
-1.28936
-1.28941
-1.28948
-1.28956
-1.28964
-1.28922
-1.28922
-1.28923
-1.28924
-1.28926
-1.28928
-1.28932
-1.28936
-1.28941
-1.28948
-1.28956
-1.28964
-1.28922
-1.28922
-1.28923
-1.28924
-1.28926
-1.28928
-1.28932
-1.28936
-1.28942
-1.28948
-1.28956
-1.28964
-1.28922
-1.28922
-1.28923
-1.28924
-1.28926
-1.28928
-1.28932
-1.28936
-1.28942
-1.28948
-1.28956
-1.28964
-1.28922
-1.28922
-1.28923
-1.28924
-1.28926
-1.28928
-1.28932
-1.28936
-1.28942
-1.28949
-1.28956
-1.28964
-1.28922
-1.28922
-1.28923
-1.28924
-1.28926
-1.28928
-1.28932
-1.28936
-1.28942
-1.28949
-1.28956
-1.28964
-1.28922
-1.28922
-1.28923
-1.28924
-1.28926
-1.28928
-1.28932
-1.28936
-1.28942
-1.28948
-1.28956
-1.28964
-1.28922
-1.28922
-1.28923
-1.28924
-1.28926
-1.28928
-1.28932
-1.28936
-1.28942
-1.28948
-1.28956
-1.28964
-1.28922
-1.28922
-1.28923
-1.28924
-1.28926
-1.28928
-1.28932
-1.28936
-1.28941
-1.28948
-1.28956
-1.28964
-1.28922
-1.28922
-1.28923
-1.28924
-1.28926
-1.28928
-1.28932
-1.28936
-1.28941
-1.28948
-1.28956
-1.28964
-1.28922
-1.28922
-1.28923
-1.28924
-1.28926
-1.28928
-1.28932
-1.28936
-1.28941
-1.28948
-1.28956
-1.28964
-1.39958
-1.39958
-1.39959
-1.3996
-1.39962
-1.39964
-1.39967
-1.39971
-1.39976
-1.39981
-1.39987
-1.39993
-1.39958
-1.39958
-1.39959
-1.3996
-1.39962
-1.39964
-1.39967
-1.39971
-1.39976
-1.39981
-1.39987
-1.39993
-1.39958
-1.39958
-1.39959
-1.3996
-1.39962
-1.39964
-1.39967
-1.39971
-1.39976
-1.39981
-1.39987
-1.39993
-1.39958
-1.39958
-1.39959
-1.3996
-1.39962
-1.39964
-1.39967
-1.39971
-1.39976
-1.39981
-1.39988
-1.39994
-1.39958
-1.39958
-1.39959
-1.3996
-1.39962
-1.39964
-1.39967
-1.39971
-1.39976
-1.39982
-1.39988
-1.39994
-1.39958
-1.39958
-1.39959
-1.3996
-1.39962
-1.39964
-1.39967
-1.39971
-1.39976
-1.39982
-1.39988
-1.39994
-1.39958
-1.39958
-1.39959
-1.3996
-1.39962
-1.39964
-1.39967
-1.39971
-1.39976
-1.39982
-1.39988
-1.39994
-1.39958
-1.39958
-1.39959
-1.3996
-1.39962
-1.39964
-1.39967
-1.39971
-1.39976
-1.39982
-1.39988
-1.39994
-1.39958
-1.39958
-1.39959
-1.3996
-1.39962
-1.39964
-1.39967
-1.39971
-1.39976
-1.39981
-1.39988
-1.39994
-1.39958
-1.39958
-1.39959
-1.3996
-1.39962
-1.39964
-1.39967
-1.39971
-1.39976
-1.39981
-1.39987
-1.39993
-1.39958
-1.39958
-1.39959
-1.3996
-1.39962
-1.39964
-1.39967
-1.39971
-1.39976
-1.39981
-1.39987
-1.39993
-1.39958
-1.39958
-1.39959
-1.3996
-1.39962
-1.39964
-1.39967
-1.39971
-1.39976
-1.39981
-1.39987
-1.39993
-1.50994
-1.50994
-1.50995
-1.50996
-1.50998
-1.51
-1.51002
-1.51006
-1.5101
-1.51014
-1.51019
-1.51024
-1.50994
-1.50994
-1.50995
-1.50996
-1.50998
-1.51
-1.51002
-1.51006
-1.5101
-1.51014
-1.51019
-1.51024
-1.50994
-1.50994
-1.50995
-1.50996
-1.50998
-1.51
-1.51002
-1.51006
-1.5101
-1.51015
-1.51019
-1.51024
-1.50993
-1.50994
-1.50995
-1.50996
-1.50998
-1.51
-1.51002
-1.51006
-1.5101
-1.51015
-1.5102
-1.51024
-1.50993
-1.50993
-1.50995
-1.50996
-1.50998
-1.51
-1.51003
-1.51006
-1.5101
-1.51015
-1.5102
-1.51024
-1.50993
-1.50993
-1.50995
-1.50996
-1.50998
-1.51
-1.51003
-1.51006
-1.5101
-1.51015
-1.5102
-1.51024
-1.50993
-1.50993
-1.50995
-1.50996
-1.50998
-1.51
-1.51003