/*--------------------------------*- C++ -*----------------------------------*\
| =========                 |                                                 |
| \\      /  F ield         | OpenFOAM: The Open Source CFD Toolbox           |
|  \\    /   O peration     | Version:  2.3.1                                 |
|   \\  /    A nd           | Web:      www.OpenFOAM.org                      |
|    \\/     M anipulation  |                                                 |
\*---------------------------------------------------------------------------*/
FoamFile
{
    version     2.0;
    format      ascii;
    class       volScalarField;
    location    "15";
    object      Sed;
}
// * * * * * * * * * * * * * * * * * * * * * * * * * * * * * * * * * * * * * //

dimensions      [0 0 0 0 0 0 0];

internalField   nonuniform List<scalar> 
303072
(
0.023428
0.0242917
0.0250267
0.0259716
0.0264441
0.0274189
0.0281261
0.028659
0.029635
0.0299519
0.0302079
0.0307554
0.0234518
0.0241757
0.0248968
0.0258046
0.0263151
0.0272577
0.0279242
0.0282946
0.0291247
0.0293686
0.0294864
0.0297253
0.0234717
0.0241463
0.0248778
0.025808
0.0263255
0.0272709
0.0279521
0.0282806
0.0290648
0.0293158
0.0294311
0.0295462
0.0234842
0.0241221
0.0248695
0.0258437
0.0263366
0.0272742
0.0279853
0.028296
0.0290477
0.0293075
0.0294127
0.0295919
0.0234876
0.0241083
0.0248701
0.0258636
0.026345
0.0272734
0.0279908
0.0282872
0.0290083
0.0292661
0.0293616
0.0296208
0.0234874
0.0241027
0.024874
0.0258708
0.0263489
0.0272726
0.0279948
0.0282855
0.0289931
0.0292421
0.0293406
0.0296327
0.0234874
0.0241027
0.024874
0.0258708
0.0263489
0.0272726
0.0279948
0.0282855
0.028993
0.0292421
0.0293405
0.0296326
0.0234876
0.0241083
0.0248701
0.0258636
0.026345
0.0272734
0.0279909
0.0282871
0.029008
0.029266
0.0293613
0.0296204
0.0234842
0.0241222
0.0248694
0.0258437
0.0263367
0.0272741
0.0279854
0.0282959
0.0290473
0.0293074
0.0294122
0.0295913
0.0234716
0.0241464
0.0248777
0.0258081
0.0263256
0.0272708
0.0279523
0.0282805
0.0290643
0.0293157
0.0294306
0.0295456
0.0234517
0.0241758
0.0248967
0.0258047
0.0263152
0.0272576
0.0279243
0.0282945
0.0291244
0.0293686
0.029486
0.0297249
0.0234279
0.0242918
0.0250267
0.0259717
0.0264442
0.0274187
0.0281263
0.0286588
0.0296349
0.0299521
0.0302079
0.0307556
0.0230046
0.0230276
0.0230781
0.0231331
0.0231534
0.0232538
0.0232641
0.0232082
0.0231335
0.0226853
0.0222189
0.0218834
0.0230163
0.0230351
0.0230612
0.0230585
0.0229972
0.0229486
0.022815
0.0224356
0.0222152
0.0216115
0.0210438
0.0205804
0.0230231
0.0230378
0.0230705
0.0230818
0.0230372
0.0229856
0.0228419
0.0224224
0.0221545
0.0215114
0.020892
0.020379
0.0230244
0.0230379
0.0230707
0.0230968
0.0230526
0.0230018
0.0228574
0.0224201
0.0221455
0.0215074
0.0209062
0.0204455
0.0230243
0.0230381
0.0230704
0.0231057
0.0230612
0.0230018
0.0228413
0.0223687
0.0220932
0.0214668
0.0208912
0.0204995
0.0230241
0.0230381
0.0230697
0.0231107
0.0230669
0.0230036
0.0228351
0.0223436
0.0220648
0.021437
0.020873
0.0205176
0.0230241
0.0230381
0.0230696
0.0231107
0.0230669
0.0230036
0.0228351
0.0223436
0.0220647
0.0214369
0.0208728
0.0205175
0.0230243
0.0230381
0.0230704
0.0231057
0.0230612
0.0230017
0.0228413
0.0223685
0.0220929
0.0214665
0.0208907
0.020499
0.0230244
0.0230379
0.0230707
0.0230968
0.0230526
0.0230017
0.0228573
0.0224198
0.0221451
0.021507
0.0209054
0.0204449
0.023023
0.0230378
0.0230705
0.0230818
0.0230372
0.0229856
0.0228418
0.0224222
0.0221541
0.021511
0.0208912
0.0203783
0.0230163
0.0230351
0.0230612
0.0230585
0.0229972
0.0229486
0.022815
0.0224354
0.0222149
0.0216113
0.0210432
0.0205801
0.0230046
0.0230276
0.0230781
0.0231332
0.0231534
0.0232538
0.0232642
0.0232081
0.0231335
0.0226858
0.022219
0.021884
0.0229857
0.0229146
0.0228214
0.0226453
0.0223872
0.0222374
0.0219019
0.021208
0.0207151
0.0193291
0.0182058
0.0173553
0.022915
0.0226582
0.022331
0.0219138
0.0212742
0.0208844
0.0201838
0.0192185
0.0186579
0.0174694
0.0166568
0.0160764
0.0229335
0.0226483
0.022363
0.0219934
0.0213745
0.0209459
0.020174
0.0191445
0.0184629
0.0173038
0.0164692
0.0158902
0.0229354
0.022648
0.0223762
0.0220415
0.0214274
0.0209903
0.020205
0.0191507
0.0184565
0.0173228
0.0165044
0.0159281
0.022936
0.0226533
0.0223799
0.0220753
0.0214485
0.0209816
0.0201527
0.0190818
0.018402
0.0172998
0.0165173
0.0159665
0.0229359
0.0226554
0.022379
0.0220895
0.0214671
0.0209806
0.0201258
0.0190394
0.0183594
0.0172689
0.0165077
0.0159762
0.0229359
0.0226554
0.022379
0.0220895
0.0214671
0.0209805
0.0201257
0.0190393
0.0183592
0.0172687
0.0165075
0.015976
0.022936
0.0226534
0.0223799
0.0220754
0.0214485
0.0209815
0.0201525
0.0190814
0.0184015
0.0172993
0.0165167
0.0159659
0.0229354
0.022648
0.0223761
0.0220416
0.0214274
0.0209901
0.0202048
0.0191502
0.0184558
0.0173221
0.0165035
0.0159272
0.0229335
0.0226483
0.022363
0.0219936
0.0213745
0.0209458
0.0201738
0.019144
0.0184622
0.0173032
0.0164683
0.0158894
0.022915
0.0226583
0.022331
0.0219139
0.0212743
0.0208843
0.0201838
0.0192181
0.0186575
0.0174692
0.0166563
0.016076
0.0229857
0.0229146
0.0228215
0.0226454
0.0223873
0.0222375
0.0219022
0.021208
0.0207152
0.0193303
0.0182065
0.0173564
0.0223284
0.0213729
0.0206016
0.0198574
0.0191565
0.0187192
0.0176519
0.016291
0.0151533
0.0128994
0.0123429
0.0124064
0.0218729
0.0204455
0.0191908
0.0182954
0.017366
0.0167683
0.0158501
0.01485
0.0141715
0.0131575
0.0126876
0.0127131
0.021969
0.020324
0.019251
0.0184065
0.0174996
0.0168201
0.0159169
0.0149061
0.0141403
0.0132795
0.0127457
0.0126933
0.0219801
0.0202912
0.0192844
0.0184992
0.0176151
0.0169306
0.016024
0.0150034
0.0142151
0.0133427
0.0128066
0.0126823
0.0219829
0.0202823
0.0193082
0.0185464
0.0176538
0.0169566
0.0160279
0.0149953
0.0142197
0.013349
0.0128295
0.0126726
0.0219797
0.0202738
0.0193163
0.0185679
0.0176691
0.0169591
0.0160116
0.0149677
0.014197
0.0133322
0.0128264
0.0126619
0.0219797
0.0202738
0.0193163
0.0185679
0.0176691
0.016959
0.0160115
0.0149675
0.0141968
0.013332
0.0128261
0.0126617
0.0219829
0.0202823
0.0193082
0.0185464
0.0176537
0.0169563
0.0160277
0.0149948
0.0142191
0.0133485
0.0128289
0.0126721
0.0219801
0.0202912
0.0192843
0.0184992
0.017615
0.0169304
0.0160236
0.0150028
0.0142143
0.013342
0.0128058
0.0126816
0.021969
0.0203241
0.019251
0.0184066
0.0174995
0.0168198
0.0159166
0.0149055
0.0141397
0.0132789
0.0127449
0.0126926
0.021873
0.0204456
0.0191909
0.0182955
0.0173661
0.0167682
0.0158502
0.0148497
0.0141713
0.0131575
0.0126873
0.0127127
0.0223282
0.0213729
0.0206018
0.0198577
0.0191568
0.0187196
0.017653
0.0162913
0.0151551
0.0129009
0.0123433
0.0124068
0.00371703
0.00569982
0.00702899
0.00813524
0.00870819
0.00891353
0.00877682
0.0087658
0.0089783
0.00955509
0.0104389
0.0113373
0.00658946
0.00945389
0.0107392
0.0113008
0.0113167
0.0112301
0.0108603
0.0103418
0.0101635
0.0102199
0.0105772
0.0112569
0.00731823
0.010371
0.0116129
0.0120549
0.0120188
0.0118488
0.0113965
0.0108014
0.0103974
0.0102734
0.010446
0.0109471
0.00739649
0.0106037
0.0119292
0.0123768
0.0123309
0.0121298
0.0116243
0.0109857
0.0105163
0.0102589
0.010369
0.0107638
0.00735121
0.0106545
0.0120481
0.0125004
0.0124495
0.0122316
0.0116855
0.011019
0.0105452
0.0102376
0.0103208
0.0106641
0.00732038
0.0106581
0.0120839
0.0125356
0.0124816
0.0122539
0.0116853
0.011006
0.0105355
0.0102177
0.0102925
0.0106182
0.00732031
0.0106581
0.0120839
0.0125356
0.0124815
0.0122538
0.0116852
0.0110058
0.0105353
0.0102175
0.0102924
0.0106181
0.00735105
0.0106544
0.0120481
0.0125003
0.0124493
0.0122314
0.0116851
0.0110185
0.0105447
0.0102371
0.0103203
0.0106638
0.00739624
0.0106036
0.0119291
0.0123766
0.0123307
0.0121295
0.0116238
0.0109851
0.0105156
0.0102583
0.0103684
0.0107633
0.00731789
0.0103708
0.0116127
0.0120548
0.0120186
0.0118486
0.0113962
0.0108009
0.0103968
0.0102729
0.0104455
0.0109468
0.00658907
0.00945374
0.0107392
0.0113011
0.0113169
0.0112304
0.0108607
0.0103419
0.0101634
0.0102196
0.0105768
0.0112568
0.00371699
0.00570009
0.00702959
0.00813634
0.0087095
0.00891484
0.00877807
0.00876659
0.00897854
0.00955452
0.0104383
0.0113373
0.000631454
0.00144718
0.00226044
0.00319944
0.00403458
0.00485392
0.00590828
0.00695739
0.0081101
0.00986025
0.0115442
0.0127193
0.00147784
0.00348143
0.00498446
0.00596934
0.00660083
0.00700314
0.00726559
0.00759648
0.00818699
0.00912279
0.0101902
0.0111555
0.00190606
0.00468299
0.00612426
0.00701996
0.00748185
0.00771865
0.00776623
0.00783973
0.00810702
0.00873078
0.00964051
0.0105366
0.00204696
0.00508834
0.0066189
0.00748734
0.00787857
0.00802861
0.00799227
0.00796238
0.00809127
0.00852221
0.00933937
0.0101871
0.00209838
0.00522659
0.00680857
0.00766747
0.00803397
0.00813807
0.00806375
0.00798326
0.00807246
0.00842456
0.0091776
0.00999672
0.0021109
0.0052603
0.00686244
0.00771813
0.00807611
0.00816156
0.00807168
0.00797362
0.00805183
0.00838181
0.00910669
0.00991295
0.00211087
0.00526025
0.00686238
0.00771806
0.00807602
0.00816143
0.00807154
0.00797347
0.00805168
0.00838167
0.00910659
0.00991289
0.00209834
0.00522648
0.00680843
0.00766729
0.00803374
0.00813774
0.00806337
0.00798284
0.00807205
0.00842419
0.00917732
0.00999654
0.0020469
0.00508818
0.00661871
0.00748712
0.00787828
0.0080282
0.00799181
0.00796184
0.00809072
0.00852169
0.00933898
0.0101869
0.00190599
0.00468283
0.00612411
0.00701984
0.0074817
0.00771841
0.00776592
0.00783931
0.00810649
0.00873022
0.00964012
0.0105364
0.0014778
0.00348147
0.00498472
0.00596977
0.0066013
0.00700352
0.00726576
0.00759633
0.00818653
0.00912226
0.0101899
0.0111556
0.000631536
0.00144752
0.00226115
0.00320051
0.00403583
0.00485468
0.00590822
0.00695691
0.00810889
0.00985854
0.0115433
0.0127196
0.000219153
0.000568356
0.00105314
0.00182113
0.00278748
0.00404801
0.00561725
0.0072705
0.00893234
0.0111207
0.0130074
0.013936
0.000521387
0.00141147
0.00229033
0.00315621
0.00397505
0.00473772
0.00554728
0.00647702
0.00762038
0.00904318
0.010587
0.0117474
0.000749637
0.0020676
0.00303203
0.00387893
0.00455214
0.00512085
0.00566298
0.00630534
0.00715854
0.00833344
0.00967726
0.0108593
0.000855623
0.00237791
0.00341514
0.00425313
0.00485217
0.00532383
0.00574112
0.00624852
0.00695579
0.00799161
0.00921973
0.010361
0.000901972
0.00250606
0.0035804
0.00441533
0.00497986
0.00540523
0.00576416
0.00621043
0.00685489
0.00782231
0.00898839
0.0100927
0.000917207
0.00254526
0.00363264
0.00446582
0.00501747
0.00542516
0.00576261
0.00618643
0.00680854
0.00774947
0.00889035
0.00997566
0.000917193
0.00254521
0.00363258
0.00446574
0.00501737
0.00542505
0.00576249
0.00618631
0.00680841
0.00774935
0.00889027
0.00997563
0.000901939
0.00250595
0.00358024
0.00441512
0.0049796
0.00540493
0.00576383
0.00621008
0.00685453
0.00782199
0.00898817
0.0100927
0.00085558
0.00237777
0.00341494
0.00425288
0.00485186
0.00532346
0.0057407
0.00624805
0.00695528
0.00799114
0.00921942
0.010361
0.0007496
0.00206748
0.00303191
0.00387882
0.00455199
0.0051206
0.00566262
0.00630484
0.00715793
0.00833286
0.00967695
0.0108594
0.000521387
0.00141151
0.00229054
0.00315656
0.0039754
0.00473785
0.00554707
0.00647649
0.00761964
0.00904254
0.0105869
0.0117478
0.000219216
0.000568593
0.0010537
0.00182203
0.00278837
0.00404822
0.00561638
0.00726927
0.00893064
0.0111192
0.0130071
0.0139365
0.00012938
0.000349014
0.000705421
0.00137372
0.00241179
0.00392322
0.00571111
0.00737992
0.00912236
0.0114777
0.0136144
0.0144424
0.000292515
0.00077816
0.00131477
0.0019968
0.00280704
0.00374538
0.00483236
0.00605976
0.00751365
0.00935773
0.0112884
0.0125675
0.000413541
0.00110752
0.00172052
0.00239497
0.00309894
0.00384629
0.00467743
0.00566503
0.00690129
0.00847168
0.0102438
0.0116171
0.000480087
0.00129282
0.00195534
0.00262579
0.00326989
0.00392329
0.00463136
0.00549115
0.00660179
0.00802685
0.00967812
0.0110424
0.00051258
0.00138162
0.00206908
0.00273519
0.00334828
0.00395528
0.00460395
0.00540002
0.00644799
0.00780341
0.00938516
0.0107239
0.000524722
0.00141375
0.00211022
0.00277347
0.00337367
0.00396196
0.00458717
0.00535823
0.0063814
0.00771032
0.00926069
0.0105832
0.000524712
0.00141372
0.00211017
0.0027734
0.00337358
0.00396186
0.00458706
0.00535811
0.00638127
0.00771021
0.00926061
0.0105832
0.000512554
0.00138153
0.00206895
0.00273501
0.00334806
0.00395502
0.00460365
0.00539968
0.00644763
0.00780308
0.00938496
0.0107239
0.000480054
0.00129272
0.00195518
0.00262559
0.00326963
0.00392295
0.00463093
0.00549064
0.00660122
0.00802632
0.00967782
0.0110425
0.000413515
0.00110745
0.00172044
0.00239488
0.00309879
0.00384601
0.00467698
0.0056644
0.00690055
0.00847097
0.0102435
0.0116172
0.000292512
0.000778181
0.00131491
0.00199703
0.00280722
0.00374528
0.00483189
0.006059
0.00751268
0.00935688
0.0112881
0.0125679
0.000129419
0.000349171
0.00070585
0.00137449
0.00241248
0.00392315
0.00571016
0.00737866
0.00912063
0.0114762
0.0136141
0.0144428
0.000102583
0.00027197
0.000557865
0.00112703
0.0020875
0.00355026
0.00522711
0.00670296
0.00861117
0.0114945
0.0139006
0.014701
0.000205524
0.00054809
0.000940664
0.00150624
0.00227161
0.00325364
0.00443258
0.00579001
0.00747032
0.00969765
0.0120185
0.0133622
0.000284218
0.000745729
0.00118922
0.00174423
0.00242322
0.00323649
0.00420646
0.00538807
0.00689046
0.00886116
0.0110099
0.0125091
0.000330873
0.000865587
0.00133993
0.00188671
0.00251592
0.0032434
0.00410397
0.00517478
0.00656732
0.00838975
0.010419
0.0119413
0.000355361
0.00092864
0.00141841
0.00195885
0.00256
0.003243
0.00404751
0.00506172
0.00639332
0.00814396
0.0101029
0.0116122
0.000365249
0.00095392
0.00144955
0.00198645
0.00257508
0.00323921
0.00402027
0.00501074
0.00631786
0.00803944
0.0099662
0.0114638
0.00036524
0.000953896
0.00144951
0.00198639
0.00257501
0.00323912
0.00402017
0.00501061
0.00631772
0.0080393
0.00996611
0.0114638
0.000355339
0.000928575
0.0014183
0.00195871
0.00255981
0.00324276
0.00404721
0.00506134
0.0063929
0.00814357
0.0101027
0.0116122
0.000330845
0.000865508
0.00133981
0.00188655
0.00251569
0.00324307
0.00410352
0.00517419
0.00656664
0.00838908
0.0104186
0.0119414
0.000284197
0.000745676
0.00118916
0.00174415
0.00242306
0.00323617
0.00420592
0.0053873
0.00688952
0.00886023
0.0110095
0.0125093
0.00020552
0.0005481
0.000940756
0.0015064
0.00227169
0.00325343
0.00443198
0.00578905
0.00746911
0.0096964
0.012018
0.0133626
0.000102614
0.000272093
0.000558222
0.00112768
0.00208814
0.00355029
0.00522641
0.00670181
0.00860916
0.0114929
0.0139
0.0147014
6.88985e-05
0.000183352
0.000379023
0.000788532
0.00151732
0.00262871
0.00389509
0.00525272
0.00745386
0.0110858
0.0140143
0.0148675
0.000155224
0.00041655
0.000732165
0.00121164
0.00190311
0.0028336
0.00398999
0.00540613
0.00730757
0.00984331
0.012502
0.0139525
0.000212856
0.000562892
0.000923472
0.00140447
0.00204331
0.00286173
0.00388805
0.00519338
0.00691089
0.00919678
0.011699
0.0132936
0.000248357
0.000651577
0.0010348
0.0015092
0.00210953
0.00285943
0.00379937
0.00501443
0.00662703
0.00879535
0.0111716
0.0128049
0.000267786
0.000699997
0.00109427
0.00156212
0.0021382
0.00284904
0.00374037
0.00490446
0.00647042
0.00857563
0.0108742
0.0125054
0.000276009
0.000720432
0.00111899
0.00158312
0.00214774
0.00284106
0.003711
0.00485299
0.00639983
0.00847726
0.0107426
0.0123669
0.000276002
0.000720413
0.00111896
0.00158307
0.00214768
0.00284097
0.00371089
0.00485284
0.00639965
0.00847708
0.0107425
0.0123669
0.000267767
0.000699947
0.00109418
0.001562
0.00213803
0.0028488
0.00374004
0.00490403
0.0064699
0.00857509
0.0108739
0.0125054
0.000248334
0.000651515
0.0010347
0.00150906
0.00210931
0.00285908
0.00379887
0.00501374
0.00662618
0.00879447
0.0111711
0.012805
0.000212838
0.000562849
0.000923423
0.00140439
0.00204315
0.00286137
0.00388743
0.00519246
0.00690975
0.00919555
0.0116983
0.0132937
0.000155217
0.000416549
0.000732229
0.00121177
0.00190317
0.00283337
0.00398933
0.00540498
0.00730599
0.0098418
0.0125011
0.0139528
6.89121e-05
0.000183421
0.00037926
0.000789058
0.00151792
0.00262899
0.00389469
0.0052515
0.00745153
0.0110834
0.0140135
0.0148679
5.54877e-05
0.000145684
0.000295225
0.00058035
0.0010657
0.00180782
0.0028009
0.00424662
0.0066401
0.0105592
0.0140362
0.0150516
0.000121158
0.000327525
0.000582669
0.000980481
0.00157532
0.00240149
0.00347966
0.0049087
0.00694365
0.00979992
0.0126855
0.0143206
0.000165888
0.000443596
0.000744106
0.00116376
0.00175002
0.00253519
0.00356145
0.00492716
0.00681002
0.00931316
0.0120329
0.0138044
0.000194447
0.000515371
0.000837277
0.00125715
0.00182065
0.00256159
0.00353124
0.00483221
0.00662157
0.00897755
0.011603
0.0134122
0.000210563
0.000555393
0.000887272
0.0013032
0.00184864
0.00255957
0.003492
0.00475258
0.00649156
0.00878685
0.0113559
0.0131662
0.000217591
0.000572741
0.000908463
0.00132161
0.00185775
0.00255416
0.00346913
0.00471141
0.00643005
0.00870625
0.011246
0.0130515
0.000217585
0.000572725
0.000908437
0.00132157
0.00185769
0.00255408
0.003469
0.00471124
0.00642984
0.00870603
0.0112459
0.0130515
0.000210548
0.000555351
0.000887204
0.00130309
0.00184847
0.00255932
0.00349164
0.00475209
0.00649096
0.0087862
0.0113555
0.0131661
0.000194427
0.000515321
0.000837198
0.00125702
0.00182044
0.00256124
0.00353069
0.00483142
0.00662058
0.00897652
0.0116022
0.013412
0.000165873
0.00044356
0.000744064
0.00116369
0.00174986
0.00253483
0.00356078
0.00492611
0.00680863
0.00931172
0.0120318
0.0138043
0.00012115
0.000327519
0.000582717
0.000980592
0.00157538
0.00240129
0.003479
0.00490744
0.00694183
0.00979794
0.0126844
0.0143206
5.54966e-05
0.000145734
0.000295408
0.000580739
0.00106618
0.0018081
0.00280055
0.00424534
0.00663773
0.0105562
0.0140352
0.0150523
3.78353e-05
9.87336e-05
0.000199923
0.000392854
0.000745941
0.00131871
0.00214811
0.0034098
0.00559721
0.00960442
0.0137779
0.0152046
9.34804e-05
0.000253887
0.000456242
0.000779197
0.00127416
0.00198122
0.0029493
0.00431764
0.00636204
0.0093398
0.0126658
0.0144814
0.000129808
0.000350932
0.000599646
0.000959651
0.00148046
0.00220096
0.00317607
0.00452595
0.00645513
0.00912667
0.0120981
0.0140226
0.000153599
0.000411922
0.000682907
0.00105132
0.00156623
0.00226807
0.00321668
0.00452859
0.00638635
0.00891968
0.0117201
0.0136766
0.000167369
0.000446556
0.000727972
0.00109644
0.00160109
0.0022843
0.00320961
0.00449446
0.00631453
0.00878254
0.0115018
0.013461
0.000173506
0.000461848
0.000747325
0.00111464
0.00161303
0.00228606
0.00319917
0.00447102
0.00627551
0.00871602
0.0114043
0.0133613
0.000173502
0.000461835
0.000747303
0.00111461
0.00161297
0.00228597
0.00319904
0.00447083
0.00627527
0.00871576
0.0114041
0.0133613
0.000167356
0.000446521
0.000727915
0.00109635
0.00160093
0.00228406
0.00320923
0.00449392
0.00631382
0.00878178
0.0115012
0.0134608
0.000153583
0.00041188
0.000682842
0.00105121
0.00156603
0.00226772
0.00321611
0.00452773
0.0063852
0.00891839
0.0117192
0.0136763
0.000129795
0.000350903
0.000599612
0.000959596
0.00148031
0.00220062
0.0031754
0.00452485
0.00645359
0.0091249
0.0120969
0.0140222
9.34723e-05
0.000253878
0.000456278
0.000779295
0.00127424
0.00198108
0.00294871
0.00431641
0.00636014
0.00933749
0.0126643
0.0144811
3.78392e-05
9.87615e-05
0.000200042
0.000393125
0.000746304
0.0013189
0.00214781
0.00340868
0.00559487
0.00960072
0.0137762
0.015205
2.96297e-05
7.70526e-05
0.000154272
0.000298061
0.000534468
0.000921845
0.00152133
0.00251984
0.00444284
0.00820174
0.0131598
0.0152394
7.21404e-05
0.000196755
0.000355956
0.000612587
0.00101173
0.00159531
0.0024294
0.00366994
0.00560576
0.00855318
0.012198
0.0145068
0.000101392
0.000276627
0.000479274
0.000780136
0.00122653
0.00185957
0.00274139
0.0040023
0.00586162
0.00853232
0.0117449
0.0140527
0.000121343
0.000328818
0.000553997
0.000869907
0.00132446
0.00196008
0.00283954
0.00408355
0.00588577
0.00841882
0.0114276
0.0137127
0.000133211
0.000359191
0.000595414
0.00091538
0.00136737
0.00199544
0.00286431
0.00409247
0.00586363
0.00833057
0.0112423
0.0135032
0.000138607
0.000372843
0.000613499
0.000934108
0.00138313
0.00200562
0.00286762
0.00408747
0.00584557
0.0082864
0.0111595
0.0134072
0.000138603
0.000372832
0.000613481
0.000934077
0.00138308
0.00200554
0.00286749
0.00408728
0.00584531
0.0082861
0.0111592
0.0134071
0.000133201
0.000359163
0.000595367
0.000915302
0.00136724
0.00199521
0.00286394
0.00409191
0.00586287
0.00832968
0.0112415
0.0135029
0.00012133
0.000328785
0.000553945
0.000869817
0.00132429
0.00195976
0.00283899
0.00408268
0.00588456
0.00841736
0.0114263
0.0137122
0.000101382
0.000276604
0.000479248
0.000780096
0.00122642
0.00185928
0.00274077
0.00400123
0.00586004
0.00853037
0.0117431
0.0140522
7.21337e-05
0.000196748
0.000355987
0.000612675
0.00101181
0.00159522
0.00242891
0.00366883
0.00560389
0.00855067
0.0121959
0.0145063
2.9632e-05
7.70718e-05
0.000154361
0.000298258
0.000534731
0.000922025
0.00152117
0.00251898
0.00444076
0.0081977
0.0131573
0.0152396
2.01358e-05
5.17582e-05
0.000103485
0.000201493
0.000371789
0.000644479
0.00109374
0.00187475
0.00338234
0.00648679
0.0119999
0.0151691
5.46852e-05
0.000149885
0.000273093
0.000473622
0.000789101
0.00125874
0.00195181
0.00301927
0.00473722
0.00747663
0.011282
0.0142642
7.84624e-05
0.000215951
0.000378542
0.000624011
0.000994525
0.00152978
0.00229253
0.00341049
0.00510173
0.00762734
0.010926
0.0137565
9.51914e-05
0.000260488
0.000444801
0.000709044
0.00109677
0.0016485
0.0024248
0.00354106
0.00518828
0.00758329
0.0106394
0.0133783
0.000105411
0.000287077
0.000482588
0.00075387
0.00114506
0.00169783
0.00247287
0.00358078
0.00520053
0.00752706
0.0104673
0.0131518
0.000110142
0.00029924
0.000499407
0.00077283
0.00116389
0.00171498
0.00248729
0.00358996
0.0051974
0.00749572
0.0103899
0.0130502
0.000110139
0.000299231
0.000499392
0.000772805
0.00116384
0.0017149
0.00248717
0.00358978
0.00519714
0.0074954
0.0103896
0.01305
0.000105402
0.000287055
0.000482551
0.000753806
0.00114495
0.00169763
0.00247253
0.00358025
0.00519977
0.00752611
0.0104663
0.0131513
9.51812e-05
0.000260462
0.00044476
0.000708974
0.00109663
0.00164823
0.0024243
0.00354025
0.0051871
0.00758175
0.0106378
0.0133774
7.8454e-05
0.000215933
0.000378525
0.000623986
0.000994442
0.00152955
0.002292
0.00340952
0.00510022
0.0076253
0.0109238
0.0137554
5.46799e-05
0.00014988
0.00027312
0.000473702
0.00078919
0.0012587
0.00195144
0.00301833
0.00473551
0.00747409
0.0112791
0.014263
2.01363e-05
5.1768e-05
0.000103543
0.000201639
0.000371997
0.000644643
0.00109366
0.00187416
0.00338071
0.00648314
0.0119956
0.0151687
1.52401e-05
3.93533e-05
7.83368e-05
0.000147429
0.000263215
0.000456167
0.000759996
0.00129461
0.00236805
0.0047847
0.00974065
0.0146018
4.1021e-05
0.000113046
0.000207663
0.000361711
0.000605369
0.000973139
0.00152601
0.00239547
0.00382625
0.00619457
0.0097732
0.0134956
6.00455e-05
0.000166715
0.000295327
0.000491314
0.000790108
0.00122739
0.00186071
0.0028045
0.00425657
0.00648878
0.00961166
0.0129172
7.3944e-05
0.000204291
0.000352937
0.00056889
0.000889459
0.0013508
0.00200743
0.00296174
0.00438553
0.00650717
0.00939478
0.012472
8.26665e-05
0.000227331
0.000386809
0.00061152
0.000939507
0.00140758
0.00206917
0.00302083
0.00442172
0.00647973
0.00924904
0.0122124
8.67766e-05
0.000238056
0.000402186
0.000630048
0.000959962
0.00142917
0.00209094
0.00303956
0.0044292
0.00645961
0.00918103
0.0120993
8.67742e-05
0.000238049
0.000402174
0.000630029
0.000959927
0.00142911
0.00209084
0.00303939
0.00442895
0.00645929
0.00918066
0.0120989
8.26601e-05
0.000227314
0.000386781
0.00061147
0.000939415
0.00140741
0.00206888
0.00302036
0.00442102
0.00647878
0.00924796
0.0122115
7.39361e-05
0.000204272
0.000352907
0.000568839
0.000889353
0.00135058
0.00200701
0.00296103
0.00438444
0.00650566
0.00939299
0.0124705
6.00392e-05
0.000166702
0.000295317
0.000491303
0.000790055
0.00122721
0.00186028
0.00280367
0.00425522
0.0064868
0.00960917
0.0129153
4.10175e-05
0.000113045
0.000207688
0.000361784
0.000605461
0.000973146
0.00152576
0.00239474
0.0038248
0.0061922
0.00976983
0.0134933
1.52399e-05
3.93589e-05
7.83786e-05
0.000147535
0.000263376
0.000456304
0.000759983
0.00129425
0.00236696
0.00478205
0.00973465
0.0145991
1.00975e-05
2.55513e-05
5.12407e-05
9.78966e-05
0.000174512
0.000296325
0.000500719
0.000865056
0.00159401
0.0032145
0.00668243
0.0126602
3.01994e-05
8.37041e-05
0.000155184
0.000271589
0.000455465
0.000734695
0.00115961
0.00183464
0.00295657
0.00484649
0.00787234
0.0118269
4.53608e-05
0.000127075
0.000227396
0.000380814
0.000615475
0.000961474
0.00146767
0.00222855
0.00340835
0.00524832
0.0079731
0.0113105
5.67937e-05
0.000158417
0.000276615
0.000449431
0.000707181
0.00108039
0.00161514
0.00239604
0.00356443
0.00532141
0.00783658
0.0108586
6.41553e-05
0.00017813
0.000306401
0.000488604
0.000755909
0.00113916
0.00168298
0.00246631
0.00361829
0.00532127
0.00772211
0.0105957
6.76815e-05
0.000187459
0.000320181
0.000506066
0.000776593
0.00116282
0.00170884
0.00249121
0.00363402
0.00531233
0.00766571
0.0104833
6.76796e-05
0.000187454
0.000320172
0.000506051
0.000776566
0.00116277
0.00170875
0.00249107
0.0036338
0.00531203
0.00766533
0.0104829
6.41504e-05
0.000178117
0.00030638
0.000488567
0.000755839
0.00113903
0.00168274
0.00246591
0.00361769
0.0053204
0.007721
0.0105945
5.67878e-05
0.000158403
0.000276594
0.000449396
0.000707105
0.00108022
0.00161482
0.00239546
0.0035635
0.00532005
0.00783476
0.0108566
4.53561e-05
0.000127066
0.000227392
0.000380813
0.000615448
0.000961354
0.00146736
0.0022279
0.00340722
0.00524657
0.00797065
0.0113078
3.01971e-05
8.37042e-05
0.000155206
0.000271654
0.000455557
0.000734737
0.00115947
0.00183412
0.00295544
0.0048445
0.00786929
0.0118233
1.00973e-05
2.5555e-05
5.12685e-05
9.7978e-05
0.000174644
0.000296463
0.000500771
0.000864889
0.00159331
0.00321231
0.0066775
0.0126552
7.20922e-06
1.86244e-05
3.76715e-05
7.04868e-05
0.000123652
0.000207387
0.000339699
0.000566179
0.000997316
0.00193992
0.00422436
0.00882549
2.18884e-05
6.1046e-05
0.000114444
0.000201056
0.000336978
0.00054363
0.000859011
0.00135973
0.00218985
0.00359393
0.00591315
0.00929754
3.38085e-05
9.55756e-05
0.000172795
0.00029069
0.000470524
0.000736322
0.00112692
0.00171491
0.00262588
0.00404787
0.00620281
0.00911022
4.31087e-05
0.000121396
0.000214127
0.000349783
0.000551829
0.000844831
0.00126569
0.00187992
0.00279549
0.0041657
0.00616005
0.00876959
4.92474e-05
0.000138041
0.000239841
0.000384724
0.000597079
0.000901652
0.00133396
0.00195487
0.00286194
0.00419126
0.00609025
0.00854731
5.2233e-05
0.00014604
0.000251949
0.000400662
0.000616905
0.00092551
0.00136138
0.00198329
0.00288423
0.00419354
0.00605103
0.00844649
5.22316e-05
0.000146037
0.000251943
0.000400651
0.000616885
0.000925472
0.00136132
0.00198318
0.00288406
0.00419329
0.00605069
0.00844609
4.92438e-05
0.000138032
0.000239826
0.000384698
0.00059703
0.000901554
0.00133378
0.00195456
0.00286144
0.00419053
0.00608925
0.00854609
4.31044e-05
0.000121386
0.000214113
0.000349761
0.000551779
0.000844713
0.00126544
0.00187947
0.00279474
0.00416456
0.00615844
0.00876756
3.38052e-05
9.55699e-05
0.000172794
0.000290696
0.000470517
0.000736251
0.0011267
0.00171442
0.00262499
0.00404644
0.00620067
0.00910743
2.1887e-05
6.1047e-05
0.000114464
0.000201112
0.000337064
0.000543693
0.000858946
0.00135938
0.00218904
0.00359243
0.00591062
0.00929392
7.20906e-06
1.8627e-05
3.7692e-05
7.05422e-05
0.000123745
0.000207496
0.000339765
0.000566119
0.000997033
0.0019391
0.00422152
0.00881875
4.55499e-06
1.14498e-05
2.35685e-05
4.52608e-05
8.02471e-05
0.000135614
0.000222311
0.000364012
0.000619183
0.0011449
0.0023066
0.00490596
1.55378e-05
4.3577e-05
8.28224e-05
0.000146117
0.000244359
0.000393264
0.000620002
0.000977218
0.00156206
0.00254126
0.00415295
0.00663682
2.48409e-05
7.08527e-05
0.000129512
0.00021853
0.00035323
0.000551883
0.000843686
0.0012811
0.00195304
0.00299302
0.00456187
0.0067631
3.23336e-05
9.18942e-05
0.00016371
0.000268304
0.000423054
0.000646902
0.000968002
0.00143437
0.00212302
0.00314132
0.00460729
0.0065744
3.73965e-05
0.000105776
0.000185535
0.000298685
0.000463519
0.000699152
0.00103269
0.00150874
0.00219657
0.00318933
0.00458623
0.0064249
3.98929e-05
0.000112541
0.000195982
0.000312833
0.000481736
0.000721847
0.00105974
0.00153838
0.00222347
0.00320228
0.00456736
0.00635244
3.98919e-05
0.000112538
0.000195977
0.000312826
0.000481722
0.00072182
0.00105969
0.0015383
0.00222334
0.00320208
0.00456709
0.00635209
3.73938e-05
0.000105769
0.000185525
0.000298668
0.000463486
0.000699083
0.00103255
0.00150851
0.00219618
0.00318876
0.00458542
0.00642384
3.23305e-05
9.18871e-05
0.000163701
0.000268292
0.000423024
0.000646825
0.000967829
0.00143404
0.00212245
0.00314044
0.004606
0.00657266
2.48386e-05
7.08492e-05
0.000129515
0.000218541
0.000353237
0.000551849
0.000843545
0.00128076
0.00195239
0.00299194
0.00456021
0.00676072
1.55369e-05
4.35782e-05
8.28394e-05
0.000146165
0.000244437
0.000393336
0.000619994
0.000977018
0.00156153
0.00254021
0.00415115
0.00663393
4.55481e-06
1.14512e-05
2.35824e-05
4.53023e-05
8.03181e-05
0.000135699
0.000222378
0.000364014
0.000619018
0.00114438
0.00230538
0.00490273
2.97276e-06
7.79947e-06
1.64735e-05
3.06586e-05
5.29447e-05
8.68493e-05
0.000140051
0.000227376
0.000376245
0.000652259
0.00122917
0.00246008
1.0796e-05
3.04532e-05
5.89316e-05
0.000104371
0.00017385
0.00027833
0.000436367
0.00068237
0.00107745
0.00172409
0.00276887
0.0043684
1.798e-05
5.17085e-05
9.56952e-05
0.000161786
0.000260552
0.000405293
0.000616922
0.000931384
0.00140757
0.00213215
0.00320653
0.00470256
2.39675e-05
6.86747e-05
0.00012359
0.000202885
0.000318917
0.000485734
0.000723909
0.00106696
0.0015666
0.00229252
0.00331589
0.00466881
2.81053e-05
8.01219e-05
0.000141829
0.000228715
0.000353987
0.000531901
0.000782372
0.00113668
0.00164128
0.00235584
0.00333688
0.00460212
3.01714e-05
8.57735e-05
0.000150692
0.000240972
0.000370154
0.000552542
0.000807662
0.00116563
0.00167037
0.00237717
0.00333712
0.00456384
3.01707e-05
8.57716e-05
0.000150689
0.000240967
0.000370145
0.000552524
0.000807627
0.00116557
0.00167027
0.00237702
0.00333691
0.00456357
2.81033e-05
8.01171e-05
0.000141822
0.000228704
0.000353966
0.000531856
0.00078228
0.00113651
0.001641
0.00235541
0.00333627
0.0046013
2.39652e-05
6.86699e-05
0.000123585
0.00020288
0.000318903
0.000485688
0.000723796
0.00106673
0.00156619
0.00229187