/*--------------------------------*- C++ -*----------------------------------*\
| =========                 |                                                 |
| \\      /  F ield         | OpenFOAM: The Open Source CFD Toolbox           |
|  \\    /   O peration     | Version:  2.3.1                                 |
|   \\  /    A nd           | Web:      www.OpenFOAM.org                      |
|    \\/     M anipulation  |                                                 |
\*---------------------------------------------------------------------------*/
FoamFile
{
    version     2.0;
    format      ascii;
    class       volScalarField;
    location    "15";
    object      Sed_0;
}
// * * * * * * * * * * * * * * * * * * * * * * * * * * * * * * * * * * * * * //

dimensions      [0 0 0 0 0 0 0];

internalField   nonuniform List<scalar> 
303072
(
0.0234283
0.0242916
0.0250269
0.025971
0.0264437
0.0274195
0.0281255
0.0286598
0.0296351
0.0299506
0.0302076
0.0307548
0.0234519
0.0241753
0.0248971
0.0258043
0.026315
0.0272584
0.0279232
0.0282946
0.0291253
0.0293675
0.0294862
0.0297245
0.0234718
0.0241458
0.0248783
0.0258078
0.0263254
0.0272716
0.0279511
0.0282802
0.0290655
0.0293149
0.0294309
0.0295455
0.0234844
0.0241215
0.0248701
0.0258435
0.0263364
0.0272749
0.0279843
0.0282955
0.0290483
0.0293067
0.0294126
0.0295914
0.0234877
0.0241077
0.0248709
0.0258634
0.0263446
0.0272741
0.0279898
0.0282866
0.0290089
0.0292653
0.0293615
0.0296208
0.0234875
0.0241021
0.0248748
0.0258706
0.0263486
0.0272733
0.0279938
0.0282849
0.0289936
0.0292413
0.0293406
0.029633
0.0234875
0.0241021
0.0248748
0.0258706
0.0263486
0.0272733
0.0279938
0.0282849
0.0289935
0.0292413
0.0293405
0.0296329
0.0234877
0.0241078
0.0248708
0.0258634
0.0263447
0.0272741
0.0279898
0.0282865
0.0290086
0.0292651
0.0293613
0.0296205
0.0234843
0.0241216
0.02487
0.0258435
0.0263365
0.0272748
0.0279843
0.0282954
0.0290479
0.0293065
0.0294121
0.0295909
0.0234718
0.0241459
0.0248781
0.0258079
0.0263254
0.0272715
0.0279512
0.0282801
0.029065
0.0293148
0.0294304
0.0295449
0.0234519
0.0241755
0.024897
0.0258043
0.0263151
0.0272582
0.0279234
0.0282945
0.0291249
0.0293675
0.0294858
0.0297242
0.0234281
0.0242917
0.0250269
0.0259711
0.0264438
0.0274193
0.0281258
0.0286596
0.029635
0.0299508
0.0302077
0.030755
0.0230046
0.0230276
0.0230782
0.023133
0.0231533
0.023254
0.0232641
0.0232081
0.0231331
0.0226834
0.0222189
0.0218824
0.0230163
0.023035
0.0230612
0.0230584
0.0229971
0.0229485
0.0228146
0.0224352
0.0222149
0.0216102
0.0210439
0.0205795
0.0230231
0.0230378
0.0230706
0.0230817
0.0230372
0.0229856
0.0228416
0.022422
0.0221542
0.0215103
0.020892
0.0203781
0.0230244
0.0230379
0.0230708
0.0230967
0.0230526
0.0230017
0.022857
0.0224195
0.0221451
0.0215064
0.0209064
0.0204448
0.0230243
0.023038
0.0230705
0.0231056
0.0230611
0.0230017
0.0228408
0.0223681
0.0220927
0.0214658
0.0208916
0.0204989
0.0230242
0.023038
0.0230698
0.0231106
0.0230667
0.0230035
0.0228346
0.0223429
0.0220644
0.0214361
0.0208735
0.0205172
0.0230242
0.023038
0.0230697
0.0231106
0.0230667
0.0230035
0.0228345
0.0223428
0.0220643
0.021436
0.0208733
0.020517
0.0230243
0.023038
0.0230704
0.0231056
0.0230611
0.0230016
0.0228408
0.0223678
0.0220924
0.0214655
0.0208911
0.0204985
0.0230244
0.0230379
0.0230708
0.0230968
0.0230526
0.0230017
0.0228569
0.0224192
0.0221447
0.021506
0.0209056
0.0204442
0.0230231
0.0230378
0.0230706
0.0230817
0.0230372
0.0229856
0.0228415
0.0224217
0.0221538
0.0215099
0.0208912
0.0203775
0.0230163
0.0230351
0.0230612
0.0230585
0.0229971
0.0229485
0.0228146
0.022435
0.0222146
0.02161
0.0210433
0.0205792
0.0230046
0.0230276
0.0230782
0.023133
0.0231533
0.023254
0.0232641
0.0232081
0.0231332
0.0226839
0.022219
0.021883
0.0229857
0.0229147
0.0228214
0.0226449
0.0223874
0.0222376
0.021901
0.0212077
0.0207141
0.0193255
0.0182056
0.0173542
0.022915
0.0226582
0.0223311
0.0219132
0.021274
0.0208845
0.0201824
0.0192181
0.0186572
0.0174675
0.0166566
0.0160758
0.0229335
0.0226482
0.0223632
0.0219931
0.0213744
0.0209459
0.0201726
0.0191439
0.0184621
0.0173023
0.0164689
0.0158896
0.0229354
0.022648
0.0223764
0.0220412
0.0214272
0.0209903
0.0202035
0.01915
0.0184557
0.0173214
0.0165042
0.0159275
0.022936
0.0226533
0.0223802
0.0220751
0.0214481
0.0209814
0.020151
0.0190809
0.0184013
0.0172985
0.0165172
0.015966
0.022936
0.0226553
0.0223793
0.0220894
0.0214666
0.0209802
0.0201239
0.0190385
0.0183586
0.0172677
0.0165077
0.0159757
0.022936
0.0226554
0.0223793
0.0220894
0.0214666
0.0209802
0.0201239
0.0190383
0.0183585
0.0172675
0.0165075
0.0159755
0.022936
0.0226533
0.0223802
0.0220752
0.0214481
0.0209812
0.0201508
0.0190805
0.0184007
0.017298
0.0165166
0.0159654
0.0229354
0.022648
0.0223764
0.0220413
0.0214272
0.0209901
0.0202033
0.0191494
0.018455
0.0173207
0.0165032
0.0159267
0.0229335
0.0226482
0.0223632
0.0219932
0.0213745
0.0209458
0.0201725
0.0191434
0.0184614
0.0173017
0.0164679
0.0158888
0.022915
0.0226582
0.0223311
0.0219133
0.0212741
0.0208844
0.0201824
0.0192177
0.0186567
0.0174673
0.016656
0.0160754
0.0229857
0.0229147
0.0228215
0.022645
0.0223874
0.0222376
0.0219014
0.0212076
0.0207143
0.0193268
0.0182063
0.0173553
0.0223284
0.0213731
0.0206017
0.0198569
0.0191569
0.0187192
0.0176492
0.0162897
0.0151489
0.0128964
0.0123431
0.0124067
0.021873
0.0204453
0.0191909
0.0182949
0.0173658
0.016768
0.0158484
0.014849
0.0141701
0.0131561
0.0126877
0.0127133
0.0219691
0.020324
0.0192514
0.0184064
0.0174993
0.0168197
0.0159154
0.0149051
0.0141392
0.0132784
0.0127455
0.0126935
0.0219802
0.0202913
0.0192848
0.018499
0.0176147
0.0169302
0.0160224
0.0150023
0.014214
0.0133416
0.0128063
0.0126824
0.021983
0.0202824
0.0193088
0.0185462
0.0176533
0.0169559
0.0160262
0.0149942
0.0142186
0.013348
0.0128292
0.0126726
0.0219798
0.020274
0.019317
0.0185678
0.0176686
0.0169584
0.0160098
0.0149665
0.0141959
0.0133312
0.0128261
0.0126619
0.0219798
0.0202739
0.019317
0.0185678
0.0176686
0.0169583
0.0160097
0.0149663
0.0141957
0.013331
0.0128259
0.0126617
0.021983
0.0202824
0.0193088
0.0185462
0.0176533
0.0169557
0.016026
0.0149937
0.014218
0.0133475
0.0128286
0.0126721
0.0219802
0.0202913
0.0192848
0.0184991
0.0176147
0.0169299
0.0160221
0.0150017
0.0142132
0.0133409
0.0128055
0.0126817
0.0219691
0.020324
0.0192513
0.0184064
0.0174993
0.0168194
0.0159152
0.0149045
0.0141386
0.0132778
0.0127447
0.0126928
0.021873
0.0204454
0.019191
0.0182951
0.0173659
0.0167679
0.0158485
0.0148487
0.0141699
0.0131561
0.0126874
0.012713
0.0223282
0.0213731
0.020602
0.0198573
0.0191572
0.0187196
0.0176503
0.01629
0.0151507
0.0128979
0.0123435
0.0124071
0.00371709
0.00570026
0.00702962
0.00813488
0.00870716
0.00891177
0.008775
0.00876474
0.00897803
0.00955588
0.0104403
0.0113381
0.00659001
0.0094548
0.0107399
0.0113006
0.0113161
0.0112294
0.0108588
0.0103408
0.0101632
0.01022
0.0105783
0.0112579
0.00731853
0.0103717
0.0116136
0.0120548
0.0120184
0.0118481
0.0113952
0.0108003
0.0103967
0.0102735
0.0104465
0.0109481
0.00739669
0.0106044
0.01193
0.0123766
0.0123305
0.012129
0.0116228
0.0109846
0.0105154
0.0102587
0.0103693
0.0107646
0.00735143
0.0106554
0.0120491
0.0125003
0.012449
0.0122308
0.0116839
0.0110178
0.0105442
0.0102373
0.010321
0.0106649
0.00732051
0.0106591
0.0120849
0.0125355
0.0124811
0.012253
0.0116836
0.0110048
0.0105346
0.0102174
0.0102928
0.0106189
0.00732044
0.010659
0.0120848
0.0125354
0.012481
0.0122529
0.0116835
0.0110046
0.0105344
0.0102172
0.0102926
0.0106188
0.00735126
0.0106553
0.012049
0.0125002
0.0124488
0.0122305
0.0116835
0.0110173
0.0105437
0.0102368
0.0103206
0.0106645
0.00739643
0.0106043
0.0119299
0.0123765
0.0123303
0.0121287
0.0116224
0.010984
0.0105147
0.0102581
0.0103687
0.0107641
0.00731819
0.0103714
0.0116134
0.0120547
0.0120182
0.0118479
0.0113948
0.0107998
0.0103961
0.0102729
0.010446
0.0109478
0.00658961
0.00945465
0.0107399
0.0113009
0.0113164
0.0112296
0.0108591
0.0103409
0.0101631
0.0102198
0.0105779
0.0112578
0.00371706
0.00570053
0.00703022
0.00813599
0.00870847
0.00891308
0.00877625
0.00876553
0.00897826
0.00955531
0.0104397
0.0113381
0.000631483
0.00144735
0.00226061
0.00319935
0.00403435
0.00485388
0.00590897
0.00695835
0.00811219
0.00986335
0.011547
0.0127205
0.00147806
0.00348193
0.0049848
0.00596915
0.00660039
0.00700258
0.00726512
0.00759669
0.00818805
0.00912454
0.0101921
0.0111568
0.00190626
0.00468346
0.00612456
0.00701971
0.00748135
0.00771799
0.00776551
0.00783941
0.00810738
0.00873208
0.00964202
0.0105379
0.00204717
0.00508887
0.00661921
0.00748702
0.00787799
0.00802785
0.00799139
0.0079619
0.00809126
0.00852313
0.00934074
0.0101884
0.00209862
0.00522721
0.0068089
0.0076671
0.00803333
0.00813722
0.00806272
0.00798273
0.00807233
0.00842519
0.0091789
0.00999793
0.00211113
0.00526096
0.00686277
0.00771772
0.00807542
0.00816064
0.00807059
0.00797305
0.00805166
0.00838235
0.00910795
0.00991413
0.00211111
0.00526091
0.0068627
0.00771765
0.00807533
0.00816052
0.00807045
0.0079729
0.0080515
0.00838222
0.00910785
0.00991407
0.00209857
0.0052271
0.00680876
0.00766692
0.00803309
0.00813689
0.00806235
0.00798231
0.00807191
0.00842482
0.00917862
0.00999776
0.00204711
0.00508872
0.00661902
0.0074868
0.0078777
0.00802745
0.00799093
0.00796137
0.00809071
0.00852262
0.00934035
0.0101882
0.00190619
0.0046833
0.00612442
0.00701959
0.0074812
0.00771774
0.0077652
0.00783899
0.00810684
0.00873152
0.00964164
0.0105378
0.00147802
0.00348198
0.00498505
0.00596958
0.00660086
0.00700297
0.00726529
0.00759653
0.00818759
0.00912401
0.0101918
0.011157
0.000631566
0.00144769
0.00226132
0.00320042
0.00403559
0.00485464
0.00590891
0.00695787
0.00811098
0.00986164
0.011546
0.0127208
0.000219173
0.000568453
0.00105332
0.0018214
0.00278799
0.00404903
0.00561914
0.00727345
0.00893662
0.0111255
0.0130107
0.0139374
0.000521466
0.00141169
0.00229054
0.00315631
0.00397514
0.00473798
0.00554797
0.00647843
0.0076226
0.009046
0.0105898
0.0117491
0.00074973
0.00206785
0.00303221
0.00387891
0.00455205
0.0051208
0.0056632
0.00630608
0.00716001
0.00833553
0.00967958
0.010861
0.000855722
0.00237818
0.00341528
0.00425299
0.00485193
0.0053236
0.00574109
0.00624894
0.00695684
0.00799333
0.00922174
0.0103627
0.000902074
0.00250633
0.00358051
0.0044151
0.00497952
0.00540488
0.00576398
0.00621072
0.00685575
0.00782387
0.00899026
0.0100944
0.000917308
0.00254552
0.00363273
0.00446555
0.00501708
0.00542475
0.00576237
0.00618666
0.00680933
0.00775098
0.00889216
0.00997727
0.000917294
0.00254548
0.00363266
0.00446547
0.00501698
0.00542464
0.00576225
0.00618654
0.00680921
0.00775087
0.00889209
0.00997724
0.000902041
0.00250622
0.00358034
0.00441489
0.00497926
0.00540458
0.00576365
0.00621037
0.0068554
0.00782355
0.00899004
0.0100943
0.000855679
0.00237803
0.00341507
0.00425274
0.00485162
0.00532322
0.00574066
0.00624847
0.00695632
0.00799286
0.00922144
0.0103627
0.000749693
0.00206773
0.00303209
0.00387879
0.0045519
0.00512056
0.00566284
0.00630558
0.00715939
0.00833495
0.00967927
0.0108611
0.000521465
0.00141174
0.00229075
0.00315666
0.00397549
0.00473811
0.00554776
0.0064779
0.00762186
0.00904536
0.0105896
0.0117495
0.000219236
0.00056869
0.00105388
0.0018223
0.00278888
0.00404924
0.00561826
0.00727221
0.00893492
0.011124
0.0130104
0.0139379
0.000129397
0.000349091
0.000705616
0.00137416
0.00241268
0.00392489
0.00571378
0.00738367
0.00912737
0.0114833
0.0136178
0.0144437
0.000292563
0.000778307
0.001315
0.00199711
0.00280754
0.00374623
0.00483379
0.00606194
0.0075167
0.0093615
0.0112917
0.0125693
0.000413601
0.00110768
0.00172072
0.00239518
0.00309924
0.0038468
0.00467833
0.00566651
0.00690346
0.00847462
0.0102468
0.011619
0.00048015
0.00129299
0.0019555
0.00262591
0.00327006
0.00392359
0.00463198
0.00549228
0.00660358
0.00802937
0.00968081
0.0110443
0.000512641
0.00138177
0.00206922
0.00273525
0.00334836
0.00395548
0.00460444
0.00540098
0.00644962
0.00780573
0.0093877
0.0107258
0.000524781
0.0014139
0.00211033
0.0027735
0.00337371
0.00396211
0.00458759
0.00535913
0.00638296
0.00771256
0.00926317
0.0105851
0.000524771
0.00141386
0.00211028
0.00277343
0.00337363
0.00396201
0.00458748
0.00535901
0.00638283
0.00771244
0.0092631
0.0105851
0.000512615
0.00138169
0.00206908
0.00273507
0.00334814
0.00395522
0.00460414
0.00540064
0.00644926
0.0078054
0.00938751
0.0107258
0.000480116
0.00129288
0.00195535
0.00262571
0.00326979
0.00392326
0.00463156
0.00549177
0.00660301
0.00802884
0.00968051
0.0110444
0.000413575
0.00110761
0.00172063
0.00239508
0.00309909
0.00384652
0.00467787
0.00566588
0.00690272
0.00847391
0.0102465
0.0116192
0.00029256
0.000778328
0.00131513
0.00199734
0.00280772
0.00374613
0.00483332
0.00606118
0.00751574
0.00936066
0.0112914
0.0125698
0.000129436
0.000349249
0.000706045
0.00137493
0.00241337
0.00392481
0.00571283
0.00738241
0.00912564
0.0114817
0.0136175
0.0144441
0.000102597
0.000272036
0.000558055
0.00112751
0.0020886
0.00355243
0.0052306
0.00670771
0.0086173
0.0115004
0.0139038
0.0147021
0.000205561
0.000548205
0.000940884
0.00150663
0.0022723
0.00325482
0.00443445
0.00579272
0.00747393
0.009702
0.0120221
0.0133639
0.000284265
0.000745858
0.00118942
0.00174455
0.00242373
0.00323731
0.00420775
0.00539001
0.00689324
0.00886478
0.0110133
0.012511
0.000330921
0.000865713
0.00134011
0.00188697
0.00251632
0.00324403
0.00410499
0.00517637
0.00656967
0.00839297
0.0104223
0.0119433
0.000355407
0.000928759
0.00141857
0.00195906
0.00256032
0.00324353
0.00404839
0.00506315
0.00639547
0.008147
0.0101061
0.0116142
0.000365294
0.000954034
0.0014497
0.00198664
0.00257538
0.00323969
0.0040211
0.0050121
0.00631994
0.0080424
0.00996927
0.0114658
0.000365285
0.00095401
0.00144966
0.00198659
0.00257531
0.0032396
0.00402099
0.00501197
0.0063198
0.00804226
0.00996918
0.0114658
0.000355385
0.000928695
0.00141847
0.00195892
0.00256014
0.00324329
0.00404808
0.00506277
0.00639505
0.0081466
0.0101058
0.0116142
0.000330893
0.000865635
0.00133999
0.00188681
0.00251608
0.0032437
0.00410453
0.00517579
0.00656899
0.00839231
0.0104219
0.0119434
0.000284244
0.000745804
0.00118936
0.00174447
0.00242357
0.00323698
0.00420722
0.00538924
0.0068923
0.00886385
0.0110129
0.0125112
0.000205557
0.000548216
0.000940976
0.0015068
0.00227239
0.00325461
0.00443384
0.00579176
0.00747272
0.00970075
0.0120216
0.0133642
0.000102628
0.000272159
0.000558411
0.00112816
0.00208924
0.00355245
0.0052299
0.00670655
0.00861528
0.0114987
0.0139033
0.0147024
6.89084e-05
0.000183398
0.000379156
0.00078893
0.0015183
0.00263071
0.00389831
0.00525695
0.00745956
0.0110919
0.0140175
0.0148681
0.000155256
0.000416647
0.000732366
0.00121204
0.00190385
0.00283486
0.00399199
0.005409
0.00731149
0.0098479
0.0125056
0.0139539
0.000212896
0.000563003
0.000923675
0.00140482
0.0020439
0.00286268
0.00388954
0.0051956
0.006914
0.00920081
0.0117027
0.0132953
0.000248398
0.000651688
0.00103499
0.0015095
0.00211003
0.00286021
0.00380061
0.00501633
0.00662983
0.00879909
0.0111752
0.0128068
0.000267826
0.000700104
0.00109444
0.00156239
0.00213864
0.00284974
0.00374148
0.0049062
0.00647308
0.00857924
0.0108777
0.0125073
0.000276049
0.000720535
0.00111915
0.00158338
0.00214815
0.00284172
0.00371206
0.00485467
0.00640242
0.00848082
0.0107462
0.0123689
0.000276042
0.000720516
0.00111912
0.00158333
0.00214809
0.00284163
0.00371194
0.00485452
0.00640224
0.00848064
0.010746
0.0123689
0.000267808
0.000700053
0.00109436
0.00156227
0.00213847
0.00284949
0.00374115
0.00490577
0.00647255
0.0085787
0.0108774
0.0125073
0.000248375
0.000651627
0.00103489
0.00150936
0.00210981
0.00285987
0.00380011
0.00501564
0.00662898
0.0087982
0.0111747
0.0128068
0.000212878
0.00056296
0.000923625
0.00140474
0.00204374
0.00286233
0.00388892
0.00519468
0.00691287
0.00919958
0.0117019
0.0132954
0.000155248
0.000416646
0.00073243
0.00121217
0.00190391
0.00283463
0.00399132
0.00540785
0.00730991
0.00984639
0.0125048
0.0139541
6.8922e-05
0.000183466
0.000379394
0.000789455
0.0015189
0.00263099
0.00389791
0.00525573
0.00745724
0.0110895
0.0140166
0.0148685
5.54958e-05
0.000145721
0.00029533
0.000580636
0.00106636
0.00180913
0.00280304
0.00424979
0.00664492
0.0105651
0.0140393
0.0150518
0.000121184
0.000327605
0.000582843
0.000980837
0.00157599
0.00240265
0.0034815
0.0049114
0.00694748
0.00980462
0.0126892
0.0143219
0.000165922
0.000443692
0.000744291
0.0011641
0.00175061
0.00253617
0.00356299
0.00492947
0.00681335
0.00931734
0.0120367
0.0138061
0.000194482
0.000515469
0.000837456
0.00125746
0.00182118
0.00256244
0.00353257
0.00483427
0.0066246
0.0089815
0.0116068
0.0134141
0.000210599
0.000555489
0.000887442
0.00130349
0.00184911
0.00256034
0.00349323
0.00475451
0.00649445
0.00879073
0.0113597
0.0131682
0.000217626
0.000572835
0.000908627
0.00132188
0.0018582
0.0025549
0.00347031
0.00471329
0.00643289
0.00871012
0.0112499
0.0130536
0.00021762
0.000572819
0.000908601
0.00132184
0.00185814
0.00255481
0.00347019
0.00471312
0.00643268
0.0087099
0.0112497
0.0130536
0.000210584
0.000555448
0.000887374
0.00130338
0.00184895
0.00256009
0.00349287
0.00475402
0.00649384
0.00879008
0.0113593
0.0131681
0.000194463
0.000515419
0.000837378
0.00125734
0.00182096
0.00256209
0.00353202
0.00483348
0.0066236
0.00898046
0.011606
0.0134139
0.000165906
0.000443656
0.00074425
0.00116403
0.00175045
0.00253581
0.00356232
0.00492842
0.00681196
0.0093159
0.0120356
0.013806
0.000121176
0.0003276
0.000582891
0.000980947
0.00157605
0.00240245
0.00348084
0.00491015
0.00694566
0.00980264
0.0126881
0.0143219
5.55047e-05
0.00014577
0.000295513
0.000581026
0.00106684
0.0018094
0.00280268
0.0042485
0.00664255
0.0105621
0.0140383
0.0150526
3.78406e-05
9.87572e-05
0.000199991
0.000393027
0.000746364
0.00131959
0.00214966
0.0034124
0.00560145
0.00961045
0.0137813
0.0152051
9.35012e-05
0.000253952
0.000456384
0.000779493
0.00127473
0.00198221
0.00295088
0.00432005
0.00636558
0.00934437
0.0126696
0.0144828
0.000129836
0.000351013
0.000599808
0.000959958
0.001481
0.00220187
0.00317751
0.00452816
0.00645836
0.00913086
0.012102
0.0140244
0.000153629
0.000412007
0.000683069
0.00105161
0.00156673
0.0022689
0.00321799
0.00453063
0.0063894
0.00892372
0.011724
0.0136787
0.0001674
0.000446641
0.000728129
0.00109672
0.00160156
0.00228507
0.00321084
0.00449641
0.0063175
0.00878653
0.0115057
0.0134633
0.000173537
0.000461932
0.000747478
0.00111491
0.00161348
0.0022868
0.00320036
0.00447293
0.00627845
0.00872
0.0114083
0.0133636
0.000173532
0.000461919
0.000747456
0.00111487
0.00161342
0.00228671
0.00320023
0.00447274
0.00627821
0.00871974
0.0114081
0.0133635
0.000167387
0.000446607
0.000728072
0.00109663
0.0016014
0.00228483
0.00321046
0.00449586
0.00631679
0.00878577
0.0115051
0.013463
0.000153614
0.000411966
0.000683004
0.00105151
0.00156654
0.00226855
0.00321742
0.00452977
0.00638825
0.00892244
0.011723
0.0136784
0.000129823
0.000350984
0.000599774
0.000959903
0.00148086
0.00220153
0.00317684
0.00452705
0.00645682
0.00912909
0.0121007
0.014024
9.34932e-05
0.000253943
0.000456421
0.000779591
0.0012748
0.00198206
0.00295029
0.00431881
0.00636368
0.00934206
0.0126681
0.0144825
3.78446e-05
9.8785e-05
0.00020011
0.000393298
0.000746727
0.00131977
0.00214936
0.00341129
0.00559911
0.00960675
0.0137796
0.0152055
2.96339e-05
7.70705e-05
0.000154322
0.000298183
0.000534744
0.000922429
0.0015224
0.00252169
0.00444605
0.00820719
0.0131634
0.01524
7.21567e-05
0.000196806
0.00035607
0.000612823
0.00101218
0.0015961
0.00243069
0.00367197
0.00560885
0.00855741
0.012202
0.0145083
0.000101415
0.000276694
0.000479409
0.000780398
0.001227
0.00186037
0.00274266
0.00400426
0.00586455
0.00853628
0.0117489
0.0140547
0.000121368
0.00032889
0.000554137
0.000870165
0.00132492
0.00196083
0.00284073
0.00408541
0.00588859
0.00842267
0.0114317
0.0137149
0.000133237
0.000359264
0.000595552
0.000915629
0.0013678
0.00199615
0.00286545
0.00409427
0.0058664
0.00833441
0.0112464
0.0135056
0.000138633
0.000372915
0.000613635
0.00093435
0.00138355
0.00200631
0.00286874
0.00408925
0.00584833
0.00829024
0.0111636
0.0134097
0.000138629
0.000372904
0.000613616
0.00093432
0.0013835
0.00200623
0.00286861
0.00408905
0.00584807
0.00828994
0.0111634
0.0134096
0.000133227
0.000359236
0.000595505
0.00091555
0.00136767
0.00199592
0.00286508
0.00409371
0.00586564
0.00833351
0.0112456
0.0135053
0.000121355
0.000328857
0.000554084
0.000870075
0.00132475
0.00196051
0.00284018
0.00408455
0.00588738
0.00842122
0.0114304
0.0137144
0.000101404
0.00027667
0.000479384
0.000780357
0.00122689
0.00186007
0.00274204
0.00400319
0.00586297
0.00853432
0.0117471
0.0140542
7.21499e-05
0.000196799
0.0003561
0.000612911
0.00101226
0.00159601
0.0024302
0.00367086
0.00560698
0.0085549
0.0121999
0.0145078
2.96362e-05
7.70897e-05
0.000154411
0.00029838
0.000535007
0.000922609
0.00152224
0.00252083
0.00444397
0.00820314
0.013161
0.0152402
2.01383e-05
5.17695e-05
0.000103516
0.000201573
0.000371966
0.000644828
0.00109441
0.001876
0.00338466
0.00649079
0.0120041
0.0151701
5.46974e-05
0.000149924
0.00027318
0.000473804
0.000789448
0.00125935
0.00195282
0.0030209
0.00473976
0.00748029
0.0112861
0.0142662
7.84799e-05
0.000216003
0.000378651
0.000624223
0.000994911
0.00153044
0.00229358
0.00341213
0.00510423
0.00763088
0.01093
0.013759
9.52116e-05
0.000260546
0.000444916
0.000709261
0.00109715
0.00164914
0.00242581
0.00354265
0.00519072
0.00758676
0.0106435
0.0133811
0.000105432
0.000287137
0.000482704
0.000754082
0.00114543
0.00169844
0.00247385
0.00358233
0.00520293
0.00753052
0.0104714
0.0131548
0.000110163
0.0002993
0.000499522
0.000773038
0.00116425
0.00171558
0.00248826
0.00359149
0.00519979
0.00749918
0.010394
0.0130532
0.00011016
0.000299292
0.000499507
0.000773013
0.00116421
0.0017155
0.00248814
0.00359131
0.00519953
0.00749886
0.0103937
0.013053
0.000105423
0.000287115
0.000482667
0.000754018
0.00114532
0.00169824
0.00247351
0.0035818
0.00520218
0.00752957
0.0104704
0.0131542
9.52014e-05
0.000260521
0.000444876
0.000709191
0.00109701
0.00164887
0.00242532
0.00354184
0.00518953
0.00758522
0.0106419
0.0133802
7.84715e-05
0.000215985
0.000378634
0.000624198
0.000994828
0.0015302
0.00229305
0.00341116
0.00510272
0.00762883
0.0109278
0.0137578
5.46921e-05
0.000149919
0.000273207
0.000473883
0.000789536
0.00125931
0.00195245
0.00301996
0.00473805
0.00747775
0.0112832
0.014265
2.01388e-05
5.17793e-05
0.000103574
0.000201719
0.000372174
0.000644992
0.00109433
0.00187541
0.00338302
0.00648713
0.0119998
0.0151697
1.52421e-05
3.93615e-05
7.83591e-05
0.000147482
0.000263333
0.000456411
0.000760457
0.00129545
0.00236954
0.00478724
0.00974487
0.0146037
4.10299e-05
0.000113075
0.000207728
0.000361846
0.000605626
0.000973594
0.00152677
0.0023967
0.0038282
0.00619749
0.00977693
0.013498
6.00588e-05
0.000166755
0.000295412
0.00049148
0.000790411
0.0012279
0.00186153
0.00280579
0.00425856
0.0064917
0.00961528
0.0129201
7.39595e-05
0.000204337
0.000353029
0.000569065
0.000889768
0.00135132
0.00200825
0.00296302
0.00438749
0.00651006
0.0093984
0.0124752
8.2683e-05
0.000227379
0.000386903
0.000611693
0.00093981
0.00140808
0.00206998
0.00302209
0.00442366
0.00648261
0.00925269
0.0122157
8.67934e-05
0.000238104
0.000402279
0.00063022
0.000960261
0.00142967
0.00209173
0.0030408
0.00443113
0.0064625
0.00918471
0.0121026
8.6791e-05
0.000238097
0.000402268
0.0006302
0.000960226
0.0014296
0.00209163
0.00304064
0.00443089
0.00646217
0.00918435
0.0121023
8.26767e-05
0.000227362
0.000386874
0.000611644
0.000939718
0.00140791
0.00206968
0.00302162
0.00442296
0.00648167
0.00925161
0.0122148
7.39517e-05
0.000204317
0.000352999
0.000569013
0.000889662
0.0013511
0.00200783
0.00296231
0.0043864
0.00650855
0.00939661
0.0124737
6.00524e-05
0.000166742
0.000295402
0.000491469
0.000790358
0.00122772
0.00186111
0.00280497
0.00425721
0.00648972
0.0096128
0.0129182
4.10264e-05
0.000113073
0.000207753
0.000361918
0.000605718
0.000973601
0.00152652
0.00239597
0.00382675
0.00619513
0.00977356
0.0134957
1.52418e-05
3.93671e-05
7.84009e-05
0.000147588
0.000263495
0.000456548
0.000760444
0.00129509
0.00236844
0.00478459
0.00973887
0.014601
1.00986e-05
2.55562e-05
5.1254e-05
9.79277e-05
0.000174579
0.00029646
0.000500976
0.000865534
0.0015949
0.00321624
0.00668529
0.0126623
3.02057e-05
8.37242e-05
0.00015523
0.000271685
0.000455648
0.000735019
0.00116015
0.00183552
0.00295797
0.00484861
0.00787519
0.0118295
4.53704e-05
0.000127105
0.000227459
0.000380939
0.000615702
0.000961859
0.00146829
0.00222952
0.00340984
0.00525051
0.00797599
0.0113133
5.68053e-05
0.000158452
0.000276686
0.000449566
0.000707419
0.00108079
0.00161577
0.00239702
0.00356591
0.0053236
0.00783949
0.0108616
6.41678e-05
0.000178167
0.000306475
0.000488739
0.000756146
0.00113955
0.0016836
0.00246727
0.00361976
0.00532345
0.00772504
0.0105988
6.76944e-05
0.000187496
0.000320254
0.000506202
0.000776829
0.00116321
0.00170945
0.00249217
0.00363548
0.00531452
0.00766866
0.0104864
6.76925e-05
0.000187491
0.000320246
0.000506187
0.000776802
0.00116316
0.00170937
0.00249203
0.00363527
0.00531422
0.00766829
0.010486
6.4163e-05
0.000178154
0.000306454
0.000488703
0.000756077
0.00113942
0.00168336
0.00246688
0.00361915
0.00532259
0.00772393
0.0105976
5.67994e-05
0.000158437
0.000276665
0.00044953
0.000707343
0.00108062
0.00161544
0.00239644
0.00356498
0.00532223
0.00783767
0.0108596
4.53658e-05
0.000127096
0.000227455
0.000380938
0.000615676
0.00096174
0.00146798
0.00222887
0.0034087
0.00524876
0.00797354
0.0113106
3.02034e-05
8.37243e-05
0.000155253
0.00027175
0.00045574
0.000735061
0.00116001
0.001835
0.00295684
0.00484662
0.00787213
0.0118259
1.00984e-05
2.55599e-05
5.12818e-05
9.80091e-05
0.00017471
0.000296598
0.000501028
0.000865367
0.0015942
0.00321406
0.00668035
0.0126572
7.21001e-06
1.86278e-05
3.76805e-05
7.05068e-05
0.000123692
0.000207461
0.000339839
0.000566443
0.000997815
0.00194076
0.00422555
0.00882684
2.18927e-05
6.10598e-05
0.000114476
0.000201122
0.000337104
0.000543853
0.000859382
0.00136032
0.00219078
0.00359532
0.00591502
0.00929947
3.38153e-05
9.55969e-05
0.00017284
0.00029078
0.000470688
0.000736599
0.00112736
0.00171559
0.00262691
0.00404937
0.0062048
0.00911233
4.31171e-05
0.000121422
0.00021418
0.000349883
0.000552005
0.000845123
0.00126615
0.00188063
0.00279653
0.0041672
0.00616207
0.00877178
4.92567e-05
0.000138069
0.000239897
0.000384827
0.000597258
0.000901945
0.00133442
0.00195557
0.00286298
0.00419276
0.00609229
0.00854957
5.22425e-05
0.000146069
0.000252005
0.000400765
0.000617083
0.0009258
0.00136184
0.00198398
0.00288527
0.00419505
0.00605308
0.00844878
5.22411e-05
0.000146065
0.000251998
0.000400754
0.000617063
0.000925763
0.00136177
0.00198387
0.0028851
0.0041948
0.00605274
0.00844838
4.9253e-05
0.000138059
0.000239882
0.000384801
0.000597208
0.000901846
0.00133423
0.00195526
0.00286248
0.00419203
0.00609128
0.00854834
4.31128e-05
0.000121412
0.000214166
0.000349861
0.000551955
0.000845005
0.0012659
0.00188017
0.00279578
0.00416607
0.00616045
0.00876975
3.3812e-05
9.55912e-05
0.00017284
0.000290786
0.000470681
0.000736528
0.00112714
0.00171511
0.00262603
0.00404794
0.00620267
0.00910955
2.18912e-05
6.10608e-05
0.000114496
0.000201179
0.000337191
0.000543915
0.000859317
0.00135998
0.00218997
0.00359383
0.0059125
0.00929584
7.20985e-06
1.86304e-05
3.77011e-05
7.05623e-05
0.000123785
0.00020757
0.000339905
0.000566383
0.000997532
0.00193993
0.00422271
0.0088201
4.55541e-06
1.14516e-05
2.35735e-05
4.52728e-05
8.02717e-05
0.000135662
0.000222395
0.000364153
0.000619414
0.0011453
0.00230719
0.00490615
1.55407e-05
4.35862e-05
8.28439e-05
0.000146162
0.000244443
0.00039341
0.000620245
0.000977603
0.00156265
0.0025421
0.00415401
0.00663775
2.48456e-05
7.08676e-05
0.000129544
0.000218593
0.000353343
0.000552073
0.000843989
0.00128156
0.00195372
0.00299396
0.00456305
0.00676425
3.23395e-05
9.19126e-05
0.000163748
0.000268376
0.000423179
0.000647108
0.000968322
0.00143485
0.00212371
0.00314228
0.00460851
0.00657565
3.74031e-05
0.000105796
0.000185575
0.00029876
0.000463648
0.000699361
0.00103301
0.00150922
0.00219726
0.0031903
0.00458747
0.0064262
3.98998e-05
0.000112562
0.000196023
0.000312908
0.000481865
0.000722056
0.00106006
0.00153887
0.00222417
0.00320324
0.00456861
0.00635377
3.98988e-05
0.000112559
0.000196018
0.000312901
0.000481851
0.000722029
0.00106002
0.00153878
0.00222403
0.00320304
0.00456834
0.00635342
3.74005e-05
0.000105789
0.000185565
0.000298743
0.000463615
0.000699292
0.00103288
0.00150899
0.00219688
0.00318972
0.00458666
0.00642514
3.23364e-05
9.19055e-05
0.000163739
0.000268364
0.00042315
0.000647031
0.00096815
0.00143452
0.00212314
0.0031414
0.00460722
0.0065739
2.48433e-05
7.08641e-05
0.000129547
0.000218604
0.000353351
0.000552039
0.000843848
0.00128122
0.00195307
0.00299288
0.00456139
0.00676187
1.55397e-05
4.35875e-05
8.28609e-05
0.00014621
0.000244521
0.000393483
0.000620236
0.000977402
0.00156211
0.00254105
0.0041522
0.00663485
4.55522e-06
1.14531e-05
2.35874e-05
4.53143e-05
8.03428e-05
0.000135747
0.000222463
0.000364155
0.00061925
0.00114478
0.00230596
0.00490291
2.97304e-06
7.80066e-06
1.64764e-05
3.06647e-05
5.2957e-05
8.68724e-05
0.000140092
0.000227445
0.000376355
0.000652419
0.00122933
0.00245997
1.07978e-05
3.04591e-05
5.89455e-05
0.0001044
0.000173903
0.000278422
0.000436517
0.000682603
0.0010778
0.00172455
0.00276938
0.00436867
1.79832e-05
5.17187e-05
9.57171e-05
0.000161828
0.000260627
0.000405419
0.000617118
0.000931677
0.00140799
0.0021327
0.00320715
0.00470301
2.39716e-05
6.86875e-05
0.000123616
0.000202935
0.000319003
0.000485873
0.000724122
0.00106728
0.00156703
0.00229309
0.00331653
0.00466934
2.81099e-05
8.01361e-05
0.000141858
0.000228767
0.000354076
0.000532044
0.000782589
0.001137
0.00164172
0.00235641
0.00333755
0.0046027
3.01763e-05
8.57882e-05
0.000150722
0.000241025
0.000370244
0.000552685
0.000807878
0.00116594
0.00167081
0.00237775
0.00333779
0.00456445
3.01755e-05
8.57863e-05
0.000150719
0.000241021
0.000370235
0.000552667
0.000807843
0.00116588
0.00167071
0.0023776
0.00333758
0.00456417
2.81079e-05
8.01313e-05
0.000141851
0.000228757
0.000354056
0.000531999
0.000782496
0.00113683
0.00164144
0.00235598
0.00333694
0.00460188
2.39693e-05
6.86827e-05
0.000123612
0.00020293
0.000318989
0.000485827
0.000724008
0.00106704
0.00156662
0.00229244
0.00331558
0.00466803
1.79816e-05