/*--------------------------------*- C++ -*----------------------------------*\
| =========                 |                                                 |
| \\      /  F ield         | OpenFOAM: The Open Source CFD Toolbox           |
|  \\    /   O peration     | Version:  2.3.1                                 |
|   \\  /    A nd           | Web:      www.OpenFOAM.org                      |
|    \\/     M anipulation  |                                                 |
\*---------------------------------------------------------------------------*/
FoamFile
{
    version     2.0;
    format      ascii;
    class       volScalarField;
    location    "10";
    object      epsilon;
}
// * * * * * * * * * * * * * * * * * * * * * * * * * * * * * * * * * * * * * //

dimensions      [0 2 -3 0 0 0 0];

internalField   nonuniform List<scalar> 
37692
(
8.78814e-07
8.78891e-07
8.79003e-07
8.79151e-07
8.79336e-07
8.7956e-07
8.79828e-07
8.80151e-07
8.80539e-07
8.80996e-07
8.81522e-07
8.82116e-07
8.82783e-07
8.83523e-07
8.84339e-07
8.85233e-07
8.8621e-07
8.8728e-07
8.88454e-07
8.89738e-07
8.91133e-07
8.92641e-07
8.94272e-07
8.96042e-07
8.97968e-07
9.00063e-07
9.02342e-07
9.04818e-07
9.07501e-07
9.10401e-07
9.13523e-07
9.16877e-07
9.20481e-07
9.24361e-07
9.28547e-07
9.3307e-07
9.37961e-07
9.43253e-07
1.34608e-06
1.34627e-06
1.3465e-06
1.34677e-06
1.3471e-06
1.34747e-06
1.34791e-06
1.34844e-06
1.34908e-06
1.34983e-06
1.35066e-06
1.3516e-06
1.35263e-06
1.35377e-06
1.35501e-06
1.35636e-06
1.35783e-06
1.35943e-06
1.36119e-06
1.3631e-06
1.36517e-06
1.36739e-06
1.36978e-06
1.37238e-06
1.37521e-06
1.37829e-06
1.38163e-06
1.38525e-06
1.38918e-06
1.39341e-06
1.39796e-06
1.40284e-06
1.40808e-06
1.41374e-06
1.41986e-06
1.42648e-06
1.43365e-06
1.4414e-06
1.56035e-06
1.56058e-06
1.56086e-06
1.5612e-06
1.56158e-06
1.56201e-06
1.56252e-06
1.56313e-06
1.56385e-06
1.56468e-06
1.56561e-06
1.56663e-06
1.56778e-06
1.56904e-06
1.57041e-06
1.57188e-06
1.57348e-06
1.57523e-06
1.57714e-06
1.5792e-06
1.58141e-06
1.58377e-06
1.58633e-06
1.58911e-06
1.59215e-06
1.59546e-06
1.59905e-06
1.60294e-06
1.60714e-06
1.61167e-06
1.61652e-06
1.62171e-06
1.6273e-06
1.63335e-06
1.63989e-06
1.64698e-06
1.65465e-06
1.66295e-06
1.64296e-06
1.64322e-06
1.64353e-06
1.6439e-06
1.64431e-06
1.64478e-06
1.64532e-06
1.64596e-06
1.6467e-06
1.64755e-06
1.6485e-06
1.64956e-06
1.65075e-06
1.65207e-06
1.6535e-06
1.65503e-06
1.6567e-06
1.6585e-06
1.66046e-06
1.66256e-06
1.66478e-06
1.66716e-06
1.66976e-06
1.67261e-06
1.67573e-06
1.67913e-06
1.68282e-06
1.68682e-06
1.69113e-06
1.69576e-06
1.70071e-06
1.70601e-06
1.71172e-06
1.7179e-06
1.72459e-06
1.73185e-06
1.7397e-06
1.7482e-06
1.66984e-06
1.67012e-06
1.67044e-06
1.67082e-06
1.67125e-06
1.67175e-06
1.67231e-06
1.67295e-06
1.67369e-06
1.67452e-06
1.67546e-06
1.67653e-06
1.67774e-06
1.67908e-06
1.68053e-06
1.6821e-06
1.68379e-06
1.68561e-06
1.68757e-06
1.68965e-06
1.69185e-06
1.69422e-06
1.69681e-06
1.69968e-06
1.70283e-06
1.70626e-06
1.70999e-06
1.71403e-06
1.71837e-06
1.72303e-06
1.728e-06
1.73333e-06
1.73908e-06
1.7453e-06
1.75203e-06
1.75932e-06
1.76721e-06
1.77576e-06
1.67702e-06
1.67731e-06
1.67764e-06
1.67803e-06
1.67848e-06
1.67899e-06
1.67956e-06
1.6802e-06
1.68092e-06
1.68173e-06
1.68266e-06
1.68374e-06
1.68495e-06
1.68629e-06
1.68776e-06
1.68933e-06
1.69103e-06
1.69285e-06
1.69479e-06
1.69684e-06
1.69902e-06
1.70138e-06
1.70397e-06
1.70683e-06
1.70998e-06
1.71343e-06
1.71716e-06
1.7212e-06
1.72554e-06
1.73019e-06
1.73517e-06
1.74052e-06
1.74629e-06
1.75252e-06
1.75926e-06
1.76654e-06
1.77443e-06
1.78299e-06
1.67699e-06
1.67731e-06
1.67767e-06
1.67808e-06
1.67854e-06
1.67906e-06
1.67964e-06
1.68027e-06
1.68097e-06
1.68177e-06
1.6827e-06
1.68378e-06
1.685e-06
1.68634e-06
1.68779e-06
1.68935e-06
1.69103e-06
1.69284e-06
1.69476e-06
1.69681e-06
1.69898e-06
1.70134e-06
1.70393e-06
1.70679e-06
1.70993e-06
1.71337e-06
1.71709e-06
1.72111e-06
1.72544e-06
1.73008e-06
1.73507e-06
1.74044e-06
1.74622e-06
1.75246e-06
1.75919e-06
1.76646e-06
1.77434e-06
1.7829e-06
1.67013e-06
1.67052e-06
1.67094e-06
1.67141e-06
1.67193e-06
1.67251e-06
1.67314e-06
1.67384e-06
1.67464e-06
1.67558e-06
1.67667e-06
1.67788e-06
1.6792e-06
1.68063e-06
1.68215e-06
1.68381e-06
1.68559e-06
1.68751e-06
1.68956e-06
1.69174e-06
1.6941e-06
1.69669e-06
1.69954e-06
1.70267e-06
1.70609e-06
1.70979e-06
1.71379e-06
1.71809e-06
1.72272e-06
1.72771e-06
1.73309e-06
1.73889e-06
1.74512e-06
1.75184e-06
1.7591e-06
1.76697e-06
1.77551e-06
1.64322e-06
1.64363e-06
1.64406e-06
1.64452e-06
1.64503e-06
1.6456e-06
1.64624e-06
1.64694e-06
1.64776e-06
1.6487e-06
1.64979e-06
1.65098e-06
1.65227e-06
1.65365e-06
1.65513e-06
1.65674e-06
1.65849e-06
1.66039e-06
1.66243e-06
1.66461e-06
1.66698e-06
1.66956e-06
1.67239e-06
1.67548e-06
1.67885e-06
1.68252e-06
1.68648e-06
1.69074e-06
1.69534e-06
1.7003e-06
1.70566e-06
1.71142e-06
1.71762e-06
1.72431e-06
1.73153e-06
1.73935e-06
1.74783e-06
1.56055e-06
1.56093e-06
1.56134e-06
1.56177e-06
1.56226e-06
1.56281e-06
1.56343e-06
1.56413e-06
1.56494e-06
1.56586e-06
1.56691e-06
1.56806e-06
1.56929e-06
1.57061e-06
1.57203e-06
1.57357e-06
1.57526e-06
1.57711e-06
1.5791e-06
1.58125e-06
1.58358e-06
1.58612e-06
1.58888e-06
1.59189e-06
1.59517e-06
1.59873e-06
1.60259e-06
1.60675e-06
1.61125e-06
1.61609e-06
1.62133e-06
1.62697e-06
1.63305e-06
1.6396e-06
1.64667e-06
1.65431e-06
1.66259e-06
1.34615e-06
1.34648e-06
1.34683e-06
1.3472e-06
1.34762e-06
1.34811e-06
1.34867e-06
1.34932e-06
1.35006e-06
1.3509e-06
1.35185e-06
1.35289e-06
1.35402e-06
1.35524e-06
1.35656e-06
1.35799e-06
1.35955e-06
1.36126e-06
1.36311e-06
1.36513e-06
1.36732e-06
1.3697e-06
1.37229e-06
1.3751e-06
1.37815e-06
1.38146e-06
1.38506e-06
1.38894e-06
1.39314e-06
1.39767e-06
1.40256e-06
1.40785e-06
1.41355e-06
1.41969e-06
1.42631e-06
1.43346e-06
1.44119e-06
8.78766e-07
8.78929e-07
8.7912e-07
8.79341e-07
8.79597e-07
8.79895e-07
8.80241e-07
8.80642e-07
8.81105e-07
8.81638e-07
8.82246e-07
8.82928e-07
8.83682e-07
8.84506e-07
8.85403e-07
8.86377e-07
8.87438e-07
8.88594e-07
8.89855e-07
8.91228e-07
8.92722e-07
8.94344e-07
8.96103e-07
8.98013e-07
9.00087e-07
9.02343e-07
9.04791e-07
9.07444e-07
9.10313e-07
9.13413e-07
9.16762e-07
9.20378e-07
9.24279e-07
9.28484e-07
9.33019e-07
9.37913e-07
9.432e-07
9.02008e-07
9.02051e-07
9.02113e-07
9.02196e-07
9.02298e-07
9.02421e-07
9.0257e-07
9.02753e-07
9.02976e-07
9.0324e-07
9.0354e-07
9.03878e-07
9.04253e-07
9.04668e-07
9.0512e-07
9.05612e-07
9.06148e-07
9.06734e-07
9.07377e-07
9.08079e-07
9.08837e-07
9.09654e-07
9.10537e-07
9.11496e-07
9.12541e-07
9.13679e-07
9.14916e-07
9.16259e-07
9.17712e-07
9.1928e-07
9.20964e-07
9.2277e-07
9.24711e-07
9.26804e-07
9.29065e-07
9.3151e-07
9.34155e-07
9.37019e-07
8.56482e-07
8.56495e-07
8.56517e-07
8.56546e-07
8.56581e-07
8.56624e-07
8.56676e-07
8.56741e-07
8.56822e-07
8.56918e-07
8.57028e-07
8.57151e-07
8.57289e-07
8.57441e-07
8.57609e-07
8.57791e-07
8.57989e-07
8.58205e-07
8.58443e-07
8.58703e-07
8.58984e-07
8.59287e-07
8.59614e-07
8.59969e-07
8.60357e-07
8.6078e-07
8.6124e-07
8.61739e-07
8.62281e-07
8.62866e-07
8.63495e-07
8.64172e-07
8.64902e-07
8.6569e-07
8.66545e-07
8.67471e-07
8.68475e-07
8.69564e-07
8.79541e-07
8.79553e-07
8.79572e-07
8.796e-07
8.79635e-07
8.79676e-07
8.79726e-07
8.79787e-07
8.79862e-07
8.79949e-07
8.8005e-07
8.80165e-07
8.80293e-07
8.80437e-07
8.80596e-07
8.8077e-07
8.80959e-07
8.81167e-07
8.81394e-07
8.81642e-07
8.8191e-07
8.82198e-07
8.8251e-07
8.8285e-07
8.83222e-07
8.83628e-07
8.84069e-07
8.84549e-07
8.8507e-07
8.85633e-07
8.86241e-07
8.86894e-07
8.876e-07
8.88363e-07
8.89191e-07
8.90088e-07
8.91062e-07
8.92118e-07
8.86813e-07
8.86823e-07
8.86843e-07
8.86871e-07
8.86907e-07
8.8695e-07
8.87002e-07
8.87064e-07
8.87138e-07
8.87224e-07
8.87323e-07
8.87436e-07
8.87565e-07
8.87709e-07
8.87869e-07
8.88045e-07
8.88237e-07
8.88447e-07
8.88677e-07
8.88927e-07
8.89196e-07
8.89485e-07
8.89798e-07
8.90141e-07
8.90516e-07
8.90927e-07
8.91374e-07
8.9186e-07
8.92388e-07
8.9296e-07
8.93575e-07
8.94237e-07
8.94952e-07
8.95725e-07
8.96565e-07
8.97476e-07
8.98463e-07
8.99535e-07
8.88283e-07
8.88293e-07
8.88313e-07
8.88341e-07
8.88377e-07
8.88422e-07
8.88476e-07
8.88539e-07
8.88612e-07
8.88697e-07
8.88794e-07
8.88906e-07
8.89034e-07
8.89179e-07
8.8934e-07
8.89517e-07
8.89711e-07
8.89923e-07
8.90154e-07
8.90403e-07
8.90671e-07
8.90959e-07
8.91272e-07
8.91614e-07
8.91991e-07
8.92404e-07
8.92853e-07
8.93342e-07
8.93873e-07
8.94447e-07
8.95066e-07
8.95731e-07
8.9645e-07
8.97229e-07
8.98074e-07
8.9899e-07
8.99983e-07
9.01061e-07
8.8847e-07
8.88481e-07
8.88501e-07
8.8853e-07
8.88568e-07
8.88614e-07
8.88668e-07
8.88732e-07
8.88804e-07
8.88888e-07
8.88984e-07
8.89096e-07
8.89224e-07
8.89369e-07
8.89531e-07
8.89709e-07
8.89903e-07
8.90115e-07
8.90346e-07
8.90595e-07
8.90861e-07
8.91148e-07
8.9146e-07
8.91802e-07
8.92179e-07
8.92592e-07
8.93042e-07
8.93531e-07
8.94062e-07
8.94635e-07
8.95254e-07
8.95921e-07
8.96642e-07
8.97423e-07
8.98268e-07
8.99185e-07
9.00179e-07
9.01258e-07
8.88466e-07
8.88478e-07
8.885e-07
8.8853e-07
8.88568e-07
8.88616e-07
8.88671e-07
8.88735e-07
8.88807e-07
8.8889e-07
8.88986e-07
8.89098e-07
8.89227e-07
8.89373e-07
8.89535e-07
8.89712e-07
8.89906e-07
8.90118e-07
8.90348e-07
8.90596e-07
8.90862e-07
8.91148e-07
8.91461e-07
8.91803e-07
8.92179e-07
8.92591e-07
8.93041e-07
8.93529e-07
8.94059e-07
8.94631e-07
8.95249e-07
8.95917e-07
8.9664e-07
8.97421e-07
8.98267e-07
8.99183e-07
9.00176e-07
9.01255e-07
8.88285e-07
8.88308e-07
8.8834e-07
8.8838e-07
8.88427e-07
8.88483e-07
8.88547e-07
8.8862e-07
8.88703e-07
8.888e-07
8.88914e-07
8.89045e-07
8.89191e-07
8.89352e-07
8.89528e-07
8.8972e-07
8.89931e-07
8.9016e-07
8.90408e-07
8.90674e-07
8.90961e-07
8.91273e-07
8.91616e-07
8.91991e-07
8.92403e-07
8.92851e-07
8.93338e-07
8.93865e-07
8.94436e-07
8.95053e-07
8.95721e-07
8.96444e-07
8.97225e-07
8.98069e-07
8.98984e-07
8.99975e-07
9.01052e-07
8.8681e-07
8.86836e-07
8.86869e-07
8.86909e-07
8.86956e-07
8.87012e-07
8.87077e-07
8.8715e-07
8.87235e-07
8.87334e-07
8.8745e-07
8.87582e-07
8.87728e-07
8.87888e-07
8.88062e-07
8.88252e-07
8.8846e-07
8.88688e-07
8.88934e-07
8.892e-07
8.89487e-07
8.898e-07
8.90142e-07
8.90516e-07
8.90924e-07
8.9137e-07
8.91853e-07
8.92377e-07
8.92944e-07
8.93558e-07
8.94222e-07
8.94941e-07
8.95718e-07
8.96558e-07
8.97467e-07
8.98452e-07
8.99522e-07
8.79535e-07
8.79563e-07
8.79597e-07
8.79636e-07
8.79683e-07
8.79739e-07
8.79804e-07
8.79879e-07
8.79967e-07
8.80068e-07
8.80186e-07
8.80318e-07
8.80463e-07
8.80621e-07
8.80792e-07
8.80979e-07
8.81184e-07
8.81407e-07
8.8165e-07
8.81913e-07
8.82199e-07
8.8251e-07
8.8285e-07
8.8322e-07
8.83624e-07
8.84063e-07
8.8454e-07
8.85057e-07
8.85616e-07
8.86221e-07
8.86877e-07
8.87586e-07
8.88352e-07
8.89181e-07
8.90078e-07
8.91049e-07
8.92102e-07
8.56477e-07
8.56511e-07
8.56547e-07
8.56589e-07
8.56639e-07
8.56698e-07
8.56768e-07
8.5685e-07
8.56945e-07
8.57056e-07
8.57182e-07
8.57322e-07
8.57475e-07
8.5764e-07
8.57819e-07
8.58012e-07
8.58224e-07
8.58456e-07
8.58708e-07
8.58983e-07
8.59283e-07
8.59609e-07
8.59964e-07
8.6035e-07
8.6077e-07
8.61227e-07
8.61723e-07
8.62259e-07
8.62839e-07
8.63466e-07
8.64145e-07
8.64879e-07
8.65672e-07
8.66528e-07
8.67454e-07
8.68456e-07
8.69541e-07
9.02005e-07
9.02097e-07
9.02202e-07
9.02321e-07
9.02461e-07
9.02627e-07
9.02821e-07
9.03048e-07
9.03312e-07
9.03617e-07
9.03962e-07
9.04344e-07
9.04761e-07
9.05212e-07
9.05699e-07
9.06226e-07
9.06801e-07
9.07428e-07
9.08112e-07
9.08858e-07
9.09671e-07
9.10554e-07
9.11511e-07
9.12549e-07
9.13678e-07
9.14904e-07
9.16234e-07
9.17672e-07
9.19224e-07
9.209e-07
9.22709e-07
9.24662e-07
9.26768e-07
9.29036e-07
9.31482e-07
9.34124e-07
9.3698e-07
1.09058e-06
1.09063e-06
1.09069e-06
1.09078e-06
1.09089e-06
1.09102e-06
1.09117e-06
1.09137e-06
1.09161e-06
1.0919e-06
1.09223e-06
1.0926e-06
1.093e-06
1.09345e-06
1.09394e-06
1.09447e-06
1.09504e-06
1.09567e-06
1.09636e-06
1.09711e-06
1.09791e-06
1.09878e-06
1.09972e-06
1.10073e-06
1.10184e-06
1.10305e-06
1.10436e-06
1.10579e-06
1.10733e-06
1.109e-06
1.11078e-06
1.1127e-06
1.11476e-06
1.11698e-06
1.11938e-06
1.12198e-06
1.12479e-06
1.12784e-06
7.88783e-07
7.88776e-07
7.88774e-07
7.88776e-07
7.88781e-07
7.88789e-07
7.88799e-07
7.88811e-07
7.88824e-07
7.88842e-07
7.88867e-07
7.88898e-07
7.88935e-07
7.88977e-07
7.89025e-07
7.89079e-07
7.89139e-07
7.89206e-07
7.89279e-07
7.89361e-07
7.89451e-07
7.89549e-07
7.89657e-07
7.89774e-07
7.89901e-07
7.90041e-07
7.90194e-07
7.90362e-07
7.90545e-07
7.90745e-07
7.90963e-07
7.91201e-07
7.91459e-07
7.91739e-07
7.92045e-07
7.92377e-07
7.92738e-07
7.93132e-07
7.35012e-07
7.34995e-07
7.34981e-07
7.34969e-07
7.34958e-07
7.3495e-07
7.34941e-07
7.34931e-07
7.3492e-07
7.34911e-07
7.34903e-07
7.34899e-07
7.34896e-07
7.34897e-07
7.34901e-07
7.34909e-07
7.34919e-07
7.34932e-07
7.34947e-07
7.34967e-07
7.34991e-07
7.3502e-07
7.35052e-07
7.35086e-07
7.35124e-07
7.35166e-07
7.35213e-07
7.35267e-07
7.35329e-07
7.35399e-07
7.3548e-07
7.35571e-07
7.35672e-07
7.35782e-07
7.35902e-07
7.36034e-07
7.36179e-07
7.3634e-07
7.13996e-07
7.13974e-07
7.13954e-07
7.13937e-07
7.13921e-07
7.13907e-07
7.13893e-07
7.13878e-07
7.13862e-07
7.13846e-07
7.13832e-07
7.13818e-07
7.13805e-07
7.13795e-07
7.13788e-07
7.13784e-07
7.13783e-07
7.13785e-07
7.13789e-07
7.13798e-07
7.13811e-07
7.13827e-07
7.13843e-07
7.1386e-07
7.13878e-07
7.13899e-07
7.13924e-07
7.13954e-07
7.13991e-07
7.14036e-07
7.1409e-07
7.14153e-07
7.14223e-07
7.14299e-07
7.14382e-07
7.14475e-07
7.14579e-07
7.14695e-07
7.05635e-07
7.0561e-07
7.05588e-07
7.05568e-07
7.0555e-07
7.05533e-07
7.05517e-07
7.05501e-07
7.05485e-07
7.05469e-07
7.05452e-07
7.05435e-07
7.05419e-07
7.05405e-07
7.05394e-07
7.05386e-07
7.05382e-07
7.0538e-07
7.05383e-07
7.05391e-07
7.05403e-07
7.05416e-07
7.05428e-07
7.05439e-07
7.0545e-07
7.05464e-07
7.05481e-07
7.05503e-07
7.05533e-07
7.0557e-07
7.05617e-07
7.0567e-07
7.0573e-07
7.05795e-07
7.05868e-07
7.05948e-07
7.06039e-07
7.06141e-07
7.02934e-07
7.02907e-07
7.02884e-07
7.02862e-07
7.02843e-07
7.02825e-07
7.02809e-07
7.02794e-07
7.02779e-07
7.02763e-07
7.02746e-07
7.02729e-07
7.02712e-07
7.02697e-07
7.02685e-07
7.02676e-07
7.02671e-07
7.0267e-07
7.02674e-07
7.02683e-07
7.02695e-07
7.02707e-07
7.02718e-07
7.02727e-07
7.02736e-07
7.02748e-07
7.02763e-07
7.02784e-07
7.02811e-07
7.02846e-07
7.0289e-07
7.0294e-07
7.02996e-07
7.03058e-07
7.03128e-07
7.03205e-07
7.03292e-07
7.03389e-07
7.02932e-07
7.02903e-07
7.02878e-07
7.02856e-07
7.02836e-07
7.02819e-07
7.02803e-07
7.02789e-07
7.02775e-07
7.0276e-07
7.02743e-07
7.02726e-07
7.02709e-07
7.02696e-07
7.02685e-07
7.02678e-07
7.02675e-07
7.02675e-07
7.0268e-07
7.02689e-07
7.02701e-07
7.02714e-07
7.02725e-07
7.02735e-07
7.02744e-07
7.02756e-07
7.02772e-07
7.02793e-07
7.02821e-07
7.02856e-07
7.02898e-07
7.02947e-07
7.03002e-07
7.03065e-07
7.03135e-07
7.03213e-07
7.03301e-07
7.03398e-07
7.05599e-07
7.05572e-07
7.0555e-07
7.05531e-07
7.05514e-07
7.05499e-07
7.05486e-07
7.05473e-07
7.05459e-07
7.05443e-07
7.05427e-07
7.05413e-07
7.05402e-07
7.05396e-07
7.05392e-07
7.05391e-07
7.05394e-07
7.054e-07
7.0541e-07
7.05422e-07
7.05436e-07
7.05448e-07
7.0546e-07
7.05473e-07
7.05487e-07
7.05506e-07
7.05531e-07
7.05561e-07
7.05598e-07
7.05641e-07
7.0569e-07
7.05748e-07
7.05814e-07
7.05888e-07
7.05971e-07
7.06063e-07
7.06164e-07
7.13957e-07
7.13932e-07
7.13912e-07
7.13895e-07
7.1388e-07
7.13867e-07
7.13855e-07
7.13844e-07
7.13831e-07
7.13818e-07
7.13805e-07
7.13796e-07
7.13791e-07
7.1379e-07
7.13792e-07
7.13796e-07
7.13803e-07
7.13812e-07
7.13825e-07
7.1384e-07
7.13857e-07
7.13874e-07
7.13892e-07
7.13911e-07
7.13934e-07
7.1396e-07
7.13992e-07
7.1403e-07
7.14074e-07
7.14124e-07
7.14183e-07
7.14249e-07
7.14325e-07
7.1441e-07
7.14506e-07
7.14611e-07
7.14728e-07
7.34978e-07
7.34958e-07
7.34943e-07
7.34932e-07
7.34923e-07
7.34915e-07
7.34908e-07
7.34902e-07
7.34896e-07
7.3489e-07
7.34887e-07
7.34888e-07
7.34893e-07
7.34903e-07
7.34916e-07
7.34932e-07
7.3495e-07
7.34971e-07
7.34995e-07
7.35021e-07
7.35051e-07
7.35082e-07
7.35118e-07
7.35156e-07
7.352e-07
7.35248e-07
7.35303e-07
7.35364e-07
7.35434e-07
7.35512e-07
7.35599e-07
7.35696e-07
7.35805e-07
7.35926e-07
7.3606e-07
7.36208e-07
7.3637e-07
7.88764e-07
7.88761e-07
7.88763e-07
7.88769e-07
7.88778e-07
7.88789e-07
7.88802e-07
7.8882e-07
7.88842e-07
7.88869e-07
7.88901e-07
7.88939e-07
7.88983e-07
7.89034e-07
7.89089e-07
7.89151e-07
7.89219e-07
7.89293e-07
7.89375e-07
7.89464e-07
7.89561e-07
7.89668e-07
7.89784e-07
7.89912e-07
7.90051e-07
7.90203e-07
7.9037e-07
7.90551e-07
7.9075e-07
7.90966e-07
7.91202e-07
7.91458e-07
7.91739e-07
7.92044e-07
7.92378e-07
7.92742e-07
7.93137e-07
1.09057e-06
1.09067e-06
1.09078e-06
1.09091e-06
1.09106e-06
1.09124e-06
1.09145e-06
1.0917e-06
1.09199e-06
1.09232e-06
1.0927e-06
1.09311e-06
1.09356e-06
1.09404e-06
1.09456e-06
1.09512e-06
1.09573e-06
1.09639e-06
1.09712e-06
1.09791e-06
1.09878e-06
1.09972e-06
1.10074e-06
1.10184e-06
1.10305e-06
1.10435e-06
1.10577e-06
1.10729e-06
1.10894e-06
1.11072e-06
1.11264e-06
1.11471e-06
1.11695e-06
1.11936e-06
1.12195e-06
1.12476e-06
1.1278e-06
1.18947e-06
1.18951e-06
1.18958e-06
1.18966e-06
1.18976e-06
1.18989e-06
1.19005e-06
1.19025e-06
1.19048e-06
1.19077e-06
1.19111e-06
1.19148e-06
1.1919e-06
1.19235e-06
1.19285e-06
1.19338e-06
1.19396e-06
1.19459e-06
1.19529e-06
1.19604e-06
1.19686e-06
1.19773e-06
1.19867e-06
1.19969e-06
1.2008e-06
1.20202e-06
1.20334e-06
1.20477e-06
1.20633e-06
1.20801e-06
1.2098e-06
1.21173e-06
1.21381e-06
1.21604e-06
1.21847e-06
1.2211e-06
1.22394e-06
1.22702e-06
7.62967e-07
7.62962e-07
7.62959e-07
7.6296e-07
7.62963e-07
7.62968e-07
7.62972e-07
7.62973e-07
7.62971e-07
7.62971e-07
7.62979e-07
7.62994e-07
7.63013e-07
7.63037e-07
7.63065e-07
7.63098e-07
7.63136e-07
7.63178e-07
7.63225e-07
7.63277e-07
7.63337e-07
7.63404e-07
7.63477e-07
7.63558e-07
7.63645e-07
7.63741e-07
7.63846e-07
7.63961e-07
7.64089e-07
7.6423e-07
7.64386e-07
7.6456e-07
7.64752e-07
7.64961e-07
7.65189e-07
7.65439e-07
7.6571e-07
7.66006e-07
6.65589e-07
6.6557e-07
6.65552e-07
6.65535e-07
6.65519e-07
6.65502e-07
6.65483e-07
6.65461e-07
6.65435e-07
6.65407e-07
6.6538e-07
6.65354e-07
6.65327e-07
6.65302e-07
6.65278e-07
6.65254e-07
6.65232e-07
6.65208e-07
6.65184e-07
6.65161e-07
6.6514e-07
6.65119e-07
6.65098e-07
6.65075e-07
6.65051e-07
6.65025e-07
6.64998e-07
6.64972e-07
6.64947e-07
6.64925e-07
6.64907e-07
6.64892e-07
6.6488e-07
6.64869e-07
6.64858e-07
6.64849e-07
6.64841e-07
6.64837e-07
6.27363e-07
6.27337e-07
6.27313e-07
6.27289e-07
6.27265e-07
6.27241e-07
6.27216e-07
6.27187e-07
6.27156e-07
6.27122e-07
6.27087e-07
6.2705e-07
6.27012e-07
6.26973e-07
6.26935e-07
6.26897e-07
6.26859e-07
6.26821e-07
6.26782e-07
6.26743e-07
6.26705e-07
6.26666e-07
6.26624e-07
6.26577e-07
6.26526e-07
6.26471e-07
6.26413e-07
6.26354e-07
6.26295e-07
6.26236e-07
6.26179e-07
6.26122e-07
6.26064e-07
6.26002e-07
6.25938e-07
6.2587e-07
6.25801e-07
6.2573e-07
6.12305e-07
6.12276e-07
6.12248e-07
6.12221e-07
6.12193e-07
6.12166e-07
6.12138e-07
6.12108e-07
6.12075e-07
6.12041e-07
6.12003e-07
6.11963e-07
6.1192e-07
6.11877e-07
6.11834e-07
6.11791e-07
6.11748e-07
6.11704e-07
6.11662e-07
6.1162e-07
6.11579e-07
6.11535e-07
6.11486e-07
6.11431e-07
6.1137e-07
6.11305e-07
6.11237e-07
6.11167e-07
6.11096e-07
6.11026e-07
6.10956e-07
6.10885e-07
6.10812e-07
6.10734e-07
6.10652e-07
6.10566e-07
6.10477e-07
6.10385e-07
6.07373e-07
6.07341e-07
6.07311e-07
6.07282e-07
6.07253e-07
6.07224e-07
6.07195e-07
6.07165e-07
6.07134e-07
6.07099e-07
6.07061e-07
6.0702e-07
6.06976e-07
6.06932e-07
6.06887e-07
6.06843e-07
6.06799e-07
6.06755e-07
6.06712e-07
6.06671e-07
6.0663e-07
6.06585e-07
6.06534e-07
6.06476e-07
6.06412e-07
6.06344e-07
6.06272e-07
6.06199e-07
6.06125e-07
6.06051e-07
6.05976e-07
6.059e-07
6.05821e-07
6.05737e-07
6.0565e-07
6.05559e-07
6.05464e-07
6.05365e-07
6.07372e-07
6.07338e-07
6.07306e-07
6.07275e-07
6.07246e-07
6.07217e-07
6.07188e-07
6.07159e-07
6.07129e-07
6.07095e-07
6.07058e-07
6.07017e-07
6.06974e-07
6.0693e-07
6.06887e-07
6.06844e-07
6.06802e-07
6.06759e-07
6.06718e-07
6.06678e-07
6.06636e-07
6.06592e-07
6.06541e-07
6.06484e-07
6.0642e-07
6.06353e-07
6.06282e-07
6.06209e-07
6.06135e-07
6.06061e-07
6.05986e-07
6.05908e-07
6.05828e-07
6.05745e-07
6.05658e-07
6.05568e-07
6.05473e-07
6.05374e-07
6.12266e-07
6.12234e-07
6.12203e-07
6.12174e-07
6.12146e-07
6.12119e-07
6.12091e-07
6.12061e-07
6.12029e-07
6.11993e-07
6.11953e-07
6.11912e-07
6.11872e-07
6.11833e-07
6.11794e-07
6.11755e-07
6.11716e-07
6.11677e-07
6.11639e-07
6.11599e-07
6.11556e-07
6.11507e-07
6.11453e-07
6.11394e-07
6.1133e-07
6.11263e-07
6.11195e-07
6.11126e-07
6.11055e-07
6.10983e-07
6.10908e-07
6.10832e-07
6.10754e-07
6.10673e-07
6.10589e-07
6.10502e-07
6.1041e-07
6.27323e-07
6.27292e-07
6.27263e-07
6.27237e-07
6.27212e-07
6.27187e-07
6.27161e-07
6.27134e-07
6.27104e-07
6.2707e-07
6.27035e-07
6.26999e-07
6.26965e-07
6.26933e-07
6.26902e-07
6.2687e-07
6.26837e-07
6.26804e-07
6.2677e-07
6.26735e-07
6.26697e-07
6.26656e-07
6.2661e-07
6.2656e-07
6.26507e-07
6.26451e-07
6.26394e-07
6.26336e-07
6.26277e-07
6.26217e-07
6.26156e-07
6.26093e-07
6.26031e-07
6.25968e-07
6.25903e-07
6.25836e-07
6.25767e-07
6.65555e-07
6.65528e-07
6.65507e-07
6.65488e-07
6.6547e-07
6.65451e-07
6.65431e-07
6.6541e-07
6.65387e-07
6.65362e-07
6.65337e-07
6.65314e-07
6.65293e-07
6.65275e-07
6.65259e-07
6.65242e-07
6.65226e-07
6.65209e-07
6.65191e-07
6.65172e-07
6.65153e-07
6.65132e-07
6.6511e-07
6.65086e-07
6.65062e-07
6.65037e-07
6.65012e-07
6.64988e-07
6.64966e-07
6.64945e-07
6.64926e-07
6.64909e-07
6.64896e-07
6.64886e-07
6.64879e-07
6.64875e-07
6.64874e-07
7.62946e-07
7.62937e-07
7.62935e-07
7.62937e-07
7.62941e-07
7.62944e-07
7.62947e-07
7.62953e-07
7.62962e-07
7.62974e-07
7.6299e-07
7.63011e-07
7.63037e-07
7.63069e-07
7.63106e-07
7.63147e-07
7.63193e-07
7.63243e-07
7.63298e-07
7.63357e-07
7.63423e-07
7.63495e-07
7.63575e-07
7.63663e-07
7.63758e-07
7.63863e-07
7.63978e-07
7.64105e-07
7.64246e-07
7.64402e-07
7.64572e-07
7.6476e-07
7.64967e-07
7.65195e-07
7.65447e-07
7.65723e-07
7.66023e-07
1.18945e-06
1.18955e-06
1.18966e-06
1.18979e-06
1.18994e-06
1.19011e-06
1.19032e-06
1.19057e-06
1.19087e-06
1.19121e-06
1.19159e-06
1.19201e-06
1.19246e-06
1.19295e-06
1.19346e-06
1.19402e-06
1.19463e-06
1.1953e-06
1.19603e-06
1.19683e-06
1.1977e-06
1.19865e-06
1.19968e-06
1.20079e-06
1.202e-06
1.20331e-06
1.20474e-06
1.20628e-06
1.20794e-06
1.20973e-06
1.21166e-06
1.21375e-06
1.216e-06
1.21843e-06
1.22105e-06
1.22389e-06
1.22697e-06
1.24486e-06
1.2449e-06
1.24495e-06
1.24503e-06
1.24513e-06
1.24525e-06
1.2454e-06
1.24559e-06
1.24583e-06
1.2461e-06
1.24643e-06
1.24681e-06
1.24722e-06
1.24767e-06
1.24815e-06
1.24867e-06
1.24924e-06
1.24986e-06
1.25054e-06
1.25129e-06
1.25209e-06
1.25294e-06
1.25387e-06
1.25487e-06
1.25596e-06
1.25716e-06
1.25846e-06
1.25988e-06
1.26142e-06
1.26307e-06
1.26485e-06
1.26677e-06
1.26883e-06
1.27106e-06
1.27347e-06
1.27607e-06
1.27889e-06
1.28194e-06
7.47724e-07
7.47723e-07
7.47725e-07
7.4773e-07
7.47736e-07
7.47743e-07
7.47747e-07
7.47746e-07
7.47741e-07
7.47735e-07
7.4774e-07
7.47752e-07
7.4777e-07
7.47793e-07
7.47821e-07
7.47854e-07
7.47891e-07
7.47932e-07
7.47977e-07
7.48029e-07
7.48087e-07
7.48153e-07
7.48226e-07
7.48306e-07
7.48393e-07
7.48487e-07
7.48591e-07
7.48705e-07
7.48831e-07
7.48972e-07
7.49131e-07
7.49316e-07
7.49522e-07
7.49746e-07
7.49988e-07
7.50248e-07
7.5053e-07
7.50837e-07
6.23466e-07
6.2345e-07
6.23435e-07
6.23421e-07
6.23406e-07
6.23391e-07
6.23373e-07
6.23351e-07
6.23324e-07
6.23295e-07
6.23267e-07
6.2324e-07
6.23213e-07
6.23186e-07
6.23161e-07
6.23136e-07
6.23111e-07
6.23085e-07
6.23058e-07
6.23031e-07
6.23005e-07
6.22981e-07
6.22955e-07
6.22927e-07
6.22898e-07
6.22866e-07
6.22833e-07
6.22799e-07
6.22766e-07
6.22735e-07
6.22708e-07
6.22685e-07
6.22665e-07
6.22646e-07
6.22627e-07
6.22608e-07
6.22591e-07
6.22576e-07
5.736e-07
5.73578e-07
5.73556e-07
5.73535e-07
5.73512e-07
5.7349e-07
5.73465e-07
5.73436e-07
5.73405e-07
5.73371e-07
5.73336e-07
5.73299e-07
5.7326e-07
5.73221e-07
5.73181e-07
5.73141e-07
5.73101e-07
5.73058e-07
5.73015e-07
5.72971e-07
5.72927e-07
5.72881e-07
5.72832e-07
5.72778e-07
5.7272e-07
5.72657e-07
5.72591e-07
5.72522e-07
5.72451e-07
5.7238e-07
5.7231e-07
5.72238e-07
5.72165e-07
5.72088e-07
5.72007e-07
5.71923e-07
5.71836e-07
5.71746e-07
5.53503e-07
5.53476e-07
5.53451e-07
5.53425e-07
5.534e-07
5.53373e-07
5.53345e-07
5.53316e-07
5.53283e-07
5.53248e-07
5.53211e-07
5.5317e-07
5.53127e-07
5.53083e-07
5.53038e-07
5.52993e-07
5.52946e-07
5.52899e-07
5.52851e-07
5.52803e-07
5.52754e-07
5.52702e-07
5.52645e-07
5.52583e-07
5.52514e-07
5.5244e-07
5.52362e-07
5.52281e-07
5.52197e-07
5.52113e-07
5.52027e-07
5.51939e-07
5.51848e-07
5.51752e-07
5.5165e-07
5.51544e-07
5.51433e-07
5.51319e-07
5.46717e-07
5.46688e-07
5.4666e-07
5.46633e-07
5.46605e-07
5.46577e-07
5.46548e-07
5.46518e-07
5.46486e-07
5.46452e-07
5.46414e-07
5.46372e-07
5.46328e-07
5.46282e-07
5.46236e-07
5.46189e-07
5.46141e-07
5.46093e-07
5.46044e-07
5.45996e-07
5.45946e-07
5.45892e-07
5.45833e-07
5.45767e-07
5.45695e-07
5.45617e-07
5.45535e-07
5.4545e-07
5.45363e-07
5.45273e-07
5.45182e-07
5.45088e-07
5.4499e-07
5.44887e-07
5.44779e-07
5.44666e-07
5.44547e-07
5.44424e-07
5.46716e-07
5.46685e-07
5.46656e-07
5.46627e-07
5.46599e-07
5.46571e-07
5.46543e-07
5.46513e-07
5.46482e-07
5.46448e-07
5.46411e-07
5.46369e-07
5.46326e-07
5.46281e-07
5.46236e-07
5.4619e-07
5.46143e-07
5.46096e-07
5.46049e-07
5.46001e-07
5.45952e-07
5.45898e-07
5.45839e-07
5.45773e-07
5.45702e-07
5.45624e-07
5.45543e-07
5.45458e-07
5.45371e-07
5.45282e-07
5.4519e-07
5.45095e-07
5.44996e-07
5.44893e-07
5.44785e-07
5.44673e-07
5.44555e-07
5.44432e-07
5.53469e-07
5.53439e-07
5.53411e-07
5.53383e-07
5.53356e-07
5.53329e-07
5.533e-07
5.53271e-07
5.53238e-07
5.53201e-07
5.53162e-07
5.5312e-07
5.53079e-07
5.53037e-07
5.52995e-07
5.52953e-07
5.52909e-07
5.52864e-07
5.52819e-07
5.52771e-07
5.5272e-07
5.52664e-07
5.52601e-07
5.52534e-07
5.52461e-07
5.52385e-07
5.52305e-07
5.52223e-07
5.52138e-07
5.52051e-07
5.5196e-07
5.51866e-07
5.51769e-07
5.51669e-07
5.51564e-07
5.51455e-07
5.51341e-07
5.73567e-07
5.73538e-07
5.73512e-07
5.73487e-07
5.73463e-07
5.73438e-07
5.73413e-07
5.73385e-07
5.73355e-07
5.73321e-07
5.73285e-07
5.73249e-07
5.73214e-07
5.73179e-07
5.73145e-07
5.73109e-07
5.73073e-07
5.73034e-07
5.72995e-07
5.72953e-07
5.72909e-07
5.7286e-07
5.72807e-07
5.7275e-07
5.72689e-07
5.72625e-07
5.72558e-07
5.72489e-07
5.72418e-07
5.72345e-07
5.7227e-07
5.72193e-07
5.72114e-07
5.72034e-07
5.71952e-07
5.71867e-07
5.71779e-07
6.23435e-07
6.23411e-07
6.23392e-07
6.23375e-07
6.23358e-07
6.2334e-07
6.2332e-07
6.23299e-07
6.23276e-07
6.23251e-07
6.23225e-07
6.232e-07
6.23178e-07
6.23158e-07
6.23139e-07
6.23121e-07
6.23101e-07
6.23081e-07
6.23059e-07
6.23037e-07
6.23012e-07
6.22987e-07
6.2296e-07
6.22931e-07
6.22901e-07
6.2287e-07
6.22839e-07
6.22808e-07
6.22778e-07
6.22749e-07
6.22721e-07
6.22696e-07
6.22674e-07
6.22655e-07
6.22639e-07
6.22625e-07
6.22613e-07
7.47702e-07
7.47694e-07
7.47693e-07
7.47698e-07
7.47704e-07
7.47708e-07
7.4771e-07
7.47714e-07
7.47721e-07
7.47732e-07
7.47747e-07
7.47767e-07
7.47793e-07
7.47824e-07
7.47861e-07
7.47903e-07
7.47949e-07
7.47998e-07
7.48052e-07
7.48111e-07
7.48176e-07
7.48248e-07
7.48328e-07
7.48415e-07
7.48511e-07
7.48616e-07
7.48731e-07
7.48859e-07
7.49004e-07
7.49165e-07
7.49344e-07
7.49542e-07
7.49761e-07
7.50003e-07
7.5027e-07
7.50559e-07
7.50871e-07
1.24484e-06
1.24493e-06
1.24503e-06
1.24515e-06
1.2453e-06
1.24547e-06
1.24567e-06
1.24591e-06
1.2462e-06
1.24654e-06
1.24692e-06
1.24733e-06
1.24777e-06
1.24824e-06
1.24874e-06
1.24929e-06
1.24988e-06
1.25053e-06
1.25125e-06
1.25204e-06
1.2529e-06
1.25384e-06
1.25485e-06
1.25594e-06
1.25713e-06
1.25842e-06
1.25982e-06
1.26134e-06
1.26298e-06
1.26476e-06
1.26668e-06
1.26876e-06
1.271e-06
1.27341e-06
1.27601e-06
1.27883e-06
1.28188e-06
1.27636e-06
1.27639e-06
1.27644e-06
1.2765e-06
1.27659e-06
1.27671e-06
1.27686e-06
1.27704e-06
1.27727e-06
1.27754e-06
1.27786e-06
1.27823e-06
1.27863e-06
1.27907e-06
1.27953e-06
1.28004e-06
1.28059e-06
1.2812e-06
1.28186e-06
1.28259e-06
1.28337e-06
1.28421e-06
1.28511e-06
1.28609e-06
1.28716e-06
1.28833e-06
1.28961e-06
1.29101e-06
1.29252e-06
1.29415e-06
1.29591e-06
1.29779e-06
1.29982e-06
1.30201e-06
1.30437e-06
1.30692e-06
1.30969e-06
1.31268e-06
7.37806e-07
7.3781e-07
7.37818e-07
7.37827e-07
7.37836e-07
7.37844e-07
7.37848e-07
7.37848e-07
7.37842e-07
7.37835e-07
7.3784e-07
7.37854e-07
7.37875e-07
7.37901e-07
7.37933e-07
7.37969e-07
7.38009e-07
7.38054e-07
7.38104e-07
7.38159e-07
7.38222e-07
7.38294e-07
7.38372e-07
7.38458e-07
7.38551e-07
7.38652e-07
7.38763e-07
7.38885e-07
7.3902e-07
7.39173e-07
7.39348e-07
7.39549e-07
7.39774e-07
7.4002e-07
7.40285e-07
7.40569e-07
7.40876e-07
7.41208e-07
5.96452e-07
5.96442e-07
5.96432e-07
5.96422e-07
5.96411e-07
5.96399e-07
5.96384e-07
5.96365e-07
5.96342e-07
5.96317e-07
5.96293e-07
5.9627e-07
5.96248e-07
5.96227e-07
5.96207e-07
5.96188e-07
5.96169e-07
5.96149e-07
5.96129e-07
5.96109e-07
5.9609e-07
5.96072e-07
5.96054e-07
5.96036e-07
5.96015e-07
5.95993e-07
5.9597e-07
5.95948e-07
5.95927e-07
5.95909e-07
5.95896e-07
5.95889e-07
5.95887e-07
5.95888e-07
5.95891e-07
5.95896e-07
5.95904e-07
5.95917e-07
5.38436e-07
5.38418e-07
5.38401e-07
5.38384e-07
5.38366e-07
5.38347e-07
5.38326e-07
5.38302e-07
5.38275e-07
5.38246e-07
5.38216e-07
5.38185e-07
5.38153e-07
5.3812e-07
5.38087e-07
5.38053e-07
5.38019e-07
5.37983e-07
5.37946e-07
5.37909e-07
5.37871e-07
5.37833e-07
5.37791e-07
5.37746e-07
5.37698e-07
5.37645e-07
5.3759e-07
5.37533e-07
5.37475e-07
5.37417e-07
5.3736e-07
5.37303e-07
5.37246e-07
5.37188e-07
5.37127e-07
5.37065e-07
5.37002e-07
5.36939e-07
5.14473e-07
5.14451e-07
5.1443e-07
5.14409e-07
5.14388e-07
5.14365e-07
5.14342e-07
5.14316e-07
5.14289e-07
5.14259e-07
5.14227e-07
5.14192e-07
5.14156e-07
5.14119e-07
5.14081e-07
5.14042e-07
5.14002e-07
5.13961e-07
5.1392e-07
5.13877e-07
5.13834e-07
5.13789e-07
5.13739e-07
5.13685e-07
5.13626e-07
5.13563e-07
5.13497e-07
5.13428e-07
5.13357e-07
5.13285e-07
5.13212e-07
5.13138e-07
5.13062e-07
5.12983e-07
5.129e-07
5.12815e-07
5.12728e-07
5.12639e-07
5.06157e-07
5.06134e-07
5.0611e-07
5.06087e-07
5.06064e-07