/*--------------------------------*- C++ -*----------------------------------*\
| =========                 |                                                 |
| \\      /  F ield         | OpenFOAM: The Open Source CFD Toolbox           |
|  \\    /   O peration     | Version:  2.3.1                                 |
|   \\  /    A nd           | Web:      www.OpenFOAM.org                      |
|    \\/     M anipulation  |                                                 |
\*---------------------------------------------------------------------------*/
FoamFile
{
    version     2.0;
    format      ascii;
    class       volScalarField;
    location    "10";
    object      epsilon_0;
}
// * * * * * * * * * * * * * * * * * * * * * * * * * * * * * * * * * * * * * //

dimensions      [0 2 -3 0 0 0 0];

internalField   nonuniform List<scalar> 
37692
(
8.78947e-07
8.79025e-07
8.79136e-07
8.79284e-07
8.7947e-07
8.79693e-07
8.79961e-07
8.80284e-07
8.80672e-07
8.81129e-07
8.81654e-07
8.82249e-07
8.82916e-07
8.83656e-07
8.84472e-07
8.85365e-07
8.86342e-07
8.87413e-07
8.88586e-07
8.8987e-07
8.91264e-07
8.92773e-07
8.94404e-07
8.96174e-07
8.98099e-07
9.00194e-07
9.02472e-07
9.04948e-07
9.07631e-07
9.1053e-07
9.13652e-07
9.17006e-07
9.20609e-07
9.24489e-07
9.28675e-07
9.33197e-07
9.38087e-07
9.43378e-07
1.34624e-06
1.34643e-06
1.34666e-06
1.34693e-06
1.34726e-06
1.34763e-06
1.34807e-06
1.3486e-06
1.34924e-06
1.34999e-06
1.35083e-06
1.35176e-06
1.35279e-06
1.35393e-06
1.35517e-06
1.35652e-06
1.35798e-06
1.35959e-06
1.36135e-06
1.36326e-06
1.36533e-06
1.36754e-06
1.36994e-06
1.37254e-06
1.37537e-06
1.37844e-06
1.38178e-06
1.38541e-06
1.38933e-06
1.39356e-06
1.39811e-06
1.40299e-06
1.40824e-06
1.41389e-06
1.42001e-06
1.42663e-06
1.4338e-06
1.44155e-06
1.56051e-06
1.56074e-06
1.56102e-06
1.56136e-06
1.56174e-06
1.56217e-06
1.56268e-06
1.56329e-06
1.56401e-06
1.56484e-06
1.56577e-06
1.56679e-06
1.56794e-06
1.5692e-06
1.57057e-06
1.57204e-06
1.57364e-06
1.57539e-06
1.5773e-06
1.57936e-06
1.58157e-06
1.58393e-06
1.58648e-06
1.58927e-06
1.59231e-06
1.59562e-06
1.5992e-06
1.60309e-06
1.6073e-06
1.61182e-06
1.61667e-06
1.62186e-06
1.62746e-06
1.6335e-06
1.64004e-06
1.64713e-06
1.6548e-06
1.6631e-06
1.64312e-06
1.64337e-06
1.64368e-06
1.64405e-06
1.64446e-06
1.64493e-06
1.64548e-06
1.64611e-06
1.64686e-06
1.6477e-06
1.64865e-06
1.64972e-06
1.65091e-06
1.65222e-06
1.65365e-06
1.65519e-06
1.65685e-06
1.65866e-06
1.66061e-06
1.66271e-06
1.66493e-06
1.66732e-06
1.66991e-06
1.67276e-06
1.67588e-06
1.67928e-06
1.68297e-06
1.68697e-06
1.69128e-06
1.69591e-06
1.70086e-06
1.70616e-06
1.71186e-06
1.71804e-06
1.72474e-06
1.73199e-06
1.73984e-06
1.74834e-06
1.66999e-06
1.67027e-06
1.67059e-06
1.67097e-06
1.6714e-06
1.6719e-06
1.67246e-06
1.6731e-06
1.67384e-06
1.67467e-06
1.67561e-06
1.67668e-06
1.67789e-06
1.67923e-06
1.68068e-06
1.68225e-06
1.68394e-06
1.68576e-06
1.68772e-06
1.6898e-06
1.692e-06
1.69437e-06
1.69696e-06
1.69982e-06
1.70297e-06
1.70641e-06
1.71014e-06
1.71417e-06
1.71852e-06
1.72317e-06
1.72814e-06
1.73347e-06
1.73922e-06
1.74543e-06
1.75217e-06
1.75946e-06
1.76735e-06
1.7759e-06
1.67716e-06
1.67745e-06
1.67779e-06
1.67818e-06
1.67863e-06
1.67914e-06
1.67971e-06
1.68035e-06
1.68106e-06
1.68188e-06
1.68281e-06
1.68388e-06
1.6851e-06
1.68644e-06
1.6879e-06
1.68948e-06
1.69117e-06
1.69299e-06
1.69493e-06
1.69699e-06
1.69917e-06
1.70152e-06
1.70411e-06
1.70697e-06
1.71013e-06
1.71357e-06
1.71731e-06
1.72134e-06
1.72568e-06
1.73033e-06
1.73531e-06
1.74066e-06
1.74643e-06
1.75266e-06
1.75939e-06
1.76668e-06
1.77457e-06
1.78312e-06
1.67714e-06
1.67746e-06
1.67782e-06
1.67823e-06
1.67869e-06
1.67921e-06
1.67978e-06
1.68042e-06
1.68112e-06
1.68192e-06
1.68285e-06
1.68392e-06
1.68514e-06
1.68648e-06
1.68793e-06
1.68949e-06
1.69117e-06
1.69298e-06
1.69491e-06
1.69695e-06
1.69913e-06
1.70148e-06
1.70407e-06
1.70693e-06
1.71007e-06
1.71351e-06
1.71723e-06
1.72125e-06
1.72558e-06
1.73022e-06
1.73521e-06
1.74057e-06
1.74636e-06
1.7526e-06
1.75932e-06
1.7666e-06
1.77448e-06
1.78303e-06
1.67028e-06
1.67067e-06
1.67109e-06
1.67156e-06
1.67208e-06
1.67266e-06
1.67329e-06
1.67399e-06
1.67479e-06
1.67573e-06
1.67682e-06
1.67803e-06
1.67935e-06
1.68077e-06
1.6823e-06
1.68395e-06
1.68574e-06
1.68766e-06
1.6897e-06
1.69189e-06
1.69425e-06
1.69684e-06
1.69969e-06
1.70282e-06
1.70623e-06
1.70993e-06
1.71393e-06
1.71823e-06
1.72287e-06
1.72786e-06
1.73323e-06
1.73903e-06
1.74526e-06
1.75198e-06
1.75924e-06
1.76711e-06
1.77564e-06
1.64338e-06
1.64378e-06
1.64421e-06
1.64467e-06
1.64518e-06
1.64576e-06
1.64639e-06
1.6471e-06
1.64791e-06
1.64886e-06
1.64994e-06
1.65113e-06
1.65242e-06
1.6538e-06
1.65528e-06
1.65689e-06
1.65865e-06
1.66055e-06
1.66258e-06
1.66477e-06
1.66713e-06
1.66971e-06
1.67254e-06
1.67563e-06
1.679e-06
1.68267e-06
1.68662e-06
1.69089e-06
1.69549e-06
1.70045e-06
1.7058e-06
1.71157e-06
1.71777e-06
1.72445e-06
1.73167e-06
1.73949e-06
1.74797e-06
1.56071e-06
1.5611e-06
1.5615e-06
1.56193e-06
1.56242e-06
1.56297e-06
1.56359e-06
1.56429e-06
1.5651e-06
1.56602e-06
1.56707e-06
1.56822e-06
1.56945e-06
1.57077e-06
1.57219e-06
1.57373e-06
1.57542e-06
1.57727e-06
1.57926e-06
1.5814e-06
1.58374e-06
1.58628e-06
1.58904e-06
1.59205e-06
1.59533e-06
1.59889e-06
1.60275e-06
1.60691e-06
1.6114e-06
1.61625e-06
1.62148e-06
1.62712e-06
1.6332e-06
1.63975e-06
1.64682e-06
1.65446e-06
1.66273e-06
1.34631e-06
1.34664e-06
1.34699e-06
1.34736e-06
1.34778e-06
1.34827e-06
1.34884e-06
1.34948e-06
1.35022e-06
1.35106e-06
1.35201e-06
1.35305e-06
1.35418e-06
1.3554e-06
1.35672e-06
1.35815e-06
1.35971e-06
1.36142e-06
1.36327e-06
1.36529e-06
1.36748e-06
1.36986e-06
1.37245e-06
1.37525e-06
1.3783e-06
1.38162e-06
1.38521e-06
1.3891e-06
1.39329e-06
1.39782e-06
1.40272e-06
1.408e-06
1.4137e-06
1.41984e-06
1.42646e-06
1.43361e-06
1.44134e-06
8.789e-07
8.79062e-07
8.79254e-07
8.79474e-07
8.7973e-07
8.80028e-07
8.80374e-07
8.80775e-07
8.81238e-07
8.81771e-07
8.82379e-07
8.83061e-07
8.83815e-07
8.84639e-07
8.85535e-07
8.86509e-07
8.8757e-07
8.88726e-07
8.89987e-07
8.91359e-07
8.92853e-07
8.94475e-07
8.96235e-07
8.98144e-07
9.00218e-07
9.02473e-07
9.04921e-07
9.07574e-07
9.10443e-07
9.13542e-07
9.16891e-07
9.20506e-07
9.24407e-07
9.28612e-07
9.33146e-07
9.38039e-07
9.43326e-07
9.0214e-07
9.02183e-07
9.02245e-07
9.02327e-07
9.0243e-07
9.02553e-07
9.02702e-07
9.02885e-07
9.03108e-07
9.03371e-07
9.03672e-07
9.04009e-07
9.04385e-07
9.04799e-07
9.05251e-07
9.05743e-07
9.06279e-07
9.06865e-07
9.07508e-07
9.0821e-07
9.08968e-07
9.09785e-07
9.10668e-07
9.11627e-07
9.12672e-07
9.13809e-07
9.15046e-07
9.16388e-07
9.17842e-07
9.1941e-07
9.21094e-07
9.229e-07
9.2484e-07
9.26932e-07
9.29193e-07
9.31638e-07
9.34283e-07
9.37147e-07
8.56586e-07
8.566e-07
8.56621e-07
8.5665e-07
8.56686e-07
8.56728e-07
8.56781e-07
8.56845e-07
8.56926e-07
8.57022e-07
8.57132e-07
8.57255e-07
8.57393e-07
8.57545e-07
8.57713e-07
8.57894e-07
8.58092e-07
8.58309e-07
8.58547e-07
8.58807e-07
8.59088e-07
8.59391e-07
8.59717e-07
8.60073e-07
8.60461e-07
8.60883e-07
8.61343e-07
8.61842e-07
8.62384e-07
8.62969e-07
8.63598e-07
8.64275e-07
8.65004e-07
8.65792e-07
8.66647e-07
8.67573e-07
8.68577e-07
8.69666e-07
8.79631e-07
8.79643e-07
8.79663e-07
8.7969e-07
8.79725e-07
8.79766e-07
8.79816e-07
8.79877e-07
8.79952e-07
8.80039e-07
8.8014e-07
8.80254e-07
8.80383e-07
8.80527e-07
8.80686e-07
8.8086e-07
8.81049e-07
8.81256e-07
8.81483e-07
8.81731e-07
8.81999e-07
8.82287e-07
8.82599e-07
8.82939e-07
8.83311e-07
8.83717e-07
8.84158e-07
8.84638e-07
8.85159e-07
8.85722e-07
8.86329e-07
8.86983e-07
8.87688e-07
8.88451e-07
8.89278e-07
8.90176e-07
8.91149e-07
8.92205e-07
8.86896e-07
8.86907e-07
8.86927e-07
8.86955e-07
8.8699e-07
8.87034e-07
8.87085e-07
8.87147e-07
8.87221e-07
8.87308e-07
8.87407e-07
8.8752e-07
8.87648e-07
8.87793e-07
8.87953e-07
8.88128e-07
8.8832e-07
8.8853e-07
8.8876e-07
8.8901e-07
8.89279e-07
8.89568e-07
8.89881e-07
8.90224e-07
8.90599e-07
8.9101e-07
8.91457e-07
8.91943e-07
8.92471e-07
8.93042e-07
8.93657e-07
8.94319e-07
8.95033e-07
8.95807e-07
8.96646e-07
8.97557e-07
8.98544e-07
8.99616e-07
8.88364e-07
8.88375e-07
8.88394e-07
8.88422e-07
8.88459e-07
8.88504e-07
8.88557e-07
8.8862e-07
8.88693e-07
8.88778e-07
8.88876e-07
8.88987e-07
8.89115e-07
8.8926e-07
8.89421e-07
8.89598e-07
8.89792e-07
8.90004e-07
8.90235e-07
8.90484e-07
8.90752e-07
8.9104e-07
8.91352e-07
8.91695e-07
8.92072e-07
8.92484e-07
8.92934e-07
8.93423e-07
8.93953e-07
8.94527e-07
8.95145e-07
8.95811e-07
8.9653e-07
8.97308e-07
8.98153e-07
8.99068e-07
9.00061e-07
9.01139e-07
8.88551e-07
8.88562e-07
8.88582e-07
8.88611e-07
8.88648e-07
8.88695e-07
8.88749e-07
8.88813e-07
8.88885e-07
8.88969e-07
8.89065e-07
8.89176e-07
8.89305e-07
8.8945e-07
8.89611e-07
8.89789e-07
8.89983e-07
8.90196e-07
8.90427e-07
8.90675e-07
8.90941e-07
8.91228e-07
8.9154e-07
8.91882e-07
8.92259e-07
8.92671e-07
8.93121e-07
8.93611e-07
8.94141e-07
8.94715e-07
8.95333e-07
8.96e-07
8.96721e-07
8.97501e-07
8.98347e-07
8.99263e-07
9.00257e-07
9.01336e-07
8.88547e-07
8.88559e-07
8.88581e-07
8.88611e-07
8.88649e-07
8.88696e-07
8.88752e-07
8.88816e-07
8.88888e-07
8.8897e-07
8.89066e-07
8.89179e-07
8.89308e-07
8.89454e-07
8.89615e-07
8.89793e-07
8.89987e-07
8.90198e-07
8.90429e-07
8.90677e-07
8.90942e-07
8.91229e-07
8.91541e-07
8.91883e-07
8.92259e-07
8.92671e-07
8.93121e-07
8.93609e-07
8.94138e-07
8.9471e-07
8.95328e-07
8.95996e-07
8.96719e-07
8.975e-07
8.98346e-07
8.99261e-07
9.00254e-07
9.01333e-07
8.88366e-07
8.8839e-07
8.88422e-07
8.88461e-07
8.88509e-07
8.88564e-07
8.88629e-07
8.88701e-07
8.88784e-07
8.88881e-07
8.88995e-07
8.89126e-07
8.89272e-07
8.89433e-07
8.89609e-07
8.89801e-07
8.90012e-07
8.90241e-07
8.90489e-07
8.90754e-07
8.91041e-07
8.91354e-07
8.91696e-07
8.92072e-07
8.92483e-07
8.92931e-07
8.93418e-07
8.93945e-07
8.94516e-07
8.95133e-07
8.95801e-07
8.96523e-07
8.97304e-07
8.98149e-07
8.99062e-07
9.00054e-07
9.0113e-07
8.86894e-07
8.8692e-07
8.86953e-07
8.86992e-07
8.8704e-07
8.87096e-07
8.8716e-07
8.87234e-07
8.87319e-07
8.87418e-07
8.87534e-07
8.87666e-07
8.87812e-07
8.87971e-07
8.88145e-07
8.88335e-07
8.88544e-07
8.88771e-07
8.89017e-07
8.89283e-07
8.8957e-07
8.89883e-07
8.90224e-07
8.90598e-07
8.91007e-07
8.91452e-07
8.91936e-07
8.92459e-07
8.93026e-07
8.9364e-07
8.94304e-07
8.95023e-07
8.958e-07
8.96639e-07
8.97548e-07
8.98533e-07
8.99602e-07
8.79625e-07
8.79653e-07
8.79687e-07
8.79726e-07
8.79773e-07
8.79829e-07
8.79894e-07
8.79969e-07
8.80057e-07
8.80158e-07
8.80276e-07
8.80408e-07
8.80553e-07
8.8071e-07
8.80882e-07
8.81069e-07
8.81273e-07
8.81497e-07
8.8174e-07
8.82003e-07
8.82289e-07
8.826e-07
8.82939e-07
8.83309e-07
8.83713e-07
8.84152e-07
8.84629e-07
8.85146e-07
8.85705e-07
8.8631e-07
8.86965e-07
8.87674e-07
8.8844e-07
8.89269e-07
8.90165e-07
8.91136e-07
8.9219e-07
8.56581e-07
8.56615e-07
8.56652e-07
8.56693e-07
8.56743e-07
8.56802e-07
8.56872e-07
8.56954e-07
8.57049e-07
8.5716e-07
8.57286e-07
8.57426e-07
8.57579e-07
8.57744e-07
8.57922e-07
8.58116e-07
8.58328e-07
8.5856e-07
8.58812e-07
8.59087e-07
8.59386e-07
8.59712e-07
8.60067e-07
8.60453e-07
8.60873e-07
8.6133e-07
8.61826e-07
8.62362e-07
8.62942e-07
8.63569e-07
8.64247e-07
8.64981e-07
8.65774e-07
8.6663e-07
8.67556e-07
8.68557e-07
8.69642e-07
9.02136e-07
9.02228e-07
9.02333e-07
9.02453e-07
9.02593e-07
9.02758e-07
9.02953e-07
9.0318e-07
9.03444e-07
9.03748e-07
9.04093e-07
9.04476e-07
9.04893e-07
9.05343e-07
9.0583e-07
9.06358e-07
9.06932e-07
9.07559e-07
9.08243e-07
9.08989e-07
9.09802e-07
9.10684e-07
9.11641e-07
9.1268e-07
9.13808e-07
9.15035e-07
9.16364e-07
9.17802e-07
9.19354e-07
9.21029e-07
9.22838e-07
9.24791e-07
9.26897e-07
9.29165e-07
9.31611e-07
9.34252e-07
9.37108e-07
1.09072e-06
1.09077e-06
1.09084e-06
1.09092e-06
1.09103e-06
1.09116e-06
1.09132e-06
1.09152e-06
1.09176e-06
1.09204e-06
1.09237e-06
1.09274e-06
1.09315e-06
1.0936e-06
1.09408e-06
1.09461e-06
1.09519e-06
1.09581e-06
1.0965e-06
1.09725e-06
1.09806e-06
1.09892e-06
1.09986e-06
1.10088e-06
1.10199e-06
1.10319e-06
1.10451e-06
1.10593e-06
1.10747e-06
1.10914e-06
1.11092e-06
1.11284e-06
1.1149e-06
1.11712e-06
1.11952e-06
1.12212e-06
1.12493e-06
1.12798e-06
7.88864e-07
7.88858e-07
7.88856e-07
7.88858e-07
7.88863e-07
7.88871e-07
7.88881e-07
7.88892e-07
7.88906e-07
7.88924e-07
7.88949e-07
7.8898e-07
7.89016e-07
7.89059e-07
7.89107e-07
7.89161e-07
7.89221e-07
7.89287e-07
7.89361e-07
7.89442e-07
7.89532e-07
7.89631e-07
7.89738e-07
7.89855e-07
7.89983e-07
7.90123e-07
7.90276e-07
7.90443e-07
7.90626e-07
7.90826e-07
7.91044e-07
7.91282e-07
7.9154e-07
7.9182e-07
7.92125e-07
7.92457e-07
7.92819e-07
7.93213e-07
7.35072e-07
7.35056e-07
7.35041e-07
7.35029e-07
7.35019e-07
7.3501e-07
7.35001e-07
7.34991e-07
7.34981e-07
7.34971e-07
7.34964e-07
7.34959e-07
7.34957e-07
7.34957e-07
7.34961e-07
7.34969e-07
7.3498e-07
7.34992e-07
7.35008e-07
7.35027e-07
7.35052e-07
7.3508e-07
7.35112e-07
7.35146e-07
7.35184e-07
7.35226e-07
7.35274e-07
7.35327e-07
7.35389e-07
7.35459e-07
7.3554e-07
7.35631e-07
7.35732e-07
7.35841e-07
7.35961e-07
7.36093e-07
7.36239e-07
7.364e-07
7.14049e-07
7.14027e-07
7.14008e-07
7.1399e-07
7.13975e-07
7.1396e-07
7.13946e-07
7.13931e-07
7.13915e-07
7.139e-07
7.13885e-07
7.13871e-07
7.13859e-07
7.13848e-07
7.13841e-07
7.13838e-07
7.13837e-07
7.13838e-07
7.13842e-07
7.13851e-07
7.13864e-07
7.1388e-07
7.13896e-07
7.13913e-07
7.13931e-07
7.13952e-07
7.13977e-07
7.14007e-07
7.14044e-07
7.14089e-07
7.14143e-07
7.14206e-07
7.14275e-07
7.14351e-07
7.14435e-07
7.14528e-07
7.14631e-07
7.14747e-07
7.05686e-07
7.05661e-07
7.05639e-07
7.05619e-07
7.05601e-07
7.05585e-07
7.05569e-07
7.05553e-07
7.05537e-07
7.0552e-07
7.05504e-07
7.05487e-07
7.05471e-07
7.05456e-07
7.05445e-07
7.05438e-07
7.05433e-07
7.05432e-07
7.05435e-07
7.05442e-07
7.05454e-07
7.05467e-07
7.05479e-07
7.0549e-07
7.05501e-07
7.05515e-07
7.05532e-07
7.05554e-07
7.05584e-07
7.05621e-07
7.05668e-07
7.05721e-07
7.0578e-07
7.05846e-07
7.05918e-07
7.05999e-07
7.0609e-07
7.06191e-07
7.02985e-07
7.02958e-07
7.02935e-07
7.02913e-07
7.02894e-07
7.02877e-07
7.02861e-07
7.02845e-07
7.0283e-07
7.02815e-07
7.02798e-07
7.0278e-07
7.02763e-07
7.02748e-07
7.02736e-07
7.02727e-07
7.02722e-07
7.02721e-07
7.02725e-07
7.02734e-07
7.02746e-07
7.02758e-07
7.02769e-07
7.02778e-07
7.02787e-07
7.02799e-07
7.02814e-07
7.02834e-07
7.02862e-07
7.02897e-07
7.0294e-07
7.0299e-07
7.03046e-07
7.03108e-07
7.03178e-07
7.03256e-07
7.03342e-07
7.03439e-07
7.02983e-07
7.02954e-07
7.02929e-07
7.02907e-07
7.02887e-07
7.0287e-07
7.02854e-07
7.0284e-07
7.02826e-07
7.02811e-07
7.02795e-07
7.02777e-07
7.02761e-07
7.02747e-07
7.02736e-07
7.02729e-07
7.02726e-07
7.02726e-07
7.02731e-07
7.0274e-07
7.02752e-07
7.02765e-07
7.02776e-07
7.02785e-07
7.02795e-07
7.02807e-07
7.02823e-07
7.02844e-07
7.02872e-07
7.02907e-07
7.02949e-07
7.02997e-07
7.03053e-07
7.03115e-07
7.03186e-07
7.03264e-07
7.03351e-07
7.03448e-07
7.0565e-07
7.05624e-07
7.05602e-07
7.05583e-07
7.05566e-07
7.05551e-07
7.05538e-07
7.05525e-07
7.05511e-07
7.05495e-07
7.05479e-07
7.05464e-07
7.05454e-07
7.05447e-07
7.05443e-07
7.05443e-07
7.05445e-07
7.05451e-07
7.05461e-07
7.05474e-07
7.05487e-07
7.05499e-07
7.05511e-07
7.05524e-07
7.05539e-07
7.05557e-07
7.05582e-07
7.05612e-07
7.05649e-07
7.05692e-07
7.05741e-07
7.05799e-07
7.05865e-07
7.05939e-07
7.06022e-07
7.06113e-07
7.06215e-07
7.14011e-07
7.13986e-07
7.13965e-07
7.13948e-07
7.13934e-07
7.1392e-07
7.13909e-07
7.13897e-07
7.13885e-07
7.13871e-07
7.13859e-07
7.13849e-07
7.13844e-07
7.13843e-07
7.13845e-07
7.1385e-07
7.13856e-07
7.13866e-07
7.13878e-07
7.13894e-07
7.1391e-07
7.13927e-07
7.13945e-07
7.13964e-07
7.13987e-07
7.14013e-07
7.14045e-07
7.14083e-07
7.14127e-07
7.14177e-07
7.14235e-07
7.14302e-07
7.14378e-07
7.14463e-07
7.14558e-07
7.14663e-07
7.1478e-07
7.35038e-07
7.35019e-07
7.35004e-07
7.34993e-07
7.34984e-07
7.34976e-07
7.34969e-07
7.34962e-07
7.34956e-07
7.34951e-07
7.34948e-07
7.34948e-07
7.34954e-07
7.34963e-07
7.34977e-07
7.34993e-07
7.35011e-07
7.35031e-07
7.35055e-07
7.35082e-07
7.35111e-07
7.35143e-07
7.35178e-07
7.35217e-07
7.3526e-07
7.35308e-07
7.35363e-07
7.35425e-07
7.35494e-07
7.35572e-07
7.35659e-07
7.35756e-07
7.35864e-07
7.35985e-07
7.3612e-07
7.36267e-07
7.3643e-07
7.88846e-07
7.88843e-07
7.88845e-07
7.88851e-07
7.8886e-07
7.88871e-07
7.88884e-07
7.88902e-07
7.88924e-07
7.88951e-07
7.88983e-07
7.89021e-07
7.89065e-07
7.89115e-07
7.89171e-07
7.89233e-07
7.89301e-07
7.89375e-07
7.89456e-07
7.89545e-07
7.89643e-07
7.89749e-07
7.89866e-07
7.89993e-07
7.90133e-07
7.90285e-07
7.90451e-07
7.90632e-07
7.90831e-07
7.91047e-07
7.91282e-07
7.91539e-07
7.91819e-07
7.92125e-07
7.92459e-07
7.92822e-07
7.93217e-07
1.09072e-06
1.09082e-06
1.09093e-06
1.09106e-06
1.09121e-06
1.09138e-06
1.09159e-06
1.09184e-06
1.09213e-06
1.09246e-06
1.09284e-06
1.09325e-06
1.0937e-06
1.09418e-06
1.0947e-06
1.09526e-06
1.09587e-06
1.09653e-06
1.09726e-06
1.09806e-06
1.09892e-06
1.09986e-06
1.10088e-06
1.10199e-06
1.10319e-06
1.10449e-06
1.10591e-06
1.10744e-06
1.10908e-06
1.11086e-06
1.11278e-06
1.11486e-06
1.11709e-06
1.1195e-06
1.12209e-06
1.1249e-06
1.12794e-06
1.18961e-06
1.18966e-06
1.18972e-06
1.1898e-06
1.18991e-06
1.19004e-06
1.1902e-06
1.19039e-06
1.19063e-06
1.19092e-06
1.19125e-06
1.19163e-06
1.19205e-06
1.1925e-06
1.19299e-06
1.19352e-06
1.1941e-06
1.19474e-06
1.19543e-06
1.19619e-06
1.197e-06
1.19787e-06
1.19881e-06
1.19983e-06
1.20095e-06
1.20216e-06
1.20348e-06
1.20492e-06
1.20647e-06
1.20815e-06
1.20995e-06
1.21188e-06
1.21395e-06
1.21619e-06
1.21861e-06
1.22124e-06
1.22408e-06
1.22717e-06
7.63036e-07
7.6303e-07
7.63028e-07
7.63028e-07
7.63032e-07
7.63037e-07
7.63041e-07
7.63042e-07
7.63039e-07
7.6304e-07
7.63048e-07
7.63062e-07
7.63081e-07
7.63105e-07
7.63133e-07
7.63167e-07
7.63204e-07
7.63246e-07
7.63293e-07
7.63346e-07
7.63405e-07
7.63472e-07
7.63546e-07
7.63626e-07
7.63713e-07
7.63809e-07
7.63914e-07
7.64029e-07
7.64157e-07
7.64298e-07
7.64454e-07
7.64628e-07
7.6482e-07
7.65029e-07
7.65257e-07
7.65506e-07
7.65778e-07
7.66074e-07
6.65633e-07
6.65614e-07
6.65596e-07
6.65579e-07
6.65563e-07
6.65546e-07
6.65527e-07
6.65505e-07
6.65479e-07
6.65451e-07
6.65424e-07
6.65397e-07
6.65371e-07
6.65345e-07
6.65321e-07
6.65298e-07
6.65275e-07
6.65252e-07
6.65228e-07
6.65205e-07
6.65183e-07
6.65163e-07
6.65142e-07
6.65119e-07
6.65094e-07
6.65068e-07
6.65042e-07
6.65016e-07
6.64991e-07
6.64968e-07
6.6495e-07
6.64935e-07
6.64923e-07
6.64912e-07
6.64901e-07
6.64892e-07
6.64885e-07
6.6488e-07
6.27399e-07
6.27373e-07
6.27349e-07
6.27325e-07
6.27301e-07
6.27277e-07
6.27252e-07
6.27223e-07
6.27191e-07
6.27158e-07
6.27122e-07
6.27086e-07
6.27048e-07
6.27009e-07
6.26971e-07
6.26933e-07
6.26895e-07
6.26857e-07
6.26817e-07
6.26779e-07
6.26741e-07
6.26702e-07
6.2666e-07
6.26613e-07
6.26561e-07
6.26507e-07
6.26449e-07
6.2639e-07
6.2633e-07
6.26272e-07
6.26215e-07
6.26158e-07
6.261e-07
6.26038e-07
6.25973e-07
6.25906e-07
6.25836e-07
6.25766e-07
6.12339e-07
6.1231e-07
6.12282e-07
6.12255e-07
6.12228e-07
6.122e-07
6.12172e-07
6.12142e-07
6.12109e-07
6.12075e-07
6.12037e-07
6.11997e-07
6.11954e-07
6.11911e-07
6.11868e-07
6.11825e-07
6.11782e-07
6.11738e-07
6.11696e-07
6.11654e-07
6.11613e-07
6.11569e-07
6.1152e-07
6.11465e-07
6.11404e-07
6.11339e-07
6.11271e-07
6.11201e-07
6.1113e-07
6.1106e-07
6.1099e-07
6.10919e-07
6.10846e-07
6.10768e-07
6.10686e-07
6.106e-07
6.10511e-07
6.10418e-07
6.07407e-07
6.07375e-07
6.07345e-07
6.07315e-07
6.07287e-07
6.07258e-07
6.07229e-07
6.07199e-07
6.07167e-07
6.07133e-07
6.07095e-07
6.07054e-07
6.0701e-07
6.06966e-07
6.06921e-07
6.06876e-07
6.06832e-07
6.06789e-07
6.06746e-07
6.06705e-07
6.06663e-07
6.06619e-07
6.06568e-07
6.0651e-07
6.06446e-07
6.06378e-07
6.06306e-07
6.06233e-07
6.06158e-07
6.06084e-07
6.0601e-07
6.05934e-07
6.05854e-07
6.05771e-07
6.05684e-07
6.05593e-07
6.05497e-07
6.05398e-07
6.07406e-07
6.07372e-07
6.0734e-07
6.07309e-07
6.0728e-07
6.07251e-07
6.07222e-07
6.07193e-07
6.07163e-07
6.07129e-07
6.07092e-07
6.07051e-07
6.07008e-07
6.06964e-07
6.06921e-07
6.06878e-07
6.06835e-07
6.06793e-07
6.06752e-07
6.06711e-07
6.0667e-07
6.06626e-07
6.06575e-07
6.06517e-07
6.06454e-07
6.06386e-07
6.06315e-07
6.06243e-07
6.06169e-07
6.06095e-07
6.06019e-07
6.05942e-07
6.05861e-07
6.05778e-07
6.05692e-07
6.05601e-07
6.05507e-07
6.05408e-07
6.12301e-07
6.12268e-07
6.12237e-07
6.12208e-07
6.1218e-07
6.12153e-07
6.12125e-07
6.12095e-07
6.12063e-07
6.12027e-07
6.11987e-07
6.11946e-07
6.11906e-07
6.11867e-07
6.11828e-07
6.1179e-07
6.1175e-07
6.11711e-07
6.11673e-07
6.11633e-07
6.1159e-07
6.11541e-07
6.11487e-07
6.11428e-07
6.11364e-07
6.11297e-07
6.11229e-07
6.1116e-07
6.11089e-07
6.11017e-07
6.10942e-07
6.10866e-07
6.10788e-07
6.10707e-07
6.10623e-07
6.10536e-07
6.10444e-07
6.27359e-07
6.27328e-07
6.27299e-07
6.27273e-07
6.27248e-07
6.27223e-07
6.27197e-07
6.2717e-07
6.2714e-07
6.27106e-07
6.27071e-07
6.27035e-07
6.27001e-07
6.26969e-07
6.26938e-07
6.26906e-07
6.26873e-07
6.2684e-07
6.26806e-07
6.26771e-07
6.26733e-07
6.26692e-07
6.26646e-07
6.26596e-07
6.26543e-07
6.26487e-07
6.2643e-07
6.26372e-07
6.26313e-07
6.26253e-07
6.26191e-07
6.26129e-07
6.26067e-07
6.26003e-07
6.25938e-07
6.25871e-07
6.25802e-07
6.65598e-07
6.65572e-07
6.65551e-07
6.65532e-07
6.65514e-07
6.65495e-07
6.65475e-07
6.65454e-07
6.65431e-07
6.65406e-07
6.65381e-07
6.65358e-07
6.65337e-07
6.65319e-07
6.65302e-07
6.65286e-07
6.65269e-07
6.65252e-07
6.65235e-07
6.65216e-07
6.65196e-07
6.65176e-07
6.65153e-07
6.6513e-07
6.65106e-07
6.65081e-07
6.65056e-07
6.65032e-07
6.6501e-07
6.64989e-07
6.6497e-07
6.64953e-07
6.64939e-07
6.64929e-07
6.64922e-07
6.64918e-07
6.64917e-07
7.63015e-07
7.63006e-07
7.63003e-07
7.63006e-07
7.6301e-07
7.63013e-07
7.63016e-07
7.63022e-07
7.63031e-07
7.63043e-07
7.63058e-07
7.63079e-07
7.63105e-07
7.63137e-07
7.63174e-07
7.63216e-07
7.63261e-07
7.63311e-07
7.63366e-07
7.63426e-07
7.63491e-07
7.63564e-07
7.63643e-07
7.63731e-07
7.63826e-07
7.63931e-07
7.64046e-07
7.64173e-07
7.64314e-07
7.6447e-07
7.6464e-07
7.64828e-07
7.65035e-07
7.65263e-07
7.65515e-07
7.65791e-07
7.66091e-07
1.1896e-06
1.1897e-06
1.18981e-06
1.18993e-06
1.19008e-06
1.19026e-06
1.19047e-06
1.19072e-06
1.19101e-06
1.19135e-06
1.19174e-06
1.19216e-06
1.19261e-06
1.19309e-06
1.19361e-06
1.19417e-06
1.19478e-06
1.19544e-06
1.19617e-06
1.19697e-06
1.19785e-06
1.19879e-06
1.19982e-06
1.20093e-06
1.20214e-06
1.20346e-06
1.20488e-06
1.20642e-06
1.20808e-06
1.20987e-06
1.21181e-06
1.21389e-06
1.21614e-06
1.21857e-06
1.22119e-06
1.22403e-06
1.22711e-06
1.245e-06
1.24504e-06
1.2451e-06
1.24517e-06
1.24527e-06
1.24539e-06
1.24555e-06
1.24574e-06
1.24597e-06
1.24625e-06
1.24658e-06
1.24695e-06
1.24736e-06
1.24781e-06
1.24829e-06
1.24881e-06
1.24938e-06
1.25e-06
1.25069e-06
1.25143e-06
1.25223e-06
1.25309e-06
1.25401e-06
1.25501e-06
1.2561e-06
1.2573e-06
1.2586e-06
1.26002e-06
1.26156e-06
1.26321e-06
1.26499e-06
1.26691e-06
1.26897e-06
1.2712e-06
1.27361e-06
1.27621e-06
1.27903e-06
1.28208e-06
7.47785e-07
7.47784e-07
7.47786e-07
7.47791e-07
7.47797e-07
7.47803e-07
7.47807e-07
7.47807e-07
7.47801e-07
7.47795e-07
7.478e-07
7.47813e-07
7.47831e-07
7.47854e-07
7.47882e-07
7.47914e-07
7.47951e-07
7.47992e-07
7.48038e-07
7.48089e-07
7.48148e-07
7.48214e-07
7.48287e-07
7.48366e-07
7.48453e-07
7.48548e-07
7.48651e-07
7.48765e-07
7.48891e-07
7.49032e-07
7.49191e-07
7.49376e-07
7.49582e-07
7.49806e-07
7.50048e-07
7.50308e-07
7.5059e-07
7.50897e-07
6.235e-07
6.23484e-07
6.23469e-07
6.23455e-07
6.23441e-07
6.23425e-07
6.23407e-07
6.23385e-07
6.23358e-07
6.23329e-07
6.23301e-07
6.23274e-07
6.23247e-07
6.2322e-07
6.23195e-07
6.2317e-07
6.23145e-07
6.23119e-07
6.23092e-07
6.23065e-07
6.23039e-07
6.23015e-07
6.22989e-07
6.22961e-07
6.22932e-07
6.229e-07
6.22867e-07
6.22833e-07
6.228e-07
6.22769e-07
6.22742e-07
6.22719e-07
6.22699e-07
6.22679e-07
6.2266e-07
6.22642e-07
6.22624e-07
6.22609e-07
5.73626e-07
5.73604e-07
5.73582e-07
5.7356e-07
5.73538e-07
5.73515e-07
5.7349e-07
5.73462e-07
5.73431e-07
5.73397e-07
5.73362e-07
5.73325e-07
5.73286e-07
5.73247e-07
5.73207e-07
5.73167e-07
5.73126e-07
5.73084e-07
5.73041e-07
5.72997e-07
5.72953e-07
5.72907e-07
5.72858e-07
5.72804e-07
5.72746e-07
5.72683e-07
5.72617e-07
5.72548e-07
5.72477e-07
5.72406e-07
5.72335e-07
5.72264e-07
5.72191e-07
5.72114e-07
5.72033e-07
5.71949e-07
5.71861e-07
5.71772e-07
5.53527e-07
5.535e-07
5.53475e-07
5.53449e-07
5.53423e-07
5.53397e-07
5.53369e-07
5.53339e-07
5.53307e-07
5.53272e-07
5.53235e-07
5.53194e-07
5.53151e-07
5.53107e-07
5.53062e-07
5.53017e-07
5.5297e-07
5.52923e-07
5.52875e-07
5.52827e-07
5.52778e-07
5.52726e-07
5.52669e-07
5.52606e-07
5.52538e-07
5.52464e-07
5.52386e-07
5.52304e-07
5.52221e-07
5.52137e-07
5.52051e-07
5.51963e-07
5.51872e-07
5.51775e-07
5.51674e-07
5.51568e-07
5.51457e-07
5.51343e-07
5.46741e-07
5.46712e-07
5.46684e-07
5.46656e-07
5.46629e-07
5.46601e-07
5.46572e-07
5.46542e-07
5.4651e-07
5.46475e-07
5.46437e-07
5.46396e-07
5.46352e-07
5.46306e-07
5.4626e-07
5.46213e-07
5.46165e-07
5.46117e-07
5.46068e-07
5.46019e-07
5.4597e-07
5.45916e-07
5.45857e-07
5.45791e-07
5.45718e-07
5.45641e-07
5.45559e-07
5.45474e-07
5.45386e-07
5.45297e-07
5.45206e-07
5.45112e-07
5.45013e-07
5.4491e-07
5.44802e-07
5.44689e-07
5.44571e-07
5.44448e-07
5.4674e-07
5.46709e-07
5.4668e-07
5.46651e-07
5.46623e-07
5.46595e-07
5.46566e-07
5.46537e-07
5.46506e-07
5.46472e-07
5.46434e-07
5.46393e-07
5.46349e-07
5.46305e-07
5.46259e-07
5.46214e-07
5.46167e-07
5.4612e-07
5.46073e-07
5.46025e-07
5.45975e-07
5.45922e-07
5.45863e-07
5.45797e-07
5.45725e-07
5.45648e-07
5.45567e-07
5.45482e-07
5.45395e-07
5.45306e-07
5.45214e-07
5.45119e-07
5.4502e-07
5.44916e-07
5.44809e-07
5.44696e-07
5.44579e-07
5.44456e-07
5.53493e-07
5.53463e-07
5.53434e-07
5.53407e-07
5.5338e-07
5.53352e-07
5.53324e-07
5.53294e-07
5.53262e-07
5.53225e-07
5.53186e-07
5.53144e-07
5.53103e-07
5.53061e-07
5.53019e-07
5.52977e-07
5.52933e-07
5.52888e-07
5.52842e-07
5.52795e-07
5.52744e-07
5.52688e-07
5.52625e-07
5.52558e-07
5.52485e-07
5.52408e-07
5.52329e-07
5.52247e-07
5.52162e-07
5.52075e-07
5.51984e-07
5.5189e-07
5.51793e-07
5.51693e-07
5.51588e-07
5.51479e-07
5.51365e-07
5.73592e-07
5.73564e-07
5.73538e-07
5.73513e-07
5.73489e-07
5.73464e-07
5.73438e-07
5.73411e-07
5.73381e-07
5.73347e-07
5.73311e-07
5.73275e-07
5.7324e-07
5.73205e-07
5.73171e-07
5.73135e-07
5.73098e-07
5.7306e-07
5.73021e-07
5.72979e-07
5.72935e-07
5.72886e-07
5.72833e-07
5.72776e-07
5.72715e-07
5.72651e-07
5.72584e-07
5.72515e-07
5.72444e-07
5.72371e-07
5.72295e-07
5.72218e-07
5.7214e-07
5.7206e-07
5.71978e-07
5.71893e-07
5.71805e-07
6.23469e-07
6.23445e-07
6.23426e-07
6.23409e-07
6.23392e-07
6.23374e-07
6.23354e-07
6.23333e-07
6.2331e-07
6.23285e-07
6.23259e-07
6.23234e-07
6.23212e-07
6.23192e-07
6.23173e-07
6.23155e-07
6.23136e-07
6.23115e-07
6.23093e-07
6.23071e-07
6.23046e-07
6.23021e-07
6.22994e-07
6.22965e-07
6.22935e-07
6.22904e-07
6.22873e-07
6.22841e-07
6.22811e-07
6.22783e-07
6.22755e-07
6.2273e-07
6.22707e-07
6.22689e-07
6.22673e-07
6.22659e-07
6.22647e-07
7.47763e-07
7.47755e-07
7.47754e-07
7.47758e-07
7.47764e-07
7.47768e-07
7.47771e-07
7.47774e-07
7.47782e-07
7.47793e-07
7.47808e-07
7.47827e-07
7.47853e-07
7.47885e-07
7.47922e-07
7.47963e-07
7.48009e-07
7.48059e-07
7.48113e-07
7.48172e-07
7.48237e-07
7.48308e-07
7.48388e-07
7.48476e-07
7.48572e-07
7.48676e-07
7.48791e-07
7.48919e-07
7.49064e-07
7.49225e-07
7.49404e-07
7.49602e-07
7.49821e-07
7.50063e-07
7.5033e-07
7.50619e-07
7.50931e-07
1.24498e-06
1.24508e-06
1.24518e-06
1.2453e-06
1.24544e-06
1.24561e-06
1.24581e-06
1.24606e-06
1.24635e-06
1.24668e-06
1.24706e-06
1.24747e-06
1.24791e-06
1.24838e-06
1.24889e-06
1.24943e-06
1.25002e-06
1.25068e-06
1.2514e-06
1.25219e-06
1.25305e-06
1.25398e-06
1.25499e-06
1.25608e-06
1.25727e-06
1.25856e-06
1.25996e-06
1.26148e-06
1.26312e-06
1.2649e-06
1.26682e-06
1.2689e-06
1.27114e-06
1.27355e-06
1.27615e-06
1.27897e-06
1.28202e-06
1.27651e-06
1.27653e-06
1.27658e-06
1.27665e-06
1.27674e-06
1.27685e-06
1.277e-06
1.27718e-06
1.27741e-06
1.27769e-06
1.27801e-06
1.27837e-06
1.27877e-06
1.27921e-06
1.27967e-06
1.28018e-06
1.28073e-06
1.28134e-06
1.282e-06
1.28273e-06
1.28351e-06
1.28435e-06
1.28525e-06
1.28623e-06
1.2873e-06
1.28847e-06
1.28975e-06
1.29115e-06
1.29266e-06
1.29429e-06
1.29605e-06
1.29793e-06
1.29996e-06
1.30215e-06
1.30451e-06
1.30706e-06
1.30982e-06
1.31282e-06
7.37863e-07
7.37866e-07
7.37874e-07
7.37883e-07
7.37892e-07
7.379e-07
7.37905e-07
7.37904e-07
7.37898e-07
7.37892e-07
7.37896e-07
7.3791e-07
7.37931e-07
7.37958e-07
7.37989e-07
7.38025e-07
7.38066e-07
7.3811e-07
7.3816e-07
7.38215e-07
7.38278e-07
7.3835e-07
7.38428e-07
7.38514e-07
7.38607e-07
7.38708e-07
7.38819e-07
7.38941e-07
7.39076e-07
7.39229e-07
7.39404e-07
7.39605e-07
7.3983e-07
7.40076e-07
7.4034e-07
7.40625e-07
7.40931e-07
7.41263e-07
5.96481e-07
5.9647e-07
5.96461e-07
5.96451e-07
5.9644e-07
5.96428e-07
5.96413e-07
5.96394e-07
5.96371e-07
5.96345e-07
5.96321e-07
5.96299e-07
5.96277e-07
5.96256e-07
5.96236e-07
5.96217e-07
5.96198e-07
5.96178e-07
5.96158e-07
5.96137e-07
5.96118e-07
5.96101e-07
5.96083e-07
5.96064e-07
5.96044e-07
5.96022e-07
5.95999e-07
5.95976e-07
5.95955e-07
5.95938e-07
5.95925e-07
5.95918e-07
5.95916e-07
5.95917e-07
5.95919e-07
5.95925e-07
5.95933e-07
5.95945e-07
5.38456e-07
5.38438e-07
5.38421e-07
5.38404e-07
5.38386e-07
5.38367e-07
5.38346e-07
5.38322e-07
5.38295e-07
5.38266e-07
5.38236e-07
5.38205e-07
5.38173e-07
5.3814e-07
5.38107e-07
5.38073e-07
5.38039e-07
5.38003e-07
5.37967e-07
5.37929e-07
5.37892e-07
5.37853e-07
5.37812e-07
5.37767e-07
5.37718e-07
5.37666e-07
5.37611e-07
5.37553e-07
5.37495e-07
5.37437e-07
5.3738e-07
5.37324e-07
5.37267e-07
5.37208e-07
5.37148e-07
5.37086e-07
5.37022e-07
5.36959e-07
5.14491e-07
5.14469e-07
5.14448e-07
5.14427e-07
5.14406e-07
5.14383e-07
5.1436e-07
5.14334e-07
5.14307e-07
5.14277e-07
5.14245e-07
5.14211e-07
5.14175e-07
5.14137e-07
5.14099e-07
5.1406e-07
5.14021e-07
5.1398e-07
5.13938e-07
5.13896e-07
5.13853e-07
5.13807e-07
5.13758e-07
5.13704e-07
5.13645e-07
5.13582e-07
5.13515e-07
5.13446e-07
5.13375e-07
5.13303e-07
5.1323e-07
5.13156e-07
5.1308e-07
5.13001e-07
5.12919e-07
5.12834e-07
5.12746e-07
5.12657e-07
5.06175e-07
5.06152e-07
5.06128e-07
5.06105e-07