/*--------------------------------*- C++ -*----------------------------------*\
| =========                 |                                                 |
| \\      /  F ield         | OpenFOAM: The Open Source CFD Toolbox           |
|  \\    /   O peration     | Version:  2.3.1                                 |
|   \\  /    A nd           | Web:      www.OpenFOAM.org                      |
|    \\/     M anipulation  |                                                 |
\*---------------------------------------------------------------------------*/
FoamFile
{
    version     2.0;
    format      ascii;
    class       volScalarField;
    location    "10";
    object      k;
}
// * * * * * * * * * * * * * * * * * * * * * * * * * * * * * * * * * * * * * //

dimensions      [0 2 -2 0 0 0 0];

internalField   nonuniform List<scalar> 
37692
(
5.33787e-06
5.33819e-06
5.33864e-06
5.33924e-06
5.33999e-06
5.3409e-06
5.34198e-06
5.34329e-06
5.34486e-06
5.34671e-06
5.34884e-06
5.35124e-06
5.35394e-06
5.35693e-06
5.36023e-06
5.36384e-06
5.36779e-06
5.37211e-06
5.37685e-06
5.38203e-06
5.38766e-06
5.39374e-06
5.40031e-06
5.40743e-06
5.41518e-06
5.4236e-06
5.43275e-06
5.44269e-06
5.45345e-06
5.46506e-06
5.47755e-06
5.49096e-06
5.50534e-06
5.5208e-06
5.53746e-06
5.55544e-06
5.57484e-06
5.59579e-06
7.09295e-06
7.09361e-06
7.09442e-06
7.09539e-06
7.09653e-06
7.09783e-06
7.09938e-06
7.10125e-06
7.1035e-06
7.10611e-06
7.10906e-06
7.11233e-06
7.11596e-06
7.11995e-06
7.12431e-06
7.12903e-06
7.13417e-06
7.13979e-06
7.14594e-06
7.15264e-06
7.15987e-06
7.16762e-06
7.17599e-06
7.18507e-06
7.19495e-06
7.20568e-06
7.21732e-06
7.22994e-06
7.24359e-06
7.2583e-06
7.27409e-06
7.29101e-06
7.30918e-06
7.32876e-06
7.3499e-06
7.37274e-06
7.3974e-06
7.42405e-06
7.82708e-06
7.82784e-06
7.82879e-06
7.82991e-06
7.83119e-06
7.83264e-06
7.83433e-06
7.83636e-06
7.83878e-06
7.84155e-06
7.84465e-06
7.84809e-06
7.8519e-06
7.85611e-06
7.86068e-06
7.86561e-06
7.87095e-06
7.87678e-06
7.88314e-06
7.89001e-06
7.89736e-06
7.90523e-06
7.91373e-06
7.923e-06
7.9331e-06
7.94408e-06
7.956e-06
7.96889e-06
7.98283e-06
7.99781e-06
8.01385e-06
8.03101e-06
8.04946e-06
8.06939e-06
8.09094e-06
8.11424e-06
8.13941e-06
8.16662e-06
8.10102e-06
8.10186e-06
8.10289e-06
8.10408e-06
8.10545e-06
8.10699e-06
8.10878e-06
8.11087e-06
8.11331e-06
8.11609e-06
8.11922e-06
8.12271e-06
8.12661e-06
8.13093e-06
8.13562e-06
8.14066e-06
8.14612e-06
8.15204e-06
8.15845e-06
8.16531e-06
8.1726e-06
8.1804e-06
8.18889e-06
8.1982e-06
8.2084e-06
8.21951e-06
8.23156e-06
8.24459e-06
8.25864e-06
8.27371e-06
8.2898e-06
8.30701e-06
8.32554e-06
8.34557e-06
8.36725e-06
8.39069e-06
8.41603e-06
8.44343e-06
8.18917e-06
8.19006e-06
8.19111e-06
8.19235e-06
8.19378e-06
8.19539e-06
8.19723e-06
8.19933e-06
8.20173e-06
8.20445e-06
8.20754e-06
8.21103e-06
8.21497e-06
8.21934e-06
8.22409e-06
8.22921e-06
8.23472e-06
8.24066e-06
8.24704e-06
8.25381e-06
8.26098e-06
8.26869e-06
8.27713e-06
8.28644e-06
8.29667e-06
8.30784e-06
8.31995e-06
8.33303e-06
8.34711e-06
8.36218e-06
8.37826e-06
8.39549e-06
8.41404e-06
8.43409e-06
8.45578e-06
8.47923e-06
8.50457e-06
8.53199e-06
8.21261e-06
8.21356e-06
8.21465e-06
8.21593e-06
8.21741e-06
8.21907e-06
8.22093e-06
8.22301e-06
8.22534e-06
8.228e-06
8.23104e-06
8.23454e-06
8.23849e-06
8.24288e-06
8.24764e-06
8.25278e-06
8.2583e-06
8.26422e-06
8.27054e-06
8.27723e-06
8.28432e-06
8.29197e-06
8.30039e-06
8.30969e-06
8.31991e-06
8.33108e-06
8.3432e-06
8.35627e-06
8.37032e-06
8.38535e-06
8.40143e-06
8.4187e-06
8.43729e-06
8.45736e-06
8.47902e-06
8.50242e-06
8.52773e-06
8.55512e-06
8.21253e-06
8.21357e-06
8.21474e-06
8.21608e-06
8.2176e-06
8.21929e-06
8.22116e-06
8.22322e-06
8.22552e-06
8.22813e-06
8.23116e-06
8.23468e-06
8.23865e-06
8.24302e-06
8.24775e-06
8.25283e-06
8.25831e-06
8.26419e-06
8.27046e-06
8.27711e-06
8.28419e-06
8.29185e-06
8.30026e-06
8.30954e-06
8.31975e-06
8.33089e-06
8.34297e-06
8.35599e-06
8.36998e-06
8.38499e-06
8.4011e-06
8.41843e-06
8.43708e-06
8.45716e-06
8.4788e-06
8.50216e-06
8.52744e-06
8.55482e-06
8.1901e-06
8.19137e-06
8.19276e-06
8.19429e-06
8.19599e-06
8.19788e-06
8.19994e-06
8.20223e-06
8.20485e-06
8.20792e-06
8.21147e-06
8.21543e-06
8.21975e-06
8.22439e-06
8.22937e-06
8.23476e-06
8.24059e-06
8.24685e-06
8.25351e-06
8.26062e-06
8.26831e-06
8.27674e-06
8.28601e-06
8.29617e-06
8.30726e-06
8.31929e-06
8.33225e-06
8.3462e-06
8.3612e-06
8.37734e-06
8.39473e-06
8.41343e-06
8.43352e-06
8.45516e-06
8.47852e-06
8.50379e-06
8.53117e-06
8.10188e-06
8.10321e-06
8.10462e-06
8.10613e-06
8.10782e-06
8.1097e-06
8.11178e-06
8.1141e-06
8.11677e-06
8.11988e-06
8.12344e-06
8.12736e-06
8.13159e-06
8.13611e-06
8.14097e-06
8.14625e-06
8.152e-06
8.15823e-06
8.1649e-06
8.17205e-06
8.17979e-06
8.18824e-06
8.19748e-06
8.20759e-06
8.21861e-06
8.23056e-06
8.24347e-06
8.25737e-06
8.27234e-06
8.28848e-06
8.30587e-06
8.32457e-06
8.34468e-06
8.36632e-06
8.38967e-06
8.41492e-06
8.44225e-06
7.82773e-06
7.82904e-06
7.83039e-06
7.83184e-06
7.83346e-06
7.8353e-06
7.83738e-06
7.83973e-06
7.84242e-06
7.84551e-06
7.84901e-06
7.85284e-06
7.85695e-06
7.86136e-06
7.86609e-06
7.87125e-06
7.87689e-06
7.88303e-06
7.88966e-06
7.89682e-06
7.90459e-06
7.91304e-06
7.92223e-06
7.93224e-06
7.94313e-06
7.95495e-06
7.96774e-06
7.98154e-06
7.99641e-06
8.01245e-06
8.02974e-06
8.04837e-06
8.06841e-06
8.08997e-06
8.11321e-06
8.13831e-06
8.16543e-06
7.09321e-06
7.09437e-06
7.09558e-06
7.09689e-06
7.09837e-06
7.10009e-06
7.10207e-06
7.10433e-06
7.10692e-06
7.10988e-06
7.1132e-06
7.11686e-06
7.12084e-06
7.12512e-06
7.12973e-06
7.13475e-06
7.14022e-06
7.14619e-06
7.15268e-06
7.15973e-06
7.1674e-06
7.17573e-06
7.18476e-06
7.19455e-06
7.20519e-06
7.21674e-06
7.22926e-06
7.24278e-06
7.25736e-06
7.27309e-06
7.29007e-06
7.30837e-06
7.32808e-06
7.34929e-06
7.37213e-06
7.39675e-06
7.42333e-06
5.33768e-06
5.33834e-06
5.33912e-06
5.34001e-06
5.34105e-06
5.34225e-06
5.34366e-06
5.34528e-06
5.34715e-06
5.34931e-06
5.35177e-06
5.35453e-06
5.35758e-06
5.36091e-06
5.36453e-06
5.36846e-06
5.37275e-06
5.37742e-06
5.3825e-06
5.38804e-06
5.39406e-06
5.40059e-06
5.40768e-06
5.41536e-06
5.4237e-06
5.43276e-06
5.44258e-06
5.45322e-06
5.46471e-06
5.47711e-06
5.4905e-06
5.50493e-06
5.52047e-06
5.53721e-06
5.55523e-06
5.57465e-06
5.59558e-06
8.62182e-06
8.6221e-06
8.6225e-06
8.62302e-06
8.62367e-06
8.62446e-06
8.62541e-06
8.62657e-06
8.62799e-06
8.62967e-06
8.63159e-06
8.63374e-06
8.63613e-06
8.63877e-06
8.64165e-06
8.64478e-06
8.64819e-06
8.65192e-06
8.65601e-06
8.66048e-06
8.6653e-06
8.67049e-06
8.6761e-06
8.6822e-06
8.68883e-06
8.69606e-06
8.7039e-06
8.71242e-06
8.72164e-06
8.73157e-06
8.74223e-06
8.75366e-06
8.76593e-06
8.77916e-06
8.79343e-06
8.80886e-06
8.82553e-06
8.84356e-06
1.25776e-05
1.25782e-05
1.25788e-05
1.25795e-05
1.25802e-05
1.2581e-05
1.25819e-05
1.2583e-05
1.25845e-05
1.25861e-05
1.25878e-05
1.25896e-05
1.25914e-05
1.25934e-05
1.25954e-05
1.25975e-05
1.25998e-05
1.26022e-05
1.26049e-05
1.26078e-05
1.26109e-05
1.2614e-05
1.26174e-05
1.26211e-05
1.26252e-05
1.26296e-05
1.26343e-05
1.26394e-05
1.26449e-05
1.26508e-05
1.26569e-05
1.26635e-05
1.26705e-05
1.26781e-05
1.26864e-05
1.26955e-05
1.27054e-05
1.27162e-05
1.43562e-05
1.4357e-05
1.43578e-05
1.43587e-05
1.43596e-05
1.43605e-05
1.43616e-05
1.4363e-05
1.43646e-05
1.43663e-05
1.43683e-05
1.43703e-05
1.43724e-05
1.43747e-05
1.4377e-05
1.43794e-05
1.4382e-05
1.43847e-05
1.43877e-05
1.43909e-05
1.43941e-05
1.43976e-05
1.44013e-05
1.44054e-05
1.44099e-05
1.44148e-05
1.442e-05
1.44257e-05
1.44318e-05
1.44382e-05
1.4445e-05
1.44521e-05
1.44598e-05
1.44683e-05
1.44776e-05
1.44877e-05
1.44988e-05
1.45108e-05
1.5057e-05
1.50579e-05
1.50588e-05
1.50598e-05
1.50608e-05
1.50619e-05
1.50631e-05
1.50646e-05
1.50662e-05
1.5068e-05
1.507e-05
1.50721e-05
1.50744e-05
1.50769e-05
1.50795e-05
1.50821e-05
1.50848e-05
1.50878e-05
1.50909e-05
1.50941e-05
1.50974e-05
1.51009e-05
1.51047e-05
1.51091e-05
1.51139e-05
1.51191e-05
1.51248e-05
1.51308e-05
1.51373e-05
1.5144e-05
1.51511e-05
1.51587e-05
1.51669e-05
1.51758e-05
1.51857e-05
1.51965e-05
1.52082e-05
1.5221e-05
1.5305e-05
1.53059e-05
1.53069e-05
1.53079e-05
1.5309e-05
1.53102e-05
1.53115e-05
1.53129e-05
1.53145e-05
1.53162e-05
1.53182e-05
1.53204e-05
1.53228e-05
1.53253e-05
1.5328e-05
1.53308e-05
1.53336e-05
1.53366e-05
1.53396e-05
1.53428e-05
1.5346e-05
1.53494e-05
1.53533e-05
1.53578e-05
1.53628e-05
1.53682e-05
1.5374e-05
1.53803e-05
1.53868e-05
1.53938e-05
1.5401e-05
1.54087e-05
1.54171e-05
1.54263e-05
1.54364e-05
1.54474e-05
1.54594e-05
1.54725e-05
1.53779e-05
1.53789e-05
1.53799e-05
1.5381e-05
1.53822e-05
1.53834e-05
1.53847e-05
1.5386e-05
1.53876e-05
1.53892e-05
1.53912e-05
1.53934e-05
1.53958e-05
1.53984e-05
1.54011e-05
1.54038e-05
1.54067e-05
1.54096e-05
1.54126e-05
1.54156e-05
1.54188e-05
1.54222e-05
1.54261e-05
1.54306e-05
1.54356e-05
1.54411e-05
1.5447e-05
1.54532e-05
1.54598e-05
1.54668e-05
1.54741e-05
1.5482e-05
1.54905e-05
1.54997e-05
1.55098e-05
1.55209e-05
1.55329e-05
1.55461e-05
1.53779e-05
1.53791e-05
1.53802e-05
1.53813e-05
1.53825e-05
1.53837e-05
1.5385e-05
1.53863e-05
1.53878e-05
1.53894e-05
1.53913e-05
1.53935e-05
1.53959e-05
1.53985e-05
1.54011e-05
1.54038e-05
1.54066e-05
1.54094e-05
1.54124e-05
1.54154e-05
1.54185e-05
1.54219e-05
1.54258e-05
1.54303e-05
1.54353e-05
1.54407e-05
1.54466e-05
1.54528e-05
1.54593e-05
1.54663e-05
1.54736e-05
1.54816e-05
1.54901e-05
1.54994e-05
1.55095e-05
1.55205e-05
1.55325e-05
1.55457e-05
1.53064e-05
1.53076e-05
1.53087e-05
1.53099e-05
1.53111e-05
1.53124e-05
1.53137e-05
1.53151e-05
1.53167e-05
1.53186e-05
1.53208e-05
1.53232e-05
1.53256e-05
1.53281e-05
1.53306e-05
1.53333e-05
1.53361e-05
1.5339e-05
1.5342e-05
1.53451e-05
1.53486e-05
1.53525e-05
1.53568e-05
1.53617e-05
1.53671e-05
1.53728e-05
1.53789e-05
1.53854e-05
1.53923e-05
1.53997e-05
1.54077e-05
1.54162e-05
1.54254e-05
1.54354e-05
1.54463e-05
1.54582e-05
1.54713e-05
1.50586e-05
1.50598e-05
1.5061e-05
1.50621e-05
1.50632e-05
1.50645e-05
1.50658e-05
1.50672e-05
1.50688e-05
1.50707e-05
1.50729e-05
1.50751e-05
1.50774e-05
1.50796e-05
1.50819e-05
1.50844e-05
1.50871e-05
1.50899e-05
1.50929e-05
1.50961e-05
1.50995e-05
1.51033e-05
1.51076e-05
1.51123e-05
1.51174e-05
1.5123e-05
1.51289e-05
1.51352e-05
1.5142e-05
1.51493e-05
1.51571e-05
1.51655e-05
1.51745e-05
1.51843e-05
1.51949e-05
1.52065e-05
1.52192e-05
1.43577e-05
1.43589e-05
1.43599e-05
1.43609e-05
1.43619e-05
1.43631e-05
1.43643e-05
1.43657e-05
1.43673e-05
1.43692e-05
1.43712e-05
1.43732e-05
1.43753e-05
1.43773e-05
1.43794e-05
1.43816e-05
1.43841e-05
1.43867e-05
1.43896e-05
1.43926e-05
1.4396e-05
1.43996e-05
1.44037e-05
1.44081e-05
1.44129e-05
1.44181e-05
1.44237e-05
1.44296e-05
1.4436e-05
1.44429e-05
1.44503e-05
1.44583e-05
1.44669e-05
1.44761e-05
1.44861e-05
1.4497e-05
1.45089e-05
1.25787e-05
1.25797e-05
1.25805e-05
1.25813e-05
1.25822e-05
1.25831e-05
1.25843e-05
1.25855e-05
1.2587e-05
1.25886e-05
1.25904e-05
1.25922e-05
1.2594e-05
1.25958e-05
1.25977e-05
1.25996e-05
1.26018e-05
1.26042e-05
1.26068e-05
1.26097e-05
1.26128e-05
1.26162e-05
1.26198e-05
1.26238e-05
1.26281e-05
1.26328e-05
1.26379e-05
1.26433e-05
1.26491e-05
1.26554e-05
1.26621e-05
1.26693e-05
1.26771e-05
1.26855e-05
1.26945e-05
1.27043e-05
1.27149e-05
8.6218e-06
8.62239e-06
8.62306e-06
8.62382e-06
8.62471e-06
8.62577e-06
8.62701e-06
8.62845e-06
8.63014e-06
8.63208e-06
8.63427e-06
8.63671e-06
8.63937e-06
8.64224e-06
8.64533e-06
8.64869e-06
8.65235e-06
8.65634e-06
8.66069e-06
8.66543e-06
8.6706e-06
8.67621e-06
8.68229e-06
8.68889e-06
8.69605e-06
8.70383e-06
8.71227e-06
8.72138e-06
8.73121e-06
8.74182e-06
8.75327e-06
8.76562e-06
8.77893e-06
8.79325e-06
8.80869e-06
8.82534e-06
8.84332e-06
9.78515e-06
9.78543e-06
9.78583e-06
9.78634e-06
9.78699e-06
9.78777e-06
9.78872e-06
9.78989e-06
9.79133e-06
9.79305e-06
9.79501e-06
9.79722e-06
9.79966e-06
9.80234e-06
9.80526e-06
9.80841e-06
9.81184e-06
9.8156e-06
9.8197e-06
9.82417e-06
9.82899e-06
9.83417e-06
9.83975e-06
9.84582e-06
9.85243e-06
9.85963e-06
9.86745e-06
9.87594e-06
9.88514e-06
9.89504e-06
9.90566e-06
9.91705e-06
9.92928e-06
9.94247e-06
9.95672e-06
9.97214e-06
9.98882e-06
1.00069e-05
1.53575e-05
1.5358e-05
1.53585e-05
1.5359e-05
1.53596e-05
1.53602e-05
1.53609e-05
1.53619e-05
1.53631e-05
1.53645e-05
1.5366e-05
1.53674e-05
1.5369e-05
1.53706e-05
1.53722e-05
1.53739e-05
1.53757e-05
1.53777e-05
1.53798e-05
1.53821e-05
1.53844e-05
1.53869e-05
1.53895e-05
1.53924e-05
1.53955e-05
1.5399e-05
1.54027e-05
1.54067e-05
1.5411e-05
1.54156e-05
1.54204e-05
1.54254e-05
1.54309e-05
1.54368e-05
1.54433e-05
1.54504e-05
1.54582e-05
1.54668e-05
1.75617e-05
1.75624e-05
1.7563e-05
1.75638e-05
1.75645e-05
1.75653e-05
1.75661e-05
1.75672e-05
1.75685e-05
1.757e-05
1.75715e-05
1.75731e-05
1.75748e-05
1.75765e-05
1.75783e-05
1.75802e-05
1.75822e-05
1.75843e-05
1.75865e-05
1.75889e-05
1.75914e-05
1.7594e-05
1.75968e-05
1.75999e-05
1.76033e-05
1.7607e-05
1.7611e-05
1.76153e-05
1.76199e-05
1.76248e-05
1.76299e-05
1.76354e-05
1.76413e-05
1.76477e-05
1.76549e-05
1.76627e-05
1.76713e-05
1.76807e-05
1.84567e-05
1.84575e-05
1.84583e-05
1.84591e-05
1.84599e-05
1.84608e-05
1.84618e-05
1.8463e-05
1.84643e-05
1.84657e-05
1.84673e-05
1.8469e-05
1.84708e-05
1.84727e-05
1.84747e-05
1.84767e-05
1.84788e-05
1.84811e-05
1.84834e-05
1.84859e-05
1.84884e-05
1.84911e-05
1.8494e-05
1.84973e-05
1.8501e-05
1.8505e-05
1.85093e-05
1.8514e-05
1.85189e-05
1.85241e-05
1.85296e-05
1.85355e-05
1.85419e-05
1.85488e-05
1.85566e-05
1.8565e-05
1.85743e-05
1.85844e-05
1.87974e-05
1.87983e-05
1.87991e-05
1.88e-05
1.88009e-05
1.88019e-05
1.88029e-05
1.88041e-05
1.88053e-05
1.88068e-05
1.88083e-05
1.881e-05
1.88119e-05
1.88139e-05
1.8816e-05
1.88181e-05
1.88203e-05
1.88226e-05
1.8825e-05
1.88274e-05
1.88299e-05
1.88326e-05
1.88356e-05
1.8839e-05
1.88429e-05
1.88471e-05
1.88516e-05
1.88564e-05
1.88615e-05
1.88669e-05
1.88726e-05
1.88787e-05
1.88853e-05
1.88926e-05
1.89006e-05
1.89093e-05
1.89189e-05
1.89295e-05
1.89061e-05
1.8907e-05
1.89079e-05
1.89088e-05
1.89098e-05
1.89108e-05
1.89119e-05
1.8913e-05
1.89142e-05
1.89156e-05
1.89171e-05
1.89189e-05
1.89208e-05
1.89228e-05
1.89249e-05
1.89271e-05
1.89293e-05
1.89316e-05
1.89339e-05
1.89362e-05
1.89387e-05
1.89414e-05
1.89444e-05
1.89479e-05
1.89518e-05
1.8956e-05
1.89606e-05
1.89655e-05
1.89706e-05
1.89761e-05
1.89818e-05
1.89881e-05
1.89948e-05
1.90022e-05
1.90103e-05
1.90191e-05
1.90289e-05
1.90396e-05
1.89062e-05
1.89072e-05
1.89081e-05
1.89091e-05
1.89101e-05
1.89111e-05
1.89121e-05
1.89132e-05
1.89144e-05
1.89157e-05
1.89173e-05
1.8919e-05
1.89209e-05
1.89229e-05
1.89249e-05
1.8927e-05
1.89292e-05
1.89314e-05
1.89337e-05
1.8936e-05
1.89385e-05
1.89411e-05
1.89442e-05
1.89476e-05
1.89515e-05
1.89557e-05
1.89603e-05
1.89651e-05
1.89702e-05
1.89757e-05
1.89815e-05
1.89878e-05
1.89945e-05
1.90019e-05
1.901e-05
1.90188e-05
1.90285e-05
1.90392e-05
1.87986e-05
1.87996e-05
1.88006e-05
1.88016e-05
1.88026e-05
1.88036e-05
1.88047e-05
1.88058e-05
1.88071e-05
1.88087e-05
1.88104e-05
1.88122e-05
1.88141e-05
1.88161e-05
1.8818e-05
1.88201e-05
1.88222e-05
1.88245e-05
1.88268e-05
1.88292e-05
1.88319e-05
1.88349e-05
1.88383e-05
1.88421e-05
1.88462e-05
1.88506e-05
1.88554e-05
1.88604e-05
1.88658e-05
1.88716e-05
1.88778e-05
1.88845e-05
1.88918e-05
1.88998e-05
1.89085e-05
1.8918e-05
1.89285e-05
1.8458e-05
1.8459e-05
1.846e-05
1.84609e-05
1.84619e-05
1.84629e-05
1.84639e-05
1.84651e-05
1.84664e-05
1.84679e-05
1.84695e-05
1.84713e-05
1.8473e-05
1.84748e-05
1.84766e-05
1.84785e-05
1.84805e-05
1.84827e-05
1.84849e-05
1.84873e-05
1.849e-05
1.84929e-05
1.84961e-05
1.84997e-05
1.85037e-05
1.85079e-05
1.85125e-05
1.85173e-05
1.85225e-05
1.85282e-05
1.85342e-05
1.85407e-05
1.85478e-05
1.85554e-05
1.85638e-05
1.8573e-05
1.85831e-05
1.75629e-05
1.75639e-05
1.75648e-05
1.75656e-05
1.75664e-05
1.75674e-05
1.75684e-05
1.75695e-05
1.75708e-05
1.75722e-05
1.75738e-05
1.75754e-05
1.7577e-05
1.75786e-05
1.75802e-05
1.75819e-05
1.75837e-05
1.75857e-05
1.75878e-05
1.75901e-05
1.75927e-05
1.75954e-05
1.75985e-05
1.76018e-05
1.76055e-05
1.76094e-05
1.76136e-05
1.76182e-05
1.7623e-05
1.76283e-05
1.76339e-05
1.764e-05
1.76466e-05
1.76537e-05
1.76614e-05
1.76699e-05
1.76792e-05
1.53584e-05
1.53593e-05
1.536e-05
1.53606e-05
1.53613e-05
1.53621e-05
1.53631e-05
1.53641e-05
1.53654e-05
1.53667e-05
1.53682e-05
1.53697e-05
1.53711e-05
1.53725e-05
1.5374e-05
1.53755e-05
1.53772e-05
1.5379e-05
1.53811e-05
1.53833e-05
1.53857e-05
1.53884e-05
1.53912e-05
1.53943e-05
1.53977e-05
1.54014e-05
1.54053e-05
1.54096e-05
1.54141e-05
1.5419e-05
1.54242e-05
1.54299e-05
1.54359e-05
1.54425e-05
1.54495e-05
1.54572e-05
1.54656e-05
9.78511e-06
9.78571e-06
9.78638e-06
9.78715e-06
9.78804e-06
9.7891e-06
9.79036e-06
9.79184e-06
9.79357e-06
9.79557e-06
9.79782e-06
9.80029e-06
9.80297e-06
9.80585e-06
9.80894e-06
9.81228e-06
9.81593e-06
9.8199e-06
9.82424e-06
9.82898e-06
9.83415e-06
9.83976e-06
9.84585e-06
9.85244e-06
9.85961e-06
9.86739e-06
9.87581e-06
9.88491e-06
9.89472e-06
9.9053e-06
9.91672e-06
9.92903e-06
9.9423e-06
9.95659e-06
9.97199e-06
9.98862e-06
1.00066e-05
1.03681e-05
1.03684e-05
1.03688e-05
1.03693e-05
1.03699e-05
1.03706e-05
1.03715e-05
1.03727e-05
1.03741e-05
1.03757e-05
1.03777e-05
1.03799e-05
1.03823e-05
1.03849e-05
1.03878e-05
1.03909e-05
1.03942e-05
1.03979e-05
1.04019e-05
1.04063e-05
1.0411e-05
1.04161e-05
1.04215e-05
1.04275e-05
1.04339e-05
1.04409e-05
1.04486e-05
1.04569e-05
1.04659e-05
1.04756e-05
1.0486e-05
1.04972e-05
1.05091e-05
1.0522e-05
1.0536e-05
1.05512e-05
1.05676e-05
1.05853e-05
1.69476e-05
1.69479e-05
1.69482e-05
1.69486e-05
1.6949e-05
1.69494e-05
1.69501e-05
1.69509e-05
1.6952e-05
1.69532e-05
1.69544e-05
1.69557e-05
1.6957e-05
1.69583e-05
1.69597e-05
1.69611e-05
1.69626e-05
1.69642e-05
1.69659e-05
1.69678e-05
1.69697e-05
1.69718e-05
1.69739e-05
1.69762e-05
1.69788e-05
1.69817e-05
1.69847e-05
1.69881e-05
1.69916e-05
1.69954e-05
1.69994e-05
1.70035e-05
1.7008e-05
1.70129e-05
1.70182e-05
1.70241e-05
1.70307e-05
1.70378e-05
1.94089e-05
1.94094e-05
1.94099e-05
1.94105e-05
1.9411e-05
1.94116e-05
1.94123e-05
1.94132e-05
1.94142e-05
1.94154e-05
1.94166e-05
1.94179e-05
1.94192e-05
1.94206e-05
1.9422e-05
1.94235e-05
1.9425e-05
1.94267e-05
1.94285e-05
1.94303e-05
1.94323e-05
1.94343e-05
1.94365e-05
1.9439e-05
1.94416e-05
1.94446e-05
1.94477e-05
1.94512e-05
1.94548e-05
1.94587e-05
1.94629e-05
1.94673e-05
1.9472e-05
1.94773e-05
1.9483e-05
1.94894e-05
1.94964e-05
1.95042e-05
2.04256e-05
2.04262e-05
2.04268e-05
2.04274e-05
2.04281e-05
2.04288e-05
2.04296e-05
2.04305e-05
2.04316e-05
2.04327e-05
2.04339e-05
2.04352e-05
2.04367e-05
2.04381e-05
2.04397e-05
2.04413e-05
2.04429e-05
2.04447e-05
2.04465e-05
2.04484e-05
2.04504e-05
2.04526e-05
2.04549e-05
2.04575e-05
2.04604e-05
2.04636e-05
2.0467e-05
2.04707e-05
2.04746e-05
2.04788e-05
2.04832e-05
2.0488e-05
2.04932e-05
2.04989e-05
2.05053e-05
2.05122e-05
2.05199e-05
2.05284e-05
2.08323e-05
2.0833e-05
2.08337e-05
2.08344e-05
2.08351e-05
2.08359e-05
2.08367e-05
2.08376e-05
2.08387e-05
2.08398e-05
2.0841e-05
2.08424e-05
2.08438e-05
2.08454e-05
2.0847e-05
2.08487e-05
2.08504e-05
2.08522e-05
2.0854e-05
2.0856e-05
2.0858e-05
2.08601e-05
2.08626e-05
2.08653e-05
2.08683e-05
2.08716e-05
2.08752e-05
2.08791e-05
2.08832e-05
2.08875e-05
2.08922e-05
2.08972e-05
2.09027e-05
2.09087e-05
2.09153e-05
2.09227e-05
2.09307e-05
2.09396e-05
2.09696e-05
2.09704e-05
2.09711e-05
2.09719e-05
2.09726e-05
2.09734e-05
2.09743e-05
2.09752e-05
2.09762e-05
2.09773e-05
2.09785e-05
2.09799e-05
2.09814e-05
2.09829e-05
2.09846e-05
2.09862e-05
2.0988e-05
2.09898e-05
2.09916e-05
2.09935e-05
2.09955e-05
2.09977e-05
2.10001e-05
2.10029e-05
2.1006e-05
2.10094e-05
2.1013e-05
2.10169e-05
2.10211e-05
2.10255e-05
2.10303e-05
2.10354e-05
2.1041e-05
2.10472e-05
2.1054e-05
2.10614e-05
2.10696e-05
2.10787e-05
2.09697e-05
2.09705e-05
2.09712e-05
2.0972e-05
2.09728e-05
2.09736e-05
2.09745e-05
2.09754e-05
2.09763e-05
2.09774e-05
2.09786e-05
2.098e-05
2.09814e-05
2.0983e-05
2.09846e-05
2.09862e-05
2.09879e-05
2.09897e-05
2.09915e-05
2.09934e-05
2.09953e-05
2.09975e-05
2.1e-05
2.10027e-05
2.10058e-05
2.10091e-05
2.10128e-05
2.10167e-05
2.10208e-05
2.10253e-05
2.103e-05
2.10352e-05
2.10408e-05
2.1047e-05
2.10538e-05
2.10612e-05
2.10694e-05
2.10785e-05
2.08332e-05
2.0834e-05
2.08348e-05
2.08356e-05
2.08364e-05
2.08372e-05
2.08381e-05
2.0839e-05
2.08401e-05
2.08413e-05
2.08426e-05
2.08441e-05
2.08455e-05
2.0847e-05
2.08486e-05
2.08502e-05
2.08519e-05
2.08537e-05
2.08555e-05
2.08575e-05
2.08596e-05
2.0862e-05
2.08647e-05
2.08677e-05
2.0871e-05
2.08745e-05
2.08783e-05
2.08824e-05
2.08867e-05
2.08914e-05
2.08965e-05
2.09021e-05
2.09081e-05
2.09148e-05
2.0922e-05
2.09301e-05
2.09389e-05
2.04265e-05
2.04274e-05
2.04281e-05
2.04289e-05
2.04296e-05
2.04304e-05
2.04313e-05
2.04322e-05
2.04332e-05
2.04344e-05
2.04357e-05
2.0437e-05
2.04384e-05
2.04398e-05
2.04412e-05
2.04427e-05
2.04443e-05
2.04459e-05
2.04477e-05
2.04496e-05
2.04517e-05
2.0454e-05
2.04566e-05
2.04594e-05
2.04625e-05
2.04659e-05
2.04695e-05
2.04734e-05
2.04776e-05
2.04821e-05
2.0487e-05
2.04923e-05
2.04981e-05
2.05044e-05
2.05113e-05
2.0519e-05
2.05274e-05
1.94098e-05
1.94106e-05
1.94113e-05
1.94119e-05
1.94126e-05
1.94133e-05
1.94141e-05
1.94151e-05
1.94161e-05
1.94172e-05
1.94185e-05
1.94197e-05
1.9421e-05
1.94222e-05
1.94234e-05
1.94248e-05
1.94262e-05
1.94278e-05
1.94295e-05
1.94313e-05
1.94333e-05
1.94355e-05
1.94379e-05
1.94405e-05
1.94434e-05
1.94465e-05
1.94499e-05
1.94535e-05
1.94574e-05
1.94616e-05
1.94661e-05
1.9471e-05
1.94763e-05
1.94821e-05
1.94884e-05
1.94954e-05
1.95031e-05
1.69483e-05
1.6949e-05
1.69496e-05
1.695e-05
1.69506e-05
1.69512e-05
1.6952e-05
1.69529e-05
1.6954e-05
1.69551e-05
1.69563e-05
1.69576e-05
1.69588e-05
1.69599e-05
1.69611e-05
1.69624e-05
1.69637e-05
1.69652e-05
1.69669e-05
1.69687e-05
1.69707e-05
1.69729e-05
1.69752e-05
1.69778e-05
1.69806e-05
1.69836e-05
1.69869e-05
1.69904e-05
1.69941e-05
1.69981e-05
1.70024e-05
1.70071e-05
1.70121e-05
1.70175e-05
1.70233e-05
1.70297e-05
1.70368e-05
1.03681e-05
1.03686e-05
1.03693e-05
1.037e-05
1.03709e-05
1.03719e-05
1.03731e-05
1.03746e-05
1.03763e-05
1.03783e-05
1.03805e-05
1.03829e-05
1.03856e-05
1.03883e-05
1.03913e-05
1.03946e-05
1.03981e-05
1.0402e-05
1.04062e-05
1.04109e-05
1.0416e-05
1.04214e-05
1.04274e-05
1.04339e-05
1.04409e-05
1.04485e-05
1.04567e-05
1.04656e-05
1.04752e-05
1.04856e-05
1.04968e-05
1.05088e-05
1.05218e-05
1.05358e-05
1.05509e-05
1.05673e-05
1.0585e-05
1.06876e-05
1.06879e-05
1.06882e-05
1.06886e-05
1.06892e-05
1.06899e-05
1.06907e-05
1.06918e-05
1.06932e-05
1.06948e-05
1.06967e-05
1.06988e-05
1.07011e-05
1.07037e-05
1.07065e-05
1.07094e-05
1.07127e-05
1.07162e-05
1.07202e-05
1.07244e-05
1.0729e-05
1.07339e-05
1.07391e-05
1.07449e-05
1.07511e-05
1.07579e-05
1.07654e-05
1.07735e-05
1.07822e-05
1.07916e-05
1.08018e-05
1.08127e-05
1.08245e-05
1.08371e-05
1.08508e-05
1.08656e-05
1.08816e-05
1.08989e-05
1.78989e-05
1.78991e-05
1.78993e-05
1.78995e-05
1.78997e-05
1.79001e-05
1.79005e-05
1.79013e-05
1.79022e-05
1.79033e-05
1.79044e-05
1.79055e-05
1.79065e-05
1.79076e-05
1.79087e-05
1.79099e-05
1.79111e-05
1.79124e-05
1.79139e-05
1.79154e-05
1.7917e-05
1.79187e-05
1.79204e-05
1.79223e-05
1.79245e-05
1.79268e-05
1.79294e-05
1.79322e-05
1.79352e-05
1.79383e-05
1.79416e-05
1.7945e-05
1.79486e-05
1.79525e-05
1.79569e-05
1.79617e-05
1.79672e-05
1.79732e-05
2.05484e-05
2.05487e-05
2.05491e-05
2.05495e-05
2.05499e-05
2.05504e-05
2.0551e-05
2.05517e-05
2.05525e-05
2.05535e-05
2.05544e-05
2.05554e-05
2.05565e-05
2.05576e-05
2.05587e-05
2.05598e-05
2.05611e-05
2.05624e-05
2.05638e-05
2.05653e-05
2.05668e-05
2.05684e-05
2.05702e-05
2.05721e-05
2.05743e-05
2.05766e-05
2.05792e-05
2.05819e-05
2.05849e-05
2.05881e-05
2.05915e-05
2.05951e-05
2.0599e-05
2.06033e-05
2.06081e-05
2.06134e-05
2.06193e-05
2.06258e-05
2.16562e-05
2.16566e-05
2.16571e-05
2.16576e-05
2.16581e-05
2.16587e-05
2.16593e-05
2.16601e-05
2.16609e-05
2.16618e-05
2.16627e-05
2.16638e-05
2.16649e-05
2.1666e-05
2.16672e-05
2.16685e-05
2.16698e-05
2.16711e-05
2.16726e-05
2.16741e-05
2.16757e-05
2.16774e-05
2.16793e-05
2.16814e-05
2.16837e-05
2.16862e-05
2.1689e-05
2.16919e-05
2.16951e-05
2.16986e-05
2.17022e-05
2.17062e-05
2.17106e-05
2.17154e-05
2.17207e-05
2.17266e-05
2.17331e-05
2.17403e-05
2.21146e-05
2.21152e-05
2.21157e-05
2.21163e-05
2.21169e-05
2.21175e-05
2.21182e-05
2.21189e-05
2.21197e-05
2.21206e-05
2.21215e-05
2.21226e-05
2.21237e-05
2.21249e-05
2.21262e-05
2.21275e-05
2.21289e-05
2.21303e-05
2.21318e-05
2.21333e-05
2.2135e-05
2.21367e-05
2.21387e-05
2.21409e-05
2.21433e-05
2.2146e-05
2.21488e-05
2.2152e-05
2.21553e-05
2.21589e-05
2.21628e-05
2.2167e-05
2.21717e-05
2.21768e-05
2.21824e-05
2.21887e-05
2.21956e-05
2.22033e-05
2.22757e-05
2.22763e-05
2.22768e-05
2.22774e-05
2.22781e-05
2.22787e-05
2.22794e-05
2.22801e-05
2.22809e-05
2.22818e-05
2.22827e-05
2.22838e-05
2.2285e-05
2.22862e-05
2.22875e-05
2.22888e-05
2.22902e-05
2.22916e-05
2.22931e-05
2.22946e-05
2.22962e-05
2.2298e-05
2.23e-05
2.23023e-05
2.23047e-05
2.23075e-05
2.23104e-05
2.23136e-05
2.2317e-05
2.23207e-05
2.23247e-05
2.23291e-05
2.23338e-05
2.23391e-05
2.23449e-05
2.23513e-05
2.23584e-05
2.23663e-05
2.22757e-05
2.22763e-05
2.22769e-05
2.22776e-05
2.22782e-05
2.22788e-05
2.22795e-05
2.22802e-05
2.2281e-05
2.22819e-05
2.22828e-05
2.22839e-05
2.2285e-05
2.22862e-05
2.22875e-05
2.22888e-05
2.22901e-05
2.22915e-05
2.2293e-05
2.22945e-05
2.22961e-05
2.22979e-05
2.22999e-05
2.23021e-05
2.23046e-05
2.23073e-05
2.23102e-05
2.23134e-05
2.23168e-05
2.23205e-05
2.23245e-05
2.23289e-05
2.23337e-05
2.23389e-05
2.23447e-05
2.23512e-05
2.23583e-05
2.23662e-05
2.21153e-05
2.2116e-05
2.21166e-05
2.21172e-05
2.21179e-05
2.21185e-05
2.21192e-05
2.212e-05
2.21208e-05
2.21218e-05
2.21228e-05
2.21239e-05
2.21251e-05
2.21262e-05
2.21275e-05
2.21287e-05
2.21301e-05
2.21315e-05
2.2133e-05
2.21346e-05
2.21363e-05
2.21383e-05
2.21404e-05
2.21428e-05
2.21455e-05
2.21483e-05
2.21514e-05
2.21548e-05
2.21584e-05
2.21623e-05
2.21666e-05
2.21712e-05
2.21764e-05
2.2182e-05
2.21882e-05
2.21952e-05
2.22028e-05
2.16569e-05
2.16576e-05
2.16582e-05
2.16587e-05
2.16593e-05
2.16599e-05
2.16606e-05
2.16614e-05
2.16622e-05
2.16631e-05
2.16641e-05
2.16651e-05
2.16662e-05
2.16673e-05
2.16684e-05
2.16696e-05
2.16708e-05
2.16721e-05
2.16736e-05
2.16751e-05
2.16768e-05
2.16786e-05
2.16807e-05
2.1683e-05
2.16855e-05
2.16882e-05
2.16911e-05
2.16943e-05
2.16977e-05
2.17014e-05
2.17055e-05
2.17099e-05
2.17147e-05
2.172e-05
2.17259e-05
2.17324e-05
2.17396e-05
2.05491e-05
2.05497e-05
2.05502e-05
2.05507e-05
2.05512e-05
2.05518e-05
2.05525e-05
2.05532e-05
2.0554e-05
2.05549e-05
2.05559e-05
2.05569e-05
2.05578e-05
2.05588e-05
2.05598e-05
2.05608e-05
2.0562e-05
2.05632e-05
2.05645e-05
2.0566e-05
2.05676e-05
2.05693e-05
2.05713e-05
2.05734e-05
2.05757e-05
2.05782e-05
2.05809e-05
2.05838e-05
2.0587e-05
2.05904e-05
2.05941e-05
2.05981e-05
2.06025e-05
2.06073e-05
2.06126e-05
2.06184e-05
2.06249e-05
1.78996e-05
1.79001e-05
1.79005e-05
1.79008e-05
1.79012e-05
1.79017e-05
1.79024e-05
1.79031e-05
1.7904e-05
1.79049e-05
1.7906e-05
1.7907e-05
1.7908e-05
1.79089e-05
1.79099e-05
1.79109e-05
1.7912e-05
1.79132e-05
1.79145e-05
1.79161e-05
1.79177e-05
1.79195e-05
1.79215e-05
1.79235e-05
1.79258e-05
1.79283e-05
1.7931e-05
1.79339e-05
1.7937e-05
1.79403e-05
1.79438e-05
1.79476e-05
1.79517e-05
1.79561e-05
1.79609e-05
1.79662e-05
1.79721e-05
1.06875e-05
1.06881e-05
1.06886e-05
1.06893e-05
1.06901e-05
1.06911e-05
1.06923e-05
1.06937e-05
1.06953e-05
1.06972e-05
1.06994e-05
1.07018e-05
1.07043e-05
1.0707e-05
1.07099e-05
1.0713e-05
1.07164e-05
1.07201e-05
1.07242e-05
1.07287e-05
1.07336e-05
1.0739e-05
1.07447e-05
1.0751e-05
1.07578e-05
1.07651e-05
1.07731e-05
1.07818e-05
1.07911e-05
1.08013e-05
1.08122e-05
1.0824e-05
1.08367e-05
1.08505e-05
1.08653e-05
1.08812e-05
1.08985e-05
1.08672e-05
1.08674e-05
1.08677e-05
1.0868e-05
1.08685e-05
1.08692e-05
1.087e-05
1.08711e-05
1.08724e-05
1.08739e-05
1.08758e-05
1.08778e-05
1.08801e-05
1.08826e-05
1.08852e-05
1.08881e-05
1.08912e-05
1.08947e-05
1.08984e-05
1.09026e-05
1.0907e-05
1.09117e-05
1.09168e-05
1.09224e-05
1.09284e-05
1.09351e-05
1.09423e-05
1.09502e-05
1.09588e-05
1.0968e-05
1.09779e-05
1.09886e-05
1.1e-05
1.10123e-05
1.10257e-05
1.104e-05
1.10556e-05
1.10725e-05
1.84722e-05
1.84722e-05
1.84722e-05
1.84723e-05
1.84724e-05
1.84727e-05
1.84731e-05
1.84737e-05
1.84746e-05
1.84756e-05
1.84765e-05
1.84774e-05
1.84783e-05
1.84792e-05
1.84801e-05
1.8481e-05
1.8482e-05
1.8483e-05
1.84842e-05
1.84855e-05
1.84868e-05
1.84882e-05
1.84896e-05
1.84912e-05
1.84929e-05
1.84949e-05
1.8497e-05
1.84994e-05
1.85019e-05
1.85045e-05
1.85072e-05
1.851e-05
1.85129e-05
1.8516e-05
1.85196e-05
1.85236e-05
1.85282e-05
1.85333e-05
2.12675e-05
2.12677e-05
2.1268e-05
2.12682e-05
2.12685e-05
2.12689e-05
2.12694e-05
2.12699e-05
2.12706e-05
2.12714e-05
2.12722e-05
2.1273e-05
2.12738e-05
2.12746e-05
2.12755e-05
2.12764e-05
2.12774e-05
2.12784e-05
2.12795e-05
2.12807e-05
2.12819e-05
2.12832e-05
2.12846e-05
2.12861e-05
2.12879e-05
2.12898e-05
2.12918e-05
2.12941e-05
2.12965e-05
2.12991e-05
2.13019e-05
2.13049e-05
2.13081e-05
2.13117e-05
2.13157e-05
2.13201e-05
2.13251e-05
2.13307e-05
2.2449e-05
2.24493e-05
2.24497e-05
2.24501e-05
2.24505e-05
2.24509e-05
2.24514e-05
2.2452e-05
2.24526e-05
2.24533e-05
2.24541e-05
2.24549e-05
2.24558e-05
2.24566e-05
2.24576e-05
2.24585e-05
2.24596e-05
2.24606e-05
2.24618e-05
2.2463e-05
2.24643e-05
2.24657e-05
2.24672e-05
2.24689e-05
2.24707e-05
2.24728e-05
2.2475e-05
2.24774e-05
2.24801e-05
2.24829e-05
2.2486e-05
2.24893e-05
2.2493e-05
2.24971e-05
2.25016e-05
2.25066e-05
2.25123e-05
2.25186e-05
2.29498e-05
2.29502e-05
2.29507e-05
2.29511e-05
2.29516e-05
2.2952e-05
2.29526e-05
2.29532e-05
2.29538e-05
2.29545e-05
2.29552e-05
2.29561e-05
2.2957e-05
2.29579e-05
2.29589e-05
2.29599e-05
2.2961e-05
2.29621e-05
2.29633e-05
2.29645e-05
2.29658e-05
2.29673e-05
2.29689e-05
2.29707e-05
2.29726e-05
2.29748e-05
2.29771e-05
2.29797e-05
2.29825e-05
2.29855e-05
2.29888e-05
2.29924e-05
2.29963e-05
2.30007e-05
2.30056e-05
2.30111e-05
2.30171e-05
2.30239e-05
2.31307e-05
2.31311e-05
2.31316e-05
2.31321e-05
2.31326e-05
2.31331e-05