/*--------------------------------*- C++ -*----------------------------------*\
| =========                 |                                                 |
| \\      /  F ield         | OpenFOAM: The Open Source CFD Toolbox           |
|  \\    /   O peration     | Version:  2.3.1                                 |
|   \\  /    A nd           | Web:      www.OpenFOAM.org                      |
|    \\/     M anipulation  |                                                 |
\*---------------------------------------------------------------------------*/
FoamFile
{
    version     2.0;
    format      ascii;
    class       volScalarField;
    location    "10";
    object      k_0;
}
// * * * * * * * * * * * * * * * * * * * * * * * * * * * * * * * * * * * * * //

dimensions      [0 2 -2 0 0 0 0];

internalField   nonuniform List<scalar> 
37692
(
5.33844e-06
5.33875e-06
5.3392e-06
5.3398e-06
5.34055e-06
5.34146e-06
5.34255e-06
5.34385e-06
5.34542e-06
5.34727e-06
5.3494e-06
5.35181e-06
5.3545e-06
5.35749e-06
5.36079e-06
5.3644e-06
5.36835e-06
5.37267e-06
5.37741e-06
5.38259e-06
5.38821e-06
5.39429e-06
5.40086e-06
5.40798e-06
5.41573e-06
5.42415e-06
5.4333e-06
5.44323e-06
5.45399e-06
5.4656e-06
5.47809e-06
5.49149e-06
5.50587e-06
5.52134e-06
5.53799e-06
5.55596e-06
5.57536e-06
5.59631e-06
7.09355e-06
7.0942e-06
7.09501e-06
7.09599e-06
7.09712e-06
7.09842e-06
7.09997e-06
7.10184e-06
7.10409e-06
7.1067e-06
7.10965e-06
7.11292e-06
7.11654e-06
7.12054e-06
7.12489e-06
7.12962e-06
7.13475e-06
7.14037e-06
7.14652e-06
7.15322e-06
7.16045e-06
7.1682e-06
7.17657e-06
7.18565e-06
7.19552e-06
7.20625e-06
7.21789e-06
7.23051e-06
7.24416e-06
7.25887e-06
7.27465e-06
7.29157e-06
7.30973e-06
7.32931e-06
7.35045e-06
7.37328e-06
7.39794e-06
7.42459e-06
7.82764e-06
7.82841e-06
7.82935e-06
7.83047e-06
7.83175e-06
7.8332e-06
7.83489e-06
7.83693e-06
7.83934e-06
7.84211e-06
7.84521e-06
7.84865e-06
7.85246e-06
7.85667e-06
7.86124e-06
7.86616e-06
7.8715e-06
7.87733e-06
7.88369e-06
7.89057e-06
7.89792e-06
7.90578e-06
7.91428e-06
7.92354e-06
7.93364e-06
7.94463e-06
7.95654e-06
7.96943e-06
7.98337e-06
7.99835e-06
8.01438e-06
8.03154e-06
8.04999e-06
8.06991e-06
8.09145e-06
8.11475e-06
8.13992e-06
8.16712e-06
8.10155e-06
8.10239e-06
8.10342e-06
8.10461e-06
8.10598e-06
8.10752e-06
8.10931e-06
8.1114e-06
8.11384e-06
8.11662e-06
8.11974e-06
8.12323e-06
8.12714e-06
8.13145e-06
8.13614e-06
8.14119e-06
8.14664e-06
8.15256e-06
8.15897e-06
8.16583e-06
8.17312e-06
8.18092e-06
8.1894e-06
8.19871e-06
8.20891e-06
8.22002e-06
8.23206e-06
8.2451e-06
8.25915e-06
8.27421e-06
8.2903e-06
8.30751e-06
8.32603e-06
8.34606e-06
8.36773e-06
8.39117e-06
8.41651e-06
8.4439e-06
8.18968e-06
8.19057e-06
8.19163e-06
8.19286e-06
8.19429e-06
8.19591e-06
8.19774e-06
8.19984e-06
8.20224e-06
8.20496e-06
8.20805e-06
8.21154e-06
8.21548e-06
8.21985e-06
8.22459e-06
8.22971e-06
8.23522e-06
8.24116e-06
8.24754e-06
8.25431e-06
8.26148e-06
8.26919e-06
8.27763e-06
8.28694e-06
8.29717e-06
8.30833e-06
8.32043e-06
8.33352e-06
8.3476e-06
8.36266e-06
8.37874e-06
8.39596e-06
8.41451e-06
8.43456e-06
8.45624e-06
8.47969e-06
8.50503e-06
8.53244e-06
8.21311e-06
8.21406e-06
8.21515e-06
8.21643e-06
8.21791e-06
8.21957e-06
8.22143e-06
8.22351e-06
8.22585e-06
8.2285e-06
8.23154e-06
8.23504e-06
8.23899e-06
8.24338e-06
8.24814e-06
8.25328e-06
8.25879e-06
8.26472e-06
8.27104e-06
8.27772e-06
8.28481e-06
8.29246e-06
8.30087e-06
8.31017e-06
8.3204e-06
8.33157e-06
8.34368e-06
8.35675e-06
8.37079e-06
8.38582e-06
8.4019e-06
8.41916e-06
8.43776e-06
8.45782e-06
8.47948e-06
8.50288e-06
8.52818e-06
8.55556e-06
8.21303e-06
8.21407e-06
8.21524e-06
8.21658e-06
8.2181e-06
8.21979e-06
8.22166e-06
8.22373e-06
8.22602e-06
8.22863e-06
8.23166e-06
8.23518e-06
8.23915e-06
8.24351e-06
8.24824e-06
8.25333e-06
8.2588e-06
8.26468e-06
8.27096e-06
8.2776e-06
8.28468e-06
8.29234e-06
8.30075e-06
8.31003e-06
8.32023e-06
8.33137e-06
8.34345e-06
8.35647e-06
8.37045e-06
8.38546e-06
8.40157e-06
8.41889e-06
8.43754e-06
8.45762e-06
8.47925e-06
8.50261e-06
8.52789e-06
8.55527e-06
8.19061e-06
8.19188e-06
8.19327e-06
8.1948e-06
8.1965e-06
8.19839e-06
8.20045e-06
8.20274e-06
8.20536e-06
8.20843e-06
8.21197e-06
8.21594e-06
8.22026e-06
8.22489e-06
8.22988e-06
8.23526e-06
8.24109e-06
8.24735e-06
8.25401e-06
8.26112e-06
8.26881e-06
8.27723e-06
8.2865e-06
8.29666e-06
8.30775e-06
8.31978e-06
8.33274e-06
8.34668e-06
8.36168e-06
8.37782e-06
8.3952e-06
8.4139e-06
8.43399e-06
8.45562e-06
8.47898e-06
8.50424e-06
8.53162e-06
8.10241e-06
8.10374e-06
8.10515e-06
8.10666e-06
8.10835e-06
8.11023e-06
8.11231e-06
8.11463e-06
8.1173e-06
8.12041e-06
8.12396e-06
8.12789e-06
8.13212e-06
8.13663e-06
8.14149e-06
8.14677e-06
8.15252e-06
8.15875e-06
8.16542e-06
8.17257e-06
8.18031e-06
8.18875e-06
8.19799e-06
8.2081e-06
8.21911e-06
8.23107e-06
8.24397e-06
8.25787e-06
8.27284e-06
8.28897e-06
8.30636e-06
8.32506e-06
8.34517e-06
8.3668e-06
8.39015e-06
8.41539e-06
8.44272e-06
7.8283e-06
7.8296e-06
7.83095e-06
7.8324e-06
7.83402e-06
7.83586e-06
7.83794e-06
7.84029e-06
7.84298e-06
7.84607e-06
7.84957e-06
7.8534e-06
7.85751e-06
7.86191e-06
7.86665e-06
7.87181e-06
7.87744e-06
7.88358e-06
7.89021e-06
7.89737e-06
7.90514e-06
7.91358e-06
7.92278e-06
7.93278e-06
7.94367e-06
7.95549e-06
7.96828e-06
7.98208e-06
7.99695e-06
8.01298e-06
8.03027e-06
8.04889e-06
8.06893e-06
8.09049e-06
8.11372e-06
8.13881e-06
8.16593e-06
7.09381e-06
7.09496e-06
7.09617e-06
7.09748e-06
7.09897e-06
7.10068e-06
7.10266e-06
7.10492e-06
7.10751e-06
7.11046e-06
7.11379e-06
7.11745e-06
7.12142e-06
7.1257e-06
7.13032e-06
7.13533e-06
7.1408e-06
7.14677e-06
7.15326e-06
7.16031e-06
7.16798e-06
7.1763e-06
7.18533e-06
7.19512e-06
7.20576e-06
7.21731e-06
7.22983e-06
7.24334e-06
7.25792e-06
7.27365e-06
7.29063e-06
7.30892e-06
7.32863e-06
7.34984e-06
7.37267e-06
7.39729e-06
7.42386e-06
5.33825e-06
5.33891e-06
5.33968e-06
5.34057e-06
5.34161e-06
5.34282e-06
5.34422e-06
5.34584e-06
5.34771e-06
5.34987e-06
5.35233e-06
5.35509e-06
5.35814e-06
5.36147e-06
5.36509e-06
5.36902e-06
5.37331e-06
5.37797e-06
5.38306e-06
5.38859e-06
5.39461e-06
5.40115e-06
5.40823e-06
5.41591e-06
5.42425e-06
5.4333e-06
5.44313e-06
5.45376e-06
5.46525e-06
5.47765e-06
5.49103e-06
5.50546e-06
5.52101e-06
5.53774e-06
5.55576e-06
5.57517e-06
5.5961e-06
8.6227e-06
8.62297e-06
8.62337e-06
8.6239e-06
8.62455e-06
8.62533e-06
8.62628e-06
8.62745e-06
8.62887e-06
8.63055e-06
8.63246e-06
8.63461e-06
8.637e-06
8.63964e-06
8.64252e-06
8.64565e-06
8.64906e-06
8.65279e-06
8.65688e-06
8.66135e-06
8.66617e-06
8.67136e-06
8.67697e-06
8.68306e-06
8.6897e-06
8.69692e-06
8.70477e-06
8.71328e-06
8.72249e-06
8.73243e-06
8.74309e-06
8.75451e-06
8.76679e-06
8.78001e-06
8.79428e-06
8.8097e-06
8.82638e-06
8.8444e-06
1.25786e-05
1.25792e-05
1.25799e-05
1.25805e-05
1.25812e-05
1.2582e-05
1.25829e-05
1.25841e-05
1.25855e-05
1.25871e-05
1.25888e-05
1.25906e-05
1.25925e-05
1.25944e-05
1.25965e-05
1.25986e-05
1.26008e-05
1.26033e-05
1.2606e-05
1.26089e-05
1.26119e-05
1.26151e-05
1.26185e-05
1.26221e-05
1.26262e-05
1.26306e-05
1.26353e-05
1.26405e-05
1.2646e-05
1.26518e-05
1.2658e-05
1.26645e-05
1.26715e-05
1.26791e-05
1.26875e-05
1.26966e-05
1.27065e-05
1.27172e-05
1.43572e-05
1.4358e-05
1.43588e-05
1.43597e-05
1.43606e-05
1.43615e-05
1.43626e-05
1.4364e-05
1.43656e-05
1.43674e-05
1.43693e-05
1.43713e-05
1.43734e-05
1.43757e-05
1.4378e-05
1.43804e-05
1.4383e-05
1.43857e-05
1.43887e-05
1.43919e-05
1.43951e-05
1.43986e-05
1.44023e-05
1.44064e-05
1.44109e-05
1.44158e-05
1.4421e-05
1.44267e-05
1.44328e-05
1.44392e-05
1.44459e-05
1.44531e-05
1.44608e-05
1.44693e-05
1.44785e-05
1.44887e-05
1.44997e-05
1.45118e-05
1.5058e-05
1.50588e-05
1.50598e-05
1.50607e-05
1.50618e-05
1.50629e-05
1.50641e-05
1.50655e-05
1.50671e-05
1.5069e-05
1.50709e-05
1.50731e-05
1.50754e-05
1.50779e-05
1.50804e-05
1.5083e-05
1.50858e-05
1.50887e-05
1.50918e-05
1.5095e-05
1.50983e-05
1.51018e-05
1.51056e-05
1.511e-05
1.51148e-05
1.51201e-05
1.51257e-05
1.51318e-05
1.51382e-05
1.5145e-05
1.51521e-05
1.51596e-05
1.51678e-05
1.51768e-05
1.51866e-05
1.51974e-05
1.52091e-05
1.52219e-05
1.53059e-05
1.53068e-05
1.53078e-05
1.53088e-05
1.53099e-05
1.53111e-05
1.53124e-05
1.53138e-05
1.53154e-05
1.53171e-05
1.53191e-05
1.53213e-05
1.53237e-05
1.53262e-05
1.53289e-05
1.53316e-05
1.53345e-05
1.53375e-05
1.53405e-05
1.53437e-05
1.53469e-05
1.53503e-05
1.53542e-05
1.53587e-05
1.53636e-05
1.53691e-05
1.53749e-05
1.53811e-05
1.53877e-05
1.53946e-05
1.54019e-05
1.54096e-05
1.5418e-05
1.54272e-05
1.54373e-05
1.54483e-05
1.54603e-05
1.54734e-05
1.53788e-05
1.53798e-05
1.53808e-05
1.53819e-05
1.5383e-05
1.53843e-05
1.53856e-05
1.53869e-05
1.53884e-05
1.53901e-05
1.5392e-05
1.53942e-05
1.53967e-05
1.53993e-05
1.54019e-05
1.54047e-05
1.54076e-05
1.54105e-05
1.54135e-05
1.54165e-05
1.54196e-05
1.54231e-05
1.5427e-05
1.54315e-05
1.54365e-05
1.5442e-05
1.54478e-05
1.54541e-05
1.54607e-05
1.54676e-05
1.5475e-05
1.54828e-05
1.54913e-05
1.55006e-05
1.55107e-05
1.55217e-05
1.55338e-05
1.5547e-05
1.53788e-05
1.538e-05
1.53811e-05
1.53822e-05
1.53834e-05
1.53846e-05
1.53859e-05
1.53872e-05
1.53886e-05
1.53903e-05
1.53922e-05
1.53944e-05
1.53968e-05
1.53993e-05
1.5402e-05
1.54047e-05
1.54074e-05
1.54103e-05
1.54132e-05
1.54162e-05
1.54193e-05
1.54228e-05
1.54267e-05
1.54311e-05
1.54361e-05
1.54416e-05
1.54474e-05
1.54536e-05
1.54602e-05
1.54671e-05
1.54745e-05
1.54824e-05
1.5491e-05
1.55003e-05
1.55103e-05
1.55213e-05
1.55333e-05
1.55465e-05
1.53073e-05
1.53085e-05
1.53096e-05
1.53108e-05
1.5312e-05
1.53133e-05
1.53146e-05
1.5316e-05
1.53176e-05
1.53195e-05
1.53217e-05
1.53241e-05
1.53265e-05
1.5329e-05
1.53315e-05
1.53342e-05
1.5337e-05
1.53399e-05
1.53429e-05
1.5346e-05
1.53494e-05
1.53533e-05
1.53577e-05
1.53626e-05
1.5368e-05
1.53737e-05
1.53798e-05
1.53863e-05
1.53932e-05
1.54006e-05
1.54085e-05
1.54171e-05
1.54263e-05
1.54363e-05
1.54471e-05
1.5459e-05
1.54721e-05
1.50595e-05
1.50608e-05
1.50619e-05
1.5063e-05
1.50642e-05
1.50654e-05
1.50667e-05
1.50681e-05
1.50697e-05
1.50717e-05
1.50738e-05
1.50761e-05
1.50783e-05
1.50806e-05
1.50829e-05
1.50854e-05
1.5088e-05
1.50909e-05
1.50938e-05
1.5097e-05
1.51004e-05
1.51042e-05
1.51085e-05
1.51132e-05
1.51184e-05
1.51239e-05
1.51298e-05
1.51362e-05
1.51429e-05
1.51502e-05
1.5158e-05
1.51664e-05
1.51754e-05
1.51852e-05
1.51958e-05
1.52074e-05
1.52201e-05
1.43587e-05
1.43599e-05
1.43609e-05
1.43619e-05
1.43629e-05
1.43641e-05
1.43653e-05
1.43667e-05
1.43683e-05
1.43702e-05
1.43722e-05
1.43742e-05
1.43763e-05
1.43783e-05
1.43804e-05
1.43826e-05
1.43851e-05
1.43877e-05
1.43906e-05
1.43936e-05
1.4397e-05
1.44006e-05
1.44047e-05
1.44091e-05
1.44139e-05
1.44191e-05
1.44247e-05
1.44306e-05
1.4437e-05
1.44439e-05
1.44513e-05
1.44593e-05
1.44678e-05
1.44771e-05
1.44871e-05
1.4498e-05
1.45099e-05
1.25797e-05
1.25808e-05
1.25816e-05
1.25824e-05
1.25832e-05
1.25842e-05
1.25853e-05
1.25866e-05
1.2588e-05
1.25897e-05
1.25914e-05
1.25933e-05
1.25951e-05
1.25968e-05
1.25987e-05
1.26007e-05
1.26028e-05
1.26052e-05
1.26078e-05
1.26107e-05
1.26138e-05
1.26172e-05
1.26209e-05
1.26248e-05
1.26292e-05
1.26339e-05
1.26389e-05
1.26444e-05
1.26502e-05
1.26564e-05
1.26631e-05
1.26704e-05
1.26782e-05
1.26865e-05
1.26955e-05
1.27053e-05
1.27159e-05
8.62268e-06
8.62327e-06
8.62393e-06
8.6247e-06
8.62559e-06
8.62664e-06
8.62788e-06
8.62933e-06
8.63101e-06
8.63295e-06
8.63515e-06
8.63758e-06
8.64024e-06
8.64311e-06
8.6462e-06
8.64956e-06
8.65322e-06
8.65721e-06
8.66156e-06
8.6663e-06
8.67147e-06
8.67708e-06
8.68315e-06
8.68975e-06
8.69691e-06
8.70469e-06
8.71313e-06
8.72224e-06
8.73207e-06
8.74268e-06
8.75413e-06
8.76648e-06
8.77978e-06
8.7941e-06
8.80953e-06
8.82618e-06
8.84416e-06
9.78605e-06
9.78633e-06
9.78673e-06
9.78725e-06
9.78789e-06
9.78867e-06
9.78962e-06
9.79079e-06
9.79223e-06
9.79395e-06
9.79592e-06
9.79812e-06
9.80056e-06
9.80324e-06
9.80616e-06
9.80931e-06
9.81274e-06
9.81649e-06
9.8206e-06
9.82507e-06
9.82989e-06
9.83506e-06
9.84065e-06
9.84671e-06
9.85332e-06
9.86052e-06
9.86834e-06
9.87683e-06
9.88602e-06
9.89592e-06
9.90655e-06
9.91793e-06
9.93016e-06
9.94334e-06
9.9576e-06
9.97301e-06
9.98968e-06
1.00077e-05
1.53586e-05
1.53591e-05
1.53596e-05
1.53602e-05
1.53607e-05
1.53613e-05
1.53621e-05
1.5363e-05
1.53643e-05
1.53657e-05
1.53671e-05
1.53686e-05
1.53701e-05
1.53717e-05
1.53734e-05
1.53751e-05
1.53769e-05
1.53788e-05
1.53809e-05
1.53832e-05
1.53856e-05
1.5388e-05
1.53907e-05
1.53935e-05
1.53967e-05
1.54001e-05
1.54038e-05
1.54078e-05
1.54121e-05
1.54167e-05
1.54215e-05
1.54266e-05
1.5432e-05
1.54379e-05
1.54444e-05
1.54515e-05
1.54594e-05
1.54679e-05
1.75628e-05
1.75635e-05
1.75642e-05
1.75649e-05
1.75656e-05
1.75664e-05
1.75673e-05
1.75683e-05
1.75696e-05
1.75711e-05
1.75726e-05
1.75742e-05
1.75759e-05
1.75776e-05
1.75795e-05
1.75813e-05
1.75833e-05
1.75854e-05
1.75877e-05
1.759e-05
1.75925e-05
1.75951e-05
1.75979e-05
1.7601e-05
1.76044e-05
1.76081e-05
1.76121e-05
1.76164e-05
1.7621e-05
1.76259e-05
1.7631e-05
1.76365e-05
1.76424e-05
1.76488e-05
1.7656e-05
1.76638e-05
1.76724e-05
1.76817e-05
1.84578e-05
1.84585e-05
1.84593e-05
1.84601e-05
1.8461e-05
1.84618e-05
1.84628e-05
1.8464e-05
1.84653e-05
1.84667e-05
1.84683e-05
1.847e-05
1.84718e-05
1.84737e-05
1.84757e-05
1.84777e-05
1.84798e-05
1.84821e-05
1.84845e-05
1.84869e-05
1.84894e-05
1.84921e-05
1.84951e-05
1.84984e-05
1.8502e-05
1.8506e-05
1.85104e-05
1.8515e-05
1.85199e-05
1.85251e-05
1.85306e-05
1.85365e-05
1.85429e-05
1.85499e-05
1.85576e-05
1.8566e-05
1.85753e-05
1.85854e-05
1.87984e-05
1.87992e-05
1.88001e-05
1.88009e-05
1.88019e-05
1.88028e-05
1.88039e-05
1.8805e-05
1.88063e-05
1.88077e-05
1.88093e-05
1.8811e-05
1.88129e-05
1.88149e-05
1.8817e-05
1.88191e-05
1.88213e-05
1.88236e-05
1.8826e-05
1.88284e-05
1.88309e-05
1.88336e-05
1.88366e-05
1.884e-05
1.88438e-05
1.8848e-05
1.88525e-05
1.88574e-05
1.88625e-05
1.88679e-05
1.88735e-05
1.88796e-05
1.88862e-05
1.88935e-05
1.89015e-05
1.89103e-05
1.89199e-05
1.89304e-05
1.89071e-05
1.8908e-05
1.89089e-05
1.89098e-05
1.89108e-05
1.89118e-05
1.89128e-05
1.8914e-05
1.89152e-05
1.89165e-05
1.89181e-05
1.89198e-05
1.89217e-05
1.89238e-05
1.89259e-05
1.8928e-05
1.89302e-05
1.89325e-05
1.89348e-05
1.89372e-05
1.89396e-05
1.89423e-05
1.89454e-05
1.89488e-05
1.89527e-05
1.8957e-05
1.89615e-05
1.89664e-05
1.89716e-05
1.8977e-05
1.89828e-05
1.8989e-05
1.89957e-05
1.90031e-05
1.90112e-05
1.90201e-05
1.90298e-05
1.90405e-05
1.89071e-05
1.89081e-05
1.89091e-05
1.891e-05
1.8911e-05
1.8912e-05
1.89131e-05
1.89142e-05
1.89154e-05
1.89167e-05
1.89182e-05
1.89199e-05
1.89219e-05
1.89238e-05
1.89259e-05
1.8928e-05
1.89301e-05
1.89324e-05
1.89346e-05
1.8937e-05
1.89394e-05
1.89421e-05
1.89451e-05
1.89486e-05
1.89524e-05
1.89567e-05
1.89612e-05
1.8966e-05
1.89712e-05
1.89766e-05
1.89824e-05
1.89887e-05
1.89955e-05
1.90029e-05
1.90109e-05
1.90197e-05
1.90294e-05
1.90401e-05
1.87996e-05
1.88006e-05
1.88016e-05
1.88026e-05
1.88036e-05
1.88046e-05
1.88057e-05
1.88068e-05
1.88081e-05
1.88097e-05
1.88114e-05
1.88132e-05
1.88151e-05
1.8817e-05
1.8819e-05
1.88211e-05
1.88232e-05
1.88254e-05
1.88278e-05
1.88302e-05
1.88329e-05
1.88359e-05
1.88393e-05
1.8843e-05
1.88471e-05
1.88516e-05
1.88563e-05
1.88614e-05
1.88667e-05
1.88725e-05
1.88788e-05
1.88855e-05
1.88928e-05
1.89007e-05
1.89094e-05
1.8919e-05
1.89295e-05
1.8459e-05
1.84601e-05
1.8461e-05
1.8462e-05
1.84629e-05
1.84639e-05
1.84649e-05
1.84661e-05
1.84674e-05
1.84689e-05
1.84706e-05
1.84723e-05
1.84741e-05
1.84758e-05
1.84776e-05
1.84795e-05
1.84815e-05
1.84837e-05
1.8486e-05
1.84884e-05
1.8491e-05
1.84939e-05
1.84972e-05
1.85008e-05
1.85047e-05
1.85089e-05
1.85135e-05
1.85184e-05
1.85236e-05
1.85292e-05
1.85352e-05
1.85417e-05
1.85488e-05
1.85564e-05
1.85648e-05
1.8574e-05
1.85841e-05
1.7564e-05
1.7565e-05
1.75659e-05
1.75667e-05
1.75676e-05
1.75685e-05
1.75695e-05
1.75706e-05
1.75719e-05
1.75734e-05
1.75749e-05
1.75765e-05
1.75781e-05
1.75797e-05
1.75813e-05
1.7583e-05
1.75848e-05
1.75868e-05
1.75889e-05
1.75912e-05
1.75938e-05
1.75965e-05
1.75996e-05
1.76029e-05
1.76066e-05
1.76105e-05
1.76147e-05
1.76193e-05
1.76241e-05
1.76294e-05
1.7635e-05
1.76411e-05
1.76477e-05
1.76548e-05
1.76625e-05
1.7671e-05
1.76803e-05
1.53596e-05
1.53605e-05
1.53612e-05
1.53618e-05
1.53625e-05
1.53633e-05
1.53642e-05
1.53653e-05
1.53665e-05
1.53679e-05
1.53693e-05
1.53708e-05
1.53723e-05
1.53737e-05
1.53751e-05
1.53767e-05
1.53783e-05
1.53802e-05
1.53822e-05
1.53844e-05
1.53869e-05
1.53895e-05
1.53924e-05
1.53955e-05
1.53989e-05
1.54025e-05
1.54065e-05
1.54107e-05
1.54153e-05
1.54201e-05
1.54254e-05
1.5431e-05
1.54371e-05
1.54436e-05
1.54506e-05
1.54583e-05
1.54667e-05
9.78601e-06
9.78661e-06
9.78728e-06
9.78805e-06
9.78894e-06
9.79e-06
9.79126e-06
9.79275e-06
9.79447e-06
9.79647e-06
9.79872e-06
9.80119e-06
9.80387e-06
9.80675e-06
9.80983e-06
9.81318e-06
9.81682e-06
9.8208e-06
9.82514e-06
9.82988e-06
9.83505e-06
9.84066e-06
9.84674e-06
9.85333e-06
9.8605e-06
9.86827e-06
9.8767e-06
9.8858e-06
9.8956e-06
9.90618e-06
9.9176e-06
9.92991e-06
9.94318e-06
9.95746e-06
9.97286e-06
9.98949e-06
1.00075e-05
1.0369e-05
1.03693e-05
1.03697e-05
1.03701e-05
1.03708e-05
1.03715e-05
1.03724e-05
1.03736e-05
1.03749e-05
1.03766e-05
1.03786e-05
1.03807e-05
1.03832e-05
1.03858e-05
1.03887e-05
1.03918e-05
1.03951e-05
1.03988e-05
1.04028e-05
1.04072e-05
1.04119e-05
1.0417e-05
1.04224e-05
1.04283e-05
1.04348e-05
1.04418e-05
1.04495e-05
1.04578e-05
1.04668e-05
1.04765e-05
1.04869e-05
1.0498e-05
1.051e-05
1.05229e-05
1.05369e-05
1.0552e-05
1.05684e-05
1.05862e-05
1.69487e-05
1.6949e-05
1.69494e-05
1.69497e-05
1.69501e-05
1.69506e-05
1.69512e-05
1.6952e-05
1.69531e-05
1.69544e-05
1.69556e-05
1.69569e-05
1.69582e-05
1.69595e-05
1.69608e-05
1.69622e-05
1.69637e-05
1.69653e-05
1.69671e-05
1.69689e-05
1.69709e-05
1.69729e-05
1.6975e-05
1.69774e-05
1.698e-05
1.69828e-05
1.69859e-05
1.69892e-05
1.69928e-05
1.69966e-05
1.70005e-05
1.70047e-05
1.70091e-05
1.7014e-05
1.70194e-05
1.70253e-05
1.70318e-05
1.7039e-05
1.941e-05
1.94105e-05
1.9411e-05
1.94116e-05
1.94121e-05
1.94127e-05
1.94134e-05
1.94143e-05
1.94154e-05
1.94165e-05
1.94177e-05
1.9419e-05
1.94203e-05
1.94217e-05
1.94231e-05
1.94246e-05
1.94261e-05
1.94278e-05
1.94296e-05
1.94314e-05
1.94334e-05
1.94354e-05
1.94376e-05
1.94401e-05
1.94427e-05
1.94457e-05
1.94488e-05
1.94523e-05
1.94559e-05
1.94598e-05
1.94639e-05
1.94683e-05
1.94731e-05
1.94783e-05
1.94841e-05
1.94905e-05
1.94975e-05
1.95053e-05
2.04266e-05
2.04272e-05
2.04278e-05
2.04285e-05
2.04291e-05
2.04299e-05
2.04306e-05
2.04316e-05
2.04326e-05
2.04337e-05
2.0435e-05
2.04363e-05
2.04377e-05
2.04392e-05
2.04407e-05
2.04423e-05
2.04439e-05
2.04457e-05
2.04475e-05
2.04495e-05
2.04515e-05
2.04536e-05
2.04559e-05
2.04585e-05
2.04614e-05
2.04646e-05
2.0468e-05
2.04717e-05
2.04756e-05
2.04798e-05
2.04842e-05
2.0489e-05
2.04942e-05
2.04999e-05
2.05063e-05
2.05132e-05
2.05209e-05
2.05294e-05
2.08333e-05
2.08339e-05
2.08346e-05
2.08353e-05
2.08361e-05
2.08368e-05
2.08377e-05
2.08386e-05
2.08396e-05
2.08407e-05
2.0842e-05
2.08433e-05
2.08448e-05
2.08463e-05
2.0848e-05
2.08496e-05
2.08513e-05
2.08531e-05
2.0855e-05
2.08569e-05
2.08589e-05
2.08611e-05
2.08635e-05
2.08662e-05
2.08693e-05
2.08726e-05
2.08762e-05
2.088e-05
2.08841e-05
2.08885e-05
2.08931e-05
2.08981e-05
2.09036e-05
2.09096e-05
2.09163e-05
2.09236e-05
2.09317e-05
2.09406e-05
2.09706e-05
2.09713e-05
2.0972e-05
2.09728e-05
2.09736e-05
2.09744e-05
2.09752e-05
2.09761e-05
2.09771e-05
2.09782e-05
2.09794e-05
2.09808e-05
2.09823e-05
2.09839e-05
2.09855e-05
2.09872e-05
2.09889e-05
2.09907e-05
2.09926e-05
2.09945e-05
2.09965e-05
2.09986e-05
2.10011e-05
2.10038e-05
2.10069e-05
2.10103e-05
2.10139e-05
2.10179e-05
2.1022e-05
2.10265e-05
2.10312e-05
2.10364e-05
2.1042e-05
2.10481e-05
2.10549e-05
2.10623e-05
2.10706e-05
2.10796e-05
2.09706e-05
2.09714e-05
2.09722e-05
2.0973e-05
2.09738e-05
2.09746e-05
2.09754e-05
2.09763e-05
2.09773e-05
2.09783e-05
2.09795e-05
2.09809e-05
2.09824e-05
2.09839e-05
2.09855e-05
2.09871e-05
2.09888e-05
2.09906e-05
2.09924e-05
2.09943e-05
2.09963e-05
2.09984e-05
2.10009e-05
2.10036e-05
2.10067e-05
2.10101e-05
2.10137e-05
2.10176e-05
2.10217e-05
2.10262e-05
2.1031e-05
2.10361e-05
2.10418e-05
2.10479e-05
2.10547e-05
2.10621e-05
2.10703e-05
2.10794e-05
2.08342e-05
2.0835e-05
2.08358e-05
2.08366e-05
2.08374e-05
2.08382e-05
2.08391e-05
2.084e-05
2.08411e-05
2.08423e-05
2.08436e-05
2.0845e-05
2.08465e-05
2.0848e-05
2.08495e-05
2.08512e-05
2.08528e-05
2.08546e-05
2.08565e-05
2.08584e-05
2.08606e-05
2.0863e-05
2.08657e-05
2.08686e-05
2.08719e-05
2.08755e-05
2.08793e-05
2.08833e-05
2.08877e-05
2.08924e-05
2.08975e-05
2.0903e-05
2.09091e-05
2.09157e-05
2.0923e-05
2.0931e-05
2.09399e-05
2.04276e-05
2.04284e-05
2.04292e-05
2.04299e-05
2.04306e-05
2.04314e-05
2.04323e-05
2.04332e-05
2.04342e-05
2.04354e-05
2.04367e-05
2.04381e-05
2.04394e-05
2.04408e-05
2.04422e-05
2.04437e-05
2.04453e-05
2.0447e-05
2.04487e-05
2.04507e-05
2.04527e-05
2.04551e-05
2.04576e-05
2.04605e-05
2.04636e-05
2.04669e-05
2.04706e-05
2.04744e-05
2.04786e-05
2.04831e-05
2.0488e-05
2.04934e-05
2.04991e-05
2.05054e-05
2.05123e-05
2.052e-05
2.05284e-05
1.94109e-05
1.94117e-05
1.94124e-05
1.9413e-05
1.94137e-05
1.94144e-05
1.94153e-05
1.94162e-05
1.94172e-05
1.94183e-05
1.94196e-05
1.94208e-05
1.94221e-05
1.94233e-05
1.94246e-05
1.94259e-05
1.94273e-05
1.94289e-05
1.94306e-05
1.94324e-05
1.94344e-05
1.94366e-05
1.9439e-05
1.94416e-05
1.94445e-05
1.94476e-05
1.9451e-05
1.94546e-05
1.94585e-05
1.94627e-05
1.94672e-05
1.94721e-05
1.94774e-05
1.94832e-05
1.94895e-05
1.94965e-05
1.95041e-05
1.69495e-05
1.69502e-05
1.69507e-05
1.69512e-05
1.69517e-05
1.69524e-05
1.69532e-05
1.69541e-05
1.69551e-05
1.69562e-05
1.69575e-05
1.69587e-05
1.69599e-05
1.69611e-05
1.69623e-05
1.69635e-05
1.69649e-05
1.69664e-05
1.6968e-05
1.69698e-05
1.69719e-05
1.6974e-05
1.69764e-05
1.69789e-05
1.69817e-05
1.69847e-05
1.6988e-05
1.69915e-05
1.69953e-05
1.69993e-05
1.70036e-05
1.70082e-05
1.70133e-05
1.70186e-05
1.70245e-05
1.70309e-05
1.70379e-05
1.03689e-05
1.03695e-05
1.03702e-05
1.03709e-05
1.03718e-05
1.03728e-05
1.0374e-05
1.03755e-05
1.03772e-05
1.03791e-05
1.03814e-05
1.03838e-05
1.03864e-05
1.03892e-05
1.03922e-05
1.03955e-05
1.0399e-05
1.04029e-05
1.04071e-05
1.04118e-05
1.04168e-05
1.04223e-05
1.04283e-05
1.04347e-05
1.04417e-05
1.04493e-05
1.04576e-05
1.04665e-05
1.04761e-05
1.04864e-05
1.04976e-05
1.05097e-05
1.05227e-05
1.05367e-05
1.05518e-05
1.05681e-05
1.05858e-05
1.06885e-05
1.06887e-05
1.0689e-05
1.06895e-05
1.069e-05
1.06907e-05
1.06916e-05
1.06927e-05
1.0694e-05
1.06956e-05
1.06975e-05
1.06996e-05
1.0702e-05
1.07046e-05
1.07073e-05
1.07103e-05
1.07135e-05
1.07171e-05
1.0721e-05
1.07253e-05
1.07298e-05
1.07347e-05
1.074e-05
1.07457e-05
1.0752e-05
1.07588e-05
1.07662e-05
1.07743e-05
1.07831e-05
1.07925e-05
1.08026e-05
1.08135e-05
1.08253e-05
1.08379e-05
1.08516e-05
1.08664e-05
1.08824e-05
1.08997e-05
1.79e-05
1.79002e-05
1.79004e-05
1.79006e-05
1.79008e-05
1.79012e-05
1.79017e-05
1.79024e-05
1.79033e-05
1.79044e-05
1.79055e-05
1.79066e-05
1.79077e-05
1.79088e-05
1.79099e-05
1.7911e-05
1.79122e-05
1.79135e-05
1.7915e-05
1.79165e-05
1.79181e-05
1.79198e-05
1.79215e-05
1.79235e-05
1.79256e-05
1.79279e-05
1.79305e-05
1.79333e-05
1.79363e-05
1.79394e-05
1.79427e-05
1.79461e-05
1.79497e-05
1.79536e-05
1.7958e-05
1.79628e-05
1.79683e-05
1.79743e-05
2.05495e-05
2.05498e-05
2.05502e-05
2.05506e-05
2.0551e-05
2.05515e-05
2.0552e-05
2.05527e-05
2.05536e-05
2.05545e-05
2.05555e-05
2.05565e-05
2.05576e-05
2.05586e-05
2.05598e-05
2.05609e-05
2.05621e-05
2.05634e-05
2.05648e-05
2.05663e-05
2.05679e-05
2.05695e-05
2.05713e-05
2.05732e-05
2.05753e-05
2.05777e-05
2.05802e-05
2.0583e-05
2.0586e-05
2.05891e-05
2.05925e-05
2.05961e-05
2.06e-05
2.06043e-05
2.06091e-05
2.06144e-05
2.06203e-05
2.06268e-05
2.16572e-05
2.16576e-05
2.16581e-05
2.16586e-05
2.16591e-05
2.16597e-05
2.16603e-05
2.1661e-05
2.16619e-05
2.16628e-05
2.16637e-05
2.16648e-05
2.16659e-05
2.1667e-05
2.16682e-05
2.16694e-05
2.16707e-05
2.16721e-05
2.16736e-05
2.16751e-05
2.16767e-05
2.16784e-05
2.16803e-05
2.16824e-05
2.16847e-05
2.16872e-05
2.16899e-05
2.16929e-05
2.16961e-05
2.16995e-05
2.17032e-05
2.17072e-05
2.17115e-05
2.17163e-05
2.17217e-05
2.17275e-05
2.17341e-05
2.17413e-05
2.21156e-05
2.21161e-05
2.21166e-05
2.21172e-05
2.21178e-05
2.21184e-05
2.21191e-05
2.21198e-05
2.21206e-05
2.21215e-05
2.21225e-05
2.21235e-05
2.21247e-05
2.21259e-05
2.21271e-05
2.21284e-05
2.21298e-05
2.21312e-05
2.21327e-05
2.21342e-05
2.21359e-05
2.21376e-05
2.21396e-05
2.21418e-05
2.21442e-05
2.21469e-05
2.21498e-05
2.21529e-05
2.21562e-05
2.21598e-05
2.21637e-05
2.21679e-05
2.21726e-05
2.21777e-05
2.21833e-05
2.21896e-05
2.21965e-05
2.22042e-05
2.22766e-05
2.22772e-05
2.22777e-05
2.22783e-05
2.2279e-05
2.22796e-05
2.22803e-05
2.2281e-05
2.22818e-05
2.22827e-05
2.22836e-05
2.22847e-05
2.22859e-05
2.22871e-05
2.22884e-05
2.22897e-05
2.2291e-05
2.22925e-05
2.2294e-05
2.22955e-05
2.22971e-05
2.22989e-05
2.23009e-05
2.23031e-05
2.23056e-05
2.23083e-05
2.23113e-05
2.23145e-05
2.23179e-05
2.23216e-05
2.23256e-05
2.23299e-05
2.23347e-05
2.234e-05
2.23458e-05
2.23522e-05
2.23593e-05
2.23672e-05
2.22766e-05
2.22772e-05
2.22778e-05
2.22785e-05
2.22791e-05
2.22797e-05
2.22804e-05
2.22811e-05
2.22819e-05
2.22828e-05
2.22837e-05
2.22848e-05
2.22859e-05
2.22871e-05
2.22884e-05
2.22896e-05
2.2291e-05
2.22924e-05
2.22939e-05
2.22954e-05
2.2297e-05
2.22988e-05
2.23008e-05
2.2303e-05
2.23055e-05
2.23082e-05
2.23111e-05
2.23143e-05
2.23177e-05
2.23214e-05
2.23254e-05
2.23298e-05
2.23346e-05
2.23398e-05
2.23456e-05
2.2352e-05
2.23591e-05
2.2367e-05
2.21163e-05
2.21169e-05
2.21175e-05
2.21182e-05
2.21188e-05
2.21195e-05
2.21202e-05
2.21209e-05
2.21217e-05
2.21227e-05
2.21237e-05
2.21248e-05
2.2126e-05
2.21272e-05
2.21284e-05
2.21296e-05
2.2131e-05
2.21324e-05
2.21339e-05
2.21355e-05
2.21372e-05
2.21392e-05
2.21413e-05
2.21437e-05
2.21464e-05
2.21492e-05
2.21523e-05
2.21557e-05
2.21593e-05
2.21632e-05
2.21675e-05
2.21721e-05
2.21773e-05
2.21829e-05
2.21891e-05
2.21961e-05
2.22037e-05
2.16579e-05
2.16585e-05
2.16591e-05
2.16597e-05
2.16603e-05
2.16609e-05
2.16616e-05
2.16623e-05
2.16632e-05
2.16641e-05
2.16651e-05
2.16661e-05
2.16672e-05
2.16683e-05
2.16694e-05
2.16705e-05
2.16718e-05
2.16731e-05
2.16745e-05
2.16761e-05
2.16778e-05
2.16796e-05
2.16817e-05
2.16839e-05
2.16864e-05
2.16891e-05
2.16921e-05
2.16952e-05
2.16987e-05
2.17024e-05
2.17064e-05
2.17109e-05
2.17157e-05
2.1721e-05
2.17269e-05
2.17334e-05
2.17406e-05
2.05502e-05
2.05508e-05
2.05513e-05
2.05518e-05
2.05523e-05
2.05529e-05
2.05535e-05
2.05542e-05
2.05551e-05
2.0556e-05
2.05569e-05
2.05579e-05
2.05589e-05
2.05599e-05
2.05609e-05
2.05619e-05
2.0563e-05
2.05643e-05
2.05656e-05
2.05671e-05
2.05687e-05
2.05704e-05
2.05723e-05
2.05744e-05
2.05767e-05
2.05792e-05
2.05819e-05
2.05849e-05
2.0588e-05
2.05914e-05
2.05952e-05
2.05992e-05
2.06036e-05
2.06084e-05
2.06136e-05
2.06195e-05
2.06259e-05
1.79007e-05
1.79012e-05
1.79016e-05
1.79019e-05
1.79023e-05
1.79028e-05
1.79035e-05
1.79043e-05
1.79051e-05
1.79061e-05
1.79071e-05
1.79081e-05
1.79091e-05
1.79101e-05
1.7911e-05
1.7912e-05
1.79131e-05
1.79143e-05
1.79157e-05
1.79172e-05
1.79188e-05
1.79206e-05
1.79226e-05
1.79247e-05
1.79269e-05
1.79294e-05
1.79321e-05
1.7935e-05
1.79381e-05
1.79414e-05
1.79449e-05
1.79487e-05
1.79528e-05
1.79572e-05
1.7962e-05
1.79673e-05
1.79732e-05
1.06884e-05
1.06889e-05
1.06895e-05
1.06902e-05
1.0691e-05
1.0692e-05
1.06931e-05
1.06945e-05
1.06962e-05
1.06981e-05
1.07003e-05
1.07026e-05
1.07052e-05
1.07078e-05
1.07107e-05
1.07138e-05
1.07172e-05
1.0721e-05
1.07251e-05
1.07296e-05
1.07345e-05
1.07398e-05
1.07456e-05
1.07518e-05
1.07586e-05
1.0766e-05
1.0774e-05
1.07826e-05
1.0792e-05
1.08021e-05
1.0813e-05
1.08249e-05
1.08376e-05
1.08513e-05
1.08661e-05
1.08821e-05
1.08994e-05
1.08681e-05
1.08682e-05
1.08685e-05
1.08689e-05
1.08694e-05
1.087e-05
1.08709e-05
1.08719e-05
1.08732e-05
1.08748e-05
1.08766e-05
1.08787e-05
1.08809e-05
1.08834e-05
1.08861e-05
1.08889e-05
1.08921e-05
1.08955e-05
1.08993e-05
1.09034e-05
1.09078e-05
1.09126e-05
1.09177e-05
1.09232e-05
1.09292e-05
1.09359e-05
1.09431e-05
1.0951e-05
1.09596e-05
1.09688e-05
1.09787e-05
1.09894e-05
1.10008e-05
1.10132e-05
1.10265e-05
1.10409e-05
1.10564e-05
1.10733e-05
1.84733e-05
1.84733e-05
1.84733e-05
1.84734e-05
1.84735e-05
1.84738e-05
1.84742e-05
1.84748e-05
1.84756e-05
1.84766e-05
1.84776e-05
1.84785e-05
1.84794e-05
1.84802e-05
1.84811e-05
1.84821e-05
1.8483e-05
1.84841e-05
1.84853e-05
1.84866e-05
1.84879e-05
1.84892e-05
1.84907e-05
1.84922e-05
1.8494e-05
1.84959e-05
1.84981e-05
1.85005e-05
1.8503e-05
1.85056e-05
1.85083e-05
1.8511e-05
1.85139e-05
1.85171e-05
1.85207e-05
1.85247e-05
1.85292e-05
1.85343e-05
2.12685e-05
2.12687e-05
2.1269e-05
2.12693e-05
2.12696e-05
2.12699e-05
2.12704e-05
2.12709e-05
2.12716e-05
2.12724e-05
2.12732e-05
2.1274e-05
2.12748e-05
2.12757e-05
2.12765e-05
2.12774e-05
2.12784e-05
2.12794e-05
2.12805e-05
2.12817e-05
2.12829e-05
2.12842e-05
2.12856e-05
2.12872e-05
2.12889e-05
2.12908e-05
2.12928e-05
2.12951e-05
2.12975e-05
2.13001e-05
2.13029e-05
2.13059e-05
2.13091e-05
2.13127e-05
2.13167e-05
2.13211e-05
2.13261e-05
2.13317e-05
2.24499e-05
2.24503e-05
2.24506e-05
2.2451e-05
2.24514e-05
2.24518e-05
2.24523e-05
2.24529e-05
2.24535e-05
2.24543e-05
2.2455e-05
2.24558e-05
2.24567e-05
2.24576e-05
2.24585e-05
2.24595e-05
2.24605e-05
2.24616e-05
2.24627e-05
2.24639e-05
2.24652e-05
2.24666e-05
2.24681e-05
2.24698e-05
2.24716e-05
2.24737e-05
2.24759e-05
2.24783e-05
2.2481e-05
2.24838e-05
2.24869e-05
2.24902e-05
2.24939e-05
2.2498e-05
2.25025e-05
2.25076e-05
2.25132e-05
2.25195e-05
2.29507e-05
2.29511e-05
2.29515e-05
2.2952e-05
2.29524e-05
2.29529e-05
2.29534e-05
2.2954e-05
2.29547e-05
2.29554e-05
2.29561e-05
2.29569e-05
2.29578e-05
2.29588e-05
2.29597e-05
2.29607e-05
2.29618e-05
2.29629e-05
2.29641e-05
2.29654e-05
2.29667e-05
2.29682e-05
2.29697e-05
2.29715e-05
2.29735e-05
2.29756e-05
2.2978e-05
2.29806e-05
2.29833e-05
2.29864e-05
2.29896e-05
2.29932e-05
2.29972e-05
2.30016e-05
2.30065e-05
2.30119e-05
2.3018e-05
2.30247e-05
2.31315e-05
2.3132e-05
2.31324e-05
2.31329e-05
2.31334e-05
2.31339e-05