/*--------------------------------*- C++ -*----------------------------------*\
| =========                 |                                                 |
| \\      /  F ield         | OpenFOAM: The Open Source CFD Toolbox           |
|  \\    /   O peration     | Version:  2.3.1                                 |
|   \\  /    A nd           | Web:      www.OpenFOAM.org                      |
|    \\/     M anipulation  |                                                 |
\*---------------------------------------------------------------------------*/
FoamFile
{
    version     2.0;
    format      ascii;
    class       volScalarField;
    location    "10";
    object      nut;
}
// * * * * * * * * * * * * * * * * * * * * * * * * * * * * * * * * * * * * * //

dimensions      [0 2 -1 0 0 0 0];

internalField   nonuniform List<scalar> 
37692
(
2.91798e-06
2.91807e-06
2.91819e-06
2.91835e-06
2.91856e-06
2.91881e-06
2.9191e-06
2.91946e-06
2.91989e-06
2.9204e-06
2.92098e-06
2.92164e-06
2.92237e-06
2.92319e-06
2.92409e-06
2.92508e-06
2.92615e-06
2.92733e-06
2.92862e-06
2.93004e-06
2.93157e-06
2.93322e-06
2.93501e-06
2.93695e-06
2.93905e-06
2.94134e-06
2.94382e-06
2.94651e-06
2.94943e-06
2.95257e-06
2.95594e-06
2.95956e-06
2.96344e-06
2.9676e-06
2.97208e-06
2.9769e-06
2.9821e-06
2.9877e-06
3.36377e-06
3.36393e-06
3.36412e-06
3.36435e-06
3.36462e-06
3.36493e-06
3.36529e-06
3.36574e-06
3.36627e-06
3.36689e-06
3.36759e-06
3.36836e-06
3.36922e-06
3.37017e-06
3.3712e-06
3.37232e-06
3.37354e-06
3.37487e-06
3.37632e-06
3.3779e-06
3.37961e-06
3.38144e-06
3.38342e-06
3.38556e-06
3.38789e-06
3.39041e-06
3.39315e-06
3.39612e-06
3.39933e-06
3.40278e-06
3.40648e-06
3.41045e-06
3.4147e-06
3.41927e-06
3.4242e-06
3.42952e-06
3.43526e-06
3.44144e-06
3.53362e-06
3.53379e-06
3.53401e-06
3.53426e-06
3.53455e-06
3.53488e-06
3.53526e-06
3.53572e-06
3.53626e-06
3.53689e-06
3.53759e-06
3.53836e-06
3.53922e-06
3.54017e-06
3.5412e-06
3.54231e-06
3.54352e-06
3.54483e-06
3.54626e-06
3.54781e-06
3.54946e-06
3.55123e-06
3.55314e-06
3.55522e-06
3.55749e-06
3.55995e-06
3.56262e-06
3.56551e-06
3.56863e-06
3.57198e-06
3.57556e-06
3.57939e-06
3.58351e-06
3.58794e-06
3.59273e-06
3.5979e-06
3.60348e-06
3.60951e-06
3.59496e-06
3.59515e-06
3.59538e-06
3.59564e-06
3.59594e-06
3.59629e-06
3.59668e-06
3.59715e-06
3.59769e-06
3.59831e-06
3.599e-06
3.59977e-06
3.60064e-06
3.6016e-06
3.60264e-06
3.60375e-06
3.60496e-06
3.60627e-06
3.60769e-06
3.60921e-06
3.61082e-06
3.61254e-06
3.61442e-06
3.61648e-06
3.61873e-06
3.62118e-06
3.62383e-06
3.6267e-06
3.62979e-06
3.6331e-06
3.63664e-06
3.64041e-06
3.64447e-06
3.64886e-06
3.6536e-06
3.65872e-06
3.66424e-06
3.6702e-06
3.61448e-06
3.61468e-06
3.61491e-06
3.61519e-06
3.6155e-06
3.61586e-06
3.61626e-06
3.61673e-06
3.61726e-06
3.61786e-06
3.61854e-06
3.61931e-06
3.62018e-06
3.62114e-06
3.62219e-06
3.62332e-06
3.62453e-06
3.62584e-06
3.62724e-06
3.62873e-06
3.63031e-06
3.632e-06
3.63386e-06
3.6359e-06
3.63815e-06
3.6406e-06
3.64325e-06
3.64612e-06
3.6492e-06
3.65249e-06
3.65601e-06
3.65976e-06
3.66381e-06
3.66817e-06
3.67289e-06
3.67798e-06
3.68348e-06
3.68942e-06
3.61966e-06
3.61987e-06
3.62011e-06
3.62039e-06
3.62072e-06
3.62108e-06
3.62149e-06
3.62195e-06
3.62247e-06
3.62305e-06
3.62372e-06
3.62449e-06
3.62536e-06
3.62633e-06
3.62738e-06
3.62851e-06
3.62972e-06
3.63102e-06
3.63241e-06
3.63388e-06
3.63544e-06
3.63712e-06
3.63896e-06
3.641e-06
3.64325e-06
3.64569e-06
3.64834e-06
3.6512e-06
3.65427e-06
3.65756e-06
3.66106e-06
3.66483e-06
3.66887e-06
3.67324e-06
3.67794e-06
3.68302e-06
3.6885e-06
3.69442e-06
3.61964e-06
3.61987e-06
3.62013e-06
3.62042e-06
3.62076e-06
3.62113e-06
3.62154e-06
3.622e-06
3.6225e-06
3.62308e-06
3.62375e-06
3.62452e-06
3.6254e-06
3.62636e-06
3.6274e-06
3.62852e-06
3.62972e-06
3.63102e-06
3.63239e-06
3.63386e-06
3.63541e-06
3.63709e-06
3.63894e-06
3.64097e-06
3.64321e-06
3.64565e-06
3.64829e-06
3.65114e-06
3.6542e-06
3.65748e-06
3.66099e-06
3.66477e-06
3.66883e-06
3.67319e-06
3.67789e-06
3.68296e-06
3.68844e-06
3.69436e-06
3.61469e-06
3.61497e-06
3.61528e-06
3.61561e-06
3.61599e-06
3.61641e-06
3.61686e-06
3.61737e-06
3.61795e-06
3.61862e-06
3.6194e-06
3.62028e-06
3.62123e-06
3.62225e-06
3.62335e-06
3.62454e-06
3.62582e-06
3.6272e-06
3.62867e-06
3.63023e-06
3.63192e-06
3.63377e-06
3.63581e-06
3.63804e-06
3.64047e-06
3.64311e-06
3.64595e-06
3.649e-06
3.65228e-06
3.6558e-06
3.6596e-06
3.66368e-06
3.66805e-06
3.67276e-06
3.67783e-06
3.68331e-06
3.68924e-06
3.59515e-06
3.59545e-06
3.59576e-06
3.5961e-06
3.59647e-06
3.59689e-06
3.59735e-06
3.59787e-06
3.59846e-06
3.59915e-06
3.59994e-06
3.60081e-06
3.60174e-06
3.60274e-06
3.60382e-06
3.60499e-06
3.60626e-06
3.60764e-06
3.60912e-06
3.6107e-06
3.61241e-06
3.61428e-06
3.61632e-06
3.61855e-06
3.62098e-06
3.62361e-06
3.62645e-06
3.62951e-06
3.6328e-06
3.63635e-06
3.64016e-06
3.64426e-06
3.64866e-06
3.6534e-06
3.65849e-06
3.664e-06
3.66995e-06
3.53377e-06
3.53406e-06
3.53437e-06
3.5347e-06
3.53506e-06
3.53548e-06
3.53595e-06
3.53648e-06
3.53708e-06
3.53778e-06
3.53857e-06
3.53944e-06
3.54036e-06
3.54136e-06
3.54242e-06
3.54359e-06
3.54486e-06
3.54624e-06
3.54773e-06
3.54934e-06
3.55109e-06
3.55299e-06
3.55505e-06
3.5573e-06
3.55974e-06
3.56239e-06
3.56526e-06
3.56834e-06
3.57167e-06
3.57525e-06
3.57911e-06
3.58326e-06
3.58772e-06
3.59252e-06
3.59768e-06
3.60324e-06
3.60924e-06
3.36383e-06
3.36411e-06
3.36439e-06
3.3647e-06
3.36506e-06
3.36546e-06
3.36593e-06
3.36647e-06
3.36708e-06
3.36778e-06
3.36857e-06
3.36944e-06
3.37038e-06
3.37139e-06
3.37249e-06
3.37367e-06
3.37497e-06
3.37638e-06
3.37791e-06
3.37958e-06
3.38139e-06
3.38336e-06
3.38549e-06
3.38779e-06
3.3903e-06
3.39302e-06
3.39596e-06
3.39914e-06
3.40256e-06
3.40625e-06
3.41023e-06
3.41451e-06
3.41911e-06
3.42406e-06
3.42938e-06
3.43511e-06
3.44128e-06
2.91793e-06
2.91811e-06
2.91832e-06
2.91856e-06
2.91885e-06
2.91918e-06
2.91956e-06
2.92001e-06
2.92052e-06
2.92111e-06
2.92178e-06
2.92253e-06
2.92337e-06
2.92427e-06
2.92526e-06
2.92634e-06
2.92751e-06
2.92878e-06
2.93016e-06
2.93167e-06
2.93331e-06
2.93509e-06
2.93701e-06
2.9391e-06
2.94136e-06
2.94382e-06
2.94649e-06
2.94937e-06
2.95247e-06
2.95583e-06
2.95944e-06
2.96333e-06
2.96751e-06
2.97201e-06
2.97685e-06
2.98205e-06
2.98765e-06
7.41704e-06
7.41715e-06
7.41733e-06
7.41755e-06
7.41783e-06
7.41817e-06
7.41858e-06
7.41908e-06
7.41969e-06
7.42041e-06
7.42124e-06
7.42216e-06
7.42319e-06
7.42433e-06
7.42557e-06
7.42691e-06
7.42838e-06
7.42998e-06
7.43174e-06
7.43366e-06
7.43573e-06
7.43796e-06
7.44037e-06
7.44298e-06
7.44583e-06
7.44892e-06
7.45229e-06
7.45593e-06
7.45988e-06
7.46413e-06
7.46869e-06
7.47357e-06
7.47882e-06
7.48446e-06
7.49055e-06
7.49712e-06
7.50422e-06
7.51188e-06
1.66234e-05
1.66247e-05
1.66259e-05
1.66272e-05
1.66284e-05
1.66295e-05
1.66309e-05
1.66327e-05
1.66349e-05
1.66374e-05
1.66398e-05
1.66421e-05
1.66443e-05
1.66466e-05
1.66487e-05
1.66507e-05
1.66528e-05
1.66551e-05
1.66576e-05
1.66602e-05
1.66627e-05
1.66653e-05
1.66679e-05
1.66707e-05
1.66739e-05
1.66773e-05
1.6681e-05
1.66848e-05
1.66889e-05
1.6693e-05
1.66971e-05
1.67012e-05
1.67056e-05
1.67105e-05
1.67159e-05
1.67221e-05
1.67288e-05
1.67362e-05
2.10895e-05
2.10915e-05
2.10934e-05
2.10953e-05
2.10971e-05
2.10989e-05
2.11009e-05
2.11034e-05
2.11063e-05
2.11095e-05
2.11127e-05
2.11158e-05
2.1119e-05
2.11223e-05
2.11253e-05
2.11282e-05
2.11312e-05
2.11343e-05
2.11376e-05
2.1141e-05
2.11441e-05
2.11473e-05
2.11507e-05
2.11546e-05
2.11589e-05
2.11635e-05
2.11685e-05
2.11736e-05
2.1179e-05
2.11843e-05
2.11896e-05
2.1195e-05
2.12008e-05
2.12074e-05
2.12148e-05
2.12231e-05
2.12323e-05
2.12423e-05
2.30086e-05
2.30109e-05
2.30132e-05
2.30155e-05
2.30177e-05
2.30199e-05
2.30223e-05
2.30251e-05
2.30282e-05
2.30315e-05
2.30349e-05
2.30385e-05
2.30423e-05
2.30461e-05
2.30497e-05
2.30532e-05
2.30566e-05
2.30601e-05
2.30636e-05
2.30669e-05
2.307e-05
2.30732e-05
2.30768e-05
2.30812e-05
2.30862e-05
2.30916e-05
2.30973e-05
2.31032e-05
2.31091e-05
2.3115e-05
2.31208e-05
2.31267e-05
2.31332e-05
2.31405e-05
2.31489e-05
2.31582e-05
2.31685e-05
2.31799e-05
2.37332e-05
2.37358e-05
2.37383e-05
2.37407e-05
2.37432e-05
2.37456e-05
2.37482e-05
2.37509e-05
2.37539e-05
2.37571e-05
2.37606e-05
2.37643e-05
2.37684e-05
2.37725e-05
2.37764e-05
2.37802e-05
2.37838e-05
2.37874e-05
2.37907e-05
2.37938e-05
2.37965e-05
2.37996e-05
2.38033e-05
2.3808e-05
2.38133e-05
2.38191e-05
2.38252e-05
2.38315e-05
2.38378e-05
2.38439e-05
2.38498e-05
2.3856e-05
2.38629e-05
2.38706e-05
2.38793e-05
2.3889e-05
2.38998e-05
2.39117e-05
2.39549e-05
2.39577e-05
2.39604e-05
2.3963e-05
2.39655e-05
2.39681e-05
2.39706e-05
2.39732e-05
2.39759e-05
2.39789e-05
2.39823e-05
2.39862e-05
2.39903e-05
2.39945e-05
2.39985e-05
2.40023e-05
2.40059e-05
2.40093e-05
2.40125e-05
2.40152e-05
2.40177e-05
2.40207e-05
2.40245e-05
2.40292e-05
2.40347e-05
2.40406e-05
2.40468e-05
2.40532e-05
2.40594e-05
2.40656e-05
2.40718e-05
2.40782e-05
2.40853e-05
2.40932e-05
2.41019e-05
2.41116e-05
2.41224e-05
2.41344e-05
2.39551e-05
2.39583e-05
2.39612e-05
2.39639e-05
2.39666e-05
2.39691e-05
2.39716e-05
2.3974e-05
2.39765e-05
2.39793e-05
2.39827e-05
2.39865e-05
2.39906e-05
2.39946e-05
2.39984e-05
2.4002e-05
2.40054e-05
2.40087e-05
2.40116e-05
2.40143e-05
2.40168e-05
2.40198e-05
2.40235e-05
2.40282e-05
2.40336e-05
2.40394e-05
2.40455e-05
2.40517e-05
2.40579e-05
2.4064e-05
2.40704e-05
2.40771e-05
2.40844e-05
2.40922e-05
2.41008e-05
2.41103e-05
2.41211e-05
2.41331e-05
2.37374e-05
2.37406e-05
2.37433e-05
2.37459e-05
2.37484e-05
2.37508e-05
2.37532e-05
2.37556e-05
2.37583e-05
2.37617e-05
2.37655e-05
2.37694e-05
2.3773e-05
2.37763e-05
2.37795e-05
2.37826e-05
2.37856e-05
2.37885e-05
2.37912e-05
2.37938e-05
2.37968e-05
2.38006e-05
2.3805e-05
2.38102e-05
2.38158e-05
2.38216e-05
2.38275e-05
2.38335e-05
2.38397e-05
2.38461e-05
2.3853e-05
2.38603e-05
2.3868e-05
2.38764e-05
2.38857e-05
2.38962e-05
2.39081e-05
2.30133e-05
2.30165e-05
2.30191e-05
2.30215e-05
2.30238e-05
2.30261e-05
2.30284e-05
2.30308e-05
2.30336e-05
2.30369e-05
2.30404e-05
2.30439e-05
2.3047e-05
2.30497e-05
2.30523e-05
2.30549e-05
2.30577e-05
2.30605e-05
2.30632e-05
2.30659e-05
2.30689e-05
2.30725e-05
2.30767e-05
2.30814e-05
2.30865e-05
2.30919e-05
2.30975e-05
2.31032e-05
2.31092e-05
2.31155e-05
2.31222e-05
2.31292e-05
2.31367e-05
2.31447e-05
2.31536e-05
2.31636e-05
2.31748e-05
2.10939e-05
2.10968e-05
2.1099e-05
2.1101e-05
2.11029e-05
2.11049e-05
2.11071e-05
2.11094e-05
2.1112e-05
2.11149e-05
2.1118e-05
2.11209e-05
2.11234e-05
2.11255e-05
2.11276e-05
2.11297e-05
2.1132e-05
2.11344e-05
2.1137e-05
2.11396e-05
2.11426e-05
2.11459e-05
2.11496e-05
2.11537e-05
2.11581e-05
2.11629e-05
2.11678e-05
2.1173e-05
2.11784e-05
2.11841e-05
2.11902e-05
2.11966e-05
2.12034e-05
2.12107e-05
2.12186e-05
2.12274e-05
2.12372e-05
1.66264e-05
1.66284e-05
1.66299e-05
1.66311e-05
1.66324e-05
1.66338e-05
1.66355e-05
1.66373e-05
1.66393e-05
1.66414e-05
1.66436e-05
1.66457e-05
1.66475e-05
1.66491e-05
1.66505e-05
1.66519e-05
1.66536e-05
1.66554e-05
1.66574e-05
1.66596e-05
1.6662e-05
1.66647e-05
1.66675e-05
1.66705e-05
1.66738e-05
1.66773e-05
1.66811e-05
1.6685e-05
1.66891e-05
1.66935e-05
1.66981e-05
1.6703e-05
1.67083e-05
1.67138e-05
1.67196e-05
1.67261e-05
1.67332e-05
7.41703e-06
7.41728e-06
7.41757e-06
7.4179e-06
7.41828e-06
7.41873e-06
7.41927e-06
7.41989e-06
7.42061e-06
7.42145e-06
7.42239e-06
7.42344e-06
7.42458e-06
7.42582e-06
7.42715e-06
7.42859e-06
7.43017e-06
7.43188e-06
7.43375e-06
7.43579e-06
7.438e-06
7.44041e-06
7.44302e-06
7.44585e-06
7.44892e-06
7.45226e-06
7.45587e-06
7.45977e-06
7.46398e-06
7.46852e-06
7.47341e-06
7.47868e-06
7.48436e-06
7.49047e-06
7.49704e-06
7.50413e-06
7.51178e-06
7.9017e-06
7.90181e-06
7.90197e-06
7.90218e-06
7.90244e-06
7.90276e-06
7.90314e-06
7.90362e-06
7.9042e-06
7.90489e-06
7.90569e-06
7.90658e-06
7.90756e-06
7.90865e-06
7.90982e-06
7.9111e-06
7.91248e-06
7.91399e-06
7.91565e-06
7.91746e-06
7.9194e-06
7.92148e-06
7.92373e-06
7.92618e-06
7.92884e-06
7.93174e-06
7.93489e-06
7.93831e-06
7.942e-06
7.94598e-06
7.95025e-06
7.95482e-06
7.95973e-06
7.96502e-06
7.97073e-06
7.9769e-06
7.98357e-06
7.99078e-06
2.69107e-05
2.69126e-05
2.69145e-05
2.69163e-05
2.69181e-05
2.69199e-05
2.69222e-05
2.69252e-05
2.69291e-05
2.69333e-05
2.69375e-05
2.69417e-05
2.69459e-05
2.69501e-05
2.69542e-05
2.69582e-05
2.69625e-05
2.6967e-05
2.6972e-05
2.69772e-05
2.69824e-05
2.69877e-05
2.69932e-05
2.69993e-05
2.7006e-05
2.70132e-05
2.7021e-05
2.70294e-05
2.70382e-05
2.70474e-05
2.70567e-05
2.70664e-05
2.70766e-05
2.70878e-05
2.71001e-05
2.71138e-05
2.71289e-05
2.71454e-05
3.77644e-05
3.77681e-05
3.77717e-05
3.77753e-05
3.7779e-05
3.77828e-05
3.77871e-05
3.77923e-05
3.77983e-05
3.7805e-05
3.78119e-05
3.78191e-05
3.78265e-05
3.7834e-05
3.78416e-05
3.78493e-05
3.78572e-05
3.78656e-05
3.78746e-05
3.78838e-05
3.78932e-05
3.79029e-05
3.79133e-05
3.79249e-05
3.79376e-05
3.79514e-05
3.79662e-05
3.7982e-05
3.79987e-05
3.8016e-05
3.8034e-05
3.80529e-05
3.80731e-05
3.80954e-05
3.81199e-05
3.81469e-05
3.81763e-05
3.82085e-05
4.29395e-05
4.29443e-05
4.29491e-05
4.29539e-05
4.29588e-05
4.29638e-05
4.29693e-05
4.29755e-05
4.29826e-05
4.29902e-05
4.29984e-05
4.30071e-05
4.30163e-05
4.30258e-05
4.30355e-05
4.30452e-05
4.30551e-05
4.30655e-05
4.30762e-05
4.30871e-05
4.30981e-05
4.31096e-05
4.31224e-05
4.31368e-05
4.31529e-05
4.31703e-05
4.3189e-05
4.32088e-05
4.32296e-05
4.32512e-05
4.32735e-05
4.32971e-05
4.33227e-05
4.33507e-05
4.33817e-05
4.34156e-05
4.34527e-05
4.34932e-05
4.50671e-05
4.50726e-05
4.5078e-05
4.50835e-05
4.50891e-05
4.50948e-05
4.51008e-05
4.51074e-05
4.51146e-05
4.51224e-05
4.5131e-05
4.51404e-05
4.51504e-05
4.5161e-05
4.51716e-05
4.51823e-05
4.51932e-05
4.52043e-05
4.52155e-05
4.52266e-05
4.52379e-05
4.52499e-05
4.52637e-05
4.52795e-05
4.52971e-05
4.53164e-05
4.5337e-05
4.53587e-05
4.53814e-05
4.54049e-05
4.54293e-05
4.54551e-05
4.54832e-05
4.5514e-05
4.55479e-05
4.5585e-05
4.56255e-05
4.56698e-05
4.5765e-05
4.57711e-05
4.57769e-05
4.57828e-05
4.57887e-05
4.57947e-05
4.58009e-05
4.58073e-05
4.58143e-05
4.58219e-05
4.58305e-05
4.58401e-05
4.58505e-05
4.58613e-05
4.58722e-05
4.58832e-05
4.58942e-05
4.59054e-05
4.59164e-05
4.59273e-05
4.59384e-05
4.59506e-05
4.59647e-05
4.59809e-05
4.59991e-05
4.6019e-05
4.60402e-05
4.60626e-05
4.60858e-05
4.61099e-05
4.61352e-05
4.61621e-05
4.61913e-05
4.62231e-05
4.62578e-05
4.62959e-05
4.63375e-05
4.63832e-05
4.57653e-05
4.57719e-05
4.57782e-05
4.57843e-05
4.57904e-05
4.57964e-05
4.58025e-05
4.58088e-05
4.58154e-05
4.58227e-05
4.58313e-05
4.58408e-05
4.58511e-05
4.58617e-05
4.58722e-05
4.58828e-05
4.58935e-05
4.59043e-05
4.59151e-05
4.59258e-05
4.59368e-05
4.5949e-05
4.5963e-05
4.59791e-05
4.59972e-05
4.60169e-05
4.6038e-05
4.60601e-05
4.60832e-05
4.61073e-05
4.61329e-05
4.61602e-05
4.61896e-05
4.62214e-05
4.62559e-05
4.62937e-05
4.63353e-05
4.63809e-05
4.5075e-05
4.50816e-05
4.50877e-05
4.50936e-05
4.50995e-05
4.51054e-05
4.51114e-05
4.51177e-05
4.51249e-05
4.51333e-05
4.51426e-05
4.51524e-05
4.51621e-05
4.51718e-05
4.51814e-05
4.51913e-05
4.52015e-05
4.52119e-05
4.52224e-05
4.52333e-05
4.52452e-05
4.52589e-05
4.52744e-05
4.52917e-05
4.53106e-05
4.53307e-05
4.5352e-05
4.53743e-05
4.53978e-05
4.54229e-05
4.54497e-05
4.54785e-05
4.55094e-05
4.55428e-05
4.55793e-05
4.56194e-05
4.56637e-05
4.29476e-05
4.2954e-05
4.29597e-05
4.2965e-05
4.29703e-05
4.29757e-05
4.29813e-05
4.29873e-05
4.29942e-05
4.3002e-05
4.30106e-05
4.30193e-05
4.30277e-05
4.30359e-05
4.30441e-05
4.30527e-05
4.30618e-05
4.30713e-05
4.3081e-05
4.30913e-05
4.31026e-05
4.31152e-05
4.31293e-05
4.31449e-05
4.31619e-05
4.31801e-05
4.31995e-05
4.32199e-05
4.32415e-05
4.32646e-05
4.32894e-05
4.33158e-05
4.33442e-05
4.33747e-05
4.3408e-05
4.34445e-05
4.34847e-05
3.77713e-05
3.77766e-05
3.77811e-05
3.77852e-05
3.77893e-05
3.77937e-05
3.77984e-05
3.78036e-05
3.78094e-05
3.78159e-05
3.78229e-05
3.78297e-05
3.78362e-05
3.78425e-05
3.78486e-05
3.78551e-05
3.78621e-05
3.78696e-05
3.78776e-05
3.78862e-05
3.78956e-05
3.79059e-05
3.79172e-05
3.79296e-05
3.7943e-05
3.79575e-05
3.7973e-05
3.79894e-05
3.80068e-05
3.80253e-05
3.80452e-05
3.80665e-05
3.80892e-05
3.81136e-05
3.814e-05
3.81688e-05
3.82006e-05
2.69147e-05
2.69178e-05
2.69202e-05
2.69222e-05
2.69243e-05
2.69268e-05
2.69296e-05
2.69328e-05
2.69363e-05
2.69401e-05
2.69442e-05
2.69481e-05
2.69517e-05
2.6955e-05
2.69581e-05
2.69614e-05
2.69649e-05
2.69689e-05
2.69732e-05
2.69779e-05
2.69831e-05
2.69888e-05
2.69948e-05
2.70014e-05
2.70085e-05
2.70161e-05
2.70244e-05
2.7033e-05
2.70421e-05
2.70518e-05
2.70621e-05
2.70732e-05
2.70849e-05
2.70973e-05
2.71106e-05
2.71251e-05
2.71411e-05
7.90169e-06
7.90193e-06
7.9022e-06
7.90251e-06
7.90287e-06
7.9033e-06
7.90381e-06
7.90441e-06
7.9051e-06
7.90591e-06
7.90682e-06
7.90782e-06
7.9089e-06
7.91006e-06
7.91131e-06
7.91266e-06
7.91413e-06
7.91573e-06
7.91748e-06
7.91939e-06
7.92148e-06
7.92374e-06
7.92619e-06
7.92885e-06
7.93173e-06
7.93486e-06
7.93825e-06
7.94191e-06
7.94585e-06
7.9501e-06
7.95469e-06
7.95963e-06
7.96495e-06
7.97067e-06
7.97684e-06
7.9835e-06
7.99069e-06
8.13377e-06
8.13387e-06
8.13402e-06
8.13421e-06
8.13445e-06
8.13474e-06
8.1351e-06
8.13555e-06
8.13609e-06
8.13674e-06
8.13751e-06
8.13837e-06
8.13932e-06
8.14035e-06
8.14148e-06
8.14269e-06
8.144e-06
8.14545e-06
8.14703e-06
8.14875e-06
8.15059e-06
8.15257e-06
8.15471e-06
8.15702e-06
8.15955e-06
8.1623e-06
8.1653e-06
8.16855e-06
8.17206e-06
8.17585e-06
8.17991e-06
8.18426e-06
8.18893e-06
8.19396e-06
8.19941e-06
8.20531e-06
8.21169e-06
8.21858e-06
3.38806e-05
3.38822e-05
3.38836e-05
3.3885e-05
3.38865e-05
3.38881e-05
3.38903e-05
3.38936e-05
3.38981e-05
3.3903e-05
3.39076e-05
3.3912e-05
3.39163e-05
3.39206e-05
3.39247e-05
3.39288e-05
3.39331e-05
3.39376e-05
3.39426e-05
3.39477e-05
3.39529e-05
3.3958e-05
3.39633e-05
3.39691e-05
3.39755e-05
3.39826e-05
3.39902e-05
3.39984e-05
3.4007e-05
3.40159e-05
3.40249e-05
3.40338e-05
3.40431e-05
3.40532e-05
3.40645e-05
3.40771e-05
3.40911e-05
3.41066e-05
5.09376e-05
5.09416e-05
5.09457e-05
5.09498e-05
5.0954e-05
5.09585e-05
5.09637e-05
5.097e-05
5.09774e-05
5.09856e-05
5.09941e-05
5.10028e-05
5.10118e-05
5.10211e-05
5.10304e-05
5.10399e-05
5.10497e-05
5.10602e-05
5.10714e-05
5.1083e-05
5.10949e-05
5.11072e-05
5.11204e-05
5.11349e-05
5.11509e-05
5.11683e-05
5.11871e-05
5.12071e-05
5.12283e-05
5.12506e-05
5.12737e-05
5.1298e-05
5.13241e-05
5.13526e-05
5.13839e-05
5.14183e-05
5.14559e-05
5.14971e-05
5.98511e-05
5.98571e-05
5.9863e-05
5.98691e-05
5.98753e-05
5.98818e-05
5.98889e-05
5.98969e-05
5.9906e-05
5.99159e-05
5.99265e-05
5.99377e-05
5.99497e-05
5.99621e-05
5.99747e-05
5.99876e-05
6.0001e-05
6.0015e-05
6.00296e-05
6.00446e-05
6.00599e-05
6.00761e-05
6.00939e-05
6.01137e-05
6.01357e-05
6.01595e-05
6.01851e-05
6.02124e-05
6.02413e-05
6.02716e-05
6.03032e-05
6.03368e-05
6.03731e-05
6.04128e-05
6.04564e-05
6.0504e-05
6.05561e-05
6.06129e-05
6.37895e-05
6.37967e-05
6.38037e-05
6.38109e-05
6.38183e-05
6.38259e-05
6.3834e-05
6.38427e-05
6.38524e-05
6.38629e-05
6.38744e-05
6.38868e-05
6.39002e-05
6.39143e-05
6.39287e-05
6.39434e-05
6.39585e-05
6.3974e-05
6.399e-05
6.40062e-05
6.40228e-05
6.40406e-05
6.40606e-05
6.40831e-05
6.4108e-05
6.41352e-05
6.41644e-05
6.41954e-05
6.42281e-05
6.42623e-05
6.42983e-05
6.43366e-05
6.43781e-05
6.44235e-05
6.44731e-05
6.45273e-05
6.45865e-05
6.46512e-05
6.51582e-05
6.51662e-05
6.51739e-05
6.51818e-05
6.51897e-05
6.51978e-05
6.52062e-05
6.52151e-05
6.52246e-05
6.52351e-05
6.52468e-05
6.52597e-05
6.52736e-05
6.52882e-05
6.53032e-05
6.53184e-05
6.5334e-05
6.53499e-05
6.5366e-05
6.53823e-05
6.53992e-05
6.54176e-05
6.54383e-05
6.54617e-05
6.54878e-05
6.55163e-05
6.55468e-05
6.55792e-05
6.56132e-05
6.5649e-05
6.56867e-05
6.57271e-05
6.57708e-05
6.58183e-05
6.58701e-05
6.59267e-05
6.59886e-05
6.60562e-05
6.51584e-05
6.5167e-05
6.51753e-05
6.51834e-05
6.51915e-05
6.51997e-05
6.52081e-05
6.52167e-05
6.52259e-05
6.52361e-05
6.52477e-05
6.52606e-05
6.52744e-05
6.52887e-05
6.53033e-05
6.53181e-05
6.53332e-05
6.53488e-05
6.53645e-05
6.53806e-05
6.53973e-05
6.54157e-05
6.54363e-05
6.54597e-05
6.54856e-05
6.55139e-05
6.55443e-05
6.55764e-05
6.56103e-05
6.56461e-05
6.56841e-05
6.57248e-05
6.57688e-05
6.58163e-05
6.5868e-05
6.59243e-05
6.5986e-05
6.60537e-05
6.37991e-05
6.38076e-05
6.38156e-05
6.38234e-05
6.38312e-05
6.38392e-05
6.38474e-05
6.38562e-05
6.3866e-05
6.38772e-05
6.38895e-05
6.39025e-05
6.39157e-05
6.3929e-05
6.39425e-05
6.39565e-05
6.3971e-05
6.39859e-05
6.40013e-05
6.40175e-05
6.40352e-05
6.4055e-05
6.40772e-05
6.41018e-05
6.41286e-05
6.41573e-05
6.41878e-05
6.42201e-05
6.42544e-05
6.4291e-05
6.43303e-05
6.43725e-05
6.4418e-05
6.44673e-05
6.45209e-05
6.45797e-05
6.46443e-05
5.98605e-05
5.98684e-05
5.98756e-05
5.98824e-05
5.98892e-05
5.98963e-05
5.99037e-05
5.99117e-05
5.99206e-05
5.99308e-05
5.99418e-05
5.99531e-05
5.99643e-05
5.99754e-05
5.99867e-05
5.99984e-05
6.00109e-05
6.0024e-05
6.00377e-05
6.00523e-05
6.00682e-05
6.00858e-05
6.01053e-05
6.01267e-05
6.015e-05
6.01752e-05
6.0202e-05
6.02304e-05
6.02607e-05
6.02931e-05
6.03279e-05
6.03652e-05
6.04053e-05
6.04485e-05
6.04955e-05
6.0547e-05
6.06035e-05
5.0945e-05
5.09512e-05
5.09564e-05
5.09612e-05
5.09661e-05
5.09714e-05
5.09772e-05
5.09836e-05
5.09907e-05
5.09986e-05
5.1007e-05
5.10155e-05
5.10236e-05
5.10314e-05
5.10393e-05
5.10475e-05
5.10563e-05
5.10658e-05
5.10761e-05
5.10871e-05
5.10991e-05
5.11122e-05
5.11266e-05
5.11422e-05
5.11592e-05
5.11775e-05
5.11972e-05
5.12181e-05
5.12402e-05
5.12639e-05
5.12894e-05
5.13166e-05
5.13457e-05
5.13769e-05
5.14107e-05
5.14476e-05
5.14883e-05
3.38846e-05
3.38877e-05
3.389e-05
3.38918e-05
3.38937e-05
3.38962e-05
3.38993e-05
3.39027e-05
3.39064e-05
3.39104e-05
3.39146e-05
3.39187e-05
3.39223e-05
3.39256e-05
3.39286e-05
3.39317e-05
3.39351e-05
3.39389e-05
3.39431e-05
3.39478e-05
3.39529e-05
3.39584e-05
3.39643e-05
3.39706e-05
3.39775e-05
3.39849e-05
3.39929e-05
3.40013e-05
3.401e-05
3.40191e-05
3.40288e-05
3.40391e-05
3.405e-05
3.40614e-05
3.40735e-05
3.40868e-05
3.41016e-05
8.13374e-06
8.13397e-06
8.13421e-06
8.1345e-06
8.13484e-06
8.13525e-06
8.13572e-06
8.1363e-06
8.13697e-06
8.13774e-06
8.13862e-06
8.13957e-06
8.1406e-06
8.1417e-06
8.14287e-06
8.14415e-06
8.14553e-06
8.14705e-06
8.14871e-06
8.15053e-06
8.15252e-06
8.15467e-06
8.157e-06
8.15952e-06
8.16227e-06
8.16524e-06
8.16846e-06
8.17194e-06
8.17569e-06
8.17974e-06
8.1841e-06
8.1888e-06
8.19387e-06
8.19932e-06
8.20521e-06
8.21157e-06
8.21845e-06
8.2582e-06
8.25828e-06
8.2584e-06
8.25857e-06
8.25879e-06
8.25906e-06
8.2594e-06
8.25982e-06
8.26034e-06
8.26095e-06
8.26168e-06
8.26251e-06
8.26342e-06
8.26441e-06
8.26547e-06
8.26663e-06
8.26788e-06
8.26925e-06
8.27076e-06
8.2724e-06
8.27417e-06
8.27606e-06
8.27809e-06
8.2803e-06
8.2827e-06
8.28533e-06
8.2882e-06
8.29132e-06
8.29469e-06
8.29832e-06
8.30221e-06
8.30641e-06
8.31093e-06
8.31579e-06
8.32104e-06
8.32671e-06
8.33284e-06
8.33947e-06
3.85616e-05
3.85624e-05
3.8563e-05
3.85636e-05
3.85644e-05
3.85655e-05
3.85674e-05
3.85705e-05
3.8575e-05
3.858e-05
3.85844e-05
3.85883e-05
3.8592e-05
3.85956e-05
3.85989e-05
3.86021e-05
3.86054e-05
3.8609e-05
3.86129e-05
3.86169e-05
3.86208e-05
3.86245e-05
3.86283e-05
3.86325e-05
3.86372e-05
3.86424e-05
3.86482e-05
3.86543e-05
3.86607e-05
3.86671e-05
3.8673e-05
3.8678e-05
3.86828e-05
3.86881e-05
3.86945e-05
3.87021e-05
3.8711e-05
3.87212e-05
6.09517e-05
6.09553e-05
6.09589e-05
6.09627e-05
6.09666e-05
6.0971e-05
6.09761e-05
6.09824e-05
6.099e-05
6.09984e-05
6.10069e-05
6.10156e-05
6.10245e-05
6.10336e-05
6.10427e-05
6.1052e-05
6.10616e-05
6.10719e-05
6.10829e-05
6.10944e-05
6.11061e-05
6.11182e-05
6.11311e-05
6.11453e-05
6.1161e-05
6.1178e-05
6.11965e-05
6.12163e-05
6.12372e-05
6.12592e-05
6.12819e-05
6.13057e-05
6.1331e-05
6.13585e-05
6.13889e-05
6.14223e-05
6.14591e-05
6.14995e-05
7.35862e-05
7.35923e-05
7.35983e-05
7.36045e-05
7.36109e-05
7.36177e-05
7.36252e-05
7.36336e-05
7.36432e-05
7.36537e-05
7.36648e-05
7.36766e-05
7.3689e-05
7.37019e-05
7.37152e-05
7.37287e-05
7.37428e-05
7.37576e-05
7.37732e-05
7.37892e-05
7.38058e-05
7.38233e-05
7.38424e-05
7.38636e-05
7.38868e-05
7.39121e-05
7.39394e-05
7.39686e-05
7.39995e-05
7.40321e-05
7.40663e-05
7.41027e-05
7.41419e-05
7.41847e-05
7.42315e-05
7.42827e-05
7.43388e-05
7.43999e-05
7.95212e-05
7.95288e-05
7.95364e-05
7.95441e-05
7.9552e-05
7.95602e-05
7.9569e-05
7.95786e-05
7.9589e-05
7.96004e-05
7.96128e-05
7.96262e-05
7.96406e-05
7.96556e-05
7.96712e-05
7.96871e-05
7.97036e-05
7.97206e-05
7.97383e-05
7.97564e-05
7.97752e-05
7.97954e-05
7.98177e-05
7.98425e-05
7.987e-05
7.98999e-05
7.99321e-05
7.99664e-05
8.00027e-05
8.0041e-05
8.00815e-05
8.01247e-05
8.01715e-05
8.02224e-05
8.02781e-05
8.0339e-05
8.04053e-05
8.04777e-05
8.16848e-05
8.16935e-05
8.1702e-05
8.17105e-05
8.17192e-05
8.17281e-05
8.17374e-05
8.17472e-05
8.17578e-05
8.17693e-05
8.17821e-05
8.17961e-05
8.18112e-05
8.1827e-05
8.18434e-05
8.18601e-05
8.18773e-05
8.18951e-05
8.19133e-05
8.19319e-05
8.19514e-05
8.19726e-05
8.19961e-05
8.20224e-05
8.20516e-05
8.20833e-05
8.21174e-05
8.21538e-05
8.21922e-05
8.22328e-05
8.2276e-05
8.23222e-05
8.23722e-05
8.24266e-05
8.24858e-05
8.25503e-05
8.26208e-05
8.26979e-05
8.1685e-05
8.16943e-05
8.17033e-05
8.17121e-05
8.1721e-05
8.173e-05
8.17392e-05
8.17488e-05
8.17591e-05
8.17704e-05
8.17831e-05
8.1797e-05
8.1812e-05
8.18275e-05
8.18435e-05
8.18598e-05
8.18766e-05
8.1894e-05
8.19119e-05
8.19303e-05
8.19496e-05
8.19707e-05
8.19942e-05
8.20204e-05
8.20494e-05
8.2081e-05
8.2115e-05
8.21511e-05
8.21894e-05
8.22301e-05
8.22734e-05
8.232e-05
8.23702e-05
8.24246e-05
8.24836e-05
8.2548e-05
8.26184e-05
8.26954e-05
7.95311e-05
7.954e-05
7.95486e-05
7.95571e-05
7.95655e-05
7.95742e-05
7.95833e-05
7.9593e-05
7.96037e-05
7.96157e-05
7.96289e-05
7.96428e-05
7.96571e-05
7.96715e-05
7.96863e-05
7.97017e-05
7.97177e-05
7.97343e-05
7.97516e-05
7.97699e-05
7.97899e-05
7.9812e-05
7.98367e-05
7.98638e-05
7.98933e-05
7.9925e-05
7.99588e-05
7.99948e-05
8.00332e-05
8.00742e-05
8.01183e-05
8.01657e-05
8.02169e-05
8.02723e-05
8.03327e-05
8.03987e-05
8.04711e-05
7.35955e-05
7.36036e-05
7.3611e-05
7.36181e-05
7.36252e-05
7.36327e-05
7.36405e-05
7.36491e-05
7.36585e-05
7.36691e-05
7.36806e-05
7.36923e-05
7.37041e-05
7.37159e-05
7.37279e-05
7.37404e-05
7.37536e-05
7.37676e-05
7.37824e-05
7.37982e-05
7.38154e-05
7.38343e-05
7.38551e-05
7.38779e-05
7.39027e-05
7.39295e-05
7.39581e-05
7.39886e-05
7.40212e-05
7.40561e-05
7.40935e-05
7.41337e-05
7.41769e-05
7.42236e-05
7.42743e-05
7.43298e-05
7.43907e-05
6.09589e-05
6.09648e-05
6.09698e-05
6.09744e-05
6.09791e-05
6.09843e-05
6.099e-05
6.09964e-05
6.10035e-05
6.10113e-05
6.10196e-05
6.1028e-05
6.1036e-05
6.10437e-05
6.10514e-05
6.10593e-05
6.10679e-05
6.10772e-05
6.10873e-05
6.10982e-05
6.11101e-05
6.1123e-05
6.11371e-05
6.11523e-05
6.11689e-05
6.11868e-05
6.12061e-05
6.12266e-05
6.12483e-05
6.12715e-05
6.12963e-05
6.13229e-05
6.13512e-05
6.13816e-05
6.14145e-05
6.14506e-05
6.14904e-05
3.85655e-05
3.85681e-05
3.85699e-05
3.8571e-05
3.85724e-05
3.85744e-05
3.85771e-05
3.85803e-05
3.85836e-05
3.85871e-05
3.85908e-05
3.85942e-05
3.85971e-05
3.85996e-05
3.86017e-05
3.86039e-05
3.86062e-05
3.86089e-05
3.8612e-05
3.86155e-05
3.86193e-05
3.86234e-05
3.86276e-05
3.86321e-05
3.86369e-05
3.86423e-05
3.8648e-05
3.8654e-05
3.86597e-05
3.86655e-05
3.86716e-05
3.86777e-05
3.8684e-05
3.86905e-05
3.86974e-05
3.87053e-05
3.87147e-05
8.25816e-06
8.25836e-06
8.25858e-06
8.25885e-06
8.25917e-06
8.25955e-06
8.26e-06
8.26053e-06
8.26117e-06
8.26191e-06
8.26275e-06
8.26366e-06
8.26464e-06
8.26568e-06
8.26679e-06
8.26799e-06
8.2693e-06
8.27074e-06
8.27233e-06
8.27407e-06
8.27597e-06
8.27803e-06
8.28025e-06
8.28266e-06
8.28527e-06
8.28811e-06
8.29119e-06
8.29452e-06
8.29812e-06
8.30202e-06
8.30622e-06
8.31076e-06
8.31565e-06
8.32092e-06
8.32659e-06
8.33272e-06
8.33934e-06
8.32734e-06
8.3274e-06
8.3275e-06
8.32764e-06
8.32784e-06
8.32809e-06
8.32842e-06
8.32882e-06
8.32932e-06
8.32991e-06
8.33061e-06
8.3314e-06
8.33228e-06
8.33322e-06
8.33424e-06
8.33533e-06
8.33653e-06
8.33785e-06
8.3393e-06
8.34087e-06
8.34257e-06
8.34438e-06
8.34633e-06
8.34845e-06
8.35077e-06
8.35331e-06
8.35608e-06
8.3591e-06
8.36237e-06
8.36589e-06
8.36967e-06
8.37373e-06
8.3781e-06
8.3828e-06
8.38786e-06
8.39334e-06
8.39926e-06
8.40567e-06
4.16234e-05
4.16232e-05
4.16228e-05
4.16226e-05
4.16228e-05
4.16234e-05
4.1625e-05
4.16278e-05
4.1632e-05
4.16369e-05
4.16408e-05
4.16441e-05
4.16469e-05
4.16494e-05
4.16517e-05
4.16538e-05
4.16559e-05
4.16582e-05
4.16607e-05
4.16633e-05
4.16657e-05
4.16678e-05
4.16698e-05
4.1672e-05
4.16747e-05
4.16778e-05
4.16814e-05
4.16851e-05
4.16888e-05
4.1692e-05
4.16943e-05
4.16953e-05
4.16957e-05
4.16961e-05
4.16972e-05
4.16993e-05
4.17025e-05
4.17067e-05
6.82495e-05
6.82522e-05
6.82549e-05
6.82578e-05
6.8261e-05
6.82647e-05
6.82693e-05
6.82751e-05
6.82821e-05
6.82899e-05
6.82977e-05
6.83055e-05
6.83134e-05
6.83212e-05
6.8329e-05
6.83369e-05
6.83452e-05
6.83541e-05
6.83636e-05
6.83734e-05
6.83836e-05
6.83939e-05
6.8405e-05
6.8417e-05
6.84304e-05
6.84451e-05
6.84611e-05
6.84782e-05
6.84963e-05
6.85152e-05
6.85345e-05
6.85545e-05
6.85756e-05
6.85984e-05
6.86238e-05
6.86519e-05
6.8683e-05
6.87175e-05
8.42368e-05
8.42421e-05
8.42475e-05
8.4253e-05
8.42589e-05
8.42651e-05
8.42722e-05
8.42802e-05
8.42892e-05
8.42991e-05
8.43096e-05
8.43205e-05
8.4332e-05
8.43438e-05
8.4356e-05
8.43685e-05
8.43815e-05
8.43952e-05
8.44097e-05
8.44247e-05
8.44403e-05
8.44568e-05
8.44746e-05
8.44943e-05
8.45159e-05
8.45395e-05
8.45649e-05
8.45922e-05
8.46211e-05
8.46516e-05
8.46837e-05
8.47178e-05
8.47545e-05
8.47945e-05
8.48382e-05
8.48861e-05
8.49386e-05
8.4996e-05
9.2138e-05
9.21452e-05
9.21524e-05
9.21597e-05
9.21672e-05
9.21751e-05
9.21836e-05
9.21928e-05
9.22029e-05
9.22139e-05
9.22257e-05
9.22384e-05
9.2252e-05
9.22662e-05
9.22809e-05
9.22961e-05
9.23118e-05
9.23282e-05
9.23453e-05
9.23629e-05
9.23814e-05
9.24011e-05
9.24228e-05
9.24468e-05
9.24733e-05
9.2502e-05
9.2533e-05
9.25662e-05
9.26014e-05
9.26386e-05
9.26782e-05
9.27205e-05
9.27663e-05
9.28161e-05
9.28704e-05
9.29298e-05
9.29946e-05
9.30654e-05
9.51334e-05
9.51417e-05
9.51499e-05
9.51582e-05
9.51666e-05
9.51752e-05
9.51843e-05