/*--------------------------------*- C++ -*----------------------------------*\
| =========                 |                                                 |
| \\      /  F ield         | OpenFOAM: The Open Source CFD Toolbox           |
|  \\    /   O peration     | Version:  2.3.1                                 |
|   \\  /    A nd           | Web:      www.OpenFOAM.org                      |
|    \\/     M anipulation  |                                                 |
\*---------------------------------------------------------------------------*/
FoamFile
{
    version     2.0;
    format      ascii;
    class       surfaceScalarField;
    location    "10";
    object      phi;
}
// * * * * * * * * * * * * * * * * * * * * * * * * * * * * * * * * * * * * * //

dimensions      [0 3 -1 0 0 0 0];

internalField   nonuniform List<scalar> 
108425
(
8.29121e-07
3.66483e-11
-5.00199e-10
8.29721e-07
-2.54535e-11
-5.74718e-10
8.30467e-07
-8.51826e-11
-6.61265e-10
8.31373e-07
-1.38881e-10
-7.66765e-10
8.3245e-07
-1.83683e-10
-8.92945e-10
8.33712e-07
-2.21508e-10
-1.04028e-09
8.35185e-07
-2.61527e-10
-1.21224e-09
8.36912e-07
-3.14444e-10
-1.41267e-09
8.38935e-07
-3.84357e-10
-1.63815e-09
8.41281e-07
-4.68937e-10
-1.87701e-09
8.43964e-07
-5.64849e-10
-2.11802e-09
8.46993e-07
-6.71837e-10
-2.35746e-09
8.50382e-07
-7.90677e-10
-2.59805e-09
8.54143e-07
-9.16327e-10
-2.84462e-09
8.58284e-07
-1.03889e-09
-3.10229e-09
8.62815e-07
-1.15269e-09
-3.3789e-09
8.6776e-07
-1.25898e-09
-3.68574e-09
8.73155e-07
-1.36106e-09
-4.03334e-09
8.7904e-07
-1.45915e-09
-4.42611e-09
8.85449e-07
-1.54922e-09
-4.8601e-09
8.92405e-07
-1.62959e-09
-5.32638e-09
8.99934e-07
-1.70861e-09
-5.81991e-09
9.0808e-07
-1.80119e-09
-6.34473e-09
9.16906e-07
-1.91692e-09
-6.90954e-09
9.26482e-07
-2.0545e-09
-7.52111e-09
9.36872e-07
-2.20774e-09
-8.18255e-09
9.4814e-07
-2.37237e-09
-8.89526e-09
9.60345e-07
-2.54614e-09
-9.65975e-09
9.73546e-07
-2.72627e-09
-1.04742e-08
9.87788e-07
-2.90822e-09
-1.1334e-08
1.00311e-06
-3.08963e-09
-1.22346e-08
1.01957e-06
-3.27726e-09
-1.31785e-08
1.03723e-06
-3.48485e-09
-1.41769e-08
1.0562e-06
-3.72332e-09
-1.52458e-08
1.07659e-06
-3.99615e-09
-1.63985e-08
1.09854e-06
-4.30177e-09
-1.7644e-08
1.12217e-06
-4.63893e-09
-1.89887e-08
-5.00968e-09
-2.04387e-08
8.7696e-07
4.01628e-11
-4.70997e-10
8.77576e-07
-6.1066e-11
-5.80009e-10
8.7835e-07
-1.5497e-10
-7.04106e-10
8.79293e-07
-2.3722e-10
-8.45323e-10
8.80416e-07
-3.05286e-10
-1.00092e-09
8.81729e-07
-3.61597e-10
-1.17281e-09
8.83258e-07
-4.14662e-10
-1.37596e-09
8.85044e-07
-4.74427e-10
-1.62573e-09
8.87124e-07
-5.46928e-10
-1.91804e-09
8.89524e-07
-6.34593e-10
-2.23439e-09
8.92257e-07
-7.39217e-10
-2.55828e-09
8.95334e-07
-8.63202e-10
-2.88588e-09
8.98774e-07
-1.00554e-09
-3.22481e-09
9.02592e-07
-1.15653e-09
-3.57831e-09
9.06798e-07
-1.30254e-09
-3.94171e-09
9.114e-07
-1.43517e-09
-4.31976e-09
9.16423e-07
-1.55269e-09
-4.72959e-09
9.21905e-07
-1.65542e-09
-5.18699e-09
9.27884e-07
-1.74154e-09
-5.69669e-09
9.3439e-07
-1.80838e-09
-6.24758e-09
9.41445e-07
-1.86126e-09
-6.82265e-09
9.49075e-07
-1.91835e-09
-7.42031e-09
9.57332e-07
-2.00141e-09
-8.05671e-09
9.66283e-07
-2.12124e-09
-8.74697e-09
9.75997e-07
-2.27418e-09
-9.49398e-09
9.86536e-07
-2.45069e-09
-1.02962e-08
9.97962e-07
-2.6427e-09
-1.11564e-08
1.01034e-06
-2.84392e-09
-1.20791e-08
1.02372e-06
-3.048e-09
-1.30637e-08
1.03817e-06
-3.24862e-09
-1.41032e-08
1.05371e-06
-3.4452e-09
-1.51895e-08
1.07041e-06
-3.64859e-09
-1.63298e-08
1.08835e-06
-3.87549e-09
-1.75483e-08
1.10764e-06
-4.13767e-09
-1.88679e-08
1.12838e-06
-4.43878e-09
-2.03016e-08
1.15071e-06
-4.77777e-09
-2.18547e-08
1.17476e-06
-5.15401e-09
-2.35334e-08
-5.57034e-09
-2.53478e-08
8.84941e-07
5.3294e-12
-4.35307e-10
8.8557e-07
-1.17061e-10
-5.7303e-10
8.86367e-07
-2.25206e-10
-7.2652e-10
8.87338e-07
-3.17879e-10
-8.91092e-10
8.88491e-07
-3.94089e-10
-1.06354e-09
8.89834e-07
-4.53914e-10
-1.25057e-09
8.91393e-07
-5.00065e-10
-1.47353e-09
8.93205e-07
-5.38082e-10
-1.74841e-09
8.95303e-07
-5.76075e-10
-2.06921e-09
8.9771e-07
-6.23737e-10
-2.41762e-09
9.00439e-07
-6.8942e-10
-2.77923e-09
9.03509e-07
-7.76797e-10
-3.15617e-09
9.06945e-07
-8.81746e-10
-3.55942e-09
9.10765e-07
-9.93145e-10
-3.9838e-09
9.14977e-07
-1.09911e-09
-4.41495e-09
9.19588e-07
-1.19123e-09
-4.85575e-09
9.24624e-07
-1.26413e-09
-5.32429e-09
9.3012e-07
-1.31384e-09
-5.83732e-09
9.36112e-07
-1.33745e-09
-6.39584e-09
9.4262e-07
-1.33735e-09
-6.97996e-09
9.4966e-07
-1.32717e-09
-7.57334e-09
9.57261e-07
-1.32954e-09
-8.19009e-09
9.65486e-07
-1.36427e-09
-8.86216e-09
9.7441e-07
-1.43833e-09
-9.60687e-09
9.84102e-07
-1.54659e-09
-1.04193e-08
9.94622e-07
-1.67934e-09
-1.12918e-08
1.00603e-06
-1.82695e-09
-1.22259e-08
1.01839e-06
-1.98054e-09
-1.3225e-08
1.03176e-06
-2.13259e-09
-1.42863e-08
1.04619e-06
-2.2788e-09
-1.53968e-08
1.06172e-06
-2.42209e-09
-1.65467e-08
1.07839e-06
-2.5729e-09
-1.77533e-08
1.09631e-06
-2.74212e-09
-1.90529e-08
1.11558e-06
-2.9355e-09
-2.04733e-08
1.13633e-06
-3.15494e-09
-2.20257e-08
1.15866e-06
-3.40176e-09
-2.37111e-08
1.18272e-06
-3.67751e-09
-2.55342e-08
-3.98566e-09
-2.75088e-08
8.86925e-07
-5.07332e-11
-4.24705e-10
8.87571e-07
-1.8352e-10
-5.79377e-10
8.88387e-07
-2.95625e-10
-7.45729e-10
8.8938e-07
-3.89065e-10
-9.21502e-10
8.90555e-07
-4.63327e-10
-1.10586e-09
8.91922e-07
-5.15757e-10
-1.30519e-09
8.93504e-07
-5.44628e-10
-1.53673e-09
8.9533e-07
-5.52751e-10
-1.81193e-09
8.97432e-07
-5.50003e-10
-2.12747e-09
8.99831e-07
-5.50807e-10
-2.47237e-09
9.02548e-07
-5.66776e-10
-2.83916e-09
9.05606e-07
-6.00167e-10
-3.23536e-09
9.09038e-07
-6.44092e-10
-3.66898e-09
9.1286e-07
-6.89129e-10
-4.12659e-09
9.1708e-07
-7.28087e-10
-4.59061e-09
9.21705e-07
-7.54957e-10
-5.06184e-09
9.26759e-07
-7.63574e-10
-5.55424e-09
9.32274e-07
-7.48967e-10
-6.08034e-09
9.38281e-07
-7.09931e-10
-6.63408e-09
9.4479e-07
-6.53777e-10
-7.19249e-09
9.5181e-07
-5.96807e-10
-7.75075e-09
9.5938e-07
-5.57466e-10
-8.34182e-09
9.67571e-07
-5.47344e-10
-9.0081e-09
9.76466e-07
-5.68238e-10
-9.76466e-09
9.86134e-07
-6.15623e-10
-1.05994e-08
9.96637e-07
-6.8255e-10
-1.14999e-08
1.00804e-06
-7.60947e-10
-1.24639e-08
1.02039e-06
-8.43191e-10
-1.34903e-08
1.03375e-06
-9.24915e-10
-1.45705e-08
1.04817e-06
-1.00697e-09
-1.56863e-08
1.06367e-06
-1.09443e-09
-1.68315e-08
1.08032e-06
-1.19173e-09
-1.80349e-08
1.09822e-06
-1.29855e-09
-1.93401e-08
1.11747e-06
-1.41242e-09
-2.07742e-08
1.1382e-06
-1.53423e-09
-2.23451e-08
1.16051e-06
-1.66899e-09
-2.40515e-08
1.18456e-06
-1.8211e-09
-2.58985e-08
-1.99421e-09
-2.79029e-08
8.87401e-07
-9.37806e-11
-4.54686e-10
8.88065e-07
-2.31636e-10
-6.15279e-10
8.88897e-07
-3.4578e-10
-7.82196e-10
8.89907e-07
-4.36021e-10
-9.63453e-10
8.91104e-07
-5.01729e-10
-1.15828e-09
8.92496e-07
-5.40876e-10
-1.36697e-09
8.94101e-07
-5.51402e-10
-1.598e-09
8.95942e-07
-5.34985e-10
-1.85847e-09
8.98044e-07
-5.01057e-10
-2.15104e-09
9.00433e-07
-4.64971e-10
-2.4754e-09
9.03138e-07
-4.37649e-10
-2.8333e-09
9.06189e-07
-4.18268e-10
-3.23341e-09
9.09619e-07
-3.98308e-10
-3.67596e-09
9.13445e-07
-3.7116e-10
-4.14379e-09
9.17673e-07
-3.35087e-10
-4.62123e-09
9.22314e-07
-2.89792e-10
-5.10555e-09
9.27387e-07
-2.33563e-10
-5.60329e-09
9.32922e-07
-1.64128e-10
-6.12019e-09
9.3894e-07
-8.2747e-11
-6.64521e-09
9.45445e-07
2.54672e-12
-7.16092e-09
9.52446e-07
8.10107e-11
-7.67868e-09
9.59989e-07
1.43127e-10
-8.24344e-09
9.68153e-07
1.86944e-10
-8.89876e-09
9.77025e-07
2.14343e-10
-9.65426e-09
9.86675e-07
2.27396e-10
-1.04937e-08
9.97167e-07
2.287e-10
-1.14028e-08
1.00856e-06
2.22498e-10
-1.23752e-08
1.02091e-06
2.12059e-10
-1.34046e-08
1.03427e-06
1.95674e-10
-1.44781e-08
1.04867e-06
1.67122e-10
-1.55784e-08
1.06416e-06
1.22393e-10
-1.67075e-08
1.0808e-06
6.62998e-11
-1.79007e-08
1.09869e-06
1.04206e-11
-1.91981e-08
1.11794e-06
-3.64029e-11
-2.06207e-08
1.13865e-06
-7.5499e-11
-2.2174e-08
1.16096e-06
-1.15143e-10
-2.38604e-08
1.18499e-06
-1.61818e-10
-2.56886e-08
-2.18445e-10
-2.76747e-08
8.87436e-07
-1.13283e-10
-4.9503e-10
8.88119e-07
-2.47827e-10
-6.66234e-10
8.88971e-07
-3.58352e-10
-8.39157e-10
8.90002e-07
-4.39337e-10
-1.02837e-09
8.91223e-07
-4.90897e-10
-1.2313e-09
8.92641e-07
-5.14582e-10
-1.44431e-09
8.94269e-07
-5.10529e-10
-1.66945e-09
8.96125e-07
-4.7983e-10
-1.91041e-09
8.98228e-07
-4.29491e-10
-2.1754e-09
9.00611e-07
-3.70942e-10
-2.47654e-09
9.03309e-07
-3.1082e-10
-2.82501e-09
9.06362e-07
-2.45085e-10
-3.22559e-09
9.09797e-07
-1.65243e-10
-3.66833e-09
9.13629e-07
-6.84765e-11
-4.13456e-09
9.17865e-07
4.0393e-11
-4.61136e-09
9.22515e-07
1.53813e-10
-5.09402e-09
9.276e-07
2.6639e-10
-5.58492e-09
9.33145e-07
3.75641e-10
-6.08456e-09
9.39164e-07
4.79197e-10
-6.5809e-09
9.45658e-07
5.7345e-10
-7.0657e-09
9.52644e-07
6.5636e-10
-7.56096e-09
9.60172e-07
7.3023e-10
-8.11485e-09
9.68323e-07
8.00465e-10
-8.76521e-09
9.77184e-07
8.7013e-10
-9.5162e-09
9.86825e-07
9.37748e-10
-1.03518e-08
9.97311e-07
1.00103e-09
-1.12577e-08
1.0087e-06
1.0593e-09
-1.22241e-08
1.02104e-06
1.11056e-09
-1.32409e-08
1.03439e-06
1.14811e-09
-1.42974e-08
1.04877e-06
1.1638e-09
-1.53855e-08
1.06425e-06
1.15725e-09
-1.65153e-08
1.0809e-06
1.14054e-09
-1.77172e-08
1.09879e-06
1.13115e-09
-1.90171e-08
1.11804e-06
1.13958e-09
-2.04265e-08
1.13876e-06
1.16482e-09
-2.1955e-08
1.16106e-06
1.19941e-09
-2.36151e-08
1.18508e-06
1.23788e-09
-2.54222e-08
1.27838e-09
-2.73902e-08
8.87325e-07
-5.15796e-10
8.88027e-07
-2.35643e-10
-7.14583e-10
8.88904e-07
-3.27492e-10
-9.07644e-10
8.89961e-07
-3.88446e-10
-1.108e-09
8.91205e-07
-4.20172e-10
-1.31505e-09
8.92647e-07
-4.27356e-10
-1.52886e-09
8.94298e-07
-4.12117e-10
-1.74928e-09
8.96169e-07
-3.74805e-10
-1.97608e-09
8.98279e-07
-3.17928e-10
-2.22122e-09
9.00662e-07
-2.45702e-10
-2.50849e-09
9.03365e-07
-1.58278e-10
-2.85581e-09
9.0643e-07
-4.98736e-11
-3.25974e-09
9.09879e-07
8.39747e-11
-3.69822e-09
9.1372e-07
2.40538e-10
-4.15069e-09
9.1796e-07
4.09597e-10
-4.60876e-09
9.22609e-07
5.76985e-10
-5.07267e-09
9.27691e-07
7.32145e-10
-5.54727e-09
9.33229e-07
8.68932e-10
-6.03198e-09
9.39239e-07
9.85208e-10
-6.51572e-09
9.45724e-07
1.08282e-09
-6.99424e-09
9.52703e-07
1.16866e-09
-7.49095e-09
9.60228e-07
1.25354e-09
-8.04888e-09
9.6838e-07
1.34783e-09
-8.69873e-09
9.77238e-07
1.45497e-09
-9.44326e-09
9.86876e-07
1.57054e-09
-1.02707e-08
9.97357e-07
1.68767e-09
-1.11681e-08
1.00874e-06
1.80046e-09
-1.21221e-08
1.02107e-06
1.90283e-09
-1.31218e-08
1.03439e-06
1.98694e-09
-1.41642e-08
1.04876e-06
2.04715e-09
-1.52537e-08
1.06424e-06
2.0866e-09
-1.64029e-08
1.08089e-06
2.11846e-09
-1.76286e-08
1.0988e-06
2.1589e-09
-1.89394e-08
1.11806e-06
2.21803e-09
-2.03424e-08
1.13879e-06
2.29841e-09
-2.18552e-08
1.16109e-06
2.39832e-09
-2.35017e-08
1.18511e-06
2.51711e-09
-2.53029e-08
2.65423e-09
-2.7273e-08
8.87803e-07
-2.01418e-10
-7.56621e-10
8.88707e-07
-2.55826e-10
-9.75468e-10
8.89788e-07
-2.85446e-10
-1.18479e-09
8.91053e-07
-2.92259e-10
-1.39202e-09
8.92512e-07
-2.80805e-10
-1.60606e-09
8.9418e-07
-2.53422e-10
-1.82703e-09
8.96066e-07
-2.0954e-10
-2.05116e-09
8.98187e-07
-1.46476e-10
-2.29216e-09
9.00582e-07
-5.97752e-11
-2.58066e-09
9.03302e-07
5.59225e-11
-2.93489e-09
9.06389e-07
2.03963e-10
-3.34068e-09
9.09858e-07
3.8192e-10
-3.76645e-09
9.13709e-07
5.80395e-10
-4.1912e-09
9.17947e-07
7.8612e-10
-4.61403e-09
9.22585e-07
9.85409e-10
-5.04639e-09
9.2765e-07
1.16789e-09
-5.50064e-09
9.33171e-07
1.32621e-09
-5.97841e-09
9.39166e-07
1.4574e-09
-6.46742e-09
9.45643e-07
1.56487e-09
-6.95896e-09
9.52622e-07
1.65952e-09
-7.47048e-09
9.60157e-07
1.7578e-09
-8.03845e-09
9.68318e-07
1.87463e-09
-8.68834e-09
9.77183e-07
2.01522e-09
-9.42485e-09
9.86822e-07
2.17413e-09
-1.02425e-08
9.973e-07
2.34069e-09
-1.11311e-08
1.00867e-06
2.50414e-09
-1.20762e-08
1.02099e-06
2.65586e-09
-1.30679e-08
1.03429e-06
2.78985e-09
-1.41097e-08
1.04865e-06
2.90434e-09
-1.52125e-08
1.06412e-06
3.00366e-09
-1.63871e-08
1.08078e-06
3.09745e-09
-1.76388e-08
1.09871e-06
3.19721e-09
-1.89659e-08
1.11799e-06
3.31305e-09
-2.03758e-08
1.13872e-06
3.45365e-09
-2.18921e-08
1.16104e-06
3.62573e-09
-2.35443e-08
1.18508e-06
3.83455e-09
-2.53546e-08
4.08188e-09
-2.73379e-08
8.87164e-07
-1.48612e-10
-7.92925e-10
8.88091e-07
-1.53584e-10
-1.02863e-09
8.89191e-07
-1.46422e-10
-1.23913e-09
8.90467e-07
-1.26709e-10
-1.44204e-09
8.91936e-07
-9.52513e-11
-1.65479e-09
8.93615e-07
-5.26393e-11
-1.87935e-09
8.95514e-07
2.56395e-12
-2.11062e-09
8.97651e-07
7.81839e-11
-2.36169e-09
9.00067e-07
1.84188e-10
-2.66082e-09
9.02815e-07
3.28391e-10
-3.0201e-09
9.05928e-07
5.08434e-10
-3.41726e-09
9.09415e-07
7.1243e-10
-3.81766e-09
9.13274e-07
9.26328e-10
-4.20481e-09
9.17507e-07
1.1395e-09
-4.58662e-09
9.22131e-07
1.34497e-09
-4.98315e-09
9.27175e-07
1.5371e-09
-5.4132e-09
9.32674e-07
1.70956e-09
-5.88227e-09
9.38651e-07
1.85656e-09
-6.37668e-09
9.4512e-07
1.97855e-09
-6.88259e-09
9.52105e-07
2.08706e-09
-7.41225e-09
9.59655e-07
2.2017e-09
-7.99423e-09
9.67836e-07
2.3402e-09
-8.64638e-09
9.76715e-07
2.50966e-09
-9.37358e-09
9.8636e-07
2.70563e-09
-1.01767e-08
9.96837e-07
2.91628e-09
-1.10522e-08
1.0082e-06
3.12822e-09
-1.19893e-08
1.02051e-06
3.33128e-09
-1.29795e-08
1.0338e-06
3.52045e-09
-1.40263e-08
1.04815e-06
3.69634e-09
-1.51398e-08
1.06362e-06
3.86345e-09
-1.63296e-08
1.08029e-06
4.02806e-09
-1.75987e-08
1.09823e-06
4.1981e-09
-1.8944e-08
1.11753e-06
4.38386e-09
-2.03731e-08
1.1383e-06
4.59834e-09
-2.19075e-08
1.16064e-06
4.85436e-09
-2.35735e-08
1.18471e-06
5.16192e-09
-2.53922e-08
5.52632e-09
-2.73783e-08
8.85042e-07
-8.21898e-11
-8.18031e-10
8.85981e-07
-4.24554e-11
-1.05051e-09
8.87091e-07
-6.01929e-12
-1.24982e-09
8.88372e-07
3.29992e-11
-1.4408e-09
8.89843e-07
7.94631e-11
-1.64547e-09
8.91523e-07
1.35935e-10
-1.86911e-09
8.93429e-07
2.04824e-10
-2.10797e-09
8.95582e-07
2.93784e-10
-2.36924e-09
8.98023e-07
4.14031e-10
-2.67084e-09
9.00796e-07
5.7076e-10
-3.01519e-09
9.03929e-07
7.56083e-10
-3.38029e-09
9.07428e-07
9.53768e-10
-3.74049e-09
9.11292e-07
1.14979e-09
-4.08729e-09
9.15524e-07
1.33794e-09
-4.43041e-09
9.2014e-07
1.51821e-09
-4.78909e-09
9.25169e-07
1.69184e-09
-5.18431e-09
9.30649e-07
1.85603e-09
-5.62666e-09
9.36609e-07
2.00383e-09
-6.1071e-09
9.43069e-07
2.13298e-09
-6.61465e-09
9.50061e-07
2.25355e-09
-7.15812e-09
9.57633e-07
2.38345e-09
-7.75328e-09
9.6584e-07
2.53753e-09
-8.40499e-09
9.74742e-07
2.722e-09
-9.11433e-09
9.84401e-07
2.93481e-09
-9.88789e-09
9.94882e-07
3.16722e-09
-1.07318e-08
1.00625e-06
3.40734e-09
-1.1643e-08
1.01855e-06
3.64497e-09
-1.26157e-08
1.03184e-06
3.87467e-09
-1.36499e-08
1.04619e-06
4.09749e-09
-1.47511e-08
1.06167e-06
4.31886e-09
-1.59307e-08
1.07835e-06
4.54443e-09
-1.71948e-08
1.09631e-06
4.77968e-09
-1.85423e-08
1.11564e-06
5.03258e-09
-1.99774e-08
1.13643e-06
5.31509e-09
-2.15129e-08
1.15881e-06
5.64099e-09
-2.31677e-08
1.18291e-06
6.02251e-09
-2.4961e-08
6.46829e-09
-2.69073e-08
8.76927e-07
-2.51752e-11
-8.17083e-10
8.77874e-07
2.56194e-11
-1.01456e-09
8.78985e-07
6.59031e-11
-1.18292e-09
8.80261e-07
1.03106e-10
-1.34654e-09
8.81722e-07
1.44842e-10
-1.52618e-09
8.83392e-07
1.95181e-10
-1.729e-09
8.85293e-07
2.55897e-10
-1.95261e-09
8.87453e-07
3.31463e-10
-2.19769e-09
8.89908e-07
4.28362e-10
-2.46929e-09
8.92696e-07
5.47989e-10
-2.76447e-09
8.95839e-07
6.82493e-10
-3.06983e-09
8.99347e-07
8.19561e-10
-3.37325e-09
9.03219e-07
9.50084e-10
-3.67228e-09
9.07458e-07
1.07142e-09
-3.97275e-09
9.12076e-07
1.18639e-09
-4.28676e-09
9.171e-07
1.29976e-09
-4.6318e-09
9.22566e-07
1.41262e-09
-5.02188e-09
9.28507e-07
1.5207e-09
-5.45796e-09
9.34955e-07
1.62178e-09
-5.93738e-09
9.4195e-07
1.7223e-09
-6.46402e-09
9.4954e-07
1.83289e-09
-7.03896e-09
9.57772e-07
1.96068e-09
-7.65552e-09
9.66697e-07
2.10817e-09
-8.31104e-09
9.76372e-07
2.27534e-09
-9.01503e-09
9.86861e-07
2.45889e-09
-9.78059e-09
9.98228e-07
2.65219e-09
-1.06121e-08
1.01053e-06
2.84833e-09
-1.15084e-08
1.02383e-06
3.04282e-09
-1.24679e-08
1.03819e-06
3.23638e-09
-1.34934e-08
1.05367e-06
3.43426e-09
-1.45956e-08
1.07035e-06
3.64139e-09
-1.5782e-08
1.08832e-06
3.86074e-09
-1.70526e-08
1.10767e-06
4.09576e-09
-1.84078e-08
1.12848e-06
4.35251e-09
-1.98516e-08
1.15088e-06
4.63996e-09
-2.13959e-08
1.17499e-06
4.96786e-09
-2.30559e-08
5.34438e-09
-2.48447e-08
8.28977e-07
-7.87325e-10
8.2992e-07
-9.17484e-10
8.31019e-07
-1.03298e-09
8.32272e-07
-1.1503e-09
8.33699e-07
-1.28219e-09
8.35328e-07
-1.4333e-09
8.37185e-07
-1.60186e-09
8.39302e-07
-1.78541e-09
8.41714e-07
-1.98365e-09
8.44457e-07
-2.19523e-09
8.47556e-07
-2.41607e-09
8.51018e-07
-2.64267e-09
8.54843e-07
-2.87491e-09
8.59031e-07
-3.11594e-09
8.63589e-07
-3.37163e-09
8.6854e-07
-3.6513e-09
8.73918e-07
-3.96546e-09
8.7976e-07
-4.32128e-09
8.86103e-07
-4.72197e-09
8.92992e-07
-5.16614e-09
9.00471e-07
-5.64654e-09
9.08587e-07
-6.1549e-09
9.17385e-07
-6.68944e-09
9.26918e-07
-7.25842e-09
9.37252e-07
-7.8744e-09
9.48449e-07
-8.54535e-09
9.60571e-07
-9.27394e-09
9.73674e-07
-1.00598e-08
9.87814e-07
-1.09034e-08
1.00306e-06
-1.18106e-08
1.01949e-06
-1.27856e-08
1.03718e-06
-1.38287e-08
1.05621e-06
-1.49407e-08
1.07669e-06
-1.61235e-08
1.09871e-06
-1.73841e-08
1.12241e-06
-1.87321e-08
-2.01748e-08
9.04975e-07
1.52293e-11
-9.805e-10
9.0559e-07
-2.25432e-11
-1.16745e-09
9.06363e-07
-5.55118e-11
-1.37935e-09
9.07308e-07
-8.29205e-11
-1.62805e-09
9.08435e-07
-1.03236e-10
-1.91735e-09
9.09762e-07
-1.19325e-10
-2.24819e-09
9.11316e-07
-1.41057e-10
-2.62474e-09
9.13134e-07
-1.78993e-10
-3.05119e-09
9.15252e-07
-2.36107e-10
-3.52072e-09
9.17699e-07
-3.08145e-10
-4.01522e-09
9.20489e-07
-3.89731e-10
-4.51827e-09
9.23635e-07
-4.79083e-10
-5.02448e-09
9.27151e-07
-5.75814e-10
-5.53854e-09
9.31051e-07
-6.74703e-10
-6.06964e-09
9.35344e-07
-7.67379e-10
-6.62836e-09
9.40045e-07
-8.50257e-10
-7.22961e-09
9.45178e-07
-9.25827e-10
-7.89313e-09
9.50779e-07
-9.97742e-10
-8.63657e-09
9.56887e-07
-1.06617e-09
-9.46804e-09
9.63536e-07
-1.12637e-09
-1.03827e-08
9.70753e-07
-1.17436e-09
-1.13684e-08
9.78567e-07
-1.215e-09
-1.24193e-08
9.87027e-07
-1.26041e-09
-1.35438e-08
9.96194e-07
-1.31968e-09
-1.47572e-08
1.00614e-06
-1.39333e-09
-1.60716e-08
1.01693e-06
-1.47748e-09
-1.7493e-08
1.02862e-06
-1.56901e-09
-1.90236e-08
1.04129e-06
-1.66595e-09
-2.0664e-08
1.055e-06
-1.76535e-09
-2.24107e-08
1.06978e-06
-1.86215e-09
-2.42569e-08
1.0857e-06
-1.95296e-09
-2.61974e-08
1.1028e-06
-2.04251e-09
-2.82386e-08
1.12117e-06
-2.14234e-09
-3.04029e-08
1.1409e-06
-2.26258e-09
-3.27198e-08
1.16213e-06
-2.40702e-09
-3.5216e-08
1.18497e-06
-2.57466e-09
-3.79112e-08
1.20956e-06
-2.76417e-09
-4.08188e-08
-2.97597e-09
-4.39532e-08
9.4691e-07
1.32268e-11
-9.44539e-10
9.47556e-07
-4.76856e-11
-1.2007e-09
9.48378e-07
-1.00158e-10
-1.48154e-09
9.49386e-07
-1.43989e-10
-1.79195e-09
9.50591e-07
-1.7862e-10
-2.131e-09
9.52011e-07
-2.07882e-10
-2.50376e-09
9.53667e-07
-2.42266e-10
-2.93112e-09
9.55587e-07
-2.92931e-10
-3.43209e-09
9.57797e-07
-3.63817e-10
-4.00027e-09
9.60319e-07
-4.52148e-10
-4.61207e-09
9.63171e-07
-5.53957e-10
-5.2461e-09
9.66371e-07
-6.67275e-10
-5.89724e-09
9.69935e-07
-7.89701e-10
-6.57571e-09
9.73882e-07
-9.13536e-10
-7.28573e-09
9.78224e-07
-1.02888e-09
-8.02276e-09
9.82982e-07
-1.13142e-09
-8.7965e-09
9.88182e-07
-1.22269e-09
-9.63221e-09
9.93854e-07
-1.30501e-09
-1.05525e-08
1.00003e-06
-1.3778e-09
-1.15645e-08
1.00675e-06
-1.43713e-09
-1.26541e-08
1.01404e-06
-1.48197e-09
-1.38009e-08
1.02193e-06
-1.52123e-09
-1.50076e-08
1.03048e-06
-1.57014e-09
-1.62996e-08
1.03976e-06
-1.63932e-09
-1.76998e-08
1.04981e-06
-1.72964e-09
-1.9214e-08
1.06072e-06
-1.83644e-09
-2.08417e-08
1.07253e-06
-1.95474e-09
-2.25879e-08
1.08533e-06
-2.0798e-09
-2.44586e-08
1.09916e-06
-2.20585e-09
-2.64537e-08
1.11408e-06
-2.32634e-09
-2.85654e-08
1.13017e-06
-2.43842e-09
-3.07862e-08
1.14747e-06
-2.54875e-09
-3.31318e-08
1.1661e-06
-2.67097e-09
-3.56412e-08
1.18613e-06
-2.81673e-09
-3.83518e-08
1.2077e-06
-2.9911e-09
-4.12879e-08
1.23093e-06
-3.19427e-09
-4.44641e-08
1.25596e-06
-3.42539e-09
-4.78942e-08
-3.68517e-09
-5.15971e-08
9.52484e-07
-3.43226e-12
-9.06005e-10
9.53153e-07
-7.77752e-11
-1.21185e-09
9.54007e-07
-1.41212e-10
-1.53997e-09
9.55054e-07
-1.94049e-10
-1.88836e-09
9.56305e-07
-2.36309e-10
-2.2565e-09
9.57774e-07
-2.70677e-10
-2.65632e-09
9.59479e-07
-3.04678e-10
-3.11686e-09
9.61443e-07
-3.46892e-10
-3.65822e-09
9.63685e-07
-4.01897e-10
-4.27318e-09
9.66226e-07
-4.70487e-10
-4.93967e-09
9.69084e-07
-5.51737e-10
-5.63983e-09
9.72281e-07
-6.44124e-10
-6.37647e-09
9.75839e-07
-7.44264e-10
-7.16234e-09
9.79775e-07
-8.44513e-10
-7.98889e-09
9.84106e-07
-9.36392e-10
-8.83892e-09
9.88854e-07
-1.01598e-09
-9.71886e-09
9.94043e-07
-1.08285e-09
-1.06535e-08
9.99704e-07
-1.13716e-09
-1.16656e-08
1.00586e-06
-1.17847e-09
-1.27563e-08
1.01255e-06
-1.20592e-09
-1.39005e-08
1.0198e-06
-1.22238e-09
-1.50815e-08
1.02765e-06
-1.23813e-09
-1.63237e-08
1.03616e-06
-1.26661e-09
-1.76733e-08
1.04539e-06
-1.31629e-09
-1.91561e-08
1.05539e-06
-1.38764e-09
-2.07684e-08
1.06624e-06
-1.47638e-09
-2.25024e-08
1.078e-06
-1.57707e-09
-2.43604e-08
1.09073e-06
-1.68365e-09
-2.63469e-08
1.10448e-06
-1.78975e-09
-2.84585e-08
1.11933e-06
-1.89004e-09
-3.06804e-08
1.13533e-06
-1.98315e-09
-3.30052e-08
1.15257e-06
-2.07491e-09
-3.54633e-08
1.17113e-06
-2.17564e-09
-3.81094e-08
1.19112e-06
-2.29389e-09
-4.09867e-08
1.21266e-06
-2.43414e-09
-4.41172e-08
1.23586e-06
-2.59782e-09
-4.75092e-08
1.26086e-06
-2.78481e-09
-5.11753e-08
-2.99634e-09
-5.51395e-08
9.53529e-07
-3.05197e-11
-8.98053e-10
9.54217e-07
-1.10796e-10
-1.23369e-09
9.55093e-07
-1.7861e-10
-1.58505e-09
9.56166e-07
-2.34193e-10
-1.9543e-09
9.57445e-07
-2.77286e-10
-2.34336e-09
9.58941e-07
-3.08827e-10
-2.76347e-09
9.60672e-07
-3.33131e-10
-3.23875e-09
9.62654e-07
-3.56067e-10
-3.78496e-09
9.64907e-07
-3.82664e-10
-4.39962e-09
9.67451e-07
-4.16505e-10
-5.07028e-09
9.70307e-07
-4.58767e-10
-5.78846e-09
9.735e-07
-5.08438e-10
-6.5638e-09
9.77052e-07
-5.62311e-10
-7.40362e-09
9.80984e-07
-6.14402e-10
-8.28827e-09
9.85312e-07
-6.59109e-10
-9.19615e-09
9.90058e-07
-6.93896e-10
-1.01295e-08
9.95245e-07
-7.17513e-10
-1.1107e-08
1.0009e-06
-7.29212e-10
-1.21452e-08
1.00706e-06
-7.29415e-10
-1.3236e-08
1.01373e-06
-7.19801e-10
-1.43516e-08
1.02095e-06
-7.05036e-10
-1.54919e-08
1.02877e-06
-6.93603e-10
-1.6706e-08
1.03725e-06
-6.94412e-10
-1.80539e-08
1.04644e-06
-7.12462e-10
-1.95595e-08
1.05641e-06
-7.47688e-10
-2.12103e-08
1.06722e-06
-7.97154e-10
-2.2992e-08
1.07894e-06
-8.56701e-10
-2.49014e-08
1.09162e-06
-9.2132e-10
-2.69361e-08
1.10533e-06
-9.86564e-10
-2.90845e-08
1.12013e-06
-1.04954e-09
-3.13252e-08
1.13608e-06
-1.10958e-09
-3.36569e-08
1.15327e-06
-1.16944e-09
-3.61258e-08
1.17178e-06
-1.23363e-09
-3.8796e-08
1.19173e-06
-1.30607e-09
-4.17102e-08
1.21323e-06
-1.3898e-09
-4.4886e-08
1.23639e-06
-1.48699e-09
-4.83292e-08
1.26136e-06
-1.59808e-09
-5.20541e-08
-1.72445e-09
-5.60878e-08
9.53733e-07
-5.84206e-11
-9.37911e-10
9.54433e-07
-1.374e-10
-1.28899e-09
9.55325e-07
-2.04087e-10
-1.64868e-09
9.56416e-07
-2.57218e-10
-2.03089e-09
9.57713e-07
-2.95896e-10
-2.43687e-09
9.59227e-07
-3.19846e-10
-2.8704e-09
9.60973e-07
-3.31067e-10
-3.34529e-09
9.62964e-07
-3.33301e-10
-3.87283e-09
9.65221e-07
-3.31321e-10
-4.45888e-09
9.67764e-07
-3.29499e-10
-5.10525e-09
9.70617e-07
-3.2959e-10
-5.81594e-09
9.73808e-07
-3.30976e-10
-6.60148e-09
9.77359e-07
-3.31319e-10
-7.45861e-09
9.81291e-07
-3.27212e-10
-8.36301e-09
9.85622e-07
-3.16789e-10
-9.29426e-09
9.90371e-07
-3.00064e-10
-1.02488e-08
9.95563e-07
-2.76752e-10
-1.12358e-08
1.00122e-06
-2.46727e-10
-1.22625e-08
1.00737e-06
-2.11316e-10
-1.33145e-08
1.01404e-06
-1.72605e-10
-1.4373e-08
1.02125e-06
-1.34049e-10
-1.54591e-08
1.02905e-06
-1.00055e-10
-1.66378e-08
1.0375e-06
-7.43155e-11
-1.79715e-08
1.04667e-06
-5.8702e-11
-1.94774e-08
1.05662e-06
-5.31365e-11
-2.11379e-08
1.06741e-06
-5.66497e-11
-2.29357e-08
1.07911e-06
-6.75837e-11
-2.48618e-08
1.09177e-06
-8.38662e-11
-2.6906e-08
1.10547e-06
-1.0439e-10
-2.90503e-08
1.12024e-06
-1.28504e-10
-3.12752e-08
1.13617e-06
-1.54948e-10
-3.35906e-08
1.15333e-06
-1.82421e-10
-3.60504e-08
1.17182e-06
-2.09844e-10
-3.87145e-08
1.19175e-06
-2.37002e-10
-4.16175e-08
1.21323e-06
-2.65218e-10
-4.47752e-08
1.23638e-06
-2.96507e-10
-4.81985e-08
1.26133e-06
-3.31309e-10
-5.19067e-08
-3.70045e-10
-5.59271e-08
9.53736e-07
-8.12128e-11
-9.90746e-10
9.54447e-07
-1.49692e-10
-1.36482e-09
9.55352e-07
-2.08221e-10
-1.74024e-09
9.56458e-07
-2.53412e-10
-2.1376e-09
9.5777e-07
-2.83445e-10
-2.55638e-09
9.59299e-07
-2.97216e-10
-2.99601e-09
9.61056e-07
-2.95284e-10
-3.46233e-09
9.63055e-07
-2.79789e-10
-3.96289e-09
9.65315e-07
-2.54184e-10
-4.5116e-09
9.67857e-07
-2.21524e-10
-5.12709e-09
9.70711e-07
-1.82856e-10
-5.8253e-09
9.73903e-07
-1.38011e-10
-6.61085e-09
9.77457e-07
-8.63265e-11
-7.46754e-09
9.81392e-07
-2.78094e-11
-8.36904e-09
9.85726e-07
3.52775e-11
-9.29754e-09
9.90479e-07
1.00019e-10
-1.02471e-08
9.95675e-07
1.64494e-10
-1.12215e-08
1.00134e-06
2.27673e-10
-1.2221e-08
1.00749e-06
2.8859e-10
-1.32307e-08
1.01415e-06
3.46539e-10
-1.42445e-08
1.02135e-06
4.01369e-10
-1.52979e-08
1.02914e-06
4.53373e-10
-1.64598e-08
1.03758e-06
5.0294e-10
-1.77852e-08
1.04674e-06
5.50303e-10
-1.92842e-08
1.05668e-06
5.95103e-10
-2.09393e-08
1.06746e-06
6.36258e-10
-2.27333e-08
1.07915e-06
6.72518e-10
-2.46521e-08
1.0918e-06
7.02396e-10
-2.6681e-08
1.10548e-06
7.23914e-10
-2.88046e-08
1.12025e-06
7.36437e-10
-3.10153e-08
1.13617e-06
7.42383e-10
-3.33325e-08
1.15333e-06
7.46143e-10
-3.58028e-08
1.17181e-06
7.52543e-10
-3.84677e-08
1.19174e-06
7.64972e-10
-4.13513e-08
1.21321e-06
7.84194e-10
-4.44751e-08
1.23635e-06
8.09788e-10
-4.78631e-08
1.2613e-06
8.4272e-10
-5.15432e-08
8.84072e-10
-5.55416e-08
9.53677e-07
-1.02092e-09
9.54397e-07
-1.44407e-10
-1.43985e-09
9.55314e-07
-1.85856e-10
-1.84772e-09
9.56433e-07
-2.17093e-10
-2.26338e-09
9.5776e-07
-2.34778e-10
-2.6901e-09
9.59302e-07
-2.36681e-10
-3.1319e-09
9.61071e-07
-2.222e-10
-3.59139e-09
9.63079e-07
-1.9193e-10
-4.07178e-09
9.65344e-07
-1.46879e-10
-4.59309e-09
9.6789e-07
-8.73425e-11
-5.18944e-09
9.70749e-07
-1.32288e-11
-5.88438e-09
9.73948e-07
7.39938e-11
-6.67063e-09
9.77508e-07
1.7211e-10
-7.51681e-09
9.81447e-07
2.77006e-10
-8.39445e-09
9.85783e-07
3.8329e-10
-9.29207e-09
9.90535e-07
4.86245e-10
-1.02114e-08
9.95729e-07
5.82626e-10
-1.11594e-08
1.00139e-06
6.70688e-10
-1.21345e-08
1.00754e-06
7.49905e-10
-1.31235e-08
1.01419e-06
8.21609e-10
-1.41255e-08
1.02139e-06
8.89319e-10
-1.51776e-08
1.02918e-06
9.57327e-10
-1.63427e-08
1.03762e-06
1.02899e-09
-1.76659e-08
1.04678e-06
1.10572e-09
-1.91553e-08
1.05671e-06
1.18659e-09
-2.07983e-08
1.06749e-06
1.26873e-09
-2.25792e-08
1.07917e-06
1.34828e-09
-2.44804e-08
1.09182e-06
1.4209e-09
-2.64866e-08
1.10549e-06
1.48261e-09
-2.85933e-08
1.12025e-06
1.53234e-09
-3.08082e-08
1.13617e-06
1.5733e-09
-3.31522e-08
1.15333e-06
1.61102e-09
-3.56538e-08
1.17182e-06
1.65191e-09
-3.83326e-08
1.19175e-06
1.70152e-09
-4.12075e-08
1.21323e-06
1.76345e-09
-4.43104e-08
1.23637e-06
1.84049e-09
-4.76797e-08
1.26133e-06
1.93658e-09
-5.13512e-08
2.05443e-09
-5.53519e-08
9.54286e-07
-1.22492e-10
-1.50537e-09
9.55214e-07
-1.38558e-10
-1.95086e-09
9.56344e-07
-1.50746e-10
-2.3814e-09
9.57682e-07
-1.53351e-10
-2.81121e-09
9.59236e-07
-1.42104e-10
-3.2546e-09
9.61016e-07
-1.14885e-10
-3.71429e-09
9.63033e-07
-7.06329e-11
-4.19001e-09
9.65306e-07
-7.449e-12
-4.70482e-09
9.67862e-07
7.69771e-11
-5.30092e-09
9.70732e-07
1.83596e-10
-6.00111e-09
9.73941e-07
3.08363e-10
-6.78402e-09
9.77508e-07
4.43634e-10
-7.60566e-09
9.81451e-07
5.816e-10
-8.43805e-09
9.85785e-07
7.16157e-10
-9.28124e-09
9.90534e-07
8.43148e-10
-1.0152e-08
9.95722e-07
9.60061e-10
-1.10668e-08
1.00138e-06
1.06529e-09
-1.20273e-08
1.00752e-06
1.15824e-09
-1.30186e-08
1.01417e-06
1.24151e-09
-1.4034e-08
1.02138e-06
1.32137e-09
-1.51037e-08
1.02917e-06
1.40488e-09
-1.62813e-08
1.03762e-06
1.4972e-09
-1.7604e-08
1.04678e-06
1.60043e-09
-1.90817e-08
1.05672e-06
1.71345e-09
-2.07093e-08
1.0675e-06
1.83231e-09
-2.24749e-08
1.07918e-06
1.95127e-09
-2.43607e-08
1.09183e-06
2.06406e-09
-2.63539e-08
1.10549e-06
2.16533e-09
-2.84591e-08
1.12025e-06
2.25395e-09
-3.06918e-08
1.13617e-06
2.33361e-09
-3.30701e-08
1.15334e-06
2.4097e-09
-3.56074e-08
1.17185e-06
2.48874e-09
-3.83096e-08
1.19179e-06
2.57745e-09
-4.11954e-08
1.21329e-06
2.68219e-09
-4.43034e-08
1.23645e-06
2.80977e-09
-4.76789e-08
1.26143e-06
2.96772e-09
-5.13605e-08
3.16148e-09
-5.53771e-08
9.53974e-07
-8.81739e-11
-1.55791e-09
9.54909e-07
-7.57102e-11
-2.02619e-09
9.56046e-07
-6.77439e-11
-2.45954e-09
9.57391e-07
-5.5564e-11
-2.88452e-09
9.58952e-07
-3.21081e-11
-3.3255e-09
9.60739e-07
6.60686e-12
-3.7878e-09
9.62764e-07
6.38044e-11
-4.2705e-09
9.65047e-07
1.42853e-10
-4.79497e-09
9.67615e-07
2.48293e-10
-5.39989e-09
9.70497e-07
3.79989e-10
-6.09862e-09
9.73718e-07
5.30325e-10
-6.85979e-09
9.77294e-07
6.87263e-10
-7.63757e-09
9.81241e-07
8.40374e-10
-8.41056e-09
9.85576e-07
9.8417e-10
-9.19e-09
9.90323e-07
1.11738e-09
-1.00039e-08
9.95507e-07
1.24038e-09
-1.08781e-08
1.00116e-06
1.35248e-09
-1.18198e-08
1.0073e-06
1.45256e-09
-1.28124e-08
1.01396e-06
1.54366e-09
-1.38432e-08
1.02117e-06
1.63344e-09
-1.49348e-08
1.02898e-06
1.72989e-09
-1.61286e-08
1.03744e-06
1.83844e-09
-1.74513e-08
1.04662e-06
1.96153e-09
-1.89124e-08
1.05657e-06
2.09862e-09
-2.05153e-08
1.06736e-06
2.24568e-09
-2.2257e-08
1.07905e-06
2.39615e-09
-2.41246e-08
1.0917e-06
2.54236e-09
-2.61083e-08
1.10538e-06
2.67764e-09
-2.82138e-08
1.12015e-06
2.80107e-09
-3.04559e-08
1.13609e-06
2.91711e-09
-3.28517e-08
1.15328e-06
3.03103e-09
-3.54107e-08
1.17181e-06
3.14844e-09
-3.81357e-08
1.19178e-06
3.27558e-09
-4.10437e-08
1.21331e-06
3.42037e-09
-4.41694e-08
1.23651e-06
3.59294e-09
-4.75554e-08
1.26152e-06
3.8041e-09
-5.12387e-08
4.06302e-09
-5.52498e-08
9.52803e-07
-4.98773e-11
-1.58942e-09
9.53742e-07
-1.6083e-11
-2.04859e-09
9.54882e-07
5.70834e-12
-2.46346e-09
9.56227e-07
2.6807e-11
-2.8684e-09
9.57787e-07
5.68148e-11
-3.29358e-09
9.59571e-07
1.0158e-10
-3.74901e-09
9.61597e-07
1.64275e-10
-4.23408e-09
9.63884e-07
2.49069e-10
-4.76256e-09
9.6646e-07
3.60151e-10
-5.35844e-09
9.69352e-07
4.9634e-10
-6.02394e-09
9.72584e-07
6.48033e-10