/*--------------------------------*- C++ -*----------------------------------*\
| =========                 |                                                 |
| \\      /  F ield         | OpenFOAM: The Open Source CFD Toolbox           |
|  \\    /   O peration     | Version:  2.3.1                                 |
|   \\  /    A nd           | Web:      www.OpenFOAM.org                      |
|    \\/     M anipulation  |                                                 |
\*---------------------------------------------------------------------------*/
FoamFile
{
    version     2.0;
    format      ascii;
    class       surfaceScalarField;
    location    "10";
    object      phi_0;
}
// * * * * * * * * * * * * * * * * * * * * * * * * * * * * * * * * * * * * * //

dimensions      [0 3 -1 0 0 0 0];

internalField   nonuniform List<scalar> 
108425
(
8.2913e-07
3.66494e-11
-5.00158e-10
8.2973e-07
-2.54412e-11
-5.74662e-10
8.30476e-07
-8.51578e-11
-6.61196e-10
8.31382e-07
-1.38844e-10
-7.66685e-10
8.32458e-07
-1.83636e-10
-8.92855e-10
8.3372e-07
-2.2145e-10
-1.04018e-09
8.35194e-07
-2.61461e-10
-1.21212e-09
8.36921e-07
-3.14368e-10
-1.41254e-09
8.38943e-07
-3.84271e-10
-1.63799e-09
8.41289e-07
-4.68838e-10
-1.87682e-09
8.43971e-07
-5.64736e-10
-2.11781e-09
8.47e-07
-6.71708e-10
-2.35722e-09
8.50388e-07
-7.90531e-10
-2.59779e-09
8.54149e-07
-9.16161e-10
-2.84432e-09
8.58289e-07
-1.03871e-09
-3.10197e-09
8.62821e-07
-1.15249e-09
-3.37855e-09
8.67765e-07
-1.25876e-09
-3.68536e-09
8.73158e-07
-1.36082e-09
-4.03293e-09
8.79043e-07
-1.45889e-09
-4.42567e-09
8.85452e-07
-1.54894e-09
-4.85962e-09
8.92407e-07
-1.62929e-09
-5.32585e-09
8.99934e-07
-1.70829e-09
-5.81934e-09
9.08079e-07
-1.80085e-09
-6.34411e-09
9.16905e-07
-1.91655e-09
-6.90887e-09
9.26479e-07
-2.05409e-09
-7.52039e-09
9.36868e-07
-2.2073e-09
-8.18178e-09
9.48135e-07
-2.37189e-09
-8.89442e-09
9.60339e-07
-2.54562e-09
-9.65885e-09
9.73538e-07
-2.72571e-09
-1.04733e-08
9.87778e-07
-2.90761e-09
-1.13329e-08
1.0031e-06
-3.08898e-09
-1.22335e-08
1.01955e-06
-3.27657e-09
-1.31773e-08
1.03721e-06
-3.48411e-09
-1.41757e-08
1.05618e-06
-3.72252e-09
-1.52445e-08
1.07657e-06
-3.99529e-09
-1.63971e-08
1.09852e-06
-4.30086e-09
-1.76425e-08
1.12214e-06
-4.63795e-09
-1.89871e-08
-5.00864e-09
-2.0437e-08
8.76964e-07
4.01483e-11
-4.7094e-10
8.7758e-07
-6.10655e-11
-5.79927e-10
8.78354e-07
-1.54952e-10
-7.04001e-10
8.79297e-07
-2.37184e-10
-8.45199e-10
8.80419e-07
-3.05233e-10
-1.00078e-09
8.81732e-07
-3.61526e-10
-1.17265e-09
8.83261e-07
-4.14577e-10
-1.37578e-09
8.85047e-07
-4.74328e-10
-1.62553e-09
8.87127e-07
-5.46815e-10
-1.91781e-09
8.89527e-07
-6.34466e-10
-2.23413e-09
8.92259e-07
-7.39072e-10
-2.55797e-09
8.95336e-07
-8.63037e-10
-2.88553e-09
8.98775e-07
-1.00535e-09
-3.22443e-09
9.02593e-07
-1.15632e-09
-3.57788e-09
9.06798e-07
-1.3023e-09
-3.94125e-09
9.114e-07
-1.43491e-09
-4.31925e-09
9.16422e-07
-1.5524e-09
-4.72903e-09
9.21903e-07
-1.65511e-09
-5.18639e-09
9.27881e-07
-1.74121e-09
-5.69604e-09
9.34387e-07
-1.80803e-09
-6.24686e-09
9.41441e-07
-1.86088e-09
-6.82187e-09
9.4907e-07
-1.91796e-09
-7.41946e-09
9.57326e-07
-2.00099e-09
-8.05579e-09
9.66276e-07
-2.12079e-09
-8.74597e-09
9.75989e-07
-2.27368e-09
-9.4929e-09
9.86526e-07
-2.45015e-09
-1.0295e-08
9.97952e-07
-2.64211e-09
-1.11552e-08
1.01033e-06
-2.84328e-09
-1.20777e-08
1.02371e-06
-3.0473e-09
-1.30622e-08
1.03815e-06
-3.24787e-09
-1.41016e-08
1.0537e-06
-3.4444e-09
-1.51879e-08
1.0704e-06
-3.64774e-09
-1.6328e-08
1.08833e-06
-3.87457e-09
-1.75464e-08
1.10761e-06
-4.13669e-09
-1.88659e-08
1.12835e-06
-4.43773e-09
-2.02994e-08
1.15068e-06
-4.77665e-09
-2.18525e-08
1.17473e-06
-5.15282e-09
-2.3531e-08
-5.56907e-09
-2.53452e-08
8.84944e-07
5.30127e-12
-4.35255e-10
8.85573e-07
-1.17078e-10
-5.72943e-10
8.86369e-07
-2.25206e-10
-7.26403e-10
8.87341e-07
-3.1786e-10
-8.90949e-10
8.88493e-07
-3.94048e-10
-1.06338e-09
8.89836e-07
-4.53853e-10
-1.25039e-09
8.91394e-07
-4.99988e-10
-1.47332e-09
8.93206e-07
-5.37992e-10
-1.74817e-09
8.95304e-07
-5.75973e-10
-2.06894e-09
8.97711e-07
-6.23622e-10
-2.41731e-09
9.0044e-07
-6.8929e-10
-2.77887e-09
9.03509e-07
-7.76647e-10
-3.15577e-09
9.06945e-07
-8.81574e-10
-3.55898e-09
9.10764e-07
-9.92949e-10
-3.9833e-09
9.14975e-07
-1.09889e-09
-4.41441e-09
9.19587e-07
-1.19099e-09
-4.85516e-09
9.24622e-07
-1.26387e-09
-5.32365e-09
9.30117e-07
-1.31356e-09
-5.83662e-09
9.36108e-07
-1.33716e-09
-6.39507e-09
9.42616e-07
-1.33704e-09
-6.97912e-09
9.49654e-07
-1.32685e-09
-7.57243e-09
9.57255e-07
-1.32921e-09
-8.18911e-09
9.65479e-07
-1.36393e-09
-8.86109e-09
9.74402e-07
-1.43796e-09
-9.60571e-09
9.84092e-07
-1.54618e-09
-1.0418e-08
9.94611e-07
-1.6789e-09
-1.12905e-08
1.00602e-06
-1.82646e-09
-1.22244e-08
1.01838e-06
-1.98e-09
-1.32234e-08
1.03175e-06
-2.132e-09
-1.42846e-08
1.04618e-06
-2.27817e-09
-1.5395e-08
1.0617e-06
-2.42141e-09
-1.65448e-08
1.07837e-06
-2.57217e-09
-1.77513e-08
1.09629e-06
-2.74134e-09
-1.90507e-08
1.11556e-06
-2.93466e-09
-2.04709e-08
1.1363e-06
-3.15404e-09
-2.20231e-08
1.15863e-06
-3.4008e-09
-2.37084e-08
1.18269e-06
-3.6765e-09
-2.55313e-08
-3.9846e-09
-2.75058e-08
8.86928e-07
-5.07675e-11
-4.24664e-10
8.87573e-07
-1.83547e-10
-5.79301e-10
8.88389e-07
-2.95639e-10
-7.45618e-10
8.89382e-07
-3.89062e-10
-9.2136e-10
8.90557e-07
-4.63304e-10
-1.10569e-09
8.91924e-07
-5.15714e-10
-1.30499e-09
8.93505e-07
-5.44571e-10
-1.5365e-09
8.95331e-07
-5.52684e-10
-1.81168e-09
8.97432e-07
-5.49928e-10
-2.12718e-09
8.99832e-07
-5.50723e-10
-2.47204e-09
9.02548e-07
-5.66678e-10
-2.83879e-09
9.05606e-07
-6.00053e-10
-3.23494e-09
9.09037e-07
-6.43961e-10
-3.66851e-09
9.12859e-07
-6.88981e-10
-4.12606e-09
9.17078e-07
-7.27923e-10
-4.59003e-09
9.21703e-07
-7.54778e-10
-5.06121e-09
9.26756e-07
-7.63383e-10
-5.55355e-09
9.32271e-07
-7.48767e-10
-6.07958e-09
9.38277e-07
-7.09726e-10
-6.63326e-09
9.44785e-07
-6.53572e-10
-7.19159e-09
9.51804e-07
-5.966e-10
-7.74979e-09
9.59373e-07
-5.57255e-10
-8.34078e-09
9.67563e-07
-5.47124e-10
-9.00699e-09
9.76457e-07
-5.68004e-10
-9.76345e-09
9.86124e-07
-6.15367e-10
-1.05981e-08
9.96626e-07
-6.82268e-10
-1.14985e-08
1.00802e-06
-7.60633e-10
-1.24623e-08
1.02037e-06
-8.42842e-10
-1.34886e-08
1.03374e-06
-9.2453e-10
-1.45687e-08
1.04815e-06
-1.00655e-09
-1.56844e-08
1.06365e-06
-1.09397e-09
-1.68295e-08
1.0803e-06
-1.19123e-09
-1.80328e-08
1.0982e-06
-1.29801e-09
-1.93378e-08
1.11745e-06
-1.41185e-09
-2.07717e-08
1.13817e-06
-1.53362e-09
-2.23424e-08
1.16048e-06
-1.66834e-09
-2.40486e-08
1.18452e-06
-1.82043e-09
-2.58955e-08
-1.99351e-09
-2.78997e-08
8.87403e-07
-9.38145e-11
-4.54653e-10
8.88067e-07
-2.31665e-10
-6.15213e-10
8.88899e-07
-3.45799e-10
-7.82096e-10
8.89909e-07
-4.36027e-10
-9.63319e-10
8.91106e-07
-5.01721e-10
-1.15811e-09
8.92498e-07
-5.40856e-10
-1.36677e-09
8.94102e-07
-5.51373e-10
-1.59776e-09
8.95943e-07
-5.3495e-10
-1.8582e-09
8.98044e-07
-5.01018e-10
-2.15074e-09
9.00434e-07
-4.64926e-10
-2.47507e-09
9.03138e-07
-4.37595e-10
-2.83292e-09
9.06189e-07
-4.18202e-10
-3.23299e-09
9.09618e-07
-3.9823e-10
-3.67548e-09
9.13444e-07
-3.71073e-10
-4.14325e-09
9.17671e-07
-3.34992e-10
-4.62064e-09
9.22311e-07
-2.89692e-10
-5.1049e-09
9.27384e-07
-2.33459e-10
-5.60258e-09
9.32919e-07
-1.64025e-10
-6.11942e-09
9.38936e-07
-8.26487e-11
-6.64437e-09
9.4544e-07
2.63904e-12
-7.16001e-09
9.5244e-07
8.10959e-11
-7.67771e-09
9.59982e-07
1.43208e-10
-8.2424e-09
9.68145e-07
1.87024e-10
-8.89763e-09
9.77016e-07
2.14426e-10
-9.65304e-09
9.86665e-07
2.27486e-10
-1.04924e-08
9.97156e-07
2.28801e-10
-1.14013e-08
1.00855e-06
2.22614e-10
-1.23736e-08
1.02089e-06
2.12192e-10
-1.34029e-08
1.03425e-06
1.95826e-10
-1.44762e-08
1.04865e-06
1.67295e-10
-1.55764e-08
1.06414e-06
1.22589e-10
-1.67054e-08
1.08078e-06
6.65182e-11
-1.78984e-08
1.09867e-06
1.06592e-11
-1.91958e-08
1.11791e-06
-3.61497e-11
-2.06181e-08
1.13862e-06
-7.52314e-11
-2.21713e-08
1.16093e-06
-1.14865e-10
-2.38575e-08
1.18495e-06
-1.61534e-10
-2.56855e-08
-2.18166e-10
-2.76714e-08
8.87438e-07
-1.13313e-10
-4.95003e-10
8.88121e-07
-2.47852e-10
-6.66178e-10
8.88972e-07
-3.58372e-10
-8.39066e-10
8.90004e-07
-4.39351e-10
-1.02824e-09
8.91224e-07
-4.90905e-10
-1.23113e-09
8.92642e-07
-5.14586e-10
-1.4441e-09
8.9427e-07
-5.10532e-10
-1.66921e-09
8.96125e-07
-4.79831e-10
-1.91013e-09
8.98229e-07
-4.29491e-10
-2.1751e-09
9.00611e-07
-3.70938e-10
-2.47621e-09
9.03309e-07
-3.1081e-10
-2.82463e-09
9.06361e-07
-2.4507e-10
-3.22515e-09
9.09796e-07
-1.65224e-10
-3.66784e-09
9.13627e-07
-6.8456e-11
-4.13402e-09
9.17863e-07
4.04124e-11
-4.61075e-09
9.22513e-07
1.5383e-10
-5.09336e-09
9.27597e-07
2.66402e-10
-5.5842e-09
9.33141e-07
3.75644e-10
-6.08377e-09
9.39159e-07
4.79189e-10
-6.58005e-09
9.45653e-07
5.7343e-10
-7.0648e-09
9.52638e-07
6.56327e-10
-7.56e-09
9.60165e-07
7.30187e-10
-8.11382e-09
9.68315e-07
8.00411e-10
-8.76409e-09
9.77175e-07
8.70069e-10
-9.51499e-09
9.86815e-07
9.37681e-10
-1.03505e-08
9.97299e-07
1.00096e-09
-1.12563e-08
1.00869e-06
1.05922e-09
-1.22226e-08
1.02103e-06
1.11048e-09
-1.32393e-08
1.03437e-06
1.14803e-09
-1.42956e-08
1.04876e-06
1.16373e-09
-1.53835e-08
1.06424e-06
1.15718e-09
-1.65132e-08
1.08088e-06
1.14049e-09
-1.7715e-08
1.09877e-06
1.1311e-09
-1.90147e-08
1.11802e-06
1.13952e-09
-2.0424e-08
1.13873e-06
1.16476e-09
-2.19523e-08
1.16103e-06
1.19933e-09
-2.36123e-08
1.18505e-06
1.23779e-09
-2.54191e-08
1.27826e-09
-2.73869e-08
8.87327e-07
-5.15775e-10
8.88029e-07
-2.35661e-10
-7.1453e-10
8.88906e-07
-3.2751e-10
-9.07554e-10
8.89963e-07
-3.88467e-10
-1.10787e-09
8.91207e-07
-4.20197e-10
-1.31488e-09
8.92648e-07
-4.27386e-10
-1.52864e-09
8.94299e-07
-4.12151e-10
-1.74904e-09
8.9617e-07
-3.74841e-10
-1.9758e-09
8.98279e-07
-3.17965e-10
-2.22092e-09
9.00662e-07
-2.45739e-10
-2.50816e-09
9.03365e-07
-1.58314e-10
-2.85543e-09
9.06429e-07
-4.99114e-11
-3.25931e-09
9.09878e-07
8.3932e-11
-3.69772e-09
9.13719e-07
2.40487e-10
-4.15014e-09
9.17958e-07
4.09537e-10
-4.60815e-09
9.22607e-07
5.76913e-10
-5.072e-09
9.27688e-07
7.32061e-10
-5.54655e-09
9.33226e-07
8.68834e-10
-6.03119e-09
9.39235e-07
9.85094e-10
-6.51487e-09
9.45719e-07
1.08269e-09
-6.99334e-09
9.52697e-07
1.16852e-09
-7.48999e-09
9.60221e-07
1.25337e-09
-8.04786e-09
9.68372e-07
1.34764e-09
-8.69762e-09
9.77229e-07
1.45477e-09
-9.44206e-09
9.86866e-07
1.57032e-09
-1.02694e-08
9.97346e-07
1.68743e-09
-1.11667e-08
1.00873e-06
1.8002e-09
-1.21206e-08
1.02105e-06
1.90255e-09
-1.31202e-08
1.03438e-06
1.98664e-09
-1.41624e-08
1.04875e-06
2.04683e-09
-1.52517e-08
1.06422e-06
2.08627e-09
-1.64009e-08
1.08087e-06
2.11813e-09
-1.76264e-08
1.09878e-06
2.15855e-09
-1.89371e-08
1.11804e-06
2.21766e-09
-2.03398e-08
1.13876e-06
2.29802e-09
-2.18525e-08
1.16106e-06
2.39789e-09
-2.34988e-08
1.18508e-06
2.51664e-09
-2.52998e-08
2.6537e-09
-2.72697e-08
8.87805e-07
-2.0143e-10
-7.56566e-10
8.88709e-07
-2.55846e-10
-9.75373e-10
8.8979e-07
-2.85477e-10
-1.18466e-09
8.91054e-07
-2.92302e-10
-1.39185e-09
8.92513e-07
-2.80859e-10
-1.60585e-09
8.94182e-07
-2.53484e-10
-1.82678e-09
8.96067e-07
-2.09607e-10
-2.0509e-09
8.98188e-07
-1.46547e-10
-2.29186e-09
9.00582e-07
-5.985e-11
-2.58033e-09
9.03302e-07
5.5841e-11
-2.93451e-09
9.06389e-07
2.0387e-10
-3.34024e-09
9.09857e-07
3.81812e-10
-3.76595e-09
9.13708e-07
5.80271e-10
-4.19064e-09
9.17945e-07
7.8598e-10
-4.61342e-09
9.22582e-07
9.85251e-10
-5.04573e-09
9.27647e-07
1.16771e-09
-5.49991e-09
9.33167e-07
1.32601e-09
-5.97763e-09
9.39161e-07
1.45719e-09
-6.46658e-09
9.45638e-07
1.56463e-09
-6.95806e-09
9.52616e-07
1.65926e-09
-7.46952e-09
9.6015e-07
1.75752e-09
-8.03743e-09
9.6831e-07
1.87433e-09
-8.68724e-09
9.77174e-07
2.01489e-09
-9.42366e-09
9.86811e-07
2.17377e-09
-1.02412e-08
9.97288e-07
2.3403e-09
-1.11297e-08
1.00866e-06
2.50371e-09
-1.20747e-08
1.02097e-06
2.65539e-09
-1.30662e-08
1.03428e-06
2.78934e-09
-1.41079e-08
1.04863e-06
2.9038e-09
-1.52106e-08
1.0641e-06
3.00309e-09
-1.63851e-08
1.08076e-06
3.09685e-09
-1.76366e-08
1.09868e-06
3.19658e-09
-1.89636e-08
1.11796e-06
3.31238e-09
-2.03733e-08
1.1387e-06
3.45293e-09
-2.18894e-08
1.16101e-06
3.62496e-09
-2.35414e-08
1.18505e-06
3.83371e-09
-2.53515e-08
4.08095e-09
-2.73346e-08
8.87166e-07
-1.48622e-10
-7.92862e-10
8.88093e-07
-1.53608e-10
-1.02852e-09
8.89193e-07
-1.46463e-10
-1.23899e-09
8.90469e-07
-1.26766e-10
-1.44187e-09
8.91938e-07
-9.53222e-11
-1.65459e-09
8.93616e-07
-5.27204e-11
-1.87912e-09
8.95515e-07
2.47299e-12
-2.11036e-09
8.97651e-07
7.80871e-11
-2.3614e-09
9.00068e-07
1.84081e-10
-2.6605e-09
9.02815e-07
3.28269e-10
-3.01972e-09
9.05928e-07
5.08292e-10
-3.41683e-09
9.09414e-07
7.12266e-10
-3.81717e-09
9.13273e-07
9.26141e-10
-4.20427e-09
9.17506e-07
1.13929e-09
-4.58602e-09
9.22129e-07
1.34473e-09
-4.9825e-09
9.27172e-07
1.53685e-09
-5.41249e-09
9.3267e-07
1.70928e-09
-5.8815e-09
9.38647e-07
1.85625e-09
-6.37586e-09
9.45115e-07
1.97823e-09
-6.88171e-09
9.52099e-07
2.08671e-09
-7.41131e-09
9.59648e-07
2.20133e-09
-7.99323e-09
9.67828e-07
2.3398e-09
-8.6453e-09
9.76706e-07
2.50923e-09
-9.37241e-09
9.8635e-07
2.70516e-09
-1.01754e-08
9.96826e-07
2.91576e-09
-1.10508e-08
1.00819e-06
3.12765e-09
-1.19878e-08
1.02049e-06
3.33066e-09
-1.29778e-08
1.03379e-06
3.51978e-09
-1.40246e-08
1.04813e-06
3.69562e-09
-1.51379e-08
1.0636e-06
3.86268e-09
-1.63276e-08
1.08027e-06
4.02724e-09
-1.75965e-08
1.09821e-06
4.19723e-09
-1.89417e-08
1.11751e-06
4.38294e-09
-2.03706e-08
1.13827e-06
4.59736e-09
-2.19048e-08
1.16061e-06
4.8533e-09
-2.35707e-08
1.18467e-06
5.16077e-09
-2.53892e-08
5.52506e-09
-2.73751e-08
8.85045e-07
-8.2204e-11
-8.17956e-10
8.85984e-07
-4.24864e-11
-1.0504e-09
8.87093e-07
-6.06777e-12
-1.24968e-09
8.88374e-07
3.29349e-11
-1.44064e-09
8.89845e-07
7.93852e-11
-1.64528e-09
8.91525e-07
1.35846e-10
-1.86889e-09
8.9343e-07
2.04725e-10
-2.10773e-09
8.95584e-07
2.93675e-10
-2.36896e-09
8.98025e-07
4.13907e-10
-2.67053e-09
9.00797e-07
5.70617e-10
-3.01483e-09
9.03929e-07
7.55916e-10
-3.37987e-09
9.07428e-07
9.53575e-10
-3.74002e-09
9.11291e-07
1.14957e-09
-4.08677e-09
9.15523e-07
1.3377e-09
-4.42984e-09
9.20138e-07
1.51794e-09
-4.78847e-09
9.25167e-07
1.69155e-09
-5.18364e-09
9.30646e-07
1.85572e-09
-5.62593e-09
9.36606e-07
2.00349e-09
-6.10632e-09
9.43065e-07
2.13261e-09
-6.61382e-09
9.50056e-07
2.25316e-09
-7.15724e-09
9.57626e-07
2.38304e-09
-7.75233e-09
9.65833e-07
2.53709e-09
-8.40397e-09
9.74734e-07
2.72152e-09
-9.11322e-09
9.84392e-07
2.93429e-09
-9.88668e-09
9.94871e-07
3.16664e-09
-1.07305e-08
1.00623e-06
3.40671e-09
-1.16416e-08
1.01853e-06
3.64428e-09
-1.26142e-08
1.03183e-06
3.87393e-09
-1.36482e-08
1.04618e-06
4.09669e-09
-1.47493e-08
1.06165e-06
4.31801e-09
-1.59288e-08
1.07833e-06
4.54352e-09
-1.71928e-08
1.09629e-06
4.7787e-09
-1.85401e-08
1.11561e-06
5.03154e-09
-1.99751e-08
1.13641e-06
5.31397e-09
-2.15103e-08
1.15878e-06
5.63979e-09
-2.3165e-08
1.18288e-06
6.02121e-09
-2.49581e-08
6.46688e-09
-2.69042e-08
8.76931e-07
-2.51925e-11
-8.17007e-10
8.77878e-07
2.55888e-11
-1.01446e-09
8.78989e-07
6.5861e-11
-1.1828e-09
8.80265e-07
1.03053e-10
-1.3464e-09
8.81726e-07
1.44779e-10
-1.52602e-09
8.83395e-07
1.95109e-10
-1.72882e-09
8.85297e-07
2.55818e-10
-1.9524e-09
8.87456e-07
3.31374e-10
-2.19745e-09
8.89911e-07
4.28261e-10
-2.46902e-09
8.92698e-07
5.47872e-10
-2.76416e-09
8.95841e-07
6.82358e-10
-3.06947e-09
8.99348e-07
8.19407e-10
-3.37285e-09
9.03219e-07
9.4991e-10
-3.67184e-09
9.07458e-07
1.07123e-09
-3.97227e-09
9.12076e-07
1.18618e-09
-4.28623e-09
9.17099e-07
1.29953e-09
-4.63123e-09
9.22564e-07
1.41238e-09
-5.02126e-09
9.28504e-07
1.52043e-09
-5.45731e-09
9.34952e-07
1.6215e-09
-5.93667e-09
9.41947e-07
1.722e-09
-6.46326e-09
9.49535e-07
1.83258e-09
-7.03814e-09
9.57767e-07
1.96034e-09
-7.65463e-09
9.6669e-07
2.10779e-09
-8.31007e-09
9.76364e-07
2.27493e-09
-9.01398e-09
9.86851e-07
2.45844e-09
-9.77945e-09
9.98217e-07
2.6517e-09
-1.06109e-08
1.01052e-06
2.84779e-09
-1.15071e-08
1.02382e-06
3.04224e-09
-1.24665e-08
1.03817e-06
3.23575e-09
-1.34919e-08
1.05365e-06
3.43359e-09
-1.4594e-08
1.07033e-06
3.64067e-09
-1.57803e-08
1.0883e-06
3.85997e-09
-1.70507e-08
1.10765e-06
4.09493e-09
-1.84057e-08
1.12846e-06
4.35162e-09
-1.98494e-08
1.15085e-06
4.639e-09
-2.13936e-08
1.17496e-06
4.96683e-09
-2.30534e-08
5.34326e-09
-2.48421e-08
8.28986e-07
-7.87269e-10
8.29929e-07
-9.17414e-10
8.31028e-07
-1.0329e-09
8.32281e-07
-1.15021e-09
8.33708e-07
-1.28209e-09
8.35336e-07
-1.43318e-09
8.37194e-07
-1.60172e-09
8.3931e-07
-1.78525e-09
8.41722e-07
-1.98347e-09
8.44465e-07
-2.19502e-09
8.47563e-07
-2.41583e-09
8.51025e-07
-2.6424e-09
8.54849e-07
-2.87461e-09
8.59036e-07
-3.11562e-09
8.63594e-07
-3.37127e-09
8.68544e-07
-3.65091e-09
8.73921e-07
-3.96504e-09
8.79763e-07
-4.32084e-09
8.86106e-07
-4.72149e-09
8.92993e-07
-5.16561e-09
9.00472e-07
-5.64598e-09
9.08587e-07
-6.15428e-09
9.17383e-07
-6.68878e-09
9.26916e-07
-7.25771e-09
9.37248e-07
-7.87363e-09
9.48444e-07
-8.54453e-09
9.60565e-07
-9.27307e-09
9.73666e-07
-1.00588e-08
9.87804e-07
-1.09024e-08
1.00305e-06
-1.18095e-08
1.01947e-06
-1.27844e-08
1.03716e-06
-1.38275e-08
1.05619e-06
-1.49394e-08
1.07667e-06
-1.61221e-08
1.09869e-06
-1.73825e-08
1.12239e-06
-1.87306e-08
-2.01732e-08
9.04977e-07
1.52255e-11
-9.80408e-10
9.05592e-07
-2.25369e-11
-1.16732e-09
9.06365e-07
-5.54946e-11
-1.37919e-09
9.0731e-07
-8.28944e-11
-1.62786e-09
9.08437e-07
-1.03204e-10
-1.91714e-09
9.09764e-07
-1.1929e-10
-2.24795e-09
9.11317e-07
-1.41017e-10
-2.62447e-09
9.13135e-07
-1.78947e-10
-3.05087e-09
9.15253e-07
-2.36055e-10
-3.52035e-09
9.17699e-07
-3.08083e-10
-4.01479e-09
9.20489e-07
-3.89659e-10
-4.51778e-09
9.23635e-07
-4.79e-10
-5.02392e-09
9.2715e-07
-5.75718e-10
-5.53792e-09
9.3105e-07
-6.74593e-10
-6.06896e-09
9.35343e-07
-7.67257e-10
-6.62761e-09
9.40043e-07
-8.50124e-10
-7.2288e-09
9.45175e-07
-9.25684e-10
-7.89225e-09
9.50776e-07
-9.97587e-10
-8.63561e-09
9.56883e-07
-1.06601e-09
-9.467e-09
9.63531e-07
-1.12619e-09
-1.03816e-08
9.70747e-07
-1.17416e-09
-1.13671e-08
9.7856e-07
-1.21479e-09
-1.2418e-08
9.87019e-07
-1.26019e-09
-1.35424e-08
9.96185e-07
-1.31944e-09
-1.47557e-08
1.00613e-06
-1.39307e-09
-1.607e-08
1.01691e-06
-1.4772e-09
-1.74912e-08
1.02861e-06
-1.56871e-09
-1.90217e-08
1.04128e-06
-1.66562e-09
-2.06619e-08
1.05498e-06
-1.76499e-09
-2.24084e-08
1.06976e-06
-1.86177e-09
-2.42545e-08
1.08568e-06
-1.95256e-09
-2.61947e-08
1.10278e-06
-2.04208e-09
-2.82358e-08
1.12114e-06
-2.14188e-09
-3.03999e-08
1.14088e-06
-2.26209e-09
-3.27166e-08
1.1621e-06
-2.4065e-09
-3.52127e-08
1.18494e-06
-2.5741e-09
-3.79076e-08
1.20953e-06
-2.76358e-09
-4.08151e-08
-2.97535e-09
-4.39493e-08
9.46909e-07
1.32133e-11
-9.44426e-10
9.47555e-07
-4.7686e-11
-1.20054e-09
9.48377e-07
-1.00145e-10
-1.48132e-09
9.49385e-07
-1.43963e-10
-1.79169e-09
9.5059e-07
-1.78584e-10
-2.13071e-09
9.52009e-07
-2.07837e-10
-2.50343e-09
9.53665e-07
-2.42212e-10
-2.93074e-09
9.55585e-07
-2.92869e-10
-3.43166e-09
9.57795e-07
-3.63743e-10
-3.99978e-09
9.60317e-07
-4.52063e-10
-4.61151e-09
9.63168e-07
-5.53858e-10
-5.24546e-09
9.66367e-07
-6.6716e-10
-5.89652e-09
9.69932e-07
-7.89568e-10
-6.5749e-09
9.73877e-07
-9.13385e-10
-7.28484e-09
9.78219e-07
-1.02871e-09
-8.02178e-09
9.82977e-07
-1.13124e-09
-8.79543e-09
9.88176e-07
-1.22249e-09
-9.63105e-09
9.93848e-07
-1.3048e-09
-1.05512e-08
1.00003e-06
-1.37757e-09
-1.15631e-08
1.00674e-06
-1.43689e-09
-1.26526e-08
1.01403e-06
-1.48172e-09
-1.37993e-08
1.02192e-06
-1.52096e-09
-1.50058e-08
1.03047e-06
-1.56985e-09
-1.62977e-08
1.03974e-06
-1.63901e-09
-1.76977e-08
1.0498e-06
-1.7293e-09
-1.92117e-08
1.0607e-06
-1.83607e-09
-2.08392e-08
1.07252e-06
-1.95434e-09
-2.25853e-08
1.08531e-06
-2.07937e-09
-2.44558e-08
1.09914e-06
-2.20538e-09
-2.64507e-08
1.11406e-06
-2.32584e-09
-2.85621e-08
1.13014e-06
-2.43789e-09
-3.07828e-08
1.14745e-06
-2.54819e-09
-3.31281e-08
1.16607e-06
-2.67037e-09
-3.56373e-08
1.1861e-06
-2.81609e-09
-3.83475e-08
1.20767e-06
-2.99041e-09
-4.12834e-08
1.2309e-06
-3.19354e-09
-4.44593e-08
1.25592e-06
-3.42462e-09
-4.78891e-08
-3.68437e-09
-5.15917e-08
9.52482e-07
-3.45313e-12
-9.059e-10
9.53151e-07
-7.77868e-11
-1.21168e-09
9.54005e-07
-1.41211e-10
-1.53973e-09
9.55052e-07
-1.94034e-10
-1.88808e-09
9.56303e-07
-2.3628e-10
-2.25617e-09
9.57771e-07
-2.70636e-10
-2.65594e-09
9.59477e-07
-3.04627e-10
-3.11643e-09
9.6144e-07
-3.46831e-10
-3.65773e-09
9.63682e-07
-4.01825e-10
-4.27262e-09
9.66222e-07
-4.70404e-10
-4.93904e-09
9.6908e-07
-5.5164e-10
-5.63911e-09
9.72277e-07
-6.44011e-10
-6.37566e-09
9.75834e-07
-7.44133e-10
-7.16144e-09
9.7977e-07
-8.44363e-10
-7.98788e-09
9.841e-07
-9.36226e-10
-8.83781e-09
9.88848e-07
-1.01579e-09
-9.71765e-09
9.94036e-07
-1.08266e-09
-1.06522e-08
9.99696e-07
-1.13695e-09
-1.16642e-08
1.00586e-06
-1.17826e-09
-1.27547e-08
1.01254e-06
-1.20569e-09
-1.38988e-08
1.01979e-06
-1.22214e-09
-1.50796e-08
1.02764e-06
-1.23788e-09
-1.63217e-08
1.03615e-06
-1.26634e-09
-1.76711e-08
1.04537e-06
-1.31601e-09
-1.91537e-08
1.05538e-06
-1.38733e-09
-2.07659e-08
1.06623e-06
-1.47604e-09
-2.24996e-08
1.07798e-06
-1.5767e-09
-2.43575e-08
1.09071e-06
-1.68325e-09
-2.63437e-08
1.10446e-06
-1.78932e-09
-2.84551e-08
1.11931e-06
-1.88958e-09
-3.06768e-08
1.13531e-06
-1.98265e-09
-3.30013e-08
1.15254e-06
-2.07438e-09
-3.54591e-08
1.1711e-06
-2.17507e-09
-3.81049e-08
1.19109e-06
-2.29329e-09
-4.09819e-08
1.21262e-06
-2.4335e-09
-4.41121e-08
1.23582e-06
-2.59715e-09
-4.75037e-08
1.26082e-06
-2.78411e-09
-5.11695e-08
-2.99562e-09
-5.51334e-08
9.53527e-07
-3.0545e-11
-8.97965e-10
9.54215e-07
-1.10814e-10
-1.23353e-09
9.55091e-07
-1.78619e-10
-1.58482e-09
9.56164e-07
-2.34189e-10
-1.95401e-09
9.57442e-07
-2.7727e-10
-2.34302e-09
9.58939e-07
-3.08799e-10
-2.76306e-09
9.60669e-07
-3.33093e-10
-3.23829e-09
9.62651e-07
-3.56021e-10
-3.78444e-09
9.64903e-07
-3.8261e-10
-4.39903e-09
9.67447e-07
-4.16441e-10
-5.0696e-09
9.70303e-07
-4.58692e-10
-5.7877e-09
9.73495e-07
-5.08349e-10
-6.56294e-09
9.77048e-07
-5.62207e-10
-7.40266e-09
9.80979e-07
-6.14284e-10
-8.28721e-09
9.85306e-07
-6.58977e-10
-9.19498e-09
9.90051e-07
-6.93753e-10
-1.01283e-08
9.95238e-07
-7.17361e-10
-1.11056e-08
1.00089e-06
-7.29053e-10
-1.21437e-08
1.00705e-06
-7.29251e-10
-1.32343e-08
1.01372e-06
-7.19634e-10
-1.43498e-08
1.02094e-06
-7.04865e-10
-1.549e-08
1.02876e-06
-6.93428e-10
-1.67039e-08
1.03723e-06
-6.94229e-10
-1.80517e-08
1.04642e-06
-7.12267e-10
-1.9557e-08
1.05639e-06
-7.47476e-10
-2.12076e-08
1.0672e-06
-7.96922e-10
-2.29891e-08
1.07892e-06
-8.56445e-10
-2.48983e-08
1.0916e-06
-9.21038e-10
-2.69328e-08
1.10531e-06
-9.86256e-10
-2.90809e-08
1.12011e-06
-1.0492e-09
-3.13213e-08
1.13606e-06
-1.10922e-09
-3.36528e-08
1.15324e-06
-1.16906e-09
-3.61214e-08
1.17175e-06
-1.23323e-09
-3.87913e-08
1.1917e-06
-1.30564e-09
-4.17052e-08
1.21319e-06
-1.38935e-09
-4.48807e-08
1.23636e-06
-1.48651e-09
-4.83235e-08
1.26132e-06
-1.59758e-09
-5.2048e-08
-1.72395e-09
-5.60813e-08
9.53731e-07
-5.84445e-11
-9.37839e-10
9.54431e-07
-1.3742e-10
-1.28885e-09
9.55323e-07
-2.041e-10
-1.64847e-09
9.56413e-07
-2.57223e-10
-2.03061e-09
9.5771e-07
-2.95892e-10
-2.43652e-09
9.59225e-07
-3.19835e-10
-2.86998e-09
9.6097e-07
-3.3105e-10
-3.3448e-09
9.62961e-07
-3.33278e-10
-3.87228e-09
9.65217e-07
-3.31293e-10
-4.45826e-09
9.6776e-07
-3.29464e-10
-5.10456e-09
9.70613e-07
-3.29547e-10
-5.81517e-09
9.73803e-07
-3.30924e-10
-6.6006e-09
9.77354e-07
-3.31258e-10
-7.45763e-09
9.81286e-07
-3.27142e-10
-8.36191e-09
9.85616e-07
-3.16712e-10
-9.29305e-09
9.90365e-07
-2.99983e-10
-1.02475e-08
9.95556e-07
-2.76667e-10
-1.12344e-08
1.00121e-06
-2.46641e-10
-1.2261e-08
1.00737e-06
-2.11232e-10
-1.33128e-08
1.01403e-06
-1.72523e-10
-1.43711e-08
1.02124e-06
-1.33971e-10
-1.54571e-08
1.02904e-06
-9.99784e-11
-1.66357e-08
1.03749e-06
-7.42382e-11
-1.79692e-08
1.04666e-06
-5.86217e-11
-1.94749e-08
1.05661e-06
-5.30505e-11
-2.11353e-08
1.0674e-06
-5.65547e-11
-2.29328e-08
1.07909e-06
-6.74776e-11
-2.48586e-08
1.09176e-06
-8.3747e-11
-2.69026e-08
1.10544e-06
-1.04256e-10
-2.90467e-08
1.12022e-06
-1.28353e-10
-3.12713e-08
1.13614e-06
-1.54782e-10
-3.35864e-08
1.15331e-06
-1.82239e-10
-3.60459e-08
1.1718e-06
-2.09649e-10
-3.87097e-08
1.19172e-06
-2.36797e-10
-4.16124e-08
1.2132e-06
-2.65007e-10
-4.47698e-08
1.23634e-06
-2.96293e-10
-4.81927e-08
1.26129e-06
-3.31099e-10
-5.19005e-08
-3.6985e-10
-5.59205e-08
9.53734e-07
-8.12317e-11
-9.90684e-10
9.54445e-07
-1.49709e-10
-1.3647e-09
9.5535e-07
-2.08236e-10
-1.74005e-09
9.56455e-07
-2.53423e-10
-2.13733e-09
9.57768e-07
-2.83453e-10
-2.55603e-09
9.59297e-07
-2.97223e-10
-2.99558e-09
9.61054e-07
-2.95289e-10
-3.46183e-09
9.63052e-07
-2.79794e-10
-3.96233e-09
9.65311e-07
-2.54186e-10
-4.51098e-09
9.67853e-07
-2.21523e-10
-5.1264e-09
9.70706e-07
-1.82852e-10
-5.82452e-09
9.73898e-07
-1.38004e-10
-6.60996e-09
9.77452e-07
-8.63167e-11
-7.46654e-09
9.81387e-07
-2.77988e-11
-8.36792e-09
9.8572e-07
3.52883e-11
-9.29631e-09
9.90473e-07
1.00028e-10
-1.02458e-08
9.95667e-07
1.645e-10
-1.12201e-08
1.00133e-06
2.27674e-10
-1.22194e-08
1.00748e-06
2.88585e-10
-1.3229e-08
1.01414e-06
3.46527e-10
-1.42426e-08
1.02134e-06
4.01349e-10
-1.52959e-08
1.02913e-06
4.53345e-10
-1.64577e-08
1.03757e-06
5.02905e-10
-1.77829e-08
1.04673e-06
5.50261e-10
-1.92817e-08
1.05667e-06
5.95057e-10
-2.09367e-08
1.06745e-06
6.36207e-10
-2.27304e-08
1.07913e-06
6.72464e-10
-2.4649e-08
1.09179e-06
7.02341e-10
-2.66776e-08
1.10546e-06
7.23859e-10
-2.88009e-08
1.12023e-06
7.36385e-10
-3.10113e-08
1.13614e-06
7.42335e-10
-3.33283e-08
1.1533e-06
7.46097e-10
-3.57983e-08
1.17178e-06
7.52496e-10
-3.84629e-08
1.1917e-06
7.64921e-10
-4.13462e-08
1.21317e-06
7.84133e-10
-4.44696e-08
1.23631e-06
8.09712e-10
-4.78572e-08
1.26126e-06
8.42621e-10
-5.1537e-08
8.83938e-10
-5.55349e-08
9.53674e-07
-1.02087e-09
9.54394e-07
-1.44418e-10
-1.43974e-09
9.55312e-07
-1.8587e-10
-1.84753e-09
9.56431e-07
-2.1711e-10
-2.2631e-09
9.57757e-07
-2.34799e-10
-2.68974e-09
9.59299e-07
-2.36705e-10
-3.13147e-09
9.61068e-07
-2.22228e-10
-3.59089e-09
9.63076e-07
-1.9196e-10
-4.07122e-09
9.6534e-07
-1.4691e-10
-4.59247e-09
9.67887e-07
-8.73744e-11
-5.18875e-09
9.70745e-07
-1.32629e-11
-5.8836e-09
9.73944e-07
7.39552e-11
-6.66973e-09
9.77503e-07
1.72065e-10
-7.5158e-09
9.81442e-07
2.76955e-10
-8.39332e-09
9.85776e-07
3.83232e-10
-9.29084e-09
9.90528e-07
4.86179e-10
-1.02101e-08
9.95722e-07
5.82551e-10
-1.11579e-08
1.00138e-06
6.70604e-10
-1.21329e-08
1.00753e-06
7.49811e-10
-1.31218e-08
1.01418e-06
8.21504e-10
-1.41237e-08
1.02138e-06
8.89202e-10
-1.51757e-08
1.02917e-06
9.57198e-10
-1.63406e-08
1.03761e-06
1.02885e-09
-1.76636e-08
1.04676e-06
1.10556e-09
-1.91528e-08
1.0567e-06
1.18641e-09
-2.07957e-08
1.06748e-06
1.26854e-09
-2.25763e-08
1.07916e-06
1.34807e-09
-2.44772e-08
1.0918e-06
1.42067e-09
-2.64832e-08
1.10547e-06
1.48237e-09
-2.85897e-08
1.12023e-06
1.53209e-09
-3.08042e-08
1.13614e-06
1.57304e-09
-3.3148e-08
1.1533e-06
1.61075e-09
-3.56493e-08
1.17179e-06
1.65162e-09
-3.83278e-08
1.19172e-06
1.70121e-09
-4.12024e-08
1.21319e-06
1.76312e-09
-4.43049e-08
1.23634e-06
1.84013e-09
-4.76738e-08
1.26129e-06
1.93617e-09
-5.13449e-08
2.05397e-09
-5.53453e-08
9.54284e-07
-1.22498e-10
-1.50524e-09
9.55212e-07
-1.38572e-10
-1.95066e-09
9.56342e-07
-1.50769e-10
-2.38112e-09
9.57679e-07
-1.53382e-10
-2.81085e-09
9.59233e-07
-1.42143e-10
-3.25418e-09
9.61013e-07
-1.1493e-10
-3.7138e-09
9.6303e-07
-7.06824e-11
-4.18947e-09
9.65303e-07
-7.50206e-12
-4.70422e-09
9.67859e-07
7.69174e-11
-5.30024e-09
9.70728e-07
1.83527e-10
-6.00032e-09
9.73936e-07
3.08281e-10
-6.78312e-09
9.77503e-07
4.43539e-10
-7.60465e-09
9.81445e-07
5.81492e-10
-8.43692e-09
9.85779e-07
7.16036e-10
-9.28001e-09
9.90527e-07
8.43013e-10
-1.01506e-08
9.95715e-07
9.59913e-10
-1.10653e-08
1.00137e-06
1.06513e-09
-1.20257e-08
1.00751e-06
1.15807e-09
-1.30169e-08
1.01417e-06
1.24132e-09
-1.40322e-08
1.02137e-06
1.32117e-09
-1.51018e-08
1.02916e-06
1.40466e-09
-1.62792e-08
1.03761e-06
1.49696e-09
-1.76018e-08
1.04677e-06
1.60017e-09
-1.90793e-08
1.05671e-06
1.71317e-09
-2.07067e-08
1.06748e-06
1.832e-09
-2.2472e-08
1.07916e-06
1.95093e-09
-2.43576e-08
1.09181e-06
2.06369e-09
-2.63506e-08
1.10547e-06
2.16493e-09
-2.84555e-08
1.12023e-06
2.25353e-09
-3.06879e-08
1.13615e-06
2.33316e-09
-3.3066e-08
1.15332e-06
2.40923e-09
-3.56029e-08
1.17182e-06
2.48825e-09
-3.83048e-08
1.19176e-06
2.57692e-09
-4.11903e-08
1.21325e-06
2.68162e-09
-4.4298e-08
1.23641e-06
2.80916e-09
-4.76731e-08
1.26139e-06
2.96705e-09
-5.13543e-08
3.16073e-09
-5.53705e-08
9.53972e-07
-8.81763e-11
-1.55778e-09
9.54907e-07
-7.57248e-11
-2.02599e-09
9.56044e-07
-6.777e-11
-2.45926e-09
9.57389e-07
-5.56006e-11
-2.88417e-09
9.58949e-07
-3.21535e-11
-3.32509e-09
9.60736e-07
6.55306e-12
-3.78733e-09
9.62761e-07
6.37452e-11
-4.26998e-09
9.65044e-07
1.42786e-10
-4.79439e-09
9.67611e-07
2.48216e-10
-5.39923e-09
9.70493e-07
3.79897e-10
-6.09785e-09
9.73713e-07
5.30214e-10
-6.85891e-09
9.77289e-07
6.87132e-10
-7.63657e-09
9.81235e-07
8.40225e-10
-8.40946e-09
9.8557e-07
9.84003e-10
-9.18879e-09
9.90316e-07
1.11719e-09
-1.00026e-08
9.955e-07
1.24018e-09
-1.08767e-08
1.00115e-06
1.35226e-09
-1.18182e-08
1.00729e-06
1.45233e-09
-1.28108e-08
1.01395e-06
1.54342e-09
-1.38414e-08
1.02116e-06
1.63318e-09
-1.49329e-08
1.02897e-06
1.72962e-09
-1.61266e-08
1.03743e-06
1.83814e-09
-1.74491e-08
1.0466e-06
1.96121e-09
-1.891e-08
1.05656e-06
2.09826e-09
-2.05127e-08
1.06735e-06
2.24529e-09
-2.22542e-08
1.07904e-06
2.39572e-09
-2.41216e-08
1.09169e-06
2.54189e-09
-2.61051e-08
1.10536e-06
2.67713e-09
-2.82103e-08
1.12013e-06
2.80053e-09
-3.04522e-08
1.13606e-06
2.91654e-09
-3.28476e-08
1.15325e-06
3.03042e-09
-3.54064e-08
1.17178e-06
3.1478e-09
-3.8131e-08
1.19175e-06
3.27489e-09
-4.10386e-08
1.21327e-06
3.41963e-09
-4.41641e-08
1.23647e-06
3.59215e-09
-4.75497e-08
1.26148e-06
3.80324e-09
-5.12326e-08
4.06208e-09
-5.52432e-08
9.52802e-07
-4.98808e-11
-1.58927e-09
9.5374e-07
-1.60987e-11
-2.04838e-09
9.5488e-07
5.68156e-12
-2.46319e-09
9.56225e-07
2.67711e-11
-2.86807e-09
9.57784e-07
5.67704e-11
-3.2932e-09
9.59569e-07
1.01529e-10
-3.74857e-09
9.61594e-07
1.64217e-10
-4.23359e-09
9.63881e-07
2.49002e-10
-4.762e-09
9.66457e-07
3.60071e-10
-5.3578e-09
9.69349e-07
4.96243e-10
-6.02321e-09
9.7258e-07