/*--------------------------------*- C++ -*----------------------------------*\
| =========                 |                                                 |
| \\      /  F ield         | OpenFOAM: The Open Source CFD Toolbox           |
|  \\    /   O peration     | Version:  2.3.1                                 |
|   \\  /    A nd           | Web:      www.OpenFOAM.org                      |
|    \\/     M anipulation  |                                                 |
\*---------------------------------------------------------------------------*/
FoamFile
{
    version     2.0;
    format      ascii;
    class       volScalarField;
    location    "10";
    object      Sed;
}
// * * * * * * * * * * * * * * * * * * * * * * * * * * * * * * * * * * * * * //

dimensions      [0 0 0 0 0 0 0];

internalField   nonuniform List<scalar> 
37692
(
7.4805e-78
3.10326e-79
1.2751e-80
5.18683e-82
2.08912e-83
8.33232e-85
3.29141e-86
1.28802e-87
4.99465e-89
1.91971e-90
7.31474e-92
2.76355e-93
1.03541e-94
3.84768e-96
1.41837e-97
5.1873e-99
1.88251e-100
6.78054e-102
2.4245e-103
8.60801e-105
3.0352e-106
1.0631e-107
3.69977e-109
1.27976e-110
4.40122e-112
1.50538e-113
5.12259e-115
1.73477e-116
5.84853e-118
1.96353e-119
6.56674e-121
2.18842e-122
7.27042e-124
2.409e-125
7.96491e-127
2.62919e-128
8.66957e-130
2.85736e-131
7.68525e-76
3.23325e-77
1.34699e-78
5.55397e-80
2.26709e-81
9.16244e-83
3.6668e-84
1.45341e-85
5.70713e-87
2.22062e-88
8.56326e-90
3.27335e-91
1.24055e-92
4.66203e-94
1.73757e-95
6.42372e-97
2.35605e-98
8.57484e-100
3.09746e-101
1.11074e-102
3.95481e-104
1.39843e-105
4.9121e-107
1.71449e-108
5.94811e-110
2.05178e-111
7.03924e-113
2.40272e-114
8.16207e-116
2.76028e-117
9.29602e-119
3.11874e-120
1.04273e-121
3.47593e-123
1.15582e-124
3.83569e-126
1.27105e-127
4.20823e-129
1.89534e-74
8.08585e-76
3.4152e-77
1.42731e-78
5.90423e-80
2.41779e-81
9.80251e-83
3.93542e-84
1.56483e-85
6.16396e-87
2.40576e-88
9.30528e-90
3.56762e-91
1.35606e-92
5.11097e-94
1.91039e-95
7.08291e-97
2.60534e-98
9.50969e-100
3.4451e-101
1.23895e-102
4.42396e-104
1.56889e-105
5.52749e-107
1.93528e-108
6.73555e-110
2.33101e-111
8.02401e-113
2.74821e-114
9.36808e-116
3.17928e-117
1.07457e-118
3.61862e-120
1.21464e-121
4.06587e-123
1.35792e-124
4.52724e-126
1.50754e-127
1.57254e-73
6.79598e-75
2.90719e-76
1.23032e-77
5.15264e-79
2.13594e-80
8.76492e-82
3.56096e-83
1.4326e-84
5.70829e-86
2.2532e-87
8.81244e-89
3.41576e-90
1.31237e-91
4.99892e-93
1.88808e-94
7.07238e-96
2.62784e-97
9.68731e-99
3.5437e-100
1.28659e-101
4.63719e-103
1.65966e-104
5.90021e-106
2.08414e-107
7.31683e-109
2.55378e-110
8.86411e-112
3.06061e-113
1.05155e-114
3.5961e-116
1.22453e-117
4.1535e-119
1.40399e-120
4.73172e-122
1.59071e-123
5.33697e-125
1.788e-126
5.39179e-73
2.35359e-74
1.01682e-75
4.34539e-77
1.83753e-78
7.69037e-80
3.18576e-81
1.30644e-82
5.30451e-84
2.13289e-85
8.49474e-87
3.35186e-88
1.31059e-89
5.07905e-91
1.9512e-92
7.43189e-94
2.80706e-95
1.05158e-96
3.9079e-98
1.44091e-99
5.27233e-101
1.91491e-102
6.90558e-104
2.47338e-105
8.80133e-107
3.11241e-108
1.09411e-109
3.82435e-111
1.32959e-112
4.59899e-114
1.58316e-115
5.42579e-117
1.85203e-118
6.29903e-120
2.13569e-121
7.22182e-123
2.43678e-124
8.20883e-126
9.27798e-73
4.0706e-74
1.7675e-75
7.5912e-77
3.226e-78
1.35678e-79
5.64789e-81
2.32728e-82
9.49436e-84
3.83551e-85
1.53468e-86
6.08348e-88
2.38955e-89
9.30234e-91
3.58968e-92
1.37335e-93
5.21001e-95
1.96024e-96
7.31594e-98
2.70891e-99
9.95342e-101
3.63005e-102
1.31444e-103
4.72709e-105
1.68887e-106
5.99612e-108
2.11611e-109
7.42534e-111
2.59138e-112
8.99715e-114
3.10869e-115
1.06931e-116
3.66318e-118
1.25032e-119
4.25393e-121
1.44334e-122
4.88627e-124
1.65139e-125
9.27721e-73
4.0704e-74
1.7675e-75
7.5915e-77
3.22624e-78
1.35692e-79
5.64863e-81
2.32763e-82
9.49581e-84
3.83608e-85
1.5349e-86
6.08434e-88
2.38988e-89
9.30349e-91
3.59003e-92
1.37342e-93
5.21008e-95
1.96018e-96
7.31534e-98
2.70857e-99
9.95182e-101
3.62937e-102
1.31417e-103
4.72602e-105
1.68844e-106
5.99445e-108
2.11545e-109
7.42276e-111
2.59037e-112
8.99339e-114
3.10737e-115
1.06887e-116
3.66173e-118
1.24985e-119
4.25233e-121
1.44279e-122
4.88438e-124
1.65075e-125
2.35163e-74
1.01543e-75
4.34078e-77
1.83586e-78
7.68432e-80
3.18377e-81
1.30585e-82
5.30284e-84
2.13244e-85
8.49363e-87
3.35166e-88
1.31058e-89
5.07901e-91
1.95111e-92
7.43099e-94
2.80647e-95
1.05125e-96
3.90627e-98
1.44016e-99
5.26918e-101
1.91365e-102
6.90075e-104
2.47154e-105
8.79436e-107
3.10977e-108
1.09311e-109
3.82055e-111
1.32815e-112
4.59369e-114
1.58131e-115
5.41959e-117
1.85003e-118
6.29251e-120
2.13352e-121
7.21447e-123
2.43428e-124
8.20048e-126
6.79659e-75
2.906e-76
1.23014e-77
5.1524e-79
2.13601e-80
8.76641e-82
3.5621e-83
1.43322e-84
5.71113e-86
2.25442e-87
8.81752e-89
3.41773e-90
1.31305e-91
5.00093e-93
1.88855e-94
7.07294e-96
2.62757e-97
9.68449e-99
3.542e-100
1.28576e-101
4.63359e-103
1.65821e-104
5.89447e-106
2.08191e-107
7.30832e-109
2.55055e-110
8.85189e-112
3.05601e-113
1.04986e-114
3.59013e-116
1.22251e-117
4.14692e-119
1.40185e-120
4.72465e-122
1.58834e-123
5.329e-125
1.78534e-126
8.08571e-76
3.4139e-77
1.42727e-78
5.90515e-80
2.4186e-81
9.80811e-83
3.93857e-84
1.56635e-85
6.17047e-87
2.40841e-88
9.31576e-90
3.57158e-91
1.35746e-92
5.11552e-94
1.91174e-95
7.08646e-97
2.60606e-98
9.51001e-100
3.44435e-101
1.23839e-102
4.42116e-104
1.56768e-105
5.52253e-107
1.93332e-108
6.72793e-110
2.3281e-111
8.01295e-113
2.74403e-114
9.35258e-116
3.17374e-117
1.07268e-118
3.61243e-120
1.21264e-121
4.05938e-123
1.35579e-124
4.52019e-126
1.50522e-127
3.23198e-77
1.34607e-78
5.55239e-80
2.26706e-81
9.16518e-83
3.66924e-84
1.45487e-85
5.71418e-87
2.22364e-88
8.57546e-90
3.27813e-91
1.24236e-92
4.66856e-94
1.73981e-95
6.43094e-97
2.35823e-98
8.5808e-100
3.0988e-101
1.11091e-102
3.95438e-104
1.398e-105
4.90989e-107
1.71352e-108
5.94409e-110
2.05016e-111
7.03287e-113
2.40022e-114
8.15233e-116
2.75654e-117
9.28229e-119
3.114e-120
1.04118e-121
3.47104e-123
1.15427e-124
3.83077e-126
1.26946e-127
4.20309e-129
3.10061e-79
1.2737e-80
5.18319e-82
2.08842e-83
8.33322e-85
3.29334e-86
1.28931e-87
5.00108e-89
1.92251e-90
7.32618e-92
2.7681e-93
1.03717e-94
3.85419e-96
1.42067e-97
5.19505e-99
1.88499e-100
6.78805e-102
2.42656e-103
8.61283e-105
3.03611e-106
1.06322e-107
3.69976e-109
1.27966e-110
4.40054e-112
1.50503e-113
5.1209e-115
1.73399e-116
5.84495e-118
1.96197e-119
6.56058e-121
2.18624e-122
7.26338e-124
2.40686e-125
7.95847e-127
2.6272e-128
8.66329e-130
2.8554e-131
2.36079e-76
9.92727e-78
4.13418e-79
1.70401e-80
6.95317e-82
2.80914e-83
1.12383e-84
4.45313e-86
1.7481e-87
6.79998e-89
2.62162e-90
1.00191e-91
3.79628e-93
1.42638e-94
5.31517e-96
1.96461e-97
7.20425e-99
2.62148e-100
9.46767e-102
3.39443e-103
1.20837e-104
4.27204e-106
1.50032e-107
5.23569e-109
1.8161e-110
6.26354e-112
2.14855e-113
7.33262e-115
2.49056e-116
8.42153e-118
2.83581e-119
9.51268e-121
3.18009e-122
1.05994e-123
3.52405e-125
1.16934e-126
3.87446e-128
1.28262e-129
2.02872e-74
8.65023e-76
3.65272e-77
1.52623e-78
6.31179e-80
2.58404e-81
1.0474e-82
4.20405e-84
1.67129e-85
6.58198e-87
2.5684e-88
9.93232e-90
3.8072e-91
1.44678e-92
5.4515e-94
2.03711e-95
7.55061e-97
2.77655e-98
1.01315e-99
3.66922e-101
1.31913e-102
4.7088e-104
1.66935e-105
5.87925e-107
2.05761e-108
7.15816e-110
2.4761e-111
8.51918e-113
2.91625e-114
9.93539e-116
3.36986e-117
1.13829e-118
3.83068e-120
1.28491e-121
4.29779e-123
1.43419e-124
4.77727e-126
1.58928e-127
4.53785e-73
1.96188e-74
8.3993e-76
3.55734e-77
1.49087e-78
6.18433e-80
2.53949e-81
1.03242e-82
4.15623e-84
1.65712e-85
6.54489e-87
2.56113e-88
9.93186e-90
3.81752e-91
1.45466e-92
5.49597e-94
2.05927e-95
7.65338e-97
2.82197e-98
1.03251e-99
3.74937e-101
1.35158e-102
4.83785e-104
1.71994e-105
6.07505e-107
2.13249e-108
7.44131e-110
2.58208e-111
8.91211e-113
3.06064e-114
1.04616e-115
3.56036e-117
1.20688e-118
4.07658e-120
1.37274e-121
4.61052e-123
1.54523e-124
5.17066e-126
3.62309e-72
1.58658e-73
6.8792e-75
2.95014e-76
1.25167e-77
5.25547e-79
2.18408e-80
8.98498e-82
3.65947e-83
1.47586e-84
5.895e-86
2.33249e-87
9.14422e-89
3.55261e-90
1.36805e-91
5.22265e-93
1.97694e-94
7.42152e-96
2.76359e-97
1.02098e-98
3.74288e-100
1.36187e-101
4.91953e-103
1.76478e-104
6.28866e-106
2.22664e-107
7.8359e-109
2.74158e-110
9.53919e-112
3.3018e-113
1.13724e-114
3.89913e-116
1.33128e-117
4.52832e-119
1.53522e-120
5.19005e-122
1.75045e-123
5.89287e-125
1.23128e-71
5.4454e-73
2.38426e-74
1.03241e-75
4.4223e-77
1.87443e-78
7.86292e-80
3.2647e-81
1.34185e-82
5.46063e-84
2.20059e-85
8.78384e-87
3.47353e-88
1.36108e-89
5.28575e-91
2.03476e-92
7.7658e-94
2.93905e-95
1.10321e-96
4.10783e-98
1.51761e-99
5.5642e-101
2.02514e-102
7.31884e-104
2.62715e-105
9.36923e-107
3.32061e-108
1.1699e-109
4.09848e-111
1.42811e-112
4.95111e-114
1.70843e-115
5.86968e-117
2.0088e-118
6.85105e-120
2.32956e-121
7.90125e-123
2.67451e-124
2.12028e-71
9.42413e-73
4.14694e-74
1.80455e-75
7.76754e-77
3.30832e-78
1.39446e-79
5.81742e-81
2.40233e-82
9.82174e-84
3.97634e-85
1.59445e-86
6.33377e-88
2.49299e-89
9.72454e-91
3.75996e-92
1.44127e-93
5.47812e-95
2.06502e-96
7.72146e-98
2.86449e-99
1.05456e-100
3.85383e-102
1.39839e-103
5.03969e-105
1.80441e-106
6.4201e-108
2.27061e-109
7.98469e-111
2.79265e-112
9.71754e-114
3.36533e-115
1.16038e-116
3.98517e-118
1.36383e-119
4.65306e-121
1.5834e-122
5.37698e-124
2.1202e-71
9.42381e-73
4.14693e-74
1.8046e-75
7.76794e-77
3.30855e-78
1.39458e-79
5.81799e-81
2.40258e-82
9.82276e-84
3.97675e-85
1.59462e-86
6.33441e-88
2.49322e-89
9.72518e-91
3.76009e-92
1.44126e-93
5.47788e-95
2.06484e-96
7.72053e-98
2.86406e-99
1.05438e-100
3.85308e-102
1.3981e-103
5.03852e-105
1.80395e-106
6.41831e-108
2.26991e-109
7.98201e-111
2.79165e-112
9.71398e-114
3.36413e-115
1.15998e-116
3.98384e-118
1.36338e-119
4.65151e-121
1.58287e-122
5.37519e-124
5.44328e-73
2.38088e-74
1.03126e-75
4.41839e-77
1.87296e-78
7.85751e-80
3.26285e-81
1.34126e-82
5.45882e-84
2.20008e-85
8.78254e-87
3.47321e-88
1.36097e-89
5.28517e-91
2.03442e-92
7.76389e-94
2.93807e-95
1.10274e-96
4.10572e-98
1.51672e-99
5.56064e-101
2.02376e-102
7.31358e-104
2.62515e-105
9.36167e-107
3.31776e-108
1.16882e-109
4.09443e-111
1.42663e-112
4.94588e-114
1.70666e-115
5.86386e-117
2.00688e-118
6.84462e-120
2.32738e-121
7.89388e-123
2.67206e-124
1.58756e-73
6.87617e-75
2.94954e-76
1.2516e-77
5.2553e-79
2.18412e-80
8.98595e-82
3.66022e-83
1.47628e-84
5.89708e-86
2.33343e-87
9.14799e-89
3.55392e-90
1.36843e-91
5.22339e-93
1.97692e-94
7.42024e-96
2.76266e-97
1.02047e-98
3.74046e-100
1.36084e-101
4.91535e-103
1.76314e-104
6.28231e-106
2.22421e-107
7.82669e-109
2.7381e-110
9.52616e-112
3.29702e-113
1.13555e-114
3.89338e-116
1.32937e-117
4.52203e-119
1.53313e-120
5.18302e-122
1.74809e-123
5.88503e-125
1.96295e-74
8.39651e-76
3.5573e-77
1.49114e-78
6.18606e-80
2.54054e-81
1.03302e-82
4.15926e-84
1.65849e-85
6.55074e-87
2.5635e-88
9.9409e-90
3.82071e-91
1.45568e-92
5.49891e-94
2.05997e-95
7.6544e-97
2.82172e-98
1.03219e-99
3.74745e-101
1.35067e-102
4.834e-104
1.71839e-105
6.06895e-107
2.13013e-108
7.43233e-110
2.57868e-111
8.89932e-113
3.05591e-114
1.04447e-115
3.55456e-117
1.20495e-118
4.07028e-120
1.37068e-121
4.6037e-123
1.54297e-124
5.16324e-126
8.65144e-76
3.65084e-77
1.52601e-78
6.31246e-80
2.58486e-81
1.04802e-82
4.20768e-84
1.67309e-85
6.58986e-87
2.57164e-88
9.94512e-90
3.81203e-91
1.44851e-92
5.4573e-94
2.03893e-95
7.55578e-97
2.7778e-98
1.01335e-99
3.66898e-101
1.31874e-102
4.70654e-104
1.66833e-105
5.87504e-107
2.05593e-108
7.15159e-110
2.47356e-111
8.50943e-113
2.91252e-114
9.9213e-116
3.36473e-117
1.13652e-118
3.82484e-120
1.28303e-121
4.29178e-123
1.43225e-124
4.77093e-126
1.58722e-127
9.92297e-78
4.13082e-79
1.70331e-80
6.95241e-82
2.80978e-83
1.12454e-84
4.45754e-86
1.7503e-87
6.80954e-89
2.62552e-90
1.00344e-91
3.80214e-93
1.4285e-94
5.32248e-96
1.96698e-97
7.21148e-99
2.62348e-100
9.47229e-102
3.39511e-103
1.20831e-104
4.27105e-106
1.4998e-107
5.23344e-109
1.81518e-110
6.25982e-112
2.14707e-113
7.32669e-115
2.48817e-116
8.4121e-118
2.83228e-119
9.50037e-121
3.17607e-122
1.05868e-123
3.52013e-125
1.1681e-126
3.87044e-128
1.28133e-129
2.9389e-75
1.25165e-76
5.27837e-78
2.20263e-79
9.09774e-81
3.72007e-82
1.50608e-83
6.0382e-85
2.39783e-86
9.43351e-88
3.6775e-89
1.4208e-90
5.4412e-92
2.0659e-93
7.7776e-95
2.90386e-96
1.07542e-97
3.95138e-99
1.4407e-100
5.21362e-102
1.87296e-103
6.68085e-105
2.36677e-106
8.32965e-108
2.91322e-109
1.01281e-110
3.50124e-112
1.2039e-113
4.11881e-115
1.40247e-116
4.75431e-118
1.60509e-119
5.39881e-121
1.80998e-122
6.05103e-124
2.01829e-125
6.71982e-127
2.23456e-128
2.25856e-73
9.75213e-75
4.17028e-76
1.76426e-77
7.38577e-79
3.0604e-80
1.25537e-81
5.09845e-83
2.05046e-84
8.1676e-86
3.22288e-87
1.26003e-88
4.88194e-90
1.87481e-91
7.13755e-93
2.69431e-94
1.00863e-95
3.74534e-97
1.37979e-98
5.04406e-100
1.83012e-101
6.59171e-103
2.35746e-104
8.37401e-106
2.95523e-107
1.03644e-108
3.61341e-110
1.25269e-111
4.31973e-113
1.48213e-114
5.06137e-116
1.72086e-117
5.82755e-119
1.96639e-120
6.61449e-122
2.21907e-123
7.42864e-125
2.48278e-126
4.66463e-72
2.04192e-73
8.85254e-75
3.79622e-76
1.61049e-77
6.76122e-79
2.80953e-80
1.15568e-81
4.70652e-83
1.89796e-84
7.58016e-86
2.99887e-87
1.17547e-88
4.5659e-90
1.75785e-91
6.70901e-93
2.53886e-94
9.52816e-96
3.54694e-97
1.30996e-98
4.80069e-100
1.74616e-101
6.30532e-103
2.26092e-104
8.05262e-106
2.84962e-107
1.00221e-108
3.50409e-110
1.21834e-111
4.21377e-113
1.45016e-114
4.96764e-116
1.69449e-117
5.75787e-119
1.94989e-120
6.58388e-122
2.21762e-123
7.45492e-125
3.59986e-71
1.59588e-72
7.00635e-74
3.04209e-75
1.30641e-76
5.55102e-78
2.33422e-79
9.71498e-81
4.00247e-82
1.63254e-83
6.59357e-85
2.63746e-86
1.04507e-87
4.10287e-89
1.59623e-90
6.15531e-92
2.35308e-93
8.91946e-95
3.35306e-96
1.25033e-97
4.6257e-99
1.69821e-100
6.18833e-102
2.23892e-103
8.04461e-105
2.87138e-106
1.01839e-107
3.59006e-109
1.25827e-110
4.38596e-112
1.52091e-113
5.24858e-115
1.8032e-116
6.16998e-118
2.10355e-119
7.14895e-121
2.42303e-122
8.19434e-124
1.21455e-70
5.437e-72
2.4102e-73
1.05656e-74
4.58043e-76
1.9645e-77
8.33743e-79
3.50188e-80
1.45583e-81
5.99133e-83
2.44124e-84
9.85045e-86
3.93684e-87
1.55874e-88
6.11527e-90
2.37771e-91
9.16397e-93
3.50168e-94
1.32684e-95
4.98644e-97
1.859e-98
6.87674e-100
2.52469e-101
9.20176e-103
3.33033e-104
1.19722e-105
4.2761e-107
1.51785e-108
5.35595e-110
1.87932e-111
6.55926e-113
2.27796e-114
7.8748e-116
2.71087e-117
9.29687e-119
3.17774e-120
1.08306e-121
3.68259e-123
2.09444e-70
9.42241e-72
4.19755e-73
1.84909e-74
8.05513e-76
3.47136e-77
1.48027e-78
6.24678e-80
2.6091e-81
1.07872e-82
4.41553e-84
1.78977e-85
7.18525e-87
2.85759e-88
1.12605e-89
4.39736e-91
1.70213e-92
6.53188e-94
2.48549e-95
9.37984e-97
3.51137e-98
1.30423e-99
4.80769e-101
1.7593e-102
6.3926e-104
2.3071e-105
8.27218e-107
2.94753e-108
1.044e-109
3.67685e-111
1.28801e-112
4.48926e-114
1.55743e-115
5.3801e-117
1.85141e-118
6.34943e-120
2.17116e-121
7.40593e-123
2.09444e-70
9.42217e-72
4.1975e-73
1.84912e-74
8.05538e-76
3.4715e-77
1.48034e-78
6.2471e-80
2.60925e-81
1.07878e-82
4.4158e-84
1.78989e-85
7.18572e-87
2.85776e-88
1.12609e-89
4.39743e-91
1.7021e-92
6.53159e-94
2.4853e-95
9.37883e-97
3.5109e-98
1.30403e-99
4.80687e-101
1.75897e-102
6.39131e-104
2.30659e-105
8.27021e-107
2.94677e-108
1.04371e-109
3.67577e-111
1.28762e-112
4.48793e-114
1.55698e-115
5.37859e-117
1.8509e-118
6.34768e-120
2.17055e-121
7.40391e-123
5.4369e-72
2.40677e-73
1.05525e-74
4.57619e-76
1.96295e-77
8.33136e-79
3.4996e-80
1.45503e-81
5.98866e-83
2.44041e-84
9.84801e-86
3.93613e-87
1.5585e-88
6.11427e-90
2.37722e-91
9.16157e-93
3.50052e-94
1.3263e-95
4.98404e-97
1.85799e-98
6.87267e-100
2.5231e-101
9.19568e-103
3.32802e-104
1.19634e-105
4.27279e-107
1.5166e-108
5.35131e-110
1.87762e-111
6.55324e-113
2.2759e-114
7.86791e-116
2.70857e-117
9.28916e-119
3.17513e-120
1.08218e-121
3.67967e-123
1.59756e-72
7.0033e-74
3.04109e-75
1.30626e-76
5.55052e-78
2.33399e-79
9.71433e-81
4.00247e-82
1.63267e-83
6.59462e-85
2.63804e-86
1.04533e-87
4.10382e-89
1.59649e-90
6.15569e-92
2.35293e-93
8.91769e-95
3.35192e-96
1.24974e-97
4.62293e-99
1.69703e-100
6.18354e-102
2.23704e-103
8.03733e-105
2.86859e-106
1.01734e-107
3.58607e-109
1.25678e-110
4.38048e-112
1.51896e-113
5.24187e-115
1.80094e-116
6.16247e-118
2.10104e-119
7.14053e-121
2.42021e-122
8.18503e-124
2.04393e-73
8.85007e-75
3.796e-76
1.61076e-77
6.76281e-79
2.81035e-80
1.15613e-81
4.70888e-83
1.8991e-84
7.58528e-86
3.00102e-87
1.17631e-88
4.56892e-90
1.75883e-91
6.71176e-93
2.53947e-94
9.52867e-96
3.54645e-97
1.30953e-98
4.7983e-100
1.74506e-101
6.30065e-103
2.25904e-104
8.04527e-106
2.84678e-107
1.00112e-108
3.49997e-110
1.21679e-111
4.20803e-113
1.44809e-114
4.96049e-116
1.69209e-117
5.74993e-119
1.94727e-120
6.5752e-122
2.21475e-123
7.44555e-125
9.75724e-75
4.16858e-76
1.76415e-77
7.38713e-79
3.0614e-80
1.256e-81
5.10205e-83
2.05228e-84
8.17581e-86
3.22634e-87
1.26142e-88
4.88723e-90
1.8767e-91
7.14387e-93
2.69624e-94
1.00916e-95
3.74648e-97
1.37989e-98
5.04325e-100
1.82945e-101
6.58829e-103
2.35597e-104
8.36797e-106
2.95285e-107
1.03551e-108
3.60983e-110
1.25132e-111
4.31447e-113
1.48015e-114
5.05414e-116
1.71835e-117
5.81916e-119
1.96367e-120
6.60569e-122
2.21621e-123
7.41926e-125
2.47974e-126
1.25143e-76
5.27511e-78
2.20219e-79
9.09831e-81
3.72123e-82
1.50702e-83
6.04381e-85
2.40062e-86
9.44579e-88
3.68256e-89
1.4228e-90
5.44877e-92
2.06862e-93
7.78679e-95
2.90676e-96
1.07627e-97
3.9535e-99
1.44108e-100
5.21358e-102
1.87252e-103
6.67822e-105
2.36561e-106
8.32497e-108
2.91138e-109
1.01209e-110
3.49843e-112
1.2028e-113
4.11445e-115
1.40078e-116
4.74803e-118
1.60291e-119
5.39164e-121
1.8077e-122
6.04384e-124
2.01597e-125
6.71225e-127
2.23211e-128
1.99237e-74
8.58352e-76
3.66121e-77
1.54499e-78
6.45224e-80
2.66728e-81
1.09158e-82
4.42319e-84
1.77497e-85
7.05537e-87
2.7784e-88
1.08415e-89
4.19259e-91
1.60711e-92
6.10735e-94
2.30133e-95
8.60017e-97
3.18806e-98
1.17254e-99
4.2795e-101
1.55026e-102
5.57506e-104
1.99083e-105
7.06119e-107
2.48832e-108
8.71462e-110
3.03412e-111
1.05049e-112
3.61787e-114
1.23979e-115
4.22865e-117
1.43602e-118
4.85718e-120
1.63704e-121
5.5003e-123
1.84322e-124
6.16385e-126
2.05795e-127
1.39924e-72
6.11086e-74
2.64308e-75
1.1308e-76
4.78646e-78
2.00507e-79
8.3139e-81
3.41269e-82
1.38699e-83
5.58222e-85
2.2252e-86
8.78692e-88
3.43792e-89
1.33299e-90
5.12279e-92
1.95173e-93
7.373e-95
2.7623e-96
1.02656e-97
3.78502e-99
1.38486e-100
5.0291e-102
1.81309e-103
6.49096e-105
2.30822e-106
8.15539e-108
2.86377e-109
9.99733e-111
3.47065e-112
1.19852e-113
4.11837e-115
1.4086e-116
4.79727e-118
1.62751e-119
5.50261e-121
1.85493e-122
6.23746e-124
2.09329e-125
2.73606e-71
1.21122e-72
5.31071e-74
2.30307e-75
9.87852e-77
4.1924e-78
1.76083e-79
7.32015e-81
3.01245e-82
1.22738e-83
4.95187e-85
1.97865e-86
7.83178e-88
3.07137e-89
1.19362e-90
4.59775e-92
1.75572e-93
6.64783e-95
2.49635e-96
9.29858e-98
3.43635e-99
1.26019e-100
4.58712e-102
1.65773e-103
5.94942e-105
2.12099e-106
7.51319e-108
2.6452e-109
9.25902e-111
3.22309e-112
1.11614e-113
3.84628e-115
1.31948e-116
4.50796e-118
1.53445e-119
5.20611e-121
1.76143e-122
5.94593e-124
2.06377e-70
9.25094e-72
4.107e-73
1.80321e-74
7.829e-76
3.3625e-77
1.429e-78
6.01017e-80
2.50192e-81
1.03098e-82
4.20609e-84
1.69918e-85
6.79851e-87
2.69457e-88
1.05816e-89
4.11799e-91
1.58846e-92
6.07446e-94
2.30339e-95
8.6624e-97
3.23151e-98
1.19608e-99
4.39347e-101
1.60197e-102
5.79976e-104
2.08541e-105
7.44929e-107
2.64423e-108
9.3297e-110
3.273e-111
1.14201e-112
3.96446e-114
1.36976e-115
4.71223e-117
1.61475e-118
5.51405e-120
1.87724e-121
6.37465e-123
6.94297e-70
3.14232e-71
1.40848e-72
6.2431e-74
2.73613e-75
1.18608e-76
5.08695e-78
2.15895e-79
9.06821e-81
3.77003e-82
1.55159e-83
6.3226e-85
2.55141e-86
1.01981e-87
4.03824e-89
1.58449e-90
6.1616e-92
2.37516e-93
9.07757e-95
3.44039e-96
1.29328e-97
4.82304e-99
1.78482e-100
6.55569e-102
2.3906e-103
8.65703e-105
3.11401e-106
1.11295e-107
3.95331e-109
1.39603e-110
4.90246e-112
1.71262e-113
5.95382e-115
2.06055e-116
7.10238e-118
2.43916e-119
8.35005e-121
2.85068e-122
1.20073e-69
5.46114e-71
2.45984e-72
1.09564e-73
4.82498e-75
2.10155e-76
9.05596e-78
3.86146e-79
1.62946e-80
6.80558e-82
2.81371e-83
1.15175e-84
4.66864e-86
1.87436e-87
7.45478e-89
2.93778e-90
1.14734e-91
4.44158e-93
1.70467e-94
6.48762e-96
2.44883e-97
9.16974e-99
3.40708e-100
1.25644e-101
4.59987e-103
1.67226e-104
6.03851e-106
2.1664e-107
7.72415e-109
2.73772e-110
9.64916e-112
3.38295e-113
1.18022e-114
4.09879e-116
1.41759e-117
4.88464e-119
1.67763e-120
5.74562e-122
1.20077e-69
5.46108e-71
2.45979e-72
1.09565e-73
4.82506e-75
2.10159e-76
9.05612e-78
3.86153e-79
1.62949e-80
6.80572e-82
2.81378e-83
1.15179e-84
4.6688e-86
1.87442e-87
7.45492e-89
2.93778e-90
1.14731e-91
4.44138e-93
1.70455e-94
6.487e-96
2.44855e-97
9.16851e-99
3.40657e-100
1.25624e-101
4.59907e-103
1.67195e-104
6.0373e-106
2.16593e-107
7.72237e-109
2.73706e-110
9.64679e-112
3.38212e-113
1.17994e-114
4.09784e-116
1.41727e-117
4.88354e-119
1.67725e-120
5.74436e-122
3.14312e-71
1.40655e-72
6.23465e-74
2.7334e-75
1.18511e-76
5.08315e-78
2.15744e-79
9.06248e-81
3.768e-82
1.55091e-83
6.32044e-85
2.55073e-86
1.01958e-87
4.03736e-89
1.58411e-90
6.1599e-92
2.37438e-93
9.07404e-95
3.43885e-96
1.29264e-97
4.82044e-99
1.7838e-100
6.55176e-102
2.3891e-103
8.65136e-105
3.11188e-106
1.11215e-107
3.95033e-109
1.39494e-110
4.89859e-112
1.71129e-113
5.9493e-115
2.05903e-116
7.09726e-118
2.43744e-119
8.34426e-121
2.84877e-122
9.26381e-72
4.10546e-73
1.80241e-74
7.82745e-76
3.36206e-77
1.42877e-78
6.00908e-80
2.50154e-81
1.03088e-82
4.20603e-84
1.69927e-85
6.7992e-87
2.69485e-88
1.05823e-89
4.11795e-91
1.58829e-92
6.07314e-94
2.30262e-95
8.65851e-97
3.22973e-98
1.19533e-99
4.39042e-101
1.60077e-102
5.79512e-104
2.08363e-105
7.44254e-107
2.64168e-108
9.32016e-110
3.2695e-111
1.14076e-112
3.96011e-114
1.36829e-115
4.70728e-117
1.61309e-118
5.50848e-120
1.87539e-121
6.36857e-123
1.21282e-72
5.30964e-74
2.30282e-75
9.88001e-77
4.1933e-78
1.76122e-79
7.322e-81
3.01342e-82
1.22788e-83
4.95424e-85
1.97969e-86
7.83603e-88
3.07292e-89
1.19413e-90
4.59915e-92
1.756e-93
6.64782e-95
2.49593e-96
9.29552e-98
3.43473e-99
1.25946e-100
4.58405e-102
1.6565e-103
5.94459e-105
2.11912e-106
7.50603e-108
2.64247e-109
9.2487e-111
3.21926e-112
1.11475e-113
3.84144e-115
1.31784e-116
4.5025e-118
1.53264e-119
5.20012e-121
1.75946e-122
5.93953e-124
6.11582e-74
2.64226e-75
1.13079e-76
4.78763e-78
2.00575e-79
8.31756e-81
3.41469e-82
1.388e-83
5.58685e-85
2.22719e-86
8.79506e-88
3.44105e-89
1.33411e-90
5.12655e-92
1.95286e-93
7.37595e-95
2.76285e-96
1.02655e-97
3.78421e-99
1.38433e-100
5.02651e-102
1.81199e-103
6.48656e-105
2.30649e-106
8.14864e-108
2.86115e-109
9.9872e-111
3.46675e-112
1.19705e-113
4.11295e-115
1.4067e-116
4.7909e-118
1.62543e-119
5.49584e-121
1.85272e-122
6.23026e-124
2.09097e-125
8.58362e-76
3.65943e-77
1.54489e-78
6.45331e-80
2.66818e-81
1.09219e-82
4.42677e-84
1.77681e-85
7.06364e-87
2.78184e-88
1.08552e-89
4.19777e-91
1.60896e-92
6.11355e-94
2.30325e-95
8.60551e-97
3.18927e-98
1.17268e-99
4.27894e-101
1.54975e-102
5.5725e-104
1.98976e-105
7.05702e-107
2.4867e-108
8.70829e-110
3.03164e-111
1.04951e-112
3.61399e-114
1.23828e-115
4.22306e-117
1.43406e-118
4.85072e-120
1.63498e-121
5.49373e-123
1.84109e-124
6.15675e-126
2.05564e-127
8.53219e-74
3.71318e-75
1.59975e-76
6.81766e-78
2.87502e-79
1.19999e-80
4.95792e-82
2.02801e-83
8.21414e-85
3.29496e-86
1.30926e-87
5.15412e-89
2.01053e-90
7.77265e-92
2.97854e-93
1.1316e-94
4.26303e-96
1.59285e-97
5.90401e-99
2.1713e-100
7.92451e-102
2.87072e-103
1.03247e-104
3.68765e-106
1.30836e-107
4.61254e-109
1.61626e-110
5.63074e-112
1.95089e-113
6.7241e-115
2.30627e-116
7.87406e-118
2.67702e-119
9.06671e-121
3.06042e-122
1.03003e-123
3.4583e-125
1.1589e-126
5.65412e-72
2.49407e-73
1.08953e-74
4.70755e-76
2.01201e-77
8.50939e-79
3.56192e-80
1.47586e-81
6.05393e-83
2.45883e-84
9.88981e-86
3.93993e-87
1.55493e-88
6.08045e-90
2.35638e-91
9.05149e-93
3.44703e-94
1.30169e-95
4.87522e-97
1.81129e-98
6.67686e-100
2.4425e-101
8.86902e-103
3.19744e-104
1.14481e-105
4.07176e-107
1.43904e-108
5.05511e-110
1.76554e-111
6.1325e-113
2.11906e-114
7.28669e-116
2.49435e-117
8.50362e-119
2.88837e-120
9.77902e-122
3.30168e-123
1.1122e-124
1.06838e-70
4.77628e-72
2.11491e-73
9.26198e-75
4.01122e-76
1.71857e-77
7.28607e-79
3.05719e-80
1.26971e-81
5.22034e-83
2.12503e-84
8.56597e-86
3.41992e-87
1.3526e-88
5.30047e-90
2.05846e-91
7.92383e-93
3.024e-94
1.14437e-95
4.29508e-97
1.59913e-98
5.90737e-100
2.1657e-101
7.88139e-103
2.84785e-104
1.02201e-105
3.64362e-107
1.29083e-108
4.54559e-110
1.59154e-111
5.54227e-113
1.92017e-114
6.62104e-116
2.27309e-117
7.77304e-119
2.6487e-120
8.9979e-122
3.04871e-123
7.95739e-70
3.60169e-71
1.61459e-72
7.15832e-74
3.13787e-75
1.36044e-76
5.83552e-78
2.47697e-79
1.04053e-80
4.32643e-82
1.78077e-83
7.257e-85
2.92859e-86
1.17056e-87
4.63497e-89
1.81847e-90
7.07066e-92
2.72516e-93
1.04133e-94
3.9458e-96
1.48292e-97
5.52874e-99
2.04531e-100
7.50964e-102
2.73725e-103
9.90729e-105
3.56166e-106
1.27211e-107
4.51535e-109
1.59322e-110
5.59001e-112
1.95093e-113
6.7751e-115
2.34208e-116
8.06252e-118
2.76508e-119
9.45149e-121
3.2214e-122
2.68044e-69
1.22487e-70
5.54332e-72
2.481e-73
1.09776e-74
4.80344e-76
2.07923e-77
8.9053e-79
3.7744e-80
1.58325e-81
6.57373e-83
2.7021e-84
1.09976e-85
4.43279e-87
1.76982e-88
7.00062e-90
2.74403e-91
1.06604e-92
4.10554e-94
1.56773e-95
5.93688e-97
2.23011e-98
8.31135e-100
3.07396e-101
1.12853e-102
4.11357e-104
1.48912e-105
5.35502e-107
1.9135e-108
6.796e-110
2.39977e-111
8.42789e-113
2.94477e-114
1.02407e-115
3.54591e-117
1.22298e-118
4.20338e-120
1.4403e-121
4.65495e-69
2.13757e-70
9.72111e-72
4.372e-73
1.9438e-74
8.54592e-76
3.71666e-77
1.59928e-78
6.80979e-80
2.86966e-81
1.19694e-82
4.94224e-84
2.02052e-85
8.18032e-87
3.28041e-88
1.30324e-89
5.1303e-91
2.00158e-92
7.74101e-94
2.96828e-95
1.1287e-96
4.25714e-98
1.593e-99
5.91531e-101
2.18025e-102
7.97824e-104
2.89929e-105
1.04658e-106
3.75375e-108
1.33812e-109
4.74231e-111
1.67145e-112
5.86078e-114
2.0452e-115
7.10567e-117
2.45889e-118
8.47867e-120
2.91446e-121
4.65519e-69
2.13757e-70
9.72089e-72
4.37196e-73
1.9438e-74
8.54597e-76
3.71665e-77
1.59927e-78
6.80973e-80
2.86964e-81
1.19693e-82
4.94225e-84
2.02053e-85
8.18037e-87
3.28041e-88
1.30322e-89
5.13015e-91
2.00148e-92
7.74049e-94
2.96802e-95
1.12859e-96
4.25664e-98
1.5928e-99
5.91448e-101
2.17992e-102
7.97697e-104
2.8988e-105
1.04639e-106
3.75303e-108
1.33785e-109
4.74135e-111
1.67112e-112
5.85964e-114
2.04481e-115
7.10434e-117
2.45844e-118
8.47714e-120
2.91396e-121
1.22541e-70
5.53618e-72
2.47743e-73
1.09658e-74
4.79939e-76
2.07765e-77
8.89883e-79
3.77183e-80
1.58229e-81
6.57035e-83
2.70097e-84
1.09938e-85
4.43151e-87
1.76935e-88
6.99875e-90
2.74323e-91
1.06569e-92
4.10401e-94
1.56707e-95
5.93414e-97
2.22901e-98
8.30704e-100
3.0723e-101
1.12789e-102
4.11116e-104
1.48822e-105
5.35161e-107
1.91223e-108
6.7914e-110
2.39814e-111
8.42221e-113
2.94284e-114
1.02342e-115
3.5437e-117
1.22224e-118
4.2009e-120
1.43949e-121
3.60756e-71
1.61412e-72
7.15454e-74
3.137e-75
1.3602e-76
5.83435e-78
2.47635e-79
1.04026e-80
4.3255e-82
1.78051e-83
7.25644e-85
2.92851e-86
1.17055e-87
4.63487e-89
1.81834e-90
7.06964e-92
2.72453e-93
1.04099e-94
3.94414e-96
1.48217e-97
5.52559e-99
2.04404e-100
7.50464e-102
2.73532e-103
9.89987e-105
3.55884e-106
1.27104e-107
4.51135e-109
1.59175e-110
5.58474e-112
1.94909e-113
6.76882e-115
2.33996e-116
8.05541e-118
2.7627e-119
9.4436e-121
3.21884e-122
4.78375e-72
2.11465e-73
9.26065e-75
4.01174e-76
1.71892e-77
7.28738e-79
3.0577e-80
1.26996e-81
5.22166e-83
2.1257e-84
8.56915e-86
3.42127e-87
1.3531e-88
5.30213e-90
2.0589e-91
7.9246e-93
3.02388e-94
1.14416e-95
4.29371e-97
1.59843e-98
5.90424e-100
2.1644e-101
7.87621e-103
2.84582e-104
1.02122e-105
3.64057e-107
1.28967e-108
4.54115e-110
1.58989e-111
5.53624e-113
1.91805e-114
6.61383e-116
2.27069e-117
7.76506e-119
2.64607e-120
8.98928e-122
3.04594e-123
2.49662e-73
1.08928e-74
4.70767e-76
2.01261e-77
8.51254e-79
3.56338e-80
1.47658e-81
6.05752e-83
2.4605e-84
9.89712e-86
3.94296e-87
1.55611e-88
6.08474e-90
2.35781e-91
9.05576e-93
3.44811e-94
1.30186e-95
4.87495e-97
1.81087e-98
6.67433e-100
2.44132e-101
8.86409e-103
3.19548e-104
1.14404e-105
4.06873e-107
1.43785e-108
5.05044e-110
1.76372e-111
6.12555e-113
2.11649e-114
7.27767e-116
2.49131e-117
8.49364e-119
2.88512e-120
9.76848e-122
3.29825e-123
1.1111e-124
3.71377e-75
1.59914e-76
6.81792e-78
2.87578e-79
1.20045e-80
4.96059e-82
2.02948e-83
8.22149e-85
3.29836e-86
1.31069e-87
5.15987e-89
2.01272e-90
7.78047e-92
2.98115e-93
1.13239e-94
4.26517e-96
1.59328e-97
5.9042e-99
2.17089e-100
7.92165e-102
2.86939e-103
1.03194e-104
3.68559e-106
1.30757e-107
4.60937e-109
1.61499e-110
5.62563e-112
1.94884e-113
6.71626e-115
2.30336e-116
7.86375e-118
2.67355e-119
9.05543e-121
3.05683e-122
1.02888e-123
3.45464e-125
1.15774e-126
2.54479e-73
1.1171e-74
4.85418e-76
2.08624e-77
8.87133e-79
3.7334e-80
1.55517e-81
6.41299e-83
2.61832e-84
1.05861e-85
4.23906e-87
1.68155e-88
6.60874e-90
2.57378e-91
9.93445e-93
3.80116e-94
1.44203e-95
5.4251e-97
2.02444e-98
7.49461e-100
2.75308e-101
1.00368e-102
3.63233e-104
1.30526e-105
4.65856e-107
1.65186e-108
5.82082e-110
2.03897e-111
7.10188e-113
2.46033e-114
8.48004e-116
2.90887e-117
9.93398e-119
3.37883e-120
1.14509e-121
3.86847e-123
1.30339e-124
4.38187e-126
1.63077e-71
7.25489e-73
3.19629e-74
1.39267e-75
6.00173e-77
2.55912e-78
1.07991e-79
4.51052e-81
1.86492e-82
7.63387e-84
3.09421e-85
1.24207e-86
4.93862e-88
1.94542e-89
7.59366e-91
2.93765e-92
1.12654e-93
4.28329e-95
1.61502e-96
6.03998e-98
2.24093e-99
8.24987e-101
3.0143e-102
1.09333e-103
3.93782e-105
1.40869e-106
5.00663e-108
1.76835e-109
6.20873e-111
2.16756e-112
7.5266e-114
2.60036e-115
8.94172e-117
3.06147e-118
1.04409e-119
3.54841e-121
1.20231e-122
4.06339e-124
3.02507e-70
1.36376e-71
6.08935e-73
2.68908e-74
1.17421e-75
5.07168e-77
2.16745e-78
9.16674e-80
3.83707e-81
1.58985e-82
6.52141e-84
2.64865e-85
1.06533e-86
4.24425e-88
1.67517e-89
6.55153e-91
2.53945e-92
9.75745e-94
3.71723e-95
1.40434e-96
5.26235e-98
1.95628e-99
7.21642e-101
2.64212e-102
9.60352e-104
3.4663e-105
1.24272e-106