/*--------------------------------*- C++ -*----------------------------------*\
| =========                 |                                                 |
| \\      /  F ield         | OpenFOAM: The Open Source CFD Toolbox           |
|  \\    /   O peration     | Version:  2.3.1                                 |
|   \\  /    A nd           | Web:      www.OpenFOAM.org                      |
|    \\/     M anipulation  |                                                 |
\*---------------------------------------------------------------------------*/
FoamFile
{
    version     2.0;
    format      ascii;
    class       volScalarField;
    location    "10";
    object      Sed_0;
}
// * * * * * * * * * * * * * * * * * * * * * * * * * * * * * * * * * * * * * //

dimensions      [0 0 0 0 0 0 0];

internalField   nonuniform List<scalar> 
37692
(
7.4162e-78
3.07626e-79
1.26386e-80
5.14054e-82
2.07024e-83
8.25606e-85
3.26091e-86
1.27593e-87
4.94722e-89
1.90126e-90
7.2436e-92
2.73635e-93
1.0251e-94
3.80892e-96
1.40391e-97
5.13385e-99
1.86289e-100
6.70909e-102
2.39867e-103
8.51527e-105
3.00215e-106
1.05139e-107
3.6586e-109
1.26536e-110
4.35118e-112
1.48809e-113
5.06311e-115
1.71442e-116
5.7792e-118
1.94001e-119
6.48726e-121
2.16167e-122
7.18061e-124
2.37893e-125
7.8645e-127
2.59571e-128
8.55805e-130
2.82023e-131
7.61988e-76
3.20542e-77
1.33524e-78
5.50492e-80
2.24681e-81
9.07943e-83
3.63316e-84
1.43991e-85
5.65345e-87
2.19948e-88
8.48076e-90
3.24144e-91
1.22831e-92
4.6155e-94
1.72003e-95
6.35812e-97
2.33171e-98
8.48528e-100
3.06475e-101
1.09888e-102
3.91211e-104
1.38316e-105
4.8579e-107
1.69537e-108
5.88105e-110
2.0284e-111
6.95818e-113
2.37476e-114
8.0661e-116
2.72749e-117
9.18442e-119
3.08091e-120
1.02995e-121
3.4329e-123
1.14136e-124
3.78723e-126
1.25483e-127
4.15398e-129
1.87935e-74
8.01683e-76
3.38567e-77
1.4148e-78
5.85183e-80
2.39606e-81
9.71328e-83
3.89914e-84
1.55023e-85
6.10573e-87
2.38275e-88
9.21523e-90
3.53269e-91
1.34263e-92
5.05975e-94
1.89102e-95
7.01028e-97
2.57832e-98
9.40995e-100
3.40856e-101
1.22566e-102
4.376e-104
1.5517e-105
5.46625e-107
1.91361e-108
6.65931e-110
2.30435e-111
7.93125e-113
2.7161e-114
9.25749e-116
3.14136e-117
1.06162e-118
3.57456e-120
1.1997e-121
4.01534e-123
1.34088e-124
4.46983e-126
1.48823e-127
1.55932e-73
6.73817e-75
2.88213e-76
1.21957e-77
5.10706e-79
2.11681e-80
8.6854e-82
3.52824e-83
1.41927e-84
5.65454e-86
2.23172e-87
8.72743e-89
3.38242e-90
1.29941e-91
4.94897e-93
1.86899e-94
7.00008e-96
2.60067e-97
9.58603e-99
3.50623e-100
1.27284e-101
4.58707e-103
1.64153e-104
5.83504e-106
2.06087e-107
7.23427e-109
2.52466e-110
8.76196e-112
3.02497e-113
1.03917e-114
3.55334e-116
1.20981e-117
4.10308e-119
1.38677e-120
4.67311e-122
1.5708e-123
5.2695e-125
1.76517e-126
5.3464e-73
2.33354e-74
1.00805e-75
4.3074e-77
1.82126e-78
7.6214e-80
3.15683e-81
1.29442e-82
5.25512e-84
2.11279e-85
8.4137e-87
3.3195e-88
1.29779e-89
5.02884e-91
1.93169e-92
7.35671e-94
2.77835e-95
1.0407e-96
3.86701e-98
1.42566e-99
5.21593e-101
1.8942e-102
6.83009e-104
2.44605e-105
8.70303e-107
3.07728e-108
1.08162e-109
3.78027e-111
1.3141e-112
4.54485e-114
1.56434e-115
5.36059e-117
1.82955e-118
6.22178e-120
2.10923e-121
7.13144e-123
2.40597e-124
8.104e-126
9.19968e-73
4.03584e-74
1.75221e-75
7.52467e-77
3.19737e-78
1.34458e-79
5.59647e-81
2.30583e-82
9.40575e-84
3.79928e-85
1.52001e-86
6.02461e-88
2.36615e-89
9.21019e-91
3.55371e-92
1.35942e-93
5.1566e-95
1.93992e-96
7.23925e-98
2.6802e-99
9.84675e-101
3.59072e-102
1.30005e-103
4.67476e-105
1.66997e-106
5.92831e-108
2.09192e-109
7.33959e-111
2.56114e-112
8.89106e-114
3.07166e-115
1.05644e-116
3.61863e-118
1.23496e-119
4.20114e-121
1.42525e-122
4.8244e-124
1.63027e-125
9.19892e-73
4.03565e-74
1.75221e-75
7.52497e-77
3.1976e-78
1.34472e-79
5.59721e-81
2.30617e-82
9.4072e-84
3.79984e-85
1.52023e-86
6.02547e-88
2.36648e-89
9.21133e-91
3.55405e-92
1.3595e-93
5.15667e-95
1.93985e-96
7.23865e-98
2.67986e-99
9.84516e-101
3.59005e-102
1.29978e-103
4.67369e-105
1.66955e-106
5.92666e-108
2.09127e-109
7.33704e-111
2.56014e-112
8.88735e-114
3.07035e-115
1.056e-116
3.61721e-118
1.23449e-119
4.19956e-121
1.42471e-122
4.82253e-124
1.62964e-125
2.33157e-74
1.00667e-75
4.30283e-77
1.8196e-78
7.6154e-80
3.15486e-81
1.29384e-82
5.25347e-84
2.11234e-85
8.4126e-87
3.3193e-88
1.29778e-89
5.0288e-91
1.93159e-92
7.35583e-94
2.77776e-95
1.04037e-96
3.8654e-98
1.42493e-99
5.21282e-101
1.89296e-102
6.82531e-104
2.44423e-105
8.69614e-107
3.07467e-108
1.08064e-109
3.77651e-111
1.31268e-112
4.53962e-114
1.5625e-115
5.35447e-117
1.82757e-118
6.21534e-120
2.10709e-121
7.12417e-123
2.40351e-124
8.09576e-126
6.73869e-75
2.88095e-76
1.2194e-77
5.10682e-79
2.11688e-80
8.68688e-82
3.52938e-83
1.41989e-84
5.65736e-86
2.23294e-87
8.73246e-89
3.38437e-90
1.30008e-91
4.95097e-93
1.86946e-94
7.00064e-96
2.60041e-97
9.58324e-99
3.50455e-100
1.27202e-101
4.58351e-103
1.64009e-104
5.82937e-106
2.05867e-107
7.22586e-109
2.52147e-110
8.74988e-112
3.02042e-113
1.0375e-114
3.54744e-116
1.20783e-117
4.09658e-119
1.38466e-120
4.66613e-122
1.56846e-123
5.26164e-125
1.76254e-126
8.01659e-76
3.38437e-77
1.41477e-78
5.85275e-80
2.39687e-81
9.71883e-83
3.90227e-84
1.55173e-85
6.11218e-87
2.38538e-88
9.22561e-90
3.5366e-91
1.34401e-92
5.06424e-94
1.89235e-95
7.01378e-97
2.57903e-98
9.41027e-100
3.40782e-101
1.22511e-102
4.37323e-104
1.5505e-105
5.46134e-107
1.91167e-108
6.65178e-110
2.30147e-111
7.92032e-113
2.71197e-114
9.24218e-116
3.13589e-117
1.05976e-118
3.56845e-120
1.19772e-121
4.00894e-123
1.33877e-124
4.46287e-126
1.48594e-127
3.20413e-77
1.33434e-78
5.50335e-80
2.24678e-81
9.08214e-83
3.63558e-84
1.44135e-85
5.66044e-87
2.20247e-88
8.49284e-90
3.24617e-91
1.2301e-92
4.62196e-94
1.72224e-95
6.36526e-97
2.33387e-98
8.49118e-100
3.06607e-101
1.09904e-102
3.91168e-104
1.38274e-105
4.85571e-107
1.69441e-108
5.87708e-110
2.0268e-111
6.95188e-113
2.37229e-114
8.05647e-116
2.72379e-117
9.17086e-119
3.07623e-120
1.02842e-121
3.42807e-123
1.13984e-124
3.78237e-126
1.25326e-127
4.1489e-129
3.0736e-79
1.26247e-80
5.13693e-82
2.06954e-83
8.25695e-85
3.26282e-86
1.27721e-87
4.95359e-89
1.90403e-90
7.25492e-92
2.74085e-93
1.02684e-94
3.81537e-96
1.40619e-97
5.14152e-99
1.86535e-100
6.71652e-102
2.4007e-103
8.52004e-105
3.00304e-106
1.05151e-107
3.65858e-109
1.26526e-110
4.35051e-112
1.48774e-113
5.06144e-115
1.71364e-116
5.77566e-118
1.93847e-119
6.48117e-121
2.15951e-122
7.17365e-124
2.37682e-125
7.85814e-127
2.59375e-128
8.55184e-130
2.8183e-131
2.34073e-76
9.84194e-78
4.09818e-79
1.68898e-80
6.89105e-82
2.78372e-83
1.11354e-84
4.41182e-86
1.73169e-87
6.73534e-89
2.59639e-90
9.92151e-92
3.75888e-93
1.41216e-94
5.26158e-96
1.94457e-97
7.12993e-99
2.59413e-100
9.36779e-102
3.35822e-103
1.19534e-104
4.22546e-106
1.48378e-107
5.17736e-109
1.79565e-110
6.19225e-112
2.12384e-113
7.24739e-115
2.4613e-116
8.32158e-118
2.80181e-119
9.39742e-121
3.14116e-122
1.04683e-123
3.48002e-125
1.15458e-126
3.82506e-128
1.2661e-129
2.01167e-74
8.57666e-76
3.62125e-77
1.5129e-78
6.25598e-80
2.5609e-81
1.0379e-82
4.16544e-84
1.65575e-85
6.52001e-87
2.54392e-88
9.83652e-90
3.77004e-91
1.43249e-92
5.39703e-94
2.01652e-95
7.47342e-97
2.74784e-98
1.00255e-99
3.63042e-101
1.30503e-102
4.6579e-104
1.65111e-105
5.8143e-107
2.03463e-108
7.07736e-110
2.44785e-111
8.42096e-113
2.88228e-114
9.81842e-116
3.32977e-117
1.12461e-118
3.78416e-120
1.26914e-121
4.24451e-123
1.41623e-124
4.71684e-126
1.56897e-127
4.50004e-73
1.94534e-74
8.32756e-76
3.52655e-77
1.47779e-78
6.1294e-80
2.51664e-81
1.02302e-82
4.11789e-84
1.64164e-85
6.48301e-87
2.53662e-88
9.83567e-90
3.78011e-91
1.44023e-92
5.44083e-94
2.03837e-95
7.57483e-97
2.79268e-98
1.02167e-99
3.70957e-101
1.33707e-102
4.78536e-104
1.70108e-105
6.00769e-107
2.10858e-108
7.35701e-110
2.55252e-111
8.80899e-113
3.02485e-114
1.0338e-115
3.51785e-117
1.19232e-118
4.02689e-120
1.35584e-121
4.55316e-123
1.52581e-124
5.10501e-126
3.59301e-72
1.57325e-73
6.82068e-75
2.9247e-76
1.24074e-77
5.20897e-79
2.16451e-80
8.90344e-82
3.62584e-83
1.46213e-84
5.83947e-86
2.31025e-87
9.05598e-89
3.51792e-90
1.35454e-91
5.17045e-93
1.95695e-94
7.34562e-96
2.73501e-97
1.0103e-98
3.70329e-100
1.34731e-101
4.86634e-103
1.74549e-104
6.21917e-106
2.20177e-107
7.74744e-109
2.7103e-110
9.4292e-112
3.26333e-113
1.12385e-114
3.85275e-116
1.31527e-117
4.47333e-119
1.51638e-120
5.12571e-122
1.72853e-123
5.81832e-125
1.22105e-71
5.39962e-73
2.36396e-74
1.02351e-75
4.38364e-77
1.85783e-78
7.79241e-80
3.23505e-81
1.32952e-82
5.40979e-84
2.17985e-85
8.70005e-87
3.44e-88
1.34779e-89
5.2335e-91
2.01441e-92
7.68725e-94
2.90899e-95
1.09179e-96
4.06485e-98
1.50156e-99
5.50468e-101
2.00324e-102
7.23883e-104
2.59812e-105
9.26457e-107
3.28312e-108
1.15656e-109
4.05122e-111
1.41147e-112
4.89282e-114
1.68811e-115
5.79913e-117
1.98441e-118
6.767e-120
2.30069e-121
7.80232e-123
2.64069e-124
2.10262e-71
9.34474e-73
4.11155e-74
1.78894e-75
7.69949e-77
3.27896e-78
1.38193e-79
5.76448e-81
2.3802e-82
9.73012e-84
3.93879e-85
1.57921e-86
6.2725e-88
2.46859e-89
9.62823e-91
3.72229e-92
1.42666e-93
5.42197e-95
2.04361e-96
7.64053e-98
2.83413e-99
1.04326e-100
3.81208e-102
1.38308e-103
4.9839e-105
1.78422e-106
6.3475e-108
2.24466e-109
7.89248e-111
2.76006e-112
9.60295e-114
3.32524e-115
1.14641e-116
3.9367e-118
1.34707e-119
4.59531e-121
1.56355e-122
5.30888e-124
2.10255e-71
9.34441e-73
4.11154e-74
1.789e-75
7.69989e-77
3.27919e-78
1.38205e-79
5.76505e-81
2.38044e-82
9.73113e-84
3.9392e-85
1.57938e-86
6.27314e-88
2.46881e-89
9.62887e-91
3.72242e-92
1.42666e-93
5.42173e-95
2.04344e-96
7.6396e-98
2.83371e-99
1.04308e-100
3.81134e-102
1.38278e-103
4.98274e-105
1.78377e-106
6.34573e-108
2.24397e-109
7.88982e-111
2.75907e-112
9.59944e-114
3.32405e-115
1.14601e-116
3.9354e-118
1.34663e-119
4.59378e-121
1.56302e-122
5.30712e-124
5.39744e-73
2.36059e-74
1.02236e-75
4.37976e-77
1.85637e-78
7.78705e-80
3.23322e-81
1.32893e-82
5.40801e-84
2.17934e-85
8.69876e-87
3.43967e-88
1.34768e-89
5.23293e-91
2.01407e-92
7.68536e-94
2.90801e-95
1.09133e-96
4.06276e-98
1.50068e-99
5.50116e-101
2.00188e-102
7.23362e-104
2.59614e-105
9.2571e-107
3.2803e-108
1.15549e-109
4.04721e-111
1.41e-112
4.88765e-114
1.68636e-115
5.79338e-117
1.98251e-118
6.76065e-120
2.29854e-121
7.79505e-123
2.63826e-124
1.5742e-73
6.81765e-75
2.92411e-76
1.24067e-77
5.2088e-79
2.16455e-80
8.90441e-82
3.62658e-83
1.46255e-84
5.84154e-86
2.31118e-87
9.05971e-89
3.51922e-90
1.35491e-91
5.17118e-93
1.95693e-94
7.34436e-96
2.73408e-97
1.00979e-98
3.7009e-100
1.34628e-101
4.8622e-103
1.74386e-104
6.21289e-106
2.19937e-107
7.73834e-109
2.70686e-110
9.41633e-112
3.2586e-113
1.12218e-114
3.84706e-116
1.31339e-117
4.46711e-119
1.51432e-120
5.11878e-122
1.7262e-123
5.81058e-125
1.94637e-74
8.32477e-76
3.52651e-77
1.47806e-78
6.13112e-80
2.51769e-81
1.02361e-82
4.1209e-84
1.64301e-85
6.4888e-87
2.53897e-88
9.84462e-90
3.78327e-91
1.44125e-92
5.44374e-94
2.03907e-95
7.57583e-97
2.79243e-98
1.02135e-99
3.70767e-101
1.33617e-102
4.78155e-104
1.69954e-105
6.00165e-107
2.10625e-108
7.34813e-110
2.54916e-111
8.79635e-113
3.02018e-114
1.03213e-115
3.51212e-117
1.19042e-118
4.02068e-120
1.3538e-121
4.54643e-123
1.52358e-124
5.09769e-126
8.57774e-76
3.61937e-77
1.51269e-78
6.25664e-80
2.56171e-81
1.03851e-82
4.16903e-84
1.65753e-85
6.52782e-87
2.54713e-88
9.84919e-90
3.77482e-91
1.43421e-92
5.40277e-94
2.01832e-95
7.47853e-97
2.74908e-98
1.00275e-99
3.63019e-101
1.30464e-102
4.65567e-104
1.6501e-105
5.81014e-107
2.03297e-108
7.07087e-110
2.44534e-111
8.41133e-113
2.87859e-114
9.8045e-116
3.32471e-117
1.12286e-118
3.77839e-120
1.26729e-121
4.23858e-123
1.41431e-124
4.71057e-126
1.56694e-127
9.83757e-78
4.09484e-79
1.68829e-80
6.8903e-82
2.78436e-83
1.11424e-84
4.4162e-86
1.73386e-87
6.7448e-89
2.60025e-90
9.93674e-92
3.76468e-93
1.41426e-94
5.26881e-96
1.94692e-97
7.13709e-99
2.59611e-100
9.37236e-102
3.35889e-103
1.19528e-104
4.22448e-106
1.48327e-107
5.17513e-109
1.79474e-110
6.18857e-112
2.12237e-113
7.24152e-115
2.45894e-116
8.31225e-118
2.79831e-119
9.38526e-121
3.13719e-122
1.04559e-123
3.47615e-125
1.15336e-126
3.82109e-128
1.26483e-129
2.91418e-75
1.241e-76
5.23286e-78
2.18339e-79
9.01724e-81
3.68673e-82
1.49241e-83
5.9827e-85
2.37551e-86
9.34463e-88
3.64243e-89
1.40709e-90
5.38806e-92
2.04549e-93
7.69985e-95
2.87449e-96
1.06442e-97
3.9105e-99
1.42563e-100
5.15847e-102
1.85293e-103
6.6086e-105
2.3409e-106
8.23759e-108
2.88068e-109
1.00137e-110
3.46129e-112
1.19002e-113
4.07081e-115
1.38595e-116
4.69773e-118
1.58579e-119
5.33323e-121
1.78776e-122
5.976e-124
1.99301e-125
6.63479e-127
2.20599e-128
2.23977e-73
9.67e-75
4.1347e-76
1.74901e-77
7.3211e-79
3.03325e-80
1.24409e-81
5.05206e-83
2.03157e-84
8.09141e-86
3.19244e-87
1.24799e-88
4.83472e-90
1.85645e-91
7.06686e-93
2.66731e-94
9.98409e-96
3.70695e-97
1.36548e-98
4.99118e-100
1.81071e-101
6.52104e-103
2.3319e-104
8.28225e-106
2.92249e-107
1.02483e-108
3.57252e-110
1.23836e-111
4.2698e-113
1.46482e-114
5.00163e-116
1.70034e-117
5.75733e-119
1.94245e-120
6.53313e-122
2.19149e-123
7.33538e-125
2.45129e-126
4.62616e-72
2.02488e-73
8.77771e-75
3.7637e-76
1.59651e-77
6.70177e-79
2.78451e-80
1.14526e-81
4.66353e-83
1.88041e-84
7.50917e-86
2.97044e-87
1.16419e-88
4.52156e-90
1.74058e-91
6.64232e-93
2.51333e-94
9.43123e-96
3.51045e-97
1.29633e-98
4.75018e-100
1.72759e-101
6.23749e-103
2.23633e-104
7.96408e-106
2.81795e-107
9.90947e-109
3.4643e-110
1.20436e-111
4.1649e-113
1.43316e-114
4.90881e-116
1.67421e-117
5.68826e-119
1.92607e-120
6.50262e-122
2.18997e-123
7.36102e-125
3.5703e-71
1.58262e-72
6.94739e-74
3.01614e-75
1.29512e-76
5.50242e-78
2.31352e-79
9.62773e-81
3.96607e-82
1.6175e-83
6.53209e-85
2.61256e-86
1.03509e-87
4.0632e-89
1.58061e-90
6.09438e-92
2.32951e-93
8.8291e-95
3.3187e-96
1.23738e-97
4.57723e-99
1.68021e-100
6.12202e-102
2.21467e-103
7.95651e-105
2.83959e-106
1.007e-107
3.54946e-109
1.24389e-110
4.33529e-112
1.50316e-113
5.18667e-115
1.7817e-116
6.09567e-118
2.07795e-119
7.06107e-121
2.39294e-122
8.09153e-124
1.20457e-70
5.39181e-72
2.38992e-73
1.04754e-74
4.54084e-76
1.9473e-77
8.26349e-79
3.47043e-80
1.44259e-81
5.93615e-83
2.41847e-84
9.75745e-86
3.89922e-87
1.54367e-88
6.05543e-90
2.35417e-91
9.07219e-93
3.4662e-94
1.31324e-95
4.93477e-97
1.83952e-98
6.80387e-100
2.49764e-101
9.1021e-103
3.29387e-104
1.18397e-105
4.22826e-107
1.50068e-108
5.29475e-110
1.85762e-111
6.48272e-113
2.2511e-114
7.78098e-116
2.67823e-117
9.1838e-119
3.13869e-120
1.06962e-121
3.63641e-123
2.0772e-70
9.34393e-72
4.16215e-73
1.83329e-74
7.98536e-76
3.44091e-77
1.46712e-78
6.19056e-80
2.58533e-81
1.06877e-82
4.37428e-84
1.77285e-85
7.11648e-87
2.82991e-88
1.11501e-89
4.35375e-91
1.68505e-92
6.4656e-94
2.45998e-95
9.28249e-97
3.47451e-98
1.29039e-99
4.7561e-101
1.74021e-102
6.3225e-104
2.28152e-105
8.17951e-107
2.91416e-108
1.03206e-109
3.63433e-111
1.27296e-112
4.43626e-114
1.53885e-115
5.31526e-117
1.82886e-118
6.27132e-120
2.14417e-121
7.31296e-123
2.0772e-70
9.34369e-72
4.16211e-73
1.83331e-74
7.98561e-76
3.44104e-77
1.46719e-78
6.19088e-80
2.58547e-81
1.06883e-82
4.37455e-84
1.77297e-85
7.11694e-87
2.83007e-88
1.11505e-89
4.35382e-91
1.68503e-92
6.46531e-94
2.45979e-95
9.28149e-97
3.47405e-98
1.29019e-99
4.75529e-101
1.73989e-102
6.32122e-104
2.28102e-105
8.17756e-107
2.9134e-108
1.03177e-109
3.63326e-111
1.27257e-112
4.43494e-114
1.53841e-115
5.31377e-117
1.82836e-118
6.26959e-120
2.14358e-121
7.31096e-123
5.39162e-72
2.3865e-73
1.04625e-74
4.53664e-76
1.94576e-77
8.25746e-79
3.46817e-80
1.44179e-81
5.9335e-83
2.41765e-84
9.75504e-86
3.89852e-87
1.54343e-88
6.05444e-90
2.35369e-91
9.06981e-93
3.46505e-94
1.31271e-95
4.93239e-97
1.83852e-98
6.79985e-100
2.49607e-101
9.09608e-103
3.29158e-104
1.1831e-105
4.22499e-107
1.49945e-108
5.29016e-110
1.85594e-111
6.47677e-113
2.24907e-114
7.77417e-116
2.67597e-117
9.17619e-119
3.13612e-120
1.06875e-121
3.63353e-123
1.58427e-72
6.94432e-74
3.01516e-75
1.29497e-76
5.50193e-78
2.31329e-79
9.62709e-81
3.96607e-82
1.61763e-83
6.53313e-85
2.61314e-86
1.03534e-87
4.06413e-89
1.58087e-90
6.09475e-92
2.32936e-93
8.82734e-95
3.31757e-96
1.23678e-97
4.57448e-99
1.67904e-100
6.11729e-102
2.21281e-103
7.94931e-105
2.83684e-106
1.00595e-107
3.54551e-109
1.24242e-110
4.32988e-112
1.50123e-113
5.18004e-115
1.77948e-116
6.08826e-118
2.07547e-119
7.05275e-121
2.39015e-122
8.08233e-124
2.02685e-73
8.77521e-75
3.76348e-76
1.59678e-77
6.70334e-79
2.78532e-80
1.1457e-81
4.66587e-83
1.88153e-84
7.51424e-86
2.97257e-87
1.16503e-88
4.52455e-90
1.74154e-91
6.64503e-93
2.51393e-94
9.43174e-96
3.50996e-97
1.2959e-98
4.74781e-100
1.72649e-101
6.23287e-103
2.23447e-104
7.95681e-106
2.81514e-107
9.89874e-109
3.46023e-110
1.20283e-111
4.15922e-113
1.43112e-114
4.90174e-116
1.67184e-117
5.68041e-119
1.92348e-120
6.49405e-122
2.18713e-123
7.35176e-125
9.67494e-75
4.13301e-76
1.7489e-77
7.32244e-79
3.03424e-80
1.24471e-81
5.05564e-83
2.03337e-84
8.09956e-86
3.19587e-87
1.24937e-88
4.83996e-90
1.85833e-91
7.07311e-93
2.66923e-94
9.9893e-96
3.70808e-97
1.36558e-98
4.99038e-100
1.81005e-101
6.51766e-103
2.33043e-104
8.27628e-106
2.92014e-107
1.02392e-108
3.56898e-110
1.23701e-111
4.26461e-113
1.46286e-114
4.99449e-116
1.69786e-117
5.74904e-119
1.93976e-120
6.52444e-122
2.18867e-123
7.32612e-125
2.44829e-126
1.24077e-76
5.22962e-78
2.18295e-79
9.0178e-81
3.68788e-82
1.49334e-83
5.98826e-85
2.37828e-86
9.35681e-88
3.64744e-89
1.40907e-90
5.39555e-92
2.04818e-93
7.70894e-95
2.87737e-96
1.06526e-97
3.9126e-99
1.426e-100
5.15843e-102
1.85249e-103
6.606e-105
2.33975e-106
8.23296e-108
2.87885e-109
1.00066e-110
3.4585e-112
1.18893e-113
4.0665e-115
1.38428e-116
4.69153e-118
1.58363e-119
5.32614e-121
1.78551e-122
5.9689e-124
1.99072e-125
6.62731e-127
2.20358e-128
1.97574e-74
8.511e-76
3.62987e-77
1.53159e-78
6.39556e-80
2.64355e-81
1.08174e-82
4.38282e-84
1.75856e-85
6.98935e-87
2.75209e-88
1.07376e-89
4.15191e-91
1.59133e-92
6.0467e-94
2.27821e-95
8.51277e-97
3.15529e-98
1.16035e-99
4.23451e-101
1.53378e-102
5.51514e-104
1.9692e-105
6.98364e-107
2.4607e-108
8.61683e-110
2.99971e-111
1.03845e-112
3.57596e-114
1.22527e-115
4.17864e-117
1.41886e-118
4.79853e-120
1.61707e-121
5.43251e-123
1.82026e-124
6.08631e-126
2.0318e-127
1.38768e-72
6.05978e-74
2.6207e-75
1.1211e-76
4.74485e-78
1.98741e-79
8.23974e-81
3.38186e-82
1.3743e-83
5.53052e-85
2.20433e-86
8.70351e-88
3.40489e-89
1.32003e-90
5.0724e-92
1.9323e-93
7.29877e-95
2.73416e-96
1.01598e-97
3.74559e-99
1.37027e-100
4.97553e-102
1.79357e-103
6.42029e-105
2.28281e-106
8.06465e-108
2.83157e-109
9.8837e-111
3.43078e-112
1.18461e-113
4.07006e-115
1.3919e-116
4.73982e-118
1.60782e-119
5.43533e-121
1.83202e-122
6.15962e-124
2.0669e-125
2.71367e-71
1.20119e-72
5.26617e-74
2.28349e-75
9.79343e-77
4.15581e-78
1.74527e-79
7.25461e-81
2.98514e-82
1.21611e-83
4.90584e-85
1.96002e-86
7.75717e-88
3.04176e-89
1.18198e-90
4.55237e-92
1.73818e-93
6.58067e-95
2.47084e-96
9.20248e-98
3.40043e-99
1.24688e-100
4.5381e-102
1.63982e-103
5.88443e-105
2.09756e-106
7.42934e-108
2.61536e-109
9.15345e-111
3.18595e-112
1.10314e-113
3.80102e-115
1.3038e-116
4.4538e-118
1.51582e-119
5.14227e-121
1.73961e-122
5.8715e-124
2.04697e-70
9.17469e-72
4.07273e-73
1.78796e-74
7.7619e-76
3.3333e-77
1.41643e-78
5.95662e-80
2.47935e-81
1.02156e-82
4.16717e-84
1.68326e-85
6.73405e-87
2.66871e-88
1.04789e-89
4.07753e-91
1.57266e-92
6.01337e-94
2.27996e-95
8.57328e-97
3.19788e-98
1.1835e-99
4.34673e-101
1.58473e-102
5.73669e-104
2.06249e-105
7.36651e-107
2.61453e-108
9.22378e-110
3.23545e-111
1.12877e-112
3.91801e-114
1.35355e-115
4.65586e-117
1.59523e-118
5.44672e-120
1.85408e-121
6.2952e-123
6.88643e-70
3.11642e-71
1.39672e-72
6.19031e-74
2.71268e-75
1.17578e-76
5.04221e-78
2.13972e-79
8.98641e-81
3.7356e-82
1.53724e-83
6.2634e-85
2.52723e-86
1.01002e-87
3.99903e-89
1.56892e-90
6.10037e-92
2.35128e-93
8.98526e-95
3.40501e-96
1.27983e-97
4.77232e-99
1.76584e-100
6.48521e-102
2.36461e-103
8.56192e-105
3.07943e-106
1.10046e-107
3.90846e-109
1.38003e-110
4.84566e-112
1.69257e-113
5.88339e-115
2.03593e-116
7.01661e-118
2.4094e-119
8.24713e-121
2.81519e-122
1.19094e-69
5.41605e-71
2.43928e-72
1.08636e-73
4.78357e-75
2.08328e-76
8.97619e-78
3.82701e-79
1.61474e-80
6.74332e-82
2.78764e-83
1.14095e-84
4.62432e-86
1.85636e-87
7.38231e-89
2.90888e-90
1.13592e-91
4.39687e-93
1.68732e-94
6.42081e-96
2.42333e-97
9.07317e-99
3.3708e-100
1.24291e-101
4.54981e-103
1.65386e-104
5.97137e-106
2.14205e-107
7.63641e-109
2.7063e-110
9.53724e-112
3.3433e-113
1.16624e-114
4.04975e-116
1.40045e-117
4.82499e-119
1.65693e-120
5.674e-122
1.19097e-69
5.41599e-71
2.43923e-72
1.08637e-73
4.78364e-75
2.08332e-76
8.97634e-78
3.82708e-79
1.61477e-80
6.74346e-82
2.78772e-83
1.14099e-84
4.62448e-86
1.85641e-87
7.38244e-89
2.90888e-90
1.1359e-91
4.39667e-93
1.68719e-94
6.4202e-96
2.42305e-97
9.07196e-99
3.3703e-100
1.24271e-101
4.54902e-103
1.65355e-104
5.97017e-106
2.14159e-107
7.63465e-109
2.70564e-110
9.53489e-112
3.34248e-113
1.16596e-114
4.04881e-116
1.40014e-117
4.8239e-119
1.65656e-120
5.67276e-122
3.11717e-71
1.3948e-72
6.18193e-74
2.70998e-75
1.17482e-76
5.03844e-78
2.13822e-79
8.98073e-81
3.73358e-82
1.53657e-83
6.26126e-85
2.52655e-86
1.0098e-87
3.99817e-89
1.56855e-90
6.09869e-92
2.35051e-93
8.98177e-95
3.40348e-96
1.27919e-97
4.76974e-99
1.76483e-100
6.48133e-102
2.36313e-103
8.55631e-105
3.07732e-106
1.09967e-107
3.90551e-109
1.37895e-110
4.84183e-112
1.69125e-113
5.87892e-115
2.03442e-116
7.01156e-118
2.4077e-119
8.24141e-121
2.8133e-122
9.18733e-72
4.07116e-73
1.78717e-74
7.76037e-76
3.33286e-77
1.4162e-78
5.95554e-80
2.47897e-81
1.02147e-82
4.16712e-84
1.68336e-85
6.73473e-87
2.66899e-88
1.04795e-89
4.07748e-91
1.5725e-92
6.01206e-94
2.27919e-95
8.56943e-97
3.19613e-98
1.18275e-99
4.34371e-101
1.58355e-102
5.7321e-104
2.06073e-105
7.35983e-107
2.61201e-108
9.21436e-110
3.23199e-111
1.12753e-112
3.91372e-114
1.35209e-115
4.65097e-117
1.59359e-118
5.44122e-120
1.85225e-121
6.2892e-123
1.20276e-72
5.26506e-74
2.28325e-75
9.79492e-77
4.15671e-78
1.74565e-79
7.25645e-81
2.9861e-82
1.21661e-83
4.90819e-85
1.96106e-86
7.76138e-88
3.0433e-89
1.18247e-90
4.55374e-92
1.73846e-93
6.58066e-95
2.47043e-96
9.19945e-98
3.39883e-99
1.24615e-100
4.53506e-102
1.6386e-103
5.87966e-105
2.09572e-106
7.42225e-108
2.61266e-109
9.14325e-111
3.18216e-112
1.10177e-113
3.79624e-115
1.30218e-116
4.44841e-118
1.51404e-119
5.13635e-121
1.73766e-122
5.86518e-124
6.06461e-74
2.61987e-75
1.12109e-76
4.74601e-78
1.98809e-79
8.24337e-81
3.38384e-82
1.3753e-83
5.53511e-85
2.20631e-86
8.71157e-88
3.40799e-89
1.32114e-90
5.07611e-92
1.93342e-93
7.30169e-95
2.73471e-96
1.01597e-97
3.74479e-99
1.36975e-100
4.97297e-102
1.79248e-103
6.41593e-105
2.2811e-106
8.05798e-108
2.82898e-109
9.87369e-111
3.42693e-112
1.18315e-113
4.06471e-115
1.39003e-116
4.73352e-118
1.60576e-119
5.42865e-121
1.82984e-122
6.15252e-124
2.06461e-125
8.51099e-76
3.6281e-77
1.53149e-78
6.39661e-80
2.64444e-81
1.08235e-82
4.38637e-84
1.76039e-85
6.99755e-87
2.7555e-88
1.07511e-89
4.15705e-91
1.59317e-92
6.05284e-94
2.28011e-95
8.51805e-97
3.15649e-98
1.16049e-99
4.23396e-101
1.53328e-102
5.51261e-104
1.96815e-105
6.97951e-107
2.4591e-108
8.61057e-110
2.99725e-111
1.03748e-112
3.57213e-114
1.22378e-115
4.17311e-117
1.41693e-118
4.79215e-120
1.61503e-121
5.42602e-123
1.81816e-124
6.07931e-126
2.02952e-127
8.46125e-74
3.68195e-75
1.58612e-76
6.75878e-78
2.84987e-79
1.18935e-80
4.91343e-82
2.00958e-83
8.13854e-85
3.26426e-86
1.29691e-87
5.10491e-89
1.99111e-90
7.69666e-92
2.94907e-93
1.12027e-94
4.21988e-96
1.57654e-97
5.84288e-99
2.14857e-100
7.84061e-102
2.83999e-103
1.0213e-104
3.64731e-106
1.2939e-107
4.56098e-109
1.598e-110
5.56645e-112
1.92838e-113
6.6457e-115
2.27909e-116
7.78032e-118
2.64482e-119
8.95652e-121
3.02285e-122
1.01725e-123
3.41497e-125
1.14423e-126
5.60762e-72
2.47331e-73
1.08035e-74
4.66734e-76
1.9946e-77
8.43478e-79
3.53029e-80
1.46259e-81
5.99879e-83
2.43615e-84
9.79747e-86
3.90269e-87
1.54005e-88
6.02158e-90
2.33329e-91
8.96178e-93
3.41247e-94
1.28849e-95
4.82521e-97
1.7925e-98
6.60681e-100
2.41659e-101
8.7739e-103
3.16277e-104
1.13226e-105
4.02665e-107
1.42293e-108
4.99789e-110
1.74534e-111
6.0616e-113
2.0943e-114
7.20067e-116
2.4646e-117
8.40114e-119
2.8532e-120
9.65873e-122
3.26065e-123
1.09823e-124
1.05967e-70
4.7369e-72
2.09726e-73
9.18364e-75
3.97684e-76
1.70364e-77
7.22197e-79
3.02995e-80
1.25826e-81
5.17263e-83
2.10536e-84
8.48572e-86
3.38749e-87
1.33961e-88
5.24899e-90
2.03823e-91
7.84505e-93
2.99358e-94
1.13272e-95
4.25089e-97
1.58249e-98
5.84521e-100
2.14266e-101
7.79661e-103
2.81688e-104
1.01077e-105
3.60313e-107
1.27633e-108
4.49399e-110
1.57328e-111
5.47801e-113
1.89767e-114
6.54266e-116
2.2459e-117
7.6791e-119
2.61636e-120
8.88691e-122
3.01072e-123
7.89293e-70
3.57216e-71
1.60119e-72
7.09811e-74
3.11111e-75
1.34868e-76
5.78446e-78
2.45501e-79
1.03119e-80
4.2871e-82
1.76438e-83
7.18937e-85
2.90096e-86
1.15938e-87
4.59018e-89
1.80069e-90
7.00071e-92
2.69788e-93
1.03079e-94
3.9054e-96
1.46756e-97
5.47084e-99
2.02365e-100
7.42924e-102
2.70762e-103
9.79889e-105
3.52227e-106
1.25789e-107
4.46433e-109
1.57503e-110
5.5255e-112
1.92818e-113
6.69527e-115
2.31419e-116
7.96554e-118
2.73147e-119
9.33544e-121
3.18144e-122
2.65874e-69
1.21483e-70
5.49734e-72
2.46014e-73
1.08841e-74
4.76197e-76
2.06105e-77
8.82643e-79
3.74054e-80
1.56887e-81
6.51327e-83
2.67694e-84
1.08939e-85
4.39049e-87
1.75273e-88
6.93222e-90
2.71691e-91
1.05538e-92
4.06401e-94
1.55169e-95
5.87545e-97
2.20678e-98
8.22343e-100
3.04108e-101
1.11632e-102
4.06861e-104
1.47267e-105
5.29521e-107
1.8919e-108
6.71848e-110
2.37211e-111
8.32972e-113
2.91011e-114
1.01189e-115
3.5033e-117
1.20814e-118
4.15183e-120
1.42245e-121
4.61721e-69
2.12002e-70
9.64035e-72
4.3352e-73
1.92721e-74
8.47204e-76
3.68411e-77
1.5851e-78
6.74863e-80
2.84356e-81
1.18591e-82
4.89616e-84
2.00145e-85
8.10218e-87
3.2487e-88
1.29049e-89
5.07953e-91
1.98154e-92
7.66262e-94
2.93787e-95
1.11701e-96
4.21255e-98
1.57613e-99
5.85197e-101
2.15665e-102
7.89094e-104
2.86722e-105
1.03488e-106
3.71134e-108
1.32284e-109
4.68759e-111
1.65196e-112
5.79173e-114
2.02086e-115
7.02021e-117
2.42902e-118
8.3746e-120
2.87833e-121
4.61745e-69
2.12002e-70
9.64013e-72
4.33516e-73
1.92722e-74
8.47209e-76
3.68411e-77
1.58509e-78
6.74856e-80
2.84354e-81
1.18591e-82
4.89618e-84
2.00146e-85
8.10222e-87
3.2487e-88
1.29047e-89
5.07938e-91
1.98144e-92
7.6621e-94
2.93762e-95
1.1169e-96
4.21206e-98
1.57593e-99
5.85116e-101
2.15632e-102
7.88968e-104
2.86674e-105
1.03469e-106
3.71063e-108
1.32258e-109
4.68665e-111
1.65163e-112
5.7906e-114
2.02047e-115
7.01891e-117
2.42857e-118
8.37309e-120
2.87782e-121
1.21535e-70
5.49018e-72
2.4566e-73
1.08724e-74
4.75796e-76
2.05948e-77
8.82001e-79
3.738e-80
1.56792e-81
6.50992e-83
2.67582e-84
1.08902e-85
4.38923e-87
1.75226e-88
6.93037e-90
2.71612e-91
1.05503e-92
4.0625e-94
1.55104e-95
5.87275e-97
2.20569e-98
8.21916e-100
3.03944e-101
1.11569e-102
4.06622e-104
1.47177e-105
5.29185e-107
1.89065e-108
6.71393e-110
2.37049e-111
8.3241e-113
2.9082e-114
1.01125e-115
3.50113e-117
1.20741e-118
4.14938e-120
1.42165e-121
3.57793e-71
1.6007e-72
7.09435e-74
3.11026e-75
1.34846e-76
5.78329e-78
2.4544e-79
1.03093e-80
4.28619e-82
1.76412e-83
7.18882e-85
2.90089e-86
1.15937e-87
4.59008e-89
1.80056e-90
6.9997e-92
2.69726e-93
1.03045e-94
3.90376e-96
1.46683e-97
5.46773e-99
2.02239e-100
7.4243e-102
2.70571e-103
9.79155e-105
3.51948e-106
1.25683e-107
4.46038e-109
1.57358e-110
5.52029e-112
1.92636e-113
6.68906e-115
2.3121e-116
7.95851e-118
2.72912e-119
9.32765e-121
3.17892e-122
4.74425e-72
2.09698e-73
9.18232e-75
3.97735e-76
1.704e-77
7.22326e-79
3.03045e-80
1.2585e-81
5.17395e-83
2.10604e-84
8.48888e-86
3.38883e-87
1.34011e-88
5.25063e-90
2.03867e-91
7.84581e-93
2.99346e-94
1.13252e-95
4.24953e-97
1.5818e-98
5.84212e-100
2.14138e-101
7.79148e-103
2.81487e-104
1.00999e-105
3.60012e-107
1.27518e-108
4.4896e-110
1.57165e-111
5.47206e-113
1.89558e-114
6.53554e-116
2.24353e-117
7.67122e-119
2.61376e-120
8.8784e-122
3.00798e-123
2.47581e-73
1.08009e-74
4.66746e-76
1.99519e-77
8.4379e-79
3.53173e-80
1.4633e-81
6.00235e-83
2.43782e-84
9.80472e-86
3.90569e-87
1.54122e-88
6.02583e-90
2.33471e-91
8.96601e-93
3.41353e-94
1.28866e-95
4.82495e-97
1.79208e-98
6.60431e-100
2.41542e-101
8.76902e-103
3.16083e-104
1.1315e-105
4.02365e-107
1.42175e-108
4.99327e-110
1.74354e-111
6.05473e-113
2.09177e-114
7.19176e-116
2.4616e-117
8.39129e-119
2.85e-120
9.64832e-122
3.25727e-123
1.09715e-124
3.68247e-75
1.58551e-76
6.75905e-78
2.85061e-79
1.18981e-80
4.91607e-82
2.01103e-83
8.14583e-85
3.26763e-86
1.29833e-87
5.11061e-89
1.99327e-90
7.7044e-92
2.95166e-93
1.12106e-94
4.222e-96
1.57697e-97
5.84306e-99
2.14816e-100
7.83779e-102
2.83867e-103
1.02077e-104
3.64527e-106
1.2931e-107
4.55785e-109
1.59674e-110
5.56139e-112
1.92635e-113
6.63796e-115
2.27622e-116
7.77014e-118
2.64139e-119
8.94539e-121
3.0193e-122
1.01612e-123
3.41136e-125
1.14309e-126
2.52366e-73
1.10771e-74
4.81286e-76
2.06825e-77
8.79382e-79
3.70036e-80
1.54123e-81
6.35479e-83
2.59426e-84
1.04876e-85
4.19913e-87
1.66552e-88
6.54498e-90
2.54865e-91
9.83633e-93
3.76318e-94
1.42746e-95
5.36965e-97
2.00351e-98
7.41626e-100
2.72397e-101
9.92957e-103
3.59308e-104
1.291e-105
4.60712e-107
1.63343e-108
5.75516e-110
2.01573e-111
7.02007e-113
2.43169e-114
8.3803e-116
2.8743e-117
9.8147e-119
3.33784e-120
1.13105e-121
3.82057e-123
1.28709e-124
4.32651e-126
1.61738e-71
7.19462e-73
3.1694e-74
1.38079e-75
5.94988e-77
2.53673e-78
1.07034e-79
4.47003e-81
1.84796e-82
7.5636e-84
3.06537e-85
1.23035e-86
4.89146e-88
1.92662e-89
7.5194e-91
2.90859e-92
1.11527e-93
4.23993e-95
1.59849e-96
5.97743e-98
2.21747e-99
8.16252e-101
2.98203e-102
1.0815e-103
3.89474e-105
1.39311e-106
4.95067e-108
1.74837e-109
6.13784e-111
2.14255e-112
7.43884e-114
2.56972e-115
8.83528e-117
3.02465e-118
1.0314e-119
3.50485e-121
1.1874e-122
4.01248e-124
3.00049e-70
1.35254e-71
6.03864e-73
2.66638e-74
1.16417e-75
5.02772e-77
2.14842e-78
9.08523e-80
3.80252e-81
1.57535e-82
6.4612e-84
2.6239e-85
1.05525e-86
4.2036e-88
1.65893e-89
6.48728e-91
2.51425e-92
9.65952e-94
3.67949e-95
1.38992e-96
5.20771e-98
1.93574e-99
7.13981e-101
2.61376e-102
9.49931e-104
3.42827e-105
1.22894e-106