/*--------------------------------*- C++ -*----------------------------------*\
| =========                 |                                                 |
| \\      /  F ield         | OpenFOAM: The Open Source CFD Toolbox           |
|  \\    /   O peration     | Version:  2.3.1                                 |
|   \\  /    A nd           | Web:      www.OpenFOAM.org                      |
|    \\/     M anipulation  |                                                 |
\*---------------------------------------------------------------------------*/
FoamFile
{
    version     2.0;
    format      ascii;
    class       volVectorField;
    location    "10";
    object      U;
}
// * * * * * * * * * * * * * * * * * * * * * * * * * * * * * * * * * * * * * //

dimensions      [0 1 -1 0 0 0 0];

internalField   nonuniform List<vector> 
37692
(
(0.00327457 9.49193e-08 -4.82974e-07)
(0.00327667 -3.96282e-08 -5.36618e-07)
(0.00327933 -1.70291e-07 -6.01007e-07)
(0.00328259 -2.91282e-07 -6.83875e-07)
(0.00328651 -3.93661e-07 -7.86592e-07)
(0.00329112 -4.80644e-07 -9.09416e-07)
(0.00329651 -5.77919e-07 -1.05654e-06)
(0.00330282 -7.16822e-07 -1.23304e-06)
(0.00331021 -9.07626e-07 -1.43619e-06)
(0.00331883 -1.13918e-06 -1.65285e-06)
(0.00332875 -1.39599e-06 -1.8694e-06)
(0.00334003 -1.67337e-06 -2.08138e-06)
(0.0033527 -1.97535e-06 -2.29182e-06)
(0.00336682 -2.29389e-06 -2.50557e-06)
(0.00338243 -2.60632e-06 -2.7276e-06)
(0.00339955 -2.90004e-06 -2.96545e-06)
(0.00341826 -3.18193e-06 -3.23088e-06)
(0.00343867 -3.46483e-06 -3.53556e-06)
(0.00346093 -3.75246e-06 -3.88413e-06)
(0.0034852 -4.03304e-06 -4.27151e-06)
(0.00351159 -4.29398e-06 -4.68698e-06)
(0.00354019 -4.54653e-06 -5.12363e-06)
(0.00357113 -4.8236e-06 -5.58474e-06)
(0.00360462 -5.15022e-06 -6.07942e-06)
(0.00364093 -5.52546e-06 -6.61487e-06)
(0.00368033 -5.93602e-06 -7.19431e-06)
(0.00372307 -6.37448e-06 -7.81917e-06)
(0.0037694 -6.83937e-06 -8.49028e-06)
(0.00381956 -7.32726e-06 -9.20587e-06)
(0.00387374 -7.82794e-06 -9.9604e-06)
(0.00393213 -8.33287e-06 -1.07484e-05)
(0.00399487 -8.85575e-06 -1.15708e-05)
(0.00406221 -9.43078e-06 -1.24383e-05)
(0.0041345 -1.00869e-05 -1.33669e-05)
(0.00421218 -1.08337e-05 -1.43696e-05)
(0.00429573 -1.16669e-05 -1.54538e-05)
(0.00438567 -1.25823e-05 -1.66253e-05)
(0.00448251 -1.35853e-05 -1.78889e-05)
(0.00346354 1.69577e-07 -4.39679e-07)
(0.00346567 -1.38856e-07 -5.22417e-07)
(0.00346842 -4.31112e-07 -6.22368e-07)
(0.00347181 -6.90906e-07 -7.40832e-07)
(0.00347588 -9.06253e-07 -8.72211e-07)
(0.00348069 -1.08727e-06 -1.01696e-06)
(0.00348629 -1.27317e-06 -1.19414e-06)
(0.00349283 -1.50851e-06 -1.42594e-06)
(0.00350045 -1.81237e-06 -1.70857e-06)
(0.00350928 -2.17971e-06 -2.01672e-06)
(0.00351941 -2.6025e-06 -2.32769e-06)
(0.00353088 -3.08354e-06 -2.63644e-06)
(0.00354375 -3.62412e-06 -2.95314e-06)
(0.00355808 -4.19631e-06 -3.28252e-06)
(0.00357392 -4.75258e-06 -3.61732e-06)
(0.00359131 -5.26527e-06 -3.9611e-06)
(0.00361031 -5.7363e-06 -4.3352e-06)
(0.00363105 -6.1761e-06 -4.76011e-06)
(0.00365367 -6.58232e-06 -5.24164e-06)
(0.00367831 -6.93825e-06 -5.76519e-06)
(0.00370509 -7.24486e-06 -6.30661e-06)
(0.00373407 -7.55035e-06 -6.86037e-06)
(0.00376543 -7.92747e-06 -7.44539e-06)
(0.00379938 -8.41898e-06 -8.08048e-06)
(0.00383621 -9.0166e-06 -8.76848e-06)
(0.00387617 -9.69007e-06 -9.50619e-06)
(0.00391953 -1.04166e-05 -1.02968e-05)
(0.00396651 -1.11817e-05 -1.11463e-05)
(0.00401736 -1.19686e-05 -1.20542e-05)
(0.00407231 -1.27553e-05 -1.30106e-05)
(0.00413151 -1.35334e-05 -1.40029e-05)
(0.00419517 -1.43372e-05 -1.50361e-05)
(0.00426354 -1.52298e-05 -1.61385e-05)
(0.00433699 -1.62598e-05 -1.7337e-05)
(0.00441598 -1.74426e-05 -1.8644e-05)
(0.00450098 -1.87716e-05 -2.00625e-05)
(0.0045925 -2.02419e-05 -2.15966e-05)
(0.00469109 -2.18627e-05 -2.3257e-05)
(0.00349505 1.16231e-07 -3.83392e-07)
(0.00349722 -2.95357e-07 -4.9566e-07)
(0.00350003 -6.70211e-07 -6.28599e-07)
(0.00350352 -9.95049e-07 -7.72538e-07)
(0.00350772 -1.26375e-06 -9.2034e-07)
(0.00351264 -1.48309e-06 -1.0787e-06)
(0.00351837 -1.67424e-06 -1.27644e-06)
(0.00352501 -1.86372e-06 -1.53686e-06)
(0.00353272 -2.07561e-06 -1.85154e-06)
(0.00354161 -2.33205e-06 -2.19393e-06)
(0.00355174 -2.65358e-06 -2.54366e-06)
(0.00356319 -3.05428e-06 -2.90363e-06)
(0.00357603 -3.52561e-06 -3.2901e-06)
(0.00359035 -4.02685e-06 -3.6977e-06)
(0.00360621 -4.50866e-06 -4.10566e-06)
(0.00362363 -4.93908e-06 -4.51555e-06)
(0.00364268 -5.30366e-06 -4.95146e-06)
(0.00366346 -5.59429e-06 -5.43602e-06)
(0.00368614 -5.80037e-06 -5.97102e-06)
(0.00371082 -5.91966e-06 -6.52926e-06)
(0.00373757 -5.98909e-06 -7.08483e-06)
(0.00376646 -6.08941e-06 -7.65239e-06)
(0.00379769 -6.3024e-06 -8.27306e-06)
(0.00383152 -6.66239e-06 -8.96873e-06)
(0.00386825 -7.15183e-06 -9.73088e-06)
(0.00390814 -7.73329e-06 -1.05476e-05)
(0.00395142 -8.37199e-06 -1.14206e-05)
(0.00399834 -9.0376e-06 -1.23556e-05)
(0.00404914 -9.70158e-06 -1.33488e-05)
(0.00410402 -1.03415e-05 -1.4382e-05)
(0.00416315 -1.09614e-05 -1.54378e-05)
(0.00422671 -1.16041e-05 -1.65339e-05)
(0.00429499 -1.23251e-05 -1.77151e-05)
(0.00436838 -1.31596e-05 -1.90151e-05)
(0.00444734 -1.4118e-05 -2.04449e-05)
(0.00453234 -1.51996e-05 -2.20011e-05)
(0.00462389 -1.64051e-05 -2.36851e-05)
(0.00472253 -1.77454e-05 -2.55126e-05)
(0.00350287 -7.89191e-08 -3.65121e-07)
(0.00350509 -5.39003e-07 -4.94911e-07)
(0.00350797 -9.33884e-07 -6.40636e-07)
(0.00351154 -1.26884e-06 -7.95081e-07)
(0.00351582 -1.54246e-06 -9.5492e-07)
(0.00352084 -1.74849e-06 -1.12671e-06)
(0.00352666 -1.88552e-06 -1.33348e-06)
(0.00353338 -1.96676e-06 -1.59109e-06)
(0.00354113 -2.02551e-06 -1.89384e-06)
(0.00355 -2.10818e-06 -2.22512e-06)
(0.0035601 -2.25364e-06 -2.57357e-06)
(0.00357149 -2.47395e-06 -2.9497e-06)
(0.0035843 -2.74859e-06 -3.3671e-06)
(0.00359862 -3.03936e-06 -3.80923e-06)
(0.0036145 -3.31089e-06 -4.25059e-06)
(0.00363196 -3.53513e-06 -4.69124e-06)
(0.00365107 -3.68822e-06 -5.15051e-06)
(0.00367193 -3.75007e-06 -5.64564e-06)
(0.00369468 -3.71096e-06 -6.169e-06)
(0.00371939 -3.59025e-06 -6.68753e-06)
(0.0037461 -3.44778e-06 -7.18954e-06)
(0.0037749 -3.36372e-06 -7.71591e-06)
(0.00380599 -3.39743e-06 -8.32244e-06)
(0.0038397 -3.56435e-06 -9.02713e-06)
(0.00387632 -3.84546e-06 -9.81079e-06)
(0.00391612 -4.20888e-06 -1.06549e-05)
(0.00395935 -4.62038e-06 -1.15572e-05)
(0.00400623 -5.04724e-06 -1.25177e-05)
(0.00405699 -5.46467e-06 -1.35255e-05)
(0.00411183 -5.86501e-06 -1.45546e-05)
(0.0041709 -6.26493e-06 -1.55911e-05)
(0.00423438 -6.69548e-06 -1.66681e-05)
(0.00430256 -7.1783e-06 -1.78406e-05)
(0.00437586 -7.71898e-06 -1.91416e-05)
(0.00445475 -8.32065e-06 -2.05769e-05)
(0.00453969 -8.99401e-06 -2.214e-05)
(0.00463117 -9.74946e-06 -2.38315e-05)
(0.00472975 -1.06006e-05 -2.56717e-05)
(0.00350471 -2.81628e-07 -4.05876e-07)
(0.003507 -7.67562e-07 -5.38448e-07)
(0.00350995 -1.17177e-06 -6.79375e-07)
(0.00351359 -1.50211e-06 -8.36994e-07)
(0.00351795 -1.75647e-06 -1.00887e-06)
(0.00352306 -1.92306e-06 -1.19314e-06)
(0.00352897 -1.99166e-06 -1.3999e-06)
(0.00353577 -1.96905e-06 -1.63773e-06)
(0.00354355 -1.89171e-06 -1.90852e-06)
(0.00355241 -1.81575e-06 -2.21007e-06)
(0.00356245 -1.78483e-06 -2.54337e-06)
(0.0035738 -1.80315e-06 -2.92123e-06)
(0.00358659 -1.84279e-06 -3.34708e-06)
(0.00360092 -1.87456e-06 -3.79866e-06)
(0.00361682 -1.88149e-06 -4.25397e-06)
(0.00363433 -1.8493e-06 -4.70956e-06)
(0.00365351 -1.76007e-06 -5.17451e-06)
(0.00367445 -1.59692e-06 -5.6571e-06)
(0.00369726 -1.35975e-06 -6.14284e-06)
(0.00372199 -1.08099e-06 -6.60461e-06)
(0.00374866 -8.17786e-07 -7.05213e-06)
(0.00377736 -6.21389e-07 -7.54312e-06)
(0.00380835 -5.15815e-07 -8.13459e-06)
(0.00384194 -4.9877e-07 -8.83661e-06)
(0.00387848 -5.56746e-07 -9.62409e-06)
(0.00391823 -6.71575e-07 -1.0476e-05)
(0.00396142 -8.19711e-07 -1.13853e-05)
(0.00400828 -9.79641e-07 -1.23457e-05)
(0.00405904 -1.14555e-06 -1.3341e-05)
(0.00411385 -1.33169e-06 -1.43456e-05)
(0.00417287 -1.55747e-06 -1.53565e-05)
(0.00423629 -1.82312e-06 -1.64162e-05)
(0.00430444 -2.10454e-06 -1.75756e-05)
(0.00437772 -2.37898e-06 -1.88581e-05)
(0.00445657 -2.64898e-06 -2.02664e-05)
(0.00454147 -2.93991e-06 -2.17977e-05)
(0.0046329 -3.2729e-06 -2.34573e-05)
(0.00473142 -3.66056e-06 -2.5265e-05)
(0.00350481 -3.85286e-07 -4.6123e-07)
(0.00350717 -8.81443e-07 -6.01284e-07)
(0.00351021 -1.2907e-06 -7.4429e-07)
(0.00351392 -1.60291e-06 -9.09327e-07)
(0.00351837 -1.8162e-06 -1.09099e-06)
(0.00352358 -1.92861e-06 -1.28146e-06)
(0.00352959 -1.93586e-06 -1.48162e-06)
(0.00353647 -1.84287e-06 -1.69455e-06)
(0.00354428 -1.68122e-06 -1.92901e-06)
(0.00355313 -1.5016e-06 -2.19944e-06)
(0.00356314 -1.33795e-06 -2.52015e-06)
(0.00357448 -1.18153e-06 -2.89955e-06)
(0.00358728 -1.00012e-06 -3.32665e-06)
(0.00360163 -7.75283e-07 -3.77663e-06)
(0.00361756 -5.11431e-07 -4.23237e-06)
(0.00363511 -2.21066e-07 -4.68807e-06)
(0.00365432 9.02427e-08 -5.1468e-06)
(0.00367531 4.22272e-07 -5.60999e-06)
(0.00369814 7.66422e-07 -6.06069e-06)
(0.00372286 1.09843e-06 -6.48302e-06)
(0.00374948 1.3918e-06 -6.90195e-06)
(0.00377812 1.63729e-06 -7.38026e-06)
(0.00380904 1.84358e-06 -7.96682e-06)
(0.00384259 2.02128e-06 -8.66409e-06)
(0.00387909 2.17164e-06 -9.44693e-06)
(0.00391881 2.29522e-06 -1.02949e-05)
(0.00396198 2.39883e-06 -1.11962e-05)
(0.00400882 2.48428e-06 -1.21392e-05)
(0.00405954 2.53359e-06 -1.31107e-05)
(0.00411429 2.51682e-06 -1.40975e-05)
(0.00417325 2.42489e-06 -1.51088e-05)
(0.00423666 2.29226e-06 -1.61819e-05)
(0.00430482 2.17743e-06 -1.73476e-05)
(0.00437813 2.11738e-06 -1.86157e-05)
(0.004457 2.10661e-06 -1.99929e-05)
(0.00454188 2.11296e-06 -2.14899e-05)
(0.00463329 2.11122e-06 -2.31226e-05)
(0.00473178 2.09284e-06 -2.49056e-05)
(0.00350434 -4.22078e-07 -4.86795e-07)
(0.00350677 -8.83204e-07 -6.57658e-07)
(0.00350989 -1.26008e-06 -8.23534e-07)
(0.00351371 -1.52401e-06 -1.00123e-06)
(0.00351825 -1.67789e-06 -1.18693e-06)
(0.00352356 -1.73453e-06 -1.37798e-06)
(0.00352966 -1.69877e-06 -1.57255e-06)
(0.00353661 -1.57327e-06 -1.76758e-06)
(0.00354447 -1.37634e-06 -1.9759e-06)
(0.00355333 -1.13877e-06 -2.22771e-06)
(0.00356335 -8.73907e-07 -2.54803e-06)
(0.00357472 -5.61962e-07 -2.93496e-06)
(0.00358758 -1.74889e-07 -3.35997e-06)
(0.00360197 2.88803e-07 -3.79524e-06)
(0.00361793 7.99434e-07 -4.23016e-06)
(0.00363548 1.31567e-06 -4.66449e-06)
(0.00365469 1.80509e-06 -5.10475e-06)
(0.00367566 2.25033e-06 -5.55126e-06)
(0.00369846 2.64329e-06 -5.98756e-06)
(0.00372314 2.98285e-06 -6.40351e-06)
(0.00374972 3.28024e-06 -6.82656e-06)
(0.00377834 3.56115e-06 -7.31208e-06)
(0.00380926 3.85525e-06 -7.89927e-06)
(0.00384281 4.17384e-06 -8.58875e-06)
(0.0038793 4.50523e-06 -9.36155e-06)
(0.003919 4.83245e-06 -1.01995e-05)
(0.00396215 5.14357e-06 -1.10854e-05)
(0.00400896 5.42272e-06 -1.20056e-05)
(0.00405961 5.64084e-06 -1.29566e-05)
(0.00411428 5.77031e-06 -1.39429e-05)
(0.00417319 5.81711e-06 -1.49793e-05)
(0.0042366 5.83182e-06 -1.60848e-05)
(0.00430481 5.87937e-06 -1.72661e-05)
(0.00437818 5.99746e-06 -1.85259e-05)
(0.00445709 6.18627e-06 -1.98814e-05)
(0.00454199 6.42538e-06 -2.13601e-05)
(0.0046334 6.70119e-06 -2.29854e-05)
(0.0047319 7.00885e-06 -2.47715e-05)
(0.00350584 -7.93804e-07 -7.06069e-07)
(0.00350905 -1.07013e-06 -9.04223e-07)
(0.00351298 -1.24028e-06 -1.09189e-06)
(0.00351761 -1.31305e-06 -1.27572e-06)
(0.00352299 -1.30834e-06 -1.46608e-06)
(0.00352917 -1.2359e-06 -1.66164e-06)
(0.00353618 -1.09563e-06 -1.85351e-06)
(0.00354409 -8.87148e-07 -2.05619e-06)
(0.00355299 -6.09849e-07 -2.31038e-06)
(0.00356307 -2.51572e-07 -2.6429e-06)
(0.00357452 2.08205e-07 -3.03664e-06)
(0.00358746 7.76152e-07 -3.44967e-06)
(0.00360191 1.42916e-06 -3.85367e-06)
(0.00361789 2.11993e-06 -4.24653e-06)
(0.00363541 2.7955e-06 -4.6428e-06)
(0.00365456 3.41189e-06 -5.05982e-06)
(0.00367546 3.94249e-06 -5.50054e-06)
(0.0036982 4.38018e-06 -5.94673e-06)
(0.00372283 4.73908e-06 -6.38259e-06)
(0.0037494 5.05444e-06 -6.82707e-06)
(0.00377804 5.3771e-06 -7.32671e-06)
(0.003809 5.75331e-06 -7.91424e-06)
(0.00384258 6.19791e-06 -8.59324e-06)
(0.00387909 6.69161e-06 -9.35428e-06)
(0.00391879 7.20128e-06 -1.0183e-05)
(0.00396191 7.69573e-06 -1.10595e-05)
(0.00400867 8.14754e-06 -1.19703e-05)
(0.00405925 8.53176e-06 -1.29201e-05)
(0.00411386 8.83544e-06 -1.3923e-05)
(0.00417273 9.07309e-06 -1.49924e-05)
(0.00423614 9.28721e-06 -1.61316e-05)
(0.00430441 9.52824e-06 -1.7333e-05)
(0.00437785 9.83225e-06 -1.85997e-05)
(0.00445682 1.02182e-05 -1.99581e-05)
(0.00454178 1.06939e-05 -2.14439e-05)
(0.00463325 1.12679e-05 -2.30817e-05)
(0.0047318 1.1941e-05 -2.48859e-05)
(0.00350328 -6.39778e-07 -7.51032e-07)
(0.00350657 -7.50668e-07 -9.71498e-07)
(0.00351058 -7.91646e-07 -1.15982e-06)
(0.00351528 -7.67387e-07 -1.33696e-06)
(0.0035207 -6.90159e-07 -1.52573e-06)
(0.00352691 -5.67033e-07 -1.7272e-06)
(0.00353397 -3.9431e-07 -1.92996e-06)
(0.00354193 -1.53763e-07 -2.14823e-06)
(0.00355091 1.85834e-07 -2.42031e-06)
(0.00356109 6.52386e-07 -2.76517e-06)
(0.00357265 1.25011e-06 -3.1546e-06)
(0.00358567 1.9512e-06 -3.54126e-06)
(0.00360018 2.7101e-06 -3.90167e-06)
(0.00361617 3.48112e-06 -4.24564e-06)
(0.00363365 4.22495e-06 -4.60013e-06)
(0.00365273 4.90911e-06 -4.99052e-06)
(0.00367354 5.50749e-06 -5.42425e-06)
(0.0036962 6.00538e-06 -5.88162e-06)
(0.00372078 6.41199e-06 -6.33986e-06)
(0.00374734 6.76967e-06 -6.81086e-06)
(0.00377602 7.14553e-06 -7.33141e-06)
(0.00380706 7.60066e-06 -7.92426e-06)
(0.00384071 8.15788e-06 -8.59352e-06)
(0.00387726 8.79776e-06 -9.33904e-06)
(0.00391697 9.4769e-06 -1.01552e-05)
(0.00396008 1.01493e-05 -1.10266e-05)
(0.0040068 1.07808e-05 -1.19412e-05)
(0.00405733 1.13537e-05 -1.29025e-05)
(0.0041119 1.18683e-05 -1.39238e-05)
(0.00417075 1.23404e-05 -1.5016e-05)
(0.00423418 1.27966e-05 -1.61798e-05)
(0.0043025 1.32699e-05 -1.74067e-05)
(0.00437601 1.37974e-05 -1.87011e-05)
(0.00445508 1.44202e-05 -2.00876e-05)
(0.00454015 1.51758e-05 -2.15975e-05)
(0.00463173 1.60936e-05 -2.32535e-05)
(0.00473038 1.71854e-05 -2.50681e-05)
(0.00349487 -4.17927e-07 -7.85996e-07)
(0.00349821 -3.44687e-07 -1.00606e-06)
(0.00350227 -2.55041e-07 -1.1822e-06)
(0.00350699 -1.39913e-07 -1.34626e-06)
(0.00351243 7.07551e-09 -1.52756e-06)
(0.00351865 1.88474e-07 -1.73148e-06)
(0.00352572 4.12058e-07 -1.94977e-06)
(0.00353373 7.07619e-07 -2.18913e-06)
(0.00354279 1.12149e-06 -2.47383e-06)
(0.00355307 1.68036e-06 -2.8088e-06)
(0.00356471 2.36329e-06 -3.16487e-06)
(0.00357781 3.11392e-06 -3.50671e-06)
(0.00359235 3.87793e-06 -3.82238e-06)
(0.00360834 4.62533e-06 -4.12483e-06)
(0.00362581 5.34504e-06 -4.43892e-06)
(0.00364485 6.0291e-06 -4.79155e-06)
(0.00366559 6.65837e-06 -5.19681e-06)
(0.00368817 7.20634e-06 -5.64167e-06)
(0.00371269 7.66739e-06 -6.10755e-06)
(0.00373925 8.08144e-06 -6.60331e-06)
(0.00376799 8.52128e-06 -7.14945e-06)
(0.00379912 9.05189e-06 -7.75067e-06)
(0.00383288 9.70087e-06 -8.40591e-06)
(0.0038695 1.04559e-05 -9.12229e-06)
(0.00390925 1.12762e-05 -9.90737e-06)
(0.00395236 1.21124e-05 -1.0757e-05)
(0.00399907 1.2926e-05 -1.16616e-05)
(0.0040496 1.36987e-05 -1.26198e-05)
(0.00410417 1.44345e-05 -1.36377e-05)
(0.00416304 1.51503e-05 -1.47278e-05)
(0.0042265 1.58648e-05 -1.58966e-05)
(0.00429487 1.66017e-05 -1.71392e-05)
(0.00436847 1.73965e-05 -1.84572e-05)
(0.00444766 1.82999e-05 -1.9864e-05)
(0.00453287 1.93651e-05 -2.13799e-05)
(0.00462459 2.06341e-05 -2.30263e-05)
(0.00472338 2.21328e-05 -2.48127e-05)
(0.0034628 -1.69966e-07 -7.87699e-07)
(0.00346618 4.04213e-08 -9.69298e-07)
(0.00347025 2.1163e-07 -1.1126e-06)
(0.00347497 3.74168e-07 -1.2491e-06)
(0.00348038 5.57583e-07 -1.40549e-06)
(0.00348655 7.7798e-07 -1.58995e-06)
(0.0034936 1.04457e-06 -1.79722e-06)
(0.00350161 1.38142e-06 -2.02641e-06)
(0.00351071 1.82225e-06 -2.28374e-06)
(0.00352104 2.37726e-06 -2.56547e-06)
(0.00353274 3.01172e-06 -2.85344e-06)
(0.00354587 3.66686e-06 -3.13129e-06)
(0.00356045 4.29717e-06 -3.39621e-06)
(0.00357647 4.88808e-06 -3.65584e-06)
(0.00359396 5.45009e-06 -3.92428e-06)
(0.003613 6.00024e-06 -4.22262e-06)
(0.0036337 6.53801e-06 -4.56877e-06)
(0.00365621 7.04096e-06 -4.96302e-06)
(0.00368067 7.49888e-06 -5.39987e-06)
(0.0037072 7.94329e-06 -5.88374e-06)
(0.00373599 8.42824e-06 -6.41543e-06)
(0.00376721 8.99396e-06 -6.98412e-06)
(0.00380107 9.65686e-06 -7.58368e-06)
(0.00383777 1.04148e-05 -8.22428e-06)
(0.00387757 1.12465e-05 -8.92299e-06)
(0.0039207 1.21173e-05 -9.68541e-06)
(0.00396743 1.2993e-05 -1.05079e-05)
(0.00401797 1.38533e-05 -1.13872e-05)
(0.00407255 1.47019e-05 -1.23248e-05)
(0.00413144 1.55605e-05 -1.33327e-05)
(0.00419493 1.64505e-05 -1.44204e-05)
(0.00426333 1.73874e-05 -1.55854e-05)
(0.00433699 1.83915e-05 -1.68254e-05)
(0.00441625 1.94971e-05 -1.81424e-05)
(0.00450153 2.07489e-05 -1.9547e-05)
(0.0045933 2.21922e-05 -2.10564e-05)
(0.00469212 2.38629e-05 -2.26787e-05)
(0.00327338 -1.29163e-08 -7.47794e-07)
(0.00327676 1.38699e-07 -8.56013e-07)
(0.00328081 2.51946e-07 -9.46774e-07)
(0.00328546 3.52292e-07 -1.03942e-06)
(0.00329075 4.63861e-07 -1.14848e-06)
(0.00329678 5.99393e-07 -1.2787e-06)
(0.00330365 7.62412e-07 -1.42732e-06)
(0.00331149 9.60737e-07 -1.59074e-06)
(0.00332042 1.20666e-06 -1.76785e-06)
(0.00333058 1.49993e-06 -1.95585e-06)
(0.00334211 1.81952e-06 -2.14935e-06)
(0.00335507 2.13678e-06 -2.34458e-06)
(0.00336946 2.43234e-06 -2.54196e-06)
(0.00338529 2.702e-06 -2.74463e-06)
(0.00340257 2.95529e-06 -2.95803e-06)
(0.00342134 3.20905e-06 -3.19216e-06)
(0.00344173 3.47153e-06 -3.45886e-06)
(0.00346388 3.73466e-06 -3.76568e-06)
(0.00348793 3.99283e-06 -4.11626e-06)
(0.00351404 4.26016e-06 -4.50966e-06)
(0.0035424 4.55811e-06 -4.93701e-06)
(0.00357318 4.89698e-06 -5.38667e-06)
(0.00360656 5.27813e-06 -5.85422e-06)
(0.00364274 5.70369e-06 -6.34838e-06)
(0.00368195 6.17148e-06 -6.88405e-06)
(0.00372444 6.66935e-06 -7.46945e-06)
(0.00377047 7.18227e-06 -8.10657e-06)
(0.00382027 7.69878e-06 -8.79399e-06)
(0.00387405 8.21997e-06 -9.53085e-06)
(0.00393205 8.76111e-06 -1.03239e-05)
(0.00399456 9.3357e-06 -1.11777e-05)
(0.00406191 9.94951e-06 -1.20916e-05)
(0.0041344 1.06069e-05 -1.30648e-05)
(0.00421239 1.13169e-05 -1.40966e-05)
(0.00429627 1.20984e-05 -1.51929e-05)
(0.00438651 1.29753e-05 -1.63639e-05)
(0.00448362 1.39692e-05 -1.76145e-05)
(0.0035742 4.54648e-08 -1.31421e-06)
(0.00357633 -3.86955e-08 -1.52862e-06)
(0.00357908 -1.13804e-07 -1.77555e-06)
(0.00358247 -1.76582e-07 -2.0722e-06)
(0.00358655 -2.19344e-07 -2.42334e-06)
(0.00359139 -2.48027e-07 -2.83039e-06)
(0.00359707 -2.91175e-07 -3.30147e-06)
(0.00360371 -3.79928e-07 -3.84522e-06)
(0.00361147 -5.22668e-07 -4.45205e-06)
(0.00362047 -7.05662e-07 -5.09348e-06)
(0.0036308 -9.10887e-07 -5.74292e-06)
(0.00364252 -1.13337e-06 -6.39143e-06)
(0.00365567 -1.37568e-06 -7.04571e-06)
(0.00367032 -1.62598e-06 -7.71812e-06)
(0.00368649 -1.86103e-06 -8.42225e-06)
(0.00370425 -2.07069e-06 -9.17871e-06)
(0.00372366 -2.26324e-06 -1.00163e-05)
(0.00374484 -2.45169e-06 -1.09611e-05)
(0.00376795 -2.63862e-06 -1.20241e-05)
(0.00379313 -2.8093e-06 -1.31962e-05)
(0.0038205 -2.94783e-06 -1.44564e-05)
(0.00385017 -3.06312e-06 -1.57936e-05)
(0.00388229 -3.18692e-06 -1.7219e-05)
(0.00391707 -3.34389e-06 -1.87544e-05)
(0.00395477 -3.53439e-06 -2.0417e-05)
(0.00399568 -3.74753e-06 -2.22149e-05)
(0.00404005 -3.97662e-06 -2.41517e-05)
(0.00408815 -4.21956e-06 -2.62285e-05)
(0.0041402 -4.4719e-06 -2.84405e-05)
(0.00419644 -4.72083e-06 -3.07763e-05)
(0.00425706 -4.95492e-06 -3.3226e-05)
(0.00432224 -5.18498e-06 -3.57964e-05)
(0.00439225 -5.44201e-06 -3.85179e-05)
(0.00446744 -5.75393e-06 -4.14313e-05)
(0.00454827 -6.13058e-06 -4.45721e-05)
(0.00463522 -6.56687e-06 -4.7965e-05)
(0.00472882 -7.05728e-06 -5.1627e-05)
(0.00482963 -7.60281e-06 -5.55757e-05)
(0.00373981 6.43528e-08 -1.25466e-06)
(0.00374202 -1.20258e-07 -1.56417e-06)
(0.00374492 -2.79425e-07 -1.91085e-06)
(0.00374853 -4.11996e-07 -2.3008e-06)
(0.00375289 -5.14061e-07 -2.72974e-06)
(0.00375806 -5.99674e-07 -3.20393e-06)
(0.00376413 -7.10249e-07 -3.75788e-06)
(0.00377118 -8.89878e-07 -4.42449e-06)
(0.00377932 -1.15189e-06 -5.19313e-06)
(0.00378865 -1.48019e-06 -6.02291e-06)
(0.00379924 -1.85468e-06 -6.87718e-06)
(0.00381118 -2.26739e-06 -7.74721e-06)
(0.00382454 -2.71254e-06 -8.65e-06)
(0.00383936 -3.16471e-06 -9.5924e-06)
(0.00385572 -3.58792e-06 -1.05652e-05)
(0.00387368 -3.96693e-06 -1.15818e-05)
(0.00389333 -4.31104e-06 -1.26825e-05)
(0.00391479 -4.63302e-06 -1.39035e-05)
(0.00393818 -4.93136e-06 -1.52557e-05)
(0.00396363 -5.18719e-06 -1.67139e-05)
(0.00399126 -5.38861e-06 -1.82415e-05)
(0.00402121 -5.5613e-06 -1.98383e-05)
(0.00405366 -5.75907e-06 -2.15432e-05)
(0.00408883 -6.02156e-06 -2.33915e-05)
(0.00412696 -6.35249e-06 -2.53911e-05)
(0.00416831 -6.73568e-06 -2.75398e-05)
(0.00421314 -7.15593e-06 -2.98447e-05)
(0.00426171 -7.60111e-06 -3.23153e-05)
(0.00431426 -8.0543e-06 -3.49506e-05)
(0.00437102 -8.49214e-06 -3.77349e-05)
(0.00443222 -8.90181e-06 -4.0652e-05)
(0.00449811 -9.30588e-06 -4.3722e-05)
(0.00456902 -9.75536e-06 -4.7004e-05)
(0.0046453 -1.02947e-05 -5.05538e-05)
(0.0047274 -1.09413e-05 -5.44053e-05)
(0.00481579 -1.16934e-05 -5.85756e-05)
(0.00491099 -1.25468e-05 -6.3082e-05)
(0.00501356 -1.35035e-05 -6.79504e-05)
(0.00376179 2.9744e-08 -1.18353e-06)
(0.00376407 -2.18123e-07 -1.5665e-06)
(0.00376708 -4.31182e-07 -1.98574e-06)
(0.00377083 -6.09822e-07 -2.43425e-06)
(0.00377536 -7.53754e-07 -2.9075e-06)
(0.00378072 -8.75792e-07 -3.42261e-06)
(0.00378698 -1.00916e-06 -4.02729e-06)
(0.00379422 -1.18955e-06 -4.75589e-06)
(0.00380251 -1.43171e-06 -5.59549e-06)
(0.00381194 -1.73177e-06 -6.50685e-06)
(0.00382258 -2.08141e-06 -7.45854e-06)
(0.00383453 -2.47436e-06 -8.45523e-06)
(0.00384786 -2.89933e-06 -9.51987e-06)
(0.00386265 -3.3273e-06 -1.06393e-05)
(0.00387896 -3.72397e-06 -1.1783e-05)
(0.00389688 -4.07388e-06 -1.29596e-05)
(0.00391649 -4.37854e-06 -1.42101e-05)
(0.0039379 -4.64159e-06 -1.5572e-05)
(0.00396123 -4.86042e-06 -1.70468e-05)
(0.00398659 -5.02613e-06 -1.85905e-05)
(0.00401409 -5.14316e-06 -2.01705e-05)
(0.00404388 -5.24876e-06 -2.18227e-05)
(0.00407615 -5.3975e-06 -2.36206e-05)
(0.00411113 -5.62555e-06 -2.56048e-05)
(0.00414907 -5.93556e-06 -2.77663e-05)
(0.00419022 -6.31057e-06 -3.00898e-05)
(0.00423483 -6.73017e-06 -3.25786e-05)
(0.00428314 -7.17285e-06 -3.52397e-05)
(0.00433541 -7.61447e-06 -3.80662e-05)
(0.00439185 -8.03208e-06 -4.10302e-05)
(0.00445273 -8.4182e-06 -4.41134e-05)
(0.00451833 -8.79742e-06 -4.73603e-05)
(0.00458896 -9.21563e-06 -5.08563e-05)
(0.00466503 -9.71127e-06 -5.46679e-05)
(0.00474696 -1.03027e-05 -5.8825e-05)
(0.00483522 -1.09934e-05 -6.33345e-05)
(0.00493033 -1.17817e-05 -6.82117e-05)
(0.00503282 -1.26707e-05 -7.34911e-05)
(0.00376589 -5.48239e-08 -1.16408e-06)
(0.00376823 -3.36065e-07 -1.5905e-06)
(0.00377132 -5.74288e-07 -2.04322e-06)
(0.00377516 -7.71442e-07 -2.52141e-06)
(0.0037798 -9.27651e-07 -3.02526e-06)
(0.00378528 -1.0495e-06 -3.57104e-06)
(0.00379164 -1.15785e-06 -4.19771e-06)
(0.00379896 -1.27811e-06 -4.93068e-06)
(0.00380732 -1.4276e-06 -5.76367e-06)
(0.00381677 -1.61558e-06 -6.67379e-06)
(0.00382742 -1.84368e-06 -7.64557e-06)
(0.00383935 -2.1073e-06 -8.6954e-06)
(0.00385266 -2.39405e-06 -9.83837e-06)
(0.00386743 -2.67872e-06 -1.1043e-05)
(0.00388373 -2.93502e-06 -1.22716e-05)
(0.00390163 -3.15032e-06 -1.35271e-05)
(0.00392124 -3.32022e-06 -1.48402e-05)
(0.00394264 -3.44224e-06 -1.62386e-05)
(0.00396595 -3.51621e-06 -1.77082e-05)
(0.00399126 -3.54486e-06 -1.91995e-05)
(0.00401868 -3.54396e-06 -2.07069e-05)
(0.00404836 -3.54949e-06 -2.23079e-05)
(0.0040805 -3.60259e-06 -2.40993e-05)
(0.00411534 -3.72761e-06 -2.61174e-05)
(0.00415313 -3.92491e-06 -2.83381e-05)
(0.00419414 -4.1808e-06 -3.07352e-05)
(0.0042386 -4.47676e-06 -3.33029e-05)
(0.00428675 -4.79112e-06 -3.60369e-05)
(0.00433884 -5.10312e-06 -3.8917e-05)
(0.00439509 -5.3981e-06 -4.19043e-05)
(0.00445577 -5.67368e-06 -4.49904e-05)
(0.00452116 -5.94645e-06 -4.82455e-05)
(0.0045916 -6.24351e-06 -5.17708e-05)
(0.00466749 -6.58714e-06 -5.56315e-05)
(0.00474926 -6.99113e-06 -5.98498e-05)
(0.00483738 -7.46248e-06 -6.44282e-05)
(0.00493235 -8.00207e-06 -6.93849e-05)
(0.00503472 -8.61554e-06 -7.47595e-05)
(0.00376667 -1.6195e-07 -1.23116e-06)
(0.00376906 -4.52731e-07 -1.6764e-06)
(0.0037722 -6.97826e-07 -2.13607e-06)
(0.00377611 -8.95815e-07 -2.6306e-06)
(0.00378083 -1.04522e-06 -3.15974e-06)
(0.00378637 -1.14702e-06 -3.72659e-06)
(0.0037928 -1.21151e-06 -4.35156e-06)
(0.00380017 -1.25487e-06 -5.05156e-06)
(0.00380855 -1.29514e-06 -5.83412e-06)
(0.00381801 -1.34837e-06 -6.7002e-06)
(0.00382865 -1.42119e-06 -7.65506e-06)
(0.00384057 -1.51126e-06 -8.71709e-06)
(0.00385387 -1.6085e-06 -9.8837e-06)
(0.00386864 -1.69522e-06 -1.11157e-05)
(0.00388494 -1.75746e-06 -1.23788e-05)
(0.00390286 -1.78994e-06 -1.36665e-05)
(0.00392248 -1.78834e-06 -1.49932e-05)
(0.0039439 -1.75e-06 -1.63713e-05)
(0.00396721 -1.67806e-06 -1.77753e-05)
(0.0039925 -1.58131e-06 -1.91699e-05)
(0.00401988 -1.47698e-06 -2.05862e-05)
(0.00404949 -1.38955e-06 -2.21279e-05)
(0.00408155 -1.34182e-06 -2.38948e-05)
(0.00411631 -1.34527e-06 -2.59119e-05)
(0.00415402 -1.39892e-06 -2.81461e-05)
(0.00419494 -1.49513e-06 -3.05664e-05)
(0.00423932 -1.62243e-06 -3.31574e-05)
(0.00428739 -1.76706e-06 -3.59022e-05)
(0.0043394 -1.91881e-06 -3.87707e-05)
(0.00439557 -2.07218e-06 -4.17267e-05)
(0.00445616 -2.22464e-06 -4.47807e-05)
(0.00452146 -2.37858e-06 -4.80163e-05)
(0.00459181 -2.53896e-06 -5.15274e-05)
(0.00466761 -2.71164e-06 -5.53651e-05)
(0.0047493 -2.90473e-06 -5.95476e-05)
(0.00483734 -3.12648e-06 -6.40862e-05)
(0.00493224 -3.3794e-06 -6.9007e-05)
(0.00503454 -3.66799e-06 -7.43485e-05)
(0.00376666 -2.53628e-07 -1.32097e-06)
(0.00376909 -5.25628e-07 -1.79724e-06)
(0.00377228 -7.55509e-07 -2.27646e-06)
(0.00377625 -9.35298e-07 -2.792e-06)
(0.00378102 -1.06078e-06 -3.34032e-06)
(0.00378663 -1.12954e-06 -3.91646e-06)
(0.00379311 -1.14543e-06 -4.52691e-06)
(0.00380052 -1.11856e-06 -5.18168e-06)
(0.00380892 -1.06466e-06 -5.90141e-06)
(0.00381838 -9.98588e-07 -6.71507e-06)
(0.00382902 -9.26162e-07 -7.64846e-06)
(0.00384094 -8.45853e-07 -8.71045e-06)
(0.00385425 -7.51106e-07 -9.87652e-06)
(0.00386903 -6.35006e-07 -1.11045e-05)
(0.00388535 -4.98534e-07 -1.23649e-05)
(0.00390328 -3.47603e-07 -1.36467e-05)
(0.00392291 -1.84615e-07 -1.49551e-05)
(0.00394434 -1.13427e-08 -1.62904e-05)
(0.00396766 1.6803e-07 -1.76264e-05)
(0.00399294 3.47318e-07 -1.89492e-05)
(0.00402029 5.18901e-07 -2.03131e-05)
(0.00404987 6.75604e-07 -2.18283e-05)
(0.00408189 8.12175e-07 -2.35823e-05)
(0.0041166 9.26704e-07 -2.55879e-05)
(0.00415427 1.01919e-06 -2.78128e-05)
(0.00419515 1.08944e-06 -3.02261e-05)
(0.00423949 1.13832e-06 -3.28036e-05)
(0.00428753 1.16652e-06 -3.55204e-05)
(0.00433949 1.17171e-06 -3.83514e-05)
(0.00439562 1.15311e-06 -4.12811e-05)
(0.00445617 1.11719e-06 -4.43369e-05)
(0.00452144 1.07531e-06 -4.75905e-05)
(0.00459177 1.03968e-06 -5.11041e-05)
(0.00466755 1.01775e-06 -5.49096e-05)
(0.00474922 1.00833e-06 -5.90343e-05)
(0.00483724 1.00582e-06 -6.35127e-05)
(0.00493212 1.00957e-06 -6.83844e-05)
(0.00503441 1.02084e-06 -7.36853e-05)
(0.00376642 -3.25869e-07 -1.37041e-06)
(0.00376887 -5.40192e-07 -1.91508e-06)
(0.0037721 -7.26003e-07 -2.44376e-06)
(0.00377613 -8.67523e-07 -2.9867e-06)
(0.00378095 -9.56053e-07 -3.54591e-06)
(0.00378661 -9.85801e-07 -4.12436e-06)
(0.00379315 -9.56455e-07 -4.72336e-06)
(0.0038006 -8.73056e-07 -5.34501e-06)
(0.00380902 -7.4445e-07 -6.01944e-06)
(0.00381851 -5.77567e-07 -6.80172e-06)
(0.00382916 -3.74154e-07 -7.73118e-06)
(0.00384111 -1.34833e-07 -8.79758e-06)
(0.00385444 1.38257e-07 -9.9504e-06)
(0.00386924 4.3812e-07 -1.11436e-05)
(0.00388557 7.50333e-07 -1.23577e-05)
(0.0039035 1.0592e-06 -1.35936e-05)
(0.00392313 1.3544e-06 -1.48619e-05)
(0.00394455 1.63029e-06 -1.61603e-05)
(0.00396786 1.88439e-06 -1.74652e-05)
(0.00399312 2.11785e-06 -1.87718e-05)
(0.00402046 2.33694e-06 -2.01368e-05)
(0.00405003 2.5508e-06 -2.16594e-05)
(0.00408204 2.76729e-06 -2.34109e-05)
(0.00411675 2.99006e-06 -2.54011e-05)
(0.00415441 3.21668e-06 -2.76067e-05)
(0.00419528 3.43946e-06 -2.99993e-05)
(0.0042396 3.64853e-06 -3.25475e-05)
(0.00428761 3.83271e-06 -3.52258e-05)
(0.00433954 3.9809e-06 -3.80266e-05)
(0.00439564 4.08975e-06 -4.09615e-05)
(0.00445618 4.16946e-06 -4.4062e-05)
(0.00452144 4.23884e-06 -4.73686e-05)
(0.00459179 4.3194e-06 -5.09061e-05)
(0.0046676 4.42833e-06 -5.46968e-05)
(0.00474929 4.57342e-06 -5.87868e-05)
(0.00483734 4.75771e-06 -6.32347e-05)
(0.00493224 4.98887e-06 -6.80924e-05)
(0.00503456 5.27305e-06 -7.33973e-05)
(0.00376841 -4.86987e-07 -2.01786e-06)
(0.00377168 -5.9571e-07 -2.60701e-06)
(0.00377575 -6.76974e-07 -3.17244e-06)
(0.00378062 -7.15352e-07 -3.7344e-06)
(0.00378633 -6.99992e-07 -4.31437e-06)
(0.00379291 -6.26577e-07 -4.91418e-06)
(0.0038004 -4.94404e-07 -5.52928e-06)
(0.00380886 -3.01974e-07 -6.1943e-06)
(0.00381838 -4.43948e-08 -6.97852e-06)
(0.00382908 2.80179e-07 -7.92056e-06)
(0.00384106 6.63681e-07 -8.98684e-06)
(0.00385443 1.08891e-06 -1.01059e-05)
(0.00386925 1.53449e-06 -1.12308e-05)
(0.00388558 1.97851e-06 -1.23603e-05)
(0.00390351 2.40274e-06 -1.35208e-05)
(0.00392312 2.79449e-06 -1.4739e-05)
(0.00394452 3.14678e-06 -1.6018e-05)
(0.0039678 3.45782e-06 -1.7332e-05)
(0.00399306 3.73508e-06 -1.86656e-05)
(0.0040204 3.99722e-06 -2.00626e-05)
(0.00404999 4.26636e-06 -2.16074e-05)
(0.00408202 4.55938e-06 -2.33589e-05)
(0.00411675 4.88309e-06 -2.53307e-05)
(0.00415443 5.23314e-06 -2.75128e-05)
(0.00419531 5.5963e-06 -2.98827e-05)
(0.00423963 5.95424e-06 -3.2408e-05)
(0.00428763 6.28735e-06 -3.50667e-05)
(0.00433955 6.57894e-06 -3.78665e-05)
(0.00439564 6.82483e-06 -4.08329e-05)
(0.00445618 7.03722e-06 -4.39916e-05)
(0.00452148 7.23617e-06 -4.7358e-05)
(0.00459187 7.44596e-06 -5.09342e-05)
(0.00466774 7.6899e-06 -5.47427e-05)
(0.00474949 7.98602e-06 -5.88425e-05)
(0.0048376 8.35108e-06 -6.33033e-05)
(0.00493258 8.80527e-06 -6.81814e-05)
(0.00503499 9.36135e-06 -7.35156e-05)
(0.00376718 -3.84808e-07 -2.10302e-06)
(0.00377046 -3.90706e-07 -2.73068e-06)
(0.00377456 -3.96769e-07 -3.30007e-06)
(0.00377946 -3.77127e-07 -3.85337e-06)
(0.0037852 -3.12165e-07 -4.43024e-06)
(0.0037918 -1.91455e-07 -5.03687e-06)