/*--------------------------------*- C++ -*----------------------------------*\
| =========                 |                                                 |
| \\      /  F ield         | OpenFOAM: The Open Source CFD Toolbox           |
|  \\    /   O peration     | Version:  2.3.1                                 |
|   \\  /    A nd           | Web:      www.OpenFOAM.org                      |
|    \\/     M anipulation  |                                                 |
\*---------------------------------------------------------------------------*/
FoamFile
{
    version     2.0;
    format      ascii;
    class       volVectorField;
    location    "10";
    object      U_0;
}
// * * * * * * * * * * * * * * * * * * * * * * * * * * * * * * * * * * * * * //

dimensions      [0 1 -1 0 0 0 0];

internalField   nonuniform List<vector> 
37692
(
(0.00327461 9.49398e-08 -4.82947e-07)
(0.00327671 -3.9579e-08 -5.3658e-07)
(0.00327937 -1.70213e-07 -6.0096e-07)
(0.00328263 -2.91176e-07 -6.83822e-07)
(0.00328654 -3.93529e-07 -7.86535e-07)
(0.00329115 -4.80488e-07 -9.09354e-07)
(0.00329655 -5.77739e-07 -1.05647e-06)
(0.00330285 -7.16615e-07 -1.23295e-06)
(0.00331024 -9.0739e-07 -1.43609e-06)
(0.00331886 -1.13891e-06 -1.65273e-06)
(0.00332878 -1.39568e-06 -1.86926e-06)
(0.00334006 -1.67302e-06 -2.08122e-06)
(0.00335273 -1.97496e-06 -2.29165e-06)
(0.00336685 -2.29345e-06 -2.50538e-06)
(0.00338245 -2.60583e-06 -2.7274e-06)
(0.00339958 -2.8995e-06 -2.96523e-06)
(0.00341828 -3.18134e-06 -3.23064e-06)
(0.00343868 -3.46419e-06 -3.53531e-06)
(0.00346094 -3.75177e-06 -3.88385e-06)
(0.00348521 -4.03229e-06 -4.27121e-06)
(0.0035116 -4.29318e-06 -4.68666e-06)
(0.00354019 -4.54567e-06 -5.12327e-06)
(0.00357113 -4.82267e-06 -5.58436e-06)
(0.00360461 -5.1492e-06 -6.07901e-06)
(0.00364092 -5.52436e-06 -6.61443e-06)
(0.00368031 -5.93482e-06 -7.19384e-06)
(0.00372305 -6.37317e-06 -7.81866e-06)
(0.00376938 -6.83796e-06 -8.48973e-06)
(0.00381953 -7.32574e-06 -9.20529e-06)
(0.00387371 -7.8263e-06 -9.95977e-06)
(0.00393208 -8.33111e-06 -1.07477e-05)
(0.00399482 -8.85387e-06 -1.15701e-05)
(0.00406216 -9.42875e-06 -1.24376e-05)
(0.00413444 -1.00847e-05 -1.33662e-05)
(0.00421211 -1.08314e-05 -1.43688e-05)
(0.00429565 -1.16643e-05 -1.54529e-05)
(0.00438557 -1.25796e-05 -1.66245e-05)
(0.00448241 -1.35824e-05 -1.7888e-05)
(0.00346355 1.69565e-07 -4.39632e-07)
(0.00346569 -1.38814e-07 -5.22349e-07)
(0.00346843 -4.31011e-07 -6.22282e-07)
(0.00347182 -6.90747e-07 -7.40735e-07)
(0.0034759 -9.06038e-07 -8.72103e-07)
(0.0034807 -1.08701e-06 -1.01685e-06)
(0.00348631 -1.27286e-06 -1.19401e-06)
(0.00349284 -1.50815e-06 -1.42579e-06)
(0.00350046 -1.81195e-06 -1.7084e-06)
(0.0035093 -2.17924e-06 -2.01651e-06)
(0.00351942 -2.60197e-06 -2.32746e-06)
(0.00353089 -3.08294e-06 -2.63618e-06)
(0.00354375 -3.62343e-06 -2.95285e-06)
(0.00355808 -4.19553e-06 -3.2822e-06)
(0.00357392 -4.75171e-06 -3.61697e-06)
(0.00359131 -5.26431e-06 -3.96072e-06)
(0.00361031 -5.73525e-06 -4.33479e-06)
(0.00363104 -6.17497e-06 -4.75966e-06)
(0.00365366 -6.58111e-06 -5.24115e-06)
(0.0036783 -6.93695e-06 -5.76466e-06)
(0.00370507 -7.24346e-06 -6.30603e-06)
(0.00373406 -7.54886e-06 -6.85974e-06)
(0.00376541 -7.92587e-06 -7.44471e-06)
(0.00379936 -8.41725e-06 -8.07975e-06)
(0.00383618 -9.01473e-06 -8.76768e-06)
(0.00387614 -9.68803e-06 -9.50532e-06)
(0.00391949 -1.04144e-05 -1.02959e-05)
(0.00396646 -1.11793e-05 -1.11453e-05)
(0.00401731 -1.1966e-05 -1.20531e-05)
(0.00407225 -1.27525e-05 -1.30095e-05)
(0.00413145 -1.35304e-05 -1.40016e-05)
(0.0041951 -1.4334e-05 -1.50348e-05)
(0.00426346 -1.52263e-05 -1.61371e-05)
(0.00433691 -1.62561e-05 -1.73355e-05)
(0.00441588 -1.74386e-05 -1.86424e-05)
(0.00450087 -1.87674e-05 -2.00608e-05)
(0.00459238 -2.02374e-05 -2.15948e-05)
(0.00469096 -2.18579e-05 -2.32551e-05)
(0.00349506 1.16155e-07 -3.83347e-07)
(0.00349723 -2.95381e-07 -4.95585e-07)
(0.00350004 -6.70173e-07 -6.28499e-07)
(0.00350353 -9.94941e-07 -7.72419e-07)
(0.00350772 -1.26357e-06 -9.20206e-07)
(0.00351265 -1.48284e-06 -1.07855e-06)
(0.00351837 -1.67394e-06 -1.27628e-06)
(0.00352502 -1.86336e-06 -1.53667e-06)
(0.00353273 -2.07521e-06 -1.85133e-06)
(0.00354161 -2.3316e-06 -2.19369e-06)
(0.00355174 -2.65306e-06 -2.54338e-06)
(0.00356319 -3.05369e-06 -2.90332e-06)
(0.00357603 -3.52493e-06 -3.28975e-06)
(0.00359035 -4.02608e-06 -3.69731e-06)
(0.00360621 -4.50779e-06 -4.10522e-06)
(0.00362363 -4.93813e-06 -4.51507e-06)
(0.00364267 -5.30263e-06 -4.95094e-06)
(0.00366345 -5.59318e-06 -5.43546e-06)
(0.00368612 -5.79919e-06 -5.97041e-06)
(0.0037108 -5.91841e-06 -6.5286e-06)
(0.00373755 -5.98777e-06 -7.08411e-06)
(0.00376644 -6.08803e-06 -7.6516e-06)
(0.00379767 -6.30093e-06 -8.27221e-06)
(0.00383149 -6.66081e-06 -8.96782e-06)
(0.00386822 -7.15012e-06 -9.72988e-06)
(0.0039081 -7.73143e-06 -1.05465e-05)
(0.00395137 -8.36996e-06 -1.14195e-05)
(0.00399829 -9.03538e-06 -1.23543e-05)
(0.00404908 -9.69918e-06 -1.33475e-05)
(0.00410395 -1.03389e-05 -1.43806e-05)
(0.00416308 -1.09586e-05 -1.54363e-05)
(0.00422664 -1.16011e-05 -1.65323e-05)
(0.00429491 -1.2322e-05 -1.77134e-05)
(0.00436829 -1.31562e-05 -1.90133e-05)
(0.00444724 -1.41144e-05 -2.04429e-05)
(0.00453223 -1.51957e-05 -2.1999e-05)
(0.00462377 -1.6401e-05 -2.36829e-05)
(0.00472239 -1.77411e-05 -2.55102e-05)
(0.00350287 -7.90352e-08 -3.65088e-07)
(0.0035051 -5.3908e-07 -4.94847e-07)
(0.00350798 -9.33907e-07 -6.40545e-07)
(0.00351155 -1.26879e-06 -7.94965e-07)
(0.00351583 -1.54234e-06 -9.54783e-07)
(0.00352085 -1.7483e-06 -1.12655e-06)
(0.00352667 -1.88527e-06 -1.3333e-06)
(0.00353339 -1.96647e-06 -1.59088e-06)
(0.00354113 -2.02519e-06 -1.89361e-06)
(0.00355001 -2.10781e-06 -2.22486e-06)
(0.0035601 -2.25322e-06 -2.57328e-06)
(0.00357149 -2.47347e-06 -2.94936e-06)
(0.0035843 -2.74804e-06 -3.36672e-06)
(0.00359861 -3.03873e-06 -3.80881e-06)
(0.00361449 -3.31018e-06 -4.25012e-06)
(0.00363195 -3.53436e-06 -4.69073e-06)
(0.00365106 -3.68739e-06 -5.14996e-06)
(0.00367192 -3.74918e-06 -5.64504e-06)
(0.00369466 -3.71004e-06 -6.16834e-06)
(0.00371937 -3.5893e-06 -6.68682e-06)
(0.00374608 -3.44681e-06 -7.18876e-06)
(0.00377488 -3.36271e-06 -7.71508e-06)
(0.00380597 -3.39637e-06 -8.32154e-06)
(0.00383966 -3.56322e-06 -9.02616e-06)
(0.00387628 -3.84423e-06 -9.80974e-06)
(0.00391608 -4.20754e-06 -1.06538e-05)
(0.0039593 -4.6189e-06 -1.15559e-05)
(0.00400617 -5.0456e-06 -1.25163e-05)
(0.00405693 -5.46289e-06 -1.35241e-05)
(0.00411177 -5.86307e-06 -1.45531e-05)
(0.00417083 -6.26284e-06 -1.55895e-05)
(0.0042343 -6.69323e-06 -1.66663e-05)
(0.00430248 -7.17589e-06 -1.78388e-05)
(0.00437577 -7.71641e-06 -1.91396e-05)
(0.00445464 -8.31791e-06 -2.05748e-05)
(0.00453957 -8.99109e-06 -2.21378e-05)
(0.00463105 -9.74639e-06 -2.38291e-05)
(0.00472961 -1.05973e-05 -2.56692e-05)
(0.00350471 -2.81753e-07 -4.05852e-07)
(0.00350701 -7.67661e-07 -5.38397e-07)
(0.00350996 -1.17182e-06 -6.79297e-07)
(0.0035136 -1.50212e-06 -8.36887e-07)
(0.00351795 -1.75641e-06 -1.00873e-06)
(0.00352307 -1.92294e-06 -1.19297e-06)
(0.00352898 -1.9915e-06 -1.39971e-06)
(0.00353578 -1.96886e-06 -1.63752e-06)
(0.00354355 -1.8915e-06 -1.90828e-06)
(0.00355241 -1.81552e-06 -2.2098e-06)
(0.00356245 -1.78455e-06 -2.54307e-06)
(0.0035738 -1.80282e-06 -2.92089e-06)
(0.00358659 -1.84241e-06 -3.3467e-06)
(0.00360091 -1.87414e-06 -3.79823e-06)
(0.00361681 -1.88103e-06 -4.2535e-06)
(0.00363432 -1.8488e-06 -4.70904e-06)
(0.0036535 -1.75954e-06 -5.17395e-06)
(0.00367444 -1.59638e-06 -5.65648e-06)
(0.00369724 -1.35921e-06 -6.14217e-06)
(0.00372197 -1.08046e-06 -6.60389e-06)
(0.00374864 -8.17265e-07 -7.05135e-06)
(0.00377734 -6.20868e-07 -7.54229e-06)
(0.00380832 -5.1528e-07 -8.1337e-06)
(0.00384191 -4.98206e-07 -8.83565e-06)
(0.00387845 -5.56136e-07 -9.62304e-06)
(0.00391819 -6.70899e-07 -1.04749e-05)
(0.00396137 -8.18954e-07 -1.13841e-05)
(0.00400823 -9.78791e-07 -1.23444e-05)
(0.00405898 -1.14459e-06 -1.33396e-05)
(0.00411378 -1.33064e-06 -1.43441e-05)
(0.00417279 -1.5563e-06 -1.53549e-05)
(0.00423621 -1.82185e-06 -1.64144e-05)
(0.00430435 -2.10317e-06 -1.75737e-05)
(0.00437762 -2.37752e-06 -1.88561e-05)
(0.00445646 -2.64743e-06 -2.02643e-05)
(0.00454135 -2.93828e-06 -2.17954e-05)
(0.00463278 -3.27122e-06 -2.34549e-05)
(0.00473129 -3.65884e-06 -2.52625e-05)
(0.00350481 -3.85401e-07 -4.61213e-07)
(0.00350718 -8.81538e-07 -6.01243e-07)
(0.00351021 -1.29077e-06 -7.4422e-07)
(0.00351393 -1.60294e-06 -9.09224e-07)
(0.00351838 -1.81619e-06 -1.09086e-06)
(0.00352358 -1.92857e-06 -1.28129e-06)
(0.0035296 -1.93581e-06 -1.48142e-06)
(0.00353647 -1.84281e-06 -1.69433e-06)
(0.00354428 -1.68114e-06 -1.92878e-06)
(0.00355313 -1.50151e-06 -2.19918e-06)
(0.00356314 -1.33783e-06 -2.51986e-06)
(0.00357448 -1.18137e-06 -2.89921e-06)
(0.00358728 -9.99936e-07 -3.32626e-06)
(0.00360162 -7.75087e-07 -3.7762e-06)
(0.00361755 -5.11227e-07 -4.23189e-06)
(0.0036351 -2.20858e-07 -4.68755e-06)
(0.00365431 9.04442e-08 -5.14623e-06)
(0.0036753 4.22455e-07 -5.60938e-06)
(0.00369813 7.66576e-07 -6.06002e-06)
(0.00372284 1.09855e-06 -6.4823e-06)
(0.00374945 1.39188e-06 -6.90118e-06)
(0.00377809 1.63734e-06 -7.37944e-06)
(0.00380901 1.84362e-06 -7.96594e-06)
(0.00384256 2.0213e-06 -8.66314e-06)
(0.00387905 2.17167e-06 -9.4459e-06)
(0.00391877 2.29526e-06 -1.02938e-05)
(0.00396193 2.39888e-06 -1.1195e-05)
(0.00400877 2.48436e-06 -1.21379e-05)
(0.00405948 2.53371e-06 -1.31093e-05)
(0.00411422 2.51699e-06 -1.4096e-05)
(0.00417318 2.42511e-06 -1.51072e-05)
(0.00423658 2.29254e-06 -1.61802e-05)
(0.00430473 2.17776e-06 -1.73457e-05)
(0.00437803 2.11773e-06 -1.86138e-05)
(0.00445689 2.10697e-06 -1.99908e-05)
(0.00454177 2.11331e-06 -2.14877e-05)
(0.00463316 2.11155e-06 -2.31203e-05)
(0.00473165 2.09309e-06 -2.49031e-05)
(0.00350435 -4.22166e-07 -4.86786e-07)
(0.00350677 -8.83278e-07 -6.57621e-07)
(0.0035099 -1.26014e-06 -8.23465e-07)
(0.00351372 -1.52406e-06 -1.00112e-06)
(0.00351826 -1.67795e-06 -1.18679e-06)
(0.00352356 -1.73458e-06 -1.37781e-06)
(0.00352967 -1.69883e-06 -1.57236e-06)
(0.00353662 -1.57333e-06 -1.76737e-06)
(0.00354447 -1.3764e-06 -1.97567e-06)
(0.00355333 -1.13882e-06 -2.22745e-06)
(0.00356335 -8.73945e-07 -2.54773e-06)
(0.00357472 -5.61994e-07 -2.93462e-06)
(0.00358757 -1.74923e-07 -3.35957e-06)
(0.00360197 2.88754e-07 -3.7948e-06)
(0.00361792 7.99363e-07 -4.22968e-06)
(0.00363547 1.31557e-06 -4.66397e-06)
(0.00365468 1.80496e-06 -5.10418e-06)
(0.00367564 2.25016e-06 -5.55064e-06)
(0.00369845 2.64306e-06 -5.98689e-06)
(0.00372312 2.98257e-06 -6.40279e-06)
(0.0037497 3.27991e-06 -6.8258e-06)
(0.00377832 3.56077e-06 -7.31127e-06)
(0.00380923 3.85482e-06 -7.89839e-06)
(0.00384278 4.17337e-06 -8.58781e-06)
(0.00387926 4.50471e-06 -9.36053e-06)
(0.00391896 4.83188e-06 -1.01984e-05)
(0.00396211 5.14297e-06 -1.10842e-05)
(0.00400891 5.42207e-06 -1.20043e-05)
(0.00405955 5.64016e-06 -1.29552e-05)
(0.00411422 5.76961e-06 -1.39414e-05)
(0.00417312 5.81641e-06 -1.49776e-05)
(0.00423652 5.83112e-06 -1.60831e-05)
(0.00430472 5.87865e-06 -1.72643e-05)
(0.00437808 5.99669e-06 -1.85239e-05)
(0.00445698 6.18544e-06 -1.98793e-05)
(0.00454188 6.42447e-06 -2.13579e-05)
(0.00463328 6.70016e-06 -2.2983e-05)
(0.00473177 7.00767e-06 -2.4769e-05)
(0.00350585 -7.93856e-07 -7.0603e-07)
(0.00350906 -1.07019e-06 -9.04149e-07)
(0.00351299 -1.24037e-06 -1.09179e-06)
(0.00351762 -1.31317e-06 -1.27558e-06)
(0.003523 -1.30848e-06 -1.46591e-06)
(0.00352917 -1.23607e-06 -1.66144e-06)
(0.00353619 -1.09581e-06 -1.8533e-06)
(0.00354409 -8.87336e-07 -2.05596e-06)
(0.00355299 -6.10046e-07 -2.31011e-06)
(0.00356307 -2.51781e-07 -2.6426e-06)
(0.00357452 2.07972e-07 -3.03629e-06)
(0.00358745 7.75884e-07 -3.44927e-06)
(0.00360191 1.42885e-06 -3.85322e-06)
(0.00361788 2.11957e-06 -4.24604e-06)
(0.0036354 2.79509e-06 -4.64227e-06)
(0.00365455 3.41142e-06 -5.05925e-06)
(0.00367545 3.94196e-06 -5.49992e-06)
(0.00369818 4.37958e-06 -5.94606e-06)
(0.00372281 4.73841e-06 -6.38188e-06)
(0.00374938 5.05371e-06 -6.82631e-06)
(0.00377801 5.3763e-06 -7.3259e-06)
(0.00380897 5.75243e-06 -7.91337e-06)
(0.00384255 6.19696e-06 -8.5923e-06)
(0.00387905 6.69057e-06 -9.35326e-06)
(0.00391874 7.20014e-06 -1.01819e-05)
(0.00396187 7.69449e-06 -1.10583e-05)
(0.00400862 8.14619e-06 -1.1969e-05)
(0.00405919 8.53031e-06 -1.29186e-05)
(0.00411379 8.83391e-06 -1.39215e-05)
(0.00417266 9.07149e-06 -1.49907e-05)
(0.00423606 9.28553e-06 -1.61298e-05)
(0.00430432 9.52649e-06 -1.73312e-05)
(0.00437775 9.8304e-06 -1.85978e-05)
(0.00445672 1.02162e-05 -1.9956e-05)
(0.00454167 1.06918e-05 -2.14417e-05)
(0.00463312 1.12656e-05 -2.30793e-05)
(0.00473166 1.19384e-05 -2.48833e-05)
(0.00350328 -6.39817e-07 -7.50985e-07)
(0.00350658 -7.50748e-07 -9.71417e-07)
(0.00351059 -7.91776e-07 -1.15971e-06)
(0.00351528 -7.67568e-07 -1.33682e-06)
(0.00352071 -6.90385e-07 -1.52557e-06)
(0.00352692 -5.67294e-07 -1.72701e-06)
(0.00353398 -3.94596e-07 -1.92976e-06)
(0.00354194 -1.54071e-07 -2.148e-06)
(0.00355092 1.85496e-07 -2.42005e-06)
(0.00356109 6.52004e-07 -2.76487e-06)
(0.00357265 1.24967e-06 -3.15425e-06)
(0.00358567 1.9507e-06 -3.54086e-06)
(0.00360018 2.70952e-06 -3.90123e-06)
(0.00361616 3.48048e-06 -4.24516e-06)
(0.00363364 4.22423e-06 -4.59961e-06)
(0.00365272 4.90832e-06 -4.98995e-06)
(0.00367353 5.5066e-06 -5.42363e-06)
(0.00369619 6.00442e-06 -5.88095e-06)
(0.00372076 6.41095e-06 -6.33916e-06)
(0.00374732 6.76855e-06 -6.81012e-06)
(0.003776 7.14433e-06 -7.33062e-06)
(0.00380703 7.59936e-06 -7.9234e-06)
(0.00384068 8.15647e-06 -8.59259e-06)
(0.00387722 8.79622e-06 -9.33803e-06)
(0.00391693 9.47522e-06 -1.01541e-05)
(0.00396003 1.01475e-05 -1.10254e-05)
(0.00400675 1.07788e-05 -1.19399e-05)
(0.00405727 1.13515e-05 -1.29011e-05)
(0.00411183 1.1866e-05 -1.39223e-05)
(0.00417068 1.2338e-05 -1.50144e-05)
(0.0042341 1.2794e-05 -1.61781e-05)
(0.00430241 1.32672e-05 -1.74049e-05)
(0.00437591 1.37945e-05 -1.86991e-05)
(0.00445497 1.4417e-05 -2.00855e-05)
(0.00454003 1.51725e-05 -2.15952e-05)
(0.0046316 1.60899e-05 -2.32511e-05)
(0.00473024 1.71814e-05 -2.50656e-05)
(0.00349488 -4.17971e-07 -7.85938e-07)
(0.00349822 -3.44789e-07 -1.00597e-06)
(0.00350228 -2.55203e-07 -1.18209e-06)
(0.003507 -1.40133e-07 -1.34613e-06)
(0.00351244 6.80324e-09 -1.52741e-06)
(0.00351866 1.88159e-07 -1.73131e-06)
(0.00352573 4.11708e-07 -1.94958e-06)
(0.00353374 7.07233e-07 -2.18891e-06)
(0.00354279 1.12105e-06 -2.47358e-06)
(0.00355307 1.67986e-06 -2.80852e-06)
(0.00356472 2.3627e-06 -3.16455e-06)
(0.00357781 3.11324e-06 -3.50634e-06)
(0.00359235 3.87716e-06 -3.82197e-06)
(0.00360834 4.62447e-06 -4.12438e-06)
(0.0036258 5.3441e-06 -4.43843e-06)
(0.00364484 6.02806e-06 -4.79101e-06)
(0.00366558 6.65724e-06 -5.19624e-06)
(0.00368816 7.20512e-06 -5.64105e-06)
(0.00371268 7.66609e-06 -6.10689e-06)
(0.00373923 8.08006e-06 -6.60261e-06)
(0.00376796 8.5198e-06 -7.1487e-06)
(0.00379909 9.05031e-06 -7.74986e-06)
(0.00383285 9.69916e-06 -8.40503e-06)
(0.00386947 1.0454e-05 -9.12134e-06)
(0.00390921 1.12742e-05 -9.90633e-06)
(0.00395232 1.21102e-05 -1.07558e-05)
(0.00399902 1.29235e-05 -1.16604e-05)
(0.00404955 1.3696e-05 -1.26185e-05)
(0.00410411 1.44317e-05 -1.36363e-05)
(0.00416297 1.51472e-05 -1.47263e-05)
(0.00422642 1.58616e-05 -1.58949e-05)
(0.00429478 1.65982e-05 -1.71375e-05)
(0.00436838 1.73928e-05 -1.84554e-05)
(0.00444756 1.8296e-05 -1.9862e-05)
(0.00453276 1.93608e-05 -2.13778e-05)
(0.00462447 2.06295e-05 -2.30241e-05)
(0.00472324 2.21279e-05 -2.48103e-05)
(0.00346281 -1.70031e-07 -7.87641e-07)
(0.00346619 4.02995e-08 -9.69222e-07)
(0.00347027 2.11452e-07 -1.11251e-06)
(0.00347499 3.73936e-07 -1.249e-06)
(0.00348039 5.57302e-07 -1.40537e-06)
(0.00348657 7.77655e-07 -1.58981e-06)
(0.00349361 1.0442e-06 -1.79706e-06)
(0.00350162 1.38101e-06 -2.02623e-06)
(0.00351072 1.82179e-06 -2.28354e-06)
(0.00352105 2.37672e-06 -2.56524e-06)
(0.00353275 3.0111e-06 -2.85317e-06)
(0.00354588 3.66614e-06 -3.13099e-06)
(0.00356045 4.29636e-06 -3.39588e-06)
(0.00357647 4.88718e-06 -3.65547e-06)
(0.00359396 5.4491e-06 -3.92388e-06)
(0.00361299 5.99916e-06 -4.22219e-06)
(0.0036337 6.53685e-06 -4.56831e-06)
(0.00365621 7.03971e-06 -4.96253e-06)
(0.00368066 7.49756e-06 -5.39934e-06)
(0.00370719 7.94189e-06 -5.88318e-06)
(0.00373597 8.42674e-06 -6.41482e-06)
(0.00376719 8.99234e-06 -6.98346e-06)
(0.00380104 9.65511e-06 -7.58296e-06)
(0.00383774 1.04129e-05 -8.22351e-06)
(0.00387753 1.12444e-05 -8.92215e-06)
(0.00392066 1.2115e-05 -9.68451e-06)
(0.00396738 1.29905e-05 -1.05069e-05)
(0.00401792 1.38506e-05 -1.13862e-05)
(0.0040725 1.46989e-05 -1.23237e-05)
(0.00413138 1.55574e-05 -1.33315e-05)
(0.00419486 1.64472e-05 -1.44191e-05)
(0.00426325 1.73838e-05 -1.5584e-05)
(0.0043369 1.83877e-05 -1.6824e-05)
(0.00441615 1.9493e-05 -1.81408e-05)
(0.00450142 2.07445e-05 -1.95453e-05)
(0.00459319 2.21874e-05 -2.10546e-05)
(0.00469199 2.38577e-05 -2.26768e-05)
(0.00327342 -1.29689e-08 -7.47759e-07)
(0.0032768 1.38616e-07 -8.55971e-07)
(0.00328084 2.51832e-07 -9.46726e-07)
(0.00328549 3.5215e-07 -1.03937e-06)
(0.00329078 4.63692e-07 -1.14842e-06)
(0.00329681 5.99198e-07 -1.27863e-06)
(0.00330369 7.62193e-07 -1.42723e-06)
(0.00331152 9.60493e-07 -1.59065e-06)
(0.00332045 1.20639e-06 -1.76774e-06)
(0.00333061 1.49961e-06 -1.95573e-06)
(0.00334214 1.81916e-06 -2.1492e-06)
(0.00335509 2.13637e-06 -2.34441e-06)
(0.00336949 2.43188e-06 -2.54177e-06)
(0.00338532 2.70148e-06 -2.74442e-06)
(0.00340259 2.95473e-06 -2.9578e-06)
(0.00342136 3.20844e-06 -3.19191e-06)
(0.00344175 3.47088e-06 -3.4586e-06)
(0.00346389 3.73396e-06 -3.7654e-06)
(0.00348794 3.99209e-06 -4.11596e-06)
(0.00351405 4.25937e-06 -4.50934e-06)
(0.00354241 4.55727e-06 -4.93666e-06)
(0.00357318 4.89606e-06 -5.38629e-06)
(0.00360656 5.27713e-06 -5.8538e-06)
(0.00364273 5.70259e-06 -6.34794e-06)
(0.00368194 6.17028e-06 -6.88358e-06)
(0.00372443 6.66804e-06 -7.46895e-06)
(0.00377045 7.18085e-06 -8.10604e-06)
(0.00382024 7.69724e-06 -8.79343e-06)
(0.00387401 8.21831e-06 -9.53025e-06)
(0.00393201 8.75933e-06 -1.03232e-05)
(0.00399452 9.33378e-06 -1.1177e-05)
(0.00406185 9.94745e-06 -1.20909e-05)
(0.00413434 1.06047e-05 -1.3064e-05)
(0.00421232 1.13145e-05 -1.40957e-05)
(0.00429619 1.20959e-05 -1.51921e-05)
(0.00438641 1.29725e-05 -1.6363e-05)
(0.00448352 1.39662e-05 -1.76135e-05)
(0.00357421 4.54623e-08 -1.3141e-06)
(0.00357634 -3.86725e-08 -1.52847e-06)
(0.00357908 -1.13759e-07 -1.77536e-06)
(0.00358247 -1.76519e-07 -2.07198e-06)
(0.00358656 -2.19264e-07 -2.4231e-06)
(0.0035914 -2.47935e-07 -2.83011e-06)
(0.00359707 -2.91069e-07 -3.30115e-06)
(0.00360371 -3.79806e-07 -3.84484e-06)
(0.00361147 -5.22527e-07 -4.45162e-06)
(0.00362047 -7.055e-07 -5.09297e-06)
(0.0036308 -9.10701e-07 -5.74234e-06)
(0.00364252 -1.13316e-06 -6.39077e-06)
(0.00365567 -1.37544e-06 -7.04498e-06)
(0.00367031 -1.6257e-06 -7.71731e-06)
(0.00368649 -1.86071e-06 -8.42136e-06)
(0.00370424 -2.07035e-06 -9.17775e-06)
(0.00372365 -2.26287e-06 -1.00153e-05)
(0.00374483 -2.45129e-06 -1.09599e-05)
(0.00376794 -2.63819e-06 -1.20228e-05)
(0.00379311 -2.80883e-06 -1.31949e-05)
(0.00382048 -2.94733e-06 -1.44549e-05)
(0.00385015 -3.06258e-06 -1.5792e-05)
(0.00388226 -3.18634e-06 -1.72173e-05)
(0.00391703 -3.34326e-06 -1.87526e-05)
(0.00395473 -3.53371e-06 -2.0415e-05)
(0.00399564 -3.74679e-06 -2.22127e-05)
(0.00404 -3.97582e-06 -2.41493e-05)
(0.00408809 -4.2187e-06 -2.6226e-05)
(0.00414014 -4.47099e-06 -2.84378e-05)
(0.00419638 -4.71984e-06 -3.07735e-05)
(0.00425698 -4.95387e-06 -3.32229e-05)
(0.00432215 -5.18386e-06 -3.57931e-05)
(0.00439216 -5.44081e-06 -3.85144e-05)
(0.00446734 -5.75264e-06 -4.14276e-05)
(0.00454816 -6.12921e-06 -4.45682e-05)
(0.0046351 -6.5654e-06 -4.79608e-05)
(0.00472869 -7.05572e-06 -5.16227e-05)
(0.00482949 -7.60116e-06 -5.55711e-05)
(0.00373981 6.43281e-08 -1.25452e-06)
(0.00374202 -1.20235e-07 -1.56396e-06)
(0.00374492 -2.79358e-07 -1.91058e-06)
(0.00374852 -4.11889e-07 -2.30048e-06)
(0.00375288 -5.13923e-07 -2.72937e-06)
(0.00375806 -5.99508e-07 -3.20352e-06)
(0.00376412 -7.10057e-07 -3.75742e-06)
(0.00377117 -8.89657e-07 -4.42396e-06)
(0.00377931 -1.15164e-06 -5.19251e-06)
(0.00378864 -1.4799e-06 -6.0222e-06)
(0.00379923 -1.85433e-06 -6.87637e-06)
(0.00381117 -2.26699e-06 -7.7463e-06)
(0.00382452 -2.71208e-06 -8.64899e-06)
(0.00383935 -3.16418e-06 -9.59127e-06)
(0.0038557 -3.58734e-06 -1.05639e-05)
(0.00387366 -3.96629e-06 -1.15805e-05)
(0.00389331 -4.31035e-06 -1.26811e-05)
(0.00391476 -4.63228e-06 -1.39019e-05)
(0.00393815 -4.93055e-06 -1.52539e-05)
(0.0039636 -5.18633e-06 -1.6712e-05)
(0.00399122 -5.38769e-06 -1.82394e-05)
(0.00402117 -5.56032e-06 -1.9836e-05)
(0.00405362 -5.75803e-06 -2.15408e-05)
(0.00408878 -6.02043e-06 -2.33889e-05)
(0.0041269 -6.35126e-06 -2.53883e-05)
(0.00416825 -6.73435e-06 -2.75367e-05)
(0.00421308 -7.15449e-06 -2.98414e-05)
(0.00426164 -7.59956e-06 -3.23118e-05)
(0.00431418 -8.05264e-06 -3.49468e-05)
(0.00437093 -8.49036e-06 -3.77308e-05)
(0.00443213 -8.89992e-06 -4.06476e-05)
(0.00449802 -9.30386e-06 -4.37173e-05)
(0.00456891 -9.75321e-06 -4.6999e-05)
(0.00464518 -1.02924e-05 -5.05485e-05)
(0.00472727 -1.09388e-05 -5.43996e-05)
(0.00481565 -1.16908e-05 -5.85696e-05)
(0.00491084 -1.25441e-05 -6.30756e-05)
(0.0050134 -1.35006e-05 -6.79437e-05)
(0.00376179 2.96867e-08 -1.1834e-06)
(0.00376407 -2.18134e-07 -1.56628e-06)
(0.00376707 -4.31145e-07 -1.98544e-06)
(0.00377082 -6.09737e-07 -2.43389e-06)
(0.00377535 -7.53626e-07 -2.90707e-06)
(0.00378071 -8.75628e-07 -3.42214e-06)
(0.00378697 -1.00896e-06 -4.02675e-06)
(0.00379421 -1.18932e-06 -4.75527e-06)
(0.0038025 -1.43144e-06 -5.59478e-06)
(0.00381193 -1.73145e-06 -6.50604e-06)
(0.00382257 -2.08104e-06 -7.45763e-06)
(0.00383452 -2.47393e-06 -8.4542e-06)
(0.00384785 -2.89883e-06 -9.51872e-06)
(0.00386263 -3.32673e-06 -1.0638e-05)
(0.00387894 -3.72333e-06 -1.17815e-05)
(0.00389686 -4.07318e-06 -1.29581e-05)
(0.00391646 -4.37779e-06 -1.42085e-05)
(0.00393787 -4.64079e-06 -1.55701e-05)
(0.0039612 -4.85956e-06 -1.70448e-05)
(0.00398655 -5.02522e-06 -1.85884e-05)
(0.00401405 -5.1422e-06 -2.01682e-05)
(0.00404384 -5.24774e-06 -2.18201e-05)
(0.00407611 -5.39642e-06 -2.36179e-05)
(0.00411108 -5.62439e-06 -2.56018e-05)
(0.00414902 -5.93431e-06 -2.77631e-05)
(0.00419016 -6.30921e-06 -3.00863e-05)
(0.00423476 -6.7287e-06 -3.25749e-05)
(0.00428307 -7.17125e-06 -3.52356e-05)
(0.00433533 -7.61276e-06 -3.80618e-05)
(0.00439177 -8.03024e-06 -4.10255e-05)
(0.00445264 -8.41624e-06 -4.41084e-05)
(0.00451822 -8.79533e-06 -4.73549e-05)
(0.00458885 -9.21341e-06 -5.08507e-05)
(0.00466491 -9.70891e-06 -5.46618e-05)
(0.00474683 -1.03002e-05 -5.88185e-05)
(0.00483508 -1.09907e-05 -6.33276e-05)
(0.00493018 -1.17789e-05 -6.82044e-05)
(0.00503266 -1.26678e-05 -7.34833e-05)
(0.00376588 -5.49112e-08 -1.16397e-06)
(0.00376823 -3.36116e-07 -1.5903e-06)
(0.00377131 -5.74295e-07 -2.04293e-06)
(0.00377516 -7.714e-07 -2.52104e-06)
(0.00377979 -9.27563e-07 -3.02482e-06)
(0.00378527 -1.04937e-06 -3.57053e-06)
(0.00379163 -1.15768e-06 -4.19712e-06)
(0.00379895 -1.27791e-06 -4.93001e-06)
(0.0038073 -1.42737e-06 -5.76292e-06)
(0.00381676 -1.6153e-06 -6.67294e-06)
(0.0038274 -1.84336e-06 -7.64462e-06)
(0.00383934 -2.10692e-06 -8.69432e-06)
(0.00385264 -2.39361e-06 -9.83715e-06)
(0.00386741 -2.67822e-06 -1.10416e-05)
(0.0038837 -2.93446e-06 -1.22701e-05)
(0.00390161 -3.14971e-06 -1.35254e-05)
(0.00392121 -3.31958e-06 -1.48384e-05)
(0.00394261 -3.44155e-06 -1.62367e-05)
(0.00396591 -3.51549e-06 -1.77061e-05)
(0.00399122 -3.54411e-06 -1.91972e-05)
(0.00401864 -3.54318e-06 -2.07044e-05)
(0.00404831 -3.54867e-06 -2.23053e-05)
(0.00408045 -3.60173e-06 -2.40964e-05)
(0.00411529 -3.72669e-06 -2.61142e-05)
(0.00415308 -3.92392e-06 -2.83347e-05)
(0.00419408 -4.17972e-06 -3.07315e-05)
(0.00423853 -4.47559e-06 -3.32989e-05)
(0.00428667 -4.78984e-06 -3.60326e-05)
(0.00433876 -5.10173e-06 -3.89124e-05)
(0.00439501 -5.3966e-06 -4.18994e-05)
(0.00445568 -5.67208e-06 -4.49852e-05)
(0.00452106 -5.94474e-06 -4.82399e-05)
(0.00459149 -6.24169e-06 -5.17649e-05)
(0.00466737 -6.58521e-06 -5.56251e-05)
(0.00474913 -6.98909e-06 -5.9843e-05)
(0.00483724 -7.46034e-06 -6.4421e-05)
(0.0049322 -7.99984e-06 -6.93771e-05)
(0.00503456 -8.61325e-06 -7.47513e-05)
(0.00376666 -1.62045e-07 -1.23107e-06)
(0.00376905 -4.52802e-07 -1.67623e-06)
(0.00377219 -6.97864e-07 -2.13581e-06)
(0.00377611 -8.95813e-07 -2.63025e-06)
(0.00378082 -1.04518e-06 -3.15929e-06)
(0.00378636 -1.14694e-06 -3.72606e-06)
(0.00379279 -1.21141e-06 -4.35094e-06)
(0.00380016 -1.25474e-06 -5.05086e-06)
(0.00380854 -1.29499e-06 -5.83334e-06)
(0.003818 -1.34819e-06 -6.69933e-06)
(0.00382864 -1.42097e-06 -7.65408e-06)
(0.00384055 -1.511e-06 -8.71598e-06)
(0.00385385 -1.6082e-06 -9.88245e-06)
(0.00386862 -1.69487e-06 -1.11143e-05)
(0.00388492 -1.75708e-06 -1.23772e-05)
(0.00390284 -1.78953e-06 -1.36648e-05)
(0.00392245 -1.78791e-06 -1.49914e-05)
(0.00394387 -1.74956e-06 -1.63693e-05)
(0.00396718 -1.67761e-06 -1.77731e-05)
(0.00399247 -1.58085e-06 -1.91676e-05)
(0.00401984 -1.47651e-06 -2.05836e-05)
(0.00404945 -1.38908e-06 -2.21252e-05)
(0.0040815 -1.34133e-06 -2.38919e-05)
(0.00411625 -1.34476e-06 -2.59088e-05)
(0.00415396 -1.39837e-06 -2.81427e-05)
(0.00419488 -1.49452e-06 -3.05627e-05)
(0.00423925 -1.62177e-06 -3.31534e-05)
(0.00428732 -1.76632e-06 -3.58979e-05)
(0.00433932 -1.918e-06 -3.8766e-05)
(0.00439549 -2.07129e-06 -4.17217e-05)
(0.00445607 -2.22368e-06 -4.47753e-05)
(0.00452135 -2.37755e-06 -4.80106e-05)
(0.0045917 -2.53786e-06 -5.15214e-05)
(0.00466749 -2.71048e-06 -5.53586e-05)
(0.00474917 -2.90352e-06 -5.95407e-05)
(0.00483721 -3.12523e-06 -6.40788e-05)
(0.00493209 -3.37813e-06 -6.89991e-05)
(0.00503438 -3.66674e-06 -7.43401e-05)
(0.00376665 -2.53705e-07 -1.3209e-06)
(0.00376908 -5.25693e-07 -1.79709e-06)
(0.00377227 -7.55557e-07 -2.27622e-06)
(0.00377624 -9.35323e-07 -2.79165e-06)
(0.00378101 -1.06079e-06 -3.33987e-06)
(0.00378662 -1.12952e-06 -3.91591e-06)
(0.0037931 -1.1454e-06 -4.52627e-06)
(0.00380051 -1.11852e-06 -5.18097e-06)
(0.0038089 -1.06461e-06 -5.90062e-06)
(0.00381837 -9.98515e-07 -6.71419e-06)
(0.00382901 -9.26068e-07 -7.64747e-06)
(0.00384093 -8.45736e-07 -8.70932e-06)
(0.00385423 -7.5097e-07 -9.87525e-06)
(0.00386901 -6.34856e-07 -1.1103e-05)
(0.00388533 -4.98375e-07 -1.23633e-05)
(0.00390326 -3.4744e-07 -1.3645e-05)
(0.00392289 -1.84454e-07 -1.49533e-05)
(0.00394431 -1.11886e-08 -1.62884e-05)
(0.00396762 1.6817e-07 -1.76242e-05)
(0.0039929 3.4744e-07 -1.89469e-05)
(0.00402025 5.19003e-07 -2.03106e-05)
(0.00404983 6.75689e-07 -2.18257e-05)
(0.00408184 8.12248e-07 -2.35794e-05)
(0.00411655 9.26772e-07 -2.55848e-05)
(0.00415421 1.01926e-06 -2.78094e-05)
(0.00419509 1.08952e-06 -3.02224e-05)
(0.00423942 1.13841e-06 -3.27995e-05)
(0.00428746 1.16664e-06 -3.55161e-05)
(0.00433942 1.17186e-06 -3.83467e-05)
(0.00439554 1.15329e-06 -4.1276e-05)
(0.00445608 1.1174e-06 -4.43315e-05)
(0.00452134 1.07555e-06 -4.75848e-05)
(0.00459166 1.03994e-06 -5.1098e-05)
(0.00466743 1.01801e-06 -5.4903e-05)
(0.0047491 1.0086e-06 -5.90273e-05)
(0.00483711 1.00606e-06 -6.35053e-05)
(0.00493197 1.00977e-06 -6.83765e-05)
(0.00503425 1.02094e-06 -7.36769e-05)
(0.00376641 -3.25915e-07 -1.37036e-06)
(0.00376886 -5.40237e-07 -1.91495e-06)
(0.0037721 -7.2605e-07 -2.44353e-06)
(0.00377612 -8.6757e-07 -2.98636e-06)
(0.00378094 -9.56101e-07 -3.54546e-06)
(0.0037866 -9.85853e-07 -4.1238e-06)
(0.00379314 -9.5651e-07 -4.72272e-06)
(0.00380059 -8.73112e-07 -5.3443e-06)
(0.00380901 -7.44503e-07 -6.01866e-06)
(0.00381849 -5.77617e-07 -6.80085e-06)
(0.00382915 -3.74202e-07 -7.73019e-06)
(0.00384109 -1.34884e-07 -8.79644e-06)
(0.00385442 1.38198e-07 -9.94911e-06)
(0.00386922 4.38049e-07 -1.11422e-05)
(0.00388555 7.50246e-07 -1.23561e-05)
(0.00390348 1.05909e-06 -1.35918e-05)
(0.0039231 1.35427e-06 -1.48601e-05)
(0.00394452 1.63014e-06 -1.61582e-05)
(0.00396782 1.8842e-06 -1.7463e-05)
(0.00399309 2.11763e-06 -1.87695e-05)
(0.00402042 2.33668e-06 -2.01343e-05)
(0.00404999 2.5505e-06 -2.16567e-05)
(0.004082 2.76695e-06 -2.3408e-05)
(0.0041167 2.98969e-06 -2.5398e-05)
(0.00415435 3.21627e-06 -2.76034e-05)
(0.00419522 3.43902e-06 -2.99957e-05)
(0.00423953 3.64805e-06 -3.25436e-05)
(0.00428753 3.8322e-06 -3.52214e-05)
(0.00433946 3.98036e-06 -3.80219e-05)
(0.00439556 4.0892e-06 -4.09565e-05)
(0.00445608 4.16889e-06 -4.40566e-05)
(0.00452134 4.23826e-06 -4.73629e-05)
(0.00459168 4.31878e-06 -5.09e-05)
(0.00466748 4.42767e-06 -5.46903e-05)
(0.00474916 4.5727e-06 -5.87798e-05)
(0.0048372 4.7569e-06 -6.32273e-05)
(0.00493209 4.98794e-06 -6.80845e-05)
(0.0050344 5.27196e-06 -7.33888e-05)
(0.00376841 -4.87015e-07 -2.01772e-06)
(0.00377168 -5.95758e-07 -2.60676e-06)
(0.00377574 -6.77043e-07 -3.17209e-06)
(0.00378061 -7.15442e-07 -3.73395e-06)
(0.00378632 -7.00102e-07 -4.31383e-06)
(0.0037929 -6.26704e-07 -4.91356e-06)
(0.00380039 -4.94544e-07 -5.52859e-06)
(0.00380885 -3.02125e-07 -6.19354e-06)
(0.00381837 -4.45602e-08 -6.97767e-06)
(0.00382906 2.7999e-07 -7.91957e-06)
(0.00384104 6.6346e-07 -8.98569e-06)
(0.00385441 1.08865e-06 -1.01047e-05)
(0.00386923 1.53419e-06 -1.12294e-05)
(0.00388556 1.97818e-06 -1.23587e-05)
(0.00390348 2.40237e-06 -1.3519e-05)
(0.00392309 2.79408e-06 -1.47372e-05)
(0.00394449 3.14632e-06 -1.6016e-05)
(0.00396777 3.45732e-06 -1.73298e-05)
(0.00399302 3.73453e-06 -1.86633e-05)
(0.00402036 3.99662e-06 -2.00602e-05)
(0.00404994 4.26572e-06 -2.16047e-05)
(0.00408197 4.55867e-06 -2.3356e-05)
(0.0041167 4.88232e-06 -2.53276e-05)
(0.00415438 5.2323e-06 -2.75095e-05)
(0.00419525 5.59538e-06 -2.98791e-05)
(0.00423957 5.95324e-06 -3.24041e-05)
(0.00428756 6.28626e-06 -3.50624e-05)
(0.00433947 6.57778e-06 -3.78619e-05)
(0.00439556 6.8236e-06 -4.0828e-05)
(0.00445609 7.03592e-06 -4.39863e-05)
(0.00452138 7.2348e-06 -4.73523e-05)
(0.00459176 7.44452e-06 -5.09281e-05)
(0.00466762 7.68837e-06 -5.47362e-05)
(0.00474936 7.98438e-06 -5.88355e-05)
(0.00483746 8.34929e-06 -6.32959e-05)
(0.00493243 8.80331e-06 -6.81734e-05)
(0.00503483 9.35915e-06 -7.35072e-05)
(0.00376717 -3.84827e-07 -2.10285e-06)
(0.00377046 -3.90761e-07 -2.73042e-06)
(0.00377455 -3.9686e-07 -3.29971e-06)
(0.00377945 -3.77252e-07 -3.85293e-06)
(0.00378519 -3.1232e-07 -4.42973e-06)
(0.00379179 -1.91635e-07 -5.03628e-06)