/*--------------------------------*- C++ -*----------------------------------*\
| =========                 |                                                 |
| \\      /  F ield         | OpenFOAM: The Open Source CFD Toolbox           |
|  \\    /   O peration     | Version:  2.3.1                                 |
|   \\  /    A nd           | Web:      www.OpenFOAM.org                      |
|    \\/     M anipulation  |                                                 |
\*---------------------------------------------------------------------------*/
FoamFile
{
    version     2.0;
    format      ascii;
    class       volScalarField;
    location    "20";
    object      epsilon_0;
}
// * * * * * * * * * * * * * * * * * * * * * * * * * * * * * * * * * * * * * //

dimensions      [0 2 -3 0 0 0 0];

internalField   nonuniform List<scalar> 
38262
(
5.09181e-07
4.90943e-07
4.75346e-07
4.61893e-07
4.50206e-07
4.39987e-07
4.31e-07
4.23056e-07
4.15999e-07
4.09704e-07
4.0407e-07
3.99013e-07
3.94464e-07
3.90366e-07
3.86671e-07
3.83333e-07
3.80312e-07
3.77575e-07
3.75093e-07
3.72842e-07
3.70803e-07
3.68959e-07
3.67298e-07
3.65808e-07
3.64472e-07
3.63276e-07
3.62203e-07
3.6124e-07
3.60374e-07
3.59597e-07
3.58905e-07
3.58293e-07
3.57762e-07
3.5731e-07
3.56939e-07
3.56644e-07
3.5642e-07
3.56257e-07
8.41893e-07
8.18109e-07
7.97789e-07
7.80265e-07
7.65041e-07
7.51733e-07
7.4003e-07
7.29683e-07
7.20493e-07
7.12296e-07
7.04961e-07
6.98386e-07
6.92487e-07
6.8719e-07
6.82423e-07
6.78118e-07
6.74223e-07
6.70699e-07
6.67513e-07
6.64636e-07
6.62045e-07
6.59725e-07
6.57658e-07
6.55818e-07
6.54176e-07
6.52705e-07
6.51377e-07
6.50174e-07
6.49085e-07
6.48111e-07
6.47258e-07
6.46528e-07
6.45925e-07
6.45449e-07
6.45094e-07
6.44845e-07
6.44678e-07
6.44574e-07
1.00458e-06
9.8145e-07
9.61681e-07
9.44615e-07
9.2977e-07
9.16779e-07
9.05347e-07
8.95237e-07
8.86254e-07
8.78237e-07
8.71064e-07
8.64642e-07
8.58894e-07
8.53744e-07
8.49113e-07
8.44929e-07
8.41142e-07
8.37717e-07
8.34627e-07
8.31842e-07
8.29341e-07
8.2711e-07
8.25126e-07
8.23362e-07
8.21791e-07
8.20389e-07
8.19131e-07
8.17995e-07
8.16973e-07
8.16066e-07
8.15277e-07
8.14605e-07
8.14052e-07
8.13626e-07
8.13319e-07
8.1312e-07
8.13003e-07
8.12942e-07
1.09278e-06
1.07053e-06
1.05149e-06
1.03503e-06
1.0207e-06
1.00815e-06
9.97098e-07
9.87322e-07
9.7863e-07
9.70874e-07
9.63944e-07
9.57757e-07
9.52234e-07
9.47291e-07
9.42843e-07
9.3882e-07
9.35173e-07
9.31873e-07
9.28894e-07
9.26209e-07
9.23804e-07
9.21662e-07
9.19758e-07
9.18064e-07
9.16561e-07
9.15233e-07
9.14057e-07
9.13007e-07
9.1207e-07
9.11239e-07
9.1051e-07
9.09881e-07
9.09358e-07
9.08957e-07
9.08682e-07
9.08521e-07
9.0845e-07
9.0844e-07
1.13684e-06
1.11513e-06
1.09655e-06
1.08048e-06
1.06649e-06
1.05423e-06
1.04343e-06
1.03388e-06
1.02538e-06
1.0178e-06
1.01105e-06
1.00503e-06
9.99671e-07
9.94872e-07
9.9055e-07
9.86636e-07
9.83085e-07
9.79867e-07
9.76954e-07
9.74324e-07
9.71968e-07
9.69872e-07
9.68005e-07
9.6634e-07
9.64869e-07
9.63584e-07
9.62467e-07
9.61489e-07
9.60622e-07
9.59847e-07
9.59151e-07
9.58531e-07
9.58005e-07
9.57599e-07
9.57325e-07
9.57178e-07
9.57135e-07
9.57166e-07
1.13303e-06
1.11464e-06
1.09876e-06
1.08494e-06
1.07285e-06
1.0622e-06
1.05276e-06
1.04436e-06
1.03689e-06
1.03024e-06
1.02433e-06
1.01906e-06
1.01433e-06
1.01007e-06
1.00621e-06
1.00271e-06
9.99525e-07
9.96638e-07
9.94025e-07
9.91684e-07
9.89597e-07
9.87734e-07
9.86069e-07
9.84602e-07
9.83333e-07
9.82246e-07
9.81308e-07
9.8048e-07
9.79729e-07
9.79036e-07
9.78401e-07
9.77851e-07
9.77418e-07
9.77126e-07
9.76976e-07
9.76946e-07
9.77008e-07
1.13289e-06
1.11449e-06
1.09861e-06
1.08483e-06
1.07278e-06
1.06217e-06
1.05276e-06
1.0444e-06
1.03696e-06
1.03035e-06
1.02447e-06
1.01922e-06
1.0145e-06
1.01024e-06
1.00638e-06
1.00287e-06
9.99685e-07
9.96795e-07
9.94178e-07
9.91826e-07
9.89723e-07
9.87841e-07
9.86161e-07
9.84683e-07
9.83407e-07
9.82316e-07
9.81376e-07
9.80545e-07
9.79783e-07
9.79065e-07
9.78398e-07
9.77812e-07
9.77344e-07
9.77025e-07
9.76861e-07
9.76832e-07
9.76908e-07
1.11476e-06
1.09614e-06
1.08009e-06
1.06617e-06
1.05403e-06
1.04335e-06
1.03388e-06
1.02547e-06
1.01799e-06
1.01133e-06
1.00541e-06
1.00011e-06
9.95343e-07
9.91023e-07
9.87097e-07
9.83535e-07
9.80311e-07
9.77392e-07
9.7475e-07
9.72367e-07
9.70227e-07
9.68311e-07
9.66604e-07
9.65102e-07
9.63796e-07
9.62666e-07
9.61683e-07
9.60807e-07
9.59999e-07
9.59236e-07
9.58523e-07
9.57894e-07
9.57386e-07
9.57034e-07
9.56848e-07
9.56806e-07
9.56878e-07
9.5707e-07
1.07002e-06
1.05092e-06
1.03449e-06
1.02026e-06
1.00785e-06
9.96948e-07
9.87294e-07
9.78713e-07
9.71079e-07
9.64286e-07
9.58232e-07
9.52814e-07
9.47928e-07
9.43492e-07
9.39457e-07
9.35796e-07
9.32491e-07
9.2951e-07
9.26814e-07
9.24377e-07
9.22179e-07
9.20208e-07
9.18454e-07
9.16907e-07
9.15548e-07
9.14355e-07
9.13299e-07
9.12346e-07
9.11467e-07
9.10641e-07
9.09873e-07
9.09192e-07
9.08636e-07
9.08243e-07
9.0802e-07
9.0795e-07
9.07996e-07
9.08172e-07
9.80889e-07
9.61064e-07
9.44006e-07
9.29244e-07
9.16385e-07
9.05093e-07
8.95102e-07
8.86225e-07
8.78327e-07
8.71296e-07
8.65025e-07
8.59407e-07
8.5434e-07
8.49742e-07
8.45559e-07
8.41766e-07
8.38343e-07
8.35261e-07
8.32477e-07
8.29957e-07
8.27679e-07
8.2563e-07
8.23803e-07
8.22186e-07
8.20756e-07
8.19486e-07
8.18345e-07
8.17306e-07
8.16346e-07
8.15449e-07
8.1462e-07
8.13882e-07
8.1327e-07
8.12818e-07
8.12535e-07
8.12408e-07
8.12403e-07
8.12519e-07
8.17591e-07
7.97192e-07
7.7964e-07
7.6445e-07
7.51219e-07
7.39603e-07
7.29333e-07
7.20212e-07
7.12101e-07
7.04879e-07
6.98435e-07
6.9266e-07
6.87457e-07
6.82743e-07
6.78462e-07
6.7458e-07
6.71075e-07
6.67917e-07
6.65068e-07
6.62492e-07
6.60162e-07
6.58063e-07
6.56187e-07
6.54524e-07
6.53053e-07
6.51742e-07
6.50558e-07
6.49472e-07
6.48465e-07
6.47525e-07
6.46654e-07
6.45869e-07
6.45201e-07
6.4468e-07
6.44318e-07
6.44107e-07
6.44026e-07
6.44052e-07
4.90646e-07
4.74994e-07
4.61498e-07
4.49791e-07
4.39578e-07
4.30616e-07
4.22704e-07
4.15683e-07
4.09434e-07
4.03857e-07
3.98872e-07
3.94402e-07
3.90383e-07
3.86756e-07
3.83472e-07
3.80494e-07
3.77791e-07
3.75339e-07
3.73114e-07
3.71095e-07
3.69262e-07
3.67599e-07
3.66097e-07
3.64745e-07
3.63536e-07
3.62454e-07
3.61484e-07
3.60609e-07
3.59814e-07
3.59089e-07
3.58425e-07
3.57821e-07
3.57281e-07
3.56818e-07
3.56438e-07
3.56151e-07
3.55957e-07
3.55851e-07
3.93944e-07
3.88544e-07
3.83897e-07
3.79855e-07
3.76311e-07
3.73182e-07
3.70403e-07
3.67921e-07
3.65695e-07
3.63691e-07
3.61883e-07
3.60249e-07
3.58774e-07
3.57442e-07
3.56241e-07
3.55156e-07
3.54173e-07
3.53283e-07
3.52477e-07
3.5175e-07
3.51094e-07
3.50508e-07
3.49989e-07
3.4953e-07
3.49123e-07
3.48761e-07
3.48436e-07
3.48144e-07
3.47883e-07
3.47654e-07
3.47458e-07
3.47295e-07
3.47166e-07
3.47071e-07
3.47006e-07
3.46968e-07
3.46949e-07
3.46945e-07
4.21457e-07
4.16216e-07
4.11907e-07
4.08314e-07
4.05283e-07
4.02703e-07
4.00488e-07
3.9857e-07
3.96898e-07
3.95432e-07
3.9414e-07
3.92997e-07
3.91983e-07
3.91084e-07
3.90283e-07
3.89567e-07
3.88924e-07
3.88346e-07
3.87828e-07
3.87364e-07
3.8695e-07
3.86584e-07
3.86263e-07
3.85982e-07
3.85736e-07
3.85518e-07
3.85322e-07
3.85144e-07
3.84984e-07
3.84842e-07
3.8472e-07
3.8462e-07
3.84545e-07
3.84495e-07
3.8447e-07
3.84466e-07
3.84473e-07
3.84493e-07
4.88517e-07
4.82144e-07
4.76904e-07
4.72538e-07
4.68859e-07
4.6573e-07
4.63047e-07
4.60729e-07
4.58713e-07
4.56948e-07
4.55395e-07
4.54023e-07
4.52809e-07
4.51733e-07
4.50777e-07
4.49922e-07
4.49155e-07
4.48465e-07
4.47845e-07
4.4729e-07
4.46792e-07
4.46349e-07
4.45956e-07
4.45609e-07
4.45302e-07
4.4503e-07
4.44788e-07
4.44572e-07
4.44378e-07
4.44206e-07
4.44056e-07
4.43929e-07
4.43825e-07
4.43747e-07
4.43694e-07
4.43662e-07
4.43652e-07
4.43654e-07
5.25954e-07
5.18985e-07
5.13255e-07
5.08481e-07
5.04458e-07
5.01038e-07
4.98106e-07
4.95575e-07
4.93375e-07
4.91451e-07
4.89758e-07
4.88266e-07
4.86947e-07
4.85781e-07
4.84744e-07
4.83819e-07
4.82987e-07
4.8224e-07
4.81568e-07
4.80965e-07
4.80423e-07
4.7994e-07
4.7951e-07
4.79128e-07
4.78788e-07
4.78486e-07
4.7822e-07
4.77985e-07
4.77776e-07
4.77592e-07
4.7743e-07
4.77291e-07
4.77173e-07
4.77079e-07
4.7701e-07
4.76965e-07
4.76942e-07
4.76938e-07
5.43768e-07
5.36547e-07
5.3061e-07
5.25662e-07
5.21495e-07
5.17954e-07
5.1492e-07
5.12301e-07
5.10025e-07
5.08033e-07
5.06283e-07
5.04742e-07
5.03383e-07
5.02182e-07
5.01114e-07
5.00161e-07
4.99306e-07
4.98537e-07
4.97846e-07
4.97223e-07
4.96664e-07
4.96165e-07
4.9572e-07
4.95322e-07
4.94967e-07
4.94652e-07
4.94376e-07
4.94134e-07
4.93922e-07
4.93735e-07
4.93572e-07
4.93428e-07
4.93304e-07
4.93201e-07
4.93124e-07
4.9307e-07
4.93041e-07
4.93035e-07
5.433e-07
5.37287e-07
5.32278e-07
5.28061e-07
5.24481e-07
5.21416e-07
5.18769e-07
5.16467e-07
5.14454e-07
5.12686e-07
5.11133e-07
5.09764e-07
5.08554e-07
5.07477e-07
5.06515e-07
5.05653e-07
5.04879e-07
5.04182e-07
5.03554e-07
5.0299e-07
5.02485e-07
5.02035e-07
5.01631e-07
5.01269e-07
5.00949e-07
5.00669e-07
5.00426e-07
5.00215e-07
5.0003e-07
4.99867e-07
4.99721e-07
4.99592e-07
4.99484e-07
4.994e-07
4.99342e-07
4.99309e-07
4.99301e-07
5.43295e-07
5.37275e-07
5.3226e-07
5.28042e-07
5.24464e-07
5.21402e-07
5.18758e-07
5.16458e-07
5.14446e-07
5.12682e-07
5.11133e-07
5.09768e-07
5.0856e-07
5.07485e-07
5.06523e-07
5.05661e-07
5.04887e-07
5.04191e-07
5.03564e-07
5.03001e-07
5.02496e-07
5.02044e-07
5.0164e-07
5.01277e-07
5.00956e-07
5.00676e-07
5.00433e-07
5.00223e-07
5.00039e-07
4.99875e-07
4.99726e-07
4.99593e-07
4.99481e-07
4.99393e-07
4.99332e-07
4.99296e-07
4.99287e-07
5.3653e-07
5.30573e-07
5.25612e-07
5.21441e-07
5.17905e-07
5.1488e-07
5.12269e-07
5.09996e-07
5.08009e-07
5.06268e-07
5.04738e-07
5.03391e-07
5.02197e-07
5.01134e-07
5.00181e-07
4.99325e-07
4.98557e-07
4.97868e-07
4.97249e-07
4.96693e-07
4.96194e-07
4.95746e-07
4.95345e-07
4.94988e-07
4.94673e-07
4.94397e-07
4.94156e-07
4.93947e-07
4.93762e-07
4.93596e-07
4.93445e-07
4.93309e-07
4.93193e-07
4.93103e-07
4.93039e-07
4.93002e-07
4.92993e-07
4.93003e-07
5.18952e-07
5.13197e-07
5.08404e-07
5.04376e-07
5.00962e-07
4.98043e-07
4.95522e-07
4.93328e-07
4.91409e-07
4.89727e-07
4.8825e-07
4.86948e-07
4.85795e-07
4.84765e-07
4.8384e-07
4.83008e-07
4.82262e-07
4.81595e-07
4.80997e-07
4.80461e-07
4.79979e-07
4.79546e-07
4.79161e-07
4.78819e-07
4.78519e-07
4.78255e-07
4.78024e-07
4.77819e-07
4.77637e-07
4.77471e-07
4.77319e-07
4.77183e-07
4.77065e-07
4.76975e-07
4.76913e-07
4.76878e-07
4.76871e-07
4.76884e-07
4.82093e-07
4.76826e-07
4.72442e-07
4.68758e-07
4.65637e-07
4.62967e-07
4.6066e-07
4.5865e-07
4.56892e-07
4.55351e-07
4.53997e-07
4.52803e-07
4.51742e-07
4.50793e-07
4.4994e-07
4.49172e-07
4.48484e-07
4.4787e-07
4.47321e-07
4.4683e-07
4.4639e-07
4.45996e-07
4.45647e-07
4.4534e-07
4.45072e-07
4.44836e-07
4.44628e-07
4.44441e-07
4.44271e-07
4.44113e-07
4.43967e-07
4.43835e-07
4.43723e-07
4.43639e-07
4.43586e-07
4.43562e-07
4.43562e-07
4.43583e-07
4.16139e-07
4.11804e-07
4.08198e-07
4.05169e-07
4.02604e-07
4.00405e-07
3.985e-07
3.96837e-07
3.95381e-07
3.94106e-07
3.92985e-07
3.91994e-07
3.91111e-07
3.90317e-07
3.896e-07
3.88955e-07
3.88378e-07
3.87865e-07
3.87408e-07
3.87001e-07
3.86636e-07
3.86312e-07
3.86027e-07
3.85781e-07
3.85569e-07
3.85384e-07
3.85219e-07
3.85067e-07
3.84923e-07
3.84786e-07
3.84658e-07
3.84542e-07
3.84447e-07
3.84382e-07
3.84352e-07
3.84352e-07
3.84373e-07
3.84419e-07
3.88341e-07
3.83679e-07
3.79641e-07
3.76122e-07
3.73034e-07
3.703e-07
3.67861e-07
3.65677e-07
3.6372e-07
3.61967e-07
3.60392e-07
3.58972e-07
3.57685e-07
3.56512e-07
3.55442e-07
3.54465e-07
3.53577e-07
3.52771e-07
3.52039e-07
3.51373e-07
3.50766e-07
3.50217e-07
3.49726e-07
3.4929e-07
3.48904e-07
3.48559e-07
3.48246e-07
3.47958e-07
3.47693e-07
3.47449e-07
3.47229e-07
3.47038e-07
3.46886e-07
3.46782e-07
3.46732e-07
3.46725e-07
3.46749e-07
3.46818e-07
5.01403e-07
4.95509e-07
4.90406e-07
4.85945e-07
4.82018e-07
4.78539e-07
4.75443e-07
4.72673e-07
4.70187e-07
4.67947e-07
4.65926e-07
4.64099e-07
4.6245e-07
4.60961e-07
4.59617e-07
4.58402e-07
4.57301e-07
4.56302e-07
4.55399e-07
4.54583e-07
4.53848e-07
4.53191e-07
4.52608e-07
4.52094e-07
4.51638e-07
4.51231e-07
4.50865e-07
4.50535e-07
4.5024e-07
4.4998e-07
4.49757e-07
4.49571e-07
4.49424e-07
4.49316e-07
4.49244e-07
4.49204e-07
4.49185e-07
4.49184e-07
3.88151e-07
3.85784e-07
3.83914e-07
3.82408e-07
3.81177e-07
3.80157e-07
3.79303e-07
3.78578e-07
3.77958e-07
3.77423e-07
3.76957e-07
3.7655e-07
3.76193e-07
3.75882e-07
3.75608e-07
3.75367e-07
3.75152e-07
3.74962e-07
3.74794e-07
3.74645e-07
3.74514e-07
3.74401e-07
3.74304e-07
3.74222e-07
3.74152e-07
3.74091e-07
3.74038e-07
3.7399e-07
3.73947e-07
3.73911e-07
3.73882e-07
3.73862e-07
3.73851e-07
3.7385e-07
3.73857e-07
3.73873e-07
3.73893e-07
3.73916e-07
4.13204e-07
4.09931e-07
4.07353e-07
4.05289e-07
4.03613e-07
4.02235e-07
4.01089e-07
4.00127e-07
3.99312e-07
3.98616e-07
3.98016e-07
3.97496e-07
3.97045e-07
3.96651e-07
3.96307e-07
3.96004e-07
3.95736e-07
3.95497e-07
3.95286e-07
3.95098e-07
3.94932e-07
3.94785e-07
3.94657e-07
3.94545e-07
3.94447e-07
3.94362e-07
3.94286e-07
3.94218e-07
3.94158e-07
3.94106e-07
3.94061e-07
3.94024e-07
3.93996e-07
3.93976e-07
3.93966e-07
3.93963e-07
3.93967e-07
3.93975e-07
4.31507e-07
4.27531e-07
4.24388e-07
4.21864e-07
4.19809e-07
4.18116e-07
4.16707e-07
4.15523e-07
4.14518e-07
4.13658e-07
4.12918e-07
4.12276e-07
4.11718e-07
4.11232e-07
4.10806e-07
4.1043e-07
4.10097e-07
4.09801e-07
4.09536e-07
4.09301e-07
4.09091e-07
4.08904e-07
4.08739e-07
4.08592e-07
4.08462e-07
4.08347e-07
4.08246e-07
4.08156e-07
4.08077e-07
4.08007e-07
4.07947e-07
4.07895e-07
4.0785e-07
4.07815e-07
4.07788e-07
4.0777e-07
4.0776e-07
4.07758e-07
4.40384e-07
4.36051e-07
4.3262e-07
4.29861e-07
4.27612e-07
4.25758e-07
4.24213e-07
4.22913e-07
4.2181e-07
4.20865e-07
4.20051e-07
4.19345e-07
4.18732e-07
4.18198e-07
4.17729e-07
4.17316e-07
4.16949e-07
4.16623e-07
4.16332e-07
4.16072e-07
4.1584e-07
4.15633e-07
4.15448e-07
4.15284e-07
4.15137e-07
4.15006e-07
4.1489e-07
4.14789e-07
4.14701e-07
4.14623e-07
4.14555e-07
4.14496e-07
4.14444e-07
4.144e-07
4.14365e-07
4.14338e-07
4.14321e-07
4.14312e-07
4.39276e-07
4.35728e-07
4.32873e-07
4.30546e-07
4.28627e-07
4.27029e-07
4.25683e-07
4.2454e-07
4.2356e-07
4.22716e-07
4.21986e-07
4.21352e-07
4.20799e-07
4.20313e-07
4.19885e-07
4.19506e-07
4.19168e-07
4.18868e-07
4.18598e-07
4.18357e-07
4.18142e-07
4.1795e-07
4.17779e-07
4.17624e-07
4.17487e-07
4.17366e-07
4.1726e-07
4.17168e-07
4.17088e-07
4.17018e-07
4.16956e-07
4.16901e-07
4.16853e-07
4.16814e-07
4.16783e-07
4.16762e-07
4.1675e-07
4.39278e-07
4.35726e-07
4.32869e-07
4.3054e-07
4.28621e-07
4.27023e-07
4.25677e-07
4.24534e-07
4.23554e-07
4.22711e-07
4.21982e-07
4.21349e-07
4.20797e-07
4.20312e-07
4.19884e-07
4.19504e-07
4.19167e-07
4.18867e-07
4.18598e-07
4.18358e-07
4.18143e-07
4.17952e-07
4.1778e-07
4.17625e-07
4.17488e-07
4.17367e-07
4.17262e-07
4.1717e-07
4.17091e-07
4.17022e-07
4.16959e-07
4.16903e-07
4.16854e-07
4.16813e-07
4.16781e-07
4.16759e-07
4.16746e-07
4.36053e-07
4.32614e-07
4.29847e-07
4.27594e-07
4.2574e-07
4.24196e-07
4.22897e-07
4.21793e-07
4.20849e-07
4.20035e-07
4.19333e-07
4.18724e-07
4.18192e-07
4.17725e-07
4.17312e-07
4.16945e-07
4.1662e-07
4.16331e-07
4.16073e-07
4.15842e-07
4.15636e-07
4.15452e-07
4.15287e-07
4.1514e-07
4.15009e-07
4.14895e-07
4.14795e-07
4.14708e-07
4.14632e-07
4.14565e-07
4.14504e-07
4.14449e-07
4.14401e-07
4.14362e-07
4.14332e-07
4.14311e-07
4.143e-07
4.14298e-07
4.27528e-07
4.24374e-07
4.21841e-07
4.19782e-07
4.1809e-07
4.16683e-07
4.155e-07
4.14496e-07
4.13637e-07
4.12898e-07
4.12261e-07
4.11708e-07
4.11226e-07
4.10802e-07
4.10427e-07
4.10094e-07
4.09798e-07
4.09535e-07
4.09303e-07
4.09095e-07
4.0891e-07
4.08745e-07
4.08598e-07
4.08468e-07
4.08354e-07
4.08254e-07
4.08167e-07
4.08091e-07
4.08023e-07
4.07962e-07
4.07907e-07
4.07857e-07
4.07814e-07
4.0778e-07
4.07755e-07
4.0774e-07
4.07736e-07
4.0774e-07
4.09915e-07
4.07326e-07
4.05255e-07
4.03578e-07
4.02204e-07
4.01065e-07
4.00107e-07
3.99295e-07
3.98601e-07
3.98006e-07
3.97493e-07
3.97049e-07
3.96661e-07
3.96319e-07
3.96015e-07
3.95745e-07
3.95506e-07
3.95296e-07
3.9511e-07
3.94946e-07
3.948e-07
3.94671e-07
3.94557e-07
3.94459e-07
3.94375e-07
3.94302e-07
3.94238e-07
3.9418e-07
3.94128e-07
3.9408e-07
3.94035e-07
3.93995e-07
3.93962e-07
3.9394e-07
3.93929e-07
3.9393e-07
3.93939e-07
3.93956e-07
3.85742e-07
3.83864e-07
3.82357e-07
3.81134e-07
3.80128e-07
3.79289e-07
3.78577e-07
3.77966e-07
3.77441e-07
3.76988e-07
3.76596e-07
3.76254e-07
3.75952e-07
3.75681e-07
3.75438e-07
3.75221e-07
3.75028e-07
3.74858e-07
3.74708e-07
3.74575e-07
3.74456e-07
3.74351e-07
3.74261e-07
3.74185e-07
3.74121e-07
3.74066e-07
3.74018e-07
3.73974e-07
3.73931e-07
3.73891e-07
3.73854e-07
3.73822e-07
3.738e-07
3.73793e-07
3.73801e-07
3.73822e-07
3.73855e-07
3.73898e-07
4.95296e-07
4.90174e-07
4.85716e-07
4.81815e-07
4.78381e-07
4.75332e-07
4.72607e-07
4.70163e-07
4.6797e-07
4.66003e-07
4.64236e-07
4.62641e-07
4.61194e-07
4.59876e-07
4.58673e-07
4.57576e-07
4.5658e-07
4.55678e-07
4.54859e-07
4.54115e-07
4.5344e-07
4.5283e-07
4.52287e-07
4.51806e-07
4.51382e-07
4.51002e-07
4.50658e-07
4.5034e-07
4.50046e-07
4.49774e-07
4.49525e-07
4.49307e-07
4.49132e-07
4.49009e-07
4.48948e-07
4.48938e-07
4.48962e-07
4.49036e-07
5.79448e-07
5.72799e-07
5.67047e-07
5.62024e-07
5.57605e-07
5.53695e-07
5.50218e-07
5.47112e-07
5.44326e-07
5.4182e-07
5.39561e-07
5.37523e-07
5.35684e-07
5.34026e-07
5.32531e-07
5.3118e-07
5.29955e-07
5.28844e-07
5.2784e-07
5.26933e-07
5.26116e-07
5.25385e-07
5.24737e-07
5.24164e-07
5.23657e-07
5.23202e-07
5.22793e-07
5.22424e-07
5.22094e-07
5.21803e-07
5.21552e-07
5.21342e-07
5.21174e-07
5.2105e-07
5.20965e-07
5.20916e-07
5.20893e-07
5.20887e-07
3.96472e-07
3.94428e-07
3.92853e-07
3.91616e-07
3.90628e-07
3.89827e-07
3.89169e-07
3.88622e-07
3.88161e-07
3.87769e-07
3.87432e-07
3.87142e-07
3.86891e-07
3.86675e-07
3.86487e-07
3.86323e-07
3.86179e-07
3.86053e-07
3.85942e-07
3.85845e-07
3.85761e-07
3.85688e-07
3.85626e-07
3.85573e-07
3.8553e-07
3.85493e-07
3.85462e-07
3.85435e-07
3.85412e-07
3.85393e-07
3.8538e-07
3.85371e-07
3.85368e-07
3.85371e-07
3.85379e-07
3.85392e-07
3.85409e-07
3.85429e-07
3.97015e-07
3.94173e-07
3.91996e-07
3.90302e-07
3.88963e-07
3.87893e-07
3.87026e-07
3.86317e-07
3.85731e-07
3.85241e-07
3.84828e-07
3.84479e-07
3.8418e-07
3.83925e-07
3.83706e-07
3.83516e-07
3.8335e-07
3.83205e-07
3.83078e-07
3.82966e-07
3.82868e-07
3.82782e-07
3.82707e-07
3.82642e-07
3.82585e-07
3.82535e-07
3.82492e-07
3.82453e-07
3.82419e-07
3.82389e-07
3.82364e-07
3.82343e-07
3.82327e-07
3.82314e-07
3.82306e-07
3.82303e-07
3.82303e-07
3.82305e-07
4.03513e-07
3.99981e-07
3.97259e-07
3.95126e-07
3.93433e-07
3.92071e-07
3.90963e-07
3.90052e-07
3.89295e-07
3.88662e-07
3.88126e-07
3.8767e-07
3.8728e-07
3.86944e-07
3.86654e-07
3.86402e-07
3.86182e-07
3.85987e-07
3.85816e-07
3.85664e-07
3.8553e-07
3.8541e-07
3.85304e-07
3.8521e-07
3.85126e-07
3.85052e-07
3.84986e-07
3.84928e-07
3.84876e-07
3.8483e-07
3.84789e-07
3.84754e-07
3.84723e-07
3.84696e-07
3.84674e-07
3.84656e-07
3.84643e-07
3.84634e-07
4.0692e-07
4.03005e-07
3.99975e-07
3.97595e-07
3.95698e-07
3.94169e-07
3.92921e-07
3.91893e-07
3.91036e-07
3.90317e-07
3.89707e-07
3.89188e-07
3.88742e-07
3.88358e-07
3.88026e-07
3.87736e-07
3.87482e-07
3.87259e-07
3.87061e-07
3.86885e-07
3.86729e-07
3.86589e-07
3.86465e-07
3.86354e-07
3.86254e-07
3.86164e-07
3.86085e-07
3.86014e-07
3.85952e-07
3.85897e-07
3.85848e-07
3.85805e-07
3.85766e-07
3.85732e-07
3.85702e-07
3.85676e-07
3.85655e-07
3.85638e-07
4.04081e-07
4.0092e-07
3.98433e-07
3.96449e-07
3.94847e-07
3.93539e-07
3.9246e-07
3.9156e-07
3.90803e-07
3.90161e-07
3.89613e-07
3.89144e-07
3.88739e-07
3.88388e-07
3.88082e-07
3.87814e-07
3.87578e-07
3.87369e-07
3.87184e-07
3.87018e-07
3.8687e-07
3.86738e-07
3.8662e-07
3.86513e-07
3.86417e-07
3.86332e-07
3.86256e-07
3.86189e-07
3.86131e-07
3.86079e-07
3.86033e-07
3.85991e-07
3.85954e-07
3.8592e-07
3.85891e-07
3.85866e-07
3.85846e-07
4.04083e-07
4.0092e-07
3.98431e-07
3.96446e-07
3.94844e-07
3.93536e-07
3.92455e-07
3.91555e-07
3.90797e-07
3.90155e-07
3.89608e-07
3.89138e-07
3.88734e-07
3.88383e-07
3.88078e-07
3.8781e-07
3.87574e-07
3.87366e-07
3.87181e-07
3.87016e-07
3.86869e-07
3.86737e-07
3.86619e-07
3.86512e-07
3.86417e-07
3.86331e-07
3.86256e-07
3.8619e-07
3.86132e-07
3.86081e-07
3.86035e-07
3.85994e-07
3.85956e-07
3.85922e-07
3.85892e-07
3.85866e-07
3.85845e-07
4.03009e-07
3.99975e-07
3.97591e-07
3.95691e-07
3.9416e-07
3.92911e-07
3.91881e-07
3.91023e-07
3.90302e-07
3.89692e-07
3.89173e-07
3.88728e-07
3.88345e-07
3.88014e-07
3.87725e-07
3.87471e-07
3.87248e-07
3.87052e-07
3.86878e-07
3.86723e-07
3.86585e-07
3.86462e-07
3.86351e-07
3.86252e-07
3.86163e-07
3.86084e-07
3.86015e-07
3.85954e-07
3.85901e-07
3.85854e-07
3.85811e-07
3.85773e-07
3.85738e-07
3.85707e-07
3.85679e-07
3.85655e-07
3.85636e-07
3.85622e-07
3.99984e-07
3.97255e-07
3.95118e-07
3.93422e-07
3.92058e-07
3.9095e-07
3.90038e-07
3.8928e-07
3.88645e-07
3.88109e-07
3.87654e-07
3.87266e-07
3.86932e-07
3.86643e-07
3.86391e-07
3.86171e-07
3.85977e-07
3.85807e-07
3.85658e-07
3.85525e-07
3.85407e-07
3.85302e-07
3.85209e-07
3.85125e-07
3.85052e-07
3.84987e-07
3.8493e-07
3.8488e-07
3.84837e-07
3.84798e-07
3.84763e-07
3.84731e-07
3.84702e-07
3.84677e-07
3.84657e-07
3.8464e-07
3.84628e-07
3.8462e-07
3.94165e-07
3.91983e-07
3.90286e-07
3.88948e-07
3.8788e-07
3.87017e-07
3.8631e-07
3.85724e-07
3.85236e-07
3.84826e-07
3.8448e-07
3.84186e-07
3.83933e-07
3.83715e-07
3.83524e-07
3.83357e-07
3.83212e-07
3.83085e-07
3.82974e-07
3.82877e-07
3.82791e-07
3.82715e-07
3.82649e-07
3.82591e-07
3.82541e-07
3.82498e-07
3.8246e-07
3.82427e-07
3.82398e-07
3.82372e-07
3.82348e-07
3.82327e-07
3.8231e-07
3.82297e-07
3.8229e-07
3.82288e-07
3.8229e-07
3.82297e-07
3.94394e-07
3.92816e-07
3.9158e-07
3.906e-07
3.89812e-07
3.89167e-07
3.88631e-07
3.8818e-07
3.87798e-07
3.87473e-07
3.87196e-07
3.86956e-07
3.86747e-07
3.86562e-07
3.86399e-07
3.86253e-07
3.86125e-07
3.86012e-07
3.85912e-07
3.85823e-07
3.85744e-07
3.85674e-07
3.85613e-07
3.8556e-07
3.85516e-07
3.8548e-07
3.85448e-07
3.85421e-07
3.85396e-07
3.85374e-07
3.85355e-07
3.85341e-07
3.85333e-07
3.85334e-07
3.85343e-07
3.85363e-07
3.8539e-07
3.85426e-07
5.72575e-07
5.668e-07
5.61778e-07
5.57389e-07
5.53528e-07
5.50102e-07
5.47043e-07
5.443e-07
5.41842e-07
5.3964e-07
5.37661e-07
5.35877e-07
5.34259e-07
5.32785e-07
5.31443e-07
5.30222e-07
5.29115e-07
5.28112e-07
5.27204e-07
5.26379e-07
5.25631e-07
5.24958e-07
5.24359e-07
5.23831e-07
5.23364e-07
5.22946e-07
5.22565e-07
5.22213e-07
5.21885e-07
5.2158e-07
5.21299e-07
5.21053e-07
5.20853e-07
5.20709e-07
5.20635e-07
5.2062e-07
5.20641e-07
5.20717e-07
6.36584e-07
6.29179e-07
6.22781e-07
6.17197e-07
6.12286e-07
6.07943e-07
6.04083e-07
6.00636e-07
5.97548e-07
5.94771e-07
5.92272e-07
5.90018e-07
5.87994e-07
5.86179e-07
5.84544e-07
5.83069e-07
5.81732e-07
5.80521e-07
5.79427e-07
5.78438e-07
5.77548e-07
5.76752e-07
5.76045e-07
5.7542e-07
5.74865e-07
5.74368e-07
5.73919e-07
5.73515e-07
5.73154e-07
5.72835e-07
5.72558e-07
5.72325e-07
5.72138e-07
5.71995e-07
5.71895e-07
5.71834e-07
5.718e-07
5.71785e-07
4.09748e-07
4.07468e-07
4.0571e-07
4.04328e-07
4.03223e-07
4.02326e-07
4.01589e-07
4.00975e-07
4.00458e-07
4.00018e-07
3.99641e-07
3.99316e-07
3.99037e-07
3.98796e-07
3.98588e-07
3.98406e-07
3.98246e-07
3.98106e-07
3.97983e-07
3.97875e-07
3.97779e-07
3.97695e-07
3.97622e-07
3.97558e-07
3.97503e-07
3.97457e-07
3.97418e-07
3.97384e-07
3.97356e-07
3.97332e-07
3.97313e-07
3.97299e-07
3.97289e-07
3.97285e-07
3.97285e-07
3.9729e-07
3.973e-07
3.97314e-07
3.93177e-07
3.90267e-07
3.88063e-07
3.86368e-07
3.85045e-07
3.83999e-07
3.83163e-07
3.82486e-07
3.81933e-07
3.81477e-07
3.81098e-07
3.8078e-07
3.80511e-07
3.80284e-07
3.80089e-07
3.79923e-07
3.79779e-07
3.79654e-07
3.79546e-07
3.79451e-07
3.79368e-07
3.79295e-07
3.79231e-07
3.79174e-07
3.79125e-07
3.79082e-07
3.79044e-07
3.79011e-07
3.78982e-07
3.78956e-07
3.78934e-07
3.78915e-07
3.78899e-07
3.78886e-07
3.78876e-07
3.78869e-07
3.78865e-07
3.78863e-07
3.91336e-07
3.87779e-07
3.85071e-07
3.82977e-07
3.81335e-07
3.80031e-07
3.78985e-07
3.78135e-07
3.77439e-07
3.76862e-07
3.76381e-07
3.75977e-07
3.75634e-07
3.75342e-07
3.75092e-07
3.74876e-07
3.74689e-07
3.74526e-07
3.74383e-07
3.74257e-07
3.74146e-07
3.74047e-07
3.73959e-07
3.73881e-07
3.73811e-07
3.73749e-07
3.73693e-07
3.73644e-07
3.736e-07
3.73561e-07
3.73526e-07
3.73494e-07
3.73466e-07
3.73441e-07
3.73419e-07
3.734e-07
3.73383e-07
3.7337e-07
3.9075e-07
3.86809e-07
3.83797e-07
3.8146e-07
3.79622e-07
3.78157e-07
3.76976e-07
3.76015e-07
3.75223e-07
3.74567e-07
3.74017e-07
3.73553e-07
3.73159e-07
3.72822e-07
3.72533e-07
3.72283e-07
3.72066e-07
3.71876e-07
3.71709e-07
3.71562e-07
3.71431e-07
3.71314e-07
3.7121e-07
3.71117e-07
3.71033e-07
3.70957e-07
3.7089e-07
3.70829e-07
3.70775e-07
3.70727e-07
3.70684e-07
3.70646e-07
3.70611e-07
3.70579e-07
3.70549e-07
3.70523e-07
3.70499e-07
3.70478e-07
3.86285e-07
3.83138e-07
3.80692e-07
3.78764e-07
3.77225e-07
3.75984e-07
3.7497e-07
3.74135e-07
3.73441e-07
3.72859e-07
3.72368e-07
3.7195e-07
3.71592e-07
3.71285e-07
3.71019e-07
3.70788e-07
3.70586e-07
3.70408e-07
3.70251e-07
3.70112e-07
3.69987e-07
3.69876e-07
3.69776e-07
3.69686e-07
3.69604e-07
3.69531e-07
3.69466e-07
3.69407e-07
3.69356e-07
3.6931e-07
3.69268e-07
3.69231e-07
3.69196e-07
3.69163e-07
3.69133e-07
3.69106e-07
3.69081e-07
3.86287e-07
3.83139e-07
3.80692e-07
3.78763e-07
3.77224e-07
3.75981e-07
3.74967e-07
3.74131e-07
3.73436e-07
3.72854e-07
3.72362e-07
3.71944e-07
3.71587e-07
3.71279e-07
3.71014e-07
3.70783e-07
3.70581e-07
3.70404e-07
3.70247e-07
3.70108e-07
3.69984e-07
3.69874e-07
3.69774e-07
3.69684e-07
3.69603e-07
3.6953e-07
3.69465e-07
3.69407e-07
3.69356e-07
3.69311e-07
3.69271e-07
3.69234e-07
3.69199e-07
3.69166e-07
3.69136e-07
3.69108e-07
3.69082e-07
3.86813e-07
3.83799e-07
3.8146e-07
3.79619e-07
3.78152e-07
3.76969e-07
3.76006e-07
3.75212e-07
3.74554e-07
3.74002e-07
3.73538e-07
3.73143e-07
3.72807e-07
3.72518e-07
3.72269e-07
3.72052e-07
3.71863e-07
3.71697e-07
3.71551e-07
3.71422e-07
3.71307e-07
3.71204e-07
3.71112e-07
3.71029e-07
3.70954e-07
3.70888e-07
3.70828e-07
3.70776e-07
3.7073e-07
3.70689e-07
3.70653e-07
3.70619e-07
3.70588e-07
3.70558e-07
3.7053e-07
3.70504e-07
3.70481e-07
3.70461e-07
3.87781e-07
3.8507e-07
3.82974e-07
3.8133e-07
3.80025e-07
3.78977e-07
3.78125e-07
3.77426e-07
3.76848e-07
3.76365e-07
3.7596e-07
3.75618e-07
3.75326e-07
3.75076e-07
3.74861e-07
3.74675e-07
3.74512e-07
3.74371e-07
3.74246e-07
3.74137e-07
3.7404e-07
3.73953e-07
3.73876e-07
3.73807e-07
3.73746e-07
3.73692e-07
3.73644e-07
3.73602e-07
3.73565e-07
3.73532e-07
3.73504e-07
3.73477e-07
3.73453e-07
3.7343e-07
3.73408e-07
3.73389e-07
3.73372e-07
3.73358e-07
3.90262e-07
3.88055e-07
3.86359e-07
3.85037e-07
3.83993e-07
3.83158e-07
3.82482e-07
3.81929e-07
3.81474e-07
3.81096e-07
3.80779e-07
3.80513e-07
3.80286e-07
3.80093e-07
3.79926e-07
3.79782e-07
3.79657e-07
3.79549e-07
3.79454e-07
3.79371e-07
3.79299e-07
3.79234e-07
3.79177e-07
3.79127e-07
3.79084e-07
3.79046e-07
3.79013e-07
3.78985e-07
3.78961e-07
3.7894e-07
3.78922e-07
3.78906e-07
3.78891e-07
3.78879e-07
3.7887e-07
3.78863e-07
3.78859e-07
3.78858e-07
4.07432e-07
4.05671e-07
4.04292e-07
4.03197e-07
4.02313e-07
4.01589e-07
4.00985e-07
4.00477e-07
4.00047e-07
3.99681e-07
3.99367e-07
3.99096e-07
3.98858e-07
3.98649e-07
3.98468e-07
3.98307e-07
3.98165e-07
3.98039e-07
3.97928e-07
3.97829e-07
3.97741e-07
3.97661e-07
3.9759e-07
3.97528e-07
3.97475e-07
3.97431e-07
3.97393e-07
3.9736e-07
3.97334e-07
3.97311e-07
3.97293e-07
3.97278e-07
3.97267e-07
3.97262e-07
3.97264e-07
3.97273e-07
3.97289e-07
3.97313e-07
6.28917e-07
6.22491e-07
6.16915e-07
6.12051e-07
6.07773e-07
6.03978e-07
6.00586e-07
5.97548e-07
5.94828e-07
5.92394e-07
5.90209e-07
5.88236e-07
5.86445e-07
5.84817e-07
5.83345e-07
5.8201e-07
5.80801e-07
5.79707e-07
5.78716e-07
5.77818e-07
5.77004e-07
5.76273e-07
5.75623e-07
5.7505e-07
5.74543e-07
5.74088e-07
5.7367e-07
5.73283e-07
5.72921e-07
5.72583e-07
5.72271e-07
5.71997e-07
5.71773e-07
5.7161e-07
5.71521e-07
5.71499e-07
5.71517e-07
5.71588e-07
6.79018e-07
6.7084e-07
6.63792e-07
6.57657e-07
6.5227e-07
6.47514e-07
6.43293e-07
6.39529e-07
6.3616e-07
6.33137e-07
6.30419e-07
6.27974e-07
6.25773e-07
6.23797e-07
6.2202e-07
6.20417e-07
6.18967e-07
6.17659e-07
6.16482e-07
6.15421e-07
6.14466e-07
6.1361e-07
6.1285e-07
6.12178e-07
6.1158e-07
6.11043e-07
6.10559e-07
6.10124e-07
6.09736e-07
6.09393e-07
6.09094e-07
6.08839e-07
6.08632e-07
6.08471e-07
6.08354e-07
6.0828e-07
6.08235e-07
6.08206e-07
4.20968e-07
4.18351e-07
4.16327e-07
4.14731e-07
4.13451e-07
4.12409e-07
4.1155e-07
4.10833e-07
4.10228e-07
4.09713e-07
4.09271e-07
4.08889e-07
4.08559e-07
4.08272e-07
4.08023e-07
4.07804e-07
4.07613e-07
4.07445e-07
4.07299e-07
4.0717e-07
4.07056e-07
4.06954e-07
4.06864e-07
4.06784e-07
4.06715e-07
4.06656e-07
4.06604e-07
4.0656e-07
4.06522e-07
4.0649e-07
4.06464e-07
4.06442e-07
4.06425e-07
4.06413e-07
4.06406e-07
4.06406e-07
4.06412e-07
4.06421e-07
3.92407e-07
3.89325e-07
3.87e-07
3.8522e-07
3.83836e-07
3.82746e-07
3.81879e-07
3.81181e-07
3.80612e-07
3.80146e-07
3.79759e-07
3.79436e-07
3.79165e-07
3.78936e-07
3.78741e-07
3.78574e-07
3.7843e-07
3.78306e-07
3.78199e-07
3.78105e-07
3.78023e-07
3.7795e-07
3.77885e-07
3.77828e-07
3.77778e-07
3.77734e-07
3.77696e-07
3.77662e-07
3.77632e-07
3.77606e-07
3.77583e-07
3.77563e-07
3.77546e-07
3.77531e-07
3.77519e-07
3.77509e-07
3.77502e-07
3.77498e-07
3.84431e-07
3.80761e-07
3.77985e-07
3.75853e-07
3.74193e-07
3.72884e-07
3.7184e-07
3.70999e-07
3.70314e-07
3.69751e-07
3.69285e-07
3.68896e-07
3.68568e-07
3.68291e-07
3.68054e-07
3.67852e-07
3.67677e-07
3.67525e-07
3.67393e-07
3.67277e-07
3.67175e-07
3.67084e-07
3.67003e-07
3.66931e-07
3.66866e-07
3.66809e-07
3.66757e-07
3.66711e-07
3.6667e-07
3.66634e-07
3.66601e-07
3.66571e-07
3.66544e-07
3.6652e-07
3.66497e-07
3.66477e-07
3.6646e-07
3.66445e-07
3.8078e-07
3.76741e-07
3.73677e-07
3.71316e-07
3.69471e-07
3.68012e-07
3.66844e-07
3.659e-07
3.65129e-07
3.64494e-07
3.63967e-07
3.63525e-07
3.63152e-07
3.62835e-07
3.62565e-07
3.62332e-07
3.62131e-07
3.61956e-07
3.61804e-07
3.61669e-07
3.6155e-07
3.61444e-07
3.6135e-07
3.61265e-07
3.61189e-07
3.61121e-07
3.61059e-07