/*--------------------------------*- C++ -*----------------------------------*\
| =========                 |                                                 |
| \\      /  F ield         | OpenFOAM: The Open Source CFD Toolbox           |
|  \\    /   O peration     | Version:  2.3.1                                 |
|   \\  /    A nd           | Web:      www.OpenFOAM.org                      |
|    \\/     M anipulation  |                                                 |
\*---------------------------------------------------------------------------*/
FoamFile
{
    version     2.0;
    format      ascii;
    class       volScalarField;
    location    "20";
    object      epsilon;
}
// * * * * * * * * * * * * * * * * * * * * * * * * * * * * * * * * * * * * * //

dimensions      [0 2 -3 0 0 0 0];

internalField   nonuniform List<scalar> 
38262
(
5.09177e-07
4.90934e-07
4.75332e-07
4.61876e-07
4.50186e-07
4.39965e-07
4.30977e-07
4.2303e-07
4.15972e-07
4.09676e-07
4.04041e-07
3.98983e-07
3.94433e-07
3.90335e-07
3.86639e-07
3.833e-07
3.80279e-07
3.77541e-07
3.75059e-07
3.72808e-07
3.70768e-07
3.68924e-07
3.67263e-07
3.65772e-07
3.64436e-07
3.6324e-07
3.62167e-07
3.61204e-07
3.60338e-07
3.59561e-07
3.58868e-07
3.58256e-07
3.57725e-07
3.57273e-07
3.56902e-07
3.56607e-07
3.56383e-07
3.56219e-07
8.41883e-07
8.18092e-07
7.97766e-07
7.80237e-07
7.65009e-07
7.51697e-07
7.39992e-07
7.29643e-07
7.20451e-07
7.12252e-07
7.04916e-07
6.98339e-07
6.92438e-07
6.87141e-07
6.82372e-07
6.78067e-07
6.74171e-07
6.70646e-07
6.6746e-07
6.64582e-07
6.61991e-07
6.59671e-07
6.57603e-07
6.55763e-07
6.54121e-07
6.52649e-07
6.51321e-07
6.50118e-07
6.49028e-07
6.48055e-07
6.47201e-07
6.46471e-07
6.45868e-07
6.45391e-07
6.45037e-07
6.44787e-07
6.4462e-07
6.44516e-07
1.00456e-06
9.81422e-07
9.61648e-07
9.44577e-07
9.29729e-07
9.16734e-07
9.05299e-07
8.95187e-07
8.86202e-07
8.78184e-07
8.71009e-07
8.64586e-07
8.58837e-07
8.53685e-07
8.49053e-07
8.44869e-07
8.4108e-07
8.37655e-07
8.34564e-07
8.31779e-07
8.29278e-07
8.27046e-07
8.25062e-07
8.23297e-07
8.21726e-07
8.20324e-07
8.19066e-07
8.1793e-07
8.16907e-07
8.16e-07
8.1521e-07
8.14538e-07
8.13986e-07
8.13559e-07
8.13252e-07
8.13053e-07
8.12935e-07
8.12875e-07
1.09276e-06
1.0705e-06
1.05145e-06
1.03499e-06
1.02066e-06
1.0081e-06
9.97048e-07
9.87269e-07
9.78576e-07
9.70818e-07
9.63886e-07
9.57698e-07
9.52174e-07
9.47229e-07
9.42781e-07
9.38757e-07
9.35109e-07
9.31809e-07
9.28829e-07
9.26144e-07
9.23738e-07
9.21595e-07
9.19691e-07
9.17997e-07
9.16494e-07
9.15166e-07
9.13989e-07
9.12939e-07
9.12002e-07
9.11171e-07
9.10442e-07
9.09812e-07
9.09289e-07
9.08888e-07
9.08612e-07
9.08452e-07
9.08381e-07
9.0837e-07
1.13681e-06
1.1151e-06
1.09651e-06
1.08044e-06
1.06644e-06
1.05418e-06
1.04338e-06
1.03382e-06
1.02532e-06
1.01774e-06
1.01099e-06
1.00497e-06
9.99612e-07
9.94812e-07
9.90489e-07
9.86574e-07
9.83022e-07
9.79804e-07
9.7689e-07
9.74259e-07
9.71903e-07
9.69806e-07
9.67939e-07
9.66274e-07
9.64802e-07
9.63517e-07
9.624e-07
9.61421e-07
9.60554e-07
9.5978e-07
9.59083e-07
9.58463e-07
9.57937e-07
9.5753e-07
9.57256e-07
9.57109e-07
9.57066e-07
9.57097e-07
1.133e-06
1.11461e-06
1.09872e-06
1.0849e-06
1.0728e-06
1.06215e-06
1.05271e-06
1.04431e-06
1.03683e-06
1.03018e-06
1.02427e-06
1.019e-06
1.01427e-06
1.01001e-06
1.00615e-06
1.00264e-06
9.99463e-07
9.96575e-07
9.93962e-07
9.91619e-07
9.89533e-07
9.87669e-07
9.86004e-07
9.84536e-07
9.83267e-07
9.8218e-07
9.81241e-07
9.80413e-07
9.79663e-07
9.78969e-07
9.78334e-07
9.77783e-07
9.77351e-07
9.77058e-07
9.76909e-07
9.76878e-07
9.7694e-07
1.13286e-06
1.11446e-06
1.09857e-06
1.08478e-06
1.07273e-06
1.06212e-06
1.05271e-06
1.04435e-06
1.03691e-06
1.03029e-06
1.02441e-06
1.01916e-06
1.01444e-06
1.01018e-06
1.00632e-06
1.00281e-06
9.99623e-07
9.96732e-07
9.94114e-07
9.91762e-07
9.89659e-07
9.87776e-07
9.86096e-07
9.84618e-07
9.83341e-07
9.8225e-07
9.8131e-07
9.80479e-07
9.79716e-07
9.78998e-07
9.78331e-07
9.77745e-07
9.77277e-07
9.76957e-07
9.76794e-07
9.76764e-07
9.7684e-07
1.11473e-06
1.0961e-06
1.08005e-06
1.06613e-06
1.05398e-06
1.0433e-06
1.03383e-06
1.02542e-06
1.01793e-06
1.01127e-06
1.00535e-06
1.00005e-06
9.95282e-07
9.90961e-07
9.87035e-07
9.83472e-07
9.80247e-07
9.77328e-07
9.74685e-07
9.72302e-07
9.70162e-07
9.68245e-07
9.66538e-07
9.65035e-07
9.63729e-07
9.62599e-07
9.61616e-07
9.60739e-07
9.59931e-07
9.59168e-07
9.58455e-07
9.57826e-07
9.57317e-07
9.56965e-07
9.56779e-07
9.56737e-07
9.56809e-07
9.57001e-07
1.06999e-06
1.05089e-06
1.03445e-06
1.02021e-06
1.0078e-06
9.96898e-07
9.87242e-07
9.78659e-07
9.71023e-07
9.64228e-07
9.58173e-07
9.52754e-07
9.47867e-07
9.4343e-07
9.39394e-07
9.35732e-07
9.32427e-07
9.29445e-07
9.26749e-07
9.24311e-07
9.22113e-07
9.20142e-07
9.18387e-07
9.1684e-07
9.15481e-07
9.14287e-07
9.13231e-07
9.12278e-07
9.11398e-07
9.10572e-07
9.09804e-07
9.09123e-07
9.08567e-07
9.08173e-07
9.07951e-07
9.0788e-07
9.07926e-07
9.08102e-07
9.80862e-07
9.61031e-07
9.43968e-07
9.29203e-07
9.16341e-07
9.05045e-07
8.95052e-07
8.86173e-07
8.78273e-07
8.71241e-07
8.64969e-07
8.59349e-07
8.54281e-07
8.49682e-07
8.45499e-07
8.41705e-07
8.38282e-07
8.35198e-07
8.32414e-07
8.29894e-07
8.27615e-07
8.25566e-07
8.23739e-07
8.22121e-07
8.20691e-07
8.1942e-07
8.1828e-07
8.1724e-07
8.16279e-07
8.15383e-07
8.14554e-07
8.13815e-07
8.13203e-07
8.1275e-07
8.12468e-07
8.1234e-07
8.12336e-07
8.12452e-07
8.17574e-07
7.97168e-07
7.79612e-07
7.64418e-07
7.51183e-07
7.39565e-07
7.29292e-07
7.2017e-07
7.12056e-07
7.04833e-07
6.98388e-07
6.92612e-07
6.87407e-07
6.82693e-07
6.78411e-07
6.74528e-07
6.71023e-07
6.67864e-07
6.65015e-07
6.62438e-07
6.60108e-07
6.58008e-07
6.56132e-07
6.54469e-07
6.52997e-07
6.51686e-07
6.50502e-07
6.49415e-07
6.48408e-07
6.47468e-07
6.46597e-07
6.45812e-07
6.45144e-07
6.44622e-07
6.4426e-07
6.44049e-07
6.43968e-07
6.43994e-07
4.90636e-07
4.7498e-07
4.61481e-07
4.49772e-07
4.39556e-07
4.30592e-07
4.22678e-07
4.15657e-07
4.09406e-07
4.03828e-07
3.98842e-07
3.94371e-07
3.90351e-07
3.86724e-07
3.8344e-07
3.8046e-07
3.77757e-07
3.75305e-07
3.7308e-07
3.7106e-07
3.69227e-07
3.67564e-07
3.66061e-07
3.6471e-07
3.635e-07
3.62418e-07
3.61448e-07
3.60572e-07
3.59778e-07
3.59052e-07
3.58388e-07
3.57784e-07
3.57244e-07
3.56781e-07
3.56401e-07
3.56114e-07
3.5592e-07
3.55814e-07
3.9391e-07
3.88509e-07
3.8386e-07
3.79818e-07
3.76273e-07
3.73144e-07
3.70364e-07
3.67882e-07
3.65655e-07
3.63651e-07
3.61843e-07
3.60209e-07
3.58733e-07
3.57401e-07
3.562e-07
3.55114e-07
3.54131e-07
3.53241e-07
3.52436e-07
3.51708e-07
3.51052e-07
3.50466e-07
3.49947e-07
3.49488e-07
3.49081e-07
3.48719e-07
3.48394e-07
3.48102e-07
3.47841e-07
3.47612e-07
3.47416e-07
3.47253e-07
3.47124e-07
3.47028e-07
3.46964e-07
3.46926e-07
3.46907e-07
3.46903e-07
4.21422e-07
4.16179e-07
4.11869e-07
4.08274e-07
4.05243e-07
4.02662e-07
4.00446e-07
3.98528e-07
3.96855e-07
3.95389e-07
3.94096e-07
3.92952e-07
3.91939e-07
3.91039e-07
3.90239e-07
3.89523e-07
3.88879e-07
3.88301e-07
3.87783e-07
3.87319e-07
3.86905e-07
3.86539e-07
3.86218e-07
3.85937e-07
3.85691e-07
3.85472e-07
3.85276e-07
3.85099e-07
3.84938e-07
3.84796e-07
3.84674e-07
3.84575e-07
3.84499e-07
3.84449e-07
3.84424e-07
3.8442e-07
3.84427e-07
3.84447e-07
4.88484e-07
4.82108e-07
4.76867e-07
4.72499e-07
4.68819e-07
4.65689e-07
4.63005e-07
4.60687e-07
4.5867e-07
4.56905e-07
4.55351e-07
4.53979e-07
4.52765e-07
4.51689e-07
4.50732e-07
4.49877e-07
4.4911e-07
4.48419e-07
4.478e-07
4.47244e-07
4.46746e-07
4.46303e-07
4.4591e-07
4.45563e-07
4.45256e-07
4.44984e-07
4.44742e-07
4.44526e-07
4.44332e-07
4.44159e-07
4.4401e-07
4.43883e-07
4.43779e-07
4.43701e-07
4.43647e-07
4.43616e-07
4.43605e-07
4.43607e-07
5.25923e-07
5.18952e-07
5.1322e-07
5.08444e-07
5.0442e-07
5.00998e-07
4.98066e-07
4.95534e-07
4.93334e-07
4.91409e-07
4.89716e-07
4.88223e-07
4.86904e-07
4.85737e-07
4.84701e-07
4.83775e-07
4.82943e-07
4.82196e-07
4.81524e-07
4.8092e-07
4.80379e-07
4.79895e-07
4.79465e-07
4.79083e-07
4.78743e-07
4.78442e-07
4.78176e-07
4.7794e-07
4.77731e-07
4.77547e-07
4.77385e-07
4.77246e-07
4.77128e-07
4.77034e-07
4.76965e-07
4.7692e-07
4.76897e-07
4.76893e-07
5.43739e-07
5.36516e-07
5.30576e-07
5.25627e-07
5.21459e-07
5.17916e-07
5.14881e-07
5.12262e-07
5.09985e-07
5.07992e-07
5.06242e-07
5.04701e-07
5.03342e-07
5.0214e-07
5.01072e-07
5.00119e-07
4.99263e-07
4.98494e-07
4.97803e-07
4.9718e-07
4.96621e-07
4.96122e-07
4.95676e-07
4.95279e-07
4.94923e-07
4.94609e-07
4.94332e-07
4.9409e-07
4.93878e-07
4.93692e-07
4.93528e-07
4.93385e-07
4.9326e-07
4.93158e-07
4.9308e-07
4.93027e-07
4.92998e-07
4.92991e-07
5.43269e-07
5.37255e-07
5.32244e-07
5.28026e-07
5.24444e-07
5.21378e-07
5.18731e-07
5.16428e-07
5.14414e-07
5.12646e-07
5.11092e-07
5.09723e-07
5.08513e-07
5.07436e-07
5.06474e-07
5.05611e-07
5.04837e-07
5.0414e-07
5.03512e-07
5.02947e-07
5.02443e-07
5.01992e-07
5.01589e-07
5.01227e-07
5.00906e-07
5.00626e-07
5.00383e-07
5.00172e-07
4.99987e-07
4.99824e-07
4.99678e-07
4.99549e-07
4.99441e-07
4.99357e-07
4.99299e-07
4.99266e-07
4.99258e-07
5.43264e-07
5.37242e-07
5.32225e-07
5.28006e-07
5.24427e-07
5.21364e-07
5.1872e-07
5.16419e-07
5.14407e-07
5.12642e-07
5.11093e-07
5.09727e-07
5.08519e-07
5.07444e-07
5.06482e-07
5.05619e-07
5.04845e-07
5.04149e-07
5.03522e-07
5.02958e-07
5.02454e-07
5.02002e-07
5.01597e-07
5.01235e-07
5.00914e-07
5.00633e-07
5.00391e-07
5.0018e-07
4.99996e-07
4.99832e-07
4.99683e-07
4.99551e-07
4.99438e-07
4.9935e-07
4.99289e-07
4.99253e-07
4.99244e-07
5.36498e-07
5.3054e-07
5.25576e-07
5.21404e-07
5.17867e-07
5.14841e-07
5.12229e-07
5.09956e-07
5.07969e-07
5.06227e-07
5.04697e-07
5.03349e-07
5.02155e-07
5.01092e-07
5.00138e-07
4.99282e-07
4.98514e-07
4.97825e-07
4.97206e-07
4.9665e-07
4.9615e-07
4.95703e-07
4.95302e-07
4.94945e-07
4.94629e-07
4.94353e-07
4.94113e-07
4.93903e-07
4.93719e-07
4.93553e-07
4.93402e-07
4.93266e-07
4.93149e-07
4.93059e-07
4.92996e-07
4.92958e-07
4.9295e-07
4.9296e-07
5.18918e-07
5.13162e-07
5.08367e-07
5.04338e-07
5.00923e-07
4.98002e-07
4.95481e-07
4.93286e-07
4.91367e-07
4.89685e-07
4.88207e-07
4.86905e-07
4.85751e-07
4.84721e-07
4.83796e-07
4.82964e-07
4.82218e-07
4.81551e-07
4.80953e-07
4.80416e-07
4.79934e-07
4.79502e-07
4.79116e-07
4.78774e-07
4.78474e-07
4.7821e-07
4.77979e-07
4.77774e-07
4.77592e-07
4.77426e-07
4.77274e-07
4.77138e-07
4.7702e-07
4.7693e-07
4.76868e-07
4.76833e-07
4.76826e-07
4.76838e-07
4.82057e-07
4.76788e-07
4.72403e-07
4.68718e-07
4.65596e-07
4.62925e-07
4.60617e-07
4.58607e-07
4.56849e-07
4.55307e-07
4.53953e-07
4.52758e-07
4.51697e-07
4.50748e-07
4.49894e-07
4.49126e-07
4.48438e-07
4.47824e-07
4.47276e-07
4.46785e-07
4.46344e-07
4.4595e-07
4.45601e-07
4.45294e-07
4.45025e-07
4.4479e-07
4.44582e-07
4.44395e-07
4.44224e-07
4.44067e-07
4.43921e-07
4.43789e-07
4.43677e-07
4.43593e-07
4.43539e-07
4.43515e-07
4.43516e-07
4.43536e-07
4.16103e-07
4.11766e-07
4.08158e-07
4.05129e-07
4.02562e-07
4.00363e-07
3.98457e-07
3.96794e-07
3.95338e-07
3.94062e-07
3.92941e-07
3.9195e-07
3.91066e-07
3.90272e-07
3.89555e-07
3.8891e-07
3.88333e-07
3.8782e-07
3.87363e-07
3.86955e-07
3.86591e-07
3.86266e-07
3.85981e-07
3.85735e-07
3.85523e-07
3.85339e-07
3.85173e-07
3.85021e-07
3.84877e-07
3.84741e-07
3.84612e-07
3.84496e-07
3.84402e-07
3.84337e-07
3.84306e-07
3.84306e-07
3.84327e-07
3.84374e-07
3.88306e-07
3.83643e-07
3.79604e-07
3.76084e-07
3.72995e-07
3.70261e-07
3.67821e-07
3.65637e-07
3.6368e-07
3.61927e-07
3.60352e-07
3.58931e-07
3.57644e-07
3.56471e-07
3.554e-07
3.54423e-07
3.53535e-07
3.5273e-07
3.51998e-07
3.51331e-07
3.50724e-07
3.50175e-07
3.49684e-07
3.49248e-07
3.48862e-07
3.48517e-07
3.48204e-07
3.47916e-07
3.4765e-07
3.47407e-07
3.47187e-07
3.46996e-07
3.46843e-07
3.46739e-07
3.4669e-07
3.46682e-07
3.46707e-07
3.46775e-07
5.01359e-07
4.95464e-07
4.9036e-07
4.85898e-07
4.8197e-07
4.78491e-07
4.75394e-07
4.72624e-07
4.70137e-07
4.67897e-07
4.65876e-07
4.64049e-07
4.62399e-07
4.6091e-07
4.59567e-07
4.58351e-07
4.57249e-07
4.56251e-07
4.55348e-07
4.54531e-07
4.53796e-07
4.53139e-07
4.52556e-07
4.52042e-07
4.51586e-07
4.51179e-07
4.50813e-07
4.50483e-07
4.50188e-07
4.49928e-07
4.49705e-07
4.49519e-07
4.49372e-07
4.49264e-07
4.49192e-07
4.49152e-07
4.49133e-07
4.49131e-07
3.88111e-07
3.85743e-07
3.83872e-07
3.82366e-07
3.81134e-07
3.80114e-07
3.79259e-07
3.78535e-07
3.77914e-07
3.77379e-07
3.76913e-07
3.76506e-07
3.76149e-07
3.75838e-07
3.75564e-07
3.75323e-07
3.75108e-07
3.74918e-07
3.74749e-07
3.746e-07
3.7447e-07
3.74356e-07
3.74259e-07
3.74177e-07
3.74108e-07
3.74047e-07
3.73994e-07
3.73946e-07
3.73903e-07
3.73867e-07
3.73838e-07
3.73817e-07
3.73806e-07
3.73806e-07
3.73813e-07
3.73828e-07
3.73848e-07
3.73872e-07
4.13169e-07
4.09895e-07
4.07316e-07
4.05251e-07
4.03574e-07
4.02196e-07
4.0105e-07
4.00088e-07
3.99273e-07
3.98576e-07
3.97976e-07
3.97456e-07
3.97004e-07
3.96611e-07
3.96267e-07
3.95964e-07
3.95695e-07
3.95457e-07
3.95245e-07
3.95057e-07
3.94891e-07
3.94744e-07
3.94616e-07
3.94505e-07
3.94407e-07
3.94321e-07
3.94245e-07
3.94178e-07
3.94118e-07
3.94065e-07
3.9402e-07
3.93983e-07
3.93955e-07
3.93936e-07
3.93925e-07
3.93922e-07
3.93926e-07
3.93934e-07
4.31476e-07
4.27499e-07
4.24354e-07
4.2183e-07
4.19774e-07
4.18081e-07
4.16671e-07
4.15486e-07
4.14481e-07
4.13622e-07
4.12881e-07
4.12239e-07
4.11681e-07
4.11194e-07
4.10768e-07
4.10393e-07
4.10059e-07
4.09763e-07
4.09499e-07
4.09263e-07
4.09053e-07
4.08866e-07
4.08701e-07
4.08555e-07
4.08424e-07
4.08309e-07
4.08208e-07
4.08118e-07
4.08039e-07
4.0797e-07
4.07909e-07
4.07857e-07
4.07812e-07
4.07777e-07
4.0775e-07
4.07732e-07
4.07722e-07
4.0772e-07
4.40356e-07
4.36021e-07
4.32589e-07
4.29829e-07
4.27579e-07
4.25724e-07
4.24179e-07
4.22879e-07
4.21775e-07
4.2083e-07
4.20015e-07
4.1931e-07
4.18697e-07
4.18162e-07
4.17693e-07
4.1728e-07
4.16913e-07
4.16587e-07
4.16297e-07
4.16037e-07
4.15804e-07
4.15597e-07
4.15412e-07
4.15248e-07
4.15101e-07
4.1497e-07
4.14854e-07
4.14753e-07
4.14665e-07
4.14587e-07
4.14519e-07
4.1446e-07
4.14408e-07
4.14364e-07
4.14328e-07
4.14302e-07
4.14285e-07
4.14276e-07
4.39248e-07
4.35698e-07
4.32842e-07
4.30514e-07
4.28595e-07
4.26995e-07
4.2565e-07
4.24506e-07
4.23526e-07
4.22682e-07
4.21952e-07
4.21318e-07
4.20764e-07
4.20279e-07
4.1985e-07
4.19471e-07
4.19133e-07
4.18833e-07
4.18563e-07
4.18322e-07
4.18107e-07
4.17915e-07
4.17743e-07
4.17589e-07
4.17452e-07
4.1733e-07
4.17225e-07
4.17133e-07
4.17053e-07
4.16983e-07
4.16921e-07
4.16865e-07
4.16817e-07
4.16778e-07
4.16748e-07
4.16726e-07
4.16715e-07
4.39249e-07
4.35696e-07
4.32837e-07
4.30508e-07
4.28588e-07
4.2699e-07
4.25644e-07
4.245e-07
4.2352e-07
4.22677e-07
4.21948e-07
4.21314e-07
4.20762e-07
4.20277e-07
4.19849e-07
4.1947e-07
4.19132e-07
4.18832e-07
4.18563e-07
4.18323e-07
4.18108e-07
4.17916e-07
4.17744e-07
4.1759e-07
4.17453e-07
4.17332e-07
4.17226e-07
4.17135e-07
4.17056e-07
4.16986e-07
4.16924e-07
4.16867e-07
4.16818e-07
4.16778e-07
4.16746e-07
4.16723e-07
4.16711e-07
4.36023e-07
4.32582e-07
4.29815e-07
4.27561e-07
4.25706e-07
4.24162e-07
4.22863e-07
4.21759e-07
4.20814e-07
4.2e-07
4.19298e-07
4.18688e-07
4.18156e-07
4.17689e-07
4.17276e-07
4.1691e-07
4.16584e-07
4.16295e-07
4.16037e-07
4.15806e-07
4.156e-07
4.15416e-07
4.15251e-07
4.15104e-07
4.14973e-07
4.14858e-07
4.14758e-07
4.14672e-07
4.14596e-07
4.14529e-07
4.14468e-07
4.14413e-07
4.14365e-07
4.14326e-07
4.14296e-07
4.14275e-07
4.14264e-07
4.14262e-07
4.27496e-07
4.2434e-07
4.21807e-07
4.19747e-07
4.18054e-07
4.16647e-07
4.15464e-07
4.14459e-07
4.136e-07
4.12861e-07
4.12224e-07
4.11671e-07
4.11189e-07
4.10765e-07
4.10389e-07
4.10056e-07
4.0976e-07
4.09498e-07
4.09265e-07
4.09057e-07
4.08872e-07
4.08707e-07
4.0856e-07
4.0843e-07
4.08316e-07
4.08217e-07
4.08129e-07
4.08053e-07
4.07985e-07
4.07924e-07
4.07869e-07
4.07819e-07
4.07776e-07
4.07742e-07
4.07717e-07
4.07703e-07
4.07698e-07
4.07702e-07
4.09879e-07
4.07289e-07
4.05217e-07
4.0354e-07
4.02165e-07
4.01025e-07
4.00068e-07
3.99255e-07
3.98561e-07
3.97966e-07
3.97453e-07
3.97009e-07
3.96621e-07
3.96279e-07
3.95975e-07
3.95704e-07
3.95466e-07
3.95255e-07
3.95069e-07
3.94905e-07
3.94759e-07
3.9463e-07
3.94517e-07
3.94418e-07
3.94334e-07
3.94261e-07
3.94197e-07
3.9414e-07
3.94087e-07
3.94039e-07
3.93994e-07
3.93954e-07
3.93922e-07
3.93899e-07
3.93889e-07
3.93889e-07
3.93898e-07
3.93916e-07
3.85701e-07
3.83822e-07
3.82315e-07
3.81091e-07
3.80085e-07
3.79245e-07
3.78533e-07
3.77923e-07
3.77397e-07
3.76944e-07
3.76552e-07
3.7621e-07
3.75907e-07
3.75637e-07
3.75394e-07
3.75177e-07
3.74984e-07
3.74814e-07
3.74663e-07
3.7453e-07
3.74412e-07
3.74307e-07
3.74217e-07
3.7414e-07
3.74076e-07
3.74022e-07
3.73974e-07
3.73929e-07
3.73887e-07
3.73847e-07
3.73809e-07
3.73778e-07
3.73756e-07
3.73749e-07
3.73756e-07
3.73778e-07
3.7381e-07
3.73854e-07
4.9525e-07
4.90128e-07
4.85668e-07
4.81767e-07
4.78332e-07
4.75283e-07
4.72558e-07
4.70113e-07
4.6792e-07
4.65953e-07
4.64185e-07
4.6259e-07
4.61143e-07
4.59825e-07
4.58622e-07
4.57525e-07
4.56529e-07
4.55627e-07
4.54808e-07
4.54064e-07
4.53388e-07
4.52779e-07
4.52235e-07
4.51754e-07
4.5133e-07
4.5095e-07
4.50606e-07
4.50289e-07
4.49994e-07
4.49722e-07
4.49473e-07
4.49255e-07
4.4908e-07
4.48957e-07
4.48896e-07
4.48886e-07
4.4891e-07
4.48984e-07
5.794e-07
5.7275e-07
5.66997e-07
5.61973e-07
5.57553e-07
5.53643e-07
5.50165e-07
5.47058e-07
5.44272e-07
5.41766e-07
5.39507e-07
5.37468e-07
5.35628e-07
5.33971e-07
5.32476e-07
5.31124e-07
5.29899e-07
5.28789e-07
5.27784e-07
5.26877e-07
5.2606e-07
5.25329e-07
5.24681e-07
5.24108e-07
5.236e-07
5.23146e-07
5.22736e-07
5.22367e-07
5.22038e-07
5.21747e-07
5.21495e-07
5.21285e-07
5.21118e-07
5.20993e-07
5.20908e-07
5.20859e-07
5.20836e-07
5.2083e-07
3.96431e-07
3.94386e-07
3.92811e-07
3.91573e-07
3.90585e-07
3.89784e-07
3.89126e-07
3.88578e-07
3.88117e-07
3.87725e-07
3.87389e-07
3.87098e-07
3.86848e-07
3.86631e-07
3.86443e-07
3.86279e-07
3.86135e-07
3.86009e-07
3.85899e-07
3.85802e-07
3.85717e-07
3.85644e-07
3.85582e-07
3.8553e-07
3.85486e-07
3.85449e-07
3.85418e-07
3.85391e-07
3.85368e-07
3.8535e-07
3.85336e-07
3.85328e-07
3.85325e-07
3.85327e-07
3.85335e-07
3.85349e-07
3.85366e-07
3.85385e-07
3.96982e-07
3.94139e-07
3.91961e-07
3.90266e-07
3.88927e-07
3.87857e-07
3.8699e-07
3.8628e-07
3.85694e-07
3.85204e-07
3.84791e-07
3.84441e-07
3.84143e-07
3.83888e-07
3.83668e-07
3.83478e-07
3.83312e-07
3.83168e-07
3.8304e-07
3.82929e-07
3.82831e-07
3.82745e-07
3.8267e-07
3.82605e-07
3.82548e-07
3.82498e-07
3.82454e-07
3.82416e-07
3.82382e-07
3.82352e-07
3.82327e-07
3.82306e-07
3.82289e-07
3.82277e-07
3.82269e-07
3.82265e-07
3.82265e-07
3.82268e-07
4.03485e-07
3.99952e-07
3.97228e-07
3.95095e-07
3.93401e-07
3.92038e-07
3.9093e-07
3.90019e-07
3.89262e-07
3.88629e-07
3.88093e-07
3.87637e-07
3.87246e-07
3.86911e-07
3.86621e-07
3.86369e-07
3.86148e-07
3.85954e-07
3.85782e-07
3.85631e-07
3.85496e-07
3.85377e-07
3.85271e-07
3.85176e-07
3.85093e-07
3.85018e-07
3.84952e-07
3.84894e-07
3.84842e-07
3.84796e-07
3.84756e-07
3.8472e-07
3.84689e-07
3.84663e-07
3.8464e-07
3.84623e-07
3.84609e-07
3.846e-07
4.06896e-07
4.02978e-07
3.99947e-07
3.97566e-07
3.95669e-07
3.94139e-07
3.92891e-07
3.91862e-07
3.91006e-07
3.90286e-07
3.89676e-07
3.89157e-07
3.88711e-07
3.88327e-07
3.87994e-07
3.87705e-07
3.87451e-07
3.87227e-07
3.87029e-07
3.86854e-07
3.86697e-07
3.86558e-07
3.86433e-07
3.86322e-07
3.86222e-07
3.86133e-07
3.86053e-07
3.85983e-07
3.8592e-07
3.85865e-07
3.85817e-07
3.85773e-07
3.85735e-07
3.857e-07
3.8567e-07
3.85644e-07
3.85623e-07
3.85607e-07
4.04056e-07
4.00893e-07
3.98405e-07
3.96421e-07
3.94818e-07
3.9351e-07
3.9243e-07
3.9153e-07
3.90773e-07
3.90131e-07
3.89583e-07
3.89113e-07
3.88708e-07
3.88357e-07
3.88052e-07
3.87783e-07
3.87547e-07
3.87339e-07
3.87153e-07
3.86987e-07
3.8684e-07
3.86708e-07
3.86589e-07
3.86483e-07
3.86387e-07
3.86301e-07
3.86225e-07
3.86159e-07
3.861e-07
3.86049e-07
3.86002e-07
3.85961e-07
3.85923e-07
3.85889e-07
3.8586e-07
3.85835e-07
3.85815e-07
4.04058e-07
4.00894e-07
3.98404e-07
3.96418e-07
3.94815e-07
3.93506e-07
3.92426e-07
3.91525e-07
3.90767e-07
3.90125e-07
3.89577e-07
3.89108e-07
3.88704e-07
3.88353e-07
3.88047e-07
3.87779e-07
3.87543e-07
3.87335e-07
3.8715e-07
3.86985e-07
3.86838e-07
3.86706e-07
3.86588e-07
3.86482e-07
3.86386e-07
3.86301e-07
3.86225e-07
3.86159e-07
3.86101e-07
3.8605e-07
3.86005e-07
3.85963e-07
3.85925e-07
3.85891e-07
3.85861e-07
3.85835e-07
3.85815e-07
4.02983e-07
3.99948e-07
3.97562e-07
3.95662e-07
3.9413e-07
3.92881e-07
3.91851e-07
3.90993e-07
3.90272e-07
3.89661e-07
3.89142e-07
3.88697e-07
3.88314e-07
3.87982e-07
3.87693e-07
3.8744e-07
3.87217e-07
3.8702e-07
3.86846e-07
3.86691e-07
3.86553e-07
3.8643e-07
3.86319e-07
3.8622e-07
3.86131e-07
3.86053e-07
3.85983e-07
3.85922e-07
3.85869e-07
3.85822e-07
3.8578e-07
3.85741e-07
3.85706e-07
3.85675e-07
3.85647e-07
3.85624e-07
3.85605e-07
3.85591e-07
3.99955e-07
3.97225e-07
3.95087e-07
3.9339e-07
3.92026e-07
3.90917e-07
3.90005e-07
3.89247e-07
3.88612e-07
3.88076e-07
3.87621e-07
3.87232e-07
3.86899e-07
3.8661e-07
3.86358e-07
3.86137e-07
3.85944e-07
3.85774e-07
3.85624e-07
3.85491e-07
3.85373e-07
3.85268e-07
3.85175e-07
3.85092e-07
3.85018e-07
3.84953e-07
3.84897e-07
3.84847e-07
3.84803e-07
3.84764e-07
3.84729e-07
3.84697e-07
3.84668e-07
3.84644e-07
3.84623e-07
3.84606e-07
3.84594e-07
3.84587e-07
3.94131e-07
3.91948e-07
3.9025e-07
3.88912e-07
3.87844e-07
3.8698e-07
3.86273e-07
3.85687e-07
3.85199e-07
3.84789e-07
3.84443e-07
3.84148e-07
3.83896e-07
3.83677e-07
3.83487e-07
3.8332e-07
3.83175e-07
3.83048e-07
3.82937e-07
3.8284e-07
3.82754e-07
3.82678e-07
3.82611e-07
3.82553e-07
3.82503e-07
3.8246e-07
3.82423e-07
3.8239e-07
3.82361e-07
3.82334e-07
3.82311e-07
3.8229e-07
3.82272e-07
3.8226e-07
3.82252e-07
3.8225e-07
3.82253e-07
3.8226e-07
3.94353e-07
3.92774e-07
3.91538e-07
3.90557e-07
3.89769e-07
3.89124e-07
3.88588e-07
3.88137e-07
3.87755e-07
3.8743e-07
3.87152e-07
3.86913e-07
3.86704e-07
3.86519e-07
3.86355e-07
3.8621e-07
3.86081e-07
3.85968e-07
3.85868e-07
3.8578e-07
3.85701e-07
3.8563e-07
3.85569e-07
3.85517e-07
3.85473e-07
3.85436e-07
3.85405e-07
3.85377e-07
3.85353e-07
3.85331e-07
3.85312e-07
3.85298e-07
3.85289e-07
3.8529e-07
3.853e-07
3.85319e-07
3.85347e-07
3.85382e-07
5.72525e-07
5.66749e-07
5.61727e-07
5.57337e-07
5.53475e-07
5.50049e-07
5.46989e-07
5.44246e-07
5.41788e-07
5.39585e-07
5.37606e-07
5.35822e-07
5.34203e-07
5.3273e-07
5.31388e-07
5.30166e-07
5.29059e-07
5.28057e-07
5.27148e-07
5.26323e-07
5.25575e-07
5.24902e-07
5.24303e-07
5.23774e-07
5.23307e-07
5.22889e-07
5.22508e-07
5.22156e-07
5.21828e-07
5.21523e-07
5.21243e-07
5.20996e-07
5.20796e-07
5.20652e-07
5.20578e-07
5.20563e-07
5.20584e-07
5.2066e-07
6.36535e-07
6.29129e-07
6.22729e-07
6.17144e-07
6.12232e-07
6.07889e-07
6.04028e-07
6.00581e-07
5.97492e-07
5.94715e-07
5.92215e-07
5.89962e-07
5.87937e-07
5.86121e-07
5.84487e-07
5.83011e-07
5.81674e-07
5.80463e-07
5.79369e-07
5.7838e-07
5.7749e-07
5.76693e-07
5.75986e-07
5.75361e-07
5.74807e-07
5.74309e-07
5.7386e-07
5.73456e-07
5.73095e-07
5.72776e-07
5.725e-07
5.72267e-07
5.72079e-07
5.71936e-07
5.71836e-07
5.71775e-07
5.71741e-07
5.71726e-07
4.09709e-07
4.07428e-07
4.05669e-07
4.04286e-07
4.03181e-07
4.02285e-07
4.01547e-07
4.00933e-07
4.00416e-07
3.99976e-07
3.99599e-07
3.99274e-07
3.98994e-07
3.98754e-07
3.98545e-07
3.98363e-07
3.98204e-07
3.98064e-07
3.97941e-07
3.97832e-07
3.97737e-07
3.97653e-07
3.97579e-07
3.97515e-07
3.97461e-07
3.97415e-07
3.97376e-07
3.97342e-07
3.97313e-07
3.9729e-07
3.97271e-07
3.97257e-07
3.97247e-07
3.97242e-07
3.97242e-07
3.97247e-07
3.97258e-07
3.97271e-07
3.93147e-07
3.90236e-07
3.88031e-07
3.86335e-07
3.85011e-07
3.83965e-07
3.83128e-07
3.82452e-07
3.81899e-07
3.81443e-07
3.81063e-07
3.80745e-07
3.80476e-07
3.80249e-07
3.80055e-07
3.79888e-07
3.79744e-07
3.7962e-07
3.79511e-07
3.79416e-07
3.79333e-07
3.7926e-07
3.79196e-07
3.79139e-07
3.7909e-07
3.79047e-07
3.79009e-07
3.78976e-07
3.78947e-07
3.78921e-07
3.78899e-07
3.7888e-07
3.78864e-07
3.78851e-07
3.78841e-07
3.78834e-07
3.7883e-07
3.78828e-07
3.91312e-07
3.87753e-07
3.85044e-07
3.82949e-07
3.81306e-07
3.80002e-07
3.78955e-07
3.78106e-07
3.77409e-07
3.76832e-07
3.76351e-07
3.75946e-07
3.75604e-07
3.75312e-07
3.75061e-07
3.74846e-07
3.74659e-07
3.74496e-07
3.74353e-07
3.74227e-07
3.74115e-07
3.74017e-07
3.73929e-07
3.7385e-07
3.7378e-07
3.73718e-07
3.73663e-07
3.73613e-07
3.73569e-07
3.7353e-07
3.73495e-07
3.73464e-07
3.73436e-07
3.73411e-07
3.73389e-07
3.73369e-07
3.73353e-07
3.73339e-07
3.90729e-07
3.86786e-07
3.83773e-07
3.81435e-07
3.79596e-07
3.7813e-07
3.76949e-07
3.75987e-07
3.75196e-07
3.74539e-07
3.73989e-07
3.73525e-07
3.73131e-07
3.72794e-07
3.72505e-07
3.72255e-07
3.72038e-07
3.71848e-07
3.71681e-07
3.71534e-07
3.71403e-07
3.71286e-07
3.71182e-07
3.71089e-07
3.71005e-07
3.70929e-07
3.70862e-07
3.70801e-07
3.70747e-07
3.70699e-07
3.70656e-07
3.70618e-07
3.70583e-07
3.7055e-07
3.70521e-07
3.70494e-07
3.70471e-07
3.7045e-07
3.86263e-07
3.83115e-07
3.80668e-07
3.78739e-07
3.772e-07
3.75958e-07
3.74944e-07
3.74109e-07
3.73415e-07
3.72833e-07
3.72341e-07
3.71923e-07
3.71565e-07
3.71258e-07
3.70992e-07
3.70761e-07
3.70559e-07
3.70381e-07
3.70224e-07
3.70085e-07
3.6996e-07
3.69849e-07
3.69749e-07
3.69659e-07
3.69577e-07
3.69504e-07
3.69438e-07
3.6938e-07
3.69329e-07
3.69283e-07
3.69241e-07
3.69203e-07
3.69168e-07
3.69136e-07
3.69106e-07
3.69078e-07
3.69054e-07
3.86265e-07
3.83116e-07
3.80668e-07
3.78738e-07
3.77198e-07
3.75955e-07
3.74941e-07
3.74105e-07
3.7341e-07
3.72827e-07
3.72335e-07
3.71917e-07
3.7156e-07
3.71252e-07
3.70987e-07
3.70756e-07
3.70554e-07
3.70377e-07
3.7022e-07
3.70081e-07
3.69957e-07
3.69847e-07
3.69747e-07
3.69657e-07
3.69576e-07
3.69503e-07
3.69438e-07
3.6938e-07
3.69329e-07
3.69284e-07
3.69244e-07
3.69206e-07
3.69172e-07
3.69139e-07
3.69109e-07
3.6908e-07
3.69055e-07
3.8679e-07
3.83775e-07
3.81435e-07
3.79593e-07
3.78126e-07
3.76943e-07
3.75978e-07
3.75185e-07
3.74526e-07
3.73975e-07
3.7351e-07
3.73116e-07
3.72779e-07
3.7249e-07
3.72241e-07
3.72024e-07
3.71835e-07
3.71669e-07
3.71523e-07
3.71394e-07
3.71279e-07
3.71176e-07
3.71084e-07
3.71001e-07
3.70926e-07
3.70859e-07
3.708e-07
3.70748e-07
3.70702e-07
3.70661e-07
3.70624e-07
3.70591e-07
3.70559e-07
3.7053e-07
3.70502e-07
3.70476e-07
3.70453e-07
3.70432e-07
3.87756e-07
3.85043e-07
3.82946e-07
3.81302e-07
3.79996e-07
3.78947e-07
3.78095e-07
3.77396e-07
3.76818e-07
3.76335e-07
3.7593e-07
3.75587e-07
3.75296e-07
3.75046e-07
3.74831e-07
3.74644e-07
3.74482e-07
3.7434e-07
3.74216e-07
3.74106e-07
3.74009e-07
3.73923e-07
3.73846e-07
3.73777e-07
3.73715e-07
3.73661e-07
3.73613e-07
3.73571e-07
3.73534e-07
3.73502e-07
3.73473e-07
3.73447e-07
3.73422e-07
3.73399e-07
3.73378e-07
3.73358e-07
3.73341e-07
3.73327e-07
3.9023e-07
3.88023e-07
3.86326e-07
3.85003e-07
3.83959e-07
3.83124e-07
3.82448e-07
3.81895e-07
3.81439e-07
3.81061e-07
3.80745e-07
3.80478e-07
3.80252e-07
3.80058e-07
3.79891e-07
3.79747e-07
3.79622e-07
3.79514e-07
3.79419e-07
3.79337e-07
3.79264e-07
3.79199e-07
3.79142e-07
3.79092e-07
3.79049e-07
3.79011e-07
3.78978e-07
3.7895e-07
3.78926e-07
3.78905e-07
3.78887e-07
3.78871e-07
3.78857e-07
3.78844e-07
3.78835e-07
3.78828e-07
3.78824e-07
3.78823e-07
4.07392e-07
4.0563e-07
4.04251e-07
4.03155e-07
4.02271e-07
4.01547e-07
4.00943e-07
4.00435e-07
4.00005e-07
3.99639e-07
3.99325e-07
3.99053e-07
3.98816e-07
3.98607e-07
3.98425e-07
3.98265e-07
3.98123e-07
3.97997e-07
3.97886e-07
3.97787e-07
3.97698e-07
3.97619e-07
3.97548e-07
3.97486e-07
3.97433e-07
3.97388e-07
3.9735e-07
3.97318e-07
3.97291e-07
3.97269e-07
3.9725e-07
3.97236e-07
3.97225e-07
3.9722e-07
3.97222e-07
3.97231e-07
3.97247e-07
3.9727e-07
6.28867e-07
6.22439e-07
6.16863e-07
6.11997e-07
6.07719e-07
6.03923e-07
6.0053e-07
5.97492e-07
5.94772e-07
5.92337e-07
5.90152e-07
5.88179e-07
5.86388e-07
5.8476e-07
5.83287e-07
5.81952e-07
5.80743e-07
5.79649e-07
5.78658e-07
5.77759e-07
5.76945e-07
5.76214e-07
5.75565e-07
5.74992e-07
5.74485e-07
5.74029e-07
5.73611e-07
5.73224e-07
5.72862e-07
5.72524e-07
5.72212e-07
5.71938e-07
5.71714e-07
5.71551e-07
5.71462e-07
5.7144e-07
5.71458e-07
5.71529e-07
6.78969e-07
6.7079e-07
6.6374e-07
6.57604e-07
6.52217e-07
6.4746e-07
6.43238e-07
6.39474e-07
6.36104e-07
6.3308e-07
6.30362e-07
6.27916e-07
6.25716e-07
6.23739e-07
6.21962e-07
6.20359e-07
6.18908e-07
6.176e-07
6.16424e-07
6.15363e-07
6.14407e-07
6.13551e-07
6.12791e-07
6.12119e-07
6.11521e-07
6.10984e-07
6.105e-07
6.10065e-07
6.09676e-07
6.09333e-07
6.09034e-07
6.0878e-07
6.08572e-07
6.08412e-07
6.08295e-07
6.0822e-07
6.08175e-07
6.08146e-07
4.2093e-07
4.18313e-07
4.16288e-07
4.14691e-07
4.13411e-07
4.12369e-07
4.11509e-07
4.10792e-07
4.10187e-07
4.09672e-07
4.0923e-07
4.08848e-07
4.08518e-07
4.08231e-07
4.07982e-07
4.07763e-07
4.07571e-07
4.07404e-07
4.07258e-07
4.07129e-07
4.07015e-07
4.06913e-07
4.06822e-07
4.06743e-07
4.06674e-07
4.06614e-07
4.06563e-07
4.06519e-07
4.06481e-07
4.06449e-07
4.06423e-07
4.06401e-07
4.06384e-07
4.06372e-07
4.06365e-07
4.06365e-07
4.0637e-07
4.0638e-07
3.9238e-07
3.89296e-07
3.86971e-07
3.85189e-07
3.83804e-07
3.82715e-07
3.81847e-07
3.81149e-07
3.8058e-07
3.80113e-07
3.79727e-07
3.79404e-07
3.79132e-07
3.78903e-07
3.78708e-07
3.78541e-07
3.78398e-07
3.78274e-07
3.78166e-07
3.78072e-07
3.7799e-07
3.77917e-07
3.77853e-07
3.77796e-07
3.77746e-07
3.77702e-07
3.77663e-07
3.77629e-07
3.77599e-07
3.77573e-07
3.77551e-07
3.77531e-07
3.77513e-07
3.77498e-07
3.77486e-07
3.77476e-07
3.77469e-07
3.77465e-07
3.8441e-07
3.80738e-07
3.77961e-07
3.75828e-07
3.74167e-07
3.72857e-07
3.71813e-07
3.70971e-07
3.70286e-07
3.69724e-07
3.69257e-07
3.68868e-07
3.6854e-07
3.68263e-07
3.68026e-07
3.67824e-07
3.67649e-07
3.67497e-07
3.67365e-07
3.67249e-07
3.67147e-07
3.67056e-07
3.66975e-07
3.66903e-07
3.66838e-07
3.66781e-07
3.66729e-07
3.66683e-07
3.66642e-07
3.66606e-07
3.66573e-07
3.66543e-07
3.66516e-07
3.66491e-07
3.66469e-07
3.66449e-07
3.66432e-07
3.66417e-07
3.80762e-07
3.76722e-07
3.73656e-07
3.71294e-07
3.69448e-07
3.67988e-07
3.6682e-07
3.65876e-07
3.65105e-07
3.6447e-07
3.63942e-07
3.635e-07
3.63127e-07
3.6281e-07
3.62539e-07
3.62307e-07
3.62106e-07
3.61931e-07
3.61778e-07
3.61644e-07
3.61525e-07
3.61419e-07
3.61324e-07
3.6124e-07
3.61164e-07
3.61095e-07
3.61034e-07
3.60978e-07
3.60929e-07