/*--------------------------------*- C++ -*----------------------------------*\
| =========                 |                                                 |
| \\      /  F ield         | OpenFOAM: The Open Source CFD Toolbox           |
|  \\    /   O peration     | Version:  2.3.1                                 |
|   \\  /    A nd           | Web:      www.OpenFOAM.org                      |
|    \\/     M anipulation  |                                                 |
\*---------------------------------------------------------------------------*/
FoamFile
{
    version     2.0;
    format      ascii;
    class       volScalarField;
    location    "20";
    object      k;
}
// * * * * * * * * * * * * * * * * * * * * * * * * * * * * * * * * * * * * * //

dimensions      [0 2 -2 0 0 0 0];

internalField   nonuniform List<scalar> 
38262
(
3.71016e-06
3.62097e-06
3.54382e-06
3.4766e-06
3.41767e-06
3.36573e-06
3.31972e-06
3.27877e-06
3.24219e-06
3.20938e-06
3.17988e-06
3.15327e-06
3.12925e-06
3.10753e-06
3.08788e-06
3.07007e-06
3.05391e-06
3.03923e-06
3.02589e-06
3.01377e-06
3.00276e-06
2.9928e-06
2.9838e-06
2.97572e-06
2.96847e-06
2.96196e-06
2.95613e-06
2.95088e-06
2.94616e-06
2.94193e-06
2.93814e-06
2.9348e-06
2.9319e-06
2.92943e-06
2.9274e-06
2.92578e-06
2.92456e-06
2.92366e-06
5.18776e-06
5.08953e-06
5.00484e-06
4.93124e-06
4.86684e-06
4.8102e-06
4.76012e-06
4.71562e-06
4.67592e-06
4.64036e-06
4.60843e-06
4.57972e-06
4.55388e-06
4.53061e-06
4.50962e-06
4.49063e-06
4.47341e-06
4.4578e-06
4.44366e-06
4.43087e-06
4.41934e-06
4.40901e-06
4.39979e-06
4.39157e-06
4.38424e-06
4.37766e-06
4.37172e-06
4.36633e-06
4.36145e-06
4.35708e-06
4.35326e-06
4.34998e-06
4.34727e-06
4.34513e-06
4.34354e-06
4.34242e-06
4.34167e-06
4.3412e-06
5.83614e-06
5.74616e-06
5.66869e-06
5.60138e-06
5.5425e-06
5.49072e-06
5.44495e-06
5.40432e-06
5.36808e-06
5.33564e-06
5.30653e-06
5.28041e-06
5.25696e-06
5.23592e-06
5.21695e-06
5.19979e-06
5.18423e-06
5.17015e-06
5.15741e-06
5.14593e-06
5.1356e-06
5.12638e-06
5.11818e-06
5.11088e-06
5.10437e-06
5.09856e-06
5.09334e-06
5.08863e-06
5.08439e-06
5.08062e-06
5.07734e-06
5.07455e-06
5.07225e-06
5.07048e-06
5.06921e-06
5.06838e-06
5.06789e-06
5.06763e-06
6.17293e-06
6.08879e-06
6.01634e-06
5.95336e-06
5.89824e-06
5.84975e-06
5.8069e-06
5.76885e-06
5.73493e-06
5.70457e-06
5.67737e-06
5.65304e-06
5.63127e-06
5.61176e-06
5.59417e-06
5.57824e-06
5.56377e-06
5.55067e-06
5.53882e-06
5.52814e-06
5.51856e-06
5.51002e-06
5.50243e-06
5.49567e-06
5.48966e-06
5.48436e-06
5.47965e-06
5.47545e-06
5.4717e-06
5.46838e-06
5.46546e-06
5.46294e-06
5.46084e-06
5.45924e-06
5.45813e-06
5.45749e-06
5.4572e-06
5.45716e-06
6.33776e-06
6.25677e-06
6.18702e-06
6.12639e-06
6.07334e-06
6.02669e-06
5.98545e-06
5.94883e-06
5.91616e-06
5.88696e-06
5.86087e-06
5.8376e-06
5.81681e-06
5.79817e-06
5.78135e-06
5.7661e-06
5.75225e-06
5.73969e-06
5.7283e-06
5.718e-06
5.70878e-06
5.70056e-06
5.69324e-06
5.68671e-06
5.68093e-06
5.67588e-06
5.6715e-06
5.66765e-06
5.66424e-06
5.66119e-06
5.65845e-06
5.65601e-06
5.65394e-06
5.65234e-06
5.65126e-06
5.65068e-06
5.65051e-06
5.65063e-06
6.32355e-06
6.25491e-06
6.1953e-06
6.14322e-06
6.09746e-06
6.057e-06
6.02104e-06
5.98897e-06
5.96035e-06
5.93484e-06
5.9121e-06
5.89179e-06
5.87355e-06
5.85708e-06
5.84213e-06
5.82855e-06
5.81622e-06
5.805e-06
5.79485e-06
5.78574e-06
5.77762e-06
5.77036e-06
5.76387e-06
5.75814e-06
5.75319e-06
5.74895e-06
5.74529e-06
5.74205e-06
5.73912e-06
5.73641e-06
5.73393e-06
5.73178e-06
5.73008e-06
5.72894e-06
5.72835e-06
5.72823e-06
5.72847e-06
6.32305e-06
6.25434e-06
6.19475e-06
6.14279e-06
6.09719e-06
6.05689e-06
6.02106e-06
5.98912e-06
5.96063e-06
5.93525e-06
5.91264e-06
5.89241e-06
5.87421e-06
5.85774e-06
5.84278e-06
5.82918e-06
5.81684e-06
5.80561e-06
5.79544e-06
5.78629e-06
5.77811e-06
5.77077e-06
5.76423e-06
5.75846e-06
5.75348e-06
5.74922e-06
5.74555e-06
5.74231e-06
5.73933e-06
5.73652e-06
5.73392e-06
5.73163e-06
5.72979e-06
5.72854e-06
5.7279e-06
5.72779e-06
5.72809e-06
6.2554e-06
6.18547e-06
6.1249e-06
6.07216e-06
6.02594e-06
5.98513e-06
5.94885e-06
5.91651e-06
5.88768e-06
5.86197e-06
5.83905e-06
5.81851e-06
5.79999e-06
5.78319e-06
5.7679e-06
5.754e-06
5.74142e-06
5.73001e-06
5.71967e-06
5.71034e-06
5.70196e-06
5.69444e-06
5.68774e-06
5.68185e-06
5.67672e-06
5.67228e-06
5.66841e-06
5.66497e-06
5.66179e-06
5.65878e-06
5.65598e-06
5.6535e-06
5.6515e-06
5.65011e-06
5.64938e-06
5.64922e-06
5.6495e-06
5.65025e-06
6.08685e-06
6.01418e-06
5.95127e-06
5.89652e-06
5.8486e-06
5.80632e-06
5.76875e-06
5.73525e-06
5.70537e-06
5.67872e-06
5.65491e-06
5.63356e-06
5.61427e-06
5.59674e-06
5.58076e-06
5.56624e-06
5.55312e-06
5.54128e-06
5.53055e-06
5.52084e-06
5.51209e-06
5.50422e-06
5.49722e-06
5.49104e-06
5.48561e-06
5.48084e-06
5.47662e-06
5.47281e-06
5.46929e-06
5.46598e-06
5.46291e-06
5.46018e-06
5.45795e-06
5.45637e-06
5.45548e-06
5.4552e-06
5.45538e-06
5.45609e-06
5.74398e-06
5.66627e-06
5.59897e-06
5.54041e-06
5.48915e-06
5.44394e-06
5.40377e-06
5.36797e-06
5.33601e-06
5.30747e-06
5.28196e-06
5.25906e-06
5.23835e-06
5.21953e-06
5.20238e-06
5.1868e-06
5.17272e-06
5.16003e-06
5.14855e-06
5.13815e-06
5.12874e-06
5.12026e-06
5.1127e-06
5.106e-06
5.10008e-06
5.09481e-06
5.09008e-06
5.08577e-06
5.08178e-06
5.07806e-06
5.07461e-06
5.07155e-06
5.069e-06
5.06712e-06
5.06594e-06
5.06541e-06
5.06539e-06
5.06587e-06
5.08738e-06
5.00234e-06
4.9286e-06
4.86433e-06
4.80801e-06
4.75829e-06
4.71411e-06
4.6747e-06
4.63951e-06
4.60807e-06
4.57993e-06
4.55464e-06
4.53178e-06
4.51103e-06
4.49215e-06
4.47499e-06
4.45946e-06
4.44545e-06
4.4328e-06
4.42134e-06
4.41096e-06
4.4016e-06
4.39322e-06
4.38579e-06
4.37921e-06
4.37335e-06
4.36805e-06
4.36318e-06
4.35867e-06
4.35445e-06
4.35054e-06
4.34702e-06
4.34402e-06
4.34168e-06
4.34005e-06
4.3391e-06
4.33874e-06
4.33885e-06
3.61951e-06
3.54207e-06
3.47462e-06
3.41557e-06
3.36364e-06
3.31774e-06
3.27695e-06
3.24055e-06
3.20797e-06
3.17876e-06
3.15253e-06
3.12892e-06
3.10762e-06
3.08833e-06
3.07081e-06
3.05488e-06
3.04039e-06
3.02721e-06
3.01523e-06
3.00434e-06
2.99443e-06
2.98543e-06
2.97729e-06
2.96995e-06
2.96338e-06
2.95749e-06
2.95221e-06
2.94744e-06
2.94311e-06
2.93915e-06
2.93552e-06
2.93222e-06
2.92927e-06
2.92674e-06
2.92466e-06
2.92309e-06
2.92202e-06
2.92144e-06
4.96295e-06
4.91746e-06
4.87814e-06
4.84382e-06
4.81362e-06
4.78689e-06
4.76308e-06
4.74177e-06
4.72261e-06
4.70534e-06
4.68972e-06
4.67558e-06
4.6628e-06
4.65125e-06
4.64082e-06
4.63139e-06
4.62283e-06
4.61508e-06
4.60806e-06
4.60171e-06
4.59599e-06
4.59087e-06
4.58633e-06
4.58232e-06
4.57877e-06
4.57559e-06
4.57275e-06
4.57019e-06
4.56791e-06
4.56591e-06
4.56418e-06
4.56276e-06
4.56162e-06
4.56079e-06
4.56023e-06
4.55989e-06
4.55972e-06
4.55969e-06
6.9696e-06
7.00574e-06
7.03719e-06
7.0645e-06
7.08826e-06
7.10902e-06
7.1272e-06
7.14316e-06
7.15721e-06
7.16962e-06
7.18065e-06
7.19056e-06
7.19957e-06
7.20784e-06
7.21541e-06
7.2223e-06
7.22857e-06
7.23435e-06
7.23973e-06
7.24478e-06
7.24959e-06
7.25425e-06
7.25879e-06
7.26314e-06
7.26721e-06
7.27091e-06
7.27418e-06
7.27703e-06
7.27957e-06
7.28195e-06
7.28434e-06
7.28681e-06
7.28943e-06
7.29221e-06
7.29509e-06
7.29794e-06
7.30059e-06
7.30292e-06
8.48605e-06
8.53657e-06
8.58048e-06
8.61861e-06
8.65184e-06
8.68093e-06
8.7065e-06
8.72907e-06
8.74903e-06
8.76674e-06
8.78256e-06
8.79687e-06
8.80993e-06
8.82187e-06
8.83275e-06
8.8426e-06
8.85155e-06
8.85977e-06
8.8674e-06
8.87453e-06
8.88129e-06
8.88774e-06
8.89391e-06
8.89973e-06
8.90518e-06
8.91019e-06
8.91471e-06
8.91877e-06
8.92243e-06
8.92587e-06
8.9292e-06
8.93249e-06
8.93583e-06
8.93927e-06
8.94276e-06
8.94621e-06
8.94944e-06
8.9523e-06
9.32612e-06
9.383e-06
9.43245e-06
9.47542e-06
9.5129e-06
9.54576e-06
9.57471e-06
9.60031e-06
9.623e-06
9.64321e-06
9.6614e-06
9.67795e-06
9.69308e-06
9.7069e-06
9.71942e-06
9.73071e-06
9.74092e-06
9.75028e-06
9.75892e-06
9.76698e-06
9.77459e-06
9.78183e-06
9.78869e-06
9.79515e-06
9.80123e-06
9.80692e-06
9.81219e-06
9.81699e-06
9.82138e-06
9.82542e-06
9.82922e-06
9.83284e-06
9.83642e-06
9.8401e-06
9.84387e-06
9.84765e-06
9.85128e-06
9.85458e-06
9.75582e-06
9.81569e-06
9.86778e-06
9.91312e-06
9.95277e-06
9.9876e-06
1.00183e-05
1.00455e-05
1.00696e-05
1.00911e-05
1.01107e-05
1.01285e-05
1.01448e-05
1.01596e-05
1.0173e-05
1.01851e-05
1.01959e-05
1.02058e-05
1.02149e-05
1.02234e-05
1.02313e-05
1.02388e-05
1.0246e-05
1.02526e-05
1.0259e-05
1.0265e-05
1.02708e-05
1.02761e-05
1.0281e-05
1.02854e-05
1.02894e-05
1.0293e-05
1.02966e-05
1.03003e-05
1.03041e-05
1.03081e-05
1.0312e-05
1.03157e-05
9.99468e-06
1.00478e-05
1.00942e-05
1.0135e-05
1.01708e-05
1.02024e-05
1.02304e-05
1.02552e-05
1.02775e-05
1.02977e-05
1.03162e-05
1.03331e-05
1.03484e-05
1.03621e-05
1.03745e-05
1.03856e-05
1.03957e-05
1.04049e-05
1.04134e-05
1.04214e-05
1.04289e-05
1.0436e-05
1.04427e-05
1.04491e-05
1.04553e-05
1.04613e-05
1.04669e-05
1.0472e-05
1.04765e-05
1.04805e-05
1.0484e-05
1.04874e-05
1.0491e-05
1.04948e-05
1.04988e-05
1.05029e-05
1.05069e-05
9.99383e-06
1.0047e-05
1.00936e-05
1.01346e-05
1.01709e-05
1.02028e-05
1.0231e-05
1.0256e-05
1.02786e-05
1.02991e-05
1.03177e-05
1.03347e-05
1.03499e-05
1.03636e-05
1.03758e-05
1.03869e-05
1.03969e-05
1.0406e-05
1.04144e-05
1.04223e-05
1.04297e-05
1.04366e-05
1.04432e-05
1.04495e-05
1.04557e-05
1.04616e-05
1.04672e-05
1.04723e-05
1.04766e-05
1.04804e-05
1.04837e-05
1.04869e-05
1.04903e-05
1.0494e-05
1.0498e-05
1.05022e-05
1.05065e-05
9.81342e-06
9.86553e-06
9.91138e-06
9.95191e-06
9.98774e-06
1.00193e-05
1.00472e-05
1.0072e-05
1.00942e-05
1.01144e-05
1.01327e-05
1.01492e-05
1.0164e-05
1.01772e-05
1.0189e-05
1.01996e-05
1.02093e-05
1.02182e-05
1.02263e-05
1.02339e-05
1.0241e-05
1.02477e-05
1.0254e-05
1.02601e-05
1.0266e-05
1.02717e-05
1.02769e-05
1.02817e-05
1.02857e-05
1.02891e-05
1.02921e-05
1.02951e-05
1.02982e-05
1.03017e-05
1.03057e-05
1.031e-05
1.03143e-05
1.03186e-05
9.37994e-06
9.42948e-06
9.47314e-06
9.51181e-06
9.54606e-06
9.57625e-06
9.60284e-06
9.62642e-06
9.64754e-06
9.66663e-06
9.68392e-06
9.69948e-06
9.71332e-06
9.72556e-06
9.73643e-06
9.74627e-06
9.75532e-06
9.76366e-06
9.77133e-06
9.77841e-06
9.78501e-06
9.79123e-06
9.79716e-06
9.80286e-06
9.8083e-06
9.81342e-06
9.81811e-06
9.82226e-06
9.8258e-06
9.82877e-06
9.83137e-06
9.83393e-06
9.83678e-06
9.84012e-06
9.84395e-06
9.84812e-06
9.85245e-06
9.85678e-06
8.53338e-06
8.57743e-06
8.61628e-06
8.65073e-06
8.68125e-06
8.70813e-06
8.73173e-06
8.75259e-06
8.77124e-06
8.78806e-06
8.80326e-06
8.81688e-06
8.82894e-06
8.83955e-06
8.84894e-06
8.85743e-06
8.86529e-06
8.87259e-06
8.87933e-06
8.88554e-06
8.8913e-06
8.89672e-06
8.90191e-06
8.9069e-06
8.91164e-06
8.91603e-06
8.91995e-06
8.92334e-06
8.92618e-06
8.92854e-06
8.93062e-06
8.93271e-06
8.93514e-06
8.93811e-06
8.94162e-06
8.9455e-06
8.94959e-06
8.95372e-06
7.00306e-06
7.03453e-06
7.06235e-06
7.08708e-06
7.109e-06
7.12821e-06
7.14497e-06
7.15969e-06
7.17283e-06
7.18469e-06
7.1954e-06
7.20497e-06
7.2134e-06
7.22076e-06
7.22721e-06
7.23302e-06
7.23844e-06
7.24356e-06
7.24835e-06
7.25279e-06
7.25691e-06
7.26081e-06
7.26463e-06
7.26838e-06
7.27199e-06
7.27529e-06
7.27815e-06
7.28051e-06
7.28239e-06
7.28388e-06
7.28514e-06
7.28646e-06
7.28815e-06
7.29041e-06
7.29325e-06
7.29651e-06
7.3e-06
7.30355e-06
4.91574e-06
4.8763e-06
4.842e-06
4.81201e-06
4.78562e-06
4.7622e-06
4.74125e-06
4.72245e-06
4.70559e-06
4.69044e-06
4.67682e-06
4.66452e-06
4.65335e-06
4.64317e-06
4.63387e-06
4.62537e-06
4.61764e-06
4.61062e-06
4.60424e-06
4.59842e-06
4.59312e-06
4.58833e-06
4.58403e-06
4.58022e-06
4.57685e-06
4.57383e-06
4.57109e-06
4.56856e-06
4.56624e-06
4.56411e-06
4.56218e-06
4.56051e-06
4.55917e-06
4.55826e-06
4.55782e-06
4.55775e-06
4.55797e-06
4.55857e-06
5.82872e-06
5.78293e-06
5.74314e-06
5.70823e-06
5.67742e-06
5.65006e-06
5.62564e-06
5.60377e-06
5.58408e-06
5.56633e-06
5.55028e-06
5.53576e-06
5.52263e-06
5.51076e-06
5.50004e-06
5.49034e-06
5.48154e-06
5.47355e-06
5.46632e-06
5.45978e-06
5.4539e-06
5.44863e-06
5.44396e-06
5.43983e-06
5.43617e-06
5.4329e-06
5.42996e-06
5.42731e-06
5.42494e-06
5.42285e-06
5.42106e-06
5.41956e-06
5.41838e-06
5.41751e-06
5.41693e-06
5.41661e-06
5.41646e-06
5.41645e-06
8.86062e-06
8.89667e-06
8.9285e-06
8.95646e-06
8.98103e-06
9.00268e-06
9.02179e-06
9.03869e-06
9.05368e-06
9.06702e-06
9.07895e-06
9.08972e-06
9.09954e-06
9.10856e-06
9.11682e-06
9.12436e-06
9.13123e-06
9.13755e-06
9.14342e-06
9.14891e-06
9.15412e-06
9.15914e-06
9.164e-06
9.16866e-06
9.17301e-06
9.17696e-06
9.18045e-06
9.18351e-06
9.18625e-06
9.1888e-06
9.1913e-06
9.19384e-06
9.1965e-06
9.1993e-06
9.20219e-06
9.20504e-06
9.20769e-06
9.21002e-06
1.07964e-05
1.08398e-05
1.08787e-05
1.09135e-05
1.09446e-05
1.09722e-05
1.09969e-05
1.10191e-05
1.10389e-05
1.10566e-05
1.10727e-05
1.10873e-05
1.11006e-05
1.11129e-05
1.11241e-05
1.11344e-05
1.11437e-05
1.11523e-05
1.11602e-05
1.11676e-05
1.11746e-05
1.11812e-05
1.11876e-05
1.11935e-05
1.11991e-05
1.12042e-05
1.12089e-05
1.12131e-05
1.12169e-05
1.12205e-05
1.12238e-05
1.12271e-05
1.12304e-05
1.12338e-05
1.12372e-05
1.12405e-05
1.12436e-05
1.12464e-05
1.18781e-05
1.19229e-05
1.19637e-05
1.20004e-05
1.20335e-05
1.20632e-05
1.20899e-05
1.2114e-05
1.21356e-05
1.21552e-05
1.2173e-05
1.21893e-05
1.22042e-05
1.2218e-05
1.22305e-05
1.22419e-05
1.22522e-05
1.22618e-05
1.22705e-05
1.22787e-05
1.22865e-05
1.22937e-05
1.23006e-05
1.23071e-05
1.23132e-05
1.23189e-05
1.23242e-05
1.2329e-05
1.23334e-05
1.23375e-05
1.23413e-05
1.23449e-05
1.23485e-05
1.2352e-05
1.23556e-05
1.23592e-05
1.23626e-05
1.23658e-05
1.24433e-05
1.24884e-05
1.25298e-05
1.25674e-05
1.26015e-05
1.26323e-05
1.266e-05
1.26851e-05
1.27077e-05
1.27283e-05
1.27471e-05
1.27643e-05
1.27802e-05
1.27947e-05
1.2808e-05
1.282e-05
1.28309e-05
1.28409e-05
1.28501e-05
1.28586e-05
1.28666e-05
1.28742e-05
1.28813e-05
1.2888e-05
1.28943e-05
1.29003e-05
1.2906e-05
1.29113e-05
1.29161e-05
1.29204e-05
1.29244e-05
1.29281e-05
1.29317e-05
1.29353e-05
1.29389e-05
1.29426e-05
1.29463e-05
1.29498e-05
1.27271e-05
1.27688e-05
1.28068e-05
1.28415e-05
1.28729e-05
1.29012e-05
1.29269e-05
1.295e-05
1.29711e-05
1.29905e-05
1.30083e-05
1.30246e-05
1.30396e-05
1.30531e-05
1.30654e-05
1.30765e-05
1.30867e-05
1.3096e-05
1.31046e-05
1.31127e-05
1.31203e-05
1.31274e-05
1.31342e-05
1.31406e-05
1.31467e-05
1.31525e-05
1.3158e-05
1.3163e-05
1.31675e-05
1.31714e-05
1.31751e-05
1.31785e-05
1.3182e-05
1.31857e-05
1.31895e-05
1.31933e-05
1.3197e-05
1.27264e-05
1.27681e-05
1.28063e-05
1.28412e-05
1.28729e-05
1.29015e-05
1.29274e-05
1.29507e-05
1.2972e-05
1.29916e-05
1.30095e-05
1.30259e-05
1.30408e-05
1.30543e-05
1.30665e-05
1.30776e-05
1.30877e-05
1.30969e-05
1.31055e-05
1.31134e-05
1.31209e-05
1.31279e-05
1.31346e-05
1.31409e-05
1.3147e-05
1.31528e-05
1.31582e-05
1.31631e-05
1.31675e-05
1.31714e-05
1.31748e-05
1.31781e-05
1.31814e-05
1.3185e-05
1.31888e-05
1.31927e-05
1.31966e-05
1.24865e-05
1.2528e-05
1.2566e-05
1.26007e-05
1.26323e-05
1.26608e-05
1.26865e-05
1.27097e-05
1.27308e-05
1.275e-05
1.27677e-05
1.27838e-05
1.27983e-05
1.28114e-05
1.28232e-05
1.28339e-05
1.28437e-05
1.28527e-05
1.2861e-05
1.28687e-05
1.2876e-05
1.28827e-05
1.28892e-05
1.28953e-05
1.29011e-05
1.29067e-05
1.29119e-05
1.29165e-05
1.29206e-05
1.29242e-05
1.29273e-05
1.29304e-05
1.29335e-05
1.29369e-05
1.29406e-05
1.29446e-05
1.29486e-05
1.29525e-05
1.19203e-05
1.19612e-05
1.19985e-05
1.20325e-05
1.20634e-05
1.20911e-05
1.2116e-05
1.21384e-05
1.21587e-05
1.21773e-05
1.21941e-05
1.22095e-05
1.22232e-05
1.22355e-05
1.22466e-05
1.22566e-05
1.22659e-05
1.22744e-05
1.22823e-05
1.22895e-05
1.22963e-05
1.23027e-05
1.23088e-05
1.23146e-05
1.232e-05
1.23252e-05
1.23299e-05
1.23341e-05
1.23377e-05
1.23409e-05
1.23436e-05
1.23463e-05
1.23492e-05
1.23524e-05
1.2356e-05
1.23599e-05
1.23639e-05
1.23678e-05
1.0837e-05
1.08761e-05
1.09115e-05
1.09435e-05
1.09724e-05
1.09983e-05
1.10213e-05
1.10419e-05
1.10605e-05
1.10773e-05
1.10927e-05
1.11065e-05
1.11189e-05
1.11299e-05
1.11397e-05
1.11486e-05
1.11568e-05
1.11645e-05
1.11715e-05
1.11781e-05
1.11841e-05
1.11898e-05
1.11953e-05
1.12005e-05
1.12055e-05
1.121e-05
1.12141e-05
1.12177e-05
1.12207e-05
1.12232e-05
1.12255e-05
1.12277e-05
1.12301e-05
1.1233e-05
1.12363e-05
1.124e-05
1.12439e-05
1.12477e-05
8.89415e-06
8.92596e-06
8.95441e-06
8.9799e-06
9.00266e-06
9.02276e-06
9.04042e-06
9.05605e-06
9.07004e-06
9.08272e-06
9.09419e-06
9.10448e-06
9.11359e-06
9.12162e-06
9.12871e-06
9.13511e-06
9.14107e-06
9.14667e-06
9.1519e-06
9.15677e-06
9.16131e-06
9.16564e-06
9.16986e-06
9.174e-06
9.17795e-06
9.18156e-06
9.18469e-06
9.18726e-06
9.18931e-06
9.19092e-06
9.19227e-06
9.19363e-06
9.19533e-06
9.19757e-06
9.20037e-06
9.2036e-06
9.20704e-06
9.21053e-06
5.78127e-06
5.74132e-06
5.70643e-06
5.67582e-06
5.64881e-06
5.62477e-06
5.60324e-06
5.58389e-06
5.56651e-06
5.55089e-06
5.53684e-06
5.52415e-06
5.51262e-06
5.50211e-06
5.4925e-06
5.48374e-06
5.47577e-06
5.46855e-06
5.462e-06
5.45604e-06
5.45063e-06
5.44574e-06
5.44138e-06
5.43752e-06
5.43411e-06
5.43106e-06
5.4283e-06
5.42575e-06
5.42338e-06
5.42119e-06
5.41919e-06
5.41744e-06
5.41603e-06
5.41504e-06
5.41455e-06
5.41447e-06
5.41466e-06
5.41526e-06
6.41892e-06
6.36969e-06
6.32695e-06
6.28951e-06
6.25648e-06
6.22719e-06
6.20108e-06
6.1777e-06
6.15671e-06
6.13779e-06
6.12071e-06
6.10527e-06
6.09133e-06
6.07875e-06
6.0674e-06
6.05712e-06
6.0478e-06
6.03935e-06
6.0317e-06
6.02478e-06
6.01855e-06
6.01297e-06
6.00802e-06
6.00365e-06
5.99977e-06
5.9963e-06
5.99317e-06
5.99035e-06
5.98782e-06
5.9856e-06
5.98368e-06
5.98207e-06
5.98079e-06
5.97983e-06
5.97918e-06
5.97881e-06
5.97863e-06
5.97859e-06
1.02334e-05
1.02581e-05
1.02811e-05
1.0302e-05
1.03208e-05
1.03378e-05
1.03531e-05
1.03667e-05
1.0379e-05
1.03901e-05
1.04e-05
1.04091e-05
1.04175e-05
1.04252e-05
1.04323e-05
1.04389e-05
1.04448e-05
1.04504e-05
1.04555e-05
1.04604e-05
1.0465e-05
1.04694e-05
1.04738e-05
1.0478e-05
1.0482e-05
1.04856e-05
1.04887e-05
1.04915e-05
1.0494e-05
1.04964e-05
1.04986e-05
1.05009e-05
1.05034e-05
1.05059e-05
1.05086e-05
1.05112e-05
1.05136e-05
1.05157e-05
1.24262e-05
1.24535e-05
1.24801e-05
1.25054e-05
1.25289e-05
1.25506e-05
1.25705e-05
1.25887e-05
1.26053e-05
1.26204e-05
1.26342e-05
1.26469e-05
1.26587e-05
1.26695e-05
1.26796e-05
1.26887e-05
1.26971e-05
1.27049e-05
1.27121e-05
1.27189e-05
1.27253e-05
1.27313e-05
1.27371e-05
1.27426e-05
1.27477e-05
1.27525e-05
1.27568e-05
1.27607e-05
1.27642e-05
1.27675e-05
1.27707e-05
1.27737e-05
1.27768e-05
1.27799e-05
1.27829e-05
1.27859e-05
1.27888e-05
1.27913e-05
1.36554e-05
1.36802e-05
1.37059e-05
1.3731e-05
1.3755e-05
1.37776e-05
1.37986e-05
1.3818e-05
1.38359e-05
1.38523e-05
1.38675e-05
1.38816e-05
1.38947e-05
1.39067e-05
1.39179e-05
1.39281e-05
1.39374e-05
1.3946e-05
1.3954e-05
1.39615e-05
1.39686e-05
1.39752e-05
1.39815e-05
1.39875e-05
1.39931e-05
1.39983e-05
1.40031e-05
1.40076e-05
1.40117e-05
1.40154e-05
1.4019e-05
1.40223e-05
1.40256e-05
1.40288e-05
1.40321e-05
1.40353e-05
1.40384e-05
1.40413e-05
1.43085e-05
1.43314e-05
1.4356e-05
1.43808e-05
1.44048e-05
1.44276e-05
1.44491e-05
1.44691e-05
1.44876e-05
1.45048e-05
1.45207e-05
1.45356e-05
1.45494e-05
1.45621e-05
1.45738e-05
1.45846e-05
1.45944e-05
1.46034e-05
1.46118e-05
1.46196e-05
1.46269e-05
1.46338e-05
1.46403e-05
1.46465e-05
1.46523e-05
1.46578e-05
1.46629e-05
1.46677e-05
1.46721e-05
1.46762e-05
1.46799e-05
1.46833e-05
1.46866e-05
1.46899e-05
1.46933e-05
1.46966e-05
1.46999e-05
1.4703e-05
1.46109e-05
1.4635e-05
1.46596e-05
1.46837e-05
1.47068e-05
1.47286e-05
1.4749e-05
1.47679e-05
1.47854e-05
1.48018e-05
1.48171e-05
1.48313e-05
1.48443e-05
1.48563e-05
1.48672e-05
1.48773e-05
1.48865e-05
1.48949e-05
1.49028e-05
1.49102e-05
1.49172e-05
1.49238e-05
1.49299e-05
1.49358e-05
1.49414e-05
1.49467e-05
1.49516e-05
1.49562e-05
1.49603e-05
1.4964e-05
1.49674e-05
1.49707e-05
1.49739e-05
1.49772e-05
1.49807e-05
1.49841e-05
1.49875e-05
1.46103e-05
1.46344e-05
1.46592e-05
1.46835e-05
1.47068e-05
1.47289e-05
1.47494e-05
1.47684e-05
1.47862e-05
1.48027e-05
1.48181e-05
1.48323e-05
1.48454e-05
1.48573e-05
1.48682e-05
1.48782e-05
1.48873e-05
1.48957e-05
1.49036e-05
1.49109e-05
1.49177e-05
1.49242e-05
1.49303e-05
1.49361e-05
1.49416e-05
1.49469e-05
1.49518e-05
1.49563e-05
1.49604e-05
1.49639e-05
1.49672e-05
1.49703e-05
1.49734e-05
1.49767e-05
1.49801e-05
1.49836e-05
1.49871e-05
1.43298e-05
1.43545e-05
1.43796e-05
1.44042e-05
1.44277e-05
1.44498e-05
1.44703e-05
1.44893e-05
1.45069e-05
1.45232e-05
1.45384e-05
1.45524e-05
1.45652e-05
1.45768e-05
1.45873e-05
1.4597e-05
1.46059e-05
1.4614e-05
1.46216e-05
1.46287e-05
1.46353e-05
1.46416e-05
1.46475e-05
1.46531e-05
1.46584e-05
1.46635e-05
1.46682e-05
1.46725e-05
1.46762e-05
1.46796e-05
1.46826e-05
1.46854e-05
1.46883e-05
1.46915e-05
1.46948e-05
1.46984e-05
1.4702e-05
1.47055e-05
1.36779e-05
1.37037e-05
1.37293e-05
1.37542e-05
1.37777e-05
1.37996e-05
1.38197e-05
1.38383e-05
1.38554e-05
1.38712e-05
1.38858e-05
1.38992e-05
1.39113e-05
1.39223e-05
1.39322e-05
1.39413e-05
1.39497e-05
1.39574e-05
1.39646e-05
1.39712e-05
1.39775e-05
1.39834e-05
1.39889e-05
1.39942e-05
1.39993e-05
1.4004e-05
1.40083e-05
1.40122e-05
1.40155e-05
1.40184e-05
1.40211e-05
1.40236e-05
1.40263e-05
1.40292e-05
1.40325e-05
1.40359e-05
1.40396e-05
1.40431e-05
1.2451e-05
1.24777e-05
1.25035e-05
1.25279e-05
1.25507e-05
1.25717e-05
1.25907e-05
1.2608e-05
1.26239e-05
1.26384e-05
1.26518e-05
1.26639e-05
1.26749e-05
1.26847e-05
1.26936e-05
1.27016e-05
1.27091e-05
1.2716e-05
1.27224e-05
1.27284e-05
1.27339e-05
1.27392e-05
1.27442e-05
1.27491e-05
1.27536e-05
1.27578e-05
1.27616e-05
1.27648e-05
1.27676e-05
1.277e-05
1.2772e-05
1.27741e-05
1.27763e-05
1.2779e-05
1.2782e-05
1.27854e-05
1.27889e-05
1.27925e-05
1.02557e-05
1.02786e-05
1.03e-05
1.03198e-05
1.03378e-05
1.03541e-05
1.03685e-05
1.03814e-05
1.03931e-05
1.04038e-05
1.04136e-05
1.04224e-05
1.04302e-05
1.04371e-05
1.04432e-05
1.04488e-05
1.04539e-05
1.04588e-05
1.04634e-05
1.04676e-05
1.04716e-05
1.04755e-05
1.04793e-05
1.04831e-05
1.04867e-05
1.04899e-05
1.04927e-05
1.04949e-05
1.04967e-05
1.0498e-05
1.04991e-05
1.05002e-05
1.05017e-05
1.05037e-05
1.05063e-05
1.05094e-05
1.05126e-05
1.0516e-05
6.36803e-06
6.32511e-06
6.28768e-06
6.25487e-06
6.22593e-06
6.20021e-06
6.17718e-06
6.15651e-06
6.13795e-06
6.1213e-06
6.10632e-06
6.0928e-06
6.08052e-06
6.06933e-06
6.05913e-06
6.04984e-06
6.04141e-06
6.03377e-06
6.02685e-06
6.02056e-06
6.01485e-06
6.00971e-06
6.00514e-06
6.0011e-06
5.99753e-06
5.99434e-06
5.99143e-06
5.98873e-06
5.98622e-06
5.98389e-06
5.98174e-06
5.97986e-06
5.97832e-06
5.97723e-06
5.97666e-06
5.97654e-06
5.9767e-06
5.97728e-06
6.83428e-06
6.78115e-06
6.73507e-06
6.69473e-06
6.65915e-06
6.62761e-06
6.59951e-06
6.57437e-06
6.5518e-06
6.53148e-06
6.51316e-06
6.49662e-06
6.48175e-06
6.46839e-06
6.45636e-06
6.44548e-06
6.43562e-06
6.42669e-06
6.41861e-06
6.4113e-06
6.40472e-06
6.39883e-06
6.39359e-06
6.38897e-06
6.38486e-06
6.38117e-06
6.37784e-06
6.37485e-06
6.37217e-06
6.36981e-06
6.36776e-06
6.36603e-06
6.36464e-06
6.36358e-06
6.36284e-06
6.36238e-06
6.36213e-06
6.36202e-06
1.12527e-05
1.12641e-05
1.12762e-05
1.12885e-05
1.13002e-05
1.13113e-05
1.13216e-05
1.13311e-05
1.13399e-05
1.13479e-05
1.13553e-05
1.13621e-05
1.13685e-05
1.13744e-05
1.13799e-05
1.13851e-05
1.13898e-05
1.13942e-05
1.13984e-05
1.14023e-05
1.14061e-05
1.14098e-05
1.14134e-05
1.1417e-05
1.14204e-05
1.14235e-05
1.14262e-05
1.14286e-05
1.14307e-05
1.14328e-05
1.14347e-05
1.14367e-05
1.14389e-05
1.14411e-05
1.14434e-05
1.14457e-05
1.14478e-05
1.14496e-05
1.36416e-05
1.36512e-05
1.36643e-05
1.36787e-05
1.36935e-05
1.37081e-05
1.37222e-05
1.37356e-05
1.37482e-05
1.37599e-05
1.37708e-05
1.3781e-05
1.37906e-05
1.37995e-05
1.38078e-05
1.38155e-05
1.38227e-05
1.38293e-05
1.38355e-05
1.38413e-05
1.38468e-05
1.38521e-05
1.38571e-05
1.3862e-05
1.38665e-05
1.38706e-05
1.38744e-05
1.38779e-05
1.38811e-05
1.38841e-05
1.38869e-05
1.38896e-05
1.38923e-05
1.3895e-05
1.38978e-05
1.39004e-05
1.39029e-05
1.39051e-05
1.49801e-05
1.49834e-05
1.49933e-05
1.5006e-05
1.502e-05
1.50346e-05
1.50491e-05
1.50632e-05
1.50766e-05
1.50893e-05
1.51014e-05
1.51127e-05
1.51235e-05
1.51335e-05
1.51428e-05
1.51515e-05
1.51595e-05
1.51669e-05
1.51738e-05
1.51803e-05
1.51865e-05
1.51923e-05
1.51979e-05
1.52031e-05
1.5208e-05
1.52127e-05
1.52169e-05
1.52209e-05
1.52246e-05
1.52279e-05
1.52311e-05
1.52341e-05
1.52371e-05
1.524e-05
1.52428e-05
1.52457e-05
1.52484e-05
1.52509e-05
1.56996e-05
1.56995e-05
1.57062e-05
1.57177e-05
1.57309e-05
1.57452e-05
1.57596e-05
1.57739e-05
1.57877e-05
1.58009e-05
1.58135e-05
1.58255e-05
1.58368e-05
1.58474e-05
1.58572e-05
1.58663e-05
1.58747e-05
1.58825e-05
1.58898e-05
1.58966e-05
1.5903e-05
1.59091e-05
1.59148e-05
1.59203e-05
1.59254e-05
1.59303e-05
1.59348e-05
1.59391e-05
1.5943e-05
1.59466e-05
1.59499e-05
1.5953e-05
1.5956e-05
1.5959e-05
1.59619e-05
1.59649e-05
1.59678e-05
1.59706e-05
1.60107e-05
1.6016e-05
1.60268e-05
1.60397e-05
1.60539e-05
1.60685e-05
1.60829e-05
1.60969e-05
1.61104e-05
1.61234e-05
1.61357e-05
1.61472e-05
1.61581e-05
1.61682e-05
1.61774e-05
1.6186e-05
1.6194e-05
1.62014e-05
1.62083e-05
1.62148e-05
1.62209e-05
1.62267e-05
1.62321e-05
1.62373e-05
1.62423e-05
1.62469e-05
1.62513e-05
1.62554e-05
1.6259e-05
1.62624e-05
1.62654e-05
1.62684e-05
1.62713e-05
1.62743e-05
1.62773e-05
1.62803e-05
1.62833e-05
1.60102e-05
1.60155e-05
1.60264e-05
1.60395e-05
1.60539e-05
1.60687e-05
1.60833e-05
1.60974e-05
1.61111e-05
1.61241e-05
1.61365e-05
1.61482e-05
1.6159e-05
1.61691e-05
1.61783e-05
1.61868e-05
1.61947e-05
1.62021e-05
1.62089e-05
1.62153e-05
1.62214e-05
1.62271e-05
1.62324e-05
1.62376e-05
1.62425e-05
1.62471e-05
1.62515e-05
1.62554e-05
1.6259e-05
1.62622e-05
1.62652e-05
1.6268e-05
1.62708e-05
1.62738e-05
1.62768e-05
1.62799e-05
1.6283e-05
1.56981e-05
1.57049e-05
1.57166e-05
1.57304e-05
1.57452e-05
1.57602e-05
1.5775e-05
1.57892e-05
1.58028e-05
1.58157e-05
1.5828e-05
1.58394e-05
1.58501e-05
1.58598e-05
1.58688e-05
1.58771e-05
1.58847e-05
1.58918e-05
1.58984e-05
1.59046e-05
1.59104e-05
1.59159e-05
1.59212e-05
1.59261e-05
1.59309e-05
1.59353e-05
1.59395e-05
1.59432e-05
1.59466e-05
1.59495e-05
1.59523e-05
1.59549e-05
1.59575e-05
1.59603e-05
1.59633e-05
1.59664e-05
1.59696e-05
1.59728e-05
1.49814e-05
1.49914e-05
1.50045e-05
1.50193e-05
1.50347e-05
1.505e-05
1.50648e-05
1.50788e-05
1.50921e-05
1.51047e-05
1.51165e-05
1.51275e-05
1.51376e-05
1.51468e-05
1.51553e-05
1.5163e-05
1.51702e-05
1.51769e-05
1.51831e-05
1.51889e-05
1.51944e-05
1.51995e-05
1.52044e-05
1.52091e-05
1.52136e-05
1.52177e-05
1.52215e-05
1.52249e-05
1.52279e-05
1.52305e-05
1.52328e-05
1.52351e-05
1.52375e-05
1.52401e-05
1.5243e-05
1.52461e-05
1.52494e-05
1.52526e-05
1.36488e-05
1.3662e-05
1.36769e-05
1.36927e-05
1.37083e-05
1.37233e-05
1.37375e-05
1.37508e-05
1.37632e-05
1.37748e-05
1.37855e-05
1.37955e-05
1.38045e-05
1.38127e-05
1.38201e-05
1.3827e-05
1.38333e-05
1.38392e-05
1.38447e-05
1.38498e-05
1.38546e-05
1.38591e-05
1.38635e-05
1.38678e-05
1.38717e-05
1.38754e-05
1.38787e-05
1.38815e-05
1.38839e-05
1.38859e-05
1.38877e-05
1.38895e-05
1.38915e-05
1.38939e-05
1.38966e-05
1.38997e-05
1.39029e-05
1.39061e-05
1.12618e-05
1.12739e-05
1.12866e-05
1.12993e-05
1.13114e-05
1.13227e-05
1.1333e-05
1.13424e-05
1.13511e-05
1.13592e-05
1.13666e-05
1.13734e-05
1.13795e-05
1.13849e-05
1.13897e-05
1.1394e-05
1.13981e-05
1.14019e-05
1.14056e-05
1.14089e-05
1.14122e-05
1.14153e-05
1.14185e-05
1.14217e-05
1.14247e-05
1.14274e-05
1.14297e-05
1.14315e-05
1.14327e-05
1.14337e-05
1.14344e-05
1.14352e-05
1.14364e-05
1.14382e-05
1.14406e-05
1.14434e-05
1.14465e-05
1.14496e-05
6.77927e-06
6.73298e-06
6.69269e-06
6.65744e-06
6.62637e-06
6.59874e-06
6.574e-06
6.5518e-06
6.5319e-06
6.51406e-06
6.49802e-06
6.48352e-06
6.47035e-06
6.45837e-06
6.44752e-06
6.43768e-06
6.42876e-06
6.42068e-06
6.41335e-06
6.40671e-06
6.40069e-06
6.39528e-06
6.39047e-06
6.38623e-06
6.38247e-06
6.3791e-06
6.376e-06
6.37313e-06
6.37044e-06
6.36794e-06
6.36563e-06
6.36359e-06
6.36193e-06
6.36072e-06
6.36006e-06
6.3599e-06
6.36003e-06
6.36056e-06
7.13477e-06
7.07733e-06
7.02764e-06
6.98425e-06
6.94605e-06
6.91222e-06
6.88213e-06
6.85525e-06
6.83114e-06
6.80947e-06
6.78996e-06
6.77238e-06
6.75654e-06
6.7423e-06
6.72949e-06
6.71791e-06
6.70744e-06
6.69798e-06
6.68947e-06
6.68179e-06
6.67487e-06
6.66867e-06
6.66316e-06
6.65828e-06
6.65394e-06
6.65005e-06
6.64653e-06
6.64337e-06
6.64055e-06
6.63806e-06
6.63589e-06
6.63404e-06
6.63253e-06
6.63136e-06
6.63051e-06
6.62997e-06
6.62965e-06
6.62943e-06
1.20173e-05
1.20149e-05
1.20158e-05
1.20192e-05
1.20238e-05
1.20288e-05
1.2034e-05
1.20391e-05
1.20441e-05
1.20489e-05
1.20535e-05
1.20579e-05
1.20622e-05
1.20662e-05
1.20702e-05
1.20739e-05
1.20773e-05
1.20806e-05
1.20836e-05
1.20866e-05
1.20894e-05
1.20923e-05
1.20953e-05
1.20982e-05
1.21009e-05
1.21034e-05
1.21057e-05
1.21077e-05
1.21095e-05
1.21112e-05
1.21128e-05
1.21145e-05
1.21163e-05
1.21182e-05
1.21202e-05
1.21221e-05
1.21238e-05
1.21253e-05
1.45679e-05
1.45602e-05
1.45594e-05
1.45625e-05
1.45687e-05
1.4576e-05
1.45841e-05
1.45924e-05
1.46007e-05
1.46088e-05
1.46166e-05
1.46241e-05
1.46313e-05
1.46382e-05
1.46447e-05
1.46508e-05
1.46565e-05
1.46618e-05
1.46669e-05
1.46717e-05
1.46762e-05
1.46806e-05
1.46849e-05
1.46889e-05
1.46928e-05
1.46963e-05
1.46996e-05
1.47026e-05
1.47054e-05
1.47079e-05
1.47104e-05
1.47128e-05
1.47151e-05
1.47175e-05
1.47198e-05
1.47221e-05
1.47242e-05
1.47261e-05
1.59944e-05
1.59782e-05
1.59724e-05
1.59725e-05
1.59765e-05
1.59832e-05
1.59911e-05
1.59997e-05
1.60085e-05
1.60174e-05
1.60261e-05
1.60346e-05
1.60428e-05
1.60506e-05
1.6058e-05
1.6065e-05
1.60715e-05
1.60776e-05
1.60834e-05
1.60888e-05
1.6094e-05
1.6099e-05
1.61037e-05
1.61082e-05
1.61124e-05
1.61164e-05
1.61201e-05
1.61235e-05
1.61267e-05
1.61296e-05
1.61324e-05
1.61351e-05
1.61376e-05
1.61402e-05
1.61427e-05
1.61451e-05
1.61475e-05
1.61497e-05
1.67682e-05
1.67464e-05
1.67367e-05
1.67346e-05
1.67369e-05
1.67428e-05
1.67502e-05
1.67587e-05
1.67677e-05
1.67768e-05
1.67859e-05
1.67949e-05
1.68036e-05
1.68119e-05
1.68197e-05
1.68271e-05
1.6834e-05
1.68405e-05
1.68465e-05
1.68523e-05
1.68577e-05
1.68629e-05
1.68678e-05
1.68725e-05
1.68769e-05
1.68811e-05
1.6885e-05
1.68887e-05