/*--------------------------------*- C++ -*----------------------------------*\
| =========                 |                                                 |
| \\      /  F ield         | OpenFOAM: The Open Source CFD Toolbox           |
|  \\    /   O peration     | Version:  2.3.1                                 |
|   \\  /    A nd           | Web:      www.OpenFOAM.org                      |
|    \\/     M anipulation  |                                                 |
\*---------------------------------------------------------------------------*/
FoamFile
{
    version     2.0;
    format      ascii;
    class       volScalarField;
    location    "20";
    object      k_0;
}
// * * * * * * * * * * * * * * * * * * * * * * * * * * * * * * * * * * * * * //

dimensions      [0 2 -2 0 0 0 0];

internalField   nonuniform List<scalar> 
38262
(
3.71018e-06
3.62103e-06
3.5439e-06
3.4767e-06
3.41778e-06
3.36585e-06
3.31985e-06
3.27892e-06
3.24234e-06
3.20955e-06
3.18005e-06
3.15345e-06
3.12943e-06
3.10771e-06
3.08807e-06
3.07026e-06
3.05411e-06
3.03943e-06
3.0261e-06
3.01398e-06
3.00297e-06
2.99301e-06
2.98402e-06
2.97593e-06
2.96868e-06
2.96218e-06
2.95635e-06
2.9511e-06
2.94638e-06
2.94215e-06
2.93837e-06
2.93503e-06
2.93213e-06
2.92966e-06
2.92762e-06
2.92601e-06
2.92479e-06
2.92389e-06
5.18781e-06
5.08961e-06
5.00495e-06
4.93137e-06
4.86699e-06
4.81037e-06
4.7603e-06
4.71581e-06
4.67612e-06
4.64058e-06
4.60866e-06
4.57995e-06
4.55411e-06
4.53085e-06
4.50987e-06
4.49088e-06
4.47366e-06
4.45805e-06
4.44392e-06
4.43114e-06
4.41961e-06
4.40928e-06
4.40006e-06
4.39185e-06
4.38452e-06
4.37794e-06
4.372e-06
4.36661e-06
4.36173e-06
4.35737e-06
4.35354e-06
4.35027e-06
4.34756e-06
4.34542e-06
4.34383e-06
4.34271e-06
4.34196e-06
4.34149e-06
5.83623e-06
5.74628e-06
5.66884e-06
5.60155e-06
5.54269e-06
5.49092e-06
5.44517e-06
5.40454e-06
5.36832e-06
5.33589e-06
5.30678e-06
5.28066e-06
5.25723e-06
5.23618e-06
5.21722e-06
5.20007e-06
5.18451e-06
5.17043e-06
5.1577e-06
5.14622e-06
5.1359e-06
5.12668e-06
5.11848e-06
5.11117e-06
5.10467e-06
5.09886e-06
5.09365e-06
5.08894e-06
5.08469e-06
5.08093e-06
5.07765e-06
5.07486e-06
5.07256e-06
5.07079e-06
5.06952e-06
5.06869e-06
5.0682e-06
5.06795e-06
6.17303e-06
6.08892e-06
6.01649e-06
5.95353e-06
5.89843e-06
5.84995e-06
5.80711e-06
5.76908e-06
5.73517e-06
5.70481e-06
5.67763e-06
5.6533e-06
5.63154e-06
5.61203e-06
5.59444e-06
5.57851e-06
5.56405e-06
5.55095e-06
5.53911e-06
5.52843e-06
5.51885e-06
5.51032e-06
5.50272e-06
5.49596e-06
5.48996e-06
5.48466e-06
5.47995e-06
5.47576e-06
5.47201e-06
5.46868e-06
5.46577e-06
5.46325e-06
5.46115e-06
5.45955e-06
5.45844e-06
5.4578e-06
5.45751e-06
5.45747e-06
6.33786e-06
6.25689e-06
6.18717e-06
6.12656e-06
6.07353e-06
6.02689e-06
5.98567e-06
5.94905e-06
5.91639e-06
5.8872e-06
5.86112e-06
5.83785e-06
5.81707e-06
5.79843e-06
5.78162e-06
5.76637e-06
5.75253e-06
5.73996e-06
5.72858e-06
5.71829e-06
5.70906e-06
5.70085e-06
5.69353e-06
5.687e-06
5.68122e-06
5.67618e-06
5.67179e-06
5.66794e-06
5.66454e-06
5.66149e-06
5.65875e-06
5.65631e-06
5.65424e-06
5.65264e-06
5.65156e-06
5.65098e-06
5.65081e-06
5.65093e-06
6.32367e-06
6.25506e-06
6.19547e-06
6.1434e-06
6.09765e-06
6.05721e-06
6.02126e-06
5.9892e-06
5.96059e-06
5.93508e-06
5.91235e-06
5.89204e-06
5.87381e-06
5.85734e-06
5.8424e-06
5.82882e-06
5.81649e-06
5.80528e-06
5.79512e-06
5.78602e-06
5.7779e-06
5.77064e-06
5.76415e-06
5.75843e-06
5.75348e-06
5.74924e-06
5.74558e-06
5.74234e-06
5.73941e-06
5.7367e-06
5.73422e-06
5.73207e-06
5.73038e-06
5.72924e-06
5.72865e-06
5.72853e-06
5.72877e-06
6.32317e-06
6.25449e-06
6.19492e-06
6.14297e-06
6.09739e-06
6.0571e-06
6.02128e-06
5.98934e-06
5.96086e-06
5.9355e-06
5.91288e-06
5.89266e-06
5.87447e-06
5.858e-06
5.84304e-06
5.82945e-06
5.81711e-06
5.80589e-06
5.79572e-06
5.78657e-06
5.77839e-06
5.77106e-06
5.76451e-06
5.75875e-06
5.75377e-06
5.74951e-06
5.74584e-06
5.7426e-06
5.73962e-06
5.73682e-06
5.73421e-06
5.73192e-06
5.73009e-06
5.72884e-06
5.7282e-06
5.72808e-06
5.72838e-06
6.25553e-06
6.18562e-06
6.12507e-06
6.07234e-06
6.02614e-06
5.98534e-06
5.94908e-06
5.91675e-06
5.88791e-06
5.86222e-06
5.8393e-06
5.81877e-06
5.80026e-06
5.78346e-06
5.76817e-06
5.75428e-06
5.74169e-06
5.73029e-06
5.71995e-06
5.71063e-06
5.70224e-06
5.69473e-06
5.68803e-06
5.68214e-06
5.67701e-06
5.67257e-06
5.66871e-06
5.66526e-06
5.66208e-06
5.65908e-06
5.65628e-06
5.6538e-06
5.6518e-06
5.65042e-06
5.64968e-06
5.64952e-06
5.6498e-06
5.65056e-06
6.08698e-06
6.01433e-06
5.95144e-06
5.89671e-06
5.8488e-06
5.80653e-06
5.76898e-06
5.73549e-06
5.70562e-06
5.67897e-06
5.65517e-06
5.63383e-06
5.61454e-06
5.59701e-06
5.58104e-06
5.56652e-06
5.55341e-06
5.54156e-06
5.53084e-06
5.52114e-06
5.51238e-06
5.50452e-06
5.49752e-06
5.49134e-06
5.48592e-06
5.48115e-06
5.47692e-06
5.47311e-06
5.46959e-06
5.46629e-06
5.46321e-06
5.46049e-06
5.45826e-06
5.45668e-06
5.45579e-06
5.45551e-06
5.45569e-06
5.4564e-06
5.74409e-06
5.66641e-06
5.59914e-06
5.5406e-06
5.48935e-06
5.44415e-06
5.404e-06
5.3682e-06
5.33625e-06
5.30772e-06
5.28222e-06
5.25932e-06
5.23862e-06
5.2198e-06
5.20265e-06
5.18708e-06
5.17301e-06
5.16031e-06
5.14884e-06
5.13844e-06
5.12903e-06
5.12056e-06
5.113e-06
5.10631e-06
5.10038e-06
5.09512e-06
5.09039e-06
5.08608e-06
5.08209e-06
5.07837e-06
5.07492e-06
5.07186e-06
5.06931e-06
5.06743e-06
5.06626e-06
5.06573e-06
5.06571e-06
5.06619e-06
5.08746e-06
5.00245e-06
4.92873e-06
4.86449e-06
4.80817e-06
4.75847e-06
4.7143e-06
4.67491e-06
4.63973e-06
4.6083e-06
4.58016e-06
4.55487e-06
4.53203e-06
4.51128e-06
4.4924e-06
4.47524e-06
4.45972e-06
4.44572e-06
4.43306e-06
4.4216e-06
4.41123e-06
4.40187e-06
4.3935e-06
4.38607e-06
4.37949e-06
4.37363e-06
4.36833e-06
4.36346e-06
4.35895e-06
4.35474e-06
4.35083e-06
4.34731e-06
4.34431e-06
4.34197e-06
4.34034e-06
4.33939e-06
4.33903e-06
4.33914e-06
3.61956e-06
3.54215e-06
3.47472e-06
3.41568e-06
3.36377e-06
3.31788e-06
3.2771e-06
3.2407e-06
3.20813e-06
3.17893e-06
3.1527e-06
3.1291e-06
3.1078e-06
3.08852e-06
3.07101e-06
3.05508e-06
3.04059e-06
3.02742e-06
3.01544e-06
3.00455e-06
2.99464e-06
2.98565e-06
2.9775e-06
2.97017e-06
2.9636e-06
2.95771e-06
2.95243e-06
2.94766e-06
2.94333e-06
2.93937e-06
2.93575e-06
2.93245e-06
2.9295e-06
2.92696e-06
2.92489e-06
2.92331e-06
2.92225e-06
2.92167e-06
4.96327e-06
4.91779e-06
4.87849e-06
4.84417e-06
4.81399e-06
4.78726e-06
4.76346e-06
4.74215e-06
4.72299e-06
4.70572e-06
4.69011e-06
4.67598e-06
4.6632e-06
4.65165e-06
4.64122e-06
4.63179e-06
4.62323e-06
4.61548e-06
4.60847e-06
4.60212e-06
4.59639e-06
4.59128e-06
4.58674e-06
4.58273e-06
4.57918e-06
4.57601e-06
4.57316e-06
4.57061e-06
4.56832e-06
4.56632e-06
4.5646e-06
4.56317e-06
4.56204e-06
4.5612e-06
4.56064e-06
4.56031e-06
4.56014e-06
4.56011e-06
6.97025e-06
7.00639e-06
7.03784e-06
7.06513e-06
7.08889e-06
7.10965e-06
7.12783e-06
7.14378e-06
7.15783e-06
7.17024e-06
7.18127e-06
7.19117e-06
7.20018e-06
7.20845e-06
7.21602e-06
7.22291e-06
7.22918e-06
7.23496e-06
7.24034e-06
7.24538e-06
7.25019e-06
7.25486e-06
7.25939e-06
7.26374e-06
7.26782e-06
7.27151e-06
7.27478e-06
7.27763e-06
7.28017e-06
7.28255e-06
7.28493e-06
7.28741e-06
7.29003e-06
7.29281e-06
7.29569e-06
7.29854e-06
7.30119e-06
7.30351e-06
8.48679e-06
8.5373e-06
8.58121e-06
8.61933e-06
8.65255e-06
8.68163e-06
8.7072e-06
8.72977e-06
8.74972e-06
8.76742e-06
8.78325e-06
8.79755e-06
8.81061e-06
8.82255e-06
8.83343e-06
8.84327e-06
8.85222e-06
8.86044e-06
8.86807e-06
8.8752e-06
8.88195e-06
8.88841e-06
8.89457e-06
8.9004e-06
8.90584e-06
8.91085e-06
8.91538e-06
8.91943e-06
8.9231e-06
8.92653e-06
8.92986e-06
8.93315e-06
8.93649e-06
8.93993e-06
8.94342e-06
8.94687e-06
8.9501e-06
8.95296e-06
9.32688e-06
9.38376e-06
9.4332e-06
9.47615e-06
9.51362e-06
9.54648e-06
9.57543e-06
9.60102e-06
9.6237e-06
9.64391e-06
9.6621e-06
9.67864e-06
9.69377e-06
9.70759e-06
9.72011e-06
9.73139e-06
9.7416e-06
9.75096e-06
9.7596e-06
9.76765e-06
9.77526e-06
9.7825e-06
9.78936e-06
9.79582e-06
9.80189e-06
9.80759e-06
9.81285e-06
9.81766e-06
9.82204e-06
9.82609e-06
9.82988e-06
9.8335e-06
9.83709e-06
9.84076e-06
9.84453e-06
9.84831e-06
9.85194e-06
9.85524e-06
9.75658e-06
9.81644e-06
9.86851e-06
9.91385e-06
9.95349e-06
9.98831e-06
1.0019e-05
1.00461e-05
1.00702e-05
1.00918e-05
1.01113e-05
1.01292e-05
1.01455e-05
1.01603e-05
1.01737e-05
1.01857e-05
1.01966e-05
1.02065e-05
1.02156e-05
1.0224e-05
1.0232e-05
1.02395e-05
1.02466e-05
1.02533e-05
1.02596e-05
1.02657e-05
1.02714e-05
1.02768e-05
1.02817e-05
1.02861e-05
1.029e-05
1.02937e-05
1.02973e-05
1.03009e-05
1.03048e-05
1.03087e-05
1.03126e-05
1.03163e-05
9.99542e-06
1.00485e-05
1.0095e-05
1.01357e-05
1.01715e-05
1.02031e-05
1.0231e-05
1.02559e-05
1.02782e-05
1.02984e-05
1.03169e-05
1.03338e-05
1.0349e-05
1.03628e-05
1.03751e-05
1.03862e-05
1.03963e-05
1.04055e-05
1.0414e-05
1.0422e-05
1.04296e-05
1.04367e-05
1.04433e-05
1.04497e-05
1.0456e-05
1.04619e-05
1.04676e-05
1.04727e-05
1.04772e-05
1.04811e-05
1.04846e-05
1.04881e-05
1.04916e-05
1.04954e-05
1.04994e-05
1.05036e-05
1.05076e-05
9.99457e-06
1.00477e-05
1.00943e-05
1.01354e-05
1.01716e-05
1.02035e-05
1.02317e-05
1.02567e-05
1.02793e-05
1.02997e-05
1.03184e-05
1.03353e-05
1.03506e-05
1.03643e-05
1.03765e-05
1.03875e-05
1.03975e-05
1.04067e-05
1.04151e-05
1.04229e-05
1.04303e-05
1.04373e-05
1.04438e-05
1.04501e-05
1.04563e-05
1.04622e-05
1.04678e-05
1.04729e-05
1.04773e-05
1.0481e-05
1.04843e-05
1.04875e-05
1.04909e-05
1.04946e-05
1.04986e-05
1.05029e-05
1.05071e-05
9.81416e-06
9.86626e-06
9.9121e-06
9.95262e-06
9.98845e-06
1.002e-05
1.00479e-05
1.00727e-05
1.00949e-05
1.0115e-05
1.01334e-05
1.01499e-05
1.01647e-05
1.01779e-05
1.01897e-05
1.02003e-05
1.021e-05
1.02188e-05
1.0227e-05
1.02346e-05
1.02417e-05
1.02483e-05
1.02547e-05
1.02608e-05
1.02667e-05
1.02723e-05
1.02776e-05
1.02823e-05
1.02864e-05
1.02898e-05
1.02928e-05
1.02957e-05
1.02988e-05
1.03024e-05
1.03064e-05
1.03106e-05
1.0315e-05
1.03193e-05
9.38069e-06
9.43023e-06
9.47388e-06
9.51254e-06
9.54678e-06
9.57696e-06
9.60355e-06
9.62712e-06
9.64824e-06
9.66733e-06
9.68461e-06
9.70017e-06
9.71401e-06
9.72624e-06
9.73711e-06
9.74695e-06
9.75599e-06
9.76433e-06
9.772e-06
9.77908e-06
9.78568e-06
9.7919e-06
9.79783e-06
9.80352e-06
9.80897e-06
9.81408e-06
9.81878e-06
9.82293e-06
9.82646e-06
9.82943e-06
9.83203e-06
9.8346e-06
9.83745e-06
9.84078e-06
9.84461e-06
9.84878e-06
9.85311e-06
9.85744e-06
8.53412e-06
8.57816e-06
8.617e-06
8.65144e-06
8.68196e-06
8.70883e-06
8.73243e-06
8.75328e-06
8.77193e-06
8.78874e-06
8.80394e-06
8.81756e-06
8.82962e-06
8.84023e-06
8.84962e-06
8.85811e-06
8.86596e-06
8.87326e-06
8.88e-06
8.88621e-06
8.89196e-06
8.89738e-06
8.90257e-06
8.90757e-06
8.91231e-06
8.91669e-06
8.92061e-06
8.924e-06
8.92684e-06
8.9292e-06
8.93128e-06
8.93337e-06
8.9358e-06
8.93877e-06
8.94228e-06
8.94616e-06
8.95025e-06
8.95438e-06
7.00371e-06
7.03517e-06
7.06299e-06
7.08772e-06
7.10963e-06
7.12884e-06
7.14559e-06
7.16031e-06
7.17344e-06
7.1853e-06
7.19601e-06
7.20559e-06
7.21401e-06
7.22137e-06
7.22782e-06
7.23363e-06
7.23905e-06
7.24417e-06
7.24896e-06
7.25339e-06
7.25751e-06
7.26142e-06
7.26523e-06
7.26898e-06
7.27259e-06
7.27589e-06
7.27875e-06
7.28111e-06
7.28299e-06
7.28447e-06
7.28574e-06
7.28706e-06
7.28875e-06
7.29101e-06
7.29385e-06
7.29711e-06
7.3006e-06
7.30415e-06
4.91608e-06
4.87664e-06
4.84235e-06
4.81238e-06
4.78599e-06
4.76257e-06
4.74163e-06
4.72284e-06
4.70597e-06
4.69083e-06
4.67722e-06
4.66492e-06
4.65375e-06
4.64357e-06
4.63427e-06
4.62578e-06
4.61805e-06
4.61103e-06
4.60464e-06
4.59883e-06
4.59353e-06
4.58873e-06
4.58444e-06
4.58064e-06
4.57726e-06
4.57424e-06
4.5715e-06
4.56898e-06
4.56665e-06
4.56452e-06
4.56259e-06
4.56092e-06
4.55958e-06
4.55867e-06
4.55824e-06
4.55817e-06
4.55839e-06
4.55898e-06
5.82911e-06
5.78333e-06
5.74354e-06
5.70865e-06
5.67784e-06
5.65048e-06
5.62608e-06
5.6042e-06
5.58452e-06
5.56677e-06
5.55072e-06
5.53621e-06
5.52307e-06
5.51121e-06
5.5005e-06
5.49079e-06
5.48199e-06
5.47401e-06
5.46678e-06
5.46025e-06
5.45436e-06
5.44909e-06
5.44442e-06
5.44029e-06
5.43663e-06
5.43336e-06
5.43042e-06
5.42778e-06
5.42541e-06
5.42332e-06
5.42153e-06
5.42003e-06
5.41885e-06
5.41798e-06
5.4174e-06
5.41708e-06
5.41693e-06
5.41691e-06
8.86142e-06
8.89747e-06
8.92929e-06
8.95725e-06
8.98181e-06
9.00345e-06
9.02255e-06
9.03946e-06
9.05444e-06
9.06778e-06
9.0797e-06
9.09047e-06
9.10029e-06
9.1093e-06
9.11757e-06
9.12511e-06
9.13198e-06
9.13829e-06
9.14416e-06
9.14965e-06
9.15486e-06
9.15987e-06
9.16473e-06
9.16939e-06
9.17375e-06
9.17769e-06
9.18118e-06
9.18425e-06
9.18699e-06
9.18954e-06
9.19203e-06
9.19457e-06
9.19723e-06
9.20004e-06
9.20292e-06
9.20577e-06
9.20842e-06
9.21075e-06
1.07973e-05
1.08407e-05
1.08796e-05
1.09144e-05
1.09454e-05
1.09731e-05
1.09978e-05
1.10199e-05
1.10397e-05
1.10575e-05
1.10735e-05
1.10881e-05
1.11015e-05
1.11137e-05
1.1125e-05
1.11352e-05
1.11445e-05
1.11531e-05
1.1161e-05
1.11684e-05
1.11754e-05
1.11821e-05
1.11884e-05
1.11943e-05
1.11999e-05
1.1205e-05
1.12097e-05
1.12139e-05
1.12177e-05
1.12213e-05
1.12246e-05
1.12279e-05
1.12312e-05
1.12346e-05
1.1238e-05
1.12413e-05
1.12444e-05
1.12472e-05
1.1879e-05
1.19238e-05
1.19645e-05
1.20013e-05
1.20344e-05
1.20641e-05
1.20908e-05
1.21148e-05
1.21365e-05
1.21561e-05
1.21738e-05
1.21901e-05
1.22051e-05
1.22188e-05
1.22313e-05
1.22427e-05
1.22531e-05
1.22626e-05
1.22714e-05
1.22796e-05
1.22873e-05
1.22946e-05
1.23015e-05
1.23079e-05
1.2314e-05
1.23197e-05
1.2325e-05
1.23298e-05
1.23342e-05
1.23383e-05
1.23421e-05
1.23457e-05
1.23493e-05
1.23528e-05
1.23564e-05
1.236e-05
1.23634e-05
1.23666e-05
1.24442e-05
1.24892e-05
1.25307e-05
1.25683e-05
1.26023e-05
1.26331e-05
1.26609e-05
1.26859e-05
1.27086e-05
1.27291e-05
1.27479e-05
1.27651e-05
1.2781e-05
1.27956e-05
1.28088e-05
1.28208e-05
1.28317e-05
1.28417e-05
1.28509e-05
1.28594e-05
1.28674e-05
1.2875e-05
1.28821e-05
1.28888e-05
1.28951e-05
1.29011e-05
1.29068e-05
1.2912e-05
1.29169e-05
1.29212e-05
1.29252e-05
1.29289e-05
1.29325e-05
1.29361e-05
1.29397e-05
1.29434e-05
1.29471e-05
1.29506e-05
1.27279e-05
1.27696e-05
1.28077e-05
1.28423e-05
1.28737e-05
1.29021e-05
1.29277e-05
1.29509e-05
1.2972e-05
1.29913e-05
1.30091e-05
1.30254e-05
1.30404e-05
1.30539e-05
1.30662e-05
1.30773e-05
1.30875e-05
1.30968e-05
1.31054e-05
1.31135e-05
1.31211e-05
1.31282e-05
1.3135e-05
1.31413e-05
1.31475e-05
1.31533e-05
1.31588e-05
1.31638e-05
1.31682e-05
1.31722e-05
1.31758e-05
1.31793e-05
1.31828e-05
1.31865e-05
1.31902e-05
1.31941e-05
1.31978e-05
1.27273e-05
1.27689e-05
1.28072e-05
1.2842e-05
1.28737e-05
1.29024e-05
1.29282e-05
1.29516e-05
1.29729e-05
1.29924e-05
1.30103e-05
1.30267e-05
1.30416e-05
1.30551e-05
1.30673e-05
1.30784e-05
1.30885e-05
1.30977e-05
1.31062e-05
1.31142e-05
1.31217e-05
1.31287e-05
1.31354e-05
1.31417e-05
1.31477e-05
1.31536e-05
1.3159e-05
1.31639e-05
1.31683e-05
1.31721e-05
1.31756e-05
1.31789e-05
1.31822e-05
1.31858e-05
1.31896e-05
1.31935e-05
1.31974e-05
1.24874e-05
1.25288e-05
1.25669e-05
1.26016e-05
1.26332e-05
1.26617e-05
1.26873e-05
1.27105e-05
1.27316e-05
1.27509e-05
1.27685e-05
1.27846e-05
1.27991e-05
1.28122e-05
1.2824e-05
1.28347e-05
1.28445e-05
1.28535e-05
1.28618e-05
1.28695e-05
1.28768e-05
1.28835e-05
1.289e-05
1.28961e-05
1.29019e-05
1.29075e-05
1.29127e-05
1.29173e-05
1.29214e-05
1.2925e-05
1.29281e-05
1.29312e-05
1.29343e-05
1.29377e-05
1.29414e-05
1.29454e-05
1.29494e-05
1.29533e-05
1.19212e-05
1.19621e-05
1.19994e-05
1.20334e-05
1.20642e-05
1.2092e-05
1.21169e-05
1.21393e-05
1.21596e-05
1.21781e-05
1.2195e-05
1.22103e-05
1.22241e-05
1.22364e-05
1.22474e-05
1.22575e-05
1.22667e-05
1.22752e-05
1.22831e-05
1.22904e-05
1.22972e-05
1.23035e-05
1.23096e-05
1.23154e-05
1.23209e-05
1.2326e-05
1.23307e-05
1.23349e-05
1.23385e-05
1.23417e-05
1.23444e-05
1.23471e-05
1.235e-05
1.23532e-05
1.23568e-05
1.23607e-05
1.23647e-05
1.23686e-05
1.08379e-05
1.0877e-05
1.09123e-05
1.09444e-05
1.09733e-05
1.09991e-05
1.10222e-05
1.10427e-05
1.10613e-05
1.10782e-05
1.10935e-05
1.11073e-05
1.11197e-05
1.11307e-05
1.11405e-05
1.11494e-05
1.11577e-05
1.11653e-05
1.11723e-05
1.11789e-05
1.11849e-05
1.11907e-05
1.11961e-05
1.12013e-05
1.12063e-05
1.12108e-05
1.12149e-05
1.12185e-05
1.12215e-05
1.1224e-05
1.12263e-05
1.12285e-05
1.12309e-05
1.12338e-05
1.12372e-05
1.12408e-05
1.12447e-05
1.12485e-05
8.89494e-06
8.92675e-06
8.95519e-06
8.98068e-06
9.00343e-06
9.02353e-06
9.04119e-06
9.05681e-06
9.0708e-06
9.08347e-06
9.09494e-06
9.10523e-06
9.11434e-06
9.12236e-06
9.12945e-06
9.13586e-06
9.14181e-06
9.14741e-06
9.15264e-06
9.15751e-06
9.16205e-06
9.16638e-06
9.1706e-06
9.17473e-06
9.17869e-06
9.18229e-06
9.18542e-06
9.18799e-06
9.19004e-06
9.19165e-06
9.193e-06
9.19436e-06
9.19606e-06
9.1983e-06
9.2011e-06
9.20433e-06
9.20777e-06
9.21126e-06
5.78166e-06
5.74173e-06
5.70685e-06
5.67624e-06
5.64923e-06
5.6252e-06
5.60367e-06
5.58433e-06
5.56695e-06
5.55134e-06
5.53729e-06
5.5246e-06
5.51307e-06
5.50256e-06
5.49296e-06
5.48419e-06
5.47623e-06
5.46901e-06
5.46246e-06
5.4565e-06
5.45109e-06
5.4462e-06
5.44184e-06
5.43798e-06
5.43458e-06
5.43153e-06
5.42876e-06
5.42621e-06
5.42385e-06
5.42166e-06
5.41966e-06
5.41791e-06
5.4165e-06
5.41551e-06
5.41502e-06
5.41494e-06
5.41513e-06
5.41573e-06
6.41932e-06
6.3701e-06
6.32737e-06
6.28994e-06
6.25692e-06
6.22763e-06
6.20152e-06
6.17816e-06
6.15716e-06
6.13824e-06
6.12117e-06
6.10574e-06
6.0918e-06
6.07922e-06
6.06787e-06
6.0576e-06
6.04828e-06
6.03983e-06
6.03217e-06
6.02526e-06
6.01903e-06
6.01345e-06
6.0085e-06
6.00413e-06
6.00025e-06
5.99678e-06
5.99365e-06
5.99083e-06
5.98831e-06
5.98608e-06
5.98416e-06
5.98255e-06
5.98127e-06
5.98032e-06
5.97967e-06
5.9793e-06
5.97911e-06
5.97907e-06
1.02342e-05
1.0259e-05
1.02819e-05
1.03028e-05
1.03217e-05
1.03387e-05
1.03539e-05
1.03676e-05
1.03798e-05
1.03909e-05
1.04009e-05
1.04099e-05
1.04183e-05
1.0426e-05
1.04331e-05
1.04397e-05
1.04457e-05
1.04512e-05
1.04563e-05
1.04612e-05
1.04658e-05
1.04702e-05
1.04746e-05
1.04788e-05
1.04828e-05
1.04864e-05
1.04895e-05
1.04923e-05
1.04948e-05
1.04971e-05
1.04994e-05
1.05017e-05
1.05042e-05
1.05067e-05
1.05094e-05
1.0512e-05
1.05144e-05
1.05165e-05
1.24272e-05
1.24544e-05
1.24811e-05
1.25063e-05
1.25298e-05
1.25515e-05
1.25714e-05
1.25896e-05
1.26062e-05
1.26213e-05
1.26351e-05
1.26478e-05
1.26596e-05
1.26704e-05
1.26804e-05
1.26896e-05
1.2698e-05
1.27058e-05
1.2713e-05
1.27198e-05
1.27262e-05
1.27322e-05
1.2738e-05
1.27435e-05
1.27486e-05
1.27533e-05
1.27577e-05
1.27616e-05
1.27651e-05
1.27684e-05
1.27716e-05
1.27746e-05
1.27777e-05
1.27807e-05
1.27838e-05
1.27868e-05
1.27896e-05
1.27922e-05
1.36564e-05
1.36811e-05
1.37068e-05
1.3732e-05
1.37559e-05
1.37785e-05
1.37995e-05
1.38189e-05
1.38368e-05
1.38532e-05
1.38684e-05
1.38825e-05
1.38956e-05
1.39077e-05
1.39188e-05
1.3929e-05
1.39383e-05
1.39469e-05
1.39549e-05
1.39624e-05
1.39695e-05
1.39761e-05
1.39824e-05
1.39884e-05
1.3994e-05
1.39992e-05
1.4004e-05
1.40085e-05
1.40125e-05
1.40163e-05
1.40198e-05
1.40232e-05
1.40265e-05
1.40297e-05
1.4033e-05
1.40362e-05
1.40393e-05
1.40422e-05
1.43094e-05
1.43323e-05
1.4357e-05
1.43817e-05
1.44057e-05
1.44286e-05
1.445e-05
1.447e-05
1.44885e-05
1.45057e-05
1.45216e-05
1.45365e-05
1.45503e-05
1.4563e-05
1.45747e-05
1.45854e-05
1.45953e-05
1.46043e-05
1.46127e-05
1.46205e-05
1.46278e-05
1.46347e-05
1.46412e-05
1.46474e-05
1.46532e-05
1.46586e-05
1.46638e-05
1.46686e-05
1.4673e-05
1.4677e-05
1.46807e-05
1.46842e-05
1.46875e-05
1.46908e-05
1.46941e-05
1.46975e-05
1.47008e-05
1.47039e-05
1.46118e-05
1.46359e-05
1.46605e-05
1.46846e-05
1.47077e-05
1.47295e-05
1.47499e-05
1.47688e-05
1.47863e-05
1.48027e-05
1.4818e-05
1.48321e-05
1.48452e-05
1.48572e-05
1.48681e-05
1.48781e-05
1.48873e-05
1.48958e-05
1.49037e-05
1.49111e-05
1.49181e-05
1.49246e-05
1.49308e-05
1.49367e-05
1.49422e-05
1.49475e-05
1.49525e-05
1.49571e-05
1.49612e-05
1.49649e-05
1.49683e-05
1.49715e-05
1.49748e-05
1.49781e-05
1.49815e-05
1.4985e-05
1.49883e-05
1.46112e-05
1.46353e-05
1.46601e-05
1.46844e-05
1.47078e-05
1.47298e-05
1.47503e-05
1.47693e-05
1.47871e-05
1.48036e-05
1.4819e-05
1.48332e-05
1.48463e-05
1.48582e-05
1.48691e-05
1.4879e-05
1.48882e-05
1.48966e-05
1.49044e-05
1.49117e-05
1.49186e-05
1.4925e-05
1.49311e-05
1.49369e-05
1.49425e-05
1.49478e-05
1.49527e-05
1.49572e-05
1.49612e-05
1.49648e-05
1.4968e-05
1.49711e-05
1.49743e-05
1.49775e-05
1.49809e-05
1.49845e-05
1.4988e-05
1.43307e-05
1.43554e-05
1.43805e-05
1.44051e-05
1.44286e-05
1.44507e-05
1.44712e-05
1.44902e-05
1.45078e-05
1.45242e-05
1.45393e-05
1.45533e-05
1.45661e-05
1.45777e-05
1.45882e-05
1.45979e-05
1.46067e-05
1.46149e-05
1.46225e-05
1.46296e-05
1.46362e-05
1.46424e-05
1.46483e-05
1.4654e-05
1.46593e-05
1.46644e-05
1.46691e-05
1.46733e-05
1.46771e-05
1.46804e-05
1.46834e-05
1.46863e-05
1.46892e-05
1.46924e-05
1.46957e-05
1.46993e-05
1.47029e-05
1.47064e-05
1.36789e-05
1.37047e-05
1.37303e-05
1.37551e-05
1.37786e-05
1.38005e-05
1.38207e-05
1.38392e-05
1.38563e-05
1.38721e-05
1.38867e-05
1.39001e-05
1.39122e-05
1.39232e-05
1.39331e-05
1.39422e-05
1.39506e-05
1.39583e-05
1.39655e-05
1.39721e-05
1.39784e-05
1.39842e-05
1.39898e-05
1.39951e-05
1.40002e-05
1.40049e-05
1.40092e-05
1.4013e-05
1.40164e-05
1.40193e-05
1.40219e-05
1.40245e-05
1.40271e-05
1.40301e-05
1.40333e-05
1.40368e-05
1.40404e-05
1.4044e-05
1.24519e-05
1.24786e-05
1.25044e-05
1.25289e-05
1.25517e-05
1.25726e-05
1.25916e-05
1.26089e-05
1.26248e-05
1.26393e-05
1.26527e-05
1.26648e-05
1.26758e-05
1.26856e-05
1.26945e-05
1.27025e-05
1.271e-05
1.27169e-05
1.27233e-05
1.27293e-05
1.27348e-05
1.27401e-05
1.27451e-05
1.27499e-05
1.27545e-05
1.27587e-05
1.27625e-05
1.27657e-05
1.27685e-05
1.27708e-05
1.27729e-05
1.2775e-05
1.27772e-05
1.27799e-05
1.27829e-05
1.27863e-05
1.27898e-05
1.27933e-05
1.02565e-05
1.02795e-05
1.03008e-05
1.03206e-05
1.03387e-05
1.03549e-05
1.03693e-05
1.03823e-05
1.0394e-05
1.04046e-05
1.04144e-05
1.04232e-05
1.0431e-05
1.04379e-05
1.0444e-05
1.04496e-05
1.04547e-05
1.04596e-05
1.04642e-05
1.04684e-05
1.04724e-05
1.04763e-05
1.04801e-05
1.04839e-05
1.04875e-05
1.04907e-05
1.04935e-05
1.04957e-05
1.04975e-05
1.04988e-05
1.04999e-05
1.0501e-05
1.05025e-05
1.05045e-05
1.05071e-05
1.05102e-05
1.05134e-05
1.05168e-05
6.36844e-06
6.32553e-06
6.28811e-06
6.2553e-06
6.22637e-06
6.20065e-06
6.17763e-06
6.15696e-06
6.13841e-06
6.12176e-06
6.10679e-06
6.09326e-06
6.08099e-06
6.0698e-06
6.0596e-06
6.05031e-06
6.04188e-06
6.03425e-06
6.02733e-06
6.02104e-06
6.01533e-06
6.01019e-06
6.00562e-06
6.00158e-06
5.99801e-06
5.99482e-06
5.99191e-06
5.98922e-06
5.98671e-06
5.98437e-06
5.98223e-06
5.98034e-06
5.97881e-06
5.97771e-06
5.97714e-06
5.97702e-06
5.97719e-06
5.97777e-06
6.83467e-06
6.78156e-06
6.73549e-06
6.69515e-06
6.65959e-06
6.62805e-06
6.59996e-06
6.57482e-06
6.55226e-06
6.53194e-06
6.51363e-06
6.49709e-06
6.48222e-06
6.46886e-06
6.45683e-06
6.44596e-06
6.4361e-06
6.42717e-06
6.41908e-06
6.41178e-06
6.4052e-06
6.39931e-06
6.39408e-06
6.38945e-06
6.38534e-06
6.38166e-06
6.37833e-06
6.37534e-06
6.37266e-06
6.3703e-06
6.36825e-06
6.36652e-06
6.36512e-06
6.36407e-06
6.36333e-06
6.36287e-06
6.36262e-06
6.36251e-06
1.12535e-05
1.1265e-05
1.12771e-05
1.12893e-05
1.13011e-05
1.13122e-05
1.13225e-05
1.1332e-05
1.13407e-05
1.13488e-05
1.13561e-05
1.1363e-05
1.13693e-05
1.13752e-05
1.13808e-05
1.13859e-05
1.13907e-05
1.13951e-05
1.13992e-05
1.14031e-05
1.14069e-05
1.14106e-05
1.14143e-05
1.14179e-05
1.14212e-05
1.14243e-05
1.1427e-05
1.14294e-05
1.14316e-05
1.14336e-05
1.14356e-05
1.14376e-05
1.14397e-05
1.14419e-05
1.14443e-05
1.14465e-05
1.14486e-05
1.14504e-05
1.36426e-05
1.36521e-05
1.36652e-05
1.36796e-05
1.36945e-05
1.37091e-05
1.37232e-05
1.37366e-05
1.37491e-05
1.37608e-05
1.37717e-05
1.37819e-05
1.37915e-05
1.38004e-05
1.38088e-05
1.38165e-05
1.38236e-05
1.38302e-05
1.38364e-05
1.38422e-05
1.38477e-05
1.3853e-05
1.38581e-05
1.38629e-05
1.38674e-05
1.38715e-05
1.38754e-05
1.38788e-05
1.3882e-05
1.3885e-05
1.38878e-05
1.38905e-05
1.38932e-05
1.38959e-05
1.38987e-05
1.39013e-05
1.39038e-05
1.3906e-05
1.49811e-05
1.49843e-05
1.49942e-05
1.50069e-05
1.5021e-05
1.50356e-05
1.50501e-05
1.50641e-05
1.50776e-05
1.50903e-05
1.51023e-05
1.51137e-05
1.51244e-05
1.51344e-05
1.51438e-05
1.51524e-05
1.51604e-05
1.51678e-05
1.51748e-05
1.51813e-05
1.51874e-05
1.51932e-05
1.51988e-05
1.5204e-05
1.5209e-05
1.52136e-05
1.52179e-05
1.52218e-05
1.52255e-05
1.52289e-05
1.5232e-05
1.5235e-05
1.5238e-05
1.52409e-05
1.52438e-05
1.52466e-05
1.52493e-05
1.52519e-05
1.57006e-05
1.57004e-05
1.57072e-05
1.57186e-05
1.57318e-05
1.57461e-05
1.57606e-05
1.57749e-05
1.57887e-05
1.58019e-05
1.58145e-05
1.58264e-05
1.58377e-05
1.58483e-05
1.58581e-05
1.58672e-05
1.58756e-05
1.58835e-05
1.58907e-05
1.58975e-05
1.59039e-05
1.591e-05
1.59158e-05
1.59212e-05
1.59263e-05
1.59312e-05
1.59357e-05
1.594e-05
1.59439e-05
1.59475e-05
1.59508e-05
1.59539e-05
1.59569e-05
1.59599e-05
1.59628e-05
1.59658e-05
1.59687e-05
1.59715e-05
1.60116e-05
1.60169e-05
1.60277e-05
1.60406e-05
1.60548e-05
1.60694e-05
1.60838e-05
1.60979e-05
1.61114e-05
1.61243e-05
1.61366e-05
1.61482e-05
1.6159e-05
1.61691e-05
1.61784e-05
1.61869e-05
1.61949e-05
1.62023e-05
1.62092e-05
1.62157e-05
1.62218e-05
1.62276e-05
1.6233e-05
1.62382e-05
1.62432e-05
1.62479e-05
1.62522e-05
1.62563e-05
1.62599e-05
1.62633e-05
1.62663e-05
1.62693e-05
1.62722e-05
1.62752e-05
1.62782e-05
1.62812e-05
1.62842e-05
1.60111e-05
1.60164e-05
1.60274e-05
1.60404e-05
1.60549e-05
1.60696e-05
1.60842e-05
1.60984e-05
1.6112e-05
1.61251e-05
1.61374e-05
1.61491e-05
1.61599e-05
1.617e-05
1.61792e-05
1.61877e-05
1.61956e-05
1.6203e-05
1.62098e-05
1.62162e-05
1.62223e-05
1.6228e-05
1.62334e-05
1.62385e-05
1.62434e-05
1.6248e-05
1.62524e-05
1.62563e-05
1.62599e-05
1.62631e-05
1.62661e-05
1.62689e-05
1.62717e-05
1.62747e-05
1.62777e-05
1.62808e-05
1.62839e-05
1.56991e-05
1.57058e-05
1.57176e-05
1.57313e-05
1.57462e-05
1.57612e-05
1.57759e-05
1.57901e-05
1.58037e-05
1.58167e-05
1.58289e-05
1.58404e-05
1.5851e-05
1.58608e-05
1.58697e-05
1.5878e-05
1.58856e-05
1.58927e-05
1.58994e-05
1.59055e-05
1.59114e-05
1.59169e-05
1.59221e-05
1.5927e-05
1.59318e-05
1.59362e-05
1.59404e-05
1.59441e-05
1.59475e-05
1.59505e-05
1.59532e-05
1.59558e-05
1.59584e-05
1.59612e-05
1.59642e-05
1.59674e-05
1.59705e-05
1.59737e-05
1.49823e-05
1.49923e-05
1.50054e-05
1.50203e-05
1.50357e-05
1.5051e-05
1.50657e-05
1.50798e-05
1.50931e-05
1.51057e-05
1.51175e-05
1.51285e-05
1.51385e-05
1.51478e-05
1.51562e-05
1.51639e-05
1.51711e-05
1.51778e-05
1.5184e-05
1.51898e-05
1.51953e-05
1.52005e-05
1.52054e-05
1.52101e-05
1.52145e-05
1.52186e-05
1.52224e-05
1.52258e-05
1.52288e-05
1.52314e-05
1.52337e-05
1.5236e-05
1.52384e-05
1.5241e-05
1.52439e-05
1.52471e-05
1.52503e-05
1.52535e-05
1.36498e-05
1.3663e-05
1.36779e-05
1.36936e-05
1.37092e-05
1.37243e-05
1.37385e-05
1.37517e-05
1.37641e-05
1.37757e-05
1.37865e-05
1.37964e-05
1.38055e-05
1.38136e-05
1.38211e-05
1.38279e-05
1.38342e-05
1.38401e-05
1.38456e-05
1.38507e-05
1.38555e-05
1.38601e-05
1.38645e-05
1.38687e-05
1.38727e-05
1.38763e-05
1.38796e-05
1.38824e-05
1.38848e-05
1.38868e-05
1.38886e-05
1.38904e-05
1.38924e-05
1.38948e-05
1.38975e-05
1.39006e-05
1.39038e-05
1.3907e-05
1.12626e-05
1.12748e-05
1.12875e-05
1.13001e-05
1.13123e-05
1.13235e-05
1.13338e-05
1.13433e-05
1.13519e-05
1.136e-05
1.13675e-05
1.13742e-05
1.13803e-05
1.13857e-05
1.13905e-05
1.13949e-05
1.13989e-05
1.14028e-05
1.14064e-05
1.14098e-05
1.1413e-05
1.14162e-05
1.14193e-05
1.14225e-05
1.14255e-05
1.14282e-05
1.14305e-05
1.14323e-05
1.14336e-05
1.14345e-05
1.14352e-05
1.1436e-05
1.14372e-05
1.1439e-05
1.14414e-05
1.14442e-05
1.14473e-05
1.14504e-05
6.77967e-06
6.7334e-06
6.69312e-06
6.65788e-06
6.62681e-06
6.59919e-06
6.57445e-06
6.55226e-06
6.53236e-06
6.51452e-06
6.49849e-06
6.48399e-06
6.47082e-06
6.45884e-06
6.448e-06
6.43815e-06
6.42923e-06
6.42116e-06
6.41383e-06
6.40719e-06
6.40117e-06
6.39576e-06
6.39096e-06
6.38671e-06
6.38296e-06
6.37958e-06
6.37649e-06
6.37362e-06
6.37093e-06
6.36842e-06
6.36611e-06
6.36408e-06
6.36242e-06
6.36121e-06
6.36055e-06
6.36039e-06
6.36052e-06
6.36105e-06
7.13515e-06
7.07773e-06
7.02805e-06
6.98467e-06
6.94647e-06
6.91266e-06
6.88257e-06
6.85569e-06
6.83159e-06
6.80992e-06
6.79042e-06
6.77284e-06
6.75701e-06
6.74277e-06
6.72996e-06
6.71838e-06
6.70791e-06
6.69846e-06
6.68995e-06
6.68227e-06
6.67535e-06
6.66915e-06
6.66364e-06
6.65876e-06
6.65443e-06
6.65053e-06
6.64702e-06
6.64386e-06
6.64104e-06
6.63854e-06
6.63637e-06
6.63452e-06
6.63302e-06
6.63185e-06
6.631e-06
6.63046e-06
6.63013e-06
6.62992e-06
1.20182e-05
1.20158e-05
1.20167e-05
1.20201e-05
1.20246e-05
1.20296e-05
1.20348e-05
1.204e-05
1.2045e-05
1.20498e-05
1.20544e-05
1.20588e-05
1.2063e-05
1.20671e-05
1.2071e-05
1.20747e-05
1.20782e-05
1.20814e-05
1.20845e-05
1.20874e-05
1.20903e-05
1.20932e-05
1.20961e-05
1.2099e-05
1.21018e-05
1.21043e-05
1.21065e-05
1.21085e-05
1.21103e-05
1.2112e-05
1.21137e-05
1.21153e-05
1.21171e-05
1.2119e-05
1.2121e-05
1.21229e-05
1.21246e-05
1.21261e-05
1.45689e-05
1.45611e-05
1.45603e-05
1.45634e-05
1.45696e-05
1.4577e-05
1.45851e-05
1.45934e-05
1.46017e-05
1.46097e-05
1.46175e-05
1.4625e-05
1.46322e-05
1.46391e-05
1.46456e-05
1.46517e-05
1.46574e-05
1.46628e-05
1.46678e-05
1.46726e-05
1.46772e-05
1.46816e-05
1.46858e-05
1.46899e-05
1.46937e-05
1.46973e-05
1.47005e-05
1.47035e-05
1.47063e-05
1.47089e-05
1.47113e-05
1.47137e-05
1.4716e-05
1.47184e-05
1.47207e-05
1.4723e-05
1.47251e-05
1.47271e-05
1.59953e-05
1.59792e-05
1.59734e-05
1.59735e-05
1.59775e-05
1.59842e-05
1.5992e-05
1.60006e-05
1.60095e-05
1.60183e-05
1.6027e-05
1.60355e-05
1.60437e-05
1.60516e-05
1.6059e-05
1.60659e-05
1.60725e-05
1.60786e-05
1.60843e-05
1.60898e-05
1.6095e-05
1.60999e-05
1.61046e-05
1.61091e-05
1.61133e-05
1.61173e-05
1.6121e-05
1.61244e-05
1.61276e-05
1.61306e-05
1.61334e-05
1.6136e-05
1.61386e-05
1.61411e-05
1.61436e-05
1.61461e-05
1.61484e-05
1.61506e-05
1.67691e-05
1.67473e-05
1.67376e-05
1.67356e-05
1.67379e-05
1.67437e-05
1.67512e-05
1.67597e-05
1.67686e-05
1.67778e-05
1.67869e-05
1.67958e-05
1.68045e-05
1.68128e-05
1.68207e-05
1.6828e-05
1.68349e-05
1.68414e-05
1.68475e-05
1.68532e-05
1.68586e-05
1.68638e-05
1.68687e-05
1.68734e-05
1.68778e-05
1.6882e-05
1.68859e-05
1.68896e-05