/*--------------------------------*- C++ -*----------------------------------*\
| =========                 |                                                 |
| \\      /  F ield         | OpenFOAM: The Open Source CFD Toolbox           |
|  \\    /   O peration     | Version:  2.3.1                                 |
|   \\  /    A nd           | Web:      www.OpenFOAM.org                      |
|    \\/     M anipulation  |                                                 |
\*---------------------------------------------------------------------------*/
FoamFile
{
    version     2.0;
    format      ascii;
    class       volScalarField;
    location    "20";
    object      nut;
}
// * * * * * * * * * * * * * * * * * * * * * * * * * * * * * * * * * * * * * //

dimensions      [0 2 -1 0 0 0 0];

internalField   nonuniform List<scalar> 
38262
(
2.43309e-06
2.40364e-06
2.37788e-06
2.3552e-06
2.33513e-06
2.3173e-06
2.30139e-06
2.28714e-06
2.27434e-06
2.26279e-06
2.25236e-06
2.24291e-06
2.23434e-06
2.22656e-06
2.21951e-06
2.21309e-06
2.20726e-06
2.20194e-06
2.1971e-06
2.19269e-06
2.18868e-06
2.18504e-06
2.18175e-06
2.17879e-06
2.17613e-06
2.17375e-06
2.1716e-06
2.16967e-06
2.16794e-06
2.16637e-06
2.16498e-06
2.16375e-06
2.16268e-06
2.16176e-06
2.16101e-06
2.16042e-06
2.15996e-06
2.15963e-06
2.87707e-06
2.84967e-06
2.82584e-06
2.80496e-06
2.78657e-06
2.77029e-06
2.75582e-06
2.7429e-06
2.73132e-06
2.7209e-06
2.71152e-06
2.70305e-06
2.6954e-06
2.6885e-06
2.68226e-06
2.6766e-06
2.67146e-06
2.66679e-06
2.66256e-06
2.65872e-06
2.65526e-06
2.65215e-06
2.64937e-06
2.64689e-06
2.64468e-06
2.64269e-06
2.6409e-06
2.63927e-06
2.63779e-06
2.63647e-06
2.63531e-06
2.63432e-06
2.63349e-06
2.63285e-06
2.63236e-06
2.63202e-06
2.63179e-06
2.63165e-06
3.05155e-06
3.02791e-06
3.0074e-06
2.98948e-06
2.97371e-06
2.95977e-06
2.9474e-06
2.93637e-06
2.9265e-06
2.91763e-06
2.90966e-06
2.90248e-06
2.89602e-06
2.89021e-06
2.88497e-06
2.88022e-06
2.8759e-06
2.87199e-06
2.86845e-06
2.86525e-06
2.86237e-06
2.8598e-06
2.8575e-06
2.85546e-06
2.85364e-06
2.85202e-06
2.85056e-06
2.84924e-06
2.84805e-06
2.84699e-06
2.84607e-06
2.84529e-06
2.84464e-06
2.84414e-06
2.84379e-06
2.84355e-06
2.84341e-06
2.84334e-06
3.13836e-06
3.11687e-06
3.09825e-06
3.08197e-06
3.06766e-06
3.05501e-06
3.04379e-06
3.03379e-06
3.02485e-06
3.01683e-06
3.00962e-06
3.00316e-06
2.99737e-06
2.99216e-06
2.98747e-06
2.9832e-06
2.97933e-06
2.97582e-06
2.97264e-06
2.96977e-06
2.96719e-06
2.96489e-06
2.96285e-06
2.96102e-06
2.9594e-06
2.95797e-06
2.9567e-06
2.95557e-06
2.95455e-06
2.95366e-06
2.95287e-06
2.95218e-06
2.95162e-06
2.95118e-06
2.95088e-06
2.95071e-06
2.95063e-06
2.95062e-06
3.17998e-06
3.15958e-06
3.1419e-06
3.12645e-06
3.11287e-06
3.10088e-06
3.09024e-06
3.08076e-06
3.07228e-06
3.06469e-06
3.05788e-06
3.0518e-06
3.04635e-06
3.04146e-06
3.03705e-06
3.03304e-06
3.02939e-06
3.02607e-06
3.02307e-06
3.02035e-06
3.01791e-06
3.01573e-06
3.0138e-06
3.01206e-06
3.01053e-06
3.00919e-06
3.00803e-06
3.00701e-06
3.0061e-06
3.00529e-06
3.00456e-06
3.00392e-06
3.00336e-06
3.00294e-06
3.00265e-06
3.0025e-06
3.00245e-06
3.00248e-06
3.1764e-06
3.15909e-06
3.14399e-06
3.13073e-06
3.11904e-06
3.10866e-06
3.09941e-06
3.09114e-06
3.08374e-06
3.07712e-06
3.07122e-06
3.06593e-06
3.06118e-06
3.05688e-06
3.05297e-06
3.04942e-06
3.04619e-06
3.04325e-06
3.04058e-06
3.03819e-06
3.03606e-06
3.03415e-06
3.03244e-06
3.03093e-06
3.02963e-06
3.02851e-06
3.02754e-06
3.02669e-06
3.02591e-06
3.0252e-06
3.02454e-06
3.02398e-06
3.02353e-06
3.02323e-06
3.02307e-06
3.02304e-06
3.0231e-06
3.17627e-06
3.15895e-06
3.14385e-06
3.13062e-06
3.11897e-06
3.10863e-06
3.09942e-06
3.09118e-06
3.08381e-06
3.07723e-06
3.07136e-06
3.06609e-06
3.06135e-06
3.05705e-06
3.05314e-06
3.04959e-06
3.04635e-06
3.04341e-06
3.04074e-06
3.03834e-06
3.03618e-06
3.03426e-06
3.03253e-06
3.03101e-06
3.0297e-06
3.02858e-06
3.02761e-06
3.02676e-06
3.02597e-06
3.02523e-06
3.02454e-06
3.02394e-06
3.02345e-06
3.02312e-06
3.02295e-06
3.02292e-06
3.023e-06
3.15923e-06
3.1415e-06
3.12607e-06
3.11257e-06
3.10069e-06
3.09016e-06
3.08077e-06
3.07238e-06
3.06487e-06
3.05817e-06
3.05218e-06
3.0468e-06
3.04194e-06
3.03753e-06
3.03351e-06
3.02985e-06
3.02653e-06
3.02352e-06
3.02079e-06
3.01832e-06
3.0161e-06
3.01411e-06
3.01234e-06
3.01078e-06
3.00941e-06
3.00824e-06
3.00721e-06
3.00629e-06
3.00545e-06
3.00465e-06
3.00391e-06
3.00325e-06
3.00272e-06
3.00235e-06
3.00215e-06
3.00211e-06
3.00218e-06
3.00238e-06
3.11637e-06
3.0977e-06
3.08143e-06
3.06721e-06
3.05471e-06
3.04364e-06
3.03377e-06
3.02494e-06
3.01704e-06
3.00998e-06
3.00366e-06
2.99797e-06
2.99283e-06
2.98815e-06
2.98388e-06
2.97999e-06
2.97648e-06
2.9733e-06
2.97041e-06
2.9678e-06
2.96545e-06
2.96333e-06
2.96144e-06
2.95978e-06
2.95831e-06
2.95702e-06
2.95588e-06
2.95485e-06
2.9539e-06
2.95301e-06
2.95218e-06
2.95144e-06
2.95084e-06
2.95041e-06
2.95017e-06
2.95009e-06
2.95014e-06
2.95033e-06
3.02733e-06
3.00676e-06
2.98884e-06
2.97315e-06
2.95935e-06
2.94712e-06
2.93622e-06
2.92647e-06
2.91773e-06
2.90991e-06
2.90291e-06
2.8966e-06
2.89089e-06
2.88568e-06
2.88093e-06
2.87661e-06
2.8727e-06
2.86917e-06
2.86598e-06
2.86308e-06
2.86045e-06
2.85809e-06
2.85597e-06
2.8541e-06
2.85244e-06
2.85097e-06
2.84964e-06
2.84843e-06
2.84732e-06
2.84627e-06
2.84531e-06
2.84444e-06
2.84373e-06
2.8432e-06
2.84287e-06
2.84272e-06
2.84272e-06
2.84285e-06
2.84907e-06
2.82514e-06
2.80422e-06
2.78585e-06
2.76966e-06
2.75529e-06
2.74246e-06
2.73096e-06
2.72065e-06
2.71141e-06
2.70311e-06
2.69563e-06
2.68885e-06
2.68268e-06
2.67706e-06
2.67193e-06
2.66729e-06
2.66309e-06
2.6593e-06
2.65585e-06
2.65273e-06
2.64991e-06
2.64739e-06
2.64515e-06
2.64316e-06
2.64139e-06
2.63979e-06
2.63831e-06
2.63695e-06
2.63567e-06
2.63449e-06
2.63342e-06
2.63251e-06
2.6318e-06
2.6313e-06
2.63102e-06
2.6309e-06
2.63094e-06
2.40316e-06
2.37729e-06
2.35452e-06
2.33441e-06
2.31658e-06
2.30071e-06
2.28651e-06
2.27376e-06
2.26229e-06
2.25196e-06
2.24264e-06
2.23422e-06
2.2266e-06
2.21967e-06
2.21336e-06
2.20761e-06
2.20236e-06
2.19758e-06
2.19322e-06
2.18925e-06
2.18564e-06
2.18235e-06
2.17937e-06
2.17668e-06
2.17427e-06
2.1721e-06
2.17016e-06
2.16841e-06
2.16681e-06
2.16535e-06
2.16401e-06
2.16279e-06
2.1617e-06
2.16077e-06
2.16e-06
2.15942e-06
2.15903e-06
2.15881e-06
5.62762e-06
5.60174e-06
5.57928e-06
5.5596e-06
5.54222e-06
5.5268e-06
5.51302e-06
5.50066e-06
5.48953e-06
5.47947e-06
5.47036e-06
5.46211e-06
5.45463e-06
5.44786e-06
5.44175e-06
5.43621e-06
5.43118e-06
5.42662e-06
5.42249e-06
5.41875e-06
5.41538e-06
5.41236e-06
5.40968e-06
5.40731e-06
5.40521e-06
5.40334e-06
5.40166e-06
5.40015e-06
5.3988e-06
5.39761e-06
5.39659e-06
5.39575e-06
5.39508e-06
5.39458e-06
5.39425e-06
5.39405e-06
5.39395e-06
5.39393e-06
1.03739e-05
1.06138e-05
1.08214e-05
1.10015e-05
1.11585e-05
1.12959e-05
1.14166e-05
1.1523e-05
1.16171e-05
1.17007e-05
1.17752e-05
1.18421e-05
1.19025e-05
1.19573e-05
1.2007e-05
1.20521e-05
1.2093e-05
1.21303e-05
1.21646e-05
1.21962e-05
1.22254e-05
1.22528e-05
1.22783e-05
1.2302e-05
1.23236e-05
1.23432e-05
1.23606e-05
1.2376e-05
1.23898e-05
1.24025e-05
1.24145e-05
1.24261e-05
1.24375e-05
1.24486e-05
1.24593e-05
1.24692e-05
1.2478e-05
1.24853e-05
1.32679e-05
1.36039e-05
1.38953e-05
1.41487e-05
1.43699e-05
1.45639e-05
1.47348e-05
1.48858e-05
1.50197e-05
1.51388e-05
1.52454e-05
1.53413e-05
1.54282e-05
1.55069e-05
1.55782e-05
1.56426e-05
1.5701e-05
1.57544e-05
1.58034e-05
1.58485e-05
1.58903e-05
1.59293e-05
1.59654e-05
1.59988e-05
1.60294e-05
1.60573e-05
1.60823e-05
1.61048e-05
1.61251e-05
1.61438e-05
1.61613e-05
1.61778e-05
1.61937e-05
1.6209e-05
1.62236e-05
1.62373e-05
1.62494e-05
1.62597e-05
1.48841e-05
1.52686e-05
1.56023e-05
1.58927e-05
1.61464e-05
1.63692e-05
1.65656e-05
1.67394e-05
1.68936e-05
1.70311e-05
1.71545e-05
1.7266e-05
1.73669e-05
1.74583e-05
1.75408e-05
1.76152e-05
1.76826e-05
1.77441e-05
1.78003e-05
1.78521e-05
1.79001e-05
1.79447e-05
1.7986e-05
1.80241e-05
1.80593e-05
1.80917e-05
1.81212e-05
1.81479e-05
1.8172e-05
1.8194e-05
1.82143e-05
1.8233e-05
1.82508e-05
1.8268e-05
1.82847e-05
1.83005e-05
1.83148e-05
1.83272e-05
1.57536e-05
1.61623e-05
1.65171e-05
1.68262e-05
1.70966e-05
1.73343e-05
1.75438e-05
1.77292e-05
1.78939e-05
1.80412e-05
1.81737e-05
1.82936e-05
1.84021e-05
1.85001e-05
1.85884e-05
1.8668e-05
1.87399e-05
1.88053e-05
1.88649e-05
1.89197e-05
1.89705e-05
1.90176e-05
1.90612e-05
1.91013e-05
1.91387e-05
1.91736e-05
1.92058e-05
1.92351e-05
1.92616e-05
1.92854e-05
1.93067e-05
1.93261e-05
1.93444e-05
1.93622e-05
1.93797e-05
1.93967e-05
1.94126e-05
1.94267e-05
1.65487e-05
1.69124e-05
1.72298e-05
1.75079e-05
1.77524e-05
1.79679e-05
1.81586e-05
1.83282e-05
1.84801e-05
1.86169e-05
1.87407e-05
1.88525e-05
1.89533e-05
1.9044e-05
1.91257e-05
1.91994e-05
1.92662e-05
1.9327e-05
1.93827e-05
1.94343e-05
1.94821e-05
1.95261e-05
1.95668e-05
1.96049e-05
1.96408e-05
1.96743e-05
1.9705e-05
1.97326e-05
1.97569e-05
1.97782e-05
1.97974e-05
1.98154e-05
1.98331e-05
1.98508e-05
1.98683e-05
1.98852e-05
1.99007e-05
1.65461e-05
1.691e-05
1.72281e-05
1.75074e-05
1.77531e-05
1.79696e-05
1.81611e-05
1.83316e-05
1.84843e-05
1.86219e-05
1.87461e-05
1.88581e-05
1.89587e-05
1.90491e-05
1.91305e-05
1.92039e-05
1.92704e-05
1.93309e-05
1.93862e-05
1.94373e-05
1.94845e-05
1.9528e-05
1.95683e-05
1.96062e-05
1.96418e-05
1.96752e-05
1.97058e-05
1.97331e-05
1.9757e-05
1.97776e-05
1.9796e-05
1.98133e-05
1.98305e-05
1.9848e-05
1.98657e-05
1.98831e-05
1.98996e-05
1.61553e-05
1.65107e-05
1.68219e-05
1.70955e-05
1.73364e-05
1.75488e-05
1.77365e-05
1.79035e-05
1.8053e-05
1.81876e-05
1.83088e-05
1.84178e-05
1.85156e-05
1.8603e-05
1.86816e-05
1.87527e-05
1.88173e-05
1.88761e-05
1.89298e-05
1.89791e-05
1.90245e-05
1.90665e-05
1.91056e-05
1.91421e-05
1.91764e-05
1.92082e-05
1.92373e-05
1.92631e-05
1.92855e-05
1.93049e-05
1.93221e-05
1.93383e-05
1.93547e-05
1.93716e-05
1.9389e-05
1.94065e-05
1.94233e-05
1.9439e-05
1.52596e-05
1.55942e-05
1.58874e-05
1.61454e-05
1.63727e-05
1.6573e-05
1.675e-05
1.69073e-05
1.70479e-05
1.71742e-05
1.72879e-05
1.73898e-05
1.74809e-05
1.75622e-05
1.76352e-05
1.77013e-05
1.77616e-05
1.78166e-05
1.78668e-05
1.79127e-05
1.79549e-05
1.7994e-05
1.80303e-05
1.80641e-05
1.80956e-05
1.81244e-05
1.81506e-05
1.81737e-05
1.81937e-05
1.8211e-05
1.82265e-05
1.82412e-05
1.82563e-05
1.82721e-05
1.82887e-05
1.83056e-05
1.83219e-05
1.83376e-05
1.35952e-05
1.38877e-05
1.41439e-05
1.43693e-05
1.45679e-05
1.47428e-05
1.48971e-05
1.5034e-05
1.51563e-05
1.5266e-05
1.53645e-05
1.54528e-05
1.55315e-05
1.56016e-05
1.56644e-05
1.57213e-05
1.57734e-05
1.58211e-05
1.58645e-05
1.59042e-05
1.59405e-05
1.59741e-05
1.60053e-05
1.60343e-05
1.6061e-05
1.60853e-05
1.6107e-05
1.6126e-05
1.61425e-05
1.61568e-05
1.61696e-05
1.6182e-05
1.61949e-05
1.62088e-05
1.62234e-05
1.62384e-05
1.62532e-05
1.62675e-05
1.06076e-05
1.08159e-05
1.0998e-05
1.1158e-05
1.12986e-05
1.14222e-05
1.15309e-05
1.1627e-05
1.17126e-05
1.17895e-05
1.18584e-05
1.192e-05
1.19749e-05
1.20238e-05
1.20674e-05
1.21069e-05
1.21431e-05
1.21764e-05
1.22068e-05
1.22346e-05
1.22601e-05
1.22836e-05
1.23056e-05
1.23262e-05
1.23452e-05
1.23623e-05
1.23774e-05
1.23903e-05
1.24013e-05
1.24108e-05
1.24193e-05
1.24275e-05
1.24363e-05
1.24462e-05
1.24568e-05
1.2468e-05
1.24792e-05
1.24898e-05
5.60076e-06
5.57822e-06
5.55855e-06
5.5413e-06
5.52607e-06
5.51251e-06
5.50036e-06
5.48944e-06
5.47962e-06
5.47079e-06
5.46283e-06
5.45563e-06
5.4491e-06
5.44313e-06
5.43767e-06
5.43267e-06
5.42813e-06
5.424e-06
5.42024e-06
5.41681e-06
5.41369e-06
5.41086e-06
5.40832e-06
5.40607e-06
5.40408e-06
5.40229e-06
5.40067e-06
5.39918e-06
5.39781e-06
5.39655e-06
5.3954e-06
5.39441e-06
5.39362e-06
5.39308e-06
5.39282e-06
5.39278e-06
5.39291e-06
5.39326e-06
6.09875e-06
6.07472e-06
6.05377e-06
6.03533e-06
6.019e-06
6.00447e-06
5.99147e-06
5.9798e-06
5.96928e-06
5.95977e-06
5.95117e-06
5.94337e-06
5.93631e-06
5.92993e-06
5.92415e-06
5.91892e-06
5.91417e-06
5.90986e-06
5.90595e-06
5.90242e-06
5.89923e-06
5.89638e-06
5.89385e-06
5.89161e-06
5.88963e-06
5.88786e-06
5.88626e-06
5.88482e-06
5.88354e-06
5.8824e-06
5.88143e-06
5.88062e-06
5.87998e-06
5.8795e-06
5.87919e-06
5.87901e-06
5.87893e-06
5.87892e-06
1.8206e-05
1.84671e-05
1.86902e-05
1.88815e-05
1.90466e-05
1.91898e-05
1.93148e-05
1.94244e-05
1.95209e-05
1.96062e-05
1.96822e-05
1.97502e-05
1.98117e-05
1.98674e-05
1.9918e-05
1.99638e-05
2.00053e-05
2.00431e-05
2.00779e-05
2.011e-05
2.014e-05
2.01682e-05
2.01948e-05
2.02198e-05
2.02428e-05
2.02635e-05
2.02818e-05
2.02979e-05
2.03124e-05
2.03256e-05
2.03382e-05
2.03506e-05
2.0363e-05
2.03754e-05
2.03878e-05
2.03996e-05
2.04102e-05
2.04193e-05
2.53908e-05
2.57994e-05
2.61498e-05
2.64515e-05
2.67125e-05
2.69398e-05
2.71387e-05
2.73134e-05
2.74677e-05
2.76044e-05
2.77263e-05
2.78358e-05
2.79347e-05
2.80242e-05
2.81053e-05
2.81785e-05
2.82449e-05
2.83054e-05
2.83609e-05
2.84121e-05
2.84597e-05
2.85041e-05
2.85455e-05
2.85841e-05
2.86197e-05
2.86521e-05
2.86815e-05
2.87079e-05
2.87318e-05
2.87538e-05
2.87744e-05
2.8794e-05
2.88131e-05
2.88317e-05
2.88498e-05
2.8867e-05
2.88827e-05
2.88965e-05
2.94295e-05
2.99275e-05
3.03558e-05
3.07255e-05
3.10463e-05
3.13262e-05
3.15716e-05
3.17878e-05
3.19789e-05
3.21487e-05
3.23007e-05
3.24376e-05
3.25613e-05
3.26732e-05
3.27742e-05
3.28653e-05
3.29478e-05
3.30229e-05
3.30916e-05
3.31549e-05
3.32136e-05
3.32682e-05
3.3319e-05
3.33662e-05
3.34098e-05
3.34501e-05
3.34871e-05
3.35207e-05
3.35512e-05
3.35791e-05
3.36048e-05
3.36288e-05
3.36517e-05
3.3674e-05
3.36958e-05
3.37168e-05
3.37363e-05
3.37538e-05
3.16452e-05
3.21918e-05
3.26629e-05
3.30704e-05
3.34248e-05
3.37346e-05
3.40066e-05
3.42463e-05
3.44585e-05
3.46477e-05
3.48175e-05
3.49706e-05
3.51089e-05
3.52339e-05
3.53464e-05
3.54478e-05
3.55394e-05
3.56227e-05
3.56986e-05
3.57684e-05
3.5833e-05
3.58931e-05
3.59488e-05
3.60004e-05
3.60486e-05
3.60935e-05
3.61352e-05
3.61734e-05
3.62081e-05
3.62394e-05
3.62677e-05
3.62937e-05
3.63182e-05
3.63422e-05
3.63659e-05
3.63891e-05
3.64113e-05
3.64316e-05
3.31887e-05
3.36786e-05
3.41033e-05
3.44735e-05
3.47974e-05
3.50818e-05
3.53327e-05
3.5555e-05
3.57535e-05
3.59319e-05
3.60928e-05
3.6238e-05
3.63688e-05
3.64865e-05
3.65924e-05
3.6688e-05
3.67746e-05
3.68534e-05
3.69257e-05
3.69926e-05
3.70546e-05
3.7112e-05
3.71653e-05
3.72152e-05
3.72622e-05
3.73061e-05
3.73466e-05
3.73832e-05
3.74158e-05
3.74447e-05
3.74709e-05
3.74956e-05
3.75199e-05
3.75441e-05
3.75684e-05
3.75922e-05
3.76146e-05
3.3185e-05
3.36752e-05
3.41009e-05
3.44725e-05
3.4798e-05
3.50838e-05
3.53358e-05
3.55593e-05
3.57589e-05
3.59383e-05
3.60998e-05
3.62453e-05
3.63761e-05
3.64934e-05
3.65989e-05
3.66941e-05
3.67803e-05
3.68587e-05
3.69305e-05
3.69967e-05
3.7058e-05
3.71147e-05
3.71675e-05
3.7217e-05
3.72637e-05
3.73074e-05
3.73477e-05
3.7384e-05
3.74159e-05
3.7444e-05
3.74692e-05
3.74929e-05
3.75164e-05
3.75403e-05
3.75647e-05
3.75891e-05
3.76126e-05
3.21821e-05
3.26539e-05
3.3064e-05
3.34223e-05
3.37364e-05
3.40122e-05
3.42551e-05
3.44705e-05
3.46626e-05
3.4835e-05
3.49901e-05
3.51294e-05
3.52541e-05
3.53658e-05
3.5466e-05
3.55565e-05
3.56386e-05
3.57134e-05
3.57818e-05
3.58446e-05
3.59026e-05
3.59564e-05
3.60065e-05
3.60535e-05
3.60976e-05
3.61388e-05
3.61764e-05
3.62102e-05
3.62397e-05
3.62655e-05
3.62885e-05
3.63103e-05
3.63322e-05
3.63548e-05
3.63784e-05
3.64025e-05
3.6426e-05
3.64484e-05
2.99149e-05
3.03442e-05
3.07173e-05
3.10433e-05
3.1329e-05
3.15797e-05
3.18002e-05
3.19953e-05
3.21692e-05
3.23249e-05
3.24647e-05
3.259e-05
3.27019e-05
3.28017e-05
3.2891e-05
3.29718e-05
3.30454e-05
3.31125e-05
3.31738e-05
3.323e-05
3.32818e-05
3.33298e-05
3.33746e-05
3.34166e-05
3.34557e-05
3.34919e-05
3.35246e-05
3.35538e-05
3.35791e-05
3.36011e-05
3.36208e-05
3.36395e-05
3.36587e-05
3.3679e-05
3.37006e-05
3.3723e-05
3.37452e-05
3.37666e-05
2.57873e-05
2.61387e-05
2.64436e-05
2.67098e-05
2.69428e-05
2.71468e-05
2.73259e-05
2.7484e-05
2.76245e-05
2.77503e-05
2.7863e-05
2.79638e-05
2.80536e-05
2.81334e-05
2.82047e-05
2.82692e-05
2.8328e-05
2.83819e-05
2.84312e-05
2.84763e-05
2.85177e-05
2.85562e-05
2.85923e-05
2.86261e-05
2.86575e-05
2.86861e-05
2.87117e-05
2.87341e-05
2.87534e-05
2.877e-05
2.87847e-05
2.87989e-05
2.88139e-05
2.88303e-05
2.88482e-05
2.88671e-05
2.88862e-05
2.89047e-05
1.84587e-05
1.8682e-05
1.88753e-05
1.9044e-05
1.91912e-05
1.93197e-05
1.94319e-05
1.95307e-05
1.96184e-05
1.96969e-05
1.97672e-05
1.983e-05
1.98857e-05
1.99351e-05
1.9979e-05
2.00186e-05
2.00551e-05
2.00888e-05
2.01198e-05
2.01484e-05
2.01748e-05
2.01995e-05
2.0223e-05
2.02454e-05
2.02663e-05
2.02852e-05
2.03016e-05
2.03154e-05
2.03267e-05
2.03361e-05
2.0344e-05
2.03518e-05
2.03605e-05
2.03708e-05
2.03828e-05
2.0396e-05
2.04095e-05
2.04226e-05
6.07385e-06
6.05281e-06
6.03437e-06
6.01815e-06
6.0038e-06
5.991e-06
5.97952e-06
5.96918e-06
5.95987e-06
5.9515e-06
5.94395e-06
5.93713e-06
5.93093e-06
5.92527e-06
5.92009e-06
5.91536e-06
5.91106e-06
5.90716e-06
5.90362e-06
5.90039e-06
5.89746e-06
5.89481e-06
5.89245e-06
5.89036e-06
5.88851e-06
5.88686e-06
5.88536e-06
5.88398e-06
5.88269e-06
5.8815e-06
5.88042e-06
5.87947e-06
5.8787e-06
5.87816e-06
5.8779e-06
5.87785e-06
5.87795e-06
5.87828e-06
6.40012e-06
6.3755e-06
6.35406e-06
6.33521e-06
6.31854e-06
6.30372e-06
6.29048e-06
6.2786e-06
6.26791e-06
6.25827e-06
6.24955e-06
6.24166e-06
6.23452e-06
6.22808e-06
6.22225e-06
6.21698e-06
6.21219e-06
6.20785e-06
6.20391e-06
6.20035e-06
6.19714e-06
6.19426e-06
6.19171e-06
6.18946e-06
6.18746e-06
6.18566e-06
6.18405e-06
6.18259e-06
6.18129e-06
6.18014e-06
6.17914e-06
6.17831e-06
6.17765e-06
6.17716e-06
6.17682e-06
6.17663e-06
6.17653e-06
6.17651e-06
2.37747e-05
2.40136e-05
2.42179e-05
2.43933e-05
2.45447e-05
2.46761e-05
2.47908e-05
2.48914e-05
2.498e-05
2.50585e-05
2.51284e-05
2.51913e-05
2.52481e-05
2.52996e-05
2.53466e-05
2.53891e-05
2.54277e-05
2.54629e-05
2.54953e-05
2.55253e-05
2.55535e-05
2.55801e-05
2.56056e-05
2.56297e-05
2.5652e-05
2.56719e-05
2.56895e-05
2.5705e-05
2.57188e-05
2.57315e-05
2.57435e-05
2.57554e-05
2.57675e-05
2.57799e-05
2.57923e-05
2.58042e-05
2.58149e-05
2.5824e-05
3.50067e-05
3.5414e-05
3.57633e-05
3.60642e-05
3.63245e-05
3.6551e-05
3.67492e-05
3.69234e-05
3.70771e-05
3.72133e-05
3.73349e-05
3.74441e-05
3.75428e-05
3.76323e-05
3.77133e-05
3.77866e-05
3.78531e-05
3.79138e-05
3.79695e-05
3.8021e-05
3.80689e-05
3.81138e-05
3.81559e-05
3.81952e-05
3.82317e-05
3.8265e-05
3.82952e-05
3.83225e-05
3.83473e-05
3.83702e-05
3.83916e-05
3.84121e-05
3.84321e-05
3.84517e-05
3.8471e-05
3.84895e-05
3.85065e-05
3.85216e-05
4.15935e-05
4.21132e-05
4.25615e-05
4.29483e-05
4.32841e-05
4.35771e-05
4.3834e-05
4.40601e-05
4.42601e-05
4.44378e-05
4.45969e-05
4.474e-05
4.48694e-05
4.49865e-05
4.50923e-05
4.51879e-05
4.52745e-05
4.53533e-05
4.54256e-05
4.54922e-05
4.55539e-05
4.56115e-05
4.56653e-05
4.57153e-05
4.57618e-05
4.58048e-05
4.58443e-05
4.58804e-05
4.59134e-05
4.59436e-05
4.59716e-05
4.59978e-05
4.60229e-05
4.60475e-05
4.60715e-05
4.60948e-05
4.61167e-05
4.61367e-05
4.5284e-05
4.5871e-05
4.63776e-05
4.68164e-05
4.7198e-05
4.75318e-05
4.78248e-05
4.80831e-05
4.83118e-05
4.85157e-05
4.86985e-05
4.88633e-05
4.90122e-05
4.91467e-05
4.9268e-05
4.93774e-05
4.94763e-05
4.95663e-05
4.96484e-05
4.9724e-05
4.97939e-05
4.9859e-05
4.99195e-05
4.99758e-05
5.00283e-05
5.00773e-05
5.01229e-05
5.01649e-05
5.02032e-05
5.02379e-05
5.02696e-05
5.02988e-05
5.03266e-05
5.03537e-05
5.03805e-05
5.04069e-05
5.04322e-05
5.04559e-05
4.75503e-05
4.80836e-05
4.85469e-05
4.89506e-05
4.93042e-05
4.96148e-05
4.98888e-05
5.01318e-05
5.03486e-05
5.05432e-05
5.07187e-05
5.08771e-05
5.10199e-05
5.11484e-05
5.12642e-05
5.13688e-05
5.14637e-05
5.15501e-05
5.16295e-05
5.17029e-05
5.17709e-05
5.18341e-05
5.18929e-05
5.1948e-05
5.19998e-05
5.20483e-05
5.20931e-05
5.21338e-05
5.21704e-05
5.22032e-05
5.22332e-05
5.22616e-05
5.22893e-05
5.23171e-05
5.2345e-05
5.23724e-05
5.23986e-05
4.75464e-05
4.80798e-05
4.85441e-05
4.89494e-05
4.93046e-05
4.96168e-05
4.98921e-05
5.01363e-05
5.03543e-05
5.055e-05
5.07263e-05
5.08851e-05
5.10279e-05
5.11561e-05
5.12715e-05
5.13756e-05
5.14701e-05
5.15561e-05
5.16348e-05
5.17075e-05
5.17748e-05
5.18373e-05
5.18955e-05
5.19501e-05
5.20016e-05
5.20498e-05
5.20943e-05
5.21346e-05
5.21705e-05
5.22023e-05
5.22312e-05
5.22584e-05
5.22854e-05
5.23127e-05
5.23407e-05
5.23688e-05
5.23962e-05
4.58603e-05
4.63676e-05
4.68091e-05
4.71948e-05
4.75331e-05
4.78303e-05
4.80923e-05
4.83244e-05
4.85315e-05
4.87172e-05
4.88843e-05
4.90343e-05
4.91689e-05
4.92894e-05
4.93976e-05
4.94953e-05
4.95841e-05
4.96649e-05
4.97389e-05
4.98069e-05
4.98699e-05
4.99283e-05
4.99829e-05
5.00341e-05
5.00822e-05
5.0127e-05
5.01682e-05
5.02053e-05
5.0238e-05
5.02669e-05
5.02928e-05
5.03175e-05
5.03422e-05
5.03677e-05
5.03944e-05
5.04218e-05
5.0449e-05
5.04751e-05
4.20992e-05
4.25485e-05
4.29388e-05
4.328e-05
4.35792e-05
4.38418e-05
4.40728e-05
4.42773e-05
4.44594e-05
4.46225e-05
4.47689e-05
4.49002e-05
4.50175e-05
4.51222e-05
4.52161e-05
4.53009e-05
4.5378e-05
4.54485e-05
4.55129e-05
4.5572e-05
4.56266e-05
4.56774e-05
4.5725e-05
4.57696e-05
4.58113e-05
4.58499e-05
4.58849e-05
4.59161e-05
4.59434e-05
4.59671e-05
4.59885e-05
4.60089e-05
4.60298e-05
4.60521e-05
4.6076e-05
4.6101e-05
4.61261e-05
4.61506e-05
3.54004e-05
3.57507e-05
3.60548e-05
3.63204e-05
3.65531e-05
3.67569e-05
3.69359e-05
3.70938e-05
3.72342e-05
3.73599e-05
3.74726e-05
3.75734e-05
3.76632e-05
3.77432e-05
3.78146e-05
3.78791e-05
3.79379e-05
3.79918e-05
3.80412e-05
3.80865e-05
3.81284e-05
3.81675e-05
3.82043e-05
3.8239e-05
3.82713e-05
3.83009e-05
3.83272e-05
3.83501e-05
3.83697e-05
3.83865e-05
3.84014e-05
3.84158e-05
3.84311e-05
3.84482e-05
3.84673e-05
3.84878e-05
3.85089e-05
3.85294e-05
2.40041e-05
2.42086e-05
2.43862e-05
2.45414e-05
2.46772e-05
2.47957e-05
2.48992e-05
2.49903e-05
2.50714e-05
2.51441e-05
2.52093e-05
2.52674e-05
2.5319e-05
2.53647e-05
2.54053e-05
2.54419e-05
2.54755e-05
2.55067e-05
2.55356e-05
2.55623e-05
2.55871e-05
2.56106e-05
2.56334e-05
2.56553e-05
2.56758e-05
2.56942e-05
2.57099e-05
2.57227e-05
2.57329e-05
2.57408e-05
2.57474e-05
2.57539e-05
2.57616e-05
2.57715e-05
2.57837e-05
2.57973e-05
2.58116e-05
2.58255e-05
6.37467e-06
6.35313e-06
6.33429e-06
6.31773e-06
6.30308e-06
6.29004e-06
6.27834e-06
6.26781e-06
6.25835e-06
6.24985e-06
6.2422e-06
6.23527e-06
6.22898e-06
6.22324e-06
6.21801e-06
6.21324e-06
6.2089e-06
6.20498e-06
6.20141e-06
6.19817e-06
6.19523e-06
6.19258e-06
6.19022e-06
6.18814e-06
6.1863e-06
6.18465e-06
6.18315e-06
6.18176e-06
6.18046e-06
6.17925e-06
6.17814e-06
6.17717e-06
6.17638e-06
6.17581e-06
6.17551e-06
6.17545e-06
6.17554e-06
6.17584e-06
6.60398e-06
6.57824e-06
6.55583e-06
6.53615e-06
6.51874e-06
6.50327e-06
6.48946e-06
6.47708e-06
6.46595e-06
6.4559e-06
6.44684e-06
6.43864e-06
6.43126e-06
6.42463e-06
6.41864e-06
6.41323e-06
6.40832e-06
6.40387e-06
6.39983e-06
6.39619e-06
6.3929e-06
6.38996e-06
6.38734e-06
6.38503e-06
6.38298e-06
6.38113e-06
6.37947e-06
6.37797e-06
6.37663e-06
6.37544e-06
6.37442e-06
6.37355e-06
6.37285e-06
6.37232e-06
6.37195e-06
6.37172e-06
6.37159e-06
6.37154e-06
2.78151e-05
2.80276e-05
2.82097e-05
2.83676e-05
2.85046e-05
2.86243e-05
2.87292e-05
2.88216e-05
2.89034e-05
2.89761e-05
2.90412e-05
2.90998e-05
2.91528e-05
2.92007e-05
2.92446e-05
2.92844e-05
2.93205e-05
2.93535e-05
2.93839e-05
2.94121e-05
2.94386e-05
2.9464e-05
2.94884e-05
2.95118e-05
2.95333e-05
2.95525e-05
2.95694e-05
2.95843e-05
2.95977e-05
2.96099e-05
2.96215e-05
2.9633e-05
2.96447e-05
2.96567e-05
2.96687e-05
2.96802e-05
2.96902e-05
2.96986e-05
4.2601e-05
4.29788e-05
4.33061e-05
4.35879e-05
4.38327e-05
4.40461e-05
4.42332e-05
4.43978e-05
4.45433e-05
4.46726e-05
4.47881e-05
4.48921e-05
4.49861e-05
4.50715e-05
4.5149e-05
4.52192e-05
4.5283e-05
4.53413e-05
4.53949e-05
4.54444e-05
4.54906e-05
4.55341e-05
4.5575e-05
4.56134e-05
4.5649e-05
4.56817e-05
4.57113e-05
4.57382e-05
4.57627e-05
4.57853e-05
4.58066e-05
4.58268e-05
4.58467e-05
4.58662e-05
4.58854e-05
4.59037e-05
4.59207e-05
4.59357e-05
5.16121e-05
5.21084e-05
5.25444e-05
5.29212e-05
5.32488e-05
5.35353e-05
5.37867e-05
5.40085e-05
5.42048e-05
5.43795e-05
5.4536e-05
5.46769e-05
5.48043e-05
5.49197e-05
5.50242e-05
5.51187e-05
5.52044e-05
5.52826e-05
5.53543e-05
5.54204e-05
5.54818e-05
5.55392e-05
5.55928e-05
5.56428e-05
5.56893e-05
5.57325e-05
5.57722e-05
5.58086e-05
5.5842e-05
5.58727e-05
5.59011e-05
5.59279e-05
5.59536e-05
5.59787e-05
5.60033e-05
5.60271e-05
5.60496e-05
5.60702e-05
5.67736e-05
5.73514e-05
5.78513e-05
5.82905e-05
5.86715e-05
5.90058e-05
5.92996e-05
5.95591e-05
5.97892e-05
5.99944e-05
6.01785e-05
6.03444e-05
6.04944e-05
6.063e-05
6.07524e-05
6.0863e-05
6.09632e-05
6.10543e-05
6.11376e-05
6.12143e-05
6.12854e-05
6.13515e-05
6.1413e-05
6.14703e-05
6.15239e-05
6.15739e-05
6.16204e-05
6.16633e-05
6.17027e-05
6.17386e-05
6.17714e-05
6.1802e-05
6.1831e-05
6.18593e-05
6.18872e-05
6.19147e-05
6.19411e-05
6.19661e-05
5.9728e-05
6.02588e-05
6.07281e-05
6.11356e-05
6.14939e-05
6.18091e-05
6.20876e-05
6.23348e-05
6.25556e-05
6.27538e-05
6.29325e-05
6.30938e-05
6.32394e-05
6.33706e-05
6.34889e-05
6.35959e-05
6.36931e-05
6.37818e-05
6.38632e-05
6.39385e-05
6.40083e-05
6.40733e-05
6.41338e-05
6.41905e-05
6.42438e-05
6.42935e-05
6.43396e-05
6.43816e-05
6.44197e-05
6.44542e-05
6.44858e-05
6.45158e-05
6.45451e-05
6.45744e-05
6.46036e-05
6.46325e-05
6.46604e-05
5.9724e-05
6.0255e-05
6.07253e-05
6.11343e-05
6.14943e-05
6.1811e-05
6.20909e-05
6.23394e-05
6.25614e-05
6.27607e-05
6.29402e-05
6.3102e-05
6.32476e-05
6.33786e-05
6.34965e-05
6.36031e-05
6.36999e-05
6.3788e-05
6.38689e-05
6.39434e-05
6.40125e-05
6.40767e-05
6.41366e-05
6.41928e-05
6.42456e-05
6.42951e-05
6.43407e-05
6.43823e-05
6.44196e-05
6.4453e-05
6.44835e-05
6.45123e-05
6.45408e-05
6.45696e-05
6.4599e-05
6.46286e-05
6.46578e-05
5.73407e-05
5.78411e-05
5.8283e-05
5.8668e-05
5.90069e-05
5.93051e-05
5.95684e-05
5.9802e-05
6.00106e-05
6.01977e-05
6.03659e-05
6.05173e-05
6.06531e-05
6.07749e-05
6.08844e-05
6.09833e-05
6.10732e-05
6.11551e-05
6.12301e-05
6.12992e-05
6.13631e-05
6.14225e-05
6.14781e-05
6.15302e-05
6.15791e-05
6.16247e-05
6.16666e-05
6.17044e-05
6.1738e-05
6.17678e-05
6.17949e-05
6.18207e-05
6.18465e-05
6.18732e-05
6.19011e-05
6.19297e-05
6.19584e-05
6.19862e-05
5.20941e-05
5.25309e-05
5.29111e-05
5.32442e-05
5.35369e-05
5.37944e-05
5.40213e-05
5.42224e-05
5.44017e-05
5.45623e-05
5.47066e-05
5.48361e-05
5.4952e-05
5.50556e-05
5.51485e-05
5.52324e-05
5.53088e-05
5.53785e-05
5.54424e-05
5.5501e-05
5.55553e-05
5.56059e-05
5.56533e-05
5.56979e-05
5.57396e-05
5.57781e-05
5.5813e-05
5.58441e-05
5.58714e-05
5.58953e-05
5.59169e-05
5.59376e-05
5.59589e-05
5.59817e-05
5.60063e-05
5.60321e-05
5.60583e-05
5.6084e-05
4.29646e-05
4.32928e-05
4.35779e-05
4.38282e-05
4.40479e-05
4.42409e-05
4.44106e-05
4.45607e-05
4.46944e-05
4.48142e-05
4.49217e-05
4.5018e-05
4.51039e-05
4.51805e-05
4.5249e-05
4.53108e-05
4.53671e-05
4.54188e-05
4.54661e-05
4.55096e-05
4.55499e-05
4.55877e-05
4.56235e-05
4.56573e-05
4.56888e-05
4.57175e-05
4.5743e-05
4.5765e-05
4.57837e-05
4.57996e-05
4.58137e-05
4.58274e-05
4.58423e-05
4.58593e-05
4.58786e-05
4.58996e-05
4.59213e-05
4.59425e-05
2.80185e-05
2.82007e-05
2.83608e-05
2.85018e-05
2.86258e-05
2.87346e-05
2.88302e-05
2.89148e-05
2.89903e-05
2.90582e-05
2.91192e-05
2.91738e-05
2.92224e-05
2.92654e-05
2.93034e-05
2.93376e-05
2.93691e-05
2.93982e-05
2.94251e-05
2.94499e-05
2.9473e-05
2.94953e-05
2.9517e-05
2.95381e-05
2.95576e-05
2.95749e-05
2.95895e-05
2.96011e-05
2.96097e-05
2.96161e-05
2.96213e-05
2.96266e-05
2.96336e-05
2.96432e-05
2.96554e-05
2.96696e-05
2.96844e-05
2.96988e-05
6.57732e-06
6.55481e-06
6.53516e-06
6.51791e-06
6.50267e-06
6.48908e-06
6.4769e-06
6.46595e-06
6.45611e-06
6.44728e-06
6.43933e-06
6.43214e-06
6.4256e-06
6.41964e-06
6.41424e-06
6.40934e-06
6.4049e-06
6.40087e-06
6.39721e-06
6.3939e-06
6.39089e-06
6.38819e-06
6.38578e-06
6.38366e-06
6.38178e-06
6.38009e-06
6.37854e-06
6.37711e-06
6.37576e-06
6.37451e-06
6.37335e-06
6.37233e-06
6.37149e-06
6.37089e-06
6.37056e-06
6.37048e-06
6.37054e-06
6.37081e-06
6.74764e-06
6.72041e-06
6.69675e-06
6.67603e-06
6.65772e-06
6.64148e-06
6.627e-06
6.61403e-06
6.60238e-06
6.59189e-06
6.58244e-06
6.5739e-06
6.56621e-06
6.55928e-06
6.55304e-06
6.5474e-06
6.54229e-06
6.53767e-06
6.53351e-06
6.52976e-06
6.52637e-06
6.52334e-06
6.52064e-06
6.51825e-06
6.51613e-06
6.51422e-06
6.5125e-06
6.51095e-06
6.50956e-06
6.50834e-06
6.50727e-06
6.50637e-06
6.50563e-06
6.50505e-06
6.50464e-06
6.50437e-06
6.50421e-06
6.5041e-06
3.0878e-05
3.10588e-05
3.12145e-05
3.13524e-05
3.14733e-05
3.15791e-05
3.16723e-05
3.17548e-05
3.18281e-05
3.18936e-05
3.19524e-05
3.20056e-05
3.2054e-05
3.20982e-05
3.21387e-05
3.21757e-05
3.22092e-05
3.22398e-05
3.22677e-05
3.22936e-05
3.2318e-05
3.23415e-05
3.23644e-05
3.23864e-05
3.24067e-05
3.24248e-05
3.24408e-05
3.2455e-05
3.24678e-05
3.24794e-05
3.24904e-05
3.25012e-05
3.25121e-05
3.25234e-05
3.25344e-05
3.25447e-05
3.25535e-05
3.25606e-05
4.8678e-05
4.90113e-05
4.93003e-05
4.95494e-05
4.97706e-05
4.99627e-05
5.01317e-05
5.0281e-05
5.04132e-05
5.05309e-05
5.06365e-05
5.07316e-05
5.08179e-05
5.08964e-05
5.09679e-05
5.10329e-05
5.1092e-05
5.11461e-05
5.11958e-05
5.1242e-05
5.12851e-05
5.13257e-05
5.13642e-05
5.14004e-05
5.14341e-05
5.1465e-05
5.14932e-05
5.15188e-05
5.15422e-05
5.15638e-05
5.15841e-05
5.16035e-05
5.16224e-05
5.1641e-05
5.16591e-05
5.16764e-05
5.16922e-05
5.17062e-05
5.98938e-05
6.03494e-05
6.07486e-05
6.10944e-05
6.13962e-05
6.16634e-05
6.18974e-05
6.21047e-05
6.22883e-05
6.24522e-05
6.25991e-05
6.27316e-05
6.28516e-05
6.29604e-05
6.30591e-05
6.31486e-05
6.32299e-05
6.33042e-05
6.33723e-05
6.34353e-05
6.34938e-05
6.35486e-05
6.35998e-05
6.36478e-05
6.36925e-05
6.37339e-05
6.37722e-05
6.38073e-05
6.38396e-05
6.38694e-05
6.38972e-05
6.39233e-05
6.39483e-05
6.39727e-05
6.39965e-05
6.40195e-05
6.40412e-05
6.40611e-05
6.64601e-05
6.69984e-05
6.74699e-05
6.78824e-05
6.82402e-05
6.85587e-05
6.88383e-05
6.9086e-05
6.9306e-05
6.95026e-05
6.96791e-05
6.98382e-05
6.99822e-05
7.01126e-05
7.02305e-05
7.03371e-05
7.04339e-05
7.0522e-05
7.06028e-05
7.06771e-05
7.0746e-05
7.08101e-05
7.08699e-05
7.09256e-05
7.09777e-05
7.10264e-05
7.10716e-05
7.11135e-05