/*--------------------------------*- C++ -*----------------------------------*\
| =========                 |                                                 |
| \\      /  F ield         | OpenFOAM: The Open Source CFD Toolbox           |
|  \\    /   O peration     | Version:  2.3.1                                 |
|   \\  /    A nd           | Web:      www.OpenFOAM.org                      |
|    \\/     M anipulation  |                                                 |
\*---------------------------------------------------------------------------*/
FoamFile
{
    version     2.0;
    format      ascii;
    class       surfaceScalarField;
    location    "20";
    object      phi;
}
// * * * * * * * * * * * * * * * * * * * * * * * * * * * * * * * * * * * * * //

dimensions      [0 3 -1 0 0 0 0];

internalField   nonuniform List<scalar> 
110041
(
1.64601e-06
2.64239e-08
8.26548e-08
1.55069e-06
2.34409e-08
7.18865e-08
1.46703e-06
2.08673e-08
6.27915e-08
1.3933e-06
1.86464e-08
5.50791e-08
1.32807e-06
1.672e-08
4.85087e-08
1.27014e-06
1.50395e-08
4.28884e-08
1.21852e-06
1.35662e-08
3.80629e-08
1.17234e-06
1.22682e-08
3.3902e-08
1.13093e-06
1.11197e-08
3.02959e-08
1.09368e-06
1.00984e-08
2.71544e-08
1.06009e-06
9.18364e-09
2.44045e-08
1.02975e-06
8.35764e-09
2.19851e-08
1.00229e-06
7.60949e-09
1.98426e-08
9.77426e-07
6.93548e-09
1.7932e-08
9.54871e-07
6.33477e-09
1.62201e-08
9.34384e-07
5.80339e-09
1.46834e-08
9.15752e-07
5.33142e-09
1.33011e-08
8.98791e-07
4.90675e-09
1.20537e-08
8.83346e-07
4.52004e-09
1.09258e-08
8.69278e-07
4.16336e-09
9.9044e-09
8.56475e-07
3.82804e-09
8.9751e-09
8.44843e-07
3.50881e-09
8.12266e-09
8.34299e-07
3.20634e-09
7.33833e-09
8.24754e-07
2.92289e-09
6.62159e-09
8.1612e-07
2.65982e-09
5.97429e-09
8.08305e-07
2.42024e-09
5.39449e-09
8.01222e-07
2.20871e-09
4.87509e-09
7.94788e-07
2.0268e-09
4.40647e-09
7.88939e-07
1.86954e-09
3.97957e-09
7.83625e-07
1.72715e-09
3.5866e-09
7.78815e-07
1.58985e-09
3.22098e-09
7.74486e-07
1.44939e-09
2.87881e-09
7.70629e-07
1.29776e-09
2.55981e-09
7.67232e-07
1.12974e-09
2.26725e-09
7.64277e-07
9.47154e-10
2.0073e-09
7.61736e-07
7.57112e-10
1.78457e-09
7.59564e-07
5.70679e-10
1.60118e-09
3.96909e-10
1.45264e-09
1.76479e-06
3.3039e-08
1.07056e-07
1.6655e-06
2.91697e-08
9.35663e-08
1.57838e-06
2.58572e-08
8.21289e-08
1.50162e-06
2.30202e-08
7.23867e-08
1.43372e-06
2.05771e-08
6.40472e-08
1.37342e-06
1.84582e-08
5.68785e-08
1.31969e-06
1.66076e-08
5.06917e-08
1.27164e-06
1.49814e-08
4.53286e-08
1.22856e-06
1.35441e-08
4.06591e-08
1.18982e-06
1.22635e-08
3.6577e-08
1.1549e-06
1.11116e-08
3.29911e-08
1.12337e-06
1.00691e-08
2.98191e-08
1.09486e-06
9.12811e-09
2.69927e-08
1.06904e-06
8.28826e-09
2.44622e-08
1.04563e-06
7.54991e-09
2.21933e-08
1.02437e-06
6.90772e-09
2.01551e-08
1.00504e-06
6.34808e-09
1.83157e-08
9.87448e-07
5.85418e-09
1.66468e-08
9.71428e-07
5.41209e-09
1.51284e-08
9.56839e-07
5.00982e-09
1.37421e-08
9.43566e-07
4.63557e-09
1.24657e-08
9.31509e-07
4.28185e-09
1.12841e-08
9.20573e-07
3.94652e-09
1.01957e-08
9.10664e-07
3.62822e-09
9.20342e-09
9.01692e-07
3.32598e-09
8.3064e-09
8.93567e-07
3.04325e-09
7.50184e-09
8.86203e-07
2.78731e-09
6.78522e-09
8.7952e-07
2.56361e-09
6.14618e-09
8.73451e-07
2.37156e-09
5.56644e-09
8.67949e-07
2.20512e-09
5.02449e-09
8.62978e-07
2.05492e-09
4.50603e-09
8.58513e-07
1.90725e-09
4.00746e-09
8.54536e-07
1.74438e-09
3.5302e-09
8.51034e-07
1.55203e-09
3.0799e-09
8.47986e-07
1.32724e-09
2.66707e-09
8.45365e-07
1.07791e-09
2.30055e-09
8.43129e-07
8.2004e-10
1.98672e-09
5.68928e-10
1.72666e-09
1.78834e-06
2.88473e-08
1.18351e-07
1.68862e-06
2.53755e-08
1.0352e-07
1.6011e-06
2.24108e-08
9.09607e-08
1.52398e-06
1.98745e-08
8.02743e-08
1.45573e-06
1.76918e-08
7.11328e-08
1.39511e-06
1.58005e-08
6.32713e-08
1.3411e-06
1.41505e-08
5.64762e-08
1.2928e-06
1.27015e-08
5.05765e-08
1.24949e-06
1.14178e-08
4.54358e-08
1.21055e-06
1.02675e-08
4.09372e-08
1.17546e-06
9.22718e-09
3.6973e-08
1.14379e-06
8.28632e-09
3.34495e-08
1.11518e-06
7.44499e-09
3.02989e-08
1.08928e-06
6.70581e-09
2.74779e-08
1.06581e-06
6.06825e-09
2.49563e-08
1.04449e-06
5.52595e-09
2.2701e-08
1.0251e-06
5.06654e-09
2.06701e-08
1.00745e-06
4.67538e-09
1.88251e-08
9.91384e-07
4.33882e-09
1.71415e-08
9.76752e-07
4.04304e-09
1.55989e-08
9.63439e-07
3.77509e-09
1.41737e-08
9.51342e-07
3.52699e-09
1.28516e-08
9.40363e-07
3.29407e-09
1.16319e-08
9.30406e-07
3.06991e-09
1.05154e-08
9.21384e-07
2.84828e-09
9.49957e-09
9.13214e-07
2.62965e-09
8.58341e-09
9.05813e-07
2.42228e-09
7.76568e-09
8.99103e-07
2.23719e-09
7.03646e-09
8.93018e-07
2.08265e-09
6.37423e-09
8.87506e-07
1.9608e-09
5.75576e-09
8.82527e-07
1.8649e-09
5.16933e-09
8.78047e-07
1.77707e-09
4.61055e-09
8.74046e-07
1.67233e-09
4.07282e-09
8.70514e-07
1.52931e-09
3.55457e-09
8.67437e-07
1.33882e-09
3.06529e-09
8.64791e-07
1.10509e-09
2.61892e-09
8.62537e-07
8.42799e-10
2.23098e-09
5.70935e-10
1.91035e-09
1.79459e-06
2.05128e-08
1.22343e-07
1.69499e-06
1.79935e-08
1.0699e-07
1.60755e-06
1.58281e-08
9.40161e-08
1.53047e-06
1.39577e-08
8.29969e-08
1.46225e-06
1.23322e-08
7.35821e-08
1.40165e-06
1.09142e-08
6.54891e-08
1.34763e-06
9.67313e-09
5.84937e-08
1.29933e-06
8.57969e-09
5.24212e-08
1.25601e-06
7.60464e-09
4.71294e-08
1.21707e-06
6.72425e-09
4.24886e-08
1.18199e-06
5.92682e-09
3.83812e-08
1.15035e-06
5.21282e-09
3.47165e-08
1.12177e-06
4.58719e-09
3.14368e-08
1.09591e-06
4.05164e-09
2.8507e-08
1.07248e-06
3.60269e-09
2.58985e-08
1.0512e-06
3.23329e-09
2.3575e-08
1.03184e-06
2.93484e-09
2.14887e-08
1.01422e-06
2.69837e-09
1.95972e-08
9.98173e-07
2.51299e-09
1.78743e-08
9.83555e-07
2.36508e-09
1.62961e-08
9.70252e-07
2.24238e-09
1.48356e-08
9.58161e-07
2.13769e-09
1.34804e-08
9.47178e-07
2.04495e-09
1.22315e-08
9.37209e-07
1.95432e-09
1.10845e-08
9.28173e-07
1.85582e-09
1.00291e-08
9.19993e-07
1.74695e-09
9.06205e-09
9.12593e-07
1.63533e-09
8.18681e-09
9.05895e-07
1.53494e-09
7.40065e-09
8.99829e-07
1.45984e-09
6.689e-09
8.94336e-07
1.4172e-09
6.0363e-09
8.89365e-07
1.4007e-09
5.43562e-09
8.84875e-07
1.38998e-09
4.87658e-09
8.8085e-07
1.35836e-09
4.33899e-09
8.77286e-07
1.28307e-09
3.81062e-09
8.74176e-07
1.15147e-09
3.29687e-09
8.71504e-07
9.63219e-10
2.81385e-09
8.69235e-07
7.28943e-10
2.38281e-09
4.68442e-10
2.01789e-09
1.79622e-06
1.23588e-07
1.69678e-06
9.37551e-09
1.08061e-07
1.60947e-06
8.18159e-09
9.49528e-08
1.53249e-06
7.11607e-09
8.3823e-08
1.46435e-06
6.1608e-09
7.43141e-08
1.40381e-06
5.3074e-09
6.61441e-08
1.34985e-06
4.54851e-09
5.90897e-08
1.30158e-06
3.87084e-09
5.29709e-08
1.2583e-06
3.25849e-09
4.76329e-08
1.21938e-06
2.70208e-09
4.29357e-08
1.18434e-06
2.20285e-09
3.8763e-08
1.15275e-06
1.76816e-09
3.50357e-08
1.12423e-06
1.40377e-09
3.17059e-08
1.09843e-06
1.10952e-09
2.87394e-08
1.07505e-06
8.79794e-10
2.61037e-08
1.05382e-06
7.07103e-10
2.37602e-08
1.03451e-06
5.85445e-10
2.16626e-08
1.01692e-06
5.10265e-10
1.97718e-08
1.0009e-06
4.75358e-10
1.80596e-08
9.863e-07
4.71979e-10
1.64926e-08
9.73011e-07
4.91753e-10
1.50396e-08
9.60928e-07
5.2806e-10
1.3693e-08
9.49942e-07
5.73064e-10
1.24572e-08
9.3996e-07
6.16593e-10
1.13198e-08
9.30908e-07
6.50114e-10
1.02582e-08
9.22719e-07
6.7112e-10
9.26409e-09
9.15324e-07
6.84284e-10
8.3463e-09
9.08644e-07
7.00204e-10
7.51461e-09
9.02604e-07
7.31068e-10
6.76916e-09
8.97132e-07
7.82706e-10
6.10603e-09
8.92166e-07
8.4833e-10
5.51874e-09
8.87661e-07
9.09415e-10
4.98533e-09
8.83604e-07
9.43298e-10
4.47231e-09
8.79997e-07
9.30735e-10
3.95927e-09
8.76843e-07
8.59506e-10
3.4462e-09
8.74133e-07
7.26801e-10
2.94618e-09
8.71841e-07
5.39962e-10
2.48143e-09
3.16227e-10
2.06971e-09
1.69711e-06
4.57902e-10
1.08282e-07
1.60986e-06
2.87921e-10
9.51411e-08
1.53293e-06
7.63718e-11
8.39698e-08
1.46484e-06
-1.63342e-10
7.44162e-08
1.40435e-06
-4.14007e-10
6.62104e-08
1.35042e-06
-6.60976e-10
5.9134e-08
1.30219e-06
-8.97903e-10
5.29987e-08
1.25894e-06
-1.12216e-09
4.76371e-08
1.22006e-06
-1.32738e-09
4.2906e-08
1.18507e-06
-1.50272e-09
3.86981e-08
1.15353e-06
-1.63796e-09
3.49452e-08
1.12506e-06
-1.72743e-09
3.16025e-08
1.09931e-06
-1.77146e-09
2.86315e-08
1.07597e-06
-1.77597e-09
2.59945e-08
1.05477e-06
-1.74894e-09
2.36508e-08
1.0355e-06
-1.69597e-09
2.1558e-08
1.01795e-06
-1.61903e-09
1.96822e-08
1.00195e-06
-1.51816e-09
1.79925e-08
9.87364e-07
-1.39356e-09
1.64483e-08
9.74087e-07
-1.24772e-09
1.50164e-08
9.62008e-07
-1.08723e-09
1.36936e-08
9.51018e-07
-9.21227e-10
1.24842e-08
9.41024e-07
-7.56837e-10
1.13677e-08
9.31958e-07
-5.96829e-10
1.03132e-08
9.23761e-07
-4.41709e-10
9.30952e-09
9.16368e-07
-2.91766e-10
8.36901e-09
9.09702e-07
-1.45645e-10
7.51207e-09
9.0368e-07
-4.90718e-15
6.75348e-09
8.98219e-07
1.44785e-10
6.09897e-09
8.93246e-07
2.82824e-10
5.53819e-09
8.88717e-07
4.00939e-10
5.03742e-09
8.84621e-07
4.84909e-10
4.55435e-09
8.80966e-07
5.22456e-10
4.06364e-09
8.7776e-07
5.05357e-10
3.55954e-09
8.75006e-07
4.31689e-10
3.0495e-09
8.72684e-07
3.06779e-10
2.55513e-09
1.42869e-10
2.09787e-09
1.69695e-06
-8.5423e-09
1.08404e-07
1.60966e-06
-7.67558e-09
9.5246e-08
1.53271e-06
-7.0069e-09
8.40347e-08
1.46462e-06
-6.49756e-09
7.44305e-08
1.40414e-06
-6.11033e-09
6.61775e-08
1.35022e-06
-5.81265e-09
5.90637e-08
1.30201e-06
-5.5785e-09
5.28955e-08
1.25877e-06
-5.38606e-09
4.74991e-08
1.21993e-06
-5.21482e-09
4.27337e-08
1.18497e-06
-5.04719e-09
3.84994e-08
1.15347e-06
-4.87131e-09
3.47319e-08
1.12504e-06
-4.68113e-09
3.13862e-08
1.09932e-06
-4.47594e-09
2.84219e-08
1.07601e-06
-4.26014e-09
2.57966e-08
1.05484e-06
-4.04034e-09
2.34644e-08
1.03558e-06
-3.82078e-09
2.13815e-08
1.01805e-06
-3.60084e-09
1.95152e-08
1.00207e-06
-3.37466e-09
1.78366e-08
9.87502e-07
-3.13439e-09
1.63072e-08
9.74236e-07
-2.87712e-09
1.4896e-08
9.62159e-07
-2.60832e-09
1.35973e-08
9.51166e-07
-2.33601e-09
1.24083e-08
9.41166e-07
-2.06272e-09
1.13055e-08
9.32095e-07
-1.78577e-09
1.02605e-08
9.23893e-07
-1.50449e-09
9.26444e-09
9.16497e-07
-1.2246e-09
8.32856e-09
9.09832e-07
-9.55273e-10
7.47533e-09
9.03809e-07
-7.04738e-10
6.72704e-09
8.9834e-07
-4.79688e-10
6.09349e-09
8.93348e-07
-2.85745e-10
5.56107e-09
8.88787e-07
-1.27649e-10
5.08942e-09
8.84649e-07
-9.04603e-12
4.63219e-09
8.80944e-07
6.67829e-11
4.16038e-09
8.77688e-07
9.82667e-11
3.66304e-09
8.74889e-07
8.63192e-11
3.14447e-09
8.72535e-07
3.44742e-11
2.62641e-09
-5.14144e-11
2.13299e-09
1.69631e-06
-1.73746e-08
1.0838e-07
1.60891e-06
-1.54965e-08
9.52232e-08
1.53187e-06
-1.39515e-08
8.39867e-08
1.46371e-06
-1.26801e-08
7.43399e-08
1.40319e-06
-1.16317e-08
6.60388e-08
1.34926e-06
-1.07621e-08
5.88795e-08
1.30104e-06
-1.003e-08
5.26706e-08
1.25782e-06
-9.39778e-09
4.72392e-08
1.21899e-06
-8.83304e-09
4.24473e-08
1.18405e-06
-8.31183e-09
3.81963e-08
1.15258e-06
-7.82032e-09
3.44214e-08
1.12417e-06
-7.35269e-09
3.10792e-08
1.09848e-06
-6.9078e-09
2.81307e-08
1.07517e-06
-6.48676e-09
2.55291e-08
1.054e-06
-6.09021e-09
2.32193e-08
1.03475e-06
-5.7162e-09
2.1149e-08
1.01722e-06
-5.35974e-09
1.92842e-08
1.00126e-06
-5.01211e-09
1.76032e-08
9.86707e-07
-4.66252e-09
1.60798e-08
9.73449e-07
-4.30457e-09
1.46862e-08
9.61373e-07
-3.94007e-09
1.34075e-08
9.50379e-07
-3.57289e-09
1.22308e-08
9.40383e-07
-3.20199e-09
1.11356e-08
9.31315e-07
-2.82337e-09
1.01052e-08
9.23113e-07
-2.43767e-09
9.13571e-09
9.15709e-07
-2.05458e-09
8.23364e-09
9.09029e-07
-1.6904e-09
7.41511e-09
9.02986e-07
-1.36188e-09
6.69988e-09
8.9749e-07
-1.08096e-09
6.0971e-09
8.92465e-07
-8.52191e-10
5.59216e-09
8.87864e-07
-6.72149e-10
5.14482e-09
8.83681e-07
-5.33285e-10
4.70776e-09
8.79928e-07
-4.2819e-10
4.24775e-09
8.76626e-07
-3.51118e-10
3.75126e-09
8.73787e-07
-2.98601e-10
3.22453e-09
8.714e-07
-2.69729e-10
2.69065e-09
8.69442e-07
-2.64652e-10
2.17114e-09
-2.78631e-10
1.68053e-09
1.69424e-06
-2.50241e-08
1.07406e-07
1.60667e-06
-2.22813e-08
9.4357e-08
1.5295e-06
-1.99705e-08
8.31919e-08
1.46124e-06
-1.80166e-08
7.35876e-08
1.40067e-06
-1.63623e-08
6.53089e-08
1.3467e-06
-1.49599e-08
5.81629e-08
1.29847e-06
-1.37609e-08
5.19653e-08
1.25524e-06
-1.27169e-08
4.65473e-08
1.21642e-06
-1.17859e-08
4.1773e-08
1.1815e-06
-1.09382e-08
3.75438e-08
1.15004e-06
-1.01587e-08
3.37945e-08
1.12165e-06
-9.44349e-09
3.04841e-08
1.09596e-06
-8.79198e-09
2.75743e-08
1.07266e-06
-8.20037e-09
2.50148e-08
1.05149e-06
-7.65945e-09
2.27429e-08
1.03223e-06
-7.15655e-09
2.06985e-08
1.0147e-06
-6.6808e-09
1.88447e-08
9.98749e-07
-6.22423e-09
1.71684e-08
9.84209e-07
-5.77868e-09
1.56562e-08
9.70957e-07
-5.33713e-09
1.42844e-08
9.58883e-07
-4.89676e-09
1.30301e-08
9.47893e-07
-4.45625e-09
1.18737e-08
9.37905e-07
-4.01257e-09
1.07989e-08
9.28846e-07
-3.56361e-09
9.79941e-09
9.20645e-07
-3.11294e-09
8.87613e-09
9.13231e-07
-2.67241e-09
8.03171e-09
9.06527e-07
-2.26064e-09
7.27364e-09
9.0045e-07
-1.89726e-09
6.61261e-09
8.94913e-07
-1.5958e-09
6.05162e-09
8.89844e-07
-1.35855e-09
5.57597e-09
8.85197e-07
-1.17578e-09
5.15012e-09
8.80966e-07
-1.03e-09
4.72841e-09
8.77166e-07
-9.03428e-10
4.27516e-09
8.73821e-07
-7.84186e-10
3.77773e-09
8.70944e-07
-6.68895e-10
3.24777e-09
8.68525e-07
-5.60595e-10
2.70952e-09
8.66545e-07
-4.62952e-10
2.17809e-09
-3.76118e-10
1.66223e-09
1.68764e-06
-2.90628e-08
1.03942e-07
1.59995e-06
-2.58864e-08
9.12878e-08
1.52271e-06
-2.31669e-08
8.04452e-08
1.45441e-06
-2.08272e-08
7.11066e-08
1.39381e-06
-1.88136e-08
6.30477e-08
1.33985e-06
-1.70842e-08
5.60863e-08
1.29163e-06
-1.55926e-08
5.00478e-08
1.24843e-06
-1.42876e-08
4.47708e-08
1.20965e-06
-1.31241e-08
4.01251e-08
1.17476e-06
-1.20706e-08
3.60161e-08
1.14334e-06
-1.11131e-08
3.23801e-08
1.11497e-06
-1.02497e-08
2.91742e-08
1.0893e-06
-9.47951e-09
2.63576e-08
1.06601e-06
-8.79496e-09
2.38801e-08
1.04485e-06
-8.17895e-09
2.16816e-08
1.0256e-06
-7.60949e-09
1.97021e-08
1.00809e-06
-7.07016e-09
1.79033e-08
9.92146e-07
-6.55464e-09
1.62737e-08
9.77621e-07
-6.06001e-09
1.48067e-08
9.64381e-07
-5.58197e-09
1.34843e-08
9.52317e-07
-5.11616e-09
1.22836e-08
9.41335e-07
-4.65779e-09
1.11832e-08
9.31357e-07
-4.20189e-09
1.01673e-08
9.22309e-07
-3.74729e-09
9.23192e-09
9.14115e-07
-3.29948e-09
8.3806e-09
9.06697e-07
-2.87083e-09
7.61612e-09
8.99975e-07
-2.47854e-09
6.94043e-09
8.93864e-07
-2.13909e-09
6.35291e-09
8.88284e-07
-1.86225e-09
5.84632e-09
8.83168e-07
-1.6474e-09
5.40504e-09
8.78473e-07
-1.48168e-09
5.00074e-09
8.74191e-07
-1.34251e-09
4.59399e-09
8.70343e-07
-1.20641e-09
4.1517e-09
8.66953e-07
-1.05944e-09
3.66491e-09
8.64036e-07
-9.00803e-10
3.14942e-09
8.61584e-07
-7.37068e-10
2.62815e-09
8.59582e-07
-5.72429e-10
2.1111e-09
-4.08711e-10
1.60204e-09
1.66431e-06
-2.34714e-08
9.39154e-08
1.57699e-06
-2.09492e-08
8.23845e-08
1.50007e-06
-1.87606e-08
7.2506e-08
1.43209e-06
-1.68522e-08
6.40036e-08
1.3718e-06
-1.51891e-08
5.66712e-08
1.31812e-06
-1.37461e-08
5.034e-08
1.27017e-06
-1.24918e-08
4.48505e-08
1.22721e-06
-1.13888e-08
4.00568e-08
1.18865e-06
-1.04035e-08
3.58426e-08
1.15397e-06
-9.5129e-09
3.21234e-08
1.12272e-06
-8.70736e-09
2.88392e-08
1.09452e-06
-7.98579e-09
2.59439e-08
1.06899e-06
-7.34719e-09
2.33943e-08
1.04583e-06
-6.78434e-09
2.11455e-08
1.02479e-06
-6.28196e-09
1.91501e-08
1.00564e-06
-5.8196e-09
1.73601e-08
9.88208e-07
-5.38172e-09
1.57404e-08
9.72341e-07
-4.96388e-09
1.42765e-08
9.57886e-07
-4.56693e-09
1.29614e-08
9.44713e-07
-4.19035e-09
1.17822e-08
9.32707e-07
-3.83169e-09
1.07209e-08
9.21778e-07
-3.48643e-09
9.75771e-09
9.11849e-07
-3.14908e-09
8.87586e-09
9.0285e-07
-2.81767e-09
8.06981e-09
8.94703e-07
-2.49639e-09
7.34378e-09
8.87325e-07
-2.19444e-09
6.70214e-09
8.80626e-07
-1.9233e-09
6.14384e-09
8.74519e-07
-1.69207e-09
5.65967e-09
8.68927e-07
-1.5042e-09
5.23406e-09
8.63786e-07
-1.35696e-09
4.8504e-09
8.59056e-07
-1.24018e-09
4.48792e-09
8.54732e-07
-1.13618e-09
4.11819e-09
8.50835e-07
-1.02627e-09
3.71677e-09
8.47397e-07
-9.0044e-10
3.27907e-09
8.44436e-07
-7.60406e-10
2.82042e-09
8.41952e-07
-6.12972e-10
2.36018e-09
8.39932e-07
-4.60599e-10
1.90808e-09
-3.03626e-10
1.46672e-09
1.54938e-06
7.21032e-08
1.46548e-06
6.29532e-08
1.39156e-06
5.51526e-08
1.32624e-06
4.84744e-08
1.2683e-06
4.27459e-08
1.21673e-06
3.78245e-08
1.17066e-06
3.35775e-08
1.12939e-06
2.98856e-08
1.09233e-06
2.6654e-08
1.059e-06
2.38144e-08
1.02898e-06
2.13172e-08
1.00187e-06
1.91204e-08
9.7734e-07
1.7184e-08
9.55083e-07
1.5472e-08
9.34847e-07
1.39539e-08
9.16425e-07
1.26025e-08
8.99649e-07
1.1395e-08
8.84368e-07
1.03164e-08
8.70446e-07
9.35592e-09
8.57754e-07
8.50103e-09
8.46186e-07
7.73693e-09
8.35651e-07
7.04779e-09
8.26082e-07
6.42048e-09
8.17413e-07
5.85098e-09
8.09573e-07
5.34334e-09
8.02477e-07
4.90153e-09
7.96031e-07
4.52305e-09
7.90142e-07
4.1968e-09
7.84732e-07
3.90649e-09
7.79737e-07
3.63752e-09
7.7512e-07
3.377e-09
7.70875e-07
3.1091e-09
7.67029e-07
2.81927e-09
7.63624e-07
2.50432e-09
7.60689e-07
2.17492e-09
7.58229e-07
1.84697e-09
7.56234e-07
1.5348e-09
1.24487e-09
1.84916e-06
1.82869e-08
1.83849e-07
1.74491e-06
1.60418e-08
1.60095e-07
1.65354e-06
1.41445e-08
1.40015e-07
1.57311e-06
1.25397e-08
1.22971e-07
1.50201e-06
1.11739e-08
1.08437e-07
1.43891e-06
1.00036e-08
9.59875e-08
1.3827e-06
8.99457e-09
8.52782e-08
1.33245e-06
8.11898e-09
7.60239e-08
1.28741e-06
7.3541e-09
6.79876e-08
1.24691e-06
6.68093e-09
6.09738e-08
1.21041e-06
6.08277e-09
5.48232e-08
1.17744e-06
5.54584e-09
4.94019e-08
1.14763e-06
5.06127e-09
4.45948e-08
1.12063e-06
4.62526e-09
4.03071e-08
1.09615e-06
4.23686e-09
3.64676e-08
1.07391e-06
3.89416e-09
3.30227e-08
1.0537e-06
3.59143e-09
2.9925e-08
1.0353e-06
3.32062e-09
2.71302e-08
1.01855e-06
3.07448e-09
2.46021e-08
1.0033e-06
2.84628e-09
2.23113e-08
9.89415e-07
2.62913e-09
2.02269e-08
9.76801e-07
2.41875e-09
1.83184e-08
9.65357e-07
2.21525e-09
1.65664e-08
9.54993e-07
2.02169e-09
1.49647e-08
9.45612e-07
1.84318e-09
1.35112e-08
9.37122e-07
1.68595e-09
1.21986e-08
9.29431e-07
1.55397e-09
1.10121e-08
9.22457e-07
1.44596e-09
9.9345e-09
9.16131e-07
1.35542e-09
8.95029e-09
9.10399e-07
1.27313e-09
8.04601e-09
9.0522e-07
1.18998e-09
7.21e-09
9.00566e-07
1.09764e-09
6.43447e-09
8.96421e-07
9.89118e-10
5.71641e-09
8.92768e-07
8.61861e-10
5.05782e-09
8.8959e-07
7.19816e-10
4.46587e-09
8.86857e-07
5.70782e-10
3.94689e-09
8.84529e-07
4.25669e-10
3.50365e-09
2.92045e-10
3.12977e-09
1.94614e-06
2.41972e-08
2.25643e-07
1.83762e-06
2.11389e-08
1.96995e-07
1.74257e-06
1.85686e-08
1.72751e-07
1.65896e-06
1.64058e-08
1.52136e-07
1.58508e-06
1.45757e-08
1.34518e-07
1.51956e-06
1.3016e-08
1.19389e-07
1.46123e-06
1.16772e-08
1.06338e-07
1.40913e-06
1.05192e-08
9.50269e-08
1.36246e-06
9.5092e-09
8.51799e-08
1.32053e-06
8.61947e-09
7.65702e-08
1.28277e-06
7.82744e-09
6.90041e-08
1.2487e-06
7.11669e-09
6.23132e-08
1.21792e-06
6.47777e-09
5.63597e-08
1.19006e-06
5.90693e-09
5.10404e-08
1.16481e-06
5.40297e-09
4.62782e-08
1.14189e-06
4.9628e-09
4.20056e-08
1.12106e-06
4.57849e-09
3.81563e-08
1.10212e-06
4.23908e-09
3.46722e-08
1.08488e-06
3.93425e-09
3.15086e-08
1.06919e-06
3.65451e-09
2.8625e-08
1.05491e-06
3.39077e-09
2.59796e-08
1.04194e-06
3.13679e-09
2.35427e-08
1.03015e-06
2.89086e-09
2.13045e-08
1.01946e-06
2.65498e-09
1.92614e-08
1.00977e-06
2.43454e-09
1.74067e-08
1.00099e-06
2.23669e-09
1.57321e-08
9.93034e-07
2.06646e-09
1.42263e-08
9.85832e-07
1.92381e-09
1.28706e-08
9.79314e-07
1.80368e-09
1.16358e-08
9.73426e-07
1.6975e-09
1.04889e-08
9.6812e-07
1.59461e-09
9.40713e-09
9.63361e-07
1.48271e-09
8.38106e-09
9.59122e-07
1.35001e-09
7.4081e-09
9.55381e-07
1.19028e-09
6.49295e-09
9.52114e-07
1.00592e-09
5.64815e-09
9.49294e-07
8.06192e-10
4.88529e-09
9.46887e-07
6.05327e-10
4.21355e-09
4.15019e-10
3.63293e-09
1.95996e-06
2.24873e-08
2.44694e-07
1.85129e-06
1.95934e-08
2.1374e-07
1.75608e-06
1.71628e-08
1.87575e-07
1.6723e-06
1.51182e-08
1.65345e-07
1.59826e-06
1.33889e-08
1.46356e-07
1.53259e-06
1.19164e-08
1.30046e-07
1.47412e-06
1.06532e-08
1.15964e-07
1.42191e-06
9.56021e-09
1.03749e-07
1.37514e-06
8.60509e-09
9.31093e-08
1.33314e-06
7.76127e-09
8.37978e-08
1.29533e-06
7.00873e-09
7.55957e-08
1.26124e-06
6.33472e-09
6.83195e-08
1.23046e-06
5.73281e-09
6.18315e-08
1.20261e-06
5.20063e-09
5.60354e-08
1.17737e-06
4.73692e-09
5.08577e-08
1.15447e-06
4.33822e-09
4.62252e-08
1.13367e-06
3.99676e-09
4.20573e-08
1.11475e-06
3.70189e-09
3.82819e-08
1.09753e-06
3.44315e-09
3.4847e-08
1.08187e-06
3.21089e-09
3.17083e-08
1.06761e-06
2.99621e-09
2.8821e-08
1.05465e-06
2.79248e-09
2.61561e-08
1.04287e-06
2.59612e-09
2.37042e-08
1.03218e-06
2.40639e-09
2.14592e-08
1.02248e-06
2.22586e-09
1.9412e-08
1.01368e-06
2.05976e-09
1.75564e-08
1.00571e-06
1.91322e-09
1.58851e-08
9.98505e-07
1.78877e-09
1.43798e-08
9.9199e-07
1.68534e-09
1.30082e-08
9.86109e-07
1.59776e-09
1.17358e-08
9.80815e-07
1.51664e-09
1.05421e-08
9.76065e-07
1.4288e-09
9.41406e-09
9.7183e-07
1.32022e-09
8.33754e-09
9.68085e-07
1.18159e-09
7.30784e-09
9.64809e-07
1.01199e-09
6.33581e-09
9.61976e-07
8.18715e-10
5.43951e-09
9.59557e-07
6.15188e-10
4.64007e-09
4.15454e-10
3.94533e-09
1.96114e-06
1.67248e-08
2.52318e-07
1.8528e-06
1.45397e-08
2.2039e-07
1.75784e-06
1.26945e-08
1.93441e-07
1.67425e-06
1.11329e-08
1.70573e-07
1.60036e-06
9.80454e-09
1.51053e-07
1.53481e-06
8.66782e-09
1.34292e-07
1.47645e-06
7.6882e-09
1.19821e-07
1.42432e-06
6.83661e-09
1.0727e-07
1.37763e-06
6.08893e-09
9.63333e-08
1.33571e-06
5.42639e-09
8.67451e-08
1.29799e-06
4.83608e-09
7.82739e-08
1.26399e-06
4.31085e-09
7.07402e-08
1.23329e-06
3.84763e-09
6.40192e-08
1.20553e-06
3.44511e-09
5.8024e-08
1.18038e-06
3.10177e-09
5.26827e-08
1.15757e-06
2.81424e-09
4.79174e-08
1.13684e-06
2.57629e-09
4.36391e-08
1.11799e-06
2.37965e-09
3.97694e-08
1.10083e-06
2.21586e-09
3.62529e-08
1.08523e-06
2.07684e-09
3.30392e-08
1.07102e-06
1.95509e-09
3.00791e-08
1.05811e-06
1.84448e-09
2.73461e-08
1.04636e-06
1.74046e-09
2.48318e-08
1.03569e-06
1.64003e-09
2.25221e-08
1.026e-06
1.5427e-09
2.0398e-08
1.01722e-06
1.45099e-09
1.84507e-08
1.00927e-06
1.36904e-09
1.66798e-08
1.00209e-06
1.30066e-09
1.50773e-08
9.95592e-07
1.24729e-09
1.36215e-08
9.89731e-07
1.20628e-09
1.22886e-08
9.84451e-07
1.17014e-09
1.10625e-08
9.79708e-07
1.12694e-09
9.92052e-09
9.75474e-07
1.06324e-09
8.83034e-09
9.71725e-07
9.69096e-10
7.77267e-09
9.6844e-07
8.41454e-10
6.75186e-09
9.656e-07
6.84915e-10
5.78802e-09
9.63178e-07
5.10113e-10
4.91e-09
3.3093e-10
4.13312e-09
1.96019e-06
2.55222e-07
1.85214e-06
7.74414e-09
2.22913e-07
1.75741e-06
6.71205e-09
1.95662e-07
1.674e-06
5.822e-09
1.72541e-07
1.60026e-06
5.05056e-09
1.52805e-07
1.53483e-06
4.37835e-09
1.35864e-07
1.47658e-06
3.78922e-09
1.21247e-07
1.42454e-06
3.26956e-09
1.08574e-07
1.37793e-06
2.80853e-09
9.75203e-08
1.33609e-06
2.39854e-09
8.78072e-08
1.29845e-06
2.03535e-09
7.92055e-08
1.26453e-06
1.7175e-09
7.15501e-08
1.23391e-06
1.44482e-09
6.47281e-08
1.20622e-06
1.21668e-09
5.86538e-08
1.18114e-06
1.03139e-09
5.32513e-08
1.15839e-06
8.86122e-10
4.84396e-08
1.13772e-06
7.76905e-10
4.41302e-08
1.11893e-06
6.98935e-10
4.02474e-08
1.10183e-06
6.47308e-10
3.67312e-08
1.08626e-06
6.17001e-10
3.35193e-08
1.07209e-06
6.02536e-10
3.0558e-08
1.0592e-06
5.9867e-10
2.7827e-08
1.04748e-06
6.00984e-10
2.53197e-08
1.03683e-06
6.0594e-10
2.301e-08
1.02715e-06
6.11447e-10
2.08631e-08
1.01838e-06
6.1742e-10
1.8865e-08
1.01045e-06
6.25367e-10
1.70238e-08
1.00328e-06
6.37314e-10
1.53492e-08
9.96802e-07
6.54189e-10
1.38396e-08
9.90955e-07
6.74131e-10
1.24859e-08
9.8568e-07
6.91746e-10
1.12716e-08
9.80936e-07
6.98158e-10
1.01586e-08
9.76691e-07
6.83195e-10
9.0966e-09
9.72927e-07
6.39211e-10
8.05359e-09
9.69626e-07
5.63375e-10
7.0247e-09
9.66773e-07
4.58331e-10
6.02579e-09
9.64346e-07
3.3135e-10
5.08776e-09
1.93234e-10
4.23411e-09
1.85148e-06
2.56367e-10
2.23682e-07
1.75687e-06
1.33166e-10
1.96331e-07
1.67356e-06
-2.61141e-12
1.73107e-07
1.5999e-06
-1.46113e-10
1.53269e-07
1.53454e-06
-2.93491e-10
1.36244e-07
1.47634e-06
-4.41187e-10
1.21564e-07
1.42436e-06
-5.84961e-10
1.08836e-07
1.3778e-06
-7.20153e-10
9.77226e-08
1.33601e-06
-8.42089e-10
8.79395e-08
1.29842e-06
-9.46271e-10
7.92695e-08
1.26455e-06
-1.02902e-09
7.15606e-08
1.23398e-06
-1.08844e-09
6.47037e-08
1.20634e-06
-1.1247e-09
5.86097e-08
1.18131e-06
-1.1393e-09
5.31963e-08
1.15861e-06
-1.13374e-09
4.83788e-08
1.13798e-06
-1.10902e-09
4.40727e-08
1.11922e-06
-1.06574e-09
4.02068e-08
1.10214e-06
-1.00454e-09
3.67172e-08
1.0866e-06
-9.26959e-10
3.35332e-08
1.07246e-06
-8.36068e-10
3.05997e-08
1.05959e-06
-7.35547e-10
2.79005e-08
1.04787e-06
-6.28424e-10
2.54267e-08
1.03722e-06
-5.17193e-10
2.31409e-08
1.02755e-06
-4.04326e-10
2.09984e-08
1.01879e-06
-2.92352e-10
1.8982e-08
1.01086e-06
-1.83883e-10
1.71056e-08
1.0037e-06
-8.14196e-11
1.53942e-08
9.97229e-07
1.2682e-11
1.38657e-08
9.91383e-07
9.574e-11
1.25232e-08
9.86103e-07
1.6471e-10
1.1345e-08
9.81346e-07
2.15103e-10
1.02776e-08
9.77083e-07
2.42595e-10
9.25812e-09
9.73296e-07
2.4473e-10
8.24525e-09
9.69973e-07
2.21271e-10
7.22472e-09
9.67101e-07
1.73927e-10
6.20535e-09
9.64663e-07
1.06504e-10
5.21805e-09
2.52029e-11
4.29395e-09
1.85137e-06
-7.27984e-09
2.23872e-07
1.75674e-06
-6.4832e-09
1.9649e-07
1.67342e-06
-5.84784e-09
1.73203e-07
1.59976e-06
-5.34274e-09
1.53287e-07
1.5344e-06
-4.94389e-09
1.36188e-07
1.4762e-06
-4.63005e-09
1.21447e-07
1.42423e-06
-4.37995e-09
1.08664e-07
1.37769e-06
-4.1734e-09
9.74949e-08
1.33591e-06
-3.9933e-09
8.76591e-08
1.29834e-06
-3.82681e-09
7.89478e-08
1.2645e-06
-3.66622e-09
7.1214e-08
1.23396e-06
-3.50855e-09
6.43504e-08
1.20634e-06
-3.35353e-09
5.82656e-08
1.18133e-06
-3.20122e-09
5.287e-08
1.15864e-06
-3.05015e-09
4.80711e-08
1.13803e-06
-2.89702e-09
4.37813e-08
1.11928e-06
-2.73811e-09
3.99315e-08
1.10222e-06
-2.57049e-09
3.64607e-08
1.0867e-06
-2.39276e-09
3.33019e-08
1.07256e-06
-2.20537e-09
3.0402e-08
1.05969e-06
-2.00956e-09
2.77398e-08
1.04798e-06
-1.80606e-09
2.52973e-08
1.03733e-06
-1.59578e-09
2.30341e-08
1.02766e-06
-1.38134e-09
2.09087e-08
1.01889e-06
-1.16777e-09
1.8906e-08
1.01096e-06
-9.62451e-10
1.70387e-08
1.00379e-06
-7.73694e-10
1.5336e-08
9.97314e-07
-6.08355e-10
1.38261e-08
9.91456e-07
-4.70437e-10
1.25173e-08
9.8616e-07
-3.60919e-10
1.13834e-08
9.81381e-07
-2.78469e-10
1.03622e-08
9.77091e-07
-2.19663e-10
9.38397e-09
9.73276e-07
-1.7964e-10
8.40022e-09
9.69925e-07
-1.54522e-10
7.38927e-09
9.6703e-07
-1.42819e-10
6.35595e-09
9.64576e-07
-1.44173e-10
5.33155e-09
-1.57438e-10
4.35136e-09
1.8518e-06
-1.42032e-08
2.23416e-07
1.75702e-06
-1.25618e-08
1.96077e-07
1.67358e-06
-1.12079e-08
1.72786e-07
1.59983e-06
-1.00894e-08
1.52837e-07
1.5344e-06
-9.16776e-09
1.3569e-07
1.47616e-06
-8.40896e-09
1.20902e-07
1.42415e-06
-7.77811e-09
1.08077e-07
1.37759e-06
-7.24113e-09
9.68731e-08
1.3358e-06
-6.76924e-09
8.70124e-08
1.29822e-06
-6.34235e-09
7.82885e-08
1.26437e-06
-5.95045e-09
7.05554e-08
1.23382e-06
-5.59066e-09
6.37091e-08
1.2062e-06
-5.26194e-09
5.76588e-08
1.18119e-06
-4.96136e-09
5.23071e-08
1.15849e-06
-4.68236e-09
4.7548e-08
1.13787e-06
-4.41591e-09
4.32841e-08
1.11913e-06
-4.1542e-09
3.94458e-08
1.10207e-06
-3.89235e-09
3.59837e-08
1.08654e-06
-3.62734e-09
3.2845e-08
1.0724e-06
-3.35733e-09
2.99793e-08
1.05952e-06
-3.08081e-09
2.73532e-08
1.0478e-06
-2.79598e-09
2.49378e-08
1.03715e-06
-2.50228e-09
2.26977e-08
1.02747e-06
-2.20279e-09
2.06053e-08
1.01869e-06
-1.90517e-09
1.86501e-08
1.01075e-06
-1.62137e-09
1.68388e-08
1.00356e-06
-1.3649e-09
1.51931e-08
9.9706e-07
-1.14655e-09
1.37382e-08
9.91177e-07
-9.71354e-10
1.24817e-08
9.8585e-07
-8.37913e-10
1.13957e-08
9.81038e-07
-7.3877e-10
1.04175e-08
9.76713e-07
-6.61813e-10
9.4745e-09
9.72863e-07
-5.94e-10
8.5125e-09
9.6948e-07
-5.26965e-10
7.50672e-09
9.66557e-07
-4.59453e-10
6.46439e-09
9.6408e-07
-3.94286e-10
5.41763e-09
9.6203e-07
-3.34767e-10
4.39796e-09
-2.83034e-10
3.42882e-09
1.85223e-06
-1.94194e-08
2.21055e-07
1.7572e-06
-1.71452e-08
1.93976e-07
1.67355e-06
-1.52427e-08
1.70873e-07
1.59964e-06
-1.36461e-08
1.51056e-07
1.53409e-06
-1.23096e-08
1.34004e-07
1.47575e-06
-1.1194e-08
1.19288e-07
1.42366e-06
-1.02563e-08
1.06526e-07
1.37704e-06
-9.45214e-09
9.53816e-08
1.33521e-06
-8.74379e-09
8.55815e-08
1.29759e-06
-8.10648e-09
7.69206e-08
1.26371e-06
-7.52998e-09
6.92546e-08
1.23314e-06
-7.01251e-09
6.24821e-08
1.20549e-06
-6.55217e-09
5.6512e-08
1.18044e-06
-6.14237e-09
5.1241e-08
1.15772e-06
-5.77056e-09
4.65536e-08
1.13708e-06
-5.4214e-09
4.23433e-08
1.11832e-06
-5.08353e-09
3.85391e-08
1.10124e-06
-4.75162e-09
3.51032e-08
1.0857e-06
-4.42284e-09
3.1999e-08
1.07154e-06
-4.0946e-09
2.91802e-08
1.05864e-06
-3.76366e-09
2.66046e-08
1.04691e-06
-3.42583e-09
2.4236e-08
1.03624e-06
-3.07891e-09
2.20449e-08
1.02655e-06
-2.72631e-09
2.00158e-08
1.01776e-06
-2.37808e-09
1.81435e-08
1.00979e-06
-2.04983e-09
1.64291e-08
1.00257e-06
-1.75848e-09
1.48826e-08
9.96037e-07
-1.51641e-09
1.35171e-08
9.90114e-07
-1.32844e-09
1.23317e-08
9.84744e-07
-1.19096e-09
1.1299e-08
9.79885e-07
-1.0914e-09
1.03617e-08
9.75512e-07
-1.00999e-09
9.44908e-09
9.71615e-07
-9.26423e-10
8.50474e-09
9.68189e-07
-8.28872e-10
7.50599e-09
9.65227e-07
-7.16797e-10
6.46643e-09
9.6272e-07
-5.95758e-10
5.41842e-09
9.6065e-07
-4.72169e-10
4.38546e-09
-3.53148e-10
3.3861e-09
1.8505e-06
-2.111e-08
2.14425e-07
1.75518e-06
-1.86387e-08
1.88102e-07
1.67131e-06
-1.65491e-08
1.65621e-07
1.59723e-06
-1.47753e-08
1.46319e-07
1.53155e-06
-1.32746e-08
1.29695e-07
1.47311e-06
-1.20114e-08
1.15342e-07
1.42095e-06
-1.09429e-08
1.02893e-07
1.37427e-06
-1.00223e-08
9.20237e-08
1.33238e-06
-9.2099e-09
8.24738e-08
1.29473e-06
-8.48059e-09
7.40443e-08
1.26081e-06
-7.82569e-09
6.65933e-08
1.2302e-06
-7.24468e-09
6.00172e-08
1.20252e-06
-6.73538e-09
5.42217e-08
1.17744e-06
-6.28921e-09
4.91049e-08
1.15469e-06
-5.88977e-09
4.45558e-08
1.13402e-06
-5.51709e-09
4.04691e-08
1.11522e-06
-5.15722e-09
3.67726e-08
1.09812e-06
-4.80527e-09
3.34319e-08
1.08254e-06
-4.46038e-09
3.04199e-08
1.06835e-06
-4.1217e-09
2.76984e-08
1.05543e-06
-3.78631e-09
2.52258e-08
1.04368e-06
-3.44842e-09
2.2964e-08
1.03298e-06
-3.10366e-09
2.08835e-08
1.02327e-06
-2.75458e-09
1.89721e-08
1.01446e-06
-2.41217e-09
1.7228e-08
1.00647e-06
-2.09353e-09
1.56512e-08
9.99223e-07
-1.81594e-09
1.42427e-08
9.92651e-07
-1.59038e-09
1.29993e-08
9.86681e-07
-1.41982e-09
1.1907e-08
9.81257e-07
-1.2993e-09
1.09378e-08
9.76336e-07
-1.21431e-09
1.00445e-08
9.71897e-07
-1.14162e-09
9.16494e-09
9.67932e-07