/*--------------------------------*- C++ -*----------------------------------*\
| =========                 |                                                 |
| \\      /  F ield         | OpenFOAM: The Open Source CFD Toolbox           |
|  \\    /   O peration     | Version:  2.3.1                                 |
|   \\  /    A nd           | Web:      www.OpenFOAM.org                      |
|    \\/     M anipulation  |                                                 |
\*---------------------------------------------------------------------------*/
FoamFile
{
    version     2.0;
    format      ascii;
    class       surfaceScalarField;
    location    "20";
    object      phi_0;
}
// * * * * * * * * * * * * * * * * * * * * * * * * * * * * * * * * * * * * * //

dimensions      [0 3 -1 0 0 0 0];

internalField   nonuniform List<scalar> 
110041
(
1.64581e-06
2.6418e-08
8.26312e-08
1.55051e-06
2.34357e-08
7.18664e-08
1.46687e-06
2.08626e-08
6.27742e-08
1.39316e-06
1.86422e-08
5.50642e-08
1.32795e-06
1.67163e-08
4.84959e-08
1.27004e-06
1.50363e-08
4.28773e-08
1.21842e-06
1.35633e-08
3.80532e-08
1.17226e-06
1.22656e-08
3.38935e-08
1.13086e-06
1.11174e-08
3.02884e-08
1.09361e-06
1.00963e-08
2.71478e-08
1.06003e-06
9.18177e-09
2.43986e-08
1.0297e-06
8.35596e-09
2.198e-08
1.00225e-06
7.60797e-09
1.9838e-08
9.77387e-07
6.9341e-09
1.79278e-08
9.54837e-07
6.33353e-09
1.62164e-08
9.34355e-07
5.80226e-09
1.468e-08
9.15727e-07
5.33039e-09
1.3298e-08
8.9877e-07
4.90582e-09
1.2051e-08
8.83327e-07
4.5192e-09
1.09233e-08
8.69263e-07
4.16259e-09
9.90213e-09
8.56462e-07
3.82734e-09
8.97303e-09
8.44833e-07
3.50817e-09
8.12077e-09
8.34291e-07
3.20576e-09
7.33658e-09
8.24749e-07
2.92235e-09
6.61998e-09
8.16117e-07
2.65934e-09
5.9728e-09
8.08304e-07
2.41979e-09
5.39312e-09
8.01222e-07
2.20829e-09
4.87381e-09
7.9479e-07
2.02641e-09
4.40527e-09
7.88942e-07
1.86919e-09
3.97845e-09
7.8363e-07
1.72682e-09
3.58554e-09
7.7882e-07
1.58954e-09
3.21999e-09
7.74493e-07
1.4491e-09
2.87787e-09
7.70637e-07
1.2975e-09
2.55892e-09
7.67241e-07
1.1295e-09
2.26639e-09
7.64288e-07
9.46943e-10
2.00647e-09
7.61747e-07
7.56928e-10
1.78376e-09
7.59576e-07
5.70523e-10
1.60037e-09
3.96778e-10
1.45182e-09
1.76457e-06
3.30312e-08
1.07027e-07
1.66531e-06
2.91627e-08
9.35411e-08
1.57821e-06
2.58511e-08
8.21072e-08
1.50147e-06
2.30148e-08
7.2368e-08
1.43358e-06
2.05724e-08
6.40309e-08
1.3733e-06
1.8454e-08
5.68643e-08
1.31958e-06
1.66038e-08
5.06793e-08
1.27155e-06
1.49781e-08
4.53177e-08
1.22848e-06
1.35411e-08
4.06494e-08
1.18974e-06
1.22609e-08
3.65685e-08
1.15483e-06
1.11093e-08
3.29835e-08
1.12331e-06
1.0067e-08
2.98124e-08
1.09481e-06
9.12619e-09
2.69866e-08
1.069e-06
8.28652e-09
2.44568e-08
1.04559e-06
7.54834e-09
2.21884e-08
1.02434e-06
6.9063e-09
2.01507e-08
1.00501e-06
6.3468e-09
1.83118e-08
9.8742e-07
5.85301e-09
1.66432e-08
9.71403e-07
5.41103e-09
1.51251e-08
9.56817e-07
5.00885e-09
1.37391e-08
9.43547e-07
4.63469e-09
1.2463e-08
9.31492e-07
4.28105e-09
1.12816e-08
9.20559e-07
3.9458e-09
1.01934e-08
9.10652e-07
3.62757e-09
9.20131e-09
9.01682e-07
3.32538e-09
8.30446e-09
8.93559e-07
3.04269e-09
7.50005e-09
8.86197e-07
2.78679e-09
6.78356e-09
8.79516e-07
2.56312e-09
6.14463e-09
8.73449e-07
2.37111e-09
5.565e-09
8.67948e-07
2.20469e-09
5.02314e-09
8.62978e-07
2.05452e-09
4.50476e-09
8.58514e-07
1.90688e-09
4.00627e-09
8.54538e-07
1.74404e-09
3.52908e-09
8.51037e-07
1.55172e-09
3.07884e-09
8.47991e-07
1.32697e-09
2.66606e-09
8.45371e-07
1.07767e-09
2.29958e-09
8.43136e-07
8.19835e-10
1.98577e-09
5.68762e-10
1.72572e-09
1.78812e-06
2.88401e-08
1.18318e-07
1.68842e-06
2.53692e-08
1.03493e-07
1.60093e-06
2.24052e-08
9.09369e-08
1.52382e-06
1.98696e-08
8.02537e-08
1.45559e-06
1.76875e-08
7.11148e-08
1.39499e-06
1.57967e-08
6.32557e-08
1.34099e-06
1.41472e-08
5.64625e-08
1.2927e-06
1.26986e-08
5.05645e-08
1.2494e-06
1.14152e-08
4.54252e-08
1.21047e-06
1.02652e-08
4.09278e-08
1.17539e-06
9.22506e-09
3.69646e-08
1.14373e-06
8.28442e-09
3.34421e-08
1.11512e-06
7.44329e-09
3.02922e-08
1.08923e-06
6.70428e-09
2.74719e-08
1.06576e-06
6.06687e-09
2.49509e-08
1.04445e-06
5.52471e-09
2.26961e-08
1.02506e-06
5.0654e-09
2.06657e-08
1.00742e-06
4.67435e-09
1.88211e-08
9.91357e-07
4.33789e-09
1.71378e-08
9.76728e-07
4.0422e-09
1.55955e-08
9.63418e-07
3.77433e-09
1.41707e-08
9.51324e-07
3.52631e-09
1.28488e-08
9.40347e-07
3.29346e-09
1.16293e-08
9.30392e-07
3.06936e-09
1.05131e-08
9.21372e-07
2.84777e-09
9.49741e-09
9.13204e-07
2.62917e-09
8.58141e-09
9.05805e-07
2.42183e-09
7.76383e-09
8.99097e-07
2.23677e-09
7.03474e-09
8.93013e-07
2.08225e-09
6.37263e-09
8.87503e-07
1.96043e-09
5.75426e-09
8.82525e-07
1.86455e-09
5.16793e-09
8.78046e-07
1.77675e-09
4.60924e-09
8.74046e-07
1.67203e-09
4.07159e-09
8.70516e-07
1.52903e-09
3.55341e-09
8.6744e-07
1.33856e-09
3.0642e-09
8.64795e-07
1.10486e-09
2.61788e-09
8.62542e-07
8.42605e-10
2.22997e-09
5.70784e-10
1.90937e-09
1.79437e-06
2.05075e-08
1.22309e-07
1.69479e-06
1.79889e-08
1.06961e-07
1.60738e-06
1.5824e-08
9.39913e-08
1.53032e-06
1.39541e-08
8.29755e-08
1.46211e-06
1.23291e-08
7.35635e-08
1.40152e-06
1.09114e-08
6.54728e-08
1.34752e-06
9.67067e-09
5.84794e-08
1.29923e-06
8.57752e-09
5.24087e-08
1.25593e-06
7.60272e-09
4.71183e-08
1.21699e-06
6.72253e-09
4.24788e-08
1.18192e-06
5.9253e-09
3.83725e-08
1.15028e-06
5.21146e-09
3.47087e-08
1.12171e-06
4.58598e-09
3.14298e-08
1.09586e-06
4.05057e-09
2.85007e-08
1.07244e-06
3.60173e-09
2.58928e-08
1.05116e-06
3.23241e-09
2.35699e-08
1.03181e-06
2.93405e-09
2.14841e-08
1.01419e-06
2.69765e-09
1.9593e-08
9.98144e-07
2.51235e-09
1.78705e-08
9.8353e-07
2.36451e-09
1.62926e-08
9.7023e-07
2.24187e-09
1.48324e-08
9.58141e-07
2.13725e-09
1.34775e-08
9.47161e-07
2.04456e-09
1.22289e-08
9.37194e-07
1.95397e-09
1.10821e-08
9.2816e-07
1.85549e-09
1.00268e-08
9.19982e-07
1.74665e-09
9.05997e-09
9.12584e-07
1.63503e-09
8.18487e-09
9.05888e-07
1.53465e-09
7.39885e-09
8.99823e-07
1.45957e-09
6.68732e-09
8.94332e-07
1.41695e-09
6.03473e-09
8.89362e-07
1.40046e-09
5.43416e-09
8.84873e-07
1.38976e-09
4.87521e-09
8.8085e-07
1.35814e-09
4.3377e-09
8.77286e-07
1.28285e-09
3.80941e-09
8.74178e-07
1.15127e-09
3.29573e-09
8.71507e-07
9.63036e-10
2.81276e-09
8.69239e-07
7.28789e-10
2.38177e-09
4.68324e-10
2.01688e-09
1.79599e-06
1.23554e-07
1.69658e-06
9.37306e-09
1.08031e-07
1.6093e-06
8.17944e-09
9.49275e-08
1.53234e-06
7.11417e-09
8.38011e-08
1.46421e-06
6.15913e-09
7.42951e-08
1.40369e-06
5.30593e-09
6.61276e-08
1.34974e-06
4.54723e-09
5.90752e-08
1.30149e-06
3.86971e-09
5.29581e-08
1.25821e-06
3.25749e-09
4.76216e-08
1.2193e-06
2.7012e-09
4.29257e-08
1.18427e-06
2.20207e-09
3.87541e-08
1.15269e-06
1.76749e-09
3.50277e-08
1.12417e-06
1.40319e-09
3.16988e-08
1.09838e-06
1.10901e-09
2.8733e-08
1.07501e-06
8.79353e-10
2.6098e-08
1.05378e-06
7.06712e-10
2.3755e-08
1.03447e-06
5.85097e-10
2.16579e-08
1.01689e-06
5.0996e-10
1.97675e-08
1.00087e-06
4.75097e-10
1.80557e-08
9.86274e-07
4.71759e-10
1.64891e-08
9.72988e-07
4.9157e-10
1.50364e-08
9.60908e-07
5.27908e-10
1.369e-08
9.49925e-07
5.72938e-10
1.24545e-08
9.39945e-07
6.16483e-10
1.13173e-08
9.30894e-07
6.50011e-10
1.02559e-08
9.22708e-07
6.71018e-10
9.26197e-09
9.15315e-07
6.8418e-10
8.34432e-09
9.08636e-07
7.00099e-10
7.51276e-09
9.02598e-07
7.30965e-10
6.76743e-09
8.97128e-07
7.82606e-10
6.10442e-09
8.92163e-07
8.48233e-10
5.51724e-09
8.87659e-07
9.09316e-10
4.98393e-09
8.83603e-07
9.4319e-10
4.471e-09
8.79997e-07
9.3062e-10
3.95803e-09
8.76844e-07
8.5939e-10
3.44502e-09
8.74135e-07
7.26694e-10
2.94505e-09
8.71844e-07
5.39873e-10
2.48036e-09
3.16163e-10
2.06868e-09
1.69691e-06
4.5787e-10
1.08253e-07
1.60968e-06
2.87887e-10
9.51157e-08
1.53277e-06
7.63354e-11
8.39478e-08
1.4647e-06
-1.63375e-10
7.43971e-08
1.40423e-06
-4.14031e-10
6.61937e-08
1.35032e-06
-6.60986e-10
5.91194e-08
1.3021e-06
-8.97899e-10
5.29859e-08
1.25885e-06
-1.12215e-09
4.76258e-08
1.21998e-06
-1.32735e-09
4.2896e-08
1.185e-06
-1.50268e-09
3.86892e-08
1.15347e-06
-1.6379e-09
3.49372e-08
1.125e-06
-1.72734e-09
3.15953e-08
1.09926e-06
-1.77135e-09
2.86251e-08
1.07592e-06
-1.77585e-09
2.59887e-08
1.05473e-06
-1.74882e-09
2.36456e-08
1.03546e-06
-1.69584e-09
2.15533e-08
1.01791e-06
-1.61889e-09
1.96778e-08
1.00192e-06
-1.51802e-09
1.79885e-08
9.87338e-07
-1.3934e-09
1.64447e-08
9.74064e-07
-1.24756e-09
1.50131e-08
9.61988e-07
-1.08707e-09
1.36906e-08
9.51001e-07
-9.21077e-10
1.24815e-08
9.41009e-07
-7.56701e-10
1.13653e-08
9.31944e-07
-5.96706e-10
1.0311e-08
9.2375e-07
-4.41598e-10
9.30739e-09
9.16359e-07
-2.91665e-10
8.36701e-09
9.09694e-07
-1.45553e-10
7.5102e-09
9.03673e-07
7.91684e-14
6.75173e-09
8.98214e-07
1.44857e-10
6.09735e-09
8.93242e-07
2.82881e-10
5.53668e-09
8.88715e-07
4.00977e-10
5.03602e-09
8.8462e-07
4.84926e-10
4.55303e-09
8.80966e-07
5.22456e-10
4.06238e-09
8.77761e-07
5.05346e-10
3.55833e-09
8.75008e-07
4.31675e-10
3.04835e-09
8.72687e-07
3.06771e-10
2.55403e-09
1.42872e-10
2.09683e-09
1.69675e-06
-8.53992e-09
1.08375e-07
1.60949e-06
-7.67349e-09
9.52206e-08
1.53256e-06
-7.00507e-09
8.40127e-08
1.46448e-06
-6.49595e-09
7.44114e-08
1.40401e-06
-6.1089e-09
6.61608e-08
1.35011e-06
-5.81137e-09
5.90491e-08
1.30191e-06
-5.57736e-09
5.28827e-08
1.25869e-06
-5.38503e-09
4.74878e-08
1.21985e-06
-5.21389e-09
4.27237e-08
1.1849e-06
-5.04633e-09
3.84905e-08
1.15341e-06
-4.87051e-09
3.47239e-08
1.12499e-06
-4.68039e-09
3.1379e-08
1.09927e-06
-4.47524e-09
2.84155e-08
1.07597e-06
-4.25948e-09
2.57908e-08
1.0548e-06
-4.0397e-09
2.34592e-08
1.03555e-06
-3.82018e-09
2.13767e-08
1.01802e-06
-3.60027e-09
1.95109e-08
1.00204e-06
-3.37412e-09
1.78327e-08
9.87477e-07
-3.13388e-09
1.63037e-08
9.74213e-07
-2.87663e-09
1.48928e-08
9.62139e-07
-2.60787e-09
1.35944e-08
9.51148e-07
-2.3356e-09
1.24056e-08
9.41151e-07
-2.06235e-09
1.1303e-08
9.32081e-07
-1.78544e-09
1.02583e-08
9.23882e-07
-1.50418e-09
9.26232e-09
9.16488e-07
-1.2243e-09
8.32657e-09
9.09824e-07
-9.54992e-10
7.47347e-09
9.03803e-07
-7.04478e-10
6.7253e-09
8.98335e-07
-4.79455e-10
6.09188e-09
8.93344e-07
-2.85543e-10
5.55958e-09
8.88785e-07
-1.2748e-10
5.08802e-09
8.84648e-07
-8.90659e-12
4.63087e-09
8.80944e-07
6.68983e-11
4.15911e-09
8.77689e-07
9.83636e-11
3.66182e-09
8.74891e-07
8.64027e-11
3.14331e-09
8.72538e-07
3.45479e-11
2.6253e-09
-5.13478e-11
2.13195e-09
1.69611e-06
-1.737e-08
1.08351e-07
1.60873e-06
-1.54925e-08
9.5198e-08
1.53171e-06
-1.39479e-08
8.39648e-08
1.46357e-06
-1.26769e-08
7.43209e-08
1.40307e-06
-1.1629e-08
6.60222e-08
1.34915e-06
-1.07596e-08
5.8865e-08
1.30095e-06
-1.00278e-08
5.26579e-08
1.25773e-06
-9.39582e-09
4.72279e-08
1.21891e-06
-8.83127e-09
4.24373e-08
1.18398e-06
-8.31022e-09
3.81875e-08
1.15252e-06
-7.81885e-09
3.44135e-08
1.12412e-06
-7.35135e-09
3.10721e-08
1.09843e-06
-6.90656e-09
2.81244e-08
1.07513e-06
-6.4856e-09
2.55234e-08
1.05396e-06
-6.08913e-09
2.32141e-08
1.03471e-06
-5.71519e-09
2.11443e-08
1.01719e-06
-5.35879e-09
1.92799e-08
1.00123e-06
-5.01123e-09
1.75994e-08
9.86682e-07
-4.6617e-09
1.60763e-08
9.73426e-07
-4.30381e-09
1.46831e-08
9.61353e-07
-3.93938e-09
1.34046e-08
9.50362e-07
-3.57226e-09
1.22281e-08
9.40367e-07
-3.20142e-09
1.11331e-08
9.31302e-07
-2.82284e-09
1.0103e-08
9.23101e-07
-2.43717e-09
9.13361e-09
9.15699e-07
-2.05412e-09
8.23169e-09
9.09021e-07
-1.68997e-09
7.41329e-09
9.0298e-07
-1.36148e-09
6.69818e-09
8.97486e-07
-1.0806e-09
6.09552e-09
8.92461e-07
-8.5187e-10
5.59069e-09
8.87862e-07
-6.71868e-10
5.14344e-09
8.8368e-07
-5.33038e-10
4.70645e-09
8.79928e-07
-4.27972e-10
4.24648e-09
8.76627e-07
-3.50925e-10
3.75005e-09
8.73789e-07
-2.98433e-10
3.22337e-09
8.71403e-07
-2.69585e-10
2.68956e-09
8.69447e-07
-2.64533e-10
2.17011e-09
-2.78532e-10
1.67954e-09
1.69404e-06
-2.50178e-08
1.07377e-07
1.60649e-06
-2.22758e-08
9.43322e-08
1.52934e-06
-1.99657e-08
8.31704e-08
1.46111e-06
-1.80123e-08
7.35689e-08
1.40054e-06
-1.63585e-08
6.52926e-08
1.34659e-06
-1.49565e-08
5.81486e-08
1.29837e-06
-1.37578e-08
5.19528e-08
1.25515e-06
-1.27142e-08
4.65362e-08
1.21634e-06
-1.17835e-08
4.17632e-08
1.18143e-06
-1.0936e-08
3.7535e-08
1.14998e-06
-1.01567e-08
3.37868e-08
1.1216e-06
-9.44169e-09
3.04771e-08
1.09591e-06
-8.79033e-09
2.75681e-08
1.07262e-06
-8.19886e-09
2.50092e-08
1.05145e-06
-7.65804e-09
2.27378e-08
1.03219e-06
-7.15524e-09
2.06939e-08
1.01467e-06
-6.67959e-09
1.88406e-08
9.9872e-07
-6.22311e-09
1.71647e-08
9.84184e-07
-5.77766e-09
1.56528e-08
9.70935e-07
-5.33619e-09
1.42813e-08
9.58864e-07
-4.8959e-09
1.30273e-08
9.47876e-07
-4.45546e-09
1.18711e-08
9.3789e-07
-4.01185e-09
1.07965e-08
9.28833e-07
-3.56294e-09
9.7972e-09
9.20634e-07
-3.11233e-09
8.87408e-09
9.13222e-07
-2.67183e-09
8.02981e-09
9.0652e-07
-2.2601e-09
7.27188e-09
9.00444e-07
-1.89677e-09
6.61097e-09
8.94909e-07
-1.59535e-09
6.0501e-09
8.89841e-07
-1.35816e-09
5.57454e-09
8.85196e-07
-1.17543e-09
5.14878e-09
8.80965e-07
-1.02968e-09
4.72712e-09
8.77166e-07
-9.03139e-10
4.27393e-09
8.73823e-07
-7.83928e-10
3.77655e-09
8.70946e-07
-6.68668e-10
3.24664e-09
8.68529e-07
-5.60403e-10
2.70845e-09
8.6655e-07
-4.62794e-10
2.17706e-09
-3.75988e-10
1.66124e-09
1.68744e-06
-2.90559e-08
1.03914e-07
1.59978e-06
-2.58803e-08
9.12639e-08
1.52255e-06
-2.31615e-08
8.04245e-08
1.45427e-06
-2.08224e-08
7.10886e-08
1.39369e-06
-1.88094e-08
6.3032e-08
1.33974e-06
-1.70805e-08
5.60726e-08
1.29154e-06
-1.55892e-08
5.00357e-08
1.24835e-06
-1.42846e-08
4.47601e-08
1.20957e-06
-1.31214e-08
4.01157e-08
1.1747e-06
-1.20682e-08
3.60077e-08
1.14328e-06
-1.11109e-08
3.23726e-08
1.11492e-06
-1.02477e-08
2.91675e-08
1.08925e-06
-9.47771e-09
2.63517e-08
1.06597e-06
-8.79331e-09
2.38748e-08
1.04481e-06
-8.17744e-09
2.16768e-08
1.02557e-06
-7.60809e-09
1.96978e-08
1.00806e-06
-7.06887e-09
1.78994e-08
9.92119e-07
-6.55346e-09
1.62702e-08
9.77597e-07
-6.05893e-09
1.48035e-08
9.6436e-07
-5.58099e-09
1.34814e-08
9.52299e-07
-5.11527e-09
1.22809e-08
9.41319e-07
-4.65697e-09
1.11808e-08
9.31344e-07
-4.20114e-09
1.0165e-08
9.22297e-07
-3.7466e-09
9.22982e-09
9.14105e-07
-3.29883e-09
8.37865e-09
9.06689e-07
-2.87023e-09
7.61431e-09
8.99968e-07
-2.47799e-09
6.93875e-09
8.93859e-07
-2.13859e-09
6.35136e-09
8.8828e-07
-1.8618e-09
5.84487e-09
8.83166e-07
-1.64699e-09
5.40368e-09
8.78472e-07
-1.48131e-09
4.99945e-09
8.74192e-07
-1.34217e-09
4.59275e-09
8.70344e-07
-1.2061e-09
4.15051e-09
8.66956e-07
-1.05917e-09
3.66377e-09
8.64039e-07
-9.00559e-10
3.14832e-09
8.61589e-07
-7.36858e-10
2.6271e-09
8.59588e-07
-5.72253e-10
2.11009e-09
-4.08561e-10
1.60105e-09
1.66411e-06
-2.34662e-08
9.38902e-08
1.57681e-06
-2.09446e-08
8.23628e-08
1.49992e-06
-1.87564e-08
7.24872e-08
1.43196e-06
-1.68485e-08
6.39872e-08
1.37168e-06
-1.51858e-08
5.6657e-08
1.31802e-06
-1.37431e-08
5.03276e-08
1.27008e-06
-1.24892e-08
4.48396e-08
1.22713e-06
-1.13865e-08
4.00472e-08
1.18858e-06
-1.04014e-08
3.58341e-08
1.1539e-06
-9.511e-09
3.21158e-08
1.12267e-06
-8.70564e-09
2.88325e-08
1.09446e-06
-7.98424e-09
2.59379e-08
1.06894e-06
-7.34578e-09
2.33889e-08
1.04579e-06
-6.78307e-09
2.11406e-08
1.02475e-06
-6.2808e-09
1.91457e-08
1.0056e-06
-5.81853e-09
1.73562e-08
9.8818e-07
-5.38073e-09
1.57369e-08
9.72316e-07
-4.96298e-09
1.42733e-08
9.57864e-07
-4.56611e-09
1.29585e-08
9.44693e-07
-4.18961e-09
1.17796e-08
9.32691e-07
-3.83102e-09
1.07185e-08
9.21764e-07
-3.48582e-09
9.75551e-09
9.11838e-07
-3.14851e-09
8.87382e-09
9.0284e-07
-2.81715e-09
8.06792e-09
8.94695e-07
-2.4959e-09
7.34203e-09
8.87319e-07
-2.19399e-09
6.70052e-09
8.80621e-07
-1.92289e-09
6.14234e-09
8.74516e-07
-1.6917e-09
5.65827e-09
8.68925e-07
-1.50386e-09
5.23275e-09
8.63786e-07
-1.35666e-09
4.84917e-09
8.59058e-07
-1.2399e-09
4.48674e-09
8.54734e-07
-1.13593e-09
4.11706e-09
8.50839e-07
-1.02604e-09
3.71568e-09
8.47402e-07
-9.0023e-10
3.27801e-09
8.44442e-07
-7.6022e-10
2.8194e-09
8.41959e-07
-6.1281e-10
2.3592e-09
8.3994e-07
-4.60461e-10
1.90712e-09
-3.03504e-10
1.46578e-09
1.5492e-06
7.2083e-08
1.46532e-06
6.29359e-08
1.39142e-06
5.51377e-08
1.32611e-06
4.84616e-08
1.26819e-06
4.27348e-08
1.21664e-06
3.78147e-08
1.17058e-06
3.3569e-08
1.12931e-06
2.98781e-08
1.09226e-06
2.66474e-08
1.05894e-06
2.38086e-08
1.02893e-06
2.1312e-08
1.00183e-06
1.91158e-08
9.77301e-07
1.71799e-08
9.5505e-07
1.54683e-08
9.34818e-07
1.39506e-08
9.164e-07
1.25996e-08
8.99627e-07
1.13923e-08
8.8435e-07
1.03139e-08
8.7043e-07
9.35372e-09
8.57742e-07
8.49903e-09
8.46176e-07
7.73509e-09
8.35644e-07
7.0461e-09
8.26076e-07
6.41891e-09
8.1741e-07
5.84953e-09
8.09572e-07
5.34199e-09
8.02477e-07
4.90028e-09
7.96033e-07
4.52188e-09
7.90145e-07
4.1957e-09
7.84736e-07
3.90545e-09
7.79743e-07
3.63654e-09
7.75127e-07
3.37605e-09
7.70883e-07
3.10818e-09
7.67038e-07
2.81837e-09
7.63635e-07
2.50344e-09
7.607e-07
2.17405e-09
7.58241e-07
1.84612e-09
7.56247e-07
1.53395e-09
1.24403e-09
1.84892e-06
1.82823e-08
1.83796e-07
1.7447e-06
1.60377e-08
1.6005e-07
1.65336e-06
1.4141e-08
1.39976e-07
1.57295e-06
1.25366e-08
1.22938e-07
1.50186e-06
1.11712e-08
1.08408e-07
1.43878e-06
1.00012e-08
9.59627e-08
1.38258e-06
8.99245e-09
8.52565e-08
1.33235e-06
8.1171e-09
7.60049e-08
1.28732e-06
7.35243e-09
6.79709e-08
1.24683e-06
6.67945e-09
6.09591e-08
1.21033e-06
6.08144e-09
5.48101e-08
1.17738e-06
5.54465e-09
4.93902e-08
1.14757e-06
5.0602e-09
4.45844e-08
1.12058e-06
4.6243e-09
4.02978e-08
1.0961e-06
4.23599e-09
3.64593e-08
1.07387e-06
3.89338e-09
3.30151e-08
1.05366e-06
3.59072e-09
2.99181e-08
1.03527e-06
3.31998e-09
2.7124e-08
1.01852e-06
3.07389e-09
2.45965e-08
1.00327e-06
2.84574e-09
2.23062e-08
9.89393e-07
2.62865e-09
2.02222e-08
9.76781e-07
2.41831e-09
1.83142e-08
9.6534e-07
2.21484e-09
1.65625e-08
9.54978e-07
2.02131e-09
1.49611e-08
9.456e-07
1.84283e-09
1.35079e-08
9.37112e-07
1.68563e-09
1.21955e-08
9.29423e-07
1.55368e-09
1.10093e-08
9.2245e-07
1.44569e-09
9.93186e-09
9.16126e-07
1.35516e-09
8.94782e-09
9.10395e-07
1.27289e-09
8.04369e-09
9.05217e-07
1.18976e-09
7.20782e-09
9.00565e-07
1.09743e-09
6.43241e-09
8.96421e-07
9.88927e-10
5.71446e-09
8.92769e-07
8.61691e-10
5.05595e-09
8.89592e-07
7.19667e-10
4.46406e-09
8.8686e-07
5.70657e-10
3.94513e-09
8.84533e-07
4.25565e-10
3.5019e-09
2.91957e-10
3.12803e-09
1.94589e-06
2.41908e-08
2.2558e-07
1.8374e-06
2.11334e-08
1.96941e-07
1.74238e-06
1.85638e-08
1.72705e-07
1.65878e-06
1.64017e-08
1.52096e-07
1.58493e-06
1.45721e-08
1.34483e-07
1.51943e-06
1.30129e-08
1.19358e-07
1.46111e-06
1.16744e-08
1.06311e-07
1.40903e-06
1.05168e-08
9.50037e-08
1.36236e-06
9.50701e-09
8.51594e-08
1.32044e-06
8.61752e-09
7.65521e-08
1.28269e-06
7.8257e-09
6.89881e-08
1.24863e-06
7.11513e-09
6.22989e-08
1.21786e-06
6.47637e-09
5.63469e-08
1.19e-06
5.90568e-09
5.10289e-08
1.16476e-06
5.40183e-09
4.62678e-08
1.14185e-06
4.96177e-09
4.19962e-08
1.12102e-06
4.57756e-09
3.81479e-08
1.10208e-06
4.23824e-09
3.46646e-08
1.08485e-06
3.93348e-09
3.15017e-08
1.06916e-06
3.65381e-09
2.86187e-08
1.05489e-06
3.39014e-09
2.59738e-08
1.04191e-06
3.13622e-09
2.35375e-08
1.03013e-06
2.89033e-09
2.12997e-08
1.01944e-06
2.6545e-09
1.9257e-08
1.00975e-06
2.4341e-09
1.74027e-08
1.00097e-06
2.23628e-09
1.57283e-08
9.93022e-07
2.06608e-09
1.42228e-08
9.85821e-07
1.92345e-09
1.28674e-08
9.79305e-07
1.80334e-09
1.16328e-08
9.73418e-07
1.69719e-09
1.04861e-08
9.68114e-07
1.59432e-09
9.40449e-09
9.63357e-07
1.48243e-09
8.37857e-09
9.59119e-07
1.34976e-09
7.40576e-09
9.55379e-07
1.19005e-09
6.49073e-09
9.52113e-07
1.00572e-09
5.64604e-09
9.49294e-07
8.06021e-10
4.88327e-09
9.46888e-07
6.05185e-10
4.21158e-09
4.14904e-10
3.63099e-09
1.95971e-06
2.24813e-08
2.44625e-07
1.85107e-06
1.95882e-08
2.13682e-07
1.75588e-06
1.71583e-08
1.87524e-07
1.67212e-06
1.51142e-08
1.65302e-07
1.59811e-06
1.33855e-08
1.46318e-07
1.53245e-06
1.19134e-08
1.30013e-07
1.474e-06
1.06506e-08
1.15935e-07
1.4218e-06
9.5579e-09
1.03724e-07
1.37504e-06
8.60305e-09
9.30871e-08
1.33305e-06
7.75946e-09
8.37781e-08
1.29525e-06
7.00713e-09
7.55783e-08
1.26117e-06
6.33328e-09
6.8304e-08
1.23039e-06
5.73153e-09
6.18175e-08
1.20255e-06
5.19947e-09
5.60229e-08
1.17732e-06
4.73587e-09
5.08465e-08
1.15442e-06
4.33728e-09
4.6215e-08
1.13362e-06
3.99591e-09
4.20482e-08
1.11471e-06
3.70112e-09
3.82736e-08
1.0975e-06
3.44245e-09
3.48395e-08
1.08183e-06
3.21026e-09
3.17014e-08
1.06758e-06
2.99564e-09
2.88147e-08
1.05463e-06
2.79196e-09
2.61503e-08
1.04285e-06
2.59565e-09
2.3699e-08
1.03216e-06
2.40596e-09
2.14544e-08
1.02246e-06
2.22546e-09
1.94075e-08
1.01366e-06
2.05939e-09
1.75523e-08
1.0057e-06
1.91287e-09
1.58813e-08
9.98493e-07
1.78843e-09
1.43763e-08
9.91979e-07
1.68502e-09
1.30049e-08
9.86101e-07
1.59747e-09
1.17327e-08
9.80807e-07
1.51636e-09
1.05392e-08
9.76059e-07
1.42855e-09
9.41136e-09
9.71825e-07
1.31999e-09
8.33501e-09
9.68082e-07
1.18137e-09
7.30545e-09
9.64807e-07
1.0118e-09
6.33355e-09
9.61975e-07
8.18547e-10
5.43736e-09
9.59557e-07
6.1505e-10
4.63799e-09
4.15345e-10
3.94331e-09
1.96089e-06
1.67203e-08
2.52248e-07
1.85257e-06
1.45358e-08
2.20329e-07
1.75764e-06
1.26911e-08
1.93389e-07
1.67407e-06
1.113e-08
1.70528e-07
1.60021e-06
9.80197e-09
1.51014e-07
1.53467e-06
8.66558e-09
1.34258e-07
1.47632e-06
7.68624e-09
1.19791e-07
1.42421e-06
6.83489e-09
1.07244e-07
1.37753e-06
6.08741e-09
9.63103e-08
1.33562e-06
5.42504e-09
8.67248e-08
1.29791e-06
4.83489e-09
7.82559e-08
1.26392e-06
4.30979e-09
7.07241e-08
1.23323e-06
3.84669e-09
6.40048e-08
1.20547e-06
3.44427e-09
5.8011e-08
1.18033e-06
3.10101e-09
5.2671e-08
1.15752e-06
2.81356e-09
4.79069e-08
1.13679e-06
2.57568e-09
4.36296e-08
1.11795e-06
2.3791e-09
3.97608e-08
1.1008e-06
2.21536e-09
3.62451e-08
1.08519e-06
2.0764e-09
3.3032e-08
1.07099e-06
1.9547e-09
3.00726e-08
1.05808e-06
1.84413e-09
2.73402e-08
1.04634e-06
1.74015e-09
2.48264e-08
1.03567e-06
1.63975e-09
2.25171e-08
1.02599e-06
1.54244e-09
2.03934e-08
1.01721e-06
1.45074e-09
1.84464e-08
1.00926e-06
1.3688e-09
1.66758e-08
1.00207e-06
1.30043e-09
1.50737e-08
9.95581e-07
1.24707e-09
1.36181e-08
9.89722e-07
1.20608e-09
1.22854e-08
9.84443e-07
1.16994e-09
1.10595e-08
9.79702e-07
1.12675e-09
9.91772e-09
9.75469e-07
1.06306e-09
8.82772e-09
9.71721e-07
9.68932e-10
7.7702e-09
9.68437e-07
8.41304e-10
6.74951e-09
9.65598e-07
6.84784e-10
5.78579e-09
9.63177e-07
5.10005e-10
4.90785e-09
3.30847e-10
4.13106e-09
1.95994e-06
2.5515e-07
1.85191e-06
7.74205e-09
2.22851e-07
1.75721e-06
6.71023e-09
1.95609e-07
1.67383e-06
5.82042e-09
1.72495e-07
1.60011e-06
5.04919e-09
1.52766e-07
1.5347e-06
4.37715e-09
1.3583e-07
1.47645e-06
3.78818e-09
1.21217e-07
1.42443e-06
3.26865e-09
1.08547e-07
1.37783e-06
2.80774e-09
9.7497e-08
1.336e-06
2.39784e-09
8.77865e-08
1.29837e-06
2.03473e-09
7.91871e-08
1.26445e-06
1.71697e-09
7.15338e-08
1.23384e-06
1.44435e-09
6.47134e-08
1.20616e-06
1.21628e-09
5.86406e-08
1.18109e-06
1.03104e-09
5.32395e-08
1.15834e-06
8.85811e-10
4.84288e-08
1.13768e-06
7.76631e-10
4.41205e-08
1.11889e-06
6.98694e-10
4.02386e-08
1.10179e-06
6.471e-10
3.67232e-08
1.08623e-06
6.16822e-10
3.3512e-08
1.07206e-06
6.02385e-10
3.05514e-08
1.05918e-06
5.98541e-10
2.78209e-08
1.04746e-06
6.00872e-10
2.53142e-08
1.0368e-06
6.05841e-10
2.3005e-08
1.02713e-06
6.11354e-10
2.08584e-08
1.01837e-06
6.1733e-10
1.88607e-08
1.01044e-06
6.25277e-10
1.70197e-08
1.00327e-06
6.37223e-10
1.53454e-08
9.96791e-07
6.54098e-10
1.3836e-08
9.90945e-07
6.74043e-10
1.24826e-08
9.85672e-07
6.9166e-10
1.12686e-08
9.80929e-07
6.98072e-10
1.01558e-08
9.76686e-07
6.83108e-10
9.09392e-09
9.72923e-07
6.39125e-10
8.05105e-09
9.69623e-07
5.63293e-10
7.02229e-09
9.66772e-07
4.58259e-10
6.02349e-09
9.64345e-07
3.31293e-10
5.08557e-09
1.93194e-10
4.232e-09
1.85126e-06
2.56337e-10
2.2362e-07
1.75667e-06
1.33143e-10
1.96278e-07
1.67338e-06
-2.62905e-12
1.73061e-07
1.59975e-06
-1.46124e-10
1.5323e-07
1.5344e-06
-2.93494e-10
1.36209e-07
1.47622e-06
-4.41182e-10
1.21534e-07
1.42425e-06
-5.84947e-10
1.0881e-07
1.3777e-06
-7.20131e-10
9.76991e-08
1.33592e-06
-8.42057e-10
8.79187e-08
1.29834e-06
-9.46226e-10
7.9251e-08
1.26448e-06
-1.02897e-09
7.15441e-08
1.23392e-06
-1.08837e-09
6.4689e-08
1.20629e-06
-1.12461e-09
5.85965e-08
1.18126e-06
-1.1392e-09
5.31843e-08
1.15856e-06
-1.13365e-09
4.8368e-08
1.13793e-06
-1.10891e-09
4.40629e-08
1.11918e-06
-1.06563e-09
4.01979e-08
1.10211e-06
-1.00443e-09
3.67092e-08
1.08657e-06
-9.26843e-10
3.35259e-08
1.07243e-06
-8.35951e-10
3.0593e-08
1.05956e-06
-7.35433e-10
2.78944e-08
1.04785e-06
-6.28316e-10
2.54211e-08
1.0372e-06
-5.17094e-10
2.31359e-08
1.02753e-06
-4.04237e-10
2.09937e-08
1.01877e-06
-2.92271e-10
1.89776e-08
1.01085e-06
-1.83811e-10
1.71015e-08
1.00369e-06
-8.13563e-11
1.53904e-08
9.97218e-07
1.27367e-11
1.38621e-08
9.91374e-07
9.57854e-11
1.25199e-08
9.86095e-07
1.64745e-10
1.13419e-08
9.81339e-07
2.15126e-10
1.02747e-08
9.77078e-07
2.42608e-10
9.25541e-09
9.73292e-07
2.44735e-10
8.24268e-09
9.6997e-07
2.21272e-10
7.22226e-09
9.67099e-07
1.73928e-10
6.203e-09
9.64662e-07
1.06509e-10
5.21581e-09
2.52154e-11
4.29182e-09
1.85115e-06
-7.2778e-09
2.23811e-07
1.75654e-06
-6.48143e-09
1.96437e-07
1.67324e-06
-5.8463e-09
1.73157e-07
1.5996e-06
-5.34138e-09
1.53248e-07
1.53426e-06
-4.9427e-09
1.36153e-07
1.47608e-06
-4.629e-09
1.21416e-07
1.42412e-06
-4.37901e-09
1.08637e-07
1.37759e-06
-4.17256e-09
9.74714e-08
1.33582e-06
-3.99254e-09
8.76383e-08
1.29826e-06
-3.82611e-09
7.89293e-08
1.26443e-06
-3.66557e-09
7.11975e-08
1.23389e-06
-3.50795e-09
6.43356e-08
1.20628e-06
-3.35297e-09
5.82524e-08
1.18128e-06
-3.20069e-09
5.28582e-08
1.15859e-06
-3.04965e-09
4.80604e-08
1.13798e-06
-2.89654e-09
4.37716e-08
1.11924e-06
-2.73766e-09
3.99226e-08
1.10219e-06
-2.57007e-09
3.64527e-08
1.08666e-06
-2.39237e-09
3.32946e-08
1.07253e-06
-2.205e-09
3.03953e-08
1.05966e-06
-2.00921e-09
2.77337e-08
1.04796e-06
-1.80575e-09
2.52918e-08
1.03731e-06
-1.5955e-09
2.3029e-08
1.02764e-06
-1.38108e-09
2.0904e-08
1.01888e-06
-1.16752e-09
1.89016e-08
1.01095e-06
-9.62223e-10
1.70346e-08
1.00378e-06
-7.73483e-10
1.53322e-08
9.97303e-07
-6.08163e-10
1.38225e-08
9.91447e-07
-4.70265e-10
1.2514e-08
9.86152e-07
-3.60769e-10
1.13803e-08
9.81374e-07
-2.7834e-10
1.03594e-08
9.77085e-07
-2.19552e-10
9.38126e-09
9.73271e-07
-1.79544e-10
8.39764e-09
9.69922e-07
-1.54437e-10
7.38679e-09
9.67028e-07
-1.42743e-10
6.35359e-09
9.64575e-07
-1.44106e-10
5.32931e-09
-1.57377e-10
4.34923e-09
1.85157e-06
-1.41994e-08
2.23355e-07
1.75682e-06
-1.25584e-08
1.96025e-07
1.67341e-06
-1.12049e-08
1.72741e-07
1.59968e-06
-1.00869e-08
1.52797e-07
1.53427e-06
-9.16551e-09
1.35656e-07
1.47604e-06
-8.40698e-09
1.20872e-07
1.42404e-06
-7.77636e-09
1.08051e-07
1.37749e-06
-7.23956e-09
9.68497e-08
1.33571e-06
-6.76783e-09
8.69917e-08
1.29814e-06
-6.34108e-09
7.82701e-08
1.2643e-06
-5.9493e-09
7.0539e-08
1.23376e-06
-5.58961e-09
6.36945e-08
1.20614e-06
-5.26097e-09
5.76457e-08
1.18113e-06
-4.96046e-09
5.22953e-08
1.15844e-06
-4.68152e-09
4.75374e-08
1.13783e-06
-4.41512e-09
4.32745e-08
1.11909e-06
-4.15347e-09
3.94371e-08
1.10203e-06
-3.89166e-09
3.59757e-08
1.08651e-06
-3.62671e-09
3.28378e-08
1.07237e-06
-3.35674e-09
2.99727e-08
1.0595e-06
-3.08028e-09
2.73472e-08
1.04778e-06
-2.79549e-09
2.49323e-08
1.03713e-06
-2.50183e-09
2.26927e-08
1.02745e-06
-2.20238e-09
2.06006e-08
1.01868e-06
-1.90479e-09
1.86458e-08
1.01073e-06
-1.62101e-09
1.68348e-08
1.00355e-06
-1.36457e-09
1.51893e-08
9.97049e-07
-1.14625e-09
1.37348e-08
9.91167e-07
-9.71084e-10
1.24785e-08
9.85842e-07
-8.37672e-10
1.13927e-08
9.81031e-07
-7.38556e-10
1.04147e-08
9.76708e-07
-6.61621e-10
9.47181e-09
9.72859e-07
-5.93826e-10
8.50993e-09
9.69477e-07
-5.26808e-10
7.50426e-09
9.66555e-07
-4.59314e-10
6.46205e-09
9.64079e-07
-3.94167e-10
5.4154e-09
9.62031e-07
-3.34667e-10
4.39585e-09
-2.82949e-10
3.4268e-09
1.85201e-06
-1.94142e-08
2.20995e-07
1.757e-06
-1.71408e-08
1.93924e-07
1.67338e-06
-1.52388e-08
1.70828e-07
1.59949e-06
-1.36427e-08
1.51018e-07
1.53395e-06
-1.23066e-08
1.3397e-07
1.47562e-06
-1.11914e-08
1.19259e-07
1.42355e-06
-1.0254e-08
1.065e-07
1.37694e-06
-9.45006e-09
9.53586e-08
1.33512e-06
-8.74192e-09
8.55612e-08
1.29751e-06
-8.1048e-09
7.69026e-08
1.26364e-06
-7.52846e-09
6.92385e-08
1.23307e-06
-7.01113e-09
6.24677e-08
1.20543e-06
-6.55091e-09
5.64992e-08
1.18039e-06
-6.14121e-09
5.12295e-08
1.15767e-06
-5.76948e-09
4.65432e-08
1.13704e-06
-5.42041e-09
4.23339e-08
1.11828e-06
-5.08261e-09
3.85306e-08
1.10121e-06
-4.75076e-09
3.50955e-08
1.08566e-06
-4.42206e-09
3.19919e-08
1.07151e-06
-4.09389e-09
2.91739e-08
1.05862e-06
-3.76301e-09
2.65988e-08
1.04689e-06
-3.42523e-09
2.42307e-08
1.03622e-06
-3.07837e-09
2.204e-08
1.02653e-06
-2.7258e-09
2.00112e-08
1.01774e-06
-2.37761e-09
1.81393e-08
1.00977e-06
-2.04939e-09
1.64252e-08
1.00256e-06
-1.75808e-09
1.4879e-08
9.96026e-07
-1.51605e-09
1.35137e-08
9.90104e-07
-1.32812e-09
1.23286e-08
9.84736e-07
-1.19066e-09
1.12961e-08
9.79878e-07
-1.09114e-09
1.0359e-08
9.75507e-07
-1.00975e-09
9.44645e-09
9.71611e-07
-9.26202e-10
8.50222e-09
9.68186e-07
-8.28671e-10
7.50358e-09
9.65226e-07
-7.1662e-10
6.46413e-09
9.62719e-07
-5.95607e-10
5.41622e-09
9.6065e-07
-4.72044e-10
4.38336e-09
-3.53042e-10
3.38407e-09
1.85028e-06
-2.11045e-08
2.14366e-07
1.75499e-06
-1.8634e-08
1.88052e-07
1.67114e-06
-1.65449e-08
1.65578e-07
1.59707e-06
-1.47716e-08
1.46282e-07
1.53141e-06
-1.32714e-08
1.29663e-07
1.47298e-06
-1.20086e-08
1.15314e-07
1.42084e-06
-1.09404e-08
1.02867e-07
1.37417e-06
-1.00201e-08
9.20016e-08
1.3323e-06
-9.20791e-09
8.24541e-08
1.29465e-06
-8.4788e-09
7.40268e-08
1.26074e-06
-7.82407e-09
6.65778e-08
1.23014e-06
-7.24322e-09
6.00034e-08
1.20246e-06
-6.73406e-09
5.42093e-08
1.17739e-06
-6.288e-09
4.90937e-08
1.15464e-06
-5.88865e-09
4.45458e-08
1.13397e-06
-5.51607e-09
4.04601e-08
1.11518e-06
-5.15627e-09
3.67644e-08
1.09808e-06
-4.8044e-09
3.34245e-08
1.08251e-06
-4.45959e-09
3.04132e-08
1.06833e-06
-4.12098e-09
2.76923e-08
1.05541e-06
-3.78565e-09
2.52203e-08
1.04365e-06
-3.44782e-09
2.29589e-08
1.03296e-06
-3.10311e-09
2.08788e-08
1.02325e-06
-2.75407e-09
1.89678e-08
1.01444e-06
-2.41169e-09
1.7224e-08
1.00645e-06
-2.09309e-09
1.56475e-08
9.99211e-07
-1.81553e-09
1.42392e-08
9.9264e-07
-1.59002e-09
1.29961e-08
9.86673e-07
-1.41949e-09
1.1904e-08
9.8125e-07
-1.29901e-09
1.0935e-08
9.7633e-07
-1.21405e-09
1.00418e-08
9.71892e-07
-1.14137e-09
9.1624e-09
9.67929e-07